# vtk DataFile Version 3.0 
Exported using Morpho https://github.com/Morpho-lang/morpho 
ASCII 
DATASET UNSTRUCTURED_GRID 

POINTS 1978 float 
-12 -4 3.95064e-15 
-11.6151 -4 5.32957e-15 
-11.3216 -4 2.34841e-15 
-10.9815 -4 2.8385e-16 
-10.6553 -4 -1.55723e-15 
-10.3067 -4 -7.81552e-16 
-9.99661 -4 -5.73384e-16 
-9.64957 -4 -1.18251e-15 
-9.31076 -4 9.72675e-17 
-9.00046 -4 -1.39067e-16 
-8.69338 -4 -3.31318e-16 
-8.38231 -4 2.32132e-15 
-8.08334 -4 2.19411e-15 
-7.76999 -4 2.32948e-15 
-7.48291 -4 -4.02654e-16 
-7.19522 -4 -3.34304e-15 
-6.91018 -4 -3.08149e-15 
-6.60088 -4 -1.9567e-15 
-6.29682 -4 -1.93426e-15 
-5.9878 -4 -5.23628e-15 
-5.68938 -4 -1.34667e-14 
-5.39651 -4 -2.10468e-14 
-5.11418 -4 -2.59619e-14 
-4.81551 -4 -1.56391e-14 
-4.52116 -4 -2.69446e-14 
-4.21709 -4 -7.46778e-14 
-3.91529 -4 -1.6276e-13 
-3.60016 -4 -1.43849e-13 
-3.27369 -4 -7.86076e-14 
-2.9711 -4 -5.38648e-13 
-2.64756 -4 -5.85094e-13 
-2.3722 -4 2.89598e-13 
-2.08513 -4 -4.63865e-13 
-1.8133 -4 -4.23208e-12 
-1.61804 -4 4.32053e-12 
-1.43855 -4 -7.75778e-12 
-1.27875 -4 1.18209e-11 
-1.1054 -4 -2.32269e-10 
-0.902272 -4 1.06676e-09 
-0.308881 -4 -1.07332e-08 
0.413177 -4 -1.96343e-09 
0.838472 -4 -2.48069e-10 
1.13436 -4 -6.43423e-13 
1.40577 -4 -1.98151e-11 
1.57999 -4 -1.57281e-11 
1.8167 -4 1.12978e-12 
2.09617 -4 1.06703e-12 
2.41269 -4 2.28547e-13 
2.69488 -4 2.95149e-13 
2.98859 -4 2.76651e-13 
3.2813 -4 5.64265e-14 
3.57598 -4 1.80249e-13 
3.87736 -4 1.3826e-13 
4.1832 -4 2.2938e-14 
4.49116 -4 7.67591e-15 
4.79345 -4 1.54454e-14 
5.09157 -4 3.0826e-14 
5.39174 -4 2.47172e-14 
5.69446 -4 1.28286e-14 
5.98855 -4 4.52358e-15 
6.29566 -4 3.75352e-15 
6.57312 -4 2.0859e-15 
6.89112 -4 3.603e-15 
7.18336 -4 4.61597e-15 
7.48572 -4 5.13701e-16 
7.786 -4 -3.36423e-15 
8.08034 -4 -3.69509e-15 
8.36151 -4 -1.93053e-15 
8.66236 -4 -7.62115e-17 
8.94623 -4 -3.95699e-16 
9.28986 -4 5.19816e-16 
9.62005 -4 1.09194e-15 
9.9162 -4 2.69872e-16 
10.2843 -4 1.24857e-15 
10.608 -4 1.76946e-16 
10.9827 -4 1.04212e-15 
11.3052 -4 -2.0086e-15 
11.5922 -4 -4.90192e-15 
12 -4 -5.38061e-15 
-12 -3.61764 -4.71596e-15 
-11.7088 -3.70813 -1.93987e-19 
-11.3636 -3.62294 3.47291e-20 
-11.0563 -3.67395 -2.18963e-20 
-10.7182 -3.66361 -3.66144e-20 
-10.3814 -3.68593 -1.0269e-19 
-10.0388 -3.65205 -1.6849e-20 
-9.71829 -3.6876 1.93499e-20 
-9.37498 -3.68061 5.88771e-20 
-9.04799 -3.65859 9.0062e-20 
-8.73771 -3.66164 1.2735e-19 
-8.42445 -3.66978 1.77054e-19 
-8.10926 -3.65869 2.41473e-19 
-7.80209 -3.67385 3.87452e-19 
-7.48729 -3.64889 2.21441e-19 
-7.19141 -3.64356 2.40843e-20 
-6.87789 -3.67415 1.74567e-19 
-6.5673 -3.66805 -8.86178e-20 
-6.25487 -3.6738 -5.33367e-19 
-5.94893 -3.66724 -1.02325e-18 
-5.64642 -3.66491 -1.12142e-18 
-5.35274 -3.65549 -3.26798e-18 
-5.04836 -3.67422 -5.04216e-18 
-4.7425 -3.66982 -1.19665e-17 
-4.43189 -3.67628 8.8369e-18 
-4.11563 -3.67147 2.69957e-17 
-3.7895 -3.68538 8.60268e-17 
-3.44622 -3.6933 2.40423e-16 
-3.10739 -3.6761 7.5255e-16 
-2.75815 -3.68987 2.38873e-15 
-2.41641 -3.62715 5.38979e-14 
-2.12691 -3.6623 1.13844e-13 
-1.82214 -3.65196 3.30303e-13 
-1.59422 -3.63788 1.82416e-12 
-1.42341 -3.75562 6.29686e-12 
-1.37867 -3.37894 -1.00177e-12 
-1.27111 -3.55557 6.31667e-12 
-1.19377 -3.75714 -1.54977e-11 
-0.967061 -3.80928 -8.71001e-11 
-0.191894 -3.91173 2.74399e-10 
0.262599 -3.93107 1.25261e-08 
0.96901 -3.83077 1.57323e-11 
1.25828 -3.79272 1.12313e-13 
1.43469 -3.61561 -9.51059e-12 
1.61678 -3.62131 5.82867e-12 
1.8707 -3.67972 -3.88818e-13 
2.1822 -3.70396 -8.75523e-14 
2.48467 -3.65499 -3.36786e-15 
2.77169 -3.67905 -1.33683e-15 
3.05809 -3.66566 -4.29733e-16 
3.36104 -3.66632 -1.67503e-16 
3.65948 -3.66542 -7.1038e-17 
3.96682 -3.67239 -2.88056e-17 
4.27331 -3.67098 -9.39937e-18 
4.57666 -3.66917 9.55666e-18 
4.87342 -3.66288 4.99027e-18 
5.17025 -3.66777 2.97015e-18 
5.47019 -3.67276 2.24575e-18 
5.76358 -3.66249 5.40078e-19 
6.06461 -3.67222 4.98032e-19 
6.34963 -3.64246 2.6307e-19 
6.6524 -3.68017 -1.7273e-19 
6.94737 -3.65351 -1.26443e-19 
7.24906 -3.66616 -8.53524e-20 
7.55327 -3.66391 -2.55054e-19 
7.85067 -3.65504 -2.46639e-19 
8.14312 -3.64236 -1.69501e-19 
8.43982 -3.66397 -2.78698e-19 
8.73273 -3.63957 -1.50836e-20 
9.05617 -3.69896 -9.12097e-20 
9.38936 -3.68297 -8.54615e-20 
9.69914 -3.644 2.24865e-20 
10.0409 -3.71073 6.36425e-20 
10.3772 -3.6658 1.8945e-20 
10.7352 -3.70844 1.03608e-19 
11.0723 -3.65796 3.15309e-20 
11.3716 -3.61339 -2.94373e-20 
11.7183 -3.72507 1.74711e-19 
12 -3.60629 5.38588e-15 
-12 -3.3228 -5.39794e-15 
-11.6228 -3.35828 -5.22968e-20 
-11.2734 -3.28123 4.03863e-21 
-10.9586 -3.34038 6.05098e-22 
-10.6487 -3.29826 1.27911e-21 
-10.3582 -3.36125 -1.5913e-22 
-10.0502 -3.29985 9.49443e-21 
-9.7406 -3.34626 -4.02587e-21 
-9.42485 -3.3625 -1.13785e-20 
-9.09919 -3.32947 1.53809e-21 
-8.78486 -3.31869 2.1827e-21 
-8.47898 -3.33514 -3.40938e-21 
-8.17033 -3.33115 -9.65231e-22 
-7.85527 -3.33439 6.30191e-21 
-7.55222 -3.32675 2.12524e-20 
-7.23996 -3.30076 4.95082e-20 
-6.93604 -3.34383 9.831e-21 
-6.62749 -3.34097 -6.5827e-20 
-6.31532 -3.3457 -5.32655e-21 
-6.00919 -3.33815 -8.28012e-21 
-5.70591 -3.33617 -9.56115e-20 
-5.40486 -3.32026 7.52475e-19 
-5.1039 -3.34498 -1.17761e-18 
-4.80142 -3.3455 -7.38468e-18 
-4.49381 -3.35049 8.41437e-18 
-4.18492 -3.35181 2.22287e-17 
-3.86091 -3.36522 5.98156e-17 
-3.53453 -3.38655 1.66243e-16 
-3.19896 -3.3652 4.65477e-16 
-2.8593 -3.37815 1.70095e-15 
-2.5288 -3.32535 4.16762e-15 
-2.19165 -3.27576 1.49077e-14 
-1.91972 -3.34784 3.5831e-13 
-1.63764 -3.31355 -1.72243e-12 
-1.36544 -3.13373 -2.80984e-12 
-1.12753 -2.99066 -5.77785e-13 
-1.07649 -3.23004 -2.99063e-11 
-1.06714 -3.4189 3.25709e-11 
-0.970123 -3.60054 -1.27891e-11 
-0.697721 -3.92224 -3.09751e-10 
0.495911 -3.78295 -8.53645e-10 
0.664633 -3.88949 6.64477e-11 
1.00322 -3.45418 -3.87671e-11 
1.32034 -3.43448 -1.08357e-11 
1.3129 -3.16693 1.34159e-12 
1.58643 -3.25028 -5.34356e-13 
1.82416 -3.34901 -6.9872e-13 
2.1189 -3.39751 -2.45068e-13 
2.43139 -3.35042 -3.04721e-15 
2.77514 -3.34191 -9.21472e-16 
3.11139 -3.35469 -3.01425e-16 
3.43778 -3.33771 -1.14496e-16 
3.77344 -3.35236 -4.30901e-17 
4.10351 -3.35229 -1.40404e-17 
4.4324 -3.34745 1.2221e-17 
4.74933 -3.33613 4.73294e-18 
5.06593 -3.33739 1.21791e-18 
5.37804 -3.3477 7.38527e-19 
5.6854 -3.33314 3.60496e-19 
5.99465 -3.34527 -4.90029e-20 
6.29919 -3.30298 -2.6479e-19 
6.60381 -3.34508 6.81227e-20 
6.90603 -3.31708 -4.8934e-20 
7.21087 -3.33229 3.89385e-21 
7.51845 -3.33314 1.27372e-20 
7.82757 -3.31474 2.75075e-21 
8.13178 -3.30042 -6.98305e-20 
8.43553 -3.31717 3.50831e-20 
8.7521 -3.31606 9.48589e-21 
9.07395 -3.3819 -3.37254e-20 
9.38992 -3.34604 1.06297e-20 
9.70496 -3.30335 -2.11321e-21 
10.0159 -3.39332 -6.45094e-22 
10.3105 -3.31381 -7.45915e-21 
10.6329 -3.39047 -4.03626e-21 
10.9635 -3.34612 -5.21111e-22 
11.2885 -3.25874 -9.47218e-21 
11.6298 -3.37119 6.19715e-20 
12 -3.30681 6.00303e-15 
-12 -2.98828 -3.56045e-15 
-11.6683 -3.05176 -9.32333e-20 
-11.3296 -2.96795 -1.66642e-20 
-10.9758 -2.98551 1.96787e-20 
-10.6386 -2.97155 -4.73946e-21 
-10.3044 -2.99568 -3.32402e-21 
-9.97586 -2.96262 -2.75053e-20 
-9.66797 -3.0098 1.89153e-20 
-9.35815 -3.02366 4.24109e-22 
-9.04551 -2.98789 -5.83089e-22 
-8.73561 -2.98031 -2.60144e-22 
-8.43022 -3.00013 6.69236e-21 
-8.1166 -3.00485 2.96529e-21 
-7.81235 -2.99522 -7.34527e-22 
-7.5061 -2.99541 -2.66672e-20 
-7.20079 -2.96822 -6.90203e-21 
-6.90114 -3.01421 -7.96197e-20 
-6.59144 -3.01587 8.54884e-20 
-6.28907 -3.01397 -1.3447e-20 
-5.98922 -3.00709 -4.42411e-20 
-5.68882 -3.00696 -7.20109e-19 
-5.3921 -2.98913 7.18664e-19 
-5.09533 -3.01718 -1.99642e-18 
-4.79632 -3.01663 1.44757e-18 
-4.49527 -3.0242 -4.89448e-18 
-4.19029 -3.02351 9.8618e-18 
-3.88298 -3.04964 2.92851e-17 
-3.55533 -3.06519 9.66975e-17 
-3.23174 -3.054 2.50888e-16 
-2.88954 -3.05881 5.68406e-17 
-2.54238 -3.00767 5.65041e-18 
-2.16621 -2.98036 -4.78851e-15 
-1.80541 -3.0084 -2.96331e-13 
-1.52986 -2.93876 1.66685e-13 
-1.2451 -2.76748 1.30205e-13 
-0.896022 -2.85294 1.71004e-13 
-0.862086 -3.12935 1.33631e-11 
-0.805963 -3.40845 -2.16274e-10 
-0.520281 -3.8421 -5.35975e-10 
-0.168434 -3.73346 2.35868e-09 
0.7888 -3.68796 -1.87697e-11 
1.0926 -3.62687 -2.52018e-11 
1.05549 -3.24508 4.04488e-12 
1.00393 -2.99727 1.44677e-11 
1.24233 -2.87792 -1.414e-12 
1.54585 -2.95491 -8.11065e-13 
1.84915 -3.00923 7.46471e-13 
2.13956 -3.07017 1.8734e-13 
2.50754 -3.06011 -8.25155e-16 
2.8585 -3.03999 -2.30652e-16 
3.17918 -3.03051 -6.32702e-17 
3.5234 -3.03167 -3.37389e-17 
3.8472 -3.0363 -1.26761e-17 
4.1727 -3.0371 1.029e-17 
4.48272 -3.01977 3.76189e-18 
4.79573 -3.01492 7.39635e-19 
5.10428 -3.01488 2.16273e-19 
5.40395 -3.01961 -1.05711e-18 
5.70228 -3.00085 4.01281e-19 
5.99988 -3.01977 1.35658e-19 
6.3011 -2.97226 2.12917e-19 
6.60166 -3.01194 -4.57992e-20 
6.90712 -2.98628 3.71507e-20 
7.21182 -2.99881 -2.24589e-20 
7.51381 -3.00292 -2.41511e-21 
7.81933 -2.98103 1.43919e-20 
8.12441 -2.96959 -3.19558e-21 
8.43594 -2.98097 3.14337e-20 
8.74202 -2.98305 -7.5892e-20 
9.0526 -3.05236 3.38004e-21 
9.36456 -3.01377 1.9281e-22 
9.66407 -2.9593 1.44383e-21 
9.98692 -3.03764 1.1351e-21 
10.3224 -2.98744 8.76907e-22 
10.6535 -3.05609 1.42728e-21 
10.9811 -3.00407 3.47922e-18 
11.3336 -2.93815 1.72336e-20 
11.6629 -3.05857 8.8469e-20 
12 -2.97762 2.5137e-15 
-12 -2.67289 -9.26775e-16 
-11.6496 -2.71722 -7.71309e-20 
-11.3261 -2.62993 1.34134e-20 
-11.0001 -2.67073 -6.71813e-21 
-10.6561 -2.64729 3.02394e-22 
-10.3193 -2.66818 6.21942e-21 
-9.98353 -2.64444 1.58604e-20 
-9.64593 -2.66674 -2.50956e-20 
-9.33334 -2.683 -8.44256e-19 
-9.01461 -2.6532 -1.79258e-21 
-8.7016 -2.64675 7.22479e-21 
-8.38733 -2.67621 -4.54169e-21 
-8.07661 -2.6726 1.62112e-21 
-7.76717 -2.66442 -1.65822e-21 
-7.46361 -2.66113 5.19773e-22 
-7.15086 -2.64283 1.06912e-20 
-6.84796 -2.6902 9.45043e-21 
-6.54508 -2.68496 -2.24835e-20 
-6.24619 -2.68101 -2.12289e-20 
-5.94415 -2.68077 -2.19108e-20 
-5.6495 -2.67523 4.21223e-19 
[...]
POINT_DATA 1978 
VECTORS vectors float
2.90456e-06 9.49023e-05 1 
-8.60463e-07 0.000123424 1 
3.96877e-10 9.695e-05 1 
3.71887e-08 8.18296e-05 1 
-1.26392e-07 7.83869e-05 1 
-9.10726e-08 8.32392e-05 1 
1.83746e-08 9.02292e-05 1 
-7.39196e-09 9.90649e-05 1 
2.21761e-08 0.000104465 1 
3.20805e-09 0.000102038 1 
-1.04061e-07 8.97971e-05 1 
-2.10111e-07 6.37085e-05 1 
-1.79057e-07 2.07915e-05 1 
-5.93203e-08 -4.15748e-05 1 
-1.54631e-08 -0.000102735 1 
-1.63794e-07 -0.000157836 1 
-4.85491e-07 -0.000204794 1 
-6.88362e-07 -0.000247029 1 
-1.39671e-07 -0.000268909 1 
5.03211e-07 -0.000228238 1 
8.31557e-07 -4.50011e-05 1 
4.74773e-07 0.000368313 1 
2.07075e-07 0.00106253 0.999999 
1.92135e-06 0.00211477 0.999998 
-2.2555e-07 0.00342652 0.999994 
-5.16307e-06 0.00527467 0.999986 
-6.51277e-06 0.00814753 0.999967 
9.30953e-06 0.0124537 0.999922 
2.63455e-05 0.0185213 0.999828 
4.08365e-05 0.0274358 0.999624 
0.00012042 0.0418763 0.999123 
3.01486e-06 0.057684 0.998335 
-0.000335592 0.0806713 0.996741 
-0.000153978 0.114008 0.99348 
-9.12441e-06 0.137584 0.99049 
-0.000144762 0.164815 0.986325 
9.82467e-05 0.193197 0.98116 
-1.71314e-05 0.227417 0.973798 
-0.00282083 0.274049 0.961712 
-0.00187849 0.651887 0.758314 
-0.00202781 0.582405 -0.812896 
0.000451477 0.361257 -0.932466 
0.000951473 0.264796 -0.964304 
0.000250655 0.194285 -0.980945 
1.66417e-05 0.150512 -0.988608 
0.000387673 0.100468 -0.99494 
0.000188434 0.0672596 -0.997735 
-0.000262048 0.0451242 -0.998981 
-0.000152351 0.0325461 -0.99947 
2.09364e-05 0.0232376 -0.99973 
1.65687e-05 0.0164441 -0.999865 
-1.57688e-05 0.0115726 -0.999933 
-9.97967e-06 0.00790651 -0.999969 
-6.73872e-06 0.00525034 -0.999986 
-5.83351e-06 0.00336014 -0.999994 
-1.61467e-06 0.002076 -0.999998 
1.11618e-07 0.00113759 -0.999999 
-2.18265e-07 0.000429571 -1 
-6.93603e-07 -2.8545e-05 -1 
-6.74533e-07 -0.000245231 -1 
5.44843e-08 -0.000298794 -1 
3.64023e-07 -0.000286014 -1 
5.87473e-07 -0.000237204 -1 
5.40147e-07 -0.000182532 -1 
2.26018e-07 -0.000113761 -1 
5.54592e-08 -3.92591e-05 -1 
6.69167e-08 2.61575e-05 -1 
1.10941e-07 7.19159e-05 -1 
6.4245e-08 9.96092e-05 -1 
6.09862e-08 0.000112004 -1 
-7.9039e-09 0.000112332 -1 
-6.35217e-08 0.000107163 -1 
4.79794e-08 9.9243e-05 -1 
8.48303e-08 8.74009e-05 -1 
1.67578e-07 8.1317e-05 -1 
7.76849e-08 8.3311e-05 -1 
2.39908e-08 9.52222e-05 -1 
8.45129e-07 0.000118028 -1 
-2.66938e-06 8.87662e-05 -1 
-6.24111e-05 4.43788e-06 1 
-4.04067e-05 0.000118518 1 
-2.8518e-05 8.89841e-05 1 
-1.87138e-05 8.12572e-05 1 
-1.63452e-05 7.79522e-05 1 
-1.59551e-05 8.0843e-05 1 
-1.8228e-05 8.45295e-05 1 
-1.71947e-05 8.96745e-05 1 
-1.59134e-05 9.08801e-05 1 
-1.30215e-05 8.44207e-05 1 
-5.86943e-06 6.96089e-05 1 
6.57622e-06 4.29894e-05 1 
2.46062e-05 1.25282e-07 1 
4.39141e-05 -5.16279e-05 1 
6.77268e-05 -0.000111865 1 
8.44365e-05 -0.000162313 1 
9.10632e-05 -0.000205237 1 
9.73763e-05 -0.000228346 1 
8.99821e-05 -0.000210605 1 
6.53402e-05 -9.71721e-05 1 
3.76731e-06 0.000190001 1 
-0.000115746 0.000723071 1 
-0.000333149 0.00154434 0.999999 
-0.000638294 0.00269829 0.999996 
-0.000934776 0.00429 0.99999 
-0.00123795 0.00667338 0.999977 
-0.0016317 0.0101868 0.999947 
-0.00209418 0.0154045 0.999879 
-0.00243918 0.0231036 0.99973 
-0.00270205 0.0350847 0.999381 
-0.00245434 0.0508244 0.998705 
-0.00120983 0.070554 0.997507 
0.000206555 0.10003 0.994984 
0.00487944 0.131961 0.991243 
0.00381656 0.164223 0.986416 
0.0222172 0.155827 0.987535 
0.0215968 0.195983 0.980369 
0.00907995 0.208532 0.977973 
-0.005722 0.305721 0.952104 
0.0385049 0.734692 0.677307 
-0.0113102 0.675021 -0.737712 
-0.00251829 0.309458 -0.95091 
0.00499408 0.230982 -0.972945 
0.00235532 0.178562 -0.983926 
0.00436222 0.131154 -0.991352 
0.00346944 0.0896212 -0.99597 
0.00281688 0.0602616 -0.998179 
0.00205893 0.0423571 -0.9991 
0.0017523 0.0306034 -0.99953 
0.00147287 0.0219318 -0.999758 
0.00129773 0.0153017 -0.999882 
0.00124001 0.0106621 -0.999942 
0.00106137 0.00734914 -0.999972 
0.000782312 0.00492727 -0.999988 
0.000574585 0.0032126 -0.999995 
0.000402957 0.00201101 -0.999998 
0.000223015 0.00113757 -0.999999 
7.41798e-05 0.000494282 -1 
-1.98074e-05 8.22132e-05 -1 
-6.57283e-05 -0.000153892 -1 
-9.3639e-05 -0.000232654 -1 
-9.08573e-05 -0.0002496 -1 
-9.35251e-05 -0.000222052 -1 
-8.35818e-05 -0.00017181 -1 
-7.05302e-05 -0.00011158 -1 
-5.21221e-05 -4.98577e-05 -1 
-3.05881e-05 3.92179e-06 -1 
-8.97912e-06 5.02191e-05 -1 
5.97422e-06 7.48485e-05 -1 
1.31132e-05 9.5927e-05 -1 
1.76586e-05 9.86084e-05 -1 
1.98982e-05 9.48727e-05 -1 
1.58291e-05 9.13597e-05 -1 
1.50672e-05 8.45911e-05 -1 
1.29177e-05 8.11103e-05 -1 
1.68153e-05 8.29003e-05 -1 
2.52548e-05 8.92889e-05 -1 
3.48531e-05 0.000118151 -1 
5.68801e-05 1.18419e-06 -1 
-7.42207e-05 1.00711e-05 1 
-5.60407e-05 8.03659e-05 1 
-3.76184e-05 7.39754e-05 1 
-2.96636e-05 7.66067e-05 1 
-2.88554e-05 7.87219e-05 1 
-2.80157e-05 8.05423e-05 1 
-3.19367e-05 8.13003e-05 1 
-3.17748e-05 8.06277e-05 1 
-3.00567e-05 7.7758e-05 1 
-2.65099e-05 6.55623e-05 1 
-1.61378e-05 4.59969e-05 1 
2.55418e-06 1.91922e-05 1 
2.93222e-05 -2.11312e-05 1 
6.30745e-05 -7.09718e-05 1 
9.7789e-05 -0.000123471 1 
0.000135064 -0.000175861 1 
0.000159487 -0.000210842 1 
0.000179206 -0.000223754 1 
0.000178152 -0.000187674 1 
0.000156151 -5.04478e-05 1 
9.47019e-05 0.000265517 1 
-4.2466e-05 0.000844658 1 
-0.000341985 0.00168437 0.999999 
-0.000797802 0.00282372 0.999996 
-0.00130394 0.00439305 0.99999 
-0.00173328 0.00666935 0.999976 
-0.00224761 0.00994336 0.999948 
-0.00286189 0.0143853 0.999892 
-0.0031845 0.0211414 0.999771 
-0.00314329 0.0313884 0.999502 
-0.00245266 0.044497 0.999007 
0.00103622 0.0623051 0.998057 
0.00446699 0.0849462 0.996376 
0.0130372 0.112043 0.993618 
0.0359304 0.133352 0.990417 
0.0672 0.165387 0.983937 
0.0539005 0.201864 0.977929 
0.0357203 0.250691 0.967408 
0.020734 0.292821 0.955943 
0.0255033 0.454961 0.890146 
-0.0463491 0.570061 -0.820294 
-0.0114894 0.463507 -0.886019 
-0.0385359 0.27918 -0.959465 
-0.0101002 0.203547 -0.979013 
-0.0291378 0.159377 -0.986788 
-0.00921023 0.136029 -0.990662 
-0.00356457 0.0979893 -0.995181 
0.000826678 0.0674392 -0.997723 
0.00108331 0.0437603 -0.999041 
0.00142545 0.0293151 -0.999569 
0.00139862 0.0201412 -0.999796 
0.00142876 0.0138248 -0.999903 
0.00148612 0.00939348 -0.999955 
0.00121823 0.00632627 -0.999979 
0.00091249 0.00416934 -0.999991 
0.000638526 0.00265521 -0.999996 
0.000330572 0.00159863 -0.999999 
7.72228e-05 0.000846536 -1 
-7.38016e-05 0.000327228 -1 
-0.000136611 -7.83834e-06 -1 
-0.000170306 -0.000168147 -1 
-0.000168411 -0.000235396 -1 
-0.000164825 -0.000231155 -1 
-0.000143534 -0.000197163 -1 
-0.000117289 -0.00014637 -1 
-8.41442e-05 -9.10453e-05 -1 
-4.63998e-05 -3.7907e-05 -1 
-1.09774e-05 1.11102e-05 -1 
1.45953e-05 4.70185e-05 -1 
2.62352e-05 7.41035e-05 -1 
3.33802e-05 8.23655e-05 -1 
3.48703e-05 8.54374e-05 -1 
2.87506e-05 8.7689e-05 -1 
2.80093e-05 8.58727e-05 -1 
2.34665e-05 8.30007e-05 -1 
2.50764e-05 7.967e-05 -1 
3.2647e-05 7.57563e-05 -1 
4.91446e-05 8.22481e-05 -1 
6.65375e-05 9.27881e-06 -1 
-6.2313e-05 -1.00581e-06 1 
-5.96367e-05 5.44984e-05 1 
-3.9258e-05 6.2129e-05 1 
-3.23164e-05 7.30894e-05 1 
-3.16113e-05 7.9959e-05 1 
-3.32853e-05 8.08389e-05 1 
-3.67054e-05 7.70932e-05 1 
-3.91382e-05 7.16629e-05 1 
-3.85847e-05 6.05803e-05 1 
-3.33794e-05 4.05082e-05 1 
-2.01038e-05 1.3907e-05 1 
2.55217e-06 -1.91887e-05 1 
3.61038e-05 -6.36384e-05 1 
7.59675e-05 -0.000113958 1 
0.000118453 -0.00016385 1 
0.000162139 -0.000212125 1 
0.000196868 -0.000235527 1 
0.000225914 -0.000235046 1 
0.000235071 -0.000172703 1 
0.000228102 2.34095e-06 1 
0.000192392 0.000375992 1 
9.24888e-05 0.00101518 0.999999 
-0.000197479 0.00192148 0.999998 
-0.000656899 0.00313888 0.999995 
-0.00116292 0.00470778 0.999988 
-0.00154582 0.00689813 0.999975 
-0.00195235 0.00984996 0.99995 
-0.00245919 0.0137988 0.999902 
-0.00242785 0.0193903 0.999809 
-0.00185332 0.0279912 0.999606 
9.2297e-07 0.0389284 0.999242 
0.00545688 0.0542496 0.998512 
0.0144536 0.0772944 0.996904 
0.0290224 0.0966194 0.994898 
0.0547296 0.114445 0.991921 
0.0946477 0.145687 0.984793 
0.107435 0.218549 0.969894 
0.0769383 0.278268 0.957417 
0.0703023 0.527789 0.846461 
0.0958905 0.771796 0.628598 
-0.024717 0.373254 -0.9274 
-0.0104728 0.258174 -0.966042 
-0.047516 0.216111 -0.975212 
-0.0812038 0.185699 -0.979246 
-0.0511787 0.131735 -0.989963 
-0.0246475 0.103836 -0.994289 
-0.0112821 0.0756989 -0.997067 
-0.00394473 0.0556519 -0.998442 
-0.00171834 0.0362674 -0.999341 
-0.000288507 0.024812 -0.999692 
0.000220537 0.0175903 -0.999845 
0.000773182 0.0121344 -0.999926 
0.00109826 0.008427 -0.999964 
0.000946676 0.00588215 -0.999982 
0.000700101 0.00403495 -0.999992 
0.00044137 0.0026315 -0.999996 
0.000149125 0.00164736 -0.999999 
-6.93181e-05 0.000938985 -1 
-0.000184897 0.000420584 -1 
-0.000206901 5.95577e-05 -1 
-0.000216382 -0.000145485 -1 
-0.000208457 -0.000234451 -1 
-0.000196337 -0.000252725 -1 
-0.000168873 -0.000226048 -1 
-0.000134668 -0.000181724 -1 
-9.30799e-05 -0.000131873 -1 
-4.7927e-05 -7.97173e-05 -1 
-7.36938e-06 -2.58416e-05 -1 
2.05037e-05 1.32405e-05 -1 
3.44675e-05 4.92244e-05 -1 
4.10874e-05 6.54445e-05 -1 
4.05552e-05 7.59266e-05 -1 
3.50922e-05 8.44344e-05 -1 
3.03655e-05 8.69713e-05 -1 
2.70232e-05 8.42438e-05 -1 
2.6909e-05 7.79445e-05 -1 
3.18703e-05 6.54231e-05 -1 
5.03598e-05 5.76886e-05 -1 
5.30184e-05 -9.52963e-07 -1 
-3.85515e-05 -2.60914e-06 1 
-4.25872e-05 3.57001e-05 1 
-2.98254e-05 5.61397e-05 1 
-2.82648e-05 7.18356e-05 1 
-2.86382e-05 8.16265e-05 1 
-3.17605e-05 8.23978e-05 1 
-3.59449e-05 7.71985e-05 1 
-4.01468e-05 6.41425e-05 1 
-4.12271e-05 4.70111e-05 1 
-3.61839e-05 1.89091e-05 1 
-2.25791e-05 -1.61947e-05 1 
1.77461e-06 -5.61332e-05 1 
3.65243e-05 -0.000105467 1 
7.9008e-05 -0.000157842 1 
0.000124154 -0.000207777 1 
0.00017114 -0.000253489 1 
0.000212515 -0.000270161 1 
0.000246813 -0.000257916 1 
0.000270616 -0.00017815 1 
0.000288758 3.32312e-05 1 
0.000295191 0.000445033 1 
0.000242884 0.00116167 0.999999 
1.85307e-05 0.00214666 0.999998 
-0.000364828 0.00343496 0.999994 
-0.000739024 0.00503479 0.999987 
-0.00094948 0.00722885 0.999973 
-0.00114389 0.0101972 0.999947 
-0.00115618 0.0137034 0.999905 
-0.000600179 0.0188973 0.999821 
0.00077347 0.0261648 0.999657 
0.00411109 0.0354946 0.999361 
0.0115911 0.0483764 0.998762 
0.0221276 0.0621401 0.997822 
0.0378371 0.0739409 0.996545 
0.0619803 0.0853209 0.994424 
0.110039 0.115938 0.987142 
0.159409 0.236133 0.958556 
0.126038 0.311487 0.941855 
0.0641047 0.370449 0.926638 
0.133783 0.564614 0.81444 
-0.110747 0.516523 -0.849081 
-0.0887548 0.300223 -0.949731 
-0.122713 0.197478 -0.972597 
-0.0814353 0.116217 -0.98988 
-0.0521719 0.0899933 -0.994575 
-0.0298583 0.0741983 -0.996796 
-0.0163349 0.0564972 -0.998269 
-0.00790107 0.0419696 -0.999088 
-0.00420636 0.0278306 -0.999604 
-0.00224385 0.0198938 -0.9998 
-0.000938779 0.0143896 -0.999896 
-3.53966e-05 0.0100662 -0.999949 
0.000416873 0.00721729 -0.999974 
0.000383462 0.00523988 -0.999986 
0.000252998 0.00363592 -0.999993 
6.93617e-05 0.00243025 -0.999997 
-0.000130914 0.00157346 -0.999999 
-0.000255257 0.00092063 -1 
-0.000288842 0.000404825 -1 
-0.000261945 4.85322e-05 -1 
-0.000237191 -0.000169976 -1 
-0.000217905 -0.000254404 -1 
-0.000198354 -0.00027958 -1 
-0.000169763 -0.000260859 -1 
-0.000132145 -0.000219055 -1 
-8.6331e-05 -0.000169685 -1 
-3.65686e-05 -0.000110931 -1 
1.94988e-06 -5.72849e-05 -1 
2.75454e-05 -1.19621e-05 -1 
3.96213e-05 2.86584e-05 -1 
4.37009e-05 5.23645e-05 -1 
4.05082e-05 7.19491e-05 -1 
3.46014e-05 8.42213e-05 -1 
2.79868e-05 9.00386e-05 -1 
2.47795e-05 8.72002e-05 -1 
2.27123e-05 7.76319e-05 -1 
2.23711e-05 6.0367e-05 -1 
3.52594e-05 3.92013e-05 -1 
2.70884e-05 -3.22086e-06 -1 
-3.60568e-06 -2.95188e-06 1 
-2.06472e-05 2.28974e-05 1 
-1.49643e-05 4.99083e-05 1 
-1.77642e-05 7.22926e-05 1 
-2.12353e-05 8.44781e-05 1 
-2.56599e-05 8.82112e-05 1 
-3.03497e-05 8.34586e-05 1 
-3.64326e-05 6.91835e-05 1 
-4.06899e-05 4.73221e-05 1 
-3.98865e-05 1.74727e-05 1 
-3.07286e-05 -2.4531e-05 1 
-1.0916e-05 -7.17158e-05 1 
1.87264e-05 -0.000121914 1 
5.87362e-05 -0.000177887 1 
0.000104419 -0.000234471 1 
0.000150716 -0.000282406 1 
0.00019804 -0.000312119 1 
0.000238668 -0.000310547 1 
0.000278625 -0.000261752 1 
0.000318174 -0.000114336 1 
0.000360327 0.000188349 1 
0.000391514 0.000740774 1 
0.000353542 0.00162523 0.999999 
0.000157961 0.00275227 0.999996 
-0.000109894 0.00411629 0.999992 
-0.000293832 0.00587763 0.999983 
-0.000283985 0.00835964 0.999965 
-5.00648e-05 0.0111999 0.999937 
0.000537436 0.0150031 0.999887 
0.00208236 0.0202775 0.999792 
0.00495372 0.0271417 0.999619 
0.0112504 0.0360318 0.999287 
0.0231613 0.0437965 0.998772 
0.0372515 0.049799 0.998064 
0.0596977 0.055938 0.996648 
0.10492 0.0724817 0.991836 
0.18485 0.192336 0.963762 
0.177362 0.410054 0.89465 
0.115604 0.426889 0.896885 
-0.0710039 0.697294 -0.713259 
-0.0620195 0.421766 -0.904581 
-0.139632 0.305198 -0.941996 
-0.158621 0.167392 -0.973046 
-0.101383 0.0945326 -0.990346 
-0.058912 0.0600596 -0.996455 
-0.0363904 0.0536516 -0.997896 
-0.0222605 0.0440128 -0.998783 
-0.0125274 0.0355008 -0.999291 
-0.00721835 0.0253872 -0.999652 
-0.00420017 0.0175759 -0.999837 
-0.00229973 0.0134256 -0.999907 
-0.00100717 0.00951812 -0.999954 
-0.00030294 0.00687615 -0.999976 
-0.000168152 0.00497441 -0.999988 
-0.000160601 0.00353419 -0.999994 
-0.000250008 0.00239735 -0.999997 
-0.000361816 0.00155329 -0.999999 
-0.000393521 0.000916915 -1 
-0.00036021 0.000413765 -1 
-0.000296815 4.33266e-05 -1 
-0.000254074 -0.000176497 -1 
-0.000223773 -0.000285862 -1 
-0.000200932 -0.00031665 -1 
-0.000170243 -0.000307547 -1 
-0.00013233 -0.000268475 -1 
-8.55326e-05 -0.00022061 -1 
-3.72977e-05 -0.000156369 -1 
4.67247e-06 -9.29461e-05 -1 
2.99561e-05 -3.97263e-05 -1 
4.14046e-05 1.14679e-05 -1 
4.26011e-05 4.70041e-05 -1 
3.66702e-05 7.24213e-05 -1 
3.03663e-05 8.73496e-05 -1 
2.25168e-05 9.586e-05 -1 
1.89261e-05 9.20861e-05 -1 
1.44585e-05 8.09913e-05 -1 
8.1596e-06 6.38015e-05 -1 
1.18413e-05 3.64675e-05 -1 
1.58378e-06 -2.00872e-06 -1 
1.98157e-05 -1.02483e-06 1 
8.06864e-06 3.52393e-05 1 
-2.08085e-06 6.44837e-05 1 
-8.7325e-06 8.43054e-05 1 
-1.61096e-05 9.46282e-05 1 
-2.15985e-05 9.63113e-05 1 
-2.81607e-05 8.71234e-05 1 
-3.50299e-05 6.79974e-05 1 
-3.99445e-05 3.87534e-05 1 
-3.89242e-05 -2.22962e-06 1 
-2.7789e-05 -5.61288e-05 1 
-6.67161e-06 -0.000112808 1 
2.48874e-05 -0.000172268 1 
6.6e-05 -0.000237196 1 
0.000112434 -0.000299384 1 
0.000161362 -0.000344086 1 
0.000205541 -0.000368364 1 
0.000250549 -0.000354928 1 
0.000300562 -0.000284231 1 
0.000351845 -0.000116882 1 
0.000417895 0.000223437 1 
0.000491543 0.000832962 1 
0.000522852 0.0017331 0.999998 
0.00043322 0.0028451 0.999996 
0.000285867 0.0041895 0.999991 
0.000215356 0.00601415 0.999982 
0.00044808 0.00812582 0.999967 
0.000952666 0.0107523 0.999942 
0.00195093 0.0139368 0.999901 
0.00392968 0.0182286 0.999826 
0.0076554 0.0241271 0.99968 
0.0142033 0.0292184 0.999472 
0.0210999 0.0277673 0.999392 
0.0331293 0.030374 0.998989 
0.0578729 0.0314902 0.997827 
0.101946 0.0334718 0.994227 
0.190464 0.133548 0.972568 
0.247594 0.352811 0.902342 
0.203504 0.619093 0.758491 
0.0693933 0.925124 0.37327 
-0.150276 0.423712 -0.893244 
-0.212777 0.335962 -0.917527 
-0.171942 0.117572 -0.978066 
-0.101082 0.0548018 -0.993368 
-0.0598363 0.0339343 -0.997631 
-0.0364116 0.0341021 -0.998755 
-0.0229792 0.0293978 -0.999304 
-0.0143086 0.0269599 -0.999534 
-0.00831675 0.0200322 -0.999765 
-0.00500223 0.0144479 -0.999883 
-0.00285296 0.0109128 -0.999936 
-0.00144433 0.00788929 -0.999968 
-0.000825926 0.0059117 -0.999982 
-0.000618147 0.0042685 -0.999991 
-0.000527378 0.00302225 -0.999995 
-0.000544156 0.0020677 -0.999998 
-0.00055016 0.00131638 -0.999999 
-0.000486088 0.000745365 -1 
-0.000384436 0.000277371 -1 
-0.000303554 -4.175e-05 -1 
-0.000251605 -0.000246452 -1 
-0.00022135 -0.000338535 -1 
-0.000195693 -0.000364417 -1 
-0.000163787 -0.00035663 -1 
-0.000122912 -0.000314749 -1 
-7.2538e-05 -0.00025737 -1 
-2.51011e-05 -0.000183255 -1 
1.14736e-05 -0.000117346 -1 
3.42862e-05 -5.1902e-05 -1 
4.2665e-05 3.27728e-06 -1 
4.10412e-05 4.47548e-05 -1 
3.24949e-05 7.85071e-05 -1 
2.43745e-05 9.60722e-05 -1 
1.62167e-05 0.000104682 -1 
1.18383e-05 9.91022e-05 -1 
4.67422e-06 8.88007e-05 -1 
-5.55956e-06 7.13666e-05 -1 
-1.01834e-05 4.2937e-05 -1 
-2.06408e-05 3.3563e-07 -1 
3.87466e-05 2.75309e-06 1 
2.8504e-05 5.09996e-05 1 
1.14694e-05 7.35252e-05 1 
1.08164e-06 9.45213e-05 1 
-8.57613e-06 0.000105105 1 
-1.51439e-05 0.000107759 1 
-2.23429e-05 9.94159e-05 1 
-3.00821e-05 8.02583e-05 1 
-3.65959e-05 4.88046e-05 1 
-3.81627e-05 2.27557e-06 1 
-3.073e-05 -5.58238e-05 1 
-1.19084e-05 -0.00012536 1 
1.61037e-05 -0.000195968 1 
5.22399e-05 -0.00026788 1 
9.564e-05 -0.000338807 1 
0.000142351 -0.000390336 1 
0.000185306 -0.000423652 1 
0.000230177 -0.000420719 1 
0.000278519 -0.000369513 1 
0.000329534 -0.000243048 1 
0.000403206 1.06142e-05 1 
0.000514808 0.000475808 1 
0.000631689 0.00119423 0.999999 
0.000689183 0.00216991 0.999997 
0.000661511 0.00331323 0.999994 
0.000618062 0.00480038 0.999988 
0.000819 0.0064114 0.999979 
0.00125026 0.00837601 0.999964 
0.00205287 0.0105327 0.999942 
0.00354243 0.013271 0.999906 
0.00618909 0.0170501 0.999835 
0.0103551 0.0199006 0.999748 
0.0161776 0.0186488 0.999695 
0.0252137 0.015661 0.999559 
0.0391445 0.014764 0.999124 
0.0688004 0.00396106 0.997623 
0.192555 0.0699033 0.978793 
0.338886 0.296581 0.892858 
0.305079 0.654474 0.691802 
0.0835876 0.974786 0.206897 
-0.211667 0.664173 -0.716987 
-0.278197 0.239968 -0.930066 
-0.173338 0.0597597 -0.983048 
-0.100597 0.012854 -0.994844 
-0.0526918 0.00880923 -0.998572 
-0.0327698 0.0176009 -0.999308 
-0.0194566 0.0165931 -0.999673 
-0.013176 0.0178037 -0.999755 
-0.00833321 0.0150652 -0.999852 
-0.00519602 0.0113133 -0.999923 
-0.00319538 0.00915716 -0.999953 
-0.0018208 0.00678314 -0.999975 
-0.00121549 0.00501311 -0.999987 
-0.000965568 0.00366527 -0.999993 
-0.000815846 0.00259954 -0.999996 
-0.000749132 0.00177265 -0.999998 
-0.00066496 0.00112226 -0.999999 
-0.000518755 0.000590199 -1 
-0.000380924 0.00018585 -1 
-0.000283874 -0.000118223 -1 
-0.000242949 -0.000289599 -1 
-0.000216677 -0.000388152 -1 
-0.000195684 -0.000419554 -1 
-0.000163391 -0.000416575 -1 
-0.000121072 -0.000374698 -1 
-7.36545e-05 -0.00031234 -1 
-2.48589e-05 -0.000226564 -1 
1.20905e-05 -0.000147508 -1 
3.39949e-05 -6.81158e-05 -1 
4.12768e-05 5.38387e-07 -1 
3.71288e-05 5.44559e-05 -1 
2.72692e-05 9.0449e-05 -1 
1.95562e-05 0.00010651 -1 
1.11768e-05 0.000116024 -1 
5.50063e-06 0.000110407 -1 
-3.02951e-06 0.000100215 -1 
-1.54613e-05 8.50168e-05 -1 
-2.77428e-05 5.82897e-05 -1 
-3.65813e-05 5.10229e-06 -1 
5.08248e-05 8.29432e-06 1 
4.14197e-05 7.33453e-05 1 
2.05301e-05 9.04994e-05 1 
6.72383e-06 0.000109157 1 
-3.63773e-06 0.000118329 1 
-1.10802e-05 0.00012028 1 
-1.88846e-05 0.000111733 1 
-2.682e-05 9.054e-05 1 
-3.38766e-05 5.38316e-05 1 
-3.58007e-05 2.61161e-07 1 
-2.91067e-05 -6.86466e-05 1 
-1.15299e-05 -0.000148007 1 
1.4494e-05 -0.000231069 1 
4.99629e-05 -0.000316389 1 
9.1083e-05 -0.000396544 1 
0.000131779 -0.000452491 1 
0.00016964 -0.000484366 1 
0.000211837 -0.000480544 1 
0.000256282 -0.000422772 1 
0.000302837 -0.000300307 1 
0.000383429 -6.47784e-05 1 
0.000509367 0.000346895 1 
0.000669645 0.0010013 0.999999 
0.000803219 0.00184656 0.999998 
0.000882548 0.00290459 0.999995 
0.000894857 0.0041251 0.999991 
0.00105975 0.00529571 0.999985 
0.00141196 0.0067861 0.999976 
0.00209525 0.00833588 0.999963 
0.00329127 0.0101685 0.999943 
0.00542894 0.0124519 0.999908 
0.00909979 0.0141133 0.999859 
0.0142026 0.011229 0.999836 
0.0202583 0.00460624 0.999784 
0.0372762 -0.000332635 0.999305 
0.105543 -0.0151201 0.9943 
0.180963 -0.0181548 0.983322 
-0.154403 -0.031872 -0.987494 
-0.0679593 -0.0207725 -0.997472 
-0.033008 -0.0051588 -0.999442 