# vtk DataFile Version 3.0 
Exported using Morpho https://github.com/Morpho-lang/morpho 
ASCII 
DATASET UNSTRUCTURED_GRID 

POINTS 1978 float 
-12 -4 -8.41639e-12 
-11.6151 -4 -1.1354e-11 
-11.3216 -4 -5.00303e-12 
-10.9815 -4 -6.0471e-13 
-10.6553 -4 3.31751e-12 
-10.3066 -4 1.66501e-12 
-9.99664 -4 1.22153e-12 
-9.64959 -4 2.5192e-12 
-9.31073 -4 -2.07217e-13 
-9.00043 -4 2.96264e-13 
-8.69338 -4 7.05836e-13 
-8.3823 -4 -4.94532e-12 
-8.08336 -4 -4.67431e-12 
-7.76997 -4 -4.9627e-12 
-7.48292 -4 8.57847e-13 
-7.19521 -4 7.12195e-12 
-6.91018 -4 6.56477e-12 
-6.60089 -4 4.16854e-12 
-6.29684 -4 4.12072e-12 
-5.98778 -4 1.11553e-11 
-5.68937 -4 2.86893e-11 
-5.3965 -4 4.48377e-11 
-5.11419 -4 5.53078e-11 
-4.8155 -4 3.33121e-11 
-4.52117 -4 5.73842e-11 
-4.21708 -4 1.59034e-10 
-3.91527 -4 3.46565e-10 
-3.60017 -4 3.05957e-10 
-3.2736 -4 1.6616e-10 
-2.97113 -4 1.14406e-09 
-2.64759 -4 1.2405e-09 
-2.37216 -4 -6.26112e-10 
-2.08552 -4 9.75861e-10 
-1.81245 -4 9.04861e-09 
-1.61816 -4 -9.15135e-09 
-1.43834 -4.00001 1.66167e-08 
-1.27894 -4 -2.4945e-08 
-1.10561 -4 4.95612e-07 
-0.901659 -4.00001 -2.24993e-06 
-0.312679 -4.00011 2.35567e-05 
0.426891 -4.00014 4.352e-06 
0.837923 -4 5.2467e-07 
1.13445 -4 1.46157e-09 
1.40602 -4 4.25404e-08 
1.57926 -4 3.34574e-08 
1.81706 -4 -2.32775e-09 
2.0962 -4 -2.24667e-09 
2.41267 -4 -4.7808e-10 
2.69495 -4 -6.25932e-10 
2.98854 -4 -5.88221e-10 
3.28134 -4 -1.19708e-10 
3.57593 -4 -3.83757e-10 
3.87739 -4 -2.9444e-10 
4.18316 -4 -4.88263e-11 
4.49118 -4 -1.63391e-11 
4.79343 -4 -3.29006e-11 
5.09158 -4 -6.56704e-11 
5.39175 -4 -5.2657e-11 
5.69446 -4 -2.73299e-11 
5.98853 -4 -9.637e-12 
6.29571 -4 -7.99646e-12 
6.57306 -4 -4.44379e-12 
6.89115 -4 -7.6758e-12 
7.18337 -4 -9.83382e-12 
7.48573 -4 -1.09438e-12 
7.78599 -4 7.16711e-12 
8.08038 -4 7.87199e-12 
8.36149 -4 4.11277e-12 
8.66237 -4 1.62361e-13 
8.94622 -4 8.42993e-13 
9.28986 -4 -1.10741e-12 
9.62007 -4 -2.32626e-12 
9.91619 -4 -5.74932e-13 
10.2843 -4 -2.65995e-12 
10.608 -4 -3.76964e-13 
10.9827 -4 -2.22011e-12 
11.3052 -4 4.27909e-12 
11.5922 -4 1.0443e-11 
12 -4 1.14628e-11 
-12 -3.61764 1.00468e-11 
-11.7097 -3.71021 4.18595e-16 
-11.3637 -3.62302 -7.49313e-17 
-11.057 -3.67422 4.52015e-17 
-10.7187 -3.66229 7.75896e-17 
-10.3825 -3.68574 2.19904e-16 
-10.0401 -3.65124 3.41827e-17 
-9.71964 -3.6894 -4.01559e-17 
-9.37532 -3.68308 -1.25147e-16 
-9.0483 -3.66029 -1.9155e-16 
-8.73732 -3.66152 -2.7027e-16 
-8.42347 -3.66913 -3.77932e-16 
-8.10846 -3.65794 -5.11225e-16 
-7.80184 -3.67484 -8.24535e-16 
-7.48542 -3.64709 -5.0824e-16 
-7.1919 -3.64643 -3.50869e-17 
-6.87751 -3.67387 -3.66372e-16 
-6.56709 -3.66724 1.88937e-16 
-6.25417 -3.67425 1.13804e-15 
-5.94888 -3.6672 2.20687e-15 
-5.64723 -3.66458 2.5128e-15 
-5.35486 -3.65509 7.58194e-15 
-5.0505 -3.67536 1.33617e-14 
-4.74562 -3.66971 3.3231e-14 
-4.43485 -3.67593 6.85463e-14 
-4.11867 -3.67102 1.91849e-13 
-3.79409 -3.68472 5.82242e-13 
-3.45383 -3.6954 1.40394e-12 
-3.12197 -3.67263 3.93029e-12 
-2.78324 -3.69068 1.36474e-11 
-2.44928 -3.62968 3.02832e-11 
-2.15453 -3.65704 8.56085e-11 
-1.84046 -3.67314 2.98138e-10 
-1.59748 -3.60387 4.98218e-10 
-1.40964 -3.70853 1.13072e-09 
-1.34932 -3.35351 8.20475e-10 
-1.20732 -3.52274 1.34666e-09 
-1.17518 -3.78271 3.51731e-09 
-0.882808 -3.85577 2.88935e-08 
-0.225137 -3.89363 -2.07212e-06 
0.374131 -3.90005 5.61516e-07 
0.987248 -3.83263 -5.83369e-09 
1.25851 -3.8004 -3.93892e-09 
1.42027 -3.61464 -2.2113e-09 
1.6344 -3.65915 -1.36438e-09 
1.88774 -3.66411 -3.52721e-10 
2.19547 -3.69581 -6.63893e-11 
2.49117 -3.66471 -1.8605e-11 
2.77436 -3.68612 -9.02576e-12 
3.05739 -3.66875 -2.9113e-12 
3.35772 -3.6647 -1.11571e-12 
3.6565 -3.66623 -4.65431e-13 
3.96355 -3.66934 -1.94455e-13 
4.27205 -3.67135 -6.9077e-14 
4.57439 -3.66794 -2.68396e-14 
4.87096 -3.66325 -1.30246e-14 
5.16708 -3.66747 -7.05361e-15 
5.4665 -3.67273 -4.89735e-15 
5.75909 -3.6623 -1.14231e-15 
6.05822 -3.6717 -1.05545e-15 
6.34344 -3.641 -5.61538e-16 
6.64714 -3.68113 3.66226e-16 
6.94316 -3.65433 2.68516e-16 
7.24624 -3.66728 1.80547e-16 
7.55152 -3.66526 5.44654e-16 
7.84906 -3.65807 5.27194e-16 
8.14009 -3.63715 3.61427e-16 
8.4383 -3.66449 5.94388e-16 
8.73193 -3.64084 3.14304e-17 
9.05532 -3.70055 1.94537e-16 
9.3893 -3.68373 1.81384e-16 
9.69798 -3.64338 -4.82048e-17 
10.0398 -3.71109 -1.36071e-16 
10.3766 -3.66629 -4.11442e-17 
10.7352 -3.70892 -2.20839e-16 
11.0724 -3.65786 -6.7249e-17 
11.3715 -3.6134 6.39763e-17 
11.7186 -3.7259 -3.70722e-16 
12 -3.60629 -1.1474e-11 
-12 -3.3228 1.14997e-11 
-11.6235 -3.36139 1.13627e-16 
-11.2753 -3.28042 -8.54585e-18 
-10.9608 -3.33984 -1.2955e-18 
-10.6497 -3.29794 -2.71916e-18 
-10.3565 -3.36003 3.45904e-19 
-10.0458 -3.29986 -2.01942e-17 
-9.73623 -3.34878 8.5483e-18 
-9.42143 -3.36578 2.42156e-17 
-9.09769 -3.33025 -3.29592e-18 
-8.78728 -3.31903 -4.64264e-18 
-8.48195 -3.33482 7.33723e-18 
-8.17325 -3.3298 1.96559e-18 
-7.85817 -3.33503 -1.38151e-17 
-7.55558 -3.3291 -4.62069e-17 
-7.2419 -3.30044 -1.07584e-16 
-6.93784 -3.34468 -2.15617e-17 
-6.62698 -3.33937 1.41224e-16 
-6.31435 -3.3464 1.59454e-17 
-6.00785 -3.33753 2.01555e-17 
-5.70544 -3.33539 1.89711e-16 
-5.40483 -3.31887 -1.27375e-15 
-5.10471 -3.34706 3.11428e-15 
-4.80219 -3.34512 2.18946e-14 
-4.4945 -3.35102 6.04645e-14 
-4.1831 -3.3516 1.56477e-13 
-3.85799 -3.36454 4.27289e-13 
-3.5312 -3.38903 1.21228e-12 
-3.19707 -3.36274 3.36923e-12 
-2.85542 -3.37733 1.2248e-11 
-2.52602 -3.32127 2.86908e-11 
-2.18958 -3.26995 3.72802e-11 
-1.92457 -3.35812 7.93996e-11 
-1.64026 -3.29565 2.45501e-10 
-1.34736 -3.12347 -1.61976e-10 
-1.08728 -3.05856 1.48166e-10 
-1.0323 -3.28437 7.73633e-10 
-0.995441 -3.523 -2.22998e-09 
-0.956866 -3.70205 7.4794e-09 
-0.618762 -3.9191 -1.05879e-08 
0.531171 -3.78367 -6.11132e-08 
0.672019 -3.86609 -4.59056e-08 
0.965599 -3.45839 -2.9897e-09 
1.26347 -3.42875 -2.40764e-09 
1.31143 -3.15322 1.57891e-10 
1.54296 -3.30591 -3.51393e-10 
1.78992 -3.31149 -8.5256e-11 
2.09721 -3.39768 -1.2691e-10 
2.43631 -3.35942 -2.53834e-11 
2.77228 -3.35114 -6.46776e-12 
3.10889 -3.35783 -2.20521e-12 
3.43792 -3.33737 -8.09985e-13 
3.77157 -3.35007 -2.99118e-13 
4.10759 -3.3531 -9.85056e-14 
4.43715 -3.34513 -3.7926e-14 
4.75452 -3.33599 -1.45432e-14 
5.07034 -3.33671 -3.83151e-15 
5.382 -3.34775 -1.83947e-15 
5.69037 -3.33359 -8.63918e-16 
5.99848 -3.34246 9.27704e-17 
6.30142 -3.30186 5.53142e-16 
6.60725 -3.34596 -1.48053e-16 
6.91077 -3.31723 1.06142e-16 
7.21393 -3.33372 -6.66078e-18 
7.51906 -3.33439 -2.55377e-17 
7.82459 -3.313 -3.99259e-18 
8.1307 -3.30154 1.48809e-16 
8.4385 -3.31866 -7.44093e-17 
8.75339 -3.31771 -2.04354e-17 
9.07726 -3.38491 7.18482e-17 
9.39258 -3.34532 -2.26383e-17 
9.70693 -3.30202 4.52858e-18 
10.017 -3.39419 1.36144e-18 
10.31 -3.31288 1.5892e-17 
10.632 -3.39163 8.58887e-18 
10.9631 -3.34665 1.1218e-18 
11.2886 -3.25823 2.01689e-17 
11.6298 -3.37249 -1.3591e-16 
12 -3.30682 -1.27888e-11 
-12 -2.9883 7.58514e-12 
-11.6687 -3.05426 2.01816e-16 
-11.3304 -2.96726 3.55545e-17 
-10.9771 -2.98396 -4.19412e-17 
-10.6377 -2.97185 1.0129e-17 
-10.3016 -2.99692 7.08249e-18 
-9.9716 -2.96311 5.86174e-17 
-9.66416 -3.01253 -4.03305e-17 
-9.35585 -3.02517 -9.21519e-19 
-9.04688 -2.98439 1.18835e-18 
-8.73728 -2.98074 4.90465e-19 
-8.43168 -3.00003 -1.42796e-17 
-8.11702 -3.00401 -6.35502e-18 
-7.81196 -2.99685 1.27767e-18 
-7.50671 -2.99733 5.60877e-17 
-7.20188 -2.96677 1.39838e-17 
-6.90216 -3.01571 1.68481e-16 
-6.59161 -3.01427 -1.80667e-16 
-6.28801 -3.01471 3.66676e-17 
-5.98911 -3.00517 1.1706e-16 
-5.68815 -3.00642 1.57945e-15 
-5.39198 -2.98762 -1.78424e-15 
-5.09572 -3.01929 4.75151e-15 
-4.79751 -3.01617 -3.04853e-15 
-4.49603 -3.02365 1.64429e-14 
-4.19212 -3.02477 6.67107e-14 
-3.88301 -3.04821 1.97947e-13 
-3.55677 -3.06743 6.55467e-13 
-3.2364 -3.05189 1.69762e-12 
-2.89615 -3.06252 5.86061e-13 
-2.55169 -3.00868 2.46689e-12 
-2.18959 -2.96405 2.63301e-11 
-1.83728 -3.01243 -4.34797e-11 
-1.54283 -2.94364 -7.44111e-11 
-1.22436 -2.82726 -1.45353e-10 
-0.898173 -2.84651 -2.44823e-10 
-0.835989 -3.1037 -1.42888e-09 
-0.828779 -3.41456 1.29008e-09 
-0.513519 -3.78068 5.4852e-09 
-0.182195 -3.71934 7.52054e-07 
0.831053 -3.68686 -1.18524e-08 
1.10455 -3.62879 -3.49693e-09 
1.0497 -3.23603 -2.49636e-09 
0.967761 -3.01555 3.96345e-09 
1.21934 -2.88656 7.04012e-10 
1.53977 -2.95018 3.68483e-10 
1.85953 -3.01282 -2.58068e-12 
2.17418 -3.096 2.82833e-11 
2.52092 -3.05194 -4.76864e-12 
2.8608 -3.04852 -1.66788e-12 
3.18132 -3.03482 -4.62914e-13 
3.52087 -3.02596 -2.39064e-13 
3.84612 -3.03786 -9.16141e-14 
4.17146 -3.03708 -3.1519e-14 
4.48213 -3.01791 -1.13621e-14 
4.79497 -3.01449 -2.3672e-15 
5.10402 -3.0143 -4.66993e-16 
5.40491 -3.02092 2.29427e-15 
5.70282 -3.001 -8.35522e-16 
6.00028 -3.01527 -3.20962e-16 
6.30358 -2.97288 -4.59729e-16 
6.60399 -3.01354 9.53587e-17 
6.90782 -2.98579 -7.91476e-17 
7.21304 -2.99912 4.88747e-17 
7.51482 -3.00298 5.60521e-18 
7.82163 -2.98058 -2.9045e-17 
8.12607 -2.96755 5.63535e-18 
8.43586 -2.98519 -6.6687e-17 
8.74309 -2.981 1.61839e-16 
9.04915 -3.05635 -7.19383e-18 
9.35867 -3.01332 -3.12151e-19 
9.65941 -2.95976 -3.08828e-18 
9.98531 -3.03703 -2.42422e-18 
10.3225 -2.98729 -1.87396e-18 
10.6543 -3.05727 -3.05182e-18 
10.9821 -3.00455 -7.41211e-15 
11.3349 -2.93727 -3.67672e-17 
11.6633 -3.05998 -1.91591e-16 
12 -2.97762 -5.35516e-12 
-12 -2.67287 1.97439e-12 
-11.6497 -2.71882 1.66063e-16 
-11.3264 -2.62887 -2.85101e-17 
-11.0025 -2.66718 1.43594e-17 
-10.6584 -2.64863 -6.23099e-19 
-10.3188 -2.67022 -1.3271e-17 
-9.98433 -2.64418 -3.38418e-17 
-9.64589 -2.66802 5.34741e-17 
-9.3349 -2.68101 1.79855e-15 
-9.01467 -2.65014 3.74385e-18 
-8.70136 -2.64748 -1.54439e-17 
-8.3867 -2.67688 9.6879e-18 
-8.07489 -2.67262 -3.47364e-18 
-7.76682 -2.66457 3.35503e-18 
-7.46516 -2.66075 -1.47522e-18 
-7.15138 -2.64316 -2.35498e-17 
-6.84852 -2.69026 -2.07992e-17 
-6.54407 -2.6846 4.88007e-17 
-6.2461 -2.67936 5.2434e-17 
-5.94221 -2.6804 6.31679e-17 
[...]
POINT_DATA 1978 
VECTORS vectors float
-5.609e-07 0.000191395 1 
-3.79731e-07 0.000123548 1 
-4.55427e-07 9.69867e-05 1 
-3.76931e-07 8.18407e-05 1 
-1.42273e-06 7.83935e-05 1 
-1.87585e-06 8.32778e-05 1 
-2.12118e-06 9.03077e-05 1 
-2.39258e-06 9.91992e-05 1 
-1.71223e-06 0.000104656 1 
-6.67215e-07 0.000102268 1 
7.64527e-07 9.00685e-05 1 
2.94373e-06 6.40062e-05 1 
5.94652e-06 2.10538e-05 1 
8.02921e-06 -4.14492e-05 1 
8.79301e-06 -0.000102735 1 
9.75294e-06 -0.000157906 1 
1.17362e-05 -0.000204949 1 
1.26749e-05 -0.000247369 1 
9.99027e-06 -0.000269692 1 
4.85076e-07 -0.000229781 1 
-1.70524e-05 -4.73972e-05 1 
-4.13312e-05 0.000365258 1 
-7.86371e-05 0.00105952 1 
-0.000121674 0.0021123 0.999998 
-0.000180793 0.00342307 0.999994 
-0.000253382 0.00526829 0.999986 
-0.000355474 0.00814128 0.999967 
-0.000525491 0.0124492 0.999923 
-0.000745148 0.0185116 0.999829 
-0.00114037 0.0274293 0.999623 
-0.00139397 0.041889 0.999121 
-0.00177037 0.0577004 0.998331 
-0.00231198 0.0806857 0.996734 
-0.00121977 0.114104 0.993466 
-1.92236e-05 0.137619 0.990486 
-0.000499339 0.164825 0.986323 
-0.00047585 0.193227 0.981153 
0.00013618 0.22727 0.973835 
-0.00740761 0.272127 0.962218 
-0.00442577 0.651598 0.758607 
-0.00328497 0.584356 -0.811501 
0.00360969 0.360906 -0.932597 
0.0047348 0.264805 -0.96428 
0.00215905 0.19434 -0.980929 
0.000906356 0.150531 -0.988605 
0.00261661 0.10039 -0.994938 
0.00288471 0.0672221 -0.99773 
0.00169318 0.0451028 -0.99898 
0.000862247 0.0325357 -0.99947 
0.000698443 0.0232309 -0.99973 
0.000550439 0.0164387 -0.999865 
0.000414262 0.0115696 -0.999933 
0.000329989 0.00790289 -0.999969 
0.00024378 0.00524678 -0.999986 
0.000168722 0.00335692 -0.999995 
0.000115456 0.00207372 -0.999998 
7.80987e-05 0.00113548 -1 
4.7525e-05 0.000427066 -1 
2.02986e-05 -3.09733e-05 -1 
9.33902e-07 -0.000247071 -1 
-7.52318e-06 -0.000299776 -1 
-1.20331e-05 -0.000286521 -1 
-1.30196e-05 -0.000237428 -1 
-1.18623e-05 -0.000182652 -1 
-1.13634e-05 -0.000113753 -1 
-9.35776e-06 -3.90773e-05 -1 
-6.22617e-06 2.64662e-05 -1 
-3.41413e-06 7.22645e-05 -1 
-1.23517e-06 9.99192e-05 -1 
9.01369e-07 0.00011227 -1 
2.17157e-06 0.000112525 -1 
2.11405e-06 0.000107309 -1 
2.35029e-06 9.9341e-05 -1 
1.96371e-06 8.74373e-05 -1 
1.13656e-06 8.13223e-05 -1 
2.23893e-07 8.33201e-05 -1 
1.81249e-07 9.52496e-05 -1 
2.10945e-07 0.000118142 -1 
3.39847e-07 0.000184008 -1 
-8.7557e-05 0.00013896 1 
-4.04741e-05 0.000118693 1 
-2.8552e-05 8.90154e-05 1 
-1.87465e-05 8.12861e-05 1 
-1.63734e-05 7.79828e-05 1 
-1.60034e-05 8.089e-05 1 
-1.82825e-05 8.46014e-05 1 
-1.72591e-05 8.97853e-05 1 
-1.59627e-05 9.10212e-05 1 
-1.30652e-05 8.46073e-05 1 
-5.90771e-06 6.98076e-05 1 
6.58563e-06 4.31848e-05 1 
2.46931e-05 2.80728e-07 1 
4.41077e-05 -5.15529e-05 1 
6.80049e-05 -0.000111904 1 
8.47197e-05 -0.000162435 1 
9.13603e-05 -0.000205463 1 
9.76402e-05 -0.000228781 1 
9.02657e-05 -0.000211467 1 
6.55735e-05 -9.86594e-05 1 
3.81163e-06 0.000188012 1 
-0.000115961 0.000721056 1 
-0.000334712 0.00154257 0.999999 
-0.000641624 0.00269602 0.999997 
-0.00093947 0.00428654 0.999991 
-0.00124283 0.00666964 0.999978 
-0.00164035 0.0101836 0.999947 
-0.00210839 0.0153984 0.99988 
-0.00245496 0.023092 0.999731 
-0.00273074 0.0350728 0.999382 
-0.0024871 0.0507969 0.998707 
-0.00124311 0.0705113 0.997511 
0.000126011 0.0999554 0.994992 
0.00485372 0.131992 0.991239 
0.00370859 0.164218 0.986417 
0.0221311 0.155738 0.987551 
0.021724 0.19616 0.980331 
0.0091373 0.208109 0.978063 
-0.00649385 0.306327 0.951903 
0.0384095 0.734258 0.677767 
-0.0119019 0.668109 -0.743987 
-0.00236165 0.309524 -0.950888 
0.00521287 0.231232 -0.972885 
0.00246056 0.178586 -0.983921 
0.00448595 0.130933 -0.991382 
0.00353096 0.089487 -0.995982 
0.00285989 0.0602094 -0.998182 
0.00207781 0.0423577 -0.999101 
0.0017686 0.0306089 -0.99953 
0.00148368 0.0219352 -0.999759 
0.00130634 0.0153009 -0.999883 
0.00124896 0.0106592 -0.999943 
0.00106898 0.00734883 -0.999973 
0.000786148 0.00492606 -0.999988 
0.000577424 0.00321129 -0.999995 
0.000405288 0.00200972 -0.999999 
0.000224409 0.00113649 -1 
7.46793e-05 0.000492974 -1 
-1.98211e-05 8.07382e-05 -1 
-6.58971e-05 -0.000155176 -1 
-9.39194e-05 -0.000233415 -1 
-9.11464e-05 -0.000250052 -1 
-9.3786e-05 -0.000222348 -1 
-8.38956e-05 -0.000171922 -1 
-7.08305e-05 -0.000111595 -1 
-5.23417e-05 -4.97534e-05 -1 
-3.0702e-05 4.09279e-06 -1 
-8.98534e-06 5.04603e-05 -1 
6.02329e-06 7.50618e-05 -1 
1.31689e-05 9.6131e-05 -1 
1.77231e-05 9.87656e-05 -1 
1.99598e-05 9.49827e-05 -1 
1.58921e-05 9.14352e-05 -1 
1.50952e-05 8.46418e-05 -1 
1.2946e-05 8.11361e-05 -1 
1.68385e-05 8.29262e-05 -1 
2.52812e-05 8.9323e-05 -1 
3.49215e-05 0.000118323 -1 
8.03133e-05 0.000133035 -1 
-0.000106018 8.20513e-05 1 
-5.61013e-05 8.04349e-05 1 
-3.76671e-05 7.40105e-05 1 
-2.9719e-05 7.66566e-05 1 
-2.89251e-05 7.87889e-05 1 
-2.80852e-05 8.06175e-05 1 
-3.20401e-05 8.13798e-05 1 
-3.18788e-05 8.07115e-05 1 
-3.01562e-05 7.78846e-05 1 
-2.6621e-05 6.56902e-05 1 
-1.62384e-05 4.61325e-05 1 
2.50313e-06 1.93319e-05 1 
2.93566e-05 -2.10366e-05 1 
6.32247e-05 -7.09481e-05 1 
9.80428e-05 -0.000123534 1 
0.00013546 -0.000176047 1 
0.00015996 -0.000211138 1 
0.000179809 -0.000224216 1 
0.00017873 -0.000188495 1 
0.000156695 -5.17219e-05 1 
9.52732e-05 0.000263944 1 
-4.18848e-05 0.000843595 1 
-0.000342375 0.00168382 0.999999 
-0.000801029 0.00282349 0.999996 
-0.00131005 0.00439183 0.99999 
-0.00174023 0.00667015 0.999977 
-0.00225687 0.00994672 0.999949 
-0.00287772 0.0143877 0.999893 
-0.00320426 0.0211475 0.999772 
-0.00316519 0.0314048 0.999502 
-0.0024928 0.0445353 0.999005 
0.0010019 0.0623569 0.998054 
0.00442837 0.0850157 0.99637 
0.0129921 0.112051 0.993618 
0.0359341 0.13326 0.99043 
0.0673499 0.165844 0.98385 
0.0537403 0.201703 0.977972 
0.0355708 0.25135 0.967243 
0.0203394 0.293256 0.955818 
0.0255738 0.457151 0.889025 
-0.0461546 0.570753 -0.819825 
-0.0113422 0.463896 -0.885817 
-0.0386122 0.279134 -0.959476 
-0.00995256 0.204065 -0.978907 
-0.0290845 0.159306 -0.986801 
-0.00911259 0.136359 -0.990618 
-0.00356616 0.0980244 -0.995178 
0.000869212 0.0674859 -0.99772 
0.00110792 0.0437442 -0.999043 
0.0014463 0.029319 -0.99957 
0.00140967 0.0201437 -0.999797 
0.00143824 0.0138244 -0.999904 
0.00149598 0.00939419 -0.999955 
0.00122392 0.00632589 -0.99998 
0.000916507 0.00416899 -0.999992 
0.000641882 0.00265388 -0.999997 
0.000332026 0.00159772 -0.999999 
7.71595e-05 0.000845716 -1 
-7.43128e-05 0.00032608 -1 
-0.000137119 -8.90746e-06 -1 
-0.000170864 -0.000169069 -1 
-0.000168931 -0.000236019 -1 
-0.000165361 -0.000231518 -1 
-0.000143966 -0.000197393 -1 
-0.000117658 -0.000146473 -1 
-8.44162e-05 -9.10821e-05 -1 
-4.65204e-05 -3.78608e-05 -1 
-1.09311e-05 1.12364e-05 -1 
1.47161e-05 4.71813e-05 -1 
2.63522e-05 7.42602e-05 -1 
3.3518e-05 8.24917e-05 -1 
3.50077e-05 8.55327e-05 -1 
2.88345e-05 8.77708e-05 -1 
2.81026e-05 8.59556e-05 -1 
2.3518e-05 8.30642e-05 -1 
2.51241e-05 7.97223e-05 -1 
3.2687e-05 7.57986e-05 -1 
4.91998e-05 8.23173e-05 -1 
9.48631e-05 7.89362e-05 -1 
-9.10777e-05 2.94484e-05 1 
-5.96964e-05 5.45438e-05 1 
-3.9284e-05 6.21669e-05 1 
-3.23571e-05 7.31632e-05 1 
-3.16627e-05 8.00582e-05 1 
-3.33483e-05 8.09328e-05 1 
-3.6784e-05 7.71703e-05 1 
-3.9245e-05 7.17481e-05 1 
-3.87125e-05 6.06625e-05 1 
-3.35089e-05 4.05853e-05 1 
-2.02181e-05 1.39875e-05 1 
2.47394e-06 -1.91317e-05 1 
3.61145e-05 -6.36394e-05 1 
7.60946e-05 -0.000114038 1 
0.000118671 -0.000163992 1 
0.00016245 -0.000212382 1 
0.000197327 -0.000235918 1 
0.000226496 -0.000235666 1 
0.000235605 -0.000173629 1 
0.000228638 9.55063e-07 1 
0.000193196 0.000374528 1 
9.38524e-05 0.00101423 1 
-0.0001968 0.0019217 0.999999 
-0.000658538 0.00313945 0.999995 
-0.00116744 0.00470833 0.999989 
-0.0015506 0.00689952 0.999976 
-0.00195832 0.00985507 0.99995 
-0.00247241 0.0137998 0.999902 
-0.00244252 0.019391 0.99981 
-0.00187082 0.0280026 0.999607 
-2.97128e-05 0.0389417 0.999242 
0.0054278 0.0542485 0.998513 
0.0144179 0.0772632 0.996907 
0.0289796 0.0965797 0.994904 
0.0546902 0.11454 0.991913 
0.0944739 0.145433 0.984848 
0.107846 0.21869 0.969817 
0.0766528 0.277469 0.957672 
0.0706463 0.527783 0.846436 
0.0953169 0.771803 0.628671 
-0.0243841 0.372473 -0.927723 
-0.010308 0.257941 -0.966105 
-0.047376 0.215794 -0.975289 
-0.0813572 0.185544 -0.979262 
-0.0511078 0.131726 -0.989968 
-0.0246131 0.103757 -0.994299 
-0.0112538 0.0755989 -0.997076 
-0.00390108 0.0556298 -0.998444 
-0.00170867 0.0362611 -0.999342 
-0.000276996 0.0248193 -0.999693 
0.000224307 0.0175949 -0.999846 
0.000778283 0.0121391 -0.999927 
0.00110606 0.0084278 -0.999965 
0.000950746 0.00588499 -0.999983 
0.000702862 0.00403643 -0.999992 
0.000443522 0.00263168 -0.999997 
0.000149501 0.00164753 -0.999999 
-7.00569e-05 0.000938888 -1 
-0.000185738 0.000420034 -1 
-0.000207414 5.86501e-05 -1 
-0.00021676 -0.000146423 -1 
-0.000208932 -0.00023517 -1 
-0.000196787 -0.000253237 -1 
-0.000169242 -0.000226337 -1 
-0.000134981 -0.00018192 -1 
-9.32585e-05 -0.000131966 -1 
-4.79583e-05 -7.97591e-05 -1 
-7.28266e-06 -2.57511e-05 -1 
2.06546e-05 1.32975e-05 -1 
3.46091e-05 4.93435e-05 -1 
4.12262e-05 6.55305e-05 -1 
4.06599e-05 7.60156e-05 -1 
3.51669e-05 8.45249e-05 -1 
3.04198e-05 8.70737e-05 -1 
2.70674e-05 8.43387e-05 -1 
2.69362e-05 7.80219e-05 -1 
3.18881e-05 6.54652e-05 -1 
5.04036e-05 5.77302e-05 -1 
7.80661e-05 3.10237e-05 -1 
-5.75694e-05 3.15127e-07 1 
-4.26358e-05 3.56991e-05 1 
-2.98477e-05 5.61818e-05 1 
-2.83024e-05 7.19131e-05 1 
-2.86785e-05 8.17362e-05 1 
-3.18095e-05 8.25036e-05 1 
-3.59991e-05 7.72901e-05 1 
-4.02341e-05 6.42165e-05 1 
-4.13418e-05 4.70899e-05 1 
-3.63039e-05 1.89593e-05 1 
-2.26944e-05 -1.61654e-05 1 
1.67843e-06 -5.61321e-05 1 
3.64949e-05 -0.000105534 1 
7.90631e-05 -0.000157961 1 
0.000124286 -0.000207965 1 
0.00017136 -0.000253803 1 
0.00021284 -0.00027061 1 
0.000247194 -0.000258618 1 
0.000270981 -0.000179271 1 
0.000289244 3.17249e-05 1 
0.000296189 0.000443416 1 
0.000244595 0.00116108 1 
2.00161e-05 0.00214729 0.999998 
-0.000365637 0.00343706 0.999995 
-0.000741521 0.0050368 0.999988 
-0.000951677 0.00723406 0.999974 
-0.0011455 0.0102059 0.999948 
-0.00116103 0.0137087 0.999906 
-0.000604503 0.0189047 0.999822 
0.000769071 0.0261807 0.999658 
0.00410056 0.0355076 0.999362 
0.0115825 0.0483722 0.998763 
0.0221269 0.0621862 0.99782 
0.0378902 0.0739574 0.996542 
0.0619585 0.0853538 0.994423 
0.110051 0.115936 0.987142 
0.159666 0.236265 0.958481 
0.125381 0.311892 0.941809 
0.0644784 0.370303 0.926671 
0.134442 0.563765 0.814916 
-0.111219 0.516453 -0.84906 
-0.0884473 0.299776 -0.949901 
-0.123094 0.198311 -0.972379 
-0.0815272 0.116282 -0.989865 
-0.0522653 0.0900463 -0.994566 
-0.0298743 0.0742315 -0.996794 
-0.0163338 0.0565248 -0.998268 
-0.00790426 0.0419814 -0.999088 
-0.00420747 0.0278209 -0.999605 
-0.00224171 0.0198971 -0.9998 
-0.000940916 0.0143958 -0.999897 
-3.21627e-05 0.0100656 -0.99995 
0.000420508 0.00721828 -0.999974 
0.000384963 0.00524246 -0.999987 
0.000253864 0.00363703 -0.999994 
6.96784e-05 0.00243053 -0.999998 
-0.00013174 0.00157378 -0.999999 
-0.000256589 0.000920783 -1 
-0.000289811 0.000404354 -1 
-0.000262324 4.75467e-05 -1 
-0.000237357 -0.000170958 -1 
-0.000218171 -0.000255073 -1 
-0.000198639 -0.000280072 -1 
-0.000170024 -0.000261224 -1 
-0.000132366 -0.00021932 -1 
-8.64434e-05 -0.000169831 -1 
-3.65176e-05 -0.000111005 -1 
2.07059e-06 -5.73039e-05 -1 
2.76911e-05 -1.19141e-05 -1 
3.97664e-05 2.87349e-05 -1 
4.38247e-05 5.2454e-05 -1 
4.06007e-05 7.2042e-05 -1 
3.46585e-05 8.43241e-05 -1 
2.80179e-05 9.01571e-05 -1 
2.48097e-05 8.73164e-05 -1 
2.2737e-05 7.77196e-05 -1 
2.23891e-05 6.04107e-05 -1 
3.52939e-05 3.92089e-05 -1 
4.07026e-05 4.65652e-06 -1 
-7.65586e-06 -6.7174e-06 1 
-2.06626e-05 2.28857e-05 1 
-1.49805e-05 4.99517e-05 1 
-1.77665e-05 7.23949e-05 1 
-2.12496e-05 8.45994e-05 1 
-2.56781e-05 8.83317e-05 1 
-3.03709e-05 8.35656e-05 1 
-3.64783e-05 6.92719e-05 1 
-4.07736e-05 4.74035e-05 1 
-3.9998e-05 1.75344e-05 1 
-3.08488e-05 -2.45288e-05 1 
-1.10287e-05 -7.17656e-05 1 
1.86462e-05 -0.000121992 1 
5.87346e-05 -0.000178009 1 
0.000104506 -0.000234682 1 
0.000150876 -0.00028273 1 
0.000198245 -0.000312579 1 
0.000238916 -0.000311171 1 
0.000278927 -0.000262727 1 
0.00031855 -0.000115742 1 
0.000360895 0.000186448 1 
0.000392677 0.000739067 1 
0.00035555 0.00162462 0.999999 
0.000159242 0.00275321 0.999997 
-0.000110339 0.00411702 0.999992 
-0.000295711 0.0058792 0.999983 
-0.000284177 0.00836359 0.999966 
-5.02991e-05 0.0112041 0.999938 
0.000534297 0.0150063 0.999888 
0.00208163 0.0202849 0.999793 
0.00495116 0.0271551 0.99962 
0.0112394 0.0360312 0.999288 
0.0231901 0.0438595 0.998769 
0.0372755 0.0497481 0.998067 
0.0597758 0.0559818 0.996642 
0.10489 0.0724469 0.991842 
0.18471 0.192293 0.963798 
0.177888 0.40916 0.894955 
0.115749 0.427405 0.89662 
-0.0710956 0.696137 -0.714374 
-0.0616949 0.423693 -0.903703 
-0.139666 0.306875 -0.941447 
-0.15801 0.166383 -0.973319 
-0.101142 0.0942321 -0.9904 
-0.0588554 0.0599883 -0.996463 
-0.0363791 0.0536752 -0.997896 
-0.022255 0.0440049 -0.998784 
-0.0125329 0.0355107 -0.999291 
-0.00722255 0.0253826 -0.999652 
-0.00420012 0.0175785 -0.999837 
-0.00230346 0.0134327 -0.999908 
-0.00100542 0.0095194 -0.999955 
-0.000300569 0.0068775 -0.999977 
-0.000167377 0.00497692 -0.999988 
-0.000160497 0.00353521 -0.999994 
-0.000250456 0.00239758 -0.999998 
-0.000363023 0.00155357 -0.999999 
-0.000394852 0.000916918 -1 
-0.000361009 0.000413153 -1 
-0.000297052 4.22636e-05 -1 
-0.000254206 -0.000177505 -1 
-0.000223947 -0.000286649 -1 
-0.000201159 -0.000317178 -1 
-0.000170462 -0.000307972 -1 
-0.000132517 -0.000268776 -1 
-8.56332e-05 -0.000220875 -1 
-3.72739e-05 -0.000156538 -1 
4.80709e-06 -9.29666e-05 -1 
3.01155e-05 -3.97429e-05 -1 
4.15414e-05 1.15472e-05 -1 
4.26965e-05 4.70983e-05 -1 
3.67177e-05 7.2533e-05 -1 
3.03936e-05 8.74651e-05 -1 
2.25207e-05 9.59999e-05 -1 
1.89395e-05 9.22178e-05 -1 
1.4471e-05 8.10925e-05 -1 
8.15707e-06 6.38625e-05 -1 
1.18477e-05 3.6474e-05 -1 
2.68667e-06 3.11699e-06 -1 
2.89011e-05 6.96141e-06 1 
8.08369e-06 3.52465e-05 1 
-2.08525e-06 6.45374e-05 1 
-8.73859e-06 8.44202e-05 1 
-1.61278e-05 9.47653e-05 1 
-2.1619e-05 9.64497e-05 1 
-2.81851e-05 8.72546e-05 1 
-3.50823e-05 6.81066e-05 1 
-4.00425e-05 3.88373e-05 1 
-3.90514e-05 -2.19196e-06 1 
-2.7915e-05 -5.61613e-05 1 
-6.78044e-06 -0.000112891 1 
2.48201e-05 -0.000172387 1 
6.60045e-05 -0.000237391 1 
0.000112542 -0.0002997 1 
0.000161531 -0.000344532 1 
0.000205746 -0.000368911 1 
0.000250801 -0.000355677 1 
0.000300928 -0.000285302 1 
0.00035222 -0.000118436 1 
0.000418412 0.000221629 1 
0.000492749 0.000831388 1 
0.000524851 0.00173319 0.999999 
0.000434821 0.00284623 0.999996 
0.000285695 0.00419159 0.999992 
0.000214166 0.00601651 0.999982 
0.000447893 0.0081309 0.999967 
0.00095301 0.0107593 0.999942 
0.00195014 0.013943 0.999902 
0.00393055 0.018238 0.999827 
0.00765486 0.0241388 0.99968 
0.014208 0.0292405 0.999472 
0.0210803 0.027766 0.999393 
0.0331041 0.0303533 0.998992 
0.0577678 0.0315637 0.997832 
0.102042 0.033421 0.994219 
0.190384 0.133578 0.97258 
0.247546 0.352838 0.902345 
0.203188 0.621132 0.756906 
0.0700748 0.922253 0.380198 
-0.150452 0.42388 -0.893134 
-0.212887 0.333916 -0.918247 
-0.17203 0.117772 -0.978027 
-0.101107 0.0548272 -0.993364 
-0.0598785 0.0339441 -0.997629 
-0.0364385 0.03414 -0.998753 
-0.0230015 0.0294072 -0.999304 
-0.014316 0.0269702 -0.999534 
-0.00831583 0.0200289 -0.999766 
-0.00500419 0.014453 -0.999884 
-0.00285556 0.0109169 -0.999937 
-0.0014426 0.00789 -0.999968 
-0.000824749 0.00591441 -0.999983 
-0.000618125 0.00427059 -0.999991 
-0.000527642 0.00302245 -0.999996 
-0.000545234 0.00206787 -0.999998 
-0.000551735 0.00131656 -1 
-0.000487268 0.000745145 -1 
-0.000384889 0.000276484 -1 
-0.000303739 -4.27537e-05 -1 
-0.000251775 -0.000247439 -1 
-0.000221527 -0.000339296 -1 
-0.000195921 -0.000364949 -1 
-0.000164029 -0.000357118 -1 
-0.000123087 -0.000315146 -1 
-7.25838e-05 -0.000257679 -1 
-2.50203e-05 -0.000183392 -1 
1.16132e-05 -0.000117443 -1 
3.4446e-05 -5.18973e-05 -1 
4.28104e-05 3.32586e-06 -1 
4.11436e-05 4.48337e-05 -1 
3.25368e-05 7.86315e-05 -1 
2.43832e-05 9.62162e-05 -1 
1.62189e-05 0.000104837 -1 
1.18457e-05 9.92396e-05 -1 
4.67749e-06 8.89122e-05 -1 
-5.56488e-06 7.14348e-05 -1 
-1.01984e-05 4.29592e-05 -1 
-2.99871e-05 1.81365e-05 -1 
5.62875e-05 3.19223e-05 1 
2.85235e-05 5.10332e-05 1 
1.14672e-05 7.35946e-05 1 
1.0827e-06 9.46362e-05 1 
-8.58675e-06 0.000105254 1 
-1.51528e-05 0.000107909 1 
-2.235e-05 9.95633e-05 1 
-3.01145e-05 8.03974e-05 1 
-3.66711e-05 4.89204e-05 1 
-3.82743e-05 2.33147e-06 1 
-3.08462e-05 -5.58371e-05 1 
-1.2004e-05 -0.000125455 1 
1.60431e-05 -0.00019613 1 
5.22259e-05 -0.000268142 1 
9.57152e-05 -0.000339177 1 
0.000142499 -0.000390821 1 
0.000185489 -0.000424235 1 
0.00023039 -0.00042145 1 
0.000278811 -0.000370539 1 
0.000329723 -0.000244501 1 
0.000403447 8.81953e-06 1 
0.000515583 0.000473818 1 
0.000633415 0.00119296 1 
0.000691375 0.00217029 0.999998 
0.000662819 0.00331465 0.999995 
0.000618045 0.0048022 0.999989 
0.000819096 0.00641518 0.99998 
0.00125089 0.00838212 0.999965 
0.00205332 0.0105374 0.999943 
0.00354235 0.0132762 0.999906 
0.00619006 0.0170581 0.999836 
0.0103568 0.0199122 0.999749 
0.0161839 0.0186557 0.999696 
0.0252428 0.0156898 0.999559 
0.0391676 0.0147299 0.999125 
0.0689153 0.00415348 0.997615 
0.192653 0.0700839 0.978761 
0.338913 0.29668 0.892815 
0.304976 0.653939 0.692355 
0.0836409 0.97509 0.205417 
-0.211096 0.664912 -0.716469 
-0.278182 0.240669 -0.92989 
-0.173565 0.0601657 -0.982983 
-0.100749 0.0128533 -0.99483 
-0.0527014 0.00879498 -0.998572 
-0.0327895 0.0176344 -0.999307 
-0.0194503 0.0165833 -0.999674 
-0.0131788 0.0178096 -0.999755 
-0.00832868 0.0150611 -0.999853 
-0.00519878 0.0113168 -0.999923 
-0.00319649 0.00915955 -0.999954 
-0.00181923 0.00678321 -0.999976 
-0.00121581 0.00501522 -0.999987 
-0.000966479 0.0036666 -0.999993 
-0.000816773 0.00259977 -0.999997 
-0.000750775 0.00177274 -0.999999 
-0.000666715 0.00112233 -1 
-0.000519737 0.000589865 -1 
-0.000381153 0.000185036 -1 
-0.000283797 -0.000119388 -1 
-0.000243016 -0.000290557 -1 
-0.000216913 -0.000388959 -1 
-0.000195956 -0.000420183 -1 
-0.000163644 -0.000417167 -1 
-0.00012125 -0.000375191 -1 
-7.37123e-05 -0.000312738 -1 
-2.47887e-05 -0.000226784 -1 
1.22265e-05 -0.00014762 -1 
3.41481e-05 -6.81355e-05 -1 
4.14104e-05 6.10954e-07 -1 
3.72042e-05 5.46177e-05 -1 
2.72874e-05 9.0625e-05 -1 
1.95594e-05 0.000106679 -1 
1.11745e-05 0.000116196 -1 
5.5052e-06 0.000110557 -1 
-3.0227e-06 0.000100333 -1 
-1.54613e-05 8.50869e-05 -1 
-2.7767e-05 5.83254e-05 -1 
-5.25753e-05 4.11721e-05 -1 
7.27581e-05 6.0847e-05 1 
4.14559e-05 7.33906e-05 1 
2.05405e-05 9.05802e-05 1 
6.7222e-06 0.000109289 1 
-3.63691e-06 0.000118488 1 
-1.10691e-05 0.000120454 1 
-1.88795e-05 0.000111916 1 
-2.68397e-05 9.07163e-05 1 
-3.39442e-05 5.3977e-05 1 
-3.5913e-05 3.46394e-07 1 
-2.92324e-05 -6.86548e-05 1 
-1.16371e-05 -0.000148113 1 
1.44108e-05 -0.000231257 1 
4.99534e-05 -0.00031673 1 
9.11499e-05 -0.000397007 1 
0.0001319 -0.000453081 1 
0.000169805 -0.000485081 1 
0.00021209 -0.000481436 1 
0.000256505 -0.000423754 1 
0.000303 -0.000301519 1 
0.000383539 -6.64528e-05 1 
0.00050984 0.000344928 1 
0.000671013 0.00100012 1 
0.000805298 0.00184601 0.999999 
0.00088481 0.00290719 0.999996 
0.000895993 0.00412778 0.999992 
0.00106031 0.00529799 0.999986 
0.0014125 0.00679059 0.999977 
0.002096 0.00833989 0.999964 
0.0032917 0.010172 0.999944 
0.00542581 0.012455 0.999909 
0.0090949 0.0141237 0.99986 
0.0142051 0.0112407 0.999837 
0.0202704 0.00463288 0.999785 
0.037302 -0.000347642 0.999305 
0.105375 -0.0151846 0.994317 
0.181036 -0.0182327 0.983308 
-0.154442 -0.0320051 -0.987484 
-0.0679011 -0.0207424 -0.997477 
-0.0329734 -0.00516587 -0.999444 
-0.0225907 0.00512915 -0.999733 
-0.0135753 0.008034 -0.999876 