# vtk DataFile Version 3.0 
Exported using Morpho https://github.com/Morpho-lang/morpho 
ASCII 
DATASET UNSTRUCTURED_GRID 

POINTS 1978 float 
-12 -4 -2.05448e-14 
-11.6518 -4 -1.00638e-13 
-11.3283 -4 2.54737e-14 
-10.9857 -4 1.03016e-13 
-10.6607 -4 1.52066e-14 
-10.323 -4 1.17256e-13 
-10.0108 -4 1.16739e-14 
-9.67349 -4 9.2799e-14 
-9.32843 -4 2.71148e-14 
-9.00907 -4 3.93698e-14 
-8.69621 -4 5.56112e-13 
-8.38527 -4 5.83625e-13 
-8.06992 -4 7.71624e-13 
-7.7635 -4 1.14374e-13 
-7.47731 -4 -5.02776e-13 
-7.19459 -4 -5.3623e-13 
-6.91242 -4 7.00824e-16 
-6.59719 -4 3.10373e-13 
-6.30124 -4 6.94025e-13 
-5.99762 -4 1.59443e-12 
-5.69496 -4 7.68668e-13 
-5.40233 -4 -2.63605e-12 
-5.1119 -4 -1.59724e-12 
-4.82988 -4 -2.43731e-13 
-4.505 -4 -1.83432e-12 
-4.1901 -4 1.04532e-12 
-3.91291 -4 9.29105e-12 
-3.58987 -4 2.53919e-12 
-3.29172 -4 -4.74788e-12 
-3.03088 -4 -8.71929e-13 
-2.77792 -4 7.12281e-12 
-2.54708 -4 -3.20726e-11 
-2.32163 -4 -6.77034e-12 
-2.1406 -4 -3.66395e-11 
-1.96106 -4 -4.72048e-11 
-1.77068 -4 -5.6298e-11 
-1.57761 -4 5.03185e-10 
-1.27747 -4 -1.13847e-09 
-0.937552 -4 -1.16467e-10 
-0.376569 -4 -4.89529e-10 
0.593184 -4 -9.3904e-11 
1.18814 -4 1.41014e-10 
1.49452 -4 6.56367e-12 
1.72569 -4 6.11093e-11 
1.96577 -4 3.81327e-11 
2.16523 -4 5.67779e-12 
2.37131 -4 1.43081e-11 
2.58598 -4 1.78736e-11 
2.81339 -4 3.94646e-12 
3.05938 -4 -2.06381e-12 
3.30192 -4 9.80853e-12 
3.56907 -4 -1.72259e-12 
3.87921 -4 -1.0502e-11 
4.18818 -4 6.07837e-13 
4.49288 -4 8.70005e-13 
4.79855 -4 -2.01685e-13 
5.09999 -4 3.42075e-12 
5.39936 -4 1.71905e-12 
5.70546 -4 -1.22581e-12 
5.99415 -4 -7.43665e-13 
6.2854 -4 -6.29273e-13 
6.5675 -4 -3.08866e-13 
6.87191 -4 4.67357e-13 
7.16461 -4 -6.39123e-14 
7.46658 -4 -5.29599e-14 
7.76555 -4 2.11459e-13 
8.06908 -4 -1.84107e-13 
8.36721 -4 -8.46845e-13 
8.66865 -4 -5.96534e-13 
8.95628 -4 -7.39966e-14 
9.29634 -4 -5.18971e-14 
9.62458 -4 -4.94443e-14 
9.92801 -4 -1.57149e-13 
10.3002 -4 -1.24696e-13 
10.6239 -4 -8.89571e-14 
10.9973 -4 -1.10775e-13 
11.3234 -4 -2.46537e-15 
11.6078 -4 9.65341e-14 
12 -4 5.51338e-14 
-12 -3.66125 1.70476e-14 
-11.6796 -3.67715 1.33211e-17 
-11.3477 -3.64943 8.25594e-18 
-11.0277 -3.67016 -1.10655e-17 
-10.6991 -3.65867 -3.8291e-18 
-10.3733 -3.67313 -1.23477e-17 
-10.0436 -3.65371 -3.45719e-18 
-9.7309 -3.68462 -9.70349e-18 
-9.38885 -3.69182 -6.35688e-18 
-9.04748 -3.67055 -4.93142e-18 
-8.73012 -3.66665 -4.99174e-17 
-8.4132 -3.6665 -6.49893e-17 
-8.09873 -3.67171 -7.13897e-17 
-7.78008 -3.66025 -3.77845e-17 
-7.47669 -3.64561 6.75058e-17 
-7.18759 -3.64467 5.79323e-17 
-6.86968 -3.68206 -1.11972e-17 
-6.56402 -3.6632 -3.19025e-17 
-6.25311 -3.67447 -8.28494e-17 
-5.94189 -3.67613 -1.50059e-16 
-5.64036 -3.66732 -2.10718e-17 
-5.3398 -3.66788 2.49431e-16 
-5.04592 -3.66062 1.30177e-16 
-4.7233 -3.70656 1.05624e-16 
-4.38584 -3.69462 6.20167e-17 
-4.08267 -3.65347 -2.28968e-16 
-3.75532 -3.71274 -6.84134e-16 
-3.40951 -3.69471 -1.63301e-16 
-3.09707 -3.68157 -2.61586e-17 
-2.81724 -3.70307 -4.754e-16 
-2.66173 -3.4433 1.0082e-16 
-2.53635 -3.71733 -5.66997e-19 
-2.33327 -3.61951 5.66708e-16 
-2.13899 -3.63367 1.16437e-15 
-1.94986 -3.64512 6.41429e-19 
-1.76357 -3.59978 -7.82679e-19 
-1.56032 -3.56314 -1.05731e-18 
-1.30773 -3.64595 -1.50507e-17 
-0.852845 -3.69093 -2.68786e-16 
-0.236522 -3.6797 8.89583e-12 
0.541064 -3.66309 -3.33532e-12 
1.22248 -3.66979 8.75109e-18 
1.57091 -3.62885 2.16303e-17 
1.82062 -3.42244 -1.41393e-15 
1.86729 -3.72105 -2.01385e-18 
2.12876 -3.65189 1.58279e-15 
2.34987 -3.66909 2.43249e-16 
2.57807 -3.67371 -1.59088e-15 
2.82275 -3.67308 -1.00881e-16 
3.06361 -3.64067 -1.9221e-16 
3.33335 -3.66461 -5.54888e-16 
3.63166 -3.69768 5.04731e-16 
3.93794 -3.68678 1.03186e-15 
4.23914 -3.67686 -1.72511e-16 
4.54478 -3.67822 -1.02738e-16 
4.84754 -3.67103 -3.72451e-17 
5.14774 -3.66923 -3.27247e-16 
5.45413 -3.67695 -1.15403e-16 
5.74716 -3.65835 1.12987e-16 
6.04144 -3.66162 6.52522e-17 
6.32998 -3.6501 4.65035e-17 
6.63205 -3.67437 1.58853e-17 
6.93056 -3.66003 -4.09705e-17 
7.23301 -3.66773 9.12937e-18 
7.53491 -3.66277 -4.28144e-19 
7.83865 -3.66539 -1.29257e-17 
8.14016 -3.66009 3.40203e-17 
8.44155 -3.66026 8.42282e-17 
8.73852 -3.64205 3.64416e-17 
9.06148 -3.69542 1.13641e-17 
9.39227 -3.67976 5.55729e-18 
9.70424 -3.65 8.27976e-18 
10.0495 -3.71108 2.34031e-17 
10.3855 -3.6654 1.35047e-17 
10.7418 -3.70761 1.41361e-17 
11.077 -3.66374 9.70999e-18 
11.3734 -3.61464 -9.73642e-19 
11.7148 -3.72009 -1.1441e-17 
12 -3.62082 -4.82396e-14 
-12 -3.33888 -5.00363e-14 
-11.6671 -3.34198 7.48137e-18 
-11.3392 -3.30815 2.91645e-19 
-11.0143 -3.32887 1.76684e-18 
-10.6821 -3.3238 -8.31452e-20 
-10.3539 -3.33997 3.78898e-19 
-10.0258 -3.32185 -5.69201e-19 
-9.70253 -3.34171 1.49392e-19 
-9.3962 -3.38003 2.97723e-19 
-9.08636 -3.33425 -3.10302e-19 
-8.77699 -3.33126 -1.56337e-19 
-8.46645 -3.33607 3.78925e-18 
-8.15237 -3.33735 3.01039e-20 
-7.84328 -3.33542 -4.81949e-19 
-7.53081 -3.31145 2.68731e-18 
-7.22886 -3.2926 -3.4382e-18 
-6.93348 -3.35449 1.39879e-18 
-6.62819 -3.33309 -6.20824e-19 
-6.32196 -3.34704 -3.00894e-19 
-6.01678 -3.35387 -1.66214e-18 
-5.71421 -3.33836 -1.97345e-18 
-5.41664 -3.33899 -1.40948e-18 
-5.12228 -3.32649 -7.72873e-18 
-4.81735 -3.38553 3.75366e-18 
-4.50852 -3.40438 3.54842e-18 
-4.19793 -3.33243 -3.50869e-18 
-3.86951 -3.38548 9.71634e-18 
-3.56109 -3.41455 -7.66799e-18 
-3.23387 -3.38081 -3.69099e-18 
-2.94527 -3.37412 7.20111e-17 
-2.68642 -3.16047 4.57035e-17 
-2.41174 -3.32861 2.10215e-17 
-2.17783 -3.26631 -3.27974e-17 
-1.97905 -3.27771 2.98791e-17 
-1.79465 -3.19799 -6.72192e-18 
-1.55814 -3.16926 1.85974e-18 
-1.27221 -3.27498 4.94956e-18 
-0.880036 -3.00857 -7.27884e-18 
-0.874422 -3.36985 -6.48294e-19 
-0.286243 -3.25677 -1.75326e-12 
0.439573 -3.27594 2.29689e-12 
1.02332 -3.38175 -4.23784e-16 
1.46294 -3.28959 1.47885e-16 
1.68689 -3.10076 -1.46326e-17 
1.91275 -3.02735 -2.82159e-16 
2.03839 -3.3205 -3.4297e-16 
2.26593 -3.32845 -5.135e-16 
2.48656 -3.35127 3.72801e-17 
2.71783 -3.35836 2.10004e-17 
2.96574 -3.30732 -1.14246e-16 
3.24417 -3.33148 -5.90657e-17 
3.53762 -3.37559 -1.98651e-17 
3.83704 -3.37898 -6.76191e-17 
4.15004 -3.35548 -5.26876e-17 
4.46264 -3.35821 -2.94332e-17 
4.77356 -3.34934 4.16601e-18 
5.08538 -3.34157 2.06187e-17 
5.39551 -3.35475 1.13312e-17 
5.70244 -3.32543 -1.24809e-18 
6.00368 -3.3277 1.9827e-18 
6.30319 -3.31099 -3.90616e-18 
6.60483 -3.34377 1.28371e-18 
6.90858 -3.328 -7.14815e-18 
7.2149 -3.33593 -8.82335e-20 
7.52196 -3.32924 -5.37733e-19 
7.8289 -3.33086 -3.87809e-19 
8.13618 -3.32103 4.79847e-19 
8.43966 -3.31561 3.19236e-21 
8.75922 -3.31697 2.71953e-19 
9.07856 -3.37694 -9.24418e-20 
9.39317 -3.34235 -5.92629e-21 
9.70922 -3.30873 2.42629e-19 
10.0191 -3.39399 -2.17994e-19 
10.3203 -3.31987 8.66375e-20 
10.6464 -3.38953 -7.99645e-20 
10.9762 -3.34767 1.11873e-17 
11.295 -3.26316 6.31193e-18 
11.6345 -3.37079 -3.64342e-18 
12 -3.32299 9.10119e-14 
-12 -3.01079 5.34607e-14 
-11.6579 -3.01368 -3.42075e-18 
-11.3164 -2.97244 -2.91871e-19 
-10.9759 -3.00163 -2.51373e-18 
-10.6383 -2.99393 1.01448e-17 
-10.3097 -3.00645 -3.99466e-19 
-9.9815 -2.99038 8.15594e-19 
-9.66551 -3.00094 -3.77833e-19 
-9.35854 -3.03473 -3.48532e-19 
-9.04874 -2.99235 2.51105e-19 
-8.73707 -2.99468 -1.94886e-21 
-8.42429 -3.00595 -2.3804e-18 
-8.11451 -3.00212 -7.0567e-18 
-7.80411 -3.00437 1.0144e-17 
-7.49873 -2.97339 1.05426e-18 
-7.19195 -2.96068 -6.33546e-19 
-6.89598 -3.02026 -3.70655e-19 
-6.58747 -3.00607 3.10433e-19 
-6.28377 -3.02183 1.97279e-18 
-5.98435 -3.025 3.49661e-19 
-5.6868 -3.0073 -2.76685e-19 
-5.39281 -3.00628 -1.51271e-18 
-5.09157 -3.00054 2.67598e-18 
-4.79855 -3.06736 1.62504e-18 
-4.49357 -3.08145 -1.77583e-18 
-4.20364 -2.98527 8.76601e-18 
-3.91273 -3.07555 3.00157e-18 
-3.59019 -3.08886 -7.10059e-18 
-3.28904 -3.09521 -2.01965e-17 
-2.96482 -3.05185 1.08946e-17 
-2.72989 -2.84951 7.01088e-17 
-2.455 -3.00391 1.72712e-17 
-2.25536 -2.91366 1.29921e-17 
-2.04636 -2.90489 -6.44879e-17 
-1.84788 -2.8202 -9.4392e-17 
-1.62208 -2.80539 1.80943e-17 
-1.29063 -2.90293 -1.93375e-17 
-0.854504 -2.62665 -1.81114e-16 
-0.301812 -2.81324 -4.63041e-12 
0.437481 -2.39149 7.60731e-12 
0.441726 -2.84518 4.4856e-12 
1.03543 -2.60756 2.16529e-16 
1.00412 -3.02262 5.19525e-16 
1.37662 -2.89768 2.5873e-16 
1.64857 -2.74033 -1.53755e-16 
1.95682 -2.75472 -9.72546e-17 
2.17039 -3.00352 -2.12295e-16 
2.40282 -3.01613 -4.95828e-17 
2.62753 -3.01893 7.42373e-17 
2.86048 -3.01112 5.18195e-17 
3.16956 -3.0238 1.33783e-17 
3.4879 -3.05833 3.70701e-18 
3.80239 -3.05724 -4.43283e-17 
4.11388 -3.04421 -4.7687e-17 
4.44277 -3.0407 9.05463e-19 
4.76291 -3.02862 1.60089e-17 
5.07389 -3.01787 1.1708e-17 
5.38157 -3.03182 -2.28066e-18 
5.68764 -3.0024 5.91485e-18 
5.9941 -2.99725 -2.60883e-18 
6.2951 -2.98046 2.20694e-18 
6.5959 -3.0132 -2.33146e-20 
6.90351 -3.0015 -3.04024e-19 
7.20934 -3.00654 -9.87327e-19 
7.51442 -2.99977 -1.9075e-18 
7.82456 -2.99788 8.79952e-19 
8.12666 -2.98383 -6.64956e-19 
8.4335 -2.97657 -2.21343e-19 
8.73966 -2.98863 -2.0472e-19 
9.0618 -3.04457 -6.10408e-20 
9.37913 -3.00986 6.33847e-21 
9.68487 -2.96717 2.78094e-21 
10.0077 -3.04029 -6.37391e-21 
10.3341 -2.98393 -1.68403e-19 
10.656 -3.05695 -4.38045e-20 
10.9786 -3.00454 2.03758e-18 
11.3287 -2.94506 5.57284e-19 
11.6607 -3.06013 -1.64358e-18 
12 -3.00055 6.32241e-15 
-12 -2.69087 4.98179e-14 
-11.6598 -2.69132 -2.59563e-18 
-11.3344 -2.63609 2.607e-19 
-10.9965 -2.67628 -9.15485e-18 
-10.6562 -2.66803 6.40727e-18 
-10.3189 -2.67385 9.86453e-18 
-9.98914 -2.66324 -1.23651e-17 
-9.65895 -2.66482 3.42726e-20 
-9.34046 -2.69035 2.12747e-19 
-9.0204 -2.65961 4.67959e-18 
-8.70303 -2.66513 -6.70554e-18 
-8.38952 -2.67552 1.88138e-18 
-8.07512 -2.67283 -1.24427e-18 
-7.76775 -2.66968 9.23677e-18 
-7.45486 -2.64504 1.17018e-17 
-7.14123 -2.63954 9.02977e-19 
-6.83951 -2.69319 -1.75314e-19 
-6.53087 -2.68238 -6.00356e-18 
-6.23317 -2.69389 -2.06911e-18 
-5.93853 -2.69329 1.11567e-18 
[...]
POINT_DATA 1978 
VECTORS vectors float
6.55684e-06 -1.94759e-05 1 
2.41356e-06 -2.33583e-05 1 
1.13791e-05 -2.64087e-05 1 
6.77804e-06 -2.88135e-05 1 
3.93807e-06 -3.32573e-05 1 
1.92987e-06 -4.18804e-05 1 
-1.54226e-06 -5.36802e-05 1 
-5.93315e-06 -6.57525e-05 1 
-1.00932e-05 -6.94096e-05 1 
-1.30152e-05 -6.55586e-05 1 
-1.70545e-05 -6.80667e-05 1 
-2.41707e-05 -8.24879e-05 1 
-2.81382e-05 -0.000102547 1 
-2.57118e-05 -0.000121001 1 
-2.66267e-05 -0.000139838 1 
-3.90218e-05 -0.00016255 1 
-7.20815e-05 -0.000196352 1 
-8.93522e-05 -0.000250545 1 
-8.86467e-05 -0.000303272 1 
-8.91512e-05 -0.000305083 1 
-8.09129e-05 -0.000203188 1 
-5.57515e-05 -3.57528e-05 1 
-1.9825e-05 0.000115725 1 
-3.73417e-05 0.000210336 1 
-8.89449e-05 0.000376107 1 
3.8256e-05 0.000470069 1 
0.000252453 0.000147145 1 
0.000185932 -0.000151538 1 
1.92673e-05 0.00053374 1 
1.43208e-05 0.00123384 0.999999 
4.10111e-05 0.00144114 0.999999 
0.000111867 0.000897709 1 
0.000109324 0.000443546 1 
2.36319e-05 0.000320552 1 
6.41307e-05 0.0004236 1 
0.000102202 0.00038095 1 
0.000153158 8.82768e-05 1 
0.000187525 -0.000449825 1 
0.000804265 -0.000743093 0.999999 
0.0011576 -0.00066715 0.999999 
-0.000929385 -0.00300652 -0.999995 
-0.000314032 -0.000761038 -1 
-0.000253147 0.00143419 -0.999999 
-3.74957e-05 0.00351243 -0.999994 
0.0005421 0.00384685 -0.999992 
0.000818961 0.00255234 -0.999996 
0.0007325 0.00102658 -0.999999 
0.000500873 -0.000205508 -1 
7.14555e-05 -0.00030767 -1 
-0.000144729 0.000358339 -1 
-7.195e-05 0.0011711 -0.999999 
5.03394e-05 0.00162632 -0.999999 
9.73046e-05 0.00148692 -0.999999 
9.28289e-05 0.00103135 -0.999999 
9.04281e-05 0.000560748 -1 
8.68042e-05 0.000179156 -1 
9.46502e-05 -0.000111352 -1 
0.000112375 -0.000315998 -1 
0.000110243 -0.000419176 -1 
8.98378e-05 -0.000431355 -1 
7.10354e-05 -0.000379385 -1 
6.57773e-05 -0.000301536 -1 
6.33454e-05 -0.000229659 -1 
5.21751e-05 -0.000190701 -1 
4.01689e-05 -0.000164886 -1 
3.39484e-05 -0.000139084 -1 
2.93188e-05 -0.000109543 -1 
2.2907e-05 -8.07912e-05 -1 
1.69555e-05 -6.31838e-05 -1 
1.58286e-05 -6.24712e-05 -1 
1.40533e-05 -6.96662e-05 -1 
7.84654e-06 -6.66825e-05 -1 
3.9213e-06 -5.63315e-05 -1 
1.04953e-06 -4.40834e-05 -1 
-3.8081e-06 -3.69746e-05 -1 
-6.25668e-06 -3.13559e-05 -1 
-7.57127e-06 -2.80441e-05 -1 
-2.91827e-06 -2.51668e-05 -1 
-4.82985e-06 -2.00314e-05 -1 
-2.84715e-05 -2.72693e-05 1 
-1.9293e-05 -2.89466e-05 1 
-1.6923e-05 -2.86739e-05 1 
-1.5957e-05 -2.96179e-05 1 
-1.55064e-05 -3.41416e-05 1 
-1.22633e-05 -4.34557e-05 1 
-6.44714e-06 -5.6705e-05 1 
3.42396e-06 -6.7984e-05 1 
1.56614e-05 -7.47051e-05 1 
2.84342e-05 -7.58408e-05 1 
3.88098e-05 -7.89681e-05 1 
4.7332e-05 -8.8683e-05 1 
5.4948e-05 -0.000105136 1 
6.51626e-05 -0.000128644 1 
8.01546e-05 -0.00016008 1 
0.000106673 -0.000200323 1 
0.000149819 -0.000245399 1 
0.000218893 -0.000292184 1 
0.000274391 -0.000303417 1 
0.000305654 -0.000248656 1 
0.000311626 -0.000121984 1 
0.000288391 3.88587e-05 1 
0.000249418 0.000187315 1 
0.000159191 0.000308036 1 
8.02681e-05 0.000416893 1 
-2.76746e-05 0.000397688 1 
-0.000252821 0.00020839 1 
-0.000599278 0.000274897 1 
-0.00067733 0.000580436 1 
-0.000449422 0.000750193 1 
-0.000566543 0.000207932 1 
-0.000169926 0.000501326 1 
-0.000118325 0.00012442 1 
6.05991e-05 -4.2008e-05 1 
0.000286317 -0.000119728 1 
0.000471161 -0.000265078 1 
0.000593288 -0.000393766 1 
0.00058705 -0.000457852 1 
0.000448359 -0.000633505 1 
0.000351663 -0.000535813 1 
8.23712e-05 -0.0027395 -0.999996 
-0.000251337 -0.000864868 -1 
0.000347376 0.000874429 -1 
0.00117014 0.000560115 -0.999999 
0.000955951 0.00212993 -0.999997 
0.00169493 0.00145023 -0.999998 
0.00190056 0.000904215 -0.999998 
0.0015809 0.000476542 -0.999999 
0.00100027 0.000504458 -0.999999 
0.000478918 0.000870546 -1 
2.98095e-05 0.001282 -0.999999 
-0.000263074 0.00151545 -0.999999 
-0.000457927 0.00135285 -0.999999 
-0.000544524 0.000961262 -0.999999 
-0.000562384 0.00052698 -1 
-0.000559515 0.000164469 -1 
-0.00051676 -0.000112129 -1 
-0.000433267 -0.000310974 -1 
-0.000357166 -0.000410866 -1 
-0.000279989 -0.000427308 -1 
-0.000222579 -0.000384362 -1 
-0.000164264 -0.000313361 -1 
-0.000122434 -0.000252399 -1 
-9.25233e-05 -0.000205187 -1 
-7.92533e-05 -0.000169478 -1 
-7.12347e-05 -0.000138446 -1 
-6.31185e-05 -0.000110205 -1 
-5.40219e-05 -8.81979e-05 -1 
-4.61626e-05 -7.74701e-05 -1 
-3.33897e-05 -7.41083e-05 -1 
-2.28747e-05 -7.52817e-05 -1 
-1.13468e-05 -7.06765e-05 -1 
4.29076e-07 -5.777e-05 -1 
8.8331e-06 -4.56814e-05 -1 
1.18664e-05 -3.58236e-05 -1 
1.43144e-05 -3.10398e-05 -1 
1.61519e-05 -2.99416e-05 -1 
1.63213e-05 -2.82205e-05 -1 
2.53755e-05 -2.68424e-05 -1 
-2.95769e-05 -3.77767e-05 1 
-2.30543e-05 -3.50399e-05 1 
-2.14866e-05 -3.22137e-05 1 
-2.20331e-05 -3.14383e-05 1 
-2.22261e-05 -3.66627e-05 1 
-1.88191e-05 -4.8073e-05 1 
-1.09317e-05 -6.4e-05 1 
2.74038e-06 -7.65914e-05 1 
1.87752e-05 -8.3516e-05 1 
3.48294e-05 -8.86123e-05 1 
4.76955e-05 -9.09221e-05 1 
5.67606e-05 -9.60057e-05 1 
6.38362e-05 -0.000108509 1 
7.1583e-05 -0.000131904 1 
8.44994e-05 -0.000172149 1 
0.000112211 -0.000227555 1 
0.00016513 -0.000282692 1 
0.000237826 -0.000331813 1 
0.000316787 -0.000331216 1 
0.000379472 -0.000260348 1 
0.000411739 -0.000122245 1 
0.000405572 4.79405e-05 1 
0.000364359 0.00021495 1 
0.000284943 0.000342454 1 
0.000181772 0.000429746 1 
4.46579e-05 0.000459159 1 
-0.000204066 0.000392754 1 
-0.000520325 0.000293744 1 
-0.000787861 0.000260568 1 
-0.000815588 0.000253343 1 
-0.000839828 -0.000148854 1 
-0.000472768 -0.000170148 1 
-0.000277313 -0.000410083 1 
-3.58876e-05 -0.000534622 1 
7.40011e-05 -0.000724119 1 
0.000223796 -0.00082542 1 
0.00048473 -0.000745322 1 
0.000431935 -0.000762225 1 
0.000566917 -0.000660404 1 
0.000413514 -0.000401033 1 
0.000314129 -0.00244012 -0.999997 
4.98684e-05 -0.0013237 -0.999999 
0.000625339 -0.00077584 -1 
0.001164 -0.000565878 -0.999999 
0.00160356 -0.000543119 -0.999999 
0.00161815 0.000213813 -0.999999 
0.00182878 0.000387236 -0.999998 
0.00175712 0.00049418 -0.999998 
0.0013396 0.000633632 -0.999999 
0.000736296 0.000894887 -0.999999 
0.000123158 0.00120955 -0.999999 
-0.000343647 0.00143677 -0.999999 
-0.000657086 0.0014075 -0.999999 
-0.000834189 0.00109807 -0.999999 
-0.00088314 0.000662215 -0.999999 
-0.000852716 0.0002588 -1 
-0.00074409 -5.1523e-05 -1 
-0.000593465 -0.000276738 -1 
-0.00044416 -0.000406732 -1 
-0.000328045 -0.000444092 -1 
-0.000238645 -0.000407405 -1 
-0.000177632 -0.000344537 -1 
-0.00012839 -0.000282272 -1 
-9.90138e-05 -0.000228974 -1 
-8.36876e-05 -0.000183336 -1 
-7.64174e-05 -0.000146623 -1 
-6.99855e-05 -0.000118975 -1 
-6.31416e-05 -0.000100883 -1 
-5.45711e-05 -9.13948e-05 -1 
-4.2795e-05 -8.64189e-05 -1 
-2.82593e-05 -8.61754e-05 -1 
-1.14433e-05 -8.08828e-05 -1 
2.41896e-06 -6.66302e-05 -1 
1.27156e-05 -5.40671e-05 -1 
1.75742e-05 -4.02078e-05 -1 
1.96255e-05 -3.34301e-05 -1 
2.00385e-05 -3.2693e-05 -1 
2.09921e-05 -3.37481e-05 -1 
2.73987e-05 -3.60227e-05 -1 
-2.43609e-05 -4.51136e-05 1 
-2.03772e-05 -4.00917e-05 1 
-2.06052e-05 -3.51969e-05 1 
-2.34324e-05 -3.42366e-05 1 
-2.44031e-05 -4.10711e-05 1 
-2.08812e-05 -5.52316e-05 1 
-1.17481e-05 -7.25839e-05 1 
2.27168e-06 -8.64558e-05 1 
1.88416e-05 -9.3678e-05 1 
3.44763e-05 -9.90365e-05 1 
4.64293e-05 -0.000101453 1 
5.34827e-05 -0.000105439 1 
5.72234e-05 -0.000117358 1 
6.24933e-05 -0.000143467 1 
7.38213e-05 -0.000190836 1 
0.000100087 -0.000258213 1 
0.000150703 -0.000321983 1 
0.000217803 -0.000368223 1 
0.000295307 -0.000348995 1 
0.000359423 -0.000250403 1 
0.000392552 -8.72618e-05 1 
0.000393797 0.000102736 1 
0.000363044 0.000284164 1 
0.000311318 0.000398979 1 
0.000219959 0.000460633 1 
0.000102783 0.000481058 1 
-0.000116226 0.000440219 1 
-0.000429412 0.000288921 1 
-0.000734483 0.000131786 1 
-0.000902903 -1.7753e-06 1 
-0.000993033 -0.000297907 0.999999 
-0.000854691 -0.000539373 0.999999 
-0.000738442 -0.000809559 0.999999 
-0.000532492 -0.00095444 0.999999 
-0.00039361 -0.00109266 0.999999 
-0.000168366 -0.00111995 0.999999 
0.000195853 -0.000991495 0.999999 
5.00849e-05 -0.000902219 1 
0.000351541 -0.000427366 1 
0.00156511 -0.00197223 -0.999997 
0.000772754 -0.00224482 -0.999997 
0.00164444 -0.00190808 -0.999997 
0.000686097 -0.00184469 -0.999998 
0.00129573 -0.0014315 -0.999998 
0.00176952 -0.00113936 -0.999998 
0.00190387 -0.000713282 -0.999998 
0.0017526 -0.000254997 -0.999998 
0.00165516 9.3298e-05 -0.999999 
0.00132883 0.000425162 -0.999999 
0.000811375 0.000757987 -0.999999 
0.000126119 0.00111074 -0.999999 
-0.000464093 0.00133457 -0.999999 
-0.000832921 0.00132908 -0.999999 
-0.0010134 0.00107163 -0.999999 
-0.00104141 0.000651549 -0.999999 
-0.000959199 0.000256304 -1 
-0.000787776 -4.74785e-05 -1 
-0.000584316 -0.000268783 -1 
-0.000407306 -0.0004088 -1 
-0.000275321 -0.000448556 -1 
-0.000183832 -0.000419988 -1 
-0.000130685 -0.000358122 -1 
-9.34759e-05 -0.000298952 -1 
-7.45309e-05 -0.000241885 -1 
-6.52907e-05 -0.000192246 -1 
-6.13828e-05 -0.000152269 -1 
-5.91858e-05 -0.000127551 -1 
-5.56758e-05 -0.000111596 -1 
-5.02387e-05 -0.000103208 -1 
-4.1424e-05 -9.81712e-05 -1 
-2.68973e-05 -9.64524e-05 -1 
-1.05596e-05 -9.10048e-05 -1 
4.4478e-06 -7.55169e-05 -1 
1.52292e-05 -5.8844e-05 -1 
2.01593e-05 -4.28895e-05 -1 
2.11936e-05 -3.57995e-05 -1 
1.9313e-05 -3.60522e-05 -1 
2.0212e-05 -3.89811e-05 -1 
2.38765e-05 -4.39808e-05 -1 
-1.63101e-05 -5.07103e-05 1 
-1.4704e-05 -4.41406e-05 1 
-1.6862e-05 -3.87176e-05 1 
-2.19495e-05 -3.71792e-05 1 
-2.42284e-05 -4.44111e-05 1 
-2.11911e-05 -5.9895e-05 1 
-1.24383e-05 -7.88647e-05 1 
2.05045e-06 -9.3036e-05 1 
1.89107e-05 -0.00010063 1 
3.47086e-05 -0.000106497 1 
4.51059e-05 -0.00010896 1 
4.94127e-05 -0.000112177 1 
5.00521e-05 -0.000123952 1 
5.25705e-05 -0.000152312 1 
6.27201e-05 -0.000205248 1 
8.78282e-05 -0.000280552 1 
0.000133217 -0.000347735 1 
0.000193653 -0.000387524 1 
0.00026125 -0.000352428 1 
0.000313982 -0.000234528 1 
0.000340187 -4.99413e-05 1 
0.000346711 0.000160771 1 
0.000331522 0.000346541 1 
0.00029779 0.000443142 1 
0.00023532 0.000477631 1 
8.39013e-05 0.00046753 1 
-0.000156455 0.000394182 1 
-0.000479976 0.000161827 1 
-0.000812381 -6.56028e-05 1 
-0.000974942 -0.000257643 0.999999 
-0.00105234 -0.000596452 0.999999 
-0.00101811 -0.000898551 0.999999 
-0.000898376 -0.00113671 0.999999 
-0.000783906 -0.00125445 0.999999 
-0.00067209 -0.00131275 0.999999 
-0.00117534 -0.00143369 0.999998 
-0.000224542 -0.0011932 0.999999 
-0.000600714 -0.00126341 0.999999 
-9.22539e-06 -0.000747403 1 
-0.000656371 -0.00218917 0.999997 
0.00258409 -0.00167189 -0.999995 
0.00263057 -0.00193766 -0.999995 
0.00221705 -0.00156749 -0.999996 
0.00246678 -0.00119873 -0.999996 
0.00218233 -0.000827946 -0.999997 
0.00203886 -0.000429705 -0.999998 
0.00178822 -0.000322037 -0.999998 
0.00149672 6.33933e-05 -0.999999 
0.00102944 0.000448372 -0.999999 
0.000373431 0.000873532 -1 
-0.000321003 0.00113958 -0.999999 
-0.000801434 0.00122079 -0.999999 
-0.00107294 0.00113255 -0.999999 
-0.00116096 0.000861547 -0.999999 
-0.00109882 0.00049034 -0.999999 
-0.00091711 0.000150627 -1 
-0.00067581 -0.000114019 -1 
-0.000465821 -0.00029939 -1 
-0.000296565 -0.000413822 -1 
-0.000185627 -0.000440159 -1 
-0.000110889 -0.000404576 -1 
-7.47197e-05 -0.000347867 -1 
-5.46495e-05 -0.000289774 -1 
-4.854e-05 -0.000236355 -1 
-4.73838e-05 -0.000187589 -1 
-4.80516e-05 -0.000152421 -1 
-4.96292e-05 -0.000129535 -1 
-4.95315e-05 -0.000118193 -1 
-4.6908e-05 -0.000114182 -1 
-3.98248e-05 -0.00010868 -1 
-2.76004e-05 -0.000106486 -1 
-1.11967e-05 -9.9857e-05 -1 
4.45368e-06 -8.37283e-05 -1 
1.52033e-05 -6.53759e-05 -1 
2.04852e-05 -4.69472e-05 -1 
2.00815e-05 -3.85665e-05 -1 
1.57424e-05 -3.93844e-05 -1 
1.53605e-05 -4.40841e-05 -1 
1.52513e-05 -5.15457e-05 -1 
-9.19321e-08 -5.45971e-05 1 
-5.55816e-06 -4.86434e-05 1 
-9.60375e-06 -4.20444e-05 1 
-1.77832e-05 -4.01229e-05 1 
-2.2706e-05 -4.59804e-05 1 
-2.19613e-05 -6.07829e-05 1 
-1.46037e-05 -7.99923e-05 1 
-1.56421e-06 -9.58196e-05 1 
1.57212e-05 -0.000105657 1 
3.19746e-05 -0.000111176 1 
4.43261e-05 -0.000113452 1 
4.87693e-05 -0.000113059 1 
4.73859e-05 -0.000117785 1 
4.49618e-05 -0.000137862 1 
4.80633e-05 -0.000179539 1 
6.30295e-05 -0.000245896 1 
9.4564e-05 -0.000325098 1 
0.000138334 -0.000380862 1 
0.000193442 -0.000384679 1 
0.000241905 -0.00030795 1 
0.000273792 -0.000154646 1 
0.00029261 5.5972e-05 1 
0.000299453 0.000264597 1 
0.000293928 0.000422297 1 
0.000274888 0.000479044 1 
0.000211438 0.000476451 1 
2.3454e-05 0.000432499 1 
-0.00023395 0.000299657 1 
-0.000595518 -4.51204e-07 1 
-0.00083602 -0.000166006 1 
-0.00107073 -0.000416341 0.999999 
-0.00118899 -0.000746437 0.999999 
-0.00120879 -0.00101581 0.999999 
-0.00126022 -0.00112149 0.999999 
-0.00135847 -0.00124245 0.999998 
-0.00214266 -0.00159878 0.999996 
-0.00165184 -0.00180123 0.999997 
-0.00202748 -0.00300558 0.999993 
-0.000780326 -0.00128628 0.999999 
-0.00180106 -0.00568496 0.999982 
0.00387167 -0.00186245 -0.999991 
0.00408745 -0.00214498 -0.999989 
0.00340307 -0.001926 -0.999992 
0.00316367 -0.0014683 -0.999994 
0.00371399 -0.00138723 -0.999992 
0.00261664 -0.000785073 -0.999996 
0.0023038 -0.000203062 -0.999997 
0.00163984 4.36596e-05 -0.999999 
0.00119282 0.000399179 -0.999999 
0.000551826 0.000723275 -1 
-0.000153143 0.000981969 -1 
-0.000743436 0.00106619 -0.999999 
-0.00109315 0.00100763 -0.999999 
-0.00122426 0.000832835 -0.999999 
-0.0011546 0.000528545 -0.999999 
-0.000936741 0.000208601 -1 
-0.000659016 -5.36993e-05 -1 
-0.000416918 -0.000247332 -1 
-0.000251997 -0.000369062 -1 
-0.000135703 -0.000414283 -1 
-6.89745e-05 -0.000393759 -1 
-3.87197e-05 -0.000343254 -1 
-2.90528e-05 -0.000288295 -1 
-3.05476e-05 -0.000233857 -1 
-3.58371e-05 -0.000189229 -1 
-4.00534e-05 -0.000152953 -1 
-4.43709e-05 -0.000131326 -1 
-4.71309e-05 -0.000121412 -1 
-4.70128e-05 -0.000119934 -1 
-4.12094e-05 -0.000118123 -1 
-2.89521e-05 -0.000115047 -1 
-1.35149e-05 -0.000108719 -1 
2.54601e-06 -9.2178e-05 -1 
1.43144e-05 -7.20262e-05 -1 
1.98333e-05 -5.17588e-05 -1 
1.79507e-05 -4.21929e-05 -1 
1.11195e-05 -4.17144e-05 -1 
7.24734e-06 -4.68254e-05 -1 
2.26863e-06 -5.53789e-05 -1 
1.41295e-05 -5.14728e-05 1 
3.83769e-06 -4.47087e-05 1 
-7.85673e-06 -4.20683e-05 1 
-1.72243e-05 -4.585e-05 1 
-2.19291e-05 -5.73738e-05 1 
-1.86495e-05 -7.6002e-05 1 
-7.65665e-06 -9.57398e-05 1 
8.36327e-06 -0.000108885 1 
2.64991e-05 -0.000116024 1 
4.21788e-05 -0.000117461 1 
5.12278e-05 -0.000114207 1 
5.11081e-05 -0.000109846 1 
4.57574e-05 -0.000115792 1 
4.20269e-05 -0.000141143 1 
4.69648e-05 -0.000190736 1 
6.51606e-05 -0.000263187 1 
9.35792e-05 -0.00033497 1 
0.000133108 -0.00038266 1 
0.000173453 -0.000365971 1 
0.000206878 -0.00026818 1 
0.000233236 -9.24753e-05 1 
0.000251101 0.000123032 1 
0.000263282 0.000330008 1 
0.000263203 0.000445701 1 
0.000258884 0.000481974 1 
0.00018176 0.000459737 1 
-1.69957e-05 0.000389434 1 
-0.000315389 0.000228514 1 
-0.000585997 0.000102037 1 
-0.000941771 -0.00012444 1 
-0.00118427 -0.000366632 0.999999 
-0.00149926 -0.000588066 0.999999 
-0.0018297 -0.000793221 0.999998 
-0.00220471 -0.00109978 0.999997 
-0.00337181 -0.00187027 0.999993 
-0.00277713 -0.00249859 0.999993 
-0.00357077 -0.00562183 0.999978 
-0.00752089 -0.0107825 0.999914 
-0.00522111 -0.00860736 0.999949 
-0.00477905 -0.0105393 0.999933 
0.00678334 -0.00384204 -0.99997 
0.00958035 -0.00479541 -0.999943 
0.00669343 -0.00331653 -0.999972 
0.00549346 -0.00276369 -0.999981 
0.004574 -0.00224101 -0.999987 
0.00515261 -0.00237417 -0.999984 
0.00326735 -0.00076229 -0.999994 
0.00198159 0.00018829 -0.999998 
0.00122483 0.000563898 -0.999999 
0.000421214 0.000805524 -1 
-0.000292284 0.00094911 -1 
-0.00081031 0.000910887 -0.999999 
-0.00115821 0.000816828 -0.999999 
-0.00120647 0.000620265 -0.999999 
-0.00102823 0.000341628 -0.999999 
-0.000741633 8.07198e-05 -1 
-0.000467383 -0.000121563 -1 
-0.000263104 -0.00026816 -1 
-0.00013342 -0.00035888 -1 
-5.11892e-05 -0.000379124 -1 
-1.57813e-05 -0.000352497 -1 
-7.94014e-06 -0.000305727 -1 
-1.48228e-05 -0.000254662 -1 
-2.54712e-05 -0.000205042 -1 
-3.33591e-05 -0.000167172 -1 
-3.92649e-05 -0.000136667 -1 
-4.40709e-05 -0.000121538 -1 
-4.85128e-05 -0.000118636 -1 
-4.99232e-05 -0.000124301 -1 
-4.35723e-05 -0.000125628 -1 
-3.23691e-05 -0.000125267 -1 
-1.47957e-05 -0.00011722 -1 
2.44661e-06 -9.8458e-05 -1 
1.41511e-05 -7.7781e-05 -1 
1.89329e-05 -5.69212e-05 -1 
1.55085e-05 -4.64128e-05 -1 
5.99019e-06 -4.27414e-05 -1 
-2.04247e-06 -4.63881e-05 -1 
-1.28743e-05 -5.29522e-05 -1 
2.7169e-05 -4.04412e-05 1 
1.27621e-05 -3.98376e-05 1 
-1.85576e-06 -4.18677e-05 1 
-1.35126e-05 -4.94535e-05 1 
-1.97654e-05 -6.34084e-05 1 
-1.7424e-05 -8.31813e-05 1 
-6.55171e-06 -0.000103877 1 
1.05119e-05 -0.000118477 1 
2.96628e-05 -0.000125254 1 
4.64383e-05 -0.000123374 1 
5.63577e-05 -0.000114962 1 
5.71699e-05 -0.000103837 1 
5.11583e-05 -0.000102162 1 
4.57087e-05 -0.000119123 1 
4.74182e-05 -0.000160277 1 
6.02106e-05 -0.000225164 1 
8.29961e-05 -0.000299293 1 
0.00011222 -0.000361222 1 
0.000142794 -0.000368516 1 
0.000168741 -0.000294172 1 
0.000190296 -0.00014793 1 
0.00020911 5.21028e-05 1 
0.00022998 0.000263269 1 
0.000242363 0.000400087 1 
0.000261693 0.000462715 1 
0.00023395 0.000465963 1 
8.27663e-05 0.00044101 1 
-0.000219213 0.000366452 1 
-0.000645102 0.000314678 1 
-0.00104261 0.000184946 0.999999 
-0.00149039 -0.000119651 0.999999 
-0.00236892 -0.000515305 0.999997 
-0.0033472 -0.00128655 0.999994 
-0.00438505 -0.00320959 0.999985 
-0.00532229 -0.00524782 0.999972 
-0.00388732 -0.00409452 0.999984 
-0.00543381 -0.00729159 0.999959 
-0.0151221 -0.0167149 0.999746 
-0.0129124 -0.0170692 0.999771 
-0.0101741 -0.0177256 0.999791 
0.0128781 -0.00699233 -0.999893 
0.0145523 -0.00648754 -0.999873 
0.00955868 -0.00631436 -0.999934 
0.0068832 -0.0035447 -0.99997 
0.0085947 -0.00552872 -0.999948 
0.00659633 -0.0034805 -0.999972 
0.0046202 -0.00189291 -0.999988 
0.00300394 -0.000449784 -0.999995 
0.0021638 3.79027e-05 -0.999998 
0.00107506 0.00059995 -0.999999 
0.000250246 0.000844818 -1 
-0.000363707 0.000862867 -1 
-0.000926473 0.000783647 -0.999999 
-0.00112771 0.000618585 -0.999999 
-0.0010103 0.000373749 -0.999999 
-0.000736896 0.000138273 -1 
-0.000450125 -5.17692e-05 -1 
-0.000231821 -0.00019856 -1 
-9.63044e-05 -0.000299772 -1 
-2.20715e-05 -0.000337517 -1 
5.08817e-06 -0.000330126 -1 
3.71772e-06 -0.000286249 -1 
-1.18247e-05 -0.000239466 -1 
-2.77957e-05 -0.000190868 -1 
-3.80311e-05 -0.000150646 -1 
-4.38396e-05 -0.000122785 -1 
-4.82914e-05 -0.000110054 -1 
-5.25555e-05 -0.000112187 -1 
-5.39908e-05 -0.000123935 -1 
-4.88706e-05 -0.000134029 -1 
-3.59273e-05 -0.000136614 -1 
-1.85851e-05 -0.000130028 -1 
-2.66892e-07 -0.000109665 -1 
1.19466e-05 -8.89382e-05 -1 
1.72576e-05 -6.51199e-05 -1 
1.29901e-05 -5.09271e-05 -1 
1.92974e-06 -4.24942e-05 -1 
-1.02448e-05 -4.19904e-05 -1 
-2.55074e-05 -4.3821e-05 -1 
3.34226e-05 -2.61723e-05 1 
1.58342e-05 -3.12476e-05 1 
1.25225e-06 -4.05061e-05 1 
-1.08666e-05 -5.41402e-05 1 
-1.67428e-05 -7.30281e-05 1 
-1.35991e-05 -9.61346e-05 1 
-1.54203e-06 -0.000118886 1 
1.61051e-05 -0.000133686 1 
3.54426e-05 -0.000136299 1 
5.1611e-05 -0.000128284 1 
6.06964e-05 -0.000112198 1 
6.10554e-05 -9.49036e-05 1 
5.53944e-05 -8.85199e-05 1 
5.00199e-05 -0.000102865 1 
5.16978e-05 -0.000141848 1 
6.24053e-05 -0.000202941 1 
7.95526e-05 -0.000274296 1 
0.00010151 -0.000336348 1 
0.000126342 -0.000353178 1 
0.000142087 -0.000293089 1 
0.000158974 -0.000153462 1 
0.000178389 4.35286e-05 1 
0.00020172 0.000230069 1 
0.000230837 0.000373758 1 
0.000256571 0.000437288 1 
0.000244025 0.000465376 1 
0.000162952 0.000509683 1 
-3.41707e-05 0.000549936 1 
-0.00039679 0.000608285 1 
-0.000970418 0.000655437 0.999999 
-0.00159098 0.000382907 0.999999 
-0.00238563 -0.000143579 0.999997 
-0.00376413 -0.00135751 0.999992 
-0.00467855 -0.00299467 0.999985 
-0.00616779 -0.00645648 0.99996 
-0.00643547 -0.00887607 0.99994 