# vtk DataFile Version 3.0 
Exported using Morpho https://github.com/Morpho-lang/morpho 
ASCII 
DATASET UNSTRUCTURED_GRID 

POINTS 1978 float 
-12 -4 1.93368e-15 
-11.6518 -4 9.47204e-15 
-11.3283 -4 -2.39759e-15 
-10.9857 -4 -9.69582e-15 
-10.6607 -4 -1.43124e-15 
-10.323 -4 -1.10361e-14 
-10.0109 -4 -1.09875e-15 
-9.67349 -4 -8.73424e-15 
-9.32843 -4 -2.55204e-15 
-9.00907 -4 -3.70549e-15 
-8.69621 -4 -5.23413e-14 
-8.38527 -4 -5.49308e-14 
-8.06989 -4 -7.26252e-14 
-7.76354 -4 -1.07649e-14 
-7.47732 -4 4.73213e-14 
-7.19458 -4 5.047e-14 
-6.91242 -4 -6.59586e-17 
-6.59719 -4 -2.92123e-14 
-6.30124 -4 -6.53216e-14 
-5.99762 -4 -1.50068e-13 
-5.69496 -4 -7.23471e-14 
-5.40234 -4 2.48105e-13 
-5.1119 -4 1.50332e-13 
-4.82988 -4 2.294e-14 
-4.50499 -4 1.72647e-13 
-4.19011 -4 -9.83857e-14 
-3.91291 -4 -8.74474e-13 
-3.58986 -4 -2.38989e-13 
-3.29174 -4 4.4687e-13 
-3.03088 -4 8.20656e-14 
-2.77794 -4 -6.70399e-13 
-2.54708 -4 3.01868e-12 
-2.32163 -4 6.37224e-13 
-2.14061 -4 3.44851e-12 
-1.96102 -4 4.44292e-12 
-1.77072 -4 5.29877e-12 
-1.57756 -4 -4.73597e-11 
-1.27748 -4 1.07153e-10 
-0.937521 -4 1.09618e-11 
-0.375915 -4 4.56848e-11 
0.593016 -4 9.70926e-12 
1.18792 -4 -1.32723e-11 
1.49457 -4 -6.17778e-13 
1.72569 -4 -5.75162e-12 
1.96584 -4 -3.58904e-12 
2.16524 -4 -5.34389e-13 
2.37131 -4 -1.34668e-12 
2.58599 -4 -1.68226e-12 
2.81343 -4 -3.71446e-13 
3.05938 -4 1.94246e-13 
3.30191 -4 -9.2318e-13 
3.56908 -4 1.62131e-13 
3.87921 -4 9.88447e-13 
4.18818 -4 -5.721e-14 
4.49288 -4 -8.18852e-14 
4.79855 -4 1.89825e-14 
5.09999 -4 -3.21961e-13 
5.39936 -4 -1.61797e-13 
5.70545 -4 1.15373e-13 
5.99414 -4 6.99937e-14 
6.2854 -4 5.92272e-14 
6.5675 -4 2.90705e-14 
6.87191 -4 -4.39876e-14 
7.16461 -4 6.01543e-15 
7.46658 -4 4.98458e-15 
7.76555 -4 -1.99025e-14 
8.06908 -4 1.73282e-14 
8.3672 -4 7.97051e-14 
8.66865 -4 5.61458e-14 
8.95628 -4 6.96457e-15 
9.29634 -4 4.88455e-15 
9.62458 -4 4.6537e-15 
9.92801 -4 1.47908e-14 
10.3002 -4 1.17364e-14 
10.6239 -4 8.37265e-15 
10.9973 -4 1.04261e-14 
11.3234 -4 2.3204e-16 
11.6078 -4 -9.08579e-15 
12 -4 -5.18919e-15 
-12 -3.66125 -1.60452e-15 
-11.6792 -3.67753 -1.2537e-18 
-11.3467 -3.64948 -7.77088e-19 
-11.0267 -3.67 1.04156e-18 
-10.6981 -3.65871 3.6039e-19 
-10.3723 -3.673 1.16218e-18 
-10.0427 -3.65366 3.25366e-19 
-9.7304 -3.68464 9.13289e-19 
-9.38831 -3.69169 5.98267e-19 
-9.04686 -3.67047 4.6424e-19 
-8.72961 -3.66645 4.69693e-18 
-8.41256 -3.66659 6.11634e-18 
-8.09672 -3.67212 6.71786e-18 
-7.77617 -3.65376 3.55287e-18 
-7.47969 -3.65185 -6.35186e-18 
-7.18935 -3.64497 -5.45394e-18 
-6.86871 -3.68209 1.04917e-18 
-6.564 -3.66319 2.99493e-18 
-6.25332 -3.67462 7.79829e-18 
-5.94166 -3.67618 1.41379e-17 
-5.64001 -3.66733 1.9952e-18 
-5.33939 -3.66793 -2.34749e-17 
-5.04514 -3.66103 -1.22586e-17 
-4.7211 -3.70727 -9.95019e-18 
-4.38384 -3.69332 -5.83404e-18 
-4.07926 -3.65362 2.15395e-17 
-3.75193 -3.71366 6.43875e-17 
-3.40565 -3.69456 1.56713e-17 
-3.09505 -3.68132 2.59884e-18 
-2.81804 -3.70156 4.47156e-17 
-2.66691 -3.44007 -9.62702e-18 
-2.54125 -3.71712 8.26196e-20 
-2.33924 -3.62443 -5.33243e-17 
-2.14525 -3.6345 -1.09565e-16 
-1.95681 -3.64385 -3.6812e-20 
-1.76977 -3.60003 -6.45831e-20 
-1.56451 -3.55743 2.67945e-20 
-1.30471 -3.64065 2.65904e-18 
-0.834383 -3.67881 2.5472e-17 
-0.213271 -3.67689 1.1768e-10 
0.534489 -3.66619 -4.48843e-11 
1.21918 -3.66595 -4.47392e-18 
1.56706 -3.63004 -7.07292e-19 
1.81247 -3.42146 1.35555e-16 
1.86535 -3.71998 -2.83553e-18 
2.12646 -3.65071 -1.51303e-16 
2.34616 -3.66839 -2.73865e-17 
2.57356 -3.67347 1.42557e-16 
2.81953 -3.67419 1.34459e-17 
3.0615 -3.6421 1.85813e-17 
3.33193 -3.6656 5.22792e-17 
3.63051 -3.69725 -4.74511e-17 
3.93737 -3.68665 -9.68553e-17 
4.239 -3.67554 1.64184e-17 
4.54524 -3.67805 9.72923e-18 
4.84801 -3.67282 3.48785e-18 
5.14799 -3.66862 3.07541e-17 
5.45455 -3.67675 1.08278e-17 
5.74773 -3.65841 -1.06438e-17 
6.04202 -3.66172 -6.1345e-18 
6.3305 -3.65015 -4.36633e-18 
6.63245 -3.67433 -1.48685e-18 
6.93077 -3.65981 3.86064e-18 
7.23315 -3.66751 -8.5754e-19 
7.53545 -3.66239 4.08231e-20 
7.83788 -3.66726 1.21698e-18 
8.1389 -3.65795 -3.20141e-18 
8.44322 -3.66088 -7.92714e-18 
8.73871 -3.64188 -3.42985e-18 
9.06164 -3.69514 -1.06962e-18 
9.39234 -3.67963 -5.23005e-19 
9.70431 -3.65008 -7.79223e-19 
10.0496 -3.71094 -2.20271e-18 
10.3857 -3.66554 -1.271e-18 
10.7419 -3.70752 -1.33043e-18 
11.0769 -3.66359 -9.13872e-19 
11.3734 -3.61459 9.16513e-20 
11.7148 -3.71994 1.07663e-18 
12 -3.62082 4.54031e-15 
-12 -3.33887 4.70942e-15 
-11.6666 -3.34273 -7.04161e-19 
-11.3383 -3.30841 -2.74502e-20 
-11.0131 -3.32867 -1.66295e-19 
-10.681 -3.32379 7.82254e-21 
-10.3527 -3.33993 -3.5657e-20 
-10.0252 -3.32142 5.35725e-20 
-9.70231 -3.34136 -1.40614e-20 
-9.39632 -3.37988 -2.80319e-20 
-9.08676 -3.33391 2.92001e-20 
-8.77717 -3.33137 1.4706e-20 
-8.46621 -3.33584 -3.56669e-19 
-8.1517 -3.33728 -2.88954e-21 
-7.84351 -3.33541 4.52411e-20 
-7.52932 -3.30975 -2.53084e-19 
-7.23 -3.29381 3.23506e-19 
-6.93282 -3.3544 -1.31991e-19 
-6.6284 -3.33313 5.81973e-20 
-6.32259 -3.34727 2.91825e-20 
-6.01702 -3.35375 1.61204e-19 
-5.71469 -3.33843 1.91313e-19 
-5.41714 -3.33903 1.33601e-19 
-5.12227 -3.32678 7.24295e-19 
-4.81809 -3.38605 -3.60812e-19 
-4.509 -3.40282 -3.38839e-19 
-4.19728 -3.33335 3.25047e-19 
-3.86793 -3.38561 -9.39064e-19 
-3.5597 -3.41676 7.37986e-19 
-3.23236 -3.38051 3.41444e-19 
-2.94683 -3.37121 -7.00253e-18 
-2.6893 -3.15595 -4.42187e-18 
-2.41761 -3.33524 -2.00998e-18 
-2.18369 -3.26743 3.11551e-18 
-1.98705 -3.27462 -2.78525e-18 
-1.80005 -3.19495 6.28826e-19 
-1.55119 -3.17366 -1.89756e-19 
-1.25737 -3.27467 -5.10948e-19 
-0.860801 -3.01178 6.9253e-19 
-0.869487 -3.35807 8.095e-20 
-0.262814 -3.25882 -2.35882e-11 
0.402102 -3.2821 3.00403e-11 
1.0061 -3.37844 3.99458e-17 
1.45418 -3.28755 -1.36234e-17 
1.68548 -3.09685 1.71312e-18 
1.91965 -3.03132 2.70882e-17 
2.0404 -3.32807 3.35326e-17 
2.27159 -3.32596 4.91037e-17 
2.49169 -3.34851 -3.54869e-18 
2.72034 -3.35953 -1.97034e-18 
2.96904 -3.30875 1.10701e-17 
3.24601 -3.33386 5.69083e-18 
3.53873 -3.37547 1.91269e-18 
3.83807 -3.37855 6.53896e-18 
4.15129 -3.35481 5.1306e-18 
4.46539 -3.35738 2.82713e-18 
4.77625 -3.34886 -4.19647e-19 
5.08478 -3.34199 -1.98533e-18 
5.3948 -3.35438 -1.09413e-18 
5.70221 -3.32562 1.06263e-19 
6.00363 -3.32782 -1.86954e-19 
6.30307 -3.31096 3.69729e-19 
6.60447 -3.34361 -1.19115e-19 
6.90797 -3.32773 6.73317e-19 
7.21452 -3.33574 8.72991e-21 
7.52189 -3.32934 5.08379e-20 
7.82891 -3.32927 3.66328e-20 
8.13633 -3.32192 -4.507e-20 
8.43847 -3.31573 -2.92409e-22 
8.75879 -3.31702 -2.55877e-20 
9.07842 -3.37634 8.71249e-21 
9.3935 -3.34242 5.60718e-22 
9.70968 -3.30887 -2.28416e-20 
10.0195 -3.39387 2.05165e-20 
10.3204 -3.3198 -8.1602e-21 
10.6463 -3.38935 7.52938e-21 
10.9759 -3.34747 -1.05295e-18 
11.2948 -3.26318 -5.9408e-19 
11.6344 -3.37051 3.43637e-19 
12 -3.32299 -8.56605e-15 
-12 -3.0108 -5.03172e-15 
-11.6584 -3.01427 3.21901e-19 
-11.3176 -2.97257 2.7476e-20 
-10.9768 -3.00141 2.36592e-19 
-10.6392 -2.99412 -9.54833e-19 
-10.3109 -3.00614 3.76051e-20 
-9.98292 -2.98973 -7.67632e-20 
-9.66688 -3.00076 3.55765e-20 
-9.35938 -3.03403 3.28125e-20 
-9.04899 -2.99229 -2.36261e-20 
-8.7371 -2.99504 1.86893e-22 
-8.42401 -3.00575 2.24052e-19 
-8.11375 -3.0024 6.64204e-19 
-7.80413 -3.00417 -9.54705e-19 
-7.49843 -2.97277 -9.90697e-20 
-7.19176 -2.96087 6.00421e-20 
-6.89544 -3.02015 3.56094e-20 
-6.58741 -3.00623 -2.90841e-20 
-6.28398 -3.02178 -1.86738e-19 
-5.98432 -3.02473 -3.36757e-20 
-5.68664 -3.00759 2.67391e-20 
-5.39296 -3.00633 1.43615e-19 
-5.09298 -2.99985 -2.52372e-19 
-4.79937 -3.0656 -1.55223e-19 
-4.49339 -3.08205 1.62709e-19 
-4.20411 -2.98493 -8.29409e-19 
-3.91362 -3.07584 -2.90012e-19 
-3.59029 -3.09101 6.87881e-19 
-3.28989 -3.09783 1.9318e-18 
-2.9652 -3.04764 -1.10548e-18 
-2.72937 -2.84479 -6.68132e-18 
-2.45575 -3.01046 -1.65689e-18 
-2.26414 -2.90836 -1.20356e-18 
-2.05623 -2.89987 6.19374e-18 
-1.85452 -2.81878 8.96139e-18 
-1.62056 -2.81361 -1.63079e-18 
-1.27447 -2.90584 1.88417e-18 
-0.830399 -2.61859 1.70344e-17 
-0.280437 -2.82146 -6.10999e-11 
0.41356 -2.38773 1.02737e-10 
0.422135 -2.8488 5.92223e-11 
1.01847 -2.59442 -2.12862e-17 
0.990672 -3.01948 -4.97964e-17 
1.36792 -2.89533 -2.50072e-17 
1.64243 -2.73599 1.4715e-17 
1.95354 -2.75296 9.30771e-18 
2.17691 -3.00775 2.0389e-17 
2.4141 -3.01451 4.90546e-18 
2.63795 -3.01589 -7.20984e-18 
2.86945 -3.01249 -5.02899e-18 
3.17468 -3.0237 -1.33251e-18 
3.48783 -3.05851 -3.67513e-19 
3.80113 -3.0565 4.29182e-18 
4.11169 -3.04351 4.60891e-18 
4.44018 -3.04073 -6.53807e-20 
4.76085 -3.02805 -1.53805e-18 
5.07345 -3.01774 -1.12993e-18 
5.38132 -3.03196 2.05932e-19 
5.68712 -3.00277 -5.54304e-19 
5.99373 -2.99735 2.46606e-19 
6.29488 -2.98066 -2.08007e-19 
6.59568 -3.01292 1.03052e-21 
6.90315 -3.00104 2.82701e-20 
7.20912 -3.0067 9.26823e-20 
7.51445 -2.9997 1.7944e-19 
7.82453 -2.9968 -8.2871e-20 
8.12666 -2.98405 6.2453e-20 
8.43316 -2.97606 2.09108e-20 
8.73964 -2.98888 1.92572e-20 
9.06177 -3.04409 5.74485e-21 
9.37922 -3.01005 -6.01453e-22 
9.68472 -2.96696 -2.63501e-22 
10.0071 -3.03997 5.93155e-22 
10.3336 -2.9842 1.58515e-20 
10.6558 -3.0566 4.12092e-21 
10.9785 -3.00442 -1.91779e-19 
11.3284 -2.94502 -5.24526e-20 
11.6605 -3.05988 1.54606e-19 
12 -3.00055 -5.95065e-16 
-12 -2.69085 -4.68886e-15 
-11.6604 -2.6914 2.44155e-19 
-11.3349 -2.63614 -2.45366e-20 
-10.9974 -2.67637 8.61659e-19 
-10.6567 -2.66837 -6.03053e-19 
-10.3196 -2.67347 -9.28449e-19 
-9.98933 -2.66308 1.1638e-18 
-9.65904 -2.66466 -3.22166e-21 
-9.3406 -2.69015 -2.00203e-20 
-9.02019 -2.65979 -4.40434e-19 
-8.70295 -2.66539 6.3113e-19 
-8.38958 -2.67509 -1.7706e-19 
-8.07494 -2.67339 1.1715e-19 
-7.7675 -2.66899 -8.69281e-19 
-7.45473 -2.6447 -1.10114e-18 
-7.14122 -2.64005 -8.44792e-20 
-6.83962 -2.69353 1.72896e-20 
-6.53118 -2.68224 5.64755e-19 
-6.23323 -2.6939 1.9227e-19 
-5.93833 -2.69357 -1.08129e-19 
-5.64265 -2.67607 -2.3373e-20 
[...]
POINT_DATA 1978 
VECTORS vectors float
-9.42035e-07 -1.89117e-05 1 
4.89219e-06 -2.33706e-05 1 
2.80381e-06 -2.6408e-05 1 
4.73682e-06 -2.88161e-05 1 
3.43013e-06 -3.32599e-05 1 
5.8026e-07 -4.18856e-05 1 
-1.774e-06 -5.36807e-05 1 
-4.58394e-06 -6.57446e-05 1 
-6.25018e-06 -6.94067e-05 1 
-7.61271e-06 -6.55785e-05 1 
-9.63185e-06 -6.80948e-05 1 
-1.02958e-05 -8.24997e-05 1 
-9.9751e-06 -0.000102543 1 
-9.73463e-06 -0.000121006 1 
-1.11874e-05 -0.000139867 1 
-1.52498e-05 -0.000162608 1 
-1.92361e-05 -0.000196431 1 
-2.68859e-05 -0.000250588 1 
-3.13465e-05 -0.000303179 1 
-2.92158e-05 -0.000304855 1 
-1.82216e-05 -0.000202987 1 
-1.35069e-05 -3.56849e-05 1 
-2.92129e-05 0.000115732 1 
-2.30281e-05 0.000210459 1 
3.92924e-05 0.000375997 1 
3.26345e-05 0.000469481 1 
-2.37645e-05 0.000147567 1 
3.23726e-05 -0.000149904 1 
6.64779e-05 0.00053359 1 
2.28474e-05 0.00123211 0.999999 
-6.35991e-06 0.00143882 0.999999 
-5.48685e-05 0.000897138 1 
-5.45539e-05 0.000443554 1 
-1.34816e-05 0.000320613 1 
-2.97768e-05 0.000422698 1 
-5.28386e-05 0.000379711 1 
7.12419e-06 8.75372e-05 1 
0.000385836 -0.000449789 1 
0.00126091 -0.000742443 0.999999 
0.00127598 -0.000664215 0.999999 
-0.00163511 -0.00300157 -0.999994 
-0.00129798 -0.00076075 -0.999999 
-4.48338e-05 0.00143297 -0.999999 
6.45075e-05 0.00350652 -0.999994 
-0.000274656 0.00384119 -0.999993 
-0.000444877 0.00255039 -0.999997 
-0.000385153 0.00102673 -0.999999 
-0.000224279 -0.00020284 -1 
1.27529e-05 -0.000305422 -1 
0.00011074 0.000359366 -1 
4.09239e-05 0.0011705 -0.999999 
-8.96805e-06 0.00162519 -0.999999 
1.40282e-05 0.00148624 -0.999999 
3.80796e-05 0.0010312 -0.999999 
3.84121e-05 0.000560862 -1 
3.95312e-05 0.000179313 -1 
3.84464e-05 -0.000111165 -1 
3.32346e-05 -0.000315775 -1 
2.72746e-05 -0.000418987 -1 
2.32457e-05 -0.000431223 -1 
2.15463e-05 -0.00037933 -1 
1.97375e-05 -0.000301568 -1 
1.74737e-05 -0.000229732 -1 
1.66858e-05 -0.000190743 -1 
1.68486e-05 -0.000164892 -1 
1.34499e-05 -0.000139076 -1 
9.9756e-06 -0.000109543 -1 
8.30207e-06 -8.08181e-05 -1 
7.45478e-06 -6.3225e-05 -1 
7.56599e-06 -6.24963e-05 -1 
7.64639e-06 -6.96622e-05 -1 
5.5513e-06 -6.66763e-05 -1 
3.11743e-06 -5.63378e-05 -1 
2.2936e-07 -4.40915e-05 -1 
-2.56099e-06 -3.69751e-05 -1 
-3.85627e-06 -3.13561e-05 -1 
-1.74949e-06 -2.80434e-05 -1 
-3.11658e-06 -2.51749e-05 -1 
5.26165e-07 -1.9398e-05 -1 
-2.80003e-05 -2.59029e-05 1 
-1.92724e-05 -2.89348e-05 1 
-1.69e-05 -2.86727e-05 1 
-1.59345e-05 -2.96203e-05 1 
-1.54823e-05 -3.41456e-05 1 
-1.22419e-05 -4.34547e-05 1 
-6.43457e-06 -5.66932e-05 1 
3.41753e-06 -6.79633e-05 1 
1.5632e-05 -7.46866e-05 1 
2.83846e-05 -7.58322e-05 1 
3.87443e-05 -7.8967e-05 1 
4.72512e-05 -8.86811e-05 1 
5.48476e-05 -0.000105131 1 
6.50631e-05 -0.000128644 1 
8.0037e-05 -0.000160061 1 
0.000106538 -0.000200295 1 
0.000149567 -0.000245346 1 
0.000218496 -0.000292063 1 
0.000273846 -0.000303247 1 
0.000305086 -0.000248493 1 
0.00031111 -0.000121898 1 
0.000287945 3.88504e-05 1 
0.000249054 0.000187246 1 
0.00015897 0.000307967 1 
8.00964e-05 0.000416654 1 
-2.78614e-05 0.000397339 1 
-0.000252383 0.000208423 1 
-0.000597578 0.000275235 1 
-0.000675621 0.0005803 1 
-0.000448838 0.000749503 1 
-0.000566342 0.000207809 1 
-0.000170312 0.000501002 1 
-0.000118367 0.000124529 1 
6.04175e-05 -4.16941e-05 1 
0.000285455 -0.000119551 1 
0.00046985 -0.000264798 1 
0.000591654 -0.000393802 1 
0.000584908 -0.000458078 1 
0.000446058 -0.0006334 1 
0.000349629 -0.000535304 1 
8.35414e-05 -0.00273651 -0.999996 
-0.000247062 -0.000862013 -1 
0.000348113 0.000871965 -1 
0.00116934 0.000559553 -0.999999 
0.000954336 0.00212794 -0.999997 
0.00169164 0.00144912 -0.999998 
0.00189593 0.000904478 -0.999998 
0.00157769 0.000476968 -0.999999 
0.00099863 0.000504271 -0.999999 
0.000478557 0.000869953 -1 
3.00359e-05 0.00128115 -0.999999 
-0.000262561 0.00151443 -0.999999 
-0.000457214 0.00135215 -0.999999 
-0.000543853 0.000961002 -0.999999 
-0.000561717 0.000526998 -1 
-0.000558769 0.000164581 -1 
-0.000515991 -0.000111969 -1 
-0.000432562 -0.000310751 -1 
-0.000356604 -0.000410613 -1 
-0.000279522 -0.000427095 -1 
-0.000222187 -0.000384227 -1 
-0.000163945 -0.000313302 -1 
-0.000122228 -0.000252373 -1 
-9.23739e-05 -0.000205167 -1 
-7.91137e-05 -0.000169455 -1 
-7.10953e-05 -0.000138428 -1 
-6.30007e-05 -0.000110194 -1 
-5.39281e-05 -8.82048e-05 -1 
-4.60891e-05 -7.74764e-05 -1 
-3.33288e-05 -7.41036e-05 -1 
-2.28318e-05 -7.52611e-05 -1 
-1.13275e-05 -7.06539e-05 -1 
4.27664e-07 -5.77601e-05 -1 
8.81592e-06 -4.56795e-05 -1 
1.18456e-05 -3.58252e-05 -1 
1.42942e-05 -3.10413e-05 -1 
1.61332e-05 -2.99401e-05 -1 
1.62967e-05 -2.82084e-05 -1 
2.49589e-05 -2.54881e-05 -1 
-2.90454e-05 -3.59964e-05 1 
-2.30441e-05 -3.50266e-05 1 
-2.14758e-05 -3.22128e-05 1 
-2.20159e-05 -3.1444e-05 1 
-2.22041e-05 -3.66704e-05 1 
-1.87955e-05 -4.8073e-05 1 
-1.09118e-05 -6.39823e-05 1 
2.74647e-06 -7.65619e-05 1 
1.8759e-05 -8.34861e-05 1 
3.47958e-05 -8.85858e-05 1 
4.76504e-05 -9.09034e-05 1 
5.67129e-05 -9.59985e-05 1 
6.3789e-05 -0.00010851 1 
7.15396e-05 -0.000131905 1 
8.44784e-05 -0.000172142 1 
0.00011219 -0.000227494 1 
0.000165051 -0.000282576 1 
0.000237663 -0.000331613 1 
0.000316514 -0.000330979 1 
0.000379109 -0.00026016 1 
0.000411332 -0.000122171 1 
0.000405169 4.78995e-05 1 
0.000364022 0.000214802 1 
0.000284674 0.000342235 1 
0.000181586 0.000429487 1 
4.4529e-05 0.000458816 1 
-0.000204018 0.000392426 1 
-0.000519803 0.000293646 1 
-0.000786938 0.000260633 1 
-0.000814726 0.000253189 1 
-0.000839226 -0.000148599 1 
-0.000472502 -0.000169927 1 
-0.000277305 -0.000410072 1 
-3.61622e-05 -0.000534433 1 
7.36263e-05 -0.000723736 1 
0.000223729 -0.000824832 1 
0.000483975 -0.000744856 1 
0.000430847 -0.000761833 1 
0.000565665 -0.000660208 1 
0.000412771 -0.000400016 1 
0.000314421 -0.00243743 -0.999997 
5.16956e-05 -0.00132554 -0.999999 
0.000625871 -0.00077358 -1 
0.0011648 -0.000566233 -0.999999 
0.0016029 -0.000541793 -0.999999 
0.0016174 0.000215242 -0.999999 
0.00182751 0.000387242 -0.999998 
0.00175551 0.000494058 -0.999998 
0.00133855 0.000633394 -0.999999 
0.000735886 0.000894524 -0.999999 
0.000123269 0.00120887 -0.999999 
-0.000343266 0.00143578 -0.999999 
-0.000656476 0.00140646 -0.999999 
-0.000833548 0.00109738 -0.999999 
-0.000882427 0.000661991 -0.999999 
-0.000851987 0.000258872 -1 
-0.000743486 -5.13464e-05 -1 
-0.000593009 -0.000276486 -1 
-0.000443893 -0.00040642 -1 
-0.000327863 -0.000443817 -1 
-0.000238516 -0.000407234 -1 
-0.000177522 -0.000344447 -1 
-0.000128325 -0.000282207 -1 
-9.89696e-05 -0.000228931 -1 
-8.36393e-05 -0.000183302 -1 
-7.63631e-05 -0.000146607 -1 
-6.99366e-05 -0.000118973 -1 
-6.30879e-05 -0.000100872 -1 
-5.45261e-05 -9.13861e-05 -1 
-4.27514e-05 -8.63996e-05 -1 
-2.82337e-05 -8.61433e-05 -1 
-1.14408e-05 -8.08481e-05 -1 
2.40753e-06 -6.66078e-05 -1 
1.26957e-05 -5.40595e-05 -1 
1.75534e-05 -4.02131e-05 -1 
1.96075e-05 -3.34367e-05 -1 
2.00267e-05 -3.2694e-05 -1 
2.09819e-05 -3.37383e-05 -1 
2.69287e-05 -3.43851e-05 -1 
-2.39183e-05 -4.29866e-05 1 
-2.03752e-05 -4.00804e-05 1 
-2.05982e-05 -3.51974e-05 1 
-2.34171e-05 -3.42452e-05 1 
-2.43823e-05 -4.10796e-05 1 
-2.08592e-05 -5.52263e-05 1 
-1.17296e-05 -7.25591e-05 1 
2.28105e-06 -8.64212e-05 1 
1.88375e-05 -9.36422e-05 1 
3.44615e-05 -9.90042e-05 1 
4.64082e-05 -0.000101429 1 
5.34637e-05 -0.000105428 1 
5.72142e-05 -0.00011736 1 
6.24966e-05 -0.000143476 1 
7.38372e-05 -0.000190824 1 
0.000100113 -0.000258139 1 
0.000150706 -0.000321824 1 
0.000217763 -0.000367967 1 
0.000295189 -0.000348716 1 
0.000359228 -0.000250206 1 
0.000392324 -8.71974e-05 1 
0.000393568 0.000102652 1 
0.000362853 0.000283939 1 
0.000311123 0.000398705 1 
0.000219751 0.000460379 1 
0.000102573 0.000480796 1 
-0.000116344 0.000439817 1 
-0.00042932 0.000288768 1 
-0.000733956 0.000131976 1 
-0.00090223 -1.97277e-06 1 
-0.000992441 -0.000298081 0.999999 
-0.000853704 -0.000538735 0.999999 
-0.000738105 -0.000808784 0.999999 
-0.000532264 -0.000953731 0.999999 
-0.000393609 -0.001092 0.999999 
-0.000168719 -0.00111924 0.999999 
0.000195107 -0.000990938 0.999999 
4.90915e-05 -0.000902112 1 
0.00035072 -0.000426673 1 
0.00156318 -0.00197063 -0.999997 
0.000772621 -0.00224246 -0.999997 
0.00164375 -0.00190628 -0.999997 
0.000686827 -0.00184222 -0.999998 
0.00129522 -0.00143005 -0.999998 
0.00176922 -0.00113864 -0.999998 
0.00190311 -0.000712977 -0.999998 
0.00175191 -0.000254177 -0.999998 
0.0016543 9.37015e-05 -0.999999 
0.00132809 0.00042518 -0.999999 
0.000811155 0.000757638 -0.999999 
0.000126203 0.00111015 -0.999999 
-0.000463462 0.00133372 -0.999999 
-0.000832227 0.00132815 -0.999999 
-0.00101272 0.00107105 -0.999999 
-0.0010408 0.000651454 -0.999999 
-0.00095863 0.000256442 -1 
-0.000787366 -4.72869e-05 -1 
-0.000584125 -0.000268521 -1 
-0.000407254 -0.000408467 -1 
-0.000275311 -0.000448261 -1 
-0.000183854 -0.000419801 -1 
-0.000130705 -0.000358015 -1 
-9.34913e-05 -0.00029887 -1 
-7.45361e-05 -0.000241817 -1 
-6.52913e-05 -0.000192221 -1 
-6.13751e-05 -0.000152259 -1 
-5.91714e-05 -0.000127537 -1 
-5.56625e-05 -0.000111588 -1 
-5.02221e-05 -0.00010319 -1 
-4.14041e-05 -9.81475e-05 -1 
-2.68878e-05 -9.64192e-05 -1 
-1.05653e-05 -9.09678e-05 -1 
4.43134e-06 -7.54908e-05 -1 
1.52094e-05 -5.88382e-05 -1 
2.01402e-05 -4.28983e-05 -1 
2.11783e-05 -3.58091e-05 -1 
1.93056e-05 -3.60535e-05 -1 
2.02076e-05 -3.89691e-05 -1 
2.34425e-05 -4.18426e-05 -1 
-1.60127e-05 -4.80309e-05 1 
-1.47039e-05 -4.41263e-05 1 
-1.68583e-05 -3.87183e-05 1 
-2.19369e-05 -3.71886e-05 1 
-2.42095e-05 -4.44209e-05 1 
-2.11706e-05 -5.98895e-05 1 
-1.24194e-05 -7.88405e-05 1 
2.06209e-06 -9.30039e-05 1 
1.89095e-05 -0.000100597 1 
3.46967e-05 -0.000106465 1 
4.50901e-05 -0.000108931 1 
4.94017e-05 -0.000112163 1 
5.00537e-05 -0.000123953 1 
5.25854e-05 -0.000152321 1 
6.27452e-05 -0.000205236 1 
8.78582e-05 -0.000280465 1 
0.000133239 -0.000347553 1 
0.000193639 -0.000387246 1 
0.000261169 -0.000352139 1 
0.000313858 -0.000234324 1 
0.000340057 -4.98978e-05 1 
0.000346581 0.000160627 1 
0.000331402 0.000346256 1 
0.000297616 0.000442858 1 
0.000235083 0.000477425 1 
8.36692e-05 0.000467271 1 
-0.000156636 0.00039376 1 
-0.000479909 0.000161874 1 
-0.000811927 -6.52762e-05 1 
-0.000974184 -0.000257324 0.999999 
-0.0010517 -0.000596136 0.999999 
-0.00101756 -0.000898022 0.999999 
-0.000898045 -0.00113572 0.999999 
-0.000784076 -0.00125365 0.999999 
-0.000672331 -0.00131201 0.999999 
-0.00117548 -0.00143305 0.999998 
-0.000225113 -0.00119257 0.999999 
-0.000601278 -0.00126329 0.999999 
-8.67657e-06 -0.000746553 1 
-0.000653516 -0.00218846 0.999997 
0.002579 -0.00167027 -0.999995 
0.00263001 -0.00193665 -0.999995 
0.00221673 -0.00156696 -0.999996 
0.00246557 -0.00119829 -0.999996 
0.0021819 -0.000827284 -0.999997 
0.00203815 -0.000429207 -0.999998 
0.00178774 -0.000321684 -0.999998 
0.00149624 6.35539e-05 -0.999999 
0.00102916 0.000448274 -0.999999 
0.000373802 0.000872927 -1 
-0.000320303 0.00113893 -0.999999 
-0.000800565 0.00122014 -0.999999 
-0.00107215 0.0011318 -0.999999 
-0.00116024 0.00086107 -0.999999 
-0.00109819 0.000490221 -0.999999 
-0.000916674 0.000150732 -1 
-0.00067566 -0.000113822 -1 
-0.000465827 -0.000299128 -1 
-0.000296619 -0.000413506 -1 
-0.000185677 -0.000439887 -1 
-0.000110953 -0.000404409 -1 
-7.47768e-05 -0.000347766 -1 
-5.46825e-05 -0.000289695 -1 
-4.8556e-05 -0.000236297 -1 
-4.73913e-05 -0.000187561 -1 
-4.8053e-05 -0.000152407 -1 
-4.96228e-05 -0.000129523 -1 
-4.95207e-05 -0.000118175 -1 
-4.68927e-05 -0.000114154 -1 
-3.98095e-05 -0.000108651 -1 
-2.75934e-05 -0.000106454 -1 
-1.12017e-05 -9.98192e-05 -1 
4.43875e-06 -8.36988e-05 -1 
1.51851e-05 -6.53679e-05 -1 
2.04668e-05 -4.69571e-05 -1 
2.00683e-05 -3.85771e-05 -1 
1.5738e-05 -3.93859e-05 -1 
1.53596e-05 -4.40701e-05 -1 
1.49745e-05 -4.90393e-05 -1 
-7.77898e-08 -5.17802e-05 1 
-5.56116e-06 -4.86232e-05 1 
-9.60489e-06 -4.20429e-05 1 
-1.77738e-05 -4.01308e-05 1 
-2.26881e-05 -4.5992e-05 1 
-2.19406e-05 -6.0784e-05 1 
-1.45854e-05 -7.99724e-05 1 
-1.55053e-06 -9.579e-05 1 
1.57223e-05 -0.000105627 1 
3.19623e-05 -0.000111143 1 
4.43053e-05 -0.000113415 1 
4.87512e-05 -0.000113036 1 
4.73794e-05 -0.000117782 1 
4.49728e-05 -0.000137869 1 
4.80893e-05 -0.000179534 1 
6.30608e-05 -0.000245845 1 
9.45922e-05 -0.00032496 1 
0.00013834 -0.000380628 1 
0.000193398 -0.000384383 1 
0.000241826 -0.000307687 1 
0.000273711 -0.000154504 1 
0.000292527 5.59241e-05 1 
0.000299367 0.000264367 1 
0.00029383 0.000421945 1 
0.000274724 0.000478755 1 
0.000211172 0.00047628 1 
2.31924e-05 0.000432147 1 
-0.000234056 0.000299346 1 
-0.000595298 -8.1636e-08 1 
-0.000835571 -0.0001655 1 
-0.00107021 -0.000416395 0.999999 
-0.00118843 -0.000745729 0.999999 
-0.00120881 -0.00101462 0.999999 
-0.00126005 -0.00112101 0.999999 
-0.00135901 -0.00124229 0.999998 
-0.0021423 -0.00159911 0.999996 
-0.00165105 -0.00180107 0.999997 
-0.00202671 -0.00300379 0.999993 
-0.000779875 -0.00128711 0.999999 
-0.00179394 -0.00567276 0.999982 
0.00386567 -0.00186174 -0.999991 
0.00408684 -0.00214551 -0.999989 
0.00340212 -0.00192547 -0.999992 
0.00316232 -0.00146744 -0.999994 
0.00371396 -0.00138793 -0.999992 
0.00261652 -0.000785073 -0.999996 
0.00230353 -0.000203782 -0.999997 
0.00163947 4.35548e-05 -0.999999 
0.00119273 0.000398913 -0.999999 
0.00055199 0.000722865 -1 
-0.000152348 0.000981404 -1 
-0.000742541 0.00106571 -0.999999 
-0.00109217 0.00100715 -0.999999 
-0.00122337 0.000832385 -0.999999 
-0.00115388 0.000528358 -0.999999 
-0.000936302 0.00020864 -1 
-0.000658898 -5.355e-05 -1 
-0.000416982 -0.000247114 -1 
-0.00025209 -0.000368784 -1 
-0.000135789 -0.000414027 -1 
-6.90539e-05 -0.000393591 -1 
-3.8787e-05 -0.000343153 -1 
-2.90966e-05 -0.000288225 -1 
-3.05684e-05 -0.000233809 -1 
-3.58455e-05 -0.000189197 -1 
-4.00547e-05 -0.000152934 -1 
-4.43657e-05 -0.000131312 -1 
-4.71202e-05 -0.000121394 -1 
-4.69951e-05 -0.000119901 -1 
-4.11919e-05 -0.00011809 -1 
-2.89423e-05 -0.000115014 -1 
-1.35178e-05 -0.000108684 -1 
2.53297e-06 -9.21498e-05 -1 
1.42966e-05 -7.20177e-05 -1 
1.98141e-05 -5.17675e-05 -1 
1.79372e-05 -4.22022e-05 -1 
1.11155e-05 -4.17168e-05 -1 
7.24996e-06 -4.68122e-05 -1 
2.23913e-06 -5.27394e-05 -1 
1.38482e-05 -4.9026e-05 1 
3.83141e-06 -4.46979e-05 1 
-7.85446e-06 -4.20696e-05 1 
-1.72106e-05 -4.58574e-05 1 
-2.19062e-05 -5.73778e-05 1 
-1.8627e-05 -7.59914e-05 1 
-7.64194e-06 -9.57094e-05 1 
8.36991e-06 -0.000108853 1 
2.64914e-05 -0.00011599 1 
4.21575e-05 -0.000117424 1 
5.12014e-05 -0.000114175 1 
5.10918e-05 -0.000109839 1 
4.57612e-05 -0.000115802 1 
4.20507e-05 -0.000141151 1 
4.69979e-05 -0.000190722 1 
6.51914e-05 -0.000263126 1 
9.35989e-05 -0.000334819 1 
0.000133109 -0.000382415 1 
0.000173424 -0.000365683 1 
0.000206837 -0.00026795 1 
0.00023319 -9.23873e-05 1 
0.000251043 0.000122941 1 
0.000263224 0.000329712 1 
0.000263146 0.000445354 1 
0.000258701 0.000481727 1 
0.00018142 0.000459548 1 
-1.72455e-05 0.000389251 1 
-0.000315491 0.000228462 1 
-0.00058575 0.000102358 1 
-0.000941614 -0.000124526 1 
-0.00118406 -0.000366356 0.999999 
-0.0014993 -0.000587748 0.999999 
-0.00182997 -0.000793497 0.999998 
-0.00220414 -0.00110061 0.999997 
-0.00336935 -0.00187067 0.999993 
-0.00277646 -0.00249856 0.999993 
-0.00356963 -0.00562184 0.999978 
-0.00756831 -0.0107545 0.999914 
-0.00522402 -0.00861398 0.999949 
-0.00477485 -0.0105387 0.999933 
0.00677159 -0.00383998 -0.99997 
0.00958027 -0.00479368 -0.999943 
0.00669602 -0.00332079 -0.999972 
0.00549131 -0.00276287 -0.999981 
0.00457014 -0.00223952 -0.999987 
0.0051506 -0.00237379 -0.999984 
0.00326692 -0.000763498 -0.999994 
0.00198125 0.000187141 -0.999998 
0.00122489 0.000562989 -0.999999 
0.000421706 0.000804833 -1 
-0.000291587 0.000948591 -1 
-0.00080935 0.000910647 -0.999999 
-0.00115712 0.000816532 -0.999999 
-0.00120555 0.00062001 -0.999999 
-0.00102769 0.000341627 -0.999999 
-0.000741471 8.08466e-05 -1 
-0.000467449 -0.000121397 -1 
-0.000263244 -0.00026794 -1 
-0.000133556 -0.000358625 -1 
-5.13243e-05 -0.000378922 -1 
-1.58773e-05 -0.000352371 -1 
-8.00644e-06 -0.000305642 -1 
-1.48578e-05 -0.000254602 -1 
-2.54822e-05 -0.000205007 -1 
-3.33644e-05 -0.000167146 -1 
-3.92697e-05 -0.000136653 -1 
-4.40717e-05 -0.00012153 -1 
-4.85019e-05 -0.00011862 -1 
-4.99e-05 -0.000124267 -1 
-4.35494e-05 -0.00012559 -1 
-3.23534e-05 -0.000125229 -1 
-1.4794e-05 -0.000117181 -1 
2.43541e-06 -9.84286e-05 -1 
1.41308e-05 -7.77711e-05 -1 
1.89108e-05 -5.69278e-05 -1 
1.54929e-05 -4.6421e-05 -1 
5.98654e-06 -4.27445e-05 -1 
-2.03653e-06 -4.63769e-05 -1 
-1.26287e-05 -5.04451e-05 -1 
2.66681e-05 -3.85002e-05 1 
1.27541e-05 -3.98296e-05 1 
-1.85411e-06 -4.1869e-05 1 
-1.34986e-05 -4.94565e-05 1 
-1.97413e-05 -6.34104e-05 1 
-1.73995e-05 -8.31683e-05 1 
-6.53565e-06 -0.000103849 1 
1.05128e-05 -0.00011844 1 
2.96491e-05 -0.000125214 1 
4.64088e-05 -0.000123332 1 
5.63207e-05 -0.000114929 1 
5.71402e-05 -0.000103831 1 
5.11487e-05 -0.000102177 1 
4.57174e-05 -0.000119139 1 
4.74348e-05 -0.000160278 1 
6.02218e-05 -0.000225132 1 
8.29945e-05 -0.000299179 1 
0.000112208 -0.000361006 1 
0.000142763 -0.00036824 1 
0.000168702 -0.000293927 1 
0.000190262 -0.000147799 1 
0.000209073 5.20698e-05 1 
0.000229934 0.00026303 1 
0.000242316 0.00039976 1 
0.000261524 0.000462453 1 
0.000233602 0.000465825 1 
8.24637e-05 0.000440962 1 
-0.000219388 0.000366576 1 
-0.000645275 0.000314411 1 
-0.00104264 0.000184486 0.999999 
-0.0014908 -0.00011992 0.999999 
-0.00236879 -0.000516538 0.999997 
-0.00334604 -0.00128828 0.999994 
-0.0043814 -0.00320922 0.999985 
-0.00531928 -0.00524664 0.999972 
-0.00388465 -0.00409407 0.999984 
-0.00542989 -0.00728704 0.999959 
-0.015105 -0.016716 0.999746 
-0.0129157 -0.0170747 0.999771 
-0.0101731 -0.0177198 0.999791 
0.012872 -0.00699514 -0.999893 
0.0145454 -0.00648943 -0.999873 
0.00955227 -0.00630694 -0.999934 
0.00687482 -0.00354201 -0.99997 
0.00858842 -0.00552346 -0.999948 
0.0065957 -0.00348255 -0.999972 
0.00461884 -0.00189316 -0.999988 
0.0030036 -0.000451566 -0.999995 
0.00216387 3.62525e-05 -0.999998 
0.00107542 0.000598576 -0.999999 
0.000250658 0.000843912 -1 
-0.000363024 0.000862393 -1 
-0.000925403 0.000783342 -0.999999 
-0.00112665 0.000618319 -0.999999 
-0.00100962 0.000373721 -0.999999 
-0.000736668 0.000138375 -1 
-0.000450156 -5.16642e-05 -1 
-0.000231957 -0.000198408 -1 
-9.64513e-05 -0.00029957 -1 
-2.21934e-05 -0.00033732 -1 
4.98486e-06 -0.000330005 -1 
3.67008e-06 -0.000286166 -1 
-1.18375e-05 -0.000239407 -1 
-2.7786e-05 -0.000190833 -1 
-3.80209e-05 -0.000150629 -1 
-4.38325e-05 -0.000122784 -1 
-4.82832e-05 -0.000110056 -1 
-5.25369e-05 -0.000112177 -1 
-5.39615e-05 -0.000123904 -1 
-4.88399e-05 -0.000133986 -1 
-3.59074e-05 -0.000136568 -1 
-1.85808e-05 -0.000129983 -1 
-2.79138e-07 -0.000109634 -1 
1.19241e-05 -8.89229e-05 -1 
1.72327e-05 -6.5122e-05 -1 
1.29732e-05 -5.09329e-05 -1 
1.92554e-06 -4.2498e-05 -1 
-1.02367e-05 -4.19843e-05 -1 
-2.50452e-05 -4.17919e-05 -1 
3.28526e-05 -2.50154e-05 1 
1.58231e-05 -3.12501e-05 1 
1.25223e-06 -4.05089e-05 1 
-1.08525e-05 -5.41396e-05 1 
-1.67197e-05 -7.30198e-05 1 
-1.35769e-05 -9.61132e-05 1 
-1.53097e-06 -0.000118848 1 
1.61013e-05 -0.000133637 1 
3.54222e-05 -0.000136247 1 
5.15758e-05 -0.000128238 1 
6.06545e-05 -0.00011217 1 
6.10183e-05 -9.49042e-05 1 
5.53724e-05 -8.85406e-05 1 
5.00137e-05 -0.000102889 1 
5.16962e-05 -0.000141861 1 
6.23994e-05 -0.000202921 1 
7.95394e-05 -0.000274206 1 
0.000101485 -0.000336155 1 
0.000126299 -0.000352912 1 
0.000142043 -0.000292844 1 
0.000158948 -0.000153329 1 
0.000178365 4.34813e-05 1 
0.000201684 0.00022986 1 
0.000230766 0.000373468 1 
0.000256366 0.000437083 1 
0.000243697 0.000465306 1 
0.000162581 0.00050976 1 
-3.46033e-05 0.000549979 1 
-0.000397324 0.00060793 1 
-0.000970657 0.00065449 0.999999 
-0.00159084 0.000381582 0.999999 
-0.00238597 -0.000145401 0.999997 
-0.00376153 -0.0013582 0.999992 
-0.00467549 -0.00299432 0.999985 
-0.00616379 -0.00645524 0.99996 