# vtk DataFile Version 3.0 
Exported using Morpho https://github.com/Morpho-lang/morpho 
ASCII 
DATASET UNSTRUCTURED_GRID 

POINTS 1978 float 
-12 -4 1.95903e-18 
-11.6518 -4 9.59624e-18 
-11.3283 -4 -2.42903e-18 
-10.9857 -4 -9.82297e-18 
-10.6607 -4 -1.45001e-18 
-10.323 -4 -1.11808e-17 
-10.0109 -4 -1.11315e-18 
-9.67349 -4 -8.84878e-18 
-9.32843 -4 -2.58551e-18 
-9.00907 -4 -3.75408e-18 
-8.69621 -4 -5.30276e-17 
-8.38527 -4 -5.56511e-17 
-8.06989 -4 -7.35776e-17 
-7.76354 -4 -1.09061e-17 
-7.47732 -4 4.79419e-17 
-7.19458 -4 5.11319e-17 
-6.91242 -4 -6.66129e-20 
-6.59719 -4 -2.9595e-17 
-6.30124 -4 -6.61779e-17 
-5.99762 -4 -1.52036e-16 
-5.69496 -4 -7.32965e-17 
-5.40234 -4 2.51358e-16 
-5.1119 -4 1.52304e-16 
-4.82988 -4 2.32416e-17 
-4.50499 -4 1.74911e-16 
-4.19011 -4 -9.96756e-17 
-3.91291 -4 -8.85941e-16 
-3.58986 -4 -2.42119e-16 
-3.29174 -4 4.52716e-16 
-3.03088 -4 8.31127e-17 
-2.77794 -4 -6.79192e-16 
-2.54708 -4 3.05828e-15 
-2.32163 -4 6.45581e-16 
-2.14061 -4 3.49374e-15 
-1.96102 -4 4.50118e-15 
-1.77072 -4 5.36824e-15 
-1.57756 -4 -4.79808e-14 
-1.27748 -4 1.08558e-13 
-0.937519 -4 1.11056e-14 
-0.375912 -4 6.84388e-14 
0.593017 -4 3.29506e-14 
1.18792 -4 -1.34465e-14 
1.49457 -4 -6.26109e-16 
1.72569 -4 -5.82724e-15 
1.96584 -4 -3.63572e-15 
2.16524 -4 -5.40952e-16 
2.37131 -4 -1.36405e-15 
2.58599 -4 -1.70437e-15 
2.81343 -4 -3.76339e-16 
3.05938 -4 1.96793e-16 
3.30191 -4 -9.35283e-16 
3.56908 -4 1.64263e-16 
3.87921 -4 1.00139e-15 
4.18818 -4 -5.79936e-17 
4.49288 -4 -8.29811e-17 
4.79855 -4 1.92234e-17 
5.09999 -4 -3.26184e-16 
5.39936 -4 -1.63918e-16 
5.70545 -4 1.16886e-16 
5.99414 -4 7.09108e-17 
6.2854 -4 6.0003e-17 
6.5675 -4 2.94511e-17 
6.87191 -4 -4.45647e-17 
7.16461 -4 6.0942e-18 
7.46658 -4 5.04988e-18 
7.76555 -4 -2.01635e-17 
8.06908 -4 1.75554e-17 
8.3672 -4 8.07503e-17 
8.66865 -4 5.68821e-17 
8.95628 -4 7.05589e-18 
9.29634 -4 4.94861e-18 
9.62458 -4 4.71473e-18 
9.92801 -4 1.49848e-17 
10.3002 -4 1.18903e-17 
10.6239 -4 8.48244e-18 
10.9973 -4 1.05628e-17 
11.3234 -4 2.35083e-19 
11.6078 -4 -9.20494e-18 
12 -4 -5.25724e-18 
-12 -3.66125 -1.62556e-18 
-11.6789 -3.67768 -1.26995e-21 
-11.3462 -3.64952 -7.87152e-22 
-11.0261 -3.66992 1.05541e-21 
-10.6975 -3.6587 3.65267e-22 
-10.3717 -3.67297 1.1776e-21 
-10.0422 -3.65362 3.29172e-22 
-9.73 -3.68465 9.23876e-22 
-9.38801 -3.69163 6.04749e-22 
-9.0466 -3.67037 4.68576e-22 
-8.72888 -3.66645 4.75387e-21 
-8.41191 -3.66648 6.18571e-21 
-8.09734 -3.67177 6.78616e-21 
-7.77934 -3.65931 3.57514e-21 
-7.47563 -3.64569 -6.49008e-21 
-7.18784 -3.64523 -5.66713e-21 
-6.86993 -3.68207 7.12956e-22 
-6.56412 -3.66333 2.43701e-21 
-6.25299 -3.67462 7.90405e-21 
-5.94166 -3.67612 1.55614e-20 
-5.63986 -3.66731 3.08874e-21 
-5.33885 -3.66787 -2.38671e-20 
-5.04438 -3.66135 -1.27797e-20 
-4.72038 -3.70688 -1.06406e-20 
-4.38215 -3.69306 -5.93672e-21 
-4.07724 -3.6539 2.12213e-20 
-3.7502 -3.71414 6.39511e-20 
-3.4036 -3.69469 4.19519e-20 
-3.09388 -3.68088 1.65011e-20 
-2.81917 -3.70104 4.10704e-20 
-2.67055 -3.43831 -2.15076e-20 
-2.54476 -3.71698 -1.79239e-21 
-2.34284 -3.62703 -5.26476e-20 
-2.14845 -3.6341 -1.09838e-19 
-1.95944 -3.64278 -3.55131e-22 
-1.77182 -3.59872 -1.19103e-20 
-1.56488 -3.55728 -1.48218e-20 
-1.30362 -3.6398 -9.98922e-21 
-0.826707 -3.6768 2.95736e-20 
-0.203066 -3.68508 -1.02746e-14 
0.534711 -3.6661 1.2064e-14 
1.21521 -3.66343 1.95537e-19 
1.56483 -3.63073 1.07407e-19 
1.80767 -3.41993 3.43644e-19 
1.86424 -3.71954 -2.87244e-19 
2.12524 -3.65084 -3.51683e-19 
2.34656 -3.66705 -4.23393e-19 
2.57266 -3.67915 -1.28857e-19 
2.81697 -3.66554 1.52966e-20 
3.05853 -3.64373 7.02186e-20 
3.33001 -3.66605 5.39207e-20 
3.62967 -3.6971 -4.31413e-20 
3.93688 -3.68642 -7.53386e-20 
4.23902 -3.67516 3.29909e-20 
4.54546 -3.67786 1.42522e-20 
4.84809 -3.6726 1.16294e-21 
5.14822 -3.66909 2.71516e-20 
5.45466 -3.6766 7.99225e-21 
5.74801 -3.65845 -1.17055e-20 
6.0424 -3.66174 -5.69052e-21 
6.3308 -3.65018 -3.50965e-21 
6.63264 -3.67432 -8.42399e-22 
6.93096 -3.65964 4.17745e-21 
7.23339 -3.66745 -7.54444e-22 
7.53546 -3.66252 1.07647e-22 
7.83866 -3.66595 1.27913e-21 
8.14109 -3.65813 -3.21334e-21 
8.4411 -3.65998 -8.01633e-21 
8.73798 -3.64225 -3.46981e-21 
9.06186 -3.69497 -1.08305e-21 
9.39229 -3.67955 -5.28303e-22 
9.70444 -3.65008 -7.87042e-22 
10.0497 -3.71089 -2.23085e-21 
10.3858 -3.66561 -1.28746e-21 
10.7419 -3.70747 -1.34799e-21 
11.0769 -3.6635 -9.25975e-22 
11.3734 -3.61456 9.27589e-23 
11.7147 -3.71987 1.09104e-21 
12 -3.62082 4.59985e-18 
-12 -3.33887 4.77117e-18 
-11.6663 -3.34312 -7.13184e-22 
-11.3379 -3.30856 -2.78262e-23 
-11.0125 -3.32854 -1.68449e-22 
-10.6803 -3.32381 7.97736e-24 
-10.352 -3.33992 -3.59759e-23 
-10.0248 -3.32116 5.47094e-23 
-9.7021 -3.34114 -1.45238e-23 
-9.39636 -3.37975 -2.898e-23 
-9.08703 -3.33371 2.96813e-23 
-8.77725 -3.33138 1.40944e-23 
-8.46603 -3.3358 -3.63686e-22 
-8.15187 -3.33769 -7.91594e-24 
-7.84276 -3.334 3.58245e-23 
-7.52944 -3.31077 -2.70658e-22 
-7.22914 -3.29356 3.16955e-22 
-6.93381 -3.35472 -1.6859e-22 
-6.62845 -3.33323 3.95373e-23 
-6.32239 -3.34725 1.15293e-22 
-6.01737 -3.35369 5.97533e-22 
-5.71498 -3.33851 7.02204e-22 
-5.41731 -3.33916 2.32004e-22 
-5.12276 -3.32662 4.30941e-22 
-4.81833 -3.38591 -1.03909e-21 
-4.50916 -3.40278 -8.11734e-22 
-4.19684 -3.33359 -1.62576e-22 
-3.86697 -3.38566 -3.28005e-21 
-3.559 -3.418 2.35191e-21 
-3.23181 -3.38054 3.63424e-22 
-2.94796 -3.36913 -2.60584e-20 
-2.69127 -3.15356 -1.71817e-20 
-2.42118 -3.33864 -6.62971e-21 
-2.18771 -3.26754 1.26518e-21 
-1.99016 -3.27251 -3.61834e-21 
-1.80244 -3.19278 3.99421e-21 
-1.5503 -3.17409 -2.52471e-21 
-1.25225 -3.27246 -4.53261e-21 
-0.847224 -3.00676 6.46211e-21 
-0.859012 -3.3567 2.09033e-21 
-0.257372 -3.25979 -3.08281e-14 
0.389797 -3.28547 2.47437e-14 
0.994123 -3.37533 4.97936e-20 
1.44892 -3.28556 9.55412e-21 
1.68455 -3.09416 1.30781e-20 
1.92288 -3.03379 9.48308e-20 
2.0402 -3.33127 1.47568e-19 
2.274 -3.32507 1.39597e-19 
2.49567 -3.34901 -9.553e-21 
2.72138 -3.35905 -6.20503e-21 
2.97184 -3.30998 4.03546e-20 
3.24656 -3.3354 1.94949e-20 
3.53956 -3.3756 6.08544e-21 
3.83897 -3.37841 2.28557e-20 
4.1521 -3.35428 2.08277e-20 
4.46625 -3.35688 7.6461e-21 
4.77707 -3.34889 -2.82169e-21 
5.08527 -3.34209 -5.66738e-21 
5.39506 -3.35444 -3.59666e-21 
5.70208 -3.3258 -9.11779e-22 
6.00349 -3.32782 -2.20111e-22 
6.30293 -3.31095 5.62115e-22 
6.60428 -3.34352 3.87978e-23 
6.9077 -3.3275 7.32819e-22 
7.21424 -3.33574 4.52955e-23 
7.52155 -3.32899 7.29911e-23 
7.82785 -3.32964 4.98854e-23 
8.13426 -3.32196 -3.98288e-23 
8.44038 -3.31449 2.72474e-24 
8.75934 -3.3169 -2.48621e-23 
9.07836 -3.3758 9.25416e-24 
9.39364 -3.34244 8.89841e-25 
9.7099 -3.30895 -2.32408e-23 
10.0197 -3.39381 2.08974e-23 
10.3204 -3.31978 -8.50192e-24 
10.6462 -3.38923 7.54353e-24 
10.9757 -3.34735 -1.06676e-21 
11.2947 -3.26319 -6.01899e-22 
11.6343 -3.37036 3.47919e-22 
12 -3.32299 -8.67837e-18 
-12 -3.0108 -5.0977e-18 
-11.6587 -3.01458 3.2615e-22 
-11.3182 -2.97264 2.79025e-23 
-10.9774 -3.0013 2.39717e-22 
-10.6397 -2.99424 -9.67361e-22 
-10.3116 -3.00597 3.84081e-23 
-9.98381 -2.98933 -7.75669e-23 
-9.66768 -3.00063 3.69845e-23 
-9.35989 -3.03364 3.41322e-23 
-9.04923 -2.99224 -2.33279e-23 
-8.73692 -2.99523 5.23016e-25 
-8.4238 -3.00562 2.2779e-22 
-8.11418 -3.00226 6.74971e-22 
-7.80293 -3.00408 -9.63235e-22 
-7.49839 -2.97168 -8.7989e-23 
-7.19177 -2.96192 1.04515e-22 
-6.89571 -3.02065 1.03179e-22 
-6.58732 -3.00611 -1.89485e-23 
-6.28387 -3.02178 -2.88596e-22 
-5.98449 -3.02473 -1.01931e-22 
-5.68681 -3.00783 8.94845e-23 
-5.39326 -3.00629 2.45822e-22 
-5.09297 -2.99993 -3.08001e-22 
-4.79979 -3.06558 -3.83171e-22 
-4.49366 -3.08162 -2.23848e-22 
-4.20439 -2.985 -1.25303e-21 
-3.91396 -3.07604 -1.03629e-21 
-3.59031 -3.09227 2.42951e-21 
-3.29026 -3.09924 4.52883e-21 
-2.96559 -3.04532 -7.83339e-21 
-2.72927 -2.84213 -1.46285e-20 
-2.45698 -3.01406 -3.69005e-21 
-2.27026 -2.90495 1.98825e-21 
-2.06179 -2.89885 1.80157e-20 
-1.85704 -2.81822 1.62552e-20 
-1.61774 -2.81889 6.86755e-21 
-1.26526 -2.90414 7.40067e-21 
-0.812445 -2.61441 1.28432e-20 
-0.273023 -2.82149 -7.18637e-14 
0.405319 -2.38715 1.52015e-13 
0.417177 -2.84719 7.01299e-14 
1.00582 -2.58771 -1.35722e-19 
0.977911 -3.01704 -1.27065e-19 
1.36128 -2.89314 -8.45805e-20 
1.63977 -2.73443 1.51269e-20 
1.95157 -2.75283 6.33755e-20 
2.18033 -3.00912 7.08042e-20 
2.42069 -3.01432 2.08681e-20 
2.64485 -3.01564 -2.63001e-20 
2.87537 -3.01371 -1.87873e-20 
3.17781 -3.02349 -5.31651e-21 
3.48827 -3.05866 -1.25557e-21 
3.80076 -3.05625 1.5177e-20 
4.11028 -3.04306 1.592e-20 
4.43915 -3.0407 1.62201e-21 
4.76021 -3.02792 -4.6493e-21 
5.0729 -3.01764 -3.84963e-21 
5.38058 -3.03181 -5.9049e-22 
5.68681 -3.003 -3.33657e-22 
5.99351 -2.99742 3.53293e-22 
6.29476 -2.9807 -2.36434e-22 
6.59552 -3.01273 -1.04861e-22 
6.90302 -3.00083 -6.26069e-24 
7.20899 -3.00671 7.12696e-23 
7.51455 -2.99978 1.73987e-22 
7.82458 -2.99656 -9.02824e-23 
8.12631 -2.98352 6.04238e-23 
8.43317 -2.97704 1.96201e-23 
8.73969 -2.98878 1.86219e-23 
9.06157 -3.04383 5.59883e-24 
9.37931 -3.01019 -1.04611e-24 
9.68456 -2.96682 -9.34768e-25 
10.0069 -3.03978 1.18167e-25 
10.3333 -2.98437 1.5957e-23 
10.6557 -3.05639 4.14023e-24 
10.9785 -3.00434 -1.94335e-22 
11.3283 -2.94499 -5.31833e-23 
11.6604 -3.05974 1.56598e-22 
12 -3.00055 -6.02868e-19 
-12 -2.69085 -4.75035e-18 
-11.6606 -2.69142 2.47282e-22 
-11.3353 -2.63621 -2.47767e-23 
-10.9978 -2.67644 8.73072e-22 
-10.6571 -2.66857 -6.1092e-22 
-10.32 -2.67326 -9.40771e-22 
-9.98948 -2.66294 1.17951e-21 
-9.65908 -2.66458 -2.95942e-24 
-9.34069 -2.69001 -1.99815e-23 
-9.02018 -2.65991 -4.45807e-22 
-8.70284 -2.66559 6.398e-22 
-8.38943 -2.67489 -1.78205e-22 
-8.0748 -2.6737 1.22074e-22 
-7.76772 -2.6689 -8.72028e-22 
-7.45437 -2.64411 -1.09391e-21 
-7.14127 -2.64041 -4.01415e-23 
-6.83968 -2.69347 8.70476e-23 
-6.53119 -2.68213 5.45743e-22 
-6.23339 -2.69399 -3.07551e-23 
-5.93822 -2.69371 -3.94399e-22 
[...]
POINT_DATA 1978 
VECTORS vectors float
-1.38102e-06 -1.88851e-05 1 
1.86055e-06 -2.33707e-05 1 
-1.3811e-07 -2.6408e-05 1 
1.17618e-06 -2.88161e-05 1 
7.67348e-07 -3.326e-05 1 
4.46814e-09 -4.18856e-05 1 
-2.1836e-07 -5.36807e-05 1 
-7.64069e-07 -6.57445e-05 1 
-1.02858e-06 -6.94067e-05 1 
-1.40901e-06 -6.55786e-05 1 
-2.17135e-06 -6.8095e-05 1 
-2.22548e-06 -8.24998e-05 1 
-2.07629e-06 -0.000102543 1 
-2.19108e-06 -0.000121006 1 
-2.78189e-06 -0.000139867 1 
-4.30416e-06 -0.000162609 1 
-4.07595e-06 -0.000196432 1 
-6.45044e-06 -0.000250588 1 
-8.27786e-06 -0.000303179 1 
-7.82544e-06 -0.000304854 1 
-3.60123e-06 -0.000202986 1 
-9.73346e-07 -3.56847e-05 1 
-1.06191e-05 0.000115731 1 
-1.30979e-05 0.000210461 1 
1.67968e-05 0.000375997 1 
1.38034e-05 0.000469478 1 
-1.99363e-05 0.000147569 1 
1.01721e-05 -0.000149895 1 
2.83436e-05 0.000533589 1 
6.21587e-06 0.0012321 0.999999 
-8.34067e-07 0.00143881 0.999999 
-2.78029e-05 0.000897135 1 
-2.94745e-05 0.000443555 1 
-2.90774e-06 0.000320614 1 
-1.51499e-05 0.000422693 1 
-3.38376e-05 0.000379704 1 
-4.05913e-05 8.75363e-05 1 
-6.09184e-06 -0.00044978 1 
-6.2112e-05 -0.000742434 1 
-8.198e-06 -0.000664222 1 
0.000335798 -0.00300156 -0.999995 
0.000112127 -0.000760738 -1 
0.000137958 0.00143297 -0.999999 
7.1074e-05 0.00350648 -0.999994 
-0.000141262 0.00384116 -0.999993 
-0.000235067 0.00255038 -0.999997 
-0.000188472 0.00102673 -0.999999 
-0.00010638 -0.000202823 -1 
1.77152e-05 -0.000305407 -1 
5.93384e-05 0.000359371 -1 
1.28648e-05 0.0011705 -0.999999 
-1.10613e-05 0.00162519 -0.999999 
2.85637e-06 0.00148624 -0.999999 
1.14709e-05 0.0010312 -0.999999 
8.49529e-06 0.000560862 -1 
9.2942e-06 0.000179314 -1 
9.59357e-06 -0.000111164 -1 
7.7556e-06 -0.000315774 -1 
6.36264e-06 -0.000418986 -1 
5.81642e-06 -0.000431223 -1 
5.84076e-06 -0.00037933 -1 
5.09026e-06 -0.000301568 -1 
4.00974e-06 -0.000229733 -1 
3.94831e-06 -0.000190743 -1 
4.42399e-06 -0.000164892 -1 
3.16058e-06 -0.000139076 -1 
2.10705e-06 -0.000109543 -1 
1.86829e-06 -8.08183e-05 -1 
1.74824e-06 -6.32252e-05 -1 
1.52866e-06 -6.24964e-05 -1 
1.45117e-06 -6.96622e-05 -1 
1.11359e-06 -6.66763e-05 -1 
5.81711e-07 -5.63379e-05 -1 
-4.63206e-08 -4.40916e-05 -1 
-4.68672e-07 -3.69752e-05 -1 
-9.2228e-07 -3.13561e-05 -1 
6.48763e-08 -2.80434e-05 -1 
-1.20527e-06 -2.51749e-05 -1 
8.64466e-07 -1.9368e-05 -1 
-2.79766e-05 -2.58386e-05 1 
-1.92722e-05 -2.89348e-05 1 
-1.68998e-05 -2.86727e-05 1 
-1.59343e-05 -2.96203e-05 1 
-1.54821e-05 -3.41456e-05 1 
-1.22418e-05 -4.34547e-05 1 
-6.43452e-06 -5.66931e-05 1 
3.41743e-06 -6.79632e-05 1 
1.56317e-05 -7.46865e-05 1 
2.83842e-05 -7.58321e-05 1 
3.87438e-05 -7.8967e-05 1 
4.72507e-05 -8.86811e-05 1 
5.48469e-05 -0.000105131 1 
6.50624e-05 -0.000128644 1 
8.00362e-05 -0.000160061 1 
0.000106537 -0.000200294 1 
0.000149565 -0.000245346 1 
0.000218494 -0.000292062 1 
0.000273842 -0.000303246 1 
0.000305082 -0.000248492 1 
0.000311107 -0.000121898 1 
0.000287942 3.88504e-05 1 
0.000249052 0.000187245 1 
0.000158969 0.000307966 1 
8.00961e-05 0.000416653 1 
-2.78624e-05 0.000397337 1 
-0.000252381 0.000208424 1 
-0.000597568 0.000275237 1 
-0.000675612 0.000580299 1 
-0.000448834 0.000749499 1 
-0.000566342 0.000207808 1 
-0.000170315 0.000501 1 
-0.000118368 0.00012453 1 
6.04164e-05 -4.16924e-05 1 
0.00028545 -0.00011955 1 
0.000469843 -0.000264797 1 
0.000591645 -0.000393802 1 
0.000584903 -0.000458079 1 
0.000446077 -0.000633399 1 
0.000349639 -0.000535294 1 
8.35208e-05 -0.0027365 -0.999996 
-0.000247064 -0.000861998 -1 
0.000348117 0.000871952 -1 
0.00116934 0.000559549 -0.999999 
0.000954325 0.00212793 -0.999997 
0.00169162 0.00144912 -0.999998 
0.0018959 0.000904479 -0.999998 
0.00157767 0.00047697 -0.999999 
0.000998622 0.00050427 -0.999999 
0.000478556 0.00086995 -1 
3.00376e-05 0.00128114 -0.999999 
-0.000262558 0.00151443 -0.999999 
-0.00045721 0.00135214 -0.999999 
-0.000543849 0.000961001 -0.999999 
-0.000561713 0.000526998 -1 
-0.000558764 0.000164581 -1 
-0.000515987 -0.000111968 -1 
-0.000432558 -0.00031075 -1 
-0.000356601 -0.000410611 -1 
-0.000279519 -0.000427094 -1 
-0.000222185 -0.000384227 -1 
-0.000163943 -0.000313302 -1 
-0.000122226 -0.000252373 -1 
-9.23728e-05 -0.000205167 -1 
-7.91127e-05 -0.000169455 -1 
-7.10944e-05 -0.000138428 -1 
-6.29999e-05 -0.000110194 -1 
-5.39275e-05 -8.82048e-05 -1 
-4.60886e-05 -7.74764e-05 -1 
-3.33283e-05 -7.41036e-05 -1 
-2.28315e-05 -7.5261e-05 -1 
-1.13273e-05 -7.06538e-05 -1 
4.27698e-07 -5.776e-05 -1 
8.81582e-06 -4.56795e-05 -1 
1.18454e-05 -3.58252e-05 -1 
1.4294e-05 -3.10413e-05 -1 
1.6133e-05 -2.99401e-05 -1 
1.62966e-05 -2.82083e-05 -1 
2.49376e-05 -2.5424e-05 -1 
-2.90177e-05 -3.59113e-05 1 
-2.30441e-05 -3.50266e-05 1 
-2.14758e-05 -3.22128e-05 1 
-2.20158e-05 -3.14441e-05 1 
-2.2204e-05 -3.66705e-05 1 
-1.87953e-05 -4.8073e-05 1 
-1.09117e-05 -6.39822e-05 1 
2.7465e-06 -7.65617e-05 1 
1.87589e-05 -8.34859e-05 1 
3.47956e-05 -8.85857e-05 1 
4.76502e-05 -9.09033e-05 1 
5.67126e-05 -9.59985e-05 1 
6.37888e-05 -0.00010851 1 
7.15394e-05 -0.000131905 1 
8.44783e-05 -0.000172142 1 
0.00011219 -0.000227494 1 
0.000165051 -0.000282576 1 
0.000237662 -0.000331612 1 
0.000316512 -0.000330978 1 
0.000379107 -0.000260159 1 
0.00041133 -0.00012217 1 
0.000405167 4.78993e-05 1 
0.00036402 0.000214801 1 
0.000284672 0.000342233 1 
0.000181585 0.000429485 1 
4.45283e-05 0.000458814 1 
-0.000204018 0.000392425 1 
-0.0005198 0.000293646 1 
-0.000786933 0.000260634 1 
-0.000814721 0.000253189 1 
-0.000839223 -0.000148597 1 
-0.0004725 -0.000169926 1 
-0.000277305 -0.000410072 1 
-3.61638e-05 -0.000534432 1 
7.36242e-05 -0.000723734 1 
0.000223729 -0.000824829 1 
0.000483971 -0.000744854 1 
0.000430841 -0.000761831 1 
0.000565659 -0.000660207 1 
0.000412767 -0.00040001 1 
0.000314423 -0.00243741 -0.999997 
5.17057e-05 -0.00132555 -0.999999 
0.000625874 -0.000773568 -1 
0.0011648 -0.000566235 -0.999999 
0.00160289 -0.000541786 -0.999999 
0.0016174 0.00021525 -0.999999 
0.0018275 0.000387242 -0.999998 
0.0017555 0.000494057 -0.999998 
0.00133854 0.000633392 -0.999999 
0.000735884 0.000894522 -0.999999 
0.00012327 0.00120887 -0.999999 
-0.000343264 0.00143578 -0.999999 
-0.000656472 0.00140646 -0.999999 
-0.000833545 0.00109738 -0.999999 
-0.000882423 0.00066199 -0.999999 
-0.000851983 0.000258873 -1 
-0.000743483 -5.13454e-05 -1 
-0.000593007 -0.000276485 -1 
-0.000443891 -0.000406418 -1 
-0.000327862 -0.000443815 -1 
-0.000238515 -0.000407233 -1 
-0.000177521 -0.000344447 -1 
-0.000128324 -0.000282206 -1 
-9.89693e-05 -0.00022893 -1 
-8.36391e-05 -0.000183302 -1 
-7.63628e-05 -0.000146607 -1 
-6.99363e-05 -0.000118973 -1 
-6.30876e-05 -0.000100872 -1 
-5.45258e-05 -9.13861e-05 -1 
-4.27512e-05 -8.63995e-05 -1 
-2.82336e-05 -8.61432e-05 -1 
-1.14408e-05 -8.08479e-05 -1 
2.40746e-06 -6.66077e-05 -1 
1.26956e-05 -5.40594e-05 -1 
1.75532e-05 -4.02131e-05 -1 
1.96074e-05 -3.34368e-05 -1 
2.00266e-05 -3.2694e-05 -1 
2.09818e-05 -3.37382e-05 -1 
2.69042e-05 -3.43068e-05 -1 
-2.38952e-05 -4.28848e-05 1 
-2.03752e-05 -4.00803e-05 1 
-2.05981e-05 -3.51974e-05 1 
-2.3417e-05 -3.42453e-05 1 
-2.43822e-05 -4.10797e-05 1 
-2.08591e-05 -5.52262e-05 1 
-1.17295e-05 -7.2559e-05 1 
2.2811e-06 -8.64211e-05 1 
1.88375e-05 -9.3642e-05 1 
3.44614e-05 -9.9004e-05 1 
4.64081e-05 -0.000101429 1 
5.34636e-05 -0.000105428 1 
5.72141e-05 -0.00011736 1 
6.24966e-05 -0.000143476 1 
7.38373e-05 -0.000190824 1 
0.000100113 -0.000258139 1 
0.000150706 -0.000321823 1 
0.000217763 -0.000367966 1 
0.000295189 -0.000348714 1 
0.000359227 -0.000250205 1 
0.000392322 -8.71971e-05 1 
0.000393567 0.000102652 1 
0.000362852 0.000283937 1 
0.000311122 0.000398704 1 
0.00021975 0.000460378 1 
0.000102572 0.000480794 1 
-0.000116345 0.000439815 1 
-0.000429319 0.000288767 1 
-0.000733953 0.000131977 1 
-0.000902227 -1.97388e-06 1 
-0.000992437 -0.000298082 0.999999 
-0.000853699 -0.000538732 0.999999 
-0.000738104 -0.000808779 0.999999 
-0.000532263 -0.000953727 0.999999 
-0.000393609 -0.00109199 0.999999 
-0.00016872 -0.00111923 0.999999 
0.000195103 -0.000990935 0.999999 
4.90861e-05 -0.000902111 1 
0.000350715 -0.000426669 1 
0.00156317 -0.00197062 -0.999997 
0.000772621 -0.00224244 -0.999997 
0.00164375 -0.00190627 -0.999997 
0.00068683 -0.0018422 -0.999998 
0.00129522 -0.00143004 -0.999998 
0.00176922 -0.00113864 -0.999998 
0.0019031 -0.000712975 -0.999998 
0.00175191 -0.000254172 -0.999998 
0.0016543 9.37038e-05 -0.999999 
0.00132809 0.00042518 -0.999999 
0.000811154 0.000757636 -0.999999 
0.000126203 0.00111015 -0.999999 
-0.000463458 0.00133372 -0.999999 
-0.000832223 0.00132815 -0.999999 
-0.00101272 0.00107104 -0.999999 
-0.0010408 0.000651453 -0.999999 
-0.000958627 0.000256443 -1 
-0.000787364 -4.72859e-05 -1 
-0.000584124 -0.000268519 -1 
-0.000407254 -0.000408465 -1 
-0.000275311 -0.000448259 -1 
-0.000183854 -0.0004198 -1 
-0.000130705 -0.000358015 -1 
-9.34914e-05 -0.00029887 -1 
-7.45361e-05 -0.000241817 -1 
-6.52913e-05 -0.000192221 -1 
-6.13751e-05 -0.000152259 -1 
-5.91713e-05 -0.000127537 -1 
-5.56624e-05 -0.000111588 -1 
-5.0222e-05 -0.00010319 -1 
-4.14039e-05 -9.81473e-05 -1 
-2.68877e-05 -9.6419e-05 -1 
-1.05654e-05 -9.09676e-05 -1 
4.43125e-06 -7.54906e-05 -1 
1.52093e-05 -5.88382e-05 -1 
2.01401e-05 -4.28984e-05 -1 
2.11782e-05 -3.58091e-05 -1 
1.93055e-05 -3.60535e-05 -1 
2.02076e-05 -3.8969e-05 -1 
2.34198e-05 -4.17401e-05 -1 
-1.5997e-05 -4.79028e-05 1 
-1.47039e-05 -4.41262e-05 1 
-1.68583e-05 -3.87183e-05 1 
-2.19368e-05 -3.71887e-05 1 
-2.42094e-05 -4.4421e-05 1 
-2.11705e-05 -5.98894e-05 1 
-1.24193e-05 -7.88404e-05 1 
2.06216e-06 -9.30038e-05 1 
1.89095e-05 -0.000100597 1 
3.46967e-05 -0.000106465 1 
4.50901e-05 -0.000108931 1 
4.94016e-05 -0.000112163 1 
5.00537e-05 -0.000123953 1 
5.25855e-05 -0.000152321 1 
6.27453e-05 -0.000205235 1 
8.78584e-05 -0.000280465 1 
0.000133239 -0.000347552 1 
0.000193639 -0.000387245 1 
0.000261168 -0.000352138 1 
0.000313858 -0.000234323 1 
0.000340056 -4.98976e-05 1 
0.000346581 0.000160627 1 
0.000331401 0.000346254 1 
0.000297615 0.000442856 1 
0.000235082 0.000477424 1 
8.36679e-05 0.00046727 1 
-0.000156637 0.000393758 1 
-0.000479909 0.000161874 1 
-0.000811924 -6.52744e-05 1 
-0.00097418 -0.000257322 0.999999 
-0.0010517 -0.000596134 0.999999 
-0.00101756 -0.000898019 0.999999 
-0.000898044 -0.00113572 0.999999 
-0.000784077 -0.00125365 0.999999 
-0.000672332 -0.00131201 0.999999 
-0.00117549 -0.00143305 0.999998 
-0.000225116 -0.00119257 0.999999 
-0.000601281 -0.00126329 0.999999 
-8.67339e-06 -0.000746547 1 
-0.000653501 -0.00218846 0.999997 
0.00257898 -0.00167026 -0.999995 
0.00263 -0.00193665 -0.999995 
0.00221673 -0.00156696 -0.999996 
0.00246556 -0.00119829 -0.999996 
0.00218189 -0.00082728 -0.999997 
0.00203815 -0.000429204 -0.999998 
0.00178774 -0.000321682 -0.999998 
0.00149624 6.35546e-05 -0.999999 
0.00102916 0.000448273 -0.999999 
0.000373805 0.000872924 -1 
-0.000320299 0.00113892 -0.999999 
-0.00080056 0.00122013 -0.999999 
-0.00107214 0.0011318 -0.999999 
-0.00116023 0.000861067 -0.999999 
-0.00109818 0.00049022 -0.999999 
-0.000916671 0.000150732 -1 
-0.000675659 -0.000113821 -1 
-0.000465827 -0.000299127 -1 
-0.00029662 -0.000413504 -1 
-0.000185677 -0.000439885 -1 
-0.000110954 -0.000404408 -1 
-7.47771e-05 -0.000347765 -1 
-5.46827e-05 -0.000289695 -1 
-4.8556e-05 -0.000236297 -1 
-4.73914e-05 -0.000187561 -1 
-4.8053e-05 -0.000152406 -1 
-4.96228e-05 -0.000129523 -1 
-4.95206e-05 -0.000118175 -1 
-4.68926e-05 -0.000114154 -1 
-3.98095e-05 -0.000108651 -1 
-2.75934e-05 -0.000106454 -1 
-1.12017e-05 -9.9819e-05 -1 
4.43867e-06 -8.36986e-05 -1 
1.5185e-05 -6.53679e-05 -1 
2.04667e-05 -4.69571e-05 -1 
2.00682e-05 -3.85771e-05 -1 
1.5738e-05 -3.93859e-05 -1 
1.53596e-05 -4.407e-05 -1 
1.49599e-05 -4.89191e-05 -1 
-7.67182e-08 -5.16453e-05 1 
-5.56118e-06 -4.8623e-05 1 
-9.6049e-06 -4.20428e-05 1 
-1.77738e-05 -4.01309e-05 1 
-2.2688e-05 -4.5992e-05 1 
-2.19404e-05 -6.0784e-05 1 
-1.45853e-05 -7.99723e-05 1 
-1.55046e-06 -9.57898e-05 1 
1.57223e-05 -0.000105627 1 
3.19622e-05 -0.000111143 1 
4.43052e-05 -0.000113415 1 
4.87511e-05 -0.000113036 1 
4.73794e-05 -0.000117782 1 
4.49728e-05 -0.000137869 1 
4.80894e-05 -0.000179534 1 
6.3061e-05 -0.000245845 1 
9.45924e-05 -0.000324959 1 
0.00013834 -0.000380626 1 
0.000193397 -0.000384381 1 
0.000241826 -0.000307685 1 
0.00027371 -0.000154503 1 
0.000292526 5.59238e-05 1 
0.000299367 0.000264365 1 
0.000293829 0.000421943 1 
0.000274723 0.000478754 1 
0.00021117 0.000476279 1 
2.31909e-05 0.000432146 1 
-0.000234057 0.000299345 1 
-0.000595297 -7.9614e-08 1 
-0.000835569 -0.000165497 1 
-0.00107021 -0.000416395 0.999999 
-0.00118843 -0.000745725 0.999999 
-0.00120881 -0.00101461 0.999999 
-0.00126005 -0.00112101 0.999999 
-0.00135902 -0.00124229 0.999998 
-0.0021423 -0.00159911 0.999996 
-0.00165105 -0.00180107 0.999997 
-0.00202671 -0.00300378 0.999993 
-0.000779872 -0.00128712 0.999999 
-0.0017939 -0.00567269 0.999982 
0.00386564 -0.00186174 -0.999991 
0.00408683 -0.00214552 -0.999989 
0.00340211 -0.00192546 -0.999992 
0.00316231 -0.00146744 -0.999994 
0.00371396 -0.00138793 -0.999992 
0.00261652 -0.000785073 -0.999996 
0.00230353 -0.000203786 -0.999997 
0.00163947 4.35544e-05 -0.999999 
0.00119273 0.000398912 -0.999999 
0.000551991 0.000722863 -1 
-0.000152344 0.000981401 -1 
-0.000742536 0.00106571 -0.999999 
-0.00109216 0.00100714 -0.999999 
-0.00122337 0.000832382 -0.999999 
-0.00115388 0.000528357 -0.999999 
-0.0009363 0.00020864 -1 
-0.000658897 -5.35492e-05 -1 
-0.000416982 -0.000247113 -1 
-0.000252091 -0.000368782 -1 
-0.00013579 -0.000414025 -1 
-6.90544e-05 -0.00039359 -1 
-3.87873e-05 -0.000343152 -1 
-2.90968e-05 -0.000288224 -1 
-3.05685e-05 -0.000233808 -1 
-3.58456e-05 -0.000189197 -1 
-4.00547e-05 -0.000152934 -1 
-4.43657e-05 -0.000131312 -1 
-4.71202e-05 -0.000121394 -1 
-4.6995e-05 -0.000119901 -1 
-4.11918e-05 -0.000118089 -1 
-2.89422e-05 -0.000115014 -1 
-1.35179e-05 -0.000108684 -1 
2.5329e-06 -9.21497e-05 -1 
1.42965e-05 -7.20177e-05 -1 
1.9814e-05 -5.17676e-05 -1 
1.79371e-05 -4.22023e-05 -1 
1.11155e-05 -4.17168e-05 -1 
7.24997e-06 -4.68121e-05 -1 
2.23728e-06 -5.26128e-05 -1 
1.3834e-05 -4.89086e-05 1 
3.83137e-06 -4.46978e-05 1 
-7.85445e-06 -4.20696e-05 1 
-1.72105e-05 -4.58574e-05 1 
-2.19061e-05 -5.73779e-05 1 
-1.86269e-05 -7.59914e-05 1 
-7.64186e-06 -9.57092e-05 1 
8.36995e-06 -0.000108852 1 
2.64914e-05 -0.000115989 1 
4.21574e-05 -0.000117424 1 
5.12012e-05 -0.000114175 1 
5.10917e-05 -0.000109839 1 
4.57612e-05 -0.000115802 1 
4.20508e-05 -0.000141151 1 
4.6998e-05 -0.000190722 1 
6.51916e-05 -0.000263126 1 
9.3599e-05 -0.000334818 1 
0.000133109 -0.000382413 1 
0.000173424 -0.000365682 1 
0.000206837 -0.000267949 1 
0.00023319 -9.23868e-05 1 
0.000251043 0.00012294 1 
0.000263224 0.000329711 1 
0.000263146 0.000445352 1 
0.0002587 0.000481726 1 
0.000181418 0.000459547 1 
-1.72469e-05 0.00038925 1 
-0.000315491 0.000228462 1 
-0.000585748 0.00010236 1 
-0.000941614 -0.000124527 1 
-0.00118406 -0.000366354 0.999999 
-0.0014993 -0.000587746 0.999999 
-0.00182997 -0.000793499 0.999998 
-0.00220414 -0.00110061 0.999997 
-0.00336933 -0.00187067 0.999993 
-0.00277646 -0.00249856 0.999993 
-0.00356964 -0.00562187 0.999978 
-0.00756824 -0.0107543 0.999914 
-0.00522414 -0.00861413 0.999949 
-0.00477479 -0.0105386 0.999933 
0.00677153 -0.00383998 -0.99997 
0.00958026 -0.00479367 -0.999943 
0.00669604 -0.00332081 -0.999972 
0.00549129 -0.00276287 -0.999981 
0.00457012 -0.00223952 -0.999987 
0.00515059 -0.00237379 -0.999984 
0.00326692 -0.000763505 -0.999994 
0.00198125 0.000187135 -0.999998 
0.00122489 0.000562984 -0.999999 
0.000421709 0.000804829 -1 
-0.000291583 0.000948588 -1 
-0.000809345 0.000910646 -0.999999 
-0.00115711 0.00081653 -0.999999 
-0.00120554 0.000620009 -0.999999 
-0.00102769 0.000341627 -0.999999 
-0.00074147 8.08473e-05 -1 
-0.000467449 -0.000121396 -1 
-0.000263245 -0.000267939 -1 
-0.000133556 -0.000358623 -1 
-5.1325e-05 -0.000378921 -1 
-1.58779e-05 -0.000352371 -1 
-8.0068e-06 -0.000305641 -1 
-1.4858e-05 -0.000254602 -1 
-2.54822e-05 -0.000205007 -1 
-3.33644e-05 -0.000167146 -1 
-3.92698e-05 -0.000136653 -1 
-4.40717e-05 -0.00012153 -1 
-4.85019e-05 -0.00011862 -1 
-4.98999e-05 -0.000124267 -1 
-4.35493e-05 -0.00012559 -1 
-3.23534e-05 -0.000125229 -1 
-1.4794e-05 -0.00011718 -1 
2.43535e-06 -9.84284e-05 -1 
1.41307e-05 -7.77711e-05 -1 
1.89107e-05 -5.69279e-05 -1 
1.54928e-05 -4.64211e-05 -1 
5.98652e-06 -4.27445e-05 -1 
-2.03649e-06 -4.63768e-05 -1 
-1.26164e-05 -5.03247e-05 -1 
2.66425e-05 -3.84068e-05 1 
1.2754e-05 -3.98296e-05 1 
-1.8541e-06 -4.18691e-05 1 
-1.34985e-05 -4.94565e-05 1 
-1.97411e-05 -6.34105e-05 1 
-1.73993e-05 -8.31683e-05 1 
-6.53556e-06 -0.000103848 1 
1.05128e-05 -0.00011844 1 
2.9649e-05 -0.000125213 1 
4.64086e-05 -0.000123332 1 
5.63205e-05 -0.000114928 1 
5.714e-05 -0.000103831 1 
5.11487e-05 -0.000102178 1 
4.57174e-05 -0.000119139 1 
4.74349e-05 -0.000160278 1 
6.02219e-05 -0.000225132 1 
8.29945e-05 -0.000299179 1 
0.000112208 -0.000361005 1 
0.000142762 -0.000368238 1 
0.000168702 -0.000293926 1 
0.000190262 -0.000147798 1 
0.000209072 5.20696e-05 1 
0.000229934 0.000263029 1 
0.000242316 0.000399759 1 
0.000261523 0.000462452 1 
0.0002336 0.000465824 1 
8.2462e-05 0.000440962 1 
-0.000219389 0.000366577 1 
-0.000645276 0.000314409 1 
-0.00104264 0.000184484 0.999999 
-0.0014908 -0.000119921 0.999999 
-0.00236879 -0.000516545 0.999997 
-0.00334603 -0.00128829 0.999994 
-0.00438138 -0.00320922 0.999985 
-0.00531927 -0.00524664 0.999972 
-0.00388464 -0.00409406 0.999984 
-0.00542987 -0.00728701 0.999959 
-0.0151049 -0.016716 0.999746 
-0.0129157 -0.0170747 0.999771 
-0.0101731 -0.0177198 0.999791 
0.012872 -0.00699513 -0.999893 
0.0145454 -0.00648944 -0.999873 
0.00955224 -0.0063069 -0.999934 
0.00687477 -0.003542 -0.99997 
0.00858838 -0.00552343 -0.999948 
0.0065957 -0.00348256 -0.999972 
0.00461883 -0.00189316 -0.999988 
0.0030036 -0.000451575 -0.999995 
0.00216387 3.62436e-05 -0.999998 
0.00107543 0.000598568 -0.999999 
0.00025066 0.000843907 -1 
-0.00036302 0.00086239 -1 
-0.000925397 0.000783341 -0.999999 
-0.00112664 0.000618318 -0.999999 
-0.00100962 0.00037372 -0.999999 
-0.000736666 0.000138376 -1 
-0.000450157 -5.16636e-05 -1 
-0.000231958 -0.000198407 -1 
-9.64521e-05 -0.000299569 -1 
-2.21941e-05 -0.000337319 -1 
4.98433e-06 -0.000330005 -1 
3.66982e-06 -0.000286166 -1 
-1.18376e-05 -0.000239406 -1 
-2.7786e-05 -0.000190833 -1 
-3.80208e-05 -0.000150629 -1 
-4.38324e-05 -0.000122784 -1 
-4.82831e-05 -0.000110056 -1 
-5.25368e-05 -0.000112177 -1 
-5.39613e-05 -0.000123904 -1 
-4.88397e-05 -0.000133986 -1 
-3.59072e-05 -0.000136568 -1 
-1.85808e-05 -0.000129983 -1 
-2.79206e-07 -0.000109634 -1 
1.19239e-05 -8.89228e-05 -1 
1.72325e-05 -6.5122e-05 -1 
1.29731e-05 -5.09329e-05 -1 
1.92551e-06 -4.2498e-05 -1 
-1.02366e-05 -4.19842e-05 -1 
-2.50217e-05 -4.16942e-05 -1 
3.28234e-05 -2.49592e-05 1 
1.58231e-05 -3.12501e-05 1 
1.25223e-06 -4.0509e-05 1 
-1.08524e-05 -5.41396e-05 1 
-1.67196e-05 -7.30198e-05 1 
-1.35767e-05 -9.61131e-05 1 
-1.53091e-06 -0.000118848 1 
1.61012e-05 -0.000133636 1 
3.54221e-05 -0.000136247 1 
5.15756e-05 -0.000128238 1 
6.06543e-05 -0.00011217 1 
6.10181e-05 -9.49042e-05 1 
5.53722e-05 -8.85407e-05 1 
5.00136e-05 -0.00010289 1 
5.16962e-05 -0.000141861 1 
6.23993e-05 -0.000202921 1 
7.95394e-05 -0.000274205 1 
0.000101484 -0.000336154 1 
0.000126299 -0.000352911 1 
0.000142043 -0.000292843 1 
0.000158948 -0.000153328 1 
0.000178365 4.3481e-05 1 
0.000201684 0.000229859 1 
0.000230766 0.000373467 1 
0.000256365 0.000437082 1 
0.000243696 0.000465306 1 
0.000162579 0.000509761 1 
-3.46057e-05 0.000549979 1 
-0.000397327 0.000607928 1 
-0.000970658 0.000654484 0.999999 
-0.00159084 0.000381574 0.999999 
-0.00238597 -0.000145411 0.999997 
-0.00376152 -0.0013582 0.999992 
-0.00467547 -0.00299433 0.999985 
-0.00616376 -0.00645523 0.99996 
-0.00643072 -0.00887009 0.99994 
-0.0162953 -0.0161746 0.999736 