# vtk DataFile Version 3.0 
Exported using Morpho https://github.com/Morpho-lang/morpho 
ASCII 
DATASET UNSTRUCTURED_GRID 

POINTS 1978 float 
-12 -4 5.05683e-13 
-11.6518 -4 2.47706e-12 
-11.3282 -4 -6.27001e-13 
-10.9856 -4 -2.53559e-12 
-10.6607 -4 -3.74289e-13 
-10.323 -4 -2.88609e-12 
-10.0108 -4 -2.87337e-13 
-9.67353 -4 -2.28412e-12 
-9.32841 -4 -6.67393e-13 
-9.00905 -4 -9.69035e-13 
-8.69619 -4 -1.36879e-11 
-8.38527 -4 -1.43651e-11 
-8.07012 -4 -1.89925e-11 
-7.76287 -4 -2.81511e-12 
-7.47763 -4 1.23751e-11 
-7.19464 -4 1.31986e-11 
-6.91245 -4 -1.72486e-14 
-6.59717 -4 -7.63941e-12 
-6.30124 -4 -1.70825e-11 
-5.99762 -4 -3.92447e-11 
-5.69496 -4 -1.89197e-11 
-5.4023 -4 6.48828e-11 
-5.11185 -4 3.93139e-11 
-4.82986 -4 5.99912e-12 
-4.505 -4 4.51494e-11 
-4.19004 -4 -2.57292e-11 
-3.91282 -4 -2.28687e-10 
-3.58993 -4 -6.24988e-11 
-3.2915 -4 1.16862e-10 
-3.03081 -4 2.14613e-11 
-2.77776 -4 -1.75318e-10 
-2.54698 -4 7.89424e-10 
-2.32164 -4 1.66643e-10 
-2.14042 -4 9.01832e-10 
-1.96162 -4 1.16188e-09 
-1.7702 -4 1.3857e-09 
-1.57813 -4 -1.23852e-08 
-1.27738 -4 2.80218e-08 
-0.937687 -4 2.86667e-09 
-0.384232 -4 1.18805e-08 
0.594922 -4 2.36536e-09 
1.19071 -4 -3.47088e-09 
1.49388 -4 -1.6156e-10 
1.72583 -4 -1.50412e-09 
1.96493 -4 -9.38584e-10 
2.16523 -4 -1.39751e-10 
2.37106 -4 -3.52175e-10 
2.5856 -4 -4.39935e-10 
2.81343 -4 -9.71368e-11 
3.05923 -4 5.07979e-11 
3.30207 -4 -2.41424e-10 
3.56892 -4 4.23993e-11 
3.87918 -4 2.58492e-10 
4.18816 -4 -1.49612e-11 
4.49296 -4 -2.14141e-11 
4.79851 -4 4.96417e-12 
5.10001 -4 -8.4197e-11 
5.39937 -4 -4.23121e-11 
5.70548 -4 3.01716e-11 
5.99417 -4 1.83043e-11 
6.28542 -4 1.54887e-11 
6.56747 -4 7.60232e-12 
6.87193 -4 -1.15033e-11 
7.16458 -4 1.57311e-12 
7.46659 -4 1.30353e-12 
7.7655 -4 -5.20476e-12 
8.06915 -4 4.53155e-12 
8.36719 -4 2.08439e-11 
8.66868 -4 1.46829e-11 
8.95624 -4 1.82133e-12 
9.29631 -4 1.27738e-12 
9.62461 -4 1.21701e-12 
9.92798 -4 3.868e-12 
10.3002 -4 3.06921e-12 
10.6239 -4 2.18956e-12 
10.9973 -4 2.72657e-12 
11.3234 -4 6.06816e-14 
11.6078 -4 -2.37606e-12 
12 -4 -1.35704e-12 
-12 -3.6612 -4.19603e-13 
-11.6808 -3.67558 -3.27887e-16 
-11.3505 -3.64951 -2.03296e-16 
-11.0305 -3.67034 2.72328e-16 
-10.7022 -3.6585 9.42364e-17 
-10.3762 -3.67404 3.03869e-16 
-10.046 -3.65368 8.51066e-17 
-9.73208 -3.68388 2.38842e-16 
-9.3899 -3.69246 1.56443e-16 
-9.04825 -3.67105 1.21384e-16 
-8.73188 -3.66694 1.22858e-15 
-8.4151 -3.66674 1.59927e-15 
-8.1005 -3.67067 1.75804e-15 
-7.78168 -3.66189 8.686e-16 
-7.47828 -3.6464 -1.60359e-15 
-7.18892 -3.64339 -1.42641e-15 
-6.86831 -3.68236 2.74102e-16 
-6.56346 -3.66309 7.82691e-16 
-6.25339 -3.67423 2.03842e-15 
-5.94208 -3.67619 3.69744e-15 
-5.64085 -3.66765 5.21321e-16 
-5.34098 -3.66746 -6.13989e-15 
-5.04768 -3.66001 -3.20643e-15 
-4.72657 -3.70695 -2.60281e-15 
-4.39249 -3.69598 -1.52743e-15 
-4.0931 -3.6538 5.62972e-15 
-3.76697 -3.71052 1.68404e-14 
-3.42508 -3.69599 4.0857e-15 
-3.10799 -3.68197 6.88818e-16 
-2.81693 -3.70643 1.16908e-14 
-2.65034 -3.44866 -2.51241e-15 
-2.52542 -3.71635 -4.36947e-13 
-2.31698 -3.61342 -1.39436e-14 
-2.11682 -3.6285 -2.86612e-14 
-1.9206 -3.64489 -2.16669e-13 
-1.73328 -3.59623 4.30972e-13 
-1.53385 -3.56964 8.3264e-14 
-1.30243 -3.65792 -7.93916e-12 
-0.880447 -3.67191 -2.05556e-12 
-0.355182 -3.63657 -8.39516e-09 
0.579875 -3.62206 9.36249e-09 
1.19598 -3.70451 3.94707e-12 
1.60722 -3.62923 1.64531e-13 
1.82925 -3.42733 3.53597e-14 
1.88636 -3.7164 3.84028e-13 
2.13832 -3.6585 -3.864e-14 
2.35669 -3.66978 -6.40924e-15 
2.58289 -3.67498 3.86994e-14 
2.82636 -3.66828 2.53656e-15 
3.07055 -3.63867 4.85947e-15 
3.33866 -3.66068 1.36803e-14 
3.63513 -3.69894 -1.241e-14 
3.93817 -3.68924 -2.53243e-14 
4.23819 -3.67858 4.30132e-15 
4.54311 -3.67671 2.54708e-15 
4.84561 -3.671 9.12315e-16 
5.14613 -3.66922 8.04336e-15 
5.45273 -3.67695 2.83284e-15 
5.74579 -3.65825 -2.78236e-15 
6.04008 -3.66147 -1.60376e-15 
6.32876 -3.64989 -1.14123e-15 
6.63082 -3.67462 -3.88586e-16 
6.92954 -3.66064 1.00958e-15 
7.23213 -3.66827 -2.24129e-16 
7.5346 -3.66337 1.06446e-17 
7.83801 -3.66777 3.18339e-16 
8.13971 -3.65936 -8.37096e-16 
8.44279 -3.66065 -2.07353e-15 
8.73826 -3.64188 -8.96983e-16 
9.06135 -3.69619 -2.7968e-16 
9.39224 -3.68033 -1.36819e-16 
9.70375 -3.64973 -2.0382e-16 
10.0492 -3.71146 -5.76175e-16 
10.3849 -3.66505 -3.32406e-16 
10.7416 -3.70792 -3.47952e-16 
11.077 -3.66414 -2.38996e-16 
11.3733 -3.61483 2.39875e-17 
11.7149 -3.72061 2.81371e-16 
12 -3.62084 1.18735e-12 
-12 -3.33898 1.23158e-12 
-11.669 -3.3388 -1.84167e-16 
-11.3427 -3.30742 -7.17656e-18 
-11.0189 -3.32904 -4.34891e-17 
-10.6858 -3.32434 2.04637e-18 
-10.3578 -3.34066 -9.32211e-18 
-10.0275 -3.32296 1.40032e-17 
-9.7027 -3.3422 -3.67346e-18 
-9.39534 -3.3808 -7.32754e-18 
-9.08499 -3.33516 7.6361e-18 
-8.77657 -3.33104 3.8454e-18 
-8.46735 -3.33669 -9.32682e-17 
-8.1533 -3.33587 -7.53118e-19 
-7.84444 -3.33844 1.16952e-17 
-7.53273 -3.31195 -6.67969e-17 
-7.22897 -3.29127 8.4595e-17 
-6.93213 -3.35438 -3.45324e-17 
-6.62771 -3.33265 1.52225e-17 
-6.32219 -3.34667 7.63922e-18 
-6.01652 -3.35424 4.20434e-17 
-5.7132 -3.3384 4.98897e-17 
-5.41582 -3.3385 3.49256e-17 
-5.12037 -3.32619 1.89427e-16 
-4.81514 -3.3867 -9.0528e-17 
-4.50727 -3.40469 -9.20366e-17 
-4.19764 -3.33115 8.50156e-17 
-3.87362 -3.38596 -2.4528e-16 
-3.56673 -3.40837 1.92971e-16 
-3.24213 -3.3814 9.12243e-17 
-2.94256 -3.38391 -1.8198e-15 
-2.67263 -3.16881 -1.15955e-15 
-2.40033 -3.32034 -5.28895e-16 
-2.16734 -3.26954 7.98038e-16 
-1.96202 -3.27862 -7.38335e-16 
-1.77078 -3.20712 1.72819e-16 
-1.56192 -3.16545 -5.08277e-17 
-1.29924 -3.26785 -1.3322e-16 
-0.934557 -3.02473 1.88283e-16 
-0.94443 -3.36092 2.9273e-18 
-0.360453 -3.23102 -1.8758e-09 
0.543128 -3.24853 2.32395e-09 
1.15382 -3.40884 1.04104e-14 
1.43654 -3.26976 -3.56832e-15 
1.67765 -3.13628 3.32039e-16 
1.87868 -3.02368 7.14061e-15 
2.03515 -3.29729 8.7343e-15 
2.25189 -3.33941 1.28867e-14 
2.47487 -3.35395 -9.35262e-16 
2.70689 -3.35279 -5.29997e-16 
2.95729 -3.30779 2.88611e-15 
3.24085 -3.32335 1.49055e-15 
3.53441 -3.37482 4.99976e-16 
3.83245 -3.3801 1.70611e-15 
4.14375 -3.36005 1.33727e-15 
4.4569 -3.35959 7.37108e-16 
4.77193 -3.34816 -1.07852e-16 
5.08534 -3.34192 -5.17594e-16 
5.39535 -3.35502 -2.8526e-16 
5.70242 -3.32506 2.80635e-17 
6.00356 -3.32729 -4.88664e-17 
6.30323 -3.31118 9.66163e-17 
6.60573 -3.34418 -3.11915e-17 
6.91011 -3.32894 1.76069e-16 
7.21598 -3.33713 2.27228e-18 
7.52401 -3.3296 1.32891e-17 
7.83069 -3.3318 9.42663e-18 
8.13719 -3.32248 -1.16552e-17 
8.43995 -3.31607 -7.32645e-20 
8.75955 -3.31672 -6.68304e-18 
9.07834 -3.37841 2.27731e-18 
9.39255 -3.34262 1.47357e-19 
9.70786 -3.308 -5.96883e-18 
10.0176 -3.39441 5.36364e-18 
10.3201 -3.32016 -2.13228e-18 
10.6469 -3.39012 1.96723e-18 
10.9771 -3.34824 -2.7536e-16 
11.2958 -3.26311 -1.5536e-16 
11.6347 -3.37177 8.96409e-17 
12 -3.32301 -2.24014e-12 
-12 -3.01067 -1.31586e-12 
-11.6558 -3.01089 8.42134e-17 
-11.313 -2.97242 7.18134e-18 
-10.9726 -3.00273 6.18715e-17 
-10.6357 -2.99335 -2.49702e-16 
-10.3066 -3.00767 9.82832e-18 
-9.97759 -2.99203 -2.0061e-17 
-9.66134 -3.00133 9.29909e-18 
-9.35592 -3.03652 8.57446e-18 
-9.04824 -2.99235 -6.17701e-18 
-8.73762 -2.9938 5.00819e-20 
-8.4254 -3.00675 5.85916e-17 
-8.11465 -3.00196 1.73695e-16 
-7.80682 -3.00456 -2.49628e-16 
-7.49922 -2.9769 -2.58975e-17 
-7.19222 -2.95799 1.56808e-17 
-6.89623 -3.01951 9.30828e-18 
-6.58792 -3.00572 -7.60523e-18 
-6.28375 -3.02196 -4.88258e-17 
-5.98366 -3.02591 -8.79617e-18 
-5.68701 -3.00619 6.96291e-18 
-5.39248 -3.00642 3.74789e-17 
-5.09013 -3.00144 -6.59705e-17 
-4.79599 -3.06773 -4.41958e-17 
-4.49074 -3.08413 4.62336e-17 
-4.20262 -2.98511 -2.16781e-16 
-3.91131 -3.07542 -7.57768e-17 
-3.58936 -3.08085 1.79227e-16 
-3.28894 -3.09012 5.04254e-16 
-2.9624 -3.06668 -2.83446e-16 
-2.73237 -2.86553 -1.74537e-15 
-2.45345 -2.98091 -4.31191e-16 
-2.23161 -2.92736 -3.11194e-16 
-2.02316 -2.91489 1.61454e-15 
-1.83685 -2.82158 2.34844e-15 
-1.6121 -2.79842 -4.21473e-16 
-1.30982 -2.89673 4.90349e-16 
-0.92902 -2.65693 4.45787e-15 
-0.381342 -2.81806 -3.83791e-09 
0.519454 -2.40775 5.80518e-09 
0.527047 -2.8406 3.7187e-09 
1.08349 -2.6243 -5.64058e-15 
1.02605 -3.03579 -1.29689e-14 
1.40237 -2.8905 -6.52958e-15 
1.65821 -2.7616 3.864e-15 
1.96272 -2.7554 2.45959e-15 
2.14688 -2.99384 5.35656e-15 
2.37174 -3.0271 1.26372e-15 
2.60201 -3.02273 -1.87926e-15 
2.84521 -3.00851 -1.30978e-15 
3.1583 -3.02339 -3.38374e-16 
3.49004 -3.05823 -9.27776e-17 
3.80659 -3.05916 1.11911e-15 
4.12138 -3.04626 1.20294e-15 
4.44823 -3.04164 -1.89184e-17 
4.76829 -3.0298 -4.02783e-16 
5.07742 -3.0164 -2.94172e-16 
5.38359 -3.03246 5.40524e-17 
5.68878 -3.00133 -1.44918e-16 
5.99472 -2.99651 6.44692e-17 
6.29596 -2.98037 -5.43776e-17 
6.59664 -3.01391 2.94479e-19 
6.90461 -3.00284 7.39291e-18 
7.2105 -3.00595 2.42413e-17 
7.51381 -3.00079 4.69297e-17 
7.82419 -2.99858 -2.16775e-17 
8.1264 -2.9854 1.63627e-17 
8.43343 -2.97707 5.44477e-18 
8.74017 -2.98826 5.03258e-18 
9.06207 -3.04612 1.50083e-18 
9.37867 -3.00929 -1.57311e-19 
9.68552 -2.96755 -7.07692e-20 
10.0093 -3.04141 1.54869e-19 
10.3355 -2.98315 4.14409e-18 
10.6567 -3.05798 1.07862e-18 
10.9789 -3.00491 -5.0152e-17 
11.3295 -2.94507 -1.37168e-17 
11.6611 -3.06102 4.05252e-17 
12 -3.00056 -1.55617e-13 
-12 -2.69101 -1.2262e-12 
-11.657 -2.69012 6.46507e-17 
-11.3317 -2.63595 -6.41484e-18 
-10.9936 -2.67656 2.25335e-16 
-10.6544 -2.66655 -1.57706e-16 
-10.3166 -2.67487 -2.42801e-16 
-9.98894 -2.66333 3.04346e-16 
-9.65907 -2.66586 -8.42189e-19 
-9.34021 -2.69042 -5.23341e-18 
-9.02079 -2.6594 -1.15179e-16 
-8.70348 -2.66429 1.65049e-16 
-8.39003 -2.6768 -4.63041e-17 
-8.07538 -2.6717 3.06344e-17 
-7.76738 -2.67041 -2.27326e-16 
-7.45562 -2.6472 -2.87971e-16 
-7.14107 -2.63773 -2.21064e-17 
-6.83944 -2.69284 4.4924e-18 
-6.53039 -2.68301 1.47698e-16 
-6.23254 -2.69423 5.03475e-17 
-5.93927 -2.69233 -2.81923e-17 
-5.64304 -2.67497 -6.09482e-18 
[...]
POINT_DATA 1978 
VECTORS vectors float
2.89599e-06 -2.04532e-05 1 
1.86063e-05 -2.32242e-05 1 
1.30529e-05 -2.63834e-05 1 
1.1051e-05 -2.8818e-05 1 
8.36737e-06 -3.32268e-05 1 
3.83909e-06 -4.18283e-05 1 
-2.85388e-06 -5.36841e-05 1 
-1.08325e-05 -6.58528e-05 1 
-1.73055e-05 -6.9451e-05 1 
-2.34732e-05 -6.53307e-05 1 
-3.20396e-05 -6.77563e-05 1 
-4.23553e-05 -8.23736e-05 1 
-5.28373e-05 -0.000102584 1 
-5.8273e-05 -0.000120877 1 
-6.35222e-05 -0.000139589 1 
-8.17303e-05 -0.000161966 1 
-0.000127925 -0.0001955 1 
-0.000184545 -0.00024998 1 
-0.000213765 -0.000304287 1 
-0.000205037 -0.0003077 1 
-0.000152766 -0.000205488 1 
-0.000106621 -3.63522e-05 1 
-8.07297e-05 0.000115809 1 
-5.05882e-05 0.000208455 1 
-4.20465e-05 0.000377241 1 
-8.55737e-05 0.000478107 1 
6.14523e-05 0.00014245 1 
0.000526254 -0.00017187 1 
0.000703017 0.000535073 1 
0.000470532 0.00125413 0.999999 
0.000174575 0.00146859 0.999999 
-4.91268e-05 0.00090442 1 
-0.000104059 0.000442635 1 
-5.93702e-05 0.000319235 1 
-0.000114824 0.000434724 1 
-0.000241105 0.000395351 1 
-0.000620819 9.38478e-05 1 
-0.000926779 -0.000458234 0.999999 
-0.00102375 -0.000754064 0.999999 
-0.000872558 -0.000677545 0.999999 
0.00153243 -0.00304816 -0.999993 
0.00241973 -0.000777788 -0.999995 
0.00102958 0.00143646 -0.999998 
2.19826e-05 0.00358328 -0.999994 
-0.000736584 0.003917 -0.999992 
-0.00106972 0.00257475 -0.999996 
-0.00112521 0.0010229 -0.999999 
-0.000963796 -0.00024004 -0.999999 
-0.000528289 -0.000336922 -1 
-0.000106506 0.000346142 -1 
0.000103157 0.00117893 -0.999999 
0.000183212 0.00163952 -0.999999 
0.000192837 0.00149452 -0.999999 
0.00014973 0.00103288 -1 
0.000129362 0.00055943 -1 
0.000163254 0.000177346 -1 
0.000213072 -0.000113405 -1 
0.000245336 -0.000318461 -1 
0.000237741 -0.000421317 -1 
0.000211046 -0.000432896 -1 
0.00018375 -0.00038002 -1 
0.000155232 -0.000301127 -1 
0.000120659 -0.000228808 -1 
9.05056e-05 -0.000190267 -1 
8.03269e-05 -0.000164858 -1 
7.33531e-05 -0.000139174 -1 
6.22304e-05 -0.000109544 -1 
4.7557e-05 -8.05032e-05 -1 
3.33839e-05 -6.27169e-05 -1 
2.64618e-05 -6.21813e-05 -1 
2.35054e-05 -6.97246e-05 -1 
1.61954e-05 -6.67672e-05 -1 
8.41575e-06 -5.62585e-05 -1 
-5.13632e-07 -4.40001e-05 -1 
-7.23479e-06 -3.69796e-05 -1 
-9.7133e-06 -3.13712e-05 -1 
-9.2448e-06 -2.80305e-05 -1 
-1.51678e-05 -2.50751e-05 -1 
-4.33124e-06 -2.10738e-05 -1 
-2.93513e-05 -2.94634e-05 1 
-1.95717e-05 -2.90304e-05 1 
-1.7123e-05 -2.86872e-05 1 
-1.6203e-05 -2.95911e-05 1 
-1.57742e-05 -3.40954e-05 1 
-1.25036e-05 -4.34689e-05 1 
-6.59704e-06 -5.68401e-05 1 
3.48126e-06 -6.82211e-05 1 
1.59674e-05 -7.49162e-05 1 
2.897e-05 -7.59392e-05 1 
3.95271e-05 -7.89822e-05 1 
4.8197e-05 -8.87042e-05 1 
5.60045e-05 -0.000105187 1 
6.64104e-05 -0.000128768 1 
8.1322e-05 -0.000160125 1 
0.000108162 -0.000200643 1 
0.000152509 -0.000246009 1 
0.0002233 -0.000293566 1 
0.000280554 -0.000305342 1 
0.000312038 -0.00025048 1 
0.000317359 -0.000122926 1 
0.000293389 3.89709e-05 1 
0.000253683 0.000188114 1 
0.000161447 0.000308848 1 
8.17714e-05 0.000419559 1 
-2.48495e-05 0.000401644 1 
-0.000256477 0.000208116 1 
-0.000620004 0.00027125 1 
-0.000697832 0.00058188 1 
-0.000456269 0.000757464 1 
-0.000569068 0.000209003 1 
-0.000163863 0.000505297 1 
-0.000117393 0.000123684 1 
6.22882e-05 -4.58236e-05 1 
0.000296986 -0.000122097 1 
0.000486567 -0.000267928 1 
0.000611928 -0.00039366 1 
0.000607371 -0.000455154 1 
0.000449124 -0.000633737 1 
0.000360396 -0.000550133 0.999999 
0.000108146 -0.00276222 -0.999996 
-0.00027046 -0.000900945 -1 
0.000338398 0.000905621 -1 
0.00117811 0.000565687 -0.999999 
0.000978816 0.00215049 -0.999997 
0.00173797 0.00146254 -0.999998 
0.00196065 0.00090123 -0.999998 
0.00162291 0.000472623 -0.999999 
0.00101868 0.000506592 -0.999999 
0.000481902 0.000877301 -1 
2.68611e-05 0.00129156 -0.999999 
-0.000268648 0.00152688 -0.999999 
-0.000465838 0.00136083 -0.999999 
-0.000552122 0.000964165 -1 
-0.000569751 0.000526762 -1 
-0.000567668 0.000163237 -1 
-0.000525558 -0.000113917 -1 
-0.00044114 -0.000313502 -1 
-0.000363396 -0.000413739 -1 
-0.000285204 -0.000429715 -1 
-0.000227006 -0.000385874 -1 
-0.000167834 -0.000314025 -1 
-0.000124665 -0.000252696 -1 
-9.41147e-05 -0.000205414 -1 
-8.08037e-05 -0.000169728 -1 
-7.27582e-05 -0.00013866 -1 
-6.44149e-05 -0.0001103 -1 
-5.5057e-05 -8.81401e-05 -1 
-4.69793e-05 -7.74022e-05 -1 
-3.40398e-05 -7.41637e-05 -1 
-2.33349e-05 -7.55176e-05 -1 
-1.15575e-05 -7.09358e-05 -1 
4.56575e-07 -5.78842e-05 -1 
9.03547e-06 -4.57016e-05 -1 
1.20913e-05 -3.58051e-05 -1 
1.4527e-05 -3.10226e-05 -1 
1.63419e-05 -2.99591e-05 -1 
1.66115e-05 -2.83007e-05 -1 
2.60706e-05 -2.89607e-05 -1 
-3.02666e-05 -4.0359e-05 1 
-2.31501e-05 -3.51274e-05 1 
-2.16061e-05 -3.2223e-05 1 
-2.22271e-05 -3.13731e-05 1 
-2.24743e-05 -3.65741e-05 1 
-1.90857e-05 -4.80732e-05 1 
-1.11579e-05 -6.42032e-05 1 
2.66908e-06 -7.69291e-05 1 
1.89584e-05 -8.38548e-05 1 
3.52088e-05 -8.89129e-05 1 
4.82047e-05 -9.11341e-05 1 
5.72976e-05 -9.60857e-05 1 
6.43655e-05 -0.000108495 1 
7.20585e-05 -0.000131866 1 
8.47395e-05 -0.000172278 1 
0.000112403 -0.000228189 1 
0.000166004 -0.000284011 1 
0.000239641 -0.000334088 1 
0.000319833 -0.000333912 1 
0.000383557 -0.000262485 1 
0.000416348 -0.000123097 1 
0.000410147 4.83838e-05 1 
0.000368157 0.000216651 1 
0.000287986 0.000344891 1 
0.000183939 0.000432678 1 
4.60665e-05 0.000463055 1 
-0.000204607 0.000396528 1 
-0.000526037 0.000294865 1 
-0.000798224 0.000259742 1 
-0.000825344 0.000254957 1 
-0.000846954 -0.000152313 1 
-0.000475404 -0.000171878 1 
-0.000277006 -0.000409905 1 
-3.34269e-05 -0.000536712 1 
7.79397e-05 -0.000728591 1 
0.000224618 -0.000831825 1 
0.000493052 -0.000750916 1 
0.000444925 -0.000766228 1 
0.000581682 -0.000663408 1 
0.000421982 -0.00041288 0.999999 
0.000309844 -0.00247118 -0.999996 
2.82375e-05 -0.00130026 -1 
0.000619253 -0.000805248 -0.999999 
0.00115452 -0.000560033 -1 
0.00161163 -0.000557418 -0.999999 
0.00162637 0.000198501 -0.999999 
0.00184291 0.000386218 -0.999998 
0.00177473 0.00049528 -0.999998 
0.00135134 0.000636281 -0.999999 
0.000740838 0.000898944 -0.999999 
0.000121943 0.00121729 -0.999999 
-0.000347948 0.00144801 -0.999999 
-0.000664021 0.00141921 -0.999999 
-0.000841356 0.00110588 -0.999999 
-0.000891211 0.000664466 -1 
-0.000860957 0.00025767 -1 
-0.00075096 -5.33861e-05 -1 
-0.000598618 -0.000279558 -1 
-0.000447103 -0.000410285 -1 
-0.000330053 -0.000447214 -1 
-0.000240067 -0.000409331 -1 
-0.000178849 -0.000345535 -1 
-0.000129114 -0.000283011 -1 
-9.94874e-05 -0.000229458 -1 
-8.42205e-05 -0.00018373 -1 
-7.70178e-05 -0.000146795 -1 
-7.05903e-05 -0.000119084 -1 
-6.36971e-05 -0.000100925 -1 
-5.50757e-05 -9.14906e-05 -1 
-4.32916e-05 -8.66404e-05 -1 
-2.85481e-05 -8.65397e-05 -1 
-1.14671e-05 -8.12775e-05 -1 
2.55312e-06 -6.68845e-05 -1 
1.29415e-05 -5.41522e-05 -1 
1.78104e-05 -4.01451e-05 -1 
1.9829e-05 -3.33539e-05 -1 
2.01708e-05 -3.26812e-05 -1 
2.10942e-05 -3.38157e-05 -1 
2.80002e-05 -3.83956e-05 -1 
-2.49156e-05 -4.81495e-05 1 
-2.03846e-05 -4.01483e-05 1 
-2.0683e-05 -3.51928e-05 1 
-2.3604e-05 -3.41373e-05 1 
-2.46379e-05 -4.09701e-05 1 
-2.11312e-05 -5.5288e-05 1 
-1.1961e-05 -7.28637e-05 1 
2.16083e-06 -8.68449e-05 1 
1.88828e-05 -9.40854e-05 1 
3.46408e-05 -9.94021e-05 1 
4.66637e-05 -0.000101724 1 
5.36928e-05 -0.000105557 1 
5.73229e-05 -0.000117331 1 
6.24479e-05 -0.000143345 1 
7.36339e-05 -0.000190951 1 
9.97863e-05 -0.000259037 1 
0.000150657 -0.000323781 1 
0.000218222 -0.000371124 1 
0.00029659 -0.000352168 1 
0.000361597 -0.000252624 1 
0.000395115 -8.79727e-05 1 
0.000396369 0.000103699 1 
0.000365183 0.000286676 1 
0.000313518 0.000402084 1 
0.000222272 0.000463478 1 
0.000105213 0.000483961 1 
-0.000114718 0.00044489 1 
-0.000430289 0.000290696 1 
-0.000740374 0.000129599 1 
-0.0009105 5.66132e-07 1 
-0.000999787 -0.00029605 1 
-0.000865312 -0.000546551 1 
-0.000742707 -0.000818656 1 
-0.000535603 -0.000962481 0.999999 
-0.000394368 -0.00110012 0.999999 
-0.000163488 -0.00112733 1 
0.000204507 -0.00099764 1 
6.12612e-05 -0.000903037 1 
0.000360934 -0.000433732 0.999999 
0.00158531 -0.00198892 -0.999996 
0.000772774 -0.00227144 -0.999996 
0.00165374 -0.0019284 -0.999997 
0.000676949 -0.00187383 -0.999998 
0.00130164 -0.00144747 -0.999998 
0.00177304 -0.00114753 -0.999998 
0.00191254 -0.000717191 -0.999998 
0.00176031 -0.000264071 -0.999999 
0.00166443 8.92162e-05 -0.999999 
0.00133662 0.000425086 -0.999999 
0.000813061 0.000762433 -1 
0.000124988 0.00111742 -0.999999 
-0.000471066 0.00134408 -0.999999 
-0.000840697 0.00133957 -0.999999 
-0.001021 0.00107834 -0.999999 
-0.00104825 0.000652743 -0.999999 
-0.000965668 0.0002549 -1 
-0.000792357 -4.96779e-05 -1 
-0.000586399 -0.00027174 -1 
-0.000407852 -0.000412569 -1 
-0.000275399 -0.000451911 -1 
-0.000183563 -0.000422088 -1 
-0.000130428 -0.00035931 -1 
-9.32842e-05 -0.000299875 -1 
-7.44665e-05 -0.000242663 -1 
-6.52729e-05 -0.000192509 -1 
-6.14583e-05 -0.000152384 -1 
-5.93169e-05 -0.000127658 -1 
-5.58398e-05 -0.00011173 -1 
-5.04183e-05 -0.000103403 -1 
-4.16454e-05 -9.84383e-05 -1 
-2.70031e-05 -9.68264e-05 -1 
-1.0493e-05 -9.14262e-05 -1 
4.63438e-06 -7.58165e-05 -1 
1.54515e-05 -5.89081e-05 -1 
2.03741e-05 -4.27859e-05 -1 
2.13658e-05 -3.56898e-05 -1 
1.93959e-05 -3.60387e-05 -1 
2.02472e-05 -3.90497e-05 -1 
2.44038e-05 -4.70119e-05 -1 
-1.66587e-05 -5.44944e-05 1 
-1.46962e-05 -4.42231e-05 1 
-1.69027e-05 -3.87091e-05 1 
-2.20912e-05 -3.70698e-05 1 
-2.44406e-05 -4.42953e-05 1 
-2.14227e-05 -5.99553e-05 1 
-1.26523e-05 -7.91409e-05 1 
1.91808e-06 -9.33993e-05 1 
1.89232e-05 -0.000100993 1 
3.48429e-05 -0.000106854 1 
4.5283e-05 -0.000109281 1 
4.95351e-05 -0.000112342 1 
5.00331e-05 -0.000123931 1 
5.23981e-05 -0.000152203 1 
6.24361e-05 -0.000205375 1 
8.74907e-05 -0.000281524 1 
0.000132954 -0.000349779 1 
0.000193788 -0.000390674 1 
0.000262161 -0.000355704 1 
0.000315378 -0.000236835 1 
0.000341643 -5.04316e-05 1 
0.000348155 0.000162402 1 
0.000332852 0.000349807 1 
0.000299719 0.000446392 1 
0.000238009 0.000479904 1 
8.64958e-05 0.000470381 1 
-0.000154452 0.000399065 1 
-0.0004808 0.000161135 1 
-0.000817567 -6.94495e-05 1 
-0.000983454 -0.000261022 0.999999 
-0.00105942 -0.000599818 0.999999 
-0.00102463 -0.000904527 0.999999 
-0.000903091 -0.0011478 0.999999 
-0.000780948 -0.00126338 0.999999 
-0.000669461 -0.00132104 0.999999 
-0.00117332 -0.00144108 0.999998 
-0.000217995 -0.0012002 0.999999 
-0.000594235 -0.00126472 0.999999 
-1.47161e-05 -0.000755459 0.999999 
-0.000684451 -0.00218672 0.999998 
0.00263821 -0.00168843 -0.999993 
0.0026399 -0.0019501 -0.999995 
0.00222107 -0.00157422 -0.999996 
0.00248038 -0.0012032 -0.999996 
0.00218739 -0.000834594 -0.999997 
0.0020461 -0.000434902 -0.999998 
0.00179348 -0.000326221 -0.999998 
0.00150284 6.0879e-05 -0.999999 
0.00103254 0.000449473 -1 
0.000369434 0.000880271 -1 
-0.00032903 0.00114677 -0.999999 
-0.000811147 0.00122813 -0.999999 
-0.00108188 0.00114104 -0.999999 
-0.00116911 0.000866957 -0.999999 
-0.00110598 0.000491659 -0.999999 
-0.000922014 0.00014937 -1 
-0.000677449 -0.000116236 -1 
-0.000465683 -0.000302339 -1 
-0.000295944 -0.000417404 -1 
-0.00018506 -0.000443235 -1 
-0.000110154 -0.00040644 -1 
-7.40629e-05 -0.000348989 -1 
-5.42757e-05 -0.000290661 -1 
-4.83636e-05 -0.000237002 -1 
-4.7297e-05 -0.000187903 -1 
-4.80352e-05 -0.000152576 -1 
-4.96993e-05 -0.000129661 -1 
-4.96525e-05 -0.000118403 -1 
-4.70813e-05 -0.000114502 -1 
-3.99964e-05 -0.000109007 -1 
-2.76783e-05 -0.00010684 -1 
-1.11373e-05 -0.000100285 -1 
4.62512e-06 -8.40627e-05 -1 
1.54106e-05 -6.54617e-05 -1 
2.06921e-05 -4.68312e-05 -1 
2.02305e-05 -3.84443e-05 -1 
1.57901e-05 -3.93669e-05 -1 
1.53586e-05 -4.41518e-05 -1 
1.55634e-05 -5.50908e-05 -1 
-4.34101e-08 -5.85776e-05 1 
-5.52058e-06 -4.87237e-05 1 
-9.58909e-06 -4.20631e-05 1 
-1.7889e-05 -4.00324e-05 1 
-2.2909e-05 -4.58456e-05 1 
-2.21948e-05 -6.07682e-05 1 
-1.48094e-05 -8.02179e-05 1 
-1.71823e-06 -9.61558e-05 1 
1.57087e-05 -0.000105996 1 
3.21144e-05 -0.000111546 1 
4.4563e-05 -0.000113865 1 
4.89759e-05 -0.000113324 1 
4.74614e-05 -0.000117816 1 
4.48398e-05 -0.000137782 1 
4.77687e-05 -0.000179595 1 
6.2676e-05 -0.000246455 1 
9.42392e-05 -0.000326634 1 
0.000138245 -0.000383504 1 
0.00019395 -0.00038804 1 
0.000242806 -0.000310932 1 
0.000274706 -0.00015626 1 
0.000293527 5.64948e-05 1 
0.00030042 0.000267209 1 
0.000295018 0.000426304 1 
0.000276728 0.00048231 1 
0.000214464 0.000478296 1 
2.64228e-05 0.00043653 1 
-0.000232723 0.000303334 1 
-0.000597849 -4.7979e-06 1 
-0.00084085 -0.000171745 1 
-0.00107643 -0.000415324 1 
-0.00119524 -0.000754157 0.999999 
-0.00120937 -0.0010295 0.999998 
-0.00126088 -0.00112709 0.999999 
-0.00135284 -0.00124388 0.999998 
-0.00214705 -0.00159561 0.999997 
-0.0016607 -0.00180266 0.999997 
-0.00203501 -0.00302501 0.999994 
-0.000787236 -0.00127795 0.999999 
-0.00186681 -0.00581153 0.999981 
0.00393364 -0.00186484 -0.99999 
0.00409424 -0.0021395 -0.99999 
0.00341139 -0.00193209 -0.999992 
0.00317832 -0.001478 -0.999994 
0.00371596 -0.00138081 -0.999992 
0.00261776 -0.000785201 -0.999996 
0.00230829 -0.000195154 -0.999997 
0.00164327 4.51947e-05 -0.999999 
0.00119377 0.000402022 -0.999999 
0.000550336 0.000727707 -1 
-0.000162108 0.000988288 -1 
-0.000753678 0.00107157 -0.999999 
-0.00110433 0.00101311 -0.999999 
-0.00123426 0.000837934 -0.999999 
-0.00116266 0.000530599 -0.999999 
-0.000941659 0.000208103 -1 
-0.00066024 -5.54265e-05 -1 
-0.00041613 -0.0002498 -1 
-0.000250911 -0.000372206 -1 
-0.000134734 -0.000417184 -1 
-6.80774e-05 -0.000395637 -1 
-3.79559e-05 -0.000344377 -1 
-2.85617e-05 -0.000289082 -1 
-3.03176e-05 -0.000234398 -1 
-3.57417e-05 -0.000189582 -1 
-4.00399e-05 -0.000153167 -1 
-4.44304e-05 -0.00013148 -1 
-4.7252e-05 -0.000121621 -1 
-4.7215e-05 -0.000120307 -1 
-4.141e-05 -0.000118507 -1 
-2.90629e-05 -0.000115413 -1 
-1.34808e-05 -0.000109113 -1 
2.69254e-06 -9.24995e-05 -1 
1.45142e-05 -7.21209e-05 -1 
2.00507e-05 -5.16562e-05 -1 
1.81039e-05 -4.20858e-05 -1 
1.11632e-05 -4.16882e-05 -1 
7.21412e-06 -4.68828e-05 -1 
2.23962e-06 -5.90983e-05 -1 
1.45858e-05 -5.48888e-05 1 
3.90295e-06 -4.47531e-05 1 
-7.8804e-06 -4.20539e-05 1 
-1.73795e-05 -4.57639e-05 1 
-2.21888e-05 -5.73249e-05 1 
-1.89047e-05 -7.61207e-05 1 
-7.82379e-06 -9.60838e-05 1 
8.28559e-06 -0.000109252 1 
2.6583e-05 -0.000116401 1 
4.24185e-05 -0.000117877 1 
5.15271e-05 -0.000114571 1 
5.12922e-05 -0.000109934 1 
4.57115e-05 -0.000115673 1 
4.17515e-05 -0.000141057 1 
4.65844e-05 -0.000190885 1 
6.48067e-05 -0.000263857 1 
9.33506e-05 -0.00033667 1 
0.00013309 -0.000385434 1 
0.000173775 -0.000369234 1 
0.000207326 -0.000270785 1 
0.000233736 -9.34884e-05 1 
0.000251759 0.000124063 1 
0.000263923 0.000333386 1 
0.000263797 0.00044965 1 
0.000260912 0.000484754 1 
0.000185593 0.000461819 1 
-1.42821e-05 0.00039152 1 
-0.000314315 0.000229058 1 
-0.000588969 9.82507e-05 1 
-0.000943761 -0.000123732 1 
-0.00118695 -0.000369966 0.999999 
-0.00149808 -0.000592316 0.999999 
-0.00182727 -0.000790526 0.999998 
-0.0022096 -0.00108942 0.999997 
-0.00339973 -0.00186489 0.999993 
-0.00278524 -0.00249999 0.999993 
-0.00358399 -0.00562157 0.999979 
-0.00718482 -0.0107374 0.999917 
-0.00519478 -0.00853905 0.99995 
-0.00484706 -0.0106051 0.999933 
0.00688548 -0.00384823 -0.999971 
0.00962301 -0.00483256 -0.999942 
0.00665741 -0.00326736 -0.999973 
0.00551667 -0.00277275 -0.99998 
0.00461494 -0.00225702 -0.999987 
0.00517442 -0.00237844 -0.999983 
0.00327144 -0.000748206 -0.999995 
0.00198421 0.000201851 -0.999998 
0.00122454 0.000573982 -0.999999 
0.000415564 0.000813296 -1 
-0.000300159 0.000954949 -1 
-0.000821037 0.000913389 -0.999999 
-0.00117058 0.000820158 -0.999999 
-0.00121689 0.000623219 -0.999999 
-0.00103424 0.000341635 -1 
-0.000743434 7.93e-05 -1 
-0.000466613 -0.00012339 -1 
-0.000261554 -0.000270619 -1 
-0.000131846 -0.000361781 -1 
-4.97206e-05 -0.000381402 -1 
-1.46746e-05 -0.000353883 -1 
-7.18309e-06 -0.000306672 -1 
-1.4429e-05 -0.000255333 -1 
-2.53482e-05 -0.000205426 -1 
-3.32987e-05 -0.000167454 -1 
-3.92053e-05 -0.000136831 -1 
-4.4056e-05 -0.000121631 -1 
-4.8632e-05 -0.000118806 -1 
-5.01843e-05 -0.000124682 -1 
-4.38305e-05 -0.000126051 -1 
-3.25438e-05 -0.000125684 -1 
-1.48136e-05 -0.000117661 -1 
2.57335e-06 -9.87912e-05 -1 
1.43808e-05 -7.78908e-05 -1 
1.91833e-05 -5.68436e-05 -1 
1.56857e-05 -4.63187e-05 -1 
6.03084e-06 -4.27072e-05 -1 
-2.10457e-06 -4.64251e-05 -1 
-1.32902e-05 -5.64623e-05 -1 
2.7909e-05 -4.31095e-05 1 
1.28344e-05 -3.98437e-05 1 
-1.87353e-06 -4.18522e-05 1 
-1.36699e-05 -4.94174e-05 1 
-2.00392e-05 -6.338e-05 1 
-1.77035e-05 -8.33245e-05 1 
-6.73467e-06 -0.000104199 1 
1.05009e-05 -0.000118898 1 
2.98177e-05 -0.000125707 1 
4.67736e-05 -0.000123849 1 
5.67796e-05 -0.000115338 1 
5.75071e-05 -0.000103902 1 
5.12645e-05 -0.000101988 1 
4.56069e-05 -0.00011894 1 
4.72288e-05 -0.000160254 1 
6.00837e-05 -0.000225512 1 
8.3017e-05 -0.000300573 1 
0.000112347 -0.000363662 1 
0.000143149 -0.000371643 1 
0.000169189 -0.000296939 1 
0.000190666 -0.000149419 1 
0.000209531 5.24649e-05 1 
0.000230497 0.000265974 1 
0.000242856 0.000403808 1 
0.000263587 0.000465682 1 
0.000237931 0.000467503 1 
8.61812e-05 0.00044156 1 
-0.000217099 0.000364945 1 
-0.000643267 0.00031747 1 
-0.00104248 0.000190383 1 
-0.00148648 -0.000117216 0.999999 
-0.00236913 -0.000500899 0.999997 
-0.00336019 -0.00126602 0.999994 
-0.00442706 -0.00321397 0.999985 
-0.00535426 -0.00526128 0.999973 
-0.00391611 -0.00409836 0.999983 
-0.00547822 -0.00735826 0.999957 
-0.0152759 -0.0167426 0.999743 
-0.0129098 -0.0169716 0.99977 
-0.0102262 -0.0177425 0.999788 
0.012932 -0.00696987 -0.99989 
0.0146741 -0.00645669 -0.999878 
0.00961953 -0.00639534 -0.999934 
0.00697846 -0.00357546 -0.999969 
0.00865842 -0.00557728 -0.999947 
0.00660887 -0.00346348 -0.999973 
0.00463363 -0.00188863 -0.999988 
0.00300901 -0.000430161 -0.999996 
0.00216361 5.64099e-05 -0.999998 
0.0010708 0.000615558 -0.999999 
0.00024539 0.000855106 -1 
-0.000371349 0.00086801 -1 
-0.000938596 0.000786986 -0.999999 
-0.0011398 0.000621612 -0.999999 
-0.00101795 0.000374017 -1 
-0.000739402 0.000137088 -1 
-0.000449679 -5.29667e-05 -1 
-0.000230319 -0.000200234 -1 
-9.46972e-05 -0.000302038 -1 
-2.05916e-05 -0.000339513 -1 
6.1918e-06 -0.000331697 -1 
4.25689e-06 -0.000287148 -1 
-1.16967e-05 -0.000240107 -1 
-2.79104e-05 -0.000191258 -1 
-3.81473e-05 -0.00015084 -1 
-4.39173e-05 -0.000122796 -1 
-4.83808e-05 -0.000110037 -1 
-5.2764e-05 -0.000112294 -1 
-5.43237e-05 -0.000124286 -1 
-4.92207e-05 -0.000134502 -1 
-3.61553e-05 -0.000137133 -1 
-1.86348e-05 -0.000130539 -1 
-1.27569e-07 -0.000110017 -1 
1.22045e-05 -8.91067e-05 -1 
1.75419e-05 -6.5092e-05 -1 
1.31805e-05 -5.08585e-05 -1 
1.97579e-06 -4.24514e-05 -1 
-1.03242e-05 -4.19849e-05 -1 
-2.62177e-05 -4.66141e-05 -1 
3.42565e-05 -2.7643e-05 1 
1.59453e-05 -3.11826e-05 1 
1.25303e-06 -4.0475e-05 1 
-1.10276e-05 -5.41492e-05 1 
-1.7005e-05 -7.31212e-05 1 
-1.3852e-05 -9.63749e-05 1 
-1.66806e-06 -0.000119306 1 
1.61499e-05 -0.000134242 1 
3.56745e-05 -0.000136878 1 
5.20104e-05 -0.000128802 1 
6.11727e-05 -0.000112518 1 
6.14771e-05 -9.48947e-05 1 
5.56442e-05 -8.82833e-05 1 
5.00906e-05 -0.00010259 1 
5.17157e-05 -0.000141693 1 
6.24738e-05 -0.000203156 1 
7.97023e-05 -0.000275303 1 
0.000101789 -0.000338518 1 
0.000126827 -0.000356193 1 
0.000142587 -0.000295878 1 
0.000159263 -0.000154989 1 
0.00017866 4.40479e-05 1 
0.000202108 0.000232445 1 
0.000231599 0.00037706 1 
0.000258865 0.000439612 1 
0.000247789 0.000466147 1 
0.000167157 0.000508657 1 
-2.93103e-05 0.00054933 1 
-0.000390636 0.000611967 1 
-0.000967643 0.000666111 0.999999 
-0.00159281 0.000397795 0.999999 
-0.00238068 -0.000122517 0.999997 
-0.00379336 -0.00134888 0.999992 
-0.00471344 -0.00299941 0.999985 
-0.00621931 -0.00647408 0.99996 
-0.00648039 -0.00892205 0.99994 
-0.0163477 -0.0161366 0.999736 
0.0146586 -0.006118 -0.999873 