# vtk DataFile Version 3.0 
Exported using Morpho https://github.com/Morpho-lang/morpho 
ASCII 
DATASET UNSTRUCTURED_GRID 

POINTS 1978 float 
-12 -4.00001 8.09314e-11 
-11.6516 -3.99999 3.96443e-10 
-11.3281 -4.00001 -1.00348e-10 
-10.985 -4.00001 -4.05814e-10 
-10.6609 -4 -5.99389e-11 
-10.3226 -4 -4.619e-10 
-10.0106 -4 -4.60313e-11 
-9.67371 -4 -3.65558e-10 
-9.32843 -4 -1.06827e-10 
-9.00898 -4.00001 -1.55229e-10 
-8.69598 -4 -2.19077e-09 
-8.3851 -4 -2.29931e-09 
-8.07167 -4 -3.0399e-09 
-7.76093 -4 -4.5017e-10 
-7.47763 -4 1.98035e-09 
-7.19478 -4 2.11231e-09 
-6.91268 -4 -2.5993e-12 
-6.59735 -4 -1.22279e-09 
-6.30113 -4 -2.7344e-09 
-5.9976 -4 -6.28096e-09 
-5.6949 -4 -3.02734e-09 
-5.40214 -4 1.03836e-08 
-5.1117 -4 6.2924e-09 
-4.82968 -4 9.61233e-10 
-4.50509 -4 7.22509e-09 
-4.18967 -4 -4.12128e-09 
-3.91242 -4 -3.65975e-08 
-3.58977 -4 -1.00025e-08 
-3.2892 -4 1.86987e-08 
-3.02939 -3.99999 3.4277e-09 
-2.77844 -3.99981 -2.79823e-08 
-2.5466 -4.00029 1.26184e-07 
-2.31895 -3.99997 2.68039e-08 
-2.14423 -4 1.44285e-07 
-1.9596 -4.00001 1.85967e-07 
-1.7718 -4 2.21014e-07 
-1.58102 -3.99993 -1.98114e-06 
-1.27498 -4.00007 4.48291e-06 
-0.93935 -3.99999 4.59667e-07 
-0.414213 -3.99997 1.52402e-06 
0.610243 -3.99995 7.42946e-07 
1.20987 -4.00001 -5.54387e-07 
1.48715 -4.00001 -2.65883e-08 
1.72408 -4.00007 -2.40536e-07 
1.95698 -4.00006 -1.50236e-07 
2.17021 -3.99998 -2.24175e-08 
2.3678 -3.99999 -5.6358e-08 
2.58281 -4.00001 -7.04016e-08 
2.81441 -4 -1.55505e-08 
3.05818 -4 8.12376e-09 
3.30255 -4 -3.86354e-08 
3.56815 -4 6.78287e-09 
3.87914 -4 4.137e-08 
4.18804 -4 -2.39219e-09 
4.49324 -4 -3.42684e-09 
4.79858 -4 7.93695e-10 
5.10008 -4 -1.34753e-08 
5.39938 -4 -6.77223e-09 
5.70563 -4 4.82844e-09 
5.99432 -4 2.92992e-09 
6.2855 -4 2.4791e-09 
6.56722 -4.00001 1.21673e-09 
6.87224 -4 -1.84082e-09 
7.16428 -4 2.51603e-10 
7.4666 -4 2.08577e-10 
7.76553 -4.00001 -8.32901e-10 
8.06914 -4 7.25404e-10 
8.36723 -4 3.33601e-09 
8.6687 -4 2.35011e-09 
8.95624 -4 2.91657e-10 
9.29608 -4 2.04456e-10 
9.62476 -4 1.94821e-10 
9.92785 -4 6.19055e-10 
10.3002 -4 4.9124e-10 
10.6238 -4 3.50461e-10 
10.9973 -4 4.36374e-10 
11.3234 -4 9.70622e-12 
11.6078 -4 -3.80245e-10 
12 -4 -2.17205e-10 
-12 -3.66072 -6.71122e-11 
-11.6816 -3.67375 -8.19127e-12 
-11.3531 -3.65167 -4.6112e-14 
-11.0316 -3.66995 1.10668e-11 
-10.7034 -3.65731 1.84191e-12 
-10.3788 -3.67633 9.01283e-12 
-10.0479 -3.65344 1.91513e-12 
-9.73263 -3.68237 5.72512e-12 
-9.39002 -3.69322 3.30916e-12 
-9.04787 -3.67188 3.94926e-12 
-8.73256 -3.6677 2.74325e-11 
-8.41638 -3.66634 4.54711e-11 
-8.10318 -3.66965 5.877e-11 
-7.78704 -3.66881 1.23225e-11 
-7.47559 -3.63993 -3.97137e-11 
-7.18701 -3.64198 -3.07931e-11 
-6.86859 -3.6829 3.46292e-12 
-6.56413 -3.66343 2.63827e-11 
-6.25369 -3.67404 6.27344e-11 
-5.94203 -3.67621 1.0748e-10 
-5.64063 -3.66782 1.242e-11 
-5.34075 -3.66734 -1.61189e-10 
-5.04804 -3.65916 -8.97257e-11 
-4.72833 -3.7056 -7.08772e-11 
-4.39526 -3.69714 -4.35501e-11 
-4.09868 -3.65538 1.89144e-10 
-3.77536 -3.70983 4.60594e-10 
-3.4395 -3.69599 1.32242e-10 
-3.12313 -3.67889 -2.31649e-10 
-2.82422 -3.70137 2.53951e-09 
-2.64375 -3.45564 -7.97257e-10 
-2.51805 -3.71834 -9.63704e-09 
-2.30533 -3.60885 -2.65096e-09 
-2.10027 -3.64361 -3.34931e-09 
-1.89819 -3.64019 -6.25428e-09 
-1.70946 -3.59012 6.79132e-09 
-1.5063 -3.57578 -1.22672e-08 
-1.27914 -3.65102 -4.88954e-07 
-0.902177 -3.68642 -9.98137e-08 
-0.413755 -3.62014 1.78782e-06 
0.615403 -3.62141 1.8062e-06 
1.16468 -3.74131 -9.18432e-10 
1.61306 -3.61736 -9.43052e-11 
1.84301 -3.4336 6.14251e-10 
1.89808 -3.7195 7.4693e-09 
2.12965 -3.65501 -5.77118e-11 
2.35939 -3.67377 1.9502e-09 
2.59726 -3.67406 6.88394e-10 
2.83852 -3.66445 2.98509e-10 
3.07887 -3.6405 -7.33884e-11 
3.33873 -3.65624 4.26093e-10 
3.63184 -3.69901 -2.66871e-10 
3.93512 -3.69141 -7.5151e-10 
4.23655 -3.67941 5.08589e-11 
4.54203 -3.6763 5.10311e-11 
4.84479 -3.67146 1.83086e-11 
5.14464 -3.66885 2.41991e-10 
5.45121 -3.67702 9.31497e-11 
5.74436 -3.6583 -7.35664e-11 
6.03891 -3.66107 -5.25326e-11 
6.32839 -3.64965 -3.34073e-11 
6.63008 -3.67661 -1.42177e-11 
6.92744 -3.65906 2.19307e-11 
7.23073 -3.66879 -4.13344e-12 
7.53423 -3.6643 3.88834e-13 
7.83917 -3.66754 9.40769e-12 
8.14239 -3.65886 -3.57018e-11 
8.44233 -3.66131 -5.16816e-11 
8.73729 -3.64186 -2.62739e-11 
9.06113 -3.6963 -6.85746e-12 
9.39253 -3.68116 -4.7771e-12 
9.70366 -3.64931 -5.43206e-12 
10.0491 -3.7118 -1.5246e-11 
10.3844 -3.66486 -8.50513e-12 
10.7414 -3.70815 -9.93319e-12 
11.077 -3.66426 -6.70782e-12 
11.3732 -3.61514 8.50002e-13 
11.7149 -3.72094 6.74246e-12 
12 -3.62089 1.8997e-10 
-12 -3.33986 1.97065e-10 
-11.6699 -3.33488 -6.72205e-12 
-11.3458 -3.3085 -7.63224e-14 
-11.024 -3.32828 -7.40153e-15 
-10.6888 -3.32584 1.08462e-13 
-10.3598 -3.34212 -8.82495e-14 
-10.0293 -3.32306 2.21639e-13 
-9.70336 -3.3409 -9.36161e-14 
-9.39295 -3.38253 1.70331e-13 
-9.08457 -3.33544 -3.61442e-13 
-8.77622 -3.33123 3.54324e-13 
-8.46842 -3.33716 -1.48209e-14 
-8.15395 -3.33502 1.99302e-13 
-7.84442 -3.33976 -3.52696e-13 
-7.53521 -3.31424 -1.1738e-13 
-7.22748 -3.28858 2.15656e-13 
-6.93198 -3.35503 -1.00504e-12 
-6.6275 -3.33283 3.56909e-13 
-6.32196 -3.34644 -3.57668e-13 
-6.01627 -3.35434 2.27062e-13 
-5.71268 -3.33851 -6.37951e-13 
-5.41581 -3.33846 1.8041e-12 
-5.12061 -3.32548 3.58976e-14 
-4.81403 -3.38541 1.31566e-13 
-4.50381 -3.40651 3.084e-13 
-4.19491 -3.33108 4.56325e-13 
-3.87722 -3.38654 -1.05231e-12 
-3.57288 -3.40447 -3.17683e-13 
-3.25047 -3.38116 -3.59547e-10 
-2.93807 -3.38585 4.4921e-10 
-2.66562 -3.17032 1.4155e-11 
-2.39321 -3.31902 3.78155e-10 
-2.15785 -3.26413 -9.86002e-12 
-1.95777 -3.28351 1.86592e-11 
-1.76458 -3.21411 9.25667e-11 
-1.56068 -3.16433 -2.75377e-11 
-1.29693 -3.25908 1.71096e-10 
-0.947514 -3.02094 3.21782e-10 
-0.958425 -3.36225 -5.0419e-10 
-0.452454 -3.22303 4.43433e-07 
0.628435 -3.23617 -3.04706e-07 
1.19805 -3.42592 2.06309e-10 
1.44179 -3.23813 3.37751e-11 
1.66667 -3.18838 -3.06276e-10 
1.86769 -3.03577 -1.4454e-10 
2.02306 -3.29346 -6.28222e-11 
2.238 -3.33469 7.48891e-12 
2.46323 -3.35294 -4.9624e-13 
2.70067 -3.34479 -2.15422e-11 
2.95125 -3.30925 1.01516e-11 
3.23559 -3.31774 3.93195e-11 
3.53162 -3.37435 -2.40969e-12 
3.83078 -3.38333 4.69818e-12 
4.13919 -3.36366 -4.73485e-13 
4.45541 -3.3582 -1.59843e-13 
4.77238 -3.34874 7.65372e-13 
5.08475 -3.34174 -7.86443e-13 
5.39523 -3.35515 5.21286e-13 
5.70297 -3.32502 1.39146e-13 
6.00408 -3.32686 2.19506e-12 
6.30345 -3.31114 1.68967e-12 
6.60601 -3.34373 -5.19575e-13 
6.91209 -3.33054 2.86175e-14 
7.21844 -3.33731 1.58005e-13 
7.5252 -3.33104 1.81886e-13 
7.83024 -3.33326 4.66078e-13 
8.13522 -3.32302 9.84823e-12 
8.4414 -3.31595 -9.76188e-12 
8.7601 -3.3164 -2.32099e-13 
9.07805 -3.37918 -6.04985e-14 
9.39218 -3.34339 1.11242e-13 
9.70677 -3.30709 3.45086e-13 
10.0165 -3.39467 -8.5021e-14 
10.32 -3.3207 -1.08271e-13 
10.6473 -3.39061 -7.55368e-14 
10.9776 -3.34844 -4.38602e-14 
11.2963 -3.26332 -2.46293e-14 
11.6349 -3.37256 2.49411e-12 
12 -3.3231 -3.58507e-10 
-12 -3.01038 -2.10598e-10 
-11.6553 -3.00706 1.29323e-12 
-11.3109 -2.97275 1.99273e-13 
-10.9695 -3.00326 9.99183e-15 
-10.6338 -2.99358 -4.06875e-14 
-10.3048 -3.00891 1.99603e-13 
-9.97552 -2.99282 -2.43845e-13 
-9.65764 -3.00273 -1.2284e-13 
-9.3549 -3.03615 8.39139e-14 
-9.04749 -2.99325 -5.10814e-14 
-8.73785 -2.99251 -1.09493e-13 
-8.42564 -3.00792 9.42069e-15 
-8.11534 -3.00126 2.87595e-14 
-7.80733 -3.00479 -4.29174e-14 
-7.50033 -2.97894 -5.66298e-14 
-7.19267 -2.95713 -1.41345e-13 
-6.89636 -3.02018 1.01085e-12 
-6.5883 -3.00495 -6.47729e-13 
-6.28412 -3.02154 -6.23751e-15 
-5.98326 -3.0268 -1.0451e-12 
-5.68756 -3.00554 2.4163e-12 
-5.39277 -3.00609 -2.73471e-12 
-5.08824 -3.00262 4.70808e-13 
-4.79259 -3.0703 -7.54781e-13 
-4.48851 -3.08514 3.5756e-13 
-4.20242 -2.98469 1.54971e-12 
-3.91019 -3.07562 -2.89682e-12 
-3.59091 -3.07938 -3.01003e-12 
-3.28649 -3.07737 3.16546e-10 
-2.97114 -3.08387 -3.39308e-10 
-2.71583 -2.86909 -8.33437e-12 
-2.44059 -2.9775 -1.26689e-11 
-2.21784 -2.93148 1.97335e-11 
-2.01231 -2.91381 -7.11375e-12 
-1.83138 -2.82331 -1.268e-11 
-1.6117 -2.78681 -3.10477e-11 
-1.30917 -2.90039 -6.89923e-11 
-0.947094 -2.66205 5.58502e-10 
-0.471725 -2.82587 -5.98707e-07 
0.610914 -2.40033 4.04347e-07 
0.620449 -2.82697 5.98328e-07 
1.09827 -2.60817 7.37138e-10 
1.03748 -3.03201 -1.16655e-09 
1.37544 -2.88766 -1.96283e-10 
1.65951 -2.76841 1.69832e-10 
1.95335 -2.75006 -4.68898e-10 
2.13172 -2.98139 6.32248e-12 
2.35694 -3.02367 -1.18174e-11 
2.59055 -3.02402 -1.11252e-11 
2.83871 -3.00594 2.79005e-12 
3.14977 -3.02268 -4.19215e-11 
3.49226 -3.05926 2.81948e-11 
3.81027 -3.06142 -4.55573e-12 
4.12948 -3.04746 9.84034e-13 
4.45421 -3.04327 9.76078e-14 
4.77088 -3.02874 -2.41966e-14 
5.07849 -3.01562 -6.40266e-13 
5.3839 -3.03304 2.09149e-12 
5.68891 -3.00089 -1.6258e-12 
5.99483 -2.99593 -3.75973e-13 
6.29651 -2.98064 -7.87139e-13 
6.59738 -3.01526 -2.92322e-13 
6.90517 -3.00332 2.00409e-13 
7.21126 -3.00602 2.44361e-15 
7.51439 -3.00178 7.55135e-15 
7.82377 -2.99908 1.47901e-13 
8.12611 -2.98578 4.61879e-13 
8.43327 -2.97902 -1.22715e-12 
8.7401 -2.98814 6.77523e-13 
9.06203 -3.04678 -1.51036e-13 
9.37819 -3.00916 -3.01948e-13 
9.68599 -2.96756 -6.40492e-14 
10.0106 -3.04239 9.6955e-14 
10.3366 -2.9828 6.40376e-16 
10.6572 -3.05874 5.95405e-14 
10.9793 -3.00512 -7.99261e-15 
11.33 -2.94508 -2.25665e-15 
11.6613 -3.0618 1.29954e-12 
12 -3.00065 -2.48974e-11 
-12 -2.69131 -1.96242e-10 
-11.6533 -2.6894 1.09267e-12 
-11.3297 -2.63523 -1.31552e-13 
-10.9907 -2.67685 3.59961e-14 
-10.6518 -2.66432 -2.45693e-14 
-10.3153 -2.67574 -3.83328e-14 
-9.98878 -2.66318 4.7806e-14 
-9.65959 -2.66671 1.26104e-13 
-9.34075 -2.69034 -6.5989e-14 
-9.0217 -2.65974 -1.79703e-14 
-8.70364 -2.66353 2.64069e-14 
-8.39068 -2.67736 -7.41874e-15 
-8.07541 -2.6717 4.9517e-15 
-7.76749 -2.67012 -3.66009e-14 
-7.45574 -2.64816 -4.61277e-14 
-7.13988 -2.6367 -3.99622e-15 
[...]
POINT_DATA 1978 
VECTORS vectors float
-2.25313e-05 -2.19992e-05 1.00001 
-1.31971e-05 -2.32543e-05 1.00001 
-1.02977e-05 -2.62919e-05 1.00001 
-9.49465e-06 -2.87413e-05 1.00001 
-7.36901e-06 -3.3027e-05 1.00001 
-3.47091e-06 -4.13994e-05 1.00001 
2.61956e-06 -5.36135e-05 1.00001 
9.2044e-06 -6.64292e-05 1.00001 
1.409e-05 -6.9778e-05 1.00001 
2.02601e-05 -6.38001e-05 1.00001 
3.01051e-05 -6.56554e-05 1.00001 
4.04362e-05 -8.17597e-05 1.00001 
4.92327e-05 -0.000103643 1.00001 
5.8073e-05 -0.000121164 1.00001 
6.57419e-05 -0.000137627 1.00001 
8.25798e-05 -0.000157759 1.00001 
0.000121835 -0.000190046 1.00001 
0.000181257 -0.000247409 1.00001 
0.000224277 -0.00031122 1.00001 
0.000205124 -0.000323622 1.00001 
0.000141956 -0.000219467 1.00001 
9.554e-05 -4.08393e-05 1.00001 
9.08133e-05 0.000116863 1.00001 
6.26236e-05 0.000198289 1.00001 
-1.88019e-05 0.000377743 1.00001 
0.000112916 0.000522163 1.00001 
0.000154516 0.000126422 1.00001 
-0.000555694 -0.000279849 1.00001 
-0.000994902 0.000556983 1.00001 
-0.000694778 0.00137264 1.00001 
-0.000207665 0.00164829 1 
0.000268358 0.000903777 1.00001 
0.000259797 0.000451635 1.00001 
5.16414e-05 0.00030023 1.00001 
0.000163927 0.000494678 1.00001 
0.000612948 0.000476588 1.00001 
0.00086683 0.000149366 1.00001 
0.000874468 -0.000453061 1.00001 
0.000589853 -0.000807098 1.00001 
0.000487769 -0.000926831 0.99997 
-0.000517069 -0.00342323 -0.999967 
-0.00186846 -0.0007268 -1.00001 
-0.00164853 0.00150556 -1 
-0.000250269 0.00397363 -0.999999 
0.00147261 0.00426398 -0.999994 
0.00262937 0.0026699 -0.999998 
0.00270539 0.00105917 -1 
0.00172522 -0.000396133 -1 
0.000622984 -0.000461697 -1.00001 
-6.35518e-05 0.000289833 -1.00001 
-0.000270763 0.00123699 -1.00001 
-0.000199653 0.00172171 -1.00001 
-0.000169477 0.00153869 -1.00001 
-0.000118017 0.00103702 -1.00001 
-0.000103911 0.000550919 -1.00001 
-0.000156911 0.000169472 -1.00001 
-0.000210524 -0.000124714 -1.00001 
-0.000240183 -0.000334695 -1.00001 
-0.000234469 -0.000434728 -1.00001 
-0.000217975 -0.000442059 -1.00001 
-0.000198088 -0.000384734 -1.00001 
-0.000164999 -0.000300174 -1.00001 
-0.000116391 -0.000224585 -1.00001 
-8.43896e-05 -0.000187494 -1.00001 
-7.67807e-05 -0.0001643 -1.00001 
-7.25025e-05 -0.000139829 -1.00001 
-6.20483e-05 -0.000110038 -1.00001 
-4.85268e-05 -7.89262e-05 -1.00001 
-3.28788e-05 -5.992e-05 -1.00001 
-2.31002e-05 -6.04333e-05 -1.00001 
-1.93616e-05 -7.00296e-05 -1.00001 
-1.53809e-05 -6.71956e-05 -1.00001 
-8.1001e-06 -5.57784e-05 -1.00001 
1.39818e-06 -4.34061e-05 -1.00001 
6.16141e-06 -3.69531e-05 -1.00001 
7.85357e-06 -3.152e-05 -1.00001 
8.19947e-06 -2.80148e-05 -1.00001 
1.05481e-05 -2.50669e-05 -1.00001 
1.76023e-05 -2.24193e-05 -1.00001 
-3.07171e-05 -3.10208e-05 1.00001 
-2.1565e-05 -2.94827e-05 1.00001 
-1.88204e-05 -2.88348e-05 1.00002 
-1.82097e-05 -2.94377e-05 1.00001 
-1.77444e-05 -3.3699e-05 1.00002 
-1.43486e-05 -4.36914e-05 1.00001 
-7.80267e-06 -5.78674e-05 1.00002 
4.06446e-06 -7.00447e-05 1.00002 
1.87192e-05 -7.65072e-05 1.00001 
3.3137e-05 -7.66771e-05 1.00002 
4.45538e-05 -7.9117e-05 1.00001 
5.40627e-05 -8.90505e-05 1.00002 
6.34684e-05 -0.000105643 1.00001 
7.43266e-05 -0.000128996 1.00002 
8.89176e-05 -0.000161795 1.00002 
0.00011633 -0.00020289 1.00001 
0.000170285 -0.000250281 1.00001 
0.000252276 -0.000303672 1.00001 
0.000322037 -0.00031891 1.00001 
0.000356365 -0.000262783 1.00001 
0.000358769 -0.000128534 1.00001 
0.000328897 4.05212e-05 1.00001 
0.000282154 0.000194327 1.00001 
0.000178598 0.000313746 1.00001 
9.36624e-05 0.000438237 1.00001 
-1.44137e-05 0.000431587 1.00001 
-0.000293986 0.000208422 1.00001 
-0.000748809 0.000248496 1.00001 
-0.000807547 0.000593694 1.00001 
-0.000483951 0.00077605 1.00001 
-0.000582944 0.000216743 1.00001 
-0.000126421 0.000569488 1.00001 
-0.000134871 9.72338e-05 1.00001 
5.74556e-05 -5.25786e-05 1.00001 
0.000369607 -0.000175358 1.00001 
0.000561094 -0.000263319 1.00001 
0.000723475 -0.000395703 1.00001 
0.000746207 -0.000430792 1.00002 
0.000569199 -0.000618671 1.00002 
0.000479044 -0.000520896 0.999936 
6.39499e-06 -0.00296587 -0.99994 
-0.00062435 -0.00106174 -1.00002 
0.000331672 0.000988165 -1.00002 
0.00124195 0.000622729 -1.00001 
0.000995804 0.00236463 -1.00001 
0.00193993 0.00150692 -1.00001 
0.00224657 0.000868542 -1.00001 
0.0018227 0.000458683 -1.00001 
0.0011172 0.000534861 -1.00001 
0.000520882 0.000927981 -1.00001 
2.99272e-05 0.00135279 -1.00001 
-0.000300113 0.00161038 -1.00001 
-0.00052935 0.00141531 -1.00001 
-0.000611118 0.000981892 -1.00001 
-0.000620254 0.000523548 -1.00001 
-0.000625948 0.000154271 -1.00001 
-0.000588336 -0.000125571 -1.00001 
-0.000496448 -0.000330754 -1.00001 
-0.000404452 -0.000434272 -1.00001 
-0.00031816 -0.000447012 -1.00001 
-0.000254544 -0.000396148 -1.00001 
-0.000191272 -0.000318929 -1.00001 
-0.000138806 -0.000254409 -1.00002 
-0.000104499 -0.000207036 -1.00001 
-9.11845e-05 -0.000171691 -1.00001 
-8.32925e-05 -0.000140383 -1.00001 
-7.25057e-05 -0.000110919 -1.00002 
-6.18267e-05 -8.79833e-05 -1.00001 
-5.23928e-05 -7.67472e-05 -1.00002 
-3.9293e-05 -7.46379e-05 -1.00001 
-2.70863e-05 -7.7346e-05 -1.00002 
-1.29157e-05 -7.29043e-05 -1.00002 
5.793e-07 -5.88119e-05 -1.00001 
1.05265e-05 -4.58311e-05 -1.00002 
1.39513e-05 -3.57119e-05 -1.00002 
1.62641e-05 -3.09006e-05 -1.00002 
1.76435e-05 -3.00915e-05 -1.00002 
1.8559e-05 -2.87395e-05 -1.00001 
2.69662e-05 -3.029e-05 -1.00001 
-3.05638e-05 -4.12795e-05 1.00001 
-2.35708e-05 -3.56968e-05 1.00002 
-2.22369e-05 -3.22422e-05 1.00001 
-2.34616e-05 -3.0889e-05 1.00002 
-2.4142e-05 -3.59228e-05 1.00001 
-2.08901e-05 -4.79594e-05 1.00002 
-1.28148e-05 -6.56752e-05 1.00001 
1.94849e-06 -7.94955e-05 1.00002 
2.00966e-05 -8.61344e-05 1.00002 
3.78023e-05 -9.10936e-05 1.00001 
5.17679e-05 -9.27128e-05 1.00002 
6.08679e-05 -9.65515e-05 1.00002 
6.77394e-05 -0.000108168 1.00002 
7.50867e-05 -0.000131495 1.00001 
8.57206e-05 -0.000172812 1.00002 
0.000112626 -0.000232411 1.00002 
0.000170011 -0.000292722 1.00001 
0.00025092 -0.000350295 1.00001 
0.000339268 -0.000353328 1.00001 
0.000410438 -0.000277511 1.00001 
0.000448273 -0.000128921 1.00001 
0.000442782 5.15138e-05 1.00001 
0.000394925 0.000227798 1.00002 
0.000310226 0.000362868 1.00001 
0.00019776 0.00045184 1.00001 
5.52458e-05 0.000491114 1.00002 
-0.000205682 0.000426385 1.00001 
-0.000554167 0.000303393 1.00001 
-0.000869657 0.000251003 1.00001 
-0.00090088 0.0002591 1.00001 
-0.000913765 -0.000199797 1.00001 
-0.000481602 -0.000176272 1.00001 
-0.000272209 -0.000393183 1.00001 
4.42713e-06 -0.000546222 1.00001 
7.78089e-05 -0.000762234 1.00001 
0.000219785 -0.000881543 1.00001 
0.000537631 -0.000798685 1.00002 
0.000534801 -0.000807203 1.00002 
0.000670197 -0.000666379 1.00002 
0.000464337 -0.000527992 0.999941 
0.000266601 -0.00263147 -0.999938 
-5.45542e-05 -0.00130213 -1.00002 
0.000590855 -0.00086904 -1.00002 
0.00110928 -0.000603668 -1.00001 
0.00167454 -0.000602317 -1.00001 
0.00166497 7.18192e-05 -1.00001 
0.0019363 0.000354677 -1.00001 
0.00189526 0.000512639 -1.00001 
0.00142138 0.000654216 -1.00001 
0.000767286 0.000924032 -1.00001 
0.00011414 0.00126856 -1.00001 
-0.000379671 0.00153086 -1.00001 
-0.000712122 0.00150537 -1.00001 
-0.000889829 0.00115805 -1.00001 
-0.000942708 0.000670203 -1.00001 
-0.000918736 0.000247827 -1.00001 
-0.000801486 -6.55691e-05 -1.00002 
-0.000632021 -0.000298929 -1.00001 
-0.000464282 -0.000436087 -1.00002 
-0.000341229 -0.000469236 -1.00001 
-0.000248735 -0.00042202 -1.00002 
-0.000185841 -0.000351327 -1.00001 
-0.000133429 -0.000288618 -1.00001 
-0.000101809 -0.000233648 -1.00001 
-8.68702e-05 -0.000185978 -1.00001 
-8.05474e-05 -0.000147965 -1.00001 
-7.46492e-05 -0.000120006 -1.00002 
-6.72593e-05 -0.000100869 -1.00002 
-5.85278e-05 -9.21455e-05 -1.00001 
-4.67055e-05 -8.82888e-05 -1.00001 
-3.04756e-05 -8.92387e-05 -1.00002 
-1.14065e-05 -8.4103e-05 -1.00002 
3.80428e-06 -6.869e-05 -1.00002 
1.45446e-05 -5.47142e-05 -1.00002 
1.93914e-05 -3.9579e-05 -1.00001 
2.11542e-05 -3.27367e-05 -1.00002 
2.10259e-05 -3.26052e-05 -1.00002 
2.15958e-05 -3.42878e-05 -1.00002 
2.82083e-05 -3.92593e-05 -1.00001 
-2.49631e-05 -4.87729e-05 1.00001 
-2.04529e-05 -4.06892e-05 1.00002 
-2.11868e-05 -3.52615e-05 1.00002 
-2.47887e-05 -3.33542e-05 1.00002 
-2.62852e-05 -4.00583e-05 1.00002 
-2.28774e-05 -5.55465e-05 1.00001 
-1.35401e-05 -7.48827e-05 1.00002 
1.25511e-06 -8.93654e-05 1.00002 
1.89739e-05 -9.71347e-05 1.00001 
3.56544e-05 -0.000101963 1.00002 
4.81404e-05 -0.000103545 1.00002 
5.49541e-05 -0.000106411 1.00002 
5.76873e-05 -0.000116966 1.00002 
6.19189e-05 -0.00014234 1.00002 
7.19117e-05 -0.000191313 1.00001 
9.7273e-05 -0.000264195 1.00001 
0.00014957 -0.000336135 1.00001 
0.000219878 -0.0003918 1.00001 
0.000303777 -0.000374979 1.00001 
0.000375163 -0.000268431 1.00001 
0.000412126 -9.2374e-05 1.00001 
0.000413225 0.000110286 1.00001 
0.000378202 0.000304638 1.00001 
0.000326923 0.000423448 1.00001 
0.000239553 0.000482495 1.00001 
0.0001227 0.000499674 1.00001 
-0.000100139 0.000482836 1.00001 
-0.000429081 0.000305647 1.00001 
-0.000781264 0.000106317 1.00002 
-0.000956222 3.74482e-05 1.00001 
-0.0010506 -0.000288471 1.00001 
-0.000930115 -0.000579842 1.00001 
-0.000780414 -0.000929786 1.00001 
-0.000577392 -0.00098717 1.00001 
-0.000392626 -0.00117086 1.00001 
-0.000137168 -0.00116151 1.00001 
0.000267231 -0.00104279 1.00002 
0.000143856 -0.000893178 1.00002 
0.000435217 -0.000427242 0.999941 
0.00168874 -0.00205843 -0.999923 
0.000728289 -0.00246156 -0.999941 
0.00174412 -0.00207798 -1.00002 
0.000596497 -0.00204517 -1.00002 
0.0012979 -0.00156961 -1.00001 
0.00181734 -0.00119097 -1.00001 
0.0019735 -0.00077173 -1.00001 
0.00181009 -0.000320227 -1.00001 
0.00171897 6.04696e-05 -1.00001 
0.00137591 0.000433872 -1.00001 
0.000820595 0.000795251 -1.00001 
0.000113131 0.00116791 -1.00001 
-0.000515667 0.00140683 -1.00001 
-0.000892231 0.00141518 -1.00002 
-0.00106944 0.00113009 -1.00001 
-0.00109671 0.000662833 -1.00001 
-0.00101095 0.000245822 -1.00001 
-0.00082074 -6.32288e-05 -1.00001 
-0.000598291 -0.000291378 -1.00002 
-0.000410055 -0.000439459 -1.00001 
-0.000275014 -0.000475843 -1.00002 
-0.000180482 -0.000435915 -1.00001 
-0.000127509 -0.000366672 -1.00002 
-9.13259e-05 -0.000306317 -1.00001 
-7.36019e-05 -0.000247693 -1.00001 
-6.50015e-05 -0.000194367 -1.00001 
-6.1628e-05 -0.000152686 -1.00002 
-5.97496e-05 -0.000128347 -1.00001 
-5.67413e-05 -0.0001127 -1.00002 
-5.12073e-05 -0.000104653 -1.00002 
-4.30437e-05 -0.000100206 -1.00002 
-2.76184e-05 -9.93311e-05 -1.00002 
-9.99422e-06 -9.45044e-05 -1.00002 
5.95687e-06 -7.80613e-05 -1.00002 
1.69523e-05 -5.92793e-05 -1.00002 
2.18409e-05 -4.188e-05 -1.00002 
2.25669e-05 -3.48621e-05 -1.00002 
1.99223e-05 -3.59779e-05 -1.00002 
2.04293e-05 -3.95502e-05 -1.00002 
2.43902e-05 -4.76384e-05 -1.00001 
-1.66347e-05 -5.52475e-05 1.00001 
-1.45497e-05 -4.46747e-05 1.00002 
-1.71082e-05 -3.86782e-05 1.00001 
-2.30267e-05 -3.62338e-05 1.00002 
-2.58781e-05 -4.32984e-05 1.00002 
-2.30262e-05 -6.03043e-05 1.00002 
-1.41314e-05 -8.11843e-05 1.00001 
9.71437e-07 -9.60201e-05 1.00002 
1.90022e-05 -0.000103332 1.00002 
3.57486e-05 -0.00010922 1.00002 
4.64534e-05 -0.000111562 1.00002 
5.03126e-05 -0.000113522 1.00002 
4.98392e-05 -0.000123851 1.00002 
5.10813e-05 -0.000150907 1.00001 
6.04606e-05 -0.000205602 1.00001 
8.53259e-05 -0.000287837 1.00001 
0.000130668 -0.000363462 1.00002 
0.000193699 -0.000412918 1.00001 
0.000268243 -0.000379292 1.00001 
0.000325283 -0.000252903 1.00001 
0.00035113 -5.35462e-05 1.00001 
0.000357165 0.000173731 1.00001 
0.000340916 0.000373605 1.00001 
0.00031168 0.000470697 1.00002 
0.000257139 0.000492815 1.00001 
0.000102632 0.000485629 1.00002 
-0.000139437 0.000440909 1.00001 
-0.000482972 0.000155254 1.00001 
-0.000864396 -0.000118031 1.00001 
-0.00103349 -0.000263385 1.00001 
-0.00108917 -0.000609593 1.00001 
-0.00108837 -0.000928538 1.00001 
-0.000946918 -0.00124227 1.00001 
-0.00076042 -0.00131729 1.00001 
-0.000635774 -0.00138356 1.00001 
-0.00114122 -0.00150338 1.00001 
-0.000142383 -0.00124021 1.00002 
-0.000568351 -0.00128721 1.00001 
-3.8024e-05 -0.000753315 0.999917 
-0.00088466 -0.00225861 0.999874 
0.00293159 -0.00173144 -0.999906 
0.00270968 -0.00206449 -1.00002 
0.00228987 -0.00163397 -1.00001 
0.002536 -0.00122166 -1.00001 
0.00222476 -0.000831973 -1.00001 
0.00207667 -0.000463018 -1.00001 
0.00183377 -0.000372024 -1.00001 
0.0015492 4.607e-05 -1.00001 
0.00105634 0.000449454 -1.00001 
0.000339248 0.000934285 -1.00001 
-0.00038519 0.00118861 -1.00001 
-0.000877373 0.00127701 -1.00001 
-0.00114244 0.00120354 -1.00001 
-0.00122255 0.000906598 -1.00001 
-0.00115596 0.000498297 -1.00001 
-0.00095596 0.000138185 -1.00001 
-0.000686112 -0.000131446 -1.00001 
-0.000461531 -0.000322285 -1.00001 
-0.000291362 -0.000442946 -1.00001 
-0.000181455 -0.000464902 -1.00001 
-0.000104797 -0.000418439 -1.00001 
-6.90477e-05 -0.000356092 -1.00001 
-5.17639e-05 -0.000296684 -1.00001 
-4.74239e-05 -0.000241479 -1.00001 
-4.66172e-05 -0.000189863 -1.00001 
-4.78062e-05 -0.000153365 -1.00001 
-5.02366e-05 -0.000130369 -1.00002 
-5.03884e-05 -0.000119851 -1.00001 
-4.83355e-05 -0.000116756 -1.00001 
-4.11727e-05 -0.000111264 -1.00002 
-2.82145e-05 -0.000109107 -1.00002 
-1.06083e-05 -0.00010335 -1.00002 
5.93478e-06 -8.64616e-05 -1.00002 
1.68674e-05 -6.58928e-05 -1.00002 
2.21042e-05 -4.5842e-05 -1.00002 
2.12402e-05 -3.74988e-05 -1.00002 
1.60608e-05 -3.92642e-05 -1.00002 
1.52843e-05 -4.46306e-05 -1.00002 
1.53836e-05 -5.58035e-05 -1.00001 
4.28216e-07 -5.91833e-05 1.00001 
-5.23962e-06 -4.92429e-05 1.00001 
-9.39502e-06 -4.22675e-05 1.00002 
-1.86186e-05 -3.935e-05 1.00002 
-2.43452e-05 -4.47273e-05 1.00002 
-2.37517e-05 -6.05504e-05 1.00002 
-1.61787e-05 -8.17956e-05 1.00002 
-2.78853e-06 -9.85744e-05 1.00002 
1.56202e-05 -0.000108156 1.00002 
3.31468e-05 -0.000113979 1.00002 
4.63072e-05 -0.000116954 1.00002 
5.05065e-05 -0.000115308 1.00002 
4.81477e-05 -0.000118007 1.00001 
4.41642e-05 -0.00013703 1.00001 
4.57004e-05 -0.000179662 1.00001 
6.02571e-05 -0.000249949 1.00001 
9.18901e-05 -0.000336779 1.00001 
0.000137121 -0.000401689 1.00001 
0.000197912 -0.000412032 1.00001 
0.000249829 -0.000332205 1.00001 
0.000280879 -0.000167448 1.00001 
0.000299004 5.94338e-05 1.00001 
0.000307287 0.000285984 1.00001 
0.000301873 0.000456117 1.00001 
0.000288743 0.000505706 1.00001 
0.000236987 0.000486211 1.00001 
4.69576e-05 0.000466593 1.00002 
-0.000221029 0.000342123 1.00002 
-0.000608497 -4.35487e-05 1.00001 
-0.000877049 -0.000222322 1.00001 
-0.00111701 -0.000398215 1.00001 
-0.00123781 -0.00081198 1.00001 
-0.00123265 -0.00113004 1.00001 
-0.00124518 -0.00118615 1.00001 
-0.00130238 -0.00125093 1.00001 
-0.00218187 -0.00155225 1.00001 
-0.00176574 -0.00184246 1.00001 
-0.00192643 -0.00303083 1.00002 
-0.000861576 -0.00119226 1.00002 
-0.00198902 -0.00588449 0.999837 
0.00420714 -0.00184946 -0.999881 
0.00428092 -0.00215127 -1.00001 
0.00338055 -0.00196688 -1.00001 
0.0032583 -0.00151358 -1.00001 
0.00375094 -0.00136108 -1.00001 
0.00260847 -0.000807086 -1.00001 
0.00234087 -0.000127692 -1.00001 
0.00167424 3.44943e-05 -1.00001 
0.00120347 0.000418292 -1.00001 
0.000544379 0.000755508 -1.00001 
-0.000226705 0.00103009 -1.00001 
-0.000828409 0.00110813 -1.00001 
-0.00118233 0.00105088 -1.00001 
-0.00130247 0.000872424 -1.00001 
-0.00121835 0.00054407 -1.00001 
-0.000974333 0.000201915 -1.00001 
-0.000665788 -6.78172e-05 -1.00001 
-0.000408227 -0.000266444 -1.00001 
-0.000242829 -0.000394551 -1.00001 
-0.000128718 -0.000437529 -1.00001 
-6.21604e-05 -0.00040764 -1.00001 
-3.26551e-05 -0.000351425 -1.00001 
-2.53085e-05 -0.00029438 -1.00001 
-2.89119e-05 -0.000237948 -1.00001 
-3.50488e-05 -0.000191984 -1.00001 
-4.00838e-05 -0.0001549 -1.00001 
-4.49683e-05 -0.000132516 -1.00001 
-4.80896e-05 -0.000122938 -1.00002 
-4.86664e-05 -0.000123083 -1.00002 
-4.29017e-05 -0.000121194 -1.00002 
-2.98105e-05 -0.000117675 -1.00002 
-1.32002e-05 -0.000111792 -1.00002 
3.672e-06 -9.4862e-05 -1.00002 
1.58252e-05 -7.27099e-05 -1.00002 
2.15685e-05 -5.07706e-05 -1.00002 
1.91588e-05 -4.12946e-05 -1.00002 
1.14106e-05 -4.15253e-05 -1.00002 
6.93535e-06 -4.72997e-05 -1.00002 
1.76344e-06 -5.97687e-05 -1.00001 
1.54154e-05 -5.52651e-05 1.00001 
4.44749e-06 -4.50932e-05 1.00002 
-8.00677e-06 -4.2015e-05 1.00002 
-1.84502e-05 -4.50813e-05 1.00002 
-2.4062e-05 -5.68577e-05 1.00002 
-2.06734e-05 -7.69426e-05 1.00002 
-9.02082e-06 -9.85367e-05 1.00002 
7.62648e-06 -0.000111793 1.00002 
2.69882e-05 -0.00011877 1.00002 
4.40366e-05 -0.000120721 1.00001 
5.36201e-05 -0.000117293 1.00001 
5.25187e-05 -0.000110449 1.00001 
4.52214e-05 -0.000114524 1.00001 
3.95073e-05 -0.000140494 1.00001 
4.36092e-05 -0.000191718 1.00001 
6.20764e-05 -0.000267673 1.00001 
9.14359e-05 -0.000347986 1.00001 
0.000132552 -0.000404516 1.00001 
0.000175691 -0.000392408 1.00001 
0.000210038 -0.000289202 1.00001 
0.000236252 -0.000101434 1.00001 
0.000256755 0.000130829 1.00001 
0.000268255 0.00035783 1.00001 
0.000265074 0.000478411 1.00001 
0.000273359 0.000503339 1.00001 
0.000213697 0.000473447 1.00002 
1.98397e-06 0.00040994 1.00002 
-0.000313664 0.000231715 1.00001 
-0.000610112 6.38425e-05 1.00002 
-0.000962843 -0.000121417 1.00001 
-0.00121182 -0.000388969 1.00001 
-0.00148147 -0.000665038 1.00001 
-0.00179065 -0.000769436 1.00001 
-0.0022224 -0.000967188 1.00001 
-0.00362571 -0.00183318 1.00001 
-0.00286613 -0.00252975 1.00001 
-0.00360223 -0.00571561 0.999995 
-0.00594281 -0.0106463 0.999934 
-0.00530827 -0.00823504 0.999981 
-0.00535522 -0.0119138 0.999787 
0.00672064 -0.00359586 -0.999825 
0.00961982 -0.00525663 -0.999959 
0.00670288 -0.00301921 -0.999998 
0.00553564 -0.00279636 -0.999999 
0.00498981 -0.00243955 -1 
0.00530189 -0.0024052 -0.999995 
0.00331032 -0.000638801 -1.00001 
0.00200744 0.000300569 -1.00001 
0.00122761 0.000634046 -1.00001 
0.000374083 0.000866243 -1.00002 
-0.000355744 0.000996855 -1.00001 
-0.000890486 0.00091884 -1.00001 
-0.00125785 0.000843332 -1.00001 
-0.00128993 0.000647033 -1.00001 
-0.00107505 0.000341286 -1.00001 
-0.000753469 6.92514e-05 -1.00001 
-0.00046021 -0.000134419 -1.00001 
-0.000250757 -0.000287407 -1.00001 
-0.000120648 -0.000382628 -1.00001 
-3.94361e-05 -0.000397068 -1.00001 
-6.7228e-06 -0.000362536 -1.00001 
-1.7067e-06 -0.000313025 -1.00001 
-1.16013e-05 -0.000259843 -1.00001 
-2.45005e-05 -0.000207682 -1.00001 
-3.28409e-05 -0.000169352 -1.00001 
-3.85141e-05 -0.000138112 -1.00001 
-4.36576e-05 -0.000121937 -1.00002 
-4.92968e-05 -0.000119786 -1.00001 
-5.19933e-05 -0.000127471 -1.00001 
-4.55908e-05 -0.000128983 -1.00002 
-3.36686e-05 -0.000128303 -1.00002 
-1.48883e-05 -0.000120711 -1.00002 
3.43187e-06 -0.000101143 -1.00002 
1.59712e-05 -7.85737e-05 -1.00002 
2.09823e-05 -5.61853e-05 -1.00002 
1.69518e-05 -4.56e-05 -1.00002 
6.28558e-06 -4.24954e-05 -1.00002 
-2.57949e-06 -4.66864e-05 -1.00002 
-1.41719e-05 -5.69674e-05 -1.00001 
2.88697e-05 -4.31257e-05 1.00001 
1.33625e-05 -3.98071e-05 1.00002 
-1.8526e-06 -4.17226e-05 1.00001 
-1.47596e-05 -4.90753e-05 1.00002 
-2.20127e-05 -6.29554e-05 1.00001 
-1.97109e-05 -8.42487e-05 1.00002 
-8.08327e-06 -0.000106336 1.00002 
1.04164e-05 -0.000121714 1.00002 
3.09213e-05 -0.000128695 1.00001 
4.91612e-05 -0.000127157 1.00002 
5.99072e-05 -0.000118164 1.00001 
5.99229e-05 -0.000104224 1.00001 
5.19196e-05 -0.000100484 1.00001 
4.47217e-05 -0.000117736 1.00001 
4.57991e-05 -0.000159918 1.00001 
5.92905e-05 -0.000227332 1.00001 
8.32481e-05 -0.000308627 1.00002 
0.000113331 -0.000381198 1.00001 
0.000145739 -0.00039352 1.00001 
0.000172495 -0.000315842 1.00001 
0.000192817 -0.00015979 1.00001 
0.000212475 5.47299e-05 1.00001 
0.000234277 0.0002855 1.00001 
0.000244575 0.000431102 1.00001 
0.000275512 0.000486817 1.00002 
0.000268196 0.000476982 1.00001 
0.000110397 0.000446914 1.00002 
-0.000200172 0.000349105 1.00002 
-0.000636769 0.000328321 1.00002 
-0.00103927 0.00024456 1.00002 