# vtk DataFile Version 3.0 
Exported using Morpho https://github.com/Morpho-lang/morpho 
ASCII 
DATASET UNSTRUCTURED_GRID 

POINTS 1978 float 
-12.0004 -4.00021 -6.15393e-09 
-11.6587 -4.00085 -3.06197e-08 
-11.3148 -4.00035 8.71097e-09 
-10.9831 -4.00069 3.02164e-08 
-10.6607 -4.00051 5.08091e-09 
-10.3211 -4.00071 3.45854e-08 
-10.0105 -4.0007 4.12069e-09 
-9.67359 -4.00061 2.75414e-08 
-9.32898 -4.00071 8.37802e-09 
-9.01019 -4.00073 1.30828e-08 
-8.69437 -4.00066 1.6714e-07 
-8.38482 -4.00062 1.76147e-07 
-8.07273 -4.00063 2.29382e-07 
-7.76161 -4.00054 3.52767e-08 
-7.47249 -4.00037 -1.4986e-07 
-7.19348 -4.00063 -1.58785e-07 
-6.9154 -4.0006 -1.7656e-09 
-6.59761 -4.00065 9.38665e-08 
-6.3006 -4.0006 2.11236e-07 
-5.99734 -4.00064 4.73128e-07 
-5.69417 -4.00065 2.18754e-07 
-5.40149 -4.00057 -7.74809e-07 
-5.11099 -4.00052 -4.79449e-07 
-4.82916 -4.00057 -8.6182e-08 
-4.50553 -4.00061 -5.34487e-07 
-4.18933 -4.00085 3.48037e-07 
-3.91122 -4.00035 2.74355e-06 
-3.58703 -4.00072 7.42313e-07 
-3.28246 -4.00024 -1.37766e-06 
-3.00537 -4.00091 -3.00346e-07 
-2.73338 -3.99999 -3.00367e-07 
-2.56054 -4.00046 -6.37108e-06 
-2.35289 -4.00064 -2.84781e-06 
-2.15078 -4.00061 -1.06569e-05 
-1.95238 -4.0009 -1.4134e-05 
-1.75945 -4.00077 -1.66079e-05 
-1.56019 -4.00078 5.91741e-05 
-1.35121 -4.00211 -0.000218824 
-0.936603 -4.00378 -3.24751e-05 
-0.420166 -3.97547 -0.000246613 
0.604664 -3.9738 -0.000193517 
1.25039 -4.00403 3.89175e-05 
1.53631 -4.00077 6.49226e-06 
1.71126 -4.00104 1.58884e-05 
1.92666 -4.00124 9.69983e-06 
2.13099 -4.00058 2.84198e-06 
2.35699 -4.00039 4.36215e-06 
2.57834 -4.00036 5.37355e-06 
2.81057 -4.00065 1.14827e-06 
3.04944 -4.00077 -5.81046e-07 
3.30973 -4.00031 2.93221e-06 
3.568 -4.00052 -4.96951e-07 
3.88024 -4.00083 -3.10633e-06 
4.18916 -4.00078 1.54272e-07 
4.49218 -4.00067 2.58296e-07 
4.79807 -4.00047 -4.96975e-08 
5.10171 -4.00057 1.01619e-06 
5.40023 -4.00069 5.14104e-07 
5.70653 -4.00052 -3.58218e-07 
5.99443 -4.00075 -2.25621e-07 
6.2881 -4.00036 -1.89077e-07 
6.56633 -4.00062 -9.1924e-08 
6.87113 -4.00047 1.36184e-07 
7.16431 -4.00057 -1.72573e-08 
7.46614 -4.00057 -1.51824e-08 
7.76751 -4.00045 6.11527e-08 
8.06721 -4.00051 -5.62778e-08 
8.3668 -4.00061 -2.51526e-07 
8.66991 -4.00047 -1.79167e-07 
8.95585 -4.00059 -2.42748e-08 
9.29449 -4.0008 -1.55964e-08 
9.6257 -4.00052 -1.52792e-08 
9.92697 -4.0007 -4.67187e-08 
10.3003 -4.00063 -3.74035e-08 
10.6236 -4.00073 -2.68234e-08 
10.9972 -4.00073 -3.2859e-08 
11.3233 -4.00032 -7.05085e-10 
11.6083 -4.00079 2.83562e-08 
12.0004 -4.00037 1.66629e-08 
-12.0006 -3.6659 4.73048e-09 
-11.6722 -3.68299 1.23125e-19 
-11.3574 -3.64871 9.11204e-19 
-11.0404 -3.66829 3.5794e-19 
-10.7084 -3.65843 1.09285e-19 
-10.3807 -3.67804 1.14786e-18 
-10.0475 -3.65247 3.33461e-20 
-9.73302 -3.68237 1.01938e-18 
-9.39102 -3.69294 -1.37183e-19 
-9.04989 -3.6713 -3.0233e-18 
-8.73137 -3.67083 -5.20579e-18 
-8.41449 -3.66606 1.24911e-17 
-8.10381 -3.66999 9.8697e-18 
-7.78917 -3.66765 1.06185e-17 
-7.47817 -3.6446 -8.49531e-18 
-7.18755 -3.63563 -1.74002e-17 
-6.86794 -3.68436 -9.03678e-18 
-6.5642 -3.66446 1.32123e-17 
-6.25412 -3.67381 2.52032e-17 
-5.9418 -3.67679 1.45202e-17 
-5.64053 -3.66772 -1.07213e-17 
-5.3401 -3.66693 -2.36085e-17 
-5.04744 -3.65972 -1.48407e-17 
-4.7292 -3.70674 -1.48462e-17 
-4.39644 -3.6985 -8.68369e-18 
-4.10008 -3.65669 4.44043e-17 
-3.7792 -3.70959 8.42198e-17 
-3.45521 -3.69839 7.14379e-18 
-3.14982 -3.67835 -4.38187e-17 
-2.87133 -3.68995 -2.4393e-17 
-2.6662 -3.52047 -3.06222e-17 
-2.47815 -3.63158 -8.60021e-17 
-2.27158 -3.63905 -1.62144e-16 
-2.07056 -3.64248 -2.18437e-16 
-1.87366 -3.63089 -8.57084e-16 
-1.69301 -3.60042 -3.32463e-15 
-1.49575 -3.58037 1.18769e-14 
-1.2373 -3.6704 -2.95869e-15 
-0.895657 -3.70175 8.88175e-15 
-0.353192 -3.63385 -2.63424e-15 
0.54382 -3.60752 2.40085e-15 
1.13797 -3.75365 8.65544e-16 
1.57608 -3.61749 2.17088e-16 
1.82834 -3.53462 -1.97823e-16 
1.95967 -3.66266 2.31475e-16 
2.1669 -3.65385 2.3573e-16 
2.37027 -3.68004 5.6307e-17 
2.60146 -3.66324 7.12826e-17 
2.83211 -3.66434 1.2582e-17 
3.07629 -3.66385 1.14858e-16 
3.32943 -3.64393 5.3098e-17 
3.6289 -3.69865 -5.63167e-17 
3.93433 -3.69153 -7.98078e-17 
4.23739 -3.68067 -1.37326e-17 
4.54051 -3.67626 1.11703e-17 
4.84179 -3.67121 2.87176e-17 
5.14337 -3.66937 2.02967e-17 
5.45069 -3.678 7.74957e-18 
5.74414 -3.65752 2.36272e-18 
6.03805 -3.66509 -8.23784e-18 
6.32429 -3.64434 -1.61358e-17 
6.62757 -3.6753 -1.41708e-17 
6.92773 -3.66075 8.24538e-18 
7.2308 -3.669 1.17405e-17 
7.53472 -3.66664 8.58489e-18 
7.83911 -3.66393 -9.34372e-18 
8.14132 -3.66262 -5.63544e-18 
8.44468 -3.66322 -1.36431e-17 
8.73767 -3.64012 5.26244e-18 
9.06073 -3.69532 3.09072e-18 
9.39263 -3.6851 -2.09065e-20 
9.70346 -3.64787 -4.72685e-19 
10.049 -3.71253 -8.58681e-19 
10.3846 -3.66514 -7.40246e-19 
10.7416 -3.70847 -7.83592e-19 
11.0764 -3.66444 -1.8846e-19 
11.3735 -3.61544 -1.93746e-19 
11.7152 -3.7217 -2.01787e-19 
12.001 -3.62173 -1.36294e-08 
-12.0006 -3.33165 -1.3845e-08 
-11.678 -3.33981 -1.24546e-18 
-11.3546 -3.29911 -2.86648e-19 
-11.0244 -3.33393 3.98394e-19 
-10.6897 -3.32515 -6.89624e-20 
-10.3612 -3.34536 -5.52139e-19 
-10.0294 -3.32189 6.01223e-20 
-9.70351 -3.34097 -3.65218e-20 
-9.39309 -3.38136 1.25052e-21 
-9.07866 -3.34169 5.99312e-19 
-8.777 -3.32736 -4.55796e-19 
-8.4713 -3.33802 2.26622e-18 
-8.15616 -3.33504 -1.12256e-18 
-7.84724 -3.33921 -1.93446e-18 
-7.53593 -3.31773 -5.92998e-19 
-7.22622 -3.28561 -4.94856e-18 
-6.92979 -3.35619 3.03172e-18 
-6.62574 -3.33372 3.39735e-18 
-6.32261 -3.34626 1.79342e-18 
-6.01685 -3.35464 -2.08432e-18 
-5.7138 -3.3399 -1.82894e-18 
-5.41538 -3.33827 -3.37154e-19 
-5.11915 -3.3245 1.64053e-18 
-4.81395 -3.38519 -1.51046e-19 
-4.50339 -3.40612 -6.47139e-19 
-4.19302 -3.33276 -1.08874e-17 
-3.87476 -3.39142 1.57648e-18 
-3.56449 -3.39885 -6.20916e-18 
-3.25482 -3.38169 -1.65651e-17 
-2.95669 -3.35118 8.64515e-18 
-2.64674 -3.23209 7.22229e-17 
-2.36559 -3.27393 1.36034e-17 
-2.15541 -3.28098 -1.50758e-17 
-1.95228 -3.27379 7.29271e-17 
-1.75834 -3.1997 2.21623e-16 
-1.5608 -3.16391 -2.70306e-15 
-1.31691 -3.25985 -3.19395e-15 
-0.932084 -2.9827 2.36128e-16 
-0.98939 -3.34092 -7.95645e-15 
-0.378452 -3.23838 4.82658e-15 
0.560683 -3.22788 -5.10586e-15 
1.20127 -3.43125 2.39582e-15 
1.43347 -3.21501 1.16923e-15 
1.69682 -3.22234 2.75861e-16 
1.8545 -2.97251 -4.16003e-17 
2.0148 -3.31779 1.01543e-16 
2.2338 -3.32146 1.72162e-16 
2.45807 -3.35887 -1.88177e-17 
2.71005 -3.33708 -2.12299e-17 
2.95824 -3.32446 -3.36164e-17 
3.21374 -3.30508 1.48923e-17 
3.51886 -3.37339 1.24474e-19 
3.82588 -3.38362 1.01045e-17 
4.14051 -3.36706 -2.15758e-18 
4.45724 -3.35933 -3.26713e-18 
4.77284 -3.34819 3.89909e-18 
5.0845 -3.34107 -8.15439e-19 
5.39526 -3.35556 -8.37855e-19 
5.70243 -3.32573 1.17987e-18 
6.00299 -3.32361 1.4757e-18 
6.30558 -3.31408 -4.79067e-19 
6.61019 -3.3461 -3.83259e-18 
6.91374 -3.32902 -4.25205e-18 
7.21964 -3.33759 5.22163e-18 
7.525 -3.33353 3.72136e-18 
7.8299 -3.33293 1.08713e-20 
8.1408 -3.32483 -1.85109e-18 
8.43743 -3.314 -5.07452e-19 
8.75763 -3.31722 -7.45143e-20 
9.07889 -3.37783 -9.05755e-19 
9.39029 -3.34643 -2.65801e-19 
9.70511 -3.30511 -1.82461e-19 
10.0159 -3.39518 -5.04853e-19 
10.32 -3.32086 3.35505e-19 
10.6476 -3.39153 -5.67955e-19 
10.9778 -3.3488 -4.23071e-19 
11.2969 -3.26359 3.58975e-19 
11.6352 -3.37344 1.67502e-18 
12.0002 -3.32339 2.68053e-08 
-12.0006 -3.01571 1.53763e-08 
-11.6514 -2.99893 2.31512e-19 
-11.3045 -2.97227 -6.94001e-19 
-10.9669 -3.00379 -3.40628e-19 
-10.632 -2.9919 4.1514e-19 
-10.306 -3.01163 7.10973e-20 
-9.97305 -2.99223 2.27358e-19 
-9.65528 -3.00237 2.04958e-19 
-9.35136 -3.0383 -6.56947e-19 
-9.04767 -2.99209 3.08316e-19 
-8.73812 -2.99045 3.5067e-19 
-8.42498 -3.00887 4.26702e-19 
-8.11579 -3.00107 2.0618e-18 
-7.80679 -3.00527 -1.07234e-18 
-7.50131 -2.97945 -2.32757e-18 
-7.19685 -2.95714 1.14644e-18 
-6.89408 -3.02196 -6.51415e-19 
-6.58876 -3.00326 7.12063e-19 
-6.28425 -3.02126 2.97952e-19 
-5.98264 -3.02662 -3.10988e-19 
-5.68797 -3.00475 -4.28975e-20 
-5.39359 -3.00689 1.1105e-18 
-5.08773 -3.00298 2.41233e-18 
-4.79 -3.06979 1.60892e-18 
-4.48309 -3.08554 -1.47952e-18 
-4.19753 -2.98122 6.80617e-18 
-3.91596 -3.07647 3.24416e-18 
-3.59943 -3.0835 6.9394e-18 
-3.28753 -3.07446 6.06369e-18 
-2.9599 -3.06812 1.87709e-17 
-2.71412 -2.90526 6.76726e-17 
-2.44473 -2.96149 1.22253e-16 
-2.2041 -2.91637 2.13019e-16 
-1.99537 -2.90954 1.93463e-16 
-1.79851 -2.82103 3.71885e-16 
-1.59881 -2.75361 1.14105e-15 
-1.36038 -2.93806 2.60177e-15 
-0.971507 -2.67288 -3.58369e-15 
-0.384403 -2.81294 -8.21417e-15 
0.527305 -2.40733 9.65066e-15 
0.541343 -2.84312 -3.20723e-15 
1.1065 -2.6004 -9.10049e-16 
1.06806 -2.9933 1.48786e-15 
1.39863 -2.86264 -5.84557e-16 
1.60976 -2.83195 -5.53655e-16 
1.95163 -2.705 -3.76999e-16 
2.10225 -2.98798 -1.71572e-16 
2.33594 -3.00987 -7.82298e-17 
2.57155 -3.03995 -4.15253e-17 
2.81863 -2.98671 -5.59408e-19 
3.15909 -3.02996 6.74429e-18 
3.50927 -3.06 9.7412e-18 
3.82151 -3.06637 -3.24452e-17 
4.13475 -3.04801 3.27748e-18 
4.45495 -3.0426 7.35822e-18 
4.7712 -3.02865 -8.3071e-19 
5.07868 -3.0147 1.42064e-18 
5.38462 -3.03288 1.09166e-18 
5.68948 -3.00109 4.11631e-19 
5.99392 -2.99446 6.71019e-19 
6.29517 -2.98262 1.54548e-18 
6.59895 -3.01607 -5.3424e-18 
6.90697 -3.003 2.28912e-18 
7.21118 -3.00631 -9.78071e-19 
7.51293 -2.99982 -1.31337e-18 
7.82644 -3.00442 2.57636e-19 
8.12247 -2.98064 -9.74588e-19 
8.43354 -2.97991 -3.07142e-19 
8.74174 -2.98925 1.186e-20 
9.06231 -3.04891 -2.04236e-19 
9.37857 -3.00623 -2.92549e-19 
9.68611 -2.96901 -1.88705e-19 
10.0122 -3.04303 -6.9703e-20 
10.3377 -2.98265 -7.10371e-20 
10.6575 -3.059 -2.14887e-19 
10.9795 -3.00501 1.15807e-19 
11.3305 -2.94495 6.15862e-19 
11.6618 -3.06256 1.99965e-19 
12.0007 -3.00111 1.75529e-09 
-12.0007 -2.6951 1.46678e-08 
-11.6566 -2.68266 1.35802e-18 
-11.3225 -2.64203 -4.07928e-19 
-10.9837 -2.67466 3.74966e-19 
-10.6498 -2.66375 -3.45488e-19 
[...]
POINT_DATA 1978 
VECTORS vectors float
-4.09136e-05 -2.76424e-05 1.00045 
-2.21462e-05 -3.12782e-05 1.00047 
-1.42773e-05 -3.08844e-05 1.00092 
-1.99132e-05 -2.74346e-05 1.0007 
-2.76119e-05 -2.57512e-05 1.0007 
-3.03249e-05 -3.95895e-05 1.00069 
-2.78498e-05 -6.15994e-05 1.00068 
-1.46377e-05 -8.18287e-05 1.00068 
2.24617e-05 -9.21569e-05 1.00067 
7.46885e-05 -8.19421e-05 1.00066 
0.000135088 -5.76264e-05 1.00066 
0.000167156 -6.08257e-05 1.00065 
0.000137436 -9.78515e-05 1.00065 
9.37265e-05 -0.000134106 1.00065 
0.000112473 -0.000162811 1.00065 
0.000164993 -0.00018863 1.00044 
0.000230991 -0.000200616 1.00064 
0.000381276 -0.000221542 1.00064 
0.00057987 -0.000342943 1.00063 
0.000734578 -0.000500237 1.00063 
0.000779092 -0.000435133 1.00062 
0.000814978 -0.000112412 1.00062 
0.000777286 0.000177192 1.00061 
0.000523738 0.000298012 1.00061 
-9.50573e-05 0.000338459 1.00061 
-0.000489171 0.000824319 1.00061 
0.00025829 0.000949548 1.00061 
6.04722e-05 -0.000945594 1.0006 
-0.00380059 -0.000391125 1.00058 
-0.00344319 0.00366923 1.00054 
0.00111746 0.00267384 1.00053 
0.00181844 0.000328544 1.0005 
0.000134364 -0.000597248 1.00047 
0.000639308 0.000547835 1.00031 
0.00159138 0.00139997 1.00059 
0.00173072 0.000877435 1.00031 
0.00158052 0.000407155 1.00066 
0.00161827 -0.000285395 1.00089 
0.00184323 -0.00120832 1.00059 
0.0014 -0.00208208 0.998184 
-0.00222403 -0.00587593 -0.998094 
-0.00552251 -0.00118246 -1.0008 
-0.00434706 0.00391098 -1.00058 
-0.00204913 0.00616486 -1.00046 
0.00295143 0.00634645 -1.00042 
0.00594316 0.00367106 -1.00043 
0.00615 0.000390148 -1.00045 
0.00441065 -0.000938081 -1.00047 
0.00170412 -0.000595886 -1.00034 
-0.000118881 0.000941165 -1.00052 
-0.000641763 0.00184938 -1.00056 
-0.00055795 0.00201261 -1.00059 
-0.000161954 0.00184932 -1.0006 
-0.000503518 0.00135967 -1.0006 
-0.00102574 0.000693675 -1.00061 
-0.00121055 -1.94538e-05 -1.00063 
-0.00116895 -0.000408564 -1.00063 
-0.000896018 -0.000473609 -1.00062 
-0.000614756 -0.000568785 -1.00062 
-0.000556279 -0.000598414 -1.00062 
-0.000542361 -0.000430749 -1.00063 
-0.000422358 -0.000273322 -1.00063 
-0.000284762 -0.000247402 -1.00063 
-0.000208943 -0.000239977 -1.00063 
-0.000127568 -0.000195287 -1.00063 
-0.00010296 -0.000157788 -1.00064 
-0.000156143 -0.000102957 -1.00064 
-0.00018747 -4.61835e-05 -1.00064 
-0.000153008 -4.15337e-05 -1.00065 
-9.99168e-05 -7.44993e-05 -1.00065 
-4.55102e-05 -9.62057e-05 -1.00066 
-1.15914e-05 -8.27238e-05 -1.00067 
1.74851e-05 -6.07339e-05 -1.00067 
3.23128e-05 -4.44002e-05 -1.00068 
2.63287e-05 -3.80848e-05 -1.00069 
1.21801e-05 -3.07712e-05 -1.00069 
1.33522e-05 -2.94719e-05 -1.0007 
1.83098e-05 -3.36904e-05 -1.00068 
2.98533e-05 -2.88221e-05 -1.00046 
-4.15736e-05 -4.28312e-05 1.00047 
-2.46393e-05 -3.64123e-05 1.00156 
-1.65097e-05 -3.04904e-05 1.00117 
-1.80818e-05 -2.45605e-05 1.00137 
-3.00637e-05 -2.46031e-05 1.00159 
-4.09629e-05 -3.66298e-05 1.00115 
-3.98705e-05 -5.85267e-05 1.00156 
-2.09897e-05 -9.18459e-05 1.00134 
1.87179e-05 -0.000117047 1.00111 
7.40762e-05 -0.000115743 1.00131 
0.000114068 -9.16292e-05 1.0015 
0.00012214 -7.66853e-05 1.00129 
9.45919e-05 -9.0776e-05 1.00128 
6.59012e-05 -0.000119524 1.00109 
9.18458e-05 -0.000159422 1.00149 
0.000145554 -0.000218666 1.00147 
0.000222189 -0.000284253 1.00126 
0.000309144 -0.0003951 1.00125 
0.000461781 -0.000517732 1.00125 
0.000643989 -0.000546224 1.00124 
0.000774779 -0.000333138 1.00123 
0.000815915 8.38773e-05 1.00122 
0.000698705 0.000454311 1.00122 
0.000385037 0.00059947 1.00121 
-3.65277e-06 0.000609965 1.00121 
-9.9679e-05 0.00058253 1.00122 
-0.000144792 0.000470199 1.00121 
-0.00103205 0.000370269 1.00118 
-0.00194198 0.00104782 1.00113 
-0.00145038 0.0014413 1.00091 
-0.00141174 -0.000282269 1.0012 
-0.000333987 -0.00100349 1.00082 
-1.64972e-05 -0.000170852 1.00106 
0.000456798 0.000570378 1.00076 
0.000901673 0.000108073 1.00105 
0.000901472 0.000524977 1.00084 
0.00106278 0.000142946 1.00112 
0.00120662 -0.000662963 1.00116 
0.00110146 -0.00145039 1.00169 
0.000969826 -0.00107977 0.995999 
-0.0018466 -0.00459202 -0.99618 
-0.00286593 -0.00207782 -1.00157 
-0.00104134 0.000360512 -1.0016 
0.00178513 0.000657031 -1.00104 
0.00246497 0.00179556 -1.00091 
0.00348418 0.00110614 -1.00088 
0.00343523 0.000596131 -1.0009 
0.002933 0.000527167 -1.00094 
0.00182798 0.000849769 -1.00115 
0.00066962 0.00194956 -1.00107 
-3.81644e-05 0.00220429 -1.00114 
-0.000470526 0.00208333 -1.00117 
-0.00065399 0.00176431 -1.00119 
-0.00106631 0.00129061 -1.0012 
-0.00138613 0.000739991 -1.00122 
-0.00134477 8.06733e-05 -1.00123 
-0.00109225 -0.000440001 -1.00123 
-0.00079876 -0.000644938 -1.00123 
-0.000563238 -0.000663944 -1.00124 
-0.000417881 -0.000594505 -1.00104 
-0.000312312 -0.00046928 -1.00144 
-0.000260652 -0.000362861 -1.00124 
-0.000209715 -0.000304868 -1.00125 
-0.00015933 -0.000252758 -1.00125 
-9.58852e-05 -0.000192297 -1.00126 
-7.38923e-05 -0.000129079 -1.00126 
-9.95606e-05 -7.96712e-05 -1.00106 
-0.00012775 -6.69102e-05 -1.00128 
-0.000122216 -8.71507e-05 -1.00149 
-8.55676e-05 -0.000117895 -1.00109 
-3.61513e-05 -0.000119269 -1.0013 
1.31638e-06 -9.65587e-05 -1.00154 
2.99584e-05 -6.22476e-05 -1.00112 
3.68995e-05 -3.97506e-05 -1.00156 
2.66491e-05 -3.03627e-05 -1.00135 
1.5307e-05 -2.79994e-05 -1.00136 
1.42905e-05 -2.93787e-05 -1.00136 
2.36903e-05 -3.66053e-05 -1.00112 
3.65808e-05 -4.01444e-05 -1.00068 
-3.78988e-05 -5.03059e-05 1.00092 
-2.54168e-05 -3.99184e-05 1.00116 
-1.51311e-05 -3.01323e-05 1.0016 
-1.76507e-05 -2.53624e-05 1.00117 
-3.32475e-05 -2.52068e-05 1.00116 
-4.66431e-05 -3.48116e-05 1.00158 
-4.46541e-05 -6.60792e-05 1.00115 
-1.83466e-05 -0.000106493 1.00135 
2.14129e-05 -0.000135826 1.00153 
6.2796e-05 -0.000140523 1.00131 
8.68921e-05 -0.000116395 1.0011 
8.36624e-05 -9.01036e-05 1.00129 
5.29558e-05 -9.25668e-05 1.00129 
3.16898e-05 -0.000118321 1.00149 
5.32898e-05 -0.000157808 1.00128 
0.000105165 -0.000224494 1.00127 
0.000163402 -0.000320918 1.00106 
0.000220702 -0.000456251 1.00125 
0.000333578 -0.000607505 1.00125 
0.000492269 -0.000634078 1.00124 
0.000620787 -0.000393455 1.00143 
0.000683875 9.67712e-05 1.00104 
0.000619985 0.00057624 1.00142 
0.000429512 0.00078907 1.00103 
0.000180726 0.000712184 1.00122 
8.95035e-05 0.000486361 1.00143 
-5.99089e-05 0.00037765 1.00103 
-0.000466993 0.00059304 1.0014 
-0.0010155 0.000829208 1.00098 
-0.00143219 0.000338567 1.0013 
-0.00151042 -0.0005324 1.00108 
-0.00115104 -0.00132736 1.00114 
-0.000818024 -0.00119037 1.00094 
-0.000206415 -0.000558057 1.00093 
0.000422946 -0.000361395 1.00098 
0.00100606 -0.000685237 1.00132 
0.000725649 -0.000498099 1.00115 
0.000448671 -0.00131169 1.00157 
0.00101188 -0.00103359 1.00233 
0.00081307 -0.00050414 0.995592 
5.85428e-05 -0.0036443 -0.995941 
-0.000536927 -0.00245319 -1.00241 
0.00122888 -0.00188995 -1.00121 
0.00153962 -0.001203 -1.00112 
0.00220113 -0.00172832 -1.00097 
0.00245688 5.65996e-05 -1.00091 
0.00263772 -6.36912e-06 -1.00091 
0.0024769 0.000455447 -1.00095 
0.00196069 0.00108013 -1.001 
0.0011736 0.00214507 -1.0009 
0.000390484 0.00258163 -1.00132 
-0.000420551 0.00241243 -1.0012 
-0.000951742 0.00191358 -1.00103 
-0.0014254 0.00143374 -1.00123 
-0.00156685 0.00095355 -1.00124 
-0.00134401 0.000262033 -1.00126 
-0.00101364 -0.000377763 -1.00145 
-0.000725047 -0.000709029 -1.00105 
-0.000460703 -0.0007224 -1.00144 
-0.000285397 -0.000618522 -1.00125 
-0.000184079 -0.000507948 -1.00125 
-0.000158523 -0.00040547 -1.00105 
-0.000143361 -0.000324705 -1.00125 
-0.000119406 -0.000263732 -1.00126 
-6.87774e-05 -0.000204074 -1.00127 
-3.78792e-05 -0.000141667 -1.00127 
-4.88264e-05 -8.74362e-05 -1.00148 
-7.52288e-05 -7.74475e-05 -1.00149 
-9.41636e-05 -0.000109887 -1.0011 
-7.52819e-05 -0.000138435 -1.00151 
-3.78955e-05 -0.000145108 -1.00132 
-2.20361e-07 -0.000115605 -1.00114 
2.9801e-05 -6.73723e-05 -1.00135 
4.22154e-05 -4.20634e-05 -1.00136 
3.42961e-05 -2.9245e-05 -1.00114 
1.8843e-05 -2.60141e-05 -1.00137 
1.3645e-05 -2.84838e-05 -1.00158 
2.07673e-05 -3.64871e-05 -1.00136 
3.61569e-05 -4.86189e-05 -1.00069 
-3.26521e-05 -5.79624e-05 1.0007 
-2.08921e-05 -4.17776e-05 1.00137 
-1.44791e-05 -3.04718e-05 1.00139 
-1.93086e-05 -2.6515e-05 1.0016 
-3.63095e-05 -2.8986e-05 1.00138 
-4.83025e-05 -3.93056e-05 1.00136 
-3.96195e-05 -7.28893e-05 1.00135 
-7.16173e-06 -0.000121902 1.00133 
3.28281e-05 -0.00015523 1.00111 
6.44612e-05 -0.000148914 1.0013 
7.41951e-05 -0.000117435 1.00129 
6.0268e-05 -9.67371e-05 1.00129 
3.52129e-05 -9.95917e-05 1.00129 
2.49972e-05 -0.00013572 1.00128 
4.34177e-05 -0.00018643 1.00107 
8.9939e-05 -0.000254221 1.00126 
0.000152318 -0.000364153 1.00145 
0.000223178 -0.000528298 1.00125 
0.00032168 -0.00067127 1.00124 
0.000440384 -0.000647484 1.00123 
0.000540533 -0.000328522 1.00103 
0.000575338 0.000217445 1.00141 
0.000516197 0.000740936 1.00123 
0.00038494 0.000906989 1.00123 
0.000227765 0.000766637 1.00124 
0.000252897 0.000455651 1.00125 
0.000155004 0.00021682 1.00124 
-0.000187801 0.000480328 1.00105 
-0.000669103 0.000782791 1.00138 
-0.00143702 -0.000281734 1.00116 
-0.00200317 -0.00118058 1.00093 
-0.00175293 -0.000610596 1.00105 
-0.000971944 -0.00198197 1.00098 
-0.000607593 -0.000947649 1.00095 
-0.000135926 -0.0014904 1.00097 
0.000232222 -0.00196332 1.00091 
0.000714929 -0.00125603 1.0015 
0.000609921 -0.00148974 1.00161 
-1.20061e-05 -0.000460018 0.995985 
0.0016262 -0.00395906 -0.994762 
0.00185603 -0.00352794 -0.996267 
0.00172738 -0.00228067 -1.00225 
0.00123485 -0.00251881 -1.00171 
0.00212911 -0.00236797 -1.00127 
0.00211133 -0.00165816 -1.00119 
0.00248992 -0.00174026 -1.00094 
0.00232639 -0.000785257 -1.00092 
0.00202042 -0.000546974 -1.0008 
0.00176194 0.000382343 -1.001 
0.00100899 0.00125556 -1.00126 
0.000129409 0.00229167 -1.00099 
-0.000737857 0.00262536 -1.00122 
-0.00139538 0.00196813 -1.00144 
-0.00179756 0.001368 -1.00126 
-0.00168215 0.000888755 -1.00126 
-0.00126442 0.000239394 -1.00125 
-0.000890364 -0.00038407 -1.00105 
-0.000610669 -0.000722607 -1.00143 
-0.0003598 -0.000728866 -1.00104 
-0.000185352 -0.000600348 -1.00143 
-0.000115325 -0.000499123 -1.00124 
-0.000113417 -0.000409398 -1.00124 
-0.000109422 -0.00033393 -1.00125 
-9.13938e-05 -0.00027992 -1.00126 
-5.8493e-05 -0.000232415 -1.00127 
-3.32699e-05 -0.000164344 -1.00127 
-3.32761e-05 -0.000102911 -1.00128 
-5.77482e-05 -8.01711e-05 -1.00109 
-7.6431e-05 -0.000109682 -1.0015 
-7.41234e-05 -0.000154296 -1.0011 
-4.45944e-05 -0.000164978 -1.00131 
-8.13518e-06 -0.000130359 -1.00154 
2.63394e-05 -7.62615e-05 -1.00136 
4.14237e-05 -4.20417e-05 -1.00137 
3.54699e-05 -2.94437e-05 -1.00137 
2.11974e-05 -2.68223e-05 -1.00137 
1.40466e-05 -3.08898e-05 -1.00138 
1.96538e-05 -4.00834e-05 -1.00136 
2.93009e-05 -5.81703e-05 -1.00069 
-2.03881e-05 -6.34801e-05 1.00069 
-1.52791e-05 -4.52344e-05 1.00137 
-1.49121e-05 -3.71474e-05 1.00138 
-2.16041e-05 -3.24554e-05 1.00138 
-3.7801e-05 -3.15355e-05 1.00137 
-5.05166e-05 -4.10502e-05 1.00136 
-4.03351e-05 -7.46837e-05 1.00135 
-7.99462e-06 -0.000131486 1.00134 
2.97644e-05 -0.000162756 1.00152 
5.86065e-05 -0.000153617 1.0013 
6.51547e-05 -0.000113978 1.00129 
5.3247e-05 -9.10219e-05 1.00128 
3.44135e-05 -0.000111066 1.00128 
2.56999e-05 -0.000158812 1.00127 
3.51845e-05 -0.000217366 1.00126 
6.67942e-05 -0.000298773 1.00125 
0.000131924 -0.000418081 1.00124 
0.000210319 -0.000587297 1.00123 
0.0002976 -0.000698205 1.00122 
0.000394325 -0.000614526 1.00121 
0.000480437 -0.00022736 1.00121 
0.000487915 0.000357632 1.00121 
0.00039976 0.00084129 1.00103 
0.000316599 0.000951202 1.00143 
0.000263291 0.000775986 1.00125 
0.00040562 0.000296644 1.00108 
0.000306652 5.06576e-05 1.00148 
-0.00016679 0.000526529 1.00127 
-0.000885959 0.000666098 1.00123 
-0.00169899 -0.000353899 1.00117 
-0.00235068 -0.00151549 1.00112 
-0.00200132 -0.0014015 1.00105 
-0.00109694 -0.00178835 1.00084 
-0.000657126 -0.00224754 1.00101 
-0.000346175 -0.00245884 1.00143 
0.000252214 -0.00183191 1.00127 
0.000286872 -0.00172958 1.00087 
0.00109907 -0.00233716 1.00188 
0.000723876 -0.00161531 0.994678 
-0.000605626 -0.00185526 0.992237 
0.00328611 -0.00444993 -0.994246 
0.00336567 -0.00309777 -1.00162 
0.00263015 -0.00162752 -1.00171 
0.00293217 -0.00186078 -1.00111 
0.00259118 -0.00141659 -1.00084 
0.00246064 -0.000960568 -1.00109 
0.0018773 -0.0011125 -1.0008 
0.00142115 -0.000430014 -1.00113 
0.000810552 9.7957e-05 -1.00108 
0.000242161 0.00120543 -1.00116 
-0.000705965 0.00230679 -1.00122 
-0.0015813 0.00228391 -1.00126 
-0.00202459 0.00169427 -1.00127 
-0.00197107 0.0011279 -1.00126 
-0.00148831 0.000615789 -1.00125 
-0.000985609 5.06149e-05 -1.00124 
-0.000681871 -0.000474511 -1.00123 
-0.000459295 -0.000708808 -1.00122 
-0.000225352 -0.000669739 -1.00121 
-8.26958e-05 -0.000550119 -1.00122 
-4.17937e-05 -0.000458705 -1.00103 
-5.87324e-05 -0.000394523 -1.00143 
-6.40876e-05 -0.000338267 -1.00124 
-6.16576e-05 -0.000290203 -1.00125 
-4.83071e-05 -0.00024705 -1.00126 
-3.3386e-05 -0.000178163 -1.00127 
-3.04543e-05 -0.000110128 -1.00128 
-4.52913e-05 -8.5275e-05 -1.00129 
-6.12538e-05 -0.000106096 -1.0011 
-6.34778e-05 -0.000152972 -1.0013 
-4.61675e-05 -0.000177378 -1.00132 
-1.35523e-05 -0.000146439 -1.00134 
2.2231e-05 -8.72588e-05 -1.00135 
4.27673e-05 -4.80341e-05 -1.00136 
3.7897e-05 -3.42169e-05 -1.00137 
2.28353e-05 -3.12582e-05 -1.00138 
1.43952e-05 -3.61573e-05 -1.00137 
1.50797e-05 -4.59617e-05 -1.00136 
1.6446e-05 -6.42654e-05 -1.00069 
4.03596e-06 -6.44832e-05 1.00069 
-6.35568e-06 -5.19555e-05 1.00135 
-9.42737e-06 -4.2845e-05 1.00115 
-1.83288e-05 -4.05669e-05 1.00136 
-3.32093e-05 -3.8694e-05 1.00136 
-4.88916e-05 -4.16563e-05 1.00136 
-4.75404e-05 -6.82363e-05 1.00135 
-2.0749e-05 -0.000120755 1.00133 
1.75817e-05 -0.000168906 1.00131 
4.50743e-05 -0.000165179 1.0013 
6.12517e-05 -0.00011981 1.00128 
6.22999e-05 -9.48926e-05 1.00128 
5.36876e-05 -0.00010535 1.00127 
3.97216e-05 -0.000142812 1.00126 
2.94641e-05 -0.000192818 1.00125 
2.58666e-05 -0.000262215 1.00124 
5.66295e-05 -0.000373794 1.00122 
0.000122786 -0.000523605 1.00121 
0.000204838 -0.000666396 1.0012 
0.000301442 -0.000684333 1.00119 
0.000401165 -0.000450631 1.00119 
0.000422167 7.18117e-05 1.00119 
0.000351288 0.000614733 1.0012 
0.000275581 0.000947838 1.00122 
0.000250627 0.000931837 1.00123 
0.000312177 0.000605507 1.00127 
0.000482281 6.53267e-05 1.0013 
0.00029647 6.122e-06 1.0013 
-0.000428477 0.000600441 1.00131 
-0.00118853 0.000460313 1.00126 
-0.00227138 -0.000805393 1.0012 
-0.0022572 -0.00112274 1.00113 
-0.00206966 -0.00139204 1.00105 
-0.001652 -0.00198609 1.00106 
-0.00082906 -0.00260679 1.00113 
-0.00118805 -0.00209927 1.00123 
-0.000107523 -0.00133572 1.00157 
-0.00561538 -0.0015386 1.00261 
0.000835261 -0.00139146 1.00172 
-0.00742288 -0.00732774 0.991628 
0.0103406 -0.00371836 -0.99341 
0.00534846 -0.00354692 -1.0022 
0.00379057 -0.00193103 -1.00152 
0.00347228 -0.00106809 -1.00121 
0.00377355 -0.000178617 -1.0012 
0.00344182 -0.000220918 -1.00066 
0.00279186 -0.00030872 -1.00099 
0.0017535 -0.000596835 -1.001 
0.00112074 9.78349e-05 -1.00109 
8.72496e-05 0.0005415 -1.00117 
-0.000785227 0.00151554 -1.00123 
-0.00181793 0.00181078 -1.00128 
-0.00230619 0.00161016 -1.0013 
-0.00213387 0.00113328 -1.00129 
-0.00153129 0.000624929 -1.00127 
-0.000960982 0.000179829 -1.00125 
-0.000620448 -0.000291443 -1.00123 
-0.000395412 -0.000585497 -1.00121 
-0.000197572 -0.000620381 -1.0012 
-4.33986e-05 -0.000534413 -1.00121 
1.51112e-05 -0.000467793 -1.00121 
4.77334e-06 -0.000399624 -1.00122 
-1.62478e-05 -0.000344745 -1.00123 
-3.51806e-05 -0.000307577 -1.00125 
-4.33754e-05 -0.000258535 -1.00126 
-3.85608e-05 -0.000184406 -1.00127 
-3.8734e-05 -0.000124725 -1.00127 
-4.95963e-05 -9.01831e-05 -1.00129 
-5.76102e-05 -0.000104309 -1.0015 
-5.80553e-05 -0.000151424 -1.00131 
-4.42312e-05 -0.000187118 -1.00131 
-1.17541e-05 -0.000158204 -1.00133 
2.45004e-05 -9.84154e-05 -1.00135 
4.48683e-05 -5.62696e-05 -1.00135 
3.89172e-05 -3.73703e-05 -1.00137 
2.36185e-05 -3.76767e-05 -1.00136 
1.16842e-05 -4.11356e-05 -1.00136 
6.69036e-06 -4.84676e-05 -1.00136 
-1.15599e-06 -6.74114e-05 -1.00069 
2.28784e-05 -5.47677e-05 1.00069 
5.95387e-06 -4.54579e-05 1.00156 
-8.97528e-06 -4.64772e-05 1.00135 
-2.09004e-05 -4.81886e-05 1.00135 
-3.71129e-05 -4.61656e-05 1.00135 
-4.73279e-05 -5.54055e-05 1.00134 
-3.55926e-05 -9.52947e-05 1.00133 
-1.42121e-06 -0.000152036 1.00131 
3.50218e-05 -0.000180503 1.00129 
5.84067e-05 -0.000156229 1.00128 
7.04018e-05 -0.000111494 1.00127 
7.73424e-05 -9.89087e-05 1.00126 
7.38306e-05 -0.000118508 1.00125 
5.63008e-05 -0.00014853 1.00124 
2.28449e-05 -0.000195888 1.00123 
3.62808e-06 -0.000282353 1.00122 
2.6497e-05 -0.000401535 1.00121 
0.00010576 -0.000562141 1.00119 
0.000200576 -0.000681061 1.00118 
0.000304802 -0.000640748 1.00118 
0.000361789 -0.000305851 1.00118 
0.000310853 0.000235596 1.00118 
0.00024088 0.000758004 1.0012 
0.000239208 0.000984606 1.00123 
0.000250037 0.000874249 1.00126 
0.000339133 0.000414735 1.00131 
0.000474427 6.38219e-05 1.00135 
0.000189374 0.00020793 1.00113 
-0.000416091 0.000370887 1.00133 
-0.00158614 -8.57807e-05 1.00129 
-0.00229863 -0.00047297 1.00121 
-0.00217373 -0.000569684 1.00131 
-0.00184071 -0.00171185 1.0011 
-0.00143854 -0.00265213 1.00094 
-0.00238312 -0.00131321 1.00101 
-0.00326306 -0.00161668 1.00142 
-0.0120692 -0.00719543 1.00157 
-0.00998907 -0.0149465 1.00157 
-0.0142891 -0.0134408 1.00171 
-0.00768344 -0.0175139 0.990275 
0.0140833 0.00231353 -0.991558 
0.0141005 -0.00584312 -1.00236 
0.0123245 -0.00559629 -1.00164 
0.00676351 -0.00427926 -1.00182 
0.00493733 -0.00130469 -1.00109 
0.00479878 -0.000433204 -1.00115 
0.00344248 0.000222752 -1.00107 
0.00248473 0.000194196 -1.00128 
0.00161497 0.000732594 -1.00121 
3.30677e-05 0.000658939 -1.00127 
-0.00137319 0.0011748 -1.00131 
-0.00235861 0.00149077 -1.00134 
-0.00234346 0.0010361 -1.00133 
-0.00178105 0.000642938 -1.0013 
-0.00113572 0.0003976 -1.00126 
-0.000667727 3.31748e-05 -1.00123 
-0.000377207 -0.000339588 -1.0012 
-0.000186904 -0.00051079 -1.00118 
-6.17864e-05 -0.000529434 -1.00118 
3.13526e-05 -0.00048785 -1.00118 
6.18253e-05 -0.000427568 -1.00119 
4.7857e-05 -0.000355518 -1.0012 
1.34078e-05 -0.00030651 -1.00121 
-1.57268e-05 -0.000267724 -1.00123 
-4.21984e-05 -0.000217887 -1.00124 
-5.33194e-05 -0.000161126 -1.00125 
-5.70133e-05 -0.000118477 -1.00107 
-6.16179e-05 -0.000100372 -1.00127 
-6.65372e-05 -0.000122262 -1.00128 
-6.44299e-05 -0.000167912 -1.0013 
-4.77472e-05 -0.000194408 -1.0013 
-9.86239e-06 -0.000162208 -1.00131 
2.88546e-05 -9.84354e-05 -1.00133 
4.42009e-05 -6.07443e-05 -1.00134 
3.70849e-05 -4.57391e-05 -1.00135 
2.17604e-05 -4.45718e-05 -1.00135 
6.31177e-06 -4.51886e-05 -1.00134 
-4.39308e-06 -4.87012e-05 -1.00135 
-2.21933e-05 -5.97937e-05 -1.00068 
3.71879e-05 -3.46909e-05 1.00066 
1.63581e-05 -4.07029e-05 1.00132 
-1.35916e-06 -5.00409e-05 1.00132 
-1.77127e-05 -5.60877e-05 1.00133 
-3.37176e-05 -5.76402e-05 1.00132 
-4.37174e-05 -6.96779e-05 1.00112 
-3.28685e-05 -0.000102554 1.00131 
1.56475e-06 -0.000158319 1.0013 
4.07274e-05 -0.000189231 1.00148 
6.53267e-05 -0.000167505 1.00107 
7.61477e-05 -0.000121195 1.00127 
8.20666e-05 -9.87999e-05 1.00125 
8.13742e-05 -0.000104682 1.00124 
6.39885e-05 -0.000113872 1.00123 
2.49305e-05 -0.000151219 1.00122 
-9.86331e-06 -0.000218462 1.00121 
-2.97328e-06 -0.00030915 1.0012 
5.0296e-05 -0.000476137 1.00118 
0.0001299 -0.000627524 1.00117 
0.000217276 -0.00067318 1.00116 
0.000276369 -0.000453629 1.00116 
0.000250638 3.21153e-05 1.00116 
0.000201654 0.000592634 1.00118 
0.000196904 0.000921313 1.00121 
0.000210532 0.000924936 1.00145 
0.000280634 0.000614527 1.00109 
0.000423484 0.000202005 1.00156 
0.000185027 0.000245737 1.0016 
-0.000483746 0.000234543 1.00139 
-0.00137272 -0.000249111 1.00133 
-0.00191109 0.000201532 1.00124 
-0.00223782 -0.000319698 1.00119 
-0.00239467 -0.00107084 1.00133 
-0.00520738 -0.000233467 1.00122 
-0.0110195 -0.00483696 1.00151 