# vtk DataFile Version 3.0 
Exported using Morpho https://github.com/Morpho-lang/morpho 
ASCII 
DATASET UNSTRUCTURED_GRID 

POINTS 2054 float 
-8.48528 -2.82843 0 
-8.20636 -2.82843 0 
-7.94054 -2.82843 0 
-7.6904 -2.82843 0 
-7.45357 -2.82843 0 
-7.22694 -2.82843 0 
-7.00705 -2.82843 0 
-6.79111 -2.82843 0 
-6.57731 -2.82843 0 
-6.36453 -2.82843 0 
-6.15219 -2.82843 0 
-5.94 -2.82843 0 
-5.72786 -2.82843 0 
-5.51573 -2.82843 0 
-5.3036 -2.82843 0 
-5.09147 -2.82843 0 
-4.87933 -2.82843 0 
-4.6672 -2.82843 0 
-4.45507 -2.82843 0 
-4.24294 -2.82843 0 
-4.03081 -2.82843 0 
-3.81867 -2.82843 0 
-3.60654 -2.82843 0 
-3.39441 -2.82843 0 
-3.18228 -2.82843 0 
-2.97015 -2.82843 0 
-2.75801 -2.82843 0 
-2.54588 -2.82843 0 
-2.33375 -2.82843 0 
-2.12162 -2.82843 0 
-1.90949 -2.82843 0 
-1.69735 -2.82843 0 
-1.48522 -2.82843 0 
-1.27309 -2.82843 0 
-1.06096 -2.82843 0 
-0.848825 -2.82843 0 
-0.636693 -2.82843 0 
-0.424561 -2.82843 0 
-0.212429 -2.82843 0 
-0.000296761 -2.82843 0 
0.211835 -2.82843 0 
0.423967 -2.82843 0 
0.636099 -2.82843 0 
0.848231 -2.82843 0 
1.06036 -2.82843 0 
1.2725 -2.82843 0 
1.48463 -2.82843 0 
1.69676 -2.82843 0 
1.90889 -2.82843 0 
2.12102 -2.82843 0 
2.33316 -2.82843 0 
2.54529 -2.82843 0 
2.75742 -2.82843 0 
2.96955 -2.82843 0 
3.18168 -2.82843 0 
3.39382 -2.82843 0 
3.60595 -2.82843 0 
3.81808 -2.82843 0 
4.03021 -2.82843 0 
4.24234 -2.82843 0 
4.45448 -2.82843 0 
4.66661 -2.82843 0 
4.87874 -2.82843 0 
5.09087 -2.82843 0 
5.303 -2.82843 0 
5.51514 -2.82843 0 
5.72727 -2.82843 0 
5.93941 -2.82843 0 
6.15159 -2.82843 0 
6.36393 -2.82843 0 
6.57672 -2.82843 0 
6.79055 -2.82843 0 
7.00652 -2.82843 0 
7.22647 -2.82843 0 
7.45313 -2.82843 0 
7.69005 -2.82843 0 
7.9403 -2.82843 0 
8.20621 -2.82843 0 
8.48528 -2.82843 0 
-8.48528 -2.5495 0 
-8.30526 -2.64845 0 
-8.07062 -2.59995 0 
-7.83904 -2.59637 0 
-7.59595 -2.59733 0 
-7.36578 -2.59177 0 
-7.13796 -2.5933 0 
-6.90908 -2.59428 0 
-6.68421 -2.5916 0 
-6.46568 -2.58832 0 
-6.24926 -2.58859 0 
-6.03358 -2.58941 0 
-5.81848 -2.59013 0 
-5.60402 -2.59075 0 
-5.39005 -2.59135 0 
-5.17642 -2.59186 0 
-4.96311 -2.59223 0 
-4.75009 -2.59242 0 
-4.53736 -2.59244 0 
-4.32497 -2.59236 0 
-4.1128 -2.59242 0 
-3.90059 -2.59259 0 
-3.68835 -2.5926 0 
-3.47627 -2.59248 0 
-3.26428 -2.59251 0 
-3.05216 -2.59271 0 
-2.83986 -2.59283 0 
-2.62755 -2.59274 0 
-2.41539 -2.59253 0 
-2.20336 -2.59238 0 
-1.99135 -2.59238 0 
-1.77924 -2.59246 0 
-1.56704 -2.59244 0 
-1.35495 -2.59215 0 
-1.14319 -2.59183 0 
-0.931581 -2.59195 0 
-0.719663 -2.59256 0 
-0.507197 -2.59324 0 
-0.294425 -2.59354 0 
-0.0817689 -2.59344 0 
0.130587 -2.59325 0 
0.342804 -2.59322 0 
0.555051 -2.59322 0 
0.767233 -2.59303 0 
0.97919 -2.59278 0 
1.19107 -2.59278 0 
1.40311 -2.59289 0 
1.61524 -2.59286 0 
1.82732 -2.59279 0 
2.03943 -2.59281 0 
2.25163 -2.5928 0 
2.46381 -2.59266 0 
2.67591 -2.59254 0 
2.88801 -2.59237 0 
3.10001 -2.59226 0 
3.31203 -2.59216 0 
3.52402 -2.59207 0 
3.73601 -2.59208 0 
3.94815 -2.59221 0 
4.16052 -2.5923 0 
4.37309 -2.59232 0 
4.58593 -2.59227 0 
4.79921 -2.5922 0 
5.01319 -2.59212 0 
5.22833 -2.5921 0 
5.44534 -2.59239 0 
5.6657 -2.59346 0 
5.89185 -2.59569 0 
6.12685 -2.59429 0 
6.36853 -2.59189 0 
6.6108 -2.57787 0 
6.84491 -2.61411 0 
7.08804 -2.58476 0 
7.34858 -2.60369 0 
7.58803 -2.59327 0 
7.83059 -2.59326 0 
8.06387 -2.59199 0 
8.30038 -2.64348 0 
8.48528 -2.54936 0 
-8.48528 -2.28369 0 
-8.25701 -2.4138 0 
-8.01078 -2.35334 0 
-7.73666 -2.37963 0 
-7.49744 -2.35565 0 
-7.26898 -2.35831 0 
-7.03324 -2.36676 0 
-6.7997 -2.36275 0 
-6.5773 -2.35166 0 
-6.35808 -2.3495 0 
-6.14038 -2.35058 0 
-5.92336 -2.35185 0 
-5.70723 -2.35272 0 
-5.49199 -2.35362 0 
-5.27734 -2.35447 0 
-5.0632 -2.35505 0 
-4.84958 -2.35534 0 
-4.63641 -2.35533 0 
-4.42363 -2.35504 0 
-4.21126 -2.35485 0 
-3.99909 -2.35513 0 
-3.78684 -2.3554 0 
-3.57461 -2.35516 0 
-3.36263 -2.35498 0 
-3.15066 -2.35537 0 
-2.93843 -2.35586 0 
-2.72604 -2.35589 0 
-2.51374 -2.35551 0 
-2.30162 -2.35509 0 
-2.08964 -2.35496 0 
-1.87761 -2.35518 0 
-1.66544 -2.3554 0 
-1.45322 -2.35518 0 
-1.2412 -2.35438 0 
-1.02967 -2.35407 0 
-0.818162 -2.35505 0 
-0.606054 -2.35676 0 
-0.393243 -2.3579 0 
-0.180256 -2.35789 0 
0.0323765 -2.35727 0 
0.244686 -2.35692 0 
0.456926 -2.35692 0 
0.669206 -2.35667 0 
0.881318 -2.35598 0 
1.09315 -2.35559 0 
1.305 -2.35583 0 
1.51709 -2.35595 0 
1.72919 -2.35571 0 
1.9412 -2.35566 0 
2.15334 -2.3558 0 
2.36559 -2.3556 0 
2.57772 -2.35522 0 
2.78976 -2.35507 0 
3.0019 -2.35461 0 
3.21373 -2.35451 0 
3.42571 -2.35439 0 
3.63769 -2.35431 0 
3.84965 -2.35453 0 
4.06183 -2.35491 0 
4.27435 -2.35507 0 
4.48707 -2.35507 0 
4.70017 -2.35506 0 
4.91376 -2.35498 0 
5.12819 -2.35502 0 
5.34378 -2.35528 0 
5.56106 -2.35662 0 
5.78097 -2.35971 0 
6.00401 -2.36251 0 
6.2308 -2.3624 0 
6.45748 -2.35551 0 
6.68075 -2.33423 0 
6.88797 -2.39744 0 
7.05313 -2.27289 0 
7.24377 -2.40237 0 
7.48542 -2.36016 0 
7.73055 -2.36599 0 
7.99177 -2.33552 0 
8.24864 -2.40698 0 
8.48528 -2.28345 0 
-8.48528 -2.03355 0 
-8.25312 -2.18214 0 
-8.03669 -2.07913 0 
-7.83956 -2.18231 0 
-7.6106 -2.12852 0 
-7.38852 -2.10959 0 
-7.16268 -2.14097 0 
-6.9229 -2.1435 0 
-6.70119 -2.12055 0 
-6.48111 -2.11285 0 
-6.26282 -2.11284 0 
-6.045 -2.1151 0 
-5.82775 -2.11658 0 
-5.61153 -2.11776 0 
-5.3962 -2.1192 0 
-5.18144 -2.1203 0 
-4.96732 -2.12084 0 
-4.75387 -2.12105 0 
-4.54086 -2.12091 0 
-4.32822 -2.12045 0 
-4.11596 -2.12045 0 
-3.90382 -2.12107 0 
-3.69156 -2.12116 0 
-3.47938 -2.12058 0 
-3.26746 -2.12068 0 
-3.05542 -2.12154 0 
-2.84307 -2.12198 0 
-2.63064 -2.12162 0 
-2.41836 -2.12087 0 
-2.20626 -2.12031 0 
-1.99426 -2.12034 0 
-1.78217 -2.1207 0 
-1.56989 -2.12074 0 
-1.35755 -2.11993 0 
-1.14542 -2.11838 0 
-0.934012 -2.11859 0 
-0.722404 -2.12089 0 
-0.509943 -2.12344 0 
-0.296911 -2.12431 0 
-0.0840921 -2.12359 0 
0.128295 -2.12281 0 
0.340414 -2.12274 0 
0.552564 -2.12288 0 
0.76478 -2.12226 0 
0.976792 -2.1213 0 
1.18855 -2.12128 0 
1.40042 -2.12188 0 
1.61256 -2.12177 0 
1.82458 -2.12141 0 
2.03655 -2.12164 0 
2.24875 -2.12174 0 
2.46099 -2.12114 0 
2.67302 -2.12065 0 
2.88504 -2.12054 0 
3.09728 -2.1194 0 
3.30873 -2.11968 0 
3.52086 -2.1195 0 
3.7329 -2.11938 0 
3.94484 -2.11986 0 
4.15715 -2.12044 0 
4.36983 -2.12035 0 
4.58282 -2.1204 0 
4.79606 -2.12017 0 
5.01004 -2.12012 0 
5.22483 -2.12002 0 
5.44073 -2.12051 0 
5.6582 -2.123 0 
5.8782 -2.12696 0 
6.10217 -2.12971 0 
6.33095 -2.12707 0 
6.567 -2.11601 0 
6.82301 -2.12303 0 
7.06572 -2.04567 0 
7.29733 -2.17484 0 
7.54632 -2.11408 0 
7.79371 -2.13741 0 
8.02274 -2.07453 0 
8.25027 -2.1738 0 
8.48528 -2.0332 0 
-8.48528 -1.79671 0 
-8.25436 -1.93882 0 
-8.01299 -1.83977 0 
-7.78596 -1.953 0 
-7.5297 -1.87194 0 
-7.2756 -1.88722 0 
-7.05707 -1.93544 0 
-6.84369 -1.89677 0 
-6.62219 -1.88079 0 
-6.40169 -1.87606 0 
-6.18206 -1.87854 0 
-5.96274 -1.881 0 
-5.74458 -1.88208 0 
-5.52796 -1.88344 0 
-5.31232 -1.88506 0 
-5.09736 -1.88569 0 
-4.88338 -1.88564 0 
-4.67019 -1.88555 0 
-4.45737 -1.88507 0 
-4.24485 -1.88447 0 
-4.03271 -1.88482 0 
-3.82061 -1.88562 0 
-3.60832 -1.88529 0 
-3.39617 -1.88464 0 
-3.18427 -1.88547 0 
-2.97209 -1.88672 0 
-2.7596 -1.88684 0 
-2.54714 -1.88601 0 
-2.33483 -1.88505 0 
-2.12268 -1.8846 0 
-1.91058 -1.885 0 
-1.69824 -1.88561 0 
-1.48561 -1.88547 0 
-1.27286 -1.88413 0 
-1.06032 -1.88216 0 
-0.848858 -1.8839 0 
-0.636875 -1.88781 0 
-0.424169 -1.89034 0 
-0.211518 -1.89004 0 
0.000731944 -1.88866 0 
0.21257 -1.88788 0 
0.424308 -1.88807 0 
0.636257 -1.88793 0 
0.848362 -1.88664 0 
1.06025 -1.88556 0 
1.27191 -1.88605 0 
1.48381 -1.88664 0 
1.69595 -1.886 0 
1.90782 -1.88577 0 
2.11974 -1.88637 0 
2.33202 -1.88609 0 
2.54419 -1.88502 0 
2.75607 -1.88472 0 
2.96812 -1.88462 0 
3.18055 -1.88217 0 
3.39117 -1.88415 0 
3.60398 -1.8838 0 
3.81618 -1.88366 0 
4.02827 -1.88469 0 
4.24071 -1.88523 0 
4.4544 -1.88509 0 
4.66716 -1.88476 0 
4.88099 -1.88493 0 
5.09545 -1.88466 0 
5.31057 -1.88453 0 
5.52653 -1.88564 0 
5.7436 -1.88981 0 
5.96352 -1.89563 0 
6.18733 -1.89813 0 
6.41543 -1.89522 0 
6.65059 -1.89622 0 
6.87542 -1.86913 0 
7.11122 -1.81621 0 
7.31223 -1.94975 0 
7.53264 -1.87683 0 
7.77077 -1.89068 0 
8.01717 -1.8297 0 
8.25014 -1.93148 0 
8.48528 -1.79628 0 
-8.48528 -1.57009 0 
-8.24868 -1.70836 0 
-8.015 -1.61096 0 
-7.76734 -1.73071 0 
-7.54593 -1.61782 0 
-7.32306 -1.66278 0 
-7.05152 -1.7082 0 
-6.79786 -1.66675 0 
-6.56099 -1.64764 0 
-6.33267 -1.64541 0 
-6.10856 -1.64921 0 
-5.88638 -1.65073 0 
-5.66697 -1.65153 0 
-5.44986 -1.65353 0 
-5.23379 -1.65525 0 
-5.01882 -1.6551 0 
-4.80519 -1.6548 0 
-4.59235 -1.65478 0 
-4.37976 -1.65422 0 
-4.16737 -1.65386 0 
-3.95537 -1.65471 0 
-3.74326 -1.6554 0 
-3.5309 -1.65455 0 
-3.31876 -1.65426 0 
-3.10682 -1.65593 0 
-2.89443 -1.65705 0 
-2.68177 -1.65644 0 
-2.46924 -1.65516 0 
-2.25682 -1.65408 0 
-2.04447 -1.65386 0 
-1.83202 -1.65455 0 
-1.61911 -1.65506 0 
-1.40572 -1.65429 0 
-1.19212 -1.65207 0 
-0.97885 -1.64982 0 
-0.767325 -1.65372 0 
-0.555434 -1.6581 0 
-0.343588 -1.65935 0 
-0.132061 -1.65818 0 
0.0792288 -1.65687 0 
0.290417 -1.65682 0 
0.501823 -1.6575 0 
0.713729 -1.65709 0 
0.925861 -1.65545 0 
1.13768 -1.65488 0 
1.34929 -1.65604 0 
1.56128 -1.6563 0 
1.77337 -1.65516 0 
1.985 -1.65561 0 
2.19698 -1.65642 0 
2.40939 -1.65525 0 
2.62143 -1.65394 0 
2.83323 -1.65414 0 
3.04553 -1.65355 0 
3.25842 -1.64868 0 
3.46746 -1.65522 0 
3.68272 -1.65284 0 
3.89574 -1.65288 0 
4.10731 -1.65378 0 
4.32287 -1.65565 0 
4.53627 -1.65249 0 
4.74932 -1.65397 0 
4.96428 -1.65355 0 
5.17935 -1.65257 0 
5.3944 -1.65202 0 
5.60927 -1.65354 0 
5.82513 -1.66019 0 
6.04295 -1.66711 0 
6.26383 -1.66843 0 
6.48537 -1.66776 0 
6.70098 -1.65646 0 
6.91299 -1.6206 0 
7.11709 -1.6046 0 
7.3526 -1.69716 0 
7.60698 -1.65764 0 
7.8325 -1.64214 0 
8.05985 -1.58842 0 
8.2608 -1.69223 0 
8.48528 -1.56961 0 
-8.48528 -1.35019 0 
-8.24958 -1.48044 0 
-8.0219 -1.3751 0 
-7.79713 -1.50391 0 
-7.58956 -1.39834 0 
-7.36199 -1.38754 0 
-7.16079 -1.49923 0 
-6.93764 -1.46284 0 
[...]
POINT_DATA 2054 
VECTORS vectors float
2.60795e-05 -0.000486692 1 
-5.40801e-05 -0.0165911 0.999862 
-1.8459e-05 -0.019536 0.999809 
-3.29931e-05 -0.0189621 0.99982 
-3.44364e-05 -0.0171381 0.999853 
-3.42641e-05 -0.0147821 0.999891 
-3.49656e-05 -0.0124656 0.999922 
-3.44582e-05 -0.0102876 0.999947 
-3.47341e-05 -0.00819897 0.999966 
-3.47137e-05 -0.00614301 0.999981 
-3.47602e-05 -0.00410042 0.999992 
-3.48057e-05 -0.00205935 0.999998 
-3.48108e-05 6.81107e-06 1 
-3.479e-05 0.00214539 0.999998 
-3.4719e-05 0.00442888 0.99999 
-3.46178e-05 0.00695537 0.999976 
-3.44516e-05 0.00984681 0.999952 
-3.42089e-05 0.0132484 0.999912 
-3.39088e-05 0.0173333 0.99985 
-3.34989e-05 0.0223086 0.999751 
-3.29961e-05 0.0284256 0.999596 
-3.23467e-05 0.035992 0.999352 
-3.15224e-05 0.0453854 0.99897 
-3.05105e-05 0.0570726 0.99837 
-2.92265e-05 0.0716279 0.997431 
-2.76453e-05 0.0897574 0.995964 
-2.56713e-05 0.112325 0.993672 
-2.32214e-05 0.140373 0.990099 
-2.02213e-05 0.175148 0.984542 
-1.65509e-05 0.21809 0.975929 
-1.21503e-05 0.270791 0.962638 
-6.98781e-06 0.334855 0.94227 
-1.17987e-06 0.411567 0.911379 
4.91053e-06 0.501344 0.865248 
1.05703e-05 0.602788 0.797901 
1.46703e-05 0.711486 0.7027 
1.59384e-05 0.81889 0.573951 
1.35676e-05 0.912258 0.409615 
7.80702e-06 0.976761 0.214333 
3.68234e-08 1 0.000723849 
-7.74124e-06 0.977061 -0.212957 
-1.35245e-05 0.912789 -0.408431 
-1.59266e-05 0.819547 -0.573011 
-1.46796e-05 0.712177 -0.702 
-1.05977e-05 0.603452 -0.797399 
-4.9437e-06 0.501939 -0.864903 
1.15271e-06 0.412084 -0.911146 
6.96044e-06 0.335293 -0.942114 
1.21235e-05 0.271161 -0.962534 
1.65355e-05 0.218397 -0.97586 
2.02053e-05 0.175399 -0.984498 
2.3206e-05 0.140579 -0.990069 
2.56573e-05 0.112493 -0.993653 
2.76239e-05 0.0898951 -0.995951 
2.92226e-05 0.0717401 -0.997423 
3.04988e-05 0.0571636 -0.998365 
3.15126e-05 0.0454602 -0.998966 
3.23373e-05 0.0360538 -0.99935 
3.29773e-05 0.0284779 -0.999594 
3.34996e-05 0.0223537 -0.99975 
3.39007e-05 0.0173729 -0.999849 
3.41979e-05 0.0132841 -0.999912 
3.44368e-05 0.00987918 -0.999951 
3.45896e-05 0.00698518 -0.999976 
3.47035e-05 0.00445732 -0.99999 
3.47725e-05 0.00217465 -0.999998 
3.47624e-05 4.07101e-05 -1 
3.47964e-05 -0.00201633 -0.999998 
3.46809e-05 -0.004048 -0.999992 
3.44073e-05 -0.00608014 -0.999982 
3.51208e-05 -0.00810784 -0.999967 
3.40515e-05 -0.0101847 -0.999948 
3.49192e-05 -0.0123162 -0.999924 
3.46322e-05 -0.0146096 -0.999893 
3.39368e-05 -0.0169273 -0.999857 
3.33417e-05 -0.0186786 -0.999826 
1.79428e-05 -0.0192175 -0.999815 
5.46504e-05 -0.0162933 -0.999867 
-2.65638e-05 -0.000484776 -1 
-4.76459e-05 0.000129252 1 
0.0043889 -0.0123772 0.999914 
0.00679277 -0.0173825 0.999826 
0.00804776 -0.0187098 0.999793 
0.00881532 -0.0177721 0.999803 
0.00943088 -0.0159108 0.999829 
0.00977853 -0.013651 0.999859 
0.0100079 -0.0113174 0.999886 
0.0102441 -0.00909069 0.999906 
0.0104462 -0.00698936 0.999921 
0.010543 -0.00493924 0.999932 
0.0106001 -0.00289741 0.99994 
0.0106396 -0.00083674 0.999943 
0.010659 0.00128338 0.999942 
0.0106532 0.00352756 0.999937 
0.010621 0.0059831 0.999926 
0.0105613 0.00875995 0.999906 
0.0104724 0.0119931 0.999873 
0.0103511 0.015844 0.999821 
0.0101916 0.0205041 0.999738 
0.00998339 0.0262079 0.999607 
0.00972077 0.0332475 0.9994 
0.0094013 0.0419753 0.999074 
0.00901457 0.0528148 0.998564 
0.00854429 0.0662969 0.997763 
0.00797809 0.0830901 0.99651 
0.00730723 0.104008 0.99455 
0.00652121 0.130013 0.991491 
0.00560874 0.162245 0.986735 
0.00456348 0.20205 0.979365 
0.0033912 0.25096 0.967992 
0.00211616 0.310593 0.950541 
0.000788701 0.382375 0.924007 
-0.00050636 0.467024 0.884245 
-0.0016454 0.56381 0.825903 
-0.00247389 0.669726 0.742604 
-0.00283306 0.778319 0.627863 
-0.00260931 0.878671 0.477421 
-0.00180126 0.956172 0.292799 
-0.000566939 0.996477 0.0838624 
0.000799032 0.991207 -0.132321 
0.0019598 0.941643 -0.336608 
0.00264888 0.857928 -0.513763 
0.00274485 0.754681 -0.656086 
0.00227705 0.645837 -0.763472 
0.00137303 0.541398 -0.840765 
0.000193902 0.447063 -0.894502 
-0.00111079 0.365292 -0.930892 
-0.00242592 0.296349 -0.955077 
-0.00367546 0.239227 -0.970957 
-0.00481683 0.192442 -0.981296 
-0.00583122 0.154437 -0.987986 
-0.00671413 0.123721 -0.992294 
-0.00747231 0.0989678 -0.995063 
-0.00811496 0.0790657 -0.996836 
-0.00865563 0.0630718 -0.997971 
-0.00910652 0.0502251 -0.998696 
-0.00947747 0.0398985 -0.999159 
-0.0097784 0.0315792 -0.999453 
-0.0100211 0.024856 -0.999641 
-0.0102132 0.0193974 -0.99976 
-0.0103601 0.0149293 -0.999835 
-0.0104643 0.011225 -0.999882 
-0.0105276 0.00809629 -0.999912 
-0.0105493 0.00538429 -0.99993 
-0.0105231 0.00295515 -0.99994 
-0.0104324 0.000692308 -0.999945 
-0.0102689 -0.00150663 -0.999946 
-0.0101463 -0.00372821 -0.999942 
-0.0100529 -0.00598169 -0.999932 
-0.0101914 -0.00826743 -0.999914 
-0.00951739 -0.0105913 -0.999899 
-0.00977975 -0.0129652 -0.999868 
-0.00908529 -0.0155648 -0.999838 
-0.00869321 -0.0174309 -0.99981 
-0.00792529 -0.0183645 -0.9998 
-0.00671535 -0.0170711 -0.999832 
-0.00436945 -0.0123285 -0.999914 
4.85095e-05 0.000128444 -1 
4.03281e-05 -0.000214004 1 
0.00528513 -0.0130816 0.9999 
0.00859067 -0.0175209 0.99981 
0.0105151 -0.0181405 0.99978 
0.0117465 -0.0167921 0.99979 
0.0124607 -0.0148575 0.999812 
0.0128937 -0.012506 0.999839 
0.01326 -0.0101484 0.999861 
0.0135692 -0.00797786 0.999876 
0.0137567 -0.00590496 0.999888 
0.0138861 -0.00386443 0.999896 
0.0139813 -0.00181248 0.999901 
0.0140435 0.000286551 0.999901 
0.0140665 0.00248827 0.999898 
0.0140481 0.00486955 0.999889 
0.013987 0.00752652 0.999874 
0.0138803 0.0105798 0.999848 
0.0137243 0.0141784 0.999805 
0.0135145 0.0185016 0.999737 
0.0132426 0.0237622 0.99963 
0.012898 0.0302242 0.99946 
0.012474 0.0382178 0.999192 
0.0119632 0.0481368 0.998769 
0.0113504 0.0604511 0.998107 
0.0106197 0.0757639 0.997069 
0.00975942 0.0948314 0.995446 
0.00875996 0.118549 0.99291 
0.0076136 0.14796 0.988964 
0.00631941 0.184299 0.98285 
0.00488903 0.228987 0.973417 
0.00335209 0.283602 0.958936 
0.00176464 0.349673 0.93687 
0.000215987 0.428298 0.903638 
-0.00116968 0.519495 0.854473 
-0.00224365 0.62131 0.783562 
-0.0028589 0.72914 0.684359 
-0.00289773 0.83445 0.551076 
-0.00232174 0.924219 0.381857 
-0.00122997 0.983205 0.182499 
0.000133466 0.999467 -0.0326326 
0.00144783 0.969655 -0.244471 
0.00241213 0.900275 -0.435315 
0.00282542 0.804549 -0.59388 
0.0026261 0.697243 -0.716831 
0.00187684 0.590316 -0.80717 
0.000709243 0.491227 -0.871031 
-0.000725237 0.40368 -0.9149 
-0.00228349 0.328887 -0.944367 
-0.0038517 0.266375 -0.963862 
-0.00535248 0.214822 -0.976639 
-0.00673814 0.17272 -0.984948 
-0.00798284 0.138588 -0.990318 
-0.00907803 0.111021 -0.993777 
-0.01003 0.0887984 -0.995999 
-0.0108442 0.0709419 -0.997422 
-0.0115353 0.0565738 -0.998332 
-0.0121158 0.0450203 -0.998913 
-0.0125962 0.0357203 -0.999282 
-0.0129884 0.0282102 -0.999518 
-0.0133046 0.0221204 -0.999667 
-0.0135527 0.0171545 -0.999761 
-0.0137378 0.0130614 -0.99982 
-0.0138648 0.0096363 -0.999857 
-0.0139352 0.00670602 -0.99988 
-0.0139519 0.00412925 -0.999894 
-0.013912 0.00178957 -0.999902 
-0.0138098 -0.000408822 -0.999905 
-0.0136638 -0.0025382 -0.999903 
-0.0135017 -0.00465533 -0.999898 
-0.0133992 -0.00676649 -0.999887 
-0.013447 -0.0088974 -0.99987 
-0.0126169 -0.0109294 -0.999861 
-0.0131896 -0.0125771 -0.999834 
-0.0120354 -0.0144932 -0.999823 
-0.0115529 -0.0164385 -0.999798 
-0.0103269 -0.0177318 -0.999789 
-0.00850473 -0.0172628 -0.999815 
-0.00523735 -0.0130402 -0.999901 
-4.07801e-05 -0.000213607 -1 
-1.42092e-05 -6.16385e-05 1 
0.00505756 -0.0130875 0.999902 
0.00775064 -0.0172025 0.999822 
0.0100181 -0.0183159 0.999782 
0.0112271 -0.017426 0.999785 
0.0121695 -0.0158916 0.9998 
0.0129963 -0.0138227 0.99982 
0.0135068 -0.0113825 0.999844 
0.0137735 -0.00915478 0.999863 
0.0140043 -0.00704021 0.999877 
0.0141998 -0.00499458 0.999887 
0.0143531 -0.00295199 0.999893 
0.01446 -0.000874333 0.999895 
0.0145209 0.0012838 0.999894 
0.0145346 0.0035883 0.999888 
0.0144972 0.00612285 0.999876 
0.0144061 0.00899061 0.999856 
0.0142593 0.0123226 0.999822 
0.0140523 0.0162838 0.999769 
0.0137799 0.0210705 0.999683 
0.0134369 0.0269159 0.999547 
0.0130149 0.0341127 0.999333 
0.0125012 0.0430262 0.998996 
0.0118859 0.0540854 0.998466 
0.0111619 0.067805 0.997636 
0.0103174 0.0848589 0.99634 
0.00933918 0.106074 0.994314 
0.00822222 0.132407 0.991161 
0.00697086 0.164971 0.986274 
0.00559928 0.205071 0.978731 
0.00413502 0.254177 0.967149 
0.00262311 0.313851 0.949468 
0.00113373 0.385489 0.922712 
-0.000234228 0.4698 0.882773 
-0.0013613 0.566054 0.824367 
-0.00213083 0.670969 0.741482 
-0.00245046 0.778509 0.627629 
-0.00226064 0.878259 0.478179 
-0.00158416 0.95571 0.294306 
-0.000566576 0.996299 0.0859585 
0.000555874 0.991547 -0.129744 
0.00152717 0.942724 -0.333571 
0.00213482 0.859938 -0.510395 
0.00225369 0.757658 -0.652648 
0.00186671 0.64971 -0.76018 
0.00104062 0.546031 -0.837764 
-0.000121209 0.452145 -0.891944 
-0.0015014 0.370424 -0.928862 
-0.00298347 0.301293 -0.953527 
-0.00447651 0.243821 -0.96981 
-0.00591491 0.196554 -0.980475 
-0.00725207 0.158032 -0.987407 
-0.00846381 0.126832 -0.991888 
-0.00954242 0.101623 -0.994777 
-0.0104856 0.0812884 -0.996635 
-0.0113021 0.0649676 -0.997823 
-0.0120005 0.0517916 -0.998586 
-0.0125898 0.0411886 -0.999072 
-0.0130816 0.0326417 -0.999382 
-0.013485 0.0257191 -0.999578 
-0.0138073 0.0200873 -0.999703 
-0.0140581 0.0154707 -0.999781 
-0.0142419 0.0116427 -0.999831 
-0.0143637 0.00840612 -0.999862 
-0.0144259 0.00560589 -0.99988 
-0.0144324 0.00311367 -0.999891 
-0.0143891 0.000827799 -0.999896 
-0.0142993 -0.00133604 -0.999897 
-0.0141617 -0.00345288 -0.999894 
-0.0139649 -0.00557967 -0.999887 
-0.0137134 -0.00778759 -0.999876 
-0.0133545 -0.0102538 -0.999858 
-0.0127551 -0.0127488 -0.999837 
-0.0125081 -0.0149325 -0.99981 
-0.0112526 -0.0167507 -0.999796 
-0.00986967 -0.0178049 -0.999793 
-0.00764164 -0.0169957 -0.999826 
-0.00492166 -0.012899 -0.999905 
1.41657e-05 -6.15667e-05 -1 
3.81784e-06 -7.03806e-05 1 
0.00439132 -0.013072 0.999905 
0.00704148 -0.0175469 0.999821 
0.00943715 -0.0181457 0.999791 
0.0104814 -0.0169456 0.999801 
0.0116311 -0.0149666 0.99982 
0.0125408 -0.0128225 0.999839 
0.0127242 -0.010603 0.999863 
0.0129531 -0.00840141 0.999881 
0.0131788 -0.00630664 0.999893 
0.0133881 -0.00424964 0.999901 
0.0135468 -0.00217485 0.999906 
0.0136491 -4.41512e-05 0.999907 
0.0137019 0.00219772 0.999904 
0.0137027 0.00462483 0.999895 
0.0136441 0.00732689 0.99988 
0.0135268 0.0104131 0.999854 
0.0133514 0.0140276 0.999812 
0.0131117 0.0183523 0.999746 
0.0128041 0.0235999 0.999639 
0.0124278 0.0300212 0.999472 
0.0119714 0.0379384 0.999208 
0.0114187 0.0477513 0.998794 
0.0107669 0.0599168 0.998145 
0.010017 0.0749936 0.997134 
0.0091543 0.0937279 0.995556 
0.00816827 0.117002 0.993098 
0.00706456 0.145817 0.989286 
0.00585781 0.181356 0.9834 
0.00457105 0.224975 0.974354 
0.00323845 0.278172 0.960526 
0.00190807 0.342498 0.939517 
0.00065016 0.419164 0.90791 
-0.000445411 0.508439 0.861098 
-0.00128299 0.608757 0.793355 
-0.001787 0.715376 0.698737 
-0.0019054 0.820978 0.570956 
-0.00161708 0.913296 0.407294 
-0.000983445 0.97716 0.212503 
-0.000153548 1 -0.000421927 
0.000680005 0.977075 -0.212895 
0.00133073 0.9135 -0.406837 
0.00165526 0.821608 -0.570051 
0.0015806 0.71599 -0.698109 
0.00111297 0.60914 -0.793062 
0.000309826 0.509192 -0.860653 
-0.000752087 0.420162 -0.907449 
-0.00198149 0.343515 -0.939145 
-0.00328852 0.279145 -0.960243 
-0.00460601 0.225809 -0.974161 
-0.00587915 0.182017 -0.983278 
-0.00706766 0.146385 -0.989202 
-0.00815467 0.117538 -0.993035 
-0.00913097 0.0942041 -0.995511 
-0.00998412 0.0753641 -0.997106 
-0.0107413 0.0602863 -0.998123 
-0.0113874 0.0480209 -0.998781 
-0.0119344 0.0381626 -0.9992 
-0.0123961 0.0302006 -0.999467 
-0.0127722 0.0237376 -0.999637 
-0.0130718 0.0184414 -0.999744 
-0.0133007 0.0141042 -0.999812 
-0.0134688 0.0104686 -0.999854 
-0.0135745 0.00736898 -0.999881 
-0.0136236 0.00466011 -0.999896 
-0.0136236 0.00222633 -0.999905 
-0.0135846 -2.02911e-05 -0.999908 
-0.0134998 -0.00216394 -0.999907 
-0.0133473 -0.00427328 -0.999902 
-0.0131144 -0.00640117 -0.999894 
-0.0128298 -0.00862845 -0.99988 
-0.0123544 -0.0108756 -0.999865 
-0.0116176 -0.0133479 -0.999843 
-0.0116932 -0.0151707 -0.999817 
-0.0104355 -0.016897 -0.999803 
-0.00902345 -0.0178068 -0.999801 
-0.00677997 -0.0172554 -0.999828 
-0.00429678 -0.0129248 -0.999907 
-2.66535e-06 -7.05798e-05 -1 
-1.50223e-06 -5.0555e-05 1 
0.00388493 -0.0133239 0.999904 
0.00600224 -0.0176925 0.999825 
0.0084417 -0.0182067 0.999799 
0.0089342 -0.0173194 0.99981 
0.0100718 -0.0155246 0.999829 
0.0111001 -0.0127815 0.999857 
0.0112888 -0.0101755 0.999885 
0.011482 -0.00785262 0.999903 
0.0117178 -0.00569534 0.999915 
0.0119355 -0.00358493 0.999922 
0.0120807 -0.00145033 0.999926 
0.0121671 0.000755425 0.999926 
0.012209 0.00309869 0.999921 
0.012195 0.0056632 0.99991 
0.0121136 0.00854227 0.99989 
0.0119778 0.0118541 0.999858 
0.0117882 0.0157589 0.999806 
0.0115344 0.0204551 0.999724 
0.0112176 0.0261716 0.999595 
0.0108395 0.0331758 0.999391 
0.0103826 0.0418235 0.999071 
0.00983172 0.0525446 0.99857 
0.00919753 0.0658202 0.997789 
0.00848305 0.0822589 0.996575 
0.0076668 0.102681 0.994685 
0.006746 0.12801 0.99175 
0.00573765 0.159289 0.987215 
0.00466121 0.197774 0.980237 
0.00354233 0.244875 0.969548 
0.00241374 0.302124 0.953266 
0.00131879 0.371044 0.928614 
0.000319591 0.452626 0.8917 
-0.00050987 0.546593 0.837398 
-0.00110024 0.650332 0.759649 
-0.00141087 0.757399 0.652951 
-0.00141101 0.859122 0.511769 
-0.00110673 0.941802 0.336168 
-0.000575123 0.991008 0.133799 
5.50814e-05 0.996779 -0.0801984 
0.000637905 0.957958 -0.286908 
0.00104123 0.882647 -0.470035 
0.0011692 0.78439 -0.620267 
0.000982747 0.677326 -0.735682 
0.000500606 0.572537 -0.819878 
-0.000231024 0.476527 -0.87916 
-0.00115475 0.392095 -0.919924 
-0.00219857 0.320072 -0.947391 
-0.00329888 0.259944 -0.965618 
-0.00440817 0.210207 -0.977647 
-0.0054782 0.169432 -0.985527 
-0.00648117 0.136315 -0.990644 
-0.00740919 0.109494 -0.99396 
-0.00824508 0.0877649 -0.996107 
-0.00896382 0.0702032 -0.997492 
-0.00965174 0.0562438 -0.99837 
-0.0102069 0.0446842 -0.998949 
-0.0106878 0.0354529 -0.999314 
-0.0110906 0.0280309 -0.999546 
-0.0114356 0.021891 -0.999695 
-0.0116728 0.0169297 -0.999789 
-0.0118831 0.0128277 -0.999847 
-0.0120223 0.00935274 -0.999884 
-0.0121036 0.0063691 -0.999906 
-0.0121368 0.003741 -0.999919 
-0.0121353 0.00136633 -0.999925 
-0.0121221 -0.000842678 -0.999926 
-0.0120579 -0.00295692 -0.999923 
-0.0118995 -0.00504365 -0.999916 
-0.0116737 -0.00712744 -0.999906 
-0.0113227 -0.00921398 -0.999893 
-0.0107489 -0.0114007 -0.999877 
-0.0102707 -0.0136012 -0.999855 
-0.0101537 -0.0156986 -0.999825 
-0.00883314 -0.0174848 -0.999808 
-0.00741722 -0.0182158 -0.999807 
-0.00543112 -0.016997 -0.999841 
-0.00358764 -0.0128128 -0.999911 
-8.69439e-07 -5.0356e-05 -1 
-1.15396e-06 -4.11547e-05 1 
0.00323739 -0.0134501 0.999904 
0.00481802 -0.0178066 0.99983 
0.00694772 -0.0185008 0.999805 
0.00728644 -0.0178589 0.999814 
0.00793529 -0.0160532 0.99984 
0.0093373 -0.0140753 0.999857 
0.00946989 -0.0117006 0.999887 
0.00953096 -0.00936707 0.999911 
0.00971262 -0.00715715 0.999927 
0.00994853 -0.00502904 0.999938 
0.0101494 -0.00289922 0.999944 
0.0102568 -0.00071022 0.999947 
0.0103207 0.00156725 0.999946 
0.01035 0.00401504 0.999938 
0.0103118 0.00671498 0.999924 
0.0102097 0.00977167 0.9999 
0.0100666 0.0133092 0.999861 
0.00987636 0.017502 0.999798 
0.00962813 0.0225765 0.999699 
0.00932475 0.028765 0.999543 
0.00896932 0.0363573 0.999299 
0.00853848 0.0457414 0.998917 
0.00802609 0.0573747 0.99832 
0.00745283 0.0717571 0.997394 
0.00681474 0.0895556 0.995959 
0.00608839 0.111658 0.993728 
0.00528316 0.13902 0.990275 
0.00442232 0.172735 0.984958 
0.00352517 0.214128 0.976799 
0.00261526 0.264661 0.964338 
0.0017197 0.325871 0.945413 
0.000873555 0.399194 0.916866 
0.000126876 0.485277 0.87436 
-0.000465579 0.583093 0.812405 
-0.000860736 0.688743 0.725005 
-0.00104245 0.794228 0.607619 
-0.000991408 0.890169 0.45563 
-0.000730463 0.962555 0.271085 
-0.000329381 0.997977 0.0635717 
0.000112505 0.988681 -0.15003 
0.000489773 0.936514 -0.350631 
0.000711047 0.851915 -0.523679 
0.000714589 0.749158 -0.662391 
0.000484554 0.641809 -0.766864 
4.32352e-05 0.53958 -0.841934 
-0.000576709 0.447462 -0.894303 
-0.00133271 0.367306 -0.930099 
-0.00217182 0.299466 -0.954105 
-0.0030555 0.243103 -0.969996 
-0.00394673 0.196495 -0.980497 
-0.00480427 0.158328 -0.987375 
-0.00561706 0.127406 -0.991835 
-0.0063796 0.102334 -0.99473 
-0.00706217 0.0819478 -0.996612 
-0.00763006 0.0654311 -0.997828 
-0.00828351 0.0525439 -0.998584 
-0.00872184 0.0413327 -0.999107 
-0.00908677 0.0328998 -0.999417 
-0.00949677 0.0257008 -0.999625 
-0.00971725 0.020023 -0.999752 
-0.00991423 0.0153527 -0.999833 
-0.0101078 0.0114888 -0.999883 
-0.0102023 0.00814733 -0.999915 
-0.0102464 0.00527413 -0.999934 
-0.0102495 0.00274441 -0.999944 
-0.0102612 0.000417344 -0.999947 
-0.0102644 -0.00174194 -0.999946 
-0.0102181 -0.00382645 -0.99994 
-0.0100319 -0.0058929 -0.999932 
-0.00974334 -0.007958 -0.999921 
-0.00929404 -0.0101725 -0.999905 
-0.00860225 -0.0126859 -0.999883 
-0.00886037 -0.0151185 -0.999846 
-0.00810077 -0.0168824 -0.999825 
-0.00678216 -0.0181101 -0.999813 
-0.00546908 -0.0183671 -0.999816 
-0.00311252 -0.0134157 -0.999905 
4.16119e-06 -4.12295e-05 -1 
-1.06921e-06 -3.63151e-05 1 
0.00257921 -0.0135437 0.999905 
0.00377916 -0.0180089 0.999831 
0.00552386 -0.0186992 0.99981 
0.00598745 -0.0177125 0.999825 
0.00624382 -0.0157684 0.999856 
0.00762035 -0.0137007 0.999877 
0.00763531 -0.0111853 0.999908 
0.00775159 -0.00879498 0.999931 
0.00794874 -0.00657187 0.999947 
0.00819012 -0.00441641 0.999957 
0.00836391 -0.00222794 0.999963 
0.00842136 2.34681e-05 0.999965 
0.00848044 0.0023748 0.999961 
0.00849295 0.00491278 0.999952 
0.00843948 0.00774641 0.999934 
0.00833121 0.0109782 0.999905 
0.00819526 0.01472 0.999858 
0.00802399 0.0192089 0.999783 
0.00779339 0.02466 0.999666 
0.00752002 0.0313156 0.999481 
0.00720026 0.0394869 0.999194 
0.00681179 0.0495984 0.998746 
0.00636098 0.0621069 0.998049 
0.00586886 0.0775424 0.996972 
0.00532068 0.0966456 0.995305 
0.00469979 0.120355 0.99272 
0.00402705 0.149601 0.988738 
0.00332572 0.185497 0.982639 
0.00261175 0.229387 0.973332 
0.00190474 0.282654 0.95922 
0.00122491 0.346684 0.937981 
0.00059796 0.422685 0.906277 
5.97515e-05 0.510799 0.8597 
-0.000356339 0.609586 0.79272 
-0.000628562 0.714896 0.69923 
-0.000745975 0.818757 0.574139 
-0.000691808 0.91093 0.412561 
-0.000490527 0.975856 0.218413 
-0.000199955 0.999991 0.00426956 
0.000101031 0.977636 -0.210305 
0.000334147 0.913915 -0.405905 
0.000436991 0.82165 -0.569992 
0.000373155 0.715701 -0.698407 
0.000141971 0.60901 -0.793163 
-0.000237269 0.509711 -0.860345 
-0.000743539 0.421327 -0.906909 
-0.00134418 0.345075 -0.938574 
-0.00200326 0.28105 -0.959691 
-0.00270036 0.228048 -0.973646 
-0.00340259 0.184065 -0.982908 
-0.00407569 0.148135 -0.988959 
-0.0047256 0.119192 -0.99286 
-0.00534422 0.0955568 -0.99541 
-0.0058898 0.0761129 -0.997082 
-0.00631067 0.0602959 -0.998161 
-0.00704499 0.0484437 -0.998801 
-0.0071334 0.0381626 -0.999246 
-0.00766297 0.0296696 -0.99953 
-0.00783623 0.0232259 -0.9997 
-0.00802007 0.017936 -0.999807 
-0.00816222 0.0135934 -0.999874 
-0.0083669 0.00998489 -0.999915 
-0.008387 0.0067039 -0.999942 
-0.00834648 0.0039992 -0.999957 
-0.00837086 0.0015239 -0.999964 
-0.0083474 -0.000728586 -0.999965 
-0.00835239 -0.00278654 -0.999961 
-0.00829742 -0.00471353 -0.999954 
-0.00805996 -0.00663334 -0.999946 
-0.00779806 -0.00867537 -0.999932 
-0.00739064 -0.0109567 -0.999913 
-0.00677629 -0.0134777 -0.999886 
-0.00726037 -0.015475 -0.999854 
-0.00625227 -0.0174329 -0.999828 
-0.00495001 -0.0184328 -0.999818 
-0.00387751 -0.0172158 -0.999844 
-0.00221376 -0.0128418 -0.999915 