# vtk DataFile Version 3.0 
Exported using Morpho https://github.com/Morpho-lang/morpho 
ASCII 
DATASET UNSTRUCTURED_GRID 

POINTS 2054 float 
-8.48528 -2.82843 0 
-8.20636 -2.82843 0 
-7.94054 -2.82843 0 
-7.6904 -2.82843 0 
-7.45357 -2.82843 0 
-7.22694 -2.82843 0 
-7.00705 -2.82843 0 
-6.79111 -2.82843 0 
-6.57731 -2.82843 0 
-6.36453 -2.82843 0 
-6.15219 -2.82843 0 
-5.94 -2.82843 0 
-5.72786 -2.82843 0 
-5.51573 -2.82843 0 
-5.3036 -2.82843 0 
-5.09147 -2.82843 0 
-4.87933 -2.82843 0 
-4.6672 -2.82843 0 
-4.45507 -2.82843 0 
-4.24294 -2.82843 0 
-4.03081 -2.82843 0 
-3.81867 -2.82843 0 
-3.60654 -2.82843 0 
-3.39441 -2.82843 0 
-3.18228 -2.82843 0 
-2.97015 -2.82843 0 
-2.75801 -2.82843 0 
-2.54588 -2.82843 0 
-2.33375 -2.82843 0 
-2.12162 -2.82843 0 
-1.90949 -2.82843 0 
-1.69735 -2.82843 0 
-1.48522 -2.82843 0 
-1.27309 -2.82843 0 
-1.06096 -2.82843 0 
-0.848825 -2.82843 0 
-0.636693 -2.82843 0 
-0.424561 -2.82843 0 
-0.212429 -2.82843 0 
-0.000296761 -2.82843 0 
0.211835 -2.82843 0 
0.423967 -2.82843 0 
0.636099 -2.82843 0 
0.848231 -2.82843 0 
1.06036 -2.82843 0 
1.2725 -2.82843 0 
1.48463 -2.82843 0 
1.69676 -2.82843 0 
1.90889 -2.82843 0 
2.12102 -2.82843 0 
2.33316 -2.82843 0 
2.54529 -2.82843 0 
2.75742 -2.82843 0 
2.96955 -2.82843 0 
3.18168 -2.82843 0 
3.39382 -2.82843 0 
3.60595 -2.82843 0 
3.81808 -2.82843 0 
4.03021 -2.82843 0 
4.24234 -2.82843 0 
4.45448 -2.82843 0 
4.66661 -2.82843 0 
4.87874 -2.82843 0 
5.09087 -2.82843 0 
5.303 -2.82843 0 
5.51514 -2.82843 0 
5.72727 -2.82843 0 
5.93941 -2.82843 0 
6.15159 -2.82843 0 
6.36393 -2.82843 0 
6.57672 -2.82843 0 
6.79055 -2.82843 0 
7.00652 -2.82843 0 
7.22647 -2.82843 0 
7.45313 -2.82843 0 
7.69005 -2.82843 0 
7.9403 -2.82843 0 
8.20621 -2.82843 0 
8.48528 -2.82843 0 
-8.48528 -2.5495 0 
-8.30526 -2.64845 0 
-8.07062 -2.59995 0 
-7.83904 -2.59637 0 
-7.59595 -2.59733 0 
-7.36578 -2.59177 0 
-7.13796 -2.5933 0 
-6.90908 -2.59428 0 
-6.68421 -2.5916 0 
-6.46568 -2.58832 0 
-6.24926 -2.58859 0 
-6.03358 -2.58941 0 
-5.81848 -2.59013 0 
-5.60402 -2.59075 0 
-5.39005 -2.59135 0 
-5.17642 -2.59186 0 
-4.96311 -2.59223 0 
-4.75009 -2.59242 0 
-4.53736 -2.59244 0 
-4.32497 -2.59236 0 
-4.1128 -2.59242 0 
-3.90059 -2.59259 0 
-3.68835 -2.5926 0 
-3.47627 -2.59248 0 
-3.26428 -2.59251 0 
-3.05216 -2.59271 0 
-2.83986 -2.59283 0 
-2.62755 -2.59274 0 
-2.41539 -2.59253 0 
-2.20336 -2.59238 0 
-1.99135 -2.59238 0 
-1.77924 -2.59246 0 
-1.56704 -2.59244 0 
-1.35495 -2.59215 0 
-1.14319 -2.59183 0 
-0.931581 -2.59195 0 
-0.719663 -2.59256 0 
-0.507197 -2.59324 0 
-0.294425 -2.59354 0 
-0.0817689 -2.59344 0 
0.130587 -2.59325 0 
0.342804 -2.59322 0 
0.555051 -2.59322 0 
0.767233 -2.59303 0 
0.97919 -2.59278 0 
1.19107 -2.59278 0 
1.40311 -2.59289 0 
1.61524 -2.59286 0 
1.82732 -2.59279 0 
2.03943 -2.59281 0 
2.25163 -2.5928 0 
2.46381 -2.59266 0 
2.67591 -2.59254 0 
2.88801 -2.59237 0 
3.10001 -2.59226 0 
3.31203 -2.59216 0 
3.52402 -2.59207 0 
3.73601 -2.59208 0 
3.94815 -2.59221 0 
4.16052 -2.5923 0 
4.37309 -2.59232 0 
4.58593 -2.59227 0 
4.79921 -2.5922 0 
5.01319 -2.59212 0 
5.22833 -2.5921 0 
5.44534 -2.59239 0 
5.6657 -2.59346 0 
5.89185 -2.59569 0 
6.12685 -2.59429 0 
6.36853 -2.59189 0 
6.6108 -2.57787 0 
6.84491 -2.61411 0 
7.08804 -2.58476 0 
7.34858 -2.60369 0 
7.58803 -2.59327 0 
7.83059 -2.59326 0 
8.06387 -2.59199 0 
8.30038 -2.64348 0 
8.48528 -2.54936 0 
-8.48528 -2.28369 0 
-8.25701 -2.4138 0 
-8.01078 -2.35334 0 
-7.73666 -2.37963 0 
-7.49744 -2.35565 0 
-7.26898 -2.35831 0 
-7.03324 -2.36676 0 
-6.7997 -2.36275 0 
-6.5773 -2.35166 0 
-6.35808 -2.3495 0 
-6.14038 -2.35058 0 
-5.92336 -2.35185 0 
-5.70723 -2.35272 0 
-5.49199 -2.35362 0 
-5.27734 -2.35447 0 
-5.0632 -2.35505 0 
-4.84958 -2.35534 0 
-4.63641 -2.35533 0 
-4.42363 -2.35504 0 
-4.21126 -2.35485 0 
-3.99909 -2.35513 0 
-3.78684 -2.3554 0 
-3.57461 -2.35516 0 
-3.36263 -2.35498 0 
-3.15066 -2.35537 0 
-2.93843 -2.35586 0 
-2.72604 -2.35589 0 
-2.51374 -2.35551 0 
-2.30162 -2.35509 0 
-2.08964 -2.35496 0 
-1.87761 -2.35518 0 
-1.66544 -2.3554 0 
-1.45322 -2.35518 0 
-1.2412 -2.35438 0 
-1.02967 -2.35407 0 
-0.818162 -2.35505 0 
-0.606054 -2.35676 0 
-0.393243 -2.3579 0 
-0.180256 -2.35789 0 
0.0323765 -2.35727 0 
0.244686 -2.35692 0 
0.456926 -2.35692 0 
0.669206 -2.35667 0 
0.881318 -2.35598 0 
1.09315 -2.35559 0 
1.305 -2.35583 0 
1.51709 -2.35595 0 
1.72919 -2.35571 0 
1.9412 -2.35566 0 
2.15334 -2.3558 0 
2.36559 -2.3556 0 
2.57772 -2.35522 0 
2.78976 -2.35507 0 
3.0019 -2.35461 0 
3.21373 -2.35451 0 
3.42571 -2.35439 0 
3.63769 -2.35431 0 
3.84965 -2.35453 0 
4.06183 -2.35491 0 
4.27435 -2.35507 0 
4.48707 -2.35507 0 
4.70017 -2.35506 0 
4.91376 -2.35498 0 
5.12819 -2.35502 0 
5.34378 -2.35528 0 
5.56106 -2.35662 0 
5.78097 -2.35971 0 
6.00401 -2.36251 0 
6.2308 -2.3624 0 
6.45748 -2.35551 0 
6.68075 -2.33423 0 
6.88797 -2.39744 0 
7.05313 -2.27289 0 
7.24377 -2.40237 0 
7.48542 -2.36016 0 
7.73055 -2.36599 0 
7.99177 -2.33552 0 
8.24864 -2.40698 0 
8.48528 -2.28345 0 
-8.48528 -2.03355 0 
-8.25312 -2.18214 0 
-8.03669 -2.07913 0 
-7.83956 -2.18231 0 
-7.6106 -2.12852 0 
-7.38852 -2.10959 0 
-7.16268 -2.14097 0 
-6.9229 -2.1435 0 
-6.70119 -2.12055 0 
-6.48111 -2.11285 0 
-6.26282 -2.11284 0 
-6.045 -2.1151 0 
-5.82775 -2.11658 0 
-5.61153 -2.11776 0 
-5.3962 -2.1192 0 
-5.18144 -2.1203 0 
-4.96732 -2.12084 0 
-4.75387 -2.12105 0 
-4.54086 -2.12091 0 
-4.32822 -2.12045 0 
-4.11596 -2.12045 0 
-3.90382 -2.12107 0 
-3.69156 -2.12116 0 
-3.47938 -2.12058 0 
-3.26746 -2.12068 0 
-3.05542 -2.12154 0 
-2.84307 -2.12198 0 
-2.63064 -2.12162 0 
-2.41836 -2.12087 0 
-2.20626 -2.12031 0 
-1.99426 -2.12034 0 
-1.78217 -2.1207 0 
-1.56989 -2.12074 0 
-1.35755 -2.11993 0 
-1.14542 -2.11838 0 
-0.934012 -2.11859 0 
-0.722404 -2.12089 0 
-0.509943 -2.12344 0 
-0.296911 -2.12431 0 
-0.0840921 -2.12359 0 
0.128295 -2.12281 0 
0.340414 -2.12274 0 
0.552564 -2.12288 0 
0.76478 -2.12226 0 
0.976792 -2.1213 0 
1.18855 -2.12128 0 
1.40042 -2.12188 0 
1.61256 -2.12177 0 
1.82458 -2.12141 0 
2.03655 -2.12164 0 
2.24875 -2.12174 0 
2.46099 -2.12114 0 
2.67302 -2.12065 0 
2.88504 -2.12054 0 
3.09728 -2.1194 0 
3.30873 -2.11968 0 
3.52086 -2.1195 0 
3.7329 -2.11938 0 
3.94484 -2.11986 0 
4.15715 -2.12044 0 
4.36983 -2.12035 0 
4.58282 -2.1204 0 
4.79606 -2.12017 0 
5.01004 -2.12012 0 
5.22483 -2.12002 0 
5.44073 -2.12051 0 
5.6582 -2.123 0 
5.8782 -2.12696 0 
6.10217 -2.12971 0 
6.33095 -2.12707 0 
6.567 -2.11601 0 
6.82301 -2.12303 0 
7.06572 -2.04567 0 
7.29733 -2.17484 0 
7.54632 -2.11408 0 
7.79371 -2.13741 0 
8.02274 -2.07453 0 
8.25027 -2.1738 0 
8.48528 -2.0332 0 
-8.48528 -1.79671 0 
-8.25436 -1.93882 0 
-8.01299 -1.83977 0 
-7.78596 -1.953 0 
-7.5297 -1.87194 0 
-7.2756 -1.88722 0 
-7.05707 -1.93544 0 
-6.84369 -1.89677 0 
-6.62219 -1.88079 0 
-6.40169 -1.87606 0 
-6.18206 -1.87854 0 
-5.96274 -1.881 0 
-5.74458 -1.88208 0 
-5.52796 -1.88344 0 
-5.31232 -1.88506 0 
-5.09736 -1.88569 0 
-4.88338 -1.88564 0 
-4.67019 -1.88555 0 
-4.45737 -1.88507 0 
-4.24485 -1.88447 0 
-4.03271 -1.88482 0 
-3.82061 -1.88562 0 
-3.60832 -1.88529 0 
-3.39617 -1.88464 0 
-3.18427 -1.88547 0 
-2.97209 -1.88672 0 
-2.7596 -1.88684 0 
-2.54714 -1.88601 0 
-2.33483 -1.88505 0 
-2.12268 -1.8846 0 
-1.91058 -1.885 0 
-1.69824 -1.88561 0 
-1.48561 -1.88547 0 
-1.27286 -1.88413 0 
-1.06032 -1.88216 0 
-0.848858 -1.8839 0 
-0.636875 -1.88781 0 
-0.424169 -1.89034 0 
-0.211518 -1.89004 0 
0.000731944 -1.88866 0 
0.21257 -1.88788 0 
0.424308 -1.88807 0 
0.636257 -1.88793 0 
0.848362 -1.88664 0 
1.06025 -1.88556 0 
1.27191 -1.88605 0 
1.48381 -1.88664 0 
1.69595 -1.886 0 
1.90782 -1.88577 0 
2.11974 -1.88637 0 
2.33202 -1.88609 0 
2.54419 -1.88502 0 
2.75607 -1.88472 0 
2.96812 -1.88462 0 
3.18055 -1.88217 0 
3.39117 -1.88415 0 
3.60398 -1.8838 0 
3.81618 -1.88366 0 
4.02827 -1.88469 0 
4.24071 -1.88523 0 
4.4544 -1.88509 0 
4.66716 -1.88476 0 
4.88099 -1.88493 0 
5.09545 -1.88466 0 
5.31057 -1.88453 0 
5.52653 -1.88564 0 
5.7436 -1.88981 0 
5.96352 -1.89563 0 
6.18733 -1.89813 0 
6.41543 -1.89522 0 
6.65059 -1.89622 0 
6.87542 -1.86913 0 
7.11122 -1.81621 0 
7.31223 -1.94975 0 
7.53264 -1.87683 0 
7.77077 -1.89068 0 
8.01717 -1.8297 0 
8.25014 -1.93148 0 
8.48528 -1.79628 0 
-8.48528 -1.57009 0 
-8.24868 -1.70836 0 
-8.015 -1.61096 0 
-7.76734 -1.73071 0 
-7.54593 -1.61782 0 
-7.32306 -1.66278 0 
-7.05152 -1.7082 0 
-6.79786 -1.66675 0 
-6.56099 -1.64764 0 
-6.33267 -1.64541 0 
-6.10856 -1.64921 0 
-5.88638 -1.65073 0 
-5.66697 -1.65153 0 
-5.44986 -1.65353 0 
-5.23379 -1.65525 0 
-5.01882 -1.6551 0 
-4.80519 -1.6548 0 
-4.59235 -1.65478 0 
-4.37976 -1.65422 0 
-4.16737 -1.65386 0 
-3.95537 -1.65471 0 
-3.74326 -1.6554 0 
-3.5309 -1.65455 0 
-3.31876 -1.65426 0 
-3.10682 -1.65593 0 
-2.89443 -1.65705 0 
-2.68177 -1.65644 0 
-2.46924 -1.65516 0 
-2.25682 -1.65408 0 
-2.04447 -1.65386 0 
-1.83202 -1.65455 0 
-1.61911 -1.65506 0 
-1.40572 -1.65429 0 
-1.19212 -1.65207 0 
-0.97885 -1.64982 0 
-0.767325 -1.65372 0 
-0.555434 -1.6581 0 
-0.343588 -1.65935 0 
-0.132061 -1.65818 0 
0.0792288 -1.65687 0 
0.290417 -1.65682 0 
0.501823 -1.6575 0 
0.713729 -1.65709 0 
0.925861 -1.65545 0 
1.13768 -1.65488 0 
1.34929 -1.65604 0 
1.56128 -1.6563 0 
1.77337 -1.65516 0 
1.985 -1.65561 0 
2.19698 -1.65642 0 
2.40939 -1.65525 0 
2.62143 -1.65394 0 
2.83323 -1.65414 0 
3.04553 -1.65355 0 
3.25842 -1.64868 0 
3.46746 -1.65522 0 
3.68272 -1.65284 0 
3.89574 -1.65288 0 
4.10731 -1.65378 0 
4.32287 -1.65565 0 
4.53627 -1.65249 0 
4.74932 -1.65397 0 
4.96428 -1.65355 0 
5.17935 -1.65257 0 
5.3944 -1.65202 0 
5.60927 -1.65354 0 
5.82513 -1.66019 0 
6.04295 -1.66711 0 
6.26383 -1.66843 0 
6.48537 -1.66776 0 
6.70098 -1.65646 0 
6.91299 -1.6206 0 
7.11709 -1.6046 0 
7.3526 -1.69716 0 
7.60698 -1.65764 0 
7.8325 -1.64214 0 
8.05985 -1.58842 0 
8.2608 -1.69223 0 
8.48528 -1.56961 0 
-8.48528 -1.35019 0 
-8.24958 -1.48044 0 
-8.0219 -1.3751 0 
-7.79713 -1.50391 0 
-7.58956 -1.39834 0 
-7.36199 -1.38754 0 
-7.16079 -1.49923 0 
-6.93764 -1.46284 0 
[...]
POINT_DATA 2054 
VECTORS vectors float
0.00757754 -0.009222 0.999928 
0.00885895 -0.0170025 0.999826 
0.0094138 -0.0198271 0.999771 
0.00894999 -0.019114 0.999784 
0.00810531 -0.0172391 0.999823 
0.00779395 -0.0148383 0.999862 
0.00765454 -0.0125025 0.999894 
0.00761007 -0.0103198 0.999919 
0.00760088 -0.00822734 0.999938 
0.0075971 -0.00616474 0.999953 
0.00759312 -0.0041153 0.999964 
0.00759291 -0.00206913 0.99997 
0.0075918 1.6158e-07 0.999972 
0.00758536 0.00213967 0.99997 
0.00757086 0.00442213 0.999962 
0.00754627 0.00694619 0.999948 
0.0075098 0.00983434 0.999924 
0.00745942 0.013232 0.999886 
0.00739257 0.0173123 0.999824 
0.00730576 0.0222822 0.999726 
0.00719422 0.028393 0.999572 
0.00705325 0.0359518 0.99933 
0.00687669 0.0453363 0.998949 
0.00665541 0.057013 0.998352 
0.00637845 0.0715561 0.997417 
0.00603329 0.0896715 0.995954 
0.00560512 0.112223 0.993668 
0.00507576 0.140254 0.990103 
0.00442443 0.17501 0.984558 
0.00363018 0.217934 0.975958 
0.00267598 0.27062 0.962683 
0.00155702 0.334676 0.942333 
0.000294964 0.411394 0.911458 
-0.00104078 0.501192 0.865336 
-0.00230764 0.602675 0.797984 
-0.00327579 0.711419 0.702761 
-0.00365645 0.818863 0.573977 
-0.00320572 0.912254 0.409611 
-0.00189044 0.97676 0.21432 
-9.07746e-06 0.999998 0.000723938 
0.00187521 0.977061 -0.212945 
0.00319707 0.912785 -0.408426 
0.0036543 0.819521 -0.573037 
0.00327841 0.71211 -0.70206 
0.00231311 0.603339 -0.797482 
0.00104737 0.501787 -0.864991 
-0.000288408 0.411911 -0.911225 
-0.00155118 0.335115 -0.942177 
-0.00267087 0.27099 -0.962579 
-0.00362552 0.218241 -0.975889 
-0.00442036 0.175261 -0.984513 
-0.0050725 0.14046 -0.990074 
-0.00560259 0.112391 -0.993649 
-0.00603113 0.0898091 -0.995942 
-0.00637604 0.0716682 -0.997409 
-0.00665313 0.057104 -0.998347 
-0.00687512 0.045411 -0.998946 
-0.00705207 0.0360135 -0.999327 
-0.00719258 0.0284451 -0.99957 
-0.00730363 0.0223273 -0.999725 
-0.00739055 0.017352 -0.999823 
-0.00745741 0.0132678 -0.999885 
-0.00750721 0.00986681 -0.999924 
-0.00754264 0.00697602 -0.999948 
-0.0075659 0.00445047 -0.999962 
-0.00757859 0.00216866 -0.99997 
-0.00757949 3.34955e-05 -0.999972 
-0.00756892 -0.00202661 -0.99997 
-0.00755911 -0.00406416 -0.999964 
-0.00756192 -0.00609878 -0.999954 
-0.00763132 -0.00813887 -0.999939 
-0.00753874 -0.0102178 -0.999921 
-0.00767632 -0.0123497 -0.999896 
-0.00779708 -0.0146705 -0.999865 
-0.00808273 -0.017031 -0.999827 
-0.0089399 -0.0188314 -0.999789 
-0.0093769 -0.0195142 -0.999778 
-0.00881049 -0.0167001 -0.999831 
-0.00757023 -0.00919773 -0.999928 
0.00228475 -0.0112437 0.999928 
0.00468605 -0.0128145 0.999906 
0.00715451 -0.0177382 0.999816 
0.0083871 -0.0189685 0.999784 
0.00916961 -0.017912 0.999797 
0.00979014 -0.0160068 0.999824 
0.0101474 -0.0137084 0.999854 
0.0103756 -0.0113548 0.999882 
0.0106118 -0.00911936 0.999902 
0.0108149 -0.00701297 0.999917 
0.0109143 -0.00495771 0.999928 
0.0109714 -0.00291034 0.999936 
0.0110114 -0.000845615 0.999939 
0.0110312 0.00127666 0.999938 
0.0110252 0.00352137 0.999933 
0.0109922 0.00597602 0.999922 
0.0109309 0.00875087 0.999902 
0.0108396 0.0119813 0.99987 
0.0107151 0.0158289 0.999817 
0.0105513 0.0204851 0.999735 
0.0103375 0.0261843 0.999604 
0.0100678 0.0332186 0.999397 
0.0097395 0.0419402 0.999073 
0.00934168 0.0527724 0.998563 
0.00885766 0.0662462 0.997764 
0.00827447 0.0830299 0.996513 
0.00758263 0.103937 0.994555 
0.00677092 0.129931 0.9915 
0.00582727 0.162151 0.986749 
0.00474458 0.201944 0.979386 
0.00352817 0.250845 0.968021 
0.00220254 0.310474 0.95058 
0.00081949 0.382259 0.924055 
-0.000532688 0.46692 0.8843 
-0.00172435 0.563731 0.825958 
-0.00259283 0.669676 0.742649 
-0.00297044 0.778296 0.62789 
-0.00273652 0.878665 0.477428 
-0.00188877 0.956171 0.292794 
-0.000593177 0.996473 0.0838595 
0.000840525 0.991203 -0.132316 
0.00205851 0.941641 -0.336604 
0.0027809 0.85792 -0.513773 
0.00288029 0.754653 -0.656117 
0.00238846 0.645779 -0.763521 
0.00144079 0.541312 -0.840821 
0.000207368 0.446956 -0.894556 
-0.00115448 0.365174 -0.930939 
-0.0025242 0.29623 -0.955114 
-0.00382296 0.239115 -0.970984 
-0.005007 0.19234 -0.981316 
-0.0060573 0.154345 -0.987999 
-0.00697011 0.123642 -0.992303 
-0.00775277 0.0988995 -0.995067 
-0.00841537 0.0790077 -0.996839 
-0.00897227 0.0630231 -0.997972 
-0.00943622 0.0501844 -0.998696 
-0.00981764 0.0398648 -0.999157 
-0.010127 0.0315516 -0.999451 
-0.0103764 0.0248336 -0.999638 
-0.0105738 0.0193793 -0.999756 
-0.0107247 0.014915 -0.999831 
-0.0108319 0.011214 -0.999879 
-0.0108973 0.00808779 -0.999908 
-0.0109202 0.0053775 -0.999926 
-0.0108946 0.00294889 -0.999936 
-0.010802 0.000685059 -0.999941 
-0.0106364 -0.00151676 -0.999942 
-0.0105056 -0.00374413 -0.999938 
-0.0104246 -0.00600327 -0.999927 
-0.010518 -0.00829392 -0.99991 
-0.00992292 -0.0106257 -0.999895 
-0.0101451 -0.0130187 -0.999863 
-0.00946017 -0.0156577 -0.999832 
-0.00903104 -0.0175684 -0.999804 
-0.00826544 -0.0186233 -0.999791 
-0.00707088 -0.0174176 -0.999822 
-0.00467697 -0.0127787 -0.999906 
-0.00220233 -0.0111941 -0.999928 
0.0019841 -0.0106425 0.999936 
0.00546192 -0.0135295 0.999893 
0.00893322 -0.017921 0.999799 
0.0108124 -0.0183099 0.999774 
0.0120628 -0.016915 0.999784 
0.0127738 -0.0149476 0.999807 
0.0132012 -0.0125568 0.999834 
0.0135657 -0.0101812 0.999857 
0.0138706 -0.00800309 0.999872 
0.0140541 -0.00592643 0.999884 
0.0141837 -0.00388093 0.999892 
0.0142802 -0.00182421 0.999897 
0.014343 0.000277929 0.999898 
0.0143659 0.00248152 0.999894 
0.0143469 0.00486346 0.999886 
0.0142846 0.00751979 0.99987 
0.0141759 0.0105714 0.999844 
0.0140171 0.0141678 0.999802 
0.0138036 0.0184882 0.999734 
0.0135271 0.0237457 0.999627 
0.0131771 0.030204 0.999457 
0.0127464 0.0381934 0.99919 
0.0122269 0.0481076 0.998768 
0.0116036 0.0604164 0.998106 
0.0108602 0.075723 0.99707 
0.00998433 0.0947839 0.995448 
0.00896563 0.118494 0.992915 
0.00779581 0.147899 0.988972 
0.00647366 0.184231 0.982862 
0.00501067 0.228915 0.973434 
0.00343656 0.283527 0.958959 
0.00180813 0.3496 0.936898 
0.000216847 0.428232 0.90367 
-0.00120934 0.519442 0.854505 
-0.00231663 0.621275 0.78359 
-0.00295237 0.729121 0.684378 
-0.00299347 0.834443 0.551084 
-0.00239867 0.924216 0.381856 
-0.00126964 0.983202 0.182496 
0.000140785 0.999463 -0.0326322 
0.0015001 0.969652 -0.244468 
0.00249653 0.900272 -0.435317 
0.00292247 0.804539 -0.593892 
0.00271518 0.697219 -0.716853 
0.00194097 0.590275 -0.807201 
0.000737201 0.49117 -0.871064 
-0.000738933 0.403612 -0.914931 
-0.00233961 0.328812 -0.944393 
-0.00394786 0.2663 -0.963883 
-0.00548457 0.21475 -0.976654 
-0.00690136 0.172654 -0.984959 
-0.00817234 0.138528 -0.990325 
-0.00928936 0.110968 -0.993781 
-0.0102594 0.088753 -0.996001 
-0.0110883 0.0709029 -0.997422 
-0.0117914 0.0565408 -0.998331 
-0.0123818 0.0449925 -0.998911 
-0.0128703 0.0356972 -0.99928 
-0.0132692 0.0281912 -0.999515 
-0.0135908 0.0221049 -0.999664 
-0.0138431 0.017142 -0.999758 
-0.0140317 0.0130515 -0.999817 
-0.0141616 0.00962851 -0.999854 
-0.0142342 0.00669952 -0.999877 
-0.0142532 0.00412297 -0.99989 
-0.014217 0.00178221 -0.999898 
-0.0141192 -0.000418498 -0.999901 
-0.0139773 -0.00255166 -0.9999 
-0.0138111 -0.0046741 -0.999894 
-0.0137031 -0.00678955 -0.999884 
-0.0137822 -0.0089253 -0.999866 
-0.0128796 -0.0109674 -0.999857 
-0.0134995 -0.0126342 -0.999829 
-0.0123331 -0.0145768 -0.999819 
-0.0118774 -0.0165564 -0.999793 
-0.0106293 -0.0179066 -0.999783 
-0.00884133 -0.0176599 -0.999804 
-0.0054136 -0.013484 -0.999893 
-0.00191874 -0.0106069 -0.999936 
0.00165304 -0.0106304 0.999936 
0.00517406 -0.0135759 0.999893 
0.00791237 -0.0175931 0.999814 
0.0102246 -0.0185847 0.999776 
0.0113929 -0.0175598 0.999781 
0.0123351 -0.0160114 0.999796 
0.0131794 -0.013899 0.999817 
0.0136888 -0.0114254 0.999842 
0.0139395 -0.00918329 0.999861 
0.0141682 -0.00706417 0.999875 
0.0143652 -0.0050149 0.999885 
0.0145203 -0.00296721 0.999891 
0.0146278 -0.00088564 0.999893 
0.0146889 0.00127528 0.999892 
0.0147026 0.00358185 0.999886 
0.0146646 0.00611724 0.999874 
0.0145725 0.00898452 0.999854 
0.0144241 0.0123152 0.999821 
0.014215 0.0162745 0.999767 
0.0139398 0.021059 0.999682 
0.0135936 0.0269018 0.999546 
0.0131681 0.0340957 0.999332 
0.0126496 0.043006 0.998995 
0.0120281 0.0540615 0.998466 
0.0112971 0.0677772 0.997637 
0.0104443 0.0848266 0.996342 
0.00945588 0.106038 0.994318 
0.00832644 0.132366 0.991167 
0.00706038 0.164926 0.986281 
0.00567197 0.205023 0.978741 
0.00418894 0.254126 0.967163 
0.00265669 0.313801 0.949486 
0.0011463 0.385442 0.922732 
-0.000241647 0.469759 0.882795 
-0.00138534 0.566024 0.824389 
-0.00216626 0.670949 0.741501 
-0.00249065 0.778498 0.627641 
-0.00229746 0.878254 0.478185 
-0.00160922 0.955706 0.294308 
-0.000574132 0.996294 0.0859585 
0.000567259 0.991543 -0.129744 
0.00155485 0.94272 -0.333574 
0.00217276 0.859931 -0.510402 
0.00229368 0.757646 -0.652662 
0.00190055 0.649688 -0.760199 
0.00106172 0.545998 -0.837787 
-0.00011768 0.452103 -0.891966 
-0.00151819 0.370376 -0.928882 
-0.00302117 0.301243 -0.953543 
-0.00453444 0.243771 -0.969823 
-0.00599139 0.196506 -0.980485 
-0.0073447 0.157987 -0.987414 
-0.00857036 0.126791 -0.991893 
-0.00966093 0.101587 -0.99478 
-0.0106136 0.0812571 -0.996637 
-0.0114386 0.0649405 -0.997824 
-0.0121438 0.0517684 -0.998586 
-0.0127386 0.0411691 -0.999072 
-0.0132352 0.0326254 -0.999381 
-0.0136426 0.0257055 -0.999577 
-0.0139679 0.0200763 -0.999701 
-0.0142212 0.0154618 -0.99978 
-0.0144069 0.0116356 -0.999829 
-0.0145305 0.00840019 -0.99986 
-0.0145936 0.00560007 -0.999878 
-0.0146007 0.00310667 -0.999889 
-0.0145586 0.000818535 -0.999894 
-0.0144717 -0.00134832 -0.999895 
-0.0143385 -0.00346948 -0.999892 
-0.0141399 -0.00560126 -0.999885 
-0.0138782 -0.00781286 -0.999874 
-0.0135249 -0.0102894 -0.999855 
-0.0128791 -0.012812 -0.999836 
-0.0127261 -0.0150329 -0.999806 
-0.0114181 -0.0168828 -0.999792 
-0.010045 -0.0180337 -0.999788 
-0.00780423 -0.0173944 -0.999818 
-0.00503842 -0.0133861 -0.999897 
-0.00158164 -0.0106222 -0.999936 
0.00142961 -0.0103937 0.999939 
0.0044416 -0.0135437 0.999898 
0.00716672 -0.0179503 0.999813 
0.00954574 -0.0183572 0.999786 
0.010599 -0.0170855 0.999798 
0.0117526 -0.0150716 0.999818 
0.012662 -0.0128838 0.999838 
0.0128421 -0.0106393 0.999862 
0.0130705 -0.00842786 0.99988 
0.0132966 -0.00633045 0.999892 
0.0135066 -0.00426899 0.9999 
0.0136663 -0.00218947 0.999905 
0.0137694 -5.53601e-05 0.999906 
0.0138224 0.00218955 0.999903 
0.0138231 0.00461898 0.999894 
0.0137639 0.00732191 0.999879 
0.0136456 0.0104077 0.999853 
0.0134689 0.0140211 0.999812 
0.0132275 0.0183442 0.999745 
0.0129177 0.02359 0.999639 
0.0125387 0.0300094 0.999472 
0.0120791 0.0379243 0.999208 
0.0115223 0.0477347 0.998794 
0.0108657 0.0598975 0.998146 
0.0101101 0.0749714 0.997135 
0.00924053 0.0937027 0.995558 
0.00824635 0.116974 0.993101 
0.0071331 0.145786 0.989291 
0.00591539 0.181323 0.983406 
0.00461628 0.224941 0.974362 
0.0032702 0.278137 0.960537 
0.00192571 0.342465 0.939529 
0.000654013 0.419135 0.907925 
-0.000453747 0.508415 0.861113 
-0.00130055 0.60874 0.79337 
-0.00180967 0.715365 0.698748 
-0.00192843 0.820972 0.570963 
-0.00163572 0.913292 0.407297 
-0.000993851 0.977156 0.212503 
-0.000153574 0.999996 -0.000421992 
0.000690348 0.977071 -0.212896 
0.0013493 0.913496 -0.40684 
0.00167824 0.821602 -0.570058 
0.00160326 0.715979 -0.698121 
0.00113055 0.609123 -0.793076 
0.000318236 0.509168 -0.860668 
-0.000755821 0.420132 -0.907463 
-0.00199898 0.343482 -0.939158 
-0.00332009 0.279111 -0.960254 
-0.00465108 0.225775 -0.974169 
-0.00593658 0.181984 -0.983284 
-0.007136 0.146355 -0.989207 
-0.00823247 0.11751 -0.993038 
-0.00921689 0.094179 -0.995513 
-0.0100768 0.0753419 -0.997108 
-0.0108399 0.0602669 -0.998124 
-0.0114909 0.0480043 -0.998782 
-0.0120419 0.0381485 -0.9992 
-0.0125069 0.0301887 -0.999467 
-0.0128858 0.0237277 -0.999636 
-0.0131876 0.0184333 -0.999744 
-0.0134182 0.0140977 -0.999811 
-0.0135877 0.0104632 -0.999854 
-0.0136945 0.00736402 -0.99988 
-0.0137443 0.00465424 -0.999895 
-0.0137445 0.00221807 -0.999904 
-0.013705 -3.16105e-05 -0.999907 
-0.0136187 -0.0021786 -0.999906 
-0.0134656 -0.00429267 -0.999901 
-0.0132309 -0.00642512 -0.999892 
-0.0129442 -0.00865551 -0.999879 
-0.012468 -0.0109152 -0.999863 
-0.0117299 -0.0134203 -0.999842 
-0.0118135 -0.0152825 -0.999814 
-0.0105529 -0.0170368 -0.9998 
-0.00912929 -0.0180145 -0.999795 
-0.00690154 -0.0176725 -0.99982 
-0.00434771 -0.0133749 -0.999901 
-0.00138545 -0.0103378 -0.99994 
0.00119686 -0.0103479 0.999941 
0.0039436 -0.013783 0.999897 
0.00610337 -0.018091 0.999818 
0.00854448 -0.01841 0.999794 
0.00902581 -0.0174701 0.999807 
0.0101684 -0.0156425 0.999826 
0.0111982 -0.0128435 0.999855 
0.011379 -0.0102084 0.999884 
0.0115691 -0.00787908 0.999903 
0.0118048 -0.00571897 0.999915 
0.0120235 -0.00360351 0.999922 
0.0121693 -0.00146475 0.999926 
0.0122559 0.000744549 0.999925 
0.0122977 0.00309132 0.99992 
0.0122833 0.00565818 0.999909 
0.012201 0.00853797 0.99989 
0.0120641 0.0118494 0.999858 
0.0118731 0.0157532 0.999806 
0.0116177 0.0204482 0.999724 
0.011299 0.0261633 0.999595 
0.0109187 0.0331659 0.999391 
0.0104592 0.0418119 0.999071 
0.00990496 0.0525311 0.998571 
0.00926686 0.0658048 0.99779 
0.00854806 0.0822415 0.996576 
0.00772664 0.102662 0.994687 
0.0067996 0.127989 0.991753 
0.00578406 0.159267 0.987219 
0.00469955 0.19775 0.980242 
0.0035718 0.244852 0.969555 
0.00243368 0.3021 0.953274 
0.00132883 0.371022 0.928624 
0.000320075 0.452608 0.891711 
-0.000517586 0.546579 0.837408 
-0.00111377 0.650323 0.759658 
-0.0014273 0.757393 0.652958 
-0.00142682 0.859118 0.511772 
-0.00111837 0.941798 0.336169 
-0.000580036 0.991004 0.133799 
5.79115e-05 0.996775 -0.0801985 
0.000647847 0.957954 -0.286909 
0.00105617 0.882644 -0.470038 
0.00118589 0.784385 -0.620273 
0.000997505 0.677317 -0.735691 
0.00051018 0.572524 -0.819889 
-0.000229123 0.476509 -0.87917 
-0.00116213 0.392074 -0.919934 
-0.00221579 0.32005 -0.947399 
-0.0033258 0.25992 -0.965625 
-0.00444424 0.210183 -0.977653 
-0.00552243 0.169409 -0.985531 
-0.00653256 0.136294 -0.990648 
-0.00746696 0.109474 -0.993962 
-0.00830832 0.0877469 -0.996109 
-0.00903116 0.0701873 -0.997494 
-0.00972401 0.0562297 -0.998371 
-0.0102824 0.0446721 -0.998949 
-0.0107662 0.0354426 -0.999314 
-0.0111715 0.0280222 -0.999546 
-0.0115188 0.0218837 -0.999695 
-0.0117571 0.0169238 -0.999788 
-0.0119691 0.0128228 -0.999847 
-0.0121095 0.00934845 -0.999884 
-0.0121919 0.00636443 -0.999906 
-0.012226 0.00373439 -0.999919 
-0.0122257 0.00135636 -0.999925 
-0.012214 -0.000856196 -0.999926 
-0.0121505 -0.00297411 -0.999922 
-0.011992 -0.00506582 -0.999916 
-0.0117662 -0.00715306 -0.999906 
-0.0114124 -0.00924233 -0.999893 
-0.0108325 -0.0114429 -0.999877 
-0.0103548 -0.0136744 -0.999854 
-0.0102586 -0.0158241 -0.999822 
-0.0089304 -0.0176313 -0.999805 
-0.00750913 -0.0184889 -0.999801 
-0.00553297 -0.0173763 -0.999835 
-0.00363111 -0.0132925 -0.999905 
-0.00120328 -0.0103145 -0.999941 
0.000961311 -0.0103675 0.999941 
0.00328287 -0.0139135 0.999898 
0.00488305 -0.0182061 0.999823 
0.0070185 -0.0187333 0.9998 
0.00734182 -0.0180169 0.999812 
0.00798707 -0.0161815 0.999837 
0.00940138 -0.0141587 0.999857 
0.0095252 -0.0117459 0.999886 
0.00958107 -0.00939699 0.999911 
0.00976151 -0.00718397 0.999927 
0.00999799 -0.00505191 0.999938 
0.0102 -0.00291729 0.999944 
0.0103076 -0.000724367 0.999947 
0.0103714 0.00155725 0.999946 
0.0104005 0.00400877 0.999939 
0.0103617 0.00671081 0.999925 
0.0102588 0.00976802 0.9999 
0.0101147 0.0133051 0.999861 
0.00992356 0.0174971 0.999798 
0.00967415 0.0225706 0.999699 
0.0093694 0.028758 0.999543 
0.0090125 0.0363492 0.999299 
0.0085798 0.045732 0.998918 
0.00806504 0.0573639 0.998322 
0.00748925 0.071745 0.997396 
0.00684845 0.0895421 0.99596 
0.00611888 0.111643 0.99373 
0.00530991 0.139005 0.990278 
0.00444501 0.172719 0.984962 
0.00354356 0.214111 0.976804 
0.00262917 0.264644 0.964343 
0.00172898 0.325855 0.945419 
0.000878182 0.399178 0.916874 
0.000127178 0.485264 0.874369 
-0.000468765 0.583083 0.812414 
-0.000866197 0.688736 0.725013 
-0.00104898 0.794222 0.607625 
-0.0009974 0.890165 0.455634 
-0.00073442 0.962551 0.271087 
-0.000330391 0.997973 0.0635722 
0.000114641 0.988677 -0.150031 
0.000494582 0.93651 -0.350634 
0.000717436 0.851911 -0.523684 
0.000720975 0.749151 -0.662398 
0.000489312 0.6418 -0.766873 
4.50781e-05 0.539568 -0.841943 
-0.000578756 0.447448 -0.894311 
-0.00133923 0.36729 -0.930106 
-0.00218296 0.299449 -0.954111 
-0.00307129 0.243086 -0.970001 
-0.00396698 0.196478 -0.980501 
-0.0048285 0.158312 -0.987378 
-0.00564501 0.127391 -0.991837 
-0.00641114 0.10232 -0.994732 
-0.00709674 0.0819348 -0.996613 
-0.00766658 0.0654197 -0.997829 
-0.00832429 0.0525336 -0.998585 
-0.00876406 0.0413239 -0.999108 
-0.00913037 0.0328922 -0.999418 
-0.00954298 0.0256944 -0.999625 
-0.00976391 0.0200176 -0.999753 
-0.00996162 0.0153483 -0.999833 
-0.0101565 0.0114851 -0.999883 
-0.0102516 0.00814358 -0.999915 
-0.0102962 0.00526909 -0.999934 
-0.0102998 0.00273634 -0.999944 
-0.0103126 0.000405151 -0.999947 
-0.0103174 -0.00175796 -0.999946 
-0.0102722 -0.00384658 -0.999941 
-0.0100855 -0.00591797 -0.999932 
-0.00979555 -0.00798541 -0.999921 
-0.00934265 -0.0102047 -0.999905 
-0.00864579 -0.0127428 -0.999882 
-0.00892049 -0.0152256 -0.999846 
-0.0081661 -0.0170292 -0.999822 
-0.00683762 -0.0182681 -0.99981 
-0.00553371 -0.0187707 -0.999809 
-0.00315476 -0.0138738 -0.999898 
-0.000922767 -0.0103493 -0.999941 
0.000754132 -0.0104095 0.999941 
0.00260998 -0.0140009 0.999898 
0.0038212 -0.0184111 0.999824 
0.00556391 -0.0189328 0.999806 
0.00602141 -0.0178695 0.999823 
0.00627161 -0.0158861 0.999855 
0.00765395 -0.0137746 0.999877 
0.00766433 -0.0112249 0.999908 
0.00778004 -0.00882449 0.999931 
0.00797789 -0.00659875 0.999947 
0.00822056 -0.00443864 0.999957 
0.00839546 -0.00224564 0.999963 
0.0084531 1.00893e-05 0.999965 
0.00851219 0.00236607 0.999962 
0.00852455 0.00490761 0.999952 
0.00847073 0.00774295 0.999935 
0.00836193 0.010975 0.999906 
0.00822542 0.0147164 0.999859 
0.0080535 0.0192047 0.999784 
0.00782201 0.024655 0.999666 
0.0075476 0.0313096 0.999482 
0.00722664 0.0394801 0.999195 
0.00683666 0.0495905 0.998747 
0.00638408 0.062098 0.99805 
0.00589005 0.0775325 0.996973 
0.00533981 0.0966347 0.995306 
0.00471662 0.120343 0.992722 
0.00404142 0.149589 0.988741 
0.00333764 0.185485 0.982642 
0.00262126 0.229375 0.973335 
0.00191193 0.282641 0.959225 
0.00122989 0.346671 0.937987 
0.000600883 0.422673 0.906283 
6.08982e-05 0.510789 0.859707 
-0.000356562 0.609577 0.792728 
-0.000629699 0.714889 0.699238 
-0.000747591 0.818752 0.574146 
-0.000693312 0.910925 0.412566 
-0.000491429 0.975852 0.218415 
-0.00019999 0.999987 0.0042696 
0.00010186 0.977632 -0.210307 
0.000335601 0.913911 -0.40591 
0.00043862 0.821644 -0.569999 
0.000374369 0.715693 -0.698415 
0.00014222 0.609001 -0.79317 
-0.000238431 0.509701 -0.860353 
-0.000746493 0.421315 -0.906915 
-0.00134919 0.345063 -0.938579 
-0.00201047 0.281037 -0.959695 
-0.00270995 0.228035 -0.97365 
-0.00341459 0.184052 -0.982911 
-0.00409003 0.148123 -0.988961 
-0.00474233 0.11918 -0.992862 
-0.00536333 0.095546 -0.995411 
-0.00591103 0.0761031 -0.997083 
-0.00633342 0.0602872 -0.998161 
-0.00707102 0.0484357 -0.998803 
-0.00715953 0.0381559 -0.999246 
-0.00769129 0.0296638 -0.999531 
-0.00786505 0.0232211 -0.9997 
-0.00804956 0.0179319 -0.999808 
-0.00819223 0.01359 -0.999875 
-0.00839791 0.00998175 -0.999916 
-0.00841814 0.00670003 -0.999943 
-0.00837752 0.00399294 -0.999958 
-0.00840226 0.00151348 -0.999964 
-0.00837882 -0.000743567 -0.999965 
-0.00838388 -0.00280539 -0.999962 
-0.00832861 -0.00473657 -0.999955 
-0.00808992 -0.00666058 -0.999946 
-0.00782681 -0.00870474 -0.999932 
-0.00741735 -0.0109938 -0.999913 
-0.00680112 -0.013545 -0.999886 
-0.00729593 -0.0155877 -0.999853 
-0.00628953 -0.0175854 -0.999826 
-0.00498297 -0.0186585 -0.999813 
-0.00392756 -0.0175587 -0.999838 