# vtk DataFile Version 3.0 
Exported using Morpho https://github.com/Morpho-lang/morpho 
ASCII 
DATASET UNSTRUCTURED_GRID 

POINTS 2054 float 
-8.48528 -2.82843 0 
-8.20636 -2.82843 0 
-7.94054 -2.82843 0 
-7.6904 -2.82843 0 
-7.45357 -2.82843 0 
-7.22694 -2.82843 0 
-7.00705 -2.82843 0 
-6.79111 -2.82843 0 
-6.57731 -2.82843 0 
-6.36453 -2.82843 0 
-6.15219 -2.82843 0 
-5.94 -2.82843 0 
-5.72786 -2.82843 0 
-5.51573 -2.82843 0 
-5.3036 -2.82843 0 
-5.09147 -2.82843 0 
-4.87933 -2.82843 0 
-4.6672 -2.82843 0 
-4.45507 -2.82843 0 
-4.24294 -2.82843 0 
-4.03081 -2.82843 0 
-3.81867 -2.82843 0 
-3.60654 -2.82843 0 
-3.39441 -2.82843 0 
-3.18228 -2.82843 0 
-2.97015 -2.82843 0 
-2.75801 -2.82843 0 
-2.54588 -2.82843 0 
-2.33375 -2.82843 0 
-2.12162 -2.82843 0 
-1.90949 -2.82843 0 
-1.69735 -2.82843 0 
-1.48522 -2.82843 0 
-1.27309 -2.82843 0 
-1.06096 -2.82843 0 
-0.848825 -2.82843 0 
-0.636693 -2.82843 0 
-0.424561 -2.82843 0 
-0.212429 -2.82843 0 
-0.000296761 -2.82843 0 
0.211835 -2.82843 0 
0.423967 -2.82843 0 
0.636099 -2.82843 0 
0.848231 -2.82843 0 
1.06036 -2.82843 0 
1.2725 -2.82843 0 
1.48463 -2.82843 0 
1.69676 -2.82843 0 
1.90889 -2.82843 0 
2.12102 -2.82843 0 
2.33316 -2.82843 0 
2.54529 -2.82843 0 
2.75742 -2.82843 0 
2.96955 -2.82843 0 
3.18168 -2.82843 0 
3.39382 -2.82843 0 
3.60595 -2.82843 0 
3.81808 -2.82843 0 
4.03021 -2.82843 0 
4.24234 -2.82843 0 
4.45448 -2.82843 0 
4.66661 -2.82843 0 
4.87874 -2.82843 0 
5.09087 -2.82843 0 
5.303 -2.82843 0 
5.51514 -2.82843 0 
5.72727 -2.82843 0 
5.93941 -2.82843 0 
6.15159 -2.82843 0 
6.36393 -2.82843 0 
6.57672 -2.82843 0 
6.79055 -2.82843 0 
7.00652 -2.82843 0 
7.22647 -2.82843 0 
7.45313 -2.82843 0 
7.69005 -2.82843 0 
7.9403 -2.82843 0 
8.20621 -2.82843 0 
8.48528 -2.82843 0 
-8.48528 -2.5495 0 
-8.30526 -2.64845 0 
-8.07062 -2.59995 0 
-7.83904 -2.59637 0 
-7.59595 -2.59733 0 
-7.36578 -2.59177 0 
-7.13796 -2.5933 0 
-6.90908 -2.59428 0 
-6.68421 -2.5916 0 
-6.46568 -2.58832 0 
-6.24926 -2.58859 0 
-6.03358 -2.58941 0 
-5.81848 -2.59013 0 
-5.60402 -2.59075 0 
-5.39005 -2.59135 0 
-5.17642 -2.59186 0 
-4.96311 -2.59223 0 
-4.75009 -2.59242 0 
-4.53736 -2.59244 0 
-4.32497 -2.59236 0 
-4.1128 -2.59242 0 
-3.90059 -2.59259 0 
-3.68835 -2.5926 0 
-3.47627 -2.59248 0 
-3.26428 -2.59251 0 
-3.05216 -2.59271 0 
-2.83986 -2.59283 0 
-2.62755 -2.59274 0 
-2.41539 -2.59253 0 
-2.20336 -2.59238 0 
-1.99135 -2.59238 0 
-1.77924 -2.59246 0 
-1.56704 -2.59244 0 
-1.35495 -2.59215 0 
-1.14319 -2.59183 0 
-0.931581 -2.59195 0 
-0.719663 -2.59256 0 
-0.507197 -2.59324 0 
-0.294425 -2.59354 0 
-0.0817689 -2.59344 0 
0.130587 -2.59325 0 
0.342804 -2.59322 0 
0.555051 -2.59322 0 
0.767233 -2.59303 0 
0.97919 -2.59278 0 
1.19107 -2.59278 0 
1.40311 -2.59289 0 
1.61524 -2.59286 0 
1.82732 -2.59279 0 
2.03943 -2.59281 0 
2.25163 -2.5928 0 
2.46381 -2.59266 0 
2.67591 -2.59254 0 
2.88801 -2.59237 0 
3.10001 -2.59226 0 
3.31203 -2.59216 0 
3.52402 -2.59207 0 
3.73601 -2.59208 0 
3.94815 -2.59221 0 
4.16052 -2.5923 0 
4.37309 -2.59232 0 
4.58593 -2.59227 0 
4.79921 -2.5922 0 
5.01319 -2.59212 0 
5.22833 -2.5921 0 
5.44534 -2.59239 0 
5.6657 -2.59346 0 
5.89185 -2.59569 0 
6.12685 -2.59429 0 
6.36853 -2.59189 0 
6.6108 -2.57787 0 
6.84491 -2.61411 0 
7.08804 -2.58476 0 
7.34858 -2.60369 0 
7.58803 -2.59327 0 
7.83059 -2.59326 0 
8.06387 -2.59199 0 
8.30038 -2.64348 0 
8.48528 -2.54936 0 
-8.48528 -2.28369 0 
-8.25701 -2.4138 0 
-8.01078 -2.35334 0 
-7.73666 -2.37963 0 
-7.49744 -2.35565 0 
-7.26898 -2.35831 0 
-7.03324 -2.36676 0 
-6.7997 -2.36275 0 
-6.5773 -2.35166 0 
-6.35808 -2.3495 0 
-6.14038 -2.35058 0 
-5.92336 -2.35185 0 
-5.70723 -2.35272 0 
-5.49199 -2.35362 0 
-5.27734 -2.35447 0 
-5.0632 -2.35505 0 
-4.84958 -2.35534 0 
-4.63641 -2.35533 0 
-4.42363 -2.35504 0 
-4.21126 -2.35485 0 
-3.99909 -2.35513 0 
-3.78684 -2.3554 0 
-3.57461 -2.35516 0 
-3.36263 -2.35498 0 
-3.15066 -2.35537 0 
-2.93843 -2.35586 0 
-2.72604 -2.35589 0 
-2.51374 -2.35551 0 
-2.30162 -2.35509 0 
-2.08964 -2.35496 0 
-1.87761 -2.35518 0 
-1.66544 -2.3554 0 
-1.45322 -2.35518 0 
-1.2412 -2.35438 0 
-1.02967 -2.35407 0 
-0.818162 -2.35505 0 
-0.606054 -2.35676 0 
-0.393243 -2.3579 0 
-0.180256 -2.35789 0 
0.0323765 -2.35727 0 
0.244686 -2.35692 0 
0.456926 -2.35692 0 
0.669206 -2.35667 0 
0.881318 -2.35598 0 
1.09315 -2.35559 0 
1.305 -2.35583 0 
1.51709 -2.35595 0 
1.72919 -2.35571 0 
1.9412 -2.35566 0 
2.15334 -2.3558 0 
2.36559 -2.3556 0 
2.57772 -2.35522 0 
2.78976 -2.35507 0 
3.0019 -2.35461 0 
3.21373 -2.35451 0 
3.42571 -2.35439 0 
3.63769 -2.35431 0 
3.84965 -2.35453 0 
4.06183 -2.35491 0 
4.27435 -2.35507 0 
4.48707 -2.35507 0 
4.70017 -2.35506 0 
4.91376 -2.35498 0 
5.12819 -2.35502 0 
5.34378 -2.35528 0 
5.56106 -2.35662 0 
5.78097 -2.35971 0 
6.00401 -2.36251 0 
6.2308 -2.3624 0 
6.45748 -2.35551 0 
6.68075 -2.33423 0 
6.88797 -2.39744 0 
7.05313 -2.27289 0 
7.24377 -2.40237 0 
7.48542 -2.36016 0 
7.73055 -2.36599 0 
7.99177 -2.33552 0 
8.24864 -2.40698 0 
8.48528 -2.28345 0 
-8.48528 -2.03355 0 
-8.25312 -2.18214 0 
-8.03669 -2.07913 0 
-7.83956 -2.18231 0 
-7.6106 -2.12852 0 
-7.38852 -2.10959 0 
-7.16268 -2.14097 0 
-6.9229 -2.1435 0 
-6.70119 -2.12055 0 
-6.48111 -2.11285 0 
-6.26282 -2.11284 0 
-6.045 -2.1151 0 
-5.82775 -2.11658 0 
-5.61153 -2.11776 0 
-5.3962 -2.1192 0 
-5.18144 -2.1203 0 
-4.96732 -2.12084 0 
-4.75387 -2.12105 0 
-4.54086 -2.12091 0 
-4.32822 -2.12045 0 
-4.11596 -2.12045 0 
-3.90382 -2.12107 0 
-3.69156 -2.12116 0 
-3.47938 -2.12058 0 
-3.26746 -2.12068 0 
-3.05542 -2.12154 0 
-2.84307 -2.12198 0 
-2.63064 -2.12162 0 
-2.41836 -2.12087 0 
-2.20626 -2.12031 0 
-1.99426 -2.12034 0 
-1.78217 -2.1207 0 
-1.56989 -2.12074 0 
-1.35755 -2.11993 0 
-1.14542 -2.11838 0 
-0.934012 -2.11859 0 
-0.722404 -2.12089 0 
-0.509943 -2.12344 0 
-0.296911 -2.12431 0 
-0.0840921 -2.12359 0 
0.128295 -2.12281 0 
0.340414 -2.12274 0 
0.552564 -2.12288 0 
0.76478 -2.12226 0 
0.976792 -2.1213 0 
1.18855 -2.12128 0 
1.40042 -2.12188 0 
1.61256 -2.12177 0 
1.82458 -2.12141 0 
2.03655 -2.12164 0 
2.24875 -2.12174 0 
2.46099 -2.12114 0 
2.67302 -2.12065 0 
2.88504 -2.12054 0 
3.09728 -2.1194 0 
3.30873 -2.11968 0 
3.52086 -2.1195 0 
3.7329 -2.11938 0 
3.94484 -2.11986 0 
4.15715 -2.12044 0 
4.36983 -2.12035 0 
4.58282 -2.1204 0 
4.79606 -2.12017 0 
5.01004 -2.12012 0 
5.22483 -2.12002 0 
5.44073 -2.12051 0 
5.6582 -2.123 0 
5.8782 -2.12696 0 
6.10217 -2.12971 0 
6.33095 -2.12707 0 
6.567 -2.11601 0 
6.82301 -2.12303 0 
7.06572 -2.04567 0 
7.29733 -2.17484 0 
7.54632 -2.11408 0 
7.79371 -2.13741 0 
8.02274 -2.07453 0 
8.25027 -2.1738 0 
8.48528 -2.0332 0 
-8.48528 -1.79671 0 
-8.25436 -1.93882 0 
-8.01299 -1.83977 0 
-7.78596 -1.953 0 
-7.5297 -1.87194 0 
-7.2756 -1.88722 0 
-7.05707 -1.93544 0 
-6.84369 -1.89677 0 
-6.62219 -1.88079 0 
-6.40169 -1.87606 0 
-6.18206 -1.87854 0 
-5.96274 -1.881 0 
-5.74458 -1.88208 0 
-5.52796 -1.88344 0 
-5.31232 -1.88506 0 
-5.09736 -1.88569 0 
-4.88338 -1.88564 0 
-4.67019 -1.88555 0 
-4.45737 -1.88507 0 
-4.24485 -1.88447 0 
-4.03271 -1.88482 0 
-3.82061 -1.88562 0 
-3.60832 -1.88529 0 
-3.39617 -1.88464 0 
-3.18427 -1.88547 0 
-2.97209 -1.88672 0 
-2.7596 -1.88684 0 
-2.54714 -1.88601 0 
-2.33483 -1.88505 0 
-2.12268 -1.8846 0 
-1.91058 -1.885 0 
-1.69824 -1.88561 0 
-1.48561 -1.88547 0 
-1.27286 -1.88413 0 
-1.06032 -1.88216 0 
-0.848858 -1.8839 0 
-0.636875 -1.88781 0 
-0.424169 -1.89034 0 
-0.211518 -1.89004 0 
0.000731944 -1.88866 0 
0.21257 -1.88788 0 
0.424308 -1.88807 0 
0.636257 -1.88793 0 
0.848362 -1.88664 0 
1.06025 -1.88556 0 
1.27191 -1.88605 0 
1.48381 -1.88664 0 
1.69595 -1.886 0 
1.90782 -1.88577 0 
2.11974 -1.88637 0 
2.33202 -1.88609 0 
2.54419 -1.88502 0 
2.75607 -1.88472 0 
2.96812 -1.88462 0 
3.18055 -1.88217 0 
3.39117 -1.88415 0 
3.60398 -1.8838 0 
3.81618 -1.88366 0 
4.02827 -1.88469 0 
4.24071 -1.88523 0 
4.4544 -1.88509 0 
4.66716 -1.88476 0 
4.88099 -1.88493 0 
5.09545 -1.88466 0 
5.31057 -1.88453 0 
5.52653 -1.88564 0 
5.7436 -1.88981 0 
5.96352 -1.89563 0 
6.18733 -1.89813 0 
6.41543 -1.89522 0 
6.65059 -1.89622 0 
6.87542 -1.86913 0 
7.11122 -1.81621 0 
7.31223 -1.94975 0 
7.53264 -1.87683 0 
7.77077 -1.89068 0 
8.01717 -1.8297 0 
8.25014 -1.93148 0 
8.48528 -1.79628 0 
-8.48528 -1.57009 0 
-8.24868 -1.70836 0 
-8.015 -1.61096 0 
-7.76734 -1.73071 0 
-7.54593 -1.61782 0 
-7.32306 -1.66278 0 
-7.05152 -1.7082 0 
-6.79786 -1.66675 0 
-6.56099 -1.64764 0 
-6.33267 -1.64541 0 
-6.10856 -1.64921 0 
-5.88638 -1.65073 0 
-5.66697 -1.65153 0 
-5.44986 -1.65353 0 
-5.23379 -1.65525 0 
-5.01882 -1.6551 0 
-4.80519 -1.6548 0 
-4.59235 -1.65478 0 
-4.37976 -1.65422 0 
-4.16737 -1.65386 0 
-3.95537 -1.65471 0 
-3.74326 -1.6554 0 
-3.5309 -1.65455 0 
-3.31876 -1.65426 0 
-3.10682 -1.65593 0 
-2.89443 -1.65705 0 
-2.68177 -1.65644 0 
-2.46924 -1.65516 0 
-2.25682 -1.65408 0 
-2.04447 -1.65386 0 
-1.83202 -1.65455 0 
-1.61911 -1.65506 0 
-1.40572 -1.65429 0 
-1.19212 -1.65207 0 
-0.97885 -1.64982 0 
-0.767325 -1.65372 0 
-0.555434 -1.6581 0 
-0.343588 -1.65935 0 
-0.132061 -1.65818 0 
0.0792288 -1.65687 0 
0.290417 -1.65682 0 
0.501823 -1.6575 0 
0.713729 -1.65709 0 
0.925861 -1.65545 0 
1.13768 -1.65488 0 
1.34929 -1.65604 0 
1.56128 -1.6563 0 
1.77337 -1.65516 0 
1.985 -1.65561 0 
2.19698 -1.65642 0 
2.40939 -1.65525 0 
2.62143 -1.65394 0 
2.83323 -1.65414 0 
3.04553 -1.65355 0 
3.25842 -1.64868 0 
3.46746 -1.65522 0 
3.68272 -1.65284 0 
3.89574 -1.65288 0 
4.10731 -1.65378 0 
4.32287 -1.65565 0 
4.53627 -1.65249 0 
4.74932 -1.65397 0 
4.96428 -1.65355 0 
5.17935 -1.65257 0 
5.3944 -1.65202 0 
5.60927 -1.65354 0 
5.82513 -1.66019 0 
6.04295 -1.66711 0 
6.26383 -1.66843 0 
6.48537 -1.66776 0 
6.70098 -1.65646 0 
6.91299 -1.6206 0 
7.11709 -1.6046 0 
7.3526 -1.69716 0 
7.60698 -1.65764 0 
7.8325 -1.64214 0 
8.05985 -1.58842 0 
8.2608 -1.69223 0 
8.48528 -1.56961 0 
-8.48528 -1.35019 0 
-8.24958 -1.48044 0 
-8.0219 -1.3751 0 
-7.79713 -1.50391 0 
-7.58956 -1.39834 0 
-7.36199 -1.38754 0 
-7.16079 -1.49923 0 
-6.93764 -1.46284 0 
[...]
POINT_DATA 2054 
VECTORS vectors float
0.00839958 0.00619415 0.99984 
0.00264577 -0.0137533 0.999922 
0.00723821 -0.00756058 0.999966 
0.0109683 -0.00201523 0.999959 
0.014641 0.0034962 0.999898 
0.0158681 0.0121178 0.999797 
0.017514 0.0215791 0.999612 
0.0173897 0.0302359 0.999391 
0.0172225 0.0388057 0.999099 
0.0169301 0.0500955 0.998604 
0.0159189 0.0676038 0.997587 
0.014996 0.0925401 0.995596 
0.0142676 0.123964 0.992189 
0.0136464 0.159625 0.987092 
0.0125569 0.198235 0.980078 
0.011194 0.237887 0.971228 
0.00994585 0.275989 0.96111 
0.00827869 0.30794 0.951374 
0.00634446 0.328269 0.944568 
0.00442528 0.332756 0.943008 
0.00300992 0.318746 0.94784 
0.00200361 0.286586 0.958057 
0.0013945 0.239633 0.970865 
0.00127396 0.18452 0.982829 
0.00132137 0.129189 0.991619 
0.00144701 0.0802711 0.996771 
0.00164366 0.041589 0.999133 
0.00182758 0.0134792 0.999907 
0.00186232 -0.00565539 0.999982 
0.0019085 -0.0182421 0.999832 
0.00212405 -0.0266125 0.999644 
0.00234452 -0.0323776 0.999474 
0.00255518 -0.0360805 0.999348 
0.00279645 -0.0377854 0.999284 
0.00304531 -0.0382825 0.999264 
0.00334753 -0.0390748 0.999233 
0.00376969 -0.0415715 0.999131 
0.00427948 -0.0469523 0.998891 
0.00480452 -0.055936 0.998424 
0.00555962 -0.0684075 0.997643 
0.00648617 -0.0834343 0.996493 
0.00725655 -0.0987202 0.995089 
0.00798342 -0.110922 0.993796 
0.00833253 -0.11668 0.993134 
0.00862389 -0.113233 0.993532 
0.0091049 -0.0993143 0.995019 
0.00891863 -0.0744996 0.997185 
0.00866432 -0.038306 0.99923 
0.00871161 0.00925183 0.999924 
0.00911184 0.0675596 0.997683 
0.00918813 0.136724 0.990574 
0.00930514 0.217051 0.976124 
0.00984169 0.309089 0.950991 
0.00960842 0.413769 0.910339 
0.00857741 0.53079 0.847465 
0.00672906 0.657433 0.753487 
0.00458757 0.785405 0.618974 
0.00274503 0.899418 0.437093 
0.00114108 0.97773 0.209879 
-0.000330093 0.998916 -0.0466084 
-0.00161032 0.952716 -0.303872 
-0.00302526 0.84788 -0.530189 
-0.00520263 0.708929 -0.705269 
-0.00750295 0.563652 -0.825984 
-0.00977269 0.431359 -0.902134 
-0.0114737 0.320278 -0.947264 
-0.0127281 0.231403 -0.972781 
-0.0140403 0.162842 -0.986556 
-0.0152321 0.112936 -0.993489 
-0.0167457 0.0792386 -0.996716 
-0.0167228 0.0569467 -0.998234 
-0.0170859 0.0406141 -0.999028 
-0.0173415 0.0274247 -0.999478 
-0.01609 0.0147201 -0.999762 
-0.0157841 0.00453699 -0.999876 
-0.0134022 -0.00112121 -0.999938 
-0.0113164 -0.00776688 -0.999938 
-0.0063097 -0.0136704 -0.999915 
-0.0100946 0.0066796 -0.999818 
0.00134154 -0.0229309 0.999743 
-0.00789439 -0.00651648 0.999927 
0.0151906 -0.00953314 0.99984 
0.00733297 -0.00415776 0.999965 
0.00730023 0.00414872 0.999967 
0.00561588 0.00985819 0.999936 
0.00517969 0.0190556 0.999806 
0.00389982 0.0273987 0.999618 
0.00420128 0.0364706 0.999328 
0.00277954 0.0492416 0.998785 
-0.00163314 0.0660198 0.99782 
-0.00817449 0.0885739 0.996038 
-0.0154066 0.117282 0.992981 
-0.0240646 0.152782 0.987969 
-0.0374723 0.193391 0.980408 
-0.057135 0.237002 0.96983 
-0.0842732 0.280638 0.956109 
-0.120001 0.319784 0.939864 
-0.165228 0.348982 0.922453 
-0.218717 0.362435 0.905987 
-0.276169 0.355478 0.892958 
-0.331619 0.326751 0.885026 
-0.378765 0.279071 0.882418 
-0.412152 0.219137 0.884371 
-0.428854 0.156088 0.889788 
-0.430421 0.0985035 0.897237 
-0.421594 0.0517822 0.905305 
-0.407618 0.0174624 0.912986 
-0.392542 -0.00597621 0.919715 
-0.378312 -0.0215764 0.925427 
-0.36489 -0.0322196 0.930494 
-0.351969 -0.0396085 0.935175 
-0.339921 -0.0445096 0.939402 
-0.328938 -0.0472285 0.943172 
-0.318819 -0.0482664 0.946588 
-0.309643 -0.0484266 0.949621 
-0.301798 -0.0493308 0.952097 
-0.295294 -0.0529402 0.953941 
-0.289514 -0.0602125 0.95528 
-0.283397 -0.0716158 0.956327 
-0.274443 -0.0860025 0.957751 
-0.260976 -0.101401 0.960007 
-0.243607 -0.114797 0.963059 
-0.22352 -0.12272 0.966946 
-0.201307 -0.123285 0.971742 
-0.177448 -0.114017 0.977507 
-0.153851 -0.0936632 0.983649 
-0.132801 -0.0628221 0.989153 
-0.113529 -0.0213031 0.993309 
-0.0951502 0.0311363 0.994979 
-0.0789266 0.0942853 0.992416 
-0.0650082 0.168659 0.983535 
-0.052538 0.254595 0.965628 
-0.0412121 0.353734 0.934447 
-0.0317741 0.466681 0.883865 
-0.0246326 0.591867 0.805669 
-0.0197409 0.723098 0.690472 
-0.0170346 0.848203 0.529406 
-0.0165122 0.947473 0.319422 
-0.0174135 0.997378 0.0703058 
-0.0186832 0.980997 -0.193144 
-0.0199235 0.898748 -0.438026 
-0.0200462 0.770162 -0.637543 
-0.0185243 0.623426 -0.781671 
-0.0161116 0.48213 -0.875958 
-0.0136403 0.359475 -0.93306 
-0.010177 0.259554 -0.965678 
-0.00710177 0.182002 -0.983274 
-0.0074917 0.124248 -0.992225 
-0.0101838 0.0836213 -0.996448 
-0.00907789 0.0555377 -0.998418 
-0.00568382 0.0381243 -0.999256 
-0.00754661 0.0245211 -0.999672 
-0.00697043 0.0124891 -0.999898 
-0.00639663 0.00475948 -0.999969 
-0.00777745 -0.00496419 -0.999958 
-0.0154552 -0.00789754 -0.99985 
0.00895595 -0.00777027 -0.999907 
-0.00156989 -0.0229232 -0.999737 
-9.82193e-05 -0.0114518 0.999845 
0.00158603 -0.00592202 0.99998 
0.0202015 -0.00866431 0.99975 
0.00906013 0.00237412 0.999958 
0.0161025 0.0111174 0.999808 
0.0157933 0.0150199 0.999761 
0.0122611 0.0284054 0.999522 
0.00836419 0.0373192 0.99927 
0.00320233 0.0496286 0.998764 
-0.00353708 0.0650285 0.997878 
-0.0108549 0.0862757 0.996214 
-0.0209884 0.11488 0.993159 
-0.0361648 0.15208 0.987708 
-0.0584884 0.197036 0.978652 
-0.0904761 0.248462 0.964409 
-0.134341 0.304736 0.942917 
-0.19362 0.361085 0.912214 
-0.270727 0.410548 0.870725 
-0.364093 0.444183 0.818624 
-0.46753 0.452341 0.75948 
-0.570767 0.429013 0.700128 
-0.661918 0.375358 0.648827 
-0.730916 0.299711 0.613138 
-0.772065 0.215386 0.597935 
-0.786498 0.135865 0.602463 
-0.781136 0.0701189 0.62041 
-0.764373 0.0215929 0.644413 
-0.743045 -0.0112166 0.669148 
-0.721204 -0.0325027 0.69196 
-0.700316 -0.0465389 0.712315 
-0.680289 -0.0566091 0.730756 
-0.660652 -0.0641185 0.74795 
-0.641475 -0.0688001 0.764055 
-0.623583 -0.0706346 0.778562 
-0.607178 -0.0700797 0.791472 
-0.592315 -0.0686174 0.802781 
-0.579771 -0.06889 0.811864 
-0.569639 -0.0731793 0.818633 
-0.560251 -0.0828998 0.824166 
-0.548334 -0.0981446 0.830482 
-0.52963 -0.116495 0.840193 
-0.50225 -0.134924 0.854133 
-0.467254 -0.14877 0.871519 
-0.426383 -0.154654 0.891227 
-0.381977 -0.149918 0.911935 
-0.337267 -0.1341 0.931813 
-0.29444 -0.107522 0.949606 
-0.254588 -0.0704824 0.964481 
-0.218243 -0.0235428 0.975614 
-0.185022 0.0332983 0.982174 
-0.154985 0.101626 0.982681 
-0.128721 0.181577 0.974923 
-0.105991 0.274117 0.955846 
-0.0871246 0.381134 0.920414 
-0.072473 0.502389 0.861608 
-0.0619671 0.634762 0.770228 
-0.0555716 0.769832 0.635832 
-0.0533617 0.891428 0.45002 
-0.0540905 0.975214 0.214574 
-0.0555653 0.997103 -0.0520434 
-0.0556534 0.946773 -0.317073 
-0.0527767 0.835766 -0.546554 
-0.0464217 0.6923 -0.720123 
-0.0384188 0.545007 -0.837557 
-0.0317409 0.412502 -0.910409 
-0.0266589 0.302993 -0.952623 
-0.0224158 0.216819 -0.975957 
-0.0189166 0.152293 -0.988156 
-0.0157164 0.106478 -0.994193 
-0.0158859 0.0749388 -0.997063 
-0.0164238 0.0536221 -0.998427 
-0.0154499 0.0392021 -0.999114 
-0.0161348 0.0313108 -0.99938 
-0.0163847 0.0180045 -0.999705 
-0.0175833 0.0111624 -0.999783 
-0.0115715 0.00188091 -0.999933 
-0.0209377 -0.00898837 -0.999732 
-0.00178033 -0.00603731 -0.99998 
0.000701054 -0.0113123 -0.999847 
0.00404901 -0.0189974 0.999754 
0.0031497 -0.00638234 0.999977 
0.00748517 -0.00589602 0.999955 
0.00682954 0.00055037 0.999977 
0.0058489 0.0118164 0.999914 
0.00438014 0.0166176 0.999853 
0.00220487 0.0280158 0.999606 
-0.00116114 0.0381942 0.999271 
-0.00719246 0.0492751 0.99876 
-0.0142321 0.0653714 0.99776 
-0.0227165 0.0853017 0.996098 
-0.0346771 0.112793 0.993015 
-0.0516285 0.150423 0.987275 
-0.0748721 0.199277 0.977081 
-0.108615 0.258747 0.959822 
-0.157051 0.329149 0.931129 
-0.224207 0.406688 0.885632 
-0.313623 0.482808 0.817646 
-0.424169 0.545034 0.723206 
-0.548367 0.577392 0.604913 
-0.673217 0.566667 0.475053 
-0.784175 0.510562 0.352706 
-0.87094 0.419419 0.256036 
-0.929708 0.311142 0.197064 
-0.962279 0.204457 0.179486 
-0.974099 0.113043 0.195834 
-0.971798 0.0433224 0.231802 
-0.96151 -0.00503831 0.274727 
-0.947663 -0.0367956 0.317147 
-0.932653 -0.0576856 0.356134 
-0.917083 -0.0726299 0.392027 
-0.900688 -0.0844326 0.426186 
-0.88353 -0.0932847 0.458994 
-0.866208 -0.0981893 0.489944 
-0.849929 -0.0986392 0.517585 
-0.834508 -0.095482 0.542662 
-0.820463 -0.0916001 0.564315 
-0.809126 -0.0910239 0.580544 
-0.800143 -0.0971313 0.591895 
-0.790478 -0.111129 0.602326 
-0.775069 -0.1321 0.617915 
-0.749962 -0.156614 0.642675 
-0.713984 -0.179258 0.676828 
-0.668514 -0.194818 0.717733 
-0.615665 -0.199083 0.76245 
-0.558091 -0.190733 0.807567 
-0.498929 -0.170414 0.849728 
-0.441875 -0.138359 0.886347 
-0.387785 -0.0961786 0.916723 
-0.336716 -0.0440806 0.940579 
-0.289751 0.0189703 0.95692 
-0.247322 0.093039 0.964463 
-0.21002 0.179734 0.961042 
-0.178234 0.28082 0.943073 
-0.153092 0.396752 0.905077 
-0.134415 0.526828 0.839284 
-0.122424 0.66722 0.734739 
-0.116324 0.805848 0.580593 
-0.114209 0.921558 0.371076 
-0.112931 0.987151 0.113101 
-0.108797 0.980082 -0.166176 
-0.0990462 0.898896 -0.426835 
-0.0844012 0.766574 -0.636596 
-0.0669613 0.616002 -0.784901 
-0.0495506 0.473194 -0.87957 
-0.0347733 0.352227 -0.935273 
-0.0230363 0.256667 -0.966229 
-0.0153947 0.183227 -0.982953 
-0.0112279 0.129846 -0.991473 
-0.00804712 0.0922621 -0.995704 
-0.00745037 0.0653341 -0.997837 
-0.00714664 0.0460902 -0.998913 
-0.004781 0.0348317 -0.999382 
-0.0130019 0.018852 -0.999738 
-0.00822689 0.012158 -0.999893 
-0.00553522 0.00494384 -0.999973 
-0.00735649 -0.00840907 -0.999938 
-0.00409979 -0.00721397 -0.999968 
-0.00448343 -0.018209 -0.999763 
0.000266376 -0.0123725 0.99989 
0.00454744 -0.0032663 0.999983 
-9.60821e-06 -0.00407579 0.999991 
0.00232317 0.00816196 0.999964 
0.00313715 0.0190567 0.999815 
-0.000859533 0.0285182 0.999594 
-0.00386225 0.0391105 0.999228 
-0.00887067 0.0485702 0.998781 
-0.0157235 0.063649 0.99785 
-0.0240495 0.0831539 0.996248 
-0.035441 0.108815 0.993432 
-0.0516192 0.144596 0.988146 
-0.0728916 0.19444 0.978205 
-0.103104 0.259257 0.960293 
-0.147587 0.340114 0.928736 
-0.210348 0.436099 0.874976 
-0.295055 0.538646 0.789188 
-0.401609 0.632595 0.66223 
-0.522266 0.696029 0.492744 
-0.642602 0.7069 0.295582 
-0.747348 0.65676 0.100739 
-0.828222 0.557033 -0.0614076 
-0.885467 0.431057 -0.173614 
-0.924742 0.30232 -0.231205 
-0.952668 0.1873 -0.239464 
-0.97235 0.0947253 -0.213458 
-0.985096 0.026624 -0.16994 
-0.992492 -0.0202506 -0.12063 
-0.996044 -0.0519005 -0.0721434 
-0.996874 -0.0745749 -0.0261527 
-0.99552 -0.0926302 0.0190923 
-0.992128 -0.10744 0.0643752 
-0.986945 -0.118178 0.109447 
-0.980621 -0.123073 0.152447 
-0.974122 -0.121501 0.190598 
-0.967167 -0.115543 0.226362 
-0.960565 -0.10958 0.255558 
-0.955294 -0.108916 0.274868 
-0.950502 -0.118158 0.287379 
-0.943128 -0.137932 0.302466 
-0.929577 -0.165802 0.329238 
-0.906782 -0.197275 0.372602 
-0.873721 -0.225141 0.431194 
-0.830623 -0.243769 0.500649 
-0.778569 -0.248861 0.576115 
-0.719402 -0.239164 0.652129 
-0.656457 -0.21604 0.722774 
-0.592833 -0.181589 0.784593 
-0.528879 -0.136253 0.837696 
-0.466354 -0.0789622 0.881074 
-0.407768 -0.0102912 0.913035 
-0.354877 0.0711517 0.932209 
-0.308707 0.167273 0.936341 
-0.270897 0.278537 0.921436 
-0.243523 0.405367 0.881128 
-0.223425 0.546337 0.807223 
-0.212685 0.695439 0.686397 
-0.207484 0.835592 0.508673 
-0.202422 0.940791 0.271941 
-0.192596 0.981259 -0.00734157 
-0.174121 0.94041 -0.292114 
-0.147439 0.830582 -0.537043 
-0.116672 0.684139 -0.719973 
-0.0864274 0.534656 -0.840648 
-0.0599537 0.402448 -0.913484 
-0.0391719 0.29619 -0.95433 
-0.0233344 0.215107 -0.976315 
-0.0131258 0.154396 -0.987925 
-0.00830287 0.111877 -0.993689 
-0.00513331 0.0817596 -0.99664 
-0.00444822 0.0594722 -0.998221 
-0.00375349 0.045473 -0.99896 
-0.00328619 0.0355995 -0.999362 
-0.00386513 0.0225458 -0.999739 
-0.00598937 0.0162865 -0.999851 
-0.00496668 0.00814361 -0.999956 
-0.000107551 -0.0058894 -0.999981 
-0.00613962 -0.00220931 -0.999976 
-0.00040723 -0.0125457 -0.999889 
0.00176623 -0.0143089 0.99987 
0.00360669 -0.000326568 0.999992 
0.000105282 -0.0023446 0.999997 
0.00500147 0.0138164 0.999893 
-0.000793932 0.024462 0.999703 
-0.00373272 0.0323548 0.999472 
-0.00772644 0.0453457 0.998942 
-0.0161161 0.0596675 0.998089 
-0.0256764 0.0784592 0.996588 
-0.035866 0.102611 0.994076 
-0.0488959 0.135298 0.9896 
-0.0667655 0.182619 0.980917 
-0.0912298 0.248136 0.964424 
-0.127027 0.332739 0.93443 
-0.178054 0.438494 0.880928 
-0.247139 0.56012 0.7907 
-0.335099 0.681643 0.650455 
-0.435892 0.777263 0.453742 
-0.535788 0.816943 0.213438 
-0.620186 0.783678 -0.0351577 
-0.68258 0.686504 -0.250615 
-0.726015 0.552798 -0.409052 
-0.757656 0.410903 -0.507071 
-0.786207 0.280416 -0.55068 
-0.816263 0.171042 -0.551782 
-0.845458 0.0857842 -0.527111 
-0.871387 0.023241 -0.490049 
-0.893424 -0.0213562 -0.448711 
-0.911894 -0.0538689 -0.406882 
-0.927761 -0.0794344 -0.36463 
-0.941833 -0.100903 -0.320587 
-0.95432 -0.118221 -0.274418 
-0.965027 -0.129803 -0.227777 
-0.973758 -0.133947 -0.184009 
-0.98069 -0.130548 -0.145633 
-0.986488 -0.122978 -0.108258 
-0.989839 -0.117141 -0.0806145 
-0.990863 -0.118394 -0.0646121 
-0.989964 -0.130941 -0.0531635 
-0.987296 -0.15515 -0.0343044 
-0.982125 -0.188223 0.00198719 
-0.972535 -0.22493 0.0598781 
-0.956411 -0.25789 0.137021 
-0.932085 -0.280558 0.229154 
-0.897923 -0.289027 0.331976 
-0.853322 -0.282287 0.438369 
-0.800473 -0.261707 0.539227 
-0.741386 -0.228722 0.630909 
-0.676171 -0.182167 0.713877 
-0.608024 -0.1215 0.784574 
-0.542239 -0.0458634 0.838979 
-0.481935 0.0455755 0.875028 
-0.429025 0.153123 0.890227 
-0.387688 0.277753 0.878956 
-0.36047 0.41883 0.833459 
-0.337946 0.571127 0.748076 
-0.328259 0.727518 0.602476 
-0.318316 0.8621 0.394303 
-0.301432 0.944491 0.130748 
-0.271353 0.948386 -0.164179 
-0.230125 0.869799 -0.436482 
-0.180789 0.737949 -0.650208 
-0.132742 0.587724 -0.798111 
-0.0911805 0.448288 -0.889236 
-0.0584635 0.332543 -0.941281 
-0.0348967 0.243798 -0.969203 
-0.0185049 0.177724 -0.98391 
-0.00830888 0.129809 -0.991507 
-0.00324927 0.0972901 -0.995253 
-0.000676886 0.0740991 -0.997252 
0.000562595 0.0571372 -0.998367 
0.000368686 0.0472057 -0.998886 
-0.00104152 0.0389967 -0.999239 
-0.00426398 0.024588 -0.99969 
-0.00600658 0.0198587 -0.999785 
-0.00668508 0.00504628 -0.999965 
0.00203057 -0.00280211 -0.999993 
-0.0065369 -0.00157195 -0.999975 
-0.00103783 -0.0144199 -0.999867 
0.00236506 -0.0148715 0.999863 
0.00259912 -0.000363569 0.999997 
-0.00396371 0.000854242 0.99999 
0.00141686 0.01683 0.999858 
-0.00564018 0.0274669 0.999609 
-0.0091576 0.0368276 0.999282 
-0.0111151 0.045974 0.998882 
-0.0177965 0.05867 0.99812 
-0.0256191 0.0739573 0.996933 
-0.0343385 0.0962004 0.994771 
-0.0441878 0.125099 0.991162 
-0.0574266 0.166308 0.984403 
-0.0754535 0.227584 0.970835 
-0.100842 0.309813 0.94544 
-0.137295 0.416111 0.898897 
-0.186951 0.545999 0.816672 
-0.251072 0.687015 0.681906 
-0.326014 0.812844 0.482728 
-0.40121 0.887652 0.226124 
-0.464147 0.884096 -0.054472 
-0.508156 0.803172 -0.310984 
-0.53724 0.672635 -0.50887 
-0.558549 0.525604 -0.641696 
-0.579019 0.385277 -0.718544 
-0.605097 0.26415 -0.751059 
-0.636638 0.165845 -0.753122 
-0.668785 0.0894966 -0.738053 
-0.699186 0.0321291 -0.714221 
-0.72737 -0.0113824 -0.686156 
-0.753429 -0.0456281 -0.655949 
-0.778568 -0.073879 -0.623203 
-0.803706 -0.0975366 -0.586985 
-0.82798 -0.115872 -0.548664 
-0.850354 -0.126922 -0.510682 
-0.869803 -0.129469 -0.476117 
-0.886031 -0.125422 -0.446344 
-0.901229 -0.118762 -0.416756 
-0.909976 -0.114585 -0.398518 
-0.913582 -0.118038 -0.389149 
-0.915547 -0.132164 -0.37988 
-0.919441 -0.157847 -0.360159 
-0.927132 -0.192182 -0.321704 
-0.937465 -0.229889 -0.261368 
-0.947142 -0.265148 -0.180615 
-0.952947 -0.291941 -0.0816631 
-0.951076 -0.307076 0.034153 
-0.937544 -0.308989 0.159833 
-0.911256 -0.297247 0.285073 
-0.871998 -0.271201 0.407528 
-0.819153 -0.22766 0.526469 
-0.757534 -0.164945 0.631622 
-0.694257 -0.0821604 0.715029 
-0.632474 0.0209491 0.774305 
-0.577169 0.143782 0.803874 
-0.534996 0.284747 0.79543 
-0.509722 0.441198 0.738607 
-0.477425 0.602137 0.63993 
-0.463918 0.761576 0.452549 
-0.439725 0.872115 0.214667 
-0.391966 0.916938 -0.0749362 
-0.333362 0.871423 -0.359892 
-0.262674 0.759502 -0.595136 
-0.192997 0.619709 -0.760748 
-0.132732 0.477614 -0.868497 
-0.0855991 0.357018 -0.930175 
-0.0511603 0.263235 -0.963379 
-0.0270215 0.193637 -0.980705 
-0.011291 0.143572 -0.989578 
-0.00163567 0.108179 -0.994132 
0.00368409 0.0844822 -0.99642 
0.00571879 0.0668697 -0.997746 
0.00625241 0.0530294 -0.998574 
0.00554447 0.0454873 -0.998951 
0.00295106 0.0325994 -0.999466 
0.0023622 0.0246821 -0.999695 
-0.00135484 0.0188406 -0.999822 
-0.000750718 0.00238552 -0.999997 
-0.00321035 -0.00153011 -0.999994 
-0.00180679 -0.0145858 -0.999864 
0.000539217 -0.0146669 0.999868 
0.00113435 0.00234089 0.999996 
-0.00267132 0.00341961 0.99999 
-0.00227134 0.0212519 0.999772 
-0.00598628 0.0334742 0.999424 
-0.0100762 0.0464747 0.998871 
-0.0143338 0.0550297 0.998383 
-0.0210175 0.0689253 0.997402 
-0.0287604 0.0878999 0.995716 
-0.0368118 0.113548 0.992853 
-0.0462588 0.14793 0.987919 
-0.0586716 0.200566 0.977926 
-0.0748837 0.276042 0.95823 
-0.0978565 0.374942 0.921877 
-0.129356 0.501242 0.855595 
-0.170682 0.649111 0.741315 
-0.220252 0.797209 0.562118 
-0.271585 0.908818 0.316741 
-0.316604 0.94817 0.027668 
-0.347664 0.901536 -0.257656 
-0.366388 0.788336 -0.494271 
-0.37961 0.644424 -0.663797 
-0.39265 0.498898 -0.772617 
-0.410033 0.368042 -0.834522 
-0.434952 0.258318 -0.86261 
-0.464652 0.169588 -0.869107 
-0.494559 0.0998729 -0.863391 
-0.52322 0.0456988 -0.850976 
-0.551116 0.00277768 -0.834428 
-0.578413 -0.0324873 -0.815102 
-0.606258 -0.0618485 -0.792865 
-0.634661 -0.0857545 -0.768024 
-0.661994 -0.103529 -0.742331 
-0.686637 -0.113748 -0.718053 
-0.707265 -0.11639 -0.697307 
-0.725277 -0.1137 -0.679007 
-0.742503 -0.108906 -0.660933 
-0.750159 -0.10626 -0.652667 
-0.752656 -0.110522 -0.649074 
-0.755713 -0.123753 -0.643106 
-0.765166 -0.146754 -0.626886 
-0.784121 -0.177239 -0.594763 
-0.811736 -0.211268 -0.544475 
-0.844474 -0.24446 -0.476556 
-0.879847 -0.273023 -0.389014 
-0.913756 -0.294715 -0.27964 
-0.939115 -0.307185 -0.153967 
-0.951258 -0.307777 -0.0196706 
-0.948058 -0.292808 0.12432 
-0.926341 -0.256968 0.275437 
-0.889051 -0.195613 0.41392 
-0.842859 -0.10694 0.527407 
-0.790536 0.00797121 0.61237 
-0.739541 0.146166 0.657057 
-0.699609 0.305735 0.64582 
-0.674013 0.477636 0.563545 
-0.614629 0.64369 0.455973 
-0.598238 0.772018 0.214768 
-0.521391 0.851909 -0.0493278 
-0.44313 0.833201 -0.330828 
-0.348898 0.744521 -0.569204 
-0.257142 0.616638 -0.744088 
-0.178827 0.488654 -0.853969 
-0.11479 0.362725 -0.924809 
-0.0704073 0.268367 -0.960747 
-0.0387789 0.198022 -0.979435 
-0.0178191 0.147973 -0.988835 
-0.00484879 0.113409 -0.99354 
0.00260065 0.0904713 -0.995898 
0.0064758 0.074961 -0.997168 
0.00781282 0.0620982 -0.998041 
0.00722467 0.0517339 -0.998637 
0.00556778 0.0454872 -0.998951 
0.00393114 0.0342035 -0.99941 
0.00217531 0.0262315 -0.999656 
0.000197774 0.0177613 -0.999843 
0.0022637 -0.00139962 -0.999996 
-0.00275122 0.00175074 -0.999991 
-0.000316497 -0.0150703 -0.999865 
-0.000697785 -0.0147285 0.999869 
-0.000740053 0.00392152 0.999991 
-0.00194571 0.00599493 0.999979 
-0.00349171 0.0268269 0.999634 
-0.00662654 0.037673 0.999271 
-0.0109479 0.0510796 0.998637 
-0.0164406 0.0643953 0.997791 
-0.0235336 0.0796886 0.996544 
-0.0306071 0.102233 0.994292 
-0.0375204 0.131142 0.990656 
-0.0454856 0.173771 0.98374 
-0.0547059 0.238085 0.96971 
-0.0666772 0.327885 0.942371 
-0.0830801 0.44166 0.89334 
-0.105677 0.584315 0.804634 
-0.133208 0.74278 0.656176 
-0.16107 0.883225 0.440464 
-0.188607 0.968247 0.164207 
-0.208393 0.968785 -0.134383 
-0.219688 0.888066 -0.403853 