# vtk DataFile Version 3.0 
Exported using Morpho https://github.com/Morpho-lang/morpho 
ASCII 
DATASET UNSTRUCTURED_GRID 

POINTS 2054 float 
-8.48528 -2.82843 0 
-8.20636 -2.82843 0 
-7.94054 -2.82843 0 
-7.6904 -2.82843 0 
-7.45357 -2.82843 0 
-7.22694 -2.82843 0 
-7.00705 -2.82843 0 
-6.79111 -2.82843 0 
-6.57731 -2.82843 0 
-6.36453 -2.82843 0 
-6.15219 -2.82843 0 
-5.94 -2.82843 0 
-5.72786 -2.82843 0 
-5.51573 -2.82843 0 
-5.3036 -2.82843 0 
-5.09147 -2.82843 0 
-4.87933 -2.82843 0 
-4.6672 -2.82843 0 
-4.45507 -2.82843 0 
-4.24294 -2.82843 0 
-4.03081 -2.82843 0 
-3.81867 -2.82843 0 
-3.60654 -2.82843 0 
-3.39441 -2.82843 0 
-3.18228 -2.82843 0 
-2.97015 -2.82843 0 
-2.75801 -2.82843 0 
-2.54588 -2.82843 0 
-2.33375 -2.82843 0 
-2.12162 -2.82843 0 
-1.90949 -2.82843 0 
-1.69735 -2.82843 0 
-1.48522 -2.82843 0 
-1.27309 -2.82843 0 
-1.06096 -2.82843 0 
-0.848825 -2.82843 0 
-0.636693 -2.82843 0 
-0.424561 -2.82843 0 
-0.212429 -2.82843 0 
-0.000296761 -2.82843 0 
0.211835 -2.82843 0 
0.423967 -2.82843 0 
0.636099 -2.82843 0 
0.848231 -2.82843 0 
1.06036 -2.82843 0 
1.2725 -2.82843 0 
1.48463 -2.82843 0 
1.69676 -2.82843 0 
1.90889 -2.82843 0 
2.12102 -2.82843 0 
2.33316 -2.82843 0 
2.54529 -2.82843 0 
2.75742 -2.82843 0 
2.96955 -2.82843 0 
3.18168 -2.82843 0 
3.39382 -2.82843 0 
3.60595 -2.82843 0 
3.81808 -2.82843 0 
4.03021 -2.82843 0 
4.24234 -2.82843 0 
4.45448 -2.82843 0 
4.66661 -2.82843 0 
4.87874 -2.82843 0 
5.09087 -2.82843 0 
5.303 -2.82843 0 
5.51514 -2.82843 0 
5.72727 -2.82843 0 
5.93941 -2.82843 0 
6.15159 -2.82843 0 
6.36393 -2.82843 0 
6.57672 -2.82843 0 
6.79055 -2.82843 0 
7.00652 -2.82843 0 
7.22647 -2.82843 0 
7.45313 -2.82843 0 
7.69005 -2.82843 0 
7.9403 -2.82843 0 
8.20621 -2.82843 0 
8.48528 -2.82843 0 
-8.48528 -2.5495 0 
-8.30526 -2.64845 0 
-8.07062 -2.59995 0 
-7.83904 -2.59637 0 
-7.59595 -2.59733 0 
-7.36578 -2.59177 0 
-7.13796 -2.5933 0 
-6.90908 -2.59428 0 
-6.68421 -2.5916 0 
-6.46568 -2.58832 0 
-6.24926 -2.58859 0 
-6.03358 -2.58941 0 
-5.81848 -2.59013 0 
-5.60402 -2.59075 0 
-5.39005 -2.59135 0 
-5.17642 -2.59186 0 
-4.96311 -2.59223 0 
-4.75009 -2.59242 0 
-4.53736 -2.59244 0 
-4.32497 -2.59236 0 
-4.1128 -2.59242 0 
-3.90059 -2.59259 0 
-3.68835 -2.5926 0 
-3.47627 -2.59248 0 
-3.26428 -2.59251 0 
-3.05216 -2.59271 0 
-2.83986 -2.59283 0 
-2.62755 -2.59274 0 
-2.41539 -2.59253 0 
-2.20336 -2.59238 0 
-1.99135 -2.59238 0 
-1.77924 -2.59246 0 
-1.56704 -2.59244 0 
-1.35495 -2.59215 0 
-1.14319 -2.59183 0 
-0.931581 -2.59195 0 
-0.719663 -2.59256 0 
-0.507197 -2.59324 0 
-0.294425 -2.59354 0 
-0.0817689 -2.59344 0 
0.130587 -2.59325 0 
0.342804 -2.59322 0 
0.555051 -2.59322 0 
0.767233 -2.59303 0 
0.97919 -2.59278 0 
1.19107 -2.59278 0 
1.40311 -2.59289 0 
1.61524 -2.59286 0 
1.82732 -2.59279 0 
2.03943 -2.59281 0 
2.25163 -2.5928 0 
2.46381 -2.59266 0 
2.67591 -2.59254 0 
2.88801 -2.59237 0 
3.10001 -2.59226 0 
3.31203 -2.59216 0 
3.52402 -2.59207 0 
3.73601 -2.59208 0 
3.94815 -2.59221 0 
4.16052 -2.5923 0 
4.37309 -2.59232 0 
4.58593 -2.59227 0 
4.79921 -2.5922 0 
5.01319 -2.59212 0 
5.22833 -2.5921 0 
5.44534 -2.59239 0 
5.6657 -2.59346 0 
5.89185 -2.59569 0 
6.12685 -2.59429 0 
6.36853 -2.59189 0 
6.6108 -2.57787 0 
6.84491 -2.61411 0 
7.08804 -2.58476 0 
7.34858 -2.60369 0 
7.58803 -2.59327 0 
7.83059 -2.59326 0 
8.06387 -2.59199 0 
8.30038 -2.64348 0 
8.48528 -2.54936 0 
-8.48528 -2.28369 0 
-8.25701 -2.4138 0 
-8.01078 -2.35334 0 
-7.73666 -2.37963 0 
-7.49744 -2.35565 0 
-7.26898 -2.35831 0 
-7.03324 -2.36676 0 
-6.7997 -2.36275 0 
-6.5773 -2.35166 0 
-6.35808 -2.3495 0 
-6.14038 -2.35058 0 
-5.92336 -2.35185 0 
-5.70723 -2.35272 0 
-5.49199 -2.35362 0 
-5.27734 -2.35447 0 
-5.0632 -2.35505 0 
-4.84958 -2.35534 0 
-4.63641 -2.35533 0 
-4.42363 -2.35504 0 
-4.21126 -2.35485 0 
-3.99909 -2.35513 0 
-3.78684 -2.3554 0 
-3.57461 -2.35516 0 
-3.36263 -2.35498 0 
-3.15066 -2.35537 0 
-2.93843 -2.35586 0 
-2.72604 -2.35589 0 
-2.51374 -2.35551 0 
-2.30162 -2.35509 0 
-2.08964 -2.35496 0 
-1.87761 -2.35518 0 
-1.66544 -2.3554 0 
-1.45322 -2.35518 0 
-1.2412 -2.35438 0 
-1.02967 -2.35407 0 
-0.818162 -2.35505 0 
-0.606054 -2.35676 0 
-0.393243 -2.3579 0 
-0.180256 -2.35789 0 
0.0323765 -2.35727 0 
0.244686 -2.35692 0 
0.456926 -2.35692 0 
0.669206 -2.35667 0 
0.881318 -2.35598 0 
1.09315 -2.35559 0 
1.305 -2.35583 0 
1.51709 -2.35595 0 
1.72919 -2.35571 0 
1.9412 -2.35566 0 
2.15334 -2.3558 0 
2.36559 -2.3556 0 
2.57772 -2.35522 0 
2.78976 -2.35507 0 
3.0019 -2.35461 0 
3.21373 -2.35451 0 
3.42571 -2.35439 0 
3.63769 -2.35431 0 
3.84965 -2.35453 0 
4.06183 -2.35491 0 
4.27435 -2.35507 0 
4.48707 -2.35507 0 
4.70017 -2.35506 0 
4.91376 -2.35498 0 
5.12819 -2.35502 0 
5.34378 -2.35528 0 
5.56106 -2.35662 0 
5.78097 -2.35971 0 
6.00401 -2.36251 0 
6.2308 -2.3624 0 
6.45748 -2.35551 0 
6.68075 -2.33423 0 
6.88797 -2.39744 0 
7.05313 -2.27289 0 
7.24377 -2.40237 0 
7.48542 -2.36016 0 
7.73055 -2.36599 0 
7.99177 -2.33552 0 
8.24864 -2.40698 0 
8.48528 -2.28345 0 
-8.48528 -2.03355 0 
-8.25312 -2.18214 0 
-8.03669 -2.07913 0 
-7.83956 -2.18231 0 
-7.6106 -2.12852 0 
-7.38852 -2.10959 0 
-7.16268 -2.14097 0 
-6.9229 -2.1435 0 
-6.70119 -2.12055 0 
-6.48111 -2.11285 0 
-6.26282 -2.11284 0 
-6.045 -2.1151 0 
-5.82775 -2.11658 0 
-5.61153 -2.11776 0 
-5.3962 -2.1192 0 
-5.18144 -2.1203 0 
-4.96732 -2.12084 0 
-4.75387 -2.12105 0 
-4.54086 -2.12091 0 
-4.32822 -2.12045 0 
-4.11596 -2.12045 0 
-3.90382 -2.12107 0 
-3.69156 -2.12116 0 
-3.47938 -2.12058 0 
-3.26746 -2.12068 0 
-3.05542 -2.12154 0 
-2.84307 -2.12198 0 
-2.63064 -2.12162 0 
-2.41836 -2.12087 0 
-2.20626 -2.12031 0 
-1.99426 -2.12034 0 
-1.78217 -2.1207 0 
-1.56989 -2.12074 0 
-1.35755 -2.11993 0 
-1.14542 -2.11838 0 
-0.934012 -2.11859 0 
-0.722404 -2.12089 0 
-0.509943 -2.12344 0 
-0.296911 -2.12431 0 
-0.0840921 -2.12359 0 
0.128295 -2.12281 0 
0.340414 -2.12274 0 
0.552564 -2.12288 0 
0.76478 -2.12226 0 
0.976792 -2.1213 0 
1.18855 -2.12128 0 
1.40042 -2.12188 0 
1.61256 -2.12177 0 
1.82458 -2.12141 0 
2.03655 -2.12164 0 
2.24875 -2.12174 0 
2.46099 -2.12114 0 
2.67302 -2.12065 0 
2.88504 -2.12054 0 
3.09728 -2.1194 0 
3.30873 -2.11968 0 
3.52086 -2.1195 0 
3.7329 -2.11938 0 
3.94484 -2.11986 0 
4.15715 -2.12044 0 
4.36983 -2.12035 0 
4.58282 -2.1204 0 
4.79606 -2.12017 0 
5.01004 -2.12012 0 
5.22483 -2.12002 0 
5.44073 -2.12051 0 
5.6582 -2.123 0 
5.8782 -2.12696 0 
6.10217 -2.12971 0 
6.33095 -2.12707 0 
6.567 -2.11601 0 
6.82301 -2.12303 0 
7.06572 -2.04567 0 
7.29733 -2.17484 0 
7.54632 -2.11408 0 
7.79371 -2.13741 0 
8.02274 -2.07453 0 
8.25027 -2.1738 0 
8.48528 -2.0332 0 
-8.48528 -1.79671 0 
-8.25436 -1.93882 0 
-8.01299 -1.83977 0 
-7.78596 -1.953 0 
-7.5297 -1.87194 0 
-7.2756 -1.88722 0 
-7.05707 -1.93544 0 
-6.84369 -1.89677 0 
-6.62219 -1.88079 0 
-6.40169 -1.87606 0 
-6.18206 -1.87854 0 
-5.96274 -1.881 0 
-5.74458 -1.88208 0 
-5.52796 -1.88344 0 
-5.31232 -1.88506 0 
-5.09736 -1.88569 0 
-4.88338 -1.88564 0 
-4.67019 -1.88555 0 
-4.45737 -1.88507 0 
-4.24485 -1.88447 0 
-4.03271 -1.88482 0 
-3.82061 -1.88562 0 
-3.60832 -1.88529 0 
-3.39617 -1.88464 0 
-3.18427 -1.88547 0 
-2.97209 -1.88672 0 
-2.7596 -1.88684 0 
-2.54714 -1.88601 0 
-2.33483 -1.88505 0 
-2.12268 -1.8846 0 
-1.91058 -1.885 0 
-1.69824 -1.88561 0 
-1.48561 -1.88547 0 
-1.27286 -1.88413 0 
-1.06032 -1.88216 0 
-0.848858 -1.8839 0 
-0.636875 -1.88781 0 
-0.424169 -1.89034 0 
-0.211518 -1.89004 0 
0.000731944 -1.88866 0 
0.21257 -1.88788 0 
0.424308 -1.88807 0 
0.636257 -1.88793 0 
0.848362 -1.88664 0 
1.06025 -1.88556 0 
1.27191 -1.88605 0 
1.48381 -1.88664 0 
1.69595 -1.886 0 
1.90782 -1.88577 0 
2.11974 -1.88637 0 
2.33202 -1.88609 0 
2.54419 -1.88502 0 
2.75607 -1.88472 0 
2.96812 -1.88462 0 
3.18055 -1.88217 0 
3.39117 -1.88415 0 
3.60398 -1.8838 0 
3.81618 -1.88366 0 
4.02827 -1.88469 0 
4.24071 -1.88523 0 
4.4544 -1.88509 0 
4.66716 -1.88476 0 
4.88099 -1.88493 0 
5.09545 -1.88466 0 
5.31057 -1.88453 0 
5.52653 -1.88564 0 
5.7436 -1.88981 0 
5.96352 -1.89563 0 
6.18733 -1.89813 0 
6.41543 -1.89522 0 
6.65059 -1.89622 0 
6.87542 -1.86913 0 
7.11122 -1.81621 0 
7.31223 -1.94975 0 
7.53264 -1.87683 0 
7.77077 -1.89068 0 
8.01717 -1.8297 0 
8.25014 -1.93148 0 
8.48528 -1.79628 0 
-8.48528 -1.57009 0 
-8.24868 -1.70836 0 
-8.015 -1.61096 0 
-7.76734 -1.73071 0 
-7.54593 -1.61782 0 
-7.32306 -1.66278 0 
-7.05152 -1.7082 0 
-6.79786 -1.66675 0 
-6.56099 -1.64764 0 
-6.33267 -1.64541 0 
-6.10856 -1.64921 0 
-5.88638 -1.65073 0 
-5.66697 -1.65153 0 
-5.44986 -1.65353 0 
-5.23379 -1.65525 0 
-5.01882 -1.6551 0 
-4.80519 -1.6548 0 
-4.59235 -1.65478 0 
-4.37976 -1.65422 0 
-4.16737 -1.65386 0 
-3.95537 -1.65471 0 
-3.74326 -1.6554 0 
-3.5309 -1.65455 0 
-3.31876 -1.65426 0 
-3.10682 -1.65593 0 
-2.89443 -1.65705 0 
-2.68177 -1.65644 0 
-2.46924 -1.65516 0 
-2.25682 -1.65408 0 
-2.04447 -1.65386 0 
-1.83202 -1.65455 0 
-1.61911 -1.65506 0 
-1.40572 -1.65429 0 
-1.19212 -1.65207 0 
-0.97885 -1.64982 0 
-0.767325 -1.65372 0 
-0.555434 -1.6581 0 
-0.343588 -1.65935 0 
-0.132061 -1.65818 0 
0.0792288 -1.65687 0 
0.290417 -1.65682 0 
0.501823 -1.6575 0 
0.713729 -1.65709 0 
0.925861 -1.65545 0 
1.13768 -1.65488 0 
1.34929 -1.65604 0 
1.56128 -1.6563 0 
1.77337 -1.65516 0 
1.985 -1.65561 0 
2.19698 -1.65642 0 
2.40939 -1.65525 0 
2.62143 -1.65394 0 
2.83323 -1.65414 0 
3.04553 -1.65355 0 
3.25842 -1.64868 0 
3.46746 -1.65522 0 
3.68272 -1.65284 0 
3.89574 -1.65288 0 
4.10731 -1.65378 0 
4.32287 -1.65565 0 
4.53627 -1.65249 0 
4.74932 -1.65397 0 
4.96428 -1.65355 0 
5.17935 -1.65257 0 
5.3944 -1.65202 0 
5.60927 -1.65354 0 
5.82513 -1.66019 0 
6.04295 -1.66711 0 
6.26383 -1.66843 0 
6.48537 -1.66776 0 
6.70098 -1.65646 0 
6.91299 -1.6206 0 
7.11709 -1.6046 0 
7.3526 -1.69716 0 
7.60698 -1.65764 0 
7.8325 -1.64214 0 
8.05985 -1.58842 0 
8.2608 -1.69223 0 
8.48528 -1.56961 0 
-8.48528 -1.35019 0 
-8.24958 -1.48044 0 
-8.0219 -1.3751 0 
-7.79713 -1.50391 0 
-7.58956 -1.39834 0 
-7.36199 -1.38754 0 
-7.16079 -1.49923 0 
-6.93764 -1.46284 0 
[...]
POINT_DATA 2054 
VECTORS vectors float
0.0955147 -0.126544 0.98793 
0.11947 -0.079773 0.989959 
0.121578 -0.0602061 0.990609 
0.122544 -0.0328302 0.991016 
0.132124 0.0093096 0.989865 
0.145283 0.00304076 0.987565 
0.146883 -0.0290821 0.987467 
0.137876 -0.0533091 0.988255 
0.123933 -0.0282231 0.991504 
0.123476 0.0343688 0.991409 
0.138501 0.0718662 0.987179 
0.146262 0.0619527 0.986658 
0.143834 0.0503766 0.987879 
0.133412 0.0550566 0.989356 
0.122518 0.0879748 0.988522 
0.117582 0.12095 0.985795 
0.112117 0.148809 0.982567 
0.108665 0.17288 0.978784 
0.1027 0.189961 0.976251 
0.0943488 0.205375 0.974115 
0.0795294 0.219289 0.972695 
0.056539 0.248495 0.967332 
0.0304931 0.285364 0.958217 
0.00541111 0.319062 0.947909 
-0.0135101 0.332198 0.943044 
-0.0275598 0.309552 0.950426 
-0.0364263 0.257683 0.965342 
-0.0405253 0.184861 0.981358 
-0.0393186 0.106927 0.992948 
-0.0322696 0.0322184 0.998625 
-0.0257602 -0.0294855 0.999252 
-0.0199475 -0.0679993 0.997701 
-0.0107894 -0.0985394 0.995259 
-0.000616844 -0.13865 0.990466 
0.00801585 -0.184001 0.983038 
0.0168552 -0.22388 0.974804 
0.0261573 -0.254591 0.967233 
0.0326306 -0.272208 0.962298 
0.0362001 -0.270301 0.96273 
0.0401584 -0.250133 0.968025 
0.0422757 -0.213354 0.977003 
0.0413672 -0.153237 0.988456 
0.0462274 -0.082121 0.996217 
0.0590885 -0.028301 0.998736 
0.0689773 0.00330824 0.998341 
0.0754914 0.0281747 0.996236 
0.084699 0.0591008 0.994541 
0.0961436 0.0864263 0.99229 
0.107481 0.106913 0.989089 
0.103863 0.154235 0.982341 
0.0909584 0.234692 0.966757 
0.0765299 0.323533 0.941717 
0.0531596 0.438643 0.897464 
0.0281986 0.591965 0.807697 
0.00757219 0.762876 0.648284 
-0.00492649 0.920844 0.394209 
-0.010898 0.998427 0.0744153 
-0.0130676 0.965804 -0.260996 
-0.0215931 0.833256 -0.553551 
-0.0429773 0.666163 -0.745286 
-0.0659012 0.515928 -0.854585 
-0.0809927 0.395775 -0.914894 
-0.0919657 0.292135 -0.952259 
-0.103749 0.208925 -0.972548 
-0.114419 0.137374 -0.983837 
-0.130771 0.0872873 -0.987402 
-0.142716 0.0729537 -0.986592 
-0.144261 0.0780717 -0.985831 
-0.135504 0.0752105 -0.987429 
-0.122204 0.0296739 -0.991554 
-0.123506 -0.0350732 -0.991342 
-0.139229 -0.0546867 -0.98787 
-0.148735 -0.0252391 -0.987382 
-0.143082 0.0066227 -0.988077 
-0.129146 0.0125235 -0.990221 
-0.123971 -0.0329182 -0.990904 
-0.125846 -0.0596307 -0.989977 
-0.120043 -0.0793748 -0.989845 
-0.0986034 -0.128935 -0.987242 
0.0469259 -0.133757 0.992744 
0.0930313 -0.121518 0.991713 
0.103251 -0.0644241 0.994953 
0.0968965 -0.0500977 0.995681 
0.100073 -0.027375 0.995969 
0.105658 -0.0142605 0.995591 
0.113078 -0.0172276 0.994532 
0.106429 -0.0279135 0.99502 
0.0937385 -0.0234655 0.996448 
0.0838416 0.000559153 0.997642 
0.0829144 0.0309067 0.997148 
0.0904211 0.0480949 0.995548 
0.0944144 0.0504921 0.994932 
0.0892788 0.0576115 0.995054 
0.0783206 0.08059 0.994502 
0.0686267 0.11098 0.992403 
0.0603744 0.139929 0.989429 
0.0501902 0.168101 0.985774 
0.0327406 0.195746 0.981433 
0.00254667 0.224854 0.975705 
-0.0441178 0.258046 0.966471 
-0.106037 0.298299 0.949851 
-0.17903 0.340962 0.923863 
-0.259647 0.373633 0.891133 
-0.34188 0.383154 0.858433 
-0.419536 0.360837 0.832948 
-0.486852 0.306444 0.817398 
-0.536026 0.225935 0.812244 
-0.558846 0.131966 0.817358 
-0.553052 0.0409019 0.831036 
-0.526234 -0.0329939 0.848964 
-0.491848 -0.0837952 0.866247 
-0.458856 -0.119207 0.880376 
-0.42786 -0.151552 0.89113 
-0.396188 -0.185862 0.899396 
-0.361472 -0.219075 0.906785 
-0.324349 -0.24613 0.914193 
-0.288828 -0.262759 0.921701 
-0.256984 -0.265451 0.930443 
-0.227532 -0.254864 0.941106 
-0.199736 -0.2302 0.953903 
-0.174763 -0.189713 0.967839 
-0.149402 -0.138036 0.980784 
-0.121168 -0.0876714 0.990388 
-0.0944882 -0.0492671 0.995877 
-0.0698091 -0.0168541 0.999002 
-0.0484298 0.019711 1.00011 
-0.0315125 0.0574432 0.999885 
-0.0178373 0.0941297 0.997641 
-0.00794521 0.138458 0.992168 
-0.00308047 0.201076 0.980806 
-0.00334611 0.286891 0.959024 
-0.0124304 0.399054 0.918736 
-0.0297672 0.540641 0.843843 
-0.0459813 0.701725 0.714646 
-0.0548019 0.862395 0.507496 
-0.0588914 0.975515 0.219294 
-0.0603139 0.993192 -0.112575 
-0.0606863 0.905137 -0.424289 
-0.0657632 0.750954 -0.659467 
-0.0742556 0.587207 -0.808051 
-0.0788956 0.445449 -0.893665 
-0.0777607 0.330547 -0.9422 
-0.0757168 0.239461 -0.969276 
-0.0784192 0.166493 -0.984044 
-0.0878048 0.110741 -0.990929 
-0.0968148 0.0784359 -0.993004 
-0.0965473 0.065978 -0.993916 
-0.0868393 0.0517205 -0.995832 
-0.079706 0.0168501 -0.998195 
-0.0897245 -0.0187755 -0.996994 
-0.105325 -0.0297222 -0.995058 
-0.109143 -0.019518 -0.99522 
-0.110654 -0.0121801 -0.995272 
-0.0972808 -0.0264884 -0.99632 
-0.099196 -0.0487469 -0.995523 
-0.104801 -0.0652706 -0.994685 
-0.094993 -0.124677 -0.990995 
-0.0508048 -0.135957 -0.991853 
0.0208856 -0.16151 0.985715 
0.0565223 -0.112257 0.993956 
0.0489744 -0.0802989 0.997273 
0.0501765 -0.0543571 0.998429 
0.0554768 -0.0369749 0.999179 
0.0661385 -0.0390009 0.998203 
0.0627159 -0.0300932 0.99866 
0.0556409 -0.0275292 0.999328 
0.0516754 -0.0184136 0.999545 
0.0438808 -0.00146741 1.00039 
0.0423022 0.0237561 1.00034 
0.0477702 0.0384082 0.99956 
0.0488267 0.0476423 0.999076 
0.0418925 0.0699523 0.998115 
0.028679 0.102487 0.995751 
0.0120525 0.13425 0.992267 
-0.00784855 0.165663 0.987575 
-0.034774 0.202035 0.980306 
-0.0759719 0.246847 0.967806 
-0.138491 0.302061 0.945141 
-0.223779 0.366086 0.905463 
-0.328074 0.430075 0.843305 
-0.446739 0.478091 0.758366 
-0.57102 0.493576 0.65801 
-0.687731 0.467349 0.557162 
-0.786461 0.400579 0.470876 
-0.860136 0.301412 0.410795 
-0.903202 0.183898 0.385689 
-0.913952 0.0670178 0.397499 
-0.896691 -0.0306687 0.43889 
-0.86236 -0.0997229 0.494122 
-0.82293 -0.14479 0.54793 
-0.784681 -0.17744 0.593276 
-0.746978 -0.207499 0.631377 
-0.705469 -0.236259 0.668173 
-0.657825 -0.260638 0.706945 
-0.606246 -0.277197 0.746085 
-0.556378 -0.28281 0.782301 
-0.509575 -0.279862 0.814792 
-0.463211 -0.268974 0.845661 
-0.417517 -0.243556 0.876859 
-0.373033 -0.205174 0.9065 
-0.328143 -0.160918 0.932376 
-0.283329 -0.122631 0.952596 
-0.242533 -0.0886849 0.967511 
-0.206447 -0.0536448 0.978725 
-0.172861 -0.0135081 0.986899 
-0.140474 0.0313106 0.991735 
-0.111469 0.0838396 0.992068 
-0.0923592 0.148347 0.98563 
-0.08472 0.230928 0.970162 
-0.0859365 0.338087 0.938823 
-0.0927794 0.472403 0.878975 
-0.101158 0.630851 0.772629 
-0.108098 0.797219 0.598321 
-0.11204 0.934899 0.342871 
-0.11048 0.995081 0.0262769 
-0.101432 0.950862 -0.297082 
-0.0889161 0.820747 -0.566543 
-0.0787357 0.655247 -0.753085 
-0.0700774 0.498309 -0.865884 
-0.0604174 0.369248 -0.928991 
-0.0508977 0.270414 -0.962895 
-0.04605 0.194391 -0.981346 
-0.0493052 0.132649 -0.991516 
-0.0562271 0.0859888 -0.996217 
-0.0579061 0.0599519 -0.997989 
-0.0525211 0.044391 -0.999032 
-0.0476314 0.0192119 -1.00003 
-0.055059 -0.00676616 -0.999568 
-0.0517365 -0.0211277 -0.999493 
-0.0714343 -0.0272771 -0.997974 
-0.0487524 -0.0370988 -0.999437 
-0.070689 -0.0344005 -0.997805 
-0.0544034 -0.0380236 -0.99924 
-0.0522476 -0.0539858 -0.998676 
-0.0495469 -0.0799808 -0.997198 
-0.0591423 -0.114053 -0.993649 
-0.0187038 -0.162607 -0.985185 
0.0196219 -0.164573 0.987592 
0.0258242 -0.127428 0.992978 
0.0286854 -0.100809 0.99556 
0.0277762 -0.0737603 0.999039 
0.0373618 -0.0628833 0.998421 
0.0504665 -0.0602077 0.997895 
0.0516871 -0.0459553 0.998311 
0.0417387 -0.0364343 0.9995 
0.0429069 -0.0279547 0.999282 
0.0398925 -0.0197711 0.999544 
0.0300613 0.00142157 1.00038 
0.028083 0.0250819 1.00002 
0.029554 0.0365382 0.999514 
0.0254493 0.0568024 0.998878 
0.0133623 0.0938997 0.996462 
-0.00675493 0.132627 0.992143 
-0.0327293 0.168378 0.986242 
-0.0645368 0.211494 0.976409 
-0.108575 0.270304 0.957908 
-0.174866 0.346618 0.922863 
-0.26676 0.436355 0.860557 
-0.378531 0.527156 0.761733 
-0.503421 0.599026 0.623159 
-0.633178 0.629659 0.450469 
-0.752011 0.603838 0.264665 
-0.846238 0.523639 0.0964984 
-0.913251 0.404676 -0.0301843 
-0.957058 0.26694 -0.102316 
-0.982879 0.130684 -0.1182 
-0.994895 0.0120441 -0.0858797 
-0.995724 -0.0792078 -0.018837 
-0.987197 -0.14171 0.065041 
-0.971889 -0.183352 0.146347 
-0.952186 -0.21585 0.216778 
-0.928332 -0.245941 0.279801 
-0.898241 -0.273554 0.344848 
-0.859651 -0.296193 0.416889 
-0.814175 -0.310132 0.491436 
-0.765711 -0.315163 0.561422 
-0.715019 -0.314644 0.625208 
-0.66026 -0.307276 0.686483 
-0.603708 -0.286703 0.745214 
-0.548074 -0.254135 0.798376 
-0.49215 -0.218213 0.844241 
-0.437115 -0.182932 0.882098 
-0.383694 -0.146941 0.913425 
-0.331067 -0.105356 0.939229 
-0.283014 -0.0561729 0.958938 
-0.240984 0.00228361 0.971857 
-0.208197 0.0717539 0.976132 
-0.18774 0.155202 0.970386 
-0.178939 0.258234 0.950362 
-0.178272 0.385539 0.907109 
-0.181175 0.539705 0.824842 
-0.187004 0.710231 0.683129 
-0.192582 0.867898 0.464958 
-0.191339 0.968812 0.173481 
-0.176768 0.974863 -0.150177 
-0.150091 0.883812 -0.447066 
-0.120389 0.731372 -0.67366 
-0.0948202 0.565773 -0.821096 
-0.0726607 0.42077 -0.90608 
-0.0539299 0.309169 -0.95101 
-0.0418159 0.227556 -0.974063 
-0.0387503 0.16283 -0.986912 
-0.0422255 0.105667 -0.994482 
-0.0447139 0.0624949 -0.997824 
-0.0418714 0.0414256 -0.998934 
-0.0372487 0.0245693 -0.999816 
-0.0393643 -0.00393672 -1.00008 
-0.0477286 -0.0207711 -0.999133 
-0.0418803 -0.0299691 -0.999871 
-0.0446058 -0.0432842 -0.998708 
-0.0574498 -0.0491989 -0.998268 
-0.0414561 -0.0680467 -0.998128 
-0.0258249 -0.0659123 -0.999352 
-0.0248608 -0.103519 -0.995543 
-0.0245907 -0.127337 -0.99294 
-0.0173686 -0.1677 -0.987209 
-0.00865773 -0.163682 0.988151 
0.0178406 -0.134489 0.991744 
0.0101619 -0.101027 0.996258 
0.0181137 -0.0808832 0.997802 
0.0315497 -0.0742907 0.99801 
0.0442362 -0.0596927 0.99838 
0.0411505 -0.0456977 0.998695 
0.038557 -0.0321143 0.999886 
0.0448107 -0.024666 0.999567 
0.0414687 -0.0134477 1.00035 
0.0351136 0.0138784 1.00046 
0.0353401 0.0317661 0.999655 
0.0348814 0.0477745 0.998998 
0.027435 0.087248 0.996915 
0.0103137 0.138388 0.991435 
-0.0167099 0.184021 0.983834 
-0.0515978 0.232332 0.972512 
-0.0964782 0.298619 0.951074 
-0.16004 0.388252 0.909393 
-0.247222 0.497855 0.833363 
-0.352077 0.614327 0.708635 
-0.465167 0.712641 0.528634 
-0.576891 0.762368 0.30105 
-0.672395 0.742147 0.0539575 
-0.74046 0.654634 -0.169964 
-0.783918 0.523433 -0.340179 
-0.814208 0.37513 -0.445941 
-0.840973 0.230118 -0.490986 
-0.867402 0.100267 -0.487847 
-0.893946 -0.00775651 -0.448255 
-0.919866 -0.090012 -0.382261 
-0.941418 -0.148238 -0.304268 
-0.95579 -0.189389 -0.227387 
-0.962704 -0.222272 -0.157944 
-0.96335 -0.253256 -0.092968 
-0.958359 -0.285721 -0.0182266 
-0.945516 -0.317904 0.0713908 
-0.923473 -0.343004 0.172384 
-0.891572 -0.359587 0.276067 
-0.850267 -0.366964 0.378415 
-0.80216 -0.362433 0.47591 
-0.750616 -0.345942 0.564407 
-0.699445 -0.317449 0.64187 
-0.646433 -0.284514 0.709698 
-0.588721 -0.248517 0.771137 
-0.525859 -0.205076 0.827412 
-0.461433 -0.150839 0.876108 
-0.403486 -0.084326 0.91268 
-0.355955 -0.00846536 0.935558 
-0.31991 0.0783786 0.944952 
-0.297411 0.179959 0.938489 
-0.287506 0.301433 0.910512 
-0.286245 0.447811 0.849017 
-0.289485 0.611487 0.740156 
-0.296469 0.778639 0.55976 
-0.294195 0.908952 0.306441 
-0.27745 0.96306 -0.000979993 
-0.242551 0.920682 -0.311207 
-0.196078 0.798946 -0.571174 
-0.151405 0.641437 -0.753952 
-0.115818 0.488976 -0.866221 
-0.0886174 0.365237 -0.928234 
-0.0695798 0.273642 -0.960608 
-0.0608405 0.206592 -0.977614 
-0.0599648 0.147439 -0.98829 
-0.0609104 0.0888246 -0.995164 
-0.0571165 0.0471241 -0.99792 
-0.049007 0.0318264 -0.998998 
-0.0449362 0.0137255 -0.999944 
-0.0474028 -0.0148759 -0.999903 
-0.0455758 -0.0246287 -0.999466 
-0.037228 -0.0326675 -1.00007 
-0.0371907 -0.0475396 -0.998853 
-0.0460632 -0.0578595 -0.998555 
-0.0315378 -0.0773881 -0.9976 
-0.0179751 -0.0835809 -0.997652 
-0.00833435 -0.102719 -0.995951 
-0.0162693 -0.131881 -0.991856 
0.0105592 -0.166366 -0.987154 
-0.0149071 -0.165909 0.986423 
9.45139e-05 -0.135836 0.991808 
0.00485984 -0.111049 0.995207 
0.0133747 -0.0897657 0.996954 
0.0138331 -0.08157 0.997594 
0.0258844 -0.062186 0.998644 
0.0273368 -0.0435568 0.999727 
0.0278505 -0.0240671 1.00042 
0.0319738 -0.0212243 0.999975 
0.0332839 -0.00176888 1.00061 
0.0395827 0.0253633 0.999764 
0.0477964 0.039979 0.998536 
0.0506401 0.0732491 0.996663 
0.0434632 0.133398 0.990773 
0.0236071 0.193023 0.98139 
-0.00829976 0.247121 0.969521 
-0.0512621 0.314227 0.948878 
-0.109384 0.40681 0.908129 
-0.186134 0.524913 0.831803 
-0.276953 0.658506 0.701195 
-0.371218 0.781405 0.503712 
-0.459902 0.855028 0.246083 
-0.531994 0.848856 -0.0385129 
-0.578147 0.763056 -0.299415 
-0.602754 0.62665 -0.499267 
-0.618751 0.473443 -0.629788 
-0.638014 0.32637 -0.699306 
-0.663563 0.195134 -0.723415 
-0.694622 0.0834712 -0.714971 
-0.730578 -0.00712887 -0.683046 
-0.768688 -0.0769302 -0.635723 
-0.804589 -0.127532 -0.581394 
-0.834254 -0.165924 -0.527853 
-0.856638 -0.200117 -0.477571 
-0.875193 -0.235429 -0.424297 
-0.894179 -0.276677 -0.353231 
-0.909715 -0.321952 -0.263132 
-0.918909 -0.363572 -0.154285 
-0.91845 -0.394714 -0.030408 
-0.906783 -0.409681 0.101416 
-0.883761 -0.408255 0.230367 
-0.851799 -0.39373 0.347503 
-0.814686 -0.368484 0.450234 
-0.772582 -0.335601 0.541668 
-0.721409 -0.297613 0.627855 
-0.659224 -0.249761 0.711456 
-0.593786 -0.184835 0.784845 
-0.534509 -0.103089 0.840057 
-0.485235 -0.00808572 0.874886 
-0.447274 0.095841 0.889734 
-0.423714 0.216183 0.880643 
-0.416034 0.357314 0.837758 
-0.415421 0.513788 0.753647 
-0.420463 0.682702 0.602943 
-0.420609 0.829538 0.375729 
-0.397989 0.913609 0.101521 
-0.357164 0.91207 -0.204718 
-0.297452 0.826094 -0.480149 
-0.233317 0.688838 -0.687684 
-0.178338 0.540435 -0.8234 
-0.139787 0.413342 -0.90081 
-0.113198 0.315965 -0.942832 
-0.0973977 0.24464 -0.96521 
-0.0915277 0.189487 -0.977969 
-0.089415 0.132386 -0.987684 
-0.0840592 0.0718258 -0.994526 
-0.0727949 0.0337133 -0.997245 
-0.0581213 0.0230014 -0.998864 
-0.0482363 0.00273711 -1.00003 
-0.0451968 -0.0214893 -0.999758 
-0.0390511 -0.0252494 -0.999627 
-0.0307025 -0.0308835 -1.00032 
-0.0276881 -0.0461987 -0.99893 
-0.0283915 -0.0637797 -0.998668 
-0.0153014 -0.082702 -0.99763 
-0.00885869 -0.0982825 -0.996695 
-0.00442943 -0.117621 -0.993876 
-0.000144666 -0.143496 -0.990805 
0.0143762 -0.169499 -0.985289 
-0.0247389 -0.181379 0.983727 
-0.0120046 -0.148856 0.990159 
-0.00542497 -0.123498 0.99328 
0.00322749 -0.101128 0.995675 
-0.00116537 -0.0910134 0.996518 
0.00435938 -0.0682034 0.998705 
0.0136731 -0.0474241 0.999216 
0.013035 -0.0257869 1.00084 
0.0114515 -0.0207465 1.00039 
0.010674 -0.0147345 1.00102 
0.018023 0.0127651 1.00125 
0.0315043 0.0325149 1.00028 
0.0427533 0.0551048 0.998797 
0.0456812 0.112925 0.994148 
0.0370617 0.185034 0.983632 
0.0152186 0.246464 0.970649 
-0.0194966 0.310247 0.95212 
-0.0676489 0.397634 0.916804 
-0.130207 0.514716 0.849191 
-0.203636 0.656485 0.728115 
-0.277448 0.800401 0.532997 
-0.342125 0.902418 0.263598 
-0.391091 0.91989 -0.0453339 
-0.419552 0.84437 -0.336538 
-0.430439 0.706262 -0.564046 
-0.435086 0.548518 -0.71487 
-0.445276 0.401451 -0.800833 
-0.46492 0.275672 -0.841685 
-0.491924 0.170554 -0.853783 
-0.524407 0.0840733 -0.847333 
-0.560518 0.0130461 -0.828788 
-0.597002 -0.0435513 -0.802651 
-0.62913 -0.087835 -0.7744 
-0.656028 -0.12532 -0.746404 
-0.68147 -0.162486 -0.715462 
-0.710117 -0.20533 -0.674981 
-0.748126 -0.254638 -0.614021 
-0.787994 -0.307489 -0.534711 
-0.827575 -0.35667 -0.434986 
-0.863925 -0.394001 -0.315449 
-0.891899 -0.414529 -0.182984 
-0.906561 -0.419951 -0.0484069 
-0.907044 -0.414034 0.0807249 
-0.895097 -0.399256 0.201203 
-0.872714 -0.375003 0.315035 
-0.837309 -0.339938 0.429738 
-0.788158 -0.288101 0.544586 
-0.733465 -0.212348 0.645944 
-0.682428 -0.115038 0.721645 
-0.637221 -0.0040672 0.770518 
-0.601674 0.120844 0.789921 
-0.580687 0.261949 0.772264 
-0.568934 0.416174 0.712288 
-0.562104 0.581349 0.592609 
-0.552185 0.735555 0.398858 
-0.527203 0.841127 0.134515 
-0.467836 0.875083 -0.132184 
-0.388638 0.818795 -0.425602 
-0.305137 0.705151 -0.642809 
-0.22741 0.564423 -0.796033 
-0.172749 0.436287 -0.885156 
-0.136703 0.33736 -0.93321 
-0.114226 0.266381 -0.958687 
-0.101155 0.214072 -0.973189 
-0.0939817 0.168606 -0.982943 
-0.0860583 0.111509 -0.991809 
-0.073905 0.0513423 -0.997355 
-0.0583482 0.0209335 -0.999033 
-0.0417517 0.0125172 -1.00022 
-0.0276597 -0.00950081 -1.00085 
-0.0210413 -0.0258449 -1.00023 
-0.0178147 -0.0237039 -1.00058 
-0.0131694 -0.0343418 -1.00065 
-0.0114014 -0.0594579 -0.998557 
-0.00556383 -0.0781676 -0.997672 
-0.00278041 -0.098817 -0.995803 
-0.000790535 -0.10916 -0.995399 
0.00999665 -0.150203 -0.990138 
0.0230074 -0.184249 -0.983072 
-0.000118104 -0.193938 0.981385 
-0.010911 -0.160749 0.987834 
0.000258176 -0.129276 0.992483 
0.000602378 -0.111675 0.994415 
0.00407284 -0.089251 0.997033 
0.0108792 -0.0689439 0.998406 
0.0109374 -0.0419576 0.999917 
0.0158642 -0.0205824 1.00096 
0.0159439 -0.0209631 1.00012 
0.0207767 -0.00753539 1.00059 
0.0308965 0.0187628 1.00035 
0.0420375 0.0355448 0.999305 
0.0501024 0.0787351 0.996833 
0.0512248 0.156301 0.9879 
0.042414 0.230208 0.973742 
0.0216024 0.292751 0.957484 
-0.0119122 0.368063 0.931265 
-0.0580358 0.472489 0.881139 
-0.114629 0.609322 0.786728 
-0.173363 0.766096 0.622116 
-0.225557 0.903175 0.371317 
-0.265207 0.965178 0.0557574 
-0.287948 0.92386 -0.263559 
-0.295005 0.800696 -0.527351 
-0.29527 0.642195 -0.710814 
-0.29979 0.489529 -0.820593 
-0.314129 0.361184 -0.878958 
-0.335159 0.255645 -0.90704 
-0.361396 0.171281 -0.916366 
-0.390798 0.103112 -0.915001 
-0.420023 0.043916 -0.90786 
-0.444739 -0.00688961 -0.897574 
-0.463771 -0.0502676 -0.886537 
-0.480974 -0.0903016 -0.873998 
-0.501639 -0.130132 -0.856868 
-0.53234 -0.173224 -0.83006 
-0.578042 -0.221244 -0.786891 
-0.630088 -0.270972 -0.72907 
-0.687669 -0.320453 -0.652754 
-0.748279 -0.361234 -0.557632 
-0.805847 -0.38882 -0.44776 
-0.854207 -0.402617 -0.330135 
-0.889726 -0.406153 -0.209634 
-0.911897 -0.401466 -0.0881658 
-0.921862 -0.386002 0.0394795 
-0.917588 -0.354683 0.17901 
-0.898121 -0.299177 0.320985 
-0.869149 -0.21458 0.444547 
-0.836313 -0.105216 0.537849 
-0.801393 0.0215834 0.598138 
-0.771226 0.164993 0.616087 
-0.74866 0.321567 0.582661 
-0.725518 0.481179 0.496523 
-0.696712 0.632893 0.343702 
-0.653936 0.750733 0.111595 
-0.584835 0.795184 -0.172981 
-0.483269 0.786035 -0.38999 
-0.381442 0.676751 -0.632918 
-0.279443 0.557617 -0.784143 
-0.211623 0.432695 -0.878325 
-0.167944 0.334596 -0.928706 
-0.142157 0.265767 -0.954623 
-0.125886 0.220674 -0.968223 
-0.115805 0.182744 -0.977414 
-0.105985 0.140119 -0.985641 
-0.0910932 0.0785698 -0.99399 
-0.0728897 0.0253898 -0.997807 
-0.0553582 0.00822354 -0.999188 
-0.0391755 0.00167786 -1.00018 
-0.0244459 -0.0184523 -1.00047 
-0.0148273 -0.0281919 -0.999976 
-0.0146406 -0.0241468 -1.00081 
-0.0132903 -0.0406957 -0.999963 
-0.00382445 -0.064042 -0.9988 
-0.00280079 -0.0862626 -0.997338 
-0.0048021 -0.108279 -0.995109 
0.00394447 -0.144514 -0.989968 
0.00795424 -0.161669 -0.988001 
0.00257806 -0.19408 -0.981195 
0.0246922 -0.182844 0.983267 
0.00519169 -0.162812 0.987419 
0.0161311 -0.126992 0.992839 
0.0152637 -0.109866 0.994483 
0.0203486 -0.0919044 0.996312 
0.0240349 -0.0765416 0.997402 
0.0252571 -0.037063 1.0003 
0.0311513 -0.0238275 1.00031 
0.0388574 -0.0265135 0.999394 
0.0483552 -0.0047229 0.999702 
0.0540075 0.0175747 0.999365 
0.0577727 0.0439205 0.998198 
0.0620539 0.115061 0.992724 
0.0631882 0.20228 0.978506 
0.0557565 0.275076 0.960935 
0.0365458 0.34435 0.939324 
0.0059893 0.433436 0.902589 
-0.0350315 0.554146 0.833262 
-0.0782453 0.706214 0.705801 
-0.116661 0.863196 0.494953 
-0.147945 0.97049 0.201494 
-0.170219 0.980037 -0.127329 
-0.180349 0.891949 -0.424006 
-0.182491 0.744447 -0.648735 
-0.185303 0.583638 -0.794522 
-0.196058 0.444351 -0.876543 
-0.214072 0.331575 -0.919999 
-0.235337 0.240599 -0.941858 