# vtk DataFile Version 3.0 
Exported using Morpho https://github.com/Morpho-lang/morpho 
ASCII 
DATASET UNSTRUCTURED_GRID 

POINTS 2054 float 
-8.48528 -2.82843 0 
-8.20636 -2.82843 0 
-7.94054 -2.82843 0 
-7.6904 -2.82843 0 
-7.45357 -2.82843 0 
-7.22694 -2.82843 0 
-7.00705 -2.82843 0 
-6.79111 -2.82843 0 
-6.57731 -2.82843 0 
-6.36453 -2.82843 0 
-6.15219 -2.82843 0 
-5.94 -2.82843 0 
-5.72786 -2.82843 0 
-5.51573 -2.82843 0 
-5.3036 -2.82843 0 
-5.09147 -2.82843 0 
-4.87933 -2.82843 0 
-4.6672 -2.82843 0 
-4.45507 -2.82843 0 
-4.24294 -2.82843 0 
-4.03081 -2.82843 0 
-3.81867 -2.82843 0 
-3.60654 -2.82843 0 
-3.39441 -2.82843 0 
-3.18228 -2.82843 0 
-2.97015 -2.82843 0 
-2.75801 -2.82843 0 
-2.54588 -2.82843 0 
-2.33375 -2.82843 0 
-2.12162 -2.82843 0 
-1.90949 -2.82843 0 
-1.69735 -2.82843 0 
-1.48522 -2.82843 0 
-1.27309 -2.82843 0 
-1.06096 -2.82843 0 
-0.848825 -2.82843 0 
-0.636693 -2.82843 0 
-0.424561 -2.82843 0 
-0.212429 -2.82843 0 
-0.000296761 -2.82843 0 
0.211835 -2.82843 0 
0.423967 -2.82843 0 
0.636099 -2.82843 0 
0.848231 -2.82843 0 
1.06036 -2.82843 0 
1.2725 -2.82843 0 
1.48463 -2.82843 0 
1.69676 -2.82843 0 
1.90889 -2.82843 0 
2.12102 -2.82843 0 
2.33316 -2.82843 0 
2.54529 -2.82843 0 
2.75742 -2.82843 0 
2.96955 -2.82843 0 
3.18168 -2.82843 0 
3.39382 -2.82843 0 
3.60595 -2.82843 0 
3.81808 -2.82843 0 
4.03021 -2.82843 0 
4.24234 -2.82843 0 
4.45448 -2.82843 0 
4.66661 -2.82843 0 
4.87874 -2.82843 0 
5.09087 -2.82843 0 
5.303 -2.82843 0 
5.51514 -2.82843 0 
5.72727 -2.82843 0 
5.93941 -2.82843 0 
6.15159 -2.82843 0 
6.36393 -2.82843 0 
6.57672 -2.82843 0 
6.79055 -2.82843 0 
7.00652 -2.82843 0 
7.22647 -2.82843 0 
7.45313 -2.82843 0 
7.69005 -2.82843 0 
7.9403 -2.82843 0 
8.20621 -2.82843 0 
8.48528 -2.82843 0 
-8.48528 -2.5495 0 
-8.30526 -2.64845 0 
-8.07062 -2.59995 0 
-7.83904 -2.59637 0 
-7.59595 -2.59733 0 
-7.36578 -2.59177 0 
-7.13796 -2.5933 0 
-6.90908 -2.59428 0 
-6.68421 -2.5916 0 
-6.46568 -2.58832 0 
-6.24926 -2.58859 0 
-6.03358 -2.58941 0 
-5.81848 -2.59013 0 
-5.60402 -2.59075 0 
-5.39005 -2.59135 0 
-5.17642 -2.59186 0 
-4.96311 -2.59223 0 
-4.75009 -2.59242 0 
-4.53736 -2.59244 0 
-4.32497 -2.59236 0 
-4.1128 -2.59242 0 
-3.90059 -2.59259 0 
-3.68835 -2.5926 0 
-3.47627 -2.59248 0 
-3.26428 -2.59251 0 
-3.05216 -2.59271 0 
-2.83986 -2.59283 0 
-2.62755 -2.59274 0 
-2.41539 -2.59253 0 
-2.20336 -2.59238 0 
-1.99135 -2.59238 0 
-1.77924 -2.59246 0 
-1.56704 -2.59244 0 
-1.35495 -2.59215 0 
-1.14319 -2.59183 0 
-0.931581 -2.59195 0 
-0.719663 -2.59256 0 
-0.507197 -2.59324 0 
-0.294425 -2.59354 0 
-0.0817689 -2.59344 0 
0.130587 -2.59325 0 
0.342804 -2.59322 0 
0.555051 -2.59322 0 
0.767233 -2.59303 0 
0.97919 -2.59278 0 
1.19107 -2.59278 0 
1.40311 -2.59289 0 
1.61524 -2.59286 0 
1.82732 -2.59279 0 
2.03943 -2.59281 0 
2.25163 -2.5928 0 
2.46381 -2.59266 0 
2.67591 -2.59254 0 
2.88801 -2.59237 0 
3.10001 -2.59226 0 
3.31203 -2.59216 0 
3.52402 -2.59207 0 
3.73601 -2.59208 0 
3.94815 -2.59221 0 
4.16052 -2.5923 0 
4.37309 -2.59232 0 
4.58593 -2.59227 0 
4.79921 -2.5922 0 
5.01319 -2.59212 0 
5.22833 -2.5921 0 
5.44534 -2.59239 0 
5.6657 -2.59346 0 
5.89185 -2.59569 0 
6.12685 -2.59429 0 
6.36853 -2.59189 0 
6.6108 -2.57787 0 
6.84491 -2.61411 0 
7.08804 -2.58476 0 
7.34858 -2.60369 0 
7.58803 -2.59327 0 
7.83059 -2.59326 0 
8.06387 -2.59199 0 
8.30038 -2.64348 0 
8.48528 -2.54936 0 
-8.48528 -2.28369 0 
-8.25701 -2.4138 0 
-8.01078 -2.35334 0 
-7.73666 -2.37963 0 
-7.49744 -2.35565 0 
-7.26898 -2.35831 0 
-7.03324 -2.36676 0 
-6.7997 -2.36275 0 
-6.5773 -2.35166 0 
-6.35808 -2.3495 0 
-6.14038 -2.35058 0 
-5.92336 -2.35185 0 
-5.70723 -2.35272 0 
-5.49199 -2.35362 0 
-5.27734 -2.35447 0 
-5.0632 -2.35505 0 
-4.84958 -2.35534 0 
-4.63641 -2.35533 0 
-4.42363 -2.35504 0 
-4.21126 -2.35485 0 
-3.99909 -2.35513 0 
-3.78684 -2.3554 0 
-3.57461 -2.35516 0 
-3.36263 -2.35498 0 
-3.15066 -2.35537 0 
-2.93843 -2.35586 0 
-2.72604 -2.35589 0 
-2.51374 -2.35551 0 
-2.30162 -2.35509 0 
-2.08964 -2.35496 0 
-1.87761 -2.35518 0 
-1.66544 -2.3554 0 
-1.45322 -2.35518 0 
-1.2412 -2.35438 0 
-1.02967 -2.35407 0 
-0.818162 -2.35505 0 
-0.606054 -2.35676 0 
-0.393243 -2.3579 0 
-0.180256 -2.35789 0 
0.0323765 -2.35727 0 
0.244686 -2.35692 0 
0.456926 -2.35692 0 
0.669206 -2.35667 0 
0.881318 -2.35598 0 
1.09315 -2.35559 0 
1.305 -2.35583 0 
1.51709 -2.35595 0 
1.72919 -2.35571 0 
1.9412 -2.35566 0 
2.15334 -2.3558 0 
2.36559 -2.3556 0 
2.57772 -2.35522 0 
2.78976 -2.35507 0 
3.0019 -2.35461 0 
3.21373 -2.35451 0 
3.42571 -2.35439 0 
3.63769 -2.35431 0 
3.84965 -2.35453 0 
4.06183 -2.35491 0 
4.27435 -2.35507 0 
4.48707 -2.35507 0 
4.70017 -2.35506 0 
4.91376 -2.35498 0 
5.12819 -2.35502 0 
5.34378 -2.35528 0 
5.56106 -2.35662 0 
5.78097 -2.35971 0 
6.00401 -2.36251 0 
6.2308 -2.3624 0 
6.45748 -2.35551 0 
6.68075 -2.33423 0 
6.88797 -2.39744 0 
7.05313 -2.27289 0 
7.24377 -2.40237 0 
7.48542 -2.36016 0 
7.73055 -2.36599 0 
7.99177 -2.33552 0 
8.24864 -2.40698 0 
8.48528 -2.28345 0 
-8.48528 -2.03355 0 
-8.25312 -2.18214 0 
-8.03669 -2.07913 0 
-7.83956 -2.18231 0 
-7.6106 -2.12852 0 
-7.38852 -2.10959 0 
-7.16268 -2.14097 0 
-6.9229 -2.1435 0 
-6.70119 -2.12055 0 
-6.48111 -2.11285 0 
-6.26282 -2.11284 0 
-6.045 -2.1151 0 
-5.82775 -2.11658 0 
-5.61153 -2.11776 0 
-5.3962 -2.1192 0 
-5.18144 -2.1203 0 
-4.96732 -2.12084 0 
-4.75387 -2.12105 0 
-4.54086 -2.12091 0 
-4.32822 -2.12045 0 
-4.11596 -2.12045 0 
-3.90382 -2.12107 0 
-3.69156 -2.12116 0 
-3.47938 -2.12058 0 
-3.26746 -2.12068 0 
-3.05542 -2.12154 0 
-2.84307 -2.12198 0 
-2.63064 -2.12162 0 
-2.41836 -2.12087 0 
-2.20626 -2.12031 0 
-1.99426 -2.12034 0 
-1.78217 -2.1207 0 
-1.56989 -2.12074 0 
-1.35755 -2.11993 0 
-1.14542 -2.11838 0 
-0.934012 -2.11859 0 
-0.722404 -2.12089 0 
-0.509943 -2.12344 0 
-0.296911 -2.12431 0 
-0.0840921 -2.12359 0 
0.128295 -2.12281 0 
0.340414 -2.12274 0 
0.552564 -2.12288 0 
0.76478 -2.12226 0 
0.976792 -2.1213 0 
1.18855 -2.12128 0 
1.40042 -2.12188 0 
1.61256 -2.12177 0 
1.82458 -2.12141 0 
2.03655 -2.12164 0 
2.24875 -2.12174 0 
2.46099 -2.12114 0 
2.67302 -2.12065 0 
2.88504 -2.12054 0 
3.09728 -2.1194 0 
3.30873 -2.11968 0 
3.52086 -2.1195 0 
3.7329 -2.11938 0 
3.94484 -2.11986 0 
4.15715 -2.12044 0 
4.36983 -2.12035 0 
4.58282 -2.1204 0 
4.79606 -2.12017 0 
5.01004 -2.12012 0 
5.22483 -2.12002 0 
5.44073 -2.12051 0 
5.6582 -2.123 0 
5.8782 -2.12696 0 
6.10217 -2.12971 0 
6.33095 -2.12707 0 
6.567 -2.11601 0 
6.82301 -2.12303 0 
7.06572 -2.04567 0 
7.29733 -2.17484 0 
7.54632 -2.11408 0 
7.79371 -2.13741 0 
8.02274 -2.07453 0 
8.25027 -2.1738 0 
8.48528 -2.0332 0 
-8.48528 -1.79671 0 
-8.25436 -1.93882 0 
-8.01299 -1.83977 0 
-7.78596 -1.953 0 
-7.5297 -1.87194 0 
-7.2756 -1.88722 0 
-7.05707 -1.93544 0 
-6.84369 -1.89677 0 
-6.62219 -1.88079 0 
-6.40169 -1.87606 0 
-6.18206 -1.87854 0 
-5.96274 -1.881 0 
-5.74458 -1.88208 0 
-5.52796 -1.88344 0 
-5.31232 -1.88506 0 
-5.09736 -1.88569 0 
-4.88338 -1.88564 0 
-4.67019 -1.88555 0 
-4.45737 -1.88507 0 
-4.24485 -1.88447 0 
-4.03271 -1.88482 0 
-3.82061 -1.88562 0 
-3.60832 -1.88529 0 
-3.39617 -1.88464 0 
-3.18427 -1.88547 0 
-2.97209 -1.88672 0 
-2.7596 -1.88684 0 
-2.54714 -1.88601 0 
-2.33483 -1.88505 0 
-2.12268 -1.8846 0 
-1.91058 -1.885 0 
-1.69824 -1.88561 0 
-1.48561 -1.88547 0 
-1.27286 -1.88413 0 
-1.06032 -1.88216 0 
-0.848858 -1.8839 0 
-0.636875 -1.88781 0 
-0.424169 -1.89034 0 
-0.211518 -1.89004 0 
0.000731944 -1.88866 0 
0.21257 -1.88788 0 
0.424308 -1.88807 0 
0.636257 -1.88793 0 
0.848362 -1.88664 0 
1.06025 -1.88556 0 
1.27191 -1.88605 0 
1.48381 -1.88664 0 
1.69595 -1.886 0 
1.90782 -1.88577 0 
2.11974 -1.88637 0 
2.33202 -1.88609 0 
2.54419 -1.88502 0 
2.75607 -1.88472 0 
2.96812 -1.88462 0 
3.18055 -1.88217 0 
3.39117 -1.88415 0 
3.60398 -1.8838 0 
3.81618 -1.88366 0 
4.02827 -1.88469 0 
4.24071 -1.88523 0 
4.4544 -1.88509 0 
4.66716 -1.88476 0 
4.88099 -1.88493 0 
5.09545 -1.88466 0 
5.31057 -1.88453 0 
5.52653 -1.88564 0 
5.7436 -1.88981 0 
5.96352 -1.89563 0 
6.18733 -1.89813 0 
6.41543 -1.89522 0 
6.65059 -1.89622 0 
6.87542 -1.86913 0 
7.11122 -1.81621 0 
7.31223 -1.94975 0 
7.53264 -1.87683 0 
7.77077 -1.89068 0 
8.01717 -1.8297 0 
8.25014 -1.93148 0 
8.48528 -1.79628 0 
-8.48528 -1.57009 0 
-8.24868 -1.70836 0 
-8.015 -1.61096 0 
-7.76734 -1.73071 0 
-7.54593 -1.61782 0 
-7.32306 -1.66278 0 
-7.05152 -1.7082 0 
-6.79786 -1.66675 0 
-6.56099 -1.64764 0 
-6.33267 -1.64541 0 
-6.10856 -1.64921 0 
-5.88638 -1.65073 0 
-5.66697 -1.65153 0 
-5.44986 -1.65353 0 
-5.23379 -1.65525 0 
-5.01882 -1.6551 0 
-4.80519 -1.6548 0 
-4.59235 -1.65478 0 
-4.37976 -1.65422 0 
-4.16737 -1.65386 0 
-3.95537 -1.65471 0 
-3.74326 -1.6554 0 
-3.5309 -1.65455 0 
-3.31876 -1.65426 0 
-3.10682 -1.65593 0 
-2.89443 -1.65705 0 
-2.68177 -1.65644 0 
-2.46924 -1.65516 0 
-2.25682 -1.65408 0 
-2.04447 -1.65386 0 
-1.83202 -1.65455 0 
-1.61911 -1.65506 0 
-1.40572 -1.65429 0 
-1.19212 -1.65207 0 
-0.97885 -1.64982 0 
-0.767325 -1.65372 0 
-0.555434 -1.6581 0 
-0.343588 -1.65935 0 
-0.132061 -1.65818 0 
0.0792288 -1.65687 0 
0.290417 -1.65682 0 
0.501823 -1.6575 0 
0.713729 -1.65709 0 
0.925861 -1.65545 0 
1.13768 -1.65488 0 
1.34929 -1.65604 0 
1.56128 -1.6563 0 
1.77337 -1.65516 0 
1.985 -1.65561 0 
2.19698 -1.65642 0 
2.40939 -1.65525 0 
2.62143 -1.65394 0 
2.83323 -1.65414 0 
3.04553 -1.65355 0 
3.25842 -1.64868 0 
3.46746 -1.65522 0 
3.68272 -1.65284 0 
3.89574 -1.65288 0 
4.10731 -1.65378 0 
4.32287 -1.65565 0 
4.53627 -1.65249 0 
4.74932 -1.65397 0 
4.96428 -1.65355 0 
5.17935 -1.65257 0 
5.3944 -1.65202 0 
5.60927 -1.65354 0 
5.82513 -1.66019 0 
6.04295 -1.66711 0 
6.26383 -1.66843 0 
6.48537 -1.66776 0 
6.70098 -1.65646 0 
6.91299 -1.6206 0 
7.11709 -1.6046 0 
7.3526 -1.69716 0 
7.60698 -1.65764 0 
7.8325 -1.64214 0 
8.05985 -1.58842 0 
8.2608 -1.69223 0 
8.48528 -1.56961 0 
-8.48528 -1.35019 0 
-8.24958 -1.48044 0 
-8.0219 -1.3751 0 
-7.79713 -1.50391 0 
-7.58956 -1.39834 0 
-7.36199 -1.38754 0 
-7.16079 -1.49923 0 
-6.93764 -1.46284 0 
[...]
POINT_DATA 2054 
VECTORS vectors float
0.0213022 -0.0385454 0.999253 
0.0386434 -0.00845857 1.00003 
0.0341746 -0.00563139 0.999864 
0.0376025 -0.00753636 0.999357 
0.0265802 -0.000956392 0.999692 
0.0238487 0.00971077 0.999672 
0.0221239 0.0209182 0.999543 
0.0215815 0.0298653 0.999348 
0.0219586 0.0349492 0.999153 
0.021764 0.0414164 0.998906 
0.0204439 0.057289 0.998167 
0.0186175 0.0853448 0.996191 
0.0201004 0.119914 0.992594 
0.0203772 0.155604 0.987617 
0.0176976 0.192202 0.981192 
0.0150566 0.233129 0.972326 
0.0134804 0.275583 0.961182 
0.0133055 0.312013 0.949988 
0.0114951 0.335665 0.94193 
0.00908008 0.342436 0.939524 
0.00738409 0.330906 0.943655 
0.00512927 0.299641 0.954051 
0.00247026 0.250751 0.96806 
0.000521457 0.191734 0.981457 
-0.00125839 0.13312 0.991108 
-0.00264208 0.0825551 0.996596 
-0.0020745 0.0424453 0.999113 
-0.00126726 0.0135921 0.999923 
-0.000996405 -0.00488274 1 
-1.05123e-05 -0.0158738 0.999887 
0.00122018 -0.0231289 0.999741 
0.00230589 -0.0287375 0.999595 
0.00308909 -0.0325511 0.999482 
0.00356768 -0.0337745 0.999441 
0.00430232 -0.0326539 0.999471 
0.00533135 -0.0318263 0.99949 
0.00638904 -0.0346055 0.99939 
0.00682882 -0.0414734 0.999125 
0.00627259 -0.0512179 0.998676 
0.00613052 -0.0642796 0.997922 
0.00717879 -0.0815721 0.996655 
0.00730379 -0.101312 0.994849 
0.00700302 -0.117728 0.993048 
0.00832441 -0.124577 0.992203 
0.00913325 -0.120346 0.992724 
0.0115808 -0.105501 0.99438 
0.0137866 -0.0788998 0.996795 
0.01218 -0.0396644 0.999139 
0.0154227 0.0124956 0.999798 
0.0179428 0.0767667 0.996877 
0.0150577 0.15006 0.988567 
0.0136356 0.232508 0.972533 
0.0122008 0.326501 0.94517 
0.00980306 0.431724 0.902016 
0.00743974 0.547238 0.837016 
0.00539103 0.670624 0.741839 
0.00435759 0.795161 0.606418 
0.00467305 0.905515 0.424299 
0.00247297 0.980277 0.197606 
-0.00296842 0.998279 -0.0585904 
-0.00618716 0.948767 -0.315936 
-0.0065879 0.839516 -0.543303 
-0.00790549 0.695675 -0.718314 
-0.0110859 0.54765 -0.836633 
-0.0142981 0.417105 -0.908752 
-0.0180893 0.3098 -0.950648 
-0.0187445 0.221934 -0.974893 
-0.0188444 0.151729 -0.988247 
-0.0210924 0.100899 -0.99468 
-0.0203774 0.0701111 -0.997326 
-0.0216071 0.0526731 -0.998386 
-0.0211656 0.0397517 -0.999013 
-0.0240149 0.025016 -0.999389 
-0.024621 0.01143 -0.99962 
-0.0248005 -0.000192774 -0.999737 
-0.0354867 -0.00754037 -0.999459 
-0.0300692 -0.00563309 -0.999985 
-0.0373305 -0.00999237 -0.999912 
-0.0196944 -0.0408354 -0.999166 
0.00543074 -0.0147433 0.99991 
0.0300317 -0.021784 0.999388 
0.00912274 -0.00846668 0.999949 
0.018702 -0.00441129 0.999842 
0.021937 -0.00326424 0.999774 
0.0243882 0.00639364 0.999697 
0.0243122 0.0164323 0.99958 
0.023531 0.0279042 0.999347 
0.01877 0.0372156 0.999145 
0.0138192 0.0442479 0.998932 
0.0106061 0.0568991 0.998332 
0.00725444 0.0801378 0.996764 
0.000350277 0.113034 0.9936 
-0.0112252 0.150085 0.988624 
-0.0261525 0.189691 0.981508 
-0.046071 0.232785 0.971447 
-0.0734964 0.278351 0.957676 
-0.110277 0.321235 0.940575 
-0.156251 0.353895 0.922166 
-0.209994 0.369994 0.905021 
-0.268435 0.365513 0.891289 
-0.325969 0.338267 0.882814 
-0.375477 0.289826 0.880368 
-0.410311 0.227332 0.883166 
-0.427364 0.161483 0.889544 
-0.42863 0.102041 0.897698 
-0.419805 0.0543323 0.905986 
-0.406406 0.0193778 0.913487 
-0.391726 -0.00419077 0.920074 
-0.377454 -0.0190781 0.925834 
-0.364491 -0.0286936 0.930768 
-0.352484 -0.0358054 0.935139 
-0.340412 -0.0411364 0.939387 
-0.328572 -0.0440087 0.943467 
-0.317881 -0.0442249 0.947112 
-0.308564 -0.0436085 0.950214 
-0.30055 -0.0446974 0.952727 
-0.293767 -0.0489853 0.95463 
-0.28756 -0.0570989 0.956068 
-0.280223 -0.0688668 0.957468 
-0.270825 -0.0845944 0.958909 
-0.25799 -0.102889 0.960661 
-0.240019 -0.119861 0.963351 
-0.217254 -0.130481 0.96737 
-0.192044 -0.130428 0.972703 
-0.167177 -0.119454 0.978691 
-0.143793 -0.0978095 0.984786 
-0.121388 -0.064195 0.990544 
-0.101613 -0.0185666 0.994662 
-0.0851836 0.0381414 0.995644 
-0.0700012 0.105042 0.992016 
-0.0556251 0.181834 0.981781 
-0.0429985 0.270155 0.961893 
-0.0328138 0.370342 0.928356 
-0.0246858 0.482241 0.875729 
-0.0186312 0.604842 0.79616 
-0.0150985 0.733553 0.679487 
-0.0142803 0.855942 0.516889 
-0.0156425 0.951944 0.305883 
-0.018452 0.998267 0.0559664 
-0.0214171 0.977898 -0.208027 
-0.02271 0.891281 -0.452912 
-0.0227263 0.75843 -0.651381 
-0.0227116 0.609145 -0.792754 
-0.0226687 0.468632 -0.883122 
-0.0223184 0.348943 -0.936901 
-0.0234952 0.250768 -0.967778 
-0.0251379 0.171421 -0.984881 
-0.0238555 0.111942 -0.993433 
-0.0213423 0.0745597 -0.996993 
-0.0241193 0.0550111 -0.998206 
-0.0290542 0.0384874 -0.998848 
-0.0262101 0.0230854 -0.999399 
-0.0255133 0.00746891 -0.99966 
-0.0239603 -0.00198833 -0.999729 
-0.0185406 -0.00286128 -0.999851 
-0.00902101 -0.0101535 -0.999941 
-0.0312076 -0.0207951 -0.999359 
-0.00518263 -0.0176401 -0.999855 
0.00437435 -0.0616707 0.997992 
0.0135643 -0.0202072 0.999709 
-0.00387473 -0.00280344 1.00001 
0.0124433 -0.000150998 0.999938 
0.00545141 0.00603262 0.999984 
0.00394334 0.0195551 0.999814 
0.00525334 0.0259336 0.999668 
0.00331271 0.0379564 0.999292 
-0.00136579 0.0477954 0.998866 
-0.00694441 0.0604353 0.998154 
-0.0153918 0.0807887 0.996621 
-0.0268517 0.111075 0.993462 
-0.0421083 0.149118 0.98794 
-0.0627111 0.193848 0.979042 
-0.0917149 0.245459 0.965072 
-0.134197 0.302625 0.943627 
-0.193256 0.361557 0.912116 
-0.269725 0.413969 0.869434 
-0.362221 0.449503 0.816573 
-0.464878 0.459148 0.757048 
-0.567374 0.437122 0.697893 
-0.658346 0.383855 0.647509 
-0.727966 0.307656 0.612727 
-0.770103 0.222047 0.598031 
-0.785069 0.141156 0.603104 
-0.779594 0.0749836 0.621775 
-0.76285 0.0265948 0.646028 
-0.742012 -0.00590097 0.670361 
-0.721115 -0.0267174 0.6923 
-0.701446 -0.0406896 0.711561 
-0.682462 -0.0512559 0.729125 
-0.66341 -0.0597263 0.745875 
-0.644354 -0.0657231 0.76191 
-0.62636 -0.0680838 0.776569 
-0.609883 -0.0673033 0.789639 
-0.595419 -0.0658938 0.800716 
-0.583336 -0.0667341 0.809493 
-0.573485 -0.0721827 0.816042 
-0.563845 -0.083098 0.821701 
-0.550871 -0.0988797 0.82872 
-0.531677 -0.118386 0.83864 
-0.50431 -0.13792 0.852448 
-0.468572 -0.153245 0.87005 
-0.426888 -0.159557 0.890141 
-0.381899 -0.154568 0.911215 
-0.336045 -0.137405 0.931796 
-0.292698 -0.108491 0.950052 
-0.253356 -0.0684991 0.964962 
-0.217464 -0.0174661 0.975928 
-0.185086 0.0441795 0.981748 
-0.156117 0.115101 0.981036 
-0.129764 0.196824 0.971847 
-0.10653 0.291004 0.950811 
-0.0871162 0.397903 0.913321 
-0.0714138 0.517741 0.852586 
-0.0602127 0.648548 0.758813 
-0.053736 0.781486 0.621619 
-0.0510419 0.899284 0.43438 
-0.0511388 0.978666 0.198987 
-0.0522094 0.996377 -0.0672174 
-0.0514817 0.942236 -0.331011 
-0.0477483 0.828326 -0.558239 
-0.0422074 0.682521 -0.729671 
-0.0352982 0.534379 -0.844531 
-0.0265149 0.403316 -0.914701 
-0.0181592 0.295448 -0.955211 
-0.0129399 0.210225 -0.977586 
-0.011107 0.145104 -0.989366 
-0.011797 0.0986979 -0.995055 
-0.0109763 0.0701901 -0.997479 
-0.0106777 0.0527589 -0.998564 
-0.0146177 0.0371783 -0.999221 
-0.00830221 0.0299797 -0.999525 
-0.012238 0.019252 -0.999756 
-0.00805126 0.00703425 -0.999962 
-0.010857 0.00109655 -0.999959 
0.00437234 -0.0013929 -1.00002 
-0.0136187 -0.0197252 -0.999721 
-0.00490365 -0.0616891 -0.997984 
-0.00401166 -0.0480564 0.998751 
0.00637459 -0.016523 0.999853 
0.00491252 -0.000693148 0.999998 
0.00906594 0.00337783 0.999959 
0.0103263 0.00821733 0.999914 
0.00818207 0.0207921 0.999753 
0.0068201 0.0271241 0.999613 
0.00368298 0.0387554 0.99925 
-0.00155994 0.0515418 0.998677 
-0.00886704 0.0624559 0.998012 
-0.0184907 0.0800104 0.996626 
-0.0303671 0.107595 0.993737 
-0.0464114 0.145522 0.988276 
-0.0696311 0.193421 0.978653 
-0.101906 0.252735 0.962163 
-0.148002 0.322841 0.934818 
-0.213549 0.401429 0.890654 
-0.301158 0.480703 0.823554 
-0.410334 0.546226 0.730258 
-0.534706 0.581829 0.612845 
-0.660971 0.574443 0.482856 
-0.774398 0.52061 0.359573 
-0.864387 0.429892 0.260852 
-0.926057 0.320425 0.199377 
-0.960568 0.211781 0.180145 
-0.973404 0.118807 0.195864 
-0.971585 0.0483451 0.231707 
-0.961567 4.32921e-05 0.274586 
-0.948187 -0.0308811 0.316215 
-0.934017 -0.051187 0.353539 
-0.919518 -0.0665313 0.387375 
-0.904131 -0.079739 0.419755 
-0.887236 -0.0906937 0.452326 
-0.869492 -0.0974709 0.484254 
-0.852456 -0.0988202 0.513391 
-0.836262 -0.0957967 0.539908 
-0.821957 -0.0920276 0.562073 
-0.810391 -0.0918298 0.578659 
-0.801143 -0.0984724 0.590331 
-0.790735 -0.113359 0.601585 
-0.774318 -0.135163 0.618204 
-0.748038 -0.160308 0.644014 
-0.710233 -0.18372 0.679586 
-0.66214 -0.199529 0.722349 
-0.606529 -0.203482 0.768604 
-0.546426 -0.193227 0.814933 
-0.486389 -0.169315 0.857196 
-0.429498 -0.134743 0.892972 
-0.376446 -0.0898446 0.922086 
-0.326826 -0.0346383 0.944469 
-0.281081 0.030302 0.959232 
-0.240344 0.106116 0.964902 
-0.204524 0.193713 0.959538 
-0.174377 0.29437 0.939685 
-0.150894 0.409664 0.899705 
-0.133146 0.539139 0.831653 
-0.12198 0.678619 0.724306 
-0.116496 0.815507 0.566905 
-0.114506 0.928234 0.353933 
-0.113224 0.989115 0.0939875 
-0.109365 0.976662 -0.184891 
-0.10019 0.890723 -0.4434 
-0.0857332 0.755085 -0.650027 
-0.0686237 0.602902 -0.794885 
-0.0515709 0.461297 -0.885768 
-0.0361286 0.342416 -0.938873 
-0.0247194 0.247929 -0.968479 
-0.0171697 0.176197 -0.984216 
-0.0128586 0.122584 -0.99238 
-0.0120201 0.0861203 -0.996217 
-0.0110042 0.0642653 -0.997877 
-0.0118808 0.0466753 -0.998848 
-0.0119212 0.0330237 -0.999386 
-0.00780038 0.0222727 -0.999718 
-0.0115563 0.010393 -0.999882 
-0.0126064 0.00139389 -0.999932 
-0.00590392 0.00123022 -0.999994 
-0.00509921 -0.0159636 -0.999871 
0.00485545 -0.0495669 -0.998664 
0.000668264 -0.0411224 0.999147 
0.00267724 -0.0174577 0.999846 
0.0117044 0.0063228 0.999926 
0.0119111 0.00724061 0.999903 
0.00497789 0.0176722 0.99984 
0.0025381 0.029625 0.999565 
0.00018175 0.0374889 0.999297 
-0.00748986 0.0527305 0.998586 
-0.0157918 0.0643649 0.997807 
-0.0257362 0.0781049 0.996618 
-0.0371403 0.101517 0.994147 
-0.0515391 0.137693 0.989143 
-0.0729611 0.186123 0.979824 
-0.102888 0.248853 0.96307 
-0.14407 0.327809 0.933703 
-0.203115 0.422566 0.883289 
-0.284484 0.527597 0.800452 
-0.388093 0.626198 0.676217 
-0.507836 0.694805 0.509267 
-0.62961 0.711281 0.312524 
-0.737279 0.665696 0.115197 
-0.821517 0.567813 -0.0520049 
-0.881431 0.440561 -0.170266 
-0.922398 0.308767 -0.232057 
-0.951228 0.191532 -0.241847 
-0.971489 0.0982744 -0.215795 
-0.984618 0.0305884 -0.172083 
-0.99223 -0.0153472 -0.12354 
-0.995997 -0.0462535 -0.0765535 
-0.997086 -0.0688653 -0.0328689 
-0.996084 -0.0879674 0.00927105 
-0.99306 -0.105157 0.0527829 
-0.98809 -0.118591 0.0981422 
-0.981739 -0.125602 0.142946 
-0.974975 -0.125319 0.18367 
-0.967799 -0.119411 0.221624 
-0.960948 -0.113173 0.252541 
-0.955412 -0.112569 0.272991 
-0.950462 -0.121229 0.286241 
-0.942772 -0.140896 0.302219 
-0.928461 -0.169655 0.33043 
-0.904449 -0.201574 0.375967 
-0.869232 -0.230117 0.437607 
-0.823643 -0.247967 0.510045 
-0.769043 -0.250934 0.587899 
-0.707663 -0.238249 0.665184 
-0.643896 -0.212097 0.73514 
-0.580895 -0.174691 0.795028 
-0.518716 -0.126716 0.845527 
-0.457375 -0.0683097 0.886677 
-0.399939 0.0020544 0.916575 
-0.348387 0.0846536 0.933558 
-0.303455 0.180326 0.935662 
-0.266913 0.291182 0.918714 
-0.240726 0.417843 0.876079 
-0.221791 0.558226 0.799516 
-0.211737 0.707025 0.674759 
-0.206684 0.845475 0.492398 
-0.201537 0.946674 0.25138 
-0.19141 0.98105 -0.0301952 
-0.172444 0.933384 -0.314771 
-0.144764 0.817923 -0.556848 
-0.112267 0.667949 -0.735718 
-0.0807415 0.517588 -0.851834 
-0.0536335 0.388205 -0.920027 
-0.0325197 0.284911 -0.958016 
-0.0191268 0.206026 -0.978372 
-0.0112041 0.14741 -0.989021 
-0.0060904 0.104122 -0.994553 
-0.00464999 0.0768959 -0.997034 
-0.00433454 0.0614474 -0.998107 
-0.00455941 0.0486173 -0.998813 
-0.0046616 0.0351729 -0.999372 
-0.0114556 0.0249562 -0.99963 
-0.00967819 0.0146126 -0.999853 
-0.0121529 0.0063424 -0.999905 
-0.0133818 0.00412578 -0.999917 
-0.000940442 -0.0196602 -0.999805 
-0.000263984 -0.0413561 -0.999153 
-0.00157438 -0.0390658 0.999255 
0.00176327 -0.0166416 0.999861 
0.00734974 0.011407 0.999923 
0.00368646 0.011057 0.999935 
-0.000524708 0.0220549 0.999777 
-0.00368612 0.0328738 0.999469 
-0.00957366 0.0453208 0.998928 
-0.018283 0.0630326 0.997848 
-0.0267867 0.0766411 0.996702 
-0.0373607 0.0951614 0.994764 
-0.0505399 0.126936 0.990628 
-0.0682387 0.173419 0.982488 
-0.0928998 0.235542 0.967423 
-0.125795 0.317464 0.939897 
-0.172153 0.420695 0.890726 
-0.2377 0.542924 0.80545 
-0.322943 0.669077 0.669374 
-0.422447 0.770949 0.476644 
-0.523612 0.81802 0.238067 
-0.610865 0.791626 -0.01276 
-0.676305 0.698598 -0.233584 
-0.722093 0.565308 -0.398753 
-0.755476 0.420874 -0.502124 
-0.784976 0.287374 -0.54886 
-0.814966 0.176399 -0.552032 
-0.843841 0.0909031 -0.528865 
-0.869181 0.028695 -0.493689 
-0.890664 -0.0156434 -0.454416 
-0.908573 -0.0485582 -0.414913 
-0.923822 -0.0753056 -0.37536 
-0.937539 -0.0988289 -0.333572 
-0.950103 -0.119221 -0.288295 
-0.961405 -0.133819 -0.240457 
-0.971117 -0.139917 -0.19333 
-0.978926 -0.137467 -0.151071 
-0.985416 -0.129441 -0.110502 
-0.989224 -0.121858 -0.0811948 
-0.990374 -0.121884 -0.0656337 
-0.989531 -0.133628 -0.0545522 
-0.986797 -0.158111 -0.0351292 
-0.981352 -0.192204 0.00312008 
-0.971231 -0.229263 0.0644641 
-0.953957 -0.261835 0.146362 
-0.927838 -0.283079 0.242901 
-0.891777 -0.288888 0.348277 
-0.845829 -0.279069 0.45466 
-0.792446 -0.255806 0.553736 
-0.733708 -0.220388 0.642764 
-0.669083 -0.172324 0.722971 
-0.601865 -0.109916 0.791036 
-0.537478 -0.0331135 0.842663 
-0.478186 0.0588002 0.876319 
-0.426549 0.167136 0.888919 
-0.386082 0.291567 0.875201 
-0.360366 0.431749 0.826896 
-0.338746 0.583695 0.737942 
-0.329611 0.739829 0.58652 
-0.320366 0.871223 0.371926 
-0.303088 0.947231 0.104371 
-0.271259 0.943315 -0.191302 
-0.227965 0.857422 -0.461406 
-0.176877 0.720646 -0.670386 
-0.127354 0.567696 -0.813346 
-0.0848261 0.428896 -0.899374 
-0.051217 0.317478 -0.946889 
-0.0267973 0.232593 -0.972213 
-0.011749 0.169771 -0.985422 
-0.00350854 0.123433 -0.992354 
0.00112518 0.0898678 -0.995959 
0.00267273 0.0710106 -0.997476 
0.00292391 0.0610011 -0.998136 
0.00391215 0.0495243 -0.998765 
0.00346506 0.038127 -0.999266 
-0.00189779 0.0270229 -0.999651 
-0.00323531 0.0120487 -0.999938 
-0.00531094 0.0121233 -0.999911 
-0.0116469 0.002206 -0.999949 
0.000701345 -0.0185755 -0.999827 
0.000307744 -0.041102 -0.999173 
-0.00343389 -0.0395658 0.999228 
-0.000539168 -0.012751 0.999925 
0.004847 0.014512 0.999894 
0.000218548 0.0145998 0.999896 
-0.00263493 0.0255584 0.99969 
-0.00822306 0.0393918 0.999214 
-0.0116207 0.0460407 0.998875 
-0.0189526 0.0615937 0.997923 
-0.0270342 0.0773862 0.996638 
-0.0358303 0.0918017 0.995136 
-0.0468008 0.116835 0.992051 
-0.0605826 0.158271 0.98554 
-0.0793162 0.216789 0.973 
-0.104011 0.296045 0.949503 
-0.137407 0.399562 0.906357 
-0.184172 0.527876 0.829129 
-0.245749 0.671746 0.698864 
-0.318458 0.802565 0.504521 
-0.393333 0.884198 0.252084 
-0.457568 0.888735 -0.0285239 
-0.50343 0.814348 -0.288793 
-0.534111 0.686674 -0.493157 
-0.556367 0.538431 -0.632894 
-0.577457 0.395473 -0.714257 
-0.603388 0.27198 -0.749651 
-0.634781 0.172438 -0.753225 
-0.666593 0.0959911 -0.739235 
-0.69576 0.0383199 -0.71727 
-0.722317 -0.0058466 -0.691555 
-0.746977 -0.0415351 -0.663568 
-0.771064 -0.0720708 -0.632682 
-0.795546 -0.0984184 -0.597869 
-0.820326 -0.119469 -0.559309 
-0.844323 -0.133105 -0.519072 
-0.865718 -0.137737 -0.481238 
-0.883999 -0.13362 -0.448008 
-0.90079 -0.125232 -0.415819 
-0.910052 -0.118704 -0.397143 
-0.913437 -0.120341 -0.388791 
-0.915011 -0.13406 -0.380515 
-0.918833 -0.159565 -0.360966 
-0.926862 -0.194268 -0.321246 
-0.937645 -0.232923 -0.258039 
-0.947625 -0.268039 -0.173725 
-0.953279 -0.293751 -0.0706588 
-0.950766 -0.30622 0.0479921 
-0.936438 -0.304828 0.173786 
-0.909463 -0.29056 0.29749 
-0.869853 -0.262562 0.417696 
-0.816459 -0.217855 0.534777 
-0.754689 -0.153644 0.637873 
-0.691463 -0.0695751 0.71908 
-0.630184 0.0344202 0.775706 
-0.575443 0.157486 0.802556 
-0.534153 0.298713 0.79087 
-0.509882 0.455876 0.729528 
-0.47763 0.617027 0.625421 
-0.464039 0.774388 0.430112 
-0.439026 0.87876 0.187225 
-0.389791 0.915174 -0.102788 
-0.328735 0.862328 -0.385232 
-0.255942 0.745164 -0.615874 
-0.184863 0.602731 -0.776264 
-0.123313 0.459259 -0.879713 
-0.0753824 0.340681 -0.937154 
-0.040796 0.251722 -0.966939 
-0.017406 0.185635 -0.982467 
-0.00386431 0.137804 -0.990456 
0.00278116 0.10264 -0.994718 
0.00553905 0.0783961 -0.99691 
0.00681775 0.0667996 -0.997746 
0.00738142 0.0598407 -0.998184 
0.00736535 0.0467678 -0.998879 
0.00269038 0.0359045 -0.999364 
-0.00153347 0.0238603 -0.999739 
-0.00124706 0.0138041 -0.999911 
-0.00476236 0.0139847 -0.999896 
3.37944e-05 -0.0135368 -0.999914 
0.0024182 -0.041565 -0.99913 
-0.00178143 -0.0390981 0.999233 
-0.0027001 -0.0120488 0.999924 
-0.00232799 0.018684 0.999834 
-0.00403168 0.0193027 0.999805 
-0.00979236 0.0339363 0.999404 
-0.0153111 0.0496693 0.998672 
-0.0187337 0.0561077 0.998257 
-0.0264354 0.0744025 0.996888 
-0.0340807 0.0891832 0.995445 
-0.0424199 0.107397 0.993326 
-0.0519608 0.14069 0.988709 
-0.0641729 0.191702 0.979381 
-0.080683 0.263784 0.961233 
-0.102626 0.359945 0.927335 
-0.132494 0.482614 0.865778 
-0.171823 0.630531 0.756953 
-0.218571 0.783115 0.582302 
-0.267876 0.900989 0.341489 
-0.312464 0.948471 0.053757 
-0.343796 0.909382 -0.234262 
-0.36381 0.801146 -0.475199 
-0.378532 0.658323 -0.650638 
-0.392336 0.510792 -0.764972 
-0.409752 0.377971 -0.830223 
-0.434294 0.267114 -0.860274 
-0.463555 0.178587 -0.867904 
-0.492102 0.109061 -0.863699 
-0.518816 0.053768 -0.853213 
-0.544484 0.00830679 -0.838748 
-0.570203 -0.0300378 -0.820971 
-0.597117 -0.0627949 -0.79971 
-0.625548 -0.0897137 -0.775035 
-0.654137 -0.109495 -0.74844 
-0.681033 -0.121177 -0.722191 
-0.704381 -0.124407 -0.698864 
-0.724744 -0.120747 -0.678373 
-0.743129 -0.11456 -0.659279 
-0.750935 -0.110417 -0.651087 
-0.753253 -0.113001 -0.647959 
-0.755813 -0.125481 -0.642661 
-0.765032 -0.147535 -0.626873 
-0.784378 -0.177683 -0.594297 
-0.812719 -0.212244 -0.542633 
-0.846292 -0.245585 -0.472749 
-0.882506 -0.273362 -0.382718 
-0.916844 -0.292909 -0.271334 
-0.942021 -0.302438 -0.145446 
-0.953659 -0.300684 -0.0124541 
-0.949737 -0.284713 0.130262 
-0.927235 -0.247864 0.280755 
-0.889339 -0.184715 0.418301 
-0.842522 -0.0944998 0.530325 
-0.789516 0.0211986 0.613379 
-0.738264 0.160996 0.655031 
-0.698483 0.320948 0.639629 
-0.672087 0.492886 0.552602 
-0.611937 0.658746 0.437713 
-0.593699 0.782127 0.189298 
-0.515937 0.853198 -0.0770942 
-0.4358 0.826584 -0.356361 
-0.339507 0.732093 -0.590729 
-0.246124 0.601816 -0.759857 
-0.166636 0.473053 -0.865176 
-0.101317 0.347037 -0.932384 
-0.0570218 0.255868 -0.965042 
-0.0260016 0.189986 -0.981457 
-0.00659755 0.142333 -0.989815 
0.00415122 0.109536 -0.993991 
0.00937811 0.086622 -0.996212 
0.0116305 0.0707544 -0.997441 
0.0123313 0.0640427 -0.997885 
0.0123572 0.0585612 -0.998219 
0.0115054 0.0473858 -0.998818 
0.00747057 0.0380805 -0.999269 
0.00465702 0.0248408 -0.999707 
0.00316517 0.0160309 -0.999866 
-0.00259 0.00924425 -0.999966 
0.00356964 -0.0173057 -0.999837 
0.001396 -0.0371946 -0.999317 
-0.000160612 -0.0371112 0.999314 
-0.0031544 -0.0105286 0.999939 
-0.00549737 0.0224436 0.999745 
-0.00744812 0.0233288 0.999701 
-0.00999252 0.039727 0.999186 
-0.0115952 0.0551005 0.998432 
-0.0201535 0.067074 0.997551 
-0.0272891 0.0860573 0.995928 
-0.0344886 0.100088 0.994394 
-0.0412671 0.124401 0.991394 
-0.0483635 0.166059 0.984968 
-0.0571234 0.22717 0.972235 
-0.0692504 0.313374 0.947157 
-0.0858828 0.422258 0.90244 
-0.108492 0.56161 0.820303 
-0.134969 0.723133 0.677476 
-0.161366 0.870015 0.466055 
-0.187831 0.963315 0.192186 
-0.206841 0.972407 -0.108474 
-0.217981 0.898144 -0.381923 
-0.226661 0.771514 -0.594473 
-0.236002 0.626356 -0.742962 