# vtk DataFile Version 3.0 
Exported using Morpho https://github.com/Morpho-lang/morpho 
ASCII 
DATASET UNSTRUCTURED_GRID 

POINTS 1978 float 
-8.48528 -2.82843 -8.20476e-13 
-8.26512 -2.82843 3.02211e-12 
-8.04172 -2.82843 2.6735e-12 
-7.75632 -2.82843 2.31645e-12 
-7.4772 -2.82843 1.75117e-12 
-7.21954 -2.82843 1.33988e-12 
-6.99996 -2.82843 1.06417e-12 
-6.7762 -2.82843 7.57824e-13 
-6.55761 -2.82843 6.05248e-13 
-6.34172 -2.82843 3.97333e-13 
-6.14557 -2.82843 3.08271e-13 
-5.93073 -2.82843 2.00108e-13 
-5.7157 -2.82843 7.24538e-14 
-5.51232 -2.82843 9.65101e-16 
-5.29518 -2.82843 -7.1988e-15 
-5.08447 -2.82843 -1.06056e-13 
-4.86699 -2.82843 -1.17761e-13 
-4.66251 -2.82843 -1.7836e-13 
-4.44418 -2.82843 -2.28836e-13 
-4.2295 -2.82843 -3.05121e-13 
-4.01176 -2.82843 -4.04258e-13 
-3.80186 -2.82843 -5.1197e-13 
-3.58483 -2.82843 -6.44737e-13 
-3.37246 -2.82843 -8.14541e-13 
-3.14912 -2.82843 -1.00053e-12 
-2.93866 -2.82843 -1.21527e-12 
-2.72721 -2.82843 -1.40605e-12 
-2.53152 -2.82843 -1.7218e-12 
-2.31998 -2.82843 -1.9157e-12 
-2.10977 -2.82843 -1.94287e-12 
-1.89898 -2.82843 -1.73239e-12 
-1.6926 -2.82843 -1.41462e-12 
-1.49161 -2.82843 -8.33481e-13 
-1.27408 -2.82843 -7.68403e-13 
-1.09698 -2.82843 -5.11414e-14 
-0.847978 -2.82843 -8.05958e-13 
-0.626785 -2.82843 -1.91546e-13 
-0.443772 -2.82843 -2.04406e-12 
-0.232713 -2.82843 -1.96486e-12 
0.0229248 -2.82843 1.99893e-12 
0.229297 -2.82843 1.66257e-12 
0.420923 -2.82843 6.02606e-13 
0.635603 -2.82843 7.14543e-13 
0.869719 -2.82843 9.14502e-13 
1.08015 -2.82843 3.98202e-13 
1.26592 -2.82843 4.11653e-13 
1.44213 -2.82843 1.23801e-12 
1.70111 -2.82843 1.57527e-12 
1.88378 -2.82843 1.82726e-12 
2.10072 -2.82843 2.08604e-12 
2.33171 -2.82843 1.86868e-12 
2.51946 -2.82843 1.7596e-12 
2.7453 -2.82843 1.5657e-12 
2.96463 -2.82843 1.16318e-12 
3.17591 -2.82843 9.2224e-13 
3.3834 -2.82843 8.06067e-13 
3.61115 -2.82843 6.36926e-13 
3.81404 -2.82843 4.85553e-13 
4.02854 -2.82843 4.03974e-13 
4.25427 -2.82843 3.07421e-13 
4.4521 -2.82843 2.32844e-13 
4.66379 -2.82843 1.74441e-13 
4.87235 -2.82843 1.52673e-13 
5.07428 -2.82843 7.81797e-14 
5.28964 -2.82843 2.81614e-14 
5.50028 -2.82843 -1.23628e-14 
5.70356 -2.82843 -9.55232e-14 
5.92231 -2.82843 -1.91089e-13 
6.14286 -2.82843 -2.65256e-13 
6.34138 -2.82843 -4.13438e-13 
6.58087 -2.82843 -6.35032e-13 
6.79048 -2.82843 -7.88586e-13 
6.99157 -2.82843 -1.02339e-12 
7.25201 -2.82843 -1.33385e-12 
7.48139 -2.82843 -1.49008e-12 
7.72398 -2.82843 -2.03875e-12 
7.99318 -2.82843 -2.58377e-12 
8.1811 -2.82843 -3.4337e-12 
8.48528 -2.82843 -2.79628e-13 
-8.48528 -2.60123 6.99104e-13 
-8.25347 -2.58523 -1.87022e-12 
-8.01919 -2.58644 -1.53205e-12 
-7.78333 -2.62772 -1.54733e-12 
-7.51763 -2.63284 -1.51898e-12 
-7.2311 -2.60518 -1.08246e-12 
-6.99227 -2.59942 -8.27615e-13 
-6.77479 -2.5883 -5.56823e-13 
-6.53814 -2.60006 -5.39211e-13 
-6.33152 -2.57224 -3.25819e-13 
-6.11136 -2.59807 -2.59793e-13 
-5.89346 -2.59269 -1.88691e-13 
-5.68336 -2.57739 -1.20625e-13 
-5.46548 -2.59406 -5.58796e-14 
-5.24962 -2.58763 -1.94066e-15 
-5.03049 -2.59492 5.14676e-14 
-4.81999 -2.58167 9.42782e-14 
-4.60157 -2.59723 1.71507e-13 
-4.38296 -2.59244 2.24552e-13 
-4.16445 -2.59424 3.02322e-13 
-3.95286 -2.58305 3.61536e-13 
-3.73939 -2.59001 4.89745e-13 
-3.52671 -2.58749 6.03533e-13 
-3.30891 -2.6011 8.18024e-13 
-3.09594 -2.59334 9.45238e-13 
-2.88383 -2.59896 1.19696e-12 
-2.68206 -2.58703 1.27445e-12 
-2.47315 -2.60766 1.73775e-12 
-2.25732 -2.60388 1.81207e-12 
-2.04676 -2.60445 1.88795e-12 
-1.8326 -2.59876 1.75619e-12 
-1.62097 -2.58693 1.39517e-12 
-1.41423 -2.59645 1.23582e-12 
-1.23483 -2.51663 -7.09897e-13 
-1.015 -2.62324 -4.10151e-13 
-0.784462 -2.58888 -9.32244e-13 
-0.588208 -2.52627 -5.30177e-13 
-0.385108 -2.49429 -8.6474e-13 
-0.166348 -2.54916 -8.51521e-13 
0.0239187 -2.46346 4.73863e-13 
0.209138 -2.52303 -6.55927e-13 
0.408052 -2.51219 -1.81564e-14 
0.610848 -2.56603 -1.436e-14 
0.841427 -2.57969 9.09706e-13 
1.06544 -2.56695 4.63357e-13 
1.26718 -2.55784 -1.12402e-13 
1.51583 -2.65426 -2.24511e-12 
1.72302 -2.58382 -9.91961e-13 
1.93633 -2.61749 -1.991e-12 
2.16632 -2.62622 -2.22313e-12 
2.37173 -2.58024 -1.27872e-12 
2.58323 -2.61523 -1.66078e-12 
2.80633 -2.6066 -1.32175e-12 
3.01437 -2.59242 -1.00662e-12 
3.22184 -2.58447 -7.98131e-13 
3.44452 -2.60556 -7.49209e-13 
3.6514 -2.57754 -4.89461e-13 
3.86517 -2.59116 -4.27454e-13 
4.0918 -2.60361 -3.62135e-13 
4.2992 -2.57299 -2.3525e-13 
4.51352 -2.59164 -1.9056e-13 
4.72741 -2.58792 -1.30521e-13 
4.93922 -2.58258 -7.44308e-14 
5.15387 -2.59699 -2.09097e-14 
5.37287 -2.59193 2.89397e-14 
5.58411 -2.58228 8.74138e-14 
5.80063 -2.59769 1.63506e-13 
6.02555 -2.59771 2.37986e-13 
6.23875 -2.5695 2.86255e-13 
6.4581 -2.61167 5.00884e-13 
6.68489 -2.5783 5.2054e-13 
6.89364 -2.56437 6.10984e-13 
7.12034 -2.62401 1.12684e-12 
7.36999 -2.5936 1.10753e-12 
7.60708 -2.60438 1.37437e-12 
7.86327 -2.62543 1.79289e-12 
8.0774 -2.53329 8.95081e-13 
8.30099 -2.64289 2.36555e-12 
8.48528 -2.52494 -8.99135e-13 
-8.48528 -2.36063 9.38563e-13 
-8.23678 -2.35457 -2.86515e-13 
-7.99604 -2.34429 -1.89231e-13 
-7.75661 -2.40561 -3.27266e-13 
-7.56255 -2.24402 -2.90944e-13 
-7.45826 -2.44505 -5.07487e-13 
-7.17943 -2.39181 -3.74543e-13 
-6.95063 -2.34975 -2.72423e-13 
-6.70355 -2.37361 -1.70696e-13 
-6.48482 -2.34933 -1.48011e-13 
-6.24267 -2.3552 -1.39306e-13 
-6.02624 -2.3616 -1.01173e-13 
-5.81027 -2.34433 -7.04475e-14 
-5.58135 -2.35015 -3.85867e-14 
-5.36603 -2.35494 -1.54324e-14 
-5.14143 -2.35918 3.66419e-15 
-4.92775 -2.34702 2.22618e-14 
-4.70315 -2.35895 4.09783e-14 
-4.48528 -2.36276 6.46658e-14 
-4.26268 -2.36072 9.36935e-14 
-4.04931 -2.34639 1.14394e-13 
-3.83245 -2.34713 1.45625e-13 
-3.62041 -2.34944 1.85655e-13 
-3.40232 -2.36338 2.38518e-13 
-3.19114 -2.36328 3.03609e-13 
-2.97538 -2.36677 3.74562e-13 
-2.76944 -2.35437 4.39264e-13 
-2.55677 -2.37089 5.32281e-13 
-2.34822 -2.38795 6.40552e-13 
-2.12779 -2.37376 6.75832e-13 
-1.91694 -2.3778 5.86022e-13 
-1.6955 -2.36344 3.56526e-13 
-1.47386 -2.34319 2.38108e-13 
-1.24916 -2.27793 5.92067e-13 
-1.01367 -2.38946 -1.93852e-13 
-0.814436 -2.31837 -6.25255e-13 
-0.60026 -2.24454 -8.7756e-13 
-0.406021 -2.16009 -1.85536e-12 
-0.196446 -2.21392 -5.95717e-13 
0.0383388 -2.16249 9.92629e-13 
0.25814 -2.20425 2.23821e-12 
0.443033 -2.14084 6.52143e-13 
0.610549 -2.27191 -6.33116e-13 
0.819098 -2.31677 1.70458e-12 
1.04564 -2.31522 7.8208e-13 
1.26033 -2.30711 2.41442e-13 
1.47051 -2.43891 -3.67356e-13 
1.65929 -2.35255 -3.5118e-13 
1.87752 -2.38319 -7.11297e-13 
2.08502 -2.41535 -8.17736e-13 
2.29448 -2.37104 -6.93887e-13 
2.52956 -2.37549 -5.65412e-13 
2.73372 -2.39293 -4.79006e-13 
2.94988 -2.35564 -3.89404e-13 
3.15315 -2.34617 -3.07918e-13 
3.37208 -2.37195 -2.53011e-13 
3.57781 -2.3403 -1.89527e-13 
3.79206 -2.34762 -1.4775e-13 
4.00864 -2.37335 -1.24118e-13 
4.21736 -2.33781 -9.06611e-14 
4.43846 -2.34831 -6.65768e-14 
4.64869 -2.34978 -4.67678e-14 
4.86147 -2.34691 -2.65689e-14 
5.07989 -2.3548 -1.34822e-14 
5.29154 -2.36381 7.4367e-15 
5.50831 -2.3457 2.59958e-14 
5.72714 -2.35717 4.92225e-14 
5.94418 -2.36958 7.87406e-14 
6.15999 -2.33842 1.04819e-13 
6.3937 -2.36073 1.39853e-13 
6.60228 -2.35896 1.77955e-13 
6.82817 -2.3143 1.91327e-13 
7.05811 -2.37097 2.77105e-13 
7.2771 -2.39103 3.52755e-13 
7.53844 -2.37058 3.70126e-13 
7.78164 -2.4043 3.25085e-13 
7.9976 -2.3097 1.20147e-13 
8.26134 -2.36996 3.73259e-13 
8.48528 -2.277 -5.50681e-13 
-8.48528 -2.09364 7.23353e-13 
-8.26502 -2.10858 -1.9195e-13 
-8.04934 -2.10039 6.73344e-14 
-7.80039 -2.15312 -6.72144e-14 
-7.50877 -2.02987 -1.33774e-13 
-7.30414 -2.21901 -2.02726e-13 
-7.06305 -2.13276 -6.3686e-14 
-6.80194 -2.14298 -1.02345e-13 
-6.58666 -2.12121 -8.3793e-14 
-6.3508 -2.14039 -7.47175e-14 
-6.12289 -2.11626 -3.70305e-14 
-5.91562 -2.11158 -3.44726e-14 
-5.68938 -2.12223 -1.51759e-14 
-5.46745 -2.11252 5.27913e-16 
-5.25074 -2.12784 6.19804e-15 
-5.03723 -2.11388 1.38647e-14 
-4.81363 -2.12519 1.6339e-14 
-4.59631 -2.12731 2.50477e-14 
-4.37883 -2.13218 3.63467e-14 
-4.16735 -2.1143 5.42269e-14 
-3.95185 -2.1107 5.92203e-14 
-3.73936 -2.10896 7.72865e-14 
-3.52433 -2.12354 1.05444e-13 
-3.31527 -2.12705 1.20094e-13 
-3.10271 -2.13535 1.57921e-13 
-2.89672 -2.12623 1.81249e-13 
-2.68107 -2.13223 2.15209e-13 
-2.47122 -2.14506 2.39743e-13 
-2.26131 -2.16339 3.63534e-13 
-2.03893 -2.13942 4.33491e-13 
-1.82307 -2.15111 3.74867e-13 
-1.59954 -2.12528 -9.83721e-14 
-1.38271 -2.07914 -4.72157e-13 
-1.16671 -1.9392 -1.32626e-13 
-1.05936 -2.1344 -1.06718e-12 
-0.822531 -2.06705 5.48628e-13 
-0.6029 -1.95453 -1.95475e-12 
-0.330125 -1.8836 -4.41461e-13 
-0.0925144 -1.90948 -5.51186e-13 
0.0734818 -1.62007 -3.92984e-13 
0.17988 -1.88428 9.89891e-13 
0.319992 -1.5989 3.34958e-14 
0.446978 -1.88344 7.40739e-13 
0.7134 -1.98662 2.47431e-12 
0.934753 -2.06523 4.56825e-13 
1.16668 -2.06045 7.89582e-14 
1.44135 -2.18147 -1.3549e-13 
1.67602 -2.12527 -1.21918e-13 
1.8957 -2.15746 -4.73418e-13 
2.11151 -2.18195 -4.22104e-13 
2.3601 -2.17217 -2.16136e-13 
2.57679 -2.13905 -2.46084e-13 
2.78038 -2.15816 -2.64208e-13 
2.98626 -2.1068 -1.56491e-13 
3.20831 -2.127 -1.40317e-13 
3.40915 -2.12216 -1.03419e-13 
3.62533 -2.10553 -6.54742e-14 
3.84303 -2.12049 -6.71637e-14 
4.04513 -2.12402 -4.88595e-14 
4.27298 -2.11131 -3.70782e-14 
4.4838 -2.10763 -2.23444e-14 
4.69726 -2.11117 -1.01303e-14 
4.91593 -2.11808 -1.03596e-14 
5.12998 -2.11743 -6.30935e-15 
5.34154 -2.12743 7.52233e-16 
5.56567 -2.11674 9.00166e-15 
5.7832 -2.12539 2.36126e-14 
5.99358 -2.12505 4.22578e-14 
6.23487 -2.12427 5.43917e-14 
6.44477 -2.10841 6.0392e-14 
6.65794 -2.11429 8.011e-14 
6.91459 -2.10364 7.94926e-14 
7.13093 -2.13254 1.27174e-13 
7.36348 -2.17755 2.00327e-13 
7.55685 -2.08174 1.10295e-13 
7.74038 -2.17188 9.71473e-14 
7.95581 -2.07498 -1.23132e-13 
8.20408 -2.146 2.20218e-14 
8.48528 -2.08013 -2.99329e-13 
-8.48528 -1.80939 5.94907e-13 
-8.29893 -1.85522 -1.74226e-14 
-7.88709 -1.90915 2.77831e-13 
[...]
POINT_DATA 1978 
VECTORS vectors float
-7.55673e-07 -0.00167713 0.999999 
0.000363722 -0.111289 0.993788 
0.000468097 -0.107171 0.994241 
0.00102589 -0.0842501 0.996444 
0.000800453 -0.0625672 0.99804 
0.000468481 -0.0491149 0.998793 
0.000390235 -0.0400503 0.999198 
0.000259665 -0.0302179 0.999543 
0.000289273 -0.0219365 0.999759 
0.000248052 -0.0158165 0.999875 
0.000261424 -0.0120533 0.999927 
0.000190835 -0.00775026 0.99997 
0.000224958 -0.00352417 0.999994 
0.000259018 -0.00117313 0.999999 
0.000228605 0.0005378 1 
0.000247669 0.00237563 0.999997 
0.00024399 0.00424871 0.999991 
0.000272324 0.00598351 0.999982 
0.000248032 0.00809728 0.999967 
0.000264218 0.0109579 0.99994 
0.000256221 0.0146307 0.999893 
0.000261975 0.0190797 0.999818 
0.000255205 0.0250595 0.999686 
0.000262914 0.032673 0.999466 
0.000230399 0.0435034 0.999053 
0.000222425 0.0572625 0.998359 
0.000196778 0.075726 0.997129 
0.000198937 0.0979954 0.995187 
0.000153419 0.128669 0.991688 
0.000151065 0.167446 0.985881 
0.000130187 0.215953 0.976404 
0.00011004 0.275444 0.961317 
6.19943e-05 0.346662 0.93799 
2.13665e-05 0.442146 0.896943 
-1.79044e-05 0.538947 0.84234 
-9.85423e-06 0.673614 0.739083 
-5.45813e-05 0.79906 0.601251 
-4.53253e-05 0.8881 0.459651 
-1.25309e-05 0.968053 0.250745 
-5.73154e-06 0.999494 -0.0317986 
3.64395e-05 0.96827 -0.249906 
3.15635e-05 0.899925 -0.436046 
3.93242e-05 0.797946 -0.602729 
6.38779e-05 0.661989 -0.749513 
-1.5313e-05 0.539426 -0.842033 
-4.13358e-05 0.44663 -0.894719 
-0.00011885 0.367123 -0.930173 
-9.78979e-05 0.273172 -0.961965 
-0.000208203 0.220699 -0.975342 
-0.000160238 0.170084 -0.98543 
-0.000194548 0.127009 -0.991902 
-0.000270186 0.0999043 -0.994997 
-0.000206872 0.0741796 -0.997245 
-0.000256584 0.0548672 -0.998494 
-0.000252449 0.0414851 -0.999139 
-0.000254195 0.0320672 -0.999486 
-0.000233937 0.0240855 -0.99971 
-0.000278715 0.0184948 -0.999829 
-0.000240891 0.0142525 -0.999898 
-0.000225205 0.0106479 -0.999943 
-0.00024968 0.00827452 -0.999966 
-0.00019866 0.00635365 -0.99998 
-0.000219147 0.00427883 -0.999991 
-0.000220646 0.00250051 -0.999997 
-0.000213748 0.000649798 -1 
-0.000246741 -0.00135971 -0.999999 
-0.000246849 -0.00364146 -0.999993 
-0.000241332 -0.0070051 -0.999975 
-0.000287765 -0.0110644 -0.999939 
-0.000269477 -0.015957 -0.999873 
-0.000263434 -0.0235595 -0.999722 
-0.000337733 -0.0310508 -0.999518 
-0.000400239 -0.0387977 -0.999247 
-0.000477091 -0.050215 -0.998738 
-0.000501358 -0.0632741 -0.997996 
-0.000624913 -0.081885 -0.996642 
-0.000519835 -0.107318 -0.994225 
-0.000417181 -0.114079 -0.993472 
-0.000146585 -0.000504514 -1 
0.00155572 0.000725869 0.999999 
0.0587983 -0.093188 0.993911 
0.0632735 -0.0988464 0.993089 
0.0621623 -0.088547 0.99413 
0.0645969 -0.0686294 0.995549 
0.0690967 -0.0512561 0.996292 
0.0721872 -0.040327 0.996576 
0.0739821 -0.0314974 0.996762 
0.0748277 -0.0225174 0.996942 
0.0787654 -0.0169448 0.996749 
0.0776483 -0.0121421 0.996907 
0.0786469 -0.00765684 0.996873 
0.0810213 -0.0043177 0.996703 
0.0804861 -0.00172402 0.996754 
0.0818458 0.000337899 0.996645 
0.0816269 0.00249681 0.99666 
0.0831764 0.00459127 0.996524 
0.081423 0.00691208 0.996656 
0.0811695 0.00965351 0.996654 
0.0799432 0.0130557 0.996714 
0.0795236 0.0172358 0.996684 
0.0773513 0.0224088 0.996752 
0.0758388 0.029135 0.996694 
0.0726477 0.0380473 0.996632 
0.071072 0.0500551 0.996214 
0.0678776 0.0657455 0.995525 
0.0653611 0.0856076 0.994183 
0.0594521 0.111 0.992041 
0.0537753 0.145443 0.987904 
0.0465684 0.188451 0.980978 
0.0382326 0.242921 0.969292 
0.0290519 0.308209 0.950875 
0.0185029 0.389858 0.920689 
0.0102513 0.477949 0.878328 
0.000304315 0.593832 0.804589 
-0.00552184 0.715218 0.698879 
-0.00739692 0.813898 0.580961 
-0.00738722 0.906766 0.42157 
-0.00398846 0.980282 0.197562 
9.6131e-05 0.99993 -0.0118107 
0.00406183 0.975436 -0.220246 
0.00616406 0.90942 -0.415834 
0.00676339 0.81443 -0.580223 
0.00413245 0.688722 -0.725014 
-0.00302987 0.560492 -0.828155 
-0.0121766 0.453944 -0.890947 
-0.0227174 0.345903 -0.937995 
-0.0333775 0.27971 -0.959504 
-0.0415344 0.215941 -0.975523 
-0.0496355 0.163188 -0.985346 
-0.0577483 0.128849 -0.989981 
-0.0605202 0.0971889 -0.993424 
-0.0658585 0.0726589 -0.99518 
-0.0698376 0.055293 -0.996025 
-0.0730167 0.0424349 -0.996428 
-0.0738127 0.0319032 -0.996762 
-0.0777402 0.0249238 -0.996662 
-0.0781877 0.0190723 -0.996756 
-0.0787074 0.0143012 -0.996795 
-0.0825693 0.0110534 -0.996524 
-0.0817398 0.00818947 -0.99662 
-0.0825792 0.00570341 -0.996568 
-0.0832485 0.00336508 -0.996523 
-0.0814102 0.0012174 -0.99668 
-0.0814718 -0.00103004 -0.996675 
-0.0814389 -0.00340299 -0.996673 
-0.0789844 -0.00617608 -0.996857 
-0.0779015 -0.00992175 -0.996912 
-0.0789822 -0.0145006 -0.996771 
-0.0741706 -0.0202132 -0.997041 
-0.0758309 -0.0277121 -0.996736 
-0.0753352 -0.0354306 -0.996529 
-0.0689902 -0.0447707 -0.996612 
-0.0691099 -0.0579651 -0.995924 
-0.0656601 -0.0737565 -0.995112 
-0.062004 -0.0931901 -0.993716 
-0.0658778 -0.100447 -0.992759 
-0.0575985 -0.0918292 -0.994108 
-0.00108451 0.000613467 -0.999999 
0.000216718 0.000437171 1 
0.0607319 -0.0914181 0.993959 
0.0680619 -0.0977309 0.992883 
0.0703229 -0.0846457 0.993926 
0.0725671 -0.0730651 0.994684 
0.0740425 -0.0633107 0.995243 
0.0786339 -0.0486773 0.995714 
0.0802864 -0.038422 0.996031 
0.0825037 -0.0292637 0.996161 
0.0841744 -0.0219428 0.996209 
0.0860824 -0.0153435 0.99617 
0.0867962 -0.0108093 0.996167 
0.0878297 -0.00731308 0.996109 
0.089105 -0.00428816 0.996013 
0.0901451 -0.00179135 0.995927 
0.0910452 0.000754213 0.995846 
0.0914781 0.00324274 0.995802 
0.0916771 0.00606062 0.99577 
0.0911318 0.00898508 0.995798 
0.0899608 0.0124229 0.995868 
0.0882498 0.0165536 0.995961 
0.0861868 0.0216464 0.996044 
0.0839545 0.0279461 0.996078 
0.0816153 0.0363425 0.996001 
0.0790211 0.0472183 0.995754 
0.0759666 0.0619892 0.995182 
0.0721968 0.0807251 0.994118 
0.0676055 0.105077 0.992163 
0.0617923 0.135297 0.988876 
0.0537154 0.177261 0.982697 
0.0444675 0.228332 0.972567 
0.0332839 0.294795 0.954981 
0.0222115 0.373691 0.927287 
0.0111178 0.470356 0.882407 
0.0025017 0.581284 0.813697 
-0.00421823 0.696365 0.717676 
-0.00815366 0.817318 0.576129 
-0.00816081 0.915733 0.401705 
-0.00556799 0.972997 0.23075 
-0.002311 0.999997 -0.000918395 
0.00185452 0.970643 -0.240519 
0.00349372 0.892704 -0.45063 
0.00493689 0.799098 -0.60118 
0.00273015 0.689164 -0.7246 
-0.00363693 0.568759 -0.822496 
-0.0122681 0.465852 -0.884777 
-0.0231436 0.372106 -0.927902 
-0.0317285 0.308448 -0.950712 
-0.0430364 0.238699 -0.97014 
-0.0522939 0.18462 -0.981418 
-0.059664 0.145189 -0.987603 
-0.066576 0.108958 -0.991814 
-0.0716103 0.0836623 -0.993918 
-0.0755575 0.0638224 -0.995097 
-0.0786284 0.0494524 -0.995677 
-0.0816011 0.0374615 -0.995961 
-0.08371 0.0295182 -0.996053 
-0.085986 0.0228276 -0.996035 
-0.0880959 0.0173748 -0.99596 
-0.0894885 0.0135223 -0.995896 
-0.090767 0.0099127 -0.995823 
-0.0915436 0.00693646 -0.995777 
-0.091717 0.00413293 -0.995777 
-0.0914715 0.00138994 -0.995807 
-0.0908621 -0.00106862 -0.995863 
-0.0896824 -0.00369492 -0.995964 
-0.0886195 -0.0064038 -0.996045 
-0.0874669 -0.00955507 -0.996122 
-0.0859566 -0.0137058 -0.996205 
-0.0847746 -0.0192444 -0.996214 
-0.083563 -0.0255014 -0.996176 
-0.0811714 -0.0337588 -0.996128 
-0.0800496 -0.0431371 -0.995857 
-0.077895 -0.0539804 -0.995499 
-0.0743204 -0.0704458 -0.994743 
-0.0716196 -0.0878719 -0.993554 
-0.0684242 -0.0992569 -0.992707 
-0.0605737 -0.0885283 -0.99423 
-0.000594289 0.000159123 -1 
0.000903546 0.000904955 0.999999 
0.051269 -0.0877936 0.994818 
0.0581322 -0.0993625 0.993352 
0.064075 -0.0892993 0.993942 
0.0631574 -0.0714067 0.995446 
0.0744828 -0.0573757 0.99557 
0.0716788 -0.0452696 0.9964 
0.0741771 -0.0333373 0.996688 
0.0755903 -0.0260678 0.996798 
0.0777873 -0.019035 0.996788 
0.076275 -0.0139014 0.99699 
0.0776571 -0.010295 0.996927 
0.0794146 -0.00705175 0.996817 
0.0797058 -0.00430365 0.996809 
0.0817936 -0.00146978 0.996648 
0.0814734 0.0013717 0.996675 
0.0827332 0.004654 0.996561 
0.0826941 0.00792679 0.996543 
0.082126 0.0114034 0.996557 
0.0800059 0.0153183 0.996677 
0.0778424 0.0201073 0.996763 
0.0755895 0.0258962 0.996803 
0.074132 0.033362 0.99669 
0.071619 0.0429529 0.996507 
0.0693307 0.0557374 0.996035 
0.0656989 0.0721829 0.995225 
0.0618156 0.0942115 0.993631 
0.0573589 0.121615 0.990919 
0.0522777 0.155842 0.986398 
0.0432935 0.203099 0.978201 
0.0340932 0.261479 0.964607 
0.0224443 0.339742 0.940251 
0.0122363 0.425533 0.90486 
0.00178046 0.535971 0.844235 
0.00135849 0.571761 0.820419 
-0.00551648 0.700959 0.71318 
-0.00863311 0.820352 0.571794 
-0.00815094 0.926197 0.376951 
-0.00503337 0.992297 0.123781 
-0.00209528 0.996882 -0.0788801 
-6.36279e-05 0.975174 -0.22144 
0.00256753 0.940553 -0.339636 
0.00360808 0.862137 -0.506663 
0.00361795 0.737097 -0.675778 
0.000436322 0.626623 -0.779322 
-0.00561248 0.516179 -0.856463 
-0.0180853 0.394215 -0.91884 
-0.0263922 0.311263 -0.949957 
-0.0380353 0.241014 -0.969776 
-0.0473433 0.186361 -0.98134 
-0.0545984 0.138535 -0.988851 
-0.0599339 0.106938 -0.992458 
-0.0654462 0.082127 -0.994471 
-0.066509 0.064109 -0.995724 
-0.0708124 0.0485105 -0.996309 
-0.0728473 0.0381587 -0.996613 
-0.07428 0.0297568 -0.996793 
-0.0776065 0.0229797 -0.996719 
-0.0794556 0.0180644 -0.996675 
-0.0804325 0.0135375 -0.996668 
-0.0810095 0.00993505 -0.996664 
-0.0817878 0.00659516 -0.996628 
-0.0823477 0.00323946 -0.996598 
-0.0816394 0.00013224 -0.996662 
-0.0815577 -0.00267045 -0.996665 
-0.0797331 -0.00559665 -0.996801 
-0.0790289 -0.00841339 -0.996837 
-0.0780219 -0.0115977 -0.996884 
-0.0768618 -0.0163086 -0.996908 
-0.0747173 -0.0216787 -0.996969 
-0.0740094 -0.0283356 -0.996855 
-0.071661 -0.0382987 -0.996693 
-0.0715601 -0.048167 -0.996273 
-0.0719014 -0.0609307 -0.995549 
-0.0649478 -0.0745499 -0.9951 
-0.0668169 -0.0871088 -0.993956 
-0.0594853 -0.100424 -0.993165 
-0.0562456 -0.0946666 -0.993919 
-0.00100988 0.000139307 -0.999999 
0.0005157 0.000762558 1 
0.0384031 -0.0875126 0.995423 
0.0506392 -0.0993634 0.993762 
0.0528744 -0.0843583 0.995032 
0.0499447 -0.0675623 0.996464 
0.0625787 -0.0570698 0.996407 
0.0540006 -0.0499653 0.99729 
0.0622623 -0.0398173 0.997265 
0.0597519 -0.0309377 0.997734 
0.0636399 -0.0235303 0.997695 
0.0639162 -0.0178419 0.997796 
0.0612349 -0.0136988 0.998029 
0.0645983 -0.0101866 0.997859 
0.0656841 -0.00720863 0.997814 
0.0662403 -0.00415599 0.997795 
0.0671191 -0.00108852 0.997744 
0.0681697 0.00263232 0.99767 
0.0683927 0.00632777 0.997638 
0.0683985 0.0100545 0.997607 
0.0666615 0.0139026 0.997679 
0.0650606 0.0183007 0.997713 
0.0629104 0.0235435 0.997741 
0.0617023 0.030079 0.997641 
0.0598556 0.0381946 0.997476 
0.0580247 0.0489169 0.997116 
0.0554277 0.0625436 0.996502 
0.0524772 0.0807565 0.995351 
0.0484929 0.104156 0.993378 
0.0443729 0.133664 0.990033 
0.039727 0.171271 0.984423 
0.0308049 0.226484 0.973528 
0.0226425 0.293195 0.955784 
0.0127773 0.370636 0.92869 
0.00446229 0.462391 0.886665 
-0.00514164 0.659051 0.752081 
-0.00763918 0.771413 0.636289 
-0.00765746 0.877288 0.479904 
-0.00591787 0.936249 0.351287 
-0.00635531 0.975912 0.218071 
-0.00355031 0.999416 0.0339834 
4.14165e-05 0.968817 -0.247778 
0.00347056 0.88911 -0.45768 
0.00489621 0.811568 -0.584238 
0.00353048 0.699365 -0.714756 
0.000453466 0.592008 -0.805932 
-0.0030856 0.497685 -0.867352 
-0.0108775 0.422373 -0.906357 
-0.0148877 0.353762 -0.935217 
-0.0245205 0.274935 -0.96115 
-0.0340081 0.213742 -0.976298 
-0.0422348 0.163205 -0.985688 
-0.0459195 0.122812 -0.991367 
-0.0512121 0.0934958 -0.994302 
-0.0530456 0.0738284 -0.995859 
-0.0570771 0.0555074 -0.996826 
-0.0583288 0.0433685 -0.997355 
-0.0604424 0.0341953 -0.997586 
-0.0630312 0.0264526 -0.997661 
-0.0640525 0.0209097 -0.997727 
-0.0668643 0.016158 -0.997631 
-0.0662109 0.0119333 -0.997734 
-0.0669807 0.00809865 -0.997721 
-0.0680577 0.00429193 -0.997672 
-0.0673263 0.000643423 -0.997731 
-0.067002 -0.00276237 -0.997749 
-0.0666675 -0.00570127 -0.997759 
-0.0649909 -0.00880336 -0.997847 
-0.063617 -0.0118792 -0.997904 
-0.0645502 -0.0155082 -0.997794 
-0.0605081 -0.0208465 -0.99795 
-0.0596516 -0.0271733 -0.997849 
-0.0606372 -0.0350492 -0.997544 
-0.0574698 -0.0465115 -0.997263 
-0.0591696 -0.0584504 -0.996535 
-0.0529351 -0.0741129 -0.995844 
-0.0521532 -0.0922973 -0.994365 
-0.0460978 -0.103781 -0.993531 
-0.0435005 -0.0923202 -0.994779 
-0.000187495 0.000239145 -1 
0.000434701 0.000449278 1 
0.0280295 -0.0912977 0.995429 
0.0423723 -0.101936 0.993888 
0.0393996 -0.100373 0.994169 
0.0414665 -0.0843738 0.995571 
0.0428838 -0.0596574 0.997297 
0.0454852 -0.0440559 0.997993 
0.0482854 -0.0359826 0.998185 
0.0491196 -0.0267649 0.998434 
0.0504326 -0.0209401 0.998508 
0.0497842 -0.0165762 0.998622 
0.0502292 -0.0126417 0.998658 
0.0524728 -0.00962709 0.998576 
0.0537259 -0.00651668 0.998534 
0.0532913 -0.00314385 0.998574 
0.0553081 0.000722763 0.998469 
0.0552631 0.00485562 0.99846 
0.0552626 0.00893959 0.998432 
0.0540141 0.0129019 0.998457 
0.0527616 0.0172338 0.998458 
0.0512801 0.0221658 0.998438 
0.0502331 0.0283152 0.998336 
0.0486073 0.0359267 0.998172 
0.0472414 0.0458206 0.997832 
0.0449999 0.058752 0.997258 
0.0426301 0.0759053 0.996203 
0.0390941 0.0985456 0.994364 
0.034937 0.128607 0.99108 
0.030587 0.166878 0.985503 
0.0247291 0.216023 0.976075 
0.0156179 0.292479 0.956145 
0.00660372 0.387206 0.92197 
-0.0009292 0.504837 0.863214 
-0.00535644 0.629606 0.776896 
-0.00340915 0.586614 0.809859 
-0.00698483 0.701034 0.713093 
-0.00691581 0.796446 0.60467 
-0.00467875 0.866727 0.49876 
-0.00127522 0.976455 0.215718 
-0.000736094 0.998002 -0.0631753 
0.00161114 0.998718 -0.0505949 
0.00284497 0.957925 -0.287004 
0.00295012 0.874182 -0.48559 
0.00493849 0.753818 -0.657064 
0.0033525 0.627478 -0.778627 
0.000688261 0.516008 -0.856583 
-0.00542902 0.418002 -0.90843 
-0.011427 0.329911 -0.943943 
-0.0193389 0.257685 -0.966035 
-0.0279181 0.198672 -0.979668 
-0.0337824 0.153469 -0.987576 
-0.0375214 0.114326 -0.992735 
-0.0394691 0.0904298 -0.99512 
-0.044251 0.0678971 -0.996711 
-0.0458614 0.0526599 -0.997559 
-0.0470678 0.0412584 -0.998039 
-0.0499707 0.0321219 -0.998234 
-0.0506344 0.025616 -0.998389 
-0.0520479 0.0201168 -0.998442 
-0.0542639 0.0155346 -0.998406 
-0.0534864 0.0112185 -0.998506 
-0.0545544 0.00698959 -0.998486 
-0.0545667 0.00296953 -0.998506 
-0.0543635 -0.00109677 -0.998521 
-0.0535477 -0.00470324 -0.998554 
-0.053795 -0.00782238 -0.998521 
-0.0515589 -0.0109581 -0.99861 
-0.0510287 -0.014182 -0.998596 
-0.05061 -0.0178357 -0.998559 
-0.0472442 -0.0233801 -0.99861 
-0.0470081 -0.030336 -0.998434 
-0.0485563 -0.0391006 -0.998055 
-0.04367 -0.0490998 -0.997839 
-0.0464388 -0.059866 -0.997126 
-0.0414074 -0.0760509 -0.996244 
-0.0415182 -0.0935778 -0.994746 
-0.0360752 -0.105831 -0.99373 
-0.0320307 -0.0919575 -0.995248 
-0.000474475 0.000180971 -1 
0.000323696 0.000169289 1 
0.0221323 -0.0975573 0.994984 
0.0320971 -0.106128 0.993834 
0.0306132 -0.0957068 0.994939 
0.0355058 -0.0747542 0.99657 
0.0315866 -0.062155 0.997567 
0.0364613 -0.0500751 0.99808 
0.034468 -0.0391766 0.998638 
0.0393261 -0.0315694 0.998728 
0.0381701 -0.0245279 0.99897 
0.0387913 -0.0198302 0.999051 
0.0406226 -0.0156467 0.999052 
0.0404716 -0.0124424 0.999103 
0.0427065 -0.00937114 0.999044 
0.0434217 -0.00606614 0.999038 
0.0436895 -0.00187952 0.999043 
0.0449035 0.00231329 0.998989 
0.0447409 0.00674633 0.998976 
0.0437723 0.0108212 0.998983 
0.043019 0.0149683 0.998962 
0.0419703 0.0194494 0.99893 
0.041292 0.0247196 0.998841 
0.0401881 0.0310613 0.998709 
0.0389588 0.0392019 0.998472 
0.037578 0.0496931 0.998057 
0.0356237 0.0639236 0.997319 
0.033096 0.0824893 0.996042 
0.0297144 0.107793 0.993729 
0.0255391 0.141376 0.989627 
0.0210413 0.184182 0.982667 
0.0156896 0.243695 0.969725 
0.00771786 0.328029 0.944636 
0.00108105 0.43313 0.901331 
-0.00300049 0.54137 0.840779 
-0.00552972 0.737167 0.675688 
-0.00304843 0.858973 0.512011 
-0.00111411 0.932986 0.359911 
-0.00332655 0.984763 0.173868 
-0.000187331 0.946215 0.323538 
0.00155133 0.988937 0.148327 
8.90156e-05 0.999119 0.0419616 
-0.00321217 0.978162 -0.207819 
0.00397173 0.89318 -0.449681 
0.00528904 0.772857 -0.634558 
0.00562842 0.727028 -0.686585 
0.00527172 0.590366 -0.807119 
-0.00151012 0.42115 -0.90699 
-0.00632316 0.335281 -0.942097 
-0.0125471 0.26198 -0.964992 
-0.0196252 0.203577 -0.978862 
-0.0217659 0.168274 -0.9855 
-0.02787 0.135411 -0.990397 
-0.0285846 0.106583 -0.993893 
-0.0337602 0.0797718 -0.996241 
-0.0360088 0.0613885 -0.997464 
-0.0373213 0.0476002 -0.998169 
-0.0395968 0.0367327 -0.99854 
-0.0403801 0.0293714 -0.998753 
-0.0416253 0.0232509 -0.998863 
-0.0427618 0.0181294 -0.998921 
-0.0439095 0.013833 -0.99894 
-0.0439607 0.00907463 -0.998992 
-0.0438639 0.00471069 -0.999026 
-0.0441951 0.000179255 -0.999023 
-0.0433868 -0.00407353 -0.99905 
-0.0432749 -0.00782182 -0.999033 
-0.0421372 -0.0109534 -0.999052 
-0.0411588 -0.0142263 -0.999051 
-0.0396197 -0.0178165 -0.999056 
-0.0383791 -0.0221165 -0.999018 
-0.0367612 -0.0291211 -0.9989 
-0.0377329 -0.0378734 -0.99857 
-0.0345389 -0.0495517 -0.998174 
-0.0350843 -0.0639825 -0.997334 
-0.0308499 -0.0799832 -0.996319 
-0.0321051 -0.0953545 -0.994926 
-0.0272562 -0.107524 -0.993829 
-0.0258385 -0.0991222 -0.99474 
-0.000390549 0.00013152 -1 
0.000187588 8.37647e-05 1 
0.015953 -0.0991795 0.994942 
0.0246988 -0.107581 0.993889 
0.0219917 -0.0978065 0.994962 
0.026914 -0.0814259 0.996316 
0.0243908 -0.0642681 0.997635 
0.0276964 -0.0488718 0.998421 
0.0262756 -0.038022 0.998931 
0.0300992 -0.0300651 0.999095 
0.0285625 -0.0243856 0.999295 
0.0311056 -0.0194631 0.999327 
0.0325835 -0.0157814 0.999344 
0.0324783 -0.0126631 0.999392 
0.0344797 -0.00935563 0.999362 
0.0357911 -0.0052386 0.999346 
0.0353399 -0.000502329 0.999375 
0.0364498 0.0041486 0.999327 
0.0353608 0.00860826 0.999338 
0.0347335 0.0129739 0.999312 
0.0341017 0.0173853 0.999267 
0.033563 0.0223459 0.999187 
0.032861 0.0281567 0.999063 
0.0319663 0.0355314 0.998857 
0.0307797 0.0451634 0.998505 
0.0293904 0.0580171 0.997883 
0.0270829 0.0753576 0.996789 
0.0243291 0.09857 0.994833 
0.0206104 0.13007 0.991291 
0.0163163 0.172538 0.984868 
0.012189 0.228443 0.973481 
0.00681749 0.300936 0.95362 
0.000926231 0.40419 0.914675 
-0.00216196 0.516024 0.856571 
-0.00305081 0.630736 0.775992 
-0.00393612 0.640134 0.768253 
-0.00235868 0.854456 0.519518 
6.44924e-05 0.942194 0.335069 
0.00368853 0.998376 0.0568426 
0.00146774 0.999713 0.0239083 
0.00128118 0.999955 0.00938847 
3.8198e-05 0.999371 -0.0354497 
-0.00206786 0.993706 -0.112 
-0.00358483 0.950216 -0.31157 
0.00283476 0.849762 -0.527159 
0.00714699 0.654962 -0.755628 
0.00637345 0.564212 -0.825605 
0.00358325 0.494022 -0.869442 
0.000333726 0.39443 -0.918926 
-0.00416187 0.31033 -0.95062 
-0.0102446 0.236309 -0.971624 
-0.0151442 0.17948 -0.983645 
-0.0203526 0.133641 -0.990821 
-0.0243429 0.0954203 -0.995139 
-0.0274508 0.0732241 -0.996938 
-0.0293002 0.0562351 -0.997988 
-0.0313113 0.0428188 -0.998592 
-0.0319666 0.0340327 -0.998909 
-0.0330786 0.027052 -0.999087 
-0.0340598 0.0214924 -0.999189 
-0.0343768 0.0168492 -0.999267 
-0.0362286 0.0124038 -0.999267 
-0.0351551 0.00789672 -0.999351 
-0.0355991 0.00309712 -0.999361 
-0.0353446 -0.00160594 -0.999374 
-0.035097 -0.0062299 -0.999364 
-0.0341221 -0.00993446 -0.999368 
-0.0338059 -0.0132016 -0.999341 
-0.0322408 -0.0164281 -0.999345 
-0.030321 -0.020086 -0.999338 
-0.0301669 -0.0250102 -0.999232 
-0.0276001 -0.0317021 -0.999116 
-0.0293606 -0.0391005 -0.998804 
-0.0258216 -0.0490016 -0.998465 
-0.0272258 -0.061374 -0.997743 
-0.0238158 -0.0777966 -0.996685 
-0.0233288 -0.0972687 -0.994985 
-0.0199961 -0.109861 -0.993746 
-0.0184325 -0.0966336 -0.995149 
-9.79977e-05 0.000173414 -1 
0.000103064 7.13694e-05 1 
0.0105389 -0.101471 0.994783 
0.0174487 -0.110217 0.993754 
0.0158532 -0.0984788 0.995013 
0.0197173 -0.0793234 0.996654 
0.0169997 -0.0640228 0.997804 