# vtk DataFile Version 3.0 
Exported using Morpho https://github.com/Morpho-lang/morpho 
ASCII 
DATASET UNSTRUCTURED_GRID 

POINTS 1978 float 
-8.48528 -2.82843 -7.9026e-13 
-8.26512 -2.82843 2.91305e-12 
-8.04172 -2.82843 2.5774e-12 
-7.75632 -2.82843 2.23356e-12 
-7.4772 -2.82843 1.68851e-12 
-7.21954 -2.82843 1.29148e-12 
-6.99996 -2.82843 1.02568e-12 
-6.7762 -2.82843 7.30476e-13 
-6.55761 -2.82843 5.83313e-13 
-6.34172 -2.82843 3.8295e-13 
-6.14557 -2.82843 2.97169e-13 
-5.93073 -2.82843 1.92936e-13 
-5.7157 -2.82843 6.989e-14 
-5.51232 -2.82843 1.00945e-15 
-5.29518 -2.82843 -6.93924e-15 
-5.08447 -2.82843 -1.02109e-13 
-4.86699 -2.82843 -1.13489e-13 
-4.66251 -2.82843 -1.71915e-13 
-4.44418 -2.82843 -2.20578e-13 
-4.2295 -2.82843 -2.94127e-13 
-4.01176 -2.82843 -3.89614e-13 
-3.80186 -2.82843 -4.9345e-13 
-3.58483 -2.82843 -6.21422e-13 
-3.37246 -2.82843 -7.85185e-13 
-3.14912 -2.82843 -9.64467e-13 
-2.93866 -2.82843 -1.17143e-12 
-2.72721 -2.82843 -1.35523e-12 
-2.53152 -2.82843 -1.6595e-12 
-2.31998 -2.82843 -1.84665e-12 
-2.10977 -2.82843 -1.87293e-12 
-1.89898 -2.82843 -1.67024e-12 
-1.6926 -2.82843 -1.36382e-12 
-1.49161 -2.82843 -8.03712e-13 
-1.27408 -2.82843 -7.4079e-13 
-1.09698 -2.82843 -4.84606e-14 
-0.847978 -2.82843 -7.76147e-13 
-0.626785 -2.82843 -1.84285e-13 
-0.443772 -2.82843 -1.9686e-12 
-0.232713 -2.82843 -1.89268e-12 
0.0229248 -2.82843 1.92552e-12 
0.229297 -2.82843 1.60144e-12 
0.420923 -2.82843 5.79978e-13 
0.635603 -2.82843 6.88024e-13 
0.869719 -2.82843 8.80251e-13 
1.08015 -2.82843 3.8347e-13 
1.26592 -2.82843 3.96329e-13 
1.44213 -2.82843 1.19454e-12 
1.70111 -2.82843 1.51857e-12 
1.88378 -2.82843 1.76141e-12 
2.10072 -2.82843 2.01143e-12 
2.33171 -2.82843 1.80114e-12 
2.51946 -2.82843 1.69602e-12 
2.7453 -2.82843 1.50927e-12 
2.96463 -2.82843 1.12129e-12 
3.17591 -2.82843 8.88939e-13 
3.3834 -2.82843 7.7703e-13 
3.61115 -2.82843 6.13885e-13 
3.81404 -2.82843 4.67967e-13 
4.02854 -2.82843 3.89418e-13 
4.25427 -2.82843 2.96298e-13 
4.4521 -2.82843 2.24385e-13 
4.66379 -2.82843 1.68175e-13 
4.87235 -2.82843 1.47049e-13 
5.07428 -2.82843 7.53058e-14 
5.28964 -2.82843 2.71214e-14 
5.50028 -2.82843 -1.19856e-14 
5.70356 -2.82843 -9.21058e-14 
5.92231 -2.82843 -1.84225e-13 
6.14286 -2.82843 -2.55694e-13 
6.34138 -2.82843 -3.98622e-13 
6.58087 -2.82843 -6.12079e-13 
6.79048 -2.82843 -7.59822e-13 
6.99157 -2.82843 -9.86609e-13 
7.25201 -2.82843 -1.28588e-12 
7.48139 -2.82843 -1.43645e-12 
7.72398 -2.82843 -1.96556e-12 
7.99318 -2.82843 -2.49012e-12 
8.1811 -2.82843 -3.30996e-12 
8.48528 -2.82843 -2.69767e-13 
-8.48528 -2.60123 6.71224e-13 
-8.25289 -2.58543 5.02941e-14 
-8.01765 -2.58595 4.12121e-14 
-7.77972 -2.62687 4.16462e-14 
-7.51638 -2.63138 4.08847e-14 
-7.2323 -2.60445 2.91177e-14 
-6.9892 -2.59986 2.22551e-14 
-6.77201 -2.58815 1.49905e-14 
-6.54001 -2.59899 1.45071e-14 
-6.33254 -2.57323 8.759e-15 
-6.11066 -2.59829 6.98878e-15 
-5.89254 -2.59271 5.07682e-15 
-5.68322 -2.57708 3.2451e-15 
-5.46549 -2.59419 1.5032e-15 
-5.24963 -2.58775 -1.87188e-15 
-5.03054 -2.59489 -1.38443e-15 
-4.81994 -2.58167 -2.53589e-15 
-4.60155 -2.59721 -4.61334e-15 
-4.383 -2.59244 -6.04026e-15 
-4.16463 -2.59435 -8.13217e-15 
-3.95318 -2.58328 -9.72493e-15 
-3.73979 -2.59041 -1.31731e-14 
-3.52713 -2.58795 -1.62334e-14 
-3.30931 -2.60145 -2.20027e-14 
-3.09627 -2.59349 -2.54247e-14 
-2.88405 -2.59887 -3.21962e-14 
-2.6822 -2.58669 -3.42811e-14 
-2.47312 -2.60713 -4.67444e-14 
-2.25732 -2.60331 -4.87436e-14 
-2.04649 -2.60374 -5.07841e-14 
-1.83271 -2.59821 -4.72436e-14 
-1.62155 -2.58603 -3.75503e-14 
-1.41491 -2.59666 -3.32545e-14 
-1.23495 -2.51685 1.90944e-14 
-1.01541 -2.62429 1.10369e-14 
-0.784894 -2.58807 2.5072e-14 
-0.585873 -2.52425 1.42758e-14 
-0.380303 -2.49264 2.3259e-14 
-0.164845 -2.55147 2.28283e-14 
0.0209774 -2.46181 -1.26705e-14 
0.207404 -2.52752 1.66834e-14 
0.415117 -2.50447 -1.66291e-14 
0.611653 -2.568 -1.37969e-14 
0.8376 -2.57893 -2.45235e-14 
1.065 -2.57244 -1.273e-14 
1.27334 -2.55211 3.38673e-15 
1.51799 -2.65424 6.03702e-14 
1.72197 -2.58266 2.6692e-14 
1.93582 -2.61685 5.35546e-14 
2.16731 -2.62636 5.97955e-14 
2.37355 -2.58005 3.44117e-14 
2.58445 -2.61486 4.4682e-14 
2.80706 -2.6063 3.5557e-14 
3.01494 -2.59179 2.70816e-14 
3.22274 -2.58462 2.14688e-14 
3.44518 -2.6059 2.01524e-14 
3.65201 -2.5778 1.31663e-14 
3.86566 -2.59146 1.1498e-14 
4.09202 -2.60369 9.74133e-15 
4.29921 -2.57308 6.3279e-15 
4.51337 -2.59168 5.12578e-15 
4.72717 -2.58789 3.51084e-15 
4.93891 -2.58266 2.00187e-15 
5.15354 -2.59692 -2.017e-14 
5.37257 -2.59203 2.79157e-14 
5.58388 -2.58242 -2.35141e-15 
5.8005 -2.59779 -4.39815e-15 
6.0254 -2.59783 -6.40168e-15 
6.2387 -2.56975 -7.69957e-15 
6.45811 -2.61166 -1.34737e-14 
6.68486 -2.57851 -1.40015e-14 
6.89363 -2.56453 -1.64344e-14 
7.12039 -2.6241 -3.03102e-14 
7.37017 -2.59365 -2.97904e-14 
7.60723 -2.60434 -3.69698e-14 
7.86339 -2.62553 -4.82254e-14 
8.07767 -2.53342 -2.40747e-14 
8.30127 -2.64304 -6.36293e-14 
8.48528 -2.52494 -8.63391e-13 
-8.48528 -2.36063 9.02018e-13 
-8.24101 -2.35387 7.70528e-15 
-8.00028 -2.34461 5.08146e-15 
-7.75748 -2.40575 8.80001e-15 
-7.5663 -2.24291 7.80552e-15 
-7.45904 -2.44183 1.365e-14 
-7.17779 -2.39248 1.00811e-14 
-6.94982 -2.3506 7.32794e-15 
-6.7038 -2.37385 4.59124e-15 
-6.48623 -2.34967 3.9799e-15 
-6.24314 -2.35561 3.74715e-15 
-6.02654 -2.36145 2.72103e-15 
-5.81131 -2.34405 1.89377e-15 
-5.58237 -2.35034 -3.72222e-14 
-5.36657 -2.35513 -1.48866e-14 
-5.14177 -2.35913 3.53425e-15 
-4.92783 -2.34711 2.14741e-14 
-4.70314 -2.35877 3.95285e-14 
-4.48533 -2.3627 -1.7397e-15 
-4.26279 -2.36069 -2.52045e-15 
-4.04956 -2.34661 -3.07742e-15 
-3.83278 -2.34766 -3.91741e-15 
-3.62091 -2.35016 -4.99435e-15 
-3.40294 -2.36399 -6.41629e-15 
-3.19186 -2.36373 -8.16773e-15 
-2.97603 -2.36673 -1.00759e-14 
-2.7701 -2.35391 -1.18173e-14 
-2.55733 -2.37022 -1.43203e-14 
-2.34857 -2.3867 -1.72303e-14 
-2.1282 -2.37313 -1.8187e-14 
-1.91659 -2.37655 -1.57536e-14 
-1.69522 -2.36277 -9.5924e-15 
-1.47237 -2.34247 -6.37332e-15 
-1.24792 -2.27648 -1.59166e-14 
-1.01531 -2.39075 5.17104e-15 
-0.817167 -2.31973 1.67833e-14 
-0.604811 -2.24622 2.35977e-14 
-0.406927 -2.16689 4.99417e-14 
-0.194015 -2.21483 1.60584e-14 
0.0442087 -2.16454 -2.69276e-14 
0.263963 -2.20898 -6.02932e-14 
0.445436 -2.13587 -1.74782e-14 
0.609843 -2.27386 1.70388e-14 
0.813351 -2.31307 -4.58505e-14 
1.04176 -2.32143 -2.12306e-14 
1.2621 -2.29902 -6.33882e-15 
1.47237 -2.4367 9.89403e-15 
1.65754 -2.35104 9.41242e-15 
1.87554 -2.38152 1.91039e-14 
2.0844 -2.41426 2.19903e-14 
2.29388 -2.37261 1.86516e-14 
2.52988 -2.37486 1.52079e-14 
2.73402 -2.39175 1.28847e-14 
2.94981 -2.35488 1.04694e-14 
3.15377 -2.34672 8.28427e-15 
3.3726 -2.37215 6.8056e-15 
3.57809 -2.34086 5.09763e-15 
3.79248 -2.34792 3.97434e-15 
4.00895 -2.37347 3.33847e-15 
4.21759 -2.33791 2.43884e-15 
4.43844 -2.34836 1.79084e-15 
4.64862 -2.34975 -4.51133e-14 
4.86145 -2.34682 -2.56288e-14 
5.07974 -2.35479 -1.30053e-14 
5.29158 -2.36386 7.17376e-15 
5.50838 -2.34584 2.50762e-14 
5.72725 -2.35737 4.74812e-14 
5.94437 -2.36961 -2.11781e-15 
6.16034 -2.33863 -2.81906e-15 
6.39386 -2.3608 -3.76184e-15 
6.60262 -2.35891 -4.78599e-15 
6.82832 -2.31456 -5.14634e-15 
7.05828 -2.3712 -7.45324e-15 
7.27736 -2.39108 -9.48778e-15 
7.5386 -2.37047 -9.95541e-15 
7.78181 -2.40434 -8.74381e-15 
7.99767 -2.30978 -3.23178e-15 
8.26148 -2.37005 -1.00393e-14 
8.48528 -2.277 -5.29162e-13 
-8.48528 -2.09364 6.95075e-13 
-8.26894 -2.11212 5.18146e-15 
-8.05293 -2.09759 -1.83352e-15 
-7.80314 -2.15521 1.80835e-15 
-7.50824 -2.03062 3.6025e-15 
-7.30477 -2.21894 5.45019e-15 
-7.06172 -2.13109 1.71143e-15 
-6.80415 -2.14764 2.75418e-15 
-6.58805 -2.12041 2.24999e-15 
-6.35128 -2.14041 2.00993e-15 
-6.12218 -2.11568 -3.57198e-14 
-5.91569 -2.11147 -3.3253e-14 
-5.69 -2.12255 -1.46391e-14 
-5.46783 -2.11306 5.09463e-16 
-5.2507 -2.12779 5.97879e-15 
-5.03682 -2.11412 1.33747e-14 
-4.81312 -2.12519 1.57614e-14 
-4.59568 -2.12711 2.41623e-14 
-4.3783 -2.13212 3.50614e-14 
-4.16687 -2.11428 -1.45759e-15 
-3.95158 -2.11116 -1.5922e-15 
-3.73936 -2.10957 -2.07788e-15 
-3.52469 -2.12434 -2.83594e-15 
-3.31577 -2.12762 -3.2296e-15 
-3.10323 -2.1357 -4.24781e-15 
-2.8972 -2.12587 -4.87429e-15 
-2.68137 -2.13165 -5.78831e-15 
-2.47142 -2.14436 -6.45031e-15 
-2.26149 -2.16166 -9.77288e-15 
-2.03925 -2.13906 -1.1674e-14 
-1.82285 -2.1495 -1.00739e-14 
-1.5991 -2.1258 2.62104e-15 
-1.38107 -2.07779 1.27138e-14 
-1.16407 -1.93961 3.57611e-15 
-1.05523 -2.13543 2.87603e-14 
-0.820275 -2.0658 -1.59327e-14 
-0.596933 -1.95639 5.37267e-14 
-0.326742 -1.88693 1.18713e-14 
-0.0933596 -1.91238 1.49016e-14 
0.072955 -1.6163 1.04869e-14 
0.174185 -1.87912 -2.63927e-14 
0.319994 -1.59198 3.2246e-14 
0.441916 -1.87864 -1.98561e-14 
0.709334 -1.98633 -6.66242e-14 
0.931149 -2.06279 -1.22758e-14 
1.1644 -2.05714 -2.15918e-15 
1.44267 -2.17856 3.66584e-15 
1.675 -2.12506 3.28179e-15 
1.89538 -2.15511 1.27406e-14 
2.11217 -2.18009 1.136e-14 
2.3603 -2.17415 5.83272e-15 
2.57636 -2.13822 6.61451e-15 
2.78022 -2.1565 7.10039e-15 
2.9873 -2.10725 4.21791e-15 
3.20884 -2.12731 3.77416e-15 
3.40939 -2.12256 2.78137e-15 
3.62559 -2.10627 1.76194e-15 
3.84346 -2.12075 1.80677e-15 
4.04562 -2.12423 -4.71303e-14 
4.27309 -2.11122 -3.57666e-14 
4.48366 -2.10768 -2.1554e-14 
4.6971 -2.1112 -9.77181e-15 
4.91569 -2.11776 -9.99325e-15 
5.12994 -2.11765 -6.08613e-15 
5.34152 -2.12738 7.2568e-16 
5.56563 -2.1168 8.68313e-15 
5.78323 -2.12553 2.27772e-14 
5.99382 -2.12531 4.07629e-14 
6.23476 -2.124 -1.4631e-15 
6.44484 -2.10876 -1.62497e-15 
6.65803 -2.11416 -2.15433e-15 
6.91439 -2.10386 -2.1392e-15 
7.13075 -2.13268 -3.42126e-15 
7.36339 -2.17739 -5.3884e-15 
7.55662 -2.0815 -2.96689e-15 
7.74019 -2.17178 -2.61349e-15 
7.95566 -2.07512 3.31159e-15 
8.20406 -2.14609 2.12432e-14 
8.48528 -2.08013 -2.87595e-13 
-8.48528 -1.80939 5.71762e-13 
-8.2955 -1.85329 -1.68212e-14 
-7.88435 -1.90852 -7.46851e-15 
-7.66902 -1.90345 -2.50343e-15 
[...]
POINT_DATA 1978 
VECTORS vectors float
-7.55689e-07 -0.00167713 0.999999 
0.000363722 -0.111289 0.993788 
0.000468097 -0.107171 0.994241 
0.00102589 -0.0842501 0.996444 
0.000800453 -0.0625672 0.99804 
0.000468481 -0.0491149 0.998793 
0.000390235 -0.0400503 0.999198 
0.000259665 -0.0302179 0.999543 
0.000289273 -0.0219365 0.999759 
0.000248052 -0.0158165 0.999875 
0.000261424 -0.0120533 0.999927 
0.000190835 -0.00775026 0.99997 
0.000224958 -0.00352417 0.999994 
0.000259018 -0.00117313 0.999999 
0.000228605 0.0005378 1 
0.000247669 0.00237563 0.999997 
0.00024399 0.00424871 0.999991 
0.000272324 0.00598351 0.999982 
0.000248032 0.00809728 0.999967 
0.000264218 0.0109579 0.99994 
0.000256221 0.0146307 0.999893 
0.000261975 0.0190797 0.999818 
0.000255205 0.0250595 0.999686 
0.000262914 0.032673 0.999466 
0.000230399 0.0435034 0.999053 
0.000222425 0.0572625 0.998359 
0.000196778 0.075726 0.997129 
0.000198937 0.0979954 0.995187 
0.000153419 0.128669 0.991688 
0.000151065 0.167446 0.985881 
0.000130187 0.215953 0.976404 
0.00011004 0.275444 0.961317 
6.19943e-05 0.346662 0.93799 
2.13665e-05 0.442146 0.896943 
-1.79044e-05 0.538947 0.84234 
-9.85423e-06 0.673614 0.739083 
-5.45813e-05 0.79906 0.601251 
-4.53253e-05 0.8881 0.459651 
-1.25309e-05 0.968053 0.250745 
-5.73154e-06 0.999494 -0.0317986 
3.64395e-05 0.96827 -0.249906 
3.15635e-05 0.899925 -0.436046 
3.93242e-05 0.797946 -0.602729 
6.38779e-05 0.661989 -0.749513 
-1.5313e-05 0.539426 -0.842033 
-4.13358e-05 0.44663 -0.894719 
-0.00011885 0.367123 -0.930173 
-9.78979e-05 0.273172 -0.961965 
-0.000208203 0.220699 -0.975342 
-0.000160238 0.170084 -0.98543 
-0.000194548 0.127009 -0.991902 
-0.000270186 0.0999043 -0.994997 
-0.000206872 0.0741796 -0.997245 
-0.000256584 0.0548672 -0.998494 
-0.000252449 0.0414851 -0.999139 
-0.000254195 0.0320672 -0.999486 
-0.000233937 0.0240855 -0.99971 
-0.000278715 0.0184948 -0.999829 
-0.000240891 0.0142525 -0.999898 
-0.000225205 0.0106479 -0.999943 
-0.00024968 0.00827452 -0.999966 
-0.00019866 0.00635365 -0.99998 
-0.000219147 0.00427883 -0.999991 
-0.000220646 0.00250051 -0.999997 
-0.000213748 0.000649798 -1 
-0.000246741 -0.00135971 -0.999999 
-0.000246849 -0.00364146 -0.999993 
-0.000241332 -0.0070051 -0.999975 
-0.000287765 -0.0110644 -0.999939 
-0.000269477 -0.015957 -0.999873 
-0.000263434 -0.0235595 -0.999722 
-0.000337733 -0.0310508 -0.999518 
-0.000400239 -0.0387977 -0.999247 
-0.000477091 -0.050215 -0.998738 
-0.000501358 -0.0632741 -0.997996 
-0.000624913 -0.081885 -0.996642 
-0.000519835 -0.107318 -0.994225 
-0.000417181 -0.114079 -0.993472 
-0.000146585 -0.000504514 -1 
0.00155572 0.000725869 0.999999 
0.0587983 -0.093188 0.993911 
0.0632735 -0.0988464 0.993089 
0.0621623 -0.088547 0.99413 
0.0645969 -0.0686294 0.995549 
0.0690967 -0.0512561 0.996292 
0.0721872 -0.040327 0.996576 
0.0739821 -0.0314974 0.996762 
0.0748277 -0.0225174 0.996942 
0.0787654 -0.0169448 0.996749 
0.0776483 -0.0121421 0.996907 
0.0786469 -0.00765684 0.996873 
0.0810213 -0.0043177 0.996703 
0.0804861 -0.00172402 0.996754 
0.0818458 0.000337899 0.996645 
0.0816269 0.00249681 0.99666 
0.0831764 0.00459127 0.996524 
0.081423 0.00691208 0.996656 
0.0811695 0.00965351 0.996654 
0.0799432 0.0130557 0.996714 
0.0795236 0.0172358 0.996684 
0.0773513 0.0224088 0.996752 
0.0758388 0.029135 0.996694 
0.0726477 0.0380473 0.996632 
0.071072 0.0500551 0.996214 
0.0678776 0.0657455 0.995525 
0.0653611 0.0856076 0.994183 
0.0594521 0.111 0.992041 
0.0537753 0.145443 0.987904 
0.0465684 0.188451 0.980978 
0.0382326 0.242921 0.969292 
0.0290519 0.308209 0.950875 
0.0185029 0.389858 0.920689 
0.0102513 0.477949 0.878328 
0.000304315 0.593832 0.804589 
-0.00552184 0.715218 0.698879 
-0.00739692 0.813898 0.580961 
-0.00738722 0.906766 0.42157 
-0.00398846 0.980282 0.197562 
9.6131e-05 0.99993 -0.0118107 
0.00406183 0.975436 -0.220246 
0.00616406 0.90942 -0.415834 
0.00676339 0.81443 -0.580223 
0.00413245 0.688722 -0.725014 
-0.00302987 0.560492 -0.828155 
-0.0121766 0.453944 -0.890947 
-0.0227174 0.345903 -0.937995 
-0.0333775 0.27971 -0.959504 
-0.0415344 0.215941 -0.975523 
-0.0496355 0.163188 -0.985346 
-0.0577483 0.128849 -0.989981 
-0.0605202 0.0971889 -0.993424 
-0.0658585 0.0726589 -0.99518 
-0.0698376 0.055293 -0.996025 
-0.0730167 0.0424349 -0.996428 
-0.0738127 0.0319032 -0.996762 
-0.0777402 0.0249238 -0.996662 
-0.0781877 0.0190723 -0.996756 
-0.0787074 0.0143012 -0.996795 
-0.0825693 0.0110534 -0.996524 
-0.0817398 0.00818947 -0.99662 
-0.0825792 0.00570341 -0.996568 
-0.0832485 0.00336508 -0.996523 
-0.0814102 0.0012174 -0.99668 
-0.0814718 -0.00103004 -0.996675 
-0.0814389 -0.00340299 -0.996673 
-0.0789844 -0.00617608 -0.996857 
-0.0779015 -0.00992175 -0.996912 
-0.0789822 -0.0145006 -0.996771 
-0.0741706 -0.0202132 -0.997041 
-0.0758309 -0.0277121 -0.996736 
-0.0753352 -0.0354306 -0.996529 
-0.0689902 -0.0447707 -0.996612 
-0.0691099 -0.0579651 -0.995924 
-0.0656601 -0.0737565 -0.995112 
-0.062004 -0.0931901 -0.993716 
-0.0658778 -0.100447 -0.992759 
-0.0575985 -0.0918292 -0.994108 
-0.00108451 0.000613467 -0.999999 
0.000216718 0.000437171 1 
0.0607319 -0.0914181 0.993959 
0.0680619 -0.0977309 0.992883 
0.0703229 -0.0846457 0.993926 
0.0725671 -0.0730651 0.994684 
0.0740425 -0.0633107 0.995243 
0.0786339 -0.0486773 0.995714 
0.0802864 -0.038422 0.996031 
0.0825037 -0.0292637 0.996161 
0.0841744 -0.0219428 0.996209 
0.0860824 -0.0153435 0.99617 
0.0867962 -0.0108093 0.996167 
0.0878297 -0.00731308 0.996109 
0.089105 -0.00428816 0.996013 
0.0901451 -0.00179135 0.995927 
0.0910452 0.000754213 0.995846 
0.0914781 0.00324274 0.995802 
0.0916771 0.00606062 0.99577 
0.0911318 0.00898508 0.995798 
0.0899608 0.0124229 0.995868 
0.0882498 0.0165536 0.995961 
0.0861868 0.0216464 0.996044 
0.0839545 0.0279461 0.996078 
0.0816153 0.0363425 0.996001 
0.0790211 0.0472183 0.995754 
0.0759666 0.0619892 0.995182 
0.0721968 0.0807251 0.994118 
0.0676055 0.105077 0.992163 
0.0617923 0.135297 0.988876 
0.0537154 0.177261 0.982697 
0.0444675 0.228332 0.972567 
0.0332839 0.294795 0.954981 
0.0222115 0.373691 0.927287 
0.0111178 0.470356 0.882407 
0.0025017 0.581284 0.813697 
-0.00421823 0.696365 0.717676 
-0.00815366 0.817318 0.576129 
-0.00816081 0.915733 0.401705 
-0.00556799 0.972997 0.23075 
-0.002311 0.999997 -0.000918395 
0.00185452 0.970643 -0.240519 
0.00349372 0.892704 -0.45063 
0.00493689 0.799098 -0.60118 
0.00273015 0.689164 -0.7246 
-0.00363693 0.568759 -0.822496 
-0.0122681 0.465852 -0.884777 
-0.0231436 0.372106 -0.927902 
-0.0317285 0.308448 -0.950712 
-0.0430364 0.238699 -0.97014 
-0.0522939 0.18462 -0.981418 
-0.059664 0.145189 -0.987603 
-0.066576 0.108958 -0.991814 
-0.0716103 0.0836623 -0.993918 
-0.0755575 0.0638224 -0.995097 
-0.0786284 0.0494524 -0.995677 
-0.0816011 0.0374615 -0.995961 
-0.08371 0.0295182 -0.996053 
-0.085986 0.0228276 -0.996035 
-0.0880959 0.0173748 -0.99596 
-0.0894885 0.0135223 -0.995896 
-0.090767 0.0099127 -0.995823 
-0.0915436 0.00693646 -0.995777 
-0.091717 0.00413293 -0.995777 
-0.0914715 0.00138994 -0.995807 
-0.0908621 -0.00106862 -0.995863 
-0.0896824 -0.00369492 -0.995964 
-0.0886195 -0.0064038 -0.996045 
-0.0874669 -0.00955507 -0.996122 
-0.0859566 -0.0137058 -0.996205 
-0.0847746 -0.0192444 -0.996214 
-0.083563 -0.0255014 -0.996176 
-0.0811714 -0.0337588 -0.996128 
-0.0800496 -0.0431371 -0.995857 
-0.077895 -0.0539804 -0.995499 
-0.0743204 -0.0704458 -0.994743 
-0.0716196 -0.0878719 -0.993554 
-0.0684242 -0.0992569 -0.992707 
-0.0605737 -0.0885283 -0.99423 
-0.000594289 0.000159123 -1 
0.000903545 0.000904955 0.999999 
0.051269 -0.0877936 0.994818 
0.0581322 -0.0993625 0.993352 
0.064075 -0.0892993 0.993942 
0.0631574 -0.0714067 0.995446 
0.0744828 -0.0573757 0.99557 
0.0716788 -0.0452696 0.9964 
0.0741771 -0.0333373 0.996688 
0.0755903 -0.0260678 0.996798 
0.0777873 -0.019035 0.996788 
0.076275 -0.0139014 0.99699 
0.0776571 -0.010295 0.996927 
0.0794146 -0.00705175 0.996817 
0.0797058 -0.00430365 0.996809 
0.0817936 -0.00146978 0.996648 
0.0814734 0.0013717 0.996675 
0.0827332 0.004654 0.996561 
0.0826941 0.00792679 0.996543 
0.082126 0.0114034 0.996557 
0.0800059 0.0153183 0.996677 
0.0778424 0.0201073 0.996763 
0.0755895 0.0258962 0.996803 
0.074132 0.033362 0.99669 
0.071619 0.0429529 0.996507 
0.0693307 0.0557374 0.996035 
0.0656989 0.0721829 0.995225 
0.0618156 0.0942115 0.993631 
0.0573589 0.121615 0.990919 
0.0522777 0.155842 0.986398 
0.0432935 0.203099 0.978201 
0.0340932 0.261479 0.964607 
0.0224443 0.339742 0.940251 
0.0122363 0.425533 0.90486 
0.00178046 0.535971 0.844235 
0.00135849 0.571761 0.820419 
-0.00551648 0.700959 0.71318 
-0.00863311 0.820352 0.571794 
-0.00815094 0.926197 0.376951 
-0.00503337 0.992297 0.123781 
-0.00209528 0.996882 -0.0788801 
-6.36279e-05 0.975174 -0.22144 
0.00256753 0.940553 -0.339636 
0.00360808 0.862137 -0.506663 
0.00361795 0.737097 -0.675778 
0.000436322 0.626623 -0.779322 
-0.00561248 0.516179 -0.856463 
-0.0180853 0.394215 -0.91884 
-0.0263922 0.311263 -0.949957 
-0.0380353 0.241014 -0.969776 
-0.0473433 0.186361 -0.98134 
-0.0545984 0.138535 -0.988851 
-0.0599339 0.106938 -0.992458 
-0.0654462 0.082127 -0.994471 
-0.066509 0.064109 -0.995724 
-0.0708124 0.0485105 -0.996309 
-0.0728473 0.0381587 -0.996613 
-0.07428 0.0297568 -0.996793 
-0.0776065 0.0229797 -0.996719 
-0.0794556 0.0180644 -0.996675 
-0.0804325 0.0135375 -0.996668 
-0.0810095 0.00993505 -0.996664 
-0.0817878 0.00659516 -0.996628 
-0.0823477 0.00323946 -0.996598 
-0.0816394 0.00013224 -0.996662 
-0.0815577 -0.00267045 -0.996665 
-0.0797331 -0.00559665 -0.996801 
-0.0790289 -0.00841339 -0.996837 
-0.0780219 -0.0115977 -0.996884 
-0.0768618 -0.0163086 -0.996908 
-0.0747173 -0.0216787 -0.996969 
-0.0740094 -0.0283356 -0.996855 
-0.071661 -0.0382987 -0.996693 
-0.0715601 -0.048167 -0.996273 
-0.0719014 -0.0609307 -0.995549 
-0.0649478 -0.0745499 -0.9951 
-0.0668169 -0.0871088 -0.993956 
-0.0594853 -0.100424 -0.993165 
-0.0562456 -0.0946666 -0.993919 
-0.00100988 0.000139307 -0.999999 
0.0005157 0.000762558 1 
0.0384031 -0.0875126 0.995423 
0.0506392 -0.0993634 0.993762 
0.0528744 -0.0843583 0.995032 
0.0499447 -0.0675623 0.996464 
0.0625787 -0.0570698 0.996407 
0.0540006 -0.0499653 0.99729 
0.0622623 -0.0398173 0.997265 
0.0597519 -0.0309377 0.997734 
0.0636399 -0.0235303 0.997695 
0.0639162 -0.0178419 0.997796 
0.0612349 -0.0136988 0.998029 
0.0645983 -0.0101866 0.997859 
0.0656841 -0.00720863 0.997814 
0.0662403 -0.00415599 0.997795 
0.0671191 -0.00108852 0.997744 
0.0681697 0.00263232 0.99767 
0.0683927 0.00632777 0.997638 
0.0683985 0.0100545 0.997607 
0.0666615 0.0139026 0.997679 
0.0650606 0.0183007 0.997713 
0.0629104 0.0235435 0.997741 
0.0617023 0.030079 0.997641 
0.0598556 0.0381946 0.997476 
0.0580247 0.0489169 0.997116 
0.0554277 0.0625436 0.996502 
0.0524772 0.0807565 0.995351 
0.0484929 0.104156 0.993378 
0.0443729 0.133664 0.990033 
0.039727 0.171271 0.984423 
0.0308049 0.226484 0.973528 
0.0226425 0.293195 0.955784 
0.0127773 0.370636 0.92869 
0.00446229 0.462391 0.886665 
-0.00514164 0.659051 0.752081 
-0.00763918 0.771413 0.636289 
-0.00765746 0.877288 0.479904 
-0.00591787 0.936249 0.351287 
-0.00635531 0.975912 0.218071 
-0.00355031 0.999416 0.0339834 
4.14165e-05 0.968817 -0.247778 
0.00347056 0.88911 -0.45768 
0.00489621 0.811568 -0.584238 
0.00353048 0.699365 -0.714756 
0.000453466 0.592008 -0.805932 
-0.0030856 0.497685 -0.867352 
-0.0108775 0.422373 -0.906357 
-0.0148877 0.353762 -0.935217 
-0.0245205 0.274935 -0.96115 
-0.0340081 0.213742 -0.976298 
-0.0422348 0.163205 -0.985688 
-0.0459195 0.122812 -0.991367 
-0.0512121 0.0934958 -0.994302 
-0.0530456 0.0738284 -0.995859 
-0.0570771 0.0555074 -0.996826 
-0.0583288 0.0433685 -0.997355 
-0.0604424 0.0341953 -0.997586 
-0.0630312 0.0264526 -0.997661 
-0.0640525 0.0209097 -0.997727 
-0.0668643 0.016158 -0.997631 
-0.0662109 0.0119333 -0.997734 
-0.0669807 0.00809865 -0.997721 
-0.0680577 0.00429193 -0.997672 
-0.0673263 0.000643423 -0.997731 
-0.067002 -0.00276237 -0.997749 
-0.0666675 -0.00570127 -0.997759 
-0.0649909 -0.00880336 -0.997847 
-0.063617 -0.0118792 -0.997904 
-0.0645502 -0.0155082 -0.997794 
-0.0605081 -0.0208465 -0.99795 
-0.0596516 -0.0271733 -0.997849 
-0.0606372 -0.0350492 -0.997544 
-0.0574698 -0.0465115 -0.997263 
-0.0591696 -0.0584504 -0.996535 
-0.0529351 -0.0741129 -0.995844 
-0.0521532 -0.0922973 -0.994365 
-0.0460978 -0.103781 -0.993531 
-0.0435005 -0.0923202 -0.994779 
-0.000187495 0.000239145 -1 
0.000434701 0.000449278 1 
0.0280295 -0.0912977 0.995429 
0.0423723 -0.101936 0.993888 
0.0393996 -0.100373 0.994169 
0.0414665 -0.0843738 0.995571 
0.0428838 -0.0596574 0.997297 
0.0454852 -0.0440559 0.997993 
0.0482854 -0.0359826 0.998185 
0.0491196 -0.0267649 0.998434 
0.0504326 -0.0209401 0.998508 
0.0497842 -0.0165762 0.998622 
0.0502292 -0.0126417 0.998658 
0.0524728 -0.00962709 0.998576 
0.0537259 -0.00651668 0.998534 
0.0532913 -0.00314385 0.998574 
0.0553081 0.000722763 0.998469 
0.0552631 0.00485562 0.99846 
0.0552626 0.00893959 0.998432 
0.0540141 0.0129019 0.998457 
0.0527616 0.0172338 0.998458 
0.0512801 0.0221658 0.998438 
0.0502331 0.0283152 0.998336 
0.0486073 0.0359267 0.998172 
0.0472414 0.0458206 0.997832 
0.0449999 0.058752 0.997258 
0.0426301 0.0759053 0.996203 
0.0390941 0.0985456 0.994364 
0.034937 0.128607 0.99108 
0.030587 0.166878 0.985503 
0.0247291 0.216023 0.976075 
0.0156179 0.292479 0.956145 
0.00660372 0.387206 0.92197 
-0.0009292 0.504837 0.863214 
-0.00535644 0.629606 0.776896 
-0.00340915 0.586614 0.809859 
-0.00698483 0.701034 0.713093 
-0.00691581 0.796446 0.60467 
-0.00467875 0.866727 0.49876 
-0.00127522 0.976455 0.215718 
-0.000736094 0.998002 -0.0631753 
0.00161114 0.998718 -0.0505949 
0.00284497 0.957925 -0.287004 
0.00295012 0.874182 -0.48559 
0.00493849 0.753818 -0.657064 
0.0033525 0.627478 -0.778627 
0.000688261 0.516008 -0.856583 
-0.00542902 0.418002 -0.90843 
-0.011427 0.329911 -0.943943 
-0.0193389 0.257685 -0.966035 
-0.0279181 0.198672 -0.979668 
-0.0337824 0.153469 -0.987576 
-0.0375214 0.114326 -0.992735 
-0.0394691 0.0904298 -0.99512 
-0.044251 0.0678971 -0.996711 
-0.0458614 0.0526599 -0.997559 
-0.0470678 0.0412584 -0.998039 
-0.0499707 0.0321219 -0.998234 
-0.0506344 0.025616 -0.998389 
-0.0520479 0.0201168 -0.998442 
-0.0542639 0.0155346 -0.998406 
-0.0534864 0.0112185 -0.998506 
-0.0545544 0.00698959 -0.998486 
-0.0545667 0.00296953 -0.998506 
-0.0543635 -0.00109677 -0.998521 
-0.0535477 -0.00470324 -0.998554 
-0.053795 -0.00782238 -0.998521 
-0.0515589 -0.0109581 -0.99861 
-0.0510287 -0.014182 -0.998596 
-0.05061 -0.0178357 -0.998559 
-0.0472442 -0.0233801 -0.99861 
-0.0470081 -0.030336 -0.998434 
-0.0485563 -0.0391006 -0.998055 
-0.04367 -0.0490998 -0.997839 
-0.0464388 -0.059866 -0.997126 
-0.0414074 -0.0760509 -0.996244 
-0.0415182 -0.0935778 -0.994746 
-0.0360752 -0.105831 -0.99373 
-0.0320307 -0.0919575 -0.995248 
-0.000474475 0.000180971 -1 
0.000323696 0.000169289 1 
0.0221323 -0.0975573 0.994984 
0.0320971 -0.106128 0.993834 
0.0306132 -0.0957068 0.994939 
0.0355058 -0.0747542 0.99657 
0.0315866 -0.062155 0.997567 
0.0364613 -0.0500751 0.99808 
0.034468 -0.0391766 0.998638 
0.0393261 -0.0315694 0.998728 
0.0381701 -0.0245279 0.99897 
0.0387913 -0.0198302 0.999051 
0.0406226 -0.0156467 0.999052 
0.0404716 -0.0124424 0.999103 
0.0427065 -0.00937114 0.999044 
0.0434217 -0.00606614 0.999038 
0.0436895 -0.00187952 0.999043 
0.0449035 0.00231329 0.998989 
0.0447409 0.00674633 0.998976 
0.0437723 0.0108212 0.998983 
0.043019 0.0149683 0.998962 
0.0419703 0.0194494 0.99893 
0.041292 0.0247196 0.998841 
0.0401881 0.0310613 0.998709 
0.0389588 0.0392019 0.998472 
0.037578 0.0496931 0.998057 
0.0356237 0.0639236 0.997319 
0.033096 0.0824893 0.996042 
0.0297144 0.107793 0.993729 
0.0255391 0.141376 0.989627 
0.0210413 0.184182 0.982667 
0.0156896 0.243695 0.969725 
0.00771786 0.328029 0.944636 
0.00108105 0.43313 0.901331 
-0.00300049 0.54137 0.840779 
-0.00552972 0.737167 0.675688 
-0.00304843 0.858973 0.512011 
-0.00111411 0.932986 0.359911 
-0.00332655 0.984763 0.173868 
-0.000187331 0.946215 0.323538 
0.00155133 0.988937 0.148327 
8.90156e-05 0.999119 0.0419616 
-0.00321217 0.978162 -0.207819 
0.00397173 0.89318 -0.449681 
0.00528904 0.772857 -0.634558 
0.00562842 0.727028 -0.686585 
0.00527172 0.590366 -0.807119 
-0.00151012 0.42115 -0.90699 
-0.00632316 0.335281 -0.942097 
-0.0125471 0.26198 -0.964992 
-0.0196252 0.203577 -0.978862 
-0.0217659 0.168274 -0.9855 
-0.02787 0.135411 -0.990397 
-0.0285846 0.106583 -0.993893 
-0.0337602 0.0797718 -0.996241 
-0.0360088 0.0613885 -0.997464 
-0.0373213 0.0476002 -0.998169 
-0.0395968 0.0367327 -0.99854 
-0.0403801 0.0293714 -0.998753 
-0.0416253 0.0232509 -0.998863 
-0.0427618 0.0181294 -0.998921 
-0.0439095 0.013833 -0.99894 
-0.0439607 0.00907463 -0.998992 
-0.0438639 0.00471069 -0.999026 
-0.0441951 0.000179255 -0.999023 
-0.0433868 -0.00407353 -0.99905 
-0.0432749 -0.00782182 -0.999033 
-0.0421372 -0.0109534 -0.999052 
-0.0411588 -0.0142263 -0.999051 
-0.0396197 -0.0178165 -0.999056 
-0.0383791 -0.0221165 -0.999018 
-0.0367612 -0.0291211 -0.9989 
-0.0377329 -0.0378734 -0.99857 
-0.0345389 -0.0495517 -0.998174 
-0.0350843 -0.0639825 -0.997334 
-0.0308499 -0.0799832 -0.996319 
-0.0321051 -0.0953545 -0.994926 
-0.0272562 -0.107524 -0.993829 
-0.0258385 -0.0991222 -0.99474 
-0.000390548 0.00013152 -1 
0.000187588 8.37647e-05 1 
0.015953 -0.0991795 0.994942 
0.0246988 -0.107581 0.993889 
0.0219917 -0.0978065 0.994962 
0.026914 -0.0814259 0.996316 
0.0243908 -0.0642681 0.997635 
0.0276964 -0.0488718 0.998421 
0.0262756 -0.038022 0.998931 
0.0300992 -0.0300651 0.999095 
0.0285625 -0.0243856 0.999295 
0.0311056 -0.0194631 0.999327 
0.0325835 -0.0157814 0.999344 
0.0324783 -0.0126631 0.999392 
0.0344797 -0.00935563 0.999362 
0.0357911 -0.0052386 0.999346 
0.0353399 -0.000502329 0.999375 
0.0364498 0.0041486 0.999327 
0.0353608 0.00860826 0.999338 
0.0347335 0.0129739 0.999312 
0.0341017 0.0173853 0.999267 
0.033563 0.0223459 0.999187 
0.032861 0.0281567 0.999063 
0.0319663 0.0355314 0.998857 
0.0307797 0.0451634 0.998505 
0.0293904 0.0580171 0.997883 
0.0270829 0.0753576 0.996789 
0.0243291 0.09857 0.994833 
0.0206104 0.13007 0.991291 
0.0163163 0.172538 0.984868 
0.012189 0.228443 0.973481 
0.00681749 0.300936 0.95362 
0.000926231 0.40419 0.914675 
-0.00216196 0.516024 0.856571 
-0.00305081 0.630736 0.775992 
-0.00393612 0.640134 0.768253 
-0.00235868 0.854456 0.519518 
6.44924e-05 0.942194 0.335069 
0.00368853 0.998376 0.0568426 
0.00146774 0.999713 0.0239083 
0.00128118 0.999955 0.00938847 
3.8198e-05 0.999371 -0.0354497 
-0.00206786 0.993706 -0.112 
-0.00358483 0.950216 -0.31157 
0.00283476 0.849762 -0.527159 
0.00714699 0.654962 -0.755628 
0.00637345 0.564212 -0.825605 
0.00358325 0.494022 -0.869442 
0.000333726 0.39443 -0.918926 
-0.00416187 0.31033 -0.95062 
-0.0102446 0.236309 -0.971624 
-0.0151442 0.17948 -0.983645 
-0.0203526 0.133641 -0.990821 
-0.0243429 0.0954203 -0.995139 
-0.0274508 0.0732241 -0.996938 
-0.0293002 0.0562351 -0.997988 
-0.0313113 0.0428188 -0.998592 
-0.0319666 0.0340327 -0.998909 
-0.0330786 0.027052 -0.999087 
-0.0340598 0.0214924 -0.999189 
-0.0343768 0.0168492 -0.999267 
-0.0362286 0.0124038 -0.999267 
-0.0351551 0.00789672 -0.999351 
-0.0355991 0.00309712 -0.999361 
-0.0353446 -0.00160594 -0.999374 
-0.035097 -0.0062299 -0.999364 
-0.0341221 -0.00993446 -0.999368 
-0.0338059 -0.0132016 -0.999341 
-0.0322408 -0.0164281 -0.999345 
-0.030321 -0.020086 -0.999338 
-0.0301669 -0.0250102 -0.999232 
-0.0276001 -0.0317021 -0.999116 
-0.0293606 -0.0391005 -0.998804 
-0.0258216 -0.0490016 -0.998465 
-0.0272258 -0.061374 -0.997743 
-0.0238158 -0.0777966 -0.996685 
-0.0233288 -0.0972687 -0.994985 
-0.0199961 -0.109861 -0.993746 
-0.0184325 -0.0966336 -0.995149 
-9.79977e-05 0.000173414 -1 
0.000103064 7.13694e-05 1 
0.0105389 -0.101471 0.994783 
0.0174487 -0.110217 0.993754 
0.0158532 -0.0984788 0.995013 
0.0197173 -0.0793234 0.996654 
0.0169997 -0.0640228 0.997804 