# vtk DataFile Version 3.0 
Exported using Morpho https://github.com/Morpho-lang/morpho 
ASCII 
DATASET UNSTRUCTURED_GRID 

POINTS 1978 float 
-12 -4 -9.40768e-13 
-11.6607 -4 -7.60451e-12 
-11.3193 -4 1.51101e-12 
-10.9923 -4 -5.39938e-12 
-10.6843 -4 -1.99454e-12 
-10.3396 -4 3.75128e-12 
-10.0124 -4 -5.2407e-12 
-9.68522 -4 3.07949e-12 
-9.34314 -4 -5.64163e-13 
-9.01025 -4 -3.53775e-12 
-8.68693 -4 4.14122e-12 
-8.38254 -4 -4.51049e-12 
-8.0745 -4 -7.07309e-13 
-7.77088 -4 3.79743e-12 
-7.4824 -4 -8.23389e-13 
-7.18553 -4 3.37606e-12 
-6.88171 -4 -4.32744e-13 
-6.57923 -4 -2.08984e-13 
-6.27893 -4 -1.03995e-12 
-5.9763 -4 -3.43792e-13 
-5.67573 -4 3.79504e-12 
-5.38517 -4 1.29509e-12 
-5.10828 -4 1.17059e-12 
-4.82429 -4 -4.55519e-12 
-4.50892 -4 -1.26449e-12 
-4.22065 -4 1.3721e-12 
-3.94329 -4 2.28562e-13 
-3.63816 -4 9.16846e-12 
-3.3291 -4 4.9949e-12 
-3.06404 -4 1.66302e-11 
-2.82274 -4 -3.05642e-11 
-2.59952 -4 2.6083e-11 
-2.37139 -4 -7.6597e-12 
-2.16189 -4 2.69251e-11 
-1.95872 -4 3.71331e-11 
-1.74635 -4 4.07582e-11 
-1.51296 -4 -6.93606e-12 
-1.25093 -4 1.77745e-10 
-0.929382 -4 2.36406e-10 
-0.508329 -4 3.04746e-10 
0.528146 -4 -2.01188e-09 
1.18639 -4 8.77954e-10 
1.56851 -4 1.05837e-11 
1.78182 -4 9.7739e-13 
1.96272 -4 -8.71575e-11 
2.13246 -4 5.0251e-11 
2.33495 -4 -3.34779e-11 
2.54108 -4 2.63475e-12 
2.80728 -4 -7.96623e-12 
3.07586 -4 -7.07204e-12 
3.34053 -4 -1.1947e-11 
3.60596 -4 -4.70497e-12 
3.88022 -4 -4.82531e-13 
4.1906 -4 1.11263e-12 
4.49125 -4 1.904e-12 
4.79345 -4 4.4608e-12 
5.09594 -4 -1.58477e-13 
5.39341 -4 -3.86722e-12 
5.68723 -4 3.50299e-13 
5.98578 -4 -1.81886e-12 
6.27713 -4 3.16458e-12 
6.57403 -4 -1.14791e-12 
6.86863 -4 -1.16306e-12 
7.17034 -4 -2.62314e-12 
7.46861 -4 -2.98131e-12 
7.7652 -4 2.2268e-12 
8.05994 -4 -2.96073e-12 
8.36438 -4 5.20374e-12 
8.67066 -4 -9.93161e-13 
8.95918 -4 3.80749e-12 
9.29494 -4 -1.2138e-12 
9.62597 -4 1.76979e-12 
9.93509 -4 2.59363e-13 
10.3107 -4 -2.96071e-12 
10.6357 -4 4.45777e-12 
11.0058 -4 1.59228e-12 
11.3354 -4 1.56686e-12 
11.6189 -4 8.21135e-12 
12 -4 -9.1455e-13 
-12 -3.68831 1.0407e-11 
-11.6543 -3.68405 2.23745e-18 
-11.3503 -3.64126 5.48922e-19 
-11.0387 -3.66468 7.611e-19 
-10.7166 -3.64683 7.7582e-19 
-10.3974 -3.67826 9.26198e-19 
-10.0573 -3.66632 5.94177e-19 
-9.73205 -3.67227 3.99898e-19 
-9.3948 -3.68781 3.20715e-19 
-9.05811 -3.68532 2.238e-19 
-8.73459 -3.67708 1.61097e-19 
-8.41541 -3.66472 9.57838e-20 
-8.10401 -3.66918 7.56335e-20 
-7.78986 -3.66409 5.88024e-20 
-7.48425 -3.64896 -3.79197e-14 
-7.18758 -3.65806 2.66681e-14 
-6.88352 -3.6628 -4.01937e-20 
-6.57384 -3.66666 -7.91272e-20 
-6.26263 -3.6723 -1.299e-19 
-5.94774 -3.67706 -1.74936e-19 
-5.64119 -3.67382 -2.24461e-19 
-5.34362 -3.66642 -3.13069e-19 
-5.04407 -3.67511 -4.53709e-19 
-4.71805 -3.70665 -6.27405e-19 
-4.39784 -3.6801 -6.06818e-19 
-4.09533 -3.66499 -6.15388e-19 
-3.78081 -3.69975 -8.21656e-19 
-3.455 -3.71449 -1.06497e-18 
-3.14988 -3.68035 -1.3874e-18 
-2.87633 -3.64745 -1.9288e-18 
-2.63956 -3.61725 -1.75538e-18 
-2.42044 -3.65886 -3.12126e-18 
-2.18927 -3.68024 -3.53382e-18 
-1.96596 -3.64433 -4.3433e-18 
-1.70532 -3.64439 -5.26403e-18 
-1.40655 -3.65903 -4.8274e-18 
-1.43458 -3.31819 -2.33769e-18 
-1.03051 -3.58023 -8.73473e-20 
-0.490573 -3.52774 5.22968e-16 
0.379694 -3.50806 2.49015e-16 
0.998746 -3.65654 1.28652e-18 
1.43474 -3.72035 1.75705e-18 
1.46322 -3.41569 3.01069e-19 
1.76248 -3.66521 4.02401e-18 
1.84272 -3.38494 3.20789e-18 
2.01149 -3.6475 3.29457e-18 
2.24108 -3.70928 2.80432e-18 
2.47091 -3.63342 1.95239e-18 
2.72213 -3.71528 2.0577e-18 
3.02487 -3.69552 1.66063e-18 
3.32631 -3.67133 1.1373e-18 
3.61037 -3.67266 5.29476e-19 
3.91105 -3.69147 8.02188e-19 
4.22065 -3.68694 6.82235e-19 
4.53155 -3.67886 6.2278e-19 
4.83879 -3.67571 4.98654e-19 
5.13966 -3.67025 3.7169e-19 
5.43788 -3.66769 2.81067e-19 
5.73848 -3.67187 2.251e-19 
6.03237 -3.66079 1.59364e-19 
6.32918 -3.66451 1.12789e-19 
6.62557 -3.65921 6.14098e-20 
6.92741 -3.66683 3.011e-20 
7.23004 -3.66434 -6.08625e-15 
7.53267 -3.66418 4.16639e-14 
7.83293 -3.66307 -5.14407e-20 
8.13665 -3.67156 -8.60257e-20 
8.4426 -3.66706 -1.05945e-19 
8.73874 -3.64306 -1.42437e-19 
9.05983 -3.69124 -2.63092e-19 
9.38934 -3.68311 -3.00075e-19 
9.70546 -3.65534 -3.67524e-19 
10.0549 -3.71292 -7.54158e-19 
10.392 -3.66625 -7.59927e-19 
10.7462 -3.70419 -1.13357e-18 
11.0816 -3.66783 -6.88765e-19 
11.3763 -3.61648 -3.60647e-19 
11.7139 -3.71611 -2.44874e-18 
12 -3.62975 -1.15706e-11 
-12 -3.37494 6.15583e-12 
-11.693 -3.33428 2.06103e-18 
-11.3505 -3.31351 1.96633e-19 
-11.0131 -3.31755 4.83135e-19 
-10.6804 -3.30923 8.71087e-19 
-10.3476 -3.35285 7.78461e-19 
-10.0208 -3.33115 6.76675e-19 
-9.69984 -3.33402 4.81617e-19 
-9.38632 -3.37451 2.84681e-19 
-9.07657 -3.34948 2.30875e-19 
-8.76754 -3.34076 1.95148e-19 
-8.46266 -3.34425 1.21376e-19 
-8.14803 -3.33418 6.94808e-20 
-7.84508 -3.33576 4.72097e-20 
-7.53745 -3.31322 2.30206e-20 
-7.23309 -3.31192 7.36746e-15 
-6.93528 -3.32563 -3.34689e-20 
-6.63365 -3.33633 -6.84e-20 
-6.32708 -3.34314 -1.20718e-19 
-6.02378 -3.35564 -1.73992e-19 
-5.71942 -3.3503 -2.35872e-19 
-5.42341 -3.34133 -3.27478e-19 
-5.12714 -3.34743 -4.06228e-19 
-4.82135 -3.39733 -4.56754e-19 
-4.51282 -3.38295 -5.63619e-19 
-4.20112 -3.34162 -6.29274e-19 
-3.88478 -3.37438 -5.31855e-19 
-3.57237 -3.4171 -5.31431e-19 
-3.26543 -3.39857 -9.14937e-19 
-2.96864 -3.33789 -1.40019e-18 
-2.70101 -3.27286 -1.92207e-18 
-2.44971 -3.27201 -2.80599e-18 
-2.23198 -3.3534 -3.88046e-18 
-1.9858 -3.30056 -4.31622e-18 
-1.74822 -3.32677 -4.66938e-18 
-1.65064 -3.00158 -3.62614e-18 
-1.33252 -2.92919 -2.67083e-18 
-1.02572 -3.18321 2.73065e-18 
-0.425743 -3.07409 -1.79066e-15 
-0.363899 -2.50717 -1.69296e-15 
0.421832 -2.92304 1.56614e-15 
1.02439 -3.24149 -1.65112e-18 
1.32794 -3.01512 1.58321e-18 
1.64463 -3.12608 2.88071e-18 
1.91633 -3.0674 3.33854e-18 
2.17515 -3.1418 3.16356e-18 
2.15556 -3.40781 5.04187e-18 
2.43633 -3.34949 2.77838e-18 
2.73143 -3.39949 2.06826e-18 
2.99907 -3.39977 1.54291e-18 
3.28555 -3.36462 1.10455e-18 
3.58156 -3.34603 5.58834e-19 
3.88139 -3.38498 4.85936e-19 
4.18954 -3.37666 5.30973e-19 
4.49802 -3.35832 5.59445e-19 
4.80312 -3.35264 5.1697e-19 
5.10827 -3.34269 4.04918e-19 
5.40984 -3.33857 2.99167e-19 
5.71029 -3.34468 2.20826e-19 
6.01081 -3.326 1.6186e-19 
6.30847 -3.32974 1.16896e-19 
6.60777 -3.32289 7.50384e-20 
6.90999 -3.33341 3.89807e-20 
7.21441 -3.33314 -9.34185e-15 
7.52238 -3.3346 4.42734e-14 
7.83287 -3.32989 -5.13834e-20 
8.13798 -3.3384 -7.69631e-20 
8.44046 -3.32331 -1.21654e-19 
8.75652 -3.31496 -1.8799e-19 
9.07426 -3.37122 -2.25297e-19 
9.39142 -3.35012 -2.97795e-19 
9.70589 -3.31242 -4.89879e-19 
10.017 -3.3977 -5.86349e-19 
10.3222 -3.32468 -8.38857e-19 
10.6507 -3.3847 -7.49508e-19 
10.9813 -3.34991 -4.7425e-19 
11.2972 -3.26648 -1.84368e-19 
11.6353 -3.36936 -1.3869e-18 
12 -3.33638 -4.29214e-12 
-12 -3.01782 7.58337e-12 
-11.6542 -3.0149 1.04274e-18 
-11.3113 -2.98202 -2.00265e-19 
-10.9699 -2.99038 1.67249e-19 
-10.6264 -2.98515 6.03956e-19 
-10.3038 -3.01534 5.73035e-19 
-9.97474 -2.99481 4.74368e-19 
-9.65159 -3.0006 3.281e-19 
-9.34709 -3.03022 2.07381e-19 
-9.03849 -3.01118 1.62109e-19 
-8.73579 -2.99413 1.29001e-19 
-8.42213 -3.01852 8.34427e-20 
-8.11285 -2.9981 3.72655e-20 
-7.80583 -3.00117 -4.18459e-14 
-7.49476 -2.97844 -1.84583e-14 
-7.18856 -2.97661 1.06371e-14 
-6.88597 -2.99338 -2.46262e-20 
-6.57898 -3.01233 -5.15744e-20 
-6.27709 -3.01441 -7.15277e-20 
-5.97599 -3.03098 -1.04117e-19 
-5.68133 -3.01923 -1.30167e-19 
-5.38878 -3.0141 -1.5752e-19 
-5.09579 -3.01673 -1.82491e-19 
-4.80842 -3.08018 -2.94134e-19 
-4.50356 -3.06153 -3.35497e-19 
-4.18784 -3.02406 -2.73012e-19 
-3.86826 -3.05912 -3.1399e-19 
-3.54905 -3.10243 -3.84349e-19 
-3.23926 -3.08854 -4.6645e-19 
-2.94577 -3.01028 -6.47914e-19 
-2.65467 -2.94629 -9.73349e-19 
-2.40233 -2.9201 -1.9705e-18 
-2.16982 -3.01782 -1.94947e-18 
-1.91182 -2.94287 -2.19011e-18 
-1.80143 -2.61153 -8.36806e-19 
-1.53694 -2.6192 -2.20478e-18 
-1.25815 -2.43599 -1.51781e-18 
-0.951985 -2.67645 2.39563e-18 
-0.300364 -1.89982 -4.44673e-15 
0.330245 -1.59303 4.10263e-15 
0.357895 -2.23949 3.10131e-15 
0.87904 -2.09826 8.34423e-19 
0.937835 -2.68059 -9.1574e-19 
1.33591 -2.61238 1.23559e-18 
1.62303 -2.76139 2.20418e-18 
1.86321 -2.71857 2.23261e-18 
2.12644 -2.81708 1.8441e-18 
2.40473 -2.99784 1.80493e-18 
2.66499 -3.11419 1.96256e-18 
2.96456 -3.08527 1.09401e-18 
3.22352 -3.02306 4.87867e-19 
3.50553 -3.03297 9.92559e-20 
3.83728 -3.07989 1.27014e-19 
4.15647 -3.06316 2.27525e-19 
4.4675 -3.03802 3.04969e-19 
4.77893 -3.02949 3.00094e-19 
5.08922 -3.02053 2.30439e-19 
5.39905 -3.01217 1.50645e-19 
5.70147 -3.01718 1.06618e-19 
6.00237 -2.99885 8.30453e-20 
6.3038 -2.99648 6.4344e-20 
6.60747 -2.99404 4.27271e-20 
6.9123 -3.00113 -4.05748e-14 
7.21864 -3.00393 5.34784e-15 
7.52816 -3.00819 1.54111e-14 
7.8367 -2.99718 3.22699e-14 
8.14147 -3.00258 -3.56413e-20 
8.44148 -2.97844 -7.02606e-20 
8.73977 -2.98325 -1.21469e-19 
9.05709 -3.03909 -1.8384e-19 
9.37097 -3.01549 -2.19184e-19 
9.68399 -2.97596 -3.17006e-19 
10.0122 -3.04617 -5.3909e-19 
10.3402 -2.98846 -6.02434e-19 
10.6619 -3.05288 -7.0646e-19 
10.9824 -3.00408 -2.41181e-19 
11.3329 -2.94953 2.65627e-19 
11.6646 -3.06132 -1.15474e-18 
12 -3.01347 -7.0049e-12 
-12 -2.69708 9.08283e-12 
-11.6589 -2.69375 5.46134e-19 
-11.3363 -2.63908 -7.22394e-19 
-11.0051 -2.66569 -4.87993e-19 
-10.6645 -2.66492 -3.99098e-14 
-10.3191 -2.67419 1.35259e-19 
-9.99547 -2.66491 1.47603e-19 
-9.66547 -2.66797 9.78727e-20 
-9.34347 -2.68613 5.34546e-20 
-9.02958 -2.67231 5.5839e-20 
-8.7076 -2.66612 4.70046e-20 
-8.39657 -2.68569 2.26664e-20 
-8.08387 -2.666 6.21714e-15 
-7.76989 -2.67262 1.13807e-14 
-7.45374 -2.64956 4.13431e-15 
-7.14401 -2.64907 1.25154e-15 
-6.83571 -2.67263 1.24808e-14 
-6.5365 -2.68428 1.87983e-14 
-6.233 -2.69112 1.27287e-14 
-5.94019 -2.70002 3.73595e-14 
-5.65171 -2.6859 -2.45425e-20 
[...]
POINT_DATA 1978 
VECTORS vectors float
0.00103759 0.000855452 0.999999 
0.0015699 -0.0147017 0.999891 
0.000814025 -0.0151132 0.999885 
0.000797558 -0.0115051 0.999933 
0.000821098 -0.00816319 0.999966 
0.000827235 -0.00550572 0.999984 
0.000805619 -0.0038086 0.999992 
0.000784805 -0.00267944 0.999996 
0.000778835 -0.00190213 0.999998 
0.000846102 -0.00142243 0.999999 
0.000948507 -0.00109946 0.999999 
0.00101393 -0.000864972 0.999999 
0.00104931 -0.000621582 0.999999 
0.0010661 -0.000393561 0.999999 
0.00107894 -0.000174481 0.999999 
0.0010875 5.23371e-05 0.999999 
0.00106784 0.000276211 0.999999 
0.00104181 0.000523716 0.999999 
0.00102652 0.000827356 0.999999 
0.00102862 0.00125377 0.999999 
0.00105892 0.00175922 0.999998 
0.00106417 0.0023746 0.999997 
0.0010271 0.00316915 0.999994 
0.00100332 0.00414847 0.999991 
0.000989031 0.00552056 0.999984 
0.000976705 0.00693182 0.999975 
0.000979814 0.00847963 0.999964 
0.00101332 0.0103622 0.999946 
0.00104668 0.0121369 0.999926 
0.00104244 0.0133171 0.999911 
0.00100641 0.0143242 0.999897 
0.00094611 0.0155401 0.999879 
0.000947932 0.0160039 0.999871 
0.000959236 0.014463 0.999895 
0.000940548 0.0128831 0.999917 
0.000919161 0.013378 0.99991 
0.000826108 0.0192403 0.999815 
0.000712775 0.032612 0.999468 
0.000327166 0.0577034 0.998334 
0.000396597 0.097245 0.99526 
-0.000416039 0.107015 -0.994257 
-0.00094068 0.0449576 -0.998988 
-0.000931426 0.0145546 -0.999894 
-0.000761913 0.00631288 -0.99998 
-0.000903402 0.00362468 -0.999993 
-0.00107082 0.00561413 -0.999984 
-0.00117363 0.0105691 -0.999943 
-0.00119136 0.0158396 -0.999874 
-0.00114617 0.0159468 -0.999872 
-0.00109164 0.0134357 -0.999909 
-0.00107406 0.0118974 -0.999929 
-0.00102248 0.0105631 -0.999944 
-0.000987107 0.00890354 -0.99996 
-0.00096271 0.0069578 -0.999975 
-0.000986278 0.00534953 -0.999985 
-0.00102305 0.00407156 -0.999991 
-0.00104684 0.00307038 -0.999995 
-0.00106014 0.00227058 -0.999997 
-0.00107783 0.00165538 -0.999998 
-0.00108183 0.00117818 -0.999999 
-0.00108779 0.000841582 -0.999999 
-0.00108069 0.000567873 -0.999999 
-0.00107786 0.000305836 -0.999999 
-0.00107648 6.00205e-05 -0.999999 
-0.00108159 -0.000195628 -0.999999 
-0.00107651 -0.000433423 -0.999999 
-0.0010712 -0.000650751 -0.999999 
-0.00107175 -0.000831315 -0.999999 
-0.0010179 -0.00106833 -0.999999 
-0.000958343 -0.00136375 -0.999999 
-0.000895319 -0.00179164 -0.999998 
-0.000803334 -0.00256369 -0.999996 
-0.000688815 -0.00352976 -0.999994 
-0.000586963 -0.00530263 -0.999986 
-0.00057896 -0.00768988 -0.99997 
-0.000652551 -0.0117009 -0.999931 
-0.000770257 -0.0154714 -0.99988 
-0.00165319 -0.0147472 -0.99989 
-0.0011634 0.00078331 -0.999999 
-1.2824e-05 -0.000309414 1 
0.00513651 -0.011247 0.999924 
0.00572611 -0.0133493 0.999895 
0.00574637 -0.0119295 0.999912 
0.0062936 -0.00898008 0.99994 
0.00636023 -0.00629697 0.99996 
0.0066836 -0.00428465 0.999968 
0.00680844 -0.00299806 0.999972 
0.00689217 -0.00213192 0.999974 
0.00695209 -0.00150827 0.999975 
0.00700393 -0.001106 0.999975 
0.00726001 -0.000843642 0.999973 
0.00727709 -0.00061716 0.999973 
0.00738969 -0.000390365 0.999973 
0.00758566 -0.000179194 0.999971 
0.00749939 3.46393e-05 0.999972 
0.00734966 0.000263933 0.999973 
0.00736766 0.000525738 0.999973 
0.00731229 0.000856637 0.999973 
0.00731869 0.00130774 0.999972 
0.00736954 0.0018547 0.999971 
0.00744519 0.00249444 0.999969 
0.00730329 0.00333188 0.999968 
0.00685296 0.00452249 0.999966 
0.00696593 0.00592138 0.999958 
0.00689273 0.00733087 0.999949 
0.00648337 0.00885121 0.99994 
0.00667389 0.0102536 0.999925 
0.00822383 0.0113431 0.999902 
0.0098749 0.0125697 0.999872 
0.0120161 0.0132928 0.999839 
0.0119485 0.0141045 0.999829 
0.0120425 0.0141964 0.999827 
0.0112974 0.014991 0.999824 
0.00939643 0.0182449 0.999789 
0.00720995 0.0281407 0.999578 
0.00932212 0.0318353 0.99945 
0.00447732 0.0504214 0.998718 
0.00284057 0.0971134 0.995269 
-0.00296356 0.110099 -0.993916 
-0.00405968 0.0632797 -0.997988 
-0.00463336 0.031617 -0.999489 
-0.00831015 0.0322609 -0.999445 
-0.00864031 0.0159526 -0.999835 
-0.013279 0.0175346 -0.999758 
-0.0113561 0.0117488 -0.999867 
-0.0113999 0.010712 -0.999878 
-0.0121664 0.0117913 -0.999856 
-0.0100462 0.0130125 -0.999865 
-0.00910976 0.0117188 -0.99989 
-0.00809912 0.0104831 -0.999912 
-0.00728703 0.00953249 -0.999928 
-0.00651838 0.00827259 -0.999945 
-0.0068011 0.00667079 -0.999955 
-0.00695967 0.00512544 -0.999963 
-0.00711024 0.0038724 -0.999967 
-0.00726142 0.00291477 -0.999969 
-0.00739525 0.00217695 -0.99997 
-0.0074431 0.00159094 -0.999971 
-0.00758666 0.00114567 -0.999971 
-0.00756575 0.000799316 -0.999971 
-0.00759142 0.000516838 -0.999971 
-0.00752737 0.000254587 -0.999972 
-0.00755922 2.04818e-06 -0.999971 
-0.0075675 -0.000242693 -0.999971 
-0.00753285 -0.000457865 -0.999972 
-0.00741022 -0.000659114 -0.999972 
-0.00733568 -0.00086585 -0.999973 
-0.00752547 -0.00110672 -0.999971 
-0.00704254 -0.00149258 -0.999974 
-0.00692325 -0.00210059 -0.999974 
-0.00696046 -0.00293144 -0.999971 
-0.00633909 -0.00421826 -0.999971 
-0.00642303 -0.00625056 -0.99996 
-0.00580191 -0.00916233 -0.999941 
-0.00568048 -0.0122844 -0.999908 
-0.00573314 -0.0131699 -0.999897 
-0.00488695 -0.0103555 -0.999934 
7.5458e-05 -0.000463203 -1 
-0.000370757 -0.00140888 0.999999 
0.00569836 -0.00914142 0.999942 
0.00711117 -0.0130409 0.99989 
0.00779633 -0.0120965 0.999896 
0.00854824 -0.00929769 0.99992 
0.00888626 -0.00646158 0.99994 
0.0093742 -0.00444515 0.999946 
0.00971543 -0.00313431 0.999948 
0.0096829 -0.00222487 0.999951 
0.00988593 -0.00157329 0.99995 
0.010125 -0.00114429 0.999948 
0.0100761 -0.000865912 0.999949 
0.010096 -0.000646636 0.999949 
0.0101224 -0.000438054 0.999949 
0.0102372 -0.000225007 0.999948 
0.0102576 -2.17926e-06 0.999947 
0.0102213 0.000230576 0.999948 
0.0101903 0.000489638 0.999948 
0.0101935 0.000807342 0.999948 
0.0101598 0.00120258 0.999948 
0.010193 0.00171013 0.999947 
0.0102507 0.00232743 0.999945 
0.0100953 0.00309776 0.999944 
0.00980242 0.00411207 0.999944 
0.00963617 0.00529374 0.99994 
0.00946438 0.00657107 0.999934 
0.00905375 0.00785629 0.999928 
0.00891039 0.00882743 0.999921 
0.00973628 0.00942852 0.999908 
0.0117591 0.0101697 0.999879 
0.013971 0.0112162 0.99984 
0.0156364 0.0126551 0.999798 
0.0159863 0.0141214 0.999772 
0.0150685 0.0165991 0.999749 
0.0129911 0.0208037 0.999699 
0.0112748 0.0263642 0.999589 
0.00798768 0.0396036 0.999184 
0.00517133 0.0541711 0.998518 
0.00211956 0.100047 0.99498 
0.00271065 0.10243 0.994736 
-0.00337498 0.107365 -0.994214 
-0.0060724 0.0592736 -0.998223 
-0.00868493 0.04198 -0.999081 
-0.0115682 0.0270246 -0.999568 
-0.0140123 0.0187925 -0.999725 
-0.0160936 0.0130361 -0.999786 
-0.0163148 0.0119781 -0.999795 
-0.0161651 0.0104099 -0.999815 
-0.01436 0.0101591 -0.999845 
-0.0126858 0.0096076 -0.999873 
-0.0109467 0.00907091 -0.999899 
-0.00978364 0.00879532 -0.999913 
-0.00912258 0.00816683 -0.999925 
-0.00925962 0.00684781 -0.999934 
-0.00948559 0.00533114 -0.999941 
-0.00970338 0.00401008 -0.999945 
-0.00990311 0.00300282 -0.999946 
-0.0100697 0.00226009 -0.999947 
-0.0102019 0.00168401 -0.999947 
-0.0102702 0.00120966 -0.999947 
-0.0103581 0.000841148 -0.999946 
-0.0103218 0.000530799 -0.999947 
-0.010348 0.000265082 -0.999946 
-0.0103122 1.43954e-05 -0.999947 
-0.010273 -0.000229577 -0.999947 
-0.0101979 -0.000445441 -0.999948 
-0.0101119 -0.000641217 -0.999949 
-0.0101044 -0.000843262 -0.999949 
-0.0101628 -0.00113083 -0.999948 
-0.00984343 -0.0015732 -0.99995 
-0.00980801 -0.00225124 -0.999949 
-0.00975481 -0.00316811 -0.999947 
-0.00911091 -0.00436705 -0.999949 
-0.00909478 -0.00632678 -0.999939 
-0.00834738 -0.00893605 -0.999925 
-0.00782358 -0.0119565 -0.999898 
-0.00728539 -0.0132137 -0.999886 
-0.00598037 -0.0101346 -0.999931 
0.000181371 -0.000931738 -1 
-0.000286206 -0.00181979 0.999998 
0.00525198 -0.00972715 0.999939 
0.00666143 -0.0135825 0.999886 
0.00755037 -0.0125666 0.999893 
0.00822901 -0.00942471 0.999922 
0.00879444 -0.00663509 0.999939 
0.00906986 -0.00452845 0.999949 
0.00934405 -0.00313697 0.999951 
0.00960385 -0.00223256 0.999951 
0.00948432 -0.00155704 0.999954 
0.00938299 -0.00108363 0.999955 
0.00952601 -0.000806925 0.999954 
0.00939908 -0.000617412 0.999956 
0.00942316 -0.00042582 0.999956 
0.00932287 -0.000209085 0.999957 
0.00933905 2.30522e-05 0.999956 
0.00946139 0.000270656 0.999955 
0.00960838 0.000555568 0.999954 
0.00959977 0.000893027 0.999954 
0.00964035 0.00129857 0.999953 
0.00952629 0.00179405 0.999953 
0.00947099 0.00241499 0.999952 
0.00939539 0.00317448 0.999951 
0.00960129 0.00406999 0.999946 
0.0093289 0.00515638 0.999943 
0.00887922 0.00634771 0.99994 
0.00868979 0.00737733 0.999935 
0.00869001 0.00801964 0.99993 
0.0092673 0.00850782 0.999921 
0.0104198 0.00929247 0.999903 
0.0120777 0.0108835 0.999868 
0.0135216 0.0129836 0.999824 
0.0141402 0.0154058 0.999781 
0.0124157 0.0200728 0.999721 
0.00883145 0.0243104 0.999665 
0.00771324 0.0325441 0.999441 
0.00508282 0.0460927 0.998924 
0.00455855 0.0611994 0.998115 
0.00155104 0.103874 0.994589 
-0.00554155 0.100632 -0.994908 
-0.00441197 0.105529 -0.994406 
-0.0045413 0.0653409 -0.997853 
-0.00561834 0.0645753 -0.997897 
-0.00747704 0.0431264 -0.999042 
-0.00990774 0.0294932 -0.999516 
-0.0111793 0.0207656 -0.999722 
-0.0129329 0.0140511 -0.999818 
-0.0144652 0.0099122 -0.999846 
-0.0145223 0.00853711 -0.999858 
-0.0122662 0.007971 -0.999893 
-0.0102305 0.0078914 -0.999917 
-0.00905762 0.00820188 -0.999925 
-0.00882245 0.00800091 -0.999929 
-0.00878755 0.00687673 -0.999938 
-0.00892047 0.00540865 -0.999946 
-0.00906698 0.00405317 -0.999951 
-0.0091743 0.00302475 -0.999953 
-0.00926178 0.0022767 -0.999955 
-0.00938592 0.00169985 -0.999955 
-0.00944548 0.00123654 -0.999955 
-0.00946124 0.000844946 -0.999955 
-0.00953132 0.000531542 -0.999954 
-0.00952753 0.000259693 -0.999955 
-0.00956518 7.21285e-06 -0.999954 
-0.00954752 -0.000241421 -0.999954 
-0.00947939 -0.000462835 -0.999955 
-0.00936761 -0.000641778 -0.999956 
-0.0092544 -0.000826057 -0.999957 
-0.00927499 -0.00108275 -0.999956 
-0.00960544 -0.00156444 -0.999953 
-0.00948226 -0.00229387 -0.999952 
-0.00920437 -0.00328541 -0.999952 
-0.00926218 -0.0047108 -0.999946 
-0.00873407 -0.00696238 -0.999938 
-0.00847415 -0.00964655 -0.999918 
-0.00764208 -0.0126262 -0.999891 
-0.00651223 -0.0136752 -0.999885 
-0.00532151 -0.00957551 -0.99994 
0.000212943 -0.00112914 -0.999999 
-0.00016496 -0.0026214 0.999997 
0.00394967 -0.0101535 0.999941 
0.0049287 -0.0143068 0.999886 
0.00573022 -0.0134994 0.999892 
0.00628069 -0.0102897 0.999927 
0.00670751 -0.00711681 0.999952 
0.00689177 -0.00487108 0.999964 
0.0070455 -0.00330965 0.99997 
0.00716876 -0.00226666 0.999972 
0.00707858 -0.00152744 0.999974 
0.00697547 -0.00103842 0.999975 
0.00711586 -0.000787323 0.999974 
0.00698131 -0.000620698 0.999975 
0.00708919 -0.00043136 0.999975 
0.00695317 -0.000204546 0.999976 
0.00698999 4.58076e-05 0.999976 
0.00715561 0.000314645 0.999974 
0.00722978 0.000611452 0.999974 
0.00722435 0.000965211 0.999973 
0.00724572 0.0013656 0.999973 
0.00711039 0.00184825 0.999973 
0.00707575 0.00245406 0.999972 
0.00711448 0.00321133 0.99997 
0.00735945 0.00406345 0.999965 
0.00705382 0.00507917 0.999962 
0.00661809 0.00626255 0.999959 
0.0065996 0.00718217 0.999952 
0.0066749 0.00770534 0.999948 
0.00705308 0.00833519 0.99994 
0.00807034 0.00962562 0.999921 
0.00909475 0.0116823 0.99989 
0.010139 0.0144085 0.999845 
0.0108935 0.0174267 0.999789 
0.00811855 0.020598 0.999755 
0.00514387 0.0320265 0.999474 
0.00337761 0.0463777 0.998918 
0.00256279 0.0693787 0.997587 
0.00374779 0.073357 0.997299 
0.00331083 0.105184 0.994447 
0.00769109 0.109916 0.993911 
-0.00818196 0.0986529 -0.995088 
-0.00439213 0.0625609 -0.998031 
-0.00517226 0.0463059 -0.998914 
-0.0062242 0.0343085 -0.999392 
-0.00711252 0.0255668 -0.999648 
-0.00845342 0.01833 -0.999796 
-0.0097511 0.0125426 -0.999874 
-0.011058 0.00903292 -0.999898 
-0.0114812 0.00761511 -0.999905 
-0.00899079 0.00727809 -0.999933 
-0.00725337 0.00757484 -0.999945 
-0.00682023 0.00800589 -0.999945 
-0.00672495 0.00768687 -0.999948 
-0.00662173 0.00654188 -0.999957 
-0.00669702 0.00509973 -0.999965 
-0.00683123 0.00382365 -0.999969 
-0.00692498 0.00286919 -0.999972 
-0.00694025 0.00218495 -0.999974 
-0.00706699 0.00164887 -0.999974 
-0.00704 0.00120062 -0.999975 
-0.00710466 0.000821579 -0.999974 
-0.00713896 0.00050711 -0.999974 
-0.00718141 0.000234162 -0.999974 
-0.00718865 -2.59063e-05 -0.999974 
-0.00719941 -0.000278275 -0.999974 
-0.00699467 -0.00048872 -0.999975 
-0.00697395 -0.000662426 -0.999975 
-0.00670998 -0.000824054 -0.999977 
-0.00672402 -0.00106716 -0.999977 
-0.007313 -0.00152329 -0.999972 
-0.00712586 -0.00226642 -0.999972 
-0.00685654 -0.00332694 -0.999971 
-0.00722492 -0.0048336 -0.999962 
-0.00666966 -0.00721776 -0.999952 
-0.00656832 -0.0102791 -0.999926 
-0.00582155 -0.0134863 -0.999892 
-0.00475387 -0.0141667 -0.999888 
-0.00396936 -0.00965549 -0.999946 
0.000115563 -0.00133264 -0.999999 
-0.000140952 -0.00253301 0.999997 
0.00239864 -0.0090773 0.999956 
0.0032377 -0.0140694 0.999896 
0.00388899 -0.0144745 0.999888 
0.00433372 -0.0116295 0.999923 
0.00469484 -0.00829182 0.999955 
0.0047101 -0.00563731 0.999973 
0.00483346 -0.00380728 0.999981 
0.00484704 -0.00257209 0.999985 
0.00476464 -0.00171712 0.999987 
0.00470469 -0.00115403 0.999988 
0.00468307 -0.000866733 0.999989 
0.00466177 -0.000718097 0.999989 
0.00472869 -0.000551967 0.999989 
0.00474389 -0.000341006 0.999989 
0.0047148 -8.5995e-05 0.999989 
0.0048334 0.000187484 0.999988 
0.00486671 0.000473789 0.999988 
0.00494998 0.000795146 0.999987 
0.0048984 0.00116641 0.999987 
0.00481284 0.00158373 0.999987 
0.00476085 0.00209543 0.999986 
0.00483038 0.0027008 0.999985 
0.0049084 0.00340682 0.999982 
0.00496651 0.00419294 0.999979 
0.0048586 0.00526478 0.999974 
0.00461278 0.0064773 0.999968 
0.00450334 0.00732296 0.999963 
0.0046123 0.00804394 0.999957 
0.00503515 0.0091174 0.999946 
0.00549883 0.0106413 0.999928 
0.00614821 0.0126839 0.999901 
0.00738548 0.0160438 0.999844 
0.0060141 0.0229948 0.999718 
0.00413288 0.0279911 0.9996 
0.00347172 0.0369987 0.999309 
0.00310817 0.0576102 0.998334 
0.00449781 0.0578858 0.998313 
0.00671008 0.076589 0.99704 
0.0138379 0.105645 0.994308 
-0.00977302 0.108527 -0.994045 
-0.00615185 0.0642902 -0.997912 
-0.00290989 0.0453256 -0.998968 
-0.00264918 0.0338285 -0.999424 
-0.00346275 0.0272563 -0.999622 
-0.00507765 0.0200108 -0.999787 
-0.00657947 0.0141349 -0.999878 
-0.00700163 0.0101137 -0.999924 
-0.00808632 0.00803795 -0.999935 
-0.00608958 0.00813701 -0.999948 
-0.00506591 0.00826181 -0.999953 
-0.00489386 0.00814321 -0.999955 
-0.00472665 0.00769855 -0.999959 
-0.00455181 0.00652012 -0.999968 
-0.00454472 0.00506776 -0.999977 
-0.00462975 0.00381268 -0.999982 
-0.00471201 0.00287842 -0.999985 
-0.00465202 0.00219308 -0.999987 
-0.00473733 0.00168475 -0.999987 
-0.00474534 0.00125743 -0.999988 
-0.00482191 0.000874876 -0.999988 
-0.00485697 0.000542942 -0.999988 
-0.00487207 0.000247969 -0.999988 
-0.00487321 -2.72769e-05 -0.999988 
-0.00489564 -0.000282781 -0.999988 
-0.00459463 -0.000507012 -0.999989 
-0.00452442 -0.000683802 -0.99999 
-0.00435017 -0.000841718 -0.99999 
-0.00430477 -0.0010571 -0.99999 
-0.00482509 -0.00152006 -0.999987 
-0.00482295 -0.00232202 -0.999986 
-0.00465323 -0.00343643 -0.999983 
-0.00509578 -0.00502358 -0.999974 
-0.00469788 -0.00759869 -0.99996 
-0.00469626 -0.0107858 -0.999931 
-0.00411656 -0.0140395 -0.999893 
-0.0033185 -0.0147341 -0.999886 
-0.00279741 -0.0101324 -0.999945 
6.22329e-05 -0.00141318 -0.999999 
-0.000108687 -0.00186016 0.999998 
0.00168817 -0.0102528 0.999946 
0.00237991 -0.0152002 0.999882 
0.00268273 -0.0140462 0.999898 
0.00296293 -0.0106066 0.999939 
0.00307958 -0.00744112 0.999968 
0.00305261 -0.00491818 0.999983 
0.00304367 -0.00328173 0.99999 
0.0029076 -0.00218747 0.999993 
0.00286115 -0.00144053 0.999995 
0.00285825 -0.00102876 0.999995 
0.00275216 -0.000859286 0.999996 
0.00285786 -0.000723862 0.999996 
0.00288995 -0.000542589 0.999996 
0.00298653 -0.000300365 0.999996 
0.00300046 -1.88314e-05 0.999996 
0.00302588 0.000273666 0.999995 
0.00310253 0.00059259 0.999995 
0.00316673 0.00094239 0.999995 
0.00303945 0.00133688 0.999994 
0.00302132 0.00179864 0.999994 
0.00303522 0.00232673 0.999993 
0.00312104 0.00290921 0.999991 
0.00304639 0.0035654 0.999989 
0.00318115 0.00447708 0.999985 
0.00320863 0.00572379 0.999978 
0.00299649 0.00700093 0.999971 
0.00303862 0.0083008 0.999961 
0.00321521 0.00972995 0.999947 
0.00343535 0.0114841 0.999928 
0.00433558 0.0140397 0.999892 
0.00471044 0.0185143 0.999818 
0.00308206 0.0249384 0.999684 
0.00301609 0.0340957 0.999414 
0.00368962 0.0432513 0.999057 
0.00336534 0.0456 0.998954 
0.0111691 0.0819024 0.996578 
0.011823 0.0728661 0.997272 
0.014765 0.0921236 0.995638 
0.015454 0.121476 0.992474 
-0.00853517 0.0824171 -0.996561 
-0.00751976 0.0800757 -0.99676 
-0.00854136 0.0812138 -0.99666 
-0.00260353 0.0422298 -0.999105 
-0.00138257 0.0309503 -0.99952 
-0.00104659 0.02356 -0.999722 
-0.00246454 0.0195163 -0.999807 
-0.00380646 0.013998 -0.999895 
-0.00460809 0.0102073 -0.999937 
-0.00365525 0.00993868 -0.999944 
-0.00343352 0.00936662 -0.99995 
-0.00334143 0.0085751 -0.999958 
-0.00310574 0.00750805 -0.999967 
-0.00289495 0.00598278 -0.999978 
-0.00286426 0.00448371 -0.999986 
-0.00291496 0.00336807 -0.99999 
-0.00296073 0.00260198 -0.999992 
-0.00289411 0.00205529 -0.999994 
-0.00293525 0.00161673 -0.999994 
-0.00301295 0.00119668 -0.999995 
-0.00307953 0.000810865 -0.999995 
-0.00308445 0.000472871 -0.999995 
-0.00305575 0.000169123 -0.999995 
-0.00305193 -0.000118258 -0.999995 
-0.00300007 -0.000371056 -0.999995 
-0.00278309 -0.000601787 -0.999996 
-0.00267077 -0.00077034 -0.999996 
-0.00249251 -0.000906887 -0.999996 
-0.00252688 -0.00111066 -0.999996 
-0.00291267 -0.00156005 -0.999995 
-0.00292656 -0.00234793 -0.999993 
-0.00297171 -0.00360909 -0.999989 
-0.00334168 -0.00540567 -0.99998 
-0.00306254 -0.00813298 -0.999962 
-0.00313076 -0.0113515 -0.999931 
-0.00270391 -0.0144653 -0.999892 
-0.0022104 -0.0150613 -0.999884 
-0.00190418 -0.0103527 -0.999945 
5.67275e-05 -0.00148462 -0.999999 
-9.93825e-05 -0.00130131 0.999999 
0.00103407 -0.0100315 0.999949 
0.00158063 -0.0151968 0.999883 
0.00174546 -0.0145667 0.999892 
0.00188214 -0.0111774 0.999936 
0.00192254 -0.00785786 0.999967 
0.0019028 -0.00523339 0.999985 
0.00181438 -0.00342962 0.999992 
0.00166061 -0.00223497 0.999996 
0.00159491 -0.00148221 0.999998 
0.001605 -0.0011047 0.999998 
0.00152112 -0.000955605 0.999998 
0.00161671 -0.00083711 0.999998 
0.00167903 -0.000661417 0.999998 
0.00178761 -0.000413528 0.999998 
0.00185257 -0.000118092 0.999998 
0.00180377 0.00021156 0.999998 
0.00187803 0.000543013 0.999998 
0.00193783 0.000898885 0.999998 
0.00184133 0.00128187 0.999997 
0.00184652 0.00172423 0.999997 
0.0018782 0.00220867 0.999996 
0.00194461 0.00273058 0.999994 
0.00188953 0.00331151 0.999993 
0.0019379 0.0041591 0.999989 
0.00205083 0.00534492 0.999984 
0.00198419 0.00677884 0.999975 
0.00207053 0.00861873 0.999961 
0.00210567 0.0105477 0.999942 
0.00226246 0.012589 0.999918 
0.002457 0.0150759 0.999883 
0.00243562 0.0189715 0.999817 
0.00266263 0.0322069 0.999478 
0.00435995 0.0425556 0.999085 
0.00858736 0.064827 0.99786 
0.00600017 0.0569366 0.99836 
0.00961886 0.0622608 0.998014 
0.0239051 0.132266 0.990926 
0.0226706 0.134893 0.990601 
0.0192639 0.135816 0.990547 
-0.0147472 0.119237 -0.992756 
-0.0171861 0.119553 -0.992679 
-0.00587294 0.0698189 -0.997542 
-0.00776607 0.0687393 -0.997604 
-0.00742835 0.0643078 -0.997902 
-0.00269848 0.0434085 -0.999054 
-0.000489719 0.0303164 -0.99954 
-0.00109979 0.0188792 -0.999821 
-0.00221576 0.0141111 -0.999898 
-0.00229552 0.0125662 -0.999918 
-0.0024849 0.0112729 -0.999933 
-0.00235109 0.00974894 -0.99995 
-0.00205202 0.00812102 -0.999965 
-0.00181408 0.00626506 -0.999979 
-0.00172804 0.00454034 -0.999988 