# vtk DataFile Version 3.0 
Exported using Morpho https://github.com/Morpho-lang/morpho 
ASCII 
DATASET UNSTRUCTURED_GRID 

POINTS 1978 float 
-12 -4 2.19968e-16 
-11.6607 -4 2.70904e-15 
-11.3193 -4 -1.31751e-17 
-10.9923 -4 1.9108e-15 
-10.6842 -4 8.06754e-16 
-10.3396 -4 -9.39795e-16 
-10.0124 -4 1.69429e-15 
-9.68518 -4 -8.27327e-16 
-9.34309 -4 2.45474e-16 
-9.01024 -4 1.10295e-15 
-8.68706 -4 -1.2075e-15 
-8.38252 -4 1.38783e-15 
-8.07447 -4 2.35752e-16 
-7.77094 -4 -1.12912e-15 
-7.48238 -4 2.5335e-16 
-7.18548 -4 -1.01758e-15 
-6.88173 -4 1.18013e-16 
-6.57923 -4 5.22966e-17 
-6.27895 -4 2.85631e-16 
-5.97633 -4 6.12981e-17 
-5.67577 -4 -1.19931e-15 
-5.38528 -4 -4.633e-16 
-5.10826 -4 -4.49438e-16 
-4.82425 -4 1.2346e-15 
-4.50901 -4 2.04398e-16 
-4.2206 -4 -6.04863e-16 
-3.94323 -4 -3.07748e-16 
-3.63818 -4 -3.11513e-15 
-3.32923 -4 -1.932e-15 
-3.06392 -4 -5.45887e-15 
-2.82241 -4 8.68737e-15 
-2.59978 -4 -8.40071e-15 
-2.37175 -4 1.79769e-15 
-2.16217 -4 -8.13482e-15 
-1.95853 -4 -1.1438e-14 
-1.74682 -4 -1.27121e-14 
-1.51331 -4 8.58943e-16 
-1.25049 -4 -5.4775e-14 
-0.929472 -4 -7.27987e-14 
-0.507424 -4 -1.0134e-12 
0.524481 -4 2.31342e-13 
1.18555 -4 -2.62151e-13 
1.56803 -4 -4.87205e-15 
1.78157 -4 -1.81319e-15 
1.96257 -4 2.77128e-14 
2.13284 -4 -1.53547e-14 
2.33593 -4 1.03256e-14 
2.54108 -4 -2.71368e-16 
2.80724 -4 2.53097e-15 
3.07606 -4 2.99768e-15 
3.34046 -4 3.90884e-15 
3.6057 -4 1.43831e-15 
3.88094 -4 6.62716e-16 
4.19037 -4 -1.10659e-16 
4.49135 -4 -4.01305e-16 
4.79345 -4 -1.20792e-15 
5.09594 -4 1.47642e-16 
5.39339 -4 1.23798e-15 
5.68725 -4 -5.01289e-17 
5.9858 -4 5.86342e-16 
6.27713 -4 -9.24733e-16 
6.57404 -4 3.64268e-16 
6.86862 -4 3.60074e-16 
7.17031 -4 7.91622e-16 
7.46858 -4 8.90157e-16 
7.76519 -4 -6.85e-16 
8.05997 -4 8.69424e-16 
8.36441 -4 -1.59261e-15 
8.67064 -4 2.66526e-16 
8.95921 -4 -1.19346e-15 
9.29494 -4 3.01093e-16 
9.62597 -4 -6.13951e-16 
9.9351 -4 -2.07247e-16 
10.3107 -4 7.15801e-16 
10.6357 -4 -1.57842e-15 
11.0058 -4 -8.01201e-16 
11.3354 -4 -8.69053e-16 
11.6189 -4 -2.88271e-15 
12 -4 2.75299e-16 
-12 -3.68831 -3.14077e-15 
-11.6541 -3.68362 -5.01221e-16 
-11.3499 -3.64099 -1.5187e-16 
-11.038 -3.66435 -3.72522e-16 
-10.7162 -3.64606 2.3116e-16 
-10.3962 -3.6789 -5.76534e-16 
-10.0562 -3.6657 -7.84387e-17 
-9.73087 -3.67403 -6.43099e-17 
-9.39467 -3.68806 -3.96803e-16 
-9.0551 -3.68147 2.53692e-16 
-8.73332 -3.67596 -3.90983e-17 
-8.41237 -3.66487 -1.51474e-17 
-8.10301 -3.66964 -1.82293e-17 
-7.78964 -3.66412 -1.25879e-17 
-7.48335 -3.64959 6.18247e-18 
-7.186 -3.65841 -3.26681e-18 
-6.8808 -3.66205 1.57915e-17 
-6.57018 -3.66653 -1.79641e-18 
-6.25898 -3.67277 3.4959e-17 
-5.94578 -3.67683 2.98613e-17 
-5.6399 -3.67336 4.28006e-17 
-5.34235 -3.66653 6.5818e-17 
-5.04231 -3.67451 8.78361e-17 
-4.7169 -3.70462 1.03507e-16 
-4.39722 -3.67983 2.95248e-16 
-4.0962 -3.66365 -1.05679e-16 
-3.78886 -3.69826 -2.19848e-16 
-3.46494 -3.71396 5.09536e-16 
-3.15661 -3.68182 1.7975e-17 
-2.88307 -3.65 2.56672e-15 
-2.63842 -3.61951 3.50892e-16 
-2.41986 -3.65695 3.82367e-15 
-2.18593 -3.66964 -1.10393e-14 
-1.95856 -3.64397 3.42433e-15 
-1.69443 -3.65257 1.0519e-15 
-1.376 -3.65136 1.20451e-14 
-1.40159 -3.30403 6.67895e-16 
-0.981565 -3.57213 6.47696e-15 
-0.461994 -3.48473 -1.12492e-14 
0.290634 -3.55334 6.00463e-15 
0.979681 -3.6449 5.56319e-15 
1.43556 -3.706 2.66824e-14 
1.45755 -3.38217 -3.41197e-15 
1.77315 -3.65154 1.88985e-14 
1.858 -3.3519 7.58616e-15 
2.01631 -3.64913 -1.71892e-14 
2.24743 -3.6915 7.77509e-15 
2.49301 -3.65156 -9.38934e-15 
2.74058 -3.70938 2.03903e-14 
3.01676 -3.6975 -1.18284e-14 
3.31408 -3.68197 -4.52275e-17 
3.60515 -3.67498 5.8973e-15 
3.89855 -3.68171 -5.39122e-15 
4.21329 -3.68571 1.16805e-15 
4.52656 -3.67818 -3.57265e-16 
4.83294 -3.67549 -3.77014e-16 
5.13526 -3.67019 -8.06526e-17 
5.43572 -3.66818 -5.61212e-17 
5.73709 -3.67206 -4.37398e-17 
6.03146 -3.66088 -3.13625e-17 
6.3287 -3.66437 -2.07835e-17 
6.62526 -3.65909 -1.23053e-17 
6.92716 -3.66695 -6.23892e-18 
7.22985 -3.66299 -8.95623e-19 
7.53195 -3.67047 -6.61238e-18 
7.83131 -3.65771 1.16001e-17 
8.13737 -3.67082 1.16817e-17 
8.44318 -3.66601 1.90035e-17 
8.73937 -3.64283 2.75941e-17 
9.06042 -3.69017 4.61417e-17 
9.38988 -3.68243 5.55639e-17 
9.7063 -3.65508 7.04088e-17 
10.0554 -3.71272 1.30136e-16 
10.3923 -3.66667 1.52927e-16 
10.7458 -3.70342 1.8884e-16 
11.0807 -3.6671 1.41773e-16 
11.3756 -3.61608 1.35016e-16 
11.7133 -3.71546 3.43513e-16 
12 -3.62975 3.50376e-15 
-12 -3.37492 -1.81347e-15 
-11.6925 -3.33488 -1.79831e-16 
-11.35 -3.31304 -3.30739e-17 
-11.0139 -3.31688 -8.94808e-17 
-10.6803 -3.30953 -9.0057e-17 
-10.3485 -3.35246 -4.40181e-16 
-10.021 -3.33072 -7.04652e-17 
-9.7018 -3.3354 -7.20474e-17 
-9.38884 -3.37267 -4.43123e-17 
-9.07927 -3.3449 -4.18094e-17 
-8.76983 -3.34166 -2.79447e-17 
-8.46325 -3.34222 -2.83012e-17 
-8.1476 -3.3339 -1.39434e-17 
-7.84322 -3.33541 -8.79451e-19 
-7.53597 -3.314 -4.28748e-19 
-7.23213 -3.31238 -4.03332e-18 
-6.93488 -3.32556 6.08702e-18 
-6.63233 -3.33662 5.37455e-18 
-6.32612 -3.34358 2.32184e-17 
-6.02365 -3.35504 2.26948e-17 
-5.72026 -3.34987 3.17705e-17 
-5.42385 -3.34103 4.91772e-17 
-5.12744 -3.3473 5.58327e-17 
-4.82008 -3.3943 5.81836e-17 
-4.51002 -3.38116 8.10585e-17 
-4.19818 -3.34247 3.69278e-16 
-3.88331 -3.36911 7.36698e-17 
-3.5785 -3.41357 -4.13618e-16 
-3.27431 -3.39817 5.0427e-16 
-2.97823 -3.34157 -2.68716e-17 
-2.7082 -3.28052 1.47441e-15 
-2.45598 -3.26943 1.05617e-15 
-2.23422 -3.34838 2.20413e-15 
-1.98887 -3.30578 -5.12036e-15 
-1.73249 -3.32115 7.35469e-15 
-1.64223 -2.98825 7.23842e-15 
-1.3026 -2.9144 -8.2562e-15 
-0.955146 -3.15732 1.53612e-14 
-0.344934 -3.04439 -2.23272e-14 
-0.280707 -2.47427 -3.00342e-14 
0.364859 -2.93978 2.04643e-14 
0.923581 -3.25276 -2.68335e-14 
1.24383 -3.0079 -2.87879e-14 
1.62604 -3.09222 -4.72678e-16 
1.94271 -3.06069 2.14348e-14 
2.2141 -3.12072 4.7545e-15 
2.15593 -3.40233 -1.71265e-14 
2.42802 -3.35958 -1.34992e-15 
2.72763 -3.39891 -8.18386e-15 
3.00546 -3.39322 4.93697e-15 
3.27975 -3.35371 -1.09594e-15 
3.5769 -3.35603 -5.27452e-16 
3.88464 -3.37163 -6.61027e-17 
4.19212 -3.37635 1.68022e-16 
4.50055 -3.35703 -2.66194e-16 
4.80509 -3.35232 -5.48421e-17 
5.11135 -3.34221 -2.63645e-17 
5.41303 -3.33948 -3.44348e-17 
5.7129 -3.34497 -2.81214e-17 
6.01296 -3.32605 -2.06484e-17 
6.31064 -3.32952 -1.42859e-17 
6.60964 -3.32258 -9.20534e-18 
6.91063 -3.33304 -5.02256e-18 
7.21453 -3.33296 5.68492e-18 
7.5223 -3.33448 -1.17201e-17 
7.83044 -3.32844 5.68908e-18 
8.13719 -3.33799 1.07793e-17 
8.43935 -3.32235 1.82556e-17 
8.75537 -3.31532 2.41502e-17 
9.07431 -3.36927 3.10242e-17 
9.39258 -3.3498 5.04299e-17 
9.70642 -3.31157 7.22617e-17 
10.017 -3.39728 9.23287e-17 
10.3218 -3.32548 1.24423e-16 
10.6501 -3.3835 1.09845e-16 
10.9804 -3.34855 6.66133e-17 
11.2963 -3.26612 3.76386e-17 
11.6347 -3.36848 1.46646e-16 
12 -3.33634 1.27207e-15 
-12 -3.01782 -2.29742e-15 
-11.6529 -3.01597 -3.76694e-17 
-11.313 -2.9808 3.3948e-17 
-10.9706 -2.98919 -4.1755e-17 
-10.6279 -2.98581 -1.01304e-16 
-10.3045 -3.01474 -5.73806e-17 
-9.97657 -2.9941 -8.37411e-17 
-9.65556 -3.00069 -2.73075e-16 
-9.35007 -3.02852 -1.16525e-17 
-9.04183 -3.00557 -2.34531e-16 
-8.73325 -2.99969 4.19332e-18 
-8.41965 -3.01486 -1.06137e-17 
-8.11069 -2.99787 -4.58621e-18 
-7.80392 -3.00036 8.02628e-18 
-7.49387 -2.97893 4.17159e-18 
-7.18886 -2.97593 -5.04534e-18 
-6.88548 -2.99507 6.5935e-18 
-6.57923 -3.01168 8.36029e-18 
-6.278 -3.01525 7.99226e-18 
-5.97767 -3.03009 1.48588e-17 
-5.68238 -3.01967 2.10602e-17 
-5.38971 -3.01336 2.42644e-17 
-5.09574 -3.01697 2.23762e-17 
-4.80697 -3.07744 5.03019e-17 
-4.50132 -3.05972 4.99495e-17 
-4.18508 -3.02685 3.11355e-17 
-3.86553 -3.0545 5.39099e-17 
-3.54913 -3.09631 4.12038e-17 
-3.24451 -3.08247 2.4098e-16 
-2.95056 -3.01647 -3.67876e-16 
-2.66668 -2.94973 1.39125e-16 
-2.41626 -2.91384 2.80038e-15 
-2.18584 -3.01678 -1.80832e-15 
-1.92956 -2.95088 -5.23799e-15 
-1.81923 -2.6357 -1.77842e-14 
-1.5325 -2.59591 2.57276e-15 
-1.20968 -2.43891 -2.22214e-15 
-0.870119 -2.66722 1.40219e-14 
-0.240974 -1.87247 -2.40845e-14 
0.258041 -1.6111 6.06241e-14 
0.300976 -2.25798 2.59724e-14 
0.779555 -2.07795 -1.65029e-14 
0.843161 -2.66738 -2.20505e-14 
1.31301 -2.608 1.97079e-14 
1.61665 -2.76736 1.49796e-14 
1.85428 -2.70414 -1.23531e-14 
2.12221 -2.80005 -8.78828e-15 
2.42512 -2.98691 -1.64637e-15 
2.65737 -3.11527 -2.57883e-16 
2.95413 -3.07444 7.61188e-16 
3.22471 -3.02097 -8.15461e-17 
3.50992 -3.03655 8.52104e-16 
3.83291 -3.07176 -4.59998e-16 
4.15402 -3.06003 -3.68853e-16 
4.4667 -3.03717 1.84756e-16 
4.77865 -3.02943 -5.13769e-17 
5.08775 -3.02042 -5.29819e-17 
5.39737 -3.01274 -3.23727e-17 
5.69975 -3.01729 -2.19942e-17 
6.00073 -2.99883 -1.42847e-17 
6.30217 -2.99615 -1.35236e-17 
6.60692 -2.99599 -7.02084e-18 
6.9136 -2.99938 1.03939e-17 
7.2207 -3.00425 -4.98853e-18 
7.52719 -3.00642 -3.34423e-18 
7.83407 -2.99378 -5.16441e-18 
8.13948 -3.00284 2.27386e-18 
8.44053 -2.97702 1.34787e-17 
8.74029 -2.98395 2.12053e-17 
9.05807 -3.03796 3.03761e-17 
9.37171 -3.01485 3.10493e-17 
9.6845 -2.97472 4.70044e-17 
10.0115 -3.04544 6.60193e-17 
10.3393 -2.99012 6.03674e-17 
10.6614 -3.05163 1.152e-16 
10.9818 -3.00292 4.29626e-17 
11.3319 -2.94932 -2.70339e-17 
11.6639 -3.06057 8.76861e-17 
12 -3.01346 2.10256e-15 
-12 -2.69704 -2.72406e-15 
-11.6618 -2.68977 -2.69002e-16 
-11.3388 -2.63847 9.1354e-17 
-11.006 -2.66479 3.76961e-17 
-10.6642 -2.66428 1.7177e-16 
-10.32 -2.67493 -3.47824e-17 
-9.99524 -2.66485 -9.554e-18 
-9.66554 -2.66747 -4.07919e-18 
-9.34385 -2.68369 -1.87843e-17 
-9.0277 -2.67056 2.26213e-18 
-8.70775 -2.67063 -7.1425e-18 
-8.39544 -2.68251 -8.28138e-18 
-8.08224 -2.66596 5.94511e-19 
-7.76849 -2.67165 -2.15052e-18 
-7.45368 -2.6493 -7.66724e-19 
-7.14421 -2.64915 8.99959e-19 
-6.83695 -2.67374 -4.6217e-18 
-6.53771 -2.68356 -1.96147e-18 
-6.23548 -2.69147 -4.88524e-18 
-5.94171 -2.70061 -7.33634e-18 
-5.65269 -2.68669 3.57186e-18 
[...]
POINT_DATA 1978 
VECTORS vectors float
0.000126718 0.000915279 1 
6.7831e-05 -0.0144877 0.999895 
-0.000200813 -0.0150179 0.999887 
-4.07124e-05 -0.0114918 0.999934 
-8.20822e-06 -0.00817417 0.999967 
-5.06991e-05 -0.00551573 0.999985 
-3.08618e-05 -0.00381523 0.999993 
-3.61348e-05 -0.00268403 0.999996 
-5.66215e-05 -0.00190514 0.999998 
-5.10548e-05 -0.00142253 0.999999 
-3.12939e-05 -0.00109818 0.999999 
-3.40908e-05 -0.000863278 1 
-4.40708e-05 -0.000620493 1 
-2.38781e-05 -0.000392623 1 
-1.38042e-05 -0.000174444 1 
-3.2863e-05 5.17162e-05 1 
-4.37114e-05 0.000276091 1 
-3.69941e-05 0.000523824 1 
-4.04585e-05 0.000827958 1 
-4.81414e-05 0.00125372 0.999999 
-2.59426e-05 0.0017598 0.999998 
1.39207e-05 0.00237541 0.999997 
9.76447e-06 0.00316726 0.999995 
-4.63875e-05 0.00414602 0.999991 
-4.62358e-05 0.00551551 0.999985 
5.9128e-06 0.00692438 0.999976 
-2.11671e-05 0.00846504 0.999964 
-7.35381e-05 0.0103341 0.999947 
-1.05778e-05 0.012099 0.999927 
9.94196e-05 0.0132824 0.999912 
0.000149893 0.0142976 0.999898 
0.000161481 0.0154919 0.99988 
0.00018298 0.0159411 0.999873 
0.000206003 0.01445 0.999896 
0.000206525 0.0129317 0.999916 
0.000173246 0.0134957 0.999909 
0.000115533 0.019369 0.999812 
4.37741e-05 0.0327249 0.999464 
-0.000102054 0.0576797 0.998335 
-0.000435559 0.0971028 0.995274 
-0.000716434 0.106663 -0.994295 
-0.000175561 0.0450352 -0.998985 
-0.000132592 0.0148423 -0.99989 
-0.000189108 0.0064885 -0.999979 
-0.000238684 0.00379355 -0.999993 
-0.000291593 0.00570051 -0.999984 
-0.000279835 0.0105886 -0.999944 
-0.000175579 0.0156992 -0.999877 
-5.4699e-05 0.0158537 -0.999874 
-2.69097e-05 0.0133988 -0.99991 
-5.60714e-05 0.0118654 -0.99993 
-3.94041e-05 0.0105356 -0.999944 
2.53314e-05 0.00888959 -0.99996 
5.98648e-05 0.00695176 -0.999976 
4.07198e-05 0.00534704 -0.999986 
3.44863e-05 0.00406985 -0.999992 
3.33175e-05 0.0030688 -0.999995 
2.65642e-05 0.00227036 -0.999997 
2.74736e-05 0.00165583 -0.999999 
2.63475e-05 0.00117897 -0.999999 
2.23352e-05 0.000841778 -1 
2.69449e-05 0.000567477 -1 
3.54076e-05 0.00030583 -1 
3.9223e-05 5.96807e-05 -1 
2.8401e-05 -0.000195293 -1 
2.38017e-05 -0.000432366 -1 
3.76667e-05 -0.00064884 -1 
3.82335e-05 -0.00083076 -1 
1.57057e-05 -0.00106772 -0.999999 
4.15419e-05 -0.00136278 -0.999999 
6.63818e-05 -0.00179512 -0.999998 
2.2708e-05 -0.00256634 -0.999997 
2.89269e-05 -0.00353484 -0.999994 
3.3041e-05 -0.0053127 -0.999986 
3.93553e-06 -0.00770151 -0.99997 
5.24219e-05 -0.0116882 -0.999932 
0.000134338 -0.0153738 -0.999882 
-6.1907e-05 -0.0145773 -0.999894 
-0.000120042 0.000948993 -1 
8.12186e-05 0.000437144 1 
0.00494365 -0.0111113 0.999926 
0.00564115 -0.013262 0.999896 
0.00566528 -0.0118872 0.999913 
0.00621071 -0.00897042 0.99994 
0.00625907 -0.00629982 0.999961 
0.00659092 -0.00429018 0.999969 
0.00671193 -0.00300056 0.999973 
0.00678484 -0.0021323 0.999975 
0.00684903 -0.00150839 0.999975 
0.00691253 -0.0011072 0.999975 
0.00716483 -0.000842998 0.999974 
0.00717716 -0.000616478 0.999974 
0.00729022 -0.000390297 0.999973 
0.00749068 -0.000178739 0.999972 
0.0073998 3.50722e-05 0.999973 
0.00725192 0.000264279 0.999974 
0.00727239 0.000526586 0.999973 
0.00721446 0.000857649 0.999974 
0.00721843 0.00130745 0.999973 
0.00727236 0.00185318 0.999972 
0.00735098 0.00249411 0.99997 
0.00720581 0.00333183 0.999968 
0.00674491 0.00451895 0.999967 
0.00687037 0.00591169 0.999959 
0.00680915 0.0073159 0.99995 
0.00639033 0.00883031 0.999941 
0.0065764 0.0102355 0.999926 
0.00811012 0.0113278 0.999903 
0.00977194 0.0125301 0.999874 
0.0118679 0.0132669 0.999842 
0.0118124 0.0140788 0.999831 
0.0118693 0.0142037 0.999829 
0.0111743 0.0150272 0.999825 
0.00928206 0.0183254 0.999789 
0.0070795 0.0282807 0.999575 
0.00925719 0.0318163 0.999451 
0.00442311 0.0505483 0.998712 
0.00290037 0.0971118 0.995269 
-0.00290374 0.110195 -0.993906 
-0.00396855 0.0630164 -0.998005 
-0.00461228 0.0314782 -0.999494 
-0.00825815 0.0322888 -0.999444 
-0.00859411 0.0160778 -0.999834 
-0.0131643 0.0175931 -0.999759 
-0.0112011 0.0117376 -0.999868 
-0.0112386 0.010717 -0.999879 
-0.0120625 0.0117592 -0.999858 
-0.00991582 0.0129647 -0.999867 
-0.00897532 0.0117069 -0.999891 
-0.00800156 0.0104648 -0.999913 
-0.00720743 0.00951185 -0.999929 
-0.00643202 0.00825438 -0.999945 
-0.00670258 0.00666129 -0.999955 
-0.00686427 0.0051236 -0.999963 
-0.00701251 0.00387181 -0.999968 
-0.0071654 0.00291426 -0.99997 
-0.00729813 0.00217644 -0.999971 
-0.0073426 0.00159097 -0.999972 
-0.0074898 0.0011459 -0.999971 
-0.00746622 0.000799313 -0.999972 
-0.00749539 0.000516411 -0.999972 
-0.00742722 0.000254298 -0.999972 
-0.00745968 2.33892e-06 -0.999972 
-0.00746605 -0.000241671 -0.999972 
-0.00743344 -0.000456854 -0.999972 
-0.00730911 -0.000658478 -0.999973 
-0.00723751 -0.0008651 -0.999973 
-0.00743528 -0.00110726 -0.999972 
-0.00693175 -0.00149457 -0.999975 
-0.00682193 -0.00210148 -0.999975 
-0.00687382 -0.0029342 -0.999972 
-0.00622466 -0.00422537 -0.999972 
-0.00633335 -0.00625468 -0.99996 
-0.00569862 -0.00915302 -0.999942 
-0.00559823 -0.0122337 -0.999909 
-0.00565709 -0.0130797 -0.999898 
-0.0046716 -0.010192 -0.999937 
-5.07732e-05 3.72731e-05 -1 
-6.70212e-05 -0.000534135 1 
0.00555321 -0.00902893 0.999944 
0.00704581 -0.0129399 0.999891 
0.00773251 -0.0120367 0.999898 
0.00847463 -0.00927887 0.999921 
0.00881375 -0.00646113 0.99994 
0.00929712 -0.0044496 0.999947 
0.00963394 -0.00313592 0.999949 
0.00960357 -0.00222404 0.999951 
0.00981172 -0.00157578 0.999951 
0.0100319 -0.00114481 0.999949 
0.00999324 -0.000865433 0.99995 
0.0100139 -0.000645304 0.99995 
0.0100404 -0.000437164 0.999949 
0.0101533 -0.000224413 0.999948 
0.0101745 -1.97853e-06 0.999948 
0.0101388 0.000230497 0.999949 
0.0101092 0.000489642 0.999949 
0.0101109 0.000807492 0.999949 
0.0100787 0.0012027 0.999948 
0.0101115 0.0017096 0.999947 
0.0101652 0.0023261 0.999946 
0.0100118 0.0030947 0.999945 
0.00972533 0.00410731 0.999944 
0.00955743 0.00528484 0.99994 
0.00938431 0.00655496 0.999934 
0.00898764 0.00783422 0.999929 
0.00885786 0.00881244 0.999922 
0.00968528 0.00943019 0.999909 
0.0116798 0.0101787 0.99988 
0.0138688 0.0112193 0.999841 
0.0155036 0.012655 0.9998 
0.0158373 0.0141315 0.999775 
0.0149432 0.0166284 0.99975 
0.0128763 0.0208627 0.999699 
0.0111917 0.0263978 0.999589 
0.00793923 0.0395693 0.999185 
0.00517208 0.0541648 0.998519 
0.0023376 0.100031 0.994982 
0.00267475 0.102312 0.994749 
-0.00330753 0.107036 -0.99425 
-0.00601967 0.0592806 -0.998223 
-0.00861792 0.0419847 -0.999081 
-0.0115031 0.0270398 -0.999568 
-0.01393 0.0187556 -0.999727 
-0.0159788 0.0130396 -0.999787 
-0.0161219 0.0120265 -0.999798 
-0.0160201 0.0104371 -0.999817 
-0.0142384 0.0101555 -0.999847 
-0.0125901 0.00960208 -0.999875 
-0.0108789 0.00906899 -0.9999 
-0.00971949 0.0087738 -0.999914 
-0.00906176 0.00813936 -0.999926 
-0.00918734 0.0068284 -0.999934 
-0.00941077 0.00532265 -0.999942 
-0.00962471 0.00400751 -0.999946 
-0.00982301 0.00300145 -0.999947 
-0.00998838 0.00225866 -0.999948 
-0.0101191 0.00168265 -0.999947 
-0.0101877 0.00120881 -0.999947 
-0.0102743 0.00084069 -0.999947 
-0.0102394 0.000530634 -0.999947 
-0.0102649 0.000265014 -0.999947 
-0.0102294 1.44774e-05 -0.999948 
-0.010189 -0.000228727 -0.999948 
-0.0101148 -0.000444549 -0.999949 
-0.0100309 -0.000640414 -0.999949 
-0.0100196 -0.000842922 -0.999949 
-0.0100772 -0.00113147 -0.999949 
-0.00976397 -0.00157385 -0.999951 
-0.00972679 -0.00225042 -0.99995 
-0.0096725 -0.00316941 -0.999948 
-0.00903886 -0.0043713 -0.99995 
-0.00901889 -0.00632648 -0.999939 
-0.00828345 -0.0089241 -0.999926 
-0.007761 -0.0119015 -0.999899 
-0.00721908 -0.0131095 -0.999888 
-0.00586328 -0.0100287 -0.999933 
-6.44785e-06 -0.000477614 -1 
-1.67666e-05 0.000193318 1 
0.00516179 -0.00962284 0.99994 
0.00661126 -0.0134641 0.999887 
0.00750227 -0.0125 0.999894 
0.00817748 -0.00940719 0.999922 
0.00873801 -0.00663179 0.99994 
0.00901401 -0.00453138 0.999949 
0.00928782 -0.00313866 0.999952 
0.00954374 -0.00223258 0.999952 
0.00943001 -0.00155735 0.999954 
0.0093345 -0.00108583 0.999956 
0.00947176 -0.000807461 0.999955 
0.00935021 -0.000616526 0.999956 
0.00937468 -0.00042476 0.999956 
0.00927793 -0.000208535 0.999957 
0.00929437 2.32536e-05 0.999957 
0.00941425 0.000270845 0.999956 
0.00955606 0.000555644 0.999954 
0.00954882 0.000892637 0.999954 
0.00958901 0.00129798 0.999953 
0.00947941 0.00179332 0.999953 
0.00942377 0.00241283 0.999953 
0.00934923 0.00317041 0.999951 
0.00954506 0.00406414 0.999946 
0.00927401 0.00514666 0.999944 
0.00883172 0.00633159 0.999941 
0.00864197 0.00735755 0.999936 
0.00865318 0.00800956 0.99993 
0.00924089 0.00851335 0.999921 
0.0103931 0.00930595 0.999903 
0.0120341 0.010891 0.999868 
0.0134284 0.0129926 0.999825 
0.0140744 0.0154186 0.999782 
0.0123683 0.0200798 0.999722 
0.00883902 0.0242926 0.999666 
0.0076796 0.0325784 0.99944 
0.00507205 0.0460262 0.998927 
0.00453363 0.0611069 0.998121 
0.00156515 0.1036 0.994618 
-0.00544636 0.100344 -0.994938 
-0.00439109 0.105329 -0.994428 
-0.00453018 0.0652881 -0.997856 
-0.00558643 0.064501 -0.997902 
-0.00744935 0.0430073 -0.999047 
-0.00987471 0.0294677 -0.999517 
-0.0111196 0.0208406 -0.999721 
-0.0128625 0.0140993 -0.999818 
-0.0144033 0.0099469 -0.999847 
-0.0144377 0.00857032 -0.999859 
-0.01221 0.00798648 -0.999894 
-0.0101985 0.00789475 -0.999917 
-0.00903447 0.00818493 -0.999926 
-0.00878002 0.00797318 -0.99993 
-0.00874227 0.00685636 -0.999938 
-0.00887092 0.00539908 -0.999946 
-0.00901834 0.00405136 -0.999951 
-0.00912699 0.00302444 -0.999954 
-0.00921566 0.00227529 -0.999955 
-0.00933887 0.00169832 -0.999955 
-0.00939967 0.00123579 -0.999955 
-0.00941418 0.000844856 -0.999955 
-0.00948443 0.000531527 -0.999955 
-0.00947952 0.000259432 -0.999955 
-0.0095153 7.12556e-06 -0.999955 
-0.00949985 -0.000240667 -0.999955 
-0.00942806 -0.000461187 -0.999955 
-0.00932264 -0.000640944 -0.999956 
-0.00920754 -0.000826374 -0.999957 
-0.00922988 -0.00108514 -0.999957 
-0.00954727 -0.00156607 -0.999953 
-0.0094247 -0.00229348 -0.999953 
-0.00914915 -0.00328588 -0.999953 
-0.00920032 -0.00471273 -0.999947 
-0.008678 -0.00695766 -0.999938 
-0.00841438 -0.00962738 -0.999918 
-0.00759135 -0.0125604 -0.999892 
-0.00646476 -0.0135536 -0.999887 
-0.00522197 -0.00946188 -0.999942 
5.51124e-06 0.000142068 -1 
2.09232e-05 5.33831e-05 1 
0.00389312 -0.010027 0.999942 
0.0049101 -0.0141759 0.999887 
0.0057165 -0.0134198 0.999894 
0.00626501 -0.0102663 0.999928 
0.00669125 -0.00711421 0.999952 
0.00687567 -0.00487332 0.999964 
0.00702917 -0.00331092 0.99997 
0.00715219 -0.00226623 0.999972 
0.00706303 -0.00152933 0.999974 
0.00696442 -0.00104095 0.999975 
0.00710157 -0.000787875 0.999974 
0.00696943 -0.000619452 0.999976 
0.00707453 -0.00043006 0.999975 
0.00694104 -0.000203945 0.999976 
0.00697691 4.58202e-05 0.999976 
0.00714298 0.000314573 0.999974 
0.00721593 0.000611151 0.999974 
0.00721239 0.000964352 0.999974 
0.0072332 0.00136486 0.999973 
0.00709815 0.00184728 0.999973 
0.00706325 0.00245189 0.999972 
0.00710241 0.00320696 0.99997 
0.00734013 0.00405781 0.999965 
0.00703933 0.00507154 0.999962 
0.0066098 0.00624689 0.999959 
0.00659182 0.00716634 0.999953 
0.00667578 0.00770194 0.999948 
0.00706617 0.00834331 0.99994 
0.00807551 0.00963673 0.999921 
0.00908452 0.0116922 0.99989 
0.0100593 0.0144229 0.999845 
0.0108701 0.0174144 0.999789 
0.00807647 0.0206753 0.999754 
0.00517657 0.0319577 0.999476 
0.00340934 0.0462323 0.998925 
0.0025935 0.0691727 0.997601 
0.00374873 0.0733093 0.997302 
0.00344305 0.104866 0.99448 
0.00801535 0.109064 0.994002 
-0.0077163 0.0983893 -0.995118 
-0.00440033 0.0626742 -0.998024 
-0.00515708 0.0462955 -0.998914 
-0.00620748 0.034183 -0.999396 
-0.00708972 0.0256063 -0.999647 
-0.00844701 0.0183312 -0.999796 
-0.00972672 0.0125672 -0.999874 
-0.0110454 0.00910043 -0.999898 
-0.0114304 0.00764626 -0.999905 
-0.00897904 0.00729916 -0.999933 
-0.00725942 0.0075791 -0.999945 
-0.00682498 0.00798323 -0.999945 
-0.00672056 0.00765679 -0.999948 
-0.00661374 0.0065215 -0.999957 
-0.00668454 0.00509128 -0.999965 
-0.0068182 0.00382149 -0.999969 
-0.00691199 0.00286773 -0.999972 
-0.00692805 0.00218327 -0.999974 
-0.00705394 0.00164767 -0.999974 
-0.00702752 0.00120009 -0.999975 
-0.00709196 0.000821425 -0.999975 
-0.00712597 0.000506905 -0.999974 
-0.00716697 0.000233804 -0.999974 
-0.00717577 -2.60261e-05 -0.999974 
-0.00718576 -0.00027713 -0.999974 
-0.0069809 -0.000487676 -0.999976 
-0.00696193 -0.000661194 -0.999976 
-0.00669776 -0.000824666 -0.999977 
-0.00671422 -0.00106981 -0.999977 
-0.00729494 -0.0015261 -0.999972 
-0.00710998 -0.00226665 -0.999972 
-0.00684382 -0.00332812 -0.999971 
-0.00720619 -0.00483743 -0.999962 
-0.00665442 -0.00721369 -0.999952 
-0.00654922 -0.0102542 -0.999926 
-0.00580725 -0.0134075 -0.999893 
-0.00473886 -0.0140375 -0.99989 
-0.00390709 -0.00953215 -0.999947 
-2.77647e-05 5.47734e-05 -1 
9.76603e-06 0.000157501 1 
0.00235583 -0.00894177 0.999957 
0.00322639 -0.0139386 0.999898 
0.00388473 -0.0143775 0.999889 
0.00432936 -0.0115921 0.999923 
0.00468792 -0.00828216 0.999955 
0.00470735 -0.00563897 0.999973 
0.00482863 -0.00380909 0.999981 
0.00484421 -0.00257231 0.999985 
0.0047624 -0.00171954 0.999987 
0.00470447 -0.0011576 0.999988 
0.00468302 -0.000868016 0.999989 
0.00466258 -0.000716921 0.999989 
0.00472819 -0.000550174 0.999989 
0.00474315 -0.00033992 0.999989 
0.0047135 -8.57897e-05 0.999989 
0.0048319 0.00018744 0.999988 
0.00486618 0.000473492 0.999988 
0.00494892 0.000794662 0.999987 
0.0048987 0.00116578 0.999987 
0.00481271 0.00158276 0.999987 
0.00476215 0.00209326 0.999986 
0.00483019 0.00269723 0.999985 
0.00490699 0.00340276 0.999982 
0.00496395 0.00418917 0.999979 
0.00485525 0.00525514 0.999974 
0.00461407 0.00645865 0.999968 
0.00450728 0.00730952 0.999963 
0.00462377 0.00804143 0.999957 
0.00505369 0.00911576 0.999946 
0.00551595 0.0106381 0.999928 
0.00613823 0.0126925 0.999901 
0.00734864 0.0160865 0.999844 
0.00598107 0.0229964 0.999718 
0.00412858 0.0280022 0.999599 
0.00348279 0.0370032 0.999309 
0.00311282 0.057673 0.998331 
0.00450634 0.0577842 0.998319 
0.00668587 0.0767522 0.997028 
0.0139715 0.104917 0.994383 
-0.00968387 0.107672 -0.994139 
-0.00607833 0.0640555 -0.997928 
-0.00293601 0.0452114 -0.998973 
-0.00271962 0.033908 -0.999421 
-0.00342854 0.0271366 -0.999626 
-0.00506882 0.0200778 -0.999786 
-0.00655334 0.0142055 -0.999878 
-0.00699326 0.0101758 -0.999924 
-0.00806483 0.00808096 -0.999935 
-0.00609769 0.00815074 -0.999948 
-0.00507798 0.00825605 -0.999953 
-0.00490442 0.00812308 -0.999955 
-0.00473302 0.00767185 -0.999959 
-0.0045528 0.00650233 -0.999968 
-0.00454344 0.00506097 -0.999977 
-0.00462851 0.00381072 -0.999982 
-0.00471156 0.00287757 -0.999985 
-0.00465287 0.00219222 -0.999987 
-0.00473728 0.00168355 -0.999987 
-0.00474516 0.00125655 -0.999988 
-0.00482203 0.000874407 -0.999988 
-0.00485651 0.000542568 -0.999988 
-0.00486987 0.000247657 -0.999988 
-0.00487299 -2.70375e-05 -0.999988 
-0.00489149 -0.000281934 -0.999988 
-0.0045987 -0.000505346 -0.999989 
-0.00452357 -0.000682457 -0.99999 
-0.00435222 -0.000841943 -0.99999 
-0.00430623 -0.00106023 -0.99999 
-0.00482323 -0.00152295 -0.999987 
-0.00482079 -0.00232222 -0.999986 
-0.00464961 -0.00343695 -0.999983 
-0.00508976 -0.00502608 -0.999974 
-0.00469393 -0.00759229 -0.99996 
-0.00468975 -0.0107596 -0.999931 
-0.00411193 -0.0139568 -0.999894 
-0.00331088 -0.014599 -0.999888 
-0.00276002 -0.0100051 -0.999946 
-2.62172e-05 2.60302e-05 -1 
-7.99e-06 -8.05429e-07 1 
0.00166497 -0.0101309 0.999947 
0.00237761 -0.0150641 0.999884 
0.00268306 -0.0139724 0.999899 
0.00296362 -0.0105877 0.99994 
0.00308044 -0.0074368 0.999968 
0.00305538 -0.00492234 0.999983 
0.0030465 -0.00328364 0.99999 
0.0029134 -0.00218928 0.999993 
0.00286733 -0.00144441 0.999995 
0.00286471 -0.0010316 0.999995 
0.00275903 -0.000858941 0.999996 
0.00286433 -0.000721859 0.999996 
0.00289603 -0.00054079 0.999996 
0.00299104 -0.000299316 0.999995 
0.00300509 -1.81348e-05 0.999995 
0.0030295 0.000273863 0.999995 
0.00310652 0.000592417 0.999995 
0.00316977 0.000942102 0.999995 
0.0030433 0.00133591 0.999994 
0.00302606 0.00179651 0.999994 
0.00304102 0.00232349 0.999993 
0.00312522 0.00290623 0.999991 
0.00305162 0.00356459 0.999989 
0.00318391 0.00447434 0.999985 
0.00320991 0.00571438 0.999979 
0.00300268 0.00699076 0.999971 
0.00304514 0.0082921 0.999961 
0.00322823 0.00971682 0.999948 
0.00345186 0.0114705 0.999928 
0.00433456 0.0140699 0.999892 
0.0046852 0.0185257 0.999817 
0.00309047 0.0249351 0.999684 
0.00302682 0.0340938 0.999414 
0.00369208 0.0432151 0.999059 
0.00336605 0.045612 0.998954 
0.0110341 0.0821369 0.99656 
0.0117727 0.0731302 0.997253 
0.0148887 0.0936476 0.995494 
0.0149299 0.120809 0.992563 
-0.00858764 0.0829603 -0.996516 
-0.00741704 0.0800571 -0.996763 
-0.00844947 0.0806121 -0.99671 
-0.00263708 0.042426 -0.999096 
-0.00140382 0.0309733 -0.999519 
-0.0010802 0.0236257 -0.99972 
-0.00247774 0.0194933 -0.999807 
-0.00381646 0.0140402 -0.999894 
-0.00460002 0.0102543 -0.999937 
-0.00366903 0.00993519 -0.999944 
-0.00343994 0.00934611 -0.99995 
-0.0033472 0.00855186 -0.999958 
-0.00311203 0.00748761 -0.999967 
-0.00290032 0.0059715 -0.999978 
-0.00286912 0.00448113 -0.999986 
-0.00292026 0.00336805 -0.99999 
-0.00296603 0.00260183 -0.999992 
-0.00289909 0.00205395 -0.999994 
-0.00293966 0.00161494 -0.999994 
-0.00301692 0.00119543 -0.999995 
-0.00308389 0.000810505 -0.999995 
-0.00308891 0.000472897 -0.999995 
-0.00306014 0.000169026 -0.999995 
-0.00305621 -0.000117483 -0.999995 
-0.00300125 -0.000369755 -0.999995 
-0.00279328 -0.000599739 -0.999996 
-0.00267502 -0.000768676 -0.999996 
-0.00250179 -0.00090711 -0.999996 
-0.00253386 -0.00111435 -0.999996 
-0.00291838 -0.00156435 -0.999995 
-0.00293139 -0.00235047 -0.999993 
-0.00297403 -0.00361275 -0.999989 
-0.00334164 -0.00541 -0.99998 
-0.00306347 -0.00812625 -0.999962 
-0.00313081 -0.0113208 -0.999931 
-0.00270376 -0.014379 -0.999893 
-0.00220667 -0.0149237 -0.999886 
-0.0018791 -0.0102233 -0.999946 
-1.12039e-05 3.56039e-05 -1 
-1.94451e-05 -4.19042e-05 1 
0.00102043 -0.00991371 0.99995 
0.00157711 -0.0150547 0.999885 
0.00174604 -0.0144881 0.999894 
0.00188341 -0.0111528 0.999936 
0.00192464 -0.0078532 0.999967 
0.00190438 -0.0052361 0.999984 
0.00181786 -0.00343369 0.999992 
0.00166516 -0.00223786 0.999996 
0.00160008 -0.0014866 0.999998 
0.00161043 -0.00110735 0.999998 
0.00152643 -0.000954805 0.999998 
0.00162104 -0.000834551 0.999998 
0.00168274 -0.000659143 0.999998 
0.00179048 -0.000412028 0.999998 
0.00185539 -0.000117193 0.999998 
0.00180612 0.000211504 0.999998 
0.0018805 0.000542613 0.999998 
0.0019407 0.000898174 0.999998 
0.0018441 0.00128071 0.999997 
0.00184967 0.00172198 0.999997 
0.00188146 0.00220544 0.999996 
0.00194612 0.00272725 0.999994 
0.00189255 0.00331036 0.999993 
0.00194015 0.00415852 0.999989 
0.00205383 0.00534025 0.999984 
0.00198849 0.00677138 0.999975 
0.0020707 0.00859822 0.999961 
0.00210791 0.0105169 0.999942 
0.00227738 0.0125698 0.999918 
0.0024628 0.0150856 0.999883 
0.00244874 0.0190013 0.999816 
0.00267164 0.0321361 0.99948 
0.00435478 0.0425463 0.999085 
0.008569 0.0647403 0.997865 
0.00600174 0.0569213 0.998361 
0.0096203 0.0623302 0.998009 
0.0238348 0.13234 0.990918 
0.0224869 0.134702 0.990631 
0.0186714 0.135994 0.990534 
-0.0147528 0.118733 -0.992817 
-0.0170471 0.119304 -0.992711 
-0.00588537 0.0695497 -0.997561 
-0.0077623 0.0695696 -0.997547 
-0.00733944 0.0641398 -0.997914 
-0.00265976 0.0430492 -0.999069 
-0.00053164 0.030338 -0.99954 
-0.00111363 0.0188925 -0.999821 
-0.00222607 0.0141354 -0.999898 
-0.00230809 0.0125574 -0.999918 
-0.00248451 0.0112453 -0.999934 
-0.00235036 0.00972343 -0.99995 
-0.00205688 0.00810352 -0.999965 
-0.00182033 0.00625866 -0.999979 
-0.00173296 0.00454193 -0.999988 
-0.00175229 0.00338677 -0.999993 
-0.00179226 0.00267168 -0.999995 
-0.00174133 0.00216026 -0.999996 
-0.00171674 0.00171452 -0.999997 
-0.00182778 0.00130197 -0.999997 