# vtk DataFile Version 3.0 
Exported using Morpho https://github.com/Morpho-lang/morpho 
ASCII 
DATASET UNSTRUCTURED_GRID 

POINTS 1978 float 
-12 -4 -4.51559e-18 
-11.6607 -4 -4.42571e-17 
-11.3193 -4 4.55769e-18 
-10.9923 -4 -3.12845e-17 
-10.6842 -4 -1.22764e-17 
-10.3396 -4 1.85101e-17 
-10.0124 -4 -2.90834e-17 
-9.68518 -4 1.56911e-17 
-9.34309 -4 -3.69306e-18 
-9.01024 -4 -1.92044e-17 
-8.68706 -4 2.19486e-17 
-8.38252 -4 -2.45077e-17 
-8.07447 -4 -3.99997e-18 
-7.77094 -4 2.03067e-17 
-7.48238 -4 -4.47298e-18 
-7.18548 -4 1.81592e-17 
-6.88173 -4 -2.19846e-18 
-6.57923 -4 -1.10456e-18 
-6.27895 -4 -5.37648e-18 
-5.97633 -4 -1.51585e-18 
-5.67577 -4 2.08563e-17 
-5.38528 -4 7.5566e-18 
-5.10826 -4 7.06657e-18 
-4.82425 -4 -2.34547e-17 
-4.50901 -4 -5.42326e-18 
-4.2206 -4 8.85683e-18 
-3.94323 -4 3.01152e-18 
-3.63818 -4 5.22425e-17 
-3.32923 -4 3.05317e-17 
-3.06392 -4 9.3361e-17 
-2.82241 -4 -1.59573e-16 
-2.59978 -4 1.44463e-16 
-2.37175 -4 -3.86169e-17 
-2.16217 -4 1.39545e-16 
-1.95853 -4 2.0082e-16 
-1.74682 -4 2.2464e-16 
-1.51331 -4 -1.84541e-17 
-1.25049 -4 9.72941e-16 
-0.929472 -4 1.30533e-15 
-0.507424 -4 1.55004e-14 
0.524481 -4 -4.58314e-15 
1.18555 -4 4.69378e-15 
1.56803 -4 8.87803e-17 
1.78157 -4 3.2597e-17 
1.96257 -4 -4.95365e-16 
2.13284 -4 2.75901e-16 
2.33593 -4 -1.80425e-16 
2.54108 -4 1.27886e-17 
2.80724 -4 -3.80553e-17 
3.07606 -4 -4.87649e-17 
3.34046 -4 -6.61564e-17 
3.6057 -4 -2.27434e-17 
3.88094 -4 -9.2738e-18 
4.19037 -4 4.1649e-18 
4.49135 -4 8.83004e-18 
4.79345 -4 2.28765e-17 
5.09594 -4 -1.65246e-18 
5.39339 -4 -2.13896e-17 
5.68725 -4 1.43745e-18 
5.9858 -4 -1.00914e-17 
6.27713 -4 1.67939e-17 
6.57404 -4 -6.32046e-18 
6.86862 -4 -6.33357e-18 
7.17031 -4 -1.41216e-17 
7.46858 -4 -1.59703e-17 
7.76519 -4 1.2094e-17 
8.05997 -4 -1.57565e-17 
8.36441 -4 2.81738e-17 
8.67064 -4 -5.08932e-18 
8.95921 -4 2.08393e-17 
9.29494 -4 -6.02446e-18 
9.62597 -4 1.01562e-17 
9.9351 -4 2.41791e-18 
10.3107 -4 -1.45081e-17 
10.6357 -4 2.58157e-17 
11.0058 -4 1.10682e-17 
11.3354 -4 1.16215e-17 
11.6189 -4 4.73473e-17 
12 -4 -4.97913e-18 
-12 -3.68831 5.60688e-17 
-11.654 -3.68424 5.82037e-18 
-11.3496 -3.64165 1.05811e-18 
-11.0379 -3.66414 5.1121e-18 
-10.7162 -3.64609 -5.70273e-18 
-10.396 -3.67891 8.75831e-18 
-10.056 -3.66572 3.3883e-19 
-9.73073 -3.67408 3.8239e-19 
-9.39456 -3.68803 6.51952e-18 
-9.05487 -3.68116 -4.91773e-18 
-8.73284 -3.6758 4.21975e-19 
-8.41199 -3.66478 7.91599e-20 
-8.10268 -3.66959 1.82182e-19 
-7.78937 -3.66411 1.24402e-19 
-7.48304 -3.64963 -1.44003e-19 
-7.18572 -3.65853 7.82323e-20 
-6.88033 -3.66204 -2.10728e-19 
-6.56956 -3.6665 1.80765e-19 
-6.25849 -3.67283 -3.89128e-19 
-5.94539 -3.67684 -2.08291e-19 
-5.63953 -3.67329 -3.41261e-19 
-5.34206 -3.66644 -5.89452e-19 
-5.04204 -3.67436 -7.50161e-19 
-4.71687 -3.70434 -7.36917e-19 
-4.39738 -3.67978 -4.08697e-18 
-4.09644 -3.66358 3.08233e-18 
-3.78957 -3.69793 5.47791e-18 
-3.46579 -3.71374 -7.09613e-18 
-3.15769 -3.68197 2.49195e-18 
-2.8841 -3.65073 -4.36216e-17 
-2.63887 -3.62033 -2.12805e-18 
-2.41956 -3.65666 -6.42235e-17 
-2.18564 -3.66895 2.04019e-16 
-1.95748 -3.64389 -5.49401e-17 
-1.69036 -3.65065 -1.17608e-17 
-1.37046 -3.65029 -2.05484e-16 
-1.39371 -3.30156 -7.9338e-18 
-0.987059 -3.54886 -1.20294e-16 
-0.44782 -3.5154 1.6941e-15 
0.279179 -3.57141 -5.87936e-16 
0.973262 -3.63933 -9.54544e-17 
1.44498 -3.70227 -4.76484e-16 
1.45734 -3.38172 6.37646e-17 
1.76516 -3.61742 -3.42544e-16 
1.85959 -3.3499 -1.40565e-16 
2.01361 -3.6664 3.01741e-16 
2.25244 -3.68999 -1.43282e-16 
2.49435 -3.65295 1.63678e-16 
2.73848 -3.71163 -3.67326e-16 
3.02441 -3.69438 2.08567e-16 
3.31016 -3.67505 -1.48294e-18 
3.5983 -3.66314 -1.068e-16 
3.90527 -3.69044 9.50649e-17 
4.2167 -3.68618 -2.2331e-17 
4.52269 -3.67841 5.19615e-18 
4.83173 -3.67552 5.79521e-18 
5.13521 -3.66998 7.45164e-19 
5.43505 -3.66821 4.73927e-19 
5.73671 -3.67227 3.71938e-19 
6.03121 -3.66082 2.69418e-19 
6.32824 -3.66322 1.70174e-19 
6.62557 -3.66004 1.00471e-19 
6.92724 -3.66678 5.27829e-20 
7.2301 -3.66425 1.00535e-20 
7.53214 -3.66783 1.63293e-19 
7.83132 -3.65922 -1.18728e-19 
8.13608 -3.67022 -5.00042e-20 
8.44323 -3.66608 -1.38921e-19 
8.73959 -3.64282 -2.25455e-19 
9.06055 -3.69003 -3.69789e-19 
9.38993 -3.68236 -4.44818e-19 
9.70642 -3.65505 -5.60929e-19 
10.0555 -3.71268 -1.03266e-18 
10.3924 -3.66672 -1.31059e-18 
10.7457 -3.70332 -1.38251e-18 
11.0806 -3.66699 -1.03036e-18 
11.3755 -3.61602 -1.08879e-18 
11.7132 -3.71536 -2.69307e-18 
12 -3.62975 -6.24111e-17 
-12 -3.37492 3.27686e-17 
-11.6922 -3.33392 1.46927e-18 
-11.3501 -3.31303 1.56955e-19 
-11.0139 -3.31649 8.85272e-19 
-10.6804 -3.30955 3.40995e-19 
-10.3486 -3.35241 6.70664e-18 
-10.0212 -3.3307 2.76544e-19 
-9.70205 -3.33546 5.83073e-19 
-9.38911 -3.37245 3.51965e-19 
-9.07968 -3.34435 3.76373e-19 
-8.77037 -3.34179 2.0059e-19 
-8.46318 -3.34184 3.34359e-19 
-8.14752 -3.33376 1.43661e-19 
-7.843 -3.33533 -5.39747e-20 
-7.53581 -3.31415 -2.54843e-20 
-7.23207 -3.31236 7.7162e-20 
-6.93482 -3.32547 -6.27824e-20 
-6.632 -3.33676 1.03976e-20 
-6.32598 -3.34378 -2.39815e-19 
-6.02365 -3.35499 -1.5092e-19 
-5.7203 -3.3498 -2.26387e-19 
-5.42381 -3.34094 -4.06221e-19 
-5.12727 -3.3472 -4.12097e-19 
-4.81977 -3.39381 -3.55568e-19 
-4.50969 -3.38077 -6.09137e-19 
-4.19801 -3.34257 -5.6606e-18 
-3.88352 -3.36838 -5.55635e-19 
-3.57928 -3.41286 8.20236e-18 
-3.2756 -3.39792 -7.76806e-18 
-2.98018 -3.34244 2.77799e-18 
-2.71009 -3.28175 -2.33779e-17 
-2.45769 -3.26955 -1.47413e-17 
-2.23516 -3.34716 -3.35601e-17 
-1.98802 -3.30698 9.76147e-17 
-1.72704 -3.31924 -1.23866e-16 
-1.63883 -2.98733 -1.23501e-16 
-1.2966 -2.90986 1.49777e-16 
-0.948708 -3.14774 -2.75919e-16 
-0.330418 -3.02728 7.03067e-15 
-0.270567 -2.48103 8.12822e-15 
0.357707 -2.94837 -6.88068e-15 
0.907474 -3.25553 4.71411e-16 
1.22723 -3.00977 5.04662e-16 
1.62184 -3.08517 2.5523e-18 
1.94598 -3.06827 -3.83433e-16 
2.21816 -3.11307 -8.81664e-17 
2.1558 -3.40076 2.9777e-16 
2.433 -3.36207 1.9226e-17 
2.72951 -3.39452 1.4372e-16 
3.00053 -3.39444 -9.0576e-17 
3.28078 -3.35993 1.81429e-17 
3.57335 -3.35521 8.39614e-18 
3.88393 -3.37346 6.53891e-19 
4.1915 -3.37387 -3.77695e-18 
4.50004 -3.35691 3.98838e-18 
4.80653 -3.35257 2.64475e-19 
5.11228 -3.34229 -9.47493e-20 
5.41308 -3.3396 1.88309e-19 
5.71319 -3.34503 1.86646e-19 
6.01255 -3.32561 1.37028e-19 
6.31021 -3.32889 8.64824e-20 
6.6111 -3.32363 6.01139e-20 
6.912 -3.33303 3.61306e-20 
7.21433 -3.33262 -1.08448e-19 
7.5213 -3.33482 2.36411e-19 
7.83029 -3.32723 -3.09769e-20 
8.137 -3.33833 -7.73239e-20 
8.43957 -3.32182 -1.49377e-19 
8.75572 -3.31543 -1.60503e-19 
9.0744 -3.36892 -2.14714e-19 
9.39263 -3.34971 -4.4338e-19 
9.70652 -3.31145 -5.86694e-19 
10.017 -3.39719 -7.39829e-19 
10.3218 -3.3256 -1.01996e-18 
10.65 -3.38334 -8.22382e-19 
10.9802 -3.34835 -4.64963e-19 
11.2962 -3.26607 -3.21566e-19 
11.6346 -3.36834 -1.18913e-18 
12 -3.33634 -2.28809e-17 
-12 -3.01782 4.09692e-17 
-11.6554 -3.01233 1.06945e-19 
-11.3122 -2.98046 -4.24282e-19 
-10.9712 -2.98904 5.13182e-19 
-10.6283 -2.98577 9.86967e-19 
-10.3047 -3.01468 1.81569e-19 
-9.97691 -2.99407 8.00411e-19 
-9.65606 -3.0007 4.39017e-18 
-9.35056 -3.02811 -1.37052e-19 
-9.04227 -3.0048 3.95807e-18 
-8.73312 -3.00045 -2.51884e-19 
-8.41936 -3.01434 6.4682e-20 
-8.11038 -2.9978 2.56638e-20 
-7.80359 -3.00025 -1.70457e-19 
-7.4936 -2.97905 -8.54476e-20 
-7.18882 -2.97583 9.63381e-20 
-6.88538 -2.99529 -8.09044e-20 
-6.57931 -3.01164 -7.42646e-20 
-6.27822 -3.01541 -3.76737e-20 
-5.97798 -3.02994 -1.10693e-19 
-5.6826 -3.01973 -1.8189e-19 
-5.38985 -3.01333 -1.96786e-19 
-5.09563 -3.01692 -1.26974e-19 
-4.80669 -3.07698 -4.62659e-19 
-4.5011 -3.0593 -4.07837e-19 
-4.18478 -3.02721 -1.6477e-19 
-3.86518 -3.05357 -4.85343e-19 
-3.54934 -3.0953 -2.11671e-19 
-3.24545 -3.08196 -3.62381e-18 
-2.9523 -3.01716 7.45228e-18 
-2.66917 -2.95041 -1.18046e-18 
-2.41907 -2.91345 -4.66539e-17 
-2.18889 -3.0156 3.53925e-17 
-1.93259 -2.95272 9.50098e-17 
-1.82138 -2.63802 3.14922e-16 
-1.52996 -2.59259 -4.24546e-17 
-1.19827 -2.43691 4.06626e-17 
-0.856242 -2.66783 -2.50802e-16 
-0.258173 -1.86469 1.45528e-14 
0.258111 -1.60102 -1.67261e-14 
0.300747 -2.26287 -1.14457e-14 
0.763972 -2.07146 2.92141e-16 
0.831732 -2.66604 3.91702e-16 
1.2949 -2.61022 -3.50807e-16 
1.61723 -2.75851 -2.65905e-16 
1.84938 -2.69426 2.12915e-16 
2.12393 -2.80094 1.52289e-16 
2.42926 -2.98599 2.69712e-17 
2.65725 -3.11497 1.56689e-18 
2.95693 -3.07588 -1.51862e-17 
3.22272 -3.02103 7.25809e-19 
3.50898 -3.04155 -1.53145e-17 
3.82917 -3.06804 7.9337e-18 
4.15508 -3.0592 6.25443e-18 
4.46704 -3.03766 -3.7667e-18 
4.77766 -3.02934 4.55773e-19 
5.08755 -3.0203 5.86419e-19 
5.3972 -3.01296 3.3985e-19 
5.69944 -3.01731 2.21056e-19 
6.00114 -2.9991 1.25457e-19 
6.30349 -2.99776 1.44578e-19 
6.60597 -2.99504 5.81565e-20 
6.91263 -2.99936 -2.12549e-19 
7.21966 -3.00375 9.2511e-20 
7.52761 -3.00715 7.23469e-20 
7.83427 -2.99267 1.15521e-19 
8.1397 -3.00246 1.33178e-20 
8.43979 -2.97707 -1.36755e-19 
8.7402 -2.98398 -1.99009e-19 
9.05801 -3.03766 -2.72422e-19 
9.37182 -3.0149 -2.3039e-19 
9.68456 -2.97452 -3.72223e-19 
10.0115 -3.04527 -4.21453e-19 
10.3391 -2.99033 -2.46691e-19 
10.6612 -3.05146 -1.07604e-18 
10.9817 -3.00275 -4.37535e-19 
11.3317 -2.9493 2.02238e-19 
11.6638 -3.06046 -7.2169e-19 
12 -3.01346 -3.76284e-17 
-12 -2.69704 4.87057e-17 
-11.6615 -2.69326 4.71775e-18 
-11.339 -2.63858 -7.25012e-19 
-11.0059 -2.66478 -2.5034e-20 
-10.6641 -2.66426 -3.10736e-18 
-10.3201 -2.675 3.78276e-19 
-9.99531 -2.66481 -5.80369e-20 
-9.66562 -2.66742 -8.07581e-20 
-9.34397 -2.68332 2.48522e-19 
-9.02744 -2.67022 -1.27373e-19 
-8.70763 -2.67125 6.03128e-20 
-8.39515 -2.68211 1.06613e-19 
-8.082 -2.66592 -7.56539e-21 
-7.76824 -2.67151 4.41828e-20 
-7.4537 -2.64923 1.77686e-20 
-7.14424 -2.64915 -1.36444e-20 
-6.83713 -2.67395 9.02816e-20 
-6.53794 -2.6835 5.16189e-20 
-6.23592 -2.69148 9.98977e-20 
-5.94194 -2.70071 1.60558e-19 
-5.65286 -2.68688 -2.52184e-20 
[...]
POINT_DATA 1978 
VECTORS vectors float
8.89497e-05 0.000682237 1 
4.52255e-05 -0.0144877 0.999895 
-0.000113137 -0.0150179 0.999887 
-5.00928e-08 -0.0114918 0.999934 
5.61929e-06 -0.00817417 0.999967 
-2.32057e-05 -0.00551573 0.999985 
-7.51606e-06 -0.00381523 0.999993 
-9.72531e-06 -0.00268403 0.999996 
-2.07393e-05 -0.00190514 0.999998 
-1.85085e-05 -0.00142253 0.999999 
-8.84219e-06 -0.00109818 0.999999 
-1.20788e-05 -0.000863277 1 
-1.976e-05 -0.000620493 1 
-8.38768e-06 -0.000392623 1 
-2.66105e-06 -0.000174444 1 
-1.35697e-05 5.17162e-05 1 
-1.85478e-05 0.000276091 1 
-1.32549e-05 0.000523824 1 
-1.51967e-05 0.000827958 1 
-2.16408e-05 0.00125372 0.999999 
-1.19922e-05 0.0017598 0.999998 
1.02232e-05 0.00237541 0.999997 
9.22952e-06 0.00316726 0.999995 
-2.35205e-05 0.00414602 0.999991 
-2.29144e-05 0.00551551 0.999985 
1.01748e-05 0.00692438 0.999976 
-5.74137e-06 0.00846504 0.999964 
-3.96099e-05 0.0103341 0.999947 
-7.67864e-06 0.012099 0.999927 
5.39601e-05 0.0132824 0.999912 
8.2422e-05 0.0142976 0.999898 
8.67099e-05 0.0154919 0.99988 
0.000101599 0.0159411 0.999873 
0.000121061 0.01445 0.999896 
0.000121739 0.0129317 0.999916 
9.70062e-05 0.0134957 0.999909 
5.90602e-05 0.019369 0.999812 
2.72704e-05 0.0327249 0.999464 
6.90586e-06 0.0576797 0.998335 
0.000258945 0.0971028 0.995274 
0.000297471 0.106663 -0.994295 
0.000126353 0.0450352 -0.998985 
-4.25792e-05 0.0148423 -0.99989 
-0.000114299 0.0064885 -0.999979 
-0.000153428 0.00379356 -0.999993 
-0.000184764 0.00570051 -0.999984 
-0.000170127 0.0105886 -0.999944 
-9.5108e-05 0.0156992 -0.999877 
-1.65898e-05 0.0158537 -0.999874 
-7.19291e-06 0.0133988 -0.99991 
-3.00036e-05 0.0118654 -0.99993 
-2.23076e-05 0.0105356 -0.999944 
1.26679e-05 0.00888959 -0.99996 
2.82592e-05 0.00695176 -0.999976 
1.44115e-05 0.00534704 -0.999986 
1.27444e-05 0.00406985 -0.999992 
1.35312e-05 0.0030688 -0.999995 
9.79846e-06 0.00227036 -0.999997 
1.1106e-05 0.00165583 -0.999999 
1.08037e-05 0.00117897 -0.999999 
8.09321e-06 0.000841778 -1 
1.03355e-05 0.000567477 -1 
1.43714e-05 0.00030583 -1 
1.67558e-05 5.96807e-05 -1 
1.05669e-05 -0.000195293 -1 
7.61854e-06 -0.000432366 -1 
1.60199e-05 -0.000648839 -1 
1.68655e-05 -0.00083076 -1 
1.31917e-06 -0.00106772 -0.999999 
1.48468e-05 -0.00136278 -0.999999 
2.90766e-05 -0.00179512 -0.999998 
2.35107e-06 -0.00256634 -0.999997 
8.88891e-06 -0.00353484 -0.999994 
1.32066e-05 -0.0053127 -0.999986 
-8.15881e-06 -0.00770151 -0.99997 
1.20351e-05 -0.0116882 -0.999932 
7.85782e-05 -0.0153738 -0.999882 
-3.14468e-05 -0.0145773 -0.999894 
-8.01855e-05 0.000712748 -1 
8.02577e-05 0.000218079 1 
0.00494364 -0.0111113 0.999926 
0.00564115 -0.013262 0.999896 
0.00566528 -0.0118872 0.999913 
0.00621071 -0.00897042 0.99994 
0.00625907 -0.00629982 0.999961 
0.00659091 -0.00429018 0.999969 
0.00671193 -0.00300056 0.999973 
0.00678484 -0.0021323 0.999975 
0.00684903 -0.00150839 0.999975 
0.00691252 -0.0011072 0.999975 
0.00716482 -0.000842998 0.999974 
0.00717716 -0.000616478 0.999974 
0.00729022 -0.000390297 0.999973 
0.00749068 -0.000178739 0.999972 
0.0073998 3.50722e-05 0.999973 
0.00725192 0.000264279 0.999974 
0.00727238 0.000526586 0.999973 
0.00721446 0.000857649 0.999974 
0.00721843 0.00130745 0.999973 
0.00727236 0.00185318 0.999972 
0.00735098 0.00249411 0.99997 
0.0072058 0.00333183 0.999968 
0.0067449 0.00451895 0.999967 
0.00687036 0.00591169 0.999959 
0.00680915 0.0073159 0.99995 
0.00639033 0.00883031 0.999941 
0.0065764 0.0102355 0.999926 
0.00811011 0.0113278 0.999903 
0.00977194 0.0125301 0.999874 
0.0118679 0.0132669 0.999842 
0.0118124 0.0140788 0.999831 
0.0118693 0.0142037 0.999829 
0.0111743 0.0150272 0.999825 
0.00928205 0.0183254 0.999789 
0.0070795 0.0282807 0.999575 
0.00925719 0.0318163 0.999451 
0.00442311 0.0505483 0.998712 
0.00290038 0.0971118 0.995269 
-0.00290374 0.110195 -0.993906 
-0.00396855 0.0630164 -0.998005 
-0.00461228 0.0314782 -0.999494 
-0.00825815 0.0322888 -0.999444 
-0.0085941 0.0160778 -0.999834 
-0.0131643 0.0175931 -0.999759 
-0.0112011 0.0117376 -0.999868 
-0.0112386 0.010717 -0.999879 
-0.0120625 0.0117592 -0.999858 
-0.00991582 0.0129647 -0.999867 
-0.00897532 0.0117069 -0.999891 
-0.00800156 0.0104648 -0.999913 
-0.00720743 0.00951185 -0.999929 
-0.00643202 0.00825438 -0.999945 
-0.00670257 0.00666129 -0.999955 
-0.00686427 0.0051236 -0.999963 
-0.00701251 0.00387181 -0.999968 
-0.0071654 0.00291426 -0.99997 
-0.00729813 0.00217644 -0.999971 
-0.0073426 0.00159097 -0.999972 
-0.0074898 0.0011459 -0.999971 
-0.00746622 0.000799313 -0.999972 
-0.00749539 0.000516411 -0.999972 
-0.00742722 0.000254298 -0.999972 
-0.00745968 2.33893e-06 -0.999972 
-0.00746604 -0.000241671 -0.999972 
-0.00743344 -0.000456854 -0.999972 
-0.00730911 -0.000658478 -0.999973 
-0.0072375 -0.0008651 -0.999973 
-0.00743528 -0.00110726 -0.999972 
-0.00693175 -0.00149457 -0.999975 
-0.00682192 -0.00210148 -0.999975 
-0.00687382 -0.0029342 -0.999972 
-0.00622465 -0.00422537 -0.999972 
-0.00633335 -0.00625468 -0.99996 
-0.00569862 -0.00915302 -0.999942 
-0.00559823 -0.0122337 -0.999909 
-0.00565709 -0.0130797 -0.999898 
-0.00467159 -0.010192 -0.999937 
-4.98635e-05 -4.87027e-05 -1 
-6.64526e-05 -0.000365943 1 
0.00555321 -0.00902892 0.999944 
0.00704581 -0.0129399 0.999891 
0.00773251 -0.0120367 0.999898 
0.00847463 -0.00927887 0.999921 
0.00881375 -0.00646113 0.99994 
0.00929712 -0.0044496 0.999947 
0.00963394 -0.00313592 0.999949 
0.00960357 -0.00222404 0.999951 
0.00981172 -0.00157578 0.999951 
0.0100319 -0.00114481 0.999949 
0.00999324 -0.000865433 0.99995 
0.0100139 -0.000645304 0.99995 
0.0100404 -0.000437164 0.999949 
0.0101533 -0.000224413 0.999948 
0.0101745 -1.97853e-06 0.999948 
0.0101388 0.000230497 0.999949 
0.0101092 0.000489642 0.999949 
0.0101109 0.000807492 0.999949 
0.0100787 0.0012027 0.999948 
0.0101115 0.0017096 0.999947 
0.0101652 0.0023261 0.999946 
0.0100118 0.0030947 0.999945 
0.00972533 0.00410731 0.999944 
0.00955743 0.00528484 0.99994 
0.00938431 0.00655496 0.999934 
0.00898764 0.00783421 0.999929 
0.00885786 0.00881244 0.999922 
0.00968528 0.00943019 0.999909 
0.0116798 0.0101787 0.99988 
0.0138688 0.0112193 0.999841 
0.0155036 0.012655 0.9998 
0.0158373 0.0141315 0.999775 
0.0149432 0.0166284 0.99975 
0.0128763 0.0208627 0.999699 
0.0111917 0.0263979 0.999589 
0.00793923 0.0395693 0.999185 
0.00517208 0.0541648 0.998519 
0.00233761 0.100031 0.994982 
0.00267474 0.102312 0.994749 
-0.00330752 0.107036 -0.99425 
-0.00601967 0.0592806 -0.998223 
-0.00861792 0.0419847 -0.999081 
-0.0115031 0.0270398 -0.999568 
-0.01393 0.0187556 -0.999727 
-0.0159788 0.0130396 -0.999787 
-0.0161219 0.0120265 -0.999798 
-0.0160201 0.0104371 -0.999817 
-0.0142384 0.0101555 -0.999847 
-0.0125901 0.00960208 -0.999875 
-0.0108789 0.00906899 -0.9999 
-0.00971949 0.0087738 -0.999914 
-0.00906176 0.00813936 -0.999926 
-0.00918734 0.00682839 -0.999934 
-0.00941077 0.00532265 -0.999942 
-0.0096247 0.00400751 -0.999946 
-0.00982301 0.00300145 -0.999947 
-0.00998838 0.00225866 -0.999948 
-0.0101191 0.00168265 -0.999947 
-0.0101877 0.00120881 -0.999947 
-0.0102743 0.00084069 -0.999947 
-0.0102394 0.000530634 -0.999947 
-0.0102649 0.000265014 -0.999947 
-0.0102294 1.44774e-05 -0.999948 
-0.010189 -0.000228727 -0.999948 
-0.0101148 -0.000444549 -0.999949 
-0.0100309 -0.000640414 -0.999949 
-0.0100196 -0.000842922 -0.999949 
-0.0100772 -0.00113147 -0.999949 
-0.00976396 -0.00157385 -0.999951 
-0.00972679 -0.00225042 -0.99995 
-0.0096725 -0.00316941 -0.999948 
-0.00903886 -0.0043713 -0.99995 
-0.00901888 -0.00632648 -0.999939 
-0.00828345 -0.0089241 -0.999926 
-0.007761 -0.0119014 -0.999899 
-0.00721908 -0.0131095 -0.999888 
-0.00586328 -0.0100287 -0.999933 
-6.28186e-06 -0.00030228 -1 
-1.64427e-05 0.000164121 1 
0.00516179 -0.00962284 0.99994 
0.00661126 -0.0134641 0.999887 
0.00750227 -0.0125 0.999894 
0.00817748 -0.00940718 0.999922 
0.00873801 -0.00663179 0.99994 
0.00901401 -0.00453138 0.999949 
0.00928781 -0.00313866 0.999952 
0.00954374 -0.00223258 0.999952 
0.00943001 -0.00155735 0.999954 
0.0093345 -0.00108583 0.999956 
0.00947176 -0.000807461 0.999955 
0.0093502 -0.000616526 0.999956 
0.00937468 -0.00042476 0.999956 
0.00927793 -0.000208535 0.999957 
0.00929437 2.32536e-05 0.999957 
0.00941425 0.000270845 0.999956 
0.00955606 0.000555644 0.999954 
0.00954882 0.000892637 0.999954 
0.00958901 0.00129798 0.999953 
0.00947941 0.00179332 0.999953 
0.00942377 0.00241283 0.999953 
0.00934923 0.00317041 0.999951 
0.00954505 0.00406414 0.999946 
0.00927401 0.00514666 0.999944 
0.00883172 0.00633159 0.999941 
0.00864196 0.00735755 0.999936 
0.00865317 0.00800956 0.99993 
0.00924089 0.00851335 0.999921 
0.0103931 0.00930595 0.999903 
0.0120341 0.010891 0.999868 
0.0134284 0.0129926 0.999825 
0.0140744 0.0154186 0.999782 
0.0123683 0.0200798 0.999722 
0.00883902 0.0242926 0.999666 
0.0076796 0.0325784 0.99944 
0.00507205 0.0460262 0.998927 
0.00453363 0.0611069 0.998121 
0.00156515 0.1036 0.994618 
-0.00544636 0.100344 -0.994938 
-0.00439109 0.105329 -0.994428 
-0.00453018 0.0652881 -0.997856 
-0.00558643 0.064501 -0.997902 
-0.00744935 0.0430073 -0.999047 
-0.00987471 0.0294676 -0.999517 
-0.0111196 0.0208406 -0.999721 
-0.0128625 0.0140993 -0.999818 
-0.0144033 0.0099469 -0.999847 
-0.0144377 0.00857032 -0.999859 
-0.01221 0.00798648 -0.999894 
-0.0101985 0.00789475 -0.999917 
-0.00903447 0.00818493 -0.999926 
-0.00878002 0.00797318 -0.99993 
-0.00874227 0.00685636 -0.999938 
-0.00887092 0.00539908 -0.999946 
-0.00901834 0.00405136 -0.999951 
-0.00912699 0.00302444 -0.999954 
-0.00921566 0.00227529 -0.999955 
-0.00933887 0.00169832 -0.999955 
-0.00939967 0.00123578 -0.999955 
-0.00941418 0.000844856 -0.999955 
-0.00948443 0.000531527 -0.999955 
-0.00947952 0.000259432 -0.999955 
-0.0095153 7.12555e-06 -0.999955 
-0.00949985 -0.000240667 -0.999955 
-0.00942806 -0.000461187 -0.999955 
-0.00932264 -0.000640944 -0.999956 
-0.00920754 -0.000826374 -0.999957 
-0.00922988 -0.00108514 -0.999957 
-0.00954727 -0.00156607 -0.999953 
-0.0094247 -0.00229348 -0.999953 
-0.00914915 -0.00328588 -0.999953 
-0.00920032 -0.00471273 -0.999947 
-0.00867799 -0.00695766 -0.999938 
-0.00841438 -0.00962738 -0.999918 
-0.00759135 -0.0125604 -0.999892 
-0.00646476 -0.0135536 -0.999887 
-0.00522196 -0.00946187 -0.999942 
5.54146e-06 0.000124999 -1 
2.06936e-05 -1.3609e-05 1 
0.00389312 -0.010027 0.999942 
0.0049101 -0.0141759 0.999887 
0.0057165 -0.0134198 0.999894 
0.00626501 -0.0102663 0.999928 
0.00669125 -0.00711421 0.999952 
0.00687567 -0.00487332 0.999964 
0.00702917 -0.00331092 0.99997 
0.00715219 -0.00226623 0.999972 
0.00706303 -0.00152933 0.999974 
0.00696442 -0.00104095 0.999975 
0.00710157 -0.000787875 0.999974 
0.00696943 -0.000619452 0.999976 
0.00707453 -0.00043006 0.999975 
0.00694104 -0.000203945 0.999976 
0.00697691 4.58202e-05 0.999976 
0.00714298 0.000314573 0.999974 
0.00721593 0.000611151 0.999974 
0.00721239 0.000964352 0.999974 
0.0072332 0.00136486 0.999973 
0.00709815 0.00184728 0.999973 
0.00706325 0.00245189 0.999972 
0.00710241 0.00320696 0.99997 
0.00734013 0.00405781 0.999965 
0.00703932 0.00507154 0.999962 
0.0066098 0.00624689 0.999959 
0.00659182 0.00716634 0.999953 
0.00667578 0.00770194 0.999948 
0.00706617 0.00834331 0.99994 
0.00807551 0.00963673 0.999921 
0.00908452 0.0116922 0.99989 
0.0100593 0.0144229 0.999845 
0.0108701 0.0174144 0.999789 
0.00807647 0.0206753 0.999754 
0.00517657 0.0319577 0.999476 
0.00340934 0.0462323 0.998925 
0.0025935 0.0691727 0.997601 
0.00374873 0.0733093 0.997302 
0.00344305 0.104866 0.99448 
0.00801537 0.109064 0.994002 
-0.00771628 0.0983893 -0.995118 
-0.00440033 0.0626742 -0.998024 
-0.00515708 0.0462955 -0.998914 
-0.00620748 0.034183 -0.999396 
-0.00708972 0.0256063 -0.999647 
-0.00844701 0.0183312 -0.999796 
-0.00972672 0.0125672 -0.999874 
-0.0110454 0.00910043 -0.999898 
-0.0114304 0.00764626 -0.999905 
-0.00897904 0.00729916 -0.999933 
-0.00725942 0.0075791 -0.999945 
-0.00682498 0.00798323 -0.999945 
-0.00672056 0.00765679 -0.999948 
-0.00661374 0.0065215 -0.999957 
-0.00668454 0.00509128 -0.999965 
-0.0068182 0.00382149 -0.999969 
-0.00691199 0.00286773 -0.999972 
-0.00692805 0.00218327 -0.999974 
-0.00705394 0.00164767 -0.999974 
-0.00702752 0.00120009 -0.999975 
-0.00709196 0.000821425 -0.999975 
-0.00712597 0.000506905 -0.999974 
-0.00716697 0.000233804 -0.999974 
-0.00717577 -2.60261e-05 -0.999974 
-0.00718576 -0.00027713 -0.999974 
-0.0069809 -0.000487676 -0.999976 
-0.00696193 -0.000661194 -0.999976 
-0.00669776 -0.000824666 -0.999977 
-0.00671422 -0.00106981 -0.999977 
-0.00729494 -0.0015261 -0.999972 
-0.00710998 -0.00226665 -0.999972 
-0.00684382 -0.00332812 -0.999971 
-0.00720619 -0.00483743 -0.999962 
-0.00665442 -0.00721369 -0.999952 
-0.00654922 -0.0102542 -0.999926 
-0.00580725 -0.0134075 -0.999893 
-0.00473886 -0.0140375 -0.99989 
-0.00390709 -0.00953215 -0.999947 
-2.74147e-05 1.20099e-05 -1 
9.60646e-06 7.45922e-05 1 
0.00235583 -0.00894176 0.999957 
0.00322639 -0.0139386 0.999898 
0.00388473 -0.0143775 0.999889 
0.00432936 -0.0115921 0.999923 
0.00468792 -0.00828216 0.999955 
0.00470735 -0.00563897 0.999973 
0.00482863 -0.00380909 0.999981 
0.00484421 -0.00257231 0.999985 
0.0047624 -0.00171954 0.999987 
0.00470447 -0.0011576 0.999988 
0.00468302 -0.000868016 0.999989 
0.00466258 -0.000716921 0.999989 
0.00472819 -0.000550174 0.999989 
0.00474315 -0.00033992 0.999989 
0.0047135 -8.57897e-05 0.999989 
0.0048319 0.00018744 0.999988 
0.00486618 0.000473492 0.999988 
0.00494892 0.000794662 0.999987 
0.0048987 0.00116578 0.999987 
0.00481271 0.00158276 0.999987 
0.00476215 0.00209326 0.999986 
0.00483019 0.00269723 0.999985 
0.00490699 0.00340276 0.999982 
0.00496395 0.00418917 0.999979 
0.00485525 0.00525514 0.999974 
0.00461407 0.00645865 0.999968 
0.00450728 0.00730952 0.999963 
0.00462377 0.00804143 0.999957 
0.00505369 0.00911576 0.999946 
0.00551595 0.0106381 0.999928 
0.00613823 0.0126925 0.999901 
0.00734864 0.0160865 0.999844 
0.00598107 0.0229964 0.999718 
0.00412858 0.0280022 0.999599 
0.00348279 0.0370032 0.999309 
0.00311282 0.057673 0.998331 
0.00450635 0.0577842 0.998319 
0.00668587 0.0767522 0.997028 
0.0139715 0.104917 0.994383 
-0.00968387 0.107672 -0.994139 
-0.00607833 0.0640555 -0.997928 
-0.00293601 0.0452114 -0.998973 
-0.00271963 0.033908 -0.999421 
-0.00342854 0.0271366 -0.999626 
-0.00506882 0.0200778 -0.999786 
-0.00655334 0.0142055 -0.999878 
-0.00699326 0.0101758 -0.999924 
-0.00806483 0.00808096 -0.999935 
-0.00609769 0.00815074 -0.999948 
-0.00507798 0.00825605 -0.999953 
-0.00490442 0.00812308 -0.999955 
-0.00473302 0.00767185 -0.999959 
-0.0045528 0.00650233 -0.999968 
-0.00454344 0.00506097 -0.999977 
-0.00462851 0.00381072 -0.999982 
-0.00471156 0.00287757 -0.999985 
-0.00465287 0.00219222 -0.999987 
-0.00473728 0.00168355 -0.999987 
-0.00474516 0.00125655 -0.999988 
-0.00482203 0.000874407 -0.999988 
-0.00485651 0.000542568 -0.999988 
-0.00486987 0.000247657 -0.999988 
-0.00487299 -2.70375e-05 -0.999988 
-0.00489149 -0.000281934 -0.999988 
-0.0045987 -0.000505346 -0.999989 
-0.00452357 -0.000682457 -0.99999 
-0.00435222 -0.000841943 -0.99999 
-0.00430623 -0.00106023 -0.99999 
-0.00482323 -0.00152295 -0.999987 
-0.00482079 -0.00232222 -0.999986 
-0.00464961 -0.00343695 -0.999983 
-0.00508976 -0.00502608 -0.999974 
-0.00469393 -0.00759229 -0.99996 
-0.00468975 -0.0107596 -0.999931 
-0.00411193 -0.0139568 -0.999894 
-0.00331088 -0.014599 -0.999888 
-0.00276002 -0.0100051 -0.999946 
-2.58356e-05 4.71122e-06 -1 
-7.8739e-06 -1.25962e-05 1 
0.00166497 -0.0101309 0.999947 
0.00237761 -0.0150641 0.999884 
0.00268306 -0.0139724 0.999899 
0.00296362 -0.0105877 0.99994 
0.00308044 -0.0074368 0.999968 
0.00305538 -0.00492234 0.999983 
0.0030465 -0.00328364 0.99999 
0.0029134 -0.00218928 0.999993 
0.00286733 -0.00144441 0.999995 
0.00286471 -0.0010316 0.999995 
0.00275903 -0.000858941 0.999996 
0.00286433 -0.000721859 0.999996 
0.00289603 -0.00054079 0.999996 
0.00299104 -0.000299315 0.999995 
0.00300509 -1.81348e-05 0.999995 
0.0030295 0.000273863 0.999995 
0.00310652 0.000592417 0.999995 
0.00316977 0.000942102 0.999995 
0.0030433 0.00133591 0.999994 
0.00302606 0.00179651 0.999994 
0.00304102 0.00232349 0.999993 
0.00312522 0.00290623 0.999991 
0.00305162 0.00356459 0.999989 
0.00318391 0.00447434 0.999985 
0.00320991 0.00571438 0.999979 
0.00300268 0.00699076 0.999971 
0.00304514 0.0082921 0.999961 
0.00322823 0.00971682 0.999948 
0.00345186 0.0114705 0.999928 
0.00433456 0.0140699 0.999892 
0.0046852 0.0185257 0.999817 
0.00309048 0.0249351 0.999684 
0.00302682 0.0340938 0.999414 
0.00369208 0.0432151 0.999059 
0.00336605 0.045612 0.998954 
0.0110341 0.0821369 0.99656 
0.0117727 0.0731303 0.997253 
0.0148887 0.0936476 0.995494 
0.0149299 0.120809 0.992563 
-0.00858763 0.0829603 -0.996516 
-0.00741703 0.0800571 -0.996763 
-0.00844947 0.0806121 -0.99671 
-0.00263708 0.042426 -0.999096 
-0.00140382 0.0309733 -0.999519 
-0.0010802 0.0236257 -0.99972 
-0.00247774 0.0194933 -0.999807 
-0.00381646 0.0140402 -0.999894 
-0.00460002 0.0102543 -0.999937 
-0.00366903 0.00993519 -0.999944 
-0.00343994 0.00934611 -0.99995 
-0.0033472 0.00855186 -0.999958 
-0.00311203 0.00748761 -0.999967 
-0.00290032 0.0059715 -0.999978 
-0.00286912 0.00448113 -0.999986 
-0.00292026 0.00336805 -0.99999 
-0.00296603 0.00260183 -0.999992 
-0.00289909 0.00205395 -0.999994 
-0.00293966 0.00161494 -0.999994 
-0.00301692 0.00119543 -0.999995 
-0.00308389 0.000810505 -0.999995 
-0.00308891 0.000472897 -0.999995 
-0.00306014 0.000169026 -0.999995 
-0.00305621 -0.000117483 -0.999995 
-0.00300125 -0.000369755 -0.999995 
-0.00279328 -0.000599738 -0.999996 
-0.00267502 -0.000768676 -0.999996 
-0.00250179 -0.00090711 -0.999996 
-0.00253386 -0.00111435 -0.999996 
-0.00291838 -0.00156435 -0.999995 
-0.00293139 -0.00235047 -0.999993 
-0.00297403 -0.00361275 -0.999989 
-0.00334164 -0.00541 -0.99998 
-0.00306347 -0.00812625 -0.999962 
-0.00313081 -0.0113208 -0.999931 
-0.00270376 -0.014379 -0.999893 
-0.00220667 -0.0149237 -0.999886 
-0.0018791 -0.0102233 -0.999946 
-1.10055e-05 1.40308e-05 -1 
-1.91981e-05 -2.80729e-05 1 
0.00102043 -0.0099137 0.99995 
0.00157711 -0.0150547 0.999885 
0.00174604 -0.0144881 0.999894 
0.00188341 -0.0111528 0.999936 
0.00192464 -0.0078532 0.999967 
0.00190438 -0.0052361 0.999984 
0.00181786 -0.00343369 0.999992 
0.00166516 -0.00223786 0.999996 
0.00160008 -0.0014866 0.999998 
0.00161043 -0.00110735 0.999998 
0.00152643 -0.000954805 0.999998 
0.00162104 -0.000834551 0.999998 
0.00168274 -0.000659143 0.999998 
0.00179048 -0.000412028 0.999998 
0.00185539 -0.000117193 0.999998 
0.00180612 0.000211504 0.999998 
0.0018805 0.000542613 0.999998 
0.0019407 0.000898174 0.999998 
0.0018441 0.00128071 0.999997 
0.00184967 0.00172198 0.999997 
0.00188146 0.00220544 0.999996 
0.00194612 0.00272725 0.999994 
0.00189255 0.00331036 0.999993 
0.00194015 0.00415852 0.999989 
0.00205383 0.00534025 0.999984 
0.00198849 0.00677138 0.999975 
0.0020707 0.00859822 0.999961 
0.00210791 0.0105169 0.999942 
0.00227738 0.0125698 0.999918 
0.0024628 0.0150856 0.999883 
0.00244874 0.0190013 0.999816 
0.00267164 0.0321361 0.99948 
0.00435478 0.0425463 0.999085 
0.008569 0.0647403 0.997865 
0.00600174 0.0569213 0.998361 
0.0096203 0.0623303 0.998009 
0.0238348 0.13234 0.990918 
0.0224868 0.134702 0.990631 
0.0186714 0.135994 0.990534 
-0.0147528 0.118733 -0.992817 
-0.0170471 0.119304 -0.992711 
-0.00588538 0.0695497 -0.997561 
-0.0077623 0.0695697 -0.997547 
-0.00733944 0.0641398 -0.997914 
-0.00265976 0.0430491 -0.999069 
-0.000531641 0.030338 -0.99954 
-0.00111363 0.0188925 -0.999821 
-0.00222607 0.0141354 -0.999898 
-0.00230809 0.0125574 -0.999918 
-0.00248451 0.0112453 -0.999934 
-0.00235036 0.00972343 -0.99995 
-0.00205688 0.00810352 -0.999965 
-0.00182033 0.00625866 -0.999979 
-0.00173296 0.00454193 -0.999988 
-0.00175229 0.00338677 -0.999993 
-0.00179226 0.00267168 -0.999995 
-0.00174133 0.00216026 -0.999996 
-0.00171674 0.00171452 -0.999997 
-0.00182778 0.00130197 -0.999997 