# vtk DataFile Version 3.0 
Exported using Morpho https://github.com/Morpho-lang/morpho 
ASCII 
DATASET UNSTRUCTURED_GRID 

POINTS 1978 float 
-12 -4 -1.61358e-10 
-11.6607 -4 2.37719e-08 
-11.3195 -4 5.52278e-09 
-10.9925 -4 1.70351e-08 
-10.684 -4 8.23675e-09 
-10.3405 -4 -4.82172e-09 
-10.0119 -4 1.34435e-08 
-9.6855 -3.99999 -4.86722e-09 
-9.34316 -4 2.53412e-09 
-9.00988 -4 8.53484e-09 
-8.68663 -3.99999 -8.14076e-09 
-8.38274 -4 1.01919e-08 
-8.07459 -4 1.91041e-09 
-7.77051 -4 -7.86762e-09 
-7.48255 -4 1.86079e-09 
-7.18553 -4 -7.26155e-09 
-6.88197 -3.99999 7.56846e-10 
-6.57929 -4 1.31615e-10 
-6.27839 -4 1.71945e-09 
-5.97581 -4 -5.28474e-11 
-5.6753 -4 -9.17479e-09 
-5.38426 -3.99999 -4.1054e-09 
-5.10848 -4 -4.32919e-09 
-4.82471 -4 7.10951e-09 
-4.50838 -4 -6.38126e-10 
-4.22044 -3.99999 -6.66103e-09 
-3.94365 -4 -5.23611e-09 
-3.63806 -3.99999 -2.60286e-08 
-3.3294 -3.99999 -1.82104e-08 
-3.06295 -4.00001 -4.37189e-08 
-2.82562 -4.00001 5.64053e-08 
-2.59586 -3.99998 -6.75645e-08 
-2.37045 -4 2.62804e-09 
-2.16024 -4 -6.88524e-08 
-1.9572 -4.00001 -8.65826e-08 
-1.74849 -4 -9.25604e-08 
-1.5072 -4.00001 9.83132e-09 
-1.25253 -3.99999 -3.87308e-07 
-0.926091 -3.99996 -5.08467e-07 
-0.512686 -4.00012 -2.58432e-06 
0.535508 -4.00008 5.3478e-06 
1.20084 -3.99999 -1.85818e-06 
1.57015 -4.00004 -2.05902e-08 
1.79837 -3.99998 -1.93292e-09 
1.95818 -4.00001 1.84757e-07 
2.12775 -4.00003 -1.04199e-07 
2.32459 -4 7.98191e-08 
2.54175 -3.99995 1.09546e-08 
2.80394 -4.00002 3.18412e-08 
3.07504 -4 2.45675e-08 
3.34033 -3.99999 3.26568e-08 
3.60772 -3.99999 1.57397e-08 
3.87736 -4 6.0959e-09 
4.19078 -4 1.76406e-09 
4.49041 -4 -9.52871e-10 
4.79353 -4 -7.12172e-09 
5.09602 -4 2.17865e-09 
5.39355 -4 9.62403e-09 
5.68715 -4 2.51046e-10 
5.98559 -4 4.59758e-09 
6.27719 -4 -6.26061e-09 
6.57388 -4 2.80753e-09 
6.86873 -4 2.67368e-09 
7.17056 -4 5.65257e-09 
7.46872 -4 6.24995e-09 
7.76537 -4 -5.0402e-09 
8.05973 -4 5.90153e-09 
8.36412 -4 -1.1649e-08 
8.67063 -4 1.50528e-09 
8.95927 -4 -9.05762e-09 
9.2949 -3.99999 1.4015e-09 
9.62595 -4 -5.33196e-09 
9.93498 -4 -3.03966e-09 
10.3108 -4 2.97726e-09 
10.6355 -3.99999 -1.42269e-08 
11.0059 -3.99999 -9.79272e-09 
11.3355 -4 -1.17872e-08 
11.6189 -3.99999 -2.43864e-08 
12 -3.99999 2.82881e-09 
-12 -3.68843 -2.16139e-08 
-11.6545 -3.68391 1.23959e-18 
-11.3511 -3.64113 -7.28728e-18 
-11.0392 -3.66597 -1.44647e-19 
-10.7159 -3.64439 -7.71977e-19 
-10.3979 -3.67978 3.83392e-19 
-10.0566 -3.66751 4.7415e-19 
-9.73109 -3.66948 -4.38171e-19 
-9.39958 -3.68925 -9.69414e-19 
-9.06285 -3.68603 2.41527e-18 
-8.73459 -3.68153 4.17136e-19 
-8.41177 -3.66552 5.68226e-19 
-8.10366 -3.66964 -4.90524e-19 
-7.79107 -3.66507 1.67e-18 
-7.48537 -3.64747 -2.04366e-19 
-7.18961 -3.65784 5.72632e-20 
-6.8877 -3.66632 -1.14529e-18 
-6.57697 -3.66466 1.47759e-19 
-6.26583 -3.67209 -2.60594e-19 
-5.94976 -3.67766 1.53387e-18 
-5.6421 -3.67447 -3.28675e-19 
-5.34423 -3.66482 6.73877e-19 
-5.0443 -3.67576 -1.6905e-18 
-4.71736 -3.70875 -2.9924e-20 
-4.39904 -3.6807 1.28016e-18 
-4.10036 -3.66723 6.7031e-19 
-3.78388 -3.7004 7.78978e-20 
-3.44865 -3.70976 1.42714e-18 
-3.12703 -3.68099 -1.95276e-20 
-2.8605 -3.66889 -4.56821e-19 
-2.64071 -3.60719 -8.61112e-20 
-2.42545 -3.66415 -6.95562e-18 
-2.19373 -3.65952 -5.60308e-18 
-1.97173 -3.65687 -1.4415e-17 
-1.71534 -3.68301 -1.06744e-17 
-1.43279 -3.65047 -5.62028e-18 
-1.43143 -3.32404 -1.03008e-17 
-1.05973 -3.60647 5.41117e-18 
-0.536171 -3.55809 2.05333e-15 
0.500956 -3.50605 -2.79222e-16 
1.01676 -3.62237 6.68697e-17 
1.33823 -3.75736 -1.09652e-16 
1.46261 -3.43735 -5.94946e-18 
1.71853 -3.70535 1.56695e-17 
1.83748 -3.4174 1.09357e-17 
2.00018 -3.61761 5.90855e-18 
2.2254 -3.69437 -2.0597e-18 
2.47483 -3.6653 3.39811e-18 
2.74402 -3.70888 -5.019e-18 
3.03406 -3.70167 1.74483e-18 
3.32736 -3.67293 5.29309e-19 
3.61273 -3.658 -2.66527e-18 
3.92565 -3.70785 -9.08702e-19 
4.23137 -3.68666 -7.94419e-20 
4.53424 -3.67995 1.4885e-19 
4.83957 -3.67625 1.45007e-19 
5.14113 -3.67094 1.64304e-19 
5.4386 -3.66731 -3.76327e-19 
5.73854 -3.67155 1.06232e-18 
6.03254 -3.66067 -3.60175e-19 
6.32996 -3.66462 -2.99572e-19 
6.62672 -3.6601 5.10036e-19 
6.92836 -3.6677 -5.09304e-19 
7.23044 -3.66374 -2.66447e-20 
7.53239 -3.66272 1.4488e-19 
7.83337 -3.66066 3.07273e-19 
8.13717 -3.67298 -1.38266e-18 
8.44249 -3.66949 1.3099e-18 
8.73649 -3.64332 -1.13227e-18 
9.05824 -3.69209 -2.42984e-18 
9.38894 -3.68387 1.52117e-18 
9.7051 -3.65554 -1.81077e-18 
10.0549 -3.71316 -2.05134e-18 
10.3916 -3.66541 6.36409e-19 
10.7467 -3.70521 -1.33901e-18 
11.0824 -3.66851 2.99048e-18 
11.3771 -3.6171 4.98902e-18 
11.7143 -3.71667 -2.68702e-19 
12 -3.62983 2.45974e-08 
-12 -3.37509 -1.1025e-08 
-11.6928 -3.33345 3.40617e-18 
-11.3504 -3.31395 9.15179e-19 
-11.0126 -3.31996 9.08422e-19 
-10.6805 -3.30506 3.01601e-18 
-10.3476 -3.35634 1.79307e-18 
-10.0205 -3.33199 1.8779e-18 
-9.69929 -3.3321 1.38789e-18 
-9.3848 -3.3717 5.10439e-19 
-9.06547 -3.36339 6.79526e-19 
-8.76753 -3.33475 5.1735e-19 
-8.46805 -3.34703 3.91468e-19 
-8.15055 -3.33382 7.46812e-20 
-7.84518 -3.33703 1.0793e-19 
-7.5376 -3.31207 9.98292e-20 
-7.23244 -3.31162 -2.67623e-20 
-6.93435 -3.32499 -5.65927e-20 
-6.63493 -3.3371 -2.46528e-19 
-6.32759 -3.34252 -3.29929e-19 
-6.02483 -3.35686 -4.83952e-19 
-5.7195 -3.3516 -7.46207e-19 
-5.42338 -3.3406 -9.07971e-19 
-5.12533 -3.34724 -1.21199e-18 
-4.82027 -3.40061 -1.17013e-18 
-4.51326 -3.38408 -1.4591e-18 
-4.20386 -3.34115 -1.97996e-18 
-3.89067 -3.37999 -1.36702e-18 
-3.57215 -3.41394 -8.9601e-19 
-3.25214 -3.40337 -2.4792e-18 
-2.95245 -3.33728 -4.2927e-18 
-2.69581 -3.26167 -4.9168e-18 
-2.45735 -3.28965 -8.26246e-18 
-2.23526 -3.33564 -1.06199e-17 
-1.99274 -3.3087 -1.21304e-17 
-1.75917 -3.35634 -1.26295e-17 
-1.65566 -3.01431 -1.08495e-17 
-1.34431 -2.92411 -5.90848e-18 
-1.06121 -3.19035 -1.23035e-18 
-0.53283 -3.11035 -3.20457e-15 
-0.521427 -2.54627 -3.3225e-15 
0.532535 -2.94969 1.36555e-15 
1.08052 -3.21318 -4.70762e-18 
1.3587 -3.02117 3.81733e-18 
1.63344 -3.1617 9.63187e-18 
1.88959 -3.07661 7.81617e-18 
2.12358 -3.15878 1.21905e-17 
2.21799 -3.36669 1.17021e-17 
2.44916 -3.34792 6.73863e-18 
2.72221 -3.41403 6.06154e-18 
3.00216 -3.39831 3.92623e-18 
3.28568 -3.36267 3.35707e-18 
3.57791 -3.33929 1.60292e-18 
3.88157 -3.40083 9.91589e-19 
4.18453 -3.37812 1.60168e-18 
4.49305 -3.35965 1.59362e-18 
4.80054 -3.35402 1.51947e-18 
5.10765 -3.34398 1.1307e-18 
5.40958 -3.33774 8.13302e-19 
5.70919 -3.34416 5.79193e-19 
6.00896 -3.32574 4.62382e-19 
6.30685 -3.33045 3.15638e-19 
6.60656 -3.32359 3.02298e-19 
6.9084 -3.33422 1.00387e-19 
7.21259 -3.33318 -4.45812e-21 
7.52127 -3.33204 -5.38044e-20 
7.83231 -3.33053 -5.84849e-20 
8.1442 -3.34217 -2.04778e-19 
8.4426 -3.32353 -2.69008e-19 
8.757 -3.31485 -6.01241e-19 
9.07395 -3.37353 -5.22666e-19 
9.39063 -3.35062 -6.3478e-19 
9.70547 -3.31304 -1.50432e-18 
10.0169 -3.39799 -1.0634e-18 
10.3223 -3.32361 -2.67011e-18 
10.6512 -3.3863 -1.66384e-18 
10.982 -3.35123 -9.34515e-19 
11.2981 -3.26712 -8.74178e-19 
11.6358 -3.37029 -2.24007e-18 
12 -3.33662 8.29197e-09 
-12 -3.01801 -1.47802e-08 
-11.6552 -3.01333 6.13044e-18 
-11.3108 -2.98389 -7.12434e-19 
-10.9719 -2.99025 7.99774e-19 
-10.625 -2.9839 1.81153e-18 
-10.3037 -3.0173 1.69464e-18 
-9.97471 -2.9958 1.31423e-18 
-9.6498 -2.99983 8.64316e-19 
-9.34229 -3.0348 5.61606e-19 
-9.0409 -3.01167 4.6242e-19 
-8.73387 -2.9923 3.15726e-19 
-8.42442 -3.01928 2.24585e-19 
-8.11473 -2.99875 1.35263e-19 
-7.8081 -3.00142 1.53091e-20 
-7.49554 -2.97826 4.97634e-20 
-7.18884 -2.97643 -8.78526e-21 
-6.88489 -2.9919 -9.99755e-20 
-6.57849 -3.01292 -1.35799e-19 
-6.27632 -3.01419 -1.85419e-19 
-5.9752 -3.03219 -2.88472e-19 
-5.68125 -3.01895 -2.90216e-19 
-5.38816 -3.01521 -4.09923e-19 
-5.09586 -3.01565 -4.17489e-19 
-4.80856 -3.08252 -8.30527e-19 
-4.50424 -3.06259 -9.70808e-19 
-4.19045 -3.02229 -6.57701e-19 
-3.87273 -3.06384 -8.59331e-19 
-3.55397 -3.10513 -1.22539e-18 
-3.24113 -3.09108 -1.16906e-18 
-2.9445 -3.01276 -1.49463e-18 
-2.64378 -2.93034 -2.99063e-18 
-2.38773 -2.94341 -4.46423e-18 
-2.15834 -3.00299 -6.22668e-18 
-1.90223 -2.94658 -2.81141e-18 
-1.78693 -2.58087 -2.37846e-18 
-1.53511 -2.62637 -4.82225e-18 
-1.26032 -2.43881 -1.17815e-17 
-1.00136 -2.65688 1.08802e-17 
-0.481357 -1.92474 -9.23105e-15 
0.464236 -1.61111 7.29339e-15 
0.510178 -2.29705 6.95473e-15 
0.964893 -2.11045 2.14145e-18 
1.00502 -2.69038 -2.62271e-18 
1.3445 -2.6234 8.01646e-18 
1.62799 -2.75234 3.99685e-18 
1.86095 -2.75584 7.69911e-18 
2.13644 -2.84307 1.50682e-18 
2.40607 -2.97464 4.42047e-18 
2.66093 -3.12235 6.14104e-18 
2.95385 -3.08744 2.76438e-18 
3.21868 -3.02508 1.11202e-18 
3.50431 -3.03233 3.79562e-20 
3.83895 -3.08726 3.27898e-19 
4.15568 -3.06328 6.12676e-19 
4.46802 -3.04084 8.88977e-19 
4.78118 -3.03083 8.07367e-19 
5.09208 -3.02128 5.7981e-19 
5.40118 -3.01151 3.64013e-19 
5.70276 -3.01651 2.64242e-19 
6.00338 -2.99822 1.92363e-19 
6.30445 -2.99722 1.94295e-19 
6.6067 -2.99322 8.59734e-20 
6.91089 -3.00109 2.31797e-20 
7.21864 -3.00521 5.88964e-21 
7.52876 -3.00558 -1.01862e-20 
7.84341 -3.00564 -5.27787e-20 
8.13928 -3.00037 -7.50653e-20 
8.43984 -2.98038 -1.90708e-19 
8.73962 -2.98156 -2.67027e-19 
9.05657 -3.04072 -5.50333e-19 
9.37024 -3.01601 -5.88058e-19 
9.68434 -2.97728 -8.14039e-19 
10.0132 -3.04655 -1.66057e-18 
10.3409 -2.98667 -1.65084e-18 
10.6621 -3.05459 -2.50402e-18 
10.9828 -3.0053 -9.44229e-19 
11.334 -2.94992 8.9699e-19 
11.6653 -3.06217 -4.03564e-18 
12 -3.01366 1.38194e-08 
-12 -2.69703 -1.79634e-08 
-11.6556 -2.69397 1.56774e-20 
-11.3351 -2.64004 -2.93558e-18 
-11.004 -2.66398 -1.67262e-18 
-10.664 -2.66634 -7.00934e-20 
-10.3155 -2.67322 1.52942e-19 
-9.99537 -2.66608 2.68996e-19 
-9.66577 -2.66838 1.58651e-19 
-9.34368 -2.68531 6.27449e-20 
-9.0303 -2.67445 1.33305e-19 
-8.70997 -2.66544 1.25865e-19 
-8.39649 -2.68617 1.48453e-20 
-8.08492 -2.66549 -3.79222e-20 
-7.77108 -2.67368 -1.9442e-20 
-7.45464 -2.64937 -1.29494e-20 
[...]
POINT_DATA 1978 
VECTORS vectors float
0.0078024 -0.0114978 0.999907 
0.00656617 -0.0165395 0.999844 
0.00493239 -0.0160617 0.999865 
0.00474766 -0.0115659 0.999927 
0.00506139 -0.00801616 0.99996 
0.00493872 -0.00539548 0.999977 
0.0050566 -0.00375438 0.999985 
0.00504528 -0.00262409 0.999988 
0.00487565 -0.0018755 0.99999 
0.00522887 -0.00144224 0.999989 
0.00545381 -0.00112924 0.999989 
0.00573901 -0.000888793 0.999988 
0.00575031 -0.000633493 0.999988 
0.00578512 -0.000417793 0.999989 
0.00599602 -0.000173316 0.999988 
0.00590407 7.00577e-05 0.999988 
0.00581024 0.000277757 0.999989 
0.00578818 0.000522716 0.999986 
0.00567107 0.00082476 0.999989 
0.00558442 0.00125325 0.999988 
0.00572505 0.0017369 0.999986 
0.00587625 0.00235186 0.999986 
0.00569998 0.00321281 0.999984 
0.00534169 0.00419151 0.999981 
0.00536407 0.00555324 0.999975 
0.00550524 0.00698805 0.999965 
0.00533964 0.00863419 0.999953 
0.00536547 0.0106635 0.999933 
0.00553452 0.0125277 0.99991 
0.00606323 0.0136681 0.999892 
0.00573629 0.0145416 0.999881 
0.00524651 0.0160568 0.999864 
0.00504039 0.0167547 0.999853 
0.00462866 0.0146773 0.99989 
0.00441848 0.0123603 0.999919 
0.00583915 0.0121338 0.999914 
0.00480726 0.0177853 0.999833 
0.00361733 0.0312781 0.999509 
0.00281441 0.0575578 0.998348 
0.00417772 0.0968406 0.995262 
-0.00230389 0.10862 -0.994059 
-0.00529105 0.0442493 -0.999007 
-0.00585597 0.011745 -0.999918 
-0.00385587 0.00499338 -0.999982 
-0.00288348 0.00160042 -1 
-0.00433707 0.00493319 -0.999985 
-0.00636779 0.0103725 -0.999933 
-0.00776193 0.0174498 -0.999823 
-0.00574632 0.0168444 -0.999844 
-0.00567235 0.0137896 -0.999895 
-0.00595159 0.0122313 -0.999912 
-0.00580631 0.0108098 -0.999928 
-0.00509132 0.00898372 -0.999951 
-0.00534484 0.00701179 -0.999965 
-0.00546844 0.0053701 -0.999975 
-0.00562436 0.00409196 -0.999981 
-0.00572194 0.00309391 -0.999984 
-0.00579486 0.00227566 -0.999986 
-0.0058424 0.0016515 -0.999987 
-0.00588008 0.00117163 -0.999987 
-0.00591901 0.000840091 -0.999987 
-0.00589852 0.000569353 -0.999989 
-0.0058564 0.000302944 -0.999988 
-0.00587657 6.47575e-05 -0.999988 
-0.0058691 -0.000193977 -0.999988 
-0.00594535 -0.000443315 -0.999988 
-0.00582595 -0.000684432 -0.999988 
-0.00579632 -0.000830078 -0.999988 
-0.00588471 -0.00107718 -0.999988 
-0.00543013 -0.00141 -0.999989 
-0.00523559 -0.00174852 -0.999989 
-0.00523736 -0.00255245 -0.999988 
-0.00445087 -0.0035067 -0.999987 
-0.00449833 -0.00519817 -0.999979 
-0.00420314 -0.00755877 -0.999966 
-0.00422017 -0.0117083 -0.999926 
-0.00512943 -0.0164258 -0.999857 
-0.0064664 -0.0162567 -0.999851 
-0.00718141 -0.0112496 -0.999914 
0.00709992 -0.0118349 0.999909 
0.00707968 -0.0130536 0.9999 
0.00613177 -0.0140555 0.999892 
0.00647729 -0.0123616 0.99991 
0.00684086 -0.00906642 0.999945 
0.00737768 -0.00625825 0.999962 
0.00741063 -0.00421313 0.999972 
0.00752083 -0.0029812 0.999979 
0.00787198 -0.00212882 0.999973 
0.00778928 -0.00148671 0.999978 
0.00777627 -0.00108924 0.999979 
0.00797032 -0.000854826 0.999977 
0.00808154 -0.000623583 0.999976 
0.00823066 -0.000382493 0.999976 
0.00827507 -0.000186888 0.999973 
0.00832737 2.74038e-05 0.999974 
0.00813886 0.00026234 0.999974 
0.00811883 0.000516339 0.999978 
0.00808017 0.000842751 0.999976 
0.00815102 0.00131301 0.999974 
0.00816203 0.00188573 0.999974 
0.00812227 0.00249708 0.999971 
0.00806459 0.00331465 0.99997 
0.0078205 0.00454659 0.999967 
0.00770216 0.00603004 0.99996 
0.00750578 0.00749487 0.999952 
0.00727546 0.00906125 0.999941 
0.00747959 0.0104157 0.999926 
0.00905 0.0114498 0.999901 
0.0110568 0.0128727 0.999863 
0.0130273 0.0137718 0.999828 
0.0136158 0.0143301 0.999811 
0.0131789 0.0140747 0.999821 
0.0126056 0.0145791 0.999822 
0.0104327 0.0173356 0.999801 
0.0083512 0.0272639 0.999603 
0.00989379 0.0316158 0.999463 
0.00508566 0.0494211 0.998776 
0.00405818 0.0973168 0.995204 
-0.0030558 0.108487 -0.994019 
-0.00541632 0.0656986 -0.997827 
-0.00456282 0.0311448 -0.999515 
-0.00895005 0.0317782 -0.999465 
-0.00925869 0.0141738 -0.999867 
-0.0147589 0.0174357 -0.999747 
-0.0125453 0.0119757 -0.999857 
-0.0125745 0.0107563 -0.999868 
-0.0132677 0.0119985 -0.999847 
-0.0113621 0.0135638 -0.999852 
-0.0102618 0.011858 -0.999882 
-0.00881015 0.0106478 -0.999912 
-0.0077199 0.00974128 -0.999933 
-0.0073863 0.00851471 -0.999944 
-0.00754935 0.00677819 -0.999957 
-0.00773011 0.00513579 -0.999965 
-0.00790192 0.00388222 -0.99997 
-0.00802603 0.00291992 -0.999972 
-0.00815567 0.00218346 -0.999974 
-0.00827751 0.001589 -0.999972 
-0.00834338 0.00114222 -0.999974 
-0.0083899 0.000798853 -0.999973 
-0.00833719 0.000524512 -0.999973 
-0.00836418 0.000260192 -0.999973 
-0.00834482 -7.86316e-07 -0.999974 
-0.00839847 -0.00025776 -0.999974 
-0.00830124 -0.000468143 -0.999973 
-0.00825549 -0.00066003 -0.999973 
-0.00816246 -0.000879805 -0.999975 
-0.00812867 -0.00110129 -0.999976 
-0.00807636 -0.00145638 -0.999974 
-0.00778936 -0.0021009 -0.999976 
-0.00753299 -0.00290414 -0.999977 
-0.00752339 -0.00412617 -0.999971 
-0.00706373 -0.00620023 -0.999966 
-0.00682855 -0.00922615 -0.999943 
-0.00640337 -0.0128477 -0.999906 
-0.00601637 -0.013864 -0.999895 
-0.00710009 -0.0126958 -0.999902 
-0.00670433 -0.0116105 -0.999916 
0.0066562 -0.0109854 0.999924 
0.00680197 -0.010836 0.999927 
0.00770405 -0.0140093 0.999879 
0.00844704 -0.0127305 0.999895 
0.00936985 -0.00944954 0.999921 
0.00957666 -0.00645373 0.999942 
0.0102035 -0.0043856 0.999948 
0.0106226 -0.00311862 0.999945 
0.0104408 -0.00223957 0.999954 
0.010706 -0.00157068 0.999949 
0.0110968 -0.00113163 0.999945 
0.0109662 -0.000870164 0.999948 
0.0109831 -0.000665146 0.999947 
0.0109841 -0.000448062 0.999948 
0.0111823 -0.000231013 0.999946 
0.0111614 -3.75552e-06 0.999946 
0.0111013 0.000231175 0.999948 
0.0110522 0.000492795 0.999947 
0.0110898 0.000805754 0.999947 
0.0110175 0.00119967 0.999947 
0.0110534 0.00171007 0.999945 
0.0112165 0.00234072 0.999944 
0.0110306 0.0031296 0.999944 
0.0105518 0.00415848 0.999943 
0.0104504 0.00537488 0.999939 
0.0103729 0.00674075 0.999933 
0.0097622 0.00811745 0.999929 
0.00939268 0.00901226 0.999921 
0.0102173 0.00934166 0.999912 
0.0124931 0.0100277 0.999881 
0.0150703 0.0112104 0.999831 
0.0170687 0.0126448 0.999779 
0.017616 0.0140845 0.999752 
0.0164076 0.0161683 0.999743 
0.014284 0.0204288 0.999698 
0.0121957 0.0261542 0.99959 
0.0086421 0.0395752 0.999188 
0.00492289 0.0540559 0.99854 
0.000198567 0.0997685 0.994959 
0.00327461 0.10211 0.994688 
-0.00344495 0.109354 -0.993928 
-0.00608816 0.0604555 -0.99817 
-0.00932527 0.0424002 -0.999066 
-0.0119094 0.0264162 -0.99959 
-0.0150552 0.0185084 -0.99972 
-0.0174116 0.0128372 -0.999771 
-0.0185577 0.0116932 -0.999767 
-0.0175502 0.0103179 -0.9998 
-0.0154881 0.0100542 -0.999837 
-0.0136451 0.00961038 -0.999867 
-0.0117516 0.009096 -0.999898 
-0.0104863 0.00906262 -0.999912 
-0.00972772 0.0084224 -0.999926 
-0.0100351 0.00704631 -0.999931 
-0.010267 0.00539881 -0.999943 
-0.0105499 0.00402178 -0.999945 
-0.0107747 0.00301285 -0.999945 
-0.0109526 0.00227329 -0.999946 
-0.0110797 0.00169823 -0.999943 
-0.0111736 0.00121798 -0.999947 
-0.0112576 0.000845998 -0.999943 
-0.0112241 0.000530916 -0.999948 
-0.0112284 0.000264098 -0.999943 
-0.0112139 1.33998e-05 -0.999946 
-0.0111628 -0.000238865 -0.999945 
-0.0111393 -0.000454149 -0.999947 
-0.0109522 -0.000647904 -0.99995 
-0.0110281 -0.000846558 -0.999949 
-0.0111557 -0.00112431 -0.999945 
-0.0105984 -0.00156822 -0.99995 
-0.0106474 -0.00227194 -0.99995 
-0.0107325 -0.00315809 -0.999947 
-0.0096856 -0.00431703 -0.999953 
-0.00998488 -0.00632415 -0.999939 
-0.00889153 -0.00901313 -0.999928 
-0.00843302 -0.012501 -0.999895 
-0.00801135 -0.0143756 -0.999875 
-0.00676837 -0.0112222 -0.999923 
-0.00641793 -0.0108364 -0.999926 
0.00441393 -0.0113189 0.999932 
0.00604348 -0.0110735 0.999931 
0.00715295 -0.0148812 0.999875 
0.00807284 -0.013225 0.999888 
0.00878624 -0.00954931 0.999925 
0.00941204 -0.00667029 0.999943 
0.00966776 -0.00448795 0.999952 
0.00994501 -0.00312328 0.999955 
0.010254 -0.00225129 0.999953 
0.0100444 -0.00154475 0.999957 
0.00986574 -0.00105445 0.999962 
0.0100967 -0.000800384 0.999955 
0.00989135 -0.000627349 0.999961 
0.00991362 -0.000437077 0.999959 
0.00976094 -0.000213877 0.999962 
0.00976927 2.09436e-05 0.999961 
0.00994087 0.000268056 0.999958 
0.0101547 0.000552402 0.999957 
0.0101333 0.000898033 0.999957 
0.0101666 0.00130465 0.999956 
0.0099923 0.00180123 0.999957 
0.00992686 0.00243474 0.999956 
0.0098457 0.00321771 0.999955 
0.0102025 0.00412827 0.999948 
0.00990933 0.00524926 0.999946 
0.00937145 0.0065206 0.999941 
0.00921937 0.00759698 0.999937 
0.00912718 0.00813413 0.999936 
0.00952467 0.00844197 0.999927 
0.0106752 0.0091359 0.999909 
0.0125065 0.0107572 0.99987 
0.0144426 0.0129818 0.999821 
0.0147944 0.0152447 0.999782 
0.0127636 0.0197579 0.999733 
0.00892903 0.024203 0.999673 
0.00796266 0.0317958 0.999474 
0.00535249 0.0458431 0.998945 
0.00476767 0.0621436 0.998063 
0.00124654 0.103085 0.994581 
-0.00578822 0.0999166 -0.994886 
-0.00469048 0.10504 -0.994376 
-0.00464699 0.0672395 -0.997743 
-0.00579145 0.0656932 -0.997843 
-0.00771996 0.0429545 -0.999056 
-0.0105001 0.0294496 -0.99952 
-0.011575 0.020198 -0.999738 
-0.0134635 0.013999 -0.99982 
-0.0148939 0.00943702 -0.999854 
-0.0155181 0.00821047 -0.999851 
-0.0128165 0.00781748 -0.999896 
-0.0104788 0.0078179 -0.999922 
-0.00929599 0.00839229 -0.99993 
-0.009263 0.00831125 -0.99993 
-0.00927017 0.00708734 -0.999942 
-0.00945705 0.00550985 -0.999947 
-0.00956467 0.00406695 -0.999955 
-0.00964507 0.00302641 -0.999958 
-0.00971902 0.0022966 -0.999959 
-0.00985897 0.00172055 -0.99996 
-0.00989497 0.00124465 -0.999957 
-0.00992799 0.000845258 -0.999961 
-0.00999358 0.000530378 -0.999956 
-0.010014 0.000261859 -0.99996 
-0.0100694 1.09219e-05 -0.999959 
-0.0100467 -0.000249206 -0.999958 
-0.00996267 -0.000481127 -0.999959 
-0.00981985 -0.000652227 -0.99996 
-0.00968444 -0.000822979 -0.99996 
-0.00973901 -0.00105537 -0.999962 
-0.0102348 -0.0015447 -0.999956 
-0.0100991 -0.0023028 -0.999955 
-0.00977666 -0.00328183 -0.999955 
-0.00996606 -0.00467782 -0.999949 
-0.00934015 -0.00700094 -0.999941 
-0.00916641 -0.00979253 -0.999919 
-0.00820362 -0.0132887 -0.999887 
-0.00694519 -0.0149544 -0.999873 
-0.00621828 -0.0110887 -0.999928 
-0.00423474 -0.0112409 -0.999934 
0.00269553 -0.0116332 0.999938 
0.00438117 -0.0117142 0.999931 
0.00503385 -0.0157519 0.99987 
0.00581207 -0.0143173 0.99989 
0.00637693 -0.0104588 0.999934 
0.00682373 -0.0071522 0.99996 
0.00699317 -0.0048291 0.999973 
0.0071606 -0.00329475 0.999978 
0.00729176 -0.00227549 0.999981 
0.00718268 -0.00150392 0.999982 
0.0070561 -0.00101019 0.999981 
0.0071996 -0.000781745 0.999985 
0.00706902 -0.000635752 0.999984 
0.00720231 -0.000445243 0.999983 
0.00704433 -0.000210056 0.999984 
0.00708989 4.75961e-05 0.999983 
0.00725229 0.000314899 0.999982 
0.00732399 0.000615136 0.999981 
0.0072938 0.000975444 0.999981 
0.00733268 0.00137339 0.999981 
0.00720607 0.00185406 0.999981 
0.00717041 0.00247407 0.999979 
0.00720529 0.00325971 0.999976 
0.00751089 0.00411954 0.999973 
0.00714956 0.00514939 0.99997 
0.00665411 0.00643078 0.999967 
0.00662626 0.00736968 0.999959 
0.00661825 0.00773186 0.999957 
0.00682298 0.00824279 0.999951 
0.00790775 0.00950139 0.999932 
0.00923846 0.0115489 0.999901 
0.0110024 0.0144156 0.99984 
0.0109707 0.0173059 0.999798 
0.00855162 0.0202084 0.999765 
0.00464886 0.0321439 0.999486 
0.00293953 0.0469602 0.9989 
0.00209233 0.0724072 0.997396 
0.00390193 0.0751226 0.997178 
0.00325145 0.104609 0.994433 
0.00560487 0.109392 0.993927 
-0.00952312 0.100944 -0.99477 
-0.0043768 0.0620873 -0.998075 
-0.00530279 0.0463184 -0.998925 
-0.00646605 0.0343839 -0.999394 
-0.00718492 0.0253167 -0.999662 
-0.00849817 0.0182258 -0.999802 
-0.00990417 0.0120383 -0.999886 
-0.0114642 0.00817627 -0.999908 
-0.011909 0.00732432 -0.99991 
-0.00901832 0.00703698 -0.999945 
-0.00713215 0.00748144 -0.999955 
-0.00671357 0.0082701 -0.999952 
-0.00669797 0.00801795 -0.999954 
-0.00666369 0.00676155 -0.999965 
-0.00677775 0.00516963 -0.999971 
-0.00692489 0.00383383 -0.999978 
-0.00702426 0.00288306 -0.99998 
-0.00703576 0.00220257 -0.999981 
-0.00716057 0.00165856 -0.999981 
-0.0071343 0.00120659 -0.999982 
-0.00720015 0.000821903 -0.999982 
-0.00724981 0.000510003 -0.999981 
-0.00728645 0.00024077 -0.999983 
-0.00727452 -2.31416e-05 -0.999981 
-0.00730601 -0.000288681 -0.999982 
-0.00709024 -0.000502125 -0.999984 
-0.00708197 -0.000677955 -0.99998 
-0.00680572 -0.000822005 -0.999986 
-0.00678 -0.00103128 -0.999985 
-0.00744477 -0.00148832 -0.99998 
-0.00723872 -0.00227198 -0.99998 
-0.00692374 -0.00332499 -0.99998 
-0.00733982 -0.00478485 -0.999971 
-0.00676597 -0.00725273 -0.99996 
-0.00670549 -0.01048 -0.999932 
-0.00589607 -0.0142958 -0.99989 
-0.00480865 -0.0154867 -0.999878 
-0.00445247 -0.0113448 -0.999935 
-0.00289108 -0.0115743 -0.999935 
0.00188782 -0.0115267 0.999939 
0.0027689 -0.0119116 0.999932 
0.00330048 -0.0150447 0.999891 
0.00393021 -0.0155566 0.99988 
0.00438031 -0.0119318 0.999928 
0.00476041 -0.00836913 0.999963 
0.00475243 -0.00560436 0.999982 
0.00487447 -0.00378181 0.99999 
0.00487752 -0.0025831 0.999994 
0.00478591 -0.00169098 0.999996 
0.00470847 -0.00110997 0.999997 
0.00467255 -0.000853576 0.999997 
0.00465311 -0.000733586 0.999998 
0.00472727 -0.000573484 0.999997 
0.00474721 -0.000352103 0.999997 
0.0047235 -8.70541e-05 0.999997 
0.00484556 0.000188594 0.999997 
0.00486995 0.000475931 0.999996 
0.00494706 0.000800016 0.999996 
0.00489142 0.00117133 0.999996 
0.0048116 0.00158988 0.999995 
0.00474495 0.00211548 0.999995 
0.0048207 0.00274178 0.999993 
0.00490974 0.00344698 0.99999 
0.00499861 0.00422062 0.999987 
0.00488489 0.00535172 0.999983 
0.00461208 0.0066877 0.999976 
0.00447085 0.00746897 0.999971 
0.00448195 0.0080274 0.999967 
0.00479658 0.00911928 0.999953 
0.00529175 0.0107125 0.999938 
0.00620717 0.0125738 0.999907 
0.00787484 0.0156666 0.99986 
0.00642872 0.022835 0.999724 
0.00415127 0.0280368 0.999606 
0.00339456 0.0368133 0.999327 
0.00316236 0.0559957 0.998434 
0.00458264 0.0585787 0.99828 
0.00640283 0.0756065 0.997131 
0.014484 0.11709 0.99298 
-0.0105183 0.108398 -0.994015 
-0.00678384 0.0659321 -0.997807 
-0.0023324 0.0451799 -0.998987 
-0.0021637 0.0337898 -0.999434 
-0.00331688 0.0278875 -0.999618 
-0.00558398 0.0194991 -0.999802 
-0.0068895 0.0132208 -0.999895 
-0.00713547 0.0092671 -0.999939 
-0.0082902 0.00770522 -0.999945 
-0.00597798 0.00801248 -0.999957 
-0.00494738 0.00833224 -0.999962 
-0.00477692 0.00836844 -0.999962 
-0.00465095 0.00800481 -0.999966 
-0.0045445 0.00669903 -0.999975 
-0.00457251 0.00513168 -0.999986 
-0.00464167 0.00382902 -0.99999 
-0.00471266 0.00288681 -0.999994 
-0.00463466 0.00220053 -0.999994 
-0.00472874 0.00169752 -0.999997 
-0.00473071 0.0012643 -0.999995 
-0.00481579 0.00087885 -0.999997 
-0.00486481 0.000545222 -0.999996 
-0.00488686 0.000251438 -0.999997 
-0.0048822 -3.07711e-05 -0.999997 
-0.00489449 -0.000293437 -0.999997 
-0.0045799 -0.000520454 -0.999997 
-0.00451909 -0.000700477 -1 
-0.00431809 -0.000839504 -0.999998 
-0.00428718 -0.00102222 -0.999999 
-0.00483819 -0.00148227 -0.999996 
-0.00484745 -0.00232529 -0.999995 
-0.00469891 -0.00343387 -0.999992 
-0.0051499 -0.00497792 -0.999984 
-0.00474735 -0.00764635 -0.99997 
-0.00475476 -0.0109962 -0.999936 
-0.00416181 -0.0149013 -0.99989 
-0.00336534 -0.0161453 -0.999873 
-0.00308333 -0.0118121 -0.999935 
-0.00201877 -0.011824 -0.999934 
0.00139166 -0.0118844 0.999935 
0.00183521 -0.0117214 0.99994 
0.00237917 -0.0167587 0.999866 
0.0026759 -0.0147684 0.999897 
0.00294467 -0.0107364 0.999947 
0.00305472 -0.00747738 0.999976 
0.00302256 -0.00487403 0.999993 
0.00299852 -0.00326527 0.999999 
0.0028338 -0.00217477 1 
0.00278337 -0.00139488 1 
0.00278218 -0.000996173 1 
0.00266636 -0.000865061 1 
0.00277812 -0.000746346 1 
0.00281321 -0.00056066 1 
0.00292555 -0.000310051 1 
0.00294419 -2.65333e-05 1 
0.00297686 0.000271929 1 
0.00305566 0.000594104 1 
0.00312949 0.000944674 1 
0.00299509 0.00134622 1 
0.00296797 0.00182075 1 
0.00296667 0.00236368 1 
0.00305812 0.00294033 0.999999 
0.00298509 0.00356744 0.999998 
0.00314565 0.00449989 0.999994 
0.00318323 0.005843 0.999987 
0.00294151 0.0071031 0.99998 
0.00296498 0.00838906 0.99997 
0.00309808 0.00989276 0.999956 
0.00321102 0.0117136 0.999934 
0.00433906 0.0136662 0.999907 
0.00502821 0.01815 0.999832 
0.0030548 0.0250182 0.99969 
0.0028975 0.0343293 0.999414 
0.00351788 0.0421112 0.999115 
0.00340224 0.0458779 0.99895 
0.0115582 0.0812852 0.996629 
0.0125886 0.0719842 0.99733 
0.0153895 0.0876821 0.996037 
0.0193021 0.120859 0.992406 
-0.0101259 0.0886352 -0.995979 
-0.00706444 0.0791864 -0.996839 
-0.00718869 0.0786963 -0.99688 
-0.00247846 0.0416055 -0.999144 
-0.00119242 0.0294962 -0.999573 
-0.00070478 0.0230548 -0.999742 
-0.00241387 0.0191764 -0.999823 
-0.00373143 0.0134967 -0.99991 
-0.00451369 0.0099566 -0.99995 
-0.00353436 0.00993269 -0.999954 
-0.00338697 0.00959832 -0.999957 
-0.00327496 0.00881722 -0.999965 
-0.00303348 0.00771424 -0.999975 
-0.00283498 0.00609861 -0.999986 
-0.00281329 0.00450542 -0.999995 
-0.00284458 0.00336432 -0.999999 
-0.00288744 0.00260105 -1 
-0.00283896 0.00207023 -1 
-0.00288391 0.0016381 -1 
-0.00296577 0.00121053 -1 
-0.00302677 0.000812316 -1 
-0.00302734 0.000474544 -1 
-0.00300749 0.000170958 -1 
-0.00300261 -0.000126106 -1 
-0.00294925 -0.00038658 -1 
-0.00269776 -0.000619922 -1 
-0.00260668 -0.000791729 -1 
-0.00238803 -0.000906069 -1.00001 
-0.00244343 -0.00106794 -1 
-0.0028409 -0.00151562 -1 
-0.00286874 -0.00233223 -1 
-0.00293995 -0.00358376 -0.999998 
-0.00333743 -0.00535486 -0.999989 
-0.00304225 -0.00818854 -0.99997 
-0.00312745 -0.0115856 -0.999938 
-0.00270186 -0.0153532 -0.999888 
-0.00222041 -0.0164807 -0.999871 
-0.0021006 -0.0120845 -0.999934 
-0.00133957 -0.0120152 -0.999933 
0.000793659 -0.0118509 0.999936 
0.00114531 -0.0118972 0.999938 
0.0015958 -0.0165444 0.999871 
0.00173903 -0.0153918 0.999889 
0.00186633 -0.011362 0.999943 
0.00189823 -0.00789538 0.999977 
0.00188402 -0.00520033 0.999991 
0.00178186 -0.00338325 1 
0.00161304 -0.0022096 1.00001 
0.00154332 -0.00143308 1.00001 
0.0015531 -0.00107527 1 
0.00146999 -0.000965536 1.00001 
0.00158291 -0.000866941 1 
0.00164743 -0.000682924 1.00001 
0.00176121 -0.000428152 1.00001 
0.00183012 -0.00012753 1.00001 
0.00178534 0.000213262 1.00001 
0.00185663 0.000548376 1.00001 
0.00191149 0.000906354 1 
0.00181482 0.0012926 1.00001 
0.00181761 0.00174583 1 
0.00185548 0.00223905 1 
0.00193813 0.00276783 1 
0.00186987 0.00331531 1 
0.00191953 0.00416543 0.999998 
0.00201193 0.00539343 0.99999 
0.00193058 0.00683177 0.999987 
0.00208059 0.00879638 0.999966 
0.00210854 0.0108769 0.999951 
0.00208078 0.0128114 0.999925 
0.00235229 0.0148882 0.999895 
0.00232421 0.0185886 0.999831 
0.00257233 0.0325199 0.999475 
0.00465371 0.0435913 0.999044 
0.0085156 0.0637959 0.997932 
0.00607076 0.0573234 0.998345 
0.00952534 0.0624738 0.998004 
0.0250427 0.133568 0.990728 
0.0239806 0.135085 0.990543 
0.0208608 0.136803 0.990309 
-0.0159529 0.123378 -0.992139 
-0.0176433 0.119488 -0.992677 
-0.00566416 0.0699234 -0.997542 
-0.00877876 0.0660676 -0.997785 
-0.00867255 0.0642741 -0.997899 
-0.00264847 0.0436782 -0.999051 
-4.03498e-05 0.0303946 -0.99955 
-0.000926534 0.019061 -0.999826 
-0.00201398 0.0139712 -0.999911 
-0.00215053 0.0126116 -0.999927 
-0.00252407 0.0115541 -0.999939 
-0.0023635 0.0100329 -0.999956 
-0.00199598 0.00830174 -0.999972 
-0.00174642 0.00632405 -0.999988 
-0.00168008 0.00451567 -0.999997 
-0.00170738 0.00336121 -1 
-0.00176069 0.0026861 -1 
-0.00171827 0.00218984 -1.00001 
-0.00169129 0.00174342 -1.00001 
-0.00180492 0.00131518 -1.00001 
-0.00187877 0.00089773 -1 
-0.00187793 0.000528525 -1.00001 
-0.00183652 0.000195194 -1.00001 
-0.00181657 -0.000129356 -1.00001 
-0.00172103 -0.000421105 -1.00001 
-0.00162422 -0.000664014 -1.00001 
-0.00144943 -0.000868543 -1.00001 