# vtk DataFile Version 3.0 
Exported using Morpho https://github.com/Morpho-lang/morpho 
ASCII 
DATASET UNSTRUCTURED_GRID 

POINTS 1978 float 
-12 -4 4.6844e-13 
-11.6607 -4 3.95802e-12 
-11.3193 -4 -7.19238e-13 
-10.9923 -4 2.79521e-12 
-10.6842 -4 1.03434e-12 
-10.3396 -4 -1.87082e-12 
-10.0124 -4 2.69205e-12 
-9.6852 -4 -1.55048e-12 
-9.3431 -4 3.07031e-13 
-9.01024 -4 1.79517e-12 
-8.68703 -4 -2.11214e-12 
-8.38253 -4 2.31356e-12 
-8.07447 -4 3.67091e-13 
-7.77093 -4 -1.94053e-12 
-7.48238 -4 4.22239e-13 
-7.1855 -4 -1.72648e-12 
-6.88173 -4 2.14939e-13 
-6.57921 -4 1.15827e-13 
-6.27895 -4 5.2885e-13 
-5.97632 -4 1.7105e-13 
-5.67576 -4 -1.94812e-12 
-5.38525 -4 -6.73745e-13 
-5.10827 -4 -6.11803e-13 
-4.82426 -4 2.32126e-12 
-4.50898 -4 6.29344e-13 
-4.22061 -4 -7.20172e-13 
-3.94325 -4 -1.28374e-13 
-3.63817 -4 -4.75117e-12 
-3.32919 -4 -2.65299e-12 
-3.06395 -4 -8.62648e-12 
-2.82249 -4 1.5449e-11 
-2.59971 -4 -1.33957e-11 
-2.37165 -4 4.08318e-12 
-2.1621 -4 -1.29121e-11 
-1.95857 -4 -1.88919e-11 
-1.74672 -4 -2.12309e-11 
-1.51322 -4 1.92567e-12 
-1.25064 -4 -9.23067e-11 
-0.929534 -4 -1.23445e-10 
-0.507582 -4 -1.44489e-09 
0.525498 -4 3.40355e-10 
1.18575 -4 -4.47204e-10 
1.56815 -4 -8.53863e-12 
1.78175 -4 -3.09484e-12 
1.96258 -4 4.71356e-11 
2.1327 -4 -2.63444e-11 
2.33563 -4 1.69249e-11 
2.54112 -4 -1.70113e-12 
2.80722 -4 3.18215e-12 
3.07607 -4 4.32372e-12 
3.34042 -4 6.06298e-12 
3.60566 -4 1.98331e-12 
3.88088 -4 7.11441e-13 
4.19045 -4 -5.37054e-13 
4.49132 -4 -9.45796e-13 
4.79344 -4 -2.25871e-12 
5.09594 -4 9.47685e-14 
5.39339 -4 1.98914e-12 
5.68724 -4 -1.71024e-13 
5.9858 -4 9.35844e-13 
6.27713 -4 -1.61524e-12 
6.57404 -4 5.89546e-13 
6.86862 -4 5.96293e-13 
7.17032 -4 1.34225e-12 
7.46859 -4 1.5237e-12 
7.76519 -4 -1.14151e-12 
8.05996 -4 1.51342e-12 
8.3644 -4 -2.66282e-12 
8.67065 -4 5.04844e-13 
8.9592 -4 -1.95201e-12 
9.29494 -4 6.14588e-13 
9.62597 -4 -9.1492e-13 
9.93509 -4 -1.48688e-13 
10.3107 -4 1.48919e-12 
10.6357 -4 -2.30643e-12 
11.0058 -4 -8.45825e-13 
11.3354 -4 -8.4948e-13 
11.6189 -4 -4.25217e-12 
12 -4 4.74739e-13 
-12 -3.68831 -5.32329e-12 
-11.6541 -3.68414 -6.2792e-14 
-11.3502 -3.64116 8.46222e-15 
-11.0386 -3.66477 -6.96947e-14 
-10.7167 -3.64568 1.26041e-13 
-10.3971 -3.67933 -1.36842e-13 
-10.0569 -3.66588 3.59661e-14 
-9.73128 -3.67291 1.17856e-14 
-9.3961 -3.68896 -1.10173e-13 
-9.05622 -3.68293 9.50127e-14 
-8.73497 -3.67699 -2.21602e-14 
-8.41363 -3.66533 4.72157e-15 
-8.10398 -3.66998 -8.09823e-15 
-7.79062 -3.66392 -5.4712e-15 
-7.48432 -3.64898 1.58285e-14 
-7.1867 -3.65815 -8.63792e-15 
-6.88309 -3.66574 1.54609e-14 
-6.5726 -3.66393 -2.61854e-14 
-6.26155 -3.67246 2.23133e-14 
-5.94751 -3.67693 -7.88513e-16 
-5.64099 -3.67373 5.61005e-15 
-5.34337 -3.66653 1.9518e-14 
-5.04375 -3.67501 1.99559e-14 
-4.71759 -3.70615 -2.60824e-15 
-4.39681 -3.67996 5.72576e-14 
-4.09491 -3.66444 -7.31892e-14 
-3.78469 -3.69951 -1.22688e-13 
-3.45881 -3.71458 9.94987e-14 
-3.15053 -3.68064 -8.44935e-14 
-2.8793 -3.64896 7.63352e-13 
-2.63725 -3.61755 -3.91699e-14 
-2.419 -3.65868 1.10894e-12 
-2.18858 -3.67222 -3.80586e-12 
-1.96587 -3.64549 9.13927e-13 
-1.70687 -3.65571 1.12823e-13 
-1.39419 -3.65714 3.60146e-12 
-1.42599 -3.31513 1.11739e-13 
-1.01788 -3.58097 2.13707e-12 
-0.485452 -3.51746 1.80074e-09 
0.361446 -3.51717 -9.44925e-10 
0.98962 -3.6508 1.72631e-12 
1.44939 -3.7188 8.65294e-12 
1.46164 -3.41183 -1.15955e-12 
1.76621 -3.64064 6.28534e-12 
1.84547 -3.3767 2.62427e-12 
2.01105 -3.66728 -5.40151e-12 
2.24244 -3.70448 2.66262e-12 
2.47194 -3.63775 -2.92872e-12 
2.72901 -3.70608 6.70975e-12 
3.01979 -3.7031 -3.74074e-12 
3.31377 -3.67097 6.18901e-14 
3.60321 -3.66003 1.95889e-12 
3.91487 -3.69814 -1.70766e-12 
4.22471 -3.68669 4.26211e-13 
4.52906 -3.67887 -7.78558e-14 
4.8361 -3.6757 -9.2254e-14 
5.13894 -3.67023 -2.78741e-14 
5.43773 -3.66777 -1.24487e-14 
5.73825 -3.67191 -9.84255e-15 
6.03219 -3.66081 -7.51387e-15 
6.32914 -3.66442 -3.18525e-15 
6.62553 -3.65914 -2.29743e-15 
6.92729 -3.66681 -1.34578e-15 
7.22968 -3.66444 -4.67763e-16 
7.53275 -3.66455 -1.79973e-14 
7.83285 -3.66316 4.72198e-15 
8.13681 -3.67073 -5.09591e-15 
8.44262 -3.66666 5.52864e-16 
8.73883 -3.64288 4.70325e-15 
9.06002 -3.69097 6.08306e-15 
9.38957 -3.68293 7.21971e-15 
9.70564 -3.65523 9.53644e-15 
10.055 -3.71288 1.64173e-14 
10.392 -3.66635 3.5656e-14 
10.7461 -3.70399 4.61278e-15 
11.0814 -3.66764 -4.55896e-16 
11.3762 -3.61636 1.78408e-14 
11.7137 -3.71594 4.78628e-14 
12 -3.62975 5.92075e-12 
-12 -3.37493 -3.14917e-12 
-11.6927 -3.33447 -2.66621e-14 
-11.3501 -3.31367 1.32138e-14 
-11.0135 -3.31758 -3.90958e-14 
-10.6801 -3.30934 4.75625e-14 
-10.3483 -3.35261 -1.05484e-13 
-10.0202 -3.33105 3.55096e-14 
-9.70026 -3.33475 -1.1395e-14 
-9.38738 -3.37304 -5.9047e-15 
-9.07679 -3.34884 -1.24934e-14 
-8.76768 -3.34081 -1.10468e-15 
-8.46418 -3.34376 -2.09036e-14 
-8.14822 -3.33399 -7.13484e-15 
-7.84379 -3.33573 9.50311e-15 
-7.53669 -3.31339 4.46944e-15 
-7.23311 -3.31203 -7.60976e-15 
-6.93487 -3.32587 2.92958e-15 
-6.63397 -3.33605 -7.57717e-15 
-6.32639 -3.34303 1.17101e-14 
-6.02387 -3.35551 -1.73196e-15 
-5.71968 -3.3502 -2.15395e-16 
-5.42347 -3.3413 8.80866e-15 
-5.1274 -3.34744 2.38457e-15 
-4.82138 -3.39657 -9.35697e-15 
-4.51231 -3.3826 5.53294e-15 
-4.19984 -3.34218 8.98763e-14 
-3.8833 -3.37296 2.15942e-15 
-3.57462 -3.41565 -1.61177e-13 
-3.26786 -3.39971 1.22813e-13 
-2.97179 -3.33756 -8.27904e-14 
-2.70216 -3.27534 3.8382e-13 
-2.44851 -3.27087 2.09634e-13 
-2.23155 -3.35277 5.27933e-13 
-1.991 -3.30058 -1.86011e-12 
-1.74581 -3.32331 2.15147e-12 
-1.64788 -2.99594 2.16317e-12 
-1.32554 -2.92643 -2.76925e-12 
-1.00678 -3.17705 5.066e-12 
-0.408356 -3.0616 3.46826e-09 
-0.347193 -2.50028 4.6956e-09 
0.408169 -2.92185 -3.16771e-09 
1.00069 -3.24669 -8.5728e-12 
1.30883 -3.01481 -9.11909e-12 
1.64455 -3.1136 -4.20951e-14 
1.92594 -3.06925 7.02067e-12 
2.18187 -3.13755 1.65342e-12 
2.14403 -3.40458 -5.29479e-12 
2.43842 -3.35132 -2.80284e-13 
2.73206 -3.40647 -2.56921e-12 
3.00601 -3.39206 1.68117e-12 
3.28626 -3.36562 -3.11157e-13 
3.58111 -3.34389 -1.40293e-13 
3.88396 -3.38714 -1.92346e-14 
4.19024 -3.37514 7.97042e-14 
4.49723 -3.35801 -6.12125e-14 
4.80352 -3.35264 2.13718e-14 
5.10968 -3.34253 4.61985e-14 
5.41066 -3.33878 9.91935e-15 
5.71072 -3.34473 2.96279e-15 
6.0112 -3.32605 1.71996e-15 
6.30893 -3.32964 2.41033e-15 
6.60817 -3.32266 1.31052e-15 
6.91032 -3.33337 1.92319e-16 
7.21479 -3.33307 1.04091e-14 
7.52212 -3.33527 -2.42145e-14 
7.8326 -3.32861 -1.59922e-15 
8.13731 -3.33841 3.61067e-16 
8.44021 -3.32317 3.05207e-15 
8.75607 -3.31518 -1.7483e-15 
9.07421 -3.37064 -1.14053e-15 
9.39173 -3.34994 1.35878e-14 
9.70606 -3.31221 1.138e-14 
10.017 -3.39763 1.28254e-14 
10.3221 -3.32489 2.12951e-14 
10.6506 -3.38436 5.87992e-15 
10.9811 -3.34955 -2.13116e-15 
11.297 -3.26638 8.72512e-15 
11.6351 -3.36913 1.97696e-14 
12 -3.33635 2.19534e-12 
-12 -3.01779 -3.88374e-12 
-11.6538 -3.01527 1.70155e-14 
-11.3114 -2.98194 2.80197e-14 
-10.9703 -2.98991 -3.4716e-14 
-10.6269 -2.98574 -4.29389e-14 
-10.3035 -3.01493 3.547e-14 
-9.97515 -2.99441 -3.29078e-14 
-9.6533 -3.00066 -7.29581e-14 
-9.3474 -3.03027 3.42611e-14 
-9.04022 -3.00958 -6.88321e-14 
-8.73433 -2.99587 3.58583e-14 
-8.42099 -3.01698 1.61211e-15 
-8.11237 -2.99799 1.2029e-15 
-7.80559 -3.0009 1.79782e-14 
-7.49475 -2.97859 8.90991e-15 
-7.18888 -2.97626 -9.6303e-15 
-6.88553 -2.99383 5.43375e-15 
-6.57904 -3.01209 2.3515e-15 
-6.27732 -3.01484 -3.12187e-15 
-5.97645 -3.03078 6.74009e-16 
-5.68146 -3.0193 4.90608e-15 
-5.389 -3.01383 3.71984e-15 
-5.09588 -3.01686 -5.3875e-15 
-4.80817 -3.07943 1.678e-14 
-4.50302 -3.06109 8.07886e-15 
-4.18696 -3.0248 -1.01397e-14 
-3.86715 -3.05847 1.7285e-14 
-3.549 -3.10059 -1.41079e-14 
-3.24132 -3.08533 5.59645e-14 
-2.94645 -3.01239 -1.48737e-13 
-2.65705 -2.94648 2.36169e-14 
-2.40358 -2.91866 8.01838e-13 
-2.17441 -3.02023 -6.84079e-13 
-1.91825 -2.94261 -1.76549e-12 
-1.808 -2.62111 -5.72265e-12 
-1.53788 -2.6142 7.25994e-13 
-1.24667 -2.43877 -7.47423e-13 
-0.929808 -2.67547 4.59068e-12 
-0.302734 -1.89374 3.54955e-09 
0.323932 -1.61296 -9.45908e-09 
0.349351 -2.2438 -3.9461e-09 
0.846914 -2.09036 -5.28451e-12 
0.910414 -2.67843 -7.10022e-12 
1.33308 -2.60899 6.35526e-12 
1.62296 -2.7629 4.88032e-12 
1.86084 -2.71393 -3.8365e-12 
2.12597 -2.81133 -2.71509e-12 
2.40447 -2.99764 -4.56066e-13 
2.66657 -3.11513 3.91804e-14 
2.9622 -3.0806 2.987e-13 
3.22485 -3.02475 -1.9791e-14 
3.50591 -3.03887 2.80767e-13 
3.83485 -3.07555 -1.41068e-13 
4.15521 -3.06174 -1.09383e-13 
4.46837 -3.03808 7.48782e-14 
4.77888 -3.02952 -1.49737e-14 
5.08881 -3.02027 -3.38919e-14 
5.39854 -3.01224 -1.7805e-14 
5.70098 -3.01723 -1.07512e-14 
6.00205 -2.99889 -4.04868e-15 
6.30349 -2.99644 -7.2003e-15 
6.60746 -2.99434 -1.8283e-15 
6.91252 -3.00102 2.16582e-14 
7.21829 -3.00355 -8.5631e-15 
7.52798 -3.00875 -7.65341e-15 
7.83615 -2.99577 -1.26515e-14 
8.14077 -3.00228 -4.63531e-15 
8.44173 -2.97795 6.29055e-15 
8.7403 -2.98353 7.42345e-15 
9.05746 -3.03896 8.91991e-15 
9.37113 -3.01529 1.35554e-15 
9.6841 -2.97564 5.89258e-15 
10.012 -3.04603 -8.22255e-15 
10.34 -2.98894 -3.07832e-14 
10.6618 -3.05253 4.12782e-14 
10.9823 -3.00376 2.15292e-14 
11.3327 -2.94946 -1.44166e-15 
11.6644 -3.06112 1.62941e-14 
12 -3.01346 3.58206e-12 
-12 -2.69708 -4.63086e-12 
-11.6599 -2.69268 -8.49699e-14 
-11.3375 -2.63871 1.23156e-14 
-11.0051 -2.66507 -3.89198e-14 
-10.6642 -2.66476 5.70123e-14 
-10.3194 -2.67442 -2.0587e-14 
-9.9954 -2.66511 2.03074e-14 
-9.66534 -2.66786 1.7682e-14 
-9.34326 -2.68498 -1.83229e-14 
-9.029 -2.67203 1.79299e-14 
-8.70811 -2.66753 -1.14316e-15 
-8.39641 -2.68476 -7.75118e-15 
-8.08336 -2.66609 6.23087e-16 
-7.76945 -2.67243 -4.54734e-15 
-7.45372 -2.64951 -1.98171e-15 
-7.14404 -2.64917 1.21188e-15 
-6.83609 -2.67291 -9.11946e-15 
-6.53678 -2.68399 -5.85096e-15 
-6.23367 -2.69126 -1.04152e-14 
-5.94054 -2.70012 -1.70675e-14 
-5.65192 -2.68607 -1.74208e-17 
[...]
POINT_DATA 1978 
VECTORS vectors float
-0.00017092 -0.000660373 1 
0.000106254 -0.0145392 0.999894 
0.000553445 -0.0150412 0.999887 
0.000277843 -0.0114946 0.999934 
0.000250026 -0.00817173 0.999967 
0.000311127 -0.00551332 0.999985 
0.000278734 -0.00381357 0.999993 
0.000309514 -0.00268302 0.999996 
0.000347553 -0.00190443 0.999998 
0.000313118 -0.00142237 0.999999 
0.000243378 -0.00109838 0.999999 
0.000220193 -0.000863702 1 
0.000223403 -0.000620702 1 
0.00017509 -0.000392726 1 
0.000153856 -0.000174497 1 
0.000193356 5.17538e-05 1 
0.000218606 0.000276115 1 
0.000211183 0.000523822 1 
0.000214954 0.000827797 1 
0.000217721 0.00125379 0.999999 
0.000164635 0.00175988 0.999998 
8.55106e-05 0.00237537 0.999997 
8.98489e-05 0.00316753 0.999995 
0.000196636 0.00414642 0.999991 
0.00020196 0.00551695 0.999985 
0.000105813 0.00692632 0.999976 
0.000153468 0.00846832 0.999964 
0.000235014 0.010341 0.999947 
0.00010738 0.0121087 0.999927 
-9.20531e-05 0.0132914 0.999912 
-0.000189428 0.0143044 0.999898 
-0.000197847 0.0155037 0.99988 
-0.000226591 0.0159565 0.999873 
-0.000263121 0.0144532 0.999896 
-0.000269852 0.0129197 0.999917 
-0.000229959 0.013467 0.999909 
-0.000145001 0.0193378 0.999813 
-1.96879e-05 0.0326977 0.999465 
0.000459376 0.0576794 0.998335 
0.00221139 0.0971573 0.995267 
0.0025205 0.106758 -0.994282 
0.000478045 0.0450185 -0.998986 
0.000163281 0.0147734 -0.999891 
0.000249657 0.00644353 -0.999979 
0.000337759 0.00375229 -0.999993 
0.000402366 0.00567976 -0.999984 
0.000366456 0.0105844 -0.999944 
0.000218696 0.015734 -0.999876 
3.43646e-05 0.0158768 -0.999874 
-5.83405e-06 0.0134077 -0.99991 
2.56033e-05 0.0118733 -0.99993 
-1.76516e-05 0.010542 -0.999944 
-0.000149244 0.00889418 -0.99996 
-0.000234084 0.00695341 -0.999976 
-0.000210445 0.00534762 -0.999986 
-0.000202742 0.00407027 -0.999992 
-0.000193163 0.00306915 -0.999995 
-0.00017454 0.0022704 -0.999997 
-0.000174016 0.00165573 -0.999999 
-0.000169975 0.00117876 -0.999999 
-0.00016363 0.000841738 -1 
-0.000175852 0.000567619 -1 
-0.000193648 0.000305879 -1 
-0.000203246 5.9746e-05 -1 
-0.000183569 -0.000195431 -1 
-0.000175288 -0.000432595 -1 
-0.000201418 -0.000649227 -1 
-0.000211827 -0.000830966 -1 
-0.000178072 -0.00106785 -0.999999 
-0.000251653 -0.00136276 -0.999999 
-0.000328172 -0.00179433 -0.999998 
-0.000250393 -0.00256581 -0.999997 
-0.000295564 -0.00353351 -0.999994 
-0.000316913 -0.0053103 -0.999986 
-0.000289339 -0.00769873 -0.99997 
-0.000336009 -0.0116912 -0.999932 
-0.000386501 -0.0153978 -0.999881 
-5.48345e-05 -0.0146189 -0.999893 
0.000151713 -0.000653714 -1 
6.04698e-05 -0.000279514 1 
0.00498797 -0.0111443 0.999925 
0.00566044 -0.0132834 0.999896 
0.00568379 -0.0118976 0.999913 
0.00623011 -0.00897284 0.99994 
0.00628206 -0.00629916 0.99996 
0.0066123 -0.00428886 0.999969 
0.00673434 -0.00299995 0.999973 
0.00680917 -0.00213222 0.999975 
0.0068727 -0.00150835 0.999975 
0.00693361 -0.00110693 0.999975 
0.00718699 -0.000843154 0.999974 
0.00720029 -0.000616645 0.999974 
0.00731353 -0.000390324 0.999973 
0.00751315 -0.000178851 0.999972 
0.00742322 3.49749e-05 0.999972 
0.00727388 0.000264184 0.999974 
0.00729529 0.000526388 0.999973 
0.0072371 0.000857397 0.999973 
0.00724172 0.00130751 0.999973 
0.00729511 0.00185354 0.999972 
0.00737339 0.00249419 0.99997 
0.00722884 0.00333185 0.999968 
0.00676973 0.00451982 0.999967 
0.00689274 0.00591406 0.999959 
0.00682885 0.00731957 0.99995 
0.0064117 0.00883545 0.99994 
0.00659885 0.01024 0.999926 
0.00813758 0.0113316 0.999903 
0.00979729 0.0125395 0.999873 
0.0119039 0.0132732 0.999841 
0.011846 0.014085 0.999831 
0.0119122 0.014202 0.999828 
0.0112048 0.0150185 0.999824 
0.0093101 0.018305 0.999789 
0.00711094 0.0282469 0.999576 
0.00927326 0.0318209 0.999451 
0.00443559 0.0505198 0.998713 
0.00288067 0.0971029 0.99527 
-0.00291906 0.110175 -0.993908 
-0.00398631 0.0630873 -0.998 
-0.00461551 0.0315004 -0.999493 
-0.00826947 0.0322893 -0.999444 
-0.00861109 0.016058 -0.999834 
-0.0131897 0.0175793 -0.999758 
-0.0112354 0.011736 -0.999868 
-0.0112814 0.0107169 -0.999879 
-0.0120853 0.0117666 -0.999858 
-0.00994911 0.0129755 -0.999866 
-0.00900448 0.0117106 -0.999891 
-0.0080279 0.0104686 -0.999913 
-0.00722887 0.00951749 -0.999929 
-0.00644868 0.00825782 -0.999945 
-0.00672612 0.00666334 -0.999955 
-0.00688665 0.0051242 -0.999963 
-0.00703519 0.00387195 -0.999968 
-0.00718781 0.00291434 -0.99997 
-0.00732098 0.00217655 -0.999971 
-0.00736614 0.00159096 -0.999972 
-0.00751257 0.00114584 -0.999971 
-0.00748956 0.000799312 -0.999972 
-0.00751792 0.000516511 -0.999972 
-0.0074506 0.000254364 -0.999972 
-0.00748296 2.26826e-06 -0.999972 
-0.00748988 -0.000241916 -0.999972 
-0.00745665 -0.000457102 -0.999972 
-0.00733273 -0.000658637 -0.999973 
-0.00726036 -0.000865276 -0.999973 
-0.00745661 -0.00110713 -0.999972 
-0.00695713 -0.0014941 -0.999975 
-0.00684515 -0.00210126 -0.999974 
-0.00689408 -0.00293352 -0.999972 
-0.00625067 -0.00422365 -0.999972 
-0.00635413 -0.0062537 -0.99996 
-0.00572212 -0.00915534 -0.999942 
-0.00561693 -0.0122461 -0.999909 
-0.00567495 -0.0131019 -0.999898 
-0.00472135 -0.010231 -0.999937 
-2.38695e-05 -3.18248e-05 -1 
-0.000106715 0.000687923 1 
0.00558691 -0.00905883 0.999943 
0.00706198 -0.0129645 0.999891 
0.00774812 -0.0120513 0.999897 
0.00849254 -0.00928352 0.999921 
0.00883153 -0.00646129 0.99994 
0.00931591 -0.00444852 0.999947 
0.0096538 -0.00313551 0.999948 
0.00962304 -0.00222422 0.999951 
0.00982984 -0.00157517 0.99995 
0.0100546 -0.00114467 0.999949 
0.0100135 -0.000865553 0.999949 
0.0100339 -0.000645622 0.999949 
0.0100604 -0.000437376 0.999949 
0.0101738 -0.000224556 0.999948 
0.0101948 -2.03488e-06 0.999948 
0.010159 0.00023052 0.999948 
0.010129 0.000489631 0.999949 
0.010131 0.000807465 0.999948 
0.0100985 0.00120267 0.999948 
0.0101314 0.00170974 0.999947 
0.010186 0.00232643 0.999945 
0.0100321 0.00309546 0.999945 
0.00974422 0.00410848 0.999944 
0.00957667 0.005287 0.99994 
0.00940377 0.00655885 0.999934 
0.00900371 0.00783955 0.999929 
0.00887076 0.00881607 0.999922 
0.00969789 0.00942993 0.999909 
0.0116992 0.0101766 0.99988 
0.0138937 0.0112185 0.999841 
0.0155359 0.0126551 0.999799 
0.0158734 0.0141291 0.999774 
0.014974 0.0166213 0.99975 
0.0129047 0.0208484 0.999699 
0.0112119 0.0263908 0.999589 
0.00795132 0.0395779 0.999185 
0.00517231 0.0541647 0.998519 
0.00228274 0.100037 0.994981 
0.00268211 0.102352 0.994745 
-0.00332613 0.107125 -0.99424 
-0.00603383 0.059267 -0.998224 
-0.00863505 0.04198 -0.999081 
-0.011521 0.0270319 -0.999568 
-0.0139504 0.0187654 -0.999727 
-0.0160068 0.0130425 -0.999787 
-0.0161678 0.0120125 -0.999797 
-0.0160568 0.0104296 -0.999817 
-0.0142681 0.0101575 -0.999847 
-0.0126142 0.00960201 -0.999874 
-0.0108945 0.00907091 -0.9999 
-0.0097351 0.00877871 -0.999914 
-0.00907661 0.00814628 -0.999926 
-0.00920516 0.0068333 -0.999934 
-0.00942897 0.00532484 -0.999941 
-0.00964386 0.00400813 -0.999945 
-0.00984254 0.00300178 -0.999947 
-0.0100082 0.00225903 -0.999947 
-0.0101393 0.00168299 -0.999947 
-0.0102078 0.00120902 -0.999947 
-0.0102947 0.000840805 -0.999947 
-0.0102595 0.000530679 -0.999947 
-0.0102852 0.000265033 -0.999947 
-0.0102496 1.44563e-05 -0.999947 
-0.0102095 -0.000228934 -0.999948 
-0.010135 -0.000444768 -0.999949 
-0.0100507 -0.00064061 -0.999949 
-0.0100403 -0.000843009 -0.999949 
-0.010098 -0.00113132 -0.999948 
-0.00978343 -0.00157369 -0.999951 
-0.00974664 -0.0022506 -0.99995 
-0.0096925 -0.00316909 -0.999948 
-0.0090566 -0.00437028 -0.999949 
-0.00903737 -0.00632657 -0.999939 
-0.00829918 -0.00892709 -0.999926 
-0.00777634 -0.0119149 -0.999899 
-0.00723534 -0.0131348 -0.999888 
-0.00589121 -0.0100558 -0.999932 
1.86686e-05 0.00055303 -1 
-4.82988e-05 0.000637253 1 
0.00518244 -0.00964891 0.99994 
0.0066236 -0.0134928 0.999887 
0.00751398 -0.0125163 0.999893 
0.00819002 -0.00941153 0.999922 
0.00875173 -0.00663259 0.99994 
0.0090276 -0.00453067 0.999949 
0.00930149 -0.00313824 0.999952 
0.00955835 -0.00223255 0.999952 
0.00944335 -0.00155727 0.999954 
0.00934629 -0.00108531 0.999956 
0.009485 -0.000807332 0.999955 
0.00936212 -0.000616742 0.999956 
0.00938653 -0.00042502 0.999956 
0.00928892 -0.00020867 0.999957 
0.00930528 2.32024e-05 0.999957 
0.00942576 0.000270806 0.999956 
0.00956882 0.000555625 0.999954 
0.00956125 0.000892728 0.999954 
0.00960154 0.00129813 0.999953 
0.00949086 0.0017935 0.999953 
0.00943533 0.00241336 0.999953 
0.00936052 0.00317141 0.999951 
0.00955878 0.00406558 0.999946 
0.00928739 0.00514904 0.999944 
0.00884324 0.0063355 0.999941 
0.00865361 0.00736234 0.999935 
0.00866207 0.008012 0.99993 
0.00924743 0.00851207 0.999921 
0.0103995 0.00930265 0.999903 
0.0120447 0.0108891 0.999868 
0.0134511 0.0129903 0.999825 
0.0140909 0.0154153 0.999782 
0.0123794 0.0200791 0.999722 
0.00883654 0.0242993 0.999666 
0.00768801 0.032572 0.99944 
0.0050747 0.0460434 0.998927 
0.0045398 0.0611264 0.99812 
0.00156905 0.103672 0.99461 
-0.0054675 0.100415 -0.994931 
-0.004398 0.105392 -0.994421 
-0.00453302 0.0652984 -0.997855 
-0.00559467 0.0645167 -0.997901 
-0.00745572 0.0430406 -0.999046 
-0.00988223 0.0294781 -0.999517 
-0.0111343 0.0208228 -0.999721 
-0.0128794 0.0140846 -0.999818 
-0.0144195 0.00994012 -0.999847 
-0.0144571 0.0085611 -0.999859 
-0.0122248 0.00798355 -0.999893 
-0.0102058 0.00789333 -0.999917 
-0.00904062 0.00818909 -0.999926 
-0.00879025 0.00797995 -0.99993 
-0.00875326 0.00686125 -0.999938 
-0.00888301 0.0054013 -0.999946 
-0.00903022 0.00405182 -0.999951 
-0.00913854 0.00302452 -0.999954 
-0.00922692 0.00227563 -0.999955 
-0.00935038 0.00169868 -0.999955 
-0.00941087 0.00123596 -0.999955 
-0.0094257 0.000844874 -0.999955 
-0.0094959 0.000531529 -0.999955 
-0.00949125 0.000259496 -0.999955 
-0.00952748 7.14505e-06 -0.999955 
-0.00951147 -0.000240851 -0.999955 
-0.00944 -0.000461555 -0.999955 
-0.00933428 -0.00064119 -0.999956 
-0.00921896 -0.000826294 -0.999957 
-0.00924094 -0.00108456 -0.999957 
-0.00956143 -0.00156567 -0.999953 
-0.00943871 -0.00229357 -0.999953 
-0.0091626 -0.00328577 -0.999953 
-0.00921535 -0.00471228 -0.999946 
-0.0086916 -0.00695886 -0.999938 
-0.00842889 -0.00963213 -0.999918 
-0.00760369 -0.0125765 -0.999892 
-0.00647642 -0.0135831 -0.999887 
-0.00524526 -0.00949066 -0.999941 
3.18356e-05 0.000453177 -1 
1.15448e-06 0.000901635 1 
0.00390664 -0.0100611 0.999942 
0.00491476 -0.0142077 0.999887 
0.00571994 -0.0134392 0.999893 
0.00626893 -0.0102721 0.999928 
0.00669528 -0.00711487 0.999952 
0.00687969 -0.00487281 0.999964 
0.00703322 -0.00331062 0.99997 
0.0071563 -0.00226632 0.999972 
0.00706691 -0.00152889 0.999974 
0.0069671 -0.00104034 0.999975 
0.00710521 -0.000787741 0.999974 
0.00697238 -0.000619753 0.999976 
0.00707817 -0.000430376 0.999975 
0.00694405 -0.000204093 0.999976 
0.00698017 4.58146e-05 0.999976 
0.00714611 0.000314589 0.999974 
0.00721938 0.000611224 0.999974 
0.00721538 0.000964561 0.999974 
0.00723632 0.00136504 0.999973 
0.00710118 0.00184752 0.999973 
0.00706636 0.00245242 0.999972 
0.0071054 0.00320801 0.99997 
0.00734492 0.00405919 0.999965 
0.00704295 0.0050734 0.999962 
0.00661184 0.00625068 0.999959 
0.00659377 0.00717015 0.999953 
0.00667574 0.00770278 0.999948 
0.00706308 0.00834133 0.99994 
0.00807434 0.00963402 0.999921 
0.00908683 0.0116896 0.99989 
0.0100791 0.0144193 0.999845 
0.0108761 0.0174182 0.999789 
0.00808652 0.0206559 0.999754 
0.00516967 0.0319729 0.999475 
0.00340164 0.0462619 0.998924 
0.00258607 0.0692222 0.997598 
0.00374898 0.0733072 0.997302 
0.003381 0.104993 0.994467 
0.00793427 0.109281 0.993979 
-0.00785436 0.0984906 -0.995107 
-0.00439957 0.0626473 -0.998026 
-0.00516059 0.0462952 -0.998914 
-0.00621202 0.0342153 -0.999395 
-0.00709598 0.0255969 -0.999647 
-0.00844794 0.0183318 -0.999796 
-0.00973412 0.0125635 -0.999874 
-0.0110467 0.00908313 -0.999898 
-0.0114432 0.00763866 -0.999905 
-0.00898225 0.00729404 -0.999933 
-0.00725784 0.00757815 -0.999945 
-0.00682369 0.00798869 -0.999945 
-0.00672188 0.00766408 -0.999948 
-0.00661574 0.00652651 -0.999957 
-0.00668763 0.00509342 -0.999965 
-0.00682143 0.00382203 -0.999969 
-0.00691523 0.00286808 -0.999972 
-0.00693108 0.00218368 -0.999974 
-0.00705719 0.00164797 -0.999974 
-0.00703062 0.00120022 -0.999975 
-0.00709509 0.000821466 -0.999974 
-0.00712914 0.000506961 -0.999974 
-0.00717059 0.00023389 -0.999974 
-0.00717899 -2.60001e-05 -0.999974 
-0.00718916 -0.000277414 -0.999974 
-0.00698474 -0.000487961 -0.999975 
-0.00696449 -0.000661442 -0.999976 
-0.00670082 -0.000824516 -0.999977 
-0.00671662 -0.00106917 -0.999977 
-0.00729944 -0.00152543 -0.999972 
-0.00711391 -0.00226658 -0.999972 
-0.00684701 -0.00332781 -0.999971 
-0.00721087 -0.00483649 -0.999962 
-0.00665822 -0.00721469 -0.999952 
-0.00655395 -0.0102604 -0.999926 
-0.00581084 -0.0134268 -0.999893 
-0.00474267 -0.0140689 -0.99989 
-0.00392157 -0.00956361 -0.999947 
-1.02696e-05 0.000521007 -1 
-5.88082e-06 0.000817351 1 
0.00236531 -0.00897794 0.999957 
0.0032292 -0.0139705 0.999897 
0.0038858 -0.0144011 0.999889 
0.00433042 -0.0116014 0.999923 
0.00468964 -0.00828458 0.999955 
0.00470801 -0.00563858 0.999973 
0.00482983 -0.00380866 0.999981 
0.00484494 -0.00257224 0.999985 
0.00476295 -0.00171896 0.999987 
0.00470454 -0.00115674 0.999988 
0.00468306 -0.000867699 0.999989 
0.00466241 -0.000717203 0.999989 
0.00472831 -0.000550606 0.999989 
0.00474337 -0.000340184 0.999989 
0.00471382 -8.58403e-05 0.999989 
0.00483228 0.000187452 0.999988 
0.00486632 0.000473567 0.999988 
0.00494922 0.000794782 0.999987 
0.00489863 0.00116594 0.999987 
0.00481275 0.00158301 0.999987 
0.00476185 0.0020938 0.999986 
0.00483025 0.0026981 0.999985 
0.00490739 0.00340377 0.999982 
0.00496457 0.00419013 0.999979 
0.0048561 0.00525753 0.999974 
0.00461372 0.0064632 0.999968 
0.00450633 0.0073128 0.999963 
0.00462098 0.00804211 0.999957 
0.00504934 0.00911618 0.999946 
0.00551168 0.0106387 0.999928 
0.00614084 0.0126904 0.999901 
0.00735734 0.016076 0.999844 
0.00598877 0.0229976 0.999718 
0.00412956 0.0279996 0.999599 
0.00347979 0.0370087 0.999309 
0.0031114 0.0576685 0.998331 
0.00450462 0.0578144 0.998317 
0.00669681 0.0766875 0.997033 
0.0139113 0.104927 0.994383 
-0.00971036 0.107898 -0.994115 
-0.00609352 0.0640846 -0.997926 
-0.00293001 0.0452387 -0.998972 
-0.00270239 0.033891 -0.999422 
-0.0034376 0.0271675 -0.999625 
-0.00507064 0.0200612 -0.999786 
-0.00655951 0.0141874 -0.999878 
-0.00699492 0.0101606 -0.999924 
-0.00807024 0.0080707 -0.999935 
-0.00609588 0.0081472 -0.999948 
-0.00507487 0.00825749 -0.999953 
-0.00490192 0.00812795 -0.999955 
-0.00473149 0.00767826 -0.999959 
-0.00455255 0.00650668 -0.999968 
-0.00454375 0.00506263 -0.999977 
-0.00462883 0.0038112 -0.999982 
-0.00471169 0.00287779 -0.999985 
-0.00465269 0.00219244 -0.999987 
-0.00473728 0.00168384 -0.999987 
-0.00474526 0.00125677 -0.999988 
-0.00482206 0.000874525 -0.999988 
-0.00485652 0.000542664 -0.999988 
-0.00487047 0.000247724 -0.999988 
-0.00487303 -2.7086e-05 -0.999988 
-0.00489262 -0.000282142 -0.999988 
-0.00459765 -0.000505759 -0.999989 
-0.0045238 -0.000682782 -0.99999 
-0.00435176 -0.000841887 -0.99999 
-0.00430589 -0.00105947 -0.99999 
-0.00482371 -0.00152226 -0.999987 
-0.00482131 -0.00232217 -0.999986 
-0.0046505 -0.00343684 -0.999983 
-0.00509127 -0.00502551 -0.999974 
-0.00469488 -0.00759391 -0.99996 
-0.00469138 -0.0107661 -0.999931 
-0.00411309 -0.0139769 -0.999894 
-0.0033128 -0.0146318 -0.999887 
-0.00276871 -0.0100376 -0.999946 
-1.56318e-05 0.000554794 -1 
-1.85367e-05 0.000665596 1 
0.00167036 -0.0101633 0.999947 
0.00237829 -0.0150971 0.999883 
0.00268296 -0.0139904 0.999899 
0.00296346 -0.0105924 0.99994 
0.00308025 -0.00743787 0.999968 
0.0030547 -0.00492131 0.999983 
0.00304583 -0.00328315 0.99999 
0.002912 -0.00218883 0.999993 
0.00286585 -0.00144348 0.999995 
0.00286317 -0.00103091 0.999995 
0.00275735 -0.000859023 0.999996 
0.00286277 -0.000722345 0.999996 
0.00289457 -0.00054123 0.999996 
0.00298997 -0.000299574 0.999995 
0.00300397 -1.83057e-05 0.999995 
0.00302864 0.000273812 0.999995 
0.00310555 0.000592459 0.999995 
0.00316906 0.00094217 0.999995 
0.00304235 0.00133615 0.999994 
0.00302491 0.00179703 0.999994 
0.00303961 0.00232427 0.999993 
0.00312422 0.00290696 0.999991 
0.00305036 0.00356478 0.999989 
0.00318325 0.00447499 0.999985 
0.00320962 0.00571661 0.999979 
0.00300113 0.00699323 0.999971 
0.00304357 0.00829418 0.999961 
0.00322502 0.00971998 0.999948 
0.00344795 0.0114737 0.999928 
0.00433472 0.0140628 0.999892 
0.00469151 0.0185234 0.999817 
0.00308815 0.024935 0.999684 
0.00302423 0.0340914 0.999414 
0.00369079 0.0432215 0.999059 
0.00336607 0.0456096 0.998954 
0.011067 0.082111 0.996562 
0.0117808 0.073034 0.99726 
0.0149133 0.0934592 0.995511 
0.0150582 0.121002 0.992538 
-0.00858724 0.0828966 -0.996521 
-0.00744183 0.0800408 -0.996764 
-0.00846644 0.0807224 -0.996701 
-0.00262941 0.0423858 -0.999098 
-0.00139797 0.0309636 -0.99952 
-0.00107173 0.0236098 -0.999721 
-0.00247412 0.0195017 -0.999807 
-0.00381352 0.0140312 -0.999894 
-0.00460254 0.0102422 -0.999937 
-0.00366568 0.00993604 -0.999944 
-0.00343829 0.00935113 -0.99995 
-0.0033459 0.0085575 -0.999958 
-0.00311047 0.00749262 -0.999967 
-0.00289904 0.00597425 -0.999978 
-0.0028679 0.00448176 -0.999986 
-0.00291899 0.00336806 -0.99999 
-0.00296478 0.00260187 -0.999992 
-0.00289787 0.00205427 -0.999994 
-0.00293859 0.00161538 -0.999994 
-0.00301592 0.00119572 -0.999995 
-0.00308291 0.000810627 -0.999995 
-0.00308807 0.000472861 -0.999995 
-0.00305876 0.000169028 -0.999995 
-0.00305525 -0.000117659 -0.999995 
-0.00300104 -0.000370068 -0.999995 
-0.00279074 -0.000600243 -0.999996 
-0.00267399 -0.000769075 -0.999996 
-0.00249954 -0.000907052 -0.999996 
-0.00253216 -0.00111346 -0.999996 
-0.00291701 -0.00156329 -0.999995 
-0.00293022 -0.00234981 -0.999993 
-0.00297348 -0.00361181 -0.999989 
-0.00334167 -0.00540893 -0.99998 
-0.00306326 -0.00812794 -0.999962 
-0.0031308 -0.0113284 -0.999931 
-0.0027038 -0.0144001 -0.999893 
-0.00220762 -0.0149572 -0.999886 
-0.00188491 -0.0102564 -0.999946 
-3.11141e-06 0.000593166 -1 
-2.77584e-05 0.00048943 1 
0.00102302 -0.00993932 0.99995 
0.00157797 -0.0150898 0.999885 
0.00174594 -0.0145073 0.999893 
0.0018831 -0.0111589 0.999936 
0.00192413 -0.0078544 0.999967 
0.001904 -0.00523548 0.999984 
0.00181701 -0.00343271 0.999992 
0.00166406 -0.00223715 0.999996 
0.00159881 -0.00148553 0.999998 
0.00160911 -0.00110671 0.999998 
0.00152513 -0.000954998 0.999998 
0.00161997 -0.000835171 0.999998 
0.00168182 -0.000659699 0.999998 
0.00178978 -0.000412394 0.999998 
0.00185469 -0.000117413 0.999998 
0.00180553 0.000211515 0.999998 
0.0018799 0.000542707 0.999998 
0.00194 0.000898349 0.999998 
0.00184343 0.00128099 0.999997 
0.00184889 0.00172254 0.999997 
0.00188065 0.00220623 0.999996 
0.00194575 0.00272807 0.999994 
0.00189177 0.00331066 0.999993 
0.00193961 0.00415867 0.999989 
0.00205311 0.00534142 0.999984 
0.00198745 0.00677327 0.999975 
0.00207064 0.00860332 0.999961 
0.00210734 0.0105244 0.999942 
0.00227382 0.0125744 0.999918 
0.00246139 0.0150838 0.999883 
0.00244557 0.0189944 0.999817 
0.00266959 0.0321573 0.999479 
0.00435688 0.0425543 0.999085 
0.00857569 0.0647565 0.997864 
0.00599986 0.0569266 0.99836 
0.00962068 0.0623121 0.99801 
0.0238553 0.132331 0.990918 
0.0225266 0.13473 0.990626 
0.0188469 0.13599 0.990531 
-0.0147339 0.11886 -0.992802 
-0.0170826 0.119368 -0.992703 
-0.00587897 0.069597 -0.997558 
-0.00776258 0.0693652 -0.997561 
-0.00736132 0.0641925 -0.99791 
-0.00266822 0.0431297 -0.999066 
-0.000521724 0.0303355 -0.99954 
-0.00111054 0.0188883 -0.999821 
-0.00222388 0.0141286 -0.999898 
-0.00230503 0.0125597 -0.999918 
-0.00248453 0.0112521 -0.999934 
-0.00235054 0.00972958 -0.99995 
-0.00205569 0.00810781 -0.999965 
-0.00181882 0.00626022 -0.999979 
-0.00173174 0.00454156 -0.999988 
-0.00175127 0.00338623 -0.999993 
-0.00179152 0.0026719 -0.999995 
-0.00174061 0.00216084 -0.999996 
-0.00171603 0.00171507 -0.999997 
-0.00182718 0.00130229 -0.999997 