# vtk DataFile Version 3.0 
Exported using Morpho https://github.com/Morpho-lang/morpho 
ASCII 
DATASET UNSTRUCTURED_GRID 

POINTS 1978 float 
-12 -4 -1.61358e-10 
-11.6607 -4 2.37719e-08 
-11.3195 -4 5.52278e-09 
-10.9925 -4 1.70351e-08 
-10.684 -4 8.23675e-09 
-10.3405 -4 -4.82172e-09 
-10.0119 -4 1.34435e-08 
-9.6855 -3.99999 -4.86722e-09 
-9.34316 -4 2.53412e-09 
-9.00988 -4 8.53484e-09 
-8.68663 -3.99999 -8.14076e-09 
-8.38274 -4 1.01919e-08 
-8.07459 -4 1.91041e-09 
-7.77051 -4 -7.86762e-09 
-7.48255 -4 1.86079e-09 
-7.18553 -4 -7.26155e-09 
-6.88197 -3.99999 7.56846e-10 
-6.57929 -4 1.31615e-10 
-6.27839 -4 1.71945e-09 
-5.97581 -4 -5.28474e-11 
-5.6753 -4 -9.17479e-09 
-5.38426 -3.99999 -4.1054e-09 
-5.10848 -4 -4.32919e-09 
-4.82471 -4 7.10951e-09 
-4.50838 -4 -6.38126e-10 
-4.22044 -3.99999 -6.66103e-09 
-3.94365 -4 -5.23611e-09 
-3.63806 -3.99999 -2.60286e-08 
-3.3294 -3.99999 -1.82104e-08 
-3.06295 -4.00001 -4.37189e-08 
-2.82562 -4.00001 5.64053e-08 
-2.59586 -3.99998 -6.75645e-08 
-2.37045 -4 2.62804e-09 
-2.16024 -4 -6.88524e-08 
-1.9572 -4.00001 -8.65826e-08 
-1.74849 -4 -9.25604e-08 
-1.5072 -4.00001 9.83132e-09 
-1.25253 -3.99999 -3.87308e-07 
-0.926091 -3.99996 -5.08467e-07 
-0.512686 -4.00012 -2.58432e-06 
0.535508 -4.00008 5.3478e-06 
1.20084 -3.99999 -1.85818e-06 
1.57015 -4.00004 -2.05902e-08 
1.79837 -3.99998 -1.93292e-09 
1.95818 -4.00001 1.84757e-07 
2.12775 -4.00003 -1.04199e-07 
2.32459 -4 7.98191e-08 
2.54175 -3.99995 1.09546e-08 
2.80394 -4.00002 3.18412e-08 
3.07504 -4 2.45675e-08 
3.34033 -3.99999 3.26568e-08 
3.60772 -3.99999 1.57397e-08 
3.87736 -4 6.0959e-09 
4.19078 -4 1.76406e-09 
4.49041 -4 -9.52871e-10 
4.79353 -4 -7.12172e-09 
5.09602 -4 2.17865e-09 
5.39355 -4 9.62403e-09 
5.68715 -4 2.51046e-10 
5.98559 -4 4.59758e-09 
6.27719 -4 -6.26061e-09 
6.57388 -4 2.80753e-09 
6.86873 -4 2.67368e-09 
7.17056 -4 5.65257e-09 
7.46872 -4 6.24995e-09 
7.76537 -4 -5.0402e-09 
8.05973 -4 5.90153e-09 
8.36412 -4 -1.1649e-08 
8.67063 -4 1.50528e-09 
8.95927 -4 -9.05762e-09 
9.2949 -3.99999 1.4015e-09 
9.62595 -4 -5.33196e-09 
9.93498 -4 -3.03966e-09 
10.3108 -4 2.97726e-09 
10.6355 -3.99999 -1.42269e-08 
11.0059 -3.99999 -9.79272e-09 
11.3355 -4 -1.17872e-08 
11.6189 -3.99999 -2.43864e-08 
12 -3.99999 2.82881e-09 
-12 -3.68843 -2.16139e-08 
-11.6545 -3.68389 -9.2087e-10 
-11.3512 -3.64114 3.86768e-09 
-11.0394 -3.66616 1.34312e-10 
-10.7159 -3.64412 4.28057e-10 
-10.3978 -3.67977 -3.08984e-10 
-10.0563 -3.66776 -2.68619e-10 
-9.73107 -3.66878 2.00995e-10 
-9.39972 -3.68939 4.35474e-10 
-9.06311 -3.68679 -1.18153e-09 
-8.7352 -3.68188 -2.11754e-10 
-8.41177 -3.66503 -2.68195e-10 
-8.10369 -3.66969 2.36387e-10 
-7.79112 -3.66556 -8.14561e-10 
-7.48548 -3.64713 1.03258e-10 
-7.18977 -3.65792 -2.45832e-11 
-6.88815 -3.66598 5.55477e-10 
-6.57831 -3.66539 -6.71423e-11 
-6.26647 -3.6723 1.33839e-10 
-5.9499 -3.67733 -7.34552e-10 
-5.64165 -3.6747 1.51399e-10 
-5.34454 -3.66416 -3.2877e-10 
-5.045 -3.67628 8.38739e-10 
-4.717 -3.70933 4.96613e-11 
-4.39799 -3.68075 -6.45024e-10 
-4.1006 -3.66751 -3.95003e-10 
-3.78589 -3.70078 -9.7745e-11 
-3.45047 -3.70787 -7.67884e-10 
-3.12548 -3.68467 7.86943e-11 
-2.85549 -3.66806 4.90786e-10 
-2.63927 -3.60493 8.02676e-11 
-2.42214 -3.66231 4.13022e-09 
-2.19506 -3.66199 3.34664e-09 
-1.97393 -3.6633 8.05819e-09 
-1.71855 -3.68766 6.07356e-09 
-1.43877 -3.64513 3.45321e-09 
-1.42554 -3.32632 5.92305e-09 
-1.05899 -3.61475 -2.8012e-09 
-0.55363 -3.56007 -1.19158e-06 
0.54638 -3.49904 9.46365e-08 
1.00708 -3.62255 -3.49943e-08 
1.33472 -3.75266 5.53018e-08 
1.46588 -3.44286 3.7061e-09 
1.70148 -3.715 -8.83039e-09 
1.84102 -3.42248 -6.34455e-09 
1.99355 -3.62528 -3.30753e-09 
2.22706 -3.69028 5.75738e-10 
2.47327 -3.66721 -2.0297e-09 
2.74917 -3.71117 2.56308e-09 
3.0374 -3.69958 -1.06808e-09 
3.32726 -3.67555 -2.30357e-10 
3.6145 -3.65831 1.48631e-09 
3.92701 -3.70824 4.78804e-10 
4.23016 -3.68677 5.41269e-11 
4.53396 -3.68023 -9.26754e-11 
4.84014 -3.67634 -8.24163e-11 
5.14149 -3.67114 -8.7982e-11 
5.43851 -3.66706 1.7816e-10 
5.73851 -3.67147 -5.25721e-10 
6.03238 -3.66071 1.6906e-10 
6.33032 -3.66453 1.37419e-10 
6.62696 -3.66039 -2.41611e-10 
6.92849 -3.66789 2.45968e-10 
7.23063 -3.66374 1.21078e-11 
7.53235 -3.66226 -7.62275e-11 
7.83377 -3.66051 -1.51392e-10 
8.13701 -3.6729 6.71583e-10 
8.44218 -3.66993 -6.339e-10 
8.73598 -3.64376 5.46087e-10 
9.05805 -3.69223 1.21118e-09 
9.38883 -3.68396 -7.19449e-10 
9.70508 -3.65555 8.71984e-10 
10.055 -3.71338 1.1359e-09 
10.3916 -3.6651 -2.74777e-10 
10.7468 -3.70538 8.11936e-10 
11.0826 -3.6686 -1.54178e-09 
11.3772 -3.61717 -2.79858e-09 
11.7144 -3.71669 4.75742e-10 
12 -3.62983 2.45974e-08 
-12 -3.37509 -1.1025e-08 
-11.6929 -3.33351 -1.96459e-09 
-11.3504 -3.31393 -5.06352e-10 
-11.0126 -3.32021 -5.35179e-10 
-10.6806 -3.30487 -1.77368e-09 
-10.3472 -3.35651 -1.04756e-09 
-10.0207 -3.33207 -1.10539e-09 
-9.69907 -3.33144 -8.12609e-10 
-9.38454 -3.37231 -3.10427e-10 
-9.06526 -3.36345 -3.90338e-10 
-8.76733 -3.33487 -3.09507e-10 
-8.46795 -3.34738 -2.23508e-10 
-8.15045 -3.33381 -5.25575e-11 
-7.84522 -3.33719 -6.41259e-11 
-7.53776 -3.31169 -5.63307e-11 
-7.23228 -3.31188 1.40058e-11 
-6.93415 -3.32449 3.55565e-11 
-6.6349 -3.33739 1.38152e-10 
-6.32781 -3.34227 1.92816e-10 
-6.02515 -3.35749 2.82762e-10 
-5.71968 -3.35142 4.30435e-10 
-5.4233 -3.3404 5.3898e-10 
-5.1249 -3.34735 7.08873e-10 
-4.82011 -3.40091 6.76423e-10 
-4.51298 -3.38423 8.65491e-10 
-4.20412 -3.34154 1.16422e-09 
-3.89155 -3.38102 7.9478e-10 
-3.5734 -3.41271 5.2579e-10 
-3.25079 -3.40348 1.44303e-09 
-2.95119 -3.33936 2.50845e-09 
-2.69673 -3.25838 2.88461e-09 
-2.45386 -3.29417 4.81962e-09 
-2.23519 -3.33072 6.20155e-09 
-1.99633 -3.31455 7.10107e-09 
-1.75984 -3.35507 7.3907e-09 
-1.65755 -3.02041 6.35038e-09 
-1.34315 -2.92326 3.98787e-09 
-1.06291 -3.1902 -3.36427e-10 
-0.565401 -3.11445 1.93971e-06 
-0.563853 -2.54884 1.9887e-06 
0.566875 -2.95403 -8.53727e-07 
1.07391 -3.20784 2.5644e-09 
1.36208 -3.01993 -2.43872e-09 
1.63161 -3.16771 -5.40796e-09 
1.8878 -3.07558 -4.7709e-09 
2.12638 -3.15573 -7.05991e-09 
2.22225 -3.36838 -6.84657e-09 
2.44977 -3.34689 -3.89387e-09 
2.72391 -3.41698 -3.55032e-09 
3.00174 -3.39572 -2.29132e-09 
3.28587 -3.36256 -1.97039e-09 
3.57771 -3.34028 -9.42719e-10 
3.88052 -3.40073 -5.86438e-10 
4.1831 -3.37858 -9.30411e-10 
4.49234 -3.36007 -9.31455e-10 
4.80063 -3.35413 -8.87296e-10 
5.10791 -3.3442 -6.62777e-10 
5.4096 -3.33748 -4.80326e-10 
5.70886 -3.34401 -3.40013e-10 
6.00878 -3.32562 -2.7166e-10 
6.30635 -3.33058 -1.83544e-10 
6.60651 -3.3238 -1.71059e-10 
6.9083 -3.33441 -5.9527e-11 
7.21209 -3.33299 7.34502e-13 
7.52131 -3.3318 3.20717e-11 
7.83189 -3.33031 4.38258e-11 
8.1451 -3.3422 1.21771e-10 
8.44278 -3.32373 1.65498e-10 
8.75758 -3.31509 3.48292e-10 
9.07403 -3.3738 3.04858e-10 
9.39039 -3.35067 3.81118e-10 
9.70534 -3.31318 8.8439e-10 
10.017 -3.39796 6.27399e-10 
10.3223 -3.32321 1.56343e-09 
10.6512 -3.38662 9.62114e-10 
10.9823 -3.35136 5.61621e-10 
11.2982 -3.26739 4.93459e-10 
11.6358 -3.37041 1.3531e-09 
12 -3.33662 8.29197e-09 
-12 -3.01801 -1.47802e-08 
-11.6553 -3.01296 -3.30864e-09 
-11.3109 -2.98428 4.3013e-10 
-10.9721 -2.9902 -4.69996e-10 
-10.6248 -2.98413 -1.06026e-09 
-10.3039 -3.01739 -9.88914e-10 
-9.97466 -2.99634 -7.72978e-10 
-9.64942 -2.99973 -5.05814e-10 
-9.34198 -3.03508 -3.28498e-10 
-9.04126 -3.01224 -2.67346e-10 
-8.73377 -2.99243 -1.88351e-10 
-8.42476 -3.01957 -1.31896e-10 
-8.11476 -2.99896 -7.63721e-11 
-7.80838 -3.00148 -1.13257e-11 
-7.4956 -2.97825 -2.66981e-11 
-7.18886 -2.97624 5.0116e-12 
-6.88464 -2.99194 5.56729e-11 
-6.57847 -3.01302 8.10645e-11 
-6.27596 -3.01405 1.08532e-10 
-5.97515 -3.03238 1.67173e-10 
-5.68131 -3.01942 1.73583e-10 
-5.38806 -3.01548 2.36599e-10 
-5.09594 -3.01548 2.44602e-10 
-4.80874 -3.0826 4.87955e-10 
-4.50392 -3.06249 5.66889e-10 
-4.19102 -3.02237 3.86088e-10 
-3.87371 -3.06537 5.108e-10 
-3.5553 -3.10548 7.20222e-10 
-3.23958 -3.0901 6.8706e-10 
-2.9447 -3.01431 8.77605e-10 
-2.64397 -2.92667 1.7359e-09 
-2.38439 -2.94688 2.62634e-09 
-2.15421 -3.0004 3.59217e-09 
-1.90575 -2.94547 1.63205e-09 
-1.78803 -2.58051 1.32198e-09 
-1.54504 -2.62632 2.78725e-09 
-1.25855 -2.44477 6.71641e-09 
-0.99806 -2.6574 -6.43325e-09 
-0.526986 -1.9238 5.45716e-06 
0.511996 -1.61839 -4.30318e-06 
0.558577 -2.3 -4.13888e-06 
0.965915 -2.1142 -1.17304e-09 
1.00587 -2.68993 1.83869e-09 
1.34226 -2.62609 -4.45789e-09 
1.63735 -2.75675 -2.48946e-09 
1.85749 -2.75588 -4.40584e-09 
2.13045 -2.84148 -8.30072e-10 
2.40622 -2.97653 -2.57663e-09 
2.65781 -3.12287 -3.57318e-09 
2.95404 -3.08906 -1.61479e-09 
3.21836 -3.02413 -6.58813e-10 
3.50517 -3.0321 -2.96109e-11 
3.84025 -3.08822 -1.96087e-10 
4.1554 -3.06372 -3.62353e-10 
4.46799 -3.04093 -5.19574e-10 
4.78159 -3.03121 -4.72689e-10 
5.09284 -3.0213 -3.4165e-10 
5.40147 -3.01162 -2.11452e-10 
5.7031 -3.01639 -1.54807e-10 
6.00334 -2.99816 -1.12589e-10 
6.3044 -2.99749 -1.12335e-10 
6.60658 -2.99302 -5.24572e-11 
6.91063 -3.00113 -1.50479e-11 
7.21848 -3.00538 -1.71175e-12 
7.52883 -3.00546 7.44959e-12 
7.84438 -3.00699 2.74046e-11 
8.13912 -2.99961 4.30356e-11 
8.43991 -2.98085 1.10185e-10 
8.73961 -2.98162 1.62762e-10 
9.05641 -3.04089 3.19992e-10 
9.37003 -3.01608 3.43441e-10 
9.68457 -2.97755 4.76926e-10 
10.0133 -3.04669 9.70402e-10 
10.3409 -2.98643 9.67223e-10 
10.6621 -3.05513 1.46677e-09 
10.9829 -3.00557 5.55408e-10 
11.3343 -2.9501 -5.41498e-10 
11.6654 -3.06246 2.32038e-09 
12 -3.01366 1.38194e-08 
-12 -2.69703 -1.79634e-08 
-11.6552 -2.69386 -1.757e-10 
-11.3348 -2.64004 1.70835e-09 
-11.0037 -2.66396 9.81007e-10 
-10.664 -2.66635 4.2077e-11 
-10.3147 -2.67313 -8.96052e-11 
-9.99533 -2.66622 -1.58486e-10 
-9.66572 -2.66858 -9.32514e-11 
-9.3437 -2.68487 -3.55055e-11 
-9.03017 -2.6748 -7.74516e-11 
-8.71021 -2.66542 -7.19229e-11 
-8.39682 -2.68641 -1.05158e-11 
-8.08546 -2.66535 2.22443e-11 
-7.77133 -2.67375 1.10332e-11 
-7.45492 -2.64928 7.521e-12 
[...]
POINT_DATA 1978 
VECTORS vectors float
0.0078024 -0.0114978 0.999907 
0.00656617 -0.0165395 0.999844 
0.00493239 -0.0160617 0.999865 
0.00474766 -0.0115659 0.999927 
0.00506139 -0.00801616 0.99996 
0.00493872 -0.00539548 0.999977 
0.0050566 -0.00375438 0.999985 
0.00504528 -0.00262409 0.999988 
0.00487565 -0.0018755 0.99999 
0.00522887 -0.00144224 0.999989 
0.00545381 -0.00112924 0.999989 
0.00573901 -0.000888793 0.999988 
0.00575031 -0.000633493 0.999988 
0.00578512 -0.000417793 0.999989 
0.00599602 -0.000173316 0.999988 
0.00590407 7.00577e-05 0.999988 
0.00581024 0.000277757 0.999989 
0.00578818 0.000522716 0.999986 
0.00567107 0.00082476 0.999989 
0.00558442 0.00125325 0.999988 
0.00572505 0.0017369 0.999986 
0.00587625 0.00235186 0.999986 
0.00569998 0.00321281 0.999984 
0.00534169 0.00419151 0.999981 
0.00536407 0.00555324 0.999975 
0.00550524 0.00698805 0.999965 
0.00533964 0.00863419 0.999953 
0.00536547 0.0106635 0.999933 
0.00553452 0.0125277 0.99991 
0.00606323 0.0136681 0.999892 
0.00573629 0.0145416 0.999881 
0.00524651 0.0160568 0.999864 
0.00504039 0.0167547 0.999853 
0.00462866 0.0146773 0.99989 
0.00441848 0.0123603 0.999919 
0.00583915 0.0121338 0.999914 
0.00480726 0.0177853 0.999833 
0.00361733 0.0312781 0.999509 
0.00281441 0.0575578 0.998348 
0.00417772 0.0968406 0.995262 
-0.00230389 0.10862 -0.994059 
-0.00529105 0.0442493 -0.999007 
-0.00585597 0.011745 -0.999918 
-0.00385587 0.00499338 -0.999982 
-0.00288348 0.00160042 -1 
-0.00433707 0.00493319 -0.999985 
-0.00636779 0.0103725 -0.999933 
-0.00776193 0.0174498 -0.999823 
-0.00574632 0.0168444 -0.999844 
-0.00567235 0.0137896 -0.999895 
-0.00595159 0.0122313 -0.999912 
-0.00580631 0.0108098 -0.999928 
-0.00509132 0.00898372 -0.999951 
-0.00534484 0.00701179 -0.999965 
-0.00546844 0.0053701 -0.999975 
-0.00562436 0.00409196 -0.999981 
-0.00572194 0.00309391 -0.999984 
-0.00579486 0.00227566 -0.999986 
-0.0058424 0.0016515 -0.999987 
-0.00588008 0.00117163 -0.999987 
-0.00591901 0.000840091 -0.999987 
-0.00589852 0.000569353 -0.999989 
-0.0058564 0.000302944 -0.999988 
-0.00587657 6.47575e-05 -0.999988 
-0.0058691 -0.000193977 -0.999988 
-0.00594535 -0.000443315 -0.999988 
-0.00582595 -0.000684432 -0.999988 
-0.00579632 -0.000830078 -0.999988 
-0.00588471 -0.00107718 -0.999988 
-0.00543013 -0.00141 -0.999989 
-0.00523559 -0.00174852 -0.999989 
-0.00523736 -0.00255245 -0.999988 
-0.00445087 -0.0035067 -0.999987 
-0.00449833 -0.00519817 -0.999979 
-0.00420314 -0.00755877 -0.999966 
-0.00422017 -0.0117083 -0.999926 
-0.00512943 -0.0164258 -0.999857 
-0.0064664 -0.0162567 -0.999851 
-0.00718141 -0.0112496 -0.999914 
0.00709992 -0.0118349 0.999909 
0.00707968 -0.0130536 0.9999 
0.00613177 -0.0140555 0.999892 
0.00647729 -0.0123616 0.99991 
0.00684086 -0.00906642 0.999945 
0.00737768 -0.00625825 0.999962 
0.00741063 -0.00421313 0.999972 
0.00752083 -0.0029812 0.999979 
0.00787198 -0.00212882 0.999973 
0.00778928 -0.00148671 0.999978 
0.00777627 -0.00108924 0.999979 
0.00797032 -0.000854826 0.999977 
0.00808154 -0.000623583 0.999976 
0.00823066 -0.000382493 0.999976 
0.00827507 -0.000186888 0.999973 
0.00832737 2.74038e-05 0.999974 
0.00813886 0.00026234 0.999974 
0.00811883 0.000516339 0.999978 
0.00808017 0.000842751 0.999976 
0.00815102 0.00131301 0.999974 
0.00816203 0.00188573 0.999974 
0.00812227 0.00249708 0.999971 
0.00806459 0.00331465 0.99997 
0.0078205 0.00454659 0.999967 
0.00770216 0.00603004 0.99996 
0.00750578 0.00749487 0.999952 
0.00727546 0.00906125 0.999941 
0.00747959 0.0104157 0.999926 
0.00905 0.0114498 0.999901 
0.0110568 0.0128727 0.999863 
0.0130273 0.0137718 0.999828 
0.0136158 0.0143301 0.999811 
0.0131789 0.0140747 0.999821 
0.0126056 0.0145791 0.999822 
0.0104327 0.0173356 0.999801 
0.0083512 0.0272639 0.999603 
0.00989379 0.0316158 0.999463 
0.00508566 0.0494211 0.998776 
0.00405818 0.0973168 0.995204 
-0.0030558 0.108487 -0.994019 
-0.00541632 0.0656986 -0.997827 
-0.00456282 0.0311448 -0.999515 
-0.00895005 0.0317782 -0.999465 
-0.00925869 0.0141738 -0.999867 
-0.0147589 0.0174357 -0.999747 
-0.0125453 0.0119757 -0.999857 
-0.0125745 0.0107563 -0.999868 
-0.0132677 0.0119985 -0.999847 
-0.0113621 0.0135638 -0.999852 
-0.0102618 0.011858 -0.999882 
-0.00881015 0.0106478 -0.999912 
-0.0077199 0.00974128 -0.999933 
-0.0073863 0.00851471 -0.999944 
-0.00754935 0.00677819 -0.999957 
-0.00773011 0.00513579 -0.999965 
-0.00790192 0.00388222 -0.99997 
-0.00802603 0.00291992 -0.999972 
-0.00815567 0.00218346 -0.999974 
-0.00827751 0.001589 -0.999972 
-0.00834338 0.00114222 -0.999974 
-0.0083899 0.000798853 -0.999973 
-0.00833719 0.000524512 -0.999973 
-0.00836418 0.000260192 -0.999973 
-0.00834482 -7.86316e-07 -0.999974 
-0.00839847 -0.00025776 -0.999974 
-0.00830124 -0.000468143 -0.999973 
-0.00825549 -0.00066003 -0.999973 
-0.00816246 -0.000879805 -0.999975 
-0.00812867 -0.00110129 -0.999976 
-0.00807636 -0.00145638 -0.999974 
-0.00778936 -0.0021009 -0.999976 
-0.00753299 -0.00290414 -0.999977 
-0.00752339 -0.00412617 -0.999971 
-0.00706373 -0.00620023 -0.999966 
-0.00682855 -0.00922615 -0.999943 
-0.00640337 -0.0128477 -0.999906 
-0.00601637 -0.013864 -0.999895 
-0.00710009 -0.0126958 -0.999902 
-0.00670433 -0.0116105 -0.999916 
0.0066562 -0.0109854 0.999924 
0.00680197 -0.010836 0.999927 
0.00770405 -0.0140093 0.999879 
0.00844704 -0.0127305 0.999895 
0.00936985 -0.00944954 0.999921 
0.00957666 -0.00645373 0.999942 
0.0102035 -0.0043856 0.999948 
0.0106226 -0.00311862 0.999945 
0.0104408 -0.00223957 0.999954 
0.010706 -0.00157068 0.999949 
0.0110968 -0.00113163 0.999945 
0.0109662 -0.000870164 0.999948 
0.0109831 -0.000665146 0.999947 
0.0109841 -0.000448062 0.999948 
0.0111823 -0.000231013 0.999946 
0.0111614 -3.75552e-06 0.999946 
0.0111013 0.000231175 0.999948 
0.0110522 0.000492795 0.999947 
0.0110898 0.000805754 0.999947 
0.0110175 0.00119967 0.999947 
0.0110534 0.00171007 0.999945 
0.0112165 0.00234072 0.999944 
0.0110306 0.0031296 0.999944 
0.0105518 0.00415848 0.999943 
0.0104504 0.00537488 0.999939 
0.0103729 0.00674075 0.999933 
0.0097622 0.00811745 0.999929 
0.00939268 0.00901226 0.999921 
0.0102173 0.00934166 0.999912 
0.0124931 0.0100277 0.999881 
0.0150703 0.0112104 0.999831 
0.0170687 0.0126448 0.999779 
0.017616 0.0140845 0.999752 
0.0164076 0.0161683 0.999743 
0.014284 0.0204288 0.999698 
0.0121957 0.0261542 0.99959 
0.0086421 0.0395752 0.999188 
0.00492289 0.0540559 0.99854 
0.000198567 0.0997685 0.994959 
0.00327461 0.10211 0.994688 
-0.00344495 0.109354 -0.993928 
-0.00608816 0.0604555 -0.99817 
-0.00932527 0.0424002 -0.999066 
-0.0119094 0.0264162 -0.99959 
-0.0150552 0.0185084 -0.99972 
-0.0174116 0.0128372 -0.999771 
-0.0185577 0.0116932 -0.999767 
-0.0175502 0.0103179 -0.9998 
-0.0154881 0.0100542 -0.999837 
-0.0136451 0.00961038 -0.999867 
-0.0117516 0.009096 -0.999898 
-0.0104863 0.00906262 -0.999912 
-0.00972772 0.0084224 -0.999926 
-0.0100351 0.00704631 -0.999931 
-0.010267 0.00539881 -0.999943 
-0.0105499 0.00402178 -0.999945 
-0.0107747 0.00301285 -0.999945 
-0.0109526 0.00227329 -0.999946 
-0.0110797 0.00169823 -0.999943 
-0.0111736 0.00121798 -0.999947 
-0.0112576 0.000845998 -0.999943 
-0.0112241 0.000530916 -0.999948 
-0.0112284 0.000264098 -0.999943 
-0.0112139 1.33998e-05 -0.999946 
-0.0111628 -0.000238865 -0.999945 
-0.0111393 -0.000454149 -0.999947 
-0.0109522 -0.000647904 -0.99995 
-0.0110281 -0.000846558 -0.999949 
-0.0111557 -0.00112431 -0.999945 
-0.0105984 -0.00156822 -0.99995 
-0.0106474 -0.00227194 -0.99995 
-0.0107325 -0.00315809 -0.999947 
-0.0096856 -0.00431703 -0.999953 
-0.00998488 -0.00632415 -0.999939 
-0.00889153 -0.00901313 -0.999928 
-0.00843302 -0.012501 -0.999895 
-0.00801135 -0.0143756 -0.999875 
-0.00676837 -0.0112222 -0.999923 
-0.00641793 -0.0108364 -0.999926 
0.00441393 -0.0113189 0.999932 
0.00604348 -0.0110735 0.999931 
0.00715295 -0.0148812 0.999875 
0.00807284 -0.013225 0.999888 
0.00878624 -0.00954931 0.999925 
0.00941204 -0.00667029 0.999943 
0.00966776 -0.00448795 0.999952 
0.00994501 -0.00312328 0.999955 
0.010254 -0.00225129 0.999953 
0.0100444 -0.00154475 0.999957 
0.00986574 -0.00105445 0.999962 
0.0100967 -0.000800384 0.999955 
0.00989135 -0.000627349 0.999961 
0.00991362 -0.000437077 0.999959 
0.00976094 -0.000213877 0.999962 
0.00976927 2.09436e-05 0.999961 
0.00994087 0.000268056 0.999958 
0.0101547 0.000552402 0.999957 
0.0101333 0.000898033 0.999957 
0.0101666 0.00130465 0.999956 
0.0099923 0.00180123 0.999957 
0.00992686 0.00243474 0.999956 
0.0098457 0.00321771 0.999955 
0.0102025 0.00412827 0.999948 
0.00990933 0.00524926 0.999946 
0.00937145 0.0065206 0.999941 
0.00921937 0.00759698 0.999937 
0.00912718 0.00813413 0.999936 
0.00952467 0.00844197 0.999927 
0.0106752 0.0091359 0.999909 
0.0125065 0.0107572 0.99987 
0.0144426 0.0129818 0.999821 
0.0147944 0.0152447 0.999782 
0.0127636 0.0197579 0.999733 
0.00892903 0.024203 0.999673 
0.00796266 0.0317958 0.999474 
0.00535249 0.0458431 0.998945 
0.00476767 0.0621436 0.998063 
0.00124654 0.103085 0.994581 
-0.00578822 0.0999166 -0.994886 
-0.00469048 0.10504 -0.994376 
-0.00464699 0.0672395 -0.997743 
-0.00579145 0.0656932 -0.997843 
-0.00771996 0.0429545 -0.999056 
-0.0105001 0.0294496 -0.99952 
-0.011575 0.020198 -0.999738 
-0.0134635 0.013999 -0.99982 
-0.0148939 0.00943702 -0.999854 
-0.0155181 0.00821047 -0.999851 
-0.0128165 0.00781748 -0.999896 
-0.0104788 0.0078179 -0.999922 
-0.00929599 0.00839229 -0.99993 
-0.009263 0.00831125 -0.99993 
-0.00927017 0.00708734 -0.999942 
-0.00945705 0.00550985 -0.999947 
-0.00956467 0.00406695 -0.999955 
-0.00964507 0.00302641 -0.999958 
-0.00971902 0.0022966 -0.999959 
-0.00985897 0.00172055 -0.99996 
-0.00989497 0.00124465 -0.999957 
-0.00992799 0.000845258 -0.999961 
-0.00999358 0.000530378 -0.999956 
-0.010014 0.000261859 -0.99996 
-0.0100694 1.09219e-05 -0.999959 
-0.0100467 -0.000249206 -0.999958 
-0.00996267 -0.000481127 -0.999959 
-0.00981985 -0.000652227 -0.99996 
-0.00968444 -0.000822979 -0.99996 
-0.00973901 -0.00105537 -0.999962 
-0.0102348 -0.0015447 -0.999956 
-0.0100991 -0.0023028 -0.999955 
-0.00977666 -0.00328183 -0.999955 
-0.00996606 -0.00467782 -0.999949 
-0.00934015 -0.00700094 -0.999941 
-0.00916641 -0.00979253 -0.999919 
-0.00820362 -0.0132887 -0.999887 
-0.00694519 -0.0149544 -0.999873 
-0.00621828 -0.0110887 -0.999928 
-0.00423474 -0.0112409 -0.999934 
0.00269553 -0.0116332 0.999938 
0.00438117 -0.0117142 0.999931 
0.00503385 -0.0157519 0.99987 
0.00581207 -0.0143173 0.99989 
0.00637693 -0.0104588 0.999934 
0.00682373 -0.0071522 0.99996 
0.00699317 -0.0048291 0.999973 
0.0071606 -0.00329475 0.999978 
0.00729176 -0.00227549 0.999981 
0.00718268 -0.00150392 0.999982 
0.0070561 -0.00101019 0.999981 
0.0071996 -0.000781745 0.999985 
0.00706902 -0.000635752 0.999984 
0.00720231 -0.000445243 0.999983 
0.00704433 -0.000210056 0.999984 
0.00708989 4.75961e-05 0.999983 
0.00725229 0.000314899 0.999982 
0.00732399 0.000615136 0.999981 
0.0072938 0.000975444 0.999981 
0.00733268 0.00137339 0.999981 
0.00720607 0.00185406 0.999981 
0.00717041 0.00247407 0.999979 
0.00720529 0.00325971 0.999976 
0.00751089 0.00411954 0.999973 
0.00714956 0.00514939 0.99997 
0.00665411 0.00643078 0.999967 
0.00662626 0.00736968 0.999959 
0.00661825 0.00773186 0.999957 
0.00682298 0.00824279 0.999951 
0.00790775 0.00950139 0.999932 
0.00923846 0.0115489 0.999901 
0.0110024 0.0144156 0.99984 
0.0109707 0.0173059 0.999798 
0.00855162 0.0202084 0.999765 
0.00464886 0.0321439 0.999486 
0.00293953 0.0469602 0.9989 
0.00209233 0.0724072 0.997396 
0.00390193 0.0751226 0.997178 
0.00325145 0.104609 0.994433 
0.00560487 0.109392 0.993927 
-0.00952312 0.100944 -0.99477 
-0.0043768 0.0620873 -0.998075 
-0.00530279 0.0463184 -0.998925 
-0.00646605 0.0343839 -0.999394 
-0.00718492 0.0253167 -0.999662 
-0.00849817 0.0182258 -0.999802 
-0.00990417 0.0120383 -0.999886 
-0.0114642 0.00817627 -0.999908 
-0.011909 0.00732432 -0.99991 
-0.00901832 0.00703698 -0.999945 
-0.00713215 0.00748144 -0.999955 
-0.00671357 0.0082701 -0.999952 
-0.00669797 0.00801795 -0.999954 
-0.00666369 0.00676155 -0.999965 
-0.00677775 0.00516963 -0.999971 
-0.00692489 0.00383383 -0.999978 
-0.00702426 0.00288306 -0.99998 
-0.00703576 0.00220257 -0.999981 
-0.00716057 0.00165856 -0.999981 
-0.0071343 0.00120659 -0.999982 
-0.00720015 0.000821903 -0.999982 
-0.00724981 0.000510003 -0.999981 
-0.00728645 0.00024077 -0.999983 
-0.00727452 -2.31416e-05 -0.999981 
-0.00730601 -0.000288681 -0.999982 
-0.00709024 -0.000502125 -0.999984 
-0.00708197 -0.000677955 -0.99998 
-0.00680572 -0.000822005 -0.999986 
-0.00678 -0.00103128 -0.999985 
-0.00744477 -0.00148832 -0.99998 
-0.00723872 -0.00227198 -0.99998 
-0.00692374 -0.00332499 -0.99998 
-0.00733982 -0.00478485 -0.999971 
-0.00676597 -0.00725273 -0.99996 
-0.00670549 -0.01048 -0.999932 
-0.00589607 -0.0142958 -0.99989 
-0.00480865 -0.0154867 -0.999878 
-0.00445247 -0.0113448 -0.999935 
-0.00289108 -0.0115743 -0.999935 
0.00188782 -0.0115267 0.999939 
0.0027689 -0.0119116 0.999932 
0.00330048 -0.0150447 0.999891 
0.00393021 -0.0155566 0.99988 
0.00438031 -0.0119318 0.999928 
0.00476041 -0.00836913 0.999963 
0.00475243 -0.00560436 0.999982 
0.00487447 -0.00378181 0.99999 
0.00487752 -0.0025831 0.999994 
0.00478591 -0.00169098 0.999996 
0.00470847 -0.00110997 0.999997 
0.00467255 -0.000853576 0.999997 
0.00465311 -0.000733586 0.999998 
0.00472727 -0.000573484 0.999997 
0.00474721 -0.000352103 0.999997 
0.0047235 -8.70541e-05 0.999997 
0.00484556 0.000188594 0.999997 
0.00486995 0.000475931 0.999996 
0.00494706 0.000800016 0.999996 
0.00489142 0.00117133 0.999996 
0.0048116 0.00158988 0.999995 
0.00474495 0.00211548 0.999995 
0.0048207 0.00274178 0.999993 
0.00490974 0.00344698 0.99999 
0.00499861 0.00422062 0.999987 
0.00488489 0.00535172 0.999983 
0.00461208 0.0066877 0.999976 
0.00447085 0.00746897 0.999971 
0.00448195 0.0080274 0.999967 
0.00479658 0.00911928 0.999953 
0.00529175 0.0107125 0.999938 
0.00620717 0.0125738 0.999907 
0.00787484 0.0156666 0.99986 
0.00642872 0.022835 0.999724 
0.00415127 0.0280368 0.999606 
0.00339456 0.0368133 0.999327 
0.00316236 0.0559957 0.998434 
0.00458264 0.0585787 0.99828 
0.00640283 0.0756065 0.997131 
0.014484 0.11709 0.99298 
-0.0105183 0.108398 -0.994015 
-0.00678384 0.0659321 -0.997807 
-0.0023324 0.0451799 -0.998987 
-0.0021637 0.0337898 -0.999434 
-0.00331688 0.0278875 -0.999618 
-0.00558398 0.0194991 -0.999802 
-0.0068895 0.0132208 -0.999895 
-0.00713547 0.0092671 -0.999939 
-0.0082902 0.00770522 -0.999945 
-0.00597798 0.00801248 -0.999957 
-0.00494738 0.00833224 -0.999962 
-0.00477692 0.00836844 -0.999962 
-0.00465095 0.00800481 -0.999966 
-0.0045445 0.00669903 -0.999975 
-0.00457251 0.00513168 -0.999986 
-0.00464167 0.00382902 -0.99999 
-0.00471266 0.00288681 -0.999994 
-0.00463466 0.00220053 -0.999994 
-0.00472874 0.00169752 -0.999997 
-0.00473071 0.0012643 -0.999995 
-0.00481579 0.00087885 -0.999997 
-0.00486481 0.000545222 -0.999996 
-0.00488686 0.000251438 -0.999997 
-0.0048822 -3.07711e-05 -0.999997 
-0.00489449 -0.000293437 -0.999997 
-0.0045799 -0.000520454 -0.999997 
-0.00451909 -0.000700477 -1 
-0.00431809 -0.000839504 -0.999998 
-0.00428718 -0.00102222 -0.999999 
-0.00483819 -0.00148227 -0.999996 
-0.00484745 -0.00232529 -0.999995 
-0.00469891 -0.00343387 -0.999992 
-0.0051499 -0.00497792 -0.999984 
-0.00474735 -0.00764635 -0.99997 
-0.00475476 -0.0109962 -0.999936 
-0.00416181 -0.0149013 -0.99989 
-0.00336534 -0.0161453 -0.999873 
-0.00308333 -0.0118121 -0.999935 
-0.00201877 -0.011824 -0.999934 
0.00139166 -0.0118844 0.999935 
0.00183521 -0.0117214 0.99994 
0.00237917 -0.0167587 0.999866 
0.0026759 -0.0147684 0.999897 
0.00294467 -0.0107364 0.999947 
0.00305472 -0.00747738 0.999976 
0.00302256 -0.00487403 0.999993 
0.00299852 -0.00326527 0.999999 
0.0028338 -0.00217477 1 
0.00278337 -0.00139488 1 
0.00278218 -0.000996173 1 
0.00266636 -0.000865061 1 
0.00277812 -0.000746346 1 
0.00281321 -0.00056066 1 
0.00292555 -0.000310051 1 
0.00294419 -2.65333e-05 1 
0.00297686 0.000271929 1 
0.00305566 0.000594104 1 
0.00312949 0.000944674 1 
0.00299509 0.00134622 1 
0.00296797 0.00182075 1 
0.00296667 0.00236368 1 
0.00305812 0.00294033 0.999999 
0.00298509 0.00356744 0.999998 
0.00314565 0.00449989 0.999994 
0.00318323 0.005843 0.999987 
0.00294151 0.0071031 0.99998 
0.00296498 0.00838906 0.99997 
0.00309808 0.00989276 0.999956 
0.00321102 0.0117136 0.999934 
0.00433906 0.0136662 0.999907 
0.00502821 0.01815 0.999832 
0.0030548 0.0250182 0.99969 
0.0028975 0.0343293 0.999414 
0.00351788 0.0421112 0.999115 
0.00340224 0.0458779 0.99895 
0.0115582 0.0812852 0.996629 
0.0125886 0.0719842 0.99733 
0.0153895 0.0876821 0.996037 
0.0193021 0.120859 0.992406 
-0.0101259 0.0886352 -0.995979 
-0.00706444 0.0791864 -0.996839 
-0.00718869 0.0786963 -0.99688 
-0.00247846 0.0416055 -0.999144 
-0.00119242 0.0294962 -0.999573 
-0.00070478 0.0230548 -0.999742 
-0.00241387 0.0191764 -0.999823 
-0.00373143 0.0134967 -0.99991 
-0.00451369 0.0099566 -0.99995 
-0.00353436 0.00993269 -0.999954 
-0.00338697 0.00959832 -0.999957 
-0.00327496 0.00881722 -0.999965 
-0.00303348 0.00771424 -0.999975 
-0.00283498 0.00609861 -0.999986 
-0.00281329 0.00450542 -0.999995 
-0.00284458 0.00336432 -0.999999 
-0.00288744 0.00260105 -1 
-0.00283896 0.00207023 -1 
-0.00288391 0.0016381 -1 
-0.00296577 0.00121053 -1 
-0.00302677 0.000812316 -1 
-0.00302734 0.000474544 -1 
-0.00300749 0.000170958 -1 
-0.00300261 -0.000126106 -1 
-0.00294925 -0.00038658 -1 
-0.00269776 -0.000619922 -1 
-0.00260668 -0.000791729 -1 
-0.00238803 -0.000906069 -1.00001 
-0.00244343 -0.00106794 -1 
-0.0028409 -0.00151562 -1 
-0.00286874 -0.00233223 -1 
-0.00293995 -0.00358376 -0.999998 
-0.00333743 -0.00535486 -0.999989 
-0.00304225 -0.00818854 -0.99997 
-0.00312745 -0.0115856 -0.999938 
-0.00270186 -0.0153532 -0.999888 
-0.00222041 -0.0164807 -0.999871 
-0.0021006 -0.0120845 -0.999934 
-0.00133957 -0.0120152 -0.999933 
0.000793659 -0.0118509 0.999936 
0.00114531 -0.0118972 0.999938 
0.0015958 -0.0165444 0.999871 
0.00173903 -0.0153918 0.999889 
0.00186633 -0.011362 0.999943 
0.00189823 -0.00789538 0.999977 
0.00188402 -0.00520033 0.999991 
0.00178186 -0.00338325 1 
0.00161304 -0.0022096 1.00001 
0.00154332 -0.00143308 1.00001 
0.0015531 -0.00107527 1 
0.00146999 -0.000965536 1.00001 
0.00158291 -0.000866941 1 
0.00164743 -0.000682924 1.00001 
0.00176121 -0.000428152 1.00001 
0.00183012 -0.00012753 1.00001 
0.00178534 0.000213262 1.00001 
0.00185663 0.000548376 1.00001 
0.00191149 0.000906354 1 
0.00181482 0.0012926 1.00001 
0.00181761 0.00174583 1 
0.00185548 0.00223905 1 
0.00193813 0.00276783 1 
0.00186987 0.00331531 1 
0.00191953 0.00416543 0.999998 
0.00201193 0.00539343 0.99999 
0.00193058 0.00683177 0.999987 
0.00208059 0.00879638 0.999966 
0.00210854 0.0108769 0.999951 
0.00208078 0.0128114 0.999925 
0.00235229 0.0148882 0.999895 
0.00232421 0.0185886 0.999831 
0.00257233 0.0325199 0.999475 
0.00465371 0.0435913 0.999044 
0.0085156 0.0637959 0.997932 
0.00607076 0.0573234 0.998345 
0.00952534 0.0624738 0.998004 
0.0250427 0.133568 0.990728 
0.0239806 0.135085 0.990543 
0.0208608 0.136803 0.990309 
-0.0159529 0.123378 -0.992139 
-0.0176433 0.119488 -0.992677 
-0.00566416 0.0699234 -0.997542 
-0.00877876 0.0660676 -0.997785 
-0.00867255 0.0642741 -0.997899 
-0.00264847 0.0436782 -0.999051 
-4.03498e-05 0.0303946 -0.99955 
-0.000926534 0.019061 -0.999826 
-0.00201398 0.0139712 -0.999911 
-0.00215053 0.0126116 -0.999927 
-0.00252407 0.0115541 -0.999939 
-0.0023635 0.0100329 -0.999956 
-0.00199598 0.00830174 -0.999972 
-0.00174642 0.00632405 -0.999988 
-0.00168008 0.00451567 -0.999997 
-0.00170738 0.00336121 -1 
-0.00176069 0.0026861 -1 
-0.00171827 0.00218984 -1.00001 
-0.00169129 0.00174342 -1.00001 
-0.00180492 0.00131518 -1.00001 
-0.00187877 0.00089773 -1 
-0.00187793 0.000528525 -1.00001 
-0.00183652 0.000195194 -1.00001 
-0.00181657 -0.000129356 -1.00001 
-0.00172103 -0.000421105 -1.00001 
-0.00162422 -0.000664014 -1.00001 
-0.00144943 -0.000868543 -1.00001 