# vtk DataFile Version 3.0 
Exported using Morpho https://github.com/Morpho-lang/morpho 
ASCII 
DATASET UNSTRUCTURED_GRID 

POINTS 1978 float 
-12 -4 -9.40769e-13 
-11.6607 -4 -7.60452e-12 
-11.3193 -4 1.51101e-12 
-10.9923 -4 -5.39939e-12 
-10.6843 -4 -1.99454e-12 
-10.3396 -4 3.75129e-12 
-10.0124 -4 -5.24071e-12 
-9.68522 -4 3.0795e-12 
-9.34314 -4 -5.64164e-13 
-9.01025 -4 -3.53776e-12 
-8.68693 -4 4.14123e-12 
-8.38254 -4 -4.5105e-12 
-8.0745 -4 -7.0731e-13 
-7.77088 -4 3.79744e-12 
-7.4824 -4 -8.2339e-13 
-7.18553 -4 3.37607e-12 
-6.88171 -4 -4.32745e-13 
-6.57923 -4 -2.08984e-13 
-6.27893 -4 -1.03996e-12 
-5.9763 -4 -3.43793e-13 
-5.67573 -4 3.79505e-12 
-5.38517 -4 1.29509e-12 
-5.10828 -4 1.1706e-12 
-4.82429 -4 -4.5552e-12 
-4.50892 -4 -1.26449e-12 
-4.22065 -4 1.3721e-12 
-3.94329 -4 2.28563e-13 
-3.63816 -4 9.16847e-12 
-3.3291 -4 4.99491e-12 
-3.06404 -4 1.66302e-11 
-2.82274 -4 -3.05643e-11 
-2.59952 -4 2.60831e-11 
-2.37139 -4 -7.65971e-12 
-2.16189 -4 2.69251e-11 
-1.95872 -4 3.71332e-11 
-1.74635 -4 4.07583e-11 
-1.51296 -4 -6.93607e-12 
-1.25093 -4 1.77746e-10 
-0.929382 -4 2.36406e-10 
-0.508329 -4 3.04747e-10 
0.528146 -4 -2.01189e-09 
1.18639 -4 8.77956e-10 
1.56851 -4 1.05837e-11 
1.78182 -4 9.77392e-13 
1.96272 -4 -8.71576e-11 
2.13246 -4 5.02511e-11 
2.33495 -4 -3.34779e-11 
2.54108 -4 2.63475e-12 
2.80728 -4 -7.96624e-12 
3.07586 -4 -7.07206e-12 
3.34053 -4 -1.19471e-11 
3.60596 -4 -4.70498e-12 
3.88022 -4 -4.82532e-13 
4.1906 -4 1.11263e-12 
4.49125 -4 1.90401e-12 
4.79345 -4 4.46081e-12 
5.09594 -4 -1.58478e-13 
5.39341 -4 -3.86723e-12 
5.68723 -4 3.50299e-13 
5.98578 -4 -1.81886e-12 
6.27713 -4 3.16458e-12 
6.57403 -4 -1.14791e-12 
6.86863 -4 -1.16306e-12 
7.17034 -4 -2.62314e-12 
7.46861 -4 -2.98132e-12 
7.7652 -4 2.2268e-12 
8.05994 -4 -2.96073e-12 
8.36438 -4 5.20374e-12 
8.67066 -4 -9.93163e-13 
8.95918 -4 3.8075e-12 
9.29494 -4 -1.2138e-12 
9.62597 -4 1.7698e-12 
9.93509 -4 2.59364e-13 
10.3107 -4 -2.96072e-12 
10.6357 -4 4.45778e-12 
11.0058 -4 1.59228e-12 
11.3354 -4 1.56686e-12 
11.6189 -4 8.21137e-12 
12 -4 -9.14552e-13 
-12 -3.68831 1.04071e-11 
-11.6543 -3.68391 -4.90902e-12 
-11.3507 -3.64129 -1.34486e-12 
-11.0389 -3.66504 -1.74585e-12 
-10.7164 -3.64338 -1.81824e-12 
-10.3967 -3.68208 -2.10166e-12 
-10.0581 -3.66604 -1.37247e-12 
-9.7319 -3.67122 -9.31491e-13 
-9.39875 -3.68814 -7.36073e-13 
-9.06022 -3.68626 -5.15162e-13 
-8.73523 -3.67921 -3.6621e-13 
-8.41143 -3.66527 -2.22155e-13 
-8.1032 -3.66966 -1.73111e-13 
-7.79053 -3.66438 -1.32786e-13 
-7.48498 -3.64841 -3.79198e-14 
-7.18852 -3.65769 2.66682e-14 
-6.8858 -3.6667 9.14949e-14 
-6.57489 -3.66357 1.81889e-13 
-6.26327 -3.67215 2.9684e-13 
-5.94872 -3.67724 4.0103e-13 
-5.64169 -3.67415 5.14404e-13 
-5.34385 -3.66599 7.18406e-13 
-5.04423 -3.67531 1.03639e-12 
-4.71811 -3.70758 1.42607e-12 
-4.39883 -3.68024 1.39542e-12 
-4.09778 -3.66593 1.41711e-12 
-3.78155 -3.6997 1.87128e-12 
-3.44806 -3.71324 2.41444e-12 
-3.13049 -3.67761 3.23705e-12 
-2.87153 -3.66226 4.12512e-12 
-2.64052 -3.6126 4.30789e-12 
-2.4278 -3.66166 6.8855e-12 
-2.19215 -3.66164 8.50596e-12 
-1.96384 -3.64376 9.75812e-12 
-1.71127 -3.673 1.1779e-11 
-1.41657 -3.65799 1.12809e-11 
-1.44011 -3.32218 5.24318e-12 
-1.04677 -3.59028 2.99877e-13 
-0.514989 -3.54245 -9.79707e-10 
0.445077 -3.49627 -6.56118e-10 
1.00112 -3.65298 -2.35196e-12 
1.43668 -3.73048 -3.18776e-12 
1.45675 -3.42583 -5.156e-13 
1.74699 -3.64932 -9.04263e-12 
1.85078 -3.39295 -7.67861e-12 
1.99286 -3.66739 -7.35321e-12 
2.23202 -3.70797 -6.62411e-12 
2.47225 -3.63779 -4.23274e-12 
2.73275 -3.71715 -4.7154e-12 
3.03064 -3.69362 -3.79939e-12 
3.32159 -3.67001 -2.5788e-12 
3.61027 -3.65893 -1.32644e-12 
3.92065 -3.70489 -1.74497e-12 
4.23064 -3.68671 -1.59698e-12 
4.53437 -3.67945 -1.42601e-12 
4.83912 -3.67595 -1.14064e-12 
5.14019 -3.67049 -8.5055e-13 
5.43821 -3.66758 -6.43775e-13 
5.73864 -3.67181 -5.13554e-13 
6.0325 -3.66071 -3.64623e-13 
6.32957 -3.66461 -2.57527e-13 
6.62596 -3.65954 -1.41111e-13 
6.92752 -3.66718 -6.92583e-14 
7.22993 -3.66392 -6.08626e-15 
7.53259 -3.6632 4.16639e-14 
7.83361 -3.66464 1.17476e-13 
8.13704 -3.67097 1.96208e-13 
8.44217 -3.66703 2.4252e-13 
8.73806 -3.6427 3.2892e-13 
9.05917 -3.69169 6.00037e-13 
9.38908 -3.68342 6.90374e-13 
9.70529 -3.65544 8.55327e-13 
10.0548 -3.71301 1.73361e-12 
10.3918 -3.66599 1.77667e-12 
10.7464 -3.70461 2.61656e-12 
11.082 -3.66811 1.61318e-12 
11.3766 -3.61669 9.10284e-13 
11.7141 -3.71637 5.31392e-12 
12 -3.62975 -1.15706e-11 
-12 -3.37494 6.15584e-12 
-11.6929 -3.33389 -4.52737e-12 
-11.3509 -3.31374 -4.77375e-13 
-11.0143 -3.31803 -1.10073e-12 
-10.6778 -3.31103 -1.98527e-12 
-10.3487 -3.35149 -1.77539e-12 
-10.0204 -3.3319 -1.54144e-12 
-9.70012 -3.33336 -1.09607e-12 
-9.38586 -3.37075 -6.52919e-13 
-9.06784 -3.36014 -5.33353e-13 
-8.76667 -3.33598 -4.45496e-13 
-8.46781 -3.34522 -2.7481e-13 
-8.15038 -3.334 -1.58706e-13 
-7.84548 -3.33628 -1.07964e-13 
-7.53754 -3.31279 -5.23942e-14 
-7.23289 -3.31164 7.36748e-15 
-6.93449 -3.32619 7.58846e-14 
-6.63509 -3.33616 1.57071e-13 
-6.32671 -3.34244 2.74733e-13 
-6.0241 -3.35609 3.96743e-13 
-5.71948 -3.35079 5.37228e-13 
-5.42336 -3.34118 7.44864e-13 
-5.12647 -3.34735 9.23665e-13 
-4.821 -3.39866 1.04489e-12 
-4.51328 -3.38345 1.28579e-12 
-4.20239 -3.34125 1.43106e-12 
-3.88688 -3.37674 1.2139e-12 
-3.57141 -3.41591 1.22937e-12 
-3.25917 -3.40237 2.06703e-12 
-2.96279 -3.33228 3.24456e-12 
-2.70543 -3.27293 4.39405e-12 
-2.4514 -3.2753 6.3939e-12 
-2.23393 -3.35007 8.86249e-12 
-1.99154 -3.29188 9.84599e-12 
-1.7524 -3.34809 1.06329e-11 
-1.65242 -3.00664 8.32973e-12 
-1.33903 -2.92852 5.9098e-12 
-1.0404 -3.18347 -6.31411e-12 
-0.480003 -3.09008 4.38849e-09 
-0.437337 -2.51942 4.28044e-09 
0.470986 -2.93528 -3.91785e-09 
1.05832 -3.23274 3.02589e-12 
1.3453 -3.01957 -3.90798e-12 
1.64126 -3.13526 -6.45659e-12 
1.90238 -3.07922 -7.23525e-12 
2.16419 -3.14229 -7.09239e-12 
2.15921 -3.41062 -1.15466e-11 
2.4436 -3.34058 -6.50034e-12 
2.72922 -3.40782 -4.64236e-12 
2.99957 -3.39914 -3.53575e-12 
3.28374 -3.36348 -2.50633e-12 
3.57867 -3.33597 -1.28463e-12 
3.88189 -3.39989 -1.08831e-12 
4.18852 -3.3759 -1.21164e-12 
4.49571 -3.35863 -1.26853e-12 
4.80143 -3.35311 -1.17402e-12 
5.10755 -3.3432 -9.21396e-13 
5.4095 -3.33826 -6.81574e-13 
5.70979 -3.34451 -5.03506e-13 
6.01015 -3.32589 -3.6839e-13 
6.30777 -3.32994 -2.66231e-13 
6.60705 -3.32314 -1.70696e-13 
6.90918 -3.33375 -8.85067e-14 
7.21404 -3.33314 -9.34186e-15 
7.52289 -3.33327 4.42734e-14 
7.83339 -3.3306 1.16184e-13 
8.13867 -3.3392 1.75522e-13 
8.44204 -3.32446 2.77303e-13 
8.75666 -3.31448 4.27547e-13 
9.07385 -3.3721 5.16095e-13 
9.39111 -3.35046 6.8234e-13 
9.70575 -3.31265 1.1132e-12 
10.017 -3.3978 1.34819e-12 
10.3222 -3.32429 1.90496e-12 
10.6509 -3.38531 1.71856e-12 
10.9816 -3.35048 1.08738e-12 
11.2976 -3.26669 4.33077e-13 
11.6354 -3.36975 3.05351e-12 
12 -3.33638 -4.29214e-12 
-12 -3.01782 7.58339e-12 
-11.6545 -3.01419 -2.28383e-12 
-11.3111 -2.98277 4.34728e-13 
-10.97 -2.99122 -3.75025e-13 
-10.6269 -2.98497 -1.3609e-12 
-10.3029 -3.01493 -1.30791e-12 
-9.97473 -2.99533 -1.07968e-12 
-9.6512 -3.00019 -7.46699e-13 
-9.34295 -3.03466 -4.8187e-13 
-9.04196 -3.01082 -3.63708e-13 
-8.73534 -2.99156 -2.94687e-13 
-8.42227 -3.01928 -1.90617e-13 
-8.11333 -2.99826 -8.56013e-14 
-7.80663 -3.00135 -4.1846e-14 
-7.49519 -2.97837 -1.84583e-14 
-7.18866 -2.97655 1.06371e-14 
-6.88572 -2.99256 5.61e-14 
-6.57877 -3.01279 1.1738e-13 
-6.27676 -3.01428 1.63402e-13 
-5.97568 -3.03158 2.37994e-13 
-5.68127 -3.01903 2.97794e-13 
-5.38842 -3.01445 3.60608e-13 
-5.09565 -3.01632 4.18163e-13 
-4.80854 -3.0813 6.70671e-13 
-4.50406 -3.06218 7.63445e-13 
-4.18927 -3.02311 6.23444e-13 
-3.87015 -3.061 7.16678e-13 
-3.55082 -3.10372 8.70512e-13 
-3.24003 -3.08907 1.06242e-12 
-2.94314 -3.00674 1.47814e-12 
-2.65081 -2.94403 2.19794e-12 
-2.39517 -2.92705 4.56634e-12 
-2.16429 -3.02008 4.45861e-12 
-1.90274 -2.93638 4.90089e-12 
-1.79313 -2.59744 1.64071e-12 
-1.53523 -2.62024 5.06408e-12 
-1.26398 -2.43648 3.16593e-12 
-0.977805 -2.67272 -5.23026e-12 
-0.383655 -1.89791 1.09684e-08 
0.39796 -1.59739 -1.02527e-08 
0.432195 -2.25922 -7.7954e-09 
0.922645 -2.09749 -1.89941e-12 
0.971211 -2.68491 1.84013e-12 
1.34139 -2.62431 -2.59886e-12 
1.62646 -2.75262 -4.76351e-12 
1.86611 -2.72945 -5.37406e-12 
2.12452 -2.82373 -4.41625e-12 
2.39837 -2.99733 -4.10925e-12 
2.67116 -3.11135 -4.48712e-12 
2.96375 -3.08788 -2.51159e-12 
3.22202 -3.02437 -1.1176e-12 
3.50335 -3.03273 -2.27173e-13 
3.83881 -3.08551 -2.9947e-13 
4.15463 -3.06265 -5.14012e-13 
4.4682 -3.03894 -6.98137e-13 
4.77972 -3.03004 -6.86402e-13 
5.09015 -3.02081 -5.27902e-13 
5.39987 -3.01191 -3.45964e-13 
5.70217 -3.01698 -2.4505e-13 
6.00287 -2.99863 -1.90327e-13 
6.30414 -2.99662 -1.4742e-13 
6.60728 -2.99377 -9.74807e-14 
6.91173 -3.00115 -4.05748e-14 
7.21866 -3.00467 5.34784e-15 
7.52877 -3.00743 1.54111e-14 
7.83766 -2.99742 3.22699e-14 
8.1418 -3.0052 8.20657e-14 
8.44088 -2.97849 1.60551e-13 
8.7395 -2.98269 2.77187e-13 
9.05685 -3.03989 4.18833e-13 
9.37062 -3.01577 5.0067e-13 
9.68401 -2.97653 7.23535e-13 
10.0127 -3.04637 1.22375e-12 
10.3406 -2.98765 1.36834e-12 
10.662 -3.05352 1.59651e-12 
10.9826 -3.00462 5.42078e-13 
11.3333 -2.94967 -5.83766e-13 
11.6649 -3.06167 2.50941e-12 
12 -3.01347 -7.00491e-12 
-12 -2.69708 9.08285e-12 
-11.657 -2.6941 -1.18562e-12 
-11.3361 -2.63876 1.61569e-12 
-11.0048 -2.66525 1.10181e-12 
-10.6644 -2.66483 -3.99098e-14 
-10.3177 -2.67398 -3.18304e-13 
-9.99542 -2.66533 -3.40486e-13 
-9.66571 -2.66806 -2.26571e-13 
-9.34358 -2.68565 -1.22604e-13 
-9.02935 -2.67317 -1.29815e-13 
-8.708 -2.66558 -1.075e-13 
-8.39731 -2.68616 -5.27034e-14 
-8.08452 -2.66585 6.21715e-15 
-7.77033 -2.67313 1.13807e-14 
-7.45401 -2.64951 4.13431e-15 
-7.14386 -2.64942 1.25154e-15 
-6.83524 -2.67187 1.24809e-14 
-6.53598 -2.68448 1.87983e-14 
-6.23213 -2.69122 1.27287e-14 
-5.9396 -2.69982 3.73596e-14 
-5.65116 -2.68557 5.64584e-14 
[...]
POINT_DATA 1978 
VECTORS vectors float
0.00103759 0.000855452 0.999999 
0.0015699 -0.0147017 0.999891 
0.000814025 -0.0151132 0.999885 
0.000797558 -0.0115051 0.999933 
0.000821098 -0.00816319 0.999966 
0.000827235 -0.00550572 0.999984 
0.000805619 -0.0038086 0.999992 
0.000784805 -0.00267944 0.999996 
0.000778835 -0.00190213 0.999998 
0.000846102 -0.00142243 0.999999 
0.000948507 -0.00109946 0.999999 
0.00101393 -0.000864972 0.999999 
0.00104931 -0.000621582 0.999999 
0.0010661 -0.000393561 0.999999 
0.00107894 -0.000174481 0.999999 
0.0010875 5.23371e-05 0.999999 
0.00106784 0.000276211 0.999999 
0.00104181 0.000523716 0.999999 
0.00102652 0.000827356 0.999999 
0.00102862 0.00125377 0.999999 
0.00105892 0.00175922 0.999998 
0.00106417 0.0023746 0.999997 
0.0010271 0.00316915 0.999994 
0.00100332 0.00414847 0.999991 
0.000989031 0.00552056 0.999984 
0.000976705 0.00693182 0.999975 
0.000979814 0.00847963 0.999964 
0.00101332 0.0103622 0.999946 
0.00104668 0.0121369 0.999926 
0.00104244 0.0133171 0.999911 
0.00100641 0.0143242 0.999897 
0.00094611 0.0155401 0.999879 
0.000947932 0.0160039 0.999871 
0.000959236 0.014463 0.999895 
0.000940548 0.0128831 0.999917 
0.000919161 0.013378 0.99991 
0.000826108 0.0192403 0.999815 
0.000712775 0.032612 0.999468 
0.000327166 0.0577034 0.998334 
0.000396597 0.097245 0.99526 
-0.000416039 0.107015 -0.994257 
-0.00094068 0.0449576 -0.998988 
-0.000931426 0.0145546 -0.999894 
-0.000761913 0.00631288 -0.99998 
-0.000903402 0.00362468 -0.999993 
-0.00107082 0.00561413 -0.999984 
-0.00117363 0.0105691 -0.999943 
-0.00119136 0.0158396 -0.999874 
-0.00114617 0.0159468 -0.999872 
-0.00109164 0.0134357 -0.999909 
-0.00107406 0.0118974 -0.999929 
-0.00102248 0.0105631 -0.999944 
-0.000987107 0.00890354 -0.99996 
-0.00096271 0.0069578 -0.999975 
-0.000986278 0.00534953 -0.999985 
-0.00102305 0.00407156 -0.999991 
-0.00104684 0.00307038 -0.999995 
-0.00106014 0.00227058 -0.999997 
-0.00107783 0.00165538 -0.999998 
-0.00108183 0.00117818 -0.999999 
-0.00108779 0.000841582 -0.999999 
-0.00108069 0.000567873 -0.999999 
-0.00107786 0.000305836 -0.999999 
-0.00107648 6.00205e-05 -0.999999 
-0.00108159 -0.000195628 -0.999999 
-0.00107651 -0.000433423 -0.999999 
-0.0010712 -0.000650751 -0.999999 
-0.00107175 -0.000831315 -0.999999 
-0.0010179 -0.00106833 -0.999999 
-0.000958343 -0.00136375 -0.999999 
-0.000895319 -0.00179164 -0.999998 
-0.000803334 -0.00256369 -0.999996 
-0.000688815 -0.00352976 -0.999994 
-0.000586963 -0.00530263 -0.999986 
-0.00057896 -0.00768988 -0.99997 
-0.000652551 -0.0117009 -0.999931 
-0.000770257 -0.0154714 -0.99988 
-0.00165319 -0.0147472 -0.99989 
-0.0011634 0.00078331 -0.999999 
-1.2824e-05 -0.000309414 1 
0.00513651 -0.011247 0.999924 
0.00572611 -0.0133493 0.999895 
0.00574637 -0.0119295 0.999912 
0.0062936 -0.00898008 0.99994 
0.00636023 -0.00629697 0.99996 
0.0066836 -0.00428465 0.999968 
0.00680844 -0.00299806 0.999972 
0.00689217 -0.00213192 0.999974 
0.00695209 -0.00150827 0.999975 
0.00700393 -0.001106 0.999975 
0.00726001 -0.000843642 0.999973 
0.00727709 -0.00061716 0.999973 
0.00738969 -0.000390365 0.999973 
0.00758566 -0.000179194 0.999971 
0.00749939 3.46393e-05 0.999972 
0.00734966 0.000263933 0.999973 
0.00736766 0.000525738 0.999973 
0.00731229 0.000856637 0.999973 
0.00731869 0.00130774 0.999972 
0.00736954 0.0018547 0.999971 
0.00744519 0.00249444 0.999969 
0.00730329 0.00333188 0.999968 
0.00685296 0.00452249 0.999966 
0.00696593 0.00592138 0.999958 
0.00689273 0.00733087 0.999949 
0.00648337 0.00885121 0.99994 
0.00667389 0.0102536 0.999925 
0.00822383 0.0113431 0.999902 
0.0098749 0.0125697 0.999872 
0.0120161 0.0132928 0.999839 
0.0119485 0.0141045 0.999829 
0.0120425 0.0141964 0.999827 
0.0112974 0.014991 0.999824 
0.00939643 0.0182449 0.999789 
0.00720995 0.0281407 0.999578 
0.00932212 0.0318353 0.99945 
0.00447732 0.0504214 0.998718 
0.00284057 0.0971134 0.995269 
-0.00296356 0.110099 -0.993916 
-0.00405968 0.0632797 -0.997988 
-0.00463336 0.031617 -0.999489 
-0.00831015 0.0322609 -0.999445 
-0.00864031 0.0159526 -0.999835 
-0.013279 0.0175346 -0.999758 
-0.0113561 0.0117488 -0.999867 
-0.0113999 0.010712 -0.999878 
-0.0121664 0.0117913 -0.999856 
-0.0100462 0.0130125 -0.999865 
-0.00910976 0.0117188 -0.99989 
-0.00809912 0.0104831 -0.999912 
-0.00728703 0.00953249 -0.999928 
-0.00651838 0.00827259 -0.999945 
-0.0068011 0.00667079 -0.999955 
-0.00695967 0.00512544 -0.999963 
-0.00711024 0.0038724 -0.999967 
-0.00726142 0.00291477 -0.999969 
-0.00739525 0.00217695 -0.99997 
-0.0074431 0.00159094 -0.999971 
-0.00758666 0.00114567 -0.999971 
-0.00756575 0.000799316 -0.999971 
-0.00759142 0.000516838 -0.999971 
-0.00752737 0.000254587 -0.999972 
-0.00755922 2.04818e-06 -0.999971 
-0.0075675 -0.000242693 -0.999971 
-0.00753285 -0.000457865 -0.999972 
-0.00741022 -0.000659114 -0.999972 
-0.00733568 -0.00086585 -0.999973 
-0.00752547 -0.00110672 -0.999971 
-0.00704254 -0.00149258 -0.999974 
-0.00692325 -0.00210059 -0.999974 
-0.00696046 -0.00293144 -0.999971 
-0.00633909 -0.00421826 -0.999971 
-0.00642303 -0.00625056 -0.99996 
-0.00580191 -0.00916233 -0.999941 
-0.00568048 -0.0122844 -0.999908 
-0.00573314 -0.0131699 -0.999897 
-0.00488695 -0.0103555 -0.999934 
7.5458e-05 -0.000463203 -1 
-0.000370757 -0.00140888 0.999999 
0.00569836 -0.00914142 0.999942 
0.00711117 -0.0130409 0.99989 
0.00779633 -0.0120965 0.999896 
0.00854824 -0.00929769 0.99992 
0.00888626 -0.00646158 0.99994 
0.0093742 -0.00444515 0.999946 
0.00971543 -0.00313431 0.999948 
0.0096829 -0.00222487 0.999951 
0.00988593 -0.00157329 0.99995 
0.010125 -0.00114429 0.999948 
0.0100761 -0.000865912 0.999949 
0.010096 -0.000646636 0.999949 
0.0101224 -0.000438054 0.999949 
0.0102372 -0.000225007 0.999948 
0.0102576 -2.17926e-06 0.999947 
0.0102213 0.000230576 0.999948 
0.0101903 0.000489638 0.999948 
0.0101935 0.000807342 0.999948 
0.0101598 0.00120258 0.999948 
0.010193 0.00171013 0.999947 
0.0102507 0.00232743 0.999945 
0.0100953 0.00309776 0.999944 
0.00980242 0.00411207 0.999944 
0.00963617 0.00529374 0.99994 
0.00946438 0.00657107 0.999934 
0.00905375 0.00785629 0.999928 
0.00891039 0.00882743 0.999921 
0.00973628 0.00942852 0.999908 
0.0117591 0.0101697 0.999879 
0.013971 0.0112162 0.99984 
0.0156364 0.0126551 0.999798 
0.0159863 0.0141214 0.999772 
0.0150685 0.0165991 0.999749 
0.0129911 0.0208037 0.999699 
0.0112748 0.0263642 0.999589 
0.00798768 0.0396036 0.999184 
0.00517133 0.0541711 0.998518 
0.00211956 0.100047 0.99498 
0.00271065 0.10243 0.994736 
-0.00337498 0.107365 -0.994214 
-0.0060724 0.0592736 -0.998223 
-0.00868493 0.04198 -0.999081 
-0.0115682 0.0270246 -0.999568 
-0.0140123 0.0187925 -0.999725 
-0.0160936 0.0130361 -0.999786 
-0.0163148 0.0119781 -0.999795 
-0.0161651 0.0104099 -0.999815 
-0.01436 0.0101591 -0.999845 
-0.0126858 0.0096076 -0.999873 
-0.0109467 0.00907091 -0.999899 
-0.00978364 0.00879532 -0.999913 
-0.00912258 0.00816683 -0.999925 
-0.00925962 0.00684781 -0.999934 
-0.00948559 0.00533114 -0.999941 
-0.00970338 0.00401008 -0.999945 
-0.00990311 0.00300282 -0.999946 
-0.0100697 0.00226009 -0.999947 
-0.0102019 0.00168401 -0.999947 
-0.0102702 0.00120966 -0.999947 
-0.0103581 0.000841148 -0.999946 
-0.0103218 0.000530799 -0.999947 
-0.010348 0.000265082 -0.999946 
-0.0103122 1.43954e-05 -0.999947 
-0.010273 -0.000229577 -0.999947 
-0.0101979 -0.000445441 -0.999948 
-0.0101119 -0.000641217 -0.999949 
-0.0101044 -0.000843262 -0.999949 
-0.0101628 -0.00113083 -0.999948 
-0.00984343 -0.0015732 -0.99995 
-0.00980801 -0.00225124 -0.999949 
-0.00975481 -0.00316811 -0.999947 
-0.00911091 -0.00436705 -0.999949 
-0.00909478 -0.00632678 -0.999939 
-0.00834738 -0.00893605 -0.999925 
-0.00782358 -0.0119565 -0.999898 
-0.00728539 -0.0132137 -0.999886 
-0.00598037 -0.0101346 -0.999931 
0.000181371 -0.000931738 -1 
-0.000286206 -0.00181979 0.999998 
0.00525198 -0.00972715 0.999939 
0.00666143 -0.0135825 0.999886 
0.00755037 -0.0125666 0.999893 
0.00822901 -0.00942471 0.999922 
0.00879444 -0.00663509 0.999939 
0.00906986 -0.00452845 0.999949 
0.00934405 -0.00313697 0.999951 
0.00960385 -0.00223256 0.999951 
0.00948432 -0.00155704 0.999954 
0.00938299 -0.00108363 0.999955 
0.00952601 -0.000806925 0.999954 
0.00939908 -0.000617412 0.999956 
0.00942316 -0.00042582 0.999956 
0.00932287 -0.000209085 0.999957 
0.00933905 2.30522e-05 0.999956 
0.00946139 0.000270656 0.999955 
0.00960838 0.000555568 0.999954 
0.00959977 0.000893027 0.999954 
0.00964035 0.00129857 0.999953 
0.00952629 0.00179405 0.999953 
0.00947099 0.00241499 0.999952 
0.00939539 0.00317448 0.999951 
0.00960129 0.00406999 0.999946 
0.0093289 0.00515638 0.999943 
0.00887922 0.00634771 0.99994 
0.00868979 0.00737733 0.999935 
0.00869001 0.00801964 0.99993 
0.0092673 0.00850782 0.999921 
0.0104198 0.00929247 0.999903 
0.0120777 0.0108835 0.999868 
0.0135216 0.0129836 0.999824 
0.0141402 0.0154058 0.999781 
0.0124157 0.0200728 0.999721 
0.00883145 0.0243104 0.999665 
0.00771324 0.0325441 0.999441 
0.00508282 0.0460927 0.998924 
0.00455855 0.0611994 0.998115 
0.00155104 0.103874 0.994589 
-0.00554155 0.100632 -0.994908 
-0.00441197 0.105529 -0.994406 
-0.0045413 0.0653409 -0.997853 
-0.00561834 0.0645753 -0.997897 
-0.00747704 0.0431264 -0.999042 
-0.00990774 0.0294932 -0.999516 
-0.0111793 0.0207656 -0.999722 
-0.0129329 0.0140511 -0.999818 
-0.0144652 0.0099122 -0.999846 
-0.0145223 0.00853711 -0.999858 
-0.0122662 0.007971 -0.999893 
-0.0102305 0.0078914 -0.999917 
-0.00905762 0.00820188 -0.999925 
-0.00882245 0.00800091 -0.999929 
-0.00878755 0.00687673 -0.999938 
-0.00892047 0.00540865 -0.999946 
-0.00906698 0.00405317 -0.999951 
-0.0091743 0.00302475 -0.999953 
-0.00926178 0.0022767 -0.999955 
-0.00938592 0.00169985 -0.999955 
-0.00944548 0.00123654 -0.999955 
-0.00946124 0.000844946 -0.999955 
-0.00953132 0.000531542 -0.999954 
-0.00952753 0.000259693 -0.999955 
-0.00956518 7.21285e-06 -0.999954 
-0.00954752 -0.000241421 -0.999954 
-0.00947939 -0.000462835 -0.999955 
-0.00936761 -0.000641778 -0.999956 
-0.0092544 -0.000826057 -0.999957 
-0.00927499 -0.00108275 -0.999956 
-0.00960544 -0.00156444 -0.999953 
-0.00948226 -0.00229387 -0.999952 
-0.00920437 -0.00328541 -0.999952 
-0.00926218 -0.0047108 -0.999946 
-0.00873407 -0.00696238 -0.999938 
-0.00847415 -0.00964655 -0.999918 
-0.00764208 -0.0126262 -0.999891 
-0.00651223 -0.0136752 -0.999885 
-0.00532151 -0.00957551 -0.99994 
0.000212943 -0.00112914 -0.999999 
-0.00016496 -0.0026214 0.999997 
0.00394967 -0.0101535 0.999941 
0.0049287 -0.0143068 0.999886 
0.00573022 -0.0134994 0.999892 
0.00628069 -0.0102897 0.999927 
0.00670751 -0.00711681 0.999952 
0.00689177 -0.00487108 0.999964 
0.0070455 -0.00330965 0.99997 
0.00716876 -0.00226666 0.999972 
0.00707858 -0.00152744 0.999974 
0.00697547 -0.00103842 0.999975 
0.00711586 -0.000787323 0.999974 
0.00698131 -0.000620698 0.999975 
0.00708919 -0.00043136 0.999975 
0.00695317 -0.000204546 0.999976 
0.00698999 4.58076e-05 0.999976 
0.00715561 0.000314645 0.999974 
0.00722978 0.000611452 0.999974 
0.00722435 0.000965211 0.999973 
0.00724572 0.0013656 0.999973 
0.00711039 0.00184825 0.999973 
0.00707575 0.00245406 0.999972 
0.00711448 0.00321133 0.99997 
0.00735945 0.00406345 0.999965 
0.00705382 0.00507917 0.999962 
0.00661809 0.00626255 0.999959 
0.0065996 0.00718217 0.999952 
0.0066749 0.00770534 0.999948 
0.00705308 0.00833519 0.99994 
0.00807034 0.00962562 0.999921 
0.00909475 0.0116823 0.99989 
0.010139 0.0144085 0.999845 
0.0108935 0.0174267 0.999789 
0.00811855 0.020598 0.999755 
0.00514387 0.0320265 0.999474 
0.00337761 0.0463777 0.998918 
0.00256279 0.0693787 0.997587 
0.00374779 0.073357 0.997299 
0.00331083 0.105184 0.994447 
0.00769109 0.109916 0.993911 
-0.00818196 0.0986529 -0.995088 
-0.00439213 0.0625609 -0.998031 
-0.00517226 0.0463059 -0.998914 
-0.0062242 0.0343085 -0.999392 
-0.00711252 0.0255668 -0.999648 
-0.00845342 0.01833 -0.999796 
-0.0097511 0.0125426 -0.999874 
-0.011058 0.00903292 -0.999898 
-0.0114812 0.00761511 -0.999905 
-0.00899079 0.00727809 -0.999933 
-0.00725337 0.00757484 -0.999945 
-0.00682023 0.00800589 -0.999945 
-0.00672495 0.00768687 -0.999948 
-0.00662173 0.00654188 -0.999957 
-0.00669702 0.00509973 -0.999965 
-0.00683123 0.00382365 -0.999969 
-0.00692498 0.00286919 -0.999972 
-0.00694025 0.00218495 -0.999974 
-0.00706699 0.00164887 -0.999974 
-0.00704 0.00120062 -0.999975 
-0.00710466 0.000821579 -0.999974 
-0.00713896 0.00050711 -0.999974 
-0.00718141 0.000234162 -0.999974 
-0.00718865 -2.59063e-05 -0.999974 
-0.00719941 -0.000278275 -0.999974 
-0.00699467 -0.00048872 -0.999975 
-0.00697395 -0.000662426 -0.999975 
-0.00670998 -0.000824054 -0.999977 
-0.00672402 -0.00106716 -0.999977 
-0.007313 -0.00152329 -0.999972 
-0.00712586 -0.00226642 -0.999972 
-0.00685654 -0.00332694 -0.999971 
-0.00722492 -0.0048336 -0.999962 
-0.00666966 -0.00721776 -0.999952 
-0.00656832 -0.0102791 -0.999926 
-0.00582155 -0.0134863 -0.999892 
-0.00475387 -0.0141667 -0.999888 
-0.00396936 -0.00965549 -0.999946 
0.000115563 -0.00133264 -0.999999 
-0.000140952 -0.00253301 0.999997 
0.00239864 -0.0090773 0.999956 
0.0032377 -0.0140694 0.999896 
0.00388899 -0.0144745 0.999888 
0.00433372 -0.0116295 0.999923 
0.00469484 -0.00829182 0.999955 
0.0047101 -0.00563731 0.999973 
0.00483346 -0.00380728 0.999981 
0.00484704 -0.00257209 0.999985 
0.00476464 -0.00171712 0.999987 
0.00470469 -0.00115403 0.999988 
0.00468307 -0.000866733 0.999989 
0.00466177 -0.000718097 0.999989 
0.00472869 -0.000551967 0.999989 
0.00474389 -0.000341006 0.999989 
0.0047148 -8.5995e-05 0.999989 
0.0048334 0.000187484 0.999988 
0.00486671 0.000473789 0.999988 
0.00494998 0.000795146 0.999987 
0.0048984 0.00116641 0.999987 
0.00481284 0.00158373 0.999987 
0.00476085 0.00209543 0.999986 
0.00483038 0.0027008 0.999985 
0.0049084 0.00340682 0.999982 
0.00496651 0.00419294 0.999979 
0.0048586 0.00526478 0.999974 
0.00461278 0.0064773 0.999968 
0.00450334 0.00732296 0.999963 
0.0046123 0.00804394 0.999957 
0.00503515 0.0091174 0.999946 
0.00549883 0.0106413 0.999928 
0.00614821 0.0126839 0.999901 
0.00738548 0.0160438 0.999844 
0.0060141 0.0229948 0.999718 
0.00413288 0.0279911 0.9996 
0.00347172 0.0369987 0.999309 
0.00310817 0.0576102 0.998334 
0.00449781 0.0578858 0.998313 
0.00671008 0.076589 0.99704 
0.0138379 0.105645 0.994308 
-0.00977302 0.108527 -0.994045 
-0.00615185 0.0642902 -0.997912 
-0.00290989 0.0453256 -0.998968 
-0.00264918 0.0338285 -0.999424 
-0.00346275 0.0272563 -0.999622 
-0.00507765 0.0200108 -0.999787 
-0.00657947 0.0141349 -0.999878 
-0.00700163 0.0101137 -0.999924 
-0.00808632 0.00803795 -0.999935 
-0.00608958 0.00813701 -0.999948 
-0.00506591 0.00826181 -0.999953 
-0.00489386 0.00814321 -0.999955 
-0.00472665 0.00769855 -0.999959 
-0.00455181 0.00652012 -0.999968 
-0.00454472 0.00506776 -0.999977 
-0.00462975 0.00381268 -0.999982 
-0.00471201 0.00287842 -0.999985 
-0.00465202 0.00219308 -0.999987 
-0.00473733 0.00168475 -0.999987 
-0.00474534 0.00125743 -0.999988 
-0.00482191 0.000874876 -0.999988 
-0.00485697 0.000542942 -0.999988 
-0.00487207 0.000247969 -0.999988 
-0.00487321 -2.72769e-05 -0.999988 
-0.00489564 -0.000282781 -0.999988 
-0.00459463 -0.000507012 -0.999989 
-0.00452442 -0.000683802 -0.99999 
-0.00435017 -0.000841718 -0.99999 
-0.00430477 -0.0010571 -0.99999 
-0.00482509 -0.00152006 -0.999987 
-0.00482295 -0.00232202 -0.999986 
-0.00465323 -0.00343643 -0.999983 
-0.00509578 -0.00502358 -0.999974 
-0.00469788 -0.00759869 -0.99996 
-0.00469626 -0.0107858 -0.999931 
-0.00411656 -0.0140395 -0.999893 
-0.0033185 -0.0147341 -0.999886 
-0.00279741 -0.0101324 -0.999945 
6.22329e-05 -0.00141318 -0.999999 
-0.000108687 -0.00186016 0.999998 
0.00168817 -0.0102528 0.999946 
0.00237991 -0.0152002 0.999882 
0.00268273 -0.0140462 0.999898 
0.00296293 -0.0106066 0.999939 
0.00307958 -0.00744112 0.999968 
0.00305261 -0.00491818 0.999983 
0.00304367 -0.00328173 0.99999 
0.0029076 -0.00218747 0.999993 
0.00286115 -0.00144053 0.999995 
0.00285825 -0.00102876 0.999995 
0.00275216 -0.000859286 0.999996 
0.00285786 -0.000723862 0.999996 
0.00288995 -0.000542589 0.999996 
0.00298653 -0.000300365 0.999996 
0.00300046 -1.88314e-05 0.999996 
0.00302588 0.000273666 0.999995 
0.00310253 0.00059259 0.999995 
0.00316673 0.00094239 0.999995 
0.00303945 0.00133688 0.999994 
0.00302132 0.00179864 0.999994 
0.00303522 0.00232673 0.999993 
0.00312104 0.00290921 0.999991 
0.00304639 0.0035654 0.999989 
0.00318115 0.00447708 0.999985 
0.00320863 0.00572379 0.999978 
0.00299649 0.00700093 0.999971 
0.00303862 0.0083008 0.999961 
0.00321521 0.00972995 0.999947 
0.00343535 0.0114841 0.999928 
0.00433558 0.0140397 0.999892 
0.00471044 0.0185143 0.999818 
0.00308206 0.0249384 0.999684 
0.00301609 0.0340957 0.999414 
0.00368962 0.0432513 0.999057 
0.00336534 0.0456 0.998954 
0.0111691 0.0819024 0.996578 
0.011823 0.0728661 0.997272 
0.014765 0.0921236 0.995638 
0.015454 0.121476 0.992474 
-0.00853517 0.0824171 -0.996561 
-0.00751976 0.0800757 -0.99676 
-0.00854136 0.0812138 -0.99666 
-0.00260353 0.0422298 -0.999105 
-0.00138257 0.0309503 -0.99952 
-0.00104659 0.02356 -0.999722 
-0.00246454 0.0195163 -0.999807 
-0.00380646 0.013998 -0.999895 
-0.00460809 0.0102073 -0.999937 
-0.00365525 0.00993868 -0.999944 
-0.00343352 0.00936662 -0.99995 
-0.00334143 0.0085751 -0.999958 
-0.00310574 0.00750805 -0.999967 
-0.00289495 0.00598278 -0.999978 
-0.00286426 0.00448371 -0.999986 
-0.00291496 0.00336807 -0.99999 
-0.00296073 0.00260198 -0.999992 
-0.00289411 0.00205529 -0.999994 
-0.00293525 0.00161673 -0.999994 
-0.00301295 0.00119668 -0.999995 
-0.00307953 0.000810865 -0.999995 
-0.00308445 0.000472871 -0.999995 
-0.00305575 0.000169123 -0.999995 
-0.00305193 -0.000118258 -0.999995 
-0.00300007 -0.000371056 -0.999995 
-0.00278309 -0.000601787 -0.999996 
-0.00267077 -0.00077034 -0.999996 
-0.00249251 -0.000906887 -0.999996 
-0.00252688 -0.00111066 -0.999996 
-0.00291267 -0.00156005 -0.999995 
-0.00292656 -0.00234793 -0.999993 
-0.00297171 -0.00360909 -0.999989 
-0.00334168 -0.00540567 -0.99998 
-0.00306254 -0.00813298 -0.999962 
-0.00313076 -0.0113515 -0.999931 
-0.00270391 -0.0144653 -0.999892 
-0.0022104 -0.0150613 -0.999884 
-0.00190418 -0.0103527 -0.999945 
5.67275e-05 -0.00148462 -0.999999 
-9.93825e-05 -0.00130131 0.999999 
0.00103407 -0.0100315 0.999949 
0.00158063 -0.0151968 0.999883 
0.00174546 -0.0145667 0.999892 
0.00188214 -0.0111774 0.999936 
0.00192254 -0.00785786 0.999967 
0.0019028 -0.00523339 0.999985 
0.00181438 -0.00342962 0.999992 
0.00166061 -0.00223497 0.999996 
0.00159491 -0.00148221 0.999998 
0.001605 -0.0011047 0.999998 
0.00152112 -0.000955605 0.999998 
0.00161671 -0.00083711 0.999998 
0.00167903 -0.000661417 0.999998 
0.00178761 -0.000413528 0.999998 
0.00185257 -0.000118092 0.999998 
0.00180377 0.00021156 0.999998 
0.00187803 0.000543013 0.999998 
0.00193783 0.000898885 0.999998 
0.00184133 0.00128187 0.999997 
0.00184652 0.00172423 0.999997 
0.0018782 0.00220867 0.999996 
0.00194461 0.00273058 0.999994 
0.00188953 0.00331151 0.999993 
0.0019379 0.0041591 0.999989 
0.00205083 0.00534492 0.999984 
0.00198419 0.00677884 0.999975 
0.00207053 0.00861873 0.999961 
0.00210567 0.0105477 0.999942 
0.00226246 0.012589 0.999918 
0.002457 0.0150759 0.999883 
0.00243562 0.0189715 0.999817 
0.00266263 0.0322069 0.999478 
0.00435995 0.0425556 0.999085 
0.00858736 0.064827 0.99786 
0.00600017 0.0569366 0.99836 
0.00961886 0.0622608 0.998014 
0.0239051 0.132266 0.990926 
0.0226706 0.134893 0.990601 
0.0192639 0.135816 0.990547 
-0.0147472 0.119237 -0.992756 
-0.0171861 0.119553 -0.992679 
-0.00587294 0.0698189 -0.997542 
-0.00776607 0.0687393 -0.997604 
-0.00742835 0.0643078 -0.997902 
-0.00269848 0.0434085 -0.999054 
-0.000489719 0.0303164 -0.99954 
-0.00109979 0.0188792 -0.999821 
-0.00221576 0.0141111 -0.999898 
-0.00229552 0.0125662 -0.999918 
-0.0024849 0.0112729 -0.999933 
-0.00235109 0.00974894 -0.99995 
-0.00205202 0.00812102 -0.999965 
-0.00181408 0.00626506 -0.999979 
-0.00172804 0.00454034 -0.999988 