# vtk DataFile Version 3.0 
Exported using Morpho https://github.com/Morpho-lang/morpho 
ASCII 
DATASET UNSTRUCTURED_GRID 

POINTS 1978 float 
-8.48528 -2.82843 -3.52657e-13 
-8.26439 -2.82843 1.4653e-12 
-8.04137 -2.82843 2.10205e-12 
-7.77716 -2.82843 1.49029e-12 
-7.50607 -2.82843 8.92068e-13 
-7.25818 -2.82843 7.55385e-13 
-7.00671 -2.82843 7.56806e-13 
-6.79883 -2.82843 8.65372e-13 
-6.56468 -2.82843 9.74107e-13 
-6.36004 -2.82843 8.8357e-13 
-6.1528 -2.82843 8.8829e-13 
-5.90994 -2.82843 7.97009e-13 
-5.70898 -2.82843 6.18481e-13 
-5.50623 -2.82843 5.43565e-13 
-5.27696 -2.82843 4.02838e-13 
-5.07625 -2.82843 2.12462e-13 
-4.86257 -2.82843 3.74855e-14 
-4.66145 -2.82843 -1.96197e-13 
-4.45143 -2.82843 -4.65386e-13 
-4.24384 -2.82843 -7.66047e-13 
-4.03571 -2.82843 -1.05973e-12 
-3.83807 -2.82843 -1.40348e-12 
-3.62848 -2.82843 -1.81062e-12 
-3.41492 -2.82843 -2.25435e-12 
-3.19347 -2.82843 -2.71193e-12 
-2.96725 -2.82843 -3.18809e-12 
-2.73085 -2.82843 -3.67611e-12 
-2.48834 -2.82843 -3.97996e-12 
-2.25555 -2.82843 -4.19971e-12 
-2.02554 -2.82843 -4.34241e-12 
-1.80431 -2.82843 -3.98789e-12 
-1.60835 -2.82843 -3.15328e-12 
-1.43534 -2.82843 -2.74845e-12 
-1.25038 -2.82843 -1.50899e-12 
-1.09326 -2.82843 -1.15264e-12 
-0.933443 -2.82843 3.70606e-12 
-0.759143 -2.82843 9.03048e-12 
-0.540889 -2.82843 2.81454e-11 
-0.346638 -2.82843 1.03091e-11 
0.132316 -2.82843 2.55785e-11 
0.395036 -2.82843 -6.21586e-11 
0.691652 -2.82843 -1.2495e-11 
0.821335 -2.82843 -8.91452e-12 
0.97871 -2.82843 -1.56999e-12 
1.09301 -2.82843 1.44935e-12 
1.22878 -2.82843 1.22585e-12 
1.42076 -2.82843 3.31022e-12 
1.62286 -2.82843 3.85254e-12 
1.82076 -2.82843 4.13247e-12 
2.05032 -2.82843 4.50358e-12 
2.28771 -2.82843 4.0872e-12 
2.50584 -2.82843 3.89215e-12 
2.72675 -2.82843 3.5522e-12 
2.94964 -2.82843 3.31178e-12 
3.18844 -2.82843 2.79334e-12 
3.40972 -2.82843 2.31717e-12 
3.63339 -2.82843 1.76616e-12 
3.83399 -2.82843 1.42604e-12 
4.0511 -2.82843 1.10827e-12 
4.26409 -2.82843 7.1656e-13 
4.4636 -2.82843 4.10214e-13 
4.6677 -2.82843 1.73424e-13 
4.86472 -2.82843 -4.35715e-14 
5.07505 -2.82843 -2.16472e-13 
5.27732 -2.82843 -3.91625e-13 
5.49693 -2.82843 -5.36488e-13 
5.70607 -2.82843 -6.64311e-13 
5.92329 -2.82843 -8.02054e-13 
6.15132 -2.82843 -8.78255e-13 
6.36112 -2.82843 -9.50898e-13 
6.58567 -2.82843 -9.47568e-13 
6.80349 -2.82843 -8.74486e-13 
7.00881 -2.82843 -8.42392e-13 
7.28581 -2.82843 -6.16109e-13 
7.50286 -2.82843 -6.78993e-13 
7.74099 -2.82843 -1.35898e-12 
8.02273 -2.82843 -2.04942e-12 
8.21455 -2.82843 -1.48514e-12 
8.48528 -2.82843 -2.02904e-14 
-8.48528 -2.58709 5.72696e-14 
-8.25459 -2.57671 -1.46394e-12 
-8.02224 -2.58394 -1.56894e-12 
-7.77926 -2.61592 -1.5321e-12 
-7.51819 -2.62045 -1.29054e-12 
-7.22208 -2.63237 -1.14051e-12 
-6.97981 -2.58295 -1.01774e-12 
-6.74495 -2.60908 -7.88122e-13 
-6.52236 -2.57663 -8.22175e-13 
-6.30846 -2.57942 -7.66606e-13 
-6.07257 -2.61494 -6.81385e-13 
-5.86321 -2.57051 -6.85309e-13 
-5.65586 -2.57332 -5.30454e-13 
-5.43367 -2.60505 -3.7896e-13 
-5.22442 -2.57632 -2.49194e-13 
-5.01089 -2.59518 -4.34231e-14 
-4.80251 -2.58408 1.98051e-13 
-4.59101 -2.59702 4.80342e-13 
-4.37698 -2.59408 7.92401e-13 
-4.16426 -2.59236 1.11552e-12 
-3.95879 -2.57544 1.56895e-12 
-3.74863 -2.58386 2.00537e-12 
-3.5304 -2.58068 2.45913e-12 
-3.30615 -2.58226 3.12176e-12 
-3.07445 -2.57879 3.65973e-12 
-2.83602 -2.5828 4.44486e-12 
-2.58633 -2.58486 4.80278e-12 
-2.34137 -2.57995 5.41458e-12 
-2.10234 -2.59069 5.66541e-12 
-1.87134 -2.60666 5.10248e-12 
-1.65084 -2.61285 3.30121e-12 
-1.45797 -2.62638 2.48581e-12 
-1.27962 -2.66486 -1.26113e-12 
-1.19666 -2.51847 -2.80189e-12 
-1.09372 -2.69092 7.89615e-12 
-0.919226 -2.70135 -1.20698e-11 
-0.69153 -2.74418 7.79004e-12 
-0.509277 -2.74694 6.65552e-13 
-0.342215 -2.73298 3.19134e-12 
-0.1904 -2.79526 -8.05214e-11 
0.264426 -2.76676 1.40422e-11 
0.580311 -2.76922 2.11593e-11 
0.739282 -2.69536 8.01386e-12 
0.895815 -2.71767 5.76619e-12 
1.04705 -2.6526 -2.00763e-11 
1.18931 -2.61125 1.42162e-11 
1.35109 -2.65794 -3.81905e-12 
1.54929 -2.63356 -1.68454e-12 
1.75739 -2.6008 -4.37518e-12 
1.98101 -2.61139 -5.5769e-12 
2.23741 -2.59958 -4.62287e-12 
2.48099 -2.57584 -5.63882e-12 
2.71886 -2.57377 -4.3084e-12 
2.96831 -2.58973 -4.18381e-12 
3.19795 -2.57522 -3.39809e-12 
3.43347 -2.58661 -2.82109e-12 
3.64445 -2.56814 -2.15333e-12 
3.8688 -2.59645 -1.71165e-12 
4.09121 -2.59641 -1.25679e-12 
4.30016 -2.58413 -9.1262e-13 
4.50969 -2.59081 -5.75329e-13 
4.71462 -2.58133 -3.01049e-13 
4.92586 -2.5949 -4.60915e-14 
5.13638 -2.58281 1.68253e-13 
5.35419 -2.59992 3.46789e-13 
5.57113 -2.58521 4.89069e-13 
5.78973 -2.59196 6.13752e-13 
6.01744 -2.60147 6.91033e-13 
6.23815 -2.57907 7.44317e-13 
6.45978 -2.5938 8.08858e-13 
6.68543 -2.58458 7.9487e-13 
6.89854 -2.56821 9.16401e-13 
7.13511 -2.63468 1.02352e-12 
7.37776 -2.57849 1.28997e-12 
7.60535 -2.59901 1.56448e-12 
7.86637 -2.6337 1.45064e-12 
8.07769 -2.54203 1.32228e-12 
8.3072 -2.6258 1.40232e-12 
8.48528 -2.51673 -7.48629e-14 
-8.48528 -2.34498 2.44097e-13 
-8.24957 -2.33481 -7.70328e-13 
-8.01881 -2.33993 -5.51013e-13 
-7.77496 -2.394 -1.29821e-12 
-7.56043 -2.25507 -1.02515e-12 
-7.46171 -2.44544 -1.41321e-12 
-7.1965 -2.41329 -1.1953e-12 
-6.97031 -2.33727 -8.98637e-13 
-6.74197 -2.37629 -6.76543e-13 
-6.51508 -2.33231 -5.95646e-13 
-6.26646 -2.36765 -5.61361e-13 
-6.05542 -2.36199 -4.81541e-13 
-5.83315 -2.32646 -3.4456e-13 
-5.59906 -2.35239 -3.03359e-13 
-5.38761 -2.35793 -2.04407e-13 
-5.155 -2.35073 -7.93827e-14 
-4.94077 -2.35568 9.38009e-14 
-4.71528 -2.3596 2.8625e-13 
-4.496 -2.36999 5.15611e-13 
-4.27218 -2.36387 7.48498e-13 
-4.05888 -2.34186 9.95298e-13 
-3.8379 -2.33974 1.31793e-12 
-3.61849 -2.34333 1.71654e-12 
-3.38903 -2.34103 2.24826e-12 
-3.15787 -2.33944 2.8118e-12 
-2.91804 -2.33841 3.41516e-12 
-2.67396 -2.34884 4.08048e-12 
-2.42681 -2.33855 4.35579e-12 
-2.18764 -2.34916 4.6825e-12 
-1.95958 -2.36952 4.69148e-12 
-1.74659 -2.39605 4.03903e-12 
-1.54655 -2.41019 1.5823e-12 
-1.36884 -2.45331 -3.15849e-13 
-1.2537 -2.32647 -1.04839e-12 
-1.02406 -2.56374 -4.50377e-12 
-0.931618 -2.48536 -6.39521e-13 
-0.654348 -2.64698 -4.52346e-13 
-0.477894 -2.65881 -1.10075e-11 
-0.226557 -2.68164 1.76102e-11 
0.0147815 -2.76814 4.24959e-11 
0.283618 -2.65333 -2.34397e-11 
0.427116 -2.72412 -6.25589e-12 
0.669153 -2.5566 3.38102e-12 
0.931123 -2.57031 1.4647e-11 
1.11459 -2.46922 -8.6588e-13 
1.25115 -2.34682 -1.45179e-12 
1.33475 -2.47386 6.85615e-13 
1.51198 -2.43419 -1.39608e-14 
1.70847 -2.39926 -3.42667e-12 
1.93257 -2.38885 -4.85162e-12 
2.1667 -2.39414 -5.13996e-12 
2.41924 -2.34042 -4.97188e-12 
2.65968 -2.33941 -4.15751e-12 
2.90578 -2.3536 -3.67955e-12 
3.14354 -2.32808 -2.72632e-12 
3.37385 -2.34775 -2.32657e-12 
3.59502 -2.31669 -1.66059e-12 
3.81279 -2.35742 -1.48827e-12 
4.03068 -2.36768 -1.12002e-12 
4.24659 -2.34807 -7.59879e-13 
4.45872 -2.35304 -5.19878e-13 
4.6649 -2.34314 -3.08651e-13 
4.87638 -2.35589 -1.36605e-13 
5.08336 -2.34868 2.76681e-14 
5.30251 -2.36282 1.74242e-13 
5.51363 -2.35305 2.79882e-13 
5.73478 -2.35383 3.60808e-13 
5.95567 -2.36946 4.56608e-13 
6.17383 -2.34758 4.99069e-13 
6.40224 -2.35073 5.94299e-13 
6.62079 -2.35166 6.46905e-13 
6.84167 -2.31945 7.02389e-13 
7.07178 -2.38687 1.01464e-12 
7.28688 -2.37813 1.19061e-12 
7.54835 -2.3511 1.33944e-12 
7.78082 -2.41095 1.28967e-12 
7.9912 -2.31685 4.13782e-13 
8.24845 -2.36102 7.72671e-13 
8.48528 -2.28558 -1.05962e-13 
-8.48528 -2.09334 2.34561e-13 
-8.26807 -2.09171 -2.52983e-13 
-8.0448 -2.0825 6.43515e-13 
-7.81666 -2.15965 -1.1813e-13 
-7.53762 -2.05326 -5.35434e-13 
-7.28997 -2.22104 -8.78438e-13 
-7.06254 -2.1188 -3.80109e-13 
-6.8081 -2.12698 -3.53058e-13 
-6.60019 -2.11059 -2.08146e-13 
-6.34875 -2.14038 -2.06812e-13 
-6.13133 -2.11288 -7.5676e-14 
-5.92455 -2.10509 1.0881e-14 
-5.68787 -2.12143 -3.45738e-15 
-5.47023 -2.11145 -9.13893e-16 
-5.25898 -2.13203 -1.94184e-16 
-5.0394 -2.11693 4.9229e-14 
-4.82597 -2.1325 8.59746e-14 
-4.61013 -2.13501 1.32662e-13 
-4.39988 -2.14213 2.07476e-13 
-4.19374 -2.11763 2.24309e-13 
-3.97984 -2.10724 2.71441e-13 
-3.76668 -2.10243 3.77312e-13 
-3.54904 -2.10882 5.57856e-13 
-3.328 -2.10124 7.78573e-13 
-3.10223 -2.10229 1.07837e-12 
-2.86777 -2.10337 1.34041e-12 
-2.63339 -2.11275 1.73335e-12 
-2.39813 -2.10229 1.62708e-12 
-2.1807 -2.10539 1.58722e-12 
-1.96906 -2.13867 1.08325e-12 
-1.7622 -2.16682 1.66736e-12 
-1.57705 -2.19319 1.94255e-13 
-1.40758 -2.23728 -1.42867e-13 
-1.24614 -2.13567 -1.35521e-12 
-1.09416 -2.40326 -3.06239e-12 
-0.949347 -2.34268 -4.65498e-12 
-0.828623 -2.63335 -4.17796e-12 
-0.503811 -2.56676 5.07424e-11 
-0.0806527 -2.71298 1.14412e-11 
0.138639 -2.70112 5.6119e-12 
0.427655 -2.61083 -5.21541e-11 
0.579198 -2.65606 -2.77675e-11 
0.802284 -2.57789 -1.66575e-11 
0.991432 -2.42129 2.94766e-12 
1.11781 -2.27203 8.99059e-12 
1.2698 -2.16196 -9.82173e-12 
1.43099 -2.24638 4.23786e-12 
1.60701 -2.20493 9.65867e-13 
1.80593 -2.18279 -2.3102e-12 
2.02172 -2.16937 -1.77689e-12 
2.23774 -2.15775 -2.89614e-12 
2.47885 -2.09978 -1.66493e-12 
2.71441 -2.11262 -1.61075e-12 
2.94102 -2.11234 -1.23849e-12 
3.17373 -2.08892 -8.1482e-13 
3.39335 -2.1034 -6.25188e-13 
3.61879 -2.08315 -4.3241e-13 
3.8408 -2.12354 -4.226e-13 
4.05777 -2.13333 -3.2622e-13 
4.27564 -2.1156 -2.00679e-13 
4.48316 -2.11354 -1.43441e-13 
4.69825 -2.11303 -1.01583e-13 
4.90432 -2.11518 -6.60999e-14 
5.12542 -2.12445 -3.65218e-14 
5.33336 -2.12119 -7.24363e-15 
5.55345 -2.12296 1.19963e-14 
5.77632 -2.12431 9.00783e-15 
5.98908 -2.12792 3.46141e-14 
6.21955 -2.1201 1.11947e-13 
6.44011 -2.11038 1.78772e-13 
6.65725 -2.10713 2.27543e-13 
6.90608 -2.10504 3.29662e-13 
7.11415 -2.13435 4.90681e-13 
7.35641 -2.1651 6.31665e-13 
7.5595 -2.0776 3.89611e-13 
7.75458 -2.16591 3.72834e-13 
7.9704 -2.07477 -6.66337e-13 
8.20711 -2.1418 -3.89248e-14 
8.48528 -2.08724 -1.12081e-13 
-8.48528 -1.82636 1.78542e-13 
-8.27651 -1.83973 1.53571e-13 
-7.87753 -1.90083 9.08012e-13 
[...]
POINT_DATA 1978 
VECTORS vectors float
3.94982e-05 -0.00180633 0.999998 
0.000406756 -0.0388944 0.999243 
0.000390394 -0.0394351 0.999222 
0.00052296 -0.0255922 0.999672 
0.000483776 -0.0144825 0.999895 
0.00046976 -0.0108188 0.999941 
0.00038989 -0.0116467 0.999932 
0.000369953 -0.013027 0.999915 
0.000312416 -0.014373 0.999897 
0.000340429 -0.0143491 0.999897 
0.000340346 -0.0136226 0.999907 
0.000338513 -0.0121642 0.999926 
0.000314385 -0.0106412 0.999943 
0.000297448 -0.00882635 0.999961 
0.000321236 -0.00617174 0.999981 
0.00030079 -0.0034175 0.999994 
0.000273687 -2.52528e-05 1 
0.000288679 0.00388569 0.999992 
0.000283708 0.0089098 0.99996 
0.000277296 0.0148923 0.999889 
0.00026308 0.0219019 0.99976 
0.000263915 0.0295092 0.999564 
0.000277281 0.0387491 0.999249 
0.00030274 0.0496292 0.998768 
0.000314639 0.0628058 0.998026 
0.000332832 0.0791613 0.996862 
0.000338127 0.100692 0.994918 
0.000312268 0.12945 0.991586 
0.000269194 0.165537 0.986204 
0.000212977 0.211273 0.977427 
0.000148549 0.266939 0.963713 
9.39611e-05 0.329307 0.944223 
5.17818e-05 0.395611 0.918418 
2.02553e-05 0.470511 0.882394 
6.39732e-05 0.548943 0.83586 
-6.28253e-05 0.625205 0.78046 
4.02222e-05 0.733286 0.679921 
-5.36926e-05 0.8378 0.545978 
2.1698e-05 0.930418 0.366501 
-2.47696e-05 0.994578 -0.103996 
4.35279e-05 0.917917 -0.396773 
7.24387e-06 0.767032 -0.641609 
4.93453e-05 0.694537 -0.719457 
-4.87194e-05 0.609206 -0.793012 
-5.13427e-05 0.553871 -0.832602 
-4.37592e-06 0.480073 -0.877229 
-8.28135e-05 0.395759 -0.918354 
-9.6069e-05 0.317732 -0.948181 
-0.00017976 0.256236 -0.966614 
-0.000233678 0.20141 -0.979507 
-0.0002664 0.158138 -0.987417 
-0.000265916 0.128801 -0.99167 
-0.000281924 0.104003 -0.994577 
-0.00032546 0.0826629 -0.996578 
-0.000336737 0.0639907 -0.99795 
-0.000316071 0.0501835 -0.99874 
-0.000280445 0.0385209 -0.999258 
-0.000295966 0.0295344 -0.999564 
-0.000285121 0.0212708 -0.999774 
-0.000286139 0.0141161 -0.9999 
-0.000258638 0.00845984 -0.999964 
-0.000260465 0.00364577 -0.999993 
-0.00027013 -0.000133287 -1 
-0.000285124 -0.00349753 -0.999994 
-0.000306875 -0.00621357 -0.999981 
-0.000307174 -0.00869095 -0.999962 
-0.000334295 -0.0107215 -0.999942 
-0.000337327 -0.0123984 -0.999923 
-0.000345476 -0.0137813 -0.999905 
-0.000352373 -0.0144515 -0.999896 
-0.000317621 -0.01439 -0.999896 
-0.000358656 -0.0135874 -0.999908 
-0.000427883 -0.0120627 -0.999927 
-0.000441812 -0.0105701 -0.999944 
-0.000401226 -0.0135751 -0.999908 
-0.000456235 -0.0228577 -0.999739 
-0.000370484 -0.0387213 -0.99925 
-0.000486579 -0.0392999 -0.999227 
-0.000100563 -0.00114889 -0.999999 
-0.000254747 -3.81907e-05 1 
0.0165699 -0.0307548 0.99939 
0.0212222 -0.0363731 0.999113 
0.021394 -0.0278143 0.999384 
0.022469 -0.0175847 0.999593 
0.0238539 -0.0125908 0.999636 
0.028283 -0.0120124 0.999528 
0.0267357 -0.0127987 0.999561 
0.0294836 -0.0130694 0.99948 
0.0291672 -0.0129735 0.99949 
0.0258744 -0.0123785 0.999589 
0.0294117 -0.0110507 0.999506 
0.0289436 -0.00952933 0.999536 
0.0263827 -0.00748195 0.999624 
0.0285914 -0.00481693 0.99958 
0.0270455 -0.00178256 0.999633 
0.0276625 0.00177709 0.999616 
0.026476 0.00606666 0.999631 
0.0262874 0.0114107 0.999589 
0.0258209 0.0177325 0.999509 
0.0264012 0.0248147 0.999343 
0.0250361 0.0331914 0.999135 
0.0242352 0.0433708 0.998765 
0.0231732 0.0557347 0.998177 
0.0219793 0.0711751 0.997222 
0.0203014 0.0910306 0.995641 
0.0183904 0.117984 0.992845 
0.017056 0.152507 0.988155 
0.0152282 0.195618 0.980562 
0.0133659 0.248304 0.96859 
0.0122766 0.311947 0.95002 
0.0118534 0.38446 0.923066 
0.0101775 0.462488 0.886567 
0.0163966 0.499404 0.866214 
0.010479 0.548559 0.836046 
0.00789551 0.642393 0.766335 
0.00897075 0.759273 0.65071 
0.00879542 0.855049 0.518472 
0.010646 0.935727 0.352566 
0.00224146 0.974019 0.226455 
-0.00530006 0.968316 -0.249672 
-0.00642211 0.833017 -0.553211 
-0.0147657 0.742432 -0.669759 
-0.0111957 0.649384 -0.760378 
-0.017849 0.568646 -0.822389 
-0.0151569 0.507649 -0.861431 
-0.0120113 0.428457 -0.903483 
-0.0115416 0.347754 -0.937515 
-0.0133746 0.279703 -0.959993 
-0.0139942 0.220745 -0.975231 
-0.0154674 0.168432 -0.985592 
-0.0186112 0.132151 -0.991055 
-0.0198878 0.104055 -0.994373 
-0.0209044 0.0805255 -0.996533 
-0.0228146 0.0630588 -0.997749 
-0.0233966 0.0487369 -0.998538 
-0.0252271 0.0380299 -0.998958 
-0.0243791 0.0283284 -0.999301 
-0.0251384 0.020104 -0.999482 
-0.0265899 0.0135368 -0.999555 
-0.0265735 0.00795452 -0.999615 
-0.0276014 0.00344819 -0.999613 
-0.0268083 -0.000478572 -0.99964 
-0.0279415 -0.00366759 -0.999603 
-0.0268096 -0.00654435 -0.999619 
-0.0280045 -0.0088568 -0.999569 
-0.0275617 -0.0107652 -0.999562 
-0.02703 -0.0122512 -0.99956 
-0.0288532 -0.0129391 -0.9995 
-0.0280293 -0.013283 -0.999519 
-0.0288133 -0.0130522 -0.9995 
-0.0297874 -0.0124725 -0.999478 
-0.0238973 -0.0119682 -0.999643 
-0.0274004 -0.0148508 -0.999514 
-0.0242189 -0.0204387 -0.999498 
-0.0199588 -0.0308366 -0.999325 
-0.0219119 -0.0355569 -0.999127 
-0.0136527 -0.0274583 -0.99953 
0.000429049 -0.000395437 -1 
-0.000413538 -0.000976806 0.999999 
0.018729 -0.0301082 0.999371 
0.0257363 -0.0381412 0.998941 
0.0295886 -0.0308655 0.999085 
0.0321512 -0.025012 0.99917 
0.0328053 -0.0191873 0.999278 
0.035828 -0.0142031 0.999257 
0.0370508 -0.0124845 0.999235 
0.0367972 -0.0120943 0.99925 
0.0370284 -0.0117849 0.999245 
0.0365493 -0.0117484 0.999263 
0.0360674 -0.0112743 0.999286 
0.0356147 -0.0101926 0.999314 
0.035513 -0.00848554 0.999333 
0.0350226 -0.0062342 0.999367 
0.0346894 -0.00316567 0.999393 
0.0342765 7.80109e-05 0.999412 
0.0338371 0.00416279 0.999419 
0.0333101 0.00893983 0.999405 
0.0325595 0.0148392 0.99936 
0.0317487 0.0214802 0.999265 
0.0310533 0.0296101 0.999079 
0.0303165 0.0391897 0.998772 
0.0294135 0.0511045 0.99826 
0.0281705 0.0657415 0.997439 
0.0264373 0.0846606 0.996059 
0.0243366 0.1092 0.993722 
0.0218354 0.141535 0.989692 
0.0195823 0.181922 0.983118 
0.0177817 0.230305 0.972956 
0.0164967 0.285912 0.958114 
0.0157676 0.350848 0.9363 
0.0162072 0.421846 0.906523 
0.0182918 0.476575 0.878944 
0.0179001 0.59725 0.801856 
0.0248886 0.63797 0.769659 
0.0203174 0.786637 0.617081 
0.0185024 0.877211 0.479748 
0.0136217 0.963968 0.265671 
0.000494334 0.999815 0.0192304 
-0.0150606 0.951566 -0.307076 
-0.012885 0.894677 -0.446527 
-0.0317759 0.764168 -0.644234 
-0.0243523 0.637684 -0.769913 
-0.0249454 0.531964 -0.846399 
-0.0211167 0.473189 -0.880708 
-0.0182479 0.431636 -0.901863 
-0.016489 0.359382 -0.933045 
-0.0166534 0.295724 -0.955128 
-0.0180381 0.233613 -0.972162 
-0.0200057 0.182763 -0.982953 
-0.0226009 0.141634 -0.989661 
-0.0247374 0.111532 -0.993453 
-0.026591 0.0865364 -0.995894 
-0.0278693 0.0675945 -0.997324 
-0.0291714 0.0524469 -0.998198 
-0.0298143 0.0404707 -0.998736 
-0.0311922 0.0307135 -0.999041 
-0.0318538 0.0224042 -0.999241 
-0.0323236 0.0155443 -0.999357 
-0.0329748 0.00985794 -0.999408 
-0.0334791 0.00521717 -0.999426 
-0.0340579 0.00113817 -0.999419 
-0.034556 -0.00216701 -0.9994 
-0.0350667 -0.0052238 -0.999371 
-0.0354629 -0.00764714 -0.999342 
-0.0357387 -0.00969739 -0.999314 
-0.0360808 -0.0111244 -0.999287 
-0.0364129 -0.011674 -0.999269 
-0.0367561 -0.0118485 -0.999254 
-0.0372146 -0.0120176 -0.999235 
-0.0371695 -0.0121828 -0.999235 
-0.0368574 -0.0132035 -0.999233 
-0.0359554 -0.0159841 -0.999226 
-0.0328935 -0.0228191 -0.999198 
-0.0300655 -0.0308755 -0.999071 
-0.0267713 -0.0382658 -0.998909 
-0.0191792 -0.0296312 -0.999377 
7.39576e-05 -0.000845837 -1 
-0.00037128 -0.000703147 1 
0.0142229 -0.0311957 0.999412 
0.0196443 -0.0420021 0.998924 
0.0261523 -0.0371492 0.998967 
0.026703 -0.0270168 0.999278 
0.0339381 -0.0176923 0.999267 
0.0316617 -0.0144618 0.999394 
0.0321598 -0.0117385 0.999414 
0.031296 -0.0109402 0.99945 
0.0317956 -0.0107211 0.999437 
0.0301087 -0.0105293 0.999491 
0.0293861 -0.0100732 0.999517 
0.0295486 -0.00863723 0.999526 
0.0283894 -0.00638043 0.999577 
0.0286992 -0.00383807 0.999581 
0.027459 -0.000677837 0.999623 
0.0273992 0.00282028 0.999621 
0.0269214 0.00703551 0.999613 
0.0266196 0.0118433 0.999575 
0.0250346 0.0174696 0.999534 
0.0241823 0.0243617 0.999411 
0.0236903 0.0325426 0.99919 
0.023587 0.0425455 0.998816 
0.0228323 0.0548087 0.998236 
0.0219783 0.0701028 0.997298 
0.0205254 0.0899561 0.995734 
0.0188222 0.115041 0.993182 
0.0159881 0.147654 0.98891 
0.0136051 0.186004 0.982455 
0.0122108 0.231097 0.972854 
0.0116705 0.282974 0.959056 
0.0118872 0.339573 0.940505 
0.014127 0.404143 0.914587 
0.0127974 0.456819 0.889467 
0.0216045 0.5478 0.83633 
0.02871 0.611808 0.790485 
0.0150687 0.693639 0.720165 
0.0335386 0.83978 0.54189 
0.0036928 0.99164 0.128979 
-0.00579791 0.992596 -0.121327 
-0.0284553 0.908774 -0.416318 
-0.0217011 0.821392 -0.569951 
-0.0297879 0.693706 -0.719642 
-0.0297059 0.589631 -0.807126 
-0.0236755 0.524148 -0.851298 
-0.0159833 0.450561 -0.892602 
-0.0142489 0.38928 -0.921009 
-0.0118247 0.330629 -0.943687 
-0.0125797 0.27047 -0.962646 
-0.0142253 0.215123 -0.976483 
-0.0167204 0.172222 -0.984916 
-0.0173159 0.135235 -0.990662 
-0.0199624 0.106702 -0.994091 
-0.0214761 0.0846012 -0.996183 
-0.0217618 0.0661049 -0.997575 
-0.0228987 0.0517452 -0.998398 
-0.0227918 0.0395941 -0.998956 
-0.0246075 0.0296011 -0.999259 
-0.0253906 0.0216906 -0.999442 
-0.0251054 0.0151075 -0.999571 
-0.0254971 0.00984641 -0.999626 
-0.0260844 0.00522505 -0.999646 
-0.0268434 0.00146389 -0.999639 
-0.0279996 -0.00204481 -0.999606 
-0.0284334 -0.00483533 -0.999584 
-0.0292125 -0.00738172 -0.999546 
-0.0297794 -0.00936379 -0.999513 
-0.0303609 -0.010479 -0.999484 
-0.0306832 -0.0107703 -0.999471 
-0.0306831 -0.0107069 -0.999472 
-0.0310192 -0.0111142 -0.999457 
-0.031245 -0.012515 -0.999433 
-0.0318357 -0.0150009 -0.999381 
-0.0319022 -0.0201345 -0.999288 
-0.0269008 -0.027814 -0.999251 
-0.0272018 -0.0341318 -0.999047 
-0.0211752 -0.0425753 -0.998869 
-0.0174956 -0.0346544 -0.999246 
0.000253471 -0.000616458 -1 
-0.000219343 -0.00078176 1 
0.0084281 -0.0322564 0.999444 
0.0170523 -0.0439161 0.99889 
0.0203776 -0.0345576 0.999195 
0.0169227 -0.0259225 0.999521 
0.0257044 -0.0209888 0.999449 
0.0212107 -0.0170902 0.999629 
0.0238268 -0.0125627 0.999637 
0.0214907 -0.0105426 0.999713 
0.0233577 -0.00994641 0.999678 
0.0215414 -0.00979223 0.99972 
0.0201907 -0.00971795 0.999749 
0.0210128 -0.0089044 0.99974 
0.0198007 -0.00695724 0.99978 
0.0189886 -0.00433291 0.99981 
0.0188543 -0.00157945 0.999821 
0.0178314 0.00187205 0.999839 
0.0175755 0.0056096 0.99983 
0.0169058 0.0100016 0.999807 
0.0158473 0.0149195 0.999763 
0.0150724 0.0211332 0.999663 
0.0144812 0.0287591 0.999481 
0.0145309 0.038197 0.999165 
0.0141984 0.0497618 0.99866 
0.0136188 0.064425 0.99783 
0.012919 0.0827319 0.996488 
0.011323 0.106361 0.994263 
0.00905396 0.135113 0.990789 
0.00576955 0.172437 0.985004 
0.00383617 0.215371 0.976525 
0.00256549 0.264339 0.964426 
0.00217836 0.314833 0.949145 
0.0041143 0.367314 0.930088 
0.0039405 0.416792 0.908993 
0.0205964 0.522288 0.85252 
0.0268322 0.573634 0.818672 
0.0360457 0.692761 0.720266 
0.0268653 0.705909 0.707793 
0.0253373 0.91742 0.397112 
0.0204503 0.969093 0.245847 
-0.0157729 0.986252 -0.164497 
-0.0394446 0.84378 -0.535238 
-0.037887 0.649345 -0.759549 
-0.0337764 0.581746 -0.812669 
-0.014682 0.503386 -0.863937 
-0.00233821 0.444035 -0.896007 
-0.0046181 0.394342 -0.918952 
-0.00247914 0.336564 -0.941657 
-0.00259869 0.283432 -0.958989 
-0.00519619 0.233369 -0.972374 
-0.00647365 0.190249 -0.981715 
-0.00895347 0.15438 -0.987971 
-0.01045 0.119389 -0.992793 
-0.012384 0.0953799 -0.995364 
-0.0134535 0.0750577 -0.997088 
-0.0136365 0.0574402 -0.998256 
-0.0139322 0.0446071 -0.998907 
-0.0149903 0.0327524 -0.999351 
-0.0157223 0.0242421 -0.999582 
-0.0157378 0.0174879 -0.999723 
-0.0154935 0.0118142 -0.99981 
-0.016428 0.00717555 -0.999839 
-0.016726 0.00322671 -0.999855 
-0.018483 -0.000300018 -0.999829 
-0.0185651 -0.00327161 -0.999822 
-0.0198136 -0.00595827 -0.999786 
-0.0206431 -0.00822083 -0.999753 
-0.0208464 -0.00959695 -0.999737 
-0.0218507 -0.010014 -0.999711 
-0.0215843 -0.00978487 -0.999719 
-0.0216067 -0.0101247 -0.999715 
-0.0227796 -0.0117063 -0.999672 
-0.0217409 -0.0151115 -0.999649 
-0.0235181 -0.0203768 -0.999516 
-0.0194014 -0.0292608 -0.999384 
-0.0182698 -0.0391463 -0.999066 
-0.0134261 -0.0454295 -0.998877 
-0.0105448 -0.03221 -0.999425 
0.000294318 -0.000712009 -1 
-0.000115418 -0.000755431 1 
0.00519678 -0.0344898 0.999392 
0.0114108 -0.0450636 0.998919 
0.0111702 -0.0463206 0.998864 
0.0132117 -0.0362156 0.999257 
0.012821 -0.0222928 0.999669 
0.0152436 -0.0149464 0.999772 
0.0142211 -0.011273 0.999835 
0.0147172 -0.00942915 0.999847 
0.0143531 -0.00910335 0.999856 
0.0130438 -0.00922659 0.999872 
0.0129724 -0.00887771 0.999876 
0.0126455 -0.00747375 0.999892 
0.0118632 -0.0051169 0.999917 
0.0107377 -0.00227508 0.99994 
0.0105211 0.000636344 0.999944 
0.00956098 0.00408492 0.999946 
0.00901266 0.00779384 0.999929 
0.0079217 0.0120275 0.999896 
0.00745516 0.0171976 0.999824 
0.00698392 0.0237162 0.999694 
0.00675744 0.0320647 0.999463 
0.00671859 0.0422594 0.999084 
0.00656164 0.0552649 0.99845 
0.00605839 0.0716181 0.997414 
0.00533665 0.0916741 0.995775 
0.00326372 0.116211 0.993219 
0.000741803 0.146572 0.9892 
-0.00288635 0.18455 0.982819 
-0.00594508 0.225735 0.974171 
-0.00758576 0.269046 0.963097 
-0.0101484 0.319576 0.947506 
-0.0100724 0.368604 0.929532 
-0.0107981 0.42232 0.906383 
0.000141721 0.470566 0.882365 
0.013352 0.513979 0.857699 
0.038014 0.651269 0.757894 
0.0320443 0.776641 0.629128 
0.0339781 0.928666 0.369359 
-0.00373204 0.999024 -0.0440041 
-0.0318139 0.958043 -0.284853 
-0.046248 0.732503 -0.679191 
-0.0251775 0.593511 -0.804432 
-0.00290287 0.508817 -0.86087 
0.0149557 0.442559 -0.896615 
0.010839 0.388564 -0.921358 
0.0105551 0.340775 -0.940085 
0.0104277 0.299055 -0.954179 
0.00607105 0.252252 -0.967642 
0.00399119 0.211638 -0.97734 
0.00107953 0.174348 -0.984683 
-0.00283102 0.139956 -0.990154 
-0.00352182 0.111055 -0.993808 
-0.0055241 0.0887954 -0.996035 
-0.00663993 0.068967 -0.997597 
-0.005913 0.0538633 -0.998531 
-0.00720449 0.040338 -0.99916 
-0.00717872 0.0302278 -0.999517 
-0.00745677 0.0225584 -0.999718 
-0.00761981 0.016309 -0.999838 
-0.00761143 0.0111494 -0.999909 
-0.0084292 0.00693772 -0.99994 
-0.00914365 0.00315687 -0.999953 
-0.0104003 -4.47991e-05 -0.999946 
-0.0108629 -0.0029579 -0.999937 
-0.0122345 -0.00570838 -0.999909 
-0.012928 -0.00788966 -0.999885 
-0.0131722 -0.00915818 -0.999871 
-0.0140979 -0.00941076 -0.999856 
-0.0137399 -0.0091509 -0.999864 
-0.0138687 -0.00980631 -0.999856 
-0.0149448 -0.0121572 -0.999814 
-0.0136221 -0.0164208 -0.999772 
-0.0151391 -0.022848 -0.999624 
-0.0122169 -0.032576 -0.999395 
-0.0126453 -0.0415745 -0.999055 
-0.0091113 -0.0487244 -0.998771 
-0.00687819 -0.0362546 -0.999319 
2.54651e-05 -0.000700568 -1 
-8.91654e-05 -0.000712289 1 
0.00388335 -0.0380136 0.99927 
0.0073181 -0.0492555 0.998759 
0.0071251 -0.0446586 0.998977 
0.00930708 -0.0322269 0.999437 
0.00726904 -0.0238189 0.99969 
0.00884559 -0.0158852 0.999835 
0.00782661 -0.0115134 0.999903 
0.00910838 -0.00935209 0.999915 
0.00822924 -0.00864554 0.999929 
0.00814967 -0.00885417 0.999928 
0.00801309 -0.00863707 0.999931 
0.00745754 -0.00723348 0.999946 
0.00699473 -0.00506327 0.999963 
0.00608149 -0.00227319 0.999979 
0.00523544 0.000839282 0.999986 
0.00454759 0.00391731 0.999982 
0.00371912 0.00751509 0.999965 
0.00275155 0.0115382 0.99993 
0.00230517 0.0162567 0.999865 
0.00201751 0.0221749 0.999752 
0.00190338 0.0299578 0.999549 
0.00168699 0.0401464 0.999192 
0.00161555 0.0527456 0.998607 
0.00118554 0.0689155 0.997622 
0.000285522 0.0892498 0.996009 
-0.00170702 0.11342 0.993546 
-0.00446151 0.143044 0.989706 
-0.00829231 0.178998 0.983815 
-0.0133824 0.222441 0.974854 
-0.0179597 0.267409 0.963416 
-0.0216945 0.311792 0.949903 
-0.0251084 0.363601 0.931217 
-0.0381977 0.418016 0.907636 
-0.0254771 0.421948 0.906262 
-0.0178048 0.483372 0.875234 
0.0210558 0.582869 0.812293 
0.044039 0.735858 0.675702 
0.0423963 0.781584 0.622358 
0.00737665 0.992426 0.122623 
-0.0552493 0.796994 -0.601454 
-0.0474725 0.638833 -0.767879 
-0.00243055 0.569794 -0.821784 
0.014234 0.494065 -0.869309 
0.0329106 0.436583 -0.899062 
0.0289832 0.388917 -0.920817 
0.0276969 0.348421 -0.936929 
0.0226652 0.304631 -0.952201 
0.0172062 0.260851 -0.965226 
0.0131416 0.221045 -0.975175 
0.00892592 0.184333 -0.982823 
0.00413186 0.150383 -0.988619 
0.00202034 0.121678 -0.992568 
0.000293973 0.0946042 -0.995515 
-0.00144067 0.0749531 -0.997186 
-0.00112221 0.0582762 -0.9983 
-0.00195184 0.0436966 -0.999043 
-0.00195875 0.0328029 -0.99946 
-0.00199983 0.02445 -0.999699 
-0.00224608 0.0180613 -0.999834 
-0.00250255 0.0129406 -0.999913 
-0.00303295 0.00859249 -0.999958 
-0.00399288 0.00496072 -0.99998 
-0.00484395 0.00165717 -0.999987 
-0.00571303 -0.00124043 -0.999983 
-0.0067712 -0.00422753 -0.999968 
-0.00752387 -0.00670063 -0.999949 
-0.00797815 -0.0083899 -0.999933 
-0.00848308 -0.00896115 -0.999924 
-0.00845256 -0.00875501 -0.999926 
-0.0083194 -0.00910442 -0.999924 
-0.00873236 -0.0113668 -0.999897 
-0.00820606 -0.0161685 -0.999836 
-0.0088289 -0.0243161 -0.999665 
-0.00703289 -0.0342464 -0.999389 
-0.00756294 -0.0444076 -0.998985 
-0.00577878 -0.0510674 -0.998678 
-0.00482336 -0.0388398 -0.999234 
0.000124663 -0.000692839 -1 
-5.54309e-05 -0.000683339 1 
0.00317939 -0.038657 0.999247 
0.00506364 -0.0515283 0.998659 
0.00430354 -0.0454603 0.998957 
0.00545797 -0.034888 0.999376 
0.00423171 -0.0244817 0.999691 
0.00494504 -0.0157269 0.999864 
0.0047587 -0.0107779 0.999931 
0.00552582 -0.00874515 0.999946 
0.00524064 -0.00839092 0.999951 
0.00556006 -0.00864858 0.999947 
0.00525451 -0.00780335 0.999956 
0.00476556 -0.00581987 0.999972 
0.00420537 -0.00327509 0.999986 
0.00345764 -0.000280323 0.999994 
0.00260596 0.00279634 0.999993 
0.00187373 0.00584895 0.999981 
0.00106569 0.00932557 0.999956 
0.00034098 0.013305 0.999911 
-9.86288e-05 0.0180089 0.999838 
-0.000352463 0.0240845 0.99971 
-0.000502793 0.0320854 0.999485 
-0.000734212 0.0425729 0.999093 
-0.000941817 0.0560838 0.998426 
-0.00155878 0.0735499 0.99729 
-0.0028449 0.0942999 0.99554 
-0.0051089 0.120125 0.992746 
-0.00837787 0.150458 0.988581 
-0.0129025 0.186994 0.982276 
-0.0189625 0.228062 0.973462 
-0.0262778 0.273539 0.961502 
-0.033659 0.317528 0.947651 
-0.0379247 0.359769 0.93227 
-0.0517662 0.429879 0.901401 
-0.0350199 0.485197 0.873704 
-0.0527159 0.495566 0.866969 
0.00136676 0.53333 0.845906 
0.0399491 0.625115 0.77951 
0.0515556 0.856945 0.512822 
0.00697892 0.9984 0.0561078 
-0.0525986 0.9067 -0.418484 
-0.0679666 0.690722 -0.71992 
0.0366486 0.487181 -0.872532 
0.0591295 0.497986 -0.865167 
0.0527825 0.443882 -0.894529 
0.0502964 0.406203 -0.912398 
0.0447515 0.367517 -0.928939 
0.0352948 0.321609 -0.946215 
0.0269723 0.276491 -0.960638 
0.0197998 0.233544 -0.972145 
0.0133175 0.191786 -0.981346 
0.00808225 0.153818 -0.988066 
0.00460539 0.120903 -0.992654 
0.00284284 0.0962742 -0.995351 
0.00135974 0.0744722 -0.997222 
0.000953215 0.0559683 -0.998432 
0.000552251 0.0422764 -0.999106 
0.000514538 0.0317927 -0.999494 
0.000419027 0.0238517 -0.999715 
0.000132569 0.0177728 -0.999842 
-0.000327209 0.012843 -0.999917 
-0.000966978 0.00885706 -0.99996 
-0.00185955 0.00538364 -0.999984 
-0.00263492 0.00241676 -0.999994 
-0.00362753 -0.000772735 -0.999993 
-0.00439688 -0.0036543 -0.999984 
-0.00502693 -0.00624295 -0.999968 
-0.00549777 -0.00813148 -0.999952 
-0.00560549 -0.00867259 -0.999947 
-0.00557595 -0.0085458 -0.999948 
-0.00514626 -0.0090074 -0.999946 
-0.00526647 -0.0111805 -0.999924 
-0.00457465 -0.0153774 -0.999871 
-0.00519908 -0.0227951 -0.999727 
-0.00438325 -0.033185 -0.99944 
-0.0047035 -0.0453397 -0.998961 
-0.00422452 -0.0515888 -0.998659 
-0.00336097 -0.0360336 -0.999345 
4.97362e-05 -0.000704152 -1 
-2.80633e-05 -0.000657697 1 
0.00292585 -0.0397013 0.999207 
0.00377901 -0.0516227 0.99866 