# vtk DataFile Version 3.0 
Exported using Morpho https://github.com/Morpho-lang/morpho 
ASCII 
DATASET UNSTRUCTURED_GRID 

POINTS 1978 float 
-8.48528 -2.82843 -3.65307e-14 
-8.26439 -2.82843 1.53756e-13 
-8.04137 -2.82843 2.1875e-13 
-7.77716 -2.82843 1.55565e-13 
-7.50607 -2.82843 9.28308e-14 
-7.25818 -2.82843 7.96187e-14 
-7.00671 -2.82843 7.94197e-14 
-6.79883 -2.82843 9.01355e-14 
-6.56468 -2.82843 1.01148e-13 
-6.36004 -2.82843 9.17782e-14 
-6.1528 -2.82843 9.25604e-14 
-5.90994 -2.82843 8.29885e-14 
-5.70898 -2.82843 6.4234e-14 
-5.50623 -2.82843 5.65371e-14 
-5.27696 -2.82843 4.18252e-14 
-5.07625 -2.82843 2.19287e-14 
-4.86257 -2.82843 3.65992e-15 
-4.66145 -2.82843 -2.06605e-14 
-4.45143 -2.82843 -4.87415e-14 
-4.24384 -2.82843 -8.01263e-14 
-4.03571 -2.82843 -1.10713e-13 
-3.83807 -2.82843 -1.46594e-13 
-3.62848 -2.82843 -1.89278e-13 
-3.41492 -2.82843 -2.35727e-13 
-3.19347 -2.82843 -2.83994e-13 
-2.96725 -2.82843 -3.34255e-13 
-2.73085 -2.82843 -3.86077e-13 
-2.48834 -2.82843 -4.18138e-13 
-2.25555 -2.82843 -4.41376e-13 
-2.02554 -2.82843 -4.56336e-13 
-1.80431 -2.82843 -4.20452e-13 
-1.60835 -2.82843 -3.23383e-13 
-1.43534 -2.82843 -2.7234e-13 
-1.25038 -2.82843 -2.41625e-13 
-1.09327 -2.82843 7.6061e-14 
-0.933441 -2.82843 3.54866e-13 
-0.759141 -2.82843 8.30962e-13 
-0.540889 -2.82843 2.96078e-12 
-0.346638 -2.82843 1.02024e-12 
0.133103 -2.82843 2.53083e-12 
0.395036 -2.82843 -6.34728e-12 
0.691652 -2.82843 -1.26334e-12 
0.821334 -2.82843 -8.84225e-13 
0.978711 -2.82843 -2.07441e-13 
1.09301 -2.82843 1.95829e-13 
1.22878 -2.82843 1.26092e-13 
1.42076 -2.82843 3.48038e-13 
1.62286 -2.82843 3.96237e-13 
1.82076 -2.82843 4.32252e-13 
2.05032 -2.82843 4.72227e-13 
2.28771 -2.82843 4.29942e-13 
2.50584 -2.82843 4.04061e-13 
2.72675 -2.82843 3.72072e-13 
2.94964 -2.82843 3.47094e-13 
3.18844 -2.82843 2.91929e-13 
3.40972 -2.82843 2.42725e-13 
3.63339 -2.82843 1.84639e-13 
3.83399 -2.82843 1.49104e-13 
4.0511 -2.82843 1.1586e-13 
4.26409 -2.82843 7.49395e-14 
4.4636 -2.82843 4.30404e-14 
4.6677 -2.82843 1.82613e-14 
4.86472 -2.82843 -4.28971e-15 
5.07505 -2.82843 -2.23619e-14 
5.27732 -2.82843 -4.06882e-14 
5.49693 -2.82843 -5.5753e-14 
5.70607 -2.82843 -6.91007e-14 
5.92329 -2.82843 -8.35976e-14 
6.15132 -2.82843 -9.13923e-14 
6.36112 -2.82843 -9.87826e-14 
6.58567 -2.82843 -9.86736e-14 
6.80349 -2.82843 -9.07159e-14 
7.00881 -2.82843 -8.80272e-14 
7.28581 -2.82843 -6.52481e-14 
7.50286 -2.82843 -7.15533e-14 
7.74099 -2.82843 -1.42452e-13 
8.02273 -2.82843 -2.12652e-13 
8.21455 -2.82843 -1.56541e-13 
8.48528 -2.82843 -2.58356e-15 
-8.48528 -2.58709 5.20798e-15 
-8.25423 -2.57634 -1.04905e-14 
-8.02119 -2.58463 -1.34108e-14 
-7.77801 -2.61531 -1.06731e-14 
-7.51666 -2.61859 -7.81429e-15 
-7.22063 -2.63311 -8.9362e-15 
-6.97933 -2.58386 -8.06828e-15 
-6.74542 -2.60877 -5.32346e-15 
-6.52322 -2.57667 -6.31358e-15 
-6.30906 -2.57946 -5.93724e-15 
-6.07309 -2.61488 -5.14402e-15 
-5.86359 -2.57075 -5.41015e-15 
-5.65617 -2.57351 -4.16143e-15 
-5.43391 -2.6051 -2.94048e-15 
-5.22453 -2.57649 -1.99145e-15 
-5.01098 -2.59524 -4.42462e-15 
-4.80251 -2.58416 1.48079e-15 
-4.59086 -2.59712 3.73571e-15 
-4.37677 -2.59409 6.1262e-15 
-4.16391 -2.59232 8.60113e-15 
-3.95826 -2.57557 1.23958e-14 
-3.74803 -2.58396 1.57596e-14 
-3.5297 -2.58069 1.91137e-14 
-3.30534 -2.58247 2.4954e-14 
-3.07352 -2.579 2.9219e-14 
-2.83488 -2.58311 3.64992e-14 
-2.58506 -2.58494 3.82315e-14 
-2.34007 -2.58038 4.5171e-14 
-2.10099 -2.59085 4.50096e-14 
-1.86976 -2.60686 3.98016e-14 
-1.64977 -2.61347 3.15709e-14 
-1.45781 -2.62798 2.13238e-14 
-1.28038 -2.66533 -1.18164e-13 
-1.20124 -2.51659 2.20934e-14 
-1.0962 -2.68799 4.08055e-13 
-0.920441 -2.70284 -4.6465e-13 
-0.694624 -2.74399 3.80888e-14 
-0.512617 -2.74662 -1.88333e-13 
-0.344169 -2.7341 -1.57453e-14 
-0.189501 -2.79615 1.58961e-12 
0.261608 -2.76596 5.64413e-14 
0.578531 -2.77004 2.17824e-13 
0.738206 -2.69444 -1.49008e-15 
0.894385 -2.71718 3.89152e-13 
1.0456 -2.65304 -5.0881e-13 
1.19131 -2.61695 1.81737e-13 
1.35354 -2.65845 -4.43684e-14 
1.55027 -2.63377 5.15258e-15 
1.75782 -2.60131 -3.10337e-14 
1.98144 -2.61173 -4.30571e-14 
2.23719 -2.59903 -3.55478e-14 
2.48074 -2.57617 -3.94661e-14 
2.71899 -2.57567 -1.26961e-14 
2.96625 -2.58799 -5.07823e-14 
3.19661 -2.5754 -2.35606e-14 
3.43262 -2.58685 -2.26235e-14 
3.64374 -2.56831 -1.68938e-14 
3.86838 -2.59652 -1.33619e-14 
4.09101 -2.59636 -9.59792e-15 
4.30016 -2.58414 -6.9463e-15 
4.50979 -2.59082 -4.33133e-15 
4.71479 -2.58144 -2.24716e-15 
4.92601 -2.59491 -4.63247e-15 
5.1365 -2.58296 1.33224e-15 
5.35423 -2.59996 2.62814e-15 
5.57112 -2.58531 3.75771e-15 
5.78967 -2.59201 4.66355e-15 
6.01735 -2.60154 5.30321e-15 
6.23807 -2.57916 5.70849e-15 
6.45973 -2.59386 6.19781e-15 
6.68538 -2.58461 6.06626e-15 
6.89851 -2.56823 6.97385e-15 
7.13508 -2.63469 7.85725e-15 
7.37782 -2.57863 9.90027e-15 
7.60551 -2.5989 1.19155e-14 
7.86642 -2.63359 1.12326e-14 
8.07773 -2.54188 9.86041e-15 
8.30722 -2.62587 1.03486e-14 
8.48528 -2.51673 -6.39625e-15 
-8.48528 -2.34498 2.44095e-14 
-8.25019 -2.33429 -5.4154e-15 
-8.01987 -2.34057 -4.26085e-15 
-7.77562 -2.3935 -1.18294e-14 
-7.56052 -2.25458 -7.34183e-15 
-7.4604 -2.44401 -9.8972e-15 
-7.1967 -2.41395 -9.09389e-15 
-6.97124 -2.3389 -6.87148e-15 
-6.74259 -2.37555 -4.87265e-15 
-6.51534 -2.33273 -4.62649e-15 
-6.26656 -2.36765 -4.22728e-15 
-6.05526 -2.36203 -3.62748e-15 
-5.83288 -2.32682 -2.53721e-15 
-5.59885 -2.35265 -2.22032e-15 
-5.38727 -2.35812 -1.39351e-15 
-5.15482 -2.35084 -4.99216e-16 
-4.94064 -2.35579 7.94086e-16 
-4.71517 -2.35975 2.24994e-15 
-4.49605 -2.36989 3.85303e-15 
-4.27234 -2.36386 5.47453e-15 
-4.05895 -2.34203 7.37355e-15 
-3.83804 -2.33975 9.5669e-15 
-3.61871 -2.34346 1.23082e-14 
-3.38911 -2.34126 1.63117e-14 
-3.15796 -2.3397 2.00047e-14 
-2.91803 -2.33888 2.41277e-14 
-2.67388 -2.34902 2.85473e-14 
-2.42664 -2.339 3.06242e-14 
-2.18747 -2.34987 3.2952e-14 
-1.95859 -2.3708 3.8387e-14 
-1.74544 -2.39594 3.12645e-14 
-1.54788 -2.40997 2.47377e-15 
-1.37227 -2.45435 -2.23569e-15 
-1.25735 -2.32689 1.78745e-14 
-1.02759 -2.56283 -3.15094e-13 
-0.933112 -2.4856 -5.71721e-14 
-0.655457 -2.64813 -6.10257e-14 
-0.475189 -2.66075 -1.13491e-13 
-0.223588 -2.68589 3.32674e-13 
0.0174384 -2.76821 -8.47956e-13 
0.28389 -2.65078 -9.10999e-14 
0.424021 -2.72518 -2.02903e-13 
0.670203 -2.55854 -1.0176e-13 
0.9421 -2.5659 3.70203e-13 
1.11767 -2.47507 -1.03423e-13 
1.25628 -2.34806 -2.04864e-14 
1.33956 -2.47667 1.68853e-14 
1.51094 -2.43121 -1.7662e-15 
1.70777 -2.40023 -2.80629e-14 
1.93242 -2.38948 -3.61072e-14 
2.16577 -2.39335 -3.87488e-14 
2.41801 -2.34122 -4.47139e-14 
2.65893 -2.33956 -2.19694e-14 
2.90474 -2.35279 -3.50047e-14 
3.14299 -2.32835 -1.88052e-14 
3.37333 -2.34828 -1.76431e-14 
3.5948 -2.31695 -1.24311e-14 
3.81256 -2.3576 -1.1149e-14 
4.03049 -2.36766 -8.46051e-15 
4.24654 -2.3481 -5.76999e-15 
4.45877 -2.35304 -3.93946e-15 
4.66501 -2.34328 -2.28974e-15 
4.87646 -2.35594 -1.07406e-15 
5.08349 -2.34881 2.83043e-15 
5.30248 -2.3629 1.2618e-15 
5.5136 -2.35318 2.09778e-15 
5.73469 -2.35391 2.69004e-15 
5.95557 -2.36954 3.42524e-15 
6.17375 -2.34772 3.77049e-15 
6.40224 -2.35085 4.49111e-15 
6.62083 -2.3517 4.85751e-15 
6.84175 -2.31951 5.27668e-15 
7.07187 -2.3869 7.63353e-15 
7.28702 -2.37828 9.00958e-15 
7.54845 -2.35115 1.0137e-14 
7.78112 -2.41066 1.00136e-14 
7.99135 -2.3165 3.40782e-15 
8.24853 -2.36106 5.24589e-15 
8.48528 -2.28558 -1.03107e-14 
-8.48528 -2.09334 2.39247e-14 
-8.26758 -2.0911 -1.31376e-15 
-8.04409 -2.08352 4.75074e-15 
-7.81643 -2.15971 3.25779e-16 
-7.53893 -2.0526 -5.78462e-15 
-7.28963 -2.22048 -6.71897e-15 
-7.06204 -2.11928 -2.45922e-15 
-6.8091 -2.12714 -2.95256e-15 
-6.60047 -2.11078 -1.54574e-15 
-6.34927 -2.14039 -1.56296e-15 
-6.1316 -2.11311 -5.78428e-16 
-5.92465 -2.10537 1.11138e-15 
-5.68813 -2.12151 -4.40446e-16 
-5.47054 -2.11182 -1.48857e-16 
-5.2592 -2.13206 -8.1476e-17 
-5.0397 -2.11701 4.87883e-15 
-4.82626 -2.13261 5.66421e-16 
-4.61055 -2.13478 9.10689e-16 
-4.4002 -2.14194 1.52381e-15 
-4.19389 -2.1178 1.54529e-15 
-3.9799 -2.10731 2.02901e-15 
-3.76661 -2.10237 3.09119e-15 
-3.54881 -2.10912 4.06957e-15 
-3.32755 -2.10142 6.29502e-15 
-3.10145 -2.10258 8.86201e-15 
-2.86681 -2.10381 1.07567e-14 
-2.63228 -2.113 1.52959e-14 
-2.39706 -2.10282 1.46803e-14 
-2.17992 -2.1061 1.74115e-14 
-1.96905 -2.14105 -2.75347e-15 
-1.76201 -2.16756 5.41462e-15 
-1.57686 -2.19 3.33115e-14 
-1.40962 -2.23704 3.01374e-15 
-1.24453 -2.13846 -5.64605e-14 
-1.09745 -2.40193 1.52154e-14 
-0.950278 -2.34303 -3.54519e-14 
-0.833022 -2.63341 2.39588e-13 
-0.501336 -2.57101 -7.17917e-13 
-0.0763202 -2.71242 3.55071e-13 
0.138454 -2.69949 1.05426e-13 
0.43026 -2.61151 1.26885e-12 
0.578548 -2.6572 -3.70737e-13 
0.808058 -2.57551 -2.74072e-13 
0.993088 -2.40921 -7.35449e-14 
1.11974 -2.27762 1.78344e-13 
1.2642 -2.15934 -7.91698e-14 
1.42788 -2.2385 -8.8219e-15 
1.60637 -2.20744 2.69225e-14 
1.80604 -2.18423 -1.27628e-14 
2.02059 -2.16898 -1.99793e-14 
2.23782 -2.1569 -2.39567e-14 
2.47724 -2.10064 -1.41185e-14 
2.7141 -2.11269 -1.49449e-14 
2.94079 -2.11207 -7.15342e-15 
3.17353 -2.08925 -6.29413e-15 
3.39331 -2.10399 -4.12174e-15 
3.61886 -2.08333 -3.03331e-15 
3.84072 -2.12354 -3.18506e-15 
4.05774 -2.13328 -2.41769e-15 
4.27576 -2.11564 -1.38545e-15 
4.48336 -2.11354 -9.78675e-16 
4.69832 -2.11304 -7.94143e-16 
4.90452 -2.11535 -3.8985e-16 
5.12544 -2.12438 -3.71148e-15 
5.33343 -2.12134 -7.04891e-16 
5.55347 -2.12303 1.21886e-15 
5.77634 -2.12442 9.12159e-16 
5.98911 -2.12798 3.50735e-15 
6.21963 -2.12027 8.28075e-16 
6.44021 -2.11047 1.33946e-15 
6.65736 -2.10714 1.72136e-15 
6.90615 -2.10505 2.49528e-15 
7.11421 -2.13439 3.742e-15 
7.35631 -2.16514 4.69541e-15 
7.55906 -2.07739 2.65418e-15 
7.75417 -2.16563 2.53303e-15 
7.97041 -2.07488 -5.20734e-15 
8.2074 -2.14173 -4.09952e-15 
8.48528 -2.08724 -1.08367e-14 
-8.48528 -1.82636 3.04747e-14 
-8.27702 -1.83988 -1.43753e-14 
-7.87691 -1.90104 7.68125e-15 
[...]
POINT_DATA 1978 
VECTORS vectors float
1.53186e-07 -0.00109579 0.999999 
0.000225993 -0.0388938 0.999243 
0.000148107 -0.0394349 0.999222 
0.000206481 -0.0255923 0.999672 
0.00018095 -0.0144826 0.999895 
0.00019648 -0.0108188 0.999941 
0.000170306 -0.0116467 0.999932 
0.000179269 -0.013027 0.999915 
0.000142157 -0.014373 0.999897 
0.000176216 -0.014349 0.999897 
0.00015858 -0.0136226 0.999907 
0.000161849 -0.0121642 0.999926 
0.00016326 -0.0106412 0.999943 
0.000141603 -0.00882633 0.999961 
0.000161159 -0.00617172 0.999981 
0.00015372 -0.00341749 0.999994 
0.000135818 -2.52321e-05 1 
0.000149708 0.00388571 0.999992 
0.000143492 0.00890981 0.99996 
0.000141446 0.0148923 0.999889 
0.000135517 0.0219019 0.99976 
0.000135649 0.0295092 0.999564 
0.000137164 0.0387491 0.999249 
0.000147476 0.0496293 0.998768 
0.000146588 0.0628058 0.998026 
0.00015066 0.0791614 0.996862 
0.000148167 0.100692 0.994918 
0.00013691 0.12945 0.991586 
0.00012201 0.165537 0.986204 
9.9265e-05 0.211272 0.977427 
7.36914e-05 0.266939 0.963713 
5.17071e-05 0.329307 0.944223 
2.95622e-05 0.395611 0.918418 
7.25111e-06 0.470511 0.882394 
5.06097e-05 0.548943 0.83586 
-5.28976e-05 0.625205 0.78046 
3.6478e-05 0.733285 0.679921 
-4.12546e-05 0.8378 0.545978 
1.90741e-05 0.930418 0.366501 
-1.88971e-05 0.994578 -0.103996 
2.59637e-05 0.917917 -0.396773 
-2.79451e-06 0.767033 -0.641608 
4.06523e-05 0.694537 -0.719457 
-3.89851e-05 0.609206 -0.793012 
-3.87009e-05 0.553871 -0.832603 
5.61604e-06 0.480073 -0.877229 
-4.91611e-05 0.395759 -0.918354 
-4.51423e-05 0.317732 -0.948181 
-9.01431e-05 0.256236 -0.966614 
-0.00010571 0.20141 -0.979507 
-0.000125177 0.158138 -0.987417 
-0.000125735 0.128801 -0.99167 
-0.000130762 0.104004 -0.994577 
-0.000149417 0.0826629 -0.996578 
-0.000155248 0.0639908 -0.99795 
-0.000150295 0.0501835 -0.99874 
-0.000134919 0.0385209 -0.999258 
-0.000151515 0.0295344 -0.999564 
-0.000138757 0.0212708 -0.999774 
-0.000148571 0.0141161 -0.9999 
-0.000132874 0.00845985 -0.999964 
-0.000136342 0.00364579 -0.999993 
-0.000139469 -0.000133267 -1 
-0.000145318 -0.00349751 -0.999994 
-0.000155111 -0.00621356 -0.999981 
-0.000148761 -0.00869094 -0.999962 
-0.000167061 -0.0107215 -0.999943 
-0.000158472 -0.0123984 -0.999923 
-0.000165937 -0.0137812 -0.999905 
-0.000174219 -0.0144514 -0.999896 
-0.000144241 -0.01439 -0.999896 
-0.000176156 -0.0135874 -0.999908 
-0.000186107 -0.0120627 -0.999927 
-0.000186605 -0.0105702 -0.999944 
-0.000174749 -0.0135752 -0.999908 
-0.000187963 -0.0228578 -0.999739 
-0.000142823 -0.0387211 -0.99925 
-0.000269083 -0.0392995 -0.999227 
-3.13585e-05 -0.000472491 -1 
-0.000237125 0.00053174 1 
0.0165693 -0.0307544 0.99939 
0.0212218 -0.0363729 0.999113 
0.0213936 -0.0278143 0.999384 
0.0224687 -0.0175848 0.999593 
0.0238535 -0.0125909 0.999636 
0.0282826 -0.0120124 0.999528 
0.0267353 -0.0127987 0.999561 
0.0294832 -0.0130694 0.99948 
0.0291667 -0.0129735 0.99949 
0.025874 -0.0123785 0.999589 
0.0294113 -0.0110507 0.999506 
0.0289432 -0.00952932 0.999536 
0.0263824 -0.00748193 0.999624 
0.028591 -0.00481691 0.99958 
0.0270452 -0.00178254 0.999633 
0.0276622 0.0017771 0.999616 
0.0264756 0.00606668 0.999631 
0.0262871 0.0114107 0.999589 
0.0258205 0.0177325 0.999509 
0.0264009 0.0248147 0.999343 
0.0250357 0.0331914 0.999135 
0.0242348 0.0433709 0.998765 
0.0231728 0.0557346 0.998177 
0.021979 0.071175 0.997222 
0.0203011 0.0910307 0.995641 
0.0183901 0.117984 0.992845 
0.0170557 0.152507 0.988155 
0.015228 0.195618 0.980562 
0.0133657 0.248304 0.96859 
0.0122765 0.311947 0.95002 
0.0118532 0.38446 0.923066 
0.0101774 0.462489 0.886567 
0.0163965 0.499405 0.866214 
0.0104791 0.548558 0.836047 
0.00789548 0.642394 0.766334 
0.00897071 0.759274 0.650709 
0.00879541 0.85505 0.518471 
0.010646 0.935726 0.352567 
0.0022414 0.974019 0.226454 
-0.00530008 0.968316 -0.249673 
-0.00642221 0.833016 -0.553211 
-0.0147658 0.742431 -0.66976 
-0.0111957 0.649385 -0.760377 
-0.0178488 0.568646 -0.822388 
-0.0151569 0.507647 -0.861432 
-0.0120112 0.428457 -0.903482 
-0.0115415 0.347754 -0.937515 
-0.0133745 0.279703 -0.959993 
-0.0139939 0.220745 -0.975231 
-0.0154672 0.168432 -0.985592 
-0.0186109 0.132151 -0.991055 
-0.0198875 0.104055 -0.994373 
-0.0209041 0.0805256 -0.996533 
-0.0228142 0.0630588 -0.997749 
-0.0233963 0.0487369 -0.998538 
-0.0252268 0.0380299 -0.998958 
-0.0243787 0.0283284 -0.999301 
-0.025138 0.020104 -0.999482 
-0.0265895 0.0135368 -0.999555 
-0.0265731 0.00795455 -0.999615 
-0.027601 0.0034482 -0.999613 
-0.0268079 -0.000478557 -0.99964 
-0.0279411 -0.00366758 -0.999603 
-0.0268092 -0.00654433 -0.999619 
-0.0280041 -0.00885677 -0.999569 
-0.0275613 -0.0107652 -0.999562 
-0.0270296 -0.0122512 -0.99956 
-0.0288528 -0.0129391 -0.9995 
-0.0280289 -0.013283 -0.999519 
-0.0288129 -0.0130522 -0.9995 
-0.029787 -0.0124725 -0.999478 
-0.0238969 -0.0119682 -0.999643 
-0.0274 -0.0148509 -0.999514 
-0.0242185 -0.0204388 -0.999498 
-0.0199585 -0.0308366 -0.999325 
-0.0219115 -0.0355566 -0.999127 
-0.0136521 -0.0274577 -0.99953 
0.000405474 0.000395216 -1 
-0.000384281 -4.99626e-05 1 
0.0187286 -0.0301078 0.999371 
0.025736 -0.0381408 0.998941 
0.0295883 -0.0308655 0.999086 
0.032151 -0.025012 0.99917 
0.0328049 -0.0191873 0.999278 
0.0358277 -0.0142032 0.999257 
0.0370505 -0.0124845 0.999235 
0.0367969 -0.0120943 0.99925 
0.037028 -0.0117849 0.999245 
0.036549 -0.0117483 0.999263 
0.036067 -0.0112743 0.999286 
0.0356144 -0.0101925 0.999314 
0.0355127 -0.00848551 0.999333 
0.0350223 -0.00623418 0.999367 
0.0346891 -0.00316565 0.999393 
0.0342762 7.80257e-05 0.999412 
0.0338369 0.0041628 0.999419 
0.0333098 0.00893984 0.999405 
0.0325592 0.0148392 0.99936 
0.0317484 0.0214802 0.999265 
0.031053 0.0296101 0.999079 
0.0303162 0.0391897 0.998772 
0.0294132 0.0511045 0.99826 
0.0281703 0.0657415 0.997439 
0.026437 0.0846605 0.996059 
0.0243363 0.1092 0.993722 
0.0218351 0.141535 0.989692 
0.0195821 0.181922 0.983118 
0.0177815 0.230305 0.972956 
0.0164965 0.285911 0.958114 
0.0157675 0.350847 0.9363 
0.0162072 0.421846 0.906523 
0.0182917 0.476574 0.878944 
0.0179 0.597249 0.801856 
0.0248885 0.63797 0.769659 
0.0203174 0.786637 0.617082 
0.0185027 0.87721 0.47975 
0.0136216 0.963968 0.265671 
0.000494321 0.999815 0.0192302 
-0.0150607 0.951567 -0.307074 
-0.012885 0.894678 -0.446526 
-0.031776 0.764169 -0.644233 
-0.0243523 0.637682 -0.769914 
-0.0249451 0.531964 -0.846399 
-0.0211166 0.473189 -0.880708 
-0.0182478 0.431636 -0.901863 
-0.0164889 0.359382 -0.933045 
-0.0166532 0.295725 -0.955128 
-0.0180379 0.233614 -0.972162 
-0.0200055 0.182763 -0.982954 
-0.0226006 0.141634 -0.989661 
-0.0247371 0.111532 -0.993453 
-0.0265908 0.0865365 -0.995894 
-0.027869 0.0675945 -0.997324 
-0.0291711 0.052447 -0.998198 
-0.0298141 0.0404707 -0.998736 
-0.0311919 0.0307135 -0.999041 
-0.0318535 0.0224042 -0.999241 
-0.0323233 0.0155443 -0.999357 
-0.0329745 0.00985795 -0.999408 
-0.0334789 0.00521718 -0.999426 
-0.0340576 0.00113818 -0.999419 
-0.0345557 -0.002167 -0.9994 
-0.0350665 -0.00522379 -0.999371 
-0.0354626 -0.00764712 -0.999342 
-0.0357384 -0.00969735 -0.999314 
-0.0360805 -0.0111244 -0.999287 
-0.0364126 -0.011674 -0.999269 
-0.0367558 -0.0118484 -0.999254 
-0.0372142 -0.0120176 -0.999235 
-0.0371692 -0.0121828 -0.999235 
-0.0368571 -0.0132035 -0.999233 
-0.035955 -0.0159841 -0.999226 
-0.0328932 -0.0228192 -0.999198 
-0.0300652 -0.0308755 -0.999071 
-0.026771 -0.0382654 -0.998909 
-0.0191788 -0.0296308 -0.999377 
6.27209e-05 -8.87644e-05 -1 
-0.00034288 0.000250137 1 
0.0142226 -0.0311952 0.999412 
0.0196442 -0.0420018 0.998924 
0.0261521 -0.037149 0.998967 
0.0267029 -0.0270168 0.999278 
0.0339378 -0.0176923 0.999267 
0.0316616 -0.0144618 0.999394 
0.0321597 -0.0117385 0.999414 
0.0312959 -0.0109402 0.99945 
0.0317955 -0.0107211 0.999437 
0.0301087 -0.0105293 0.999491 
0.029386 -0.0100732 0.999517 
0.0295486 -0.0086372 0.999526 
0.0283893 -0.00638042 0.999577 
0.0286991 -0.00383806 0.999581 
0.0274589 -0.000677824 0.999623 
0.0273991 0.00282029 0.999621 
0.0269213 0.00703551 0.999613 
0.0266195 0.0118434 0.999575 
0.0250345 0.0174696 0.999534 
0.0241822 0.0243618 0.999411 
0.0236902 0.0325427 0.99919 
0.0235869 0.0425455 0.998816 
0.0228322 0.0548087 0.998236 
0.0219783 0.0701029 0.997298 
0.0205253 0.089956 0.995734 
0.0188221 0.115041 0.993182 
0.015988 0.147654 0.98891 
0.0136051 0.186004 0.982455 
0.0122107 0.231097 0.972854 
0.0116704 0.282975 0.959056 
0.0118872 0.339572 0.940505 
0.0141269 0.404143 0.914587 
0.0127974 0.45682 0.889467 
0.0216045 0.5478 0.83633 
0.02871 0.611808 0.790485 
0.0150688 0.693638 0.720166 
0.0335384 0.839781 0.541888 
0.00369278 0.991641 0.128977 
-0.00579796 0.992596 -0.121327 
-0.0284551 0.908773 -0.416319 
-0.021701 0.821392 -0.569951 
-0.0297877 0.693707 -0.719641 
-0.0297059 0.589631 -0.807126 
-0.0236755 0.524148 -0.851298 
-0.0159831 0.450561 -0.892603 
-0.0142489 0.38928 -0.921009 
-0.0118247 0.330629 -0.943687 
-0.0125796 0.27047 -0.962646 
-0.0142252 0.215123 -0.976483 
-0.0167203 0.172222 -0.984916 
-0.0173157 0.135234 -0.990662 
-0.0199623 0.106702 -0.994091 
-0.021476 0.0846012 -0.996183 
-0.0217618 0.066105 -0.997575 
-0.0228986 0.0517452 -0.998398 
-0.0227917 0.039594 -0.998956 
-0.0246074 0.0296011 -0.999259 
-0.0253905 0.0216906 -0.999442 
-0.0251053 0.0151075 -0.999571 
-0.025497 0.00984641 -0.999626 
-0.0260843 0.00522506 -0.999646 
-0.0268433 0.0014639 -0.999639 
-0.0279995 -0.0020448 -0.999606 
-0.0284333 -0.00483531 -0.999584 
-0.0292124 -0.0073817 -0.999546 
-0.0297793 -0.00936377 -0.999513 
-0.0303608 -0.010479 -0.999484 
-0.0306831 -0.0107702 -0.999471 
-0.030683 -0.0107069 -0.999472 
-0.0310191 -0.0111142 -0.999457 
-0.0312449 -0.012515 -0.999433 
-0.0318356 -0.0150009 -0.999381 
-0.0319021 -0.0201345 -0.999288 
-0.0269007 -0.027814 -0.999251 
-0.0272017 -0.0341317 -0.999047 
-0.0211751 -0.0425749 -0.998869 
-0.0174954 -0.034654 -0.999246 
0.000237085 0.000105311 -1 
-0.000201056 0.000165052 1 
0.00842799 -0.0322558 0.999444 
0.0170524 -0.0439158 0.99889 
0.0203775 -0.0345576 0.999195 
0.0169227 -0.0259225 0.999521 
0.0257044 -0.0209888 0.999449 
0.0212108 -0.0170902 0.999629 
0.0238267 -0.0125627 0.999637 
0.0214907 -0.0105426 0.999713 
0.0233578 -0.00994642 0.999678 
0.0215414 -0.00979222 0.99972 
0.0201907 -0.00971792 0.999749 
0.0210128 -0.00890438 0.99974 
0.0198007 -0.00695722 0.99978 
0.0189887 -0.00433289 0.99981 
0.0188543 -0.00157944 0.999821 
0.0178314 0.00187206 0.999839 
0.0175754 0.00560961 0.99983 
0.0169058 0.0100016 0.999807 
0.0158474 0.0149195 0.999763 
0.0150724 0.0211332 0.999663 
0.0144812 0.0287591 0.999481 
0.0145309 0.038197 0.999165 
0.0141984 0.0497618 0.99866 
0.0136188 0.064425 0.99783 
0.012919 0.0827318 0.996488 
0.011323 0.10636 0.994263 
0.00905393 0.135113 0.990789 
0.00576954 0.172437 0.985004 
0.00383616 0.215371 0.976525 
0.00256548 0.264339 0.964426 
0.00217832 0.314833 0.949145 
0.00411416 0.367314 0.930088 
0.00394058 0.416792 0.908993 
0.0205964 0.522289 0.85252 
0.0268322 0.573634 0.818672 
0.0360456 0.692762 0.720265 
0.0268653 0.70591 0.707792 
0.025337 0.917421 0.39711 
0.0204502 0.969093 0.245847 
-0.0157727 0.986252 -0.164496 
-0.0394447 0.84378 -0.535238 
-0.0378869 0.649346 -0.759549 
-0.0337763 0.581745 -0.812669 
-0.0146823 0.503387 -0.863936 
-0.00233825 0.444035 -0.896006 
-0.00461809 0.394342 -0.918952 
-0.00247906 0.336564 -0.941657 
-0.00259873 0.283431 -0.958989 
-0.00519613 0.233368 -0.972374 
-0.00647365 0.190249 -0.981715 
-0.00895344 0.15438 -0.987971 
-0.01045 0.119389 -0.992793 
-0.012384 0.0953799 -0.995364 
-0.0134534 0.0750578 -0.997088 
-0.0136365 0.0574402 -0.998256 
-0.0139322 0.0446071 -0.998907 
-0.0149903 0.0327524 -0.999351 
-0.0157223 0.0242421 -0.999582 
-0.0157378 0.0174879 -0.999723 
-0.0154935 0.0118142 -0.99981 
-0.016428 0.00717556 -0.999839 
-0.016726 0.00322672 -0.999855 
-0.018483 -0.000300006 -0.999829 
-0.0185651 -0.0032716 -0.999822 
-0.0198136 -0.00595826 -0.999786 
-0.0206432 -0.00822081 -0.999753 
-0.0208464 -0.00959692 -0.999737 
-0.0218507 -0.010014 -0.999711 
-0.0215843 -0.00978486 -0.999719 
-0.0216067 -0.0101247 -0.999715 
-0.0227796 -0.0117063 -0.999672 
-0.0217409 -0.0151115 -0.999649 
-0.023518 -0.0203768 -0.999516 
-0.0194014 -0.0292608 -0.999384 
-0.0182698 -0.0391462 -0.999066 
-0.0134261 -0.0454291 -0.998877 
-0.0105447 -0.0322096 -0.999426 
0.000276279 8.24388e-05 -1 
-0.000105587 0.000139715 1 
0.00519674 -0.0344894 0.999392 
0.0114108 -0.0450632 0.998919 
0.0111702 -0.0463203 0.998864 
0.0132117 -0.0362156 0.999257 
0.012821 -0.0222928 0.999669 
0.0152436 -0.0149464 0.999772 
0.0142211 -0.011273 0.999835 
0.0147172 -0.00942917 0.999847 
0.0143531 -0.00910338 0.999856 
0.0130438 -0.00922657 0.999872 
0.0129725 -0.00887769 0.999876 
0.0126455 -0.00747373 0.999892 
0.0118633 -0.00511688 0.999917 
0.0107377 -0.00227506 0.99994 
0.0105212 0.000636353 0.999944 
0.00956102 0.00408492 0.999946 
0.0090127 0.00779386 0.999929 
0.00792175 0.0120275 0.999896 
0.00745521 0.0171976 0.999824 
0.00698398 0.0237162 0.999694 
0.00675749 0.0320647 0.999463 
0.00671864 0.0422594 0.999084 
0.00656167 0.0552649 0.99845 
0.00605842 0.0716181 0.997414 
0.00533666 0.0916741 0.995775 
0.00326373 0.116211 0.993219 
0.000741812 0.146572 0.9892 
-0.00288634 0.18455 0.982819 
-0.00594509 0.225735 0.974171 
-0.00758575 0.269046 0.963097 
-0.0101484 0.319575 0.947507 
-0.0100725 0.368604 0.929532 
-0.0107981 0.42232 0.906382 
0.000141749 0.470566 0.882365 
0.0133521 0.513979 0.857699 
0.0380139 0.65127 0.757894 
0.0320444 0.776641 0.629127 
0.0339785 0.928664 0.369362 
-0.00373196 0.999024 -0.0440028 
-0.0318141 0.958042 -0.284856 
-0.0462481 0.732503 -0.679191 
-0.0251773 0.59351 -0.804433 
-0.00290271 0.508816 -0.86087 
0.0149556 0.442559 -0.896615 
0.0108391 0.388564 -0.921358 
0.0105552 0.340775 -0.940085 
0.0104277 0.299055 -0.954179 
0.00607108 0.252252 -0.967642 
0.00399119 0.211639 -0.97734 
0.00107952 0.174348 -0.984683 
-0.00283101 0.139956 -0.990154 
-0.00352184 0.111055 -0.993808 
-0.00552411 0.0887953 -0.996035 
-0.00663996 0.068967 -0.997597 
-0.00591304 0.0538633 -0.998531 
-0.00720453 0.040338 -0.99916 
-0.00717876 0.0302278 -0.999517 
-0.00745683 0.0225585 -0.999718 
-0.00761987 0.016309 -0.999838 
-0.00761149 0.0111494 -0.999909 
-0.00842925 0.00693772 -0.99994 
-0.00914369 0.00315688 -0.999953 
-0.0104004 -4.47896e-05 -0.999946 
-0.010863 -0.00295789 -0.999937 
-0.0122346 -0.00570836 -0.999909 
-0.012928 -0.00788963 -0.999885 
-0.0131722 -0.00915815 -0.999871 
-0.0140979 -0.00941073 -0.999856 
-0.0137399 -0.00915091 -0.999864 
-0.0138687 -0.00980633 -0.999856 
-0.0149448 -0.0121572 -0.999814 
-0.0136221 -0.0164208 -0.999772 
-0.0151391 -0.022848 -0.999624 
-0.012217 -0.032576 -0.999395 
-0.0126453 -0.0415744 -0.999055 
-0.00911132 -0.0487239 -0.998771 
-0.00687814 -0.0362541 -0.999319 
1.94517e-05 4.21505e-05 -1 
-8.27482e-05 9.27394e-05 1 
0.00388332 -0.038013 0.99927 
0.00731811 -0.0492551 0.998759 
0.00712512 -0.0446585 0.998977 
0.00930709 -0.0322269 0.999437 
0.00726908 -0.0238189 0.99969 
0.00884562 -0.0158852 0.999835 
0.00782666 -0.0115134 0.999903 
0.00910841 -0.00935213 0.999915 
0.00822928 -0.00864555 0.999929 
0.00814972 -0.00885414 0.999928 
0.00801313 -0.00863704 0.999931 
0.00745758 -0.00723346 0.999946 
0.00699477 -0.00506325 0.999963 
0.00608153 -0.00227318 0.999979 
0.00523548 0.000839287 0.999986 
0.00454764 0.00391732 0.999982 
0.00371918 0.0075151 0.999965 
0.00275161 0.0115382 0.99993 
0.00230522 0.0162567 0.999865 
0.00201757 0.0221749 0.999752 
0.00190343 0.0299578 0.999549 
0.00168704 0.0401465 0.999192 
0.00161559 0.0527457 0.998607 
0.00118558 0.0689155 0.997622 
0.000285551 0.0892498 0.996009 
-0.001707 0.113421 0.993546 
-0.00446149 0.143044 0.989706 
-0.00829228 0.178998 0.983815 
-0.0133824 0.222441 0.974854 
-0.0179596 0.267409 0.963416 
-0.0216945 0.311792 0.949903 
-0.0251085 0.363601 0.931216 
-0.0381977 0.418015 0.907637 
-0.025477 0.421947 0.906262 
-0.0178049 0.483372 0.875234 
0.0210556 0.582869 0.812293 
0.044039 0.735857 0.675703 
0.0423962 0.781583 0.622359 
0.00737672 0.992426 0.122623 
-0.0552493 0.796994 -0.601455 
-0.0474725 0.638833 -0.767879 
-0.00243076 0.569794 -0.821784 
0.0142342 0.494065 -0.869309 
0.0329106 0.436583 -0.899062 
0.0289832 0.388917 -0.920817 
0.027697 0.348421 -0.936929 
0.0226652 0.304632 -0.952201 
0.0172062 0.260851 -0.965226 
0.0131416 0.221045 -0.975175 
0.00892592 0.184333 -0.982823 
0.00413183 0.150382 -0.988619 
0.00202033 0.121678 -0.992568 
0.000293939 0.0946042 -0.995515 
-0.0014407 0.0749532 -0.997186 
-0.00112225 0.0582762 -0.9983 
-0.00195188 0.0436966 -0.999043 
-0.0019588 0.0328029 -0.99946 
-0.00199988 0.02445 -0.999699 
-0.00224614 0.0180614 -0.999834 
-0.00250261 0.0129406 -0.999913 
-0.00303301 0.0085925 -0.999958 
-0.00399293 0.00496073 -0.99998 
-0.004844 0.00165717 -0.999987 
-0.00571308 -0.00124042 -0.999983 
-0.00677124 -0.00422751 -0.999968 
-0.00752391 -0.0067006 -0.999949 
-0.00797819 -0.00838987 -0.999933 
-0.00848312 -0.00896113 -0.999924 
-0.00845262 -0.00875502 -0.999926 
-0.00831944 -0.00910444 -0.999924 
-0.0087324 -0.0113668 -0.999897 
-0.0082061 -0.0161685 -0.999836 
-0.00882895 -0.0243161 -0.999665 
-0.00703292 -0.0342463 -0.999389 
-0.00756296 -0.0444075 -0.998985 
-0.00577879 -0.051067 -0.998679 
-0.00482333 -0.0388392 -0.999234 
0.000117836 7.59674e-05 -1 
-5.15788e-05 3.69882e-05 1 
0.00317935 -0.0386565 0.999248 
0.00506365 -0.0515278 0.998659 
0.00430356 -0.0454601 0.998957 
0.00545799 -0.034888 0.999376 
0.00423174 -0.0244817 0.999691 
0.00494508 -0.015727 0.999864 
0.00475873 -0.0107779 0.999931 
0.00552585 -0.00874517 0.999946 
0.00524067 -0.00839093 0.999951 
0.00556009 -0.00864856 0.999947 
0.00525454 -0.00780331 0.999956 
0.00476559 -0.00581985 0.999972 
0.0042054 -0.00327508 0.999986 
0.00345768 -0.00028032 0.999994 
0.002606 0.00279634 0.999993 
0.00187377 0.00584896 0.999981 
0.00106573 0.00932556 0.999956 
0.000341025 0.013305 0.999911 
-9.85824e-05 0.018009 0.999838 
-0.000352417 0.0240845 0.99971 
-0.000502751 0.0320855 0.999485 
-0.000734173 0.0425729 0.999093 
-0.000941784 0.0560838 0.998426 
-0.00155876 0.07355 0.99729 
-0.00284487 0.0942999 0.99554 
-0.00510888 0.120125 0.992746 
-0.00837785 0.150458 0.988581 
-0.0129025 0.186994 0.982276 
-0.0189625 0.228062 0.973462 
-0.0262779 0.27354 0.961502 
-0.033659 0.317529 0.947651 
-0.0379247 0.359769 0.93227 
-0.0517664 0.42988 0.901401 
-0.0350201 0.485196 0.873704 
-0.052716 0.495566 0.866969 
0.00136647 0.533329 0.845907 
0.0399493 0.625115 0.779509 
0.0515555 0.856946 0.512821 
0.00697888 0.9984 0.0561071 
-0.0525985 0.9067 -0.418483 
-0.0679666 0.690722 -0.71992 
0.0366487 0.487181 -0.872532 
0.0591295 0.497987 -0.865166 
0.0527825 0.443882 -0.894529 
0.0502963 0.406202 -0.912398 
0.0447515 0.367517 -0.928939 
0.0352948 0.321608 -0.946215 
0.0269723 0.276491 -0.960638 
0.0197998 0.233544 -0.972145 
0.0133175 0.191786 -0.981346 
0.00808222 0.153819 -0.988066 
0.00460539 0.120903 -0.992654 
0.00284281 0.0962742 -0.995351 
0.00135971 0.0744722 -0.997222 
0.000953181 0.0559683 -0.998432 
0.000552214 0.0422765 -0.999106 
0.000514494 0.0317927 -0.999494 
0.000418981 0.0238517 -0.999715 
0.000132522 0.0177728 -0.999842 
-0.000327257 0.012843 -0.999917 
-0.000967021 0.00885706 -0.99996 
-0.00185959 0.00538364 -0.999984 
-0.00263495 0.00241676 -0.999994 
-0.00362757 -0.000772731 -0.999993 
-0.00439691 -0.00365429 -0.999984 
-0.00502696 -0.00624292 -0.999968 
-0.0054978 -0.00813145 -0.999952 
-0.00560552 -0.00867257 -0.999947 
-0.00557598 -0.00854581 -0.999948 
-0.00514629 -0.00900743 -0.999946 
-0.00526651 -0.0111805 -0.999924 
-0.00457469 -0.0153774 -0.999871 
-0.0051991 -0.0227951 -0.999727 
-0.00438329 -0.0331849 -0.99944 
-0.00470352 -0.0453396 -0.998961 
-0.00422451 -0.0515884 -0.998659 
-0.00336093 -0.036033 -0.999345 
4.55711e-05 6.23547e-05 -1 
-2.58252e-05 2.71803e-05 1 
0.0029258 -0.0397008 0.999207 
0.003779 -0.0516222 0.99866 
0.00316302 -0.0455406 0.998957 
0.00332858 -0.0336818 0.999427 