# vtk DataFile Version 3.0 
Exported using Morpho https://github.com/Morpho-lang/morpho 
ASCII 
DATASET UNSTRUCTURED_GRID 

POINTS 1978 float 
-12 -4 -6.98296e-13 
-11.6408 -4 1.49573e-12 
-11.3467 -4 2.01893e-12 
-10.9862 -4 2.12549e-12 
-10.6659 -4 1.72343e-12 
-10.3285 -4 2.57296e-12 
-10.0021 -4 1.83661e-12 
-9.68133 -4 1.50915e-12 
-9.34076 -4 1.28923e-12 
-9.00493 -4 7.50257e-13 
-8.68996 -4 5.92151e-13 
-8.37637 -4 3.84283e-13 
-8.06946 -4 4.7933e-13 
-7.77599 -4 -2.11762e-14 
-7.48804 -4 -8.03955e-14 
-7.21107 -4 4.57168e-15 
-6.92043 -4 -4.47937e-13 
-6.61714 -4 -4.80675e-13 
-6.31762 -4 -6.49442e-13 
-6.02121 -4 -9.92818e-13 
-5.72616 -4 -1.31354e-12 
-5.43524 -4 -1.74403e-12 
-5.14925 -4 -2.26508e-12 
-4.86006 -4 -3.08672e-12 
-4.55675 -4 -4.37497e-12 
-4.25178 -4 -5.23039e-12 
-3.96863 -4 -6.68763e-12 
-3.66695 -4 -8.6289e-12 
-3.39233 -4 -9.53143e-12 
-3.10603 -4 -1.1296e-11 
-2.84519 -4 -9.23642e-12 
-2.58624 -4 -4.89903e-12 
-2.33474 -4 -7.82156e-13 
-2.08846 -4 -1.16048e-11 
-1.85034 -4 -3.74527e-13 
-1.60457 -4 -2.36598e-12 
-1.33672 -4 -2.35325e-11 
-1.04919 -4 -3.64542e-10 
-0.6915 -4 -1.58072e-09 
-0.262184 -4 -1.97994e-09 
0.164694 -4 -4.71995e-09 
0.823384 -4 1.49801e-09 
1.11646 -4 -6.02986e-10 
1.41116 -4 -1.22136e-10 
1.6837 -4 -7.99287e-11 
2.0708 -4 6.21389e-11 
2.29555 -4 -3.18767e-11 
2.57653 -4 1.08906e-11 
2.85667 -4 1.38725e-11 
3.13047 -4 1.30739e-11 
3.41182 -4 9.69096e-12 
3.6761 -4 7.19786e-12 
3.9581 -4 7.01478e-12 
4.247 -4 5.26869e-12 
4.53249 -4 3.67693e-12 
4.82074 -4 3.17035e-12 
5.11026 -4 2.34679e-12 
5.40776 -4 1.9418e-12 
5.70917 -4 1.11035e-12 
5.99795 -4 1.50952e-12 
6.29492 -4 -2.0032e-15 
6.58001 -4 7.8563e-13 
6.87844 -4 6.31402e-13 
7.17162 -4 6.78274e-13 
7.47032 -4 -1.20972e-12 
7.76095 -4 6.6594e-13 
8.0667 -4 -7.08643e-13 
8.36231 -4 -1.49891e-15 
8.66323 -4 -6.81729e-13 
8.95779 -4 -7.03477e-13 
9.29477 -4 -1.23818e-12 
9.62368 -4 -1.44481e-12 
9.92557 -4 -1.95006e-12 
10.3047 -4 -2.39553e-12 
10.632 -4 -2.06722e-12 
11.005 -4 -2.27167e-12 
11.3269 -4 -1.602e-12 
11.6112 -4 -2.04889e-12 
12 -4 1.27735e-13 
-12 -3.62893 6.62803e-12 
-11.7004 -3.68557 -5.62118e-12 
-11.3692 -3.6182 -4.16671e-12 
-11.0637 -3.68977 -4.93707e-12 
-10.7194 -3.65502 -4.46668e-12 
-10.3953 -3.67551 -3.46668e-12 
-10.0568 -3.66682 -2.77916e-12 
-9.72905 -3.66355 -2.35556e-12 
-9.40149 -3.68182 -1.82557e-12 
-9.06199 -3.68409 -1.49651e-12 
-8.72292 -3.66809 -1.09144e-12 
-8.39978 -3.67231 -7.62255e-13 
-8.07667 -3.65413 -4.24111e-13 
-7.77029 -3.65732 -2.1758e-13 
-7.47547 -3.64745 5.61254e-14 
-7.1725 -3.66178 3.24799e-13 
-6.85873 -3.67572 6.0345e-13 
-6.54636 -3.67423 9.45911e-13 
-6.23799 -3.67365 1.38548e-12 
-5.92965 -3.67454 1.95044e-12 
-5.62486 -3.67115 2.67228e-12 
-5.32328 -3.66617 3.65873e-12 
-5.02187 -3.67191 4.95768e-12 
-4.70949 -3.68979 6.63111e-12 
-4.38515 -3.69265 8.79124e-12 
-4.07331 -3.66996 1.20079e-11 
-3.76124 -3.69453 1.46641e-11 
-3.44962 -3.66767 1.83325e-11 
-3.15452 -3.68068 2.04935e-11 
-2.85671 -3.64787 1.8002e-11 
-2.581 -3.64974 1.4512e-11 
-2.30387 -3.64616 2.08999e-11 
-2.03861 -3.61773 1.59973e-11 
-1.77994 -3.60753 6.27772e-11 
-1.50362 -3.61172 2.24745e-10 
-1.36489 -3.24148 4.39369e-10 
-1.20542 -3.61697 6.04842e-10 
-0.868035 -3.66581 1.60048e-09 
-0.463327 -3.69674 3.93286e-09 
-0.0302562 -3.69241 -4.23303e-11 
0.365189 -3.66638 -7.7309e-09 
0.655423 -3.81629 8.85785e-09 
1.1083 -3.58188 4.79036e-10 
1.37913 -3.59872 -4.49354e-11 
1.64301 -3.60253 7.62889e-12 
1.91285 -3.75595 5.48617e-12 
2.14912 -3.55952 -6.47189e-11 
2.36958 -3.66082 -1.90607e-12 
2.66729 -3.66676 -2.45041e-11 
2.97178 -3.67351 -2.47532e-11 
3.28869 -3.68838 -2.0234e-11 
3.59691 -3.66628 -1.68034e-11 
3.8921 -3.68502 -1.31489e-11 
4.19657 -3.68194 -1.03143e-11 
4.50354 -3.67013 -8.12034e-12 
4.80615 -3.66723 -6.04795e-12 
5.11158 -3.66329 -4.4212e-12 
5.42044 -3.67578 -3.24073e-12 
5.72578 -3.6651 -2.45441e-12 
6.0292 -3.67425 -1.76657e-12 
6.32589 -3.66044 -1.28787e-12 
6.62788 -3.67253 -8.84198e-13 
6.92781 -3.66337 -5.70233e-13 
7.22801 -3.66626 -2.89465e-13 
7.52566 -3.65402 -3.37269e-14 
7.82883 -3.6674 2.2236e-13 
8.13062 -3.6535 4.88686e-13 
8.43473 -3.65685 7.77225e-13 
8.73527 -3.64593 1.13835e-12 
9.06014 -3.68769 1.48898e-12 
9.39221 -3.67805 1.86283e-12 
9.70519 -3.64632 2.29937e-12 
10.0546 -3.71634 2.76516e-12 
10.3968 -3.66878 3.48484e-12 
10.7546 -3.70709 4.40339e-12 
11.088 -3.65789 5.02324e-12 
11.3844 -3.61144 4.00668e-12 
11.7236 -3.7156 5.57369e-12 
12 -3.60343 -6.54234e-12 
-12 -3.31519 3.39361e-12 
-11.6498 -3.3344 -2.54567e-12 
-11.3091 -3.28011 -5.08628e-13 
-10.9952 -3.35251 -3.11858e-12 
-10.6711 -3.31508 -2.57505e-12 
-10.3457 -3.34797 -2.11635e-12 
-10.024 -3.33116 -1.48501e-12 
-9.70213 -3.33247 -1.09202e-12 
-9.37699 -3.35804 -1.00494e-12 
-9.04988 -3.36328 -8.36194e-13 
-8.75753 -3.31307 -5.48483e-13 
-8.45673 -3.34347 -4.28044e-13 
-8.14637 -3.33002 -2.74527e-13 
-7.82888 -3.32148 -9.45289e-14 
-7.52759 -3.30789 7.72121e-15 
-7.22537 -3.32438 1.18881e-13 
-6.92287 -3.34699 2.75552e-13 
-6.61931 -3.35087 4.6444e-13 
-6.31536 -3.34915 6.65866e-13 
-6.01301 -3.35228 9.51378e-13 
-5.71126 -3.34664 1.2528e-12 
-5.41277 -3.34036 1.62536e-12 
-5.11324 -3.34164 2.2132e-12 
-4.81244 -3.36711 3.32143e-12 
-4.50572 -3.38863 4.83547e-12 
-4.19955 -3.36091 5.6747e-12 
-3.88052 -3.37362 7.33651e-12 
-3.58648 -3.36507 8.51212e-12 
-3.28499 -3.3479 9.1518e-12 
-3.00771 -3.33955 1.169e-11 
-2.72699 -3.30446 1.08566e-11 
-2.45243 -3.31435 2.19304e-11 
-2.18066 -3.27681 3.06092e-11 
-1.91187 -3.22074 7.53947e-11 
-1.64924 -3.22775 9.53226e-11 
-1.35745 -2.87306 9.74138e-11 
-1.04094 -3.28763 1.54244e-09 
-0.688179 -3.36193 3.79869e-09 
-0.307394 -3.38413 5.5716e-10 
0.0731199 -3.34618 2.71376e-09 
0.494023 -3.33832 -6.59622e-09 
0.966215 -3.16417 6.65938e-10 
0.800867 -3.48452 -4.85785e-09 
1.26514 -3.17709 -4.87909e-10 
1.54192 -3.19642 -1.90837e-10 
1.85172 -3.36872 -8.74157e-11 
2.18135 -3.23546 -1.17199e-11 
2.4785 -3.32427 1.17924e-11 
2.75217 -3.3238 -1.10633e-11 
3.01814 -3.35649 -9.53819e-12 
3.31406 -3.37975 -9.4771e-12 
3.60223 -3.34018 -7.03941e-12 
3.89489 -3.37118 -7.66568e-12 
4.19579 -3.36456 -6.07431e-12 
4.49768 -3.34647 -4.00403e-12 
4.80159 -3.34153 -3.10229e-12 
5.10694 -3.33591 -2.29757e-12 
5.41024 -3.35423 -1.75129e-12 
5.7098 -3.33535 -1.18207e-12 
6.01026 -3.34684 -9.1936e-13 
6.30982 -3.3307 -5.9556e-13 
6.61008 -3.34397 -4.57861e-13 
6.91215 -3.33381 -2.71233e-13 
7.2157 -3.33007 -1.39982e-13 
7.52242 -3.32378 -6.48748e-15 
7.83035 -3.32906 1.22598e-13 
8.13738 -3.3152 2.42444e-13 
8.44107 -3.31114 3.86095e-13 
8.76367 -3.32136 5.61207e-13 
9.08603 -3.36634 8.61129e-13 
9.40269 -3.33893 8.97328e-13 
9.72236 -3.30578 9.50024e-13 
10.031 -3.40314 1.90782e-12 
10.32 -3.31615 1.79008e-12 
10.6439 -3.38923 3.15263e-12 
10.9712 -3.34419 3.03431e-12 
11.2905 -3.25966 3.72569e-13 
11.6337 -3.35918 2.61039e-12 
12 -3.30339 -3.28162e-12 
-12 -3.00023 2.31806e-12 
-11.6545 -3.01591 -4.53531e-13 
-11.3108 -2.96072 1.79506e-12 
-10.9652 -3.01038 -2.49891e-13 
-10.6316 -2.98577 -3.46581e-13 
-10.3112 -3.01127 -2.42547e-13 
-9.98421 -2.9987 -1.94059e-14 
-9.66291 -2.99422 2.05941e-13 
-9.35695 -3.03088 1.49724e-13 
-9.05922 -3.00671 5.9153e-14 
-8.74376 -2.98117 5.55363e-14 
-8.43063 -3.00351 -2.96679e-14 
-8.11646 -3.0033 -1.46492e-14 
-7.81044 -2.98556 -1.26196e-14 
-7.50162 -2.97881 -8.58831e-15 
-7.20143 -2.98993 -7.00554e-15 
-6.90425 -3.01695 1.17382e-14 
-6.60296 -3.02417 1.74346e-14 
-6.30339 -3.02275 2.86903e-14 
-6.00414 -3.02678 4.33727e-14 
-5.70747 -3.01827 4.75475e-14 
-5.41011 -3.01378 4.17099e-14 
-5.11069 -3.01666 8.23324e-14 
-4.80946 -3.04179 3.04236e-13 
-4.50852 -3.07078 5.15725e-13 
-4.22521 -3.01559 1.49144e-13 
-3.93858 -3.07044 9.15418e-13 
-3.62285 -3.03942 8.11005e-13 
-3.32402 -3.03305 8.8013e-13 
-3.02363 -3.0007 -7.71196e-13 
-2.73111 -2.97375 4.66942e-12 
-2.44601 -2.97122 -2.49644e-12 
-2.16418 -2.92243 -1.07209e-12 
-1.89802 -2.83108 -3.33145e-11 
-1.63286 -2.84051 6.74453e-11 
-1.13974 -2.57615 8.96627e-10 
-1.05137 -2.94295 2.09242e-10 
-0.700492 -3.0293 8.0461e-10 
-0.331182 -3.06294 1.71033e-08 
0.0164811 -2.99166 -1.18594e-08 
0.416017 -3.0513 -3.35688e-09 
0.790038 -2.95573 -2.54779e-10 
1.1522 -2.77838 -2.56791e-09 
1.43173 -2.77785 -4.41306e-10 
1.70467 -2.82815 -2.09013e-10 
1.90475 -3.05174 7.20818e-11 
2.14306 -2.82169 -4.17167e-11 
2.4027 -2.98132 4.2115e-12 
2.68246 -2.99456 -9.29445e-12 
2.98556 -2.98978 -2.63955e-12 
3.25698 -3.06409 -1.86765e-12 
3.55037 -3.02282 -7.12758e-13 
3.86363 -3.05027 -8.51472e-13 
4.16414 -3.04376 -5.80221e-13 
4.46789 -3.02493 -1.68763e-13 
4.7759 -3.01942 -3.12642e-13 
5.08439 -3.01542 -1.45103e-13 
5.39441 -3.02735 -1.33547e-13 
5.69551 -3.00748 -2.02344e-14 
5.99562 -3.01929 -4.20591e-14 
6.2972 -3.005 8.73977e-15 
6.59956 -3.01677 -8.01111e-15 
6.90309 -3.00943 -3.67068e-15 
7.21021 -3.00269 1.17307e-15 
7.513 -2.99245 5.31776e-15 
7.81843 -2.9974 9.73738e-15 
8.12127 -2.97885 7.9436e-15 
8.42818 -2.9716 -2.49664e-15 
8.73749 -2.99363 -3.23192e-14 
9.06097 -3.0338 -4.49115e-14 
9.38339 -3.01008 -1.81094e-13 
9.67926 -2.95473 -2.69848e-13 
9.99704 -3.04146 1.23728e-13 
10.3228 -2.98229 1.69643e-13 
10.6465 -3.05441 6.35277e-13 
10.9697 -3.00349 1.42838e-13 
11.3184 -2.94323 -1.90403e-12 
11.6562 -3.04897 5.76423e-13 
12 -2.98453 -2.36271e-12 
-12 -2.68357 2.77629e-12 
-11.6595 -2.69971 -2.11219e-13 
-11.3426 -2.62571 1.76514e-12 
-11.0067 -2.69159 4.53344e-13 
-10.666 -2.66298 5.23072e-14 
-10.3299 -2.6749 1.02321e-13 
-10.0081 -2.67241 2.19812e-13 
-9.67836 -2.66611 3.76649e-13 
-9.35141 -2.67865 3.57347e-13 
-9.0333 -2.67478 2.28407e-13 
-8.70931 -2.65555 1.17584e-13 
-8.3933 -2.67747 4.64446e-14 
-8.0812 -2.67299 2.88824e-14 
-7.76645 -2.66215 3.93668e-15 
-7.45931 -2.65027 -8.66949e-15 
-7.15743 -2.66124 -2.44228e-14 
-6.85848 -2.69089 -4.21777e-14 
-6.5592 -2.69766 -6.11605e-14 
-6.25872 -2.69798 -8.32398e-14 
-5.96198 -2.69868 -1.14513e-13 
[...]
POINT_DATA 1978 
VECTORS vectors float
0.000488028 -0.000162111 1 
0.00106714 -0.0125757 0.99992 
0.00111685 -0.0110285 0.999939 
0.00113649 -0.00778994 0.999969 
0.0010895 -0.0064722 0.999978 
0.00106995 -0.00583577 0.999982 
0.00105048 -0.00511618 0.999986 
0.00110002 -0.00420674 0.999991 
0.001158 -0.00310323 0.999995 
0.00110638 -0.00222281 0.999997 
0.00102587 -0.00160867 0.999998 
0.00106556 -0.0011452 0.999999 
0.000966868 -0.000713179 0.999999 
0.000867588 -0.000284052 1 
0.00087549 6.14587e-05 1 
0.000832356 0.000387788 1 
0.000943853 0.000828446 0.999999 
0.0010231 0.00134438 0.999999 
0.000985456 0.00191056 0.999998 
0.000949225 0.00262678 0.999996 
0.000914592 0.00357898 0.999993 
0.000869146 0.00482832 0.999988 
0.000866479 0.00646185 0.999979 
0.000931282 0.00872467 0.999962 
0.000955365 0.0120455 0.999927 
0.000893035 0.0167159 0.99986 
0.00080732 0.0228356 0.999739 
0.000726052 0.0321121 0.999484 
0.000626 0.0438969 0.999036 
0.000467037 0.0608257 0.998148 
0.000337827 0.0820533 0.996628 
0.000228098 0.110243 0.993905 
0.00010526 0.146821 0.989163 
-3.34473e-05 0.192118 0.981372 
-0.000180406 0.249119 0.968473 
-0.000384592 0.324643 0.945837 
-0.000742754 0.426875 0.904311 
-0.00134104 0.561526 0.827458 
-0.00172853 0.756466 0.654031 
-0.000363137 0.959995 0.280016 
0.00296508 0.976686 -0.214652 
0.00351898 0.67193 -0.740606 
0.000927229 0.529916 -0.84805 
0.000654326 0.399556 -0.916709 
0.000688043 0.298757 -0.954329 
0.000224624 0.194422 -0.980918 
-0.000107885 0.153088 -0.988213 
-0.000308678 0.109194 -0.99402 
-0.000444069 0.0805714 -0.996749 
-0.000501062 0.0594049 -0.998234 
-0.000551658 0.0432249 -0.999065 
-0.00067287 0.0320453 -0.999486 
-0.000726 0.0233 -0.999728 
-0.000782549 0.0165869 -0.999862 
-0.000864466 0.0121508 -0.999926 
-0.000843915 0.00907849 -0.999958 
-0.000909749 0.00670528 -0.999977 
-0.000975653 0.00498185 -0.999987 
-0.000954637 0.00366966 -0.999993 
-0.000917684 0.00274551 -0.999996 
-0.000909465 0.00202214 -0.999998 
-0.000922926 0.00146276 -0.999999 
-0.000952681 0.000960126 -0.999999 
-0.000952028 0.000518189 -0.999999 
-0.000955402 0.00010551 -1 
-0.000972919 -0.000280965 -0.999999 
-0.000987642 -0.000701838 -0.999999 
-0.000946621 -0.00111151 -0.999999 
-0.000942923 -0.00155517 -0.999998 
-0.0010841 -0.00212178 -0.999997 
-0.00113026 -0.00301898 -0.999995 
-0.00101662 -0.00399733 -0.999992 
-0.0010663 -0.00482449 -0.999988 
-0.0011332 -0.00575353 -0.999983 
-0.00114137 -0.00640266 -0.999979 
-0.00107024 -0.00786782 -0.999968 
-0.000967075 -0.0108168 -0.999941 
-0.00115193 -0.0126358 -0.99992 
-0.000605743 -0.000216574 -1 
-0.00111745 -0.000932879 0.999999 
0.0051334 -0.00940355 0.999943 
0.00702001 -0.0109397 0.999916 
0.00695935 -0.00885017 0.999937 
0.00755642 -0.00680466 0.999948 
0.00744458 -0.0056945 0.999956 
0.00751529 -0.00486924 0.99996 
0.00761704 -0.00408462 0.999963 
0.0074304 -0.00324772 0.999967 
0.007458 -0.00240105 0.999969 
0.00760473 -0.00170155 0.99997 
0.00769913 -0.0011719 0.99997 
0.00791318 -0.000712339 0.999968 
0.00793443 -0.000286745 0.999968 
0.00819913 7.61491e-05 0.999966 
0.00795825 0.00046301 0.999968 
0.00785873 0.000926283 0.999969 
0.00793145 0.00145489 0.999967 
0.00795779 0.00208797 0.999966 
0.00795147 0.00291314 0.999964 
0.00795775 0.00400853 0.99996 
0.00796233 0.00547382 0.999953 
0.0078144 0.00748269 0.999941 
0.00747811 0.0103909 0.999918 
0.00726799 0.0147014 0.999866 
0.00733259 0.0207098 0.999759 
0.00674535 0.0293081 0.999548 
0.00677931 0.0417474 0.999105 
0.00622899 0.058131 0.99829 
0.00605218 0.0815526 0.996651 
0.0053961 0.111303 0.993772 
0.00477527 0.152841 0.988239 
0.00407331 0.205179 0.978716 
0.00333932 0.271275 0.962496 
0.00251393 0.361561 0.932345 
0.0140248 0.402287 0.915406 
0.00217049 0.485113 0.874449 
0.00096814 0.659247 0.751926 
0.000900349 0.878592 0.477572 
0.00212922 0.999937 0.0110157 
0.00127454 0.905436 -0.424481 
0.00255102 0.763843 -0.645398 
-0.00289556 0.52173 -0.853106 
-0.0022951 0.403948 -0.914779 
-0.00233884 0.311425 -0.950268 
-0.00177205 0.234166 -0.972195 
-0.00524034 0.180356 -0.983588 
-0.00454731 0.137062 -0.990552 
-0.00548754 0.0978753 -0.995184 
-0.00606532 0.0703077 -0.997507 
-0.00634157 0.0503399 -0.998712 
-0.0069259 0.0358202 -0.999334 
-0.00703649 0.025728 -0.999644 
-0.00727701 0.0181434 -0.999809 
-0.00754932 0.0127685 -0.99989 
-0.00772173 0.00924403 -0.999927 
-0.00785447 0.00673503 -0.999946 
-0.00780927 0.00492314 -0.999957 
-0.00802475 0.00363101 -0.999961 
-0.0079716 0.00267268 -0.999965 
-0.00809793 0.00193736 -0.999965 
-0.00798165 0.00135452 -0.999967 
-0.00809341 0.000864931 -0.999967 
-0.00806581 0.000433047 -0.999967 
-0.00812215 3.52051e-05 -0.999967 
-0.00798235 -0.000361442 -0.999968 
-0.00808773 -0.000766598 -0.999967 
-0.00796472 -0.00121079 -0.999968 
-0.00798813 -0.0017199 -0.999967 
-0.0075184 -0.00240939 -0.999969 
-0.0075304 -0.00322787 -0.999966 
-0.00772426 -0.00397297 -0.999962 
-0.00700404 -0.00488454 -0.999964 
-0.00743839 -0.0056451 -0.999956 
-0.00698187 -0.00690334 -0.999952 
-0.0073027 -0.00907023 -0.999932 
-0.0071178 -0.0111258 -0.999913 
-0.00485789 -0.00907267 -0.999947 
0.00113052 -0.00111283 -0.999999 
-0.00105099 -0.00127111 0.999999 
0.00576748 -0.0101902 0.999931 
0.00717303 -0.0113228 0.99991 
0.00799233 -0.00870755 0.99993 
0.00809368 -0.00652662 0.999946 
0.00828227 -0.00526233 0.999952 
0.00819369 -0.00445563 0.999957 
0.00819721 -0.00382518 0.999959 
0.00843774 -0.00317954 0.999959 
0.00852784 -0.00243445 0.999961 
0.00836297 -0.00182922 0.999963 
0.00848579 -0.00127986 0.999963 
0.00846542 -0.000801122 0.999964 
0.00842362 -0.000376231 0.999964 
0.00834572 1.09103e-05 0.999965 
0.00840677 0.000397353 0.999965 
0.00859735 0.000821881 0.999963 
0.00863328 0.00130627 0.999962 
0.00863342 0.00190508 0.999961 
0.0086319 0.00266938 0.999959 
0.00855858 0.00368735 0.999957 
0.00845952 0.00504101 0.999952 
0.00841469 0.00690451 0.999941 
0.0084873 0.00951 0.999919 
0.00848206 0.0132399 0.999876 
0.00817546 0.0184173 0.999797 
0.00804838 0.0262983 0.999622 
0.0078918 0.0365177 0.999302 
0.00777151 0.0510489 0.998666 
0.00784141 0.0696431 0.997541 
0.00808109 0.0945544 0.995487 
0.00838544 0.128298 0.9917 
0.00929703 0.173893 0.984721 
0.0110653 0.232052 0.97264 
0.0124048 0.304397 0.952465 
0.0304262 0.393975 0.918617 
0.0135046 0.551837 0.833843 
0.0104475 0.74441 0.667641 
0.00724414 0.93156 0.363516 
-0.00104759 0.996516 -0.0833958 
-0.00891322 0.848942 -0.528411 
-0.0192026 0.589227 -0.807739 
-0.00399425 0.687419 -0.72625 
-0.0160914 0.442443 -0.896652 
-0.0138115 0.334361 -0.942344 
-0.00774234 0.24897 -0.96848 
-0.00966375 0.172172 -0.985019 
-0.00786977 0.125134 -0.992109 
-0.00794237 0.0927189 -0.995661 
-0.00775028 0.0692599 -0.997569 
-0.00771987 0.0495351 -0.998743 
-0.00779955 0.035964 -0.999323 
-0.00804485 0.025759 -0.999636 
-0.00820698 0.018369 -0.999798 
-0.00824018 0.0131967 -0.999879 
-0.00832253 0.00946334 -0.999921 
-0.00844086 0.00688992 -0.999941 
-0.00856283 0.0050493 -0.999951 
-0.00848174 0.00370299 -0.999957 
-0.00856459 0.0027181 -0.99996 
-0.00848278 0.00196215 -0.999962 
-0.00857349 0.0013705 -0.999962 
-0.00849842 0.000874467 -0.999964 
-0.00848648 0.000447113 -0.999964 
-0.0084485 5.17132e-05 -0.999964 
-0.00844975 -0.000341575 -0.999964 
-0.00833948 -0.000756828 -0.999965 
-0.0083122 -0.00123006 -0.999965 
-0.00839426 -0.00182932 -0.999963 
-0.00851272 -0.00251241 -0.999961 
-0.00829972 -0.00322783 -0.99996 
-0.00809477 -0.00386236 -0.99996 
-0.00851772 -0.0045326 -0.999953 
-0.00818902 -0.0051542 -0.999953 
-0.0084738 -0.00642823 -0.999943 
-0.00802809 -0.0085293 -0.999931 
-0.00707181 -0.0111852 -0.999912 
-0.00608059 -0.0104053 -0.999927 
0.00100387 -0.00132132 -0.999999 
-0.000604186 -0.00124607 0.999999 
0.00436893 -0.0106154 0.999934 
0.00519257 -0.0117278 0.999918 
0.00581242 -0.00856542 0.999946 
0.00577248 -0.00618745 0.999964 
0.00595082 -0.00489954 0.99997 
0.00584354 -0.004154 0.999974 
0.00584969 -0.00369329 0.999976 
0.00615791 -0.00313514 0.999976 
0.00608568 -0.002499 0.999978 
0.00595293 -0.00183091 0.999981 
0.0061387 -0.00123444 0.99998 
0.0061656 -0.000746379 0.999981 
0.00607846 -0.000334606 0.999981 
0.00600761 5.00635e-05 0.999982 
0.00607707 0.000423833 0.999981 
0.00623968 0.000824007 0.99998 
0.00632196 0.00130895 0.999979 
0.00631772 0.00190199 0.999978 
0.00634747 0.00267435 0.999976 
0.0062762 0.0036853 0.999974 
0.00622641 0.00504742 0.999968 
0.00622683 0.00689794 0.999957 
0.00637304 0.00945236 0.999935 
0.00651251 0.0130256 0.999894 
0.0062014 0.0177032 0.999824 
0.00657932 0.0242183 0.999685 
0.00663526 0.0341475 0.999395 
0.0070689 0.0475069 0.998846 
0.0078871 0.0660104 0.997788 
0.00935592 0.091121 0.995796 
0.0112429 0.125102 0.99208 
0.0146161 0.17044 0.98526 
0.0203457 0.223154 0.974571 
0.0253741 0.294449 0.95533 
0.0535459 0.458699 0.886977 
0.0314311 0.531338 0.846577 
0.0278699 0.724856 0.688336 
0.018532 0.922418 0.385748 
-0.00129302 0.999826 -0.0186324 
-0.0209595 0.874627 -0.484344 
-0.0358541 0.672949 -0.738819 
-0.0375102 0.479368 -0.876812 
-0.0313495 0.358663 -0.93294 
-0.0234433 0.271298 -0.96221 
-0.0146485 0.227292 -0.973717 
-0.0158864 0.168116 -0.985639 
-0.0112208 0.131041 -0.991314 
-0.00947423 0.0980106 -0.99514 
-0.00798462 0.0698123 -0.997528 
-0.00717889 0.0516787 -0.998638 
-0.00658467 0.0368287 -0.9993 
-0.00647742 0.0262167 -0.999635 
-0.00634946 0.018788 -0.999803 
-0.00623863 0.0135591 -0.999889 
-0.00626279 0.00972533 -0.999933 
-0.00623907 0.00700316 -0.999956 
-0.00631612 0.0050713 -0.999967 
-0.0062079 0.00373366 -0.999974 
-0.0062627 0.00271539 -0.999977 
-0.00617284 0.00195795 -0.999979 
-0.00623596 0.00135328 -0.99998 
-0.00619869 0.000865355 -0.99998 
-0.00613838 0.000442549 -0.999981 
-0.00608765 6.41615e-05 -0.999981 
-0.00611402 -0.000317878 -0.999981 
-0.00599629 -0.0007319 -0.999982 
-0.00590353 -0.00121459 -0.999982 
-0.00601332 -0.0017973 -0.99998 
-0.00626385 -0.00249977 -0.999977 
-0.00600546 -0.00319369 -0.999977 
-0.00555083 -0.00370405 -0.999978 
-0.00614989 -0.00420242 -0.999972 
-0.00575048 -0.00490063 -0.999971 
-0.00628086 -0.00632768 -0.99996 
-0.00578762 -0.0086436 -0.999946 
-0.00507018 -0.0117498 -0.999918 
-0.00452578 -0.0105108 -0.999935 
0.000690343 -0.00124063 -0.999999 
-0.000594105 -0.00249388 0.999997 
0.00313552 -0.010863 0.999936 
0.00358185 -0.0121665 0.99992 
0.00397322 -0.00895999 0.999952 
0.00385397 -0.00618731 0.999973 
0.00389959 -0.00470494 0.999981 
0.00390542 -0.00404064 0.999984 
0.00393327 -0.00367433 0.999986 
0.00406179 -0.00315259 0.999987 
0.00415641 -0.00249476 0.999988 
0.00413516 -0.00178261 0.99999 
0.0042965 -0.001178 0.99999 
0.00429791 -0.000691578 0.999991 
0.00429533 -0.000273454 0.999991 
0.00424959 9.62266e-05 0.999991 
0.00428901 0.000462139 0.999991 
0.00442039 0.0008662 0.99999 
0.00446599 0.00134773 0.999989 
0.00448255 0.00195623 0.999988 
0.00450599 0.0027451 0.999986 
0.00449625 0.00379779 0.999983 
0.00451251 0.00522861 0.999976 
0.00455759 0.00720043 0.999964 
0.0047027 0.00992274 0.99994 
0.00476809 0.0134168 0.999899 
0.00487462 0.0187986 0.999811 
0.00540502 0.0260905 0.999645 
0.00599051 0.0368477 0.999303 
0.00714593 0.0512467 0.99866 
0.00915104 0.0715344 0.997396 
0.0122917 0.100454 0.994866 
0.0166781 0.13771 0.990332 
0.023944 0.180971 0.983197 
0.0346602 0.242542 0.969522 
0.044729 0.327591 0.94376 
0.076195 0.403593 0.91176 
0.0542753 0.644397 0.762763 
0.087689 0.581003 0.809164 
0.0434263 0.864199 0.501272 
0.00890415 0.997575 0.0690254 
-0.0332169 0.924366 -0.380058 
-0.0570751 0.717137 -0.694592 
-0.0620082 0.495268 -0.866524 
-0.0538432 0.360119 -0.931351 
-0.0380481 0.269622 -0.962214 
-0.0247278 0.208001 -0.977816 
-0.0212353 0.151344 -0.988253 
-0.0145486 0.121608 -0.992472 
-0.0110126 0.0906326 -0.995824 
-0.00849928 0.0671307 -0.997708 
-0.00667735 0.0470375 -0.998871 
-0.00565481 0.0329454 -0.999441 
-0.00517504 0.0240883 -0.999696 
-0.00485873 0.0174262 -0.999836 
-0.00468169 0.012508 -0.999911 
-0.00462368 0.00902378 -0.999949 
-0.00456288 0.00651649 -0.999968 
-0.0045318 0.00478308 -0.999978 
-0.00444427 0.00348838 -0.999984 
-0.00447358 0.00254359 -0.999987 
-0.00439639 0.00180447 -0.999989 
-0.00442338 0.00124114 -0.999989 
-0.00438914 0.000776184 -0.99999 
-0.00432192 0.000384052 -0.999991 
-0.00427755 1.58495e-05 -0.999991 
-0.00425615 -0.000351615 -0.999991 
-0.00417891 -0.000779291 -0.999991 
-0.00411927 -0.00130134 -0.999991 
-0.00409683 -0.00190716 -0.99999 
-0.00429259 -0.00255537 -0.999988 
-0.00398622 -0.00318775 -0.999987 
-0.00377875 -0.0036991 -0.999986 
-0.00406645 -0.00406474 -0.999983 
-0.00377401 -0.00468778 -0.999982 
-0.00412421 -0.00620061 -0.999972 
-0.00392315 -0.00887782 -0.999953 
-0.00353462 -0.0120151 -0.999922 
-0.00318781 -0.0105379 -0.999939 
0.000537649 -0.00152735 -0.999999 
-0.000493442 -0.00252315 0.999997 
0.00211872 -0.00940746 0.999954 
0.00266898 -0.0124205 0.999919 
0.00283801 -0.009714 0.999949 
0.00281316 -0.00675332 0.999973 
0.00279632 -0.00486936 0.999984 
0.00283735 -0.00411538 0.999988 
0.00294436 -0.0038194 0.999988 
0.00305718 -0.00342343 0.999989 
0.00314788 -0.00278106 0.999991 
0.00323216 -0.00205877 0.999993 
0.00331191 -0.00136583 0.999994 
0.00335904 -0.000839973 0.999994 
0.00339991 -0.000403906 0.999994 
0.00340445 -3.19122e-05 0.999994 
0.00342954 0.000320465 0.999994 
0.0034851 0.000698959 0.999994 
0.00353616 0.00112788 0.999993 
0.00357336 0.00166882 0.999992 
0.00359783 0.00237404 0.999991 
0.00362757 0.00329454 0.999988 
0.00367376 0.00454598 0.999983 
0.00374129 0.00625055 0.999973 
0.00384946 0.0086316 0.999955 
0.00396345 0.0117135 0.999924 
0.00422515 0.0160165 0.999863 
0.00477648 0.0232473 0.999718 
0.00553296 0.0317293 0.999481 
0.00706594 0.0448809 0.998967 
0.00942721 0.0622725 0.998015 
0.0132497 0.0871725 0.996105 
0.0189729 0.119549 0.992647 
0.0284403 0.15942 0.986801 
0.042083 0.208666 0.977081 
0.0603239 0.287304 0.955938 
0.0837739 0.276888 0.957244 
0.113277 0.393386 0.912368 
0.135749 0.553795 0.821513 
0.0835042 0.807693 0.583659 
0.0227336 0.994306 0.104108 
-0.0703333 0.879407 -0.470846 
-0.0904881 0.625404 -0.775036 
-0.0938808 0.43109 -0.897412 
-0.0762174 0.315488 -0.945864 
-0.0523023 0.253001 -0.966051 
-0.0338717 0.193449 -0.980525 
-0.0284192 0.145687 -0.988922 
-0.0188592 0.113215 -0.993391 
-0.0137647 0.0899547 -0.995851 
-0.0101239 0.067474 -0.99767 
-0.00746146 0.0502397 -0.998709 
-0.00578689 0.0351484 -0.999365 
-0.0048263 0.0246542 -0.999684 
-0.00432369 0.0181075 -0.999827 
-0.00402662 0.013039 -0.999907 
-0.00386125 0.0094081 -0.999948 
-0.00376507 0.00682326 -0.99997 
-0.00367769 0.0049416 -0.999981 
-0.00361553 0.00362188 -0.999987 
-0.00358576 0.00260897 -0.99999 
-0.00355442 0.00187291 -0.999992 
-0.00352943 0.00127973 -0.999993 
-0.00351101 0.000826271 -0.999994 
-0.00345935 0.000435955 -0.999994 
-0.00342653 8.06628e-05 -0.999994 
-0.0033694 -0.000287984 -0.999994 
-0.00332866 -0.000695947 -0.999994 
-0.00328152 -0.00121288 -0.999994 
-0.00319802 -0.0018504 -0.999993 
-0.00319765 -0.00254368 -0.999992 
-0.00307463 -0.00326755 -0.99999 
-0.00290419 -0.00374746 -0.999989 
-0.00295558 -0.00400272 -0.999988 
-0.00279631 -0.00459168 -0.999986 
-0.00291713 -0.00617883 -0.999977 
-0.00285035 -0.00903173 -0.999955 
-0.00268128 -0.0120443 -0.999924 
-0.00240414 -0.0103948 -0.999943 
0.00042452 -0.00151482 -0.999999 
-0.00036628 -0.00152593 0.999999 
0.00192578 -0.0106145 0.999942 
0.00229566 -0.0115062 0.999931 
0.0023022 -0.00827791 0.999963 
0.0023477 -0.00570492 0.999981 
0.00240798 -0.00444227 0.999987 
0.00253181 -0.00402304 0.999989 
0.00266423 -0.00379111 0.999989 
0.00277757 -0.00329616 0.999991 
0.00286749 -0.00256708 0.999993 
0.00295737 -0.00180019 0.999994 
0.00301014 -0.00116794 0.999995 
0.00306248 -0.000667349 0.999995 
0.00309798 -0.000265037 0.999995 
0.00312526 8.73104e-05 0.999995 
0.00316113 0.000432568 0.999995 
0.00319404 0.000802714 0.999995 
0.00323505 0.00124765 0.999994 
0.0032708 0.00181831 0.999993 
0.00330337 0.00255931 0.999991 
0.00335704 0.00355767 0.999988 
0.00342812 0.00490297 0.999982 
0.00352775 0.00673232 0.999971 
0.00365601 0.00909062 0.999952 
0.00387665 0.012346 0.999916 
0.00430737 0.0175971 0.999836 
0.00499416 0.023973 0.9997 
0.00610558 0.0332477 0.999429 
0.00822475 0.0462121 0.998898 
0.0114059 0.0640133 0.997884 
0.0161967 0.086627 0.996109 
0.023604 0.115363 0.993043 
0.0355153 0.146702 0.988543 
0.0550939 0.200165 0.978212 
0.0749188 0.196728 0.977592 
0.120185 0.279309 0.95265 
0.176121 0.391825 0.903025 
0.228786 0.564698 0.792952 
0.145259 0.776462 0.613193 
-0.121312 0.84511 -0.520646 
-0.138064 0.58838 -0.79671 
-0.217004 0.614089 -0.758817 
-0.147108 0.412967 -0.898787 
-0.108284 0.301743 -0.94722 
-0.0695398 0.221953 -0.972574 
-0.0467659 0.186847 -0.981275 
-0.0308352 0.128978 -0.991168 
-0.019817 0.0978532 -0.995004 
-0.0134985 0.0726783 -0.997264 
-0.00974353 0.0554374 -0.998415 
-0.00719558 0.0419887 -0.999092 
-0.00562545 0.0302341 -0.999527 
-0.00469365 0.0217105 -0.999753 
-0.00412053 0.0158257 -0.999866 
-0.00378254 0.0114334 -0.999927 
-0.00358818 0.00830338 -0.999959 
-0.00346626 0.00605965 -0.999976 
-0.0033698 0.00444373 -0.999984 
-0.00332048 0.00323063 -0.999989 
-0.0032674 0.00234138 -0.999992 
-0.00324969 0.00165376 -0.999993 
-0.00321345 0.00112769 -0.999994 
-0.00319052 0.000715277 -0.999995 
-0.00315561 0.000352619 -0.999995 
-0.00312563 1.10705e-05 -0.999995 
-0.00307457 -0.000350568 -0.999995 
-0.00304061 -0.00078675 -0.999995 
-0.00298539 -0.00132907 -0.999995 
-0.00291357 -0.00201082 -0.999994 
-0.00288073 -0.00276001 -0.999992 
-0.00275567 -0.00343456 -0.99999 
-0.00261682 -0.00389179 -0.999989 
-0.00253643 -0.00408433 -0.999988 
-0.0023792 -0.00463574 -0.999986 
-0.00237328 -0.00609386 -0.999979 
-0.00231214 -0.00882906 -0.999958 
-0.00221635 -0.0118317 -0.999928 
-0.00198896 -0.0105072 -0.999943 
0.000354472 -0.00135886 -0.999999 
-0.000328331 -0.00112478 0.999999 
0.00159588 -0.0101894 0.999947 
0.00200613 -0.0117701 0.999929 
0.00204654 -0.00838997 0.999963 
0.0021673 -0.00591346 0.99998 
0.00226243 -0.00460382 0.999987 
0.00239347 -0.00415806 0.999989 
0.00252133 -0.00394803 0.999989 
0.00262436 -0.0034768 0.999991 
0.00269509 -0.00273939 0.999993 
0.00277053 -0.00194486 0.999994 
0.00280409 -0.00128011 0.999995 
0.00283919 -0.000746236 0.999996 
0.00286406 -0.000333008 0.999996 
0.00288077 1.45066e-05 0.999996 
0.00290325 0.000345216 0.999996 
0.002915 0.000694808 0.999996 
0.00294723 0.00110843 0.999995 
0.0029855 0.00162682 0.999994 
0.00301532 0.00230252 0.999993 
0.00308553 0.00320243 0.99999 
0.00317701 0.00439781 0.999985 
0.00330139 0.00600484 0.999977 
0.00344003 0.00809061 0.999961 
0.00364787 0.0108842 0.999934 
0.00415089 0.01541 0.999873 
0.00476959 0.0207944 0.999772 
0.00600495 0.0292218 0.999555 
0.00780715 0.0394934 0.999189 
0.0112207 0.0553503 0.998404 
0.0162284 0.0749801 0.997053 
0.0238292 0.0986602 0.994836 
0.0320196 0.111465 0.993252 
0.0474223 0.148024 0.987846 
0.0998357 0.192101 0.976284 
0.160904 0.249599 0.954888 
0.253466 0.340958 0.905264 
0.37266 0.539208 0.755235 
0.268485 0.815725 0.512355 
0.0260978 0.997989 0.0577736 
-0.233026 0.859999 -0.453983 
-0.368267 0.58449 -0.723015 
-0.231932 0.41073 -0.881764 
-0.15826 0.281624 -0.946384 
-0.100016 0.217402 -0.970944 
-0.0617766 0.167801 -0.983883 
-0.0410725 0.138519 -0.989508 
-0.023355 0.0947163 -0.99523 
-0.0155142 0.0716239 -0.997311 
-0.0106193 0.0528233 -0.998547 
-0.00777128 0.0404306 -0.999152 
-0.00605753 0.0304649 -0.999517 
-0.00487259 0.0220313 -0.999745 
-0.00410692 0.0157242 -0.999868 
-0.00369155 0.0114924 -0.999927 
-0.00343265 0.00835644 -0.999959 
-0.0032662 0.0060994 -0.999976 
-0.00311865 0.004448 -0.999985 
-0.00307725 0.00327063 -0.99999 
-0.00298069 0.00233961 -0.999993 
-0.00299516 0.00167665 -0.999994 
-0.00294796 0.00114994 -0.999995 
-0.00292243 0.000736447 -0.999995 
-0.00290512 0.000397256 -0.999996 
-0.00287784 6.44828e-05 -0.999996 