# vtk DataFile Version 3.0 
Exported using Morpho https://github.com/Morpho-lang/morpho 
ASCII 
DATASET UNSTRUCTURED_GRID 

POINTS 1978 float 
-12 -4.00001 -5.27984e-11 
-11.6407 -4 1.26716e-09 
-11.3467 -4 9.37688e-10 
-10.9863 -4 6.15312e-10 
-10.6657 -4 5.2856e-10 
-10.3285 -4 3.03981e-10 
-10.0019 -4 3.55221e-10 
-9.68176 -4 2.97259e-10 
-9.34025 -4 1.83072e-10 
-9.0049 -4 1.65446e-10 
-8.68933 -4 9.84945e-11 
-8.37827 -4 8.05485e-11 
-8.06779 -4 -9.86069e-12 
-7.77607 -4 4.60883e-11 
-7.48752 -4 1.33112e-11 
-7.21154 -4 -5.73632e-11 
-6.92061 -4 -1.77151e-11 
-6.61717 -4 -8.81855e-11 
-6.31755 -4 -1.31581e-10 
-6.02113 -4 -1.53956e-10 
-5.72612 -4 -2.10326e-10 
-5.43522 -4 -2.73229e-10 
-5.14919 -4 -3.66865e-10 
-4.85992 -4 -4.92192e-10 
-4.5568 -4 -6.31267e-10 
-4.25156 -4 -8.62858e-10 
-3.96866 -4 -1.10409e-09 
-3.66676 -4 -1.33243e-09 
-3.39257 -4 -1.64888e-09 
-3.10623 -4 -1.739e-09 
-2.84536 -4 -1.77628e-09 
-2.58521 -4 -2.31406e-09 
-2.33332 -4 -2.70596e-09 
-2.08904 -4 7.84099e-10 
-1.85051 -4 -1.701e-09 
-1.60542 -4 -6.62383e-09 
-1.33611 -4 -2.00198e-08 
-1.0498 -4 -8.31718e-08 
-0.690582 -3.99999 -3.65688e-07 
-0.256679 -3.99999 -1.54015e-07 
0.17114 -3.99999 3.27297e-07 
0.82643 -4 7.51088e-07 
1.11621 -4 1.90437e-08 
1.41184 -4 -2.81469e-09 
1.68534 -4 4.91254e-09 
2.07781 -4 4.83921e-09 
2.2814 -4 5.6517e-10 
2.58288 -4 2.61374e-09 
2.85636 -4 1.75671e-09 
3.13054 -4 1.69593e-09 
3.41143 -4 1.70283e-09 
3.67573 -4 1.46795e-09 
3.95742 -4 1.05484e-09 
4.247 -4 7.96572e-10 
4.5324 -4 6.57517e-10 
4.82054 -4 4.85625e-10 
5.11068 -4 3.65341e-10 
5.40686 -4 2.60267e-10 
5.70971 -4 2.73049e-10 
5.9977 -4 4.50714e-11 
6.29507 -4 3.05093e-10 
6.57975 -4 2.75509e-11 
6.87842 -4 -8.70586e-12 
7.17155 -4 -8.91549e-11 
7.47036 -4 3.14783e-10 
7.76078 -4 -2.09479e-10 
8.06686 -4 6.92009e-11 
8.36232 -4 -1.67206e-10 
8.66319 -4 -5.68886e-11 
8.95762 -4 -1.56481e-10 
9.29486 -4 -1.80595e-10 
9.62374 -4 -2.51327e-10 
9.92546 -4 -3.62382e-10 
10.3047 -4 -3.88748e-10 
10.632 -4 -5.51806e-10 
11.005 -4 -5.97725e-10 
11.3269 -4 -9.83766e-10 
11.6112 -4 -1.14488e-09 
12 -4.00001 5.49771e-11 
-12 -3.62886 -1.23028e-09 
-11.7006 -3.68538 9.6422e-18 
-11.3697 -3.61727 3.02095e-17 
-11.0649 -3.68945 3.99049e-17 
-10.7209 -3.65513 4.66638e-17 
-10.3965 -3.67553 2.4435e-17 
-10.0581 -3.66703 2.04936e-17 
-9.72992 -3.66384 1.91975e-17 
-9.40145 -3.68111 7.19383e-18 
-9.06351 -3.68524 1.74065e-17 
-8.72592 -3.67022 8.62845e-18 
-8.40273 -3.6656 7.20004e-18 
-8.08473 -3.66875 -1.44373e-18 
-7.76825 -3.64501 -6.05525e-19 
-7.47056 -3.64647 2.52354e-18 
-7.16934 -3.66107 -2.73995e-18 
-6.85844 -3.67534 -2.16982e-18 
-6.54703 -3.67426 -8.66453e-18 
-6.2388 -3.67359 -1.22356e-17 
-5.93036 -3.67468 -1.38801e-17 
-5.62606 -3.67087 -2.11624e-17 
-5.32507 -3.6661 -2.98672e-17 
-5.02359 -3.67134 -4.01798e-17 
-4.71086 -3.68946 -4.7234e-17 
-4.38706 -3.69262 -5.89981e-17 
-4.07554 -3.67053 -1.01316e-16 
-3.76269 -3.6946 -9.17135e-17 
-3.45173 -3.66703 -1.5512e-16 
-3.15786 -3.68163 -1.46869e-16 
-2.86288 -3.65915 -1.50103e-16 
-2.58276 -3.63644 -1.78328e-16 
-2.304 -3.64728 -2.30932e-16 
-2.03757 -3.61477 -9.26523e-17 
-1.77713 -3.6055 -8.00348e-16 
-1.4998 -3.62255 -2.30843e-15 
-1.38028 -3.23342 -4.5176e-15 
-1.208 -3.61837 -4.25143e-15 
-0.860181 -3.66659 -8.67884e-15 
-0.452279 -3.71007 -3.91845e-14 
-0.0312841 -3.68098 2.24175e-14 
0.351023 -3.65307 1.24942e-13 
0.661945 -3.8078 -1.09467e-13 
1.12111 -3.57713 -1.05458e-14 
1.38791 -3.60215 -1.17654e-15 
1.65177 -3.6078 -4.50685e-16 
1.91733 -3.75165 1.27697e-16 
2.13849 -3.52513 5.60753e-16 
2.39739 -3.69551 3.84306e-16 
2.7039 -3.66316 1.8666e-16 
2.99745 -3.6735 1.85312e-16 
3.29645 -3.68831 1.27432e-16 
3.59512 -3.66334 1.67535e-16 
3.88773 -3.68835 9.49855e-17 
4.19587 -3.68127 7.26031e-17 
4.50631 -3.66932 6.8178e-17 
4.81122 -3.65979 4.68805e-17 
5.11549 -3.66787 3.75077e-17 
5.42607 -3.67754 2.15379e-17 
5.72543 -3.66386 2.03271e-17 
6.02935 -3.67519 -1.04767e-18 
6.32662 -3.66022 3.96548e-17 
6.62876 -3.67229 -7.3258e-18 
6.92891 -3.66319 -4.44622e-19 
7.22874 -3.66696 -5.95376e-18 
7.5259 -3.65357 2.83034e-17 
7.82934 -3.66733 -2.08858e-17 
8.13146 -3.65379 2.22846e-18 
8.43538 -3.65648 -1.06332e-17 
8.73563 -3.64542 -7.72512e-18 
9.06028 -3.68787 -1.43238e-17 
9.39226 -3.67811 -9.49116e-18 
9.70512 -3.64621 -2.0718e-17 
10.0544 -3.7164 -1.81782e-17 
10.3965 -3.66874 -2.80092e-17 
10.7543 -3.70707 -4.08374e-17 
11.0878 -3.65785 -4.42407e-17 
11.3843 -3.61142 -2.99951e-17 
11.7235 -3.71555 6.0316e-18 
12 -3.6035 1.18294e-09 
-12 -3.31506 -3.50182e-10 
-11.6499 -3.3336 2.92358e-17 
-11.3087 -3.27965 2.05984e-18 
-10.994 -3.35188 4.52841e-17 
-10.6693 -3.31582 3.36125e-17 
-10.3443 -3.34782 2.78081e-17 
-10.0227 -3.33152 1.93604e-17 
-9.70135 -3.33268 1.35311e-17 
-9.37772 -3.35656 1.30671e-17 
-9.05245 -3.3649 1.13137e-17 
-8.75982 -3.31735 7.1732e-18 
-8.45915 -3.33739 5.75125e-18 
-8.14263 -3.33631 3.64026e-18 
-7.83531 -3.31953 1.20321e-18 
-7.52612 -3.30641 1.04194e-19 
-7.22459 -3.32268 -1.56216e-18 
-6.92342 -3.34608 -3.40304e-18 
-6.62008 -3.35114 -6.06991e-18 
-6.31529 -3.34922 -8.69298e-18 
-6.01208 -3.35244 -1.26603e-17 
-5.7101 -3.34639 -1.65702e-17 
-5.41151 -3.33976 -2.14436e-17 
-5.11169 -3.34123 -2.93062e-17 
-4.80988 -3.36758 -4.52588e-17 
-4.50304 -3.38818 -6.81868e-17 
-4.1972 -3.36047 -7.8576e-17 
-3.87844 -3.37454 -1.0444e-16 
-3.58318 -3.36512 -1.20432e-16 
-3.28147 -3.34663 -1.24364e-16 
-3.00509 -3.3437 -1.70302e-16 
-2.73116 -3.30761 -1.93578e-16 
-2.44599 -3.30852 -2.2303e-16 
-2.1766 -3.27564 -4.07914e-16 
-1.90785 -3.22145 -1.08635e-15 
-1.64512 -3.23382 -2.29763e-15 
-1.35439 -2.86542 -8.09496e-16 
-1.05598 -3.29095 -2.14982e-14 
-0.689914 -3.36236 -5.15905e-14 
-0.317725 -3.39282 8.12126e-15 
0.0719278 -3.33292 -5.38852e-14 
0.493713 -3.32667 3.9253e-14 
0.967403 -3.18087 2.83859e-14 
0.792227 -3.48501 8.36869e-14 
1.27635 -3.16876 5.48545e-15 
1.54617 -3.18915 1.99828e-15 
1.84184 -3.36383 1.10751e-15 
2.18037 -3.2105 9.46888e-17 
2.46377 -3.37372 7.25066e-17 
2.74576 -3.30886 1.42233e-16 
3.00924 -3.35179 1.32566e-16 
3.30615 -3.37548 1.40044e-16 
3.59948 -3.34168 9.00948e-17 
3.89691 -3.37004 1.0654e-16 
4.19401 -3.369 8.29087e-17 
4.49328 -3.34605 5.30535e-17 
4.79887 -3.33708 4.12799e-17 
5.10524 -3.33943 3.04778e-17 
5.40836 -3.35464 2.37204e-17 
5.71177 -3.33344 1.51045e-17 
6.01112 -3.34786 1.21937e-17 
6.30894 -3.33015 7.56447e-18 
6.60972 -3.34409 6.13125e-18 
6.91118 -3.33296 3.48472e-18 
7.2151 -3.3304 1.78464e-18 
7.52185 -3.32361 3.46563e-19 
7.83003 -3.3294 -1.47606e-18 
8.13695 -3.31512 -3.07808e-18 
8.44076 -3.31077 -5.17089e-18 
8.76354 -3.32084 -7.32098e-18 
9.08609 -3.36655 -1.15842e-17 
9.40285 -3.33903 -1.15394e-17 
9.72246 -3.3056 -1.17036e-17 
10.031 -3.4032 -2.61912e-17 
10.3199 -3.31595 -2.26407e-17 
10.6438 -3.3893 -4.36516e-17 
10.9712 -3.34414 -4.37259e-17 
11.2907 -3.25952 -1.32053e-18 
11.6337 -3.35905 -3.19831e-17 
12 -3.30338 3.78233e-10 
-12 -3.00007 -2.81556e-10 
-11.6543 -3.01495 -6.7662e-18 
-11.3107 -2.95984 -2.96525e-17 
-10.9652 -3.01073 3.19451e-18 
-10.6326 -2.98589 3.02146e-18 
-10.3121 -3.01126 1.56903e-18 
-9.98489 -2.99877 -1.32175e-18 
-9.66341 -2.99449 -4.56332e-18 
-9.35585 -3.02881 -2.99009e-18 
-9.05629 -3.00913 -2.33092e-18 
-8.74621 -2.97563 -1.08986e-18 
-8.42979 -3.00923 -1.56984e-19 
-8.11903 -3.00086 -9.79482e-20 
-7.80878 -2.98837 1.02178e-19 
-7.50021 -2.97785 6.4724e-20 
-7.20049 -2.98959 1.98192e-19 
-6.90412 -3.01664 5.81939e-20 
-6.60336 -3.02458 3.22901e-19 
-6.30352 -3.02265 2.75426e-19 
-6.00448 -3.02677 6.14714e-19 
-5.7076 -3.01806 8.2327e-19 
-5.41021 -3.0133 1.39876e-18 
-5.11057 -3.01571 1.33478e-18 
-4.80926 -3.04292 1.28585e-19 
-4.50745 -3.07044 -1.6299e-18 
-4.22474 -3.01475 3.76465e-18 
-3.93801 -3.07101 -1.79047e-18 
-3.62223 -3.03971 2.23591e-19 
-3.32331 -3.03357 -5.02973e-19 
-3.02414 -2.99976 2.27981e-17 
-2.73244 -2.97889 -7.9683e-18 
-2.44902 -2.96803 4.89462e-19 
-2.16451 -2.92403 3.54548e-17 
-1.89661 -2.83744 4.84579e-16 
-1.63834 -2.83708 -1.87631e-16 
-1.14072 -2.57136 -1.13329e-14 
-1.05204 -2.94663 -3.37227e-15 
-0.699442 -3.02572 -1.07604e-14 
-0.314987 -3.0365 -1.29803e-14 
0.0176019 -3.02112 -4.77969e-15 
0.440531 -3.06428 1.03196e-13 
0.792909 -2.90869 -4.80422e-14 
1.13223 -2.81068 1.78856e-14 
1.44015 -2.76558 4.60671e-15 
1.7095 -2.83356 3.07104e-15 
1.89855 -3.05228 -1.08512e-15 
2.14789 -2.82052 6.11266e-16 
2.41213 -2.99471 7.78046e-17 
2.66735 -2.99064 3.17779e-18 
2.97454 -2.9926 4.69308e-17 
3.25147 -3.05929 9.7113e-18 
3.55039 -3.02532 -5.33672e-18 
3.86252 -3.05001 1.39554e-18 
4.16475 -3.04488 -6.30118e-19 
4.46937 -3.02567 -2.13064e-18 
4.77603 -3.01858 2.30629e-19 
5.08721 -3.01734 -1.1886e-18 
5.39571 -3.02832 -1.19039e-19 
5.69636 -3.00592 -1.08854e-18 
5.99626 -3.01919 -6.25232e-19 
6.29764 -3.00407 -7.80332e-19 
6.59924 -3.01623 -4.05791e-19 
6.90363 -3.00913 -3.14255e-19 
7.21045 -3.00285 -1.83082e-19 
7.51311 -2.99211 -1.09342e-19 
7.81834 -2.99801 -3.97571e-20 
8.12105 -2.97834 1.11694e-19 
8.42797 -2.9715 5.11829e-19 
8.73774 -2.99305 9.45081e-19 
9.06134 -3.03423 1.68045e-18 
9.38366 -3.01005 3.88897e-18 
9.67929 -2.95427 5.11149e-18 
9.99697 -3.04148 1.9141e-19 
10.3228 -2.982 -5.80413e-19 
10.6464 -3.05453 -6.25847e-18 
10.9698 -3.00345 -1.26576e-18 
11.3185 -2.94301 3.09873e-17 
11.6562 -3.04874 3.17488e-18 
12 -2.98454 2.59545e-10 
-12 -2.68388 -2.80354e-10 
-11.6595 -2.69853 -1.68953e-17 
-11.3423 -2.62477 -2.5919e-17 
-11.0057 -2.69194 -5.66142e-18 
-10.6648 -2.66243 -8.26846e-19 
-10.3298 -2.67491 -1.74109e-18 
-10.0079 -2.67284 -3.3124e-18 
-9.67767 -2.66598 -5.81291e-18 
-9.35061 -2.67863 -5.10192e-18 
-9.03489 -2.67294 -3.23285e-18 
-8.70729 -2.65389 -1.6798e-18 
-8.39323 -2.68014 -7.41616e-19 
-8.08044 -2.67127 -3.99507e-19 
-7.76593 -2.66362 -9.67666e-20 
-7.45847 -2.65047 1.24407e-19 
-7.1573 -2.66131 3.3108e-19 
-6.85836 -2.69076 6.26657e-19 
-6.55905 -2.69727 9.32635e-19 
-6.25859 -2.69759 1.21038e-18 
[...]
POINT_DATA 1978 
VECTORS vectors float
0.00349821 -0.00627741 0.999974 
0.00578702 -0.013481 0.999894 
0.00456848 -0.0110786 0.999929 
0.00489469 -0.0076947 0.99996 
0.00477961 -0.00646516 0.999969 
0.00503897 -0.00590941 0.999971 
0.00485736 -0.00518802 0.999976 
0.00485297 -0.00425246 0.99998 
0.00495238 -0.00311163 0.999984 
0.00498294 -0.002229 0.999986 
0.00515617 -0.00161137 0.999987 
0.00524411 -0.00115567 0.999987 
0.00538721 -0.000731761 0.999986 
0.00535468 -0.000282454 0.999987 
0.00505937 5.97161e-05 0.999988 
0.00528507 0.000383464 0.999987 
0.0054504 0.000839525 0.999986 
0.00538849 0.0013511 0.999986 
0.00534232 0.00190796 0.999985 
0.00534371 0.00262208 0.999983 
0.00532503 0.00357305 0.999981 
0.00524015 0.00482243 0.999976 
0.00515547 0.00645431 0.999967 
0.00517336 0.00870983 0.99995 
0.00520013 0.0120187 0.999915 
0.00488776 0.0166663 0.99985 
0.00472977 0.0227576 0.999731 
0.00449123 0.0320242 0.999478 
0.00401144 0.0437834 0.999034 
0.00359484 0.0607028 0.99815 
0.00279341 0.0819451 0.996634 
0.00193264 0.109873 0.993941 
0.00101059 0.146719 0.989179 
6.0997e-06 0.191807 0.981433 
-0.00148321 0.248649 0.968593 
-0.00329995 0.324444 0.9459 
-0.00524227 0.426445 0.904499 
-0.00747173 0.560876 0.827868 
-0.0083764 0.755039 0.655627 
-0.00584231 0.958733 0.284243 
0.00011077 0.977992 -0.208589 
0.00259898 0.67373 -0.738966 
0.0058289 0.531219 -0.847216 
0.00534944 0.400128 -0.916445 
0.00262752 0.298226 -0.954492 
0.000839255 0.194508 -0.980901 
-0.00104541 0.152786 -0.98826 
-0.00217527 0.109255 -0.994012 
-0.00300893 0.0806202 -0.996741 
-0.00366808 0.0593424 -0.998232 
-0.00403941 0.0430946 -0.999064 
-0.00419323 0.0319345 -0.999482 
-0.00478069 0.0232349 -0.99972 
-0.0050101 0.0164855 -0.999853 
-0.00493196 0.0121129 -0.999916 
-0.00517465 0.00908738 -0.999946 
-0.00523057 0.00668961 -0.999965 
-0.00532584 0.00497207 -0.999975 
-0.00530103 0.00367032 -0.99998 
-0.00533918 0.00274622 -0.999983 
-0.00530828 0.00202571 -0.999985 
-0.00534367 0.00146542 -0.999986 
-0.00538287 0.000962058 -0.999986 
-0.00538759 0.000518864 -0.999987 
-0.0052967 0.000103801 -0.999987 
-0.00537379 -0.000284089 -0.999987 
-0.00537723 -0.000707143 -0.999986 
-0.00530696 -0.00111567 -0.999986 
-0.00515416 -0.0015613 -0.999987 
-0.00515127 -0.00212769 -0.999986 
-0.00522285 -0.00303326 -0.999983 
-0.004732 -0.00404214 -0.999982 
-0.00471286 -0.00489759 -0.999978 
-0.00452532 -0.00583601 -0.999974 
-0.00443513 -0.00639884 -0.999971 
-0.00478696 -0.0077548 -0.99996 
-0.00434555 -0.0108424 -0.999933 
-0.00597498 -0.0134693 -0.999893 
-0.00367886 -0.00628291 -0.999974 
0.00386786 -0.00704633 0.999971 
0.0059539 -0.010237 0.999932 
0.00779387 -0.0114282 0.999906 
0.00773786 -0.0089031 0.999932 
0.00834441 -0.0068011 0.999944 
0.0082314 -0.00572689 0.999952 
0.00827608 -0.00491854 0.999955 
0.00841198 -0.00413145 0.999958 
0.00819659 -0.00327536 0.999963 
0.0082569 -0.00240895 0.999965 
0.00835869 -0.0017057 0.999966 
0.00849463 -0.00117413 0.999965 
0.0086286 -0.000718783 0.999964 
0.00864669 -0.000282685 0.999964 
0.00898898 7.49643e-05 0.999961 
0.00866909 0.000462363 0.999964 
0.00861707 0.000928491 0.999964 
0.00869252 0.00145786 0.999963 
0.00871181 0.00208947 0.999961 
0.00870546 0.00291346 0.999959 
0.00870026 0.0040075 0.999956 
0.00869927 0.00546777 0.999949 
0.00854746 0.00746645 0.999937 
0.00820834 0.0103596 0.999914 
0.00796644 0.0146466 0.999863 
0.00801384 0.0206218 0.999757 
0.00735528 0.0291754 0.999549 
0.00736099 0.0416141 0.999108 
0.00672671 0.0578781 0.998303 
0.00642969 0.0812878 0.99667 
0.00562899 0.111064 0.9938 
0.0049474 0.152766 0.98825 
0.00394373 0.205056 0.978744 
0.0030122 0.271285 0.962496 
0.00179597 0.362049 0.932159 
0.0137845 0.39989 0.916461 
0.0012903 0.485382 0.874302 
-0.000252644 0.660695 0.750654 
-0.000251749 0.882226 0.470823 
0.00199472 0.999987 -0.00355907 
0.00167537 0.898479 -0.438993 
0.00403948 0.761983 -0.647572 
-0.00234432 0.51879 -0.854898 
-0.00155254 0.404157 -0.91469 
-0.00161674 0.311662 -0.950193 
-0.00156646 0.233664 -0.972317 
-0.00531003 0.181229 -0.983428 
-0.00460503 0.134956 -0.990842 
-0.00590732 0.0966334 -0.995304 
-0.00652989 0.0699168 -0.997533 
-0.00688108 0.0503855 -0.998706 
-0.00752973 0.0358394 -0.999331 
-0.00763859 0.0256754 -0.999643 
-0.00793525 0.0181297 -0.999806 
-0.00826016 0.0127056 -0.999887 
-0.00840576 0.00918105 -0.999924 
-0.00859362 0.00672977 -0.999942 
-0.00854511 0.00491207 -0.999953 
-0.00880481 0.00364103 -0.999956 
-0.00872423 0.00267973 -0.999959 
-0.00882918 0.00193576 -0.999961 
-0.00872198 0.00135765 -0.999963 
-0.00885088 0.000867183 -0.999962 
-0.00880789 0.000432838 -0.999961 
-0.00887933 3.35886e-05 -0.999963 
-0.00872089 -0.000364094 -0.999963 
-0.00885912 -0.000770796 -0.999962 
-0.00870187 -0.00121452 -0.999963 
-0.00874134 -0.00172283 -0.999962 
-0.00828825 -0.00241599 -0.999964 
-0.00830988 -0.00325743 -0.999962 
-0.00848287 -0.00401368 -0.999958 
-0.0078101 -0.00492947 -0.999959 
-0.00825077 -0.00567425 -0.999952 
-0.00779727 -0.00688905 -0.999948 
-0.00806789 -0.00914091 -0.999927 
-0.0078614 -0.0116608 -0.999903 
-0.00570443 -0.00995219 -0.999936 
-0.00385858 -0.00704811 -0.999971 
0.00240071 -0.00675311 0.999975 
0.0063199 -0.0111746 0.99992 
0.00750975 -0.0118222 0.999904 
0.00841734 -0.00874439 0.999928 
0.0084607 -0.00650167 0.999945 
0.00868656 -0.00526478 0.99995 
0.00855924 -0.00447537 0.999955 
0.00854517 -0.00386119 0.999958 
0.00885131 -0.00321745 0.999957 
0.00893809 -0.00245631 0.999959 
0.00871911 -0.00184158 0.999962 
0.00882292 -0.00128333 0.999962 
0.0088304 -0.000802324 0.999962 
0.00876681 -0.000382707 0.999963 
0.00863297 1.06522e-05 0.999964 
0.00872963 0.000398995 0.999964 
0.00895132 0.000824711 0.999961 
0.00899189 0.00130765 0.99996 
0.0089874 0.00190854 0.999959 
0.00898514 0.00267012 0.999958 
0.00889724 0.00369014 0.999955 
0.00876984 0.00503927 0.999951 
0.00875128 0.00692057 0.999939 
0.00884801 0.00952114 0.999917 
0.0088705 0.0132549 0.999874 
0.00851093 0.0184495 0.999795 
0.00837525 0.0263701 0.999619 
0.00817341 0.0366102 0.999298 
0.00799323 0.0511701 0.998659 
0.00802962 0.0696701 0.997539 
0.00823132 0.0949435 0.99545 
0.0084609 0.127752 0.991772 
0.00934894 0.174027 0.984698 
0.0110173 0.232397 0.97256 
0.0122062 0.305887 0.951991 
0.0307357 0.396092 0.917698 
0.0129457 0.55068 0.834616 
0.0096309 0.742664 0.669593 
0.00654114 0.926746 0.375626 
-0.000823842 0.997721 -0.0673913 
-0.00825432 0.856056 -0.516791 
-0.0182471 0.592794 -0.805148 
-0.00301639 0.685817 -0.727764 
-0.0156539 0.440166 -0.89778 
-0.0138932 0.333795 -0.942545 
-0.00755773 0.250035 -0.968209 
-0.0097662 0.171906 -0.985067 
-0.00786532 0.126091 -0.991989 
-0.00810974 0.0931632 -0.995619 
-0.00795613 0.0693919 -0.997558 
-0.00795366 0.0495415 -0.998743 
-0.00802506 0.0360275 -0.99932 
-0.00838434 0.0257648 -0.999635 
-0.00856161 0.01836 -0.999795 
-0.00853576 0.0131862 -0.999878 
-0.00866173 0.00947574 -0.999919 
-0.00876446 0.00688367 -0.99994 
-0.00893477 0.00506784 -0.999949 
-0.00878246 0.00369947 -0.999956 
-0.00889451 0.00271782 -0.999959 
-0.00880714 0.0019707 -0.99996 
-0.00893239 0.00137614 -0.99996 
-0.00880774 0.000875206 -0.999963 
-0.00882209 0.000448795 -0.999963 
-0.00876533 5.32031e-05 -0.999962 
-0.00879074 -0.000341021 -0.999963 
-0.00865156 -0.000757084 -0.999964 
-0.0086352 -0.00123256 -0.999964 
-0.00873338 -0.00183903 -0.999962 
-0.00893426 -0.00253535 -0.999959 
-0.00866658 -0.00326754 -0.999959 
-0.00840454 -0.00390208 -0.999959 
-0.00899822 -0.00456215 -0.999951 
-0.00852776 -0.00516045 -0.999952 
-0.008951 -0.00640762 -0.999941 
-0.00843529 -0.00855604 -0.99993 
-0.00737764 -0.0116472 -0.999907 
-0.00667241 -0.0113826 -0.999915 
-0.0024463 -0.00663148 -0.999975 
0.00163968 -0.00656311 0.999978 
0.00463223 -0.0116691 0.999923 
0.00523791 -0.0122553 0.999913 
0.00585056 -0.0085815 0.999948 
0.00578526 -0.00616288 0.999966 
0.00596645 -0.00489305 0.999972 
0.0058379 -0.00416396 0.999976 
0.00584 -0.00373994 0.999978 
0.00615913 -0.00317674 0.999978 
0.00610678 -0.00252261 0.99998 
0.00591726 -0.00183815 0.999982 
0.00616031 -0.00123665 0.999982 
0.00615725 -0.000746066 0.999982 
0.00608269 -0.000332966 0.999983 
0.00599021 5.17592e-05 0.999984 
0.00606044 0.000425285 0.999983 
0.00623747 0.000824258 0.999982 
0.00632245 0.00131114 0.999981 
0.00631252 0.00190225 0.99998 
0.00634751 0.00267696 0.999978 
0.00627099 0.00368688 0.999975 
0.00622288 0.00505452 0.999969 
0.00620526 0.0068868 0.999959 
0.00637923 0.0094432 0.999937 
0.00652641 0.013023 0.999896 
0.00617754 0.0176831 0.999826 
0.00658533 0.0241884 0.999687 
0.00662378 0.0340965 0.999398 
0.0070499 0.0474373 0.998851 
0.00788089 0.0661064 0.997783 
0.00934229 0.090759 0.995831 
0.0112562 0.12525 0.992063 
0.0146519 0.17062 0.98523 
0.0203898 0.223617 0.974465 
0.0253342 0.293335 0.955675 
0.0538034 0.45964 0.886475 
0.0311657 0.531788 0.846304 
0.027607 0.725336 0.68784 
0.018905 0.922462 0.385619 
-0.00158303 0.999758 -0.021725 
-0.0211035 0.863289 -0.50426 
-0.0371777 0.668763 -0.742546 
-0.0365257 0.487841 -0.872168 
-0.031799 0.357052 -0.933545 
-0.0235123 0.27184 -0.962057 
-0.0146299 0.227319 -0.973712 
-0.015908 0.167558 -0.985736 
-0.0111646 0.130887 -0.991336 
-0.00956665 0.0984332 -0.9951 
-0.00798636 0.0699916 -0.997517 
-0.00716431 0.0515793 -0.998645 
-0.00656092 0.0366919 -0.999307 
-0.00647857 0.0261929 -0.999636 
-0.00633545 0.0187207 -0.999807 
-0.00622935 0.0135707 -0.99989 
-0.00627331 0.00971526 -0.999935 
-0.00622512 0.00699191 -0.999958 
-0.00632005 0.00506969 -0.999969 
-0.00619434 0.00373557 -0.999975 
-0.00626717 0.00271864 -0.999979 
-0.00615099 0.00195974 -0.99998 
-0.00622232 0.00135264 -0.999982 
-0.00619741 0.000868104 -0.999982 
-0.00613483 0.000443615 -0.999983 
-0.00606576 6.49861e-05 -0.999983 
-0.00612016 -0.000317769 -0.999983 
-0.00598373 -0.000731615 -0.999983 
-0.00588739 -0.00121522 -0.999984 
-0.00600566 -0.00180579 -0.999982 
-0.00628806 -0.0025258 -0.999979 
-0.00600496 -0.00323847 -0.999978 
-0.00552007 -0.00374828 -0.99998 
-0.00617073 -0.00421383 -0.999974 
-0.0057427 -0.00488239 -0.999973 
-0.00633704 -0.00630229 -0.999962 
-0.00581622 -0.00866876 -0.999947 
-0.00511114 -0.0122933 -0.999913 
-0.00480027 -0.0115803 -0.999923 
-0.00167034 -0.00699054 -0.999975 
0.00103034 -0.00615758 0.999983 
0.00331585 -0.0120158 0.999924 
0.00359174 -0.0127271 0.999914 
0.0039414 -0.00898726 0.999954 
0.00380645 -0.00612627 0.999976 
0.00384139 -0.004666 0.999983 
0.00384819 -0.00403999 0.999986 
0.00387572 -0.00372314 0.999987 
0.00400654 -0.00320299 0.999989 
0.00410859 -0.00252416 0.99999 
0.00408477 -0.00178924 0.999992 
0.00425602 -0.00117745 0.999992 
0.00424491 -0.000691028 0.999992 
0.00425478 -0.000272011 0.999993 
0.00420741 9.73428e-05 0.999993 
0.0042411 0.000463133 0.999992 
0.00437411 0.000867592 0.999992 
0.00441902 0.00134868 0.999991 
0.00443565 0.0019561 0.99999 
0.00446032 0.00274532 0.999988 
0.00445311 0.00379884 0.999984 
0.00447118 0.00523157 0.999978 
0.0045087 0.00720152 0.999965 
0.00466042 0.00992167 0.999942 
0.00471577 0.0134066 0.999901 
0.00482465 0.0187804 0.999814 
0.00535072 0.0260638 0.999648 
0.0059294 0.0367741 0.999308 
0.0070912 0.0511897 0.998665 
0.00911152 0.0712861 0.997416 
0.012273 0.100333 0.99488 
0.0166959 0.137741 0.990329 
0.0239716 0.181518 0.983097 
0.0348883 0.242807 0.969449 
0.0446091 0.327443 0.943819 
0.075725 0.402593 0.912243 
0.0540297 0.641993 0.764803 
0.0882971 0.58106 0.809057 
0.0441183 0.862158 0.504711 
0.00803253 0.997941 0.0635496 
-0.0322283 0.927408 -0.372652 
-0.0579644 0.724891 -0.68642 
-0.0616317 0.488486 -0.870393 
-0.053613 0.36356 -0.930028 
-0.0379194 0.267421 -0.962835 
-0.0246416 0.208461 -0.977722 
-0.0213978 0.151859 -0.988172 
-0.0146023 0.121969 -0.992428 
-0.0109936 0.0904982 -0.995837 
-0.00843256 0.066795 -0.997733 
-0.00661698 0.0468349 -0.998882 
-0.00559341 0.0329416 -0.999443 
-0.00512933 0.0241197 -0.999697 
-0.00480808 0.0174433 -0.999838 
-0.00463204 0.0125023 -0.999913 
-0.00458705 0.00902949 -0.99995 
-0.0045174 0.00651714 -0.99997 
-0.00448715 0.00478557 -0.99998 
-0.00440181 0.00348986 -0.999986 
-0.00443101 0.00254606 -0.999988 
-0.00434988 0.00180524 -0.99999 
-0.00437746 0.00124274 -0.999991 
-0.00434083 0.000776834 -0.999992 
-0.00427541 0.000385153 -0.999992 
-0.00422982 1.70934e-05 -0.999993 
-0.00421148 -0.000349041 -0.999993 
-0.00413433 -0.000777263 -0.999993 
-0.00407518 -0.00130259 -0.999992 
-0.00404565 -0.00191756 -0.999991 
-0.00424534 -0.00258455 -0.999989 
-0.00393446 -0.0032392 -0.999989 
-0.00372221 -0.0037511 -0.999988 
-0.00400767 -0.00406811 -0.999985 
-0.00371006 -0.00464548 -0.999984 
-0.00407972 -0.00615795 -0.999974 
-0.00388742 -0.00891153 -0.999955 
-0.00354349 -0.0126023 -0.999916 
-0.00336965 -0.0116442 -0.999929 
-0.00118771 -0.00696492 -0.999976 
0.000967692 -0.00622949 0.999984 
0.00232684 -0.0106137 0.999943 
0.00272164 -0.0132054 0.999911 
0.00282042 -0.00982768 0.999949 
0.00277698 -0.00668712 0.999975 
0.00274973 -0.00481267 0.999986 
0.00279463 -0.00410256 0.999989 
0.00290909 -0.00386465 0.99999 
0.00302289 -0.00348765 0.999991 
0.00311701 -0.00281852 0.999993 
0.00320662 -0.0020726 0.999994 
0.00328637 -0.00136647 0.999995 
0.00333145 -0.000838959 0.999996 
0.00337693 -0.000401154 0.999996 
0.0033828 -3.03206e-05 0.999996 
0.00341046 0.000319869 0.999996 
0.00346312 0.000698677 0.999995 
0.00351388 0.00112688 0.999995 
0.00355244 0.00166692 0.999994 
0.00357691 0.00237242 0.999992 
0.00360681 0.00329384 0.99999 
0.0036546 0.00454746 0.999985 
0.00371975 0.00624896 0.999975 
0.00382475 0.00863435 0.999957 
0.00393764 0.0116941 0.999925 
0.00419641 0.0160072 0.999865 
0.00474645 0.023261 0.99972 
0.00549365 0.0317256 0.999483 
0.00703075 0.0448989 0.998968 
0.00940431 0.0622203 0.99802 
0.0132574 0.0872711 0.996098 
0.0189987 0.119651 0.992636 
0.0283704 0.159268 0.986829 
0.0419846 0.208413 0.977141 
0.060548 0.286999 0.956017 
0.0841268 0.276756 0.957252 
0.11302 0.393746 0.912246 
0.136069 0.554683 0.820859 
0.0840933 0.803035 0.589961 
0.0233581 0.993898 0.10776 
-0.0716685 0.875414 -0.478016 
-0.0903851 0.615746 -0.782743 
-0.0949592 0.428924 -0.898337 
-0.0759838 0.316637 -0.945499 
-0.0523732 0.254351 -0.965695 
-0.033885 0.192842 -0.980646 
-0.0282549 0.144869 -0.989049 
-0.018815 0.11311 -0.993406 
-0.0137186 0.0898673 -0.995861 
-0.0101231 0.0676283 -0.997661 
-0.00741401 0.0501567 -0.998715 
-0.00574253 0.0350551 -0.99937 
-0.0047868 0.0246156 -0.999687 
-0.00429314 0.0181005 -0.999829 
-0.00400161 0.0130184 -0.999909 
-0.0038376 0.00940038 -0.99995 
-0.00374469 0.00682806 -0.999971 
-0.00365832 0.00493996 -0.999983 
-0.00359452 0.00362291 -0.999989 
-0.00356688 0.00260967 -0.999992 
-0.00353411 0.00187373 -0.999994 
-0.00350871 0.00127932 -0.999995 
-0.00348845 0.000826653 -0.999995 
-0.0034392 0.000436503 -0.999996 
-0.0034061 8.26232e-05 -0.999996 
-0.00334818 -0.00028572 -0.999996 
-0.00330646 -0.00069331 -0.999996 
-0.00326122 -0.00121286 -0.999996 
-0.00317753 -0.00186028 -0.999995 
-0.00316732 -0.00257214 -0.999994 
-0.00304604 -0.00332503 -0.999992 
-0.00287417 -0.00380876 -0.99999 
-0.00291407 -0.00401034 -0.999989 
-0.00275421 -0.00453713 -0.999988 
-0.00287655 -0.00611241 -0.999979 
-0.0028274 -0.00906858 -0.999957 
-0.00270962 -0.0126514 -0.999918 
-0.00257724 -0.0115064 -0.999933 
-0.000995902 -0.00695902 -0.999977 
0.000986922 -0.00643099 0.99998 
0.00205708 -0.0116785 0.999932 
0.00231618 -0.0119307 0.999928 
0.00229511 -0.00824787 0.999965 
0.00233475 -0.00561709 0.999983 
0.00240215 -0.00439535 0.999989 
0.00253604 -0.00404213 0.99999 
0.00267214 -0.00386036 0.999991 
0.00279186 -0.00335536 0.999992 
0.00288525 -0.00259435 0.999994 
0.00297437 -0.00180697 0.999996 
0.00303228 -0.00116679 0.999996 
0.00308498 -0.000663191 0.999997 
0.00312291 -0.000262135 0.999997 
0.00315258 8.84806e-05 0.999997 
0.00319043 0.00043204 0.999996 
0.00322284 0.000801818 0.999996 
0.00326335 0.00124577 0.999995 
0.00329972 0.00181667 0.999994 
0.00333288 0.00255862 0.999993 
0.00338587 0.00356069 0.999989 
0.00345624 0.00490776 0.999984 
0.00355336 0.00674189 0.999973 
0.00367938 0.00909146 0.999953 
0.00389926 0.0123424 0.999918 
0.00431624 0.0176156 0.999837 
0.00500183 0.0239585 0.999702 
0.00610077 0.0332467 0.99943 
0.00822494 0.0461707 0.998901 
0.0114169 0.0640027 0.997886 
0.0162068 0.0866941 0.996105 
0.0235786 0.115209 0.993063 
0.0354987 0.146859 0.988522 
0.0549579 0.200158 0.978223 
0.0741245 0.195706 0.977859 
0.120333 0.279453 0.952591 
0.175527 0.391517 0.903275 
0.2281 0.565089 0.79287 
0.14487 0.783178 0.604681 
-0.119791 0.850726 -0.511762 
-0.138216 0.59444 -0.79217 
-0.216705 0.613506 -0.759372 
-0.14741 0.414048 -0.89824 
-0.107777 0.299765 -0.947908 
-0.0692375 0.221798 -0.972633 
-0.0468159 0.187134 -0.98122 
-0.0310398 0.12953 -0.991091 
-0.0197923 0.0977573 -0.995015 
-0.0135452 0.0729702 -0.997244 
-0.00975076 0.0553743 -0.99842 
-0.00720907 0.0421465 -0.999087 
-0.00562489 0.0302236 -0.999529 
-0.00470992 0.0217264 -0.999755 
-0.00413671 0.0158285 -0.999868 
-0.00380295 0.0114301 -0.999929 
-0.00361219 0.0083071 -0.999961 
-0.00349171 0.00606276 -0.999977 
-0.00339869 0.004445 -0.999986 
-0.00334919 0.00323121 -0.999991 
-0.00329694 0.0023411 -0.999993 
-0.00327712 0.00165185 -0.999995 
-0.00324202 0.00112639 -0.999996 
-0.00321711 0.000715175 -0.999996 
-0.00318417 0.000353452 -0.999996 
-0.00315467 1.3142e-05 -0.999997 
-0.00310403 -0.000347484 -0.999997 
-0.00306836 -0.000784439 -0.999997 
-0.0030117 -0.00132937 -0.999996 
-0.00293922 -0.00202158 -0.999995 
-0.00289886 -0.0027962 -0.999993 
-0.00277311 -0.00349668 -0.999992 
-0.00262992 -0.00395436 -0.99999 
-0.00253057 -0.00408875 -0.99999 
-0.00237183 -0.00457972 -0.999988 
-0.00235369 -0.00601461 -0.999981 
-0.00230485 -0.00884093 -0.99996 
-0.00224654 -0.0123778 -0.999923 
-0.00213886 -0.0115985 -0.999932 
-0.000867765 -0.00694289 -0.999977 
0.000757492 -0.00715605 0.999976 
0.00172695 -0.0112874 0.999937 
0.00204927 -0.0123037 0.999924 
0.00207072 -0.00836641 0.999965 
0.00219476 -0.00583096 0.999982 
0.00229957 -0.00456068 0.999989 
0.00243705 -0.00417644 0.99999 
0.0025669 -0.0040181 0.99999 
0.00267537 -0.00354172 0.999992 
0.00274719 -0.00277405 0.999994 
0.00282136 -0.00195395 0.999996 
0.00285726 -0.00128006 0.999997 
0.00289162 -0.000743903 0.999997 
0.00291758 -0.000329875 0.999997 
0.00293406 1.62143e-05 0.999997 
0.00295715 0.000345846 0.999997 
0.00296839 0.000693172 0.999997 
0.00299937 0.00110603 0.999996 
0.00303888 0.00162491 0.999996 
0.00306804 0.00230125 0.999994 
0.00314047 0.00320501 0.999991 
0.00323166 0.00440324 0.999987 
0.00335624 0.00601029 0.999978 
0.00349175 0.00808628 0.999963 
0.00369869 0.0108856 0.999936 
0.00419344 0.015388 0.999874 
0.00480639 0.0207608 0.999775 
0.00602969 0.029164 0.999558 
0.00781758 0.0394119 0.999194 
0.0112414 0.055308 0.998408 
0.0162113 0.0749152 0.99706 
0.0238534 0.0988453 0.994818 
0.0320021 0.111396 0.993263 
0.0473328 0.147769 0.98789 
0.0996269 0.192944 0.976141 
0.161915 0.249727 0.954685 
0.253996 0.343167 0.904281 
0.373081 0.538469 0.755555 
0.269653 0.813948 0.514564 
0.0258199 0.998086 0.0561616 
-0.234176 0.858349 -0.456506 
-0.36861 0.58396 -0.72327 
-0.231692 0.411745 -0.881354 
-0.157928 0.282129 -0.94629 
-0.0999915 0.21702 -0.971034 
-0.0618339 0.168525 -0.983758 
-0.040926 0.13785 -0.989609 
-0.0232557 0.0946819 -0.995238 
-0.0154463 0.0712933 -0.997338 
-0.0106494 0.0528346 -0.998548 
-0.0077955 0.0404118 -0.999154 
-0.00609761 0.0305348 -0.999516 
-0.00491157 0.0220061 -0.999747 
-0.00415371 0.01571 -0.99987 
-0.00374163 0.0114881 -0.999929 
-0.00348481 0.00835249 -0.999961 
-0.00331959 0.00609891 -0.999977 
-0.0031717 0.00444971 -0.999987 
-0.00313089 0.00327179 -0.999991 
-0.00303307 0.00233856 -0.999994 
-0.00304925 0.00167515 -0.999995 
-0.0030011 0.00114896 -0.999996 
-0.00297537 0.000736682 -0.999997 
-0.00295881 0.000398664 -0.999997 
-0.00293164 6.70848e-05 -0.999997 