# vtk DataFile Version 3.0 
Exported using Morpho https://github.com/Morpho-lang/morpho 
ASCII 
DATASET UNSTRUCTURED_GRID 

POINTS 1978 float 
-8.48528 -2.82842 9.03126e-09 
-8.25284 -2.82843 2.35438e-08 
-8.01849 -2.82843 1.87429e-08 
-7.75248 -2.82843 1.34776e-08 
-7.46017 -2.82843 -1.69043e-11 
-7.21941 -2.82843 2.17846e-09 
-6.97978 -2.82843 7.55869e-09 
-6.76219 -2.82843 4.51216e-09 
-6.55079 -2.82843 4.31588e-09 
-6.33823 -2.82843 1.96382e-09 
-6.13217 -2.82843 1.44841e-09 
-5.92172 -2.82843 1.47219e-09 
-5.71076 -2.82843 1.84972e-10 
-5.50915 -2.82843 -2.34283e-10 
-5.29229 -2.82843 -2.64487e-10 
-5.07713 -2.82843 -8.00906e-10 
-4.86048 -2.82843 -1.52701e-09 
-4.64909 -2.82843 -1.7306e-09 
-4.42743 -2.82843 -2.02208e-09 
-4.20037 -2.82843 -2.81377e-09 
-3.98383 -2.82843 -4.30011e-09 
-3.77494 -2.82843 -5.04717e-09 
-3.56631 -2.82843 -5.98606e-09 
-3.35685 -2.82843 -7.63571e-09 
-3.14367 -2.82843 -9.85243e-09 
-2.93317 -2.82843 -1.31144e-08 
-2.73303 -2.82843 -1.78514e-08 
-2.53608 -2.82843 -1.89629e-08 
-2.31665 -2.82843 -2.47445e-08 
-2.10867 -2.82843 -2.95109e-08 
-1.88932 -2.82843 -3.70072e-08 
-1.68515 -2.82843 -3.46561e-08 
-1.48213 -2.82843 -3.06663e-08 
-1.27267 -2.82843 -4.85453e-08 
-1.10017 -2.82843 1.61942e-08 
-0.849357 -2.82843 9.10802e-10 
-0.63004 -2.82843 -3.25285e-08 
-0.426334 -2.82843 6.11206e-08 
-0.225895 -2.82843 4.21798e-08 
0.0126985 -2.82843 -3.51197e-08 
0.223554 -2.82843 8.14201e-09 
0.432308 -2.82843 -1.46102e-08 
0.665231 -2.82843 -4.61319e-08 
0.885857 -2.82843 -3.09619e-08 
1.07257 -2.82843 1.53728e-08 
1.25574 -2.82842 4.17843e-08 
1.45431 -2.82843 1.70851e-08 
1.67589 -2.82843 3.36192e-08 
1.87928 -2.82843 3.70511e-08 
2.09437 -2.82843 2.76978e-08 
2.32209 -2.82843 2.7022e-08 
2.51634 -2.82843 2.14948e-08 
2.73388 -2.82843 1.56491e-08 
2.95468 -2.82843 1.24471e-08 
3.16253 -2.82843 1.14757e-08 
3.35918 -2.82843 7.63467e-09 
3.58178 -2.82843 6.19863e-09 
3.78347 -2.82843 5.34573e-09 
4.00007 -2.82843 3.18773e-09 
4.2271 -2.82843 2.60842e-09 
4.43037 -2.82843 2.31082e-09 
4.64954 -2.82843 1.88459e-09 
4.8538 -2.82843 1.49695e-09 
5.06962 -2.82843 9.36733e-10 
5.28247 -2.82843 3.3274e-10 
5.49928 -2.82843 1.05795e-10 
5.70931 -2.82843 -1.9123e-10 
5.92778 -2.82843 -1.2175e-09 
6.15378 -2.82843 -1.76902e-09 
6.35879 -2.82843 -2.51428e-09 
6.58964 -2.82843 -4.44752e-09 
6.8023 -2.82843 -7.12269e-09 
7.00045 -2.82843 -3.87376e-09 
7.26224 -2.82843 -3.0978e-09 
7.49582 -2.82843 -4.33617e-09 
7.72775 -2.82843 -7.80507e-09 
7.99379 -2.82843 -1.56176e-08 
8.18201 -2.82843 -1.46466e-08 
8.48528 -2.82842 -8.63985e-09 
-8.48528 -2.59026 -2.21339e-08 
-8.24831 -2.58524 4.64653e-16 
-8.00572 -2.58844 4.92811e-15 
-7.76189 -2.61456 3.11468e-15 
-7.50637 -2.63977 3.67147e-15 
-7.21733 -2.60051 4.507e-15 
-6.9816 -2.58684 4.71189e-15 
-6.76486 -2.58016 3.72024e-16 
-6.54109 -2.58866 5.98318e-15 
-6.33048 -2.57526 1.37755e-15 
-6.11095 -2.58766 1.99021e-15 
-5.89728 -2.58389 1.21251e-15 
-5.69038 -2.5703 7.86462e-16 
-5.47139 -2.58929 3.86186e-16 
-5.25203 -2.5862 -6.56885e-17 
-5.03251 -2.58704 -4.68423e-16 
-4.81785 -2.58085 -8.69321e-16 
-4.59764 -2.5913 -1.30028e-15 
-4.37111 -2.5974 -1.71401e-15 
-4.15178 -2.58807 -2.47005e-15 
-3.9407 -2.58138 -3.27678e-15 
-3.73166 -2.58286 -4.11292e-15 
-3.52069 -2.58752 -5.08512e-15 
-3.30677 -2.59446 -6.00406e-15 
-3.09334 -2.59441 -7.4627e-15 
-2.88713 -2.58447 -9.60518e-15 
-2.68689 -2.58293 -1.10021e-14 
-2.47169 -2.60613 -1.191e-14 
-2.25469 -2.5908 -1.21285e-14 
-2.03842 -2.60083 -1.31129e-14 
-1.822 -2.58068 -1.36227e-14 
-1.61359 -2.57608 -1.38982e-14 
-1.40917 -2.58223 -2.17522e-14 
-1.22792 -2.5135 8.14627e-15 
-1.01763 -2.61003 -8.31598e-15 
-0.803621 -2.56872 -7.41127e-14 
-0.59402 -2.52205 -1.11291e-14 
-0.392227 -2.50048 3.33951e-14 
-0.171779 -2.55465 5.76367e-14 
0.0401629 -2.49975 4.04494e-14 
0.251582 -2.54409 -6.19448e-14 
0.465217 -2.37572 1.69196e-14 
0.524678 -2.59704 1.08361e-14 
0.795077 -2.60351 -4.87975e-14 
1.04129 -2.54979 2.43947e-14 
1.24904 -2.57134 2.9482e-14 
1.46894 -2.59248 -1.88726e-14 
1.69381 -2.583 -2.5879e-14 
1.91933 -2.60024 2.26127e-14 
2.15573 -2.61621 1.78182e-14 
2.37186 -2.58014 1.22099e-14 
2.58252 -2.59777 7.78698e-15 
2.80875 -2.6041 1.03111e-14 
3.01909 -2.58671 7.6012e-15 
3.22192 -2.57285 6.68787e-15 
3.43686 -2.60141 5.80764e-15 
3.64441 -2.57574 4.16796e-15 
3.85638 -2.59126 3.36845e-15 
4.08042 -2.60069 2.70617e-15 
4.29103 -2.57336 2.05474e-15 
4.50641 -2.59206 1.69526e-15 
4.71648 -2.57424 1.03691e-15 
4.9317 -2.58882 6.34716e-16 
5.14779 -2.58518 2.37044e-16 
5.36712 -2.58988 -1.63597e-16 
5.58345 -2.58113 -5.60103e-16 
5.80145 -2.58898 -9.92669e-16 
6.0282 -2.59549 -1.58614e-15 
6.24462 -2.56998 -2.00067e-15 
6.46546 -2.59903 -2.5926e-15 
6.68943 -2.57708 -3.25563e-15 
6.89808 -2.55925 -3.8591e-15 
7.12317 -2.62353 -3.48312e-15 
7.37429 -2.59548 -4.79336e-15 
7.6085 -2.59282 -3.97182e-15 
7.86034 -2.62106 -3.78652e-15 
8.07378 -2.53021 -3.668e-15 
8.3011 -2.63814 1.59962e-15 
8.48528 -2.51622 1.71413e-08 
-8.48528 -2.34848 -2.14518e-08 
-8.23413 -2.35319 2.55267e-15 
-7.99574 -2.34294 8.55689e-15 
-7.75462 -2.39017 5.49536e-15 
-7.5577 -2.24254 9.20104e-15 
-7.4573 -2.45119 4.06987e-15 
-7.17618 -2.38309 6.4303e-15 
-6.94961 -2.33359 6.64876e-15 
-6.71268 -2.35408 4.05011e-15 
-6.4903 -2.34207 4.45085e-15 
-6.2532 -2.34719 2.80074e-15 
-6.03506 -2.34428 2.51018e-15 
-5.82217 -2.32999 1.66025e-15 
-5.59223 -2.34241 9.8297e-16 
-5.37253 -2.35117 1.88237e-16 
-5.14751 -2.34956 -4.68766e-16 
-4.92872 -2.34117 -1.13535e-15 
-4.7057 -2.349 -1.92244e-15 
-4.48203 -2.36429 -2.68118e-15 
-4.26182 -2.35589 -3.61743e-15 
-4.04635 -2.34072 -4.66202e-15 
-3.83465 -2.33758 -5.85692e-15 
-3.62326 -2.34615 -7.45615e-15 
-3.40928 -2.35755 -9.25759e-15 
-3.19582 -2.36265 -1.13057e-14 
-2.98531 -2.35238 -1.36032e-14 
-2.77693 -2.33861 -1.66589e-14 
-2.56497 -2.36791 -1.87516e-14 
-2.35267 -2.37233 -2.00224e-14 
-2.12354 -2.36218 -2.0783e-14 
-1.91035 -2.35931 -2.34841e-14 
-1.68147 -2.3327 -1.87247e-14 
-1.46916 -2.31977 -9.45608e-15 
-1.26789 -2.25748 -1.60674e-14 
-1.034 -2.34533 1.64894e-14 
-0.806799 -2.3081 1.83497e-14 
-0.589501 -2.22546 1.2862e-15 
-0.364905 -2.19791 -6.9644e-14 
-0.158439 -2.25264 3.36958e-14 
0.037378 -2.12947 3.67986e-15 
0.22854 -2.25136 -1.21428e-14 
0.420268 -2.08964 -6.08237e-14 
0.658722 -2.18725 1.22954e-13 
0.762254 -2.3835 -3.95035e-14 
1.01013 -2.31339 7.12923e-14 
1.24644 -2.30927 -9.78196e-14 
1.45779 -2.36077 6.51543e-14 
1.66177 -2.32793 4.97581e-14 
1.871 -2.36298 1.638e-14 
2.08724 -2.39465 2.37674e-14 
2.30165 -2.36556 2.21057e-14 
2.53264 -2.35162 1.96065e-14 
2.74367 -2.38365 1.54746e-14 
2.9627 -2.34988 1.40199e-14 
3.16783 -2.33042 1.19275e-14 
3.38395 -2.36063 9.51318e-15 
3.58873 -2.33741 7.76327e-15 
3.80243 -2.34641 6.20489e-15 
4.01533 -2.36837 4.55577e-15 
4.22667 -2.3361 3.85539e-15 
4.44632 -2.34693 2.81621e-15 
4.65302 -2.332 2.0205e-15 
4.86983 -2.34469 1.25939e-15 
5.08238 -2.34508 6.30209e-16 
5.29982 -2.35209 4.56438e-18 
5.51634 -2.34312 -6.96501e-16 
5.73656 -2.34608 -1.44964e-15 
5.95717 -2.3615 -2.22403e-15 
6.17508 -2.33315 -3.22062e-15 
6.40481 -2.35039 -3.90275e-15 
6.61765 -2.34623 -4.7611e-15 
6.83943 -2.30833 -5.80331e-15 
7.06712 -2.36672 -6.75629e-15 
7.28273 -2.3917 -7.93963e-15 
7.53815 -2.35809 -8.1593e-15 
7.78222 -2.39284 -6.17448e-15 
7.99352 -2.29977 -8.78387e-15 
8.25554 -2.36251 -3.92961e-15 
8.48528 -2.26964 1.40211e-08 
-8.48528 -2.0823 -1.71113e-08 
-8.26844 -2.11573 -6.20316e-16 
-8.04093 -2.09482 5.11864e-15 
-7.79851 -2.14313 5.23416e-15 
-7.53259 -2.02455 2.49848e-15 
-7.30744 -2.21868 8.35487e-15 
-7.06533 -2.11682 4.85825e-15 
-6.81134 -2.1171 3.11152e-15 
-6.59491 -2.11166 2.73041e-15 
-6.35824 -2.12625 2.77835e-15 
-6.13239 -2.10333 1.98584e-15 
-5.9234 -2.09013 1.33545e-15 
-5.69821 -2.11077 8.497e-16 
-5.47357 -2.10925 2.94527e-16 
-5.25566 -2.11844 -1.86116e-16 
-5.03706 -2.10766 -5.07524e-16 
-4.8151 -2.11142 -9.4678e-16 
-4.59287 -2.12475 -1.51636e-15 
-4.37861 -2.1259 -2.09372e-15 
-4.16528 -2.11057 -2.54262e-15 
-3.95275 -2.09874 -3.11439e-15 
-3.74026 -2.10334 -3.93319e-15 
-3.52822 -2.11818 -5.12489e-15 
-3.31662 -2.12771 -6.43313e-15 
-3.10754 -2.12513 -7.8338e-15 
-2.89794 -2.11175 -9.09974e-15 
-2.6776 -2.11747 -1.13409e-14 
-2.47021 -2.1367 -1.47181e-14 
-2.25024 -2.14886 -1.82844e-14 
-2.02388 -2.1198 -1.72476e-14 
-1.80412 -2.12749 -1.47248e-14 
-1.57603 -2.079 -1.30073e-14 
-1.38146 -2.02063 -5.32236e-15 
-1.172 -1.96018 -2.79069e-15 
-1.0353 -2.09912 -1.26012e-14 
-0.813686 -2.04945 -1.02135e-14 
-0.582421 -1.95402 4.28892e-14 
-0.354745 -1.9077 5.66365e-14 
-0.132813 -1.93178 -9.76635e-14 
0.0489606 -1.73258 -5.29022e-14 
0.211804 -1.91923 8.72081e-15 
0.284592 -1.62221 2.4361e-13 
0.462016 -1.82252 2.984e-13 
0.692467 -1.95136 -5.30089e-13 
0.925264 -2.1046 1.14815e-13 
1.2012 -2.06514 4.17919e-14 
1.43881 -2.10919 -5.83763e-15 
1.66406 -2.09303 6.23327e-15 
1.8902 -2.12097 1.70516e-14 
2.10359 -2.15933 1.97324e-14 
2.33932 -2.15175 1.53901e-14 
2.56708 -2.11956 1.21904e-14 
2.77972 -2.1528 1.30494e-14 
2.988 -2.10212 8.36765e-15 
3.21237 -2.10851 6.39166e-15 
3.4146 -2.11405 5.82276e-15 
3.63026 -2.1039 4.36482e-15 
3.84453 -2.11432 3.65622e-15 
4.04941 -2.12345 3.14995e-15 
4.27438 -2.10715 2.29025e-15 
4.47933 -2.09802 1.63644e-15 
4.69893 -2.09944 1.1367e-15 
4.91052 -2.10485 7.44136e-16 
5.12777 -2.11029 3.58054e-16 
5.34205 -2.11357 -8.77596e-17 
5.56263 -2.10911 -5.82924e-16 
5.78478 -2.11392 -1.13222e-15 
5.99742 -2.11705 -1.69444e-15 
6.234 -2.10923 -2.20375e-15 
6.44517 -2.10124 -2.68679e-15 
6.66164 -2.10207 -2.66947e-15 
6.90854 -2.09146 -3.47886e-15 
7.12004 -2.12241 -4.57773e-15 
7.34983 -2.17256 -6.62631e-15 
7.53686 -2.06944 -3.82079e-15 
7.72696 -2.15844 -5.01576e-15 
7.95147 -2.07108 -2.75562e-15 
8.20628 -2.1361 -4.7342e-15 
8.48528 -2.06823 1.41179e-08 
-8.48528 -1.78402 -5.32696e-09 
-8.29542 -1.86096 -2.66508e-15 
-7.89722 -1.89538 -1.99846e-15 
[...]
POINT_DATA 1978 
VECTORS vectors float
0.00310623 -0.00669456 0.999973 
0.00691651 -0.0496906 0.998741 
0.00494886 -0.071749 0.99741 
0.00487035 -0.067278 0.997722 
0.00499668 -0.0573024 0.998344 
0.00449875 -0.0493206 0.998773 
0.00430449 -0.0394061 0.999214 
0.00431805 -0.0318264 0.999484 
0.00418327 -0.0248358 0.999683 
0.00411813 -0.0188046 0.999815 
0.00411655 -0.014069 0.999893 
0.00421325 -0.0102408 0.999939 
0.00406196 -0.00661032 0.99997 
0.00417875 -0.00340181 0.999985 
0.00444469 -0.000278835 0.99999 
0.00444882 0.00279567 0.999986 
0.00425682 0.00600395 0.999973 
0.00436883 0.00957338 0.999945 
0.00471022 0.0138501 0.999893 
0.00457116 0.0190326 0.999808 
0.00416684 0.0252242 0.999673 
0.00402549 0.0324599 0.999465 
0.00402393 0.0411794 0.999144 
0.00411086 0.0520403 0.998637 
0.00410199 0.0658465 0.997821 
0.00367243 0.0829575 0.996546 
0.00329498 0.103486 0.994626 
0.0035294 0.128389 0.991718 
0.0035883 0.163084 0.986606 
0.00332767 0.20466 0.978827 
0.00289352 0.259476 0.965745 
0.0024464 0.321753 0.946821 
0.00200406 0.396359 0.918094 
0.00141613 0.486929 0.873441 
0.00128467 0.571138 0.820853 
0.00105857 0.701496 0.712673 
0.000345651 0.809107 0.587662 
4.40305e-05 0.90541 0.424538 
0.000118525 0.972153 0.234349 
6.88547e-05 0.999803 -0.0198542 
1.0748e-06 0.973224 -0.22986 
-0.000164638 0.902397 -0.430906 
-0.000674132 0.798618 -0.601838 
-0.000830899 0.682475 -0.730908 
-0.000805407 0.585125 -0.810943 
-0.00132532 0.493261 -0.86988 
-0.00231791 0.411012 -0.911627 
-0.00251631 0.323291 -0.946296 
-0.00286831 0.262078 -0.965043 
-0.00354619 0.208567 -0.978002 
-0.00334076 0.163625 -0.986517 
-0.00345424 0.13211 -0.991229 
-0.00410902 0.103689 -0.994601 
-0.00400662 0.0815318 -0.996663 
-0.00362454 0.0647062 -0.997898 
-0.00403409 0.0520797 -0.998635 
-0.00410611 0.0409256 -0.999154 
-0.0040862 0.0323722 -0.999468 
-0.00458481 0.0249433 -0.999678 
-0.00436565 0.0186299 -0.999817 
-0.00419183 0.0136503 -0.999898 
-0.00421561 0.00932405 -0.999948 
-0.00421024 0.00579998 -0.999974 
-0.00437483 0.00246161 -0.999987 
-0.0044258 -0.000531333 -0.99999 
-0.00425303 -0.0036426 -0.999984 
-0.00434188 -0.00693231 -0.999967 
-0.00461619 -0.0104672 -0.999935 
-0.00430349 -0.0147836 -0.999881 
-0.0044923 -0.0198954 -0.999792 
-0.00446807 -0.0265112 -0.999639 
-0.00366817 -0.034286 -0.999405 
-0.00451767 -0.0427214 -0.999077 
-0.00505014 -0.0536487 -0.998547 
-0.00450297 -0.0625647 -0.998031 
-0.00478749 -0.0702362 -0.997519 
-0.00438144 -0.0759236 -0.997104 
-0.00927768 -0.0602769 -0.998139 
-0.00703696 -0.00623824 -0.999955 
-0.00226199 -0.00551256 0.999981 
0.0135301 -0.0438758 0.998946 
0.0212331 -0.0627494 0.997804 
0.0223312 -0.0653715 0.997611 
0.0223285 -0.0580642 0.998063 
0.0263657 -0.0474496 0.998526 
0.0286467 -0.039074 0.998826 
0.0295306 -0.0317973 0.999059 
0.0297856 -0.0248117 0.999248 
0.031121 -0.0189466 0.999336 
0.031025 -0.0139302 0.999422 
0.0313392 -0.00983938 0.999461 
0.0327442 -0.00625058 0.999444 
0.0313062 -0.00281196 0.999506 
0.031432 0.000399943 0.999506 
0.0313297 0.00359433 0.999503 
0.0318041 0.00687545 0.999471 
0.0306325 0.0106622 0.999474 
0.0299578 0.0152482 0.999435 
0.0308121 0.0206287 0.999313 
0.0312412 0.0269182 0.99915 
0.0307279 0.0344642 0.998934 
0.0299551 0.0437611 0.998593 
0.0287244 0.0555334 0.998044 
0.0280112 0.0703074 0.997132 
0.0277367 0.0882293 0.995714 
0.0264597 0.109833 0.993598 
0.0229022 0.138807 0.990055 
0.0216233 0.176218 0.984114 
0.0186322 0.223004 0.97464 
0.0171262 0.281008 0.959553 
0.0144247 0.349187 0.936942 
0.0116406 0.428601 0.903419 
0.010471 0.510566 0.859775 
0.00609428 0.621296 0.783553 
0.00471127 0.735355 0.677666 
0.00334484 0.833174 0.553001 
0.00146179 0.914049 0.405601 
-0.000102304 0.981059 0.193711 
-0.000527367 0.99958 -0.0289686 
-0.00138898 0.967509 -0.252833 
-0.00464629 0.898342 -0.439272 
-0.0028914 0.865112 -0.501571 
-0.00540003 0.727918 -0.685644 
-0.00873209 0.597264 -0.801998 
-0.0106864 0.494276 -0.869239 
-0.0119021 0.39621 -0.918083 
-0.0155882 0.316278 -0.948539 
-0.0174915 0.250606 -0.967931 
-0.0197116 0.19553 -0.9805 
-0.0240164 0.156013 -0.987463 
-0.0238565 0.123745 -0.992027 
-0.0256055 0.0962918 -0.995024 
-0.0278205 0.076334 -0.996694 
-0.0300314 0.0611599 -0.997676 
-0.0285241 0.0483016 -0.998426 
-0.0309375 0.0383995 -0.998784 
-0.0300826 0.0300372 -0.999096 
-0.0296439 0.0227751 -0.999301 
-0.0321493 0.0171544 -0.999336 
-0.0308731 0.0122975 -0.999448 
-0.032376 0.00835335 -0.999441 
-0.0313178 0.00478399 -0.999498 
-0.0315726 0.00152418 -0.999501 
-0.0313136 -0.00165134 -0.999508 
-0.0319434 -0.00483775 -0.999478 
-0.0309758 -0.00830771 -0.999486 
-0.0302193 -0.012421 -0.999466 
-0.031883 -0.0172169 -0.999344 
-0.0290003 -0.0230858 -0.999313 
-0.0303948 -0.0302236 -0.999081 
-0.0312344 -0.0376977 -0.998801 
-0.0252463 -0.0466384 -0.998593 
-0.0272128 -0.0561911 -0.998049 
-0.0262973 -0.064665 -0.997561 
-0.0225628 -0.0702633 -0.997273 
-0.0230491 -0.0587472 -0.998007 
-0.010294 -0.0373531 -0.999249 
0.00219945 -0.00586525 -0.999979 
-0.000328284 -0.00532051 0.999984 
0.0195393 -0.040442 0.998991 
0.0338939 -0.060522 0.997591 
0.0365391 -0.0637347 0.997298 
0.0441226 -0.0585606 0.997308 
0.0355267 -0.0553406 0.997836 
0.0414235 -0.0450188 0.998127 
0.0453419 -0.0376021 0.998264 
0.044934 -0.0301307 0.998536 
0.0464379 -0.0234365 0.998646 
0.0475399 -0.0172632 0.99872 
0.0483413 -0.0123691 0.998754 
0.0490226 -0.00828345 0.998763 
0.04881 -0.00441442 0.998798 
0.0486072 -0.0011026 0.998817 
0.0486555 0.00215684 0.998813 
0.0490194 0.00542412 0.998783 
0.0483659 0.00902174 0.998789 
0.0474082 0.0131679 0.998789 
0.0476711 0.0180864 0.998699 
0.0480703 0.0239222 0.998558 
0.0476578 0.0308546 0.998387 
0.046753 0.0392815 0.998134 
0.0454533 0.0498917 0.99772 
0.0441041 0.0631671 0.997028 
0.0429759 0.0796689 0.995895 
0.0414876 0.100088 0.994113 
0.0379498 0.126114 0.99129 
0.0344894 0.159171 0.986649 
0.0308385 0.204779 0.978323 
0.0270849 0.25767 0.965853 
0.0227024 0.328673 0.944171 
0.0185675 0.406389 0.913512 
0.0154963 0.491411 0.87079 
0.0106194 0.601658 0.798683 
0.00792464 0.715285 0.698788 
0.00425377 0.829864 0.557949 
0.000279262 0.926683 0.375843 
-0.00127255 0.982185 0.187911 
-0.00461446 0.99982 -0.0184187 
-0.00529502 0.977382 -0.211417 
-0.00962911 0.913448 -0.406843 
-0.00924881 0.812063 -0.583497 
-0.00819152 0.741316 -0.671107 
-0.0125764 0.606598 -0.794909 
-0.016049 0.497045 -0.867577 
-0.01874 0.404602 -0.914301 
-0.0238026 0.333459 -0.942464 
-0.0269318 0.267874 -0.963078 
-0.0300186 0.213129 -0.976563 
-0.034757 0.169396 -0.984935 
-0.0374979 0.131462 -0.990612 
-0.0390133 0.10406 -0.993806 
-0.0424765 0.0815854 -0.995761 
-0.0449144 0.06532 -0.996853 
-0.0449613 0.0514839 -0.997661 
-0.0469787 0.0410622 -0.998052 
-0.0472298 0.0322222 -0.998364 
-0.0466651 0.0249528 -0.998599 
-0.0486464 0.01903 -0.998635 
-0.048407 0.0138708 -0.998732 
-0.0493618 0.00981611 -0.998733 
-0.0490323 0.00609939 -0.998779 
-0.0491756 0.00278976 -0.998786 
-0.048916 -0.000422722 -0.998803 
-0.0492879 -0.00361042 -0.998778 
-0.0488271 -0.00708202 -0.998782 
-0.0476553 -0.0110434 -0.998803 
-0.0484331 -0.015713 -0.998703 
-0.0467913 -0.0216369 -0.99867 
-0.046119 -0.028046 -0.998542 
-0.0467496 -0.0353917 -0.99828 
-0.0436096 -0.0432995 -0.99811 
-0.0416557 -0.0512302 -0.997818 
-0.0414985 -0.0604734 -0.997307 
-0.037717 -0.0672194 -0.997025 
-0.0364539 -0.0617958 -0.997423 
-0.0192417 -0.0382533 -0.999083 
0.00130313 -0.00615645 -0.99998 
0.000963035 -0.00409336 0.999988 
0.0173267 -0.0345457 0.999253 
0.0324435 -0.0559842 0.997905 
0.0407673 -0.0634681 0.997151 
0.0420045 -0.0574716 0.997463 
0.0455907 -0.0494143 0.997737 
0.0461825 -0.041489 0.998071 
0.0475143 -0.0336723 0.998303 
0.048753 -0.0270648 0.998444 
0.050021 -0.0202334 0.998543 
0.050657 -0.0145367 0.99861 
0.0509705 -0.0100541 0.99865 
0.0515512 -0.00597544 0.998653 
0.0517458 -0.0024129 0.998657 
0.0519109 0.000820285 0.998652 
0.0517033 0.0040781 0.998654 
0.0515467 0.00755177 0.998642 
0.0514078 0.011365 0.998613 
0.0510971 0.0156869 0.998571 
0.0505371 0.0208748 0.998504 
0.0498537 0.0271343 0.998388 
0.049224 0.0347095 0.998185 
0.0485253 0.0440612 0.99785 
0.0474492 0.0557206 0.997318 
0.0458922 0.0702141 0.996476 
0.0437228 0.0884791 0.995118 
0.0412354 0.112609 0.992784 
0.0385035 0.141255 0.989224 
0.0349286 0.179637 0.983113 
0.0302988 0.230232 0.972664 
0.0260214 0.291535 0.956206 
0.0208225 0.369475 0.929008 
0.016798 0.445568 0.895091 
0.0128435 0.539683 0.84177 
0.0113775 0.601745 0.798608 
0.00738459 0.719674 0.694274 
0.00299702 0.834992 0.550254 
-0.000324521 0.932647 0.36079 
-0.00337479 0.990229 0.139408 
-0.00457587 0.998096 -0.0615099 
-0.00795777 0.971686 -0.236143 
-0.00685459 0.954459 -0.298264 
-0.00962913 0.881202 -0.472643 
-0.0111579 0.772545 -0.634861 
-0.0124135 0.648769 -0.760885 
-0.0158286 0.520447 -0.853747 
-0.0199581 0.418422 -0.908034 
-0.0239865 0.338505 -0.940659 
-0.0283532 0.266999 -0.96328 
-0.0325774 0.21113 -0.976915 
-0.0367967 0.162801 -0.985973 
-0.0398821 0.126856 -0.991119 
-0.0428742 0.100154 -0.994048 
-0.0443002 0.0802124 -0.995793 
-0.0464285 0.0626957 -0.996952 
-0.0477434 0.0502 -0.997598 
-0.0487515 0.0395626 -0.998027 
-0.0497306 0.0309779 -0.998282 
-0.0503519 0.0242575 -0.998437 
-0.050776 0.0181747 -0.998545 
-0.0509725 0.0135757 -0.998608 
-0.0513553 0.00938149 -0.998637 
-0.0516613 0.00581562 -0.998648 
-0.0519233 0.00244834 -0.998648 
-0.052036 -0.000757997 -0.998645 
-0.051928 -0.00410516 -0.998643 
-0.0517508 -0.00779791 -0.99863 
-0.0513293 -0.011895 -0.998611 
-0.0506494 -0.0173564 -0.998566 
-0.0496517 -0.0232043 -0.998497 
-0.0486278 -0.0298879 -0.99837 
-0.0475446 -0.0379456 -0.998148 
-0.0468064 -0.0447721 -0.9979 
-0.046173 -0.0527427 -0.99754 
-0.0439473 -0.0592439 -0.997276 
-0.0432263 -0.0652422 -0.996933 
-0.0380911 -0.0634981 -0.997255 
-0.0248954 -0.0425402 -0.998785 
0.000974036 -0.00596499 -0.999981 
0.00118037 -0.00445812 0.999987 
0.0128159 -0.0321106 0.999402 
0.0343388 -0.0643045 0.997339 
0.0370664 -0.0622272 0.997374 
0.035852 -0.0537782 0.997909 
0.0427243 -0.0492238 0.997874 
0.0397416 -0.0447554 0.998207 
0.0428452 -0.0382516 0.998349 
0.0427767 -0.0313566 0.998593 
0.0450445 -0.0243568 0.998688 
0.0455834 -0.018093 0.998797 
0.0451832 -0.0128039 0.998897 
0.0462079 -0.00816447 0.998899 
0.0468877 -0.00430619 0.998891 
0.0468855 -0.000770908 0.9989 
0.0468557 0.00244587 0.998899 
0.0467125 0.00586125 0.998891 
0.0466743 0.00947348 0.998865 
0.0464181 0.0133644 0.998833 
0.0459443 0.0178539 0.998785 
0.0451651 0.0233155 0.998708 
0.0444619 0.0300169 0.99856 
0.0439409 0.0381528 0.998305 
0.0432938 0.0480599 0.997906 
0.0421301 0.0603547 0.997288 
0.0403702 0.0757871 0.996307 
0.0381838 0.0962841 0.994621 
0.0354885 0.121681 0.991935 
0.0331922 0.153429 0.987602 
0.0298704 0.195117 0.980325 
0.0252464 0.252554 0.967253 
0.0216596 0.315964 0.948524 
0.017182 0.384372 0.923019 
0.0134357 0.474809 0.879986 
0.00837176 0.673299 0.739323 
0.00512389 0.789067 0.614286 
0.00210063 0.909279 0.416181 
0.00259982 0.955741 0.294198 
-0.00079997 0.980772 0.195156 
-0.00308548 0.999271 -0.0380619 
-0.00353542 0.987046 -0.160396 
-0.00781641 0.910316 -0.41384 
-0.0100956 0.831524 -0.555396 
-0.0108518 0.718082 -0.695877 
-0.0132582 0.60421 -0.796714 
-0.0142281 0.542881 -0.83969 
-0.0169846 0.459862 -0.887828 
-0.0195697 0.378174 -0.925528 
-0.0234192 0.295986 -0.954905 
-0.0275472 0.232118 -0.972298 
-0.0314605 0.184351 -0.982357 
-0.0343793 0.144214 -0.988949 
-0.0373597 0.109855 -0.993245 
-0.0386967 0.0890669 -0.995274 
-0.04095 0.069155 -0.996765 
-0.0420707 0.0546372 -0.99762 
-0.0433706 0.0436479 -0.998105 
-0.0443985 0.034133 -0.998431 
-0.0450397 0.0267666 -0.998627 
-0.0459463 0.0207415 -0.998729 
-0.0454866 0.0155683 -0.998844 
-0.0461854 0.0112584 -0.99887 
-0.0463345 0.00740828 -0.998899 
-0.0468137 0.00396788 -0.998896 
-0.0469556 0.000624036 -0.998897 
-0.0470727 -0.00268316 -0.998888 
-0.0469644 -0.00638961 -0.998876 
-0.046442 -0.0105804 -0.998865 
-0.0464553 -0.0155283 -0.9988 
-0.0446971 -0.0217607 -0.998764 
-0.0437847 -0.0284394 -0.998636 
-0.0433806 -0.0356665 -0.998422 
-0.0416037 -0.0431603 -0.998202 
-0.0418175 -0.0499128 -0.997878 
-0.0384538 -0.0580375 -0.997574 
-0.0375857 -0.0653061 -0.997157 
-0.0305534 -0.059781 -0.997744 
-0.0195513 -0.0395366 -0.999027 
0.000725858 -0.00646498 -0.999978 
1.4066e-05 -0.00546771 0.999984 
0.0119414 -0.0355248 0.999298 
0.0236115 -0.0513824 0.9984 
0.0280782 -0.0648186 0.997502 
0.0311643 -0.0618213 0.997601 
0.0333547 -0.0493924 0.998222 
0.0357072 -0.0420116 0.998479 
0.0374689 -0.0359579 0.998651 
0.0387705 -0.0275323 0.998869 
0.0398484 -0.0211199 0.998983 
0.039802 -0.015342 0.99909 
0.0404264 -0.00979153 0.999135 
0.0411562 -0.00552983 0.999138 
0.041518 -0.00184269 0.999136 
0.0412034 0.00167134 0.99915 
0.0413247 0.00496949 0.999134 
0.0412683 0.00854343 0.999112 
0.0409084 0.0123771 0.999086 
0.0404705 0.0166327 0.999042 
0.0399455 0.0216041 0.998968 
0.0394007 0.0277779 0.998837 
0.0388539 0.035397 0.998618 
0.0382572 0.0446543 0.99827 
0.0373641 0.055985 0.997732 
0.0359226 0.0702427 0.996883 
0.0341844 0.0887499 0.995467 
0.0316906 0.112613 0.993134 
0.0291796 0.144049 0.98914 
0.0266954 0.18204 0.982929 
0.0233185 0.233209 0.972147 
0.0190987 0.302955 0.952814 
0.0148791 0.387215 0.92187 
0.0114263 0.489416 0.871975 
0.00834936 0.596829 0.802325 
0.0095797 0.590898 0.806689 
0.00606026 0.71771 0.696316 
0.00467887 0.843028 0.53785 
0.0042682 0.881869 0.471475 
0.000450413 0.989076 0.147408 
-0.00329351 0.994334 -0.106246 
-0.000884688 0.996834 -0.0795048 
-0.00441575 0.937432 -0.348139 
-0.00594899 0.899713 -0.436441 
-0.0103586 0.783128 -0.621775 
-0.0118578 0.668719 -0.74342 
-0.012741 0.553149 -0.832985 
-0.0154378 0.438028 -0.898829 
-0.0183634 0.348381 -0.937173 
-0.0215827 0.271333 -0.962244 
-0.0246548 0.214987 -0.976306 
-0.0279078 0.171899 -0.984719 
-0.0315265 0.131049 -0.990875 
-0.0320657 0.104424 -0.994016 
-0.0349278 0.0816201 -0.996051 
-0.036292 0.0645476 -0.997255 
-0.0371469 0.051373 -0.997989 
-0.0386136 0.0407213 -0.998424 
-0.0391706 0.0322425 -0.998712 
-0.0397653 0.0252968 -0.998889 
-0.0404787 0.0196796 -0.998987 
-0.0401992 0.0146811 -0.999084 
-0.0408854 0.0105474 -0.999108 
-0.0409129 0.00685936 -0.999139 
-0.041392 0.00341881 -0.999137 
-0.0413559 7.6848e-05 -0.999145 
-0.0416075 -0.00346006 -0.999128 
-0.0412565 -0.00731319 -0.999122 
-0.0408172 -0.0119743 -0.999095 
-0.0405831 -0.0172907 -0.999027 
-0.0388015 -0.0239745 -0.998959 
-0.0381783 -0.0311373 -0.998786 
-0.0377903 -0.0385125 -0.998543 
-0.035451 -0.0452111 -0.998348 
-0.0357633 -0.0508367 -0.998067 
-0.0323889 -0.0586212 -0.997755 
-0.0318983 -0.0652867 -0.997357 
-0.0259033 -0.0606144 -0.997825 
-0.0145901 -0.0371776 -0.999202 
0.000822251 -0.00640287 -0.999979 
-0.000500156 -0.00606945 0.999981 
0.0116907 -0.0405858 0.999108 
0.0209529 -0.0572983 0.998137 
0.0246792 -0.0647788 0.997595 
0.0287729 -0.0574024 0.997937 
0.027945 -0.0513846 0.998288 
0.030926 -0.0452367 0.998498 
0.0315997 -0.0384154 0.998762 
0.0342632 -0.0317503 0.998908 
0.0340543 -0.0242423 0.999126 
0.034571 -0.0183402 0.999234 
0.0355153 -0.0123244 0.999293 
0.0356867 -0.00728463 0.999337 
0.0362015 -0.00333098 0.999339 
0.036359 0.00023423 0.999339 
0.0360039 0.00375244 0.999345 
0.0363364 0.00709624 0.999315 
0.0360549 0.0106845 0.999293 
0.0355005 0.0146359 0.999263 
0.0349845 0.0191007 0.999205 
0.0346885 0.0245109 0.999098 
0.0342513 0.0311662 0.998927 
0.033691 0.0393013 0.998659 
0.0330168 0.0492798 0.998239 
0.0320652 0.0617498 0.997577 
0.0307054 0.0780636 0.996476 
0.0288468 0.0988736 0.994682 
0.0265966 0.127341 0.991503 
0.0240247 0.163743 0.986211 
0.021698 0.208687 0.977742 
0.0185456 0.269975 0.962689 
0.0147877 0.348421 0.937222 
0.0110888 0.46249 0.886555 
0.00858574 0.563365 0.826164 
0.00547759 0.782863 0.622169 
0.0052212 0.820788 0.571209 
0.00311911 0.928396 0.371578 
0.00454536 0.927583 0.373589 
0.0020096 0.986071 0.166314 
-0.000285405 0.993081 0.117426 
0.00505938 0.995211 0.0975916 
-0.00234068 0.983703 -0.179781 
-0.00544685 0.888013 -0.459787 
-0.00803294 0.787261 -0.616567 
-0.0106653 0.673265 -0.739324 
-0.0113676 0.519918 -0.854141 
-0.0139506 0.432585 -0.901486 
-0.0163895 0.344622 -0.938599 
-0.018903 0.276407 -0.960855 
-0.0213093 0.218117 -0.97569 
-0.0238284 0.172522 -0.984718 
-0.0271878 0.139339 -0.989872 
-0.0269784 0.116577 -0.992815 
-0.0297316 0.0904225 -0.99546 
-0.0312403 0.0717532 -0.996933 
-0.0320625 0.0568082 -0.99787 
-0.0332715 0.0447936 -0.998442 
-0.0339998 0.0358095 -0.99878 
-0.034513 0.0282528 -0.999005 
-0.0349875 0.022089 -0.999144 
-0.0354744 0.0171126 -0.999224 
-0.0354782 0.0123912 -0.999294 
-0.0358194 0.00866599 -0.999321 
-0.0360663 0.00500273 -0.999337 
-0.0361599 0.00163716 -0.999345 
-0.0364041 -0.00198132 -0.999335 
-0.0362341 -0.00579236 -0.999327 
-0.0359706 -0.010354 -0.999299 
-0.0354422 -0.0159466 -0.999245 
-0.034513 -0.0220973 -0.99916 
-0.0332995 -0.0301691 -0.99899 
-0.0330706 -0.0376627 -0.998743 
-0.0311355 -0.0451468 -0.998495 
-0.0302727 -0.0525522 -0.998159 
-0.0270635 -0.0604669 -0.997803 
-0.0267061 -0.0657746 -0.997477 
-0.021725 -0.0624733 -0.99781 
-0.0145707 -0.0419373 -0.999014 
0.000675411 -0.00634856 -0.999979 
-0.000600928 -0.00651211 0.999978 
0.00972448 -0.0413044 0.9991 
0.019015 -0.0622985 0.997877 
0.0199152 -0.065876 0.997629 
0.023959 -0.0602104 0.997898 
0.023846 -0.0522739 0.998348 
0.0263626 -0.0445914 0.998658 
0.0266428 -0.0376634 0.998935 
0.029191 -0.0305683 0.999106 
0.0276546 -0.0240483 0.999328 
0.0294164 -0.0170183 0.999422 
0.0302071 -0.0110052 0.999483 
0.0297765 -0.006131 0.999538 
0.0304665 -0.00211585 0.999534 
0.0306092 0.00155177 0.99953 
0.0301525 0.00515876 0.999532 
0.0305169 0.00857194 0.999498 
0.0300349 0.0122325 0.999474 
0.0292861 0.0163246 0.999438 
0.0290506 0.0211992 0.999353 
0.0288464 0.0269991 0.999219 
0.0284144 0.0340376 0.999017 
0.0278159 0.0426364 0.998704 
0.0271501 0.0534034 0.998204 
0.0264589 0.0673132 0.997381 
0.0250428 0.0848504 0.996079 
0.023646 0.1089 0.993771 
0.0216054 0.139809 0.989943 
0.0193004 0.179918 0.983493 
0.0176185 0.230431 0.972929 
0.0148482 0.294229 0.95562 
0.011843 0.391265 0.920202 
0.00952437 0.491711 0.870706 
0.00816004 0.608742 0.793326 
0.00664524 0.672493 0.740074 
0.0084864 0.864504 0.502554 
0.00511901 0.950873 0.309539 
0.0112483 0.996262 0.0856523 
0.0108834 0.998923 0.0451158 
0.00911548 0.999952 0.00346304 
0.00627573 0.998635 -0.0518636 
0.00194045 0.995486 -0.0948894 
-0.0049792 0.925026 -0.379865 
-0.00462938 0.889531 -0.456845 
-0.00919565 0.63064 -0.776021 
-0.00705287 0.590557 -0.806966 
-0.00975331 0.479107 -0.877702 
-0.0125591 0.38485 -0.922894 
-0.0149302 0.306566 -0.951733 
-0.0172471 0.243751 -0.969685 
-0.0192599 0.188849 -0.981817 
-0.0217883 0.145515 -0.989116 
-0.023414 0.108238 -0.993849 
-0.025034 0.0857698 -0.996001 
-0.0264147 0.0675046 -0.997369 
-0.0272533 0.0526775 -0.99824 
-0.0278426 0.0420428 -0.998728 
-0.0285716 0.0334792 -0.999031 
-0.0289128 0.0265065 -0.999231 
-0.0291013 0.0208174 -0.99936 
-0.0302326 0.0158359 -0.999418 
-0.0294788 0.0116225 -0.999498 
-0.0302667 0.00783641 -0.999511 
-0.0300018 0.00439083 -0.99954 
-0.0304413 0.000809071 -0.999536 
-0.0304021 -0.00283285 -0.999534 
-0.0304269 -0.00696111 -0.999513 
-0.0302864 -0.0118879 -0.999471 
-0.0293027 -0.0174983 -0.999418 
-0.0291456 -0.0245298 -0.999274 
-0.0278108 -0.0323218 -0.999091 
-0.0279734 -0.0399005 -0.998812 
-0.0256733 -0.046547 -0.998586 
-0.0262147 -0.052035 -0.998301 
-0.0230328 -0.0593374 -0.997972 
-0.0216135 -0.0662347 -0.99757 
-0.0170639 -0.0609019 -0.997998 
-0.0104511 -0.0378957 -0.999227 
0.000678507 -0.0065422 -0.999978 
-0.000592022 -0.00643527 0.999979 
0.00740592 -0.040958 0.999134 
0.0145965 -0.0622621 0.997953 
0.0158666 -0.0669176 0.997632 
0.0197713 -0.0594411 0.998036 
0.0182307 -0.0537182 0.99839 
0.0213288 -0.0475206 0.998643 