# vtk DataFile Version 3.0 
Exported using Morpho https://github.com/Morpho-lang/morpho 
ASCII 
DATASET UNSTRUCTURED_GRID 

POINTS 2054 float 
-8.48528 -2.82843 0 
-8.20636 -2.82843 0 
-7.94054 -2.82843 0 
-7.6904 -2.82843 0 
-7.45357 -2.82843 0 
-7.22694 -2.82843 0 
-7.00705 -2.82843 0 
-6.79111 -2.82843 0 
-6.57731 -2.82843 0 
-6.36453 -2.82843 0 
-6.15219 -2.82843 0 
-5.94 -2.82843 0 
-5.72786 -2.82843 0 
-5.51573 -2.82843 0 
-5.3036 -2.82843 0 
-5.09147 -2.82843 0 
-4.87933 -2.82843 0 
-4.6672 -2.82843 0 
-4.45507 -2.82843 0 
-4.24294 -2.82843 0 
-4.03081 -2.82843 0 
-3.81867 -2.82843 0 
-3.60654 -2.82843 0 
-3.39441 -2.82843 0 
-3.18228 -2.82843 0 
-2.97015 -2.82843 0 
-2.75801 -2.82843 0 
-2.54588 -2.82843 0 
-2.33375 -2.82843 0 
-2.12162 -2.82843 0 
-1.90949 -2.82843 0 
-1.69735 -2.82843 0 
-1.48522 -2.82843 0 
-1.27309 -2.82843 0 
-1.06096 -2.82843 0 
-0.848825 -2.82843 0 
-0.636693 -2.82843 0 
-0.424561 -2.82843 0 
-0.212429 -2.82843 0 
-0.000296761 -2.82843 0 
0.211835 -2.82843 0 
0.423967 -2.82843 0 
0.636099 -2.82843 0 
0.848231 -2.82843 0 
1.06036 -2.82843 0 
1.2725 -2.82843 0 
1.48463 -2.82843 0 
1.69676 -2.82843 0 
1.90889 -2.82843 0 
2.12102 -2.82843 0 
2.33316 -2.82843 0 
2.54529 -2.82843 0 
2.75742 -2.82843 0 
2.96955 -2.82843 0 
3.18168 -2.82843 0 
3.39382 -2.82843 0 
3.60595 -2.82843 0 
3.81808 -2.82843 0 
4.03021 -2.82843 0 
4.24234 -2.82843 0 
4.45448 -2.82843 0 
4.66661 -2.82843 0 
4.87874 -2.82843 0 
5.09087 -2.82843 0 
5.303 -2.82843 0 
5.51514 -2.82843 0 
5.72727 -2.82843 0 
5.93941 -2.82843 0 
6.15159 -2.82843 0 
6.36393 -2.82843 0 
6.57672 -2.82843 0 
6.79055 -2.82843 0 
7.00652 -2.82843 0 
7.22647 -2.82843 0 
7.45313 -2.82843 0 
7.69005 -2.82843 0 
7.9403 -2.82843 0 
8.20621 -2.82843 0 
8.48528 -2.82843 0 
-8.48528 -2.5495 0 
-8.30526 -2.64845 0 
-8.07062 -2.59995 0 
-7.83904 -2.59637 0 
-7.59595 -2.59733 0 
-7.36578 -2.59177 0 
-7.13796 -2.5933 0 
-6.90908 -2.59428 0 
-6.68421 -2.5916 0 
-6.46568 -2.58832 0 
-6.24926 -2.58859 0 
-6.03358 -2.58941 0 
-5.81848 -2.59013 0 
-5.60402 -2.59075 0 
-5.39005 -2.59135 0 
-5.17642 -2.59186 0 
-4.96311 -2.59223 0 
-4.75009 -2.59242 0 
-4.53736 -2.59244 0 
-4.32497 -2.59236 0 
-4.1128 -2.59242 0 
-3.90059 -2.59259 0 
-3.68835 -2.5926 0 
-3.47627 -2.59248 0 
-3.26428 -2.59251 0 
-3.05216 -2.59271 0 
-2.83986 -2.59283 0 
-2.62755 -2.59274 0 
-2.41539 -2.59253 0 
-2.20336 -2.59238 0 
-1.99135 -2.59238 0 
-1.77924 -2.59246 0 
-1.56704 -2.59244 0 
-1.35495 -2.59215 0 
-1.14319 -2.59183 0 
-0.931581 -2.59195 0 
-0.719663 -2.59256 0 
-0.507197 -2.59324 0 
-0.294425 -2.59354 0 
-0.0817689 -2.59344 0 
0.130587 -2.59325 0 
0.342804 -2.59322 0 
0.555051 -2.59322 0 
0.767233 -2.59303 0 
0.97919 -2.59278 0 
1.19107 -2.59278 0 
1.40311 -2.59289 0 
1.61524 -2.59286 0 
1.82732 -2.59279 0 
2.03943 -2.59281 0 
2.25163 -2.5928 0 
2.46381 -2.59266 0 
2.67591 -2.59254 0 
2.88801 -2.59237 0 
3.10001 -2.59226 0 
3.31203 -2.59216 0 
3.52402 -2.59207 0 
3.73601 -2.59208 0 
3.94815 -2.59221 0 
4.16052 -2.5923 0 
4.37309 -2.59232 0 
4.58593 -2.59227 0 
4.79921 -2.5922 0 
5.01319 -2.59212 0 
5.22833 -2.5921 0 
5.44534 -2.59239 0 
5.6657 -2.59346 0 
5.89185 -2.59569 0 
6.12685 -2.59429 0 
6.36853 -2.59189 0 
6.6108 -2.57787 0 
6.84491 -2.61411 0 
7.08804 -2.58476 0 
7.34858 -2.60369 0 
7.58803 -2.59327 0 
7.83059 -2.59326 0 
8.06387 -2.59199 0 
8.30038 -2.64348 0 
8.48528 -2.54936 0 
-8.48528 -2.28369 0 
-8.25701 -2.4138 0 
-8.01078 -2.35334 0 
-7.73666 -2.37963 0 
-7.49744 -2.35565 0 
-7.26898 -2.35831 0 
-7.03324 -2.36676 0 
-6.7997 -2.36275 0 
-6.5773 -2.35166 0 
-6.35808 -2.3495 0 
-6.14038 -2.35058 0 
-5.92336 -2.35185 0 
-5.70723 -2.35272 0 
-5.49199 -2.35362 0 
-5.27734 -2.35447 0 
-5.0632 -2.35505 0 
-4.84958 -2.35534 0 
-4.63641 -2.35533 0 
-4.42363 -2.35504 0 
-4.21126 -2.35485 0 
-3.99909 -2.35513 0 
-3.78684 -2.3554 0 
-3.57461 -2.35516 0 
-3.36263 -2.35498 0 
-3.15066 -2.35537 0 
-2.93843 -2.35586 0 
-2.72604 -2.35589 0 
-2.51374 -2.35551 0 
-2.30162 -2.35509 0 
-2.08964 -2.35496 0 
-1.87761 -2.35518 0 
-1.66544 -2.3554 0 
-1.45322 -2.35518 0 
-1.2412 -2.35438 0 
-1.02967 -2.35407 0 
-0.818162 -2.35505 0 
-0.606054 -2.35676 0 
-0.393243 -2.3579 0 
-0.180256 -2.35789 0 
0.0323765 -2.35727 0 
0.244686 -2.35692 0 
0.456926 -2.35692 0 
0.669206 -2.35667 0 
0.881318 -2.35598 0 
1.09315 -2.35559 0 
1.305 -2.35583 0 
1.51709 -2.35595 0 
1.72919 -2.35571 0 
1.9412 -2.35566 0 
2.15334 -2.3558 0 
2.36559 -2.3556 0 
2.57772 -2.35522 0 
2.78976 -2.35507 0 
3.0019 -2.35461 0 
3.21373 -2.35451 0 
3.42571 -2.35439 0 
3.63769 -2.35431 0 
3.84965 -2.35453 0 
4.06183 -2.35491 0 
4.27435 -2.35507 0 
4.48707 -2.35507 0 
4.70017 -2.35506 0 
4.91376 -2.35498 0 
5.12819 -2.35502 0 
5.34378 -2.35528 0 
5.56106 -2.35662 0 
5.78097 -2.35971 0 
6.00401 -2.36251 0 
6.2308 -2.3624 0 
6.45748 -2.35551 0 
6.68075 -2.33423 0 
6.88797 -2.39744 0 
7.05313 -2.27289 0 
7.24377 -2.40237 0 
7.48542 -2.36016 0 
7.73055 -2.36599 0 
7.99177 -2.33552 0 
8.24864 -2.40698 0 
8.48528 -2.28345 0 
-8.48528 -2.03355 0 
-8.25312 -2.18214 0 
-8.03669 -2.07913 0 
-7.83956 -2.18231 0 
-7.6106 -2.12852 0 
-7.38852 -2.10959 0 
-7.16268 -2.14097 0 
-6.9229 -2.1435 0 
-6.70119 -2.12055 0 
-6.48111 -2.11285 0 
-6.26282 -2.11284 0 
-6.045 -2.1151 0 
-5.82775 -2.11658 0 
-5.61153 -2.11776 0 
-5.3962 -2.1192 0 
-5.18144 -2.1203 0 
-4.96732 -2.12084 0 
-4.75387 -2.12105 0 
-4.54086 -2.12091 0 
-4.32822 -2.12045 0 
-4.11596 -2.12045 0 
-3.90382 -2.12107 0 
-3.69156 -2.12116 0 
-3.47938 -2.12058 0 
-3.26746 -2.12068 0 
-3.05542 -2.12154 0 
-2.84307 -2.12198 0 
-2.63064 -2.12162 0 
-2.41836 -2.12087 0 
-2.20626 -2.12031 0 
-1.99426 -2.12034 0 
-1.78217 -2.1207 0 
-1.56989 -2.12074 0 
-1.35755 -2.11993 0 
-1.14542 -2.11838 0 
-0.934012 -2.11859 0 
-0.722404 -2.12089 0 
-0.509943 -2.12344 0 
-0.296911 -2.12431 0 
-0.0840921 -2.12359 0 
0.128295 -2.12281 0 
0.340414 -2.12274 0 
0.552564 -2.12288 0 
0.76478 -2.12226 0 
0.976792 -2.1213 0 
1.18855 -2.12128 0 
1.40042 -2.12188 0 
1.61256 -2.12177 0 
1.82458 -2.12141 0 
2.03655 -2.12164 0 
2.24875 -2.12174 0 
2.46099 -2.12114 0 
2.67302 -2.12065 0 
2.88504 -2.12054 0 
3.09728 -2.1194 0 
3.30873 -2.11968 0 
3.52086 -2.1195 0 
3.7329 -2.11938 0 
3.94484 -2.11986 0 
4.15715 -2.12044 0 
4.36983 -2.12035 0 
4.58282 -2.1204 0 
4.79606 -2.12017 0 
5.01004 -2.12012 0 
5.22483 -2.12002 0 
5.44073 -2.12051 0 
5.6582 -2.123 0 
5.8782 -2.12696 0 
6.10217 -2.12971 0 
6.33095 -2.12707 0 
6.567 -2.11601 0 
6.82301 -2.12303 0 
7.06572 -2.04567 0 
7.29733 -2.17484 0 
7.54632 -2.11408 0 
7.79371 -2.13741 0 
8.02274 -2.07453 0 
8.25027 -2.1738 0 
8.48528 -2.0332 0 
-8.48528 -1.79671 0 
-8.25436 -1.93882 0 
-8.01299 -1.83977 0 
-7.78596 -1.953 0 
-7.5297 -1.87194 0 
-7.2756 -1.88722 0 
-7.05707 -1.93544 0 
-6.84369 -1.89677 0 
-6.62219 -1.88079 0 
-6.40169 -1.87606 0 
-6.18206 -1.87854 0 
-5.96274 -1.881 0 
-5.74458 -1.88208 0 
-5.52796 -1.88344 0 
-5.31232 -1.88506 0 
-5.09736 -1.88569 0 
-4.88338 -1.88564 0 
-4.67019 -1.88555 0 
-4.45737 -1.88507 0 
-4.24485 -1.88447 0 
-4.03271 -1.88482 0 
-3.82061 -1.88562 0 
-3.60832 -1.88529 0 
-3.39617 -1.88464 0 
-3.18427 -1.88547 0 
-2.97209 -1.88672 0 
-2.7596 -1.88684 0 
-2.54714 -1.88601 0 
-2.33483 -1.88505 0 
-2.12268 -1.8846 0 
-1.91058 -1.885 0 
-1.69824 -1.88561 0 
-1.48561 -1.88547 0 
-1.27286 -1.88413 0 
-1.06032 -1.88216 0 
-0.848858 -1.8839 0 
-0.636875 -1.88781 0 
-0.424169 -1.89034 0 
-0.211518 -1.89004 0 
0.000731944 -1.88866 0 
0.21257 -1.88788 0 
0.424308 -1.88807 0 
0.636257 -1.88793 0 
0.848362 -1.88664 0 
1.06025 -1.88556 0 
1.27191 -1.88605 0 
1.48381 -1.88664 0 
1.69595 -1.886 0 
1.90782 -1.88577 0 
2.11974 -1.88637 0 
2.33202 -1.88609 0 
2.54419 -1.88502 0 
2.75607 -1.88472 0 
2.96812 -1.88462 0 
3.18055 -1.88217 0 
3.39117 -1.88415 0 
3.60398 -1.8838 0 
3.81618 -1.88366 0 
4.02827 -1.88469 0 
4.24071 -1.88523 0 
4.4544 -1.88509 0 
4.66716 -1.88476 0 
4.88099 -1.88493 0 
5.09545 -1.88466 0 
5.31057 -1.88453 0 
5.52653 -1.88564 0 
5.7436 -1.88981 0 
5.96352 -1.89563 0 
6.18733 -1.89813 0 
6.41543 -1.89522 0 
6.65059 -1.89622 0 
6.87542 -1.86913 0 
7.11122 -1.81621 0 
7.31223 -1.94975 0 
7.53264 -1.87683 0 
7.77077 -1.89068 0 
8.01717 -1.8297 0 
8.25014 -1.93148 0 
8.48528 -1.79628 0 
-8.48528 -1.57009 0 
-8.24868 -1.70836 0 
-8.015 -1.61096 0 
-7.76734 -1.73071 0 
-7.54593 -1.61782 0 
-7.32306 -1.66278 0 
-7.05152 -1.7082 0 
-6.79786 -1.66675 0 
-6.56099 -1.64764 0 
-6.33267 -1.64541 0 
-6.10856 -1.64921 0 
-5.88638 -1.65073 0 
-5.66697 -1.65153 0 
-5.44986 -1.65353 0 
-5.23379 -1.65525 0 
-5.01882 -1.6551 0 
-4.80519 -1.6548 0 
-4.59235 -1.65478 0 
-4.37976 -1.65422 0 
-4.16737 -1.65386 0 
-3.95537 -1.65471 0 
-3.74326 -1.6554 0 
-3.5309 -1.65455 0 
-3.31876 -1.65426 0 
-3.10682 -1.65593 0 
-2.89443 -1.65705 0 
-2.68177 -1.65644 0 
-2.46924 -1.65516 0 
-2.25682 -1.65408 0 
-2.04447 -1.65386 0 
-1.83202 -1.65455 0 
-1.61911 -1.65506 0 
-1.40572 -1.65429 0 
-1.19212 -1.65207 0 
-0.97885 -1.64982 0 
-0.767325 -1.65372 0 
-0.555434 -1.6581 0 
-0.343588 -1.65935 0 
-0.132061 -1.65818 0 
0.0792288 -1.65687 0 
0.290417 -1.65682 0 
0.501823 -1.6575 0 
0.713729 -1.65709 0 
0.925861 -1.65545 0 
1.13768 -1.65488 0 
1.34929 -1.65604 0 
1.56128 -1.6563 0 
1.77337 -1.65516 0 
1.985 -1.65561 0 
2.19698 -1.65642 0 
2.40939 -1.65525 0 
2.62143 -1.65394 0 
2.83323 -1.65414 0 
3.04553 -1.65355 0 
3.25842 -1.64868 0 
3.46746 -1.65522 0 
3.68272 -1.65284 0 
3.89574 -1.65288 0 
4.10731 -1.65378 0 
4.32287 -1.65565 0 
4.53627 -1.65249 0 
4.74932 -1.65397 0 
4.96428 -1.65355 0 
5.17935 -1.65257 0 
5.3944 -1.65202 0 
5.60927 -1.65354 0 
5.82513 -1.66019 0 
6.04295 -1.66711 0 
6.26383 -1.66843 0 
6.48537 -1.66776 0 
6.70098 -1.65646 0 
6.91299 -1.6206 0 
7.11709 -1.6046 0 
7.3526 -1.69716 0 
7.60698 -1.65764 0 
7.8325 -1.64214 0 
8.05985 -1.58842 0 
8.2608 -1.69223 0 
8.48528 -1.56961 0 
-8.48528 -1.35019 0 
-8.24958 -1.48044 0 
-8.0219 -1.3751 0 
-7.79713 -1.50391 0 
-7.58956 -1.39834 0 
-7.36199 -1.38754 0 
-7.16079 -1.49923 0 
-6.93764 -1.46284 0 
[...]
POINT_DATA 2054 
VECTORS vectors float
0.0392433 -0.0588266 0.997677 
0.0446443 -0.0428658 0.998398 
0.0482078 -0.031816 0.998683 
0.0504711 -0.0240313 0.998779 
0.0521508 -0.0181732 0.9988 
0.0534218 -0.01367 0.998796 
0.0543606 -0.0101664 0.99878 
0.0551429 -0.00728348 0.998757 
0.0558113 -0.00503624 0.998733 
0.0562634 -0.00322439 0.998715 
0.0566454 -0.00178541 0.998695 
0.05679 -0.000595909 0.998687 
0.056677 0.000684289 0.998692 
0.0564633 0.00208883 0.998701 
0.0561633 0.00364517 0.998713 
0.055736 0.00549726 0.998728 
0.0551469 0.00775485 0.998746 
0.0543795 0.0105164 0.998763 
0.0534293 0.0139164 0.998773 
0.0522716 0.0181209 0.998768 
0.0508491 0.0233253 0.998734 
0.0490815 0.0297713 0.998652 
0.0468723 0.037765 0.998489 
0.0441024 0.0476996 0.99819 
0.040616 0.0600818 0.99767 
0.0362053 0.0755749 0.996786 
0.0306017 0.0950678 0.995303 
0.0234929 0.119746 0.992826 
0.0145632 0.151149 0.988697 
0.00354851 0.191173 0.981831 
-0.00968356 0.242051 0.970474 
-0.0249328 0.306219 0.95186 
-0.0413053 0.385792 0.921837 
-0.0568771 0.481463 0.874733 
-0.0687017 0.590913 0.803846 
-0.0734199 0.707453 0.702899 
-0.0684246 0.819906 0.568271 
-0.0530382 0.914414 0.401056 
-0.0289973 0.97761 0.207925 
-6.66716e-05 0.999897 0.000403929 
0.0288789 0.97778 -0.20716 
0.0529598 0.914713 -0.4004 
0.068397 0.820276 -0.567753 
0.0734362 0.707839 -0.702517 
0.0687431 0.591281 -0.803577 
0.0569235 0.481788 -0.874554 
0.0413477 0.386077 -0.921718 
0.0249718 0.306469 -0.951779 
0.00971962 0.242271 -0.970419 
-0.00351783 0.191362 -0.981794 
-0.0145386 0.151309 -0.988673 
-0.0234723 0.119882 -0.99281 
-0.0305844 0.0951807 -0.995293 
-0.0361905 0.0756681 -0.99678 
-0.0406039 0.0601573 -0.997667 
-0.044093 0.0477603 -0.998188 
-0.0468659 0.0378137 -0.998487 
-0.049079 0.02981 -0.998651 
-0.0508494 0.0233563 -0.998733 
-0.0522725 0.0181414 -0.998768 
-0.0534343 0.0139248 -0.998773 
-0.0543864 0.0105252 -0.998763 
-0.0551453 0.00776753 -0.998747 
-0.0557375 0.00551263 -0.998729 
-0.0561709 0.00367452 -0.998714 
-0.0564567 0.00212122 -0.998703 
-0.0566511 0.00070468 -0.998695 
-0.0567476 -0.000580101 -0.998693 
-0.0566143 -0.00182015 -0.998705 
-0.0564444 -0.00322451 -0.998594 
-0.0557952 -0.00495931 -0.998757 
-0.0551027 -0.00726308 -0.998755 
-0.0543008 -0.0101837 -0.998785 
-0.0533415 -0.0137245 -0.998813 
-0.0521186 -0.0182237 -0.998799 
-0.0504727 -0.0240724 -0.998784 
-0.0482006 -0.0318387 -0.998692 
-0.0446435 -0.042902 -0.998408 
-0.0392763 -0.0588711 -0.997679 
0.0263495 -0.063689 0.99792 
0.0339235 -0.0507955 0.998673 
0.035122 -0.0396059 0.999298 
0.037478 -0.0305627 0.999554 
0.0394421 -0.0231083 0.999653 
0.0406145 -0.0176132 0.999705 
0.0417878 -0.0132122 0.999713 
0.0426798 -0.00963922 0.999707 
0.0432392 -0.00680777 0.9997 
0.043589 -0.00459644 0.999695 
0.0439531 -0.00278551 0.999682 
0.0441964 -0.00124002 0.999671 
0.0442541 0.000223074 0.999666 
0.0441465 0.00173113 0.999667 
0.0439325 0.00335451 0.99967 
0.0436155 0.00522674 0.999675 
0.0431583 0.00748766 0.999679 
0.0425327 0.0102275 0.999681 
0.0417369 0.0135533 0.999675 
0.0407666 0.0176351 0.999652 
0.0395947 0.0226892 0.999597 
0.0381544 0.0289692 0.999492 
0.0363553 0.036776 0.999303 
0.0341093 0.0464819 0.998978 
0.0313169 0.058576 0.998434 
0.0278373 0.0737095 0.997534 
0.0234923 0.0927282 0.996056 
0.0180995 0.116701 0.993642 
0.0115008 0.14696 0.989709 
0.0035922 0.185132 0.983328 
-0.00562384 0.233113 0.973031 
-0.0159351 0.292947 0.956553 
-0.0267541 0.366446 0.930543 
-0.0369694 0.454436 0.89039 
-0.0449866 0.555721 0.830355 
-0.0490197 0.6662 0.744095 
-0.0474786 0.778062 0.625901 
-0.0394958 0.879519 0.473015 
-0.0255028 0.956342 0.288404 
-0.00741323 0.995685 0.082068 
0.0118541 0.990464 -0.130573 
0.0291685 0.941787 -0.332691 
0.0418848 0.858353 -0.510334 
0.0484159 0.753457 -0.65533 
0.0485925 0.640949 -0.766045 
0.0434794 0.531879 -0.84595 
0.034774 0.433293 -0.900987 
0.0242857 0.348602 -0.937461 
0.0135139 0.278364 -0.960947 
0.00341737 0.221373 -0.975786 
-0.00551855 0.175748 -0.985043 
-0.0131213 0.139516 -0.990768 
-0.0194198 0.11083 -0.99429 
-0.0245448 0.0881036 -0.996452 
-0.028673 0.0700553 -0.997775 
-0.0319852 0.0556637 -0.99858 
-0.034641 0.0441494 -0.999067 
-0.036776 0.0349065 -0.999355 
-0.0384974 0.0274662 -0.999522 
-0.039885 0.0214714 -0.999613 
-0.0410121 0.0166405 -0.999659 
-0.0419354 0.0127368 -0.999679 
-0.0426874 0.0095528 -0.999683 
-0.0432784 0.00692887 -0.999681 
-0.0437213 0.00476163 -0.999677 
-0.044055 0.00293918 -0.999675 
-0.044328 0.00130029 -0.999673 
-0.0445204 -0.000268723 -0.999677 
-0.0443368 -0.0018727 -0.999696 
-0.0438353 -0.00371362 -0.999836 
-0.0427141 -0.00602238 -0.999865 
-0.0438326 -0.00871443 -0.999558 
-0.0414892 -0.0124246 -0.999868 
-0.0412308 -0.0172093 -0.999695 
-0.0392733 -0.0229359 -0.99968 
-0.0374095 -0.0303152 -0.999584 
-0.0348853 -0.0394275 -0.999339 
-0.0338337 -0.0506321 -0.998698 
-0.0263727 -0.0636849 -0.99793 
0.0184316 -0.0674909 0.997882 
0.0256429 -0.0509741 0.999062 
0.0266025 -0.0393181 0.999717 
0.0298051 -0.0286434 0.999848 
0.030536 -0.0219412 0.999993 
0.0317569 -0.0166852 1.00004 
0.0329995 -0.0123121 1.00005 
0.0335777 -0.00885358 1.00006 
0.0336851 -0.00621551 1.00008 
0.0339707 -0.00404486 1.00007 
0.0342574 -0.00219636 1.00006 
0.0344098 -0.000520308 1.00006 
0.0343937 0.00113121 1.00005 
0.0342599 0.00283088 1.00005 
0.0340337 0.00469516 1.00005 
0.0336908 0.00690573 1.00005 
0.0332017 0.00957486 1.00004 
0.0325595 0.0127732 1.00003 
0.0317676 0.0166478 0.999995 
0.0308218 0.0214252 0.999934 
0.0296882 0.0273662 0.999824 
0.0282863 0.034768 0.999635 
0.0265309 0.0439831 0.999321 
0.0243665 0.0554478 0.998807 
0.0217174 0.06975 0.997971 
0.0184625 0.0876678 0.996622 
0.0144831 0.110166 0.994449 
0.00970116 0.138409 0.990965 
0.00408765 0.173794 0.985402 
-0.00231561 0.217942 0.976569 
-0.00935234 0.272652 0.962647 
-0.0166678 0.339649 0.940931 
-0.0236289 0.420098 0.907611 
-0.0293287 0.513818 0.857701 
-0.0327656 0.618317 0.785333 
-0.0330205 0.728295 0.684216 
-0.029378 0.834647 0.549193 
-0.0216667 0.924285 0.379239 
-0.0106597 0.982595 0.180611 
0.00199055 0.99852 -0.0327854 
0.0142842 0.969039 -0.243042 
0.0243763 0.900134 -0.433469 
0.0309264 0.804164 -0.592983 
0.0333898 0.695441 -0.717667 
0.0320807 0.586159 -0.809718 
0.0278234 0.484419 -0.874741 
0.0216109 0.394589 -0.919071 
0.0144572 0.318298 -0.948424 
0.0071813 0.255167 -0.967459 
0.00030268 0.203763 -0.979636 
-0.00587704 0.162387 -0.987341 
-0.0112234 0.129326 -0.992178 
-0.0157382 0.102974 -0.995202 
-0.0194767 0.0819683 -0.997089 
-0.0225442 0.0652233 -0.99826 
-0.0250431 0.0518212 -0.998986 
-0.0270704 0.0410757 -0.999431 
-0.0287186 0.0324417 -0.999702 
-0.0300585 0.025495 -0.999863 
-0.0311434 0.0199108 -0.999956 
-0.0320303 0.015418 -1.00001 
-0.0327643 0.0117604 -1.00003 
-0.033356 0.00873111 -1.00005 
-0.0338085 0.00620787 -1.00005 
-0.0341411 0.00411225 -1.00006 
-0.0344174 0.00229493 -1.00006 
-0.0346657 0.000578596 -1.00006 
-0.0347536 -0.00111305 -1.00007 
-0.0345456 -0.00289765 -1.00008 
-0.033982 -0.00496006 -1.00009 
-0.0328324 -0.00743068 -1.00001 
-0.0345614 -0.00994539 -1.00003 
-0.0296509 -0.0129387 -1.00016 
-0.0335101 -0.016006 -0.999868 
-0.0307617 -0.0215761 -1.00001 
-0.0293714 -0.0285264 -0.999906 
-0.0261942 -0.0386253 -0.999804 
-0.0255623 -0.0505997 -0.999111 
-0.0184459 -0.0674792 -0.997892 
0.0133951 -0.0699074 0.997789 
0.0191629 -0.0530885 0.999125 
0.0186772 -0.0425544 0.999626 
0.0229123 -0.0335874 0.99972 
0.0228524 -0.0262012 1.00008 
0.0234554 -0.020385 1.00022 
0.0252619 -0.0153916 1.00022 
0.0261088 -0.0112125 1.00025 
0.0259592 -0.00815119 1.00029 
0.0261156 -0.00561663 1.0003 
0.0263817 -0.00346503 1.0003 
0.0266021 -0.00156761 1.00029 
0.0266704 0.000242797 1.00029 
0.0266147 0.00205117 1.00029 
0.0264808 0.00391472 1.00028 
0.0262494 0.00602736 1.00027 
0.02589 0.00857063 1.00026 
0.0253998 0.011602 1.00025 
0.0247848 0.0152094 1.00021 
0.0240432 0.0196056 1.00015 
0.023169 0.0250623 1.00005 
0.0221188 0.0318682 0.999884 
0.020807 0.0403548 0.999607 
0.0191775 0.0509168 0.999158 
0.0172078 0.0640473 0.998438 
0.0148315 0.0804237 0.99729 
0.011958 0.100914 0.995463 
0.0085388 0.126546 0.992561 
0.00457292 0.158529 0.987975 
0.000105705 0.198276 0.980765 
-0.0047541 0.247375 0.969504 
-0.00980186 0.307492 0.952057 
-0.0146856 0.380074 0.925331 
-0.0188877 0.465758 0.885097 
-0.0217884 0.563573 0.825999 
-0.0228595 0.669857 0.742097 
-0.0216376 0.778239 0.627136 
-0.0177866 0.878144 0.476888 
-0.011431 0.955234 0.292915 
-0.00337569 0.995423 0.0852007 
0.00515273 0.990632 -0.129581 
0.0128885 0.942097 -0.332821 
0.018778 0.859514 -0.509766 
0.0221569 0.756917 -0.652773 
0.0229135 0.648006 -0.761309 
0.0214039 0.542922 -0.839768 
0.0181527 0.447541 -0.894488 
0.0137425 0.364577 -0.931577 
0.00878651 0.29465 -0.95613 
0.00375334 0.236858 -0.972137 
-0.00105178 0.189706 -0.982462 
-0.00541966 0.151629 -0.989055 
-0.00925447 0.12107 -0.993239 
-0.0125486 0.0965835 -0.995886 
-0.0153056 0.0769777 -0.997557 
-0.0176128 0.0613134 -0.998603 
-0.0195102 0.0487131 -0.999262 
-0.0210603 0.0385955 -0.999671 
-0.0223337 0.0304632 -0.999923 
-0.023375 0.0239265 -1.00008 
-0.0242137 0.0186863 -1.00017 
-0.0249139 0.0144576 -1.00022 
-0.0254877 0.0109742 -1.00025 
-0.0259487 0.00804125 -1.00027 
-0.0262853 0.00559169 -1.00028 
-0.02654 0.00354007 -1.00029 
-0.0267724 0.00167703 -1.00029 
-0.0269489 -0.000162095 -1.00029 
-0.0269778 -0.00202148 -1.0003 
-0.0266779 -0.00406434 -1.00031 
-0.0260266 -0.00654175 -1.00032 
-0.0256707 -0.0097549 -1.00043 
-0.0229186 -0.0138665 -1.00033 
-0.0257025 -0.0180197 -1.0002 
-0.0227844 -0.0243702 -1.00029 
-0.0219793 -0.0321293 -0.999873 
-0.0186717 -0.0419179 -0.999694 
-0.0189869 -0.052998 -0.999153 
-0.0134168 -0.0699051 -0.997795 
0.0098342 -0.0715545 0.9977 
0.0140111 -0.0550116 0.999082 
0.0140757 -0.0428609 0.999683 
0.0176615 -0.0327956 0.999995 
0.0172467 -0.0249426 1.00038 
0.0185966 -0.0185733 1.00034 
0.0203935 -0.0140314 1.00022 
0.0200237 -0.010578 1.0004 
0.0200642 -0.00759742 1.00043 
0.0202368 -0.00507746 1.00044 
0.020476 -0.00290621 1.00043 
0.0206103 -0.000918697 1.00043 
0.020605 0.00103151 1.00043 
0.0205261 0.00295449 1.00042 
0.0203853 0.00497732 1.00041 
0.020134 0.00735844 1.0004 
0.0197651 0.010211 1.00038 
0.0193 0.0135566 1.00035 
0.0187383 0.0175467 1.0003 
0.0180747 0.022459 1.00021 
0.0172996 0.028587 1.00007 
0.0163583 0.0362367 0.99984 
0.0151766 0.0457711 0.999469 
0.0137342 0.0576174 0.998878 
0.0120239 0.0723201 0.997943 
0.00998242 0.0906409 0.996468 
0.00755869 0.113504 0.994142 
0.00475725 0.141967 0.99049 
0.00161779 0.177271 0.984783 
-0.00178521 0.220835 0.975915 
-0.00533028 0.274212 0.962232 
-0.00882544 0.338988 0.94128 
-0.0119763 0.416359 0.909574 
-0.0144056 0.50649 0.862453 
-0.0157251 0.607632 0.794192 
-0.0156983 0.714832 0.698937 
-0.0140482 0.820654 0.57056 
-0.0106243 0.912838 0.40656 
-0.00570527 0.976406 0.211832 
1.83145e-05 0.999061 -0.00072005 
0.00570753 0.976198 -0.212792 
0.0105826 0.912827 -0.406587 
0.0140383 0.821025 -0.570024 
0.0157593 0.715181 -0.698576 
0.0158013 0.607765 -0.794087 
0.0144473 0.507032 -0.86213 
0.0120108 0.417188 -0.90919 
0.00885624 0.339877 -0.940956 
0.00537163 0.275081 -0.961982 
0.00182587 0.221576 -0.975746 
-0.00158671 0.177861 -0.984675 
-0.0047151 0.142494 -0.990414 
-0.00749838 0.114013 -0.994084 
-0.00992065 0.0910926 -0.996429 
-0.0119516 0.0726755 -0.997921 
-0.0137024 0.0579599 -0.998858 
-0.0151378 0.0460227 -0.999459 
-0.016316 0.0364467 -0.999835 
-0.0172997 0.02875 -1.00007 
-0.018099 0.022581 -1.00021 
-0.0187533 0.017625 -1.0003 
-0.0192948 0.0136248 -1.00035 
-0.0197557 0.0102596 -1.00039 
-0.0201031 0.00739677 -1.00041 
-0.0203472 0.00501258 -1.00042 
-0.0205432 0.0029839 -1.00043 
-0.0207496 0.00105012 -1.00043 
-0.0209045 -0.000913445 -1.00043 
-0.0208768 -0.00292204 -1.00043 
-0.0206009 -0.00518457 -1.00044 
-0.0202632 -0.0079231 -1.00044 
-0.0192458 -0.0111153 -1.00044 
-0.0175865 -0.0153457 -1.00038 
-0.0197777 -0.0191994 -1.0003 
-0.0173531 -0.0250589 -1.00011 
-0.0164423 -0.0325023 -1.00018 
-0.0138329 -0.0431082 -0.999693 
-0.0139057 -0.0548017 -0.999111 
-0.00986262 -0.0715147 -0.997702 
0.00718086 -0.0727971 0.997626 
0.0104291 -0.0560309 0.999059 
0.010493 -0.0440159 0.999663 
0.0135708 -0.0331183 1.00006 
0.0127021 -0.0263704 1.00026 
0.0141885 -0.0203478 1.0004 
0.0157477 -0.0144455 1.00056 
0.0155195 -0.0103186 1.00051 
0.0155046 -0.00715479 1.00052 
0.0156732 -0.00455239 1.00052 
0.0158488 -0.00231709 1.00052 
0.0158808 -0.000203149 1.00052 
0.0158214 0.00184746 1.00051 
0.0157356 0.00384946 1.0005 
0.0155851 0.00606176 1.00049 
0.0153173 0.00871914 1.00047 
0.0149668 0.0118352 1.00044 
0.014556 0.0154577 1.0004 
0.0140701 0.0198286 1.00033 
0.0135025 0.0252679 1.00021 
0.0128377 0.0320686 1.00003 
0.0120165 0.0405539 0.999732 
0.0109877 0.0511146 0.99926 
0.00975945 0.0642052 0.998517 
0.00832312 0.0804273 0.997354 
0.00662167 0.100621 0.995531 
0.00464302 0.125745 0.992679 
0.00242197 0.156874 0.988238 
9.07519e-06 0.195297 0.981356 
-0.00251891 0.242455 0.970751 
-0.0050516 0.299897 0.954516 
-0.00742508 0.369149 0.929842 
-0.00940869 0.451163 0.892802 
-0.0107401 0.545576 0.838255 
-0.0111925 0.649662 0.760168 
-0.0106912 0.756893 0.653109 
-0.00902538 0.858586 0.511625 
-0.0061934 0.941098 0.335878 
-0.00251595 0.990132 0.133537 
0.00149434 0.995844 -0.0803361 
0.00528597 0.957104 -0.28695 
0.00837442 0.88193 -0.470112 
0.0104049 0.783731 -0.620541 
0.0112421 0.676554 -0.736255 
0.0109945 0.571476 -0.820754 
0.00985758 0.475061 -0.880272 
0.00801825 0.390211 -0.92117 
0.00572567 0.317848 -0.948668 
0.00323254 0.257496 -0.966856 
0.000689504 0.207672 -0.978804 
-0.00176408 0.16695 -0.986584 
-0.00402205 0.133982 -0.991602 
-0.00605329 0.10736 -0.994831 
-0.00783003 0.0858564 -0.996908 
-0.00930043 0.0685287 -0.998238 
-0.0106504 0.0547421 -0.999069 
-0.0117052 0.0433615 -0.999622 
-0.0125952 0.0342909 -0.999958 
-0.0133325 0.0270567 -1.00017 
-0.0139742 0.0211791 -1.00031 
-0.0144238 0.0165465 -1.00039 
-0.0148804 0.0127459 -1.00044 
-0.0152368 0.00948147 -1.00047 
-0.0154994 0.00669387 -1.00049 
-0.0156821 0.004386 -1.0005 
-0.0158382 0.00237818 -1.00051 
-0.0160417 0.000379151 -1.00051 
-0.0161753 -0.00167461 -1.00051 
-0.0160984 -0.00380643 -1.00051 
-0.0158873 -0.006211 -1.0005 
-0.0154083 -0.00894909 -1.00049 
-0.0144332 -0.0121959 -1.00046 
-0.0137732 -0.0159733 -1.00028 
-0.0146099 -0.0209274 -1.00044 
-0.0130432 -0.0280117 -1.0002 
-0.011809 -0.035958 -0.999971 
-0.00994877 -0.0463607 -0.999434 
-0.0101256 -0.0568458 -0.999021 
-0.00719944 -0.0726842 -0.997648 
0.00518099 -0.0737168 0.997564 
0.00766 -0.0571527 0.99901 
0.00766588 -0.0452569 0.999623 
0.0101056 -0.0351262 0.999992 
0.00957545 -0.0284037 1.00008 
0.0100712 -0.0220161 1.00049 
0.0121002 -0.0171237 1.00033 
0.0119892 -0.0129188 1.00051 
0.011798 -0.00939381 1.00056 
0.0118363 -0.00640168 1.00057 
0.0119881 -0.00388134 1.00057 
0.0120869 -0.00161086 1.00056 
0.0120303 0.00059408 1.00056 
0.0119426 0.00266697 1.00055 
0.0118481 0.00475611 1.00054 
0.0116649 0.00719166 1.00053 
0.01139 0.0100929 1.0005 
0.0110802 0.0134133 1.00047 
0.0107388 0.0172895 1.00041 
0.0103424 0.0220555 1.00032 
0.00987787 0.0280308 1.00018 
0.00932897 0.0355011 0.999945 
0.00863881 0.044808 0.999579 
0.00778295 0.0563698 0.999001 
0.00678142 0.0706637 0.998099 
0.00561652 0.0883546 0.996695 
0.00424825 0.11035 0.994505 
0.00269389 0.137625 0.9911 
0.000996879 0.171288 0.985833 
-0.000794324 0.212681 0.977721 
-0.00261267 0.263274 0.965293 
-0.00436709 0.324607 0.946374 
-0.00592528 0.398104 0.917791 
-0.00711774 0.484378 0.875192 
-0.00777409 0.582349 0.813092 
-0.00778395 0.688073 0.72552 
-0.00714031 0.793547 0.607961 
-0.00568014 0.889411 0.455821 
-0.00349365 0.961702 0.271161 
-0.000842436 0.997064 0.0635537 
0.0019168 0.987771 -0.150135 
0.0044207 0.935664 -0.350827 
0.00636276 0.851151 -0.523988 
0.00753571 0.748446 -0.662848 
0.00790213 0.641075 -0.767488 
0.0075732 0.538739 -0.84271 
0.00666818 0.446453 -0.895194 
0.00530238 0.366114 -0.931055 
0.00365448 0.298124 -0.955074 
0.00188114 0.241658 -0.970945 
6.41276e-05 0.195015 -0.981406 
-0.00168892 0.156886 -0.988233 
-0.00331078 0.12604 -0.992642 
-0.00478729 0.101063 -0.995493 
-0.00607527 0.080787 -0.997341 
-0.0071144 0.064384 -0.998533 
-0.00820407 0.0515435 -0.999252 
-0.00894586 0.0404243 -0.999768 
-0.00953863 0.0320847 -1.00007 
-0.0101998 0.0250474 -1.00026 
-0.0105571 0.0196449 -1.00038 
-0.0109034 0.0153098 -1.00045 
-0.011284 0.011717 -1.00049 
-0.0115345 0.00854065 -1.00053 
-0.011719 0.00585526 -1.00054 
-0.0118435 0.00365357 -1.00055 
-0.0120101 0.00164232 -1.00056 
-0.012206 -0.000412846 -1.00055 
-0.012343 -0.00254925 -1.00055 
-0.0122407 -0.00481334 -1.00055 
-0.0119714 -0.00738584 -1.00055 
-0.0114486 -0.0104952 -1.00054 
-0.0105663 -0.0145649 -1.00058 
-0.0113399 -0.0192801 -1.00025 
-0.010665 -0.024747 -1.00029 
-0.00931078 -0.0319905 -1.00013 
-0.00826192 -0.0409688 -0.999813 
-0.00719115 -0.0567687 -0.999167 
-0.00516781 -0.0736373 -0.997573 
0.00359415 -0.074515 0.997507 
0.00551347 -0.0580721 0.998961 
0.00551405 -0.0458404 0.999599 
0.0073947 -0.0358438 0.999986 
0.00730586 -0.0275871 1.00025 
0.0073312 -0.0212795 1.00044 
0.00916813 -0.0166364 1.0005 
0.00898583 -0.0122944 1.00057 
0.00895322 -0.0086882 1.00059 
0.00902809 -0.00571692 1.00059 
0.00916266 -0.00320759 1.00059 
0.0091956 -0.000852013 1.00059 
0.0090783 0.00138196 1.00058 
0.00899993 0.00345256 1.00057 
0.00888406 0.00566826 1.00056 
0.00868879 0.00832545 1.00054 
0.0084386 0.0114041 1.00051 
0.00818802 0.0148686 1.00047 
0.0079276 0.0190108 1.0004 
0.00761193 0.0241854 1.00029 
0.00724297 0.0306918 1.00011 
0.00679621 0.0388087 0.999837 
0.00622728 0.0489062 0.999399 
0.00553332 0.0614043 0.998713 
0.00473081 0.0768141 0.997648 
0.00379513 0.0958774 0.996001 
0.00270853 0.119545 0.99344 
0.0015048 0.148758 0.989483 
0.000224616 0.184632 0.98341 
-0.00109041 0.228515 0.974126 
-0.00238443 0.281791 0.960031 
-0.00358529 0.345844 0.938797 
-0.00459451 0.42187 0.907082 
-0.00529987 0.509993 0.86048 
-0.00560686 0.608754 0.793468 
-0.00547219 0.714014 0.699942 
-0.00486925 0.817824 0.574797 
-0.0036768 0.90997 0.413123 
-0.0020058 0.974908 0.218801 
-6.47827e-05 0.999073 0.00440673 
0.00187698 0.976744 -0.210437 
0.00356579 0.91305 -0.406254 
0.00480507 0.820827 -0.570489 
0.00548064 0.714926 -0.699009 
0.00561036 0.608271 -0.793843 
0.00528608 0.508977 -0.861085 
0.0045716 0.420565 -0.907692 
0.00354735 0.344274 -0.939379 
0.0023463 0.280213 -0.960496 
0.00105938 0.227184 -0.974439 
-0.000268659 0.183203 -0.983681 
-0.00154614 0.147303 -0.989706 
-0.00273416 0.118393 -0.99358 
-0.0038298 0.0947935 -0.996111 
-0.00477866 0.0753891 -0.997774 
-0.00550381 0.0596127 -0.998915 
-0.00652028 0.0477148 -0.999342 
-0.00673737 0.0374967 -0.999988 
-0.0074597 0.0290594 -1.00016 
-0.00771382 0.0228086 -1.00033 
-0.0079881 0.0178335 -1.00043 
-0.00822989 0.0138398 -1.00049 
-0.00858679 0.0104643 -1.00053 
-0.00873055 0.00732746 -1.00056 
-0.00880622 0.00483916 -1.00058 
-0.00897252 0.00269974 -1.00058 
-0.00908227 0.000664623 -1.00058 
-0.00924973 -0.00141716 -1.00057 
-0.00933487 -0.00349775 -1.00045 
-0.00917029 -0.00573955 -1.00056 
-0.00896474 -0.00843285 -1.00056 
-0.00855359 -0.0118162 -1.00054 
-0.00784545 -0.0161346 -1.00048 
-0.00876899 -0.0203178 -1.00039 
-0.00773979 -0.0270389 -1.00028 
-0.00645369 -0.0355527 -1.00015 
-0.00609914 -0.0473629 -0.999529 
-0.00488685 -0.0596157 -0.998765 
-0.00353617 -0.07449 -0.997505 
0.00249032 -0.0751586 0.99746 
0.00386428 -0.0586536 0.998929 
0.00388082 -0.0459999 0.999597 
0.00542558 -0.0356974 1.00001 
0.00535695 -0.0279568 1.00024 
0.00532767 -0.0218787 1.0004 
0.00679612 -0.015849 1.00064 
0.0067331 -0.0113463 1.0006 
0.00673555 -0.00779847 1.00061 
0.0068357 -0.00491594 1.00061 
0.00696324 -0.00238559 1.0006 
0.00691801 -4.92046e-06 1.0006 
0.00679138 0.00220575 1.00059 