# vtk DataFile Version 3.0 
Exported using Morpho https://github.com/Morpho-lang/morpho 
ASCII 
DATASET UNSTRUCTURED_GRID 

POINTS 1978 float 
-12.0003 -4.00033 1.95508e-09 
-11.6185 -4.00093 1.07545e-08 
-11.3262 -4.00036 -2.22216e-08 
-10.9877 -4.0007 -7.52126e-09 
-10.6566 -4.00053 -2.97694e-09 
-10.3058 -4.00066 -1.81703e-08 
-9.99387 -4.00056 -8.60349e-09 
-9.65307 -4.00071 -7.41321e-09 
-9.31764 -4.0006 -1.06161e-08 
-9.00439 -4.00057 -3.15184e-09 
-8.69458 -4.00061 2.4199e-08 
-8.38209 -4.00051 -2.02335e-08 
-8.08502 -4.00074 9.95345e-09 
-7.76985 -4.00057 1.58441e-08 
-7.4768 -4.00042 1.31233e-08 
-7.19575 -4.00066 6.58954e-08 
-6.91462 -4.00063 3.31603e-08 
-6.60006 -4.00056 -4.95702e-08 
-6.29856 -4.00049 -9.59166e-08 
-5.98642 -4.00067 -1.01632e-07 
-5.69064 -4.00069 -5.0164e-08 
-5.40864 -4.00069 -3.49654e-08 
-5.12663 -4.00052 -1.46022e-07 
-4.82434 -4.00047 -3.54097e-07 
-4.51911 -4.00053 -3.45823e-08 
-4.21828 -4.00092 1.40765e-08 
-3.92445 -4.00081 -3.27839e-07 
-3.60709 -4.00024 1.87327e-08 
-3.29383 -4.00076 -3.20769e-07 
-2.97367 -4.00105 -1.69381e-06 
-2.67085 -4.00052 3.61172e-07 
-2.40504 -4.00053 -1.764e-06 
-2.14568 -3.99936 -9.31787e-07 
-1.8886 -4.00059 2.47492e-06 
-1.67754 -3.99961 1.15841e-05 
-1.48892 -4.00076 -2.6437e-06 
-1.35548 -4.00137 2.41663e-05 
-1.05756 -4.00235 -0.000176456 
-0.453897 -3.99918 -0.000624392 
-0.281213 -3.9712 -0.00276704 
0.429276 -3.96932 0.00175722 
1.127 -3.99892 5.65307e-05 
1.31389 -4.00205 -4.79479e-05 
1.44213 -4.00052 2.10111e-05 
1.62653 -4.00075 5.63016e-07 
1.9264 -4.00128 1.8764e-06 
2.16338 -3.9989 1.52503e-06 
2.44666 -4.00174 7.3944e-07 
2.72458 -4.00105 1.30175e-07 
3.00214 -4.00082 5.30039e-07 
3.30365 -4.00022 6.03696e-07 
3.61327 -4.00041 -1.81745e-07 
3.89758 -4.00094 -5.88569e-08 
4.18156 -4.00092 2.64058e-08 
4.49603 -4.00023 2.29543e-07 
4.80806 -4.00041 3.76108e-07 
5.10697 -4.0007 7.9987e-08 
5.40546 -4.00057 3.74884e-08 
5.70596 -4.00061 7.99288e-08 
5.99645 -4.00061 1.02206e-07 
6.29944 -4.00042 7.22899e-08 
6.57627 -4.00067 2.65977e-08 
6.88761 -4.00056 1.74005e-09 
7.18088 -4.00054 -4.33112e-08 
7.4796 -4.00058 -8.43632e-09 
7.78108 -4.00054 -7.60309e-09 
8.07484 -4.00061 -5.25507e-09 
8.36728 -4.00078 3.98252e-10 
8.66298 -4.00043 -1.09995e-08 
8.94726 -4.00065 2.41487e-09 
9.29112 -4.00066 -7.49591e-09 
9.62469 -4.00054 5.4923e-09 
9.92236 -4.00065 1.77014e-08 
10.2878 -4.00065 2.02311e-08 
10.62 -4.00069 -1.95081e-09 
10.9861 -4.00068 1.63535e-08 
11.3069 -4.00053 5.10498e-09 
11.5968 -4.0009 -2.25287e-09 
12.0004 -4.00043 -2.39075e-09 
-12.0009 -3.61848 6.62436e-09 
-11.7108 -3.70975 -1.29787e-08 
-11.3649 -3.61731 -8.76078e-11 
-11.061 -3.67031 4.47499e-08 
-10.7239 -3.66513 -2.78489e-08 
-10.3858 -3.68618 3.0473e-08 
-10.0428 -3.65076 -1.44321e-09 
-9.72397 -3.68658 1.57466e-09 
-9.38226 -3.68524 3.40428e-08 
-9.04649 -3.66496 -1.2562e-08 
-8.73018 -3.66455 -3.24103e-08 
-8.41642 -3.67039 2.21889e-08 
-8.10197 -3.65702 3.10935e-08 
-7.7992 -3.67585 -5.00126e-08 
-7.48366 -3.65021 1.56232e-08 
-7.18692 -3.63565 -1.09068e-07 
-6.87364 -3.67655 -6.14598e-08 
-6.5651 -3.6643 4.41716e-08 
-6.24804 -3.67757 1.32586e-07 
-5.94138 -3.66928 1.44995e-07 
-5.64206 -3.66409 -3.39472e-09 
-5.34947 -3.66032 -6.66907e-08 
-5.04525 -3.67127 1.66975e-07 
-4.73031 -3.67471 3.08352e-07 
-4.41172 -3.68365 -1.00779e-08 
-4.10112 -3.68074 8.20069e-08 
-3.77746 -3.69832 -5.17056e-09 
-3.44155 -3.67757 5.54632e-07 
-3.1175 -3.68959 5.24392e-07 
-2.78849 -3.69002 -6.43309e-07 
-2.4667 -3.63228 1.3827e-06 
-2.17682 -3.62033 -1.28262e-06 
-1.89311 -3.64109 -3.48302e-07 
-1.6401 -3.60956 -1.30956e-05 
-1.43755 -3.6374 1.66792e-05 
-1.25929 -3.56325 1.0185e-05 
-1.19165 -3.82972 0.000118789 
-0.822365 -3.91561 0.00113091 
-0.786919 -3.75925 3.67592e-05 
-0.264978 -3.8753 -0.00121533 
0.421941 -3.87857 -0.00252636 
0.986255 -3.91263 -3.15935e-05 
1.2922 -3.68723 -0.000138244 
1.47418 -3.49315 -3.44464e-05 
1.627 -3.58453 6.11429e-06 
1.82813 -3.71177 -7.85324e-06 
2.10538 -3.59111 6.67077e-07 
2.37485 -3.67977 -3.25093e-07 
2.6612 -3.67043 8.56931e-07 
2.97277 -3.69506 -2.22983e-07 
3.28666 -3.67728 -5.44763e-07 
3.60208 -3.6752 -1.21965e-07 
3.90924 -3.65195 -5.57826e-08 
4.21883 -3.68067 2.89642e-07 
4.53271 -3.66987 -3.4997e-07 
4.83963 -3.66328 -2.60839e-07 
5.14359 -3.67057 -6.98346e-08 
5.44791 -3.67326 1.405e-08 
5.74322 -3.66234 -6.07549e-08 
6.04865 -3.67405 -1.03826e-07 
6.33307 -3.63866 -2.94963e-08 
6.63769 -3.67815 -1.22564e-07 
6.93363 -3.65462 1.50465e-07 
7.23555 -3.66122 -8.59215e-08 
7.5413 -3.66448 1.43916e-07 
7.84228 -3.65601 -6.98528e-08 
8.13899 -3.65371 -7.44105e-09 
8.43491 -3.65703 -1.93236e-08 
8.72641 -3.63825 1.0945e-08 
9.05069 -3.70001 8.58748e-09 
9.388 -3.6868 -5.2606e-09 
9.69614 -3.64478 -5.54553e-09 
10.0382 -3.70884 -3.59001e-08 
10.3789 -3.67408 1.26202e-08 
10.7363 -3.70265 -2.72937e-09 
11.0713 -3.65779 -1.14316e-08 
11.374 -3.61888 -8.86559e-09 
11.7218 -3.72444 8.14981e-09 
12.0009 -3.60394 -6.34046e-09 
-12.0004 -3.32524 1.67523e-08 
-11.6215 -3.36143 -3.23545e-08 
-11.2718 -3.27024 4.41665e-09 
-10.9596 -3.33648 -1.7826e-08 
-10.651 -3.3032 2.22912e-08 
-10.3554 -3.36085 -8.25477e-09 
-10.0408 -3.30055 1.51734e-08 
-9.72697 -3.34656 6.28238e-10 
-9.41119 -3.37158 -1.30063e-08 
-9.1007 -3.33178 1.52583e-08 
-8.79748 -3.32028 1.90758e-09 
-8.48964 -3.33754 1.08841e-09 
-8.17887 -3.33118 3.66009e-09 
-7.85877 -3.33404 -1.684e-08 
-7.55545 -3.33202 3.64582e-08 
-7.23933 -3.29425 -5.83389e-08 
-6.93325 -3.34294 4.57816e-08 
-6.62817 -3.33561 -1.02893e-08 
-6.31535 -3.34799 -3.24036e-09 
-6.01007 -3.33959 -2.02647e-08 
-5.71079 -3.33745 -1.6438e-08 
-5.41197 -3.32619 8.86863e-09 
-5.11449 -3.34263 -2.0837e-08 
-4.8066 -3.34835 4.55759e-08 
-4.50182 -3.35741 3.85074e-08 
-4.20917 -3.36144 2.51637e-08 
-3.88938 -3.38801 -3.33647e-07 
-3.56776 -3.3842 1.34752e-07 
-3.22886 -3.36231 -2.45142e-08 
-2.91112 -3.36838 -2.71431e-07 
-2.59801 -3.33625 -8.52949e-07 
-2.2609 -3.26308 1.26171e-06 
-1.96002 -3.29246 -4.03874e-06 
-1.67866 -3.28082 3.74431e-06 
-1.41444 -3.276 -7.96317e-06 
-1.25361 -3.1074 -5.2358e-05 
-1.13596 -3.24802 0.000124985 
-1.09589 -3.71493 -0.000152877 
-0.92706 -3.58568 5.04014e-05 
-0.660069 -3.66502 0.000148277 
0.412171 -3.77316 0.00379194 
0.880259 -3.79748 6.10048e-05 
1.15073 -3.47802 4.92062e-05 
1.31625 -3.27576 -6.8199e-06 
1.441 -3.00526 -5.92215e-06 
1.64593 -3.179 -6.44426e-07 
1.88732 -3.3548 -1.0529e-06 
2.3071 -3.32956 -6.95797e-07 
2.60019 -3.33291 -6.46982e-07 
2.89389 -3.37989 -3.44282e-08 
3.20641 -3.3706 -2.27125e-07 
3.53291 -3.36486 -2.60788e-07 
3.84701 -3.32282 3.90163e-07 
4.15888 -3.35029 -3.13952e-07 
4.46898 -3.34941 1.42385e-07 
4.77934 -3.33146 -2.62966e-08 
5.08551 -3.34397 -3.04526e-08 
5.3954 -3.3517 -1.37919e-08 
5.7027 -3.33019 4.72896e-08 
6.00307 -3.34867 4.055e-08 
6.30164 -3.29088 -4.59882e-08 
6.59791 -3.34073 2.01138e-08 
6.90363 -3.32453 -5.34691e-08 
7.21202 -3.32768 1.4089e-07 
7.51892 -3.33183 -7.98254e-08 
7.82677 -3.31722 3.09928e-08 
8.13287 -3.30881 7.54334e-09 
8.43138 -3.30715 2.55352e-08 
8.76303 -3.32724 7.0739e-09 
9.08996 -3.38691 -1.64964e-08 
9.40309 -3.34647 1.28877e-08 
9.71129 -3.29785 3.88066e-09 
10.0153 -3.39339 1.96258e-09 
10.3059 -3.31721 -3.85302e-09 
10.6264 -3.38824 -1.05263e-08 
10.9593 -3.34146 8.86352e-10 
11.2849 -3.26613 1.63057e-09 
11.6288 -3.37046 2.87372e-08 
12.0005 -3.3053 -1.72095e-08 
-12.0007 -2.99347 5.08331e-09 
-11.6676 -3.05782 -6.02458e-09 
-11.3296 -2.95942 1.69395e-08 
-10.9718 -2.97774 -1.66095e-08 
-10.6375 -2.97368 1.2323e-08 
-10.3048 -3.00132 -1.23582e-08 
-9.97234 -2.96556 -4.70311e-10 
-9.65937 -3.0138 2.04454e-09 
-9.3576 -3.02351 3.54196e-09 
-9.05367 -2.98341 -1.0408e-08 
-8.74105 -2.98621 1.14815e-08 
-8.43311 -3.00176 1.78294e-09 
-8.11272 -3.00914 -4.07641e-09 
-7.80384 -2.99681 -1.93342e-10 
-7.50215 -2.99019 -2.04739e-08 
-7.20108 -2.9668 3.75006e-08 
-6.90016 -3.01458 -1.5675e-09 
-6.58869 -3.01211 -6.76632e-09 
-6.28541 -3.01514 2.96002e-10 
-5.98734 -3.00712 2.84994e-10 
-5.68492 -3.01064 8.59753e-09 
-5.39064 -2.99293 2.48718e-08 
-5.09277 -3.0135 -2.41585e-08 
-4.79409 -3.0266 2.19282e-08 
-4.49656 -3.02339 -1.09993e-07 
-4.1998 -3.02175 1.71075e-08 
-3.90802 -3.07812 3.18911e-07 
-3.59059 -3.06635 -1.4658e-07 
-3.26566 -3.05521 -1.91307e-07 
-2.93935 -3.03859 2.97868e-07 
-2.59738 -3.02924 -2.14308e-07 
-2.23415 -2.93529 -1.09521e-06 
-1.91235 -2.96255 -8.32548e-07 
-1.6262 -2.94503 -1.55881e-06 
-1.40077 -2.89172 -1.09108e-07 
-1.01273 -2.95594 2.28377e-06 
-0.819692 -3.11992 0.000135032 
-1.02116 -3.39547 -0.00117692 
-0.662304 -3.5187 -0.00155321 
-0.256552 -3.77239 0.00202238 
0.404399 -3.67142 0.00133957 
0.979581 -3.64897 0.000496993 
0.907346 -3.3526 5.87025e-05 
1.04979 -3.17573 -9.41113e-06 
1.16224 -2.92111 3.67857e-06 
1.58439 -2.73106 1.1584e-06 
1.88514 -3.02596 1.21256e-07 
2.20168 -3.09885 9.20991e-07 
2.56899 -2.9854 6.25139e-07 
2.88979 -3.06718 1.33697e-07 
3.21143 -3.05079 7.09832e-08 
3.53211 -3.05628 1.42471e-07 
3.86421 -3.00011 -1.1624e-07 
4.18011 -3.03248 1.92759e-07 
4.48931 -3.02583 -4.33098e-08 
4.7987 -3.00638 -2.96428e-08 
5.10579 -3.01468 8.73021e-09 
5.40684 -3.03101 4.72002e-08 
5.69976 -2.99704 -2.24145e-08 
5.99599 -3.02063 -4.26123e-08 
6.29832 -2.96406 1.22846e-08 
6.60567 -3.00808 4.67656e-08 
6.90952 -2.99441 -5.56947e-08 
7.21389 -2.99824 -1.60986e-08 
7.51875 -2.99985 -1.55884e-08 
7.82913 -2.98382 9.60425e-09 
8.12762 -2.96571 -7.2511e-09 
8.45703 -2.99716 -1.00096e-08 
8.7523 -2.97538 -3.14316e-11 
9.05067 -3.05823 1.96781e-09 
9.3566 -3.01202 -1.46404e-09 
9.65845 -2.9578 -1.68202e-09 
9.98475 -3.0313 2.01327e-10 
10.3205 -2.98937 1.98642e-09 
10.6528 -3.05323 2.85771e-09 
10.9844 -2.99991 7.63848e-10 
11.3366 -2.94443 3.12521e-09 
11.6645 -3.05892 2.78604e-09 
12.0005 -2.97528 -1.35631e-09 
-12.0005 -2.67128 6.61665e-09 
-11.6601 -2.72641 8.47584e-09 
-11.3365 -2.62336 -3.64035e-09 
-11.0063 -2.66738 -1.29881e-09 
[...]
POINT_DATA 1978 
VECTORS vectors float
-3.55498e-05 3.47485e-06 1.00046 
-3.98629e-05 -2.17311e-05 1.0007 
-4.33114e-05 -3.75652e-05 1.00071 
-4.88993e-05 -4.70716e-05 1.0007 
-5.06947e-05 -3.75517e-05 1.0007 
-5.59076e-05 -8.00069e-06 1.00068 
-6.17927e-05 1.47999e-05 1.00068 
-5.20494e-05 2.31356e-05 1.00068 
-1.32406e-05 2.75474e-06 1.00066 
2.79413e-05 -2.05729e-05 1.00066 
6.19394e-05 -4.46354e-05 1.00065 
0.000111821 -7.64578e-05 1.00064 
0.0001798 -0.000147735 1.00065 
0.000219872 -0.000236472 1.00064 
0.000210859 -0.000230342 1.00064 
0.000223249 -0.000156017 1.00043 
0.000249037 -0.000141169 1.00065 
0.000171647 -0.000268042 1.00064 
-3.85794e-05 -0.000391774 1.00064 
-0.000313573 -0.000375676 1.00063 
-0.000619023 -9.79442e-05 1.00061 
-0.00100408 0.000534052 1.00061 
-0.00132316 0.00137 1.00062 
-0.00180033 0.00219124 1.00063 
-0.00263245 0.00301499 1.00061 
-0.00338238 0.00359177 1.00059 
-0.00444988 0.00457512 1.00059 
-0.00632658 0.00926598 1.00057 
-0.0072054 0.0124598 1.00053 
-0.0143807 0.012968 1.00044 
-0.0163317 0.0292889 1.00007 
-0.0101462 0.0389417 0.999829 
-0.0233999 0.0447415 0.99933 
-0.0412005 0.0754905 0.996825 
-0.0364127 0.107464 0.99404 
-0.0262244 0.140517 0.990019 
-0.00880305 0.155455 0.988039 
0.0350829 0.1579 0.987298 
0.0852347 0.0278752 0.996697 
0.0743167 0.0110544 0.997669 
-0.0235033 -0.0363985 -0.998275 
-0.0172447 0.0788533 -0.997094 
-8.10699e-05 0.0784407 -0.997294 
0.0103132 0.0740914 -0.997627 
0.0106057 0.0646937 -0.998288 
0.0137229 0.0460847 -0.999407 
0.0109183 0.0330359 -1 
0.00460178 0.0186635 -1.00039 
0.00486685 0.0176908 -1.00023 
0.00972974 0.0154681 -1.00062 
0.00481962 0.0105867 -1.00056 
0.00196797 0.00913479 -1.00058 
0.0043793 0.00652135 -1.00039 
0.00445368 0.00402866 -1.00061 
0.00283547 0.00328621 -1.00063 
0.00192352 0.00248304 -1.00064 
0.00139274 0.00140382 -1.00063 
0.000953249 0.000455318 -1.00062 
0.000537314 -0.000220539 -1.00062 
0.000253639 -0.000521901 -1.00062 
6.61661e-05 -0.000491091 -1.00063 
-8.70509e-05 -0.000353552 -1.00063 
-0.000238917 -0.000198404 -1.00064 
-0.000258245 -0.000184502 -1.00064 
-0.000256188 -0.000261231 -1.00064 
-0.000268314 -0.000240277 -1.00063 
-0.000211994 -0.000128247 -1.00064 
-0.000121626 -4.66477e-05 -1.00064 
-6.30002e-05 -2.23218e-05 -1.00065 
-2.92301e-05 -4.61855e-06 -1.00065 
1.89684e-05 2.08142e-05 -1.00065 
6.48256e-05 3.44266e-05 -1.00067 
7.56816e-05 3.10591e-05 -1.00067 
6.09532e-05 -5.14409e-06 -1.00068 
5.2673e-05 -3.40097e-05 -1.00069 
5.15316e-05 -4.76729e-05 -1.00069 
4.48426e-05 -4.36126e-05 -1.0007 
3.80275e-05 -3.08836e-05 -1.0007 
2.25809e-05 -6.81644e-06 -1.00046 
-6.74213e-05 7.00798e-06 1.0007 
-6.20331e-05 -1.32967e-05 1.00114 
-7.04431e-05 -3.32288e-05 1.00139 
-6.64896e-05 -4.12468e-05 1.00139 
-6.02257e-05 -3.54455e-05 1.00159 
-5.4072e-05 -1.26221e-05 1.00117 
-6.42463e-05 -4.96443e-06 1.00159 
-7.22353e-05 -5.91494e-06 1.00133 
-5.66461e-05 -2.75106e-05 1.00111 
-1.25591e-05 -4.59326e-05 1.00131 
4.36176e-05 -6.93547e-05 1.00151 
9.70782e-05 -0.000122948 1.00131 
0.00015442 -0.000191966 1.00128 
0.000207905 -0.000224618 1.00128 
0.000241294 -0.00022288 1.00127 
0.000245455 -0.000186127 1.0015 
0.000189623 -0.000176855 1.00127 
6.40838e-05 -0.000155531 1.00128 
-8.54307e-05 -0.00013285 1.00127 
-0.000231488 3.02865e-05 1.00124 
-0.00042567 0.000403639 1.00122 
-0.000738878 0.00107667 1.00123 
-0.00120217 0.00201873 1.00125 
-0.00189192 0.00302336 1.00125 
-0.00279537 0.00369286 1.00123 
-0.00354975 0.00454401 1.00121 
-0.004263 0.00786506 1.0012 
-0.00545631 0.013166 1.00117 
-0.0078402 0.0161533 1.00113 
-0.00937551 0.0224969 1.00096 
-0.00738033 0.0358077 1.00065 
-0.00730465 0.0512395 0.999925 
-0.0110483 0.0742648 0.998148 
0.0023352 0.0962429 0.996588 
0.00590678 0.11541 0.994041 
0.0208106 0.11443 0.99401 
0.016878 0.150181 0.989258 
0.052892 0.0931926 0.99399 
0.0476041 0.075856 0.996181 
0.0601955 0.0160653 0.994754 
-0.0060432 -0.0443709 -0.997211 
-0.0205573 0.0487025 -0.999237 
-0.00752888 0.0651707 -0.9988 
-0.0136567 0.0613524 -0.998919 
-0.00581135 0.0604403 -0.999134 
0.000888745 0.0517255 -0.99977 
-0.0020866 0.0339095 -1.00062 
0.000263552 0.0239879 -1.0009 
0.00327139 0.0171154 -1.00121 
0.00673119 0.0150388 -1.00087 
0.00360694 0.0124392 -1.00114 
0.00151633 0.008837 -1.00122 
0.00282011 0.00557578 -1.00144 
0.0035658 0.0043653 -1.00124 
0.00254751 0.00386627 -1.00126 
0.00153391 0.00286319 -1.00124 
0.000894641 0.00174874 -1.00124 
0.000524442 0.000803689 -1.00123 
0.000293866 0.000168023 -1.00125 
0.000156695 -0.000192687 -1.00124 
7.72327e-05 -0.000241373 -1.00126 
-2.64299e-05 -0.000185496 -1.00105 
-0.000154409 -0.000180128 -1.00145 
-0.000255668 -0.000208335 -1.00128 
-0.000282509 -0.00027664 -1.00128 
-0.000247351 -0.000248739 -1.00128 
-0.000173229 -0.000170527 -1.00127 
-9.7176e-05 -9.90635e-05 -1.00107 
-3.98047e-05 -4.99804e-05 -1.00149 
1.15357e-05 -2.42205e-05 -1.00109 
6.1986e-05 -9.78678e-06 -1.00131 
8.49089e-05 -3.80863e-06 -1.00153 
6.96779e-05 9.51511e-06 -1.00113 
5.5286e-05 -7.36988e-06 -1.00156 
5.75931e-05 -3.56933e-05 -1.00136 
6.51608e-05 -4.46954e-05 -1.00138 
6.60472e-05 -3.54541e-05 -1.00139 
5.43744e-05 -1.71385e-05 -1.00114 
5.74496e-05 4.82787e-06 -1.0007 
-7.86841e-05 2.612e-06 1.0007 
-7.81571e-05 -1.49996e-05 1.00139 
-8.22159e-05 -3.55823e-05 1.0016 
-7.90386e-05 -4.23131e-05 1.00117 
-6.94135e-05 -2.81862e-05 1.00138 
-6.2563e-05 -1.91872e-05 1.00137 
-7.11464e-05 -2.17182e-05 1.00115 
-9.37746e-05 -4.19512e-05 1.00135 
-9.3064e-05 -5.21124e-05 1.00155 
-5.49739e-05 -6.23544e-05 1.00133 
1.23751e-05 -0.000100772 1.0013 
8.7406e-05 -0.00015108 1.0011 
0.000140412 -0.000216677 1.00129 
0.000181778 -0.000241598 1.00131 
0.000217254 -0.000223089 1.00148 
0.000225865 -0.000229524 1.00128 
0.000188215 -0.000212148 1.00106 
0.000101612 -0.000149771 1.00126 
-2.27825e-06 1.72125e-06 1.00128 
-0.000106221 0.000190526 1.00126 
-0.000260344 0.000562179 1.00123 
-0.000511706 0.00117612 1.00123 
-0.000895571 0.00209179 1.00144 
-0.00151289 0.0033117 1.00104 
-0.00236862 0.00398288 1.00143 
-0.00308307 0.00426809 1.00121 
-0.00355351 0.00667296 1.00101 
-0.00396839 0.0122929 1.0014 
-0.00415405 0.0176858 1.00113 
-0.00406235 0.0199829 1.00089 
-0.00439534 0.026961 1.00117 
-0.00149477 0.043335 1.00037 
0.0072204 0.0620876 0.999229 
0.0142299 0.0800818 0.99762 
0.0247586 0.0905185 0.996703 
0.0332568 0.0806859 0.99711 
0.0346581 0.0793854 0.996675 
0.0280226 0.126842 0.992031 
0.0230237 0.089818 0.997412 
0.0386937 0.0598468 0.996675 
-0.0144196 -0.0331156 -0.997567 
-0.00805122 0.0346662 -0.999801 
-0.0155361 0.0508749 -0.999214 
-0.0192891 0.0596262 -0.998913 
-0.0194714 0.0566639 -0.999342 
-0.014476 0.0538212 -0.999405 
-0.00460788 0.0462353 -1.00035 
-0.00297059 0.0253878 -1.00088 
0.000997401 0.0183716 -1.00089 
0.00383194 0.013981 -1.00114 
0.00266965 0.0120822 -1.00138 
0.00133873 0.00949001 -1.00121 
0.00225686 0.00581404 -1.00104 
0.00307503 0.00440217 -1.00124 
0.00244416 0.00431611 -1.00145 
0.00129002 0.00353832 -1.00126 
0.000632173 0.00232318 -1.00124 
0.000381238 0.00129757 -1.00105 
0.000237897 0.000524377 -1.00143 
0.000111835 2.09585e-05 -1.00104 
2.41955e-05 -9.36975e-05 -1.00145 
-4.47748e-06 -0.000123932 -1.00127 
-0.000101077 -0.000129326 -1.00106 
-0.00020434 -0.000238933 -1.00127 
-0.000259908 -0.000294049 -1.00127 
-0.000234467 -0.000293562 -1.00128 
-0.000169167 -0.000234681 -1.00129 
-0.000103597 -0.000141007 -1.0015 
-2.18482e-05 -8.47101e-05 -1.00131 
4.76728e-05 -4.64509e-05 -1.00131 
0.000101787 -4.78789e-05 -1.00132 
0.000108114 -3.82067e-05 -1.00133 
7.84167e-05 -8.30831e-06 -1.00135 
6.44135e-05 -7.78166e-06 -1.00136 
6.42085e-05 -2.59209e-05 -1.00116 
7.37986e-05 -4.17789e-05 -1.00138 
7.68791e-05 -3.51256e-05 -1.00161 
7.14027e-05 -1.55865e-05 -1.00139 
6.88912e-05 4.61708e-06 -1.0007 
-7.96822e-05 6.67688e-06 1.00069 
-7.97301e-05 -9.78659e-06 1.00139 
-8.23735e-05 -3.12034e-05 1.0014 
-8.26266e-05 -4.22528e-05 1.00159 
-7.97009e-05 -3.4369e-05 1.00116 
-7.08338e-05 -2.42007e-05 1.00158 
-8.7306e-05 -5.43901e-05 1.00135 
-0.000112931 -7.22912e-05 1.00133 
-0.000120521 -8.41145e-05 1.0011 
-7.44865e-05 -9.94131e-05 1.0013 
2.29245e-05 -0.000140442 1.0011 
0.000108017 -0.000218619 1.0015 
0.000152773 -0.000268513 1.00129 
0.000166511 -0.000271585 1.00127 
0.00018635 -0.000246561 1.00107 
0.000211652 -0.000231768 1.00125 
0.000210175 -0.000241544 1.00146 
0.000154576 -0.00014829 1.00126 
3.95364e-05 4.32956e-05 1.00125 
-9.4128e-05 0.000335708 1.00123 
-0.000231878 0.000727393 1.00122 
-0.000414202 0.00136716 1.00122 
-0.000751434 0.00242265 1.00122 
-0.0012647 0.00369886 1.00122 
-0.00202443 0.0044342 1.00102 
-0.00281133 0.00442182 1.00123 
-0.0032327 0.00627719 1.00143 
-0.00308349 0.01182 1.00101 
-0.00193677 0.0178815 1.00113 
-0.000246399 0.0209795 1.00132 
-0.0008293 0.0229896 1.00089 
0.00286606 0.03884 1.00059 
0.0151207 0.0592762 0.999555 
0.026727 0.0679358 0.998433 
0.0358003 0.0672016 0.998065 
0.0485208 0.0641758 0.997657 
0.0482322 0.067503 0.996862 
0.0348166 0.089252 0.99661 
0.043706 0.0590355 0.997414 
0.0347757 0.0205998 0.996667 
0.000149534 -0.0212896 -0.999222 
-0.0106282 0.0357173 -1.00029 
-0.0158875 0.0250173 -1.00011 
-0.0208645 0.0424347 -0.999765 
-0.0277135 0.0552132 -0.999183 
-0.0181152 0.0470116 -0.999888 
-0.00936608 0.0383863 -1.00049 
-0.00518476 0.0268474 -1.00068 
-0.0017984 0.0178539 -1.00133 
0.0011368 0.0132398 -1.00119 
0.0016158 0.0119091 -1.00102 
0.00134841 0.00884801 -1.00124 
0.00231227 0.00503704 -1.00146 
0.00270332 0.00434412 -1.00125 
0.00180615 0.0044964 -1.00103 
0.000709962 0.00370056 -1.00123 
0.000269289 0.00249649 -1.00126 
0.000251197 0.00145153 -1.00143 
0.000251201 0.000628389 -1.00104 
0.000120815 0.000110701 -1.00143 
-2.5493e-06 -3.85427e-05 -1.00104 
-5.1018e-05 -4.58574e-05 -1.00144 
-0.00010801 -0.000132107 -1.00126 
-0.000191187 -0.000235831 -1.00126 
-0.000229468 -0.000337382 -1.00126 
-0.000213524 -0.000349556 -1.00128 
-0.000168556 -0.00028401 -1.00128 
-9.849e-05 -0.000206131 -1.00128 
-2.00049e-05 -0.000125781 -1.00129 
6.40572e-05 -8.53685e-05 -1.0013 
0.000123645 -7.89806e-05 -1.00131 
0.000131398 -7.11712e-05 -1.00133 
9.50448e-05 -3.89757e-05 -1.00134 
7.32984e-05 -2.02926e-05 -1.00136 
7.27394e-05 -3.10581e-05 -1.00137 
7.8062e-05 -4.23616e-05 -1.00138 
7.71137e-05 -3.14309e-05 -1.00139 
7.49212e-05 -9.73167e-06 -1.00139 
7.35666e-05 8.61836e-06 -1.0007 
-7.21859e-05 8.68641e-06 1.00069 
-7.32769e-05 -4.46685e-06 1.00158 
-7.3012e-05 -2.22888e-05 1.00115 
-8.17538e-05 -3.54008e-05 1.00137 
-8.19113e-05 -3.14842e-05 1.00137 
-8.34496e-05 -3.48224e-05 1.00136 
-9.77652e-05 -6.28901e-05 1.00134 
-0.000131925 -0.000102113 1.00135 
-0.000142205 -0.00011387 1.00152 
-9.03792e-05 -0.00013546 1.00131 
1.54395e-05 -0.000196382 1.0013 
0.000107527 -0.000268211 1.00127 
0.000133323 -0.000315037 1.00129 
0.000131965 -0.000296172 1.00126 
0.000160651 -0.000255993 1.00127 
0.000223198 -0.000260213 1.00124 
0.000255146 -0.000257416 1.00125 
0.000203387 -0.000166484 1.00123 
6.28662e-05 7.34259e-05 1.00123 
-7.24376e-05 0.00040404 1.00122 
-0.000148702 0.000836235 1.00122 
-0.000285895 0.00152166 1.00121 
-0.000541342 0.00265526 1.00101 
-0.000956298 0.00405598 1.00142 
-0.00163973 0.00485198 1.00122 
-0.00254919 0.00464268 1.00123 
-0.00294692 0.0061336 1.00125 
-0.00202126 0.0117428 1.00124 
0.000467377 0.0180471 1.00119 
0.00258739 0.0214628 1.00116 
0.00200578 0.0242871 1.00111 
0.00846419 0.0383245 1.00065 
0.0209603 0.0543009 0.999558 
0.033445 0.0587012 0.998864 
0.0569817 0.0666368 0.997053 
0.0717308 0.0685388 0.996138 
0.0685937 0.0636078 0.99666 
0.0550464 0.0574288 0.997898 
0.0417534 0.0868566 0.996729 
0.0329 0.0284929 0.995494 
0.00202296 -0.00885757 -0.997041 
-0.0111587 0.0173166 -1.00085 
-0.0214967 0.0557355 -0.998963 
-0.032607 0.0587176 -0.998855 
-0.0293516 0.0507878 -0.999574 
-0.017233 0.0386392 -1.00063 
-0.0111096 0.0328413 -1.00058 
-0.00702827 0.0216189 -1.00131 
-0.00355871 0.0160683 -1.00121 
-0.000289379 0.0120572 -1.00123 
0.0010785 0.00997632 -1.00126 
0.00163808 0.00760123 -1.00128 
0.00231278 0.00454829 -1.00126 
0.00203978 0.00444599 -1.00125 
0.000872518 0.00459063 -1.00124 
6.17306e-05 0.0036879 -1.00124 
-3.18275e-05 0.0024874 -1.00123 
0.000151042 0.00143123 -1.00123 
0.000215486 0.000538039 -1.00121 
0.000100605 9.19376e-05 -1.00123 
-2.37563e-05 8.18269e-06 -1.00122 
-7.97306e-05 -1.8036e-05 -1.00124 
-0.000144285 -0.000122835 -1.00125 
-0.000201354 -0.000279821 -1.00124 
-0.000211621 -0.000372474 -1.00128 
-0.000178411 -0.000380475 -1.00127 
-0.000138402 -0.000342819 -1.00127 
-8.71132e-05 -0.000251014 -1.00108 
3.1671e-06 -0.000189864 -1.00129 
9.26032e-05 -0.000122796 -1.0013 
0.000149385 -0.000113332 -1.00131 
0.000144606 -9.39616e-05 -1.00132 
0.000108538 -5.47348e-05 -1.00134 
8.47209e-05 -3.19044e-05 -1.00135 
7.52761e-05 -3.24438e-05 -1.00137 
7.20863e-05 -3.66221e-05 -1.00138 
6.68913e-05 -2.27844e-05 -1.00138 
6.80682e-05 -3.65621e-06 -1.00137 
6.57664e-05 6.17921e-06 -1.00069 
-6.19896e-05 1.18611e-05 1.00067 
-6.20806e-05 6.45301e-06 1.00114 
-5.82871e-05 -4.20328e-06 1.00135 
-6.33484e-05 -2.35537e-05 1.00135 
-7.17354e-05 -3.17147e-05 1.00136 
-7.93167e-05 -3.89733e-05 1.00135 
-9.21587e-05 -6.5374e-05 1.00133 
-0.000116928 -0.000105272 1.00132 
-0.000136403 -0.000137466 1.00131 
-0.000110379 -0.000159134 1.00129 
-2.08031e-05 -0.000216071 1.00128 
7.79719e-05 -0.000293705 1.00127 
0.000113694 -0.000344461 1.00126 
9.3975e-05 -0.000321067 1.00126 
9.82604e-05 -0.000278914 1.00125 
0.000171893 -0.000274556 1.00124 
0.000251976 -0.000301094 1.00123 
0.000238107 -0.000254605 1.00123 
0.000128226 -7.3822e-05 1.00122 
1.50493e-05 0.000238984 1.00121 
-2.89482e-05 0.000615731 1.0012 
-0.000104289 0.00113446 1.0012 
-0.000223474 0.00206347 1.00119 
-0.000377793 0.00344978 1.0012 
-0.000687355 0.00478204 1.00123 
-0.00146343 0.00512779 1.00124 
-0.00242972 0.00463095 1.00125 
-0.00192577 0.00736995 1.00128 
0.00105601 0.0142186 1.00126 
0.00438962 0.0197898 1.0012 
0.0042935 0.0204689 1.00123 
0.00675763 0.0271256 1.00112 
0.0184844 0.0413771 1.00044 
0.0288901 0.0490435 0.999679 
0.0514439 0.0657045 0.997713 
0.0560455 0.0596945 0.998006 
0.0973783 0.0673174 0.994244 
0.08784 0.057506 0.994974 
0.0524631 0.0746568 0.9978 
0.0318867 0.0484573 0.993936 
-0.00535269 0.0185386 -1.00063 
-0.0122774 0.0440285 -1.00002 
-0.0301646 0.0645422 -0.998463 
-0.0450951 0.0527081 -0.999144 
-0.0328843 0.0399423 -0.999905 
-0.0226788 0.0342327 -1.00061 
-0.0124934 0.0245343 -1.00105 
-0.00832731 0.0195032 -1.00095 
-0.0050141 0.0144626 -1.00126 
-0.00126171 0.00989124 -1.00133 
0.000769364 0.00903905 -1.0013 
0.00159326 0.0067248 -1.0013 
0.00180888 0.0044652 -1.00129 
0.000967558 0.00462537 -1.00127 
-5.26754e-05 0.00458466 -1.00126 
-0.000523766 0.00368197 -1.00123 
-0.000271173 0.00248178 -1.00121 
0.000104991 0.00136786 -1.00121 
0.000214166 0.000503627 -1.00121 
8.5845e-05 8.74179e-05 -1.00121 
-1.12491e-05 4.97489e-05 -1.00121 
-6.22749e-05 3.23805e-05 -1.00122 
-0.000136101 -0.00011569 -1.00122 
-0.000195322 -0.000312923 -1.00124 
-0.000189109 -0.000396622 -1.00125 
-0.000146526 -0.000409499 -1.00125 
-0.000122773 -0.00037036 -1.00127 
-7.90241e-05 -0.000318663 -1.00149 
6.22442e-08 -0.000243645 -1.00129 
9.08325e-05 -0.000178859 -1.0013 
0.000143556 -0.000148588 -1.00131 
0.000135052 -0.000112932 -1.00132 
0.000106695 -6.92246e-05 -1.00134 
8.00824e-05 -3.76234e-05 -1.00134 
6.62531e-05 -2.92883e-05 -1.00136 
5.76924e-05 -2.67486e-05 -1.00136 
4.8939e-05 -8.14127e-06 -1.00136 
5.42961e-05 5.08118e-06 -1.00137 
5.20079e-05 9.8093e-06 -1.00069 
-3.73218e-05 1.16011e-05 1.00067 
-4.02083e-05 1.80784e-05 1.00157 
-4.03215e-05 6.27699e-06 1.00135 
-4.6095e-05 -1.07538e-05 1.00134 
-6.11409e-05 -2.49724e-05 1.00133 
-7.57769e-05 -4.21823e-05 1.00131 
-9.5442e-05 -8.07106e-05 1.00131 
-0.000119779 -0.000129671 1.00129 
-0.000128517 -0.000173668 1.00129 
-9.12659e-05 -0.000219156 1.00128 
2.7653e-07 -0.000293487 1.00126 
7.89467e-05 -0.000349255 1.00125 
9.46995e-05 -0.000360394 1.00125 
6.92644e-05 -0.000330137 1.00124 
8.57457e-05 -0.000316486 1.00123 
0.00017409 -0.000341104 1.00122 
0.000243298 -0.000332053 1.00122 
0.000233921 -0.000228243 1.00121 
0.000136516 7.23707e-07 1.0012 
3.16851e-05 0.000329134 1.00118 
-6.09382e-05 0.000725118 1.00118 
-0.00013198 0.00127526 1.00117 
-0.000125346 0.00216145 1.00117 
-0.000107503 0.00344505 1.00122 
-0.000264655 0.00488534 1.00124 
-0.000967244 0.00532802 1.00124 
-0.00170763 0.00470991 1.00126 
-0.00118343 0.00645183 1.00132 
0.00216302 0.0119779 1.00131 
0.00610926 0.0172957 1.00131 
0.00759771 0.0186593 1.00135 
0.0110424 0.0213059 1.00133 
0.0166947 0.0234529 1.00119 
0.0266211 0.0315918 1.00068 
0.0418681 0.0342195 0.999913 
0.0734564 0.0465246 0.997981 
0.120083 0.0752323 0.991085 
0.0562733 0.0759145 0.995933 
0.0541091 0.0647331 0.998523 
0.0276212 0.0556836 0.996118 
0.00930956 0.0104171 -0.998391 
-0.00886629 0.0608135 -0.99866 
-0.0470233 0.0649998 -0.997975 
-0.0530108 0.0476171 -0.998796 
-0.03992 0.026409 -1.0008 
-0.0236433 0.0240156 -1.00107 
-0.0157352 0.0202891 -1.00126 
-0.00804639 0.0148916 -1.00157 
-0.00409235 0.0097978 -1.00136 
-0.000577112 0.00720681 -1.00135 
0.00123161 0.00721252 -1.00111 
0.00138337 0.00546967 -1.00151 
0.000651454 0.00441655 -1.00129 
-0.000530038 0.00460471 -1.00126 
-0.0010615 0.00431264 -1.00124 
-0.000786739 0.00322402 -1.0012 
-0.000145427 0.00202179 -1.00118 
0.000291637 0.000962634 -1.00118 
0.000286876 0.000303781 -1.00119 
8.52154e-05 0.000109689 -1.00119 
-2.88907e-05 0.000120343 -1.00119 
-8.00831e-05 6.26468e-05 -1.0012 
-0.000156733 -0.000176409 -1.00122 
-0.000202382 -0.000389028 -1.00123 
-0.000173172 -0.000448557 -1.00125 
-0.00012713 -0.000419971 -1.00127 
-9.90765e-05 -0.000384109 -1.00105 
-4.93058e-05 -0.00035151 -1.00126 
3.28694e-05 -0.00029639 -1.00127 
0.000106375 -0.00023244 -1.00129 
0.000138807 -0.000180477 -1.0013 
0.000121851 -0.000121547 -1.0013 
9.39674e-05 -6.81927e-05 -1.00132 
6.78329e-05 -3.23945e-05 -1.00132 
5.48793e-05 -2.1636e-05 -1.00134 
4.01219e-05 -8.50322e-06 -1.00134 
2.83235e-05 1.04375e-05 -1.00134 
3.36563e-05 1.74019e-05 -1.00135 
2.9716e-05 1.35671e-05 -1.00068 
-4.72742e-06 2.48996e-05 1.00067 
-1.69055e-05 3.38725e-05 1.0011 
-2.03411e-05 2.52747e-05 1.00133 
-2.55579e-05 1.0548e-05 1.00153 
-4.65947e-05 -6.6773e-06 1.0011 
-6.80414e-05 -2.86695e-05 1.00131 
-9.33941e-05 -7.34894e-05 1.0013 
-0.000119811 -0.000132146 1.00128 
-0.000130438 -0.000192779 1.00127 
-0.000100083 -0.000262634 1.00126 
-2.22163e-05 -0.000326087 1.00125 
6.46541e-05 -0.000383776 1.00124 
9.63301e-05 -0.000390997 1.00124 
8.17621e-05 -0.000375837 1.00123 
7.98538e-05 -0.0003852 1.00121 
0.00014053 -0.00039071 1.00121 
0.000224096 -0.000355495 1.00139 
0.000264244 -0.000251489 1.001 
0.000217429 -6.75997e-05 1.00117 
0.000106447 0.000218394 1.00117 
9.3583e-06 0.000582046 1.00117 
-2.97283e-05 0.00102866 1.00116 
1.51103e-05 0.00166855 1.00117 
8.90363e-05 0.0026986 1.00139 
0.000219398 0.00416622 1.00124 
0.00010971 0.00544152 1.00104 
-0.000769243 0.00486768 1.00144 
-0.00149076 0.004535 1.0013 
0.000557175 0.00757048 1.00136 
0.00521501 0.0128373 1.00137 
0.00894447 0.014825 1.0014 
0.0122617 0.0141471 1.00121 
0.0144456 0.0107092 1.00185 
0.0215948 0.00925527 1.00187 
0.0331139 0.01058 1.00167 
0.0651001 0.0242845 0.998988 
0.125461 0.044225 0.992228 
0.115804 0.0990052 0.98876 
0.0496048 0.0939524 0.995464 
0.0337685 0.0618437 0.993545 
0.00259011 0.0408064 -0.996255 
-0.00339289 0.0881945 -0.99651 
-0.0768325 0.0491784 -0.996984 
-0.0631756 0.0280183 -0.999377 
-0.036322 0.0120164 -1.00117 
-0.0202654 0.0090356 -1.00153 
-0.0133162 0.0111831 -1.00153 
-0.00846595 0.0108816 -1.00148 
-0.00400431 0.00727082 -1.00145 
-0.000103947 0.00561702 -1.00142 
0.00129915 0.00610516 -1.00135 
0.00115737 0.00480279 -1.00112 
-0.000367292 0.00436436 -1.0013 
-0.00175805 0.00454914 -1.00127 