# vtk DataFile Version 3.0 
Exported using Morpho https://github.com/Morpho-lang/morpho 
ASCII 
DATASET UNSTRUCTURED_GRID 

POINTS 1978 float 
-8.48528 -2.82843 1.45666e-13 
-8.24142 -2.82843 4.18291e-13 
-7.94761 -2.82843 3.86429e-12 
-7.63267 -2.82843 1.78158e-12 
-7.26935 -2.82843 -5.89519e-14 
-7.04415 -2.82843 -5.61386e-13 
-6.8495 -2.82843 -1.85123e-13 
-6.66642 -2.82843 5.20406e-13 
-6.48317 -2.82843 1.32587e-12 
-6.30867 -2.82843 1.9399e-12 
-6.11653 -2.82843 2.41734e-12 
-5.90728 -2.82843 1.58865e-12 
-5.59559 -2.82843 1.02571e-12 
-5.40327 -2.82843 3.10551e-13 
-5.22334 -2.82843 1.42371e-13 
-5.03658 -2.82843 1.15727e-13 
-4.83432 -2.82843 2.04407e-13 
-4.60979 -2.82843 2.15597e-13 
-4.37378 -2.82843 6.40482e-14 
-4.14508 -2.82843 -1.12606e-14 
-3.94092 -2.82843 9.03974e-14 
-3.74532 -2.82843 6.37086e-13 
-3.55597 -2.82843 1.53618e-12 
-3.36881 -2.82843 3.50877e-12 
-3.16119 -2.82843 6.12283e-12 
-2.96335 -2.82843 9.76846e-12 
-2.73023 -2.82843 1.74002e-11 
-2.46119 -2.82843 2.59732e-11 
-2.21748 -2.82843 3.18073e-11 
-1.97561 -2.82843 4.24361e-11 
-1.71564 -2.82843 4.49442e-11 
-1.54203 -2.82843 5.17642e-11 
-1.29817 -2.82843 5.39539e-11 
-1.10833 -2.82843 3.64849e-11 
-0.95124 -2.82843 2.92356e-11 
-0.696212 -2.82843 2.02328e-11 
-0.512829 -2.82843 6.50817e-12 
-0.315134 -2.82843 5.64084e-13 
-0.17836 -2.82843 -2.55761e-12 
0.0047095 -2.82843 -1.20931e-12 
0.171283 -2.82843 1.61376e-12 
0.353386 -2.82843 -3.49807e-12 
0.56741 -2.82843 -8.54623e-12 
0.725146 -2.82843 -1.51358e-11 
0.851948 -2.82843 -3.01823e-11 
1.08632 -2.82843 -3.60972e-11 
1.2135 -2.82843 -4.05065e-11 
1.44283 -2.82843 -5.07538e-11 
1.62308 -2.82843 -5.22643e-11 
1.92924 -2.82843 -5.1884e-11 
2.18425 -2.82843 -3.831e-11 
2.49788 -2.82843 -2.83687e-11 
2.73185 -2.82843 -1.76685e-11 
3.00669 -2.82843 -1.09625e-11 
3.17926 -2.82843 -5.3043e-12 
3.3798 -2.82843 -3.41578e-12 
3.57044 -2.82843 -1.68842e-12 
3.7484 -2.82843 -7.17271e-13 
3.9616 -2.82843 -2.26821e-13 
4.18878 -2.82843 3.92646e-15 
4.3975 -2.82843 -2.69287e-14 
4.62648 -2.82843 -1.8279e-13 
4.85421 -2.82843 -2.75616e-13 
5.05706 -2.82843 -2.84666e-13 
5.26416 -2.82843 -3.47617e-13 
5.46016 -2.82843 -4.79354e-13 
5.64995 -2.82843 -6.77876e-13 
5.86249 -2.82843 -9.23805e-13 
6.07776 -2.82843 -9.99976e-13 
6.26725 -2.82843 -9.19065e-13 
6.46243 -2.82843 -9.66166e-13 
6.67114 -2.82843 -7.16708e-13 
6.87229 -2.82843 -7.54257e-13 
7.15466 -2.82843 -6.12054e-13 
7.44936 -2.82843 -5.9592e-13 
7.66524 -2.82843 -1.61488e-12 
8.05351 -2.82843 -2.24268e-12 
8.25797 -2.82843 -4.46577e-13 
8.48528 -2.82843 1.1052e-13 
-8.48528 -2.55799 -9.32667e-15 
-8.25362 -2.55298 4.44383e-12 
-8.00946 -2.63703 -3.99848e-12 
-7.97323 -2.43235 -3.5605e-12 
-7.69891 -2.63188 -1.9397e-12 
-7.05324 -2.57007 -1.21033e-12 
-6.83656 -2.56189 -1.87886e-15 
-6.61023 -2.57773 -1.72028e-12 
-6.42406 -2.56495 -9.80015e-13 
-6.30141 -2.38794 -1.55114e-12 
-6.18014 -2.63026 -3.8364e-12 
-5.87891 -2.66026 9.33588e-13 
-5.65918 -2.60444 -1.95104e-12 
-5.43972 -2.58101 -6.14332e-13 
-5.23628 -2.57102 -6.98097e-13 
-5.0369 -2.56869 -6.70139e-13 
-4.82181 -2.57694 -3.08606e-13 
-4.58934 -2.58729 -1.0168e-13 
-4.35307 -2.5934 1.20299e-13 
-4.13416 -2.58843 4.19683e-13 
-3.93539 -2.58345 7.89017e-13 
-3.74702 -2.59967 1.19932e-12 
-3.55006 -2.60101 2.04099e-12 
-3.34495 -2.62208 7.07204e-13 
-3.14179 -2.6092 -1.67537e-12 
-2.92507 -2.63686 4.63776e-12 
-2.68338 -2.67798 1.87479e-12 
-2.41024 -2.67597 -2.99464e-12 
-2.15744 -2.68317 -1.27888e-12 
-1.90814 -2.70757 1.12976e-12 
-1.70802 -2.67165 -6.36754e-12 
-1.46343 -2.72989 2.95671e-12 
-1.21229 -2.73065 -2.2494e-11 
-1.01854 -2.7264 2.65573e-12 
-0.835454 -2.77232 2.1759e-12 
-0.724896 -2.71702 -2.25227e-13 
-0.575517 -2.76127 -5.04086e-12 
-0.397397 -2.75805 1.04181e-11 
-0.211754 -2.73841 -6.38228e-13 
-0.0630714 -2.75977 5.57822e-12 
0.10464 -2.74658 -6.94265e-12 
0.445455 -2.77199 -1.32549e-11 
0.619562 -2.74813 3.32681e-12 
0.75092 -2.71174 -1.92428e-11 
1.00001 -2.76564 -7.09444e-12 
1.17338 -2.68155 -1.19988e-11 
1.32255 -2.73508 3.75736e-12 
1.51315 -2.68267 5.121e-12 
1.73655 -2.72849 -1.27431e-11 
2.07126 -2.68538 -1.11641e-11 
2.32724 -2.70924 -2.40513e-12 
2.58317 -2.66582 4.04999e-12 
2.85598 -2.68718 5.32789e-13 
3.0674 -2.59296 1.65392e-12 
3.26574 -2.62627 -1.52171e-12 
3.46529 -2.61201 -2.13435e-12 
3.65892 -2.58382 -7.61083e-13 
3.85835 -2.60875 -7.47696e-13 
4.07705 -2.60579 -3.16294e-13 
4.29098 -2.57057 -4.36376e-13 
4.50572 -2.58031 -7.35609e-14 
4.72935 -2.57894 1.97117e-13 
4.94766 -2.56925 4.79464e-13 
5.16403 -2.59312 5.06003e-13 
5.38283 -2.58522 7.87826e-13 
5.59045 -2.57053 1.05106e-12 
5.80037 -2.59459 5.89726e-13 
6.03175 -2.59568 8.30086e-13 
6.25814 -2.56305 1.0722e-12 
6.45725 -2.56759 1.73751e-12 
6.65855 -2.58854 3.96724e-13 
6.82856 -2.46335 9.12713e-13 
6.95189 -2.65491 1.01334e-12 
7.39742 -2.62981 5.94279e-13 
7.66494 -2.57241 2.50121e-12 
7.91164 -2.47973 5.47565e-13 
7.91547 -2.6865 1.68099e-12 
8.21622 -2.55988 -8.89703e-13 
8.48528 -2.54428 2.61902e-14 
-8.48528 -2.25084 2.62575e-14 
-8.28569 -2.26833 2.3287e-12 
-7.85829 -2.22245 -2.03549e-12 
-7.66529 -2.43573 -1.16948e-12 
-7.52286 -2.25628 -2.71318e-13 
-7.36141 -2.64866 -9.29202e-13 
-7.15422 -2.38673 -6.40721e-13 
-6.91215 -2.30187 -1.62831e-12 
-6.69524 -2.3407 -8.07386e-13 
-6.50698 -2.26015 -2.07338e-12 
-6.11014 -2.32635 -1.11943e-13 
-5.9776 -2.47973 -1.41963e-13 
-5.77372 -2.39215 -1.92243e-12 
-5.55821 -2.35249 -4.81936e-13 
-5.35313 -2.33227 -7.1309e-13 
-5.14634 -2.31959 -4.07587e-13 
-4.93246 -2.32285 -1.38774e-13 
-4.70604 -2.34022 5.41834e-15 
-4.47421 -2.35462 2.51175e-13 
-4.25289 -2.35247 4.68617e-13 
-4.04868 -2.341 5.3516e-13 
-3.85698 -2.34069 3.64856e-13 
-3.67054 -2.37712 4.55887e-13 
-3.47124 -2.39348 2.41845e-13 
-3.27896 -2.40981 -1.3831e-12 
-3.06156 -2.4213 1.77673e-12 
-2.84359 -2.47261 -1.50583e-12 
-2.60005 -2.54813 1.42029e-12 
-2.37628 -2.50294 -7.64345e-12 
-2.16864 -2.54332 5.97989e-12 
-1.92142 -2.56967 -4.22079e-12 
-1.61024 -2.59992 -2.00018e-11 
-1.3773 -2.64609 3.38358e-12 
-1.22221 -2.61414 -1.22719e-12 
-1.05064 -2.62365 1.0599e-11 
-0.88326 -2.66606 1.45934e-11 
-0.602136 -2.67224 1.41934e-11 
-0.451917 -2.66941 5.48022e-12 
-0.293931 -2.6726 -1.6908e-11 
-0.112044 -2.67121 2.4641e-11 
0.256573 -2.7637 -4.32346e-12 
0.344341 -2.69836 3.38063e-11 
0.494841 -2.69011 6.56572e-12 
0.871007 -2.70595 -2.82506e-12 
1.01635 -2.66378 -5.50203e-12 
1.25899 -2.57882 2.63201e-11 
1.39879 -2.6007 -1.99839e-11 
1.65393 -2.59575 2.50333e-11 
1.90036 -2.64764 1.59647e-11 
2.1822 -2.55538 -6.70799e-12 
2.38508 -2.55011 5.67727e-12 
2.58937 -2.49098 6.2627e-12 
2.79982 -2.5305 -2.20095e-12 
2.99879 -2.42231 3.50341e-12 
3.23633 -2.41543 5.47178e-13 
3.43441 -2.39685 2.85648e-13 
3.62533 -2.35635 -5.5101e-13 
3.82231 -2.37438 -9.56274e-13 
4.02206 -2.37924 -1.04902e-12 
4.22573 -2.33827 -6.18858e-13 
4.43953 -2.3216 -2.44798e-13 
4.64701 -2.32506 -1.36118e-13 
4.86203 -2.3205 7.50856e-14 
5.08565 -2.34026 3.87575e-13 
5.29721 -2.35596 5.76915e-13 
5.51164 -2.32907 6.60993e-13 
5.72921 -2.33879 6.36664e-13 
5.94099 -2.36844 8.3289e-13 
6.16515 -2.34412 5.39807e-13 
6.38604 -2.30067 6.42192e-13 
6.58936 -2.31981 4.13306e-13 
6.84224 -2.2509 8.03623e-13 
7.06834 -2.38064 1.179e-12 
7.18651 -2.57407 1.14986e-12 
7.54191 -2.37976 1.52561e-12 
7.78016 -2.27073 4.70732e-13 
8.02945 -2.30052 2.10099e-12 
8.27142 -2.34813 -3.66854e-13 
8.48528 -2.27259 -9.53717e-15 
-8.48528 -1.88222 -1.41923e-14 
-8.08141 -2.2352 -2.30909e-12 
-8.11507 -1.93071 -6.81791e-13 
-7.70199 -2.07902 -7.24251e-13 
-7.50945 -1.98557 -8.79816e-13 
-7.3689 -2.41233 -1.77167e-12 
-7.06604 -2.12324 -8.82112e-13 
-6.774 -2.08559 -9.61629e-13 
-6.55405 -2.02051 1.11914e-12 
-6.30265 -2.12975 3.64681e-13 
-6.08568 -2.0669 1.6643e-13 
-5.90634 -2.18138 -5.54103e-13 
-5.69971 -2.14204 3.30493e-13 
-5.48699 -2.09607 1.56261e-13 
-5.27653 -2.08392 1.18822e-14 
-5.05585 -2.07642 1.05135e-13 
-4.82496 -2.08929 7.99798e-14 
-4.59617 -2.10708 8.11937e-14 
-4.37915 -2.11181 1.31198e-13 
-4.17711 -2.10391 -5.1804e-14 
-3.98601 -2.09665 -7.91311e-13 
-3.79526 -2.1142 -9.16105e-13 
-3.61072 -2.16568 -1.36122e-12 
-3.41781 -2.17754 -1.77359e-12 
-3.21831 -2.22571 -3.56412e-12 
-3.01113 -2.2366 -5.90646e-12 
-2.81188 -2.30116 -8.35255e-12 
-2.60367 -2.39882 -7.65086e-12 
-2.42008 -2.32059 -1.95585e-12 
-2.22421 -2.3744 -1.39325e-11 
-2.01828 -2.42617 5.59328e-13 
-1.79525 -2.48211 7.6811e-12 
-1.52135 -2.51743 -5.81621e-11 
-1.394 -2.47619 3.27224e-11 
-1.12255 -2.51456 5.72224e-11 
-0.900874 -2.56185 2.5028e-12 
-0.75006 -2.60903 -5.3901e-12 
-0.421195 -2.58576 1.5934e-11 
-0.204836 -2.59839 2.44162e-11 
0.0330545 -2.67015 1.40565e-11 
0.217212 -2.67144 3.36699e-12 
0.394808 -2.6148 -3.04661e-11 
0.628415 -2.64935 4.91864e-11 
0.954626 -2.56922 -3.15741e-11 
1.09384 -2.56437 -3.60532e-11 
1.39213 -2.45896 -1.63611e-11 
1.53385 -2.49273 1.10485e-11 
1.81825 -2.51642 3.6114e-12 
2.00842 -2.48024 9.58658e-13 
2.25153 -2.38629 6.29815e-12 
2.44067 -2.37261 1.0992e-11 
2.70732 -2.33718 8.97992e-13 
2.87152 -2.2914 9.67596e-12 
3.11705 -2.24245 5.01104e-12 
3.30827 -2.19984 4.38604e-12 
3.49584 -2.16268 8.39592e-13 
3.68107 -2.10496 2.48005e-12 
3.84905 -2.14696 5.85946e-13 
4.04901 -2.13668 5.71595e-13 
4.26012 -2.10125 2.02355e-13 
4.46576 -2.06583 2.93887e-14 
4.68461 -2.07366 -5.79758e-14 
4.91897 -2.08763 -5.975e-14 
5.14328 -2.09822 4.34711e-15 
5.3564 -2.1092 -1.55822e-14 
5.58735 -2.09577 -3.43771e-14 
5.80554 -2.10268 -1.07801e-13 
6.01462 -2.12811 -1.13486e-14 
6.2304 -2.08947 -3.23294e-13 
6.43711 -2.04037 -2.13374e-13 
6.66528 -2.08867 2.3728e-13 
6.95746 -2.06684 2.80354e-13 
7.17076 -2.1533 7.55628e-13 
7.33727 -2.33636 1.10177e-12 
7.4153 -2.06345 2.53792e-13 
7.63204 -2.11977 1.09404e-12 
7.97376 -2.0686 4.35051e-13 
8.23521 -2.11977 -7.0564e-13 
8.48528 -2.02249 -1.84565e-15 
-8.48528 -1.5625 1.1406e-14 
-8.31073 -1.97039 6.27626e-13 
-7.91736 -1.92584 3.10686e-13 
[...]
POINT_DATA 1978 
VECTORS vectors float
-0.000309754 -0.000302307 1 
0.000394498 -0.103327 0.994647 
0.000257346 -0.151411 0.988471 
0.000173197 -0.0650599 0.997881 
0.000237806 0.0118128 0.99993 
0.000240924 0.03051 0.999534 
0.000251774 0.00942401 0.999956 
0.000285484 -0.0277217 0.999616 
0.000264421 -0.0721271 0.997395 
0.00025673 -0.102931 0.994688 
0.000262589 -0.129185 0.991621 
0.000258892 -0.112253 0.99368 
0.000244873 -0.0560642 0.998427 
0.000222276 -0.0293588 0.999569 
0.0002072 -0.014653 0.999893 
0.000255081 -0.010128 0.999949 
0.000254671 -0.015012 0.999887 
0.000254572 -0.0202008 0.999796 
0.00023963 -0.0129622 0.999916 
0.000225561 0.00640181 0.999979 
0.000207702 0.032496 0.999472 
0.00017545 0.0633382 0.997992 
0.000176535 0.0967237 0.995311 
0.000144366 0.130731 0.991418 
0.000149708 0.168989 0.985618 
0.000136671 0.20148 0.979493 
0.000132528 0.238908 0.971042 
0.000103814 0.269776 0.962923 
8.72864e-05 0.291895 0.95645 
7.31433e-05 0.31363 0.949545 
1.00867e-05 0.327137 0.944977 
-1.54601e-05 0.34091 0.940096 
-2.09877e-05 0.37784 0.925871 
-3.20019e-05 0.43035 0.902662 
9.44586e-06 0.495037 0.868872 
5.61634e-06 0.632261 0.774755 
-3.66824e-05 0.763428 0.645892 
4.48766e-05 0.897912 0.440176 
-7.46292e-05 0.966734 0.255784 
3.21158e-05 0.999846 -0.0175572 
-1.80667e-05 0.95826 -0.285898 
1.49621e-05 0.849315 -0.527886 
-2.68248e-05 0.696474 -0.717582 
6.49208e-05 0.573762 -0.819022 
-2.4678e-05 0.486038 -0.873937 
1.51756e-05 0.40192 -0.915675 
-1.07343e-05 0.371412 -0.928468 
1.65447e-06 0.344716 -0.938707 
-2.17656e-05 0.332514 -0.943098 
-3.83916e-05 0.311726 -0.950172 
-9.49307e-05 0.290211 -0.956963 
-9.41941e-05 0.260005 -0.965607 
-0.000124225 0.230215 -0.97314 
-0.000129508 0.192643 -0.981269 
-0.000163999 0.166361 -0.986065 
-0.000143806 0.134545 -0.990907 
-0.000173175 0.101833 -0.994802 
-0.00018202 0.0728803 -0.997341 
-0.000204882 0.0415076 -0.999138 
-0.000223562 0.0132375 -0.999912 
-0.000231609 -0.00597155 -0.999982 
-0.000249338 -0.018953 -0.99982 
-0.000253162 -0.0234033 -0.999726 
-0.000250952 -0.0234139 -0.999726 
-0.000243277 -0.0281401 -0.999604 
-0.000237943 -0.0386414 -0.999253 
-0.000236496 -0.0507305 -0.998712 
-0.000241683 -0.0646092 -0.997911 
-0.000238371 -0.0682353 -0.997669 
-0.000253841 -0.0620487 -0.998073 
-0.000272435 -0.054569 -0.99851 
-0.000273118 -0.0409789 -0.99916 
-0.000281818 -0.0301589 -0.999545 
-0.000286752 -0.0216521 -0.999766 
-0.000263554 -0.0286538 -0.999589 
-0.000287309 -0.0453093 -0.998973 
-0.000238396 -0.0946336 -0.995512 
-0.000357411 -0.0651072 -0.997878 
4.77665e-06 0.000367463 -1 
0.000544017 0.000132158 1 
-0.00416704 -0.0844469 0.996419 
0.0289942 -0.131554 0.990885 
0.0459452 -0.100647 0.993861 
0.0334642 -0.0780712 0.996386 
0.0326501 0.0117733 0.999397 
0.0370822 -0.00968102 0.999265 
0.0391336 -0.0373187 0.998537 
0.0401772 -0.0692323 0.996791 
0.0468897 -0.0710571 0.99637 
0.0319427 -0.0995142 0.994523 
0.018497 -0.0960351 0.995206 
0.0281714 -0.0619413 0.997682 
0.026194 -0.0382026 0.998927 
0.0285162 -0.0242508 0.999299 
0.0294853 -0.0178954 0.999405 
0.0243304 -0.0155567 0.999583 
0.0167212 -0.0111102 0.999798 
0.00744423 0.00082327 0.999972 
-0.000610612 0.0220363 0.999757 
-0.0113514 0.0494629 0.998711 
-0.0235319 0.0794536 0.996561 
-0.0394536 0.114548 0.992634 
-0.0560065 0.151184 0.986918 
-0.0804705 0.188435 0.978783 
-0.0840799 0.218649 0.972175 
-0.0842515 0.248162 0.965048 
-0.113305 0.27896 0.953595 
-0.125459 0.303633 0.944493 
-0.122929 0.320331 0.939296 
-0.192966 0.337655 0.921278 
-0.127589 0.353098 0.926846 
-0.127461 0.393604 0.910401 
-0.0942713 0.458285 0.883792 
-0.0374607 0.560905 0.827033 
-0.0667038 0.617363 0.783845 
-0.0295502 0.724288 0.688864 
-0.0133484 0.84649 0.532237 
-0.0107475 0.96119 0.275677 
0.00196047 0.997426 0.0716732 
0.00349728 0.986531 -0.163539 
0.0124894 0.800714 -0.598916 
0.0469004 0.626218 -0.778236 
0.0859703 0.548485 -0.831729 
0.0648177 0.430971 -0.900035 
0.173133 0.381735 -0.907912 
0.119189 0.358131 -0.926032 
0.18907 0.34151 -0.920665 
0.114861 0.326182 -0.938303 
0.134341 0.311806 -0.940601 
0.0971461 0.285905 -0.953321 
0.111086 0.259804 -0.959251 
0.072833 0.221189 -0.972508 
0.0978158 0.201839 -0.974522 
0.0619816 0.16637 -0.984113 
0.0450052 0.134508 -0.98989 
0.0345615 0.103659 -0.994012 
0.0168927 0.0686318 -0.997499 
0.00557785 0.038402 -0.999247 
-0.00577645 0.0167712 -0.999843 
-0.014666 -0.00309403 -0.999888 
-0.0212907 -0.0165077 -0.999637 
-0.0261409 -0.022876 -0.999396 
-0.0253512 -0.0270572 -0.999312 
-0.0280361 -0.034393 -0.999015 
-0.0303267 -0.044767 -0.998537 
-0.0266834 -0.0557595 -0.998088 
-0.0280041 -0.0610053 -0.997745 
-0.0335222 -0.057043 -0.997809 
-0.0374878 -0.0506456 -0.998013 
-0.0335602 -0.0421713 -0.998547 
-0.0486314 -0.034378 -0.998225 
-0.0308326 -0.0273113 -0.999151 
-0.031049 -0.0265358 -0.999166 
-0.0480405 -0.0446278 -0.997848 
-0.0462048 -0.0644284 -0.996852 
-0.0270624 -0.0751533 -0.996805 
-0.0134358 -0.0563991 -0.998318 
-0.000114131 -0.0002188 -1 
-0.000634815 -0.000189355 1 
5.13106e-05 -0.0466371 0.998912 
0.0468197 -0.0638011 0.996864 
0.0428323 -0.0529676 0.997677 
0.0436174 -0.0315375 0.99855 
0.0291201 -0.00859858 0.999539 
0.0458083 0.00136241 0.998949 
0.0527665 -0.00397032 0.998599 
0.0500525 -0.0243262 0.99845 
0.051303 -0.0448156 0.997677 
0.0392431 -0.0744896 0.996449 
0.0358041 -0.0874867 0.995522 
0.0388751 -0.0666592 0.997018 
0.0331834 -0.0490416 0.998245 
0.0325924 -0.0345162 0.998873 
0.03104 -0.0257353 0.999187 
0.0270252 -0.0183531 0.999466 
0.0213433 -0.00926627 0.999729 
0.0104239 0.00527894 0.999932 
-0.00614292 0.028922 0.999563 
-0.028423 0.059927 0.997798 
-0.0536205 0.0942539 0.994103 
-0.0744828 0.12465 0.989401 
-0.102487 0.160242 0.981743 
-0.133178 0.195781 0.971562 
-0.16352 0.23124 0.959056 
-0.182396 0.255847 0.949355 
-0.177154 0.277987 0.944108 
-0.253104 0.314982 0.914726 
-0.244075 0.323689 0.914141 
-0.260363 0.336965 0.904801 
-0.305113 0.35996 0.881666 
-0.231994 0.3671 0.900787 
-0.260486 0.387798 0.884172 
-0.207175 0.444676 0.871402 
-0.125101 0.519757 0.845105 
-0.0682665 0.701406 0.709486 
-0.0479496 0.811452 0.582449 
-0.03067 0.903641 0.427192 
-0.00176934 0.994569 0.104065 
0.00622369 0.906932 -0.42123 
0.0285068 0.818851 -0.573297 
0.0416055 0.732602 -0.679385 
0.11747 0.467913 -0.875933 
0.177837 0.420955 -0.889478 
0.330808 0.374051 -0.866402 
0.293126 0.361385 -0.885143 
0.294062 0.35004 -0.889382 
0.19912 0.32571 -0.924264 
0.233229 0.317208 -0.91923 
0.222421 0.305575 -0.925826 
0.232709 0.295423 -0.926592 
0.162116 0.251518 -0.954179 
0.187866 0.248106 -0.950342 
0.140072 0.20532 -0.968619 
0.108938 0.170715 -0.97928 
0.0847525 0.140085 -0.986506 
0.0510616 0.100546 -0.993621 
0.0263918 0.0661976 -0.997457 
0.0120362 0.0433531 -0.998987 
-0.00253202 0.0172191 -0.999849 
-0.0152644 -0.00388291 -0.999876 
-0.0248492 -0.0172318 -0.999543 
-0.030819 -0.0251327 -0.999209 
-0.0332708 -0.0310023 -0.998965 
-0.0343263 -0.038309 -0.998676 
-0.0350392 -0.0466524 -0.998296 
-0.0368255 -0.0534728 -0.99789 
-0.0380255 -0.0541461 -0.997809 
-0.0414093 -0.0499099 -0.997895 
-0.0450873 -0.0446271 -0.997986 
-0.0509345 -0.0329985 -0.998157 
-0.0553096 -0.0246265 -0.998166 
-0.0402468 -0.0210825 -0.998967 
-0.0552521 -0.0313232 -0.997981 
-0.0572765 -0.0507033 -0.99707 
-0.0512972 -0.0612231 -0.996805 
-0.022275 -0.0505633 -0.998472 
0.000792647 -0.000231069 -1 
0.000403198 0.000119821 1 
0.0351184 -0.0729806 0.996715 
0.015546 -0.0533863 0.998453 
0.0337187 -0.0373356 0.998734 
0.0278056 -0.0197258 0.999419 
0.0473618 -0.0101146 0.998827 
0.0408912 -0.00618822 0.999144 
0.0415059 -0.0242307 0.998844 
0.0342794 -0.0448548 0.998405 
0.036235 -0.0587879 0.997613 
0.0305295 -0.0633285 0.997526 
0.0330103 -0.0640542 0.9974 
0.0256051 -0.0548573 0.998166 
0.0208038 -0.0419418 0.998903 
0.0198133 -0.032798 0.999266 
0.0167057 -0.0238493 0.999576 
0.0117956 -0.0110351 0.99987 
0.000966803 0.00782277 0.999969 
-0.0160344 0.0341857 0.999287 
-0.0409623 0.0676352 0.996869 
-0.0722185 0.106773 0.991657 
-0.105372 0.147788 0.98339 
-0.133952 0.179605 0.974576 
-0.175488 0.221985 0.959128 
-0.213288 0.255166 0.943079 
-0.266265 0.29519 0.917587 
-0.290735 0.310836 0.904906 
-0.282333 0.313856 0.906522 
-0.378558 0.361615 0.852015 
-0.395696 0.369005 0.840987 
-0.382192 0.366448 0.848319 
-0.381669 0.367842 0.847951 
-0.428954 0.378247 0.820322 
-0.432023 0.376342 0.819587 
-0.341208 0.399369 0.85093 
-0.239616 0.511248 0.825354 
-0.146999 0.5933 0.791446 
-0.0707835 0.830716 0.552178 
-0.0177155 0.966713 0.255251 
0.00951605 0.99255 -0.121464 
0.0160987 0.923117 -0.384182 
0.04487 0.817495 -0.574185 
0.117664 0.611154 -0.782717 
0.281048 0.425833 -0.860046 
0.298914 0.398755 -0.866975 
0.492612 0.374544 -0.785525 
0.439638 0.371175 -0.817892 
0.356251 0.357498 -0.863296 
0.350308 0.354324 -0.867029 
0.38448 0.365509 -0.84769 
0.356738 0.354915 -0.86416 
0.295672 0.319083 -0.900424 
0.28534 0.310182 -0.906845 
0.238753 0.278144 -0.930394 
0.201909 0.249807 -0.947011 
0.157269 0.20999 -0.964972 
0.131716 0.183133 -0.974224 
0.090407 0.136091 -0.986563 
0.0591087 0.0961142 -0.993614 
0.0341204 0.060973 -0.997556 
0.0148742 0.0308979 -0.999412 
-0.00294803 0.0032984 -0.99999 
-0.0143533 -0.0158938 -0.999771 
-0.020038 -0.0257568 -0.999467 
-0.0223777 -0.0320054 -0.999237 
-0.0234164 -0.0382869 -0.998992 
-0.0253619 -0.0443227 -0.998695 
-0.0293378 -0.0500489 -0.998316 
-0.0296964 -0.0505765 -0.998279 
-0.031365 -0.0472935 -0.998388 
-0.0399984 -0.0412335 -0.998349 
-0.0409496 -0.0276242 -0.998779 
-0.0498114 -0.0227828 -0.998499 
-0.0540999 -0.0232507 -0.998265 
-0.0435418 -0.0248183 -0.998743 
-0.0509786 -0.0344981 -0.998104 
-0.0358551 -0.0465734 -0.998271 
-0.0201674 -0.0446151 -0.998801 
0.000435152 4.18848e-05 -1 
-3.86429e-05 -0.000104733 1 
0.0030307 -0.0385407 0.999252 
0.0182393 -0.0502905 0.998568 
0.00797548 -0.0367784 0.999292 
0.0156526 -0.0173054 0.999728 
0.0331124 -0.0145004 0.999346 
0.0256337 -0.0137751 0.999576 
0.0300685 -0.0260262 0.999209 
0.0264253 -0.04082 0.998817 
0.0274116 -0.0519721 0.998272 
0.0258029 -0.0577234 0.997999 
0.0175389 -0.0534351 0.998417 
0.0168674 -0.0526976 0.998468 
0.0134733 -0.0441239 0.998935 
0.0112293 -0.0367549 0.999261 
0.00854606 -0.0282038 0.999566 
0.00396239 -0.0132724 0.999904 
-0.00780779 0.0110357 0.999909 
-0.0257936 0.0422394 0.998775 
-0.0497508 0.0788707 0.995643 
-0.0788869 0.121133 0.989497 
-0.114408 0.168285 0.979077 
-0.157021 0.218273 0.963173 
-0.195828 0.254579 0.947017 
-0.247001 0.301462 0.92093 
-0.294169 0.336132 0.894695 
-0.357011 0.373246 0.856289 
-0.404192 0.396327 0.824351 
-0.387017 0.369167 0.844946 
-0.506454 0.430008 0.747394 
-0.509504 0.417693 0.752288 
-0.517002 0.412176 0.750213 
-0.494949 0.396302 0.773286 
-0.575214 0.404168 0.711181 
-0.429024 0.382328 0.818391 
-0.366337 0.438598 0.820627 
-0.223035 0.601278 0.767281 
-0.117318 0.690617 0.713642 
-0.0651173 0.885527 0.460001 
0.013759 0.980752 -0.194774 
0.0249087 0.922346 -0.385561 
0.104469 0.697223 -0.709201 
0.181465 0.542749 -0.820057 
0.47728 0.40259 -0.781105 
0.471291 0.38675 -0.79266 
0.602308 0.404026 -0.688468 
0.484656 0.386528 -0.784668 
0.501416 0.400977 -0.766681 
0.468772 0.396693 -0.789232 
0.500349 0.431489 -0.750645 
0.397753 0.382013 -0.834182 
0.413092 0.406536 -0.814913 
0.340287 0.361284 -0.868147 
0.315656 0.359205 -0.878256 
0.264399 0.323992 -0.908362 
0.21147 0.27997 -0.936428 
0.173666 0.246475 -0.953462 
0.12628 0.188728 -0.973876 
0.0881647 0.136979 -0.986643 
0.0611043 0.0995928 -0.99315 
0.0367475 0.0620107 -0.997399 
0.0160593 0.0257125 -0.99954 
0.0016051 -0.00276389 -0.999995 
-0.00631616 -0.0194475 -0.999791 
-0.00976292 -0.0279352 -0.999562 
-0.012687 -0.0330818 -0.999372 
-0.0144581 -0.0373466 -0.999198 
-0.0173118 -0.0424734 -0.998948 
-0.0204881 -0.0467043 -0.998699 
-0.0210804 -0.0467451 -0.998684 
-0.0221803 -0.0459358 -0.998698 
-0.0297631 -0.0405508 -0.998734 
-0.0291092 -0.0282251 -0.999178 
-0.0318659 -0.0206703 -0.999278 
-0.0269453 -0.0246205 -0.999334 
-0.0293272 -0.0375457 -0.998864 
-0.0153992 -0.0486369 -0.998698 
-0.0157566 -0.042138 -0.998988 
0.000376832 -0.000105377 -1 
0.00054359 -9.83329e-05 1 
0.00168667 -0.0274808 0.999621 
0.00315611 -0.0384987 0.999254 
-0.00296796 -0.0469788 0.998891 
0.00554005 -0.0251543 0.999668 
0.0066506 -0.0171006 0.999832 
0.0134765 -0.0220337 0.999666 
0.0187782 -0.0353597 0.999198 
0.0237057 -0.0483822 0.998548 
0.0229707 -0.0510133 0.998434 
0.0201785 -0.0514695 0.998471 
0.014393 -0.0449429 0.998886 
0.01074 -0.0421418 0.999054 
0.00759172 -0.0379054 0.999252 
0.00417897 -0.0300557 0.999539 
0.000663861 -0.0172213 0.999851 
-0.00773807 0.00518749 0.999957 
-0.0217936 0.0371972 0.99907 
-0.0412828 0.0758424 0.996265 
-0.0660755 0.120417 0.990522 
-0.097609 0.170563 0.9805 
-0.135198 0.223148 0.965364 
-0.180244 0.277223 0.943747 
-0.229742 0.329515 0.915772 
-0.277588 0.369439 0.886825 
-0.337943 0.420227 0.842143 
-0.382895 0.429682 0.81778 
-0.459692 0.487032 0.74262 
-0.50391 0.48829 0.712494 
-0.479373 0.435114 0.762153 
-0.599121 0.487589 0.635068 
-0.608379 0.467031 0.641683 
-0.575269 0.428093 0.696995 
-0.65351 0.440127 0.615802 
-0.622227 0.397761 0.674255 
-0.568582 0.38383 0.727591 
-0.347758 0.522808 0.77829 
-0.376274 0.532438 0.75824 
-0.0254907 0.964821 0.261669 
-0.0081017 0.990838 0.134809 
0.0230392 0.938023 -0.345807 
0.200119 0.614862 -0.762822 
0.435343 0.415145 -0.798831 
0.628851 0.397328 -0.668339 
0.671137 0.401848 -0.622971 
0.616557 0.428693 -0.660363 
0.605076 0.44608 -0.659466 
0.57216 0.454829 -0.682469 
0.601518 0.500805 -0.622392 
0.500588 0.458311 -0.734413 
0.511432 0.505288 -0.695069 
0.431724 0.456613 -0.777894 
0.399205 0.461494 -0.792249 
0.341739 0.429535 -0.835891 
0.279845 0.379232 -0.881969 
0.22575 0.34086 -0.912607 
0.167465 0.270464 -0.948053 
0.126337 0.216749 -0.968018 
0.0927206 0.163418 -0.98219 
0.0636022 0.118432 -0.990923 
0.0375206 0.070842 -0.996782 
0.0179194 0.0282451 -0.99944 
0.00524502 -0.00132875 -0.999985 
-0.00225429 -0.0189291 -0.999818 
-0.00584356 -0.0270578 -0.999617 
-0.00853489 -0.0311914 -0.999477 
-0.0109905 -0.0341211 -0.999357 
-0.0134501 -0.0379544 -0.999189 
-0.0160724 -0.041749 -0.998999 
-0.017994 -0.0433999 -0.998896 
-0.0193263 -0.0442266 -0.998835 
-0.020846 -0.0373552 -0.999085 
-0.0193008 -0.0268352 -0.999454 
-0.0201838 -0.0202555 -0.999591 
-0.0131154 -0.0272672 -0.999542 
-0.0124876 -0.0421027 -0.999035 
-0.00249522 -0.047526 -0.998867 
-0.00927712 -0.0258149 -0.999624 
-0.000358682 -8.15776e-05 -1 
0.000854957 -0.000209793 1 
-0.00685734 -0.0226577 0.99972 
-0.00958712 -0.0360857 0.999303 
-0.0142124 -0.0326448 0.999366 
-0.00296287 -0.0208357 0.999779 
0.0017422 -0.0206705 0.999785 
0.013015 -0.0307176 0.999443 
0.0194652 -0.0419052 0.998932 
0.0220341 -0.0463502 0.998682 
0.0236229 -0.0482473 0.998556 
0.0207734 -0.0472912 0.998665 
0.0171126 -0.044144 0.998879 
0.0130083 -0.0382791 0.999182 
0.00994931 -0.0361911 0.999295 
0.00692339 -0.0313401 0.999485 
0.00309988 -0.0185531 0.999823 
-0.00358653 0.00220288 0.999991 
-0.0146665 0.03477 0.999288 
-0.0323289 0.078809 0.996365 
-0.0559694 0.131087 0.98979 
-0.0858231 0.186861 0.97863 
-0.125046 0.248641 0.96049 
-0.17152 0.315187 0.933401 
-0.220161 0.376396 0.89992 
-0.270515 0.434184 0.859247 
-0.329644 0.478439 0.813898 
-0.402289 0.543114 0.737015 
-0.443216 0.534159 0.719884 
-0.53175 0.587051 0.61042 
-0.580643 0.577253 0.574136 
-0.565384 0.505144 0.652051 
-0.67404 0.538814 0.505321 
-0.700452 0.533591 0.473969 
-0.659958 0.483805 0.574794 
-0.753702 0.477997 0.451057 
-0.755899 0.421057 0.501327 
-0.488993 0.422922 0.762904 
-0.28576 0.627476 0.724303 
-0.15152 0.703454 0.694402 
0.00865118 0.992589 -0.121211 
0.068033 0.784429 -0.616476 
0.24809 0.456948 -0.854195 
0.654138 0.39612 -0.644354 
0.73309 0.434978 -0.522851 
0.727243 0.469877 -0.500333 
0.689635 0.477674 -0.544271 
0.666747 0.50439 -0.548671 
0.674534 0.553132 -0.488926 
0.582628 0.530278 -0.615914 
0.578035 0.595023 -0.558411 
0.501667 0.555178 -0.663405 
0.453299 0.56365 -0.690521 
0.391985 0.534464 -0.748797 
0.329597 0.488139 -0.808137 
0.265725 0.425284 -0.865173 
0.2281 0.436106 -0.870506 
0.194249 0.343585 -0.918813 
0.140535 0.279543 -0.949792 
0.101032 0.214421 -0.971502 
0.0708092 0.162529 -0.98416 
0.0457609 0.108442 -0.993049 
0.0234045 0.0552851 -0.998196 
0.00822588 0.0160198 -0.999838 
-0.00114518 -0.0100766 -0.999949 
-0.0059277 -0.0226572 -0.999726 
-0.00824866 -0.0275574 -0.999586 
-0.0102568 -0.0297452 -0.999505 
-0.0128402 -0.0323815 -0.999393 
-0.015762 -0.0359226 -0.99923 
-0.0184151 -0.0401018 -0.999026 
-0.0190854 -0.0420608 -0.998933 
-0.0171838 -0.0371411 -0.999162 
-0.0113397 -0.0268783 -0.999574 
-0.00803457 -0.0195619 -0.999776 
-9.39679e-05 -0.0212209 -0.999775 
0.00254376 -0.0348579 -0.999389 
0.0106426 -0.0411456 -0.999096 
0.000900634 -0.0320007 -0.999487 
-0.000235666 -7.69338e-05 -1 
-0.000167962 7.30105e-05 1 
-0.0082197 -0.0398751 0.999171 
-0.0143153 -0.048686 0.998712 
-0.0189337 -0.0417721 0.998948 
-0.00571284 -0.0238367 0.9997 
0.0078779 -0.028083 0.999575 
0.0179638 -0.0386773 0.99909 
0.022865 -0.0457511 0.998691 
0.0235128 -0.046953 0.99862 
0.0204931 -0.0428186 0.998873 
0.0191755 -0.0411362 0.99897 
0.0155375 -0.03749 0.999176 
0.0094163 -0.0319419 0.999445 
0.00813793 -0.0303554 0.999506 
0.00608418 -0.0247085 0.999676 
0.000776301 -0.00711065 0.999974 
-0.00693251 0.0206644 0.999762 
-0.0195903 0.0610637 0.997942 
-0.0387178 0.113845 0.992744 
-0.0633301 0.175157 0.982502 
-0.0935788 0.237718 0.966816 
-0.13138 0.303034 0.94388 
-0.175951 0.379036 0.908501 
-0.221359 0.443542 0.868488 
-0.270362 0.513764 0.814218 
-0.324215 0.549608 0.769945 
-0.386687 0.598276 0.701811 
-0.451176 0.668439 0.591294 
-0.500279 0.634493 0.589186 
-0.573671 0.693155 0.436392 
-0.635079 0.64906 0.418804 
-0.62238 0.555618 0.551299 
-0.744741 0.5862 0.318951 
-0.756233 0.550406 0.353787 
-0.70768 0.487612 0.511295 
-0.785785 0.529263 0.320036 
-0.70029 0.42674 0.572265 
-0.511698 0.361896 0.779228 
-0.149736 0.732272 0.664347 
0.00520377 0.993774 0.111291 
0.0316796 0.841671 -0.539061 
0.331429 0.425809 -0.841927 
0.803455 0.393618 -0.446683 
0.785135 0.507054 -0.355612 
0.76 0.526921 -0.380466 
0.726203 0.532488 -0.434841 
0.723506 0.583137 -0.369445 
0.637046 0.585216 -0.501691 
0.622001 0.6617 -0.418651 
0.552348 0.652529 -0.518764 
0.490255 0.653301 -0.57693 
0.427507 0.633772 -0.644648 
0.361529 0.59594 -0.717044 
0.29512 0.522359 -0.800028 
0.254836 0.537046 -0.80414 
0.200795 0.451429 -0.869421 
0.17016 0.359664 -0.917435 
0.122575 0.296067 -0.947269 
0.0897851 0.234711 -0.96791 
0.060106 0.170756 -0.983478 
0.0360768 0.10572 -0.993741 
0.0177898 0.0539632 -0.998384 
0.00504116 0.0133917 -0.999898 
-0.00227898 -0.0118063 -0.999928 
-0.00598159 -0.0234284 -0.999708 
-0.00740916 -0.0259118 -0.999637 
-0.00934134 -0.0271562 -0.999588 
-0.0107044 -0.0291282 -0.999518 
-0.0137434 -0.0332653 -0.999352 
-0.016413 -0.0388825 -0.999109 
-0.0172197 -0.0409222 -0.999014 
-0.0160539 -0.0375299 -0.999167 
-0.0114379 -0.0326488 -0.999401 
-0.00459437 -0.0234455 -0.999715 
0.00252431 -0.0227847 -0.999737 
0.00774221 -0.0326826 -0.999436 
0.0158883 -0.0439248 -0.998908 
0.0042453 -0.0330178 -0.999446 
-0.000194654 -0.000114083 -1 
-0.000396676 -4.91626e-05 1 
-0.000502246 -0.042075 0.999114 
-0.0173708 -0.0497493 0.998611 
-0.0109233 -0.0346939 0.999338 
-0.00257061 -0.0279284 0.999607 
0.00538482 -0.0274161 0.99961 
0.0146903 -0.0363994 0.999229 
0.0178534 -0.0417541 0.998968 
0.0188088 -0.0424583 0.998921 
0.01279 -0.0364446 0.999254 
0.0108617 -0.033603 0.999376 
0.00933614 -0.0314027 0.999463 
0.00331191 -0.0278895 0.999606 
0.00328241 -0.0277052 0.999611 
0.00219009 -0.0227276 0.999739 
-0.00263692 -0.00506563 0.999984 
-0.0102837 0.0281442 0.999551 
-0.0214928 0.0712085 0.99723 
-0.0372531 0.124459 0.991525 
-0.0587208 0.190222 0.979983 