# vtk DataFile Version 3.0 
Exported using Morpho https://github.com/Morpho-lang/morpho 
ASCII 
DATASET UNSTRUCTURED_GRID 

POINTS 1978 float 
-11.9989 -3.99893 -1.82395e-08 
-11.6332 -3.99942 -2.83789e-05 
-11.3504 -3.99878 -1.70665e-05 
-11.0072 -3.999 -1.67276e-05 
-10.66 -3.99894 -1.14237e-05 
-10.3277 -3.99876 -6.50809e-06 
-9.99342 -3.99886 -6.46744e-06 
-9.67861 -3.99886 -4.26138e-06 
-9.34514 -3.99873 -3.44493e-06 
-9.00598 -3.99881 1.98528e-07 
-8.68712 -3.99893 -1.0407e-06 
-8.3791 -3.9989 -1.26547e-06 
-8.07122 -3.99884 -9.20234e-07 
-7.75889 -3.99888 -3.12192e-07 
-7.46439 -3.99886 -2.62482e-07 
-7.18601 -3.99904 9.75071e-08 
-6.90847 -3.9989 7.30152e-07 
-6.5977 -3.99888 1.32179e-06 
-6.29776 -3.9989 1.68986e-06 
-6.00006 -3.99889 2.1493e-06 
-5.69833 -3.99894 2.45938e-06 
-5.40614 -3.99896 3.01318e-06 
-5.11422 -3.99891 4.15133e-06 
-4.80964 -3.99902 5.72408e-06 
-4.5041 -3.99897 8.1519e-06 
-4.20136 -3.99899 1.04666e-05 
-3.89043 -3.99908 1.43149e-05 
-3.58146 -3.99925 2.0535e-05 
-3.27651 -3.99918 2.38584e-05 
-2.98668 -3.99967 3.02315e-05 
-2.69632 -3.99942 3.63973e-05 
-2.42099 -3.99986 3.92544e-05 
-2.14983 -3.99982 3.96147e-05 
-1.87096 -4.00012 3.30719e-05 
-1.58345 -3.9997 1.91114e-05 
-1.30093 -3.99892 -1.01917e-05 
-1.01588 -3.99804 -2.031e-05 
-0.72254 -3.99514 1.23675e-05 
-0.396956 -3.99204 6.73802e-05 
-0.0370969 -3.98791 -0.000280491 
0.428207 -3.99096 1.72065e-05 
0.727432 -3.99538 1.02912e-06 
1.0114 -3.99778 6.37301e-06 
1.30753 -3.99897 3.17225e-05 
1.55591 -3.9995 -3.00966e-05 
1.85778 -3.99988 -2.84542e-05 
2.11445 -4.00005 -3.4141e-05 
2.36949 -3.99975 -4.39193e-05 
2.70889 -3.99963 -3.83051e-05 
2.99014 -3.99956 -3.04796e-05 
3.30209 -3.99921 -2.51697e-05 
3.59148 -3.99918 -1.98296e-05 
3.9002 -3.99915 -1.32557e-05 
4.20546 -3.99906 -1.06362e-05 
4.50174 -3.99897 -8.46007e-06 
4.8092 -3.99899 -5.77166e-06 
5.1081 -3.9989 -3.96584e-06 
5.40842 -3.99894 -3.18912e-06 
5.70389 -3.99888 -2.46203e-06 
5.98895 -3.99907 -2.20085e-06 
6.28788 -3.99891 -1.45133e-06 
6.5712 -3.99897 -1.63393e-06 
6.87281 -3.99886 -6.91731e-07 
7.16559 -3.99887 -3.98003e-07 
7.46292 -3.99887 -1.86775e-07 
7.7614 -3.99888 6.97027e-07 
8.06558 -3.9989 4.24004e-07 
8.36085 -3.99896 1.83787e-06 
8.6633 -3.99885 9.79395e-07 
8.96481 -3.9989 -3.19727e-07 
9.2741 -3.99879 2.97648e-06 
9.63732 -3.99879 4.08801e-06 
9.93062 -3.9988 5.44947e-06 
10.3038 -3.99881 7.59654e-06 
10.6307 -3.9988 1.15089e-05 
11.0031 -3.99898 1.64882e-05 
11.3323 -3.99887 1.74513e-05 
11.6177 -3.99939 2.6732e-05 
11.9989 -3.99884 1.23897e-07 
-11.9994 -3.62416 2.98816e-05 
-11.7075 -3.69497 3.65631e-07 
-11.3733 -3.60397 -2.90873e-06 
-11.0804 -3.67461 4.52608e-07 
-10.7376 -3.68156 8.29887e-07 
-10.3939 -3.66888 -1.13594e-06 
-10.0579 -3.67402 6.65597e-07 
-9.72598 -3.65816 -5.08492e-07 
-9.40656 -3.67916 4.05757e-07 
-9.06946 -3.6869 3.18595e-07 
-8.73254 -3.67064 8.88888e-08 
-8.41436 -3.66212 -2.32387e-07 
-8.10439 -3.66377 -5.00443e-07 
-7.79411 -3.6711 -7.12e-07 
-7.48267 -3.65371 -7.09837e-07 
-7.18787 -3.63762 -1.31362e-07 
-6.8769 -3.67915 1.68669e-07 
-6.57221 -3.6701 -6.96363e-07 
-6.27104 -3.66881 2.17049e-08 
-5.96606 -3.67436 9.78992e-09 
-5.66972 -3.6642 3.34309e-08 
-5.37445 -3.66382 1.34312e-07 
-5.0678 -3.67763 -6.07991e-07 
-4.75875 -3.67922 3.79433e-07 
-4.45078 -3.67466 2.01418e-07 
-4.13647 -3.68252 -5.3205e-07 
-3.82261 -3.6806 4.21729e-07 
-3.51411 -3.67625 3.6375e-07 
-3.21675 -3.65835 1.08757e-06 
-2.92914 -3.6585 7.61537e-07 
-2.64772 -3.63802 2.88582e-06 
-2.37622 -3.6334 8.05089e-06 
-2.10012 -3.64161 2.05155e-06 
-1.82104 -3.65144 3.89572e-06 
-1.54257 -3.64064 1.73373e-06 
-1.26061 -3.64081 -2.10601e-05 
-0.980756 -3.64856 -8.20948e-05 
-0.671186 -3.67429 -0.000174109 
-0.34329 -3.69425 -0.000246942 
-0.00605347 -3.67482 0.000184199 
0.315778 -3.75967 0.000317344 
0.68642 -3.64823 0.000211651 
0.980682 -3.63579 -2.82831e-05 
1.26362 -3.65057 2.24279e-05 
1.55265 -3.58369 1.05696e-05 
1.80558 -3.66281 -1.32551e-05 
2.10082 -3.60928 -9.2872e-06 
2.42851 -3.70949 -1.70696e-06 
2.7155 -3.65035 -2.32849e-06 
3.02614 -3.68518 -2.60624e-06 
3.32233 -3.65906 1.03623e-07 
3.63318 -3.68148 -6.59037e-07 
3.94289 -3.67784 -5.52367e-07 
4.2437 -3.66606 7.0994e-07 
4.55298 -3.67647 7.2713e-07 
4.85618 -3.66706 2.48095e-08 
5.16059 -3.66919 -2.28919e-07 
5.46125 -3.66597 2.00621e-07 
5.754 -3.65589 -1.96604e-08 
6.05157 -3.67323 3.93448e-07 
6.34095 -3.65396 -1.04487e-07 
6.6388 -3.67246 4.28872e-07 
6.93479 -3.65921 -6.70956e-08 
7.23315 -3.66174 1.52554e-07 
7.53336 -3.65963 5.6541e-07 
7.83798 -3.66348 6.64947e-07 
8.13752 -3.65146 6.2405e-07 
8.43869 -3.65626 -4.35478e-07 
8.74229 -3.65178 1.7326e-08 
9.0501 -3.65837 -2.19281e-07 
9.39413 -3.70701 -5.41864e-07 
9.70101 -3.63322 2.67621e-07 
10.0461 -3.70995 1.33694e-06 
10.384 -3.66535 -9.61026e-07 
10.7434 -3.70425 -1.36917e-06 
11.0811 -3.66283 5.24939e-07 
11.3774 -3.60968 1.1406e-06 
11.7162 -3.70774 1.98173e-06 
11.9993 -3.61022 -3.08339e-05 
-11.9988 -3.32285 1.86196e-05 
-11.6345 -3.33982 2.71623e-06 
-11.2916 -3.25163 -1.76937e-06 
-10.981 -3.35113 2.28847e-06 
-10.6633 -3.33391 -5.28876e-07 
-10.3475 -3.3447 -9.38234e-07 
-10.0232 -3.33781 6.32741e-07 
-9.69797 -3.32986 3.63644e-07 
-9.37236 -3.34478 6.32057e-07 
-9.05634 -3.37123 -3.50077e-07 
-8.76027 -3.31892 5.70657e-07 
-8.46233 -3.3327 3.14181e-07 
-8.14868 -3.32818 9.56295e-08 
-7.83905 -3.33825 -6.03099e-07 
-7.53221 -3.32833 8.27502e-08 
-7.22424 -3.29704 1.57208e-07 
-6.92398 -3.34995 1.03521e-07 
-6.6221 -3.3448 1.49668e-08 
-6.31797 -3.34055 -4.59465e-07 
-6.01526 -3.35123 -3.2128e-07 
-5.71209 -3.33419 8.30813e-08 
-5.4132 -3.33104 1.40772e-07 
-5.11402 -3.35495 4.0001e-07 
-4.8067 -3.35949 -3.2428e-07 
-4.49812 -3.35435 -5.82167e-07 
-4.18505 -3.36532 -3.12621e-07 
-3.87034 -3.36454 1.26906e-06 
-3.55643 -3.3533 -9.2316e-07 
-3.25201 -3.32875 -5.14824e-07 
-2.94976 -3.30943 1.06998e-06 
-2.6337 -3.3196 2.06375e-06 
-2.31641 -3.26557 1.84586e-06 
-2.04615 -3.28324 6.4665e-06 
-1.77241 -3.28893 8.42142e-06 
-1.48201 -3.28932 1.9484e-05 
-1.20117 -3.27833 3.065e-05 
-0.899171 -3.3316 1.05589e-05 
-0.58647 -3.36007 4.21739e-05 
-0.252074 -3.39175 0.000292849 
0.0799748 -3.35254 -0.000599761 
0.37352 -3.45949 0.000197023 
0.661437 -3.30647 7.28223e-06 
0.92988 -3.26538 6.62196e-05 
1.20532 -3.28425 -1.37342e-05 
1.47897 -3.24433 -3.16694e-05 
1.78899 -3.25379 -6.01171e-06 
2.04251 -3.27461 -1.58692e-06 
2.36356 -3.3834 -4.92562e-06 
2.65575 -3.31379 -3.50462e-06 
2.95826 -3.35626 -2.48464e-07 
3.25229 -3.3316 7.62946e-07 
3.56522 -3.35759 -2.61173e-07 
3.87217 -3.35893 2.19245e-07 
4.17893 -3.33761 -2.62772e-09 
4.48541 -3.35178 3.06981e-07 
4.79279 -3.33942 2.14252e-08 
5.10043 -3.34213 -2.26922e-07 
5.40608 -3.337 -3.58231e-08 
5.70561 -3.32219 2.58177e-07 
6.006 -3.33847 -2.32921e-07 
6.3094 -3.3309 1.516e-08 
6.61625 -3.33941 1.22331e-07 
6.92319 -3.3344 1.85308e-07 
7.22969 -3.32748 -1.41672e-07 
7.53189 -3.32366 1.24688e-07 
7.8361 -3.3289 5.18279e-07 
8.1432 -3.30821 2.63183e-07 
8.44725 -3.31433 -1.32279e-07 
8.75551 -3.3113 -3.59032e-07 
9.09863 -3.35732 2.75593e-08 
9.4037 -3.35753 -8.35277e-07 
9.7144 -3.28394 -2.30914e-07 
10.0186 -3.39147 -3.71774e-08 
10.3132 -3.3134 -5.26955e-07 
10.6383 -3.3878 1.94235e-06 
10.9721 -3.34812 -8.09299e-07 
11.2907 -3.25684 -8.84254e-08 
11.6314 -3.35256 4.14571e-07 
11.9988 -3.31088 -1.96439e-05 
-11.999 -3.00823 1.64717e-05 
-11.6521 -3.02821 -3.02596e-06 
-11.3164 -2.93122 2.83676e-06 
-10.9669 -3.00183 -2.26821e-06 
-10.6447 -2.99073 3.24507e-07 
-10.3212 -3.00821 1.0366e-06 
-9.9918 -3.00676 -5.22719e-07 
-9.6638 -3.00216 -1.66679e-07 
-9.34455 -3.01106 7.21526e-07 
-9.0472 -3.01485 2.88055e-07 
-8.74814 -2.96809 -5.67708e-07 
-8.43827 -3.00017 4.88573e-07 
-8.12546 -2.99664 -3.80774e-07 
-7.81797 -3.00575 -7.10112e-07 
-7.51503 -2.99264 -6.48573e-08 
-7.21327 -2.96998 2.85757e-07 
-6.90856 -3.01889 -3.70584e-07 
-6.60893 -3.01266 -1.9719e-07 
-6.31259 -3.01553 -1.7517e-07 
-6.00934 -3.02759 5.80995e-08 
-5.70981 -3.00638 6.20972e-08 
-5.41123 -3.00273 -3.70234e-07 
-5.11492 -3.02296 -8.88141e-08 
-4.81932 -3.03836 2.32811e-07 
-4.50592 -3.03663 2.51523e-07 
-4.20663 -3.03221 -3.63118e-07 
-3.90536 -3.04785 -1.14907e-06 
-3.5912 -3.03399 1.887e-06 
-3.28101 -3.00163 -9.85645e-07 
-2.96395 -2.99188 -3.21531e-07 
-2.64907 -2.99794 1.61011e-06 
-2.33527 -2.95105 3.60842e-06 
-2.02095 -2.91298 2.17879e-06 
-1.72846 -2.94705 1.14508e-05 
-1.46204 -2.90649 2.69129e-06 
-1.20233 -2.92049 3.70321e-05 
-0.914931 -2.99544 0.00014161 
-0.616411 -3.03377 -5.59737e-05 
-0.29035 -3.08694 -0.000298896 
0.0377207 -3.04002 0.00048666 
0.37519 -3.10321 -0.000320979 
0.637665 -2.93445 8.01736e-05 
0.917115 -2.90296 -0.000146588 
1.19369 -2.91201 -1.49391e-05 
1.46076 -2.86309 -2.36093e-05 
1.7374 -2.92456 -1.39622e-05 
2.04643 -2.87515 -6.62575e-06 
2.30194 -3.04761 -1.87066e-06 
2.59168 -2.98404 -2.00968e-06 
2.9046 -3.01957 4.68624e-07 
3.22028 -3.01464 5.92073e-07 
3.5409 -3.04123 -8.36745e-07 
3.86076 -3.03419 1.89517e-08 
4.1651 -3.0101 3.9911e-07 
4.47621 -3.02679 -2.73619e-08 
4.78616 -3.01418 1.08861e-07 
5.09579 -3.01792 6.0906e-08 
5.39822 -3.0081 -3.57946e-07 
5.70343 -2.99965 9.41852e-08 
6.00811 -3.01301 3.27656e-07 
6.30365 -2.99912 5.27524e-07 
6.6009 -3.01787 3.92288e-07 
6.90391 -3.00948 -1.50779e-07 
7.20361 -2.99553 -2.07197e-07 
7.50576 -2.99086 -3.98743e-08 
7.81305 -2.99756 4.00902e-07 
8.11265 -2.96904 1.29318e-07 
8.41866 -2.97636 -2.41108e-07 
8.72408 -2.97393 3.35429e-07 
9.04119 -3.04159 3.22727e-08 
9.36884 -3.00977 -7.47873e-07 
9.66821 -2.95025 -2.69704e-07 
10.0021 -3.02972 -8.40208e-08 
10.3365 -2.98356 2.4751e-07 
10.6601 -3.05724 -4.66851e-07 
10.9794 -3.00249 5.9173e-08 
11.3297 -2.93945 3.11167e-07 
11.6645 -3.04189 -6.22612e-07 
11.9989 -2.98291 -1.48582e-05 
-11.9985 -2.66084 1.26167e-05 
-11.688 -2.71045 -1.23713e-06 
-11.3544 -2.61457 -1.90957e-07 
-11.0011 -2.68087 5.83549e-07 
-10.6621 -2.65432 5.5966e-08 
[...]
POINT_DATA 1978 
VECTORS vectors float
0.0546918 -0.076508 0.995949 
0.0583826 -0.0517628 0.997615 
0.0606406 -0.0392507 0.998085 
0.0632134 -0.0272066 0.998289 
0.0642017 -0.0193291 0.99835 
0.0650835 -0.0144549 0.998349 
0.065719 -0.0103159 0.998377 
0.066148 -0.00808744 0.998357 
0.0667292 -0.00666646 0.99831 
0.0664726 -0.00590237 0.998358 
0.0658822 -0.00348376 0.998404 
0.0661955 -0.000953633 0.998372 
0.0665957 0.000803408 0.998356 
0.0668785 0.00189344 0.998328 
0.067179 0.00246541 0.998301 
0.0676697 0.00252342 0.998055 
0.0674437 0.00236056 0.998252 
0.0673486 0.00239941 0.99826 
0.0670799 0.00272874 0.998279 
0.0667948 0.00345505 0.998298 
0.0665389 0.00473838 0.998308 
0.0663236 0.00648838 0.998314 
0.0660953 0.0086951 0.998324 
0.0656438 0.0116167 0.998313 
0.0649705 0.0155854 0.998299 
0.063905 0.0213929 0.998281 
0.0629147 0.0295114 0.998146 
0.0611701 0.0401103 0.997879 
0.0582634 0.055898 0.997323 
0.0551748 0.0766032 0.996123 
0.0507949 0.104387 0.993843 
0.0448393 0.140633 0.989661 
0.0375218 0.189473 0.981782 
0.0279096 0.255389 0.967025 
0.0153216 0.34597 0.93864 
0.0010771 0.460863 0.887893 
-0.0124243 0.60215 0.798583 
-0.0201686 0.76011 0.649594 
-0.0179745 0.915813 0.400599 
0.000314865 0.998414 0.0446187 
0.0157409 0.907869 -0.418277 
0.020407 0.764453 -0.644647 
0.0129233 0.61025 -0.792302 
-0.000864228 0.462252 -0.887235 
-0.0134973 0.360018 -0.933407 
-0.0271681 0.261916 -0.965303 
-0.0365875 0.200061 -0.97948 
-0.0434235 0.150875 -0.988222 
-0.0508196 0.104448 -0.993818 
-0.0549044 0.0765004 -0.996152 
-0.0585726 0.0543591 -0.997375 
-0.0612598 0.0401255 -0.997876 
-0.0628643 0.0298101 -0.998134 
-0.0639208 0.0216077 -0.998271 
-0.064983 0.0158981 -0.998308 
-0.0656843 0.0118981 -0.998323 
-0.0660038 0.00888247 -0.998337 
-0.0663128 0.00647673 -0.998313 
-0.066602 0.00472289 -0.998316 
-0.0668761 0.00352539 -0.998289 
-0.0670671 0.00274808 -0.998288 
-0.0672863 0.00244875 -0.998264 
-0.067442 0.00236752 -0.998254 
-0.0673366 0.00245479 -0.998278 
-0.0671194 0.00235561 -0.998281 
-0.0668715 0.00187392 -0.998319 
-0.06669 0.000838258 -0.998349 
-0.0662559 -0.000631284 -0.998388 
-0.0658864 -0.00304107 -0.99842 
-0.0663101 -0.00552648 -0.998373 
-0.0667733 -0.00656318 -0.998296 
-0.0661905 -0.0078807 -0.99836 
-0.0658519 -0.00986844 -0.99835 
-0.0653753 -0.014135 -0.998339 
-0.0644649 -0.0189872 -0.998357 
-0.0632284 -0.0270187 -0.998276 
-0.0608572 -0.0383852 -0.998103 
-0.0583355 -0.051211 -0.997633 
-0.0548266 -0.0766011 -0.995925 
0.0338641 -0.0793111 0.99689 
0.0413544 -0.05974 0.998579 
0.0396075 -0.0417499 0.999878 
0.0443825 -0.0310273 1.00003 
0.0459675 -0.0218739 1.00041 
0.0469215 -0.0157661 1.00006 
0.0473614 -0.0116302 1.00046 
0.0471811 -0.0086666 1.00027 
0.0487554 -0.00694662 1.00022 
0.0491664 -0.00543221 0.999955 
0.0478136 -0.0034133 1.00049 
0.0476106 -0.0015422 1.00028 
0.0479139 0.000114393 1.0002 
0.0484213 0.00128358 1.00016 
0.0478303 0.00180108 1.00017 
0.0472696 0.00199203 1.00041 
0.0495039 0.00225015 1.00011 
0.0489627 0.0026318 1.00011 
0.0486873 0.00311119 1.00015 
0.0486521 0.00387056 1.0001 
0.0479239 0.00508342 1.00013 
0.0476763 0.00683491 1.00017 
0.0480738 0.00931739 1.0001 
0.0479386 0.0126113 1.00008 
0.0470493 0.0171853 1.00009 
0.0465041 0.0237605 0.999996 
0.0454582 0.0328052 0.999747 
0.043457 0.0451585 0.999394 
0.0405883 0.062128 0.998558 
0.038265 0.08511 0.996786 
0.0341141 0.11494 0.994362 
0.0304133 0.154581 0.988869 
0.0259249 0.208612 0.978791 
0.0200065 0.279176 0.961298 
0.0133164 0.370966 0.929837 
0.00621133 0.488908 0.873246 
-0.000128376 0.627046 0.779553 
-0.00508362 0.789381 0.613473 
-0.00521973 0.934839 0.352229 
1.42472e-05 0.9986 0.0127272 
0.00558499 0.947778 -0.315056 
0.00313866 0.788778 -0.61406 
-0.000645091 0.632332 -0.775368 
-0.00587369 0.491826 -0.871653 
-0.013706 0.371849 -0.929425 
-0.0198949 0.285035 -0.959659 
-0.0251817 0.209143 -0.979176 
-0.033733 0.146336 -0.990027 
-0.0357341 0.107906 -0.994883 
-0.0402919 0.0766293 -0.997561 
-0.0414151 0.0557788 -0.998965 
-0.0444396 0.0400046 -0.999578 
-0.0456767 0.0292269 -0.999837 
-0.0460275 0.021673 -1.00006 
-0.0473261 0.0158913 -1.00009 
-0.047357 0.011648 -1.00013 
-0.0478081 0.00850039 -1.00012 
-0.0479372 0.00630814 -1.00018 
-0.0476377 0.00475768 -1.00013 
-0.0488413 0.00366906 -0.999905 
-0.0479272 0.00298871 -1.00033 
-0.0492777 0.00256619 -0.999867 
-0.0483712 0.00222141 -1.00037 
-0.048439 0.00195916 -1.00013 
-0.0482152 0.00168919 -1.00024 
-0.0481497 0.00114771 -1.00013 
-0.0475243 -3.53927e-06 -1.00003 
-0.047313 -0.00158082 -1.00017 
-0.047082 -0.00333821 -1.00027 
-0.0474568 -0.00512782 -1.00026 
-0.0499542 -0.00692899 -1.00018 
-0.0460073 -0.00855314 -1.00057 
-0.0494243 -0.0112486 -0.999912 
-0.0463659 -0.0157414 -1.0005 
-0.0472161 -0.0222153 -1.00009 
-0.0438249 -0.0308006 -1.00005 
-0.0397927 -0.0420284 -0.99983 
-0.0421151 -0.0601009 -0.998547 
-0.0333554 -0.0796309 -0.996873 
0.023961 -0.0824501 0.996928 
0.0274935 -0.0570671 0.99951 
0.0269694 -0.0398108 1.00049 
0.0319072 -0.029489 1.00032 
0.0322558 -0.0213095 1.00049 
0.0333127 -0.0154088 1.00098 
0.0336348 -0.0116301 1.00054 
0.0337457 -0.00876045 1.00077 
0.0345098 -0.00685281 1.00078 
0.0353885 -0.00498588 1.00097 
0.033687 -0.00335547 1.00056 
0.0341681 -0.00203121 1.00076 
0.0342122 -0.000489103 1.0008 
0.0347998 0.000724212 1.00071 
0.0345938 0.00123832 1.00094 
0.0339305 0.00152573 1.00074 
0.0359597 0.00208476 1.00041 
0.0355974 0.00267985 1.00086 
0.0354643 0.00331533 1.00042 
0.0354703 0.00398862 1.00064 
0.0345954 0.00504745 1.00067 
0.0343209 0.00668809 1.00065 
0.0348965 0.00901267 1.00086 
0.0349553 0.0123519 1.00038 
0.0342186 0.0168731 1.00058 
0.0339124 0.0231595 1.00067 
0.0333482 0.0319236 1.00004 
0.0315138 0.0442345 1.0001 
0.0295505 0.0616504 0.998807 
0.027404 0.0848288 0.997588 
0.0259145 0.119141 0.993963 
0.0225828 0.167376 0.987004 
0.0206661 0.22322 0.975971 
0.0182209 0.296349 0.956229 
0.0153292 0.396488 0.919348 
0.0130448 0.518821 0.855741 
0.0084636 0.670411 0.742221 
0.00463274 0.831477 0.554599 
0.00136291 0.962659 0.266288 
-0.00161555 0.99557 -0.0781879 
-0.00186455 0.928683 -0.368155 
-0.00834661 0.800129 -0.599415 
-0.0121062 0.660158 -0.751445 
-0.013621 0.522858 -0.853035 
-0.0166642 0.401434 -0.917217 
-0.0186704 0.294206 -0.956918 
-0.0206227 0.225654 -0.975355 
-0.0249376 0.160018 -0.988222 
-0.0262228 0.117396 -0.994076 
-0.0290444 0.0851485 -0.997123 
-0.0294977 0.0617631 -0.999213 
-0.0317966 0.0441695 -0.999826 
-0.0329886 0.0322168 -1.00007 
-0.0330423 0.0236143 -1.00047 
-0.0341619 0.0173912 -1.00059 
-0.0342419 0.012715 -1.00064 
-0.0345553 0.00923167 -1.00068 
-0.0345193 0.00679811 -1.00066 
-0.0342059 0.00516206 -1.0009 
-0.0350957 0.00405982 -1.00062 
-0.0349832 0.00330793 -1.00067 
-0.035516 0.00270909 -1.00068 
-0.0355339 0.00209828 -1.00037 
-0.0350226 0.00153414 -1.00075 
-0.0345981 0.00120066 -1.00067 
-0.0345849 0.000779444 -1.00075 
-0.0335292 -0.000368043 -1.00096 
-0.0334746 -0.00186024 -1.00108 
-0.0333431 -0.00328743 -1.00079 
-0.0350274 -0.00514192 -1.00075 
-0.0349497 -0.00699176 -1.00074 
-0.0323194 -0.00895133 -1.00059 
-0.03564 -0.0114688 -1.00067 
-0.0324785 -0.0153286 -1.00081 
-0.0343934 -0.0204161 -1.00047 
-0.0318923 -0.0290191 -1.00055 
-0.027219 -0.0400895 -1.00052 
-0.0280381 -0.0563847 -0.999521 
-0.0235811 -0.082804 -0.996909 
0.0162933 -0.0847073 0.996839 
0.0194212 -0.0587812 0.999582 
0.0189802 -0.0431589 1.00036 
0.0217816 -0.0289587 1.00106 
0.0225109 -0.0215369 1.00103 
0.0236613 -0.0158743 1.00103 
0.0240398 -0.0113928 1.00098 
0.0242814 -0.00869423 1.00106 
0.0248039 -0.00679424 1.00106 
0.0249511 -0.00475933 1.00083 
0.0236434 -0.00315478 1.00129 
0.0246682 -0.0020949 1.00083 
0.0246962 -0.00065056 1.00103 
0.0250741 0.000477853 1.00103 
0.024974 0.000857738 1.00081 
0.0245316 0.00119985 1.00098 
0.0258555 0.00202823 1.00122 
0.0257814 0.00284247 1.00075 
0.025544 0.00350254 1.00119 
0.0257853 0.00418212 1.00095 
0.025038 0.00519323 1.00095 
0.0247318 0.00683599 1.00097 
0.0252346 0.00912441 1.00071 
0.0254099 0.0122118 1.00113 
0.0252503 0.0169657 1.00085 
0.0246557 0.0231331 1.00057 
0.0243279 0.0312957 1.00077 
0.0237834 0.0433317 0.999902 
0.0219747 0.0598626 0.999536 
0.0213759 0.0840668 0.997632 
0.0211629 0.118102 0.993913 
0.0199898 0.163456 0.988011 
0.0205897 0.228105 0.974743 
0.0206603 0.30872 0.952277 
0.0220687 0.402247 0.916168 
0.0224863 0.512498 0.859617 
0.019572 0.658802 0.752307 
0.015089 0.813473 0.581 
0.00702855 0.950826 0.305771 
-0.00199954 0.997957 -0.0341311 
-0.0100316 0.926208 -0.374276 
-0.0213019 0.807844 -0.588335 
-0.0245457 0.661053 -0.750295 
-0.0238358 0.52209 -0.853576 
-0.0237404 0.404556 -0.915424 
-0.0215035 0.307665 -0.952599 
-0.0208512 0.224003 -0.975771 
-0.0209422 0.171863 -0.98606 
-0.0209509 0.125842 -0.993482 
-0.0219462 0.0905147 -0.997033 
-0.0224512 0.0648906 -0.998795 
-0.0236026 0.0458544 -1.00005 
-0.0239259 0.0327706 -1.0007 
-0.0239162 0.0242007 -1.00079 
-0.0248969 0.0176889 -1.00086 
-0.0248512 0.0129186 -1.00093 
-0.0250594 0.00939686 -1.00094 
-0.0249428 0.00689885 -1.00099 
-0.0248799 0.0053026 -1.00074 
-0.02531 0.00426515 -1.00121 
-0.025243 0.00357793 -1.00093 
-0.0258749 0.00285576 -1.00098 
-0.0257376 0.00201005 -1.00101 
-0.0251948 0.00122861 -1.00097 
-0.0248317 0.000827599 -1.00102 
-0.0248101 0.000507904 -1.001 
-0.023897 -0.000509107 -1.0011 
-0.0239849 -0.00193347 -1.0008 
-0.0237593 -0.00307892 -1.00127 
-0.0256214 -0.00463737 -1.00081 
-0.0246196 -0.0069047 -1.00107 
-0.0229254 -0.00891108 -1.00133 
-0.0244443 -0.0114701 -1.001 
-0.0231136 -0.0159589 -1.00102 
-0.0241344 -0.0218033 -1.00095 
-0.0217183 -0.0297569 -1.00079 
-0.0191992 -0.0429903 -1.00029 
-0.0195083 -0.0601377 -0.999479 
-0.0160487 -0.0845346 -0.996858 
0.0111947 -0.0857964 0.996779 
0.0135607 -0.0627174 0.99962 
0.0133898 -0.0446543 1.00006 
0.0154257 -0.0313661 1.00087 
0.0160358 -0.0226371 1.00112 
0.0166538 -0.0160167 1.00113 
0.0173314 -0.0118983 1.00115 
0.0175206 -0.00925843 1.00121 
0.017682 -0.00697785 1.00117 
0.0174622 -0.00455471 1.0014 
0.0174947 -0.00303178 1.00099 
0.0178702 -0.00206232 1.00139 
0.0180357 -0.00061676 1.00116 
0.0182423 0.000299197 1.00113 
0.0182957 0.00050517 1.0011 
0.0183627 0.00108397 1.00115 
0.0190954 0.00215744 1.00106 
0.0189577 0.00315358 1.00111 
0.0190017 0.00386588 1.00104 
0.0188673 0.00456147 1.00107 
0.0183604 0.00561049 1.00108 
0.0182046 0.00719211 1.00106 
0.0184152 0.00959235 1.00108 
0.0189195 0.0132981 1.00103 
0.0183412 0.0182612 1.00097 
0.0181745 0.0247887 1.00083 
0.0182117 0.0340265 1.00062 
0.0176069 0.0470314 1.00013 
0.0175191 0.0656071 0.999075 
0.0178264 0.0917091 0.997055 
0.0184669 0.126696 0.993147 
0.0203099 0.175875 0.985353 
0.0229546 0.240768 0.972012 
0.026754 0.317546 0.948895 
0.0321497 0.408891 0.913504 
0.037106 0.51817 0.855121 
0.0330536 0.6456 0.763573 
0.0326918 0.778888 0.625798 
0.0188482 0.916855 0.396603 
0.00340385 0.995814 0.0748987 
-0.0173401 0.947752 -0.314656 
-0.0356873 0.824469 -0.563957 
-0.0402426 0.674825 -0.737203 
-0.0371202 0.531604 -0.847064 
-0.0333831 0.406206 -0.914357 
-0.0266941 0.303029 -0.953997 
-0.0229918 0.226343 -0.97516 
-0.0197018 0.160691 -0.988481 
-0.0181271 0.118274 -0.994004 
-0.0179889 0.0876205 -0.997625 
-0.0179237 0.0626258 -0.99922 
-0.0182297 0.0443413 -1.00019 
-0.0178271 0.0323533 -1.00069 
-0.0178222 0.0236369 -1.00085 
-0.0184283 0.0172693 -1.00102 
-0.0183988 0.0125496 -1.00107 
-0.0183023 0.00919263 -1.00109 
-0.018379 0.00674765 -1.00106 
-0.0185227 0.0052548 -1.0011 
-0.0186561 0.00438977 -1.00104 
-0.0188474 0.00371277 -1.00088 
-0.0190527 0.00288392 -1.00125 
-0.0188779 0.00184886 -1.00111 
-0.0185611 0.000825917 -1.00109 
-0.0182913 0.000351954 -1.00116 
-0.017911 8.31591e-05 -1.00116 
-0.0174563 -0.000913711 -1.00113 
-0.0173094 -0.00229539 -1.00121 
-0.0171214 -0.00325385 -1.00093 
-0.0185822 -0.00461283 -1.00118 
-0.0172901 -0.00689835 -1.00118 
-0.0165878 -0.00923337 -1.00119 
-0.0179173 -0.0117364 -1.00113 
-0.016316 -0.0160305 -1.00113 
-0.0170413 -0.0222823 -1.00111 
-0.0157645 -0.0312856 -1.00089 
-0.0133931 -0.0438115 -1.00034 
-0.0137615 -0.0611118 -0.999502 
-0.0111891 -0.0856426 -0.996822 
0.00743236 -0.0866353 0.996727 
0.00909756 -0.0670889 0.998897 
0.00955766 -0.0497173 1.00013 
0.0110544 -0.0345747 1.00078 
0.0113999 -0.0244326 1.00112 
0.0119096 -0.017801 1.00114 
0.012471 -0.0132106 1.00116 
0.0128194 -0.00986092 1.00118 
0.0129531 -0.00759492 1.0012 
0.0128076 -0.00518725 1.00119 
0.0130035 -0.00346427 1.00118 
0.0131941 -0.00253866 1.00114 
0.0131437 -0.00119789 1.00116 
0.0132585 -0.000239985 1.00114 
0.0134759 -1.68486e-05 1.00114 
0.0137884 0.000568951 1.00111 
0.0139608 0.00189083 1.00111 
0.0139742 0.00303929 1.00107 
0.0141075 0.00379004 1.0011 
0.0139938 0.00436226 1.00107 
0.0138143 0.00517263 1.00106 
0.0137216 0.00652754 1.00111 
0.0135752 0.00861998 1.00107 
0.0140505 0.0117711 1.00105 
0.0140102 0.0161384 1.00104 
0.0137615 0.0221064 1.00093 
0.0137832 0.0303408 1.00077 
0.0138619 0.0413908 1.00034 
0.0145293 0.0578272 0.999553 
0.0154602 0.0801708 0.998051 
0.0169212 0.111203 0.995065 
0.0196416 0.152676 0.9895 
0.0243869 0.209477 0.978932 
0.0320612 0.282091 0.960404 
0.0416998 0.374943 0.92681 
0.0551105 0.478415 0.877997 
0.056797 0.619602 0.783426 
0.0553021 0.779707 0.623132 
0.0325963 0.920916 0.385302 
0.00045137 0.998401 0.0072485 
-0.0302928 0.948902 -0.309909 
-0.0628317 0.820037 -0.567861 
-0.0626996 0.656213 -0.752355 
-0.054211 0.504079 -0.862887 
-0.0439992 0.380503 -0.925014 
-0.0329536 0.291754 -0.957246 
-0.0256146 0.211768 -0.978435 
-0.0203655 0.162157 -0.987719 
-0.0171654 0.114934 -0.994849 
-0.0155785 0.0859005 -0.997314 
-0.0149705 0.0641707 -0.999219 
-0.0145853 0.0456285 -1.00018 
-0.013759 0.0330499 -1.00065 
-0.0137081 0.0243545 -1.00091 
-0.0139128 0.0176924 -1.00101 
-0.0138041 0.0129228 -1.00106 
-0.0136761 0.00938529 -1.00111 
-0.0137055 0.00691567 -1.00108 
-0.0138099 0.00540568 -1.00108 
-0.0137833 0.00456242 -1.00111 
-0.0141215 0.00394989 -1.00105 
-0.0142401 0.0031559 -1.00112 
-0.0139877 0.00200934 -1.00108 
-0.0138108 0.000726396 -1.0011 
-0.013647 1.37745e-05 -1.0011 
-0.0130791 -0.000167601 -1.00113 
-0.012867 -0.00089545 -1.00118 
-0.0127277 -0.00234677 -1.00112 
-0.0124162 -0.00333104 -1.00146 
-0.0130783 -0.00454939 -1.00118 
-0.0127317 -0.00717275 -1.0012 
-0.0120249 -0.00950755 -1.00118 
-0.0128439 -0.0121428 -1.00114 
-0.0119184 -0.0170189 -1.00113 
-0.0122301 -0.0229239 -1.00114 
-0.0110735 -0.0325608 -1.00086 
-0.00954387 -0.0457579 -1.00028 
-0.00950872 -0.0629522 -0.999436 
-0.00784546 -0.086591 -0.996757 
0.00559266 -0.0875121 0.996673 
0.00653839 -0.06211 0.99974 
0.00784823 -0.043604 1.00042 
0.00822705 -0.0315325 1.00093 
0.00889876 -0.0223705 1.00112 
0.00918696 -0.0164114 1.00112 
0.00950891 -0.0123676 1.00115 
0.00993334 -0.00948066 1.00121 
0.00987063 -0.0068354 1.00123 
0.00991928 -0.00450446 1.00119 
0.010209 -0.00328273 1.0012 
0.0103175 -0.00220882 1.0012 
0.0103544 -0.000998252 1.0012 
0.0104769 -0.000586175 1.00115 
0.0108268 -0.000275978 1.00114 
0.0111264 0.000926432 1.00114 
0.0110648 0.00247261 1.00113 
0.0112281 0.00352798 1.00113 
0.0112205 0.00408734 1.00109 
0.0111094 0.00464812 1.00116 
0.0110212 0.00558804 1.00111 
0.0108092 0.00715326 1.00112 
0.0108096 0.00967483 1.00114 
0.0109836 0.0130991 1.00111 
0.0111774 0.0180318 1.00104 
0.0111995 0.0248333 1.00091 
0.0112497 0.0337214 1.00069 
0.0118946 0.0465495 1.00022 
0.0130266 0.064534 0.999164 
0.0148196 0.0892998 0.997279 
0.0177996 0.121909 0.99382 
0.0228104 0.166119 0.987065 
0.0305915 0.221134 0.976392 
0.0432968 0.295086 0.956 
0.0608355 0.393062 0.918605 
0.085825 0.517227 0.852256 
0.0890513 0.645526 0.758934 
0.104187 0.780357 0.615728 
0.062186 0.908658 0.409875 
0.0136322 0.993979 0.0907427 
-0.0548799 0.950698 -0.300216 
-0.106451 0.788557 -0.604803 
-0.0911785 0.622938 -0.777202 
-0.0723245 0.463727 -0.884332 
-0.0549153 0.3514 -0.93568 
-0.039305 0.272327 -0.96278 
-0.0291456 0.206415 -0.979444 
-0.020824 0.14935 -0.990198 
-0.0166489 0.107494 -0.995253 
-0.0141139 0.0794054 -0.99837 
-0.0130214 0.0580822 -0.999362 
-0.0119778 0.0425974 -1.00058 
-0.0111459 0.0308412 -1.00078 
-0.0110663 0.0225911 -1.00101 
-0.0109876 0.0164336 -1.00106 
-0.0108277 0.0119476 -1.00112 
-0.0108041 0.00877979 -1.00112 
-0.0109106 0.00653639 -1.00113 
-0.0109186 0.00520853 -1.00111 
-0.0109636 0.00451709 -1.00112 
-0.0112559 0.00399546 -1.00111 
-0.0113418 0.00325422 -1.00113 
-0.0111376 0.00200404 -1.00113 
-0.0110195 0.000466024 -1.00116 
-0.0108212 -0.000433236 -1.00118 
-0.0104181 -0.000620483 -1.00117 
-0.0101968 -0.00119789 -1.00097 
-0.00990925 -0.00254407 -1.00144 
-0.0098666 -0.00364072 -1.00095 
-0.0100728 -0.00476524 -1.00116 
-0.0098135 -0.00731676 -1.00124 
-0.00956949 -0.010074 -1.00119 
-0.00980836 -0.0127177 -1.00117 
-0.00920783 -0.0175927 -1.00111 
-0.00915225 -0.0237942 -1.00111 
-0.00825277 -0.0331987 -1.00084 
-0.00726319 -0.0454538 -1.00029 
-0.00706271 -0.0630852 -0.999424 
-0.00578058 -0.0875755 -0.996666 
0.00483109 -0.0879064 0.996614 
0.00544356 -0.0643464 0.999381 
0.00623053 -0.0460045 1.00001 
0.00659809 -0.0323776 1.00109 
0.00712542 -0.0238835 1.00114 
0.00737263 -0.0173703 1.00086 
0.00771856 -0.012746 1.00146 
0.00810915 -0.0100098 1.00099 
0.00802165 -0.00709394 1.00145 
0.00826894 -0.00485289 1.001 
0.00861883 -0.00376121 1.0012 
0.00875926 -0.00252542 1.00125 
0.00886573 -0.0013512 1.00116 
0.00903618 -0.00115984 1.00141 
0.00943276 -0.000775957 1.00097 
0.00963728 0.000656017 1.00116 
0.00943316 0.00245495 1.00135 
0.00958295 0.00358517 1.00094 
0.00955157 0.00409086 1.00113 
0.00941108 0.0045553 1.00132 
0.00945335 0.00537327 1.00093 
0.00933907 0.00665789 1.00116 
0.00939618 0.00881581 1.00111 
0.009318 0.0120175 1.00137 
0.00950569 0.0163088 1.00109 
0.00971206 0.0223366 1.00079 
0.00969295 0.0301735 1.00104 
0.010357 0.0414099 1.00019 
0.0114171 0.0562466 1.00004 
0.0134415 0.0779714 0.998297 
0.016453 0.106002 0.995399 
0.0215603 0.142903 0.991212 
0.0309302 0.199559 0.980931 
0.0455824 0.267883 0.963937 
0.0680424 0.3567 0.932862 
0.101077 0.467722 0.879084 
0.143818 0.624249 0.768476 
0.19413 0.767143 0.611915 
0.134032 0.909682 0.393446 
0.0322246 0.994077 0.102924 
-0.0865893 0.961531 -0.260805 
-0.183482 0.817152 -0.547199 
-0.140152 0.637356 -0.757992 
-0.100315 0.487903 -0.868083 
-0.0695871 0.358631 -0.932165 
-0.0459761 0.265456 -0.964434 
-0.0326417 0.205795 -0.979531 
-0.0233891 0.156036 -0.988948 
-0.017935 0.114993 -0.994644 
-0.0135992 0.080566 -0.998068 
-0.0118786 0.0593613 -0.999776 
-0.0108353 0.0441793 -0.99986 
-0.00984803 0.0322983 -1.00078 
-0.00956715 0.0234055 -1.00098 
-0.00944205 0.0171785 -1.00111 
-0.00935056 0.0124737 -1.00117 
-0.00922697 0.00907853 -1.00118 
-0.00931907 0.00683757 -1.00113 
-0.00939915 0.00545064 -1.00116 
-0.00938619 0.00460172 -1.00111 
-0.00957507 0.00411598 -1.00114 
-0.00955826 0.00362531 -1.00113 
-0.0095869 0.00256531 -1.00115 
-0.00956924 0.000794915 -1.00115 
-0.00940408 -0.000676933 -1.00117 
-0.0090512 -0.0011045 -1.00115 
-0.00872239 -0.00131748 -1.00146 
-0.00856665 -0.00255255 -1.00097 
-0.00835806 -0.0038178 -1.00144 
-0.00841474 -0.00483334 -1.00123 
-0.00805873 -0.00731596 -1.00122 
-0.00783113 -0.0103469 -1.00124 
-0.00792362 -0.013346 -1.00115 
-0.00727744 -0.0181679 -1.00113 
-0.00728995 -0.0248406 -1.0011 
-0.00658679 -0.0336717 -1.00084 
-0.00577346 -0.046813 -1.00023 
-0.00560549 -0.0645485 -0.999322 
-0.00490313 -0.087755 -0.996656 
0.00423213 -0.0881351 0.996619 
0.00447169 -0.0638771 0.999363 
0.00488807 -0.0465565 1.00024 
0.0052252 -0.0339638 1.00066 
0.00544321 -0.0245466 1.00127 
0.00557997 -0.0179662 1.00116 
0.00584832 -0.0133214 1.00108 
0.00606627 -0.0100134 1.00126 
0.00626719 -0.00704213 1.00121 
0.00650109 -0.00495718 1.00139 
0.00687191 -0.00391415 1.00123 
0.00700338 -0.00257901 1.00113 
0.00719409 -0.00166887 1.00122 
0.00754569 -0.00166811 1.00093 