# vtk DataFile Version 3.0 
Exported using Morpho https://github.com/Morpho-lang/morpho 
ASCII 
DATASET UNSTRUCTURED_GRID 

POINTS 1978 float 
-8.48528 -2.82843 -3.05756e-14 
-8.26077 -2.82843 2.05386e-13 
-8.03813 -2.82843 3.94704e-13 
-7.78293 -2.82843 4.28244e-13 
-7.29132 -2.82843 2.56222e-13 
-7.04469 -2.82843 1.35324e-13 
-6.84397 -2.82843 1.24358e-13 
-6.66496 -2.82843 1.00828e-13 
-6.49482 -2.82843 1.42057e-13 
-6.3008 -2.82843 1.63821e-13 
-6.10089 -2.82843 1.36466e-13 
-5.89274 -2.82843 1.19166e-13 
-5.69192 -2.82843 1.22782e-13 
-5.49081 -2.82843 7.6378e-14 
-5.27438 -2.82843 4.70425e-14 
-5.0591 -2.82843 3.04978e-14 
-4.84013 -2.82843 1.89089e-14 
-4.6234 -2.82843 5.57815e-16 
-4.39655 -2.82843 -6.41845e-14 
-4.13371 -2.82843 -1.3678e-13 
-3.91879 -2.82843 -1.46052e-13 
-3.70738 -2.82843 -1.90191e-13 
-3.50075 -2.82843 -2.10046e-13 
-3.29637 -2.82843 -2.4243e-13 
-3.09221 -2.82843 -3.76748e-13 
-2.88084 -2.82843 -4.50422e-13 
-2.67843 -2.82843 -5.07896e-13 
-2.47172 -2.82843 -6.46288e-13 
-2.25811 -2.82843 -6.88985e-13 
-2.04843 -2.82843 -8.79613e-13 
-1.81836 -2.82843 -9.30455e-13 
-1.61861 -2.82843 -7.27469e-13 
-1.42365 -2.82843 -6.09949e-13 
-1.2265 -2.82843 -5.84046e-13 
-1.02376 -2.82843 -2.67304e-13 
-0.821922 -2.82843 -4.45342e-13 
-0.616727 -2.82843 -1.58601e-15 
-0.410263 -2.82843 -4.36412e-13 
-0.213383 -2.82843 5.66341e-13 
-0.00606488 -2.82843 3.80442e-13 
0.238298 -2.82843 3.18552e-13 
0.482057 -2.82843 -5.52747e-13 
0.671412 -2.82843 4.60539e-13 
0.864697 -2.82843 1.0834e-13 
1.05164 -2.82843 2.66423e-13 
1.23119 -2.82843 5.703e-13 
1.4086 -2.82843 6.53048e-13 
1.59922 -2.82843 4.63128e-13 
1.78406 -2.82843 8.22064e-13 
2.00192 -2.82843 1.00576e-12 
2.22997 -2.82843 8.40129e-13 
2.44588 -2.82843 5.35446e-13 
2.64511 -2.82843 7.19058e-13 
2.898 -2.82843 5.41609e-13 
3.09972 -2.82843 3.02342e-13 
3.30995 -2.82843 2.83534e-13 
3.51917 -2.82843 2.14483e-13 
3.72207 -2.82843 1.78232e-13 
3.94201 -2.82843 1.6044e-13 
4.17441 -2.82843 9.26196e-14 
4.38605 -2.82843 4.3558e-14 
4.6044 -2.82843 1.72102e-14 
4.80229 -2.82843 -1.04856e-14 
5.02789 -2.82843 -1.98536e-14 
5.24702 -2.82843 -4.77049e-14 
5.46912 -2.82843 -9.09307e-14 
5.69583 -2.82843 -1.12105e-13 
5.92023 -2.82843 -1.58339e-13 
6.1583 -2.82843 -1.95647e-13 
6.38595 -2.82843 -2.01854e-13 
6.59878 -2.82843 -2.03391e-13 
6.81675 -2.82843 -1.75935e-13 
7.02615 -2.82843 -2.69101e-13 
7.28966 -2.82843 -4.25336e-13 
7.54302 -2.82843 -4.26133e-13 
7.76612 -2.82843 -4.09062e-13 
8.00757 -2.82843 -3.33307e-13 
8.19747 -2.82843 -2.2829e-13 
8.48528 -2.82843 5.90047e-15 
-8.48528 -2.59111 -4.87052e-14 
-8.23253 -2.56192 1.60386e-15 
-7.99135 -2.59118 -1.70482e-13 
-7.75916 -2.56402 -4.33675e-13 
-7.54446 -2.70957 -1.70412e-13 
-7.03689 -2.58193 -1.60313e-13 
-6.822 -2.56455 -2.46915e-13 
-6.62403 -2.55625 -1.85737e-13 
-6.4166 -2.59017 -1.83664e-13 
-6.30902 -2.37769 -1.51983e-13 
-6.18844 -2.59429 -2.03396e-13 
-5.96755 -2.59864 -7.55844e-14 
-5.73707 -2.58666 -8.92318e-14 
-5.52067 -2.57925 -7.11662e-14 
-5.29728 -2.59023 -7.40496e-14 
-5.06434 -2.58077 -2.72853e-14 
-4.84412 -2.58692 -7.87074e-15 
-4.61722 -2.58741 1.80476e-14 
-4.35725 -2.62635 5.85403e-14 
-4.14224 -2.58079 9.92628e-14 
-3.92972 -2.58522 1.5966e-13 
-3.71499 -2.58586 2.07683e-13 
-3.50299 -2.58458 2.48159e-13 
-3.29293 -2.58313 3.17469e-13 
-3.07717 -2.59419 4.00682e-13 
-2.8674 -2.58436 4.78659e-13 
-2.65776 -2.58832 5.56002e-13 
-2.44162 -2.59306 6.45428e-13 
-2.2222 -2.5847 7.02554e-13 
-1.99512 -2.6021 6.60257e-13 
-1.7776 -2.57076 6.58193e-13 
-1.57988 -2.57352 1.00301e-12 
-1.38386 -2.56376 7.75487e-13 
-1.1858 -2.52459 7.10633e-13 
-0.975087 -2.57006 1.24813e-12 
-0.793459 -2.50519 -8.03435e-13 
-0.608126 -2.54551 1.24989e-12 
-0.411935 -2.50622 -1.38476e-13 
-0.202099 -2.51202 -1.16019e-12 
0.0114431 -2.51562 -1.23663e-12 
0.225214 -2.56803 -2.74403e-13 
0.423614 -2.50169 2.61016e-12 
0.620152 -2.52146 -5.51669e-13 
0.825612 -2.56541 -6.01539e-13 
1.03489 -2.5234 -4.80477e-13 
1.23205 -2.53947 -3.62834e-13 
1.43126 -2.56658 -8.91526e-13 
1.62576 -2.55112 -6.70513e-13 
1.8438 -2.59494 -6.95702e-13 
2.07673 -2.60679 -8.00739e-13 
2.30855 -2.60368 -9.28337e-13 
2.52726 -2.5753 -5.23385e-13 
2.75328 -2.62116 -5.13525e-13 
2.97559 -2.57014 -4.47737e-13 
3.18825 -2.58518 -4.08406e-13 
3.40236 -2.58443 -2.92567e-13 
3.6133 -2.57769 -2.10365e-13 
3.82691 -2.59712 -1.60817e-13 
4.05615 -2.60839 -1.14484e-13 
4.28162 -2.58693 -7.76735e-14 
4.49833 -2.59325 -4.80084e-14 
4.70935 -2.56674 -1.62313e-14 
4.91996 -2.59614 1.1052e-14 
5.14295 -2.5872 3.62514e-14 
5.36427 -2.5875 6.21521e-14 
5.58797 -2.59068 8.69657e-14 
5.81324 -2.58731 1.08377e-13 
6.04303 -2.60082 1.29166e-13 
6.27543 -2.59058 1.57261e-13 
6.49567 -2.57423 1.89754e-13 
6.71224 -2.57998 2.23065e-13 
6.92608 -2.56916 2.2826e-13 
7.15613 -2.62021 2.27483e-13 
7.41701 -2.61162 2.82253e-13 
7.64952 -2.58345 2.96192e-13 
7.88556 -2.60067 3.02108e-13 
8.09949 -2.53598 2.10913e-13 
8.31517 -2.63102 3.12559e-14 
8.48528 -2.50383 7.40764e-14 
-8.48528 -2.35418 -1.38817e-13 
-8.21684 -2.33094 -8.4503e-14 
-7.97452 -2.33967 -3.70652e-13 
-7.73177 -2.31651 -4.99009e-13 
-7.50405 -2.46996 -4.97112e-13 
-7.28075 -2.59909 -1.01971e-13 
-7.2137 -2.37212 -2.95299e-13 
-6.9707 -2.33678 -3.03683e-13 
-6.75051 -2.3068 -2.90399e-13 
-6.53013 -2.32745 -2.47404e-13 
-6.24015 -2.1435 -1.28665e-13 
-6.08146 -2.35907 -2.03997e-13 
-5.85838 -2.37349 -1.42752e-13 
-5.63575 -2.33891 -1.32152e-13 
-5.40837 -2.35079 -9.49729e-14 
-5.1811 -2.35504 -6.15012e-14 
-4.95192 -2.33744 -1.43062e-14 
-4.73222 -2.35055 1.77646e-14 
-4.48484 -2.40039 6.34753e-14 
-4.27375 -2.36266 1.26603e-13 
-4.05051 -2.33452 1.80781e-13 
-3.83785 -2.34558 2.4409e-13 
-3.62291 -2.34637 3.1496e-13 
-3.40767 -2.34658 4.1542e-13 
-3.18666 -2.35879 5.48288e-13 
-2.97095 -2.35503 6.64635e-13 
-2.74904 -2.34831 8.22394e-13 
-2.53082 -2.359 9.65738e-13 
-2.30362 -2.3617 1.19743e-12 
-2.05452 -2.36864 1.32688e-12 
-1.82356 -2.34739 1.51281e-12 
-1.5768 -2.31057 1.16941e-12 
-1.3556 -2.30115 1.43906e-12 
-1.22996 -2.10502 8.28588e-13 
-1.0785 -2.29819 -9.84949e-13 
-0.851892 -2.24943 -5.95e-13 
-0.623512 -2.23867 -4.31773e-13 
-0.414799 -2.2009 -9.23865e-13 
-0.201594 -2.19854 -1.98844e-13 
0.0127359 -2.19786 1.13792e-12 
0.217709 -2.2612 1.00199e-12 
0.408715 -2.16435 -1.64319e-12 
0.615662 -2.20251 7.1892e-13 
0.810771 -2.29744 -6.05643e-13 
1.00195 -2.22063 -5.94943e-13 
1.20692 -2.27436 -6.9686e-13 
1.42101 -2.30041 -9.09886e-13 
1.63668 -2.30496 -1.19589e-12 
1.85287 -2.35992 -1.15633e-12 
2.07886 -2.38288 -1.13603e-12 
2.30443 -2.3745 -9.41848e-13 
2.52993 -2.34488 -8.20824e-13 
2.75533 -2.38627 -6.61011e-13 
2.97561 -2.32944 -6.64157e-13 
3.19226 -2.34173 -5.27179e-13 
3.4056 -2.34137 -3.95248e-13 
3.61782 -2.3377 -3.2807e-13 
3.82983 -2.35659 -2.53535e-13 
4.03959 -2.38278 -1.76994e-13 
4.25268 -2.35204 -1.27709e-13 
4.47031 -2.35391 -7.04781e-14 
4.67437 -2.32135 -3.23431e-14 
4.88774 -2.34498 6.08131e-15 
5.09521 -2.35337 4.31085e-14 
5.3173 -2.34828 7.60882e-14 
5.53821 -2.35059 1.09163e-13 
5.75842 -2.34967 1.43718e-13 
5.9851 -2.36251 1.71185e-13 
6.20821 -2.36129 1.98027e-13 
6.43312 -2.33413 2.36411e-13 
6.65544 -2.33048 2.58255e-13 
6.86795 -2.3192 3.10836e-13 
7.09369 -2.36879 3.61796e-13 
7.32004 -2.40664 4.028e-13 
7.56065 -2.3543 4.34994e-13 
7.79832 -2.36245 3.07579e-13 
8.0111 -2.30733 2.65463e-13 
8.26592 -2.34448 8.82577e-14 
8.48528 -2.25106 1.23837e-13 
-8.48528 -2.14187 -3.13442e-13 
-8.26968 -2.08137 -6.55029e-15 
-8.03405 -2.08671 -5.22159e-14 
-7.81448 -2.07853 -4.28151e-14 
-7.56822 -2.08885 -2.22114e-13 
-7.43863 -2.25765 -5.49632e-13 
-7.15458 -2.14605 -3.15596e-13 
-6.91452 -2.09459 -1.97785e-13 
-6.67763 -2.07941 -6.83952e-14 
-6.44341 -2.11924 -1.40981e-13 
-6.07403 -2.04523 -5.10702e-14 
-5.91006 -2.13631 -9.13245e-14 
-5.70647 -2.1129 -6.25376e-14 
-5.47579 -2.11748 -4.48897e-14 
-5.2528 -2.12294 -3.6052e-14 
-5.03212 -2.11008 -1.19581e-14 
-4.80462 -2.1037 8.15e-15 
-4.57957 -2.1654 3.58012e-14 
-4.37431 -2.13045 6.12492e-14 
-4.1629 -2.11541 7.94101e-14 
-3.93966 -2.09803 9.1891e-14 
-3.73255 -2.10887 1.46366e-13 
-3.52058 -2.11264 1.93339e-13 
-3.30315 -2.12435 2.64038e-13 
-3.08979 -2.125 2.9989e-13 
-2.87262 -2.12481 3.73032e-13 
-2.65198 -2.11523 4.23848e-13 
-2.43529 -2.13066 5.17524e-13 
-2.19857 -2.1518 6.59325e-13 
-1.96852 -2.12258 6.8053e-13 
-1.7342 -2.11464 6.49783e-13 
-1.50109 -2.06047 2.33189e-13 
-1.32026 -1.8968 5.85782e-13 
-1.08689 -1.81447 -4.46258e-13 
-0.992474 -2.02942 5.01762e-13 
-0.741687 -1.98021 -6.31453e-13 
-0.529668 -1.93887 1.75147e-13 
-0.290723 -1.90586 1.47708e-15 
-0.0572884 -1.91189 -3.01521e-13 
0.0792411 -1.66706 -3.86261e-13 
0.191663 -1.94319 -4.68632e-14 
0.310605 -1.67281 3.90371e-13 
0.453184 -1.88029 8.0868e-13 
0.638316 -1.85922 1.17475e-12 
0.820446 -1.99924 3.85597e-14 
1.1061 -1.98658 9.33293e-14 
1.33419 -2.04849 -6.46456e-13 
1.56151 -2.0593 -1.58772e-13 
1.80733 -2.11127 -8.33372e-13 
2.03928 -2.15609 -6.94207e-13 
2.27951 -2.14928 -8.32808e-13 
2.52066 -2.12189 -6.06001e-13 
2.74734 -2.15096 -6.08561e-13 
2.97253 -2.09968 -3.11463e-13 
3.19997 -2.10242 -2.51753e-13 
3.41343 -2.10276 -2.14283e-13 
3.63161 -2.10813 -1.60881e-13 
3.84862 -2.12222 -1.30826e-13 
4.0616 -2.14311 -1.03893e-13 
4.28292 -2.12158 -7.00623e-14 
4.48626 -2.10416 -3.66126e-14 
4.70551 -2.08798 -1.85115e-14 
4.91169 -2.09914 5.39004e-16 
5.12825 -2.1195 2.07619e-14 
5.34909 -2.11291 3.83531e-14 
5.56759 -2.11168 5.52283e-14 
5.79348 -2.1189 7.32043e-14 
6.01415 -2.12484 8.87636e-14 
6.23558 -2.12249 1.01315e-13 
6.46172 -2.09635 1.05645e-13 
6.67534 -2.08135 1.16979e-13 
6.9009 -2.08626 1.23688e-13 
7.12063 -2.13742 2.31931e-13 
7.34873 -2.17508 3.23744e-13 
7.52983 -2.07409 1.88029e-13 
7.73004 -2.12838 1.65117e-13 
7.94471 -2.07394 1.45942e-15 
8.19259 -2.11835 1.06078e-13 
8.48528 -2.06123 1.16672e-13 
-8.48528 -1.59118 -1.80738e-13 
-8.38299 -1.84769 9.43566e-14 
-7.9244 -1.8117 1.28712e-13 
[...]
POINT_DATA 1978 
VECTORS vectors float
0.000178369 0.000411754 1 
0.000299137 -0.0460154 0.998941 
0.000132746 -0.0694865 0.997583 
5.01072e-05 -0.063186 0.998002 
-9.94775e-05 -0.0449681 0.998988 
0.000161354 -0.0391884 0.999232 
0.000332571 -0.0353926 0.999373 
0.000380246 -0.0321315 0.999484 
0.000289663 -0.0297453 0.999557 
0.000289593 -0.0270417 0.999634 
0.000357884 -0.0237879 0.999717 
0.00030546 -0.0205369 0.999789 
0.000192738 -0.0179861 0.999838 
0.000330642 -0.0144454 0.999896 
0.000364579 -0.0102256 0.999948 
0.000272633 -0.00622358 0.999981 
0.000362901 -0.0017672 0.999998 
0.000465762 0.00291427 0.999996 
0.000326725 0.00787064 0.999969 
0.000418808 0.0141331 0.9999 
0.000407248 0.0210664 0.999778 
0.000264089 0.0295728 0.999563 
0.000272057 0.0394239 0.999223 
0.000341459 0.0516009 0.998668 
0.00025112 0.0663897 0.997794 
0.000265082 0.0854459 0.996343 
0.000287463 0.108498 0.994097 
0.000261875 0.137724 0.990471 
0.000294412 0.175188 0.984535 
0.000220661 0.220321 0.975427 
0.00020106 0.281804 0.959472 
0.000197718 0.349448 0.936956 
0.000171699 0.423536 0.905879 
0.000161677 0.505497 0.862828 
8.06876e-05 0.610892 0.791714 
4.41796e-05 0.707001 0.707212 
4.05233e-05 0.819727 0.572754 
4.89581e-05 0.909546 0.415603 
-3.1367e-05 0.972876 0.231326 
4.70223e-06 0.999954 0.00954844 
1.76244e-06 0.97049 -0.241143 
-6.28564e-05 0.882946 -0.469475 
-2.63631e-07 0.793585 -0.60846 
-4.15559e-05 0.699873 -0.714267 
-0.000188734 0.598999 -0.80075 
-0.000145503 0.512643 -0.858602 
-0.000113555 0.436782 -0.899567 
-0.000244615 0.358205 -0.933643 
-0.000227288 0.294824 -0.955552 
-0.000144133 0.234841 -0.972034 
-0.000297542 0.184009 -0.982925 
-0.000421002 0.144572 -0.989494 
-0.000230339 0.114778 -0.993391 
-0.000291018 0.0853095 -0.996354 
-0.000406782 0.0666409 -0.997777 
-0.000262626 0.0508809 -0.998705 
-0.000297911 0.0382945 -0.999266 
-0.00036816 0.0282942 -0.9996 
-0.000316027 0.0198957 -0.999802 
-0.00033622 0.0128801 -0.999917 
-0.000341763 0.0074917 -0.999972 
-0.00036129 0.00280554 -0.999996 
-0.000340907 -0.001036 -0.999999 
-0.000305618 -0.00466667 -0.999989 
-0.000371116 -0.00806448 -0.999967 
-0.000362838 -0.0117214 -0.999931 
-0.000391265 -0.0157983 -0.999875 
-0.000394795 -0.0206141 -0.999787 
-0.000359259 -0.0261519 -0.999658 
-0.000354123 -0.0317235 -0.999497 
-0.00031855 -0.0364954 -0.999334 
-0.000392343 -0.040118 -0.999195 
-0.000395896 -0.0422021 -0.999109 
-0.000394476 -0.0442861 -0.999019 
-0.000422227 -0.0492388 -0.998787 
-0.000436905 -0.0561637 -0.998421 
-0.000390101 -0.0642668 -0.997933 
-6.89098e-05 -0.0516612 -0.998665 
-0.000552342 0.000427787 -1 
-0.000408965 0.000343167 1 
0.011548 -0.0421334 0.999045 
0.0192947 -0.0615698 0.997916 
0.0267985 -0.0601899 0.997827 
0.0135569 -0.0550698 0.99839 
0.0255563 -0.0385029 0.998932 
0.0292698 -0.0338344 0.998999 
0.0305969 -0.030553 0.999065 
0.0281862 -0.0275282 0.999224 
0.041835 -0.0252345 0.998806 
0.0285035 -0.0242416 0.9993 
0.0262996 -0.0213555 0.999426 
0.0275141 -0.0178182 0.999463 
0.0282117 -0.0140644 0.999503 
0.0278826 -0.00997367 0.999561 
0.0278903 -0.00567538 0.999595 
0.0279691 -0.00137949 0.999608 
0.0268563 0.00334348 0.999634 
0.023796 0.00911502 0.999675 
0.0282773 0.0147376 0.999491 
0.0277413 0.0213443 0.999387 
0.0271282 0.0297635 0.999189 
0.0264788 0.0400896 0.998845 
0.0259859 0.0526997 0.998272 
0.0242839 0.0687832 0.997336 
0.0239748 0.0885405 0.995784 
0.0223293 0.11318 0.993324 
0.0204092 0.144633 0.989275 
0.0189458 0.184021 0.98274 
0.0156897 0.235508 0.971746 
0.0150976 0.297529 0.954593 
0.0131274 0.368078 0.929702 
0.0111558 0.446589 0.89467 
0.00944088 0.531608 0.846938 
0.00594667 0.619713 0.784806 
0.00376493 0.722288 0.691582 
0.00189419 0.82254 0.568704 
-0.000489096 0.913557 0.40671 
-0.0020938 0.977891 0.209105 
-0.00259112 0.999966 -0.00782692 
-0.00261102 0.973528 -0.228552 
-0.00438864 0.913119 -0.407669 
-0.00568863 0.823184 -0.567746 
-0.00661836 0.715722 -0.698354 
-0.00909916 0.610294 -0.792123 
-0.0105234 0.514444 -0.85746 
-0.0121165 0.426476 -0.904418 
-0.014511 0.348952 -0.937028 
-0.0145884 0.27832 -0.960378 
-0.016609 0.218182 -0.975767 
-0.0192092 0.170215 -0.98522 
-0.0215145 0.133872 -0.990765 
-0.0197927 0.102568 -0.994529 
-0.0248561 0.0784543 -0.996608 
-0.0253735 0.0605406 -0.997843 
-0.0260146 0.0458209 -0.998611 
-0.0269613 0.0340728 -0.999056 
-0.0260338 0.0246639 -0.999357 
-0.025668 0.0166863 -0.999531 
-0.0278139 0.0103607 -0.999559 
-0.0278347 0.00531274 -0.999598 
-0.0299498 0.00114745 -0.999551 
-0.0274024 -0.00260809 -0.999621 
-0.0282401 -0.00620548 -0.999582 
-0.0280467 -0.00978564 -0.999559 
-0.0275677 -0.0136694 -0.999526 
-0.0276234 -0.0180223 -0.999456 
-0.026266 -0.0229163 -0.999392 
-0.027267 -0.0279773 -0.999237 
-0.0287964 -0.0324936 -0.999057 
-0.0283426 -0.0365052 -0.998931 
-0.0287283 -0.0394306 -0.998809 
-0.0234567 -0.0423325 -0.998828 
-0.0238922 -0.0465059 -0.998632 
-0.0252183 -0.0528066 -0.998286 
-0.0221862 -0.0583457 -0.99805 
-0.0203083 -0.0500066 -0.998542 
-0.0076117 -0.0302947 -0.999512 
0.000300128 -0.000369982 -1 
0.000431019 0.000433264 1 
0.0200428 -0.041088 0.998954 
0.0330855 -0.0590243 0.997708 
0.0401549 -0.0586052 0.997473 
0.0355954 -0.051807 0.998023 
0.0231598 -0.0456223 0.99869 
0.0392179 -0.041808 0.998356 
0.0420103 -0.0356824 0.99848 
0.044148 -0.0314632 0.998529 
0.0442945 -0.0282622 0.998619 
0.0442849 -0.0237191 0.998737 
0.0435946 -0.0220401 0.998806 
0.0423836 -0.0189081 0.998922 
0.0437118 -0.0152788 0.998927 
0.0433378 -0.0114725 0.998995 
0.0429788 -0.00742091 0.999048 
0.043554 -0.00328657 0.999046 
0.0429061 0.00108963 0.999079 
0.0407425 0.00626596 0.99915 
0.0425225 0.0113566 0.999031 
0.0429398 0.0177598 0.99892 
0.041851 0.0250257 0.99881 
0.0409198 0.0341722 0.998578 
0.0400223 0.0455834 0.998158 
0.0386234 0.0602495 0.997436 
0.037039 0.0782175 0.996248 
0.0351771 0.101425 0.994221 
0.0325251 0.129858 0.990999 
0.0296936 0.166553 0.985585 
0.0258379 0.21695 0.975841 
0.0226176 0.276055 0.960876 
0.0184173 0.355499 0.934495 
0.0144461 0.443904 0.895958 
0.0110664 0.509567 0.86036 
0.00842205 0.602193 0.798306 
0.00538198 0.712854 0.701291 
0.00227159 0.822448 0.568836 
-0.000227501 0.916101 0.400947 
-0.00234245 0.979573 0.201074 
-0.00411571 0.99996 -0.00794922 
-0.00517945 0.977139 -0.212537 
-0.0073565 0.917634 -0.397358 
-0.00851529 0.823896 -0.566678 
-0.00982598 0.722149 -0.691668 
-0.0121963 0.618583 -0.785625 
-0.014589 0.516231 -0.856325 
-0.0175594 0.423858 -0.905558 
-0.0211174 0.345348 -0.938237 
-0.0236064 0.276638 -0.960684 
-0.0265461 0.219176 -0.975324 
-0.029865 0.174481 -0.984207 
-0.0322562 0.133859 -0.990475 
-0.0330556 0.102683 -0.994165 
-0.037076 0.0791768 -0.996171 
-0.0385248 0.0606512 -0.997415 
-0.0397231 0.0459985 -0.998151 
-0.0412625 0.0344062 -0.998556 
-0.0417925 0.0250402 -0.998812 
-0.0415604 0.0175553 -0.998982 
-0.0433606 0.0114985 -0.998993 
-0.0432406 0.0062744 -0.999045 
-0.0447262 0.00220261 -0.998997 
-0.0439908 -0.00166271 -0.999031 
-0.0437949 -0.00512171 -0.999027 
-0.0437665 -0.00876956 -0.999003 
-0.0434522 -0.0125604 -0.998977 
-0.0433035 -0.0166384 -0.998923 
-0.0425822 -0.0211381 -0.998869 
-0.0423974 -0.0255706 -0.998774 
-0.0431978 -0.0296608 -0.998626 
-0.0430864 -0.0334664 -0.998511 
-0.0432989 -0.036723 -0.998387 
-0.0415581 -0.0404168 -0.998318 
-0.0391864 -0.0444736 -0.998242 
-0.0394893 -0.0508191 -0.997927 
-0.0365717 -0.0573968 -0.997681 
-0.0326023 -0.0547967 -0.997965 
-0.0174713 -0.0325998 -0.999316 
3.05846e-06 -0.000206084 -1 
0.00185758 0.00130186 0.999997 
0.0165845 -0.0329393 0.99932 
0.0303246 -0.0566404 0.997934 
0.0367891 -0.0616391 0.99742 
0.0400772 -0.0530541 0.997787 
0.0431476 -0.0474249 0.997942 
0.0425568 -0.0385519 0.99835 
0.0418712 -0.0330796 0.998575 
0.0408757 -0.0292729 0.998735 
0.0436087 -0.0261841 0.998705 
0.0416289 -0.0214526 0.998903 
0.0439344 -0.0192726 0.998849 
0.0433126 -0.0161352 0.998931 
0.0432712 -0.0123701 0.998987 
0.0435546 -0.00848448 0.999015 
0.0429932 -0.00447245 0.999065 
0.0427936 -0.000129887 0.999084 
0.0439175 0.00443799 0.999025 
0.0428435 0.00914265 0.99904 
0.0417879 0.0148074 0.999017 
0.0404496 0.0220448 0.998938 
0.0401201 0.0300184 0.998744 
0.0392894 0.0401054 0.998423 
0.0384684 0.0531327 0.997846 
0.0367821 0.0692472 0.996921 
0.0348496 0.0896347 0.995365 
0.0323176 0.115758 0.992752 
0.03009 0.147416 0.988617 
0.0274314 0.19079 0.981247 
0.0233737 0.243184 0.969699 
0.0192321 0.308529 0.951021 
0.0139567 0.386367 0.92224 
0.00864517 0.46994 0.882656 
0.0036017 0.574745 0.818325 
0.00565937 0.619302 0.785132 
0.00130293 0.761434 0.648241 
-0.000944855 0.859334 0.511414 
-0.00296378 0.952139 0.305652 
-0.00439692 0.996416 0.0844776 
-0.00530047 0.997927 -0.0641414 
-0.00584269 0.980787 -0.194995 
-0.00543166 0.951117 -0.308782 
-0.0067143 0.894366 -0.447285 
-0.00705284 0.807354 -0.590025 
-0.00866304 0.710296 -0.703849 
-0.0109264 0.561629 -0.827317 
-0.0142994 0.454236 -0.890767 
-0.0170986 0.371246 -0.928377 
-0.0221462 0.290704 -0.956557 
-0.0257752 0.227585 -0.973417 
-0.0290626 0.174229 -0.984276 
-0.0315381 0.134099 -0.990466 
-0.0344163 0.103531 -0.994031 
-0.0350505 0.0804235 -0.996144 
-0.0367031 0.0610053 -0.997462 
-0.0382877 0.0464678 -0.998186 
-0.0397612 0.034629 -0.998609 
-0.0410782 0.0250633 -0.998842 
-0.0421829 0.0174666 -0.998957 
-0.0425701 0.0111782 -0.999031 
-0.0423533 0.00641635 -0.999082 
-0.0425336 0.00197557 -0.999093 
-0.0429658 -0.00175685 -0.999075 
-0.04366 -0.00545087 -0.999032 
-0.0434311 -0.00914036 -0.999015 
-0.0432382 -0.0129541 -0.998981 
-0.0432743 -0.0171328 -0.998916 
-0.04312 -0.0213115 -0.998843 
-0.042837 -0.0253481 -0.99876 
-0.0420899 -0.0290397 -0.998692 
-0.0415361 -0.0324307 -0.998611 
-0.0415118 -0.0362576 -0.99848 
-0.0424129 -0.0399876 -0.9983 
-0.0421502 -0.0447717 -0.998108 
-0.0388466 -0.0505487 -0.997966 
-0.0382655 -0.0573926 -0.997618 
-0.0331964 -0.0589963 -0.997706 
-0.0229938 -0.0403081 -0.998923 
0.000659354 3.38103e-06 -1 
0.00231829 0.00174012 0.999996 
0.00760754 -0.0187481 0.999795 
0.0269517 -0.0620638 0.997708 
0.0311182 -0.0590945 0.997767 
0.0320517 -0.0494571 0.998262 
0.0385104 -0.0428345 0.99834 
0.031017 -0.0394198 0.998741 
0.0354172 -0.0348722 0.998764 
0.033508 -0.03041 0.998976 
0.035556 -0.0266274 0.999013 
0.0354498 -0.0240809 0.999081 
0.0329883 -0.0217485 0.999219 
0.0350999 -0.0185244 0.999212 
0.0360554 -0.0150217 0.999237 
0.0360361 -0.0111274 0.999289 
0.0358983 -0.00728759 0.999329 
0.0355536 -0.00303127 0.999363 
0.0357421 0.00151591 0.99936 
0.0359168 0.0056255 0.999339 
0.0347042 0.0106681 0.999341 
0.0340353 0.0168902 0.999278 
0.0321073 0.0242915 0.999189 
0.0319426 0.0328698 0.998949 
0.0314521 0.0440035 0.998536 
0.0304386 0.0578291 0.997862 
0.0287335 0.0756142 0.996723 
0.0268288 0.0978854 0.994836 
0.0243175 0.126521 0.991666 
0.0230471 0.163157 0.986331 
0.0202084 0.208556 0.977802 
0.0162855 0.269914 0.962747 
0.0121905 0.337797 0.94114 
0.00767455 0.407779 0.913048 
0.00377435 0.500604 0.865668 
0.000243944 0.702913 0.711275 
-0.00305544 0.822951 0.568104 
-0.00392273 0.910655 0.413148 
-0.00585346 0.934861 0.354966 
-0.0049123 0.979623 0.200786 
-0.00664306 0.999729 -0.0223068 
-0.00784245 0.982288 -0.187216 
-0.00599151 0.965714 -0.259538 
-0.00544039 0.876787 -0.480849 
-0.00640153 0.763429 -0.64586 
-0.00785326 0.64645 -0.762916 
-0.00738813 0.563445 -0.82612 
-0.00979383 0.479142 -0.877683 
-0.0114082 0.393552 -0.919232 
-0.0156353 0.315741 -0.948717 
-0.0195126 0.24825 -0.968499 
-0.0225006 0.193184 -0.980905 
-0.0245598 0.149964 -0.988386 
-0.0264915 0.112715 -0.993274 
-0.0273942 0.089959 -0.995569 
-0.0289006 0.0676025 -0.997294 
-0.0299652 0.0510962 -0.998244 
-0.0314078 0.0385691 -0.998762 
-0.0328798 0.0282635 -0.99906 
-0.0343823 0.0201497 -0.999206 
-0.0351562 0.0137764 -0.999287 
-0.0341688 0.00845673 -0.99938 
-0.0346507 0.00391156 -0.999392 
-0.0344842 -0.000246173 -0.999405 
-0.0356645 -0.00393442 -0.999356 
-0.0359065 -0.00749047 -0.999327 
-0.0356159 -0.0113062 -0.999302 
-0.0358971 -0.0153918 -0.999237 
-0.0356217 -0.0195251 -0.999175 
-0.0354369 -0.0233705 -0.999099 
-0.0349065 -0.0267964 -0.999031 
-0.0335315 -0.030043 -0.998986 
-0.0335263 -0.033767 -0.998867 
-0.0339818 -0.0381248 -0.998695 
-0.0352611 -0.0426224 -0.998469 
-0.0317783 -0.050338 -0.998227 
-0.03009 -0.0592235 -0.997791 
-0.0260639 -0.058064 -0.997973 
-0.016784 -0.0354014 -0.999232 
0.000410153 4.54206e-05 -1 
0.000394183 0.00076824 1 
0.00831422 -0.0324978 0.999437 
0.0193655 -0.0455706 0.998773 
0.0195242 -0.0607759 0.99796 
0.0228728 -0.0605752 0.997902 
0.0252338 -0.0424842 0.998778 
0.0257979 -0.0345241 0.999071 
0.0271156 -0.031208 0.999145 
0.0287867 -0.0273376 0.999212 
0.0279093 -0.0250022 0.999298 
0.0265973 -0.0229714 0.999382 
0.0278585 -0.0195 0.999422 
0.0289836 -0.015896 0.999453 
0.0291519 -0.0119103 0.999504 
0.0285561 -0.00783213 0.999562 
0.0287048 -0.00389311 0.99958 
0.0289086 0.00049729 0.999582 
0.0278838 0.00508885 0.999598 
0.0277044 0.00947723 0.999571 
0.0274039 0.0151874 0.999509 
0.026063 0.021902 0.99942 
0.0250515 0.0306545 0.999216 
0.0247941 0.040621 0.998867 
0.0239126 0.0534326 0.998285 
0.0226472 0.0695677 0.99732 
0.0208636 0.0901808 0.995707 
0.0189895 0.115715 0.993101 
0.0173147 0.150887 0.988399 
0.0153996 0.191496 0.981373 
0.0129417 0.245707 0.969258 
0.00918162 0.312581 0.949847 
0.00584186 0.392864 0.919578 
0.00300822 0.506103 0.862468 
0.00117424 0.614267 0.789097 
0.000759696 0.628617 0.777715 
-0.00162933 0.73871 0.674022 
-0.00461506 0.853211 0.521545 
-0.00464765 0.921795 0.387651 
-0.00711314 0.986894 0.161215 
-0.00649266 0.999975 -0.00291621 
-0.00700295 0.982949 -0.183746 
-0.00870448 0.92605 -0.3773 
-0.00770726 0.915081 -0.403197 
-0.0061298 0.802268 -0.596933 
-0.00601753 0.675788 -0.737072 
-0.00585696 0.567904 -0.823074 
-0.00702411 0.466863 -0.884302 
-0.0090091 0.371816 -0.928263 
-0.0121604 0.294264 -0.955647 
-0.0151719 0.230895 -0.97286 
-0.0170968 0.181243 -0.98329 
-0.0196337 0.137599 -0.990293 
-0.0190347 0.109147 -0.993843 
-0.0216791 0.0833102 -0.996288 
-0.0227794 0.063269 -0.997737 
-0.0235099 0.0480695 -0.998567 
-0.025076 0.0359368 -0.999039 
-0.0263523 0.0262745 -0.999307 
-0.0273707 0.0188136 -0.999448 
-0.0278349 0.012839 -0.99953 
-0.0274131 0.00752987 -0.999596 
-0.0280001 0.00300864 -0.999603 
-0.0279368 -0.00110672 -0.999609 
-0.0285753 -0.00470651 -0.999581 
-0.0287985 -0.00837008 -0.99955 
-0.0286774 -0.0123868 -0.999512 
-0.028615 -0.0164684 -0.999455 
-0.0282728 -0.020517 -0.99939 
-0.0280384 -0.0241449 -0.999315 
-0.0275354 -0.0272573 -0.999249 
-0.0265095 -0.030367 -0.999187 
-0.0267534 -0.0343886 -0.99905 
-0.0266585 -0.0389978 -0.998884 
-0.0277842 -0.0439419 -0.998648 
-0.0246194 -0.0515499 -0.998367 
-0.0242132 -0.0600885 -0.997899 
-0.0211628 -0.0609249 -0.997918 
-0.0146721 -0.0397813 -0.999101 
0.000375456 -7.47813e-05 -1 
-0.000102705 0.000115484 1 
0.00766451 -0.0391851 0.999203 
0.0124777 -0.0388484 0.999167 
0.0177141 -0.0608601 0.997989 
0.0241809 -0.0515834 0.998376 
0.0198474 -0.0429329 0.998881 
0.0213661 -0.0360283 0.999122 
0.0205881 -0.0306847 0.999317 
0.023441 -0.0283217 0.999324 
0.0225707 -0.0261372 0.999404 
0.0218476 -0.024355 0.999465 
0.0229816 -0.0212253 0.999511 
0.0235266 -0.0173284 0.999573 
0.0240855 -0.0134349 0.99962 
0.0238319 -0.009382 0.999672 
0.0235493 -0.00525527 0.999709 
0.0239907 -0.00116576 0.999712 
0.0234097 0.0032307 0.999721 
0.0221772 0.00801259 0.999722 
0.02257 0.0130012 0.999661 
0.0217044 0.0190142 0.999584 
0.0210327 0.0267432 0.999421 
0.0200141 0.0365213 0.999132 
0.0194956 0.0479918 0.998657 
0.0183978 0.0629461 0.997847 
0.0170013 0.0818197 0.996502 
0.0152123 0.105454 0.994308 
0.0139211 0.137241 0.99044 
0.0117752 0.176742 0.984187 
0.010235 0.225085 0.974285 
0.00777775 0.283662 0.958893 
0.00505791 0.359011 0.933319 
0.002935 0.461356 0.88721 
0.00152909 0.578783 0.81548 
-0.00147132 0.744983 0.667082 
-0.0012241 0.833374 0.552708 
0.000155752 0.899115 0.437713 
-0.0021483 0.980301 0.197498 
-0.00475124 0.974854 0.222794 
-0.00358174 0.99998 0.00515736 
-0.0014054 0.994274 0.106848 
-0.00473174 0.995959 -0.089688 
-0.00791465 0.820074 -0.572202 
-0.00799331 0.837609 -0.546211 
-0.00588772 0.689343 -0.724411 
-0.00514415 0.577482 -0.816387 
-0.0055071 0.471692 -0.881746 
-0.0066601 0.385868 -0.92253 
-0.00864069 0.306043 -0.951978 
-0.0108394 0.240948 -0.970478 
-0.0122693 0.190412 -0.981628 
-0.0144493 0.150321 -0.988532 
-0.0141014 0.123015 -0.992305 
-0.0163969 0.0928791 -0.995542 
-0.0178628 0.0715722 -0.997275 
-0.0186826 0.0543144 -0.998349 
-0.0198959 0.0402124 -0.998993 
-0.021123 0.0297095 -0.999335 
-0.021996 0.0213611 -0.99953 
-0.0225383 0.0148313 -0.999636 
-0.0228523 0.00946397 -0.999694 
-0.0231197 0.00442519 -0.999723 
-0.0233607 0.000268551 -0.999727 
-0.0234079 -0.00380104 -0.999719 
-0.0236844 -0.0074846 -0.999691 
-0.023802 -0.0113799 -0.999652 
-0.0235247 -0.0156441 -0.999601 
-0.023248 -0.0198089 -0.999533 
-0.0229875 -0.0236032 -0.999457 
-0.0226069 -0.0266611 -0.999389 
-0.02199 -0.0294135 -0.999325 
-0.0218488 -0.0332425 -0.999208 
-0.0215156 -0.0380852 -0.999043 
-0.0218598 -0.0442438 -0.998782 
-0.0199612 -0.0535643 -0.998365 
-0.0195875 -0.0618989 -0.99789 
-0.016349 -0.0579426 -0.998186 
-0.00986986 -0.0351934 -0.999332 
0.000308695 6.54942e-05 -1 
-7.53716e-05 -4.03502e-05 1 
0.006439 -0.0413735 0.999123 
0.0144471 -0.0566023 0.998292 
0.0145576 -0.0590606 0.998148 
0.0184581 -0.0516809 0.998493 
0.0160991 -0.0405789 0.999047 
0.017634 -0.0343943 0.999253 
0.0167101 -0.0303774 0.999399 
0.0187641 -0.0279057 0.999434 
0.0180465 -0.0263636 0.99949 
0.0187268 -0.0239276 0.999538 
0.0196218 -0.020541 0.999596 
0.0197288 -0.0166134 0.999667 
0.0202056 -0.01262 0.999716 
0.0200644 -0.00848364 0.999763 
0.0198459 -0.00446394 0.999793 
0.0201221 -0.000492222 0.999797 
0.0195097 0.00382279 0.999802 
0.0184512 0.00846246 0.999794 
0.0185565 0.0135893 0.999735 
0.0180428 0.0199037 0.999639 
0.017535 0.0276399 0.999464 
0.016549 0.0370502 0.999176 
0.015805 0.0486906 0.998689 
0.0148585 0.0631292 0.997895 
0.0134826 0.081988 0.996542 
0.0120459 0.106762 0.994212 
0.0108191 0.137283 0.990473 
0.00907081 0.177081 0.984154 
0.007453 0.227796 0.97368 
0.00553097 0.292856 0.956141 
0.00337186 0.383658 0.923469 
0.00196617 0.49289 0.87009 
0.00230017 0.651441 0.758696 
0.000518027 0.694053 0.719924 
-0.00097386 0.900092 0.435698 
-0.00176351 0.980081 0.198589 
0.00202095 0.991298 0.131623 
0.00205473 0.995438 0.0953915 
0.00132486 0.998775 0.0494552 
-0.000870304 0.999897 -0.0143316 
-0.00241881 0.994034 -0.109042 
-0.0065711 0.966921 -0.254993 
-0.00682156 0.908079 -0.418743 
-0.00604635 0.703209 -0.710957 
-0.00374494 0.595135 -0.803617 
-0.00410613 0.483127 -0.875541 
-0.00479084 0.392575 -0.919707 
-0.00629143 0.318806 -0.947799 
-0.00793613 0.252962 -0.967444 
-0.009156 0.198736 -0.98001 
-0.0106624 0.155349 -0.987802 
-0.01204 0.111007 -0.993747 
-0.013499 0.0856833 -0.996231 
-0.0147902 0.0657894 -0.997724 
-0.0159003 0.0488522 -0.998679 
-0.0167933 0.0362783 -0.999201 
-0.0178069 0.0268945 -0.99948 
-0.0184214 0.0193161 -0.999644 
-0.0188561 0.0131861 -0.999735 
-0.0195289 0.0078289 -0.999779 
-0.0194877 0.00327323 -0.999805 
-0.0198275 -0.00089837 -0.999803 
-0.019628 -0.0047688 -0.999796 
-0.0198546 -0.00852137 -0.999767 
-0.0199611 -0.012495 -0.999723 
-0.0195952 -0.0166955 -0.999669 
-0.0193705 -0.0207959 -0.999596 
-0.0191036 -0.0243509 -0.999521 
-0.0187402 -0.0271404 -0.999456 
-0.0184447 -0.0299251 -0.999382 
-0.0180284 -0.0334683 -0.999277 
-0.0177573 -0.0384376 -0.999103 
-0.0181239 -0.0452978 -0.998809 
-0.0165274 -0.0537332 -0.998419 
-0.0163869 -0.0619186 -0.997947 
-0.0139275 -0.0592372 -0.998147 
-0.00812711 -0.035696 -0.99933 
0.00018482 5.20298e-05 -1 
-8.82624e-05 -7.32644e-05 1 
0.00506133 -0.04159 0.999122 
0.0123731 -0.0601529 0.998112 
0.0116 -0.0589964 0.998191 
0.0147088 -0.0490693 0.998687 