# vtk DataFile Version 3.0 
Exported using Morpho https://github.com/Morpho-lang/morpho 
ASCII 
DATASET UNSTRUCTURED_GRID 

POINTS 1978 float 
-12 -4 -5.61952e-12 
-11.6013 -4 1.04731e-11 
-11.3001 -4 1.91009e-11 
-10.9505 -4 9.33993e-12 
-10.6389 -4 1.01745e-11 
-10.2964 -4 8.21514e-12 
-9.97525 -4 5.28401e-12 
-9.65404 -4 2.77118e-12 
-9.31704 -4 2.3313e-12 
-8.99641 -4 1.32884e-12 
-8.68252 -4 2.61729e-13 
-8.36825 -4 4.98309e-14 
-8.0607 -4 -1.47742e-13 
-7.76342 -4 -2.54882e-13 
-7.48154 -4 -4.29403e-13 
-7.1887 -4 -1.3275e-12 
-6.89059 -4 -1.05789e-12 
-6.59599 -4 -1.1586e-12 
-6.2954 -4 -1.74785e-12 
-5.98731 -4 -2.16775e-12 
-5.6809 -4 -2.59149e-12 
-5.37613 -4 -3.11033e-12 
-5.07297 -4 -3.99758e-12 
-4.77854 -4 -5.64485e-12 
-4.4478 -4 -6.11112e-12 
-4.15947 -4 -7.23081e-12 
-3.862 -4 -1.0896e-11 
-3.54409 -4 -1.25297e-11 
-3.24966 -4 -1.36402e-11 
-2.95827 -4 -1.58397e-11 
-2.66773 -4 -1.50302e-11 
-2.40023 -4 -1.47974e-11 
-2.13648 -4 -1.89407e-11 
-1.84854 -4 -1.63927e-11 
-1.56213 -4 -1.61313e-11 
-1.26825 -4 -2.2947e-11 
-0.96409 -4 -3.68456e-11 
-0.656956 -4 -6.14427e-11 
-0.376826 -4 -1.56943e-10 
0.0324322 -4 1.73322e-10 
0.364847 -4 9.31226e-11 
0.656195 -4 5.41816e-11 
0.937887 -4 1.66063e-11 
1.23816 -4 1.60955e-11 
1.51378 -4 1.2329e-11 
1.78677 -4 1.21541e-11 
2.07099 -4 1.67664e-11 
2.35631 -4 2.25019e-11 
2.6798 -4 2.15526e-11 
2.97301 -4 1.84958e-11 
3.29501 -4 1.4207e-11 
3.58013 -4 1.04351e-11 
3.87724 -4 9.77101e-12 
4.19002 -4 8.13902e-12 
4.49005 -4 5.71072e-12 
4.78633 -4 4.8607e-12 
5.09828 -4 4.20602e-12 
5.40574 -4 3.43789e-12 
5.71787 -4 2.67006e-12 
6.0115 -4 2.01426e-12 
6.30624 -4 1.62112e-12 
6.59675 -4 1.14993e-12 
6.89718 -4 1.30584e-12 
7.17311 -4 4.4044e-13 
7.47403 -4 7.32526e-13 
7.76957 -4 4.98953e-13 
8.06742 -4 -3.00482e-14 
8.35844 -4 4.3913e-13 
8.65639 -4 -4.83874e-13 
8.93484 -4 -1.53521e-12 
9.2813 -4 -2.30194e-12 
9.60929 -4 -2.40755e-12 
9.90158 -4 -5.46643e-12 
10.2698 -4 -7.64152e-12 
10.5853 -4 -1.13574e-11 
10.9775 -4 -1.02065e-11 
11.2955 -4 -1.75747e-11 
11.5886 -4 -1.14376e-11 
12 -4 5.27107e-12 
-12 -3.61088 -3.82568e-12 
-11.7077 -3.71276 -1.20799e-11 
-11.3578 -3.62312 -1.82524e-11 
-11.0448 -3.67639 -2.04339e-11 
-10.7088 -3.63999 -2.03516e-11 
-10.3945 -3.67538 -1.73606e-11 
-10.0592 -3.66213 -1.43513e-11 
-9.73417 -3.66862 -4.97557e-12 
-9.39994 -3.68368 -1.06385e-11 
-9.06243 -3.66679 -4.50875e-12 
-8.74601 -3.66115 -3.26877e-12 
-8.43012 -3.66781 -1.55155e-12 
-8.11486 -3.66518 -6.35006e-13 
-7.80413 -3.65957 1.50617e-13 
-7.50401 -3.648 1.02221e-12 
-7.21037 -3.66429 1.95528e-12 
-6.90379 -3.66753 2.55466e-12 
-6.59513 -3.65827 3.15853e-12 
-6.28156 -3.67036 3.81835e-12 
-5.97031 -3.66731 4.9404e-12 
-5.66152 -3.66425 6.25488e-12 
-5.35548 -3.66178 8.15168e-12 
-5.05974 -3.65304 1.00213e-11 
-4.73504 -3.69267 1.47554e-11 
-4.44266 -3.65584 1.64929e-11 
-4.14247 -3.67159 2.0283e-11 
-3.82788 -3.69655 2.59493e-11 
-3.5228 -3.68434 5.47645e-11 
-3.22229 -3.6817 4.25575e-11 
-2.92711 -3.6741 1.53941e-10 
-2.65013 -3.65255 -6.60544e-11 
-2.37388 -3.65402 9.68115e-11 
-2.08118 -3.69286 9.81445e-11 
-1.7904 -3.67965 4.67955e-11 
-1.49207 -3.67207 6.30169e-11 
-1.1816 -3.66516 3.23217e-11 
-0.862577 -3.65091 4.22562e-14 
-0.571639 -3.55416 -4.3246e-11 
-0.239014 -3.69415 -5.87107e-10 
0.0371318 -3.51429 -1.932e-10 
0.314602 -3.60545 3.47399e-10 
0.615067 -3.58331 -1.31885e-10 
0.908105 -3.61083 1.15169e-11 
1.19655 -3.67684 -7.0609e-11 
1.5103 -3.66054 2.12018e-11 
1.79919 -3.66903 -1.17583e-10 
2.09438 -3.67822 -2.26959e-11 
2.41912 -3.72255 -7.6012e-11 
2.72769 -3.68756 -6.90766e-11 
3.04301 -3.7044 -4.98911e-11 
3.33233 -3.66197 -5.01941e-11 
3.62733 -3.67227 -3.55355e-11 
3.93486 -3.68381 -2.7394e-11 
4.23477 -3.66661 -2.07745e-11 
4.5295 -3.65889 -1.564e-11 
4.83654 -3.67311 -1.21709e-11 
5.14498 -3.66773 -9.27216e-12 
5.45836 -3.67252 -7.73523e-12 
5.76058 -3.65419 -6.0266e-12 
6.0608 -3.65895 -4.76091e-12 
6.3568 -3.65361 -3.67324e-12 
6.66221 -3.66858 -3.13675e-12 
6.94877 -3.63917 -2.18006e-12 
7.24894 -3.66809 -1.51145e-12 
7.55018 -3.66088 -8.78726e-13 
7.85238 -3.66147 -3.08204e-13 
8.14967 -3.6525 5.07385e-13 
8.44498 -3.65856 1.74422e-12 
8.73319 -3.63048 3.38496e-12 
9.0548 -3.70127 5.55068e-12 
9.38758 -3.67884 7.34053e-12 
9.69422 -3.63356 9.11173e-12 
10.0297 -3.70719 1.33008e-11 
10.3586 -3.65392 1.44397e-11 
10.7218 -3.71768 1.98789e-11 
11.0551 -3.64732 1.85113e-11 
11.3579 -3.61364 1.85689e-11 
11.7119 -3.72383 1.33701e-11 
12 -3.60407 3.74543e-12 
-12 -3.30577 -3.70975e-12 
-11.6327 -3.3627 -1.08894e-11 
-11.2878 -3.27826 -1.44132e-11 
-10.9757 -3.33161 -1.53737e-11 
-10.6582 -3.28773 -1.98744e-11 
-10.3375 -3.34243 -1.65744e-11 
-10.0101 -3.32815 -1.49645e-11 
-9.6954 -3.32341 -1.45123e-11 
-9.39037 -3.36399 -5.20413e-12 
-9.08098 -3.32435 -6.73616e-12 
-8.77382 -3.31903 -3.80367e-12 
-8.46825 -3.33151 -2.31097e-12 
-8.16003 -3.33136 -9.60022e-13 
-7.8526 -3.32759 -4.28537e-16 
-7.54851 -3.30817 9.20334e-13 
-7.24857 -3.31978 1.51958e-12 
-6.95178 -3.33926 2.15489e-12 
-6.64415 -3.33052 2.87946e-12 
-6.33253 -3.3419 3.81209e-12 
-6.02215 -3.33742 5.04988e-12 
-5.71255 -3.33155 6.38478e-12 
-5.40511 -3.3266 8.16043e-12 
-5.10302 -3.30812 1.05509e-11 
-4.80288 -3.37071 1.33995e-11 
-4.50203 -3.32219 1.69781e-11 
-4.20308 -3.34175 2.1721e-11 
-3.89968 -3.38002 3.27409e-11 
-3.59625 -3.37631 3.53094e-11 
-3.28633 -3.37021 2.8329e-11 
-2.97777 -3.35417 3.52265e-11 
-2.67389 -3.30927 7.60272e-11 
-2.38849 -3.31577 1.61778e-10 
-2.09512 -3.37467 5.07784e-11 
-1.79112 -3.35843 7.61975e-11 
-1.4719 -3.34696 1.60671e-11 
-1.14357 -3.32732 -1.13297e-11 
-0.845287 -3.25514 -1.31706e-10 
-0.535132 -3.11386 -2.78476e-11 
-0.270933 -3.28421 2.36974e-10 
0.0169632 -3.0537 -2.07362e-09 
0.307129 -3.16711 -7.49424e-11 
0.59839 -3.15163 4.54799e-10 
0.888951 -3.21455 4.04606e-11 
1.19046 -3.30536 5.19791e-11 
1.47539 -3.34076 -8.65585e-11 
1.79396 -3.33565 -6.57965e-11 
2.083 -3.35676 -8.89126e-11 
2.38301 -3.42866 -9.29031e-11 
2.67443 -3.36976 -6.7905e-11 
2.97996 -3.39881 -6.02758e-11 
3.2811 -3.33622 -4.15172e-11 
3.58271 -3.34208 -3.81239e-11 
3.8813 -3.36106 -2.99671e-11 
4.18143 -3.3383 -2.32327e-11 
4.48025 -3.32071 -1.74682e-11 
4.77868 -3.34043 -1.3593e-11 
5.08125 -3.33876 -1.04577e-11 
5.39185 -3.34546 -8.20588e-12 
5.70031 -3.32224 -6.42508e-12 
6.01055 -3.31937 -4.88683e-12 
6.30943 -3.31228 -3.93411e-12 
6.61263 -3.33675 -3.10691e-12 
6.9125 -3.29269 -2.36292e-12 
7.21048 -3.32997 -1.58916e-12 
7.51168 -3.32647 -9.38282e-13 
7.8158 -3.32729 -1.13666e-13 
8.12119 -3.31217 8.38677e-13 
8.4218 -3.30856 1.94352e-12 
8.74485 -3.31041 3.95982e-12 
9.06922 -3.38307 5.72026e-12 
9.38304 -3.33903 8.22618e-12 
9.69611 -3.29011 1.03004e-11 
10.0092 -3.3811 1.22801e-11 
10.309 -3.30099 1.74003e-11 
10.6321 -3.39919 2.01303e-11 
10.9619 -3.33034 1.72608e-11 
11.292 -3.25251 1.42889e-11 
11.629 -3.37256 1.01804e-11 
12 -3.297 3.66372e-12 
-12 -2.98148 3.78031e-12 
-11.6563 -3.04652 -4.02872e-12 
-11.3108 -2.95954 -1.20851e-12 
-10.9622 -2.97735 -4.41126e-12 
-10.6214 -2.95977 -8.96706e-12 
-10.2933 -3.00684 -6.07622e-12 
-9.97188 -2.98776 -7.77703e-12 
-9.65518 -2.98144 2.83789e-12 
-9.35267 -3.01826 -7.17048e-12 
-9.0451 -2.97944 -2.93776e-12 
-8.73938 -2.97521 -2.3551e-12 
-8.43553 -2.99339 -1.24991e-12 
-8.12865 -2.99554 -7.20431e-13 
-7.82733 -2.98981 -2.19156e-13 
-7.52411 -2.97186 9.6022e-15 
-7.22476 -2.98385 4.96951e-13 
-6.92163 -3.01107 1.03527e-12 
-6.61215 -3.00519 1.33907e-12 
-6.306 -3.01251 1.88199e-12 
-5.9991 -3.00636 2.22063e-12 
-5.69305 -2.99927 2.54656e-12 
-5.39069 -2.99073 3.32945e-12 
-5.08872 -2.97571 4.22346e-12 
-4.79054 -3.03749 6.78696e-12 
-4.49191 -2.99063 7.21319e-12 
-4.19756 -3.01398 1.05527e-11 
-3.90225 -3.05866 1.5376e-11 
-3.59951 -3.05655 2.38873e-11 
-3.29838 -3.05808 3.79702e-11 
-2.98355 -3.03483 4.36615e-11 
-2.68641 -2.97494 1.99431e-11 
-2.37873 -2.9652 -3.7914e-11 
-2.08996 -3.0489 8.22763e-11 
-1.77443 -3.03525 1.89861e-11 
-1.44967 -3.0135 3.53325e-12 
-1.1635 -2.93907 -1.98018e-11 
-0.848626 -2.87368 -7.00748e-11 
-0.553091 -2.70145 2.40735e-10 
-0.222211 -2.80565 7.55783e-10 
0.0858789 -2.42741 9.26779e-10 
0.228484 -2.6916 2.37934e-09 
0.506705 -2.72683 -1.25094e-10 
0.83127 -2.79164 1.46256e-10 
1.14803 -2.9293 5.19179e-12 
1.45922 -2.95624 8.52595e-12 
1.74453 -3.01876 -2.59572e-11 
2.06891 -3.01081 -6.75517e-11 
2.36146 -3.10433 -5.52972e-11 
2.66169 -3.0392 -3.75295e-11 
2.9608 -3.07941 -3.62134e-11 
3.26418 -3.0132 -2.1746e-11 
3.57016 -3.02109 -1.71005e-11 
3.87871 -3.03227 -1.56292e-11 
4.1758 -3.00774 -1.0314e-11 
4.47661 -2.99307 -7.98781e-12 
4.77773 -3.00622 -6.52025e-12 
5.07552 -3.00532 -5.21247e-12 
5.3756 -3.01829 -4.0673e-12 
5.67944 -2.99121 -2.72536e-12 
5.98539 -2.99483 -2.2754e-12 
6.2977 -2.97117 -1.50495e-12 
6.59581 -3.00204 -1.42121e-12 
6.91648 -2.97646 -9.25367e-13 
7.23323 -2.99404 -5.27104e-13 
7.5335 -2.99151 -1.37458e-13 
7.83766 -2.9942 3.30964e-13 
8.13443 -2.97133 8.40522e-13 
8.44711 -2.98698 1.43188e-12 
8.74598 -2.96523 2.12333e-12 
9.04733 -3.05494 4.14612e-12 
9.35793 -3.00603 4.43028e-12 
9.65744 -2.94526 4.03389e-12 
9.98077 -3.02868 6.78225e-12 
10.3164 -2.9745 6.75113e-12 
10.6493 -3.06285 1.2347e-11 
10.9814 -2.98977 3.95257e-12 
11.3337 -2.93031 2.24274e-13 
11.6657 -3.0549 2.99185e-12 
12 -2.96 -2.79641e-12 
-12 -2.6655 1.06542e-12 
-11.6489 -2.71969 1.71292e-12 
-11.3131 -2.62987 7.64126e-12 
-10.9751 -2.65478 6.14249e-12 
-10.6384 -2.63432 -3.22734e-13 
-10.3007 -2.67099 -9.7725e-13 
-9.97353 -2.65599 2.76923e-12 
-9.64331 -2.66007 -9.35435e-13 
-9.31581 -2.67318 -2.3633e-12 
-9.00003 -2.64127 -1.4744e-12 
-8.68859 -2.63899 -1.29976e-12 
-8.37804 -2.6637 -9.89736e-13 
-8.07179 -2.65874 -6.76875e-13 
-7.76444 -2.6571 -3.47241e-13 
-7.45268 -2.64282 -8.71199e-15 
-7.14454 -2.66234 2.08875e-13 
-6.84151 -2.68552 5.33463e-13 
-6.53119 -2.67774 4.55078e-13 
-6.2271 -2.6817 5.84954e-13 
-5.92116 -2.67462 5.6539e-13 
-5.6178 -2.66583 9.02235e-13 
[...]
POINT_DATA 1978 
VECTORS vectors float
0.000249153 -8.54028e-05 1 
0.000656455 -0.0411477 0.999153 
0.000426028 -0.0476158 0.998866 
0.000477809 -0.0402996 0.999188 
0.000451122 -0.0336347 0.999434 
0.000476558 -0.0255367 0.999674 
0.000450256 -0.0183698 0.999831 
0.000476609 -0.0123628 0.999923 
0.000481688 -0.00772294 0.99997 
0.000470485 -0.00439842 0.99999 
0.000483879 -0.00200669 0.999998 
0.000489027 -0.000443337 1 
0.000493247 0.000560139 1 
0.00047882 0.00123679 0.999999 
0.00047775 0.00181633 0.999998 
0.000497586 0.00246217 0.999997 
0.000488804 0.00314991 0.999995 
0.000480893 0.00395429 0.999992 
0.000493097 0.00505134 0.999987 
0.00048881 0.00638508 0.999979 
0.000483763 0.00806111 0.999967 
0.000494076 0.0101271 0.999949 
0.00045849 0.0129428 0.999916 
0.000497502 0.0164141 0.999865 
0.0004879 0.0215425 0.999768 
0.000437291 0.0279688 0.999609 
0.000484588 0.036789 0.999323 
0.000463465 0.0497068 0.998764 
0.000425333 0.0663406 0.997797 
0.000431398 0.0889129 0.996039 
0.000393633 0.119598 0.992822 
0.000327401 0.15832 0.987388 
0.000320438 0.208635 0.977993 
0.000270151 0.280728 0.959787 
0.000191097 0.372203 0.928151 
0.000114096 0.4921 0.870539 
1.58111e-05 0.639484 0.768805 
-3.02619e-05 0.798062 0.602575 
-4.98925e-05 0.92543 0.378919 
5.11943e-06 0.999507 -0.0313843 
5.8091e-05 0.929816 -0.368025 
5.01564e-05 0.798853 -0.601526 
-1.93256e-05 0.652552 -0.757744 
-0.000100271 0.505841 -0.862627 
-0.00017235 0.392406 -0.919792 
-0.000248063 0.296751 -0.954955 
-0.000291149 0.220659 -0.975351 
-0.000379102 0.163987 -0.986462 
-0.000392291 0.117806 -0.993037 
-0.00042913 0.0872667 -0.996185 
-0.000451358 0.0631977 -0.998001 
-0.000428995 0.047646 -0.998864 
-0.000479435 0.0359615 -0.999353 
-0.000481034 0.0271919 -0.99963 
-0.000460873 0.0209486 -0.99978 
-0.000484481 0.0163804 -0.999866 
-0.000484096 0.0128061 -0.999918 
-0.000488762 0.0100751 -0.999949 
-0.000487689 0.00793339 -0.999968 
-0.000481921 0.0063264 -0.99998 
-0.000480598 0.00498405 -0.999987 
-0.000503992 0.00402979 -0.999992 
-0.000477399 0.00321172 -0.999995 
-0.000478545 0.0024224 -0.999997 
-0.000503345 0.00181525 -0.999998 
-0.00048729 0.00116246 -0.999999 
-0.000481954 0.000349883 -1 
-0.000504989 -0.000475317 -1 
-0.000453015 -0.001891 -0.999998 
-0.000475996 -0.00399053 -0.999992 
-0.00052146 -0.00719754 -0.999974 
-0.000422252 -0.0117332 -0.999931 
-0.000488206 -0.0170421 -0.999855 
-0.000451775 -0.025004 -0.999687 
-0.000443786 -0.032289 -0.999478 
-0.000498314 -0.0407235 -0.99917 
-0.000370683 -0.0478177 -0.998856 
-0.000677723 -0.0417548 -0.999128 
-0.000263359 -0.000102826 -1 
-0.000356945 -0.000846788 1 
0.0102606 -0.0292588 0.999519 
0.0171686 -0.0400609 0.99905 
0.0178003 -0.0402013 0.999033 
0.0199626 -0.0335439 0.999238 
0.0192794 -0.0268454 0.999454 
0.0201044 -0.0199893 0.999598 
0.0203076 -0.0141188 0.999694 
0.0204252 -0.009217 0.999749 
0.0212027 -0.00543731 0.99976 
0.0217651 -0.00284266 0.999759 
0.0220456 -0.00105111 0.999756 
0.0225078 0.000197701 0.999747 
0.0230291 0.00104485 0.999734 
0.0236259 0.00163428 0.99972 
0.0231441 0.00220751 0.99973 
0.0227971 0.00291088 0.999736 
0.0229312 0.00386158 0.99973 
0.0225655 0.00502485 0.999733 
0.0226115 0.00639993 0.999724 
0.0226513 0.00813165 0.99971 
0.0226049 0.0103136 0.999691 
0.0226706 0.0130668 0.999658 
0.0210394 0.0170843 0.999633 
0.0222434 0.0220179 0.99951 
0.0210835 0.0288234 0.999362 
0.0195587 0.0385709 0.999064 
0.0195894 0.0518538 0.998463 
0.0184076 0.0698519 0.997388 
0.0170509 0.094479 0.995381 
0.0160241 0.125579 0.991954 
0.0139294 0.166896 0.985876 
0.0108649 0.225089 0.974278 
0.0084644 0.301564 0.953408 
0.00548942 0.399474 0.916728 
0.00285973 0.529233 0.848472 
0.000920511 0.683089 0.730335 
-2.33577e-05 0.832007 0.554765 
0.000152964 0.966216 0.257734 
0.000374094 0.999539 -0.0303552 
0.000764956 0.949392 -0.314094 
0.00024411 0.8208 -0.571216 
-0.0013005 0.669879 -0.742469 
-0.00332013 0.525009 -0.85109 
-0.00597831 0.392608 -0.919687 
-0.00866129 0.293297 -0.955982 
-0.0113593 0.21725 -0.97605 
-0.0130744 0.155608 -0.987732 
-0.0158748 0.114199 -0.993331 
-0.0169187 0.0833504 -0.996377 
-0.0193995 0.0618725 -0.997896 
-0.019977 0.0464533 -0.998721 
-0.0203575 0.0347338 -0.999189 
-0.021502 0.0264202 -0.99942 
-0.0220395 0.0204045 -0.999549 
-0.0216932 0.0157796 -0.99964 
-0.0221691 0.0123091 -0.999678 
-0.0222929 0.00956807 -0.999706 
-0.0232749 0.00753196 -0.999701 
-0.0232639 0.00597498 -0.999712 
-0.0235972 0.00473963 -0.99971 
-0.0233123 0.00370442 -0.999721 
-0.024427 0.00289762 -0.999697 
-0.0231597 0.00221007 -0.999729 
-0.0234133 0.00152522 -0.999725 
-0.023345 0.000761554 -0.999727 
-0.0235146 -0.000132186 -0.999723 
-0.0231595 -0.00126028 -0.999731 
-0.0237656 -0.0028536 -0.999713 
-0.0204973 -0.00527556 -0.999776 
-0.0207445 -0.00902419 -0.999744 
-0.0217103 -0.0135636 -0.999672 
-0.0185562 -0.0195078 -0.999637 
-0.0198219 -0.0258921 -0.999468 
-0.0172662 -0.0341115 -0.999269 
-0.0187895 -0.0403495 -0.999009 
-0.0174225 -0.0401283 -0.999043 
-0.010059 -0.0290524 -0.999527 
0.00032667 -0.000871744 -1 
3.10754e-05 -0.000487554 1 
0.0164049 -0.0287249 0.999453 
0.024433 -0.0396482 0.998915 
0.0264502 -0.0383535 0.998914 
0.0277931 -0.0313216 0.999123 
0.0281728 -0.0252889 0.999283 
0.0293076 -0.0193813 0.999383 
0.0302505 -0.0141348 0.999442 
0.030333 -0.00953554 0.999494 
0.0316085 -0.00604886 0.999482 
0.0325094 -0.00355025 0.999465 
0.0325366 -0.00168573 0.999469 
0.0328999 -0.000322211 0.999459 
0.0332608 0.000655272 0.999446 
0.0337465 0.00135529 0.99943 
0.0335983 0.00200407 0.999433 
0.033373 0.00273516 0.999439 
0.033454 0.00364349 0.999434 
0.0332034 0.00473309 0.999437 
0.0330233 0.00606602 0.999436 
0.0327999 0.00776089 0.999432 
0.0324879 0.0098999 0.999423 
0.0322573 0.0126188 0.9994 
0.0312544 0.0162864 0.999379 
0.0315108 0.0211443 0.99928 
0.0307451 0.0277069 0.999143 
0.0294145 0.0366136 0.998897 
0.0282143 0.0487289 0.998413 
0.0267155 0.0667788 0.99741 
0.0245756 0.0907147 0.995574 
0.0221153 0.123589 0.992087 
0.0190014 0.166104 0.985925 
0.0153142 0.224993 0.97424 
0.0112724 0.303808 0.952666 
0.00687822 0.412436 0.910961 
0.00312776 0.550387 0.834903 
0.000593009 0.700137 0.714009 
-0.000556502 0.851561 0.524255 
-0.000590166 0.956579 0.291471 
-0.00103056 0.999827 -0.0185466 
-0.000814434 0.950465 -0.310832 
-0.00102639 0.833704 -0.55221 
-0.00212545 0.683322 -0.730114 
-0.00452772 0.534558 -0.84512 
-0.00787349 0.40909 -0.91246 
-0.0120354 0.302395 -0.953107 
-0.0158064 0.226304 -0.973929 
-0.0190068 0.165684 -0.985996 
-0.0222739 0.121349 -0.99236 
-0.0245126 0.0890948 -0.995721 
-0.0270653 0.0668642 -0.997395 
-0.0285625 0.0497384 -0.998354 
-0.0295527 0.0374215 -0.998862 
-0.030549 0.0282296 -0.999135 
-0.0312387 0.0215278 -0.99928 
-0.0315595 0.0166911 -0.999362 
-0.0320462 0.013003 -0.999402 
-0.032419 0.010151 -0.999423 
-0.0329018 0.00791421 -0.999427 
-0.0333634 0.0062023 -0.999424 
-0.0337057 0.00487523 -0.99942 
-0.0336943 0.00377971 -0.999425 
-0.0342084 0.00287356 -0.999411 
-0.0338687 0.00218226 -0.999424 
-0.0337652 0.00146773 -0.999429 
-0.033578 0.000685012 -0.999436 
-0.0334653 -0.000288893 -0.99944 
-0.0330445 -0.00155922 -0.999453 
-0.0327538 -0.00343856 -0.999458 
-0.0309888 -0.00599854 -0.999502 
-0.0309583 -0.00967012 -0.999474 
-0.0306929 -0.0142509 -0.999427 
-0.0285018 -0.0192571 -0.999408 
-0.0287798 -0.0247184 -0.99928 
-0.026727 -0.0314058 -0.999149 
-0.0265296 -0.0381507 -0.99892 
-0.024274 -0.0394158 -0.998928 
-0.01626 -0.0290543 -0.999446 
-2.72827e-05 -0.000499362 -1 
-0.000167978 -0.000534951 1 
0.0154116 -0.0270984 0.999514 
0.0224292 -0.0393525 0.998974 
0.0249792 -0.0373774 0.998989 
0.0261128 -0.0303088 0.999199 
0.0275143 -0.0245094 0.999321 
0.0284119 -0.0192849 0.99941 
0.0293455 -0.0140448 0.999471 
0.030603 -0.00971962 0.999484 
0.0308594 -0.00632878 0.999504 
0.0313214 -0.00373941 0.999502 
0.0319605 -0.0018189 0.999487 
0.0322154 -0.00045099 0.999481 
0.0323252 0.000532569 0.999477 
0.0322328 0.00130747 0.99948 
0.0325423 0.00200681 0.999468 
0.0328273 0.00273727 0.999457 
0.032741 0.00364543 0.999457 
0.0325948 0.00475193 0.999457 
0.0322917 0.00615848 0.99946 
0.0318561 0.00793584 0.999461 
0.031392 0.01015 0.999456 
0.0308844 0.0130561 0.999438 
0.0308854 0.0166899 0.999384 
0.029996 0.0219984 0.999308 
0.0293744 0.0286699 0.999157 
0.0288253 0.0374441 0.998883 
0.0275972 0.0501777 0.998359 
0.0257303 0.0669458 0.997425 
0.0229584 0.0929284 0.995408 
0.0194539 0.126275 0.991804 
0.0164025 0.172488 0.984875 
0.013586 0.233871 0.972173 
0.00954612 0.319246 0.947624 
0.00562845 0.430914 0.902376 
0.00262085 0.5565 0.830843 
0.000795569 0.710836 0.703357 
-9.04554e-05 0.851558 0.52426 
-0.000892655 0.967933 0.251209 
-0.00222188 0.998459 -0.0554533 
-0.00258977 0.965953 -0.258704 
-0.00293872 0.865796 -0.500389 
-0.0028957 0.710844 -0.703343 
-0.0040661 0.55536 -0.8316 
-0.00666336 0.420438 -0.907297 
-0.010179 0.318656 -0.947816 
-0.0140476 0.232883 -0.972403 
-0.0183566 0.172053 -0.984917 
-0.0208782 0.12703 -0.991679 
-0.0235205 0.0932189 -0.995368 
-0.0251832 0.0696494 -0.997254 
-0.0268648 0.0515314 -0.99831 
-0.0282747 0.0381186 -0.998873 
-0.0291764 0.0289738 -0.999154 
-0.0298933 0.0221931 -0.999307 
-0.0305975 0.0170319 -0.999387 
-0.0310923 0.0132406 -0.999429 
-0.0315875 0.0103423 -0.999447 
-0.0319389 0.0081746 -0.999456 
-0.0322078 0.00635446 -0.999461 
-0.0321787 0.00488586 -0.99947 
-0.0325516 0.00375027 -0.999463 
-0.0326856 0.00279321 -0.999462 
-0.0326509 0.00199892 -0.999465 
-0.0326974 0.00128751 -0.999464 
-0.0326533 0.00048478 -0.999467 
-0.0322504 -0.000541904 -0.99948 
-0.0321202 -0.00198795 -0.999482 
-0.0315632 -0.00393459 -0.999494 
-0.0317974 -0.00639783 -0.999474 
-0.0305967 -0.0100491 -0.999481 
-0.0291126 -0.0145133 -0.999471 
-0.0288924 -0.0195568 -0.999391 
-0.0273042 -0.0251696 -0.99931 
-0.0272095 -0.0311327 -0.999145 
-0.0251723 -0.0378561 -0.998966 
-0.0216776 -0.0390625 -0.999002 
-0.0149635 -0.0269688 -0.999524 
0.000268986 -0.000596798 -1 
-0.000153674 -0.000663623 1 
0.0126429 -0.0276347 0.999538 
0.0180399 -0.0398181 0.999044 
0.02026 -0.0376162 0.999087 
0.0214126 -0.0310861 0.999287 
0.0229362 -0.0252206 0.999419 
0.0240943 -0.0201805 0.999506 
0.0253002 -0.0149213 0.999569 
0.0261799 -0.0100966 0.999606 
0.0266514 -0.00648837 0.999624 
0.0271269 -0.00376279 0.999625 
0.0278554 -0.00175753 0.99961 
0.0280071 -0.000362928 0.999608 
0.0281423 0.000641593 0.999604 
0.0280114 0.00145048 0.999607 
0.0283446 0.00215575 0.999596 
0.0286328 0.00292958 0.999586 
0.0283142 0.0039329 0.999591 
0.0281224 0.00517072 0.999591 
0.0278076 0.00672864 0.999591 
0.0273843 0.00865868 0.999587 
0.0268812 0.011076 0.999577 
0.0264537 0.0143855 0.999547 
0.0264878 0.0182883 0.999482 
0.0254066 0.0240761 0.999387 
0.0248993 0.0314151 0.999196 
0.0244075 0.0410013 0.998861 
0.0228515 0.0543322 0.998261 
0.0211818 0.074128 0.997024 
0.0180292 0.100383 0.994785 
0.0145991 0.141543 0.989824 
0.011763 0.192795 0.981169 
0.00983196 0.251675 0.967762 
0.00654688 0.347428 0.937684 
0.00366959 0.457906 0.888993 
0.00167875 0.607698 0.794167 
0.000230908 0.748085 0.663603 
-0.00236421 0.888396 0.459071 
-0.00180299 0.950217 0.311584 
-0.0031944 0.999992 0.00259355 
-0.00265355 0.941294 -0.337578 
-0.00255207 0.857076 -0.515184 
-0.00288396 0.732776 -0.680463 
-0.0034344 0.56263 -0.826702 
-0.00504246 0.422698 -0.906256 
-0.0075726 0.311119 -0.950341 
-0.0106932 0.235437 -0.971831 
-0.0147044 0.170534 -0.985242 
-0.0165876 0.126097 -0.991879 
-0.0194876 0.0924913 -0.995523 
-0.0211066 0.0672888 -0.99751 
-0.023038 0.0494038 -0.998513 
-0.0242558 0.0372061 -0.999013 
-0.0250311 0.0281675 -0.99929 
-0.025638 0.021463 -0.999441 
-0.0263376 0.0166006 -0.999515 
-0.0268108 0.0129334 -0.999557 
-0.0273234 0.0101757 -0.999575 
-0.027508 0.00794339 -0.99959 
-0.0279567 0.00613758 -0.99959 
-0.0277919 0.00471838 -0.999603 
-0.0285773 0.00355984 -0.999585 
-0.0284536 0.002595 -0.999592 
-0.0284286 0.00186306 -0.999594 
-0.0285 0.00113957 -0.999593 
-0.0283139 0.000309594 -0.999599 
-0.0280432 -0.000836267 -0.999606 
-0.0278071 -0.002367 -0.999611 
-0.0272061 -0.00450108 -0.99962 
-0.0277524 -0.00702756 -0.99959 
-0.0262264 -0.0106519 -0.999599 
-0.0247162 -0.0155927 -0.999573 
-0.0247353 -0.0206058 -0.999482 
-0.0228096 -0.0259527 -0.999403 
-0.0227522 -0.0312874 -0.999251 
-0.0204713 -0.0382244 -0.999059 
-0.0172464 -0.0392756 -0.99908 
-0.011963 -0.026875 -0.999567 
7.01363e-05 -0.000627866 -1 
-5.88001e-05 -0.000647262 1 
0.00806055 -0.0242382 0.999674 
0.0133269 -0.0373958 0.999212 
0.0159256 -0.0395104 0.999092 
0.0172901 -0.0338031 0.999279 
0.0189463 -0.0279413 0.99943 
0.020165 -0.0230786 0.99953 
0.0212408 -0.0176547 0.999618 
0.0222895 -0.0124963 0.999673 
0.0228742 -0.00841876 0.999703 
0.0232807 -0.00515766 0.999716 
0.0238871 -0.00266399 0.999711 
0.0242357 -0.00096097 0.999706 
0.0244071 0.000266688 0.999702 
0.0244217 0.00115373 0.999701 
0.0244711 0.00190233 0.999699 
0.0246089 0.00263229 0.999694 
0.024628 0.00350933 0.999691 
0.024278 0.00468378 0.999694 
0.0240557 0.00609194 0.999692 
0.0237156 0.00784014 0.999688 
0.0232336 0.0100161 0.99968 
0.0229841 0.012865 0.999653 
0.0224783 0.0165713 0.99961 
0.0224108 0.0209961 0.999528 
0.0215111 0.0276253 0.999387 
0.0210635 0.0360484 0.999128 
0.0201669 0.046537 0.998713 
0.0188877 0.0626538 0.997857 
0.0166443 0.0831897 0.996395 
0.0136731 0.117556 0.992972 
0.0103486 0.165506 0.986154 
0.00796175 0.226997 0.973863 
0.00653421 0.295176 0.955421 
0.00398155 0.392786 0.919621 
0.00199103 0.537897 0.843008 
0.000121498 0.68101 0.732274 
-9.85472e-05 0.824961 0.56519 
-0.00109215 0.978307 0.207157 
0.00144813 0.9918 -0.127793 
0.000242388 0.993231 -0.116157 
-0.00062757 0.917349 -0.398084 
-0.00179972 0.787852 -0.615862 
-0.00257165 0.599302 -0.800519 
-0.00336613 0.450462 -0.892789 
-0.00497558 0.334916 -0.942235 
-0.00726053 0.245713 -0.969315 
-0.0109415 0.183678 -0.982926 
-0.0125368 0.140619 -0.989984 
-0.015388 0.101468 -0.99472 
-0.0173898 0.0750464 -0.997028 
-0.0192352 0.0534121 -0.998387 
-0.020394 0.0398726 -0.998997 
-0.021259 0.0302423 -0.999316 
-0.0218792 0.0230472 -0.999495 
-0.0223974 0.0177048 -0.999592 
-0.0228513 0.0138306 -0.999643 
-0.0232816 0.0108725 -0.99967 
-0.0236093 0.00858287 -0.999684 
-0.0239988 0.00663244 -0.99969 
-0.0239376 0.00511819 -0.9997 
-0.0245949 0.00378992 -0.99969 
-0.0248027 0.00282572 -0.999688 
-0.0244721 0.00201319 -0.999698 
-0.0247007 0.00130092 -0.999694 
-0.0244152 0.000431758 -0.999702 
-0.0243585 -0.000713738 -0.999703 
-0.0240718 -0.00232766 -0.999708 
-0.0232615 -0.00450167 -0.999719 
-0.0237636 -0.00749019 -0.99969 
-0.0226305 -0.011667 -0.999676 
-0.0210954 -0.0167116 -0.999638 
-0.0209477 -0.0217915 -0.999543 
-0.0191023 -0.0272425 -0.999446 
-0.0187254 -0.0322138 -0.999306 
-0.0164471 -0.0388684 -0.999109 
-0.0136509 -0.039977 -0.999107 
-0.00982552 -0.0277113 -0.999568 
8.73111e-05 -0.000573415 -1 
-5.98838e-05 -0.000573806 1 
0.00757643 -0.0282106 0.999573 
0.0115009 -0.0406392 0.999108 
0.0129643 -0.0391604 0.999149 
0.0145701 -0.0326468 0.999361 
0.0157456 -0.0275326 0.999497 
0.0169561 -0.0223837 0.999606 
0.0179269 -0.0167493 0.999699 
0.0185202 -0.0118628 0.999758 
0.0191119 -0.00772937 0.999787 
0.0195759 -0.00442149 0.999799 
0.0197738 -0.0021353 0.999802 
0.0201611 -0.000478502 0.999797 
0.0201824 0.000679112 0.999796 
0.0204161 0.00153095 0.99979 
0.0202432 0.00226307 0.999793 
0.0201689 0.00305288 0.999792 
0.0202597 0.00404913 0.999787 
0.0197947 0.00535742 0.99979 
0.019612 0.00693402 0.999784 
0.0192176 0.00888558 0.999776 
0.0190002 0.0114333 0.999754 
0.0186242 0.0146786 0.999719 
0.0180071 0.0189345 0.999659 
0.0181209 0.024221 0.999542 
0.0174302 0.0323228 0.999325 
0.016523 0.042003 0.998981 
0.0161106 0.0558882 0.998307 
0.0139483 0.0745296 0.997121 
0.0119989 0.104717 0.99443 
0.00856905 0.153693 0.988082 
0.00602059 0.222965 0.974808 
0.00435893 0.312387 0.949945 
0.00247426 0.448353 0.893853 
0.00131392 0.608764 0.793351 
0.00289894 0.75584 0.65475 
0.00574405 0.855998 0.516947 
0.00476451 0.977392 0.211382 
0.00384536 0.931353 0.364098 
0.0025364 0.999273 0.0380289 
0.000706203 0.999268 -0.0382558 
-0.00252663 0.951455 -0.307777 
-0.000786095 0.864298 -0.50298 
-0.00169484 0.699555 -0.714577 
-0.00167504 0.505743 -0.862682 
-0.00291852 0.370147 -0.928969 
-0.0045497 0.271856 -0.962327 
-0.00754175 0.189789 -0.981796 
-0.0101449 0.132325 -0.991155 
-0.0122794 0.0972239 -0.995187 
-0.014869 0.069063 -0.997501 
-0.0157711 0.0509862 -0.998575 
-0.0166801 0.0381938 -0.999131 
-0.017501 0.0288969 -0.999429 
-0.0180151 0.0221258 -0.999593 
-0.0182944 0.0171825 -0.999685 
-0.018653 0.0134655 -0.999735 
-0.0189866 0.0106557 -0.999763 
-0.019567 0.00832494 -0.999774 
-0.0195722 0.00652866 -0.999787 
-0.0200453 0.00487637 -0.999787 
-0.0202284 0.00369304 -0.999789 
-0.0206295 0.00272554 -0.999783 
-0.0200924 0.00195735 -0.999796 
-0.0203609 0.00121755 -0.999792 
-0.0199564 0.000280248 -0.999801 
-0.0200004 -0.00102939 -0.999799 
-0.0196285 -0.00281831 -0.999803 
-0.018897 -0.00526584 -0.999808 
-0.0198971 -0.00810115 -0.999769 
-0.0187102 -0.0122523 -0.99975 
-0.0174892 -0.0177855 -0.999689 
-0.0173551 -0.0232729 -0.999578 
-0.0155998 -0.0287707 -0.999464 
-0.0153099 -0.0337332 -0.999314 
-0.0130607 -0.0398148 -0.999122 
-0.0105227 -0.0405568 -0.999122 
-0.00758727 -0.0278345 -0.999584 
0.000113192 -0.000612055 -1 
-7.49862e-05 -0.000606801 1 
0.00518525 -0.0274225 0.99961 
0.00825217 -0.0410114 0.999125 
0.00939312 -0.0407158 0.999127 
0.0107889 -0.0349957 0.999329 
0.0116836 -0.0296741 0.999491 
0.0128008 -0.0244201 0.99962 
0.0137199 -0.0188064 0.999729 
0.0140257 -0.0134955 0.999811 
0.0146107 -0.00904043 0.999852 
0.0152768 -0.00548794 0.999868 
0.0151198 -0.00275764 0.999882 
0.0154898 -0.000842396 0.99988 
0.015542 0.0004838 0.999879 
0.0158145 0.00142962 0.999874 
0.0156849 0.00218168 0.999875 
0.0153705 0.00300291 0.999877 
0.0154581 0.00396652 0.999873 
0.0152098 0.00517593 0.999871 
0.0149393 0.00672551 0.999866 
0.0146752 0.00856737 0.999856 
0.0146406 0.010946 0.999833 
0.0142481 0.014064 0.9998 
0.0136893 0.0180949 0.999743 
0.0135193 0.0234797 0.999633 
0.0136981 0.0303907 0.999444 
0.0123304 0.0400381 0.999122 
0.0123222 0.0531724 0.998509 
0.0105495 0.0710512 0.997417 
0.00934156 0.0978125 0.995161 
0.00719718 0.136427 0.990624 
0.00467728 0.204781 0.978797 
0.00332576 0.298717 0.954336 
0.00203614 0.417023 0.908894 
0.00363173 0.691855 0.722028 
0.009921 0.826058 0.563498 
0.00559342 0.956209 0.29263 
0.00943809 0.988351 0.151895 
0.0081869 0.993697 0.111797 
0.00531884 0.999044 0.0433952 
0.00298952 0.999909 -0.0131617 
0.000885367 0.996773 -0.08027 
-0.00495403 0.959276 -0.282426 
-0.00129165 0.710601 -0.703594 
-0.00141312 0.597516 -0.801856 
-0.00146737 0.42445 -0.90545 
-0.00226509 0.310218 -0.950663 
-0.00456179 0.211529 -0.977361 
-0.00677681 0.147888 -0.988981 
-0.0083146 0.103451 -0.9946 
-0.0108523 0.0757214 -0.99707 
-0.0116157 0.0558424 -0.998372 
-0.0123635 0.0414346 -0.999065 
-0.0130766 0.0312808 -0.999425 
-0.0135293 0.0240238 -0.99962 
-0.0137455 0.0186726 -0.999731 
-0.0140006 0.0145812 -0.999796 
-0.0141437 0.011462 -0.999834 
-0.0149437 0.0091038 -0.999847 
-0.0147363 0.00713049 -0.999866 
-0.0156907 0.00548808 -0.999862 
-0.0152743 0.00412244 -0.999875 
-0.0158808 0.00310214 -0.999869 
-0.0156071 0.00227933 -0.999876 
-0.0155822 0.00145947 -0.999878 
-0.0153562 0.000547868 -0.999882 
-0.0152683 -0.000837592 -0.999883 
-0.0147417 -0.00272771 -0.999888 
-0.0144099 -0.00542317 -0.999881 
-0.0151251 -0.0089879 -0.999845 
-0.0144509 -0.0137847 -0.999801 
-0.0130572 -0.019312 -0.999728 
-0.0135369 -0.024329 -0.999612 
-0.0117452 -0.0295486 -0.999494 
-0.0117456 -0.0344027 -0.999339 
-0.00977895 -0.0406415 -0.999126 
-0.00772508 -0.041557 -0.999106 
-0.00536641 -0.0275058 -0.999607 
2.15364e-05 -0.000575127 -1 
-1.63438e-05 -0.000563962 1 
0.00351641 -0.0282297 0.999595 