# vtk DataFile Version 3.0 
Exported using Morpho https://github.com/Morpho-lang/morpho 
ASCII 
DATASET UNSTRUCTURED_GRID 

POINTS 2012 float 
-8.48528 -2.82843 -2.17909e-10 
-8.24093 -2.82843 9.7614e-09 
-8.00416 -2.82843 5.34727e-09 
-7.78146 -2.82843 4.11563e-09 
-7.55911 -2.82843 5.48677e-09 
-7.32923 -2.82843 5.08411e-09 
-7.10553 -2.82843 3.64881e-09 
-6.88386 -2.82843 2.97402e-09 
-6.65536 -2.82843 2.21763e-09 
-6.43017 -2.82843 1.47131e-09 
-6.20958 -2.82843 8.98248e-10 
-5.99139 -2.82843 3.89613e-10 
-5.77282 -2.82843 -7.59245e-11 
-5.56225 -2.82843 -4.54428e-10 
-5.35517 -2.82843 -9.48913e-10 
-5.13502 -2.82843 -1.42571e-09 
-4.92468 -2.82843 -1.69221e-09 
-4.71403 -2.82843 -2.20162e-09 
-4.50162 -2.82843 -2.84972e-09 
-4.28775 -2.82843 -3.43819e-09 
-4.07706 -2.82843 -4.17741e-09 
-3.862 -2.82843 -5.9589e-09 
-3.63652 -2.82843 -7.23303e-09 
-3.42185 -2.82843 -7.84178e-09 
-3.20706 -2.82843 -9.29634e-09 
-2.995 -2.82843 -1.07967e-08 
-2.7808 -2.82843 -1.31662e-08 
-2.5642 -2.82843 -1.56595e-08 
-2.3472 -2.82843 -1.6299e-08 
-2.13521 -2.82843 -1.9811e-08 
-1.90853 -2.82843 -1.87598e-08 
-1.71661 -2.82843 -1.06536e-08 
-1.51369 -2.82843 -9.90372e-09 
-1.35993 -2.82843 -6.53957e-09 
-1.12972 -2.82843 5.45079e-09 
-0.964716 -2.82843 1.88251e-08 
-0.77397 -2.82843 3.55976e-08 
-0.560365 -2.82843 6.23993e-08 
-0.364216 -2.82842 5.24119e-08 
-0.142143 -2.82842 -3.59154e-08 
0.16691 -2.82842 -1.50034e-08 
0.434665 -2.82842 -1.59365e-07 
0.800621 -2.82842 2.26187e-08 
1.01386 -2.82843 -8.98591e-09 
1.18493 -2.82843 -9.23059e-09 
1.36913 -2.82843 1.76038e-09 
1.58148 -2.82843 1.20766e-08 
1.77213 -2.82843 9.76054e-09 
1.96331 -2.82843 1.52256e-08 
2.1729 -2.82843 1.70401e-08 
2.38586 -2.82843 1.66278e-08 
2.60221 -2.82843 1.48774e-08 
2.81688 -2.82843 1.32616e-08 
3.03467 -2.82843 1.13023e-08 
3.24944 -2.82843 8.46803e-09 
3.45712 -2.82843 7.39311e-09 
3.67195 -2.82843 6.4277e-09 
3.88515 -2.82843 5.18444e-09 
4.09855 -2.82843 4.22774e-09 
4.3109 -2.82843 3.37992e-09 
4.5219 -2.82843 2.67346e-09 
4.73186 -2.82843 2.16696e-09 
4.94346 -2.82843 1.73479e-09 
5.1552 -2.82843 1.30484e-09 
5.36686 -2.82843 9.09123e-10 
5.57867 -2.82843 4.77114e-10 
5.7914 -2.82843 3.46862e-11 
6.00738 -2.82843 -4.13148e-10 
6.22549 -2.82843 -9.08239e-10 
6.44576 -2.82843 -1.41336e-09 
6.66463 -2.82843 -2.04923e-09 
6.88853 -2.82843 -3.05921e-09 
7.1176 -2.82843 -4.15585e-09 
7.34686 -2.82843 -5.37527e-09 
7.58225 -2.82843 -5.87613e-09 
7.81498 -2.82843 -4.77769e-09 
8.04413 -2.82843 -4.98068e-09 
8.26461 -2.82843 -8.52351e-09 
8.48528 -2.82843 7.80451e-10 
-8.48528 -2.60714 -6.08076e-09 
-8.2333 -2.60503 -4.7241e-11 
-7.99285 -2.60155 -7.3876e-11 
-7.75357 -2.59928 -6.61308e-11 
-7.51924 -2.59894 -6.17029e-11 
-7.28755 -2.59464 -4.5781e-11 
-7.06002 -2.59213 -3.65117e-11 
-6.82894 -2.59977 -3.35524e-11 
-6.59831 -2.60013 -2.54631e-11 
-6.3716 -2.59804 -1.69376e-11 
-6.14847 -2.59726 -9.81762e-12 
-5.92602 -2.5984 -3.66515e-12 
-5.70829 -2.59408 1.73806e-12 
-5.49443 -2.59143 6.53249e-12 
-5.27611 -2.60444 1.30124e-11 
-5.05816 -2.59588 1.70147e-11 
-4.84363 -2.59656 2.28423e-11 
-4.6284 -2.59842 3.01112e-11 
-4.41288 -2.59985 3.87595e-11 
-4.19798 -2.59523 4.5802e-11 
-3.98132 -2.60001 6.00937e-11 
-3.75876 -2.60963 8.31243e-11 
-3.53644 -2.59967 9.05867e-11 
-3.31652 -2.59971 1.1148e-10 
-3.09653 -2.59582 1.26336e-10 
-2.87701 -2.59873 1.50954e-10 
-2.65581 -2.60066 1.77431e-10 
-2.43223 -2.60106 1.96708e-10 
-2.21126 -2.59829 1.90363e-10 
-1.98718 -2.61488 2.40113e-10 
-1.76709 -2.57659 1.12973e-10 
-1.57223 -2.59547 8.2531e-11 
-1.38344 -2.53901 4.70219e-11 
-1.22296 -2.64382 8.80579e-11 
-1.02284 -2.57228 -7.71286e-11 
-0.846227 -2.61321 1.61741e-10 
-0.64117 -2.64329 4.21393e-10 
-0.428686 -2.62633 4.45222e-10 
-0.2241 -2.65701 4.79247e-10 
-0.0720129 -2.52728 -8.15141e-11 
0.0264949 -2.69999 2.45398e-10 
0.313527 -2.67389 -4.53725e-10 
0.664415 -2.71176 7.43483e-10 
0.828136 -2.53541 -7.86064e-10 
0.971352 -2.61885 1.81423e-10 
1.16649 -2.57208 -1.4683e-10 
1.34514 -2.58288 3.15525e-11 
1.53925 -2.60922 -2.14871e-11 
1.75591 -2.58854 -7.59418e-11 
1.95973 -2.59224 -1.64412e-10 
2.17376 -2.59861 -1.84779e-10 
2.3974 -2.604 -1.98841e-10 
2.62097 -2.60329 -1.79794e-10 
2.84808 -2.60619 -1.6483e-10 
3.07352 -2.60278 -1.3593e-10 
3.29015 -2.59372 -1.02392e-10 
3.5109 -2.60103 -9.48655e-11 
3.73333 -2.60021 -7.68891e-11 
3.95454 -2.60045 -6.26405e-11 
4.17477 -2.59926 -4.9626e-11 
4.39351 -2.59795 -3.90494e-11 
4.61107 -2.59711 -3.06001e-11 
4.82939 -2.59896 -2.43468e-11 
5.04833 -2.59883 -1.81308e-11 
5.26751 -2.59809 -1.24373e-11 
5.48652 -2.59714 -7.17911e-12 
5.70595 -2.59636 -1.95315e-12 
5.92714 -2.59744 3.68619e-12 
6.15095 -2.59711 9.88735e-12 
6.37649 -2.59691 1.6954e-11 
6.60296 -2.59317 2.35212e-11 
6.8292 -2.59608 3.18876e-11 
7.05996 -2.59867 4.0857e-11 
7.294 -2.59743 4.96258e-11 
7.52942 -2.60215 6.33575e-11 
7.7685 -2.60009 7.22895e-11 
8.00456 -2.59688 7.30204e-11 
8.23555 -2.59499 3.01647e-11 
8.48528 -2.61242 5.98141e-09 
-8.48528 -2.35413 -2.08691e-09 
-8.25802 -2.38417 4.94411e-11 
-8.01794 -2.37893 -2.95941e-12 
-7.78109 -2.37484 -7.43691e-13 
-7.54423 -2.37087 -2.84988e-12 
-7.30646 -2.36532 -2.52493e-13 
-7.07305 -2.35848 1.90422e-12 
-6.84546 -2.36915 5.52333e-13 
-6.61799 -2.37203 -4.14863e-13 
-6.39081 -2.36916 -5.7642e-13 
-6.16616 -2.36785 -6.15045e-13 
-5.94313 -2.36981 -7.81736e-13 
-5.72214 -2.36417 -4.64568e-13 
-5.50357 -2.35994 -5.94903e-13 
-5.28654 -2.37477 6.50729e-13 
-5.06991 -2.3696 1.3349e-12 
-4.85051 -2.36685 1.0715e-12 
-4.63419 -2.36977 1.53546e-12 
-4.41715 -2.37042 2.69006e-12 
-4.19681 -2.36964 2.28729e-12 
-3.97708 -2.37213 3.35945e-12 
-3.75847 -2.38596 4.78713e-12 
-3.53648 -2.37385 5.03667e-12 
-3.31223 -2.37409 3.79006e-12 
-3.08786 -2.36901 6.40924e-12 
-2.8656 -2.37206 9.16641e-12 
-2.64012 -2.37651 1.11868e-11 
-2.41928 -2.37319 9.56089e-12 
-2.19516 -2.37651 4.75714e-12 
-1.97631 -2.38896 1.66531e-11 
-1.76705 -2.34172 -5.8268e-12 
-1.56164 -2.34606 3.50796e-11 
-1.35652 -2.31687 8.00437e-11 
-1.15967 -2.40925 1.14158e-10 
-0.933596 -2.35423 5.43679e-10 
-0.739075 -2.43534 5.2239e-11 
-0.529273 -2.45104 2.18433e-10 
-0.29257 -2.45582 1.09521e-09 
-0.2588 -2.27221 3.53921e-10 
0.15606 -2.37915 -9.2907e-10 
0.169635 -2.54859 -3.37167e-10 
0.532966 -2.59951 -6.68204e-10 
0.699352 -2.41421 -2.21093e-10 
0.904374 -2.26582 -2.20968e-10 
1.03965 -2.36345 1.28856e-10 
1.22193 -2.32245 -2.41374e-10 
1.40792 -2.34725 1.5339e-11 
1.60602 -2.38125 -2.75445e-11 
1.82091 -2.35667 -1.58721e-11 
2.0361 -2.37178 -1.47551e-11 
2.25795 -2.37925 -1.52907e-11 
2.47868 -2.38055 -9.87056e-12 
2.70432 -2.38434 -8.60598e-12 
2.92896 -2.38376 -9.021e-12 
3.14608 -2.3681 -6.2128e-12 
3.36716 -2.36866 -6.48662e-12 
3.58654 -2.37578 -4.73007e-12 
3.80712 -2.374 -3.62232e-12 
4.02549 -2.37305 -3.15921e-12 
4.24298 -2.37053 -2.52395e-12 
4.45909 -2.36845 -1.88913e-12 
4.676 -2.36956 -1.51112e-12 
4.89231 -2.3711 -1.07425e-12 
5.10923 -2.37079 -6.21425e-13 
5.32595 -2.36884 -2.58464e-13 
5.54269 -2.36708 -1.53268e-14 
5.76087 -2.36673 3.16133e-13 
5.98053 -2.36785 7.2409e-13 
6.20187 -2.36697 9.49834e-13 
6.42397 -2.36505 1.04799e-12 
6.64686 -2.35986 4.48117e-13 
6.87138 -2.36516 -1.10835e-12 
7.09937 -2.3688 -1.79552e-12 
7.33045 -2.36878 1.18368e-12 
7.56276 -2.3748 3.36523e-12 
7.79329 -2.36994 -3.36686e-13 
8.02303 -2.36451 -9.72089e-13 
8.26074 -2.38129 -4.77581e-11 
8.48528 -2.36796 2.34594e-09 
-8.48528 -2.12082 -1.37504e-09 
-8.25608 -2.15211 3.69114e-11 
-8.02052 -2.15371 5.20291e-13 
-7.78142 -2.14948 2.14704e-12 
-7.54354 -2.14751 -2.21842e-12 
-7.31007 -2.13723 -1.31025e-12 
-7.07799 -2.13075 2.49747e-12 
-6.84524 -2.13799 2.09019e-12 
-6.61638 -2.14174 5.61416e-13 
-6.38804 -2.14074 -1.85436e-13 
-6.16198 -2.13961 -3.1909e-13 
-5.93669 -2.14234 -2.52693e-13 
-5.7124 -2.13687 -1.57037e-13 
-5.48872 -2.13407 3.72829e-14 
-5.26693 -2.1471 -8.03833e-13 
-5.04369 -2.14468 -1.17797e-13 
-4.82266 -2.14004 -3.73979e-13 
-4.60213 -2.14369 -4.07506e-14 
-4.3793 -2.14697 3.75613e-13 
-4.15675 -2.14442 1.26811e-13 
-3.93427 -2.14801 7.91158e-13 
-3.71441 -2.1596 1.40456e-12 
-3.48431 -2.15244 2.28902e-12 
-3.25617 -2.15106 3.05083e-13 
-3.02947 -2.143 1.19726e-12 
-2.80309 -2.15032 3.09728e-12 
-2.58229 -2.14688 3.94873e-12 
-2.35856 -2.14912 2.55273e-12 
-2.13665 -2.15331 2.76972e-12 
-1.93086 -2.14649 -7.50683e-12 
-1.71091 -2.10994 3.37814e-11 
-1.51568 -2.10493 -1.1989e-11 
-1.31113 -2.09808 4.80923e-11 
-1.12221 -2.2056 1.08976e-10 
-1.05808 -2.00917 1.64988e-10 
-0.886507 -2.15916 3.75776e-10 
-0.689986 -2.24208 1.05616e-09 
-0.470641 -2.28007 9.25613e-10 
-0.0515853 -2.34767 6.06012e-10 
0.148293 -2.17746 -1.47273e-10 
0.338521 -2.26582 -3.68439e-10 
0.395473 -2.45888 -9.83036e-10 
0.55715 -2.32142 -7.39066e-10 
0.751363 -2.16253 -9.21187e-10 
0.948534 -2.02087 -6.15549e-10 
1.12047 -2.09275 2.26443e-12 
1.31121 -2.08667 -9.00431e-11 
1.51255 -2.13093 -6.20191e-11 
1.71572 -2.15104 -2.3466e-11 
1.95041 -2.14431 -2.39264e-11 
2.17217 -2.15791 -9.28469e-12 
2.39881 -2.15552 -7.31569e-12 
2.62607 -2.16286 -4.37493e-12 
2.85493 -2.16454 -3.36664e-12 
3.07901 -2.14477 -2.17708e-12 
3.30577 -2.1435 -2.77972e-12 
3.5323 -2.14852 -1.55664e-12 
3.75512 -2.15006 -1.08626e-12 
3.97962 -2.14635 -3.79358e-13 
4.20082 -2.14367 -2.84763e-13 
4.42134 -2.14039 2.31788e-14 
4.64088 -2.14235 4.88046e-15 
4.86074 -2.1431 1.05125e-13 
5.07982 -2.1435 1.49158e-13 
5.29933 -2.14084 2.52588e-13 
5.51893 -2.13788 1.75672e-13 
5.73854 -2.13746 1.35765e-13 
5.95972 -2.13812 1.92509e-13 
6.18212 -2.13699 2.08754e-13 
6.40604 -2.13424 -2.73861e-14 
6.6311 -2.12787 -1.09212e-12 
6.85756 -2.13217 -2.6702e-12 
7.08457 -2.13832 -3.02295e-12 
7.31615 -2.13994 5.46522e-13 
7.55017 -2.14589 3.09854e-12 
7.78489 -2.13912 -3.19183e-12 
8.01816 -2.13501 1.98124e-12 
8.25466 -2.15228 -3.58762e-11 
8.48528 -2.12567 1.28816e-09 
-8.48528 -1.87678 -1.98445e-09 
-8.26718 -1.91773 3.39599e-11 
-8.04336 -1.92715 4.46993e-12 
[...]
POINT_DATA 2012 
VECTORS vectors float
0.0134891 -0.0212016 0.999684 
0.00665249 -0.0311494 0.999492 
0.00754426 -0.0251587 0.999655 
0.00874103 -0.0218818 0.999722 
0.00833896 -0.0224161 0.999714 
0.00793235 -0.0206579 0.999755 
0.00827822 -0.0169286 0.999822 
0.00810738 -0.0130462 0.999882 
0.00803943 -0.00946012 0.999923 
0.0084259 -0.00655757 0.999943 
0.00872345 -0.00409313 0.999953 
0.00879851 -0.00181257 0.999959 
0.00912172 0.00029829 0.999958 
0.00964431 0.0023083 0.999951 
0.00920947 0.00425953 0.999948 
0.00906082 0.00633716 0.999939 
0.0094829 0.00842304 0.999919 
0.00934209 0.0107931 0.999898 
0.00915455 0.0136839 0.999864 
0.0091593 0.0172617 0.999809 
0.00905268 0.0216439 0.999724 
0.00831269 0.0272269 0.999594 
0.00819619 0.0346752 0.999365 
0.0084484 0.0437323 0.999007 
0.00826482 0.0553064 0.998435 
0.00801426 0.0698142 0.997527 
0.007466 0.088372 0.996059 
0.00687348 0.112458 0.993632 
0.00644245 0.142921 0.989713 
0.00542617 0.180992 0.983469 
0.00488256 0.232078 0.972685 
0.00433837 0.285571 0.958347 
0.00273044 0.355638 0.93462 
0.00183958 0.419363 0.907817 
-0.000643393 0.525761 0.850632 
-0.00201511 0.613715 0.789525 
-0.00290364 0.718055 0.695981 
-0.00358914 0.835208 0.549923 
-0.00295412 0.924477 0.381226 
-0.000692233 0.986681 0.162664 
0.000733095 0.985066 -0.172178 
0.00191401 0.897051 -0.441923 
0.00117431 0.708582 -0.705627 
0.0016945 0.591164 -0.806549 
0.000178201 0.502184 -0.86476 
-0.00139546 0.417533 -0.90866 
-0.00301231 0.332458 -0.943113 
-0.00483544 0.270747 -0.962638 
-0.00544022 0.21918 -0.975669 
-0.00597329 0.173617 -0.984795 
-0.00652837 0.136938 -0.990558 
-0.00704803 0.107684 -0.99416 
-0.00746486 0.0846468 -0.996383 
-0.00785105 0.0664752 -0.997757 
-0.00852384 0.0525711 -0.99858 
-0.00872361 0.0419453 -0.999081 
-0.00868167 0.0332739 -0.999408 
-0.00890213 0.0264767 -0.999609 
-0.00903314 0.021104 -0.999736 
-0.00921835 0.0168554 -0.999815 
-0.0093838 0.0134189 -0.999866 
-0.00941025 0.0106231 -0.999899 
-0.00935964 0.00825042 -0.999922 
-0.00937984 0.00615795 -0.999937 
-0.0093789 0.00420455 -0.999947 
-0.00932753 0.00219416 -0.999954 
-0.00914969 0.000140549 -0.999958 
-0.00891776 -0.00194295 -0.999958 
-0.00872269 -0.00418159 -0.999953 
-0.00866565 -0.00670037 -0.99994 
-0.00847331 -0.00969701 -0.999917 
-0.00799797 -0.0132743 -0.99988 
-0.00777793 -0.0172016 -0.999821 
-0.00757266 -0.0206777 -0.999757 
-0.00777877 -0.0223437 -0.99972 
-0.0079187 -0.0220985 -0.999724 
-0.00779696 -0.0257595 -0.999637 
-0.00822701 -0.0316747 -0.999464 
-0.0144588 -0.0214446 -0.999665 
0.0139753 -0.00678815 0.999879 
0.0230561 -0.0316881 0.999231 
0.0246376 -0.0263575 0.999348 
0.025651 -0.0226355 0.999414 
0.0262529 -0.0206633 0.999441 
0.025904 -0.0184619 0.999493 
0.0259533 -0.0156881 0.999539 
0.0265016 -0.0122984 0.999572 
0.0267653 -0.00892546 0.999601 
0.0269564 -0.00602807 0.999618 
0.0270739 -0.0035162 0.999627 
0.0271065 -0.00121673 0.999631 
0.0269674 0.000891527 0.999635 
0.0269615 0.00287556 0.999632 
0.0272845 0.00492358 0.999615 
0.027052 0.00702438 0.999609 
0.0270078 0.00931139 0.999591 
0.026945 0.0119954 0.999564 
0.0268387 0.0152703 0.999523 
0.0265157 0.019296 0.999461 
0.0263221 0.0243546 0.999356 
0.0261294 0.0308609 0.999182 
0.0254333 0.0391667 0.998908 
0.0248705 0.049625 0.998458 
0.0240487 0.062877 0.997731 
0.0232677 0.0799154 0.996529 
0.0224022 0.101812 0.994551 
0.0213141 0.130163 0.991263 
0.0200608 0.166059 0.985911 
0.0185479 0.211804 0.977136 
0.0172274 0.268873 0.963021 
0.0152284 0.334271 0.942353 
0.0162715 0.407595 0.913017 
0.0106059 0.482135 0.876032 
0.0127633 0.582604 0.812656 
0.00862216 0.677999 0.735012 
0.00489366 0.791617 0.610998 
0.00396835 0.897884 0.440214 
0.00177128 0.970064 0.242846 
0.00248251 0.996692 0.0812454 
0.000341142 0.999704 -0.02437 
-0.000402495 0.945624 -0.325262 
0.000171793 0.776397 -0.630245 
-0.0153632 0.694065 -0.719748 
-0.00880311 0.616897 -0.786995 
-0.013512 0.513954 -0.857711 
-0.0140536 0.432362 -0.90159 
-0.0143488 0.354025 -0.935125 
-0.0167011 0.280376 -0.959744 
-0.0183169 0.222147 -0.974841 
-0.0197467 0.173907 -0.984563 
-0.021099 0.136062 -0.990475 
-0.0222365 0.106312 -0.994083 
-0.0232683 0.082789 -0.996295 
-0.0241167 0.0646961 -0.997613 
-0.024685 0.0511044 -0.998388 
-0.0253989 0.0401461 -0.99887 
-0.0258983 0.0315816 -0.999165 
-0.0263099 0.0249029 -0.999343 
-0.0265745 0.0196761 -0.999453 
-0.0267797 0.0155606 -0.99952 
-0.0269235 0.0122402 -0.999562 
-0.0270681 0.00948632 -0.999588 
-0.027119 0.00713548 -0.999606 
-0.0271225 0.00501603 -0.999619 
-0.0271164 0.00297381 -0.999627 
-0.0270962 0.000923411 -0.999632 
-0.0270888 -0.00119476 -0.999632 
-0.027019 -0.00349788 -0.999628 
-0.0268705 -0.00608744 -0.99962 
-0.0265905 -0.0090909 -0.999604 
-0.0263835 -0.0124238 -0.999574 
-0.0261867 -0.0157609 -0.999532 
-0.0261028 -0.0185561 -0.999486 
-0.0263507 -0.0208053 -0.999436 
-0.0259368 -0.0229109 -0.9994 
-0.0244179 -0.0265785 -0.999348 
-0.0222527 -0.0317344 -0.999248 
-0.0142501 -0.00731285 -0.999871 
0.00887485 -0.00763404 0.999931 
0.0176853 -0.0335887 0.999278 
0.0196326 -0.0280095 0.999415 
0.0206885 -0.0237023 0.999505 
0.0209662 -0.0198529 0.999582 
0.0211074 -0.0176121 0.999621 
0.0214931 -0.0155976 0.999646 
0.022161 -0.0127401 0.999673 
0.0224787 -0.00949883 0.999702 
0.0226961 -0.00651131 0.999721 
0.0228527 -0.00384849 0.999731 
0.0230469 -0.00146865 0.999733 
0.0228995 0.000681402 0.999737 
0.0228069 0.00273561 0.999736 
0.0233024 0.00472269 0.999716 
0.0231449 0.00681556 0.999708 
0.0229561 0.00920653 0.999693 
0.0229511 0.0119443 0.999665 
0.0229196 0.0152562 0.99962 
0.022601 0.01941 0.999556 
0.0224023 0.0245487 0.999447 
0.0223883 0.0310146 0.999267 
0.0217785 0.0393797 0.998986 
0.0212604 0.0501559 0.998514 
0.020865 0.0639774 0.997732 
0.020579 0.0813431 0.996473 
0.0202934 0.103944 0.994375 
0.0200472 0.132795 0.99094 
0.0200475 0.170483 0.985156 
0.020269 0.216522 0.976067 
0.0215996 0.271884 0.962087 
0.0225645 0.334897 0.941984 
0.0257827 0.414508 0.90968 
0.022782 0.507281 0.861479 
0.0278107 0.622216 0.782351 
0.0216993 0.732445 0.68048 
0.0175974 0.849717 0.526945 
0.0120233 0.947261 0.32024 
0.0202134 0.958146 0.285566 
-0.00812561 0.985761 -0.167959 
-0.00395932 0.983119 -0.182926 
-0.0060059 0.848342 -0.529416 
-0.0216712 0.768071 -0.639998 
-0.0342004 0.643833 -0.764401 
-0.025452 0.575624 -0.817318 
-0.027676 0.482368 -0.875531 
-0.02396 0.400824 -0.915841 
-0.0214561 0.326 -0.945125 
-0.0209368 0.256159 -0.966407 
-0.0202596 0.202505 -0.979071 
-0.020134 0.158572 -0.987141 
-0.020199 0.12466 -0.991993 
-0.0204688 0.0973127 -0.995043 
-0.0208667 0.0760632 -0.996884 
-0.021014 0.0600033 -0.997976 
-0.0214592 0.0471899 -0.998655 
-0.0219437 0.0372683 -0.999064 
-0.0222393 0.0294384 -0.999318 
-0.0225305 0.0233064 -0.999474 
-0.0227193 0.0184582 -0.999571 
-0.0228681 0.0146013 -0.999631 
-0.0230319 0.0114215 -0.999669 
-0.0231166 0.00876139 -0.999694 
-0.0231281 0.00646107 -0.999711 
-0.0231039 0.00437289 -0.999723 
-0.0230685 0.00235548 -0.99973 
-0.0230176 0.000321047 -0.999734 
-0.0229607 -0.00182096 -0.999734 
-0.0228301 -0.00420946 -0.99973 
-0.022606 -0.00692188 -0.99972 
-0.0222227 -0.00998786 -0.999702 
-0.0219634 -0.0131692 -0.999671 
-0.0216497 -0.0159062 -0.999638 
-0.0213507 -0.017894 -0.999611 
-0.0212474 -0.0203308 -0.999567 
-0.020364 -0.0239633 -0.999505 
-0.0190347 -0.0282946 -0.999418 
-0.0172512 -0.0334737 -0.99929 
-0.00924153 -0.00747581 -0.999929 
0.00666792 -0.0084941 0.999942 
0.0134535 -0.0346065 0.99931 
0.0153474 -0.0289798 0.999461 
0.0161185 -0.0241096 0.999578 
0.0164072 -0.0194365 0.999676 
0.0168876 -0.0170903 0.999711 
0.017298 -0.0155872 0.999729 
0.0178781 -0.012999 0.999755 
0.018385 -0.00985275 0.999782 
0.018683 -0.006765 0.999802 
0.0188387 -0.00397392 0.999814 
0.0189095 -0.00151313 0.999819 
0.0189233 0.000660244 0.99982 
0.0188745 0.00273035 0.999817 
0.018995 0.00484359 0.999807 
0.0191027 0.00705635 0.999792 
0.0189285 0.00952875 0.999775 
0.0190133 0.0124515 0.999741 
0.0189981 0.0160088 0.999691 
0.0187468 0.0204089 0.999615 
0.0186423 0.0258591 0.999491 
0.0186305 0.0326374 0.999293 
0.0182936 0.0416587 0.998964 
0.0180167 0.0533312 0.998414 
0.0178847 0.0679314 0.997529 
0.0181693 0.086713 0.996067 
0.0186026 0.11032 0.993721 
0.0194536 0.141092 0.989805 
0.0208923 0.180385 0.983373 
0.022976 0.226142 0.973823 
0.0268847 0.282363 0.95893 
0.0306958 0.345528 0.937906 
0.0366913 0.426468 0.903758 
0.0352811 0.519511 0.853735 
0.0496735 0.531554 0.845567 
0.0433367 0.641441 0.765948 
0.0367975 0.7572 0.652145 
0.0303639 0.871468 0.489512 
0.0043884 0.997877 0.0649871 
-0.0144405 0.986253 -0.164613 
-0.0229625 0.934168 -0.356095 
-0.0132173 0.908666 -0.417315 
-0.0283656 0.834331 -0.550534 
-0.0432801 0.72641 -0.685898 
-0.0528788 0.604206 -0.795072 
-0.042389 0.523813 -0.850777 
-0.0372036 0.426213 -0.903856 
-0.0303482 0.349019 -0.936624 
-0.0258295 0.281336 -0.959261 
-0.0227252 0.21781 -0.975726 
-0.0206988 0.172332 -0.984821 
-0.019322 0.134269 -0.990756 
-0.0185937 0.105015 -0.994296 
-0.0182107 0.0816826 -0.996491 
-0.0179304 0.0640168 -0.997787 
-0.0180379 0.0501293 -0.998579 
-0.0182801 0.0394179 -0.999055 
-0.018511 0.0311464 -0.999343 
-0.0186457 0.0245487 -0.999524 
-0.0187916 0.0193888 -0.999635 
-0.0188674 0.0152623 -0.999705 
-0.0190138 0.0119032 -0.999748 
-0.0190459 0.00907944 -0.999777 
-0.0190642 0.00668004 -0.999795 
-0.0190228 0.00453343 -0.999808 
-0.0189668 0.00247753 -0.999816 
-0.0189319 0.000424005 -0.99982 
-0.0188563 -0.00173949 -0.99982 
-0.0187226 -0.00415871 -0.999815 
-0.0184813 -0.00694926 -0.999804 
-0.0180782 -0.010104 -0.999785 
-0.0177713 -0.0132753 -0.999753 
-0.0173958 -0.015703 -0.999725 
-0.0168287 -0.017075 -0.999712 
-0.0164188 -0.0193203 -0.999677 
-0.0157665 -0.0240493 -0.999586 
-0.0150165 -0.0286318 -0.999477 
-0.0136126 -0.0344163 -0.999314 
-0.00691921 -0.0087591 -0.999938 
0.00649746 -0.00836694 0.999944 
0.0109693 -0.0353676 0.999314 
0.0117855 -0.0297235 0.999488 
0.0122979 -0.0244663 0.999624 
0.0123446 -0.0191754 0.999739 
0.0130705 -0.017069 0.999768 
0.0136479 -0.016161 0.999776 
0.0143897 -0.01401 0.999798 
0.0149438 -0.0108687 0.999829 
0.0153163 -0.00767695 0.999853 
0.0155548 -0.00475639 0.999867 
0.0157617 -0.00221703 0.999873 
0.0158524 -2.37069e-05 0.999874 
0.0158911 0.00201836 0.999871 
0.0160548 0.00411519 0.999862 
0.0160905 0.00626589 0.999851 
0.0160662 0.00859682 0.999833 
0.0161041 0.0114033 0.999805 
0.0160777 0.0146931 0.999762 
0.015933 0.018664 0.999698 
0.0157717 0.023666 0.999595 
0.0156745 0.0297341 0.999434 
0.0156675 0.0372026 0.999184 
0.0155625 0.0471366 0.998767 
0.0155764 0.059683 0.998095 
0.0159725 0.0758872 0.996988 
0.0167387 0.0954055 0.995297 
0.0180638 0.120221 0.992582 
0.0200905 0.151502 0.988252 
0.0231275 0.189861 0.981538 
0.027242 0.235843 0.971409 
0.033943 0.287521 0.957172 
0.0404173 0.353428 0.934587 
0.0494327 0.438333 0.897452 
0.0662725 0.519389 0.851964 
0.0626857 0.631272 0.773024 
0.0556174 0.755755 0.652489 
0.0479678 0.868033 0.494185 
0.0338202 0.955284 0.293753 
0.0075213 0.998119 0.0608492 
-0.0425929 0.92409 -0.379794 
-0.044727 0.843045 -0.53598 
-0.0634795 0.733018 -0.677241 
-0.072212 0.608297 -0.790418 
-0.0782128 0.513276 -0.854652 
-0.0581286 0.487065 -0.871428 
-0.0484191 0.412436 -0.909699 
-0.0382836 0.336041 -0.941068 
-0.0309838 0.273129 -0.961478 
-0.0255192 0.21859 -0.975482 
-0.0216883 0.170886 -0.985051 
-0.0191542 0.135875 -0.99054 
-0.0174457 0.106327 -0.994177 
-0.0164105 0.083641 -0.99636 
-0.0157464 0.0655737 -0.997723 
-0.0155306 0.0516747 -0.998542 
-0.015549 0.040706 -0.999049 
-0.0156311 0.0321152 -0.999361 
-0.0157626 0.0253478 -0.999554 
-0.015849 0.0199579 -0.999675 
-0.0159561 0.0157342 -0.999748 
-0.016047 0.0122458 -0.999796 
-0.0160931 0.0093374 -0.999826 
-0.0160812 0.00685594 -0.999847 
-0.0160304 0.00468367 -0.99986 
-0.0159518 0.00261901 -0.999869 
-0.0158644 0.000549409 -0.999873 
-0.0157712 -0.00160547 -0.999874 
-0.0155929 -0.00404953 -0.99987 
-0.0153018 -0.00691132 -0.999858 
-0.0148966 -0.0101433 -0.999837 
-0.0144863 -0.0134275 -0.999804 
-0.0139535 -0.0158688 -0.999776 
-0.0132645 -0.0168031 -0.99977 
-0.0124663 -0.0184174 -0.999752 
-0.0118985 -0.0233996 -0.999655 
-0.0117645 -0.0289171 -0.999512 
-0.0114168 -0.0348883 -0.999325 
-0.00661953 -0.00882175 -0.999939 
0.00629793 -0.00902033 0.999939 
0.00963561 -0.0349093 0.999343 
0.00994881 -0.029028 0.999528 
0.0103182 -0.0234401 0.999671 
0.0109083 -0.0185286 0.999768 
0.0119818 -0.0170943 0.999781 
0.0128672 -0.0164891 0.999781 
0.013585 -0.0142009 0.999806 
0.0141306 -0.0109654 0.999839 
0.0145271 -0.00771181 0.999864 
0.0148598 -0.0047639 0.999878 
0.0151485 -0.00222026 0.999882 
0.0153842 -3.18136e-05 0.999881 
0.0155299 0.00201235 0.999877 
0.0155936 0.00402908 0.99987 
0.0156758 0.00612603 0.999857 
0.0157519 0.00848191 0.99984 
0.0157017 0.0111912 0.999813 
0.0156212 0.0144575 0.999773 
0.0155056 0.018357 0.999711 
0.0153504 0.0231157 0.999614 
0.0152058 0.0290704 0.999461 
0.0150939 0.0362565 0.999228 
0.0150881 0.0451972 0.998863 
0.015319 0.0568711 0.998263 
0.0158748 0.0716605 0.997302 
0.0169332 0.0903491 0.995765 
0.018523 0.112861 0.993437 
0.0210677 0.141831 0.989666 
0.0248415 0.177315 0.98384 
0.0301788 0.220617 0.974893 
0.0381183 0.267361 0.962841 
0.0478251 0.331488 0.942246 
0.0580016 0.406244 0.911922 
0.0797827 0.49486 0.865302 
0.0851229 0.627924 0.773606 
0.0789934 0.750012 0.65669 
0.0710176 0.871369 0.485462 
0.0520832 0.958212 0.281281 
0.0112221 0.997852 0.06455 
-0.0275224 0.980416 -0.195008 
-0.0734984 0.827208 -0.557068 
-0.0944608 0.684658 -0.722718 
-0.104958 0.588531 -0.801633 
-0.0898028 0.46048 -0.883115 
-0.0659566 0.414499 -0.907656 
-0.0512033 0.351542 -0.93477 
-0.04045 0.288123 -0.956738 
-0.0318088 0.233027 -0.971949 
-0.0258122 0.186666 -0.982084 
-0.0216947 0.147176 -0.988871 
-0.0188848 0.117349 -0.992911 
-0.0171125 0.0924292 -0.995571 
-0.0160208 0.073586 -0.997159 
-0.0154014 0.057818 -0.998208 
-0.0151502 0.0458384 -0.998833 
-0.015089 0.0364923 -0.999219 
-0.0151443 0.0289851 -0.999464 
-0.015286 0.0229463 -0.999619 
-0.01543 0.018106 -0.999716 
-0.0155747 0.0142287 -0.999777 
-0.0156599 0.011025 -0.999816 
-0.0156864 0.00829512 -0.999842 
-0.0156595 0.00595435 -0.999859 
-0.0155878 0.00386661 -0.99987 
-0.0154725 0.00183591 -0.999878 
-0.0153215 -0.000224736 -0.999882 
-0.0151141 -0.00242085 -0.999882 
-0.0148342 -0.00500028 -0.999877 
-0.0144668 -0.00801017 -0.999863 
-0.0140374 -0.0113398 -0.999836 
-0.0135321 -0.0145365 -0.999802 
-0.0128758 -0.0166068 -0.999779 
-0.0119694 -0.0171581 -0.99978 
-0.0109437 -0.0187012 -0.999765 
-0.0101755 -0.0236244 -0.999668 
-0.0099334 -0.0294803 -0.999515 
-0.0099389 -0.0352252 -0.99933 
-0.00624481 -0.00861329 -0.999943 
0.00533206 -0.00935698 0.999942 
0.00856481 -0.0342661 0.999375 
0.00917014 -0.0286553 0.999547 
0.00985445 -0.0234036 0.999677 
0.010791 -0.0187398 0.999766 
0.0118272 -0.017482 0.999777 
0.0126526 -0.0171175 0.999773 
0.0132358 -0.0150302 0.999799 
0.0137075 -0.0117603 0.999836 
0.0140747 -0.00838035 0.999865 
0.0144005 -0.00533656 0.999881 
0.0147136 -0.00271694 0.999887 
0.0149228 -0.000486658 0.999888 
0.0150801 0.00157696 0.999884 
0.0152621 0.00363403 0.999876 
0.0153319 0.00569082 0.999866 
0.0153224 0.00797987 0.99985 
0.0153073 0.0106678 0.999825 
0.0152841 0.0137829 0.999788 
0.0151677 0.0175051 0.999731 
0.0150401 0.0220337 0.999643 
0.0149432 0.0274743 0.99951 
0.0148869 0.0342057 0.999303 
0.0149825 0.0423438 0.99899 
0.0152224 0.0523691 0.998511 
0.015765 0.0656314 0.997719 
0.0167401 0.0817818 0.996509 
0.0184027 0.102508 0.994561 
0.0209802 0.127494 0.991617 
0.0247848 0.158773 0.987003 
0.0304278 0.197528 0.979824 
0.040132 0.251015 0.96715 
0.0544148 0.318832 0.946248 
0.0686722 0.396288 0.915554 
0.0852079 0.420118 0.90346 
0.100975 0.529172 0.842484 
0.112955 0.649833 0.751637 
0.107775 0.773143 0.625008 
0.10407 0.882078 0.459467 
-0.00377735 0.999527 -0.0305672 
-0.0757738 0.910469 -0.406578 
-0.110892 0.776497 -0.620287 
-0.139241 0.670035 -0.729154 
-0.120221 0.526678 -0.84152 
-0.101572 0.425341 -0.899315 
-0.0701388 0.369639 -0.926524 
-0.0540297 0.313796 -0.947951 
-0.0413133 0.256866 -0.965563 
-0.0325429 0.20942 -0.977283 
-0.0264968 0.169753 -0.98513 
-0.022286 0.136318 -0.990414 
-0.019431 0.110905 -0.99364 
-0.0175299 0.0890701 -0.995871 
-0.0163008 0.0715487 -0.997303 
-0.0154594 0.0569906 -0.998254 
-0.0150781 0.0453595 -0.998856 
-0.0149236 0.036279 -0.99923 
-0.0149154 0.0290363 -0.999466 
-0.0149949 0.0230864 -0.99962 
-0.0150758 0.0182515 -0.999719 
-0.0152052 0.014335 -0.999781 
-0.0152874 0.0110873 -0.999821 
-0.0153326 0.00831869 -0.999847 
-0.0153112 0.00593706 -0.999864 
-0.0152231 0.00383312 -0.999876 
-0.0150968 0.00179516 -0.999884 
-0.0149158 -0.000287531 -0.999888 
-0.0146992 -0.00250366 -0.999888 
-0.0144453 -0.00508533 -0.999882 
-0.0141046 -0.00814157 -0.999867 
-0.0137153 -0.0114919 -0.999839 
-0.0132317 -0.0148166 -0.999802 
-0.0126587 -0.0169806 -0.999775 
-0.0118841 -0.0175138 -0.999775 
-0.0108672 -0.0186564 -0.999766 
-0.00991516 -0.0229014 -0.999688 
-0.00911182 -0.0285082 -0.999551 
-0.00869806 -0.0345959 -0.999363 
-0.00530906 -0.00894217 -0.999946 
0.00431521 -0.00910213 0.999949 
0.00733391 -0.0343681 0.999382 
0.00810364 -0.0286206 0.999557 
0.00897042 -0.0232467 0.999689 
0.00983171 -0.0187456 0.999775 
0.0107335 -0.01782 0.999783 
0.0112409 -0.0173401 0.999786 
0.0117266 -0.015035 0.999818 
0.0120632 -0.0116674 0.999858 
0.012269 -0.00820433 0.99989 
0.0125603 -0.00509495 0.999907 
0.0128315 -0.00253994 0.999914 
0.0129135 -0.000348143 0.999916 
0.013117 0.001791 0.999912 
0.0132937 0.00380944 0.999904 
0.0132756 0.00589935 0.999894 
0.0132823 0.00834223 0.999876 
0.0133295 0.0111581 0.999848 
0.0133402 0.0143868 0.999807 
0.0132253 0.0182918 0.999745 
0.0131141 0.023021 0.999648 
0.0131387 0.0287643 0.999499 
0.0131542 0.0357054 0.999275 
0.0133988 0.0440741 0.998938 
0.0139664 0.0550407 0.998386 
0.0146593 0.0686295 0.997534 
0.0159832 0.0858846 0.996176 
0.0180885 0.10757 0.994032 
0.0214852 0.133582 0.990804 
0.0265374 0.166758 0.98564 
0.0341492 0.208351 0.977457 
0.0467267 0.264542 0.963241 
0.0651946 0.331701 0.941128 
0.0854539 0.37783 0.921923 
0.110169 0.419433 0.901076 
0.113292 0.479455 0.870223 
0.137926 0.589724 0.79574 
0.151945 0.723274 0.673637 
0.164751 0.829829 0.533144 
0.069261 0.96991 0.233409 
-0.0724322 0.961228 -0.266076 
-0.143127 0.82978 -0.539427 
-0.174601 0.646613 -0.742567 
-0.147979 0.522961 -0.839413 
-0.113796 0.415551 -0.902423 
-0.0782693 0.359338 -0.929919 
-0.0553959 0.288976 -0.955732 
-0.0426556 0.243774 -0.968893 
-0.0326921 0.197264 -0.979805 
-0.0261961 0.161137 -0.986584 
-0.0214116 0.130322 -0.99124 
-0.0184633 0.106094 -0.994184 
-0.0162417 0.0855396 -0.996201 
-0.014999 0.0692423 -0.997487 
-0.0140303 0.055611 -0.998353 
-0.0136311 0.0448231 -0.998901 
-0.0133601 0.035976 -0.999263 
-0.0132732 0.0289632 -0.999492 
-0.0132537 0.0231378 -0.999644 
-0.013188 0.0183193 -0.999745 
-0.0132921 0.0144233 -0.999807 
-0.0133382 0.0111721 -0.999848 
-0.0133835 0.00836646 -0.999875 
-0.0133469 0.00594541 -0.999893 
-0.0132507 0.00381251 -0.999904 
-0.0131258 0.00176633 -0.999912 
-0.0129552 -0.000322078 -0.999915 
-0.0127847 -0.00253543 -0.999914 
-0.0125855 -0.00512538 -0.999907 
-0.0123304 -0.00819129 -0.99989 
-0.0120234 -0.0116376 -0.999859 
-0.0116804 -0.0150338 -0.999818 
-0.011213 -0.0173606 -0.999786 
-0.0106724 -0.0178707 -0.999783 
-0.00985259 -0.018814 -0.999774 
-0.00891843 -0.0232126 -0.99969 
-0.00806844 -0.0288247 -0.999551 
-0.00742018 -0.0345309 -0.999375 
-0.00437421 -0.00926649 -0.999947 
0.00336736 -0.00941191 0.99995 
0.00584207 -0.0346448 0.999382 
0.00651836 -0.0291321 0.999554 
0.00730946 -0.0236479 0.999693 
0.00797307 -0.0191639 0.999784 
0.00861848 -0.018185 0.999797 
0.00897498 -0.0177798 0.999801 
0.00923933 -0.0153101 0.999839 
0.0094197 -0.0118301 0.999885 