# vtk DataFile Version 3.0 
Exported using Morpho https://github.com/Morpho-lang/morpho 
ASCII 
DATASET UNSTRUCTURED_GRID 

POINTS 2012 float 
-8.47867 -2.82053 7.47307e-05 
-8.255 -2.82481 -0.000705532 
-7.99381 -2.82559 -0.000791717 
-7.76145 -2.82313 -0.000608525 
-7.52921 -2.82248 -0.000619227 
-7.29733 -2.82218 -0.000452617 
-7.07313 -2.82026 -0.00032693 
-6.84325 -2.82141 -0.000164256 
-6.61788 -2.82054 -0.000183959 
-6.39035 -2.82042 -0.000125799 
-6.16412 -2.82019 -0.000140478 
-5.94356 -2.82013 1.98546e-05 
-5.72673 -2.82135 2.8238e-05 
-5.51034 -2.8205 -2.78094e-05 
-5.33239 -2.82251 4.281e-05 
-5.15326 -2.81952 7.37487e-05 
-4.91988 -2.82154 2.97647e-05 
-4.71273 -2.81959 -6.62452e-06 
-4.49721 -2.82152 6.49345e-05 
-4.28375 -2.82207 8.02997e-05 
-4.07792 -2.82188 0.000195883 
-3.86648 -2.82138 0.000242611 
-3.65554 -2.8213 0.000198631 
-3.44187 -2.82184 0.000304715 
-3.22675 -2.82207 0.000427689 
-3.01788 -2.82245 0.000509243 
-2.79028 -2.82442 0.000680262 
-2.5768 -2.82481 0.000764433 
-2.36229 -2.82492 0.000861589 
-2.1436 -2.82777 0.000808463 
-1.91477 -2.82913 0.000926567 
-1.72065 -2.82696 0.000514307 
-1.52775 -2.82617 2.82796e-05 
-1.33289 -2.82578 0.000459016 
-1.12583 -2.8218 0.000653875 
-0.960048 -2.81015 0.000551107 
-0.743992 -2.80347 0.00272834 
-0.574048 -2.80053 0.00305175 
-0.388388 -2.78185 0.00308196 
-0.18448 -2.72379 -0.00170734 
0.307418 -2.72203 -0.00262647 
0.606304 -2.77414 -0.00311921 
0.848741 -2.81569 -0.000503683 
1.00292 -2.81825 -0.000969895 
1.15486 -2.82265 -0.000504859 
1.32451 -2.82353 -0.00031479 
1.51715 -2.82743 -0.000531803 
1.72993 -2.82693 -0.000694165 
1.94388 -2.8272 -0.000729833 
2.14018 -2.82931 -0.000865028 
2.3493 -2.82452 -0.000856552 
2.57077 -2.82555 -0.000713173 
2.78759 -2.82262 -0.000570886 
3.00704 -2.82341 -0.00046017 
3.22155 -2.82188 -0.000399313 
3.44211 -2.82206 -0.000358021 
3.657 -2.82127 -0.00027576 
3.87758 -2.8215 -0.000226382 
4.086 -2.82224 -0.000151813 
4.31827 -2.82126 -0.000135961 
4.48889 -2.8243 -5.1374e-05 
4.65805 -2.82152 -4.33382e-06 
4.87248 -2.82075 8.65335e-06 
5.08083 -2.82029 -8.46128e-05 
5.30406 -2.8204 -4.03251e-05 
5.52003 -2.82019 -1.91003e-05 
5.73986 -2.8202 -9.83348e-05 
5.96199 -2.81975 5.01345e-05 
6.18637 -2.82059 0.000133558 
6.40931 -2.8204 0.000136347 
6.6335 -2.82022 0.000169479 
6.85975 -2.82107 0.000146368 
7.08818 -2.82212 0.000359115 
7.31215 -2.8225 0.000424688 
7.55136 -2.82182 0.000606434 
7.77832 -2.8229 0.000613561 
8.02203 -2.82578 0.000792022 
8.24337 -2.8268 0.000633141 
8.47893 -2.81849 -1.91723e-05 
-8.48011 -2.57929 0.000740313 
-8.25478 -2.58174 5.96896e-05 
-8.0279 -2.61728 -2.27821e-05 
-7.76775 -2.58861 -6.54638e-05 
-7.53203 -2.58817 -0.000100634 
-7.29707 -2.5881 -1.7871e-05 
-7.06312 -2.57862 -1.39881e-05 
-6.83637 -2.5872 1.84349e-05 
-6.60519 -2.58382 -9.15303e-06 
-6.37875 -2.58809 -4.05152e-05 
-6.15112 -2.58837 1.76367e-05 
-5.92421 -2.58423 4.08926e-05 
-5.7032 -2.58452 3.20788e-05 
-5.48573 -2.58532 2.16283e-06 
-5.26257 -2.53852 -2.94619e-06 
-5.05396 -2.60516 -3.23712e-07 
-4.83585 -2.57966 5.287e-05 
-4.61832 -2.59025 4.80558e-05 
-4.40091 -2.5902 6.0257e-05 
-4.18753 -2.58172 2.71318e-05 
-3.97366 -2.58757 -2.83013e-05 
-3.75663 -2.58669 4.13761e-07 
-3.53867 -2.58922 -4.34046e-05 
-3.3187 -2.58925 -1.80208e-05 
-3.09953 -2.58052 -2.78602e-07 
-2.87717 -2.60093 -4.06841e-05 
-2.649 -2.58497 -0.000125843 
-2.42945 -2.58629 -0.000121303 
-2.20539 -2.59557 -0.000107108 
-1.97754 -2.61099 2.08859e-05 
-1.75391 -2.57444 0.000128657 
-1.55381 -2.57849 -4.07595e-05 
-1.35501 -2.5892 -0.000160403 
-1.15498 -2.60928 -0.000574582 
-0.949637 -2.54922 -0.000704825 
-0.782359 -2.61815 -0.000629915 
-0.563661 -2.57073 -0.000712178 
-0.388439 -2.57396 -0.000351098 
-0.192678 -2.52997 -0.00114673 
-0.112046 -2.3815 0.00298305 
0.0183226 -2.64144 -0.000149344 
0.380191 -2.60247 0.000868535 
0.655982 -2.62665 0.00070523 
0.80337 -2.56378 0.000939082 
0.957008 -2.54997 0.000674688 
1.13242 -2.57134 0.000446437 
1.33045 -2.59164 0.00030599 
1.54791 -2.61026 1.72828e-05 
1.77326 -2.60305 -0.000124828 
1.98282 -2.57611 -3.49421e-05 
2.19547 -2.58769 0.000214121 
2.42615 -2.59466 0.000202054 
2.65234 -2.58702 1.30282e-05 
2.8811 -2.58853 -9.65665e-05 
3.10448 -2.58464 -4.69648e-05 
3.33088 -2.59159 1.80894e-05 
3.5539 -2.58562 6.54415e-05 
3.7765 -2.59367 7.42947e-05 
3.99609 -2.58259 1.14827e-05 
4.2162 -2.60758 -2.34076e-05 
4.41656 -2.53042 -5.74048e-05 
4.6374 -2.5884 -7.97246e-05 
4.84467 -2.57956 -7.93185e-05 
5.06892 -2.59395 -6.85672e-05 
5.28443 -2.5851 1.11544e-05 
5.50407 -2.58707 6.9555e-05 
5.72473 -2.58726 8.59074e-06 
5.9474 -2.58675 -3.31726e-05 
6.16844 -2.58414 -3.96868e-05 
6.39176 -2.58343 -6.03524e-06 
6.61745 -2.5838 4.29447e-05 
6.84675 -2.58591 -2.77851e-05 
7.07103 -2.58083 3.4786e-05 
7.31034 -2.59488 3.79112e-05 
7.5381 -2.58111 0.000132933 
7.78454 -2.59963 6.34e-05 
8.00692 -2.58117 4.75991e-05 
8.24226 -2.5973 -6.95977e-06 
8.48055 -2.58991 -0.0007289 
-8.48159 -2.33839 0.00067453 
-8.25835 -2.33943 7.83547e-05 
-8.03403 -2.37624 0.000108867 
-7.80752 -2.38185 4.76751e-06 
-7.54878 -2.35557 3.61016e-05 
-7.31524 -2.35533 4.28903e-05 
-7.08323 -2.34597 3.86071e-05 
-6.85044 -2.34887 1.4588e-05 
-6.62443 -2.35217 -5.05143e-05 
-6.3954 -2.35429 -7.73944e-05 
-6.1711 -2.35685 -0.000114048 
-5.94703 -2.35443 -0.000102213 
-5.72232 -2.35063 -0.00010621 
-5.50332 -2.34919 -0.000105813 
-5.29057 -2.3174 -6.74423e-05 
-5.05582 -2.36404 1.00795e-06 
-4.84639 -2.34907 -3.23542e-05 
-4.63017 -2.36037 -7.19704e-05 
-4.41297 -2.35958 -9.17658e-05 
-4.19844 -2.34769 -0.000126553 
-3.9806 -2.35731 -0.000128424 
-3.76274 -2.35659 -0.000158668 
-3.54296 -2.35983 -0.0001686 
-3.32165 -2.35803 -0.00015074 
-3.09713 -2.35034 -0.000130429 
-2.86857 -2.37461 -0.00014892 
-2.64664 -2.34882 -0.000129706 
-2.41564 -2.35811 -0.000121478 
-2.18357 -2.37287 -6.4557e-05 
-1.95964 -2.38259 9.86178e-05 
-1.7525 -2.32751 0.000180606 
-1.54691 -2.33731 0.000174845 
-1.33331 -2.36908 -0.000244928 
-1.12139 -2.38274 -0.000211452 
-0.932655 -2.29993 -0.000544204 
-0.742518 -2.42252 -0.00122765 
-0.570029 -2.34019 -0.000107704 
-0.375405 -2.36922 7.16005e-05 
-0.218302 -2.22544 -0.000479768 
0.11911 -2.34138 -0.00120756 
0.109994 -2.5203 -0.00265642 
0.431058 -2.46599 0.000762581 
0.602372 -2.40985 0.00138507 
0.765589 -2.30332 0.000322076 
0.940526 -2.30541 0.000340864 
1.13869 -2.34678 0.000427827 
1.35324 -2.37664 0.00012558 
1.57528 -2.39382 -0.000266595 
1.7867 -2.36232 -3.54564e-05 
1.99988 -2.3337 2.92362e-05 
2.22909 -2.36392 0.000134947 
2.45413 -2.36021 0.000119618 
2.68636 -2.35861 5.65263e-05 
2.9112 -2.35359 5.62512e-05 
3.14068 -2.35737 0.000132418 
3.36275 -2.35946 0.000184136 
3.58836 -2.35835 0.000219458 
3.80718 -2.36313 0.000210241 
4.03023 -2.35809 0.000121357 
4.22895 -2.35553 6.19269e-05 
4.47562 -2.32054 9.37932e-05 
4.67593 -2.34495 6.8338e-05 
4.89825 -2.35891 4.74109e-05 
5.10991 -2.35734 6.40163e-05 
5.32741 -2.35323 0.000123731 
5.54438 -2.35385 0.000155466 
5.76349 -2.35487 0.000108429 
5.98202 -2.35059 6.55115e-05 
6.20309 -2.34911 8.90054e-05 
6.42586 -2.34804 9.55789e-05 
6.65231 -2.35079 5.20862e-05 
6.87447 -2.34497 4.36746e-06 
7.10968 -2.35546 8.37562e-06 
7.3336 -2.35414 -1.7188e-05 
7.58192 -2.36326 -6.39848e-05 
7.80329 -2.35282 -8.71229e-05 
8.0374 -2.35085 -9.65625e-05 
8.27174 -2.37055 -7.25626e-05 
8.48267 -2.33455 -0.000728098 
-8.47922 -2.11538 0.000398904 
-8.24206 -2.09959 4.90857e-05 
-8.0204 -2.13798 9.12616e-05 
-7.77171 -2.16868 -8.06632e-05 
-7.53725 -2.12352 -9.04255e-05 
-7.30716 -2.12199 -6.05418e-05 
-7.07253 -2.11586 1.63461e-05 
-6.84343 -2.11482 3.58586e-05 
-6.61248 -2.12308 1.5876e-05 
-6.38714 -2.12264 -4.21592e-05 
-6.16247 -2.12612 -6.01827e-05 
-5.93578 -2.12636 -3.22858e-05 
-5.716 -2.1181 -9.13037e-06 
-5.50216 -2.11133 6.41058e-06 
-5.25933 -2.11024 7.49955e-05 
-5.04736 -2.12777 0.000102679 
-4.82925 -2.12027 4.59871e-05 
-4.61006 -2.13437 1.57377e-05 
-4.39578 -2.12791 2.16912e-05 
-4.17501 -2.12211 9.02211e-05 
-3.95717 -2.12969 0.00011156 
-3.7366 -2.12985 0.000106395 
-3.5154 -2.13243 0.000140059 
-3.29077 -2.13015 0.00016497 
-3.05688 -2.12948 0.000197011 
-2.83905 -2.13799 0.000261871 
-2.59961 -2.12822 0.000307468 
-2.36554 -2.13879 0.000170559 
-2.14152 -2.1455 8.42328e-05 
-1.93558 -2.13426 6.80421e-05 
-1.7187 -2.08887 5.25531e-05 
-1.50565 -2.11545 0.000111812 
-1.29436 -2.15131 0.000129384 
-1.1008 -2.14517 0.000121425 
-0.952155 -2.02195 0.000608194 
-0.781091 -2.17672 0.000562819 
-0.620294 -2.12623 0.000578145 
-0.424008 -2.15664 0.000355055 
-0.114984 -2.14406 -0.00181755 
0.0947513 -2.15112 -0.000859558 
0.338546 -2.19622 -0.00138968 
0.339983 -2.36089 0.000844507 
0.574187 -2.17993 -0.000652675 
0.739385 -2.06782 -0.000592723 
0.914573 -2.06452 0.000119398 
1.10269 -2.11663 -7.39905e-06 
1.3087 -2.15433 -0.000233037 
1.5297 -2.17344 -0.000141038 
1.74415 -2.13482 -8.52084e-05 
1.96103 -2.09858 6.91311e-06 
2.18724 -2.1338 -9.0369e-05 
2.4131 -2.12839 -0.000216381 
2.64149 -2.13365 -0.000291497 
2.87224 -2.12285 -0.000213969 
3.10097 -2.13168 -0.000179276 
3.33006 -2.12797 -0.000170339 
3.55223 -2.13449 -0.000153884 
3.77779 -2.13422 -0.000126856 
3.99632 -2.13583 -0.000104675 
4.21522 -2.10903 -8.30164e-05 
4.4175 -2.12939 -2.65042e-05 
4.66657 -2.0979 -1.33058e-05 
4.86924 -2.13493 -5.59133e-05 
5.08987 -2.1228 -7.09034e-05 
5.30376 -2.12384 -5.59894e-05 
5.52278 -2.12227 -2.9874e-05 
5.74213 -2.12349 -3.58376e-05 
5.96214 -2.11761 -1.75271e-05 
6.18319 -2.11693 5.40735e-05 
6.40651 -2.11544 5.22204e-05 
6.63297 -2.11863 -1.53898e-05 
6.86025 -2.10685 -3.87975e-05 
7.08551 -2.12649 2.51656e-05 
7.31765 -2.11507 8.33641e-05 
7.54488 -2.14703 6.83089e-05 
7.79044 -2.10977 2.93524e-05 
8.014 -2.11919 -7.90513e-05 
8.23587 -2.12713 -9.4632e-05 
8.47881 -2.11713 -0.000447773 
-8.4814 -1.85341 0.000493929 
-8.28401 -1.87807 0.000129369 
-8.04458 -1.89271 3.19978e-05 
-7.82474 -1.9463 -6.6437e-05 
[...]
POINT_DATA 2012 
VECTORS vectors float
0.100611 -0.141042 0.986187 
0.111296 -0.108232 0.990773 
0.122928 -0.0770101 0.992416 
0.132092 -0.0569027 0.992524 
0.139406 -0.04285 0.992127 
0.144026 -0.0321104 0.991831 
0.147028 -0.0240576 0.991606 
0.149453 -0.0173816 0.991338 
0.151133 -0.0112868 0.991098 
0.153226 -0.00691683 0.990756 
0.155314 -0.00475819 0.990413 
0.157186 -0.00448711 0.990093 
0.157219 -0.00539535 0.990045 
0.156389 -0.00510073 0.99015 
0.15616 -0.00470045 0.989383 
0.15444 -0.00439155 0.990477 
0.153601 -0.00184025 0.99059 
0.153325 0.000470083 0.990666 
0.15222 0.00231108 0.990804 
0.15032 0.0054522 0.99107 
0.149322 0.00994551 0.991223 
0.148536 0.0145329 0.99134 
0.147389 0.0188442 0.991467 
0.145744 0.0239275 0.991643 
0.141341 0.0303453 0.992177 
0.13593 0.0399039 0.992629 
0.128331 0.0554985 0.992945 
0.11943 0.0756969 0.992787 
0.108695 0.100982 0.991784 
0.0954763 0.135199 0.988966 
0.0772517 0.181587 0.982966 
0.0576527 0.233669 0.972985 
0.0359746 0.298812 0.955618 
0.0116215 0.38131 0.925766 
-0.0135621 0.487536 0.873796 
-0.0290591 0.584161 0.811003 
-0.0428065 0.715358 0.696957 
-0.0443615 0.812204 0.580447 
-0.0359213 0.903804 0.425683 
-0.0099925 0.979464 0.214611 
0.0242444 0.942963 -0.334079 
0.045275 0.791464 -0.608639 
0.0366453 0.646448 -0.76119 
0.0240294 0.557518 -0.830018 
0.00963152 0.473422 -0.881823 
-0.0103547 0.387909 -0.923131 
-0.0343976 0.304909 -0.953634 
-0.0587219 0.232366 -0.973139 
-0.0792794 0.176405 -0.983718 
-0.0948598 0.136046 -0.988938 
-0.107612 0.103544 -0.991672 
-0.118872 0.0765272 -0.992814 
-0.127263 0.0561815 -0.993127 
-0.134926 0.0412145 -0.992778 
-0.140999 0.0305307 -0.992268 
-0.145368 0.0236586 -0.991763 
-0.147975 0.0192057 -0.991418 
-0.148723 0.0144928 -0.99134 
-0.149085 0.010123 -0.991286 
-0.150372 0.00530531 -0.991123 
-0.152043 0.00240811 -0.990075 
-0.152447 0.000474345 -0.990801 
-0.153058 -0.00174133 -0.990687 
-0.154333 -0.0041074 -0.990495 
-0.156114 -0.00488819 -0.99019 
-0.156708 -0.00498902 -0.99011 
-0.15741 -0.00528758 -0.990006 
-0.157031 -0.00447225 -0.990102 
-0.155343 -0.00473151 -0.990405 
-0.153209 -0.00722268 -0.99078 
-0.150766 -0.0116909 -0.991167 
-0.148898 -0.0175837 -0.991415 
-0.14669 -0.0244578 -0.991634 
-0.143635 -0.0328174 -0.991882 
-0.138944 -0.0442477 -0.992146 
-0.131853 -0.0580354 -0.992498 
-0.121932 -0.0795905 -0.9923 
-0.111667 -0.106813 -0.990891 
-0.100565 -0.142511 -0.98599 
0.073075 -0.151978 0.988368 
0.0826753 -0.117684 0.996422 
0.0955641 -0.0887951 0.998524 
0.101464 -0.0654851 0.999905 
0.10777 -0.0488143 1.00012 
0.112339 -0.0365726 1.00006 
0.114494 -0.0274218 1.0001 
0.118309 -0.0200995 0.999723 
0.119831 -0.0138927 0.999563 
0.122122 -0.00911658 0.999218 
0.123654 -0.00634396 0.998967 
0.124293 -0.00481649 0.99885 
0.124464 -0.00427114 0.998766 
0.123835 -0.00366195 0.99881 
0.117006 -0.00260939 1.00047 
0.124043 -0.00197713 0.998695 
0.120104 0.000354409 0.999218 
0.120605 0.0028601 0.999094 
0.119566 0.00576142 0.999153 
0.117453 0.00942027 0.998772 
0.117075 0.0137299 0.999436 
0.115452 0.0187788 0.999627 
0.114442 0.0247923 0.999664 
0.11149 0.0325793 0.999862 
0.106406 0.04275 1.00015 
0.103352 0.0564981 0.999794 
0.0948288 0.0773869 0.999374 
0.0867119 0.103247 0.997785 
0.0777019 0.137238 0.99431 
0.0664484 0.181943 0.987644 
0.0497762 0.242782 0.975175 
0.0357695 0.308819 0.956365 
0.0210214 0.389619 0.92642 
0.00535189 0.486939 0.876468 
-0.00289943 0.602559 0.800232 
-0.016288 0.697804 0.716602 
-0.0138316 0.82021 0.567902 
-0.0120229 0.903903 0.418865 
-0.00195239 0.969655 0.220315 
0.00226587 0.983596 0.133055 
0.00296148 0.988692 -0.0136606 
0.0160195 0.910875 -0.40493 
0.0218464 0.768886 -0.637559 
0.0104362 0.685627 -0.727923 
0.00200817 0.597498 -0.803927 
-0.00608092 0.501089 -0.868917 
-0.019016 0.40258 -0.919923 
-0.0355551 0.311501 -0.955177 
-0.0520452 0.236754 -0.976439 
-0.0638903 0.184096 -0.987538 
-0.0762524 0.140017 -0.994086 
-0.0871251 0.10357 -0.99775 
-0.0945131 0.0774348 -0.999487 
-0.10171 0.0570698 -1.00008 
-0.106877 0.0422638 -1.00022 
-0.111883 0.031698 -0.999938 
-0.114137 0.0246075 -0.999818 
-0.116676 0.0186611 -0.999533 
-0.116224 0.0137788 -0.999642 
-0.120138 0.00893566 -0.999131 
-0.112382 0.00576134 -1.00098 
-0.120368 0.00224278 -0.999145 
-0.119854 5.05339e-05 -0.999235 
-0.12264 -0.00194372 -0.998845 
-0.12293 -0.0028069 -0.998875 
-0.124356 -0.00361236 -0.998724 
-0.124776 -0.00448795 -0.998708 
-0.12439 -0.00503211 -0.99881 
-0.123228 -0.00641218 -0.999035 
-0.12163 -0.00943153 -0.9993 
-0.119448 -0.0141208 -0.999593 
-0.11767 -0.0201828 -0.99977 
-0.114837 -0.0275258 -1.00002 
-0.112953 -0.0372671 -0.999938 
-0.106786 -0.0498737 -1.0002 
-0.102102 -0.0665723 -0.999683 
-0.0923876 -0.0878705 -0.999002 
-0.084974 -0.115615 -0.996427 
-0.0749676 -0.152103 -0.98817 
0.0508177 -0.162875 0.988058 
0.0599697 -0.127268 0.997082 
0.0713255 -0.0981457 0.99939 
0.0783695 -0.074671 1.0017 
0.0824382 -0.0549462 1.00265 
0.0867554 -0.0415797 1.00285 
0.0896061 -0.0312799 1.00291 
0.093 -0.0234742 1.00272 
0.0957137 -0.01707 1.0025 
0.0979118 -0.0114089 1.00224 
0.0994401 -0.00761891 1.00203 
0.100148 -0.00506094 1.00191 
0.0999499 -0.00357527 1.00186 
0.0992924 -0.00254906 1.00188 
0.0953742 -0.00136405 1.00227 
0.0984295 -0.000283726 1.00189 
0.0963916 0.00169445 1.00206 
0.0966098 0.00435253 1.00201 
0.0955496 0.00742694 1.00215 
0.0931666 0.0109557 1.00304 
0.0932276 0.0154302 1.00235 
0.0918741 0.0211521 1.00237 
0.0905997 0.0280284 1.00239 
0.0880142 0.0367666 1.00245 
0.0839992 0.0479985 1.00242 
0.081765 0.0630204 1.00185 
0.0745325 0.0842916 1.00093 
0.0689466 0.112611 0.998507 
0.0626307 0.149684 0.993939 
0.0547334 0.195981 0.986085 
0.0450483 0.252679 0.973185 
0.0370069 0.321028 0.952445 
0.0276269 0.407406 0.917448 
0.0180466 0.510034 0.86448 
0.0188499 0.613594 0.791122 
0.00306278 0.722058 0.691347 
0.00913202 0.815926 0.574134 
0.00482968 0.908976 0.405824 
0.010925 0.963657 0.248384 
-0.00241672 0.985009 -0.12732 
0.00363362 0.985064 -0.116664 
0.00469665 0.888749 -0.451965 
-0.00126688 0.801131 -0.594857 
-0.0148092 0.708079 -0.706262 
-0.0180285 0.609076 -0.795264 
-0.0209474 0.502439 -0.868479 
-0.0282331 0.399448 -0.921692 
-0.0378282 0.310476 -0.956039 
-0.0463515 0.243002 -0.97579 
-0.053348 0.188931 -0.987691 
-0.0630417 0.142145 -0.995126 
-0.0700723 0.107537 -0.999097 
-0.0763307 0.0802307 -1.00117 
-0.0809338 0.0605344 -1.00212 
-0.0853994 0.045464 -1.00246 
-0.0885309 0.0347625 -1.00251 
-0.0905792 0.0265884 -1.00245 
-0.0924038 0.0201618 -1.00234 
-0.0931637 0.0147909 -1.0023 
-0.0941145 0.0107177 -1.00224 
-0.0919741 0.00651388 -1.0025 
-0.0950395 0.00348123 -1.00216 
-0.0972859 0.00106248 -1.00195 
-0.0983903 -0.000453652 -1.00186 
-0.0989255 -0.0015104 -1.00184 
-0.0999046 -0.00264064 -1.0018 
-0.100341 -0.00394306 -1.0018 
-0.0996589 -0.00552416 -1.00194 
-0.0985379 -0.008182 -1.00211 
-0.096979 -0.0121721 -1.00233 
-0.0952099 -0.0174702 -1.00253 
-0.0922976 -0.0240031 -1.00275 
-0.0903365 -0.0322953 -1.00278 
-0.086666 -0.0427861 -1.00278 
-0.0824791 -0.0575135 -1.00249 
-0.0758265 -0.0752143 -1.00184 
-0.068834 -0.0993003 -0.999385 
-0.0621994 -0.12784 -0.996746 
-0.0503952 -0.162641 -0.988095 
0.0362188 -0.171124 0.987191 
0.0431592 -0.132698 0.99734 
0.0521027 -0.102832 1.00167 
0.0607326 -0.0762083 1.00281 
0.0618412 -0.0582338 1.00389 
0.0656581 -0.0443325 1.00428 
0.0682719 -0.0333492 1.00443 
0.0712804 -0.02557 1.00435 
0.0750928 -0.0187763 1.00415 
0.0775762 -0.0130949 1.00396 
0.079571 -0.00889311 1.00371 
0.0805832 -0.00576929 1.0036 
0.0804155 -0.00366286 1.00355 
0.0797728 -0.00198648 1.00354 
0.0787897 -8.61373e-05 1.00356 
0.0792007 0.00132786 1.00348 
0.0777965 0.00339761 1.00359 
0.0780977 0.00616587 1.00355 
0.0764038 0.0094675 1.00368 
0.0748145 0.0131614 1.00382 
0.0741979 0.0177693 1.0038 
0.0729087 0.0239055 1.00384 
0.071426 0.0317421 1.00383 
0.0689379 0.0414965 1.00376 
0.0657749 0.0539683 1.00349 
0.0633656 0.0696201 1.00277 
0.058814 0.0936608 1.00111 
0.0551981 0.124433 0.997925 
0.05102 0.162429 0.992557 
0.0465272 0.206883 0.984212 
0.0424932 0.265008 0.969914 
0.0393337 0.337051 0.946707 
0.0351825 0.424846 0.909699 
0.0329166 0.518613 0.858291 
0.0411658 0.594524 0.8046 
0.0270548 0.696126 0.718172 
0.0303767 0.784392 0.617049 
0.0235444 0.88536 0.456299 
0.00862316 0.983768 0.135873 
-0.00627121 0.987444 -0.105335 
-0.0158582 0.924842 -0.366111 
-0.00414626 0.925707 -0.364562 
-0.0232096 0.812601 -0.577437 
-0.0369739 0.715821 -0.696797 
-0.0380116 0.616732 -0.787691 
-0.0343334 0.517973 -0.859193 
-0.0353591 0.419273 -0.912413 
-0.0389323 0.330021 -0.948596 
-0.0426123 0.258822 -0.972392 
-0.0454472 0.20171 -0.985506 
-0.050816 0.154251 -0.993969 
-0.055295 0.117752 -0.998835 
-0.0600411 0.0890921 -1.00152 
-0.0631992 0.067431 -1.00295 
-0.0667761 0.0515347 -1.00358 
-0.0688913 0.0397041 -1.00387 
-0.0714661 0.0303228 -1.00389 
-0.0732157 0.0227731 -1.00384 
-0.0745502 0.0170621 -1.00378 
-0.0738218 0.012628 -1.00383 
-0.0764512 0.00900991 -1.00366 
-0.0754685 0.0056521 -1.00374 
-0.0789221 0.00286672 -1.0035 
-0.0791927 0.000975083 -1.00349 
-0.0800817 -0.000465163 -1.00345 
-0.0805943 -0.00203606 -1.00346 
-0.0808467 -0.00379443 -1.00351 
-0.0798701 -0.00601696 -1.00365 
-0.0786694 -0.00926972 -1.0038 
-0.0767166 -0.0136082 -1.004 
-0.0745604 -0.0191766 -1.00418 
-0.0707308 -0.0260914 -1.00439 
-0.069355 -0.0339146 -1.00434 
-0.0648628 -0.0451442 -1.00428 
-0.0634865 -0.0589339 -1.00375 
-0.055379 -0.0793591 -1.00291 
-0.0506923 -0.10269 -1.00098 
-0.0448965 -0.130767 -0.997433 
-0.0360302 -0.170836 -0.987303 
0.0236846 -0.178613 0.986157 
0.0295738 -0.1446 0.995723 
0.0360725 -0.111241 1.00048 
0.0437436 -0.0855712 1.00201 
0.0451877 -0.0662104 1.00409 
0.0476792 -0.050278 1.00486 
0.0505491 -0.0383302 1.00516 
0.0530353 -0.0291853 1.00523 
0.0564556 -0.0218283 1.00522 
0.058484 -0.0161321 1.00575 
0.060667 -0.0115559 1.00429 
0.0629358 -0.00775376 1.00474 
0.0632182 -0.00496703 1.00469 
0.0632261 -0.00277266 1.00462 
0.0647391 -0.00053211 1.00447 
0.0633531 0.00181735 1.00448 
0.0630828 0.00423186 1.00448 
0.0628744 0.00704089 1.00447 
0.0615122 0.00989868 1.00454 
0.0601764 0.0130043 1.0046 
0.058901 0.0173997 1.00466 
0.0577755 0.0231488 1.00469 
0.0560981 0.0307107 1.00469 
0.0541492 0.0396223 1.00459 
0.0524685 0.0510642 1.00427 
0.0495493 0.0658551 1.00364 
0.0485811 0.084828 1.00232 
0.0460892 0.113523 0.999591 
0.0440242 0.14831 0.995062 
0.0423028 0.188662 0.98809 
0.0420089 0.235963 0.977628 
0.0431119 0.305027 0.957578 
0.0443891 0.383114 0.928297 
0.0466448 0.469018 0.887156 
0.0575352 0.533353 0.847297 
0.05107 0.673071 0.737732 
0.0511545 0.782889 0.616234 
0.0385955 0.893096 0.438034 
0.0203435 0.971897 0.20276 
-0.00853109 0.990151 -0.0639411 
-0.0270352 0.943519 -0.311949 
-0.0392419 0.847035 -0.524052 
-0.0585153 0.738852 -0.669586 
-0.0591748 0.628383 -0.777719 
-0.0675383 0.519954 -0.855018 
-0.0508504 0.527668 -0.850986 
-0.0450107 0.434361 -0.904684 
-0.0424656 0.346089 -0.943905 
-0.0424664 0.276334 -0.965968 
-0.0416545 0.217887 -0.98192 
-0.0426767 0.165257 -0.992406 
-0.0444166 0.127608 -0.998034 
-0.0468788 0.0970554 -1.00135 
-0.0491692 0.0742582 -1.0032 
-0.0515646 0.0568055 -1.00413 
-0.0529936 0.044411 -1.00455 
-0.0550478 0.0340396 -1.00478 
-0.0574861 0.0255332 -1.00475 
-0.0586335 0.0190794 -1.00472 
-0.0587977 0.0147392 -1.00472 
-0.0598329 0.0112456 -1.00461 
-0.0625137 0.00802012 -1.00453 
-0.0627548 0.00457301 -1.00453 
-0.0638372 0.00229061 -1.00446 
-0.0639275 0.000187552 -1.00449 
-0.0642423 -0.00201328 -1.00453 
-0.06395 -0.00419829 -1.00461 
-0.0623588 -0.00686371 -1.00478 
-0.0606154 -0.0105039 -1.00493 
-0.0586586 -0.014946 -1.00506 
-0.0567726 -0.0204693 -1.00515 
-0.0533368 -0.0274671 -1.00526 
-0.0516074 -0.0357549 -1.00517 
-0.0482865 -0.046624 -1.00497 
-0.0464878 -0.0611269 -1.00437 
-0.0419342 -0.0794953 -1.00336 
-0.0360296 -0.10646 -1.00186 
-0.0322248 -0.137201 -0.996968 
-0.0257086 -0.177353 -0.986273 
0.0157512 -0.182362 0.985503 
0.0205343 -0.141512 0.996487 
0.0263791 -0.11439 1.00027 
0.0321585 -0.0871389 1.0029 
0.0342491 -0.0668724 1.00434 
0.035576 -0.0514444 1.0051 
0.0382826 -0.0390507 1.00549 
0.0400901 -0.0300921 1.00551 
0.0422452 -0.022791 1.00558 
0.043655 -0.0172011 1.00502 
0.0454415 -0.0126192 1.00617 
0.0472626 -0.00895562 1.00549 
0.0478358 -0.0061209 1.00534 
0.0492179 -0.00322798 1.0052 
0.051591 -0.000438703 1.00498 
0.0497452 0.00222513 1.00507 
0.0505552 0.00554883 1.00501 
0.0494833 0.00863332 1.00509 
0.0484007 0.0116005 1.00501 
0.0474442 0.0146049 1.0051 
0.0456485 0.0186371 1.00518 
0.0445911 0.0243543 1.0052 
0.0427874 0.0319483 1.00517 
0.0414936 0.0411264 1.00499 
0.0401922 0.0520081 1.00464 
0.0381789 0.0654167 1.004 
0.0389177 0.0851957 1.00255 
0.0378819 0.110482 1.00012 
0.0375723 0.140366 0.99631 
0.0382991 0.175244 0.990619 
0.0413883 0.226023 0.980553 
0.0457188 0.277751 0.965978 
0.0504172 0.349397 0.941242 
0.0568801 0.419071 0.910338 
0.070794 0.479839 0.878523 
0.0709911 0.61449 0.787366 
0.0754059 0.72946 0.67751 
0.0609656 0.864486 0.489163 
0.0400935 0.956168 0.264486 
-0.00334777 0.990748 -0.00637363 
-0.0423604 0.944629 -0.304498 
-0.0602746 0.854334 -0.50864 
-0.0839062 0.73242 -0.672944 
-0.0817853 0.617695 -0.782858 
-0.082729 0.490963 -0.871896 
-0.0565766 0.432848 -0.90517 
-0.0487477 0.356512 -0.938129 
-0.0451469 0.28623 -0.963416 
-0.0411545 0.227815 -0.98019 
-0.0387345 0.17795 -0.989475 
-0.0373928 0.137914 -0.997361 
-0.037702 0.107075 -0.999856 
-0.0379718 0.0828623 -1.0028 
-0.0389497 0.064492 -1.00471 
-0.0399647 0.0504277 -1.00409 
-0.0414128 0.0397704 -1.00506 
-0.0427307 0.0309385 -1.00584 
-0.0448316 0.0234117 -1.00463 
-0.0453743 0.018084 -1.00581 
-0.0465369 0.0143991 -1.00514 
-0.047528 0.0115509 -1.00451 
-0.0511942 0.0081256 -1.00555 
-0.0493907 0.00503908 -1.0051 
-0.0509436 0.00201027 -1.00504 
-0.050224 -0.000775676 -1.00513 
-0.0496725 -0.00330127 -1.00522 
-0.048417 -0.00605577 -1.00533 
-0.0465227 -0.00934146 -1.00545 
-0.0448479 -0.013138 -1.00554 
-0.0432895 -0.017767 -1.00561 
-0.041813 -0.0235451 -1.00563 
-0.0395284 -0.0312524 -1.00558 
-0.0376119 -0.0400435 -1.00542 
-0.0357233 -0.0523984 -1.00501 
-0.0335124 -0.0674747 -1.00424 
-0.0306999 -0.0882925 -1.00204 
-0.0256676 -0.11592 -1.00009 
-0.0219532 -0.147331 -0.995385 
-0.0153123 -0.182579 -0.985473 
0.00892067 -0.188032 0.984514 
0.0141333 -0.149507 0.995196 
0.018751 -0.114604 1.0003 
0.0239758 -0.0918112 1.00262 
0.0258459 -0.0722018 1.00409 
0.0275946 -0.0559411 1.00498 
0.0303008 -0.0424448 1.00604 
0.0318687 -0.0329584 1.00494 
0.0334138 -0.0251224 1.00571 
0.0340697 -0.0193498 1.00639 
0.0353144 -0.0145078 1.00578 
0.0366521 -0.0107752 1.00571 
0.0375884 -0.00777321 1.00551 
0.0389757 -0.00452951 1.00546 
0.0409088 -0.00152044 1.00469 
0.0404601 0.00166268 1.00531 
0.0409122 0.00548539 1.00531 
0.0405221 0.00930314 1.00587 
0.0395702 0.0126156 1.00471 
0.0386411 0.0155384 1.00527 
0.0371594 0.0192153 1.00537 
0.035981 0.0243807 1.0054 
0.0344207 0.0315486 1.00535 
0.0331327 0.0401127 1.00515 
0.0320469 0.0495293 1.00491 
0.0311498 0.0612037 1.00437 
0.0322559 0.0790082 1.00312 
0.0320765 0.0992517 1.00134 
0.0327897 0.12435 0.998475 
0.0353264 0.159809 0.993161 
0.0397872 0.205625 0.98367 
0.0458761 0.253356 0.972613 
0.054116 0.318062 0.952597 
0.0659997 0.386436 0.925923 
0.0865744 0.461988 0.886958 
0.0893131 0.564252 0.823738 
0.098838 0.691217 0.713903 
0.0897165 0.828166 0.544626 
0.054802 0.948441 0.284169 
-0.0173875 0.98476 -0.0643634 
-0.0594437 0.943433 -0.30084 
-0.0919716 0.833601 -0.535792 
-0.114492 0.696195 -0.706737 
-0.103742 0.581298 -0.808955 
-0.0941202 0.454258 -0.890276 
-0.0672972 0.410399 -0.913948 
-0.055133 0.342137 -0.943849 
-0.0475842 0.274188 -0.967568 
-0.0411172 0.21829 -0.98097 
-0.0366936 0.174655 -0.991362 
-0.0336969 0.135938 -0.996367 
-0.0322587 0.105225 -1.00149 
-0.0314303 0.0815108 -1.00298 
-0.0314138 0.0641895 -1.00351 
-0.0317147 0.0507644 -1.00548 
-0.0327013 0.0407122 -1.00514 
-0.0339343 0.0324514 -1.00467 
-0.0355403 0.0252651 -1.00595 
-0.0366749 0.0197622 -1.00475 
-0.0378579 0.016005 -1.00532 
-0.038686 0.0128682 -1.00589 
-0.0415684 0.009426 -1.00467 
-0.0405321 0.00587304 -1.00523 
-0.0409153 0.00189417 -1.00531 
-0.0402026 -0.00115392 -1.0054 
-0.0392079 -0.0040844 -1.00549 
-0.0378645 -0.0073268 -1.00557 
-0.0365524 -0.0104263 -1.0056 
-0.035286 -0.0140954 -1.0057 
-0.0345172 -0.0189711 -1.00572 
-0.0334118 -0.0251631 -1.00571 
-0.0318877 -0.0327613 -1.00563 
-0.0295569 -0.0424261 -1.00546 
-0.0279517 -0.054319 -1.00499 
-0.0252685 -0.0708799 -1.00412 
-0.0235059 -0.089322 -1.00274 
-0.0190623 -0.11447 -1.0003 
-0.0156556 -0.143903 -0.996098 
-0.00944482 -0.18688 -0.984661 
0.00625512 -0.192101 0.983612 
0.0105598 -0.14744 0.995677 
0.0140849 -0.116811 1.00006 
0.0184138 -0.0883692 1.00295 
0.0204647 -0.068953 1.0043 
0.0230041 -0.0522932 1.00511 
0.0244825 -0.041179 1.00546 
0.026019 -0.0321457 1.00568 
0.0268469 -0.0246668 1.0058 
0.0276101 -0.0190083 1.00575 
0.0287005 -0.0143308 1.00521 
0.029773 -0.0107863 1.00627 
0.0307251 -0.00808744 1.00516 
0.0315489 -0.00494121 1.00622 
0.0332489 -0.00163651 1.00565 
0.0331526 0.00196316 1.00612 
0.0339286 0.00632433 1.00488 
0.0337658 0.0109071 1.00541 
0.032947 0.0147134 1.00604 
0.0319843 0.0180274 1.00549 
0.0306101 0.0219292 1.0055 
0.0293188 0.0273048 1.0055 
0.0279833 0.0343896 1.00539 
0.0266708 0.0420306 1.00463 
0.0259248 0.0510052 1.00559 
0.025863 0.0644679 1.00424 
0.0263974 0.0800057 1.00248 
0.0267121 0.0998219 1.0014 
0.0292676 0.1282 0.998085 
0.0334161 0.164509 0.992506 
0.0389568 0.204071 0.98473 
0.0487226 0.259458 0.970903 
0.0602469 0.318189 0.952159 
0.0784308 0.385006 0.92501 
0.105704 0.444189 0.894164 
0.114255 0.534921 0.839553 
0.128824 0.637372 0.761198 
0.127735 0.788929 0.593824 
0.137331 0.86646 0.469463 
0.0456868 0.976333 0.184269 
-0.100164 0.924666 -0.345881 
-0.130003 0.813049 -0.558309 
-0.150157 0.655042 -0.739653 
-0.126194 0.538307 -0.835782 
-0.104376 0.420735 -0.9055 
-0.0725551 0.372589 -0.930549 
-0.0575571 0.312996 -0.954026 
-0.0470675 0.254286 -0.972397 
-0.0393314 0.208324 -0.983861 
-0.0340491 0.168413 -0.99182 
-0.0300385 0.1336 -0.997316 
-0.0274494 0.104408 -1.00102 
-0.0262886 0.0814332 -1.0031 
-0.0260009 0.0638369 -1.00425 
-0.0260746 0.0511324 -1.00497 
-0.026621 0.0414203 -1.00525 
-0.0276713 0.0338907 -1.00536 
-0.0290975 0.0274375 -1.00544 
-0.030399 0.0219898 -1.0054 
-0.0315518 0.0178073 -1.00545 
-0.0325115 0.0144198 -1.00548 
-0.0343969 0.010274 -1.00539 
-0.0334487 0.00612798 -1.00548 
-0.0338131 0.00194864 -1.00549 
-0.0324775 -0.0017744 -1.00557 
-0.0317737 -0.00503326 -1.00563 
-0.0306235 -0.0083382 -1.00564 
-0.0296723 -0.0111403 -1.00509 
-0.0288048 -0.0148006 -1.00572 
-0.0277991 -0.0200394 -1.00579 
-0.0267686 -0.0259938 -1.00578 
-0.0254088 -0.0339345 -1.00573 
-0.0237603 -0.04389 -1.0061 
-0.0218304 -0.0565421 -1.00497 
-0.0196406 -0.0728673 -1.00406 
-0.0174587 -0.093272 -1.00253 
-0.0134321 -0.11975 -0.999657 
-0.0106378 -0.15326 -0.994546 
-0.00579198 -0.192307 -0.983605 
0.00486961 -0.195427 0.983035 
0.00700951 -0.161664 0.993069 
0.00894656 -0.123495 0.999219 
0.0121804 -0.0967829 1.00224 
0.0139855 -0.0750056 1.00392 
0.0151035 -0.0596456 1.00473 
0.0171664 -0.0461539 1.00467 
0.0178 -0.0354042 1.00643 
0.0192833 -0.0273927 1.00586 
0.0207501 -0.0211058 1.00522 
0.0216143 -0.0156709 1.00648 
0.0232189 -0.0117819 1.0053 
0.0239802 -0.00897739 1.00638 
0.0249216 -0.00596608 1.00521 
0.0262464 -0.00260065 1.00634 
0.0263847 0.00104009 1.00512 
0.0273451 0.0059631 1.00619 
0.0274938 0.0111714 1.00496 
0.0269648 0.0157778 1.00555 
0.0260043 0.0196734 1.00557 
0.0246508 0.0236696 1.0056 
0.0233855 0.028791 1.00559 
0.0221566 0.0350169 1.00557 
0.0207918 0.0420929 1.00605 
0.0204885 0.0509618 1.00445 
0.0204518 0.0637214 1.00446 
0.0201125 0.0815434 1.00399 
0.0219487 0.105029 1.0011 
0.0256278 0.134794 0.99738 