# vtk DataFile Version 3.0 
Exported using Morpho https://github.com/Morpho-lang/morpho 
ASCII 
DATASET UNSTRUCTURED_GRID 

POINTS 2012 float 
-8.48528 -2.82843 -1.53097e-10 
-8.24093 -2.82843 6.85771e-09 
-8.00416 -2.82843 3.75664e-09 
-7.78146 -2.82843 2.89134e-09 
-7.55911 -2.82843 3.85469e-09 
-7.32923 -2.82843 3.5718e-09 
-7.10553 -2.82843 2.56343e-09 
-6.88386 -2.82843 2.08936e-09 
-6.65536 -2.82843 1.55796e-09 
-6.43017 -2.82843 1.03365e-09 
-6.20958 -2.82843 6.31052e-10 
-5.99139 -2.82843 2.73716e-10 
-5.77282 -2.82843 -5.33385e-11 
-5.56225 -2.82843 -3.19254e-10 
-5.35517 -2.82843 -6.66647e-10 
-5.13502 -2.82843 -1.00161e-09 
-4.92468 -2.82843 -1.18884e-09 
-4.71403 -2.82843 -1.54671e-09 
-4.50162 -2.82843 -2.00203e-09 
-4.28775 -2.82843 -2.41545e-09 
-4.07706 -2.82843 -2.93478e-09 
-3.862 -2.82843 -4.18634e-09 
-3.63652 -2.82843 -5.08146e-09 
-3.42185 -2.82843 -5.50914e-09 
-3.20706 -2.82843 -6.53105e-09 
-2.995 -2.82843 -7.58513e-09 
-2.7808 -2.82843 -9.2498e-09 
-2.5642 -2.82843 -1.10014e-08 
-2.3472 -2.82843 -1.14507e-08 
-2.13521 -2.82843 -1.39181e-08 
-1.90853 -2.82843 -1.31797e-08 
-1.71661 -2.82843 -7.48459e-09 
-1.51369 -2.82843 -6.95757e-09 
-1.35993 -2.82843 -4.5944e-09 
-1.12972 -2.82843 3.83007e-09 
-0.964716 -2.82843 1.32254e-08 
-0.77397 -2.82843 2.50099e-08 
-0.560365 -2.82843 4.38385e-08 
-0.364216 -2.82843 3.68233e-08 
-0.142143 -2.82842 -2.52324e-08 
0.16691 -2.82842 -1.05409e-08 
0.434665 -2.82842 -1.11965e-07 
0.800621 -2.82843 1.58853e-08 
1.01386 -2.82843 -6.31302e-09 
1.18493 -2.82843 -6.48467e-09 
1.36913 -2.82843 1.23667e-09 
1.58148 -2.82843 8.48436e-09 
1.77213 -2.82843 6.85704e-09 
1.96331 -2.82843 1.06963e-08 
2.1729 -2.82843 1.19711e-08 
2.38586 -2.82843 1.16817e-08 
2.60221 -2.82843 1.0452e-08 
2.81688 -2.82843 9.31677e-09 
3.03467 -2.82843 7.94028e-09 
3.24944 -2.82843 5.9491e-09 
3.45712 -2.82843 5.19392e-09 
3.67195 -2.82843 4.51569e-09 
3.88515 -2.82843 3.64225e-09 
4.09855 -2.82843 2.97014e-09 
4.3109 -2.82843 2.37451e-09 
4.5219 -2.82843 1.8782e-09 
4.73186 -2.82843 1.52237e-09 
4.94346 -2.82843 1.21876e-09 
5.1552 -2.82843 9.16696e-10 
5.36686 -2.82843 6.38693e-10 
5.57867 -2.82843 3.35191e-10 
5.7914 -2.82843 2.43685e-11 
6.00738 -2.82843 -2.90251e-10 
6.22549 -2.82843 -6.3807e-10 
6.44576 -2.82843 -9.92934e-10 
6.66463 -2.82843 -1.43966e-09 
6.88853 -2.82843 -2.14921e-09 
7.1176 -2.82843 -2.91964e-09 
7.34686 -2.82843 -3.77634e-09 
7.58225 -2.82843 -4.1282e-09 
7.81498 -2.82843 -3.35649e-09 
8.04413 -2.82843 -3.49911e-09 
8.26461 -2.82843 -5.98805e-09 
8.48528 -2.82843 5.48303e-10 
-8.48528 -2.60714 -4.2719e-09 
-8.23189 -2.60423 1.12746e-11 
-7.99242 -2.59877 1.72956e-11 
-7.75709 -2.59699 1.55634e-11 
-7.522 -2.6021 1.46234e-11 
-7.28907 -2.59398 1.07416e-11 
-7.0597 -2.59216 8.59e-12 
-6.82914 -2.59958 7.90168e-12 
-6.59931 -2.59974 5.99947e-12 
-6.37258 -2.5974 3.98481e-12 
-6.14922 -2.59727 2.31408e-12 
-5.92656 -2.59956 8.63913e-13 
-5.70847 -2.59406 -4.13067e-13 
-5.49413 -2.59203 -1.54149e-12 
-5.27604 -2.60361 -3.06126e-12 
-5.0586 -2.59639 -4.00817e-12 
-4.8442 -2.59669 -5.37258e-12 
-4.62856 -2.5981 -7.09399e-12 
-4.41286 -2.59961 -9.14102e-12 
-4.19805 -2.59506 -1.07907e-11 
-3.98145 -2.60015 -1.41616e-11 
-3.75862 -2.60957 -1.95818e-11 
-3.53589 -2.59949 -2.13332e-11 
-3.31584 -2.60009 -2.6228e-11 
-3.09557 -2.59619 -2.97097e-11 
-2.87522 -2.59877 -3.55137e-11 
-2.65328 -2.60083 -4.16996e-11 
-2.43011 -2.60196 -4.62572e-11 
-2.20878 -2.59816 -4.4306e-11 
-1.98572 -2.61479 -5.66893e-11 
-1.76501 -2.57594 -2.63997e-11 
-1.57074 -2.59446 -1.93771e-11 
-1.38282 -2.53906 -1.12487e-11 
-1.22263 -2.64467 -2.10231e-11 
-1.02262 -2.57213 1.95947e-11 
-0.847507 -2.61389 -3.91165e-11 
-0.641534 -2.64401 -9.32067e-11 
-0.427641 -2.62805 -1.08589e-10 
-0.222586 -2.65594 -1.11779e-10 
-0.0709548 -2.52496 2.09949e-11 
0.0229841 -2.70157 -5.81698e-11 
0.317672 -2.67606 1.04622e-10 
0.661717 -2.71215 -1.69881e-10 
0.828079 -2.53998 1.68418e-10 
0.975371 -2.61701 -4.20496e-11 
1.16894 -2.57279 3.87089e-11 
1.34736 -2.58208 -9.69786e-12 
1.54 -2.60958 3.73336e-12 
1.75606 -2.59015 1.79524e-11 
1.95899 -2.59342 3.94652e-11 
2.17142 -2.59639 4.32523e-11 
2.39704 -2.60474 4.6995e-11 
2.62054 -2.60295 4.23578e-11 
2.84792 -2.60627 3.88219e-11 
3.0737 -2.6028 3.19826e-11 
3.2901 -2.59381 2.40865e-11 
3.51064 -2.60101 2.23352e-11 
3.73314 -2.60029 1.81082e-11 
3.95449 -2.60042 1.47544e-11 
4.17478 -2.59917 1.16873e-11 
4.39351 -2.59796 9.19595e-12 
4.61112 -2.59714 7.20653e-12 
4.82944 -2.59898 5.73426e-12 
5.04834 -2.59887 4.27017e-12 
5.26751 -2.59811 2.9291e-12 
5.48654 -2.59713 1.69054e-12 
5.70601 -2.5964 4.59414e-13 
5.92722 -2.59754 -8.68678e-13 
6.15098 -2.59725 -2.32841e-12 
6.3764 -2.59699 -3.99175e-12 
6.60275 -2.59309 -5.53724e-12 
6.82883 -2.59598 -7.50804e-12 
7.05963 -2.59848 -9.62001e-12 
7.29385 -2.59773 -1.17011e-11 
7.52953 -2.60244 -1.49376e-11 
7.76848 -2.59957 -1.70125e-11 
8.00427 -2.59686 -1.71929e-11 
8.23539 -2.59439 -7.12277e-12 
8.48528 -2.61242 4.20212e-09 
-8.48528 -2.35413 -1.46607e-09 
-8.26206 -2.38476 -1.18489e-11 
-8.02194 -2.37743 7.19982e-13 
-7.7806 -2.37231 1.20796e-13 
-7.5415 -2.3742 5.94184e-13 
-7.30784 -2.36509 7.97776e-14 
-7.07475 -2.35918 -4.44863e-13 
-6.84704 -2.36919 -1.3021e-13 
-6.61904 -2.37125 8.63459e-14 
-6.39171 -2.36914 1.21653e-13 
-6.16621 -2.36737 1.36142e-13 
-5.94385 -2.37056 1.88725e-13 
-5.72311 -2.36438 1.20141e-13 
-5.50408 -2.36077 1.45271e-13 
-5.2865 -2.37483 -1.47179e-13 
-5.06869 -2.36934 -3.29893e-13 
-4.84999 -2.36691 -2.55605e-13 
-4.63392 -2.36967 -3.59163e-13 
-4.41687 -2.37004 -6.23963e-13 
-4.19633 -2.36993 -5.28981e-13 
-3.9762 -2.37219 -7.82074e-13 
-3.75763 -2.38606 -1.11779e-12 
-3.53574 -2.37358 -1.17674e-12 
-3.31163 -2.37458 -8.99028e-13 
-3.08758 -2.36953 -1.51069e-12 
-2.86529 -2.37229 -2.1642e-12 
-2.63987 -2.37681 -2.6567e-12 
-2.41914 -2.37351 -2.27832e-12 
-2.19738 -2.37425 -1.41893e-12 
-1.97713 -2.39038 -3.82717e-12 
-1.76788 -2.34211 1.28722e-12 
-1.56185 -2.34425 -8.726e-12 
-1.35645 -2.31793 -1.88496e-11 
-1.15922 -2.41064 -2.71227e-11 
-0.934851 -2.35331 -1.2498e-10 
-0.740468 -2.43674 -1.58256e-11 
-0.529648 -2.45244 -5.10471e-11 
-0.292374 -2.45665 -2.5778e-10 
-0.261377 -2.27173 -8.19603e-11 
0.155379 -2.38096 2.1955e-10 
0.168512 -2.55479 7.79289e-11 
0.534259 -2.59304 1.44506e-10 
0.704243 -2.41466 8.1698e-11 
0.90502 -2.2694 3.96865e-11 
1.04042 -2.36248 -2.45423e-11 
1.22112 -2.32049 5.76987e-11 
1.40659 -2.34497 -3.84344e-12 
1.60793 -2.38566 6.35473e-12 
1.82429 -2.35841 3.66059e-12 
2.03629 -2.36902 3.41246e-12 
2.25812 -2.37932 3.53913e-12 
2.47821 -2.38022 2.31261e-12 
2.70351 -2.3845 2.03232e-12 
2.92846 -2.38424 2.13607e-12 
3.14598 -2.36799 1.47678e-12 
3.36727 -2.3689 1.55109e-12 
3.58669 -2.37581 1.11351e-12 
3.80724 -2.37397 8.59351e-13 
4.02582 -2.37313 7.44213e-13 
4.24314 -2.37045 5.96039e-13 
4.45918 -2.36853 4.47005e-13 
4.67604 -2.36951 3.56705e-13 
4.89243 -2.37117 2.53995e-13 
5.10935 -2.37087 1.47168e-13 
5.32603 -2.36882 6.18894e-14 
5.54278 -2.36712 -1.07907e-14 
5.76089 -2.36679 -7.36163e-14 
5.98036 -2.36789 -1.6968e-13 
6.2015 -2.36702 -2.2315e-13 
6.42348 -2.36508 -2.47495e-13 
6.64638 -2.35984 -1.08227e-13 
6.87096 -2.36514 2.5734e-13 
7.09907 -2.36865 4.18834e-13 
7.33022 -2.36906 -2.80423e-13 
7.56227 -2.37479 -7.84808e-13 
7.79327 -2.36959 7.36348e-14 
8.02322 -2.3646 2.14215e-13 
8.26104 -2.38068 1.12744e-11 
8.48528 -2.36796 1.64807e-09 
-8.48528 -2.12082 -9.65984e-10 
-8.25214 -2.1503 -8.65034e-12 
-8.01868 -2.15299 -1.76576e-13 
-7.77892 -2.14974 -4.85522e-13 
-7.5449 -2.14688 5.95635e-13 
-7.30994 -2.13808 2.9259e-13 
-7.0765 -2.13164 -5.89575e-13 
-6.84406 -2.13843 -4.88543e-13 
-6.616 -2.14161 -1.24535e-13 
-6.38801 -2.14103 5.95694e-14 
-6.16132 -2.13944 7.71406e-14 
-5.93544 -2.1424 5.09609e-14 
-5.71145 -2.13693 3.15699e-14 
-5.48847 -2.13428 2.31178e-14 
-5.26789 -2.1473 1.93775e-13 
-5.04471 -2.14439 3.12302e-14 
-4.82301 -2.1404 8.87006e-14 
-4.60214 -2.14378 -2.85809e-14 
-4.37891 -2.14691 -9.06843e-14 
-4.15643 -2.14495 -3.74772e-14 
-3.93399 -2.14797 -1.88039e-13 
-3.71431 -2.15939 -3.32497e-13 
-3.48425 -2.1522 -5.33599e-13 
-3.25661 -2.15129 -8.54018e-14 
-3.02991 -2.14352 -2.87326e-13 
-2.80353 -2.15015 -7.34778e-13 
-2.58327 -2.14774 -9.41063e-13 
-2.36066 -2.14669 -6.10578e-13 
-2.13675 -2.15357 -6.62223e-13 
-1.93131 -2.14697 1.63832e-12 
-1.71217 -2.1103 -7.78634e-12 
-1.51514 -2.10453 2.70075e-12 
-1.31077 -2.0981 -1.13157e-11 
-1.12388 -2.20601 -2.51153e-11 
-1.05812 -2.00843 -3.72714e-11 
-0.888154 -2.15848 -8.80908e-11 
-0.692965 -2.24367 -2.55082e-10 
-0.470745 -2.28215 -2.13127e-10 
-0.0523748 -2.34504 -1.40616e-10 
0.145556 -2.1771 2.36191e-11 
0.337738 -2.2626 9.19989e-11 
0.389722 -2.45857 2.53125e-10 
0.558002 -2.32638 1.37143e-10 
0.753309 -2.16134 2.33444e-10 
0.950759 -2.02577 1.41612e-10 
1.12407 -2.09081 -1.63356e-12 
1.31414 -2.08137 2.23835e-11 
1.51393 -2.13477 1.56871e-11 
1.71607 -2.15448 5.07806e-12 
1.94965 -2.14059 5.82262e-12 
2.17201 -2.15663 2.18206e-12 
2.39811 -2.15583 1.67585e-12 
2.62554 -2.16257 9.91657e-13 
2.85401 -2.16466 7.70985e-13 
3.0777 -2.14534 5.04137e-13 
3.3052 -2.14402 6.48039e-13 
3.5316 -2.14826 3.55628e-13 
3.75461 -2.14989 2.50166e-13 
3.97907 -2.14662 8.20036e-14 
4.20029 -2.14364 6.34244e-14 
4.42063 -2.14048 1.61995e-14 
4.64023 -2.14228 1.35728e-15 
4.86028 -2.1432 -2.68059e-14 
5.0794 -2.14357 -3.70274e-14 
5.29895 -2.1408 -6.13602e-14 
5.51851 -2.13796 -4.29806e-14 
5.73816 -2.1375 -3.33416e-14 
5.95939 -2.13812 -4.6353e-14 
6.18198 -2.13706 -5.02532e-14 
6.40617 -2.13432 -2.25723e-14 
6.6313 -2.12802 2.55998e-13 
6.85776 -2.13225 6.30029e-13 
7.08487 -2.1383 7.18351e-13 
7.31698 -2.14054 -1.26672e-13 
7.55223 -2.14578 -7.40545e-13 
7.78707 -2.13902 7.65333e-13 
8.01973 -2.1347 -4.32839e-13 
8.2553 -2.15146 8.4324e-12 
8.48528 -2.12567 9.04951e-10 
-8.48528 -1.87678 -1.39414e-09 
-8.26859 -1.91992 -8.0232e-12 
-8.04228 -1.92017 -1.01647e-12 
[...]
POINT_DATA 2012 
VECTORS vectors float
0.0134871 -0.0212005 0.999684 
0.00665031 -0.0311494 0.999493 
0.00754227 -0.0251587 0.999655 
0.00873888 -0.0218818 0.999722 
0.00833682 -0.0224161 0.999714 
0.00793027 -0.0206579 0.999755 
0.00827615 -0.0169286 0.999823 
0.0081053 -0.0130462 0.999882 
0.00803733 -0.00946013 0.999923 
0.00842377 -0.00655757 0.999943 
0.00872128 -0.00409313 0.999954 
0.00879631 -0.00181257 0.99996 
0.00911948 0.00029829 0.999958 
0.00964205 0.0023083 0.999951 
0.00920722 0.00425953 0.999949 
0.00905857 0.00633716 0.999939 
0.00948065 0.00842304 0.99992 
0.00933984 0.0107931 0.999898 
0.00915232 0.0136839 0.999865 
0.00915709 0.0172617 0.999809 
0.00905051 0.0216439 0.999725 
0.00831058 0.0272269 0.999595 
0.00819412 0.0346752 0.999365 
0.00844636 0.0437323 0.999008 
0.00826281 0.0553064 0.998435 
0.00801233 0.0698143 0.997528 
0.00746417 0.088372 0.99606 
0.00687178 0.112458 0.993633 
0.0064409 0.142921 0.989713 
0.0054248 0.180993 0.98347 
0.00488139 0.232078 0.972685 
0.00433744 0.285571 0.958348 
0.00272985 0.355638 0.93462 
0.00183926 0.419363 0.907817 
-0.000643314 0.525761 0.850632 
-0.00201471 0.613715 0.789525 
-0.00290298 0.718055 0.695981 
-0.00358835 0.835208 0.549923 
-0.00295349 0.924477 0.381226 
-0.000692011 0.986681 0.162664 
0.000732878 0.985066 -0.172178 
0.00191343 0.897051 -0.441923 
0.00117385 0.708582 -0.705627 
0.0016942 0.591164 -0.806549 
0.000178171 0.502185 -0.86476 
-0.00139513 0.417533 -0.908661 
-0.00301161 0.332458 -0.943113 
-0.00483443 0.270747 -0.962638 
-0.00543899 0.21918 -0.975669 
-0.00597185 0.173617 -0.984795 
-0.00652678 0.136938 -0.990558 
-0.00704631 0.107684 -0.99416 
-0.00746302 0.0846468 -0.996383 
-0.00784911 0.0664752 -0.997757 
-0.00852181 0.0525711 -0.998581 
-0.00872152 0.0419453 -0.999082 
-0.00867954 0.0332739 -0.999409 
-0.00889997 0.0264767 -0.99961 
-0.00903095 0.021104 -0.999737 
-0.00921613 0.0168554 -0.999816 
-0.00938156 0.0134189 -0.999866 
-0.009408 0.0106231 -0.999899 
-0.00935738 0.00825042 -0.999922 
-0.00937758 0.00615796 -0.999937 
-0.00937665 0.00420455 -0.999947 
-0.00932528 0.00219416 -0.999954 
-0.00914746 0.000140549 -0.999958 
-0.00891556 -0.00194295 -0.999958 
-0.00872051 -0.00418159 -0.999953 
-0.00866349 -0.00670037 -0.99994 
-0.00847118 -0.00969701 -0.999917 
-0.0079959 -0.0132743 -0.99988 
-0.0077759 -0.0172016 -0.999822 
-0.00757064 -0.0206777 -0.999758 
-0.0077767 -0.0223437 -0.99972 
-0.00791663 -0.0220985 -0.999725 
-0.00779494 -0.0257595 -0.999638 
-0.0082247 -0.0316747 -0.999464 
-0.0144568 -0.0214435 -0.999666 
0.0139743 -0.00678682 0.999879 
0.0230561 -0.0316882 0.999232 
0.0246376 -0.0263575 0.999349 
0.025651 -0.0226355 0.999415 
0.0262529 -0.0206633 0.999442 
0.025904 -0.0184619 0.999494 
0.0259533 -0.0156881 0.99954 
0.0265016 -0.0122984 0.999573 
0.0267654 -0.00892547 0.999602 
0.0269564 -0.00602808 0.999619 
0.0270739 -0.00351621 0.999627 
0.0271065 -0.00121673 0.999632 
0.0269674 0.000891528 0.999636 
0.0269615 0.00287557 0.999632 
0.0272845 0.00492358 0.999616 
0.027052 0.00702439 0.999609 
0.0270078 0.00931139 0.999592 
0.026945 0.0119954 0.999565 
0.0268387 0.0152703 0.999523 
0.0265157 0.0192961 0.999462 
0.0263221 0.0243547 0.999357 
0.0261294 0.0308609 0.999182 
0.0254333 0.0391667 0.998909 
0.0248705 0.0496251 0.998458 
0.0240487 0.0628771 0.997732 
0.0232677 0.0799155 0.99653 
0.0224022 0.101813 0.994551 
0.0213141 0.130164 0.991264 
0.0200608 0.166059 0.985912 
0.0185479 0.211804 0.977136 
0.0172274 0.268873 0.963022 
0.0152284 0.334272 0.942354 
0.0162715 0.407595 0.913018 
0.0106059 0.482136 0.876032 
0.0127633 0.582604 0.812656 
0.00862216 0.677999 0.735012 
0.00489366 0.791617 0.610998 
0.00396834 0.897884 0.440214 
0.00177127 0.970063 0.242846 
0.00248251 0.996691 0.0812453 
0.000341141 0.999703 -0.0243699 
-0.000402495 0.945624 -0.325262 
0.000171792 0.776397 -0.630245 
-0.0153632 0.694065 -0.719748 
-0.00880311 0.616897 -0.786995 
-0.013512 0.513954 -0.857712 
-0.0140536 0.432362 -0.901591 
-0.0143488 0.354026 -0.935126 
-0.0167011 0.280376 -0.959745 
-0.0183169 0.222147 -0.974841 
-0.0197467 0.173908 -0.984564 
-0.021099 0.136062 -0.990476 
-0.0222366 0.106312 -0.994084 
-0.0232683 0.082789 -0.996296 
-0.0241167 0.0646961 -0.997614 
-0.024685 0.0511044 -0.998388 
-0.0253989 0.0401461 -0.998871 
-0.0258983 0.0315816 -0.999166 
-0.0263099 0.0249029 -0.999344 
-0.0265746 0.0196762 -0.999453 
-0.0267798 0.0155606 -0.99952 
-0.0269235 0.0122402 -0.999563 
-0.0270681 0.00948633 -0.999589 
-0.027119 0.00713549 -0.999607 
-0.0271225 0.00501604 -0.99962 
-0.0271164 0.00297382 -0.999628 
-0.0270962 0.000923412 -0.999633 
-0.0270888 -0.00119476 -0.999632 
-0.027019 -0.00349789 -0.999629 
-0.0268705 -0.00608744 -0.999621 
-0.0265906 -0.00909091 -0.999605 
-0.0263835 -0.0124238 -0.999575 
-0.0261867 -0.015761 -0.999533 
-0.0261028 -0.0185562 -0.999487 
-0.0263507 -0.0208053 -0.999436 
-0.0259368 -0.0229109 -0.999401 
-0.0244179 -0.0265785 -0.999349 
-0.0222527 -0.0317345 -0.999249 
-0.0142491 -0.00731151 -0.999872 
0.00887412 -0.00763291 0.999932 
0.0176854 -0.0335887 0.999279 
0.0196326 -0.0280095 0.999415 
0.0206885 -0.0237023 0.999505 
0.0209662 -0.0198529 0.999583 
0.0211074 -0.0176121 0.999622 
0.0214932 -0.0155976 0.999648 
0.022161 -0.0127401 0.999673 
0.0224788 -0.00949884 0.999702 
0.0226961 -0.00651132 0.999721 
0.0228527 -0.00384849 0.999732 
0.0230469 -0.00146865 0.999733 
0.0228996 0.000681403 0.999738 
0.022807 0.00273561 0.999736 
0.0233025 0.00472269 0.999717 
0.023145 0.00681557 0.999709 
0.0229561 0.00920654 0.999694 
0.0229511 0.0119444 0.999665 
0.0229197 0.0152562 0.999621 
0.0226011 0.01941 0.999556 
0.0224024 0.0245487 0.999448 
0.0223883 0.0310146 0.999268 
0.0217785 0.0393797 0.998987 
0.0212604 0.0501559 0.998515 
0.020865 0.0639775 0.997733 
0.020579 0.0813431 0.996474 
0.0202934 0.103944 0.994376 
0.0200472 0.132795 0.990941 
0.0200475 0.170483 0.985157 
0.020269 0.216522 0.976067 
0.0215996 0.271884 0.962088 
0.0225645 0.334897 0.941985 
0.0257827 0.414508 0.90968 
0.022782 0.507281 0.861479 
0.0278108 0.622216 0.782351 
0.0216993 0.732445 0.68048 
0.0175974 0.849717 0.526945 
0.0120233 0.94726 0.32024 
0.0202134 0.958146 0.285566 
-0.0081256 0.98576 -0.167959 
-0.00395932 0.983119 -0.182926 
-0.0060059 0.848341 -0.529415 
-0.0216712 0.768071 -0.639997 
-0.0342004 0.643833 -0.764401 
-0.025452 0.575624 -0.817318 
-0.0276761 0.482368 -0.875531 
-0.02396 0.400825 -0.915841 
-0.0214562 0.326001 -0.945126 
-0.0209368 0.256159 -0.966408 
-0.0202596 0.202505 -0.979072 
-0.020134 0.158573 -0.987142 
-0.020199 0.12466 -0.991994 
-0.0204689 0.0973128 -0.995043 
-0.0208667 0.0760633 -0.996885 
-0.021014 0.0600034 -0.997977 
-0.0214592 0.04719 -0.998656 
-0.0219437 0.0372683 -0.999064 
-0.0222393 0.0294384 -0.999319 
-0.0225305 0.0233064 -0.999475 
-0.0227193 0.0184582 -0.999572 
-0.0228681 0.0146013 -0.999632 
-0.0230319 0.0114215 -0.99967 
-0.0231166 0.0087614 -0.999695 
-0.0231281 0.00646108 -0.999712 
-0.0231039 0.0043729 -0.999724 
-0.0230685 0.00235548 -0.999731 
-0.0230176 0.000321047 -0.999735 
-0.0229607 -0.00182096 -0.999735 
-0.0228301 -0.00420946 -0.999731 
-0.022606 -0.00692188 -0.999721 
-0.0222227 -0.00998787 -0.999703 
-0.0219634 -0.0131692 -0.999672 
-0.0216497 -0.0159062 -0.999639 
-0.0213507 -0.017894 -0.999612 
-0.0212474 -0.0203308 -0.999568 
-0.020364 -0.0239634 -0.999506 
-0.0190347 -0.0282946 -0.999419 
-0.0172512 -0.0334738 -0.999291 
-0.00924078 -0.00747467 -0.999929 
0.00666739 -0.00849288 0.999942 
0.0134535 -0.0346066 0.999311 
0.0153475 -0.0289799 0.999462 
0.0161185 -0.0241096 0.99958 
0.0164072 -0.0194366 0.999677 
0.0168876 -0.0170903 0.999711 
0.017298 -0.0155872 0.999729 
0.0178782 -0.012999 0.999756 
0.0183851 -0.00985276 0.999783 
0.018683 -0.006765 0.999803 
0.0188388 -0.00397393 0.999815 
0.0189095 -0.00151314 0.99982 
0.0189233 0.000660245 0.999821 
0.0188745 0.00273035 0.999818 
0.018995 0.00484359 0.999808 
0.0191028 0.00705636 0.999793 
0.0189285 0.00952875 0.999776 
0.0190133 0.0124515 0.999742 
0.0189981 0.0160088 0.999691 
0.0187468 0.0204089 0.999616 
0.0186423 0.0258591 0.999492 
0.0186305 0.0326374 0.999294 
0.0182937 0.0416587 0.998965 
0.0180167 0.0533313 0.998414 
0.0178847 0.0679315 0.99753 
0.0181693 0.0867131 0.996068 
0.0186026 0.11032 0.993722 
0.0194536 0.141092 0.989806 
0.0208923 0.180385 0.983374 
0.022976 0.226142 0.973823 
0.0268848 0.282363 0.958931 
0.0306958 0.345528 0.937906 
0.0366913 0.426468 0.903758 
0.0352811 0.519511 0.853735 
0.0496735 0.531554 0.845567 
0.0433367 0.641441 0.765948 
0.0367975 0.7572 0.652145 
0.0303639 0.871468 0.489512 
0.00438839 0.997876 0.0649871 
-0.0144405 0.986252 -0.164613 
-0.0229625 0.934168 -0.356094 
-0.0132173 0.908666 -0.417315 
-0.0283656 0.834331 -0.550534 
-0.0432801 0.72641 -0.685898 
-0.0528788 0.604206 -0.795072 
-0.042389 0.523814 -0.850778 
-0.0372036 0.426214 -0.903857 
-0.0303482 0.349019 -0.936624 
-0.0258295 0.281336 -0.959262 
-0.0227252 0.21781 -0.975727 
-0.0206988 0.172332 -0.984821 
-0.019322 0.134269 -0.990757 
-0.0185938 0.105015 -0.994297 
-0.0182107 0.0816827 -0.996492 
-0.0179304 0.0640169 -0.997788 
-0.0180379 0.0501293 -0.99858 
-0.0182801 0.0394179 -0.999056 
-0.018511 0.0311464 -0.999344 
-0.0186457 0.0245487 -0.999525 
-0.0187916 0.0193888 -0.999636 
-0.0188675 0.0152623 -0.999706 
-0.0190139 0.0119032 -0.999748 
-0.0190459 0.00907945 -0.999778 
-0.0190642 0.00668004 -0.999796 
-0.0190228 0.00453344 -0.999809 
-0.0189668 0.00247754 -0.999817 
-0.0189319 0.000424005 -0.999821 
-0.0188563 -0.00173949 -0.999821 
-0.0187226 -0.00415872 -0.999816 
-0.0184813 -0.00694927 -0.999805 
-0.0180782 -0.010104 -0.999786 
-0.0177713 -0.0132753 -0.999754 
-0.0173958 -0.015703 -0.999726 
-0.0168288 -0.0170751 -0.999713 
-0.0164188 -0.0193203 -0.999679 
-0.0157665 -0.0240493 -0.999587 
-0.0150165 -0.0286318 -0.999477 
-0.0136126 -0.0344163 -0.999315 
-0.00691867 -0.00875788 -0.999938 
0.00649697 -0.0083657 0.999944 
0.0109693 -0.0353677 0.999314 
0.0117855 -0.0297235 0.999489 
0.0122979 -0.0244663 0.999625 
0.0123446 -0.0191755 0.99974 
0.0130705 -0.017069 0.999769 
0.0136479 -0.016161 0.999776 
0.0143897 -0.01401 0.999798 
0.0149438 -0.0108687 0.999829 
0.0153163 -0.00767695 0.999853 
0.0155548 -0.00475639 0.999868 
0.0157617 -0.00221703 0.999873 
0.0158524 -2.37069e-05 0.999874 
0.0158912 0.00201836 0.999872 
0.0160548 0.00411519 0.999863 
0.0160905 0.0062659 0.999851 
0.0160663 0.00859683 0.999834 
0.0161041 0.0114033 0.999805 
0.0160777 0.0146931 0.999763 
0.015933 0.018664 0.999699 
0.0157717 0.023666 0.999596 
0.0156745 0.0297341 0.999435 
0.0156675 0.0372027 0.999185 
0.0155625 0.0471366 0.998767 
0.0155764 0.059683 0.998096 
0.0159725 0.0758873 0.996989 
0.0167387 0.0954055 0.995298 
0.0180638 0.120222 0.992583 
0.0200905 0.151502 0.988253 
0.0231275 0.189861 0.981539 
0.027242 0.235843 0.971409 
0.033943 0.287521 0.957173 
0.0404174 0.353429 0.934588 
0.0494327 0.438333 0.897452 
0.0662725 0.519389 0.851964 
0.0626857 0.631272 0.773024 
0.0556173 0.755755 0.652489 
0.0479678 0.868033 0.494185 
0.0338202 0.955283 0.293752 
0.0075213 0.998119 0.0608492 
-0.0425928 0.92409 -0.379794 
-0.044727 0.843045 -0.53598 
-0.0634795 0.733018 -0.677241 
-0.072212 0.608297 -0.790418 
-0.0782128 0.513277 -0.854652 
-0.0581287 0.487065 -0.871429 
-0.0484191 0.412436 -0.909699 
-0.0382836 0.336041 -0.941069 
-0.0309838 0.27313 -0.961478 
-0.0255192 0.21859 -0.975483 
-0.0216883 0.170886 -0.985052 
-0.0191542 0.135875 -0.990541 
-0.0174457 0.106327 -0.994178 
-0.0164105 0.083641 -0.996361 
-0.0157464 0.0655737 -0.997724 
-0.0155306 0.0516748 -0.998543 
-0.015549 0.040706 -0.99905 
-0.0156311 0.0321153 -0.999362 
-0.0157626 0.0253478 -0.999555 
-0.015849 0.019958 -0.999675 
-0.0159562 0.0157342 -0.999749 
-0.016047 0.0122458 -0.999796 
-0.0160931 0.00933741 -0.999827 
-0.0160813 0.00685594 -0.999847 
-0.0160304 0.00468367 -0.999861 
-0.0159518 0.00261901 -0.999869 
-0.0158645 0.00054941 -0.999874 
-0.0157712 -0.00160547 -0.999874 
-0.0155929 -0.00404954 -0.99987 
-0.0153018 -0.00691133 -0.999859 
-0.0148966 -0.0101433 -0.999838 
-0.0144863 -0.0134275 -0.999805 
-0.0139535 -0.0158688 -0.999777 
-0.0132645 -0.0168031 -0.999771 
-0.0124663 -0.0184174 -0.999753 
-0.0118985 -0.0233996 -0.999656 
-0.0117645 -0.0289172 -0.999513 
-0.0114168 -0.0348884 -0.999326 
-0.00661904 -0.00882051 -0.999939 
0.00629748 -0.00901909 0.99994 
0.00963561 -0.0349094 0.999344 
0.00994882 -0.0290281 0.999529 
0.0103182 -0.0234401 0.999672 
0.0109083 -0.0185287 0.999769 
0.0119818 -0.0170943 0.999782 
0.0128672 -0.0164891 0.999781 
0.0135851 -0.0142009 0.999807 
0.0141307 -0.0109654 0.99984 
0.0145271 -0.00771181 0.999865 
0.0148598 -0.0047639 0.999878 
0.0151485 -0.00222026 0.999883 
0.0153842 -3.18136e-05 0.999882 
0.0155299 0.00201235 0.999877 
0.0155936 0.00402908 0.99987 
0.0156758 0.00612604 0.999859 
0.0157519 0.00848191 0.99984 
0.0157017 0.0111912 0.999814 
0.0156212 0.0144575 0.999774 
0.0155056 0.018357 0.999711 
0.0153504 0.0231157 0.999615 
0.0152058 0.0290704 0.999462 
0.0150939 0.0362565 0.999229 
0.0150881 0.0451973 0.998864 
0.015319 0.0568712 0.998264 
0.0158748 0.0716606 0.997303 
0.0169332 0.0903491 0.995766 
0.018523 0.112861 0.993438 
0.0210677 0.141831 0.989667 
0.0248415 0.177315 0.983841 
0.0301789 0.220617 0.974894 
0.0381184 0.267362 0.962842 
0.0478252 0.331488 0.942247 
0.0580017 0.406244 0.911922 
0.0797828 0.494861 0.865302 
0.0851229 0.627924 0.773606 
0.0789934 0.750012 0.65669 
0.0710175 0.871368 0.485462 
0.0520831 0.958211 0.281281 
0.011222 0.997851 0.0645499 
-0.0275223 0.980415 -0.195008 
-0.0734983 0.827208 -0.557068 
-0.0944608 0.684658 -0.722718 
-0.104958 0.588531 -0.801633 
-0.0898028 0.46048 -0.883116 
-0.0659566 0.414499 -0.907656 
-0.0512033 0.351542 -0.934771 
-0.04045 0.288124 -0.956739 
-0.0318088 0.233027 -0.97195 
-0.0258122 0.186666 -0.982084 
-0.0216947 0.147176 -0.988872 
-0.0188848 0.117349 -0.992911 
-0.0171125 0.0924293 -0.995572 
-0.0160208 0.073586 -0.99716 
-0.0154015 0.0578181 -0.998208 
-0.0151502 0.0458385 -0.998834 
-0.015089 0.0364923 -0.99922 
-0.0151443 0.0289851 -0.999465 
-0.015286 0.0229463 -0.99962 
-0.01543 0.018106 -0.999717 
-0.0155747 0.0142287 -0.999778 
-0.0156599 0.011025 -0.999817 
-0.0156864 0.00829513 -0.999843 
-0.0156595 0.00595436 -0.99986 
-0.0155878 0.00386662 -0.999871 
-0.0154725 0.00183592 -0.999879 
-0.0153215 -0.000224736 -0.999883 
-0.0151141 -0.00242085 -0.999883 
-0.0148342 -0.00500028 -0.999878 
-0.0144668 -0.00801018 -0.999863 
-0.0140374 -0.0113398 -0.999837 
-0.0135321 -0.0145365 -0.999803 
-0.0128758 -0.0166068 -0.999779 
-0.0119694 -0.0171581 -0.999781 
-0.0109438 -0.0187012 -0.999765 
-0.0101755 -0.0236244 -0.999669 
-0.00993341 -0.0294804 -0.999516 
-0.00993891 -0.0352252 -0.99933 
-0.00624435 -0.00861205 -0.999943 
0.00533169 -0.00935573 0.999942 
0.00856481 -0.0342661 0.999376 
0.00917015 -0.0286554 0.999547 
0.00985446 -0.0234036 0.999678 
0.010791 -0.0187398 0.999766 
0.0118272 -0.017482 0.999777 
0.0126526 -0.0171176 0.999774 
0.0132358 -0.0150302 0.9998 
0.0137075 -0.0117603 0.999837 
0.0140748 -0.00838036 0.999866 
0.0144005 -0.00533656 0.999882 
0.0147136 -0.00271694 0.999888 
0.0149228 -0.000486658 0.999889 
0.0150801 0.00157696 0.999885 
0.0152621 0.00363403 0.999877 
0.0153319 0.00569083 0.999866 
0.0153224 0.00797988 0.999851 
0.0153073 0.0106678 0.999826 
0.0152841 0.0137829 0.999788 
0.0151677 0.0175051 0.999732 
0.0150401 0.0220337 0.999644 
0.0149433 0.0274743 0.999511 
0.0148869 0.0342058 0.999304 
0.0149825 0.0423439 0.998991 
0.0152224 0.0523691 0.998512 
0.015765 0.0656314 0.99772 
0.0167401 0.0817819 0.99651 
0.0184027 0.102508 0.994562 
0.0209802 0.127494 0.991618 
0.0247848 0.158773 0.987004 
0.0304278 0.197528 0.979825 
0.0401321 0.251015 0.967151 
0.0544149 0.318832 0.946248 
0.0686722 0.396289 0.915554 
0.085208 0.420118 0.90346 
0.100975 0.529173 0.842485 
0.112955 0.649833 0.751637 
0.107775 0.773143 0.625008 
0.104069 0.882077 0.459467 
-0.00377735 0.999525 -0.0305672 
-0.0757737 0.910468 -0.406578 
-0.110892 0.776497 -0.620286 
-0.139241 0.670035 -0.729154 
-0.120221 0.526678 -0.841521 
-0.101572 0.425341 -0.899315 
-0.0701389 0.369639 -0.926525 
-0.0540297 0.313797 -0.947952 
-0.0413133 0.256867 -0.965564 
-0.0325429 0.209421 -0.977284 
-0.0264968 0.169753 -0.98513 
-0.022286 0.136318 -0.990415 
-0.0194311 0.110906 -0.993641 
-0.0175299 0.0890702 -0.995871 
-0.0163008 0.0715488 -0.997304 
-0.0154594 0.0569907 -0.998255 
-0.0150781 0.0453596 -0.998857 
-0.0149236 0.036279 -0.99923 
-0.0149154 0.0290363 -0.999467 
-0.014995 0.0230864 -0.999621 
-0.0150758 0.0182515 -0.99972 
-0.0152052 0.014335 -0.999782 
-0.0152874 0.0110873 -0.999822 
-0.0153326 0.0083187 -0.999848 
-0.0153112 0.00593706 -0.999865 
-0.0152231 0.00383313 -0.999877 
-0.0150969 0.00179516 -0.999885 
-0.0149158 -0.000287532 -0.999889 
-0.0146992 -0.00250366 -0.999889 
-0.0144453 -0.00508533 -0.999883 
-0.0141046 -0.00814157 -0.999868 
-0.0137153 -0.0114919 -0.99984 
-0.0132317 -0.0148166 -0.999803 
-0.0126587 -0.0169806 -0.999776 
-0.0118841 -0.0175138 -0.999776 
-0.0108672 -0.0186564 -0.999767 
-0.00991516 -0.0229014 -0.999689 
-0.00911183 -0.0285082 -0.999552 
-0.00869807 -0.0345959 -0.999364 
-0.00530868 -0.00894093 -0.999946 
0.0043149 -0.00910088 0.999949 
0.00733391 -0.0343681 0.999382 
0.00810365 -0.0286206 0.999558 
0.00897043 -0.0232467 0.99969 
0.00983172 -0.0187457 0.999776 
0.0107335 -0.01782 0.999784 
0.0112409 -0.0173402 0.999787 
0.0117266 -0.015035 0.999818 
0.0120632 -0.0116674 0.999859 
0.012269 -0.00820433 0.999891 
0.0125603 -0.00509495 0.999908 
0.0128315 -0.00253994 0.999915 
0.0129135 -0.000348143 0.999917 
0.013117 0.00179101 0.999912 
0.0132937 0.00380944 0.999905 
0.0132756 0.00589935 0.999895 
0.0132823 0.00834224 0.999877 
0.0133295 0.0111581 0.999849 
0.0133402 0.0143869 0.999808 
0.0132253 0.0182918 0.999745 
0.0131141 0.0230211 0.999649 
0.0131387 0.0287643 0.9995 
0.0131542 0.0357055 0.999276 
0.0133988 0.0440741 0.998939 
0.0139664 0.0550407 0.998387 
0.0146593 0.0686295 0.997535 
0.0159832 0.0858846 0.996177 
0.0180885 0.10757 0.994033 
0.0214853 0.133582 0.990805 
0.0265374 0.166759 0.985641 
0.0341493 0.208351 0.977458 
0.0467267 0.264543 0.963241 
0.0651947 0.331701 0.941129 
0.085454 0.37783 0.921923 
0.11017 0.419433 0.901077 
0.113292 0.479455 0.870223 
0.137927 0.589724 0.79574 
0.151945 0.723274 0.673637 
0.164751 0.829828 0.533144 
0.0692609 0.969909 0.233409 
-0.0724321 0.961227 -0.266076 
-0.143127 0.829779 -0.539426 
-0.174601 0.646613 -0.742567 
-0.147979 0.522961 -0.839413 
-0.113796 0.415551 -0.902423 
-0.0782693 0.359338 -0.929919 
-0.0553959 0.288976 -0.955732 
-0.0426557 0.243774 -0.968894 
-0.0326921 0.197264 -0.979805 
-0.0261961 0.161137 -0.986584 
-0.0214116 0.130322 -0.991241 
-0.0184633 0.106094 -0.994185 
-0.0162417 0.0855397 -0.996203 
-0.014999 0.0692424 -0.997487 
-0.0140303 0.055611 -0.998354 
-0.0136311 0.0448232 -0.998902 
-0.0133601 0.035976 -0.999263 
-0.0132732 0.0289633 -0.999492 
-0.0132537 0.0231378 -0.999645 
-0.0131881 0.0183193 -0.999745 
-0.0132921 0.0144233 -0.999808 
-0.0133382 0.0111721 -0.999849 
-0.0133835 0.00836647 -0.999876 
-0.0133469 0.00594541 -0.999893 
-0.0132508 0.00381251 -0.999905 
-0.0131258 0.00176633 -0.999912 
-0.0129552 -0.000322078 -0.999916 
-0.0127847 -0.00253544 -0.999915 
-0.0125855 -0.00512539 -0.999908 
-0.0123304 -0.00819129 -0.999891 
-0.0120234 -0.0116376 -0.99986 
-0.0116804 -0.0150338 -0.999819 
-0.0112131 -0.0173606 -0.999787 
-0.0106724 -0.0178707 -0.999783 
-0.00985259 -0.0188141 -0.999775 
-0.00891843 -0.0232126 -0.999691 
-0.00806845 -0.0288247 -0.999552 
-0.00742018 -0.0345309 -0.999376 
-0.0043739 -0.00926523 -0.999948 
0.00336712 -0.00941066 0.99995 
0.00584207 -0.0346449 0.999383 
0.00651837 -0.0291322 0.999554 
0.00730947 -0.0236479 0.999694 
0.00797308 -0.0191639 0.999785 
0.00861849 -0.0181851 0.999798 
0.00897499 -0.0177798 0.999802 
0.00923934 -0.0153101 0.99984 