# vtk DataFile Version 3.0 
Exported using Morpho https://github.com/Morpho-lang/morpho 
ASCII 
DATASET UNSTRUCTURED_GRID 

POINTS 2012 float 
-8.48528 -2.82843 -1.82606e-10 
-8.24108 -2.82843 8.18158e-09 
-8.00412 -2.82843 4.48139e-09 
-7.78145 -2.82843 3.44932e-09 
-7.55913 -2.82843 4.59841e-09 
-7.32923 -2.82843 4.26091e-09 
-7.10552 -2.82843 3.05798e-09 
-6.88387 -2.82843 2.49251e-09 
-6.65536 -2.82843 1.85857e-09 
-6.43016 -2.82843 1.2331e-09 
-6.20957 -2.82843 7.52817e-10 
-5.99138 -2.82843 3.26533e-10 
-5.7728 -2.82843 -6.36304e-11 
-5.56224 -2.82843 -3.80847e-10 
-5.35518 -2.82843 -7.95284e-10 
-5.13501 -2.82843 -1.19489e-09 
-4.92468 -2.82843 -1.41823e-09 
-4.71404 -2.82843 -1.84518e-09 
-4.50163 -2.82843 -2.38836e-09 
-4.28775 -2.82843 -2.88155e-09 
-4.07708 -2.82843 -3.50105e-09 
-3.86202 -2.82843 -4.99416e-09 
-3.63651 -2.82843 -6.06199e-09 
-3.42184 -2.82843 -6.57219e-09 
-3.20707 -2.82843 -7.79136e-09 
-2.99502 -2.82843 -9.04881e-09 
-2.78082 -2.82843 -1.10347e-08 
-2.56422 -2.82843 -1.31243e-08 
-2.34723 -2.82843 -1.36601e-08 
-2.13524 -2.82843 -1.66034e-08 
-1.90855 -2.82843 -1.57226e-08 
-1.71663 -2.82843 -8.92851e-09 
-1.51371 -2.82843 -8.29972e-09 
-1.35994 -2.82843 -5.4798e-09 
-1.12971 -2.82843 4.56808e-09 
-0.964705 -2.82843 1.57747e-08 
-0.773958 -2.82843 2.98288e-08 
-0.560364 -2.82843 5.22838e-08 
-0.364236 -2.82842 4.39157e-08 
-0.142153 -2.82842 -3.01019e-08 
0.166914 -2.82842 -1.25703e-08 
0.434667 -2.82842 -1.33543e-07 
0.80062 -2.82843 1.8952e-08 
1.01386 -2.82843 -7.52951e-09 
1.18493 -2.82843 -7.73494e-09 
1.36914 -2.82843 1.47544e-09 
1.58151 -2.82843 1.01209e-08 
1.77216 -2.82843 8.18006e-09 
1.96333 -2.82843 1.27599e-08 
2.17292 -2.82843 1.4281e-08 
2.38588 -2.82843 1.39356e-08 
2.60223 -2.82843 1.24688e-08 
2.8169 -2.82843 1.11146e-08 
3.03469 -2.82843 9.47254e-09 
3.24946 -2.82843 7.09706e-09 
3.45713 -2.82843 6.1962e-09 
3.67195 -2.82843 5.38708e-09 
3.88516 -2.82843 4.34508e-09 
4.09855 -2.82843 3.54328e-09 
4.31091 -2.82843 2.83272e-09 
4.5219 -2.82843 2.24063e-09 
4.73186 -2.82843 1.81613e-09 
4.94346 -2.82843 1.45393e-09 
5.1552 -2.82843 1.09358e-09 
5.36685 -2.82843 7.61932e-10 
5.57866 -2.82843 3.99864e-10 
5.79139 -2.82843 2.90674e-11 
6.00737 -2.82843 -3.46259e-10 
6.22548 -2.82843 -7.61196e-10 
6.44575 -2.82843 -1.18453e-09 
6.66461 -2.82843 -1.71744e-09 
6.88852 -2.82843 -2.56388e-09 
7.11759 -2.82843 -3.48291e-09 
7.34686 -2.82843 -4.50485e-09 
7.58226 -2.82843 -4.92469e-09 
7.81498 -2.82843 -4.00418e-09 
8.04414 -2.82843 -4.17413e-09 
8.26481 -2.82843 -7.14448e-09 
8.48528 -2.82843 6.54313e-10 
-8.48528 -2.60743 -5.09629e-09 
-8.23294 -2.60482 6.95209e-11 
-7.99368 -2.59883 1.07369e-10 
-7.75775 -2.59852 9.64989e-11 
-7.52146 -2.59979 9.09211e-11 
-7.28923 -2.595 6.66289e-11 
-7.06135 -2.59264 5.32722e-11 
-6.83032 -2.60037 4.89994e-11 
-6.59986 -2.59917 3.72538e-11 
-6.3728 -2.59777 2.47332e-11 
-6.14942 -2.59698 1.43695e-11 
-5.92689 -2.59917 5.36321e-12 
-5.70883 -2.59422 -2.55995e-12 
-5.49447 -2.5919 -9.56435e-12 
-5.27637 -2.60423 -1.89821e-11 
-5.05852 -2.59597 -2.48592e-11 
-4.84397 -2.59662 -3.33227e-11 
-4.62864 -2.59823 -4.40128e-11 
-4.41311 -2.59951 -5.67227e-11 
-4.19813 -2.59523 -6.6943e-11 
-3.98132 -2.60009 -8.78719e-11 
-3.75832 -2.60957 -1.21517e-10 
-3.53533 -2.59952 -1.32365e-10 
-3.31508 -2.60015 -1.62712e-10 
-3.09449 -2.59638 -1.84279e-10 
-2.87428 -2.59888 -2.20342e-10 
-2.65253 -2.60125 -2.58673e-10 
-2.42858 -2.60124 -2.87089e-10 
-2.20752 -2.59834 -2.7495e-10 
-1.9845 -2.61447 -3.51857e-10 
-1.76388 -2.57579 -1.64078e-10 
-1.57019 -2.594 -1.20151e-10 
-1.38266 -2.53926 -7.04338e-11 
-1.2226 -2.64424 -1.31847e-10 
-1.02264 -2.57356 1.25086e-10 
-0.847192 -2.61418 -2.43725e-10 
-0.64144 -2.64466 -5.72273e-10 
-0.427735 -2.62663 -6.71816e-10 
-0.222628 -2.6555 -6.92745e-10 
-0.0705515 -2.52433 1.31821e-10 
0.0228262 -2.70175 -3.61354e-10 
0.315998 -2.67498 6.46264e-10 
0.66013 -2.71231 -1.05781e-09 
0.824867 -2.54169 1.03462e-09 
0.974411 -2.61689 -2.62208e-10 
1.17013 -2.57069 2.44516e-10 
1.3484 -2.58212 -6.10072e-11 
1.54004 -2.61114 2.12824e-11 
1.75677 -2.5897 1.11596e-10 
1.96044 -2.59158 2.46043e-10 
2.17214 -2.59728 2.68186e-10 
2.39644 -2.60434 2.91723e-10 
2.62014 -2.60318 2.62796e-10 
2.84728 -2.60627 2.40858e-10 
3.07326 -2.6029 1.98377e-10 
3.29003 -2.59375 1.49414e-10 
3.51084 -2.60101 1.38579e-10 
3.73314 -2.60014 1.12368e-10 
3.95447 -2.60052 9.15413e-11 
4.17476 -2.59927 7.25075e-11 
4.39351 -2.59798 5.70479e-11 
4.61111 -2.59713 4.47039e-11 
4.8294 -2.59898 3.55686e-11 
5.04841 -2.59888 2.64866e-11 
5.26757 -2.5981 1.81658e-11 
5.48661 -2.59716 1.04833e-11 
5.70606 -2.59642 2.84668e-12 
5.92718 -2.5975 -5.395e-12 
6.15086 -2.59722 -1.44546e-11 
6.37626 -2.59702 -2.47765e-11 
6.60265 -2.59315 -3.43636e-11 
6.82878 -2.59603 -4.65897e-11 
7.05952 -2.59854 -5.96977e-11 
7.29358 -2.59752 -7.26447e-11 
7.52932 -2.60219 -9.27611e-11 
7.76839 -2.59987 -1.05641e-10 
8.00435 -2.59686 -1.06737e-10 
8.23548 -2.59419 -4.35987e-11 
8.48528 -2.61273 5.01307e-09 
-8.48528 -2.35417 -1.74848e-09 
-8.25951 -2.38443 -7.41498e-11 
-8.01962 -2.37477 4.4956e-12 
-7.78159 -2.37247 7.57977e-13 
-7.54547 -2.37353 3.6211e-12 
-7.30863 -2.36601 5.10587e-13 
-7.07549 -2.35958 -2.78033e-12 
-6.84744 -2.36981 -7.9656e-13 
-6.61972 -2.37047 5.21829e-13 
-6.39214 -2.36895 7.57062e-13 
-6.16715 -2.36749 8.37931e-13 
-5.94413 -2.37061 1.17782e-12 
-5.72273 -2.36447 7.57366e-13 
-5.50398 -2.36084 9.08282e-13 
-5.28641 -2.37485 -9.16159e-13 
-5.06932 -2.36948 -2.07115e-12 
-4.85009 -2.36704 -1.5986e-12 
-4.63365 -2.36964 -2.23877e-12 
-4.41647 -2.36991 -3.89016e-12 
-4.19576 -2.37002 -3.29549e-12 
-3.97567 -2.37219 -4.87851e-12 
-3.75719 -2.38616 -6.9817e-12 
-3.53544 -2.37347 -7.34911e-12 
-3.31126 -2.37487 -5.62157e-12 
-3.08726 -2.36981 -9.44469e-12 
-2.865 -2.37242 -1.35096e-11 
-2.6398 -2.37717 -1.66083e-11 
-2.41945 -2.37311 -1.43433e-11 
-2.19761 -2.37377 -8.84427e-12 
-1.97787 -2.39061 -2.41166e-11 
-1.7688 -2.34244 7.88289e-12 
-1.56166 -2.34305 -5.50214e-11 
-1.3566 -2.31818 -1.17713e-10 
-1.15966 -2.411 -1.6863e-10 
-0.936092 -2.35242 -7.83545e-10 
-0.740408 -2.43703 -9.59692e-11 
-0.531378 -2.45388 -3.24637e-10 
-0.290493 -2.45739 -1.60579e-09 
-0.2624 -2.27137 -5.13135e-10 
0.154531 -2.38215 1.37285e-09 
0.168054 -2.55542 4.81925e-10 
0.528339 -2.59292 8.89297e-10 
0.710152 -2.4154 5.28219e-10 
0.909117 -2.26755 2.59288e-10 
1.04046 -2.36402 -1.61938e-10 
1.22253 -2.31858 3.63454e-10 
1.40739 -2.34443 -2.4038e-11 
1.60649 -2.38706 3.84837e-11 
1.82334 -2.35839 2.27574e-11 
2.0362 -2.36855 2.12149e-11 
2.25772 -2.37869 2.20166e-11 
2.4787 -2.38116 1.46058e-11 
2.70332 -2.3843 1.26682e-11 
2.92839 -2.38448 1.33853e-11 
3.14593 -2.36826 9.24825e-12 
3.36728 -2.36893 9.69564e-12 
3.58665 -2.37563 6.9477e-12 
3.80734 -2.37404 5.38032e-12 
4.02579 -2.37308 4.64887e-12 
4.24321 -2.37047 3.72765e-12 
4.45936 -2.36852 2.79616e-12 
4.67617 -2.3695 2.2303e-12 
4.89251 -2.37123 1.58945e-12 
5.10937 -2.37075 9.1918e-13 
5.32604 -2.36888 3.87601e-13 
5.54273 -2.36715 -1.29268e-14 
5.76078 -2.36678 -4.60524e-13 
5.98024 -2.36789 -1.06048e-12 
6.20135 -2.36704 -1.39394e-12 
6.42321 -2.36511 -1.54701e-12 
6.64603 -2.3599 -6.79746e-13 
6.87062 -2.36509 1.60476e-12 
7.09871 -2.36853 2.61281e-12 
7.3302 -2.36915 -1.75477e-12 
7.56271 -2.37486 -4.89742e-12 
7.79346 -2.3697 4.44301e-13 
8.02297 -2.36429 1.33367e-12 
8.26068 -2.38011 7.05336e-11 
8.48528 -2.36801 1.96557e-09 
-8.48528 -2.12083 -1.15216e-09 
-8.25381 -2.15274 -5.39876e-11 
-8.01845 -2.14924 -1.17754e-12 
-7.77985 -2.14821 -3.06983e-12 
-7.5422 -2.14791 3.80526e-12 
-7.30841 -2.13799 1.83075e-12 
-7.07614 -2.13159 -3.684e-12 
-6.84435 -2.13815 -3.06439e-12 
-6.61511 -2.14134 -7.64773e-13 
-6.38699 -2.14061 3.79254e-13 
-6.16055 -2.13958 4.90539e-13 
-5.93537 -2.14296 3.18485e-13 
-5.71175 -2.13686 3.37912e-14 
-5.48857 -2.13479 2.50242e-14 
-5.26766 -2.14692 1.21521e-12 
-5.04448 -2.14465 3.97902e-14 
-4.82301 -2.14057 5.54346e-13 
-4.60233 -2.14359 -3.45854e-14 
-4.37909 -2.14681 -5.70592e-13 
-4.15637 -2.14517 -5.05188e-14 
-3.93373 -2.14802 -1.17264e-12 
-3.71417 -2.1593 -2.0762e-12 
-3.48419 -2.152 -3.32579e-12 
-3.25685 -2.15154 -5.49195e-13 
-3.03024 -2.14378 -1.80451e-12 
-2.80394 -2.15034 -4.61116e-12 
-2.58375 -2.14726 -5.87026e-12 
-2.36109 -2.1469 -3.79543e-12 
-2.13742 -2.15293 -4.16707e-12 
-1.93253 -2.14692 1.00118e-11 
-1.71194 -2.1117 -4.80058e-11 
-1.51432 -2.10373 1.68167e-11 
-1.31095 -2.09737 -7.27604e-11 
-1.12444 -2.20761 -1.54182e-10 
-1.05618 -2.01228 -2.23911e-10 
-0.887429 -2.15407 -5.54498e-10 
-0.696613 -2.24313 -1.59611e-09 
-0.472051 -2.2847 -1.32365e-09 
-0.0534846 -2.3442 -8.79446e-10 
0.143053 -2.17996 1.3914e-10 
0.338417 -2.261 5.83806e-10 
0.386341 -2.45491 1.59417e-09 
0.560807 -2.33285 8.44626e-10 
0.753753 -2.16194 1.45539e-09 
0.951352 -2.02673 8.82174e-10 
1.12644 -2.09038 -9.99739e-12 
1.31634 -2.08017 1.4063e-10 
1.51556 -2.13461 9.83734e-11 
1.7166 -2.15638 3.1226e-11 
1.95073 -2.13853 3.69638e-11 
2.17071 -2.15612 1.31962e-11 
2.3985 -2.15779 1.06647e-11 
2.6254 -2.16223 6.18721e-12 
2.85314 -2.16486 4.77079e-12 
3.07699 -2.14558 3.11013e-12 
3.30463 -2.14434 4.029e-12 
3.53126 -2.14829 2.21136e-12 
3.75421 -2.14998 1.55574e-12 
3.97863 -2.14639 5.00899e-13 
4.19974 -2.14357 3.86984e-13 
4.42025 -2.14059 1.57828e-14 
4.63997 -2.14221 -1.69162e-15 
4.85984 -2.14327 -3.63396e-14 
5.07903 -2.14348 -4.78831e-14 
5.29866 -2.14089 -3.85412e-13 
5.51831 -2.13806 -5.35918e-14 
5.73806 -2.13752 -4.12407e-14 
5.95935 -2.13819 -5.647e-14 
6.1819 -2.13712 -3.1479e-13 
6.40606 -2.13439 -2.8252e-14 
6.63132 -2.12809 1.59879e-12 
6.8581 -2.1323 3.9372e-12 
7.08557 -2.1382 4.49525e-12 
7.31768 -2.14093 -7.9026e-13 
7.55276 -2.14629 -4.63397e-12 
7.78802 -2.13881 4.79221e-12 
8.02081 -2.13403 -2.66886e-12 
8.25584 -2.15109 5.27112e-11 
8.48528 -2.12567 1.07935e-09 
-8.48528 -1.87678 -1.66287e-09 
-8.26737 -1.91856 -5.01775e-11 
-8.04428 -1.92136 -6.35513e-12 
[...]
POINT_DATA 2012 
VECTORS vectors float
0.00333486 -0.0156615 0.999873 
-0.00415954 -0.0311498 0.999507 
-0.00229847 -0.0251594 0.999681 
-0.0019138 -0.0218826 0.99976 
-0.00231023 -0.0224168 0.999747 
-0.0023921 -0.0206585 0.999784 
-0.0020285 -0.0169291 0.999855 
-0.00222345 -0.0130467 0.999913 
-0.00236041 -0.00946042 0.999953 
-0.00216491 -0.00655779 0.999977 
-0.00204368 -0.00409328 0.99999 
-0.00210889 -0.00181264 0.999997 
-0.00197471 0.000298305 0.999999 
-0.00154778 0.00230841 0.999997 
-0.00196059 0.00425971 0.99999 
-0.00207337 0.00633741 0.999979 
-0.00168466 0.00842342 0.999964 
-0.00181475 0.0107936 0.999941 
-0.00190946 0.0136845 0.999905 
-0.0018052 0.0172624 0.99985 
-0.00170774 0.0216448 0.999765 
-0.00215807 0.0272278 0.999628 
-0.00207105 0.0346763 0.999397 
-0.00171423 0.0437339 0.999042 
-0.00168948 0.0553082 0.998469 
-0.00157704 0.0698165 0.997559 
-0.0016109 0.0883744 0.996087 
-0.0015796 0.112461 0.993655 
-0.00125144 0.142924 0.989733 
-0.00138572 0.180995 0.983483 
-0.000910303 0.23208 0.972696 
-0.000293896 0.285574 0.958357 
-0.000200677 0.355639 0.934623 
0.000252106 0.419363 0.907819 
-0.000249623 0.525762 0.850632 
-4.22213e-05 0.613716 0.789527 
0.00039273 0.718058 0.695984 
0.000311893 0.835213 0.549926 
0.00018165 0.924481 0.381227 
0.000404519 0.986681 0.162664 
-0.000343902 0.985066 -0.172178 
-0.000957871 0.897052 -0.441924 
-0.00110447 0.708582 -0.705628 
0.000202746 0.591165 -0.80655 
2.7738e-05 0.502185 -0.864761 
0.000218685 0.417534 -0.908661 
0.000422507 0.33246 -0.943118 
0.00016443 0.27075 -0.96265 
0.000717724 0.219184 -0.975684 
0.00116424 0.17362 -0.984812 
0.00138487 0.136941 -0.990579 
0.00151328 0.107687 -0.994184 
0.00165071 0.0846491 -0.99641 
0.00180037 0.0664772 -0.997787 
0.00155328 0.052573 -0.998617 
0.00164262 0.0419469 -0.999119 
0.00186968 0.0332752 -0.999445 
0.00180929 0.0264778 -0.999649 
0.00184321 0.0211049 -0.999776 
0.00180352 0.0168561 -0.999857 
0.0017493 0.0134195 -0.999909 
0.00178271 0.0106236 -0.999943 
0.00184907 0.00825078 -0.999965 
0.00183616 0.00615822 -0.99998 
0.00183231 0.00420473 -0.99999 
0.00183502 0.00219425 -0.999997 
0.0019208 0.000140556 -0.999999 
0.00202571 -0.00194303 -0.999997 
0.00210819 -0.00418175 -0.99999 
0.0020571 -0.00670062 -0.999976 
0.00206488 -0.00969735 -0.999952 
0.00228882 -0.0132747 -0.99991 
0.002295 -0.0172021 -0.99985 
0.00245618 -0.0206782 -0.999784 
0.00249177 -0.0223444 -0.999748 
0.00235564 -0.0220992 -0.999754 
0.0022213 -0.0257602 -0.999666 
0.00323276 -0.0316756 -0.999494 
-0.00425351 -0.0159258 -0.999865 
0.00904801 -0.000146601 0.99996 
0.0230559 -0.031688 0.999232 
0.0246374 -0.0263575 0.999349 
0.0256509 -0.0226355 0.999415 
0.0262527 -0.0206633 0.999442 
0.0259038 -0.0184619 0.999494 
0.0259531 -0.0156881 0.99954 
0.0265015 -0.0122984 0.999573 
0.0267652 -0.00892547 0.999602 
0.0269563 -0.00602808 0.999619 
0.0270737 -0.00351621 0.999627 
0.0271064 -0.00121673 0.999632 
0.0269672 0.000891527 0.999636 
0.0269613 0.00287556 0.999633 
0.0272843 0.00492358 0.999616 
0.0270518 0.00702439 0.99961 
0.0270076 0.00931139 0.999592 
0.0269448 0.0119954 0.999565 
0.0268385 0.0152703 0.999523 
0.0265156 0.0192961 0.999462 
0.0263219 0.0243547 0.999357 
0.0261292 0.0308609 0.999182 
0.0254331 0.0391667 0.998909 
0.0248704 0.0496251 0.998458 
0.0240486 0.0628771 0.997732 
0.0232676 0.0799155 0.99653 
0.0224021 0.101813 0.994552 
0.021314 0.130164 0.991264 
0.0200607 0.166059 0.985912 
0.0185478 0.211804 0.977136 
0.0172274 0.268873 0.963022 
0.0152283 0.334272 0.942354 
0.0162715 0.407595 0.913018 
0.0106058 0.482136 0.876032 
0.0127634 0.582604 0.812656 
0.0086222 0.677999 0.735012 
0.00489371 0.791617 0.610997 
0.0039684 0.897884 0.440214 
0.0017713 0.970063 0.242846 
0.00248252 0.996691 0.0812453 
0.000341122 0.999703 -0.0243698 
-0.000402577 0.945624 -0.325262 
0.000171669 0.776397 -0.630244 
-0.0153631 0.694065 -0.719748 
-0.00880317 0.616897 -0.786995 
-0.013512 0.513954 -0.857712 
-0.0140536 0.432362 -0.901591 
-0.0143488 0.354026 -0.935126 
-0.0167011 0.280376 -0.959745 
-0.0183168 0.222147 -0.974841 
-0.0197466 0.173908 -0.984564 
-0.0210988 0.136062 -0.990476 
-0.0222364 0.106313 -0.994084 
-0.0232681 0.082789 -0.996296 
-0.0241166 0.0646961 -0.997614 
-0.0246849 0.0511044 -0.998388 
-0.0253987 0.0401461 -0.998871 
-0.0258981 0.0315816 -0.999166 
-0.0263097 0.0249029 -0.999344 
-0.0265744 0.0196762 -0.999453 
-0.0267796 0.0155606 -0.99952 
-0.0269233 0.0122402 -0.999563 
-0.027068 0.00948633 -0.999589 
-0.0271188 0.00713549 -0.999607 
-0.0271224 0.00501604 -0.99962 
-0.0271162 0.00297382 -0.999628 
-0.027096 0.000923411 -0.999633 
-0.0270887 -0.00119476 -0.999633 
-0.0270188 -0.00349789 -0.999629 
-0.0268703 -0.00608745 -0.999621 
-0.0265904 -0.00909091 -0.999605 
-0.0263834 -0.0124238 -0.999575 
-0.0261865 -0.0157609 -0.999533 
-0.0261026 -0.0185561 -0.999487 
-0.0263505 -0.0208053 -0.999436 
-0.0259366 -0.0229109 -0.999401 
-0.0244177 -0.0265785 -0.999349 
-0.0222525 -0.0317343 -0.999249 
-0.00931764 -0.00060354 -0.999957 
0.00521609 -0.00198036 0.999985 
0.0176853 -0.0335885 0.99928 
0.0196326 -0.0280095 0.999415 
0.0206885 -0.0237023 0.999505 
0.0209662 -0.0198529 0.999583 
0.0211074 -0.0176121 0.999622 
0.0214932 -0.0155976 0.999648 
0.022161 -0.0127401 0.999673 
0.0224788 -0.00949883 0.999702 
0.0226961 -0.00651132 0.999721 
0.0228527 -0.00384849 0.999732 
0.0230469 -0.00146865 0.999733 
0.0228996 0.000681401 0.999738 
0.022807 0.00273561 0.999736 
0.0233025 0.00472269 0.999718 
0.0231449 0.00681557 0.999709 
0.0229561 0.00920654 0.999694 
0.0229511 0.0119444 0.999665 
0.0229196 0.0152562 0.999621 
0.0226011 0.01941 0.999556 
0.0224024 0.0245487 0.999448 
0.0223883 0.0310146 0.999268 
0.0217785 0.0393797 0.998987 
0.0212604 0.0501559 0.998515 
0.020865 0.0639775 0.997733 
0.020579 0.0813431 0.996474 
0.0202934 0.103944 0.994376 
0.0200472 0.132795 0.990941 
0.0200475 0.170483 0.985157 
0.020269 0.216522 0.976067 
0.0215996 0.271884 0.962088 
0.0225645 0.334897 0.941985 
0.0257827 0.414508 0.90968 
0.022782 0.507281 0.86148 
0.0278108 0.622216 0.782351 
0.0216993 0.732445 0.68048 
0.0175974 0.849717 0.526945 
0.0120233 0.94726 0.32024 
0.0202134 0.958146 0.285566 
-0.00812559 0.98576 -0.167959 
-0.00395932 0.983119 -0.182925 
-0.00600594 0.848341 -0.529415 
-0.0216712 0.768071 -0.639998 
-0.0342003 0.643833 -0.764401 
-0.025452 0.575624 -0.817318 
-0.027676 0.482369 -0.875531 
-0.02396 0.400825 -0.915842 
-0.0214561 0.326001 -0.945126 
-0.0209368 0.256159 -0.966408 
-0.0202596 0.202505 -0.979072 
-0.020134 0.158573 -0.987142 
-0.020199 0.12466 -0.991994 
-0.0204689 0.0973128 -0.995044 
-0.0208667 0.0760633 -0.996885 
-0.021014 0.0600034 -0.997977 
-0.0214592 0.04719 -0.998656 
-0.0219437 0.0372683 -0.999065 
-0.0222393 0.0294384 -0.999319 
-0.0225305 0.0233064 -0.999475 
-0.0227193 0.0184582 -0.999572 
-0.0228681 0.0146013 -0.999632 
-0.0230319 0.0114215 -0.99967 
-0.0231166 0.0087614 -0.999695 
-0.0231281 0.00646108 -0.999712 
-0.0231039 0.0043729 -0.999724 
-0.0230685 0.00235548 -0.999731 
-0.0230176 0.000321046 -0.999735 
-0.0229607 -0.00182096 -0.999735 
-0.0228301 -0.00420946 -0.999731 
-0.022606 -0.00692188 -0.999721 
-0.0222227 -0.00998787 -0.999703 
-0.0219634 -0.0131692 -0.999672 
-0.0216497 -0.0159062 -0.999639 
-0.0213507 -0.017894 -0.999612 
-0.0212474 -0.0203308 -0.999568 
-0.020364 -0.0239633 -0.999505 
-0.0190347 -0.0282946 -0.999419 
-0.0172512 -0.0334735 -0.999291 
-0.00546723 -0.00178999 -0.999984 
0.00399614 -0.00242838 0.99999 
0.0134535 -0.0346063 0.999311 
0.0153475 -0.0289799 0.999463 
0.0161185 -0.0241096 0.99958 
0.0164072 -0.0194366 0.999677 
0.0168876 -0.0170903 0.999712 
0.017298 -0.0155872 0.999729 
0.0178782 -0.012999 0.999756 
0.0183851 -0.00985276 0.999783 
0.018683 -0.006765 0.999803 
0.0188388 -0.00397393 0.999815 
0.0189095 -0.00151314 0.99982 
0.0189233 0.000660244 0.999821 
0.0188745 0.00273035 0.999818 
0.018995 0.00484359 0.999808 
0.0191028 0.00705636 0.999793 
0.0189285 0.00952876 0.999776 
0.0190133 0.0124515 0.999742 
0.0189981 0.0160088 0.999692 
0.0187468 0.0204089 0.999616 
0.0186423 0.0258591 0.999492 
0.0186305 0.0326374 0.999294 
0.0182937 0.0416587 0.998965 
0.0180167 0.0533313 0.998415 
0.0178847 0.0679315 0.99753 
0.0181693 0.0867131 0.996068 
0.0186026 0.11032 0.993722 
0.0194536 0.141092 0.989806 
0.0208923 0.180385 0.983374 
0.022976 0.226142 0.973824 
0.0268848 0.282363 0.958931 
0.0306958 0.345528 0.937906 
0.0366913 0.426468 0.903758 
0.0352811 0.519511 0.853735 
0.0496735 0.531554 0.845567 
0.0433367 0.641441 0.765948 
0.0367974 0.7572 0.652145 
0.0303639 0.871468 0.489511 
0.00438836 0.997876 0.0649869 
-0.0144405 0.986252 -0.164613 
-0.0229625 0.934168 -0.356095 
-0.0132173 0.908666 -0.417314 
-0.0283656 0.834331 -0.550534 
-0.0432801 0.72641 -0.685898 
-0.0528788 0.604206 -0.795072 
-0.042389 0.523813 -0.850778 
-0.0372036 0.426214 -0.903857 
-0.0303482 0.349019 -0.936624 
-0.0258295 0.281336 -0.959262 
-0.0227252 0.21781 -0.975727 
-0.0206988 0.172332 -0.984822 
-0.019322 0.13427 -0.990757 
-0.0185938 0.105015 -0.994297 
-0.0182107 0.0816827 -0.996492 
-0.0179304 0.0640169 -0.997788 
-0.0180379 0.0501293 -0.99858 
-0.0182801 0.0394179 -0.999056 
-0.018511 0.0311464 -0.999344 
-0.0186457 0.0245487 -0.999525 
-0.0187916 0.0193888 -0.999636 
-0.0188675 0.0152623 -0.999706 
-0.0190139 0.0119032 -0.999749 
-0.0190459 0.00907945 -0.999778 
-0.0190642 0.00668004 -0.999796 
-0.0190228 0.00453344 -0.999809 
-0.0189668 0.00247754 -0.999817 
-0.0189319 0.000424005 -0.999821 
-0.0188563 -0.00173949 -0.999821 
-0.0187226 -0.00415872 -0.999816 
-0.0184813 -0.00694927 -0.999805 
-0.0180782 -0.010104 -0.999786 
-0.0177713 -0.0132753 -0.999754 
-0.0173958 -0.015703 -0.999726 
-0.0168288 -0.0170751 -0.999713 
-0.0164188 -0.0193203 -0.999679 
-0.0157665 -0.0240493 -0.999587 
-0.0150165 -0.0286318 -0.999477 
-0.0136126 -0.034416 -0.999315 
-0.00420458 -0.00267579 -0.999988 
0.00402003 -0.00218823 0.99999 
0.0109693 -0.0353674 0.999314 
0.0117855 -0.0297235 0.999489 
0.0122979 -0.0244663 0.999625 
0.0123446 -0.0191755 0.99974 
0.0130705 -0.017069 0.999769 
0.0136479 -0.016161 0.999776 
0.0143897 -0.01401 0.999799 
0.0149438 -0.0108687 0.999829 
0.0153163 -0.00767695 0.999853 
0.0155548 -0.0047564 0.999868 
0.0157617 -0.00221703 0.999874 
0.0158525 -2.37078e-05 0.999875 
0.0158912 0.00201836 0.999872 
0.0160548 0.00411519 0.999863 
0.0160905 0.00626589 0.999851 
0.0160663 0.00859684 0.999834 
0.0161042 0.0114033 0.999806 
0.0160777 0.0146931 0.999763 
0.015933 0.018664 0.999699 
0.0157717 0.023666 0.999596 
0.0156745 0.0297341 0.999435 
0.0156675 0.0372027 0.999185 
0.0155626 0.0471366 0.998767 
0.0155764 0.059683 0.998096 
0.0159725 0.0758873 0.996989 
0.0167387 0.0954056 0.995298 
0.0180639 0.120222 0.992583 
0.0200905 0.151502 0.988253 
0.0231276 0.189861 0.981539 
0.0272421 0.235843 0.97141 
0.033943 0.287522 0.957173 
0.0404174 0.353429 0.934588 
0.0494327 0.438333 0.897452 
0.0662725 0.519389 0.851964 
0.0626857 0.631273 0.773024 
0.0556174 0.755754 0.652489 
0.0479678 0.868032 0.494185 
0.0338203 0.955283 0.293753 
0.00752134 0.998118 0.0608498 
-0.0425928 0.92409 -0.379794 
-0.044727 0.843045 -0.53598 
-0.0634796 0.733018 -0.677241 
-0.072212 0.608297 -0.790418 
-0.0782128 0.513277 -0.854652 
-0.0581287 0.487066 -0.871429 
-0.0484191 0.412435 -0.909699 
-0.0382836 0.336041 -0.941069 
-0.0309838 0.27313 -0.961478 
-0.0255192 0.21859 -0.975483 
-0.0216883 0.170886 -0.985052 
-0.0191542 0.135875 -0.990541 
-0.0174457 0.106327 -0.994178 
-0.0164105 0.083641 -0.996361 
-0.0157464 0.0655737 -0.997724 
-0.0155306 0.0516748 -0.998543 
-0.015549 0.040706 -0.99905 
-0.0156311 0.0321153 -0.999362 
-0.0157626 0.0253478 -0.999555 
-0.015849 0.019958 -0.999675 
-0.0159562 0.0157342 -0.999749 
-0.0160471 0.0122458 -0.999796 
-0.0160931 0.00933741 -0.999827 
-0.0160813 0.00685594 -0.999847 
-0.0160304 0.00468367 -0.999861 
-0.0159518 0.00261901 -0.99987 
-0.0158645 0.000549408 -0.999874 
-0.0157712 -0.00160547 -0.999875 
-0.015593 -0.00404954 -0.99987 
-0.0153018 -0.00691133 -0.999859 
-0.0148966 -0.0101433 -0.999838 
-0.0144863 -0.0134275 -0.999805 
-0.0139535 -0.0158688 -0.999777 
-0.0132645 -0.0168031 -0.999771 
-0.0124663 -0.0184174 -0.999753 
-0.0118986 -0.0233996 -0.999656 
-0.0117645 -0.0289172 -0.999513 
-0.0114168 -0.0348882 -0.999326 
-0.0041647 -0.00260115 -0.999988 
0.00405331 -0.00280824 0.999988 
0.00963559 -0.0349091 0.999344 
0.00994883 -0.0290281 0.999529 
0.0103182 -0.0234401 0.999672 
0.0109083 -0.0185287 0.999769 
0.0119818 -0.0170943 0.999782 
0.0128672 -0.0164891 0.999781 
0.0135851 -0.0142009 0.999807 
0.0141307 -0.0109654 0.99984 
0.0145271 -0.00771181 0.999865 
0.0148598 -0.00476391 0.999878 
0.0151485 -0.00222026 0.999883 
0.0153842 -3.18151e-05 0.999882 
0.0155299 0.00201235 0.999878 
0.0155936 0.00402908 0.999871 
0.0156758 0.00612604 0.999859 
0.0157519 0.00848191 0.99984 
0.0157017 0.0111912 0.999814 
0.0156212 0.0144575 0.999774 
0.0155056 0.018357 0.999711 
0.0153504 0.0231157 0.999615 
0.0152058 0.0290704 0.999462 
0.0150939 0.0362565 0.999229 
0.0150881 0.0451973 0.998864 
0.015319 0.0568712 0.998264 
0.0158748 0.0716606 0.997303 
0.0169332 0.0903491 0.995766 
0.018523 0.112861 0.993438 
0.0210677 0.141831 0.989667 
0.0248415 0.177315 0.983841 
0.0301788 0.220617 0.974894 
0.0381183 0.267362 0.962842 
0.0478252 0.331488 0.942247 
0.0580017 0.406244 0.911922 
0.0797828 0.494861 0.865302 
0.0851229 0.627924 0.773606 
0.0789934 0.750012 0.65669 
0.0710175 0.871368 0.485462 
0.0520831 0.958211 0.28128 
0.0112221 0.997851 0.0645496 
-0.0275222 0.980415 -0.195007 
-0.0734983 0.827208 -0.557068 
-0.0944608 0.684658 -0.722718 
-0.104958 0.588531 -0.801633 
-0.0898029 0.46048 -0.883116 
-0.0659566 0.414499 -0.907656 
-0.0512033 0.351542 -0.934771 
-0.04045 0.288124 -0.956739 
-0.0318089 0.233027 -0.97195 
-0.0258122 0.186666 -0.982084 
-0.0216947 0.147176 -0.988873 
-0.0188848 0.117349 -0.992911 
-0.0171125 0.0924293 -0.995572 
-0.0160208 0.073586 -0.99716 
-0.0154015 0.0578181 -0.998209 
-0.0151502 0.0458385 -0.998834 
-0.015089 0.0364923 -0.99922 
-0.0151443 0.0289851 -0.999465 
-0.015286 0.0229463 -0.99962 
-0.01543 0.018106 -0.999717 
-0.0155747 0.0142287 -0.999778 
-0.0156599 0.011025 -0.999817 
-0.0156864 0.00829513 -0.999843 
-0.0156595 0.00595436 -0.99986 
-0.0155878 0.00386662 -0.999871 
-0.0154725 0.00183591 -0.999879 
-0.0153215 -0.000224737 -0.999883 
-0.0151141 -0.00242085 -0.999883 
-0.0148342 -0.00500028 -0.999878 
-0.0144668 -0.00801018 -0.999863 
-0.0140374 -0.0113398 -0.999837 
-0.0135321 -0.0145365 -0.999803 
-0.0128758 -0.0166068 -0.999779 
-0.0119694 -0.0171581 -0.999781 
-0.0109438 -0.0187012 -0.999765 
-0.0101755 -0.0236244 -0.999669 
-0.00993341 -0.0294803 -0.999516 
-0.00993888 -0.0352249 -0.99933 
-0.00395821 -0.00245387 -0.99999 
0.00344652 -0.00310458 0.99999 
0.00856479 -0.0342659 0.999376 
0.00917014 -0.0286554 0.999548 
0.00985446 -0.0234036 0.999678 
0.010791 -0.0187399 0.999766 
0.0118272 -0.017482 0.999777 
0.0126526 -0.0171175 0.999774 
0.0132358 -0.0150302 0.9998 
0.0137075 -0.0117603 0.999837 
0.0140747 -0.00838036 0.999866 
0.0144005 -0.00533657 0.999882 
0.0147136 -0.00271694 0.999888 
0.0149228 -0.000486659 0.999889 
0.0150801 0.00157696 0.999885 
0.0152621 0.00363403 0.999877 
0.0153319 0.00569083 0.999866 
0.0153224 0.00797988 0.999851 
0.0153073 0.0106678 0.999826 
0.0152841 0.0137829 0.999788 
0.0151677 0.0175051 0.999732 
0.01504 0.0220337 0.999644 
0.0149432 0.0274743 0.999511 
0.0148869 0.0342058 0.999304 
0.0149825 0.0423439 0.998991 
0.0152224 0.0523691 0.998512 
0.015765 0.0656314 0.99772 
0.0167401 0.0817819 0.99651 
0.0184027 0.102508 0.994562 
0.0209802 0.127494 0.991618 
0.0247848 0.158773 0.987004 
0.0304278 0.197528 0.979825 
0.0401321 0.251015 0.967151 
0.0544149 0.318832 0.946248 
0.0686723 0.396289 0.915555 
0.0852079 0.420118 0.90346 
0.100975 0.529173 0.842485 
0.112955 0.649833 0.751637 
0.107775 0.773143 0.625008 
0.104069 0.882076 0.459467 
-0.00377744 0.999525 -0.0305677 
-0.0757736 0.910468 -0.406578 
-0.110892 0.776497 -0.620286 
-0.139241 0.670035 -0.729153 
-0.120221 0.526678 -0.841521 
-0.101572 0.425341 -0.899315 
-0.0701389 0.369639 -0.926525 
-0.0540297 0.313797 -0.947952 
-0.0413133 0.256867 -0.965564 
-0.0325429 0.209421 -0.977284 
-0.0264968 0.169753 -0.985131 
-0.022286 0.136318 -0.990415 
-0.019431 0.110906 -0.993641 
-0.0175299 0.0890702 -0.995871 
-0.0163008 0.0715488 -0.997304 
-0.0154594 0.0569907 -0.998255 
-0.0150781 0.0453596 -0.998857 
-0.0149236 0.036279 -0.99923 
-0.0149154 0.0290363 -0.999467 
-0.0149949 0.0230864 -0.999621 
-0.0150758 0.0182515 -0.99972 
-0.0152051 0.014335 -0.999782 
-0.0152874 0.0110873 -0.999822 
-0.0153326 0.0083187 -0.999848 
-0.0153112 0.00593706 -0.999865 
-0.0152231 0.00383313 -0.999877 
-0.0150968 0.00179516 -0.999885 
-0.0149158 -0.000287532 -0.999889 
-0.0146991 -0.00250366 -0.999889 
-0.0144453 -0.00508534 -0.999883 
-0.0141046 -0.00814157 -0.999868 
-0.0137153 -0.0114919 -0.99984 
-0.0132317 -0.0148166 -0.999803 
-0.0126587 -0.0169806 -0.999776 
-0.0118841 -0.0175138 -0.999776 
-0.0108672 -0.0186564 -0.999767 
-0.00991516 -0.0229014 -0.999689 
-0.00911182 -0.0285082 -0.999552 
-0.00869805 -0.0345957 -0.999364 
-0.00338546 -0.00275976 -0.999991 
0.00276966 -0.00283391 0.999993 
0.0073339 -0.0343679 0.999383 
0.00810364 -0.0286206 0.999558 
0.00897042 -0.0232467 0.99969 
0.00983171 -0.0187457 0.999776 
0.0107335 -0.01782 0.999784 
0.0112409 -0.0173401 0.999787 
0.0117266 -0.0150349 0.999818 
0.0120632 -0.0116674 0.999859 
0.012269 -0.00820433 0.999891 
0.0125603 -0.00509495 0.999908 
0.0128315 -0.00253994 0.999915 
0.0129135 -0.000348144 0.999917 
0.013117 0.001791 0.999913 
0.0132937 0.00380944 0.999905 
0.0132756 0.00589935 0.999895 
0.0132823 0.00834224 0.999877 
0.0133295 0.0111581 0.999849 
0.0133402 0.0143869 0.999808 
0.0132253 0.0182918 0.999745 
0.0131141 0.0230211 0.999649 
0.0131387 0.0287643 0.9995 
0.0131542 0.0357055 0.999276 
0.0133988 0.0440741 0.998939 
0.0139664 0.0550407 0.998387 
0.0146593 0.0686295 0.997535 
0.0159832 0.0858846 0.996177 
0.0180885 0.10757 0.994033 
0.0214852 0.133582 0.990805 
0.0265374 0.166759 0.985641 
0.0341493 0.208351 0.977458 
0.0467267 0.264543 0.963242 
0.0651946 0.331701 0.941129 
0.085454 0.37783 0.921923 
0.11017 0.419433 0.901077 
0.113292 0.479455 0.870223 
0.137927 0.589724 0.79574 
0.151945 0.723274 0.673637 
0.16475 0.829829 0.533143 
0.0692609 0.969908 0.233409 
-0.0724323 0.961226 -0.266077 
-0.143127 0.829779 -0.539426 
-0.174601 0.646613 -0.742567 
-0.147978 0.522961 -0.839413 
-0.113796 0.415551 -0.902423 
-0.0782693 0.359338 -0.929919 
-0.055396 0.288977 -0.955732 
-0.0426557 0.243774 -0.968894 
-0.0326921 0.197264 -0.979805 
-0.0261961 0.161137 -0.986584 
-0.0214116 0.130322 -0.991241 
-0.0184633 0.106094 -0.994185 
-0.0162417 0.0855397 -0.996203 
-0.014999 0.0692424 -0.997487 
-0.0140303 0.055611 -0.998354 
-0.0136311 0.0448232 -0.998902 
-0.0133601 0.035976 -0.999264 
-0.0132732 0.0289633 -0.999493 
-0.0132537 0.0231378 -0.999645 
-0.013188 0.0183193 -0.999745 
-0.0132921 0.0144233 -0.999808 
-0.0133382 0.0111721 -0.999849 
-0.0133835 0.00836647 -0.999876 
-0.0133469 0.00594541 -0.999893 
-0.0132507 0.00381251 -0.999905 
-0.0131258 0.00176633 -0.999913 
-0.0129552 -0.000322079 -0.999916 
-0.0127847 -0.00253544 -0.999915 
-0.0125855 -0.00512539 -0.999908 
-0.0123304 -0.00819129 -0.999891 
-0.0120234 -0.0116376 -0.99986 
-0.0116804 -0.0150338 -0.999819 
-0.011213 -0.0173606 -0.999787 
-0.0106724 -0.0178707 -0.999784 
-0.00985258 -0.0188141 -0.999775 
-0.00891843 -0.0232126 -0.999691 
-0.00806844 -0.0288247 -0.999552 
-0.00742016 -0.0345307 -0.999376 
-0.00281728 -0.00298292 -0.999992 
0.00217039 -0.00317901 0.999993 
0.00584206 -0.0346446 0.999383 
0.00651836 -0.0291322 0.999555 
0.00730947 -0.0236479 0.999694 
0.00797307 -0.0191639 0.999785 
0.00861849 -0.018185 0.999798 
0.00897498 -0.0177798 0.999802 
0.00923934 -0.0153101 0.99984 