# vtk DataFile Version 3.0 
Exported using Morpho https://github.com/Morpho-lang/morpho 
ASCII 
DATASET UNSTRUCTURED_GRID 

POINTS 2012 float 
-8.48528 -2.82843 -4.12066e-10 
-8.24093 -2.82843 1.84919e-08 
-8.00416 -2.82843 1.01312e-08 
-7.78146 -2.82843 7.79791e-09 
-7.55911 -2.82843 1.03917e-08 
-7.32923 -2.82843 9.63045e-09 
-7.10553 -2.82843 6.91205e-09 
-6.88386 -2.82843 5.63381e-09 
-6.65536 -2.82843 4.20098e-09 
-6.43017 -2.82843 2.78721e-09 
-6.20958 -2.82843 1.70158e-09 
-5.99139 -2.82843 7.38032e-10 
-5.77282 -2.82843 -1.43843e-10 
-5.56225 -2.82843 -8.60798e-10 
-5.35517 -2.82843 -1.7976e-09 
-5.13502 -2.82843 -2.70081e-09 
-4.92468 -2.82843 -3.2056e-09 
-4.71403 -2.82843 -4.17067e-09 
-4.50162 -2.82843 -5.39848e-09 
-4.28775 -2.82843 -6.5133e-09 
-4.07706 -2.82843 -7.91351e-09 
-3.862 -2.82843 -1.12882e-08 
-3.63652 -2.82843 -1.37021e-08 
-3.42185 -2.82843 -1.48549e-08 
-3.20706 -2.82843 -1.76098e-08 
-2.995 -2.82843 -2.04523e-08 
-2.7808 -2.82843 -2.49405e-08 
-2.5642 -2.82843 -2.9663e-08 
-2.3472 -2.82843 -3.08738e-08 
-2.13521 -2.82843 -3.7524e-08 
-1.90853 -2.82843 -3.55329e-08 
-1.71661 -2.82843 -2.01804e-08 
-1.51369 -2.82843 -1.87654e-08 
-1.35993 -2.82843 -1.2384e-08 
-1.12972 -2.82843 1.03092e-08 
-0.964716 -2.82843 3.56481e-08 
-0.77397 -2.82842 6.74144e-08 
-0.560365 -2.82842 1.18138e-07 
-0.364216 -2.82842 9.92296e-08 
-0.142143 -2.82842 -6.80393e-08 
0.16691 -2.82842 -2.83995e-08 
0.434665 -2.82842 -3.01732e-07 
0.800621 -2.82842 4.30836e-08 
1.01386 -2.82843 -1.70168e-08 
1.18493 -2.82843 -1.74949e-08 
1.36913 -2.82843 3.33859e-09 
1.58148 -2.82843 2.28837e-08 
1.77213 -2.82843 1.84926e-08 
1.96331 -2.82843 2.88459e-08 
2.1729 -2.82843 3.22856e-08 
2.38586 -2.82843 3.1495e-08 
2.60221 -2.82843 2.81806e-08 
2.81688 -2.82843 2.51209e-08 
3.03467 -2.82843 2.14101e-08 
3.24944 -2.82843 1.60414e-08 
3.45712 -2.82843 1.40053e-08 
3.67195 -2.82843 1.21763e-08 
3.88515 -2.82843 9.82118e-09 
4.09855 -2.82843 8.00885e-09 
4.3109 -2.82843 6.40275e-09 
4.5219 -2.82843 5.06445e-09 
4.73186 -2.82843 4.10496e-09 
4.94346 -2.82843 3.28627e-09 
5.1552 -2.82843 2.47178e-09 
5.36686 -2.82843 1.72215e-09 
5.57867 -2.82843 9.03793e-10 
5.7914 -2.82843 6.57037e-11 
6.00738 -2.82843 -7.82648e-10 
6.22549 -2.82843 -1.72053e-09 
6.44576 -2.82843 -2.67743e-09 
6.66463 -2.82843 -3.882e-09 
6.88853 -2.82843 -5.79512e-09 
7.1176 -2.82843 -7.8723e-09 
7.34686 -2.82843 -1.01819e-08 
7.58225 -2.82843 -1.1131e-08 
7.81498 -2.82843 -9.05127e-09 
8.04413 -2.82843 -9.43529e-09 
8.26461 -2.82843 -1.61471e-08 
8.48528 -2.82843 1.47815e-09 
-8.48528 -2.60714 -1.15191e-08 
-8.22982 -2.60447 7.71537e-16 
-7.98991 -2.59945 1.26723e-15 
-7.75458 -2.59819 1.12425e-15 
-7.51955 -2.60126 9.96312e-16 
-7.28689 -2.59244 7.73924e-16 
-7.05897 -2.59153 6.10021e-16 
-6.82839 -2.59984 5.62011e-16 
-6.5977 -2.59999 4.27301e-16 
-6.37057 -2.59772 2.86651e-16 
-6.14825 -2.59737 1.65648e-16 
-5.92591 -2.6007 6.23097e-17 
-5.7081 -2.59392 -3.02972e-17 
-5.49433 -2.59134 -1.0524e-16 
-5.27521 -2.60262 -2.20748e-16 
-5.05812 -2.59714 -2.8704e-16 
-4.84427 -2.59669 -3.86976e-16 
-4.62854 -2.59822 -5.07616e-16 
-4.41245 -2.59994 -6.55638e-16 
-4.19749 -2.59494 -7.74565e-16 
-3.98098 -2.60015 -1.01284e-15 
-3.75858 -2.6097 -1.40209e-15 
-3.53652 -2.59967 -1.5288e-15 
-3.31696 -2.59941 -1.85968e-15 
-3.09759 -2.59563 -2.11483e-15 
-2.87821 -2.59862 -2.51113e-15 
-2.65726 -2.60034 -2.94592e-15 
-2.43385 -2.60124 -3.27299e-15 
-2.2133 -2.59858 -3.1023e-15 
-1.9893 -2.61441 -3.98175e-15 
-1.76915 -2.57657 -1.89264e-15 
-1.57338 -2.5959 -1.55552e-15 
-1.3838 -2.53972 -3.91922e-16 
-1.22286 -2.64411 -1.81196e-15 
-1.0227 -2.57094 1.82712e-15 
-0.847761 -2.6144 -2.74282e-15 
-0.640673 -2.64176 -7.62367e-15 
-0.42905 -2.6303 -7.78546e-15 
-0.223291 -2.65762 -8.10114e-15 
-0.0742297 -2.52665 4.81344e-16 
0.0261955 -2.70124 -3.50551e-15 
0.312414 -2.67749 7.52385e-15 
0.673661 -2.7152 -1.07578e-14 
0.827007 -2.52298 9.61839e-15 
0.971721 -2.61863 7.08428e-16 
1.16575 -2.57771 -1.30999e-16 
1.34741 -2.58189 1.34123e-16 
1.54307 -2.60712 6.96978e-16 
1.75622 -2.58894 1.44958e-15 
1.95805 -2.59507 2.64628e-15 
2.17281 -2.59718 3.30289e-15 
2.39726 -2.60482 3.23872e-15 
2.62075 -2.60318 2.96046e-15 
2.8485 -2.606 2.74044e-15 
3.07437 -2.60261 2.27515e-15 
3.2907 -2.59372 1.72217e-15 
3.51085 -2.60096 1.59894e-15 
3.73325 -2.60022 1.29368e-15 
3.95444 -2.60046 1.05418e-15 
4.17473 -2.59918 8.35446e-16 
4.3935 -2.59791 6.56901e-16 
4.61102 -2.59708 5.14554e-16 
4.82936 -2.599 4.0914e-16 
5.0483 -2.59885 3.04598e-16 
5.2675 -2.59809 2.08878e-16 
5.48654 -2.59712 1.20532e-16 
5.70603 -2.59636 3.28249e-17 
5.9272 -2.59748 -6.19908e-17 
6.15092 -2.59717 -1.66486e-16 
6.37641 -2.59686 -2.85476e-16 
6.60295 -2.59293 -3.95954e-16 
6.82927 -2.59587 -5.35736e-16 
7.06018 -2.59856 -6.86526e-16 
7.29429 -2.59823 -8.31442e-16 
7.5297 -2.60288 -1.06443e-15 
7.76869 -2.59948 -1.21818e-15 
8.00458 -2.59681 -1.22108e-15 
8.23542 -2.59539 -5.06263e-16 
8.48528 -2.61242 1.13319e-08 
-8.48528 -2.35413 -3.95336e-09 
-8.26908 -2.391 -7.77717e-16 
-8.01995 -2.37978 5.01376e-17 
-7.77533 -2.37366 1.4343e-17 
-7.53795 -2.37297 6.71782e-17 
-7.30619 -2.36392 -8.5004e-19 
-7.07288 -2.35774 -3.32644e-17 
-6.84519 -2.36916 -9.48276e-18 
-6.61646 -2.37209 8.35202e-18 
-6.38908 -2.36959 1.03949e-17 
-6.16391 -2.36589 8.86457e-18 
-5.94367 -2.37154 9.81686e-18 
-5.72392 -2.36465 3.00558e-18 
-5.50484 -2.35932 4.33274e-18 
-5.287 -2.37478 -1.05887e-17 
-5.06802 -2.36926 -1.39153e-17 
-4.85003 -2.36668 -1.61722e-17 
-4.63465 -2.36981 -2.4052e-17 
-4.41799 -2.37082 -4.28839e-17 
-4.19787 -2.36943 -3.9501e-17 
-3.97797 -2.37212 -5.10799e-17 
-3.75928 -2.38594 -7.79249e-17 
-3.53692 -2.37414 -7.81521e-17 
-3.31267 -2.3734 -6.65321e-17 
-3.08812 -2.36885 -1.04778e-16 
-2.86588 -2.37179 -1.58452e-16 
-2.64015 -2.37633 -1.92563e-16 
-2.41922 -2.3733 -1.78352e-16 
-2.19472 -2.37664 -1.27405e-16 
-1.97535 -2.38842 -2.90402e-16 
-1.76555 -2.34133 3.84159e-17 
-1.56178 -2.34814 -8.44304e-16 
-1.35714 -2.31748 -9.02118e-16 
-1.15927 -2.40907 -2.31249e-15 
-0.932862 -2.35255 -8.21173e-15 
-0.73816 -2.43758 -6.60132e-16 
-0.524949 -2.44814 -3.33357e-15 
-0.295185 -2.4572 -1.83098e-14 
-0.259169 -2.27267 -6.44889e-15 
0.154932 -2.37667 1.50707e-14 
0.167465 -2.5488 4.99162e-15 
0.536074 -2.59629 1.48031e-14 
0.692215 -2.42413 1.95862e-15 
0.90449 -2.26258 6.32343e-15 
1.03906 -2.36729 7.52155e-16 
1.2152 -2.32306 4.70464e-16 
1.40458 -2.34638 4.40006e-16 
1.60642 -2.38104 4.38935e-16 
1.8218 -2.35708 2.51185e-16 
2.03638 -2.37315 2.57706e-16 
2.25872 -2.37943 2.93043e-16 
2.47917 -2.38115 1.86077e-16 
2.70462 -2.38425 1.53393e-16 
2.92928 -2.38333 1.63824e-16 
3.14608 -2.36787 1.12989e-16 
3.36675 -2.36836 1.06623e-16 
3.58628 -2.37605 8.06133e-17 
3.80695 -2.37392 6.04558e-17 
4.02548 -2.37317 5.39485e-17 
4.24297 -2.37048 4.22134e-17 
4.45901 -2.36833 3.25692e-17 
4.67593 -2.36956 2.55273e-17 
4.89224 -2.3711 1.85849e-17 
5.10914 -2.37081 1.0817e-17 
5.32584 -2.36882 4.73479e-18 
5.54258 -2.36707 7.21353e-19 
5.76077 -2.36672 -4.88993e-18 
5.98045 -2.36787 -1.17537e-17 
6.2019 -2.36691 -1.55467e-17 
6.42427 -2.36493 -1.70374e-17 
6.64746 -2.35978 -6.65642e-18 
6.87218 -2.36526 1.85244e-17 
7.10018 -2.36904 2.85751e-17 
7.33052 -2.36901 -2.05774e-17 
7.56174 -2.37482 -6.02086e-17 
7.79292 -2.36953 -1.91916e-18 
8.02394 -2.36509 4.00797e-18 
8.262 -2.38234 8.05081e-16 
8.48528 -2.36796 4.44501e-09 
-8.48528 -2.12082 -2.60617e-09 
-8.25015 -2.14823 -6.27147e-16 
-8.02594 -2.16326 -1.47604e-17 
-7.7835 -2.15171 -3.68303e-17 
-7.54759 -2.14474 2.89145e-17 
-7.31058 -2.13801 2.51222e-17 
-7.07753 -2.13019 -4.24199e-17 
-6.84541 -2.13717 -3.50179e-17 
-6.6183 -2.14266 -1.0296e-17 
-6.39058 -2.14128 1.77803e-18 
-6.16295 -2.14083 7.20285e-18 
-5.93509 -2.14012 7.91564e-18 
-5.71124 -2.13675 7.57903e-18 
-5.48788 -2.13328 1.18754e-18 
-5.26732 -2.14774 8.76523e-18 
-5.04419 -2.1443 -1.12872e-19 
-4.82286 -2.13975 4.08043e-18 
-4.6022 -2.14407 -1.71629e-18 
-4.37901 -2.14734 -5.02749e-18 
-4.15662 -2.144 -2.93868e-18 
-3.93444 -2.14789 -1.02298e-17 
-3.7145 -2.15987 -2.16553e-17 
-3.48451 -2.15277 -3.37018e-17 
-3.25591 -2.15065 -1.44171e-17 
-3.02917 -2.14263 -2.18519e-17 
-2.80262 -2.15022 -5.50565e-17 
-2.58161 -2.14702 -7.69194e-17 
-2.35781 -2.14937 -5.77012e-17 
-2.13542 -2.15345 -2.11045e-17 
-1.92918 -2.14719 5.5509e-17 
-1.71048 -2.10942 -3.76425e-16 
-1.51682 -2.10575 -1.72827e-16 
-1.31168 -2.09762 -7.82907e-16 
-1.12244 -2.20451 -2.69595e-15 
-1.05833 -2.00856 -3.17938e-15 
-0.88493 -2.15926 -5.65552e-15 
-0.687065 -2.24556 -1.84415e-14 
-0.467927 -2.27288 -1.29125e-14 
-0.0523913 -2.34779 -8.63262e-15 
0.154184 -2.17342 5.43258e-15 
0.342181 -2.27109 7.38894e-15 
0.397315 -2.46583 1.44039e-14 
0.559671 -2.3048 1.43397e-14 
0.752996 -2.1686 1.10019e-14 
0.945171 -2.01936 7.71945e-15 
1.11775 -2.09052 3.47779e-15 
1.30981 -2.08783 3.16361e-16 
1.51081 -2.13373 9.69914e-16 
1.71478 -2.14827 3.33806e-16 
1.94962 -2.14616 3.5099e-16 
2.17256 -2.15833 1.72305e-16 
2.40005 -2.15646 1.25864e-16 
2.62706 -2.16281 6.67553e-17 
2.85589 -2.1638 4.82658e-17 
3.07961 -2.14436 3.15137e-17 
3.30614 -2.14341 4.20111e-17 
3.53263 -2.14874 2.36009e-17 
3.75561 -2.14998 1.61101e-17 
3.98024 -2.14647 4.91831e-18 
4.20129 -2.14378 3.35528e-18 
4.42169 -2.14027 -1.15932e-18 
4.64123 -2.14235 -1.16492e-18 
4.86114 -2.14305 -2.34437e-18 
5.08024 -2.14346 -3.10679e-18 
5.29975 -2.1408 -4.80145e-18 
5.51928 -2.13782 -3.62583e-18 
5.7388 -2.13738 -2.97722e-18 
5.9599 -2.13806 -4.09889e-18 
6.18235 -2.13689 -4.4805e-18 
6.40641 -2.13416 -5.58747e-19 
6.63135 -2.12783 1.76261e-17 
6.85729 -2.13217 4.46273e-17 
7.08358 -2.1385 5.11576e-17 
7.31504 -2.13941 -1.22445e-17 
7.54952 -2.14497 -4.27379e-17 
7.78328 -2.13955 6.62511e-17 
8.01603 -2.136 -3.37647e-17 
8.25334 -2.15208 5.99435e-16 
8.48528 -2.12567 2.44133e-09 
-8.48528 -1.87678 -3.75932e-09 
-8.26942 -1.91716 -5.65874e-16 
-8.04202 -1.92417 -8.2608e-17 
[...]
POINT_DATA 2012 
VECTORS vectors float
0.0134924 -0.0212034 0.999684 
0.00665596 -0.0311494 0.999493 
0.00754742 -0.0251587 0.999655 
0.00874445 -0.0218818 0.999723 
0.00834239 -0.0224161 0.999714 
0.00793566 -0.0206579 0.999756 
0.00828153 -0.0169286 0.999823 
0.0081107 -0.0130462 0.999882 
0.00804277 -0.00946013 0.999923 
0.00842931 -0.00655757 0.999943 
0.00872691 -0.00409313 0.999954 
0.00880201 -0.00181257 0.99996 
0.00912528 0.00029829 0.999959 
0.00964791 0.0023083 0.999951 
0.00921306 0.00425954 0.999949 
0.00906439 0.00633716 0.999939 
0.00948649 0.00842304 0.99992 
0.00934567 0.0107931 0.999898 
0.0091581 0.0136839 0.999865 
0.00916283 0.0172617 0.999809 
0.00905614 0.0216439 0.999725 
0.00831605 0.0272269 0.999595 
0.00819949 0.0346752 0.999365 
0.00845167 0.0437323 0.999008 
0.00826802 0.0553064 0.998436 
0.00801735 0.0698143 0.997528 
0.00746892 0.088372 0.99606 
0.0068762 0.112458 0.993633 
0.00644493 0.142921 0.989714 
0.00542836 0.180993 0.98347 
0.00488442 0.232078 0.972685 
0.00433986 0.285571 0.958348 
0.00273138 0.355638 0.93462 
0.00184009 0.419363 0.907817 
-0.00064352 0.525762 0.850632 
-0.00201574 0.613715 0.789525 
-0.0029047 0.718055 0.695981 
-0.00359039 0.835208 0.549923 
-0.00295513 0.924477 0.381226 
-0.000692585 0.986681 0.162664 
0.000733439 0.985065 -0.172178 
0.00191493 0.897051 -0.441923 
0.00117504 0.708582 -0.705627 
0.00169498 0.591164 -0.806549 
0.00017825 0.502185 -0.864761 
-0.00139598 0.417533 -0.908661 
-0.00301341 0.332458 -0.943114 
-0.00483705 0.270747 -0.962639 
-0.00544221 0.21918 -0.97567 
-0.00597558 0.173617 -0.984795 
-0.00653092 0.136938 -0.990558 
-0.00705078 0.107684 -0.994161 
-0.00746779 0.0846469 -0.996383 
-0.00785416 0.0664752 -0.997758 
-0.00852708 0.0525711 -0.998581 
-0.00872695 0.0419453 -0.999082 
-0.00868506 0.0332739 -0.999409 
-0.00890557 0.0264767 -0.99961 
-0.00903663 0.021104 -0.999737 
-0.0092219 0.0168554 -0.999816 
-0.00938738 0.0134189 -0.999866 
-0.00941385 0.0106231 -0.9999 
-0.00936325 0.00825043 -0.999922 
-0.00938344 0.00615796 -0.999937 
-0.00938251 0.00420455 -0.999947 
-0.00933112 0.00219416 -0.999954 
-0.00915325 0.000140549 -0.999958 
-0.00892128 -0.00194295 -0.999959 
-0.00872617 -0.0041816 -0.999954 
-0.00866909 -0.00670037 -0.99994 
-0.00847669 -0.00969701 -0.999917 
-0.00800128 -0.0132743 -0.99988 
-0.00778117 -0.0172016 -0.999822 
-0.00757589 -0.0206777 -0.999758 
-0.00778207 -0.0223438 -0.999721 
-0.007922 -0.0220985 -0.999725 
-0.00780018 -0.0257595 -0.999638 
-0.00823069 -0.0316747 -0.999465 
-0.0144621 -0.0214464 -0.999666 
0.0139769 -0.00679025 0.99988 
0.0230561 -0.0316882 0.999233 
0.0246376 -0.0263575 0.99935 
0.0256511 -0.0226356 0.999415 
0.0262529 -0.0206633 0.999443 
0.025904 -0.0184619 0.999495 
0.0259533 -0.0156882 0.999541 
0.0265017 -0.0122984 0.999574 
0.0267654 -0.00892547 0.999603 
0.0269565 -0.00602808 0.999619 
0.0270739 -0.00351621 0.999628 
0.0271066 -0.00121673 0.999633 
0.0269674 0.000891529 0.999637 
0.0269615 0.00287557 0.999633 
0.0272845 0.00492359 0.999616 
0.027052 0.00702439 0.99961 
0.0270078 0.0093114 0.999593 
0.026945 0.0119954 0.999566 
0.0268387 0.0152703 0.999524 
0.0265157 0.0192961 0.999463 
0.0263221 0.0243547 0.999358 
0.0261294 0.0308609 0.999183 
0.0254333 0.0391667 0.99891 
0.0248706 0.0496251 0.998459 
0.0240487 0.0628771 0.997732 
0.0232677 0.0799156 0.996531 
0.0224022 0.101813 0.994552 
0.0213141 0.130164 0.991264 
0.0200608 0.166059 0.985913 
0.0185479 0.211804 0.977137 
0.0172275 0.268874 0.963022 
0.0152284 0.334272 0.942354 
0.0162715 0.407595 0.913018 
0.0106059 0.482136 0.876033 
0.0127633 0.582604 0.812656 
0.00862216 0.677999 0.735012 
0.00489366 0.791617 0.610997 
0.00396834 0.897884 0.440214 
0.00177127 0.970063 0.242846 
0.00248251 0.99669 0.0812453 
0.000341142 0.999702 -0.0243699 
-0.000402492 0.945623 -0.325262 
0.000171797 0.776396 -0.630245 
-0.0153632 0.694065 -0.719748 
-0.00880311 0.616897 -0.786995 
-0.013512 0.513954 -0.857712 
-0.0140536 0.432362 -0.901591 
-0.0143488 0.354026 -0.935126 
-0.0167011 0.280376 -0.959746 
-0.0183169 0.222147 -0.974842 
-0.0197467 0.173908 -0.984565 
-0.021099 0.136062 -0.990476 
-0.0222366 0.106313 -0.994085 
-0.0232683 0.0827891 -0.996296 
-0.0241168 0.0646962 -0.997614 
-0.024685 0.0511044 -0.998389 
-0.0253989 0.0401461 -0.998872 
-0.0258983 0.0315816 -0.999166 
-0.0263099 0.024903 -0.999344 
-0.0265746 0.0196762 -0.999454 
-0.0267798 0.0155606 -0.999521 
-0.0269235 0.0122402 -0.999563 
-0.0270681 0.00948634 -0.999589 
-0.027119 0.00713549 -0.999607 
-0.0271226 0.00501604 -0.99962 
-0.0271164 0.00297382 -0.999629 
-0.0270962 0.000923413 -0.999633 
-0.0270889 -0.00119476 -0.999633 
-0.027019 -0.00349789 -0.99963 
-0.0268705 -0.00608745 -0.999621 
-0.0265906 -0.00909092 -0.999606 
-0.0263836 -0.0124238 -0.999575 
-0.0261867 -0.015761 -0.999534 
-0.0261028 -0.0185562 -0.999488 
-0.0263507 -0.0208053 -0.999437 
-0.0259368 -0.022911 -0.999402 
-0.0244179 -0.0265785 -0.999349 
-0.0222527 -0.0317345 -0.999249 
-0.0142516 -0.00731498 -0.999872 
0.00887603 -0.00763583 0.999932 
0.0176854 -0.0335888 0.99928 
0.0196326 -0.0280095 0.999415 
0.0206885 -0.0237023 0.999505 
0.0209663 -0.0198529 0.999584 
0.0211075 -0.0176121 0.999623 
0.0214932 -0.0155976 0.999649 
0.022161 -0.0127401 0.999674 
0.0224788 -0.00949884 0.999703 
0.0226961 -0.00651132 0.999722 
0.0228527 -0.0038485 0.999732 
0.0230469 -0.00146865 0.999734 
0.0228996 0.000681403 0.999738 
0.022807 0.00273561 0.999737 
0.0233025 0.0047227 0.999718 
0.023145 0.00681557 0.99971 
0.0229562 0.00920654 0.999695 
0.0229511 0.0119444 0.999666 
0.0229197 0.0152562 0.999622 
0.0226011 0.01941 0.999557 
0.0224024 0.0245487 0.999448 
0.0223883 0.0310147 0.999269 
0.0217785 0.0393797 0.998988 
0.0212604 0.0501559 0.998516 
0.020865 0.0639775 0.997734 
0.0205791 0.0813432 0.996474 
0.0202934 0.103944 0.994377 
0.0200472 0.132795 0.990942 
0.0200476 0.170483 0.985157 
0.020269 0.216522 0.976068 
0.0215996 0.271884 0.962088 
0.0225645 0.334897 0.941985 
0.0257827 0.414509 0.909681 
0.022782 0.507281 0.86148 
0.0278108 0.622216 0.782352 
0.0216993 0.732445 0.68048 
0.0175973 0.849717 0.526945 
0.0120233 0.94726 0.32024 
0.0202134 0.958145 0.285566 
-0.0081256 0.98576 -0.167959 
-0.00395932 0.983118 -0.182925 
-0.00600589 0.848341 -0.529415 
-0.0216712 0.768071 -0.639997 
-0.0342004 0.643833 -0.764402 
-0.025452 0.575624 -0.817319 
-0.0276761 0.482369 -0.875532 
-0.02396 0.400825 -0.915842 
-0.0214562 0.326001 -0.945127 
-0.0209368 0.256159 -0.966409 
-0.0202596 0.202505 -0.979072 
-0.020134 0.158573 -0.987143 
-0.020199 0.12466 -0.991995 
-0.0204689 0.0973129 -0.995044 
-0.0208667 0.0760633 -0.996885 
-0.021014 0.0600034 -0.997978 
-0.0214592 0.04719 -0.998656 
-0.0219438 0.0372683 -0.999065 
-0.0222393 0.0294384 -0.99932 
-0.0225305 0.0233064 -0.999475 
-0.0227194 0.0184582 -0.999572 
-0.0228681 0.0146013 -0.999633 
-0.0230319 0.0114216 -0.99967 
-0.0231166 0.0087614 -0.999695 
-0.0231281 0.00646108 -0.999712 
-0.023104 0.0043729 -0.999724 
-0.0230685 0.00235548 -0.999732 
-0.0230176 0.000321047 -0.999736 
-0.0229607 -0.00182096 -0.999735 
-0.0228301 -0.00420946 -0.999731 
-0.022606 -0.00692189 -0.999721 
-0.0222227 -0.00998788 -0.999704 
-0.0219634 -0.0131692 -0.999673 
-0.0216497 -0.0159062 -0.99964 
-0.0213507 -0.017894 -0.999613 
-0.0212474 -0.0203309 -0.999568 
-0.020364 -0.0239634 -0.999506 
-0.0190347 -0.0282946 -0.999419 
-0.0172512 -0.0334738 -0.999291 
-0.00924274 -0.00747761 -0.99993 
0.00666878 -0.00849602 0.999942 
0.0134535 -0.0346066 0.999311 
0.0153475 -0.0289799 0.999464 
0.0161185 -0.0241096 0.999581 
0.0164072 -0.0194366 0.999677 
0.0168876 -0.0170903 0.999712 
0.017298 -0.0155872 0.999729 
0.0178782 -0.012999 0.999756 
0.0183851 -0.00985277 0.999783 
0.018683 -0.00676501 0.999803 
0.0188388 -0.00397393 0.999815 
0.0189095 -0.00151314 0.999821 
0.0189233 0.000660245 0.999821 
0.0188745 0.00273035 0.999819 
0.018995 0.00484359 0.999808 
0.0191028 0.00705636 0.999793 
0.0189285 0.00952876 0.999776 
0.0190134 0.0124515 0.999742 
0.0189981 0.0160088 0.999692 
0.0187468 0.0204089 0.999617 
0.0186423 0.0258591 0.999493 
0.0186305 0.0326374 0.999294 
0.0182937 0.0416587 0.998965 
0.0180167 0.0533313 0.998415 
0.0178847 0.0679315 0.99753 
0.0181693 0.0867132 0.996068 
0.0186026 0.11032 0.993723 
0.0194536 0.141092 0.989806 
0.0208923 0.180385 0.983375 
0.022976 0.226142 0.973824 
0.0268848 0.282363 0.958931 
0.0306958 0.345529 0.937907 
0.0366913 0.426468 0.903759 
0.0352811 0.519511 0.853735 
0.0496735 0.531554 0.845567 
0.0433367 0.641441 0.765948 
0.0367975 0.7572 0.652145 
0.0303639 0.871468 0.489512 
0.00438839 0.997876 0.0649871 
-0.0144405 0.986252 -0.164613 
-0.0229625 0.934167 -0.356094 
-0.0132173 0.908665 -0.417315 
-0.0283656 0.834331 -0.550534 
-0.0432801 0.72641 -0.685898 
-0.0528788 0.604206 -0.795072 
-0.042389 0.523814 -0.850778 
-0.0372037 0.426214 -0.903858 
-0.0303482 0.349019 -0.936625 
-0.0258295 0.281336 -0.959262 
-0.0227252 0.21781 -0.975727 
-0.0206988 0.172333 -0.984822 
-0.0193221 0.13427 -0.990757 
-0.0185938 0.105016 -0.994298 
-0.0182107 0.0816827 -0.996493 
-0.0179305 0.0640169 -0.997789 
-0.0180379 0.0501294 -0.998581 
-0.0182801 0.0394179 -0.999056 
-0.0185111 0.0311464 -0.999344 
-0.0186458 0.0245488 -0.999526 
-0.0187916 0.0193888 -0.999636 
-0.0188675 0.0152623 -0.999706 
-0.0190139 0.0119032 -0.999749 
-0.0190459 0.00907945 -0.999778 
-0.0190642 0.00668005 -0.999797 
-0.0190228 0.00453344 -0.99981 
-0.0189669 0.00247754 -0.999818 
-0.0189319 0.000424005 -0.999821 
-0.0188563 -0.00173949 -0.999821 
-0.0187227 -0.00415872 -0.999817 
-0.0184813 -0.00694927 -0.999806 
-0.0180782 -0.010104 -0.999786 
-0.0177713 -0.0132753 -0.999755 
-0.0173958 -0.015703 -0.999726 
-0.0168288 -0.0170751 -0.999713 
-0.0164188 -0.0193203 -0.99968 
-0.0157665 -0.0240493 -0.999587 
-0.0150165 -0.0286318 -0.999478 
-0.0136126 -0.0344163 -0.999316 
-0.00692008 -0.00876103 -0.999938 
0.00649826 -0.00836889 0.999944 
0.0109693 -0.0353677 0.999315 
0.0117855 -0.0297236 0.999489 
0.0122979 -0.0244664 0.999626 
0.0123446 -0.0191755 0.999741 
0.0130705 -0.017069 0.99977 
0.0136479 -0.016161 0.999777 
0.0143897 -0.01401 0.999799 
0.0149438 -0.0108687 0.99983 
0.0153163 -0.00767696 0.999854 
0.0155548 -0.0047564 0.999868 
0.0157617 -0.00221703 0.999874 
0.0158524 -2.37069e-05 0.999875 
0.0158912 0.00201836 0.999873 
0.0160548 0.00411519 0.999863 
0.0160905 0.0062659 0.999851 
0.0160663 0.00859684 0.999835 
0.0161041 0.0114033 0.999806 
0.0160777 0.0146931 0.999764 
0.015933 0.0186641 0.9997 
0.0157717 0.023666 0.999596 
0.0156745 0.0297342 0.999436 
0.0156675 0.0372027 0.999186 
0.0155626 0.0471366 0.998768 
0.0155764 0.0596831 0.998097 
0.0159725 0.0758873 0.996989 
0.0167387 0.0954056 0.995299 
0.0180639 0.120222 0.992584 
0.0200905 0.151502 0.988254 
0.0231276 0.189861 0.981539 
0.0272421 0.235843 0.97141 
0.033943 0.287522 0.957173 
0.0404174 0.353429 0.934589 
0.0494327 0.438333 0.897453 
0.0662725 0.519389 0.851964 
0.0626857 0.631272 0.773024 
0.0556173 0.755754 0.652489 
0.0479678 0.868032 0.494185 
0.0338202 0.955282 0.293752 
0.00752129 0.998118 0.0608491 
-0.0425928 0.92409 -0.379794 
-0.044727 0.843045 -0.53598 
-0.0634795 0.733018 -0.677241 
-0.072212 0.608297 -0.790418 
-0.0782128 0.513277 -0.854652 
-0.0581287 0.487066 -0.87143 
-0.0484191 0.412436 -0.909699 
-0.0382836 0.336041 -0.94107 
-0.0309839 0.27313 -0.961479 
-0.0255192 0.21859 -0.975484 
-0.0216883 0.170886 -0.985053 
-0.0191542 0.135875 -0.990542 
-0.0174457 0.106327 -0.994179 
-0.0164105 0.0836411 -0.996362 
-0.0157464 0.0655738 -0.997724 
-0.0155306 0.0516748 -0.998544 
-0.015549 0.0407061 -0.999051 
-0.0156311 0.0321153 -0.999363 
-0.0157626 0.0253478 -0.999555 
-0.015849 0.019958 -0.999676 
-0.0159562 0.0157343 -0.99975 
-0.016047 0.0122458 -0.999797 
-0.0160931 0.00933741 -0.999828 
-0.0160813 0.00685595 -0.999848 
-0.0160304 0.00468368 -0.999861 
-0.0159518 0.00261901 -0.99987 
-0.0158645 0.00054941 -0.999875 
-0.0157712 -0.00160547 -0.999875 
-0.0155929 -0.00404954 -0.999871 
-0.0153018 -0.00691133 -0.99986 
-0.0148966 -0.0101433 -0.999838 
-0.0144863 -0.0134275 -0.999806 
-0.0139535 -0.0158689 -0.999778 
-0.0132645 -0.0168031 -0.999772 
-0.0124663 -0.0184174 -0.999753 
-0.0118986 -0.0233997 -0.999656 
-0.0117645 -0.0289172 -0.999513 
-0.0114168 -0.0348884 -0.999327 
-0.00662031 -0.00882372 -0.999939 
0.00629865 -0.0090223 0.99994 
0.00963562 -0.0349094 0.999345 
0.00994883 -0.0290281 0.99953 
0.0103182 -0.0234401 0.999673 
0.0109083 -0.0185287 0.99977 
0.0119818 -0.0170943 0.999783 
0.0128672 -0.0164891 0.999782 
0.0135851 -0.0142009 0.999808 
0.0141307 -0.0109654 0.999841 
0.0145271 -0.00771182 0.999866 
0.0148598 -0.00476391 0.999879 
0.0151485 -0.00222026 0.999884 
0.0153842 -3.18136e-05 0.999882 
0.0155299 0.00201235 0.999878 
0.0155936 0.00402908 0.999871 
0.0156758 0.00612604 0.99986 
0.0157519 0.00848192 0.99984 
0.0157017 0.0111912 0.999815 
0.0156212 0.0144575 0.999774 
0.0155056 0.018357 0.999712 
0.0153504 0.0231157 0.999616 
0.0152058 0.0290705 0.999462 
0.0150939 0.0362566 0.999229 
0.0150881 0.0451973 0.998865 
0.015319 0.0568712 0.998265 
0.0158748 0.0716606 0.997304 
0.0169333 0.0903492 0.995767 
0.0185231 0.112861 0.993439 
0.0210677 0.141831 0.989667 
0.0248415 0.177315 0.983841 
0.0301789 0.220617 0.974894 
0.0381184 0.267362 0.962843 
0.0478252 0.331488 0.942247 
0.0580017 0.406244 0.911923 
0.0797828 0.494861 0.865303 
0.0851229 0.627924 0.773606 
0.0789934 0.750012 0.65669 
0.0710175 0.871368 0.485462 
0.052083 0.95821 0.281281 
0.011222 0.99785 0.0645498 
-0.0275223 0.980414 -0.195007 
-0.0734983 0.827208 -0.557068 
-0.0944608 0.684658 -0.722718 
-0.104958 0.588531 -0.801633 
-0.0898029 0.46048 -0.883117 
-0.0659566 0.4145 -0.907657 
-0.0512033 0.351542 -0.934771 
-0.04045 0.288124 -0.956739 
-0.0318089 0.233027 -0.971951 
-0.0258122 0.186666 -0.982085 
-0.0216948 0.147176 -0.988873 
-0.0188848 0.117349 -0.992912 
-0.0171125 0.0924294 -0.995573 
-0.0160208 0.0735861 -0.997161 
-0.0154015 0.0578181 -0.998209 
-0.0151502 0.0458385 -0.998835 
-0.015089 0.0364923 -0.999221 
-0.0151443 0.0289851 -0.999466 
-0.015286 0.0229463 -0.99962 
-0.01543 0.0181061 -0.999718 
-0.0155747 0.0142287 -0.999778 
-0.0156599 0.0110251 -0.999817 
-0.0156864 0.00829513 -0.999843 
-0.0156595 0.00595436 -0.99986 
-0.0155878 0.00386662 -0.999872 
-0.0154725 0.00183592 -0.999879 
-0.0153215 -0.000224736 -0.999883 
-0.0151141 -0.00242085 -0.999884 
-0.0148342 -0.00500029 -0.999878 
-0.0144669 -0.00801018 -0.999864 
-0.0140374 -0.0113398 -0.999838 
-0.0135321 -0.0145365 -0.999804 
-0.0128758 -0.0166068 -0.99978 
-0.0119694 -0.0171581 -0.999782 
-0.0109438 -0.0187012 -0.999766 
-0.0101755 -0.0236244 -0.99967 
-0.00993342 -0.0294804 -0.999517 
-0.00993891 -0.0352252 -0.99933 
-0.00624554 -0.00861524 -0.999944 
0.00533267 -0.00935896 0.999942 
0.00856482 -0.0342661 0.999377 
0.00917015 -0.0286554 0.999548 
0.00985447 -0.0234036 0.999678 
0.0107911 -0.0187398 0.999767 
0.0118272 -0.017482 0.999778 
0.0126526 -0.0171176 0.999774 
0.0132359 -0.0150302 0.9998 
0.0137075 -0.0117603 0.999838 
0.0140748 -0.00838036 0.999867 
0.0144005 -0.00533657 0.999883 
0.0147136 -0.00271694 0.999889 
0.0149228 -0.000486658 0.999889 
0.0150801 0.00157696 0.999886 
0.0152621 0.00363403 0.999878 
0.0153319 0.00569083 0.999867 
0.0153225 0.00797989 0.999851 
0.0153073 0.0106678 0.999827 
0.0152841 0.0137829 0.999789 
0.0151677 0.0175051 0.999732 
0.0150401 0.0220337 0.999645 
0.0149433 0.0274743 0.999512 
0.0148869 0.0342058 0.999305 
0.0149825 0.0423439 0.998992 
0.0152225 0.0523692 0.998513 
0.015765 0.0656315 0.99772 
0.0167401 0.081782 0.99651 
0.0184027 0.102508 0.994563 
0.0209802 0.127494 0.991618 
0.0247848 0.158773 0.987005 
0.0304279 0.197528 0.979826 
0.0401321 0.251016 0.967152 
0.0544149 0.318832 0.946249 
0.0686723 0.396289 0.915555 
0.085208 0.420119 0.903461 
0.100975 0.529173 0.842485 
0.112955 0.649833 0.751637 
0.107775 0.773143 0.625007 
0.104069 0.882076 0.459467 
-0.00377734 0.999524 -0.0305672 
-0.0757736 0.910468 -0.406578 
-0.110892 0.776497 -0.620286 
-0.139241 0.670035 -0.729153 
-0.120221 0.526678 -0.841521 
-0.101572 0.425342 -0.899316 
-0.0701389 0.369639 -0.926525 
-0.0540298 0.313797 -0.947953 
-0.0413133 0.256867 -0.965564 
-0.0325429 0.209421 -0.977285 
-0.0264968 0.169753 -0.985131 
-0.022286 0.136318 -0.990415 
-0.0194311 0.110906 -0.993642 
-0.0175299 0.0890702 -0.995872 
-0.0163008 0.0715489 -0.997305 
-0.0154595 0.0569907 -0.998256 
-0.0150781 0.0453596 -0.998858 
-0.0149236 0.036279 -0.999231 
-0.0149154 0.0290363 -0.999468 
-0.014995 0.0230864 -0.999622 
-0.0150758 0.0182515 -0.999721 
-0.0152052 0.0143351 -0.999782 
-0.0152874 0.0110873 -0.999822 
-0.0153326 0.00831871 -0.999849 
-0.0153112 0.00593707 -0.999866 
-0.0152231 0.00383313 -0.999878 
-0.0150969 0.00179516 -0.999885 
-0.0149158 -0.000287532 -0.999889 
-0.0146992 -0.00250366 -0.99989 
-0.0144453 -0.00508534 -0.999883 
-0.0141046 -0.00814158 -0.999868 
-0.0137153 -0.0114919 -0.999841 
-0.0132317 -0.0148166 -0.999803 
-0.0126587 -0.0169807 -0.999776 
-0.0118841 -0.0175139 -0.999777 
-0.0108672 -0.0186564 -0.999768 
-0.00991517 -0.0229014 -0.999689 
-0.00911183 -0.0285082 -0.999553 
-0.00869808 -0.0345959 -0.999364 
-0.00530968 -0.00894413 -0.999946 
0.0043157 -0.00910412 0.999949 
0.00733392 -0.0343681 0.999383 
0.00810365 -0.0286206 0.999558 
0.00897043 -0.0232468 0.99969 
0.00983173 -0.0187457 0.999777 
0.0107336 -0.01782 0.999784 
0.0112409 -0.0173402 0.999787 
0.0117266 -0.015035 0.999819 
0.0120632 -0.0116674 0.99986 
0.012269 -0.00820434 0.999892 
0.0125603 -0.00509495 0.999909 
0.0128315 -0.00253994 0.999915 
0.0129135 -0.000348143 0.999917 
0.013117 0.00179101 0.999913 
0.0132937 0.00380944 0.999905 
0.0132756 0.00589936 0.999895 
0.0132823 0.00834224 0.999878 
0.0133295 0.0111581 0.99985 
0.0133402 0.0143869 0.999808 
0.0132253 0.0182919 0.999746 
0.0131141 0.0230211 0.99965 
0.0131387 0.0287643 0.999501 
0.0131542 0.0357055 0.999277 
0.0133988 0.0440742 0.998939 
0.0139664 0.0550408 0.998387 
0.0146593 0.0686296 0.997535 
0.0159832 0.0858847 0.996178 
0.0180885 0.10757 0.994034 
0.0214853 0.133582 0.990806 
0.0265374 0.166759 0.985641 
0.0341493 0.208351 0.977459 
0.0467267 0.264543 0.963242 
0.0651947 0.331702 0.94113 
0.085454 0.37783 0.921924 
0.11017 0.419433 0.901077 
0.113292 0.479455 0.870223 
0.137927 0.589724 0.79574 
0.151945 0.723274 0.673637 
0.164751 0.829828 0.533144 
0.0692608 0.969907 0.233409 
-0.072432 0.961226 -0.266076 
-0.143127 0.829779 -0.539426 
-0.174601 0.646613 -0.742567 
-0.147979 0.522962 -0.839413 
-0.113796 0.415552 -0.902424 
-0.0782694 0.359339 -0.92992 
-0.055396 0.288977 -0.955733 
-0.0426557 0.243774 -0.968894 
-0.0326921 0.197264 -0.979806 
-0.0261962 0.161137 -0.986585 
-0.0214116 0.130322 -0.991241 
-0.0184633 0.106094 -0.994186 
-0.0162417 0.0855398 -0.996204 
-0.014999 0.0692424 -0.997487 
-0.0140304 0.055611 -0.998355 
-0.0136311 0.0448232 -0.998903 
-0.0133601 0.035976 -0.999264 
-0.0132732 0.0289633 -0.999493 
-0.0132538 0.0231378 -0.999645 
-0.0131881 0.0183193 -0.999746 
-0.0132921 0.0144233 -0.999808 
-0.0133382 0.0111721 -0.999849 
-0.0133835 0.00836647 -0.999876 
-0.0133469 0.00594542 -0.999894 
-0.0132508 0.00381251 -0.999906 
-0.0131258 0.00176633 -0.999913 
-0.0129552 -0.000322078 -0.999917 
-0.0127847 -0.00253544 -0.999916 
-0.0125855 -0.00512539 -0.999908 
-0.0123304 -0.0081913 -0.999891 
-0.0120234 -0.0116376 -0.999861 
-0.0116804 -0.0150338 -0.99982 
-0.0112131 -0.0173606 -0.999787 
-0.0106724 -0.0178707 -0.999784 
-0.0098526 -0.0188141 -0.999775 
-0.00891844 -0.0232126 -0.999692 
-0.00806845 -0.0288247 -0.999553 
-0.00742019 -0.0345309 -0.999377 
-0.00437471 -0.00926848 -0.999948 
0.00336775 -0.00941388 0.99995 
0.00584207 -0.0346449 0.999383 
0.00651837 -0.0291322 0.999555 
0.00730948 -0.0236479 0.999694 
0.00797308 -0.0191639 0.999785 
0.0086185 -0.0181851 0.999798 
0.00897499 -0.0177798 0.999802 
0.00923935 -0.0153101 0.999841 
0.00941971 -0.0118301 0.999886 