# vtk DataFile Version 3.0 
Exported using Morpho https://github.com/Morpho-lang/morpho 
ASCII 
DATASET UNSTRUCTURED_GRID 

POINTS 2012 float 
-8.48525 -2.82832 -2.04048e-07 
-8.24093 -2.82837 -1.12538e-06 
-8.00368 -2.82833 -7.37477e-07 
-7.78168 -2.82837 -7.90154e-07 
-7.55991 -2.82834 -3.17099e-07 
-7.32876 -2.82835 -1.7757e-07 
-7.1057 -2.82835 -2.54436e-07 
-6.88395 -2.82835 -2.69805e-07 
-6.65528 -2.82834 -2.31521e-07 
-6.43017 -2.82835 -1.55622e-07 
-6.20962 -2.82835 -9.00074e-08 
-5.99138 -2.82835 -4.65709e-08 
-5.77274 -2.82834 3.49481e-09 
-5.56238 -2.82835 3.43233e-08 
-5.35517 -2.82837 7.03249e-08 
-5.13492 -2.82835 1.17687e-07 
-4.92469 -2.82835 1.6519e-07 
-4.71407 -2.82836 2.23212e-07 
-4.50152 -2.82835 2.87708e-07 
-4.2878 -2.82836 3.59296e-07 
-4.07699 -2.82836 4.47525e-07 
-3.86202 -2.82837 5.69293e-07 
-3.63623 -2.82836 7.03624e-07 
-3.42183 -2.82838 8.32611e-07 
-3.20686 -2.82838 9.84468e-07 
-2.99482 -2.82837 1.1491e-06 
-2.78065 -2.8284 1.30208e-06 
-2.5639 -2.8284 1.32964e-06 
-2.34696 -2.8284 1.30458e-06 
-2.13482 -2.82843 8.75423e-07 
-1.90834 -2.82841 7.32886e-07 
-1.71635 -2.82839 1.78948e-07 
-1.51321 -2.82839 -1.67821e-07 
-1.3596 -2.82843 -2.1311e-06 
-1.13019 -2.82834 2.58507e-06 
-0.964157 -2.82829 4.1578e-06 
-0.774009 -2.82814 1.15135e-05 
-0.560724 -2.82799 2.33274e-05 
-0.363812 -2.82799 2.33676e-05 
-0.142343 -2.82769 2.14763e-06 
0.16734 -2.8276 -1.39005e-05 
0.434432 -2.82771 -5.14392e-05 
0.801173 -2.82797 -1.09287e-05 
1.01343 -2.82834 -3.018e-06 
1.18511 -2.82837 -1.64936e-06 
1.36863 -2.82837 -8.35139e-07 
1.58192 -2.82837 9.40703e-07 
1.77243 -2.82846 1.94523e-07 
1.96224 -2.82843 -9.62973e-07 
2.17229 -2.82839 -1.3043e-06 
2.38564 -2.82842 -1.38847e-06 
2.60204 -2.82839 -1.33013e-06 
2.81669 -2.82839 -1.28124e-06 
3.03451 -2.82837 -1.15937e-06 
3.24926 -2.82839 -9.59269e-07 
3.45703 -2.82837 -7.9619e-07 
3.67192 -2.82836 -6.61404e-07 
3.88505 -2.82836 -5.41387e-07 
4.09848 -2.82836 -4.36955e-07 
4.31086 -2.82836 -3.46169e-07 
4.52188 -2.82836 -2.7615e-07 
4.73184 -2.82835 -2.15682e-07 
4.94345 -2.82836 -1.61132e-07 
5.15519 -2.82835 -1.13258e-07 
5.36685 -2.82835 -6.50986e-08 
5.57866 -2.82836 -3.19863e-08 
5.79137 -2.82835 -1.99695e-10 
6.00736 -2.82835 4.58393e-08 
6.22548 -2.82835 9.9743e-08 
6.44578 -2.82835 1.68011e-07 
6.66462 -2.82835 2.23839e-07 
6.88849 -2.82835 2.59344e-07 
7.11761 -2.82834 2.44175e-07 
7.34673 -2.82834 2.00056e-07 
7.58226 -2.82834 3.70745e-07 
7.81494 -2.82835 8.21416e-07 
8.04467 -2.82833 7.54245e-07 
8.26483 -2.82838 1.10705e-06 
8.48523 -2.82836 1.32147e-07 
-8.48519 -2.6075 1.24595e-06 
-8.23744 -2.61047 6.78492e-17 
-7.98981 -2.60472 -8.77436e-17 
-7.74534 -2.5895 -3.75767e-17 
-7.51264 -2.59987 -7.24664e-17 
-7.28368 -2.59106 -9.94838e-17 
-7.05828 -2.59192 -1.07175e-16 
-6.82855 -2.59976 -5.57771e-17 
-6.59863 -2.60036 -1.91832e-17 
-6.37166 -2.59759 -7.32442e-18 
-6.14792 -2.59727 -4.50443e-18 
-5.92476 -2.60011 1.21612e-18 
-5.70589 -2.59207 1.08278e-17 
-5.49369 -2.59106 1.6489e-17 
-5.27611 -2.60472 2.41247e-17 
-5.05836 -2.5965 2.93078e-17 
-4.84406 -2.59669 3.04598e-17 
-4.62886 -2.59832 3.75971e-17 
-4.41196 -2.59962 3.83806e-17 
-4.19633 -2.5961 5.33369e-17 
-3.97966 -2.60007 5.88607e-17 
-3.75682 -2.60971 6.28453e-17 
-3.53373 -2.59808 6.12912e-17 
-3.31676 -2.59913 8.67329e-17 
-3.10027 -2.59494 1.22959e-16 
-2.88148 -2.59849 1.48344e-16 
-2.66162 -2.59973 1.10499e-16 
-2.43875 -2.60255 7.79197e-17 
-2.21809 -2.59745 -6.88266e-18 
-1.99474 -2.61437 -1.86855e-16 
-1.77593 -2.58077 -2.40531e-16 
-1.57367 -2.59836 1.03596e-16 
-1.38568 -2.53619 -1.06993e-15 
-1.22459 -2.64393 -8.01657e-16 
-1.02369 -2.56954 1.92509e-15 
-0.847563 -2.61561 7.14313e-16 
-0.640725 -2.63739 1.45666e-15 
-0.426619 -2.63034 4.17997e-15 
-0.221981 -2.6557 1.04734e-15 
-0.070001 -2.5302 -4.87612e-16 
0.0281049 -2.70232 -5.29945e-16 
0.31327 -2.67248 -2.44459e-15 
0.677754 -2.71335 -1.87682e-14 
0.823936 -2.51899 9.01787e-15 
0.968049 -2.62265 -3.06028e-15 
1.16824 -2.56888 2.3474e-16 
1.34229 -2.58128 -2.80843e-16 
1.53436 -2.60806 -1.96861e-16 
1.74665 -2.57853 1.61577e-16 
1.95949 -2.59935 -1.41849e-17 
2.17964 -2.60365 -1.60768e-16 
2.40104 -2.60434 -1.27507e-16 
2.62361 -2.60218 -1.29093e-16 
2.84995 -2.60619 -1.33328e-16 
3.07416 -2.60236 -1.15713e-16 
3.28981 -2.59313 -1.15739e-16 
3.51025 -2.60134 -8.59392e-17 
3.73273 -2.60024 -6.98456e-17 
3.95397 -2.60038 -5.8431e-17 
4.17443 -2.59918 -5.05528e-17 
4.39359 -2.59792 -4.48415e-17 
4.61118 -2.59706 -3.85428e-17 
4.82949 -2.59893 -3.24511e-17 
5.04824 -2.5988 -2.81647e-17 
5.26746 -2.598 -2.4457e-17 
5.48661 -2.59697 -1.67005e-17 
5.70613 -2.59634 -8.44049e-18 
5.92738 -2.59748 -2.87086e-18 
6.15116 -2.59708 3.4126e-18 
6.37648 -2.59675 1.043e-17 
6.60295 -2.59287 2.73735e-17 
6.82954 -2.59573 5.84535e-17 
7.06059 -2.5989 9.10035e-17 
7.29484 -2.59783 9.51389e-17 
7.52987 -2.6021 8.09331e-17 
7.76816 -2.59967 2.59846e-17 
8.00463 -2.59594 5.86375e-17 
8.23758 -2.58925 -1.67229e-17 
8.48518 -2.61231 -1.19187e-06 
-8.48522 -2.3534 8.36303e-07 
-8.26794 -2.39063 9.90317e-17 
-8.02421 -2.3868 1.18254e-17 
-7.77904 -2.37446 -3.00225e-17 
-7.53261 -2.36885 3.22965e-18 
-7.30137 -2.36082 -3.16912e-17 
-7.07119 -2.35721 -5.25582e-17 
-6.84545 -2.36958 -3.11237e-17 
-6.61758 -2.37263 -6.82189e-18 
-6.38997 -2.37029 -9.73846e-19 
-6.16317 -2.36732 2.19451e-18 
-5.94138 -2.37121 7.71153e-18 
-5.72139 -2.36398 4.02406e-18 
-5.49968 -2.35546 3.2351e-18 
-5.28721 -2.37534 -4.03514e-19 
-5.07184 -2.37079 -2.83689e-18 
-4.85132 -2.36695 -2.5335e-18 
-4.63533 -2.36971 -4.64926e-18 
-4.41787 -2.373 -1.55313e-17 
-4.19827 -2.3674 -1.42625e-17 
-3.98072 -2.37196 -1.00923e-17 
-3.76242 -2.38627 -1.34214e-17 
-3.53914 -2.37609 -8.56122e-19 
-3.31232 -2.36922 -2.43849e-17 
-3.08788 -2.36847 -3.17046e-17 
-2.86636 -2.37113 -6.50018e-17 
-2.64034 -2.3761 -5.47774e-17 
-2.41961 -2.37497 -3.14914e-17 
-2.19392 -2.37539 -1.32746e-17 
-1.97454 -2.38746 -7.75756e-17 
-1.76029 -2.34586 -1.20841e-16 
-1.56506 -2.35109 -5.98918e-16 
-1.35644 -2.31308 -8.31874e-16 
-1.16324 -2.4101 -1.92326e-15 
-0.933103 -2.35264 -1.2164e-15 
-0.743247 -2.43046 -1.74633e-14 
-0.525073 -2.44992 8.08651e-15 
-0.296673 -2.45559 -1.34803e-14 
-0.247969 -2.27232 -2.71251e-15 
0.15692 -2.37451 1.43883e-14 
0.171725 -2.54459 -2.84403e-15 
0.535631 -2.6076 4.24296e-15 
0.688062 -2.41616 -4.74402e-15 
0.905127 -2.26448 6.43525e-15 
1.03598 -2.3784 7.72868e-16 
1.21667 -2.30983 7.26766e-16 
1.40239 -2.3465 3.1622e-16 
1.60062 -2.37565 1.54449e-16 
1.82362 -2.35794 2.38267e-16 
2.03863 -2.38006 1.79009e-16 
2.25834 -2.38022 1.59836e-16 
2.47896 -2.38076 3.66542e-17 
2.70556 -2.38297 2.24064e-17 
2.92876 -2.38269 6.03021e-17 
3.14554 -2.36727 4.65861e-17 
3.36692 -2.36849 3.28814e-17 
3.58616 -2.37639 2.28326e-17 
3.80697 -2.37386 1.58176e-17 
4.02541 -2.37317 1.67896e-17 
4.24295 -2.37065 1.34853e-17 
4.4589 -2.3681 9.75092e-18 
4.67596 -2.3696 7.85868e-18 
4.89227 -2.37094 5.16718e-18 
5.10895 -2.37077 7.95398e-19 
5.32537 -2.36871 -1.81613e-18 
5.54208 -2.36693 -1.89606e-18 
5.76034 -2.36674 -3.90317e-18 
5.98014 -2.3679 -7.23108e-18 
6.20178 -2.36686 -6.12037e-18 
6.42423 -2.36478 -2.52299e-18 
6.64751 -2.35975 8.93156e-18 
6.87256 -2.36517 4.0704e-17 
7.101 -2.36927 6.05345e-17 
7.33181 -2.36871 1.16477e-17 
7.5635 -2.3743 -1.17858e-17 
7.79499 -2.37055 5.82137e-17 
8.02809 -2.36531 2.46596e-17 
8.26789 -2.3731 -1.38424e-16 
8.48522 -2.36861 -8.65133e-07 
-8.48515 -2.12123 7.66094e-07 
-8.25139 -2.14859 3.92995e-17 
-8.02661 -2.16435 3.90791e-17 
-7.78402 -2.15862 -5.95317e-17 
-7.5506 -2.14082 5.41722e-17 
-7.31174 -2.13728 2.59921e-17 
-7.07621 -2.12811 -3.50867e-17 
-6.84564 -2.13738 -3.24492e-17 
-6.61808 -2.14362 -7.59524e-18 
-6.39031 -2.14206 1.27625e-18 
-6.16416 -2.14091 5.78455e-18 
-5.93803 -2.14118 6.23759e-18 
-5.71381 -2.13859 3.33197e-18 
-5.49069 -2.13197 1.67645e-18 
-5.2649 -2.1429 6.58585e-18 
-5.0418 -2.14713 8.39989e-19 
-4.82186 -2.13928 3.9564e-18 
-4.60154 -2.14404 -2.09063e-18 
-4.38029 -2.14795 -1.98491e-18 
-4.15758 -2.14171 -4.98676e-18 
-3.93562 -2.14799 -1.11332e-17 
-3.71574 -2.16071 -2.20447e-17 
-3.48581 -2.15502 -2.42879e-17 
-3.25431 -2.14841 -1.78267e-17 
-3.02829 -2.14247 -1.83104e-17 
-2.80177 -2.15003 -6.40287e-17 
-2.58052 -2.14726 -8.99321e-17 
-2.35631 -2.15101 -7.66187e-17 
-2.13305 -2.15076 -2.82112e-17 
-1.92332 -2.15078 -1.24711e-16 
-1.70998 -2.10563 -1.33618e-16 
-1.51746 -2.11231 -3.02547e-16 
-1.30613 -2.09914 -9.43052e-16 
-1.11217 -2.20708 -2.64956e-15 
-1.06331 -2.00961 -2.34711e-15 
-0.874726 -2.15171 -1.21901e-14 
-0.682198 -2.24443 7.16993e-15 
-0.466071 -2.26886 -2.71388e-14 
-0.0550361 -2.35351 -5.50294e-15 
0.141871 -2.17398 1.6083e-14 
0.336433 -2.26484 7.21856e-15 
0.401788 -2.45963 8.89722e-15 
0.556668 -2.31348 1.85382e-14 
0.75089 -2.16379 9.61272e-15 
0.945301 -2.01327 3.8547e-15 
1.1071 -2.10178 1.62218e-15 
1.31441 -2.0833 2.10646e-15 
1.51279 -2.12969 8.07629e-16 
1.71934 -2.15025 3.48441e-16 
1.95516 -2.14789 3.24873e-16 
2.17278 -2.1587 1.88868e-16 
2.39929 -2.15686 8.88933e-17 
2.62695 -2.16437 5.55274e-17 
2.8583 -2.16177 2.7927e-17 
3.08084 -2.14295 3.23398e-17 
3.30701 -2.14363 3.1665e-17 
3.53359 -2.14913 1.99211e-17 
3.75667 -2.15029 1.64893e-17 
3.98149 -2.14626 4.61219e-18 
4.2022 -2.14377 4.93096e-18 
4.42244 -2.13982 -5.51971e-19 
4.64183 -2.14249 -2.20848e-19 
4.86184 -2.14297 -1.62623e-18 
5.08106 -2.14351 -2.45595e-18 
5.30042 -2.14073 -4.92423e-18 
5.51991 -2.13769 -3.89382e-18 
5.73947 -2.13737 -2.85259e-18 
5.96085 -2.13815 -4.47702e-18 
6.18359 -2.13693 -5.77933e-18 
6.4076 -2.13389 -3.2814e-18 
6.6322 -2.12758 1.17693e-17 
6.85774 -2.13193 3.71433e-17 
7.08395 -2.13829 4.31155e-17 
7.31445 -2.13913 -1.29258e-17 
7.54701 -2.14449 -5.84476e-17 
7.77703 -2.13893 4.67471e-17 
8.0056 -2.14006 -1.35149e-17 
8.24768 -2.15154 -6.94005e-17 
8.48521 -2.12529 -7.7287e-07 
-8.48521 -1.87698 3.92647e-07 
-8.26646 -1.91478 3.37059e-17 
-8.04178 -1.9235 -3.44817e-17 
[...]
POINT_DATA 2012 
VECTORS vectors float
0.0308997 -0.0411838 0.998692 
0.0339791 -0.0310701 0.998981 
0.0346459 -0.0251154 0.999123 
0.0362999 -0.0217919 0.999123 
0.0365765 -0.0224951 0.999106 
0.0357317 -0.0207661 0.999173 
0.0353669 -0.016963 0.99926 
0.0354722 -0.0130307 0.999315 
0.0357366 -0.00944907 0.999346 
0.0359473 -0.00656417 0.999361 
0.036074 -0.00409848 0.999369 
0.0361683 -0.00181904 0.999372 
0.0362314 0.000276219 0.999371 
0.0362804 0.00230959 0.999367 
0.0362794 0.00427918 0.999359 
0.0362496 0.00633085 0.99935 
0.0361813 0.00841101 0.999337 
0.0360716 0.0107908 0.999318 
0.0358619 0.0136723 0.999291 
0.0355681 0.0172423 0.999246 
0.0352123 0.0216386 0.999173 
0.0347167 0.0272118 0.999055 
0.0341162 0.0346205 0.998846 
0.0333881 0.0436685 0.998517 
0.0324303 0.0552485 0.997975 
0.0312542 0.0697565 0.997104 
0.0297075 0.0883008 0.995681 
0.0276825 0.112376 0.99331 
0.0252335 0.142823 0.989457 
0.0221746 0.180912 0.98328 
0.0183825 0.232 0.972572 
0.0143073 0.285449 0.958316 
0.00865111 0.355487 0.934667 
0.0048602 0.419339 0.907838 
-0.00120689 0.525624 0.850735 
-0.00574265 0.613675 0.789549 
-0.00959989 0.717889 0.696087 
-0.0114725 0.83519 0.549822 
-0.00936375 0.924439 0.381176 
-0.00316001 0.986622 0.162923 
0.0043645 0.985094 -0.171897 
0.0114404 0.897035 -0.441819 
0.00864784 0.708602 -0.705569 
0.00493139 0.591015 -0.806662 
0.000225491 0.502031 -0.86487 
-0.00515648 0.41737 -0.908746 
-0.0104594 0.33221 -0.943175 
-0.0152414 0.270613 -0.962586 
-0.0190518 0.219056 -0.975556 
-0.0227951 0.173435 -0.984612 
-0.02569 0.13682 -0.990293 
-0.0279679 0.107586 -0.993832 
-0.0298693 0.0845486 -0.996001 
-0.0314933 0.0664025 -0.997325 
-0.032682 0.052518 -0.998114 
-0.0335236 0.0418903 -0.998588 
-0.0342322 0.0332322 -0.998889 
-0.0348142 0.0264497 -0.999071 
-0.0352604 0.0210856 -0.999183 
-0.0356122 0.0168463 -0.999251 
-0.0358724 0.0134097 -0.999294 
-0.036069 0.0106136 -0.99932 
-0.0361833 0.00824592 -0.999338 
-0.0362564 0.00615924 -0.99935 
-0.0362744 0.00420897 -0.99936 
-0.0362507 0.00219155 -0.999368 
-0.036227 0.000129963 -0.999371 
-0.0361807 -0.00195066 -0.999372 
-0.0360997 -0.00417934 -0.999368 
-0.0359412 -0.0066896 -0.999361 
-0.0357144 -0.00969875 -0.999344 
-0.0354636 -0.0132934 -0.999313 
-0.0353477 -0.0172549 -0.999256 
-0.0356523 -0.0207791 -0.999178 
-0.0365288 -0.0224152 -0.99911 
-0.0361712 -0.0219737 -0.999133 
-0.0345066 -0.0256412 -0.999119 
-0.0338913 -0.0316318 -0.998953 
-0.0308428 -0.0412025 -0.998692 
0.0203053 -0.0442725 0.998839 
0.0242509 -0.0325015 0.999247 
0.0256853 -0.0263532 0.999401 
0.0266607 -0.0226235 0.999468 
0.0273095 -0.0206997 0.999474 
0.0268599 -0.0185052 0.99955 
0.0268507 -0.0157342 0.999585 
0.0275205 -0.0123196 0.999615 
0.0277703 -0.00892367 0.999644 
0.027919 -0.00602198 0.999661 
0.028011 -0.0035117 0.999669 
0.0280496 -0.00121159 0.999672 
0.0278151 0.000897418 0.999681 
0.0277539 0.00288088 0.999675 
0.028258 0.00493098 0.999656 
0.0279012 0.00703005 0.999649 
0.0278631 0.00931465 0.999637 
0.0278147 0.0119963 0.999606 
0.0277187 0.0152662 0.999565 
0.0273564 0.019302 0.999505 
0.0272032 0.0243548 0.9994 
0.0271082 0.0308477 0.999223 
0.0262866 0.0391635 0.998955 
0.0257062 0.0496188 0.998494 
0.0248124 0.0628476 0.997786 
0.02402 0.0798975 0.99658 
0.0231419 0.101797 0.994606 
0.0220056 0.13014 0.991321 
0.0206446 0.166008 0.985979 
0.0191556 0.211698 0.977217 
0.0175099 0.268635 0.963152 
0.0154376 0.334361 0.942381 
0.0162945 0.40762 0.913068 
0.0107081 0.482254 0.876004 
0.0126752 0.582713 0.812607 
0.00843142 0.678207 0.734839 
0.00461953 0.791484 0.611152 
0.00370678 0.897933 0.440028 
0.00163977 0.970007 0.242838 
0.00243783 0.996677 0.0807562 
0.000484321 0.999635 -0.0242239 
0.000112907 0.945652 -0.325007 
0.00103922 0.776148 -0.630511 
-0.0154388 0.694013 -0.719797 
-0.00857004 0.617112 -0.786853 
-0.0134889 0.514035 -0.857701 
-0.0141274 0.432547 -0.901555 
-0.0145571 0.354237 -0.935101 
-0.0169661 0.280539 -0.959766 
-0.0187309 0.221916 -0.974955 
-0.0203533 0.173947 -0.984614 
-0.021781 0.136053 -0.990532 
-0.0229707 0.106305 -0.994138 
-0.0240843 0.082789 -0.996345 
-0.0249393 0.0647018 -0.997662 
-0.0254386 0.0511081 -0.998437 
-0.0262651 0.0401381 -0.998916 
-0.0267726 0.0315765 -0.99921 
-0.0271973 0.024897 -0.999387 
-0.0274525 0.0196713 -0.999496 
-0.0276475 0.0155595 -0.999563 
-0.0277828 0.0122403 -0.999605 
-0.0279534 0.00948819 -0.99963 
-0.0280064 0.00713994 -0.999648 
-0.0280058 0.00502238 -0.999661 
-0.0279986 0.00297984 -0.99967 
-0.027985 0.000929018 -0.999675 
-0.0280116 -0.00118853 -0.999675 
-0.0279599 -0.00349297 -0.999671 
-0.0278242 -0.0060838 -0.999663 
-0.0275122 -0.00909516 -0.99965 
-0.0273539 -0.0124485 -0.999618 
-0.027201 -0.015806 -0.999576 
-0.0271252 -0.0185973 -0.99953 
-0.0274812 -0.0208371 -0.999475 
-0.0270526 -0.0229145 -0.999447 
-0.0253947 -0.0265573 -0.999398 
-0.0231996 -0.0325367 -0.999283 
-0.0205504 -0.0441347 -0.99884 
0.013859 -0.0450731 0.998906 
0.0177203 -0.0347649 0.999311 
0.0196239 -0.0279632 0.999487 
0.0206983 -0.0237554 0.999572 
0.0209585 -0.0198192 0.999666 
0.0210803 -0.0176239 0.999692 
0.0215103 -0.0156651 0.999718 
0.0221752 -0.0127776 0.999744 
0.0224699 -0.00950338 0.999773 
0.0227003 -0.00651441 0.999791 
0.0228721 -0.00385049 0.9998 
0.023059 -0.00146311 0.999794 
0.0229073 0.000685572 0.999814 
0.0228268 0.00274288 0.999806 
0.0233322 0.00472861 0.999777 
0.0231689 0.00681889 0.999776 
0.0229697 0.00920985 0.99976 
0.0229654 0.0119472 0.999733 
0.0229517 0.0152612 0.999688 
0.0226047 0.0194041 0.999624 
0.0224108 0.0245468 0.999515 
0.0224081 0.031025 0.999336 
0.0217872 0.0393812 0.999056 
0.0212557 0.0501556 0.998596 
0.0208751 0.0639916 0.9978 
0.0205916 0.0813406 0.996547 
0.0202969 0.103911 0.99445 
0.0200455 0.132774 0.991015 
0.0200435 0.17049 0.985226 
0.0202758 0.216512 0.976139 
0.0216109 0.27203 0.962111 
0.0225928 0.334712 0.942111 
0.0257722 0.41433 0.909817 
0.0228116 0.507382 0.861463 
0.0277749 0.622071 0.782494 
0.0217764 0.732121 0.680835 
0.0174974 0.850019 0.526393 
0.0120001 0.947235 0.320164 
0.0203487 0.957872 0.28627 
-0.0081678 0.985688 -0.168038 
-0.00396288 0.983 -0.183231 
-0.00574533 0.848243 -0.529511 
-0.0217642 0.768161 -0.639856 
-0.0342725 0.643044 -0.765104 
-0.0254307 0.575745 -0.817272 
-0.0276854 0.48243 -0.875542 
-0.0239581 0.400832 -0.915896 
-0.0214626 0.326114 -0.94515 
-0.0209335 0.255979 -0.966523 
-0.0202694 0.2026 -0.97912 
-0.0201412 0.158523 -0.98722 
-0.0202045 0.124679 -0.992062 
-0.0204734 0.0973262 -0.995112 
-0.0208793 0.0760632 -0.996954 
-0.0210233 0.0600012 -0.998047 
-0.0214756 0.047189 -0.998724 
-0.0219551 0.0372704 -0.999133 
-0.0222504 0.029442 -0.999387 
-0.0225461 0.0233078 -0.999542 
-0.0227354 0.0184599 -0.999639 
-0.0228873 0.0146047 -0.999699 
-0.0230536 0.0114256 -0.999737 
-0.0231366 0.00876493 -0.999762 
-0.0231456 0.00646551 -0.999779 
-0.0231226 0.00437821 -0.999791 
-0.023088 0.00235986 -0.999799 
-0.0230345 0.000325739 -0.999804 
-0.0229751 -0.00181479 -0.999804 
-0.0228446 -0.00420524 -0.9998 
-0.0226202 -0.00692178 -0.999791 
-0.0222344 -0.010001 -0.999774 
-0.0219669 -0.013209 -0.999743 
-0.0216441 -0.0159572 -0.99971 
-0.0213453 -0.0179031 -0.999683 
-0.0212569 -0.0203261 -0.999633 
-0.0203525 -0.0240015 -0.999587 
-0.0190329 -0.0283097 -0.999484 
-0.0172346 -0.0345913 -0.999329 
-0.0143911 -0.0453808 -0.998877 
0.0103274 -0.0467914 0.99887 
0.0134721 -0.0356912 0.999337 
0.0153819 -0.0290224 0.999539 
0.0161445 -0.0241914 0.999666 
0.0164071 -0.0193959 0.999755 
0.0169181 -0.0170876 0.999775 
0.0173086 -0.0156435 0.999802 
0.0178857 -0.0130403 0.999828 
0.0184077 -0.00987349 0.999856 
0.0187025 -0.00676838 0.999875 
0.0188463 -0.00396742 0.999888 
0.0189189 -0.00150585 0.999901 
0.018932 0.000667852 0.999884 
0.0188784 0.00273369 0.99989 
0.01898 0.00484658 0.999886 
0.0191096 0.00705846 0.999866 
0.0189233 0.00952985 0.999846 
0.0190181 0.0124514 0.999812 
0.0190065 0.0160095 0.999761 
0.0187526 0.0204103 0.999687 
0.0186517 0.0258583 0.999563 
0.0186427 0.032633 0.999365 
0.0183078 0.0416496 0.999036 
0.0180238 0.0533345 0.998487 
0.0178885 0.0679197 0.997604 
0.0181784 0.0866974 0.996142 
0.0186144 0.110309 0.993796 
0.0194615 0.141105 0.989876 
0.0208975 0.180457 0.983432 
0.0229802 0.226343 0.973845 
0.0268964 0.282454 0.958968 
0.0306904 0.345649 0.937923 
0.0367037 0.426769 0.903668 
0.0352718 0.519542 0.853757 
0.0496933 0.531331 0.845745 
0.0433747 0.641365 0.766029 
0.0368929 0.756814 0.652562 
0.0304305 0.870921 0.490458 
0.00441544 0.997746 0.0658315 
-0.014343 0.986251 -0.164151 
-0.0229688 0.934365 -0.355416 
-0.0132983 0.90818 -0.418263 
-0.0283048 0.834191 -0.550713 
-0.0432589 0.727272 -0.684972 
-0.0528137 0.604429 -0.794921 
-0.042431 0.523495 -0.85102 
-0.0371936 0.426389 -0.903827 
-0.0303627 0.348999 -0.936694 
-0.0258098 0.281327 -0.95933 
-0.0227379 0.217808 -0.975796 
-0.0207122 0.17237 -0.984886 
-0.0193271 0.134215 -0.990836 
-0.0186024 0.105014 -0.994369 
-0.0182151 0.0816557 -0.996567 
-0.0179353 0.0640031 -0.997861 
-0.0180461 0.0501039 -0.998653 
-0.0182885 0.0394084 -0.999128 
-0.018521 0.0311432 -0.999415 
-0.0186518 0.0245503 -0.999596 
-0.0187977 0.0193897 -0.999706 
-0.0188698 0.0152643 -0.999776 
-0.0190188 0.0119063 -0.999819 
-0.0190463 0.00908118 -0.999848 
-0.019065 0.00668278 -0.999867 
-0.0190238 0.00453816 -0.99988 
-0.0189691 0.00248116 -0.999889 
-0.0189376 0.000426934 -0.999892 
-0.0188608 -0.00173572 -0.999893 
-0.0187311 -0.00415554 -0.999888 
-0.0184924 -0.00695162 -0.999878 
-0.0180872 -0.0101263 -0.999859 
-0.0177836 -0.0133318 -0.999827 
-0.0174073 -0.0157702 -0.999798 
-0.0168325 -0.0170612 -0.999786 
-0.0164215 -0.0192647 -0.999765 
-0.0157794 -0.0241538 -0.999658 
-0.0150521 -0.0286111 -0.99956 
-0.0136445 -0.0354609 -0.999338 
-0.0106496 -0.0469814 -0.998858 
0.00997996 -0.0475182 0.998834 
0.0109873 -0.0366239 0.999327 
0.0117518 -0.029732 0.999573 
0.0122718 -0.0245198 0.999694 
0.0122464 -0.0190786 0.999817 
0.0129968 -0.0170407 0.999838 
0.0135674 -0.0162358 0.999853 
0.0143269 -0.0140801 0.999858 
0.0148836 -0.0108971 0.999898 
0.0152557 -0.00768363 0.999922 
0.0154914 -0.00475084 0.999936 
0.0156994 -0.00220773 0.999941 
0.0157858 -1.92987e-05 0.999941 
0.0158231 0.00201945 0.999948 
0.015993 0.00411829 0.999919 
0.0160188 0.00626994 0.999919 
0.0160034 0.00859955 0.999906 
0.0160439 0.0114087 0.999871 
0.0160172 0.0146969 0.999831 
0.0158702 0.0186665 0.999762 
0.0157087 0.0236746 0.999664 
0.0156109 0.0297428 0.999499 
0.0156099 0.0372061 0.999255 
0.0155039 0.0471315 0.998836 
0.015512 0.0596942 0.998162 
0.0159118 0.0759131 0.997059 
0.0166812 0.0954596 0.99536 
0.0180117 0.120251 0.992652 
0.0200406 0.15145 0.988331 
0.023096 0.189921 0.981596 
0.027198 0.235752 0.97149 
0.0339241 0.287402 0.957283 
0.040378 0.353684 0.934554 
0.0494936 0.438336 0.89749 
0.0663024 0.519478 0.851946 
0.0626757 0.63116 0.773141 
0.0556452 0.756587 0.6515 
0.0478374 0.868708 0.492921 
0.0337268 0.955541 0.292699 
0.00741775 0.998154 0.0593018 
-0.04258 0.92412 -0.379608 
-0.0446652 0.8431 -0.535831 
-0.063354 0.733371 -0.676848 
-0.0721299 0.609138 -0.789816 
-0.0780269 0.513002 -0.854876 
-0.0581443 0.487141 -0.871426 
-0.0484253 0.41236 -0.90979 
-0.0382793 0.336099 -0.941109 
-0.0309524 0.273176 -0.961531 
-0.0254827 0.218547 -0.975562 
-0.0216439 0.170924 -0.985116 
-0.019106 0.135938 -0.990603 
-0.017392 0.10634 -0.994247 
-0.0163499 0.0836804 -0.996428 
-0.015682 0.0655781 -0.997793 
-0.0154676 0.0517018 -0.998611 
-0.0154861 0.0407199 -0.999118 
-0.0155692 0.032123 -0.99943 
-0.0157018 0.0253471 -0.999622 
-0.0157857 0.0199599 -0.999742 
-0.0158944 0.0157394 -0.999815 
-0.0159825 0.0122508 -0.999862 
-0.0160284 0.00934001 -0.999893 
-0.0160146 0.00685911 -0.999913 
-0.015963 0.0046902 -0.999926 
-0.0158844 0.00262617 -0.999935 
-0.0157979 0.000555729 -0.99994 
-0.0157085 -0.00159607 -0.999941 
-0.0155321 -0.00403985 -0.999938 
-0.015239 -0.00690908 -0.999927 
-0.0148336 -0.0101587 -0.999906 
-0.0144244 -0.0134812 -0.999874 
-0.0138895 -0.0159549 -0.999845 
-0.0131956 -0.0168012 -0.99984 
-0.0123758 -0.0183034 -0.999828 
-0.0118166 -0.0234395 -0.999736 
-0.0117435 -0.0289722 -0.999585 
-0.0114532 -0.0358375 -0.999365 
-0.00998947 -0.0476219 -0.998844 
0.00945401 -0.0469759 0.99887 
0.00965897 -0.0359859 0.99937 
0.00993064 -0.0290164 0.999601 
0.010259 -0.0234472 0.99975 
0.0108613 -0.018427 0.999851 
0.0119687 -0.0170952 0.999837 
0.0128744 -0.0165863 0.999845 
0.0135979 -0.0142631 0.999881 
0.0141479 -0.0109855 0.999905 
0.0145443 -0.0077136 0.999929 
0.0148811 -0.00475698 0.999942 
0.0151721 -0.0022105 0.999946 
0.0154174 -2.51125e-05 0.999944 
0.0155622 0.00201847 0.999929 
0.0156169 0.00403632 0.999942 
0.0157094 0.00612695 0.999917 
0.0157881 0.00848134 0.999895 
0.0157332 0.01119 0.999875 
0.0156491 0.0144569 0.999833 
0.015536 0.0183549 0.999776 
0.0153766 0.0231146 0.999675 
0.015229 0.0290731 0.999528 
0.0151062 0.0362573 0.99929 
0.0150927 0.0452001 0.998929 
0.015329 0.0568693 0.998332 
0.0158839 0.0716548 0.997367 
0.0169444 0.090338 0.995838 
0.0185299 0.112865 0.993504 
0.0210782 0.141859 0.989732 
0.0248371 0.17734 0.983906 
0.030217 0.22089 0.974895 
0.0382156 0.26748 0.962874 
0.0477511 0.331505 0.942295 
0.0580239 0.405745 0.912209 
0.0797346 0.494798 0.865386 
0.0851405 0.62814 0.773447 
0.0788739 0.749766 0.656969 
0.0708833 0.871458 0.485228 
0.0523003 0.958002 0.281638 
0.0112363 0.997675 0.0656318 
-0.0277499 0.980044 -0.196319 
-0.0734795 0.827833 -0.556087 
-0.0946379 0.684023 -0.723296 
-0.104897 0.588719 -0.801519 
-0.0897744 0.460826 -0.882997 
-0.0659798 0.414275 -0.90782 
-0.0512201 0.351546 -0.934819 
-0.0404711 0.288175 -0.956787 
-0.031807 0.23302 -0.97202 
-0.0258066 0.186576 -0.982167 
-0.0216862 0.147133 -0.98896 
-0.0188767 0.117346 -0.99297 
-0.0171175 0.0924435 -0.995639 
-0.0160183 0.0735661 -0.997236 
-0.0154146 0.057786 -0.998279 
-0.0151633 0.0458367 -0.998899 
-0.0151032 0.0364937 -0.999285 
-0.0151602 0.0289875 -0.999527 
-0.0153022 0.0229348 -0.999684 
-0.0154632 0.0181084 -0.999779 
-0.0156058 0.0142292 -0.999842 
-0.0156921 0.0110269 -0.999876 
-0.0157173 0.00829479 -0.999906 
-0.0156901 0.00595474 -0.999919 
-0.0156186 0.0038711 -0.999935 
-0.015502 0.00184043 -0.99994 
-0.0153508 -0.000219538 -0.999945 
-0.01514 -0.00241046 -0.999946 
-0.0148568 -0.00499353 -0.999941 
-0.0144848 -0.00801731 -0.999928 
-0.0140539 -0.0113663 -0.999902 
-0.0135469 -0.0146102 -0.999867 
-0.0128857 -0.016702 -0.999843 
-0.0119588 -0.0171459 -0.999846 
-0.0109075 -0.0185845 -0.999837 
-0.0101246 -0.0236211 -0.999746 
-0.00991836 -0.0295078 -0.99959 
-0.00997363 -0.0363752 -0.99934 
-0.0094193 -0.0469729 -0.998866 
0.00789812 -0.0467994 0.998891 
0.00859677 -0.0351752 0.99942 
0.00920089 -0.0286703 0.999611 
0.00987634 -0.0234193 0.999753 
0.0108485 -0.0186188 0.999835 
0.0119031 -0.0174806 0.99984 
0.0127422 -0.0172234 0.999827 
0.0133165 -0.0151122 0.999863 
0.0137888 -0.0117916 0.9999 
0.0141583 -0.00838585 0.99993 
0.0144852 -0.00533164 0.999946 
0.0148012 -0.00270921 0.99995 
0.0150118 -0.000482367 0.999951 
0.0151704 0.00158097 0.999947 
0.0153547 0.00363966 0.999938 
0.0154241 0.00569304 0.999928 
0.0154133 0.00798143 0.999911 
0.0153952 0.0106737 0.999887 
0.0153724 0.0137909 0.99985 
0.0152559 0.0175119 0.999793 
0.0151268 0.0220439 0.999706 
0.0150263 0.0274848 0.999573 
0.0149666 0.0342124 0.999367 
0.0150602 0.0423508 0.999054 
0.0152967 0.0523745 0.998576 
0.0158339 0.0656253 0.997786 
0.016806 0.0817757 0.996576 
0.0184576 0.102479 0.994633 
0.0210295 0.127424 0.991695 
0.0248169 0.158665 0.98709 
0.0303928 0.197156 0.979982 
0.0400839 0.250808 0.967262 
0.0545229 0.318873 0.946304 
0.0686601 0.396304 0.915595 
0.0852196 0.420392 0.903388 
0.100935 0.528849 0.842746 
0.113 0.64937 0.752067 
0.107422 0.773473 0.624629 
0.104505 0.880949 0.46139 
-0.00377092 0.999406 -0.0305267 
-0.0763301 0.91009 -0.407158 
-0.110874 0.77525 -0.621802 
-0.139397 0.669074 -0.729993 
-0.119951 0.525835 -0.842123 
-0.101518 0.425149 -0.899465 
-0.0701709 0.369563 -0.926602 
-0.054092 0.313966 -0.947966 
-0.0413461 0.256962 -0.965604 
-0.0325752 0.209479 -0.977338 
-0.0265458 0.169775 -0.985187 
-0.0223477 0.136428 -0.990464 
-0.0194816 0.110907 -0.993708 
-0.0175906 0.0889934 -0.995945 
-0.0163783 0.0715973 -0.99736 
-0.0155295 0.0570132 -0.998327 
-0.0151511 0.0453404 -0.998923 
-0.0150027 0.0362917 -0.999294 
-0.014996 0.0290484 -0.999531 
-0.0150785 0.0230949 -0.999684 
-0.0151635 0.0182549 -0.999783 
-0.0152944 0.0143388 -0.999842 
-0.0153785 0.0110907 -0.999884 
-0.0154232 0.00831918 -0.999908 
-0.015404 0.00593729 -0.999928 
-0.0153137 0.00383785 -0.999936 
-0.015188 0.00180009 -0.999946 
-0.0150054 -0.000283534 -0.999951 
-0.0147855 -0.00249557 -0.999951 
-0.0145313 -0.00508011 -0.999946 
-0.0141896 -0.00814821 -0.999931 
-0.013798 -0.0115198 -0.999904 
-0.0133114 -0.014891 -0.999866 
-0.0127404 -0.0170788 -0.999838 
-0.0119594 -0.0175294 -0.999839 
-0.010917 -0.0185673 -0.999837 
-0.00995905 -0.022875 -0.999754 
-0.00913525 -0.0284915 -0.999634 
-0.00872832 -0.0355741 -0.999394 
-0.00796631 -0.0467309 -0.998894 
0.00639203 -0.046942 0.998896 
0.00736759 -0.0352899 0.999408 
0.00813975 -0.0286231 0.999634 
0.00900904 -0.0232675 0.999769 
0.00989174 -0.0186489 0.999845 
0.0107935 -0.0178368 0.999848 
0.0113053 -0.0174485 0.999858 
0.0117843 -0.0151006 0.999882 
0.0121288 -0.0116999 0.999915 
0.0123267 -0.00821083 0.999964 
0.0126162 -0.00508448 0.999972 
0.0128908 -0.00252934 0.999969 
0.0129671 -0.000343768 0.999988 
0.0131718 0.00179943 0.999975 
0.0133605 0.00381158 0.999956 
0.0133305 0.00589665 0.999958 
0.0133398 0.00834237 0.999939 
0.0133878 0.0111625 0.999911 
0.0133984 0.0143873 0.99987 
0.0132832 0.0182932 0.999808 
0.0131694 0.0230244 0.999713 
0.0131932 0.0287692 0.999564 
0.013207 0.0357082 0.999339 
0.013451 0.0440748 0.999004 
0.0140204 0.0550437 0.998453 
0.0147096 0.0686398 0.997601 
0.0160269 0.085902 0.996244 
0.0181276 0.107596 0.9941 
0.0215266 0.133646 0.990866 
0.0265886 0.166911 0.985684 
0.0341971 0.208505 0.977494 
0.0467147 0.264535 0.963312 
0.0652733 0.331827 0.941153 
0.0854407 0.377761 0.922 
0.110257 0.419771 0.900973 
0.113313 0.479267 0.870369 
0.137908 0.589719 0.795766 
0.151237 0.725169 0.671736 
0.165621 0.830792 0.531267 
0.0685818 0.970289 0.231542 
-0.0717392 0.961855 -0.263499 
-0.142745 0.830745 -0.537925 
-0.174736 0.648101 -0.74124 
-0.148267 0.523872 -0.838829 
-0.11394 0.415926 -0.902289 
-0.0783178 0.359481 -0.929922 
-0.0553456 0.288763 -0.955866 
-0.0426563 0.243797 -0.968958 
-0.032715 0.197268 -0.979871 
-0.0262293 0.161155 -0.98665 
-0.0214394 0.130286 -0.991315 
-0.0185123 0.10609 -0.994255 
-0.016282 0.0855903 -0.996275 
-0.0150489 0.0692554 -0.997543 
-0.0140869 0.0556042 -0.998421 
-0.0136877 0.0448241 -0.998968 
-0.0134149 0.0359643 -0.999328 
-0.013335 0.028979 -0.999547 
-0.0133126 0.0231471 -0.999707 
-0.0132429 0.0183185 -0.999819 
-0.0133505 0.0144251 -0.99987 
-0.0133972 0.0111779 -0.999912 
-0.0134428 0.0083684 -0.999937 
-0.0134068 0.00594648 -0.999955 
-0.013309 0.00381733 -0.999967 
-0.0131844 0.00177114 -0.999975 
-0.0130127 -0.000318461 -0.999978 
-0.0128428 -0.002526 -0.999978 
-0.0126434 -0.00511799 -0.999971 
-0.0123902 -0.00819526 -0.999954 
-0.0120832 -0.0116631 -0.999924 
-0.0117409 -0.0151079 -0.999882 
-0.0112749 -0.0174652 -0.999849 
-0.0107345 -0.0178924 -0.999847 
-0.00991357 -0.0187249 -0.999844 
-0.0089589 -0.023227 -0.999777 
-0.00810135 -0.0288386 -0.999615 
-0.0074477 -0.0355382 -0.999405 
-0.00650859 -0.0469053 -0.998897 
0.00494757 -0.0469677 0.998901 
0.00586201 -0.03562 0.999413 
0.00653954 -0.0291708 0.999627 
0.00732975 -0.0236645 0.999768 
0.0079982 -0.0190668 0.999846 
0.00864825 -0.0182106 0.999869 
0.00900391 -0.0178908 0.999856 
0.00926827 -0.0153896 0.999904 
0.00943764 -0.0118532 0.999959 
0.00963001 -0.00838575 0.999975 
0.00986353 -0.00524085 1 
0.00998844 -0.00262721 1.00002 
0.0101833 -0.000384517 1 