# vtk DataFile Version 3.0 
Exported using Morpho https://github.com/Morpho-lang/morpho 
ASCII 
DATASET UNSTRUCTURED_GRID 

POINTS 2012 float 
-8.48463 -2.82753 -2.52787e-07 
-8.25035 -2.82792 -3.14809e-05 
-8.00063 -2.82771 -2.50174e-05 
-7.76033 -2.82778 -1.89136e-05 
-7.52468 -2.82789 -1.12373e-05 
-7.32687 -2.82785 -9.20716e-06 
-7.12903 -2.82765 -7.4269e-06 
-6.89254 -2.82767 -5.37431e-06 
-6.6636 -2.8276 -2.79896e-06 
-6.43804 -2.82767 -2.27579e-06 
-6.21316 -2.82769 -3.81281e-06 
-5.99142 -2.82762 -2.34856e-06 
-5.77155 -2.82754 2.69974e-07 
-5.56045 -2.82767 1.09528e-06 
-5.34972 -2.82767 2.47078e-06 
-5.14045 -2.82774 3.0579e-06 
-4.92453 -2.82767 4.55683e-06 
-4.71717 -2.82757 5.42358e-06 
-4.50286 -2.82772 6.30223e-06 
-4.2885 -2.82777 7.42732e-06 
-4.07514 -2.82774 9.10593e-06 
-3.86205 -2.82776 1.1011e-05 
-3.63621 -2.8277 1.39717e-05 
-3.42203 -2.82797 1.73327e-05 
-3.20332 -2.82787 2.00261e-05 
-2.99488 -2.82799 2.40373e-05 
-2.78205 -2.8281 3.00109e-05 
-2.56774 -2.82808 3.32155e-05 
-2.34218 -2.82836 3.43965e-05 
-2.1217 -2.82819 3.79814e-05 
-1.89286 -2.82817 3.28769e-05 
-1.70046 -2.82846 7.31328e-06 
-1.49705 -2.82821 1.8694e-05 
-1.32433 -2.82812 -4.66264e-06 
-1.14011 -2.82773 9.22482e-05 
-0.958968 -2.82681 -1.00123e-05 
-0.763464 -2.8259 0.000289087 
-0.569724 -2.82492 0.000334894 
-0.377608 -2.82382 0.000279047 
-0.181073 -2.82038 -0.000174767 
0.142716 -2.81966 -0.000274289 
0.457612 -2.82167 -0.000452902 
0.805877 -2.82437 -7.51455e-05 
1.0287 -2.82706 -9.20165e-06 
1.20064 -2.82746 -1.43638e-05 
1.37816 -2.82839 1.14488e-05 
1.55679 -2.82843 -7.96536e-06 
1.73924 -2.82815 -3.39277e-05 
1.95946 -2.82833 -3.75882e-05 
2.17955 -2.82827 -3.62927e-05 
2.38498 -2.8282 -3.30155e-05 
2.5997 -2.82807 -3.23539e-05 
2.81743 -2.82808 -3.01289e-05 
3.03605 -2.82797 -2.38154e-05 
3.2427 -2.82802 -1.9417e-05 
3.45453 -2.82776 -1.68188e-05 
3.67231 -2.82782 -1.29455e-05 
3.8859 -2.82767 -1.03704e-05 
4.09943 -2.82779 -8.29205e-06 
4.31316 -2.82775 -7.54886e-06 
4.52341 -2.82776 -6.12873e-06 
4.7334 -2.82771 -5.34387e-06 
4.94358 -2.82768 -4.70453e-06 
5.15295 -2.82766 -2.93514e-06 
5.36364 -2.82764 -2.01293e-06 
5.57456 -2.82764 -9.85354e-07 
5.78632 -2.82763 -2.96176e-07 
6.003 -2.82761 1.83228e-06 
6.22233 -2.82766 4.2894e-06 
6.44239 -2.82764 2.71743e-06 
6.6625 -2.82767 2.43272e-06 
6.8865 -2.82777 4.8208e-06 
7.11657 -2.82757 7.95349e-06 
7.34621 -2.8277 1.15023e-05 
7.58325 -2.82763 1.34805e-05 
7.80562 -2.82798 1.72186e-05 
8.0288 -2.82777 2.16378e-05 
8.25663 -2.82807 2.86755e-05 
8.4846 -2.82748 4.54481e-07 
-8.48451 -2.60055 2.54466e-05 
-8.24694 -2.59826 7.5798e-06 
-8.01115 -2.61157 2.20652e-06 
-7.76034 -2.60351 2.67781e-06 
-7.51934 -2.60045 -3.25967e-07 
-7.28168 -2.5575 -2.25734e-06 
-7.05598 -2.6042 8.9633e-07 
-6.82192 -2.59833 1.8596e-07 
-6.59254 -2.59616 -3.92911e-07 
-6.36502 -2.5985 -1.42676e-06 
-6.13928 -2.59806 -9.94758e-07 
-5.91562 -2.59823 -5.47488e-07 
-5.69807 -2.59164 -4.12674e-07 
-5.48401 -2.59449 -3.428e-08 
-5.27147 -2.59336 -7.78161e-08 
-5.05621 -2.60184 -2.83984e-08 
-4.84317 -2.59144 3.48082e-08 
-4.62816 -2.59871 6.54008e-07 
-4.41075 -2.59918 5.32435e-07 
-4.19389 -2.59759 1.34073e-07 
-3.97707 -2.59667 -1.59129e-06 
-3.75466 -2.60913 -7.37941e-07 
-3.53115 -2.5968 1.32063e-06 
-3.31346 -2.60207 -1.37153e-06 
-3.09749 -2.59094 7.78675e-07 
-2.88492 -2.59535 -2.13854e-06 
-2.67007 -2.59625 -5.80219e-07 
-2.44792 -2.60779 2.11748e-06 
-2.22415 -2.6024 3.01966e-06 
-1.99752 -2.61193 2.13936e-07 
-1.78479 -2.57496 1.7299e-05 
-1.58921 -2.59648 1.19214e-06 
-1.40009 -2.56343 -1.54281e-05 
-1.22246 -2.58623 -6.41294e-05 
-1.00919 -2.61547 0.000104373 
-0.807182 -2.60933 -0.000264098 
-0.61142 -2.61243 0.000512225 
-0.414743 -2.61913 -0.000713062 
-0.21814 -2.61477 0.000299111 
-0.0334543 -2.5085 -0.000183503 
-0.00640254 -2.69823 0.000133937 
0.352784 -2.69517 0.000175462 
0.67765 -2.70489 7.16589e-05 
0.818628 -2.51187 2.5638e-05 
0.954767 -2.63102 7.58476e-05 
1.16084 -2.56357 -2.55087e-05 
1.34016 -2.56971 -4.31146e-05 
1.52437 -2.5711 7.00862e-06 
1.74799 -2.61244 4.58803e-06 
1.97211 -2.60929 1.58524e-06 
2.1818 -2.59143 -9.5711e-07 
2.40111 -2.60223 -1.68235e-06 
2.62645 -2.60695 -4.36966e-07 
2.85174 -2.60724 1.54808e-06 
3.06488 -2.59237 5.39014e-07 
3.28264 -2.59844 9.22918e-07 
3.50684 -2.60267 1.22433e-06 
3.72908 -2.59812 5.8623e-07 
3.95114 -2.59863 -5.59825e-07 
4.17338 -2.60068 3.85212e-07 
4.39336 -2.59759 -5.22323e-07 
4.61164 -2.5983 -4.42706e-08 
4.82987 -2.59832 -1.39733e-07 
5.04784 -2.59803 -1.03412e-07 
5.26641 -2.59746 -5.5923e-07 
5.48512 -2.59553 -2.40532e-07 
5.70422 -2.59469 1.10307e-06 
5.92577 -2.59708 1.57872e-06 
6.15076 -2.59711 5.54205e-07 
6.37714 -2.59481 4.03808e-08 
6.60378 -2.59246 6.75495e-07 
6.8311 -2.59532 3.84889e-07 
7.06179 -2.59849 -6.01287e-07 
7.29686 -2.59668 6.02574e-07 
7.53219 -2.60286 1.01076e-06 
7.77025 -2.58838 -8.33449e-07 
8.00871 -2.6012 2.4907e-06 
8.24576 -2.59346 -3.66295e-06 
8.48439 -2.60229 -2.72135e-05 
-8.48479 -2.36356 2.88907e-05 
-8.258 -2.36965 -4.56608e-06 
-8.02349 -2.38127 -6.42976e-06 
-7.79029 -2.38856 6.46642e-08 
-7.54243 -2.3754 -1.72759e-06 
-7.30957 -2.33613 1.00382e-06 
-7.06533 -2.36555 1.31612e-06 
-6.84326 -2.37149 -3.23746e-07 
-6.61255 -2.36739 -4.45922e-07 
-6.38385 -2.3688 -7.73475e-07 
-6.15937 -2.36888 -2.52884e-07 
-5.93607 -2.36976 -9.42579e-07 
-5.71526 -2.36072 -1.3637e-06 
-5.49772 -2.36186 -3.48661e-07 
-5.28435 -2.35995 6.02164e-07 
-5.07246 -2.37235 2.11104e-07 
-4.85823 -2.36262 -4.84184e-07 
-4.64159 -2.36973 -4.43119e-07 
-4.4237 -2.37208 -5.19898e-07 
-4.20464 -2.36996 -1.68251e-07 
-3.98526 -2.36813 1.31299e-06 
-3.76587 -2.38458 8.30485e-08 
-3.54407 -2.3768 -2.44768e-06 
-3.3151 -2.37248 1.1414e-07 
-3.08989 -2.36885 -1.22684e-07 
-2.86647 -2.36229 1.3816e-06 
-2.64341 -2.37238 -1.56561e-06 
-2.42356 -2.38182 7.30853e-07 
-2.19722 -2.38233 -3.04796e-06 
-1.98406 -2.37751 5.0029e-06 
-1.76719 -2.34587 1.48655e-06 
-1.55609 -2.35106 -8.79744e-06 
-1.3623 -2.3111 8.93329e-06 
-1.16325 -2.38576 1.99477e-05 
-0.964376 -2.40021 -8.51273e-05 
-0.764651 -2.39759 0.000636155 
-0.535767 -2.45036 -0.000774223 
-0.267931 -2.41822 0.000228115 
-0.24129 -2.25888 0.00019605 
0.153847 -2.40894 6.35339e-05 
0.193952 -2.59779 -0.000109493 
0.533709 -2.57749 -9.40528e-07 
0.668891 -2.42007 7.99855e-05 
0.857712 -2.25683 -9.96601e-05 
1.01216 -2.36614 -6.69459e-05 
1.19087 -2.33239 6.30166e-05 
1.39307 -2.3155 2.78799e-05 
1.6102 -2.37417 -1.1702e-05 
1.82586 -2.39431 -5.84663e-06 
2.03787 -2.36884 7.77317e-07 
2.26218 -2.36969 -9.48382e-07 
2.48515 -2.38642 -2.68697e-06 
2.71132 -2.3891 2.54623e-07 
2.92531 -2.3694 7.96037e-07 
3.14449 -2.3654 -7.74606e-07 
3.36439 -2.37626 -2.09738e-07 
3.58498 -2.37472 7.29499e-07 
3.80642 -2.37136 1.38233e-06 
4.02703 -2.37335 2.62704e-07 
4.24452 -2.37234 1.95774e-07 
4.46192 -2.36943 -3.71544e-07 
4.67831 -2.37113 3.47804e-07 
4.89448 -2.37095 2.21866e-07 
5.11014 -2.37072 1.17953e-07 
5.32637 -2.36813 -1.75729e-08 
5.54263 -2.36476 6.21767e-07 
5.76041 -2.36493 1.01473e-06 
5.97999 -2.36797 2.05724e-07 
6.20142 -2.36679 5.87744e-07 
6.42324 -2.36216 1.9085e-06 
6.6466 -2.35928 -1.59737e-07 
6.87095 -2.36384 -6.70045e-07 
7.09908 -2.36952 1.76066e-06 
7.32988 -2.36799 -1.73101e-06 
7.56099 -2.37427 -2.03964e-06 
7.79457 -2.36232 1.79793e-06 
8.02446 -2.37189 1.38024e-06 
8.25653 -2.36665 -1.81905e-06 
8.4849 -2.36894 -2.45194e-05 
-8.48438 -2.12874 1.83546e-05 
-8.25437 -2.13676 2.53716e-06 
-8.02513 -2.15141 3.66638e-06 
-7.77917 -2.1722 2.38946e-06 
-7.54757 -2.146 -2.13357e-07 
-7.30159 -2.11895 1.47756e-06 
-7.07737 -2.12772 -2.28601e-06 
-6.84717 -2.14327 -7.53455e-07 
-6.61721 -2.1397 4.83357e-07 
-6.3924 -2.13816 -9.31998e-07 
-6.16718 -2.14018 -9.81218e-08 
-5.94313 -2.14151 -6.19097e-08 
-5.72204 -2.13188 -7.4776e-07 
-5.50577 -2.13047 -2.82555e-07 
-5.27264 -2.14691 6.814e-07 
-5.03908 -2.14088 -2.19832e-07 
-4.81894 -2.13679 -6.41317e-08 
-4.59908 -2.14463 -5.07027e-07 
-4.37835 -2.14595 7.64506e-07 
-4.15755 -2.14284 -2.3763e-07 
-3.93421 -2.14447 -3.44335e-07 
-3.71531 -2.15821 -3.46288e-07 
-3.48343 -2.16039 1.24198e-07 
-3.25425 -2.15113 -1.21194e-07 
-3.03045 -2.14337 1.37658e-07 
-2.80207 -2.14221 3.43539e-07 
-2.5812 -2.14591 1.92332e-06 
-2.35723 -2.1612 5.64061e-06 
-2.139 -2.14982 6.3046e-07 
-1.92289 -2.14398 -7.93153e-06 
-1.69759 -2.12043 7.54394e-06 
-1.51097 -2.0942 1.35267e-05 
-1.29164 -2.10496 3.56179e-06 
-1.10485 -2.16773 -4.17654e-06 
-1.01693 -2.0003 4.16067e-05 
-0.883977 -2.18754 -0.000508192 
-0.728929 -2.18569 0.000645954 
-0.498811 -2.29143 -9.17608e-05 
-0.0385973 -2.31223 0.00017956 
0.154837 -2.19952 -0.000477793 
0.344806 -2.2808 -0.000100767 
0.379054 -2.46134 -6.86235e-05 
0.566423 -2.2921 -9.13285e-05 
0.716858 -2.12665 -0.000178825 
0.953791 -2.04342 -1.14326e-05 
1.10415 -2.10024 -3.24712e-05 
1.30368 -2.09412 -2.89397e-05 
1.53344 -2.13653 -1.26709e-05 
1.74501 -2.16222 -1.76279e-06 
1.95239 -2.14674 -2.92922e-06 
2.17938 -2.14933 -4.94283e-06 
2.41145 -2.16039 -3.74807e-06 
2.63614 -2.17214 4.24611e-07 
2.85753 -2.14587 2.59486e-07 
3.07992 -2.14135 -3.887e-07 
3.30655 -2.14841 1.11041e-06 
3.52991 -2.15065 -1.49306e-06 
3.7564 -2.14705 -2.39754e-07 
3.983 -2.14656 -4.50243e-07 
4.20476 -2.14431 1.08179e-07 
4.42474 -2.14277 -4.64576e-07 
4.64523 -2.14369 7.33405e-07 
4.86407 -2.14424 2.53774e-07 
5.08301 -2.14342 3.62135e-07 
5.30186 -2.14129 -4.99694e-07 
5.52179 -2.1355 -1.68563e-07 
5.74157 -2.13525 5.39751e-07 
5.96309 -2.13777 2.08124e-07 
6.18652 -2.13685 1.35357e-07 
6.41156 -2.1307 6.38226e-07 
6.63685 -2.12745 -3.94366e-07 
6.8649 -2.13011 1.95854e-07 
7.09145 -2.13869 1.0132e-06 
7.32239 -2.13966 1.26569e-06 
7.55667 -2.14555 3.96128e-07 
7.79045 -2.13411 -3.74308e-06 
8.0228 -2.14043 9.88255e-07 
8.25316 -2.13616 -8.37252e-07 
8.48465 -2.14037 -1.84666e-05 
-8.48472 -1.88134 1.29471e-05 
-8.27235 -1.90518 2.92616e-06 
-8.04345 -1.91603 -3.50895e-06 
[...]
POINT_DATA 2012 
VECTORS vectors float
0.0601771 -0.0819523 0.994979 
0.0649232 -0.0634098 0.996164 
0.0690561 -0.0485344 0.996717 
0.0702755 -0.0365681 0.997138 
0.0717951 -0.027857 0.997315 
0.073416 -0.021621 0.997243 
0.0743321 -0.0167946 0.997373 
0.0747087 -0.0117068 0.997408 
0.0748452 -0.00715515 0.99744 
0.0748229 -0.0024623 0.997461 
0.076304 0.00181156 0.997344 
0.0777716 0.00363449 0.997219 
0.0780902 0.00399571 0.997189 
0.0782648 0.00432204 0.997171 
0.0780509 0.00469082 0.997182 
0.0780206 0.0053443 0.997181 
0.0773725 0.00662591 0.997226 
0.0765078 0.00833817 0.997284 
0.0757805 0.0111756 0.997313 
0.0748987 0.0149526 0.997332 
0.0739398 0.0196716 0.997325 
0.0730598 0.0258021 0.99725 
0.071979 0.0334556 0.997104 
0.0705249 0.0422659 0.996876 
0.0686137 0.0538839 0.996454 
0.0664127 0.0672565 0.995795 
0.0635538 0.0843282 0.994684 
0.0590143 0.105791 0.992914 
0.0536116 0.136562 0.98946 
0.046998 0.174027 0.983899 
0.0374742 0.224266 0.974082 
0.0273953 0.278961 0.960167 
0.0170909 0.351831 0.936136 
0.00730549 0.425719 0.905013 
-0.00325551 0.514984 0.857209 
-0.0115239 0.609864 0.792597 
-0.0193333 0.723746 0.689658 
-0.0205271 0.828871 0.558909 
-0.0173423 0.919219 0.393075 
-0.00685978 0.979821 0.199298 
0.00856743 0.988721 -0.148997 
0.02194 0.887736 -0.459739 
0.0189006 0.701623 -0.712443 
0.010289 0.573998 -0.818888 
0.000428168 0.484253 -0.875087 
-0.0100735 0.402444 -0.915481 
-0.0195119 0.330349 -0.943894 
-0.0294827 0.268133 -0.963193 
-0.0403699 0.208483 -0.977458 
-0.0487286 0.162644 -0.985757 
-0.0546202 0.129428 -0.990362 
-0.0597006 0.101756 -0.993289 
-0.0640383 0.0804584 -0.994965 
-0.0670057 0.0638976 -0.99597 
-0.069226 0.051356 -0.996543 
-0.0710545 0.0410032 -0.996892 
-0.0722475 0.0323588 -0.997122 
-0.0730582 0.0251118 -0.997271 
-0.0740105 0.019336 -0.997324 
-0.0750855 0.0144665 -0.997324 
-0.0756574 0.0108935 -0.997321 
-0.076785 0.00829008 -0.99726 
-0.0773929 0.00634959 -0.997224 
-0.0779309 0.00533147 -0.997188 
-0.0782285 0.00468239 -0.99717 
-0.0782307 0.00438492 -0.997174 
-0.0780927 0.00400277 -0.99719 
-0.0777098 0.00355491 -0.997226 
-0.0761566 0.00188847 -0.997357 
-0.0748687 -0.0023264 -0.99746 
-0.0749932 -0.00712049 -0.99743 
-0.0747667 -0.0115562 -0.997407 
-0.0742395 -0.0162488 -0.997384 
-0.0732428 -0.0219724 -0.997351 
-0.0716405 -0.029919 -0.997264 
-0.069877 -0.0388952 -0.996967 
-0.0678508 -0.049983 -0.996849 
-0.064923 -0.0643406 -0.99599 
-0.0604843 -0.0822912 -0.994931 
0.0447429 -0.0851868 0.995631 
0.0483259 -0.0666799 0.997337 
0.0520486 -0.0506434 0.998087 
0.0541034 -0.0385286 0.99852 
0.0560965 -0.0288595 0.998729 
0.0551081 -0.0214894 0.999074 
0.0579988 -0.0156579 0.998902 
0.0583623 -0.0105783 0.99894 
0.0588949 -0.00611746 0.998937 
0.0593253 -0.00201828 0.998923 
0.0603235 0.000905221 0.998852 
0.0613781 0.00267293 0.998777 
0.0611415 0.00367025 0.99878 
0.0615336 0.00433026 0.998643 
0.0613801 0.00514045 0.998852 
0.0616106 0.00643808 0.998623 
0.060275 0.00816835 0.998898 
0.0600321 0.0103881 0.998793 
0.0591702 0.0135162 0.998812 
0.058373 0.0177393 0.998794 
0.0573273 0.0231609 0.99875 
0.0572582 0.0299328 0.998576 
0.0557373 0.0384954 0.998375 
0.0547514 0.0491177 0.997857 
0.0526096 0.062034 0.99747 
0.0507332 0.0780725 0.996229 
0.0481315 0.0982879 0.994684 
0.0450893 0.12454 0.991883 
0.0405571 0.159625 0.987041 
0.035427 0.205191 0.978765 
0.0293509 0.260105 0.96591 
0.0236113 0.32363 0.946495 
0.0200514 0.397726 0.917721 
0.0148623 0.47718 0.879231 
0.00687206 0.587006 0.809835 
0.00402507 0.699509 0.714637 
0.0017316 0.806423 0.591427 
-0.00010078 0.903467 0.427149 
0.00203303 0.970693 0.237999 
0.00382706 0.998448 0.0416537 
0.00228104 0.999256 0.0116141 
0.0085908 0.930473 -0.365096 
0.00934783 0.776756 -0.629354 
-0.0101332 0.695579 -0.718515 
-0.00292629 0.618039 -0.78641 
-0.0125462 0.508959 -0.86108 
-0.0167337 0.424205 -0.905943 
-0.0220071 0.348665 -0.937578 
-0.0284237 0.272081 -0.962496 
-0.0347002 0.211676 -0.977398 
-0.0393161 0.16735 -0.9858 
-0.0440821 0.13067 -0.991129 
-0.0479368 0.101933 -0.994314 
-0.0508663 0.0800835 -0.996165 
-0.0523342 0.0638917 -0.997258 
-0.0544928 0.0507046 -0.9979 
-0.0560678 0.0398176 -0.998307 
-0.0566654 0.0310121 -0.998584 
-0.0576301 0.0238548 -0.99872 
-0.0583621 0.0182605 -0.998792 
-0.0592516 0.0139064 -0.998804 
-0.0599189 0.0107198 -0.998799 
-0.0606582 0.00829986 -0.998773 
-0.0613809 0.00651236 -0.998741 
-0.061666 0.00511883 -0.998735 
-0.0614816 0.00426767 -0.998754 
-0.0612425 0.00374174 -0.998777 
-0.061065 0.00277075 -0.998799 
-0.0602177 0.000808994 -0.998863 
-0.0590183 -0.00227102 -0.998941 
-0.0585037 -0.00622126 -0.998964 
-0.058312 -0.0106726 -0.998942 
-0.057883 -0.0156748 -0.998908 
-0.0568656 -0.021675 -0.998861 
-0.0560763 -0.0292899 -0.998717 
-0.0533965 -0.038978 -0.998645 
-0.0521853 -0.0507624 -0.997961 
-0.0481589 -0.0665433 -0.997461 
-0.0446087 -0.0853153 -0.995629 
0.032421 -0.0896334 0.995598 
0.0370445 -0.0699939 0.997701 
0.0403873 -0.0528539 0.998403 
0.0426439 -0.0414847 0.998953 
0.0433362 -0.0306105 0.999307 
0.0424661 -0.0233614 0.999543 
0.0446859 -0.0164967 0.999575 
0.0459974 -0.0114953 0.999575 
0.0462675 -0.00707384 0.999602 
0.0467075 -0.00324895 0.999589 
0.0475832 -0.00052981 0.999548 
0.0481365 0.00166504 0.999511 
0.0480922 0.00319172 0.999499 
0.0482268 0.00409689 0.999583 
0.0481115 0.0051509 0.999485 
0.0487049 0.00681321 0.999436 
0.0476649 0.00886709 0.999373 
0.0472449 0.0112013 0.999474 
0.0466783 0.0141561 0.999465 
0.0458889 0.018043 0.999447 
0.0453154 0.0232123 0.999368 
0.0452386 0.0300549 0.999195 
0.0439948 0.0388921 0.998947 
0.0431722 0.0499781 0.998599 
0.0419309 0.0635881 0.997668 
0.0400758 0.0805336 0.99674 
0.0385731 0.102647 0.994664 
0.0368837 0.130298 0.991489 
0.0341493 0.166513 0.986144 
0.0318792 0.210802 0.977697 
0.0300399 0.267552 0.96362 
0.028162 0.33477 0.942493 
0.0286409 0.409772 0.91238 
0.0254479 0.504034 0.863738 
0.0228367 0.608736 0.793243 
0.0212776 0.719703 0.693679 
0.0152948 0.842627 0.537842 
0.0131506 0.954706 0.295943 
0.020427 0.961664 0.271427 
-0.00393356 0.985942 -0.163555 
0.001821 0.978232 -0.204714 
-0.00106198 0.85211 -0.522623 
-0.0164298 0.777778 -0.627979 
-0.0318721 0.664647 -0.74663 
-0.0232647 0.584954 -0.810937 
-0.0261907 0.491342 -0.871069 
-0.0281084 0.399184 -0.91709 
-0.0280235 0.317475 -0.948488 
-0.0300949 0.250597 -0.968295 
-0.032197 0.198251 -0.980312 
-0.0348386 0.154332 -0.988098 
-0.0378545 0.121005 -0.992616 
-0.0398078 0.0947264 -0.99539 
-0.0405888 0.0752026 -0.997021 
-0.0421816 0.0596725 -0.998004 
-0.0438255 0.0472458 -0.998598 
-0.0443572 0.0370524 -0.999004 
-0.0446549 0.0288856 -0.999256 
-0.0456196 0.022408 -0.999375 
-0.0460449 0.0173092 -0.999448 
-0.0468465 0.0134936 -0.999469 
-0.0474261 0.0107413 -0.999466 
-0.048292 0.00854293 -0.999447 
-0.0486521 0.0065932 -0.999443 
-0.0485964 0.00497976 -0.999458 
-0.0484688 0.00392581 -0.999475 
-0.0482268 0.00290824 -0.999496 
-0.0480183 0.00126022 -0.999518 
-0.047422 -0.000876421 -0.999554 
-0.0464404 -0.00363138 -0.999603 
-0.045667 -0.00769688 -0.999622 
-0.045512 -0.0121099 -0.999592 
-0.0451561 -0.0170015 -0.999542 
-0.0439374 -0.023971 -0.999458 
-0.0427576 -0.0317251 -0.999292 
-0.0409138 -0.0414265 -0.999027 
-0.0395184 -0.0535444 -0.998503 
-0.036541 -0.0702219 -0.997475 
-0.0330011 -0.0893795 -0.995714 
0.0240327 -0.0906843 0.995962 
0.0272556 -0.0718412 0.997652 
0.0293422 -0.0546598 0.998907 
0.0325425 -0.0421523 0.999299 
0.0333346 -0.0322313 0.999633 
0.0334109 -0.0242014 0.999851 
0.0346501 -0.01701 0.999955 
0.0358347 -0.0118928 0.999978 
0.0360251 -0.00786908 1 
0.0365786 -0.00410449 1 
0.0372511 -0.00146178 0.999973 
0.0377256 0.000817556 0.99995 
0.0377311 0.00269712 0.999939 
0.0376898 0.00390519 0.99993 
0.0387888 0.00543577 0.999779 
0.0379449 0.00767251 0.999998 
0.0374826 0.00998354 0.999892 
0.0369681 0.0123778 0.999887 
0.0368645 0.0153716 0.999855 
0.0357322 0.0195158 0.999829 
0.0352264 0.025107 0.999727 
0.0352622 0.0322529 0.999524 
0.0350033 0.0419462 0.999175 
0.0342813 0.0538679 0.998634 
0.0332732 0.0681936 0.9978 
0.0323619 0.0867699 0.99639 
0.0318578 0.109714 0.994149 
0.0315893 0.139601 0.990402 
0.0306583 0.177243 0.98438 
0.0303313 0.223704 0.974864 
0.0322818 0.283988 0.958931 
0.0352549 0.344879 0.938585 
0.0383042 0.432173 0.901498 
0.0382789 0.522658 0.85203 
0.051381 0.556126 0.82983 
0.0396502 0.639774 0.768052 
0.0404795 0.729428 0.68247 
0.0281657 0.85752 0.513054 
0.00496985 0.998156 0.0483742 
-0.00989154 0.984866 -0.167884 
-0.0192312 0.930538 -0.364357 
-0.00735696 0.91939 -0.392163 
-0.0257709 0.82873 -0.558706 
-0.0441425 0.73718 -0.674092 
-0.0487339 0.59807 -0.800224 
-0.0413806 0.523846 -0.851221 
-0.0379789 0.429173 -0.90295 
-0.0331339 0.339038 -0.940804 
-0.031173 0.271372 -0.962628 
-0.0307934 0.216578 -0.976465 
-0.0309947 0.168572 -0.985894 
-0.031677 0.130966 -0.991571 
-0.0324346 0.102848 -0.994853 
-0.0325845 0.0812314 -0.996842 
-0.0335325 0.0645397 -0.998029 
-0.0344879 0.050955 -0.998782 
-0.0351788 0.0397526 -0.999265 
-0.0351148 0.0307378 -0.999582 
-0.035694 0.0238301 -0.999744 
-0.0360062 0.0185291 -0.99984 
-0.0366471 0.0146383 -0.999872 
-0.0370668 0.0118853 -0.99989 
-0.03789 0.00959652 -0.999881 
-0.0380633 0.00733898 -0.999893 
-0.0385042 0.00525404 -0.999893 
-0.0381427 0.00375735 -0.999915 
-0.037742 0.00253915 -0.999941 
-0.0375237 0.000695791 -0.999959 
-0.0369486 -0.00161474 -0.999986 
-0.036076 -0.00433803 -1.00002 
-0.0354645 -0.00816553 -1.00002 
-0.0349662 -0.0122849 -1.00001 
-0.0348351 -0.0173479 -0.999944 
-0.0346284 -0.0246414 -0.9998 
-0.0332803 -0.0326587 -0.999622 
-0.0309869 -0.0430638 -0.999301 
-0.0297007 -0.0549214 -0.998774 
-0.0272942 -0.0713126 -0.997793 
-0.0245288 -0.0913142 -0.995786 
0.0180689 -0.093326 0.995606 
0.020281 -0.0749845 0.997788 
0.0227628 -0.0573182 0.998814 
0.0254736 -0.0453353 0.999238 
0.0257641 -0.0343464 0.999776 
0.0258878 -0.0265228 1 
0.0259611 -0.0183863 1.00018 
0.0273353 -0.0133589 1.00022 
0.0279421 -0.00942909 1.00024 
0.0282509 -0.0054374 1.00025 
0.0292076 -0.00268515 1.00023 
0.0295228 -0.000218881 1.00022 
0.0295586 0.00183233 1.00021 
0.0296377 0.0032071 1.00029 
0.0307101 0.00491357 1.00006 
0.030654 0.0073203 1.00024 
0.0296445 0.00989974 1.00005 
0.0292939 0.0120968 1.00013 
0.0288223 0.0145602 1.00022 
0.02823 0.0179797 0.999985 
0.0280492 0.0226732 1.0001 
0.0278993 0.0292704 0.999734 
0.0280382 0.0374384 0.999667 
0.0278599 0.0478014 0.999131 
0.0272701 0.0606714 0.998351 
0.0269654 0.0766348 0.997476 
0.0267279 0.0967446 0.995529 
0.0273173 0.121713 0.992987 
0.0282649 0.152366 0.988612 
0.0296769 0.192499 0.981532 
0.0325352 0.242791 0.970195 
0.0378694 0.29333 0.955903 
0.0435508 0.365556 0.930354 
0.0512693 0.449097 0.892498 
0.0666974 0.513979 0.855587 
0.0640976 0.635047 0.770019 
0.0564859 0.760227 0.646928 
0.0410434 0.873948 0.483464 
0.0306003 0.964231 0.260842 
0.00726511 0.998352 0.0443757 
-0.0334892 0.940875 -0.335806 
-0.0423251 0.858194 -0.510875 
-0.0653222 0.749086 -0.658955 
-0.065433 0.624464 -0.778548 
-0.0776108 0.52252 -0.849549 
-0.059955 0.488363 -0.870999 
-0.0495687 0.422383 -0.905602 
-0.0401082 0.34405 -0.938696 
-0.034571 0.273539 -0.961897 
-0.0315068 0.218655 -0.975977 
-0.029287 0.173367 -0.985114 
-0.0279818 0.135597 -0.99106 
-0.027455 0.105916 -0.99468 
-0.0271205 0.0838699 -0.996788 
-0.0272506 0.0662523 -0.998106 
-0.0275747 0.052448 -0.998914 
-0.0274612 0.0412459 -0.999442 
-0.0278644 0.0321384 -0.99976 
-0.0277166 0.0248139 -0.999971 
-0.0285236 0.0193144 -1.00006 
-0.028489 0.0154618 -1.00012 
-0.0293954 0.0127788 -1.00013 
-0.0296528 0.0106097 -1.00014 
-0.0302502 0.00819712 -1.00015 
-0.0304106 0.00559286 -1.00016 
-0.029813 0.0036505 -1.00019 
-0.0297271 0.00239367 -1.0002 
-0.0296298 0.000472136 -1.00021 
-0.0291535 -0.00205013 -1.00023 
-0.0282952 -0.00465816 -1.00025 
-0.0277162 -0.00833956 -1.00026 
-0.027462 -0.012412 -1.00023 
-0.0265921 -0.0175935 -1.00018 
-0.0259331 -0.0246123 -1.00005 
-0.0257771 -0.0321406 -0.999845 
-0.0244197 -0.042989 -0.999481 
-0.0227014 -0.0548518 -0.998948 
-0.0208459 -0.0707797 -0.998092 
-0.0191906 -0.093142 -0.995723 
0.0131306 -0.0948387 0.995763 
0.0149859 -0.0745094 0.997705 
0.0170423 -0.0579238 0.998866 
0.0187748 -0.0454849 0.999498 
0.0187982 -0.0347387 1.00001 
0.0200035 -0.026267 1.00014 
0.0200343 -0.0187573 1.0003 
0.0212065 -0.0138924 1.00035 
0.0217315 -0.00946156 1.00039 
0.0216518 -0.00581968 1.00041 
0.0220843 -0.00338581 1.0004 
0.0226469 -0.000673357 1.00039 
0.0225312 0.00161269 1.00039 
0.02289 0.00311543 1.00027 
0.02358 0.00513174 1.00045 
0.0233287 0.00786133 1.00024 
0.0225211 0.0104413 1.00043 
0.0222191 0.0125619 1.00031 
0.021851 0.0148407 1.00019 
0.0215233 0.0179282 1.00035 
0.0214907 0.0225522 1.00006 
0.0214007 0.0289125 1.00011 
0.0216786 0.0367864 0.999641 
0.0219784 0.046113 0.999356 
0.0218667 0.057884 0.998857 
0.0222472 0.0730739 0.99765 
0.0224787 0.0915782 0.996334 
0.0233894 0.113667 0.993827 
0.0250834 0.140975 0.99039 
0.0281374 0.176033 0.984674 
0.0326892 0.221179 0.975259 
0.0391982 0.26593 0.963966 
0.047628 0.32949 0.943467 
0.0579707 0.401916 0.914491 
0.0784985 0.486482 0.870607 
0.0839225 0.622161 0.778596 
0.0800733 0.748332 0.658279 
0.061968 0.867423 0.492802 
0.0480053 0.955786 0.286912 
0.00526269 0.999335 0.00811974 
-0.0276764 0.975709 -0.212791 
-0.0702526 0.845653 -0.52849 
-0.0922673 0.683337 -0.724277 
-0.097484 0.582474 -0.80726 
-0.0855523 0.44876 -0.889992 
-0.064405 0.408263 -0.911061 
-0.0505811 0.355601 -0.933759 
-0.0413494 0.293078 -0.955841 
-0.034924 0.236302 -0.971838 
-0.0294849 0.188 -0.982305 
-0.0262249 0.14957 -0.989204 
-0.0244933 0.117789 -0.993426 
-0.0231017 0.0935635 -0.996026 
-0.0223636 0.0742917 -0.997558 
-0.0222311 0.058705 -0.998806 
-0.0220626 0.0466051 -0.999342 
-0.0216275 0.0365449 -0.999759 
-0.0216374 0.028465 -0.999924 
-0.0215427 0.0221883 -1.00018 
-0.0215633 0.0176237 -1.00026 
-0.0217498 0.0145393 -1.0004 
-0.0222275 0.0124568 -1.00022 
-0.0226209 0.0103614 -1.00043 
-0.0231126 0.00767007 -1.00025 
-0.023008 0.00476912 -1.00046 
-0.0231616 0.00285966 -1.00037 
-0.0229075 0.00150366 -1.00038 
-0.0224984 -0.000786408 -1.0004 
-0.0221184 -0.00357311 -1.0004 
-0.0215701 -0.00617369 -1.00041 
-0.0211057 -0.00993537 -1.00039 
-0.0208025 -0.0141583 -1.00036 
-0.0201491 -0.0191676 -1.0003 
-0.0199241 -0.0273386 -1.00011 
-0.0190546 -0.0351358 -0.999889 
-0.018027 -0.0457402 -0.999482 
-0.0166434 -0.0585778 -0.998844 
-0.0156087 -0.0764776 -0.997655 
-0.0138319 -0.094732 -0.995528 
0.0095788 -0.0959751 0.995477 
0.0111691 -0.0741569 0.997868 
0.0123438 -0.0584112 0.99903 
0.013762 -0.045901 0.99953 
0.0140749 -0.0361817 0.999822 
0.0151735 -0.0277783 1.00018 
0.0145931 -0.019472 1.00038 
0.0150887 -0.0150239 1.00044 
0.0158563 -0.0105326 1.00048 
0.0164373 -0.00679023 1.0005 
0.0167952 -0.00428731 1.0005 
0.0171894 -0.00128604 1.00049 
0.0172701 0.00105708 1.00049 
0.0173936 0.00250458 1.00048 
0.0179713 0.00487971 1.00046 
0.017506 0.0080114 1.00045 
0.0172122 0.010753 1.00042 
0.0168934 0.0126374 1.0004 
0.0166519 0.0144548 1.00039 
0.0165267 0.0171758 1.00035 
0.0159865 0.021361 1.00028 
0.0161935 0.0271028 1.00015 
0.0168415 0.034508 0.999913 
0.0171142 0.0431531 0.999578 
0.0172265 0.053587 0.999081 
0.0176699 0.0676003 0.99823 
0.0186257 0.0845804 0.996927 
0.0197684 0.105014 0.994963 
0.0218867 0.129464 0.992041 
0.0255957 0.160718 0.987364 
0.0313846 0.200062 0.98008 
0.0405305 0.250284 0.96789 
0.0533995 0.31775 0.94742 
0.0684464 0.394684 0.916818 
0.0907073 0.447381 0.89023 
0.100845 0.556282 0.825158 
0.111706 0.680375 0.724279 
0.10395 0.805746 0.582488 
0.0874217 0.903938 0.417392 
0.00609803 0.99882 0.00934936 
-0.071198 0.920286 -0.382731 
-0.108225 0.78001 -0.615855 
-0.13322 0.662438 -0.737111 
-0.11229 0.528357 -0.841898 
-0.101 0.430777 -0.897306 
-0.0693492 0.367251 -0.928177 
-0.0517635 0.309515 -0.950109 
-0.041658 0.25711 -0.96616 
-0.0331582 0.208395 -0.978168 
-0.0274283 0.170278 -0.985814 
-0.0238045 0.140106 -0.990434 
-0.0217908 0.114892 -0.993825 
-0.0195134 0.0907399 -0.996372 
-0.0182586 0.0732059 -0.997931 
-0.0175131 0.0584735 -0.99871 
-0.0171276 0.0462582 -0.999447 
-0.0167743 0.0365358 -0.999862 
-0.0166801 0.0285592 -1.00021 
-0.0164552 0.0223261 -1.00027 
-0.01632 0.0178183 -1.00035 
-0.0165211 0.0148991 -1.00029 
-0.016728 0.013013 -1.00041 
-0.0171564 0.0111289 -1.00042 
-0.0174663 0.00830812 -1.00054 
-0.0177833 0.00503038 -1.00037 
-0.0177564 0.00265654 -1.00047 
-0.0172591 0.00114873 -1.00049 
-0.0169711 -0.00120902 -1.0005 
-0.0167908 -0.00415225 -1.0005 
-0.0164195 -0.00644993 -1.00049 
-0.0157928 -0.010185 -1.00048 
-0.0152168 -0.0152312 -1.00043 
-0.014625 -0.0194019 -1.00038 
-0.0148487 -0.0267655 -1.00022 
-0.0140602 -0.0359795 -0.999924 
-0.0129391 -0.0456541 -0.999458 
-0.0121767 -0.0586129 -0.999011 
-0.0117904 -0.0745229 -0.99773 
-0.00985413 -0.0952906 -0.995754 
0.00619112 -0.0956016 0.995755 
0.00786089 -0.0754073 0.997806 
0.00870842 -0.0593041 0.998777 
0.00998462 -0.0461604 0.999679 
0.010473 -0.036159 0.999953 
0.0112499 -0.0272517 1.00024 
0.0117352 -0.0200412 1.00039 
0.0127254 -0.0155444 1.00045 
0.0132599 -0.0104779 1.00051 
0.0135401 -0.00708762 1.00053 
0.01397 -0.00466419 1.00053 
0.0141627 -0.00135728 1.00054 
0.0144069 0.000963284 1.00052 
0.01451 0.00258833 1.00052 
0.0146336 0.0054182 1.00041 
0.0140743 0.00900474 1.00058 
0.0138324 0.011729 1.00046 
0.0135567 0.01331 1.00044 
0.0134634 0.0149841 1.00042 
0.0133195 0.0178603 1.00039 
0.0133287 0.0223743 1.0003 
0.0136999 0.0285159 1.00015 
0.0140528 0.0360956 0.999801 
0.0144478 0.0448496 0.99955 
0.014847 0.056215 0.998978 
0.0153745 0.0706813 0.998062 
0.0165679 0.0881896 0.996654 
0.0185091 0.109032 0.994562 
0.0216516 0.134253 0.991413 
0.0267313 0.16724 0.986259 
0.0341684 0.206738 0.978504 
0.0467969 0.267035 0.963236 
0.0647937 0.337602 0.93971 
0.0826602 0.384973 0.919807 
0.104109 0.411689 0.905865 
0.114105 0.485854 0.867008 
0.132483 0.589988 0.79655 
0.149629 0.71434 0.68341 
0.156914 0.822797 0.545254 
0.0868767 0.951308 0.291307 
-0.0836251 0.946384 -0.307959 
-0.144517 0.815424 -0.559522 
-0.169153 0.645139 -0.745125 
-0.14241 0.529879 -0.836365 
-0.114777 0.42449 -0.898671 
-0.0779589 0.359602 -0.930455 
-0.0572852 0.301379 -0.952439 
-0.0440988 0.249002 -0.968292 
-0.0333483 0.19949 -0.979918 
-0.0261328 0.159957 -0.987468 
-0.0219035 0.131216 -0.991797 
-0.0194605 0.108724 -0.994572 
-0.0174143 0.0888665 -0.996566 
-0.0158797 0.0713419 -0.99801 
-0.0149459 0.0575356 -0.998893 
-0.0143842 0.0459283 -0.999516 
-0.0139906 0.0364724 -0.999887 
-0.013771 0.0287106 -1.00015 
-0.0135015 0.0224478 -1.0003 
-0.0133502 0.0179863 -1.00039 
-0.0134454 0.0151884 -1.00042 
-0.0135438 0.0134773 -1.00045 
-0.0139224 0.0117668 -1.00045 
-0.0141928 0.00902238 -1.00049 
-0.0145406 0.00538475 -1.00051 
-0.0145326 0.00247048 -1.00052 
-0.0143461 0.000880318 -1.00052 
-0.0142841 -0.00136609 -1.00053 
-0.0140317 -0.00460048 -1.00052 
-0.01363 -0.00696756 -1.00053 
-0.0130825 -0.0105875 -1.00051 
-0.0127019 -0.0158795 -1.00045 
-0.0120657 -0.0194715 -1.0004 
-0.0112665 -0.0271009 -1.00023 
-0.0106187 -0.0368775 -0.999937 
-0.00964826 -0.0455448 -0.999589 
-0.00861527 -0.0596904 -0.998866 
-0.0081352 -0.0755082 -0.997804 
-0.00615359 -0.0959709 -0.995612 
0.0034617 -0.0970037 0.995408 
0.00504224 -0.0764801 0.997741 
0.0059767 -0.0602134 0.998954 
0.0073956 -0.0469362 0.999433 
0.0083124 -0.0374005 0.999936 
0.00928775 -0.0284364 1.00021 
0.0100041 -0.0209996 1.00039 
0.0107969 -0.0160516 1.00046 
0.0111969 -0.0110895 1.00052 
0.0115073 -0.00788508 1.00055 
0.0119293 -0.00513054 1.00056 
0.012235 -0.00165222 1.00056 
0.0124385 0.000616414 1.00055 
0.012508 0.00244706 1.00054 
0.0122117 0.00595403 1.00063 
0.011921 0.00991058 1.00041 
0.0115857 0.0124207 1.00047 
0.0114459 0.0137766 1.00046 
0.011419 0.0154101 1.00044 
0.0113203 0.0182706 1.0004 
0.0115035 0.0228409 1.00031 