# vtk DataFile Version 3.0 
Exported using Morpho https://github.com/Morpho-lang/morpho 
ASCII 
DATASET UNSTRUCTURED_GRID 

POINTS 1978 float 
-8.48509 -2.82817 -4.10519e-08 
-8.25752 -2.82848 2.69887e-06 
-8.03248 -2.82847 1.67042e-06 
-7.77766 -2.8285 1.93737e-06 
-7.47117 -2.82853 1.38439e-06 
-7.08264 -2.82848 1.15161e-06 
-6.90503 -2.8285 8.86005e-08 
-6.68198 -2.82846 5.57427e-07 
-6.52202 -2.82844 2.92831e-08 
-6.34643 -2.82847 -8.53926e-08 
-6.17372 -2.82844 5.9313e-07 
-5.95548 -2.82851 3.39158e-07 
-5.76762 -2.82851 -7.88331e-08 
-5.55166 -2.8285 -4.19083e-07 
-5.32103 -2.82847 -4.6174e-07 
-5.10183 -2.82849 -5.5002e-07 
-4.87683 -2.82849 -5.30346e-07 
-4.65852 -2.8285 -7.47784e-07 
-4.44799 -2.82846 -7.39627e-07 
-4.2306 -2.82848 -7.74869e-07 
-4.0094 -2.82849 -9.4014e-07 
-3.79068 -2.82847 -1.26045e-06 
-3.56934 -2.82849 -1.52341e-06 
-3.35563 -2.82845 -1.57782e-06 
-3.14655 -2.82847 -2.37924e-06 
-2.92627 -2.82848 -2.88274e-06 
-2.70132 -2.82844 -2.77726e-06 
-2.49222 -2.82849 -3.88023e-06 
-2.27622 -2.82844 -3.25008e-06 
-2.0861 -2.82847 -4.88973e-06 
-1.89869 -2.82845 -3.82704e-06 
-1.68481 -2.82841 -2.7687e-06 
-1.42937 -2.82845 -3.33967e-06 
-1.24792 -2.82849 -1.41319e-06 
-1.09788 -2.82847 2.33126e-06 
-0.923972 -2.82846 -1.57575e-06 
-0.725331 -2.82846 3.24854e-07 
-0.554315 -2.82859 -5.16774e-08 
-0.387037 -2.82868 -9.02183e-06 
-0.0114577 -2.82869 6.83665e-06 
0.275934 -2.8286 -3.58754e-06 
0.4904 -2.82856 1.36947e-05 
0.653431 -2.8285 2.2259e-07 
0.819581 -2.82855 1.75276e-06 
1.11591 -2.82847 -3.67017e-06 
1.32889 -2.82851 -1.1817e-06 
1.50148 -2.82842 4.42005e-06 
1.6852 -2.82848 2.72708e-06 
1.87671 -2.82842 4.00691e-06 
2.0683 -2.82846 4.8218e-06 
2.29929 -2.82845 3.70051e-06 
2.52503 -2.82846 3.83567e-06 
2.74384 -2.82847 3.28216e-06 
2.94191 -2.82846 2.40937e-06 
3.13563 -2.82849 1.5837e-06 
3.36078 -2.82846 1.85787e-06 
3.57861 -2.82847 1.64965e-06 
3.79477 -2.8285 1.14034e-06 
4.00893 -2.82847 9.45803e-07 
4.24085 -2.82848 7.47959e-07 
4.45425 -2.82849 7.23682e-07 
4.66915 -2.82847 7.03898e-07 
4.8948 -2.82849 6.49413e-07 
5.09183 -2.8285 4.93391e-07 
5.30885 -2.82848 3.35255e-07 
5.52378 -2.82849 3.68472e-07 
5.7386 -2.82849 2.15085e-07 
5.9689 -2.82849 -7.70809e-08 
6.18034 -2.82847 -4.42171e-07 
6.4008 -2.82849 -1.69781e-07 
6.6308 -2.82848 -4.50357e-08 
6.8469 -2.82848 -4.67743e-07 
7.06793 -2.82848 -5.378e-07 
7.31079 -2.82848 -8.46388e-07 
7.54842 -2.82849 -1.04693e-06 
7.76448 -2.82847 -1.65286e-06 
8.02755 -2.82849 -2.09346e-06 
8.22069 -2.82845 -2.1222e-06 
8.48511 -2.82817 2.31997e-07 
-8.48534 -2.59048 -1.39507e-06 
-8.26172 -2.58171 -1.59111e-14 
-8.03923 -2.58537 -5.59109e-14 
-7.80205 -2.61653 -4.27298e-14 
-7.54972 -2.65731 -5.95431e-14 
-7.21893 -2.69188 -9.28691e-14 
-6.98038 -2.53574 -1.13404e-14 
-6.77725 -2.61326 9.98723e-15 
-6.57547 -2.52261 4.75383e-15 
-6.39717 -2.54763 9.21681e-15 
-6.14958 -2.61914 1.17207e-14 
-5.93945 -2.58086 1.7364e-14 
-5.71585 -2.60233 1.30334e-14 
-5.47689 -2.61707 5.31673e-15 
-5.24382 -2.60669 4.02522e-15 
-5.01344 -2.61123 -1.32341e-15 
-4.78618 -2.60436 -1.09822e-15 
-4.56704 -2.59539 7.44993e-16 
-4.3509 -2.60037 -6.1553e-16 
-4.1303 -2.60201 1.59828e-15 
-3.90829 -2.5988 7.20332e-15 
-3.68488 -2.60003 8.92866e-15 
-3.46396 -2.59203 1.18476e-14 
-3.24896 -2.58781 1.91736e-14 
-3.03072 -2.60136 1.09631e-14 
-2.80551 -2.60645 8.55615e-15 
-2.58413 -2.59195 3.659e-14 
-2.36658 -2.59903 4.53074e-15 
-2.15907 -2.5746 3.20074e-14 
-1.96647 -2.57438 3.74013e-14 
-1.76604 -2.61258 2.04984e-15 
-1.53409 -2.64471 -3.79195e-14 
-1.31649 -2.59286 7.58189e-14 
-1.14319 -2.58301 8.02717e-15 
-0.9676 -2.63292 -1.57805e-14 
-0.962213 -2.43831 2.06745e-13 
-0.78068 -2.66941 1.14662e-13 
-0.572354 -2.64575 5.95793e-13 
-0.257839 -2.75254 1.36056e-12 
-0.0524548 -2.70833 -2.12983e-13 
0.474716 -2.6947 -5.52359e-13 
0.589445 -2.54103 -7.82031e-13 
0.710866 -2.63642 -2.08964e-14 
0.88163 -2.62062 4.58157e-15 
1.01741 -2.70841 -1.84489e-13 
1.2871 -2.61971 -2.04945e-13 
1.47021 -2.56964 -3.07623e-14 
1.64845 -2.57346 -7.03929e-14 
1.84572 -2.58342 -1.66398e-14 
2.087 -2.62301 -2.15472e-14 
2.32468 -2.61675 -1.51797e-14 
2.55554 -2.60941 -6.92989e-15 
2.76426 -2.58344 -1.72149e-14 
2.96455 -2.57792 -4.1386e-14 
3.18774 -2.60955 -4.35069e-15 
3.41069 -2.6004 -1.67033e-14 
3.63132 -2.59843 -9.03958e-15 
3.84934 -2.59415 -8.09027e-15 
4.0792 -2.61238 1.94903e-16 
4.29983 -2.5942 -2.05745e-15 
4.51621 -2.59704 4.54333e-16 
4.73902 -2.60868 5.77911e-15 
4.9455 -2.57885 -1.5211e-15 
5.15783 -2.60137 -5.56268e-16 
5.37453 -2.59975 -5.06581e-15 
5.59041 -2.59899 -9.88576e-15 
5.81528 -2.61288 -1.34032e-14 
6.03381 -2.5924 -1.69308e-14 
6.25227 -2.59952 -1.4336e-14 
6.48002 -2.60615 -9.66481e-15 
6.69984 -2.58904 -5.0733e-15 
6.91907 -2.58951 9.93726e-16 
7.15239 -2.60834 4.20846e-15 
7.39122 -2.60161 8.63089e-15 
7.61131 -2.57895 2.38502e-14 
7.85268 -2.62283 2.54657e-14 
8.05303 -2.54953 4.66277e-14 
8.28306 -2.61965 1.50536e-14 
8.48532 -2.55985 2.8924e-06 
-8.48533 -2.34743 -2.33455e-06 
-8.27033 -2.33471 4.62673e-14 
-8.03546 -2.3542 2.45331e-14 
-7.7883 -2.3986 7.45502e-15 
-7.54242 -2.30877 3.55941e-14 
-7.482 -2.50331 1.04102e-14 
-7.23761 -2.47726 -7.76602e-15 
-7.02919 -2.31603 1.71565e-14 
-6.77473 -2.36038 1.09878e-14 
-6.47145 -2.25604 2.89577e-15 
-6.26562 -2.38583 2.21225e-15 
-6.06172 -2.35594 -3.40771e-15 
-5.84297 -2.35893 -6.67196e-15 
-5.62256 -2.39313 -1.0263e-14 
-5.40406 -2.39236 -1.17192e-14 
-5.18068 -2.38751 -1.78678e-14 
-4.96189 -2.38907 -1.78686e-14 
-4.74421 -2.37633 -2.23562e-14 
-4.53019 -2.36473 -3.01785e-14 
-4.31477 -2.37233 -2.84311e-14 
-4.09541 -2.37354 -3.43679e-14 
-3.87229 -2.3717 -4.15786e-14 
-3.65074 -2.36829 -5.02049e-14 
-3.43247 -2.35479 -6.52297e-14 
-3.20923 -2.35862 -7.84112e-14 
-2.98598 -2.37777 -7.91047e-14 
-2.76375 -2.3778 -9.05403e-14 
-2.53634 -2.36608 -1.18006e-13 
-2.32649 -2.35641 -1.03502e-13 
-2.12799 -2.32292 -1.636e-13 
-1.91845 -2.34796 -1.38258e-13 
-1.70007 -2.42182 -1.82189e-14 
-1.49101 -2.42558 1.90912e-14 
-1.3029 -2.35324 5.91469e-14 
-1.13271 -2.36235 -3.18123e-14 
-0.887042 -2.26795 1.30098e-13 
-0.742518 -2.52205 8.48721e-14 
-0.406628 -2.63071 -1.15154e-12 
-0.1961 -2.61096 -2.95859e-13 
0.191937 -2.72975 -6.77654e-13 
0.316929 -2.61838 4.15552e-13 
0.623011 -2.37789 5.20822e-13 
0.802843 -2.44662 -1.93404e-13 
0.97981 -2.41008 -3.75149e-13 
1.11819 -2.532 1.34285e-13 
1.26827 -2.38473 -1.22388e-13 
1.43139 -2.33507 6.1442e-16 
1.61634 -2.32147 5.06952e-14 
1.80464 -2.34344 1.19728e-13 
2.01418 -2.40558 6.7317e-14 
2.23685 -2.40552 8.91363e-14 
2.46227 -2.39327 9.95181e-14 
2.67531 -2.35673 1.14381e-13 
2.88615 -2.33102 1.13915e-13 
3.1002 -2.37335 7.65796e-14 
3.31423 -2.37783 6.08796e-14 
3.53666 -2.37091 5.80174e-14 
3.75588 -2.36419 4.85821e-14 
3.98711 -2.3857 3.23344e-14 
4.2067 -2.37378 3.23889e-14 
4.43278 -2.36485 2.92624e-14 
4.65472 -2.38037 2.11383e-14 
4.86394 -2.35284 2.51001e-14 
5.08956 -2.36331 1.90287e-14 
5.30249 -2.37356 1.44516e-14 
5.52131 -2.37132 1.30966e-14 
5.74484 -2.38782 7.40343e-15 
5.96184 -2.37182 4.0844e-15 
6.18941 -2.36741 1.74637e-16 
6.4122 -2.38124 -4.01884e-15 
6.63396 -2.35864 -8.01275e-15 
6.85586 -2.35072 -1.39261e-14 
7.08285 -2.37465 -1.68215e-14 
7.31177 -2.38064 -2.37873e-14 
7.5398 -2.34175 -2.65489e-14 
7.77657 -2.38477 -6.19959e-15 
8.00483 -2.32559 -4.16094e-14 
8.24878 -2.37084 -4.22697e-14 
8.48533 -2.33443 1.90912e-06 
-8.48533 -2.08881 -1.53053e-06 
-8.28553 -2.07602 2.2836e-14 
-8.07141 -2.11703 3.95389e-14 
-7.82323 -2.18306 2.42528e-14 
-7.56582 -2.10781 3.52263e-14 
-7.27765 -2.25664 4.04785e-14 
-7.11657 -2.07113 2.37802e-14 
-6.88997 -2.12861 1.49806e-14 
-6.63978 -2.20136 1.10419e-14 
-6.30013 -2.12722 2.31608e-15 
-6.10658 -2.12 2.56998e-16 
-5.88753 -2.12518 -5.67409e-15 
-5.6686 -2.15782 -9.4242e-15 
-5.45773 -2.15908 -1.52062e-14 
-5.24573 -2.16182 -1.68796e-14 
-5.03032 -2.16295 -1.8447e-14 
-4.81627 -2.1572 -2.41691e-14 
-4.5991 -2.1384 -2.30008e-14 
-4.38241 -2.13779 -2.92553e-14 
-4.17018 -2.14283 -3.43643e-14 
-3.95325 -2.14368 -4.259e-14 
-3.73464 -2.13874 -5.10025e-14 
-3.51868 -2.12482 -5.37287e-14 
-3.29714 -2.12719 -6.79828e-14 
-3.07521 -2.13923 -8.69401e-14 
-2.86232 -2.14871 -1.02011e-13 
-2.6445 -2.15112 -1.17065e-13 
-2.42902 -2.12385 -1.14132e-13 
-2.23476 -2.08943 -8.93955e-14 
-2.02829 -2.10537 -9.62023e-14 
-1.81958 -2.16186 -1.15368e-13 
-1.63749 -2.2012 -3.57583e-14 
-1.45966 -2.18165 -5.26184e-14 
-1.29513 -2.11407 1.7929e-13 
-1.09022 -2.20264 2.77243e-13 
-0.941081 -2.09067 4.26776e-13 
-0.743816 -2.3761 1.89057e-13 
-0.525793 -2.48048 -2.88475e-15 
-0.300919 -2.48089 5.08778e-13 
0.051856 -2.60891 -4.43918e-13 
0.387684 -2.49032 2.07255e-12 
0.448721 -2.36078 7.11647e-13 
0.74703 -2.27875 6.12362e-14 
0.921796 -2.23691 -2.09141e-13 
1.1323 -2.2657 5.13125e-15 
1.29696 -2.13059 -1.11576e-13 
1.48265 -2.11347 2.29895e-15 
1.65057 -2.05958 7.08452e-14 
1.8195 -2.10729 7.23938e-14 
2.01416 -2.17951 1.6522e-13 
2.23043 -2.1857 1.6238e-13 
2.44712 -2.16322 1.24504e-13 
2.65924 -2.1233 1.00332e-13 
2.88784 -2.10982 8.35428e-14 
3.11181 -2.14028 8.04331e-14 
3.33242 -2.1501 7.14214e-14 
3.54906 -2.13799 5.80827e-14 
3.78363 -2.14717 4.84244e-14 
4.00204 -2.15337 4.12096e-14 
4.2286 -2.14913 3.55388e-14 
4.45234 -2.1393 2.64707e-14 
4.6628 -2.14096 2.41801e-14 
4.89286 -2.13539 2.00318e-14 
5.1093 -2.13286 1.63879e-14 
5.32561 -2.14662 1.43475e-14 
5.54859 -2.15049 1.23925e-14 
5.7614 -2.15534 9.084e-15 
5.98652 -2.15025 3.41637e-15 
6.20822 -2.14023 -9.57958e-16 
6.42515 -2.14818 -3.81477e-15 
6.64233 -2.12267 -8.8026e-15 
6.8669 -2.11854 -1.51669e-14 
7.09063 -2.14317 -2.11085e-14 
7.31834 -2.14768 -3.14342e-14 
7.54885 -2.10584 -3.09565e-14 
7.76778 -2.15626 -1.74791e-14 
7.98948 -2.09521 -2.50153e-14 
8.22854 -2.14768 -4.08226e-14 
8.48534 -2.12493 1.54968e-06 
-8.48537 -1.82082 -1.07026e-06 
-8.28386 -1.78921 8.66301e-15 
-7.87751 -1.95236 -4.66491e-15 
-7.65715 -1.92271 -1.08171e-14 
[...]
POINT_DATA 1978 
VECTORS vectors float
0.0192286 -0.0206341 0.999591 
0.018851 -0.0355668 0.999169 
0.0185535 -0.0522251 0.998463 
0.0193685 -0.0453694 0.99877 
0.0234303 -0.0316809 0.999179 
0.0219581 -0.015391 0.999622 
0.0187742 -0.00892684 0.999788 
0.0198898 -0.00233722 0.999801 
0.0231901 0.00298372 0.999713 
0.0217088 0.00796927 0.999728 
0.0195552 0.0104913 0.999757 
0.019928 0.012533 0.999728 
0.0190825 0.0137583 0.999731 
0.0179693 0.0131402 0.999757 
0.0184238 0.0119535 0.999764 
0.018528 0.0117802 0.999764 
0.0183061 0.0123684 0.999761 
0.0186851 0.0144204 0.999727 
0.018329 0.0178324 0.999677 
0.0175638 0.0227106 0.999591 
0.0174196 0.0295509 0.999415 
0.0171818 0.0382704 0.999123 
0.0168957 0.0488103 0.998668 
0.0170507 0.0608696 0.998003 
0.0164787 0.0756041 0.997004 
0.0151625 0.094378 0.995421 
0.014811 0.117696 0.99294 
0.0141859 0.145111 0.989315 
0.0131585 0.179979 0.983583 
0.0129685 0.217482 0.97598 
0.0111104 0.262394 0.964898 
0.00745514 0.324108 0.94599 
0.00396665 0.423947 0.905679 
0.00359045 0.507039 0.861917 
0.00244987 0.576554 0.817056 
-0.000208634 0.661065 0.750329 
-0.00191454 0.764146 0.645028 
-0.00284423 0.853111 0.521718 
-0.000874709 0.926903 0.37529 
-0.000833962 0.999943 0.0100992 
0.00283833 0.959918 -0.280072 
0.00277953 0.876081 -0.482141 
0.00103793 0.802274 -0.59695 
0.00130761 0.712354 -0.701821 
-0.00134036 0.559513 -0.82882 
-0.00391224 0.45624 -0.889849 
-0.00752482 0.38599 -0.922473 
-0.00943999 0.321466 -0.946876 
-0.0107233 0.267036 -0.963627 
-0.0111185 0.220191 -0.975392 
-0.0125523 0.17411 -0.984644 
-0.0139832 0.139202 -0.990165 
-0.0154911 0.11263 -0.993518 
-0.0174212 0.0921514 -0.995595 
-0.0163203 0.0757393 -0.996996 
-0.0162016 0.0607126 -0.998025 
-0.0171549 0.0483132 -0.998688 
-0.0175152 0.0377354 -0.999138 
-0.0171241 0.0294 -0.999424 
-0.0176254 0.0224925 -0.999595 
-0.0184414 0.0174211 -0.999683 
-0.0178579 0.0141774 -0.999744 
-0.0190578 0.012406 -0.999748 
-0.0193672 0.011393 -0.999754 
-0.0187256 0.0117403 -0.999762 
-0.0190355 0.0126117 -0.999746 
-0.018274 0.0131197 -0.999753 
-0.0183959 0.0126592 -0.999757 
-0.0185451 0.00991328 -0.999784 
-0.0174646 0.00568838 -0.999833 
-0.0176652 -0.000151728 -0.999848 
-0.0179441 -0.00732482 -0.999816 
-0.0170365 -0.0150626 -0.999743 
-0.0166518 -0.0239894 -0.999573 
-0.0174089 -0.034303 -0.999262 
-0.0161662 -0.0442738 -0.998887 
-0.0184227 -0.0518231 -0.998487 
-0.0181551 -0.0391048 -0.999054 
-0.0196863 -0.0203872 -0.999595 
0.00650653 -0.0266852 0.999599 
0.0129194 -0.0353338 0.999272 
0.0185132 -0.0432625 0.998888 
0.0212609 -0.0441311 0.998794 
0.0209644 -0.0352503 0.999149 
0.0207973 -0.0218206 0.999525 
0.0255731 -0.0127592 0.999592 
0.0251556 -0.00561815 0.999663 
0.0258554 -0.000509399 0.999666 
0.0282574 0.00419147 0.999589 
0.0252902 0.00865827 0.999639 
0.027609 0.0109537 0.999556 
0.0274295 0.0122637 0.999543 
0.0273166 0.0122305 0.999545 
0.0275294 0.0121019 0.999543 
0.0274493 0.0124857 0.99954 
0.0273158 0.0139216 0.999526 
0.0269739 0.0166079 0.999496 
0.0261974 0.0206178 0.999441 
0.0254156 0.0263506 0.999327 
0.0247999 0.0339705 0.999113 
0.0241228 0.0435402 0.998759 
0.0235375 0.0551332 0.998201 
0.0226541 0.0688777 0.997368 
0.0214014 0.0858281 0.99608 
0.019847 0.107339 0.994024 
0.0182151 0.13413 0.990798 
0.0165312 0.16646 0.985912 
0.0145338 0.204785 0.978703 
0.0123301 0.247561 0.968799 
0.00988514 0.300524 0.953728 
0.00717557 0.379096 0.925334 
0.00578835 0.47132 0.881949 
0.00579938 0.552684 0.833375 
0.00502976 0.637612 0.77034 
0.0084536 0.646051 0.763251 
0.0037462 0.735401 0.677622 
0.00500252 0.8464 0.532512 
0.00192565 0.965559 0.260143 
0.00185115 0.997906 0.0633503 
-0.0035612 0.895377 -0.445059 
-0.0107462 0.831414 -0.555522 
-0.00512545 0.790478 -0.612454 
-0.0051707 0.699229 -0.714879 
-0.00323892 0.621071 -0.783744 
-0.00512912 0.476536 -0.879145 
-0.0064229 0.400331 -0.916354 
-0.008222 0.33883 -0.940818 
-0.0107088 0.278384 -0.960415 
-0.0131201 0.217985 -0.975865 
-0.015603 0.170745 -0.985193 
-0.0180712 0.13581 -0.990571 
-0.0200469 0.110792 -0.993643 
-0.0213015 0.0911974 -0.995606 
-0.0223177 0.0728041 -0.997094 
-0.0229558 0.0579819 -0.998053 
-0.0239987 0.0458298 -0.99866 
-0.0247911 0.0360284 -0.999042 
-0.0251279 0.0277834 -0.999294 
-0.0261069 0.0217452 -0.999421 
-0.0267287 0.017279 -0.999491 
-0.0272504 0.0141866 -0.999523 
-0.0282392 0.0127122 -0.999518 
-0.0281093 0.0119648 -0.999529 
-0.028159 0.0120045 -0.999527 
-0.0280102 0.0121442 -0.99953 
-0.0274124 0.0119397 -0.999547 
-0.0274114 0.0103485 -0.999568 
-0.0266943 0.00730309 -0.999614 
-0.0259509 0.00257848 -0.999657 
-0.0256327 -0.00341761 -0.999664 
-0.0249544 -0.0103588 -0.999634 
-0.0239552 -0.0184506 -0.999539 
-0.0233822 -0.0277082 -0.99934 
-0.0231152 -0.0369167 -0.99905 
-0.021536 -0.0448892 -0.998754 
-0.0181435 -0.0414203 -0.998973 
-0.0141206 -0.0344141 -0.999285 
-0.00669066 -0.0263524 -0.99961 
0.0106899 -0.026437 0.99957 
0.0137222 -0.0310945 0.999409 
0.0234733 -0.0407762 0.998887 
0.0276051 -0.0434744 0.998677 
0.0321409 -0.0354043 0.998859 
0.0261148 -0.0322085 0.999142 
0.026371 -0.0226142 0.999396 
0.0336285 -0.0159463 0.999312 
0.0332189 -0.00720107 0.999425 
0.0375625 4.07436e-05 0.999296 
0.0343313 0.0051482 0.999401 
0.0374937 0.00810065 0.999267 
0.0381368 0.0102986 0.999222 
0.0373651 0.0114434 0.999238 
0.0376993 0.0120045 0.999219 
0.0382364 0.0125677 0.999192 
0.0375926 0.0134803 0.999204 
0.0374453 0.0152993 0.999184 
0.0371569 0.0182686 0.999146 
0.0355065 0.0224693 0.99912 
0.0343683 0.0283163 0.999011 
0.0333769 0.0360911 0.998795 
0.0323522 0.0458611 0.998428 
0.0315263 0.0578366 0.997832 
0.02999 0.0728347 0.996897 
0.0277133 0.0909656 0.995472 
0.0255236 0.113534 0.993211 
0.0231406 0.142948 0.989465 
0.0203716 0.176014 0.984182 
0.0178405 0.214831 0.976494 
0.014223 0.262519 0.964829 
0.0102355 0.323786 0.946081 
0.00787642 0.396111 0.918175 
0.00682121 0.472363 0.881383 
0.00749496 0.554578 0.832101 
0.0113312 0.670433 0.741887 
0.0083368 0.757249 0.653067 
0.00781985 0.917448 0.397749 
0.00607532 0.977851 0.209176 
-0.000603935 0.980774 -0.194862 
-0.00564841 0.946802 -0.321637 
-0.0148704 0.804716 -0.593476 
-0.0102302 0.706117 -0.708022 
-0.00728893 0.6134 -0.789742 
-0.00544662 0.554048 -0.832465 
-0.00613629 0.483265 -0.875457 
-0.0068031 0.422384 -0.906392 
-0.00865561 0.354509 -0.935021 
-0.011687 0.295336 -0.955328 
-0.0146337 0.238722 -0.970983 
-0.0182973 0.190728 -0.981476 
-0.021784 0.15173 -0.988187 
-0.0251716 0.123222 -0.992065 
-0.0280331 0.100784 -0.99452 
-0.0289729 0.0813107 -0.996271 
-0.0302455 0.0651791 -0.997419 
-0.0318117 0.0516562 -0.998162 
-0.0330406 0.0408346 -0.998623 
-0.0334005 0.0317426 -0.998941 
-0.03493 0.0251074 -0.999078 
-0.0362396 0.0199729 -0.999147 
-0.0366033 0.0162563 -0.9992 
-0.0386128 0.0141692 -0.999157 
-0.0387385 0.0128055 -0.99917 
-0.038686 0.0121884 -0.99918 
-0.0387286 0.0116925 -0.999184 
-0.0376321 0.011013 -0.999233 
-0.0376694 0.0095586 -0.999247 
-0.0368719 0.00668972 -0.999301 
-0.0352787 0.00261141 -0.999377 
-0.0350482 -0.00293975 -0.999385 
-0.0341658 -0.00938277 -0.999377 
-0.0324623 -0.0167506 -0.999335 
-0.031226 -0.0249373 -0.999205 
-0.0311066 -0.0345091 -0.998924 
-0.0283667 -0.0424653 -0.998698 
-0.0257645 -0.0416176 -0.9988 
-0.0145831 -0.0319949 -0.999369 
-0.0098073 -0.0263627 -0.999597 
0.0100234 -0.0264153 0.99957 
0.013375 -0.0290999 0.999471 
0.0238525 -0.0394397 0.998935 
0.0304986 -0.0441494 0.998566 
0.0325834 -0.0369542 0.998792 
0.0339899 -0.0250632 0.999114 
0.0337245 -0.0196202 0.999245 
0.0354304 -0.0121393 0.999305 
0.03775 -0.00453071 0.999284 
0.0383655 0.00277172 0.999267 
0.0392515 0.00602308 0.999218 
0.039929 0.00859197 0.999172 
0.0407745 0.0104607 0.99912 
0.0413401 0.011658 0.999083 
0.0413501 0.0127594 0.999069 
0.0408657 0.0139699 0.999073 
0.0402322 0.0156583 0.999074 
0.0389371 0.0185012 0.999077 
0.037952 0.0223407 0.999036 
0.0368371 0.0273267 0.998954 
0.0357344 0.0340646 0.998787 
0.0345096 0.0429237 0.998489 
0.0329385 0.054007 0.998004 
0.0314669 0.0679923 0.997196 
0.0297952 0.085119 0.995932 
0.0276874 0.105194 0.994073 
0.0248635 0.130667 0.991121 
0.0209175 0.162395 0.986511 
0.016702 0.197781 0.980111 
0.0129825 0.241795 0.970248 
0.0103679 0.29468 0.955547 
0.00777343 0.350784 0.936431 
0.00519981 0.412275 0.91105 
0.00264586 0.479416 0.877591 
0.00645947 0.570603 0.821203 
0.00914484 0.644875 0.764233 
0.0133593 0.750621 0.660597 
0.013135 0.855038 0.518397 
0.0120036 0.958422 0.285087 
0.000333672 0.997755 -0.0665677 
-0.012047 0.907964 -0.418748 
-0.0190659 0.882508 -0.46993 
-0.0139502 0.743525 -0.668545 
-0.00819391 0.64794 -0.761651 
-0.00531345 0.550238 -0.834995 
-0.00107936 0.479272 -0.877671 
-0.00214573 0.404438 -0.914569 
-0.00316084 0.346962 -0.937879 
-0.00836131 0.294301 -0.955683 
-0.014492 0.239565 -0.97078 
-0.0189039 0.193575 -0.98091 
-0.0220673 0.157625 -0.987259 
-0.0245062 0.128063 -0.991471 
-0.0272391 0.10238 -0.994378 
-0.0300778 0.081728 -0.996207 
-0.0319707 0.0651669 -0.997369 
-0.0332541 0.0519072 -0.998106 
-0.0348193 0.0406286 -0.998574 
-0.0360195 0.0323172 -0.998835 
-0.0372437 0.0256829 -0.998982 
-0.0381447 0.0208511 -0.999061 
-0.0391112 0.0174683 -0.999088 
-0.0400333 0.0148995 -0.999093 
-0.0406016 0.0134413 -0.999091 
-0.0411553 0.0123699 -0.999082 
-0.0413062 0.0112197 -0.99909 
-0.0408948 0.00989748 -0.999121 
-0.0402219 0.00793764 -0.999165 
-0.0390741 0.00479997 -0.999231 
-0.0380424 0.000674115 -0.999282 
-0.0367602 -0.00460358 -0.99932 
-0.0356517 -0.0108646 -0.999311 
-0.0346995 -0.0179632 -0.999244 
-0.0336556 -0.0260713 -0.999101 
-0.0321901 -0.0354966 -0.998856 
-0.0310175 -0.0431185 -0.998595 
-0.0264822 -0.0425964 -0.998743 
-0.0166679 -0.0312862 -0.999364 
-0.00898214 -0.0257814 -0.999623 
0.00691596 -0.0248402 0.999629 
0.0100757 -0.0295461 0.999485 
0.0257958 -0.0453866 0.998641 
0.0271164 -0.041057 0.998795 
0.025728 -0.0324919 0.999148 
0.0317812 -0.0285592 0.999093 
0.0276089 -0.0225141 0.999373 
0.0299051 -0.014356 0.999457 
0.033584 -0.0071745 0.999417 
0.0338416 -0.0017287 0.999432 
0.0322657 0.00201465 0.999485 
0.0338686 0.00587903 0.999415 
0.0345975 0.00869877 0.99937 
0.0355101 0.0106744 0.999319 
0.0355413 0.0124209 0.999298 
0.0355235 0.0139734 0.999278 
0.0351018 0.0155844 0.999269 
0.0340789 0.0179125 0.999265 
0.032703 0.0213701 0.999243 
0.0315106 0.0258039 0.999177 
0.0307535 0.0315946 0.999034 
0.0296434 0.0394737 0.998788 
0.0281855 0.0496569 0.998376 
0.0267506 0.0630712 0.997658 
0.0251 0.0798971 0.996494 
0.0229692 0.100103 0.994719 
0.0206674 0.124074 0.992065 
0.0168903 0.15384 0.987958 
0.0113356 0.190263 0.981675 
0.0072155 0.233481 0.972342 
0.00407817 0.284026 0.958815 
0.000365049 0.338914 0.940824 
-0.00273666 0.39347 0.919341 
-0.00670285 0.456668 0.889617 
-0.000653764 0.546049 0.837759 
-0.00363317 0.596029 0.802953 
0.0195105 0.755353 0.655029 
0.0197537 0.827525 0.561066 
0.019582 0.910015 0.414045 
0.00367623 0.997743 0.0667479 
-0.00514682 0.981966 -0.188675 
-0.0262367 0.846006 -0.532518 
-0.0157717 0.734233 -0.678713 
-0.00351522 0.630033 -0.776563 
0.00166161 0.55203 -0.833828 
0.00829514 0.469742 -0.88277 
0.00860836 0.413249 -0.910584 
0.00627918 0.349923 -0.936764 
-0.000282004 0.292647 -0.956227 
-0.00798508 0.245039 -0.969486 
-0.0129154 0.199936 -0.979732 
-0.016456 0.161693 -0.986711 
-0.0185625 0.132026 -0.991078 
-0.0215355 0.106657 -0.99407 
-0.0245931 0.0836381 -0.996201 
-0.0263877 0.0672025 -0.997397 
-0.0277603 0.0537518 -0.998174 
-0.0296906 0.042585 -0.998659 
-0.0306061 0.0336786 -0.998971 
-0.0317224 0.0273061 -0.999131 
-0.0324459 0.0224991 -0.999227 
-0.0329706 0.0189679 -0.999283 
-0.034375 0.016277 -0.999283 
-0.0345341 0.0144258 -0.999306 
-0.0352693 0.0129364 -0.999301 
-0.0357374 0.0113227 -0.999304 
-0.035273 0.00942926 -0.99934 
-0.0351484 0.00736537 -0.999362 
-0.0340042 0.0042854 -0.999419 
-0.0329234 0.000149503 -0.999465 
-0.0314385 -0.00479899 -0.999501 
-0.0304302 -0.0107123 -0.999486 
-0.0297451 -0.0178543 -0.999405 
-0.0289622 -0.0257923 -0.999255 
-0.0269069 -0.0345887 -0.999047 
-0.0257888 -0.0435487 -0.998725 
-0.0206055 -0.0414062 -0.998931 
-0.012886 -0.0313962 -0.999408 
-0.0072279 -0.0254116 -0.999652 
0.00468046 -0.0262228 0.999646 
0.0074896 -0.0325662 0.999427 
0.0168658 -0.0373451 0.99916 
0.0192259 -0.0460542 0.998759 
0.0210644 -0.0425971 0.998877 
0.021313 -0.0295937 0.999342 
0.0233388 -0.0197939 0.999539 
0.0255476 -0.0118791 0.99961 
0.0277451 -0.00619199 0.999602 
0.0267368 -0.00195244 0.999648 
0.0264677 0.00260762 0.999654 
0.0283279 0.00586481 0.999589 
0.0281047 0.0086162 0.999575 
0.0287426 0.0110556 0.999533 
0.0285961 0.0132104 0.99951 
0.0287635 0.0150958 0.99948 
0.0282141 0.0171102 0.999462 
0.0274854 0.0198425 0.999432 
0.0260618 0.0235441 0.99939 
0.0250216 0.0282826 0.999294 
0.0243495 0.0345013 0.999115 
0.0232432 0.0430719 0.998809 
0.0221034 0.0548501 0.998259 
0.0206874 0.0699879 0.997339 
0.0186819 0.0883196 0.995925 
0.0163878 0.110918 0.993702 
0.0137287 0.137029 0.990478 
0.00925685 0.168642 0.985642 
0.00327348 0.213255 0.976998 
-0.00173135 0.260139 0.965577 
-0.00686657 0.309382 0.950919 
-0.0129452 0.362145 0.932038 
-0.0171888 0.415105 0.909619 
-0.0284173 0.467083 0.883759 
-0.0141631 0.504544 0.863271 
-0.0228209 0.553347 0.832644 
0.0199946 0.734979 0.677794 
0.0299032 0.862072 0.505891 
0.013425 0.983095 0.18221 
-0.000840395 0.999755 -0.0216522 
-0.0111671 0.972977 -0.230566 
-0.0319974 0.821483 -0.569327 
-0.00900097 0.706318 -0.707837 
0.007017 0.61476 -0.788689 
0.0130549 0.530479 -0.847598 
0.0237921 0.471806 -0.881388 
0.0192363 0.403916 -0.914598 
0.0166136 0.347526 -0.93753 
0.00754084 0.293173 -0.956036 
-0.00129194 0.239768 -0.970838 
-0.00721566 0.195047 -0.980774 
-0.0106905 0.159207 -0.987195 
-0.0135972 0.12787 -0.991705 
-0.0171326 0.101298 -0.994716 
-0.0189698 0.0817225 -0.996482 
-0.0207646 0.0656361 -0.997635 
-0.0223292 0.0519995 -0.998405 
-0.0240547 0.0412135 -0.998868 
-0.0244896 0.0333337 -0.999151 
-0.0256435 0.0273204 -0.999305 
-0.0261466 0.0228928 -0.999403 
-0.0266807 0.0195102 -0.999461 
-0.0280241 0.0167814 -0.999473 
-0.0282383 0.0147576 -0.999499 
-0.028735 0.0129201 -0.999511 
-0.0291246 0.0107402 -0.999525 
-0.0287159 0.00823089 -0.999561 
-0.0285042 0.00556101 -0.999585 
-0.027633 0.00190745 -0.999623 
-0.0262938 -0.00247147 -0.999658 
-0.0252044 -0.00796667 -0.999658 
-0.024527 -0.0145118 -0.999601 
-0.0235181 -0.0218337 -0.999493 
-0.0224377 -0.0301262 -0.9993 
-0.0197955 -0.0389089 -0.999054 
-0.0203429 -0.0447833 -0.998796 
-0.0164705 -0.044885 -0.998858 
-0.0113927 -0.0329065 -0.99939 
-0.00469056 -0.0264204 -0.999642 
0.00303788 -0.0275874 0.99962 
0.00638289 -0.0347154 0.999373 
0.0126263 -0.0390573 0.999154 
0.0142946 -0.0476084 0.99877 
0.0178699 -0.0396887 0.999059 
0.0163718 -0.0326812 0.999339 
0.0190789 -0.0236031 0.999546 
0.0205078 -0.0149913 0.999685 
0.0219551 -0.00824929 0.999733 
0.0220531 -0.00276405 0.999762 
0.0221364 0.00167321 0.999757 
0.0230718 0.00560641 0.999726 
0.0229044 0.00869869 0.999709 
0.0233175 0.011534 0.999668 
0.0230981 0.0140545 0.999642 
0.0231104 0.016117 0.999609 
0.0228436 0.0184365 0.999576 
0.0221783 0.0214078 0.999531 
0.0208848 0.0250103 0.999477 
0.0200174 0.0295684 0.99937 
0.0194172 0.0358948 0.999174 
0.0186024 0.0449269 0.998824 
0.0176238 0.0570345 0.998222 
0.016202 0.0723796 0.997255 
0.0142845 0.0909314 0.995761 
0.0119994 0.113152 0.993513 
0.00887271 0.140951 0.989985 
0.0042717 0.176057 0.984377 
-0.00123685 0.216278 0.976338 
-0.00963243 0.271832 0.962303 
-0.0183958 0.326533 0.945014 
-0.0283985 0.381159 0.924079 
-0.0368762 0.429806 0.902173 
-0.0522294 0.469772 0.881246 
-0.0422335 0.513892 0.856819 
-0.0220417 0.613527 0.789358 
0.00448624 0.666034 0.745911 
0.0352302 0.836822 0.546312 
0.0306621 0.940578 0.338139 
-0.0123994 0.990757 -0.134678 
-0.0244786 0.939757 -0.340942 
-0.00430141 0.718603 -0.695405 
0.0190432 0.617846 -0.786071 
0.0285219 0.547966 -0.836013 
0.0411362 0.5052 -0.862026 
0.0495233 0.461176 -0.885928 
0.0341295 0.43356 -0.900486 
0.0293222 0.376177 -0.926089 
0.0180019 0.311721 -0.950009 
0.00767437 0.258722 -0.965928 
0.000186246 0.212653 -0.977134 
-0.00447871 0.174089 -0.984727 
-0.00836952 0.14019 -0.990097 
-0.0120009 0.11056 -0.993804 
-0.0140502 0.0888408 -0.995954 
-0.0157981 0.0709366 -0.997363 
-0.0174068 0.0566081 -0.998252 
-0.0188902 0.0447305 -0.998828 
-0.0194275 0.0363429 -0.999158 
-0.0202608 0.0297471 -0.999359 
-0.0208447 0.0252034 -0.999472 
-0.0214566 0.021592 -0.999544 
-0.0223161 0.0185176 -0.999586 
-0.0230034 0.0161788 -0.999611 
-0.0233074 0.0140672 -0.999636 
-0.0236938 0.0115935 -0.999659 
-0.0236962 0.00869644 -0.999688 
-0.0234493 0.00556394 -0.999717 
-0.0230732 0.00217887 -0.999738 
-0.0217511 -0.00234904 -0.999768 
-0.0209239 -0.00754092 -0.99976 
-0.0201266 -0.0138065 -0.999709 
-0.0191044 -0.0210437 -0.999603 
-0.0176888 -0.0293421 -0.999422 
-0.0155535 -0.0392204 -0.999117 
-0.014004 -0.0465863 -0.998824 
-0.0109718 -0.0426979 -0.999029 
-0.0069489 -0.0320669 -0.999444 
-0.00393198 -0.0249429 -0.999678 
0.00316104 -0.0275875 0.999618 
0.0046696 -0.0372972 0.99928 
0.00934511 -0.0459179 0.998904 
0.00919676 -0.0486168 0.998781 
0.0132009 -0.0445117 0.99893 
0.0132429 -0.0340243 0.999341 
0.0158124 -0.0232432 0.999613 
0.0166001 -0.0160717 0.999739 
0.0181992 -0.00942553 0.999797 
0.0180486 -0.0048727 0.999833 
0.0187829 0.000195539 0.999832 
0.019309 0.00440259 0.999812 
0.0191052 0.00813193 0.999789 
0.0192899 0.0116478 0.999752 
0.0190837 0.01448 0.999721 
0.0189863 0.0169025 0.999684 
0.0188092 0.0193804 0.999642 
0.0183061 0.022263 0.999592 
0.0171696 0.0256779 0.999529 
0.0165446 0.0296806 0.999429 
0.0159366 0.0354976 0.99925 
0.0153535 0.0437496 0.998932 
0.014553 0.0551081 0.998381 
0.0133418 0.0695321 0.997497 
0.0115273 0.0877934 0.99608 
0.00932537 0.109823 0.993915 
0.00648712 0.13638 0.990642 
0.00241493 0.168319 0.985737 
-0.00343588 0.208801 0.977959 
-0.0104524 0.253459 0.967296 
-0.0211908 0.308531 0.950984 
-0.0326483 0.361205 0.931922 
-0.0464532 0.417093 0.907682 
-0.0667553 0.482314 0.873456 
-0.06582 0.530438 0.845167 
-0.0498372 0.577367 0.814958 
-0.000843225 0.693084 0.720851 
0.0322919 0.771132 0.635854 
0.0504422 0.931007 0.361513 
0.00958377 0.99593 0.0895566 
-0.0371186 0.938252 -0.343967 
-0.0402265 0.81407 -0.579369 
0.0219179 0.677677 -0.735028 
0.0464491 0.583052 -0.81111 
0.0615678 0.528118 -0.846941 
0.0716723 0.503295 -0.86114 
0.048616 0.429804 -0.901619 
0.0368336 0.378443 -0.924897 
0.0249438 0.326453 -0.944891 
0.0131336 0.266749 -0.963682 
0.00490757 0.217974 -0.975949 
-0.00113607 0.175508 -0.984486 
-0.00572933 0.140113 -0.990124 
-0.00890736 0.112685 -0.993598 
-0.0111111 0.089075 -0.99597 
-0.0126789 0.071008 -0.997404 
-0.0143556 0.0558812 -0.998339 
-0.0153098 0.0449947 -0.998877 
-0.0160427 0.0360449 -0.999228 
-0.0165028 0.0301235 -0.999416 
-0.0172344 0.0256356 -0.99953 
-0.0178551 0.0220955 -0.999603 
-0.0183655 0.0192254 -0.999653 
-0.0191614 0.0165826 -0.999685 
-0.0194613 0.0142127 -0.999716 
-0.0196992 0.0114287 -0.999748 
-0.0198424 0.00788587 -0.999779 
-0.0195247 0.00424872 -0.999807 
-0.0190254 0.000504482 -0.999826 
-0.0177965 -0.00448199 -0.999839 
-0.0170917 -0.0102491 -0.999809 
-0.0161151 -0.0166735 -0.999738 
-0.0150061 -0.0240207 -0.999607 
-0.0136086 -0.0323336 -0.999391 
-0.0113081 -0.0414055 -0.999085 
-0.0103057 -0.0483251 -0.998784 
-0.00802881 -0.0453374 -0.998941 
-0.00532754 -0.0329181 -0.999435 
-0.00293156 -0.0263277 -0.999654 
0.00227398 -0.0303931 0.999528 
0.00328241 -0.0355575 0.999357 
0.00588621 -0.0472775 0.998867 
0.00599189 -0.0493068 0.998772 
0.0101733 -0.0414178 0.999097 
0.00919753 -0.034942 0.999354 
0.012238 -0.0276925 0.999548 
0.0129824 -0.019837 0.999725 
0.0143865 -0.0127322 0.999824 
0.0148028 -0.00669354 0.999874 
0.0157661 -0.00107441 0.999882 
0.0161716 0.0037416 0.99987 
0.016086 0.00791267 0.999847 