# vtk DataFile Version 3.0 
Exported using Morpho https://github.com/Morpho-lang/morpho 
ASCII 
DATASET UNSTRUCTURED_GRID 

POINTS 1978 float 
-12 -4 2.18886e-17 
-11.6268 -4 9.12679e-17 
-11.3325 -4 -8.20416e-20 
-10.9865 -4 5.3627e-17 
-10.6659 -4 2.16282e-17 
-10.3133 -4 3.12805e-17 
-9.99576 -4 8.31792e-17 
-9.65547 -4 1.73992e-17 
-9.32056 -4 8.53301e-17 
-9.00736 -4 5.51234e-17 
-8.69775 -4 -1.14811e-17 
-8.38309 -4 1.0268e-17 
-8.07797 -4 -1.49813e-16 
-7.7668 -4 -9.76749e-17 
-7.48132 -4 5.5585e-17 
-7.19504 -4 7.11756e-17 
-6.90518 -4 2.20183e-16 
-6.59737 -4 5.57463e-17 
-6.29339 -4 -2.66725e-17 
-5.98885 -4 -1.33872e-16 
-5.69066 -4 -1.05083e-16 
-5.4001 -4 1.87764e-16 
-5.11002 -4 3.08347e-16 
-4.81359 -4 -3.49905e-16 
-4.50976 -4 -9.18435e-16 
-4.20781 -4 -1.10029e-15 
-3.91296 -4 -1.54761e-15 
-3.60975 -4 -3.68515e-16 
-3.30687 -4 6.20121e-16 
-3.02569 -4 1.12435e-15 
-2.73456 -4 -2.36522e-15 
-2.46494 -4 3.902e-16 
-2.18823 -4 2.80694e-15 
-1.95774 -4 1.32056e-14 
-1.75738 -4 3.8543e-14 
-1.56143 -4 5.11144e-14 
-1.30899 -4 5.09054e-14 
-1.08737 -4 4.79087e-13 
-0.560379 -4 -2.05838e-12 
-0.124734 -4 -8.56574e-12 
0.470807 -4 -3.63393e-12 
0.79234 -4 3.42653e-13 
1.04316 -4 1.02779e-13 
1.31135 -4 -2.42136e-14 
1.57708 -4 -2.74422e-14 
1.87661 -4 -2.93874e-15 
2.20315 -4 -4.71032e-16 
2.51089 -4 6.11859e-15 
2.74778 -4 -1.95465e-15 
3.03728 -4 -4.60059e-16 
3.32581 -4 -5.43729e-16 
3.60535 -4 1.37783e-15 
3.89816 -4 4.49589e-16 
4.19331 -4 9.12208e-16 
4.49379 -4 1.06055e-15 
4.80083 -4 3.86551e-16 
5.10327 -4 -5.87581e-16 
5.40663 -4 -4.17226e-17 
5.7087 -4 2.45192e-16 
5.99753 -4 7.1614e-17 
6.30094 -4 -4.88312e-17 
6.57755 -4 -1.94482e-16 
6.87819 -4 -1.16423e-16 
7.17178 -4 -7.26492e-17 
7.46916 -4 -4.50762e-17 
7.77292 -4 7.4241e-17 
8.07193 -4 1.43393e-16 
8.3737 -4 5.8722e-17 
8.67778 -4 4.5853e-17 
8.95891 -4 -1.26938e-16 
9.2979 -4 -6.00302e-17 
9.61906 -4 -3.14108e-17 
9.92594 -4 -1.1355e-16 
10.292 -4 -9.23129e-18 
10.6216 -4 -9.79245e-17 
10.992 -4 -3.21257e-17 
11.311 -4 -2.98834e-17 
11.6015 -4 -7.42355e-17 
12 -4 -1.06993e-17 
-12 -3.6227 -7.04935e-17 
-11.7008 -3.69624 -8.03472e-21 
-11.3577 -3.62085 5.24588e-21 
-11.0509 -3.67664 3.80186e-21 
-10.7091 -3.65166 5.4369e-21 
-10.3889 -3.68482 1.66e-20 
-10.0495 -3.65573 -1.87519e-21 
-9.72613 -3.68346 8.19129e-21 
-9.38732 -3.67812 4.68069e-21 
-9.05829 -3.66145 6.59349e-21 
-8.74334 -3.66277 -3.0623e-21 
-8.42859 -3.67103 -9.59317e-21 
-8.10961 -3.66267 1.89192e-20 
-7.7969 -3.6703 7.21749e-20 
-7.48328 -3.64785 -2.96973e-19 
-7.19166 -3.65677 2.32997e-19 
-6.8919 -3.6628 -3.22952e-19 
-6.58177 -3.67021 -1.8577e-19 
-6.27163 -3.67257 -2.34593e-19 
-5.96526 -3.66927 -1.96671e-19 
-5.66672 -3.66398 -1.6902e-19 
-5.37023 -3.66453 -1.77072e-19 
-5.06673 -3.67256 -2.78577e-19 
-4.75619 -3.68079 -1.25848e-19 
-4.44434 -3.6772 8.81841e-19 
-4.13351 -3.67206 2.02566e-18 
-3.81647 -3.68746 -6.3322e-18 
-3.49637 -3.68754 1.6348e-17 
-3.18204 -3.66666 -1.58404e-17 
-2.87467 -3.67443 2.7708e-18 
-2.57255 -3.65529 3.14468e-16 
-2.28398 -3.68156 1.8218e-16 
-2.01172 -3.66255 1.62669e-16 
-1.77396 -3.42193 6.63957e-16 
-1.76474 -3.69372 -4.89147e-16 
-1.51616 -3.50477 4.99809e-16 
-1.4944 -3.76235 -7.06463e-16 
-0.931015 -3.85825 2.6816e-15 
-0.670003 -3.75509 2.00386e-15 
-0.327983 -3.80369 1.52071e-15 
0.591119 -3.75817 -7.40461e-17 
0.89358 -3.70585 -9.73579e-17 
1.16874 -3.74108 -4.85365e-17 
1.43825 -3.67953 1.28857e-16 
1.69956 -3.71792 1.01981e-17 
2.01011 -3.74076 2.08523e-17 
2.21307 -3.56301 -6.38896e-17 
2.42888 -3.71287 -1.97979e-16 
2.70189 -3.62252 -4.88912e-17 
2.97172 -3.69364 -3.51531e-17 
3.28529 -3.68862 -1.24086e-17 
3.59761 -3.66038 -5.68427e-18 
3.89622 -3.66185 2.52875e-18 
4.20437 -3.67341 -1.68148e-18 
4.51598 -3.67805 -2.82278e-19 
4.82252 -3.67132 1.59841e-19 
5.13092 -3.67317 2.39038e-19 
5.43935 -3.67405 2.24934e-19 
5.73626 -3.65999 2.1614e-19 
6.03853 -3.67372 2.37544e-19 
6.32917 -3.64701 1.07494e-19 
6.62936 -3.6703 1.48223e-19 
6.92948 -3.66048 7.06013e-20 
7.2299 -3.66115 1.36484e-20 
7.53688 -3.66757 -6.0886e-21 
7.83884 -3.6571 -1.7845e-20 
8.14273 -3.6582 -1.98296e-21 
8.44304 -3.65747 -8.20602e-21 
8.73569 -3.63408 1.89134e-20 
9.05704 -3.69294 -1.90813e-20 
9.38427 -3.67453 1.35708e-20 
9.69897 -3.65513 -7.06199e-21 
10.045 -3.70713 -7.5603e-21 
10.3854 -3.6715 4.35453e-21 
10.7424 -3.70423 -3.16806e-21 
11.0733 -3.65385 -5.71081e-21 
11.3748 -3.61728 -2.36718e-21 
11.7188 -3.71997 2.28531e-21 
12 -3.60701 7.80631e-17 
-12 -3.32581 -4.86137e-17 
-11.6308 -3.34785 5.12968e-21 
-11.2906 -3.27412 5.62798e-22 
-10.9755 -3.34262 -3.75148e-22 
-10.6553 -3.30681 2.30777e-24 
-10.3406 -3.35047 -2.4923e-22 
-10.0309 -3.30083 7.96406e-24 
-9.72899 -3.34518 4.28599e-22 
-9.41644 -3.35464 2.1891e-20 
-9.09349 -3.33357 -1.1582e-20 
-8.77552 -3.32458 -8.453e-23 
-8.46572 -3.33665 -3.4398e-22 
-8.15596 -3.33534 -1.62328e-21 
-7.83954 -3.3337 -9.88108e-23 
-7.53393 -3.32124 -1.63987e-22 
-7.22537 -3.30879 1.70803e-20 
-6.92618 -3.33105 -1.14148e-20 
-6.62005 -3.34311 -2.06981e-21 
-6.31093 -3.34598 -3.40824e-21 
-6.00505 -3.34227 4.45799e-21 
-5.70204 -3.33398 3.47408e-20 
-5.40121 -3.33377 1.75092e-19 
-5.09959 -3.34896 4.88873e-19 
-4.78982 -3.36234 7.69375e-19 
-4.47736 -3.36022 1.85925e-18 
-4.15965 -3.35432 3.61278e-18 
-3.83896 -3.37253 1.66156e-17 
-3.52425 -3.37515 -2.28616e-17 
-3.20824 -3.35387 8.50316e-17 
-2.8861 -3.34697 1.07082e-16 
-2.57701 -3.33251 2.68209e-16 
-2.27858 -3.35269 -2.39104e-16 
-2.0229 -3.31806 -1.27892e-17 
-1.75145 -3.14724 -1.8015e-16 
-1.4832 -3.23644 -1.74433e-16 
-1.32865 -3.03307 -1.21205e-16 
-1.2507 -3.4241 -1.68834e-16 
-1.24473 -3.69163 4.82309e-16 
-0.975821 -3.60166 -1.6791e-16 
-0.585006 -3.54309 7.26688e-18 
0.28674 -3.65844 2.11397e-11 
1.20322 -3.45944 2.36347e-16 
1.50132 -3.37604 8.13842e-19 
1.49936 -2.94395 -2.14291e-16 
1.69899 -3.16213 -1.43862e-16 
1.81051 -3.46978 -1.59786e-16 
2.02628 -3.31339 -9.08326e-17 
2.43281 -3.35163 -1.82638e-16 
2.69908 -3.27451 -8.37907e-17 
2.97707 -3.3578 -4.16867e-17 
3.26669 -3.38413 -2.11904e-17 
3.5731 -3.34287 -1.22214e-17 
3.88448 -3.33484 -6.42551e-18 
4.19153 -3.34787 -2.30505e-18 
4.49915 -3.35547 -1.0294e-18 
4.80647 -3.34276 -5.15381e-19 
5.10927 -3.34665 -2.17576e-19 
5.41356 -3.34908 -4.45791e-20 
5.71612 -3.32558 -3.37728e-20 
6.01348 -3.33865 -3.64351e-21 
6.30847 -3.31155 -8.12684e-21 
6.60722 -3.33625 -8.02861e-22 
6.90664 -3.3283 1.13912e-23 
7.21125 -3.32536 -4.75221e-23 
7.51555 -3.3365 -1.18039e-20 
7.82303 -3.31809 2.95787e-21 
8.12728 -3.31901 4.23776e-22 
8.4327 -3.3075 6.34522e-22 
8.75308 -3.30983 1.40684e-22 
9.07314 -3.37069 9.45172e-23 
9.39063 -3.3405 8.15948e-23 
9.7044 -3.31282 5.04935e-23 
10.0142 -3.39254 -1.01932e-23 
10.3136 -3.32463 3.44748e-23 
10.6389 -3.38764 2.29371e-23 
10.9676 -3.3357 1.20242e-20 
11.2915 -3.26483 7.67458e-24 
11.6333 -3.36659 -4.90228e-21 
12 -3.30459 3.5058e-17 
-12 -2.99377 -8.0769e-17 
-11.6671 -3.03521 1.09386e-20 
-11.3267 -2.9595 -1.15057e-22 
-10.9719 -2.99574 1.77226e-23 
-10.6397 -2.97584 6.94283e-22 
-10.3127 -3.00169 -6.28797e-22 
-9.99012 -2.96192 7.92363e-22 
-9.67835 -3.00238 9.36269e-23 
-9.36457 -3.01865 -6.0503e-22 
-9.04729 -2.99821 -2.62442e-22 
-8.7342 -2.98844 -5.97909e-23 
-8.42515 -3.0024 -2.28854e-22 
-8.11092 -3.00853 3.0453e-25 
-7.80452 -2.99526 1.36682e-22 
-7.49671 -2.98704 1.00671e-21 
-7.19188 -2.97363 -1.49208e-21 
-6.89265 -3.00263 1.72498e-20 
-6.58589 -3.01765 1.22617e-22 
-6.28411 -3.01649 4.0277e-21 
-5.98295 -3.01386 -8.30443e-22 
-5.6823 -3.00682 7.82416e-21 
-5.38396 -3.00473 -3.94856e-23 
-5.08676 -3.02276 1.68765e-19 
-4.78521 -3.04344 8.9434e-19 
-4.48025 -3.03402 1.31838e-18 
-4.17155 -3.04121 1.98303e-18 
-3.84522 -3.06352 -2.06642e-17 
-3.51552 -3.05464 7.89643e-17 
-3.18357 -3.04143 6.95649e-18 
-2.85254 -3.0269 8.43101e-17 
-2.51947 -3.01542 8.18889e-17 
-2.22417 -3.00553 -7.1831e-17 
-1.95927 -2.95655 -9.11945e-17 
-1.60463 -2.90732 -1.42911e-16 
-1.5177 -2.64541 -4.36877e-16 
-1.24562 -2.76067 4.35002e-17 
-1.0395 -3.01133 1.12788e-16 
-1.07962 -3.28202 6.47035e-16 
-0.80388 -3.38527 2.65222e-16 
0.125179 -3.85885 5.84329e-12 
0.0410023 -3.39038 -3.86005e-11 
0.86912 -3.44865 2.61685e-17 
1.30655 -3.15306 -2.08799e-16 
1.22781 -2.80211 -3.63429e-16 
1.50835 -2.62782 -2.04137e-16 
1.76666 -2.79209 -1.25004e-16 
1.97227 -3.00294 -2.46366e-16 
2.28103 -3.10195 -1.31092e-16 
2.56267 -2.96265 -2.95266e-17 
2.90123 -3.0009 -3.46017e-17 
3.19029 -3.05412 -2.70817e-17 
3.48932 -3.03765 -1.18694e-17 
3.81986 -3.02195 -3.37237e-18 
4.14466 -3.02575 -1.21376e-18 
4.46276 -3.03326 -8.1577e-19 
4.77588 -3.01846 -3.47567e-19 
5.08469 -3.01695 -1.02389e-19 
5.38769 -3.02259 -1.9081e-20 
5.68975 -2.99975 -5.22623e-21 
5.99313 -3.00477 -1.25749e-20 
6.29725 -2.98681 8.65073e-21 
6.60364 -3.0029 6.16264e-22 
6.90895 -3.00012 3.51663e-22 
7.21346 -2.99479 -3.35566e-22 
7.51848 -3.00482 1.37165e-22 
7.82251 -2.9817 -2.08058e-20 
8.12594 -2.98113 -3.90106e-23 
8.44148 -2.98159 -2.45573e-22 
8.75025 -2.97329 8.98104e-23 
9.06146 -3.04063 3.5454e-23 
9.37459 -3.0059 -5.84131e-21 
9.67669 -2.96644 -3.27157e-21 
9.99321 -3.03857 -1.84374e-22 
10.3202 -2.99206 2.48901e-22 
10.6457 -3.05331 1.34114e-24 
10.9733 -2.99665 -2.00695e-23 
11.3199 -2.94453 -1.64501e-24 
11.6562 -3.05277 -7.70985e-21 
12 -2.98174 6.51706e-17 
-12 -2.67817 -5.36178e-17 
-11.6528 -2.70389 7.22115e-21 
-11.3287 -2.62387 3.13729e-23 
-11.0018 -2.68331 -1.45008e-20 
-10.656 -2.64937 -4.37183e-22 
-10.3235 -2.66921 -4.00441e-22 
-9.98819 -2.64287 1.06498e-22 
-9.65333 -2.66501 4.65173e-22 
-9.33649 -2.68406 -1.15887e-20 
-9.01848 -2.66477 -3.74754e-24 
-8.70397 -2.65596 -3.93839e-24 
-8.3883 -2.67738 -3.30901e-23 
-8.07914 -2.67556 -8.27027e-21 
-7.76933 -2.66464 7.28565e-23 
-7.4634 -2.65375 9.58742e-24 
-7.15515 -2.64457 -3.56859e-21 
-6.85159 -2.68115 -2.35757e-21 
-6.55313 -2.68729 -2.37406e-21 
-6.25433 -2.68749 4.97261e-21 
-5.95578 -2.68737 -1.85535e-20 
[...]
POINT_DATA 1978 
VECTORS vectors float
1.4024e-06 -2.70489e-05 1 
-7.75849e-07 -3.961e-05 1 
2.48475e-07 -4.73255e-05 1 
-4.56683e-08 -5.8353e-05 1 
-1.50118e-07 -7.1627e-05 1 
2.60355e-08 -8.89263e-05 1 
-1.01236e-07 -0.000108014 1 
7.44176e-08 -0.000131717 1 
-1.08416e-08 -0.000159194 1 
2.02288e-07 -0.000184562 1 
2.27177e-07 -0.000206459 1 
3.07534e-07 -0.000220301 1 
5.24598e-07 -0.000231457 1 
4.46575e-07 -0.000252417 1 
4.50444e-07 -0.000276833 1 
9.08083e-07 -0.000298234 1 
4.7493e-07 -0.000311142 1 
-7.65177e-07 -0.000281592 1 
-1.51704e-06 -0.000176414 1 
-1.63605e-06 2.06154e-05 1 
-2.82861e-06 0.000296698 1 
-5.04163e-06 0.00062472 1 
-5.57186e-06 0.000944529 1 
-3.64712e-06 0.00128424 0.999999 
-1.79385e-05 0.00182361 0.999998 
-1.36603e-05 0.0026472 0.999996 
-4.25651e-06 0.00376775 0.999993 
-3.45559e-05 0.00554274 0.999985 
-1.25596e-05 0.00798396 0.999968 
-0.00020727 0.0109846 0.99994 
6.9879e-05 0.0160851 0.999871 
0.000221749 0.0239425 0.999713 
-0.000402575 0.0361753 0.999345 
-0.000164812 0.0500881 0.998745 
0.0004429 0.0627546 0.998029 
0.000896593 0.0756867 0.997131 
-0.0017565 0.0942535 0.995547 
0.00100453 0.0851399 0.996369 
-0.000320463 0.0616768 0.998096 
0.000164217 0.0417033 0.99913 
-0.000382378 -0.000249771 -1 
0.000304928 0.0123491 -0.999924 
-0.000552168 0.0268348 -0.99964 
0.000312346 0.0322826 -0.999479 
-3.75782e-05 0.0313853 -0.999507 
-5.44931e-05 0.0307934 -0.999526 
0.000304302 0.0211948 -0.999775 
-0.000290986 0.0155394 -0.999879 
0.000246836 0.0123546 -0.999924 
-1.63997e-05 0.00992047 -0.999951 
-2.43959e-06 0.00738185 -0.999973 
2.26098e-05 0.00540882 -0.999985 
3.95193e-05 0.00355193 -0.999994 
4.22927e-06 0.002473 -0.999997 
5.13535e-06 0.00168284 -0.999999 
1.68872e-05 0.0011863 -0.999999 
-3.35967e-06 0.000852876 -1 
4.71432e-06 0.000516573 -1 
1.33255e-06 0.000193791 -1 
1.97488e-06 -6.06429e-05 -1 
1.68548e-06 -0.000229258 -1 
-8.83654e-07 -0.000304001 -1 
9.51176e-07 -0.000312763 -1 
-1.02999e-06 -0.000292727 -1 
-4.90138e-07 -0.000268645 -1 
-5.92275e-07 -0.000247781 -1 
-1.9567e-07 -0.000234159 -1 
-8.38579e-07 -0.000225172 -1 
2.69068e-07 -0.000208482 -1 
-5.16054e-07 -0.00018538 -1 
-1.72031e-07 -0.000156392 -1 
8.23372e-08 -0.000131265 -1 
-1.30371e-07 -0.000111086 -1 
1.73988e-07 -9.05848e-05 -1 
1.11785e-07 -7.56285e-05 -1 
-2.74625e-08 -6.14744e-05 -1 
-1.27546e-07 -5.22597e-05 -1 
5.60894e-07 -4.52318e-05 -1 
-1.00586e-06 -3.35847e-05 -1 
-1.42853e-05 -2.74654e-05 1 
-9.33186e-06 -4.00179e-05 1 
-8.7603e-06 -4.98181e-05 1 
-5.15626e-06 -5.78024e-05 1 
-1.79715e-06 -7.02912e-05 1 
2.63602e-06 -8.55994e-05 1 
7.38964e-06 -0.00010652 1 
1.37773e-05 -0.000128742 1 
2.14877e-05 -0.000152565 1 
2.71954e-05 -0.000174302 1 
2.8357e-05 -0.000193588 1 
2.69983e-05 -0.000210497 1 
2.91903e-05 -0.000226584 1 
3.10019e-05 -0.000243889 1 
2.8516e-05 -0.000255859 1 
1.36319e-05 -0.000256591 1 
-1.5352e-05 -0.000241179 1 
-5.94624e-05 -0.000176442 1 
-0.00012026 -4.25682e-05 1 
-0.000202917 0.00017137 1 
-0.000313569 0.000437214 1 
-0.000446831 0.000731693 1 
-0.000596041 0.00108803 0.999999 
-0.000787067 0.00160113 0.999998 
-0.00105046 0.00231217 0.999997 
-0.00128085 0.00316363 0.999994 
-0.00131779 0.00439344 0.999989 
-0.00126438 0.00648058 0.999978 
-0.00107814 0.0094206 0.999955 
-0.000712848 0.013465 0.999909 
-0.000450252 0.0197159 0.999806 
-0.000280747 0.0298478 0.999554 
0.00057841 0.0424111 0.9991 
0.00296799 0.0523351 0.998625 
0.00362058 0.0613323 0.998111 
0.00745379 0.0662875 0.997773 
0.00654188 0.0768451 0.997022 
0.0118558 0.0750624 0.997108 
0.0139833 0.0657651 0.997737 
0.0117869 0.0543518 0.998452 
-0.000315814 0.00599641 -0.999982 
-0.00335167 0.0186894 -0.99982 
-0.0029642 0.0268247 -0.999636 
-0.00211212 0.0262031 -0.999654 
-0.00044805 0.0267959 -0.999641 
0.000391895 0.0244037 -0.999702 
0.00111408 0.0205451 -0.999788 
0.00184346 0.0170009 -0.999854 
0.00171378 0.0131997 -0.999911 
0.00137878 0.0103855 -0.999945 
0.00123395 0.00777637 -0.999969 
0.00135236 0.0055037 -0.999984 
0.00114121 0.00384604 -0.999992 
0.000762043 0.00270875 -0.999996 
0.000561766 0.001825 -0.999998 
0.000494059 0.00122767 -0.999999 
0.000409739 0.000860878 -1 
0.000300483 0.000562062 -1 
0.000210476 0.00028044 -1 
0.000136488 2.34136e-05 -1 
8.30585e-05 -0.000124091 -1 
3.47393e-05 -0.000221734 -1 
1.53147e-06 -0.000253464 -1 
-1.84256e-05 -0.000260438 -1 
-2.80374e-05 -0.000254411 -1 
-3.11359e-05 -0.000240824 -1 
-3.05343e-05 -0.000225904 -1 
-2.97484e-05 -0.000210813 -1 
-3.06116e-05 -0.000191813 -1 
-2.47345e-05 -0.000172465 -1 
-1.92789e-05 -0.000149662 -1 
-1.24022e-05 -0.000127883 -1 
-6.63058e-06 -0.000105682 -1 
-2.80216e-06 -8.63733e-05 -1 
5.84279e-07 -7.09388e-05 -1 
4.72934e-06 -6.05467e-05 -1 
7.65553e-06 -5.32834e-05 -1 
7.42239e-06 -4.43759e-05 -1 
1.15716e-05 -3.22107e-05 -1 
-2.19943e-05 -3.37195e-05 1 
-1.61232e-05 -4.77266e-05 1 
-1.45924e-05 -5.66325e-05 1 
-1.0321e-05 -6.41148e-05 1 
-5.2782e-06 -7.57803e-05 1 
1.93371e-06 -9.27674e-05 1 
9.5583e-06 -0.00011488 1 
1.86144e-05 -0.000135073 1 
3.02161e-05 -0.000155118 1 
4.36711e-05 -0.000174538 1 
5.45073e-05 -0.000191985 1 
5.95677e-05 -0.000208166 1 
6.22601e-05 -0.000223285 1 
6.10808e-05 -0.000235654 1 
5.35801e-05 -0.00023827 1 
3.38038e-05 -0.000220332 1 
-1.7307e-06 -0.000184827 1 
-5.57344e-05 -9.67473e-05 1 
-0.000140701 6.41418e-05 1 
-0.00026636 0.000305128 1 
-0.000447334 0.000589828 1 
-0.000687206 0.000879197 0.999999 
-0.00098117 0.0012513 0.999999 
-0.0013429 0.00187112 0.999997 
-0.00175011 0.00268518 0.999995 
-0.00207327 0.0035028 0.999992 
-0.00212867 0.00456095 0.999987 
-0.00208673 0.00665354 0.999976 
-0.00177049 0.00990344 0.999949 
-0.00076266 0.0139505 0.999902 
0.000851224 0.0198069 0.999803 
0.00256107 0.0291146 0.999573 
0.00508768 0.0378079 0.999272 
0.00953061 0.0432056 0.999021 
0.0129968 0.0530451 0.998508 
0.0204466 0.0499469 0.998543 
0.0138108 0.0656583 0.997747 
0.0125524 0.0725692 0.997284 
0.0174165 0.064742 0.99775 
0.0171048 0.0587813 0.998124 
0.0010215 0.00766112 -0.99997 
-0.00304807 0.0248923 -0.999685 
-0.00308692 0.0247837 -0.999688 
-0.00616193 0.0237262 -0.9997 
-0.00240549 0.0240797 -0.999707 
-0.000496744 0.0249052 -0.99969 
0.000448088 0.0226467 -0.999743 
0.00183399 0.0170487 -0.999853 
0.00183451 0.0135608 -0.999906 
0.0018821 0.0105709 -0.999942 
0.00194676 0.00802942 -0.999966 
0.00207954 0.00577846 -0.999981 
0.00178756 0.00413306 -0.99999 
0.00130256 0.00305547 -0.999994 
0.00104104 0.00213215 -0.999997 
0.00090304 0.00143347 -0.999999 
0.00070367 0.00104164 -0.999999 
0.000482006 0.000766298 -1 
0.000311027 0.00047882 -1 
0.000194067 0.000194808 -1 
0.000110593 3.71011e-06 -1 
4.29626e-05 -0.000130483 -1 
-3.35971e-06 -0.000195779 -1 
-3.20602e-05 -0.00022922 -1 
-4.95676e-05 -0.000241184 -1 
-6.05661e-05 -0.000233795 -1 
-6.45973e-05 -0.000222965 -1 
-6.23151e-05 -0.000207697 -1 
-5.45945e-05 -0.000192444 -1 
-3.95456e-05 -0.000173788 -1 
-2.76514e-05 -0.00015487 -1 
-1.62853e-05 -0.000134271 -1 
-7.95469e-06 -0.00011152 -1 
-2.34883e-06 -9.40744e-05 -1 
3.03451e-06 -7.73114e-05 -1 
8.73317e-06 -6.64613e-05 -1 
1.28644e-05 -5.9417e-05 -1 
1.36318e-05 -5.0932e-05 -1 
1.86639e-05 -3.77349e-05 -1 
-2.73305e-05 -4.21486e-05 1 
-2.10315e-05 -5.32661e-05 1 
-1.92729e-05 -6.09787e-05 1 
-1.60009e-05 -6.86249e-05 1 
-9.97266e-06 -8.20711e-05 1 
-4.85264e-07 -0.000101499 1 
9.27466e-06 -0.000126408 1 
2.11899e-05 -0.000148543 1 
3.60599e-05 -0.000167968 1 
5.34439e-05 -0.000186984 1 
6.88936e-05 -0.000204092 1 
7.73643e-05 -0.000218522 1 
7.86761e-05 -0.000228792 1 
7.35873e-05 -0.000230662 1 
6.08598e-05 -0.000219066 1 
3.84237e-05 -0.000184473 1 
3.73213e-06 -0.000123821 1 
-5.12579e-05 -1.59367e-06 1 
-0.000136589 0.000198964 1 
-0.000266557 0.00047678 1 
-0.000462495 0.000790312 1 
-0.000736626 0.00109932 0.999999 
-0.00108293 0.00148779 0.999998 
-0.00152189 0.00217131 0.999996 
-0.00198501 0.00307908 0.999993 
-0.00228658 0.00380942 0.99999 
-0.00235205 0.00466258 0.999986 
-0.00221567 0.00641263 0.999977 
-0.00170907 0.00938199 0.999955 
2.82505e-05 0.013373 0.999911 
0.00318302 0.0188084 0.999818 
0.00663218 0.0266332 0.999623 
0.0111592 0.0315418 0.99944 
0.0164651 0.0375799 0.999158 
0.0222514 0.0347201 0.999149 
0.0284028 0.0402228 0.998787 
0.0291071 0.0519151 0.998227 
0.020794 0.0605987 0.997946 
0.024404 0.0579616 0.99802 
0.0053437 0.0396307 0.9992 
-0.000506638 0.0109502 -0.99994 
-0.00263146 0.0187331 -0.999821 
-0.00655138 0.024108 -0.999688 
-0.0117753 0.0236398 -0.999651 
-0.00891554 0.0215591 -0.999728 
-0.00448105 0.0217389 -0.999754 
-0.0014308 0.0210411 -0.999778 
0.000519894 0.0188408 -0.999822 
-0.000178762 0.0146734 -0.999892 
0.000978158 0.0114663 -0.999934 
0.00185279 0.00876567 -0.99996 
0.00213086 0.00620295 -0.999978 
0.00182114 0.00446346 -0.999988 
0.00138512 0.00336142 -0.999993 
0.00114885 0.00235411 -0.999997 
0.000986847 0.00160247 -0.999998 
0.000738438 0.00121009 -0.999999 
0.000483876 0.000942888 -0.999999 
0.000295013 0.000657783 -1 
0.000182919 0.000336867 -1 
0.000102311 9.87291e-05 -1 
3.91927e-05 -6.18266e-05 -1 
-8.34614e-06 -0.000153186 -1 
-3.89223e-05 -0.000203356 -1 
-5.89021e-05 -0.000223923 -1 
-7.32131e-05 -0.000226809 -1 
-7.927e-05 -0.000220282 -1 
-7.68254e-05 -0.000212439 -1 
-6.56281e-05 -0.00020248 -1 
-4.78278e-05 -0.000183872 -1 
-3.04692e-05 -0.000164951 -1 
-1.64736e-05 -0.00014504 -1 
-7.25417e-06 -0.00012046 -1 
1.11646e-06 -9.94676e-05 -1 
7.41241e-06 -8.10135e-05 -1 
1.3615e-05 -7.05261e-05 -1 
1.68003e-05 -6.3819e-05 -1 
1.78189e-05 -5.63063e-05 -1 
2.36022e-05 -4.5006e-05 -1 
-2.75901e-05 -4.99005e-05 1 
-2.24511e-05 -6.04311e-05 1 
-2.17854e-05 -6.60102e-05 1 
-2.07861e-05 -7.24958e-05 1 
-1.6118e-05 -8.63934e-05 1 
-6.43456e-06 -0.000106655 1 
4.18667e-06 -0.000133957 1 
1.70485e-05 -0.000157737 1 
3.24564e-05 -0.000179409 1 
5.03944e-05 -0.000200972 1 
6.61823e-05 -0.000218771 1 
7.51761e-05 -0.000230195 1 
7.46839e-05 -0.000233526 1 
6.68855e-05 -0.000225114 1 
5.2566e-05 -0.000201694 1 
3.09122e-05 -0.000153704 1 
2.28211e-06 -7.09292e-05 1 
-3.77559e-05 7.44373e-05 1 
-0.000100651 0.000301189 1 
-0.000208323 0.000606558 1 
-0.000374131 0.000938423 0.999999 
-0.000612195 0.0012598 0.999999 
-0.000931988 0.00167945 0.999998 
-0.00133178 0.00237575 0.999996 
-0.00172934 0.00330766 0.999993 
-0.00198527 0.00404179 0.99999 
-0.00191831 0.00470464 0.999987 
-0.0015579 0.00619629 0.99998 
-0.000821238 0.00893937 0.99996 
0.00130064 0.012241 0.999924 
0.00552495 0.0165968 0.999847 
0.010021 0.0215288 0.999718 
0.0155163 0.027527 0.999501 
0.0217395 0.0257949 0.999431 
0.0300594 0.0265949 0.999194 
0.0385598 0.0300353 0.998805 
0.0382587 0.0431427 0.998336 
0.042082 0.0499625 0.997864 
0.0318859 0.0551763 0.997967 
0.0226527 0.05499 0.99823 
-0.00327283 0.0190179 -0.999814 
-0.00421287 0.0237486 -0.999709 
-0.0109439 0.0248398 -0.999632 
-0.017587 0.0236606 -0.999565 
-0.0141268 0.020422 -0.999692 
-0.00941395 0.0178725 -0.999796 
-0.0056224 0.0180677 -0.999821 
-0.00272207 0.0168618 -0.999854 
-0.00223618 0.0131627 -0.999911 
-0.000260162 0.0105921 -0.999944 
0.00115245 0.00800787 -0.999967 
0.00154127 0.00564627 -0.999983 
0.0012746 0.00416761 -0.999991 
0.00101034 0.00320207 -0.999994 
0.000887277 0.00223892 -0.999997 
0.000746272 0.0015874 -0.999998 
0.000531255 0.00128943 -0.999999 
0.000324767 0.00104352 -0.999999 
0.000182724 0.000719203 -1 
0.000117726 0.000382908 -1 
7.07729e-05 0.000122872 -1 
2.89752e-05 -3.75545e-05 -1 
-6.74546e-06 -0.000131545 -1 
-3.45095e-05 -0.000186981 -1 
-5.56576e-05 -0.000213854 -1 
-6.91203e-05 -0.000221859 -1 
-7.59902e-05 -0.00022217 -1 
-7.33436e-05 -0.000220299 -1 
-6.16734e-05 -0.000215476 -1 
-4.54943e-05 -0.000196451 -1 
-2.69813e-05 -0.000177667 -1 
-1.13174e-05 -0.000153387 -1 
-1.82831e-06 -0.000127116 -1 
7.15177e-06 -0.000105134 -1 
1.31296e-05 -8.56876e-05 -1 
1.80503e-05 -7.44064e-05 -1 
1.87024e-05 -6.79155e-05 -1 
1.91524e-05 -6.24679e-05 -1 
2.32437e-05 -5.40085e-05 -1 
-2.0025e-05 -5.85966e-05 1 
-2.03024e-05 -6.52901e-05 1 
-2.03529e-05 -6.82496e-05 1 
-2.32845e-05 -7.46478e-05 1 
-2.23172e-05 -8.61719e-05 1 
-1.48984e-05 -0.000107219 1 
-4.59944e-06 -0.000132146 1 
8.18346e-06 -0.00015876 1 
2.20775e-05 -0.000183716 1 
3.79452e-05 -0.000206951 1 
5.37909e-05 -0.000227493 1 
6.48719e-05 -0.000237395 1 
6.66597e-05 -0.000238171 1 
6.03406e-05 -0.000228817 1 
4.8021e-05 -0.00020558 1 
3.18008e-05 -0.000161864 1 
1.27531e-05 -8.30728e-05 1 
-7.19136e-06 4.03984e-05 1 
-3.60384e-05 0.000241025 1 
-9.25329e-05 0.000528047 1 
-0.000191387 0.000864702 1 
-0.000345708 0.00119763 0.999999 
-0.000569461 0.00155214 0.999999 
-0.000868227 0.00212852 0.999997 
-0.00118151 0.00297253 0.999995 
-0.00144925 0.0038152 0.999992 
-0.00147728 0.00436025 0.999989 
-0.00106666 0.00523231 0.999986 
-0.00032159 0.0071598 0.999974 
0.00113453 0.00957097 0.999954 
0.0044862 0.0123127 0.999914 
0.00944729 0.0149834 0.999843 
0.0146489 0.020023 0.999692 
0.0190498 0.0176356 0.999663 
0.0261888 0.0178671 0.999497 
0.0353373 0.015843 0.99925 
0.0486459 0.0236316 0.998536 
0.0510283 0.0389066 0.997939 
0.0332452 0.0558111 0.997888 
0.0137945 0.0524449 0.998529 
-0.00637415 0.0250525 -0.999666 
-0.0146468 0.027392 -0.999517 
-0.0226693 0.0257258 -0.999412 
-0.0222396 0.0190787 -0.999571 
-0.0176336 0.0161703 -0.999714 
-0.0128412 0.0157479 -0.999794 
-0.00843329 0.0138108 -0.999869 
-0.0054763 0.0141663 -0.999885 
-0.00375993 0.0113655 -0.999928 
-0.00137403 0.00954905 -0.999953 
0.000266202 0.00735907 -0.999973 
0.000866227 0.00523201 -0.999986 
0.000751594 0.00405909 -0.999991 
0.00062132 0.00311147 -0.999995 
0.000564058 0.00220142 -0.999997 
0.000476632 0.00164238 -0.999999 
0.00032176 0.0013795 -0.999999 
0.000171813 0.00113019 -0.999999 
8.95649e-05 0.000796509 -1 
6.72463e-05 0.000442678 -1 
5.37414e-05 0.000176983 -1 
3.15959e-05 -1.93632e-06 -1 
5.95081e-06 -0.000104931 -1 
-2.02599e-05 -0.000167434 -1 
-4.45665e-05 -0.000202779 -1 
-6.02941e-05 -0.000217361 -1 
-6.8001e-05 -0.000223605 -1 
-6.63055e-05 -0.000226952 -1 
-5.55043e-05 -0.000225602 -1 
-4.03292e-05 -0.000210686 -1 
-2.09279e-05 -0.000187293 -1 
-6.40054e-06 -0.000162842 -1 
3.02159e-06 -0.000135419 -1 
1.24801e-05 -0.000111393 -1 
1.83545e-05 -9.04752e-05 -1 
2.07571e-05 -7.78035e-05 -1 
1.79321e-05 -7.07535e-05 -1 
1.62213e-05 -6.73621e-05 -1 
1.58763e-05 -6.11961e-05 -1 
-7.71444e-06 -6.29985e-05 1 
-1.24126e-05 -6.7311e-05 1 
-1.90579e-05 -7.11453e-05 1 
-2.42017e-05 -8.13173e-05 1 
-2.39373e-05 -9.78595e-05 1 
-1.69176e-05 -0.000121468 1 
-4.67531e-06 -0.00014849 1 
8.1453e-06 -0.000176027 1 
2.13577e-05 -0.000203776 1 
3.5826e-05 -0.000227864 1 
4.90902e-05 -0.000242902 1 
5.60995e-05 -0.00024436 1 
5.55264e-05 -0.000237568 1 
4.79872e-05 -0.000221494 1 
3.60318e-05 -0.000188248 1 
2.31848e-05 -0.000130308 1 
1.31973e-05 -4.19543e-05 1 
3.76304e-06 9.96501e-05 1 
-1.19473e-05 0.00032367 1 
-4.51965e-05 0.000624431 1 
-0.000111072 0.000972209 1 
-0.000229827 0.00131842 0.999999 
-0.000415424 0.00169132 0.999998 
-0.000634129 0.00225875 0.999997 
-0.000886474 0.00313135 0.999995 
-0.00106309 0.00397224 0.999992 
-0.000912573 0.00444747 0.99999 
-0.000307219 0.00535305 0.999986 
0.00079765 0.00698262 0.999975 
0.00286686 0.00904396 0.999955 
0.0063677 0.0104866 0.999925 
0.0122126 0.0128572 0.999843 
0.0180823 0.0115214 0.99977 
0.02469 0.0103274 0.999642 
0.0319021 0.00598633 0.999473 
0.0468708 0.00847159 0.998865 
0.0657571 0.0238259 0.997551 
0.0660474 0.0447315 0.996813 
0.0488194 0.0560402 0.997234 
-0.00195904 0.0187096 -0.999823 
-0.00690272 0.0288465 -0.99956 
-0.0158359 0.0340931 -0.999293 
-0.028822 0.0291822 -0.999158 
-0.0299608 0.0164745 -0.999415 
-0.0222469 0.0115425 -0.999686 
-0.0156949 0.0114437 -0.999811 
-0.0112121 0.0121254 -0.999864 
-0.00635321 0.0106222 -0.999923 
-0.00341457 0.00883873 -0.999955 
-0.00146652 0.00757825 -0.99997 
-7.82828e-05 0.00600835 -0.999982 
0.00031896 0.00451891 -0.99999 
0.000312274 0.00351325 -0.999994 
0.000260162 0.00268079 -0.999996 
0.000261259 0.0019617 -0.999998 
0.000202656 0.00156193 -0.999999 
8.81537e-05 0.00135641 -0.999999 
9.83584e-06 0.00108721 -0.999999 
2.99165e-06 0.000725125 -1 
2.66327e-05 0.000391941 -1 
3.94454e-05 0.000137267 -1 
3.04947e-05 -1.70468e-05 -1 
1.01043e-05 -0.000109342 -1 
-1.6907e-05 -0.000166262 -1 
-4.1018e-05 -0.000198257 -1 
-5.65882e-05 -0.000215578 -1 
-6.08582e-05 -0.000224531 -1 
-5.65822e-05 -0.000231899 -1 
-4.53381e-05 -0.000234971 -1 
-3.14134e-05 -0.000220083 -1 
-1.49253e-05 -0.000198773 -1 
-1.16261e-06 -0.000169438 -1 
8.59702e-06 -0.00013971 -1 
1.77468e-05 -0.00011535 -1 
2.21007e-05 -9.43104e-05 -1 
2.13492e-05 -8.04604e-05 -1 
1.48006e-05 -7.08246e-05 -1 
9.46274e-06 -6.85592e-05 -1 
2.29663e-06 -6.34492e-05 -1 
8.16091e-06 -5.83767e-05 1 
-3.53059e-06 -6.39285e-05 1 
-1.41354e-05 -6.84865e-05 1 
-2.23028e-05 -8.12318e-05 1 
-2.52779e-05 -0.000100429 1 
-2.00521e-05 -0.000124363 1 
-8.83211e-06 -0.000152351 1 
4.01357e-06 -0.000182377 1 
1.61439e-05 -0.000212842 1 
2.79789e-05 -0.000238194 1 
3.83794e-05 -0.000251079 1 
4.4351e-05 -0.000249557 1 
4.54928e-05 -0.000240262 1 
4.12613e-05 -0.000223987 1 
3.21361e-05 -0.000192151 1 
2.21467e-05 -0.000140172 1 
1.53868e-05 -6.3576e-05 1 
1.37637e-05 5.6564e-05 1 
1.55729e-05 0.000243878 1 
1.67467e-05 0.000511644 1 
3.65067e-06 0.000842689 1 
-4.7814e-05 0.0011933 0.999999 
-0.000160672 0.00152842 0.999999 
-0.000321351 0.00194565 0.999998 
-0.00052617 0.00264037 0.999996 
-0.000700818 0.00356783 0.999993 
-0.000635991 0.00409305 0.999991 
-0.00023386 0.00455415 0.99999 
0.000662957 0.00539035 0.999985 
0.00215704 0.00685502 0.999974 
0.00450328 0.0076601 0.999961 
0.00888915 0.00906792 0.999919 
0.0136189 0.00833563 0.999873 
0.0195405 0.00430754 0.9998 
0.0276147 -0.00157376 0.999617 
0.0457488 -0.00552962 0.998938 
0.0720254 0.00668686 0.99738 
0.092717 0.0506729 0.994402 
0.0564418 0.0765584 0.995466 
0.025269 0.063955 0.997633 
-0.00393985 0.0349748 -0.99938 
-0.0197297 0.047613 -0.998671 
-0.0403071 0.0258625 -0.998853 
-0.037127 0.0106278 -0.999254 
-0.0250058 0.00591662 -0.99967 
-0.0161688 0.00639708 -0.999849 
-0.0117393 0.00802504 -0.999899 
-0.00817971 0.00875109 -0.999928 
-0.00437614 0.00742936 -0.999963 
-0.00195388 0.00616319 -0.999979 
-0.000637572 0.00537494 -0.999985 
-9.04436e-05 0.00411138 -0.999992 
1.25676e-05 0.00323063 -0.999995 
7.65099e-06 0.0023779 -0.999997 
4.76821e-05 0.00181479 -0.999998 
1.12187e-05 0.00153122 -0.999999 
-7.70457e-05 0.00134687 -0.999999 
-0.000108518 0.00106298 -0.999999 
-6.57461e-05 0.000708903 -1 
-5.38695e-06 0.000379153 -1 
3.4337e-05 0.000145134 -1 
3.96166e-05 -1.13095e-05 -1 
2.26658e-05 -0.000100839 -1 
-5.58308e-06 -0.000153629 -1 
-3.26481e-05 -0.000187718 -1 
-4.89355e-05 -0.00020896 -1 
-5.26954e-05 -0.000222543 -1 
-4.87222e-05 -0.000234052 -1 
-3.9653e-05 -0.000240766 -1 
-2.62364e-05 -0.000232024 -1 
-1.06139e-05 -0.000208267 -1 
1.85717e-06 -0.000179298 -1 
1.17175e-05 -0.000147796 -1 
1.99922e-05 -0.00012279 -1 
2.33885e-05 -9.90838e-05 -1 
2.02866e-05 -8.15035e-05 -1 
1.10858e-05 -6.77261e-05 -1 
1.30593e-06 -6.42476e-05 -1 
-1.26297e-05 -5.7798e-05 -1 
2.21739e-05 -4.64741e-05 1 
4.45283e-06 -5.39625e-05 1 
-9.38182e-06 -6.30299e-05 1 
-1.90846e-05 -7.98663e-05 1 
-2.28914e-05 -0.000104176 1 
-1.83811e-05 -0.00013279 1 
-8.2749e-06 -0.000164461 1 
3.74812e-06 -0.000196452 1 
1.48189e-05 -0.000227188 1 
2.42097e-05 -0.000250044 1 
3.11826e-05 -0.000259574 1 
3.33483e-05 -0.000252561 1 
3.3202e-05 -0.000239787 1 
2.98405e-05 -0.000218911 1 
2.22701e-05 -0.000182132 1 
1.40393e-05 -0.000130354 1 
9.21105e-06 -5.88035e-05 1 
1.04149e-05 4.66377e-05 1 
1.9514e-05 0.00021388 1 
3.86007e-05 0.000453497 1 
5.74655e-05 0.000768851 1 
4.47426e-05 0.00113333 0.999999 
-2.3699e-05 0.00147002 0.999999 
-0.000165329 0.00185578 0.999998 
-0.000343206 0.00244578 0.999997 
-0.000475567 0.00325114 0.999995 
-0.000426014 0.00374086 0.999993 
-0.000159828 0.00404654 0.999992 