# vtk DataFile Version 3.0 
Exported using Morpho https://github.com/Morpho-lang/morpho 
ASCII 
DATASET UNSTRUCTURED_GRID 

POINTS 1978 float 
-12 -4.00001 4.63628e-11 
-11.6265 -4.00002 1.93289e-10 
-11.3327 -4.00001 -1.27907e-13 
-10.9867 -4.00001 1.13609e-10 
-10.6659 -4.00002 4.58397e-11 
-10.313 -4.00001 6.63247e-11 
-9.99584 -4.00001 1.76191e-10 
-9.65562 -4.00001 3.69008e-11 
-9.32043 -4.00002 1.80777e-10 
-9.00718 -4.00001 1.16791e-10 
-8.69773 -4.00001 -2.43182e-11 
-8.38309 -4.00001 2.16985e-11 
-8.07813 -4.00001 -3.17306e-10 
-7.76661 -4.00001 -2.06753e-10 
-7.48104 -4.00001 1.17088e-10 
-7.19434 -4.00001 1.51395e-10 
-6.90719 -4.00001 4.65743e-10 
-6.59656 -4.00001 1.17689e-10 
-6.2935 -4.00001 -5.69681e-11 
-5.98871 -4.00001 -2.84018e-10 
-5.6906 -4.00001 -2.2296e-10 
-5.40009 -4.00001 3.97391e-10 
-5.11 -4.00001 6.5279e-10 
-4.81354 -4.00001 -7.40479e-10 
-4.50974 -4.00001 -1.9415e-09 
-4.2077 -4.00002 -2.32078e-09 
-3.91283 -4.00001 -3.25648e-09 
-3.60997 -4.00002 -7.13566e-10 
-3.3057 -4.00001 1.39015e-09 
-3.02638 -4.00001 2.54081e-09 
-2.73442 -4.00001 -4.71796e-09 
-2.4652 -4.00001 1.64915e-09 
-2.18884 -4.00001 6.5556e-09 
-1.95166 -4.00001 3.27379e-08 
-1.75902 -4.00001 6.5215e-08 
-1.56866 -4.00001 8.73506e-08 
-1.31294 -4.00003 7.77593e-08 
-1.08553 -4.00001 1.07479e-06 
-0.564655 -4.00018 -4.24509e-06 
-0.236622 -3.99923 -1.90151e-05 
0.467586 -3.99963 4.8264e-06 
0.792186 -3.99995 7.22465e-07 
1.04909 -4.00004 2.15759e-07 
1.30123 -4.00004 -5.11501e-08 
1.58343 -3.99999 -5.76537e-08 
1.8735 -4.00002 -5.70973e-09 
2.20393 -3.99999 -1.53513e-09 
2.51224 -4.00003 1.25347e-08 
2.74703 -4 -4.31914e-09 
3.03718 -4.00002 -1.08625e-09 
3.32551 -4.00001 -1.22462e-09 
3.60483 -4.00002 2.8815e-09 
3.89867 -4.00001 9.37471e-10 
4.19279 -4.00001 1.92375e-09 
4.49389 -4.00001 2.24353e-09 
4.80071 -4.00001 8.18476e-10 
5.10336 -4.00001 -1.24418e-09 
5.40676 -4.00001 -8.80176e-11 
5.70869 -4.00001 5.19766e-10 
5.99736 -4.00001 1.52285e-10 
6.30133 -4.00001 -1.03306e-10 
6.57721 -4.00001 -4.11653e-10 
6.8783 -4.00001 -2.46489e-10 
7.17166 -4.00001 -1.53878e-10 
7.46927 -4.00001 -9.5478e-11 
7.77272 -4.00001 1.57244e-10 
8.07194 -4.00001 3.03725e-10 
8.37359 -4.00002 1.24374e-10 
8.67818 -4.00001 9.71968e-11 
8.95866 -4.00001 -2.68975e-10 
9.29799 -4.00002 -1.27137e-10 
9.61903 -4.00001 -6.65546e-11 
9.92588 -4.00001 -2.40597e-10 
10.292 -4.00002 -1.95525e-11 
10.6215 -4.00002 -2.07457e-10 
10.9921 -4.00002 -6.80803e-11 
11.3109 -4.00001 -6.33297e-11 
11.6015 -4.00002 -1.57228e-10 
12 -4.00001 -2.26575e-11 
-12 -3.62214 -1.493e-10 
-11.7039 -3.69933 3.37551e-21 
-11.3601 -3.61987 7.1201e-22 
-11.0537 -3.67581 4.02203e-21 
-10.7128 -3.6527 -1.75119e-21 
-10.392 -3.6872 1.60437e-20 
-10.0499 -3.65816 1.00787e-20 
-9.72411 -3.68353 7.05245e-22 
-9.38297 -3.68061 1.78152e-20 
-9.05441 -3.66316 3.9288e-20 
-8.73949 -3.66295 1.80102e-20 
-8.4239 -3.67059 1.66962e-20 
-8.10577 -3.66136 -1.16602e-20 
-7.79566 -3.66991 -2.72102e-20 
-7.48332 -3.64234 -2.96152e-20 
-7.19054 -3.64603 3.2859e-20 
-6.87763 -3.6751 -2.13859e-20 
-6.56999 -3.6693 -8.60233e-20 
-6.26346 -3.67313 -1.5247e-19 
-5.96148 -3.66952 -1.60275e-19 
-5.66569 -3.66259 -1.62837e-19 
-5.3707 -3.66299 -2.24781e-19 
-5.06888 -3.67047 -5.43825e-19 
-4.75954 -3.68027 -4.7687e-19 
-4.45014 -3.67952 -6.36733e-20 
-4.14209 -3.67395 -7.7118e-19 
-3.82526 -3.68836 -1.46837e-18 
-3.51315 -3.69086 -4.87303e-19 
-3.20859 -3.66201 -6.36465e-19 
-2.90078 -3.67841 2.30191e-18 
-2.60625 -3.64877 3.83755e-18 
-2.31868 -3.66591 8.18235e-18 
-2.04017 -3.6432 1.0089e-17 
-1.79932 -3.59558 5.8001e-17 
-1.59991 -3.60035 -1.65498e-17 
-1.41636 -3.60946 4.27865e-17 
-1.31203 -3.79101 5.42623e-17 
-0.928708 -3.89093 -9.24416e-16 
-0.781848 -3.76927 -4.80587e-16 
-0.41684 -3.70017 -1.0549e-14 
0.550545 -3.79837 4.54532e-14 
0.89486 -3.72515 1.89108e-17 
1.24344 -3.77081 -3.92516e-18 
1.4648 -3.67674 -7.3516e-18 
1.7246 -3.69033 1.81849e-18 
1.98684 -3.7157 1.07153e-18 
2.22026 -3.58878 1.22036e-18 
2.45169 -3.70594 6.9722e-18 
2.71976 -3.62443 2.51387e-18 
2.98246 -3.68668 -4.12942e-18 
3.28817 -3.68387 -8.81766e-19 
3.59356 -3.66717 4.30563e-18 
3.89397 -3.66652 -2.02186e-18 
4.20544 -3.67627 7.96126e-20 
4.51869 -3.67849 5.49916e-19 
4.82477 -3.66852 7.54735e-19 
5.13533 -3.67345 8.79266e-20 
5.44524 -3.67458 2.14047e-19 
5.74292 -3.66154 1.24308e-19 
6.0442 -3.67618 1.47894e-19 
6.33099 -3.64164 5.299e-20 
6.63027 -3.6689 3.24015e-21 
6.93 -3.65874 1.35267e-20 
7.23093 -3.66149 -1.22741e-20 
7.53745 -3.66723 2.14401e-20 
7.8395 -3.65861 1.45925e-20 
8.14344 -3.66035 3.68704e-14 
8.44436 -3.66143 -5.2931e-21 
8.73617 -3.63212 -1.88002e-20 
9.05705 -3.69498 -3.41302e-20 
9.38347 -3.6744 -1.46477e-21 
9.69747 -3.65444 -7.23972e-21 
10.0436 -3.70791 -1.67439e-20 
10.3841 -3.67149 -4.85012e-21 
10.7419 -3.70514 -9.31004e-21 
11.0724 -3.65377 -1.35949e-21 
11.3745 -3.6184 -2.08747e-21 
11.7188 -3.72044 -1.64863e-21 
12 -3.60707 1.65328e-10 
-12 -3.3262 -1.02996e-10 
-11.6279 -3.35079 -2.98183e-21 
-11.285 -3.27373 -1.12696e-21 
-10.9726 -3.33911 3.01053e-21 
-10.6551 -3.30699 -7.23256e-22 
-10.3423 -3.3537 1.78535e-21 
-10.0338 -3.30332 -3.23183e-21 
-9.73219 -3.34619 6.51458e-22 
-9.41867 -3.35986 4.62616e-14 
-9.09697 -3.33412 -2.41445e-14 
-8.78408 -3.32422 -1.99139e-21 
-8.47591 -3.33603 -1.63928e-21 
-8.16624 -3.33406 -3.64571e-15 
-7.84971 -3.3338 2.86589e-21 
-7.5446 -3.31826 -2.76738e-21 
-7.233 -3.29794 -1.25537e-21 
-6.93088 -3.3455 -5.80603e-22 
-6.6217 -3.34269 1.94964e-21 
-6.31122 -3.34566 5.26102e-22 
-6.00569 -3.34201 1.07908e-21 
-5.70282 -3.33202 -2.38323e-21 
-5.40076 -3.3314 -5.21589e-20 
-5.09823 -3.34638 4.29329e-20 
-4.78658 -3.36247 -1.34441e-20 
-4.47223 -3.36143 -7.01997e-20 
-4.15889 -3.35692 6.43939e-20 
-3.83874 -3.38137 -3.45007e-19 
-3.51176 -3.37261 4.72777e-20 
-3.18111 -3.34799 -3.09025e-19 
-2.87175 -3.34655 9.34336e-19 
-2.56257 -3.31328 -2.59641e-18 
-2.25277 -3.33741 2.96867e-19 
-1.96434 -3.28881 2.08378e-18 
-1.71177 -3.21831 9.81823e-18 
-1.48116 -3.25073 -3.99592e-18 
-1.29699 -3.09426 1.39481e-17 
-1.26628 -3.45685 -1.19759e-17 
-1.10656 -3.69979 -2.69865e-17 
-0.965761 -3.53724 3.80045e-17 
-0.654263 -3.58877 5.31833e-16 
0.453942 -3.61199 -6.69224e-14 
1.18035 -3.53489 -8.65686e-18 
1.42449 -3.34116 3.71987e-18 
1.42777 -2.98584 2.98572e-18 
1.64619 -3.17553 -7.44613e-19 
1.75827 -3.35466 2.27969e-19 
2.01765 -3.34547 1.6376e-18 
2.42894 -3.35184 4.51029e-19 
2.68764 -3.28398 1.07259e-18 
2.9773 -3.34766 4.41143e-19 
3.26932 -3.37188 8.21419e-19 
3.57626 -3.35131 -6.08969e-19 
3.88255 -3.33727 1.06436e-18 
4.18813 -3.35282 3.24026e-19 
4.49268 -3.35561 2.78853e-19 
4.7973 -3.33678 2.61823e-19 
5.09894 -3.34774 -4.76542e-19 
5.40478 -3.35138 -4.38811e-20 
5.70909 -3.32965 2.11177e-20 
6.00841 -3.34045 -4.89774e-21 
6.3047 -3.30658 -7.48387e-21 
6.60496 -3.3334 -5.15716e-21 
6.90494 -3.32602 4.53443e-21 
7.21123 -3.32601 -4.9663e-21 
7.51661 -3.33604 -2.53868e-14 
7.82445 -3.3201 6.48842e-15 
8.1285 -3.32232 8.65407e-22 
8.43361 -3.31363 4.19882e-21 
8.752 -3.30548 -2.57082e-21 
9.07045 -3.3733 -3.93623e-21 
9.38806 -3.34032 4.836e-22 
9.7038 -3.31343 3.51656e-22 
10.0148 -3.39379 -1.28713e-21 
10.3142 -3.32405 6.53444e-22 
10.6394 -3.38934 -2.14514e-21 
10.9681 -3.33527 2.54703e-14 
11.2926 -3.26632 4.57207e-22 
11.6339 -3.36774 2.75345e-21 
12 -3.30462 7.42819e-11 
-12 -2.99382 -1.71082e-10 
-11.6683 -3.04118 -1.91836e-21 
-11.3279 -2.96075 1.08989e-21 
-10.9707 -2.98782 -2.02921e-21 
-10.6361 -2.97754 8.99874e-22 
-10.3049 -3.00257 -2.87604e-22 
-9.98125 -2.96015 1.04103e-21 
-9.67206 -3.00893 1.12639e-21 
-9.36042 -3.02241 -1.71043e-21 
-9.04741 -2.99325 6.77077e-22 
-8.73535 -2.98766 1.16011e-21 
-8.42768 -3.00093 1.17999e-21 
-8.11141 -3.00802 -3.90227e-22 
-7.80487 -2.99559 -1.79009e-21 
-7.49791 -2.98592 2.4344e-21 
-7.19337 -2.9636 2.17991e-21 
-6.89579 -3.01569 -2.29326e-21 
-6.58818 -3.01723 -2.5847e-21 
-6.28603 -3.0165 1.15941e-14 
-5.98644 -3.01261 -6.89877e-22 
-5.68418 -3.0056 -3.50806e-21 
-5.38457 -3.00312 7.61166e-21 
-5.08607 -3.02074 1.36701e-20 
-4.78352 -3.04578 -7.6639e-20 
-4.4802 -3.0331 1.67537e-20 
-4.17812 -3.03744 7.74691e-20 
-3.86189 -3.06958 -6.69813e-19 
-3.53798 -3.06678 7.21188e-19 
-3.2076 -3.04579 -4.28012e-19 
-2.86248 -3.01481 -9.76615e-19 
-2.52477 -2.9967 -9.51962e-19 
-2.20372 -3.01022 2.3533e-18 
-1.91849 -2.93374 3.29941e-18 
-1.59947 -2.92383 1.09064e-17 
-1.43943 -2.73668 -1.61095e-18 
-1.19067 -2.78647 -6.02487e-18 
-1.02247 -3.03508 -1.30718e-18 
-1.09153 -3.30088 -1.54768e-17 
-0.784685 -3.35012 -1.72573e-17 
-0.00923373 -3.83456 1.26991e-13 
0.207483 -3.49919 -1.75867e-13 
0.85649 -3.4938 4.63141e-16 
1.20255 -3.11344 5.44128e-19 
1.23405 -2.77113 1.76447e-18 
1.53039 -2.66287 -5.103e-19 
1.73013 -2.85632 -6.85259e-19 
1.98099 -2.97301 2.04614e-18 
2.25229 -3.11233 2.87416e-18 
2.52608 -2.95761 -2.07643e-19 
2.85734 -3.01351 -2.71161e-19 
3.17755 -3.0584 -2.97321e-19 
3.50275 -3.04336 1.85768e-20 
3.82756 -3.01695 -1.22531e-19 
4.14917 -3.03208 -1.60771e-19 
4.46553 -3.02805 -4.22446e-19 
4.78149 -3.0176 -3.75512e-19 
5.09508 -3.01631 6.24124e-19 
5.39609 -3.02578 2.7437e-21 
5.69454 -2.99955 8.13302e-22 
5.99363 -3.00935 -9.43261e-22 
6.29671 -2.97998 6.00527e-21 
6.60227 -3.00034 1.69764e-21 
6.91029 -2.99914 4.76884e-21 
7.21469 -2.99413 7.60546e-22 
7.51936 -3.00456 -3.54872e-22 
7.82504 -2.98372 -4.35831e-14 
8.12731 -2.9847 -9.50934e-22 
8.44085 -2.98623 -3.66594e-22 
8.74947 -2.96944 1.84182e-21 
9.06274 -3.04337 1.2718e-21 
9.37809 -3.00707 -1.24328e-14 
9.67794 -2.96411 -6.96788e-15 
9.99274 -3.04046 -4.26326e-16 
10.319 -2.99039 5.14929e-16 
10.645 -3.05466 5.73348e-22 
10.9738 -2.99683 6.33014e-22 
11.3206 -2.94584 -4.19013e-22 
11.6567 -3.05355 1.8707e-21 
12 -2.98175 1.38044e-10 
-12 -2.67804 -1.13578e-10 
-11.6533 -2.7088 -3.86077e-21 
-11.3313 -2.62296 5.45764e-22 
-11.005 -2.67609 -3.07682e-14 
-10.657 -2.64992 -1.08637e-21 
-10.3234 -2.67152 2.88659e-22 
[...]
POINT_DATA 1978 
VECTORS vectors float
-3.41782e-06 -3.02215e-05 1.00001 
-1.89727e-06 -3.95601e-05 1.00001 
4.05773e-07 -4.72154e-05 1.00001 
3.73856e-06 -5.8315e-05 1.00001 
7.85694e-06 -7.17753e-05 1.00001 
1.18523e-05 -8.90581e-05 1.00001 
1.70882e-05 -0.000108136 1.00001 
2.47965e-05 -0.000131928 1.00001 
3.21572e-05 -0.000160102 1.00001 
3.69118e-05 -0.000186122 1.00001 
3.80303e-05 -0.000208628 1.00001 
3.47111e-05 -0.000222028 1.00001 
3.63516e-05 -0.000232256 1.00001 
4.26118e-05 -0.000253688 1.00001 
4.50157e-05 -0.000279675 1.00001 
3.91149e-05 -0.000302744 1.00001 
1.38906e-05 -0.00031987 1.00001 
-4.42982e-05 -0.000294789 1.00001 
-0.000131164 -0.00019159 1.00001 
-0.000235416 5.87428e-06 1.00001 
-0.000352656 0.000285593 1.00001 
-0.000472272 0.00062194 1.00001 
-0.000583736 0.000940665 1.00001 
-0.000758011 0.00126171 1.00001 
-0.00108397 0.00178861 1.00001 
-0.00149554 0.00261763 1 
-0.00189584 0.00373638 0.999999 
-0.00231902 0.0055173 0.999989 
-0.00267854 0.00794722 0.999971 
-0.00307588 0.0108861 0.999942 
-0.00432363 0.0159509 0.99987 
-0.0065667 0.0238553 0.999702 
-0.00909848 0.0362101 0.999309 
-0.0106046 0.0503348 0.998678 
-0.00991213 0.0632665 0.997954 
-0.00783566 0.0763345 0.997066 
0.00178495 0.0972416 0.995272 
0.0125878 0.0865106 0.996195 
0.0197634 0.0619284 0.997871 
0.0129458 0.039284 0.999105 
-0.000309697 -0.000662955 -0.999973 
-0.00977228 0.0123068 -0.999885 
-0.00716322 0.0277393 -0.999593 
-0.00306661 0.0331062 -0.99946 
0.00322291 0.0318983 -0.999512 
0.00615188 0.0317163 -0.999476 
0.00508927 0.0212095 -0.999767 
0.00435155 0.0154869 -0.999878 
0.00272253 0.01229 -0.999927 
0.00252392 0.00996622 -0.999955 
0.00224457 0.00737205 -0.999977 
0.00215354 0.00541875 -0.999988 
0.00164913 0.00350024 -1 
0.00112808 0.00244448 -1 
0.000841993 0.00165871 -1.00001 
0.000623645 0.00117752 -1.00001 
0.000501071 0.000853433 -1.00001 
0.000399316 0.00051113 -1.00001 
0.00029874 0.00018268 -1.00001 
0.000194428 -7.51075e-05 -1.00001 
9.90371e-05 -0.000243331 -1.00001 
2.68856e-05 -0.000316066 -1.00001 
-2.17747e-05 -0.000320539 -1.00001 
-3.99992e-05 -0.000296674 -1.00001 
-4.20962e-05 -0.000270554 -1.00001 
-3.68262e-05 -0.000248773 -1.00001 
-3.41828e-05 -0.000235273 -1.00001 
-3.68066e-05 -0.00022734 -1.00001 
-3.84548e-05 -0.000210772 -1.00001 
-3.50564e-05 -0.000186761 -1.00001 
-3.08984e-05 -0.000157063 -1.00001 
-2.24804e-05 -0.000131468 -1.00001 
-1.63375e-05 -0.000111254 -1.00001 
-1.18417e-05 -9.07413e-05 -1.00001 
-7.84186e-06 -7.58324e-05 -1.00001 
-4.17617e-06 -6.14856e-05 -1.00001 
-8.60076e-07 -5.22343e-05 -1.00001 
1.54837e-06 -4.51912e-05 -1.00001 
2.69755e-06 -3.75937e-05 -1.00001 
-1.46761e-05 -3.33351e-05 1.00001 
-9.62238e-06 -4.00884e-05 1.00001 
-9.01429e-06 -5.00391e-05 1.00002 
-5.17658e-06 -5.79561e-05 1.00002 
-1.56279e-06 -7.03778e-05 1.00002 
3.21522e-06 -8.57517e-05 1.00002 
7.87493e-06 -0.00010705 1.00002 
1.50012e-05 -0.000129557 1.00002 
2.33708e-05 -0.000153565 1.00002 
2.87368e-05 -0.000175272 1.00002 
2.9032e-05 -0.00019469 1.00002 
2.66371e-05 -0.00021176 1.00002 
2.89192e-05 -0.000228266 1.00002 
3.23407e-05 -0.000246564 1.00002 
3.02201e-05 -0.000259346 1.00002 
1.50396e-05 -0.000260675 1.00002 
-1.60949e-05 -0.000247491 1.00002 
-6.33864e-05 -0.000184218 1.00002 
-0.00012764 -5.14855e-05 1.00002 
-0.000213065 0.000164305 1.00002 
-0.000327051 0.000432018 1.00002 
-0.00046397 0.000723714 1.00002 
-0.000613238 0.00107264 1.00001 
-0.000809472 0.00158866 1.00001 
-0.00109555 0.00231158 1.00001 
-0.00134886 0.0031479 1.00001 
-0.0013957 0.00434864 1.00001 
-0.00134224 0.0064628 0.999992 
-0.00113015 0.00942457 0.999972 
-0.000770252 0.0133988 0.999926 
-0.000585513 0.0195594 0.999825 
-0.000587327 0.0297398 0.999574 
0.000189243 0.0426865 0.999103 
0.002244 0.0530226 0.998609 
0.00397763 0.0613142 0.998124 
0.00697939 0.0686217 0.99765 
0.00691627 0.0784302 0.996908 
0.0147888 0.0757276 0.99707 
0.0158699 0.0672072 0.997612 
0.0130679 0.055897 0.998313 
0.000129911 0.00351876 -0.999972 
-0.00401833 0.0186956 -0.999831 
-0.00340768 0.0273112 -0.999637 
-0.00224366 0.0260744 -0.999687 
-0.000380824 0.0268336 -0.999661 
0.000478881 0.0246607 -0.999705 
0.00107353 0.0207052 -0.999803 
0.00223921 0.0171075 -0.999863 
0.00179321 0.0132351 -0.999928 
0.001482 0.0104234 -0.99996 
0.00126871 0.00781054 -0.999984 
0.00144742 0.00549852 -1 
0.0012167 0.0038305 -1.00001 
0.000773831 0.00270998 -1.00001 
0.000567072 0.00180945 -1.00001 
0.000509578 0.00120633 -1.00002 
0.00043005 0.000852615 -1.00002 
0.000315907 0.000559871 -1.00002 
0.000220143 0.000274295 -1.00002 
0.000145411 1.278e-05 -1.00001 
8.72844e-05 -0.000132859 -1.00002 
3.66367e-05 -0.000228564 -1.00002 
1.01584e-06 -0.000257881 -1.00002 
-1.99433e-05 -0.000264022 -1.00002 
-2.96812e-05 -0.000257678 -1.00002 
-3.18154e-05 -0.000243428 -1.00002 
-3.05207e-05 -0.000227759 -1.00002 
-2.99277e-05 -0.000212167 -1.00001 
-3.12734e-05 -0.000192696 -1.00002 
-2.6671e-05 -0.00017329 -1.00001 
-2.07802e-05 -0.000150589 -1.00002 
-1.31294e-05 -0.000128693 -1.00002 
-7.50386e-06 -0.000106135 -1.00001 
-3.3692e-06 -8.66293e-05 -1.00002 
1.00948e-07 -7.11325e-05 -1.00002 
4.75362e-06 -6.07917e-05 -1.00002 
7.89131e-06 -5.35711e-05 -1.00002 
7.71869e-06 -4.45014e-05 -1.00001 
1.18141e-05 -3.93086e-05 -1.00001 
-2.24738e-05 -4.02905e-05 1.00001 
-1.62635e-05 -4.80915e-05 1.00002 
-1.49452e-05 -5.71122e-05 1.00002 
-1.06658e-05 -6.4331e-05 1.00001 
-5.37236e-06 -7.57777e-05 1.00002 
1.97512e-06 -9.29784e-05 1.00002 
9.75461e-06 -0.000115651 1.00001 
1.8849e-05 -0.00013625 1.00002 
3.08726e-05 -0.00015631 1.00002 
4.51237e-05 -0.000175639 1.00002 
5.65488e-05 -0.000192979 1.00002 
6.16915e-05 -0.000209436 1.00002 
6.46361e-05 -0.000225103 1.00002 
6.36779e-05 -0.000238458 1.00002 
5.62642e-05 -0.000242188 1.00002 
3.63411e-05 -0.000224281 1.00002 
-1.45193e-07 -0.00018981 1.00001 
-5.45418e-05 -0.000102953 1.00002 
-0.000141301 5.84007e-05 1.00002 
-0.000270302 0.000305202 1.00002 
-0.000457108 0.000594901 1.00002 
-0.000706001 0.000877853 1.00002 
-0.00101001 0.00123875 1.00002 
-0.00138386 0.00187101 1.00001 
-0.00181863 0.00271983 1.00001 
-0.00216272 0.00351833 1.00001 
-0.00221082 0.00451922 1 
-0.00218639 0.00662498 0.999995 
-0.00191742 0.00999414 0.999965 
-0.000868184 0.0140245 0.999915 
0.000766961 0.0196911 0.999823 
0.00251491 0.0293465 0.999581 
0.00505693 0.0383439 0.999267 
0.0096131 0.0429192 0.999044 
0.0128943 0.0531386 0.998523 
0.0207177 0.0506588 0.99852 
0.0132958 0.0667803 0.997701 
0.0136442 0.0726787 0.997315 
0.0176642 0.0646397 0.997771 
0.0162219 0.0587089 0.998142 
-4.41439e-05 0.00732379 -0.999929 
-0.00287507 0.0255388 -0.999682 
-0.00320751 0.0249075 -0.999703 
-0.00630026 0.0239385 -0.999711 
-0.00215738 0.0245678 -0.999716 
-0.000307406 0.025236 -0.999697 
0.00064912 0.0231276 -0.999752 
0.00207333 0.0171391 -0.999868 
0.0019992 0.0135757 -0.999919 
0.00196069 0.010613 -0.999957 
0.00202405 0.00808232 -0.999982 
0.00219015 0.00577934 -0.999996 
0.00187606 0.004127 -1.00001 
0.00133169 0.00308074 -1.00001 
0.00107259 0.00214396 -1.00001 
0.000944248 0.00141887 -1.00002 
0.000734089 0.00104017 -1.00002 
0.000495759 0.000776864 -1.00001 
0.000317642 0.000483268 -1.00002 
0.000197874 0.000190648 -1.00002 
0.00011226 -1.83302e-06 -1.00002 
4.18193e-05 -0.000135611 -1.00001 
-5.43585e-06 -0.000199625 -1.00002 
-3.39811e-05 -0.000233325 -1.00002 
-5.1662e-05 -0.000244868 -1.00001 
-6.31706e-05 -0.000236607 -1.00002 
-6.73842e-05 -0.00022491 -1.00001 
-6.47173e-05 -0.000209074 -1.00002 
-5.67743e-05 -0.000193647 -1.00002 
-4.0554e-05 -0.00017492 -1.00002 
-2.8259e-05 -0.000156156 -1.00002 
-1.64618e-05 -0.000135393 -1.00002 
-7.91193e-06 -0.000112159 -1.00002 
-2.53904e-06 -9.4393e-05 -1.00002 
3.1163e-06 -7.73787e-05 -1.00001 
9.05228e-06 -6.66878e-05 -1.00002 
1.32445e-05 -5.98687e-05 -1.00002 
1.38181e-05 -5.12587e-05 -1.00002 
1.90006e-05 -4.50075e-05 -1.00001 
-2.79818e-05 -5.04681e-05 1.00001 
-2.11711e-05 -5.36108e-05 1.00002 
-1.96629e-05 -6.1468e-05 1.00002 
-1.65698e-05 -6.88399e-05 1.00002 
-1.0244e-05 -8.20571e-05 1.00001 
-3.73506e-07 -0.000102036 1.00002 
9.54221e-06 -0.000127774 1.00002 
2.15265e-05 -0.00015027 1.00001 
3.69196e-05 -0.000169676 1.00002 
5.51769e-05 -0.0001886 1.00002 
7.15809e-05 -0.000205761 1.00002 
8.0441e-05 -0.000220654 1.00002 
8.16996e-05 -0.000231442 1.00002 
7.64423e-05 -0.000233671 1.00002 
6.36578e-05 -0.000222687 1.00002 
4.09439e-05 -0.000188505 1.00002 
6.17758e-06 -0.000128987 1.00002 
-4.92674e-05 -6.80436e-06 1.00002 
-0.000136062 0.000196728 1.00002 
-0.000267498 0.000482424 1.00002 
-0.000467364 0.000803243 1.00002 
-0.000749235 0.00110448 1.00001 
-0.00110623 0.00147799 1.00002 
-0.00156406 0.00218128 1.00001 
-0.00205643 0.00313742 1.00001 
-0.00238074 0.00386037 1.00001 
-0.00244498 0.00463519 1 
-0.00234219 0.00638227 0.99999 
-0.00190227 0.0093921 0.99997 
-0.000127855 0.0133836 0.99993 
0.00315374 0.0187298 0.999836 
0.0066825 0.0271222 0.999626 
0.0113317 0.0315045 0.999456 
0.0165994 0.0376537 0.999171 
0.0224461 0.0351248 0.999152 
0.0288327 0.0405796 0.998778 
0.0296459 0.0526955 0.998181 
0.0206839 0.0617201 0.997893 
0.0251295 0.0577534 0.998031 
0.00685988 0.0450851 0.998895 
-0.0011841 0.0112379 -0.999839 
-0.00219534 0.0185207 -0.99984 
-0.0067809 0.0242727 -0.999695 
-0.0121203 0.0239511 -0.999656 
-0.00886063 0.0217114 -0.999743 
-0.0041263 0.0222313 -0.999759 
-0.00129704 0.0212102 -0.999793 
0.00076505 0.0192491 -0.999828 
-0.000213187 0.0148884 -0.999908 
0.00100449 0.0116198 -0.999946 
0.00196527 0.00884086 -0.999974 
0.00226493 0.00618341 -0.999994 
0.00189183 0.00445974 -1.00001 
0.00140973 0.00340038 -1.00001 
0.00118081 0.00236163 -1.00001 
0.00102995 0.0015875 -1.00001 
0.000762214 0.00121214 -1.00001 
0.000491515 0.000958846 -1.00002 
0.000296171 0.000669215 -1.00001 
0.000184924 0.000336543 -1.00002 
0.000103178 9.41123e-05 -1.00001 
3.80663e-05 -6.61661e-05 -1.00002 
-1.08364e-05 -0.00015712 -1.00002 
-4.13263e-05 -0.000207274 -1.00001 
-6.12033e-05 -0.000227306 -1.00002 
-7.59186e-05 -0.000229239 -1.00001 
-8.24385e-05 -0.000222234 -1.00002 
-7.99017e-05 -0.000214324 -1.00002 
-6.79173e-05 -0.000204647 -1.00002 
-4.91943e-05 -0.000185628 -1.00002 
-3.09595e-05 -0.000166473 -1.00002 
-1.65494e-05 -0.000146421 -1.00002 
-7.45812e-06 -0.0001214 -1.00002 
9.42802e-07 -9.99237e-05 -1.00002 
7.52763e-06 -8.1095e-05 -1.00002 
1.4023e-05 -7.0776e-05 -1.00002 
1.71837e-05 -6.43409e-05 -1.00002 
1.79754e-05 -5.67118e-05 -1.00002 
2.41281e-05 -5.41497e-05 -1.00001 
-2.83006e-05 -6.09896e-05 1.00001 
-2.26353e-05 -6.08069e-05 1.00002 
-2.22243e-05 -6.65137e-05 1.00002 
-2.15372e-05 -7.27759e-05 1.00002 
-1.67482e-05 -8.6488e-05 1.00002 
-6.62726e-06 -0.000107196 1.00002 
4.09875e-06 -0.000135192 1.00001 
1.68477e-05 -0.000159332 1.00002 
3.24435e-05 -0.000181008 1.00002 
5.11941e-05 -0.000202931 1.00002 
6.77835e-05 -0.000221208 1.00002 
7.71063e-05 -0.000233206 1.00002 
7.63752e-05 -0.00023673 1.00002 
6.83923e-05 -0.000228187 1.00002 
5.39067e-05 -0.000204993 1.00002 
3.18059e-05 -0.000157629 1.00001 
3.32673e-06 -7.59517e-05 1.00002 
-3.59619e-05 6.96148e-05 1.00002 
-9.73399e-05 0.000299577 1.00002 
-0.000204886 0.000614192 1.00002 
-0.000371972 0.000953446 1.00001 
-0.000613751 0.0012665 1.00001 
-0.000937929 0.00167013 1.00001 
-0.00135056 0.00238761 1.00001 
-0.00177276 0.00337244 1.00001 
-0.00205063 0.00410083 1 
-0.00196225 0.00470352 1 
-0.00159554 0.00616502 0.999999 
-0.000941595 0.00900464 0.999976 
0.0011745 0.0122983 0.999941 
0.00562978 0.0166605 0.999863 
0.0102326 0.0216145 0.99973 
0.0158233 0.0280065 0.9995 
0.0220245 0.0260992 0.99944 
0.0303208 0.0265359 0.999212 
0.0389457 0.0298914 0.998818 
0.0389605 0.0437384 0.998299 
0.0424416 0.0507012 0.997822 
0.0319532 0.0558324 0.997942 
0.0228986 0.0545461 0.998263 
-0.00381433 0.0202169 -0.999792 
-0.00383747 0.023861 -0.999721 
-0.0111973 0.0249305 -0.999639 
-0.0180621 0.0241722 -0.99956 
-0.0142916 0.0207847 -0.999702 
-0.00952377 0.0180893 -0.999808 
-0.00568908 0.0183734 -0.999835 
-0.00275071 0.0169536 -0.999871 
-0.00232316 0.0132113 -0.999928 
-0.000274021 0.0106742 -0.999962 
0.00124699 0.0081057 -0.999981 
0.00161533 0.00563753 -0.999999 
0.00129322 0.00419388 -1.00001 
0.00101044 0.0032567 -1.00001 
0.000903718 0.002242 -1.00001 
0.000767607 0.00157083 -1.00002 
0.000539436 0.00130119 -1.00001 
0.00032199 0.00106683 -1.00001 
0.000177721 0.000731636 -1.00002 
0.000116467 0.000382022 -1.00002 
7.09231e-05 0.00011697 -1.00001 
2.83995e-05 -4.21251e-05 -1.00002 
-7.83614e-06 -0.000135165 -1.00002 
-3.57316e-05 -0.000190756 -1.00002 
-5.70702e-05 -0.000217242 -1.00002 
-7.05751e-05 -0.000224414 -1.00002 
-7.77991e-05 -0.000224365 -1.00002 
-7.52202e-05 -0.000222739 -1.00002 
-6.30317e-05 -0.000218453 -1.00001 
-4.61869e-05 -0.000198691 -1.00002 
-2.68843e-05 -0.000179406 -1.00002 
-1.09432e-05 -0.000154743 -1.00002 
-1.64482e-06 -0.000128156 -1.00002 
7.35069e-06 -0.000105658 -1.00002 
1.35283e-05 -8.58319e-05 -1.00002 
1.86632e-05 -7.47425e-05 -1.00002 
1.91204e-05 -6.84478e-05 -1.00002 
1.92752e-05 -6.28797e-05 -1.00002 
2.38045e-05 -6.49862e-05 -1.00001 
-2.05693e-05 -7.10727e-05 1.00001 
-2.03993e-05 -6.55352e-05 1.00002 
-2.06559e-05 -6.86638e-05 1.00002 
-2.40022e-05 -7.4966e-05 1.00002 
-2.31937e-05 -8.63425e-05 1.00002 
-1.5415e-05 -0.000107727 1.00002 
-4.78647e-06 -0.000133322 1.00002 
8.05516e-06 -0.000160201 1.00002 
2.19695e-05 -0.000185296 1.00002 
3.82836e-05 -0.000209001 1.00002 
5.48443e-05 -0.000230461 1.00002 
6.63655e-05 -0.000240568 1.00002 
6.80272e-05 -0.000241326 1.00002 
6.13218e-05 -0.000232007 1.00002 
4.86363e-05 -0.000209006 1.00002 
3.19557e-05 -0.000165651 1.00002 
1.26706e-05 -8.76434e-05 1.00002 
-6.46595e-06 3.48826e-05 1.00002 
-3.31588e-05 0.000236921 1.00002 
-8.81936e-05 0.000530991 1.00002 
-0.000187019 0.000877454 1.00001 
-0.000342702 0.00121165 1.00001 
-0.000567722 0.00154844 1.00001 
-0.000870536 0.00212469 1.00001 
-0.0011949 0.00301937 1.00001 
-0.00148644 0.00389627 1.00001 
-0.00152722 0.00436933 1.00001 
-0.00107261 0.0052008 1 
-0.000333982 0.00721539 0.999991 
0.00103317 0.00967878 0.99997 
0.00445498 0.0123388 0.999932 
0.0096271 0.0149304 0.99986 
0.0148379 0.0202968 0.999701 
0.0192873 0.0178678 0.999673 
0.0263296 0.017946 0.999514 
0.0355863 0.0156934 0.999276 
0.04941 0.0239755 0.998515 
0.0512776 0.0397748 0.99791 
0.0337709 0.0559967 0.997878 
0.0157028 0.0524543 0.998422 
-0.00634117 0.0252403 -0.999669 
-0.0145424 0.027734 -0.999522 
-0.0229256 0.0258962 -0.999421 
-0.0224159 0.0192432 -0.999582 
-0.0177298 0.016305 -0.999727 
-0.0130025 0.0159449 -0.999808 
-0.0086028 0.0139287 -0.999887 
-0.00568062 0.0143675 -0.999898 
-0.00385631 0.0114959 -0.999943 
-0.00136944 0.00964059 -0.99997 
0.000333106 0.00739518 -0.999992 
0.00091131 0.00521782 -1 
0.000756325 0.00408198 -1.00001 
0.000610154 0.00314301 -1.00001 
0.000568502 0.00218831 -1.00001 
0.000486432 0.00163248 -1.00001 
0.000323747 0.00139591 -1.00001 
0.000165204 0.00115476 -1.00001 
8.349e-05 0.000808699 -1.00001 
6.60758e-05 0.000441259 -1.00002 
5.43052e-05 0.000171702 -1.00002 
3.19466e-05 -6.73803e-06 -1.00002 
6.22075e-06 -0.000108563 -1.00002 
-2.02638e-05 -0.000170864 -1.00002 
-4.5344e-05 -0.000206191 -1.00002 
-6.14754e-05 -0.000220094 -1.00002 
-6.93574e-05 -0.000225869 -1.00002 
-6.77689e-05 -0.000229572 -1.00002 
-5.67618e-05 -0.000228928 -1.00002 
-4.09e-05 -0.000213507 -1.00002 
-2.06736e-05 -0.000189001 -1.00002 
-6.00965e-06 -0.00016404 -1.00002 
3.32005e-06 -0.000136354 -1.00002 
1.28858e-05 -0.000111949 -1.00002 
1.90228e-05 -9.07385e-05 -1.00002 
2.15081e-05 -7.81946e-05 -1.00002 
1.83258e-05 -7.1199e-05 -1.00002 
1.62857e-05 -6.76981e-05 -1.00002 
1.62186e-05 -7.33384e-05 -1.00001 
-7.73814e-06 -7.51484e-05 1.00001 
-1.24049e-05 -6.76122e-05 1.00002 
-1.93916e-05 -7.14879e-05 1.00002 
-2.50703e-05 -8.16382e-05 1.00002 
-2.50176e-05 -9.82911e-05 1.00002 
-1.76936e-05 -0.000122256 1.00002 
-5.00711e-06 -0.000149679 1.00002 
7.95095e-06 -0.000177326 1.00002 
2.12523e-05 -0.000205731 1.00002 
3.61614e-05 -0.000230757 1.00002 
5.00648e-05 -0.000246317 1.00002 
5.73713e-05 -0.000247329 1.00002 
5.6638e-05 -0.000240443 1.00002 
4.87214e-05 -0.000224923 1.00002 
3.63393e-05 -0.000191841 1.00002 
2.32174e-05 -0.000134026 1.00002 
1.36085e-05 -4.68962e-05 1.00002 
5.05548e-06 9.39174e-05 1.00002 
-9.44606e-06 0.000320787 1.00002 
-4.1353e-05 0.000628141 1.00001 
-0.000106161 0.000985703 1.00001 
-0.000224287 0.00133205 1.00001 
-0.000411829 0.00168678 1.00001 
-0.000633988 0.00225422 1.00001 
-0.000893161 0.00317578 1.00001 
-0.00109239 0.00404991 1.00001 
-0.000956964 0.00445643 1.00001 
-0.000320042 0.00533112 1 
0.000788038 0.00704037 0.999993 
0.00281071 0.00914527 0.999973 
0.00637063 0.0104924 0.999944 
0.0124298 0.0128763 0.999863 
0.018383 0.0116052 0.999783 
0.0251147 0.0104919 0.99965 
0.0322492 0.00574266 0.999487 
0.0470324 0.00855543 0.998883 
0.0664084 0.0239108 0.997531 
0.0674227 0.0444217 0.996752 
0.0499861 0.0563215 0.997172 
-0.00159892 0.0199049 -0.999724 
-0.00642338 0.0296443 -0.999551 
-0.0162317 0.0343356 -0.999296 
-0.029113 0.0291927 -0.999165 
-0.0305085 0.0164491 -0.999422 
-0.0225673 0.0117873 -0.9997 
-0.0158907 0.0116346 -0.999828 
-0.0114205 0.0123637 -0.999876 
-0.00646102 0.0107495 -0.999941 
-0.00343786 0.00893019 -0.999973 
-0.00147114 0.00765831 -0.999987 
-5.18835e-05 0.00606933 -0.999995 
0.000352415 0.0045403 -1.00001 
0.000309851 0.00355883 -1.00001 
0.000247352 0.00270965 -1.00001 
0.00026355 0.00195445 -1.00001 
0.000206997 0.00156042 -1.00001 
8.28834e-05 0.00137984 -1.00001 
6.94592e-07 0.00110958 -1.00001 
-1.24461e-06 0.000731257 -1.00001 
2.735e-05 0.000388714 -1.00002 
4.10014e-05 0.000130853 -1.00002 
3.12648e-05 -2.2009e-05 -1.00002 
1.06018e-05 -0.000113016 -1.00002 
-1.7206e-05 -0.000169554 -1.00002 
-4.22837e-05 -0.000201462 -1.00002 
-5.81859e-05 -0.000218204 -1.00002 
-6.21901e-05 -0.000226642 -1.00002 
-5.76777e-05 -0.000234465 -1.00002 
-4.60686e-05 -0.000238453 -1.00001 
-3.16444e-05 -0.000223104 -1.00002 
-1.45974e-05 -0.000200892 -1.00002 
-8.36126e-07 -0.000170834 -1.00002 
8.89954e-06 -0.000140701 -1.00002 
1.84021e-05 -0.000116006 -1.00002 
2.3013e-05 -9.47397e-05 -1.00002 
2.21241e-05 -8.08953e-05 -1.00002 
1.51124e-05 -7.11642e-05 -1.00002 
9.42639e-06 -6.88094e-05 -1.00002 
2.14482e-06 -7.58252e-05 -1.00001 
8.50417e-06 -6.96743e-05 1.00001 
-3.50879e-06 -6.40681e-05 1.00002 
-1.44172e-05 -6.87178e-05 1.00001 
-2.31284e-05 -8.15464e-05 1.00002 
-2.64684e-05 -0.000100955 1.00001 
-2.09915e-05 -0.000125204 1.00002 
-9.20823e-06 -0.000153431 1.00002 
4.03097e-06 -0.000183832 1.00002 
1.62123e-05 -0.000215108 1.00002 
2.82365e-05 -0.000241582 1.00002 
3.89645e-05 -0.000254726 1.00002 
4.52092e-05 -0.000252423 1.00002 
4.65118e-05 -0.000242928 1.00002 
4.23145e-05 -0.00022736 1.00002 
3.28369e-05 -0.000195571 1.00002 
2.23686e-05 -0.000143586 1.00002 
1.56723e-05 -6.83463e-05 1.00002 
1.44775e-05 5.06028e-05 1.00001 
1.74048e-05 0.000238792 1.00002 
2.08987e-05 0.000511064 1.00001 
1.06014e-05 0.000851765 1.00001 
-3.84317e-05 0.00121007 1.00001 
-0.000151089 0.00153465 1.00001 
-0.000315382 0.0019329 1.00001 
-0.000526162 0.00264459 1.00001 
-0.000710096 0.00363669 1.00001 
-0.000666916 0.00415511 1.00001 
-0.000270107 0.00455078 1.00001 
0.000650389 0.00538386 1 
0.00212639 0.00691334 0.99999 
0.0044426 0.00770154 0.999983 
0.00893368 0.00909836 0.999936 
0.0138119 0.00843232 0.999892 
0.0200404 0.00439106 0.999817 
0.0278008 -0.00185959 0.999636 
0.0460594 -0.00523829 0.998957 
0.0727215 0.00673938 0.997372 
0.094015 0.0512655 0.994271 
0.0563713 0.0770953 0.995439 
0.0253571 0.0655908 0.99743 
-0.00379747 0.0348668 -0.999312 
-0.0196435 0.0482945 -0.998664 
-0.0405128 0.0264744 -0.998849 
-0.0380108 0.0106708 -0.999243 
-0.0253938 0.00600618 -0.999687 
-0.0164108 0.00653463 -0.999868 
-0.0119777 0.00817022 -0.999917 
-0.00833802 0.00882955 -0.99995 