# vtk DataFile Version 3.0 
Exported using Morpho https://github.com/Morpho-lang/morpho 
ASCII 
DATASET UNSTRUCTURED_GRID 

POINTS 1978 float 
-12 -4 9.02369e-16 
-11.6268 -4 3.76257e-15 
-11.3325 -4 -3.3822e-18 
-10.9865 -4 2.2108e-15 
-10.6659 -4 8.91636e-16 
-10.3133 -4 1.28956e-15 
-9.99576 -4 3.42911e-15 
-9.65547 -4 7.17293e-16 
-9.32056 -4 3.51778e-15 
-9.00736 -4 2.27249e-15 
-8.69775 -4 -4.73314e-16 
-8.38309 -4 4.23304e-16 
-8.07797 -4 -6.17612e-15 
-7.7668 -4 -4.0267e-15 
-7.48132 -4 2.29152e-15 
-7.19504 -4 2.93426e-15 
-6.90518 -4 9.07717e-15 
-6.59736 -4 2.29817e-15 
-6.29339 -4 -1.0996e-15 
-5.98885 -4 -5.51894e-15 
-5.69066 -4 -4.33195e-15 
-5.4001 -4 7.74116e-15 
-5.11002 -4 1.27129e-14 
-4.81359 -4 -1.4422e-14 
-4.50976 -4 -3.78547e-14 
-4.20781 -4 -4.53412e-14 
-3.91296 -4 -6.37552e-14 
-3.60975 -4 -1.50916e-14 
-3.30687 -4 2.57289e-14 
-3.02569 -4 4.66073e-14 
-2.73456 -4 -9.69416e-14 
-2.46494 -4 1.73771e-14 
-2.18823 -4 1.15489e-13 
-1.95774 -4 5.35722e-13 
-1.75738 -4 1.57051e-12 
-1.56143 -4 2.05574e-12 
-1.30899 -4 2.09267e-12 
-1.08737 -4 1.984e-11 
-0.560379 -4 -8.47117e-11 
-0.124745 -4 -4.87448e-10 
0.470806 -4 -2.77546e-10 
0.792341 -4 1.41225e-11 
1.04316 -4 4.23465e-12 
1.31135 -4 -9.98394e-13 
1.57708 -4 -1.13054e-12 
1.87661 -4 -1.20486e-13 
2.20315 -4 -2.04104e-14 
2.51089 -4 2.5127e-13 
2.74778 -4 -8.08915e-14 
3.03728 -4 -1.91767e-14 
3.32581 -4 -2.25553e-14 
3.60535 -4 5.67255e-14 
3.89816 -4 1.84981e-14 
4.19331 -4 3.75943e-14 
4.49379 -4 4.37177e-14 
4.80083 -4 1.59341e-14 
5.10327 -4 -2.42241e-14 
5.40663 -4 -1.72033e-15 
5.7087 -4 1.01081e-14 
5.99753 -4 2.95234e-15 
6.30094 -4 -2.01308e-15 
6.57755 -4 -8.01763e-15 
6.87819 -4 -4.7996e-15 
7.17178 -4 -2.995e-15 
7.46916 -4 -1.85829e-15 
7.77292 -4 3.06063e-15 
8.07193 -4 5.91146e-15 
8.3737 -4 2.42085e-15 
8.67778 -4 1.89032e-15 
8.95891 -4 -5.23309e-15 
9.2979 -4 -2.47478e-15 
9.61906 -4 -1.29493e-15 
9.92594 -4 -4.68116e-15 
10.292 -4 -3.80565e-16 
10.6216 -4 -4.037e-15 
10.992 -4 -1.3244e-15 
11.311 -4 -1.23196e-15 
11.6015 -4 -3.0604e-15 
12 -4 -4.41086e-16 
-12 -3.6227 -2.90614e-15 
-11.701 -3.69656 -3.31244e-19 
-11.3576 -3.62081 2.16263e-19 
-11.0508 -3.67658 1.5674e-19 
-10.7095 -3.65152 2.24161e-19 
-10.3895 -3.68555 6.84403e-19 
-10.0493 -3.65487 -7.71803e-20 
-9.72589 -3.68463 3.37924e-19 
-9.38654 -3.67804 1.9334e-19 
-9.05819 -3.6618 2.72152e-19 
-8.74326 -3.66299 -1.26147e-19 
-8.42678 -3.67142 -3.95612e-19 
-8.10765 -3.66217 7.79896e-19 
-7.79858 -3.66921 2.9758e-18 
-7.48981 -3.64851 -1.22422e-17 
-7.19423 -3.64458 9.60764e-18 
-6.88406 -3.67255 -1.33114e-17 
-6.57626 -3.66902 -7.65623e-18 
-6.26863 -3.67252 -9.69019e-18 
-5.96553 -3.66935 -8.20828e-18 
-5.6675 -3.66398 -7.27624e-18 
-5.3705 -3.66439 -7.92024e-18 
-5.06704 -3.67239 -1.24732e-17 
-4.75713 -3.6807 -7.38209e-18 
-4.44576 -3.67733 2.99088e-17 
-4.13602 -3.67188 6.88041e-17 
-3.82023 -3.6871 -2.90867e-16 
-3.50309 -3.68794 6.34326e-16 
-3.19063 -3.67119 -6.79896e-16 
-2.87812 -3.67308 -1.86377e-16 
-2.57374 -3.65208 1.06903e-14 
-2.28181 -3.67978 5.10653e-16 
-2.00606 -3.66742 6.04022e-16 
-1.76941 -3.43268 6.87845e-15 
-1.75591 -3.70168 -7.9046e-15 
-1.51075 -3.49946 5.86345e-16 
-1.49343 -3.76402 -3.33333e-15 
-0.92874 -3.86934 -2.54045e-16 
-0.684879 -3.75177 2.31668e-14 
-0.367186 -3.80475 -4.69718e-15 
0.607957 -3.76019 -5.3089e-16 
0.921457 -3.68425 1.11984e-18 
1.18432 -3.73171 2.52672e-16 
1.45194 -3.68637 4.69189e-15 
1.71638 -3.73212 5.80759e-16 
2.00149 -3.72683 1.33735e-15 
2.21173 -3.57007 -2.85708e-15 
2.43357 -3.70753 -6.97409e-15 
2.70582 -3.62438 -1.61943e-15 
2.97572 -3.69368 -1.3036e-15 
3.28961 -3.68729 -4.38308e-16 
3.60141 -3.65995 -1.87667e-16 
3.89641 -3.67035 1.29116e-16 
4.20366 -3.66744 -6.30022e-17 
4.51555 -3.67777 -1.09215e-17 
4.82208 -3.67132 7.30051e-18 
5.13113 -3.67323 1.04303e-17 
5.44009 -3.67421 9.53953e-18 
5.73693 -3.66017 8.99056e-18 
6.0391 -3.67395 9.78243e-18 
6.32952 -3.64649 4.43496e-18 
6.62972 -3.67008 6.1043e-18 
6.9298 -3.66025 2.90913e-18 
7.23018 -3.66113 5.61825e-19 
7.5371 -3.66757 -2.51428e-19 
7.83903 -3.65725 -7.35767e-19 
8.14291 -3.65842 -8.15635e-20 
8.44325 -3.65789 -3.38213e-19 
8.73581 -3.63398 7.79385e-19 
9.05712 -3.69324 -7.86998e-19 
9.38428 -3.67457 5.59129e-19 
9.69885 -3.655 -2.91343e-19 
10.0449 -3.70721 -3.11772e-19 
10.3852 -3.67143 1.79455e-19 
10.7423 -3.70433 -1.3063e-19 
11.0732 -3.65385 -2.35436e-19 
11.3747 -3.61742 -9.75894e-20 
11.7188 -3.72002 9.42127e-20 
12 -3.60701 3.2182e-15 
-12 -3.32581 -2.00413e-15 
-11.6306 -3.34826 2.11463e-19 
-11.2902 -3.27396 2.31973e-20 
-10.9755 -3.34218 -1.54655e-20 
-10.6558 -3.30637 1.28128e-22 
-10.3415 -3.35082 -1.02514e-20 
-10.0316 -3.29986 4.09895e-22 
-9.72946 -3.34711 1.77589e-20 
-9.41673 -3.3549 9.027e-19 
-9.09379 -3.33335 -4.77097e-19 
-8.77662 -3.32432 -3.02241e-21 
-8.46762 -3.33671 -1.37556e-20 
-8.15692 -3.33613 -6.65569e-20 
-7.84053 -3.33367 -3.77851e-21 
-7.5355 -3.31904 -6.67833e-21 
-7.22747 -3.30391 7.0406e-19 
-6.92518 -3.33815 -4.69286e-19 
-6.62134 -3.34191 -7.79818e-20 
-6.31162 -3.34523 -1.26158e-19 
-6.00607 -3.3422 1.65806e-19 
-5.70197 -3.3341 1.28256e-18 
-5.40016 -3.33331 6.49305e-18 
-5.09855 -3.34874 1.8114e-17 
-4.7889 -3.36232 2.83785e-17 
-4.47649 -3.36098 6.88974e-17 
-4.15832 -3.35415 1.3381e-16 
-3.83715 -3.37336 6.50341e-16 
-3.51956 -3.37412 -1.03586e-15 
-3.2028 -3.3549 3.30002e-15 
-2.88747 -3.34724 3.92304e-15 
-2.57419 -3.32937 9.7874e-15 
-2.27056 -3.35213 -1.05661e-14 
-2.01702 -3.31618 -9.20464e-16 
-1.74212 -3.15278 -2.36254e-15 
-1.48173 -3.23199 3.73797e-15 
-1.31404 -3.06259 -6.78018e-15 
-1.23756 -3.43439 -1.25164e-14 
-1.24349 -3.69497 7.58517e-15 
-0.974079 -3.61306 -3.43392e-15 
-0.597279 -3.53126 -1.44274e-15 
0.293671 -3.66962 5.54886e-10 
1.2028 -3.44661 8.96468e-15 
1.49029 -3.40663 7.77409e-17 
1.49363 -2.98058 -7.61621e-15 
1.69919 -3.14171 -5.3465e-15 
1.79199 -3.44579 -6.58184e-15 
2.02432 -3.31745 -2.68038e-15 
2.42743 -3.35047 -6.72793e-15 
2.69357 -3.27808 -3.04643e-15 
2.97541 -3.35743 -1.52695e-15 
3.26614 -3.38292 -7.86327e-16 
3.57403 -3.34282 -4.52137e-16 
3.88528 -3.33745 -2.37602e-16 
4.18897 -3.34562 -8.55111e-17 
4.49929 -3.35505 -3.81658e-17 
4.80552 -3.3427 -1.91033e-17 
5.10832 -3.3467 -8.14317e-18 
5.41261 -3.34958 -1.5294e-18 
5.71498 -3.32596 -1.28933e-18 
6.01261 -3.33891 -1.291e-19 
6.30791 -3.31112 -3.32937e-19 
6.60694 -3.33583 -3.50448e-20 
6.90644 -3.32797 1.2107e-21 
7.21117 -3.3253 -1.86065e-21 
7.51555 -3.33654 -4.86865e-19 
7.82309 -3.31833 1.21518e-19 
8.12739 -3.31942 1.70953e-20 
8.43285 -3.30813 2.56011e-20 
8.75299 -3.30947 5.28973e-21 
9.07281 -3.37111 3.56514e-21 
9.3902 -3.3405 3.1518e-21 
9.70422 -3.31291 1.96433e-21 
10.0143 -3.39264 -4.73219e-22 
10.3137 -3.3245 1.38665e-21 
10.639 -3.38782 9.35516e-22 
10.9677 -3.33566 4.95701e-19 
11.2916 -3.26501 3.19775e-22 
11.6334 -3.36672 -2.02092e-19 
12 -3.30459 1.44529e-15 
-12 -2.99377 -3.32975e-15 
-11.6672 -3.03571 4.50933e-19 
-11.3261 -2.95975 -4.74997e-21 
-10.9709 -2.99471 7.33513e-22 
-10.6382 -2.9756 2.86291e-20 
-10.3117 -3.00195 -2.58759e-20 
-9.98869 -2.96219 3.27213e-20 
-9.67761 -3.00364 3.96888e-21 
-9.36449 -3.01828 -2.47546e-20 
-9.04772 -2.99746 -1.0465e-20 
-8.73485 -2.98809 -1.99677e-21 
-8.42562 -3.00209 -9.01982e-21 
-8.11013 -3.00893 2.29709e-22 
-7.80377 -2.99593 5.52199e-21 
-7.49714 -2.9869 4.09088e-20 
-7.19335 -2.97239 -6.25198e-20 
-6.8926 -3.00521 7.10502e-19 
-6.58578 -3.01737 7.35085e-21 
-6.28442 -3.01653 1.72069e-19 
-5.98398 -3.01393 -3.22382e-20 
-5.68298 -3.00657 2.90187e-19 
-5.38417 -3.00443 -6.11938e-21 
-5.08648 -3.02268 6.32515e-18 
-4.78438 -3.04389 3.31204e-17 
-4.48006 -3.03294 4.89272e-17 
-4.17521 -3.04196 7.31545e-17 
-3.84771 -3.0642 -8.78995e-16 
-3.51727 -3.05606 3.18602e-15 
-3.18683 -3.03911 1.24698e-16 
-2.8528 -3.02784 3.1573e-15 
-2.5208 -3.01178 2.93376e-15 
-2.22498 -3.00525 -2.68833e-15 
-1.95602 -2.95519 5.37497e-16 
-1.61587 -2.90068 6.04241e-15 
-1.49689 -2.68482 -2.3058e-14 
-1.24548 -2.75179 3.34139e-15 
-1.05695 -2.9971 -7.69205e-16 
-1.06171 -3.29188 9.47805e-15 
-0.800658 -3.375 -7.88658e-16 
0.0870517 -3.85047 1.09157e-10 
0.0670132 -3.36755 -5.91805e-10 
0.851549 -3.44472 -3.1118e-16 
1.29288 -3.14469 -8.12638e-15 
1.22575 -2.78395 -1.35184e-14 
1.50585 -2.65568 -7.48562e-15 
1.76695 -2.77735 -4.52461e-15 
1.9712 -3.00132 -9.67277e-15 
2.27747 -3.10048 -4.84695e-15 
2.56033 -2.96037 -1.18137e-15 
2.89562 -3.00503 -1.31024e-15 
3.18754 -3.05504 -1.00614e-15 
3.48905 -3.03764 -4.40849e-16 
3.82061 -3.02078 -1.24463e-16 
4.14484 -3.02567 -4.50144e-17 
4.46435 -3.03421 -3.02401e-17 
4.77716 -3.01813 -1.28443e-17 
5.08529 -3.01679 -3.82858e-18 
5.38836 -3.02291 -6.95244e-19 
5.69028 -2.99973 -1.90013e-19 
5.99324 -3.00535 -4.95962e-19 
6.29732 -2.98611 3.42731e-19 
6.60365 -3.00252 2.72872e-20 
6.90923 -2.99987 1.50892e-20 
7.21369 -2.99457 -1.30362e-20 
7.51867 -3.0049 5.93941e-21 
7.82289 -2.98191 -8.57678e-19 
8.12615 -2.98165 -1.84686e-21 
8.44143 -2.98203 -1.04421e-20 
8.75017 -2.97297 3.39092e-21 
9.06156 -3.04099 1.12698e-21 
9.37491 -3.00609 -2.40982e-19 
9.67677 -2.96618 -1.34961e-19 
9.99307 -3.03884 -7.67595e-21 
10.32 -2.9918 1.0224e-20 
10.6456 -3.05346 3.7506e-23 
10.9733 -2.9967 -8.26934e-22 
11.3199 -2.94469 -6.07282e-23 
11.6562 -3.05285 -3.1783e-19 
12 -2.98174 2.6867e-15 
-12 -2.67817 -2.21043e-15 
-11.6527 -2.70444 2.97679e-19 
-11.3294 -2.62338 1.28484e-21 
-11.0025 -2.68243 -5.97811e-19 
-10.6564 -2.64998 -1.80255e-20 
-10.3229 -2.66886 -1.64917e-20 
-9.9883 -2.64317 4.37738e-21 
-9.65297 -2.66487 1.92034e-20 
-9.33624 -2.68412 -4.77725e-19 
-9.01859 -2.66422 -6.69081e-23 
-8.7045 -2.65561 -4.22092e-23 
-8.38882 -2.67725 -1.30062e-21 
-8.07847 -2.67545 -3.40995e-19 
-7.76801 -2.66482 2.79758e-21 
-7.46306 -2.6546 -3.2472e-23 
-7.15532 -2.64519 -1.47811e-19 
-6.85169 -2.68127 -9.75556e-20 
-6.55251 -2.68735 -9.3215e-20 
-6.25436 -2.6872 2.30873e-19 
-5.9555 -2.6872 -6.87413e-19 
[...]
POINT_DATA 1978 
VECTORS vectors float
1.87795e-06 -2.70893e-05 1 
-1.24227e-06 -3.961e-05 1 
1.33885e-07 -4.73255e-05 1 
-9.07822e-08 -5.8353e-05 1 
-4.36013e-08 -7.16271e-05 1 
8.44602e-07 -8.89264e-05 1 
1.56003e-06 -0.000108015 1 
2.79341e-06 -0.000131717 1 
3.13732e-06 -0.000159194 1 
3.82084e-06 -0.000184563 1 
4.46747e-06 -0.000206459 1 
5.04769e-06 -0.000220301 1 
5.47453e-06 -0.000231457 1 
4.68643e-06 -0.000252417 1 
3.68687e-06 -0.000276833 1 
2.85961e-06 -0.000298234 1 
-1.75283e-06 -0.000311143 1 
-1.01363e-05 -0.000281593 1 
-1.81254e-05 -0.000176415 1 
-2.48323e-05 2.06141e-05 1 
-3.42799e-05 0.000296697 1 
-4.87374e-05 0.00062472 1 
-6.71617e-05 0.000944529 1 
-9.56487e-05 0.00128424 0.999999 
-0.000152763 0.00182361 0.999998 
-0.000169983 0.0026472 0.999996 
-0.000199371 0.00376775 0.999993 
-0.000315275 0.00554274 0.999985 
-0.000363552 0.00798396 0.999968 
-0.000607933 0.0109845 0.999939 
3.1547e-05 0.0160851 0.999871 
0.000244839 0.0239425 0.999713 
-0.000833978 0.0361753 0.999345 
-0.000309337 0.0500882 0.998745 
0.000868662 0.0627546 0.998029 
0.00107926 0.0756867 0.997131 
-0.00308458 0.0942535 0.995543 
0.000169453 0.0851401 0.996369 
-0.00230283 0.0616767 0.998094 
0.001015 0.0417031 0.99913 
0.000983249 -0.000249751 -0.999999 
0.000873336 0.0123491 -0.999923 
-0.000785646 0.0268348 -0.99964 
0.000509458 0.0322826 -0.999479 
0.000205652 0.0313853 -0.999507 
0.000370569 0.0307935 -0.999526 
0.000953505 0.0211948 -0.999775 
-0.000169973 0.0155394 -0.999879 
0.000549193 0.0123546 -0.999924 
0.000198328 0.00992047 -0.999951 
0.000119752 0.00738185 -0.999973 
0.000169392 0.00540882 -0.999985 
0.000210561 0.00355193 -0.999994 
0.0001341 0.00247299 -0.999997 
0.000112569 0.00168284 -0.999999 
0.000112254 0.0011863 -0.999999 
5.41426e-05 0.000852876 -1 
4.50723e-05 0.000516572 -1 
2.80307e-05 0.00019379 -1 
2.01847e-05 -6.06442e-05 -1 
1.26979e-05 -0.00022926 -1 
3.00193e-06 -0.000304002 -1 
2.2394e-06 -0.000312764 -1 
-3.50052e-06 -0.000292728 -1 
-4.65569e-06 -0.000268646 -1 
-5.14682e-06 -0.000247781 -1 
-4.51102e-06 -0.000234159 -1 
-5.09498e-06 -0.000225172 -1 
-2.78132e-06 -0.000208482 -1 
-4.27504e-06 -0.00018538 -1 
-3.88661e-06 -0.000156392 -1 
-2.28358e-06 -0.000131265 -1 
-1.76629e-06 -0.000111086 -1 
-3.91765e-07 -9.05848e-05 -1 
2.34555e-07 -7.56285e-05 -1 
1.13806e-07 -6.14744e-05 -1 
1.07186e-07 -5.22597e-05 -1 
1.01604e-06 -4.52318e-05 -1 
-1.34313e-06 -3.36359e-05 -1 
-1.42913e-05 -2.75406e-05 1 
-9.33188e-06 -4.0018e-05 1 
-8.76032e-06 -4.98181e-05 1 
-5.15626e-06 -5.78024e-05 1 
-1.79714e-06 -7.02912e-05 1 
2.63605e-06 -8.55994e-05 1 
7.38966e-06 -0.00010652 1 
1.37773e-05 -0.000128742 1 
2.14878e-05 -0.000152565 1 
2.71955e-05 -0.000174302 1 
2.83571e-05 -0.000193588 1 
2.69982e-05 -0.000210497 1 
2.91902e-05 -0.000226584 1 
3.10019e-05 -0.00024389 1 
2.85161e-05 -0.000255859 1 
1.3632e-05 -0.000256591 1 
-1.53521e-05 -0.00024118 1 
-5.94626e-05 -0.000176443 1 
-0.000120261 -4.25691e-05 1 
-0.000202918 0.00017137 1 
-0.00031357 0.000437213 1 
-0.000446832 0.000731692 1 
-0.000596042 0.00108802 0.999999 
-0.000787068 0.00160113 0.999998 
-0.00105047 0.00231217 0.999997 
-0.00128085 0.00316363 0.999994 
-0.00131779 0.00439343 0.999989 
-0.00126438 0.00648058 0.999978 
-0.00107815 0.0094206 0.999955 
-0.000712851 0.013465 0.999909 
-0.000450268 0.0197159 0.999806 
-0.000280771 0.0298478 0.999554 
0.000578371 0.042411 0.9991 
0.0029679 0.0523352 0.998625 
0.0036206 0.0613325 0.998111 
0.00745376 0.0662876 0.997773 
0.00654193 0.0768453 0.997022 
0.011856 0.0750624 0.997108 
0.0139835 0.0657652 0.997737 
0.011787 0.0543518 0.998452 
-0.000315798 0.00599625 -0.999982 
-0.00335173 0.0186894 -0.99982 
-0.00296423 0.0268248 -0.999636 
-0.00211213 0.0262031 -0.999654 
-0.000448045 0.0267959 -0.999641 
0.000391893 0.0244037 -0.999702 
0.00111408 0.0205451 -0.999788 
0.00184349 0.0170009 -0.999854 
0.00171379 0.0131997 -0.999911 
0.00137879 0.0103855 -0.999945 
0.00123395 0.00777637 -0.999969 
0.00135237 0.0055037 -0.999984 
0.00114121 0.00384604 -0.999992 
0.000762043 0.00270875 -0.999996 
0.000561765 0.00182499 -0.999998 
0.000494059 0.00122767 -0.999999 
0.000409741 0.000860877 -1 
0.000300484 0.000562061 -1 
0.000210477 0.000280439 -1 
0.000136489 2.34125e-05 -1 
8.30588e-05 -0.000124092 -1 
3.47394e-05 -0.000221734 -1 
1.53142e-06 -0.000253465 -1 
-1.84257e-05 -0.000260439 -1 
-2.80375e-05 -0.000254412 -1 
-3.1136e-05 -0.000240825 -1 
-3.05342e-05 -0.000225904 -1 
-2.97484e-05 -0.000210813 -1 
-3.06116e-05 -0.000191813 -1 
-2.47346e-05 -0.000172465 -1 
-1.9279e-05 -0.000149662 -1 
-1.24023e-05 -0.000127883 -1 
-6.63063e-06 -0.000105682 -1 
-2.8022e-06 -8.63733e-05 -1 
5.84245e-07 -7.09388e-05 -1 
4.72935e-06 -6.05468e-05 -1 
7.65555e-06 -5.32834e-05 -1 
7.42241e-06 -4.4376e-05 -1 
1.15766e-05 -3.23018e-05 -1 
-2.20041e-05 -3.38043e-05 1 
-1.61232e-05 -4.77266e-05 1 
-1.45924e-05 -5.66326e-05 1 
-1.0321e-05 -6.41148e-05 1 
-5.27821e-06 -7.57803e-05 1 
1.93371e-06 -9.27675e-05 1 
9.55832e-06 -0.00011488 1 
1.86144e-05 -0.000135073 1 
3.02161e-05 -0.000155118 1 
4.36712e-05 -0.000174538 1 
5.45075e-05 -0.000191985 1 
5.95679e-05 -0.000208166 1 
6.22603e-05 -0.000223285 1 
6.10811e-05 -0.000235654 1 
5.35804e-05 -0.00023827 1 
3.38041e-05 -0.000220333 1 
-1.73054e-06 -0.000184827 1 
-5.57343e-05 -9.67479e-05 1 
-0.000140702 6.41413e-05 1 
-0.00026636 0.000305128 1 
-0.000447335 0.000589829 1 
-0.000687208 0.000879197 0.999999 
-0.000981173 0.0012513 0.999999 
-0.0013429 0.00187112 0.999997 
-0.00175012 0.00268518 0.999995 
-0.00207328 0.0035028 0.999992 
-0.00212868 0.00456094 0.999987 
-0.00208674 0.00665354 0.999976 
-0.0017705 0.00990346 0.999949 
-0.000762671 0.0139505 0.999902 
0.000851218 0.0198069 0.999803 
0.00256106 0.0291146 0.999573 
0.0050877 0.0378079 0.999272 
0.0095306 0.0432057 0.999021 
0.0129968 0.0530452 0.998508 
0.0204466 0.049947 0.998543 
0.0138108 0.0656584 0.997747 
0.0125526 0.0725692 0.997284 
0.0174166 0.064742 0.99775 
0.0171047 0.0587813 0.998124 
0.00102138 0.00766117 -0.99997 
-0.00304806 0.0248923 -0.999685 
-0.00308693 0.0247837 -0.999688 
-0.00616193 0.0237262 -0.9997 
-0.00240547 0.0240798 -0.999707 
-0.000496734 0.0249052 -0.99969 
0.000448108 0.0226468 -0.999743 
0.00183401 0.0170487 -0.999853 
0.00183453 0.0135608 -0.999906 
0.00188211 0.0105709 -0.999942 
0.00194677 0.00802942 -0.999966 
0.00207955 0.00577846 -0.999981 
0.00178757 0.00413306 -0.99999 
0.00130256 0.00305547 -0.999994 
0.00104104 0.00213215 -0.999997 
0.000903044 0.00143347 -0.999999 
0.000703673 0.00104164 -0.999999 
0.000482008 0.000766299 -1 
0.000311028 0.00047882 -1 
0.000194068 0.000194807 -1 
0.000110593 3.7096e-06 -1 
4.29625e-05 -0.000130484 -1 
-3.3599e-06 -0.00019578 -1 
-3.20604e-05 -0.000229221 -1 
-4.95678e-05 -0.000241185 -1 
-6.05663e-05 -0.000233795 -1 
-6.45976e-05 -0.000222965 -1 
-6.23154e-05 -0.000207697 -1 
-5.45947e-05 -0.000192444 -1 
-3.95457e-05 -0.000173788 -1 
-2.76515e-05 -0.00015487 -1 
-1.62853e-05 -0.000134271 -1 
-7.9547e-06 -0.00011152 -1 
-2.34884e-06 -9.40744e-05 -1 
3.03451e-06 -7.73114e-05 -1 
8.7332e-06 -6.64613e-05 -1 
1.28645e-05 -5.9417e-05 -1 
1.36318e-05 -5.09321e-05 -1 
1.86721e-05 -3.78287e-05 -1 
-2.73428e-05 -4.22556e-05 1 
-2.10316e-05 -5.32662e-05 1 
-1.9273e-05 -6.09787e-05 1 
-1.6001e-05 -6.86249e-05 1 
-9.97268e-06 -8.20711e-05 1 
-4.85252e-07 -0.000101499 1 
9.27468e-06 -0.000126409 1 
2.119e-05 -0.000148543 1 
3.606e-05 -0.000167969 1 
5.3444e-05 -0.000186984 1 
6.88938e-05 -0.000204093 1 
7.73646e-05 -0.000218523 1 
7.86763e-05 -0.000228792 1 
7.35876e-05 -0.000230662 1 
6.08601e-05 -0.000219066 1 
3.84239e-05 -0.000184474 1 
3.73235e-06 -0.000123822 1 
-5.12577e-05 -1.59419e-06 1 
-0.000136589 0.000198964 1 
-0.000266557 0.00047678 1 
-0.000462496 0.000790313 1 
-0.000736627 0.00109932 0.999999 
-0.00108293 0.00148779 0.999998 
-0.0015219 0.00217131 0.999996 
-0.00198502 0.00307908 0.999993 
-0.00228659 0.00380943 0.99999 
-0.00235206 0.00466257 0.999986 
-0.00221569 0.00641262 0.999977 
-0.00170909 0.00938199 0.999955 
2.82357e-05 0.013373 0.999911 
0.00318302 0.0188084 0.999818 
0.00663218 0.0266332 0.999623 
0.0111592 0.0315418 0.99944 
0.0164651 0.0375799 0.999158 
0.0222515 0.0347202 0.999149 
0.0284029 0.0402228 0.998787 
0.0291072 0.0519152 0.998227 
0.020794 0.0605988 0.997946 
0.0244041 0.0579616 0.99802 
0.00534381 0.039631 0.9992 
-0.000506663 0.0109501 -0.99994 
-0.00263142 0.018733 -0.999821 
-0.00655142 0.024108 -0.999688 
-0.0117754 0.0236398 -0.999651 
-0.00891553 0.0215591 -0.999728 
-0.00448103 0.021739 -0.999754 
-0.00143078 0.0210412 -0.999778 
0.000519916 0.0188408 -0.999822 
-0.000178765 0.0146735 -0.999892 
0.000978161 0.0114663 -0.999934 
0.0018528 0.00876568 -0.99996 
0.00213087 0.00620295 -0.999978 
0.00182115 0.00446346 -0.999988 
0.00138512 0.00336143 -0.999993 
0.00114885 0.00235411 -0.999997 
0.000986851 0.00160247 -0.999998 
0.00073844 0.00121009 -0.999999 
0.000483877 0.000942889 -0.999999 
0.000295013 0.000657784 -1 
0.000182919 0.000336867 -1 
0.000102311 9.87286e-05 -1 
3.91926e-05 -6.1827e-05 -1 
-8.34637e-06 -0.000153186 -1 
-3.89225e-05 -0.000203356 -1 
-5.89024e-05 -0.000223923 -1 
-7.32134e-05 -0.000226809 -1 
-7.92703e-05 -0.000220282 -1 
-7.68257e-05 -0.000212439 -1 
-6.56284e-05 -0.000202481 -1 
-4.78279e-05 -0.000183872 -1 
-3.04692e-05 -0.000164951 -1 
-1.64736e-05 -0.00014504 -1 
-7.25418e-06 -0.00012046 -1 
1.11645e-06 -9.94676e-05 -1 
7.41243e-06 -8.10135e-05 -1 
1.3615e-05 -7.05261e-05 -1 
1.68003e-05 -6.3819e-05 -1 
1.78189e-05 -5.63064e-05 -1 
2.3613e-05 -4.51236e-05 -1 
-2.76034e-05 -5.00417e-05 1 
-2.24512e-05 -6.04312e-05 1 
-2.17854e-05 -6.60102e-05 1 
-2.07862e-05 -7.24958e-05 1 
-1.61181e-05 -8.63934e-05 1 
-6.43459e-06 -0.000106655 1 
4.18666e-06 -0.000133957 1 
1.70485e-05 -0.000157737 1 
3.24564e-05 -0.00017941 1 
5.03945e-05 -0.000200973 1 
6.61825e-05 -0.000218771 1 
7.51763e-05 -0.000230196 1 
7.4684e-05 -0.000233526 1 
6.68857e-05 -0.000225114 1 
5.25661e-05 -0.000201694 1 
3.09123e-05 -0.000153704 1 
2.28221e-06 -7.09297e-05 1 
-3.77558e-05 7.44369e-05 1 
-0.000100651 0.000301188 1 
-0.000208323 0.000606558 1 
-0.000374131 0.000938424 0.999999 
-0.000612195 0.0012598 0.999999 
-0.000931989 0.00167945 0.999998 
-0.00133178 0.00237575 0.999996 
-0.00172935 0.00330767 0.999993 
-0.00198528 0.00404179 0.99999 
-0.00191831 0.00470464 0.999987 
-0.00155791 0.00619629 0.99998 
-0.00082125 0.00893937 0.99996 
0.00130063 0.012241 0.999924 
0.00552496 0.0165968 0.999847 
0.010021 0.0215288 0.999718 
0.0155163 0.027527 0.999501 
0.0217395 0.025795 0.999431 
0.0300594 0.0265949 0.999194 
0.0385599 0.0300353 0.998805 
0.0382588 0.0431428 0.998336 
0.042082 0.0499626 0.997864 
0.031886 0.0551763 0.997967 
0.0226529 0.05499 0.99823 
-0.00327286 0.019018 -0.999814 
-0.00421282 0.0237486 -0.999709 
-0.0109439 0.0248398 -0.999632 
-0.017587 0.0236606 -0.999565 
-0.0141268 0.020422 -0.999692 
-0.00941396 0.0178725 -0.999796 
-0.00562241 0.0180677 -0.999821 
-0.00272207 0.0168618 -0.999854 
-0.00223618 0.0131627 -0.999911 
-0.000260161 0.0105921 -0.999944 
0.00115246 0.00800788 -0.999967 
0.00154127 0.00564627 -0.999983 
0.00127461 0.00416761 -0.999991 
0.00101034 0.00320207 -0.999994 
0.000887278 0.00223892 -0.999997 
0.000746274 0.0015874 -0.999998 
0.000531256 0.00128943 -0.999999 
0.000324766 0.00104353 -0.999999 
0.000182724 0.000719204 -1 
0.000117726 0.000382908 -1 
7.07729e-05 0.000122871 -1 
2.89751e-05 -3.75549e-05 -1 
-6.74557e-06 -0.000131545 -1 
-3.45096e-05 -0.000186981 -1 
-5.56578e-05 -0.000213855 -1 
-6.91204e-05 -0.000221859 -1 
-7.59904e-05 -0.00022217 -1 
-7.33438e-05 -0.000220299 -1 
-6.16736e-05 -0.000215476 -1 
-4.54944e-05 -0.000196452 -1 
-2.69813e-05 -0.000177667 -1 
-1.13174e-05 -0.000153387 -1 
-1.8283e-06 -0.000127116 -1 
7.15179e-06 -0.000105134 -1 
1.31297e-05 -8.56876e-05 -1 
1.80504e-05 -7.44065e-05 -1 
1.87025e-05 -6.79156e-05 -1 
1.91524e-05 -6.2468e-05 -1 
2.32543e-05 -5.41497e-05 -1 
-2.00349e-05 -5.87575e-05 1 
-2.03025e-05 -6.52903e-05 1 
-2.0353e-05 -6.82497e-05 1 
-2.32846e-05 -7.46478e-05 1 
-2.23173e-05 -8.61719e-05 1 
-1.48984e-05 -0.000107219 1 
-4.59946e-06 -0.000132146 1 
8.18345e-06 -0.00015876 1 
2.20775e-05 -0.000183716 1 
3.79452e-05 -0.000206951 1 
5.3791e-05 -0.000227493 1 
6.4872e-05 -0.000237396 1 
6.66599e-05 -0.000238171 1 
6.03407e-05 -0.000228817 1 
4.80211e-05 -0.00020558 1 
3.18008e-05 -0.000161864 1 
1.27531e-05 -8.30732e-05 1 
-7.19128e-06 4.03978e-05 1 
-3.60381e-05 0.000241025 1 
-9.25325e-05 0.000528047 1 
-0.000191387 0.000864704 1 
-0.000345708 0.00119763 0.999999 
-0.000569461 0.00155214 0.999999 
-0.000868227 0.00212852 0.999997 
-0.00118151 0.00297253 0.999995 
-0.00144925 0.0038152 0.999992 
-0.00147729 0.00436025 0.999989 
-0.00106666 0.0052323 0.999986 
-0.000321592 0.0071598 0.999974 
0.00113452 0.00957097 0.999954 
0.00448619 0.0123127 0.999914 
0.00944731 0.0149834 0.999843 
0.014649 0.020023 0.999692 
0.0190498 0.0176357 0.999663 
0.0261888 0.0178671 0.999497 
0.0353374 0.015843 0.99925 
0.048646 0.0236316 0.998536 
0.0510284 0.0389067 0.997939 
0.0332452 0.0558111 0.997888 
0.0137947 0.0524453 0.998529 
-0.00637415 0.0250526 -0.999666 
-0.0146468 0.027392 -0.999517 
-0.0226693 0.0257258 -0.999412 
-0.0222396 0.0190787 -0.999571 
-0.0176336 0.0161703 -0.999714 
-0.0128412 0.0157479 -0.999794 
-0.0084333 0.0138109 -0.999869 
-0.00547632 0.0141663 -0.999885 
-0.00375995 0.0113655 -0.999928 
-0.00137403 0.00954905 -0.999953 
0.000266208 0.00735907 -0.999973 
0.000866231 0.00523201 -0.999986 
0.000751595 0.00405909 -0.999991 
0.000621319 0.00311147 -0.999995 
0.000564058 0.00220142 -0.999997 
0.000476633 0.00164238 -0.999999 
0.00032176 0.0013795 -0.999999 
0.000171812 0.00113019 -0.999999 
8.95643e-05 0.00079651 -1 
6.72462e-05 0.000442678 -1 
5.37415e-05 0.000176983 -1 
3.15959e-05 -1.9368e-06 -1 
5.95083e-06 -0.000104931 -1 
-2.02599e-05 -0.000167434 -1 
-4.45666e-05 -0.000202779 -1 
-6.02942e-05 -0.000217361 -1 
-6.80012e-05 -0.000223605 -1 
-6.63057e-05 -0.000226953 -1 
-5.55045e-05 -0.000225603 -1 
-4.03292e-05 -0.000210686 -1 
-2.09279e-05 -0.000187293 -1 
-6.4005e-06 -0.000162842 -1 
3.02162e-06 -0.000135419 -1 
1.24801e-05 -0.000111393 -1 
1.83546e-05 -9.04752e-05 -1 
2.07572e-05 -7.78036e-05 -1 
1.79322e-05 -7.07535e-05 -1 
1.62213e-05 -6.73622e-05 -1 
1.58833e-05 -6.13534e-05 -1 
-7.71765e-06 -6.31556e-05 1 
-1.24126e-05 -6.73111e-05 1 
-1.90579e-05 -7.11454e-05 1 
-2.42018e-05 -8.13173e-05 1 
-2.39374e-05 -9.78596e-05 1 
-1.69177e-05 -0.000121468 1 
-4.67534e-06 -0.00014849 1 
8.14528e-06 -0.000176027 1 
2.13577e-05 -0.000203776 1 
3.58261e-05 -0.000227864 1 
4.90903e-05 -0.000242902 1 
5.60996e-05 -0.00024436 1 
5.55265e-05 -0.000237569 1 
4.79873e-05 -0.000221494 1 
3.60319e-05 -0.000188248 1 
2.31848e-05 -0.000130308 1 
1.31973e-05 -4.19548e-05 1 
3.76317e-06 9.96495e-05 1 
-1.19471e-05 0.00032367 1 
-4.51962e-05 0.000624431 1 
-0.000111072 0.00097221 1 
-0.000229826 0.00131843 0.999999 
-0.000415424 0.00169132 0.999998 
-0.000634129 0.00225875 0.999997 
-0.000886475 0.00313136 0.999995 
-0.00106309 0.00397225 0.999992 
-0.000912577 0.00444747 0.99999 
-0.000307221 0.00535305 0.999986 
0.000797648 0.00698262 0.999975 
0.00286686 0.00904397 0.999955 
0.00636771 0.0104866 0.999925 
0.0122126 0.0128572 0.999843 
0.0180823 0.0115215 0.99977 
0.02469 0.0103274 0.999642 
0.0319022 0.00598629 0.999473 
0.0468708 0.00847163 0.998865 
0.0657572 0.0238259 0.997551 
0.0660475 0.0447315 0.996813 
0.0488195 0.0560402 0.997234 
-0.00195903 0.0187096 -0.999823 
-0.00690269 0.0288466 -0.99956 
-0.0158359 0.0340931 -0.999293 
-0.028822 0.0291822 -0.999158 
-0.0299608 0.0164745 -0.999415 
-0.022247 0.0115425 -0.999686 
-0.0156949 0.0114437 -0.999811 
-0.0112121 0.0121254 -0.999864 
-0.00635322 0.0106222 -0.999923 
-0.00341457 0.00883874 -0.999955 
-0.00146652 0.00757826 -0.99997 
-7.82803e-05 0.00600835 -0.999982 
0.000318963 0.00451891 -0.99999 
0.000312274 0.00351325 -0.999994 
0.000260161 0.00268079 -0.999996 
0.000261259 0.0019617 -0.999998 
0.000202656 0.00156193 -0.999999 
8.81533e-05 0.00135641 -0.999999 
9.835e-06 0.00108721 -0.999999 
2.99122e-06 0.000725126 -1 
2.66327e-05 0.000391941 -1 
3.94456e-05 0.000137266 -1 
3.04948e-05 -1.70473e-05 -1 
1.01043e-05 -0.000109342 -1 
-1.69071e-05 -0.000166262 -1 
-4.10181e-05 -0.000198257 -1 
-5.65884e-05 -0.000215578 -1 
-6.08583e-05 -0.000224531 -1 
-5.65823e-05 -0.0002319 -1 
-4.53382e-05 -0.000234972 -1 
-3.14134e-05 -0.000220083 -1 
-1.49253e-05 -0.000198773 -1 
-1.16258e-06 -0.000169439 -1 
8.59705e-06 -0.00013971 -1 
1.77468e-05 -0.00011535 -1 
2.21008e-05 -9.43105e-05 -1 
2.13493e-05 -8.04604e-05 -1 
1.48006e-05 -7.08246e-05 -1 
9.46274e-06 -6.85593e-05 -1 
2.29759e-06 -6.36096e-05 -1 
8.16458e-06 -5.85246e-05 1 
-3.53059e-06 -6.39286e-05 1 
-1.41354e-05 -6.84865e-05 1 
-2.23028e-05 -8.12319e-05 1 
-2.5278e-05 -0.00010043 1 
-2.00522e-05 -0.000124363 1 
-8.83214e-06 -0.000152351 1 
4.01357e-06 -0.000182377 1 
1.61439e-05 -0.000212842 1 
2.79789e-05 -0.000238194 1 
3.83794e-05 -0.000251079 1 
4.43511e-05 -0.000249557 1 
4.54929e-05 -0.000240262 1 
4.12614e-05 -0.000223987 1 
3.21362e-05 -0.000192152 1 
2.21467e-05 -0.000140172 1 
1.53869e-05 -6.35765e-05 1 
1.37638e-05 5.65634e-05 1 
1.55731e-05 0.000243877 1 
1.67471e-05 0.000511644 1 
3.65134e-06 0.00084269 1 
-4.78131e-05 0.0011933 0.999999 
-0.000160671 0.00152842 0.999999 
-0.00032135 0.00194565 0.999998 
-0.00052617 0.00264037 0.999996 
-0.000700819 0.00356783 0.999993 
-0.000635994 0.00409306 0.999991 
-0.000233864 0.00455415 0.99999 
0.000662955 0.00539035 0.999985 
0.00215704 0.00685502 0.999974 
0.00450327 0.0076601 0.999961 
0.00888915 0.00906792 0.999919 
0.013619 0.00833564 0.999873 
0.0195406 0.00430756 0.9998 
0.0276146 -0.00157375 0.999617 
0.0457487 -0.0055295 0.998938 
0.0720254 0.00668672 0.99738 
0.0927171 0.050673 0.994402 
0.0564418 0.0765584 0.995466 
0.0252689 0.0639552 0.997633 
-0.00393981 0.034975 -0.99938 
-0.0197297 0.0476131 -0.998671 
-0.0403071 0.0258626 -0.998853 
-0.0371271 0.0106278 -0.999254 
-0.0250059 0.00591663 -0.99967 
-0.0161688 0.00639709 -0.999849 
-0.0117393 0.00802505 -0.999899 
-0.00817973 0.00875109 -0.999928 
-0.00437614 0.00742937 -0.999963 
-0.00195388 0.00616319 -0.999979 
-0.000637567 0.00537495 -0.999985 
-9.04404e-05 0.00411138 -0.999992 
1.25671e-05 0.00323063 -0.999995 
7.64953e-06 0.0023779 -0.999997 
4.7682e-05 0.00181479 -0.999998 
1.12186e-05 0.00153122 -0.999999 
-7.70468e-05 0.00134687 -0.999999 
-0.000108519 0.00106298 -0.999999 
-6.57467e-05 0.000708904 -1 
-5.38701e-06 0.000379152 -1 
3.43371e-05 0.000145134 -1 
3.96167e-05 -1.131e-05 -1 
2.26659e-05 -0.00010084 -1 
-5.58311e-06 -0.000153629 -1 
-3.26482e-05 -0.000187718 -1 
-4.89357e-05 -0.00020896 -1 
-5.26955e-05 -0.000222543 -1 
-4.87223e-05 -0.000234052 -1 
-3.9653e-05 -0.000240766 -1 
-2.62364e-05 -0.000232024 -1 
-1.06139e-05 -0.000208267 -1 
1.85721e-06 -0.000179298 -1 
1.17175e-05 -0.000147797 -1 
1.99923e-05 -0.00012279 -1 
2.33886e-05 -9.90839e-05 -1 
2.02867e-05 -8.15036e-05 -1 
1.10859e-05 -6.77261e-05 -1 
1.30592e-06 -6.42477e-05 -1 
-1.26352e-05 -5.79398e-05 -1 
2.21834e-05 -4.65869e-05 1 
4.45283e-06 -5.39626e-05 1 
-9.38185e-06 -6.30299e-05 1 
-1.90847e-05 -7.98663e-05 1 
-2.28915e-05 -0.000104176 1 
-1.83812e-05 -0.00013279 1 
-8.27493e-06 -0.000164461 1 
3.74813e-06 -0.000196452 1 
1.48189e-05 -0.000227188 1 
2.42097e-05 -0.000250044 1 
3.11826e-05 -0.000259575 1 
3.33483e-05 -0.000252561 1 
3.32021e-05 -0.000239787 1 
2.98405e-05 -0.000218911 1 
2.22702e-05 -0.000182132 1 
1.40393e-05 -0.000130355 1 
9.21098e-06 -5.88039e-05 1 
1.04149e-05 4.66372e-05 1 
1.9514e-05 0.000213879 1 
3.86009e-05 0.000453497 1 
5.74661e-05 0.000768851 1 
4.47436e-05 0.00113333 0.999999 
-2.36978e-05 0.00147002 0.999999 
-0.000165328 0.00185578 0.999998 
-0.000343206 0.00244578 0.999997 
-0.000475568 0.00325114 0.999995 
-0.000426016 0.00374086 0.999993 
-0.000159831 0.00404654 0.999992 