# vtk DataFile Version 3.0 
Exported using Morpho https://github.com/Morpho-lang/morpho 
ASCII 
DATASET UNSTRUCTURED_GRID 

POINTS 1978 float 
-12 -4 1.37894e-18 
-11.6268 -4 5.7497e-18 
-11.3325 -4 -5.1685e-21 
-10.9865 -4 3.37839e-18 
-10.6659 -4 1.36253e-18 
-10.3133 -4 1.97061e-18 
-9.99576 -4 5.24013e-18 
-9.65547 -4 1.09612e-18 
-9.32056 -4 5.37563e-18 
-9.00736 -4 3.47267e-18 
-8.69775 -4 -7.23283e-19 
-8.38309 -4 6.46865e-19 
-8.07797 -4 -9.43791e-18 
-7.7668 -4 -6.15332e-18 
-7.48133 -4 3.50175e-18 
-7.19504 -4 4.48396e-18 
-6.90518 -4 1.3871e-17 
-6.59737 -4 3.51192e-18 
-6.29339 -4 -1.6803e-18 
-5.98885 -4 -8.43375e-18 
-5.69066 -4 -6.62041e-18 
-5.4001 -4 1.18276e-17 
-5.11002 -4 1.94226e-17 
-4.81359 -4 -2.20508e-17 
-4.50976 -4 -5.78808e-17 
-4.20781 -4 -6.93603e-17 
-3.91296 -4 -9.76108e-17 
-3.60975 -4 -2.34883e-17 
-3.30687 -4 3.86429e-17 
-3.02569 -4 7.01885e-17 
-2.73456 -4 -1.50263e-16 
-2.46494 -4 2.19029e-17 
-2.18823 -4 1.75886e-16 
-1.95774 -4 8.44682e-16 
-1.75737 -4 2.56866e-15 
-1.56143 -4 3.21153e-15 
-1.30899 -4 3.25926e-15 
-1.08737 -4 3.00556e-14 
-0.56038 -4 -1.29985e-13 
-0.124727 -4 -2.68399e-13 
0.470808 -4 1.26081e-13 
0.792341 -4 2.15894e-14 
1.04316 -4 6.48693e-15 
1.31135 -4 -1.522e-15 
1.57708 -4 -1.73024e-15 
1.87661 -4 -1.85021e-16 
2.20315 -4 -2.96455e-17 
2.51089 -4 3.88344e-16 
2.74778 -4 -1.22368e-16 
3.03728 -4 -2.84213e-17 
3.32581 -4 -3.38918e-17 
3.60535 -4 8.69665e-17 
3.89816 -4 2.83405e-17 
4.19331 -4 5.75531e-17 
4.49379 -4 6.68227e-17 
4.80083 -4 2.43561e-17 
5.10327 -4 -3.70146e-17 
5.40663 -4 -2.62774e-18 
5.7087 -4 1.54468e-17 
5.99753 -4 4.51152e-18 
6.30094 -4 -3.07629e-18 
6.57755 -4 -1.2252e-17 
6.87819 -4 -7.3344e-18 
7.17178 -4 -4.57675e-18 
7.46916 -4 -2.83971e-18 
7.77292 -4 4.67704e-18 
8.07193 -4 9.03347e-18 
8.3737 -4 3.69937e-18 
8.67778 -4 2.88865e-18 
8.95891 -4 -7.99683e-18 
9.2979 -4 -3.78179e-18 
9.61906 -4 -1.97882e-18 
9.92594 -4 -7.15342e-18 
10.292 -4 -5.81553e-19 
10.6216 -4 -6.16905e-18 
10.992 -4 -2.02386e-18 
11.311 -4 -1.8826e-18 
11.6015 -4 -4.67669e-18 
12 -4 -6.74036e-19 
-12 -3.6227 -4.44095e-18 
-11.7005 -3.69598 -5.06158e-22 
-11.3583 -3.62227 3.30482e-22 
-11.0516 -3.67841 2.39497e-22 
-10.707 -3.64961 3.42469e-22 
-10.3895 -3.68465 1.04563e-21 
-10.0493 -3.65532 -1.18423e-22 
-9.72633 -3.68326 5.15493e-22 
-9.38788 -3.67792 2.94001e-22 
-9.05916 -3.66163 4.14614e-22 
-8.74375 -3.66289 -1.93175e-22 
-8.42747 -3.67141 -6.03945e-22 
-8.10867 -3.6624 1.19203e-21 
-7.79928 -3.6696 4.5459e-21 
-7.49027 -3.64926 -1.87105e-20 
-7.1957 -3.64748 1.46413e-20 
-6.88729 -3.66918 -2.03184e-20 
-6.57866 -3.66884 -1.17092e-20 
-6.27049 -3.67261 -1.47397e-20 
-5.96669 -3.6696 -1.21395e-20 
-5.66816 -3.66444 -9.91033e-21 
-5.37033 -3.66501 -9.71208e-21 
-5.06556 -3.67275 -1.52158e-20 
-4.75411 -3.68054 -2.54776e-21 
-4.44134 -3.6765 7.06114e-20 
-4.13123 -3.67421 1.60481e-19 
-3.81137 -3.68877 -3.17778e-19 
-3.49083 -3.68353 1.13894e-18 
-3.17717 -3.66762 -9.49399e-19 
-2.87176 -3.67411 9.00404e-19 
-2.5713 -3.65665 2.35913e-17 
-2.28568 -3.68168 2.67302e-17 
-2.01532 -3.66107 2.73169e-17 
-1.77609 -3.41285 1.12862e-16 
-1.7708 -3.69515 -1.30931e-16 
-1.52543 -3.50113 8.75503e-17 
-1.49894 -3.76261 -1.71429e-17 
-0.932022 -3.86368 2.65697e-16 
-0.666518 -3.75592 2.67906e-16 
-0.323691 -3.80539 2.55578e-16 
0.583632 -3.74601 -9.50901e-18 
0.873785 -3.70569 -1.36262e-17 
1.15278 -3.73292 -1.25057e-17 
1.43938 -3.68552 8.58464e-18 
1.72574 -3.73027 -3.04224e-19 
2.06274 -3.7671 1.10951e-18 
2.15644 -3.52453 -4.46586e-18 
2.41378 -3.71637 -1.67062e-17 
2.69458 -3.62405 -3.613e-18 
2.96301 -3.69401 -2.54268e-18 
3.28114 -3.68861 -9.34321e-19 
3.59785 -3.66102 -4.60948e-19 
3.89438 -3.66995 1.7317e-19 
4.20241 -3.66628 -1.74691e-19 
4.51499 -3.67771 -2.05621e-20 
4.82158 -3.67135 8.23454e-21 
5.1305 -3.67313 1.36902e-20 
5.43915 -3.6737 1.35288e-20 
5.73579 -3.65986 1.34277e-20 
6.03781 -3.67347 1.49877e-20 
6.32868 -3.64749 6.76559e-21 
6.62897 -3.67057 9.35224e-21 
6.92916 -3.66071 4.4512e-21 
7.22959 -3.66121 8.6178e-22 
7.53658 -3.66752 -3.82567e-22 
7.83857 -3.65698 -1.12396e-21 
8.14247 -3.65795 -1.25341e-22 
8.44278 -3.6571 -5.17142e-22 
8.73552 -3.63412 1.19229e-21 
9.0569 -3.69265 -1.20122e-21 
9.38422 -3.67446 8.55723e-22 
9.69905 -3.65524 -4.44411e-22 
10.0451 -3.70706 -4.76065e-22 
10.3855 -3.67158 2.74471e-22 
10.7424 -3.70413 -1.99524e-22 
11.0734 -3.65384 -3.5976e-22 
11.3748 -3.61715 -1.49131e-22 
11.7189 -3.71993 1.43963e-22 
12 -3.60701 4.91782e-18 
-12 -3.32581 -3.06257e-18 
-11.6325 -3.34823 3.23181e-22 
-11.2924 -3.27497 3.547e-23 
-10.975 -3.34658 -2.36344e-23 
-10.655 -3.303 7.29962e-26 
-10.3401 -3.35067 -1.57619e-23 
-10.03 -3.3007 3.25961e-25 
-9.72793 -3.34463 2.67913e-23 
-9.41574 -3.3541 1.37854e-21 
-9.09261 -3.33363 -7.30512e-22 
-8.77457 -3.32451 -6.41235e-24 
-8.46502 -3.33685 -2.272e-23 
-8.15375 -3.33638 -1.02979e-22 
-7.83706 -3.33386 -6.89711e-24 
-7.53242 -3.32011 -1.07271e-23 
-7.22425 -3.3053 1.0655e-21 
-6.92457 -3.33461 -7.09997e-22 
-6.62076 -3.34204 -1.48517e-22 
-6.3115 -3.34558 -2.45798e-22 
-6.00608 -3.34261 3.15859e-22 
-5.70222 -3.33466 2.53599e-21 
-5.40099 -3.33416 1.27299e-20 
-5.09986 -3.34888 3.56565e-20 
-4.791 -3.36185 5.69934e-20 
-4.47924 -3.36017 1.35805e-19 
-4.16094 -3.3528 2.65912e-19 
-3.84615 -3.3777 1.13178e-18 
-3.52759 -3.37108 -1.19007e-18 
-3.20844 -3.35327 5.86642e-18 
-2.88909 -3.34695 7.72243e-18 
-2.58253 -3.33428 1.94211e-17 
-2.28551 -3.35323 -1.33301e-17 
-2.02763 -3.31816 3.65814e-18 
-1.75253 -3.13414 -2.41794e-17 
-1.48474 -3.22699 -4.90681e-17 
-1.32592 -3.02142 -2.143e-17 
-1.25624 -3.421 -2.36716e-18 
-1.25154 -3.68762 8.96183e-17 
-0.973717 -3.61177 -2.02388e-17 
-0.588397 -3.53917 -1.50954e-17 
0.279279 -3.65856 1.41708e-12 
1.19589 -3.45208 2.32548e-17 
1.4908 -3.39263 6.84775e-20 
1.51507 -2.95439 -1.75276e-17 
1.70989 -3.18474 -1.00984e-17 
1.81199 -3.49072 -1.04553e-17 
2.03524 -3.2683 -6.23945e-18 
2.43831 -3.38777 -1.91952e-17 
2.70295 -3.26744 -6.09295e-19 
2.97836 -3.35949 -3.05374e-18 
3.26733 -3.38688 -1.54578e-18 
3.57426 -3.343 -8.9342e-19 
3.8856 -3.33848 -4.75805e-19 
4.1903 -3.34405 -1.67439e-19 
4.50089 -3.35535 -7.44996e-20 
4.80753 -3.343 -3.76182e-20 
5.11048 -3.34661 -1.57016e-20 
5.41475 -3.34886 -3.54505e-21 
5.71728 -3.32513 -2.38308e-21 
6.01431 -3.33843 -2.78937e-22 
6.30911 -3.312 -5.17614e-22 
6.60761 -3.3367 -4.59575e-23 
6.90688 -3.32866 -1.04213e-24 
7.21133 -3.32549 -3.24334e-24 
7.51556 -3.33643 -7.43069e-22 
7.823 -3.31786 1.87328e-22 
8.12719 -3.31858 2.75799e-23 
8.43256 -3.3069 4.12786e-23 
8.7532 -3.31014 1.00445e-23 
9.07351 -3.37027 6.74072e-24 
9.39108 -3.34045 5.63717e-24 
9.70462 -3.31273 3.45545e-24 
10.0142 -3.39246 -5.20144e-25 
10.3134 -3.32479 2.25119e-24 
10.6388 -3.38746 1.46952e-24 
10.9675 -3.33576 7.57507e-22 
11.2913 -3.26464 4.74614e-25 
11.6332 -3.36647 -3.08854e-22 
12 -3.30459 2.20859e-18 
-12 -2.99377 -5.08829e-18 
-11.6654 -3.03379 6.89145e-22 
-11.3257 -2.95808 -7.2332e-24 
-10.9768 -3.0005 1.07708e-24 
-10.6399 -2.97437 4.37732e-23 
-10.3129 -3.00075 -3.97132e-23 
-9.99146 -2.96241 4.9781e-23 
-9.67927 -3.00091 5.65272e-24 
-9.3649 -3.01854 -3.85528e-23 
-9.04725 -2.99877 -1.73421e-23 
-8.7342 -2.98838 -4.84883e-24 
-8.42501 -3.00223 -1.5404e-23 
-8.10982 -3.00897 -4.86735e-25 
-7.80372 -2.99639 8.88515e-24 
-7.49633 -2.9888 6.47455e-23 
-7.19366 -2.97119 -8.1559e-23 
-6.89177 -3.00283 1.0787e-21 
-6.58464 -3.0178 2.67915e-24 
-6.28284 -3.0171 2.426e-22 
-5.98273 -3.01434 -6.07214e-23 
-5.68234 -3.00689 5.62091e-22 
-5.38411 -3.00476 2.10848e-23 
-5.0871 -3.02264 1.19409e-20 
-4.78486 -3.0423 6.48524e-20 
-4.47858 -3.03545 9.42575e-20 
-4.16741 -3.04011 1.42655e-19 
-3.8413 -3.06092 -1.09592e-18 
-3.51386 -3.05661 5.00892e-18 
-3.1809 -3.04178 8.59976e-19 
-2.85109 -3.02587 6.07108e-18 
-2.52337 -3.01908 7.8257e-18 
-2.22846 -3.00747 -5.04252e-18 
-1.96337 -2.95379 -1.90097e-17 
-1.59809 -2.89432 -5.85223e-17 
-1.53195 -2.63567 -1.38009e-17 
-1.24819 -2.7422 -1.04062e-16 
-1.0435 -3.01535 2.29849e-17 
-1.08008 -3.28785 5.68857e-17 
-0.807619 -3.38715 5.8102e-17 
0.124835 -3.85955 2.61599e-13 
0.0478671 -3.37473 -4.28444e-12 
0.885992 -3.44325 -2.28853e-18 
1.31375 -3.14617 -1.49198e-17 
1.22881 -2.8012 -2.55739e-17 
1.50343 -2.63009 -1.59745e-17 
1.76597 -2.78671 -8.5062e-18 
1.97411 -2.97258 -1.63518e-17 
2.30293 -3.11089 -4.92734e-18 
2.56473 -2.96928 -7.96775e-18 
2.91057 -2.99457 -2.47518e-18 
3.19259 -3.0525 -1.97224e-18 
3.48878 -3.03712 -8.7911e-19 
3.81954 -3.0219 -2.47836e-19 
4.14324 -3.02427 -8.74217e-20 
4.46302 -3.03392 -5.90739e-20 
4.77513 -3.019 -2.54304e-20 
5.08344 -3.0171 -7.39265e-21 
5.38666 -3.02227 -1.419e-21 
5.68891 -3.00006 -3.85199e-22 
5.99307 -3.00428 -8.46815e-22 
6.29725 -2.98744 5.76483e-22 
6.6037 -3.00327 3.42046e-23 
6.90867 -3.00039 2.07965e-23 
7.21316 -2.99506 -2.29688e-23 
7.51821 -3.00472 7.98983e-24 
7.82208 -2.9815 -1.31084e-21 
8.12571 -2.98057 -1.89735e-24 
8.44152 -2.98119 -1.474e-23 
8.75033 -2.97359 6.39277e-24 
9.06138 -3.04023 3.01023e-24 
9.37429 -3.00568 -3.67598e-22 
9.67666 -2.9667 -2.059e-22 
9.9934 -3.03829 -1.14381e-23 
10.3204 -2.99234 1.57677e-23 
10.6459 -3.05315 1.2542e-25 
10.9733 -2.99661 -1.26159e-24 
11.32 -2.94438 -1.19547e-25 
11.6562 -3.05271 -4.85737e-22 
12 -2.98174 4.10562e-18 
-12 -2.67817 -3.37782e-18 
-11.6529 -2.70284 4.55018e-22 
-11.3273 -2.62412 1.94391e-24 
-10.9991 -2.68062 -9.13483e-22 
-10.6596 -2.65482 -2.75881e-23 
-10.3229 -2.66804 -2.52659e-23 
-9.98789 -2.64339 6.7248e-24 
-9.65327 -2.66428 2.92431e-23 
-9.33633 -2.68459 -7.30145e-22 
-9.01864 -2.6655 -4.43969e-25 
-8.70431 -2.65623 -5.27884e-25 
-8.38883 -2.67688 -2.22687e-24 
-8.07875 -2.67515 -5.20902e-22 
-7.76879 -2.66617 5.10787e-24 
-7.46481 -2.65472 1.60106e-24 
-7.15597 -2.64593 -2.23281e-22 
-6.85154 -2.6797 -1.47544e-22 
-6.55306 -2.68787 -1.6145e-22 
-6.25472 -2.68768 2.49482e-22 
-5.95616 -2.68756 -1.35633e-21 
-5.65822 -2.67969 -3.08837e-21 
[...]
POINT_DATA 1978 
VECTORS vectors float
9.82761e-07 -2.68241e-05 1 
-5.29026e-07 -3.961e-05 1 
2.06888e-07 -4.73255e-05 1 
-3.2672e-08 -5.8353e-05 1 
-3.34112e-08 -7.1627e-05 1 
5.43319e-08 -8.89263e-05 1 
-4.51312e-08 -0.000108014 1 
3.95476e-08 -0.000131717 1 
-5.23145e-08 -0.000159194 1 
2.33365e-08 -0.000184562 1 
-2.15359e-08 -0.000206459 1 
-3.65652e-08 -0.000220301 1 
3.07117e-08 -0.000231457 1 
-1.65466e-08 -0.000252417 1 
-5.64509e-08 -0.000276832 1 
1.70548e-07 -0.000298234 1 
1.40355e-07 -0.000311141 1 
-6.28391e-08 -0.000281591 1 
-7.03204e-08 -0.000176413 1 
2.03533e-07 2.06161e-05 1 
1.3729e-07 0.000296699 1 
-3.85515e-07 0.00062472 1 
-4.74576e-07 0.000944529 1 
2.79757e-06 0.00128425 0.999999 
-2.79526e-06 0.00182361 0.999998 
-7.60476e-07 0.0026472 0.999996 
6.74148e-06 0.00376775 0.999993 
-8.17471e-06 0.00554274 0.999985 
3.42894e-05 0.00798397 0.999968 
-8.34403e-05 0.0109846 0.99994 
2.61248e-05 0.0160851 0.999871 
0.000137565 0.0239425 0.999713 
-0.000186324 0.0361753 0.999345 
-8.28056e-05 0.0500881 0.998745 
0.000165445 0.0627547 0.998029 
0.00064515 0.0756866 0.997131 
-0.00107303 0.0942535 0.995548 
0.000473229 0.0851399 0.996369 
-0.000311219 0.0616768 0.998096 
0.000180493 0.0417033 0.99913 
-9.83715e-05 -0.000249771 -1 
0.000255637 0.0123491 -0.999924 
-0.000320235 0.0268347 -0.99964 
0.000213727 0.0322825 -0.999479 
-5.1165e-05 0.0313853 -0.999507 
-6.56265e-05 0.0307933 -0.999526 
0.000147769 0.0211948 -0.999775 
-0.000198334 0.0155394 -0.999879 
0.000142244 0.0123546 -0.999924 
-4.54817e-05 0.00992047 -0.999951 
-1.75858e-06 0.00738185 -0.999973 
1.96406e-06 0.00540882 -0.999985 
8.99744e-06 0.00355193 -0.999994 
-6.01325e-06 0.002473 -0.999997 
-1.99169e-06 0.00168284 -0.999999 
5.01056e-06 0.0011863 -0.999999 
-4.74222e-06 0.000852876 -1 
1.85648e-06 0.000516573 -1 
-6.70528e-07 0.000193792 -1 
1.5865e-07 -6.06421e-05 -1 
3.88559e-07 -0.000229258 -1 
-7.32704e-07 -0.000304 -1 
6.35198e-07 -0.000312763 -1 
-4.2116e-07 -0.000292727 -1 
1.13913e-07 -0.000268645 -1 
-7.4793e-08 -0.000247781 -1 
1.77924e-07 -0.000234159 -1 
-2.80653e-07 -0.000225172 -1 
3.1669e-07 -0.000208481 -1 
-1.66426e-07 -0.00018538 -1 
3.87818e-08 -0.000156392 -1 
7.75775e-08 -0.000131265 -1 
-8.19047e-08 -0.000111086 -1 
4.39882e-08 -9.05847e-05 -1 
-2.72655e-09 -7.56285e-05 -1 
-6.63902e-09 -6.14744e-05 -1 
-1.26837e-07 -5.22597e-05 -1 
3.72645e-07 -4.52318e-05 -1 
-6.86034e-07 -3.32994e-05 -1 
-1.42515e-05 -2.70472e-05 1 
-9.33184e-06 -4.00179e-05 1 
-8.76029e-06 -4.98181e-05 1 
-5.15625e-06 -5.78024e-05 1 
-1.79716e-06 -7.02912e-05 1 
2.636e-06 -8.55994e-05 1 
7.38962e-06 -0.00010652 1 
1.37772e-05 -0.000128742 1 
2.14876e-05 -0.000152565 1 
2.71953e-05 -0.000174302 1 
2.8357e-05 -0.000193587 1 
2.69983e-05 -0.000210497 1 
2.91903e-05 -0.000226584 1 
3.10018e-05 -0.000243889 1 
2.8516e-05 -0.000255858 1 
1.36317e-05 -0.000256591 1 
-1.5352e-05 -0.000241179 1 
-5.9462e-05 -0.000176442 1 
-0.00012026 -4.25679e-05 1 
-0.000202917 0.000171371 1 
-0.000313569 0.000437214 1 
-0.00044683 0.000731693 1 
-0.00059604 0.00108803 0.999999 
-0.000787066 0.00160113 0.999998 
-0.00105046 0.00231217 0.999997 
-0.00128084 0.00316363 0.999994 
-0.00131778 0.00439343 0.999989 
-0.00126437 0.00648057 0.999978 
-0.00107814 0.0094206 0.999955 
-0.000712846 0.013465 0.999909 
-0.000450247 0.0197159 0.999806 
-0.000280732 0.0298478 0.999554 
0.000578425 0.0424111 0.9991 
0.00296803 0.0523351 0.998625 
0.00362057 0.0613322 0.998111 
0.00745384 0.0662874 0.997773 
0.00654185 0.0768451 0.997022 
0.0118558 0.0750623 0.997108 
0.0139833 0.0657651 0.997737 
0.0117868 0.0543518 0.998452 
-0.000315809 0.00599643 -0.999982 
-0.00335165 0.0186895 -0.99982 
-0.00296418 0.0268248 -0.999636 
-0.00211211 0.0262031 -0.999654 
-0.000448079 0.0267958 -0.999641 
0.000391841 0.0244039 -0.999702 
0.00111415 0.0205448 -0.999788 
0.00184343 0.0170009 -0.999854 
0.00171378 0.0131997 -0.999911 
0.00137878 0.0103855 -0.999945 
0.00123395 0.00777636 -0.999969 
0.00135236 0.00550371 -0.999984 
0.00114121 0.00384605 -0.999992 
0.000762037 0.00270875 -0.999996 
0.000561767 0.001825 -0.999998 
0.000494058 0.00122767 -0.999999 
0.000409738 0.000860878 -1 
0.000300483 0.000562062 -1 
0.000210476 0.00028044 -1 
0.000136488 2.3414e-05 -1 
8.30583e-05 -0.000124091 -1 
3.47392e-05 -0.000221733 -1 
1.5315e-06 -0.000253464 -1 
-1.84256e-05 -0.000260438 -1 
-2.80373e-05 -0.000254411 -1 
-3.11359e-05 -0.000240824 -1 
-3.05343e-05 -0.000225904 -1 
-2.97484e-05 -0.000210813 -1 
-3.06116e-05 -0.000191813 -1 
-2.47344e-05 -0.000172465 -1 
-1.92788e-05 -0.000149662 -1 
-1.24022e-05 -0.000127883 -1 
-6.63055e-06 -0.000105682 -1 
-2.80213e-06 -8.63732e-05 -1 
5.84297e-07 -7.09387e-05 -1 
4.72934e-06 -6.05467e-05 -1 
7.65552e-06 -5.32834e-05 -1 
7.42238e-06 -4.43758e-05 -1 
1.1543e-05 -3.17037e-05 -1 
-2.19395e-05 -3.32479e-05 1 
-1.61232e-05 -4.77266e-05 1 
-1.45923e-05 -5.66325e-05 1 
-1.0321e-05 -6.41147e-05 1 
-5.27818e-06 -7.57803e-05 1 
1.9337e-06 -9.27674e-05 1 
9.55829e-06 -0.000114879 1 
1.86143e-05 -0.000135073 1 
3.0216e-05 -0.000155118 1 
4.3671e-05 -0.000174538 1 
5.45072e-05 -0.000191985 1 
5.95676e-05 -0.000208166 1 
6.226e-05 -0.000223285 1 
6.10807e-05 -0.000235654 1 
5.358e-05 -0.000238269 1 
3.38037e-05 -0.000220333 1 
-1.73071e-06 -0.000184826 1 
-5.57346e-05 -9.67468e-05 1 
-0.000140701 6.41422e-05 1 
-0.00026636 0.000305128 1 
-0.000447333 0.000589828 1 
-0.000687205 0.000879197 0.999999 
-0.000981169 0.0012513 0.999999 
-0.0013429 0.00187112 0.999997 
-0.00175011 0.00268518 0.999995 
-0.00207326 0.0035028 0.999992 
-0.00212867 0.00456096 0.999987 
-0.00208673 0.00665355 0.999976 
-0.00177048 0.00990344 0.999949 
-0.000762653 0.0139505 0.999902 
0.000851232 0.019807 0.999803 
0.00256108 0.0291146 0.999573 
0.00508769 0.0378079 0.999272 
0.0095306 0.0432056 0.999021 
0.0129968 0.0530452 0.998508 
0.0204465 0.0499469 0.998543 
0.0138108 0.0656583 0.997747 
0.0125524 0.0725693 0.997284 
0.0174165 0.064742 0.99775 
0.0171048 0.0587813 0.998124 
0.00102149 0.00766101 -0.99997 
-0.00304808 0.0248922 -0.999685 
-0.00308692 0.0247837 -0.999688 
-0.006162 0.0237261 -0.9997 
-0.00240554 0.0240797 -0.999707 
-0.000496744 0.0249052 -0.99969 
0.000448094 0.0226468 -0.999743 
0.00183394 0.0170487 -0.999853 
0.00183452 0.0135608 -0.999906 
0.00188209 0.0105709 -0.999942 
0.00194676 0.00802942 -0.999966 
0.00207954 0.00577847 -0.999981 
0.00178755 0.00413306 -0.99999 
0.00130256 0.00305546 -0.999994 
0.00104104 0.00213215 -0.999997 
0.000903038 0.00143347 -0.999999 
0.000703669 0.00104164 -0.999999 
0.000482006 0.000766298 -1 
0.000311027 0.00047882 -1 
0.000194067 0.000194808 -1 
0.000110593 3.71048e-06 -1 
4.29627e-05 -0.000130483 -1 
-3.3596e-06 -0.000195779 -1 
-3.20601e-05 -0.00022922 -1 
-4.95675e-05 -0.000241184 -1 
-6.05659e-05 -0.000233795 -1 
-6.45972e-05 -0.000222965 -1 
-6.2315e-05 -0.000207697 -1 
-5.45944e-05 -0.000192444 -1 
-3.95455e-05 -0.000173788 -1 
-2.76514e-05 -0.00015487 -1 
-1.62853e-05 -0.000134271 -1 
-7.95469e-06 -0.00011152 -1 
-2.34882e-06 -9.40744e-05 -1 
3.0345e-06 -7.73114e-05 -1 
8.73316e-06 -6.64613e-05 -1 
1.28644e-05 -5.94169e-05 -1 
1.36317e-05 -5.0932e-05 -1 
1.86178e-05 -3.7213e-05 -1 
-2.72617e-05 -4.1553e-05 1 
-2.10315e-05 -5.3266e-05 1 
-1.92729e-05 -6.09786e-05 1 
-1.60009e-05 -6.86249e-05 1 
-9.97263e-06 -8.20711e-05 1 
-4.85271e-07 -0.000101499 1 
9.27465e-06 -0.000126408 1 
2.11899e-05 -0.000148543 1 
3.60599e-05 -0.000167968 1 
5.34438e-05 -0.000186984 1 
6.88934e-05 -0.000204092 1 
7.73642e-05 -0.000218522 1 
7.86759e-05 -0.000228792 1 
7.35871e-05 -0.000230661 1 
6.08597e-05 -0.000219065 1 
3.84234e-05 -0.000184473 1 
3.73204e-06 -0.000123821 1 
-5.1258e-05 -1.59348e-06 1 
-0.000136589 0.000198964 1 
-0.000266557 0.00047678 1 
-0.000462495 0.000790311 1 
-0.000736625 0.00109932 0.999999 
-0.00108293 0.00148779 0.999998 
-0.00152189 0.00217131 0.999996 
-0.00198501 0.00307907 0.999993 
-0.00228657 0.00380942 0.99999 
-0.00235205 0.00466258 0.999986 
-0.00221566 0.00641262 0.999977 
-0.00170906 0.00938199 0.999955 
2.82524e-05 0.013373 0.999911 
0.00318303 0.0188084 0.999818 
0.00663219 0.0266332 0.999623 
0.0111592 0.0315418 0.99944 
0.016465 0.0375799 0.999158 
0.0222515 0.0347201 0.999149 
0.0284027 0.0402229 0.998787 
0.0291071 0.0519151 0.998227 
0.020794 0.0605987 0.997946 
0.024404 0.0579616 0.99802 
0.00534366 0.0396305 0.9992 
-0.000506545 0.0109504 -0.99994 
-0.00263149 0.0187331 -0.999821 
-0.00655135 0.024108 -0.999688 
-0.0117753 0.0236398 -0.999651 
-0.00891553 0.0215591 -0.999728 
-0.00448106 0.0217389 -0.999754 
-0.00143075 0.0210412 -0.999778 
0.000519856 0.0188408 -0.999822 
-0.000178772 0.0146734 -0.999892 
0.000978154 0.0114663 -0.999934 
0.00185279 0.00876566 -0.99996 
0.00213085 0.00620295 -0.999978 
0.00182114 0.00446346 -0.999988 
0.00138511 0.00336142 -0.999993 
0.00114885 0.00235411 -0.999997 
0.000986845 0.00160247 -0.999998 
0.000738437 0.00121009 -0.999999 
0.000483875 0.000942887 -0.999999 
0.000295013 0.000657782 -1 
0.000182918 0.000336867 -1 
0.000102311 9.87293e-05 -1 
3.91927e-05 -6.18264e-05 -1 
-8.34602e-06 -0.000153185 -1 
-3.89222e-05 -0.000203355 -1 
-5.8902e-05 -0.000223922 -1 
-7.3213e-05 -0.000226809 -1 
-7.92698e-05 -0.000220281 -1 
-7.68253e-05 -0.000212439 -1 
-6.5628e-05 -0.00020248 -1 
-4.78277e-05 -0.000183872 -1 
-3.04691e-05 -0.000164951 -1 
-1.64736e-05 -0.00014504 -1 
-7.25416e-06 -0.00012046 -1 
1.11647e-06 -9.94675e-05 -1 
7.41241e-06 -8.10135e-05 -1 
1.36149e-05 -7.05261e-05 -1 
1.68003e-05 -6.38189e-05 -1 
1.78189e-05 -5.63062e-05 -1 
2.35421e-05 -4.43509e-05 -1 
-2.75153e-05 -4.91146e-05 1 
-2.24512e-05 -6.04312e-05 1 
-2.17853e-05 -6.60101e-05 1 
-2.07861e-05 -7.24957e-05 1 
-1.6118e-05 -8.63935e-05 1 
-6.43455e-06 -0.000106655 1 
4.18666e-06 -0.000133957 1 
1.70485e-05 -0.000157737 1 
3.24564e-05 -0.000179409 1 
5.03944e-05 -0.000200972 1 
6.61822e-05 -0.000218771 1 
7.5176e-05 -0.000230195 1 
7.46838e-05 -0.000233526 1 
6.68855e-05 -0.000225114 1 
5.25659e-05 -0.000201693 1 
3.09121e-05 -0.000153704 1 
2.28204e-06 -7.0929e-05 1 
-3.7756e-05 7.44376e-05 1 
-0.000100652 0.000301189 1 
-0.000208324 0.000606557 1 
-0.000374131 0.000938422 0.999999 
-0.000612195 0.0012598 0.999999 
-0.000931988 0.00167945 0.999998 
-0.00133178 0.00237574 0.999996 
-0.00172934 0.00330766 0.999993 
-0.00198527 0.00404178 0.99999 
-0.00191831 0.00470464 0.999987 
-0.0015579 0.0061963 0.99998 
-0.00082123 0.00893937 0.99996 
0.00130064 0.012241 0.999924 
0.00552495 0.0165968 0.999847 
0.010021 0.0215288 0.999718 
0.0155163 0.027527 0.999501 
0.0217395 0.0257949 0.999431 
0.0300594 0.0265949 0.999194 
0.0385597 0.0300354 0.998805 
0.0382587 0.0431426 0.998336 
0.042082 0.0499624 0.997864 
0.0318859 0.0551762 0.997967 
0.0226528 0.0549902 0.99823 
-0.00327279 0.0190179 -0.999814 
-0.00421286 0.0237485 -0.999709 
-0.0109438 0.0248398 -0.999632 
-0.0175869 0.0236605 -0.999565 
-0.0141268 0.020422 -0.999692 
-0.00941396 0.0178725 -0.999796 
-0.00562239 0.0180677 -0.999821 
-0.00272208 0.0168618 -0.999854 
-0.00223617 0.0131627 -0.999911 
-0.000260157 0.0105921 -0.999944 
0.00115245 0.00800787 -0.999967 
0.00154126 0.00564627 -0.999983 
0.0012746 0.00416761 -0.999991 
0.00101034 0.00320207 -0.999994 
0.000887276 0.00223892 -0.999997 
0.00074627 0.0015874 -0.999998 
0.000531255 0.00128943 -0.999999 
0.000324767 0.00104352 -0.999999 
0.000182725 0.000719202 -1 
0.000117726 0.000382908 -1 
7.07729e-05 0.000122872 -1 
2.89752e-05 -3.75542e-05 -1 
-6.7454e-06 -0.000131545 -1 
-3.45094e-05 -0.00018698 -1 
-5.56575e-05 -0.000213854 -1 
-6.91202e-05 -0.000221858 -1 
-7.59901e-05 -0.00022217 -1 
-7.33435e-05 -0.000220298 -1 
-6.16734e-05 -0.000215476 -1 
-4.54943e-05 -0.000196451 -1 
-2.69813e-05 -0.000177667 -1 
-1.13174e-05 -0.000153387 -1 
-1.82832e-06 -0.000127116 -1 
7.15176e-06 -0.000105134 -1 
1.31296e-05 -8.56876e-05 -1 
1.80503e-05 -7.44064e-05 -1 
1.87024e-05 -6.79155e-05 -1 
1.91524e-05 -6.24678e-05 -1 
2.31845e-05 -5.32224e-05 -1 
-1.99691e-05 -5.77011e-05 1 
-2.03024e-05 -6.529e-05 1 
-2.03529e-05 -6.82497e-05 1 
-2.32845e-05 -7.46478e-05 1 
-2.23172e-05 -8.61718e-05 1 
-1.48984e-05 -0.000107219 1 
-4.59942e-06 -0.000132146 1 
8.18347e-06 -0.000158759 1 
2.20775e-05 -0.000183716 1 
3.79451e-05 -0.000206951 1 
5.37908e-05 -0.000227492 1 
6.48718e-05 -0.000237395 1 
6.66596e-05 -0.00023817 1 
6.03405e-05 -0.000228817 1 
4.8021e-05 -0.00020558 1 
3.18008e-05 -0.000161864 1 
1.27531e-05 -8.30725e-05 1 
-7.19141e-06 4.03986e-05 1 
-3.60385e-05 0.000241026 1 
-9.25332e-05 0.000528047 1 
-0.000191387 0.000864702 1 
-0.000345708 0.00119763 0.999999 
-0.000569462 0.00155214 0.999999 
-0.000868227 0.00212852 0.999997 
-0.00118151 0.00297252 0.999995 
-0.00144925 0.00381519 0.999992 
-0.00147728 0.00436025 0.999989 
-0.00106666 0.0052323 0.999986 
-0.00032159 0.00715979 0.999974 
0.00113454 0.00957096 0.999954 
0.00448619 0.0123127 0.999914 
0.00944729 0.0149834 0.999843 
0.0146489 0.020023 0.999692 
0.0190497 0.0176356 0.999663 
0.0261889 0.0178671 0.999497 
0.0353374 0.0158429 0.99925 
0.0486458 0.0236317 0.998536 
0.0510283 0.0389066 0.997939 
0.0332452 0.0558109 0.997888 
0.0137941 0.0524445 0.998529 
-0.0063742 0.0250526 -0.999666 
-0.0146469 0.0273919 -0.999517 
-0.0226693 0.0257258 -0.999412 
-0.0222396 0.0190787 -0.999571 
-0.0176336 0.0161703 -0.999714 
-0.0128412 0.0157478 -0.999794 
-0.00843329 0.0138109 -0.999869 
-0.00547629 0.0141663 -0.999885 
-0.00375992 0.0113655 -0.999928 
-0.00137404 0.00954904 -0.999953 
0.0002662 0.00735907 -0.999973 
0.000866224 0.00523201 -0.999986 
0.000751593 0.00405909 -0.999991 
0.00062132 0.00311146 -0.999995 
0.000564058 0.00220142 -0.999997 
0.000476631 0.00164238 -0.999999 
0.00032176 0.0013795 -0.999999 
0.000171813 0.00113019 -0.999999 
8.95652e-05 0.000796508 -1 
6.72464e-05 0.000442678 -1 
5.37414e-05 0.000176984 -1 
3.15959e-05 -1.93608e-06 -1 
5.95079e-06 -0.00010493 -1 
-2.02599e-05 -0.000167434 -1 
-4.45665e-05 -0.000202779 -1 
-6.0294e-05 -0.000217361 -1 
-6.8001e-05 -0.000223605 -1 
-6.63055e-05 -0.000226952 -1 
-5.55043e-05 -0.000225602 -1 
-4.03291e-05 -0.000210686 -1 
-2.09279e-05 -0.000187293 -1 
-6.40056e-06 -0.000162842 -1 
3.02157e-06 -0.000135419 -1 
1.24801e-05 -0.000111393 -1 
1.83545e-05 -9.04751e-05 -1 
2.07571e-05 -7.78035e-05 -1 
1.79321e-05 -7.07535e-05 -1 
1.62213e-05 -6.7362e-05 -1 
1.58368e-05 -6.03207e-05 -1 
-7.69635e-06 -6.21245e-05 1 
-1.24126e-05 -6.73109e-05 1 
-1.90579e-05 -7.11453e-05 1 
-2.42016e-05 -8.13172e-05 1 
-2.39372e-05 -9.78595e-05 1 
-1.69176e-05 -0.000121468 1 
-4.67529e-06 -0.00014849 1 
8.14531e-06 -0.000176027 1 
2.13578e-05 -0.000203776 1 
3.5826e-05 -0.000227864 1 
4.90901e-05 -0.000242901 1 
5.60995e-05 -0.00024436 1 
5.55263e-05 -0.000237568 1 
4.79871e-05 -0.000221493 1 
3.60318e-05 -0.000188248 1 
2.31848e-05 -0.000130308 1 
1.31973e-05 -4.1954e-05 1 
3.76297e-06 9.96504e-05 1 
-1.19475e-05 0.000323671 1 
-4.51968e-05 0.000624431 1 
-0.000111072 0.000972208 1 
-0.000229827 0.00131842 0.999999 
-0.000415425 0.00169132 0.999998 
-0.000634129 0.00225875 0.999997 
-0.000886474 0.00313135 0.999995 
-0.00106308 0.00397224 0.999992 
-0.00091257 0.00444747 0.99999 
-0.000307218 0.00535305 0.999986 
0.00079765 0.00698261 0.999975 
0.00286687 0.00904395 0.999955 
0.00636771 0.0104866 0.999925 
0.0122126 0.0128571 0.999843 
0.0180823 0.0115215 0.99977 
0.02469 0.0103273 0.999642 
0.031902 0.00598629 0.999473 
0.0468708 0.00847164 0.998865 
0.0657569 0.0238257 0.997551 
0.0660475 0.0447315 0.996813 
0.0488192 0.0560403 0.997234 
-0.00195905 0.0187096 -0.999823 
-0.00690276 0.0288465 -0.99956 
-0.0158358 0.034093 -0.999293 
-0.028822 0.0291822 -0.999158 
-0.0299607 0.0164745 -0.999415 
-0.0222469 0.0115425 -0.999686 
-0.0156949 0.0114437 -0.999811 
-0.0112121 0.0121253 -0.999864 
-0.00635322 0.0106222 -0.999923 
-0.00341457 0.00883873 -0.999955 
-0.00146652 0.00757825 -0.99997 
-7.82858e-05 0.00600835 -0.999982 
0.000318958 0.00451891 -0.99999 
0.000312274 0.00351325 -0.999994 
0.000260163 0.00268079 -0.999996 
0.000261259 0.0019617 -0.999998 
0.000202655 0.00156193 -0.999999 
8.81541e-05 0.00135641 -0.999999 
9.83634e-06 0.00108721 -0.999999 
2.99188e-06 0.000725125 -1 
2.66326e-05 0.000391942 -1 
3.94454e-05 0.000137267 -1 
3.04946e-05 -1.70465e-05 -1 
1.01042e-05 -0.000109342 -1 
-1.6907e-05 -0.000166261 -1 
-4.10179e-05 -0.000198256 -1 
-5.65881e-05 -0.000215578 -1 
-6.08581e-05 -0.000224531 -1 
-5.65821e-05 -0.000231899 -1 
-4.53381e-05 -0.000234971 -1 
-3.14134e-05 -0.000220082 -1 
-1.49254e-05 -0.000198773 -1 
-1.16264e-06 -0.000169438 -1 
8.597e-06 -0.00013971 -1 
1.77467e-05 -0.00011535 -1 
2.21006e-05 -9.43104e-05 -1 
2.13492e-05 -8.04603e-05 -1 
1.48005e-05 -7.08245e-05 -1 
9.46274e-06 -6.85591e-05 -1 
2.29111e-06 -6.25566e-05 -1 
8.1405e-06 -5.75533e-05 1 
-3.53059e-06 -6.39285e-05 1 
-1.41354e-05 -6.84864e-05 1 
-2.23027e-05 -8.12318e-05 1 
-2.52778e-05 -0.000100429 1 
-2.0052e-05 -0.000124363 1 
-8.83208e-06 -0.000152351 1 
4.01358e-06 -0.000182377 1 
1.61439e-05 -0.000212842 1 
2.79789e-05 -0.000238194 1 
3.83793e-05 -0.000251079 1 
4.43509e-05 -0.000249557 1 
4.54927e-05 -0.000240262 1 
4.12612e-05 -0.000223987 1 
3.21361e-05 -0.000192151 1 
2.21467e-05 -0.000140172 1 
1.53868e-05 -6.35757e-05 1 
1.37637e-05 5.65643e-05 1 
1.55728e-05 0.000243878 1 
1.67465e-05 0.000511644 1 
3.6503e-06 0.000842688 1 
-4.78145e-05 0.0011933 0.999999 
-0.000160672 0.00152842 0.999999 
-0.00032135 0.00194565 0.999998 
-0.00052617 0.00264037 0.999996 
-0.000700817 0.00356782 0.999993 
-0.00063599 0.00409305 0.999991 
-0.000233859 0.00455415 0.99999 
0.000662957 0.00539035 0.999985 
0.00215704 0.00685501 0.999974 
0.00450328 0.00766009 0.999961 
0.00888913 0.00906792 0.999919 
0.0136189 0.0083356 0.999873 
0.0195404 0.00430756 0.9998 
0.0276147 -0.00157369 0.999617 
0.0457489 -0.00552961 0.998938 
0.0720254 0.00668691 0.99738 
0.0927169 0.0506729 0.994402 
0.0564418 0.0765584 0.995466 
0.025269 0.0639548 0.997633 
-0.00393986 0.0349748 -0.99938 
-0.0197297 0.047613 -0.998671 
-0.040307 0.0258625 -0.998853 
-0.037127 0.0106278 -0.999254 
-0.0250058 0.00591662 -0.99967 
-0.0161688 0.00639706 -0.999849 
-0.0117393 0.00802503 -0.999899 
-0.0081797 0.00875108 -0.999928 
-0.00437614 0.00742936 -0.999963 
-0.00195389 0.00616318 -0.999979 
-0.000637574 0.00537494 -0.999985 
-9.04455e-05 0.00411138 -0.999992 
1.25682e-05 0.00323063 -0.999995 
7.65162e-06 0.0023779 -0.999997 
4.76821e-05 0.00181479 -0.999998 
1.12187e-05 0.00153122 -0.999999 
-7.70452e-05 0.00134687 -0.999999 
-0.000108517 0.00106298 -0.999999 
-6.57458e-05 0.000708903 -1 
-5.38692e-06 0.000379153 -1 
3.43369e-05 0.000145135 -1 
3.96165e-05 -1.13092e-05 -1 
2.26658e-05 -0.000100839 -1 
-5.58306e-06 -0.000153629 -1 
-3.2648e-05 -0.000187718 -1 
-4.89354e-05 -0.00020896 -1 
-5.26953e-05 -0.000222543 -1 
-4.87222e-05 -0.000234052 -1 
-3.96529e-05 -0.000240765 -1 
-2.62364e-05 -0.000232023 -1 
-1.06139e-05 -0.000208267 -1 
1.85716e-06 -0.000179298 -1 
1.17175e-05 -0.000147796 -1 
1.99921e-05 -0.00012279 -1 
2.33885e-05 -9.90838e-05 -1 
2.02865e-05 -8.15035e-05 -1 
1.10858e-05 -6.77261e-05 -1 
1.30593e-06 -6.42476e-05 -1 
-1.25991e-05 -5.70085e-05 -1 
2.21208e-05 -4.58465e-05 1 
4.45283e-06 -5.39625e-05 1 
-9.3818e-06 -6.30299e-05 1 
-1.90846e-05 -7.98664e-05 1 
-2.28913e-05 -0.000104176 1 
-1.83811e-05 -0.00013279 1 
-8.27488e-06 -0.000164461 1 
3.74811e-06 -0.000196452 1 
1.48189e-05 -0.000227187 1 
2.42097e-05 -0.000250044 1 
3.11826e-05 -0.000259574 1 
3.33483e-05 -0.000252561 1 
3.3202e-05 -0.000239787 1 
2.98404e-05 -0.000218911 1 
2.22701e-05 -0.000182132 1 
1.40393e-05 -0.000130354 1 
9.21108e-06 -5.88033e-05 1 
1.0415e-05 4.6638e-05 1 
1.9514e-05 0.00021388 1 
3.86006e-05 0.000453497 1 
5.74652e-05 0.000768851 1 
4.47421e-05 0.00113333 0.999999 
-2.36996e-05 0.00147002 0.999999 
-0.00016533 0.00185578 0.999998 
-0.000343205 0.00244578 0.999997 
-0.000475567 0.00325114 0.999995 
-0.000426014 0.00374085 0.999993 
-0.000159827 0.00404655 0.999992 