# vtk DataFile Version 3.0 
Exported using Morpho https://github.com/Morpho-lang/morpho 
ASCII 
DATASET UNSTRUCTURED_GRID 

POINTS 1978 float 
-8.48528 -2.82843 -7.73222e-11 
-8.26078 -2.82843 2.35808e-10 
-8.033 -2.82843 1.934e-10 
-7.78092 -2.82843 5.10648e-10 
-7.49572 -2.82843 9.40563e-10 
-7.23798 -2.82843 7.66743e-10 
-6.99244 -2.82843 7.1701e-10 
-6.7672 -2.82843 4.87168e-10 
-6.54924 -2.82843 4.57155e-10 
-6.3375 -2.82843 4.58932e-10 
-6.12551 -2.82843 4.25461e-10 
-5.92164 -2.82843 4.27367e-10 
-5.70618 -2.82843 3.86786e-10 
-5.50826 -2.82843 3.93075e-10 
-5.28974 -2.82843 3.9783e-10 
-5.08158 -2.82843 3.61544e-10 
-4.86492 -2.82843 3.49991e-10 
-4.6606 -2.82843 3.37647e-10 
-4.44152 -2.82843 3.5952e-10 
-4.2237 -2.82843 3.26764e-10 
-4.01131 -2.82843 2.88801e-10 
-3.81262 -2.82843 2.58675e-10 
-3.60744 -2.82843 2.04793e-10 
-3.40088 -2.82843 1.19844e-10 
-3.18747 -2.82843 6.08688e-12 
-2.9771 -2.82843 -1.28776e-10 
-2.75966 -2.82843 -2.90075e-10 
-2.53713 -2.82843 -4.9017e-10 
-2.30734 -2.82843 -7.45701e-10 
-2.06529 -2.82843 -8.84681e-10 
-1.84113 -2.82843 -1.02103e-09 
-1.61846 -2.82843 -2.60968e-10 
-1.37754 -2.82843 5.499e-09 
-1.19336 -2.82843 1.60596e-08 
-1.03772 -2.82843 3.16927e-08 
-0.84115 -2.82843 8.40028e-08 
-0.719179 -2.82843 1.17344e-07 
-0.613369 -2.82843 2.5645e-07 
-0.336252 -2.82843 3.60375e-07 
0.140042 -2.82845 -1.37379e-07 
0.37762 -2.82844 -4.77767e-07 
0.598702 -2.82843 -2.17358e-07 
0.7176 -2.82843 -9.03325e-08 
0.851273 -2.82843 -7.89761e-08 
1.0316 -2.82843 -3.21263e-08 
1.19632 -2.82843 -1.32167e-08 
1.39425 -2.82843 -4.24137e-09 
1.62554 -2.82843 1.53555e-10 
1.84715 -2.82843 1.3085e-09 
2.08701 -2.82843 9.4478e-10 
2.30844 -2.82843 6.82331e-10 
2.52348 -2.82843 5.04147e-10 
2.74963 -2.82843 2.93706e-10 
2.9783 -2.82843 1.24081e-10 
3.20032 -2.82843 -1.49954e-11 
3.41089 -2.82843 -1.25462e-10 
3.62648 -2.82843 -2.01076e-10 
3.82054 -2.82843 -2.67102e-10 
4.03435 -2.82843 -3.14309e-10 
4.25072 -2.82843 -3.12858e-10 
4.44807 -2.82843 -3.22275e-10 
4.6589 -2.82843 -3.22707e-10 
4.86095 -2.82843 -3.55917e-10 
5.07147 -2.82843 -3.52558e-10 
5.27938 -2.82843 -3.99345e-10 
5.50062 -2.82843 -4.00313e-10 
5.70129 -2.82843 -3.83967e-10 
5.91864 -2.82843 -4.51553e-10 
6.14423 -2.82843 -4.46766e-10 
6.34654 -2.82843 -4.82515e-10 
6.58216 -2.82843 -5.08401e-10 
6.79867 -2.82843 -4.2802e-10 
6.99849 -2.82843 -6.80085e-10 
7.27514 -2.82843 -9.06783e-10 
7.50428 -2.82843 -8.85222e-10 
7.74757 -2.82843 -6.05286e-10 
8.02491 -2.82843 -2.6447e-10 
8.21285 -2.82843 -2.24978e-10 
8.48528 -2.82843 2.03366e-11 
-8.48528 -2.58876 -4.93212e-12 
-8.26249 -2.59313 -1.70847e-10 
-8.03347 -2.58937 -4.0139e-10 
-7.79508 -2.61508 -5.66622e-10 
-7.54155 -2.64091 -6.37223e-10 
-7.24586 -2.6232 -5.03328e-10 
-7.0031 -2.59597 -4.58169e-10 
-6.78116 -2.60315 -4.17385e-10 
-6.54808 -2.59069 -3.87702e-10 
-6.32122 -2.5941 -3.63669e-10 
-6.10479 -2.58618 -3.20548e-10 
-5.88589 -2.59657 -3.20376e-10 
-5.67975 -2.57404 -2.73472e-10 
-5.4602 -2.59996 -2.96828e-10 
-5.24565 -2.58815 -2.65635e-10 
-5.02724 -2.59772 -2.70392e-10 
-4.81631 -2.5842 -2.46617e-10 
-4.59711 -2.60163 -2.59487e-10 
-4.37329 -2.6023 -2.44748e-10 
-4.15412 -2.59826 -2.12408e-10 
-3.94675 -2.58246 -1.59875e-10 
-3.73784 -2.58944 -1.19348e-10 
-3.525 -2.58913 -5.65461e-11 
-3.30704 -2.59473 2.15416e-11 
-3.0865 -2.58807 1.17488e-10 
-2.86242 -2.59166 2.31036e-10 
-2.63053 -2.59096 3.51004e-10 
-2.39091 -2.59247 4.58084e-10 
-2.14333 -2.60195 5.21776e-10 
-1.89223 -2.58787 2.70085e-10 
-1.66247 -2.60042 -8.63831e-11 
-1.43355 -2.63809 3.22243e-10 
-1.20274 -2.60994 -3.28872e-10 
-1.02746 -2.61947 7.92868e-10 
-0.888888 -2.6957 3.07474e-09 
-0.837199 -2.53028 4.73131e-09 
-0.72202 -2.64996 3.94854e-10 
-0.529856 -2.77262 -1.51606e-08 
-0.167686 -2.77129 -4.83568e-09 
-0.011791 -2.80265 6.38129e-08 
0.258071 -2.76937 6.63582e-09 
0.535396 -2.75926 -2.63261e-09 
0.711483 -2.6808 -7.53023e-09 
0.811485 -2.60101 -4.77417e-09 
0.948181 -2.66195 -2.91684e-10 
1.12204 -2.61166 -2.02816e-09 
1.30972 -2.61229 -2.93423e-11 
1.53079 -2.62063 7.01664e-11 
1.77181 -2.60278 -4.98344e-10 
2.02413 -2.61545 -6.49181e-10 
2.28475 -2.59095 -4.36961e-10 
2.51971 -2.58707 -4.09876e-10 
2.75915 -2.59656 -2.97372e-10 
2.99176 -2.59269 -1.73993e-10 
3.21479 -2.58653 -6.0613e-11 
3.44076 -2.59809 2.94098e-11 
3.644 -2.57542 8.70634e-11 
3.86211 -2.60084 1.61872e-10 
4.08519 -2.60352 2.06254e-10 
4.29322 -2.58084 2.07021e-10 
4.50603 -2.59646 2.43676e-10 
4.71615 -2.58501 2.41805e-10 
4.92936 -2.59452 2.62491e-10 
5.14237 -2.59044 2.66004e-10 
5.36388 -2.60458 2.96056e-10 
5.57606 -2.58096 2.74176e-10 
5.79066 -2.59902 3.18231e-10 
6.01813 -2.60523 3.46409e-10 
6.23464 -2.57571 3.22679e-10 
6.45623 -2.60879 4.11101e-10 
6.6844 -2.58585 3.83839e-10 
6.89441 -2.56282 3.5251e-10 
7.12637 -2.636 5.54482e-10 
7.37777 -2.59398 4.90104e-10 
7.61316 -2.60799 5.91215e-10 
7.87477 -2.63414 6.12211e-10 
8.08317 -2.54032 2.77264e-10 
8.30641 -2.62714 1.7225e-10 
8.48528 -2.5248 5.26127e-11 
-8.48528 -2.34619 1.6066e-10 
-8.25405 -2.35569 3.66609e-11 
-8.01124 -2.35532 -7.69309e-11 
-7.76947 -2.39507 -1.36091e-10 
-7.55804 -2.25423 2.75206e-11 
-7.47305 -2.46032 -2.31708e-10 
-7.19306 -2.41266 -1.34354e-10 
-6.95475 -2.34745 -7.02009e-12 
-6.72301 -2.38235 -8.30781e-11 
-6.47899 -2.36451 -8.20768e-11 
-6.25099 -2.35924 -7.70069e-11 
-6.02308 -2.35753 -6.181e-11 
-5.81365 -2.34436 -4.96315e-11 
-5.57797 -2.35681 -5.38809e-11 
-5.3644 -2.36017 -4.8352e-11 
-5.13781 -2.36243 -4.48818e-11 
-4.92505 -2.3526 -3.54641e-11 
-4.69968 -2.36435 -3.64617e-11 
-4.47926 -2.37867 -3.82438e-11 
-4.25708 -2.3726 -2.96813e-11 
-4.04649 -2.35007 -1.19252e-11 
-3.83194 -2.34872 -3.36537e-12 
-3.6204 -2.35436 7.65492e-12 
-3.40156 -2.35992 2.28959e-11 
-3.18379 -2.35783 4.18055e-11 
-2.95814 -2.35546 6.38338e-11 
-2.73199 -2.35794 9.36053e-11 
-2.49695 -2.35962 1.32504e-10 
-2.25493 -2.36622 1.94131e-10 
-2.01486 -2.36932 2.44686e-10 
-1.77217 -2.35434 1.96532e-10 
-1.54643 -2.39539 4.03081e-10 
-1.33734 -2.43185 -4.22418e-10 
-1.11576 -2.41038 -4.7219e-10 
-0.946959 -2.41745 5.09168e-09 
-0.777016 -2.37016 -1.7838e-08 
-0.609564 -2.64286 1.5845e-08 
-0.449821 -2.71572 9.75232e-09 
-0.306344 -2.73737 -1.95317e-09 
-0.054901 -2.71085 3.07352e-08 
0.246546 -2.68127 -4.9657e-08 
0.408671 -2.72366 -1.28191e-09 
0.664036 -2.52486 1.01355e-08 
0.816843 -2.41839 -1.77712e-09 
0.966001 -2.45729 2.20585e-09 
1.119 -2.39099 4.16992e-10 
1.29631 -2.39567 6.55578e-10 
1.50412 -2.40528 6.16669e-10 
1.72932 -2.39052 -9.40171e-11 
1.97441 -2.39837 -1.7511e-10 
2.21964 -2.382 -1.82314e-10 
2.46997 -2.34619 -1.01595e-10 
2.70132 -2.37175 -1.24988e-10 
2.93622 -2.35877 -7.26099e-11 
3.15882 -2.3499 -4.55542e-11 
3.3812 -2.36563 -2.44187e-11 
3.58966 -2.33133 -1.40417e-11 
3.80145 -2.36429 6.05895e-12 
4.01523 -2.37822 2.51786e-11 
4.22657 -2.34927 1.44841e-11 
4.44506 -2.3573 2.76516e-11 
4.65175 -2.35098 2.88883e-11 
4.86827 -2.35724 3.61044e-11 
5.07885 -2.3555 3.63039e-11 
5.29786 -2.37386 5.63135e-11 
5.50987 -2.35094 4.27989e-11 
5.73134 -2.35837 5.40926e-11 
5.94726 -2.37962 7.97884e-11 
6.16475 -2.3482 5.49286e-11 
6.39816 -2.36428 8.12069e-11 
6.61116 -2.36194 8.08802e-11 
6.83273 -2.31592 1.54713e-11 
7.06705 -2.38564 7.08444e-11 
7.28401 -2.39576 9.39558e-11 
7.54563 -2.3706 8.7435e-11 
7.78251 -2.417 1.73829e-10 
7.9937 -2.32219 2.11249e-11 
8.25364 -2.35855 -3.99628e-11 
8.48528 -2.29048 -8.86375e-11 
-8.48528 -2.11053 2.82807e-11 
-8.24822 -2.10604 9.22526e-11 
-8.03914 -2.11681 5.21105e-11 
-7.79352 -2.15422 4.89047e-11 
-7.51689 -2.03678 7.74281e-11 
-7.3058 -2.23384 3.75623e-11 
-7.06726 -2.1486 8.98296e-11 
-6.79735 -2.13336 9.19082e-11 
-6.58491 -2.15348 5.79255e-11 
-6.3495 -2.13251 5.18467e-11 
-6.12615 -2.1275 5.23772e-11 
-5.91676 -2.10259 5.28076e-11 
-5.69186 -2.13384 4.35548e-11 
-5.47088 -2.11754 5.07734e-11 
-5.25503 -2.13506 5.24487e-11 
-5.04196 -2.11787 5.67908e-11 
-4.82177 -2.13132 5.44803e-11 
-4.60165 -2.14113 5.44999e-11 
-4.38822 -2.14884 5.55281e-11 
-4.18158 -2.1249 5.70327e-11 
-3.96779 -2.11564 5.45268e-11 
-3.75628 -2.1139 4.8719e-11 
-3.5418 -2.12569 3.9558e-11 
-3.32705 -2.12421 2.98656e-11 
-3.10675 -2.12663 1.94662e-11 
-2.8834 -2.12059 8.73116e-12 
-2.65553 -2.12605 6.14157e-12 
-2.42075 -2.12973 2.13458e-11 
-2.18388 -2.13181 3.94778e-11 
-1.9503 -2.13513 4.43825e-11 
-1.71541 -2.12654 -1.08266e-10 
-1.50528 -2.16869 -1.2117e-10 
-1.31344 -2.1745 2.93405e-10 
-1.15798 -2.24028 -1.67644e-09 
-0.939569 -2.21964 -1.0551e-08 
-0.772525 -2.22187 3.18407e-09 
-0.67979 -2.49898 -1.38789e-08 
-0.390624 -2.61711 4.5631e-08 
-0.252521 -2.65478 2.5833e-08 
0.103422 -2.73545 1.42329e-08 
0.354188 -2.61969 -4.38738e-08 
0.557804 -2.64121 -1.45403e-08 
0.672954 -2.37184 -4.28272e-09 
0.78619 -2.21441 3.05044e-09 
0.947679 -2.23604 3.93931e-10 
1.11798 -2.16808 5.40615e-09 
1.32479 -2.18661 -1.25541e-09 
1.54448 -2.18588 -1.42759e-11 
1.78182 -2.17627 -2.03099e-10 
2.01714 -2.17127 -8.48103e-11 
2.26048 -2.15326 -1.45105e-11 
2.50225 -2.11129 -1.04747e-11 
2.73031 -2.14247 -1.39621e-11 
2.95687 -2.12091 -1.94451e-11 
3.18545 -2.12038 -2.81042e-11 
3.3941 -2.11983 -3.62071e-11 
3.61703 -2.10408 -4.4118e-11 
3.8354 -2.13351 -4.78035e-11 
4.04375 -2.13853 -5.22574e-11 
4.26857 -2.12417 -5.82034e-11 
4.47548 -2.11434 -6.13712e-11 
4.69409 -2.12234 -6.00032e-11 
4.90467 -2.11862 -5.81596e-11 
5.12644 -2.13038 -5.44754e-11 
5.33588 -2.13313 -4.9748e-11 
5.56135 -2.12498 -4.69593e-11 
5.78078 -2.12818 -4.63121e-11 
5.99132 -2.13862 -4.30768e-11 
6.23194 -2.13184 -4.46487e-11 
6.44559 -2.11649 -5.82165e-11 
6.65796 -2.11326 -7.59714e-11 
6.92168 -2.11474 -1.05401e-10 
7.1326 -2.14012 -1.0335e-10 
7.36662 -2.18059 -6.21796e-11 
7.5639 -2.08878 -6.67559e-11 
7.75262 -2.17825 -5.28937e-11 
7.96183 -2.07566 -7.62007e-11 
8.19042 -2.13989 -8.40999e-11 
8.48528 -2.10364 -2.47556e-11 
-8.48528 -1.81078 -1.41667e-10 
-8.30725 -1.86684 6.89039e-11 
-7.89236 -1.91143 7.21842e-11 
[...]
POINT_DATA 1978 
VECTORS vectors float
0.00322416 -0.00684029 0.999972 
0.0033003 -0.0245303 0.999693 
0.0030084 -0.0241692 0.999703 
0.00323321 -0.0285636 0.999586 
0.00318234 -0.0357541 0.999355 
0.00298984 -0.0362021 0.99934 
0.00289254 -0.0339356 0.99942 
0.00312696 -0.0307647 0.999522 
0.00306707 -0.0280596 0.999601 
0.00314014 -0.0259232 0.999659 
0.00315247 -0.0244039 0.999697 
0.00320583 -0.0230313 0.999729 
0.00316831 -0.0218688 0.999756 
0.00324614 -0.0213097 0.999768 
0.0031755 -0.020661 0.999781 
0.00322722 -0.0199414 0.999796 
0.00319688 -0.0194743 0.999805 
0.00324081 -0.0190758 0.999813 
0.0032045 -0.0184438 0.999825 
0.00320282 -0.0174033 0.999843 
0.0031756 -0.0159409 0.999868 
0.00314642 -0.0138519 0.999899 
0.00306392 -0.010522 0.99994 
0.00298246 -0.00558212 0.99998 
0.00286956 0.00143515 0.999995 
0.00274875 0.0106388 0.99994 
0.002594 0.0230698 0.99973 
0.00240368 0.0396765 0.99921 
0.00212152 0.0627388 0.998028 
0.00175817 0.0967727 0.995305 
0.00126883 0.140607 0.990065 
0.000890996 0.19795 0.980212 
0.000368835 0.275571 0.961281 
-0.000310431 0.353069 0.935597 
-0.000963934 0.432423 0.90167 
-0.00270205 0.563353 0.826212 
-0.0021971 0.654247 0.756278 
-0.00194389 0.72795 0.685627 
0.000828026 0.903717 0.42813 
-0.00154862 0.98931 -0.145823 
0.00120342 0.879246 -0.476367 
0.00238054 0.728404 -0.685144 
0.00209134 0.643036 -0.765833 
0.00194473 0.559238 -0.829005 
0.00115769 0.440234 -0.897882 
0.000161355 0.360898 -0.932605 
-5.42336e-05 0.277069 -0.96085 
-0.000763173 0.196586 -0.980486 
-0.00142243 0.140942 -0.990017 
-0.00180518 0.0966493 -0.995317 
-0.00210231 0.0641304 -0.997939 
-0.00234371 0.0416531 -0.999129 
-0.00258041 0.0244993 -0.999696 
-0.00270752 0.0105121 -0.999941 
-0.00284639 0.00090613 -0.999995 
-0.00298791 -0.00584783 -0.999978 
-0.00303269 -0.0108888 -0.999936 
-0.00319248 -0.0139922 -0.999897 
-0.00316478 -0.016175 -0.999864 
-0.00319662 -0.0177477 -0.999837 
-0.00325156 -0.0185316 -0.999823 
-0.00320921 -0.0191042 -0.999812 
-0.0032383 -0.0196036 -0.999802 
-0.00322166 -0.0199834 -0.999795 
-0.00321979 -0.020556 -0.999783 
-0.00319761 -0.0212347 -0.999769 
-0.00322218 -0.0218758 -0.999755 
-0.003148 -0.0230419 -0.999729 
-0.00315542 -0.0246079 -0.999692 
-0.0031437 -0.0261169 -0.999654 
-0.00304527 -0.0285506 -0.999588 
-0.00302967 -0.0312763 -0.999506 
-0.0030054 -0.0338408 -0.999422 
-0.00296702 -0.0372821 -0.9993 
-0.00323775 -0.0367333 -0.99932 
-0.00333335 -0.0302626 -0.999536 
-0.00312116 -0.0246371 -0.999691 
-0.00343768 -0.0248824 -0.999684 
-0.00290227 -0.00593496 -0.999978 
0.00401302 -0.00270206 0.999988 
0.0128802 -0.023125 0.99965 
0.0154266 -0.0263588 0.999534 
0.015873 -0.0284246 0.99947 
0.0149116 -0.0324765 0.999361 
0.0150161 -0.0344034 0.999295 
0.0164368 -0.0331321 0.999316 
0.0166164 -0.0307507 0.999389 
0.0173168 -0.0279153 0.999461 
0.017705 -0.0256674 0.999514 
0.018151 -0.0238988 0.99955 
0.0180756 -0.0224243 0.999585 
0.0186166 -0.0212727 0.9996 
0.0180411 -0.0205594 0.999626 
0.0183485 -0.019932 0.999633 
0.0181428 -0.0193682 0.999648 
0.0185202 -0.0188532 0.999651 
0.0181958 -0.0183353 0.999666 
0.0183138 -0.0175087 0.999679 
0.0184292 -0.0161922 0.999699 
0.018676 -0.0142429 0.999724 
0.0182834 -0.0114513 0.999767 
0.0179919 -0.00727351 0.999812 
0.01749 -0.00129007 0.999846 
0.0172574 0.00702328 0.999827 
0.0168158 0.0181996 0.999693 
0.0166124 0.0335909 0.999298 
0.0166777 0.0551247 0.99834 
0.0169881 0.0861898 0.996134 
0.0191796 0.130347 0.991283 
0.0211891 0.184156 0.982669 
0.022359 0.254011 0.966943 
0.0319405 0.346429 0.937532 
0.037362 0.438177 0.898112 
0.0267186 0.528873 0.84828 
0.0730683 0.542492 0.836877 
0.0489828 0.635046 0.77092 
0.0183431 0.769765 0.638063 
0.00896384 0.972955 0.23082 
0.000680654 0.999246 0.0388136 
-0.0175693 0.946503 -0.322216 
-0.0175242 0.780439 -0.624986 
-0.0380442 0.646777 -0.761729 
-0.0528891 0.565967 -0.82273 
-0.0290666 0.486321 -0.873296 
-0.0335901 0.388315 -0.920914 
-0.0265497 0.306561 -0.951481 
-0.0208634 0.227377 -0.973583 
-0.0196841 0.159909 -0.986935 
-0.0171654 0.107964 -0.994007 
-0.0169208 0.0694854 -0.99744 
-0.0167191 0.0440362 -0.99889 
-0.0163131 0.0248082 -0.999559 
-0.0168879 0.0113765 -0.999793 
-0.0174111 0.00191459 -0.999847 
-0.0175432 -0.00522636 -0.999832 
-0.0184116 -0.00972264 -0.999783 
-0.0180835 -0.0133589 -0.999747 
-0.0182366 -0.0157365 -0.99971 
-0.0187773 -0.0171314 -0.999677 
-0.0183812 -0.0181102 -0.999667 
-0.0185966 -0.0187027 -0.999652 
-0.018318 -0.0192235 -0.999647 
-0.0183715 -0.0196801 -0.999638 
-0.0180533 -0.0202874 -0.999631 
-0.0185524 -0.0209409 -0.999609 
-0.0181026 -0.0219458 -0.999595 
-0.0178173 -0.0233558 -0.999569 
-0.0181811 -0.0250053 -0.999522 
-0.0171725 -0.0271161 -0.999485 
-0.0171081 -0.0297668 -0.999411 
-0.0168949 -0.0322622 -0.999337 
-0.0151656 -0.0344656 -0.999291 
-0.0160822 -0.034021 -0.999292 
-0.016329 -0.0315442 -0.999369 
-0.0157646 -0.0279038 -0.999486 
-0.0156767 -0.0275446 -0.999498 
-0.0119058 -0.02199 -0.999687 
-0.00334412 -0.0027635 -0.999991 
0.00236873 -0.00376158 0.999991 
0.0121492 -0.0249988 0.999614 
0.0146555 -0.0278368 0.999505 
0.0155018 -0.0281178 0.999485 
0.0128984 -0.0282269 0.999519 
0.0164715 -0.0310478 0.999382 
0.0163812 -0.0328464 0.999326 
0.0160198 -0.0324562 0.999345 
0.0172576 -0.0302661 0.999393 
0.0178981 -0.0273535 0.999466 
0.0184075 -0.0249999 0.999518 
0.0186011 -0.0230149 0.999562 
0.018643 -0.0215467 0.999594 
0.0188967 -0.0204356 0.999613 
0.0189311 -0.0197581 0.999626 
0.0189551 -0.0191661 0.999637 
0.0189217 -0.0186507 0.999647 
0.0191014 -0.018144 0.999653 
0.0193198 -0.0174614 0.999661 
0.0194193 -0.016292 0.999679 
0.0193325 -0.0145181 0.999708 
0.0192889 -0.011913 0.999743 
0.0191796 -0.0082707 0.999782 
0.0190527 -0.00302022 0.999814 
0.0189547 0.00410958 0.999812 
0.0190332 0.0139504 0.999722 
0.0194495 0.0269338 0.999448 
0.0205275 0.0448819 0.998781 
0.0227134 0.0701906 0.997275 
0.0264754 0.104793 0.994142 
0.0332925 0.151106 0.987957 
0.0398537 0.208752 0.977156 
0.0477758 0.278289 0.959308 
0.0675016 0.371652 0.925915 
0.0849614 0.458221 0.884768 
0.124997 0.551291 0.824896 
0.0660446 0.723228 0.687443 
0.0367293 0.825824 0.56273 
0.0255251 0.915656 0.40115 
0.00639933 0.996312 0.0855624 
-0.0437297 0.948711 -0.313104 
-0.0369854 0.865064 -0.500294 
-0.0863562 0.648076 -0.756663 
-0.10379 0.526567 -0.843774 
-0.0734985 0.455387 -0.887254 
-0.0682515 0.369075 -0.92689 
-0.0529591 0.294794 -0.954092 
-0.0402461 0.226314 -0.973223 
-0.0332456 0.164735 -0.985778 
-0.0265751 0.114608 -0.993055 
-0.0229721 0.0771252 -0.996757 
-0.0208116 0.0488464 -0.99859 
-0.0194203 0.0295381 -0.999375 
-0.0189933 0.0152028 -0.999704 
-0.0188423 0.00507364 -0.99981 
-0.0189961 -0.00248527 -0.999817 
-0.0189513 -0.00754383 -0.999792 
-0.0192957 -0.011538 -0.999747 
-0.019474 -0.0143144 -0.999708 
-0.0192392 -0.0160881 -0.999686 
-0.0192351 -0.0173387 -0.999665 
-0.019098 -0.0180646 -0.999655 
-0.0190345 -0.0186155 -0.999646 
-0.0189394 -0.0190565 -0.999639 
-0.0191065 -0.0196133 -0.999625 
-0.018927 -0.0202384 -0.999616 
-0.0189566 -0.0212379 -0.999595 
-0.0190356 -0.0225913 -0.999564 
-0.0185039 -0.0242863 -0.999534 
-0.0182674 -0.0266031 -0.999479 
-0.0177059 -0.0291126 -0.999419 
-0.0164648 -0.0317822 -0.999359 
-0.0163938 -0.0332294 -0.999313 
-0.0159358 -0.0326132 -0.999341 
-0.0150858 -0.0296858 -0.999446 
-0.0160549 -0.0285026 -0.999465 
-0.0140073 -0.0284266 -0.999498 
-0.0120905 -0.0250438 -0.999613 
-0.00259433 -0.00399209 -0.999989 
0.00177204 -0.0033959 0.999993 
0.0100547 -0.0261542 0.999608 
0.0111913 -0.0281376 0.999541 
0.0113312 -0.0268506 0.999575 
0.0104129 -0.0268843 0.999584 
0.0136371 -0.0308785 0.99943 
0.0137515 -0.0324274 0.99938 
0.0147852 -0.0315487 0.999393 
0.0157139 -0.0290594 0.999454 
0.0163341 -0.0262325 0.999523 
0.016719 -0.0238716 0.999575 
0.0169855 -0.0220586 0.999612 
0.0173201 -0.020665 0.999637 
0.0173852 -0.0197055 0.999655 
0.0174025 -0.0190739 0.999667 
0.0174625 -0.0185601 0.999675 
0.0176294 -0.0181126 0.999681 
0.0178044 -0.0175396 0.999688 
0.0179523 -0.0166615 0.9997 
0.0180991 -0.0152522 0.99972 
0.018182 -0.0130988 0.999749 
0.0181802 -0.0100827 0.999784 
0.018169 -0.00592015 0.999818 
0.0182629 -0.000281206 0.999833 
0.0185435 0.00739256 0.999801 
0.0192259 0.0175882 0.999661 
0.020602 0.0312023 0.999301 
0.02327 0.0497971 0.998488 
0.0279022 0.0753181 0.996769 
0.0349961 0.109056 0.993419 
0.0458821 0.15205 0.987307 
0.0570435 0.204061 0.977295 
0.0726038 0.26177 0.962396 
0.0844829 0.326944 0.94126 
0.121263 0.415636 0.901411 
0.150488 0.493948 0.85637 
0.100105 0.640004 0.761823 
0.0681719 0.855142 0.513891 
0.0424991 0.940365 0.337502 
-0.0147025 0.993045 -0.116811 
-0.0737838 0.867304 -0.492279 
-0.05454 0.752012 -0.656889 
-0.136491 0.599752 -0.788459 
-0.152808 0.485965 -0.860516 
-0.116854 0.414176 -0.902664 
-0.0957196 0.330245 -0.939029 
-0.0711843 0.261144 -0.962672 
-0.0532174 0.198231 -0.97871 
-0.0402996 0.142893 -0.988917 
-0.0317335 0.101863 -0.994292 
-0.0259088 0.0690257 -0.997278 
-0.0222965 0.0438243 -0.99879 
-0.019938 0.0269038 -0.999439 
-0.0188945 0.0140049 -0.999723 
-0.0182928 0.00428195 -0.999824 
-0.0181495 -0.0023254 -0.999833 
-0.0181836 -0.00757425 -0.999806 
-0.0181027 -0.0113799 -0.999772 
-0.0181333 -0.0140087 -0.999738 
-0.0180281 -0.0159406 -0.999711 
-0.0179059 -0.0170835 -0.999694 
-0.0177292 -0.0178587 -0.999683 
-0.0176153 -0.0183436 -0.999677 
-0.0175111 -0.0187983 -0.99967 
-0.0175201 -0.0193142 -0.99966 
-0.0175012 -0.0200947 -0.999645 
-0.0174033 -0.0212355 -0.999623 
-0.0172844 -0.0227481 -0.999592 
-0.0168854 -0.0249921 -0.999545 
-0.0162832 -0.0274647 -0.99949 
-0.0155729 -0.0301613 -0.999424 
-0.0144204 -0.0327809 -0.999359 
-0.0135259 -0.0327208 -0.999373 
-0.012661 -0.0302307 -0.999463 
-0.0107042 -0.0269268 -0.99958 
-0.0114827 -0.0271095 -0.999567 
-0.010463 -0.0278567 -0.999557 
-0.0108218 -0.0278069 -0.999555 
-0.00238605 -0.00363488 -0.999991 
0.00196766 -0.00362317 0.999992 
0.00881434 -0.0232287 0.999691 
0.00920209 -0.0258206 0.999624 
0.00935685 -0.0250019 0.999644 
0.0119457 -0.0275465 0.999549 
0.0120102 -0.0304734 0.999464 
0.0137248 -0.0325208 0.999377 
0.0141534 -0.0330379 0.999354 
0.016003 -0.0314401 0.999378 
0.0165177 -0.0285278 0.999457 
0.0176622 -0.0255913 0.999517 
0.0185948 -0.0233194 0.999555 
0.0188482 -0.0213303 0.999595 
0.0190463 -0.020055 0.999618 
0.0193431 -0.01913 0.99963 
0.0194834 -0.0185853 0.999638 
0.0195537 -0.0181489 0.999644 
0.0195835 -0.0176587 0.999652 
0.0197873 -0.0168947 0.999662 
0.020244 -0.015719 0.999672 
0.0205237 -0.0138623 0.999693 
0.0206824 -0.0112164 0.999723 
0.0204985 -0.00764091 0.999761 
0.0204386 -0.00297431 0.999787 
0.0205055 0.00338015 0.999784 
0.0210147 0.0117525 0.99971 
0.0222157 0.0231468 0.999485 
0.0246417 0.0381877 0.998967 
0.0291951 0.058672 0.99785 
0.0367838 0.0856159 0.995649 
0.0473628 0.119097 0.991752 
0.0625564 0.162004 0.984805 
0.0793619 0.212089 0.974023 
0.105475 0.275269 0.955564 
0.123087 0.348593 0.929157 
0.179855 0.426155 0.886591 
0.190547 0.610329 0.76889 
0.105113 0.75957 0.641876 
0.098732 0.886437 0.452196 
0.0304853 0.978146 0.205672 
-0.0653496 0.956186 -0.285371 
-0.0971655 0.780735 -0.617261 
-0.190247 0.580963 -0.791384 
-0.149551 0.373051 -0.915679 
-0.125119 0.306459 -0.943625 
-0.101498 0.248697 -0.963249 
-0.0820974 0.226077 -0.970644 
-0.0671665 0.178816 -0.981587 
-0.051227 0.142948 -0.988404 
-0.039554 0.102377 -0.993959 
-0.0314415 0.0720141 -0.996908 
-0.0263243 0.0478082 -0.99851 
-0.0228852 0.0287492 -0.999325 
-0.0212764 0.0166645 -0.999635 
-0.0204855 0.00656875 -0.999769 
-0.0205354 -0.000656539 -0.999789 
-0.0204551 -0.00578795 -0.999774 
-0.0203027 -0.0100515 -0.999743 
-0.02034 -0.0129552 -0.999709 
-0.0201316 -0.0150751 -0.999684 
-0.0205134 -0.0165146 -0.999653 
-0.0200329 -0.0174496 -0.999647 
-0.0200354 -0.0180124 -0.999637 
-0.0195328 -0.0184492 -0.999639 
-0.0195153 -0.0189197 -0.999631 
-0.019204 -0.0196094 -0.999623 
-0.0191208 -0.0207331 -0.999602 
-0.0188333 -0.0223176 -0.999574 
-0.018055 -0.0243778 -0.99954 
-0.0178302 -0.0271856 -0.999472 
-0.0170289 -0.0301488 -0.9994 
-0.0153649 -0.0326544 -0.999349 
-0.0141987 -0.0332286 -0.999347 
-0.0122009 -0.0305478 -0.999459 
-0.0107001 -0.0263033 -0.999597 
-0.00936011 -0.0253593 -0.999635 
-0.0096711 -0.0272147 -0.999583 
-0.00939979 -0.025053 -0.999642 
-0.00239265 -0.00370479 -0.999991 
0.00223538 -0.00361698 0.999991 
0.00941084 -0.0236003 0.999677 
0.00962941 -0.0276266 0.999572 
0.0103617 -0.0247439 0.99964 
0.0113753 -0.0244515 0.999636 
0.0151776 -0.0308138 0.99941 
0.0173921 -0.0341943 0.999264 
0.0181668 -0.0333571 0.999278 
0.0197854 -0.0303442 0.999344 
0.0204261 -0.0274301 0.999415 
0.0218894 -0.0247826 0.999453 
0.022367 -0.0223433 0.9995 
0.0228637 -0.020689 0.999525 
0.0229877 -0.01953 0.999545 
0.0237074 -0.0187928 0.999542 
0.0236338 -0.0183135 0.999553 
0.0238006 -0.0178525 0.999557 
0.0240368 -0.0172082 0.999563 
0.0245905 -0.0162082 0.999566 
0.0247607 -0.0146671 0.999586 
0.0248847 -0.0124617 0.999613 
0.0247988 -0.00948149 0.999648 
0.024673 -0.00574176 0.999679 
0.0244869 -0.000814082 0.9997 
0.0246482 0.00559399 0.999681 
0.0251904 0.0142189 0.999582 
0.0267602 0.0255105 0.999316 
0.0298128 0.0406356 0.998729 
0.0354294 0.0605079 0.997539 
0.0444145 0.0853663 0.995359 
0.0567938 0.117037 0.991502 
0.073858 0.153184 0.985434 
0.0942235 0.201679 0.974909 
0.112205 0.208572 0.971549 
0.131172 0.27492 0.952478 
0.160831 0.351413 0.922303 
0.211008 0.509858 0.833979 
0.146971 0.663607 0.733503 
0.0799108 0.943407 0.321863 
-0.0198193 0.995463 -0.0930606 
-0.10545 0.917034 -0.384613 
-0.135935 0.716241 -0.684485 
-0.188988 0.427315 -0.88413 
-0.191411 0.355487 -0.914872 
-0.152241 0.300419 -0.941579 
-0.11384 0.228888 -0.966774 
-0.0844823 0.177542 -0.98048 
-0.0654238 0.139965 -0.987993 
-0.0515433 0.111728 -0.992401 
-0.041069 0.0809714 -0.99587 
-0.0338011 0.0572873 -0.997785 
-0.0285469 0.0370872 -0.998904 
-0.0264534 0.0229324 -0.999387 
-0.0247174 0.012342 -0.999618 
-0.0244472 0.00413007 -0.999693 
-0.0246966 -0.00191007 -0.999693 
-0.0243517 -0.00681135 -0.99968 
-0.024614 -0.0103387 -0.999644 
-0.0246567 -0.0130858 -0.99961 
-0.0244641 -0.0151049 -0.999587 
-0.0247099 -0.0165727 -0.999557 
-0.024368 -0.0174627 -0.999551 
-0.0241868 -0.0180512 -0.999545 
-0.0237268 -0.0184871 -0.999548 
-0.0236162 -0.0190184 -0.99954 
-0.0230535 -0.0198317 -0.999538 
-0.0228831 -0.0211301 -0.999515 
-0.0223322 -0.0229861 -0.999486 
-0.0213911 -0.0252873 -0.999451 
-0.0210775 -0.0283761 -0.999375 
-0.0199009 -0.0316084 -0.999302 
-0.0180127 -0.0338776 -0.999264 
-0.0172331 -0.0340295 -0.999272 
-0.01461 -0.030556 -0.999426 
-0.0128189 -0.0256759 -0.999588 
-0.0106087 -0.0242794 -0.999649 
-0.010611 -0.0256512 -0.999615 
-0.00979323 -0.0245802 -0.99965 
-0.00263468 -0.00370188 -0.99999 
0.00235848 -0.00357532 0.999991 
0.00936343 -0.0241597 0.999664 
0.0106344 -0.0259551 0.999607 
0.0122467 -0.0240091 0.999637 
0.014181 -0.0262645 0.999555 
0.0166261 -0.0312669 0.999373 
0.0183815 -0.0345784 0.999233 
0.0197626 -0.0347606 0.9992 
0.0208487 -0.0326316 0.99925 
0.0217622 -0.029337 0.999333 
0.0225261 -0.0265751 0.999393 
0.0232705 -0.0236481 0.99945 
0.0237648 -0.0216126 0.999484 
0.0242857 -0.020195 0.999501 
0.0246573 -0.0192885 0.99951 
0.0249414 -0.018656 0.999515 
0.0253776 -0.0181511 0.999513 
0.0256453 -0.0175113 0.999518 
0.0258019 -0.0165773 0.99953 
0.025928 -0.0151207 0.99955 
0.0259567 -0.0131077 0.999577 
0.0259142 -0.0104483 0.99961 
0.0258242 -0.00711498 0.999641 
0.0258885 -0.00294245 0.999661 
0.0260645 0.00237132 0.999658 
0.0266123 0.0094019 0.999602 
0.0278576 0.0184607 0.999442 
0.0303954 0.0305779 0.99907 
0.0349215 0.0463193 0.998316 
0.0421876 0.0660784 0.996922 
0.0528134 0.090817 0.994466 
0.0664251 0.118498 0.99073 
0.084998 0.151386 0.984814 
0.109571 0.179468 0.977643 
0.144578 0.239524 0.960065 
0.175692 0.307668 0.935133 
0.21326 0.380045 0.900048 
0.23986 0.463829 0.852836 
0.149208 0.775576 0.613368 
-0.00565082 0.99986 -0.0157366 
-0.191149 0.708976 -0.678833 
-0.227478 0.496099 -0.837938 
-0.23724 0.413959 -0.878837 
-0.162526 0.262103 -0.951256 
-0.128287 0.225232 -0.965822 
-0.109287 0.181568 -0.977287 
-0.0900226 0.163299 -0.982461 
-0.0710394 0.129224 -0.989068 
-0.0562119 0.100579 -0.99334 
-0.0462867 0.0786021 -0.995831 
-0.0382231 0.0564688 -0.997673 
-0.0323471 0.0391141 -0.998711 
-0.0288662 0.0240219 -0.999295 
-0.0269203 0.0132938 -0.999549 
-0.0261246 0.00546124 -0.999644 
-0.0257259 -0.00071772 -0.999669 
-0.0257769 -0.00556377 -0.999652 
-0.0258361 -0.00922429 -0.999624 
-0.0259416 -0.0121064 -0.99959 
-0.0259377 -0.0143752 -0.99956 
-0.0259073 -0.016036 -0.999536 
-0.0256232 -0.0172522 -0.999523 
-0.0254636 -0.0179703 -0.999514 
-0.0251345 -0.0185138 -0.999513 
-0.0248405 -0.0190347 -0.99951 
-0.0245046 -0.0198221 -0.999503 
-0.0241116 -0.0210259 -0.999488 
-0.0235559 -0.0228693 -0.999461 
-0.0229159 -0.0253234 -0.999417 
-0.0221931 -0.0281904 -0.999356 
-0.0210998 -0.0316994 -0.999275 
-0.0199699 -0.0345195 -0.999205 
-0.0184761 -0.0346982 -0.999227 
-0.0163571 -0.0302719 -0.999408 
-0.0145132 -0.0257684 -0.999563 
-0.0124871 -0.0239786 -0.999635 
-0.0113585 -0.0251685 -0.999619 
-0.0100236 -0.0243904 -0.999652 
-0.00245948 -0.00356432 -0.999991 
0.00194553 -0.00367658 0.999992 
0.00796418 -0.023961 0.999681 
0.0112031 -0.0247968 0.99963 
0.0117558 -0.0240351 0.999642 
0.0139274 -0.0255436 0.999577 
0.0153043 -0.0317067 0.99938 
0.0175093 -0.0358357 0.999204 
0.0178236 -0.0351645 0.999223 
0.0195442 -0.0322562 0.999289 
0.0189168 -0.0293165 0.999391 
0.020461 -0.0261668 0.999448 
0.0208938 -0.0235329 0.999505 
0.0209684 -0.0216051 0.999547 
0.0216292 -0.0203449 0.999559 
0.0222634 -0.0194778 0.999562 
0.0222092 -0.018844 0.999576 
0.0231028 -0.0182815 0.999566 
0.022834 -0.0174689 0.999587 
0.0228583 -0.0162565 0.999607 
0.0229127 -0.0145333 0.999632 
0.0229948 -0.0122727 0.99966 
0.0229985 -0.00952128 0.99969 
0.0230479 -0.00612109 0.999716 
0.0234079 -0.00200105 0.999724 
0.0240309 0.00342398 0.999705 
0.0250513 0.0103187 0.999633 
0.0270207 0.01952 0.999444 
0.0304354 0.0315776 0.999038 
0.0359357 0.0470147 0.998248 
0.044127 0.0661872 0.996831 
0.0543832 0.0872051 0.994705 
0.0679202 0.111237 0.99147 
0.0850185 0.136849 0.986937 
0.108264 0.163534 0.980579 
0.145043 0.213891 0.96603 
0.167241 0.228691 0.959026 
0.189957 0.2719 0.943391 
0.264309 0.585932 0.766045 
0.206118 0.765525 0.609498 
0.0287003 0.991596 0.126156 
-0.149962 0.851854 -0.501855 
-0.269541 0.586703 -0.763628 
-0.199403 0.297044 -0.933811 
-0.175726 0.244063 -0.953705 
-0.141964 0.213592 -0.966553 
-0.103669 0.16094 -0.981505 
-0.0822251 0.134703 -0.987469 
-0.0657265 0.10893 -0.991874 
-0.0527813 0.0849157 -0.994989 
-0.0432396 0.0649033 -0.996954 
-0.0356683 0.0464568 -0.998283 
-0.0306666 0.0318854 -0.999021 
-0.0266453 0.0185915 -0.999472 
-0.0248118 0.00993928 -0.999643 
-0.0238367 0.00325375 -0.999711 
-0.0231958 -0.00248702 -0.999728 
-0.0232395 -0.00648912 -0.999709 
-0.0230093 -0.00979989 -0.999687 
-0.0231292 -0.0124678 -0.999655 
-0.0229811 -0.0146032 -0.999629 
-0.0233253 -0.016396 -0.999594 
-0.0225195 -0.0175617 -0.999592 
-0.0227466 -0.0183638 -0.999573 
-0.0220625 -0.0189668 -0.999577 
-0.0220095 -0.0195701 -0.999566 
-0.0215796 -0.0204409 -0.999558 
-0.0212969 -0.0218115 -0.999535 
-0.0208091 -0.0238034 -0.9995 
-0.0200935 -0.026295 -0.999452 
-0.0197344 -0.0296578 -0.999365 
-0.0187847 -0.033177 -0.999273 
-0.0187187 -0.0354656 -0.999196 
-0.0170613 -0.0360454 -0.999205 
-0.0163065 -0.0324473 -0.999341 
-0.0139419 -0.0270964 -0.999536 
-0.0121503 -0.0242385 -0.999632 
-0.0102131 -0.0256392 -0.999619 
-0.00874323 -0.0234866 -0.999686 
-0.00190703 -0.00368087 -0.999992 
0.00147644 -0.00367757 0.999992 
0.00623291 -0.0245851 0.999678 
0.009579 -0.0252766 0.999635 
0.00975773 -0.0244344 0.999654 
0.0125422 -0.0269968 0.999557 
0.0124952 -0.0333329 0.999366 