# vtk DataFile Version 3.0 
Exported using Morpho https://github.com/Morpho-lang/morpho 
ASCII 
DATASET UNSTRUCTURED_GRID 

POINTS 1978 float 
-8.48528 -2.82845 -2.15882e-10 
-8.26042 -2.82843 2.87077e-11 
-8.03432 -2.82843 -1.43143e-13 
-7.78767 -2.82843 -2.05492e-12 
-7.50454 -2.82843 -2.12715e-12 
-7.25045 -2.82843 -2.53817e-12 
-7.00105 -2.82843 -1.52588e-13 
-6.78542 -2.82843 -1.49727e-12 
-6.56029 -2.82843 -7.30748e-13 
-6.35163 -2.82843 -9.31364e-13 
-6.13812 -2.82843 -1.22702e-12 
-5.93237 -2.82843 1.46434e-12 
-5.71246 -2.82843 4.4546e-13 
-5.51687 -2.82843 -1.36092e-13 
-5.29045 -2.82843 1.66469e-12 
-5.08431 -2.82843 3.64593e-13 
-4.8683 -2.82843 -1.02024e-12 
-4.66171 -2.82843 -8.57328e-12 
-4.44531 -2.82843 -1.23502e-11 
-4.2318 -2.82843 -1.90656e-11 
-4.01862 -2.82843 -1.29475e-11 
-3.81729 -2.82843 -6.98487e-12 
-3.60655 -2.82843 -1.5186e-11 
-3.39399 -2.82843 -2.15375e-11 
-3.17255 -2.82843 -1.49886e-12 
-2.95251 -2.82843 -8.86367e-12 
-2.72524 -2.82843 -9.87029e-11 
-2.49489 -2.82843 -2.18702e-10 
-2.26483 -2.82843 -4.12599e-10 
-2.04299 -2.82843 -6.98902e-10 
-1.81082 -2.82843 -9.01943e-10 
-1.62176 -2.82843 -3.97511e-09 
-1.45278 -2.82843 -5.97785e-09 
-1.30563 -2.82843 -5.86659e-09 
-1.16231 -2.82843 2.80004e-08 
-0.965255 -2.82843 2.03474e-07 
-0.818782 -2.82842 4.92238e-07 
-0.659102 -2.82842 1.4929e-06 
-0.446627 -2.82843 1.66114e-06 
0.352961 -2.8284 6.34284e-07 
0.548578 -2.82842 -2.01793e-06 
0.745061 -2.82842 -7.91075e-07 
0.911372 -2.82843 -1.20981e-07 
1.04072 -2.82843 -9.5624e-09 
1.17646 -2.82843 -2.76489e-09 
1.29631 -2.82843 2.2279e-09 
1.46783 -2.82843 7.32986e-09 
1.63611 -2.82843 3.83361e-09 
1.83815 -2.82843 1.01343e-09 
2.05641 -2.82843 4.77297e-10 
2.28162 -2.82843 2.85503e-10 
2.51851 -2.82843 1.77984e-10 
2.73296 -2.82843 1.2703e-10 
2.94619 -2.82843 9.12348e-12 
3.17448 -2.82843 -1.55279e-11 
3.39712 -2.82843 1.91348e-11 
3.6175 -2.82843 2.11091e-11 
3.82084 -2.82843 1.39192e-11 
4.03289 -2.82843 1.36263e-11 
4.25313 -2.82843 1.40197e-11 
4.45143 -2.82843 1.14766e-11 
4.6656 -2.82843 6.98071e-12 
4.86771 -2.82843 3.05321e-12 
5.07907 -2.82843 -1.82627e-12 
5.28648 -2.82843 -1.69603e-12 
5.50416 -2.82843 -3.26861e-13 
5.70775 -2.82843 -9.12186e-13 
5.9263 -2.82843 -1.82286e-13 
6.1487 -2.82843 7.98538e-13 
6.35046 -2.82843 7.33369e-13 
6.58715 -2.82843 1.02907e-12 
6.80178 -2.82843 1.56881e-12 
7.00359 -2.82843 -5.34747e-14 
7.26955 -2.82843 2.22845e-12 
7.50269 -2.82843 1.51959e-12 
7.74181 -2.82843 1.19478e-12 
8.0232 -2.82843 5.60845e-13 
8.20791 -2.82843 -4.19607e-11 
8.48528 -2.8284 -2.82216e-10 
-8.48528 -2.58924 6.7792e-10 
-8.25709 -2.59131 1.56117e-19 
-8.02891 -2.58855 -1.7345e-14 
-7.78674 -2.60386 7.91443e-17 
-7.53442 -2.64647 -3.12242e-17 
-7.25012 -2.61757 -4.2348e-17 
-7.00116 -2.59809 -1.13535e-15 
-6.77461 -2.59937 -2.90981e-15 
-6.54472 -2.59063 -1.30637e-17 
-6.3167 -2.59596 -4.86943e-17 
-6.09492 -2.58753 6.83176e-18 
-5.87289 -2.59889 -4.53962e-17 
-5.66622 -2.569 9.67814e-17 
-5.44545 -2.60638 -1.73468e-15 
-5.23046 -2.58477 5.82763e-16 
-5.01359 -2.59692 3.11015e-15 
-4.80077 -2.58753 2.95647e-15 
-4.5839 -2.59947 7.32375e-15 
-4.36519 -2.59678 1.77469e-14 
-4.1479 -2.59698 4.0505e-14 
-3.93854 -2.5826 -1.57745e-22 
-3.72786 -2.59151 -3.97105e-22 
-3.51094 -2.5903 -1.10419e-21 
-3.28932 -2.59608 -3.19319e-21 
-3.0637 -2.59064 -9.56923e-21 
-2.83653 -2.59708 -2.87105e-20 
-2.60357 -2.60142 -8.47458e-20 
-2.36877 -2.6049 -2.43169e-19 
-2.13678 -2.60409 -6.84674e-19 
-1.90525 -2.62432 -1.96539e-18 
-1.68346 -2.59306 -5.36105e-18 
-1.50196 -2.6017 -1.2945e-17 
-1.329 -2.60283 -3.19918e-17 
-1.1899 -2.49924 -1.54712e-17 
-1.15609 -2.67551 -7.29576e-17 
-0.978907 -2.64825 -1.35837e-16 
-0.811541 -2.64494 -2.3062e-16 
-0.581591 -2.70693 -2.56481e-16 
-0.406925 -2.62175 -1.33961e-16 
-0.284912 -2.78539 7.81156e-17 
0.264405 -2.7365 9.61604e-17 
0.664598 -2.69111 3.40333e-16 
0.838607 -2.68368 2.00653e-16 
0.981279 -2.61402 1.31688e-16 
1.11913 -2.63473 6.58618e-17 
1.25682 -2.54806 2.87026e-17 
1.40589 -2.63215 1.71868e-17 
1.5872 -2.60519 8.5364e-18 
1.78986 -2.62096 3.29299e-18 
2.02131 -2.61236 1.14188e-18 
2.26258 -2.60311 3.89241e-19 
2.49778 -2.60342 1.25249e-19 
2.73906 -2.58318 4.46929e-20 
2.97247 -2.59906 1.18396e-20 
3.20237 -2.59518 3.8334e-21 
3.43176 -2.59692 1.27694e-21 
3.64304 -2.58179 4.45591e-22 
3.85975 -2.5941 1.69303e-22 
4.08402 -2.60398 -4.34331e-14 
4.29152 -2.57942 -1.98512e-14 
4.50641 -2.59837 -8.92656e-15 
4.71619 -2.58417 -5.57114e-15 
4.93028 -2.59499 -8.02031e-16 
5.1436 -2.59009 -6.37984e-16 
5.36363 -2.60112 -2.65155e-16 
5.57678 -2.58392 -1.21661e-16 
5.79445 -2.59917 -9.30269e-18 
6.02077 -2.60106 -1.76153e-15 
6.23647 -2.57474 -1.93527e-17 
6.45824 -2.60998 9.31591e-16 
6.68614 -2.58446 -1.32251e-15 
6.89726 -2.5661 -1.16055e-15 
7.12746 -2.62859 1.54034e-17 
7.37946 -2.59774 4.36962e-17 
7.61527 -2.60484 2.89672e-16 
7.87491 -2.63765 -3.17413e-15 
8.08083 -2.53732 -7.91685e-15 
8.30213 -2.63044 -9.79998e-19 
8.48528 -2.53029 -5.12889e-10 
-8.48528 -2.35007 -2.1671e-09 
-8.25489 -2.35474 4.65538e-19 
-8.01451 -2.3541 2.46796e-15 
-7.77157 -2.39384 -1.85302e-17 
-7.56341 -2.23828 5.74606e-17 
-7.49235 -2.44472 -9.46383e-17 
-7.20881 -2.41286 1.67744e-17 
-6.97434 -2.35736 1.47709e-15 
-6.73629 -2.37516 1.44287e-15 
-6.49443 -2.36568 -4.17984e-16 
-6.2622 -2.36503 1.96768e-15 
-6.03159 -2.35826 4.17218e-16 
-5.82206 -2.34575 2.63497e-15 
-5.58086 -2.35416 2.55151e-15 
-5.37059 -2.36385 1.97416e-16 
-5.14064 -2.35884 5.25136e-16 
-4.92598 -2.35757 1.15214e-15 
-4.70154 -2.36335 3.00824e-15 
-4.48293 -2.37077 7.48324e-15 
-4.26072 -2.36782 1.75711e-14 
-4.04907 -2.3518 3.81688e-14 
-3.83208 -2.34871 -1.54364e-22 
-3.61826 -2.3576 -4.31644e-22 
-3.39515 -2.36048 -1.28405e-21 
-3.17264 -2.3616 -3.78878e-21 
-2.94184 -2.3602 -1.14518e-20 
-2.71302 -2.37092 -3.53901e-20 
-2.4802 -2.37788 -1.04241e-19 
-2.24829 -2.38128 -2.86442e-19 
-2.01241 -2.39703 -8.03273e-19 
-1.7959 -2.39695 -1.57807e-18 
-1.5841 -2.35463 -1.76814e-18 
-1.41403 -2.38691 -3.45992e-18 
-1.26578 -2.3057 -3.75204e-18 
-1.0607 -2.43008 -2.4902e-17 
-0.920322 -2.45412 -5.04477e-17 
-0.720217 -2.545 -9.71836e-17 
-0.577077 -2.52422 -3.96625e-16 
-0.186444 -2.66371 -6.24134e-17 
-0.0197594 -2.75632 -3.66265e-17 
0.352701 -2.5773 6.11558e-17 
0.487847 -2.67436 3.42142e-16 
0.759954 -2.54369 1.29287e-16 
0.927103 -2.46873 2.59874e-17 
1.11277 -2.42089 6.9416e-18 
1.21718 -2.28095 -3.94945e-18 
1.367 -2.39764 6.959e-18 
1.5286 -2.3914 2.9915e-18 
1.72908 -2.40659 1.88316e-18 
1.94601 -2.40812 9.54725e-19 
2.18634 -2.39484 3.64251e-19 
2.42609 -2.3722 1.19094e-19 
2.65599 -2.36889 4.09674e-20 
2.90578 -2.36691 1.21484e-20 
3.13425 -2.36258 4.09246e-21 
3.3607 -2.36758 1.36945e-21 
3.57815 -2.34199 4.53339e-22 
3.79269 -2.35609 1.62521e-22 
4.00982 -2.37564 -4.13397e-14 
4.21938 -2.34645 -1.71002e-14 
4.43853 -2.35915 -7.02157e-15 
4.64462 -2.35029 -3.22127e-15 
4.86157 -2.3578 -1.30251e-15 
5.07275 -2.35595 -5.47926e-16 
5.29163 -2.36944 -2.3914e-15 
5.50427 -2.35263 -1.0324e-15 
5.72616 -2.36107 -5.10954e-16 
5.9444 -2.37413 3.85106e-17 
6.16232 -2.34583 -1.8294e-16 
6.39647 -2.36419 -6.57187e-17 
6.60878 -2.36255 7.89719e-17 
6.8339 -2.32036 8.09805e-17 
7.06749 -2.37905 4.90757e-17 
7.28773 -2.39714 3.08868e-17 
7.54776 -2.37116 2.96244e-17 
7.78901 -2.41841 8.94302e-17 
8.00017 -2.31987 -2.54954e-14 
8.26197 -2.36167 1.55282e-18 
8.48528 -2.28215 1.26208e-09 
-8.48528 -2.1147 2.2044e-09 
-8.25127 -2.10583 2.7776e-18 
-8.04242 -2.11412 -4.85462e-14 
-7.80229 -2.15322 -5.59627e-17 
-7.50302 -2.03297 -2.69808e-17 
-7.30331 -2.22959 -1.60361e-17 
-7.06304 -2.14523 -7.75911e-16 
-6.80552 -2.14115 -4.7299e-16 
-6.58359 -2.14831 6.33012e-16 
-6.34628 -2.13776 -4.19445e-16 
-6.12283 -2.13023 -6.49037e-16 
-5.90962 -2.10113 -2.72578e-16 
-5.68869 -2.13563 -4.48791e-16 
-5.46677 -2.11412 -1.10962e-15 
-5.25565 -2.13815 -4.4182e-16 
-5.03746 -2.12113 -2.49585e-17 
-4.82001 -2.13347 -1.35025e-15 
-4.60328 -2.13533 -6.82709e-16 
-4.38951 -2.14215 -2.83939e-15 
-4.18214 -2.12285 -1.38754e-15 
-3.97085 -2.11674 -4.01197e-15 
-3.7587 -2.11387 -9.75341e-15 
-3.54592 -2.12756 -2.27705e-14 
-3.32904 -2.12575 1.38143e-22 
-3.10694 -2.13152 5.31313e-22 
-2.88062 -2.12861 1.84006e-21 
-2.65522 -2.1423 5.26141e-21 
-2.42656 -2.15047 1.40858e-20 
-2.19113 -2.16561 4.64126e-20 
-1.96873 -2.16811 1.45496e-19 
-1.761 -2.16752 8.83802e-20 
-1.57901 -2.10119 8.98949e-19 
-1.40672 -2.13238 1.09579e-18 
-1.23248 -2.09334 3.00521e-18 
-1.09168 -2.24841 2.57626e-18 
-0.914614 -2.22211 7.97747e-18 
-0.790856 -2.37726 -2.68339e-17 
-0.488455 -2.3835 1.04169e-16 
-0.169483 -2.46838 -5.79268e-16 
0.135889 -2.64229 6.48476e-17 
0.18996 -2.47477 5.3086e-16 
0.587449 -2.53615 1.52533e-16 
0.738539 -2.3884 5.01318e-17 
0.931308 -2.30294 -1.0604e-17 
1.03368 -2.19201 -5.62022e-18 
1.19589 -2.07357 -2.26104e-18 
1.38848 -2.15754 -2.22301e-18 
1.5841 -2.17409 -5.94395e-19 
1.79237 -2.19146 -1.54543e-20 
2.02786 -2.19853 -2.36683e-21 
2.26183 -2.16524 9.83065e-22 
2.49495 -2.13314 -2.02152e-21 
2.73716 -2.15406 -2.1956e-22 
2.96947 -2.13058 -3.83709e-22 
3.19452 -2.12903 -8.57498e-23 
3.40786 -2.12528 3.29072e-14 
3.62762 -2.1077 2.53508e-14 
3.84411 -2.12956 2.85581e-15 
4.04845 -2.13141 7.60926e-16 
4.27341 -2.12268 8.68465e-16 
4.47847 -2.11474 2.5321e-15 
4.6963 -2.1223 -4.54032e-16 
4.90772 -2.12047 -3.40476e-16 
5.12823 -2.13005 -1.00872e-15 
5.33777 -2.12912 -6.60141e-16 
5.56255 -2.12654 -5.25958e-16 
5.78264 -2.1307 -2.06235e-16 
5.99548 -2.13238 -4.27681e-16 
6.23701 -2.13115 -5.79518e-16 
6.45045 -2.11526 2.73234e-17 
6.66509 -2.11736 1.85467e-17 
6.92512 -2.1147 -1.66811e-17 
7.14171 -2.14037 -1.11484e-17 
7.37331 -2.18111 -2.11629e-17 
7.56649 -2.08376 -2.94728e-17 
7.75072 -2.1836 1.04003e-15 
7.96567 -2.08262 -2.54739e-15 
8.19649 -2.14276 -1.66155e-19 
8.48528 -2.10103 9.15052e-10 
-8.48528 -1.79659 2.06192e-09 
-8.31771 -1.86858 1.83141e-18 
-7.90045 -1.907 2.40922e-17 
[...]
POINT_DATA 1978 
VECTORS vectors float
-0.00296551 -0.00803434 0.999964 
0.000212925 -0.000595458 1 
-4.87089e-05 -0.000437715 1 
-7.33039e-06 -0.000429896 1 
-6.02792e-06 -0.000421774 1 
-3.87115e-06 -0.000411806 1 
-2.76312e-06 -0.000403197 1 
-2.4279e-06 -0.000401627 1 
-3.40577e-06 -0.000403339 1 
-5.95451e-06 -0.000396023 1 
-9.18101e-06 -0.000367868 1 
-1.43657e-05 -0.000314317 1 
-1.86785e-05 -0.000222148 1 
-2.73361e-05 -9.71654e-05 1 
-3.23909e-05 8.96117e-05 1 
-3.95722e-05 0.000279121 1 
-4.75054e-05 0.000510047 1 
-6.35843e-05 0.00083284 1 
-8.1096e-05 0.00134259 0.999999 
-9.89305e-05 0.00202417 0.999998 
-0.000118066 0.00290044 0.999996 
-0.000153006 0.00399994 0.999992 
-0.000209485 0.00555702 0.999985 
-0.00030573 0.00776745 0.99997 
-0.000446264 0.0110523 0.999939 
-0.000671827 0.0158414 0.999874 
-0.00100087 0.0232986 0.999728 
-0.00142781 0.0345727 0.999401 
-0.00193317 0.0509205 0.998701 
-0.00252008 0.0735297 0.99729 
-0.0029564 0.107158 0.994238 
-0.00325465 0.145533 0.989348 
-0.00474293 0.194203 0.98095 
-0.00653154 0.252709 0.967521 
-0.00717705 0.3245 0.945859 
-0.00761789 0.444062 0.895964 
-0.0101837 0.55606 0.83108 
-0.00740707 0.694612 0.719348 
-0.0052144 0.866416 0.499295 
0.00211905 0.913444 -0.406957 
0.00880468 0.769048 -0.639131 
0.00854369 0.602055 -0.79841 
0.0100758 0.467411 -0.883983 
0.00868667 0.381128 -0.924482 
0.00791951 0.303872 -0.95268 
0.00587266 0.247878 -0.968774 
0.00396446 0.186114 -0.98252 
0.0034591 0.141008 -0.990002 
0.0028414 0.101828 -0.994798 
0.00245361 0.0706748 -0.997496 
0.00184458 0.048417 -0.998825 
0.00139732 0.0313412 -0.999508 
0.00083705 0.0212792 -0.999773 
0.000597085 0.0148394 -0.99989 
0.000414735 0.0103843 -0.999946 
0.000286854 0.00731404 -0.999973 
0.000194403 0.00517837 -0.999987 
0.000140729 0.00376367 -0.999993 
0.000113263 0.00270254 -0.999996 
9.15358e-05 0.00185499 -0.999998 
7.57133e-05 0.00123621 -0.999999 
5.93254e-05 0.000733984 -1 
4.53544e-05 0.000421716 -1 
3.57337e-05 0.000223874 -1 
3.05461e-05 7.13077e-05 -1 
2.60818e-05 -9.34127e-05 -1 
1.99289e-05 -0.00023007 -1 
1.40636e-05 -0.000323817 -1 
9.30975e-06 -0.000372366 -1 
5.9044e-06 -0.000394669 -1 
3.93133e-06 -0.000404639 -1 
2.73538e-06 -0.000409456 -1 
2.7676e-06 -0.000412773 -1 
3.84027e-06 -0.000418874 -1 
5.01964e-06 -0.000429277 -1 
5.80285e-06 -0.000437671 -1 
4.92023e-05 -0.000446468 -1 
-0.00033815 -0.000521944 -1 
0.00361572 -0.0123166 -0.999915 
-0.0371827 -0.0516462 0.997975 
-0.00144349 -0.00228138 0.999996 
-0.000162382 -0.00048714 1 
-9.50531e-05 -0.000440754 1 
-6.10345e-05 -0.00042686 1 
-4.26737e-05 -0.000408571 1 
-3.91118e-05 -0.000393138 1 
-4.34479e-05 -0.000379248 1 
-6.47281e-05 -0.000362267 1 
-9.83184e-05 -0.000335675 1 
-0.000150184 -0.000284463 1 
-0.000205571 -0.000210908 1 
-0.00029944 -8.90223e-05 1 
-0.000346074 5.01065e-05 1 
-0.000463026 0.000255643 1 
-0.000543722 0.000485814 1 
-0.000674893 0.000794442 0.999999 
-0.000778951 0.00120788 0.999999 
-0.000935901 0.00181023 0.999998 
-0.00111887 0.00262433 0.999996 
-0.00141103 0.00372526 0.999992 
-0.00172397 0.00522066 0.999985 
-0.0022734 0.00742509 0.99997 
-0.00305508 0.0105673 0.99994 
-0.00431873 0.0152076 0.999875 
-0.0058903 0.0218371 0.999744 
-0.00797258 0.0318429 0.999461 
-0.010548 0.0465643 0.99886 
-0.0137108 0.0675189 0.997624 
-0.0167098 0.0969437 0.99515 
-0.02318 0.13836 0.990111 
-0.0286232 0.185886 0.982154 
-0.033479 0.245471 0.968826 
-0.0296616 0.310381 0.95015 
-0.0367575 0.345997 0.937516 
-0.0357556 0.443583 0.89552 
-0.0244097 0.561312 0.827244 
-0.0119045 0.735446 0.677479 
0.0203794 0.834615 0.550456 
-0.00598043 0.94083 0.338824 
-0.00419456 0.92342 -0.383768 
0.0261355 0.676011 -0.736428 
0.0370482 0.543967 -0.838289 
0.0408883 0.435462 -0.899278 
0.0371887 0.341646 -0.939093 
0.0330658 0.273092 -0.961419 
0.0297799 0.214612 -0.976245 
0.0260854 0.161051 -0.986601 
0.0196639 0.115637 -0.993097 
0.0146918 0.0795512 -0.996723 
0.0115522 0.0536719 -0.998492 
0.00856406 0.0360051 -0.999315 
0.00672961 0.0243879 -0.99968 
0.00456963 0.0165459 -0.999853 
0.00322636 0.0114797 -0.999929 
0.00226466 0.00794961 -0.999966 
0.00175145 0.00567993 -0.999982 
0.00132589 0.00396143 -0.999991 
0.00106794 0.00273722 -0.999996 
0.000995251 0.00195293 -0.999998 
0.00081289 0.00130016 -0.999999 
0.000723608 0.000859333 -0.999999 
0.000584148 0.000523065 -1 
0.000487216 0.000295949 -1 
0.000377785 9.98311e-05 -1 
0.000313244 -5.32398e-05 -1 
0.000224047 -0.000188708 -1 
0.000157673 -0.000277693 -1 
0.000117969 -0.000321025 -1 
7.07204e-05 -0.000361191 -1 
5.29e-05 -0.000377076 -1 
4.54057e-05 -0.000391279 -1 
3.78482e-05 -0.000409517 -1 
5.63811e-05 -0.000426131 -1 
7.65793e-05 -0.000440261 -1 
9.54932e-05 -0.000449116 -1 
0.000217201 -0.000529738 -1 
0.00222518 -0.00346216 -0.999992 
0.0613793 -0.0829835 -0.994654 
-0.0490553 -0.0587531 0.997069 
-0.00197438 -0.00257565 0.999995 
-0.000241901 -0.000514011 1 
-0.000151635 -0.00045925 1 
-0.000131841 -0.000459389 1 
-9.30878e-05 -0.000434763 1 
-6.66964e-05 -0.000408284 1 
-6.08762e-05 -0.000378912 1 
-6.76511e-05 -0.00035034 1 
-9.87553e-05 -0.000311858 1 
-0.000152548 -0.00026227 1 
-0.000229205 -0.000185178 1 
-0.000315536 -8.45129e-05 1 
-0.000433225 6.68181e-05 1 
-0.00054271 0.000239856 1 
-0.000676324 0.00048843 1 
-0.000808877 0.000781191 0.999999 
-0.000961158 0.00117559 0.999999 
-0.00112492 0.00169555 0.999998 
-0.00131769 0.002437 0.999996 
-0.00154436 0.00344545 0.999993 
-0.00186986 0.00492235 0.999986 
-0.00235638 0.00701244 0.999973 
-0.00312147 0.0101132 0.999944 
-0.00423832 0.0143985 0.999887 
-0.00583333 0.0206103 0.999771 
-0.0079208 0.0291759 0.999543 
-0.0103948 0.0416453 0.999078 
-0.0129161 0.0593731 0.998152 
-0.0157953 0.0849839 0.996257 
-0.017491 0.117513 0.992917 
-0.0143848 0.160054 0.987003 
-0.0134152 0.209636 0.977687 
-0.002241 0.259044 0.965863 
-0.0123849 0.358172 0.933574 
0.0023345 0.447475 0.894294 
0.00196412 0.606313 0.795224 
0.0225588 0.714347 0.699428 
0.0132227 0.9602 0.278999 
0.00197539 0.999993 -0.00322355 
-0.0208653 0.878524 -0.477242 
0.00838467 0.781615 -0.623705 
0.0125888 0.565567 -0.824606 
0.00770246 0.428064 -0.903716 
0.0110696 0.327 -0.944959 
-0.00959562 0.262048 -0.965007 
0.0166626 0.222056 -0.974891 
0.017616 0.173677 -0.984645 
0.0191121 0.129569 -0.991386 
0.0164708 0.0920458 -0.995619 
0.0133355 0.0639213 -0.997866 
0.0105255 0.0436633 -0.998991 
0.00825408 0.0305727 -0.999498 
0.00584388 0.0207221 -0.999768 
0.00417318 0.014567 -0.999885 
0.00298123 0.0101059 -0.999944 
0.00216601 0.00709706 -0.999972 
0.00172546 0.00489326 -0.999987 
0.00145912 0.00338967 -0.999993 
0.00127976 0.0024447 -0.999996 
0.00112588 0.00170684 -0.999998 
0.000990501 0.00121051 -0.999999 
0.000846863 0.000810966 -0.999999 
0.000713329 0.000524053 -1 
0.000577892 0.000282235 -1 
0.000464466 0.000105117 -1 
0.000350055 -5.28084e-05 -1 
0.000253115 -0.000169164 -1 
0.000179364 -0.000237138 -1 
0.00011659 -0.000298817 -1 
8.14957e-05 -0.000335525 -1 
6.51577e-05 -0.000364306 -1 
6.36631e-05 -0.000399125 -1 
7.79928e-05 -0.000425354 -1 
0.00011496 -0.00045104 -1 
0.000150116 -0.000464626 -1 
0.000242263 -0.000517083 -1 
0.00206134 -0.00282089 -0.999994 
0.0389984 -0.0502239 -0.997972 
-0.0859284 -0.0984969 0.991423 
-0.00292634 -0.00356259 0.999989 
-0.000312024 -0.000575653 1 
-0.000190332 -0.000488916 1 
-0.00013647 -0.000471649 1 
-9.15787e-05 -0.000427326 1 
-7.17741e-05 -0.000390285 1 
-6.6052e-05 -0.000341234 1 
-8.37173e-05 -0.000296512 1 
-0.000127857 -0.000234032 1 
-0.000193089 -0.000156475 1 
-0.000272652 -4.90735e-05 1 
-0.000377914 7.49012e-05 1 
-0.000489161 0.000261435 1 
-0.000606935 0.000465355 1 
-0.000722896 0.000748671 0.999999 
-0.000846787 0.00109216 0.999999 
-0.000970188 0.00154517 0.999998 
-0.00110182 0.00214237 0.999997 
-0.0012221 0.00295506 0.999995 
-0.00138555 0.00413498 0.99999 
-0.00160751 0.00587546 0.999981 
-0.00196479 0.00838908 0.999963 
-0.00242574 0.0119444 0.999926 
-0.00314791 0.0168291 0.999853 
-0.00398709 0.0235229 0.999715 
-0.00514122 0.0325275 0.999458 
-0.0061085 0.0451456 0.998962 
-0.00664434 0.0634564 0.997962 
-0.0055469 0.0871813 0.996177 
-0.00226223 0.117483 0.993072 
0.00929371 0.147463 0.989024 
0.0173868 0.190632 0.981508 
0.0371718 0.235932 0.971058 
0.0318833 0.312857 0.949265 
0.0590493 0.396984 0.915924 
0.0455796 0.524149 0.850406 
0.101792 0.759172 0.642882 
0.0393543 0.958675 0.281767 
-0.00552664 0.994105 -0.108281 
-0.0343739 0.951201 -0.306653 
-0.0256807 0.6948 -0.718745 
-0.0389116 0.536239 -0.843169 
-0.0390093 0.394654 -0.918001 
-0.0498432 0.318084 -0.946751 
-0.0426037 0.2357 -0.970892 
-0.0140429 0.190782 -0.981532 
-0.00256994 0.147184 -0.989106 
0.00499938 0.11192 -0.993705 
0.0067411 0.0792462 -0.996832 
0.00650134 0.0557118 -0.998426 
0.00542851 0.03947 -0.999206 
0.00487653 0.0277899 -0.999602 
0.00345299 0.0198518 -0.999797 
0.00260744 0.0141236 -0.999897 
0.0019716 0.0100027 -0.999948 
0.00151647 0.00686337 -0.999975 
0.00134166 0.00470973 -0.999988 
0.00121701 0.00336806 -0.999994 
0.00110424 0.002379 -0.999997 
0.00100602 0.00175014 -0.999998 
0.000905126 0.00124853 -0.999999 
0.000793935 0.000881978 -0.999999 
0.000673923 0.000577725 -1 
0.00055564 0.000348633 -1 
0.000433568 0.000150019 -1 
0.000324686 -3.8676e-06 -1 
0.000233511 -0.00011588 -1 
0.00015197 -0.000207684 -1 
0.000100693 -0.000265911 -1 
7.2463e-05 -0.000316819 -1 
6.54496e-05 -0.000370827 -1 
7.89677e-05 -0.000411798 -1 
0.000106581 -0.000447919 -1 
0.00014559 -0.000479917 -1 
0.000175122 -0.000486897 -1 
0.000253359 -0.000534816 -1 
0.00118275 -0.00158927 -0.999998 
0.0477533 -0.055815 -0.997295 
-0.0836419 -0.12117 0.989104 
-0.00506427 -0.00709328 0.999962 
-0.000232174 -0.000534919 1 
-0.000176548 -0.000505909 1 
-0.000130049 -0.000485074 1 
-9.86604e-05 -0.000439089 1 
-8.25701e-05 -0.000422337 1 
-6.39847e-05 -0.000369561 1 
-5.74981e-05 -0.00030972 1 
-8.08443e-05 -0.000247269 1 
-0.000124758 -0.000163232 1 
-0.000188319 -6.27339e-05 1 
-0.000284507 7.15658e-05 1 
-0.000384626 0.000222325 1 
-0.000492721 0.000436455 1 
-0.000596078 0.000667619 1 
-0.000699244 0.000988344 0.999999 
-0.000795391 0.00138031 0.999999 
-0.000880227 0.00189693 0.999998 
-0.000939717 0.00256002 0.999996 
-0.000996554 0.00351709 0.999993 
-0.00105495 0.00493384 0.999987 
-0.00112184 0.00709083 0.999974 
-0.00119116 0.0100865 0.999948 
-0.00126162 0.014324 0.999897 
-0.00131226 0.0198925 0.999801 
-0.00121627 0.027508 0.999621 
-0.000943835 0.0375946 0.999293 
8.04897e-05 0.0521775 0.998638 
0.00343426 0.0714764 0.997436 
0.0101073 0.0951721 0.99541 
0.0235035 0.122073 0.992243 
0.0421631 0.158136 0.986517 
0.0677564 0.202826 0.976868 
0.0799557 0.2856 0.955008 
0.121684 0.341912 0.93182 
0.109921 0.474771 0.873218 
0.0860773 0.618263 0.781244 
0.0609183 0.870868 0.487728 
0.000561299 0.999838 -0.0180007 
-0.0552744 0.821323 -0.567779 
-0.0980247 0.668601 -0.737132 
-0.0875053 0.471338 -0.877601 
-0.114836 0.364561 -0.924071 
-0.0933679 0.272293 -0.957674 
-0.074236 0.198083 -0.97737 
-0.0427814 0.169023 -0.984683 
-0.024326 0.135784 -0.99044 
-0.0122753 0.105309 -0.994364 
-0.00364887 0.0815266 -0.996664 
-0.000896259 0.057868 -0.998324 
0.000281108 0.0412824 -0.999147 
0.00144909 0.029647 -0.999559 
0.00128938 0.0217822 -0.999762 
0.00108106 0.0155291 -0.999879 
0.000943817 0.0110106 -0.999939 
0.000897165 0.00771448 -0.99997 
0.000916871 0.00522094 -0.999986 
0.000914666 0.00370728 -0.999993 
0.000925305 0.00270384 -0.999996 
0.000864984 0.00198023 -0.999998 
0.000818335 0.00146307 -0.999999 
0.000734417 0.00106673 -0.999999 
0.000644429 0.000747252 -1 
0.000535461 0.000496401 -1 
0.000432445 0.000285666 -1 
0.000323124 0.000110127 -1 
0.000228163 -2.27378e-05 -1 
0.000153055 -0.000134507 -1 
8.97323e-05 -0.0002128 -1 
5.93123e-05 -0.000282619 -1 
5.64035e-05 -0.000345769 -1 
7.3506e-05 -0.000406788 -1 
0.000104396 -0.000451794 -1 
0.000147388 -0.000496849 -1 
0.000199975 -0.000521693 -1 
0.000321666 -0.000632762 -1 
0.00285815 -0.00387627 -0.999988 
0.0717846 -0.0973006 -0.992658 
-0.0461272 -0.0903588 0.994843 
-0.00228773 -0.0042661 0.999988 
-0.000411362 -0.000741212 1 
-0.00021944 -0.000564721 1 
-0.000171777 -0.000528715 1 
-0.000103869 -0.000471197 1 
-6.00421e-05 -0.000399269 1 
-4.46649e-05 -0.000342169 1 
-4.46741e-05 -0.000259761 1 
-7.04738e-05 -0.000178002 1 
-0.000116308 -7.04187e-05 1 
-0.000197214 5.81984e-05 1 
-0.000285923 0.000213719 1 
-0.000382546 0.000384768 1 
-0.000472173 0.00061236 1 
-0.000565505 0.000864281 0.999999 
-0.000643504 0.00120383 0.999999 
-0.000709367 0.00162622 0.999998 
-0.000739171 0.00215505 0.999997 
-0.0007442 0.00287869 0.999996 
-0.000709479 0.00392445 0.999992 
-0.000629612 0.00550244 0.999985 
-0.00045675 0.00779961 0.999969 
-0.000207638 0.0110637 0.999939 
0.000258185 0.0153867 0.999882 
0.000926119 0.0210722 0.999778 
0.00213639 0.0283753 0.999595 
0.00379082 0.0384964 0.999252 
0.00710199 0.052213 0.998611 
0.0137332 0.0691386 0.997513 
0.0248735 0.086907 0.995906 
0.0435693 0.112842 0.992657 
0.0701744 0.14162 0.987431 
0.106547 0.154789 0.982185 
0.110578 0.227293 0.967528 
0.16388 0.242826 0.956127 
0.18119 0.431412 0.883772 
0.176923 0.596026 0.783231 
0.117406 0.918975 0.376431 
-0.0133187 0.998736 -0.0484687 
-0.117915 0.854587 -0.505745 
-0.152343 0.542364 -0.826216 
-0.183766 0.414505 -0.8913 
-0.167651 0.285333 -0.943652 
-0.125537 0.20854 -0.969923 
-0.0927963 0.14832 -0.984576 
-0.0598138 0.131688 -0.989485 
-0.0380722 0.10847 -0.99337 
-0.0227561 0.0878862 -0.995871 
-0.0114876 0.0676823 -0.997641 
-0.00638215 0.048459 -0.998805 
-0.00296018 0.0343147 -0.999407 
-0.00160047 0.0255716 -0.999672 
-0.000753706 0.018913 -0.999821 
-0.000339816 0.0135946 -0.999908 
1.03742e-06 0.00963299 -0.999954 
0.000351861 0.00659559 -0.999978 
0.000529175 0.0046118 -0.999989 
0.000662729 0.00331123 -0.999994 
0.000728938 0.00247191 -0.999997 
0.000716505 0.00182782 -0.999998 
0.000684952 0.00138262 -0.999999 
0.000617511 0.00101704 -0.999999 
0.000538748 0.00073488 -1 
0.000442331 0.000500915 -1 
0.000351078 0.00029818 -1 
0.000253539 0.000135623 -1 
0.000166873 -6.59068e-06 -1 
0.000102886 -0.000116162 -1 
5.1147e-05 -0.000210553 -1 
3.60996e-05 -0.000297496 -1 
4.79526e-05 -0.000369229 -1 
7.10739e-05 -0.000431232 -1 
0.000104853 -0.000471505 -1 
0.000146946 -0.000519627 -1 
0.000197138 -0.000546729 -1 
0.000285889 -0.000657056 -1 
0.00257262 -0.00424155 -0.999988 
0.049892 -0.0898289 -0.994703 
-0.0327507 -0.0892856 0.99547 
-0.00135989 -0.00373568 0.999992 
-0.000293686 -0.000700636 1 
-0.000170836 -0.000564279 1 
-0.000139074 -0.00052501 1 
-0.000103003 -0.000501274 1 
-7.00389e-05 -0.000443335 1 
-3.71757e-05 -0.000376085 1 
-2.61144e-05 -0.000303402 1 
-2.73679e-05 -0.000206155 1 
-5.4887e-05 -0.000102818 1 
-0.000117543 3.74419e-05 1 
-0.000194194 0.000188044 1 
-0.000279048 0.000357117 1 
-0.000364138 0.000541214 1 
-0.000444821 0.000783549 1 
-0.000520649 0.00105348 0.999999 
-0.000577753 0.00141837 0.999999 
-0.000601119 0.00185551 0.999998 
-0.000590629 0.00243058 0.999997 
-0.000525639 0.00323317 0.999995 
-0.000381388 0.00440935 0.99999 
-0.000122779 0.00614476 0.999981 
0.000309756 0.00871559 0.999962 
0.000961254 0.012112 0.999926 
0.00197309 0.0165749 0.999861 
0.00346404 0.0221034 0.99975 
0.00577072 0.0295068 0.999548 
0.00913446 0.0392366 0.999188 
0.0151289 0.0510082 0.998584 
0.0250455 0.0624615 0.997733 
0.0411291 0.0799747 0.995948 
0.0668417 0.0950375 0.993227 
0.0993989 0.0992315 0.990087 
0.146543 0.141597 0.979018 
0.210611 0.176454 0.961513 
0.219057 0.322269 0.920954 
0.277715 0.516494 0.810005 
0.17493 0.766075 0.618489 
-0.114909 0.932823 -0.341521 
-0.183545 0.692118 -0.698057 
-0.264629 0.524669 -0.809131 
-0.253799 0.320479 -0.912622 
-0.221384 0.182282 -0.957999 
-0.162095 0.164964 -0.972888 
-0.115745 0.112849 -0.986848 
-0.0698451 0.0959008 -0.992937 
-0.045855 0.0818782 -0.995587 
-0.0287565 0.0676236 -0.997296 
-0.0172678 0.0572005 -0.998213 
-0.0116815 0.0425612 -0.999026 
-0.0067085 0.0335738 -0.999414 
-0.00427221 0.0244369 -0.999692 
-0.00262578 0.0184162 -0.999827 
-0.00158722 0.0135628 -0.999907 
-0.000838871 0.0095151 -0.999954 
-0.000185343 0.00670912 -0.999977 
0.000174906 0.00469314 -0.999989 
0.00042432 0.00340875 -0.999994 
0.000556635 0.00255174 -0.999997 
0.000605827 0.00196658 -0.999998 
0.000587808 0.00147593 -0.999999 
0.000547391 0.00112803 -0.999999 
0.000475936 0.000836133 -1 
0.000398896 0.000606359 -1 
0.000314798 0.000398588 -1 
0.000230305 0.000231358 -1 
0.00014735 7.37427e-05 -1 
7.79685e-05 -5.92134e-05 -1 
3.5243e-05 -0.000168402 -1 
1.97324e-05 -0.000279629 -1 
3.49866e-05 -0.000370299 -1 
6.64556e-05 -0.000448513 -1 
0.000107986 -0.000502203 -1 
0.00013742 -0.000542999 -1 
0.000176482 -0.000565186 -1 
0.000219865 -0.000652297 -1 
0.00137768 -0.00309837 -0.999994 
0.0402016 -0.0959561 -0.994569 
-0.0166798 -0.0910855 0.995706 
-0.000696144 -0.00376586 0.999993 
-0.000207496 -0.000666257 1 
-0.000135583 -0.000577362 1 
-0.000129362 -0.000546976 1 
-9.47115e-05 -0.00051744 1 
-6.20689e-05 -0.000456062 1 
-2.67468e-05 -0.000383004 1 
-9.3424e-06 -0.000285642 1 
-6.49979e-06 -0.000175643 1 
-3.97301e-05 -4.13294e-05 1 
-9.60245e-05 0.000114554 1 
-0.000168343 0.000278258 1 
-0.000245339 0.000448839 1 
-0.000328315 0.000640962 1 
-0.000390452 0.000871171 1 
-0.000457796 0.00114588 0.999999 
-0.000490029 0.00147949 0.999999 
-0.000493823 0.00190147 0.999998 
-0.00045336 0.00247589 0.999997 
-0.000335506 0.00325355 0.999995 
-0.000108793 0.00434038 0.999991 
0.000269406 0.0060002 0.999982 
0.000879158 0.00830358 0.999965 
0.00179469 0.0115066 0.999932 
0.00316517 0.015436 0.999876 
0.00513922 0.0203583 0.99978 
0.00807824 0.0263733 0.99962 
0.0122726 0.0339547 0.999348 
0.0187547 0.0413157 0.99897 
0.0301933 0.0509548 0.998244 
0.0473898 0.0599844 0.997074 
0.0701511 0.062302 0.995589 
0.107721 0.0553007 0.992642 
0.156887 0.0794346 0.984417 
0.240093 0.106314 0.964911 
0.295537 0.273156 0.915447 
0.401709 0.448532 0.798404 
0.289164 0.78359 0.549883 
0.0152934 0.999298 0.0341819 
-0.288786 0.759208 -0.583271 
-0.379293 0.409805 -0.829575 
-0.321361 0.24906 -0.913617 
-0.216002 0.0815068 -0.972985 
-0.153375 0.0818573 -0.984772 
-0.104312 0.0528962 -0.993137 
-0.077897 0.069679 -0.994523 
-0.0488188 0.0575912 -0.997146 
-0.0317021 0.0508397 -0.998204 
-0.0201068 0.0439947 -0.998829 
-0.0125363 0.0329945 -0.999377 
-0.00782601 0.0267937 -0.99961 
-0.0051299 0.0198453 -0.99979 
-0.00336163 0.0150072 -0.999882 
-0.00203167 0.0110091 -0.999937 
-0.00100688 0.00760623 -0.999971 
-0.000356268 0.00547856 -0.999985 
7.6289e-05 0.00391121 -0.999992 
0.000331391 0.00293464 -0.999996 
0.000455003 0.00226671 -0.999997 
0.000514048 0.00176722 -0.999998 
0.00048973 0.00135889 -0.999999 
0.000451719 0.00105101 -0.999999 
0.000385662 0.00080194 -1 
0.000315894 0.000580434 -1 
0.000238415 0.000399392 -1 
0.0001606 0.000225345 -1 
8.78335e-05 7.13674e-05 -1 
3.30182e-05 -6.52623e-05 -1 
7.39577e-06 -0.000201979 -1 
8.45332e-06 -0.000316239 -1 
2.97757e-05 -0.000393938 -1 
5.65851e-05 -0.000464045 -1 
9.02462e-05 -0.000508385 -1 
0.000113919 -0.000547789 -1 
0.0001417 -0.000577883 -1 
0.000169823 -0.000715135 -1 
0.00134251 -0.0048285 -0.999987 
0.0218815 -0.107049 -0.994009 
0.00196822 -0.0836288 0.996497 
5.41654e-05 -0.00352596 0.999994 
-0.000134601 -0.000700235 1 
-9.21106e-05 -0.000569961 1 
-0.000103119 -0.000551079 1 
-7.83537e-05 -0.000527922 1 
-5.79372e-05 -0.000478028 1 
-2.52377e-05 -0.000413399 1 
2.79814e-07 -0.000303808 1 
9.2765e-06 -0.000169687 1 
-1.60794e-05 -1.49202e-05 1 
-6.25804e-05 0.000150732 1 
-0.000128266 0.000321705 1 
-0.000199666 0.000495579 1 
-0.000274096 0.000673619 1 
-0.000326615 0.000884676 1 
-0.000383431 0.00113348 0.999999 
-0.000409743 0.00143232 0.999999 
-0.000408933 0.00181839 0.999998 
-0.000354866 0.00230951 0.999997 
-0.00022365 0.00296238 0.999996 
1.58842e-05 0.00388162 0.999992 
0.000418296 0.00521651 0.999986 