# vtk DataFile Version 3.0 
Exported using Morpho https://github.com/Morpho-lang/morpho 
ASCII 
DATASET UNSTRUCTURED_GRID 

POINTS 1978 float 
-8.49138 -2.81059 2.95567e-06 
-8.24673 -2.83334 -5.18693e-08 
-8.05641 -2.83319 6.13315e-07 
-7.79339 -2.83321 2.77544e-06 
-7.47904 -2.83452 3.19099e-06 
-7.2174 -2.83133 3.33496e-06 
-7.00733 -2.83286 2.54617e-07 
-6.77023 -2.83229 1.85296e-06 
-6.52413 -2.83408 8.82983e-07 
-6.34435 -2.83329 3.43695e-07 
-6.16505 -2.83396 9.35427e-07 
-5.93834 -2.83572 -2.83847e-06 
-5.71554 -2.83193 -1.55612e-06 
-5.51192 -2.83544 -1.0534e-06 
-5.2939 -2.83315 -2.96165e-06 
-5.08317 -2.83552 -1.4154e-06 
-4.86321 -2.83616 -2.53717e-07 
-4.66048 -2.8334 8.26144e-06 
-4.43706 -2.83565 1.30883e-05 
-4.22757 -2.83484 2.12209e-05 
-4.00651 -2.8374 1.2929e-05 
-3.80515 -2.83772 3.14766e-06 
-3.59485 -2.83694 9.27954e-06 
-3.38871 -2.83865 7.44259e-06 
-3.1745 -2.83808 -3.29068e-05 
-2.96603 -2.83962 -5.76686e-05 
-2.74981 -2.83926 -5.15907e-06 
-2.52806 -2.83943 2.29807e-05 
-2.29072 -2.83835 -1.03441e-05 
-2.04146 -2.83815 -7.56483e-06 
-1.79487 -2.83554 -0.00010608 
-1.57501 -2.83429 -0.000242578 
-1.39078 -2.83185 0.000128239 
-1.17332 -2.82631 0.000855102 
-1.02253 -2.82456 0.00278674 
-0.877359 -2.82046 0.00996662 
-0.776079 -2.80654 0.0124703 
-0.629039 -2.77147 0.043392 
-0.339746 -2.76623 0.0570001 
0.21233 -2.76653 -0.0852661 
0.51272 -2.80671 -0.0606013 
0.580283 -2.77735 -0.0278043 
0.747076 -2.79383 -0.0145059 
0.871593 -2.81786 -0.00841484 
1.04569 -2.82535 -0.00133473 
1.17843 -2.82723 -0.00105949 
1.32062 -2.83163 -0.000615922 
1.53717 -2.83281 0.000252585 
1.77351 -2.83201 0.00022454 
2.03514 -2.83267 3.05682e-05 
2.28132 -2.83249 7.30267e-07 
2.52531 -2.83702 -2.11967e-05 
2.75562 -2.83746 -7.6311e-07 
2.98104 -2.83839 5.78132e-05 
3.20159 -2.83904 5.13614e-05 
3.40767 -2.83787 -6.16519e-06 
3.6207 -2.83866 -1.82483e-05 
3.81939 -2.83795 -1.39447e-05 
4.02912 -2.83624 -1.42992e-05 
4.24813 -2.83649 -1.51933e-05 
4.44449 -2.83708 -1.26724e-05 
4.66125 -2.83824 -6.46968e-06 
4.87038 -2.83354 -1.98341e-06 
5.07207 -2.83774 3.34276e-06 
5.29148 -2.83235 2.73437e-06 
5.50112 -2.83292 1.34779e-06 
5.70199 -2.83257 2.27198e-06 
5.92354 -2.83142 1.22469e-06 
6.14498 -2.83146 -4.29684e-07 
6.34082 -2.8312 -5.39532e-07 
6.58543 -2.83168 -1.04847e-06 
6.79436 -2.83014 -1.90943e-06 
6.99635 -2.83165 9.24393e-09 
7.25769 -2.83078 -3.03483e-06 
7.49078 -2.83339 -2.21717e-06 
7.74462 -2.83434 -1.90249e-06 
8.01716 -2.83445 -9.41823e-07 
8.20411 -2.83621 7.95693e-07 
8.48762 -2.81369 -1.90126e-06 
-8.49004 -2.54601 -5.97171e-06 
-8.28337 -2.60809 -1.72591e-06 
-8.04365 -2.54328 -7.24744e-07 
-7.85182 -2.62529 1.10081e-06 
-7.57052 -2.66141 -2.77122e-06 
-7.27158 -2.62366 -4.28308e-06 
-7.02175 -2.57695 -9.36809e-07 
-6.80989 -2.60771 1.66936e-07 
-6.56503 -2.62203 -3.9262e-07 
-6.33071 -2.54613 -2.16376e-06 
-6.11252 -2.60994 -6.63133e-07 
-5.88779 -2.60586 1.55341e-06 
-5.67324 -2.58315 1.29443e-06 
-5.4584 -2.60404 1.12157e-06 
-5.24175 -2.59385 2.61626e-06 
-5.02399 -2.60761 6.18392e-06 
-4.81583 -2.58945 5.52828e-06 
-4.59295 -2.61075 -6.48572e-06 
-4.37345 -2.59913 -2.62069e-05 
-4.15045 -2.61072 -3.66413e-05 
-3.93872 -2.59023 -2.14981e-05 
-3.72772 -2.60097 1.12493e-06 
-3.51258 -2.59554 9.83648e-06 
-3.29402 -2.60498 1.03527e-05 
-3.07446 -2.59707 1.953e-05 
-2.85562 -2.60242 1.48932e-05 
-2.63124 -2.59888 -1.43949e-05 
-2.39817 -2.60395 -5.25229e-05 
-2.15248 -2.61191 -5.62983e-05 
-1.90162 -2.61704 1.76045e-05 
-1.65915 -2.60375 -4.55702e-06 
-1.45408 -2.59186 -0.000693768 
-1.26534 -2.65209 -0.00196586 
-1.07815 -2.60444 -0.00315695 
-0.930404 -2.62614 -0.00333682 
-0.806455 -2.56268 -0.00560964 
-0.688794 -2.64598 0.00351643 
-0.506204 -2.66193 0.0146093 
-0.325154 -2.70483 0.0198773 
-0.110511 -2.70952 0.0420071 
0.20757 -2.6831 -0.0403693 
0.480009 -2.69427 -0.00214598 
0.666006 -2.64646 -0.00230642 
0.822652 -2.58715 0.00455095 
0.965389 -2.64214 0.0035682 
1.11619 -2.56417 0.00325214 
1.32191 -2.64485 0.00171808 
1.54142 -2.63318 0.000317797 
1.78899 -2.6294 -8.52993e-05 
2.02821 -2.60539 1.13267e-05 
2.27902 -2.60363 6.71696e-05 
2.51922 -2.60345 4.21671e-05 
2.75806 -2.60663 2.08455e-06 
2.99064 -2.60759 -3.52064e-05 
3.20841 -2.59482 -2.40254e-05 
3.43404 -2.60583 -9.57357e-06 
3.64285 -2.59066 1.9221e-06 
3.8589 -2.60332 1.76082e-05 
4.08621 -2.61312 3.11478e-05 
4.29548 -2.58402 2.90136e-05 
4.51098 -2.60849 1.22847e-05 
4.72684 -2.60023 -1.05404e-06 
4.94043 -2.589 -6.78695e-06 
5.15384 -2.60909 -4.6436e-06 
5.3746 -2.59636 -1.97585e-06 
5.58367 -2.58641 -1.22948e-06 
5.7985 -2.60529 -1.67551e-06 
6.02447 -2.6032 -3.017e-08 
6.23714 -2.572 1.1827e-06 
6.4579 -2.621 5.55839e-07 
6.68457 -2.58131 7.65072e-07 
6.89393 -2.56916 3.38871e-07 
7.12244 -2.62721 1.20907e-06 
7.37179 -2.598 3.56825e-06 
7.61114 -2.61638 1.0685e-06 
7.87517 -2.63292 -6.64412e-07 
8.08493 -2.54313 1.07807e-06 
8.30678 -2.63654 -1.60874e-06 
8.49278 -2.52138 3.48007e-06 
-8.48963 -2.35377 4.5995e-06 
-8.20221 -2.35922 -3.21353e-07 
-7.94358 -2.30013 1.35201e-06 
-7.73206 -2.44601 -8.89151e-07 
-7.59535 -2.28621 6.5399e-07 
-7.43837 -2.46345 9.25308e-07 
-7.17456 -2.38863 -4.30677e-08 
-6.93731 -2.33269 3.90711e-07 
-6.70903 -2.39849 4.53632e-07 
-6.4894 -2.37373 -2.09618e-07 
-6.21449 -2.34438 2.69091e-08 
-6.00912 -2.37689 -4.25968e-07 
-5.79413 -2.35844 1.13088e-07 
-5.56553 -2.35374 -1.5566e-07 
-5.35625 -2.36762 6.56016e-08 
-5.13021 -2.36864 -2.66962e-07 
-4.92465 -2.35762 2.3844e-07 
-4.70049 -2.37473 -9.13578e-07 
-4.48701 -2.37529 -1.58777e-06 
-4.2628 -2.37701 -2.32969e-06 
-4.053 -2.3628 -5.07095e-07 
-3.83363 -2.35605 -9.374e-08 
-3.622 -2.3624 -1.58026e-06 
-3.39606 -2.36588 -3.82081e-06 
-3.17673 -2.36653 -4.12778e-06 
-2.94922 -2.36402 1.26157e-06 
-2.72315 -2.36528 2.57531e-06 
-2.48474 -2.36751 -9.9077e-07 
-2.23667 -2.37814 -1.46046e-05 
-1.98735 -2.38924 -2.59897e-05 
-1.74431 -2.38892 2.02358e-06 
-1.51683 -2.35824 -1.54201e-05 
-1.30903 -2.4131 -0.000176892 
-1.14563 -2.42965 -0.00134581 
-0.958395 -2.41333 -0.00188284 
-0.779346 -2.41585 -0.00343859 
-0.616781 -2.50816 -0.000377443 
-0.436483 -2.55968 -0.00136818 
-0.206055 -2.59134 -0.0330029 
0.0250554 -2.63107 -0.0445829 
0.246712 -2.60521 -0.00113317 
0.458527 -2.57388 0.0126355 
0.634923 -2.51423 0.00473914 
0.787399 -2.41951 0.00401631 
0.956506 -2.42606 0.00261833 
1.12351 -2.35129 0.000566178 
1.29079 -2.44179 0.000635733 
1.48733 -2.43058 0.000107271 
1.70751 -2.4247 3.10255e-05 
1.94462 -2.38497 2.14708e-05 
2.19475 -2.38221 2.80925e-05 
2.44522 -2.36952 1.322e-05 
2.68213 -2.37871 1.74849e-06 
2.91936 -2.37794 1.35377e-06 
3.13987 -2.3577 3.22984e-06 
3.36299 -2.37223 3.80689e-06 
3.57493 -2.3478 1.52916e-06 
3.78776 -2.36171 3.5995e-07 
4.00496 -2.38624 7.36203e-07 
4.21534 -2.35351 9.65043e-07 
4.43903 -2.36227 1.72817e-06 
4.64566 -2.36597 6.15893e-07 
4.85925 -2.35809 -3.11067e-08 
5.07859 -2.36526 -3.04524e-07 
5.28705 -2.37556 6.21076e-08 
5.50371 -2.35195 -1.97731e-07 
5.72297 -2.36445 3.66035e-07 
5.9379 -2.37853 4.01047e-07 
6.15345 -2.34533 2.18524e-07 
6.39139 -2.37243 4.37008e-07 
6.59846 -2.36709 4.95968e-08 
6.82744 -2.32033 -1.71352e-08 
7.05914 -2.37708 6.95811e-08 
7.27969 -2.39471 4.72991e-07 
7.54614 -2.38351 -3.02332e-07 
7.79195 -2.42094 9.63508e-07 
8.01069 -2.31175 -1.42554e-06 
8.26633 -2.3703 -5.08351e-07 
8.49107 -2.27981 7.17654e-07 
-8.49335 -2.10939 -6.5781e-06 
-8.27439 -2.16466 6.32175e-07 
-8.08448 -2.07681 5.06996e-07 
-7.80373 -2.13487 -8.32925e-07 
-7.53543 -2.06556 -3.77631e-08 
-7.33597 -2.23174 -1.59573e-06 
-7.08564 -2.13844 1.60369e-07 
-6.80342 -2.14175 -3.41824e-07 
-6.59583 -2.14431 2.06146e-07 
-6.35653 -2.16874 -5.12851e-08 
-6.11521 -2.10651 1.62417e-07 
-5.91593 -2.12788 5.00639e-07 
-5.69037 -2.13376 6.84039e-07 
-5.46465 -2.11612 4.1583e-07 
-5.25179 -2.14431 3.75353e-07 
-5.04069 -2.11727 1.41713e-06 
-4.82194 -2.14097 1.06773e-06 
-4.60847 -2.1403 1.75895e-06 
-4.39286 -2.14899 1.69358e-06 
-4.18521 -2.12902 2.82606e-06 
-3.97351 -2.12643 3.31684e-06 
-3.7619 -2.11477 3.91525e-06 
-3.54745 -2.13332 4.10637e-06 
-3.33184 -2.12588 5.55287e-06 
-3.11467 -2.13343 8.56591e-06 
-2.89458 -2.12726 1.30509e-05 
-2.66744 -2.13326 2.22106e-05 
-2.42811 -2.13989 2.88644e-05 
-2.18128 -2.15007 2.44706e-05 
-1.9372 -2.15926 -9.56594e-06 
-1.70178 -2.15744 1.32858e-05 
-1.46768 -2.14695 7.00896e-05 
-1.29286 -2.16879 -0.000184627 
-1.11994 -2.22067 -0.000932744 
-0.946491 -2.2444 0.000208621 
-0.760694 -2.27564 -0.003047 
-0.57129 -2.381 0.000369825 
-0.377672 -2.45681 -0.00273403 
-0.188552 -2.55023 0.06374 
0.00514588 -2.54043 0.048026 
0.205392 -2.51391 0.0503113 
0.421297 -2.46962 0.0404064 
0.606443 -2.37179 0.00500912 
0.785267 -2.25023 0.00179612 
0.951888 -2.23579 0.000321225 
1.13329 -2.15275 0.000167393 
1.32301 -2.23002 -0.000123617 
1.5215 -2.20761 -0.000133765 
1.7489 -2.19755 -3.24016e-05 
2.01235 -2.16619 -1.46318e-05 
2.26834 -2.15768 -2.33571e-05 
2.51573 -2.13652 -2.13899e-05 
2.75251 -2.15388 -1.33459e-05 
2.9721 -2.13338 -1.08243e-05 
3.19999 -2.13038 -4.79775e-06 
3.40689 -2.12432 -4.3582e-06 
3.62557 -2.11064 -3.86443e-06 
3.84444 -2.13443 -3.37725e-06 
4.0471 -2.13768 -2.65218e-06 
4.27459 -2.12947 -2.57804e-06 
4.48275 -2.11477 -1.69507e-06 
4.69527 -2.12695 -1.37738e-06 
4.91617 -2.13181 -1.09458e-06 
5.12926 -2.12964 -8.79486e-07 
5.33787 -2.13961 -1.21249e-07 
5.56436 -2.12694 -4.07514e-07 
5.78048 -2.13186 -2.88892e-07 
5.99053 -2.13482 4.07817e-08 
6.23966 -2.14021 -4.16729e-07 
6.44871 -2.11791 2.66256e-08 
6.66309 -2.12407 3.80236e-07 
6.92813 -2.11444 -7.5544e-07 
7.14642 -2.13911 -1.25831e-06 
7.38396 -2.18838 -5.81135e-08 
7.57875 -2.09 -1.03411e-06 
7.75392 -2.19181 1.08257e-06 
7.96813 -2.0806 -7.27668e-07 
8.21601 -2.14609 -1.58187e-07 
8.49262 -2.08466 2.25467e-06 
-8.49447 -1.8114 -4.05285e-06 
-8.32 -1.90464 6.5984e-06 
-7.91588 -1.91514 -2.15392e-07 
-7.68472 -1.89898 6.98693e-07 
-7.44243 -1.81156 -1.35365e-06 
[...]
POINT_DATA 1978 
VECTORS vectors float
0.00020629 -0.00043891 1.00125 
0.000396451 -0.000404394 1.00355 
0.000519099 -0.000402736 1.0038 
0.000786433 -0.000376851 1.0039 
0.00117489 -0.000368107 1.00379 
0.00154366 -0.000496315 1.00354 
0.00180579 -0.000646871 1.00359 
0.00206627 -0.00097944 1.00359 
0.00225284 -0.00129679 1.00343 
0.00237287 -0.00154053 1.00251 
0.00230263 -0.0018057 1.00333 
0.00214467 -0.00212313 1.00341 
0.00187764 -0.00229831 1.00341 
0.00158404 -0.00239608 1.00334 
0.00117365 -0.00251222 1.00336 
0.00070261 -0.00282801 1.00335 
0.000514155 -0.00355193 1.00332 
0.00102762 -0.00471366 1.00334 
0.00265192 -0.00601806 1.00333 
0.00479635 -0.00665141 1.00331 
0.00674061 -0.00673221 1.0033 
0.00745738 -0.00632584 1.0033 
0.00786571 -0.00555785 1.00332 
0.00782067 -0.00633379 1.00334 
0.00387823 -0.00876066 1.00335 
-0.0037622 -0.00828512 1.00339 
-0.0100298 -0.00307733 1.00347 
-0.0125577 0.00278576 1.0036 
-0.0160135 0.00810238 1.00363 
-0.0251088 0.0155867 1.00332 
-0.0417128 0.0264487 1.00225 
-0.0728733 0.0385069 0.999423 
-0.116403 0.0668104 0.993198 
-0.184261 0.140408 0.9745 
-0.228502 0.217457 0.950482 
-0.265931 0.320688 0.910758 
-0.274019 0.401709 0.875737 
-0.277714 0.550615 0.795848 
-0.190962 0.857608 0.508582 
0.168593 0.947663 -0.332605 
0.320419 0.648533 -0.6857 
0.285057 0.578062 -0.777177 
0.273878 0.398569 -0.876511 
0.257559 0.295831 -0.92125 
0.206341 0.18705 -0.961972 
0.168403 0.129796 -0.978161 
0.133422 0.082063 -0.989777 
0.0787779 0.0415837 -0.998751 
0.044327 0.0252668 -1.00199 
0.0236108 0.0151305 -1.00327 
0.0151602 0.00753635 -1.00366 
0.0126011 0.00217174 -1.00361 
0.0104754 -0.00341361 -1.00353 
0.00436337 -0.00887397 -1.00344 
-0.00384796 -0.0102856 -1.00338 
-0.00921285 -0.00776276 -1.00333 
-0.00962205 -0.00506406 -1.00328 
-0.00775066 -0.00527434 -1.00329 
-0.00600054 -0.00644788 -1.0033 
-0.00427442 -0.0066927 -1.00329 
-0.00261175 -0.0059811 -1.00332 
-0.00111194 -0.0045956 -1.00331 
-0.000469147 -0.0035855 -1.00333 
-0.00060081 -0.00305677 -1.00332 
-0.00109732 -0.00273129 -1.00333 
-0.00160618 -0.0025713 -1.00329 
-0.00194785 -0.00240815 -1.00332 
-0.00222454 -0.00216342 -1.00336 
-0.00235912 -0.0018098 -1.00337 
-0.00234994 -0.00150067 -1.00342 
-0.0022167 -0.00113577 -1.00346 
-0.00206242 -0.0009092 -1.00348 
-0.00185106 -0.00065373 -1.00358 
-0.0015246 -0.000486641 -1.00362 
-0.00119334 -0.000353123 -1.00352 
-0.000926125 -0.000359874 -1.00366 
-0.000573649 -0.00038508 -1.00377 
-0.000452765 -0.00040747 -1.0035 
-0.000227724 -0.00047189 -1.00099 
0.00021665 -0.000749398 1.00184 
0.000373776 -0.00064104 1.00521 
0.000631522 -0.000715269 1.0066 
0.000801067 -0.000606157 1.00636 
0.00108276 -0.000600243 1.00678 
0.00145418 -0.000738317 1.00628 
0.00171889 -0.000957935 1.00638 
0.00192986 -0.00107996 1.00627 
0.00210286 -0.00131722 1.00615 
0.00210053 -0.00157066 1.00694 
0.00211869 -0.00180324 1.00608 
0.00198476 -0.00192414 1.00603 
0.00175441 -0.00198619 1.00608 
0.00141714 -0.00203848 1.00597 
0.000944501 -0.00220988 1.00596 
0.000489966 -0.00308876 1.00591 
0.000254995 -0.00460378 1.00595 
0.000838986 -0.00639621 1.00588 
0.00244567 -0.00788879 1.00593 
0.00486971 -0.00828418 1.00589 
0.00649747 -0.00792238 1.00594 
0.00728875 -0.0066448 1.00595 
0.00708525 -0.00512867 1.00602 
0.00565631 -0.00416512 1.00606 
0.00174368 -0.00283282 1.00611 
-0.00379561 -8.54868e-05 1.0062 
-0.00782405 0.00491212 1.00634 
-0.0106216 0.0114943 1.00648 
-0.016174 0.020944 1.00625 
-0.0280839 0.0358003 1.00529 
-0.0453865 0.0605225 1.00276 
-0.0680475 0.0962549 0.997535 
-0.109996 0.143733 0.986544 
-0.120998 0.228496 0.968316 
-0.144209 0.312589 0.93936 
-0.114864 0.400224 0.909543 
-0.165031 0.49644 0.85323 
-0.142281 0.666926 0.728533 
-0.119753 0.845647 0.516376 
-0.106881 0.952929 0.177299 
0.0821271 0.922183 -0.361972 
0.168788 0.677511 -0.709147 
0.164177 0.49399 -0.852035 
0.127989 0.366867 -0.922365 
0.144997 0.269873 -0.952504 
0.0990092 0.200902 -0.977993 
0.0913042 0.116999 -0.992626 
0.0588222 0.0710175 -1.00068 
0.0338612 0.0425894 -1.00437 
0.0198537 0.0267615 -1.00585 
0.0123652 0.0145239 -1.00639 
0.00832479 0.00642418 -1.00642 
0.00611722 0.00121783 -1.0063 
0.00146486 -0.00273496 -1.00618 
-0.00423454 -0.0044349 -1.00613 
-0.00777748 -0.00513158 -1.00602 
-0.00804688 -0.00595756 -1.006 
-0.00702354 -0.00721475 -1.00592 
-0.00522429 -0.00810391 -1.00589 
-0.00313081 -0.00814614 -1.006 
-0.00141286 -0.00698819 -1.00592 
-0.000426825 -0.00535701 -1.00595 
-0.000325656 -0.00370481 -1.00597 
-0.000686998 -0.00260404 -1.00587 
-0.00120993 -0.00212968 -1.00591 
-0.00162404 -0.00204023 -1.00594 
-0.00193261 -0.00201837 -1.0059 
-0.00211544 -0.00186077 -1.00599 
-0.00215994 -0.00166573 -1.00613 
-0.0021729 -0.00143091 -1.00599 
-0.00200719 -0.00119681 -1.00623 
-0.00183076 -0.00102192 -1.00635 
-0.00164579 -0.000826984 -1.00619 
-0.0013567 -0.000704411 -1.0064 
-0.00109288 -0.000628269 -1.0064 
-0.000804813 -0.000613105 -1.00638 
-0.000599463 -0.000683809 -1.0064 
-0.000401234 -0.000615254 -1.00497 
-0.000190119 -0.000719707 -1.00137 
0.000141624 -0.000905518 1.00201 
0.000465528 -0.000870841 1.00652 
0.000715041 -0.000957568 1.00756 
0.000934524 -0.000808355 1.00605 
0.00107538 -0.000994485 1.00671 
0.00126127 -0.000834316 1.00587 
0.00148751 -0.00105207 1.00653 
0.00165973 -0.00119963 1.00661 
0.00185846 -0.00128657 1.00649 
0.00193316 -0.00147138 1.00646 
0.00192046 -0.00160453 1.00637 
0.00187981 -0.00166253 1.0063 
0.00172963 -0.00164596 1.00626 
0.0014197 -0.00160698 1.00628 
0.00106435 -0.00166346 1.0062 
0.000618929 -0.00237109 1.00618 
0.000246863 -0.00396388 1.00614 
0.000129226 -0.00632814 1.00611 
0.00079195 -0.00821705 1.00611 
0.00243359 -0.00914275 1.00613 
0.00419552 -0.00906921 1.00615 
0.00580548 -0.00801148 1.00617 
0.00651738 -0.00602138 1.00624 
0.00633619 -0.00329857 1.00633 
0.00506054 -0.000299368 1.00636 
0.00200825 0.00333088 1.00643 
-0.00188831 0.00762322 1.00655 
-0.00470976 0.0136866 1.00669 
-0.00828689 0.0232953 1.00661 
-0.015098 0.0382339 1.00587 
-0.0232944 0.0605655 1.00424 
-0.030802 0.0962571 1.00011 
-0.0510976 0.147508 0.992141 
-0.060375 0.205024 0.980097 
-0.0512201 0.291292 0.95635 
-0.0369618 0.397867 0.916516 
-0.0627268 0.540794 0.836444 
-0.0513541 0.701405 0.692344 
0.0415743 0.90539 0.388232 
0.0657324 0.984305 -0.0532572 
0.0190289 0.879556 -0.453568 
0.0602075 0.67803 -0.727686 
0.0662089 0.505529 -0.859046 
0.0365768 0.37322 -0.927693 
0.0545881 0.278699 -0.960426 
0.0355481 0.19963 -0.982044 
0.0533787 0.143716 -0.991692 
0.0383534 0.0959457 -0.999613 
0.0257335 0.0625018 -1.00362 
0.015438 0.0407192 -1.00556 
0.00834303 0.0238958 -1.00644 
0.00460227 0.0139282 -1.00666 
0.00320081 0.00766608 -1.00659 
-0.000551721 0.00255169 -1.00646 
-0.00474644 -0.000372007 -1.00636 
-0.00662562 -0.00285981 -1.00628 
-0.00680246 -0.00532602 -1.00623 
-0.0061535 -0.00764933 -1.0062 
-0.00482165 -0.00894211 -1.00615 
-0.00278745 -0.00925329 -1.00615 
-0.00117093 -0.00841422 -1.00619 
-0.000367487 -0.00685649 -1.0062 
-0.000216898 -0.00474405 -1.00614 
-0.000492495 -0.00278502 -1.00612 
-0.000893309 -0.00184229 -1.0061 
-0.00129719 -0.00158076 -1.00612 
-0.00161901 -0.00168122 -1.00618 
-0.00183389 -0.00168854 -1.00622 
-0.00193066 -0.00160168 -1.00626 
-0.00196125 -0.00151141 -1.00632 
-0.00190206 -0.00137174 -1.0064 
-0.00174216 -0.00125688 -1.00655 
-0.00159706 -0.00109123 -1.00645 
-0.00141537 -0.000976905 -1.0065 
-0.00115272 -0.000882437 -1.00737 
-0.000899612 -0.000861795 -1.00598 
-0.000660583 -0.000945022 -1.00746 
-0.000397674 -0.000870283 -1.0062 
-0.000127318 -0.000980419 -1.00168 
0.000117632 -0.00122424 1.00172 
0.00037592 -0.00110558 1.00611 
0.000583297 -0.00120773 1.00673 
0.000823056 -0.00110763 1.00752 
0.00109728 -0.00120366 1.00669 
0.00127782 -0.00112062 1.00653 
0.00147165 -0.00122789 1.00731 
0.00166901 -0.00138643 1.00664 
0.00176172 -0.00146345 1.00655 
0.00179778 -0.00149231 1.00646 
0.00175356 -0.00148517 1.00641 
0.00167939 -0.00143168 1.0064 
0.00150356 -0.00130242 1.00638 
0.00122183 -0.00116248 1.00632 
0.000904475 -0.00161858 1.00628 
0.000622607 -0.00295092 1.00625 
0.000327947 -0.00531173 1.0062 
0.000287451 -0.00769684 1.00618 
0.000751815 -0.00920495 1.00619 
0.00170287 -0.00962118 1.00621 
0.00330403 -0.00899213 1.00623 
0.00491183 -0.00767255 1.00627 
0.00615275 -0.00541351 1.00632 
0.00658809 -0.00190179 1.00638 
0.00623235 0.00246333 1.00641 
0.00469642 0.00714902 1.0065 
0.0022615 0.012491 1.00662 
0.000226025 0.0198309 1.00671 
-0.00196496 0.0298689 1.00652 
-0.00479076 0.0450225 1.00567 
-0.00653979 0.0682326 1.00385 
-0.00562065 0.101702 1.00046 
-0.00620367 0.142679 0.993507 
-0.00705831 0.196499 0.983955 
0.00474381 0.271346 0.964842 
0.02862 0.370674 0.927721 
0.0169924 0.54279 0.834327 
0.0245602 0.733718 0.672916 
-0.0950833 0.915243 0.368296 
-0.0990918 0.984506 -0.0119306 
-0.118286 0.886107 -0.417415 
-0.0471047 0.670033 -0.716664 
-0.0244467 0.487035 -0.869907 
-0.0334001 0.329747 -0.943722 
-0.009186 0.252729 -0.96998 
-0.00904035 0.17425 -0.988493 
0.0136443 0.130821 -0.995799 
0.0109875 0.0912666 -1.00214 
0.00801473 0.0611599 -1.00449 
0.00425663 0.0382473 -1.0059 
0.000892844 0.0241999 -1.00659 
-0.00136534 0.0155951 -1.0067 
-0.00243621 0.00909693 -1.00659 
-0.00488565 0.00458868 -1.00648 
-0.00668941 0.000587198 -1.00635 
-0.00669411 -0.00294914 -1.00632 
-0.00567864 -0.00648387 -1.00629 
-0.00448381 -0.00854904 -1.00626 
-0.00302118 -0.00936745 -1.00624 
-0.00140431 -0.00951995 -1.00622 
-0.000660587 -0.00867127 -1.00629 
-0.00042242 -0.00682793 -1.00627 
-0.000449243 -0.00439441 -1.00622 
-0.000666171 -0.00239565 -1.0062 
-0.000987318 -0.0014181 -1.0062 
-0.00131766 -0.00122286 -1.00623 
-0.00155936 -0.00138296 -1.00631 
-0.00170997 -0.00152781 -1.00635 
-0.00181751 -0.00156219 -1.0064 
-0.00180373 -0.00149411 -1.00652 
-0.00174036 -0.00140699 -1.00655 
-0.00157811 -0.00131536 -1.00665 
-0.00144133 -0.00123317 -1.00655 
-0.00128752 -0.00114972 -1.0058 
-0.00105213 -0.00116221 -1.00664 
-0.000928949 -0.00108931 -1.00678 
-0.000695928 -0.00121461 -1.00673 
-0.00045138 -0.00114783 -1.00643 
-0.000138259 -0.00122602 -1.00169 
9.35314e-05 -0.00158087 1.00161 
0.000316031 -0.00147305 1.0059 
0.000753258 -0.00134187 1.00602 
0.000975736 -0.00130678 1.00679 
0.00114607 -0.00138692 1.00738 
0.00129269 -0.00122897 1.00594 
0.00134338 -0.00137433 1.0065 
0.00152473 -0.00136441 1.00666 
0.00160594 -0.00143287 1.0066 
0.00169687 -0.00143908 1.00649 
0.00169177 -0.00140565 1.00647 
0.00157892 -0.00124757 1.00633 
0.00149805 -0.00111124 1.00633 
0.00134327 -0.000915312 1.00628 
0.00112324 -0.00104096 1.00625 
0.000918808 -0.00197204 1.00623 
0.000713352 -0.00425827 1.00619 
0.000579991 -0.00680556 1.00615 
0.000489576 -0.00886412 1.00613 
0.000554739 -0.00955172 1.00613 
0.0011551 -0.00907046 1.00616 
0.00256955 -0.00807929 1.00618 
0.00459713 -0.00655683 1.0062 
0.00617913 -0.00380634 1.00622 
0.00700011 0.000676463 1.00625 
0.00666547 0.00623343 1.0063 
0.00615029 0.0121685 1.00642 
0.00591297 0.0179191 1.00655 
0.00507904 0.0258521 1.00653 
0.00552101 0.0366767 1.00613 
0.00898181 0.0531077 1.00511 
0.0141178 0.0772731 1.00314 
0.0285442 0.104763 1.00024 
0.0391958 0.148808 0.992865 
0.0476138 0.207682 0.979649 
0.0796373 0.281278 0.95759 
0.0939807 0.449254 0.886744 
0.123156 0.641529 0.75237 
0.0790839 0.893666 0.412444 
0.0912963 0.969077 -0.170293 
0.0514135 0.828279 -0.55125 
-0.0216539 0.621032 -0.796749 
-0.086675 0.383377 -0.915702 
-0.090074 0.246985 -0.96632 
-0.0567029 0.197272 -0.981719 
-0.0494917 0.133834 -0.994231 
-0.0186322 0.116886 -0.997983 
-0.015857 0.0842561 -1.00184 
-0.00808456 0.0634824 -1.00445 
-0.00458216 0.0433104 -1.00574 
-0.00476693 0.0287917 -1.0065 
-0.00634186 0.0198643 -1.00668 
-0.00584512 0.0129936 -1.00656 
-0.00625519 0.00766874 -1.00641 
-0.00698974 0.00225121 -1.00626 
-0.0066498 -0.00237074 -1.00617 
-0.00513863 -0.00571079 -1.00617 
-0.00332504 -0.00802885 -1.00615 
-0.00179973 -0.00910386 -1.00615 
-0.00100414 -0.00970192 -1.00617 
-0.000680547 -0.00934375 -1.00617 
-0.000689494 -0.00774079 -1.0062 
-0.000658173 -0.0052926 -1.00621 
-0.000773238 -0.0029617 -1.00619 
-0.000966087 -0.00141645 -1.00616 
-0.00117397 -0.000899106 -1.00616 
-0.00141151 -0.000977197 -1.00624 
-0.0015761 -0.00120653 -1.00629 
-0.0016785 -0.00139503 -1.00637 
-0.00167705 -0.0013953 -1.00645 
-0.00163563 -0.00140806 -1.00649 
-0.0015752 -0.00137532 -1.00657 
-0.00142254 -0.00132028 -1.00721 
-0.00128823 -0.0012696 -1.00655 
-0.0010792 -0.00134436 -1.00659 
-0.000861942 -0.00133592 -1.00677 
-0.000621395 -0.0014356 -1.00665 
-0.000364153 -0.00141401 -1.00615 
-4.73691e-05 -0.00154866 -1.0015 
0.000236866 -0.00187861 1.00173 
0.000404942 -0.00173366 1.00616 
0.000545696 -0.00144782 1.00661 
0.000766659 -0.00150115 1.00672 
0.000965688 -0.00147628 1.00603 
0.00122507 -0.00143001 1.00646 
0.00139798 -0.00146482 1.00646 
0.00148984 -0.00142499 1.00644 
0.00157391 -0.00144078 1.00637 
0.00158513 -0.00138528 1.00632 
0.00156955 -0.00129792 1.00632 
0.001504 -0.00109248 1.00619 
0.00141411 -0.000874611 1.00621 
0.0013133 -0.000835651 1.00616 
0.00124957 -0.00160606 1.00611 
0.00109308 -0.00324256 1.00611 
0.00106556 -0.00574823 1.00604 
0.000946084 -0.00801373 1.00605 
0.000728 -0.00920157 1.00604 
0.000504131 -0.00923833 1.00602 
0.000760686 -0.00832946 1.00605 
0.00200064 -0.00705545 1.00601 
0.00402515 -0.00546026 1.006 
0.0063467 -0.00291329 1.00604 
0.00764568 0.00103868 1.00608 
0.00782051 0.00664788 1.00618 
0.00865686 0.0129177 1.00629 
0.00992579 0.0191225 1.00639 
0.0104789 0.0261045 1.00641 
0.0138917 0.03557 1.00611 
0.0217521 0.0505853 1.00519 
0.034092 0.0696975 1.00337 
0.0577088 0.0906397 1.0002 
0.0813035 0.121211 0.993525 
0.098296 0.176367 0.98356 
0.145953 0.198572 0.971496 
0.145836 0.322641 0.937458 
0.187883 0.445501 0.871229 
0.226554 0.767988 0.560895 
-0.0765732 0.992275 0.0227915 
-0.0782268 0.854389 -0.478369 
-0.128065 0.605721 -0.782822 
-0.156809 0.357489 -0.923175 
-0.140808 0.202855 -0.972248 
-0.0947144 0.142371 -0.989239 
-0.0735588 0.0917474 -0.998447 
-0.0446017 0.0840309 -1.00128 
-0.0304618 0.0615235 -1.0049 
-0.0189547 0.0478165 -1.00561 
-0.0109898 0.0341369 -1.00545 
-0.0098343 0.0245912 -1.0072 
-0.00976438 0.0169103 -1.00646 
-0.00853385 0.0112007 -1.00636 
-0.00761454 0.00559406 -1.00623 
-0.00735996 0.000380741 -1.00612 
-0.00584004 -0.00367251 -1.00603 
-0.00355012 -0.00639715 -1.00603 
-0.00173724 -0.00789194 -1.00602 
-0.000758886 -0.00888984 -1.00604 
-0.000618589 -0.00935054 -1.00605 
-0.000993592 -0.00888006 -1.00602 
-0.00109249 -0.00727786 -1.00609 
-0.00105391 -0.00499907 -1.00613 
-0.00110818 -0.00263092 -1.0061 
-0.00119481 -0.00120776 -1.00613 
-0.0012874 -0.000707465 -1.00619 
-0.00145752 -0.000868016 -1.00622 
-0.00158168 -0.00113829 -1.00626 
-0.00161106 -0.00130985 -1.0063 
-0.00160678 -0.00140355 -1.00634 
-0.00154967 -0.00143248 -1.00647 
-0.00147728 -0.0014335 -1.00579 
-0.00136106 -0.00149941 -1.00649 
-0.00122651 -0.00141734 -1.00646 
-0.0010628 -0.00150848 -1.0066 
-0.00086118 -0.0015031 -1.00673 
-0.000626608 -0.00162459 -1.00671 
-0.00034709 -0.00165083 -1.00609 
-0.000150941 -0.00184158 -1.00156 
0.000304481 -0.00210948 1.00193 
0.000516669 -0.00197685 1.00645 
0.000626792 -0.0017165 1.00684 
0.000891161 -0.00171461 1.00755 
0.00110139 -0.00158365 1.00654 
0.00125314 -0.00162913 1.00645 
0.00135057 -0.00155835 1.00579 
0.0015341 -0.00158108 1.00719 
0.00156126 -0.00151064 1.00579 
0.00163611 -0.0014761 1.00637 
0.00167878 -0.00138603 1.00631 
0.00163771 -0.00119029 1.00626 
0.0016468 -0.000934505 1.00625 
0.00156014 -0.000859831 1.00617 
0.001556 -0.00131343 1.00615 
0.00164314 -0.00288879 1.00612 
0.00157424 -0.0048977 1.00604 
0.00156682 -0.00722508 1.00602 
0.00146954 -0.00860849 1.00605 
0.00115461 -0.009117 1.00605 
0.000986409 -0.00852238 1.00603 
0.00120597 -0.00727362 1.00604 
0.00253816 -0.00578762 1.00598 
0.00503783 -0.004269 1.00596 
0.00760019 -0.00219106 1.00597 
0.00908274 0.00153665 1.00606 
0.0101596 0.00632487 1.00622 
0.0120908 0.0119473 1.00635 
0.0137504 0.0188638 1.00644 
0.0162805 0.0263482 1.00643 
0.0225226 0.0355431 1.00618 
0.0329314 0.0475421 1.00532 
0.0534437 0.0603146 1.00374 
0.0826123 0.0690042 1.00161 
0.12238 0.0982059 0.992747 
0.178771 0.125445 0.980316 
0.219773 0.254393 0.94234 
0.284658 0.459067 0.845448 
0.115652 0.762942 0.652623 
0.0416812 0.979296 -0.199713 
-0.249146 0.637304 -0.730694 
-0.311509 0.347793 -0.88519 
-0.239108 0.313735 -0.92059 
-0.197899 0.158423 -0.971415 
-0.128849 0.107748 -0.990309 
-0.0844534 0.0629985 -1.00117 
-0.0517091 0.0558076 -1.00381 
-0.0333693 0.0454942 -1.00554 
-0.0227322 0.035176 -1.00628 
-0.0159815 0.029143 -1.00644 
-0.0149257 0.0209023 -1.00654 
-0.0130344 0.016148 -1.00573 
-0.0112533 0.00922697 -1.00643 
-0.0092976 0.00435241 -1.00625 
-0.00838005 -0.000510622 -1.00608 
-0.00654392 -0.00337006 -1.006 
-0.00383876 -0.00563556 -1.00598 
-0.00184074 -0.0070398 -1.00596 
-0.00100377 -0.0084705 -1.006 
-0.00108244 -0.00917906 -1.00602 
-0.00140595 -0.00903737 -1.00603 
-0.00166971 -0.00787145 -1.00609 
-0.00160517 -0.00601128 -1.00612 
-0.00155981 -0.00375701 -1.00611 
-0.00154481 -0.00190149 -1.00615 
-0.00152979 -0.000920004 -1.0062 
-0.00158348 -0.000778965 -1.00614 
-0.00165003 -0.0010287 -1.00625 
-0.00171189 -0.00127685 -1.0063 
-0.00167974 -0.0014447 -1.00637 
-0.00163938 -0.00153873 -1.00713 
-0.00152036 -0.00153842 -1.00659 
-0.00142389 -0.00161063 -1.00656 
-0.00122285 -0.00161646 -1.00652 
-0.00107524 -0.0017182 -1.00659 
-0.000885083 -0.0016963 -1.00671 
-0.000733573 -0.0018532 -1.00676 
-0.000465121 -0.00187551 -1.00645 
-0.000227337 -0.00208903 -1.00162 
0.000242417 -0.00243384 1.00182 
0.000524872 -0.00224175 1.0063 
0.000748186 -0.00190728 1.00694 
0.000979336 -0.00204243 1.00678 
0.00110896 -0.00182523 1.00675 
0.00129851 -0.00181411 1.00636 
0.00148322 -0.0017235 1.00656 
0.00164428 -0.00171502 1.00646 
0.00170214 -0.00159314 1.00649 
0.00182515 -0.0015627 1.00638 
0.0018588 -0.00137427 1.00641 
0.00186629 -0.00114458 1.00618 
0.00195037 -0.0010161 1.00626 
0.0019075 -0.00113105 1.00664 
0.00201587 -0.00202811 1.00546 
0.00223748 -0.00387725 1.00671 
0.00223739 -0.00598293 1.00543 
0.00235351 -0.00767618 1.00662 
0.00228195 -0.00880315 1.0054 
0.00219252 -0.00908676 1.00593 
0.00203319 -0.00837748 1.00594 
0.0024412 -0.00714445 1.00591 
0.00353827 -0.00557078 1.00593 
0.00609095 -0.00441857 1.00591 
0.00891926 -0.00299672 1.00594 
0.0107518 -0.000380654 1.00606 
0.0117705 0.00414593 1.00625 
0.0138425 0.00980536 1.00642 
0.0161902 0.016504 1.00656 
0.0198891 0.0230635 1.00669 
0.0276585 0.0297276 1.00662 
0.0380404 0.0374441 1.0061 
0.0563883 0.0410436 1.00545 
0.0866503 0.0375686 1.00269 
0.131682 0.0504036 0.995933 
0.196205 0.0652946 0.982036 
0.282603 0.164179 0.949975 
0.408971 0.405226 0.819557 
0.296107 0.788555 0.542855 
-0.121558 0.986978 -0.00576572 
-0.403425 0.651963 -0.641907 
-0.410874 0.266187 -0.872176 
-0.255521 0.092086 -0.967226 
-0.166367 0.0360932 -0.990148 
-0.128179 0.049199 -0.996748 
-0.0837361 0.0241281 -1.00384 
-0.060157 0.038117 -1.00506 
-0.0378345 0.0345743 -1.00664 
-0.0264868 0.0279898 -1.00668 
-0.0189355 0.023301 -1.00678 
-0.0163712 0.0153264 -1.00669 
-0.0146354 0.00983775 -1.0066 
-0.0116726 0.00323011 -1.00642 
-0.0102617 -0.000149428 -1.00614 
-0.00889813 -0.00280441 -1.00594 
-0.00598055 -0.00446581 -1.00597 
-0.00361857 -0.00595448 -1.00594 
-0.00228967 -0.00749478 -1.0059 
-0.00199658 -0.00878059 -1.00599 
-0.00218253 -0.00923945 -1.00656 
-0.0022792 -0.00882892 -1.00537 
-0.00237931 -0.00754019 -1.00671 
-0.00228274 -0.00566681 -1.00615 
-0.00215587 -0.0035235 -1.00614 
-0.00204587 -0.00177387 -1.00615 
-0.00195295 -0.00103828 -1.00618 
-0.00188542 -0.000965485 -1.00546 
-0.00188131 -0.0011821 -1.00619 
-0.00190152 -0.00138009 -1.00691 
-0.00180933 -0.0015624 -1.00568 
-0.00175345 -0.00169455 -1.00645 
-0.00160182 -0.00171437 -1.00658 