# vtk DataFile Version 3.0 
Exported using Morpho https://github.com/Morpho-lang/morpho 
ASCII 
DATASET UNSTRUCTURED_GRID 

POINTS 1978 float 
-8.48528 -2.82843 -1.43973e-22 
-8.29564 -2.82843 -1.8454e-22 
-8.09943 -2.82843 1.69273e-22 
-7.77767 -2.82843 -9.38781e-22 
-7.50078 -2.82843 -1.57983e-21 
-7.21597 -2.82843 -1.25023e-21 
-6.99903 -2.82843 -6.87274e-22 
-6.78457 -2.82843 6.23397e-23 
-6.58034 -2.82843 7.12696e-22 
-6.37877 -2.82843 5.0018e-24 
-6.1407 -2.82843 2.1653e-23 
-5.94075 -2.82843 5.41596e-22 
-5.70147 -2.82843 3.45409e-22 
-5.50287 -2.82843 -5.45651e-22 
-5.29245 -2.82843 -1.70753e-21 
-5.07745 -2.82843 -2.0219e-21 
-4.8492 -2.82843 -1.15476e-21 
-4.65931 -2.82843 -2.40678e-21 
-4.42991 -2.82843 -3.87596e-21 
-4.22278 -2.82843 -3.00955e-21 
-3.99691 -2.82843 -4.21118e-22 
-3.79413 -2.82843 2.2834e-21 
-3.59419 -2.82843 8.59086e-21 
-3.37848 -2.82843 2.0039e-20 
-3.17009 -2.82843 2.38691e-20 
-2.96259 -2.82843 2.56854e-20 
-2.75354 -2.82843 3.40522e-20 
-2.53942 -2.82843 3.79962e-20 
-2.33181 -2.82843 2.78082e-20 
-2.12583 -2.82843 -1.67504e-21 
-1.89811 -2.82843 -5.38341e-20 
-1.7027 -2.82843 -1.20816e-19 
-1.49399 -2.82843 -1.02771e-19 
-1.27431 -2.82843 -4.38402e-20 
-1.06621 -2.82843 1.74413e-19 
-0.81616 -2.82843 2.0605e-19 
-0.629146 -2.82843 3.59638e-19 
-0.429767 -2.82843 8.0389e-19 
-0.200055 -2.82843 8.48113e-19 
-0.00606802 -2.82843 6.55786e-19 
0.236592 -2.82843 4.2253e-19 
0.441136 -2.82843 4.25763e-19 
0.657827 -2.82843 7.49579e-19 
0.868952 -2.82843 6.39273e-19 
1.09172 -2.82843 3.62009e-19 
1.29747 -2.82843 1.91248e-19 
1.50174 -2.82843 1.39232e-19 
1.7088 -2.82843 6.91645e-20 
1.90209 -2.82843 2.58869e-20 
2.1292 -2.82843 -1.74495e-20 
2.33963 -2.82843 -2.1246e-20 
2.54424 -2.82843 -1.6001e-20 
2.76791 -2.82843 -7.10739e-21 
2.97733 -2.82843 4.38174e-21 
3.1941 -2.82843 1.4494e-20 
3.3955 -2.82843 1.3627e-20 
3.61081 -2.82843 1.11689e-20 
3.81086 -2.82843 1.00399e-20 
4.02273 -2.82843 5.92944e-21 
4.24725 -2.82843 1.48112e-21 
4.44034 -2.82843 5.48216e-22 
4.64836 -2.82843 3.11633e-22 
4.85954 -2.82843 4.16442e-22 
5.0621 -2.82843 3.9512e-22 
5.28765 -2.82843 2.81227e-22 
5.49469 -2.82843 2.37419e-22 
5.69321 -2.82843 1.82283e-22 
5.91641 -2.82843 3.51288e-22 
6.13725 -2.82843 4.52958e-22 
6.33556 -2.82843 2.86063e-22 
6.59245 -2.82843 -2.72236e-23 
6.7949 -2.82843 4.20806e-23 
6.99978 -2.82843 8.86279e-22 
7.26474 -2.82843 1.4821e-22 
7.50297 -2.82843 -1.1101e-21 
7.75804 -2.82843 -4.54036e-22 
8.02162 -2.82843 1.64757e-22 
8.20004 -2.82843 2.31211e-21 
8.48528 -2.82843 2.26591e-21 
-8.48528 -2.61281 5.56288e-22 
-8.23153 -2.5676 -2.51274e-22 
-8.02714 -2.50907 7.84789e-24 
-7.88203 -2.66098 -2.56482e-23 
-7.58478 -2.63079 4.16621e-22 
-7.27445 -2.63764 9.47395e-22 
-7.00763 -2.59162 1.65874e-21 
-6.78828 -2.5767 4.43133e-22 
-6.57461 -2.57577 -2.52707e-23 
-6.33584 -2.61731 3.43558e-22 
-6.1294 -2.57652 2.53289e-22 
-5.89431 -2.61661 -3.04949e-22 
-5.68861 -2.57164 -3.52359e-22 
-5.47675 -2.58736 4.38551e-22 
-5.25747 -2.59389 1.37054e-21 
-5.03121 -2.60879 1.639e-21 
-4.83516 -2.5653 -1.15448e-21 
-4.61354 -2.61242 -9.64503e-22 
-4.40062 -2.59044 1.74461e-21 
-4.17849 -2.61023 3.65997e-21 
-3.9699 -2.58442 1.79698e-21 
-3.76768 -2.58004 4.26492e-22 
-3.55078 -2.59728 -1.45391e-21 
-3.3385 -2.5881 -5.69658e-21 
-3.12539 -2.58715 -5.64597e-21 
-2.91298 -2.5899 -8.71919e-21 
-2.69537 -2.5959 -2.23179e-20 
-2.48039 -2.58879 -3.2982e-20 
-2.2684 -2.58625 -4.39181e-20 
-2.04422 -2.60844 -3.48496e-20 
-1.83439 -2.57075 6.86265e-21 
-1.63094 -2.58574 6.2221e-20 
-1.41309 -2.59343 9.08529e-20 
-1.20661 -2.57869 3.16165e-20 
-0.976153 -2.61997 -2.25696e-19 
-0.778674 -2.55302 3.2816e-19 
-0.589417 -2.57674 -4.85637e-19 
-0.422136 -2.52635 -8.12105e-19 
-0.256639 -2.62281 -1.88964e-20 
-0.0383371 -2.5873 1.33033e-19 
0.166457 -2.63636 -2.09503e-19 
0.412667 -2.58475 1.08353e-19 
0.622894 -2.59526 -4.62872e-19 
0.840883 -2.58479 -2.24206e-19 
1.06454 -2.5973 -1.41184e-19 
1.29207 -2.58304 -9.02796e-20 
1.51509 -2.58693 -6.04222e-20 
1.71634 -2.57153 -4.6936e-20 
1.94734 -2.6111 3.05268e-21 
2.17389 -2.59465 6.6676e-22 
2.39081 -2.58905 -2.40852e-21 
2.61246 -2.60876 -3.03913e-21 
2.83278 -2.59206 -4.18151e-21 
3.04895 -2.59935 -9.18291e-21 
3.25827 -2.58071 -1.3086e-20 
3.4717 -2.59756 -6.77506e-21 
3.67815 -2.58041 -6.52516e-21 
3.89062 -2.59502 -5.18459e-21 
4.11264 -2.60844 -6.66746e-22 
4.31999 -2.57134 1.08775e-21 
4.52703 -2.59114 6.52235e-22 
4.73946 -2.59501 -4.7778e-23 
4.95092 -2.5844 -1.5617e-22 
5.16777 -2.60938 1.29872e-22 
5.38786 -2.5888 3.0921e-22 
5.59423 -2.57691 2.50221e-22 
5.80922 -2.60405 1.24919e-22 
6.03527 -2.59928 -1.09527e-22 
6.24987 -2.56968 -2.86721e-22 
6.46915 -2.62661 -3.21447e-22 
6.69506 -2.56805 -4.35771e-22 
6.90029 -2.56687 -2.29821e-22 
7.1302 -2.62492 -9.93929e-22 
7.38374 -2.60021 2.25991e-23 
7.62999 -2.61614 1.01019e-21 
7.88722 -2.62213 1.20559e-22 
8.08808 -2.52046 -1.31115e-22 
8.30284 -2.62613 2.32106e-21 
8.48528 -2.53747 -8.09831e-21 
-8.48528 -2.38655 3.08997e-22 
-8.23196 -2.32891 -3.59745e-22 
-7.95911 -2.29 3.41731e-22 
-7.7477 -2.4466 -1.35523e-22 
-7.58044 -2.28784 1.59776e-22 
-7.424 -2.46165 8.9845e-22 
-7.15585 -2.40478 1.27723e-21 
-6.92506 -2.34977 -2.44695e-24 
-6.6915 -2.33715 -1.24584e-22 
-6.44504 -2.38228 -1.63843e-22 
-6.23817 -2.35009 -1.55941e-22 
-5.99638 -2.38186 -1.3804e-22 
-5.79111 -2.34606 3.65112e-23 
-5.56396 -2.33863 5.35246e-22 
-5.35023 -2.36103 8.49919e-22 
-5.12421 -2.37722 7.45213e-22 
-4.92543 -2.33228 7.11911e-22 
-4.69258 -2.37107 1.38789e-21 
-4.48506 -2.36785 2.93907e-21 
-4.25588 -2.3798 3.04336e-21 
-4.04693 -2.35837 1.84361e-21 
-3.83142 -2.33569 1.17539e-21 
-3.61751 -2.36346 -2.11983e-22 
-3.40219 -2.35338 -5.36522e-21 
-3.18603 -2.35304 -1.39379e-20 
-2.96803 -2.35174 -2.41903e-20 
-2.75296 -2.36355 -3.81814e-20 
-2.53553 -2.35775 -5.60004e-20 
-2.31721 -2.35007 -5.06859e-20 
-2.09562 -2.3776 -2.12689e-20 
-1.88209 -2.34069 5.81017e-20 
-1.6617 -2.3331 9.36774e-20 
-1.46034 -2.3613 4.51015e-20 
-1.24423 -2.3283 -6.72485e-20 
-1.03712 -2.38544 -1.58709e-20 
-0.837064 -2.32337 -8.28946e-19 
-0.625964 -2.30874 -9.47366e-19 
-0.40029 -2.31332 -1.745e-18 
-0.190231 -2.3938 -1.0624e-18 
0.0242848 -2.37083 -4.59558e-19 
0.230032 -2.4353 1.88052e-18 
0.442025 -2.34655 1.17903e-18 
0.630199 -2.35345 7.76812e-19 
0.799945 -2.30565 2.97087e-19 
0.991002 -2.36111 -7.58413e-20 
1.20215 -2.35535 -4.45526e-21 
1.42161 -2.35786 2.22589e-20 
1.63029 -2.31657 -2.37318e-22 
1.84427 -2.36986 3.25642e-20 
2.05808 -2.37985 1.00638e-20 
2.28536 -2.36173 1.5652e-20 
2.51081 -2.37104 1.26533e-20 
2.723 -2.37566 1.01048e-20 
2.94902 -2.36284 4.04407e-21 
3.15486 -2.35151 -1.29774e-21 
3.37661 -2.35598 -6.2009e-21 
3.57949 -2.34509 -6.63656e-21 
3.79582 -2.35515 -6.57604e-21 
4.01287 -2.37608 -4.5784e-21 
4.21656 -2.3503 -6.27548e-22 
4.4425 -2.34451 9.08939e-22 
4.64979 -2.35688 7.26407e-22 
4.85802 -2.35407 1.09958e-23 
5.08087 -2.36705 -7.05084e-22 
5.28874 -2.37098 -9.95736e-22 
5.50502 -2.33813 -9.53545e-22 
5.72663 -2.36012 -9.0627e-22 
5.94092 -2.37528 -1.2205e-21 
6.15791 -2.34472 -1.01588e-21 
6.39995 -2.37101 -3.35511e-22 
6.6017 -2.36097 -7.15074e-23 
6.83429 -2.30846 2.50399e-22 
7.06058 -2.37414 -1.08815e-22 
7.28307 -2.39696 -8.45605e-23 
7.54664 -2.38836 3.91649e-22 
7.785 -2.40659 1.10338e-22 
7.99008 -2.3026 5.01434e-23 
8.25369 -2.34701 1.26057e-21 
8.48528 -2.31741 -4.91331e-23 
-8.48528 -2.15387 -1.03396e-21 
-8.26943 -2.10319 6.05988e-22 
-8.04246 -2.08164 8.52229e-22 
-7.7647 -2.13785 3.96692e-22 
-7.49295 -2.06687 -2.23143e-22 
-7.31539 -2.23494 9.21167e-22 
-7.08162 -2.14243 -2.0237e-22 
-6.84599 -2.12654 -5.47581e-22 
-6.57994 -2.1469 -5.55144e-22 
-6.37291 -2.11981 -3.3327e-22 
-6.13662 -2.14762 -3.66771e-23 
-5.93434 -2.12128 5.56555e-23 
-5.70587 -2.12021 -1.2053e-22 
-5.47601 -2.11046 -1.84974e-22 
-5.25599 -2.14572 8.57791e-24 
-5.05819 -2.10715 3.95638e-22 
-4.82145 -2.13494 1.29804e-21 
-4.61302 -2.12947 2.14446e-21 
-4.39418 -2.15336 2.42956e-21 
-4.19118 -2.13211 9.85778e-22 
-3.98264 -2.11912 2.74645e-22 
-3.76195 -2.10942 2.37905e-22 
-3.55632 -2.12746 -2.09994e-21 
-3.34071 -2.11938 -8.94064e-21 
-3.12543 -2.12217 -1.20458e-20 
-2.90948 -2.11939 -1.21954e-20 
-2.69565 -2.13129 -1.33961e-20 
-2.47723 -2.12581 -3.46693e-21 
-2.24881 -2.13065 3.09343e-20 
-2.03929 -2.13331 6.82279e-20 
-1.81387 -2.11109 6.79893e-20 
-1.60474 -2.08768 3.99358e-20 
-1.40133 -2.1257 -5.4936e-20 
-1.21884 -2.047 -2.29728e-19 
-1.04341 -2.1418 -3.90319e-19 
-0.817995 -2.10212 -1.80397e-18 
-0.610709 -2.07972 -2.78412e-18 
-0.417593 -2.11632 -3.62794e-18 
-0.176142 -2.19144 -2.43393e-18 
0.0377766 -2.16434 -3.42915e-19 
0.240358 -2.22842 4.22097e-20 
0.392338 -2.10185 3.58939e-18 
0.583649 -2.09612 2.42319e-18 
0.780517 -2.07593 1.21831e-18 
0.990123 -2.11726 5.72139e-19 
1.19922 -2.1206 6.49283e-20 
1.41566 -2.1234 -5.57196e-20 
1.64368 -2.09066 3.9276e-20 
1.86693 -2.13578 -7.13523e-21 
2.09506 -2.1594 1.93724e-20 
2.32704 -2.14256 1.28931e-20 
2.54399 -2.13575 6.25565e-21 
2.76423 -2.15348 -7.58505e-22 
2.96979 -2.11691 -4.48234e-21 
3.19068 -2.12795 -6.48072e-21 
3.39384 -2.10948 -3.4207e-21 
3.61073 -2.11639 -9.22451e-22 
3.82909 -2.12982 -7.24764e-22 
4.03246 -2.12889 -2.81269e-22 
4.26221 -2.13207 -6.04031e-22 
4.47618 -2.10757 -4.74387e-22 
4.68443 -2.11702 -5.4564e-22 
4.90667 -2.13342 -1.07307e-22 
5.11785 -2.1264 5.79446e-23 
5.32768 -2.13362 -2.45235e-22 
5.56325 -2.11841 -1.24611e-23 
5.77923 -2.12795 4.20849e-22 
5.99113 -2.13387 -1.23876e-22 
6.24146 -2.14155 -6.96629e-22 
6.44728 -2.10959 -5.97148e-23 
6.66163 -2.12072 3.65239e-22 
6.928 -2.10168 4.50443e-22 
7.14323 -2.14082 6.20387e-23 
7.37779 -2.18886 6.32186e-23 
7.56826 -2.09823 2.93362e-23 
7.74964 -2.17097 4.73793e-23 
7.95474 -2.06134 2.16437e-23 
8.20006 -2.1443 -5.00477e-22 
8.48528 -2.09968 9.75983e-22 
-8.48528 -1.84528 -3.21102e-21 
-8.30653 -1.87051 -1.26417e-21 
-7.91 -1.90879 7.38884e-22 
-7.67989 -1.9057 -2.24871e-22 
[...]
POINT_DATA 1978 
VECTORS vectors float
-0.000173165 -0.00496013 0.999988 
-0.00111878 -0.0084937 0.999963 
0.000392392 -0.00174554 0.999998 
-0.000446598 0.0107953 0.999942 
0.000152931 0.0194683 0.99981 
0.000486456 0.0248422 0.999691 
0.000151728 0.0308018 0.999526 
-0.000125367 0.0310262 0.999519 
-0.000123469 0.0317793 0.999495 
0.00022208 0.027155 0.999631 
0.000100945 0.0272483 0.999629 
5.07233e-05 0.0294084 0.999567 
0.000175322 0.0409805 0.99916 
-6.78846e-05 0.0469996 0.998895 
-0.000115284 0.056188 0.99842 
-0.000157695 0.0640398 0.997947 
-0.000155863 0.0771329 0.997021 
-3.22101e-05 0.0803721 0.996765 
-0.000112119 0.0899985 0.995942 
-9.01835e-05 0.0967664 0.995307 
6.73804e-05 0.106762 0.994285 
-9.20159e-05 0.116355 0.993208 
1.33591e-05 0.125824 0.992053 
0.000144661 0.145775 0.989318 
-5.13746e-05 0.170309 0.985391 
0.000200131 0.186008 0.982548 
0.000269546 0.198055 0.980191 
4.06178e-05 0.216709 0.976236 
4.60039e-05 0.240439 0.970664 
-2.64521e-05 0.275546 0.961288 
-0.000146807 0.328798 0.9444 
-0.000152491 0.395407 0.918506 
-0.000187655 0.464385 0.885634 
-0.000228152 0.55037 0.834921 
-0.000307443 0.633563 0.773691 
-0.000340178 0.746635 0.665234 
-0.000104399 0.841728 0.539901 
-0.0001087 0.924082 0.382194 
-0.000123408 0.981101 0.193497 
5.15405e-05 0.999983 0.00577243 
-0.000113996 0.978669 -0.205443 
5.2104e-05 0.921202 -0.389085 
0.000340044 0.840347 -0.542048 
0.000474929 0.739112 -0.673582 
0.000312538 0.635772 -0.771877 
0.000129183 0.543291 -0.839544 
0.000239008 0.466798 -0.884364 
0.000221192 0.398747 -0.917061 
0.000222323 0.342739 -0.939431 
0.000394323 0.284166 -0.958775 
0.000378381 0.242806 -0.970075 
0.000164307 0.214463 -0.976732 
2.21346e-05 0.19274 -0.98125 
1.05097e-07 0.176136 -0.984366 
-0.00011633 0.156179 -0.987729 
-0.000220088 0.136074 -0.990699 
-0.000227503 0.121777 -0.992557 
0.000128073 0.10542 -0.994428 
0.000147302 0.0915386 -0.995802 
-0.000166429 0.0849759 -0.996383 
0.000139573 0.0836763 -0.996493 
0.000203557 0.0792315 -0.996856 
-8.74792e-05 0.0692889 -0.997597 
1.08898e-06 0.0616347 -0.998099 
2.71344e-05 0.0552659 -0.998472 
-3.09294e-05 0.049805 -0.998759 
-4.52798e-05 0.0444113 -0.999013 
-0.000195141 0.0376893 -0.999289 
5.15443e-06 0.0252554 -0.999681 
9.47225e-05 0.0142742 -0.999898 
-0.000179825 0.00719588 -0.999974 
0.00012452 0.0088388 -0.999961 
0.000345783 0.0169018 -0.999857 
0.000344955 0.0261955 -0.999657 
0.000250043 0.0229196 -0.999737 
8.50999e-06 0.0101489 -0.999948 
0.000475521 0.0106902 -0.999943 
0.000352329 0.0145901 -0.999893 
0.000239502 0.0348422 -0.999393 
-0.0139387 -0.00155481 0.999902 
-0.00758408 -0.00229082 0.999969 
-0.000820135 0.0030401 0.999995 
0.00284165 0.00667729 0.999974 
0.00921526 0.0135779 0.999865 
0.0107616 0.0202178 0.999738 
0.010025 0.0241079 0.999659 
0.00818226 0.0243755 0.999669 
0.00574569 0.0249353 0.999673 
0.00199284 0.0258403 0.999664 
-0.000676174 0.0277883 0.999614 
-0.001856 0.0318658 0.99949 
-0.00138615 0.038358 0.999263 
0.00120748 0.0459648 0.998942 
0.00321467 0.0541426 0.998528 
0.00246086 0.0621442 0.998064 
0.00235152 0.0684745 0.99765 
0.00292414 0.077478 0.99699 
0.00467207 0.0850312 0.996367 
0.00323316 0.0930408 0.995657 
0.000922117 0.100114 0.994976 
-0.00143286 0.11034 0.993893 
-0.00363667 0.125668 0.992066 
-0.0057678 0.145354 0.989363 
-0.0073139 0.165284 0.986219 
-0.0086978 0.181061 0.983433 
-0.009061 0.196955 0.980371 
-0.00651268 0.218685 0.975774 
-0.00166578 0.249762 0.968306 
0.00163625 0.295057 0.955478 
0.00375469 0.351499 0.936181 
0.00388784 0.41644 0.909155 
0.00230402 0.49382 0.869561 
-9.19114e-05 0.577469 0.816412 
-0.00100739 0.677593 0.735436 
-0.0017618 0.771429 0.636313 
-0.00284779 0.858721 0.512435 
-0.00463859 0.922697 0.385497 
-0.00379721 0.970487 0.241125 
-0.00290249 0.998801 0.0488637 
-0.00156354 0.989742 -0.142854 
-0.00286545 0.936921 -0.349528 
-0.00455652 0.85654 -0.51606 
-0.00555985 0.753696 -0.6572 
-0.00436836 0.64582 -0.763478 
-0.00311909 0.543729 -0.839255 
-0.00262439 0.458595 -0.888641 
-0.00222371 0.389009 -0.921231 
-0.000479052 0.32391 -0.946088 
0.0013127 0.273238 -0.961946 
0.00254377 0.235906 -0.971773 
0.00248363 0.207964 -0.978133 
0.0011236 0.186697 -0.982417 
-0.00243576 0.166943 -0.985964 
-0.00571581 0.147245 -0.989084 
-0.00588477 0.130294 -0.991458 
-0.00582084 0.116589 -0.993163 
-0.00588644 0.10177 -0.994791 
-0.00415643 0.0889189 -0.99603 
-0.00168194 0.0820957 -0.996623 
-0.00019788 0.0774907 -0.996993 
-0.000641469 0.070947 -0.99748 
-0.000997382 0.063097 -0.998007 
-0.000705616 0.0568477 -0.998383 
-0.000917807 0.0514239 -0.998676 
-0.000852127 0.0465266 -0.998917 
-0.000439531 0.0403185 -0.999187 
-0.00120353 0.0310428 -0.999517 
-0.00244444 0.0222247 -0.99975 
-0.00171305 0.0136713 -0.999905 
0.000652401 0.0124681 -0.999922 
0.00460848 0.0134871 -0.999898 
0.00690026 0.0179026 -0.999816 
0.00810771 0.01737 -0.999816 
0.00600766 0.0115055 -0.999916 
0.00508682 0.00726152 -0.999961 
0.00560889 0.00713258 -0.999959 
0.0078541 0.012687 -0.999889 
0.0199067 0.00647585 -0.999781 
-0.0145427 -0.00989279 0.999845 
-0.00646062 -0.00103352 0.999979 
0.00431942 0.00436722 0.999981 
0.0100724 0.00695292 0.999925 
0.0171814 0.00766303 0.999823 
0.0173426 0.0133734 0.99976 
0.0168849 0.0180354 0.999695 
0.0125198 0.0176913 0.999765 
0.00750328 0.017902 0.999812 
0.00130995 0.0214837 0.999768 
-0.00231979 0.0240666 0.999708 
-0.00285549 0.0286816 0.999585 
-0.00260952 0.0333872 0.999439 
-0.000299983 0.0406706 0.999173 
0.00288857 0.0482069 0.998833 
0.0039787 0.0545275 0.998504 
0.00414813 0.0591556 0.99824 
0.00611059 0.0680957 0.99766 
0.00853456 0.0749993 0.997147 
0.00689007 0.0822759 0.996586 
0.00295406 0.0889938 0.996028 
-0.00097334 0.100028 0.994984 
-0.00496058 0.116345 0.993196 
-0.00973678 0.134534 0.990861 
-0.0125757 0.152248 0.988262 
-0.0138489 0.168763 0.985559 
-0.0137658 0.186267 0.982403 
-0.00948286 0.208741 0.977925 
-0.00102643 0.241185 0.970478 
0.00447949 0.285029 0.958508 
0.00689099 0.338165 0.941062 
0.0063989 0.404048 0.914716 
0.00405347 0.471932 0.881626 
0.000136615 0.553763 0.832675 
-0.00232175 0.649184 0.760628 
-0.00284746 0.743965 0.668213 
-0.00336698 0.839983 0.542602 
-0.00505772 0.928974 0.37011 
-0.00543743 0.983092 0.183031 
-0.00500441 0.999825 -0.0179983 
-0.00415936 0.977755 -0.209711 
-0.00635693 0.920647 -0.390344 
-0.00746615 0.848696 -0.528828 
-0.00899685 0.771091 -0.636662 
-0.0082803 0.681252 -0.732002 
-0.00656603 0.586995 -0.809564 
-0.00473332 0.498694 -0.866765 
-0.00408286 0.416713 -0.909029 
-0.00262618 0.350862 -0.936423 
0.000146157 0.297427 -0.954745 
0.00374474 0.252376 -0.967622 
0.00545023 0.218962 -0.975718 
0.00463163 0.196175 -0.980558 
0.000210034 0.175384 -0.9845 
-0.00505886 0.155838 -0.98777 
-0.0083458 0.135536 -0.990737 
-0.00842152 0.120416 -0.992688 
-0.0084055 0.10651 -0.994276 
-0.0080414 0.0937037 -0.995568 
-0.00523049 0.0839235 -0.996458 
-0.00224036 0.0751777 -0.997168 
-0.00149787 0.0681769 -0.997672 
-0.00155985 0.0614304 -0.99811 
-0.00190704 0.0558995 -0.998435 
-0.00288107 0.0510874 -0.99869 
-0.00292774 0.0459099 -0.998941 
-0.00133286 0.0416341 -0.999132 
-0.00161405 0.0361458 -0.999345 
-0.00322328 0.0300974 -0.999542 
-0.00284995 0.0230135 -0.999731 
0.000273839 0.0187748 -0.999824 
0.00725719 0.0162358 -0.999842 
0.011558 0.0145114 -0.999828 
0.0120767 0.0130749 -0.999842 
0.00882575 0.00766899 -0.999932 
0.00678186 0.0045288 -0.999967 
0.00492793 0.00406892 -0.99998 
0.00320632 0.00287925 -0.999991 
-0.0025198 -0.00715076 -0.999971 
-0.00221739 -0.00419553 0.999989 
-0.00470211 0.00188352 0.999987 
0.00104537 0.00682099 0.999976 
0.0120361 0.00738849 0.9999 
0.0193641 0.00794801 0.999781 
0.0201993 0.0118053 0.999726 
0.0150407 0.0114975 0.999821 
0.00808485 0.0113152 0.999903 
0.00164651 0.0152502 0.999882 
-0.0029346 0.0189642 0.999816 
-0.00363019 0.0250467 0.99968 
-0.00313877 0.030547 0.999528 
-0.00267379 0.0364864 0.999331 
-0.00104944 0.0424017 0.9991 
0.00160773 0.0481545 0.998839 
0.00239929 0.0519778 0.998645 
0.00526637 0.0589327 0.998248 
0.00827772 0.064859 0.99786 
0.00889658 0.0713258 0.997413 
0.00492507 0.0768652 0.997029 
0.000303561 0.0863426 0.996265 
-0.00370011 0.100828 0.994897 
-0.00848175 0.117526 0.993034 
-0.0136616 0.133807 0.990913 
-0.0143219 0.14975 0.98862 
-0.0116629 0.167063 0.985877 
-0.00804923 0.187879 0.982159 
-0.000883407 0.214731 0.976673 
0.00679102 0.251983 0.967708 
0.00911411 0.295394 0.955332 
0.00735021 0.354122 0.93517 
0.00542028 0.418739 0.90809 
0.00289741 0.490559 0.871403 
0.00110455 0.559868 0.828581 
-0.0016221 0.636369 0.771383 
-0.000204126 0.745261 0.666773 
0.00210459 0.843265 0.537494 
0.00122421 0.923541 0.383499 
-0.00336137 0.986247 0.165242 
-0.0085365 0.998874 -0.0466685 
-0.0109369 0.969993 -0.242885 
-0.0183325 0.930417 -0.366044 
-0.0170102 0.862931 -0.505036 
-0.0157704 0.779972 -0.625616 
-0.0115563 0.68477 -0.728668 
-0.00873939 0.585192 -0.810848 
-0.00620466 0.494304 -0.869267 
-0.00505494 0.405906 -0.913901 
-0.00329947 0.33959 -0.940568 
0.000324485 0.286752 -0.958005 
0.00497152 0.242896 -0.97004 
0.00654038 0.211294 -0.977401 
0.00387741 0.188935 -0.981982 
-0.00126854 0.170146 -0.985418 
-0.00638735 0.150292 -0.988621 
-0.00816826 0.131608 -0.991268 
-0.00728501 0.114882 -0.993352 
-0.00687191 0.100582 -0.994905 
-0.00670787 0.0884251 -0.99606 
-0.00558374 0.0768226 -0.997029 
-0.00443209 0.0662538 -0.997793 
-0.0028385 0.0588222 -0.998264 
-0.00119804 0.0540219 -0.998539 
-0.000844326 0.0504359 -0.998727 
-0.00154605 0.0464362 -0.99892 
0.000506872 0.0414228 -0.999142 
0.00338608 0.038135 -0.999267 
0.00307169 0.0346782 -0.999394 
-0.00038065 0.0294202 -0.999567 
0.000327293 0.0238975 -0.999714 
0.00349705 0.0194951 -0.999804 
0.00982937 0.0151915 -0.999836 
0.0125525 0.0115166 -0.999855 
0.0107891 0.00737887 -0.999915 
0.00836447 0.0021801 -0.999963 
0.00681221 0.00161931 -0.999975 
0.00530732 0.00108419 -0.999985 
0.000281042 0.00423085 -0.999991 
-0.0140225 0.00296849 -0.999897 
0.00319632 0.0259641 0.999658 
-0.001928 0.016106 0.999868 
0.0052571 0.0127627 0.999905 
0.0133734 0.0121033 0.999837 
0.0176005 0.00924378 0.999802 
0.0175998 0.00683148 0.999822 
0.0115651 0.00510269 0.99992 
0.00841819 0.00583034 0.999948 
0.00174638 0.00950861 0.999953 
-0.00259415 0.0154983 0.999877 
-0.00421121 0.0220582 0.999748 
-0.00405144 0.0282397 0.999593 
-0.00316499 0.0350638 0.99938 
-0.00225964 0.0410668 0.999154 
-0.00117332 0.0449779 0.998987 
-0.000602646 0.0481176 0.998841 
0.0008637 0.0527384 0.998608 
0.00284442 0.0565274 0.998397 
0.00540148 0.0613671 0.998101 
0.00350624 0.0667179 0.997766 
-0.000286374 0.0757211 0.997129 
-0.00343438 0.0878657 0.996126 
-0.00735167 0.103424 0.99461 
-0.0119696 0.120069 0.992693 
-0.0130285 0.137369 0.990434 
-0.0090935 0.155208 0.98784 
-0.00290331 0.177819 0.984059 
0.00398408 0.203786 0.979007 
0.009641 0.236932 0.971478 
0.00993747 0.277366 0.960713 
0.00676083 0.326061 0.945325 
0.00399061 0.387714 0.921771 
0.00305009 0.465525 0.88503 
0.00419687 0.565158 0.824972 
0.00610843 0.674211 0.738514 
0.0178042 0.759799 0.649914 
0.0277145 0.842331 0.538247 
0.0311378 0.912825 0.407161 
0.0126417 0.966232 0.257364 
-0.00110404 0.997909 0.0646303 
-0.0197964 0.985806 -0.166717 
-0.0387255 0.913256 -0.405542 
-0.0389284 0.82945 -0.557222 
-0.0274223 0.734289 -0.678283 
-0.0160404 0.641448 -0.766999 
-0.0104132 0.551362 -0.834201 
-0.00780793 0.476141 -0.879334 
-0.00764825 0.411607 -0.911329 
-0.00552629 0.349066 -0.937082 
-0.00234197 0.297653 -0.954671 
0.00322155 0.252599 -0.967566 
0.00653614 0.214915 -0.976611 
0.0043782 0.187775 -0.982202 
-0.000429093 0.168893 -0.985634 
-0.00466768 0.149636 -0.98873 
-0.00625825 0.130221 -0.991465 
-0.00582577 0.115276 -0.993316 
-0.00506263 0.100573 -0.994917 
-0.0059899 0.0864191 -0.996241 
-0.00664315 0.0744543 -0.997202 
-0.00618815 0.0634407 -0.997966 
-0.00354974 0.0568454 -0.998377 
-0.000970212 0.0532013 -0.998583 
0.000419642 0.0507849 -0.99871 
0.00116288 0.0460828 -0.998937 
0.00276847 0.0404044 -0.99918 
0.00707398 0.0350177 -0.999362 
0.00906357 0.0317986 -0.999453 
0.00650937 0.0282888 -0.999579 
0.00576536 0.0216106 -0.99975 
0.00432972 0.0184021 -0.999821 
0.00598913 0.0163187 -0.999849 
0.00824627 0.0101226 -0.999915 
0.00995353 0.00513797 -0.999937 
0.0083273 -0.000493855 -0.999965 
0.00709939 -0.00258707 -0.999971 
0.00349002 0.00020225 -0.999994 
-0.00151621 0.00572821 -0.999982 
-0.0034166 0.0124911 -0.999916 
-0.0155192 0.0406137 0.999054 
-0.0104102 0.0277139 0.999562 
-0.0018429 0.0176735 0.999842 
0.00332278 0.0196991 0.9998 
0.0107274 0.0175458 0.999789 
0.0127219 0.0107648 0.999861 
0.00128782 0.00555415 0.999984 
-0.00137899 0.00790244 0.999968 
-0.00475759 0.0156544 0.999866 
-0.00518361 0.0230883 0.99972 
-0.0051206 0.0298695 0.999541 
-0.00265467 0.0359056 0.999352 
-0.000209856 0.0430359 0.999074 
-0.000119538 0.0482891 0.998833 
-0.0008997 0.0527805 0.998606 
-0.00131405 0.0525932 0.998615 
-0.00144307 0.0533555 0.998575 
-0.000175985 0.0536951 0.998557 
9.30626e-05 0.0574775 0.998347 
-0.000764878 0.0666879 0.997774 
-0.0022001 0.0788429 0.996885 
-0.00352608 0.0914499 0.995803 
-0.00550048 0.106951 0.994249 
-0.00877898 0.124411 0.992192 
-0.00795794 0.142268 0.989796 
-0.00378898 0.161511 0.986864 
0.00217668 0.184214 0.982884 
0.00868186 0.211781 0.977279 
0.0115215 0.244019 0.969702 
0.00842412 0.282594 0.959203 
0.00427938 0.328957 0.944335 
0.00298347 0.387939 0.92168 
0.0038925 0.468375 0.883521 
0.0113617 0.533592 0.845666 
0.0177628 0.625108 0.780336 
0.0425775 0.698666 0.71418 
0.0699079 0.784774 0.615827 
0.0833991 0.882325 0.463192 
0.0417573 0.971529 0.233211 
-0.00408024 0.999959 -0.00813002 
-0.0408992 0.970943 -0.235791 
-0.0753502 0.890862 -0.447982 
-0.0756751 0.800213 -0.594922 
-0.0551278 0.715015 -0.696933 
-0.0309625 0.635559 -0.771431 
-0.0184732 0.55095 -0.834334 
-0.0112332 0.472659 -0.881174 
-0.00801539 0.394846 -0.918713 
-0.00580517 0.336757 -0.941574 
-0.00251176 0.286528 -0.958069 
0.00290926 0.243051 -0.970009 
0.00627277 0.205512 -0.978634 
0.0038609 0.182363 -0.983224 
-0.00082803 0.16056 -0.987026 
-0.00407325 0.140924 -0.990012 
-0.00629691 0.122522 -0.992446 
-0.00658793 0.109046 -0.994015 
-0.00688 0.0961785 -0.99534 
-0.00805144 0.0821982 -0.996583 
-0.00807163 0.0717338 -0.997391 
-0.00556487 0.0653263 -0.997848 
-0.00252097 0.0617105 -0.998091 
-0.000930692 0.0582662 -0.998301 
0.000787242 0.0524542 -0.998623 
0.0033747 0.0435337 -0.999046 
0.00589372 0.0356516 -0.999347 
0.00899475 0.0295585 -0.999523 
0.0118346 0.025924 -0.999594 
0.0114204 0.0219584 -0.999694 
0.00835822 0.0174548 -0.999813 
0.00403265 0.0166812 -0.999853 
0.00331079 0.0143977 -0.999891 
0.00182481 0.00715099 -0.999973 
0.00531494 0.00145475 -0.999985 
0.00554205 -0.00382592 -0.999977 
0.00496535 -0.00561329 -0.999972 
0.00153397 -0.00287984 -0.999995 
-0.00022504 0.00296181 -0.999996 
0.00296372 0.000822204 -0.999995 
-0.0252501 0.0330513 0.999135 
-0.0133052 0.0258351 0.999578 
-0.00410975 0.0235322 0.999715 
0.00260925 0.022544 0.999742 
0.00788098 0.0184647 0.999798 
0.00362181 0.0142807 0.999891 
0.00344855 0.00884494 0.999955 
-0.00470634 0.00883935 0.99995 
-0.00611606 0.0115682 0.999914 
-0.00774124 0.0224682 0.999718 
-0.00724086 0.0293326 0.999543 
-0.00421415 0.0356078 0.999357 
-0.000473747 0.0424373 0.999099 
0.00121582 0.0503793 0.998729 
0.000129441 0.0564792 0.998404 
-0.0018078 0.0595899 0.998221 
-0.00346371 0.0588334 0.998262 
-0.00517009 0.0560234 0.998416 
-0.00561435 0.0564232 0.998391 
-0.00470979 0.0627315 0.998019 
-0.00368857 0.0748285 0.99719 
-0.00218376 0.0883237 0.996089 
-0.00175269 0.103333 0.994645 
-0.00409627 0.12224 0.992492 
-0.00526241 0.139953 0.990144 
-0.00323213 0.158686 0.987324 
0.00151504 0.180178 0.983633 
0.00807873 0.206451 0.978424 
0.0120779 0.237536 0.971304 
0.0099207 0.27356 0.961804 
0.00612708 0.318629 0.94786 
0.00560329 0.372584 0.927982 
0.00917411 0.443073 0.896439 
0.0260872 0.499561 0.865886 
0.0392658 0.581339 0.812713 
0.0798459 0.646653 0.758594 
0.123119 0.733297 0.668668 
0.151191 0.838488 0.523526 
0.0895047 0.958323 0.271304 
0.00667111 0.999899 0.0125555 
-0.0681101 0.964502 -0.25514 
-0.133873 0.857257 -0.497181 
-0.125489 0.742707 -0.657753 
-0.0898512 0.656278 -0.749151 
-0.0531339 0.592321 -0.803948 
-0.0301108 0.519905 -0.853693 
-0.0144465 0.453342 -0.89122 
-0.00754349 0.38803 -0.921616 
-0.00487414 0.328042 -0.944651 
-0.00287676 0.2817 -0.959498 
3.04553e-05 0.24732 -0.968934 
0.00397042 0.216722 -0.976225 
0.00305483 0.18893 -0.981986 
0.000956756 0.166825 -0.985986 
-0.00158034 0.144377 -0.989522 
-0.0050388 0.125976 -0.992021 
-0.00835531 0.109815 -0.993917 
-0.00902198 0.0968877 -0.995254 
-0.00878099 0.0860284 -0.996254 
-0.00852973 0.0777732 -0.996935 
-0.00658164 0.0724015 -0.997354 
-0.00340022 0.0691812 -0.997598 
-0.00233835 0.0663966 -0.997791 
-0.00129842 0.0588286 -0.998267 
0.00146669 0.0466785 -0.998909 
0.00500368 0.0346958 -0.999385 
0.00705785 0.02806 -0.999581 
0.00995607 0.0240253 -0.999662 
0.0112498 0.019698 -0.999743 
0.00853578 0.0162937 -0.999831 
0.00199165 0.0159355 -0.999871 
-0.000866315 0.0145952 -0.999893 
-0.00346593 0.00688833 -0.99997 
-0.00021765 -0.00102013 -0.999999 
0.000199211 -0.00595334 -0.999982 
0.00198025 -0.00795671 -0.999966 
-0.00052978 -0.00648328 -0.999979 
-0.00265479 -0.00322721 -0.999991 
-0.00361286 -0.0117918 -0.999924 
-0.025698 0.0184899 0.999499 
-0.0130699 0.0191118 0.999732 
-0.00381086 0.0232162 0.999723 
0.00129353 0.0212532 0.999773 
0.00254759 0.0191558 0.999813 
-0.00215027 0.0147723 0.999889 
-0.00391918 0.0109273 0.999933 
-0.00953882 0.0127837 0.999873 
-0.00952954 0.0179219 0.999794 
-0.0100789 0.0262666 0.999604 
-0.00775386 0.0329774 0.999426 
-0.00336055 0.0398548 0.9992 
-0.000726652 0.048175 0.998839 
-0.000347906 0.0561371 0.998423 
-0.000213912 0.0622904 0.998058 
-0.00167168 0.0645029 0.997916 
-0.00421361 0.0636852 0.997961 
-0.00523372 0.0625815 0.998026 
-0.00448704 0.0644332 0.997912 
-0.00409189 0.0716613 0.997421 
-0.0038513 0.0834694 0.996503 
-0.00226136 0.0973266 0.99525 
-0.00241115 0.113334 0.993554 
-0.00493566 0.13023 0.991471 
-0.00639533 0.146504 0.989189 
-0.00410875 0.163543 0.986528 
0.00132537 0.183546 0.98301 
0.00885402 0.209452 0.977779 
0.0129507 0.240712 0.97051 
0.0117595 0.277423 0.960676 
0.00998027 0.320975 0.947035 
0.0109217 0.378085 0.925706 
0.0194388 0.429476 0.902869 
0.050722 0.469046 0.881716 
0.0762009 0.542258 0.836749 
0.136883 0.58431 0.799903 
0.192164 0.667441 0.719441 
0.248842 0.770567 0.586774 
0.16274 0.933029 0.320893 
0.0155584 0.999724 0.017607 
-0.121603 0.950547 -0.285787 
-0.227623 0.780071 -0.582818 
-0.185418 0.65703 -0.730707 
-0.128346 0.574992 -0.80803 
-0.0783542 0.531373 -0.843507 
-0.0474191 0.475863 -0.87824 
-0.0219296 0.437439 -0.898981 
-0.010556 0.385307 -0.922728 
-0.00471695 0.339452 -0.940612 
-0.00396174 0.29046 -0.956879 
-0.00203071 0.246094 -0.969244 
0.00144579 0.209273 -0.977856 
0.00267791 0.179572 -0.983741 
0.00274006 0.157726 -0.987479 
0.00159757 0.13733 -0.990524 
-0.00417143 0.119186 -0.992863 
-0.00876256 0.103232 -0.994619 
-0.0094506 0.0906498 -0.995838 
-0.00848781 0.0839275 -0.996436 
-0.00761335 0.0796742 -0.996792 
-0.00594645 0.0754629 -0.997131 
-0.00371762 0.0731549 -0.997314 
-0.00281082 0.069655 -0.997567 
-0.00260227 0.0596108 -0.998218 
-0.00165479 0.0440366 -0.999029 
0.00050663 0.032964 -0.999456 
0.00380811 0.0259367 -0.999656 
0.0058372 0.022394 -0.999732 
0.00540833 0.0194277 -0.999797 
0.00160497 0.0163765 -0.999865 
-0.00513945 0.016634 -0.999848 
-0.00584865 0.0145922 -0.999876 
-0.00877001 0.0107164 -0.999904 
-0.00708533 0.00262466 -0.999971 
-0.00488501 -0.00378703 -0.999981 
-0.00161877 -0.00751669 -0.99997 
-0.00339234 -0.00347098 -0.999988 
-0.00886664 -0.00328289 -0.999955 
-0.0259227 -0.00861016 -0.999627 
-0.0163172 0.0102149 0.999815 
-0.00959541 0.0128818 0.999871 