# vtk DataFile Version 3.0 
Exported using Morpho https://github.com/Morpho-lang/morpho 
ASCII 
DATASET UNSTRUCTURED_GRID 

POINTS 1978 float 
-8.48552 -2.819 6.41612e-08 
-8.26019 -2.82891 1.07341e-08 
-8.03436 -2.82867 -3.69487e-09 
-7.78763 -2.82947 -2.63875e-08 
-7.5094 -2.82899 -2.72812e-08 
-7.23041 -2.82903 -3.27669e-08 
-7.01572 -2.82901 -1.85334e-09 
-6.77733 -2.829 -1.92229e-08 
-6.56275 -2.82898 -9.32724e-09 
-6.34914 -2.82898 -1.15582e-08 
-6.14123 -2.82898 -1.57282e-08 
-5.93516 -2.829 1.91454e-08 
-5.71257 -2.82888 6.04815e-09 
-5.51689 -2.82895 -1.43669e-09 
-5.29073 -2.829 2.1664e-08 
-5.08427 -2.82891 5.04933e-09 
-4.8681 -2.82898 -1.22544e-08 
-4.66155 -2.82896 -1.08646e-07 
-4.44542 -2.82897 -1.56423e-07 
-4.23158 -2.82896 -2.41417e-07 
-4.01833 -2.82899 -1.60572e-07 
-3.81728 -2.82899 -7.85423e-08 
-3.60674 -2.82892 -1.71619e-07 
-3.39425 -2.82897 -2.22602e-07 
-3.17307 -2.82891 1.13645e-07 
-2.95289 -2.82896 2.53038e-07 
-2.72563 -2.82893 -2.78759e-07 
-2.49537 -2.829 -2.29889e-07 
-2.26594 -2.82893 1.04579e-06 
-2.04478 -2.82894 4.53869e-06 
-1.81322 -2.82863 1.63378e-05 
-1.62673 -2.82862 3.68718e-05 
-1.45658 -2.82809 7.41191e-05 
-1.30098 -2.82776 0.000140088 
-1.17526 -2.82794 0.000331109 
-0.993799 -2.82614 0.00136201 
-0.816169 -2.8246 0.00187197 
-0.642867 -2.82188 0.00376854 
-0.43876 -2.82479 0.0067315 
0.351331 -2.83135 -0.000630433 
0.553267 -2.81828 -0.00538137 
0.749293 -2.82337 -0.00258095 
0.924032 -2.82604 -0.000992165 
1.04394 -2.82734 -0.000427418 
1.17781 -2.82767 -0.000254166 
1.30635 -2.82792 -0.000131047 
1.47196 -2.82897 -6.76535e-05 
1.64475 -2.8284 -3.22928e-05 
1.82892 -2.82872 -1.77309e-05 
2.05816 -2.8286 -4.59704e-06 
2.27864 -2.82908 -1.21831e-06 
2.52371 -2.82877 3.00777e-07 
2.73417 -2.82902 5.7891e-07 
2.94417 -2.82889 -9.92301e-08 
3.17498 -2.82905 -2.90134e-07 
3.3972 -2.8289 2.07376e-07 
3.61789 -2.829 2.52186e-07 
3.82077 -2.82896 1.69881e-07 
4.03264 -2.82899 1.70351e-07 
4.25316 -2.82892 1.77175e-07 
4.45144 -2.82895 1.45565e-07 
4.66568 -2.82898 8.8302e-08 
4.86768 -2.82891 3.82944e-08 
5.07908 -2.82902 -2.38684e-08 
5.28659 -2.82893 -2.19886e-08 
5.50415 -2.82898 -4.43478e-09 
5.70763 -2.82898 -1.20925e-08 
5.92631 -2.82899 -2.68096e-09 
6.14858 -2.8289 1.00299e-08 
6.35016 -2.82904 9.22438e-09 
6.58711 -2.82899 1.31025e-08 
6.80165 -2.82892 2.00802e-08 
7.00349 -2.82905 -7.12956e-10 
7.26939 -2.82897 2.86179e-08 
7.50254 -2.82907 1.95092e-08 
7.74164 -2.82915 1.54315e-08 
8.02314 -2.82896 7.47209e-09 
8.20765 -2.82912 -1.57369e-08 
8.48557 -2.81903 -2.38223e-08 
-8.48604 -2.5798 -1.30201e-07 
-8.25967 -2.58605 1.65121e-08 
-8.02787 -2.58999 4.56004e-09 
-7.79305 -2.6101 -1.20568e-08 
-7.55008 -2.63491 2.66433e-08 
-7.26676 -2.63681 4.3247e-08 
-6.9958 -2.58108 1.02011e-08 
-6.78206 -2.60745 1.72062e-11 
-6.5436 -2.58506 3.74913e-09 
-6.31619 -2.59821 2.94481e-08 
-6.08864 -2.58183 1.03045e-08 
-5.86914 -2.59998 -9.59734e-09 
-5.66434 -2.56916 -6.36481e-09 
-5.44551 -2.60612 -4.58408e-09 
-5.23136 -2.58539 -1.85793e-08 
-5.01455 -2.59695 -5.32161e-08 
-4.80211 -2.58769 -4.37974e-08 
-4.58544 -2.59987 7.91545e-08 
-4.36631 -2.59735 2.77385e-07 
-4.14854 -2.59746 3.81609e-07 
-3.93965 -2.58292 2.27229e-07 
-3.72931 -2.59192 9.96518e-09 
-3.51253 -2.59016 -4.65564e-08 
-3.29113 -2.59554 -2.07883e-08 
-3.06544 -2.59096 -9.3897e-08 
-2.83749 -2.5969 -5.24497e-08 
-2.60423 -2.60091 1.10636e-07 
-2.37004 -2.606 1.93846e-08 
-2.13822 -2.60536 -1.34873e-06 
-1.90865 -2.62484 -6.50687e-06 
-1.69169 -2.59311 -1.82964e-05 
-1.50948 -2.58844 -3.07895e-05 
-1.34131 -2.59104 -5.84948e-05 
-1.19282 -2.56895 -0.0001073 
-1.07004 -2.66039 -0.000502085 
-0.966071 -2.61474 -4.05039e-05 
-0.796178 -2.66407 -0.00070264 
-0.602494 -2.68404 -0.00066045 
-0.450244 -2.62402 0.00325063 
-0.298063 -2.776 -0.00697329 
0.312796 -2.71861 1.96985e-05 
0.594654 -2.7077 0.000333526 
0.819859 -2.69077 0.000109571 
0.970231 -2.60662 0.000419867 
1.10485 -2.61422 8.39429e-05 
1.24535 -2.57725 0.000102226 
1.40026 -2.6189 3.84278e-05 
1.57377 -2.60477 2.10102e-05 
1.79932 -2.62835 1.40911e-05 
2.02663 -2.61611 3.31048e-06 
2.26479 -2.60046 1.64515e-07 
2.49427 -2.61407 -2.65291e-07 
2.74271 -2.57571 -3.40688e-07 
2.97595 -2.59914 1.95079e-07 
3.2047 -2.59473 1.27403e-07 
3.43315 -2.59694 4.04327e-08 
3.64377 -2.58161 -4.82251e-08 
3.86042 -2.59484 -1.83226e-07 
4.08468 -2.60456 -3.20874e-07 
4.29187 -2.57914 -3.02867e-07 
4.50668 -2.59871 -1.32108e-07 
4.71642 -2.58471 -3.51781e-09 
4.93059 -2.59553 5.77871e-08 
5.14384 -2.59053 3.83155e-08 
5.36407 -2.60148 1.37841e-08 
5.57729 -2.58414 5.06333e-09 
5.79491 -2.5999 1.19102e-08 
6.02125 -2.60136 -3.93704e-09 
6.23656 -2.57459 -1.61387e-08 
6.4583 -2.61103 -7.79687e-09 
6.68627 -2.58455 -1.00906e-08 
6.89718 -2.56646 -3.96624e-09 
7.12727 -2.62884 -1.18883e-08 
7.37868 -2.59907 -3.51953e-08 
7.61631 -2.60479 -9.59134e-09 
7.87532 -2.63809 9.62554e-09 
8.08121 -2.53681 -9.7873e-09 
8.30292 -2.62993 6.99878e-09 
8.48606 -2.52432 8.60922e-09 
-8.48546 -2.34053 1.45332e-07 
-8.24777 -2.35201 1.60627e-08 
-8.01074 -2.35649 -1.24946e-08 
-7.77122 -2.3856 8.90193e-09 
-7.5587 -2.24078 -5.71124e-09 
-7.4867 -2.44961 -1.25446e-08 
-7.20905 -2.43091 -8.41187e-10 
-6.97452 -2.33698 -3.92184e-09 
-6.73984 -2.38475 -4.19244e-09 
-6.49336 -2.36146 8.17617e-10 
-6.26102 -2.36772 1.53472e-09 
-6.0275 -2.35461 2.55073e-09 
-5.81994 -2.34645 -2.3049e-10 
-5.58018 -2.35356 2.55823e-09 
-5.36986 -2.36325 3.65883e-10 
-5.14012 -2.35946 4.7056e-09 
-4.92531 -2.35733 -2.18181e-10 
-4.70114 -2.36321 9.99688e-09 
-4.48262 -2.37123 1.16217e-08 
-4.25999 -2.36846 1.48706e-08 
-4.04849 -2.35182 -1.5235e-09 
-3.83163 -2.34936 6.53817e-10 
-3.6177 -2.35722 2.18677e-08 
-3.39469 -2.35962 4.22099e-08 
-3.17238 -2.36145 3.73307e-08 
-2.9412 -2.36015 -5.03627e-08 
-2.71143 -2.37014 -1.34828e-07 
-2.47815 -2.37783 -2.75894e-07 
-2.24623 -2.3823 -7.07478e-07 
-2.01099 -2.39948 -2.36802e-06 
-1.79743 -2.39523 -6.3692e-06 
-1.59006 -2.35104 -1.76727e-05 
-1.41015 -2.36049 -3.45657e-05 
-1.24732 -2.34478 -8.46486e-06 
-1.09141 -2.37806 -0.000125787 
-0.908295 -2.49031 -0.000403138 
-0.689991 -2.52914 -0.000116852 
-0.533113 -2.49084 -0.000361663 
-0.216039 -2.65374 -0.00158173 
-0.00664744 -2.73534 0.00251391 
0.312271 -2.61992 0.00100366 
0.537223 -2.59083 -0.000797523 
0.738827 -2.56075 0.000829604 
0.928408 -2.47129 7.74933e-05 
1.11171 -2.39256 0.000101899 
1.229 -2.30432 5.09558e-05 
1.36573 -2.38768 1.1998e-05 
1.52648 -2.37868 1.76245e-05 
1.72656 -2.42441 1.02557e-05 
1.94678 -2.40478 3.27701e-06 
2.18232 -2.3924 1.37848e-06 
2.42732 -2.37683 4.33579e-07 
2.65133 -2.3736 4.22798e-07 
2.91069 -2.36216 -6.99686e-08 
3.13639 -2.36094 -2.93928e-08 
3.36231 -2.36792 -4.34844e-08 
3.57925 -2.34145 -2.13128e-08 
3.79294 -2.35635 -2.03097e-09 
4.00962 -2.37623 -6.77452e-10 
4.21921 -2.34576 -2.6308e-09 
4.43886 -2.35927 -1.31276e-08 
4.64491 -2.35044 -5.50442e-09 
4.86167 -2.35811 -1.43826e-09 
5.07282 -2.35626 1.39497e-09 
5.29161 -2.36962 -1.94369e-09 
5.50423 -2.3527 1.508e-09 
5.72607 -2.3614 -4.36321e-09 
5.94394 -2.37457 -4.24413e-09 
6.1617 -2.34542 -1.97854e-09 
6.39612 -2.36485 -4.25789e-09 
6.60804 -2.36299 -1.29137e-10 
6.83357 -2.32011 2.65481e-10 
7.06665 -2.37904 -5.3828e-10 
7.2868 -2.3972 -3.01169e-09 
7.54583 -2.37473 4.86793e-09 
7.79233 -2.41793 -7.88689e-09 
8.00253 -2.31561 1.36369e-08 
8.25969 -2.36446 -1.42592e-09 
8.48585 -2.28685 2.5701e-09 
-8.48629 -2.10349 -8.01051e-08 
-8.2599 -2.11584 6.94806e-09 
-8.03068 -2.11621 -6.47044e-09 
-7.79641 -2.15029 7.46494e-09 
-7.50081 -2.03375 -6.48527e-11 
-7.30075 -2.23766 1.66248e-08 
-7.07093 -2.14077 -2.1407e-09 
-6.79883 -2.14021 3.77568e-09 
-6.58426 -2.15104 -2.25321e-09 
-6.34387 -2.13732 5.46033e-10 
-6.12256 -2.13124 -1.73144e-09 
-5.90921 -2.1001 -4.9094e-09 
-5.68942 -2.13505 -6.82939e-09 
-5.46796 -2.11419 -4.0331e-09 
-5.25578 -2.13786 -3.22423e-09 
-5.03785 -2.12133 -1.38089e-08 
-4.82019 -2.13305 -1.00073e-08 
-4.60327 -2.1353 -1.77879e-08 
-4.38895 -2.14275 -1.75676e-08 
-4.18135 -2.12282 -2.88168e-08 
-3.97 -2.11683 -3.23301e-08 
-3.75847 -2.11393 -3.75893e-08 
-3.54572 -2.12708 -4.10548e-08 
-3.32938 -2.12496 -6.09663e-08 
-3.10743 -2.13098 -1.01126e-07 
-2.8804 -2.1282 -1.85553e-07 
-2.65329 -2.14203 -3.67364e-07 
-2.42514 -2.15009 -7.30943e-07 
-2.19121 -2.16638 -1.36748e-06 
-1.97236 -2.16861 -2.26279e-06 
-1.76536 -2.16655 -5.52065e-06 
-1.57081 -2.10638 -9.21153e-06 
-1.39744 -2.131 -1.77385e-05 
-1.22585 -2.12258 -4.46412e-05 
-1.05253 -2.21814 -0.000116691 
-0.924062 -2.24798 8.20442e-05 
-0.796744 -2.37851 2.10138e-05 
-0.520958 -2.40429 -0.0011742 
-0.235459 -2.5455 0.00345024 
0.0313723 -2.5942 -0.00217915 
0.267968 -2.53868 -0.0015522 
0.565317 -2.45927 0.00053564 
0.760369 -2.40528 1.616e-05 
0.924214 -2.30027 0.000143687 
1.02575 -2.17968 8.8198e-05 
1.19459 -2.10308 1.26769e-05 
1.39031 -2.14243 2.30873e-05 
1.58997 -2.18064 1.19617e-05 
1.78902 -2.20118 4.73087e-06 
2.02491 -2.18565 1.52159e-06 
2.26509 -2.17084 8.0811e-07 
2.49604 -2.13296 4.46866e-07 
2.7359 -2.16018 2.00044e-07 
2.97098 -2.1257 1.35982e-07 
3.19629 -2.12868 5.52845e-08 
3.40883 -2.12563 4.31596e-08 
3.62777 -2.10663 3.70551e-08 
3.84353 -2.12965 3.28347e-08 
4.04724 -2.13136 2.64577e-08 
4.27297 -2.12211 2.60006e-08 
4.47803 -2.11471 1.70341e-08 
4.69589 -2.12216 1.33631e-08 
4.90743 -2.12041 1.0218e-08 
5.12802 -2.13002 8.18812e-09 
5.33785 -2.12929 5.34582e-10 
5.56285 -2.12664 3.8497e-09 
5.78286 -2.13087 2.77179e-09 
5.99518 -2.1323 -6.62929e-10 
6.23724 -2.13109 4.2496e-09 
6.45015 -2.11518 -2.51359e-10 
6.66495 -2.1179 -3.92866e-09 
6.9259 -2.11443 6.95291e-09 
7.1429 -2.14068 1.2351e-08 
7.37541 -2.18178 -3.69359e-10 
7.56614 -2.08122 9.8466e-09 
7.74273 -2.18784 -1.13852e-08 
7.95818 -2.08679 7.3821e-09 
8.2067 -2.14366 -1.30112e-08 
8.4858 -2.09291 -7.55251e-09 
-8.48596 -1.80918 5.84516e-10 
-8.30537 -1.87598 -5.09448e-08 
-7.9056 -1.90292 4.77151e-09 
-7.68239 -1.92056 -6.98688e-09 
[...]
POINT_DATA 1978 
VECTORS vectors float
-0.000195479 -0.000425629 0.999643 
-0.000164165 -0.000431205 1.00023 
-0.000137884 -0.000430413 1.00046 
-9.71282e-05 -0.000429535 1.00034 
-5.62717e-05 -0.000421411 1.00035 
-2.47611e-05 -0.000416131 1.00034 
-1.78023e-05 -0.000414424 1.00034 
-2.60949e-05 -0.000421877 1.00033 
-4.88829e-05 -0.000437286 1.00023 
-0.000100793 -0.000442763 1.00043 
-0.000168966 -0.000421891 1.00022 
-0.000256979 -0.000376732 1.00032 
-0.000369779 -0.000293219 1.00032 
-0.000491576 -0.000170133 1.00032 
-0.000622846 2.87425e-05 1.00032 
-0.000730744 0.000209234 1.00032 
-0.000909108 0.000379748 1.00032 
-0.00119801 0.000649727 1.00032 
-0.00155246 0.00116617 1.00031 
-0.0018787 0.00186342 1.00031 
-0.00222335 0.00268947 1.00031 
-0.00267112 0.00367316 1.00031 
-0.00342997 0.00500108 1.0003 
-0.00481506 0.00684855 1.00029 
-0.00714119 0.00968363 1.00026 
-0.0106057 0.0137819 1.00018 
-0.0159216 0.0205397 0.999996 
-0.0224777 0.0314871 0.999577 
-0.0305321 0.0467305 0.998754 
-0.0418663 0.0682504 0.997084 
-0.058094 0.102149 0.99334 
-0.0743606 0.140495 0.987514 
-0.0933124 0.187941 0.977926 
-0.113523 0.246435 0.962622 
-0.129873 0.306646 0.943002 
-0.151552 0.422088 0.893751 
-0.154515 0.551639 0.81976 
-0.14172 0.704981 0.695303 
-0.059474 0.879256 0.481388 
0.0501241 0.916735 -0.402748 
0.128403 0.76309 -0.633573 
0.158194 0.593851 -0.788956 
0.153821 0.454602 -0.877346 
0.142984 0.374112 -0.916338 
0.125297 0.298269 -0.946307 
0.107957 0.240041 -0.964875 
0.0874456 0.182198 -0.979463 
0.0711773 0.13465 -0.988549 
0.0560203 0.0976272 -0.993905 
0.0408148 0.0662042 -0.997364 
0.0304255 0.0447879 -0.998853 
0.0213782 0.0273142 -0.999732 
0.0150187 0.0183092 -0.999947 
0.0102485 0.0130327 -1.0002 
0.00655703 0.0090748 -1.00027 
0.00423874 0.00640761 -1.0003 
0.00301085 0.00467722 -1.00031 
0.00243414 0.00349201 -1.00031 
0.00206662 0.00253192 -1.00031 
0.00177465 0.00170964 -1.00031 
0.00152378 0.00108013 -1.00031 
0.00121084 0.000557314 -1.00031 
0.000900308 0.000270597 -1.00032 
0.000673878 0.000140585 -1.00032 
0.000574324 2.97432e-05 -1.00032 
0.000491978 -0.000150202 -1.00032 
0.00037698 -0.000305323 -1.00032 
0.000250624 -0.000392675 -1.00032 
0.000156541 -0.000422885 -1.00033 
0.00010131 -0.000435368 -1.00033 
5.86933e-05 -0.000436464 -1.00033 
3.05444e-05 -0.000431255 -1.00034 
2.37133e-05 -0.000425356 -1.00034 
3.10255e-05 -0.00042466 -1.00034 
5.57895e-05 -0.00043059 -1.00034 
9.15246e-05 -0.000439262 -1.00034 
0.000133077 -0.000441233 -1.00034 
0.000155592 -0.000437323 -1.00034 
0.000188922 -0.000422153 -0.999547 
-0.000269434 -0.000435047 0.999081 
-0.000226065 -0.000448866 1.00077 
-0.000184396 -0.000457982 1.00069 
-0.000135458 -0.000456309 1.00057 
-8.1995e-05 -0.000442641 1.00068 
-4.49202e-05 -0.000422606 1.00067 
-4.23408e-05 -0.000400949 1.00067 
-5.18352e-05 -0.000391154 1.00066 
-8.40781e-05 -0.000376436 1.00076 
-0.000136922 -0.000357734 1.00055 
-0.000217353 -0.000306046 1.00074 
-0.000310228 -0.000236153 1.00064 
-0.000421275 -0.000115417 1.00064 
-0.000550552 2.49873e-05 1.00063 
-0.000690114 0.000233482 1.00063 
-0.000842695 0.000463858 1.00063 
-0.00102802 0.000763772 1.00063 
-0.00126625 0.00116694 1.00062 
-0.00153044 0.00176668 1.00062 
-0.00180707 0.00255174 1.00062 
-0.0021229 0.00359122 1.00062 
-0.00264713 0.00502084 1.00062 
-0.00352776 0.00719047 1.00061 
-0.00502941 0.0103358 1.00058 
-0.00731814 0.0149481 1.00052 
-0.0106726 0.0214373 1.00038 
-0.015095 0.0311951 1.00006 
-0.0205629 0.0456906 0.999386 
-0.0270506 0.0671813 0.99799 
-0.0361788 0.0969392 0.995207 
-0.0424764 0.138152 0.990011 
-0.0495414 0.185342 0.981859 
-0.0573769 0.241636 0.96901 
-0.0558353 0.305161 0.950898 
-0.0827942 0.372608 0.924446 
-0.0657906 0.436924 0.897073 
-0.077054 0.564693 0.821248 
-0.0586544 0.72227 0.688095 
-0.00390175 0.82375 0.564308 
-0.0203798 0.933415 0.347991 
0.0220962 0.916591 -0.396165 
0.0786675 0.713769 -0.695134 
0.0948143 0.532202 -0.841087 
0.0635382 0.42321 -0.903853 
0.0674192 0.345987 -0.935914 
0.0549655 0.275786 -0.959972 
0.0574075 0.216159 -0.975109 
0.0477733 0.164214 -0.985729 
0.0400013 0.113498 -0.993275 
0.0306282 0.0793598 -0.996881 
0.0226235 0.0532801 -0.998958 
0.0174246 0.0352645 -0.999885 
0.011637 0.0237348 -1.00042 
0.0081819 0.0161866 -1.0005 
0.00537854 0.0114004 -1.00058 
0.00350904 0.0077163 -1.00061 
0.00255804 0.00542554 -1.00062 
0.00208881 0.00379732 -1.00062 
0.00178614 0.00265816 -1.00062 
0.00154309 0.00191245 -1.00062 
0.00133676 0.00125846 -1.00062 
0.00111522 0.000822651 -1.00062 
0.00090051 0.000496313 -1.00063 
0.000723352 0.000281283 -1.00063 
0.000580803 8.27886e-05 -1.00063 
0.000459228 -7.4327e-05 -1.00063 
0.000340716 -0.000216159 -1.00064 
0.000233991 -0.000304382 -1.00064 
0.000161285 -0.000340662 -1.00065 
0.000102467 -0.000379227 -1.00065 
6.59158e-05 -0.000390649 -1.00066 
4.94353e-05 -0.000402477 -1.00067 
4.45887e-05 -0.000420895 -1.00067 
6.67135e-05 -0.00044066 -1.00067 
0.000102803 -0.000457335 -1.00067 
0.000147499 -0.000463311 -1.00056 
0.000205967 -0.000468035 -1.00078 
0.000222848 -0.000446389 -1.00054 
0.000292554 -0.00043466 -0.999119 
-0.000346725 -0.000452751 0.99929 
-0.000277786 -0.000475942 1.00068 
-0.000224441 -0.000486766 1.00059 
-0.000166053 -0.00048182 1.0008 
-0.00013912 -0.000482475 1.00057 
-9.87117e-05 -0.000454637 1.00069 
-6.26088e-05 -0.000421078 1.00068 
-5.98734e-05 -0.000385555 1.00068 
-6.64517e-05 -0.000360728 1.00067 
-0.000105447 -0.000322531 1.00067 
-0.000162982 -0.000277235 1.00066 
-0.00024917 -0.000201731 1.00065 
-0.000345115 -0.000105074 1.00065 
-0.000474306 4.7995e-05 1.00064 
-0.000604092 0.000227125 1.00064 
-0.000758174 0.000483937 1.00064 
-0.000901492 0.000781424 1.00063 
-0.00106256 0.00117768 1.00063 
-0.00124647 0.00168894 1.00063 
-0.00144765 0.00239944 1.00063 
-0.00165803 0.00334866 1.00062 
-0.00199324 0.00475195 1.00062 
-0.00251931 0.00681508 1.00061 
-0.00334204 0.0100506 1.00059 
-0.00458904 0.0144967 1.00054 
-0.00649031 0.0206271 1.00043 
-0.00910814 0.0291307 1.0002 
-0.0121988 0.041499 0.999722 
-0.015551 0.0593484 0.998757 
-0.0188046 0.0856115 0.996762 
-0.0205505 0.118372 0.993317 
-0.017073 0.160071 0.987534 
-0.0155014 0.20978 0.978027 
-0.00646282 0.265032 0.964455 
-0.00292102 0.336638 0.941827 
-0.0178735 0.457497 0.888959 
-0.00737845 0.622811 0.781782 
0.0358673 0.729155 0.682721 
0.00855177 0.958145 0.282248 
0.00139123 0.994483 0.00660523 
-0.00299731 0.903097 -0.427295 
0.021062 0.739511 -0.671597 
0.0312792 0.578389 -0.814715 
0.0154105 0.433428 -0.901014 
0.00667623 0.321339 -0.947163 
-0.00313594 0.260808 -0.965701 
0.0187914 0.220726 -0.975453 
0.0197655 0.173921 -0.985009 
0.0237805 0.129424 -0.99183 
0.0191011 0.0924198 -0.996133 
0.016198 0.0639435 -0.998458 
0.0123956 0.0432309 -0.999651 
0.00947973 0.0304449 -1.00016 
0.00664319 0.0207116 -1.00043 
0.00460975 0.0147351 -1.00054 
0.00312828 0.010041 -1.0006 
0.00220904 0.00683451 -1.00061 
0.00183471 0.00466765 -1.00062 
0.00161164 0.00328688 -1.00062 
0.00139094 0.00240527 -1.00062 
0.00124539 0.00169432 -1.00062 
0.0010973 0.00120742 -1.00063 
0.000945831 0.000812676 -1.00063 
0.000798016 0.000526211 -1.00063 
0.000647671 0.000274289 -1.00063 
0.00050637 8.81102e-05 -1.00063 
0.000381873 -7.32978e-05 -1.00064 
0.000278481 -0.000189396 -1.00064 
0.00019065 -0.000254047 -1.00065 
0.000126392 -0.000310872 -1.00066 
8.7089e-05 -0.000344546 -1.00066 
6.35443e-05 -0.000371195 -1.00067 
6.12079e-05 -0.000409127 -1.00067 
7.64947e-05 -0.000438362 -1.00067 
0.000117838 -0.000472196 -1.00079 
0.000167325 -0.000486609 -1.00068 
0.000229417 -0.000498981 -1.00068 
0.000282292 -0.000476768 -1.00065 
0.000372113 -0.000470464 -0.999339 
-0.000420744 -0.000513155 0.999047 
-0.000332419 -0.000513457 1.00056 
-0.000262414 -0.00052252 1.0008 
-0.000202785 -0.000511752 1.00079 
-0.00014088 -0.00049618 1.00067 
-8.95209e-05 -0.000441476 1.00068 
-6.95749e-05 -0.000400629 1.00078 
-6.14808e-05 -0.000347073 1.00067 
-8.07235e-05 -0.000304917 1.00066 
-0.000124871 -0.000247129 1.00065 
-0.000193201 -0.000174242 1.00065 
-0.00028103 -6.86563e-05 1.00064 
-0.000394525 5.75542e-05 1.00064 
-0.000516586 0.000247862 1.00064 
-0.000647904 0.000463107 1.00063 
-0.000770274 0.000753184 1.00063 
-0.00088789 0.00109881 1.00063 
-0.00100464 0.00154457 1.00062 
-0.00113325 0.0021207 1.00062 
-0.00123589 0.00289146 1.00062 
-0.00137866 0.00398662 1.00062 
-0.0016058 0.00563611 1.00061 
-0.00197745 0.00820358 1.0006 
-0.0023911 0.0119962 1.00057 
-0.00305639 0.0169983 1.0005 
-0.00402511 0.0235962 1.00038 
-0.00537164 0.0326955 1.00011 
-0.00647349 0.0452895 0.999608 
-0.00742867 0.0633655 0.9986 
-0.0061975 0.087311 0.996766 
-0.00220888 0.117247 0.993659 
0.00991531 0.148393 0.989307 
0.0173623 0.190709 0.981931 
0.0343405 0.238783 0.970858 
0.0385298 0.32453 0.945325 
0.0523379 0.394707 0.917319 
0.0348658 0.502025 0.863971 
0.072734 0.714132 0.695021 
0.0331566 0.939596 0.336407 
-0.00286451 0.996333 -0.0631427 
-0.0245898 0.915155 -0.39885 
-0.0348783 0.685198 -0.726647 
-0.0278334 0.528888 -0.847975 
-0.0386464 0.399085 -0.916154 
-0.0526631 0.319471 -0.946343 
-0.0400234 0.24085 -0.970082 
-0.0162475 0.18967 -0.982126 
-0.000133127 0.148075 -0.989571 
0.00492376 0.112322 -0.994243 
0.00670894 0.0798464 -0.997416 
0.0073538 0.0553563 -0.999101 
0.00564267 0.0390809 -0.999895 
0.00509036 0.0279096 -1.00027 
0.00354161 0.0201742 -1.00045 
0.00256329 0.0143396 -1.00055 
0.00187502 0.00988073 -1.00059 
0.00145181 0.0065392 -1.00061 
0.00133287 0.00446964 -1.00061 
0.00123926 0.00325722 -1.00062 
0.00113494 0.00234884 -1.00062 
0.00104318 0.00174267 -1.00062 
0.000949067 0.00125201 -1.00062 
0.000845799 0.000891781 -1.00063 
0.00072599 0.000582439 -1.00063 
0.000592421 0.000343227 -1.00063 
0.000450102 0.000135666 -1.00064 
0.000333277 -2.44394e-05 -1.00064 
0.000238844 -0.000134968 -1.00064 
0.000148746 -0.000222092 -1.00065 
9.40635e-05 -0.000274392 -1.00066 
6.56801e-05 -0.000322905 -1.00066 
6.12451e-05 -0.000378188 -1.00067 
7.78321e-05 -0.00042295 -1.00067 
0.000108679 -0.00046645 -1.00057 
0.000155651 -0.000506187 -1.00067 
0.000186772 -0.000510841 -1.00068 
0.000246011 -0.000530683 -1.00068 
0.000307994 -0.000517463 -1.00067 
0.000419912 -0.000524059 -0.999333 
-0.000442507 -0.000626816 0.999029 
-0.000359256 -0.000575851 1.00065 
-0.00024194 -0.00055152 1.00057 
-0.000192153 -0.000533828 1.00068 
-0.000140164 -0.000511041 1.00078 
-0.000101602 -0.000455431 1.00057 
-7.47036e-05 -0.00043721 1.00067 
-5.22063e-05 -0.00037856 1.00067 
-4.5207e-05 -0.000316687 1.00067 
-6.80938e-05 -0.000257259 1.00066 
-0.000117096 -0.000177235 1.00065 
-0.000189026 -7.95636e-05 1.00065 
-0.000294628 5.29608e-05 1.00064 
-0.000401881 0.000208841 1.00064 
-0.000517397 0.000432621 1.00064 
-0.000632331 0.000671933 1.00063 
-0.000736698 0.000994107 1.00063 
-0.000823043 0.00137508 1.00062 
-0.000910158 0.00188216 1.00062 
-0.000968011 0.0025184 1.00062 
-0.00100171 0.00341306 1.00061 
-0.00104804 0.00470661 1.00061 
-0.00114244 0.00677592 1.0006 
-0.00119905 0.00995168 1.00058 
-0.00113984 0.0145105 1.00054 
-0.00112144 0.0201171 1.00046 
-0.00115783 0.0276403 1.00029 
-0.000982036 0.0376992 0.999963 
-0.000294683 0.0521064 0.999309 
0.00288955 0.0716789 0.99807 
0.0101236 0.096502 0.995899 
0.0233305 0.121138 0.992935 
0.0426778 0.159473 0.986791 
0.0654969 0.200937 0.9779 
0.0801325 0.280854 0.956616 
0.126656 0.3512 0.927785 
0.10425 0.484116 0.868532 
0.109904 0.628155 0.769571 
0.0689922 0.91577 0.391294 
-0.00557657 0.997426 -0.0379483 
-0.0678197 0.862532 -0.499304 
-0.0901746 0.648483 -0.754729 
-0.0968087 0.468084 -0.878223 
-0.117885 0.359106 -0.926009 
-0.0926345 0.270022 -0.958576 
-0.0715241 0.199011 -0.977792 
-0.0420869 0.168892 -0.985196 
-0.024628 0.136042 -0.990851 
-0.0121809 0.107088 -0.994769 
-0.00439164 0.0823443 -0.997228 
-0.000272765 0.0574798 -0.999014 
0.000607323 0.04087 -0.999843 
0.00143094 0.0297196 -1.00023 
0.0012129 0.0222684 -1.00042 
0.000992979 0.0159017 -1.00053 
0.00083364 0.0109315 -1.00058 
0.000810914 0.00734645 -1.0006 
0.000901205 0.00492803 -1.00061 
0.000941957 0.00356465 -1.00061 
0.000966999 0.00265007 -1.00062 
0.000902547 0.00195958 -1.00062 
0.000850794 0.00146339 -1.00062 
0.000776778 0.00108103 -1.00062 
0.000688509 0.000758346 -1.00063 
0.000565202 0.000494913 -1.00063 
0.000449568 0.000273955 -1.00063 
0.000334227 9.24895e-05 -1.00064 
0.000233973 -4.22912e-05 -1.00064 
0.000148949 -0.000150363 -1.00065 
7.66211e-05 -0.000221855 -1.00065 
4.51539e-05 -0.000287703 -1.00066 
4.59437e-05 -0.000354039 -1.00066 
6.57241e-05 -0.00042028 -1.00078 
0.000106164 -0.000471628 -1.00067 
0.00015676 -0.000523729 -1.00068 
0.000213378 -0.000547913 -1.00068 
0.000275846 -0.000564768 -1.00068 
0.00034158 -0.000557525 -1.00066 
0.000440137 -0.000611562 -0.999208 
-0.000390092 -0.000727328 0.999214 
-0.000313353 -0.000637752 1.00065 
-0.00029516 -0.000566158 1.00069 
-0.000227709 -0.000580786 1.00068 
-0.000185538 -0.000561733 1.00057 
-0.000104304 -0.000498313 1.00067 
-5.30901e-05 -0.000410161 1.00066 
-3.41708e-05 -0.000352718 1.00066 
-2.69588e-05 -0.000268343 1.00066 
-5.44231e-05 -0.000190795 1.00065 
-0.000105265 -8.17906e-05 1.00064 
-0.000200222 4.59501e-05 1.00064 
-0.000299384 0.000204749 1.00063 
-0.000399226 0.000382898 1.00063 
-0.000490364 0.000614709 1.00063 
-0.000590333 0.000867743 1.00062 
-0.000667403 0.00119745 1.00062 
-0.000733574 0.00161511 1.00062 
-0.000765578 0.00212838 1.00061 
-0.000763689 0.00281832 1.00061 
-0.000717145 0.00377339 1.0006 
-0.000646334 0.00521626 1.0006 
-0.000497224 0.00747805 1.00059 
-0.000200743 0.011012 1.00057 
0.000404199 0.0156436 1.00052 
0.00115785 0.0212903 1.00043 
0.00233357 0.0284655 1.00027 
0.00388494 0.0386905 0.99993 
0.00693382 0.0522686 0.999288 
0.0134102 0.0694818 0.998156 
0.0248149 0.0863895 0.99659 
0.0428187 0.112903 0.993278 
0.0707699 0.138337 0.988387 
0.102688 0.160883 0.981991 
0.116395 0.227217 0.967208 
0.164469 0.237605 0.957582 
0.166875 0.422453 0.89071 
0.191716 0.584439 0.787721 
0.118147 0.862529 0.488592 
-0.00030965 0.996703 -0.0581825 
-0.107213 0.848991 -0.514939 
-0.14622 0.564444 -0.812265 
-0.189866 0.419684 -0.887406 
-0.162987 0.286042 -0.944396 
-0.123959 0.20494 -0.971259 
-0.0941462 0.148175 -0.984962 
-0.0611992 0.132318 -0.989848 
-0.0386234 0.109957 -0.993795 
-0.0227665 0.0874639 -0.996669 
-0.0110537 0.0676279 -0.99822 
-0.00591988 0.0481319 -0.999633 
-0.00296136 0.0340163 -1.00011 
-0.00184213 0.025951 -1.00034 
-0.000922013 0.0194845 -1.00047 
-0.000466118 0.0137703 -1.00054 
-8.71034e-05 0.00933553 -1.00058 
0.000339797 0.0061696 -1.0006 
0.000558581 0.00434786 -1.0006 
0.000699846 0.00319565 -1.00061 
0.000770791 0.00243082 -1.00061 
0.000747399 0.00181374 -1.00061 
0.000711334 0.00137382 -1.00062 
0.000646862 0.00101847 -1.00062 
0.000561976 0.000741375 -1.00062 
0.000456049 0.000502509 -1.00063 
0.000364287 0.000290032 -1.00063 
0.000265678 0.000120854 -1.00064 
0.000167525 -2.21489e-05 -1.00064 
8.93273e-05 -0.000128392 -1.00065 
2.99394e-05 -0.000219691 -1.00065 
1.85151e-05 -0.00030665 -1.00066 
3.52332e-05 -0.000380454 -1.00056 
6.70856e-05 -0.000448438 -1.00067 
0.000110517 -0.000495504 -1.00067 
0.00015828 -0.000548593 -1.00068 
0.000209528 -0.000571471 -1.00068 
0.000255381 -0.000595167 -1.00068 
0.000329224 -0.000615454 -1.00066 
0.000402308 -0.000707527 -0.999282 
-0.00030003 -0.000791763 0.999267 
-0.000230401 -0.000668555 1.00066 
-0.000252866 -0.000609195 1.00069 
-0.000183785 -0.000590309 1.00079 
-0.000152081 -0.000554907 1.00068 
-0.000111948 -0.000530405 1.00066 
-7.02073e-05 -0.000465071 1.00056 
-2.03353e-05 -0.000394773 1.00076 
-3.51398e-07 -0.000316996 1.00055 
2.52784e-06 -0.000218695 1.00065 
-2.67051e-05 -0.000112635 1.00064 
-9.98949e-05 3.18991e-05 1.00064 
-0.000191456 0.000188952 1.00063 
-0.000289226 0.000361797 1.00063 
-0.000373216 0.000541842 1.00062 
-0.00045371 0.000780186 1.00062 
-0.000533629 0.00104053 1.00062 
-0.000603927 0.00139674 1.00061 
-0.000641818 0.00182603 1.00061 
-0.000631839 0.00239179 1.00061 
-0.000550665 0.00314063 1.0006 
-0.000389701 0.00420766 1.0006 
-0.000134985 0.00578528 1.00059 
0.000277083 0.00842994 1.00058 
0.000983046 0.0121808 1.00055 
0.00212656 0.016912 1.0005 
0.00368833 0.0222745 1.00041 
0.00599724 0.0296339 1.00024 
0.00937428 0.0395417 0.999872 
0.0150013 0.0512109 0.999277 
0.0248141 0.0621132 0.998452 
0.041129 0.0799338 0.996623 
0.065965 0.0957823 0.993841 
0.101151 0.0984764 0.990646 
0.145088 0.136132 0.980426 
0.207228 0.180609 0.961727 
0.226704 0.327845 0.917179 
0.277168 0.52558 0.803516 
0.18643 0.802996 0.564222 
-0.120266 0.914441 -0.379084 
-0.194745 0.687848 -0.697893 
-0.271473 0.496586 -0.823729 
-0.248442 0.317145 -0.915004 
-0.226407 0.193987 -0.954896 
-0.168709 0.165993 -0.972054 
-0.115561 0.113991 -0.987301 
-0.0699192 0.0941526 -0.993819 
-0.0449215 0.0819745 -0.996296 
-0.0292855 0.0664604 -0.997958 
-0.0173775 0.0577569 -0.998879 
-0.0112758 0.0424388 -0.999641 
-0.00665694 0.0334176 -1.00012 
-0.00453582 0.0248617 -1.00036 
-0.0028519 0.0190866 -1.00048 
-0.00172754 0.0137436 -1.00055 
-0.000896018 0.00918338 -1.00058 
-0.000192546 0.00627965 -1.00059 
0.000196584 0.00442334 -1.0006 
0.000460627 0.00329262 -1.0006 
0.000604179 0.00249428 -1.00061 
0.000646682 0.00194115 -1.00061 
0.000619824 0.00146846 -1.00061 
0.000571552 0.00112105 -1.00061 
0.000492413 0.000831942 -1.00062 
0.000404574 0.000609228 -1.00062 
0.000318919 0.000401607 -1.00063 
0.000234074 0.000228278 -1.00063 
0.00014012 6.77417e-05 -1.00064 
5.32955e-05 -6.4574e-05 -1.00064 
3.56407e-06 -0.000176441 -1.00065 
-7.14356e-06 -0.00029233 -1.00076 
1.62534e-05 -0.000387956 -1.00066 
6.2173e-05 -0.000472589 -1.00066 
0.000114712 -0.000529954 -1.00067 
0.000149345 -0.00057434 -1.00067 
0.000189021 -0.000590775 -1.00068 
0.000207726 -0.000613084 -1.00067 
0.000265188 -0.00064956 -1.00067 
0.000325933 -0.00077746 -0.999296 
-0.00015891 -0.000822292 0.999247 
-0.000146707 -0.00067808 1.00065 
-0.000194561 -0.00061515 1.00069 
-0.000147419 -0.00059935 1.00067 
-0.000143528 -0.000580041 1.00067 
-0.000106256 -0.000551296 1.00066 
-6.37089e-05 -0.000482783 1.00066 
-1.81772e-05 -0.000406835 1.00066 
9.3545e-06 -0.000307955 1.00065 
1.4827e-05 -0.000191887 1.00065 
-1.81677e-05 -4.35319e-05 1.00064 
-8.32888e-05 0.000119202 1.00063 
-0.000170086 0.000287764 1.00072 
-0.000255389 0.000458993 1.00062 
-0.000336765 0.000640369 1.00052 
-0.000393386 0.00085833 1.00071 
-0.000468626 0.00112735 1.00052 
-0.000523976 0.00146587 1.00061 
-0.000553634 0.00189026 1.0006 
-0.00052572 0.00243415 1.0006 
-0.000400416 0.00316117 1.00059 
-0.000166934 0.00413454 1.00068 
0.000214358 0.00566492 1.00059 
0.00082208 0.00801686 1.00058 
0.00180429 0.0115617 1.00046 
0.00327759 0.0156376 1.00062 
0.0053712 0.0206165 1.00045 
0.00845214 0.026611 1.00031 
0.0126797 0.0342943 0.999933 
0.0188946 0.0415735 0.999679 
0.0303638 0.0506423 0.998981 
0.0475936 0.0601179 0.99777 
0.0706515 0.0622924 0.996235 
0.108718 0.0555239 0.99317 
0.159266 0.0778466 0.984737 
0.239221 0.111159 0.964812 
0.300528 0.264182 0.916211 
0.395502 0.444697 0.804863 
0.291457 0.789454 0.542577 
0.0107307 1.00001 0.042872 
-0.286014 0.771315 -0.572018 
-0.389095 0.420405 -0.821077 
-0.303394 0.201341 -0.930998 
-0.208628 0.0722716 -0.975801 
-0.153552 0.0830198 -0.98508 
-0.104439 0.0545036 -0.993575 
-0.0796994 0.0675171 -0.995221 
-0.0488253 0.05832 -0.99782 
-0.0322326 0.0502679 -0.998962 
-0.0202224 0.0440736 -0.999684 
-0.0122348 0.0327862 -1.00011 
-0.00799605 0.0268444 -1.00031 
-0.00548075 0.0203919 -1.00055 
-0.00358621 0.0155292 -1.00042 
-0.00212781 0.0109292 -1.00057 
-0.000976682 0.00715846 -1.00058 
-0.000285265 0.00508801 -1.00059 
0.000153311 0.00372078 -1.00059 
0.000415989 0.00285899 -1.0006 
0.000538817 0.00222951 -1.0007 
0.000572101 0.00175379 -1.00051 
0.000518596 0.00135478 -1.0007 
0.000465798 0.00104405 -1.00061 
0.000392075 0.000792608 -1.00062 