# vtk DataFile Version 3.0 
Exported using Morpho https://github.com/Morpho-lang/morpho 
ASCII 
DATASET UNSTRUCTURED_GRID 

POINTS 1978 float 
-8.48528 -2.82843 -6.14184e-13 
-8.26043 -2.82843 7.39351e-14 
-8.03431 -2.82843 -3.56833e-16 
-7.78767 -2.82843 -5.14681e-15 
-7.50452 -2.82843 -5.32768e-15 
-7.25046 -2.82843 -6.35715e-15 
-7.00108 -2.82843 -3.82126e-16 
-6.78539 -2.82843 -3.75007e-15 
-6.56031 -2.82843 -1.83024e-15 
-6.35162 -2.82843 -2.33271e-15 
-6.13812 -2.82843 -3.07312e-15 
-5.93236 -2.82843 3.66776e-15 
-5.71246 -2.82843 1.11592e-15 
-5.51687 -2.82843 -3.40782e-16 
-5.29045 -2.82843 4.16895e-15 
-5.08431 -2.82843 9.11616e-16 
-4.8683 -2.82843 -2.55957e-15 
-4.66171 -2.82843 -2.14847e-14 
-4.44531 -2.82843 -3.09644e-14 
-4.23181 -2.82843 -4.78268e-14 
-4.01862 -2.82843 -3.25918e-14 
-3.81729 -2.82843 -1.78752e-14 
-3.60655 -2.82843 -3.9008e-14 
-3.39399 -2.82843 -5.6599e-14 
-3.17255 -2.82843 -1.1284e-14 
-2.95251 -2.82843 -4.49034e-14 
-2.72524 -2.82843 -3.17833e-13 
-2.49489 -2.82843 -7.55939e-13 
-2.26483 -2.82843 -1.59082e-12 
-2.04299 -2.82843 -3.28863e-12 
-1.8108 -2.82843 -5.6885e-12 
-1.62179 -2.82843 -1.69671e-11 
-1.45277 -2.82843 -2.87427e-11 
-1.30574 -2.82843 -4.2455e-11 
-1.16208 -2.82843 -3.30774e-12 
-0.965389 -2.82843 3.99052e-10 
-0.818747 -2.82843 1.12757e-09 
-0.659139 -2.82843 3.56815e-09 
-0.445931 -2.82843 3.75557e-09 
0.351897 -2.82843 2.14059e-09 
0.548466 -2.82843 -4.93993e-09 
0.74513 -2.82843 -1.72633e-09 
0.911538 -2.82843 -1.62677e-10 
1.04071 -2.82843 4.24649e-11 
1.17627 -2.82843 3.42139e-11 
1.29636 -2.82843 2.18891e-11 
1.46782 -2.82843 3.27255e-11 
1.63611 -2.82843 1.63499e-11 
1.83816 -2.82843 5.82797e-12 
2.05641 -2.82843 2.5279e-12 
2.28165 -2.82843 1.21779e-12 
2.51846 -2.82843 6.25284e-13 
2.73297 -2.82843 3.70286e-13 
2.9462 -2.82843 3.92626e-14 
3.17448 -2.82843 -3.28591e-14 
3.39712 -2.82843 4.99984e-14 
3.6175 -2.82843 5.36084e-14 
3.82084 -2.82843 3.51582e-14 
4.03289 -2.82843 3.42672e-14 
4.25312 -2.82843 3.51736e-14 
4.45143 -2.82843 2.87701e-14 
4.6656 -2.82843 1.74937e-14 
4.86771 -2.82843 7.65028e-15 
5.07907 -2.82843 -4.57292e-15 
5.28648 -2.82843 -4.24751e-15 
5.50416 -2.82843 -8.18763e-16 
5.70776 -2.82843 -2.28493e-15 
5.9263 -2.82843 -4.56711e-16 
6.1487 -2.82843 1.99998e-15 
6.35046 -2.82843 1.83679e-15 
6.58715 -2.82843 2.57741e-15 
6.80178 -2.82843 3.92926e-15 
7.00359 -2.82843 -1.33947e-16 
7.26956 -2.82843 5.58141e-15 
7.50268 -2.82843 3.80597e-15 
7.74181 -2.82843 2.99247e-15 
8.0232 -2.82843 1.40284e-15 
8.20792 -2.82843 -1.11316e-13 
8.48528 -2.82843 -1.15439e-12 
-8.48528 -2.58922 3.25266e-12 
-8.26051 -2.58836 -1.54556e-11 
-8.02843 -2.59157 -8.21281e-17 
-7.78465 -2.60742 2.29117e-19 
-7.53153 -2.6432 -9.52691e-20 
-7.24958 -2.61481 -1.02583e-19 
-6.99981 -2.59758 -2.82419e-18 
-6.77468 -2.59832 -7.3065e-18 
-6.54388 -2.59093 -5.02141e-20 
-6.31712 -2.59581 -1.82504e-19 
-6.09583 -2.58789 -5.93747e-20 
-5.8738 -2.59882 -1.94077e-19 
-5.66701 -2.5691 3.2217e-19 
-5.44586 -2.60645 -3.99987e-18 
-5.23056 -2.58474 2.61459e-18 
-5.01347 -2.59689 1.02593e-17 
-4.80049 -2.58756 1.42808e-17 
-4.58353 -2.59947 3.57843e-17 
-4.36482 -2.59669 8.61103e-17 
-4.14755 -2.59692 1.95904e-16 
-3.93811 -2.58255 2.2888e-16 
-3.72744 -2.5914 5.81596e-16 
-3.51048 -2.59042 1.63333e-15 
-3.28881 -2.59612 4.76513e-15 
-3.06322 -2.59073 1.16853e-13 
-2.83612 -2.5972 3.55028e-13 
-2.60313 -2.60151 1.05831e-12 
-2.3682 -2.60489 3.03695e-12 
-2.13547 -2.60369 8.48736e-12 
-1.9036 -2.62374 2.37734e-11 
-1.68244 -2.59261 6.07712e-11 
-1.50397 -2.60677 1.50027e-10 
-1.33359 -2.60709 3.66612e-10 
-1.19984 -2.48853 1.55669e-10 
-1.16342 -2.66739 7.82166e-10 
-0.985496 -2.65277 1.60601e-09 
-0.814147 -2.64261 2.68133e-09 
-0.584789 -2.70821 3.15739e-09 
-0.415185 -2.62657 1.83876e-09 
-0.288439 -2.78813 1.14122e-09 
0.254723 -2.73487 -1.43393e-09 
0.661119 -2.69562 -4.22717e-09 
0.847643 -2.67633 -2.93871e-09 
1.00153 -2.61051 -9.03476e-10 
1.13524 -2.62809 -6.99265e-10 
1.2572 -2.55919 -2.584e-10 
1.40524 -2.63533 -1.9971e-10 
1.58773 -2.60387 -9.92502e-11 
1.78909 -2.6202 -3.83587e-11 
2.02177 -2.61227 -1.39015e-11 
2.26226 -2.60333 -4.81909e-12 
2.4966 -2.60324 -1.41318e-12 
2.73862 -2.58212 -6.39975e-13 
2.97117 -2.59969 -1.47322e-13 
3.20118 -2.59541 -5.81782e-15 
3.43102 -2.59684 -1.92576e-15 
3.6426 -2.58184 -6.60276e-16 
3.85949 -2.59404 -2.50432e-16 
4.08383 -2.60389 -2.11528e-16 
4.29144 -2.57953 -9.5766e-17 
4.50631 -2.59835 -4.34126e-17 
4.71607 -2.58414 -2.24649e-17 
4.93015 -2.59494 -5.23465e-18 
5.14348 -2.59002 -2.85262e-18 
5.36349 -2.60109 -1.13424e-18 
5.57667 -2.58389 -4.24325e-19 
5.79433 -2.59906 3.70253e-20 
6.02065 -2.60103 -4.34879e-18 
6.23643 -2.57478 9.55436e-21 
6.45824 -2.60982 2.36062e-18 
6.68613 -2.58448 -3.31093e-18 
6.89734 -2.5661 -2.9088e-18 
7.12766 -2.62859 3.66322e-20 
7.37957 -2.59743 1.16103e-19 
7.61489 -2.60463 7.34765e-19 
7.87521 -2.63711 -8.00105e-18 
8.08183 -2.53696 -1.09701e-17 
8.30241 -2.63025 9.64878e-12 
8.48528 -2.53026 -3.16183e-12 
-8.48528 -2.35007 -1.05233e-11 
-8.24915 -2.35643 -1.81066e-11 
-8.0117 -2.35442 1.11228e-17 
-7.77128 -2.39708 -8.06676e-20 
-7.56613 -2.23555 1.40985e-19 
-7.49331 -2.44245 -2.44265e-19 
-7.20779 -2.41101 3.94272e-20 
-6.9766 -2.35419 3.69565e-18 
-6.73518 -2.37714 3.6044e-18 
-6.49452 -2.36522 -1.06689e-18 
-6.2627 -2.36491 4.89032e-18 
-6.03244 -2.35867 9.95822e-19 
-5.82266 -2.34573 6.56137e-18 
-5.58133 -2.35441 6.49039e-18 
-5.37091 -2.36398 8.88272e-19 
-5.14078 -2.3588 2.39835e-18 
-4.92606 -2.35761 5.28871e-18 
-4.70164 -2.36337 1.38444e-17 
-4.48309 -2.37068 3.44979e-17 
-4.26094 -2.36766 8.10358e-17 
-4.04931 -2.35185 1.76185e-16 
-3.83231 -2.34854 2.05379e-16 
-3.61836 -2.35761 5.73389e-16 
-3.39536 -2.36068 1.70928e-15 
-3.17282 -2.36169 5.03685e-15 
-2.94227 -2.36027 1.23439e-13 
-2.71368 -2.37111 3.81561e-13 
-2.48097 -2.3779 1.12411e-12 
-2.24859 -2.38134 3.10724e-12 
-2.01087 -2.39625 8.70448e-12 
-1.79264 -2.39709 1.70791e-11 
-1.57945 -2.35662 2.02848e-11 
-1.41203 -2.39176 2.69156e-11 
-1.26885 -2.29372 4.50143e-11 
-1.06321 -2.43346 2.45666e-10 
-0.925737 -2.4594 5.35379e-10 
-0.716765 -2.54405 1.15124e-09 
-0.569726 -2.52411 3.94727e-09 
-0.204148 -2.65964 7.59063e-10 
-0.0272008 -2.75759 6.78997e-10 
0.352392 -2.56839 -4.48152e-09 
0.474081 -2.67209 -3.78381e-09 
0.772579 -2.54271 -7.93195e-10 
0.928622 -2.47517 -6.27741e-10 
1.12016 -2.40836 -6.65398e-11 
1.21538 -2.27274 6.6315e-11 
1.36403 -2.40229 -8.14587e-11 
1.52766 -2.39222 -3.49065e-11 
1.72958 -2.40375 -1.99161e-11 
1.9466 -2.40904 -1.02442e-11 
2.1876 -2.39484 -3.94019e-12 
2.42655 -2.37066 -1.27593e-12 
2.65738 -2.36736 -4.404e-13 
2.9046 -2.36851 -1.30895e-13 
3.13326 -2.36319 -5.45657e-15 
3.36013 -2.36747 -1.82919e-15 
3.57779 -2.34216 -6.05791e-16 
3.79255 -2.35605 -2.16634e-16 
4.00976 -2.37551 -1.91021e-16 
4.21942 -2.34662 -7.89915e-17 
4.43853 -2.35915 -3.23838e-17 
4.6446 -2.35026 -1.48725e-17 
4.86154 -2.35774 -5.99636e-18 
5.07273 -2.3559 -2.52785e-18 
5.29165 -2.36935 -6.43966e-18 
5.50427 -2.35263 -2.74995e-18 
5.72619 -2.36092 -1.27841e-18 
5.94449 -2.374 1.38644e-19 
6.16245 -2.34593 -4.14965e-19 
6.39665 -2.3641 -1.38781e-19 
6.60909 -2.36237 2.12139e-19 
6.83415 -2.32043 2.09271e-19 
7.06781 -2.37925 1.28404e-19 
7.28807 -2.39682 8.3116e-20 
7.54762 -2.37018 8.57897e-20 
7.78832 -2.41836 2.71019e-19 
8.0007 -2.32071 -1.29873e-16 
8.26295 -2.36124 -1.5601e-11 
8.48528 -2.28217 6.45538e-12 
-8.48528 -2.11465 1.05481e-11 
-8.25623 -2.10655 1.41106e-12 
-8.04554 -2.11193 -2.36279e-16 
-7.80468 -2.15604 -1.52001e-19 
-7.50125 -2.03029 -7.29137e-20 
-7.30683 -2.23162 -4.72779e-20 
-7.06476 -2.13879 -1.9515e-18 
-6.80397 -2.14564 -1.1934e-18 
-6.58274 -2.14727 1.57351e-18 
-6.34665 -2.13759 -1.07398e-18 
-6.12339 -2.13028 -1.6657e-18 
-5.91011 -2.10162 -7.37746e-19 
-5.68871 -2.13572 -1.18173e-18 
-5.46666 -2.11425 -2.82325e-18 
-5.25553 -2.13825 -1.08547e-18 
-5.03725 -2.12111 -5.69084e-20 
-4.81992 -2.1335 -3.39554e-18 
-4.60333 -2.13527 -1.84087e-18 
-4.38969 -2.14199 -7.45378e-18 
-4.18233 -2.12276 -6.43145e-18 
-3.97111 -2.11673 -1.86089e-17 
-3.7587 -2.11396 -4.52949e-17 
-3.54585 -2.12751 -1.07749e-16 
-3.32888 -2.12614 -1.91613e-16 
-3.10677 -2.13155 -7.25692e-16 
-2.88048 -2.1288 -2.47149e-15 
-2.65525 -2.14256 -6.93885e-15 
-2.4266 -2.15065 -1.5038e-13 
-2.19119 -2.16564 -4.49183e-13 
-1.96706 -2.16787 -1.38304e-12 
-1.75916 -2.16909 1.22456e-14 
-1.58255 -2.09901 -8.85774e-12 
-1.41317 -2.13545 -1.50151e-11 
-1.23582 -2.08608 -3.66447e-11 
-1.09327 -2.25225 -3.27757e-11 
-0.914538 -2.22003 -9.96261e-11 
-0.798973 -2.37809 2.27738e-10 
-0.487503 -2.38447 -8.66391e-10 
-0.149864 -2.46457 6.35091e-09 
0.134382 -2.64566 -1.02318e-09 
0.187274 -2.48217 -7.66511e-09 
0.596449 -2.53427 -1.48966e-09 
0.730334 -2.37697 8.41551e-10 
0.936556 -2.31987 2.6585e-10 
1.02576 -2.17977 -5.72979e-11 
1.19797 -2.07119 1.29169e-11 
1.3898 -2.15903 1.53617e-11 
1.58288 -2.17411 6.48721e-12 
1.79256 -2.18898 2.75525e-13 
2.02691 -2.20052 -3.23283e-15 
2.26026 -2.1643 -2.73138e-15 
2.49422 -2.13317 3.2497e-15 
2.737 -2.15142 3.31485e-16 
2.96867 -2.13268 5.3942e-16 
3.19417 -2.12921 1.01969e-16 
3.40776 -2.12524 1.45101e-16 
3.62768 -2.10792 1.15367e-16 
3.84432 -2.12944 1.28972e-17 
4.04876 -2.13142 3.42073e-18 
4.27359 -2.1228 4.02275e-18 
4.4786 -2.11471 6.94387e-18 
4.69637 -2.1223 -9.2989e-19 
4.90776 -2.12042 -7.93298e-19 
5.12827 -2.13005 -2.50861e-18 
5.33781 -2.12898 -1.61675e-18 
5.56245 -2.1265 -1.25202e-18 
5.78265 -2.13061 -4.51573e-19 
5.99552 -2.13222 -1.01444e-18 
6.23688 -2.13118 -1.42171e-18 
6.45038 -2.11527 8.51493e-20 
6.66498 -2.11711 5.84695e-20 
6.92472 -2.11469 -3.40708e-20 
7.14107 -2.14043 -2.03285e-20 
7.37288 -2.18042 -4.97001e-20 
7.5674 -2.08427 -7.04772e-20 
7.75189 -2.1837 2.61037e-18 
7.96435 -2.0816 -1.02254e-17 
8.19388 -2.1426 1.52189e-12 
8.48528 -2.10103 3.81313e-12 
-8.48528 -1.7966 1.01222e-11 
-8.31784 -1.86763 -1.83407e-11 
[...]
POINT_DATA 1978 
VECTORS vectors float
-0.00166468 -0.00803363 0.999966 
0.000540412 -0.000606241 1 
-8.65879e-05 -0.00043855 1 
1.20626e-05 -0.000429831 1 
-5.82117e-07 -0.000421762 1 
3.9509e-07 -0.000411777 1 
1.22856e-07 -0.000403153 1 
1.13061e-07 -0.000401553 1 
1.19628e-07 -0.000403212 1 
-6.54093e-08 -0.000395847 1 
-2.17247e-08 -0.000367656 1 
-2.72253e-07 -0.00031407 1 
-1.09112e-07 -0.000221866 1 
-8.45418e-07 -9.68913e-05 1 
1.33464e-07 8.98673e-05 1 
-7.26893e-07 0.000279428 1 
-2.74425e-08 0.000510532 1 
-9.64674e-07 0.00083347 1 
-5.59533e-07 0.00134325 0.999999 
-1.03943e-06 0.00202489 0.999998 
-2.06496e-06 0.00290142 0.999996 
-3.11289e-06 0.00400138 0.999992 
-2.22312e-07 0.00555929 0.999985 
2.43399e-06 0.0077709 0.99997 
8.99942e-06 0.0110574 0.999939 
1.63137e-05 0.0158488 0.999874 
3.20016e-05 0.0233084 0.999728 
4.68305e-05 0.034585 0.999402 
3.71454e-05 0.0509357 0.998702 
5.24757e-05 0.0735485 0.997292 
-7.39674e-05 0.107181 0.99424 
-0.000225701 0.145564 0.989349 
-0.00077473 0.194239 0.980954 
-0.00153841 0.252752 0.96753 
-0.000915701 0.324582 0.945857 
-0.000698044 0.444128 0.895963 
-0.00250384 0.556123 0.831096 
-0.000794132 0.694564 0.71943 
0.000755337 0.866486 0.499201 
-0.000373073 0.91325 -0.407399 
0.00124255 0.76901 -0.639235 
0.000533826 0.60213 -0.798398 
0.00238397 0.467527 -0.883975 
0.00214017 0.381195 -0.924492 
0.00228367 0.303926 -0.952693 
0.00126984 0.247914 -0.968781 
0.000341783 0.186146 -0.982522 
0.000341282 0.141038 -0.990004 
1.62482e-05 0.101849 -0.9948 
6.02514e-06 0.0706935 -0.997498 
-7.85843e-05 0.0484301 -0.998827 
-1.17077e-05 0.0313548 -0.999508 
-1.90653e-05 0.0212898 -0.999773 
-4.53568e-06 0.014847 -0.99989 
-1.2923e-05 0.0103891 -0.999946 
-4.50046e-06 0.00731725 -0.999973 
-2.47577e-07 0.00518045 -0.999987 
2.11941e-06 0.00376497 -0.999993 
-7.60002e-08 0.00270335 -0.999996 
1.40101e-06 0.00185558 -0.999998 
2.60035e-06 0.00123682 -0.999999 
1.05547e-06 0.000734627 -1 
1.01041e-06 0.000422259 -1 
3.27715e-07 0.000224213 -1 
3.5666e-07 7.15132e-05 -1 
6.37364e-07 -9.31877e-05 -1 
3.92399e-07 -0.000229793 -1 
-2.32871e-07 -0.000323556 -1 
2.99873e-08 -0.000372167 -1 
-9.9193e-08 -0.000394513 -1 
-1.59499e-07 -0.000404523 -1 
1.32178e-09 -0.000409376 -1 
-1.94686e-07 -0.00041272 -1 
-3.08898e-07 -0.000418845 -1 
1.11026e-06 -0.000429263 -1 
-1.57556e-05 -0.000437586 -1 
0.000105338 -0.000447374 -1 
-0.000765514 -0.000531634 -1 
0.0017469 -0.0122768 -0.999923 
-0.037172 -0.0514801 0.997982 
-0.00153218 -0.0024044 0.999996 
-0.000165651 -0.000491767 1 
-9.50338e-05 -0.000440798 1 
-6.09407e-05 -0.000426823 1 
-4.2658e-05 -0.000408533 1 
-3.90922e-05 -0.000393089 1 
-4.34292e-05 -0.000379186 1 
-6.46707e-05 -0.000362183 1 
-9.82091e-05 -0.000335567 1 
-0.000149996 -0.00028434 1 
-0.000205311 -0.000210754 1 
-0.000299036 -8.88864e-05 1 
-0.00034559 5.02635e-05 1 
-0.000462379 0.00025578 1 
-0.000542956 0.000485999 1 
-0.000673904 0.000794689 0.999999 
-0.000777762 0.00120821 0.999999 
-0.000934454 0.00181063 0.999998 
-0.00111715 0.00262486 0.999996 
-0.00140888 0.00372603 0.999992 
-0.00172133 0.00522178 0.999985 
-0.00226976 0.00742662 0.99997 
-0.00304994 0.0105695 0.999939 
-0.00431101 0.0152107 0.999875 
-0.00587897 0.0218416 0.999744 
-0.00795621 0.0318486 0.999461 
-0.0105249 0.0465711 0.99886 
-0.0136789 0.0675277 0.997624 
-0.0166685 0.0969554 0.995149 
-0.0231223 0.138377 0.99011 
-0.0285383 0.185893 0.982155 
-0.0333921 0.245551 0.968808 
-0.0295654 0.310323 0.950171 
-0.0366263 0.345869 0.937568 
-0.0355838 0.443537 0.895549 
-0.0242688 0.561217 0.827313 
-0.0117589 0.735477 0.677447 
0.020387 0.834746 0.550258 
-0.00574622 0.940873 0.338712 
-0.00418467 0.923821 -0.382802 
0.0259547 0.675894 -0.736541 
0.0368806 0.543809 -0.838398 
0.0407252 0.43527 -0.899378 
0.0370852 0.341655 -0.939093 
0.0329957 0.273131 -0.961411 
0.0296845 0.214628 -0.976245 
0.0260116 0.161052 -0.986603 
0.0196139 0.115649 -0.993096 
0.014659 0.0795616 -0.996722 
0.0115251 0.0536817 -0.998492 
0.00854788 0.0360123 -0.999315 
0.00671528 0.0243936 -0.99968 
0.0045613 0.0165492 -0.999853 
0.00322083 0.0114822 -0.999929 
0.00226106 0.00795129 -0.999966 
0.00174878 0.00568108 -0.999982 
0.0013239 0.00396228 -0.999991 
0.00106629 0.00273777 -0.999996 
0.000993652 0.00195327 -0.999998 
0.000811623 0.00130048 -0.999999 
0.000722512 0.000859603 -0.999999 
0.000583316 0.000523291 -1 
0.000486541 0.000296093 -1 
0.00037727 9.99477e-05 -1 
0.000312819 -5.31016e-05 -1 
0.000223755 -0.000188545 -1 
0.000157478 -0.000277549 -1 
0.000117835 -0.000320915 -1 
7.06498e-05 -0.000361096 -1 
5.28566e-05 -0.000377009 -1 
4.5381e-05 -0.000391228 -1 
3.78265e-05 -0.000409473 -1 
5.63444e-05 -0.000426088 -1 
7.65074e-05 -0.000440218 -1 
9.5608e-05 -0.000449249 -1 
0.000223399 -0.000538747 -1 
0.00237003 -0.00366799 -0.99999 
0.0614786 -0.08301 -0.99465 
-0.0490874 -0.0586644 0.99707 
-0.00208768 -0.00271119 0.999994 
-0.000245666 -0.000518714 1 
-0.0001516 -0.00045927 1 
-0.00013182 -0.000459319 1 
-9.30677e-05 -0.000434702 1 
-6.66905e-05 -0.000408233 1 
-6.0875e-05 -0.000378874 1 
-6.76379e-05 -0.000350293 1 
-9.87226e-05 -0.000311805 1 
-0.000152466 -0.000262195 1 
-0.000229058 -0.000185106 1 
-0.000315334 -8.44291e-05 1 
-0.000432914 6.68909e-05 1 
-0.000542288 0.000239916 1 
-0.000675809 0.000488473 1 
-0.000808257 0.000781228 0.999999 
-0.000960383 0.00117566 0.999999 
-0.00112396 0.00169567 0.999998 
-0.0013166 0.00243724 0.999996 
-0.00154323 0.00344589 0.999993 
-0.00186853 0.004923 0.999986 
-0.00235455 0.00701306 0.999973 
-0.00311877 0.0101136 0.999944 
-0.0042341 0.0143989 0.999887 
-0.00582668 0.0206107 0.999771 
-0.0079103 0.0291766 0.999543 
-0.0103792 0.0416457 0.999079 
-0.0128952 0.0593722 0.998153 
-0.0157657 0.0849813 0.996258 
-0.0174565 0.117513 0.992918 
-0.0143502 0.160068 0.987002 
-0.0134128 0.209664 0.977681 
-0.00216673 0.258995 0.965876 
-0.0122921 0.358263 0.93354 
0.00236769 0.447513 0.894274 
0.00203511 0.606374 0.795177 
0.0226931 0.71436 0.69941 
0.0132109 0.960249 0.278831 
0.00189272 0.999995 -0.00252459 
-0.0208943 0.87846 -0.47736 
0.00824943 0.781834 -0.623432 
0.0124796 0.565551 -0.824619 
0.00765273 0.428218 -0.903643 
0.0110008 0.326969 -0.944971 
-0.00960461 0.262056 -0.965005 
0.0166217 0.222064 -0.97489 
0.0175834 0.17367 -0.984647 
0.0190719 0.12956 -0.991388 
0.0164413 0.0920517 -0.995618 
0.0133125 0.0639168 -0.997866 
0.0105091 0.0436657 -0.998991 
0.00824219 0.0305728 -0.999499 
0.00583709 0.0207231 -0.999768 
0.0041689 0.0145673 -0.999885 
0.00297859 0.0101065 -0.999944 
0.00216462 0.00709779 -0.999972 
0.00172426 0.00489405 -0.999987 
0.00145789 0.00339023 -0.999993 
0.00127876 0.00244496 -0.999996 
0.00112494 0.00170697 -0.999998 
0.000989728 0.00121059 -0.999999 
0.000846197 0.000811014 -0.999999 
0.000712797 0.000524087 -1 
0.000577452 0.000282277 -1 
0.000464143 0.000105176 -1 
0.000349817 -5.27247e-05 -1 
0.000252947 -0.000169075 -1 
0.000179267 -0.000237067 -1 
0.000116536 -0.000298759 -1 
8.14716e-05 -0.000335481 -1 
6.51538e-05 -0.000364267 -1 
6.36572e-05 -0.000399082 -1 
7.79734e-05 -0.000425296 -1 
0.000114913 -0.000450974 -1 
0.000150087 -0.000464645 -1 
0.000245168 -0.000520875 -1 
0.00218655 -0.00298528 -0.999993 
0.0390615 -0.050359 -0.997967 
-0.0858151 -0.0982465 0.991455 
-0.00312054 -0.00378629 0.999988 
-0.000319589 -0.000584549 1 
-0.000190409 -0.000488985 1 
-0.000136437 -0.000471569 1 
-9.15726e-05 -0.000427269 1 
-7.17903e-05 -0.000390246 1 
-6.60717e-05 -0.000341206 1 
-8.37308e-05 -0.000296467 1 
-0.00012785 -0.000233986 1 
-0.000193059 -0.000156408 1 
-0.000272597 -4.90102e-05 1 
-0.00037781 7.49739e-05 1 
-0.00048902 0.000261479 1 
-0.000606732 0.000465378 1 
-0.000722674 0.000748678 0.999999 
-0.000846534 0.00109217 0.999999 
-0.000969921 0.00154522 0.999998 
-0.00110153 0.0021425 0.999997 
-0.00122186 0.00295539 0.999995 
-0.00138531 0.00413555 0.99999 
-0.00160725 0.00587619 0.999981 
-0.00196446 0.00838957 0.999963 
-0.00242538 0.0119445 0.999926 
-0.0031471 0.0168289 0.999853 
-0.00398575 0.0235225 0.999715 
-0.00513854 0.0325276 0.999458 
-0.00610405 0.0451466 0.998962 
-0.00663826 0.0634568 0.997963 
-0.00553972 0.0871838 0.996177 
-0.00225569 0.117486 0.993072 
0.00930284 0.147451 0.989026 
0.0173711 0.190634 0.981508 
0.0372 0.23589 0.971067 
0.031838 0.312893 0.949255 
0.0591204 0.397011 0.915908 
0.0455595 0.524089 0.850444 
0.101742 0.758931 0.643174 
0.0394439 0.958719 0.281606 
-0.00557058 0.99397 -0.10951 
-0.0344155 0.951345 -0.306199 
-0.0256134 0.694814 -0.718733 
-0.0389986 0.536371 -0.843081 
-0.0389727 0.394687 -0.917989 
-0.0498446 0.318118 -0.94674 
-0.0426243 0.235685 -0.970894 
-0.01405 0.190795 -0.981529 
-0.0025743 0.147194 -0.989104 
0.004985 0.111914 -0.993705 
0.00673808 0.0792497 -0.996832 
0.00649488 0.0557144 -0.998426 
0.00542493 0.0394706 -0.999206 
0.00487348 0.02779 -0.999602 
0.00345219 0.0198513 -0.999797 
0.00260678 0.0141233 -0.999897 
0.0019714 0.0100029 -0.999948 
0.00151647 0.0068642 -0.999975 
0.00134147 0.00471056 -0.999988 
0.00121673 0.00336857 -0.999994 
0.00110395 0.00237923 -0.999997 
0.00100575 0.00175022 -0.999998 
0.000904849 0.00124854 -0.999999 
0.000793677 0.000881965 -0.999999 
0.000673699 0.00057772 -1 
0.000555464 0.000348658 -1 
0.000433447 0.000150076 -1 
0.000324607 -3.79852e-06 -1 
0.000233469 -0.000115809 -1 
0.00015196 -0.000207627 -1 
0.000100703 -0.00026587 -1 
7.24815e-05 -0.000316785 -1 
6.54687e-05 -0.000370787 -1 
7.89744e-05 -0.000411741 -1 
0.000106564 -0.000447844 -1 
0.000145563 -0.000479832 -1 
0.000175137 -0.000486885 -1 
0.000255094 -0.000536943 -1 
0.00124022 -0.00165855 -0.999998 
0.0478976 -0.0558933 -0.997287 
-0.083399 -0.120902 0.989155 
-0.00539091 -0.00754737 0.999957 
-0.000232467 -0.000535321 1 
-0.000176525 -0.000505824 1 
-0.000130025 -0.000484964 1 
-9.86497e-05 -0.000438988 1 
-8.25845e-05 -0.000422302 1 
-6.40043e-05 -0.000369506 1 
-5.75419e-05 -0.000309686 1 
-8.08763e-05 -0.00024722 1 
-0.000124786 -0.00016318 1 
-0.000188322 -6.26703e-05 1 
-0.00028447 7.1617e-05 1 
-0.000384556 0.000222369 1 
-0.000492617 0.000436475 1 
-0.000595957 0.00066762 1 
-0.000699116 0.000988354 0.999999 
-0.000795256 0.00138034 0.999999 
-0.000880111 0.00189702 0.999998 
-0.000939643 0.00256026 0.999996 
-0.000996496 0.00351759 0.999993 
-0.00105491 0.00493464 0.999987 
-0.0011218 0.00709157 0.999974 
-0.0011913 0.0100869 0.999948 
-0.00126189 0.0143238 0.999897 
-0.00131253 0.0198921 0.999801 
-0.00121636 0.0275073 0.999621 
-0.000943381 0.0375938 0.999293 
8.18945e-05 0.0521751 0.998638 
0.00343408 0.071473 0.997437 
0.0101082 0.0951673 0.99541 
0.0235058 0.12207 0.992243 
0.0421566 0.158149 0.986515 
0.067775 0.202829 0.976866 
0.0798964 0.28568 0.954989 
0.12171 0.341787 0.931863 
0.109949 0.47471 0.873248 
0.0861148 0.618141 0.781336 
0.0609735 0.870794 0.487852 
0.000615147 0.99985 -0.0173345 
-0.0554496 0.820972 -0.568269 
-0.0979263 0.668562 -0.737181 
-0.0875321 0.471149 -0.8777 
-0.114868 0.364524 -0.924082 
-0.0933431 0.272323 -0.957668 
-0.0742501 0.198068 -0.977372 
-0.0427743 0.169015 -0.984685 
-0.0243295 0.135783 -0.99044 
-0.012273 0.105307 -0.994364 
-0.00364914 0.0815186 -0.996665 
-0.000898295 0.0578689 -0.998324 
0.000280548 0.0412835 -0.999147 
0.00144843 0.0296469 -0.999559 
0.00128957 0.0217806 -0.999762 
0.00108139 0.0155286 -0.999879 
0.000944096 0.0110108 -0.999939 
0.000897362 0.00771522 -0.99997 
0.000916923 0.00522192 -0.999986 
0.000914607 0.00370793 -0.999993 
0.000925181 0.00270414 -0.999996 
0.00086484 0.00198034 -0.999998 
0.000818177 0.00146309 -0.999999 
0.000734269 0.00106673 -0.999999 
0.000644288 0.000747238 -1 
0.000535347 0.000496403 -1 
0.000432362 0.000285698 -1 
0.000323079 0.000110186 -1 
0.000228149 -2.26752e-05 -1 
0.000153069 -0.000134451 -1 
8.97743e-05 -0.000212759 -1 
5.93596e-05 -0.000282582 -1 
5.64405e-05 -0.000345735 -1 
7.35188e-05 -0.000406732 -1 
0.000104389 -0.000451719 -1 
0.000147353 -0.000496752 -1 
0.000200029 -0.000521747 -1 
0.00032846 -0.00064225 -1 
0.00303259 -0.00410341 -0.999987 
0.0719108 -0.0974225 -0.992642 
-0.0460554 -0.0903452 0.994845 
-0.00241986 -0.00450964 0.999987 
-0.000426611 -0.000763019 1 
-0.000219623 -0.000565037 1 
-0.000171739 -0.000528647 1 
-0.000103854 -0.000471118 1 
-6.00686e-05 -0.000399194 1 
-4.4721e-05 -0.000342122 1 
-4.47419e-05 -0.00025972 1 
-7.05353e-05 -0.000177957 1 
-0.000116352 -7.03747e-05 1 
-0.000197219 5.8237e-05 1 
-0.000285892 0.00021374 1 
-0.000382484 0.000384783 1 
-0.000472094 0.000612366 1 
-0.000565415 0.000864289 0.999999 
-0.000643401 0.00120386 0.999999 
-0.000709252 0.0016263 0.999998 
-0.000739058 0.00215521 0.999997 
-0.000744109 0.00287902 0.999996 
-0.000709418 0.00392513 0.999992 
-0.000629555 0.00550334 0.999985 
-0.000456755 0.00780047 0.999969 
-0.000207773 0.0110639 0.999939 
0.000257737 0.0153864 0.999882 
0.000925606 0.0210716 0.999778 
0.00213585 0.0283751 0.999595 
0.00379077 0.0384965 0.999252 
0.00710301 0.0522142 0.998611 
0.0137333 0.0691377 0.997513 
0.0248762 0.0869146 0.995905 
0.0435765 0.112839 0.992657 
0.0701694 0.141621 0.987431 
0.106552 0.154799 0.982183 
0.110544 0.227273 0.967536 
0.163879 0.242869 0.956116 
0.181175 0.431393 0.883785 
0.176915 0.59606 0.783207 
0.117298 0.919152 0.376032 
-0.0133095 0.998716 -0.0488749 
-0.117639 0.854817 -0.50542 
-0.152287 0.542504 -0.826134 
-0.183762 0.414532 -0.891288 
-0.167673 0.2852 -0.943688 
-0.125545 0.208598 -0.96991 
-0.092821 0.148331 -0.984572 
-0.0598035 0.131706 -0.989483 
-0.0380698 0.108451 -0.993373 
-0.0227541 0.0878884 -0.99587 
-0.0114879 0.0676815 -0.997641 
-0.00638355 0.0484608 -0.998805 
-0.00296078 0.0343158 -0.999407 
-0.00160001 0.0255709 -0.999672 
-0.000753264 0.0189119 -0.999821 
-0.000339362 0.0135944 -0.999908 
1.30339e-06 0.00963366 -0.999954 
0.000351984 0.00659678 -0.999978 
0.000529158 0.00461283 -0.999989 
0.000662594 0.00331182 -0.999994 
0.000728788 0.00247219 -0.999997 
0.000716357 0.00182793 -0.999998 
0.000684821 0.00138264 -0.999999 
0.0006174 0.00101704 -0.999999 
0.000538651 0.000734882 -1 
0.000442261 0.000500922 -1 
0.000351033 0.000298206 -1 
0.000253527 0.000135664 -1 
0.00016689 -6.54539e-06 -1 
0.000102932 -0.000116118 -1 
5.12233e-05 -0.000210511 -1 
3.61703e-05 -0.000297452 -1 
4.79967e-05 -0.000369173 -1 
7.10895e-05 -0.000431151 -1 
0.000104844 -0.000471419 -1 
0.000146914 -0.00051953 -1 
0.000197194 -0.000546811 -1 
0.000290409 -0.000664991 -1 
0.00272685 -0.00448934 -0.999986 
0.0499756 -0.0900308 -0.994684 
-0.0327126 -0.0892312 0.995473 
-0.00143296 -0.00393389 0.999991 
-0.000299075 -0.000711125 1 
-0.000170854 -0.000564349 1 
-0.00013904 -0.0005249 1 
-0.000102975 -0.000501161 1 
-7.005e-05 -0.000443245 1 
-3.72119e-05 -0.000376008 1 
-2.61782e-05 -0.000303341 1 
-2.74481e-05 -0.000206105 1 
-5.49599e-05 -0.000102782 1 
-0.000117581 3.74626e-05 1 
-0.000194192 0.000188047 1 
-0.000279023 0.000357119 1 
-0.000364091 0.000541216 1 
-0.000444768 0.000783577 1 
-0.000520576 0.00105352 0.999999 
-0.000577648 0.00141844 0.999999 
-0.000600983 0.00185561 0.999998 
-0.000590475 0.0024308 0.999997 
-0.0005255 0.00323365 0.999995 
-0.00038124 0.0044102 0.99999 
-0.000122639 0.00614578 0.999981 
0.0003098 0.00871619 0.999962 
0.000961068 0.012112 0.999926 
0.00197258 0.0165744 0.999861 
0.00346331 0.0221029 0.99975 
0.00576989 0.029506 0.999548 
0.009134 0.0392368 0.999188 
0.0151292 0.0510051 0.998584 
0.0250437 0.0624658 0.997733 
0.041131 0.0799706 0.995948 
0.0668463 0.0950549 0.993225 
0.0993993 0.0992128 0.990089 
0.14655 0.141611 0.979015 
0.210607 0.176431 0.961518 
0.219084 0.32228 0.920944 
0.277724 0.516631 0.809915 
0.174862 0.766365 0.618149 
-0.115094 0.93265 -0.341931 
-0.183511 0.692456 -0.697731 
-0.264504 0.524837 -0.809063 
-0.253754 0.320653 -0.912573 
-0.221368 0.182517 -0.957958 
-0.162064 0.16481 -0.97292 
-0.115711 0.112817 -0.986855 
-0.0698453 0.0959324 -0.992934 
-0.0458534 0.0818709 -0.995588 
-0.0287578 0.0676251 -0.997296 
-0.0172704 0.057204 -0.998213 
-0.0116812 0.0425622 -0.999026 
-0.00670852 0.0335731 -0.999414 
-0.0042714 0.0244357 -0.999692 
-0.002625 0.0184148 -0.999827 
-0.00158667 0.013562 -0.999907 
-0.000838626 0.00951563 -0.999954 
-0.00018534 0.00671032 -0.999977 
0.000174779 0.00469419 -0.999989 
0.000424118 0.00340937 -0.999994 
0.000556435 0.00255202 -0.999997 
0.000605645 0.0019667 -0.999998 
0.000587676 0.00147598 -0.999999 
0.000547297 0.00112804 -0.999999 
0.000475871 0.000836135 -1 
0.000398847 0.000606361 -1 
0.000314764 0.000398592 -1 
0.00023029 0.000231361 -1 
0.000147374 7.37609e-05 -1 
7.80235e-05 -5.91849e-05 -1 
3.53204e-05 -0.000168365 -1 
1.98066e-05 -0.000279571 -1 
3.50305e-05 -0.000370229 -1 
6.64618e-05 -0.000448419 -1 
0.00010796 -0.000502095 -1 
0.000137378 -0.000542898 -1 
0.000176507 -0.000565251 -1 
0.000222161 -0.000657671 -1 
0.00145291 -0.00326322 -0.999994 
0.040292 -0.0961583 -0.99455 
-0.0166516 -0.0910177 0.99571 
-0.000731882 -0.00396306 0.999992 
-0.000209734 -0.000672668 1 
-0.000135586 -0.000577494 1 
-0.000129311 -0.000546871 1 
-9.46624e-05 -0.000517317 1 
-6.20609e-05 -0.000455956 1 
-2.67764e-05 -0.000382904 1 
-9.41116e-06 -0.000285567 1 
-6.58751e-06 -0.000175586 1 
-3.98126e-05 -4.12997e-05 1 
-9.60666e-05 0.000114545 1 
-0.000168352 0.000278229 1 
-0.000245317 0.000448827 1 
-0.000328282 0.000640973 1 
-0.000390405 0.000871207 1 
-0.000457727 0.00114594 0.999999 
-0.000489917 0.00147957 0.999999 
-0.000493661 0.00190159 0.999998 
-0.000453162 0.00247609 0.999997 
-0.000335306 0.00325399 0.999995 
-0.00010859 0.00434117 0.999991 
0.000269616 0.00600113 0.999982 
0.000879253 0.00830423 0.999965 
0.00179455 0.0115066 0.999932 
0.0031646 0.0154353 0.999876 
0.00513837 0.0203576 0.99978 
0.00807728 0.0263728 0.99962 
0.0122714 0.0339537 0.999348 
0.018754 0.0413142 0.99897 
0.0301923 0.0509583 0.998244 
0.0473932 0.0599862 0.997073 
0.0701446 0.0622955 0.99559 
0.107712 0.0553013 0.992643 
0.15687 0.0794532 0.984418 
0.240081 0.106302 0.964915 
0.295576 0.27315 0.915437 
0.401689 0.44849 0.798438 
0.289158 0.78348 0.550043 
0.0152338 0.999303 0.0340927 
-0.289023 0.759168 -0.583207 
-0.379411 0.409884 -0.829483 
-0.321118 0.248744 -0.913789 
-0.216096 0.081608 -0.972956 
-0.153385 0.0818172 -0.984774 
-0.104303 0.0529102 -0.993137 
-0.0778874 0.0696781 -0.994524 
-0.0488259 0.057596 -0.997145 
-0.0317035 0.0508409 -0.998203 
-0.0201077 0.0439962 -0.998829 
-0.0125364 0.0329961 -0.999377 
-0.00782558 0.0267934 -0.99961 
-0.00512892 0.0198439 -0.99979 
-0.00336079 0.0150065 -0.999882 
-0.00203131 0.0110092 -0.999937 
-0.00100693 0.00760734 -0.999971 
-0.000356438 0.00547979 -0.999985 
7.60184e-05 0.00391208 -0.999992 
0.000331136 0.00293506 -0.999996 
0.000454775 0.00226689 -0.999997 
0.000513872 0.00176728 -0.999998 
0.000489615 0.00135892 -0.999999 
0.000451651 0.00105104 -0.999999 
0.000385617 0.000801958 -1 
0.000315864 0.00058044 -1 
0.000238401 0.000399383 -1 
0.000160608 0.000225334 -1 
8.78899e-05 7.13711e-05 -1 
3.30962e-05 -6.52437e-05 -1 
7.48016e-06 -0.000201932 -1 
8.51577e-06 -0.000316153 -1 
2.98074e-05 -0.000393844 -1 
5.65773e-05 -0.000463931 -1 
9.02127e-05 -0.000508266 -1 
0.000113869 -0.000547679 -1 
0.000141705 -0.000578005 -1 
0.000172176 -0.000725653 -1 
0.00142001 -0.00510859 -0.999986 
0.0218896 -0.107235 -0.993993 
0.00199264 -0.0835615 0.9965 
6.0532e-05 -0.00371234 0.999993 
-0.000135776 -0.00070857 1 
-9.2067e-05 -0.000570054 1 
-0.000103064 -0.00055097 1 
-7.83022e-05 -0.000527789 1 
-5.79104e-05 -0.000477898 1 
-2.52477e-05 -0.000413273 1 
2.20947e-07 -0.000303716 1 
9.18716e-06 -0.000169632 1 
-1.61662e-05 -1.49115e-05 1 
-6.2643e-05 0.000150712 1 
-0.000128284 0.000321666 1 
-0.000199645 0.000495549 1 
-0.000274057 0.000673621 1 
-0.000326566 0.000884695 1 
-0.000383361 0.00113352 0.999999 
-0.000409623 0.00143236 0.999999 
-0.000408759 0.00181846 0.999998 
-0.000354658 0.00230969 0.999997 
-0.000223413 0.00296276 0.999996 
1.61589e-05 0.00388237 0.999992 
0.000418585 0.00521755 0.999986 