# vtk DataFile Version 3.0 
Exported using Morpho https://github.com/Morpho-lang/morpho 
ASCII 
DATASET UNSTRUCTURED_GRID 

POINTS 1978 float 
-8.48528 -2.82842 -5.90294e-12 
-8.26043 -2.82843 6.53429e-13 
-8.03431 -2.82843 -3.19061e-15 
-7.78767 -2.82843 -4.60414e-14 
-7.50453 -2.82843 -4.76597e-14 
-7.25046 -2.82843 -5.68689e-14 
-7.00108 -2.82843 -3.41884e-15 
-6.7854 -2.82843 -3.35469e-14 
-6.5603 -2.82843 -1.63727e-14 
-6.35163 -2.82843 -2.08675e-14 
-6.13812 -2.82843 -2.74915e-14 
-5.93236 -2.82843 3.28099e-14 
-5.71246 -2.82843 9.9818e-15 
-5.51687 -2.82843 -3.04869e-15 
-5.29045 -2.82843 3.72959e-14 
-5.08431 -2.82843 8.16127e-15 
-4.8683 -2.82843 -2.28799e-14 
-4.66171 -2.82843 -1.92147e-13 
-4.44531 -2.82843 -2.7687e-13 
-4.23181 -2.82843 -4.27544e-13 
-4.01862 -2.82843 -2.90902e-13 
-3.81729 -2.82843 -1.58383e-13 
-3.60655 -2.82843 -3.45064e-13 
-3.39399 -2.82843 -4.95711e-13 
-3.17255 -2.82843 -7.08957e-14 
-2.95251 -2.82843 -3.1113e-13 
-2.72524 -2.82843 -2.5616e-12 
-2.49489 -2.82843 -5.9327e-12 
-2.26483 -2.82843 -1.20115e-11 
-2.04299 -2.82843 -2.32902e-11 
-1.81081 -2.82843 -3.7134e-11 
-1.62178 -2.82843 -1.23445e-10 
-1.45277 -2.82843 -2.01875e-10 
-1.3057 -2.82843 -2.69668e-10 
-1.16215 -2.82843 2.22259e-10 
-0.965328 -2.82843 4.05393e-09 
-0.818759 -2.82843 1.05055e-08 
-0.659149 -2.82843 3.26144e-08 
-0.446131 -2.82843 3.50031e-08 
0.352213 -2.82843 1.71196e-08 
0.548528 -2.82843 -4.46284e-08 
0.745113 -2.82843 -1.64224e-08 
0.911498 -2.82843 -2.01683e-09 
1.0407 -2.82843 1.07342e-10 
1.17631 -2.82843 1.30771e-10 
1.29633 -2.82843 1.38942e-10 
1.46781 -2.82843 2.31567e-10 
1.63611 -2.82843 1.19058e-10 
1.83816 -2.82843 3.9112e-11 
2.05641 -2.82843 1.72721e-11 
2.28165 -2.82843 8.8623e-12 
2.51848 -2.82843 4.77725e-12 
2.73296 -2.82843 3.20596e-12 
2.94619 -2.82843 2.82491e-13 
3.17448 -2.82843 -3.18012e-13 
3.39712 -2.82843 4.39072e-13 
3.6175 -2.82843 4.76609e-13 
3.82084 -2.82843 3.1333e-13 
4.03289 -2.82843 3.05989e-13 
4.25312 -2.82843 3.14413e-13 
4.45143 -2.82843 2.57265e-13 
4.6656 -2.82843 1.56454e-13 
4.86771 -2.82843 6.84244e-14 
5.07907 -2.82843 -4.09125e-14 
5.28648 -2.82843 -3.79983e-14 
5.50416 -2.82843 -7.32398e-15 
5.70776 -2.82843 -2.04391e-14 
5.9263 -2.82843 -4.08495e-15 
6.1487 -2.82843 1.78913e-14 
6.35046 -2.82843 1.64314e-14 
6.58715 -2.82843 2.30567e-14 
6.80178 -2.82843 3.51499e-14 
7.00359 -2.82843 -1.19817e-15 
7.26955 -2.82843 4.99293e-14 
7.50268 -2.82843 3.40469e-14 
7.74181 -2.82843 2.67696e-14 
8.0232 -2.82843 1.25557e-14 
8.20792 -2.82843 -9.71144e-13 
8.48528 -2.82842 -8.72136e-12 
-8.48528 -2.58922 2.76087e-11 
-8.25866 -2.59141 -9.70351e-12 
-8.02897 -2.59022 -5.89158e-16 
-7.7853 -2.6064 1.80189e-18 
-7.53302 -2.64341 -7.80073e-19 
-7.25014 -2.6169 -9.42611e-19 
-7.0009 -2.59861 -2.5425e-17 
-6.77392 -2.59941 -6.52059e-17 
-6.54449 -2.59064 -3.52919e-19 
-6.31699 -2.59591 -1.27907e-18 
-6.09539 -2.58775 -1.64685e-19 
-5.87337 -2.59884 -1.41487e-18 
-5.66663 -2.56905 2.53863e-18 
-5.44565 -2.60642 -3.71549e-17 
-5.2305 -2.58475 1.86788e-17 
-5.01352 -2.5969 8.20746e-17 
-4.80062 -2.58754 1.0024e-16 
-4.58371 -2.59947 2.50232e-16 
-4.365 -2.59673 6.03642e-16 
-4.14773 -2.59695 1.37447e-15 
-3.93833 -2.58257 1.13156e-15 
-3.72765 -2.59145 2.87677e-15 
-3.51071 -2.59036 8.08147e-15 
-3.28907 -2.5961 2.35887e-14 
-3.06347 -2.59068 7.1125e-14 
-2.83633 -2.59714 2.16111e-13 
-2.60334 -2.60144 6.44215e-13 
-2.36852 -2.60489 1.84857e-12 
-2.13611 -2.60399 5.16665e-12 
-1.90435 -2.62396 1.44694e-11 
-1.68268 -2.5925 3.69931e-11 
-1.50252 -2.60545 9.12996e-11 
-1.33135 -2.60644 2.22907e-10 
-1.19406 -2.49289 9.30839e-11 
-1.16114 -2.6691 4.83289e-10 
-0.982339 -2.65176 9.70068e-10 
-0.813487 -2.64461 1.63268e-09 
-0.581819 -2.70665 1.92145e-09 
-0.408811 -2.62497 1.12425e-09 
-0.288696 -2.78913 7.56925e-10 
0.258896 -2.73116 -8.71753e-10 
0.663249 -2.69602 -2.5725e-09 
0.84349 -2.68112 -1.7978e-09 
0.996405 -2.61192 -5.35846e-10 
1.1306 -2.62392 -4.25337e-10 
1.25471 -2.56215 -1.56517e-10 
1.40069 -2.63253 -1.21566e-10 
1.58753 -2.60416 -6.05709e-11 
1.79047 -2.62048 -2.33397e-11 
2.02117 -2.61238 -8.45697e-12 
2.26295 -2.60346 -2.93383e-12 
2.50165 -2.59708 -8.44286e-13 
2.73355 -2.59055 -4.00649e-13 
2.97216 -2.59933 -8.97503e-14 
3.20255 -2.59515 -2.86145e-14 
3.43114 -2.59689 -9.53986e-15 
3.6428 -2.58184 -3.26885e-15 
3.85968 -2.59405 -1.23804e-15 
4.08393 -2.60393 -1.48155e-15 
4.29148 -2.57948 -6.72532e-16 
4.50636 -2.59836 -3.04154e-16 
4.71613 -2.58415 -1.66903e-16 
4.93022 -2.59496 -3.39192e-17 
5.14354 -2.59006 -2.05279e-17 
5.36356 -2.60111 -8.28071e-18 
5.57673 -2.58391 -3.30112e-18 
5.79439 -2.59912 7.97099e-20 
6.02071 -2.60104 -3.91504e-17 
6.23645 -2.57477 -2.55574e-19 
6.45824 -2.60989 2.09782e-17 
6.68613 -2.58447 -2.96046e-17 
6.8973 -2.56609 -2.60081e-17 
7.12756 -2.62859 3.48692e-19 
7.37956 -2.59756 9.9718e-19 
7.61499 -2.60475 6.55913e-18 
7.87501 -2.63735 -7.13365e-17 
8.08151 -2.53696 -1.23664e-16 
8.30216 -2.63031 5.87108e-12 
8.48528 -2.53027 -1.90509e-11 
-8.48528 -2.35006 -5.31216e-11 
-8.2504 -2.35303 -1.37657e-11 
-8.0132 -2.35421 7.64324e-17 
-7.77193 -2.39495 -6.06581e-19 
-7.5642 -2.23719 1.27128e-18 
-7.49262 -2.44357 -2.15686e-18 
-7.20816 -2.41105 3.64342e-19 
-6.97608 -2.35542 3.30733e-17 
-6.73545 -2.37527 3.22849e-17 
-6.49442 -2.36558 -9.46605e-18 
-6.26244 -2.36497 4.39082e-17 
-6.032 -2.35849 9.11006e-18 
-5.82236 -2.34572 5.88461e-17 
-5.5811 -2.35429 5.76725e-17 
-5.37075 -2.36392 6.35753e-18 
-5.14071 -2.35882 1.71064e-17 
-4.92602 -2.35759 3.76944e-17 
-4.70159 -2.36336 9.85501e-17 
-4.48301 -2.37072 2.4544e-16 
-4.26083 -2.36773 5.76463e-16 
-4.04919 -2.35183 1.25289e-15 
-3.83219 -2.34862 1.01333e-15 
-3.61831 -2.35761 2.83035e-15 
-3.39525 -2.36058 8.4358e-15 
-3.17272 -2.36164 2.48652e-14 
-2.94205 -2.36023 7.51059e-14 
-2.71331 -2.37102 2.32137e-13 
-2.48064 -2.37788 6.83862e-13 
-2.24869 -2.38126 1.89034e-12 
-2.01166 -2.39669 5.29594e-12 
-1.79408 -2.3972 1.03835e-11 
-1.58194 -2.3557 1.23585e-11 
-1.41304 -2.38878 1.6713e-11 
-1.26741 -2.29984 2.74467e-11 
-1.06112 -2.43124 1.51249e-10 
-0.923694 -2.45659 3.27295e-10 
-0.719523 -2.54453 7.00905e-10 
-0.571786 -2.52538 2.40133e-09 
-0.198191 -2.66116 4.65151e-10 
-0.023331 -2.75701 3.61005e-10 
0.350638 -2.5697 -2.97957e-09 
0.481973 -2.67581 -2.29685e-09 
0.76539 -2.54477 -4.76067e-10 
0.926825 -2.46689 -3.96286e-10 
1.11717 -2.41759 -3.87013e-11 
1.21706 -2.27649 3.94449e-11 
1.3643 -2.40088 -4.98026e-11 
1.53167 -2.39192 -2.13524e-11 
1.73023 -2.40449 -1.20933e-11 
1.94534 -2.40879 -6.22259e-12 
2.18727 -2.39457 -2.39989e-12 
2.42607 -2.37209 -7.7675e-13 
2.65642 -2.36713 -2.68076e-13 
2.90516 -2.36747 -7.97181e-14 
3.13452 -2.36256 -2.71294e-14 
3.36006 -2.36762 -8.9631e-15 
3.57792 -2.34213 -2.99072e-15 
3.79272 -2.35605 -1.07016e-15 
4.00978 -2.37556 -1.35758e-15 
4.21938 -2.34654 -5.61552e-16 
4.43853 -2.35915 -2.3037e-16 
4.64461 -2.35028 -1.05741e-16 
4.86155 -2.35777 -4.26977e-17 
5.07274 -2.35593 -1.7976e-17 
5.29164 -2.3694 -5.5798e-17 
5.50427 -2.35262 -2.39395e-17 
5.72618 -2.36099 -1.14557e-17 
5.94444 -2.37407 1.07276e-18 
6.16239 -2.34588 -3.88428e-18 
6.39655 -2.36414 -1.34481e-18 
6.60893 -2.36246 1.8373e-18 
6.83402 -2.3204 1.84777e-18 
7.06766 -2.37914 1.12426e-18 
7.28793 -2.397 7.18577e-19 
7.54776 -2.37059 7.21935e-19 
7.78855 -2.41838 2.24104e-18 
8.0006 -2.32043 -8.90339e-16 
8.26251 -2.36151 -9.4921e-12 
8.48528 -2.28217 4.25199e-11 
-8.48528 -2.11466 4.87767e-11 
-8.25559 -2.10664 4.00181e-12 
-8.04369 -2.11321 -1.62478e-15 
-7.80339 -2.1553 -1.29031e-18 
-7.50273 -2.03067 -6.30926e-19 
-7.30589 -2.23201 -3.93769e-19 
-7.06393 -2.13733 -1.74247e-17 
-6.80414 -2.14431 -1.06386e-17 
-6.58332 -2.14788 1.41251e-17 
-6.34667 -2.13767 -9.51763e-18 
-6.12311 -2.13025 -1.47439e-17 
-5.90985 -2.10138 -6.38101e-18 
-5.68869 -2.13568 -1.03355e-17 
-5.4667 -2.11418 -2.5073e-17 
-5.25558 -2.1382 -9.81384e-18 
-5.03735 -2.12112 -5.13619e-19 
-4.81997 -2.13348 -3.03123e-17 
-4.60331 -2.1353 -1.59667e-17 
-4.3896 -2.14206 -6.53412e-17 
-4.18223 -2.12281 -4.57356e-17 
-3.97099 -2.11673 -1.32277e-16 
-3.75871 -2.11391 -3.21869e-16 
-3.54589 -2.12754 -7.60235e-16 
-3.32897 -2.12595 -9.4679e-16 
-3.10688 -2.13153 -3.57968e-15 
-2.88057 -2.1287 -1.21748e-14 
-2.65516 -2.14244 -3.45657e-14 
-2.42653 -2.15055 -9.1692e-14 
-2.19136 -2.16555 -2.73525e-13 
-1.96799 -2.16808 -8.42506e-13 
-1.75982 -2.16817 -3.09713e-14 
-1.58038 -2.10005 -5.39551e-12 
-1.41024 -2.13393 -9.10595e-12 
-1.23449 -2.08918 -2.2363e-11 
-1.09282 -2.25126 -2.10379e-11 
-0.91412 -2.22167 -6.29592e-11 
-0.795979 -2.37737 1.39245e-10 
-0.487833 -2.38402 -5.3126e-10 
-0.162214 -2.46925 3.81668e-09 
0.138072 -2.63526 -6.63755e-10 
0.173572 -2.47319 -4.69006e-09 
0.590361 -2.53817 -9.13886e-10 
0.734488 -2.38492 5.49457e-10 
0.934558 -2.30506 1.47304e-10 
1.02999 -2.19102 -2.11862e-11 
1.19575 -2.07295 7.90065e-12 
1.38955 -2.15541 9.01787e-12 
1.58308 -2.17366 3.98683e-12 
1.79168 -2.1906 2.01073e-13 
2.02751 -2.19966 -3.78633e-14 
2.26135 -2.16488 -5.9999e-16 
2.49454 -2.13283 1.148e-14 
2.73675 -2.15317 3.74738e-15 
2.96951 -2.13086 1.85065e-15 
3.19412 -2.12934 7.40528e-16 
3.40774 -2.1253 1.04328e-15 
3.62776 -2.10774 8.18284e-16 
3.8442 -2.12949 9.36565e-17 
4.04857 -2.13143 2.47728e-17 
4.27351 -2.12274 2.86131e-17 
4.47855 -2.11472 5.97529e-17 
4.69633 -2.1223 -9.14836e-18 
4.90774 -2.12045 -7.32751e-18 
5.12825 -2.13005 -2.25359e-17 
5.33779 -2.12905 -1.46067e-17 
5.5625 -2.12652 -1.14604e-17 
5.78265 -2.13064 -4.30033e-18 
5.99549 -2.13232 -9.30623e-18 
6.23695 -2.13116 -1.28369e-17 
6.45042 -2.11526 6.93913e-19 
6.66504 -2.11723 4.72305e-19 
6.92491 -2.1147 -3.36433e-19 
7.14138 -2.14039 -2.07786e-19 
7.37307 -2.18081 -4.54094e-19 
7.56687 -2.08407 -6.43873e-19 
7.75137 -2.1836 2.33335e-17 
7.96485 -2.08211 -7.49161e-17 
8.19499 -2.1426 9.26711e-13 
8.48528 -2.10103 2.67104e-11 
-8.48528 -1.7966 7.17545e-11 
-8.31738 -1.86828 -1.11489e-11 
-7.90004 -1.90782 5.93884e-19 
[...]
POINT_DATA 1978 
VECTORS vectors float
-0.00181203 -0.00803184 0.999966 
0.000569599 -0.000603073 1 
-7.1839e-05 -0.000438277 1 
1.0158e-05 -0.000429856 1 
3.196e-07 -0.000421763 1 
5.86824e-07 -0.000411784 1 
2.46326e-07 -0.000403164 1 
2.03307e-07 -0.000401573 1 
2.11511e-07 -0.000403247 1 
1.49152e-08 -0.000395896 1 
9.04465e-08 -0.000367714 1 
-1.39442e-07 -0.000314138 1 
7.09914e-08 -0.000221944 1 
-6.64172e-07 -9.69676e-05 1 
5.49658e-07 8.97963e-05 1 
-3.25177e-07 0.000279343 1 
5.68237e-07 0.000510397 1 
-3.1685e-07 0.000833295 1 
3.63326e-07 0.00134307 0.999999 
-8.09274e-09 0.00202469 0.999998 
-1.08351e-06 0.00290115 0.999996 
-1.7254e-06 0.00400098 0.999992 
2.94069e-06 0.00555866 0.999985 
8.50925e-06 0.00776993 0.99997 
1.98423e-05 0.011056 0.999939 
3.44287e-05 0.0158467 0.999874 
6.15724e-05 0.0233056 0.999728 
8.76662e-05 0.0345815 0.999402 
8.42028e-05 0.0509315 0.998702 
0.000103135 0.0735434 0.997292 
-5.86149e-05 0.107175 0.99424 
-0.000273866 0.145556 0.98935 
-0.000950389 0.194229 0.980956 
-0.00181641 0.252741 0.967532 
-0.00112143 0.324562 0.945864 
-0.000908248 0.444112 0.895971 
-0.00292607 0.556112 0.831102 
-0.000901298 0.694581 0.719414 
0.00133659 0.86647 0.499228 
-0.000273072 0.913309 -0.407267 
0.00142126 0.76903 -0.639211 
0.000717075 0.602116 -0.798409 
0.00281463 0.4675 -0.883989 
0.00259113 0.381179 -0.924498 
0.00270186 0.303913 -0.952696 
0.00153641 0.247904 -0.968783 
0.000443266 0.186137 -0.982524 
0.0003901 0.14103 -0.990005 
-9.21762e-07 0.101843 -0.9948 
-3.31675e-05 0.0706884 -0.997498 
-0.000130551 0.0484264 -0.998827 
-4.32282e-05 0.031351 -0.999508 
-3.83508e-05 0.0212868 -0.999773 
-1.723e-05 0.0148449 -0.99989 
-2.37837e-05 0.0103877 -0.999946 
-1.12151e-05 0.00731634 -0.999973 
-3.54163e-06 0.00517986 -0.999987 
4.96773e-07 0.00376461 -0.999993 
-1.59012e-06 0.00270312 -0.999996 
5.52015e-07 0.00185542 -0.999998 
2.32793e-06 0.00123665 -0.999999 
6.91624e-07 0.000734449 -1 
6.90787e-07 0.000422109 -1 
-3.07921e-08 0.000224119 -1 
6.21581e-08 7.14561e-05 -1 
4.7161e-07 -9.32501e-05 -1 
2.27075e-07 -0.00022987 -1 
-4.83682e-07 -0.000323628 -1 
-1.26287e-07 -0.000372222 -1 
-2.27343e-07 -0.000394556 -1 
-2.76038e-07 -0.000404555 -1 
-6.64503e-08 -0.000409398 -1 
-3.25632e-07 -0.000412734 -1 
-4.377e-07 -0.000418853 -1 
3.31157e-07 -0.000429264 -1 
-1.24981e-05 -0.000437619 -1 
8.86615e-05 -0.000447055 -1 
-0.000828372 -0.000528632 -1 
0.00192684 -0.0122885 -0.999922 
-0.0371567 -0.0514994 0.997981 
-0.00150812 -0.00237099 0.999996 
-0.000164734 -0.00049049 1 
-9.50451e-05 -0.000440785 1 
-6.09696e-05 -0.000426833 1 
-4.26634e-05 -0.000408543 1 
-3.90984e-05 -0.000393103 1 
-4.34349e-05 -0.000379203 1 
-6.46874e-05 -0.000362206 1 
-9.82406e-05 -0.000335597 1 
-0.00015005 -0.000284373 1 
-0.000205387 -0.000210796 1 
-0.00029915 -8.89228e-05 1 
-0.000345731 5.02213e-05 1 
-0.000462563 0.000255743 1 
-0.000543176 0.000485949 1 
-0.000674185 0.000794622 0.999999 
-0.000778105 0.00120812 0.999999 
-0.000934871 0.00181052 0.999998 
-0.00111765 0.00262471 0.999996 
-0.00140949 0.00372582 0.999992 
-0.0017221 0.00522148 0.999985 
-0.00227082 0.0074262 0.99997 
-0.00305145 0.0105689 0.999939 
-0.00431327 0.0152098 0.999875 
-0.00588231 0.0218404 0.999744 
-0.00796107 0.031847 0.999461 
-0.0105318 0.0465692 0.99886 
-0.0136883 0.0675253 0.997624 
-0.0166807 0.0969522 0.995149 
-0.0231385 0.138372 0.99011 
-0.0285621 0.185892 0.982155 
-0.0334165 0.24553 0.968813 
-0.0295917 0.310341 0.950165 
-0.036664 0.345903 0.937554 
-0.0356324 0.443552 0.89554 
-0.0243095 0.561244 0.827293 
-0.0118016 0.735472 0.677452 
0.0203853 0.83472 0.550297 
-0.00582223 0.940856 0.338758 
-0.00418545 0.923708 -0.383075 
0.0260087 0.675921 -0.736515 
0.0369296 0.543855 -0.838367 
0.0407708 0.435326 -0.899349 
0.0371149 0.341654 -0.939093 
0.0330146 0.27312 -0.961413 
0.0297122 0.214626 -0.976244 
0.026032 0.161052 -0.986603 
0.0196283 0.115645 -0.993097 
0.0146688 0.079559 -0.996722 
0.011533 0.053679 -0.998492 
0.00855307 0.0360101 -0.999315 
0.00671921 0.0243922 -0.99968 
0.00456376 0.0165482 -0.999853 
0.00322245 0.0114815 -0.999929 
0.00226212 0.00795085 -0.999966 
0.00174955 0.00568077 -0.999982 
0.00132447 0.00396205 -0.999991 
0.00106677 0.00273762 -0.999996 
0.000994105 0.00195318 -0.999998 
0.000811988 0.00130039 -0.999999 
0.000722822 0.00085953 -0.999999 
0.000583553 0.00052323 -1 
0.000486733 0.000296054 -1 
0.000377418 9.99162e-05 -1 
0.00031294 -5.31388e-05 -1 
0.000223839 -0.000188589 -1 
0.000157535 -0.000277588 -1 
0.000117873 -0.000320945 -1 
7.06708e-05 -0.000361122 -1 
5.28693e-05 -0.000377027 -1 
4.53883e-05 -0.000391242 -1 
3.7834e-05 -0.000409484 -1 
5.63557e-05 -0.000426099 -1 
7.65311e-05 -0.000440229 -1 
9.55654e-05 -0.00044921 -1 
0.000221684 -0.000536241 -1 
0.00233164 -0.00361281 -0.999991 
0.0614597 -0.0830138 -0.99465 
-0.0490544 -0.0586593 0.997072 
-0.00205768 -0.00267536 0.999994 
-0.00024462 -0.000517409 1 
-0.000151609 -0.000459264 1 
-0.000131825 -0.000459337 1 
-9.30727e-05 -0.000434719 1 
-6.66925e-05 -0.000408247 1 
-6.08752e-05 -0.000378884 1 
-6.76417e-05 -0.000350305 1 
-9.87314e-05 -0.000311819 1 
-0.000152488 -0.000262215 1 
-0.000229097 -0.000185125 1 
-0.000315388 -8.44517e-05 1 
-0.000432998 6.68714e-05 1 
-0.000542401 0.0002399 1 
-0.000675947 0.000488461 1 
-0.000808424 0.000781218 0.999999 
-0.000960591 0.00117564 0.999999 
-0.00112422 0.00169564 0.999998 
-0.00131689 0.00243717 0.999996 
-0.00154354 0.00344578 0.999993 
-0.00186889 0.00492282 0.999986 
-0.00235504 0.0070129 0.999973 
-0.0031195 0.0101135 0.999944 
-0.00423524 0.0143988 0.999887 
-0.00582847 0.0206106 0.999771 
-0.00791313 0.0291764 0.999543 
-0.0103834 0.0416456 0.999078 
-0.0129008 0.0593725 0.998153 
-0.0157737 0.084982 0.996258 
-0.0174658 0.117513 0.992918 
-0.0143597 0.160064 0.987002 
-0.0134123 0.209654 0.977684 
-0.0021885 0.25901 0.965872 
-0.0123167 0.358238 0.933549 
0.0023594 0.447502 0.89428 
0.00201512 0.606353 0.795193 
0.022655 0.714353 0.699419 
0.0132119 0.960242 0.278857 
0.00191761 0.999994 -0.0027281 
-0.0208903 0.878483 -0.477317 
0.00828913 0.781763 -0.62352 
0.0125076 0.565563 -0.82461 
0.00766366 0.428171 -0.903665 
0.0110231 0.326981 -0.944967 
-0.00960254 0.262052 -0.965006 
0.0166317 0.222061 -0.974891 
0.0175923 0.17367 -0.984647 
0.0190828 0.129563 -0.991388 
0.0164493 0.0920505 -0.995618 
0.0133187 0.0639181 -0.997866 
0.0105135 0.0436651 -0.998991 
0.00824538 0.0305728 -0.999499 
0.0058389 0.0207228 -0.999768 
0.00417005 0.0145672 -0.999885 
0.00297931 0.0101064 -0.999944 
0.00216499 0.00709759 -0.999972 
0.00172458 0.00489384 -0.999987 
0.00145822 0.00339008 -0.999993 
0.00127903 0.00244489 -0.999996 
0.00112519 0.00170694 -0.999998 
0.000989936 0.00121057 -0.999999 
0.000846376 0.000811001 -0.999999 
0.00071294 0.000524078 -1 
0.000577571 0.000282266 -1 
0.00046423 0.00010516 -1 
0.000349881 -5.27473e-05 -1 
0.000252992 -0.000169099 -1 
0.000179294 -0.000237086 -1 
0.000116551 -0.000298774 -1 
8.14781e-05 -0.000335493 -1 
6.51549e-05 -0.000364278 -1 
6.36588e-05 -0.000399093 -1 
7.79786e-05 -0.000425312 -1 
0.000114926 -0.000450992 -1 
0.000150094 -0.000464639 -1 
0.000244358 -0.000519818 -1 
0.00215283 -0.002941 -0.999993 
0.0390486 -0.050328 -0.997968 
-0.0857958 -0.0982568 0.991455 
-0.00306802 -0.00372575 0.999988 
-0.000317457 -0.000582043 1 
-0.000190386 -0.000488964 1 
-0.000136447 -0.000471591 1 
-9.1574e-05 -0.000427284 1 
-7.17859e-05 -0.000390256 1 
-6.60665e-05 -0.000341214 1 
-8.37271e-05 -0.000296479 1 
-0.000127852 -0.000233998 1 
-0.000193067 -0.000156426 1 
-0.000272612 -4.9027e-05 1 
-0.000377838 7.49542e-05 1 
-0.000489058 0.000261467 1 
-0.000606787 0.000465372 1 
-0.000722733 0.000748676 0.999999 
-0.000846602 0.00109216 0.999999 
-0.000969993 0.0015452 0.999998 
-0.00110161 0.00214247 0.999997 
-0.00122192 0.0029553 0.999995 
-0.00138538 0.00413539 0.99999 
-0.00160732 0.00587599 0.999981 
-0.00196455 0.00838944 0.999963 
-0.00242548 0.0119445 0.999926 
-0.00314732 0.016829 0.999853 
-0.00398611 0.0235226 0.999715 
-0.00513926 0.0325276 0.999458 
-0.00610525 0.0451463 0.998962 
-0.0066399 0.0634567 0.997963 
-0.00554172 0.087183 0.996177 
-0.00225739 0.117485 0.993072 
0.0093002 0.147455 0.989025 
0.0173763 0.190633 0.981508 
0.0371919 0.235902 0.971065 
0.0318507 0.312882 0.949258 
0.0591003 0.397002 0.915913 
0.0455661 0.524108 0.850432 
0.101755 0.759001 0.643089 
0.0394219 0.958699 0.281678 
-0.00556042 0.994005 -0.109191 
-0.0344043 0.951325 -0.306264 
-0.0256322 0.694826 -0.718721 
-0.0389698 0.536332 -0.843107 
-0.038993 0.394674 -0.917993 
-0.0498363 0.318111 -0.946743 
-0.0426199 0.23569 -0.970893 
-0.0140489 0.190791 -0.98153 
-0.00257306 0.147192 -0.989105 
0.00498903 0.111916 -0.993705 
0.00673883 0.0792485 -0.996832 
0.00649666 0.0557136 -0.998426 
0.00542586 0.0394704 -0.999206 
0.00487435 0.02779 -0.999602 
0.00345237 0.0198514 -0.999797 
0.00260697 0.0141234 -0.999897 
0.00197146 0.0100029 -0.999948 
0.00151647 0.00686398 -0.999975 
0.00134152 0.00471034 -0.999988 
0.00121681 0.00336843 -0.999994 
0.00110403 0.00237917 -0.999997 
0.00100582 0.0017502 -0.999998 
0.000904924 0.00124854 -0.999999 
0.000793746 0.000881968 -0.999999 
0.000673759 0.000577722 -1 
0.000555512 0.000348651 -1 
0.00043348 0.00015006 -1 
0.000324629 -3.81708e-06 -1 
0.00023348 -0.000115828 -1 
0.000151962 -0.000207643 -1 
0.0001007 -0.000265881 -1 
7.24765e-05 -0.000316794 -1 
6.54635e-05 -0.000370798 -1 
7.89727e-05 -0.000411756 -1 
0.000106568 -0.000447864 -1 
0.00014557 -0.000479855 -1 
0.000175132 -0.000486887 -1 
0.00025461 -0.000536349 -1 
0.00122493 -0.00164011 -0.999998 
0.0478639 -0.0558782 -0.997289 
-0.0834168 -0.120905 0.989152 
-0.00530327 -0.00742547 0.999958 
-0.000232383 -0.000535205 1 
-0.000176531 -0.000505847 1 
-0.000130032 -0.000484994 1 
-9.86528e-05 -0.000439015 1 
-8.25807e-05 -0.000422312 1 
-6.39991e-05 -0.000369521 1 
-5.75299e-05 -0.000309695 1 
-8.08679e-05 -0.000247233 1 
-0.000124778 -0.000163194 1 
-0.000188321 -6.26875e-05 1 
-0.00028448 7.16032e-05 1 
-0.000384575 0.000222357 1 
-0.000492645 0.00043647 1 
-0.00059599 0.00066762 1 
-0.000699151 0.000988351 0.999999 
-0.000795293 0.00138033 0.999999 
-0.000880142 0.001897 0.999998 
-0.000939663 0.0025602 0.999996 
-0.000996512 0.00351746 0.999993 
-0.00105492 0.00493442 0.999987 
-0.00112181 0.00709137 0.999974 
-0.00119126 0.0100868 0.999948 
-0.00126182 0.0143238 0.999897 
-0.00131246 0.0198922 0.999801 
-0.00121634 0.0275075 0.999621 
-0.000943497 0.037594 0.999293 
8.15077e-05 0.0521758 0.998638 
0.00343419 0.071474 0.997437 
0.010108 0.0951687 0.99541 
0.023505 0.122071 0.992243 
0.0421586 0.158144 0.986516 
0.0677694 0.202828 0.976867 
0.0799133 0.285657 0.954994 
0.121705 0.341826 0.931849 
0.109941 0.474729 0.873239 
0.0861061 0.618178 0.781308 
0.0609588 0.870806 0.487833 
0.000599216 0.999846 -0.0175182 
-0.055402 0.821055 -0.568154 
-0.0979508 0.668576 -0.737165 
-0.0875185 0.471201 -0.877673 
-0.114869 0.364528 -0.92408 
-0.0933475 0.272322 -0.957668 
-0.0742463 0.198073 -0.977371 
-0.0427766 0.169016 -0.984685 
-0.0243282 0.135784 -0.99044 
-0.0122737 0.105308 -0.994364 
-0.00364912 0.0815209 -0.996665 
-0.000897741 0.0578688 -0.998324 
0.00028069 0.0412832 -0.999147 
0.00144862 0.0296469 -0.999559 
0.00128952 0.021781 -0.999762 
0.0010813 0.0155287 -0.999879 
0.000944021 0.0110107 -0.999939 
0.000897308 0.00771502 -0.99997 
0.000916909 0.00522166 -0.999986 
0.000914623 0.00370776 -0.999993 
0.000925215 0.00270406 -0.999996 
0.000864879 0.00198031 -0.999998 
0.000818219 0.00146309 -0.999999 
0.000734309 0.00106673 -0.999999 
0.000644326 0.000747241 -1 
0.000535378 0.000496402 -1 
0.000432385 0.000285689 -1 
0.000323091 0.00011017 -1 
0.000228153 -2.2692e-05 -1 
0.000153065 -0.000134466 -1 
8.9763e-05 -0.00021277 -1 
5.93469e-05 -0.000282592 -1 
5.64306e-05 -0.000345744 -1 
7.35153e-05 -0.000406747 -1 
0.000104391 -0.000451739 -1 
0.000147362 -0.000496778 -1 
0.000200013 -0.00052173 -1 
0.000326568 -0.000639606 -1 
0.00298569 -0.00404239 -0.999987 
0.0718853 -0.0974012 -0.992645 
-0.0460528 -0.0903058 0.994848 
-0.00238451 -0.0044444 0.999987 
-0.000422382 -0.000756969 1 
-0.000219571 -0.000564946 1 
-0.00017175 -0.000528666 1 
-0.000103857 -0.000471138 1 
-6.00612e-05 -0.000399214 1 
-4.47061e-05 -0.000342135 1 
-4.47237e-05 -0.00025973 1 
-7.05188e-05 -0.000177969 1 
-0.000116341 -7.03865e-05 1 
-0.000197217 5.82266e-05 1 
-0.0002859 0.000213735 1 
-0.000382501 0.000384779 1 
-0.000472115 0.000612364 1 
-0.000565439 0.000864287 0.999999 
-0.000643429 0.00120386 0.999999 
-0.000709283 0.00162628 0.999998 
-0.000739089 0.00215516 0.999997 
-0.000744134 0.00287893 0.999996 
-0.000709435 0.00392495 0.999992 
-0.00062957 0.00550309 0.999985 
-0.000456753 0.00780024 0.999969 
-0.000207738 0.0110638 0.999939 
0.000257858 0.0153865 0.999882 
0.000925742 0.0210717 0.999778 
0.002136 0.0283751 0.999595 
0.00379079 0.0384965 0.999252 
0.00710271 0.0522138 0.998611 
0.0137333 0.0691379 0.997513 
0.0248754 0.0869125 0.995905 
0.0435745 0.11284 0.992657 
0.0701712 0.141621 0.987431 
0.106551 0.154795 0.982184 
0.110553 0.227278 0.967534 
0.163878 0.24286 0.956119 
0.181178 0.431394 0.883784 
0.176914 0.596052 0.783214 
0.117329 0.919106 0.376136 
-0.0133116 0.99872 -0.0487922 
-0.117709 0.854732 -0.505546 
-0.152306 0.54247 -0.826153 
-0.183757 0.414525 -0.891292 
-0.167671 0.285228 -0.94368 
-0.125542 0.208587 -0.969913 
-0.0928131 0.148327 -0.984573 
-0.0598066 0.1317 -0.989484 
-0.0380705 0.108456 -0.993372 
-0.0227547 0.0878877 -0.99587 
-0.0114878 0.0676816 -0.997641 
-0.00638317 0.0484603 -0.998805 
-0.00296061 0.0343155 -0.999407 
-0.00160014 0.0255711 -0.999672 
-0.000753381 0.0189122 -0.999821 
-0.000339485 0.0135945 -0.999908 
1.23201e-06 0.00963347 -0.999954 
0.000351952 0.00659646 -0.999978 
0.000529162 0.00461255 -0.999989 
0.000662631 0.00331166 -0.999994 
0.000728829 0.00247211 -0.999997 
0.000716397 0.0018279 -0.999998 
0.000684856 0.00138264 -0.999999 
0.00061743 0.00101704 -0.999999 
0.000538677 0.000734881 -1 
0.00044228 0.00050092 -1 
0.000351045 0.000298199 -1 
0.00025353 0.000135653 -1 
0.000166885 -6.55752e-06 -1 
0.00010292 -0.00011613 -1 
5.12027e-05 -0.000210522 -1 
3.61513e-05 -0.000297464 -1 
4.79848e-05 -0.000369188 -1 
7.10853e-05 -0.000431173 -1 
0.000104847 -0.000471442 -1 
0.000146922 -0.000519556 -1 
0.000197177 -0.000546786 -1 
0.000289156 -0.000662789 -1 
0.00268537 -0.00442273 -0.999987 
0.0499586 -0.0899864 -0.994688 
-0.0327076 -0.0892041 0.995476 
-0.00141338 -0.00388078 0.999991 
-0.000297576 -0.000708207 1 
-0.000170848 -0.000564328 1 
-0.000139049 -0.000524929 1 
-0.000102983 -0.000501191 1 
-7.00474e-05 -0.00044327 1 
-3.72022e-05 -0.000376029 1 
-2.6161e-05 -0.000303357 1 
-2.74265e-05 -0.000206118 1 
-5.49402e-05 -0.000102792 1 
-0.000117571 3.7457e-05 1 
-0.000194193 0.000188046 1 
-0.00027903 0.000357118 1 
-0.000364103 0.000541215 1 
-0.000444783 0.000783569 1 
-0.000520596 0.00105351 0.999999 
-0.000577676 0.00141842 0.999999 
-0.000601019 0.00185558 0.999998 
-0.000590517 0.00243074 0.999997 
-0.000525537 0.00323352 0.999995 
-0.00038128 0.00440997 0.99999 
-0.000122677 0.00614551 0.999981 
0.000309788 0.00871603 0.999962 
0.000961118 0.012112 0.999926 
0.00197272 0.0165745 0.999861 
0.00346351 0.022103 0.99975 
0.00577011 0.0295062 0.999548 
0.00913413 0.0392367 0.999188 
0.0151291 0.051006 0.998584 
0.0250442 0.0624646 0.997733 
0.0411303 0.0799716 0.995948 
0.0668447 0.0950498 0.993226 
0.0993991 0.0992183 0.990089 
0.146549 0.141607 0.979015 
0.210607 0.176436 0.961517 
0.219086 0.322272 0.920946 
0.277708 0.516586 0.809949 
0.174886 0.766279 0.618248 
-0.115054 0.932694 -0.341824 
-0.183519 0.692382 -0.697802 
-0.264543 0.524782 -0.809087 
-0.253762 0.320609 -0.912587 
-0.221376 0.182456 -0.957968 
-0.162073 0.164854 -0.972911 
-0.11572 0.112825 -0.986853 
-0.0698453 0.0959232 -0.992935 
-0.0458539 0.081873 -0.995587 
-0.0287574 0.0676246 -0.997296 
-0.0172697 0.057203 -0.998213 
-0.0116812 0.0425619 -0.999026 
-0.00670851 0.0335733 -0.999414 
-0.00427163 0.0244361 -0.999692 
-0.00262521 0.0184152 -0.999827 
-0.00158682 0.0135622 -0.999907 
-0.000838693 0.0095155 -0.999954 
-0.00018534 0.00671 -0.999977 
0.000174813 0.00469391 -0.999989 
0.000424172 0.00340921 -0.999994 
0.000556489 0.00255194 -0.999997 
0.000605694 0.00196667 -0.999998 
0.000587712 0.00147596 -0.999999 
0.000547322 0.00112804 -0.999999 
0.000475888 0.000836135 -1 
0.00039886 0.000606361 -1 
0.000314773 0.000398591 -1 
0.000230295 0.000231361 -1 
0.000147368 7.3756e-05 -1 
7.80087e-05 -5.91925e-05 -1 
3.52997e-05 -0.000168375 -1 
1.97866e-05 -0.000279587 -1 
3.50187e-05 -0.000370247 -1 
6.64601e-05 -0.000448444 -1 
0.000107967 -0.000502124 -1 
0.000137389 -0.000542925 -1 
0.0001765 -0.000565231 -1 
0.000221523 -0.000656177 -1 
0.00143273 -0.003219 -0.999994 
0.0402721 -0.0961144 -0.994554 
-0.0166514 -0.0909935 0.995712 
-0.000722285 -0.00391015 0.999992 
-0.000209112 -0.000670883 1 
-0.000135584 -0.000577455 1 
-0.000129325 -0.000546899 1 
-9.46756e-05 -0.00051735 1 
-6.20629e-05 -0.000455985 1 
-2.67684e-05 -0.00038293 1 
-9.39271e-06 -0.000285587 1 
-6.56382e-06 -0.000175601 1 
-3.97904e-05 -4.13079e-05 1 
-9.60554e-05 0.000114547 1 
-0.00016835 0.000278237 1 
-0.000245323 0.00044883 1 
-0.000328291 0.00064097 1 
-0.000390418 0.000871197 1 
-0.000457746 0.00114592 0.999999 
-0.000489948 0.00147955 0.999999 
-0.000493705 0.00190156 0.999998 
-0.000453216 0.00247604 0.999997 
-0.00033536 0.00325387 0.999995 
-0.000108645 0.00434096 0.999991 
0.00026956 0.00600088 0.999982 
0.000879229 0.00830406 0.999965 
0.00179459 0.0115066 0.999932 
0.00316475 0.0154355 0.999876 
0.0051386 0.0203578 0.99978 
0.00807754 0.0263729 0.99962 
0.0122717 0.033954 0.999348 
0.0187542 0.0413146 0.99897 
0.0301926 0.0509573 0.998244 
0.0473923 0.0599857 0.997074 
0.0701465 0.0622974 0.99559 
0.107715 0.0553015 0.992643 
0.156875 0.079448 0.984418 
0.240085 0.106306 0.964914 
0.295559 0.273159 0.915439 
0.401701 0.448504 0.798423 
0.289159 0.783514 0.549994 
0.0152518 0.999301 0.03412 
-0.288956 0.759184 -0.583219 
-0.379379 0.409865 -0.829507 
-0.321179 0.248827 -0.913745 
-0.216071 0.0815787 -0.972964 
-0.153383 0.0818286 -0.984773 
-0.104305 0.0529057 -0.993137 
-0.0778908 0.0696786 -0.994524 
-0.0488241 0.0575948 -0.997145 
-0.031703 0.0508405 -0.998203 
-0.0201074 0.0439958 -0.998829 
-0.0125364 0.0329956 -0.999377 
-0.0078257 0.0267935 -0.99961 
-0.00512918 0.0198443 -0.99979 
-0.00336102 0.0150067 -0.999882 
-0.00203141 0.0110091 -0.999937 
-0.00100692 0.00760704 -0.999971 
-0.000356393 0.00547946 -0.999985 
7.60913e-05 0.00391185 -0.999992 
0.000331204 0.00293495 -0.999996 
0.000454837 0.00226684 -0.999997 
0.000513919 0.00176726 -0.999998 
0.000489646 0.00135891 -0.999999 
0.000451669 0.00105103 -0.999999 
0.00038563 0.000801953 -1 
0.000315872 0.000580438 -1 
0.000238405 0.000399385 -1 
0.000160606 0.000225337 -1 
8.78747e-05 7.13701e-05 -1 
3.30752e-05 -6.52488e-05 -1 
7.45748e-06 -0.000201945 -1 
8.49896e-06 -0.000316176 -1 
2.97989e-05 -0.00039387 -1 
5.65793e-05 -0.000463961 -1 
9.02217e-05 -0.000508298 -1 
0.000113882 -0.000547709 -1 
0.000141703 -0.000577969 -1 
0.000171521 -0.000722724 -1 
0.00139914 -0.00503323 -0.999986 
0.0218899 -0.107197 -0.993996 
0.00198517 -0.0835413 0.996502 
5.88069e-05 -0.00366217 0.999993 
-0.00013545 -0.000706253 1 
-9.20787e-05 -0.000570026 1 
-0.000103078 -0.000550999 1 
-7.8316e-05 -0.000527825 1 
-5.79176e-05 -0.000477933 1 
-2.52451e-05 -0.000413307 1 
2.36782e-07 -0.000303741 1 
9.21124e-06 -0.000169646 1 
-1.6143e-05 -1.49137e-05 1 
-6.26261e-05 0.000150718 1 
-0.000128279 0.000321676 1 
-0.000199651 0.000495557 1 
-0.000274068 0.000673621 1 
-0.000326579 0.00088469 1 
-0.00038338 0.00113351 0.999999 
-0.000409656 0.00143235 0.999999 
-0.000408806 0.00181844 0.999998 
-0.000354714 0.00230964 0.999997 
-0.000223476 0.00296266 0.999996 
1.60849e-05 0.00388217 0.999992 
0.000418507 0.00521727 0.999986 