# vtk DataFile Version 3.0 
Exported using Morpho https://github.com/Morpho-lang/morpho 
ASCII 
DATASET UNSTRUCTURED_GRID 

POINTS 2054 float 
-8.48528 -2.82843 0 
-8.20636 -2.82843 0 
-7.94054 -2.82843 0 
-7.6904 -2.82843 0 
-7.45357 -2.82843 0 
-7.22694 -2.82843 0 
-7.00705 -2.82843 0 
-6.79111 -2.82843 0 
-6.57731 -2.82843 0 
-6.36453 -2.82843 0 
-6.15219 -2.82843 0 
-5.94 -2.82843 0 
-5.72786 -2.82843 0 
-5.51573 -2.82843 0 
-5.3036 -2.82843 0 
-5.09147 -2.82843 0 
-4.87933 -2.82843 0 
-4.6672 -2.82843 0 
-4.45507 -2.82843 0 
-4.24294 -2.82843 0 
-4.03081 -2.82843 0 
-3.81867 -2.82843 0 
-3.60654 -2.82843 0 
-3.39441 -2.82843 0 
-3.18228 -2.82843 0 
-2.97015 -2.82843 0 
-2.75801 -2.82843 0 
-2.54588 -2.82843 0 
-2.33375 -2.82843 0 
-2.12162 -2.82843 0 
-1.90949 -2.82843 0 
-1.69735 -2.82843 0 
-1.48522 -2.82843 0 
-1.27309 -2.82843 0 
-1.06096 -2.82843 0 
-0.848825 -2.82843 0 
-0.636693 -2.82843 0 
-0.424561 -2.82843 0 
-0.212429 -2.82843 0 
-0.000296761 -2.82843 0 
0.211835 -2.82843 0 
0.423967 -2.82843 0 
0.636099 -2.82843 0 
0.848231 -2.82843 0 
1.06036 -2.82843 0 
1.2725 -2.82843 0 
1.48463 -2.82843 0 
1.69676 -2.82843 0 
1.90889 -2.82843 0 
2.12102 -2.82843 0 
2.33316 -2.82843 0 
2.54529 -2.82843 0 
2.75742 -2.82843 0 
2.96955 -2.82843 0 
3.18168 -2.82843 0 
3.39382 -2.82843 0 
3.60595 -2.82843 0 
3.81808 -2.82843 0 
4.03021 -2.82843 0 
4.24234 -2.82843 0 
4.45448 -2.82843 0 
4.66661 -2.82843 0 
4.87874 -2.82843 0 
5.09087 -2.82843 0 
5.303 -2.82843 0 
5.51514 -2.82843 0 
5.72727 -2.82843 0 
5.93941 -2.82843 0 
6.15159 -2.82843 0 
6.36393 -2.82843 0 
6.57672 -2.82843 0 
6.79055 -2.82843 0 
7.00652 -2.82843 0 
7.22647 -2.82843 0 
7.45313 -2.82843 0 
7.69005 -2.82843 0 
7.9403 -2.82843 0 
8.20621 -2.82843 0 
8.48528 -2.82843 0 
-8.48528 -2.5495 0 
-8.30526 -2.64845 0 
-8.07062 -2.59995 0 
-7.83904 -2.59637 0 
-7.59595 -2.59733 0 
-7.36578 -2.59177 0 
-7.13796 -2.5933 0 
-6.90908 -2.59428 0 
-6.68421 -2.5916 0 
-6.46568 -2.58832 0 
-6.24926 -2.58859 0 
-6.03358 -2.58941 0 
-5.81848 -2.59013 0 
-5.60402 -2.59075 0 
-5.39005 -2.59135 0 
-5.17642 -2.59186 0 
-4.96311 -2.59223 0 
-4.75009 -2.59242 0 
-4.53736 -2.59244 0 
-4.32497 -2.59236 0 
-4.1128 -2.59242 0 
-3.90059 -2.59259 0 
-3.68835 -2.5926 0 
-3.47627 -2.59248 0 
-3.26428 -2.59251 0 
-3.05216 -2.59271 0 
-2.83986 -2.59283 0 
-2.62755 -2.59274 0 
-2.41539 -2.59253 0 
-2.20336 -2.59238 0 
-1.99135 -2.59238 0 
-1.77924 -2.59246 0 
-1.56704 -2.59244 0 
-1.35495 -2.59215 0 
-1.14319 -2.59183 0 
-0.931581 -2.59195 0 
-0.719663 -2.59256 0 
-0.507197 -2.59324 0 
-0.294425 -2.59354 0 
-0.0817689 -2.59344 0 
0.130587 -2.59325 0 
0.342804 -2.59322 0 
0.555051 -2.59322 0 
0.767233 -2.59303 0 
0.97919 -2.59278 0 
1.19107 -2.59278 0 
1.40311 -2.59289 0 
1.61524 -2.59286 0 
1.82732 -2.59279 0 
2.03943 -2.59281 0 
2.25163 -2.5928 0 
2.46381 -2.59266 0 
2.67591 -2.59254 0 
2.88801 -2.59237 0 
3.10001 -2.59226 0 
3.31203 -2.59216 0 
3.52402 -2.59207 0 
3.73601 -2.59208 0 
3.94815 -2.59221 0 
4.16052 -2.5923 0 
4.37309 -2.59232 0 
4.58593 -2.59227 0 
4.79921 -2.5922 0 
5.01319 -2.59212 0 
5.22833 -2.5921 0 
5.44534 -2.59239 0 
5.6657 -2.59346 0 
5.89185 -2.59569 0 
6.12685 -2.59429 0 
6.36853 -2.59189 0 
6.6108 -2.57787 0 
6.84491 -2.61411 0 
7.08804 -2.58476 0 
7.34858 -2.60369 0 
7.58803 -2.59327 0 
7.83059 -2.59326 0 
8.06387 -2.59199 0 
8.30038 -2.64348 0 
8.48528 -2.54936 0 
-8.48528 -2.28369 0 
-8.25701 -2.4138 0 
-8.01078 -2.35334 0 
-7.73666 -2.37963 0 
-7.49744 -2.35565 0 
-7.26898 -2.35831 0 
-7.03324 -2.36676 0 
-6.7997 -2.36275 0 
-6.5773 -2.35166 0 
-6.35808 -2.3495 0 
-6.14038 -2.35058 0 
-5.92336 -2.35185 0 
-5.70723 -2.35272 0 
-5.49199 -2.35362 0 
-5.27734 -2.35447 0 
-5.0632 -2.35505 0 
-4.84958 -2.35534 0 
-4.63641 -2.35533 0 
-4.42363 -2.35504 0 
-4.21126 -2.35485 0 
-3.99909 -2.35513 0 
-3.78684 -2.3554 0 
-3.57461 -2.35516 0 
-3.36263 -2.35498 0 
-3.15066 -2.35537 0 
-2.93843 -2.35586 0 
-2.72604 -2.35589 0 
-2.51374 -2.35551 0 
-2.30162 -2.35509 0 
-2.08964 -2.35496 0 
-1.87761 -2.35518 0 
-1.66544 -2.3554 0 
-1.45322 -2.35518 0 
-1.2412 -2.35438 0 
-1.02967 -2.35407 0 
-0.818162 -2.35505 0 
-0.606054 -2.35676 0 
-0.393243 -2.3579 0 
-0.180256 -2.35789 0 
0.0323765 -2.35727 0 
0.244686 -2.35692 0 
0.456926 -2.35692 0 
0.669206 -2.35667 0 
0.881318 -2.35598 0 
1.09315 -2.35559 0 
1.305 -2.35583 0 
1.51709 -2.35595 0 
1.72919 -2.35571 0 
1.9412 -2.35566 0 
2.15334 -2.3558 0 
2.36559 -2.3556 0 
2.57772 -2.35522 0 
2.78976 -2.35507 0 
3.0019 -2.35461 0 
3.21373 -2.35451 0 
3.42571 -2.35439 0 
3.63769 -2.35431 0 
3.84965 -2.35453 0 
4.06183 -2.35491 0 
4.27435 -2.35507 0 
4.48707 -2.35507 0 
4.70017 -2.35506 0 
4.91376 -2.35498 0 
5.12819 -2.35502 0 
5.34378 -2.35528 0 
5.56106 -2.35662 0 
5.78097 -2.35971 0 
6.00401 -2.36251 0 
6.2308 -2.3624 0 
6.45748 -2.35551 0 
6.68075 -2.33423 0 
6.88797 -2.39744 0 
7.05313 -2.27289 0 
7.24377 -2.40237 0 
7.48542 -2.36016 0 
7.73055 -2.36599 0 
7.99177 -2.33552 0 
8.24864 -2.40698 0 
8.48528 -2.28345 0 
-8.48528 -2.03355 0 
-8.25312 -2.18214 0 
-8.03669 -2.07913 0 
-7.83956 -2.18231 0 
-7.6106 -2.12852 0 
-7.38852 -2.10959 0 
-7.16268 -2.14097 0 
-6.9229 -2.1435 0 
-6.70119 -2.12055 0 
-6.48111 -2.11285 0 
-6.26282 -2.11284 0 
-6.045 -2.1151 0 
-5.82775 -2.11658 0 
-5.61153 -2.11776 0 
-5.3962 -2.1192 0 
-5.18144 -2.1203 0 
-4.96732 -2.12084 0 
-4.75387 -2.12105 0 
-4.54086 -2.12091 0 
-4.32822 -2.12045 0 
-4.11596 -2.12045 0 
-3.90382 -2.12107 0 
-3.69156 -2.12116 0 
-3.47938 -2.12058 0 
-3.26746 -2.12068 0 
-3.05542 -2.12154 0 
-2.84307 -2.12198 0 
-2.63064 -2.12162 0 
-2.41836 -2.12087 0 
-2.20626 -2.12031 0 
-1.99426 -2.12034 0 
-1.78217 -2.1207 0 
-1.56989 -2.12074 0 
-1.35755 -2.11993 0 
-1.14542 -2.11838 0 
-0.934012 -2.11859 0 
-0.722404 -2.12089 0 
-0.509943 -2.12344 0 
-0.296911 -2.12431 0 
-0.0840921 -2.12359 0 
0.128295 -2.12281 0 
0.340414 -2.12274 0 
0.552564 -2.12288 0 
0.76478 -2.12226 0 
0.976792 -2.1213 0 
1.18855 -2.12128 0 
1.40042 -2.12188 0 
1.61256 -2.12177 0 
1.82458 -2.12141 0 
2.03655 -2.12164 0 
2.24875 -2.12174 0 
2.46099 -2.12114 0 
2.67302 -2.12065 0 
2.88504 -2.12054 0 
3.09728 -2.1194 0 
3.30873 -2.11968 0 
3.52086 -2.1195 0 
3.7329 -2.11938 0 
3.94484 -2.11986 0 
4.15715 -2.12044 0 
4.36983 -2.12035 0 
4.58282 -2.1204 0 
4.79606 -2.12017 0 
5.01004 -2.12012 0 
5.22483 -2.12002 0 
5.44073 -2.12051 0 
5.6582 -2.123 0 
5.8782 -2.12696 0 
6.10217 -2.12971 0 
6.33095 -2.12707 0 
6.567 -2.11601 0 
6.82301 -2.12303 0 
7.06572 -2.04567 0 
7.29733 -2.17484 0 
7.54632 -2.11408 0 
7.79371 -2.13741 0 
8.02274 -2.07453 0 
8.25027 -2.1738 0 
8.48528 -2.0332 0 
-8.48528 -1.79671 0 
-8.25436 -1.93882 0 
-8.01299 -1.83977 0 
-7.78596 -1.953 0 
-7.5297 -1.87194 0 
-7.2756 -1.88722 0 
-7.05707 -1.93544 0 
-6.84369 -1.89677 0 
-6.62219 -1.88079 0 
-6.40169 -1.87606 0 
-6.18206 -1.87854 0 
-5.96274 -1.881 0 
-5.74458 -1.88208 0 
-5.52796 -1.88344 0 
-5.31232 -1.88506 0 
-5.09736 -1.88569 0 
-4.88338 -1.88564 0 
-4.67019 -1.88555 0 
-4.45737 -1.88507 0 
-4.24485 -1.88447 0 
-4.03271 -1.88482 0 
-3.82061 -1.88562 0 
-3.60832 -1.88529 0 
-3.39617 -1.88464 0 
-3.18427 -1.88547 0 
-2.97209 -1.88672 0 
-2.7596 -1.88684 0 
-2.54714 -1.88601 0 
-2.33483 -1.88505 0 
-2.12268 -1.8846 0 
-1.91058 -1.885 0 
-1.69824 -1.88561 0 
-1.48561 -1.88547 0 
-1.27286 -1.88413 0 
-1.06032 -1.88216 0 
-0.848858 -1.8839 0 
-0.636875 -1.88781 0 
-0.424169 -1.89034 0 
-0.211518 -1.89004 0 
0.000731944 -1.88866 0 
0.21257 -1.88788 0 
0.424308 -1.88807 0 
0.636257 -1.88793 0 
0.848362 -1.88664 0 
1.06025 -1.88556 0 
1.27191 -1.88605 0 
1.48381 -1.88664 0 
1.69595 -1.886 0 
1.90782 -1.88577 0 
2.11974 -1.88637 0 
2.33202 -1.88609 0 
2.54419 -1.88502 0 
2.75607 -1.88472 0 
2.96812 -1.88462 0 
3.18055 -1.88217 0 
3.39117 -1.88415 0 
3.60398 -1.8838 0 
3.81618 -1.88366 0 
4.02827 -1.88469 0 
4.24071 -1.88523 0 
4.4544 -1.88509 0 
4.66716 -1.88476 0 
4.88099 -1.88493 0 
5.09545 -1.88466 0 
5.31057 -1.88453 0 
5.52653 -1.88564 0 
5.7436 -1.88981 0 
5.96352 -1.89563 0 
6.18733 -1.89813 0 
6.41543 -1.89522 0 
6.65059 -1.89622 0 
6.87542 -1.86913 0 
7.11122 -1.81621 0 
7.31223 -1.94975 0 
7.53264 -1.87683 0 
7.77077 -1.89068 0 
8.01717 -1.8297 0 
8.25014 -1.93148 0 
8.48528 -1.79628 0 
-8.48528 -1.57009 0 
-8.24868 -1.70836 0 
-8.015 -1.61096 0 
-7.76734 -1.73071 0 
-7.54593 -1.61782 0 
-7.32306 -1.66278 0 
-7.05152 -1.7082 0 
-6.79786 -1.66675 0 
-6.56099 -1.64764 0 
-6.33267 -1.64541 0 
-6.10856 -1.64921 0 
-5.88638 -1.65073 0 
-5.66697 -1.65153 0 
-5.44986 -1.65353 0 
-5.23379 -1.65525 0 
-5.01882 -1.6551 0 
-4.80519 -1.6548 0 
-4.59235 -1.65478 0 
-4.37976 -1.65422 0 
-4.16737 -1.65386 0 
-3.95537 -1.65471 0 
-3.74326 -1.6554 0 
-3.5309 -1.65455 0 
-3.31876 -1.65426 0 
-3.10682 -1.65593 0 
-2.89443 -1.65705 0 
-2.68177 -1.65644 0 
-2.46924 -1.65516 0 
-2.25682 -1.65408 0 
-2.04447 -1.65386 0 
-1.83202 -1.65455 0 
-1.61911 -1.65506 0 
-1.40572 -1.65429 0 
-1.19212 -1.65207 0 
-0.97885 -1.64982 0 
-0.767325 -1.65372 0 
-0.555434 -1.6581 0 
-0.343588 -1.65935 0 
-0.132061 -1.65818 0 
0.0792288 -1.65687 0 
0.290417 -1.65682 0 
0.501823 -1.6575 0 
0.713729 -1.65709 0 
0.925861 -1.65545 0 
1.13768 -1.65488 0 
1.34929 -1.65604 0 
1.56128 -1.6563 0 
1.77337 -1.65516 0 
1.985 -1.65561 0 
2.19698 -1.65642 0 
2.40939 -1.65525 0 
2.62143 -1.65394 0 
2.83323 -1.65414 0 
3.04553 -1.65355 0 
3.25842 -1.64868 0 
3.46746 -1.65522 0 
3.68272 -1.65284 0 
3.89574 -1.65288 0 
4.10731 -1.65378 0 
4.32287 -1.65565 0 
4.53627 -1.65249 0 
4.74932 -1.65397 0 
4.96428 -1.65355 0 
5.17935 -1.65257 0 
5.3944 -1.65202 0 
5.60927 -1.65354 0 
5.82513 -1.66019 0 
6.04295 -1.66711 0 
6.26383 -1.66843 0 
6.48537 -1.66776 0 
6.70098 -1.65646 0 
6.91299 -1.6206 0 
7.11709 -1.6046 0 
7.3526 -1.69716 0 
7.60698 -1.65764 0 
7.8325 -1.64214 0 
8.05985 -1.58842 0 
8.2608 -1.69223 0 
8.48528 -1.56961 0 
-8.48528 -1.35019 0 
-8.24958 -1.48044 0 
-8.0219 -1.3751 0 
-7.79713 -1.50391 0 
-7.58956 -1.39834 0 
-7.36199 -1.38754 0 
-7.16079 -1.49923 0 
-6.93764 -1.46284 0 
[...]
POINT_DATA 2054 
VECTORS vectors float
0.0363223 -0.0516688 0.997991 
0.0399097 -0.0394867 0.998438 
0.0416459 -0.0317941 0.998627 
0.0433318 -0.0258683 0.998732 
0.0446348 -0.0251343 0.998703 
0.0441591 -0.0244551 0.998744 
0.0437447 -0.0215332 0.99883 
0.0436302 -0.0175765 0.998913 
0.0436728 -0.013618 0.998973 
0.0437598 -0.0100881 0.999011 
0.0438566 -0.0070008 0.999033 
0.0439271 -0.00422835 0.999045 
0.0439649 -0.00163837 0.99905 
0.043973 0.000891403 0.999051 
0.0439502 0.00348147 0.999046 
0.0438954 0.00624042 0.999035 
0.0438012 0.00929592 0.999016 
0.0436586 0.0128111 0.998983 
0.043461 0.0169777 0.99893 
0.0432013 0.0220185 0.998844 
0.0428693 0.028196 0.998703 
0.0424479 0.035822 0.998478 
0.0419158 0.0452701 0.998117 
0.0412493 0.0569987 0.997545 
0.0404172 0.0715713 0.996641 
0.0393775 0.0896805 0.995218 
0.0380763 0.112175 0.992987 
0.036451 0.140079 0.989499 
0.0344296 0.174619 0.984066 
0.0319308 0.217214 0.975636 
0.0288691 0.269437 0.962621 
0.0251717 0.332895 0.942665 
0.0208162 0.408943 0.912361 
0.0158973 0.498155 0.86698 
0.0107122 0.599364 0.800439 
0.00581303 0.708327 0.705889 
0.00192962 0.816457 0.577422 
-0.000310534 0.910762 0.412937 
-0.000777358 0.976126 0.217182 
-7.07288e-05 0.999989 0.00288283 
0.000658793 0.977329 -0.211702 
0.000248702 0.912888 -0.408215 
-0.00192804 0.819079 -0.573697 
-0.00576468 0.71104 -0.703157 
-0.0106408 0.601891 -0.798542 
-0.0158211 0.500346 -0.865718 
-0.0207449 0.410763 -0.911544 
-0.0251099 0.334364 -0.942147 
-0.0288189 0.270603 -0.962295 
-0.0318917 0.218124 -0.975434 
-0.0343983 0.175322 -0.983942 
-0.0364237 0.14062 -0.989423 
-0.0380515 0.11259 -0.99294 
-0.0393564 0.0900002 -0.99519 
-0.0404011 0.0718172 -0.996624 
-0.0412364 0.0571886 -0.997535 
-0.0419041 0.0454194 -0.998111 
-0.042438 0.0359419 -0.998474 
-0.0428631 0.0282949 -0.998701 
-0.0431983 0.0221018 -0.998842 
-0.0434575 0.0170489 -0.998929 
-0.0436534 0.0128729 -0.998983 
-0.0437976 0.00934995 -0.999015 
-0.0438982 0.0062872 -0.999035 
-0.0439663 0.00352272 -0.999045 
-0.0440119 0.000932206 -0.999049 
-0.0440349 -0.00160844 -0.999047 
-0.0440441 -0.00422601 -0.99904 
-0.0439654 -0.0070073 -0.999028 
-0.0438982 -0.0101006 -0.998994 
-0.0436857 -0.013537 -0.998975 
-0.0436613 -0.0174909 -0.998912 
-0.0435872 -0.0212715 -0.998842 
-0.0440137 -0.0238963 -0.998764 
-0.0446026 -0.0245416 -0.998719 
-0.0433744 -0.025362 -0.998743 
-0.0417242 -0.0314699 -0.998637 
-0.0399375 -0.0393 -0.998445 
-0.0363004 -0.0515804 -0.997998 
0.0158109 -0.0564595 0.998275 
0.0289651 -0.0442546 0.998675 
0.0295748 -0.0363532 0.998971 
0.032042 -0.0299791 0.999106 
0.0334187 -0.0257493 0.999176 
0.0336801 -0.023727 0.999219 
0.0338106 -0.0217179 0.999261 
0.0340463 -0.0189619 0.999308 
0.0342858 -0.0154172 0.99936 
0.0344595 -0.0117771 0.999403 
0.0346457 -0.00844416 0.99943 
0.0348032 -0.00546867 0.999445 
0.0349125 -0.00274832 0.999452 
0.0349697 -0.000160446 0.999454 
0.034984 0.00242898 0.99945 
0.0349535 0.00514314 0.999441 
0.0348742 0.00810833 0.999424 
0.0347382 0.0114762 0.999396 
0.0345392 0.0154235 0.99935 
0.0342729 0.0201563 0.999275 
0.0339341 0.0259204 0.999154 
0.033508 0.0330141 0.99896 
0.0329736 0.0417904 0.99865 
0.0323127 0.0526686 0.998158 
0.0315079 0.0661725 0.99738 
0.0305311 0.0829613 0.996156 
0.0293427 0.103838 0.994234 
0.0279023 0.129756 0.991227 
0.0261722 0.161841 0.986546 
0.0241164 0.201426 0.979285 
0.0217002 0.250031 0.968074 
0.0188994 0.309272 0.950866 
0.0157269 0.380602 0.924686 
0.0122711 0.464822 0.885398 
0.00873159 0.561332 0.82762 
0.00540673 0.667249 0.744882 
0.00264298 0.776167 0.630575 
0.000740181 0.877102 0.480334 
-0.000199558 0.955296 0.295642 
-0.000393238 0.99625 0.0863691 
-0.000336978 0.99145 -0.1304 
-0.000614078 0.942057 -0.335453 
-0.00167509 0.858183 -0.513376 
-0.00368503 0.754571 -0.656263 
-0.00650637 0.645374 -0.763908 
-0.00982427 0.540752 -0.841201 
-0.0132945 0.446431 -0.894799 
-0.0166374 0.364799 -0.931018 
-0.0196847 0.296033 -0.955055 
-0.0223684 0.239066 -0.970824 
-0.0246775 0.192393 -0.981085 
-0.0266314 0.154455 -0.987716 
-0.0282695 0.123771 -0.991982 
-0.0296334 0.0990181 -0.994717 
-0.0307642 0.0790923 -0.996463 
-0.0316965 0.0630559 -0.997576 
-0.0324621 0.0501539 -0.998282 
-0.0330891 0.0397657 -0.998728 
-0.0335996 0.0313828 -0.999009 
-0.0340081 0.0245945 -0.999185 
-0.0343273 0.0190658 -0.999294 
-0.0345698 0.0145151 -0.999362 
-0.0347498 0.0107023 -0.999404 
-0.0348784 0.00742193 -0.999429 
-0.0349621 0.00449652 -0.999444 
-0.0350107 0.00177314 -0.999451 
-0.0350327 -0.000890252 -0.999452 
-0.0350282 -0.00364661 -0.999447 
-0.034797 -0.00669328 -0.99944 
-0.0344707 -0.010218 -0.999434 
-0.0336854 -0.0140576 -0.999413 
-0.0348758 -0.017881 -0.999289 
-0.0334075 -0.020727 -0.999309 
-0.0340134 -0.0233049 -0.99922 
-0.0333896 -0.0254087 -0.999187 
-0.0320106 -0.0295722 -0.999121 
-0.0292783 -0.0360876 -0.998992 
-0.0286363 -0.0439321 -0.998701 
-0.0158819 -0.0563804 -0.998281 
0.0102813 -0.0585421 0.998245 
0.0186666 -0.0439588 0.998932 
0.0204581 -0.0358999 0.99924 
0.0251106 -0.028459 0.999353 
0.0251906 -0.024885 0.999443 
0.0255919 -0.0217219 0.999511 
0.0265895 -0.0196688 0.999527 
0.0270496 -0.0170841 0.999563 
0.0270866 -0.0136914 0.999615 
0.027328 -0.0101827 0.99965 
0.0275953 -0.00698571 0.999669 
0.0277779 -0.00409946 0.99968 
0.0278822 -0.00141933 0.999684 
0.0279413 0.00119033 0.999682 
0.0279502 0.00386758 0.999675 
0.0278988 0.00673814 0.999661 
0.0277858 0.00994531 0.999638 
0.0276059 0.0136538 0.999599 
0.0273511 0.0180553 0.999536 
0.0270243 0.0233751 0.999435 
0.0266267 0.0298836 0.999273 
0.0261305 0.0379134 0.999014 
0.0255055 0.0478587 0.998604 
0.0247547 0.0601863 0.997956 
0.0238757 0.0754925 0.996938 
0.0228324 0.0945263 0.995339 
0.021588 0.118177 0.992838 
0.0201267 0.147482 0.988941 
0.0184428 0.183669 0.982897 
0.0165327 0.228151 0.973569 
0.0143946 0.2825 0.959244 
0.0120402 0.348257 0.937406 
0.00952236 0.426558 0.904493 
0.00696141 0.517497 0.855737 
0.0045495 0.61921 0.785286 
0.00247865 0.727161 0.686525 
0.000903574 0.832825 0.553579 
-9.67429e-05 0.923129 0.384504 
-0.000581695 0.982722 0.18504 
-0.000767152 0.999522 -0.0304695 
-0.000956581 0.970043 -0.242906 
-0.00144608 0.900714 -0.434432 
-0.00243918 0.804802 -0.593588 
-0.00398654 0.697209 -0.716922 
-0.00599873 0.59004 -0.807427 
-0.00831106 0.490828 -0.871297 
-0.0107301 0.403272 -0.915101 
-0.0130911 0.328533 -0.944486 
-0.0153031 0.266096 -0.963909 
-0.0173181 0.214609 -0.97663 
-0.0191034 0.172555 -0.984897 
-0.0206617 0.138451 -0.990234 
-0.022017 0.110896 -0.993668 
-0.0231708 0.0886696 -0.99587 
-0.0241592 0.070795 -0.997275 
-0.0249911 0.0563958 -0.998172 
-0.0256842 0.0448016 -0.998741 
-0.026264 0.0354562 -0.999101 
-0.0267421 0.0278963 -0.999327 
-0.0271185 0.0217488 -0.999469 
-0.0274059 0.0167129 -0.999558 
-0.0276208 0.0125292 -0.999613 
-0.0277745 0.00897948 -0.999647 
-0.027884 0.00587659 -0.999668 
-0.0279432 0.00305771 -0.999679 
-0.027963 0.000372331 -0.999684 
-0.0279607 -0.0023143 -0.999682 
-0.0279351 -0.00513022 -0.999673 
-0.0277415 -0.00824301 -0.999657 
-0.0271166 -0.0117015 -0.99964 
-0.0265664 -0.015228 -0.999596 
-0.0275016 -0.0180528 -0.999532 
-0.0238958 -0.0193319 -0.999605 
-0.0272991 -0.0214967 -0.999455 
-0.0255522 -0.02458 -0.999444 
-0.0246996 -0.0282789 -0.999374 
-0.0202922 -0.0352659 -0.999273 
-0.0186246 -0.0435972 -0.998951 
-0.0102666 -0.0585887 -0.998244 
0.0057834 -0.0588154 0.998273 
0.0124512 -0.0447655 0.998997 
0.0136301 -0.0378053 0.999272 
0.0186306 -0.0315635 0.999394 
0.0188777 -0.0267982 0.999524 
0.0188465 -0.0226309 0.999629 
0.0202724 -0.0200709 0.99966 
0.0213063 -0.0183993 0.99967 
0.0215864 -0.0157373 0.999708 
0.0219538 -0.0122778 0.999748 
0.0222685 -0.00886359 0.999776 
0.0225157 -0.00576547 0.999793 
0.0226916 -0.00294138 0.999801 
0.0228096 -0.000274284 0.999802 
0.0228715 0.00238529 0.999797 
0.0228658 0.00516967 0.999787 
0.0227912 0.0082139 0.999768 
0.0226503 0.0116722 0.999737 
0.0224373 0.0157207 0.999687 
0.0221448 0.0205676 0.999606 
0.021778 0.026455 0.999476 
0.0213307 0.0336785 0.999269 
0.0207734 0.0426061 0.998941 
0.0200931 0.0536669 0.998423 
0.0193001 0.0673722 0.997609 
0.0183815 0.0843911 0.996332 
0.0173073 0.105548 0.994335 
0.016066 0.131796 0.99122 
0.0146613 0.16425 0.986385 
0.0131029 0.204209 0.978917 
0.0114043 0.253142 0.967442 
0.00957866 0.312615 0.949913 
0.00765448 0.384037 0.923368 
0.00569489 0.468157 0.883708 
0.003806 0.564302 0.825637 
0.00213175 0.669246 0.743108 
0.000773454 0.776984 0.629576 
-0.000200701 0.877096 0.480347 
-0.000782714 0.955023 0.296523 
-0.00105597 0.996108 0.0879997 
-0.00118435 0.991749 -0.128102 
-0.00136823 0.943112 -0.332474 
-0.00179226 0.860283 -0.509851 
-0.00257263 0.757799 -0.652541 
-0.00372697 0.649602 -0.760337 
-0.00519527 0.545721 -0.838029 
-0.00687403 0.451718 -0.892216 
-0.0086398 0.369953 -0.929093 
-0.0103961 0.300825 -0.953704 
-0.0120896 0.243375 -0.969936 
-0.0136753 0.196137 -0.980558 
-0.0151199 0.157642 -0.987456 
-0.0164225 0.126466 -0.991908 
-0.017586 0.101276 -0.994774 
-0.0185889 0.0809508 -0.996614 
-0.0194762 0.0646296 -0.997786 
-0.0202271 0.0514408 -0.998537 
-0.0208609 0.0408164 -0.999013 
-0.0213958 0.0322419 -0.999315 
-0.0218344 0.0252819 -0.999505 
-0.0221717 0.0195982 -0.999625 
-0.0224305 0.0149119 -0.999699 
-0.0226107 0.0109863 -0.999746 
-0.0227385 0.00761202 -0.999774 
-0.0228282 0.00462331 -0.999791 
-0.0228854 0.00186208 -0.999799 
-0.022898 -0.000818224 -0.999801 
-0.0228217 -0.00355876 -0.999798 
-0.0226679 -0.00652774 -0.999789 
-0.0223617 -0.00986023 -0.99977 
-0.0215829 -0.0135579 -0.999744 
-0.0211261 -0.0170451 -0.999712 
-0.0186856 -0.019099 -0.999707 
-0.0204337 -0.0212478 -0.999636 
-0.0185073 -0.0253852 -0.999585 
-0.0182096 -0.030504 -0.999436 
-0.0138219 -0.0371096 -0.999302 
-0.0123763 -0.0446391 -0.999006 
-0.00577359 -0.0588175 -0.998274 
0.00432343 -0.0593681 0.998252 
0.00862881 -0.0457873 0.998983 
0.0102948 -0.0375939 0.99932 
0.0143596 -0.0307701 0.999488 
0.0136665 -0.0248935 0.999663 
0.0148029 -0.020544 0.999739 
0.0166907 -0.0192965 0.99972 
0.0168331 -0.0177015 0.999761 
0.0171948 -0.0147088 0.999804 
0.0175631 -0.0111621 0.999844 
0.0179181 -0.00779284 0.999869 
0.0181875 -0.00474122 0.999883 
0.0183594 -0.00194388 0.999889 
0.0184627 0.000745276 0.999888 
0.0185053 0.00347818 0.999881 
0.0184718 0.00638907 0.999867 
0.018367 0.00962293 0.999843 
0.0181979 0.0133406 0.999804 
0.0179535 0.0177336 0.999741 
0.017632 0.0230257 0.999639 
0.0172431 0.029472 0.999477 
0.0167707 0.0373972 0.999221 
0.0161814 0.0472047 0.998816 
0.01548 0.0593511 0.998181 
0.0146878 0.0743923 0.997186 
0.0137827 0.0930733 0.995631 
0.0127383 0.116278 0.993204 
0.0115613 0.145011 0.989434 
0.0102751 0.180457 0.983603 
0.00890597 0.223973 0.974631 
0.00747798 0.277057 0.960903 
0.00600598 0.341267 0.940028 
0.00451488 0.417827 0.908596 
0.00305583 0.507035 0.861999 
0.00170653 0.607363 0.794497 
0.00056471 0.714096 0.700112 
-0.000329569 0.819922 0.572522 
-0.000942863 0.912562 0.408957 
-0.00128001 0.9768 0.214114 
-0.0014095 0.999986 0.000968018 
-0.00145392 0.977288 -0.211874 
-0.00155742 0.913768 -0.406253 
-0.00184502 0.821766 -0.569869 
-0.00238537 0.715943 -0.698219 
-0.00318366 0.608876 -0.793333 
-0.00420539 0.508754 -0.860981 
-0.0053871 0.419611 -0.907769 
-0.00665322 0.342902 -0.939428 
-0.00795807 0.278507 -0.96048 
-0.00926799 0.22517 -0.974352 
-0.0105307 0.181391 -0.983429 
-0.0117135 0.145782 -0.989319 
-0.0128154 0.116963 -0.993123 
-0.0138186 0.0936601 -0.995575 
-0.0146795 0.0748436 -0.997153 
-0.015488 0.0597824 -0.998155 
-0.0161627 0.0475197 -0.998802 
-0.0167309 0.0376555 -0.999212 
-0.0172197 0.029679 -0.999472 
-0.0176119 0.0231858 -0.999636 
-0.0179104 0.0178398 -0.99974 
-0.0181213 0.0134311 -0.999804 
-0.0182684 0.00968971 -0.999845 
-0.0183494 0.00643976 -0.99987 
-0.0183948 0.00352257 -0.999883 
-0.0184358 0.000783726 -0.999889 
-0.0184897 -0.00191331 -0.999886 
-0.0184954 -0.00473115 -0.999877 
-0.0183692 -0.00784741 -0.999861 
-0.0180703 -0.0113433 -0.999833 
-0.0176333 -0.0150421 -0.999793 
-0.0165602 -0.0178535 -0.999765 
-0.0147186 -0.0193336 -0.999764 
-0.0158583 -0.0209319 -0.999714 
-0.0138311 -0.0250261 -0.999629 
-0.0133723 -0.0299012 -0.999546 
-0.0102055 -0.0377392 -0.999317 
-0.00868404 -0.0456307 -0.99899 
-0.00419873 -0.0594479 -0.998246 
0.00414969 -0.0589155 0.998282 
0.0067173 -0.0465898 0.998959 
0.00777501 -0.0374728 0.999349 
0.0106456 -0.0302668 0.999548 
0.0101859 -0.0247859 0.999696 
0.0115953 -0.0208237 0.999779 
0.0135291 -0.0192246 0.999798 
0.0141695 -0.0173455 0.999815 
0.014696 -0.0139025 0.999861 
0.0151701 -0.0102044 0.999898 
0.0155486 -0.00682751 0.99992 
0.0158075 -0.00379942 0.999931 
0.0159751 -0.00100739 0.999935 
0.0160785 0.00172343 0.999932 
0.0161149 0.00454454 0.999922 
0.0160755 0.00759789 0.999904 
0.0159693 0.0110319 0.999874 
0.0157945 0.015017 0.999825 
0.0155409 0.0197629 0.999747 
0.0152083 0.0255052 0.999623 
0.0147977 0.0325128 0.999426 
0.0142942 0.0411464 0.999116 
0.013683 0.051839 0.998628 
0.012972 0.0650711 0.997863 
0.012165 0.081452 0.996672 
0.0112448 0.101804 0.994811 
0.0102088 0.127058 0.991915 
0.00907552 0.158264 0.987429 
0.00786749 0.196682 0.980512 
0.00661155 0.243729 0.969899 
0.00533527 0.300941 0.953708 
0.00406332 0.369846 0.929166 
0.00282641 0.451442 0.892377 
0.00166515 0.545466 0.83821 
0.00062888 0.649316 0.760589 
-0.000227188 0.756552 0.653992 
-0.000886157 0.858494 0.512861 
-0.00132284 0.941425 0.337225 
-0.0015459 0.990873 0.134715 
-0.00161356 0.99682 -0.0795222 
-0.00162465 0.958066 -0.286535 
-0.0016906 0.882697 -0.46997 
-0.00190176 0.784284 -0.620453 
-0.00230535 0.677018 -0.736031 
-0.00290819 0.572032 -0.820303 
-0.00369279 0.475858 -0.879594 
-0.00462337 0.391308 -0.920329 
-0.00565671 0.319207 -0.947749 
-0.0067596 0.25904 -0.965922 
-0.00789245 0.209296 -0.977898 
-0.00900629 0.168536 -0.985729 
-0.0100713 0.135453 -0.990805 
-0.0110718 0.108678 -0.994086 
-0.0119832 0.0870007 -0.996206 
-0.0127762 0.0694817 -0.997569 
-0.0135231 0.055564 -0.99843 
-0.0141367 0.0440257 -0.998996 
-0.0146484 0.0348074 -0.999351 
-0.0150766 0.0273846 -0.999575 
-0.0154284 0.0212223 -0.999719 
-0.0156623 0.0162133 -0.999809 
-0.0158425 0.0120385 -0.999865 
-0.0159326 0.00845004 -0.9999 
-0.0159427 0.00530453 -0.999922 
-0.0158932 0.0024457 -0.999934 
-0.0158079 -0.000273755 -0.999938 
-0.0157107 -0.00299808 -0.999935 
-0.0155565 -0.00589166 -0.999925 
-0.0152738 -0.00912372 -0.999905 
-0.0148758 -0.0126771 -0.999873 
-0.0142842 -0.0161182 -0.999832 
-0.013309 -0.0185981 -0.999802 
-0.0123099 -0.019551 -0.999782 
-0.0117008 -0.0212122 -0.999775 
-0.0102422 -0.0263826 -0.999653 
-0.0091953 -0.0314879 -0.999535 
-0.00723569 -0.0395432 -0.999253 
-0.00643843 -0.0466126 -0.998963 
-0.00387388 -0.0589626 -0.99828 
0.00389326 -0.0584739 0.99831 
0.00579162 -0.0467031 0.998959 
0.00693858 -0.0375332 0.999351 
0.00861517 -0.0306552 0.999558 
0.00939347 -0.0255016 0.99967 
0.0105814 -0.0212592 0.999791 
0.0119464 -0.0197864 0.999785 
0.0129636 -0.0188544 0.999805 
0.0136648 -0.0163812 0.99984 
0.0142053 -0.0127574 0.999885 
0.0146388 -0.00912212 0.999917 
0.014965 -0.00583294 0.999936 
0.0151863 -0.00286205 0.999945 
0.0153398 -8.12676e-05 0.999946 
0.0154318 0.00269238 0.999941 
0.0154465 0.00560392 0.999928 
0.0153867 0.00880631 0.999906 
0.0152623 0.0124404 0.999869 
0.0150667 0.0166907 0.999811 
0.0147933 0.0217944 0.999717 
0.0144442 0.0279841 0.999568 
0.0140169 0.0355529 0.999335 
0.0134959 0.0448957 0.998966 
0.0128765 0.0564714 0.998388 
0.0121652 0.0707798 0.997486 
0.0113524 0.0884926 0.996082 
0.0104238 0.110505 0.993892 
0.00938909 0.137784 0.990491 
0.0082668 0.171434 0.985236 
0.00707548 0.212789 0.97715 
0.00584021 0.263323 0.964769 
0.00458987 0.324586 0.945926 
0.00335564 0.398015 0.917454 
0.00217548 0.484261 0.875001 
0.00109084 0.582284 0.81306 
0.000146523 0.688164 0.725622 
-0.000611682 0.793861 0.608151 
-0.00117071 0.889975 0.456036 
-0.00150895 0.962479 0.27134 
-0.00164775 0.997957 0.0636748 
-0.00165872 0.988663 -0.150076 
-0.00164798 0.93644 -0.350834 
-0.00172052 0.851717 -0.524039 
-0.00195105 0.748774 -0.662882 
-0.00237484 0.641203 -0.767439 
-0.00299207 0.538751 -0.842537 
-0.00378125 0.446443 -0.894885 
-0.00470917 0.366142 -0.930628 
-0.00573469 0.298211 -0.954563 
-0.00681432 0.241814 -0.970377 
-0.00790654 0.195215 -0.980805 
-0.00897023 0.157089 -0.987618 
-0.00997616 0.126232 -0.992023 
-0.0109062 0.101241 -0.994873 
-0.0117429 0.0809406 -0.996719 
-0.0124747 0.0644966 -0.997908 
-0.0131852 0.0516829 -0.998643 
-0.0137358 0.0405181 -0.99915 
-0.014175 0.0321163 -0.999449 
-0.0145949 0.024934 -0.999647 
-0.0148732 0.0192377 -0.999769 
-0.0150885 0.0145226 -0.999845 
-0.0152469 0.0105834 -0.999891 
-0.0153052 0.0071174 -0.999922 
-0.0152915 0.00406608 -0.999939 
-0.0152177 0.00127731 -0.999948 
-0.0151088 -0.00144731 -0.999949 
-0.0149545 -0.0042043 -0.999943 
-0.0147247 -0.00719228 -0.99993 
-0.0143738 -0.0105462 -0.999906 
-0.0139186 -0.0141497 -0.999868 
-0.0132786 -0.0175496 -0.999823 
-0.0123103 -0.0194667 -0.999807 
-0.0112394 -0.0200935 -0.999783 
-0.00990454 -0.023426 -0.99973 
-0.00874525 -0.0282678 -0.999621 
-0.0073496 -0.0344608 -0.999463 
-0.00548394 -0.0460701 -0.999004 
-0.00380606 -0.058447 -0.99831 
0.0032541 -0.0582179 0.998328 
0.00525881 -0.0466188 0.998965 
0.00631326 -0.0372663 0.999365 
0.00812307 -0.0305589 0.999564 
0.00902165 -0.0244719 0.999713 
0.0098803 -0.0208735 0.999798 
0.0116071 -0.0198924 0.9998 
0.0122263 -0.0186655 0.999819 
0.0126429 -0.0155772 0.999867 
0.0130164 -0.0117476 0.999914 
0.0133856 -0.00813482 0.999943 
0.0136498 -0.00489593 0.99996 
0.0137689 -0.00196425 0.999968 
0.0138884 0.00081771 0.999967 
0.013944 0.00362762 0.99996 
0.0139114 0.00664399 0.999945 
0.0138068 0.0100022 0.999918 
0.0136607 0.0138229 0.999875 
0.0134622 0.0183575 0.999805 
0.0131839 0.023825 0.999694 
0.0128473 0.0304656 0.999518 
0.012446 0.0385988 0.999243 
0.0119508 0.0486566 0.99881 
0.0113686 0.0610953 0.998135 
0.0107207 0.0764461 0.997084 
0.00997922 0.0954591 0.995453 
0.00911648 0.119086 0.992914 
0.00815531 0.148272 0.988986 
0.00712144 0.18414 0.98295 
0.00603174 0.228048 0.973708 
0.00490966 0.281393 0.959659 
0.00377773 0.345576 0.938463 
0.00266172 0.421807 0.906762 
0.00160222 0.51022 0.86012 
0.000641797 0.609334 0.792986 
-0.000176122 0.714933 0.699256 
-0.000815524 0.818971 0.573882 
-0.00126134 0.911177 0.412034 
-0.00149372 0.976003 0.217722 
-0.00154624 0.99998 0.00355802 
-0.00150354 0.977489 -0.210951 
-0.00147492 0.913661 -0.406495 
-0.00155516 0.821273 -0.570581 
-0.00180269 0.715154 -0.699029 
-0.0022407 0.608249 -0.793816 
-0.00286246 0.508725 -0.861003 
-0.00363837 0.42014 -0.907532 
-0.00452394 0.343742 -0.939134 
-0.00548109 0.27963 -0.960171 
-0.00647954 0.226598 -0.974044 
-0.00746282 0.182635 -0.983228 
-0.00838951 0.146761 -0.98921 
-0.00926882 0.117896 -0.993054 
-0.010083 0.0943568 -0.995558 
-0.0107833 0.0750136 -0.997193 
-0.0113182 0.0592861 -0.998254 
-0.0122876 0.0475078 -0.998849 
-0.0123428 0.0372801 -0.999304 
-0.0130246 0.0288286 -0.999564 
-0.0132329 0.022392 -0.999727 
-0.0134488 0.0170777 -0.999829 
-0.0136052 0.0126795 -0.999892 
-0.0138275 0.00898121 -0.999928 
-0.0138094 0.0055477 -0.999953 
-0.0137177 0.00263408 -0.999967 
-0.0137074 -0.000158908 -0.99997 
-0.0136465 -0.00289522 -0.999967 
-0.0136168 -0.00565636 -0.999955 
-0.0134951 -0.00856989 -0.999924 
-0.0131169 -0.0118117 -0.999909 
-0.0126844 -0.0153765 -0.999866 
-0.0120447 -0.0185481 -0.99982 
-0.0110565 -0.0200393 -0.999801 
-0.0107713 -0.0204296 -0.999794 
-0.00913978 -0.0247238 -0.999706 
-0.00760112 -0.030219 -0.999592 
-0.00624219 -0.0383645 -0.99932 
-0.00476767 -0.0473997 -0.998921 
-0.0031973 -0.0584772 -0.998309 
0.00246019 -0.0581 0.998338 
0.00437148 -0.0466145 0.998969 
0.00509585 -0.0369519 0.999385 
0.00715129 -0.0303423 0.999575 
0.00750868 -0.0246357 0.999721 
0.00783013 -0.0213241 0.999804 