# vtk DataFile Version 3.0 
Exported using Morpho https://github.com/Morpho-lang/morpho 
ASCII 
DATASET UNSTRUCTURED_GRID 

POINTS 2054 float 
-8.48528 -2.82843 0 
-8.20636 -2.82843 0 
-7.94054 -2.82843 0 
-7.6904 -2.82843 0 
-7.45357 -2.82843 0 
-7.22694 -2.82843 0 
-7.00705 -2.82843 0 
-6.79111 -2.82843 0 
-6.57731 -2.82843 0 
-6.36453 -2.82843 0 
-6.15219 -2.82843 0 
-5.94 -2.82843 0 
-5.72786 -2.82843 0 
-5.51573 -2.82843 0 
-5.3036 -2.82843 0 
-5.09147 -2.82843 0 
-4.87933 -2.82843 0 
-4.6672 -2.82843 0 
-4.45507 -2.82843 0 
-4.24294 -2.82843 0 
-4.03081 -2.82843 0 
-3.81867 -2.82843 0 
-3.60654 -2.82843 0 
-3.39441 -2.82843 0 
-3.18228 -2.82843 0 
-2.97015 -2.82843 0 
-2.75801 -2.82843 0 
-2.54588 -2.82843 0 
-2.33375 -2.82843 0 
-2.12162 -2.82843 0 
-1.90949 -2.82843 0 
-1.69735 -2.82843 0 
-1.48522 -2.82843 0 
-1.27309 -2.82843 0 
-1.06096 -2.82843 0 
-0.848825 -2.82843 0 
-0.636693 -2.82843 0 
-0.424561 -2.82843 0 
-0.212429 -2.82843 0 
-0.000296761 -2.82843 0 
0.211835 -2.82843 0 
0.423967 -2.82843 0 
0.636099 -2.82843 0 
0.848231 -2.82843 0 
1.06036 -2.82843 0 
1.2725 -2.82843 0 
1.48463 -2.82843 0 
1.69676 -2.82843 0 
1.90889 -2.82843 0 
2.12102 -2.82843 0 
2.33316 -2.82843 0 
2.54529 -2.82843 0 
2.75742 -2.82843 0 
2.96955 -2.82843 0 
3.18168 -2.82843 0 
3.39382 -2.82843 0 
3.60595 -2.82843 0 
3.81808 -2.82843 0 
4.03021 -2.82843 0 
4.24234 -2.82843 0 
4.45448 -2.82843 0 
4.66661 -2.82843 0 
4.87874 -2.82843 0 
5.09087 -2.82843 0 
5.303 -2.82843 0 
5.51514 -2.82843 0 
5.72727 -2.82843 0 
5.93941 -2.82843 0 
6.15159 -2.82843 0 
6.36393 -2.82843 0 
6.57672 -2.82843 0 
6.79055 -2.82843 0 
7.00652 -2.82843 0 
7.22647 -2.82843 0 
7.45313 -2.82843 0 
7.69005 -2.82843 0 
7.9403 -2.82843 0 
8.20621 -2.82843 0 
8.48528 -2.82843 0 
-8.48528 -2.5495 0 
-8.30526 -2.64845 0 
-8.07062 -2.59995 0 
-7.83904 -2.59637 0 
-7.59595 -2.59733 0 
-7.36578 -2.59177 0 
-7.13796 -2.5933 0 
-6.90908 -2.59428 0 
-6.68421 -2.5916 0 
-6.46568 -2.58832 0 
-6.24926 -2.58859 0 
-6.03358 -2.58941 0 
-5.81848 -2.59013 0 
-5.60402 -2.59075 0 
-5.39005 -2.59135 0 
-5.17642 -2.59186 0 
-4.96311 -2.59223 0 
-4.75009 -2.59242 0 
-4.53736 -2.59244 0 
-4.32497 -2.59236 0 
-4.1128 -2.59242 0 
-3.90059 -2.59259 0 
-3.68835 -2.5926 0 
-3.47627 -2.59248 0 
-3.26428 -2.59251 0 
-3.05216 -2.59271 0 
-2.83986 -2.59283 0 
-2.62755 -2.59274 0 
-2.41539 -2.59253 0 
-2.20336 -2.59238 0 
-1.99135 -2.59238 0 
-1.77924 -2.59246 0 
-1.56704 -2.59244 0 
-1.35495 -2.59215 0 
-1.14319 -2.59183 0 
-0.931581 -2.59195 0 
-0.719663 -2.59256 0 
-0.507197 -2.59324 0 
-0.294425 -2.59354 0 
-0.0817689 -2.59344 0 
0.130587 -2.59325 0 
0.342804 -2.59322 0 
0.555051 -2.59322 0 
0.767233 -2.59303 0 
0.97919 -2.59278 0 
1.19107 -2.59278 0 
1.40311 -2.59289 0 
1.61524 -2.59286 0 
1.82732 -2.59279 0 
2.03943 -2.59281 0 
2.25163 -2.5928 0 
2.46381 -2.59266 0 
2.67591 -2.59254 0 
2.88801 -2.59237 0 
3.10001 -2.59226 0 
3.31203 -2.59216 0 
3.52402 -2.59207 0 
3.73601 -2.59208 0 
3.94815 -2.59221 0 
4.16052 -2.5923 0 
4.37309 -2.59232 0 
4.58593 -2.59227 0 
4.79921 -2.5922 0 
5.01319 -2.59212 0 
5.22833 -2.5921 0 
5.44534 -2.59239 0 
5.6657 -2.59346 0 
5.89185 -2.59569 0 
6.12685 -2.59429 0 
6.36853 -2.59189 0 
6.6108 -2.57787 0 
6.84491 -2.61411 0 
7.08804 -2.58476 0 
7.34858 -2.60369 0 
7.58803 -2.59327 0 
7.83059 -2.59326 0 
8.06387 -2.59199 0 
8.30038 -2.64348 0 
8.48528 -2.54936 0 
-8.48528 -2.28369 0 
-8.25701 -2.4138 0 
-8.01078 -2.35334 0 
-7.73666 -2.37963 0 
-7.49744 -2.35565 0 
-7.26898 -2.35831 0 
-7.03324 -2.36676 0 
-6.7997 -2.36275 0 
-6.5773 -2.35166 0 
-6.35808 -2.3495 0 
-6.14038 -2.35058 0 
-5.92336 -2.35185 0 
-5.70723 -2.35272 0 
-5.49199 -2.35362 0 
-5.27734 -2.35447 0 
-5.0632 -2.35505 0 
-4.84958 -2.35534 0 
-4.63641 -2.35533 0 
-4.42363 -2.35504 0 
-4.21126 -2.35485 0 
-3.99909 -2.35513 0 
-3.78684 -2.3554 0 
-3.57461 -2.35516 0 
-3.36263 -2.35498 0 
-3.15066 -2.35537 0 
-2.93843 -2.35586 0 
-2.72604 -2.35589 0 
-2.51374 -2.35551 0 
-2.30162 -2.35509 0 
-2.08964 -2.35496 0 
-1.87761 -2.35518 0 
-1.66544 -2.3554 0 
-1.45322 -2.35518 0 
-1.2412 -2.35438 0 
-1.02967 -2.35407 0 
-0.818162 -2.35505 0 
-0.606054 -2.35676 0 
-0.393243 -2.3579 0 
-0.180256 -2.35789 0 
0.0323765 -2.35727 0 
0.244686 -2.35692 0 
0.456926 -2.35692 0 
0.669206 -2.35667 0 
0.881318 -2.35598 0 
1.09315 -2.35559 0 
1.305 -2.35583 0 
1.51709 -2.35595 0 
1.72919 -2.35571 0 
1.9412 -2.35566 0 
2.15334 -2.3558 0 
2.36559 -2.3556 0 
2.57772 -2.35522 0 
2.78976 -2.35507 0 
3.0019 -2.35461 0 
3.21373 -2.35451 0 
3.42571 -2.35439 0 
3.63769 -2.35431 0 
3.84965 -2.35453 0 
4.06183 -2.35491 0 
4.27435 -2.35507 0 
4.48707 -2.35507 0 
4.70017 -2.35506 0 
4.91376 -2.35498 0 
5.12819 -2.35502 0 
5.34378 -2.35528 0 
5.56106 -2.35662 0 
5.78097 -2.35971 0 
6.00401 -2.36251 0 
6.2308 -2.3624 0 
6.45748 -2.35551 0 
6.68075 -2.33423 0 
6.88797 -2.39744 0 
7.05313 -2.27289 0 
7.24377 -2.40237 0 
7.48542 -2.36016 0 
7.73055 -2.36599 0 
7.99177 -2.33552 0 
8.24864 -2.40698 0 
8.48528 -2.28345 0 
-8.48528 -2.03355 0 
-8.25312 -2.18214 0 
-8.03669 -2.07913 0 
-7.83956 -2.18231 0 
-7.6106 -2.12852 0 
-7.38852 -2.10959 0 
-7.16268 -2.14097 0 
-6.9229 -2.1435 0 
-6.70119 -2.12055 0 
-6.48111 -2.11285 0 
-6.26282 -2.11284 0 
-6.045 -2.1151 0 
-5.82775 -2.11658 0 
-5.61153 -2.11776 0 
-5.3962 -2.1192 0 
-5.18144 -2.1203 0 
-4.96732 -2.12084 0 
-4.75387 -2.12105 0 
-4.54086 -2.12091 0 
-4.32822 -2.12045 0 
-4.11596 -2.12045 0 
-3.90382 -2.12107 0 
-3.69156 -2.12116 0 
-3.47938 -2.12058 0 
-3.26746 -2.12068 0 
-3.05542 -2.12154 0 
-2.84307 -2.12198 0 
-2.63064 -2.12162 0 
-2.41836 -2.12087 0 
-2.20626 -2.12031 0 
-1.99426 -2.12034 0 
-1.78217 -2.1207 0 
-1.56989 -2.12074 0 
-1.35755 -2.11993 0 
-1.14542 -2.11838 0 
-0.934012 -2.11859 0 
-0.722404 -2.12089 0 
-0.509943 -2.12344 0 
-0.296911 -2.12431 0 
-0.0840921 -2.12359 0 
0.128295 -2.12281 0 
0.340414 -2.12274 0 
0.552564 -2.12288 0 
0.76478 -2.12226 0 
0.976792 -2.1213 0 
1.18855 -2.12128 0 
1.40042 -2.12188 0 
1.61256 -2.12177 0 
1.82458 -2.12141 0 
2.03655 -2.12164 0 
2.24875 -2.12174 0 
2.46099 -2.12114 0 
2.67302 -2.12065 0 
2.88504 -2.12054 0 
3.09728 -2.1194 0 
3.30873 -2.11968 0 
3.52086 -2.1195 0 
3.7329 -2.11938 0 
3.94484 -2.11986 0 
4.15715 -2.12044 0 
4.36983 -2.12035 0 
4.58282 -2.1204 0 
4.79606 -2.12017 0 
5.01004 -2.12012 0 
5.22483 -2.12002 0 
5.44073 -2.12051 0 
5.6582 -2.123 0 
5.8782 -2.12696 0 
6.10217 -2.12971 0 
6.33095 -2.12707 0 
6.567 -2.11601 0 
6.82301 -2.12303 0 
7.06572 -2.04567 0 
7.29733 -2.17484 0 
7.54632 -2.11408 0 
7.79371 -2.13741 0 
8.02274 -2.07453 0 
8.25027 -2.1738 0 
8.48528 -2.0332 0 
-8.48528 -1.79671 0 
-8.25436 -1.93882 0 
-8.01299 -1.83977 0 
-7.78596 -1.953 0 
-7.5297 -1.87194 0 
-7.2756 -1.88722 0 
-7.05707 -1.93544 0 
-6.84369 -1.89677 0 
-6.62219 -1.88079 0 
-6.40169 -1.87606 0 
-6.18206 -1.87854 0 
-5.96274 -1.881 0 
-5.74458 -1.88208 0 
-5.52796 -1.88344 0 
-5.31232 -1.88506 0 
-5.09736 -1.88569 0 
-4.88338 -1.88564 0 
-4.67019 -1.88555 0 
-4.45737 -1.88507 0 
-4.24485 -1.88447 0 
-4.03271 -1.88482 0 
-3.82061 -1.88562 0 
-3.60832 -1.88529 0 
-3.39617 -1.88464 0 
-3.18427 -1.88547 0 
-2.97209 -1.88672 0 
-2.7596 -1.88684 0 
-2.54714 -1.88601 0 
-2.33483 -1.88505 0 
-2.12268 -1.8846 0 
-1.91058 -1.885 0 
-1.69824 -1.88561 0 
-1.48561 -1.88547 0 
-1.27286 -1.88413 0 
-1.06032 -1.88216 0 
-0.848858 -1.8839 0 
-0.636875 -1.88781 0 
-0.424169 -1.89034 0 
-0.211518 -1.89004 0 
0.000731944 -1.88866 0 
0.21257 -1.88788 0 
0.424308 -1.88807 0 
0.636257 -1.88793 0 
0.848362 -1.88664 0 
1.06025 -1.88556 0 
1.27191 -1.88605 0 
1.48381 -1.88664 0 
1.69595 -1.886 0 
1.90782 -1.88577 0 
2.11974 -1.88637 0 
2.33202 -1.88609 0 
2.54419 -1.88502 0 
2.75607 -1.88472 0 
2.96812 -1.88462 0 
3.18055 -1.88217 0 
3.39117 -1.88415 0 
3.60398 -1.8838 0 
3.81618 -1.88366 0 
4.02827 -1.88469 0 
4.24071 -1.88523 0 
4.4544 -1.88509 0 
4.66716 -1.88476 0 
4.88099 -1.88493 0 
5.09545 -1.88466 0 
5.31057 -1.88453 0 
5.52653 -1.88564 0 
5.7436 -1.88981 0 
5.96352 -1.89563 0 
6.18733 -1.89813 0 
6.41543 -1.89522 0 
6.65059 -1.89622 0 
6.87542 -1.86913 0 
7.11122 -1.81621 0 
7.31223 -1.94975 0 
7.53264 -1.87683 0 
7.77077 -1.89068 0 
8.01717 -1.8297 0 
8.25014 -1.93148 0 
8.48528 -1.79628 0 
-8.48528 -1.57009 0 
-8.24868 -1.70836 0 
-8.015 -1.61096 0 
-7.76734 -1.73071 0 
-7.54593 -1.61782 0 
-7.32306 -1.66278 0 
-7.05152 -1.7082 0 
-6.79786 -1.66675 0 
-6.56099 -1.64764 0 
-6.33267 -1.64541 0 
-6.10856 -1.64921 0 
-5.88638 -1.65073 0 
-5.66697 -1.65153 0 
-5.44986 -1.65353 0 
-5.23379 -1.65525 0 
-5.01882 -1.6551 0 
-4.80519 -1.6548 0 
-4.59235 -1.65478 0 
-4.37976 -1.65422 0 
-4.16737 -1.65386 0 
-3.95537 -1.65471 0 
-3.74326 -1.6554 0 
-3.5309 -1.65455 0 
-3.31876 -1.65426 0 
-3.10682 -1.65593 0 
-2.89443 -1.65705 0 
-2.68177 -1.65644 0 
-2.46924 -1.65516 0 
-2.25682 -1.65408 0 
-2.04447 -1.65386 0 
-1.83202 -1.65455 0 
-1.61911 -1.65506 0 
-1.40572 -1.65429 0 
-1.19212 -1.65207 0 
-0.97885 -1.64982 0 
-0.767325 -1.65372 0 
-0.555434 -1.6581 0 
-0.343588 -1.65935 0 
-0.132061 -1.65818 0 
0.0792288 -1.65687 0 
0.290417 -1.65682 0 
0.501823 -1.6575 0 
0.713729 -1.65709 0 
0.925861 -1.65545 0 
1.13768 -1.65488 0 
1.34929 -1.65604 0 
1.56128 -1.6563 0 
1.77337 -1.65516 0 
1.985 -1.65561 0 
2.19698 -1.65642 0 
2.40939 -1.65525 0 
2.62143 -1.65394 0 
2.83323 -1.65414 0 
3.04553 -1.65355 0 
3.25842 -1.64868 0 
3.46746 -1.65522 0 
3.68272 -1.65284 0 
3.89574 -1.65288 0 
4.10731 -1.65378 0 
4.32287 -1.65565 0 
4.53627 -1.65249 0 
4.74932 -1.65397 0 
4.96428 -1.65355 0 
5.17935 -1.65257 0 
5.3944 -1.65202 0 
5.60927 -1.65354 0 
5.82513 -1.66019 0 
6.04295 -1.66711 0 
6.26383 -1.66843 0 
6.48537 -1.66776 0 
6.70098 -1.65646 0 
6.91299 -1.6206 0 
7.11709 -1.6046 0 
7.3526 -1.69716 0 
7.60698 -1.65764 0 
7.8325 -1.64214 0 
8.05985 -1.58842 0 
8.2608 -1.69223 0 
8.48528 -1.56961 0 
-8.48528 -1.35019 0 
-8.24958 -1.48044 0 
-8.0219 -1.3751 0 
-7.79713 -1.50391 0 
-7.58956 -1.39834 0 
-7.36199 -1.38754 0 
-7.16079 -1.49923 0 
-6.93764 -1.46284 0 
[...]
POINT_DATA 2054 
VECTORS vectors float
0.0178851 -0.027484 0.999462 
0.0204909 -0.0238888 0.999497 
0.0220081 -0.029109 0.999332 
0.0205194 -0.0272623 0.999419 
0.0206545 -0.0235552 0.999512 
0.0206652 -0.0203868 0.999582 
0.0206588 -0.017941 0.999629 
0.0205733 -0.0154877 0.999672 
0.0205075 -0.0127652 0.999712 
0.0204877 -0.00987451 0.999745 
0.0205032 -0.00699537 0.999769 
0.0205268 -0.00424758 0.999784 
0.0205432 -0.00163341 0.999791 
0.020547 0.000927073 0.999792 
0.0205359 0.00354471 0.999786 
0.0205081 0.0063468 0.999773 
0.020462 0.00947362 0.999749 
0.020395 0.0130815 0.99971 
0.0203035 0.017354 0.999647 
0.0201834 0.0225095 0.999547 
0.0200294 0.0288088 0.999388 
0.0198334 0.0365666 0.999138 
0.0195857 0.0461633 0.998746 
0.0192746 0.0580641 0.998131 
0.018886 0.0728387 0.997169 
0.0184001 0.0911841 0.995668 
0.0177928 0.11395 0.993332 
0.0170353 0.142157 0.989702 
0.016094 0.177021 0.98408 
0.0149303 0.219943 0.975403 
0.0135042 0.272472 0.962074 
0.0117823 0.336174 0.941732 
0.00975633 0.412334 0.910986 
0.0074704 0.50142 0.865177 
0.00505666 0.602161 0.798363 
0.00275912 0.710329 0.703868 
0.000912397 0.817558 0.575849 
-0.000170909 0.911171 0.412029 
-0.00039534 0.976206 0.216844 
-3.3987e-05 0.999995 0.00290336 
0.000338445 0.977415 -0.211327 
0.000141229 0.913305 -0.407279 
-0.00091196 0.820187 -0.572099 
-0.00273648 0.713053 -0.701109 
-0.00502267 0.604705 -0.796438 
-0.00743374 0.503633 -0.863891 
-0.00972185 0.414177 -0.91015 
-0.0117524 0.337663 -0.941199 
-0.0134797 0.273655 -0.961739 
-0.014911 0.220869 -0.975194 
-0.0160786 0.177737 -0.983951 
-0.0170227 0.14271 -0.989623 
-0.0177821 0.114375 -0.993283 
-0.0183913 0.0915121 -0.995638 
-0.0188792 0.0730917 -0.997151 
-0.0192693 0.0582595 -0.99812 
-0.0195808 0.046316 -0.998739 
-0.0198291 0.0366878 -0.999134 
-0.0200262 0.0289069 -0.999385 
-0.020181 0.0225901 -0.999545 
-0.0203009 0.0174213 -0.999646 
-0.0203917 0.0131389 -0.999709 
-0.0204581 0.00952335 -0.999749 
-0.0205037 0.0063906 -0.999773 
-0.0205306 0.00358324 -0.999787 
-0.0205424 0.000961783 -0.999792 
-0.0205429 -0.00159488 -0.999792 
-0.0205378 -0.00420447 -0.999784 
-0.0205186 -0.00694964 -0.999769 
-0.0205375 -0.00985862 -0.999744 
-0.0204812 -0.0126104 -0.999715 
-0.0206532 -0.0152889 -0.999673 
-0.0207358 -0.0177094 -0.999632 
-0.0207143 -0.0200969 -0.999587 
-0.0206947 -0.0233087 -0.999517 
-0.0205062 -0.0270072 -0.999427 
-0.0219935 -0.0287003 -0.999344 
-0.0204678 -0.0235827 -0.999505 
-0.0178953 -0.0274981 -0.999461 
0.00281632 -0.0277469 0.999624 
0.0136905 -0.0258888 0.999572 
0.0131064 -0.025158 0.999603 
0.0156359 -0.0269518 0.99952 
0.016926 -0.0253039 0.999543 
0.0174716 -0.0221104 0.99961 
0.0179813 -0.0191099 0.999662 
0.0182996 -0.0164093 0.999704 
0.0184152 -0.0136839 0.999743 
0.0184985 -0.0109357 0.999776 
0.0186357 -0.00816411 0.9998 
0.0187539 -0.00541272 0.999816 
0.0188348 -0.00274078 0.999826 
0.0188822 -0.000138719 0.999828 
0.0188999 0.00247795 0.999825 
0.0188853 0.00522756 0.999815 
0.018837 0.00824515 0.999795 
0.0187523 0.0116831 0.999763 
0.0186272 0.0157142 0.99971 
0.0184585 0.0205399 0.999625 
0.018245 0.0264038 0.999492 
0.0179782 0.0336046 0.99928 
0.0176438 0.0424983 0.998948 
0.017233 0.0535082 0.998426 
0.0167391 0.0671626 0.997609 
0.0161477 0.0841233 0.996331 
0.0154375 0.105193 0.994339 
0.0145891 0.131318 0.99124 
0.0135875 0.163615 0.986438 
0.0124201 0.203405 0.979023 
0.0110771 0.252189 0.967622 
0.00955672 0.311562 0.950185 
0.007877 0.382941 0.923746 
0.00609067 0.467075 0.884203 
0.00429805 0.563315 0.826237 
0.00263502 0.668772 0.743468 
0.00125141 0.777127 0.629347 
0.000281298 0.877556 0.479478 
-0.000221582 0.955435 0.295203 
-0.000353421 0.99627 0.0862778 
-0.000353642 0.991489 -0.130188 
-0.000508973 0.94226 -0.334882 
-0.00103831 0.858752 -0.512394 
-0.00201912 0.755675 -0.654949 
-0.00338924 0.647031 -0.762462 
-0.00501321 0.542831 -0.839833 
-0.00674274 0.448735 -0.893646 
-0.00844978 0.367152 -0.93013 
-0.0100494 0.298312 -0.954423 
-0.0114975 0.241199 -0.970415 
-0.0127743 0.194337 -0.980859 
-0.013878 0.15619 -0.987637 
-0.0148224 0.125292 -0.992016 
-0.0156223 0.100333 -0.994838 
-0.0162966 0.0802187 -0.996651 
-0.0168607 0.0640145 -0.997813 
-0.0173288 0.0509655 -0.998557 
-0.0177159 0.0404478 -0.999031 
-0.0180336 0.0319486 -0.999334 
-0.0182881 0.0250536 -0.999526 
-0.0184872 0.0194255 -0.999647 
-0.0186381 0.0147824 -0.999724 
-0.0187459 0.0108875 -0.999772 
-0.018813 0.00754097 -0.999801 
-0.0188402 0.00456976 -0.999819 
-0.018833 0.00181799 -0.999828 
-0.0188138 -0.000861697 -0.999829 
-0.0188242 -0.00360626 -0.999823 
-0.0187963 -0.00652547 -0.999809 
-0.0186847 -0.00958721 -0.999786 
-0.0182826 -0.0125836 -0.99976 
-0.0187351 -0.0155215 -0.999711 
-0.0179973 -0.0182274 -0.999678 
-0.0178695 -0.021609 -0.999613 
-0.0167974 -0.0248656 -0.999557 
-0.0154693 -0.0264706 -0.999536 
-0.0128212 -0.0248396 -0.999616 
-0.0134784 -0.0256926 -0.999581 
-0.00290839 -0.0276745 -0.999625 
0.00467947 -0.0284449 0.999594 
0.00748546 -0.0251012 0.999665 
0.0105856 -0.0247077 0.999641 
0.0142789 -0.0262266 0.999559 
0.0156966 -0.0239353 0.999596 
0.0166879 -0.0206484 0.999652 
0.0173809 -0.0176265 0.999698 
0.0178286 -0.0147552 0.999737 
0.0182318 -0.0120472 0.999766 
0.0185604 -0.00941197 0.999788 
0.0188019 -0.00673829 0.999805 
0.01897 -0.00404649 0.999816 
0.0190857 -0.00139993 0.999821 
0.0191524 0.00122587 0.99982 
0.0191697 0.00392909 0.999813 
0.0191393 0.00683594 0.999798 
0.0190615 0.0100917 0.999772 
0.018934 0.0138605 0.999729 
0.0187515 0.0183313 0.99966 
0.0185049 0.0237256 0.999552 
0.0181851 0.0303139 0.99938 
0.017788 0.0384302 0.999108 
0.0173087 0.0484687 0.99868 
0.0167328 0.0608985 0.998009 
0.0160447 0.0763195 0.996959 
0.0152345 0.0954805 0.99532 
0.0142946 0.119264 0.992765 
0.0132154 0.148701 0.9888 
0.0119884 0.185008 0.98267 
0.0106132 0.229588 0.973237 
0.00910298 0.284005 0.958787 
0.0074911 0.349785 0.936807 
0.00583477 0.428041 0.903748 
0.0042148 0.518843 0.854866 
0.00272851 0.620317 0.784353 
0.00146577 0.72795 0.685635 
0.00049305 0.833282 0.552852 
-0.00016598 0.923321 0.38403 
-0.000551814 0.982768 0.184842 
-0.000771256 0.999536 -0.0304055 
-0.000971071 0.97013 -0.242582 
-0.00130128 0.900988 -0.433845 
-0.00187788 0.805367 -0.592778 
-0.00275271 0.698111 -0.71599 
-0.00390876 0.591242 -0.806492 
-0.00528161 0.492238 -0.870452 
-0.00678285 0.404788 -0.914393 
-0.00831995 0.33007 -0.943927 
-0.00981609 0.267595 -0.963489 
-0.0112196 0.216028 -0.976329 
-0.0125013 0.173866 -0.984696 
-0.0136473 0.139636 -0.990115 
-0.0146551 0.111947 -0.993612 
-0.0155326 0.0895879 -0.995863 
-0.0162856 0.0715895 -0.997306 
-0.016927 0.0570785 -0.998231 
-0.0174655 0.0453843 -0.998822 
-0.0179093 0.0359473 -0.999198 
-0.0182683 0.0283023 -0.999437 
-0.0185538 0.0220756 -0.999589 
-0.0187729 0.0169655 -0.999684 
-0.0189282 0.0127135 -0.999744 
-0.0190211 0.00910491 -0.999782 
-0.0190487 0.00595482 -0.999805 
-0.0190038 0.00310332 -0.999819 
-0.0188697 0.00040324 -0.999826 
-0.0186427 -0.00227398 -0.999828 
-0.0183799 -0.00500043 -0.999823 
-0.0181627 -0.00777505 -0.99981 
-0.0179902 -0.010499 -0.999788 
-0.0179102 -0.0131553 -0.999758 
-0.017403 -0.0157116 -0.999731 
-0.0176984 -0.0176213 -0.999692 
-0.0165022 -0.0201521 -0.999668 
-0.0154734 -0.0234547 -0.999611 
-0.0139247 -0.0256101 -0.99958 
-0.0105234 -0.0242605 -0.999652 
-0.00740543 -0.0247815 -0.999674 
-0.00460462 -0.0283763 -0.999596 
0.00374181 -0.0275305 0.99962 
0.00727709 -0.0247312 0.999676 
0.010517 -0.0241726 0.999656 
0.013798 -0.0260604 0.99957 
0.015761 -0.0252741 0.999564 
0.016955 -0.0222988 0.999615 
0.0180058 -0.019136 0.999661 
0.0186608 -0.0160659 0.999703 
0.0190843 -0.0133075 0.999736 
0.0194595 -0.010758 0.999759 
0.0197785 -0.00822243 0.999777 
0.0200303 -0.00557599 0.99979 
0.020217 -0.0028966 0.999798 
0.0203398 -0.000245622 0.9998 
0.0203993 0.00242761 0.999796 
0.0203982 0.00523397 0.999785 
0.0203375 0.00830873 0.999765 
0.020215 0.0118054 0.999733 
0.0200271 0.0159005 0.99968 
0.0197699 0.0207986 0.999595 
0.0194379 0.0267397 0.99946 
0.0190231 0.0340207 0.999247 
0.0185153 0.0430083 0.99891 
0.0179058 0.0541309 0.99838 
0.0171861 0.067903 0.997551 
0.0163431 0.0849956 0.996254 
0.0153635 0.106229 0.99423 
0.0142391 0.132549 0.991082 
0.0129668 0.165063 0.986205 
0.0115495 0.205068 0.978687 
0.00999945 0.254028 0.967153 
0.00834042 0.313509 0.949557 
0.00661627 0.384915 0.922936 
0.00489612 0.468985 0.8832 
0.00327034 0.565038 0.825066 
0.00184059 0.669844 0.742506 
0.000676954 0.777408 0.629002 
-0.000178766 0.877337 0.479878 
-0.000729527 0.955116 0.29623 
-0.00103811 0.996126 0.0879272 
-0.00122246 0.99178 -0.127943 
-0.00143126 0.943242 -0.332105 
-0.00180712 0.860574 -0.509327 
-0.00244925 0.758276 -0.651934 
-0.00339101 0.650249 -0.759721 
-0.00460494 0.546495 -0.837457 
-0.00602371 0.452572 -0.891715 
-0.00755907 0.370847 -0.928671 
-0.00912274 0.301728 -0.953358 
-0.0106467 0.244267 -0.969657 
-0.0120829 0.196996 -0.980337 
-0.0134006 0.15845 -0.987284 
-0.0145863 0.127208 -0.991776 
-0.0156383 0.101945 -0.994674 
-0.0165587 0.0815417 -0.996539 
-0.0173567 0.0651483 -0.997732 
-0.018039 0.0518934 -0.998497 
-0.0186155 0.0412071 -0.998984 
-0.0190939 0.0325726 -0.999294 
-0.0194821 0.0255555 -0.99949 
-0.0197883 0.0198183 -0.999614 
-0.0200216 0.0150811 -0.999692 
-0.0201846 0.0111097 -0.999741 
-0.0202799 0.00769684 -0.999771 
-0.0203106 0.00467446 -0.999789 
-0.0202787 0.00188915 -0.999799 
-0.0201748 -0.000796477 -0.999803 
-0.0199755 -0.00348976 -0.999801 
-0.0197053 -0.00623025 -0.999793 
-0.0193992 -0.008948 -0.999778 
-0.019001 -0.0116329 -0.999758 
-0.0185149 -0.0146262 -0.999728 
-0.0178764 -0.0176933 -0.999691 
-0.017182 -0.0207811 -0.999642 
-0.015715 -0.0241475 -0.999591 
-0.01382 -0.025582 -0.999584 
-0.0103675 -0.0237466 -0.999668 
-0.00709025 -0.0244871 -0.999683 
-0.00371288 -0.0274792 -0.999622 
0.00291336 -0.0270927 0.999631 
0.00664429 -0.024887 0.999678 
0.00933726 -0.0244029 0.999662 
0.0132492 -0.0262763 0.999574 
0.0141854 -0.0242855 0.999612 
0.0157126 -0.0206287 0.999671 
0.0170878 -0.0177219 0.999705 
0.0171031 -0.0149085 0.99975 
0.0173699 -0.0122833 0.999781 
0.0177226 -0.00984501 0.999801 
0.0180734 -0.00729918 0.999817 
0.0183391 -0.00460967 0.999828 
0.0185101 -0.00190557 0.999834 
0.0186134 0.000780345 0.999833 
0.0186567 0.00352702 0.999827 
0.0186289 0.00645889 0.999812 
0.0185327 0.00971795 0.999788 
0.0183728 0.0134665 0.999747 
0.0181414 0.0178958 0.999682 
0.0178373 0.0232257 0.999578 
0.0174663 0.0297121 0.999413 
0.017014 0.0376798 0.999152 
0.0164546 0.0475293 0.998741 
0.0157902 0.059718 0.998098 
0.0150329 0.0748058 0.997092 
0.0141606 0.0935366 0.995522 
0.0131506 0.116788 0.993077 
0.0120044 0.145558 0.989284 
0.0107343 0.181029 0.983427 
0.0093558 0.224556 0.974424 
0.00788811 0.27764 0.960661 
0.00635383 0.341842 0.939744 
0.00479433 0.418387 0.908264 
0.00327637 0.507568 0.861613 
0.00188433 0.607849 0.794058 
0.000711171 0.714502 0.699639 
-0.000209177 0.820214 0.572061 
-0.000854544 0.912722 0.408582 
-0.00123626 0.976853 0.213908 
-0.0014187 0.999998 0.000984289 
-0.00151527 0.977347 -0.211637 
-0.00166163 0.913939 -0.405851 
-0.00197903 0.822072 -0.569384 
-0.00254177 0.716366 -0.697727 
-0.00336778 0.609379 -0.792879 
-0.00443107 0.509302 -0.860584 
-0.00567004 0.420183 -0.907429 
-0.00700381 0.343488 -0.939139 
-0.008368 0.279099 -0.960234 
-0.00971337 0.225761 -0.974142 
-0.0109883 0.181969 -0.983251 
-0.0121636 0.146333 -0.989168 
-0.0132389 0.117476 -0.992995 
-0.0142052 0.0941257 -0.995466 
-0.0150364 0.0752584 -0.997058 
-0.0158004 0.0601515 -0.998071 
-0.0164399 0.0478463 -0.998726 
-0.0169807 0.0379398 -0.999143 
-0.0174411 0.0299204 -0.999407 
-0.0178102 0.0233868 -0.999575 
-0.0180969 0.018003 -0.999681 
-0.01831 0.0135582 -0.999747 
-0.0184638 0.00978608 -0.999788 
-0.0185488 0.0065106 -0.999814 
-0.0185731 0.00356942 -0.999828 
-0.0185546 0.000814085 -0.999834 
-0.0185133 -0.00187802 -0.999834 
-0.0184126 -0.00459618 -0.999827 
-0.0181926 -0.00732383 -0.999815 
-0.0178382 -0.0099425 -0.999799 
-0.0173978 -0.0125257 -0.999778 
-0.0166348 -0.0152091 -0.999754 
-0.0154702 -0.0183179 -0.999719 
-0.0162057 -0.0210264 -0.999655 
-0.0142497 -0.0243471 -0.999612 
-0.0125399 -0.0257517 -0.999595 
-0.00902799 -0.0240062 -0.999675 
-0.00653314 -0.0247057 -0.999683 
-0.00288032 -0.027121 -0.999631 
0.00215964 -0.0268861 0.999637 
0.00523585 -0.0249077 0.999686 
0.00728033 -0.02459 0.999674 
0.0110145 -0.0264864 0.999596 
0.0112319 -0.0247748 0.999638 
0.0127888 -0.0213731 0.999697 
0.014249 -0.0175355 0.999751 
0.0143919 -0.0142746 0.999801 
0.0147207 -0.0116217 0.999831 
0.0151329 -0.00913563 0.99985 
0.0154904 -0.00648167 0.999865 
0.0157227 -0.00371521 0.999876 
0.0158684 -0.000969685 0.99988 
0.0159614 0.00176875 0.999877 
0.0159894 0.00460808 0.999868 
0.0159352 0.00768264 0.99985 
0.0158192 0.0111401 0.999819 
0.0156438 0.0151545 0.999769 
0.0153957 0.0199326 0.999689 
0.0150793 0.0257092 0.999562 
0.0147005 0.0327556 0.999362 
0.0142366 0.0414298 0.999047 
0.0136661 0.0521626 0.998552 
0.0130079 0.0654379 0.997779 
0.012271 0.0818672 0.996575 
0.0114222 0.102269 0.994698 
0.0104509 0.127568 0.991782 
0.00937451 0.158807 0.987272 
0.00820932 0.197247 0.980327 
0.00697328 0.244303 0.969682 
0.0056849 0.301512 0.953453 
0.00436459 0.370406 0.928867 
0.00305125 0.451987 0.892027 
0.00180434 0.545987 0.837799 
0.000694265 0.649793 0.760118 
-0.000206452 0.756945 0.653484 
-0.000889163 0.858763 0.512376 
-0.001335 0.941555 0.336857 
-0.00155834 0.990903 0.134562 
-0.00162247 0.99684 -0.0794122 
-0.00163127 0.958171 -0.286192 
-0.00170211 0.882941 -0.469485 
-0.00193197 0.784661 -0.619927 
-0.00237454 0.677491 -0.735534 
-0.00303992 0.572558 -0.819866 
-0.00390423 0.476411 -0.879222 
-0.00491223 0.391875 -0.920013 
-0.006 0.319784 -0.947479 
-0.00712846 0.259619 -0.965693 
-0.00825312 0.209868 -0.977703 
-0.00932208 0.16909 -0.985564 
-0.0103218 0.135976 -0.990666 
-0.0112546 0.10916 -0.993968 
-0.0120936 0.0874324 -0.996104 
-0.0127978 0.0698644 -0.997481 
-0.0135198 0.0559019 -0.998351 
-0.0140689 0.0443229 -0.998925 
-0.0145509 0.0350631 -0.999286 
-0.0149533 0.0275998 -0.999514 
-0.015297 0.0214013 -0.99966 
-0.0155083 0.0163598 -0.999752 
-0.0157092 0.0121548 -0.999809 
-0.0158288 0.00854205 -0.999845 
-0.0158843 0.00537559 -0.999866 
-0.0158865 0.00249645 -0.999877 
-0.0158551 -0.00023602 -0.999881 
-0.0158253 -0.00294081 -0.999877 
-0.0157259 -0.00566483 -0.999867 
-0.0154654 -0.00833636 -0.999852 
-0.0150766 -0.0107953 -0.999835 
-0.0144834 -0.0131375 -0.999815 
-0.0135609 -0.0157386 -0.99979 
-0.0128693 -0.0185252 -0.999752 
-0.013015 -0.0217295 -0.999685 
-0.0112622 -0.0254793 -0.99962 
-0.0094386 -0.0260669 -0.99962 
-0.00649583 -0.0240864 -0.999695 
-0.00503249 -0.0253194 -0.999676 
-0.00212348 -0.0269834 -0.999635 
0.00165645 -0.0268281 0.999638 
0.00394266 -0.0250724 0.999687 
0.00559242 -0.0248188 0.999679 
0.00856611 -0.0267583 0.999611 
0.00892323 -0.0256245 0.99964 
0.0097325 -0.0220714 0.999715 
0.0115667 -0.0191155 0.999758 
0.0117725 -0.0160524 0.999808 
0.0119694 -0.0133089 0.999846 
0.0123402 -0.0108715 0.999871 
0.0127362 -0.00835798 0.999891 
0.0130497 -0.00562088 0.999906 
0.0132278 -0.00280607 0.999915 
0.0133467 -3.72199e-05 0.999917 
0.0134238 0.00275381 0.999912 
0.0134191 0.00568762 0.9999 
0.0133375 0.00891113 0.999878 
0.0132086 0.0125709 0.99984 
0.0130259 0.0168529 0.99978 
0.0127767 0.0219911 0.999683 
0.012465 0.0282217 0.99953 
0.0120963 0.0358385 0.999291 
0.0116416 0.0452312 0.998915 
0.0110927 0.05686 0.998327 
0.0104767 0.07123 0.997412 
0.00978929 0.089012 0.995989 
0.00899617 0.111095 0.993776 
0.00810377 0.138439 0.990345 
0.00713657 0.172143 0.985054 
0.00611069 0.21354 0.976923 
0.00504368 0.264098 0.96449 
0.00395086 0.325362 0.945589 
0.00284829 0.398769 0.917055 
0.00177065 0.484968 0.874538 
0.000767815 0.58292 0.812536 
-0.000102666 0.688696 0.725056 
-0.000789376 0.794258 0.607586 
-0.00128695 0.890214 0.455544 
-0.00157426 0.962573 0.271018 
-0.00167106 0.997973 0.0636013 
-0.00164216 0.988703 -0.149878 
-0.00158473 0.936594 -0.350416 
-0.00159935 0.852031 -0.523493 
-0.00176144 0.749242 -0.6623 
-0.00210826 0.641794 -0.766881 
-0.0026426 0.539431 -0.842033 
-0.00333942 0.447181 -0.894445 
-0.00414998 0.366915 -0.930253 
-0.00503046 0.298995 -0.954249 
-0.00595854 0.242585 -0.97012 
-0.00688626 0.195953 -0.980597 
-0.00776996 0.15778 -0.987451 
-0.00861308 0.126865 -0.99189 
-0.00941031 0.101806 -0.994767 
-0.0101189 0.0814329 -0.996634 
-0.0106937 0.064923 -0.99784 
-0.0114155 0.052052 -0.998586 
-0.0118536 0.0408327 -0.999102 
-0.0122214 0.0323818 -0.999407 
-0.0126534 0.0251516 -0.99961 
-0.0128529 0.0194175 -0.999735 
-0.0130328 0.014669 -0.999814 
-0.0132191 0.0107007 -0.999862 
-0.0132878 0.00721195 -0.999892 
-0.0133015 0.00413937 -0.999909 
-0.0132718 0.0013293 -0.999917 
-0.0132609 -0.00140656 -0.999918 
-0.0132413 -0.00411584 -0.99991 
-0.0131486 -0.006832 -0.999896 
-0.012847 -0.00942183 -0.999879 
-0.0123705 -0.0117596 -0.999861 
-0.0116561 -0.0142166 -0.999838 
-0.0106548 -0.0172655 -0.9998 
-0.0109158 -0.0205279 -0.999736 
-0.00996132 -0.0238623 -0.999673 
-0.00837088 -0.0265704 -0.99962 
-0.00655275 -0.025612 -0.999652 
-0.00379505 -0.0250871 -0.999686 
-0.00169912 -0.0269368 -0.999636 
0.00132975 -0.0267994 0.999639 
0.00302496 -0.0252488 0.999686 
0.00438295 -0.0250679 0.999679 
0.00671837 -0.0270491 0.999617 
0.00730183 -0.0250386 0.999667 
0.0076888 -0.0213853 0.999749 
0.00938906 -0.0185257 0.999791 
0.00955222 -0.0153856 0.999843 
0.00987226 -0.012704 0.999877 
0.0102541 -0.0102516 0.999901 
0.0106356 -0.00761308 0.999921 
0.0109058 -0.00476615 0.999936 
0.0110242 -0.0019161 0.999944 
0.0111364 0.000871093 0.999944 
0.0111908 0.00370179 0.999937 
0.0111657 0.00673648 0.999921 
0.0110739 0.0101119 0.999894 
0.0109476 0.0139566 0.999849 
0.0107788 0.0185194 0.999777 
0.0105393 0.0240197 0.999662 
0.0102486 0.0307034 0.999482 
0.00990296 0.0388857 0.999201 
0.00947552 0.0489935 0.998761 
0.00897249 0.0614885 0.998074 
0.00841841 0.0769078 0.997009 
0.0077942 0.0959968 0.995358 
0.00707521 0.119698 0.992792 
0.00628218 0.148951 0.988832 
0.0054398 0.184878 0.982754 
0.00456197 0.228832 0.973463 
0.00366493 0.282204 0.959355 
0.00276107 0.346383 0.938097 
0.00186431 0.422575 0.906333 
0.00100456 0.510911 0.85964 
0.000217925 0.609915 0.792474 
-0.000456937 0.71538 0.698742 
-0.000987354 0.819274 0.573406 
-0.00135494 0.911337 0.411662 
-0.00153888 0.976055 0.217516 
-0.00156168 0.999992 0.00356008 
-0.00148879 0.97754 -0.210741 
-0.00141007 0.91382 -0.40612 
-0.00140883 0.821577 -0.570101 
-0.00154066 0.715607 -0.698507 
-0.00183009 0.608837 -0.7933 
-0.00227389 0.509422 -0.860521 
-0.00284692 0.420913 -0.907104 
-0.00350959 0.344552 -0.938769 
-0.00423499 0.280442 -0.959869 
-0.00500772 0.227385 -0.9738 
-0.00577766 0.183374 -0.983034 
-0.0065108 0.147437 -0.989057 
-0.00722516 0.118505 -0.992934 
-0.0079058 0.0948902 -0.995463 
-0.00849938 0.075468 -0.997119 
-0.00894504 0.0596663 -0.998184 
-0.00979048 0.0478482 -0.998814 
-0.00984318 0.0375554 -0.999252 
-0.010424 0.0290582 -0.99953 
-0.0105811 0.0225784 -0.999695 
-0.0107532 0.0172317 -0.9998 
-0.0108789 0.012806 -0.999865 
-0.0110807 0.00908567 -0.999904 
-0.0110626 0.00563293 -0.999929 
-0.0109744 0.00270008 -0.999943 
-0.0109669 -0.000112079 -0.999946 
-0.0109052 -0.00284385 -0.999943 
-0.010873 -0.00549359 -0.999932 
-0.0107615 -0.0080103 -0.999917 
-0.010405 -0.0103503 -0.999898 
-0.0099732 -0.0126033 -0.999877 
-0.00932648 -0.0151418 -0.999849 
-0.00844237 -0.0182258 -0.999805 
-0.008895 -0.0209774 -0.999746 
-0.00762186 -0.0248136 -0.999671 
-0.00603947 -0.0266911 -0.999631 
-0.00442505 -0.0245085 -0.999694 
-0.00270165 -0.0257606 -0.999674 
-0.0012551 -0.0268289 -0.999639 
0.00109958 -0.026774 0.99964 
0.00238079 -0.0252874 0.999687 
0.00348896 -0.0253017 0.999676 
0.00538095 -0.0272246 0.999621 
0.00580913 -0.0250676 0.999676 