# vtk DataFile Version 3.0 
Exported using Morpho https://github.com/Morpho-lang/morpho 
ASCII 
DATASET UNSTRUCTURED_GRID 

POINTS 2054 float 
-8.48528 -2.82843 0 
-8.20636 -2.82843 0 
-7.94054 -2.82843 0 
-7.6904 -2.82843 0 
-7.45357 -2.82843 0 
-7.22694 -2.82843 0 
-7.00705 -2.82843 0 
-6.79111 -2.82843 0 
-6.57731 -2.82843 0 
-6.36453 -2.82843 0 
-6.15219 -2.82843 0 
-5.94 -2.82843 0 
-5.72786 -2.82843 0 
-5.51573 -2.82843 0 
-5.3036 -2.82843 0 
-5.09147 -2.82843 0 
-4.87933 -2.82843 0 
-4.6672 -2.82843 0 
-4.45507 -2.82843 0 
-4.24294 -2.82843 0 
-4.03081 -2.82843 0 
-3.81867 -2.82843 0 
-3.60654 -2.82843 0 
-3.39441 -2.82843 0 
-3.18228 -2.82843 0 
-2.97015 -2.82843 0 
-2.75801 -2.82843 0 
-2.54588 -2.82843 0 
-2.33375 -2.82843 0 
-2.12162 -2.82843 0 
-1.90949 -2.82843 0 
-1.69735 -2.82843 0 
-1.48522 -2.82843 0 
-1.27309 -2.82843 0 
-1.06096 -2.82843 0 
-0.848825 -2.82843 0 
-0.636693 -2.82843 0 
-0.424561 -2.82843 0 
-0.212429 -2.82843 0 
-0.000296761 -2.82843 0 
0.211835 -2.82843 0 
0.423967 -2.82843 0 
0.636099 -2.82843 0 
0.848231 -2.82843 0 
1.06036 -2.82843 0 
1.2725 -2.82843 0 
1.48463 -2.82843 0 
1.69676 -2.82843 0 
1.90889 -2.82843 0 
2.12102 -2.82843 0 
2.33316 -2.82843 0 
2.54529 -2.82843 0 
2.75742 -2.82843 0 
2.96955 -2.82843 0 
3.18168 -2.82843 0 
3.39382 -2.82843 0 
3.60595 -2.82843 0 
3.81808 -2.82843 0 
4.03021 -2.82843 0 
4.24234 -2.82843 0 
4.45448 -2.82843 0 
4.66661 -2.82843 0 
4.87874 -2.82843 0 
5.09087 -2.82843 0 
5.303 -2.82843 0 
5.51514 -2.82843 0 
5.72727 -2.82843 0 
5.93941 -2.82843 0 
6.15159 -2.82843 0 
6.36393 -2.82843 0 
6.57672 -2.82843 0 
6.79055 -2.82843 0 
7.00652 -2.82843 0 
7.22647 -2.82843 0 
7.45313 -2.82843 0 
7.69005 -2.82843 0 
7.9403 -2.82843 0 
8.20621 -2.82843 0 
8.48528 -2.82843 0 
-8.48528 -2.5495 0 
-8.30526 -2.64845 0 
-8.07062 -2.59995 0 
-7.83904 -2.59637 0 
-7.59595 -2.59733 0 
-7.36578 -2.59177 0 
-7.13796 -2.5933 0 
-6.90908 -2.59428 0 
-6.68421 -2.5916 0 
-6.46568 -2.58832 0 
-6.24926 -2.58859 0 
-6.03358 -2.58941 0 
-5.81848 -2.59013 0 
-5.60402 -2.59075 0 
-5.39005 -2.59135 0 
-5.17642 -2.59186 0 
-4.96311 -2.59223 0 
-4.75009 -2.59242 0 
-4.53736 -2.59244 0 
-4.32497 -2.59236 0 
-4.1128 -2.59242 0 
-3.90059 -2.59259 0 
-3.68835 -2.5926 0 
-3.47627 -2.59248 0 
-3.26428 -2.59251 0 
-3.05216 -2.59271 0 
-2.83986 -2.59283 0 
-2.62755 -2.59274 0 
-2.41539 -2.59253 0 
-2.20336 -2.59238 0 
-1.99135 -2.59238 0 
-1.77924 -2.59246 0 
-1.56704 -2.59244 0 
-1.35495 -2.59215 0 
-1.14319 -2.59183 0 
-0.931581 -2.59195 0 
-0.719663 -2.59256 0 
-0.507197 -2.59324 0 
-0.294425 -2.59354 0 
-0.0817689 -2.59344 0 
0.130587 -2.59325 0 
0.342804 -2.59322 0 
0.555051 -2.59322 0 
0.767233 -2.59303 0 
0.97919 -2.59278 0 
1.19107 -2.59278 0 
1.40311 -2.59289 0 
1.61524 -2.59286 0 
1.82732 -2.59279 0 
2.03943 -2.59281 0 
2.25163 -2.5928 0 
2.46381 -2.59266 0 
2.67591 -2.59254 0 
2.88801 -2.59237 0 
3.10001 -2.59226 0 
3.31203 -2.59216 0 
3.52402 -2.59207 0 
3.73601 -2.59208 0 
3.94815 -2.59221 0 
4.16052 -2.5923 0 
4.37309 -2.59232 0 
4.58593 -2.59227 0 
4.79921 -2.5922 0 
5.01319 -2.59212 0 
5.22833 -2.5921 0 
5.44534 -2.59239 0 
5.6657 -2.59346 0 
5.89185 -2.59569 0 
6.12685 -2.59429 0 
6.36853 -2.59189 0 
6.6108 -2.57787 0 
6.84491 -2.61411 0 
7.08804 -2.58476 0 
7.34858 -2.60369 0 
7.58803 -2.59327 0 
7.83059 -2.59326 0 
8.06387 -2.59199 0 
8.30038 -2.64348 0 
8.48528 -2.54936 0 
-8.48528 -2.28369 0 
-8.25701 -2.4138 0 
-8.01078 -2.35334 0 
-7.73666 -2.37963 0 
-7.49744 -2.35565 0 
-7.26898 -2.35831 0 
-7.03324 -2.36676 0 
-6.7997 -2.36275 0 
-6.5773 -2.35166 0 
-6.35808 -2.3495 0 
-6.14038 -2.35058 0 
-5.92336 -2.35185 0 
-5.70723 -2.35272 0 
-5.49199 -2.35362 0 
-5.27734 -2.35447 0 
-5.0632 -2.35505 0 
-4.84958 -2.35534 0 
-4.63641 -2.35533 0 
-4.42363 -2.35504 0 
-4.21126 -2.35485 0 
-3.99909 -2.35513 0 
-3.78684 -2.3554 0 
-3.57461 -2.35516 0 
-3.36263 -2.35498 0 
-3.15066 -2.35537 0 
-2.93843 -2.35586 0 
-2.72604 -2.35589 0 
-2.51374 -2.35551 0 
-2.30162 -2.35509 0 
-2.08964 -2.35496 0 
-1.87761 -2.35518 0 
-1.66544 -2.3554 0 
-1.45322 -2.35518 0 
-1.2412 -2.35438 0 
-1.02967 -2.35407 0 
-0.818162 -2.35505 0 
-0.606054 -2.35676 0 
-0.393243 -2.3579 0 
-0.180256 -2.35789 0 
0.0323765 -2.35727 0 
0.244686 -2.35692 0 
0.456926 -2.35692 0 
0.669206 -2.35667 0 
0.881318 -2.35598 0 
1.09315 -2.35559 0 
1.305 -2.35583 0 
1.51709 -2.35595 0 
1.72919 -2.35571 0 
1.9412 -2.35566 0 
2.15334 -2.3558 0 
2.36559 -2.3556 0 
2.57772 -2.35522 0 
2.78976 -2.35507 0 
3.0019 -2.35461 0 
3.21373 -2.35451 0 
3.42571 -2.35439 0 
3.63769 -2.35431 0 
3.84965 -2.35453 0 
4.06183 -2.35491 0 
4.27435 -2.35507 0 
4.48707 -2.35507 0 
4.70017 -2.35506 0 
4.91376 -2.35498 0 
5.12819 -2.35502 0 
5.34378 -2.35528 0 
5.56106 -2.35662 0 
5.78097 -2.35971 0 
6.00401 -2.36251 0 
6.2308 -2.3624 0 
6.45748 -2.35551 0 
6.68075 -2.33423 0 
6.88797 -2.39744 0 
7.05313 -2.27289 0 
7.24377 -2.40237 0 
7.48542 -2.36016 0 
7.73055 -2.36599 0 
7.99177 -2.33552 0 
8.24864 -2.40698 0 
8.48528 -2.28345 0 
-8.48528 -2.03355 0 
-8.25312 -2.18214 0 
-8.03669 -2.07913 0 
-7.83956 -2.18231 0 
-7.6106 -2.12852 0 
-7.38852 -2.10959 0 
-7.16268 -2.14097 0 
-6.9229 -2.1435 0 
-6.70119 -2.12055 0 
-6.48111 -2.11285 0 
-6.26282 -2.11284 0 
-6.045 -2.1151 0 
-5.82775 -2.11658 0 
-5.61153 -2.11776 0 
-5.3962 -2.1192 0 
-5.18144 -2.1203 0 
-4.96732 -2.12084 0 
-4.75387 -2.12105 0 
-4.54086 -2.12091 0 
-4.32822 -2.12045 0 
-4.11596 -2.12045 0 
-3.90382 -2.12107 0 
-3.69156 -2.12116 0 
-3.47938 -2.12058 0 
-3.26746 -2.12068 0 
-3.05542 -2.12154 0 
-2.84307 -2.12198 0 
-2.63064 -2.12162 0 
-2.41836 -2.12087 0 
-2.20626 -2.12031 0 
-1.99426 -2.12034 0 
-1.78217 -2.1207 0 
-1.56989 -2.12074 0 
-1.35755 -2.11993 0 
-1.14542 -2.11838 0 
-0.934012 -2.11859 0 
-0.722404 -2.12089 0 
-0.509943 -2.12344 0 
-0.296911 -2.12431 0 
-0.0840921 -2.12359 0 
0.128295 -2.12281 0 
0.340414 -2.12274 0 
0.552564 -2.12288 0 
0.76478 -2.12226 0 
0.976792 -2.1213 0 
1.18855 -2.12128 0 
1.40042 -2.12188 0 
1.61256 -2.12177 0 
1.82458 -2.12141 0 
2.03655 -2.12164 0 
2.24875 -2.12174 0 
2.46099 -2.12114 0 
2.67302 -2.12065 0 
2.88504 -2.12054 0 
3.09728 -2.1194 0 
3.30873 -2.11968 0 
3.52086 -2.1195 0 
3.7329 -2.11938 0 
3.94484 -2.11986 0 
4.15715 -2.12044 0 
4.36983 -2.12035 0 
4.58282 -2.1204 0 
4.79606 -2.12017 0 
5.01004 -2.12012 0 
5.22483 -2.12002 0 
5.44073 -2.12051 0 
5.6582 -2.123 0 
5.8782 -2.12696 0 
6.10217 -2.12971 0 
6.33095 -2.12707 0 
6.567 -2.11601 0 
6.82301 -2.12303 0 
7.06572 -2.04567 0 
7.29733 -2.17484 0 
7.54632 -2.11408 0 
7.79371 -2.13741 0 
8.02274 -2.07453 0 
8.25027 -2.1738 0 
8.48528 -2.0332 0 
-8.48528 -1.79671 0 
-8.25436 -1.93882 0 
-8.01299 -1.83977 0 
-7.78596 -1.953 0 
-7.5297 -1.87194 0 
-7.2756 -1.88722 0 
-7.05707 -1.93544 0 
-6.84369 -1.89677 0 
-6.62219 -1.88079 0 
-6.40169 -1.87606 0 
-6.18206 -1.87854 0 
-5.96274 -1.881 0 
-5.74458 -1.88208 0 
-5.52796 -1.88344 0 
-5.31232 -1.88506 0 
-5.09736 -1.88569 0 
-4.88338 -1.88564 0 
-4.67019 -1.88555 0 
-4.45737 -1.88507 0 
-4.24485 -1.88447 0 
-4.03271 -1.88482 0 
-3.82061 -1.88562 0 
-3.60832 -1.88529 0 
-3.39617 -1.88464 0 
-3.18427 -1.88547 0 
-2.97209 -1.88672 0 
-2.7596 -1.88684 0 
-2.54714 -1.88601 0 
-2.33483 -1.88505 0 
-2.12268 -1.8846 0 
-1.91058 -1.885 0 
-1.69824 -1.88561 0 
-1.48561 -1.88547 0 
-1.27286 -1.88413 0 
-1.06032 -1.88216 0 
-0.848858 -1.8839 0 
-0.636875 -1.88781 0 
-0.424169 -1.89034 0 
-0.211518 -1.89004 0 
0.000731944 -1.88866 0 
0.21257 -1.88788 0 
0.424308 -1.88807 0 
0.636257 -1.88793 0 
0.848362 -1.88664 0 
1.06025 -1.88556 0 
1.27191 -1.88605 0 
1.48381 -1.88664 0 
1.69595 -1.886 0 
1.90782 -1.88577 0 
2.11974 -1.88637 0 
2.33202 -1.88609 0 
2.54419 -1.88502 0 
2.75607 -1.88472 0 
2.96812 -1.88462 0 
3.18055 -1.88217 0 
3.39117 -1.88415 0 
3.60398 -1.8838 0 
3.81618 -1.88366 0 
4.02827 -1.88469 0 
4.24071 -1.88523 0 
4.4544 -1.88509 0 
4.66716 -1.88476 0 
4.88099 -1.88493 0 
5.09545 -1.88466 0 
5.31057 -1.88453 0 
5.52653 -1.88564 0 
5.7436 -1.88981 0 
5.96352 -1.89563 0 
6.18733 -1.89813 0 
6.41543 -1.89522 0 
6.65059 -1.89622 0 
6.87542 -1.86913 0 
7.11122 -1.81621 0 
7.31223 -1.94975 0 
7.53264 -1.87683 0 
7.77077 -1.89068 0 
8.01717 -1.8297 0 
8.25014 -1.93148 0 
8.48528 -1.79628 0 
-8.48528 -1.57009 0 
-8.24868 -1.70836 0 
-8.015 -1.61096 0 
-7.76734 -1.73071 0 
-7.54593 -1.61782 0 
-7.32306 -1.66278 0 
-7.05152 -1.7082 0 
-6.79786 -1.66675 0 
-6.56099 -1.64764 0 
-6.33267 -1.64541 0 
-6.10856 -1.64921 0 
-5.88638 -1.65073 0 
-5.66697 -1.65153 0 
-5.44986 -1.65353 0 
-5.23379 -1.65525 0 
-5.01882 -1.6551 0 
-4.80519 -1.6548 0 
-4.59235 -1.65478 0 
-4.37976 -1.65422 0 
-4.16737 -1.65386 0 
-3.95537 -1.65471 0 
-3.74326 -1.6554 0 
-3.5309 -1.65455 0 
-3.31876 -1.65426 0 
-3.10682 -1.65593 0 
-2.89443 -1.65705 0 
-2.68177 -1.65644 0 
-2.46924 -1.65516 0 
-2.25682 -1.65408 0 
-2.04447 -1.65386 0 
-1.83202 -1.65455 0 
-1.61911 -1.65506 0 
-1.40572 -1.65429 0 
-1.19212 -1.65207 0 
-0.97885 -1.64982 0 
-0.767325 -1.65372 0 
-0.555434 -1.6581 0 
-0.343588 -1.65935 0 
-0.132061 -1.65818 0 
0.0792288 -1.65687 0 
0.290417 -1.65682 0 
0.501823 -1.6575 0 
0.713729 -1.65709 0 
0.925861 -1.65545 0 
1.13768 -1.65488 0 
1.34929 -1.65604 0 
1.56128 -1.6563 0 
1.77337 -1.65516 0 
1.985 -1.65561 0 
2.19698 -1.65642 0 
2.40939 -1.65525 0 
2.62143 -1.65394 0 
2.83323 -1.65414 0 
3.04553 -1.65355 0 
3.25842 -1.64868 0 
3.46746 -1.65522 0 
3.68272 -1.65284 0 
3.89574 -1.65288 0 
4.10731 -1.65378 0 
4.32287 -1.65565 0 
4.53627 -1.65249 0 
4.74932 -1.65397 0 
4.96428 -1.65355 0 
5.17935 -1.65257 0 
5.3944 -1.65202 0 
5.60927 -1.65354 0 
5.82513 -1.66019 0 
6.04295 -1.66711 0 
6.26383 -1.66843 0 
6.48537 -1.66776 0 
6.70098 -1.65646 0 
6.91299 -1.6206 0 
7.11709 -1.6046 0 
7.3526 -1.69716 0 
7.60698 -1.65764 0 
7.8325 -1.64214 0 
8.05985 -1.58842 0 
8.2608 -1.69223 0 
8.48528 -1.56961 0 
-8.48528 -1.35019 0 
-8.24958 -1.48044 0 
-8.0219 -1.3751 0 
-7.79713 -1.50391 0 
-7.58956 -1.39834 0 
-7.36199 -1.38754 0 
-7.16079 -1.49923 0 
-6.93764 -1.46284 0 
[...]
POINT_DATA 2054 
VECTORS vectors float
0.00377137 -0.00599307 0.999975 
0.00516177 -0.0233169 0.999715 
0.00493818 -0.0265155 0.999636 
0.00494889 -0.0258408 0.999654 
0.00462801 -0.0231119 0.999722 
0.00459429 -0.0201651 0.999786 
0.00453913 -0.0175471 0.999836 
0.00451484 -0.0150342 0.999877 
0.00449925 -0.0123991 0.999913 
0.00449292 -0.0096545 0.999943 
0.00449333 -0.0069012 0.999966 
0.00449661 -0.0042202 0.999981 
0.00449966 -0.00162551 0.999989 
0.00450058 0.000936984 0.999989 
0.00449846 0.00356528 0.999984 
0.00449273 0.00638134 0.99997 
0.00448292 0.00952432 0.999945 
0.00446846 0.0131518 0.999904 
0.00444861 0.0174477 0.999838 
0.00442247 0.0226301 0.999734 
0.00438882 0.0289598 0.999571 
0.00434601 0.0367517 0.999315 
0.00429193 0.0463871 0.998914 
0.004224 0.058333 0.998288 
0.00413899 0.0731601 0.997312 
0.00403271 0.0915659 0.995791 
0.00389992 0.114401 0.993427 
0.00373429 0.142685 0.989761 
0.00352839 0.177632 0.984091 
0.00327381 0.220642 0.975349 
0.00296181 0.273254 0.961938 
0.00258516 0.33702 0.941494 
0.0021419 0.413204 0.910636 
0.00164123 0.502245 0.864724 
0.00111124 0.602859 0.797847 
0.000604861 0.71083 0.703364 
0.000196121 0.817843 0.575442 
-4.40326e-05 0.911286 0.411774 
-9.19507e-05 0.97623 0.216735 
-7.5598e-06 0.999996 0.00290671 
7.93203e-05 0.97744 -0.211211 
3.74708e-05 0.913421 -0.407016 
-0.000196038 0.820475 -0.571683 
-0.000599915 0.713558 -0.700596 
-0.00110384 0.605409 -0.795914 
-0.00163324 0.504465 -0.863431 
-0.00213442 0.415053 -0.909795 
-0.00257874 0.338516 -0.940957 
-0.00295655 0.274442 -0.961599 
-0.00326962 0.221572 -0.975139 
-0.00352503 0.178352 -0.98396 
-0.0037315 0.143241 -0.989681 
-0.00389755 0.114828 -0.993378 
-0.00403072 0.0918958 -0.995761 
-0.00413735 0.0734144 -0.997293 
-0.0042226 0.0585296 -0.998277 
-0.00429068 0.0465407 -0.998907 
-0.00434491 0.0368731 -0.999311 
-0.00438791 0.0290577 -0.999568 
-0.00442168 0.0227104 -0.999732 
-0.00444779 0.0175145 -0.999837 
-0.00446748 0.0132084 -0.999903 
-0.00448174 0.00957282 -0.999944 
-0.00449131 0.00642333 -0.999969 
-0.0044968 0.0036017 -0.999983 
-0.00449886 0.000970115 -0.999989 
-0.00449783 -0.00159053 -0.999989 
-0.00449469 -0.00417636 -0.999981 
-0.00448797 -0.00685271 -0.999966 
-0.00448814 -0.00959145 -0.999944 
-0.00448719 -0.0122539 -0.999915 
-0.00452289 -0.0148607 -0.999879 
-0.00453479 -0.0173033 -0.99984 
-0.00459088 -0.0198991 -0.999791 
-0.00462739 -0.0228311 -0.999729 
-0.00494528 -0.0254964 -0.999663 
-0.00493065 -0.0261119 -0.999647 
-0.00515143 -0.0229904 -0.999722 
-0.00376508 -0.00596048 -0.999975 
0.000546933 -0.00627282 0.99998 
0.00608974 -0.0179519 0.99982 
0.0102135 -0.0244726 0.999648 
0.011516 -0.0252368 0.999615 
0.0125862 -0.0240506 0.999632 
0.0134437 -0.0215771 0.999677 
0.0138529 -0.0187724 0.999728 
0.0141422 -0.0160237 0.999772 
0.0144466 -0.0133417 0.999807 
0.0147062 -0.0106703 0.999835 
0.0148331 -0.00798882 0.999858 
0.0149304 -0.00532559 0.999874 
0.0150059 -0.00270837 0.999884 
0.0150541 -0.000124014 0.999887 
0.0150713 0.00249422 0.999883 
0.0150597 0.00525344 0.999873 
0.0150198 0.00828451 0.999853 
0.0149507 0.0117383 0.999819 
0.0148503 0.015788 0.999765 
0.0147138 0.0206353 0.999679 
0.0145297 0.0265234 0.999543 
0.0142936 0.0337515 0.999328 
0.0140073 0.0426758 0.998991 
0.0136615 0.0537205 0.998463 
0.0132389 0.0674144 0.997637 
0.0127287 0.08442 0.996349 
0.0121251 0.10554 0.994341 
0.011418 0.131719 0.991221 
0.010593 0.164074 0.986391 
0.0096369 0.203921 0.97894 
0.00854428 0.252758 0.967492 
0.00732184 0.312168 0.949999 
0.00599394 0.383559 0.923497 
0.00460872 0.467665 0.883894 
0.00323953 0.563828 0.825886 
0.00198308 0.669166 0.743111 
0.000947418 0.777382 0.629028 
0.000219521 0.877685 0.479238 
-0.000179865 0.955477 0.295066 
-0.000327341 0.996274 0.086246 
-0.000382584 0.991498 -0.130118 
-0.000533317 0.94232 -0.334712 
-0.00093101 0.858906 -0.512132 
-0.00164397 0.755958 -0.654619 
-0.00264786 0.64745 -0.762104 
-0.00385644 0.543362 -0.83949 
-0.00516658 0.449333 -0.893349 
-0.00648639 0.36777 -0.929894 
-0.00774561 0.298912 -0.954249 
-0.00890079 0.241758 -0.970296 
-0.00993385 0.194842 -0.980784 
-0.0108418 0.156637 -0.987597 
-0.0116263 0.125682 -0.992003 
-0.012299 0.100669 -0.994844 
-0.0128689 0.0805058 -0.996671 
-0.0133491 0.0642578 -0.997844 
-0.0137507 0.0511702 -0.998595 
-0.0140808 0.0406185 -0.999076 
-0.0143468 0.0320892 -0.999382 
-0.0145601 0.0251674 -0.999577 
-0.0147269 0.0195154 -0.999701 
-0.0148509 0.0148512 -0.999779 
-0.0149329 0.0109383 -0.999829 
-0.0149732 0.00757688 -0.999859 
-0.0149696 0.00459399 -0.999877 
-0.0149143 0.00183661 -0.999887 
-0.0147898 -0.000836664 -0.99989 
-0.0145642 -0.00355355 -0.999888 
-0.0143836 -0.0064083 -0.999876 
-0.0141896 -0.00935363 -0.999856 
-0.0145384 -0.0122681 -0.999819 
-0.0135073 -0.0151429 -0.999794 
-0.0138532 -0.0179066 -0.999744 
-0.0129249 -0.0211024 -0.999694 
-0.0125166 -0.0236021 -0.999643 
-0.0113803 -0.0247947 -0.999628 
-0.0101176 -0.0241053 -0.999658 
-0.00603967 -0.0178364 -0.999823 
-0.000510192 -0.00626462 -0.99998 
0.000349552 -0.00614079 0.999981 
0.00732797 -0.0194977 0.999783 
0.0110685 -0.0241129 0.999648 
0.0137946 -0.0244012 0.999607 
0.015301 -0.0227588 0.999624 
0.0162403 -0.0202002 0.999664 
0.0168863 -0.0172606 0.999708 
0.0173387 -0.014436 0.999746 
0.0176675 -0.0117844 0.999775 
0.0179218 -0.00917542 0.999797 
0.018129 -0.00657063 0.999814 
0.0182896 -0.00396428 0.999825 
0.0184008 -0.00136792 0.99983 
0.0184633 0.00124294 0.999829 
0.0184791 0.00394784 0.999822 
0.0184488 0.00686369 0.999806 
0.0183713 0.010131 0.99978 
0.0182439 0.0139131 0.999737 
0.0180629 0.0183997 0.999668 
0.0178223 0.0238116 0.999558 
0.0175149 0.0304195 0.999384 
0.0171337 0.0385575 0.99911 
0.0166709 0.0486204 0.998678 
0.0161161 0.0610773 0.998003 
0.0154574 0.0765284 0.996948 
0.0146829 0.0957225 0.9953 
0.0137811 0.119542 0.992734 
0.0127427 0.149016 0.988753 
0.0115626 0.18536 0.982603 
0.0102424 0.229976 0.973142 
0.00879356 0.284422 0.958659 
0.00724349 0.350218 0.93664 
0.00564183 0.428469 0.903539 
0.00406396 0.519238 0.85462 
0.00260644 0.62065 0.784084 
0.00136144 0.728198 0.685365 
0.00040233 0.833438 0.552613 
-0.000236587 0.923394 0.383854 
-0.000588831 0.982784 0.184757 
-0.000764985 0.999538 -0.0303847 
-0.000923465 0.970161 -0.242458 
-0.00122428 0.901087 -0.433637 
-0.00178429 0.805556 -0.592518 
-0.0026467 0.698393 -0.71571 
-0.00378337 0.591603 -0.806221 
-0.00512337 0.492652 -0.870212 
-0.00657717 0.405224 -0.914194 
-0.00805625 0.330504 -0.94377 
-0.00949157 0.268007 -0.96337 
-0.0108369 0.216409 -0.976243 
-0.0120639 0.174209 -0.984635 
-0.0131601 0.139941 -0.990072 
-0.0141247 0.112215 -0.993584 
-0.014964 0.089821 -0.995846 
-0.0156854 0.0717901 -0.997296 
-0.0163001 0.0572496 -0.998227 
-0.0168174 0.0455289 -0.998822 
-0.0172462 0.0360683 -0.999201 
-0.0175955 0.0284019 -0.999442 
-0.0178738 0.0221559 -0.999595 
-0.0180875 0.0170286 -0.999691 
-0.0182409 0.0127614 -0.999752 
-0.0183365 0.00914011 -0.99979 
-0.0183739 0.00597945 -0.999813 
-0.0183528 0.00312041 -0.999827 
-0.0182732 0.000424681 -0.999833 
-0.018139 -0.00222081 -0.999833 
-0.0179657 -0.00488186 -0.999827 
-0.0177571 -0.00757732 -0.999814 
-0.017553 -0.0102523 -0.999793 
-0.017418 -0.0128755 -0.999765 
-0.0169409 -0.0153601 -0.999739 
-0.0167577 -0.0172567 -0.999711 
-0.0161905 -0.0197164 -0.999675 
-0.0151486 -0.0222824 -0.999637 
-0.0134843 -0.0238393 -0.999625 
-0.0109009 -0.0236831 -0.99966 
-0.00732017 -0.0194473 -0.999784 
-0.000323737 -0.00612591 -0.999981 
0.000471517 -0.00617722 0.999981 
0.00622895 -0.0193304 0.999794 
0.00948448 -0.0237789 0.999672 
0.0122685 -0.0244337 0.999626 
0.0140623 -0.0235195 0.999625 
0.0153166 -0.0215036 0.999652 
0.0163774 -0.0187573 0.99969 
0.0170725 -0.0157477 0.99973 
0.0174597 -0.0130782 0.999762 
0.0178088 -0.0105128 0.999786 
0.0181172 -0.0079826 0.999804 
0.0183641 -0.00542202 0.999817 
0.0185429 -0.00282911 0.999824 
0.0186603 -0.00021847 0.999826 
0.0187199 0.00244572 0.999822 
0.0187215 0.00525751 0.999811 
0.0186651 0.0083428 0.999791 
0.0185501 0.0118514 0.999758 
0.018373 0.0159606 0.999704 
0.0181294 0.020875 0.999618 
0.0178154 0.0268342 0.999481 
0.017424 0.0341356 0.999265 
0.0169442 0.0431462 0.998925 
0.0163675 0.0542944 0.998391 
0.0156887 0.0680954 0.997556 
0.0148968 0.0852196 0.996251 
0.0139785 0.106487 0.994216 
0.0129267 0.132843 0.991053 
0.011741 0.165393 0.986158 
0.0104266 0.205431 0.978616 
0.00899688 0.254421 0.967052 
0.00747562 0.313919 0.94942 
0.005903 0.385325 0.922762 
0.00434041 0.469371 0.88299 
0.00286714 0.565372 0.824831 
0.00157258 0.670103 0.742266 
0.000516672 0.77758 0.628784 
-0.000263544 0.877428 0.479708 
-0.000767209 0.955148 0.296128 
-0.0010473 0.996129 0.0879015 
-0.00120903 0.991788 -0.127891 
-0.001387 0.943286 -0.33198 
-0.0017109 0.860683 -0.509138 
-0.00227121 0.75847 -0.651704 
-0.00309918 0.650528 -0.759476 
-0.00417355 0.546846 -0.837223 
-0.00543813 0.452969 -0.89151 
-0.00681605 0.371262 -0.928503 
-0.00823013 0.302138 -0.953229 
-0.00962019 0.244656 -0.969562 
-0.01094 0.197355 -0.980271 
-0.0121576 0.158774 -0.98724 
-0.0132595 0.127496 -0.991751 
-0.0142423 0.102196 -0.994662 
-0.0151035 0.0817598 -0.996538 
-0.0158537 0.0653355 -0.997737 
-0.0164965 0.0520521 -0.998508 
-0.0170391 0.0413405 -0.999 
-0.0174907 0.0326835 -0.999313 
-0.0178577 0.0256463 -0.999512 
-0.0181461 0.0198913 -0.999638 
-0.0183645 0.0151379 -0.999717 
-0.0185151 0.0111526 -0.999766 
-0.0186012 0.00772887 -0.999797 
-0.0186222 0.00469737 -0.999816 
-0.0185773 0.00190847 -0.999826 
-0.0184677 -0.000761949 -0.999829 
-0.0182982 -0.0034016 -0.999827 
-0.018068 -0.0060477 -0.999819 
-0.017768 -0.00870067 -0.999804 
-0.0173886 -0.0114043 -0.999784 
-0.0169037 -0.0143561 -0.999754 
-0.0161119 -0.0173241 -0.99972 
-0.0157491 -0.0202282 -0.999671 
-0.0141001 -0.0226279 -0.999645 
-0.0121539 -0.0237769 -0.999643 
-0.00934008 -0.0234168 -0.999682 
-0.00608037 -0.0190963 -0.999799 
-0.000444997 -0.00616774 -0.999981 
0.000408266 -0.00608873 0.999981 
0.00539158 -0.0191255 0.999803 
0.00857697 -0.0239144 0.999677 
0.011705 -0.0242361 0.999638 
0.0130957 -0.0228385 0.999653 
0.0145883 -0.0201217 0.999691 
0.01582 -0.0173594 0.999724 
0.0160689 -0.0146731 0.999763 
0.016395 -0.0120699 0.999793 
0.0167437 -0.00956422 0.999814 
0.0170757 -0.00705305 0.999829 
0.0173296 -0.00447454 0.99984 
0.0175018 -0.00185111 0.999845 
0.0176096 0.000802999 0.999845 
0.0176555 0.00354454 0.999838 
0.0176329 0.00648258 0.999824 
0.017545 0.00974986 0.999799 
0.0173945 0.0135079 0.999758 
0.0171755 0.0179486 0.999691 
0.0168856 0.023291 0.999586 
0.0165271 0.0297914 0.99942 
0.0160885 0.037775 0.999157 
0.0155507 0.047642 0.998743 
0.0149137 0.0598499 0.998096 
0.0141826 0.0749589 0.997086 
0.01334 0.0937122 0.99551 
0.0123698 0.116987 0.993057 
0.011274 0.14578 0.989253 
0.0100623 0.181272 0.983382 
0.00874871 0.224818 0.974362 
0.0073528 0.277917 0.960577 
0.00589959 0.342124 0.939636 
0.00443047 0.418662 0.908132 
0.00300682 0.507818 0.861459 
0.00170329 0.608056 0.793893 
0.000601552 0.714655 0.699477 
-0.00026612 0.820309 0.571921 
-0.00087808 0.912766 0.408482 
-0.00124366 0.976864 0.213859 
-0.00142023 0.999998 0.000989188 
-0.00151108 0.97736 -0.211578 
-0.00164175 0.913985 -0.405744 
-0.00192577 0.82217 -0.569239 
-0.00243456 0.716522 -0.69756 
-0.00318783 0.60959 -0.792711 
-0.00416384 0.509556 -0.860428 
-0.00530939 0.420461 -0.907295 
-0.00655366 0.343772 -0.93903 
-0.00783495 0.279378 -0.960149 
-0.00910442 0.226026 -0.974079 
-0.0103151 0.182214 -0.983205 
-0.0114378 0.146556 -0.989136 
-0.0124662 0.117675 -0.992974 
-0.0133917 0.094302 -0.995454 
-0.0141965 0.0754119 -0.997051 
-0.0149247 0.0602844 -0.99807 
-0.0155401 0.0479595 -0.998728 
-0.0160612 0.0380355 -0.999147 
-0.016501 0.0300003 -0.999414 
-0.016854 0.0234525 -0.999583 
-0.0171291 0.018056 -0.99969 
-0.0173323 0.0135994 -0.999757 
-0.0174735 0.00981726 -0.999799 
-0.0175488 0.00653403 -0.999825 
-0.0175645 0.00358751 -0.999839 
-0.0175274 0.000838015 -0.999846 
-0.0174444 -0.00182135 -0.999846 
-0.0173006 -0.00445975 -0.99984 
-0.0170586 -0.00707742 -0.99983 
-0.0167001 -0.00966828 -0.999814 
-0.0162826 -0.0123238 -0.999792 
-0.0156169 -0.0149623 -0.999766 
-0.0145765 -0.0179406 -0.999733 
-0.0147388 -0.0204558 -0.999682 
-0.0130837 -0.0228032 -0.999654 
-0.0111716 -0.0237477 -0.999656 
-0.00827588 -0.0236198 -0.999687 
-0.00531012 -0.0190448 -0.999805 
-0.000396983 -0.00608748 -0.999981 
0.000341054 -0.00603279 0.999982 
0.00465437 -0.0194816 0.999799 
0.00706431 -0.0240856 0.999685 
0.0102948 -0.0242921 0.999652 
0.010836 -0.0232526 0.999671 
0.0123427 -0.0207641 0.999708 
0.0137599 -0.0171885 0.999758 
0.0140195 -0.0140821 0.999803 
0.0143217 -0.0113711 0.999833 
0.0146993 -0.00882002 0.999853 
0.0150435 -0.00625044 0.999867 
0.015276 -0.00360515 0.999877 
0.0154247 -0.000927795 0.999881 
0.0155181 0.00178696 0.999878 
0.0155459 0.00462494 0.999869 
0.0154946 0.00770472 0.99985 
0.0153824 0.0111679 0.999819 
0.0152116 0.0151898 0.999769 
0.0149703 0.0199763 0.999688 
0.0146621 0.025762 0.999561 
0.0142918 0.0328186 0.999359 
0.0138384 0.0415041 0.999043 
0.0132829 0.0522493 0.998546 
0.0126416 0.0655378 0.99777 
0.0119218 0.0819807 0.996563 
0.0110931 0.102396 0.994682 
0.0101462 0.127708 0.99176 
0.00909654 0.158959 0.987243 
0.00795973 0.197409 0.980289 
0.0067536 0.244474 0.969633 
0.0054971 0.301687 0.953391 
0.00421136 0.370581 0.928791 
0.00293449 0.452154 0.891935 
0.00172305 0.546136 0.837695 
0.000643512 0.649915 0.760007 
-0.000234938 0.757034 0.653376 
-0.000902663 0.858816 0.512283 
-0.00134052 0.941578 0.336793 
-0.00156121 0.990907 0.134538 
-0.00162484 0.996842 -0.0793923 
-0.00163175 0.958189 -0.286132 
-0.00169602 0.882988 -0.469393 
-0.0019122 0.784744 -0.619817 
-0.00233324 0.677608 -0.735419 
-0.00296975 0.572704 -0.819757 
-0.00379936 0.476577 -0.879125 
-0.00477067 0.39205 -0.919931 
-0.00582348 0.319961 -0.947413 
-0.0069182 0.259793 -0.96564 
-0.00801097 0.210034 -0.977661 
-0.00905228 0.169246 -0.985532 
-0.010027 0.13612 -0.990642 
-0.0109353 0.109291 -0.99395 
-0.0117523 0.0875501 -0.996091 
-0.0124428 0.0699679 -0.997472 
-0.0131407 0.0559928 -0.998345 
-0.0136783 0.0444007 -0.99892 
-0.0141482 0.0351293 -0.999283 
-0.0145397 0.0276555 -0.999512 
-0.0148737 0.0214474 -0.999659 
-0.015083 0.0163973 -0.999752 
-0.0152761 0.0121842 -0.999809 
-0.0153894 0.00856485 -0.999845 
-0.0154395 0.00539273 -0.999866 
-0.0154388 0.00251201 -0.999878 
-0.0154045 -0.000204455 -0.999881 
-0.0153625 -0.00285598 -0.999878 
-0.015251 -0.00547252 -0.999869 
-0.0149999 -0.00803354 -0.999855 
-0.0146392 -0.0105167 -0.999838 
-0.0141044 -0.0129553 -0.999817 
-0.0132695 -0.0154907 -0.999792 
-0.0125807 -0.0181495 -0.999756 
-0.0125205 -0.0210639 -0.9997 
-0.0107785 -0.0235055 -0.999666 
-0.0088935 -0.0242037 -0.999668 
-0.00641396 -0.0237645 -0.999697 
-0.00429002 -0.0186717 -0.999817 
-0.000360758 -0.00602675 -0.999982 
0.000270024 -0.00602523 0.999982 
0.00369868 -0.0195845 0.999801 
0.00549521 -0.0242681 0.99969 
0.00818243 -0.0245868 0.999664 
0.00864383 -0.0238969 0.999677 
0.00951629 -0.021365 0.999727 
0.011328 -0.0187271 0.999761 
0.0115734 -0.0158085 0.999808 
0.0117545 -0.0131028 0.999845 
0.0120895 -0.0105534 0.999871 
0.0124733 -0.0080369 0.99989 
0.0127871 -0.00542553 0.999904 
0.0129677 -0.0027228 0.999912 
0.0130875 -6.97649e-06 0.999914 
0.0131648 0.00276937 0.99991 
0.013162 0.00570478 0.999897 
0.0130839 0.00893224 0.999875 
0.0129588 0.0125969 0.999837 
0.0127804 0.0168851 0.999776 
0.0125365 0.0220297 0.999679 
0.0122315 0.0282675 0.999526 
0.0118705 0.0358923 0.999285 
0.0114254 0.0452941 0.998908 
0.0108883 0.0569326 0.998319 
0.0102855 0.0713127 0.997401 
0.00961235 0.0891044 0.995976 
0.00883557 0.111196 0.993759 
0.00796096 0.138549 0.990324 
0.00701171 0.17226 0.985027 
0.00600316 0.213662 0.976889 
0.00495255 0.264224 0.964449 
0.0038756 0.325489 0.945538 
0.00278918 0.398894 0.916993 
0.00172797 0.485086 0.874465 
0.000740654 0.583025 0.812454 
-0.000117096 0.688781 0.72497 
-0.000795363 0.794318 0.607502 
-0.00128862 0.890248 0.455475 
-0.00157524 0.962585 0.270974 
-0.00167353 0.997975 0.0635926 
-0.00164648 0.988707 -0.149851 
-0.00158949 0.936615 -0.350357 
-0.00160154 0.852077 -0.523414 
-0.00175691 0.749315 -0.662211 
-0.00209277 0.641891 -0.766793 
-0.00261268 0.539545 -0.841953 
-0.00329294 0.447305 -0.894376 
-0.00408664 0.367042 -0.930195 
-0.00495073 0.299123 -0.954202 
-0.00586186 0.24271 -0.970081 
-0.00677248 0.196075 -0.980566 
-0.00763975 0.157895 -0.987426 
-0.00846632 0.126971 -0.99187 
-0.00924686 0.101904 -0.994751 
-0.00994029 0.0815214 -0.996622 
-0.0105037 0.0650009 -0.99783 
-0.0112072 0.0521212 -0.998578 
-0.0116356 0.0408913 -0.999096 
-0.0119953 0.032432 -0.999402 
-0.0124163 0.0251941 -0.999606 
-0.0126134 0.0194529 -0.999731 
-0.0127907 0.0146982 -0.99981 
-0.0129725 0.0107241 -0.999858 
-0.0130382 0.00723072 -0.999889 
-0.0130477 0.00415428 -0.999906 
-0.0130125 0.00134759 -0.999914 
-0.0129908 -0.00135927 -0.999915 
-0.0129576 -0.00399068 -0.999908 
-0.0128532 -0.006576 -0.999896 
-0.0125546 -0.00907646 -0.99988 
-0.0121061 -0.0114907 -0.999861 
-0.0114444 -0.0140371 -0.999836 
-0.0104798 -0.0169588 -0.999801 
-0.0106825 -0.0200922 -0.999741 
-0.00970561 -0.0226405 -0.999697 
-0.00800362 -0.0241549 -0.999676 
-0.00629038 -0.0244093 -0.999682 
-0.00355946 -0.0195322 -0.999803 
-0.000247419 -0.00600748 -0.999982 
0.000213626 -0.0060197 0.999982 
0.00287621 -0.0196875 0.999802 
0.00430422 -0.0244571 0.999692 
0.00642872 -0.024798 0.999672 
0.00714458 -0.023619 0.999696 
0.00757937 -0.0208447 0.999754 
0.00926694 -0.0181736 0.999792 
0.00943176 -0.0151726 0.99984 
0.00971123 -0.0124453 0.999875 
0.0100641 -0.00988905 0.999901 
0.0104368 -0.00731547 0.999919 
0.0107038 -0.00461128 0.999932 
0.0108197 -0.00185645 0.99994 
0.0109306 0.000892883 0.99994 
0.0109841 0.00371708 0.999933 
0.0109586 0.00675414 0.999917 
0.0108675 0.0101329 0.99989 
0.0107429 0.0139823 0.999845 
0.0105772 0.0185502 0.999772 
0.0103421 0.0240557 0.999657 
0.0100577 0.0307456 0.999477 
0.0097201 0.0389349 0.999195 
0.00930223 0.0490507 0.998753 
0.0088107 0.0615543 0.998065 
0.0082703 0.0769821 0.996998 
0.00766134 0.096079 0.995344 
0.00695862 0.119787 0.992775 
0.00618249 0.149047 0.988811 
0.00535678 0.184978 0.982728 
0.0044943 0.228935 0.973431 
0.00361057 0.282308 0.959317 
0.00271786 0.346487 0.938051 
0.00183058 0.422676 0.906279 
0.000979256 0.511007 0.859576 
0.000200187 0.610001 0.792401 
-0.000468181 0.71545 0.698664 
-0.000993694 0.819323 0.573331 
-0.00135861 0.911364 0.4116 
-0.0015417 0.976063 0.217481 
-0.0015647 0.999992 0.00356013 
-0.00149197 0.977548 -0.210706 
-0.00141225 0.913846 -0.406058 
-0.00140794 0.821626 -0.570025 
-0.00153431 0.715678 -0.698429 
-0.00181638 0.608924 -0.793227 
-0.00225171 0.509518 -0.860457 
-0.00281545 0.421015 -0.90705 
-0.00346784 0.344656 -0.938723 
-0.00418162 0.280546 -0.959831 
-0.00494085 0.227489 -0.973768 
-0.00569511 0.183475 -0.983008 
-0.00641148 0.147533 -0.989036 
-0.00710943 0.118594 -0.992917 
-0.00777378 0.0949719 -0.99545 
-0.00835081 0.0755416 -0.997108 
-0.00878123 0.0597307 -0.998176 
-0.00961958 0.0479051 -0.998806 
-0.0096551 0.0376034 -0.999246 
-0.0102332 0.0290991 -0.999524 
-0.0103861 0.0226129 -0.99969 
-0.0105555 0.0172609 -0.999795 
-0.0106803 0.0128302 -0.999861 
-0.0108824 0.00910545 -0.999899 
-0.010865 0.00564932 -0.999925 
-0.0107789 0.00271551 -0.999938 
-0.0107709 -8.34098e-05 -0.999942 
-0.0107076 -0.00276437 -0.999939 
-0.0106738 -0.00530858 -0.999929 
-0.0105598 -0.00769322 -0.999915 
-0.010207 -0.00998019 -0.999898 
-0.00979661 -0.0123333 -0.999876 
-0.00919182 -0.0149321 -0.999846 
-0.00833706 -0.0178876 -0.999805 
-0.0087495 -0.0205026 -0.999752 
-0.00745765 -0.0233148 -0.9997 
-0.00578956 -0.0244351 -0.999685 
-0.00442288 -0.0239911 -0.999702 
-0.0024546 -0.0187118 -0.999822 
-0.000242595 -0.00604366 -0.999982 