# vtk DataFile Version 3.0 
Exported using Morpho https://github.com/Morpho-lang/morpho 
ASCII 
DATASET UNSTRUCTURED_GRID 

POINTS 2054 float 
-8.48528 -2.82843 0 
-8.20636 -2.82843 0 
-7.94054 -2.82843 0 
-7.6904 -2.82843 0 
-7.45357 -2.82843 0 
-7.22694 -2.82843 0 
-7.00705 -2.82843 0 
-6.79111 -2.82843 0 
-6.57731 -2.82843 0 
-6.36453 -2.82843 0 
-6.15219 -2.82843 0 
-5.94 -2.82843 0 
-5.72786 -2.82843 0 
-5.51573 -2.82843 0 
-5.3036 -2.82843 0 
-5.09147 -2.82843 0 
-4.87933 -2.82843 0 
-4.6672 -2.82843 0 
-4.45507 -2.82843 0 
-4.24294 -2.82843 0 
-4.03081 -2.82843 0 
-3.81867 -2.82843 0 
-3.60654 -2.82843 0 
-3.39441 -2.82843 0 
-3.18228 -2.82843 0 
-2.97015 -2.82843 0 
-2.75801 -2.82843 0 
-2.54588 -2.82843 0 
-2.33375 -2.82843 0 
-2.12162 -2.82843 0 
-1.90949 -2.82843 0 
-1.69735 -2.82843 0 
-1.48522 -2.82843 0 
-1.27309 -2.82843 0 
-1.06096 -2.82843 0 
-0.848825 -2.82843 0 
-0.636693 -2.82843 0 
-0.424561 -2.82843 0 
-0.212429 -2.82843 0 
-0.000296761 -2.82843 0 
0.211835 -2.82843 0 
0.423967 -2.82843 0 
0.636099 -2.82843 0 
0.848231 -2.82843 0 
1.06036 -2.82843 0 
1.2725 -2.82843 0 
1.48463 -2.82843 0 
1.69676 -2.82843 0 
1.90889 -2.82843 0 
2.12102 -2.82843 0 
2.33316 -2.82843 0 
2.54529 -2.82843 0 
2.75742 -2.82843 0 
2.96955 -2.82843 0 
3.18168 -2.82843 0 
3.39382 -2.82843 0 
3.60595 -2.82843 0 
3.81808 -2.82843 0 
4.03021 -2.82843 0 
4.24234 -2.82843 0 
4.45448 -2.82843 0 
4.66661 -2.82843 0 
4.87874 -2.82843 0 
5.09087 -2.82843 0 
5.303 -2.82843 0 
5.51514 -2.82843 0 
5.72727 -2.82843 0 
5.93941 -2.82843 0 
6.15159 -2.82843 0 
6.36393 -2.82843 0 
6.57672 -2.82843 0 
6.79055 -2.82843 0 
7.00652 -2.82843 0 
7.22647 -2.82843 0 
7.45313 -2.82843 0 
7.69005 -2.82843 0 
7.9403 -2.82843 0 
8.20621 -2.82843 0 
8.48528 -2.82843 0 
-8.48528 -2.5495 0 
-8.30526 -2.64845 0 
-8.07062 -2.59995 0 
-7.83904 -2.59637 0 
-7.59595 -2.59733 0 
-7.36578 -2.59177 0 
-7.13796 -2.5933 0 
-6.90908 -2.59428 0 
-6.68421 -2.5916 0 
-6.46568 -2.58832 0 
-6.24926 -2.58859 0 
-6.03358 -2.58941 0 
-5.81848 -2.59013 0 
-5.60402 -2.59075 0 
-5.39005 -2.59135 0 
-5.17642 -2.59186 0 
-4.96311 -2.59223 0 
-4.75009 -2.59242 0 
-4.53736 -2.59244 0 
-4.32497 -2.59236 0 
-4.1128 -2.59242 0 
-3.90059 -2.59259 0 
-3.68835 -2.5926 0 
-3.47627 -2.59248 0 
-3.26428 -2.59251 0 
-3.05216 -2.59271 0 
-2.83986 -2.59283 0 
-2.62755 -2.59274 0 
-2.41539 -2.59253 0 
-2.20336 -2.59238 0 
-1.99135 -2.59238 0 
-1.77924 -2.59246 0 
-1.56704 -2.59244 0 
-1.35495 -2.59215 0 
-1.14319 -2.59183 0 
-0.931581 -2.59195 0 
-0.719663 -2.59256 0 
-0.507197 -2.59324 0 
-0.294425 -2.59354 0 
-0.0817689 -2.59344 0 
0.130587 -2.59325 0 
0.342804 -2.59322 0 
0.555051 -2.59322 0 
0.767233 -2.59303 0 
0.97919 -2.59278 0 
1.19107 -2.59278 0 
1.40311 -2.59289 0 
1.61524 -2.59286 0 
1.82732 -2.59279 0 
2.03943 -2.59281 0 
2.25163 -2.5928 0 
2.46381 -2.59266 0 
2.67591 -2.59254 0 
2.88801 -2.59237 0 
3.10001 -2.59226 0 
3.31203 -2.59216 0 
3.52402 -2.59207 0 
3.73601 -2.59208 0 
3.94815 -2.59221 0 
4.16052 -2.5923 0 
4.37309 -2.59232 0 
4.58593 -2.59227 0 
4.79921 -2.5922 0 
5.01319 -2.59212 0 
5.22833 -2.5921 0 
5.44534 -2.59239 0 
5.6657 -2.59346 0 
5.89185 -2.59569 0 
6.12685 -2.59429 0 
6.36853 -2.59189 0 
6.6108 -2.57787 0 
6.84491 -2.61411 0 
7.08804 -2.58476 0 
7.34858 -2.60369 0 
7.58803 -2.59327 0 
7.83059 -2.59326 0 
8.06387 -2.59199 0 
8.30038 -2.64348 0 
8.48528 -2.54936 0 
-8.48528 -2.28369 0 
-8.25701 -2.4138 0 
-8.01078 -2.35334 0 
-7.73666 -2.37963 0 
-7.49744 -2.35565 0 
-7.26898 -2.35831 0 
-7.03324 -2.36676 0 
-6.7997 -2.36275 0 
-6.5773 -2.35166 0 
-6.35808 -2.3495 0 
-6.14038 -2.35058 0 
-5.92336 -2.35185 0 
-5.70723 -2.35272 0 
-5.49199 -2.35362 0 
-5.27734 -2.35447 0 
-5.0632 -2.35505 0 
-4.84958 -2.35534 0 
-4.63641 -2.35533 0 
-4.42363 -2.35504 0 
-4.21126 -2.35485 0 
-3.99909 -2.35513 0 
-3.78684 -2.3554 0 
-3.57461 -2.35516 0 
-3.36263 -2.35498 0 
-3.15066 -2.35537 0 
-2.93843 -2.35586 0 
-2.72604 -2.35589 0 
-2.51374 -2.35551 0 
-2.30162 -2.35509 0 
-2.08964 -2.35496 0 
-1.87761 -2.35518 0 
-1.66544 -2.3554 0 
-1.45322 -2.35518 0 
-1.2412 -2.35438 0 
-1.02967 -2.35407 0 
-0.818162 -2.35505 0 
-0.606054 -2.35676 0 
-0.393243 -2.3579 0 
-0.180256 -2.35789 0 
0.0323765 -2.35727 0 
0.244686 -2.35692 0 
0.456926 -2.35692 0 
0.669206 -2.35667 0 
0.881318 -2.35598 0 
1.09315 -2.35559 0 
1.305 -2.35583 0 
1.51709 -2.35595 0 
1.72919 -2.35571 0 
1.9412 -2.35566 0 
2.15334 -2.3558 0 
2.36559 -2.3556 0 
2.57772 -2.35522 0 
2.78976 -2.35507 0 
3.0019 -2.35461 0 
3.21373 -2.35451 0 
3.42571 -2.35439 0 
3.63769 -2.35431 0 
3.84965 -2.35453 0 
4.06183 -2.35491 0 
4.27435 -2.35507 0 
4.48707 -2.35507 0 
4.70017 -2.35506 0 
4.91376 -2.35498 0 
5.12819 -2.35502 0 
5.34378 -2.35528 0 
5.56106 -2.35662 0 
5.78097 -2.35971 0 
6.00401 -2.36251 0 
6.2308 -2.3624 0 
6.45748 -2.35551 0 
6.68075 -2.33423 0 
6.88797 -2.39744 0 
7.05313 -2.27289 0 
7.24377 -2.40237 0 
7.48542 -2.36016 0 
7.73055 -2.36599 0 
7.99177 -2.33552 0 
8.24864 -2.40698 0 
8.48528 -2.28345 0 
-8.48528 -2.03355 0 
-8.25312 -2.18214 0 
-8.03669 -2.07913 0 
-7.83956 -2.18231 0 
-7.6106 -2.12852 0 
-7.38852 -2.10959 0 
-7.16268 -2.14097 0 
-6.9229 -2.1435 0 
-6.70119 -2.12055 0 
-6.48111 -2.11285 0 
-6.26282 -2.11284 0 
-6.045 -2.1151 0 
-5.82775 -2.11658 0 
-5.61153 -2.11776 0 
-5.3962 -2.1192 0 
-5.18144 -2.1203 0 
-4.96732 -2.12084 0 
-4.75387 -2.12105 0 
-4.54086 -2.12091 0 
-4.32822 -2.12045 0 
-4.11596 -2.12045 0 
-3.90382 -2.12107 0 
-3.69156 -2.12116 0 
-3.47938 -2.12058 0 
-3.26746 -2.12068 0 
-3.05542 -2.12154 0 
-2.84307 -2.12198 0 
-2.63064 -2.12162 0 
-2.41836 -2.12087 0 
-2.20626 -2.12031 0 
-1.99426 -2.12034 0 
-1.78217 -2.1207 0 
-1.56989 -2.12074 0 
-1.35755 -2.11993 0 
-1.14542 -2.11838 0 
-0.934012 -2.11859 0 
-0.722404 -2.12089 0 
-0.509943 -2.12344 0 
-0.296911 -2.12431 0 
-0.0840921 -2.12359 0 
0.128295 -2.12281 0 
0.340414 -2.12274 0 
0.552564 -2.12288 0 
0.76478 -2.12226 0 
0.976792 -2.1213 0 
1.18855 -2.12128 0 
1.40042 -2.12188 0 
1.61256 -2.12177 0 
1.82458 -2.12141 0 
2.03655 -2.12164 0 
2.24875 -2.12174 0 
2.46099 -2.12114 0 
2.67302 -2.12065 0 
2.88504 -2.12054 0 
3.09728 -2.1194 0 
3.30873 -2.11968 0 
3.52086 -2.1195 0 
3.7329 -2.11938 0 
3.94484 -2.11986 0 
4.15715 -2.12044 0 
4.36983 -2.12035 0 
4.58282 -2.1204 0 
4.79606 -2.12017 0 
5.01004 -2.12012 0 
5.22483 -2.12002 0 
5.44073 -2.12051 0 
5.6582 -2.123 0 
5.8782 -2.12696 0 
6.10217 -2.12971 0 
6.33095 -2.12707 0 
6.567 -2.11601 0 
6.82301 -2.12303 0 
7.06572 -2.04567 0 
7.29733 -2.17484 0 
7.54632 -2.11408 0 
7.79371 -2.13741 0 
8.02274 -2.07453 0 
8.25027 -2.1738 0 
8.48528 -2.0332 0 
-8.48528 -1.79671 0 
-8.25436 -1.93882 0 
-8.01299 -1.83977 0 
-7.78596 -1.953 0 
-7.5297 -1.87194 0 
-7.2756 -1.88722 0 
-7.05707 -1.93544 0 
-6.84369 -1.89677 0 
-6.62219 -1.88079 0 
-6.40169 -1.87606 0 
-6.18206 -1.87854 0 
-5.96274 -1.881 0 
-5.74458 -1.88208 0 
-5.52796 -1.88344 0 
-5.31232 -1.88506 0 
-5.09736 -1.88569 0 
-4.88338 -1.88564 0 
-4.67019 -1.88555 0 
-4.45737 -1.88507 0 
-4.24485 -1.88447 0 
-4.03271 -1.88482 0 
-3.82061 -1.88562 0 
-3.60832 -1.88529 0 
-3.39617 -1.88464 0 
-3.18427 -1.88547 0 
-2.97209 -1.88672 0 
-2.7596 -1.88684 0 
-2.54714 -1.88601 0 
-2.33483 -1.88505 0 
-2.12268 -1.8846 0 
-1.91058 -1.885 0 
-1.69824 -1.88561 0 
-1.48561 -1.88547 0 
-1.27286 -1.88413 0 
-1.06032 -1.88216 0 
-0.848858 -1.8839 0 
-0.636875 -1.88781 0 
-0.424169 -1.89034 0 
-0.211518 -1.89004 0 
0.000731944 -1.88866 0 
0.21257 -1.88788 0 
0.424308 -1.88807 0 
0.636257 -1.88793 0 
0.848362 -1.88664 0 
1.06025 -1.88556 0 
1.27191 -1.88605 0 
1.48381 -1.88664 0 
1.69595 -1.886 0 
1.90782 -1.88577 0 
2.11974 -1.88637 0 
2.33202 -1.88609 0 
2.54419 -1.88502 0 
2.75607 -1.88472 0 
2.96812 -1.88462 0 
3.18055 -1.88217 0 
3.39117 -1.88415 0 
3.60398 -1.8838 0 
3.81618 -1.88366 0 
4.02827 -1.88469 0 
4.24071 -1.88523 0 
4.4544 -1.88509 0 
4.66716 -1.88476 0 
4.88099 -1.88493 0 
5.09545 -1.88466 0 
5.31057 -1.88453 0 
5.52653 -1.88564 0 
5.7436 -1.88981 0 
5.96352 -1.89563 0 
6.18733 -1.89813 0 
6.41543 -1.89522 0 
6.65059 -1.89622 0 
6.87542 -1.86913 0 
7.11122 -1.81621 0 
7.31223 -1.94975 0 
7.53264 -1.87683 0 
7.77077 -1.89068 0 
8.01717 -1.8297 0 
8.25014 -1.93148 0 
8.48528 -1.79628 0 
-8.48528 -1.57009 0 
-8.24868 -1.70836 0 
-8.015 -1.61096 0 
-7.76734 -1.73071 0 
-7.54593 -1.61782 0 
-7.32306 -1.66278 0 
-7.05152 -1.7082 0 
-6.79786 -1.66675 0 
-6.56099 -1.64764 0 
-6.33267 -1.64541 0 
-6.10856 -1.64921 0 
-5.88638 -1.65073 0 
-5.66697 -1.65153 0 
-5.44986 -1.65353 0 
-5.23379 -1.65525 0 
-5.01882 -1.6551 0 
-4.80519 -1.6548 0 
-4.59235 -1.65478 0 
-4.37976 -1.65422 0 
-4.16737 -1.65386 0 
-3.95537 -1.65471 0 
-3.74326 -1.6554 0 
-3.5309 -1.65455 0 
-3.31876 -1.65426 0 
-3.10682 -1.65593 0 
-2.89443 -1.65705 0 
-2.68177 -1.65644 0 
-2.46924 -1.65516 0 
-2.25682 -1.65408 0 
-2.04447 -1.65386 0 
-1.83202 -1.65455 0 
-1.61911 -1.65506 0 
-1.40572 -1.65429 0 
-1.19212 -1.65207 0 
-0.97885 -1.64982 0 
-0.767325 -1.65372 0 
-0.555434 -1.6581 0 
-0.343588 -1.65935 0 
-0.132061 -1.65818 0 
0.0792288 -1.65687 0 
0.290417 -1.65682 0 
0.501823 -1.6575 0 
0.713729 -1.65709 0 
0.925861 -1.65545 0 
1.13768 -1.65488 0 
1.34929 -1.65604 0 
1.56128 -1.6563 0 
1.77337 -1.65516 0 
1.985 -1.65561 0 
2.19698 -1.65642 0 
2.40939 -1.65525 0 
2.62143 -1.65394 0 
2.83323 -1.65414 0 
3.04553 -1.65355 0 
3.25842 -1.64868 0 
3.46746 -1.65522 0 
3.68272 -1.65284 0 
3.89574 -1.65288 0 
4.10731 -1.65378 0 
4.32287 -1.65565 0 
4.53627 -1.65249 0 
4.74932 -1.65397 0 
4.96428 -1.65355 0 
5.17935 -1.65257 0 
5.3944 -1.65202 0 
5.60927 -1.65354 0 
5.82513 -1.66019 0 
6.04295 -1.66711 0 
6.26383 -1.66843 0 
6.48537 -1.66776 0 
6.70098 -1.65646 0 
6.91299 -1.6206 0 
7.11709 -1.6046 0 
7.3526 -1.69716 0 
7.60698 -1.65764 0 
7.8325 -1.64214 0 
8.05985 -1.58842 0 
8.2608 -1.69223 0 
8.48528 -1.56961 0 
-8.48528 -1.35019 0 
-8.24958 -1.48044 0 
-8.0219 -1.3751 0 
-7.79713 -1.50391 0 
-7.58956 -1.39834 0 
-7.36199 -1.38754 0 
-7.16079 -1.49923 0 
-6.93764 -1.46284 0 
[...]
POINT_DATA 2054 
VECTORS vectors float
0.000891501 -0.00233075 0.999997 
0.0008679 -0.0232498 0.999729 
0.00084775 -0.0264798 0.999649 
0.000950565 -0.0258132 0.999666 
0.000924753 -0.0230994 0.999733 
0.000986778 -0.0201584 0.999796 
0.000997022 -0.0175402 0.999846 
0.00101111 -0.0150266 0.999887 
0.0010157 -0.0123928 0.999923 
0.00101837 -0.00965033 0.999953 
0.00102027 -0.00689908 0.999976 
0.00102169 -0.00421939 0.999991 
0.00102263 -0.00162522 0.999998 
0.0010229 0.000937246 0.999999 
0.00102245 0.00356575 0.999993 
0.00102114 0.00638211 0.999979 
0.00101894 0.00952546 0.999954 
0.00101573 0.0131534 0.999913 
0.00101125 0.0174498 0.999847 
0.00100537 0.0226328 0.999743 
0.000997764 0.0289632 0.99958 
0.000988137 0.0367558 0.999324 
0.000975995 0.0463921 0.998923 
0.000960691 0.0583391 0.998296 
0.000941572 0.0731674 0.997319 
0.000917631 0.0915747 0.995798 
0.000887739 0.114411 0.993433 
0.000850462 0.142697 0.989766 
0.000804041 0.177647 0.984094 
0.00074659 0.220658 0.975351 
0.000676 0.273272 0.961937 
0.000590514 0.33704 0.94149 
0.000489406 0.413224 0.910629 
0.000374365 0.502265 0.864714 
0.000251511 0.602875 0.797835 
0.000133014 0.710841 0.703352 
3.67695e-05 0.817849 0.575433 
-1.9018e-05 0.911289 0.411768 
-2.71543e-05 0.976231 0.216733 
-1.83615e-06 0.999996 0.00290679 
2.41161e-05 0.977441 -0.211209 
1.75039e-05 0.913424 -0.40701 
-3.66622e-05 0.820481 -0.571674 
-0.000131785 0.71357 -0.700584 
-0.000249744 0.605425 -0.795902 
-0.000372494 0.504484 -0.863421 
-0.000487683 0.415074 -0.909787 
-0.000589066 0.338536 -0.940953 
-0.000674836 0.274461 -0.961598 
-0.000745629 0.221588 -0.97514 
-0.000803271 0.178367 -0.983964 
-0.000849835 0.143253 -0.989686 
-0.00088722 0.114839 -0.993384 
-0.000917204 0.0919046 -0.995767 
-0.000941168 0.0734218 -0.997301 
-0.000960349 0.0585357 -0.998285 
-0.000975701 0.0465458 -0.998916 
-0.000987902 0.0368773 -0.999319 
-0.000997595 0.0290611 -0.999577 
-0.00100516 0.022713 -0.999742 
-0.00101104 0.0175166 -0.999846 
-0.0010155 0.0132099 -0.999912 
-0.0010187 0.00957394 -0.999954 
-0.00102085 0.00642408 -0.999979 
-0.00102202 0.00360216 -0.999993 
-0.00102248 0.0009704 -0.999999 
-0.00102219 -0.00159017 -0.999998 
-0.00102161 -0.00417549 -0.999991 
-0.00101884 -0.00685033 -0.999976 
-0.0010182 -0.00958709 -0.999954 
-0.00100987 -0.0122475 -0.999924 
-0.00101616 -0.0148531 -0.999889 
-0.000994531 -0.0172968 -0.99985 
-0.00098569 -0.0198923 -0.999802 
-0.000925034 -0.0228182 -0.999739 
-0.00094908 -0.0254682 -0.999675 
-0.000846228 -0.026076 -0.99966 
-0.000864791 -0.0229215 -0.999737 
-0.000892816 -0.00231569 -0.999997 
-4.75616e-05 -0.000623946 1 
0.00600606 -0.0178293 0.999823 
0.0101077 -0.0244071 0.999651 
0.0114268 -0.0252101 0.999617 
0.0124923 -0.0240296 0.999633 
0.0133499 -0.0215645 0.999678 
0.0137599 -0.018765 0.999729 
0.0140493 -0.0160173 0.999773 
0.0143546 -0.0133357 0.999808 
0.0146152 -0.0106655 0.999836 
0.0147422 -0.00798562 0.999859 
0.0148392 -0.00532378 0.999876 
0.0149146 -0.00270751 0.999885 
0.0149627 -0.000123588 0.999888 
0.0149798 0.00249462 0.999885 
0.0149683 0.00525401 0.999874 
0.0149285 0.00828536 0.999854 
0.0148597 0.0117394 0.999821 
0.0147597 0.0157896 0.999766 
0.0146238 0.0206374 0.99968 
0.0144404 0.026526 0.999544 
0.0142052 0.0337546 0.999329 
0.01392 0.0426796 0.998992 
0.0135756 0.0537251 0.998463 
0.0131548 0.0674198 0.997638 
0.0126467 0.0844264 0.996349 
0.0120458 0.105547 0.994341 
0.0113421 0.131728 0.991221 
0.0105212 0.164084 0.98639 
0.00957015 0.203932 0.978938 
0.00848362 0.25277 0.967489 
0.00726843 0.312182 0.949995 
0.00594899 0.383574 0.923491 
0.00457325 0.467678 0.883887 
0.00321401 0.56384 0.825878 
0.00196715 0.669175 0.743102 
0.000939593 0.777388 0.629021 
0.000217282 0.877688 0.479233 
-0.00017956 0.955478 0.295063 
-0.00032695 0.996274 0.0862454 
-0.000382908 0.991499 -0.130117 
-0.000533152 0.942321 -0.334709 
-0.000927698 0.85891 -0.512126 
-0.0016345 0.755964 -0.654611 
-0.00262987 0.647459 -0.762096 
-0.00382871 0.543374 -0.839482 
-0.00512895 0.449347 -0.893343 
-0.00643949 0.367784 -0.929889 
-0.00769051 0.298926 -0.954245 
-0.00883866 0.24177 -0.970293 
-0.00986586 0.194853 -0.980783 
-0.0107691 0.156647 -0.987596 
-0.0115496 0.12569 -0.992002 
-0.0122191 0.100677 -0.994844 
-0.0127865 0.080512 -0.996672 
-0.0132646 0.064263 -0.997845 
-0.0136646 0.0511746 -0.998596 
-0.0139934 0.0406222 -0.999077 
-0.0142582 0.0320922 -0.999383 
-0.0144706 0.0251698 -0.999578 
-0.0146367 0.0195174 -0.999702 
-0.0147602 0.0148527 -0.999781 
-0.0148418 0.0109394 -0.99983 
-0.0148817 0.00757764 -0.999861 
-0.0148777 0.00459452 -0.999879 
-0.0148218 0.00183701 -0.999888 
-0.0146963 -0.000836121 -0.999892 
-0.0144695 -0.00355239 -0.999889 
-0.0142888 -0.00640583 -0.999877 
-0.0140964 -0.00934947 -0.999857 
-0.0144445 -0.0122626 -0.99982 
-0.0134089 -0.0151365 -0.999796 
-0.0137613 -0.0178993 -0.999745 
-0.0128293 -0.0210904 -0.999695 
-0.0124215 -0.0235812 -0.999645 
-0.0112912 -0.024768 -0.999629 
-0.0100136 -0.0240392 -0.999661 
-0.00595729 -0.0177165 -0.999825 
5.84799e-05 -0.000625614 -1 
8.47309e-05 -0.00101705 0.999999 
0.00727946 -0.0193729 0.999786 
0.0110318 -0.0240613 0.99965 
0.0137522 -0.0243774 0.999608 
0.0152613 -0.0227385 0.999625 
0.016201 -0.0201877 0.999665 
0.0168452 -0.0172537 0.999709 
0.0172988 -0.0144302 0.999746 
0.0176303 -0.0117793 0.999775 
0.017885 -0.00917136 0.999798 
0.0180918 -0.00656771 0.999815 
0.0182521 -0.00396255 0.999826 
0.0183633 -0.00136708 0.99983 
0.0184257 0.00124339 0.999829 
0.0184416 0.00394828 0.999822 
0.0184114 0.00686429 0.999807 
0.018334 0.0101318 0.999781 
0.0182069 0.0139143 0.999737 
0.0180262 0.0184011 0.999668 
0.017786 0.0238134 0.999558 
0.0174789 0.0304217 0.999384 
0.0170982 0.0385603 0.99911 
0.0166361 0.0486237 0.998679 
0.0160822 0.0610811 0.998003 
0.0154244 0.0765329 0.996948 
0.0146509 0.0957278 0.9953 
0.0137505 0.119548 0.992733 
0.0127139 0.149023 0.988752 
0.0115359 0.185368 0.982601 
0.0102181 0.229985 0.973141 
0.00877208 0.284431 0.958656 
0.00722519 0.350227 0.936637 
0.00562705 0.428478 0.903535 
0.00405287 0.519246 0.854615 
0.00259886 0.620657 0.784078 
0.00135688 0.728203 0.68536 
0.000400107 0.833441 0.552609 
-0.000237339 0.923395 0.383851 
-0.000588955 0.982784 0.184756 
-0.000764957 0.999538 -0.0303843 
-0.000923195 0.970162 -0.242456 
-0.00122317 0.901088 -0.433634 
-0.00178146 0.805559 -0.592513 
-0.00264129 0.698399 -0.715704 
-0.00377476 0.59161 -0.806215 
-0.00511118 0.492661 -0.870207 
-0.00656135 0.405234 -0.91419 
-0.00803702 0.330513 -0.943767 
-0.00946922 0.268016 -0.963368 
-0.0108118 0.216417 -0.976241 
-0.0120365 0.174217 -0.984634 
-0.0131308 0.139948 -0.990072 
-0.0140938 0.112221 -0.993583 
-0.0149318 0.0898261 -0.995846 
-0.0156521 0.0717945 -0.997297 
-0.0162659 0.0572533 -0.998227 
-0.0167825 0.045532 -0.998822 
-0.0172107 0.0360709 -0.999201 
-0.0175594 0.028404 -0.999442 
-0.0178373 0.0221576 -0.999595 
-0.0180506 0.0170299 -0.999692 
-0.0182038 0.0127624 -0.999753 
-0.0182991 0.00914087 -0.999791 
-0.0183363 0.00598 -0.999814 
-0.018315 0.00312086 -0.999827 
-0.018235 0.000425283 -0.999834 
-0.0180998 -0.00221966 -0.999834 
-0.0179251 -0.00487969 -0.999827 
-0.0177158 -0.0075739 -0.999814 
-0.0175132 -0.0102478 -0.999794 
-0.017384 -0.0128701 -0.999766 
-0.0168887 -0.0153541 -0.999739 
-0.0167333 -0.0172493 -0.999711 
-0.0161375 -0.0197053 -0.999676 
-0.015107 -0.0222626 -0.999638 
-0.0134447 -0.023816 -0.999626 
-0.0108672 -0.0236347 -0.999662 
-0.00727104 -0.0193245 -0.999787 
-8.09636e-05 -0.00101288 -0.999999 
0.000136115 -0.00105914 0.999999 
0.00620948 -0.0192062 0.999796 
0.00946554 -0.02372 0.999674 
0.0122537 -0.0244086 0.999627 
0.0140416 -0.0234953 0.999625 
0.0152956 -0.021485 0.999652 
0.0163573 -0.0187477 0.99969 
0.0170522 -0.0157418 0.999731 
0.0174394 -0.013073 0.999762 
0.0177881 -0.0105083 0.999787 
0.0180959 -0.0079787 0.999804 
0.0183426 -0.00541919 0.999817 
0.0185213 -0.00282753 0.999824 
0.0186386 -0.000217731 0.999826 
0.0186982 0.00244616 0.999822 
0.0186998 0.00525796 0.999811 
0.0186435 0.00834341 0.999791 
0.0185286 0.0118522 0.999758 
0.0183516 0.0159617 0.999704 
0.0181082 0.0208763 0.999618 
0.0177944 0.0268358 0.999481 
0.0174034 0.0341376 0.999266 
0.016924 0.0431486 0.998925 
0.0163478 0.0542973 0.998391 
0.0156696 0.0680987 0.997556 
0.0148784 0.0852235 0.996251 
0.013961 0.106491 0.994216 
0.0129102 0.132848 0.991052 
0.0117257 0.165398 0.986157 
0.0104127 0.205438 0.978615 
0.00898464 0.254427 0.96705 
0.00746517 0.313926 0.949418 
0.00589444 0.385332 0.922759 
0.00433374 0.469378 0.882987 
0.00286223 0.565378 0.824827 
0.00156918 0.670108 0.742262 
0.000514473 0.777583 0.62878 
-0.000264851 0.87743 0.479705 
-0.000767877 0.955149 0.296126 
-0.00104748 0.996129 0.087901 
-0.00120878 0.991788 -0.12789 
-0.00138625 0.943286 -0.331977 
-0.00170947 0.860685 -0.509134 
-0.00226884 0.758474 -0.6517 
-0.00309554 0.650533 -0.759471 
-0.00416834 0.546852 -0.837219 
-0.00543113 0.452976 -0.891506 
-0.00680715 0.371269 -0.9285 
-0.00821935 0.302145 -0.953226 
-0.00960766 0.244663 -0.969561 
-0.0109259 0.197361 -0.98027 
-0.0121421 0.158779 -0.987239 
-0.0132429 0.1275 -0.99175 
-0.0142246 0.102201 -0.994662 
-0.015085 0.0817636 -0.996538 
-0.0158345 0.0653387 -0.997738 
-0.0164766 0.0520549 -0.998508 
-0.0170188 0.0413428 -0.999 
-0.01747 0.0326855 -0.999313 
-0.0178367 0.0256479 -0.999512 
-0.0181248 0.0198925 -0.999638 
-0.018343 0.0151389 -0.999717 
-0.0184935 0.0111534 -0.999767 
-0.0185795 0.00772943 -0.999798 
-0.0186005 0.00469781 -0.999816 
-0.0185558 0.00190896 -0.999826 
-0.0184465 -0.000761014 -0.99983 
-0.0182775 -0.00339967 -0.999827 
-0.0180477 -0.00604454 -0.999819 
-0.0177481 -0.00869657 -0.999805 
-0.0173694 -0.0113996 -0.999784 
-0.0168843 -0.0143506 -0.999754 
-0.0160926 -0.0173167 -0.999721 
-0.0157288 -0.0202137 -0.999672 
-0.0140804 -0.022605 -0.999645 
-0.0121386 -0.0237534 -0.999644 
-0.00932263 -0.0233608 -0.999684 
-0.00606126 -0.0189724 -0.999802 
-0.000128745 -0.0010567 -0.999999 
0.000109263 -0.00109503 0.999999 
0.00537406 -0.0190051 0.999805 
0.00856011 -0.023863 0.999679 
0.0116865 -0.0242106 0.999639 
0.013076 -0.0228142 0.999654 
0.0145691 -0.0201078 0.999692 
0.0158001 -0.0173525 0.999725 
0.0160501 -0.0146679 0.999764 
0.0163767 -0.0120652 0.999793 
0.0167252 -0.00955973 0.999814 
0.0170569 -0.0070491 0.99983 
0.0173107 -0.00447186 0.99984 
0.0174828 -0.00184975 0.999845 
0.0175906 0.000803622 0.999845 
0.0176365 0.00354496 0.999838 
0.017614 0.00648305 0.999824 
0.0175262 0.00975048 0.999799 
0.0173759 0.0135087 0.999758 
0.017157 0.0179496 0.999692 
0.0168674 0.0232923 0.999586 
0.0165091 0.029793 0.99942 
0.0160708 0.0377769 0.999157 
0.0155335 0.0476442 0.998744 
0.0148969 0.0598525 0.998096 
0.0141664 0.0749619 0.997086 
0.0133245 0.0937157 0.99551 
0.0123551 0.116991 0.993056 
0.0112602 0.145784 0.989252 
0.0100497 0.181276 0.983381 
0.0087373 0.224823 0.97436 
0.00734282 0.277922 0.960576 
0.00589118 0.34213 0.939634 
0.00442374 0.418667 0.908129 
0.00300178 0.507823 0.861456 
0.00169981 0.60806 0.793889 
0.000599351 0.714658 0.699474 
-0.000267367 0.820311 0.571918 
-0.000878697 0.912767 0.40848 
-0.00124391 0.976864 0.213858 
-0.00142026 0.999999 0.000989279 
-0.0015109 0.97736 -0.211577 
-0.0016412 0.913986 -0.405741 
-0.00192458 0.822172 -0.569236 
-0.00243241 0.716525 -0.697557 
-0.00318439 0.609594 -0.792707 
-0.00415886 0.509561 -0.860425 
-0.00530272 0.420467 -0.907293 
-0.00654531 0.343778 -0.939028 
-0.00782501 0.279383 -0.960148 
-0.00909303 0.226031 -0.974078 
-0.0103024 0.182219 -0.983204 
-0.011424 0.14656 -0.989136 
-0.0124515 0.117679 -0.992974 
-0.0133762 0.0943054 -0.995453 
-0.0141804 0.0754149 -0.997051 
-0.014908 0.060287 -0.99807 
-0.0155229 0.0479618 -0.998729 
-0.0160436 0.0380373 -0.999148 
-0.016483 0.0300018 -0.999414 
-0.0168358 0.0234538 -0.999583 
-0.0171106 0.018057 -0.999691 
-0.0173137 0.0136002 -0.999758 
-0.0174546 0.00981788 -0.999799 
-0.0175298 0.0065345 -0.999825 
-0.0175453 0.00358793 -0.99984 
-0.017508 0.000838651 -0.999846 
-0.0174249 -0.00181998 -0.999847 
-0.017281 -0.00445705 -0.999841 
-0.017039 -0.00707347 -0.99983 
-0.0166809 -0.00966384 -0.999814 
-0.0162635 -0.0123191 -0.999792 
-0.0155981 -0.014957 -0.999766 
-0.0145588 -0.0179326 -0.999733 
-0.0147185 -0.0204398 -0.999683 
-0.0130633 -0.0227784 -0.999655 
-0.0111542 -0.0237236 -0.999656 
-0.0082591 -0.0235659 -0.999688 
-0.00529221 -0.0189228 -0.999807 
-0.000104239 -0.0010952 -0.999999 
9.77852e-05 -0.00113718 0.999999 
0.00463937 -0.0193616 0.999802 
0.00705404 -0.024033 0.999686 
0.0102802 -0.0242657 0.999653 
0.010825 -0.0232268 0.999672 
0.0123311 -0.020748 0.999709 
0.0137471 -0.0171817 0.999758 
0.0140087 -0.0140771 0.999803 
0.0143115 -0.0113664 0.999833 
0.0146888 -0.00881525 0.999853 
0.0150328 -0.00624649 0.999867 
0.0152652 -0.00360276 0.999877 
0.015414 -0.000926699 0.999881 
0.0155074 0.00178747 0.999878 
0.0155353 0.00462532 0.999869 
0.015484 0.00770516 0.99985 
0.0153719 0.0111685 0.999819 
0.0152013 0.0151905 0.999769 
0.0149602 0.0199772 0.999689 
0.0146521 0.025763 0.999561 
0.0142819 0.0328199 0.999359 
0.0138289 0.0415056 0.999043 
0.0132736 0.052251 0.998546 
0.0126327 0.0655398 0.99777 
0.0119132 0.0819831 0.996563 
0.011085 0.102399 0.994682 
0.0101386 0.127711 0.99176 
0.0090896 0.158962 0.987243 
0.00795348 0.197413 0.980288 
0.00674809 0.244477 0.969632 
0.00549237 0.301691 0.95339 
0.00420748 0.370585 0.928789 
0.00293151 0.452157 0.891933 
0.00172095 0.546139 0.837693 
0.000642189 0.649917 0.760004 
-0.000235693 0.757036 0.653373 
-0.000903029 0.858817 0.512281 
-0.00134067 0.941578 0.336792 
-0.00156128 0.990907 0.134537 
-0.00162487 0.996842 -0.0793919 
-0.00163172 0.958189 -0.28613 
-0.00169581 0.882989 -0.469391 
-0.00191164 0.784746 -0.619814 
-0.00233213 0.677611 -0.735417 
-0.00296792 0.572707 -0.819755 
-0.00379666 0.47658 -0.879123 
-0.00476707 0.392054 -0.91993 
-0.00581902 0.319965 -0.947411 
-0.0069129 0.259797 -0.965639 
-0.00800489 0.210038 -0.97766 
-0.00904555 0.16925 -0.985532 
-0.0100197 0.136123 -0.990641 
-0.0109274 0.109294 -0.993949 
-0.011744 0.0875526 -0.996091 
-0.0124341 0.06997 -0.997472 
-0.0131315 0.0559947 -0.998345 
-0.0136688 0.0444023 -0.99892 
-0.0141385 0.0351306 -0.999283 
-0.0145298 0.0276566 -0.999512 
-0.0148635 0.0214483 -0.999659 
-0.0150728 0.016398 -0.999752 
-0.0152657 0.0121848 -0.999809 
-0.0153789 0.00856531 -0.999845 
-0.0154288 0.00539311 -0.999866 
-0.0154281 0.00251246 -0.999878 
-0.0153936 -0.000203581 -0.999881 
-0.0153511 -0.00285403 -0.999878 
-0.0152393 -0.005469 -0.999869 
-0.0149881 -0.00802893 -0.999855 
-0.0146277 -0.010512 -0.999838 
-0.0140937 -0.0129505 -0.999817 
-0.0132601 -0.0154855 -0.999792 
-0.0125717 -0.0181419 -0.999756 
-0.0125068 -0.0210454 -0.9997 
-0.0107655 -0.0234788 -0.999666 
-0.00888304 -0.0241774 -0.999668 
-0.00640219 -0.0236933 -0.999699 
-0.0042765 -0.0185504 -0.999819 
-0.000109516 -0.00113689 -0.999999 
7.85972e-05 -0.001169 0.999999 
0.00368949 -0.0194653 0.999804 
0.00549018 -0.024213 0.999692 
0.00817572 -0.02456 0.999665 
0.00863838 -0.0238695 0.999678 
0.00951157 -0.021347 0.999727 
0.011322 -0.018718 0.999761 
0.0115682 -0.0158031 0.999808 
0.0117497 -0.0130979 0.999845 
0.0120843 -0.0105483 0.999871 
0.0124677 -0.00803191 0.99989 
0.0127813 -0.00542185 0.999904 
0.0129619 -0.00272086 0.999912 
0.0130818 -6.13413e-06 0.999914 
0.0131591 0.00276979 0.99991 
0.0131563 0.00570513 0.999897 
0.0130783 0.00893265 0.999875 
0.0129532 0.0125974 0.999837 
0.0127749 0.0168857 0.999776 
0.0125311 0.0220304 0.999679 
0.0122262 0.0282684 0.999526 
0.0118654 0.0358934 0.999285 
0.0114205 0.0452953 0.998908 
0.0108836 0.0569341 0.998319 
0.0102811 0.0713144 0.997401 
0.00960821 0.0891063 0.995976 
0.00883177 0.111198 0.993759 
0.00795753 0.138551 0.990323 
0.00700867 0.172262 0.985026 
0.00600052 0.213665 0.976889 
0.0049503 0.264227 0.964448 
0.00387374 0.325491 0.945537 
0.00278772 0.398896 0.916992 
0.0017269 0.485089 0.874463 
0.000739943 0.583027 0.812453 
-0.000117519 0.688783 0.724968 
-0.000795588 0.794319 0.607501 
-0.00128873 0.890248 0.455474 
-0.0015753 0.962586 0.270974 
-0.00167359 0.997975 0.0635924 
-0.00164654 0.988707 -0.14985 
-0.00158953 0.936615 -0.350355 
-0.0016015 0.852078 -0.523412 
-0.0017567 0.749317 -0.66221 
-0.00209231 0.641893 -0.766791 
-0.00261189 0.539547 -0.841951 
-0.00329176 0.447307 -0.894374 
-0.00408506 0.367045 -0.930194 
-0.00494876 0.299126 -0.954201 
-0.00585947 0.242713 -0.97008 
-0.00676969 0.196077 -0.980565 
-0.00763659 0.157897 -0.987426 
-0.00846279 0.126974 -0.99187 
-0.00924297 0.101906 -0.994751 
-0.00993607 0.0815231 -0.996622 
-0.0104992 0.0650025 -0.99783 
-0.0112024 0.0521225 -0.998578 
-0.0116305 0.0408925 -0.999096 
-0.0119902 0.032433 -0.999402 
-0.0124109 0.0251949 -0.999606 
-0.0126079 0.0194536 -0.999731 
-0.0127853 0.0146987 -0.99981 
-0.0129669 0.0107246 -0.999858 
-0.0130326 0.00723108 -0.999889 
-0.0130421 0.00415462 -0.999906 
-0.0130068 0.00134814 -0.999914 
-0.012985 -0.001358 -0.999915 
-0.0129516 -0.00398799 -0.999908 
-0.0128471 -0.00657162 -0.999896 
-0.0125487 -0.00907131 -0.99988 
-0.0121007 -0.0114857 -0.999861 
-0.0114398 -0.0140321 -0.999836 
-0.0104759 -0.0169528 -0.999801 
-0.0106774 -0.0200795 -0.999741 
-0.00969926 -0.0226158 -0.999697 
-0.00799804 -0.0241288 -0.999677 
-0.00628644 -0.0243767 -0.999683 
-0.00355087 -0.0194143 -0.999805 
-6.33995e-05 -0.00116143 -0.999999 
6.41895e-05 -0.00118509 0.999999 
0.00287006 -0.0195684 0.999804 
0.00430071 -0.0244031 0.999693 
0.00642508 -0.0247706 0.999673 
0.00714061 -0.0235928 0.999696 
0.00757609 -0.0208301 0.999754 
0.00926361 -0.0181659 0.999792 
0.00942835 -0.0151674 0.999841 
0.00970738 -0.0124401 0.999875 
0.0100598 -0.00988353 0.999901 
0.0104323 -0.00731054 0.999919 
0.0106991 -0.00460811 0.999932 
0.0108151 -0.00185495 0.99994 
0.010926 0.000893522 0.99994 
0.0109794 0.00371744 0.999933 
0.010954 0.00675448 0.999917 
0.0108629 0.0101333 0.99989 
0.0107384 0.0139828 0.999845 
0.0105726 0.0185507 0.999772 
0.0103377 0.0240564 0.999657 
0.0100534 0.0307464 0.999477 
0.00971596 0.0389359 0.999194 
0.00929828 0.0490518 0.998753 
0.00880697 0.0615556 0.998065 
0.00826683 0.0769836 0.996998 
0.00765816 0.0960806 0.995344 
0.00695576 0.119789 0.992775 
0.00617997 0.149049 0.988811 
0.00535461 0.18498 0.982728 
0.00449246 0.228937 0.973431 
0.00360905 0.28231 0.959316 
0.00271664 0.346489 0.93805 
0.00182964 0.422679 0.906278 
0.00097857 0.511009 0.859575 
0.000199724 0.610002 0.7924 
-0.000468464 0.715451 0.698663 
-0.000993849 0.819324 0.57333 
-0.00135869 0.911364 0.411599 
-0.00154176 0.976064 0.21748 
-0.00156476 0.999992 0.00356014 
-0.00149203 0.977548 -0.210705 
-0.00141228 0.913847 -0.406057 
-0.00140789 0.821627 -0.570023 
-0.00153412 0.71568 -0.698427 
-0.00181599 0.608926 -0.793225 
-0.00225108 0.50952 -0.860456 
-0.00281455 0.421017 -0.907048 
-0.00346665 0.344658 -0.938722 
-0.00418012 0.280548 -0.959831 
-0.00493903 0.227491 -0.973768 
-0.00569294 0.183477 -0.983008 
-0.00640897 0.147535 -0.989036 
-0.00710659 0.118595 -0.992917 
-0.00777061 0.0949735 -0.995449 
-0.00834734 0.0755431 -0.997108 
-0.00877748 0.059732 -0.998176 
-0.00961559 0.0479062 -0.998806 
-0.00965091 0.0376043 -0.999246 
-0.0102288 0.0290999 -0.999524 
-0.0103817 0.0226136 -0.99969 
-0.0105511 0.0172615 -0.999795 
-0.0106758 0.0128307 -0.999861 
-0.0108779 0.00910584 -0.999899 
-0.0108605 0.00564964 -0.999925 
-0.0107744 0.00271591 -0.999938 
-0.0107664 -8.25765e-05 -0.999942 
-0.010703 -0.00276244 -0.999939 
-0.0106692 -0.00530494 -0.999929 
-0.0105552 -0.00768807 -0.999915 
-0.0102026 -0.0099746 -0.999898 
-0.00979256 -0.012328 -0.999876 
-0.00918824 -0.0149268 -0.999846 
-0.00833382 -0.0178807 -0.999805 
-0.00874617 -0.0204889 -0.999752 
-0.00745348 -0.0232882 -0.999701 
-0.00578622 -0.0244089 -0.999685 
-0.00441738 -0.02392 -0.999704 
-0.00244942 -0.0185867 -0.999824 
-7.93278e-05 -0.00119743 -0.999999 