# vtk DataFile Version 3.0 
Exported using Morpho https://github.com/Morpho-lang/morpho 
ASCII 
DATASET UNSTRUCTURED_GRID 

POINTS 1978 float 
-8.48529 -2.82843 -1.38477e-12 
-8.26705 -2.82844 -1.34864e-13 
-8.04538 -2.82841 2.15208e-13 
-7.78507 -2.82845 1.07482e-12 
-7.49331 -2.82843 7.89382e-13 
-7.2452 -2.82844 6.71422e-14 
-6.99708 -2.82842 -1.95017e-13 
-6.78244 -2.82844 -2.8199e-14 
-6.56343 -2.82843 1.83998e-13 
-6.36205 -2.82843 -1.1023e-12 
-6.14171 -2.82843 -3.70415e-13 
-5.93341 -2.82843 -8.93766e-13 
-5.72252 -2.82843 -9.29105e-13 
-5.52861 -2.82843 -9.83089e-13 
-5.29765 -2.82843 -1.57006e-12 
-5.08865 -2.82843 -2.00348e-12 
-4.87351 -2.82843 -2.32117e-12 
-4.66507 -2.82843 -2.79834e-12 
-4.45388 -2.82843 -2.87752e-12 
-4.24255 -2.82843 -2.42273e-12 
-4.04183 -2.82843 -3.83984e-12 
-3.83882 -2.82843 -5.77533e-12 
-3.63575 -2.82843 -1.18422e-11 
-3.42681 -2.82843 -2.27586e-11 
-3.21225 -2.82843 -4.45167e-11 
-2.99402 -2.82843 -8.40806e-11 
-2.78564 -2.82843 -1.70567e-10 
-2.5678 -2.82843 -2.66455e-10 
-2.32336 -2.82843 -1.05758e-10 
-2.06663 -2.82843 7.5128e-10 
-1.85106 -2.82843 1.40245e-09 
-1.66968 -2.82843 4.68086e-09 
-1.44914 -2.82842 4.6195e-08 
-1.25447 -2.82843 1.44553e-07 
-1.09342 -2.82842 2.09096e-07 
-0.945091 -2.82842 5.48906e-07 
-0.801804 -2.82842 2.07193e-06 
-0.673126 -2.82834 1.72794e-05 
-0.320606 -2.82816 1.63085e-05 
0.142572 -2.8276 -6.53407e-05 
0.36842 -2.82825 -7.92604e-05 
0.716054 -2.82837 -1.44828e-05 
0.848224 -2.82841 -1.7197e-06 
0.993334 -2.82842 -5.41028e-07 
1.14895 -2.82842 -1.23251e-07 
1.30044 -2.82845 2.22423e-09 
1.46224 -2.82842 -5.22311e-08 
1.65341 -2.82843 -1.91217e-08 
1.88986 -2.82843 -3.53345e-09 
2.12964 -2.82843 5.48913e-11 
2.37546 -2.82843 5.81206e-10 
2.59402 -2.82843 3.89228e-10 
2.80186 -2.82843 1.97822e-10 
3.02078 -2.82843 1.23536e-10 
3.23713 -2.82843 3.99965e-11 
3.42865 -2.82843 2.70219e-11 
3.62637 -2.82844 2.28293e-11 
3.82373 -2.82843 1.09493e-11 
4.03265 -2.82843 3.67467e-12 
4.24823 -2.82843 2.24064e-12 
4.45327 -2.82843 2.83383e-12 
4.66124 -2.82843 2.82728e-12 
4.86278 -2.82843 2.9554e-12 
5.07786 -2.82843 2.48814e-12 
5.28385 -2.82843 1.86832e-12 
5.50399 -2.82843 1.17322e-12 
5.7194 -2.82843 8.63264e-13 
5.93796 -2.82843 7.50193e-13 
6.16645 -2.82843 4.73277e-13 
6.38433 -2.82843 4.67409e-13 
6.6047 -2.82843 2.48523e-13 
6.82614 -2.82843 1.95961e-13 
7.03384 -2.82843 1.51521e-13 
7.29914 -2.82843 -1.52878e-13 
7.53398 -2.82844 -4.29348e-13 
7.7578 -2.82843 -5.55501e-13 
8.04063 -2.82843 -5.38227e-13 
8.23198 -2.82844 2.75626e-13 
8.48528 -2.82843 2.82273e-13 
-8.48529 -2.5888 2.61784e-12 
-8.2587 -2.58198 1.86762e-13 
-8.03358 -2.57607 -2.79325e-13 
-7.80118 -2.6219 6.3877e-13 
-7.54057 -2.64914 3.95887e-13 
-7.23261 -2.6164 -8.83566e-15 
-6.98755 -2.59036 4.39186e-13 
-6.7548 -2.6054 8.77162e-14 
-6.53463 -2.57869 5.67475e-13 
-6.30157 -2.60146 -8.4751e-13 
-6.07402 -2.58579 2.87282e-13 
-5.85568 -2.58776 -3.62933e-13 
-5.64887 -2.56428 -2.40196e-13 
-5.42843 -2.60871 -1.49449e-13 
-5.207 -2.58801 -4.89987e-13 
-4.98955 -2.59726 -6.05944e-13 
-4.77325 -2.59283 -7.07289e-13 
-4.55914 -2.5989 -8.02487e-13 
-4.34308 -2.60114 -6.91003e-13 
-4.13175 -2.58988 -7.53038e-13 
-3.92508 -2.59252 -7.5113e-13 
-3.71699 -2.59109 -1.62476e-13 
-3.5059 -2.5954 1.62787e-12 
-3.28852 -2.59898 6.55073e-12 
-3.06567 -2.59981 2.61015e-11 
-2.84256 -2.58562 8.15275e-11 
-2.62513 -2.59319 1.1414e-10 
-2.39375 -2.61613 -2.30283e-10 
-2.13532 -2.62463 -5.58599e-10 
-1.8801 -2.58341 5.05712e-09 
-1.66096 -2.5455 1.66713e-08 
-1.48686 -2.61527 2.93903e-08 
-1.26564 -2.61136 1.02964e-07 
-1.07808 -2.58565 4.57952e-07 
-0.924608 -2.60713 9.88284e-07 
-0.821805 -2.40187 7.13963e-07 
-0.786461 -2.6254 1.80063e-06 
-0.57382 -2.76501 -8.50132e-06 
-0.211122 -2.74872 -1.14599e-06 
-0.011216 -2.78098 4.92266e-05 
0.326658 -2.72327 2.13977e-05 
0.609184 -2.75918 6.7125e-06 
0.751569 -2.63922 -4.3046e-07 
0.903215 -2.62375 -9.18656e-07 
1.07174 -2.61588 -6.08751e-07 
1.12432 -2.37945 -2.27391e-07 
1.24995 -2.58418 -2.76135e-07 
1.45507 -2.59244 -4.27712e-08 
1.70916 -2.62524 -1.0854e-09 
1.97059 -2.61642 1.43839e-09 
2.23475 -2.62064 5.03735e-10 
2.48551 -2.59429 -4.17878e-10 
2.71255 -2.58171 -1.98271e-10 
2.94119 -2.60245 -6.67415e-11 
3.17602 -2.60508 -6.59655e-12 
3.40202 -2.57238 -8.49298e-12 
3.60904 -2.58361 -6.22295e-12 
3.82731 -2.59862 1.3524e-13 
4.049 -2.60407 -7.6341e-13 
4.2649 -2.59267 3.15384e-12 
4.47704 -2.59593 3.37697e-13 
4.68384 -2.58579 1.03516e-12 
4.89959 -2.59908 7.01388e-13 
5.11102 -2.58658 6.20742e-13 
5.33204 -2.60069 4.06732e-13 
5.55222 -2.59315 3.0071e-13 
5.77452 -2.59396 1.73418e-13 
6.00475 -2.60206 1.23435e-13 
6.23035 -2.58873 4.03921e-14 
6.45483 -2.59031 -1.55202e-14 
6.68063 -2.59058 4.11627e-14 
6.8943 -2.57292 -1.15354e-13 
7.13383 -2.62498 -1.17733e-13 
7.38524 -2.59843 -1.75284e-13 
7.61173 -2.58771 -1.21296e-13 
7.86912 -2.6374 -2.90618e-13 
8.07482 -2.54497 -4.5186e-14 
8.29959 -2.6128 1.29122e-13 
8.48529 -2.53307 -1.13659e-12 
-8.48529 -2.34836 1.11112e-12 
-8.25271 -2.34283 -8.3147e-14 
-8.01563 -2.33745 -3.34416e-14 
-7.77616 -2.40515 -1.47863e-13 
-7.57239 -2.26803 -1.37984e-14 
-7.4793 -2.4711 -3.00489e-13 
-7.20069 -2.40663 -3.32372e-13 
-6.98515 -2.33872 6.53054e-14 
-6.76082 -2.37468 -9.89092e-14 
-6.50997 -2.35793 -2.97792e-13 
-6.26876 -2.37648 7.51907e-14 
-6.03899 -2.34734 -3.50979e-14 
-5.82681 -2.33448 5.69665e-14 
-5.58552 -2.34593 1.42053e-13 
-5.37058 -2.37225 -5.81717e-15 
-5.1404 -2.3605 -1.75314e-13 
-4.91998 -2.36673 -3.59778e-13 
-4.69759 -2.36557 -3.5655e-13 
-4.47856 -2.37475 -2.8862e-13 
-4.26356 -2.36853 -1.7326e-13 
-4.04734 -2.35721 4.36904e-14 
-3.83708 -2.35835 9.83811e-13 
-3.6222 -2.36084 4.85817e-12 
-3.40351 -2.3689 1.78416e-11 
-3.17947 -2.37359 5.52851e-11 
-2.95406 -2.36485 1.48349e-10 
-2.72306 -2.3509 3.60681e-10 
-2.49333 -2.37828 9.79842e-10 
-2.2512 -2.41455 3.03068e-09 
-2.00309 -2.39217 7.63467e-09 
-1.76002 -2.32086 1.5319e-08 
-1.53458 -2.30271 3.95129e-08 
-1.36215 -2.41721 1.00262e-07 
-1.15298 -2.37911 1.75912e-07 
-0.96598 -2.36843 2.69572e-07 
-0.709154 -2.30169 -5.16486e-07 
-0.672104 -2.59919 9.10276e-07 
-0.472341 -2.70434 1.271e-07 
-0.294664 -2.69991 6.94228e-06 
-0.109918 -2.69838 5.66738e-05 
0.273547 -2.61687 -1.61006e-06 
0.470101 -2.71078 -3.91469e-06 
0.633715 -2.46741 -8.32801e-07 
0.795357 -2.4541 -9.64291e-07 
0.960922 -2.41731 -3.83456e-07 
1.02731 -2.18422 1.82965e-08 
1.30455 -2.35942 -1.56473e-07 
1.50229 -2.34748 -7.68058e-08 
1.70511 -2.41816 -2.53474e-08 
1.96144 -2.4044 -1.18084e-08 
2.21069 -2.41136 -4.65374e-09 
2.45562 -2.38063 -1.18094e-09 
2.70521 -2.34429 -5.26964e-10 
2.93447 -2.37067 -1.92172e-10 
3.16192 -2.38293 -9.32752e-11 
3.38368 -2.34152 -2.38386e-11 
3.60405 -2.34941 -2.86529e-12 
3.81936 -2.36986 -2.35458e-12 
4.03531 -2.37849 2.88476e-12 
4.24518 -2.35921 -2.23366e-12 
4.45557 -2.36237 3.16783e-13 
4.66236 -2.34889 3.03329e-13 
4.87304 -2.36552 2.66608e-13 
5.08283 -2.35088 1.43705e-13 
5.2983 -2.3686 3.42425e-14 
5.51426 -2.36136 -1.12079e-13 
5.73406 -2.36113 -8.50432e-14 
5.95827 -2.37307 -3.19254e-14 
6.18291 -2.35777 2.58231e-14 
6.41076 -2.35388 8.49563e-14 
6.6353 -2.35506 8.01975e-14 
6.85554 -2.32415 6.02096e-13 
7.07746 -2.38534 -2.86162e-13 
7.3064 -2.39406 6.47101e-14 
7.55544 -2.34729 -9.53352e-15 
7.79122 -2.41006 6.59282e-14 
8.00075 -2.31818 3.16662e-14 
8.24813 -2.35065 -8.89328e-15 
8.48529 -2.30428 -8.46529e-13 
-8.48529 -2.09572 2.00154e-13 
-8.26862 -2.11011 -2.31398e-13 
-8.05769 -2.07702 3.79933e-13 
-7.8219 -2.1667 1.79878e-14 
-7.5503 -2.05834 -9.2469e-14 
-7.31644 -2.2396 1.70128e-13 
-7.08703 -2.11606 8.03987e-14 
-6.83154 -2.12782 -1.48408e-13 
-6.61159 -2.14801 7.0413e-14 
-6.35926 -2.14814 -2.51273e-15 
-6.1417 -2.12578 -1.82586e-14 
-5.92357 -2.0894 7.67799e-15 
-5.69788 -2.1238 -4.24136e-15 
-5.46954 -2.11891 -3.27483e-14 
-5.25867 -2.14247 -7.16961e-14 
-5.03295 -2.13443 -3.78891e-14 
-4.81571 -2.14033 -5.23342e-14 
-4.59599 -2.14281 -8.2438e-14 
-4.38565 -2.14327 -1.12542e-13 
-4.17356 -2.13702 -2.15672e-13 
-3.96077 -2.12359 -2.56104e-13 
-3.75015 -2.12826 -1.81496e-13 
-3.53409 -2.13461 5.56356e-13 
-3.31533 -2.14323 3.42158e-12 
-3.09384 -2.14224 1.05295e-11 
-2.86709 -2.13267 2.47526e-11 
-2.62866 -2.12862 7.60267e-11 
-2.39222 -2.16974 3.49204e-10 
-2.15725 -2.18832 8.95521e-10 
-1.91135 -2.14845 9.66911e-10 
-1.64829 -2.08126 5.85786e-10 
-1.42093 -2.06179 -1.16096e-08 
-1.28295 -2.2017 -4.36594e-10 
-1.14649 -2.00256 -1.55582e-08 
-1.05323 -2.16868 -6.74036e-08 
-0.855721 -2.16667 3.58389e-08 
-0.626882 -2.49401 1.54095e-06 
-0.441589 -2.59331 1.55255e-05 
-0.281877 -2.57477 6.87805e-05 
0.151482 -2.71928 -2.83273e-05 
0.5805 -2.59103 -3.52362e-06 
0.466308 -2.3439 3.37422e-06 
0.658789 -2.31169 -3.55795e-06 
0.846792 -2.26923 -9.3773e-08 
0.854057 -2.06196 3.80073e-07 
1.07168 -1.96865 1.21498e-07 
1.22851 -2.12672 8.07175e-08 
1.43128 -2.11578 2.92392e-08 
1.68792 -2.17767 -5.57732e-09 
1.92647 -2.19743 -2.94039e-09 
2.19624 -2.19128 -1.09865e-09 
2.45194 -2.16595 -4.29595e-10 
2.69616 -2.11908 -8.33499e-13 
2.93526 -2.13849 -2.23272e-11 
3.16496 -2.15194 -1.37687e-11 
3.39953 -2.11808 5.67247e-12 
3.62449 -2.12305 -4.76901e-12 
3.84189 -2.1423 1.57818e-12 
4.05393 -2.14556 -1.89272e-12 
4.26978 -2.12942 9.57222e-13 
4.47575 -2.12448 1.20562e-13 
4.69302 -2.12076 3.70621e-14 
4.89994 -2.12691 8.20939e-14 
5.12104 -2.12353 5.89772e-14 
5.33331 -2.13321 7.12518e-14 
5.55269 -2.1291 1.59574e-14 
5.77821 -2.1341 -1.88671e-14 
5.99859 -2.1382 -1.5338e-14 
6.22862 -2.12686 -1.17598e-14 
6.45471 -2.11911 6.6498e-15 
6.67197 -2.10962 -4.02522e-14 
6.91134 -2.09683 -4.70911e-13 
7.12847 -2.15409 5.63118e-13 
7.36244 -2.16866 5.84372e-14 
7.56273 -2.07644 1.33409e-13 
7.75999 -2.16955 -3.50395e-14 
7.98066 -2.0814 -6.92392e-14 
8.21243 -2.12829 -4.13975e-15 
8.48528 -2.10501 -2.34983e-13 
-8.48529 -1.81541 -1.12524e-13 
-8.2916 -1.85736 1.6765e-13 
-7.88311 -1.91735 -1.45527e-13 
[...]
POINT_DATA 1978 
VECTORS vectors float
2.62981e-05 -0.00156791 1 
-1.81981e-06 -0.0015093 1 
4.39574e-06 -0.00146538 1 
1.90453e-05 -0.00148419 1 
3.16209e-05 -0.00155964 1 
3.53797e-05 -0.00166678 1 
3.60786e-05 -0.00177881 0.999999 
3.78565e-05 -0.00188299 1 
3.14987e-05 -0.00198636 1 
2.64604e-05 -0.00206203 1 
1.86152e-05 -0.00212408 1 
1.03283e-05 -0.00216289 1 
4.36277e-07 -0.00218091 1 
-1.26267e-05 -0.00217392 1 
-2.49879e-05 -0.00214229 1 
-4.64065e-05 -0.00207996 1 
-7.3083e-05 -0.00195699 1 
-0.000108371 -0.00175382 1 
-0.000151042 -0.00143512 1 
-0.000193967 -0.000985947 1 
-0.000252307 -0.000402567 1 
-0.000342772 0.000413225 1 
-0.000481624 0.00157991 1 
-0.00067998 0.00329405 0.999996 
-0.000929949 0.00574357 0.999985 
-0.0011768 0.00915446 0.99996 
-0.00152214 0.0135775 0.999909 
-0.00216781 0.0197524 0.999805 
-0.00318788 0.0291486 0.999573 
-0.00399524 0.0433434 0.999055 
-0.00461908 0.0608289 0.998143 
-0.00624061 0.0818474 0.996627 
-0.00882994 0.115627 0.993258 
-0.0114156 0.160462 0.986981 
-0.012341 0.209807 0.977667 
-0.0147734 0.270426 0.962624 
-0.0228845 0.348786 0.936922 
-0.0391871 0.439822 0.897286 
-0.0299608 0.803656 0.594409 
-0.000768143 0.977695 -0.21006 
0.041647 0.750598 -0.659473 
0.0336 0.423447 -0.905343 
0.0225787 0.333571 -0.942454 
0.0164607 0.26164 -0.96503 
0.0112479 0.205418 -0.978611 
0.00870089 0.159201 -0.987205 
0.00884343 0.12283 -0.992393 
0.00753652 0.0892427 -0.995986 
0.00611238 0.0606033 -0.998147 
0.00441258 0.0413098 -0.99914 
0.00306653 0.0278042 -0.999611 
0.00199238 0.0195475 -0.999809 
0.00148859 0.0139467 -0.999904 
0.00122027 0.00953512 -0.999956 
0.000942481 0.00610868 -0.999983 
0.000629482 0.00382402 -0.999994 
0.000495047 0.00203525 -0.999999 
0.000376121 0.000795125 -1 
0.00028158 -8.66919e-05 -1 
0.000214962 -0.000747329 -1 
0.000169304 -0.00124626 -1 
0.00012945 -0.00164111 -1 
8.90473e-05 -0.00190841 -1 
5.58336e-05 -0.00207283 -1 
2.74543e-05 -0.00214491 -1 
1.134e-05 -0.00216613 -1 
-1.37259e-06 -0.00216559 -1 
-1.25605e-05 -0.00214668 -1 
-2.11458e-05 -0.00210672 -1 
-2.78317e-05 -0.0020478 -1 
-3.32545e-05 -0.00196732 -1 
-3.32463e-05 -0.00187242 -1 
-3.67685e-05 -0.00177621 -1 
-3.46267e-05 -0.00165615 -1 
-2.38542e-05 -0.00157349 -1 
-1.73304e-05 -0.00151666 -1 
-8.06526e-06 -0.00148809 -1 
-7.13367e-07 -0.00149811 -1 
-1.6958e-05 -0.00154575 -1 
0.000112381 -0.00147877 1 
5.48712e-05 -0.00144876 1.00001 
3.93713e-05 -0.00144438 1.00001 
3.52858e-05 -0.00147229 1.00001 
4.15841e-05 -0.00153063 1.00001 
5.62167e-05 -0.0016368 1.00001 
7.0954e-05 -0.0017327 1.00001 
7.42351e-05 -0.0018485 1 
7.90342e-05 -0.00192594 1.00001 
6.48062e-05 -0.00200477 1 
4.9889e-05 -0.00204959 1.00001 
2.18689e-05 -0.0020725 1.00001 
-1.14264e-05 -0.00205874 1.00001 
-5.39498e-05 -0.00205357 1.00001 
-0.000114467 -0.0019798 1.00001 
-0.000178377 -0.0018733 1.00001 
-0.000259976 -0.00168432 1.00001 
-0.000341361 -0.00140779 1.00001 
-0.000435594 -0.000993773 1.00001 
-0.000563918 -0.000401266 1.00001 
-0.000698001 0.000396569 1.00001 
-0.000891117 0.0015465 1.00001 
-0.00114595 0.00317333 1 
-0.00148495 0.00547385 0.999991 
-0.00188396 0.00869202 0.999968 
-0.00236967 0.0131358 0.999919 
-0.00270545 0.0188395 0.999827 
-0.00300532 0.0270053 0.999639 
-0.00341492 0.0402061 0.999194 
-0.00431567 0.0598738 0.998203 
-0.00461561 0.0838671 0.996476 
-0.00487304 0.110701 0.993849 
-0.00465302 0.159365 0.987216 
-0.00283494 0.216817 0.976214 
-0.00136144 0.279585 0.960128 
0.0466973 0.298191 0.953365 
0.00386774 0.353081 0.935585 
-0.0161158 0.540276 0.841332 
-0.0152072 0.906628 0.421755 
-0.0185842 0.997599 0.0660312 
-0.0152069 0.796984 -0.603826 
0.0115315 0.526442 -0.850127 
-0.00344598 0.406357 -0.913723 
0.00119031 0.311007 -0.950415 
0.0060314 0.233832 -0.972265 
-0.0141878 0.198057 -0.980093 
0.00649106 0.173272 -0.984862 
0.00604696 0.123847 -0.992292 
0.00496349 0.0816908 -0.996653 
0.00459774 0.0543584 -0.998519 
0.00396776 0.0362882 -0.999341 
0.00347542 0.0245866 -0.999703 
0.00297338 0.017294 -0.999854 
0.00234783 0.0117983 -0.999934 
0.00181498 0.00768566 -0.999975 
0.00151137 0.00480946 -0.999997 
0.00113485 0.00276819 -1 
0.000835116 0.00121591 -1.00001 
0.000635715 0.000156427 -1.00001 
0.000522644 -0.000546517 -1.00001 
0.000418489 -0.00108132 -1.00001 
0.000337882 -0.0014572 -1.00001 
0.000238379 -0.00174999 -1.00001 
0.000166102 -0.00191022 -1.00001 
9.00913e-05 -0.00201609 -1.00001 
3.38565e-05 -0.00205403 -1.00001 
-1.07048e-05 -0.00206647 -1.00001 
-4.22312e-05 -0.00205707 -1.00001 
-6.55032e-05 -0.00201541 -1.00001 
-7.45604e-05 -0.00195622 -1.00001 
-7.65059e-05 -0.00187808 -1.00001 
-7.64348e-05 -0.00179074 -1.00001 
-5.69754e-05 -0.00170101 -1.00001 
-5.25019e-05 -0.00160281 -1.00001 
-4.34304e-05 -0.00153472 -1.00001 
-2.93581e-05 -0.00148876 -1 
-3.61794e-05 -0.00145904 -1.00001 
-4.18501e-05 -0.0014722 -1 
-8.61992e-05 -0.00146333 -1 
0.000107333 -0.00137434 1 
5.95707e-05 -0.00140502 1.00001 
4.54429e-05 -0.00142652 1.00001 
4.98107e-05 -0.00146355 1.00001 
5.86926e-05 -0.00151468 1.00001 
6.32442e-05 -0.00154165 1.00001 
8.54317e-05 -0.00163196 1.00001 
0.000100621 -0.00170515 1 
0.00010781 -0.00178945 1.00001 
0.000109841 -0.00187485 1.00001 
9.50671e-05 -0.00194391 1.00001 
6.83668e-05 -0.00196793 1.00001 
2.87224e-05 -0.00196937 1.00001 
-3.26586e-05 -0.00194896 1.00001 
-9.79865e-05 -0.00190866 1.00001 
-0.000187725 -0.0017999 1.00001 
-0.000285597 -0.00164666 1.00001 
-0.000397851 -0.00140272 1.00001 
-0.000515873 -0.00105468 1.00001 
-0.000641778 -0.000542232 1.00001 
-0.000784537 0.000203484 1.00001 
-0.000959256 0.00122715 1.00001 
-0.00120722 0.00271225 1 
-0.0015591 0.00477762 0.999995 
-0.00201072 0.00760325 0.999977 
-0.00244108 0.0114224 0.99994 
-0.00271192 0.0166402 0.999866 
-0.00305926 0.0235308 0.999727 
-0.00345036 0.0338989 0.999428 
-0.00313591 0.0493436 0.998785 
-0.000215419 0.0698083 0.997568 
0.00451155 0.0960006 0.99538 
0.00273815 0.129757 0.991547 
0.0138736 0.177279 0.984068 
0.0302803 0.235014 0.971524 
0.0937717 0.321104 0.942397 
0.0181285 0.430056 0.902629 
0.00921262 0.642851 0.765946 
0.0121853 0.816797 0.576785 
-0.00845364 0.967179 0.254212 
-0.0721344 0.827909 -0.556279 
-0.0107351 0.65377 -0.756565 
-0.0606852 0.442368 -0.894785 
-0.0366437 0.34238 -0.938849 
-0.025826 0.258724 -0.965608 
-0.0487388 0.194384 -0.979717 
-0.00553285 0.148979 -0.98883 
-0.00167349 0.109414 -0.994 
0.00319241 0.0812272 -0.996699 
0.00423084 0.0551398 -0.998478 
0.00440142 0.038077 -0.999274 
0.00393946 0.026417 -0.999649 
0.0033171 0.0180706 -0.999842 
0.00291502 0.0126289 -0.999924 
0.00234794 0.00854579 -0.999969 
0.00179436 0.00562461 -0.99999 
0.00138079 0.00334777 -0.999999 
0.00107759 0.00168778 -1.00001 
0.000856693 0.000533385 -1.00001 
0.000709203 -0.000222737 -1.00001 
0.000579063 -0.000797163 -1.00001 
0.000467014 -0.00119698 -1.00001 
0.000351264 -0.00151306 -1.00001 
0.000247267 -0.00170533 -1.00001 
0.000145322 -0.0018513 -1.00001 
6.05638e-05 -0.00192375 -1.00001 
-9.12095e-06 -0.00196327 -1.00001 
-6.02244e-05 -0.0019773 -1.00001 
-9.35007e-05 -0.00195369 -1.00001 
-0.000109171 -0.00190813 -1.00001 
-0.000110699 -0.00184381 -1.00001 
-0.000104995 -0.00176109 -1.00001 
-9.19314e-05 -0.00169705 -1.00001 
-7.70186e-05 -0.00161601 -1.00001 
-6.00821e-05 -0.00153648 -1.00001 
-4.69832e-05 -0.0014888 -1.00001 
-3.95725e-05 -0.00145353 -1.00001 
-4.7154e-05 -0.00143156 -1.00001 
-7.28965e-05 -0.00140477 -1 
4.36954e-05 -0.00132338 1 
2.90957e-05 -0.00137323 1.00001 
1.97701e-05 -0.00140806 1.00001 
3.555e-05 -0.00145004 1.00001 
3.87938e-05 -0.00151406 1.00001 
7.52074e-05 -0.00158382 1.00001 
7.95213e-05 -0.00164215 1.00001 
9.77133e-05 -0.00172948 1.00001 
0.000107293 -0.00180166 1.00001 
0.000101976 -0.0018655 1.00001 
8.1136e-05 -0.00189227 1.00001 
4.53907e-05 -0.00188988 1.00001 
-5.23113e-06 -0.00188051 1.00001 
-7.13063e-05 -0.001822 1.00001 
-0.000143726 -0.0017447 1.00001 
-0.00023184 -0.00159869 1.00001 
-0.000326417 -0.00139544 1.00001 
-0.000426912 -0.00109154 1.00001 
-0.000522372 -0.000673483 1.00001 
-0.000612516 -6.85687e-05 1.00001 
-0.000697154 0.000804969 1.00001 
-0.000809213 0.00202465 1 
-0.000959347 0.00377397 1 
-0.00116785 0.0061269 0.999988 
-0.00135468 0.00919345 0.999964 
-0.00134207 0.0132455 0.999919 
-0.00103734 0.0188154 0.999831 
-0.000977081 0.0265291 0.999656 
-0.000330678 0.0373069 0.999312 
0.00281229 0.0522058 0.998641 
0.0111139 0.0722906 0.99733 
0.022678 0.0974179 0.994991 
0.0227626 0.131057 0.991119 
0.0506486 0.128128 0.990468 
0.046536 0.173148 0.983799 
0.0784317 0.224561 0.971302 
0.053103 0.445938 0.893491 
0.0473823 0.653542 0.755392 
0.0654416 0.811893 0.580159 
-0.0382256 0.961612 -0.271812 
-0.0389715 0.524623 -0.850425 
-0.163668 0.497508 -0.851886 
-0.101754 0.374902 -0.921461 
-0.0695712 0.270697 -0.960153 
-0.096316 0.207861 -0.973407 
-0.0614861 0.14293 -0.987826 
-0.0322068 0.140027 -0.98963 
-0.0187483 0.106136 -0.994183 
-0.00527573 0.077183 -0.997011 
-0.000456981 0.0550812 -0.99849 
0.00143696 0.0372174 -0.999316 
0.001909 0.025782 -0.999673 
0.00174899 0.018009 -0.999845 
0.00187099 0.012737 -0.999925 
0.00164139 0.00878018 -0.999969 
0.00122978 0.00570426 -0.999989 
0.00100481 0.00341934 -1 
0.000854333 0.00180939 -1.00001 
0.000723551 0.000691879 -1.00001 
0.000606671 -0.000101907 -1.00001 
0.000511738 -0.000650263 -1.00001 
0.000415003 -0.00107342 -1.00001 
0.000322838 -0.00137071 -1.00001 
0.000224594 -0.0015888 -1.00001 
0.000135558 -0.00173495 -1.00001 
5.28108e-05 -0.00182645 -1.00001 
-1.70106e-05 -0.00188145 -1.00001 
-6.62613e-05 -0.00190075 -1.00001 
-9.71023e-05 -0.00188629 -1.00001 
-0.000107804 -0.00184645 -1.00001 
-0.000104214 -0.00178978 -1.00001 
-9.07937e-05 -0.00171887 -1.00001 
-7.90452e-05 -0.00165064 -1.00001 
-6.3206e-05 -0.00158769 -1 
-3.95181e-05 -0.00153082 -1.00001 
-3.6895e-05 -0.00148905 -1.00001 
-2.07755e-05 -0.00145018 -1 
-2.55063e-05 -0.00141463 -1.00001 
-3.77149e-05 -0.00137691 -1 
-3.67377e-05 -0.00132074 1 
-1.89313e-05 -0.00136231 1.00001 
2.88133e-06 -0.00144379 1 
1.23726e-05 -0.00148598 1.00001 
1.45901e-05 -0.00153804 1.00001 
4.8998e-05 -0.00157242 1 
4.56098e-05 -0.00160812 1.00001 
7.26985e-05 -0.00167378 1.00001 
8.80298e-05 -0.00173719 1.00001 
9.70106e-05 -0.00179911 1.00001 
8.64692e-05 -0.00182708 1.00001 
6.23082e-05 -0.00183603 1.00001 
1.72204e-05 -0.00182247 1.00001 
-3.52588e-05 -0.00178326 1.00001 
-9.76396e-05 -0.00170212 1.00001 
-0.000163313 -0.00159497 1.00001 
-0.0002353 -0.00141554 1.00001 
-0.000309836 -0.00117103 1.00001 
-0.000374122 -0.000827621 1.00001 
-0.000428124 -0.000356677 1.00001 
-0.000459667 0.00031601 1.00001 
-0.000463781 0.0012899 1.00001 
-0.000459104 0.00266297 1 
-0.00041932 0.00456627 0.999997 
-0.000343026 0.00705382 0.999983 
-0.000117715 0.0102116 0.999956 
0.000427087 0.014391 0.999904 
0.00143941 0.0201705 0.999804 
0.00266886 0.0276943 0.999621 
0.00518643 0.0379978 0.999273 
0.0112951 0.051977 0.998593 
0.0235775 0.0665951 0.997509 
0.0396417 0.0892296 0.995229 
0.07055 0.110405 0.991383 
0.0915589 0.166784 0.981738 
0.143008 0.160467 0.97663 
0.137132 0.236873 0.961815 
0.128516 0.449603 0.883926 
0.111504 0.570796 0.813475 
0.0803299 0.930237 0.357946 
-0.135323 0.885665 -0.444215 
-0.262805 0.56783 -0.780083 
-0.13207 0.278928 -0.951202 
-0.16347 0.210619 -0.963806 
-0.100954 0.151606 -0.983276 
-0.0652076 0.0993726 -0.992918 
-0.0410321 0.0981532 -0.994331 
-0.0267586 0.0769435 -0.996686 
-0.0139747 0.0688602 -0.997534 
-0.00668609 0.0494893 -0.998761 
-0.00262458 0.0358855 -0.999361 
-0.000932923 0.0250489 -0.999695 
-0.000310414 0.0176415 -0.999851 
0.000357997 0.0128498 -0.999925 
0.0006008 0.0090982 -0.999966 
0.000561265 0.00618624 -0.999988 
0.000536477 0.00379525 -1 
0.000540572 0.00217033 -1 
0.000510857 0.0010073 -1.00001 
0.00046902 0.000187362 -1.00001 
0.00041161 -0.000411935 -1.00001 
0.00036202 -0.000847995 -1.00001 
0.000292504 -0.00117733 -1.00001 
0.000223672 -0.00142152 -1.00001 
0.000144866 -0.00159609 -1.00001 
7.20377e-05 -0.001714 -1.00001 
3.80649e-06 -0.00179392 -1.00001 
-4.95269e-05 -0.00183277 -1.00001 
-8.36755e-05 -0.00184032 -1.00001 
-9.82716e-05 -0.00181551 -1.00001 
-9.48667e-05 -0.00177022 -1.00001 
-8.10211e-05 -0.00171698 -1.00001 
-5.95579e-05 -0.0016466 -1.00001 
-4.53911e-05 -0.00159471 -1.00001 
-1.8758e-05 -0.00153552 -1.00001 
-9.08951e-06 -0.00148122 -1.00001 
5.44865e-06 -0.00143382 -1.00001 
7.67503e-07 -0.00140354 -1 
1.4035e-05 -0.00136976 -1 
-9.07878e-05 -0.00135239 1 
-6.30759e-05 -0.0013837 1.00001 
-2.23038e-05 -0.00140195 1.00001 
-2.82911e-05 -0.0014471 1.00001 
-1.46534e-05 -0.00149497 1 
8.86743e-06 -0.00157024 1.00001 
3.87187e-05 -0.00163121 1.00001 
6.22645e-05 -0.00168301 1.00001 
7.95545e-05 -0.00174068 1.00001 
8.18106e-05 -0.0017745 1.00001 
6.55533e-05 -0.00178603 1.00001 
3.31536e-05 -0.00178555 1.00001 
-1.51203e-05 -0.00175053 1.00001 
-6.727e-05 -0.00168961 1.00001 
-0.000125323 -0.00158505 1.00001 
-0.000179509 -0.00144793 1.00001 
-0.000232533 -0.00124064 1.00001 
-0.000276472 -0.000964216 1.00001 
-0.000304711 -0.000579758 1.00001 
-0.00030987 -5.49334e-05 1.00001 
-0.00027745 0.000695508 1.00001 
-0.000187873 0.00179406 1.00001 
-2.39856e-05 0.00331625 1 
0.000255294 0.00537255 0.999993 
0.000691576 0.00794949 0.999976 
0.00138141 0.0112192 0.999944 
0.0025543 0.0155816 0.999884 
0.00452902 0.021068 0.999776 
0.00714301 0.0281544 0.999587 
0.0119132 0.0379141 0.999219 
0.0212888 0.0475631 0.99865 
0.0383004 0.060664 0.997431 
0.0596386 0.074709 0.995427 
0.0815692 0.0634131 0.994655 
0.101787 0.107649 0.98897 
0.130648 0.0853546 0.987755 
0.220914 0.238549 0.945667 
0.163014 0.321543 0.932753 
0.152659 0.692468 0.705147 
-0.0493711 0.991177 -0.123041 
-0.0718034 0.635093 -0.769126 
-0.192764 0.345885 -0.918269 
-0.230225 0.195693 -0.953262 
-0.152723 0.134956 -0.979016 
-0.1007 0.103748 -0.989498 
-0.0700879 0.067235 -0.995279 
-0.0463829 0.0670622 -0.996681 
-0.0283767 0.0566605 -0.997996 
-0.0161093 0.0495368 -0.998652 
-0.00929312 0.0379359 -0.999246 
-0.00523485 0.0290138 -0.999575 
-0.00284309 0.0209297 -0.999783 
-0.00185191 0.0148552 -0.999899 
-0.000830527 0.0109986 -0.999947 
-0.000328676 0.00785671 -0.999977 
-1.75268e-05 0.00522473 -0.999994 
0.000130359 0.00320847 -1 
0.000249134 0.0018033 -1.00001 
0.000302548 0.000795417 -1.00001 
0.000322783 6.87706e-05 -1.00001 
0.000308396 -0.000471552 -1.00001 
0.000284713 -0.000863415 -1.00001 
0.000238549 -0.00116498 -1.00001 
0.000185013 -0.00139277 -1.00001 
0.000121301 -0.00155025 -1.00001 
5.59693e-05 -0.00167009 -1.00001 
-3.58814e-06 -0.00174623 -1.00001 
-4.99766e-05 -0.00178396 -1.00001 
-7.85183e-05 -0.00179232 -1.00001 
-8.5948e-05 -0.00176975 -1.00001 
-7.68324e-05 -0.00173198 -1.00001 
-5.88269e-05 -0.00168272 -1.00001 
-3.30732e-05 -0.00162985 -1.00001 
-1.67397e-05 -0.00157865 -1.00001 
8.76322e-06 -0.00152909 -1.00001 
1.23371e-05 -0.0014855 -1.00001 
2.79711e-05 -0.00144641 -1.00001 
3.09915e-05 -0.00140999 -1.00001 
4.84741e-05 -0.00138156 -1 
-0.000114909 -0.00139718 1 
-8.39989e-05 -0.00140877 1.00001 
-5.46315e-05 -0.00142162 1.00001 
-4.70133e-05 -0.00146881 1.00001 
-2.25085e-05 -0.00152265 1.00001 
-1.6808e-05 -0.0015676 1.00001 
1.21317e-05 -0.00161461 1 
3.74177e-05 -0.00165742 1.00001 
6.12572e-05 -0.00170614 1 
6.82097e-05 -0.00173159 1.00001 
6.17475e-05 -0.00174705 1.00001 
3.46016e-05 -0.00174744 1.00001 
-6.57768e-06 -0.00172193 1.00001 
-5.69677e-05 -0.00166498 1.00001 
-0.000105932 -0.00158247 1.00001 
-0.000152889 -0.00145374 1.00001 
-0.000191171 -0.00129019 1.00001 
-0.000219099 -0.00105767 1.00001 
-0.00023158 -0.00074865 1.00001 
-0.000217688 -0.000325201 1.00001 
-0.00016969 0.000254732 1.00001 
-6.26665e-05 0.00109897 1.00001 
0.000146844 0.00230073 1.00001 
0.000498873 0.0039367 0.999998 
0.00106207 0.00603328 0.999989 
0.00187985 0.00863096 0.999969 
0.00307125 0.0119272 0.999932 
0.00496593 0.0158896 0.99987 
0.00791334 0.0206577 0.999764 
0.0119286 0.0268846 0.999577 
0.018654 0.0332622 0.999282 
0.0313856 0.0413262 0.998662 
0.0513088 0.0447627 0.997691 
0.0684861 0.0308594 0.997183 
0.108757 0.0422057 0.99318 
0.17965 0.0581984 0.98201 
0.193126 0.130151 0.972507 
0.233041 0.383052 0.893837 
0.258229 0.542892 0.799103 
-0.00334902 0.991418 0.130456 
-0.142989 0.677329 -0.721635 
-0.2727 0.345802 -0.897795 
-0.214944 0.109253 -0.9705 
-0.152013 0.0743496 -0.985584 
-0.106937 0.0664356 -0.992049 
-0.0713153 0.0403686 -0.996645 
-0.0478544 0.0438792 -0.997899 
-0.0318702 0.0423237 -0.998604 
-0.0194674 0.0380401 -0.999097 
-0.0122692 0.0308661 -0.999457 
-0.00770227 0.0240345 -0.999689 
-0.00482244 0.0190641 -0.999815 
-0.00362253 0.0141188 -0.9999 
-0.00207105 0.0105945 -0.99995 
-0.00117095 0.0076757 -0.999978 
-0.000580724 0.00526348 -0.999993 
-0.000240986 0.00332285 -1 
-3.1744e-06 0.00184926 -1.00001 
0.000130772 0.000867364 -1.00001 
0.000204719 0.000159153 -1.00001 
0.000234399 -0.000354226 -1.00001 
0.000236193 -0.000763451 -1.00001 
0.000217903 -0.00105596 -1.00001 
0.000179331 -0.00129724 -1.00001 
0.000129541 -0.00146367 -1.00001 
7.15827e-05 -0.00159439 -1.00001 
1.5634e-05 -0.00168164 -1.00001 
-3.17364e-05 -0.00173225 -1.00001 
-6.384e-05 -0.00175213 -1.00001 
-7.37444e-05 -0.00174231 -1.00001 
-6.44822e-05 -0.00171419 -1.00001 
-4.54871e-05 -0.00167713 -1.00001 
-1.75216e-05 -0.00162442 -1.00001 
6.58938e-06 -0.00157501 -1.00001 
3.01792e-05 -0.00153003 -1.00001 
3.51895e-05 -0.00148635 -1.00001 
4.73455e-05 -0.00145037 -1.00001 
5.08925e-05 -0.00141871 -1.00001 
6.91265e-05 -0.0013988 -1 
-0.000113029 -0.00143238 1 
-8.64774e-05 -0.00143462 1.00001 
-6.85102e-05 -0.00144359 1.00001 
-6.17202e-05 -0.00148451 1.00001 
-4.37452e-05 -0.00151818 1.00001 
-2.94097e-05 -0.001572 1.00001 
1.50659e-06 -0.00161568 1.00001 
2.63209e-05 -0.0016563 1 
4.99799e-05 -0.00168812 1.00001 
5.32715e-05 -0.0016979 1.00001 
4.67733e-05 -0.00171907 1.00001 
1.77482e-05 -0.0017055 1 
-2.48229e-05 -0.00167508 1.00001 
-7.27739e-05 -0.00161374 1.00001 
-0.000117104 -0.001534 1 
-0.000152897 -0.00140702 1.00001 
-0.000179446 -0.00125115 1 
-0.000191362 -0.00103419 1.00001 
-0.000185114 -0.000747618 1.00001 
-0.000150536 -0.000366108 1.00001 
-7.55613e-05 0.000186387 1.00001 
6.91705e-05 0.000962408 1.00001 
0.000329838 0.00203402 1 
0.000771793 0.00350495 1 
0.00148425 0.00539743 0.999993 
0.00253908 0.00778 0.999973 
0.00400896 0.0105818 0.999944 
0.00615487 0.0136773 0.999896 
0.00914479 0.0165747 0.99983 
0.0132683 0.0206712 0.999708 
0.0207566 0.0256945 0.999464 
0.0323284 0.0283381 0.999085 
0.04406 0.0226645 0.99878 
0.0689301 0.00713091 0.997606 
0.105917 0.00410149 0.994373 
0.164693 0.0111362 0.986286 
0.280639 0.187911 0.94123 
0.376293 0.33655 0.863251 
0.25776 0.773947 0.57841 
-0.0435518 0.998927 0.0148558 
-0.262904 0.774017 -0.576036 
-0.393514 0.333242 -0.856818 
-0.198353 0.045258 -0.979085 
-0.138351 0.0141458 -0.990286 
-0.104754 0.0285933 -0.994094 
-0.0721348 0.0130363 -0.997316 
-0.0486901 0.0231587 -0.998557 
-0.033263 0.0276985 -0.999073 
-0.0223272 0.0287165 -0.999347 
-0.0143264 0.0242921 -0.999612 
-0.00940634 0.0195873 -0.999773 
-0.00621035 0.0156363 -0.99987 
-0.00384731 0.0112358 -0.999939 
-0.0023843 0.00843198 -0.999969 
-0.00138494 0.00601531 -0.999989 
-0.000758929 0.00403111 -0.999999 
-0.000338286 0.00242847 -1 
-9.1852e-05 0.00127145 -1.00001 
6.19257e-05 0.000474703 -1.00001 
0.000143563 -9.46375e-05 -1.00001 
0.000190003 -0.000529404 -1 
0.000199568 -0.000857322 -1.00001 
0.000189261 -0.0011179 -1.00001 
0.000157551 -0.00131071 -1.00001 
0.00011137 -0.00146853 -1.00001 
5.89539e-05 -0.00158084 -1.00001 
8.3626e-06 -0.00165671 -1.00001 
-3.40071e-05 -0.0017024 -1.00001 
-5.74157e-05 -0.00171673 -1.00001 
-6.20387e-05 -0.00171045 -1.00001 
-4.83122e-05 -0.00168916 -1.00001 
-2.70923e-05 -0.00166407 -1.00001 
-8.04858e-08 -0.00162556 -1.00001 
1.8241e-05 -0.00158582 -1.00001 
4.01438e-05 -0.00154153 -1.00001 
4.93217e-05 -0.00148845 -1.00001 