# vtk DataFile Version 3.0 
Exported using Morpho https://github.com/Morpho-lang/morpho 
ASCII 
DATASET UNSTRUCTURED_GRID 

POINTS 1978 float 
-8.48528 -2.82843 4.44162e-14 
-8.26687 -2.82843 4.43639e-15 
-8.04546 -2.82843 -6.91018e-15 
-7.78553 -2.82843 -3.44141e-14 
-7.49314 -2.82843 -2.51736e-14 
-7.24522 -2.82843 -1.9549e-15 
-6.99835 -2.82843 6.4628e-15 
-6.78254 -2.82843 1.23749e-15 
-6.56337 -2.82843 -5.7031e-15 
-6.36193 -2.82843 3.55035e-14 
-6.14157 -2.82843 1.19474e-14 
-5.93289 -2.82843 2.86296e-14 
-5.72252 -2.82843 2.97175e-14 
-5.52827 -2.82843 3.1442e-14 
-5.29769 -2.82843 5.04e-14 
-5.08859 -2.82843 6.46523e-14 
-4.87354 -2.82843 7.56131e-14 
-4.66508 -2.82843 9.20861e-14 
-4.45393 -2.82843 9.60149e-14 
-4.24262 -2.82843 8.20029e-14 
-4.04181 -2.82843 1.25082e-13 
-3.83883 -2.82843 1.75966e-13 
-3.63574 -2.82843 3.28937e-13 
-3.42686 -2.82843 5.46086e-13 
-3.21225 -2.82843 8.69981e-13 
-2.99405 -2.82843 1.30502e-12 
-2.78569 -2.82843 2.18356e-12 
-2.56789 -2.82843 1.08841e-13 
-2.32357 -2.82843 -1.87394e-11 
-2.06444 -2.82843 -6.62823e-11 
-1.85661 -2.82843 -1.10777e-10 
-1.66785 -2.82843 -3.02944e-10 
-1.44506 -2.82843 -1.74706e-09 
-1.26009 -2.82843 -4.74355e-09 
-1.09234 -2.82843 -6.33366e-09 
-0.943915 -2.82843 -1.52628e-08 
-0.799143 -2.82843 -5.65913e-08 
-0.667903 -2.82843 -5.76129e-07 
-0.307203 -2.82843 -7.50475e-07 
0.134264 -2.82833 1.58449e-06 
0.368647 -2.82843 2.15703e-06 
0.712058 -2.82843 4.72306e-07 
0.846803 -2.82843 4.74478e-08 
0.994514 -2.82843 1.62413e-08 
1.14665 -2.82843 4.38815e-09 
1.29805 -2.82843 4.50374e-10 
1.46317 -2.82843 2.01924e-09 
1.66029 -2.82843 7.51423e-10 
1.88876 -2.82843 2.39485e-10 
2.13021 -2.82843 5.58534e-11 
2.37419 -2.82843 4.71204e-12 
2.59529 -2.82843 -4.14186e-12 
2.80124 -2.82843 -2.70007e-12 
3.02058 -2.82843 -2.30141e-12 
3.23702 -2.82843 -6.49851e-13 
3.42868 -2.82843 -6.48962e-13 
3.62614 -2.82843 -6.55557e-13 
3.82587 -2.82843 -3.30039e-13 
4.03182 -2.82843 -1.18259e-13 
4.24819 -2.82843 -7.56843e-14 
4.45339 -2.82843 -9.51131e-14 
4.66129 -2.82843 -9.37219e-14 
4.86299 -2.82843 -9.65397e-14 
5.07779 -2.82843 -8.0404e-14 
5.28387 -2.82843 -5.99754e-14 
5.50398 -2.82843 -3.75199e-14 
5.71939 -2.82843 -2.75877e-14 
5.938 -2.82843 -2.40171e-14 
6.16647 -2.82843 -1.52506e-14 
6.38425 -2.82843 -1.5151e-14 
6.60484 -2.82843 -8.19298e-15 
6.82606 -2.82843 -6.50983e-15 
7.0342 -2.82843 -5.08012e-15 
7.29878 -2.82843 4.7304e-15 
7.53417 -2.82843 1.3673e-14 
7.75778 -2.82843 1.77639e-14 
8.04061 -2.82843 1.72493e-14 
8.23198 -2.82843 -8.93028e-15 
8.48528 -2.82843 -9.12349e-15 
-8.48528 -2.58896 -8.43363e-14 
-8.25965 -2.58099 1.8458e-16 
-8.03001 -2.58353 -1.7162e-17 
-7.79475 -2.62194 -1.71733e-17 
-7.53588 -2.6485 -5.26621e-17 
-7.22941 -2.61405 1.30507e-16 
-6.98445 -2.59183 -1.00546e-16 
-6.75334 -2.6034 -2.12803e-16 
-6.5336 -2.58021 -6.30593e-17 
-6.30254 -2.60174 -1.95215e-16 
-6.07464 -2.58721 -5.75847e-17 
-5.8566 -2.58667 -1.05718e-16 
-5.65004 -2.5649 -1.2141e-16 
-5.42939 -2.60841 -2.1393e-16 
-5.20767 -2.58813 -3.84897e-16 
-4.98985 -2.59728 -7.21949e-16 
-4.77325 -2.59303 -1.24996e-15 
-4.55905 -2.59884 -1.94375e-15 
-4.34295 -2.60101 -2.41175e-15 
-4.13157 -2.58998 -1.48387e-15 
-3.92473 -2.59232 4.3492e-15 
-3.71664 -2.591 2.79136e-14 
-3.50566 -2.59527 1.08075e-13 
-3.28829 -2.59896 3.41327e-13 
-3.06527 -2.5995 9.47138e-13 
-2.84212 -2.58523 2.37943e-12 
-2.62463 -2.5935 5.74837e-12 
-2.39147 -2.61637 1.47219e-11 
-2.12832 -2.62484 4.47244e-11 
-1.86772 -2.57298 1.38929e-10 
-1.66783 -2.55341 5.36147e-10 
-1.48583 -2.63119 7.91947e-10 
-1.26041 -2.59793 2.67933e-09 
-1.08719 -2.59313 6.4872e-09 
-0.932087 -2.60779 1.46907e-08 
-0.825257 -2.41889 2.36441e-09 
-0.785664 -2.61439 3.73005e-08 
-0.557889 -2.76617 9.80543e-08 
-0.201403 -2.75241 -5.28155e-08 
-0.0106535 -2.78474 6.52058e-07 
0.319243 -2.73388 -2.01446e-08 
0.60327 -2.76328 -8.25781e-08 
0.768445 -2.63701 -5.43456e-08 
0.92261 -2.62829 -1.66723e-08 
1.09182 -2.60864 -8.62253e-09 
1.12373 -2.36621 -2.26064e-09 
1.26007 -2.5864 -3.36476e-09 
1.45287 -2.58574 -1.31718e-09 
1.69163 -2.62041 -4.1499e-10 
1.9661 -2.61983 -1.26598e-10 
2.22974 -2.62122 -3.77039e-11 
2.48036 -2.60075 -1.47302e-11 
2.7162 -2.57749 -5.80592e-12 
2.94148 -2.60182 -1.95242e-12 
3.17487 -2.60517 -6.62754e-13 
3.40196 -2.57585 -3.6601e-13 
3.61016 -2.58774 -8.95036e-14 
3.82539 -2.59381 -2.27581e-14 
4.04823 -2.60425 -1.33128e-15 
4.26218 -2.59304 2.13926e-15 
4.47569 -2.59544 2.62744e-15 
4.68393 -2.58604 2.00095e-15 
4.89987 -2.59877 1.29427e-15 
5.11136 -2.58668 6.07281e-16 
5.3321 -2.60056 3.34088e-16 
5.55215 -2.59309 1.83038e-16 
5.77441 -2.59401 1.20839e-16 
6.00454 -2.60201 7.85656e-17 
6.22978 -2.58874 -1.21005e-15 
6.45398 -2.59085 6.05317e-16 
6.67981 -2.58996 -1.19428e-15 
6.8937 -2.57301 1.41765e-16 
7.13343 -2.62405 1.07494e-16 
7.3852 -2.59935 7.15048e-17 
7.61181 -2.58742 5.90537e-17 
7.86895 -2.63724 2.07828e-17 
8.07459 -2.54503 1.44478e-15 
8.2994 -2.61273 -6.88077e-17 
8.48528 -2.5331 3.67309e-14 
-8.48528 -2.34858 -3.56594e-14 
-8.24732 -2.34507 -2.26808e-16 
-8.01864 -2.33893 1.03597e-15 
-7.7795 -2.40398 -3.21222e-17 
-7.57429 -2.26731 4.09632e-16 
-7.47958 -2.46994 -7.83567e-17 
-7.20164 -2.40353 -9.90889e-17 
-6.98385 -2.34316 -1.15566e-16 
-6.75823 -2.37235 -1.45691e-16 
-6.51001 -2.35864 -1.06711e-16 
-6.27033 -2.37652 -7.68555e-17 
-6.04153 -2.34875 1.1086e-15 
-5.82823 -2.33421 1.95052e-18 
-5.58718 -2.34664 -1.77489e-17 
-5.37128 -2.37236 1.11725e-16 
-5.14083 -2.36071 -2.41686e-16 
-4.92025 -2.36701 -5.39098e-16 
-4.6981 -2.36568 -1.02897e-15 
-4.47904 -2.37462 -1.52367e-15 
-4.26395 -2.36841 -1.45372e-15 
-4.04772 -2.35737 -6.56469e-16 
-3.83708 -2.35818 1.09251e-14 
-3.6223 -2.36049 4.85242e-14 
-3.40376 -2.36871 1.7346e-13 
-3.1799 -2.37344 5.4094e-13 
-2.95463 -2.36429 1.44054e-12 
-2.72385 -2.35038 3.49738e-12 
-2.49492 -2.37827 9.50899e-12 
-2.25249 -2.41411 2.90787e-11 
-2.00239 -2.39486 7.31286e-11 
-1.75784 -2.31351 1.54851e-10 
-1.53345 -2.31276 1.35492e-10 
-1.37743 -2.42244 1.10732e-09 
-1.15621 -2.36953 1.57253e-09 
-0.974785 -2.3747 2.6164e-09 
-0.701671 -2.29905 -1.59017e-09 
-0.647453 -2.63961 4.78432e-08 
-0.442582 -2.71699 9.11742e-08 
-0.296107 -2.68039 3.58924e-07 
-0.128483 -2.67528 5.05204e-07 
0.284753 -2.60837 -2.5466e-07 
0.467799 -2.69719 -2.00165e-07 
0.60399 -2.45696 -6.49148e-08 
0.78276 -2.45501 1.14167e-08 
0.959359 -2.43648 -3.85374e-09 
1.02768 -2.18364 -6.00858e-10 
1.3048 -2.34956 -1.56042e-09 
1.50815 -2.34868 -7.70422e-10 
1.71022 -2.42546 -2.26879e-10 
1.96077 -2.40447 -1.13148e-10 
2.21321 -2.41084 -4.49806e-11 
2.46191 -2.38137 -1.20458e-11 
2.70308 -2.34771 -4.02192e-12 
2.93692 -2.36665 -2.01947e-12 
3.16002 -2.38259 -8.76765e-13 
3.38186 -2.34659 -1.8332e-13 
3.60455 -2.3482 -9.00763e-14 
3.81662 -2.36627 -1.89055e-14 
4.03205 -2.37841 -6.40837e-15 
4.24549 -2.36132 -1.07834e-16 
4.45589 -2.36203 1.18667e-15 
4.66259 -2.34962 1.11286e-15 
4.87328 -2.36508 6.9278e-16 
5.08305 -2.35114 3.7624e-16 
5.29853 -2.36839 -9.67985e-16 
5.51449 -2.36132 4.45052e-17 
5.73449 -2.36119 1.64234e-17 
5.95878 -2.37308 1.05327e-15 
6.1835 -2.35755 -7.76338e-16 
6.41112 -2.35426 8.28111e-17 
6.63489 -2.35529 1.05292e-16 
6.85644 -2.32419 1.09016e-16 
7.07844 -2.38495 1.07176e-16 
7.30776 -2.39423 9.39027e-17 
7.55584 -2.3473 3.48071e-16 
7.79156 -2.40963 4.31373e-17 
8.00099 -2.31823 -9.9657e-16 
8.2481 -2.3507 3.31404e-16 
8.48528 -2.30436 2.72684e-14 
-8.48528 -2.0951 -6.49314e-15 
-8.27325 -2.10727 7.77225e-19 
-8.05243 -2.08537 6.87589e-18 
-7.81844 -2.16426 -6.13898e-16 
-7.55001 -2.05601 -1.95564e-17 
-7.31969 -2.2377 -6.45844e-17 
-7.08547 -2.11811 -1.36803e-17 
-6.83404 -2.12815 -1.45826e-17 
-6.61289 -2.14743 -1.96396e-17 
-6.36074 -2.1475 7.29451e-17 
-6.14214 -2.12627 5.98257e-16 
-5.9236 -2.09169 -2.16787e-16 
-5.69721 -2.12319 1.76648e-16 
-5.46912 -2.12011 1.09716e-15 
-5.25796 -2.14248 3.44054e-17 
-5.03252 -2.13466 1.16147e-15 
-4.81578 -2.14039 -1.9767e-16 
-4.59624 -2.14303 -4.27313e-16 
-4.38572 -2.14317 -6.71908e-16 
-4.17363 -2.13674 -8.11009e-16 
-3.96078 -2.12402 -7.20179e-16 
-3.75005 -2.12796 1.39192e-15 
-3.53397 -2.13434 1.19151e-14 
-3.31533 -2.14307 5.08911e-14 
-3.0941 -2.14183 1.47541e-13 
-2.86671 -2.13234 3.48983e-13 
-2.62729 -2.12841 9.97774e-13 
-2.39008 -2.1702 4.07979e-12 
-2.15269 -2.1895 1.0518e-11 
-1.91014 -2.14679 1.358e-11 
-1.6423 -2.08234 1.38036e-11 
-1.42083 -2.06371 -1.77479e-11 
-1.2777 -2.20226 -1.66202e-11 
-1.15052 -2.00822 5.54647e-11 
-1.03551 -2.16461 -4.09624e-10 
-0.851753 -2.17904 9.41618e-10 
-0.652717 -2.47028 1.51546e-08 
-0.479812 -2.58918 2.13191e-07 
-0.313015 -2.57049 3.41828e-07 
0.159388 -2.70843 -4.90648e-07 
0.615626 -2.61 2.22654e-08 
0.462514 -2.34133 1.41141e-09 
0.658266 -2.30585 -2.44456e-08 
0.855965 -2.28061 -3.05343e-09 
0.873232 -2.05626 3.3872e-09 
1.071 -1.95992 1.2571e-09 
1.23129 -2.11753 7.23014e-10 
1.43884 -2.11666 2.61019e-10 
1.6887 -2.17852 -6.19588e-11 
1.91893 -2.19846 -3.36789e-11 
2.19092 -2.19346 -1.15466e-11 
2.44715 -2.16403 -5.09109e-12 
2.69504 -2.12347 -4.78333e-13 
2.93559 -2.13759 -3.02181e-13 
3.167 -2.14956 -1.16703e-13 
3.39977 -2.12123 -1.67357e-14 
3.62296 -2.12079 3.68917e-15 
3.84165 -2.14131 -4.54965e-15 
4.0539 -2.14635 1.93153e-15 
4.26929 -2.13089 1.16137e-15 
4.47557 -2.12426 8.024e-16 
4.69252 -2.12123 -8.09584e-16 
4.89981 -2.1268 2.15185e-16 
5.12051 -2.1237 2.59373e-17 
5.33282 -2.13308 -1.68131e-17 
5.55245 -2.12931 -5.51076e-16 
5.77827 -2.13418 5.70345e-16 
5.99894 -2.13834 4.66303e-16 
6.22927 -2.12699 3.69577e-16 
6.4543 -2.11871 -2.07084e-16 
6.67258 -2.11159 1.3002e-15 
6.91072 -2.09542 -5.41582e-17 
7.12746 -2.15358 1.44676e-16 
7.36144 -2.16858 5.67745e-18 
7.56244 -2.07714 -1.80829e-17 
7.76021 -2.16911 1.14009e-15 
7.98143 -2.08202 9.34856e-18 
8.21295 -2.12843 2.1995e-16 
8.48528 -2.10503 7.48156e-15 
-8.48528 -1.81489 3.76106e-15 
-8.29196 -1.85596 -6.03605e-17 
-7.88565 -1.91337 4.97559e-19 
[...]
POINT_DATA 1978 
VECTORS vectors float
1.62826e-05 -0.00144444 0.999999 
-2.69681e-06 -0.0015031 0.999999 
1.64372e-06 -0.00146177 0.999999 
3.24927e-06 -0.00148116 0.999999 
5.27794e-06 -0.00155566 0.999999 
6.08366e-06 -0.00166113 0.999999 
6.19292e-06 -0.00177127 0.999998 
7.03856e-06 -0.00187531 0.999998 
6.03871e-06 -0.00197687 0.999998 
5.34114e-06 -0.00205162 0.999998 
3.83284e-06 -0.00211293 0.999998 
2.36376e-06 -0.00215111 0.999998 
4.52813e-07 -0.00216838 0.999998 
-2.32633e-06 -0.00216056 0.999998 
-4.46972e-06 -0.00212734 0.999998 
-8.9581e-06 -0.00206298 0.999998 
-1.39664e-05 -0.00193761 0.999998 
-2.09443e-05 -0.00173242 0.999999 
-2.881e-05 -0.00141223 0.999999 
-3.80635e-05 -0.000960469 1 
-5.02476e-05 -0.000371397 1 
-6.68673e-05 0.000454426 1 
-9.15656e-05 0.00163332 0.999999 
-0.000123824 0.00335869 0.999994 
-0.000167187 0.00581928 0.999983 
-0.000223962 0.00924137 0.999957 
-0.000299014 0.0136752 0.999906 
-0.000382759 0.0198655 0.999803 
-0.000500036 0.0292946 0.999571 
-0.00068418 0.0435402 0.999051 
-0.00100355 0.0610797 0.998132 
-0.00123528 0.082111 0.996622 
-0.00166019 0.116159 0.993228 
-0.00262755 0.16085 0.986974 
-0.00345476 0.210695 0.977545 
-0.00433697 0.271375 0.962462 
-0.0065335 0.349429 0.936937 
-0.0108304 0.435433 0.900145 
-0.0103703 0.801299 0.598184 
-0.00508384 0.978043 -0.208356 
0.00918812 0.749234 -0.662218 
0.0076776 0.424685 -0.905296 
0.00660929 0.336005 -0.941834 
0.00416331 0.263101 -0.964757 
0.00326282 0.205972 -0.978551 
0.00262056 0.159829 -0.987141 
0.00209379 0.122967 -0.992408 
0.00133871 0.0893892 -0.995995 
0.000971634 0.0608405 -0.998147 
0.000708195 0.0415221 -0.999137 
0.000532592 0.0279876 -0.999608 
0.000385585 0.0196828 -0.999806 
0.000288152 0.014051 -0.999901 
0.000222562 0.00960883 -0.999954 
0.000184554 0.00617686 -0.999981 
0.000133198 0.00388267 -0.999992 
0.000105333 0.00209346 -0.999998 
7.1978e-05 0.000839079 -1 
5.13219e-05 -5.53905e-05 -1 
4.09662e-05 -0.000723543 -1 
3.33901e-05 -0.00122456 -0.999999 
2.57071e-05 -0.00161867 -0.999999 
1.73379e-05 -0.0018863 -0.999998 
1.07831e-05 -0.00205282 -0.999998 
5.16277e-06 -0.0021282 -0.999998 
2.01095e-06 -0.00215234 -0.999998 
-4.2228e-07 -0.00215328 -0.999998 
-2.3661e-06 -0.00213513 -0.999998 
-3.88281e-06 -0.00209578 -0.999998 
-5.10309e-06 -0.00203761 -0.999998 
-5.99973e-06 -0.00195812 -0.999998 
-6.28442e-06 -0.00186444 -0.999998 
-6.23233e-06 -0.00176944 -0.999998 
-5.35324e-06 -0.00165122 -0.999999 
-4.23899e-06 -0.00156952 -0.999999 
-2.91452e-06 -0.00151331 -0.999999 
-1.7318e-06 -0.00148456 -0.999999 
8.85238e-07 -0.00149291 -0.999999 
-1.052e-05 -0.00139845 -0.999999 
0.000112153 -0.00125384 0.999999 
5.44873e-05 -0.00143943 0.999999 
3.80825e-05 -0.00144054 0.999999 
3.38223e-05 -0.00146878 0.999999 
3.91032e-05 -0.0015271 0.999999 
5.38612e-05 -0.00163154 0.999999 
6.75941e-05 -0.00172755 0.999999 
7.10489e-05 -0.00183983 0.999998 
7.54526e-05 -0.00191716 0.999998 
6.19567e-05 -0.00199527 0.999998 
4.72957e-05 -0.00203932 0.999998 
2.06379e-05 -0.00206162 0.999998 
-1.18635e-05 -0.00204825 0.999998 
-5.24008e-05 -0.00204152 0.999998 
-0.000110842 -0.00196669 0.999998 
-0.00017207 -0.00185877 0.999998 
-0.000250026 -0.00166872 0.999999 
-0.000327967 -0.00139041 0.999999 
-0.000418281 -0.00097414 0.999999 
-0.000541194 -0.000378299 1 
-0.000669976 0.000425324 1 
-0.000853806 0.00158069 0.999998 
-0.00109367 0.0032118 0.999994 
-0.00140951 0.00551843 0.999984 
-0.00178132 0.00874625 0.99996 
-0.00223111 0.0131908 0.999911 
-0.00253469 0.0188991 0.999818 
-0.00278038 0.0271049 0.999629 
-0.0031268 0.0403946 0.999179 
-0.0038953 0.0603987 0.998167 
-0.00394485 0.0836423 0.996488 
-0.00413894 0.111289 0.993779 
-0.00355386 0.160394 0.987047 
-0.00156159 0.216231 0.976341 
0.00089759 0.278626 0.960399 
0.0458871 0.300845 0.952568 
0.00709723 0.353915 0.935251 
-0.00960385 0.547599 0.836686 
-0.0113383 0.911359 0.411457 
-0.0153786 0.998099 0.0596804 
-0.0168414 0.805708 -0.592075 
0.00582923 0.530708 -0.847535 
-0.00697297 0.403283 -0.915049 
-0.000282635 0.309703 -0.950833 
0.00402193 0.232747 -0.972529 
-0.0158113 0.197457 -0.980184 
0.00526605 0.173491 -0.984821 
0.00516569 0.124727 -0.992178 
0.00448041 0.0826565 -0.996568 
0.00416997 0.0545769 -0.998501 
0.00367105 0.0364463 -0.999329 
0.0032485 0.0247674 -0.999688 
0.00280813 0.0172965 -0.999846 
0.00221911 0.0118521 -0.999927 
0.00172986 0.00773565 -0.999969 
0.00143701 0.00484644 -0.999987 
0.00108485 0.00279988 -0.999996 
0.000804028 0.00125418 -0.999999 
0.000609584 0.000180455 -1 
0.000502366 -0.000526188 -1 
0.000401936 -0.00106331 -0.999999 
0.000324394 -0.00144055 -0.999999 
0.000229616 -0.00173327 -0.999998 
0.000160413 -0.00189522 -0.999998 
8.74615e-05 -0.00200276 -0.999998 
3.34267e-05 -0.00204248 -0.999998 
-9.61265e-06 -0.00205569 -0.999998 
-4.01775e-05 -0.00204645 -0.999998 
-6.24268e-05 -0.00200544 -0.999998 
-7.13295e-05 -0.00194714 -0.999998 
-7.33019e-05 -0.00186979 -0.999998 
-7.29619e-05 -0.00178363 -0.999998 
-5.46055e-05 -0.00169493 -0.999999 
-5.00403e-05 -0.00159787 -0.999999 
-4.14753e-05 -0.00153035 -0.999999 
-2.8216e-05 -0.00148503 -0.999999 
-3.521e-05 -0.00145475 -0.999999 
-4.13426e-05 -0.00146142 -0.999999 
-8.59632e-05 -0.00122032 -0.999999 
0.000107156 -0.00115705 0.999999 
5.88403e-05 -0.00139578 0.999999 
4.44789e-05 -0.00142245 0.999999 
4.80095e-05 -0.0014589 0.999999 
5.66352e-05 -0.00150911 0.999999 
6.06121e-05 -0.00153678 0.999999 
8.19138e-05 -0.0016257 0.999999 
9.67289e-05 -0.00169858 0.999999 
0.000103543 -0.00178228 0.999998 
0.000105412 -0.00186645 0.999998 
9.09271e-05 -0.00193435 0.999998 
6.51528e-05 -0.00195856 0.999998 
2.65355e-05 -0.00195975 0.999998 
-3.31388e-05 -0.00193949 0.999998 
-9.6877e-05 -0.00189859 0.999998 
-0.000183942 -0.00178971 0.999998 
-0.000278692 -0.00163565 0.999999 
-0.000387323 -0.00139052 0.999999 
-0.000501137 -0.00104082 0.999999 
-0.000623644 -0.000526472 1 
-0.000763385 0.000221936 1 
-0.00093305 0.00124907 0.999999 
-0.00117069 0.00273254 0.999996 
-0.00150268 0.00479298 0.999987 
-0.00192073 0.00761729 0.999969 
-0.00231331 0.0114325 0.999932 
-0.00255847 0.0166403 0.999858 
-0.00285386 0.0235443 0.999719 
-0.00315415 0.0338979 0.99942 
-0.00275975 0.0492547 0.998782 
0.000308333 0.0696546 0.997571 
0.00492802 0.0965315 0.995318 
0.00338319 0.129055 0.991632 
0.0150468 0.176957 0.984103 
0.0312415 0.234138 0.971701 
0.094258 0.324728 0.941099 
0.0176449 0.443961 0.895873 
0.00981938 0.657434 0.753449 
0.0154764 0.821909 0.56941 
-0.00394985 0.963776 0.266681 
-0.0741638 0.821096 -0.565951 
-0.0142799 0.655294 -0.755239 
-0.0660096 0.450644 -0.89026 
-0.0384994 0.345243 -0.937723 
-0.0258833 0.259993 -0.965263 
-0.0496964 0.194892 -0.979565 
-0.00673423 0.148964 -0.98882 
-0.00216837 0.109362 -0.994 
0.00264512 0.0810882 -0.996703 
0.00375459 0.0551844 -0.998469 
0.0040513 0.0380362 -0.999268 
0.00368732 0.0263012 -0.999647 
0.00314929 0.0181358 -0.999831 
0.00276788 0.012623 -0.999917 
0.00225035 0.00856929 -0.999961 
0.00173541 0.00564328 -0.999983 
0.00133816 0.00335943 -0.999994 
0.00104917 0.00171465 -0.999998 
0.000834304 0.000555949 -1 
0.000688804 -0.000210034 -1 
0.000563223 -0.000783971 -1 
0.000454491 -0.00118506 -0.999999 
0.000342042 -0.00150101 -0.999999 
0.000241641 -0.00169438 -0.999999 
0.000142876 -0.00184057 -0.999998 
6.08381e-05 -0.0019138 -0.999998 
-6.83192e-06 -0.0019536 -0.999998 
-5.66238e-05 -0.00196758 -0.999998 
-8.92618e-05 -0.00194406 -0.999998 
-0.000104808 -0.00189904 -0.999998 
-0.000106588 -0.00183561 -0.999998 
-0.000101346 -0.00175378 -0.999998 
-8.82661e-05 -0.0016903 -0.999999 
-7.37714e-05 -0.00161013 -0.999999 
-5.76511e-05 -0.00153131 -0.999999 
-4.51114e-05 -0.00148416 -0.999999 
-3.85937e-05 -0.00144878 -0.999999 
-4.66406e-05 -0.00142275 -0.999999 
-7.24397e-05 -0.00120999 -0.999999 
4.39658e-05 -0.00109897 0.999999 
2.91436e-05 -0.00136343 0.999999 
2.01624e-05 -0.00140246 0.999999 
3.48165e-05 -0.0014452 0.999999 
3.8433e-05 -0.00150871 0.999999 
7.26273e-05 -0.00157762 0.999999 
7.84208e-05 -0.00163628 0.999999 
9.60085e-05 -0.00172216 0.999999 
0.000104997 -0.0017935 0.999998 
9.95582e-05 -0.00185662 0.999998 
7.90957e-05 -0.0018833 0.999998 
4.38037e-05 -0.00188098 0.999998 
-6.35222e-06 -0.00187099 0.999998 
-7.14557e-05 -0.00181336 0.999998 
-0.000142794 -0.00173593 0.999999 
-0.000229621 -0.00158932 0.999999 
-0.000322538 -0.0013854 0.999999 
-0.000421281 -0.00108079 0.999999 
-0.000515291 -0.000660939 1 
-0.000604846 -5.32933e-05 1 
-0.000689686 0.000823359 0.999999 
-0.000800206 0.00204418 0.999998 
-0.000947393 0.00378588 0.999992 
-0.00114602 0.00612882 0.999981 
-0.00131469 0.00919068 0.999957 
-0.00128886 0.0132401 0.999912 
-0.000981321 0.0188151 0.999823 
-0.000873641 0.0265534 0.999647 
-0.000160797 0.037389 0.999301 
0.00300033 0.0522063 0.998632 
0.0113398 0.0724723 0.997306 
0.0228134 0.0972181 0.995002 
0.023023 0.1311 0.991102 
0.050263 0.128607 0.990421 
0.0478716 0.174292 0.98353 
0.0791896 0.226878 0.970698 
0.0559952 0.438653 0.896911 
0.0487976 0.63787 0.768598 
0.0676235 0.799153 0.597313 
-0.0410481 0.955722 -0.291398 
-0.035239 0.517902 -0.854714 
-0.162666 0.498984 -0.851207 
-0.103146 0.371641 -0.922629 
-0.0689031 0.270821 -0.960161 
-0.0951507 0.206935 -0.973717 
-0.0616377 0.142668 -0.987849 
-0.0323576 0.139864 -0.989642 
-0.0186306 0.105872 -0.994205 
-0.00557241 0.0771807 -0.997002 
-0.00073407 0.0552692 -0.998471 
0.00126916 0.0373002 -0.999303 
0.00178722 0.0258487 -0.999664 
0.00169194 0.0180172 -0.999836 
0.00180792 0.0127213 -0.999917 
0.00160106 0.00876539 -0.99996 
0.00121569 0.00570463 -0.999983 
0.000995504 0.00344198 -0.999993 
0.000844599 0.00182385 -0.999998 
0.000715361 0.000706799 -1 
0.00059998 -8.84148e-05 -1 
0.000505809 -0.00063918 -1 
0.000410437 -0.00106318 -0.999999 
0.000319327 -0.00136077 -0.999999 
0.000222598 -0.00157922 -0.999999 
0.00013473 -0.00172566 -0.999999 
5.32787e-05 -0.0018172 -0.999998 
-1.54586e-05 -0.00187216 -0.999998 
-6.40816e-05 -0.0018914 -0.999998 
-9.46935e-05 -0.00187696 -0.999998 
-0.000105674 -0.00183769 -0.999998 
-0.000102561 -0.00178192 -0.999998 
-8.9542e-05 -0.00171187 -0.999999 
-7.76903e-05 -0.00164473 -0.999999 
-6.19564e-05 -0.00158209 -0.999999 
-3.91986e-05 -0.00152538 -0.999999 
-3.62122e-05 -0.00148389 -0.999999 
-2.07874e-05 -0.00144518 -0.999999 
-2.55186e-05 -0.00140723 -0.999999 
-3.8075e-05 -0.00117557 -0.999999 
-3.66221e-05 -0.00110088 0.999999 
-1.86193e-05 -0.00135122 0.999999 
2.98807e-06 -0.00143839 0.999999 
1.26005e-05 -0.00148045 0.999999 
1.51725e-05 -0.00153229 0.999999 
4.89026e-05 -0.00156696 0.999999 
4.57138e-05 -0.00160208 0.999999 
7.19714e-05 -0.00166703 0.999999 
8.67509e-05 -0.0017298 0.999999 
9.51816e-05 -0.00179065 0.999998 
8.44333e-05 -0.00181836 0.999998 
6.01994e-05 -0.00182681 0.999998 
1.5939e-05 -0.00181359 0.999998 
-3.61027e-05 -0.00177465 0.999998 
-9.81309e-05 -0.00169335 0.999999 
-0.000163596 -0.00158599 0.999999 
-0.000235047 -0.00140652 0.999999 
-0.000308737 -0.00116156 0.999999 
-0.000372415 -0.000816842 1 
-0.000426037 -0.000343661 1 
-0.000457776 0.000332091 1 
-0.000462253 0.00130795 0.999999 
-0.000458208 0.00267979 0.999996 
-0.000420128 0.00457514 0.999989 
-0.000339933 0.00704906 0.999975 
-0.00010632 0.0101993 0.999948 
0.000440338 0.0143741 0.999897 
0.00144718 0.0201632 0.999796 
0.00268499 0.0277095 0.999612 
0.00521891 0.0379756 0.999265 
0.0113411 0.0519592 0.998585 
0.023629 0.066467 0.997509 
0.0397459 0.0891995 0.99522 
0.0697124 0.10965 0.991523 
0.0910372 0.165019 0.98208 
0.144939 0.161542 0.976164 
0.136178 0.233849 0.962689 
0.134114 0.45156 0.882104 
0.108066 0.571847 0.813212 
0.0832676 0.924674 0.371544 
-0.133345 0.894505 -0.426714 
-0.265431 0.563712 -0.78216 
-0.129929 0.277343 -0.951945 
-0.163971 0.211485 -0.963529 
-0.102811 0.153235 -0.982827 
-0.0655309 0.100142 -0.992813 
-0.0410014 0.0984926 -0.994293 
-0.0268927 0.0771047 -0.99666 
-0.0140869 0.0687358 -0.997535 
-0.00676473 0.0494767 -0.998752 
-0.00266863 0.03595 -0.99935 
-0.000962538 0.0250516 -0.999686 
-0.000335179 0.0176585 -0.999844 
0.000338475 0.0128458 -0.999917 
0.000593406 0.00909141 -0.999959 
0.000564482 0.00618577 -0.999981 
0.000535897 0.00381253 -0.999993 
0.000541298 0.00218442 -0.999997 
0.000509923 0.00102171 -0.999999 
0.000467936 0.0001998 -1 
0.000410248 -0.000401685 -1 
0.000360486 -0.000839348 -1 
0.000291441 -0.00116868 -0.999999 
0.000222912 -0.00141253 -0.999999 
0.000144747 -0.00158712 -0.999999 
7.27079e-05 -0.00170501 -0.999999 
5.28962e-06 -0.00178471 -0.999998 
-4.74837e-05 -0.0018234 -0.999998 
-8.14335e-05 -0.00183107 -0.999998 
-9.61104e-05 -0.0018066 -0.999998 
-9.32094e-05 -0.00176242 -0.999998 
-8.00921e-05 -0.00170987 -0.999999 
-5.92911e-05 -0.00164123 -0.999999 
-4.51957e-05 -0.00158778 -0.999999 
-1.91347e-05 -0.00152978 -0.999999 
-9.44452e-06 -0.00147575 -0.999999 
5.01128e-06 -0.0014287 -0.999999 
4.14606e-07 -0.00139356 -0.999999 
1.37308e-05 -0.00116329 -0.999999 
-9.05541e-05 -0.0011491 0.999999 
-6.25559e-05 -0.00137382 0.999999 
-2.15751e-05 -0.00139641 0.999999 
-2.77687e-05 -0.00144167 0.999999 
-1.39531e-05 -0.00148921 0.999999 
9.30867e-06 -0.00156431 0.999999 
3.84661e-05 -0.00162471 0.999999 
6.14116e-05 -0.00167611 0.999999 
7.8223e-05 -0.00173294 0.999999 
7.99967e-05 -0.00176616 0.999998 
6.38213e-05 -0.00177737 0.999998 
3.18158e-05 -0.00177658 0.999998 
-1.57718e-05 -0.0017416 0.999999 
-6.74877e-05 -0.00168088 0.999999 
-0.000125046 -0.0015764 0.999999 
-0.000178999 -0.00143943 0.999999 
-0.000231887 -0.00123157 0.999999 
-0.000275339 -0.000954121 1 
-0.000303023 -0.000568225 1 
-0.00030799 -4.1032e-05 1 
-0.000275107 0.000712468 1 
-0.000185375 0.00181312 0.999998 
-2.36006e-05 0.00333117 0.999994 
0.000252619 0.00537326 0.999986 
0.000687674 0.00793681 0.999968 
0.00138082 0.0111988 0.999936 
0.00254846 0.0155595 0.999876 
0.00452256 0.0210705 0.999768 
0.00715162 0.0281841 0.999577 
0.0119281 0.037924 0.999209 
0.0213007 0.0475921 0.99864 
0.0384686 0.0608699 0.997404 
0.0599247 0.0744683 0.995421 
0.0813055 0.0635867 0.994659 
0.102228 0.10918 0.988751 
0.129838 0.08458 0.987921 
0.221476 0.242081 0.94464 
0.160017 0.319117 0.934109 
0.155589 0.691222 0.705693 
-0.0454932 0.99217 -0.116313 
-0.0720878 0.630489 -0.772843 
-0.19093 0.343715 -0.91946 
-0.230419 0.195485 -0.953254 
-0.152593 0.133892 -0.979177 
-0.100604 0.103581 -0.98952 
-0.0698138 0.0672514 -0.995291 
-0.0464247 0.0672111 -0.996658 
-0.0283306 0.0566325 -0.997993 
-0.0161233 0.0495042 -0.998644 
-0.00929642 0.0378698 -0.999239 
-0.0052303 0.0289811 -0.999566 
-0.00287244 0.0209108 -0.999777 
-0.00184189 0.0148404 -0.999888 
-0.000827659 0.0109778 -0.999939 
-0.000323568 0.0078478 -0.999969 
-1.6568e-05 0.00523238 -0.999986 
0.000132806 0.00322224 -0.999995 
0.000249271 0.00182132 -0.999998 
0.000301807 0.000810054 -1 
0.000321225 8.10894e-05 -1 
0.000306825 -0.000461861 -1 
0.000283178 -0.000854836 -1 
0.000237326 -0.00115629 -0.999999 
0.000184005 -0.00138386 -0.999999 
0.000120999 -0.0015414 -0.999999 
5.64915e-05 -0.00166102 -0.999999 
-2.27638e-06 -0.00173687 -0.999999 
-4.81242e-05 -0.00177464 -0.999998 
-7.65341e-05 -0.00178329 -0.999998 
-8.42115e-05 -0.00176139 -0.999998 
-7.56743e-05 -0.00172433 -0.999999 
-5.82885e-05 -0.00167585 -0.999999 
-3.32448e-05 -0.0016224 -0.999999 
-1.71004e-05 -0.00157332 -0.999999 
8.10713e-06 -0.00152313 -0.999999 
1.16404e-05 -0.00148007 -0.999999 
2.71982e-05 -0.00144123 -0.999999 
3.0402e-05 -0.0014017 -0.999999 
4.79977e-05 -0.00118856 -0.999999 
-0.000114324 -0.00119444 0.999999 
-8.36259e-05 -0.00140063 0.999999 
-5.37645e-05 -0.00141641 0.999999 
-4.58936e-05 -0.00146334 0.999999 
-2.15213e-05 -0.00151684 0.999999 
-1.5835e-05 -0.00156133 0.999999 
1.25686e-05 -0.0016082 0.999999 
3.72869e-05 -0.00165059 0.999999 
6.02536e-05 -0.00169873 0.999999 
6.64593e-05 -0.00172367 0.999999 
5.99202e-05 -0.00173887 0.999999 
3.32327e-05 -0.0017387 0.999999 
-7.27818e-06 -0.00171319 0.999999 
-5.69925e-05 -0.00165634 0.999999 
-0.000105465 -0.00157401 0.999999 
-0.000152028 -0.00144535 0.999999 
-0.000190251 -0.00128146 0.999999 
-0.000217986 -0.00104827 0.999999 
-0.000229999 -0.000737809 1 
-0.000215887 -0.00031234 1 
-0.000167367 0.000270716 1 
-5.95271e-05 0.00111839 0.999999 
0.000150677 0.00232028 0.999997 
0.000499766 0.00394686 0.999992 
0.00105705 0.00602919 0.999981 
0.00186996 0.00861642 0.999961 
0.00306127 0.011912 0.999924 
0.00495258 0.0158853 0.999862 
0.00790458 0.0206711 0.999755 
0.0119422 0.0269242 0.999566 
0.0186875 0.0332921 0.999271 
0.0314413 0.041456 0.998646 
0.0509778 0.0444796 0.997709 
0.0690389 0.0313373 0.997122 
0.108876 0.0419332 0.993171 
0.178722 0.0576344 0.98221 
0.192704 0.129294 0.972702 
0.233674 0.38298 0.893713 
0.257235 0.549969 0.794584 
-0.00763343 0.992363 0.123122 
-0.147748 0.679057 -0.719064 
-0.272289 0.347584 -0.897242 
-0.215452 0.108779 -0.970437 
-0.15145 0.0743049 -0.985668 
-0.106295 0.0661474 -0.992132 
-0.0714646 0.0404831 -0.996621 
-0.0478853 0.0437428 -0.997895 
-0.0320123 0.0424625 -0.998585 
-0.0195006 0.0380293 -0.999086 
-0.0122927 0.0308988 -0.999447 
-0.00770854 0.0240399 -0.999681 
-0.00484271 0.0190568 -0.999807 
-0.00360014 0.0141206 -0.999894 
-0.00206197 0.0105785 -0.999942 
-0.00116559 0.0076687 -0.99997 
-0.000578558 0.00526848 -0.999986 
-0.000239 0.00333543 -0.999994 
-4.302e-06 0.0018693 -0.999998 
0.000129517 0.000883742 -1 
0.000202885 0.000170416 -1 
0.000232882 -0.000344955 -1 
0.000234716 -0.000755204 -1 
0.00021638 -0.00104818 -0.999999 
0.000178073 -0.00128871 -0.999999 
0.000128764 -0.00145516 -0.999999 
7.14514e-05 -0.00158576 -0.999999 
1.61609e-05 -0.00167276 -0.999999 
-3.04443e-05 -0.00172325 -0.999999 
-6.20258e-05 -0.00174331 -0.999999 
-7.20257e-05 -0.00173396 -0.999999 
-6.33353e-05 -0.00170631 -0.999999 
-4.51795e-05 -0.00167015 -0.999999 
-1.79206e-05 -0.00161807 -0.999999 
5.51614e-06 -0.00156923 -0.999999 
2.89026e-05 -0.00152412 -0.999999 
3.42861e-05 -0.00148055 -0.999999 
4.64661e-05 -0.00144495 -0.999999 
5.02646e-05 -0.00141011 -0.999999 
6.86081e-05 -0.00118931 -0.999999 
-0.000112519 -0.00123283 0.999999 
-8.56507e-05 -0.0014265 0.999999 
-6.73854e-05 -0.00143823 0.999999 
-6.05211e-05 -0.00147861 0.999999 
-4.25967e-05 -0.00151192 0.999999 
-2.82999e-05 -0.0015655 0.999999 
1.89973e-06 -0.00160912 0.999999 
2.58348e-05 -0.0016493 0.999999 
4.85257e-05 -0.00168083 0.999999 
5.14021e-05 -0.00169045 0.999999 
4.48376e-05 -0.00171103 0.999999 
1.62059e-05 -0.00169726 0.999999 
-2.53794e-05 -0.00166652 0.999999 
-7.239e-05 -0.0016056 0.999999 
-0.000116187 -0.00152566 0.999999 
-0.000151787 -0.00139877 0.999999 
-0.000178276 -0.00124251 0.999999 
-0.000189999 -0.001025 0.999999 
-0.000183533 -0.000736994 1 
-0.000148609 -0.000352938 1 
-7.3211e-05 0.000201888 1 
7.25276e-05 0.000980075 1 
0.00033483 0.00205164 0.999998 
0.000774961 0.003517 0.999994 
0.00148017 0.00539522 0.999984 
0.00252507 0.00776584 0.999967 
0.00398863 0.0105659 0.999936 
0.00613375 0.0136617 0.999888 
0.00911078 0.016581 0.999821 
0.0132502 0.0206749 0.999698 
0.0207733 0.0257131 0.999454 
0.0323014 0.0283705 0.999075 
0.0442568 0.0227251 0.998762 
0.0686972 0.00719273 0.997612 
0.105777 0.00413452 0.994381 
0.164707 0.010746 0.986284 
0.279289 0.186089 0.942003 
0.377063 0.336455 0.862914 
0.2554 0.779347 0.57218 
-0.0400903 0.999125 0.0119734 
-0.262008 0.774695 -0.575499 
-0.392966 0.335292 -0.856246 
-0.199041 0.0459991 -0.978911 
-0.138473 0.0144754 -0.99026 
-0.104558 0.0283098 -0.994116 
-0.0719654 0.0132059 -0.99732 
-0.0486855 0.0232645 -0.998543 
-0.0331699 0.0276695 -0.999067 
-0.0223592 0.0287599 -0.999336 
-0.0143289 0.024279 -0.999603 
-0.00939773 0.0196154 -0.999763 
-0.00619541 0.0156092 -0.999859 
-0.00383353 0.0112407 -0.999929 
-0.00237575 0.00842381 -0.999962 
-0.0013823 0.00601737 -0.999981 
-0.000757823 0.00404478 -0.999992 
-0.00034043 0.00244838 -0.999997 
-9.35473e-05 0.00129063 -0.999999 