# vtk DataFile Version 3.0 
Exported using Morpho https://github.com/Morpho-lang/morpho 
ASCII 
DATASET UNSTRUCTURED_GRID 

POINTS 1978 float 
-8.48528 -2.82843 -4.31089e-22 
-8.26683 -2.82843 1.31448e-22 
-8.04553 -2.82843 -4.04793e-23 
-7.7855 -2.82843 -1.1539e-22 
-7.49318 -2.82843 -2.24408e-22 
-7.24525 -2.82843 -2.62846e-23 
-6.99863 -2.82843 3.43666e-23 
-6.78254 -2.82843 -3.91249e-24 
-6.56338 -2.82843 -5.0783e-23 
-6.3619 -2.82843 1.6084e-22 
-6.14155 -2.82843 5.37184e-23 
-5.93276 -2.82843 1.41094e-22 
-5.72254 -2.82843 1.50031e-22 
-5.52818 -2.82843 1.59121e-22 
-5.2977 -2.82843 2.42963e-22 
-5.08858 -2.82843 2.89335e-22 
-4.87355 -2.82843 2.88425e-22 
-4.66508 -2.82843 2.76802e-22 
-4.45394 -2.82843 1.90363e-22 
-4.24265 -2.82843 9.2352e-23 
-4.04181 -2.82843 5.1541e-22 
-3.83884 -2.82843 1.79726e-21 
-3.63573 -2.82843 6.44806e-21 
-3.42688 -2.82843 1.90818e-20 
-3.21226 -2.82843 6.10642e-20 
-2.99406 -2.82843 1.57437e-19 
-2.78573 -2.82843 2.45945e-19 
-2.56789 -2.82843 4.62383e-19 
-2.32358 -2.82843 5.04966e-18 
-2.06406 -2.82843 7.46065e-18 
-1.85726 -2.82843 1.14283e-17 
-1.668 -2.82843 -2.69092e-17 
-1.4443 -2.82843 1.55177e-16 
-1.26031 -2.82843 -6.98433e-17 
-1.09315 -2.82843 -8.68782e-18 
-0.943373 -2.82843 3.00808e-17 
-0.798912 -2.82843 -8.36322e-15 
-0.667027 -2.82843 -4.53777e-14 
-0.304353 -2.82843 -1.41269e-13 
0.133519 -2.82843 -7.98176e-14 
0.369321 -2.82843 1.03939e-13 
0.710449 -2.82843 2.21289e-15 
0.847622 -2.82843 -9.49386e-16 
0.994676 -2.82843 7.86645e-16 
1.14623 -2.82843 8.96499e-16 
1.29763 -2.82843 -2.18047e-15 
1.46363 -2.82843 1.48885e-15 
1.66134 -2.82843 8.50551e-17 
1.88823 -2.82843 1.20505e-16 
2.13032 -2.82843 -1.55338e-18 
2.37392 -2.82843 -1.42574e-18 
2.59567 -2.82843 -5.75867e-19 
2.80114 -2.82843 -3.49078e-19 
3.02051 -2.82843 -1.68113e-19 
3.237 -2.82843 -7.14786e-20 
3.42863 -2.82843 -3.91708e-20 
3.62625 -2.82843 1.01984e-21 
3.82576 -2.82843 3.50886e-20 
4.03231 -2.82843 -3.46252e-20 
4.24803 -2.82843 -1.62078e-22 
4.45341 -2.82843 2.40076e-22 
4.66128 -2.82843 -1.94393e-22 
4.86304 -2.82843 -3.85509e-22 
5.07778 -2.82843 -3.33695e-22 
5.28388 -2.82843 -2.81417e-22 
5.50397 -2.82843 -1.8942e-22 
5.71939 -2.82843 -1.4152e-22 
5.93801 -2.82843 -1.20082e-22 
6.16647 -2.82843 -7.03337e-23 
6.38422 -2.82843 -6.36133e-23 
6.60487 -2.82843 -2.46111e-23 
6.82605 -2.82843 -1.51259e-23 
7.03428 -2.82843 -8.3195e-24 
7.2987 -2.82843 3.57593e-23 
7.53422 -2.82843 7.42219e-23 
7.75778 -2.82843 9.10639e-23 
8.0406 -2.82843 8.58058e-23 
8.23198 -2.82843 -8.10803e-23 
8.48528 -2.82843 -1.33856e-21 
-8.48528 -2.58899 3.56664e-21 
-8.26379 -2.58143 -3.17771e-21 
-8.02744 -2.59779 3.33503e-24 
-7.75849 -2.61865 -7.48392e-23 
-7.49371 -2.63971 7.12056e-23 
-7.22909 -2.62349 3.08503e-23 
-6.9835 -2.59537 2.06586e-23 
-6.75352 -2.60129 1.2823e-23 
-6.53369 -2.57998 7.92929e-24 
-6.30317 -2.60195 6.05825e-24 
-6.07632 -2.58879 4.48116e-24 
-5.85896 -2.5864 4.98221e-24 
-5.65201 -2.56665 7.13572e-24 
-5.43123 -2.60762 1.51799e-23 
-5.20895 -2.58856 2.68856e-23 
-4.99058 -2.59767 5.01917e-23 
-4.77362 -2.59346 8.71409e-23 
-4.55897 -2.5987 1.39201e-22 
-4.34259 -2.60084 1.68289e-22 
-4.13089 -2.5902 1.01605e-22 
-3.92364 -2.5922 -2.57067e-22 
-3.71514 -2.59082 -1.72144e-21 
-3.50397 -2.59493 -7.6416e-21 
-3.28635 -2.59926 -2.27448e-20 
-3.06216 -2.5988 -5.69393e-20 
-2.83822 -2.5847 -1.41591e-19 
-2.61948 -2.59346 1.44699e-20 
-2.38561 -2.61641 7.70661e-19 
-2.12193 -2.6262 1.38045e-17 
-1.86676 -2.56608 -5.18615e-17 
-1.67184 -2.56414 -7.99834e-17 
-1.48861 -2.63532 5.63705e-17 
-1.26422 -2.59834 4.7025e-16 
-1.08766 -2.60043 1.63496e-15 
-0.934302 -2.61677 -7.21327e-17 
-0.84526 -2.42155 1.42022e-14 
-0.785696 -2.63284 -3.44976e-15 
-0.530571 -2.77263 8.80759e-14 
-0.214968 -2.75695 1.52382e-13 
-0.000940989 -2.78685 -1.58013e-12 
0.313417 -2.73355 1.40134e-13 
0.61511 -2.75626 -1.59258e-14 
0.808754 -2.63564 -8.14165e-15 
0.96198 -2.63823 -7.45086e-15 
1.12486 -2.60958 1.93777e-15 
1.11025 -2.39544 1.39644e-15 
1.28495 -2.58188 2.31224e-15 
1.46552 -2.57505 -4.18442e-15 
1.70245 -2.61699 5.81671e-16 
1.94237 -2.61592 1.71937e-16 
2.20721 -2.62062 5.39947e-18 
2.46904 -2.60972 -1.32163e-18 
2.70924 -2.58307 -7.52947e-19 
2.93748 -2.59882 5.80764e-20 
3.17349 -2.60475 2.04582e-20 
3.40143 -2.58062 7.63152e-21 
3.61186 -2.59162 -9.40165e-21 
3.82583 -2.59359 -3.22118e-20 
4.04161 -2.59781 3.1951e-20 
4.25636 -2.593 -2.34925e-22 
4.47124 -2.59494 -1.90019e-22 
4.68119 -2.58734 -1.48747e-22 
4.89742 -2.59835 -7.67968e-23 
5.11003 -2.58728 -3.65341e-23 
5.33101 -2.60032 -2.06907e-23 
5.55132 -2.59312 -9.95683e-24 
5.77361 -2.59412 -6.21632e-24 
6.00332 -2.60196 -5.16487e-24 
6.22815 -2.58874 -1.2042e-23 
6.4522 -2.59161 -4.92786e-24 
6.67841 -2.58986 -1.51784e-23 
6.89275 -2.57293 -9.82808e-24 
7.1328 -2.62344 -8.40761e-24 
7.3847 -2.60033 -5.60685e-24 
7.61131 -2.5869 -3.4784e-24 
7.8682 -2.63655 -9.03901e-25 
8.07451 -2.54589 6.6028e-24 
8.2993 -2.61264 4.88463e-21 
8.48528 -2.5331 -2.84969e-21 
-8.48528 -2.34855 -4.82211e-22 
-8.24858 -2.34848 3.95185e-23 
-8.01843 -2.3494 8.98805e-24 
-7.78114 -2.41704 6.3426e-24 
-7.58261 -2.24907 1.01057e-24 
-7.4873 -2.44062 2.00965e-23 
-7.21211 -2.41527 2.9389e-24 
-6.98923 -2.35326 -2.91322e-24 
-6.75854 -2.36864 1.99963e-24 
-6.51032 -2.35836 6.87142e-24 
-6.27227 -2.37633 4.54381e-24 
-6.04517 -2.35048 7.63686e-24 
-5.83068 -2.33573 -7.58199e-25 
-5.59179 -2.34678 7.10217e-25 
-5.37411 -2.37276 6.97449e-24 
-5.14307 -2.36157 1.65039e-23 
-4.92228 -2.36769 3.56969e-23 
-4.70005 -2.36622 6.61786e-23 
-4.48048 -2.37447 9.6774e-23 
-4.2653 -2.36838 7.50201e-23 
-4.04936 -2.35759 -1.25222e-22 
-3.83849 -2.35822 -8.67375e-22 
-3.62387 -2.35991 -3.66951e-21 
-3.40554 -2.36822 -1.51548e-20 
-3.18233 -2.37374 -3.82646e-20 
-2.95658 -2.36285 -1.16683e-19 
-2.72533 -2.35014 -2.20342e-19 
-2.49394 -2.3784 5.31649e-19 
-2.24772 -2.41643 -3.02423e-19 
-1.99845 -2.39133 -1.0167e-17 
-1.75043 -2.30923 -5.24629e-18 
-1.53886 -2.32474 -2.60102e-16 
-1.38804 -2.42577 -2.6512e-17 
-1.17056 -2.36976 3.47302e-16 
-0.994735 -2.38341 -1.35146e-16 
-0.705013 -2.29863 1.7983e-14 
-0.648521 -2.65378 -3.56594e-15 
-0.387927 -2.71497 3.51757e-14 
-0.27754 -2.62996 1.18766e-13 
-0.140411 -2.68696 1.95102e-12 
0.288393 -2.58985 -3.20097e-13 
0.497835 -2.69246 -1.07109e-14 
0.559619 -2.45311 7.07324e-15 
0.779697 -2.45093 1.12656e-15 
0.947705 -2.44965 9.05405e-16 
1.06424 -2.19953 -7.27982e-15 
1.28823 -2.33552 -3.21212e-15 
1.49535 -2.35382 1.48448e-15 
1.72081 -2.40037 -4.68999e-16 
1.97141 -2.41343 -3.38364e-17 
2.23188 -2.40981 -5.01959e-18 
2.47159 -2.38507 1.25176e-17 
2.70422 -2.35052 -1.18297e-17 
2.9361 -2.36162 2.10259e-19 
3.15788 -2.38213 5.63698e-20 
3.37835 -2.35205 9.98917e-21 
3.60058 -2.35352 9.64666e-21 
3.81229 -2.36283 5.48608e-21 
4.02676 -2.37096 -1.11437e-21 
4.24243 -2.36296 1.44175e-22 
4.45525 -2.36152 -1.16611e-22 
4.66314 -2.3519 -8.05056e-23 
4.87437 -2.36486 -2.90629e-23 
5.08492 -2.35217 -2.32424e-23 
5.30034 -2.36803 -1.44263e-23 
5.51612 -2.36154 -1.87166e-24 
5.73629 -2.36157 -5.71191e-25 
5.96046 -2.37293 4.13178e-24 
6.18503 -2.35747 -6.23241e-24 
6.41252 -2.35492 -4.36367e-24 
6.63577 -2.35617 -5.72101e-24 
6.85879 -2.32434 -6.19111e-24 
7.08085 -2.38523 -6.38494e-24 
7.31046 -2.39392 -6.23839e-24 
7.55682 -2.34676 -3.08559e-24 
7.79174 -2.40833 -2.34777e-24 
8.00137 -2.31905 -6.68561e-24 
8.24805 -2.35077 -2.54235e-21 
8.48528 -2.30439 2.12409e-21 
-8.48528 -2.09511 4.29388e-22 
-8.26717 -2.10294 -4.45791e-22 
-8.05564 -2.09406 -1.4415e-24 
-7.82099 -2.16796 2.91756e-24 
-7.54514 -2.04287 9.2705e-25 
-7.31537 -2.23095 -1.42029e-24 
-7.08146 -2.12845 5.16276e-24 
-6.83651 -2.12943 1.61734e-24 
-6.61231 -2.14584 1.84721e-24 
-6.36217 -2.14662 1.26853e-24 
-6.14369 -2.12656 3.13048e-24 
-5.92459 -2.09582 -2.14949e-24 
-5.69839 -2.12186 -1.25953e-24 
-5.46938 -2.12277 4.36475e-24 
-5.25705 -2.14324 -4.83931e-25 
-5.03183 -2.13526 1.02758e-23 
-4.81562 -2.14086 1.13951e-23 
-4.59614 -2.14382 2.65906e-23 
-4.38527 -2.14291 4.01906e-23 
-4.17344 -2.13633 3.73343e-23 
-3.96049 -2.12459 6.1991e-24 
-3.7495 -2.12802 -1.15688e-22 
-3.53285 -2.13414 -1.08183e-21 
-3.31403 -2.14255 -5.24064e-21 
-3.09333 -2.1417 -1.40716e-21 
-2.8644 -2.13005 -2.1473e-20 
-2.62384 -2.12977 -1.55078e-19 
-2.38401 -2.17373 -4.97084e-19 
-2.14768 -2.18872 4.66107e-18 
-1.90374 -2.14534 1.87367e-18 
-1.63691 -2.07723 -5.28485e-17 
-1.424 -2.0826 2.37997e-16 
-1.27049 -2.19923 -5.99684e-16 
-1.14424 -1.99563 3.82473e-16 
-1.03336 -2.16463 6.65674e-16 
-0.853783 -2.19217 4.50538e-15 
-0.689744 -2.46714 -2.91185e-14 
-0.497856 -2.62238 1.3824e-14 
-0.383938 -2.5378 -1.26464e-13 
0.176306 -2.6946 -2.03934e-13 
0.661753 -2.58371 1.81266e-14 
0.461409 -2.31783 -1.13602e-13 
0.685831 -2.31244 -4.77526e-14 
0.88146 -2.26408 3.67764e-15 
0.918527 -2.05214 9.13052e-15 
1.07274 -1.94139 1.62791e-15 
1.23418 -2.10539 1.33574e-15 
1.44165 -2.11485 -9.02208e-17 
1.67307 -2.17333 -2.38251e-16 
1.91883 -2.19737 -1.13556e-17 
2.17787 -2.19965 -4.78627e-18 
2.43246 -2.16052 -1.0813e-17 
2.68859 -2.13584 1.17631e-17 
2.9369 -2.13103 6.46709e-20 
3.17024 -2.14634 2.25876e-20 
3.40195 -2.12667 4.9091e-21 
3.62041 -2.12162 -4.44335e-21 
3.83935 -2.13683 -3.0336e-21 
4.05298 -2.14398 3.7674e-22 
4.26863 -2.13375 2.85967e-23 
4.47599 -2.12423 -1.12776e-22 
4.69164 -2.12276 -2.98299e-23 
4.89981 -2.1274 -1.209e-23 
5.11991 -2.1241 2.76226e-24 
5.33248 -2.13273 1.1418e-24 
5.55235 -2.1301 -1.03132e-24 
5.77794 -2.13446 4.41618e-24 
5.99874 -2.13846 3.27206e-24 
6.2288 -2.12733 1.59495e-24 
6.45261 -2.11867 -1.76234e-24 
6.67181 -2.11419 5.55748e-24 
6.9082 -2.09456 -1.51855e-24 
7.12632 -2.1535 -1.29029e-24 
7.35929 -2.1669 -1.27144e-24 
7.56141 -2.07894 -6.1227e-25 
7.76121 -2.16698 4.50444e-24 
7.98405 -2.08358 -6.73346e-25 
8.21458 -2.1286 2.66542e-22 
8.48528 -2.10503 -2.7485e-22 
-8.48528 -1.81472 -9.17579e-23 
-8.29666 -1.85059 5.46527e-23 
-7.88511 -1.91375 -7.26899e-24 
[...]
POINT_DATA 1978 
VECTORS vectors float
2.46169e-06 -0.000180719 1 
-1.53117e-06 -0.00149917 0.999999 
4.53166e-07 -0.00146093 0.999999 
-1.56008e-07 -0.00148048 0.999999 
5.97454e-08 -0.00155476 0.999999 
1.05896e-08 -0.00165986 0.999999 
-4.72975e-09 -0.0017696 0.999998 
-2.622e-08 -0.00187355 0.999998 
-4.73657e-08 -0.00197472 0.999998 
-2.15608e-08 -0.00204926 0.999998 
-2.01327e-08 -0.0021104 0.999998 
-2.21817e-08 -0.00214843 0.999998 
5.69804e-09 -0.00216552 0.999998 
-1.7425e-08 -0.00215751 0.999998 
1.37631e-08 -0.00212392 0.999998 
-4.96741e-09 -0.00205907 0.999998 
7.34822e-08 -0.00193316 0.999998 
4.99097e-08 -0.00172749 0.999999 
1.13429e-07 -0.00140693 0.999999 
2.05486e-07 -0.000954528 1 
3.0516e-07 -0.000364095 1 
4.6435e-07 0.000464037 1 
4.78656e-07 0.00164573 0.999999 
2.43066e-07 0.00337373 0.999994 
7.55377e-08 0.00583685 0.999983 
1.07013e-06 0.00926133 0.999957 
2.3818e-06 0.0136972 0.999906 
6.70686e-07 0.0198902 0.999802 
-6.5972e-06 0.0293257 0.99957 
1.42726e-06 0.0435925 0.999049 
7.47162e-06 0.0611259 0.99813 
3.67035e-06 0.082187 0.996617 
8.8115e-07 0.116331 0.993211 
6.31712e-05 0.160905 0.98697 
9.00843e-05 0.210931 0.977501 
0.00019186 0.27157 0.962419 
0.00015659 0.349531 0.936925 
8.65976e-05 0.434941 0.900459 
-0.00027211 0.801074 0.598565 
-3.73575e-05 0.978047 -0.208386 
5.80211e-05 0.749183 -0.662363 
-0.000153269 0.424999 -0.905194 
3.08715e-05 0.336601 -0.941647 
-0.000300433 0.263489 -0.964662 
-4.33173e-05 0.206197 -0.978511 
-7.23603e-05 0.160026 -0.987113 
-5.24937e-05 0.123037 -0.992402 
-4.18939e-06 0.0893946 -0.995996 
1.43149e-05 0.0608827 -0.998145 
5.45039e-07 0.041554 -0.999136 
-2.15268e-07 0.0280292 -0.999607 
-2.00623e-06 0.0197147 -0.999806 
-9.18166e-07 0.0140756 -0.999901 
-5.6706e-07 0.00962622 -0.999954 
-7.5225e-07 0.00619324 -0.999981 
-1.7041e-06 0.00389673 -0.999992 
-8.14299e-07 0.00210695 -0.999998 
-6.06342e-07 0.000848953 -1 
1.21278e-07 -4.79615e-05 -1 
-1.23996e-07 -0.000718042 -1 
-2.41536e-07 -0.00121959 -0.999999 
-1.81508e-07 -0.00161353 -0.999999 
-9.34184e-08 -0.00188123 -0.999998 
-9.56029e-09 -0.00204824 -0.999998 
-3.50009e-10 -0.00212437 -0.999998 
1.37655e-08 -0.00214918 -0.999998 
2.03424e-09 -0.00215047 -0.999998 
5.48237e-09 -0.00213249 -0.999998 
9.66905e-09 -0.00209329 -0.999998 
1.19302e-09 -0.00203529 -0.999998 
3.26562e-08 -0.00195603 -0.999998 
2.7433e-08 -0.00186265 -0.999998 
-6.9975e-09 -0.00176792 -0.999998 
-1.53391e-08 -0.00165013 -0.999999 
-3.28202e-08 -0.00156864 -0.999999 
9.82243e-08 -0.00151257 -0.999999 
-2.01777e-07 -0.00148377 -0.999999 
9.25501e-07 -0.00149007 -0.999999 
-9.2952e-07 -0.000110997 -1 
0.00010264 0.00016004 1 
5.44129e-05 -0.00142922 0.999999 
3.77864e-05 -0.00143962 0.999999 
3.34843e-05 -0.00146779 0.999999 
3.85169e-05 -0.00152667 0.999999 
5.32481e-05 -0.00163041 0.999999 
6.67706e-05 -0.00172636 0.999999 
7.02167e-05 -0.00183795 0.999998 
7.45846e-05 -0.00191519 0.999998 
6.12321e-05 -0.00199311 0.999998 
4.66821e-05 -0.00203702 0.999998 
2.03366e-05 -0.00205916 0.999998 
-1.19416e-05 -0.00204587 0.999998 
-5.20235e-05 -0.00203878 0.999998 
-0.000109963 -0.00196374 0.999998 
-0.000170518 -0.00185549 0.999998 
-0.000247604 -0.00166518 0.999999 
-0.000324652 -0.00138646 0.999999 
-0.000413945 -0.00096966 0.999999 
-0.000535582 -0.000373063 1 
-0.000662932 0.000431892 1 
-0.000844394 0.00158852 0.999998 
-0.00108044 0.0032207 0.999994 
-0.00139046 0.00552877 0.999984 
-0.00175534 0.00875883 0.99996 
-0.00219708 0.0132041 0.99991 
-0.00249226 0.0189154 0.999818 
-0.00272383 0.0271337 0.999628 
-0.00304938 0.0404468 0.999177 
-0.00378895 0.0604947 0.998161 
-0.00379156 0.0836345 0.996489 
-0.00394119 0.111381 0.99377 
-0.00326058 0.160582 0.987017 
-0.00122403 0.216089 0.976373 
0.00146459 0.278618 0.960401 
0.0458629 0.30131 0.952423 
0.00770862 0.354364 0.935076 
-0.00808174 0.548904 0.835847 
-0.0106168 0.912698 0.408497 
-0.0146364 0.998017 0.0612125 
-0.0173559 0.807276 -0.589919 
0.00464685 0.532181 -0.846618 
-0.00751937 0.402661 -0.915318 
-0.000723676 0.309296 -0.950965 
0.00355963 0.232355 -0.972625 
-0.0161441 0.197439 -0.980182 
0.00497152 0.173391 -0.98484 
0.00495715 0.124831 -0.992166 
0.00435643 0.082988 -0.996541 
0.00405748 0.0547272 -0.998493 
0.00359311 0.0365109 -0.999327 
0.00318756 0.024784 -0.999688 
0.00276794 0.0173007 -0.999847 
0.00218708 0.0118648 -0.999927 
0.00170691 0.00774557 -0.999969 
0.00141899 0.00485419 -0.999987 
0.00107168 0.00280668 -0.999995 
0.000796652 0.00126318 -0.999999 
0.000602866 0.000186026 -1 
0.000497322 -0.000521525 -1 
0.000397835 -0.00105909 -0.999999 
0.000321103 -0.00143673 -0.999999 
0.000227445 -0.00172944 -0.999998 
0.000159034 -0.00189184 -0.999998 
8.68264e-05 -0.00199974 -0.999998 
3.33179e-05 -0.00203985 -0.999998 
-9.34988e-06 -0.00205325 -0.999998 
-3.96615e-05 -0.00204406 -0.999998 
-6.16901e-05 -0.00200319 -0.999998 
-7.05213e-05 -0.0019451 -0.999998 
-7.24952e-05 -0.00186793 -0.999998 
-7.21319e-05 -0.00178202 -0.999998 
-5.39517e-05 -0.00169357 -0.999999 
-4.94207e-05 -0.00159676 -0.999999 
-4.10003e-05 -0.00152937 -0.999999 
-2.79195e-05 -0.00148417 -0.999999 
-3.49963e-05 -0.00145365 -0.999999 
-4.12209e-05 -0.00144803 -0.999999 
-7.79598e-05 0.000116952 -1 
9.54579e-05 -3.44525e-05 1 
5.87214e-05 -0.00138696 0.999999 
4.42723e-05 -0.00142142 0.999999 
4.76194e-05 -0.00145797 0.999999 
5.6206e-05 -0.00150789 0.999999 
5.99996e-05 -0.00153533 0.999999 
8.11471e-05 -0.00162425 0.999999 
9.58859e-05 -0.00169713 0.999999 
0.000102639 -0.00178065 0.999998 
0.000104465 -0.00186455 0.999998 
9.00461e-05 -0.00193222 0.999998 
6.4467e-05 -0.00195644 0.999998 
2.60679e-05 -0.00195758 0.999998 
-3.32236e-05 -0.00193735 0.999998 
-9.66054e-05 -0.00189631 0.999998 
-0.000183092 -0.00178739 0.999998 
-0.000277162 -0.00163314 0.999999 
-0.000384997 -0.00138777 0.999999 
-0.000497913 -0.00103768 0.999999 
-0.000619668 -0.000522876 1 
-0.000758695 0.000226099 1 
-0.000927213 0.00125399 0.999999 
-0.00116256 0.00273711 0.999996 
-0.0014902 0.0047965 0.999987 
-0.00190111 0.00762019 0.999969 
-0.00228571 0.0114338 0.999932 
-0.00252491 0.0166385 0.999858 
-0.00280836 0.0235426 0.999719 
-0.00309067 0.0339 0.99942 
-0.00267714 0.0492362 0.998784 
0.000435056 0.0696654 0.99757 
0.0049975 0.0965936 0.995311 
0.00351625 0.128921 0.991649 
0.0153559 0.176859 0.984116 
0.0313197 0.233931 0.971749 
0.0944804 0.325877 0.940679 
0.0180087 0.446446 0.894629 
0.0101663 0.66099 0.750326 
0.0161144 0.823005 0.567806 
-0.0029444 0.963083 0.26919 
-0.0749351 0.819871 -0.567623 
-0.0151934 0.655163 -0.755335 
-0.0673533 0.453156 -0.888883 
-0.039074 0.346201 -0.937346 
-0.0259425 0.26051 -0.965123 
-0.049816 0.195022 -0.979533 
-0.00701892 0.149029 -0.988808 
-0.00226281 0.109424 -0.993993 
0.00250615 0.0809686 -0.996713 
0.00365856 0.0551463 -0.998472 
0.00397725 0.0380077 -0.99927 
0.00363367 0.0262993 -0.999648 
0.00311197 0.0181449 -0.999831 
0.00273586 0.0126209 -0.999917 
0.00222933 0.00857561 -0.999961 
0.00172254 0.00564869 -0.999983 
0.00132911 0.003363 -0.999993 
0.00104282 0.00172155 -0.999998 
0.000829232 0.000560709 -0.999999 
0.000684388 -0.000206928 -1 
0.000559705 -0.00078104 -1 
0.000451714 -0.00118246 -0.999999 
0.000340015 -0.00149829 -0.999999 
0.000240391 -0.0016919 -0.999999 
0.000142321 -0.00183813 -0.999998 
6.08728e-05 -0.00191154 -0.999998 
-6.36091e-06 -0.00195141 -0.999998 
-5.58663e-05 -0.00196538 -0.999998 
-8.83575e-05 -0.00194188 -0.999998 
-0.000103873 -0.00189699 -0.999998 
-0.000105701 -0.00183376 -0.999998 
-0.000100554 -0.00175211 -0.999998 
-8.74814e-05 -0.00168878 -0.999999 
-7.30777e-05 -0.0016088 -0.999999 
-5.71351e-05 -0.00153014 -0.999999 
-4.47147e-05 -0.00148312 -0.999999 
-3.83819e-05 -0.00144765 -0.999999 
-4.65229e-05 -0.00141379 -0.999999 
-6.44846e-05 -2.14884e-05 -1 
3.89429e-05 -1.35224e-05 1 
2.91054e-05 -0.00135283 0.999999 
2.02695e-05 -0.00140117 0.999999 
3.46429e-05 -0.00144415 0.999999 
3.83329e-05 -0.00150751 0.999999 
7.20709e-05 -0.00157622 0.999999 
7.81517e-05 -0.00163497 0.999999 
9.5594e-05 -0.00172048 0.999999 
0.000104461 -0.00179166 0.999998 
9.89993e-05 -0.00185461 0.999998 
7.86171e-05 -0.00188127 0.999998 
4.3434e-05 -0.00187899 0.999998 
-6.60839e-06 -0.00186884 0.999998 
-7.1495e-05 -0.0018114 0.999998 
-0.000142593 -0.0017339 0.999998 
-0.000229118 -0.00158717 0.999999 
-0.000321646 -0.00138311 0.999999 
-0.000419981 -0.00107832 0.999999 
-0.000513653 -0.000658038 1 
-0.000603033 -4.97996e-05 1 
-0.000687876 0.00082749 0.999999 
-0.000797976 0.00204849 0.999998 
-0.00094436 0.00378875 0.999992 
-0.00114065 0.00612981 0.999981 
-0.00130524 0.00919055 0.999957 
-0.00127621 0.0132398 0.999912 
-0.000967156 0.0188161 0.999822 
-0.000849865 0.0265632 0.999647 
-0.000121966 0.0374036 0.9993 
0.00304209 0.052204 0.998632 
0.0114245 0.0725161 0.997302 
0.0228147 0.0972251 0.995001 
0.0230875 0.13114 0.991095 
0.0502259 0.128672 0.990415 
0.0482132 0.174521 0.983472 
0.0792899 0.227484 0.970548 
0.0566637 0.437002 0.897674 
0.0486697 0.635265 0.770759 
0.0683507 0.796712 0.600481 
-0.0413305 0.954245 -0.296156 
-0.034847 0.515237 -0.856339 
-0.163154 0.498846 -0.851195 
-0.103272 0.370998 -0.922874 
-0.0688183 0.27077 -0.960181 
-0.0948155 0.206611 -0.973818 
-0.0616992 0.142632 -0.987851 
-0.0324652 0.139778 -0.98965 
-0.0186024 0.105837 -0.99421 
-0.00565742 0.0772135 -0.996999 
-0.000792317 0.0553056 -0.998469 
0.00122853 0.0373303 -0.999302 
0.00175871 0.0258637 -0.999664 
0.00167864 0.0180203 -0.999836 
0.00179303 0.0127178 -0.999918 
0.00159094 0.00876056 -0.99996 
0.00121223 0.00570373 -0.999983 
0.00099284 0.0034473 -0.999994 
0.000842255 0.00182709 -0.999998 
0.000713453 0.000710225 -0.999999 
0.000598373 -8.54437e-05 -1 
0.000504407 -0.000636619 -1 
0.000409377 -0.00106077 -0.999999 
0.000318509 -0.0013585 -0.999999 
0.000222139 -0.00157702 -0.999999 
0.000134548 -0.00172353 -0.999999 
5.33929e-05 -0.00181511 -0.999998 
-1.50969e-05 -0.00187005 -0.999998 
-6.35739e-05 -0.00188928 -0.999998 
-9.41339e-05 -0.00187486 -0.999998 
-0.000105167 -0.00183573 -0.999998 
-0.000102159 -0.00178016 -0.999998 
-8.92366e-05 -0.00171031 -0.999999 
-7.73658e-05 -0.00164338 -0.999999 
-6.16681e-05 -0.00158082 -0.999999 
-3.91178e-05 -0.00152417 -0.999999 
-3.605e-05 -0.00148273 -0.999999 
-2.07835e-05 -0.00144401 -0.999999 
-2.55189e-05 -0.00140142 -0.999999 
-3.46852e-05 3.25148e-05 -1 
-3.30726e-05 -7.80823e-06 1 
-1.85618e-05 -0.00133827 0.999999 
2.9977e-06 -0.00143715 0.999999 
1.26289e-05 -0.00147918 0.999999 
1.52904e-05 -0.00153096 0.999999 
4.88659e-05 -0.00156576 0.999999 
4.57232e-05 -0.00160072 0.999999 
7.1785e-05 -0.00166549 0.999999 
8.64619e-05 -0.00172813 0.999999 
9.47642e-05 -0.00178876 0.999998 
8.39754e-05 -0.00181639 0.999998 
5.97363e-05 -0.00182475 0.999998 
1.56587e-05 -0.00181158 0.999998 
-3.62904e-05 -0.00177268 0.999998 
-9.82215e-05 -0.00169139 0.999999 
-0.000163622 -0.00158396 0.999999 
-0.00023494 -0.00140449 0.999999 
-0.000308443 -0.00115941 0.999999 
-0.000371984 -0.000814404 1 
-0.0004255 -0.000340712 1 
-0.000457271 0.000335715 1 
-0.000461825 0.00131196 0.999999 
-0.000457902 0.00268352 0.999996 
-0.000420054 0.00457715 0.999989 
-0.000338853 0.00704797 0.999975 
-0.000103666 0.0101963 0.999948 
0.000443815 0.0143703 0.999897 
0.00144956 0.020161 0.999796 
0.00268983 0.0277123 0.999612 
0.00522863 0.0379658 0.999265 
0.0113445 0.05196 0.998585 
0.0236549 0.0664167 0.997512 
0.0397141 0.0892013 0.995222 
0.0695258 0.109434 0.99156 
0.0909679 0.164779 0.982127 
0.145456 0.161744 0.976054 
0.135948 0.233203 0.962878 
0.135246 0.452572 0.881412 
0.106899 0.571984 0.813269 
0.0846867 0.922049 0.377695 
-0.133443 0.895308 -0.424991 
-0.265839 0.564007 -0.781809 
-0.12949 0.276773 -0.952171 
-0.164061 0.211612 -0.963485 
-0.103276 0.153591 -0.982723 
-0.0656288 0.100358 -0.992785 
-0.0409806 0.098527 -0.99429 
-0.026898 0.0771402 -0.996657 
-0.0141141 0.0686875 -0.997538 
-0.00678659 0.0494825 -0.998752 
-0.00268121 0.035972 -0.999349 
-0.000973158 0.0250517 -0.999686 
-0.000339759 0.0176657 -0.999844 
0.000333339 0.0128462 -0.999917 
0.000591238 0.00909085 -0.999959 
0.000564992 0.00618549 -0.999981 
0.000535532 0.00381667 -0.999993 
0.000541274 0.00218778 -0.999997 
0.000509657 0.00102468 -0.999999 
0.00046761 0.000202545 -1 
0.00040988 -0.00039938 -1 
0.000360077 -0.000837418 -1 
0.000291165 -0.00116675 -0.999999 
0.000222698 -0.00141053 -0.999999 
0.000144697 -0.00158511 -0.999999 
7.2836e-05 -0.001703 -0.999999 
5.61022e-06 -0.00178264 -0.999998 
-4.70308e-05 -0.0018213 -0.999998 
-8.0933e-05 -0.00182899 -0.999998 
-9.56283e-05 -0.00180461 -0.999998 
-9.28468e-05 -0.00176066 -0.999998 
-7.98743e-05 -0.00170828 -0.999999 
-5.92309e-05 -0.00163996 -0.999999 
-4.51307e-05 -0.00158628 -0.999999 
-1.92053e-05 -0.00152845 -0.999999 
-9.51423e-06 -0.00147451 -0.999999 
4.91459e-06 -0.00142745 -0.999999 
3.38734e-07 -0.00138279 -0.999999 
1.27151e-05 2.61353e-05 -1 
-8.10731e-05 1.40309e-05 1 
-6.24271e-05 -0.00136434 0.999999 
-2.13863e-05 -0.00139499 0.999999 
-2.76668e-05 -0.00144043 0.999999 
-1.38069e-05 -0.0014879 0.999999 
9.43203e-06 -0.00156299 0.999999 
3.84094e-05 -0.00162325 0.999999 
6.12322e-05 -0.00167457 0.999999 
7.79195e-05 -0.00173119 0.999998 
7.95957e-05 -0.00176429 0.999998 
6.34286e-05 -0.00177543 0.999998 
3.1511e-05 -0.00177454 0.999998 
-1.59218e-05 -0.0017396 0.999998 
-6.75414e-05 -0.00167891 0.999999 
-0.000124987 -0.00157447 0.999999 
-0.000178887 -0.00143749 0.999999 
-0.000231732 -0.00122951 0.999999 
-0.000275079 -0.00095184 1 
-0.000302645 -0.00056563 1 
-0.000307556 -3.78761e-05 1 
-0.000274584 0.000716268 1 
-0.000184861 0.00181731 0.999998 
-2.35377e-05 0.0033344 0.999994 
0.000252111 0.00537337 0.999986 
0.000686989 0.00793398 0.999968 
0.00138021 0.011194 0.999936 
0.0025479 0.015555 0.999876 
0.00452038 0.0210716 0.999768 
0.00715481 0.0281889 0.999577 
0.0119339 0.0379329 0.999209 
0.0213038 0.0475962 0.998639 
0.0385343 0.0609266 0.997398 
0.0599694 0.0743977 0.995424 
0.0812741 0.0636781 0.994656 
0.102329 0.109616 0.988693 
0.129566 0.0843894 0.987973 
0.221555 0.242611 0.944486 
0.159408 0.318395 0.934459 
0.156015 0.689199 0.707576 
-0.0447264 0.992405 -0.114596 
-0.0717869 0.62984 -0.7734 
-0.190185 0.34352 -0.919687 
-0.230458 0.195745 -0.953191 
-0.152736 0.133621 -0.979192 
-0.100608 0.10356 -0.989522 
-0.0697306 0.0672594 -0.995296 
-0.0464405 0.0672876 -0.996652 
-0.0283275 0.0566413 -0.997993 
-0.0161235 0.0494806 -0.998645 
-0.00929742 0.0378501 -0.99924 
-0.00522701 0.0289737 -0.999567 
-0.00287922 0.020901 -0.999777 
-0.00183895 0.0148372 -0.999888 
-0.000827134 0.0109719 -0.999939 
-0.000322505 0.00784515 -0.999969 
-1.64344e-05 0.00523425 -0.999986 
0.000133333 0.00322512 -0.999995 
0.000249347 0.00182521 -0.999998 
0.000301616 0.000813367 -1 
0.000320879 8.39147e-05 -1 
0.000306482 -0.000459603 -1 
0.000282834 -0.000852841 -1 
0.000237065 -0.00115428 -0.999999 
0.000183796 -0.00138182 -0.999999 
0.000120942 -0.00153939 -0.999999 
5.66212e-05 -0.00165895 -0.999999 
-1.97589e-06 -0.00173476 -0.999998 
-4.771e-05 -0.00177254 -0.999998 
-7.60852e-05 -0.00178126 -0.999998 
-8.38216e-05 -0.0017595 -0.999998 
-7.5414e-05 -0.00172261 -0.999999 
-5.81603e-05 -0.00167427 -0.999999 
-3.32729e-05 -0.0016208 -0.999999 
-1.71881e-05 -0.00157205 -0.999999 
7.95849e-06 -0.0015218 -0.999999 
1.14877e-05 -0.00147885 -0.999999 
2.70238e-05 -0.00144002 -0.999999 
3.02703e-05 -0.00139432 -0.999999 
4.3077e-05 1.82346e-05 -1 
-0.000102224 3.21312e-05 1 
-8.35517e-05 -0.00139148 0.999999 
-5.35719e-05 -0.00141513 0.999999 
-4.56405e-05 -0.00146216 0.999999 
-2.12842e-05 -0.00151555 0.999999 
-1.56311e-05 -0.00155989 0.999999 
1.26441e-05 -0.00160673 0.999999 
3.72432e-05 -0.00164904 0.999999 
6.00203e-05 -0.00169705 0.999999 
6.60718e-05 -0.00172189 0.999999 
5.95183e-05 -0.00173704 0.999998 
3.29176e-05 -0.00173673 0.999998 
-7.44159e-06 -0.00171122 0.999999 
-5.69996e-05 -0.00165439 0.999999 
-0.000105364 -0.00157208 0.999999 
-0.000151837 -0.00144346 0.999999 
-0.000190045 -0.00127947 0.999999 
-0.000217731 -0.00104612 0.999999 
-0.000229645 -0.000735346 1 
-0.00021548 -0.000309428 1 
-0.000166834 0.000274362 1 
-5.88194e-05 0.00112277 0.999999 
0.000151488 0.00232464 0.999997 
0.000499928 0.00394909 0.999992 
0.00105601 0.00602845 0.999981 
0.0018681 0.00861378 0.999961 
0.00305855 0.0119088 0.999924 
0.00495114 0.0158857 0.999862 
0.00790167 0.0206738 0.999755 
0.0119476 0.026935 0.999566 
0.0186908 0.0332911 0.999271 
0.0314567 0.0414968 0.998643 
0.0508856 0.044382 0.997718 
0.0691899 0.0314963 0.997106 
0.108926 0.041831 0.993169 
0.178501 0.0575846 0.982253 
0.192647 0.128923 0.972762 
0.2336 0.382829 0.893797 
0.257408 0.551321 0.793591 
-0.00941003 0.992967 0.118017 
-0.148142 0.678842 -0.719185 
-0.272105 0.347473 -0.897342 
-0.21555 0.108744 -0.970419 
-0.151241 0.0741742 -0.98571 
-0.106153 0.0661138 -0.992149 
-0.0714835 0.0405234 -0.996618 
-0.047894 0.0436959 -0.997896 
-0.0320547 0.0425076 -0.998582 
-0.0195126 0.0380302 -0.999086 
-0.0123003 0.0309056 -0.999447 
-0.00770976 0.0240461 -0.999681 
-0.00484853 0.0190551 -0.999807 
-0.00359474 0.0141215 -0.999894 
-0.00206003 0.0105754 -0.999942 
-0.00116436 0.00766672 -0.99997 
-0.000578168 0.00526954 -0.999986 
-0.000238479 0.00333831 -0.999994 
-4.52076e-06 0.00187362 -0.999998 
0.000129241 0.000887428 -1 
0.00020249 0.000172934 -1 
0.000232533 -0.000342914 -1 
0.000234375 -0.00075336 -1 
0.000216031 -0.00104647 -0.999999 
0.000177789 -0.00128682 -0.999999 
0.000128575 -0.00145329 -0.999999 
7.14106e-05 -0.00158383 -0.999999 
1.62761e-05 -0.00167077 -0.999999 
-3.01612e-05 -0.00172124 -0.999999 
-6.1624e-05 -0.00174132 -0.999998 
-7.16388e-05 -0.00173207 -0.999998 
-6.30685e-05 -0.00170453 -0.999999 
-4.51077e-05 -0.00166858 -0.999999 
-1.80028e-05 -0.00161663 -0.999999 
5.2709e-06 -0.00156794 -0.999999 
2.86149e-05 -0.00152281 -0.999999 
3.40893e-05 -0.00147924 -0.999999 
4.62723e-05 -0.00144364 -0.999999 
5.01249e-05 -0.00140206 -0.999999 
6.07628e-05 2.64516e-05 -1 
-0.000100958 3.45034e-05 1 
-8.5461e-05 -0.00141923 0.999999 
-6.71343e-05 -0.00143694 0.999999 
-6.02676e-05 -0.00147725 0.999999 
-4.23427e-05 -0.00151052 0.999999 
-2.80499e-05 -0.00156404 0.999999 
1.98467e-06 -0.00160764 0.999999 
2.5732e-05 -0.00164772 0.999999 
4.82122e-05 -0.00167918 0.999999 
5.09918e-05 -0.00168877 0.999999 
4.44174e-05 -0.00170923 0.999999 
1.58708e-05 -0.00169539 0.999999 
-2.5502e-05 -0.00166462 0.999999 
-7.2306e-05 -0.00160373 0.999999 
-0.00011598 -0.00152378 0.999999 
-0.00015153 -0.0013969 0.999999 
-0.000178003 -0.00124057 0.999999 
-0.000189683 -0.00102292 0.999999 
-0.000183167 -0.000734625 1 
-0.000148173 -0.000349986 1 
-7.26638e-05 0.000205338 1 
7.3291e-05 0.000984021 1 
0.000335881 0.00205547 0.999998 
0.000775557 0.00351954 0.999994 
0.0014793 0.00539507 0.999984 
0.0025221 0.00776236 0.999967 
0.00398431 0.0105644 0.999936 
0.00612846 0.0136558 0.999888 
0.00910445 0.0165857 0.999821 
0.0132423 0.0206684 0.999699 
0.020783 0.0257271 0.999453 
0.0322852 0.0283706 0.999076 
0.044327 0.0227287 0.998758 
0.0686415 0.00723147 0.997615 
0.105731 0.00411583 0.994386 
0.164737 0.0106885 0.98628 
0.279136 0.185951 0.942075 
0.377257 0.336974 0.862627 
0.254831 0.781466 0.569536 
-0.0386174 0.99915 0.014413 
-0.261917 0.774953 -0.575193 
-0.392941 0.335612 -0.856132 
-0.199295 0.0463073 -0.978845 
-0.138517 0.0145037 -0.990254 
-0.10452 0.0282587 -0.994121 
-0.0718999 0.0132805 -0.997323 
-0.0486762 0.023262 -0.998544 
-0.0331451 0.0276653 -0.999068 
-0.022365 0.02877 -0.999336 
-0.0143291 0.0242734 -0.999603 
-0.00939464 0.019623 -0.999763 
-0.006192 0.0156008 -0.999859 
-0.00383128 0.0112435 -0.999929 
-0.00237398 0.00842296 -0.999962 
-0.00138201 0.00601823 -0.999981 
-0.000757544 0.00404789 -0.999992 
-0.000340938 0.00245302 -0.999997 
-9.39742e-05 0.00129502 -0.999999 
5.93276e-05 0.000493919 -1 
0.000141411 -8.10226e-05 -1 
0.000188027 -0.000518778 -1 