# vtk DataFile Version 3.0 
Exported using Morpho https://github.com/Morpho-lang/morpho 
ASCII 
DATASET UNSTRUCTURED_GRID 

POINTS 1978 float 
-8.48528 -2.82843 3.67657e-18 
-8.26683 -2.82843 -5.39146e-18 
-8.04552 -2.82843 3.67746e-18 
-7.7855 -2.82843 1.82073e-17 
-7.49318 -2.82843 1.43601e-17 
-7.24525 -2.82843 3.14855e-18 
-6.99863 -2.82843 -7.72891e-19 
-6.78254 -2.82843 2.34504e-18 
-6.56338 -2.82843 5.26128e-18 
-6.3619 -2.82843 -1.65701e-17 
-6.14155 -2.82843 -5.42457e-18 
-5.93276 -2.82843 -1.49409e-17 
-5.72254 -2.82843 -1.59787e-17 
-5.52818 -2.82843 -1.68613e-17 
-5.2977 -2.82843 -2.50219e-17 
-5.08858 -2.82843 -2.86868e-17 
-4.87355 -2.82843 -2.61613e-17 
-4.66508 -2.82843 -2.23034e-17 
-4.45394 -2.82843 -9.89138e-18 
-4.24265 -2.82843 2.82205e-18 
-4.04181 -2.82843 -4.61713e-17 
-3.83884 -2.82843 -1.98618e-16 
-3.63573 -2.82843 -7.43283e-16 
-3.42688 -2.82843 -2.3398e-15 
-3.21226 -2.82843 -6.68033e-15 
-2.99406 -2.82843 -1.62816e-14 
-2.78573 -2.82843 -3.80524e-14 
-2.56789 -2.82843 -9.5777e-14 
-2.32358 -2.82843 -2.49922e-13 
-2.06406 -2.82843 -4.9657e-13 
-1.85726 -2.82843 -8.15528e-13 
-1.66801 -2.82843 -2.05288e-12 
-1.4443 -2.82843 -3.87717e-12 
-1.26031 -2.82843 -2.88045e-12 
-1.09315 -2.82843 -3.67942e-12 
-0.943373 -2.82843 8.25639e-12 
-0.79891 -2.82843 7.85058e-11 
-0.667056 -2.82843 -7.00397e-10 
-0.304378 -2.82843 -3.19421e-09 
0.133534 -2.82843 -5.9546e-09 
0.369325 -2.82843 -3.29073e-09 
0.710453 -2.82843 4.41306e-10 
0.847624 -2.82843 -4.91034e-11 
0.994673 -2.82843 4.07608e-12 
1.14623 -2.82843 1.14445e-11 
1.29763 -2.82843 9.38681e-12 
1.46363 -2.82843 4.71386e-12 
1.66134 -2.82843 1.84642e-12 
1.88823 -2.82843 1.43706e-12 
2.13032 -2.82843 6.35219e-13 
2.37392 -2.82843 2.60547e-13 
2.59567 -2.82843 9.73603e-14 
2.80114 -2.82843 4.18237e-14 
3.02051 -2.82843 1.95517e-14 
3.237 -2.82843 7.42517e-15 
3.42863 -2.82843 2.76861e-15 
3.62625 -2.82843 1.19524e-15 
3.82576 -2.82843 3.7848e-16 
4.03231 -2.82843 8.05475e-17 
4.24803 -2.82843 -1.81721e-19 
4.45341 -2.82843 4.62374e-18 
4.66128 -2.82843 1.58497e-17 
4.86304 -2.82843 3.07668e-17 
5.07778 -2.82843 3.45087e-17 
5.28388 -2.82843 2.98214e-17 
5.50397 -2.82843 2.01625e-17 
5.71939 -2.82843 1.50953e-17 
5.93801 -2.82843 1.26024e-17 
6.16647 -2.82843 7.06443e-18 
6.38422 -2.82843 6.06529e-18 
6.60487 -2.82843 1.85202e-18 
6.82605 -2.82843 9.30594e-19 
7.03428 -2.82843 2.26933e-19 
7.2987 -2.82843 -4.31275e-18 
7.53422 -2.82843 -8.03476e-18 
7.75778 -2.82843 -9.63978e-18 
8.0406 -2.82843 -9.01616e-18 
8.23198 -2.82843 8.14202e-18 
8.48528 -2.82843 1.28818e-16 
-8.48528 -2.58899 -2.7015e-16 
-8.26048 -2.58061 2.87327e-16 
-8.03232 -2.58718 -1.24684e-19 
-7.78393 -2.6147 -2.02845e-19 
-7.52288 -2.65612 -7.5591e-19 
-7.22826 -2.60992 -1.36437e-18 
-6.98079 -2.5927 -1.69729e-18 
-6.75122 -2.60234 -1.67609e-18 
-6.53274 -2.58028 -1.44396e-18 
-6.3029 -2.60186 -1.0943e-18 
-6.0756 -2.58834 -9.97692e-19 
-5.85799 -2.58618 -9.2632e-19 
-5.65113 -2.5659 -1.15599e-18 
-5.43028 -2.60787 -2.23639e-18 
-5.20825 -2.58837 -3.89344e-18 
-4.99018 -2.59742 -7.51125e-18 
-4.77342 -2.59327 -1.32345e-17 
-4.55904 -2.59875 -2.07621e-17 
-4.34285 -2.60087 -2.5925e-17 
-4.13134 -2.5901 -1.60688e-17 
-3.92431 -2.59218 4.66741e-17 
-3.71607 -2.59088 2.99765e-16 
-3.50508 -2.59508 1.21564e-15 
-3.28759 -2.59904 3.8636e-15 
-3.06409 -2.59933 1.08225e-14 
-2.84027 -2.58492 2.72657e-14 
-2.62144 -2.59366 -1.81913e-18 
-2.38676 -2.61655 -4.83948e-18 
-2.12341 -2.62647 -1.50245e-17 
-1.86635 -2.56664 -4.30289e-17 
-1.66878 -2.56064 -1.57788e-16 
-1.48717 -2.63632 -2.67968e-16 
-1.26271 -2.59543 -8.336e-16 
-1.08826 -2.58828 -2.08005e-15 
-0.930976 -2.6129 -4.63874e-15 
-0.830564 -2.42058 -1.03666e-15 
-0.783188 -2.61988 -1.10326e-14 
-0.544905 -2.77154 -5.18435e-14 
-0.182423 -2.75679 7.55547e-15 
-0.00787436 -2.79002 -1.6587e-13 
0.308192 -2.73638 3.42885e-14 
0.596026 -2.75894 3.83038e-14 
0.788518 -2.64959 1.6826e-14 
0.938111 -2.63189 5.12291e-15 
1.11251 -2.6021 2.56903e-15 
1.12084 -2.37138 5.88004e-16 
1.28583 -2.58475 1.01226e-15 
1.46843 -2.58728 4.191e-16 
1.67245 -2.6022 1.14074e-16 
1.94143 -2.62206 4.25473e-17 
2.21506 -2.62471 1.33277e-17 
2.4771 -2.60588 4.61598e-18 
2.71623 -2.57702 1.75391e-18 
2.94154 -2.60039 -2.20056e-14 
3.17556 -2.60519 -7.71313e-15 
3.40235 -2.57873 -3.95058e-15 
3.61234 -2.59085 -9.78948e-16 
3.82721 -2.5945 -2.19655e-16 
4.04367 -2.59954 -3.33116e-17 
4.25845 -2.59309 2.17618e-17 
4.47344 -2.59521 2.75922e-17 
4.68276 -2.58676 2.13666e-17 
4.8989 -2.59847 1.3646e-17 
5.11098 -2.58698 6.28226e-18 
5.33186 -2.60042 3.34197e-18 
5.55199 -2.59304 1.73279e-18 
5.7742 -2.59402 1.07358e-18 
6.00409 -2.60199 8.38179e-19 
6.22901 -2.58865 1.58881e-18 
6.45306 -2.59137 9.20028e-19 
6.67908 -2.58972 2.02811e-18 
6.89323 -2.57303 1.52987e-18 
7.13305 -2.62344 1.2376e-18 
7.38499 -2.60011 8.34766e-19 
7.61166 -2.5871 5.07573e-19 
7.86862 -2.63697 1.36866e-19 
8.07453 -2.54541 -6.7151e-19 
8.29934 -2.61268 -4.81366e-16 
8.48528 -2.5331 2.82502e-16 
-8.48528 -2.34855 5.02429e-17 
-8.24942 -2.34404 -3.05411e-17 
-8.01736 -2.34381 -8.29243e-19 
-7.78053 -2.41147 -3.95491e-19 
-7.57814 -2.26205 -6.36231e-19 
-7.48856 -2.46277 -6.64931e-19 
-7.20459 -2.40336 -1.0182e-18 
-6.98377 -2.34688 -9.8164e-19 
-6.75611 -2.3702 -1.24904e-18 
-6.50964 -2.35835 -9.16633e-19 
-6.27123 -2.37655 -6.6015e-19 
-6.04355 -2.34977 -7.81034e-19 
-5.82943 -2.33473 2.41066e-20 
-5.58939 -2.34682 -1.52668e-19 
-5.37247 -2.37245 -7.86296e-19 
-5.14175 -2.36112 -2.19886e-18 
-4.92105 -2.36732 -4.90558e-18 
-4.69889 -2.36593 -9.33947e-18 
-4.47958 -2.37452 -1.37818e-17 
-4.26439 -2.36834 -1.30532e-17 
-4.04828 -2.35748 7.96182e-18 
-3.83744 -2.35812 1.00943e-16 
-3.62281 -2.36012 4.44409e-16 
-3.40452 -2.36848 1.66926e-15 
-3.18115 -2.37343 5.18346e-15 
-2.95616 -2.36373 1.37535e-14 
-2.72531 -2.35006 3.34356e-14 
-2.49515 -2.37833 -2.48649e-18 
-2.2498 -2.41657 -7.63238e-18 
-2.00071 -2.39202 -1.91573e-17 
-1.75216 -2.30874 -4.01969e-17 
-1.5383 -2.32159 -3.4677e-17 
-1.38363 -2.42591 -2.85938e-16 
-1.16233 -2.36372 -4.3467e-16 
-0.981868 -2.38291 -6.91342e-16 
-0.696246 -2.30175 7.22826e-16 
-0.643245 -2.646 -1.56327e-14 
-0.400412 -2.72675 -3.84073e-14 
-0.282654 -2.65627 -1.02068e-13 
-0.137341 -2.65455 -1.44575e-13 
0.297359 -2.59856 3.57576e-14 
0.476684 -2.69111 6.55115e-14 
0.573827 -2.45073 9.65634e-15 
0.7755 -2.45592 -1.68801e-15 
0.953986 -2.44508 1.04701e-15 
1.03708 -2.18868 2.36503e-16 
1.29531 -2.34477 3.85151e-16 
1.49452 -2.3531 1.79928e-16 
1.72977 -2.40853 8.21436e-17 
1.97278 -2.41133 2.98733e-17 
2.22024 -2.41238 1.10482e-17 
2.46021 -2.3809 3.03028e-18 
2.70144 -2.35003 -3.90362e-14 
2.93885 -2.36242 -1.93355e-14 
3.15947 -2.38252 -8.41091e-15 
3.37942 -2.34968 -1.78034e-15 
3.60189 -2.35202 -8.24716e-16 
3.81402 -2.36322 -2.3499e-16 
4.02886 -2.37423 -5.14534e-17 
4.24461 -2.36235 -1.12985e-18 
4.4562 -2.36177 1.07401e-17 
4.66341 -2.35072 1.00961e-17 
4.87409 -2.36486 6.27589e-18 
5.08396 -2.35159 3.44321e-18 
5.29924 -2.36819 1.75828e-18 
5.51506 -2.36134 4.22534e-19 
5.73517 -2.36129 1.62738e-19 
5.95944 -2.37303 -2.45305e-19 
6.18411 -2.35742 8.94301e-19 
6.41169 -2.35462 7.50039e-19 
6.63506 -2.35572 9.63015e-19 
6.85759 -2.32427 9.02669e-19 
7.07961 -2.38478 1.01043e-18 
7.30915 -2.39425 8.22035e-19 
7.55629 -2.34713 4.42276e-19 
7.79178 -2.40904 3.16283e-19 
8.00121 -2.31855 7.75794e-19 
8.24808 -2.35076 2.53766e-16 
8.48528 -2.30439 -2.10584e-16 
-8.48528 -2.09511 -3.55585e-17 
-8.27068 -2.10484 4.65123e-17 
-8.04855 -2.09145 -2.53509e-19 
-7.81446 -2.16529 4.50124e-20 
-7.54771 -2.05192 -6.17635e-20 
-7.31956 -2.23575 -4.5789e-19 
-7.08348 -2.12054 -2.94814e-19 
-6.83616 -2.12859 -2.45423e-19 
-6.61353 -2.14633 -2.07703e-19 
-6.36202 -2.1473 -7.53849e-20 
-6.1432 -2.12645 -1.83186e-19 
-5.9242 -2.09384 3.90608e-19 
-5.69754 -2.12241 3.04323e-19 
-5.46896 -2.12141 -1.13272e-19 
-5.25724 -2.14273 2.89728e-19 
-5.03208 -2.13491 -1.12678e-18 
-4.8157 -2.14055 -1.84503e-18 
-4.59628 -2.14338 -3.94932e-18 
-4.38562 -2.14307 -6.14411e-18 
-4.17366 -2.13651 -7.25159e-18 
-3.96077 -2.12435 -5.66719e-18 
-3.74989 -2.12789 1.622e-17 
-3.53352 -2.1342 1.19902e-16 
-3.31481 -2.14284 5.21497e-16 
-3.09383 -2.14149 1.51017e-15 
-2.86584 -2.1313 3.54394e-15 
-2.62575 -2.12859 1.01878e-14 
-2.38699 -2.17251 4.13422e-14 
-2.15052 -2.18912 -2.8031e-18 
-1.90679 -2.14724 -4.26148e-18 
-1.63679 -2.07678 -5.06015e-18 
-1.42329 -2.07628 9.16464e-18 
-1.27666 -2.20362 2.31438e-17 
-1.15052 -2.00519 -2.57338e-17 
-1.03077 -2.16155 1.0592e-16 
-0.852358 -2.18981 -4.03011e-16 
-0.668528 -2.46626 -7.54175e-15 
-0.490157 -2.62047 -5.14158e-14 
-0.360669 -2.54945 -9.62866e-14 
0.18465 -2.69146 1.31318e-13 
0.65291 -2.59281 -1.00689e-15 
0.456605 -2.32146 2.42607e-15 
0.669417 -2.31034 7.21522e-15 
0.8655 -2.27957 1.10249e-15 
0.892541 -2.05248 -1.08345e-15 
1.07512 -1.95199 -3.53821e-16 
1.23422 -2.10735 -1.57167e-16 
1.44091 -2.11872 -5.57786e-17 
1.67882 -2.17987 1.91235e-17 
1.92062 -2.19514 7.89514e-18 
2.18387 -2.19382 3.03042e-18 
2.44016 -2.16394 -5.01665e-14 
2.69153 -2.1287 -5.37849e-15 
2.93548 -2.13594 -3.05598e-15 
3.17012 -2.14697 -1.18597e-15 
3.40179 -2.12446 -1.73598e-16 
3.62097 -2.12068 -2.77265e-17 
3.84077 -2.138 4.07465e-18 
4.05356 -2.14673 1.40091e-17 
4.26885 -2.13219 1.1014e-17 
4.47566 -2.12409 7.36797e-18 
4.69193 -2.12187 4.10791e-18 
4.89962 -2.12692 2.02453e-18 
5.12006 -2.12386 2.64228e-19 
5.33255 -2.13289 -1.3872e-19 
5.55242 -2.12965 -9.62183e-20 
5.77827 -2.13431 -6.27767e-19 
5.99902 -2.13841 -4.80118e-19 
6.22933 -2.12714 -2.5686e-19 
6.45357 -2.11856 1.71136e-19 
6.67241 -2.11314 -5.38255e-19 
6.90942 -2.09493 1.99035e-19 
7.12715 -2.15333 2.39551e-19 
7.36041 -2.16777 2.24352e-19 
7.56181 -2.078 1.23213e-19 
7.76052 -2.16815 -3.97311e-19 
7.98259 -2.08284 1.03252e-19 
8.21371 -2.12849 -2.76391e-17 
8.48528 -2.10503 2.78607e-17 
-8.48528 -1.81472 9.41243e-18 
-8.29262 -1.85506 -1.87648e-17 
-7.88749 -1.91069 -1.61302e-20 
[...]
POINT_DATA 1978 
VECTORS vectors float
7.76655e-06 4.4889e-05 1 
-7.38107e-07 -0.00149917 0.999999 
1.10154e-06 -0.00146093 0.999999 
2.70866e-07 -0.00148048 0.999999 
5.20856e-07 -0.00155476 0.999999 
2.86594e-07 -0.00165986 0.999999 
-3.76511e-08 -0.0017696 0.999998 
-3.06828e-07 -0.00187355 0.999998 
-4.24037e-07 -0.00197472 0.999998 
-3.54212e-07 -0.00204926 0.999998 
-2.98669e-07 -0.0021104 0.999998 
-2.12067e-07 -0.00214843 0.999998 
-7.34995e-08 -0.00216552 0.999998 
-3.19625e-08 -0.00215752 0.999998 
1.42659e-07 -0.00212392 0.999998 
3.29206e-07 -0.00205907 0.999998 
7.78349e-07 -0.00193316 0.999998 
1.12088e-06 -0.00172749 0.999999 
1.80926e-06 -0.00140693 0.999999 
2.64054e-06 -0.00095453 1 
3.60349e-06 -0.000364098 1 
4.70026e-06 0.000464033 1 
5.20313e-06 0.00164573 0.999999 
5.3042e-06 0.00337372 0.999994 
7.05923e-06 0.00583684 0.999983 
1.14863e-05 0.00926132 0.999957 
9.93044e-06 0.0136971 0.999906 
-1.22978e-05 0.0198902 0.999802 
-3.73546e-05 0.0293257 0.99957 
8.80125e-06 0.0435925 0.999049 
5.47143e-05 0.0611258 0.99813 
9.06294e-05 0.0821871 0.996617 
0.000163612 0.116331 0.993211 
0.000357625 0.160905 0.98697 
0.000484734 0.210931 0.977501 
0.000667979 0.27157 0.962418 
0.000435825 0.349531 0.936925 
-0.0012883 0.434941 0.900458 
-0.00551168 0.801065 0.598552 
-0.00303082 0.978041 -0.20839 
-0.000455478 0.749183 -0.662362 
-0.000643893 0.425 -0.905193 
-0.000235456 0.336601 -0.941647 
-0.000823301 0.263489 -0.964662 
-0.000392853 0.206197 -0.97851 
-0.000342068 0.160026 -0.987113 
-0.000289911 0.123037 -0.992402 
-0.000113553 0.0893947 -0.995996 
3.48378e-05 0.0608828 -0.998145 
3.68125e-05 0.041554 -0.999136 
1.11626e-05 0.0280292 -0.999607 
-9.08863e-06 0.0197147 -0.999806 
-1.21778e-05 0.0140756 -0.999901 
-1.16923e-05 0.00962621 -0.999954 
-1.10298e-05 0.00619323 -0.999981 
-1.19469e-05 0.00389672 -0.999992 
-9.02571e-06 0.00210694 -0.999998 
-5.99936e-06 0.000848951 -1 
-2.53968e-06 -4.79654e-05 -1 
-2.10419e-06 -0.000718045 -1 
-2.28554e-06 -0.00121959 -0.999999 
-1.90672e-06 -0.00161353 -0.999999 
-1.21528e-06 -0.00188124 -0.999998 
-5.39534e-07 -0.00204824 -0.999998 
-1.58241e-07 -0.00212437 -0.999998 
3.16373e-08 -0.00214919 -0.999998 
7.333e-08 -0.00215047 -0.999998 
1.18721e-07 -0.00213249 -0.999998 
1.62239e-07 -0.00209329 -0.999998 
1.99132e-07 -0.00203529 -0.999998 
3.10408e-07 -0.00195603 -0.999998 
2.23579e-07 -0.00186265 -0.999998 
-3.57315e-08 -0.00176792 -0.999998 
-1.97694e-07 -0.00165013 -0.999999 
-1.59427e-07 -0.00156864 -0.999999 
1.62497e-08 -0.00151257 -0.999999 
-6.2516e-07 -0.00148377 -0.999999 
-4.61784e-07 -0.00149008 -0.999999 
-5.71789e-06 0.000363575 -1 
0.00011243 0.00141572 0.999999 
5.44128e-05 -0.00142924 0.999999 
3.77864e-05 -0.00143962 0.999999 
3.34845e-05 -0.00146779 0.999999 
3.85171e-05 -0.00152667 0.999999 
5.32485e-05 -0.00163041 0.999999 
6.6771e-05 -0.00172636 0.999999 
7.0217e-05 -0.00183795 0.999998 
7.45849e-05 -0.00191519 0.999998 
6.12324e-05 -0.00199311 0.999998 
4.66824e-05 -0.00203702 0.999998 
2.03367e-05 -0.00205916 0.999998 
-1.19416e-05 -0.00204588 0.999998 
-5.20237e-05 -0.00203878 0.999998 
-0.000109964 -0.00196374 0.999998 
-0.000170518 -0.0018555 0.999998 
-0.000247605 -0.00166518 0.999999 
-0.000324653 -0.00138646 0.999999 
-0.000413946 -0.000969662 0.999999 
-0.000535584 -0.000373065 1 
-0.000662935 0.00043189 1 
-0.000844398 0.00158852 0.999998 
-0.00108045 0.0032207 0.999994 
-0.00139047 0.00552876 0.999984 
-0.00175535 0.00875883 0.99996 
-0.0021971 0.0132041 0.99991 
-0.00249228 0.0189154 0.999818 
-0.00272385 0.0271337 0.999628 
-0.00304941 0.0404468 0.999177 
-0.00378902 0.060495 0.998161 
-0.00379166 0.083634 0.996489 
-0.00394126 0.111381 0.99377 
-0.00326072 0.160582 0.987017 
-0.0012241 0.216089 0.976373 
0.00146439 0.278618 0.960401 
0.0458628 0.301311 0.952422 
0.00770798 0.354364 0.935076 
-0.00808222 0.548902 0.835848 
-0.0106167 0.912693 0.408507 
-0.0146361 0.998017 0.061218 
-0.017356 0.807276 -0.589919 
0.00464725 0.532179 -0.846619 
-0.00751904 0.40266 -0.915319 
-0.000723533 0.309297 -0.950965 
0.00356004 0.232355 -0.972625 
-0.0161433 0.19744 -0.980182 
0.00497152 0.173391 -0.98484 
0.0049572 0.124831 -0.992166 
0.00435645 0.082987 -0.996541 
0.00405756 0.0547271 -0.998493 
0.00359315 0.0365109 -0.999327 
0.00318758 0.024784 -0.999688 
0.00276795 0.0173007 -0.999847 
0.0021871 0.0118648 -0.999927 
0.00170692 0.00774557 -0.999969 
0.001419 0.00485419 -0.999987 
0.00107168 0.00280667 -0.999995 
0.00079665 0.00126317 -0.999999 
0.000602873 0.00018603 -1 
0.000497324 -0.000521526 -1 
0.000397836 -0.00105909 -0.999999 
0.000321104 -0.00143673 -0.999999 
0.000227446 -0.00172945 -0.999998 
0.000159034 -0.00189184 -0.999998 
8.68266e-05 -0.00199974 -0.999998 
3.3318e-05 -0.00203985 -0.999998 
-9.34998e-06 -0.00205325 -0.999998 
-3.96617e-05 -0.00204406 -0.999998 
-6.16904e-05 -0.00200319 -0.999998 
-7.05216e-05 -0.0019451 -0.999998 
-7.24955e-05 -0.00186793 -0.999998 
-7.21323e-05 -0.00178202 -0.999998 
-5.39519e-05 -0.00169357 -0.999999 
-4.9421e-05 -0.00159676 -0.999999 
-4.10005e-05 -0.00152937 -0.999999 
-2.79196e-05 -0.00148418 -0.999999 
-3.49963e-05 -0.00145365 -0.999999 
-4.12209e-05 -0.00144806 -0.999999 
-8.57525e-05 0.00163886 -0.999999 
0.000105817 0.00133458 0.999999 
5.87215e-05 -0.00138697 0.999999 
4.42724e-05 -0.00142142 0.999999 
4.76196e-05 -0.00145797 0.999999 
5.6206e-05 -0.00150789 0.999999 
5.99999e-05 -0.00153534 0.999999 
8.11473e-05 -0.00162425 0.999999 
9.58862e-05 -0.00169713 0.999999 
0.000102639 -0.00178065 0.999998 
0.000104466 -0.00186455 0.999998 
9.00464e-05 -0.00193222 0.999998 
6.44673e-05 -0.00195644 0.999998 
2.60681e-05 -0.00195758 0.999998 
-3.32235e-05 -0.00193735 0.999998 
-9.66055e-05 -0.00189631 0.999998 
-0.000183092 -0.00178739 0.999998 
-0.000277163 -0.00163314 0.999999 
-0.000384998 -0.00138777 0.999999 
-0.000497915 -0.00103768 0.999999 
-0.00061967 -0.000522878 1 
-0.000758697 0.000226097 1 
-0.000927215 0.00125398 0.999999 
-0.00116257 0.00273711 0.999996 
-0.00149021 0.0047965 0.999987 
-0.00190112 0.00762019 0.999969 
-0.00228572 0.0114338 0.999932 
-0.00252492 0.0166385 0.999858 
-0.00280838 0.0235426 0.999719 
-0.0030907 0.0338999 0.99942 
-0.00267719 0.0492362 0.998784 
0.000435038 0.0696654 0.99757 
0.00499743 0.0965936 0.995311 
0.00351622 0.12892 0.991649 
0.0153556 0.176859 0.984116 
0.0313197 0.233931 0.971749 
0.0944804 0.325877 0.940679 
0.018009 0.446446 0.894629 
0.0101662 0.660991 0.750325 
0.0161156 0.823007 0.567802 
-0.002946 0.963085 0.269182 
-0.0749342 0.819872 -0.567622 
-0.0151928 0.655161 -0.755336 
-0.0673528 0.453156 -0.888883 
-0.0390742 0.346201 -0.937346 
-0.0259428 0.26051 -0.965123 
-0.0498162 0.195022 -0.979533 
-0.00701928 0.149029 -0.988808 
-0.00226259 0.109424 -0.993993 
0.00250618 0.0809691 -0.996713 
0.00365859 0.0551464 -0.998472 
0.00397728 0.0380076 -0.99927 
0.00363369 0.0262992 -0.999648 
0.00311199 0.0181449 -0.999831 
0.00273588 0.0126209 -0.999917 
0.00222933 0.00857561 -0.999961 
0.00172255 0.00564868 -0.999983 
0.00132911 0.003363 -0.999993 
0.00104282 0.00172155 -0.999998 
0.000829235 0.000560709 -0.999999 
0.000684389 -0.000206931 -1 
0.000559706 -0.000781041 -1 
0.000451715 -0.00118246 -0.999999 
0.000340015 -0.00149829 -0.999999 
0.000240391 -0.00169191 -0.999999 
0.000142321 -0.00183813 -0.999998 
6.08728e-05 -0.00191154 -0.999998 
-6.36112e-06 -0.00195141 -0.999998 
-5.58666e-05 -0.00196538 -0.999998 
-8.83578e-05 -0.00194188 -0.999998 
-0.000103873 -0.00189699 -0.999998 
-0.000105702 -0.00183376 -0.999998 
-0.000100554 -0.00175211 -0.999998 
-8.74817e-05 -0.00168878 -0.999999 
-7.3078e-05 -0.0016088 -0.999999 
-5.71353e-05 -0.00153014 -0.999999 
-4.47149e-05 -0.00148312 -0.999999 
-3.8382e-05 -0.00144765 -0.999999 
-4.6523e-05 -0.00141381 -0.999999 
-7.08706e-05 0.00105288 -0.999999 
4.35218e-05 0.00145321 0.999999 
2.91055e-05 -0.00135285 0.999999 
2.02694e-05 -0.00140117 0.999999 
3.46431e-05 -0.00144415 0.999999 
3.8333e-05 -0.00150751 0.999999 
7.20712e-05 -0.00157622 0.999999 
7.81519e-05 -0.00163497 0.999999 
9.55942e-05 -0.00172048 0.999999 
0.000104461 -0.00179166 0.999998 
9.89995e-05 -0.00185461 0.999998 
7.86173e-05 -0.00188127 0.999998 
4.34341e-05 -0.00187899 0.999998 
-6.60828e-06 -0.00186884 0.999998 
-7.1495e-05 -0.0018114 0.999998 
-0.000142593 -0.0017339 0.999998 
-0.000229118 -0.00158717 0.999999 
-0.000321646 -0.00138311 0.999999 
-0.000419982 -0.00107832 0.999999 
-0.000513653 -0.000658039 1 
-0.000603034 -4.98009e-05 1 
-0.000687876 0.000827488 0.999999 
-0.000797977 0.00204848 0.999998 
-0.000944361 0.00378875 0.999992 
-0.00114066 0.00612981 0.999981 
-0.00130525 0.00919055 0.999957 
-0.00127622 0.0132398 0.999912 
-0.000967162 0.0188161 0.999822 
-0.000849876 0.0265632 0.999647 
-0.000121979 0.0374036 0.9993 
0.00304207 0.052204 0.998632 
0.0114244 0.072516 0.997302 
0.0228147 0.0972252 0.995001 
0.0230876 0.13114 0.991095 
0.0502261 0.128672 0.990414 
0.048213 0.174521 0.983472 
0.0792899 0.227484 0.970548 
0.0566633 0.437001 0.897674 
0.0486691 0.635267 0.770758 
0.0683505 0.79671 0.600484 
-0.0413309 0.954246 -0.296152 
-0.0348468 0.515237 -0.856339 
-0.163154 0.498845 -0.851196 
-0.103272 0.370998 -0.922874 
-0.068818 0.270769 -0.960181 
-0.0948157 0.206611 -0.973818 
-0.0616992 0.142632 -0.987851 
-0.0324649 0.139779 -0.98965 
-0.0186023 0.105837 -0.99421 
-0.00565748 0.0772135 -0.996999 
-0.000792279 0.0553056 -0.998469 
0.00122855 0.0373303 -0.999302 
0.00175872 0.0258638 -0.999664 
0.00167865 0.0180203 -0.999836 
0.00179303 0.0127178 -0.999918 
0.00159094 0.00876056 -0.99996 
0.00121223 0.00570373 -0.999983 
0.000992841 0.0034473 -0.999994 
0.000842256 0.00182709 -0.999998 
0.000713454 0.000710223 -0.999999 
0.000598374 -8.54443e-05 -1 
0.000504407 -0.00063662 -1 
0.000409378 -0.00106077 -0.999999 
0.000318509 -0.0013585 -0.999999 
0.000222139 -0.00157702 -0.999999 
0.000134548 -0.00172353 -0.999999 
5.33928e-05 -0.00181511 -0.999998 
-1.50971e-05 -0.00187005 -0.999998 
-6.35741e-05 -0.00188928 -0.999998 
-9.41341e-05 -0.00187486 -0.999998 
-0.000105167 -0.00183573 -0.999998 
-0.000102159 -0.00178016 -0.999998 
-8.92367e-05 -0.00171032 -0.999999 
-7.7366e-05 -0.00164338 -0.999999 
-6.16682e-05 -0.00158082 -0.999999 
-3.91178e-05 -0.00152417 -0.999999 
-3.605e-05 -0.00148273 -0.999999 
-2.07836e-05 -0.00144401 -0.999999 
-2.5519e-05 -0.00140143 -0.999999 
-3.79636e-05 0.00116585 -0.999999 
-3.65221e-05 0.00139619 0.999999 
-1.85619e-05 -0.0013383 0.999999 
2.99765e-06 -0.00143715 0.999999 
1.26289e-05 -0.00147918 0.999999 
1.52903e-05 -0.00153096 0.999999 
4.88658e-05 -0.00156576 0.999999 
4.57232e-05 -0.00160072 0.999999 
7.1785e-05 -0.00166549 0.999999 
8.6462e-05 -0.00172813 0.999999 
9.47643e-05 -0.00178876 0.999998 
8.39756e-05 -0.00181639 0.999998 
5.97365e-05 -0.00182475 0.999998 
1.56588e-05 -0.00181159 0.999998 
-3.62903e-05 -0.00177268 0.999998 
-9.82215e-05 -0.00169139 0.999999 
-0.000163622 -0.00158396 0.999999 
-0.00023494 -0.00140449 0.999999 
-0.000308443 -0.00115941 0.999999 
-0.000371984 -0.000814405 1 
-0.0004255 -0.000340714 1 
-0.000457271 0.000335713 1 
-0.000461825 0.00131196 0.999999 
-0.000457902 0.00268352 0.999996 
-0.000420054 0.00457715 0.999989 
-0.000338853 0.00704797 0.999975 
-0.000103667 0.0101963 0.999948 
0.000443814 0.0143703 0.999897 
0.00144956 0.020161 0.999796 
0.00268982 0.0277123 0.999612 
0.00522863 0.0379658 0.999265 
0.0113446 0.05196 0.998585 
0.0236549 0.0664168 0.997512 
0.0397141 0.0892013 0.995222 
0.0695258 0.109434 0.99156 
0.0909677 0.164779 0.982127 
0.145456 0.161744 0.976054 
0.135948 0.233203 0.962878 
0.135245 0.452572 0.881412 
0.1069 0.571983 0.81327 
0.0846856 0.922049 0.377696 
-0.133442 0.895308 -0.424989 
-0.265839 0.564005 -0.78181 
-0.129491 0.276773 -0.952171 
-0.164062 0.211612 -0.963485 
-0.103276 0.153591 -0.982723 
-0.0656289 0.100358 -0.992785 
-0.0409806 0.0985272 -0.99429 
-0.0268979 0.0771401 -0.996657 
-0.0141141 0.0686875 -0.997538 
-0.00678657 0.0494825 -0.998752 
-0.00268121 0.0359719 -0.999349 
-0.000973149 0.0250516 -0.999686 
-0.00033976 0.0176657 -0.999844 
0.000333342 0.0128462 -0.999917 
0.000591238 0.00909085 -0.999959 
0.000564993 0.00618549 -0.999981 
0.000535532 0.00381666 -0.999993 
0.000541274 0.00218778 -0.999997 
0.000509657 0.00102468 -0.999999 
0.000467611 0.000202544 -1 
0.00040988 -0.000399382 -1 
0.000360077 -0.000837418 -1 
0.000291165 -0.00116675 -0.999999 
0.000222698 -0.00141053 -0.999999 
0.000144697 -0.00158511 -0.999999 
7.28359e-05 -0.001703 -0.999999 
5.61009e-06 -0.00178264 -0.999998 
-4.70309e-05 -0.0018213 -0.999998 
-8.09332e-05 -0.00182899 -0.999998 
-9.56285e-05 -0.00180461 -0.999998 
-9.28469e-05 -0.00176066 -0.999998 
-7.98744e-05 -0.00170828 -0.999999 
-5.9231e-05 -0.00163996 -0.999999 
-4.51307e-05 -0.00158628 -0.999999 
-1.92053e-05 -0.00152845 -0.999999 
-9.51419e-06 -0.00147451 -0.999999 
4.91463e-06 -0.00142745 -0.999999 
3.38767e-07 -0.00138281 -0.999999 
1.3686e-05 0.00123572 -0.999999 
-8.9723e-05 0.00120514 0.999999 
-6.24272e-05 -0.00136436 0.999999 
-2.13864e-05 -0.00139499 0.999999 
-2.76669e-05 -0.00144043 0.999999 
-1.3807e-05 -0.0014879 0.999999 
9.43202e-06 -0.00156299 0.999999 
3.84094e-05 -0.00162325 0.999999 
6.12323e-05 -0.00167457 0.999999 
7.79196e-05 -0.00173119 0.999998 
7.95958e-05 -0.00176429 0.999998 
6.34287e-05 -0.00177543 0.999998 
3.15111e-05 -0.00177454 0.999998 
-1.59218e-05 -0.0017396 0.999998 
-6.75414e-05 -0.00167891 0.999999 
-0.000124987 -0.00157447 0.999999 
-0.000178887 -0.00143749 0.999999 
-0.000231733 -0.00122951 0.999999 
-0.000275079 -0.000951841 1 
-0.000302645 -0.000565631 1 
-0.000307557 -3.78774e-05 1 
-0.000274584 0.000716266 1 
-0.000184862 0.0018173 0.999998 
-2.35378e-05 0.0033344 0.999994 
0.000252111 0.00537337 0.999986 
0.00068699 0.00793398 0.999968 
0.00138021 0.011194 0.999936 
0.0025479 0.015555 0.999876 
0.00452038 0.0210716 0.999768 
0.00715481 0.0281889 0.999577 
0.0119339 0.0379329 0.999209 
0.0213037 0.0475961 0.998639 
0.0385342 0.0609266 0.997398 
0.0599694 0.0743977 0.995424 
0.081274 0.0636782 0.994656 
0.102329 0.109616 0.988693 
0.129566 0.0843893 0.987973 
0.221554 0.24261 0.944486 
0.159408 0.318395 0.934459 
0.156015 0.6892 0.707575 
-0.0447259 0.992405 -0.114594 
-0.0717871 0.629841 -0.7734 
-0.190185 0.34352 -0.919687 
-0.230458 0.195745 -0.953191 
-0.152736 0.133621 -0.979192 
-0.100608 0.10356 -0.989522 
-0.0697306 0.0672595 -0.995296 
-0.0464405 0.0672877 -0.996652 
-0.0283275 0.0566413 -0.997993 
-0.0161235 0.0494806 -0.998645 
-0.00929741 0.0378501 -0.99924 
-0.00522702 0.0289737 -0.999567 
-0.00287922 0.0209011 -0.999777 
-0.00183895 0.0148372 -0.999888 
-0.000827135 0.0109719 -0.999939 
-0.000322506 0.00784516 -0.999969 
-1.64348e-05 0.00523425 -0.999986 
0.000133333 0.00322512 -0.999995 
0.000249347 0.00182521 -0.999998 
0.000301616 0.000813365 -1 
0.000320879 8.39136e-05 -1 
0.000306482 -0.000459603 -1 
0.000282834 -0.000852841 -1 
0.000237065 -0.00115428 -0.999999 
0.000183796 -0.00138182 -0.999999 
0.000120942 -0.00153939 -0.999999 
5.66212e-05 -0.00165895 -0.999999 
-1.976e-06 -0.00173476 -0.999998 
-4.77101e-05 -0.00177255 -0.999998 
-7.60854e-05 -0.00178126 -0.999998 
-8.38218e-05 -0.0017595 -0.999998 
-7.54141e-05 -0.00172261 -0.999999 
-5.81603e-05 -0.00167427 -0.999999 
-3.32729e-05 -0.0016208 -0.999999 
-1.7188e-05 -0.00157205 -0.999999 
7.95856e-06 -0.0015218 -0.999999 
1.14877e-05 -0.00147885 -0.999999 
2.70238e-05 -0.00144002 -0.999999 
3.02703e-05 -0.00139434 -0.999999 
4.73371e-05 0.00105972 -0.999999 
-0.000112988 0.00117343 0.999999 
-8.35517e-05 -0.0013915 0.999999 
-5.3572e-05 -0.00141513 0.999999 
-4.56406e-05 -0.00146216 0.999999 
-2.12843e-05 -0.00151555 0.999999 
-1.56312e-05 -0.00155989 0.999999 
1.2644e-05 -0.00160673 0.999999 
3.72432e-05 -0.00164904 0.999999 
6.00204e-05 -0.00169706 0.999999 
6.6072e-05 -0.00172189 0.999999 
5.95185e-05 -0.00173704 0.999998 
3.29177e-05 -0.00173673 0.999998 
-7.44152e-06 -0.00171122 0.999999 
-5.69996e-05 -0.0016544 0.999999 
-0.000105364 -0.00157208 0.999999 
-0.000151837 -0.00144346 0.999999 
-0.000190045 -0.00127948 0.999999 
-0.000217731 -0.00104612 0.999999 
-0.000229645 -0.000735347 1 
-0.00021548 -0.000309429 1 
-0.000166835 0.00027436 1 
-5.88197e-05 0.00112277 0.999999 
0.000151488 0.00232464 0.999997 
0.000499928 0.00394909 0.999992 
0.00105601 0.00602845 0.999981 
0.0018681 0.00861378 0.999961 
0.00305855 0.0119088 0.999924 
0.00495114 0.0158857 0.999862 
0.00790167 0.0206738 0.999755 
0.0119476 0.026935 0.999566 
0.0186908 0.0332911 0.999271 
0.0314567 0.0414968 0.998643 
0.0508857 0.0443822 0.997718 
0.0691899 0.0314962 0.997106 
0.108926 0.0418311 0.993169 
0.178501 0.0575846 0.982253 
0.192647 0.128923 0.972762 
0.2336 0.382829 0.893797 
0.257408 0.551321 0.793591 
-0.00940915 0.992967 0.118019 
-0.148143 0.678843 -0.719184 
-0.272104 0.347472 -0.897342 
-0.21555 0.108744 -0.970419 
-0.151241 0.0741741 -0.98571 
-0.106153 0.0661138 -0.992149 
-0.0714835 0.0405234 -0.996618 
-0.047894 0.0436959 -0.997896 
-0.0320547 0.0425076 -0.998582 
-0.0195126 0.0380302 -0.999086 
-0.0123003 0.0309057 -0.999447 
-0.00770977 0.0240461 -0.999681 
-0.00484853 0.0190551 -0.999807 
-0.00359474 0.0141215 -0.999894 
-0.00206003 0.0105754 -0.999942 
-0.00116436 0.00766671 -0.99997 
-0.000578167 0.00526954 -0.999986 
-0.000238479 0.00333831 -0.999994 
-4.52063e-06 0.00187361 -0.999998 
0.000129241 0.000887426 -1 
0.00020249 0.000172933 -1 
0.000232534 -0.000342915 -1 
0.000234376 -0.000753361 -1 
0.000216031 -0.00104647 -0.999999 
0.000177789 -0.00128682 -0.999999 
0.000128575 -0.00145329 -0.999999 
7.14106e-05 -0.00158383 -0.999999 
1.6276e-05 -0.00167077 -0.999999 
-3.01613e-05 -0.00172124 -0.999999 
-6.16241e-05 -0.00174132 -0.999998 
-7.16389e-05 -0.00173207 -0.999998 
-6.30686e-05 -0.00170453 -0.999999 
-4.51078e-05 -0.00166858 -0.999999 
-1.80028e-05 -0.00161663 -0.999999 
5.27097e-06 -0.00156794 -0.999999 
2.8615e-05 -0.00152281 -0.999999 
3.40894e-05 -0.00147924 -0.999999 
4.62724e-05 -0.00144364 -0.999999 
5.0125e-05 -0.00140208 -0.999999 
6.74609e-05 0.00124972 -0.999999 
-0.000111207 0.00110729 0.999999 
-8.54611e-05 -0.00141924 0.999999 
-6.71344e-05 -0.00143694 0.999999 
-6.02677e-05 -0.00147725 0.999999 
-4.23428e-05 -0.00151052 0.999999 
-2.80499e-05 -0.00156405 0.999999 
1.98462e-06 -0.00160764 0.999999 
2.57321e-05 -0.00164772 0.999999 
4.82123e-05 -0.00167918 0.999999 
5.09919e-05 -0.00168877 0.999999 
4.44176e-05 -0.00170923 0.999999 
1.58709e-05 -0.00169539 0.999999 
-2.5502e-05 -0.00166462 0.999999 
-7.2306e-05 -0.00160373 0.999999 
-0.00011598 -0.00152379 0.999999 
-0.00015153 -0.0013969 0.999999 
-0.000178003 -0.00124057 0.999999 
-0.000189683 -0.00102292 0.999999 
-0.000183167 -0.000734625 1 
-0.000148173 -0.000349987 1 
-7.2664e-05 0.000205337 1 
7.32907e-05 0.000984019 1 
0.00033588 0.00205546 0.999998 
0.000775557 0.00351954 0.999994 
0.00147931 0.00539508 0.999984 
0.0025221 0.00776236 0.999967 
0.00398431 0.0105644 0.999936 
0.00612846 0.0136558 0.999888 
0.00910445 0.0165857 0.999821 
0.0132423 0.0206684 0.999699 
0.020783 0.0257271 0.999453 
0.0322852 0.0283706 0.999076 
0.044327 0.0227287 0.998758 
0.0686415 0.00723151 0.997615 
0.105731 0.0041158 0.994386 
0.164737 0.0106884 0.98628 
0.279136 0.185951 0.942075 
0.377257 0.336973 0.862627 
0.254831 0.781466 0.569537 
-0.038618 0.99915 0.0144109 
-0.261917 0.774952 -0.575194 
-0.392941 0.335612 -0.856132 
-0.199295 0.0463075 -0.978845 
-0.138517 0.0145036 -0.990254 
-0.10452 0.0282587 -0.994121 
-0.0718999 0.0132806 -0.997323 
-0.0486761 0.023262 -0.998544 
-0.0331451 0.0276653 -0.999068 
-0.022365 0.02877 -0.999336 
-0.0143291 0.0242734 -0.999603 
-0.00939464 0.019623 -0.999763 
-0.006192 0.0156008 -0.999859 
-0.00383128 0.0112435 -0.999929 
-0.00237398 0.00842297 -0.999962 
-0.00138201 0.00601823 -0.999981 
-0.000757545 0.00404789 -0.999992 
-0.000340938 0.00245302 -0.999997 
-9.39741e-05 0.00129502 -0.999999 
5.93277e-05 0.000493918 -1 