# vtk DataFile Version 3.0 
Exported using Morpho https://github.com/Morpho-lang/morpho 
ASCII 
DATASET UNSTRUCTURED_GRID 

POINTS 1978 float 
-12 -4 -1.53565e-11 
-11.6293 -4 2.51981e-12 
-11.347 -4 2.59718e-12 
-10.9949 -4 2.41648e-12 
-10.6623 -4 2.14189e-12 
-10.325 -4 2.1746e-12 
-9.99436 -4 -2.98825e-13 
-9.67611 -4 3.06533e-12 
-9.34282 -4 1.70519e-12 
-9.0095 -4 -2.35084e-12 
-8.68478 -4 3.25744e-12 
-8.36993 -4 -2.28677e-12 
-8.05914 -4 4.65951e-14 
-7.77333 -4 6.61833e-13 
-7.48878 -4 7.07684e-13 
-7.20277 -4 -6.48475e-13 
-6.91642 -4 -2.67314e-14 
-6.61444 -4 9.05866e-14 
-6.31657 -4 -4.32828e-13 
-6.01444 -4 -9.46848e-13 
-5.71714 -4 -8.11436e-13 
-5.42343 -4 -3.28325e-13 
-5.12852 -4 -5.38719e-13 
-4.83474 -4 -1.71369e-12 
-4.51798 -4 -1.77183e-12 
-4.20333 -4 -1.97427e-12 
-3.91632 -4 -3.60404e-12 
-3.61375 -4 -5.2114e-12 
-3.29771 -4 -2.94709e-12 
-3.03637 -4 -3.47944e-12 
-2.763 -4 -1.19814e-11 
-2.52316 -4 1.83806e-12 
-2.30842 -4 -2.7966e-12 
-2.08849 -4 -8.09077e-12 
-1.85645 -4 -1.26853e-12 
-1.65514 -4 -1.06376e-11 
-1.36248 -4 -9.28422e-11 
-1.11516 -4 -3.72368e-10 
-0.847254 -4 1.35921e-10 
-0.47229 -4 4.77918e-08 
0.53573 -4 4.32313e-08 
1.22754 -4 -1.77736e-09 
1.57477 -4 1.43545e-09 
1.7981 -4 -2.2423e-10 
1.99074 -4 1.47116e-11 
2.18206 -4 1.33387e-11 
2.38541 -4 9.76021e-12 
2.60338 -4 4.55237e-12 
2.82993 -4 6.01831e-12 
3.07337 -4 6.69797e-12 
3.33553 -4 1.73154e-12 
3.62882 -4 4.73058e-12 
3.93185 -4 6.06445e-12 
4.22511 -4 3.28769e-12 
4.51524 -4 1.22137e-12 
4.80721 -4 2.2765e-12 
5.10277 -4 1.43748e-12 
5.40094 -4 2.3985e-14 
5.71117 -4 1.14279e-12 
5.99619 -4 5.69597e-13 
6.28886 -4 3.89634e-13 
6.57447 -4 7.96093e-13 
6.87328 -4 1.86577e-13 
7.16399 -4 -7.22114e-13 
7.46712 -4 -2.28786e-13 
7.75542 -4 1.0759e-12 
8.06616 -4 -2.39118e-13 
8.36322 -4 2.247e-12 
8.66692 -4 -1.76601e-12 
8.95783 -4 3.04784e-12 
9.29378 -4 -2.95645e-12 
9.62427 -4 -1.12379e-12 
9.93045 -4 3.87421e-13 
10.3032 -4 -4.6397e-12 
10.6308 -4 7.9927e-14 
11.0018 -4 -3.4461e-12 
11.3223 -4 -1.6397e-12 
11.6074 -4 -2.56423e-12 
12 -4 1.80989e-11 
-12 -3.62502 -9.59574e-12 
-11.7063 -3.69755 -6.56873e-17 
-11.3711 -3.60475 6.82117e-18 
-11.073 -3.68232 9.45381e-18 
-10.7312 -3.66273 4.07535e-18 
-10.4013 -3.6724 3.81076e-18 
-10.0636 -3.67024 2.31622e-18 
-9.73147 -3.65965 2.78165e-18 
-9.4072 -3.67868 2.77178e-18 
-9.07058 -3.68025 -2.31539e-14 
-8.73706 -3.67451 -3.45023e-19 
-8.40856 -3.66649 -6.54425e-19 
-8.08761 -3.66606 -1.66726e-18 
-7.77629 -3.64881 -1.38258e-18 
-7.47817 -3.64576 -9.81936e-19 
-7.17919 -3.65597 1.30964e-18 
-6.86823 -3.67451 4.26796e-14 
-6.56029 -3.67075 -9.6435e-19 
-6.24936 -3.67679 -1.23393e-18 
-5.94292 -3.67272 -1.91992e-18 
-5.6416 -3.66959 -2.21718e-18 
-5.34067 -3.67176 -2.55462e-18 
-5.04113 -3.6697 -1.86841e-18 
-4.72855 -3.69304 -2.86019e-18 
-4.4088 -3.6929 -6.63677e-18 
-4.10653 -3.66218 -5.74105e-18 
-3.80571 -3.68869 -6.65481e-18 
-3.48911 -3.70481 -1.27549e-17 
-3.20978 -3.64606 -1.31039e-17 
-2.93956 -3.67063 -1.46757e-17 
-2.68608 -3.63691 4.20894e-18 
-2.44833 -3.63151 -8.39496e-17 
-2.21314 -3.64681 -9.38283e-18 
-1.9779 -3.66067 5.94229e-17 
-1.74714 -3.59397 -1.73843e-16 
-1.54222 -3.36286 6.33979e-17 
-1.48101 -3.70202 -4.78712e-17 
-1.18317 -3.61773 -3.28752e-17 
-0.383691 -3.52727 -5.95281e-14 
0.125069 -3.75565 4.54763e-13 
0.935809 -3.74334 -5.62418e-16 
1.36674 -3.65345 1.79282e-17 
1.37019 -3.31197 -1.41381e-16 
1.68935 -3.38732 6.65536e-17 
1.70748 -3.68465 6.95908e-17 
1.98485 -3.64429 -5.58461e-17 
2.2483 -3.6627 2.21538e-16 
2.48065 -3.65364 -7.0652e-17 
2.73216 -3.67081 4.35833e-17 
2.99185 -3.65688 2.25602e-17 
3.26522 -3.66188 9.8718e-18 
3.56165 -3.69189 1.32047e-17 
3.88314 -3.69331 1.03884e-17 
4.2043 -3.6726 5.57882e-18 
4.51071 -3.66706 4.56165e-18 
4.8155 -3.6666 5.26668e-18 
5.12199 -3.67247 5.34749e-18 
5.436 -3.68328 1.39201e-18 
5.73336 -3.65871 2.18936e-18 
6.03174 -3.66492 1.09515e-18 
6.32733 -3.65856 1.62431e-18 
6.62922 -3.66902 1.37514e-18 
6.92933 -3.66123 9.04949e-19 
7.23 -3.66942 5.45643e-19 
7.52596 -3.64975 -2.3386e-14 
7.8303 -3.67081 9.16212e-19 
8.13313 -3.65324 -1.20787e-18 
8.43871 -3.65929 -3.81679e-14 
8.73715 -3.64214 8.48072e-19 
9.05933 -3.68587 2.27855e-18 
9.39024 -3.68022 -3.90603e-18 
9.7069 -3.65208 3.04236e-19 
10.0552 -3.71238 -1.52407e-18 
10.3964 -3.66989 -4.78397e-18 
10.7526 -3.70594 -7.01322e-18 
11.0839 -3.65567 -1.01624e-17 
11.3803 -3.61148 -4.26627e-18 
11.7212 -3.71798 7.24129e-17 
12 -3.60737 9.38509e-12 
-12 -3.32287 1.45759e-11 
-11.6419 -3.34482 -8.04454e-18 
-11.2984 -3.26339 7.50054e-19 
-10.9915 -3.34241 1.47603e-18 
-10.6714 -3.32228 2.59751e-18 
-10.3464 -3.34246 2.1476e-18 
-10.0222 -3.3371 1.72827e-18 
-9.70035 -3.32486 1.24579e-18 
-9.37693 -3.35556 8.97175e-19 
-9.05867 -3.35309 7.48459e-19 
-8.76109 -3.32142 4.5699e-19 
-8.45964 -3.34051 2.08925e-19 
-8.13943 -3.33546 8.76732e-15 
-7.82913 -3.31546 4.81892e-19 
-7.52488 -3.30559 -6.9439e-19 
-7.22578 -3.31637 2.72202e-14 
-6.92604 -3.3462 -3.04035e-19 
-6.6226 -3.34384 -6.18403e-19 
-6.31845 -3.35351 -7.0747e-19 
-6.01483 -3.34897 -8.12884e-19 
-5.71395 -3.34198 -1.08541e-18 
-5.41545 -3.34408 -1.49264e-18 
-5.11823 -3.34228 -1.55889e-18 
-4.81245 -3.37156 -1.70594e-18 
-4.50426 -3.38532 -2.28183e-18 
-4.19651 -3.35005 -2.55189e-18 
-3.87562 -3.35965 -4.27934e-18 
-3.57772 -3.40175 -5.99594e-18 
-3.28704 -3.32537 -1.4852e-18 
-2.99713 -3.32477 1.29458e-19 
-2.73296 -3.29812 8.37833e-18 
-2.47875 -3.28486 -2.35122e-17 
-2.23045 -3.30522 -3.741e-17 
-1.98207 -3.30364 4.22246e-17 
-1.79298 -3.17132 -5.46797e-17 
-1.56052 -2.9938 -4.03479e-17 
-1.19086 -3.29769 -3.12484e-16 
-0.831599 -3.57332 3.28266e-16 
-0.788176 -3.16927 3.5511e-16 
-0.184652 -3.16565 -4.74869e-13 
0.569565 -3.3812 -1.91349e-17 
1.01966 -3.3482 3.98668e-18 
1.19772 -2.96619 1.25986e-17 
1.58124 -3.06082 5.61952e-17 
1.89858 -3.13335 5.17124e-17 
2.02886 -3.37791 -1.31141e-16 
2.26495 -3.29919 3.17674e-17 
2.48724 -3.30519 -6.48879e-17 
2.72111 -3.34657 7.78955e-17 
2.98754 -3.33397 -2.86373e-17 
3.27086 -3.32807 8.07281e-18 
3.55866 -3.37647 5.29937e-18 
3.8636 -3.38713 3.28754e-18 
4.17715 -3.36499 3.21265e-18 
4.49375 -3.34152 1.14782e-18 
4.79787 -3.34315 1.3811e-18 
5.10084 -3.3467 8.15628e-19 
5.40341 -3.36207 7.96911e-19 
5.70484 -3.32862 1.0557e-18 
6.00586 -3.33179 6.4182e-19 
6.30352 -3.32539 6.37504e-19 
6.60386 -3.3393 2.29996e-19 
6.9074 -3.33026 3.62068e-19 
7.21226 -3.3318 1.9054e-19 
7.51984 -3.3201 1.52029e-19 
7.82958 -3.3331 7.11041e-15 
8.13758 -3.31542 -1.34607e-19 
8.43992 -3.31188 -2.94346e-19 
8.76255 -3.31879 -4.83049e-19 
9.08637 -3.36301 -8.11757e-19 
9.40556 -3.34579 -1.00164e-18 
9.72291 -3.31045 -1.40651e-18 
10.0314 -3.39928 -1.97787e-18 
10.3215 -3.31728 -2.20085e-18 
10.6444 -3.38822 -2.21757e-18 
10.9707 -3.34009 -1.26129e-18 
11.2907 -3.25777 -6.54429e-19 
11.6329 -3.36306 5.51883e-18 
12 -3.30795 -1.36036e-11 
-12 -3.01328 4.09996e-12 
-11.6486 -3.03148 7.26728e-18 
-11.3091 -2.94243 -4.95083e-19 
-10.9644 -2.99493 1.03089e-18 
-10.6365 -2.98854 1.66458e-18 
-10.3127 -3.00848 2.09965e-18 
-9.98713 -3.00366 1.59201e-18 
-9.66027 -2.99708 1.09863e-18 
-9.35112 -3.01726 8.78207e-19 
-9.04935 -3.00005 9.02579e-19 
-8.74153 -2.97718 4.719e-19 
-8.42242 -3.01393 -2.28512e-14 
-8.11105 -2.99992 2.77778e-19 
-7.80311 -2.97921 -3.322e-19 
-7.50084 -2.97111 2.48021e-19 
-7.19687 -2.98805 5.02424e-14 
-6.8968 -3.01664 -2.83577e-19 
-6.59467 -3.01712 -3.78583e-19 
-6.29427 -3.02786 -3.45824e-19 
-5.99621 -3.02145 -3.43207e-19 
-5.69968 -3.0137 -4.46688e-19 
-5.40504 -3.01466 -7.52084e-19 
-5.10948 -3.01365 -7.4837e-19 
-4.81225 -3.05074 -1.35087e-18 
-4.50509 -3.06517 -1.96706e-18 
-4.20491 -3.02024 -1.93895e-18 
-3.9039 -3.05738 -1.43045e-18 
-3.5742 -3.07591 -4.43351e-18 
-3.26495 -3.00585 -4.64676e-18 
-2.98025 -2.98669 -5.28323e-19 
-2.70668 -2.95917 3.95036e-18 
-2.43675 -2.96001 -4.82559e-18 
-2.17126 -2.9786 -1.39656e-17 
-1.93836 -2.86628 -8.76543e-18 
-1.71636 -2.68919 -2.55221e-18 
-1.41523 -2.65557 -1.13061e-16 
-1.28084 -3.0192 1.7513e-16 
-1.08335 -2.80995 2.40585e-16 
-0.600711 -2.84772 -1.86865e-16 
-0.15879 -2.66643 -4.81022e-13 
0.220981 -3.12391 4.60789e-13 
0.796924 -2.94804 2.03516e-16 
1.11174 -2.61753 6.03921e-17 
1.49712 -2.75647 -7.94333e-18 
1.73056 -2.55556 -2.42243e-17 
1.85974 -2.8367 1.57237e-17 
2.17475 -3.01722 -7.42463e-18 
2.44836 -2.91251 3.56362e-17 
2.67632 -3.00199 -8.85321e-19 
2.9297 -3.0099 -1.32389e-18 
3.2149 -3.0176 1.6337e-19 
3.53729 -3.05406 -2.3396e-19 
3.84626 -3.07367 -1.3393e-19 
4.14497 -3.03733 2.17647e-18 
4.44945 -3.03181 2.00344e-18 
4.77039 -3.02177 1.43181e-18 
5.07736 -3.02106 1.17793e-18 
5.3814 -3.03566 9.3598e-19 
5.68504 -3.00482 3.02675e-19 
5.98774 -3.00708 5.32976e-20 
6.29356 -2.99682 5.49584e-19 
6.59489 -3.01083 7.55961e-19 
6.8992 -3.00473 3.01248e-19 
7.20637 -3.00341 2.43075e-19 
7.51131 -2.98923 -4.17309e-14 
7.81846 -3.00206 1.36813e-14 
8.12141 -2.97799 3.15649e-14 
8.42834 -2.97102 -1.65879e-19 
8.73736 -2.99212 -2.15213e-19 
9.06189 -3.03406 -6.12569e-19 
9.38454 -3.01514 -7.5738e-19 
9.67784 -2.95819 -8.14974e-19 
9.99454 -3.03865 -1.48282e-18 
10.3198 -2.9835 -1.73872e-18 
10.645 -3.0523 -2.04757e-18 
10.9697 -3.00012 -6.71833e-19 
11.3186 -2.94069 1.17903e-19 
11.6561 -3.0525 -1.04062e-17 
12 -2.98836 -1.45287e-12 
-12 -2.6715 -1.68678e-11 
-11.6823 -2.71728 -8.85804e-18 
-11.3528 -2.62318 -1.81849e-18 
-11.0019 -2.67337 -1.33935e-18 
-10.6638 -2.65786 -3.42801e-19 
-10.3341 -2.67523 4.86869e-20 
-10.009 -2.67697 7.58622e-19 
-9.67946 -2.67123 1.64133e-19 
-9.3518 -2.67012 2.54334e-19 
-9.03686 -2.66285 2.89798e-19 
-8.70429 -2.66027 1.30659e-19 
-8.3888 -2.68342 -1.80248e-19 
-8.07483 -2.66833 -3.25639e-14 
-7.76534 -2.64628 -7.85913e-15 
-7.45249 -2.64929 -1.49905e-19 
-7.14664 -2.66428 3.40641e-14 
-6.846 -2.6914 2.81054e-14 
-6.54132 -2.69384 3.22833e-14 
-6.24336 -2.70099 -3.94245e-15 
-5.94441 -2.69383 -9.38257e-15 
-5.64635 -2.68569 8.04192e-15 
[...]
POINT_DATA 1978 
VECTORS vectors float
-0.000632491 0.00217787 0.999997 
0.000104094 -0.0149986 0.999888 
1.75539e-05 -0.0154613 0.999881 
0.000587988 -0.0117201 0.999931 
0.000338549 -0.00832699 0.999965 
0.000205893 -0.00582259 0.999983 
-8.83271e-06 -0.00416425 0.999991 
7.90198e-05 -0.00281927 0.999996 
0.000342873 -0.00167343 0.999999 
0.000235068 -0.000833831 1 
2.82673e-05 -0.000269959 1 
-0.000126394 -1.50325e-05 1 
-0.000536025 0.000123019 1 
-0.000983728 0.000269026 1 
-0.000972612 0.000427825 1 
-0.000943043 0.000593158 0.999999 
-0.000628046 0.000774755 1 
-0.000430662 0.000945717 1 
-0.000441348 0.0012366 0.999999 
-0.000470308 0.00173778 0.999998 
-0.00057267 0.00242454 0.999997 
-0.000658813 0.00329076 0.999994 
-0.000706834 0.00431537 0.999991 
-0.000315061 0.00555625 0.999985 
6.93025e-05 0.00726871 0.999974 
-0.000391903 0.009515 0.999955 
-0.000599792 0.011991 0.999928 
-0.000145103 0.0153948 0.999882 
-0.000753782 0.0197129 0.999805 
-0.00139448 0.0230792 0.999733 
-0.00165385 0.0276452 0.999616 
-0.00279964 0.0322161 0.999477 
-0.00349169 0.0338169 0.999422 
-0.00365442 0.0334494 0.999434 
-0.0037429 0.0304876 0.999528 
-0.00348421 0.0283134 0.999593 
-0.00154586 0.0263449 0.999652 
5.53812e-05 0.0334836 0.999439 
-0.00069438 0.0484216 0.998827 
-0.00369204 0.0836726 0.996485 
-0.00574985 0.075672 -0.997115 
-0.00342923 0.0335379 -0.999432 
0.00396987 0.0240991 -0.999702 
0.00367044 0.0227058 -0.999735 
0.00402316 0.021517 -0.99976 
0.00421055 0.0220257 -0.999748 
0.00380503 0.0227488 -0.999734 
0.0035638 0.0238411 -0.999709 
0.00294752 0.0242271 -0.999702 
0.00185623 0.0230522 -0.999733 
0.00107557 0.0199011 -0.999801 
0.000590947 0.016169 -0.999869 
0.000224047 0.0127492 -0.999919 
0.000560115 0.00976971 -0.999952 
0.000816201 0.00765429 -0.99997 
0.000704879 0.0059657 -0.999982 
0.000526139 0.00457982 -0.999989 
0.000260937 0.00351411 -0.999994 
0.000539227 0.00254152 -0.999997 
0.000814697 0.00179768 -0.999998 
0.000841749 0.00128162 -0.999999 
0.000704104 0.000956681 -0.999999 
0.000624063 0.000746318 -1 
0.000587405 0.000617353 -1 
0.000605324 0.000440316 -1 
0.000462235 0.000274681 -1 
0.000349812 0.000112241 -1 
0.000506031 -6.85862e-06 -1 
0.000679583 -0.000236501 -1 
0.000106066 -0.000699104 -1 
-0.000402248 -0.00148468 -0.999999 
0.00014823 -0.00255771 -0.999997 
-0.000318082 -0.00384513 -0.999993 
-0.000520657 -0.00567537 -0.999984 
-0.000554102 -0.00804427 -0.999968 
-0.00049073 -0.0117942 -0.99993 
0.000325628 -0.0152309 -0.999884 
-0.000385763 -0.0150582 -0.999887 
-0.00031787 0.00220406 -0.999997 
0.00112159 0.00420897 0.999991 
0.00620202 -0.0120446 0.999908 
0.00681393 -0.0132365 0.999889 
0.00659656 -0.0122469 0.999903 
0.00708665 -0.00930484 0.999932 
0.00736326 -0.00666656 0.999951 
0.007689 -0.00468045 0.99996 
0.00801703 -0.00320166 0.999963 
0.00801636 -0.00203776 0.999966 
0.00808889 -0.00114169 0.999967 
0.00824786 -0.000558886 0.999966 
0.00854608 -0.000217865 0.999963 
0.00867724 1.18757e-05 0.999962 
0.00905714 0.000190363 0.999959 
0.00900668 0.000368684 0.999959 
0.00913572 0.000557048 0.999958 
0.00899105 0.000789053 0.999959 
0.00899297 0.0010808 0.999959 
0.00885725 0.00150289 0.99996 
0.00878827 0.00207283 0.999959 
0.00866238 0.00275869 0.999959 
0.00846077 0.00361078 0.999958 
0.00829441 0.0047034 0.999955 
0.00793433 0.00613033 0.99995 
0.0078774 0.00794602 0.999937 
0.00828763 0.0101038 0.999915 
0.00843809 0.0128161 0.999882 
0.00879142 0.0163839 0.999827 
0.0102398 0.019953 0.999748 
0.0108526 0.0237525 0.999659 
0.012496 0.0267983 0.999563 
0.0140475 0.0288052 0.999486 
0.0144515 0.0300586 0.999444 
0.0146538 0.0299995 0.999443 
0.0161146 0.0290142 0.999449 
0.0190599 0.0306357 0.999349 
0.0124538 0.0287029 0.99951 
0.0120852 0.0343529 0.999337 
0.0098311 0.0869229 0.996167 
-0.0047949 0.0895922 -0.995967 
-0.00697151 0.0525771 -0.998593 
-0.0114772 0.0301308 -0.99948 
-0.0158923 0.0333741 -0.999317 
-0.0169825 0.0254917 -0.999531 
-0.012863 0.0237679 -0.999635 
-0.0143365 0.0218318 -0.999659 
-0.0146247 0.0212608 -0.999667 
-0.0142922 0.0215252 -0.999666 
-0.0135127 0.0217138 -0.999673 
-0.0121429 0.0210294 -0.999705 
-0.0109909 0.0189823 -0.999759 
-0.00977219 0.0158918 -0.999826 
-0.00889552 0.0124391 -0.999883 
-0.00851653 0.00950711 -0.999919 
-0.0083857 0.00739861 -0.999937 
-0.00826934 0.00575511 -0.999949 
-0.00839878 0.00445982 -0.999955 
-0.00844507 0.00342764 -0.999958 
-0.00885663 0.00261739 -0.999957 
-0.00895454 0.00190188 -0.999958 
-0.00913698 0.00138144 -0.999957 
-0.00910286 0.00100108 -0.999958 
-0.00924066 0.000731356 -0.999957 
-0.00911693 0.000521272 -0.999958 
-0.00917771 0.000323169 -0.999958 
-0.0088921 0.00015414 -0.99996 
-0.008921 -3.06521e-05 -0.99996 
-0.00876375 -0.00024276 -0.999962 
-0.00877012 -0.000563864 -0.999961 
-0.00821802 -0.00107711 -0.999966 
-0.00804101 -0.00193242 -0.999966 
-0.00807712 -0.00304759 -0.999963 
-0.007393 -0.00457753 -0.999962 
-0.00737702 -0.00661483 -0.999951 
-0.00678585 -0.00942379 -0.999933 
-0.0067955 -0.0122667 -0.999902 
-0.0068037 -0.0132925 -0.999889 
-0.00611326 -0.011948 -0.99991 
-0.00179575 0.00384548 -0.999991 
0.000473318 0.00235348 0.999997 
0.00689983 -0.0113647 0.999912 
0.0079219 -0.0132254 0.999881 
0.00843037 -0.0119727 0.999893 
0.0089858 -0.00930166 0.999916 
0.00944051 -0.00674074 0.999933 
0.00986439 -0.00478122 0.99994 
0.010219 -0.00332525 0.999942 
0.0103785 -0.00216466 0.999944 
0.0105664 -0.00131802 0.999943 
0.0109013 -0.000832944 0.99994 
0.0110006 -0.000479827 0.999939 
0.011155 -0.000192907 0.999938 
0.0114094 2.681e-05 0.999935 
0.011582 0.000243659 0.999933 
0.0116792 0.000474872 0.999932 
0.0116553 0.000752195 0.999932 
0.0116105 0.0010925 0.999932 
0.0114987 0.00154694 0.999933 
0.0113644 0.00211701 0.999933 
0.0111682 0.0027475 0.999934 
0.0108759 0.00347118 0.999935 
0.0105184 0.00442125 0.999935 
0.0101848 0.00568094 0.999932 
0.0100788 0.00722529 0.999923 
0.0102819 0.00913181 0.999905 
0.0107978 0.0116984 0.999873 
0.0114434 0.014735 0.999826 
0.0128348 0.0181224 0.999753 
0.0144512 0.0217539 0.999659 
0.0164679 0.0244503 0.999565 
0.0182577 0.0263178 0.999487 
0.0195154 0.027616 0.999428 
0.0203289 0.0285252 0.999386 
0.0220852 0.0300866 0.999303 
0.0232158 0.0323107 0.999208 
0.018802 0.0358312 0.999181 
0.0113872 0.0511669 0.998625 
0.0170801 0.0525474 0.998472 
0.0147245 0.0902679 0.995809 
-0.00443496 0.0798138 -0.9968 
-0.012802 0.0493666 -0.998699 
-0.0199754 0.0350624 -0.999185 
-0.0211268 0.0271537 -0.999408 
-0.0212521 0.023624 -0.999495 
-0.0201964 0.0220325 -0.999553 
-0.0209589 0.0209778 -0.99956 
-0.0197792 0.0205057 -0.999594 
-0.0184875 0.0202876 -0.999623 
-0.0167777 0.01947 -0.99967 
-0.0149743 0.0175774 -0.999733 
-0.0132214 0.0150547 -0.999799 
-0.0119278 0.0119867 -0.999857 
-0.0111083 0.00928433 -0.999895 
-0.0107329 0.00736915 -0.999915 
-0.0105643 0.00583949 -0.999927 
-0.0106287 0.00461227 -0.999933 
-0.0108288 0.00368822 -0.999935 
-0.0111632 0.00292087 -0.999933 
-0.0114574 0.00220522 -0.999932 
-0.0116159 0.00159747 -0.999931 
-0.011695 0.00112219 -0.999931 
-0.0117211 0.000760696 -0.999931 
-0.0116775 0.000469606 -0.999932 
-0.0116047 0.000227242 -0.999933 
-0.0114122 2.60765e-05 -0.999935 
-0.0112864 -0.000202962 -0.999936 
-0.0111014 -0.000469292 -0.999938 
-0.0109167 -0.000823571 -0.99994 
-0.0105134 -0.00133105 -0.999944 
-0.0103979 -0.00220662 -0.999944 
-0.0102161 -0.00338138 -0.999942 
-0.00969831 -0.004727 -0.999942 
-0.00956029 -0.00659482 -0.999933 
-0.0089285 -0.00903603 -0.999919 
-0.00847051 -0.0118523 -0.999894 
-0.00787792 -0.0131606 -0.999882 
-0.0068754 -0.0114482 -0.999911 
-0.00109544 0.00218024 -0.999997 
0.00401649 0.00180791 0.99999 
0.00623009 -0.0112161 0.999918 
0.00719193 -0.0137019 0.99988 
0.00807365 -0.0123029 0.999892 
0.00867516 -0.00955375 0.999917 
0.00923256 -0.00694092 0.999933 
0.00960574 -0.00490133 0.999942 
0.00988336 -0.00341033 0.999945 
0.0102105 -0.00230114 0.999945 
0.0103055 -0.00151206 0.999946 
0.0104044 -0.00103171 0.999945 
0.0106984 -0.000659514 0.999943 
0.0108485 -0.000352217 0.999941 
0.0109402 -9.2531e-05 0.99994 
0.0110888 0.000166971 0.999939 
0.0112562 0.000470017 0.999937 
0.0113568 0.00080794 0.999935 
0.0113471 0.00121865 0.999935 
0.0112702 0.00173029 0.999935 
0.0110572 0.00233021 0.999936 
0.010752 0.00294768 0.999938 
0.0104433 0.00363226 0.999939 
0.0101153 0.0045315 0.999939 
0.00994673 0.00561723 0.999935 
0.0098541 0.00701207 0.999927 
0.00993538 0.00888143 0.999911 
0.0105328 0.0111433 0.999882 
0.0115386 0.0139781 0.999836 
0.0128341 0.0173927 0.999766 
0.0145946 0.0208748 0.999676 
0.0166756 0.0237655 0.999578 
0.0188607 0.0257244 0.999491 
0.0207962 0.0274711 0.999406 
0.0222141 0.0291345 0.999329 
0.0238224 0.031555 0.999218 
0.0252492 0.0354897 0.999051 
0.0224508 0.037951 0.999027 
0.0239874 0.0462252 0.998643 
0.019982 0.0637931 0.997763 
0.0155254 0.0928256 0.995561 
-0.00868757 0.090357 -0.995871 
-0.0167767 0.0537866 -0.998412 
-0.022513 0.0431391 -0.998815 
-0.0230087 0.029771 -0.999292 
-0.0232968 0.0263693 -0.999381 
-0.0223997 0.0239135 -0.999463 
-0.021858 0.0216189 -0.999527 
-0.020484 0.0200991 -0.999588 
-0.019253 0.019591 -0.999623 
-0.0174794 0.0188492 -0.99967 
-0.0155824 0.0172076 -0.999731 
-0.0136273 0.0143331 -0.999804 
-0.0122004 0.0113386 -0.999861 
-0.0112446 0.00901258 -0.999896 
-0.0105414 0.00727955 -0.999918 
-0.0101764 0.0057967 -0.999931 
-0.010196 0.00466488 -0.999937 
-0.0104859 0.00383185 -0.999938 
-0.0107478 0.00316089 -0.999937 
-0.0109904 0.00242244 -0.999937 
-0.0111693 0.00175344 -0.999936 
-0.011309 0.00120639 -0.999935 
-0.0113667 0.000783294 -0.999935 
-0.0112912 0.000431527 -0.999936 
-0.0111683 0.000137298 -0.999938 
-0.0110065 -0.0001122 -0.999939 
-0.0108012 -0.000380982 -0.999942 
-0.0105663 -0.000677668 -0.999944 
-0.0104098 -0.0010066 -0.999945 
-0.0104242 -0.00149995 -0.999945 
-0.0101538 -0.0023763 -0.999946 
-0.00972834 -0.00349495 -0.999947 
-0.0097482 -0.00491374 -0.99994 
-0.00919518 -0.00703196 -0.999933 
-0.0089385 -0.00956969 -0.999914 
-0.00817949 -0.0124248 -0.999889 
-0.00715815 -0.0136828 -0.999881 
-0.00621863 -0.0111919 -0.999918 
-0.00380251 0.00225175 -0.99999 
0.00788164 8.01807e-05 0.999968 
0.0046895 -0.0112223 0.999926 
0.0054663 -0.0141655 0.999885 
0.006409 -0.0132026 0.999892 
0.0068226 -0.0102953 0.999924 
0.00734811 -0.00749996 0.999945 
0.00771025 -0.00534225 0.999956 
0.00790602 -0.00374644 0.999962 
0.00810203 -0.00253103 0.999964 
0.00829157 -0.00171644 0.999964 
0.00848571 -0.00120678 0.999963 
0.00879619 -0.000838929 0.999961 
0.00890885 -0.000499764 0.99996 
0.00894946 -0.000187849 0.99996 
0.00914796 0.00013769 0.999958 
0.00924515 0.000501217 0.999957 
0.00940236 0.000899615 0.999955 
0.00935781 0.00136432 0.999955 
0.00930418 0.00191921 0.999955 
0.00910726 0.00254006 0.999955 
0.0088227 0.00316259 0.999956 
0.0085118 0.00384793 0.999956 
0.0081787 0.00475278 0.999955 
0.00811888 0.00584622 0.99995 
0.00797634 0.00723631 0.999942 
0.00801648 0.00929345 0.999925 
0.00912902 0.0118277 0.999888 
0.0103066 0.0145032 0.999842 
0.0118178 0.0179887 0.999768 
0.0139568 0.0215312 0.999671 
0.0166454 0.024505 0.999561 
0.019538 0.0268394 0.999449 
0.0218463 0.0292566 0.999333 
0.0244879 0.0319974 0.999188 
0.027157 0.0349107 0.999021 
0.0342804 0.0401595 0.998605 
0.0298447 0.0404123 0.998737 
0.0362712 0.0484497 0.998167 
0.0276767 0.0487442 0.998428 
0.0248314 0.0696172 0.997265 
-0.0153844 0.0896278 -0.995857 
-0.0215323 0.0630479 -0.997778 
-0.0256464 0.0369903 -0.998986 
-0.0257852 0.0320638 -0.999153 
-0.0241719 0.028163 -0.999311 
-0.0219448 0.0238244 -0.999475 
-0.0209159 0.0215067 -0.99955 
-0.0186935 0.0201326 -0.999623 
-0.0169971 0.0190768 -0.999674 
-0.0152265 0.0179265 -0.999723 
-0.0132529 0.0154696 -0.999793 
-0.0112986 0.0124017 -0.999859 
-0.00999993 0.00997294 -0.9999 
-0.0089974 0.00801968 -0.999927 
-0.00853901 0.0065111 -0.999942 
-0.00828327 0.005326 -0.999952 
-0.00847174 0.00445585 -0.999954 
-0.00880011 0.0037949 -0.999954 
-0.00889996 0.00311172 -0.999956 
-0.00916917 0.00236258 -0.999955 
-0.00920018 0.00168415 -0.999956 
-0.00938659 0.00114297 -0.999955 
-0.00936151 0.0007125 -0.999956 
-0.0092623 0.000344509 -0.999957 
-0.00909796 -3.42601e-06 -0.999959 
-0.00897386 -0.000294194 -0.99996 
-0.00871562 -0.000616055 -0.999962 
-0.00854027 -0.000957639 -0.999963 
-0.00835089 -0.00129975 -0.999964 
-0.00858667 -0.00170647 -0.999962 
-0.00807078 -0.00248703 -0.999964 
-0.00770184 -0.00373675 -0.999963 
-0.00786316 -0.00527818 -0.999955 
-0.00723092 -0.00749457 -0.999946 
-0.00720021 -0.0101843 -0.999922 
-0.00644603 -0.0132091 -0.999892 
-0.00544001 -0.0141623 -0.999885 
-0.00484489 -0.0114031 -0.999923 
-0.00406434 0.0019515 -0.99999 
0.00553132 0.000392283 0.999984 
0.00297832 -0.011037 0.999935 
0.00378202 -0.0141101 0.999893 
0.00465679 -0.0142012 0.999888 
0.005046 -0.0115943 0.99992 
0.00543817 -0.00852702 0.999949 
0.00577868 -0.00617203 0.999964 
0.0060225 -0.00442693 0.999972 
0.00619996 -0.00309293 0.999976 
0.00632324 -0.00216193 0.999978 
0.00660393 -0.00157518 0.999977 
0.00681021 -0.00117441 0.999976 
0.00694152 -0.000801155 0.999976 
0.00700601 -0.000435027 0.999975 
0.00715535 -5.82384e-05 0.999974 
0.00726418 0.000333489 0.999974 
0.00735047 0.000746888 0.999973 
0.00740851 0.00116982 0.999972 
0.0073553 0.00168159 0.999972 
0.00728421 0.00227307 0.999971 
0.00712212 0.00289916 0.99997 
0.00687513 0.00353854 0.99997 
0.0066194 0.00429447 0.999969 
0.00633364 0.00525248 0.999966 
0.00616186 0.00633221 0.999961 
0.00616988 0.00786957 0.99995 
0.00668221 0.010343 0.999924 
0.0076625 0.0127376 0.99989 
0.00923329 0.0156329 0.999835 
0.0112162 0.0191894 0.999753 
0.014061 0.0228008 0.999641 
0.017642 0.0260858 0.999504 
0.0207181 0.0288644 0.999369 
0.0250408 0.0320895 0.999171 
0.0297957 0.0355651 0.998923 
0.0399788 0.0422368 0.998307 
0.0437545 0.0504692 0.997767 
0.0456141 0.0649633 0.996845 
0.0335326 0.0602789 0.997618 
0.0218872 0.101033 0.994642 
-0.019253 0.0961036 -0.995185 
-0.028596 0.0537039 -0.998147 
-0.0313557 0.0451599 -0.998488 
-0.0302636 0.0382708 -0.998809 
-0.0267155 0.0325216 -0.999114 
-0.0224192 0.0264881 -0.999398 
-0.0204648 0.0258624 -0.999456 
-0.0202115 0.0230767 -0.999529 
-0.0167475 0.0203288 -0.999653 
-0.0144017 0.0186191 -0.999723 
-0.0125655 0.016508 -0.999785 
-0.0103882 0.0134753 -0.999855 
-0.00858525 0.0108012 -0.999905 
-0.00760256 0.00876783 -0.999933 
-0.0069063 0.00700312 -0.999952 
-0.00662146 0.0057553 -0.999962 
-0.00667219 0.00483701 -0.999966 
-0.00687008 0.00413637 -0.999968 
-0.00709165 0.00346129 -0.999969 
-0.00726529 0.00264671 -0.99997 
-0.00730182 0.00191018 -0.999972 
-0.00738123 0.0012915 -0.999972 
-0.00740024 0.000828947 -0.999972 
-0.00727675 0.000420278 -0.999973 
-0.00722294 3.21209e-05 -0.999974 
-0.00698798 -0.000342669 -0.999976 
-0.00686829 -0.000690093 -0.999976 
-0.00669179 -0.00108293 -0.999977 
-0.00638794 -0.00146814 -0.999979 
-0.00647784 -0.00186698 -0.999977 
-0.00627281 -0.00270467 -0.999977 
-0.0059202 -0.0039433 -0.999975 
-0.00600453 -0.00550955 -0.999967 
-0.00552752 -0.00794489 -0.999953 
-0.00539715 -0.0108973 -0.999926 
-0.00475123 -0.0139151 -0.999892 
-0.00389624 -0.0146102 -0.999886 
-0.00341833 -0.0116776 -0.999926 
-0.00309011 0.00199726 -0.999993 
0.00144563 0.0022341 0.999997 
0.00216312 -0.012228 0.999923 
0.00309479 -0.0151629 0.99988 
0.0035235 -0.0139951 0.999896 
0.00391448 -0.0108159 0.999934 
0.00418581 -0.00792617 0.99996 
0.0044857 -0.00573406 0.999974 
0.00471434 -0.00409581 0.999981 
0.00483238 -0.00291933 0.999984 
0.00504607 -0.00212197 0.999985 
0.005347 -0.0016292 0.999984 
0.00547136 -0.00123378 0.999984 
0.00556846 -0.000815587 0.999984 
0.00570133 -0.000375674 0.999984 
0.00578675 6.51704e-05 0.999983 
0.00586798 0.000500376 0.999983 
0.00588858 0.000897494 0.999982 
0.00594574 0.00131891 0.999981 
0.00587849 0.0018493 0.999981 
0.00584102 0.00248163 0.99998 
0.00573204 0.00314448 0.999979 
0.00556647 0.00384964 0.999977 
0.00530835 0.00469495 0.999975 
0.00491099 0.00565977 0.999972 
0.0047805 0.00681111 0.999965 
0.00508369 0.00869937 0.999949 
0.00538301 0.0109626 0.999925 
0.00670255 0.0136395 0.999885 
0.0087204 0.0168235 0.99982 
0.0116615 0.0207772 0.999716 
0.0154773 0.0247564 0.999574 
0.0195933 0.0282235 0.99941 
0.0264054 0.0325871 0.99912 
0.0331063 0.0367399 0.998776 
0.0447336 0.0429633 0.998075 
0.0522825 0.0519714 0.997279 
0.05917 0.0667087 0.996017 
0.0622433 0.0942322 0.993603 
0.0377585 0.083829 0.995765 
-0.0240924 0.109231 -0.993724 
-0.0279925 0.0729872 -0.99694 
-0.0429916 0.0976612 -0.994291 
-0.0392167 0.0696507 -0.9968 
-0.0396111 0.0562096 -0.997633 
-0.0371316 0.0468614 -0.998211 
-0.0313449 0.0387944 -0.998755 
-0.024845 0.0308783 -0.999214 
-0.0174144 0.0222135 -0.999602 
-0.0136666 0.0193685 -0.999719 
-0.0116141 0.0170061 -0.999788 
-0.00959664 0.0141952 -0.999853 
-0.00755638 0.011314 -0.999907 
-0.00630543 0.00909051 -0.999939 
-0.00575563 0.00746495 -0.999956 
-0.00537895 0.00617902 -0.999966 
-0.00540228 0.00526933 -0.999972 
-0.00554333 0.00453206 -0.999974 
-0.00570436 0.00383318 -0.999976 
-0.00594942 0.00305697 -0.999978 
-0.00592292 0.00225851 -0.99998 
-0.00594487 0.00157736 -0.999981 
-0.00591293 0.0010739 -0.999982 
-0.00588732 0.00068143 -0.999982 
-0.00582551 0.000283522 -0.999983 
-0.00575504 -0.000130733 -0.999983 
-0.00553479 -0.000553162 -0.999985 
-0.00548593 -0.000952253 -0.999985 
-0.00528419 -0.00137378 -0.999985 
-0.00506285 -0.00179395 -0.999986 
-0.00509984 -0.0022365 -0.999984 
-0.00484428 -0.00307594 -0.999984 
-0.00460053 -0.00444232 -0.99998 
-0.00462464 -0.00613073 -0.999971 
-0.00414962 -0.00860159 -0.999954 
-0.00405169 -0.0114534 -0.999926 
-0.00347845 -0.0143825 -0.999891 
-0.0027806 -0.015148 -0.999881 
-0.00237993 -0.0120991 -0.999924 
-0.00176571 0.00232186 -0.999996 
0.000997108 0.00274726 0.999996 
0.00143798 -0.0123659 0.999923 
0.002214 -0.0155921 0.999876 
0.00259318 -0.0146083 0.99989 
0.00299643 -0.0116226 0.999928 
0.00325473 -0.00856563 0.999958 
0.00354468 -0.00623488 0.999974 
0.00378605 -0.00450959 0.999983 
0.00392454 -0.0032611 0.999987 
0.00412883 -0.00243682 0.999989 
0.00438298 -0.00191436 0.999989 
0.0045311 -0.00148887 0.999989 
0.00462038 -0.00103438 0.999989 
0.00476266 -0.000552057 0.999989 
0.00482076 -4.99844e-05 0.999988 
0.00486148 0.000419361 0.999988 
0.00484565 0.000797243 0.999988 
0.00487097 0.00115563 0.999987 
0.00486179 0.00161266 0.999987 
0.00486342 0.00223459 0.999986 
0.00487165 0.0029135 0.999984 
0.00481298 0.0036372 0.999982 
0.0046162 0.00447386 0.999979 
0.00420382 0.00540129 0.999977 
0.00389829 0.00642578 0.999972 
0.00408828 0.00793307 0.99996 
0.0041377 0.0098502 0.999943 
0.0050775 0.0125373 0.999909 
0.00695143 0.0154329 0.999857 
0.00978601 0.0191054 0.99977 
0.0141459 0.0237879 0.999617 
0.019896 0.028372 0.999399 
0.0263845 0.0320724 0.999137 
0.0348571 0.0366418 0.99872 
0.0561841 0.0475566 0.997287 
0.0695422 0.0607594 0.995727 
0.0833861 0.0849592 0.992889 
0.106094 0.143885 0.983891 
0.0748646 0.147569 0.986214 
0.0416349 0.134749 0.990005 
-0.0393883 0.156027 -0.986967 
-0.0727529 0.171248 -0.982538 
-0.0661264 0.0990366 -0.992884 
-0.0528553 0.0722284 -0.995987 
-0.0463575 0.055222 -0.997397 
-0.0365174 0.042544 -0.998427 
-0.025905 0.032515 -0.999135 
-0.019751 0.0260817 -0.999465 
-0.0151126 0.0213833 -0.999657 
-0.0111326 0.0176038 -0.999783 
-0.00924 0.0150574 -0.999844 
-0.00722671 0.0121929 -0.9999 
-0.00562445 0.0095696 -0.999938 
-0.00489728 0.00775437 -0.999958 
-0.00461588 0.00657977 -0.999968 
-0.00456123 0.00564784 -0.999974 
-0.00470574 0.00485367 -0.999977 
-0.00484305 0.0040665 -0.99998 
-0.00501564 0.00320995 -0.999982 
-0.00497767 0.00237316 -0.999985 
-0.00496075 0.00164686 -0.999986 
-0.00488657 0.00112999 -0.999987 
-0.00482862 0.000765444 -0.999988 
-0.00484652 0.000401312 -0.999988 
-0.00477335 -5.95984e-05 -0.999989 
-0.00464458 -0.000540441 -0.999989 
-0.00459156 -0.00102232 -0.999989 