# vtk DataFile Version 3.0 
Exported using Morpho https://github.com/Morpho-lang/morpho 
ASCII 
DATASET UNSTRUCTURED_GRID 

POINTS 1245 float 
-0.304038 -0.95266 0 
-0.251441 -0.967873 0 
-0.196599 -0.980484 0 
-0.147939 -0.988996 0 
-0.096254 -0.995357 0 
-0.0483601 -0.99883 0 
-0.000451504 -1 0 
0.0482414 -0.998836 0 
0.0956209 -0.995418 0 
0.145924 -0.989296 0 
0.198694 -0.980062 0 
0.248343 -0.968672 0 
0.30399 -0.952675 0 
-0.409672 -0.912233 0 
-0.356859 -0.934158 0 
-0.307625 -0.898571 0 
-0.256611 -0.914841 0 
-0.205389 -0.933372 0 
-0.153069 -0.927934 0 
-0.102396 -0.94791 0 
-0.0498583 -0.935106 0 
0.00142854 -0.953377 0 
0.052561 -0.9331 0 
0.104134 -0.942389 0 
0.156872 -0.938823 0 
0.206982 -0.919507 0 
0.258749 -0.920951 0 
0.310446 -0.900065 0 
0.357716 -0.93383 0 
0.410714 -0.911764 0 
-0.51437 -0.857568 0 
-0.462407 -0.886668 0 
-0.411015 -0.857376 0 
-0.359501 -0.879663 0 
-0.305707 -0.84665 0 
-0.253622 -0.86425 0 
-0.200473 -0.885626 0 
-0.148805 -0.868805 0 
-0.0992128 -0.89633 0 
-0.0484472 -0.873916 0 
0.00154915 -0.899374 0 
0.0506565 -0.870008 0 
0.099584 -0.888189 0 
0.15259 -0.889657 0 
0.203706 -0.862941 0 
0.255384 -0.874358 0 
0.307954 -0.849391 0 
0.361689 -0.879386 0 
0.412615 -0.856642 0 
0.46325 -0.886228 0 
0.514942 -0.857225 0 
-0.565364 -0.824841 0 
-0.512807 -0.802464 0 
-0.462454 -0.831649 0 
-0.409305 -0.803744 0 
-0.35814 -0.826779 0 
-0.304287 -0.794815 0 
-0.252533 -0.812725 0 
-0.199644 -0.834469 0 
-0.148659 -0.811689 0 
-0.0980329 -0.840437 0 
-0.0486484 -0.814709 0 
0.00110327 -0.841666 0 
0.0507222 -0.810511 0 
0.10012 -0.830521 0 
0.151601 -0.838979 0 
0.201398 -0.807576 0 
0.253879 -0.824556 0 
0.305585 -0.798078 0 
0.359663 -0.826545 0 
0.410331 -0.802786 0 
0.463256 -0.830671 0 
0.513382 -0.802055 0 
0.565855 -0.824505 0 
-0.661127 -0.750274 0 
-0.614521 -0.7889 0 
-0.561833 -0.769262 0 
-0.50964 -0.747742 0 
-0.460175 -0.777438 0 
-0.407225 -0.750461 0 
-0.356449 -0.774194 0 
-0.303021 -0.743169 0 
-0.251726 -0.760737 0 
-0.199698 -0.781574 0 
-0.149469 -0.755674 0 
-0.0987361 -0.784111 0 
-0.0495663 -0.757521 0 
0.00074427 -0.784506 0 
0.0499021 -0.753017 0 
0.0986422 -0.771593 0 
0.148465 -0.786798 0 
0.198905 -0.753762 0 
0.25178 -0.773224 0 
0.303018 -0.746409 0 
0.356897 -0.773838 0 
0.407278 -0.749476 0 
0.460508 -0.775969 0 
0.509912 -0.747635 0 
0.562265 -0.768427 0 
0.614899 -0.788606 0 
0.660916 -0.75046 0 
-0.707137 -0.707076 0 
-0.654232 -0.698242 0 
-0.60786 -0.732501 0 
-0.557385 -0.712939 0 
-0.507468 -0.693124 0 
-0.457791 -0.723521 0 
-0.40534 -0.697562 0 
-0.354815 -0.72183 0 
-0.302133 -0.691777 0 
-0.251077 -0.708675 0 
-0.199931 -0.727612 0 
-0.150301 -0.700335 0 
-0.0999236 -0.728385 0 
-0.051087 -0.701823 0 
-0.000421628 -0.728505 0 
0.0495464 -0.698598 0 
0.0984035 -0.713168 0 
0.147599 -0.732599 0 
0.197896 -0.700126 0 
0.250029 -0.721435 0 
0.301757 -0.694342 0 
0.353927 -0.721143 0 
0.403704 -0.696683 0 
0.456847 -0.721566 0 
0.505628 -0.694419 0 
0.557407 -0.711375 0 
0.607266 -0.730582 0 
0.652491 -0.698197 0 
0.706565 -0.707648 0 
-0.750394 -0.660991 0 
-0.698464 -0.654201 0 
-0.647093 -0.646808 0 
-0.60217 -0.67432 0 
-0.556909 -0.655804 0 
-0.506644 -0.64072 0 
-0.455848 -0.670392 0 
-0.404184 -0.645105 0 
-0.353627 -0.669626 0 
-0.301541 -0.640968 0 
-0.250517 -0.65732 0 
-0.200181 -0.673083 0 
-0.151003 -0.645606 0 
-0.100944 -0.673231 0 
-0.0519388 -0.647066 0 
-0.00212132 -0.674276 0 
0.047866 -0.647977 0 
0.0973944 -0.654915 0 
0.14682 -0.677634 0 
0.197663 -0.647208 0 
0.249531 -0.669554 0 
0.301392 -0.642514 0 
0.353151 -0.66764 0 
0.404352 -0.642769 0 
0.451679 -0.667224 0 
0.497353 -0.643748 0 
0.550472 -0.654874 0 
0.599514 -0.669274 0 
0.647435 -0.648156 0 
0.698584 -0.655155 0 
0.750179 -0.661235 0 
-0.789039 -0.614343 0 
-0.732835 -0.607626 0 
-0.675089 -0.602016 0 
-0.61271 -0.611831 0 
-0.56007 -0.604859 0 
-0.506586 -0.591159 0 
-0.4548 -0.618267 0 
-0.402585 -0.593363 0 
-0.352885 -0.617892 0 
-0.301898 -0.590774 0 
-0.249931 -0.607445 0 
-0.20047 -0.618026 0 
-0.152094 -0.591572 0 
-0.101636 -0.618979 0 
-0.0515543 -0.593574 0 
-0.00244032 -0.620678 0 
0.0493493 -0.600163 0 
0.0984462 -0.59791 0 
0.147214 -0.623273 0 
0.19846 -0.594491 0 
0.248849 -0.617954 0 
0.29924 -0.591281 0 
0.352315 -0.614754 0 
0.403831 -0.593284 0 
0.455787 -0.608592 0 
0.520167 -0.601585 0 
0.571237 -0.605653 0 
0.620059 -0.607814 0 
0.678676 -0.602486 0 
0.734122 -0.607948 0 
0.789144 -0.614208 0 
-0.824938 -0.565223 0 
-0.769277 -0.561556 0 
-0.712842 -0.556856 0 
-0.655558 -0.556882 0 
-0.604723 -0.559782 0 
-0.552376 -0.552301 0 
-0.499741 -0.541558 0 
-0.452146 -0.567692 0 
-0.399788 -0.54198 0 
-0.351333 -0.566006 0 
-0.301369 -0.539423 0 
-0.251944 -0.559984 0 
-0.202344 -0.562389 0 
-0.151729 -0.539373 0 
-0.101412 -0.56624 0 
-0.0504147 -0.541753 0 
-0.000400428 -0.568612 0 
0.0512066 -0.551572 0 
0.100052 -0.542814 0 
0.148635 -0.569469 0 
0.199383 -0.542248 0 
0.24951 -0.565612 0 
0.300492 -0.537743 0 
0.346797 -0.563054 0 
0.392054 -0.54738 0 
0.444834 -0.550376 0 
0.492055 -0.564982 0 
0.548979 -0.550909 0 
0.602765 -0.5553 0 
0.655752 -0.556591 0 
0.713249 -0.556635 0 
0.769373 -0.561367 0 
0.824922 -0.565247 0 
-0.857615 -0.514292 0 
-0.802388 -0.512635 0 
-0.747487 -0.509447 0 
-0.692481 -0.506961 0 
-0.640359 -0.506188 0 
-0.590701 -0.507101 0 
-0.539866 -0.49886 0 
-0.492526 -0.491066 0 
-0.44688 -0.51632 0 
-0.399236 -0.489206 0 
-0.350286 -0.513725 0 
-0.298979 -0.489497 0 
-0.247977 -0.513509 0 
-0.199703 -0.507566 0 
-0.150161 -0.487331 0 
-0.10059 -0.514616 0 
-0.049804 -0.490619 0 
0.000625811 -0.517509 0 
0.0508042 -0.501589 0 
0.0999639 -0.489781 0 
0.149517 -0.516323 0 
0.199861 -0.49053 0 
0.249857 -0.513971 0 
0.301105 -0.486926 0 
0.350992 -0.50621 0 
0.406179 -0.503633 0 
0.453702 -0.495579 0 
0.499381 -0.517896 0 
0.54509 -0.495628 0 
0.589875 -0.502992 0 
0.639769 -0.505125 0 
0.692133 -0.507178 0 
0.747231 -0.509351 0 
0.802239 -0.512834 0 
0.8575 -0.514485 0 
-0.886692 -0.462362 0 
-0.831447 -0.46229 0 
-0.776968 -0.459992 0 
-0.722557 -0.457864 0 
-0.668309 -0.454847 0 
-0.615699 -0.454692 0 
-0.563442 -0.455041 0 
-0.504959 -0.444494 0 
-0.448651 -0.462232 0 
-0.399535 -0.438236 0 
-0.349128 -0.46264 0 
-0.299137 -0.439068 0 
-0.248305 -0.464591 0 
-0.199624 -0.454437 0 
-0.150124 -0.436363 0 
-0.0998408 -0.463181 0 
-0.0495775 -0.439683 0 
0.000657363 -0.466432 0 
0.050398 -0.45109 0 
0.0997795 -0.438004 0 
0.14961 -0.46426 0 
0.20006 -0.439543 0 
0.250155 -0.462985 0 
0.300624 -0.436016 0 
0.349741 -0.453489 0 
0.398431 -0.460711 0 
0.448861 -0.444362 0 
0.501772 -0.463516 0 
0.556306 -0.446047 0 
0.610655 -0.453181 0 
0.665731 -0.455702 0 
0.720992 -0.458228 0 
0.776173 -0.460571 0 
0.831102 -0.462917 0 
0.886543 -0.462645 0 
-0.912236 -0.409665 0 
-0.857204 -0.410967 0 
-0.803392 -0.409217 0 
-0.74994 -0.407407 0 
-0.696663 -0.406178 0 
-0.642836 -0.402615 0 
-0.594083 -0.40314 0 
-0.543712 -0.409305 0 
-0.498184 -0.388941 0 
-0.452699 -0.414143 0 
-0.401283 -0.388854 0 
-0.349739 -0.411899 0 
-0.299455 -0.388886 0 
-0.248771 -0.414704 0 
-0.199804 -0.40237 0 
-0.150194 -0.385975 0 
-0.0998826 -0.412316 0 
-0.0496331 -0.389139 0 
0.000643541 -0.415495 0 
0.0502079 -0.40057 0 
0.099715 -0.387048 0 
0.149647 -0.41299 0 
0.200027 -0.388895 0 
0.250027 -0.412129 0 
0.301055 -0.385878 0 
0.350404 -0.401986 0 
0.40041 -0.412751 0 
0.450882 -0.391618 0 
0.499731 -0.416383 0 
0.544034 -0.393568 0 
0.59137 -0.399783 0 
0.642288 -0.404278 0 
0.695365 -0.407079 0 
0.749328 -0.408637 0 
0.803118 -0.410657 0 
0.857365 -0.412146 0 
0.912211 -0.40972 0 
-0.934162 -0.35685 0 
-0.879422 -0.35942 0 
-0.826293 -0.357958 0 
-0.773333 -0.356351 0 
-0.720158 -0.355668 0 
-0.665775 -0.356607 0 
-0.607138 -0.350008 0 
-0.553621 -0.361137 0 
-0.5022 -0.339404 0 
-0.449669 -0.361737 0 
-0.400008 -0.33791 0 
-0.350294 -0.361968 0 
-0.299735 -0.338845 0 
-0.249149 -0.364486 0 
-0.19989 -0.351123 0 
-0.150231 -0.335907 0 
-0.0999158 -0.361809 0 
-0.0496591 -0.338853 0 
0.000579022 -0.364807 0 
0.0501213 -0.350175 0 
0.0996736 -0.336536 0 
0.149689 -0.362171 0 
0.200173 -0.338592 0 
0.250216 -0.361805 0 
0.300977 -0.33584 0 
0.350317 -0.350432 0 
0.400031 -0.363711 0 
0.449445 -0.340113 0 
0.500426 -0.362497 0 
0.556035 -0.344079 0 
0.610296 -0.352686 0 
0.6665 -0.355417 0 
0.719677 -0.357923 0 
0.773735 -0.358184 0 
0.826983 -0.360351 0 
0.879942 -0.360326 0 
0.934344 -0.356372 0 
-0.952661 -0.304036 0 
-0.898427 -0.307629 0 
-0.846493 -0.305546 0 
-0.794931 -0.304029 0 
-0.743864 -0.303138 0 
-0.693611 -0.30459 0 
-0.643467 -0.30958 0 
-0.599353 -0.290969 0 
-0.55443 -0.313997 0 
-0.503336 -0.288984 0 
-0.45199 -0.311834 0 
-0.401101 -0.288191 0 
-0.349902 -0.311422 0 
-0.299643 -0.288622 0 
-0.249349 -0.314247 0 
-0.199915 -0.300435 0 
-0.150269 -0.285978 0 
-0.0999683 -0.311532 0 
-0.0497289 -0.288717 0 
0.000527779 -0.314369 0 
0.0500741 -0.299964 0 
0.0996409 -0.286337 0 
0.149787 -0.311716 0 
0.200238 -0.28842 0 
0.250326 -0.311555 0 
0.301235 -0.286006 0 
0.350591 -0.299681 0 
0.400449 -0.31341 0 
0.451856 -0.289027 0 
0.501314 -0.314699 0 
0.544921 -0.289691 0 
0.590901 -0.297941 0 
0.640135 -0.307218 0 
0.69435 -0.304347 0 
0.742809 -0.307966 0 
0.7979 -0.307375 0 
0.847482 -0.307936 0 
0.899876 -0.308548 0 
0.953167 -0.302446 0 
-0.967863 -0.251479 0 
-0.914487 -0.256648 0 
-0.863556 -0.253418 0 
-0.811732 -0.251971 0 
-0.759393 -0.251316 0 
-0.706493 -0.252194 0 
-0.653718 -0.258815 0 
-0.607533 -0.238533 0 
-0.553063 -0.261024 0 
-0.502377 -0.238056 0 
-0.452064 -0.261845 0 
-0.401205 -0.238175 0 
-0.350516 -0.261491 0 
-0.299965 -0.238667 0 
-0.249417 -0.263974 0 
-0.199916 -0.250071 0 
-0.150304 -0.236053 0 
-0.100036 -0.261399 0 
-0.0497663 -0.238671 0 
0.000445464 -0.264099 0 
0.0500404 -0.249853 0 
0.0996125 -0.23625 0 
0.149834 -0.261487 0 
0.200323 -0.238399 0 
0.25055 -0.261503 0 
0.301452 -0.23621 0 
0.351157 -0.249436 0 
0.401482 -0.263625 0 
0.451962 -0.237781 0 
0.501557 -0.260261 0 
[...]
POINT_DATA 1245 
VECTORS vectors float
0.440282 -0.177808 0.880077 
0.408979 -0.17329 0.895939 
0.37419 -0.134405 0.91756 
0.363307 -0.0872151 0.927578 
0.372298 -0.0415935 0.927181 
0.384732 -0.0157549 0.922894 
0.396763 0.00310444 0.917916 
0.39901 0.0193127 0.916743 
0.395164 0.0409108 0.917699 
0.399869 0.0713552 0.913791 
0.414192 0.0963026 0.905081 
0.419272 0.106235 0.901623 
0.4134 0.116706 0.903039 
0.432627 -0.166184 0.886124 
0.449482 -0.169109 0.877136 
0.272266 -0.114408 0.955396 
0.256001 -0.103884 0.961078 
0.245785 -0.0936296 0.964792 
0.208117 -0.0594423 0.976296 
0.234195 -0.0414622 0.971305 
0.203071 -0.0162501 0.979029 
0.250871 -0.00444315 0.96801 
0.206742 0.0097623 0.978347 
0.240337 0.0273314 0.970305 
0.254268 0.0460084 0.966039 
0.228498 0.0519588 0.972157 
0.278431 0.0700536 0.957898 
0.258535 0.0695693 0.963493 
0.400746 0.130669 0.906823 
0.383696 0.156153 0.910161 
0.378447 -0.198742 0.904035 
0.405373 -0.177428 0.896768 
0.265563 -0.107383 0.958095 
0.273014 -0.104758 0.956289 
0.15398 -0.0572334 0.986415 
0.149766 -0.0659461 0.98652 
0.155015 -0.065831 0.985716 
0.103683 -0.0323868 0.994083 
0.132045 -0.0306428 0.99077 
0.0978205 -0.0102836 0.995151 
0.134297 0.000908524 0.990941 
0.0980126 -0.00147897 0.995184 
0.131289 0.0146615 0.991236 
0.146964 0.0260169 0.9888 
0.127526 0.0175346 0.99168 
0.157181 0.0459887 0.986498 
0.149029 0.0419708 0.987942 
0.235316 0.0916794 0.967585 
0.232335 0.100497 0.96743 
0.365059 0.189064 0.911585 
0.356912 0.223427 0.907025 
0.352403 -0.224173 0.908603 
0.236919 -0.129359 0.962879 
0.250446 -0.116811 0.961058 
0.151389 -0.0641683 0.986389 
0.156502 -0.0651593 0.985526 
0.0872412 -0.0412076 0.995335 
0.0793049 -0.0341092 0.996267 
0.0787287 -0.0349357 0.996284 
0.0540499 -0.0241831 0.998245 
0.0633722 -0.0182063 0.997824 
0.0483311 -0.0142805 0.998729 
0.0682416 -0.00877561 0.99763 
0.0424046 0.000442607 0.9991 
0.0654463 0.00306314 0.997851 
0.0786573 0.0151629 0.996786 
0.0612086 0.016406 0.99799 
0.0899333 0.0165158 0.995811 
0.0729795 0.0213583 0.997105 
0.13975 0.0488907 0.988979 
0.129059 0.0618164 0.989708 
0.228605 0.122732 0.965752 
0.218074 0.147277 0.964755 
0.354762 0.254114 0.899761 
0.316779 -0.291158 0.902706 
0.329619 -0.257164 0.908415 
0.216686 -0.152456 0.964264 
0.133687 -0.080497 0.987749 
0.140166 -0.074045 0.987355 
0.0811945 -0.0376778 0.995986 
0.0800844 -0.0309824 0.996306 
0.0399864 -0.0149934 0.999088 
0.039382 -0.0203808 0.999016 
0.0411029 -0.0172442 0.999006 
0.0199128 -0.0117273 0.999733 
0.0283658 -0.00880003 0.999559 
0.018237 -0.0030388 0.999829 
0.0288638 -0.0017863 0.999582 
0.0230535 -0.00235684 0.999731 
0.0268084 0.00391507 0.999633 
0.041461 -0.00593337 0.999123 
0.0247839 0.00378614 0.999686 
0.0487113 0.00923507 0.99877 
0.0394356 0.0120919 0.999149 
0.0759389 0.0234864 0.996836 
0.0697021 0.0342029 0.996981 
0.132031 0.0742468 0.988461 
0.127766 0.0858192 0.988084 
0.223949 0.156477 0.961957 
0.34902 0.266987 0.898278 
0.32875 0.272611 0.904216 
0.309432 -0.313458 0.897773 
0.207665 -0.194278 0.958713 
0.205937 -0.169252 0.963817 
0.123229 -0.0901111 0.988279 
0.0782933 -0.0517378 0.995587 
0.0786557 -0.0362498 0.996243 
0.0428527 -0.0160133 0.998953 
0.0456077 -0.020431 0.99875 
0.0188878 -0.0123593 0.999745 
0.0167316 -0.00659665 0.999838 
0.0194882 -0.0126788 0.99973 
0.0128378 -0.00596904 0.9999 
0.012681 -0.00956656 0.999874 
0.0122802 -0.00148956 0.999923 
0.00926485 -0.0062576 0.999938 
0.0105396 -0.00152611 0.999943 
0.0185657 -0.00195654 0.999826 
0.0157648 0.00365174 0.999869 
0.0200496 -0.00212119 0.999797 
0.0208236 0.000165387 0.999783 
0.0166888 0.0032256 0.999856 
0.032532 0.00894556 0.999431 
0.0314029 0.0167235 0.999367 
0.0651716 0.0390514 0.99711 
0.0731903 0.0514779 0.995989 
0.125984 0.0984802 0.987132 
0.200117 0.169038 0.96508 
0.196252 0.18468 0.963005 
0.290403 0.29886 0.909037 
0.294642 -0.321666 0.899843 
0.199801 -0.201519 0.95889 
0.126051 -0.124586 0.984169 
0.113626 -0.100755 0.988402 
0.0765384 -0.0609445 0.995202 
0.0375223 -0.0218409 0.999057 
0.0375928 -0.0225445 0.999039 
0.0208409 -0.0135577 0.999691 
0.0146054 -0.00369287 0.999887 
0.00663023 0.0041774 0.999969 
0.0130318 -0.00680237 0.999892 
0.00390861 0.00109456 0.999992 
0.00252312 -0.000347956 0.999997 
0.00566238 -0.00145921 0.999983 
0.0060214 0.00181202 0.99998 
0.0100504 -0.00381381 0.999942 
0.00489711 0.00468174 0.999977 
0.00608712 -0.00236906 0.999979 
0.00893902 -0.000220507 0.99996 
0.00399531 0.00236915 0.999989 
0.0101782 -0.00380265 0.999941 
0.00598428 0.000399004 0.999982 
0.0196059 0.00257327 0.999804 
0.0127202 0.00546377 0.999904 
0.0367566 0.012801 0.999242 
0.0283313 0.0252972 0.999278 
0.0574366 0.0479802 0.997196 
0.110322 0.0927088 0.989563 
0.123589 0.131352 0.983602 
0.180322 0.207891 0.961387 
0.263794 0.342735 0.901635 
0.26658 -0.330735 0.90529 
0.171234 -0.204904 0.963687 
0.106362 -0.120752 0.986968 
0.0743455 -0.0737156 0.994504 
0.0335273 -0.024166 0.999146 
0.0255397 -0.0199848 0.999474 
0.018369 -0.00870831 0.999793 
0.0052035 0.00232318 0.999984 
0.0150354 -0.00513316 0.999874 
0.00262654 -3.21259e-05 0.999997 
0.00286149 -0.00172443 0.999994 
0.00463318 -0.000818941 0.999989 
0.00866219 0.0019191 0.999961 
0.00429525 -0.000219061 0.999991 
0.00596924 -0.000318289 0.999982 
0.00467877 0.00207938 0.999987 
0.0121837 -0.00294027 0.999921 
0.00526927 -0.000764631 0.999986 
0.00942287 0.000366892 0.999956 
0.00540581 -0.00770097 0.999956 
0.00767986 0.00358706 0.999964 
0.00627126 -0.00413866 0.999972 
0.00390105 -0.00403537 0.999984 
0.00886575 0.00382358 0.999953 
0.0114464 0.00675212 0.999912 
0.0269966 0.0205113 0.999425 
0.0390097 0.0365936 0.998569 
0.0636507 0.0763663 0.995046 
0.10252 0.124327 0.986931 
0.168211 0.226702 0.959329 
0.261685 0.373738 0.889854 
0.234221 -0.345673 0.908653 
0.160968 -0.206344 0.965148 
0.0980751 -0.125604 0.987221 
0.0552228 -0.0571207 0.996839 
0.0387401 -0.037797 0.998534 
0.0230907 -0.0212802 0.999507 
0.00746101 -0.00583201 0.999955 
0.0132835 -0.00229338 0.999909 
0.0047092 -0.00427693 0.99998 
0.00142204 0.00190933 0.999997 
0.00102397 -0.00157988 0.999998 
0.00361139 0.00772372 0.999964 
-0.000231636 0.00509832 0.999987 
0.00697286 0.00449759 0.999966 
0.00379717 0.00364494 0.999986 
0.00816208 0.00444931 0.999957 
0.00659595 0.00312176 0.999973 
0.00782842 0.00409732 0.999961 
0.00452117 -0.00145189 0.999989 
0.00957438 0.00090682 0.999954 
0.0053799 0.00157654 0.999984 
0.00321626 -0.00516057 0.999982 
1.94561e-07 -0.00486806 0.999988 
0.00549929 0.000224965 0.999985 
-0.00370715 -0.00176191 0.999992 
0.00372717 -0.00601836 0.999975 
0.00957026 0.00810199 0.999921 
0.0102447 0.0169546 0.999804 
0.0342217 0.0328584 0.998874 
0.050823 0.0753173 0.995864 
0.0941997 0.135842 0.986242 
0.172397 0.235512 0.956459 
0.263096 0.377393 0.887893 
0.203581 -0.364341 0.908741 
0.130172 -0.227118 0.965128 
0.0797232 -0.130236 0.988273 
0.0498072 -0.071192 0.996218 
0.0298794 -0.0419413 0.998673 
0.0153926 -0.0166984 0.999742 
0.00641779 -0.0045023 0.999969 
0.00611851 -0.00257549 0.999978 
0.00172421 -0.000788432 0.999998 
0.00145866 0.003638 0.999992 
0.00417904 0.00424988 0.999982 
0.00394936 0.00777707 0.999962 
0.00709135 0.00263502 0.999971 
0.00194016 0.00380407 0.999991 
0.00421445 0.00318336 0.999986 
0.00550054 0.00500387 0.999972 
0.00652995 0.00469081 0.999968 
0.0103791 -0.00321856 0.999941 
0.00611129 0.00507484 0.999968 
0.00940922 -0.00516743 0.999942 
0.00666078 0.00204771 0.999976 
0.00492162 -0.00611782 0.999969 
0.00813218 0.00130284 0.999966 
0.00339964 -0.00106115 0.999994 
0.00641959 -0.00435603 0.99997 
0.00551069 -0.00845787 0.999949 
-0.00214341 0.0036656 0.999991 
0.00369103 0.00169525 0.999992 
0.00656486 0.00216314 0.999976 
0.00966653 0.0229828 0.999689 
0.0273223 0.0363884 0.998964 
0.0519175 0.0742499 0.995887 
0.08749 0.141867 0.986012 
0.153714 0.235901 0.959543 
0.24066 0.369499 0.897526 
0.172937 -0.388945 0.904884 
0.116458 -0.234081 0.965217 
0.073848 -0.138213 0.987645 
0.0427097 -0.0674543 0.996808 
0.0202155 -0.0365107 0.999129 
0.0127913 -0.0098648 0.99987 
0.00656838 -0.0115446 0.999912 
0.00139672 0.00175746 0.999997 
0.00341359 -0.000321075 0.999994 
0.00135226 -0.000408021 0.999999 
0.00011591 0.000773518 1 
0.00255471 0.00301778 0.999992 
-0.00111291 0.000981211 0.999999 
0.00896524 0.00673727 0.999937 
0.00434201 0.00665327 0.999968 
0.00980777 0.00237031 0.999949 
0.012296 0.00483574 0.999913 
0.00320089 0.00146336 0.999994 
0.0126724 -0.00203026 0.999918 
0.00727748 0.0026825 0.99997 
0.00811002 -0.00295083 0.999963 
0.00716068 -0.00241369 0.999971 
0.00510436 -0.00374283 0.99998 
0.0042205 -0.00672564 0.999968 
0.000761241 -0.00326818 0.999994 
-0.000895689 0.00342823 0.999994 
0.00589742 -0.00363804 0.999976 
-0.00187102 -0.000916537 0.999998 
0.0014541 0.00900088 0.999958 
0.00581738 0.0107496 0.999925 
0.0211243 0.0404385 0.998959 
0.0444159 0.074883 0.996203 
0.085439 0.138998 0.9866 
0.132202 0.23953 0.961846 
0.197359 0.380307 0.903557 
0.150436 -0.414372 0.897588 
0.0987538 -0.251019 0.962932 
0.0559939 -0.142417 0.988222 
0.0318491 -0.0792 0.99635 
0.0135141 -0.034321 0.999319 
0.00786868 -0.0193744 0.999781 
-0.00117648 -0.00872263 0.999961 
0.00436316 -0.00140616 0.999989 
0.00183933 -0.00527535 0.999984 
-0.000584955 -0.00249996 0.999997 
0.00381836 0.0026167 0.999989 
0.00249445 -0.00177674 0.999995 
0.00376571 0.00392691 0.999985 
0.00486298 0.00560649 0.999972 
0.0105653 0.00365727 0.999937 
0.0073551 0.00255352 0.99997 
0.00712365 0.000986849 0.999974 
0.00733008 -0.00030172 0.999973 
0.00871323 -0.00135475 0.999961 
0.00973869 -0.00259939 0.999949 
0.00483152 -0.00409732 0.99998 
0.00844151 -0.00489639 0.999952 
0.00606269 0.000187665 0.999982 
0.007732 -0.00362164 0.999964 
0.00494664 0.00150379 0.999987 
0.00913249 -0.00276726 0.999954 
0.00152333 -0.00674321 0.999976 
-0.000976392 -0.00480036 0.999988 
0.00102148 0.00194903 0.999998 
0.00446344 -0.00800354 0.999958 
0.00230534 0.0137831 0.999902 
0.00748043 0.013515 0.999881 
0.0216615 0.038043 0.999041 
0.0385586 0.0750564 0.996434 
0.0753192 0.143829 0.986732 
0.11391 0.247544 0.962157 
0.166998 0.411058 0.896183 
0.141573 -0.436179 0.888653 
0.0921106 -0.267421 0.959167 
0.052273 -0.150392 0.987244 
0.0309064 -0.0795731 0.99635 
0.0155911 -0.039442 0.9991 
0.00834555 -0.0189195 0.999786 
0.00628329 -0.004382 0.999971 
0.00207061 -0.000945108 0.999997 
-0.00353354 1.59849e-05 0.999994 
-0.00056381 0.00298973 0.999995 
0.00233309 -0.00026655 0.999997 
4.64548e-05 0.00231977 0.999997 
0.0108753 0.000447218 0.999941 
0.000747291 -0.00167176 0.999998 
0.00302541 0.00265148 0.999992 
0.00820836 -0.00216289 0.999964 
0.00685622 0.00109275 0.999976 
0.00609895 -0.00617229 0.999962 
0.00856919 0.00134858 0.999962 
0.00241207 -0.00625977 0.999977 
0.0119946 -0.00515498 0.999915 
0.00544836 -0.00378947 0.999978 
0.00524862 -0.00732085 0.999959 
0.00827583 -0.00468471 0.999955 
0.00191719 -0.00733127 0.999971 
0.00408176 -0.00189412 0.99999 
0.00321118 0.000986772 0.999994 
0.00550444 0.000953078 0.999984 
-0.00329455 0.00466405 0.999984 
-0.00236547 0.00343688 0.999991 
0.00143663 0.00464234 0.999988 
0.00463427 0.0183974 0.99982 
0.0161074 0.040084 0.999066 
0.0332627 0.0772919 0.996453 
0.0653019 0.151759 0.986258 
0.104691 0.262365 0.959273 
0.162873 0.433215 0.886452 
0.142801 -0.444826 0.884159 
0.0826156 -0.275641 0.957704 
0.051784 -0.150853 0.987199 
0.0209604 -0.0832197 0.996311 
0.0136972 -0.042535 0.999001 
0.00339928 -0.0161919 0.999863 
-0.00274538 -0.00650663 0.999975 
0.00283297 -0.00914635 0.999954 
-0.00481046 -0.00443845 0.999979 
0.00612695 -0.00139934 0.99998 
0.00655195 -0.00715549 0.999953 
0.000127387 -0.00246985 0.999997 
0.00254847 -0.00476685 0.999985 
-0.00126363 0.000286158 0.999999 
0.00822166 0.0012034 0.999965 
0.00811316 0.000809582 0.999967 
0.00705279 -0.00326986 0.99997 
0.0105813 0.00340798 0.999938 
0.00551403 -0.0028528 0.999981 
0.0107193 -0.0044533 0.999933 
0.00440034 -0.00646766 0.999969 
0.00587679 -0.00428161 0.999974 
0.00523679 -0.00965854 0.99994 
0.00650539 -0.00345742 0.999973 
0.00575182 -0.00407518 0.999975 
0.0082039 0.00139445 0.999965 
0.006122 -0.0031887 0.999976 
0.0053625 -0.00196839 0.999984 
0.000928034 -0.00172894 0.999998 
0.006373 -0.00269147 0.999976 
0.00212823 0.00138956 0.999997 
-0.00151209 0.00295578 0.999994 
0.00891715 0.00649139 0.999939 
0.00894497 0.0134864 0.999869 
0.0188871 0.0431518 0.99889 
0.0347913 0.083486 0.995901 
0.0595486 0.1486 0.987103 
0.103065 0.268531 0.957742 
0.16479 0.427756 0.888746 
0.136754 -0.435724 0.889631 
0.083208 -0.265723 0.960452 
0.0490918 -0.159093 0.986042 
0.0270382 -0.0836913 0.996125 
0.0146563 -0.0407772 0.999061 
0.0053188 -0.0222539 0.999738 
0.00417103 -0.00730757 0.999965 
-0.0022616 -0.00530935 0.999983 
0.00167443 0.00139288 0.999998 
6.51915e-05 -0.00550998 0.999985 
-0.0049182 -0.00217474 0.999986 
0.00723193 -0.000193612 0.999974 
0.00613855 -0.00163875 0.99998 
0.00309679 -0.000637372 0.999995 
0.00909496 -0.00473743 0.999947 
0.001388 -0.00258723 0.999996 
0.00695758 -0.00420736 0.999967 
0.00380954 -0.00943616 0.999948 
0.00318823 -0.00715589 0.999969 
0.00461834 -0.0126212 0.99991 
0.00031259 -0.00768179 0.99997 
0.000922199 -0.0140302 0.999901 
0.00202271 -0.00524551 0.999984 
0.000327761 -0.00798049 0.999968 
0.0043559 -0.00443345 0.999981 
0.00526938 -0.0051885 0.999973 
0.0028962 -0.00224626 0.999993 
0.00532383 0.00079305 0.999986 
0.00320082 -0.00306222 0.99999 
0.00254747 0.00399579 0.999989 
0.00276295 -0.00209277 0.999994 
0.00260514 0.00409277 0.999988 
-0.00242959 0.0135811 0.999905 
0.00450426 0.0179438 0.999829 
0.0175678 0.0405102 0.999025 
0.0259589 0.0829021 0.99622 
0.059375 0.15063 0.986806 
0.0919262 0.255318 0.962477 
0.14611 0.403849 0.903083 
0.1129 -0.414521 0.903009 
0.0808035 -0.277057 0.95745 
0.0439629 -0.162767 0.985685 
0.0273364 -0.0923129 0.995355 
0.00880869 -0.0381337 0.999234 
0.00456482 -0.0179639 0.999828 
0.0020656 -0.00598654 0.99998 
1.78262e-05 -0.00634997 0.99998 
-0.000248889 -0.00182498 0.999998 
0.000525394 -0.00616386 0.999981 
0.0010908 -0.0014222 0.999998 
-0.000153561 -0.00517935 0.999987 
0.00656381 -0.00689297 0.999955 
0.00462767 -0.00373218 0.999982 
0.00710478 -0.00506697 0.999962 
0.00378671 -0.00372093 0.999986 
0.00726949 -0.00794393 0.999942 
0.00410659 -0.00765652 0.999962 
0.00282632 -0.010734 0.999938 
0.00422757 -0.00397582 0.999983 
0.00584902 -0.0145285 0.999877 
-0.00377877 -0.0061815 0.999974 
0.00550753 -0.00867473 0.999947 
0.00314398 -0.00697432 0.999971 
-9.7258e-05 -0.00750011 0.999972 
0.00345658 -0.00149587 0.999993 
0.00105383 -0.00220412 0.999997 
0.00425112 0.000247242 0.999991 
0.00391837 0.00183954 0.999991 
0.00465542 0.00203151 0.999987 
6.5784e-05 0.00132589 0.999999 
0.00491063 0.0033221 0.999982 
0.0065221 0.00138732 0.999978 
0.00243947 0.0151403 0.999882 
0.017289 0.0354236 0.999223 
0.0204674 0.0673674 0.997518 
0.04481 0.142335 0.988804 
0.0712709 0.243066 0.967388 
0.104449 0.388995 0.915299 
0.083172 -0.40567 0.910228 
0.0532339 -0.229792 0.971783 
0.0268945 -0.120165 0.99239 
0.0136491 -0.0538598 0.998455 
0.0109228 -0.0257813 0.999608 
-0.00032842 -0.0153859 0.999882 
0.00122979 0.00296207 0.999995 
0.000606946 -0.00693995 0.999976 
-0.000878072 -0.00150637 0.999998 
-0.00242728 -0.00422038 0.999988 
0.00721234 -0.0035088 0.999968 
0.00248265 -0.00609781 0.999978 
0.00127649 -0.00360443 0.999993 
0.00466498 -0.00367527 0.999982 
0.006306 -0.00714744 0.999955 
0.00543103 -0.00643854 0.999965 
0.0022622 -0.00646312 0.999977 
0.00137963 -0.00787494 0.999968 
0.00695826 -0.011167 0.999913 
-0.00554081 -0.0139495 0.999887 
0.00148681 -0.0106317 0.999942 
-0.000194824 -0.013577 0.999908 
-0.00188476 -0.0141607 0.999898 
-0.000713957 -0.00557073 0.999984 
0.00153766 -0.00468422 0.999988 
0.00475119 -0.00399961 0.999981 
0.00277227 -0.00251707 0.999993 
0.0101303 0.00152531 0.999948 
0.00106031 -0.0035574 0.999993 
0.00633416 0.000722153 0.99998 
0.00716904 -7.08401e-06 0.999974 
-0.000972375 0.00152361 0.999998 
0.002644 0.00520076 0.999983 
0.00628386 0.0119486 0.999909 
0.00555673 0.0279702 0.999593 
0.0128403 0.0677244 0.997621 
0.0283784 0.115963 0.992848 
0.0405085 0.222473 0.974097 
0.0633769 0.394168 0.91685 
0.0475526 -0.404486 0.913307 
0.0429712 -0.263584 0.963679 
0.0237889 -0.144643 0.989198 
0.0185928 -0.0736392 0.997112 
0.00670774 -0.0326463 0.999444 
0.00207332 -0.0093529 0.999954 
0.000158373 -0.00916706 0.999958 
-0.0049225 -0.00209541 0.999986 
0.000824837 -0.00281562 0.999996 
-0.000358341 -0.00395604 0.999992 
-5.46605e-05 -0.002622 0.999997 
0.0016751 -0.00485971 0.999987 
0.0041762 -0.0040079 0.999983 
0.00772882 -0.00580053 0.999953 
0.000308744 -0.00551871 0.999985 
0.000290669 -0.00875978 0.999962 
0.003673 -0.0105142 0.999938 
-0.0029674 -0.0118851 0.999925 
-0.00218354 -0.00900448 0.999957 
-0.00260624 -0.0171629 0.999849 
-0.00263707 -0.0103783 0.999943 
-0.00402376 -0.0106808 0.999935 
-0.00510729 -0.00657118 0.999965 
-0.00301675 -0.0113476 0.999931 
-0.00334191 -0.00297305 0.99999 
0.000497445 -0.00452402 0.99999 
-0.00387593 -0.000208748 0.999992 
0.00139886 -0.00395621 0.999991 
0.00679383 0.00551562 0.999962 
0.00189253 -0.000242496 0.999998 
0.00163142 0.000633905 0.999998 
0.00483972 0.00109285 0.999988 
0.0035948 0.00415924 0.999985 
-0.000102983 0.00764271 0.999971 
0.00492497 0.0255842 0.999661 
0.00492718 0.0535255 0.998554 
0.0187983 0.138503 0.990184 
0.0304437 0.252435 0.967135 
0.0312478 0.402527 0.914875 
0.0283291 -0.41399 0.90984 
0.0182035 -0.217346 0.975925 
0.0117102 -0.106925 0.994198 
0.0032992 -0.0453276 0.998967 
0.00137034 -0.0152492 0.999883 
-0.000940168 -0.00865683 0.999962 
0.00371299 0.00435669 0.999984 
-0.00847058 -0.00871157 0.999926 
-0.000649502 -0.000902354 0.999999 
-0.00115929 -0.00594168 0.999982 
-0.00202737 -0.00434265 0.999989 
0.00180724 -0.00481094 0.999987 
0.00415315 -0.00315644 0.999986 
-0.00130422 -0.00832447 0.999965 
0.00373306 -0.00367376 0.999986 
0.00910543 -0.00328822 0.999953 
0.000332298 -0.00995655 0.99995 
0.00283339 -0.0073549 0.999969 
0.001721 -0.015403 0.99988 
-0.000990964 -0.00580473 0.999983 
-0.00124515 -0.0149832 0.999887 
-0.00443595 -0.0110549 0.999929 
0.00324245 -0.0120222 0.999922 
-0.000108172 -0.00182448 0.999998 
-0.00340371 -0.00951826 0.999949 
-0.00141242 -0.000282322 0.999999 
0.00683448 -0.00128379 0.999976 
0.002768 0.00270589 0.999993 
0.0023295 -0.00452311 0.999987 
0.00689346 -0.00177358 0.999975 
0.00398145 0.000560352 0.999992 
0.00628654 -1.80302e-05 0.99998 
-0.00323379 0.00281028 0.999991 
0.00451857 0.00986347 0.999941 
-0.000123275 0.0269709 0.999636 
0.00438631 0.0563554 0.998401 
0.000206278 0.114315 0.993445 
0.00475847 0.21447 0.976719 
0.0151401 0.410884 0.911562 
0.0135304 -0.417221 0.908704 
0.00783824 -0.262408 0.964925 
0.0095992 -0.147311 0.989044 
0.00530831 -0.0683564 0.997647 
0.00449558 -0.0300063 0.99954 
0.00064218 -0.00814947 0.999967 
-0.00374976 -0.00756565 0.999964 
-0.000416738 0.0013873 0.999999 
-0.000152856 -0.000991995 0.999999 
-0.00628113 -0.0043858 0.999971 
0.0035962 -0.0020242 0.999991 
-0.000750499 -0.00412189 0.999991 
0.000797583 -0.00668325 0.999977 
0.00174741 0.00230746 0.999996 
0.00206142 -0.00928722 0.999955 
-0.00430538 -0.00471305 0.99998 
0.000596758 -0.00492125 0.999988 
-0.00241326 -0.00723193 0.999971 
-0.00344789 -0.00593745 0.999976 
-0.00225195 -0.012799 0.999916 
-0.00219957 -0.00780625 0.999967 
-0.000302036 -0.0104605 0.999945 
-0.0092457 -0.00595389 0.99994 
-0.00846644 -0.00729304 0.999938 
0.00178079 -0.00128835 0.999998 
-0.0043923 0.00138937 0.999989 
-0.00145931 -0.00335209 0.999993 
0.00308949 -0.00197966 0.999993 
0.00191297 -0.000374068 0.999998 
0.00569377 0.00368032 0.999977 
0.00265222 -0.00128745 0.999996 
0.00397809 0.000401939 0.999992 
0.00200752 0.0020009 0.999996 
-0.000428231 0.00959037 0.999954 
-0.00435177 0.024487 0.999691 