# vtk DataFile Version 3.0 
Exported using Morpho https://github.com/Morpho-lang/morpho 
ASCII 
DATASET UNSTRUCTURED_GRID 

POINTS 1245 float 
-0.304038 -0.95266 0 
-0.251441 -0.967873 0 
-0.196599 -0.980484 0 
-0.147939 -0.988996 0 
-0.096254 -0.995357 0 
-0.0483601 -0.99883 0 
-0.000451504 -1 0 
0.0482414 -0.998836 0 
0.0956209 -0.995418 0 
0.145924 -0.989296 0 
0.198694 -0.980062 0 
0.248343 -0.968672 0 
0.30399 -0.952675 0 
-0.409672 -0.912233 0 
-0.356859 -0.934158 0 
-0.307625 -0.898571 0 
-0.256611 -0.914841 0 
-0.205389 -0.933372 0 
-0.153069 -0.927934 0 
-0.102396 -0.94791 0 
-0.0498583 -0.935106 0 
0.00142854 -0.953377 0 
0.052561 -0.9331 0 
0.104134 -0.942389 0 
0.156872 -0.938823 0 
0.206982 -0.919507 0 
0.258749 -0.920951 0 
0.310446 -0.900065 0 
0.357716 -0.93383 0 
0.410714 -0.911764 0 
-0.51437 -0.857568 0 
-0.462407 -0.886668 0 
-0.411015 -0.857376 0 
-0.359501 -0.879663 0 
-0.305707 -0.84665 0 
-0.253622 -0.86425 0 
-0.200473 -0.885626 0 
-0.148805 -0.868805 0 
-0.0992128 -0.89633 0 
-0.0484472 -0.873916 0 
0.00154915 -0.899374 0 
0.0506565 -0.870008 0 
0.099584 -0.888189 0 
0.15259 -0.889657 0 
0.203706 -0.862941 0 
0.255384 -0.874358 0 
0.307954 -0.849391 0 
0.361689 -0.879386 0 
0.412615 -0.856642 0 
0.46325 -0.886228 0 
0.514942 -0.857225 0 
-0.565364 -0.824841 0 
-0.512807 -0.802464 0 
-0.462454 -0.831649 0 
-0.409305 -0.803744 0 
-0.35814 -0.826779 0 
-0.304287 -0.794815 0 
-0.252533 -0.812725 0 
-0.199644 -0.834469 0 
-0.148659 -0.811689 0 
-0.0980329 -0.840437 0 
-0.0486484 -0.814709 0 
0.00110327 -0.841666 0 
0.0507222 -0.810511 0 
0.10012 -0.830521 0 
0.151601 -0.838979 0 
0.201398 -0.807576 0 
0.253879 -0.824556 0 
0.305585 -0.798078 0 
0.359663 -0.826545 0 
0.410331 -0.802786 0 
0.463256 -0.830671 0 
0.513382 -0.802055 0 
0.565855 -0.824505 0 
-0.661127 -0.750274 0 
-0.614521 -0.7889 0 
-0.561833 -0.769262 0 
-0.50964 -0.747742 0 
-0.460175 -0.777438 0 
-0.407225 -0.750461 0 
-0.356449 -0.774194 0 
-0.303021 -0.743169 0 
-0.251726 -0.760737 0 
-0.199698 -0.781574 0 
-0.149469 -0.755674 0 
-0.0987361 -0.784111 0 
-0.0495663 -0.757521 0 
0.00074427 -0.784506 0 
0.0499021 -0.753017 0 
0.0986422 -0.771593 0 
0.148465 -0.786798 0 
0.198905 -0.753762 0 
0.25178 -0.773224 0 
0.303018 -0.746409 0 
0.356897 -0.773838 0 
0.407278 -0.749476 0 
0.460508 -0.775969 0 
0.509912 -0.747635 0 
0.562265 -0.768427 0 
0.614899 -0.788606 0 
0.660916 -0.75046 0 
-0.707137 -0.707076 0 
-0.654232 -0.698242 0 
-0.60786 -0.732501 0 
-0.557385 -0.712939 0 
-0.507468 -0.693124 0 
-0.457791 -0.723521 0 
-0.40534 -0.697562 0 
-0.354815 -0.72183 0 
-0.302133 -0.691777 0 
-0.251077 -0.708675 0 
-0.199931 -0.727612 0 
-0.150301 -0.700335 0 
-0.0999236 -0.728385 0 
-0.051087 -0.701823 0 
-0.000421628 -0.728505 0 
0.0495464 -0.698598 0 
0.0984035 -0.713168 0 
0.147599 -0.732599 0 
0.197896 -0.700126 0 
0.250029 -0.721435 0 
0.301757 -0.694342 0 
0.353927 -0.721143 0 
0.403704 -0.696683 0 
0.456847 -0.721566 0 
0.505628 -0.694419 0 
0.557407 -0.711375 0 
0.607266 -0.730582 0 
0.652491 -0.698197 0 
0.706565 -0.707648 0 
-0.750394 -0.660991 0 
-0.698464 -0.654201 0 
-0.647093 -0.646808 0 
-0.60217 -0.67432 0 
-0.556909 -0.655804 0 
-0.506644 -0.64072 0 
-0.455848 -0.670392 0 
-0.404184 -0.645105 0 
-0.353627 -0.669626 0 
-0.301541 -0.640968 0 
-0.250517 -0.65732 0 
-0.200181 -0.673083 0 
-0.151003 -0.645606 0 
-0.100944 -0.673231 0 
-0.0519388 -0.647066 0 
-0.00212132 -0.674276 0 
0.047866 -0.647977 0 
0.0973944 -0.654915 0 
0.14682 -0.677634 0 
0.197663 -0.647208 0 
0.249531 -0.669554 0 
0.301392 -0.642514 0 
0.353151 -0.66764 0 
0.404352 -0.642769 0 
0.451679 -0.667224 0 
0.497353 -0.643748 0 
0.550472 -0.654874 0 
0.599514 -0.669274 0 
0.647435 -0.648156 0 
0.698584 -0.655155 0 
0.750179 -0.661235 0 
-0.789039 -0.614343 0 
-0.732835 -0.607626 0 
-0.675089 -0.602016 0 
-0.61271 -0.611831 0 
-0.56007 -0.604859 0 
-0.506586 -0.591159 0 
-0.4548 -0.618267 0 
-0.402585 -0.593363 0 
-0.352885 -0.617892 0 
-0.301898 -0.590774 0 
-0.249931 -0.607445 0 
-0.20047 -0.618026 0 
-0.152094 -0.591572 0 
-0.101636 -0.618979 0 
-0.0515543 -0.593574 0 
-0.00244032 -0.620678 0 
0.0493493 -0.600163 0 
0.0984462 -0.59791 0 
0.147214 -0.623273 0 
0.19846 -0.594491 0 
0.248849 -0.617954 0 
0.29924 -0.591281 0 
0.352315 -0.614754 0 
0.403831 -0.593284 0 
0.455787 -0.608592 0 
0.520167 -0.601585 0 
0.571237 -0.605653 0 
0.620059 -0.607814 0 
0.678676 -0.602486 0 
0.734122 -0.607948 0 
0.789144 -0.614208 0 
-0.824938 -0.565223 0 
-0.769277 -0.561556 0 
-0.712842 -0.556856 0 
-0.655558 -0.556882 0 
-0.604723 -0.559782 0 
-0.552376 -0.552301 0 
-0.499741 -0.541558 0 
-0.452146 -0.567692 0 
-0.399788 -0.54198 0 
-0.351333 -0.566006 0 
-0.301369 -0.539423 0 
-0.251944 -0.559984 0 
-0.202344 -0.562389 0 
-0.151729 -0.539373 0 
-0.101412 -0.56624 0 
-0.0504147 -0.541753 0 
-0.000400428 -0.568612 0 
0.0512066 -0.551572 0 
0.100052 -0.542814 0 
0.148635 -0.569469 0 
0.199383 -0.542248 0 
0.24951 -0.565612 0 
0.300492 -0.537743 0 
0.346797 -0.563054 0 
0.392054 -0.54738 0 
0.444834 -0.550376 0 
0.492055 -0.564982 0 
0.548979 -0.550909 0 
0.602765 -0.5553 0 
0.655752 -0.556591 0 
0.713249 -0.556635 0 
0.769373 -0.561367 0 
0.824922 -0.565247 0 
-0.857615 -0.514292 0 
-0.802388 -0.512635 0 
-0.747487 -0.509447 0 
-0.692481 -0.506961 0 
-0.640359 -0.506188 0 
-0.590701 -0.507101 0 
-0.539866 -0.49886 0 
-0.492526 -0.491066 0 
-0.44688 -0.51632 0 
-0.399236 -0.489206 0 
-0.350286 -0.513725 0 
-0.298979 -0.489497 0 
-0.247977 -0.513509 0 
-0.199703 -0.507566 0 
-0.150161 -0.487331 0 
-0.10059 -0.514616 0 
-0.049804 -0.490619 0 
0.000625811 -0.517509 0 
0.0508042 -0.501589 0 
0.0999639 -0.489781 0 
0.149517 -0.516323 0 
0.199861 -0.49053 0 
0.249857 -0.513971 0 
0.301105 -0.486926 0 
0.350992 -0.50621 0 
0.406179 -0.503633 0 
0.453702 -0.495579 0 
0.499381 -0.517896 0 
0.54509 -0.495628 0 
0.589875 -0.502992 0 
0.639769 -0.505125 0 
0.692133 -0.507178 0 
0.747231 -0.509351 0 
0.802239 -0.512834 0 
0.8575 -0.514485 0 
-0.886692 -0.462362 0 
-0.831447 -0.46229 0 
-0.776968 -0.459992 0 
-0.722557 -0.457864 0 
-0.668309 -0.454847 0 
-0.615699 -0.454692 0 
-0.563442 -0.455041 0 
-0.504959 -0.444494 0 
-0.448651 -0.462232 0 
-0.399535 -0.438236 0 
-0.349128 -0.46264 0 
-0.299137 -0.439068 0 
-0.248305 -0.464591 0 
-0.199624 -0.454437 0 
-0.150124 -0.436363 0 
-0.0998408 -0.463181 0 
-0.0495775 -0.439683 0 
0.000657363 -0.466432 0 
0.050398 -0.45109 0 
0.0997795 -0.438004 0 
0.14961 -0.46426 0 
0.20006 -0.439543 0 
0.250155 -0.462985 0 
0.300624 -0.436016 0 
0.349741 -0.453489 0 
0.398431 -0.460711 0 
0.448861 -0.444362 0 
0.501772 -0.463516 0 
0.556306 -0.446047 0 
0.610655 -0.453181 0 
0.665731 -0.455702 0 
0.720992 -0.458228 0 
0.776173 -0.460571 0 
0.831102 -0.462917 0 
0.886543 -0.462645 0 
-0.912236 -0.409665 0 
-0.857204 -0.410967 0 
-0.803392 -0.409217 0 
-0.74994 -0.407407 0 
-0.696663 -0.406178 0 
-0.642836 -0.402615 0 
-0.594083 -0.40314 0 
-0.543712 -0.409305 0 
-0.498184 -0.388941 0 
-0.452699 -0.414143 0 
-0.401283 -0.388854 0 
-0.349739 -0.411899 0 
-0.299455 -0.388886 0 
-0.248771 -0.414704 0 
-0.199804 -0.40237 0 
-0.150194 -0.385975 0 
-0.0998826 -0.412316 0 
-0.0496331 -0.389139 0 
0.000643541 -0.415495 0 
0.0502079 -0.40057 0 
0.099715 -0.387048 0 
0.149647 -0.41299 0 
0.200027 -0.388895 0 
0.250027 -0.412129 0 
0.301055 -0.385878 0 
0.350404 -0.401986 0 
0.40041 -0.412751 0 
0.450882 -0.391618 0 
0.499731 -0.416383 0 
0.544034 -0.393568 0 
0.59137 -0.399783 0 
0.642288 -0.404278 0 
0.695365 -0.407079 0 
0.749328 -0.408637 0 
0.803118 -0.410657 0 
0.857365 -0.412146 0 
0.912211 -0.40972 0 
-0.934162 -0.35685 0 
-0.879422 -0.35942 0 
-0.826293 -0.357958 0 
-0.773333 -0.356351 0 
-0.720158 -0.355668 0 
-0.665775 -0.356607 0 
-0.607138 -0.350008 0 
-0.553621 -0.361137 0 
-0.5022 -0.339404 0 
-0.449669 -0.361737 0 
-0.400008 -0.33791 0 
-0.350294 -0.361968 0 
-0.299735 -0.338845 0 
-0.249149 -0.364486 0 
-0.19989 -0.351123 0 
-0.150231 -0.335907 0 
-0.0999158 -0.361809 0 
-0.0496591 -0.338853 0 
0.000579022 -0.364807 0 
0.0501213 -0.350175 0 
0.0996736 -0.336536 0 
0.149689 -0.362171 0 
0.200173 -0.338592 0 
0.250216 -0.361805 0 
0.300977 -0.33584 0 
0.350317 -0.350432 0 
0.400031 -0.363711 0 
0.449445 -0.340113 0 
0.500426 -0.362497 0 
0.556035 -0.344079 0 
0.610296 -0.352686 0 
0.6665 -0.355417 0 
0.719677 -0.357923 0 
0.773735 -0.358184 0 
0.826983 -0.360351 0 
0.879942 -0.360326 0 
0.934344 -0.356372 0 
-0.952661 -0.304036 0 
-0.898427 -0.307629 0 
-0.846493 -0.305546 0 
-0.794931 -0.304029 0 
-0.743864 -0.303138 0 
-0.693611 -0.30459 0 
-0.643467 -0.30958 0 
-0.599353 -0.290969 0 
-0.55443 -0.313997 0 
-0.503336 -0.288984 0 
-0.45199 -0.311834 0 
-0.401101 -0.288191 0 
-0.349902 -0.311422 0 
-0.299643 -0.288622 0 
-0.249349 -0.314247 0 
-0.199915 -0.300435 0 
-0.150269 -0.285978 0 
-0.0999683 -0.311532 0 
-0.0497289 -0.288717 0 
0.000527779 -0.314369 0 
0.0500741 -0.299964 0 
0.0996409 -0.286337 0 
0.149787 -0.311716 0 
0.200238 -0.28842 0 
0.250326 -0.311555 0 
0.301235 -0.286006 0 
0.350591 -0.299681 0 
0.400449 -0.31341 0 
0.451856 -0.289027 0 
0.501314 -0.314699 0 
0.544921 -0.289691 0 
0.590901 -0.297941 0 
0.640135 -0.307218 0 
0.69435 -0.304347 0 
0.742809 -0.307966 0 
0.7979 -0.307375 0 
0.847482 -0.307936 0 
0.899876 -0.308548 0 
0.953167 -0.302446 0 
-0.967863 -0.251479 0 
-0.914487 -0.256648 0 
-0.863556 -0.253418 0 
-0.811732 -0.251971 0 
-0.759393 -0.251316 0 
-0.706493 -0.252194 0 
-0.653718 -0.258815 0 
-0.607533 -0.238533 0 
-0.553063 -0.261024 0 
-0.502377 -0.238056 0 
-0.452064 -0.261845 0 
-0.401205 -0.238175 0 
-0.350516 -0.261491 0 
-0.299965 -0.238667 0 
-0.249417 -0.263974 0 
-0.199916 -0.250071 0 
-0.150304 -0.236053 0 
-0.100036 -0.261399 0 
-0.0497663 -0.238671 0 
0.000445464 -0.264099 0 
0.0500404 -0.249853 0 
0.0996125 -0.23625 0 
0.149834 -0.261487 0 
0.200323 -0.238399 0 
0.25055 -0.261503 0 
0.301452 -0.23621 0 
0.351157 -0.249436 0 
0.401482 -0.263625 0 
0.451962 -0.237781 0 
0.501557 -0.260261 0 
[...]
POINT_DATA 1245 
VECTORS vectors float
0.786038 -0.263606 0.559157 
0.794815 -0.222708 0.564508 
0.801066 -0.175997 0.572118 
0.806138 -0.13245 0.576714 
0.811371 -0.0861977 0.578141 
0.81085 -0.0433365 0.583647 
0.815162 0.00145175 0.579231 
0.814491 0.0424733 0.57862 
0.81195 0.0824313 0.577877 
0.809215 0.125189 0.57402 
0.803372 0.168269 0.571209 
0.794909 0.207452 0.570161 
0.782707 0.253363 0.568487 
0.758841 -0.342747 0.553792 
0.774326 -0.303604 0.555197 
0.641444 -0.230407 0.731753 
0.649059 -0.19376 0.735649 
0.670657 -0.159974 0.724311 
0.629796 -0.114399 0.76829 
0.671257 -0.0815821 0.736721 
0.622758 -0.0352974 0.781618 
0.675994 -0.0016151 0.736905 
0.617294 0.0374604 0.78584 
0.658254 0.0769839 0.748849 
0.666645 0.115033 0.736445 
0.631058 0.145148 0.762036 
0.667008 0.192208 0.719831 
0.642404 0.220983 0.733814 
0.76824 0.29662 0.567295 
0.750372 0.340143 0.566785 
0.713989 -0.422446 0.558354 
0.738741 -0.382203 0.555141 
0.617996 -0.297361 0.727776 
0.631328 -0.26261 0.729699 
0.501629 -0.186466 0.844748 
0.511591 -0.158989 0.844392 
0.537068 -0.13441 0.832762 
0.468486 -0.086689 0.879208 
0.524581 -0.0655251 0.848835 
0.458255 -0.0290569 0.888346 
0.5198 0.0012447 0.854287 
0.449644 0.0262666 0.892821 
0.504235 0.0583179 0.861595 
0.52408 0.0939539 0.846471 
0.478202 0.113993 0.87082 
0.533668 0.15925 0.830565 
0.505756 0.187229 0.842114 
0.622665 0.261089 0.737646 
0.610093 0.293903 0.735804 
0.729335 0.3838 0.566364 
0.706325 0.425616 0.565646 
0.685574 -0.462869 0.561908 
0.582346 -0.365378 0.726203 
0.601719 -0.330797 0.726985 
0.485277 -0.245104 0.839303 
0.495553 -0.218645 0.840608 
0.385034 -0.152389 0.910234 
0.390658 -0.129048 0.911445 
0.408617 -0.104115 0.906748 
0.344999 -0.0714426 0.93588 
0.387972 -0.0498181 0.920324 
0.328853 -0.024082 0.944074 
0.380704 -0.00101878 0.924697 
0.320816 0.0194332 0.946942 
0.368149 0.0454233 0.928656 
0.40078 0.0750925 0.913092 
0.353388 0.0917527 0.930966 
0.412546 0.127879 0.901916 
0.384823 0.148352 0.91099 
0.490318 0.212721 0.845185 
0.472089 0.24548 0.846683 
0.59236 0.331205 0.734447 
0.572661 0.370262 0.731414 
0.679382 0.467579 0.565517 
0.620572 -0.542798 0.565915 
0.654161 -0.503355 0.564541 
0.556049 -0.401804 0.727574 
0.453567 -0.304721 0.837509 
0.469994 -0.276944 0.838098 
0.367917 -0.200232 0.908044 
0.376638 -0.174402 0.909796 
0.287776 -0.119615 0.950199 
0.291262 -0.100321 0.951368 
0.306843 -0.0831344 0.948122 
0.245837 -0.0518376 0.967924 
0.281974 -0.0383468 0.958655 
0.233662 -0.0173441 0.972163 
0.273765 0.000169494 0.961797 
0.227948 0.0138541 0.973575 
0.260554 0.0353362 0.964812 
0.297101 0.0537512 0.953332 
0.255045 0.0680393 0.964532 
0.312071 0.101487 0.944623 
0.289265 0.119336 0.949781 
0.370641 0.172383 0.912639 
0.362693 0.196789 0.910894 
0.461985 0.274319 0.843397 
0.447861 0.306132 0.840062 
0.550863 0.402821 0.730948 
0.64958 0.508144 0.56554 
0.617902 0.546403 0.565368 
0.583157 -0.581974 0.566775 
0.50895 -0.474092 0.718475 
0.527026 -0.432484 0.731575 
0.431222 -0.332243 0.838846 
0.347965 -0.252287 0.902924 
0.360424 -0.223642 0.905582 
0.277366 -0.158743 0.947559 
0.28462 -0.140831 0.948239 
0.213869 -0.0955763 0.972176 
0.21472 -0.077967 0.973559 
0.222433 -0.0665743 0.972672 
0.178365 -0.0409174 0.983113 
0.200694 -0.0319265 0.979134 
0.165392 -0.0138166 0.986131 
0.192691 -0.00259821 0.981256 
0.160326 0.0106945 0.987006 
0.182612 0.0238986 0.982895 
0.213965 0.0454629 0.975783 
0.188798 0.0522735 0.980624 
0.227313 0.0806285 0.970478 
0.214191 0.0926345 0.972389 
0.276075 0.135497 0.951537 
0.268706 0.156999 0.950341 
0.347567 0.222463 0.910883 
0.344771 0.251762 0.904294 
0.424681 0.334749 0.841183 
0.516558 0.433955 0.73814 
0.504587 0.473323 0.722051 
0.581551 0.585474 0.564818 
0.544377 -0.61865 0.566503 
0.47722 -0.50635 0.718241 
0.404116 -0.403061 0.821116 
0.405027 -0.359643 0.840601 
0.329678 -0.276823 0.902597 
0.264237 -0.205993 0.942203 
0.268396 -0.181005 0.94615 
0.206512 -0.129409 0.969849 
0.206844 -0.109246 0.972256 
0.15679 -0.073761 0.984874 
0.156905 -0.0623551 0.985643 
0.158089 -0.0481025 0.986253 
0.123154 -0.0311931 0.991897 
0.141018 -0.0229949 0.98974 
0.114922 -0.0105257 0.993319 
0.13733 -0.00169615 0.990524 
0.115812 0.00887503 0.993232 
0.123924 0.0174907 0.992138 
0.150706 0.0310216 0.988092 
0.13112 0.0420505 0.990474 
0.165885 0.0594068 0.984354 
0.154581 0.0734424 0.985247 
0.204109 0.108505 0.972916 
0.198937 0.126093 0.971867 
0.25989 0.175 0.949649 
0.257908 0.200557 0.945125 
0.316646 0.270315 0.909211 
0.391769 0.350427 0.850716 
0.405761 0.411179 0.816266 
0.475872 0.511831 0.715245 
0.543251 0.622601 0.563247 
0.505084 -0.651548 0.566017 
0.432352 -0.52503 0.733086 
0.361468 -0.406083 0.839308 
0.313538 -0.312307 0.896749 
0.2564 -0.235501 0.937442 
0.203022 -0.172492 0.963861 
0.203075 -0.147871 0.967933 
0.149032 -0.0993074 0.983833 
0.156167 -0.0890851 0.983705 
0.114031 -0.0581814 0.991772 
0.11343 -0.0478644 0.992392 
0.112217 -0.0381804 0.99295 
0.0877898 -0.0235385 0.995861 
0.0991965 -0.0182695 0.9949 
0.0806967 -0.00888398 0.996699 
0.0941311 -0.00202475 0.995558 
0.0842736 0.0042824 0.996433 
0.0841464 0.0135059 0.996362 
0.106877 0.0252942 0.99395 
0.0941842 0.0272958 0.995181 
0.121781 0.0508905 0.991251 
0.113783 0.0559222 0.99193 
0.147883 0.0828165 0.985531 
0.150085 0.102136 0.983383 
0.189021 0.142404 0.971593 
0.222315 0.193307 0.955619 
0.266616 0.251169 0.9305 
0.311225 0.322871 0.893808 
0.366434 0.413927 0.833301 
0.435495 0.532306 0.725944 
0.504838 0.655817 0.561287 
0.463724 -0.682441 0.565009 
0.402707 -0.551746 0.730345 
0.333381 -0.428579 0.839748 
0.276357 -0.3244 0.90465 
0.237168 -0.256184 0.937081 
0.191507 -0.190588 0.962809 
0.150726 -0.138943 0.978763 
0.151717 -0.117911 0.981366 
0.111771 -0.083137 0.99025 
0.110248 -0.0676292 0.991601 
0.0822228 -0.0482513 0.995445 
0.0841848 -0.0372976 0.995752 
0.075866 -0.0284814 0.996711 
0.0606316 -0.0181408 0.997995 
0.067615 -0.0129442 0.997628 
0.0555635 -0.00622443 0.998436 
0.0653103 -0.000378943 0.997865 
0.0589213 0.00458466 0.998252 
0.0574104 0.0095679 0.998305 
0.0738225 0.0183722 0.997102 
0.066179 0.0260427 0.997468 
0.0838333 0.0353902 0.995851 
0.0791923 0.0424463 0.995955 
0.105746 0.0675456 0.992096 
0.109548 0.0775962 0.990948 
0.130794 0.105993 0.985727 
0.166972 0.145791 0.975123 
0.184821 0.187908 0.964641 
0.23102 0.250944 0.94003 
0.276328 0.329992 0.902634 
0.332971 0.433222 0.837526 
0.4041 0.555565 0.726671 
0.465897 0.685762 0.55917 
0.421892 -0.710537 0.563155 
0.364625 -0.577862 0.730153 
0.303271 -0.451129 0.83935 
0.250737 -0.343108 0.905212 
0.205784 -0.263102 0.942566 
0.172368 -0.201338 0.964237 
0.138182 -0.147734 0.979326 
0.111445 -0.110383 0.987621 
0.108178 -0.0942265 0.989656 
0.0793264 -0.0629766 0.994857 
0.0803851 -0.0533061 0.995337 
0.0585411 -0.0341586 0.9977 
0.0618105 -0.0293622 0.997656 
0.0519802 -0.0214803 0.998417 
0.0418005 -0.0131827 0.999039 
0.0473035 -0.010163 0.998829 
0.0371379 -0.00470002 0.999299 
0.0474685 -0.00168034 0.998871 
0.0399154 0.00410831 0.999195 
0.0401227 0.00509213 0.999182 
0.0503607 0.0137119 0.998637 
0.0458546 0.0149966 0.998836 
0.0617052 0.0294876 0.997659 
0.0575161 0.0365332 0.997676 
0.075863 0.0498849 0.99587 
0.0877651 0.0693305 0.993726 
0.097985 0.0917041 0.990954 
0.131579 0.126419 0.983212 
0.13755 0.152214 0.978729 
0.169535 0.199536 0.965113 
0.203875 0.262938 0.943026 
0.2534 0.343843 0.904191 
0.304916 0.453611 0.837414 
0.36886 0.579855 0.726437 
0.426621 0.711888 0.557862 
0.379305 -0.735726 0.561101 
0.32887 -0.596735 0.731951 
0.27471 -0.467137 0.840427 
0.222808 -0.353187 0.908634 
0.177815 -0.266534 0.947281 
0.147283 -0.195615 0.969558 
0.117628 -0.148609 0.981875 
0.0877289 -0.100593 0.991052 
0.0818927 -0.0776759 0.99361 
0.0572558 -0.0523661 0.996985 
0.0566931 -0.043698 0.997435 
0.0425233 -0.0287544 0.998682 
0.0418806 -0.0241781 0.99883 
0.0360727 -0.0158774 0.999223 
0.0279496 -0.00982028 0.999561 
0.0327615 -0.0087983 0.999424 
0.0267246 -0.00265821 0.999639 
0.0297637 -0.00190035 0.999555 
0.0287984 0.00258794 0.999582 
0.025937 0.00545339 0.999649 
0.0343287 0.0113414 0.999346 
0.0318402 0.0144036 0.999389 
0.0419243 0.0214296 0.998891 
0.0404598 0.024033 0.998892 
0.0522161 0.0411863 0.997786 
0.065645 0.0575465 0.996182 
0.0725476 0.071555 0.994795 
0.0970192 0.105473 0.989678 
0.110129 0.138222 0.984259 
0.141496 0.192192 0.971103 
0.179518 0.263338 0.947854 
0.223035 0.354484 0.908073 
0.279135 0.465627 0.839806 
0.33278 0.598838 0.728457 
0.385952 0.734921 0.557613 
0.337399 -0.756939 0.559648 
0.293468 -0.615716 0.731279 
0.241026 -0.480447 0.843254 
0.198048 -0.367175 0.908823 
0.157199 -0.273155 0.949039 
0.126621 -0.200783 0.971418 
0.0986553 -0.151513 0.98352 
0.0870215 -0.113996 0.989663 
0.0643796 -0.0809592 0.994636 
0.0598756 -0.0668602 0.995964 
0.0439839 -0.0439155 0.998067 
0.0417848 -0.035365 0.998501 
0.0287561 -0.021956 0.999345 
0.0309952 -0.0178438 0.99936 
0.0259356 -0.0123646 0.999587 
0.0185718 -0.00872708 0.999789 
0.0217762 -0.00579992 0.999746 
0.017375 -0.00398227 0.999841 
0.0210129 -0.00131631 0.999778 
0.0203947 -0.00015457 0.999792 
0.0161768 0.00446885 0.999859 
0.0245881 0.00503644 0.999685 
0.0218844 0.01034 0.999707 
0.0294678 0.0167006 0.999426 
0.0290722 0.02396 0.99929 
0.0387101 0.0315141 0.998753 
0.0485591 0.0455014 0.997783 
0.0519217 0.0593368 0.996887 
0.0747038 0.0897855 0.993156 
0.0794499 0.107885 0.990984 
0.0994735 0.148204 0.983941 
0.126805 0.200347 0.971484 
0.161412 0.27355 0.948218 
0.199326 0.365355 0.909277 
0.248155 0.482119 0.840226 
0.299608 0.614468 0.729838 
0.343934 0.754571 0.558866 
0.296519 -0.774561 0.558688 
0.257004 -0.630038 0.732803 
0.212824 -0.492584 0.84384 
0.172003 -0.374236 0.911242 
0.137474 -0.27959 0.950226 
0.108987 -0.205864 0.972493 
0.0822144 -0.141905 0.98646 
0.0693696 -0.103527 0.992205 
0.0460438 -0.0717856 0.996357 
0.0425561 -0.0528109 0.997697 
0.0308359 -0.0368365 0.998845 
0.027956 -0.0267776 0.99925 
0.0230981 -0.0196663 0.99954 
0.0201741 -0.015171 0.999681 
0.0156575 -0.00993447 0.999828 
0.0144683 -0.00615635 0.999876 
0.0149807 -0.00445414 0.999878 
0.0111515 -0.00422356 0.999929 
0.0136375 0.00132031 0.999906 
0.0115947 -0.000321916 0.999933 
0.0139973 0.00138243 0.999901 
0.0163117 0.00612604 0.999848 
0.0142586 0.00649902 0.999877 
0.0213287 0.0121944 0.999698 
0.0193729 0.0148847 0.999702 
0.0272027 0.0256297 0.999301 
0.0356823 0.0401169 0.998558 
0.0398032 0.0500875 0.997951 
0.0529357 0.0764488 0.995667 
0.063051 0.10065 0.992922 
0.0847012 0.146464 0.985583 
0.109008 0.205413 0.972586 
0.140847 0.280137 0.949571 
0.176889 0.37443 0.910227 
0.218762 0.494312 0.841307 
0.263255 0.629032 0.731447 
0.301466 0.770538 0.561596 
0.255783 -0.788676 0.559076 
0.221114 -0.642566 0.733633 
0.184349 -0.502423 0.844741 
0.145715 -0.384489 0.911556 
0.119491 -0.290274 0.949454 
0.0939324 -0.215631 0.971947 
0.0767831 -0.161373 0.983902 
0.0581632 -0.117879 0.991323 
0.0507316 -0.0945406 0.994228 
0.0373119 -0.0609555 0.997443 
0.0349118 -0.0484525 0.998215 
0.0207093 -0.0301884 0.99933 
0.0217188 -0.0243604 0.999467 
0.0125455 -0.0143303 0.999819 
0.0149871 -0.0105839 0.999832 
0.0120611 -0.00744889 0.9999 
0.00786103 -0.00616849 0.99995 
0.0104462 -0.00276055 0.999942 
0.00757794 -0.000378824 0.999971 
0.0114281 -0.00257205 0.999931 
0.00755533 0.00151771 0.99997 
0.00853711 0.00150532 0.999962 
0.00967444 0.0034143 0.999947 
0.012336 0.00622732 0.999905 
0.0137041 0.0104332 0.999852 
0.0149623 0.014426 0.999784 
0.0189717 0.0213357 0.999592 
0.0259612 0.0309149 0.999185 
0.0261824 0.0432553 0.998721 
0.0430855 0.0632826 0.997065 
0.0443354 0.083657 0.995508 
0.0559157 0.111811 0.992155 
0.0781929 0.155616 0.984718 
0.0967178 0.2151 0.971791 
0.121579 0.28848 0.949736 
0.154011 0.389999 0.907844 
0.188368 0.502584 0.843757 
0.226855 0.642214 0.732188 
0.257666 0.783857 0.564957 
0.214705 -0.799652 0.560765 
0.187998 -0.652283 0.734291 
0.15349 -0.512042 0.845135 
0.123411 -0.390582 0.912258 
0.0973569 -0.289846 0.952109 
0.077014 -0.213262 0.973955 
0.0617053 -0.156171 0.985801 
0.0438181 -0.110598 0.992899 
0.0383206 -0.0805219 0.996016 
0.0257011 -0.0559164 0.998105 
0.0215046 -0.0403253 0.998955 
0.0180317 -0.0265692 0.999484 
0.0150281 -0.0191123 0.999704 
0.0107191 -0.0124797 0.999865 
0.0108995 -0.0112571 0.999877 
0.00765062 -0.00639564 0.99995 
0.00660818 -0.00267795 0.999975 
0.0062754 -0.00521846 0.999967 
0.00598523 -0.00261243 0.999979 
0.00501815 -0.00170869 0.999986 
0.00595476 -0.000545504 0.999982 
0.00540424 0.000190472 0.999985 
0.00671092 0.00224039 0.999975 
0.00551001 0.0034708 0.999979 
0.00995227 0.00771147 0.999921 
0.010074 0.0103891 0.999895 
0.0134414 0.0176898 0.999753 
0.0198023 0.0283725 0.999401 
0.0217098 0.0363134 0.999105 
0.0293188 0.0573625 0.997923 
0.0354118 0.07815 0.996312 
0.0489275 0.115691 0.99208 
0.0636523 0.165324 0.984183 
0.0788069 0.218047 0.972751 
0.106791 0.301201 0.947562 
0.124483 0.393719 0.910763 
0.159089 0.513462 0.843236 
0.188728 0.648891 0.737104 
0.21273 0.794428 0.568886 
0.170383 -0.807296 0.565016 
0.157217 -0.676772 0.719209 
0.126441 -0.539259 0.832594 
0.1041 -0.412104 0.905171 
0.0789581 -0.303574 0.949531 
0.0619786 -0.219732 0.97359 
0.049191 -0.153307 0.986954 
0.0320078 -0.103459 0.994119 
0.0287059 -0.0747666 0.996788 
0.0192167 -0.0495524 0.998587 
0.0173607 -0.0356248 0.999214 
0.00915799 -0.0236889 0.999677 
0.0104808 -0.0182374 0.999779 
0.0069099 -0.0111159 0.999914 
0.00664948 -0.00718909 0.999952 
0.00410116 -0.00563348 0.999976 
0.00489166 -0.00537082 0.999974 
0.00508784 -0.00156633 0.999986 
0.00231563 -0.00235681 0.999995 
0.00529519 -0.000211659 0.999986 
0.00499711 -0.00106525 0.999987 
0.00152539 0.000954481 0.999998 
0.00681952 0.00279628 0.999973 
0.00487648 0.00343998 0.999982 
0.00674486 0.00591753 0.99996 
0.00659916 0.0104771 0.999923 
0.0096798 0.0142456 0.999852 
0.0120192 0.0230633 0.999662 
0.0143904 0.0345978 0.999298 
0.0226005 0.0518134 0.998401 
0.0225617 0.0721221 0.997141 
0.0368737 0.104318 0.99386 
0.0509381 0.148158 0.987651 
0.0561794 0.203704 0.977419 
0.0832948 0.283788 0.955262 
0.0946801 0.379645 0.920275 
0.126353 0.509222 0.851309 
0.14848 0.652449 0.743145 
0.167047 0.802798 0.572373 
0.130667 -0.812434 0.568222 
0.1122 -0.634593 0.764658 
0.0862109 -0.47202 0.877362 
0.0647115 -0.344168 0.936675 
0.0538347 -0.249228 0.966947 
0.0404016 -0.178663 0.98308 
0.0317189 -0.129401 0.991085 
0.023085 -0.0941488 0.99529 
0.0205354 -0.0687241 0.997424 
0.0117636 -0.0455293 0.998894 
0.0129693 -0.0329525 0.999373 
0.00863115 -0.0211776 0.999738 
0.00744568 -0.0135033 0.999881 
0.00437835 -0.0101056 0.999939 
0.00573263 -0.00705705 0.999959 
0.00472027 -0.00458806 0.999978 
0.00215845 -0.00183391 0.999996 
0.00227125 -0.00243131 0.999994 
0.00525614 -0.00130248 0.999985 
0.00114953 -0.0013689 0.999998 
0.0024356 -8.64023e-05 0.999997 
0.00480056 -0.000492627 0.999988 
0.00295307 -0.000357201 0.999996 
0.00369516 0.00325179 0.999988 
0.00488566 0.00475808 0.999977 
0.00431718 0.00694001 0.999967 
0.00680021 0.013479 0.999886 
0.0107176 0.0225125 0.999689 
0.00830154 0.0289832 0.999545 
0.0169008 0.0468883 0.998757 
0.0196183 0.0652711 0.997675 
0.0221395 0.0964991 0.995087 
0.0354014 0.138495 0.98973 
0.0391827 0.191166 0.980775 
0.0592882 0.268528 0.961446 
0.0645282 0.360092 0.930683 
0.0874627 0.477806 0.8741 
0.109883 0.637323 0.762722 
0.12382 0.809728 0.573593 
0.0860454 -0.81532 0.572581 
0.0821631 -0.679937 0.728653 
0.0635307 -0.527117 0.847415 
0.052003 -0.390375 0.919186 
0.0377791 -0.278676 0.959642 
0.0281603 -0.195615 0.980276 
0.0231908 -0.135944 0.990445 
0.0129795 -0.0896469 0.995889 
0.0133047 -0.0634615 0.997896 
0.00937207 -0.0430114 0.999031 
0.00681372 -0.0294111 0.999544 
0.00505658 -0.0197654 0.999792 
0.00381068 -0.0146979 0.999885 
0.0047578 -0.00824975 0.999955 
0.00162336 -0.00640759 0.999978 
0.0016536 -0.00479258 0.999987 
0.00253702 -0.00308769 0.999992 
0.00154117 -0.00377099 0.999992 
-0.000767143 -0.000591084 1 
0.00277209 -0.00233996 0.999993 
0.00122886 -0.000483087 0.999999 
0.000560899 0.000233645 1 
0.000653691 0.00232126 0.999997 
0.0015902 0.000466432 0.999999 
0.00288667 0.00533373 0.999982 
0.00433011 0.0074652 0.999963 
0.0024007 0.0125123 0.999919 
0.00604593 0.0171949 0.999834 
0.00860959 0.0303063 0.999504 
0.00824273 0.0438433 0.999004 
0.00860609 0.0630835 0.997971 
0.0161635 0.0902366 0.995789 
0.0257337 0.133712 0.990686 
0.0239561 0.183116 0.982799 
0.0410349 0.261137 0.964429 
0.0429754 0.364779 0.930102 
0.0611217 0.510397 0.857764 
0.0743698 0.667251 0.741111 
0.078614 0.814275 0.575132 
0.0465504 -0.818955 0.571967 
0.0403067 -0.62679 0.778145 
0.031076 -0.460401 0.887167 
0.0213199 -0.328277 0.944341 
0.0183023 -0.233268 0.97224 
0.0143601 -0.166024 0.986017 
0.0126307 -0.118913 0.992824 
0.00451647 -0.0876595 0.99614 
0.00724346 -0.06142 0.998086 
0.00274921 -0.0412683 0.999144 
0.00373387 -0.029083 0.99957 
0.00188847 -0.0186106 0.999825 
0.00288602 -0.011443 0.99993 
-0.00012089 -0.00941278 0.999956 
0.00253923 -0.00504505 0.999984 
0.00258405 -0.0032089 0.999992 
3.58684e-05 -0.00387504 0.999992 
0.0030313 -0.000463866 0.999995 
0.00254275 -0.00392753 0.999989 
0.00108678 0.000117379 0.999999 
0.00220651 -0.00151491 0.999996 
0.00060584 -0.000103191 1 
0.00393937 -0.000227624 0.999992 
0.00203777 0.00383227 0.999991 
0.000622752 0.00338413 0.999994 
1.56662e-06 0.00609424 0.999981 
0.00391638 0.0116998 0.999924 
0.00246815 0.0189745 0.999817 
0.00070911 0.0256712 0.99967 
0.0061606 0.0402783 0.99917 
0.00330098 0.0607328 0.998149 
0.00878652 0.0887161 0.996018 
0.0113081 0.128251 0.991677 
0.0109555 0.182533 0.983139 
0.0217098 0.258337 0.965811 
0.017931 0.344279 0.938696 
0.0278139 0.467553 0.883527 
0.0329394 0.625804 0.779285 
0.037952 0.81914 0.572336 
0.00671276 -0.820492 0.571618 
0.00470603 -0.679466 0.733692 
0.00398256 -0.525606 0.850719 
0.00412903 -0.383721 0.92344 
0.00261422 -0.271896 0.962323 
0.00131367 -0.188268 0.982117 
0.00156758 -0.129363 0.991596 
-0.000472074 -0.0866895 0.996235 
0.00363572 -0.0597255 0.998208 
-0.00181322 -0.0410599 0.999155 
0.00343656 -0.0269622 0.999631 
-0.00130734 -0.0179894 0.999837 
0.00165739 -0.0140395 0.9999 
0.000655104 -0.00585585 0.999983 
0.000666272 -0.00663894 0.999978 
-5.18969e-05 -0.00335427 0.999994 
0.00109204 -0.0018876 0.999998 
-0.000857509 -0.00157752 0.999998 
-0.000790346 -0.00011738 1 
0.000785759 -0.000380445 1 
-0.000302206 -0.000444539 1 
0.00145491 4.51723e-05 0.999999 
-0.00191822 0.00146772 0.999997 
-0.00146456 0.000219437 0.999999 
0.00229312 0.00469979 0.999986 
-0.000883696 0.00812694 0.999967 
0.000198705 0.0101285 0.999949 
0.00137348 0.0165812 0.999862 
-0.0002692 0.0281283 0.999604 
0.00267479 0.041951 0.999116 
-0.00165138 0.0590961 0.998251 
5.10792e-05 0.0891568 0.996018 
0.00389381 0.12632 0.991982 
-0.00246103 0.179873 0.983687 
0.0044306 0.254202 0.967141 
-0.00444494 0.363178 0.931709 
-0.000456526 0.510354 0.859965 
-0.000156066 0.674731 0.738063 
-0.0021607 0.822403 0.568901 
-0.0339963 -0.816289 0.576643 
-0.0290389 -0.627365 0.778183 
-0.0233906 -0.456759 0.889283 
-0.019555 -0.329071 0.944103 
-0.0122319 -0.232881 0.972428 
-0.0124122 -0.165395 0.986149 
-0.00678617 -0.120451 0.992696 
-0.00854399 -0.0881805 0.996068 
-0.00536093 -0.0611441 0.998115 
-0.00258692 -0.0416764 0.999128 
-0.00349246 -0.0289642 0.999574 
-0.000245404 -0.0196495 0.999807 
-0.000330466 -0.01121 0.999937 
-0.00136795 -0.0107859 0.999941 
0.00129226 -0.00504896 0.999986 
-0.000581943 -0.00459929 0.999989 
-0.000340948 -0.00190171 0.999998 
0.00306766 -0.00348768 0.999989 
-0.000400684 0.000144753 1 
0.00187764 -0.00282518 0.999994 
-0.000609367 0.000487107 1 
-0.000143478 -0.000274802 1 
0.00280511 0.000357759 0.999996 
0.000365166 0.00434984 0.99999 
0.000248574 0.00270603 0.999996 
0.00035164 0.00702341 0.999975 
-0.00226771 0.0115135 0.999931 