# vtk DataFile Version 3.0 
Exported using Morpho https://github.com/Morpho-lang/morpho 
ASCII 
DATASET UNSTRUCTURED_GRID 

POINTS 1245 float 
-0.304038 -0.95266 0 
-0.251441 -0.967873 0 
-0.196599 -0.980484 0 
-0.147939 -0.988996 0 
-0.096254 -0.995357 0 
-0.0483601 -0.99883 0 
-0.000451504 -1 0 
0.0482414 -0.998836 0 
0.0956209 -0.995418 0 
0.145924 -0.989296 0 
0.198694 -0.980062 0 
0.248343 -0.968672 0 
0.30399 -0.952675 0 
-0.409672 -0.912233 0 
-0.356859 -0.934158 0 
-0.307625 -0.898571 0 
-0.256611 -0.914841 0 
-0.205389 -0.933372 0 
-0.153069 -0.927934 0 
-0.102396 -0.94791 0 
-0.0498583 -0.935106 0 
0.00142854 -0.953377 0 
0.052561 -0.9331 0 
0.104134 -0.942389 0 
0.156872 -0.938823 0 
0.206982 -0.919507 0 
0.258749 -0.920951 0 
0.310446 -0.900065 0 
0.357716 -0.93383 0 
0.410714 -0.911764 0 
-0.51437 -0.857568 0 
-0.462407 -0.886668 0 
-0.411015 -0.857376 0 
-0.359501 -0.879663 0 
-0.305707 -0.84665 0 
-0.253622 -0.86425 0 
-0.200473 -0.885626 0 
-0.148805 -0.868805 0 
-0.0992128 -0.89633 0 
-0.0484472 -0.873916 0 
0.00154915 -0.899374 0 
0.0506565 -0.870008 0 
0.099584 -0.888189 0 
0.15259 -0.889657 0 
0.203706 -0.862941 0 
0.255384 -0.874358 0 
0.307954 -0.849391 0 
0.361689 -0.879386 0 
0.412615 -0.856642 0 
0.46325 -0.886228 0 
0.514942 -0.857225 0 
-0.565364 -0.824841 0 
-0.512807 -0.802464 0 
-0.462454 -0.831649 0 
-0.409305 -0.803744 0 
-0.35814 -0.826779 0 
-0.304287 -0.794815 0 
-0.252533 -0.812725 0 
-0.199644 -0.834469 0 
-0.148659 -0.811689 0 
-0.0980329 -0.840437 0 
-0.0486484 -0.814709 0 
0.00110327 -0.841666 0 
0.0507222 -0.810511 0 
0.10012 -0.830521 0 
0.151601 -0.838979 0 
0.201398 -0.807576 0 
0.253879 -0.824556 0 
0.305585 -0.798078 0 
0.359663 -0.826545 0 
0.410331 -0.802786 0 
0.463256 -0.830671 0 
0.513382 -0.802055 0 
0.565855 -0.824505 0 
-0.661127 -0.750274 0 
-0.614521 -0.7889 0 
-0.561833 -0.769262 0 
-0.50964 -0.747742 0 
-0.460175 -0.777438 0 
-0.407225 -0.750461 0 
-0.356449 -0.774194 0 
-0.303021 -0.743169 0 
-0.251726 -0.760737 0 
-0.199698 -0.781574 0 
-0.149469 -0.755674 0 
-0.0987361 -0.784111 0 
-0.0495663 -0.757521 0 
0.00074427 -0.784506 0 
0.0499021 -0.753017 0 
0.0986422 -0.771593 0 
0.148465 -0.786798 0 
0.198905 -0.753762 0 
0.25178 -0.773224 0 
0.303018 -0.746409 0 
0.356897 -0.773838 0 
0.407278 -0.749476 0 
0.460508 -0.775969 0 
0.509912 -0.747635 0 
0.562265 -0.768427 0 
0.614899 -0.788606 0 
0.660916 -0.75046 0 
-0.707137 -0.707076 0 
-0.654232 -0.698242 0 
-0.60786 -0.732501 0 
-0.557385 -0.712939 0 
-0.507468 -0.693124 0 
-0.457791 -0.723521 0 
-0.40534 -0.697562 0 
-0.354815 -0.72183 0 
-0.302133 -0.691777 0 
-0.251077 -0.708675 0 
-0.199931 -0.727612 0 
-0.150301 -0.700335 0 
-0.0999236 -0.728385 0 
-0.051087 -0.701823 0 
-0.000421628 -0.728505 0 
0.0495464 -0.698598 0 
0.0984035 -0.713168 0 
0.147599 -0.732599 0 
0.197896 -0.700126 0 
0.250029 -0.721435 0 
0.301757 -0.694342 0 
0.353927 -0.721143 0 
0.403704 -0.696683 0 
0.456847 -0.721566 0 
0.505628 -0.694419 0 
0.557407 -0.711375 0 
0.607266 -0.730582 0 
0.652491 -0.698197 0 
0.706565 -0.707648 0 
-0.750394 -0.660991 0 
-0.698464 -0.654201 0 
-0.647093 -0.646808 0 
-0.60217 -0.67432 0 
-0.556909 -0.655804 0 
-0.506644 -0.64072 0 
-0.455848 -0.670392 0 
-0.404184 -0.645105 0 
-0.353627 -0.669626 0 
-0.301541 -0.640968 0 
-0.250517 -0.65732 0 
-0.200181 -0.673083 0 
-0.151003 -0.645606 0 
-0.100944 -0.673231 0 
-0.0519388 -0.647066 0 
-0.00212132 -0.674276 0 
0.047866 -0.647977 0 
0.0973944 -0.654915 0 
0.14682 -0.677634 0 
0.197663 -0.647208 0 
0.249531 -0.669554 0 
0.301392 -0.642514 0 
0.353151 -0.66764 0 
0.404352 -0.642769 0 
0.451679 -0.667224 0 
0.497353 -0.643748 0 
0.550472 -0.654874 0 
0.599514 -0.669274 0 
0.647435 -0.648156 0 
0.698584 -0.655155 0 
0.750179 -0.661235 0 
-0.789039 -0.614343 0 
-0.732835 -0.607626 0 
-0.675089 -0.602016 0 
-0.61271 -0.611831 0 
-0.56007 -0.604859 0 
-0.506586 -0.591159 0 
-0.4548 -0.618267 0 
-0.402585 -0.593363 0 
-0.352885 -0.617892 0 
-0.301898 -0.590774 0 
-0.249931 -0.607445 0 
-0.20047 -0.618026 0 
-0.152094 -0.591572 0 
-0.101636 -0.618979 0 
-0.0515543 -0.593574 0 
-0.00244032 -0.620678 0 
0.0493493 -0.600163 0 
0.0984462 -0.59791 0 
0.147214 -0.623273 0 
0.19846 -0.594491 0 
0.248849 -0.617954 0 
0.29924 -0.591281 0 
0.352315 -0.614754 0 
0.403831 -0.593284 0 
0.455787 -0.608592 0 
0.520167 -0.601585 0 
0.571237 -0.605653 0 
0.620059 -0.607814 0 
0.678676 -0.602486 0 
0.734122 -0.607948 0 
0.789144 -0.614208 0 
-0.824938 -0.565223 0 
-0.769277 -0.561556 0 
-0.712842 -0.556856 0 
-0.655558 -0.556882 0 
-0.604723 -0.559782 0 
-0.552376 -0.552301 0 
-0.499741 -0.541558 0 
-0.452146 -0.567692 0 
-0.399788 -0.54198 0 
-0.351333 -0.566006 0 
-0.301369 -0.539423 0 
-0.251944 -0.559984 0 
-0.202344 -0.562389 0 
-0.151729 -0.539373 0 
-0.101412 -0.56624 0 
-0.0504147 -0.541753 0 
-0.000400428 -0.568612 0 
0.0512066 -0.551572 0 
0.100052 -0.542814 0 
0.148635 -0.569469 0 
0.199383 -0.542248 0 
0.24951 -0.565612 0 
0.300492 -0.537743 0 
0.346797 -0.563054 0 
0.392054 -0.54738 0 
0.444834 -0.550376 0 
0.492055 -0.564982 0 
0.548979 -0.550909 0 
0.602765 -0.5553 0 
0.655752 -0.556591 0 
0.713249 -0.556635 0 
0.769373 -0.561367 0 
0.824922 -0.565247 0 
-0.857615 -0.514292 0 
-0.802388 -0.512635 0 
-0.747487 -0.509447 0 
-0.692481 -0.506961 0 
-0.640359 -0.506188 0 
-0.590701 -0.507101 0 
-0.539866 -0.49886 0 
-0.492526 -0.491066 0 
-0.44688 -0.51632 0 
-0.399236 -0.489206 0 
-0.350286 -0.513725 0 
-0.298979 -0.489497 0 
-0.247977 -0.513509 0 
-0.199703 -0.507566 0 
-0.150161 -0.487331 0 
-0.10059 -0.514616 0 
-0.049804 -0.490619 0 
0.000625811 -0.517509 0 
0.0508042 -0.501589 0 
0.0999639 -0.489781 0 
0.149517 -0.516323 0 
0.199861 -0.49053 0 
0.249857 -0.513971 0 
0.301105 -0.486926 0 
0.350992 -0.50621 0 
0.406179 -0.503633 0 
0.453702 -0.495579 0 
0.499381 -0.517896 0 
0.54509 -0.495628 0 
0.589875 -0.502992 0 
0.639769 -0.505125 0 
0.692133 -0.507178 0 
0.747231 -0.509351 0 
0.802239 -0.512834 0 
0.8575 -0.514485 0 
-0.886692 -0.462362 0 
-0.831447 -0.46229 0 
-0.776968 -0.459992 0 
-0.722557 -0.457864 0 
-0.668309 -0.454847 0 
-0.615699 -0.454692 0 
-0.563442 -0.455041 0 
-0.504959 -0.444494 0 
-0.448651 -0.462232 0 
-0.399535 -0.438236 0 
-0.349128 -0.46264 0 
-0.299137 -0.439068 0 
-0.248305 -0.464591 0 
-0.199624 -0.454437 0 
-0.150124 -0.436363 0 
-0.0998408 -0.463181 0 
-0.0495775 -0.439683 0 
0.000657363 -0.466432 0 
0.050398 -0.45109 0 
0.0997795 -0.438004 0 
0.14961 -0.46426 0 
0.20006 -0.439543 0 
0.250155 -0.462985 0 
0.300624 -0.436016 0 
0.349741 -0.453489 0 
0.398431 -0.460711 0 
0.448861 -0.444362 0 
0.501772 -0.463516 0 
0.556306 -0.446047 0 
0.610655 -0.453181 0 
0.665731 -0.455702 0 
0.720992 -0.458228 0 
0.776173 -0.460571 0 
0.831102 -0.462917 0 
0.886543 -0.462645 0 
-0.912236 -0.409665 0 
-0.857204 -0.410967 0 
-0.803392 -0.409217 0 
-0.74994 -0.407407 0 
-0.696663 -0.406178 0 
-0.642836 -0.402615 0 
-0.594083 -0.40314 0 
-0.543712 -0.409305 0 
-0.498184 -0.388941 0 
-0.452699 -0.414143 0 
-0.401283 -0.388854 0 
-0.349739 -0.411899 0 
-0.299455 -0.388886 0 
-0.248771 -0.414704 0 
-0.199804 -0.40237 0 
-0.150194 -0.385975 0 
-0.0998826 -0.412316 0 
-0.0496331 -0.389139 0 
0.000643541 -0.415495 0 
0.0502079 -0.40057 0 
0.099715 -0.387048 0 
0.149647 -0.41299 0 
0.200027 -0.388895 0 
0.250027 -0.412129 0 
0.301055 -0.385878 0 
0.350404 -0.401986 0 
0.40041 -0.412751 0 
0.450882 -0.391618 0 
0.499731 -0.416383 0 
0.544034 -0.393568 0 
0.59137 -0.399783 0 
0.642288 -0.404278 0 
0.695365 -0.407079 0 
0.749328 -0.408637 0 
0.803118 -0.410657 0 
0.857365 -0.412146 0 
0.912211 -0.40972 0 
-0.934162 -0.35685 0 
-0.879422 -0.35942 0 
-0.826293 -0.357958 0 
-0.773333 -0.356351 0 
-0.720158 -0.355668 0 
-0.665775 -0.356607 0 
-0.607138 -0.350008 0 
-0.553621 -0.361137 0 
-0.5022 -0.339404 0 
-0.449669 -0.361737 0 
-0.400008 -0.33791 0 
-0.350294 -0.361968 0 
-0.299735 -0.338845 0 
-0.249149 -0.364486 0 
-0.19989 -0.351123 0 
-0.150231 -0.335907 0 
-0.0999158 -0.361809 0 
-0.0496591 -0.338853 0 
0.000579022 -0.364807 0 
0.0501213 -0.350175 0 
0.0996736 -0.336536 0 
0.149689 -0.362171 0 
0.200173 -0.338592 0 
0.250216 -0.361805 0 
0.300977 -0.33584 0 
0.350317 -0.350432 0 
0.400031 -0.363711 0 
0.449445 -0.340113 0 
0.500426 -0.362497 0 
0.556035 -0.344079 0 
0.610296 -0.352686 0 
0.6665 -0.355417 0 
0.719677 -0.357923 0 
0.773735 -0.358184 0 
0.826983 -0.360351 0 
0.879942 -0.360326 0 
0.934344 -0.356372 0 
-0.952661 -0.304036 0 
-0.898427 -0.307629 0 
-0.846493 -0.305546 0 
-0.794931 -0.304029 0 
-0.743864 -0.303138 0 
-0.693611 -0.30459 0 
-0.643467 -0.30958 0 
-0.599353 -0.290969 0 
-0.55443 -0.313997 0 
-0.503336 -0.288984 0 
-0.45199 -0.311834 0 
-0.401101 -0.288191 0 
-0.349902 -0.311422 0 
-0.299643 -0.288622 0 
-0.249349 -0.314247 0 
-0.199915 -0.300435 0 
-0.150269 -0.285978 0 
-0.0999683 -0.311532 0 
-0.0497289 -0.288717 0 
0.000527779 -0.314369 0 
0.0500741 -0.299964 0 
0.0996409 -0.286337 0 
0.149787 -0.311716 0 
0.200238 -0.28842 0 
0.250326 -0.311555 0 
0.301235 -0.286006 0 
0.350591 -0.299681 0 
0.400449 -0.31341 0 
0.451856 -0.289027 0 
0.501314 -0.314699 0 
0.544921 -0.289691 0 
0.590901 -0.297941 0 
0.640135 -0.307218 0 
0.69435 -0.304347 0 
0.742809 -0.307966 0 
0.7979 -0.307375 0 
0.847482 -0.307936 0 
0.899876 -0.308548 0 
0.953167 -0.302446 0 
-0.967863 -0.251479 0 
-0.914487 -0.256648 0 
-0.863556 -0.253418 0 
-0.811732 -0.251971 0 
-0.759393 -0.251316 0 
-0.706493 -0.252194 0 
-0.653718 -0.258815 0 
-0.607533 -0.238533 0 
-0.553063 -0.261024 0 
-0.502377 -0.238056 0 
-0.452064 -0.261845 0 
-0.401205 -0.238175 0 
-0.350516 -0.261491 0 
-0.299965 -0.238667 0 
-0.249417 -0.263974 0 
-0.199916 -0.250071 0 
-0.150304 -0.236053 0 
-0.100036 -0.261399 0 
-0.0497663 -0.238671 0 
0.000445464 -0.264099 0 
0.0500404 -0.249853 0 
0.0996125 -0.23625 0 
0.149834 -0.261487 0 
0.200323 -0.238399 0 
0.25055 -0.261503 0 
0.301452 -0.23621 0 
0.351157 -0.249436 0 
0.401482 -0.263625 0 
0.451962 -0.237781 0 
0.501557 -0.260261 0 
[...]
POINT_DATA 1245 
VECTORS vectors float
0.878956 -0.280555 0.38565 
0.893111 -0.23246 0.385116 
0.90436 -0.182169 0.385938 
0.912327 -0.137026 0.385855 
0.919008 -0.08993 0.383846 
0.920069 -0.0455735 0.389096 
0.922983 -0.000707382 0.384839 
0.920887 0.0439366 0.387345 
0.91718 0.0882144 0.388585 
0.912096 0.135385 0.386977 
0.903818 0.183925 0.386374 
0.893415 0.229762 0.386031 
0.878977 0.280669 0.385519 
0.841421 -0.377908 0.386259 
0.861727 -0.329178 0.386093 
0.768364 -0.263207 0.583386 
0.783027 -0.219891 0.581821 
0.807881 -0.178594 0.561633 
0.77772 -0.129062 0.615219 
0.81601 -0.0892359 0.571109 
0.776933 -0.041949 0.628184 
0.820325 0.000586586 0.571897 
0.770974 0.0434284 0.635384 
0.8023 0.0893542 0.590195 
0.806356 0.135191 0.575772 
0.773858 0.174748 0.608775 
0.798389 0.224947 0.558546 
0.773183 0.266544 0.57545 
0.861488 0.329859 0.386046 
0.840954 0.378683 0.386517 
0.790901 -0.474559 0.386355 
0.817793 -0.426562 0.38634 
0.734261 -0.35214 0.580394 
0.752773 -0.307534 0.582027 
0.64645 -0.233529 0.726338 
0.661147 -0.194296 0.724661 
0.690251 -0.157039 0.706323 
0.630923 -0.108699 0.768193 
0.686968 -0.0768604 0.722612 
0.623574 -0.0351513 0.780974 
0.684426 0.00079134 0.729082 
0.613902 0.0357076 0.788574 
0.666118 0.0749672 0.742069 
0.683315 0.117671 0.720579 
0.635566 0.150387 0.757258 
0.685904 0.200671 0.699476 
0.654084 0.237465 0.718181 
0.75313 0.309868 0.580325 
0.7337 0.35321 0.580454 
0.817258 0.427198 0.386771 
0.790442 0.474902 0.386871 
0.760691 -0.521633 0.386328 
0.689301 -0.440577 0.575114 
0.713298 -0.396721 0.577771 
0.616546 -0.31387 0.72205 
0.632602 -0.27423 0.724301 
0.530053 -0.203011 0.823304 
0.542019 -0.168832 0.823232 
0.56771 -0.136217 0.811881 
0.500743 -0.0924372 0.860646 
0.551834 -0.0648391 0.831429 
0.488364 -0.0297001 0.872135 
0.545012 0.000436511 0.838428 
0.479557 0.0298457 0.877003 
0.529599 0.063933 0.845835 
0.561412 0.101853 0.821244 
0.508798 0.127351 0.851414 
0.568534 0.175292 0.803767 
0.537363 0.205797 0.817856 
0.633118 0.275232 0.72347 
0.614533 0.314426 0.723524 
0.711612 0.396874 0.579741 
0.6885 0.440935 0.575799 
0.760158 0.521926 0.386979 
0.692017 -0.610182 0.385734 
0.727544 -0.567091 0.386118 
0.661083 -0.483108 0.574087 
0.577638 -0.393837 0.715001 
0.598395 -0.354373 0.71857 
0.504154 -0.273816 0.819057 
0.518002 -0.238511 0.821454 
0.427534 -0.174525 0.886993 
0.435912 -0.144455 0.88832 
0.455681 -0.116754 0.882453 
0.392296 -0.0778749 0.916536 
0.433857 -0.0550123 0.899301 
0.379309 -0.025125 0.924929 
0.425923 0.000224842 0.904759 
0.371631 0.0244524 0.928059 
0.410068 0.0525978 0.910537 
0.449578 0.0847407 0.889212 
0.40282 0.106321 0.909083 
0.45976 0.149764 0.875324 
0.433219 0.175995 0.883938 
0.517212 0.238756 0.82188 
0.502406 0.272848 0.820452 
0.595446 0.353329 0.721528 
0.577355 0.393938 0.715174 
0.65945 0.482805 0.576217 
0.726933 0.567334 0.38691 
0.691733 0.610046 0.386458 
0.652417 -0.6524 0.385652 
0.605275 -0.567221 0.558483 
0.628655 -0.52206 0.576408 
0.550918 -0.430845 0.714746 
0.473027 -0.346434 0.81008 
0.489708 -0.309784 0.814997 
0.406705 -0.236319 0.882465 
0.417635 -0.205437 0.885086 
0.342089 -0.149542 0.927692 
0.347096 -0.123079 0.929718 
0.359415 -0.0992413 0.927886 
0.305896 -0.0659218 0.94978 
0.337893 -0.0468156 0.940019 
0.294071 -0.0216519 0.955538 
0.330509 -0.000423555 0.943803 
0.289385 0.0204477 0.956994 
0.314738 0.043245 0.948193 
0.353271 0.071514 0.932784 
0.31703 0.0896188 0.944172 
0.366398 0.127341 0.921703 
0.345628 0.150203 0.926272 
0.41551 0.204006 0.886416 
0.403601 0.234027 0.884498 
0.484606 0.307298 0.818978 
0.473611 0.344955 0.810369 
0.547528 0.429386 0.718221 
0.624028 0.51961 0.583605 
0.603305 0.564241 0.563609 
0.65241 0.652142 0.386099 
0.61011 -0.692037 0.385813 
0.567423 -0.605513 0.558019 
0.513029 -0.51321 0.688053 
0.519946 -0.464668 0.716757 
0.449222 -0.381505 0.807869 
0.385218 -0.304516 0.871136 
0.395332 -0.268934 0.878287 
0.325646 -0.204159 0.923187 
0.333453 -0.176152 0.926164 
0.272843 -0.128519 0.953436 
0.275429 -0.105177 0.955551 
0.280838 -0.0836869 0.9561 
0.237521 -0.0558675 0.969775 
0.262128 -0.0395131 0.964224 
0.227764 -0.0184996 0.97354 
0.257104 -0.00103912 0.966383 
0.228529 0.0169392 0.97339 
0.240054 0.0355506 0.970108 
0.274446 0.0593013 0.959772 
0.248493 0.0761113 0.965639 
0.29047 0.108046 0.950764 
0.274315 0.128912 0.95296 
0.330355 0.174897 0.927511 
0.322143 0.202835 0.924706 
0.387398 0.262302 0.88381 
0.383361 0.296433 0.874735 
0.44174 0.371953 0.816405 
0.507698 0.455244 0.731434 
0.515008 0.51541 0.684922 
0.568556 0.606593 0.555688 
0.609983 0.692113 0.385876 
0.566944 -0.727599 0.386231 
0.52196 -0.628975 0.576149 
0.465123 -0.52114 0.715593 
0.425591 -0.426084 0.798326 
0.371977 -0.344467 0.86196 
0.315131 -0.269987 0.909835 
0.318459 -0.234324 0.918518 
0.259505 -0.176079 0.949554 
0.265949 -0.152067 0.951917 
0.217829 -0.111314 0.969618 
0.219247 -0.0903922 0.971473 
0.21814 -0.0709787 0.973333 
0.184756 -0.0476361 0.981629 
0.203488 -0.0336558 0.978499 
0.177063 -0.015543 0.984077 
0.199785 -0.00100075 0.979839 
0.182795 0.0146571 0.983042 
0.183336 0.0301759 0.982587 
0.213442 0.0504865 0.97565 
0.194893 0.0647792 0.978683 
0.229694 0.0927417 0.968834 
0.217223 0.109946 0.96991 
0.261636 0.149873 0.953459 
0.259954 0.176934 0.949272 
0.305563 0.22911 0.924197 
0.338034 0.292461 0.894539 
0.38165 0.360131 0.851263 
0.425726 0.434842 0.793518 
0.468938 0.527947 0.708074 
0.523148 0.631906 0.571849 
0.566658 0.727921 0.386044 
0.521462 -0.760737 0.386468 
0.482719 -0.660782 0.574761 
0.429986 -0.550226 0.715795 
0.381227 -0.448639 0.808325 
0.343998 -0.371607 0.862307 
0.296795 -0.296781 0.907653 
0.252673 -0.23324 0.939018 
0.255539 -0.203422 0.945156 
0.206433 -0.152401 0.966519 
0.210395 -0.130652 0.968847 
0.172406 -0.0966166 0.980276 
0.177128 -0.0798125 0.980946 
0.168336 -0.060764 0.983855 
0.14438 -0.0408084 0.98868 
0.158512 -0.0285443 0.986944 
0.138181 -0.0130768 0.990321 
0.156088 -0.000163 0.987743 
0.144922 0.0132527 0.989354 
0.141617 0.0261167 0.989577 
0.165807 0.0431648 0.985213 
0.152907 0.0565576 0.986621 
0.180464 0.0795316 0.980361 
0.170471 0.0951385 0.980759 
0.205845 0.127184 0.970284 
0.208425 0.149389 0.966562 
0.233147 0.188677 0.953962 
0.274434 0.239135 0.931397 
0.292218 0.291566 0.910823 
0.336629 0.36542 0.867842 
0.380849 0.449091 0.808252 
0.429837 0.551061 0.715242 
0.482566 0.660911 0.57474 
0.521463 0.760864 0.386217 
0.47439 -0.790926 0.38651 
0.440235 -0.688892 0.575866 
0.393263 -0.577045 0.715796 
0.345235 -0.47127 0.811614 
0.303691 -0.384318 0.871821 
0.27023 -0.3149 0.909843 
0.231328 -0.250286 0.94013 
0.200958 -0.201446 0.958663 
0.202349 -0.175278 0.9635 
0.163004 -0.132963 0.977625 
0.166088 -0.11325 0.979586 
0.136478 -0.0833385 0.987131 
0.141902 -0.0685742 0.987503 
0.129996 -0.051337 0.990185 
0.112623 -0.0348079 0.993028 
0.124065 -0.0243575 0.991975 
0.108139 -0.0110717 0.994074 
0.122357 -4.32033e-05 0.992486 
0.113878 0.0114741 0.993428 
0.110006 0.0222334 0.993682 
0.12905 0.0373029 0.990936 
0.119904 0.048491 0.991601 
0.142208 0.0692685 0.98741 
0.135141 0.0838328 0.987274 
0.160317 0.111159 0.980786 
0.176412 0.142275 0.97398 
0.187423 0.171898 0.967121 
0.228286 0.220205 0.948365 
0.231264 0.254534 0.939005 
0.265147 0.311089 0.912645 
0.301744 0.382752 0.873185 
0.345346 0.470802 0.811838 
0.392862 0.576624 0.716355 
0.440445 0.688902 0.575693 
0.474699 0.790851 0.386284 
0.42637 -0.817814 0.386508 
0.396254 -0.712759 0.578755 
0.3537 -0.597282 0.719827 
0.309071 -0.487665 0.816492 
0.266284 -0.391633 0.880748 
0.232742 -0.31461 0.920245 
0.203779 -0.252433 0.945913 
0.168351 -0.191355 0.966975 
0.16054 -0.15572 0.974668 
0.129522 -0.118188 0.984508 
0.131356 -0.0992896 0.98635 
0.108102 -0.0737265 0.991402 
0.112691 -0.0604721 0.991788 
0.101128 -0.0445208 0.993877 
0.0882493 -0.0304374 0.995633 
0.0967237 -0.0210495 0.995089 
0.0845444 -0.00960316 0.996373 
0.0954691 -2.29616e-05 0.995432 
0.089321 0.00996559 0.995953 
0.0855801 0.0194266 0.996142 
0.100705 0.0326408 0.994381 
0.0940377 0.043025 0.994639 
0.111961 0.0604615 0.991871 
0.106443 0.0732089 0.99162 
0.125867 0.0972741 0.987267 
0.143031 0.12387 0.981936 
0.148023 0.149589 0.977605 
0.181825 0.196899 0.963416 
0.192248 0.239864 0.951581 
0.228009 0.307254 0.923909 
0.265582 0.387988 0.882571 
0.308193 0.485296 0.818232 
0.354056 0.595954 0.720752 
0.396855 0.712559 0.57859 
0.42687 0.817653 0.386296 
0.377701 -0.841462 0.386372 
0.35187 -0.733921 0.580988 
0.313259 -0.615531 0.723181 
0.273617 -0.503534 0.819505 
0.236417 -0.405519 0.882984 
0.20148 -0.321456 0.925241 
0.176678 -0.26088 0.949066 
0.159749 -0.211983 0.964128 
0.129956 -0.166286 0.977476 
0.130353 -0.142557 0.981165 
0.103802 -0.107041 0.988821 
0.104145 -0.0884101 0.990625 
0.0850896 -0.0656078 0.994211 
0.0891422 -0.0535194 0.99458 
0.0787736 -0.0391352 0.996124 
0.0688615 -0.0270146 0.99726 
0.0756097 -0.0183981 0.996968 
0.0658728 -0.00852213 0.997792 
0.074451 -4.45146e-05 0.997225 
0.0698157 0.00854702 0.997523 
0.0665042 0.0172846 0.997636 
0.0786542 0.0282039 0.996503 
0.0736463 0.037805 0.996568 
0.0880301 0.0534626 0.994682 
0.0840632 0.0658404 0.994283 
0.0992888 0.0865322 0.991289 
0.115442 0.112018 0.986978 
0.117205 0.135009 0.983888 
0.147182 0.176726 0.973193 
0.149032 0.205997 0.967137 
0.172937 0.256045 0.95107 
0.202375 0.321684 0.924967 
0.236681 0.403982 0.883618 
0.274345 0.503089 0.819534 
0.315024 0.616101 0.721928 
0.353541 0.734863 0.578779 
0.378045 0.841338 0.386305 
0.328977 -0.86181 0.386079 
0.307067 -0.75221 0.583001 
0.27356 -0.631484 0.725529 
0.237789 -0.516118 0.822848 
0.205048 -0.415198 0.886322 
0.176581 -0.329642 0.927446 
0.145199 -0.251802 0.956824 
0.132276 -0.202293 0.970351 
0.104325 -0.154728 0.982433 
0.10188 -0.126646 0.986702 
0.08131 -0.0963048 0.992025 
0.0821166 -0.0795332 0.993444 
0.0670653 -0.0593792 0.99598 
0.0699264 -0.0479151 0.996401 
0.0611226 -0.0349815 0.997517 
0.0538148 -0.024008 0.998262 
0.0588327 -0.0163088 0.998135 
0.0510712 -0.00770092 0.998665 
0.0577899 0.000213268 0.998329 
0.0540561 0.00762155 0.998509 
0.0518263 0.0151373 0.998541 
0.0612479 0.0254045 0.997799 
0.0572998 0.0339219 0.997781 
0.0689984 0.0476465 0.996478 
0.0659103 0.0590312 0.996078 
0.0776688 0.0776758 0.993949 
0.0918092 0.101166 0.990624 
0.092068 0.121616 0.988298 
0.115636 0.159914 0.980335 
0.122786 0.198391 0.972401 
0.14844 0.256854 0.954983 
0.175982 0.330127 0.927387 
0.206714 0.415569 0.885761 
0.240101 0.518129 0.82091 
0.276539 0.634449 0.721804 
0.308818 0.753738 0.580096 
0.328935 0.861745 0.386261 
0.280349 -0.879055 0.385575 
0.262786 -0.768082 0.583946 
0.233242 -0.646145 0.726702 
0.202493 -0.530136 0.823379 
0.174945 -0.428968 0.886217 
0.151933 -0.346052 0.925832 
0.134514 -0.279596 0.950648 
0.10843 -0.222975 0.968775 
0.106296 -0.187979 0.976404 
0.0824363 -0.14303 0.986279 
0.0809826 -0.117172 0.989804 
0.0635905 -0.0886003 0.994035 
0.0642848 -0.0722231 0.995315 
0.0517207 -0.053762 0.997213 
0.054369 -0.0430714 0.997592 
0.0472809 -0.0315126 0.998384 
0.0412965 -0.0218921 0.998907 
0.0454561 -0.0146315 0.998859 
0.0392578 -0.00664084 0.999207 
0.044858 -0.000172355 0.998993 
0.0416105 0.00706566 0.999109 
0.0397113 0.0138134 0.999116 
0.0472013 0.0226961 0.998628 
0.0444928 0.0307829 0.998535 
0.0535564 0.0431416 0.997632 
0.0512294 0.0539825 0.997227 
0.0604648 0.0708562 0.995652 
0.0720966 0.0920875 0.993137 
0.0719201 0.112797 0.991012 
0.0927903 0.147533 0.984695 
0.0924943 0.174094 0.980375 
0.109042 0.216602 0.970151 
0.131663 0.27398 0.95268 
0.152307 0.346988 0.92542 
0.178045 0.429495 0.885344 
0.207653 0.5383 0.81677 
0.236209 0.649604 0.722648 
0.264744 0.771523 0.578501 
0.279354 0.879027 0.386359 
0.232305 -0.8932 0.385005 
0.219727 -0.782432 0.582684 
0.193509 -0.659407 0.726455 
0.16763 -0.539682 0.825011 
0.143457 -0.433376 0.889722 
0.122923 -0.34405 0.93087 
0.10841 -0.273726 0.955679 
0.0850202 -0.216306 0.972617 
0.0817736 -0.173164 0.981492 
0.0629236 -0.132936 0.989125 
0.0625905 -0.108404 0.992135 
0.049067 -0.0823297 0.995397 
0.0496075 -0.0664988 0.996553 
0.0396608 -0.0498055 0.997971 
0.0417934 -0.0397227 0.998336 
0.0360276 -0.0287824 0.998936 
0.031314 -0.0198738 0.999312 
0.0346743 -0.013502 0.999307 
0.0298173 -0.00633593 0.999535 
0.0338129 -2.32108e-05 0.999428 
0.0317337 0.00621625 0.999477 
0.0300239 0.0126231 0.999469 
0.0361136 0.0206432 0.999134 
0.0334522 0.0282224 0.999042 
0.0411689 0.0394901 0.998372 
0.0390211 0.0498022 0.997997 
0.0464014 0.065486 0.996774 
0.0561906 0.0854959 0.994753 
0.0552483 0.104723 0.992966 
0.0706835 0.136302 0.988143 
0.074224 0.172655 0.982182 
0.0919371 0.223215 0.970424 
0.112388 0.285251 0.951841 
0.123593 0.353943 0.927065 
0.154316 0.4471 0.881072 
0.168573 0.546821 0.820104 
0.198398 0.663987 0.720944 
0.219521 0.783847 0.580857 
0.229849 0.893053 0.386815 
0.182155 -0.904383 0.38589 
0.178659 -0.807541 0.562101 
0.156339 -0.688837 0.707858 
0.135722 -0.565052 0.813816 
0.115488 -0.451328 0.884853 
0.0984858 -0.353882 0.93009 
0.0852172 -0.272859 0.958272 
0.0645153 -0.206058 0.976411 
0.0630472 -0.164884 0.984296 
0.0472377 -0.126386 0.990856 
0.0475429 -0.101336 0.993716 
0.0360693 -0.0772965 0.996355 
0.0373179 -0.0620602 0.997375 
0.0292755 -0.046559 0.998486 
0.0313038 -0.0364662 0.998844 
0.0265996 -0.026758 0.999288 
0.0230689 -0.0188345 0.999556 
0.0259141 -0.0121355 0.999591 
0.0215815 -0.00589277 0.99975 
0.0255134 0.000120692 0.999674 
0.0234853 0.00577499 0.999708 
0.0217636 0.0117769 0.999694 
0.0271039 0.0192305 0.999448 
0.0247494 0.0263185 0.999347 
0.0309291 0.0366521 0.998849 
0.0288314 0.0468204 0.998487 
0.0347414 0.0611167 0.997526 
0.0421992 0.0796859 0.995926 
0.0413891 0.0998153 0.994145 
0.054932 0.131328 0.989816 
0.0541154 0.162153 0.985281 
0.0691521 0.209048 0.975457 
0.0875134 0.270358 0.958774 
0.0912888 0.336411 0.93728 
0.121069 0.431907 0.893755 
0.128243 0.536528 0.834081 
0.157881 0.664267 0.730631 
0.17385 0.790484 0.587292 
0.180779 0.904108 0.38718 
0.137153 -0.912121 0.386295 
0.129116 -0.776629 0.616585 
0.108349 -0.628824 0.769961 
0.0909955 -0.497806 0.862502 
0.0776704 -0.390564 0.917293 
0.0673286 -0.306529 0.949477 
0.0591758 -0.244749 0.967779 
0.0438877 -0.195197 0.979782 
0.0461141 -0.157874 0.986382 
0.0331671 -0.120773 0.992126 
0.0345187 -0.0965258 0.994732 
0.025506 -0.0737761 0.996949 
0.0271033 -0.0583877 0.997926 
0.0203013 -0.0442152 0.998816 
0.0226473 -0.0344712 0.999149 
0.0189471 -0.0252016 0.999503 
0.0158346 -0.0173916 0.999723 
0.0184676 -0.0115518 0.999763 
0.0153599 -0.00533693 0.999868 
0.0180759 -4.24739e-05 0.999837 
0.0163801 0.00554995 0.99985 
0.015491 0.0110558 0.999819 
0.0192712 0.0178038 0.999656 
0.0172199 0.0250217 0.999539 
0.0221658 0.0344146 0.999162 
0.0199055 0.0442922 0.99882 
0.0247529 0.0581101 0.998003 
0.0310055 0.0759863 0.996627 
0.0288107 0.0947228 0.995087 
0.0398255 0.124011 0.991481 
0.037875 0.154899 0.987204 
0.0491496 0.199847 0.978594 
0.0644817 0.257842 0.964033 
0.0640737 0.324695 0.943646 
0.089632 0.416244 0.904825 
0.0899246 0.515335 0.852258 
0.112913 0.637616 0.762035 
0.129161 0.782278 0.609392 
0.134927 0.912316 0.386618 
0.0887751 -0.91773 0.387157 
0.0892899 -0.816153 0.570895 
0.0766603 -0.684787 0.7247 
0.0646708 -0.54782 0.834093 
0.054011 -0.427218 0.902534 
0.0461593 -0.329562 0.943005 
0.0404774 -0.252236 0.966819 
0.027858 -0.190991 0.981196 
0.0302865 -0.150388 0.988163 
0.0205644 -0.116621 0.992964 
0.0228319 -0.0925829 0.995443 
0.0157408 -0.0711481 0.997342 
0.0177563 -0.0562818 0.998257 
0.0127752 -0.0424448 0.999017 
0.0149146 -0.03283 0.99935 
0.0119722 -0.0241635 0.999636 
0.00976 -0.0169694 0.999808 
0.0121249 -0.0111199 0.999865 
0.00900581 -0.00521669 0.999946 
0.0121137 -9.11028e-05 0.999927 
0.010472 0.00526958 0.999931 
0.00904599 0.0106544 0.999902 
0.0125386 0.017246 0.999773 
0.0105473 0.0238012 0.999661 
0.0146358 0.0330121 0.999348 
0.0124285 0.0428272 0.999005 
0.0156174 0.0558177 0.998319 
0.0205787 0.0723623 0.997166 
0.0181351 0.0918174 0.995611 
0.0260764 0.119186 0.992529 
0.0227547 0.150657 0.988324 
0.0318031 0.193798 0.980526 
0.043863 0.250412 0.967145 
0.0398321 0.317259 0.947502 
0.0605218 0.409602 0.910254 
0.0590384 0.52584 0.848532 
0.0777673 0.669488 0.738741 
0.0874127 0.80786 0.582856 
0.0878105 0.917893 0.38699 
0.0444568 -0.921601 0.385585 
0.0428245 -0.776056 0.629208 
0.0354798 -0.621614 0.78252 
0.0291885 -0.484989 0.874033 
0.024885 -0.375683 0.926414 
0.0221772 -0.293151 0.955809 
0.0204067 -0.233194 0.972216 
0.0107381 -0.187366 0.982231 
0.016477 -0.148428 0.988786 
0.00853627 -0.11497 0.993332 
0.0122476 -0.0903132 0.995838 
0.00666835 -0.0699267 0.99753 
0.00959873 -0.0544659 0.998469 
0.00525022 -0.041843 0.99911 
0.008201 -0.0318528 0.999459 
0.00592415 -0.0234473 0.999708 
0.00391008 -0.0166215 0.999854 
0.00664678 -0.0104651 0.999923 
0.00414816 -0.00528962 0.999977 
0.0064601 0.000113416 0.999979 
0.00524798 0.00503595 0.999974 
0.00376122 0.0104418 0.999938 
0.00698973 0.0165054 0.999839 
0.00446901 0.023552 0.999713 
0.00769115 0.0319871 0.999459 
0.00486038 0.0417454 0.999116 
0.00776491 0.054538 0.998482 
0.0111679 0.0706774 0.997437 
0.00739134 0.0898913 0.995924 
0.0141876 0.116246 0.993119 
0.00902996 0.148467 0.988876 
0.0155654 0.190548 0.981554 
0.0242991 0.245752 0.969028 
0.0172532 0.315064 0.948914 
0.0340848 0.4051 0.913637 
0.0251484 0.503199 0.863805 
0.0362407 0.627564 0.777721 
0.0419666 0.775449 0.630013 
0.0436708 0.921592 0.385696 
0.00056906 -0.923824 0.382816 
0.000380088 -0.821203 0.570636 
0.000253872 -0.685601 0.727978 
0.000508021 -0.544692 0.838636 
0.000137741 -0.421708 0.906732 
0.000353694 -0.322794 0.946469 
0.00201145 -0.246147 0.969231 
-0.00373972 -0.188397 0.982086 
0.00306119 -0.146064 0.98927 
-0.00286325 -0.114719 0.993394 
0.00252964 -0.0894306 0.99599 
-0.002146 -0.0696795 0.997567 
0.00189577 -0.0540844 0.998535 
-0.00145842 -0.0413083 0.999145 
0.00171197 -0.0315222 0.999502 
5.59631e-06 -0.0232433 0.99973 
-0.00140647 -0.0164238 0.999864 
0.000980832 -0.0104642 0.999945 
-0.00118777 -0.00495756 0.999987 
0.00135076 5.77858e-05 0.999999 
-0.000142382 0.00504162 0.999987 
-0.00136302 0.0104327 0.999945 
0.0010358 0.0164261 0.999865 
-0.00148169 0.0232264 0.999729 
0.00157384 0.0316208 0.999499 
-0.00205894 0.0419189 0.999119 
-5.85312e-05 0.0540401 0.998539 
0.00251909 0.0695677 0.997574 
-0.00226672 0.0898073 0.995957 
0.00271474 0.115203 0.993338 
-0.0042236 0.147819 0.989005 
-0.000291561 0.189853 0.981812 
0.00597666 0.243772 0.969814 
-0.00480572 0.312176 0.950012 
0.00669995 0.40222 0.915519 
-0.00495744 0.522159 0.852834 
0.000179679 0.670755 0.741679 
-0.000600635 0.814634 0.579975 
0.000333256 0.923836 0.382788 
-0.043414 -0.921512 0.385916 
-0.0420416 -0.776923 0.62819 
-0.0349135 -0.622549 0.781801 
-0.0293227 -0.486825 0.873007 
-0.0243601 -0.377391 0.925733 
-0.0204758 -0.293802 0.955647 
-0.0160461 -0.234839 0.971902 
-0.0203042 -0.19004 0.981566 
-0.0105248 -0.148303 0.988886 
-0.0141704 -0.116282 0.993115 
-0.007761 -0.0900862 0.995904 
-0.0105369 -0.0703497 0.997467 
-0.00590307 -0.0541857 0.998513 
-0.00863649 -0.0422187 0.999071 
-0.00442742 -0.0315337 0.999493 
-0.00593597 -0.0236233 0.999703 
-0.00710099 -0.0166176 0.999837 
-0.0037964 -0.0107181 0.999935 
-0.00642835 -0.00507289 0.999966 
-0.00349213 -0.00012372 0.999994 
-0.00515293 0.00521079 0.999973 
-0.00680921 0.0104507 0.999922 
-0.00409448 0.0163768 0.999858 
-0.00720388 0.0237483 0.999692 
-0.00491593 0.0316511 0.999487 
-0.00879042 0.0421872 0.999071 
-0.00794721 0.054497 0.998482 
-0.00630437 0.0700627 0.997523 
-0.0121899 0.0903351 0.995837 
-0.00908343 0.115566 0.993258 
-0.0174942 0.149746 0.98857 
-0.0160726 0.190524 0.981551 
-0.0127812 0.244312 0.969612 
-0.0273427 0.31638 0.948238 
-0.0187495 0.402112 0.915399 
-0.0357251 0.500827 0.86481 
-0.0364967 0.624383 0.780265 
-0.0426236 0.773781 0.632018 