# vtk DataFile Version 3.0 
Exported using Morpho https://github.com/Morpho-lang/morpho 
ASCII 
DATASET UNSTRUCTURED_GRID 

POINTS 1245 float 
-0.304038 -0.95266 0 
-0.251441 -0.967873 0 
-0.196599 -0.980484 0 
-0.147939 -0.988996 0 
-0.096254 -0.995357 0 
-0.0483601 -0.99883 0 
-0.000451504 -1 0 
0.0482414 -0.998836 0 
0.0956209 -0.995418 0 
0.145924 -0.989296 0 
0.198694 -0.980062 0 
0.248343 -0.968672 0 
0.30399 -0.952675 0 
-0.409672 -0.912233 0 
-0.356859 -0.934158 0 
-0.307625 -0.898571 0 
-0.256611 -0.914841 0 
-0.205389 -0.933372 0 
-0.153069 -0.927934 0 
-0.102396 -0.94791 0 
-0.0498583 -0.935106 0 
0.00142854 -0.953377 0 
0.052561 -0.9331 0 
0.104134 -0.942389 0 
0.156872 -0.938823 0 
0.206982 -0.919507 0 
0.258749 -0.920951 0 
0.310446 -0.900065 0 
0.357716 -0.93383 0 
0.410714 -0.911764 0 
-0.51437 -0.857568 0 
-0.462407 -0.886668 0 
-0.411015 -0.857376 0 
-0.359501 -0.879663 0 
-0.305707 -0.84665 0 
-0.253622 -0.86425 0 
-0.200473 -0.885626 0 
-0.148805 -0.868805 0 
-0.0992128 -0.89633 0 
-0.0484472 -0.873916 0 
0.00154915 -0.899374 0 
0.0506565 -0.870008 0 
0.099584 -0.888189 0 
0.15259 -0.889657 0 
0.203706 -0.862941 0 
0.255384 -0.874358 0 
0.307954 -0.849391 0 
0.361689 -0.879386 0 
0.412615 -0.856642 0 
0.46325 -0.886228 0 
0.514942 -0.857225 0 
-0.565364 -0.824841 0 
-0.512807 -0.802464 0 
-0.462454 -0.831649 0 
-0.409305 -0.803744 0 
-0.35814 -0.826779 0 
-0.304287 -0.794815 0 
-0.252533 -0.812725 0 
-0.199644 -0.834469 0 
-0.148659 -0.811689 0 
-0.0980329 -0.840437 0 
-0.0486484 -0.814709 0 
0.00110327 -0.841666 0 
0.0507222 -0.810511 0 
0.10012 -0.830521 0 
0.151601 -0.838979 0 
0.201398 -0.807576 0 
0.253879 -0.824556 0 
0.305585 -0.798078 0 
0.359663 -0.826545 0 
0.410331 -0.802786 0 
0.463256 -0.830671 0 
0.513382 -0.802055 0 
0.565855 -0.824505 0 
-0.661127 -0.750274 0 
-0.614521 -0.7889 0 
-0.561833 -0.769262 0 
-0.50964 -0.747742 0 
-0.460175 -0.777438 0 
-0.407225 -0.750461 0 
-0.356449 -0.774194 0 
-0.303021 -0.743169 0 
-0.251726 -0.760737 0 
-0.199698 -0.781574 0 
-0.149469 -0.755674 0 
-0.0987361 -0.784111 0 
-0.0495663 -0.757521 0 
0.00074427 -0.784506 0 
0.0499021 -0.753017 0 
0.0986422 -0.771593 0 
0.148465 -0.786798 0 
0.198905 -0.753762 0 
0.25178 -0.773224 0 
0.303018 -0.746409 0 
0.356897 -0.773838 0 
0.407278 -0.749476 0 
0.460508 -0.775969 0 
0.509912 -0.747635 0 
0.562265 -0.768427 0 
0.614899 -0.788606 0 
0.660916 -0.75046 0 
-0.707137 -0.707076 0 
-0.654232 -0.698242 0 
-0.60786 -0.732501 0 
-0.557385 -0.712939 0 
-0.507468 -0.693124 0 
-0.457791 -0.723521 0 
-0.40534 -0.697562 0 
-0.354815 -0.72183 0 
-0.302133 -0.691777 0 
-0.251077 -0.708675 0 
-0.199931 -0.727612 0 
-0.150301 -0.700335 0 
-0.0999236 -0.728385 0 
-0.051087 -0.701823 0 
-0.000421628 -0.728505 0 
0.0495464 -0.698598 0 
0.0984035 -0.713168 0 
0.147599 -0.732599 0 
0.197896 -0.700126 0 
0.250029 -0.721435 0 
0.301757 -0.694342 0 
0.353927 -0.721143 0 
0.403704 -0.696683 0 
0.456847 -0.721566 0 
0.505628 -0.694419 0 
0.557407 -0.711375 0 
0.607266 -0.730582 0 
0.652491 -0.698197 0 
0.706565 -0.707648 0 
-0.750394 -0.660991 0 
-0.698464 -0.654201 0 
-0.647093 -0.646808 0 
-0.60217 -0.67432 0 
-0.556909 -0.655804 0 
-0.506644 -0.64072 0 
-0.455848 -0.670392 0 
-0.404184 -0.645105 0 
-0.353627 -0.669626 0 
-0.301541 -0.640968 0 
-0.250517 -0.65732 0 
-0.200181 -0.673083 0 
-0.151003 -0.645606 0 
-0.100944 -0.673231 0 
-0.0519388 -0.647066 0 
-0.00212132 -0.674276 0 
0.047866 -0.647977 0 
0.0973944 -0.654915 0 
0.14682 -0.677634 0 
0.197663 -0.647208 0 
0.249531 -0.669554 0 
0.301392 -0.642514 0 
0.353151 -0.66764 0 
0.404352 -0.642769 0 
0.451679 -0.667224 0 
0.497353 -0.643748 0 
0.550472 -0.654874 0 
0.599514 -0.669274 0 
0.647435 -0.648156 0 
0.698584 -0.655155 0 
0.750179 -0.661235 0 
-0.789039 -0.614343 0 
-0.732835 -0.607626 0 
-0.675089 -0.602016 0 
-0.61271 -0.611831 0 
-0.56007 -0.604859 0 
-0.506586 -0.591159 0 
-0.4548 -0.618267 0 
-0.402585 -0.593363 0 
-0.352885 -0.617892 0 
-0.301898 -0.590774 0 
-0.249931 -0.607445 0 
-0.20047 -0.618026 0 
-0.152094 -0.591572 0 
-0.101636 -0.618979 0 
-0.0515543 -0.593574 0 
-0.00244032 -0.620678 0 
0.0493493 -0.600163 0 
0.0984462 -0.59791 0 
0.147214 -0.623273 0 
0.19846 -0.594491 0 
0.248849 -0.617954 0 
0.29924 -0.591281 0 
0.352315 -0.614754 0 
0.403831 -0.593284 0 
0.455787 -0.608592 0 
0.520167 -0.601585 0 
0.571237 -0.605653 0 
0.620059 -0.607814 0 
0.678676 -0.602486 0 
0.734122 -0.607948 0 
0.789144 -0.614208 0 
-0.824938 -0.565223 0 
-0.769277 -0.561556 0 
-0.712842 -0.556856 0 
-0.655558 -0.556882 0 
-0.604723 -0.559782 0 
-0.552376 -0.552301 0 
-0.499741 -0.541558 0 
-0.452146 -0.567692 0 
-0.399788 -0.54198 0 
-0.351333 -0.566006 0 
-0.301369 -0.539423 0 
-0.251944 -0.559984 0 
-0.202344 -0.562389 0 
-0.151729 -0.539373 0 
-0.101412 -0.56624 0 
-0.0504147 -0.541753 0 
-0.000400428 -0.568612 0 
0.0512066 -0.551572 0 
0.100052 -0.542814 0 
0.148635 -0.569469 0 
0.199383 -0.542248 0 
0.24951 -0.565612 0 
0.300492 -0.537743 0 
0.346797 -0.563054 0 
0.392054 -0.54738 0 
0.444834 -0.550376 0 
0.492055 -0.564982 0 
0.548979 -0.550909 0 
0.602765 -0.5553 0 
0.655752 -0.556591 0 
0.713249 -0.556635 0 
0.769373 -0.561367 0 
0.824922 -0.565247 0 
-0.857615 -0.514292 0 
-0.802388 -0.512635 0 
-0.747487 -0.509447 0 
-0.692481 -0.506961 0 
-0.640359 -0.506188 0 
-0.590701 -0.507101 0 
-0.539866 -0.49886 0 
-0.492526 -0.491066 0 
-0.44688 -0.51632 0 
-0.399236 -0.489206 0 
-0.350286 -0.513725 0 
-0.298979 -0.489497 0 
-0.247977 -0.513509 0 
-0.199703 -0.507566 0 
-0.150161 -0.487331 0 
-0.10059 -0.514616 0 
-0.049804 -0.490619 0 
0.000625811 -0.517509 0 
0.0508042 -0.501589 0 
0.0999639 -0.489781 0 
0.149517 -0.516323 0 
0.199861 -0.49053 0 
0.249857 -0.513971 0 
0.301105 -0.486926 0 
0.350992 -0.50621 0 
0.406179 -0.503633 0 
0.453702 -0.495579 0 
0.499381 -0.517896 0 
0.54509 -0.495628 0 
0.589875 -0.502992 0 
0.639769 -0.505125 0 
0.692133 -0.507178 0 
0.747231 -0.509351 0 
0.802239 -0.512834 0 
0.8575 -0.514485 0 
-0.886692 -0.462362 0 
-0.831447 -0.46229 0 
-0.776968 -0.459992 0 
-0.722557 -0.457864 0 
-0.668309 -0.454847 0 
-0.615699 -0.454692 0 
-0.563442 -0.455041 0 
-0.504959 -0.444494 0 
-0.448651 -0.462232 0 
-0.399535 -0.438236 0 
-0.349128 -0.46264 0 
-0.299137 -0.439068 0 
-0.248305 -0.464591 0 
-0.199624 -0.454437 0 
-0.150124 -0.436363 0 
-0.0998408 -0.463181 0 
-0.0495775 -0.439683 0 
0.000657363 -0.466432 0 
0.050398 -0.45109 0 
0.0997795 -0.438004 0 
0.14961 -0.46426 0 
0.20006 -0.439543 0 
0.250155 -0.462985 0 
0.300624 -0.436016 0 
0.349741 -0.453489 0 
0.398431 -0.460711 0 
0.448861 -0.444362 0 
0.501772 -0.463516 0 
0.556306 -0.446047 0 
0.610655 -0.453181 0 
0.665731 -0.455702 0 
0.720992 -0.458228 0 
0.776173 -0.460571 0 
0.831102 -0.462917 0 
0.886543 -0.462645 0 
-0.912236 -0.409665 0 
-0.857204 -0.410967 0 
-0.803392 -0.409217 0 
-0.74994 -0.407407 0 
-0.696663 -0.406178 0 
-0.642836 -0.402615 0 
-0.594083 -0.40314 0 
-0.543712 -0.409305 0 
-0.498184 -0.388941 0 
-0.452699 -0.414143 0 
-0.401283 -0.388854 0 
-0.349739 -0.411899 0 
-0.299455 -0.388886 0 
-0.248771 -0.414704 0 
-0.199804 -0.40237 0 
-0.150194 -0.385975 0 
-0.0998826 -0.412316 0 
-0.0496331 -0.389139 0 
0.000643541 -0.415495 0 
0.0502079 -0.40057 0 
0.099715 -0.387048 0 
0.149647 -0.41299 0 
0.200027 -0.388895 0 
0.250027 -0.412129 0 
0.301055 -0.385878 0 
0.350404 -0.401986 0 
0.40041 -0.412751 0 
0.450882 -0.391618 0 
0.499731 -0.416383 0 
0.544034 -0.393568 0 
0.59137 -0.399783 0 
0.642288 -0.404278 0 
0.695365 -0.407079 0 
0.749328 -0.408637 0 
0.803118 -0.410657 0 
0.857365 -0.412146 0 
0.912211 -0.40972 0 
-0.934162 -0.35685 0 
-0.879422 -0.35942 0 
-0.826293 -0.357958 0 
-0.773333 -0.356351 0 
-0.720158 -0.355668 0 
-0.665775 -0.356607 0 
-0.607138 -0.350008 0 
-0.553621 -0.361137 0 
-0.5022 -0.339404 0 
-0.449669 -0.361737 0 
-0.400008 -0.33791 0 
-0.350294 -0.361968 0 
-0.299735 -0.338845 0 
-0.249149 -0.364486 0 
-0.19989 -0.351123 0 
-0.150231 -0.335907 0 
-0.0999158 -0.361809 0 
-0.0496591 -0.338853 0 
0.000579022 -0.364807 0 
0.0501213 -0.350175 0 
0.0996736 -0.336536 0 
0.149689 -0.362171 0 
0.200173 -0.338592 0 
0.250216 -0.361805 0 
0.300977 -0.33584 0 
0.350317 -0.350432 0 
0.400031 -0.363711 0 
0.449445 -0.340113 0 
0.500426 -0.362497 0 
0.556035 -0.344079 0 
0.610296 -0.352686 0 
0.6665 -0.355417 0 
0.719677 -0.357923 0 
0.773735 -0.358184 0 
0.826983 -0.360351 0 
0.879942 -0.360326 0 
0.934344 -0.356372 0 
-0.952661 -0.304036 0 
-0.898427 -0.307629 0 
-0.846493 -0.305546 0 
-0.794931 -0.304029 0 
-0.743864 -0.303138 0 
-0.693611 -0.30459 0 
-0.643467 -0.30958 0 
-0.599353 -0.290969 0 
-0.55443 -0.313997 0 
-0.503336 -0.288984 0 
-0.45199 -0.311834 0 
-0.401101 -0.288191 0 
-0.349902 -0.311422 0 
-0.299643 -0.288622 0 
-0.249349 -0.314247 0 
-0.199915 -0.300435 0 
-0.150269 -0.285978 0 
-0.0999683 -0.311532 0 
-0.0497289 -0.288717 0 
0.000527779 -0.314369 0 
0.0500741 -0.299964 0 
0.0996409 -0.286337 0 
0.149787 -0.311716 0 
0.200238 -0.28842 0 
0.250326 -0.311555 0 
0.301235 -0.286006 0 
0.350591 -0.299681 0 
0.400449 -0.31341 0 
0.451856 -0.289027 0 
0.501314 -0.314699 0 
0.544921 -0.289691 0 
0.590901 -0.297941 0 
0.640135 -0.307218 0 
0.69435 -0.304347 0 
0.742809 -0.307966 0 
0.7979 -0.307375 0 
0.847482 -0.307936 0 
0.899876 -0.308548 0 
0.953167 -0.302446 0 
-0.967863 -0.251479 0 
-0.914487 -0.256648 0 
-0.863556 -0.253418 0 
-0.811732 -0.251971 0 
-0.759393 -0.251316 0 
-0.706493 -0.252194 0 
-0.653718 -0.258815 0 
-0.607533 -0.238533 0 
-0.553063 -0.261024 0 
-0.502377 -0.238056 0 
-0.452064 -0.261845 0 
-0.401205 -0.238175 0 
-0.350516 -0.261491 0 
-0.299965 -0.238667 0 
-0.249417 -0.263974 0 
-0.199916 -0.250071 0 
-0.150304 -0.236053 0 
-0.100036 -0.261399 0 
-0.0497663 -0.238671 0 
0.000445464 -0.264099 0 
0.0500404 -0.249853 0 
0.0996125 -0.23625 0 
0.149834 -0.261487 0 
0.200323 -0.238399 0 
0.25055 -0.261503 0 
0.301452 -0.23621 0 
0.351157 -0.249436 0 
0.401482 -0.263625 0 
0.451962 -0.237781 0 
0.501557 -0.260261 0 
[...]
POINT_DATA 1245 
VECTORS vectors float
0.875697 -0.279892 0.393466 
0.889739 -0.231905 0.393172 
0.90091 -0.181787 0.394099 
0.908861 -0.136786 0.394033 
0.915492 -0.0899348 0.392155 
0.916507 -0.0454954 0.397424 
0.919493 -0.00100021 0.393106 
0.91732 0.0436825 0.395748 
0.913633 0.0878619 0.396933 
0.908577 0.134895 0.395337 
0.900325 0.183285 0.394742 
0.889971 0.229138 0.394269 
0.875638 0.279776 0.393678 
0.838382 -0.376773 0.393901 
0.858604 -0.328242 0.393772 
0.763268 -0.261563 0.590768 
0.77803 -0.218937 0.588842 
0.802921 -0.177831 0.568941 
0.772026 -0.128571 0.622451 
0.810808 -0.0886517 0.57856 
0.771155 -0.0422637 0.635243 
0.814748 0.000914145 0.579814 
0.765232 0.0428308 0.642329 
0.79666 0.0886891 0.597886 
0.800897 0.134439 0.583515 
0.768365 0.173696 0.615991 
0.793186 0.223314 0.566557 
0.767946 0.265449 0.58292 
0.85816 0.328839 0.394242 
0.837771 0.377504 0.394501 
0.788169 -0.472889 0.39391 
0.814883 -0.425188 0.39393 
0.729814 -0.349943 0.587291 
0.747902 -0.306083 0.58903 
0.640731 -0.231804 0.731936 
0.654854 -0.192857 0.730734 
0.683796 -0.155559 0.712898 
0.624425 -0.108013 0.773581 
0.680374 -0.0761472 0.728898 
0.616604 -0.0348608 0.786501 
0.677993 0.00060055 0.735068 
0.606747 0.0351958 0.794116 
0.65948 0.0743893 0.748032 
0.676973 0.116447 0.726738 
0.62878 0.149078 0.763159 
0.679868 0.19921 0.705758 
0.647926 0.23492 0.724571 
0.748516 0.307738 0.587385 
0.728591 0.351278 0.588013 
0.814242 0.425765 0.394632 
0.787484 0.473352 0.394723 
0.758091 -0.519767 0.393879 
0.685004 -0.437958 0.582205 
0.708951 -0.394402 0.584667 
0.610735 -0.311458 0.728008 
0.626906 -0.27164 0.730206 
0.523559 -0.200879 0.827969 
0.535442 -0.166733 0.82795 
0.561482 -0.13527 0.816358 
0.493655 -0.0908492 0.864899 
0.545135 -0.0645237 0.835862 
0.481448 -0.029164 0.875989 
0.538111 0.000257142 0.842874 
0.472714 0.0295001 0.880722 
0.522716 0.0630705 0.850171 
0.554346 0.100469 0.8262 
0.501923 0.125235 0.855798 
0.561982 0.173452 0.808758 
0.530995 0.203684 0.822531 
0.626646 0.273273 0.72982 
0.609466 0.311314 0.729133 
0.706963 0.394532 0.586982 
0.684237 0.438116 0.582987 
0.757355 0.520167 0.394764 
0.689623 -0.607942 0.393482 
0.72504 -0.56503 0.393773 
0.657034 -0.479967 0.581324 
0.572848 -0.390487 0.72067 
0.593221 -0.351119 0.724434 
0.498743 -0.270575 0.823435 
0.51198 -0.236078 0.82592 
0.42144 -0.172073 0.890382 
0.429747 -0.142672 0.891607 
0.448726 -0.115344 0.886194 
0.386208 -0.0771188 0.919182 
0.426965 -0.0544649 0.902626 
0.372826 -0.0248875 0.927568 
0.418977 -6.48841e-05 0.907997 
0.364976 0.0241165 0.930705 
0.403325 0.0512967 0.913618 
0.442797 0.0841509 0.892664 
0.396646 0.105051 0.911941 
0.452705 0.147822 0.879322 
0.426817 0.173456 0.887547 
0.511154 0.235772 0.826519 
0.495664 0.269942 0.825499 
0.589628 0.350431 0.727693 
0.572204 0.390606 0.721117 
0.655118 0.479934 0.58351 
0.724244 0.565405 0.3947 
0.689204 0.607907 0.394268 
0.650145 -0.650029 0.393413 
0.601641 -0.563724 0.5659 
0.62483 -0.518777 0.583487 
0.546194 -0.427223 0.720523 
0.467474 -0.342163 0.815103 
0.483811 -0.306393 0.819787 
0.400716 -0.233115 0.88605 
0.411425 -0.202399 0.888686 
0.336122 -0.14705 0.930268 
0.340902 -0.121236 0.932249 
0.353245 -0.0973001 0.930457 
0.29953 -0.0647676 0.951886 
0.331591 -0.0458057 0.942311 
0.287951 -0.0213712 0.957407 
0.324248 -0.000448416 0.945972 
0.28354 0.0199152 0.958754 
0.308373 0.0426573 0.950309 
0.346746 0.0695688 0.935375 
0.310313 0.0879073 0.946561 
0.360406 0.124744 0.924417 
0.339297 0.147779 0.928999 
0.409395 0.201168 0.889903 
0.397986 0.230783 0.887889 
0.479355 0.303456 0.823488 
0.467747 0.341067 0.815406 
0.542578 0.425656 0.724173 
0.620253 0.516125 0.590678 
0.599382 0.561181 0.570804 
0.650084 0.649785 0.393917 
0.607928 -0.68955 0.39363 
0.563928 -0.601866 0.565458 
0.509057 -0.50912 0.694016 
0.515315 -0.460379 0.722843 
0.44414 -0.377131 0.812719 
0.380098 -0.300603 0.874736 
0.390358 -0.265382 0.881586 
0.320009 -0.200535 0.925948 
0.32826 -0.173612 0.928496 
0.267412 -0.125979 0.955311 
0.269795 -0.103009 0.957392 
0.275241 -0.0823746 0.95784 
0.232273 -0.054567 0.971119 
0.256433 -0.0389071 0.965779 
0.222363 -0.018164 0.974795 
0.25117 -0.00101272 0.967942 
0.222835 0.0160882 0.974723 
0.234478 0.0348095 0.971498 
0.268915 0.0584631 0.961388 
0.243261 0.0740525 0.96713 
0.284748 0.106639 0.952653 
0.269047 0.126153 0.954829 
0.32441 0.171747 0.930194 
0.316583 0.199166 0.92742 
0.38136 0.258792 0.887463 
0.378083 0.292483 0.878355 
0.436995 0.367385 0.821014 
0.502454 0.45147 0.73737 
0.511103 0.510641 0.691389 
0.565084 0.603209 0.562867 
0.607725 0.689723 0.393639 
0.564899 -0.725012 0.394014 
0.518762 -0.625094 0.583217 
0.460876 -0.516299 0.721823 
0.420716 -0.421306 0.80343 
0.367207 -0.339868 0.865823 
0.310121 -0.265665 0.912824 
0.312917 -0.230151 0.921474 
0.255001 -0.173163 0.951309 
0.260256 -0.148702 0.95402 
0.212905 -0.10916 0.970956 
0.214272 -0.0883143 0.972773 
0.212715 -0.0693076 0.974653 
0.179753 -0.046562 0.982609 
0.198227 -0.0328072 0.979607 
0.171923 -0.0151943 0.984993 
0.194719 -0.000938726 0.980859 
0.177709 0.0145924 0.983975 
0.178502 0.029194 0.983506 
0.207773 0.0489122 0.976953 
0.189916 0.0638308 0.979723 
0.223999 0.0900006 0.970425 
0.212005 0.107483 0.97134 
0.256295 0.147365 0.955299 
0.254805 0.173608 0.95128 
0.300365 0.225081 0.926887 
0.332833 0.287984 0.897935 
0.376302 0.355668 0.85551 
0.421351 0.430167 0.798386 
0.46429 0.52382 0.714176 
0.520081 0.627885 0.57903 
0.564638 0.725373 0.393724 
0.519599 -0.758043 0.394191 
0.47953 -0.656746 0.582009 
0.426309 -0.54534 0.72171 
0.376934 -0.443707 0.813047 
0.339439 -0.366597 0.866249 
0.292104 -0.292197 0.910657 
0.248124 -0.228738 0.941336 
0.250635 -0.199796 0.94724 
0.20141 -0.148502 0.968185 
0.205844 -0.127936 0.970186 
0.16784 -0.0936421 0.981357 
0.172426 -0.0778349 0.981942 
0.163836 -0.0591991 0.98471 
0.139995 -0.0395382 0.989362 
0.154018 -0.027846 0.987676 
0.133944 -0.0125939 0.990909 
0.151492 -0.000475608 0.988458 
0.140338 0.0128602 0.99002 
0.137114 0.0250616 0.990238 
0.161155 0.0421311 0.986029 
0.148292 0.0540572 0.987465 
0.175989 0.0778345 0.98131 
0.166004 0.0930856 0.981722 
0.201024 0.123588 0.971759 
0.203598 0.146057 0.968099 
0.228465 0.184903 0.955832 
0.269412 0.235074 0.933894 
0.287839 0.286815 0.913721 
0.331725 0.360643 0.87172 
0.37669 0.443783 0.813118 
0.426383 0.546028 0.721145 
0.479196 0.65714 0.58184 
0.519689 0.758152 0.393864 
0.472676 -0.788142 0.394221 
0.437512 -0.684709 0.582886 
0.389974 -0.571844 0.721744 
0.340871 -0.465953 0.816514 
0.29974 -0.379024 0.875498 
0.265988 -0.309741 0.912859 
0.226864 -0.245791 0.942401 
0.196673 -0.197347 0.960403 
0.198345 -0.171539 0.965004 
0.158948 -0.129879 0.978707 
0.161821 -0.110514 0.980612 
0.132583 -0.0812747 0.987834 
0.137495 -0.0667101 0.988254 
0.125946 -0.0496814 0.990792 
0.108773 -0.0337454 0.993494 
0.119719 -0.0236465 0.992526 
0.10429 -0.0108235 0.994488 
0.117889 1.20121e-05 0.993027 
0.110149 0.0108923 0.993855 
0.105887 0.0217407 0.99414 
0.124965 0.0361829 0.991501 
0.11586 0.0476801 0.992121 
0.137849 0.0669094 0.988191 
0.130931 0.080731 0.988099 
0.156156 0.108644 0.981739 
0.172086 0.139095 0.975212 
0.183149 0.167687 0.968678 
0.223695 0.216 0.950423 
0.227043 0.249855 0.941288 
0.260575 0.306132 0.915633 
0.298074 0.377373 0.876779 
0.340639 0.465872 0.816657 
0.389777 0.571343 0.722247 
0.437806 0.684588 0.582808 
0.47301 0.788087 0.393929 
0.42492 -0.814921 0.394142 
0.393842 -0.708335 0.58579 
0.350336 -0.591918 0.725878 
0.305607 -0.48231 0.820964 
0.262857 -0.385677 0.884398 
0.228365 -0.30981 0.922967 
0.200187 -0.24741 0.948005 
0.164884 -0.18706 0.968412 
0.15625 -0.151797 0.975983 
0.126194 -0.114962 0.985322 
0.127623 -0.0962378 0.987143 
0.104348 -0.0711996 0.991989 
0.109226 -0.0583444 0.992303 
0.0974557 -0.0429923 0.994311 
0.0847096 -0.0293442 0.995973 
0.0932451 -0.0201652 0.995439 
0.0809707 -0.00936521 0.996672 
0.0919284 2.41512e-05 0.995766 
0.0856945 0.00932487 0.996278 
0.0821861 0.0186499 0.996442 
0.0970426 0.0309134 0.9948 
0.0906171 0.0409158 0.995045 
0.108327 0.0586084 0.992386 
0.10303 0.0714181 0.992111 
0.122077 0.0940903 0.988051 
0.139114 0.120279 0.982945 
0.144248 0.146012 0.97871 
0.177916 0.192776 0.964978 
0.188443 0.235072 0.953536 
0.224101 0.302083 0.926566 
0.261777 0.382475 0.886107 
0.305108 0.479387 0.822859 
0.350365 0.590986 0.726622 
0.394777 0.707948 0.585629 
0.425442 0.814708 0.394016 
0.376463 -0.838461 0.394029 
0.349396 -0.729345 0.588199 
0.310998 -0.610117 0.728723 
0.270102 -0.497427 0.824385 
0.233256 -0.400003 0.886335 
0.197558 -0.316023 0.927955 
0.173997 -0.255654 0.950982 
0.155897 -0.207349 0.965765 
0.126457 -0.162186 0.978624 
0.127118 -0.138776 0.982131 
0.100368 -0.103709 0.989531 
0.10057 -0.0855374 0.991246 
0.0823688 -0.0634749 0.994578 
0.0857472 -0.0516259 0.994978 
0.0755351 -0.0377441 0.996429 
0.0661532 -0.0257025 0.997478 
0.0723614 -0.0177127 0.997221 
0.0628864 -0.00811313 0.997988 
0.0712955 4.57283e-05 0.997455 
0.066423 0.0083895 0.997756 
0.0638803 0.0161044 0.997828 
0.0753141 0.0276154 0.996777 
0.0705867 0.0363633 0.996843 
0.0846371 0.0513174 0.995089 
0.080991 0.0629149 0.994727 
0.0959328 0.0838374 0.991851 
0.112055 0.108855 0.987722 
0.11398 0.13136 0.984761 
0.143506 0.172331 0.97453 
0.145579 0.201464 0.968617 
0.169608 0.251019 0.953007 
0.199047 0.316282 0.927548 
0.232971 0.398272 0.887189 
0.271415 0.497247 0.824063 
0.312415 0.610276 0.727984 
0.351239 0.730419 0.585763 
0.376905 0.838239 0.394079 
0.327855 -0.858727 0.393827 
0.305575 -0.747447 0.58987 
0.270851 -0.62565 0.731575 
0.235138 -0.510265 0.827249 
0.202171 -0.409112 0.889806 
0.173722 -0.32396 0.929984 
0.142118 -0.246642 0.958629 
0.128922 -0.197943 0.971698 
0.101959 -0.150288 0.983371 
0.0990955 -0.123166 0.987426 
0.07857 -0.0929616 0.992565 
0.0795881 -0.0770174 0.993848 
0.0640013 -0.0566776 0.996339 
0.0670687 -0.0458783 0.996693 
0.0586113 -0.0333307 0.997724 
0.0509462 -0.02309 0.998434 
0.0560572 -0.0156485 0.998305 
0.0486061 -0.00705867 0.998793 
0.0551731 -0.000329569 0.998477 
0.0515736 0.00735211 0.998642 
0.0489198 0.0146554 0.998695 
0.0583066 0.0238947 0.998013 
0.0549085 0.032389 0.997966 
0.0660713 0.0458358 0.996762 
0.0632617 0.0568496 0.996376 
0.0748773 0.074969 0.994371 
0.0888757 0.0976277 0.991247 
0.0889989 0.117875 0.989032 
0.112928 0.155547 0.981352 
0.119877 0.193825 0.973684 
0.145348 0.251488 0.956884 
0.173242 0.324328 0.929946 
0.203886 0.409518 0.889227 
0.237135 0.512133 0.825522 
0.274361 0.628662 0.727674 
0.306975 0.748824 0.587392 
0.327921 0.858585 0.394081 
0.27953 -0.875868 0.393341 
0.26134 -0.76315 0.591019 
0.230959 -0.64027 0.732606 
0.200659 -0.523847 0.827841 
0.17211 -0.422746 0.889755 
0.149553 -0.340267 0.92836 
0.131969 -0.27412 0.952598 
0.105727 -0.218042 0.970196 
0.104073 -0.183059 0.977578 
0.0796371 -0.139303 0.987042 
0.0780689 -0.1134 0.990477 
0.0616301 -0.0856335 0.994419 
0.061613 -0.0693019 0.995691 
0.0498526 -0.0517586 0.997415 
0.0520421 -0.0415586 0.99778 
0.0449318 -0.0300181 0.998539 
0.039353 -0.0205952 0.999013 
0.0431317 -0.014001 0.998971 
0.0371729 -0.00677776 0.999286 
0.0419947 0.000209934 0.999118 
0.0395868 0.00627397 0.999196 
0.0375782 0.0129803 0.999209 
0.0451118 0.0215812 0.998749 
0.0418118 0.0291621 0.9987 
0.0513197 0.0411122 0.997836 
0.0489105 0.051573 0.997471 
0.0581022 0.0679488 0.995996 
0.0696401 0.0891548 0.99358 
0.0700138 0.109024 0.99157 
0.0899134 0.143732 0.985524 
0.0899924 0.169086 0.981484 
0.106932 0.211749 0.971456 
0.128682 0.268665 0.954599 
0.149674 0.34126 0.927976 
0.175643 0.423039 0.888925 
0.205279 0.531923 0.821534 
0.234146 0.643705 0.728574 
0.263341 0.766534 0.585728 
0.278505 0.875758 0.394313 
0.231745 -0.889918 0.392862 
0.218335 -0.777328 0.589992 
0.192126 -0.65346 0.732173 
0.165648 -0.533183 0.829624 
0.14152 -0.427043 0.893088 
0.120791 -0.338138 0.933313 
0.106336 -0.267985 0.957537 
0.0831262 -0.211375 0.973864 
0.0797162 -0.168617 0.982453 
0.061164 -0.128639 0.989804 
0.0609717 -0.104704 0.992633 
0.046703 -0.0790949 0.995772 
0.047633 -0.0638847 0.99682 
0.0376623 -0.0474792 0.998162 
0.0397118 -0.0373295 0.998514 
0.034039 -0.0273887 0.999045 
0.029596 -0.0191095 0.999379 
0.0327838 -0.0124021 0.999386 
0.0277735 -0.0058047 0.999597 
0.0323777 -1.66217e-05 0.999476 
0.0297068 0.00599162 0.999541 
0.0282311 0.0118634 0.999531 
0.0342109 0.0196161 0.999222 
0.0320456 0.0267765 0.999128 
0.0391863 0.0375382 0.998527 
0.0372675 0.0476727 0.998168 
0.0445707 0.0626589 0.997039 
0.0537946 0.0821341 0.995168 
0.0529755 0.101156 0.993459 
0.0687134 0.132159 0.988844 
0.0721036 0.168264 0.983101 
0.0897623 0.21811 0.971787 
0.110659 0.279027 0.953886 
0.121286 0.348092 0.929581 
0.152317 0.440626 0.884674 
0.166925 0.540355 0.824714 
0.196591 0.657745 0.727134 
0.218169 0.778825 0.588076 
0.229154 0.889712 0.394842 
0.18178 -0.900992 0.393915 
0.177603 -0.802697 0.569329 
0.155635 -0.682557 0.714069 
0.133726 -0.55853 0.818634 
0.114222 -0.444898 0.888268 
0.0969603 -0.34764 0.932601 
0.0833552 -0.26732 0.959996 
0.0630475 -0.200854 0.97759 
0.061226 -0.16026 0.985174 
0.0457248 -0.122443 0.991422 
0.0456558 -0.0979387 0.994145 
0.0351075 -0.0742223 0.996624 
0.0358672 -0.0591752 0.997603 
0.0278402 -0.0442724 0.998632 
0.0298223 -0.0349698 0.998943 
0.0253619 -0.0252643 0.999359 
0.0215387 -0.0172366 0.999619 
0.0242654 -0.0118333 0.999636 
0.0206934 -0.00533496 0.999772 
0.0236371 -0.000201153 0.999721 
0.0218478 0.00551265 0.999746 
0.020923 0.0109346 0.999721 
0.025226 0.0178427 0.999523 
0.0233269 0.0248384 0.999419 
0.0292148 0.0347012 0.998971 
0.0273818 0.0442015 0.998647 
0.0330788 0.0585311 0.997737 
0.0409599 0.0767618 0.996208 
0.039991 0.0961146 0.994567 
0.0532698 0.127252 0.990439 
0.0531366 0.157476 0.986092 
0.0671104 0.203752 0.97672 
0.0856078 0.264977 0.960447 
0.0898802 0.32989 0.939731 
0.119175 0.425375 0.897136 
0.126547 0.529914 0.838556 
0.15654 0.657974 0.736591 
0.173136 0.785156 0.594604 
0.180195 0.900741 0.395216 
0.136892 -0.908736 0.394284 
0.128283 -0.771199 0.623535 
0.107241 -0.622278 0.775416 
0.0905528 -0.491209 0.866322 
0.0759731 -0.384008 0.920199 
0.0661649 -0.300669 0.951431 
0.0580922 -0.23931 0.969204 
0.0426282 -0.190097 0.980839 
0.044815 -0.153476 0.987136 
0.0322582 -0.116694 0.992644 
0.0331671 -0.092777 0.995134 
0.0242498 -0.0705892 0.997211 
0.0255712 -0.0560927 0.998098 
0.0195428 -0.0418553 0.998933 
0.0212653 -0.032496 0.999246 
0.0176435 -0.0237326 0.999563 
0.0150317 -0.016795 0.999746 
0.0173902 -0.010786 0.999791 
0.0137496 -0.00528979 0.999891 
0.0171368 3.2361e-05 0.999853 
0.0155548 0.00500414 0.999866 
0.0137656 0.0104039 0.999851 
0.0181689 0.0170251 0.99969 
0.0161075 0.0232745 0.999599 
0.0209816 0.0326846 0.999245 
0.01917 0.0422192 0.998924 
0.0234599 0.0554074 0.998188 
0.0294589 0.0724403 0.996938 
0.0280755 0.0913818 0.99542 
0.0381355 0.119861 0.992058 
0.0361956 0.150508 0.987946 
0.0483882 0.194577 0.979693 
0.063149 0.252563 0.965518 
0.0628797 0.318532 0.945824 
0.0884341 0.409861 0.907851 
0.0890277 0.508236 0.856604 
0.111921 0.631233 0.767475 
0.128009 0.776845 0.616544 
0.134589 0.908896 0.394708 
0.088574 -0.914373 0.395066 
0.0891432 -0.810561 0.578831 
0.0764365 -0.67869 0.730436 
0.0634903 -0.540765 0.838774 
0.0533391 -0.42073 0.905616 
0.0456966 -0.323419 0.945152 
0.039506 -0.246516 0.968333 
0.0272395 -0.186082 0.982157 
0.0295471 -0.145774 0.988877 
0.0194383 -0.112627 0.993447 
0.0221823 -0.0892557 0.995762 
0.0149816 -0.0682093 0.997559 
0.0171965 -0.0532301 0.998434 
0.0116975 -0.0404859 0.999112 
0.014255 -0.0310217 0.999417 
0.011423 -0.0226155 0.999679 
0.00897621 -0.0157572 0.999836 
0.0114262 -0.0100535 0.999884 
0.00901238 -0.00494324 0.999947 
0.0110484 0.000114006 0.999939 
0.00983205 0.00482296 0.99994 
0.00885711 0.00990822 0.999912 
0.0120951 0.0158006 0.999802 
0.00990194 0.02268 0.999694 
0.0137845 0.0309968 0.999424 
0.0112407 0.040372 0.999121 
0.0152672 0.0530917 0.998473 
0.0196796 0.069636 0.997378 
0.016823 0.0879268 0.995985 
0.02571 0.115095 0.993022 
0.0222795 0.145922 0.989045 
0.0309232 0.189023 0.981486 
0.0426575 0.244228 0.968779 
0.0391208 0.311446 0.949458 
0.0594366 0.403021 0.913259 
0.0581873 0.51922 0.852658 
0.0771719 0.66302 0.744614 
0.0871226 0.802464 0.590306 
0.0874822 0.914477 0.395069 
0.0445302 -0.91809 0.393863 
0.0423707 -0.770487 0.636046 
0.0352795 -0.61478 0.787909 
0.0294187 -0.478412 0.877642 
0.0242301 -0.368961 0.929129 
0.0218002 -0.287254 0.957606 
0.0198807 -0.227727 0.973522 
0.0106973 -0.182213 0.983201 
0.0160377 -0.14398 0.989451 
0.00867119 -0.110972 0.993786 
0.0119311 -0.086544 0.996177 
0.00642971 -0.0667052 0.997752 
0.00917051 -0.052137 0.998598 
0.00533287 -0.0392466 0.999215 
0.00764551 -0.0300719 0.999518 
0.00543853 -0.0221179 0.999741 
0.00387035 -0.0153401 0.999875 
0.00587471 -0.0101454 0.999931 
0.00341589 -0.00451906 0.999984 
0.00616005 -0.000163079 0.999981 
0.00453676 0.00482106 0.999978 
0.0035573 0.00965861 0.999947 
0.00602337 0.0156053 0.99986 
0.00415709 0.0217478 0.999755 
0.00753087 0.0301328 0.999518 
0.00491633 0.0398186 0.999195 
0.00713054 0.0517566 0.998634 
0.010859 0.0672782 0.997675 
0.00762451 0.0866163 0.996213 
0.0135318 0.112415 0.993569 
0.00889972 0.143729 0.989577 
0.0149542 0.185567 0.982518 
0.0241141 0.240329 0.970392 
0.0169274 0.308557 0.951055 
0.0336932 0.398231 0.916666 
0.024941 0.496549 0.86765 
0.0357465 0.620598 0.783313 
0.0417959 0.769831 0.636877 
0.0435611 0.91814 0.393854 
0.000727188 -0.920331 0.391139 
0.00063229 -0.816064 0.577962 
0.000638183 -0.678959 0.734176 
0.000146743 -0.537652 0.843167 
0.000267969 -0.415047 0.9098 
0.000478684 -0.31667 0.948536 
0.00210187 -0.240463 0.970656 
-0.00371227 -0.183397 0.983032 
0.00263071 -0.141528 0.989931 
-0.00265364 -0.110656 0.993855 
0.00195548 -0.086158 0.99628 
-0.00168626 -0.0667165 0.997771 
0.00161327 -0.0512276 0.998686 
-0.00152763 -0.0395447 0.999217 
0.00176601 -0.0295184 0.999563 
3.27908e-05 -0.0219168 0.99976 
-0.00147653 -0.0154672 0.999879 
0.00143666 -0.00981076 0.999951 
-0.000957116 -0.00492009 0.999987 
0.00139088 -7.60995e-05 0.999999 
0.000159024 0.00471156 0.999989 
-0.00147109 0.00959513 0.999953 
0.0014107 0.0151949 0.999884 
-0.00114931 0.0219851 0.999758 
0.00110677 0.0296784 0.999559 
-0.00171459 0.0392354 0.999229 
-0.000146219 0.0514552 0.998675 
0.00221257 0.0667972 0.997764 
-0.00228697 0.0858843 0.996302 
0.00226416 0.111035 0.993814 
-0.00409746 0.143843 0.989592 
-0.000231513 0.184323 0.982866 
0.00566046 0.238155 0.971211 
-0.00481854 0.306148 0.951972 
0.00655596 0.395762 0.91833 
-0.0047666 0.515052 0.857146 
0.000315621 0.664333 0.747437 
-0.000863211 0.80935 0.587325 
0.000502652 0.920412 0.39095 
-0.0431366 -0.918059 0.39409 
-0.0417004 -0.770735 0.63579 
-0.0345328 -0.616171 0.786855 
-0.0284007 -0.479817 0.876909 
-0.0242612 -0.370898 0.928357 
-0.0197739 -0.287641 0.957534 
-0.0158598 -0.229287 0.97323 
-0.0196961 -0.185063 0.982529 
-0.00988511 -0.143778 0.989561 
-0.0140121 -0.112336 0.993571 
-0.00707956 -0.086274 0.996246 
-0.0105621 -0.0672332 0.997681 
-0.00557649 -0.0516186 0.998651 
-0.00794288 -0.0394785 0.999189 
-0.00441087 -0.0298026 0.999546 
-0.00536429 -0.0218793 0.999746 
-0.00649618 -0.0157298 0.999855 
-0.00408482 -0.00956835 0.999946 
-0.00565845 -0.00491221 0.999972 
-0.00356498 0.000208794 0.999994 
-0.00476057 0.00461277 0.999978 
-0.00625073 0.00993779 0.999931 
-0.00424768 0.0154771 0.999871 
-0.0069806 0.0219682 0.999734 
-0.00465477 0.0300295 0.999538 
-0.00881833 0.0401621 0.999154 
-0.00737032 0.051879 0.998626 
-0.00592801 0.0666359 0.99776 
-0.0120509 0.087368 0.996103 
-0.00824877 0.111488 0.993732 
-0.0173717 0.144746 0.989316 
-0.0154896 0.185669 0.98249 
-0.0124015 0.238891 0.970967 
-0.02653 0.31008 0.95034 
-0.0184823 0.395427 0.918312 
-0.0356469 0.493808 0.86884 
-0.0359775 0.617898 0.785435 