# vtk DataFile Version 3.0 
Exported using Morpho https://github.com/Morpho-lang/morpho 
ASCII 
DATASET UNSTRUCTURED_GRID 

POINTS 1245 float 
-0.304038 -0.95266 0 
-0.251441 -0.967873 0 
-0.196599 -0.980484 0 
-0.147939 -0.988996 0 
-0.096254 -0.995357 0 
-0.0483601 -0.99883 0 
-0.000451504 -1 0 
0.0482414 -0.998836 0 
0.0956209 -0.995418 0 
0.145924 -0.989296 0 
0.198694 -0.980062 0 
0.248343 -0.968672 0 
0.30399 -0.952675 0 
-0.409672 -0.912233 0 
-0.356859 -0.934158 0 
-0.307625 -0.898571 0 
-0.256611 -0.914841 0 
-0.205389 -0.933372 0 
-0.153069 -0.927934 0 
-0.102396 -0.94791 0 
-0.0498583 -0.935106 0 
0.00142854 -0.953377 0 
0.052561 -0.9331 0 
0.104134 -0.942389 0 
0.156872 -0.938823 0 
0.206982 -0.919507 0 
0.258749 -0.920951 0 
0.310446 -0.900065 0 
0.357716 -0.93383 0 
0.410714 -0.911764 0 
-0.51437 -0.857568 0 
-0.462407 -0.886668 0 
-0.411015 -0.857376 0 
-0.359501 -0.879663 0 
-0.305707 -0.84665 0 
-0.253622 -0.86425 0 
-0.200473 -0.885626 0 
-0.148805 -0.868805 0 
-0.0992128 -0.89633 0 
-0.0484472 -0.873916 0 
0.00154915 -0.899374 0 
0.0506565 -0.870008 0 
0.099584 -0.888189 0 
0.15259 -0.889657 0 
0.203706 -0.862941 0 
0.255384 -0.874358 0 
0.307954 -0.849391 0 
0.361689 -0.879386 0 
0.412615 -0.856642 0 
0.46325 -0.886228 0 
0.514942 -0.857225 0 
-0.565364 -0.824841 0 
-0.512807 -0.802464 0 
-0.462454 -0.831649 0 
-0.409305 -0.803744 0 
-0.35814 -0.826779 0 
-0.304287 -0.794815 0 
-0.252533 -0.812725 0 
-0.199644 -0.834469 0 
-0.148659 -0.811689 0 
-0.0980329 -0.840437 0 
-0.0486484 -0.814709 0 
0.00110327 -0.841666 0 
0.0507222 -0.810511 0 
0.10012 -0.830521 0 
0.151601 -0.838979 0 
0.201398 -0.807576 0 
0.253879 -0.824556 0 
0.305585 -0.798078 0 
0.359663 -0.826545 0 
0.410331 -0.802786 0 
0.463256 -0.830671 0 
0.513382 -0.802055 0 
0.565855 -0.824505 0 
-0.661127 -0.750274 0 
-0.614521 -0.7889 0 
-0.561833 -0.769262 0 
-0.50964 -0.747742 0 
-0.460175 -0.777438 0 
-0.407225 -0.750461 0 
-0.356449 -0.774194 0 
-0.303021 -0.743169 0 
-0.251726 -0.760737 0 
-0.199698 -0.781574 0 
-0.149469 -0.755674 0 
-0.0987361 -0.784111 0 
-0.0495663 -0.757521 0 
0.00074427 -0.784506 0 
0.0499021 -0.753017 0 
0.0986422 -0.771593 0 
0.148465 -0.786798 0 
0.198905 -0.753762 0 
0.25178 -0.773224 0 
0.303018 -0.746409 0 
0.356897 -0.773838 0 
0.407278 -0.749476 0 
0.460508 -0.775969 0 
0.509912 -0.747635 0 
0.562265 -0.768427 0 
0.614899 -0.788606 0 
0.660916 -0.75046 0 
-0.707137 -0.707076 0 
-0.654232 -0.698242 0 
-0.60786 -0.732501 0 
-0.557385 -0.712939 0 
-0.507468 -0.693124 0 
-0.457791 -0.723521 0 
-0.40534 -0.697562 0 
-0.354815 -0.72183 0 
-0.302133 -0.691777 0 
-0.251077 -0.708675 0 
-0.199931 -0.727612 0 
-0.150301 -0.700335 0 
-0.0999236 -0.728385 0 
-0.051087 -0.701823 0 
-0.000421628 -0.728505 0 
0.0495464 -0.698598 0 
0.0984035 -0.713168 0 
0.147599 -0.732599 0 
0.197896 -0.700126 0 
0.250029 -0.721435 0 
0.301757 -0.694342 0 
0.353927 -0.721143 0 
0.403704 -0.696683 0 
0.456847 -0.721566 0 
0.505628 -0.694419 0 
0.557407 -0.711375 0 
0.607266 -0.730582 0 
0.652491 -0.698197 0 
0.706565 -0.707648 0 
-0.750394 -0.660991 0 
-0.698464 -0.654201 0 
-0.647093 -0.646808 0 
-0.60217 -0.67432 0 
-0.556909 -0.655804 0 
-0.506644 -0.64072 0 
-0.455848 -0.670392 0 
-0.404184 -0.645105 0 
-0.353627 -0.669626 0 
-0.301541 -0.640968 0 
-0.250517 -0.65732 0 
-0.200181 -0.673083 0 
-0.151003 -0.645606 0 
-0.100944 -0.673231 0 
-0.0519388 -0.647066 0 
-0.00212132 -0.674276 0 
0.047866 -0.647977 0 
0.0973944 -0.654915 0 
0.14682 -0.677634 0 
0.197663 -0.647208 0 
0.249531 -0.669554 0 
0.301392 -0.642514 0 
0.353151 -0.66764 0 
0.404352 -0.642769 0 
0.451679 -0.667224 0 
0.497353 -0.643748 0 
0.550472 -0.654874 0 
0.599514 -0.669274 0 
0.647435 -0.648156 0 
0.698584 -0.655155 0 
0.750179 -0.661235 0 
-0.789039 -0.614343 0 
-0.732835 -0.607626 0 
-0.675089 -0.602016 0 
-0.61271 -0.611831 0 
-0.56007 -0.604859 0 
-0.506586 -0.591159 0 
-0.4548 -0.618267 0 
-0.402585 -0.593363 0 
-0.352885 -0.617892 0 
-0.301898 -0.590774 0 
-0.249931 -0.607445 0 
-0.20047 -0.618026 0 
-0.152094 -0.591572 0 
-0.101636 -0.618979 0 
-0.0515543 -0.593574 0 
-0.00244032 -0.620678 0 
0.0493493 -0.600163 0 
0.0984462 -0.59791 0 
0.147214 -0.623273 0 
0.19846 -0.594491 0 
0.248849 -0.617954 0 
0.29924 -0.591281 0 
0.352315 -0.614754 0 
0.403831 -0.593284 0 
0.455787 -0.608592 0 
0.520167 -0.601585 0 
0.571237 -0.605653 0 
0.620059 -0.607814 0 
0.678676 -0.602486 0 
0.734122 -0.607948 0 
0.789144 -0.614208 0 
-0.824938 -0.565223 0 
-0.769277 -0.561556 0 
-0.712842 -0.556856 0 
-0.655558 -0.556882 0 
-0.604723 -0.559782 0 
-0.552376 -0.552301 0 
-0.499741 -0.541558 0 
-0.452146 -0.567692 0 
-0.399788 -0.54198 0 
-0.351333 -0.566006 0 
-0.301369 -0.539423 0 
-0.251944 -0.559984 0 
-0.202344 -0.562389 0 
-0.151729 -0.539373 0 
-0.101412 -0.56624 0 
-0.0504147 -0.541753 0 
-0.000400428 -0.568612 0 
0.0512066 -0.551572 0 
0.100052 -0.542814 0 
0.148635 -0.569469 0 
0.199383 -0.542248 0 
0.24951 -0.565612 0 
0.300492 -0.537743 0 
0.346797 -0.563054 0 
0.392054 -0.54738 0 
0.444834 -0.550376 0 
0.492055 -0.564982 0 
0.548979 -0.550909 0 
0.602765 -0.5553 0 
0.655752 -0.556591 0 
0.713249 -0.556635 0 
0.769373 -0.561367 0 
0.824922 -0.565247 0 
-0.857615 -0.514292 0 
-0.802388 -0.512635 0 
-0.747487 -0.509447 0 
-0.692481 -0.506961 0 
-0.640359 -0.506188 0 
-0.590701 -0.507101 0 
-0.539866 -0.49886 0 
-0.492526 -0.491066 0 
-0.44688 -0.51632 0 
-0.399236 -0.489206 0 
-0.350286 -0.513725 0 
-0.298979 -0.489497 0 
-0.247977 -0.513509 0 
-0.199703 -0.507566 0 
-0.150161 -0.487331 0 
-0.10059 -0.514616 0 
-0.049804 -0.490619 0 
0.000625811 -0.517509 0 
0.0508042 -0.501589 0 
0.0999639 -0.489781 0 
0.149517 -0.516323 0 
0.199861 -0.49053 0 
0.249857 -0.513971 0 
0.301105 -0.486926 0 
0.350992 -0.50621 0 
0.406179 -0.503633 0 
0.453702 -0.495579 0 
0.499381 -0.517896 0 
0.54509 -0.495628 0 
0.589875 -0.502992 0 
0.639769 -0.505125 0 
0.692133 -0.507178 0 
0.747231 -0.509351 0 
0.802239 -0.512834 0 
0.8575 -0.514485 0 
-0.886692 -0.462362 0 
-0.831447 -0.46229 0 
-0.776968 -0.459992 0 
-0.722557 -0.457864 0 
-0.668309 -0.454847 0 
-0.615699 -0.454692 0 
-0.563442 -0.455041 0 
-0.504959 -0.444494 0 
-0.448651 -0.462232 0 
-0.399535 -0.438236 0 
-0.349128 -0.46264 0 
-0.299137 -0.439068 0 
-0.248305 -0.464591 0 
-0.199624 -0.454437 0 
-0.150124 -0.436363 0 
-0.0998408 -0.463181 0 
-0.0495775 -0.439683 0 
0.000657363 -0.466432 0 
0.050398 -0.45109 0 
0.0997795 -0.438004 0 
0.14961 -0.46426 0 
0.20006 -0.439543 0 
0.250155 -0.462985 0 
0.300624 -0.436016 0 
0.349741 -0.453489 0 
0.398431 -0.460711 0 
0.448861 -0.444362 0 
0.501772 -0.463516 0 
0.556306 -0.446047 0 
0.610655 -0.453181 0 
0.665731 -0.455702 0 
0.720992 -0.458228 0 
0.776173 -0.460571 0 
0.831102 -0.462917 0 
0.886543 -0.462645 0 
-0.912236 -0.409665 0 
-0.857204 -0.410967 0 
-0.803392 -0.409217 0 
-0.74994 -0.407407 0 
-0.696663 -0.406178 0 
-0.642836 -0.402615 0 
-0.594083 -0.40314 0 
-0.543712 -0.409305 0 
-0.498184 -0.388941 0 
-0.452699 -0.414143 0 
-0.401283 -0.388854 0 
-0.349739 -0.411899 0 
-0.299455 -0.388886 0 
-0.248771 -0.414704 0 
-0.199804 -0.40237 0 
-0.150194 -0.385975 0 
-0.0998826 -0.412316 0 
-0.0496331 -0.389139 0 
0.000643541 -0.415495 0 
0.0502079 -0.40057 0 
0.099715 -0.387048 0 
0.149647 -0.41299 0 
0.200027 -0.388895 0 
0.250027 -0.412129 0 
0.301055 -0.385878 0 
0.350404 -0.401986 0 
0.40041 -0.412751 0 
0.450882 -0.391618 0 
0.499731 -0.416383 0 
0.544034 -0.393568 0 
0.59137 -0.399783 0 
0.642288 -0.404278 0 
0.695365 -0.407079 0 
0.749328 -0.408637 0 
0.803118 -0.410657 0 
0.857365 -0.412146 0 
0.912211 -0.40972 0 
-0.934162 -0.35685 0 
-0.879422 -0.35942 0 
-0.826293 -0.357958 0 
-0.773333 -0.356351 0 
-0.720158 -0.355668 0 
-0.665775 -0.356607 0 
-0.607138 -0.350008 0 
-0.553621 -0.361137 0 
-0.5022 -0.339404 0 
-0.449669 -0.361737 0 
-0.400008 -0.33791 0 
-0.350294 -0.361968 0 
-0.299735 -0.338845 0 
-0.249149 -0.364486 0 
-0.19989 -0.351123 0 
-0.150231 -0.335907 0 
-0.0999158 -0.361809 0 
-0.0496591 -0.338853 0 
0.000579022 -0.364807 0 
0.0501213 -0.350175 0 
0.0996736 -0.336536 0 
0.149689 -0.362171 0 
0.200173 -0.338592 0 
0.250216 -0.361805 0 
0.300977 -0.33584 0 
0.350317 -0.350432 0 
0.400031 -0.363711 0 
0.449445 -0.340113 0 
0.500426 -0.362497 0 
0.556035 -0.344079 0 
0.610296 -0.352686 0 
0.6665 -0.355417 0 
0.719677 -0.357923 0 
0.773735 -0.358184 0 
0.826983 -0.360351 0 
0.879942 -0.360326 0 
0.934344 -0.356372 0 
-0.952661 -0.304036 0 
-0.898427 -0.307629 0 
-0.846493 -0.305546 0 
-0.794931 -0.304029 0 
-0.743864 -0.303138 0 
-0.693611 -0.30459 0 
-0.643467 -0.30958 0 
-0.599353 -0.290969 0 
-0.55443 -0.313997 0 
-0.503336 -0.288984 0 
-0.45199 -0.311834 0 
-0.401101 -0.288191 0 
-0.349902 -0.311422 0 
-0.299643 -0.288622 0 
-0.249349 -0.314247 0 
-0.199915 -0.300435 0 
-0.150269 -0.285978 0 
-0.0999683 -0.311532 0 
-0.0497289 -0.288717 0 
0.000527779 -0.314369 0 
0.0500741 -0.299964 0 
0.0996409 -0.286337 0 
0.149787 -0.311716 0 
0.200238 -0.28842 0 
0.250326 -0.311555 0 
0.301235 -0.286006 0 
0.350591 -0.299681 0 
0.400449 -0.31341 0 
0.451856 -0.289027 0 
0.501314 -0.314699 0 
0.544921 -0.289691 0 
0.590901 -0.297941 0 
0.640135 -0.307218 0 
0.69435 -0.304347 0 
0.742809 -0.307966 0 
0.7979 -0.307375 0 
0.847482 -0.307936 0 
0.899876 -0.308548 0 
0.953167 -0.302446 0 
-0.967863 -0.251479 0 
-0.914487 -0.256648 0 
-0.863556 -0.253418 0 
-0.811732 -0.251971 0 
-0.759393 -0.251316 0 
-0.706493 -0.252194 0 
-0.653718 -0.258815 0 
-0.607533 -0.238533 0 
-0.553063 -0.261024 0 
-0.502377 -0.238056 0 
-0.452064 -0.261845 0 
-0.401205 -0.238175 0 
-0.350516 -0.261491 0 
-0.299965 -0.238667 0 
-0.249417 -0.263974 0 
-0.199916 -0.250071 0 
-0.150304 -0.236053 0 
-0.100036 -0.261399 0 
-0.0497663 -0.238671 0 
0.000445464 -0.264099 0 
0.0500404 -0.249853 0 
0.0996125 -0.23625 0 
0.149834 -0.261487 0 
0.200323 -0.238399 0 
0.25055 -0.261503 0 
0.301452 -0.23621 0 
0.351157 -0.249436 0 
0.401482 -0.263625 0 
0.451962 -0.237781 0 
0.501557 -0.260261 0 
[...]
POINT_DATA 1245 
VECTORS vectors float
0.822048 -0.270124 0.501268 
0.833403 -0.225335 0.504643 
0.842215 -0.17735 0.509138 
0.849067 -0.134113 0.510978 
0.854934 -0.0885175 0.511129 
0.854925 -0.044487 0.51684 
0.858714 -0.00161879 0.512452 
0.856709 0.0419569 0.514091 
0.853502 0.0840931 0.514259 
0.849491 0.12879 0.511643 
0.842472 0.174249 0.509782 
0.833252 0.217417 0.508351 
0.820502 0.264579 0.506729 
0.790074 -0.357416 0.498032 
0.807703 -0.313907 0.499077 
0.686873 -0.240387 0.685871 
0.699047 -0.203954 0.685373 
0.723362 -0.167854 0.669756 
0.684156 -0.119722 0.719442 
0.726519 -0.0832326 0.682087 
0.680284 -0.0406942 0.731818 
0.729097 0.00186912 0.684407 
0.674514 0.0378947 0.737289 
0.7107 0.080779 0.698842 
0.717646 0.12302 0.685457 
0.683453 0.157125 0.712884 
0.714603 0.202754 0.669502 
0.689561 0.242331 0.682482 
0.804354 0.310651 0.506469 
0.785801 0.356118 0.505665 
0.744312 -0.443515 0.499294 
0.768965 -0.400647 0.498172 
0.661066 -0.317635 0.679779 
0.675599 -0.28047 0.681838 
0.554137 -0.20544 0.806676 
0.563863 -0.17172 0.807819 
0.590064 -0.13874 0.795346 
0.526803 -0.0966086 0.84448 
0.582542 -0.0684507 0.809913 
0.515446 -0.0310375 0.85636 
0.579523 -0.000901861 0.814956 
0.505599 0.0296727 0.862258 
0.561089 0.0647428 0.82522 
0.581412 0.101097 0.807304 
0.532198 0.128621 0.836792 
0.589197 0.174393 0.788945 
0.557678 0.202827 0.804895 
0.673512 0.27735 0.68517 
0.654393 0.318147 0.685968 
0.764361 0.400932 0.50498 
0.739303 0.445678 0.50478 
0.715661 -0.486587 0.501061 
0.620969 -0.394851 0.677119 
0.642933 -0.356742 0.67777 
0.530024 -0.271655 0.803292 
0.543115 -0.237218 0.805453 
0.43349 -0.16902 0.885166 
0.442275 -0.141058 0.885718 
0.466345 -0.117802 0.876724 
0.395904 -0.0749566 0.915227 
0.445862 -0.0563227 0.893328 
0.382956 -0.0243143 0.923447 
0.437709 -0.000691591 0.899116 
0.374794 0.0235237 0.926809 
0.423632 0.0515965 0.904363 
0.455331 0.0832631 0.88642 
0.405264 0.101037 0.908599 
0.466994 0.146064 0.872113 
0.439083 0.170035 0.88221 
0.537962 0.237616 0.808787 
0.526585 0.268566 0.806585 
0.635821 0.356547 0.684548 
0.617093 0.394964 0.680588 
0.711195 0.48937 0.504697 
0.649325 -0.569072 0.504514 
0.683703 -0.528733 0.502982 
0.595634 -0.430897 0.677899 
0.49932 -0.337857 0.797829 
0.516814 -0.30349 0.800498 
0.416648 -0.225011 0.88078 
0.426473 -0.19847 0.882457 
0.33518 -0.138913 0.931857 
0.340614 -0.116148 0.933002 
0.355166 -0.0950525 0.929958 
0.297 -0.0626194 0.952822 
0.331954 -0.0454641 0.942199 
0.28187 -0.0206136 0.959231 
0.323489 -0.0018006 0.94623 
0.27415 0.0181 0.961517 
0.310219 0.038473 0.949886 
0.347473 0.0685201 0.935183 
0.307234 0.0821507 0.948081 
0.358776 0.118808 0.925832 
0.337327 0.137382 0.931309 
0.421748 0.195284 0.885434 
0.40803 0.22408 0.885042 
0.50777 0.303537 0.806247 
0.495109 0.339206 0.799879 
0.589578 0.433651 0.681429 
0.67999 0.531754 0.504828 
0.646755 0.571795 0.504736 
0.611077 -0.609272 0.505344 
0.545326 -0.508651 0.666253 
0.564825 -0.465941 0.681081 
0.475089 -0.369282 0.7987 
0.390483 -0.283202 0.875968 
0.40338 -0.25499 0.878786 
0.320069 -0.186507 0.928855 
0.327168 -0.161512 0.931061 
0.25526 -0.112549 0.960299 
0.257827 -0.0940755 0.9616 
0.267331 -0.0749567 0.960685 
0.216831 -0.0490032 0.974979 
0.245261 -0.0350372 0.968824 
0.205879 -0.0167742 0.978434 
0.238168 -0.000781038 0.971224 
0.202496 0.013594 0.979189 
0.223746 0.0314017 0.974141 
0.259142 0.0509565 0.964494 
0.22588 0.0648592 0.971993 
0.274647 0.0945964 0.956881 
0.255814 0.11236 0.960174 
0.323486 0.159945 0.932617 
0.315333 0.183162 0.931137 
0.397255 0.251273 0.882638 
0.3874 0.283649 0.877191 
0.468473 0.36845 0.80298 
0.558327 0.46457 0.687347 
0.540922 0.508955 0.669603 
0.609672 0.611466 0.50439 
0.570271 -0.647543 0.50545 
0.509417 -0.544557 0.666297 
0.445025 -0.443643 0.777903 
0.44657 -0.396478 0.80211 
0.370625 -0.312875 0.874498 
0.305985 -0.240711 0.921103 
0.314072 -0.211877 0.925455 
0.244398 -0.152058 0.957678 
0.251936 -0.133598 0.958478 
0.193908 -0.0923069 0.976667 
0.194236 -0.0748426 0.978096 
0.198131 -0.0616451 0.978235 
0.160437 -0.0387583 0.986285 
0.179633 -0.0289812 0.983307 
0.150131 -0.0135554 0.988573 
0.173442 -0.00168158 0.984843 
0.149713 0.00945237 0.988684 
0.160613 0.0236595 0.986734 
0.190835 0.0422273 0.980713 
0.170186 0.0503339 0.984126 
0.206584 0.0790438 0.975231 
0.194707 0.0907323 0.976656 
0.24438 0.129463 0.960998 
0.240096 0.150967 0.958938 
0.300978 0.205705 0.931181 
0.301621 0.234053 0.924253 
0.362632 0.304422 0.880809 
0.430574 0.390176 0.81386 
0.445999 0.446111 0.775932 
0.511048 0.548503 0.661796 
0.569569 0.649994 0.503089 
0.529328 -0.681832 0.504893 
0.467432 -0.563366 0.681268 
0.397858 -0.445273 0.802148 
0.351736 -0.351556 0.867577 
0.297118 -0.273733 0.914763 
0.240435 -0.204765 0.948821 
0.240191 -0.175453 0.954738 
0.187934 -0.127539 0.973866 
0.188053 -0.10728 0.976282 
0.147146 -0.0760799 0.986184 
0.146791 -0.0610944 0.987279 
0.143714 -0.0477749 0.988465 
0.115637 -0.0311691 0.992802 
0.13016 -0.0224953 0.991238 
0.108156 -0.0102492 0.994081 
0.127242 -0.00117315 0.991871 
0.112403 0.00952781 0.993617 
0.114357 0.0178419 0.99328 
0.138026 0.0318268 0.989917 
0.124491 0.0436118 0.991262 
0.15287 0.0599753 0.986425 
0.144292 0.07367 0.986789 
0.184474 0.107261 0.976967 
0.184493 0.125893 0.974738 
0.22785 0.170939 0.958574 
0.26023 0.226015 0.938721 
0.304071 0.290049 0.907421 
0.353589 0.361386 0.862772 
0.401098 0.45671 0.794063 
0.468811 0.568579 0.675969 
0.529673 0.684005 0.501582 
0.486739 -0.713606 0.503836 
0.430459 -0.593708 0.679865 
0.367968 -0.472191 0.801021 
0.313576 -0.370268 0.874398 
0.273427 -0.294711 0.915633 
0.226346 -0.225835 0.947505 
0.184679 -0.16895 0.968168 
0.184043 -0.146838 0.971888 
0.13929 -0.101477 0.985038 
0.142995 -0.0890147 0.985712 
0.109409 -0.0598727 0.992192 
0.111634 -0.0514092 0.992419 
0.104735 -0.038351 0.99376 
0.0844871 -0.024422 0.996125 
0.0953786 -0.0183443 0.995272 
0.0788237 -0.00815914 0.996855 
0.0926098 -0.00164283 0.995701 
0.0836593 0.00695792 0.99647 
0.0814561 0.0142203 0.996575 
0.1007 0.0259664 0.994578 
0.0911852 0.0310245 0.995351 
0.115181 0.0510827 0.99203 
0.107657 0.0607666 0.992329 
0.137239 0.0825265 0.987094 
0.140505 0.101131 0.984901 
0.164153 0.133048 0.977421 
0.201392 0.176595 0.96346 
0.222805 0.221608 0.949341 
0.265171 0.290919 0.919266 
0.313587 0.37062 0.874245 
0.36956 0.474251 0.799069 
0.43131 0.595912 0.677393 
0.488377 0.714871 0.500447 
0.44274 -0.742468 0.502715 
0.393791 -0.618985 0.679549 
0.337348 -0.495721 0.800286 
0.281975 -0.387982 0.877474 
0.239905 -0.303055 0.922282 
0.205629 -0.239307 0.94892 
0.167367 -0.182101 0.968931 
0.139469 -0.140009 0.980279 
0.140264 -0.119964 0.98282 
0.1054 -0.0864618 0.990664 
0.105685 -0.0725938 0.991746 
0.0817232 -0.0510282 0.995348 
0.0835033 -0.0412948 0.995652 
0.074737 -0.0296514 0.996762 
0.0608582 -0.0196949 0.997952 
0.0685355 -0.014286 0.997546 
0.0574061 -0.00672741 0.998328 
0.0655576 -0.000403311 0.997849 
0.0617324 0.00473044 0.998082 
0.0576203 0.0123187 0.998263 
0.0729333 0.0205202 0.997126 
0.0666113 0.0285283 0.997371 
0.083289 0.0396912 0.995735 
0.0796422 0.0473853 0.995697 
0.100378 0.07075 0.992431 
0.115064 0.093627 0.988936 
0.126335 0.114792 0.985323 
0.162182 0.157785 0.974064 
0.168047 0.185622 0.968145 
0.199934 0.236624 0.950808 
0.239383 0.30279 0.922504 
0.281915 0.389955 0.876618 
0.338802 0.496266 0.799333 
0.39579 0.619968 0.677488 
0.445425 0.742829 0.499802 
0.398726 -0.767762 0.501557 
0.354446 -0.640915 0.680879 
0.301655 -0.513013 0.803631 
0.253094 -0.402095 0.879922 
0.209292 -0.306276 0.928651 
0.172999 -0.238168 0.955692 
0.147146 -0.180397 0.972525 
0.114932 -0.129578 0.984886 
0.103679 -0.101245 0.989444 
0.0799424 -0.0722457 0.994178 
0.0792985 -0.0589188 0.995108 
0.0598728 -0.0409321 0.997366 
0.0635713 -0.0332128 0.997424 
0.0533901 -0.0240609 0.998284 
0.0441919 -0.0159211 0.998896 
0.0492765 -0.0106942 0.998728 
0.0401991 -0.00604763 0.999173 
0.0487337 -0.000169591 0.998812 
0.0434226 0.00360204 0.99905 
0.0419422 0.00844038 0.999084 
0.0526039 0.0149856 0.998503 
0.0484879 0.0203168 0.998617 
0.0622002 0.0330482 0.997516 
0.059074 0.0420871 0.997366 
0.0746878 0.0561739 0.995624 
0.088605 0.0756503 0.99319 
0.0943355 0.0963538 0.990867 
0.124778 0.135474 0.982892 
0.136288 0.170316 0.975919 
0.170829 0.230718 0.957908 
0.208236 0.304919 0.929334 
0.254566 0.398669 0.881056 
0.302937 0.51349 0.802843 
0.358564 0.639833 0.679739 
0.402069 0.766964 0.500107 
0.354265 -0.789824 0.500674 
0.314459 -0.659038 0.683216 
0.269626 -0.529003 0.804647 
0.223035 -0.412911 0.88304 
0.185851 -0.3193 0.929251 
0.148511 -0.240508 0.959219 
0.128486 -0.186181 0.974078 
0.107817 -0.14477 0.983574 
0.0825936 -0.107067 0.990815 
0.0826332 -0.089099 0.992589 
0.0594434 -0.0620058 0.996304 
0.0583673 -0.0496072 0.997062 
0.0454276 -0.0349669 0.998355 
0.0457756 -0.0281991 0.998554 
0.0377393 -0.0195843 0.999096 
0.0323124 -0.0122614 0.999403 
0.0354031 -0.00934192 0.999329 
0.029022 -0.00381828 0.999571 
0.0342817 -0.000491111 0.999412 
0.0302957 0.0040164 0.999533 
0.0308619 0.00590634 0.999506 
0.0369701 0.0144439 0.999212 
0.0350381 0.0170503 0.999241 
0.0451634 0.0265902 0.998626 
0.0434676 0.0314905 0.998558 
0.0548836 0.0481436 0.997331 
0.0685853 0.0668581 0.995402 
0.072191 0.0829691 0.993934 
0.0963138 0.115729 0.9886 
0.100444 0.140016 0.985041 
0.123377 0.182162 0.975497 
0.151683 0.241545 0.958461 
0.185307 0.317139 0.930099 
0.227121 0.413569 0.88169 
0.272092 0.527948 0.804511 
0.31925 0.660119 0.679942 
0.357746 0.787945 0.501158 
0.309617 -0.808416 0.5006 
0.276573 -0.67497 0.684049 
0.234471 -0.541604 0.807272 
0.194973 -0.42394 0.884455 
0.160439 -0.325393 0.931869 
0.131797 -0.245678 0.96035 
0.101286 -0.177035 0.978979 
0.0873673 -0.136499 0.98678 
0.0663338 -0.0956793 0.9932 
0.0617056 -0.0766312 0.995148 
0.0446837 -0.0525259 0.997619 
0.0450682 -0.0435414 0.998035 
0.0313956 -0.0281188 0.999111 
0.0341443 -0.0227941 0.999157 
0.0282397 -0.0157602 0.999477 
0.0216914 -0.0108143 0.999706 
0.0250532 -0.00771333 0.999656 
0.0208749 -0.0026516 0.999779 
0.0245963 -0.00234745 0.999695 
0.0228078 0.00288798 0.999736 
0.0197669 0.00599469 0.999787 
0.0265302 0.00946854 0.999603 
0.0257965 0.0145454 0.999561 
0.0324157 0.0223992 0.999223 
0.0324421 0.0291146 0.999049 
0.0405998 0.0402792 0.998363 
0.0518702 0.0554525 0.997113 
0.0527574 0.0705533 0.996112 
0.074317 0.0999716 0.992211 
0.0815757 0.131984 0.987889 
0.104897 0.180509 0.977964 
0.132909 0.245925 0.960133 
0.162847 0.324904 0.931621 
0.198 0.425076 0.883236 
0.240146 0.543305 0.804456 
0.280032 0.674569 0.683036 
0.312317 0.806084 0.502679 
0.265436 -0.823824 0.500857 
0.238017 -0.687887 0.685682 
0.200111 -0.553938 0.808151 
0.168215 -0.434549 0.8848 
0.13633 -0.335705 0.93205 
0.114501 -0.259756 0.958862 
0.0964122 -0.199862 0.975069 
0.0723536 -0.150757 0.985919 
0.070279 -0.121109 0.990148 
0.0483952 -0.0872172 0.995013 
0.044805 -0.0663838 0.996788 
0.0346305 -0.0471478 0.998287 
0.0317176 -0.035666 0.99886 
0.0252058 -0.025448 0.999358 
0.0243153 -0.0203641 0.999497 
0.0192808 -0.0134654 0.999723 
0.0168467 -0.00810965 0.999825 
0.0175717 -0.00679181 0.999823 
0.0145836 -0.00448965 0.999884 
0.0155852 0.00043416 0.999878 
0.0162446 0.000734535 0.999868 
0.0145796 0.00415646 0.999885 
0.0198461 0.00833243 0.999768 
0.0165227 0.0110996 0.999802 
0.0242824 0.0178782 0.999545 
0.022958 0.023299 0.999465 
0.0300697 0.0340841 0.998967 
0.0388124 0.0498569 0.998002 
0.0420034 0.0626002 0.997154 
0.0556316 0.0910641 0.99429 
0.0585185 0.108312 0.992393 
0.0746958 0.145422 0.986546 
0.0925782 0.194867 0.976451 
0.114691 0.259728 0.958847 
0.1411 0.335023 0.931585 
0.172613 0.440912 0.880796 
0.205002 0.555586 0.80579 
0.241177 0.689487 0.682966 
0.26591 0.821125 0.505021 
0.221753 -0.836042 0.501856 
0.199641 -0.700236 0.685429 
0.168464 -0.564532 0.808037 
0.138619 -0.441207 0.886635 
0.113214 -0.33888 0.933993 
0.0917201 -0.25574 0.962385 
0.0769596 -0.192704 0.978234 
0.0569008 -0.144422 0.987879 
0.0516792 -0.10943 0.99265 
0.0369851 -0.0764111 0.99639 
0.0361001 -0.0599452 0.997549 
0.0231364 -0.0412374 0.998881 
0.0237833 -0.0321737 0.999199 
0.016729 -0.0216461 0.999626 
0.017102 -0.0153493 0.999736 
0.0138093 -0.0113731 0.99984 
0.0109925 -0.00858546 0.999903 
0.0126969 -0.00388504 0.999912 
0.0093852 -0.00221247 0.999954 
0.0129264 -0.000457142 0.999916 
0.0105224 0.00159283 0.999943 
0.0102498 0.00363162 0.999941 
0.0137586 0.00702784 0.999881 
0.0137743 0.0100917 0.999854 
0.0170569 0.0154712 0.999735 
0.0168642 0.0211138 0.999635 
0.0220879 0.0298668 0.99931 
0.0280787 0.0425115 0.998701 
0.0288297 0.0565874 0.997981 
0.0422386 0.0791614 0.995967 
0.0464104 0.108739 0.992986 
0.0618535 0.149129 0.986881 
0.082288 0.200384 0.976256 
0.0928801 0.264257 0.95997 
0.122924 0.349459 0.928853 
0.141037 0.446499 0.883599 
0.172383 0.566301 0.80597 
0.199814 0.699626 0.686001 
0.218929 0.833396 0.507465 
0.175268 -0.845288 0.504747 
0.164068 -0.725833 0.668018 
0.138993 -0.592128 0.793767 
0.112467 -0.464262 0.878528 
0.0931526 -0.354147 0.930539 
0.0747238 -0.262991 0.9619 
0.0600082 -0.191888 0.979581 
0.0428667 -0.133796 0.990081 
0.0388837 -0.101268 0.994099 
0.0267172 -0.071872 0.997056 
0.0249628 -0.0541441 0.998221 
0.019094 -0.0372339 0.999124 
0.0172353 -0.0273821 0.999476 
0.0122486 -0.0189666 0.999745 
0.0126314 -0.01516 0.999805 
0.0104935 -0.00961169 0.999899 
0.00729347 -0.00515371 0.99996 
0.00822733 -0.0054636 0.999951 
0.00790767 -0.0019316 0.999967 
0.00738281 -0.00136846 0.999972 
0.00671804 0.00143346 0.999976 
0.0085531 0.00242642 0.99996 
0.00812363 0.0048588 0.999955 
0.00878959 0.00817777 0.999928 
0.0119153 0.0133654 0.99984 
0.0119793 0.0172364 0.99978 
0.0153558 0.027135 0.999514 
0.0220416 0.0390764 0.998993 
0.0221138 0.0511187 0.998448 
0.0318307 0.0753482 0.996649 
0.0349877 0.0977421 0.994597 
0.0444662 0.135715 0.98975 
0.0612384 0.18941 0.979987 
0.0684214 0.244593 0.967209 
0.0949078 0.334245 0.937696 
0.105463 0.43431 0.894568 
0.136923 0.564464 0.814023 
0.158763 0.702813 0.693432 
0.171913 0.843338 0.509143 
0.133322 -0.851955 0.506357 
0.118318 -0.687002 0.716958 
0.0938661 -0.527208 0.844536 
0.0765402 -0.396899 0.914666 
0.0587179 -0.294992 0.953694 
0.0495638 -0.219985 0.974243 
0.0414777 -0.166451 0.985177 
0.0276996 -0.124251 0.991864 
0.0281743 -0.095463 0.995034 
0.0193834 -0.0666918 0.997585 
0.0174213 -0.0493549 0.998629 
0.0113874 -0.0343935 0.999343 
0.0114665 -0.0265523 0.999582 
0.00860433 -0.017003 0.999818 
0.00786852 -0.0127038 0.999888 
0.00580514 -0.00873182 0.999945 
0.00565813 -0.0068232 0.999961 
0.00630026 -0.00394406 0.999972 
0.00264059 -0.00251237 0.999993 
0.00650025 -0.000571022 0.999979 
0.00530118 0.000394232 0.999986 
0.00284689 0.00276979 0.999992 
0.00654222 0.00585497 0.999961 
0.00548238 0.00679137 0.999962 
0.00814222 0.0120519 0.999894 
0.00839116 0.0171894 0.999817 
0.0104497 0.0240645 0.999656 
0.0139481 0.0342224 0.999317 
0.0160045 0.0485542 0.998692 
0.0214994 0.0687467 0.997402 
0.0207242 0.0923353 0.995512 
0.0337972 0.127459 0.991268 
0.045352 0.177187 0.983132 
0.0472523 0.234334 0.971007 
0.0704875 0.318291 0.945369 
0.0738755 0.409903 0.909132 
0.0970862 0.535458 0.838963 
0.115785 0.691928 0.712622 
0.12828 0.850787 0.509614 
0.0875445 -0.856508 0.508655 
0.0840445 -0.728593 0.679771 
0.0700376 -0.584635 0.808268 
0.0535427 -0.443041 0.894901 
0.0437329 -0.3285 0.943491 
0.0358944 -0.239511 0.97023 
0.0282162 -0.171323 0.984811 
0.0187701 -0.120819 0.992497 
0.0184793 -0.0884853 0.995906 
0.0102565 -0.0630075 0.99796 
0.0124943 -0.0470788 0.998813 
0.00717441 -0.0323722 0.99945 
0.00847486 -0.0226375 0.999708 
0.00383364 -0.0166567 0.999854 
0.00643689 -0.0115193 0.999913 
0.00463931 -0.00754352 0.999961 
0.00266478 -0.00512111 0.999983 
0.00405919 -0.00244742 0.999989 
0.00459589 -0.00252571 0.999986 
0.00286282 8.75105e-05 0.999996 
0.00349494 0.000541075 0.999994 
0.0037353 0.00195098 0.999991 
0.00511539 0.00325085 0.999982 
0.00381727 0.00781377 0.999962 
0.00531741 0.0100631 0.999935 
0.00351842 0.0150058 0.999881 
0.00792689 0.0221709 0.999723 
0.009579 0.0339776 0.999377 
0.00724084 0.0438287 0.999013 
0.0160114 0.0644649 0.997792 
0.0145578 0.0874395 0.996063 
0.0202113 0.123245 0.99217 
0.0291263 0.168074 0.985344 
0.0293084 0.228075 0.973202 
0.0463611 0.311214 0.949208 
0.0479842 0.422614 0.905038 
0.0674043 0.566746 0.82113 
0.0792606 0.718841 0.690642 
0.0826439 0.8561 0.51016 
0.0457139 -0.859469 0.50914 
0.0410622 -0.68267 0.729572 
0.0322986 -0.516315 0.85579 
0.0266482 -0.382464 0.923586 
0.0193454 -0.279398 0.959981 
0.0166195 -0.206254 0.978357 
0.0137488 -0.155196 0.987788 
0.00815692 -0.116508 0.993156 
0.0102852 -0.0868157 0.996171 
0.00590779 -0.061761 0.998073 
0.00680882 -0.043991 0.999009 
0.00357363 -0.0312679 0.999505 
0.00417653 -0.0233583 0.999718 
0.00349269 -0.0146018 0.999887 
0.00268701 -0.0113148 0.999932 
0.0015738 -0.00784601 0.999968 
0.00229094 -0.00417119 0.999989 
0.00106244 -0.00438538 0.99999 
0.000211622 -0.000235273 1 
0.00233003 -0.00136709 0.999996 
0.000805417 0.00119728 0.999999 
0.00155562 0.00199958 0.999997 
0.000555245 0.00467118 0.999989 
0.00110507 0.00515708 0.999986 
0.00366975 0.0103475 0.99994 
0.00300118 0.0153549 0.999878 
0.00219701 0.0211987 0.999773 
0.00586756 0.030428 0.99952 
0.00538196 0.0447223 0.998985 
0.00729435 0.0630646 0.997983 
0.00593581 0.085931 0.996283 
0.00920691 0.119355 0.992809 
0.0182239 0.165363 0.986064 
0.0124075 0.224099 0.974487 
0.0269522 0.305188 0.951911 
0.0205066 0.399064 0.916694 
0.0302839 0.521502 0.852712 
0.0380369 0.682401 0.729987 
0.0406566 0.859894 0.508852 
0.00428232 -0.861358 0.507981 
0.00423836 -0.733341 0.679848 
0.00346442 -0.581546 0.813506 
0.00146345 -0.438274 0.89884 
0.00149628 -0.321327 0.946967 
0.00153608 -0.232156 0.972677 
0.00248422 -0.165416 0.986221 
-0.00224813 -0.117997 0.993011 
0.000837793 -0.0844734 0.996425 
-0.000392395 -0.0612179 0.998124 
-5.8168e-05 -0.0444311 0.999012 
0.000422346 -0.0314941 0.999504 
0.000562012 -0.0207823 0.999784 
-0.00048202 -0.0167691 0.999859 
0.00126433 -0.00985009 0.999951 
0.000739835 -0.00756771 0.999971 
-0.00043795 -0.00533682 0.999986 
0.00206436 -0.00335739 0.999992 
0.000988822 -0.00260753 0.999996 
0.000919778 -0.00101492 0.999999 
0.00112011 0.000607892 0.999999 
-0.000640926 0.00200242 0.999998 
0.00239977 0.00337894 0.999991 
0.000958052 0.00758002 0.999971 
-0.000328017 0.00925787 0.999957 
0.000101106 0.0136763 0.999906 
0.000128794 0.0217738 0.999763 
0.000805166 0.0312431 0.999511 
-0.00128258 0.0425399 0.999094 
0.000383119 0.0604789 0.998169 
-0.00244325 0.086903 0.996214 
-7.99855e-05 0.117432 0.993081 
0.00363882 0.16341 0.986552 
-0.00361704 0.222133 0.97501 
0.00527242 0.303676 0.952761 
-0.00325218 0.416718 0.90903 
0.000529808 0.568056 0.82299 
-0.00169352 0.726368 0.687303 
0.000547055 0.862787 0.505567 
-0.0373474 -0.858514 0.511429 
-0.0354992 -0.679966 0.732384 
-0.0274309 -0.517539 0.85522 
-0.0206904 -0.381851 0.923992 
-0.0186552 -0.280639 0.959632 
-0.0127343 -0.205852 0.9785 
-0.0108681 -0.155409 0.98779 
-0.0126169 -0.119148 0.992796 
-0.00465025 -0.086125 0.996273 
-0.00887657 -0.0627366 0.997991 
-0.00228007 -0.0433898 0.999056 
-0.00596872 -0.0310559 0.9995 
-0.0022246 -0.0226688 0.999741 
-0.00235478 -0.0138525 0.999901 
-0.00192701 -0.010882 0.999939 
-0.000924807 -0.00662054 0.999978 
-0.00122191 -0.00542197 0.999985 
-0.00248644 -0.00187332 0.999995 
-0.000608306 -0.00252387 0.999997 
-0.00155237 0.000822249 0.999998 
-0.000486319 0.000134692 1 
-0.00127594 0.00274355 0.999995 
-0.00269922 0.00438377 0.999987 
-0.00253135 0.00528549 0.999983 
-0.00178327 0.0108698 0.999939 
-0.00444043 0.0153479 0.999872 
-0.00249586 0.0216249 0.999763 
-0.00270521 0.0296508 0.999557 
-0.00700159 0.0459244 0.99892 
-0.0031297 0.0617994 0.998084 
-0.0117765 0.0860481 0.996221 