# vtk DataFile Version 3.0 
Exported using Morpho https://github.com/Morpho-lang/morpho 
ASCII 
DATASET UNSTRUCTURED_GRID 

POINTS 1245 float 
-0.304038 -0.95266 0 
-0.251441 -0.967873 0 
-0.196599 -0.980484 0 
-0.147939 -0.988996 0 
-0.096254 -0.995357 0 
-0.0483601 -0.99883 0 
-0.000451504 -1 0 
0.0482414 -0.998836 0 
0.0956209 -0.995418 0 
0.145924 -0.989296 0 
0.198694 -0.980062 0 
0.248343 -0.968672 0 
0.30399 -0.952675 0 
-0.409672 -0.912233 0 
-0.356859 -0.934158 0 
-0.307625 -0.898571 0 
-0.256611 -0.914841 0 
-0.205389 -0.933372 0 
-0.153069 -0.927934 0 
-0.102396 -0.94791 0 
-0.0498583 -0.935106 0 
0.00142854 -0.953377 0 
0.052561 -0.9331 0 
0.104134 -0.942389 0 
0.156872 -0.938823 0 
0.206982 -0.919507 0 
0.258749 -0.920951 0 
0.310446 -0.900065 0 
0.357716 -0.93383 0 
0.410714 -0.911764 0 
-0.51437 -0.857568 0 
-0.462407 -0.886668 0 
-0.411015 -0.857376 0 
-0.359501 -0.879663 0 
-0.305707 -0.84665 0 
-0.253622 -0.86425 0 
-0.200473 -0.885626 0 
-0.148805 -0.868805 0 
-0.0992128 -0.89633 0 
-0.0484472 -0.873916 0 
0.00154915 -0.899374 0 
0.0506565 -0.870008 0 
0.099584 -0.888189 0 
0.15259 -0.889657 0 
0.203706 -0.862941 0 
0.255384 -0.874358 0 
0.307954 -0.849391 0 
0.361689 -0.879386 0 
0.412615 -0.856642 0 
0.46325 -0.886228 0 
0.514942 -0.857225 0 
-0.565364 -0.824841 0 
-0.512807 -0.802464 0 
-0.462454 -0.831649 0 
-0.409305 -0.803744 0 
-0.35814 -0.826779 0 
-0.304287 -0.794815 0 
-0.252533 -0.812725 0 
-0.199644 -0.834469 0 
-0.148659 -0.811689 0 
-0.0980329 -0.840437 0 
-0.0486484 -0.814709 0 
0.00110327 -0.841666 0 
0.0507222 -0.810511 0 
0.10012 -0.830521 0 
0.151601 -0.838979 0 
0.201398 -0.807576 0 
0.253879 -0.824556 0 
0.305585 -0.798078 0 
0.359663 -0.826545 0 
0.410331 -0.802786 0 
0.463256 -0.830671 0 
0.513382 -0.802055 0 
0.565855 -0.824505 0 
-0.661127 -0.750274 0 
-0.614521 -0.7889 0 
-0.561833 -0.769262 0 
-0.50964 -0.747742 0 
-0.460175 -0.777438 0 
-0.407225 -0.750461 0 
-0.356449 -0.774194 0 
-0.303021 -0.743169 0 
-0.251726 -0.760737 0 
-0.199698 -0.781574 0 
-0.149469 -0.755674 0 
-0.0987361 -0.784111 0 
-0.0495663 -0.757521 0 
0.00074427 -0.784506 0 
0.0499021 -0.753017 0 
0.0986422 -0.771593 0 
0.148465 -0.786798 0 
0.198905 -0.753762 0 
0.25178 -0.773224 0 
0.303018 -0.746409 0 
0.356897 -0.773838 0 
0.407278 -0.749476 0 
0.460508 -0.775969 0 
0.509912 -0.747635 0 
0.562265 -0.768427 0 
0.614899 -0.788606 0 
0.660916 -0.75046 0 
-0.707137 -0.707076 0 
-0.654232 -0.698242 0 
-0.60786 -0.732501 0 
-0.557385 -0.712939 0 
-0.507468 -0.693124 0 
-0.457791 -0.723521 0 
-0.40534 -0.697562 0 
-0.354815 -0.72183 0 
-0.302133 -0.691777 0 
-0.251077 -0.708675 0 
-0.199931 -0.727612 0 
-0.150301 -0.700335 0 
-0.0999236 -0.728385 0 
-0.051087 -0.701823 0 
-0.000421628 -0.728505 0 
0.0495464 -0.698598 0 
0.0984035 -0.713168 0 
0.147599 -0.732599 0 
0.197896 -0.700126 0 
0.250029 -0.721435 0 
0.301757 -0.694342 0 
0.353927 -0.721143 0 
0.403704 -0.696683 0 
0.456847 -0.721566 0 
0.505628 -0.694419 0 
0.557407 -0.711375 0 
0.607266 -0.730582 0 
0.652491 -0.698197 0 
0.706565 -0.707648 0 
-0.750394 -0.660991 0 
-0.698464 -0.654201 0 
-0.647093 -0.646808 0 
-0.60217 -0.67432 0 
-0.556909 -0.655804 0 
-0.506644 -0.64072 0 
-0.455848 -0.670392 0 
-0.404184 -0.645105 0 
-0.353627 -0.669626 0 
-0.301541 -0.640968 0 
-0.250517 -0.65732 0 
-0.200181 -0.673083 0 
-0.151003 -0.645606 0 
-0.100944 -0.673231 0 
-0.0519388 -0.647066 0 
-0.00212132 -0.674276 0 
0.047866 -0.647977 0 
0.0973944 -0.654915 0 
0.14682 -0.677634 0 
0.197663 -0.647208 0 
0.249531 -0.669554 0 
0.301392 -0.642514 0 
0.353151 -0.66764 0 
0.404352 -0.642769 0 
0.451679 -0.667224 0 
0.497353 -0.643748 0 
0.550472 -0.654874 0 
0.599514 -0.669274 0 
0.647435 -0.648156 0 
0.698584 -0.655155 0 
0.750179 -0.661235 0 
-0.789039 -0.614343 0 
-0.732835 -0.607626 0 
-0.675089 -0.602016 0 
-0.61271 -0.611831 0 
-0.56007 -0.604859 0 
-0.506586 -0.591159 0 
-0.4548 -0.618267 0 
-0.402585 -0.593363 0 
-0.352885 -0.617892 0 
-0.301898 -0.590774 0 
-0.249931 -0.607445 0 
-0.20047 -0.618026 0 
-0.152094 -0.591572 0 
-0.101636 -0.618979 0 
-0.0515543 -0.593574 0 
-0.00244032 -0.620678 0 
0.0493493 -0.600163 0 
0.0984462 -0.59791 0 
0.147214 -0.623273 0 
0.19846 -0.594491 0 
0.248849 -0.617954 0 
0.29924 -0.591281 0 
0.352315 -0.614754 0 
0.403831 -0.593284 0 
0.455787 -0.608592 0 
0.520167 -0.601585 0 
0.571237 -0.605653 0 
0.620059 -0.607814 0 
0.678676 -0.602486 0 
0.734122 -0.607948 0 
0.789144 -0.614208 0 
-0.824938 -0.565223 0 
-0.769277 -0.561556 0 
-0.712842 -0.556856 0 
-0.655558 -0.556882 0 
-0.604723 -0.559782 0 
-0.552376 -0.552301 0 
-0.499741 -0.541558 0 
-0.452146 -0.567692 0 
-0.399788 -0.54198 0 
-0.351333 -0.566006 0 
-0.301369 -0.539423 0 
-0.251944 -0.559984 0 
-0.202344 -0.562389 0 
-0.151729 -0.539373 0 
-0.101412 -0.56624 0 
-0.0504147 -0.541753 0 
-0.000400428 -0.568612 0 
0.0512066 -0.551572 0 
0.100052 -0.542814 0 
0.148635 -0.569469 0 
0.199383 -0.542248 0 
0.24951 -0.565612 0 
0.300492 -0.537743 0 
0.346797 -0.563054 0 
0.392054 -0.54738 0 
0.444834 -0.550376 0 
0.492055 -0.564982 0 
0.548979 -0.550909 0 
0.602765 -0.5553 0 
0.655752 -0.556591 0 
0.713249 -0.556635 0 
0.769373 -0.561367 0 
0.824922 -0.565247 0 
-0.857615 -0.514292 0 
-0.802388 -0.512635 0 
-0.747487 -0.509447 0 
-0.692481 -0.506961 0 
-0.640359 -0.506188 0 
-0.590701 -0.507101 0 
-0.539866 -0.49886 0 
-0.492526 -0.491066 0 
-0.44688 -0.51632 0 
-0.399236 -0.489206 0 
-0.350286 -0.513725 0 
-0.298979 -0.489497 0 
-0.247977 -0.513509 0 
-0.199703 -0.507566 0 
-0.150161 -0.487331 0 
-0.10059 -0.514616 0 
-0.049804 -0.490619 0 
0.000625811 -0.517509 0 
0.0508042 -0.501589 0 
0.0999639 -0.489781 0 
0.149517 -0.516323 0 
0.199861 -0.49053 0 
0.249857 -0.513971 0 
0.301105 -0.486926 0 
0.350992 -0.50621 0 
0.406179 -0.503633 0 
0.453702 -0.495579 0 
0.499381 -0.517896 0 
0.54509 -0.495628 0 
0.589875 -0.502992 0 
0.639769 -0.505125 0 
0.692133 -0.507178 0 
0.747231 -0.509351 0 
0.802239 -0.512834 0 
0.8575 -0.514485 0 
-0.886692 -0.462362 0 
-0.831447 -0.46229 0 
-0.776968 -0.459992 0 
-0.722557 -0.457864 0 
-0.668309 -0.454847 0 
-0.615699 -0.454692 0 
-0.563442 -0.455041 0 
-0.504959 -0.444494 0 
-0.448651 -0.462232 0 
-0.399535 -0.438236 0 
-0.349128 -0.46264 0 
-0.299137 -0.439068 0 
-0.248305 -0.464591 0 
-0.199624 -0.454437 0 
-0.150124 -0.436363 0 
-0.0998408 -0.463181 0 
-0.0495775 -0.439683 0 
0.000657363 -0.466432 0 
0.050398 -0.45109 0 
0.0997795 -0.438004 0 
0.14961 -0.46426 0 
0.20006 -0.439543 0 
0.250155 -0.462985 0 
0.300624 -0.436016 0 
0.349741 -0.453489 0 
0.398431 -0.460711 0 
0.448861 -0.444362 0 
0.501772 -0.463516 0 
0.556306 -0.446047 0 
0.610655 -0.453181 0 
0.665731 -0.455702 0 
0.720992 -0.458228 0 
0.776173 -0.460571 0 
0.831102 -0.462917 0 
0.886543 -0.462645 0 
-0.912236 -0.409665 0 
-0.857204 -0.410967 0 
-0.803392 -0.409217 0 
-0.74994 -0.407407 0 
-0.696663 -0.406178 0 
-0.642836 -0.402615 0 
-0.594083 -0.40314 0 
-0.543712 -0.409305 0 
-0.498184 -0.388941 0 
-0.452699 -0.414143 0 
-0.401283 -0.388854 0 
-0.349739 -0.411899 0 
-0.299455 -0.388886 0 
-0.248771 -0.414704 0 
-0.199804 -0.40237 0 
-0.150194 -0.385975 0 
-0.0998826 -0.412316 0 
-0.0496331 -0.389139 0 
0.000643541 -0.415495 0 
0.0502079 -0.40057 0 
0.099715 -0.387048 0 
0.149647 -0.41299 0 
0.200027 -0.388895 0 
0.250027 -0.412129 0 
0.301055 -0.385878 0 
0.350404 -0.401986 0 
0.40041 -0.412751 0 
0.450882 -0.391618 0 
0.499731 -0.416383 0 
0.544034 -0.393568 0 
0.59137 -0.399783 0 
0.642288 -0.404278 0 
0.695365 -0.407079 0 
0.749328 -0.408637 0 
0.803118 -0.410657 0 
0.857365 -0.412146 0 
0.912211 -0.40972 0 
-0.934162 -0.35685 0 
-0.879422 -0.35942 0 
-0.826293 -0.357958 0 
-0.773333 -0.356351 0 
-0.720158 -0.355668 0 
-0.665775 -0.356607 0 
-0.607138 -0.350008 0 
-0.553621 -0.361137 0 
-0.5022 -0.339404 0 
-0.449669 -0.361737 0 
-0.400008 -0.33791 0 
-0.350294 -0.361968 0 
-0.299735 -0.338845 0 
-0.249149 -0.364486 0 
-0.19989 -0.351123 0 
-0.150231 -0.335907 0 
-0.0999158 -0.361809 0 
-0.0496591 -0.338853 0 
0.000579022 -0.364807 0 
0.0501213 -0.350175 0 
0.0996736 -0.336536 0 
0.149689 -0.362171 0 
0.200173 -0.338592 0 
0.250216 -0.361805 0 
0.300977 -0.33584 0 
0.350317 -0.350432 0 
0.400031 -0.363711 0 
0.449445 -0.340113 0 
0.500426 -0.362497 0 
0.556035 -0.344079 0 
0.610296 -0.352686 0 
0.6665 -0.355417 0 
0.719677 -0.357923 0 
0.773735 -0.358184 0 
0.826983 -0.360351 0 
0.879942 -0.360326 0 
0.934344 -0.356372 0 
-0.952661 -0.304036 0 
-0.898427 -0.307629 0 
-0.846493 -0.305546 0 
-0.794931 -0.304029 0 
-0.743864 -0.303138 0 
-0.693611 -0.30459 0 
-0.643467 -0.30958 0 
-0.599353 -0.290969 0 
-0.55443 -0.313997 0 
-0.503336 -0.288984 0 
-0.45199 -0.311834 0 
-0.401101 -0.288191 0 
-0.349902 -0.311422 0 
-0.299643 -0.288622 0 
-0.249349 -0.314247 0 
-0.199915 -0.300435 0 
-0.150269 -0.285978 0 
-0.0999683 -0.311532 0 
-0.0497289 -0.288717 0 
0.000527779 -0.314369 0 
0.0500741 -0.299964 0 
0.0996409 -0.286337 0 
0.149787 -0.311716 0 
0.200238 -0.28842 0 
0.250326 -0.311555 0 
0.301235 -0.286006 0 
0.350591 -0.299681 0 
0.400449 -0.31341 0 
0.451856 -0.289027 0 
0.501314 -0.314699 0 
0.544921 -0.289691 0 
0.590901 -0.297941 0 
0.640135 -0.307218 0 
0.69435 -0.304347 0 
0.742809 -0.307966 0 
0.7979 -0.307375 0 
0.847482 -0.307936 0 
0.899876 -0.308548 0 
0.953167 -0.302446 0 
-0.967863 -0.251479 0 
-0.914487 -0.256648 0 
-0.863556 -0.253418 0 
-0.811732 -0.251971 0 
-0.759393 -0.251316 0 
-0.706493 -0.252194 0 
-0.653718 -0.258815 0 
-0.607533 -0.238533 0 
-0.553063 -0.261024 0 
-0.502377 -0.238056 0 
-0.452064 -0.261845 0 
-0.401205 -0.238175 0 
-0.350516 -0.261491 0 
-0.299965 -0.238667 0 
-0.249417 -0.263974 0 
-0.199916 -0.250071 0 
-0.150304 -0.236053 0 
-0.100036 -0.261399 0 
-0.0497663 -0.238671 0 
0.000445464 -0.264099 0 
0.0500404 -0.249853 0 
0.0996125 -0.23625 0 
0.149834 -0.261487 0 
0.200323 -0.238399 0 
0.25055 -0.261503 0 
0.301452 -0.23621 0 
0.351157 -0.249436 0 
0.401482 -0.263625 0 
0.451962 -0.237781 0 
0.501557 -0.260261 0 
[...]
POINT_DATA 1245 
VECTORS vectors float
0.800284 -0.266456 0.537166 
0.809971 -0.22328 0.542303 
0.817219 -0.176121 0.548758 
0.823315 -0.133286 0.551713 
0.828701 -0.0876677 0.552783 
0.828408 -0.0434587 0.558437 
0.832699 -0.000921739 0.553726 
0.83118 0.0421387 0.554404 
0.828494 0.0832282 0.553778 
0.825169 0.126565 0.550524 
0.818841 0.170343 0.548162 
0.81013 0.212049 0.546557 
0.797973 0.257535 0.5449 
0.770951 -0.348765 0.532915 
0.78742 -0.307864 0.534031 
0.658217 -0.232393 0.716061 
0.668936 -0.198642 0.716286 
0.692404 -0.164528 0.702501 
0.650321 -0.116572 0.750662 
0.693218 -0.0811015 0.716151 
0.645373 -0.0395673 0.762842 
0.695675 0.00281328 0.718351 
0.640322 0.0366766 0.767231 
0.678048 0.0781786 0.730848 
0.686036 0.118777 0.717807 
0.651732 0.150707 0.743326 
0.684593 0.194356 0.702536 
0.659726 0.232897 0.714508 
0.782242 0.302362 0.544679 
0.7643 0.346603 0.543794 
0.726324 -0.430554 0.535795 
0.750573 -0.389593 0.533721 
0.635278 -0.304786 0.709597 
0.648701 -0.270332 0.711413 
0.523106 -0.195927 0.829442 
0.530989 -0.164217 0.831315 
0.555588 -0.1328 0.820784 
0.491611 -0.0926794 0.865869 
0.546485 -0.0655615 0.834899 
0.479188 -0.0295483 0.877215 
0.54353 -0.00112994 0.839389 
0.469824 0.0281348 0.882312 
0.525773 0.0614462 0.848402 
0.547007 0.0955365 0.831659 
0.497916 0.121184 0.858716 
0.556422 0.164691 0.814415 
0.525021 0.190761 0.829435 
0.644963 0.265039 0.716782 
0.62607 0.305006 0.71764 
0.743662 0.390182 0.542885 
0.719259 0.43393 0.542559 
0.6978 -0.472392 0.538443 
0.5962 -0.377759 0.70841 
0.617918 -0.341622 0.708147 
0.501014 -0.256604 0.826523 
0.513085 -0.224437 0.828475 
0.402268 -0.157574 0.90186 
0.409969 -0.132122 0.90248 
0.432928 -0.111685 0.894483 
0.362224 -0.0695345 0.929494 
0.411082 -0.0532803 0.91004 
0.349198 -0.0224209 0.936781 
0.402771 -0.00069785 0.915301 
0.341633 0.0215803 0.939586 
0.389574 0.047767 0.919756 
0.421124 0.0772214 0.90371 
0.372195 0.0924674 0.923537 
0.433831 0.136189 0.890642 
0.407188 0.157798 0.89961 
0.505848 0.223988 0.833035 
0.496402 0.2527 0.830498 
0.60842 0.341592 0.716338 
0.591375 0.37804 0.712293 
0.692022 0.476354 0.542395 
0.632066 -0.553049 0.542798 
0.666021 -0.513612 0.540942 
0.57169 -0.411654 0.709726 
0.472245 -0.318246 0.822013 
0.489035 -0.285518 0.824211 
0.38788 -0.208609 0.897793 
0.39688 -0.185001 0.899033 
0.306107 -0.127592 0.943408 
0.310547 -0.10704 0.944512 
0.32351 -0.088171 0.942108 
0.267431 -0.0576821 0.961849 
0.300048 -0.0424242 0.95298 
0.251916 -0.0191669 0.967559 
0.291648 -0.00231763 0.956523 
0.244447 0.0161742 0.969528 
0.279438 0.0342365 0.959553 
0.315519 0.0632563 0.946809 
0.277788 0.0741719 0.957775 
0.327007 0.108649 0.938755 
0.307131 0.124678 0.943465 
0.390476 0.180894 0.902666 
0.377582 0.207551 0.902416 
0.477949 0.28604 0.830509 
0.466997 0.320252 0.824229 
0.564247 0.415757 0.713282 
0.661645 0.517519 0.542585 
0.629054 0.556556 0.542711 
0.594575 -0.592379 0.543661 
0.523251 -0.487433 0.699012 
0.541253 -0.44558 0.713094 
0.448803 -0.347926 0.823118 
0.36314 -0.262173 0.894089 
0.375058 -0.23661 0.896296 
0.292673 -0.170426 0.940903 
0.298666 -0.147352 0.942914 
0.228781 -0.100875 0.968237 
0.230747 -0.0850404 0.96929 
0.239118 -0.0674813 0.968643 
0.190327 -0.0438302 0.980742 
0.21732 -0.0313999 0.975595 
0.179831 -0.015245 0.983579 
0.210541 -0.000675642 0.977585 
0.176969 0.0116244 0.984148 
0.196726 0.0277299 0.980066 
0.230832 0.0448353 0.97196 
0.19874 0.0573285 0.978374 
0.246517 0.0845765 0.965441 
0.228551 0.100408 0.96834 
0.294494 0.145765 0.944471 
0.2873 0.166589 0.943243 
0.368343 0.232856 0.900056 
0.359157 0.263117 0.895419 
0.441343 0.347218 0.827439 
0.534636 0.444593 0.718681 
0.518398 0.488544 0.701846 
0.592738 0.595319 0.542454 
0.554609 -0.629952 0.543662 
0.488121 -0.522526 0.699075 
0.421115 -0.419388 0.804224 
0.421227 -0.373076 0.826669 
0.344365 -0.290071 0.892901 
0.28044 -0.219995 0.934321 
0.287901 -0.193312 0.937946 
0.219387 -0.135697 0.966155 
0.226878 -0.120126 0.966486 
0.170506 -0.081526 0.981978 
0.170197 -0.0656431 0.983221 
0.173789 -0.0550105 0.983245 
0.138333 -0.0338311 0.989808 
0.155722 -0.0257712 0.987465 
0.128165 -0.0121342 0.991679 
0.149323 -0.00186604 0.988787 
0.127547 0.00741487 0.991805 
0.138073 0.0201708 0.990217 
0.16631 0.0370036 0.985379 
0.147627 0.0427495 0.988119 
0.181759 0.0699498 0.980852 
0.171079 0.0792405 0.982066 
0.218118 0.115343 0.969082 
0.214988 0.134891 0.967256 
0.273719 0.187524 0.943352 
0.27558 0.21383 0.937194 
0.336499 0.282253 0.898389 
0.404431 0.367686 0.837402 
0.421635 0.422128 0.802516 
0.490067 0.527223 0.694169 
0.553565 0.633364 0.540755 
0.514656 -0.663568 0.54296 
0.44784 -0.539357 0.713115 
0.374705 -0.419117 0.827005 
0.32721 -0.326736 0.886666 
0.272889 -0.251073 0.928705 
0.217036 -0.184228 0.958622 
0.216022 -0.157212 0.963649 
0.166355 -0.112773 0.979596 
0.164837 -0.09384 0.981847 
0.126918 -0.0656142 0.989741 
0.126053 -0.0525635 0.99063 
0.12271 -0.0409936 0.991596 
0.0965994 -0.0264713 0.994971 
0.109809 -0.0192849 0.993766 
0.0896033 -0.00865397 0.99594 
0.107299 -0.00124453 0.994226 
0.0932437 0.00804359 0.995611 
0.0955909 0.0144896 0.995315 
0.117084 0.0265288 0.992768 
0.105019 0.0375309 0.993762 
0.130972 0.0504093 0.990104 
0.123442 0.0631001 0.990344 
0.161711 0.0942828 0.982324 
0.161886 0.110257 0.980631 
0.203979 0.152959 0.966952 
0.235608 0.204884 0.950006 
0.279173 0.26732 0.922281 
0.32948 0.336712 0.882081 
0.377919 0.43195 0.818899 
0.448834 0.545737 0.707615 
0.514997 0.666884 0.538558 
0.47306 -0.694784 0.541747 
0.41137 -0.569332 0.711784 
0.346488 -0.445228 0.825662 
0.291234 -0.344514 0.892464 
0.250561 -0.269852 0.92973 
0.204188 -0.203436 0.95756 
0.163975 -0.149437 0.97508 
0.162337 -0.129589 0.978189 
0.11996 -0.0865941 0.988995 
0.123535 -0.0768064 0.989363 
0.0920767 -0.049563 0.994518 
0.0935843 -0.043544 0.994659 
0.0876049 -0.0321328 0.995637 
0.068809 -0.0200882 0.997428 
0.0787356 -0.0155988 0.996773 
0.0634825 -0.00699061 0.997958 
0.0760148 -0.00194051 0.997105 
0.0679233 0.00516339 0.997677 
0.0660891 0.0112206 0.997751 
0.0831715 0.0210503 0.996313 
0.0749376 0.0243301 0.996891 
0.0971961 0.0429944 0.994336 
0.0905218 0.0509786 0.994589 
0.117672 0.0696324 0.990608 
0.120992 0.0870622 0.988828 
0.143742 0.116445 0.98274 
0.17907 0.157179 0.9712 
0.201106 0.19971 0.958995 
0.242309 0.266917 0.93276 
0.291235 0.344835 0.89234 
0.348622 0.448039 0.82324 
0.412678 0.572427 0.708536 
0.475188 0.69711 0.536874 
0.429973 -0.723307 0.540324 
0.3769 -0.593306 0.711291 
0.318029 -0.467696 0.824693 
0.261241 -0.360337 0.895495 
0.219253 -0.276791 0.935583 
0.18541 -0.215771 0.958679 
0.147972 -0.161308 0.975748 
0.121281 -0.121799 0.985117 
0.12199 -0.103596 0.98711 
0.0892287 -0.0733258 0.993308 
0.0887997 -0.061176 0.994169 
0.0671196 -0.0423092 0.996847 
0.0680334 -0.033903 0.997107 
0.0605579 -0.0239595 0.997877 
0.0480276 -0.0158427 0.99872 
0.0547815 -0.011685 0.99843 
0.0452561 -0.0056303 0.99896 
0.0514182 -0.000461262 0.998677 
0.048957 0.00292402 0.998797 
0.0448966 0.00985852 0.998943 
0.0586753 0.0159735 0.998149 
0.0533074 0.0231237 0.99831 
0.0676906 0.0316802 0.997203 
0.06508 0.0377094 0.997167 
0.083679 0.0593253 0.994725 
0.0977132 0.0796199 0.992025 
0.10874 0.098137 0.989214 
0.142485 0.13901 0.979987 
0.148773 0.164634 0.97507 
0.17972 0.213325 0.960309 
0.2191 0.277255 0.935481 
0.261244 0.363197 0.894337 
0.320052 0.468964 0.823189 
0.37948 0.595402 0.70816 
0.433766 0.724364 0.535858 
0.387301 -0.748226 0.538662 
0.338834 -0.61509 0.711938 
0.283528 -0.484012 0.827855 
0.23439 -0.373845 0.897386 
0.19083 -0.279106 0.941108 
0.154598 -0.214422 0.964429 
0.129926 -0.158607 0.978756 
0.0993071 -0.111623 0.988776 
0.0876193 -0.0857694 0.992455 
0.0663728 -0.0596596 0.99601 
0.0654241 -0.048034 0.996701 
0.0476986 -0.0325472 0.998331 
0.0512581 -0.0261975 0.998342 
0.041804 -0.019025 0.998945 
0.0341519 -0.012581 0.999337 
0.0379024 -0.00814022 0.999248 
0.0301228 -0.00537105 0.999532 
0.0380253 -0.000192763 0.999277 
0.0328202 0.00210242 0.999459 
0.032117 0.00563586 0.999468 
0.0410953 0.0107604 0.999097 
0.037614 0.0148654 0.999182 
0.0497149 0.0259302 0.998427 
0.0470916 0.0339716 0.998313 
0.061386 0.0451696 0.997092 
0.0737595 0.0622622 0.995331 
0.0791453 0.0812125 0.993549 
0.108191 0.117441 0.987169 
0.11953 0.149458 0.981517 
0.153348 0.207182 0.966209 
0.189904 0.278503 0.941474 
0.236618 0.370515 0.898182 
0.285517 0.485344 0.82639 
0.344437 0.614039 0.710155 
0.39213 0.74757 0.536073 
0.344442 -0.769989 0.5371 
0.300666 -0.632186 0.714102 
0.254118 -0.49941 0.828259 
0.20635 -0.383173 0.900332 
0.169589 -0.291808 0.941322 
0.132244 -0.215394 0.967531 
0.113789 -0.163843 0.979902 
0.0926391 -0.125088 0.987811 
0.0692624 -0.0902628 0.993507 
0.0694044 -0.0742026 0.994825 
0.0478141 -0.0501867 0.997595 
0.0467054 -0.03945 0.998129 
0.0356823 -0.0274451 0.998986 
0.0353861 -0.0220853 0.99913 
0.0281232 -0.0149555 0.999493 
0.0243399 -0.00902982 0.999663 
0.0265997 -0.00733026 0.999619 
0.0213113 -0.00281192 0.999769 
0.0255003 -0.000692328 0.999675 
0.0218216 0.00297035 0.999757 
0.0233492 0.003364 0.999722 
0.0275317 0.0110993 0.999559 
0.0264044 0.0120089 0.999579 
0.0350606 0.0200338 0.999184 
0.0336466 0.0229404 0.99917 
0.0435381 0.0381643 0.998323 
0.0562488 0.0547992 0.996912 
0.0600522 0.0687659 0.995824 
0.0819222 0.0982788 0.991781 
0.0863241 0.120952 0.988898 
0.108459 0.159936 0.981151 
0.135976 0.217006 0.966653 
0.169029 0.289572 0.942113 
0.211534 0.384474 0.898573 
0.257173 0.498218 0.828034 
0.306998 0.633543 0.710194 
0.349597 0.767517 0.537308 
0.30162 -0.788021 0.536701 
0.264854 -0.647477 0.714581 
0.220957 -0.511266 0.830533 
0.180537 -0.393694 0.901338 
0.145993 -0.297054 0.943634 
0.11775 -0.219788 0.968415 
0.0880959 -0.154905 0.983994 
0.0744647 -0.117466 0.990281 
0.0558193 -0.0796139 0.995262 
0.050969 -0.0632811 0.996693 
0.0354398 -0.0414192 0.998513 
0.0359142 -0.0346646 0.998753 
0.0230682 -0.0208932 0.999516 
0.0262729 -0.0170019 0.99951 
0.0212543 -0.0116648 0.999706 
0.0151842 -0.00801554 0.999853 
0.0181036 -0.00598241 0.999818 
0.0150475 -0.00160817 0.999885 
0.0178711 -0.00307498 0.999836 
0.0167658 0.00187692 0.999858 
0.0132964 0.00392672 0.999904 
0.0193176 0.00596145 0.999796 
0.0191507 0.0103137 0.999763 
0.0241565 0.0164689 0.999573 
0.0249836 0.0221929 0.999441 
0.031584 0.0309503 0.999022 
0.0416779 0.0435562 0.998181 
0.0424224 0.0569736 0.997474 
0.0629215 0.0832109 0.994544 
0.0698465 0.112971 0.99114 
0.0920243 0.157883 0.98316 
0.119556 0.220179 0.968105 
0.148797 0.296219 0.943458 
0.184293 0.394838 0.900077 
0.227506 0.512435 0.828041 
0.269698 0.646478 0.713673 
0.305852 0.784635 0.539261 
0.259341 -0.802664 0.537097 
0.228884 -0.659378 0.716124 
0.188609 -0.522887 0.831273 
0.156615 -0.40342 0.901512 
0.123951 -0.306144 0.943881 
0.102843 -0.233274 0.966957 
0.0849467 -0.176087 0.980703 
0.061857 -0.129735 0.989617 
0.0600112 -0.102218 0.99295 
0.0392634 -0.072126 0.996622 
0.0353003 -0.0530305 0.997969 
0.0275435 -0.0369318 0.998938 
0.024104 -0.0269604 0.999346 
0.0195257 -0.0191112 0.999627 
0.0177712 -0.0153941 0.999724 
0.0135644 -0.00990743 0.999859 
0.0122681 -0.00545483 0.99991 
0.0121496 -0.00554529 0.999911 
0.0101641 -0.00426132 0.999939 
0.0100783 0.000367688 0.999949 
0.0116486 -0.000648444 0.999932 
0.00988727 0.00212325 0.999949 
0.0145471 0.00532787 0.99988 
0.0109645 0.0068628 0.999916 
0.0180219 0.0122336 0.999763 
0.0167507 0.0162123 0.999728 
0.0230621 0.0253936 0.999411 
0.0305858 0.0391893 0.998764 
0.034359 0.0497195 0.998172 
0.0455363 0.0757148 0.996089 
0.0491477 0.0901165 0.994718 
0.0646989 0.124925 0.990054 
0.080952 0.171321 0.981884 
0.103125 0.233 0.966993 
0.129261 0.305288 0.943446 
0.161201 0.409176 0.898103 
0.194418 0.523752 0.829388 
0.232782 0.660139 0.714164 
0.260901 0.79857 0.542418 
0.217573 -0.813923 0.538694 
0.192512 -0.671069 0.715965 
0.159591 -0.532384 0.831323 
0.129013 -0.409184 0.903285 
0.103412 -0.309241 0.945344 
0.0819662 -0.228615 0.97006 
0.0674292 -0.168818 0.983338 
0.0487215 -0.123885 0.9911 
0.0432477 -0.0919735 0.994822 
0.0300695 -0.0615868 0.997649 
0.0294232 -0.0478077 0.998423 
0.0170306 -0.0316327 0.999354 
0.0178244 -0.0244077 0.999543 
0.0120223 -0.0158072 0.999803 
0.0119745 -0.0104303 0.999874 
0.00975883 -0.00803097 0.99992 
0.00730415 -0.00672794 0.999951 
0.00889123 -0.00213806 0.999958 
0.00604839 -0.00168072 0.99998 
0.00926681 -0.000590503 0.999957 
0.00703551 0.00054927 0.999975 
0.00695754 0.00197357 0.999974 
0.00977898 0.00421769 0.999943 
0.0101837 0.00650734 0.999927 
0.012189 0.0103618 0.999872 
0.0122049 0.0148402 0.999815 
0.0166024 0.0217434 0.999626 
0.0214745 0.0320522 0.999255 
0.0223763 0.0445771 0.998755 
0.0347285 0.0638964 0.997352 
0.0388289 0.0911851 0.995077 
0.0532047 0.127765 0.990376 
0.0731848 0.175215 0.981806 
0.0836252 0.236701 0.967977 
0.112817 0.318524 0.941177 
0.13204 0.413677 0.900798 
0.163673 0.533064 0.830092 
0.193064 0.669237 0.717529 
0.21505 0.80984 0.545813 
0.172643 -0.822198 0.542388 
0.158848 -0.696269 0.699983 
0.132718 -0.55929 0.818279 
0.104933 -0.431149 0.896158 
0.0859199 -0.323565 0.942297 
0.0672791 -0.235269 0.969599 
0.0524931 -0.167992 0.98439 
0.0366884 -0.113408 0.992871 
0.0323268 -0.0840455 0.995937 
0.0213588 -0.0577901 0.9981 
0.0194907 -0.0425141 0.998906 
0.0152043 -0.0279694 0.999493 
0.0127139 -0.0197067 0.999725 
0.0088474 -0.0134205 0.999871 
0.00903992 -0.0109962 0.999899 
0.0077249 -0.00656805 0.999949 
0.00461889 -0.00294986 0.999985 
0.00530019 -0.00445793 0.999976 
0.00575541 -0.00151062 0.999982 
0.00447921 -0.00186681 0.999988 
0.00396827 0.000531978 0.999992 
0.00660844 0.000567389 0.999978 
0.00471209 0.00206058 0.999987 
0.00596638 0.00461529 0.999972 
0.00843342 0.00872387 0.999926 
0.00870821 0.011067 0.999901 
0.0113184 0.0196075 0.999744 
0.0173119 0.0294046 0.999418 
0.0174257 0.0390837 0.999084 
0.0258243 0.0607535 0.997819 
0.0297102 0.0802785 0.99633 
0.0375641 0.115056 0.992648 
0.05339 0.165602 0.984746 
0.0614143 0.21684 0.974273 
0.0866268 0.30365 0.948838 
0.0982309 0.401059 0.91077 
0.129855 0.530482 0.837691 
0.153395 0.671028 0.72539 
0.1688 0.819036 0.548349 
0.131866 -0.828261 0.544606 
0.114598 -0.655108 0.746794 
0.0891693 -0.49336 0.865242 
0.0715213 -0.364583 0.92842 
0.0528147 -0.265542 0.962651 
0.044149 -0.194049 0.979998 
0.0361928 -0.144018 0.988913 
0.0230689 -0.104536 0.994254 
0.0232962 -0.0787124 0.996625 
0.0159373 -0.0531649 0.998459 
0.0131441 -0.038096 0.999188 
0.0082031 -0.0256411 0.999638 
0.00837582 -0.0198338 0.999768 
0.00625532 -0.0117229 0.999912 
0.0050972 -0.00876145 0.999949 
0.00351121 -0.00600034 0.999976 
0.00410883 -0.0052479 0.999978 
0.00458386 -0.00291983 0.999985 
0.00057325 -0.00222006 0.999997 
0.00507528 -0.000865927 0.999987 
0.00356127 -0.000643162 0.999993 
0.000969053 0.00127599 0.999999 
0.00456597 0.00374532 0.999983 
0.00353366 0.00341338 0.999988 
0.00552856 0.00761363 0.999956 
0.00602417 0.0117405 0.999913 
0.00755223 0.0166744 0.999832 
0.0100535 0.0246757 0.999645 
0.0130129 0.0374855 0.999212 
0.0169384 0.0546756 0.99836 
0.0161849 0.0755679 0.997009 
0.0294994 0.107309 0.993788 
0.0397799 0.153501 0.987348 
0.0421319 0.207116 0.977409 
0.0645087 0.287599 0.955576 
0.0685553 0.375778 0.924171 
0.0918145 0.500932 0.860603 
0.111372 0.659348 0.743543 
0.125697 0.826012 0.549458 
0.087097 -0.832226 0.547553 
0.0818982 -0.696948 0.71243 
0.0675931 -0.550398 0.832162 
0.0499984 -0.409111 0.911114 
0.0404223 -0.297616 0.953829 
0.0326328 -0.212452 0.976626 
0.0246336 -0.147887 0.988697 
0.0162898 -0.101476 0.994705 
0.0151941 -0.0722345 0.997272 
0.00779618 -0.0496412 0.998737 
0.010041 -0.0362839 0.999291 
0.00531878 -0.0237936 0.999703 
0.00652984 -0.0158338 0.999853 
0.00211097 -0.0117008 0.999929 
0.0051704 -0.0077494 0.999957 
0.00353575 -0.00480732 0.999982 
0.0016301 -0.00342676 0.999993 
0.0030184 -0.00121037 0.999995 
0.00416967 -0.00249762 0.999988 
0.00162744 2.11164e-05 0.999999 
0.00262932 -0.00040146 0.999996 
0.00300404 0.000361207 0.999995 
0.00413145 0.000696945 0.999991 
0.0028546 0.00505764 0.999983 
0.00376276 0.00561887 0.999977 
0.00199165 0.00958784 0.999952 
0.0064266 0.0149939 0.999867 
0.00723841 0.0254161 0.999651 
0.00474408 0.0323247 0.999466 
0.0134378 0.0506548 0.998626 
0.0124559 0.070823 0.997411 
0.0169506 0.103607 0.994474 
0.0248595 0.144483 0.989195 
0.0261061 0.201266 0.979189 
0.0419325 0.280632 0.958899 
0.0443643 0.389311 0.920037 
0.0636779 0.531652 0.844566 
0.0759177 0.686252 0.723391 
0.0803709 0.831212 0.550116 
0.0460164 -0.834823 0.548592 
0.040639 -0.649487 0.759286 
0.0311138 -0.481303 0.876002 
0.0256037 -0.349754 0.936492 
0.017758 -0.250098 0.968058 
0.0148535 -0.180492 0.983464 
0.011684 -0.133111 0.991032 
0.00748677 -0.0970546 0.995251 
0.00860689 -0.0706628 0.997463 
0.00504758 -0.0485978 0.998806 
0.00554595 -0.0332368 0.999432 
0.00295014 -0.0229909 0.999731 
0.00305998 -0.0170603 0.99985 
0.00332292 -0.0095617 0.999949 
0.00174791 -0.00789251 0.999967 
0.000751775 -0.00548846 0.999985 
0.00223389 -0.00230192 0.999995 
0.000167977 -0.00377755 0.999993 
-0.000227729 0.000576129 1 
0.00177434 -0.00195376 0.999997 
0.00028913 0.000508929 1 
0.00141002 0.000576645 0.999999 
-0.000588354 0.00264865 0.999996 
0.000498191 0.00177799 0.999998 
0.00307588 0.00643167 0.999975 
0.00276631 0.0101295 0.999945 
0.000943986 0.0142776 0.999898 
0.00477233 0.0215233 0.999757 
0.0048626 0.0341796 0.999404 
0.00562281 0.0498277 0.998742 
0.00515341 0.0696103 0.997561 
0.00743716 0.0996715 0.994993 
0.0164378 0.142117 0.989713 
0.0108552 0.19708 0.980327 
0.0246595 0.274254 0.961341 
0.0187755 0.365533 0.930609 
0.0281841 0.486022 0.873492 
0.0362862 0.649248 0.759711 
0.0387992 0.835182 0.548604 
0.00557705 -0.836473 0.547979 
0.00558448 -0.701309 0.712836 
0.00432539 -0.546109 0.837703 
0.00200717 -0.403854 0.914821 
0.00172374 -0.290012 0.957021 
0.00184947 -0.205047 0.97875 
0.00258593 -0.142202 0.989834 
-0.00189815 -0.0987857 0.995107 
0.000257778 -0.0684682 0.997653 
0.000356398 -0.0480595 0.998844 
-0.00066331 -0.0339939 0.999422 
0.000989875 -0.0232221 0.99973 
0.000341234 -0.013951 0.999903 
-0.000184326 -0.0123598 0.999924 
0.00119324 -0.0060294 0.999981 
0.0011306 -0.00509738 0.999986 
-0.000177008 -0.00382399 0.999993 
0.00234726 -0.00251404 0.999994 
0.00161204 -0.00253245 0.999995 
0.000866068 -0.0014198 0.999999 
0.00142773 -0.000266714 0.999999 
-0.000550411 0.000607668 1 
0.0029553 0.00110935 0.999995 
0.00166119 0.00501556 0.999986 
-0.000719845 0.00508869 0.999987 
0.000605543 0.00822579 0.999966 
0.000296615 0.0152551 0.999884 
0.000574382 0.0227489 0.999741 
-0.000955138 0.0315628 0.999501 
-0.000133606 0.0467889 0.998905 
-0.00193522 0.0707 0.997496 
-5.29467e-05 0.0976944 0.995216 
0.00304433 0.140361 0.990096 
-0.00326077 0.195215 0.980755 
0.00479425 0.273089 0.961977 
-0.00290436 0.382987 0.923749 
0.000229211 0.533272 0.845944 
-0.00259607 0.694384 0.7196 
-0.000263262 0.838553 0.544819 
-0.0350166 -0.833438 0.551503 
-0.0333468 -0.645653 0.762903 
-0.0249211 -0.482487 0.875548 
-0.0181093 -0.348555 0.937113 
-0.0168851 -0.251005 0.967838 
-0.0103612 -0.179968 0.983618 
-0.00935199 -0.132762 0.991104 
-0.0106032 -0.0996153 0.99497 
-0.00310188 -0.0698274 0.997554 
-0.00757796 -0.0494173 0.998749 
-0.000968326 -0.0325346 0.99947 
-0.0049406 -0.0223813 0.999737 
-0.00150865 -0.0164426 0.999864 
-0.00118492 -0.00837743 0.999964 
-0.00153969 -0.00734334 0.999972 
-3.13724e-05 -0.00390877 0.999992 
-0.000289275 -0.00379645 0.999993 
-0.00242661 -0.000628193 0.999997 
0.000234693 -0.00250608 0.999997 
-0.00128362 0.000965993 0.999999 
0.000438406 -0.000832287 1 
-0.00044777 0.00135522 0.999999 
-0.00265967 0.00236582 0.999994 
-0.00175801 0.00188115 0.999997 
-0.00123253 0.00715287 0.999974 
-0.00356397 0.0100114 0.999944 
-0.00133543 0.0147537 0.99989 
-0.00196646 0.0206815 0.999784 