# vtk DataFile Version 3.0 
Exported using Morpho https://github.com/Morpho-lang/morpho 
ASCII 
DATASET UNSTRUCTURED_GRID 

POINTS 1245 float 
-0.304038 -0.95266 0 
-0.251441 -0.967873 0 
-0.196599 -0.980484 0 
-0.147939 -0.988996 0 
-0.096254 -0.995357 0 
-0.0483601 -0.99883 0 
-0.000451504 -1 0 
0.0482414 -0.998836 0 
0.0956209 -0.995418 0 
0.145924 -0.989296 0 
0.198694 -0.980062 0 
0.248343 -0.968672 0 
0.30399 -0.952675 0 
-0.409672 -0.912233 0 
-0.356859 -0.934158 0 
-0.307625 -0.898571 0 
-0.256611 -0.914841 0 
-0.205389 -0.933372 0 
-0.153069 -0.927934 0 
-0.102396 -0.94791 0 
-0.0498583 -0.935106 0 
0.00142854 -0.953377 0 
0.052561 -0.9331 0 
0.104134 -0.942389 0 
0.156872 -0.938823 0 
0.206982 -0.919507 0 
0.258749 -0.920951 0 
0.310446 -0.900065 0 
0.357716 -0.93383 0 
0.410714 -0.911764 0 
-0.51437 -0.857568 0 
-0.462407 -0.886668 0 
-0.411015 -0.857376 0 
-0.359501 -0.879663 0 
-0.305707 -0.84665 0 
-0.253622 -0.86425 0 
-0.200473 -0.885626 0 
-0.148805 -0.868805 0 
-0.0992128 -0.89633 0 
-0.0484472 -0.873916 0 
0.00154915 -0.899374 0 
0.0506565 -0.870008 0 
0.099584 -0.888189 0 
0.15259 -0.889657 0 
0.203706 -0.862941 0 
0.255384 -0.874358 0 
0.307954 -0.849391 0 
0.361689 -0.879386 0 
0.412615 -0.856642 0 
0.46325 -0.886228 0 
0.514942 -0.857225 0 
-0.565364 -0.824841 0 
-0.512807 -0.802464 0 
-0.462454 -0.831649 0 
-0.409305 -0.803744 0 
-0.35814 -0.826779 0 
-0.304287 -0.794815 0 
-0.252533 -0.812725 0 
-0.199644 -0.834469 0 
-0.148659 -0.811689 0 
-0.0980329 -0.840437 0 
-0.0486484 -0.814709 0 
0.00110327 -0.841666 0 
0.0507222 -0.810511 0 
0.10012 -0.830521 0 
0.151601 -0.838979 0 
0.201398 -0.807576 0 
0.253879 -0.824556 0 
0.305585 -0.798078 0 
0.359663 -0.826545 0 
0.410331 -0.802786 0 
0.463256 -0.830671 0 
0.513382 -0.802055 0 
0.565855 -0.824505 0 
-0.661127 -0.750274 0 
-0.614521 -0.7889 0 
-0.561833 -0.769262 0 
-0.50964 -0.747742 0 
-0.460175 -0.777438 0 
-0.407225 -0.750461 0 
-0.356449 -0.774194 0 
-0.303021 -0.743169 0 
-0.251726 -0.760737 0 
-0.199698 -0.781574 0 
-0.149469 -0.755674 0 
-0.0987361 -0.784111 0 
-0.0495663 -0.757521 0 
0.00074427 -0.784506 0 
0.0499021 -0.753017 0 
0.0986422 -0.771593 0 
0.148465 -0.786798 0 
0.198905 -0.753762 0 
0.25178 -0.773224 0 
0.303018 -0.746409 0 
0.356897 -0.773838 0 
0.407278 -0.749476 0 
0.460508 -0.775969 0 
0.509912 -0.747635 0 
0.562265 -0.768427 0 
0.614899 -0.788606 0 
0.660916 -0.75046 0 
-0.707137 -0.707076 0 
-0.654232 -0.698242 0 
-0.60786 -0.732501 0 
-0.557385 -0.712939 0 
-0.507468 -0.693124 0 
-0.457791 -0.723521 0 
-0.40534 -0.697562 0 
-0.354815 -0.72183 0 
-0.302133 -0.691777 0 
-0.251077 -0.708675 0 
-0.199931 -0.727612 0 
-0.150301 -0.700335 0 
-0.0999236 -0.728385 0 
-0.051087 -0.701823 0 
-0.000421628 -0.728505 0 
0.0495464 -0.698598 0 
0.0984035 -0.713168 0 
0.147599 -0.732599 0 
0.197896 -0.700126 0 
0.250029 -0.721435 0 
0.301757 -0.694342 0 
0.353927 -0.721143 0 
0.403704 -0.696683 0 
0.456847 -0.721566 0 
0.505628 -0.694419 0 
0.557407 -0.711375 0 
0.607266 -0.730582 0 
0.652491 -0.698197 0 
0.706565 -0.707648 0 
-0.750394 -0.660991 0 
-0.698464 -0.654201 0 
-0.647093 -0.646808 0 
-0.60217 -0.67432 0 
-0.556909 -0.655804 0 
-0.506644 -0.64072 0 
-0.455848 -0.670392 0 
-0.404184 -0.645105 0 
-0.353627 -0.669626 0 
-0.301541 -0.640968 0 
-0.250517 -0.65732 0 
-0.200181 -0.673083 0 
-0.151003 -0.645606 0 
-0.100944 -0.673231 0 
-0.0519388 -0.647066 0 
-0.00212132 -0.674276 0 
0.047866 -0.647977 0 
0.0973944 -0.654915 0 
0.14682 -0.677634 0 
0.197663 -0.647208 0 
0.249531 -0.669554 0 
0.301392 -0.642514 0 
0.353151 -0.66764 0 
0.404352 -0.642769 0 
0.451679 -0.667224 0 
0.497353 -0.643748 0 
0.550472 -0.654874 0 
0.599514 -0.669274 0 
0.647435 -0.648156 0 
0.698584 -0.655155 0 
0.750179 -0.661235 0 
-0.789039 -0.614343 0 
-0.732835 -0.607626 0 
-0.675089 -0.602016 0 
-0.61271 -0.611831 0 
-0.56007 -0.604859 0 
-0.506586 -0.591159 0 
-0.4548 -0.618267 0 
-0.402585 -0.593363 0 
-0.352885 -0.617892 0 
-0.301898 -0.590774 0 
-0.249931 -0.607445 0 
-0.20047 -0.618026 0 
-0.152094 -0.591572 0 
-0.101636 -0.618979 0 
-0.0515543 -0.593574 0 
-0.00244032 -0.620678 0 
0.0493493 -0.600163 0 
0.0984462 -0.59791 0 
0.147214 -0.623273 0 
0.19846 -0.594491 0 
0.248849 -0.617954 0 
0.29924 -0.591281 0 
0.352315 -0.614754 0 
0.403831 -0.593284 0 
0.455787 -0.608592 0 
0.520167 -0.601585 0 
0.571237 -0.605653 0 
0.620059 -0.607814 0 
0.678676 -0.602486 0 
0.734122 -0.607948 0 
0.789144 -0.614208 0 
-0.824938 -0.565223 0 
-0.769277 -0.561556 0 
-0.712842 -0.556856 0 
-0.655558 -0.556882 0 
-0.604723 -0.559782 0 
-0.552376 -0.552301 0 
-0.499741 -0.541558 0 
-0.452146 -0.567692 0 
-0.399788 -0.54198 0 
-0.351333 -0.566006 0 
-0.301369 -0.539423 0 
-0.251944 -0.559984 0 
-0.202344 -0.562389 0 
-0.151729 -0.539373 0 
-0.101412 -0.56624 0 
-0.0504147 -0.541753 0 
-0.000400428 -0.568612 0 
0.0512066 -0.551572 0 
0.100052 -0.542814 0 
0.148635 -0.569469 0 
0.199383 -0.542248 0 
0.24951 -0.565612 0 
0.300492 -0.537743 0 
0.346797 -0.563054 0 
0.392054 -0.54738 0 
0.444834 -0.550376 0 
0.492055 -0.564982 0 
0.548979 -0.550909 0 
0.602765 -0.5553 0 
0.655752 -0.556591 0 
0.713249 -0.556635 0 
0.769373 -0.561367 0 
0.824922 -0.565247 0 
-0.857615 -0.514292 0 
-0.802388 -0.512635 0 
-0.747487 -0.509447 0 
-0.692481 -0.506961 0 
-0.640359 -0.506188 0 
-0.590701 -0.507101 0 
-0.539866 -0.49886 0 
-0.492526 -0.491066 0 
-0.44688 -0.51632 0 
-0.399236 -0.489206 0 
-0.350286 -0.513725 0 
-0.298979 -0.489497 0 
-0.247977 -0.513509 0 
-0.199703 -0.507566 0 
-0.150161 -0.487331 0 
-0.10059 -0.514616 0 
-0.049804 -0.490619 0 
0.000625811 -0.517509 0 
0.0508042 -0.501589 0 
0.0999639 -0.489781 0 
0.149517 -0.516323 0 
0.199861 -0.49053 0 
0.249857 -0.513971 0 
0.301105 -0.486926 0 
0.350992 -0.50621 0 
0.406179 -0.503633 0 
0.453702 -0.495579 0 
0.499381 -0.517896 0 
0.54509 -0.495628 0 
0.589875 -0.502992 0 
0.639769 -0.505125 0 
0.692133 -0.507178 0 
0.747231 -0.509351 0 
0.802239 -0.512834 0 
0.8575 -0.514485 0 
-0.886692 -0.462362 0 
-0.831447 -0.46229 0 
-0.776968 -0.459992 0 
-0.722557 -0.457864 0 
-0.668309 -0.454847 0 
-0.615699 -0.454692 0 
-0.563442 -0.455041 0 
-0.504959 -0.444494 0 
-0.448651 -0.462232 0 
-0.399535 -0.438236 0 
-0.349128 -0.46264 0 
-0.299137 -0.439068 0 
-0.248305 -0.464591 0 
-0.199624 -0.454437 0 
-0.150124 -0.436363 0 
-0.0998408 -0.463181 0 
-0.0495775 -0.439683 0 
0.000657363 -0.466432 0 
0.050398 -0.45109 0 
0.0997795 -0.438004 0 
0.14961 -0.46426 0 
0.20006 -0.439543 0 
0.250155 -0.462985 0 
0.300624 -0.436016 0 
0.349741 -0.453489 0 
0.398431 -0.460711 0 
0.448861 -0.444362 0 
0.501772 -0.463516 0 
0.556306 -0.446047 0 
0.610655 -0.453181 0 
0.665731 -0.455702 0 
0.720992 -0.458228 0 
0.776173 -0.460571 0 
0.831102 -0.462917 0 
0.886543 -0.462645 0 
-0.912236 -0.409665 0 
-0.857204 -0.410967 0 
-0.803392 -0.409217 0 
-0.74994 -0.407407 0 
-0.696663 -0.406178 0 
-0.642836 -0.402615 0 
-0.594083 -0.40314 0 
-0.543712 -0.409305 0 
-0.498184 -0.388941 0 
-0.452699 -0.414143 0 
-0.401283 -0.388854 0 
-0.349739 -0.411899 0 
-0.299455 -0.388886 0 
-0.248771 -0.414704 0 
-0.199804 -0.40237 0 
-0.150194 -0.385975 0 
-0.0998826 -0.412316 0 
-0.0496331 -0.389139 0 
0.000643541 -0.415495 0 
0.0502079 -0.40057 0 
0.099715 -0.387048 0 
0.149647 -0.41299 0 
0.200027 -0.388895 0 
0.250027 -0.412129 0 
0.301055 -0.385878 0 
0.350404 -0.401986 0 
0.40041 -0.412751 0 
0.450882 -0.391618 0 
0.499731 -0.416383 0 
0.544034 -0.393568 0 
0.59137 -0.399783 0 
0.642288 -0.404278 0 
0.695365 -0.407079 0 
0.749328 -0.408637 0 
0.803118 -0.410657 0 
0.857365 -0.412146 0 
0.912211 -0.40972 0 
-0.934162 -0.35685 0 
-0.879422 -0.35942 0 
-0.826293 -0.357958 0 
-0.773333 -0.356351 0 
-0.720158 -0.355668 0 
-0.665775 -0.356607 0 
-0.607138 -0.350008 0 
-0.553621 -0.361137 0 
-0.5022 -0.339404 0 
-0.449669 -0.361737 0 
-0.400008 -0.33791 0 
-0.350294 -0.361968 0 
-0.299735 -0.338845 0 
-0.249149 -0.364486 0 
-0.19989 -0.351123 0 
-0.150231 -0.335907 0 
-0.0999158 -0.361809 0 
-0.0496591 -0.338853 0 
0.000579022 -0.364807 0 
0.0501213 -0.350175 0 
0.0996736 -0.336536 0 
0.149689 -0.362171 0 
0.200173 -0.338592 0 
0.250216 -0.361805 0 
0.300977 -0.33584 0 
0.350317 -0.350432 0 
0.400031 -0.363711 0 
0.449445 -0.340113 0 
0.500426 -0.362497 0 
0.556035 -0.344079 0 
0.610296 -0.352686 0 
0.6665 -0.355417 0 
0.719677 -0.357923 0 
0.773735 -0.358184 0 
0.826983 -0.360351 0 
0.879942 -0.360326 0 
0.934344 -0.356372 0 
-0.952661 -0.304036 0 
-0.898427 -0.307629 0 
-0.846493 -0.305546 0 
-0.794931 -0.304029 0 
-0.743864 -0.303138 0 
-0.693611 -0.30459 0 
-0.643467 -0.30958 0 
-0.599353 -0.290969 0 
-0.55443 -0.313997 0 
-0.503336 -0.288984 0 
-0.45199 -0.311834 0 
-0.401101 -0.288191 0 
-0.349902 -0.311422 0 
-0.299643 -0.288622 0 
-0.249349 -0.314247 0 
-0.199915 -0.300435 0 
-0.150269 -0.285978 0 
-0.0999683 -0.311532 0 
-0.0497289 -0.288717 0 
0.000527779 -0.314369 0 
0.0500741 -0.299964 0 
0.0996409 -0.286337 0 
0.149787 -0.311716 0 
0.200238 -0.28842 0 
0.250326 -0.311555 0 
0.301235 -0.286006 0 
0.350591 -0.299681 0 
0.400449 -0.31341 0 
0.451856 -0.289027 0 
0.501314 -0.314699 0 
0.544921 -0.289691 0 
0.590901 -0.297941 0 
0.640135 -0.307218 0 
0.69435 -0.304347 0 
0.742809 -0.307966 0 
0.7979 -0.307375 0 
0.847482 -0.307936 0 
0.899876 -0.308548 0 
0.953167 -0.302446 0 
-0.967863 -0.251479 0 
-0.914487 -0.256648 0 
-0.863556 -0.253418 0 
-0.811732 -0.251971 0 
-0.759393 -0.251316 0 
-0.706493 -0.252194 0 
-0.653718 -0.258815 0 
-0.607533 -0.238533 0 
-0.553063 -0.261024 0 
-0.502377 -0.238056 0 
-0.452064 -0.261845 0 
-0.401205 -0.238175 0 
-0.350516 -0.261491 0 
-0.299965 -0.238667 0 
-0.249417 -0.263974 0 
-0.199916 -0.250071 0 
-0.150304 -0.236053 0 
-0.100036 -0.261399 0 
-0.0497663 -0.238671 0 
0.000445464 -0.264099 0 
0.0500404 -0.249853 0 
0.0996125 -0.23625 0 
0.149834 -0.261487 0 
0.200323 -0.238399 0 
0.25055 -0.261503 0 
0.301452 -0.23621 0 
0.351157 -0.249436 0 
0.401482 -0.263625 0 
0.451962 -0.237781 0 
0.501557 -0.260261 0 
[...]
POINT_DATA 1245 
VECTORS vectors float
0.830428 -0.271311 0.4866 
0.842514 -0.226544 0.48872 
0.851877 -0.178183 0.4925 
0.858794 -0.13432 0.4944 
0.864961 -0.0882854 0.494013 
0.864987 -0.0452977 0.499746 
0.868381 -0.000675603 0.495897 
0.866538 0.0420147 0.49734 
0.863009 0.0843385 0.498099 
0.858808 0.129725 0.495601 
0.851568 0.175993 0.493821 
0.842132 0.218841 0.492872 
0.82893 0.267497 0.491244 
0.797679 -0.360527 0.483455 
0.815545 -0.316174 0.484686 
0.699062 -0.245217 0.6717 
0.710397 -0.205224 0.673216 
0.734609 -0.16801 0.657361 
0.698035 -0.120749 0.705809 
0.73909 -0.0853102 0.668183 
0.693712 -0.0386474 0.719215 
0.743289 -0.00158046 0.668968 
0.68715 0.0395231 0.72544 
0.724192 0.0820692 0.684698 
0.73054 0.124124 0.671495 
0.695701 0.158966 0.700521 
0.727152 0.20798 0.654212 
0.702162 0.242823 0.669332 
0.81312 0.313704 0.490332 
0.794101 0.359622 0.489975 
0.750998 -0.448661 0.484464 
0.776196 -0.404743 0.483429 
0.670551 -0.323431 0.667649 
0.686269 -0.283442 0.669848 
0.565299 -0.207539 0.798351 
0.577703 -0.17442 0.797394 
0.605558 -0.144069 0.782652 
0.540182 -0.0963397 0.836016 
0.597473 -0.0706746 0.798768 
0.531071 -0.0322019 0.846715 
0.593171 0.000332037 0.805076 
0.52134 0.0301163 0.852817 
0.575487 0.0652011 0.815208 
0.594347 0.10434 0.797412 
0.546893 0.130375 0.826989 
0.601301 0.178003 0.778943 
0.571306 0.210393 0.793313 
0.682499 0.284261 0.673343 
0.666983 0.32197 0.671914 
0.771938 0.4054 0.489655 
0.747102 0.449896 0.489318 
0.72229 -0.491918 0.486121 
0.63163 -0.400876 0.663583 
0.652695 -0.362101 0.665486 
0.543262 -0.276263 0.792809 
0.555713 -0.243799 0.794824 
0.447314 -0.17428 0.877233 
0.455937 -0.146309 0.877904 
0.477661 -0.117831 0.870607 
0.411589 -0.0804982 0.907808 
0.458959 -0.0562748 0.886673 
0.396747 -0.0265717 0.917543 
0.45143 -0.000618129 0.892306 
0.388064 0.0235419 0.921332 
0.437063 0.0532197 0.897855 
0.469873 0.0866513 0.878471 
0.419401 0.107182 0.901451 
0.479892 0.149093 0.864566 
0.450701 0.173705 0.875611 
0.553565 0.240927 0.797195 
0.535227 0.276835 0.798057 
0.647132 0.361941 0.670983 
0.626216 0.403119 0.667345 
0.718528 0.494188 0.489383 
0.655832 -0.575299 0.488791 
0.690367 -0.534375 0.487686 
0.604996 -0.439643 0.663847 
0.509127 -0.345017 0.788514 
0.527131 -0.312034 0.790422 
0.42666 -0.232653 0.873976 
0.437578 -0.202613 0.876056 
0.34663 -0.1433 0.926991 
0.352133 -0.119093 0.928342 
0.369883 -0.097487 0.92395 
0.306897 -0.062727 0.949673 
0.345989 -0.0455843 0.937131 
0.294017 -0.0208253 0.955573 
0.337575 -0.000111131 0.941299 
0.287162 0.018112 0.957711 
0.322783 0.0425163 0.945518 
0.361043 0.0670088 0.930139 
0.316672 0.084056 0.944804 
0.374395 0.122387 0.919157 
0.349933 0.143561 0.925709 
0.43373 0.201864 0.87814 
0.423371 0.230012 0.876272 
0.521331 0.309785 0.79514 
0.505658 0.345718 0.790436 
0.60075 0.44017 0.667345 
0.687072 0.537111 0.48933 
0.653663 0.577616 0.488963 
0.617098 -0.615956 0.489682 
0.554074 -0.517245 0.652273 
0.574339 -0.473902 0.667496 
0.485071 -0.376517 0.789266 
0.402614 -0.29358 0.867013 
0.416659 -0.261643 0.870597 
0.332251 -0.192201 0.9234 
0.340751 -0.168608 0.924911 
0.266911 -0.118077 0.95646 
0.269463 -0.0968953 0.958124 
0.27899 -0.080211 0.956938 
0.230124 -0.0512196 0.971812 
0.257019 -0.0381035 0.965655 
0.217267 -0.0171308 0.975962 
0.249042 -0.00163868 0.968491 
0.21222 0.0146149 0.977113 
0.236127 0.0317565 0.971203 
0.271239 0.056389 0.960859 
0.240815 0.0678682 0.968195 
0.284817 0.100624 0.953286 
0.26856 0.116818 0.956153 
0.33493 0.165052 0.927674 
0.325699 0.189823 0.926222 
0.406729 0.259821 0.875822 
0.400815 0.292449 0.868229 
0.479321 0.377022 0.792531 
0.566137 0.473704 0.674605 
0.550528 0.515634 0.656537 
0.615976 0.618058 0.488444 
0.576257 -0.65437 0.489619 
0.519084 -0.552574 0.652085 
0.453202 -0.452489 0.768024 
0.456714 -0.406543 0.791287 
0.381884 -0.322509 0.866113 
0.316051 -0.248181 0.915707 
0.322432 -0.218673 0.920988 
0.256137 -0.16069 0.953191 
0.259422 -0.137313 0.955953 
0.203825 -0.0964869 0.974241 
0.204657 -0.0798018 0.975575 
0.207745 -0.0627964 0.976165 
0.168412 -0.0412253 0.984854 
0.189422 -0.029718 0.981446 
0.159165 -0.0138372 0.987155 
0.184828 -0.00154271 0.98277 
0.159966 0.0120381 0.987049 
0.169782 0.0246978 0.985172 
0.200106 0.0425192 0.978851 
0.177805 0.0557931 0.982483 
0.216349 0.0793894 0.973083 
0.202954 0.0963002 0.974441 
0.256222 0.136415 0.956944 
0.250086 0.158333 0.95519 
0.313897 0.212429 0.925388 
0.311351 0.241534 0.919088 
0.370942 0.314869 0.873647 
0.443301 0.397178 0.803576 
0.454697 0.458303 0.763681 
0.519132 0.556022 0.649108 
0.575824 0.656366 0.487453 
0.534997 -0.688803 0.489213 
0.47391 -0.573057 0.668592 
0.407776 -0.457344 0.790288 
0.362707 -0.361924 0.858752 
0.306118 -0.282496 0.909114 
0.250216 -0.213457 0.944367 
0.251449 -0.184342 0.950153 
0.194151 -0.130972 0.972189 
0.200627 -0.115005 0.972894 
0.155268 -0.0793996 0.984676 
0.155113 -0.0648747 0.985764 
0.153868 -0.0511834 0.986765 
0.124812 -0.0329017 0.991635 
0.139594 -0.024325 0.98991 
0.11722 -0.0113443 0.993041 
0.134929 -0.00171118 0.990854 
0.121559 0.00830628 0.992549 
0.121943 0.020066 0.992334 
0.14843 0.0352748 0.988294 
0.133101 0.04223 0.990202 
0.164384 0.0676161 0.984076 
0.154533 0.0776733 0.98493 
0.193982 0.110342 0.97478 
0.194621 0.132687 0.971863 
0.237433 0.178802 0.954806 
0.270981 0.235319 0.933378 
0.316165 0.298302 0.900586 
0.361335 0.371791 0.855107 
0.412525 0.464881 0.783396 
0.476077 0.578329 0.662485 
0.535073 0.690668 0.486492 
0.491797 -0.720844 0.488385 
0.439483 -0.60262 0.666111 
0.376416 -0.482989 0.79059 
0.322219 -0.378939 0.867514 
0.28293 -0.305587 0.909157 
0.235787 -0.235142 0.942928 
0.192859 -0.177976 0.964951 
0.194179 -0.153132 0.96894 
0.149687 -0.110858 0.982499 
0.150085 -0.0929351 0.984295 
0.117139 -0.0670052 0.990853 
0.119886 -0.0540577 0.991315 
0.111237 -0.0409728 0.992949 
0.0915827 -0.0267287 0.995439 
0.101769 -0.0189768 0.994627 
0.0855813 -0.00892392 0.996291 
0.0991562 -0.000268686 0.995072 
0.0906027 0.00769277 0.995857 
0.0884609 0.0159609 0.995952 
0.108308 0.0277415 0.99373 
0.0986879 0.0378102 0.9944 
0.121008 0.0527347 0.99125 
0.114443 0.0629998 0.99143 
0.145292 0.0913418 0.985163 
0.148934 0.10656 0.983089 
0.172317 0.139887 0.975058 
0.211324 0.184483 0.959848 
0.229844 0.231492 0.945295 
0.276165 0.299949 0.913106 
0.321912 0.381994 0.866287 
0.376305 0.485765 0.78894 
0.440463 0.603938 0.664268 
0.493067 0.721889 0.485552 
0.447741 -0.749767 0.487214 
0.399997 -0.629195 0.66642 
0.343702 -0.507578 0.790084 
0.292127 -0.398983 0.86918 
0.247535 -0.314706 0.916344 
0.213574 -0.249198 0.944609 
0.176631 -0.190032 0.965758 
0.147647 -0.147322 0.978007 
0.146032 -0.126799 0.98112 
0.111998 -0.0905386 0.989575 
0.113476 -0.076814 0.990567 
0.0876886 -0.0528871 0.994743 
0.0915882 -0.0441795 0.994816 
0.0806261 -0.0325678 0.996212 
0.0669348 -0.0209682 0.997537 
0.0750964 -0.0153613 0.997058 
0.0621353 -0.00693204 0.998044 
0.0740657 -0.000966443 0.997253 
0.0660293 0.0066403 0.997796 
0.0646235 0.0114958 0.997844 
0.0789052 0.022332 0.996632 
0.0726869 0.0273336 0.99698 
0.0915308 0.0444955 0.994808 
0.0865149 0.0545246 0.994757 
0.108066 0.0737662 0.991403 
0.122479 0.0982223 0.987599 
0.133599 0.123744 0.98328 
0.171093 0.164966 0.971346 
0.176 0.194457 0.964992 
0.209646 0.246258 0.946259 
0.24546 0.314033 0.917133 
0.293672 0.398907 0.868694 
0.344341 0.508283 0.789353 
0.402119 0.629867 0.664506 
0.450189 0.749714 0.485035 
0.402847 -0.775357 0.48635 
0.360393 -0.650489 0.668566 
0.310192 -0.525198 0.792432 
0.260445 -0.41186 0.873235 
0.215465 -0.319807 0.922658 
0.183123 -0.245479 0.951949 
0.152973 -0.191101 0.969577 
0.119978 -0.136974 0.983282 
0.112854 -0.108508 0.987669 
0.0847172 -0.0775213 0.993385 
0.0849272 -0.064789 0.994279 
0.0663752 -0.0452804 0.996767 
0.0676572 -0.0373795 0.997008 
0.0589669 -0.0261498 0.997917 
0.0487276 -0.0170769 0.998666 
0.0545564 -0.0129258 0.998427 
0.0458853 -0.00514795 0.998933 
0.0524911 -0.00109669 0.998621 
0.0490264 0.00523522 0.998784 
0.0461024 0.0101262 0.998885 
0.0574235 0.0190959 0.998167 
0.0533616 0.0247013 0.99827 
0.0671507 0.0358072 0.9971 
0.0642545 0.0422357 0.997039 
0.079993 0.0624292 0.994839 
0.0953228 0.0831516 0.991967 
0.101625 0.102068 0.989573 
0.131076 0.142335 0.981101 
0.143499 0.179611 0.973215 
0.177769 0.240185 0.954311 
0.216108 0.316111 0.923781 
0.260017 0.411178 0.873684 
0.312719 0.523208 0.792755 
0.362453 0.650798 0.66715 
0.406036 0.774462 0.485121 
0.357719 -0.797461 0.485894 
0.321174 -0.669879 0.66941 
0.273618 -0.540459 0.795637 
0.23135 -0.426341 0.874477 
0.191169 -0.329482 0.924606 
0.158004 -0.250883 0.955035 
0.130684 -0.196342 0.971788 
0.116205 -0.153344 0.981317 
0.089993 -0.114203 0.989373 
0.0871673 -0.0960982 0.991548 
0.0661768 -0.0675531 0.995519 
0.0646955 -0.0547705 0.996401 
0.0484377 -0.037461 0.998123 
0.0512145 -0.0304868 0.998222 
0.0433653 -0.0213986 0.99883 
0.0349384 -0.0146757 0.999282 
0.0394934 -0.00995065 0.99917 
0.0327745 -0.0052448 0.999449 
0.0382696 -0.0008047 0.999267 
0.0360632 0.00295618 0.999345 
0.0323716 0.00877554 0.999437 
0.0423988 0.0130854 0.999015 
0.0390666 0.0195728 0.999045 
0.0498498 0.0298121 0.998312 
0.0481647 0.0386737 0.99809 
0.0604839 0.051757 0.996826 
0.0737082 0.0708632 0.994759 
0.076861 0.0884862 0.993108 
0.103284 0.124129 0.986876 
0.107082 0.14724 0.983287 
0.129325 0.191961 0.972844 
0.158275 0.250894 0.954988 
0.193484 0.328639 0.924424 
0.232086 0.42493 0.874969 
0.277926 0.541322 0.793554 
0.324811 0.669407 0.668125 
0.360606 0.796043 0.486084 
0.312878 -0.816234 0.485665 
0.280384 -0.685725 0.671689 
0.240473 -0.554189 0.796899 
0.200823 -0.435516 0.877494 
0.166356 -0.337176 0.926627 
0.137181 -0.25719 0.956574 
0.107739 -0.186513 0.976527 
0.0944555 -0.142774 0.985238 
0.0686105 -0.103889 0.99222 
0.0650387 -0.0808667 0.994601 
0.0491372 -0.0583985 0.997083 
0.047295 -0.0458114 0.99783 
0.0377307 -0.0331909 0.998737 
0.0371789 -0.0261609 0.998966 
0.0304378 -0.0181246 0.999372 
0.0265502 -0.011539 0.999581 
0.0285726 -0.00814369 0.999559 
0.0231803 -0.00485225 0.99972 
0.0271443 0.000851289 0.999631 
0.0246911 0.00248592 0.999692 
0.025064 0.00581978 0.999669 
0.0305711 0.0125345 0.999454 
0.0279085 0.0156955 0.999487 
0.0371217 0.0243893 0.999013 
0.0353184 0.030405 0.998913 
0.0448782 0.0442088 0.998014 
0.0561945 0.0625787 0.996457 
0.0591178 0.0768636 0.995287 
0.0773072 0.108684 0.991066 
0.0867159 0.139335 0.986441 
0.110673 0.191197 0.975292 
0.136876 0.257087 0.956646 
0.168806 0.337209 0.926172 
0.204503 0.436474 0.876167 
0.24438 0.556146 0.794343 
0.284271 0.685984 0.669787 
0.314765 0.814279 0.487723 
0.267899 -0.831917 0.485947 
0.240715 -0.69967 0.672694 
0.206441 -0.566026 0.798121 
0.170683 -0.447324 0.877934 
0.143284 -0.348811 0.926175 
0.118406 -0.269867 0.95559 
0.100627 -0.209631 0.972589 
0.0782715 -0.159511 0.984088 
0.0726954 -0.131062 0.988705 
0.0543643 -0.0919738 0.994276 
0.0517469 -0.0736802 0.995938 
0.0359504 -0.0508283 0.99806 
0.0364453 -0.0408435 0.998501 
0.0256535 -0.0272485 0.999299 
0.027492 -0.021098 0.999399 
0.0227017 -0.0149871 0.99963 
0.0177501 -0.0105744 0.999787 
0.0205418 -0.00649321 0.999768 
0.0165247 -0.0021494 0.999861 
0.020847 -0.00162909 0.999781 
0.0173604 0.00325004 0.999844 
0.0172325 0.00529925 0.999837 
0.0210579 0.009663 0.999732 
0.0218476 0.0139105 0.999665 
0.0263944 0.0212282 0.999426 
0.0266173 0.0274282 0.999269 
0.03315 0.0386226 0.998704 
0.0423471 0.0529671 0.997698 
0.0429451 0.0689093 0.996698 
0.0618003 0.0955625 0.993503 
0.0629743 0.118633 0.990939 
0.0769922 0.153391 0.985162 
0.0999196 0.203694 0.973922 
0.119916 0.269859 0.955404 
0.145482 0.348034 0.926125 
0.177397 0.454058 0.873133 
0.209567 0.567688 0.796123 
0.244106 0.701448 0.669614 
0.267879 0.829818 0.489534 
0.22319 -0.844634 0.4866 
0.20288 -0.711816 0.672427 
0.171321 -0.577073 0.798521 
0.142846 -0.4548 0.879063 
0.11707 -0.350549 0.929199 
0.0961926 -0.267146 0.958843 
0.0807738 -0.203868 0.975661 
0.0602193 -0.15234 0.986492 
0.0551567 -0.11645 0.991664 
0.0395461 -0.0844174 0.995645 
0.0366211 -0.0651174 0.997205 
0.0286396 -0.045949 0.998533 
0.0264614 -0.0351134 0.999033 
0.0199458 -0.0244124 0.999503 
0.0201792 -0.0199794 0.999597 
0.0161194 -0.012848 0.999788 
0.0132905 -0.00757802 0.999883 
0.0142486 -0.00709605 0.999873 
0.012298 -0.0033579 0.999919 
0.0128009 -0.000787821 0.999918 
0.0129508 0.00159596 0.999915 
0.0120662 0.00415541 0.999919 
0.0152039 0.00783008 0.999854 
0.0137063 0.0111799 0.999844 
0.0194522 0.0178567 0.999651 
0.0190515 0.0231595 0.99955 
0.0242371 0.0339168 0.999131 
0.0324614 0.048442 0.998298 
0.0336895 0.0611011 0.997563 
0.0447561 0.0867848 0.995221 
0.0503796 0.114687 0.992123 
0.0659959 0.158199 0.985199 
0.0835406 0.213951 0.973266 
0.097615 0.274279 0.956683 
0.126858 0.362894 0.923155 
0.143571 0.459824 0.876327 
0.176404 0.580312 0.79506 
0.202652 0.710992 0.673366 
0.220555 0.842454 0.491555 
0.175976 -0.854308 0.489071 
0.167099 -0.737006 0.654905 
0.139685 -0.605916 0.783169 
0.118053 -0.478068 0.870353 
0.0947208 -0.366166 0.925716 
0.0773067 -0.275181 0.958279 
0.0639553 -0.201517 0.977395 
0.044928 -0.143465 0.988635 
0.0419976 -0.109167 0.993136 
0.0295001 -0.0775932 0.996549 
0.0282051 -0.0589753 0.997861 
0.0183952 -0.0416484 0.998963 
0.0190475 -0.0323246 0.999296 
0.0137341 -0.0219567 0.999665 
0.0139322 -0.0158412 0.999777 
0.0105442 -0.0114571 0.999879 
0.00949262 -0.00869754 0.999917 
0.0104332 -0.00422601 0.999937 
0.00709129 -0.0029768 0.99997 
0.010294 2.06087e-05 0.999947 
0.00937219 0.001129 0.999955 
0.00694535 0.00398675 0.999968 
0.0118957 0.00755837 0.999901 
0.0102364 0.0101218 0.999896 
0.0140123 0.0155601 0.999781 
0.0134131 0.0218838 0.999671 
0.0178465 0.0297552 0.999398 
0.0222215 0.0425088 0.998849 
0.023847 0.0576329 0.998053 
0.0344979 0.0813173 0.996091 
0.0345362 0.106258 0.993739 
0.0495541 0.145438 0.988126 
0.0655863 0.197536 0.978099 
0.0706913 0.258284 0.963479 
0.0991364 0.346349 0.932853 
0.109211 0.44735 0.887666 
0.140091 0.578165 0.803804 
0.159713 0.716168 0.679408 
0.173303 0.852488 0.493184 
0.133785 -0.860914 0.490845 
0.119974 -0.699264 0.704724 
0.0962187 -0.540843 0.835602 
0.0759396 -0.409635 0.909083 
0.06387 -0.308086 0.949212 
0.0515962 -0.23057 0.971687 
0.0427822 -0.175504 0.983549 
0.0311518 -0.133183 0.990602 
0.0302898 -0.10232 0.99429 
0.0197357 -0.0728758 0.997146 
0.0202978 -0.0551996 0.998269 
0.0141354 -0.0386098 0.999154 
0.0139061 -0.0278589 0.999515 
0.00899864 -0.020199 0.999755 
0.0103649 -0.0148873 0.999835 
0.00829343 -0.0100696 0.999915 
0.00562087 -0.00574611 0.999968 
0.00647293 -0.00452573 0.999969 
0.00704667 -0.00193392 0.999973 
0.00566144 -0.00066575 0.999984 
0.00553107 0.0016328 0.999983 
0.00714274 0.00286905 0.99997 
0.00719919 0.00508471 0.999961 
0.00718087 0.00944711 0.99993 
0.00962868 0.0136061 0.999861 
0.00866853 0.0185564 0.99979 
0.0124457 0.0278132 0.999536 
0.0172353 0.0405794 0.999028 
0.0155093 0.0520993 0.998521 
0.0252152 0.0751558 0.996853 
0.0263146 0.0989363 0.994746 
0.032808 0.136746 0.990063 
0.0471328 0.186148 0.981391 
0.0493856 0.245817 0.968057 
0.0721375 0.330462 0.941059 
0.0753624 0.426526 0.90133 
0.0986677 0.548358 0.830402 
0.118835 0.704162 0.700025 
0.129089 0.860265 0.493235 
0.087513 -0.865266 0.493615 
0.0852962 -0.742981 0.663855 
0.0693587 -0.597153 0.799123 
0.0575804 -0.458205 0.88698 
0.0447484 -0.340951 0.939015 
0.0356914 -0.250469 0.967466 
0.0302544 -0.182153 0.982805 
0.0189655 -0.128691 0.991503 
0.0196152 -0.0959378 0.995194 
0.0134979 -0.0693205 0.997503 
0.01243 -0.0511352 0.998614 
0.00854398 -0.0364438 0.999299 
0.00812533 -0.0277084 0.999583 
0.00683989 -0.0181163 0.999812 
0.00561275 -0.0136784 0.999891 
0.00438046 -0.00960596 0.999944 
0.00415681 -0.00633387 0.999971 
0.00416032 -0.00507577 0.999978 
0.00169174 -0.00163511 0.999997 
0.00481933 -0.00118035 0.999988 
0.00336866 0.00123799 0.999994 
0.00249341 0.00307526 0.999992 
0.00378678 0.00631075 0.999973 
0.0039399 0.00728783 0.999966 
0.00613842 0.0132642 0.999893 
0.00663991 0.018229 0.999812 
0.0065702 0.026102 0.999638 
0.0108266 0.0357836 0.999301 
0.0116826 0.0512885 0.998616 
0.0146857 0.0710628 0.997364 
0.0139947 0.095863 0.995296 
0.0221341 0.130249 0.991234 
0.0329453 0.18032 0.983056 
0.0305016 0.237834 0.970827 
0.0492506 0.323345 0.944999 
0.0500234 0.434231 0.899411 
0.068573 0.581152 0.810901 
0.0804278 0.732518 0.67598 
0.0835182 0.865347 0.494166 
0.0456498 -0.869112 0.492504 
0.041762 -0.694835 0.717956 
0.033039 -0.530939 0.846765 
0.0247437 -0.394774 0.918445 
0.0212788 -0.292371 0.956068 
0.0175612 -0.217261 0.975956 
0.0156203 -0.164111 0.986318 
0.0071529 -0.125778 0.992033 
0.0107252 -0.0937373 0.995539 
0.00468178 -0.0675002 0.997708 
0.0067158 -0.0499515 0.998729 
0.00347231 -0.0353275 0.99937 
0.00484979 -0.0247116 0.999683 
0.00162274 -0.0186812 0.999824 
0.00392667 -0.0124753 0.999914 
0.00298935 -0.00845221 0.99996 
0.00105512 -0.00659925 0.999978 
0.00339935 -0.00284569 0.99999 
0.00269794 -0.00336768 0.999991 
0.00207728 0.000155593 0.999998 
0.00271626 0.000560407 0.999996 
0.00135705 0.00283806 0.999995 
0.00406095 0.00442859 0.999982 
0.00231797 0.00898127 0.999957 
0.00259047 0.0117662 0.999927 
0.00146852 0.0166897 0.99986 
0.00466747 0.0250968 0.999674 
0.00529261 0.0359424 0.99934 
0.00294054 0.0479025 0.998848 
0.00895874 0.0676758 0.997667 
0.00546031 0.0934617 0.995608 
0.0113029 0.127876 0.991726 
0.0165927 0.174822 0.98446 
0.0135117 0.236576 0.971519 
0.0270436 0.319629 0.947157 
0.0211411 0.411994 0.910941 
0.0319464 0.537753 0.842497 
0.0376492 0.69434 0.718661 
0.0414955 0.869451 0.492274 
0.00390644 -0.871061 0.491159 
0.00291711 -0.745118 0.666926 
0.00229525 -0.596657 0.802493 
0.00285487 -0.452986 0.891513 
0.00146266 -0.334492 0.942397 
0.0010044 -0.243159 0.969986 
0.00182942 -0.175564 0.984466 
-0.00180187 -0.125822 0.992051 
0.00336774 -0.0917296 0.995778 
-0.00197357 -0.0673289 0.997729 
0.00295829 -0.0482889 0.998829 
-0.00155251 -0.0347354 0.999395 
0.00163776 -0.0260076 0.99966 
4.01461e-06 -0.0163934 0.999866 
0.000780248 -0.0130797 0.999914 
0.000148598 -0.00831999 0.999965 
0.000329123 -0.00539661 0.999985 
-0.000429732 -0.00348762 0.999994 
-0.0006608 -0.00115102 0.999999 
0.000625397 -4.73246e-05 1 
-0.00031031 0.00111357 0.999999 
0.000421292 0.002896 0.999996 
-0.000807317 0.00539035 0.999985 
-0.00116823 0.00683036 0.999976 
0.00168387 0.0122346 0.999924 
-0.00120696 0.0180985 0.999835 
0.000116979 0.024052 0.999711 
0.00175162 0.0339311 0.999423 
-0.000967894 0.0493001 0.998784 
0.00257045 0.0679956 0.997682 
-0.0026315 0.0919365 0.995761 
-0.000142561 0.127975 0.991777 
0.00479939 0.172873 0.984932 
-0.00336423 0.233553 0.972338 
0.00556329 0.315789 0.948813 
-0.00441503 0.431284 0.902205 
0.000250917 0.58129 0.813696 
0.000392784 0.739233 0.673449 
7.29834e-05 0.871981 0.48954 
-0.0383858 -0.867754 0.49551 
-0.0350848 -0.695571 0.7176 
-0.0283801 -0.529317 0.84795 
-0.023735 -0.396127 0.917889 
-0.0173481 -0.292678 0.956054 
-0.0154746 -0.217276 0.975988 
-0.010467 -0.165474 0.986159 
-0.0132426 -0.127259 0.991781 
-0.00719308 -0.0934366 0.995599 
-0.00692419 -0.068311 0.99764 
-0.00486088 -0.0497274 0.998751 
-0.0038133 -0.0359718 0.999346 
-0.00222688 -0.0246124 0.999695 
-0.00366749 -0.0195799 0.999802 
-0.000652173 -0.0122559 0.999925 
-0.00209327 -0.00936049 0.999954 
-0.00228428 -0.00549175 0.999982 
0.000780872 -0.00476738 0.999988 
-0.00207117 -0.00121896 0.999997 
0.000248274 -0.00153606 0.999999 
-0.00155247 0.00174016 0.999997 
-0.00200893 0.00252198 0.999995 
0.000458596 0.00471985 0.999989 
-0.00190611 0.00934326 0.999955 
-0.00138845 0.0111336 0.999937 
-0.0025607 0.0174257 0.999845 
-0.00406105 0.0248558 0.999683 
-0.00310193 0.035732 0.999357 
-0.00594352 0.047744 0.998842 
-0.00669015 0.0675142 0.997696 
-0.0101475 0.0952643 0.9954 
-0.0116802 0.127328 0.991792 