# vtk DataFile Version 3.0 
Exported using Morpho https://github.com/Morpho-lang/morpho 
ASCII 
DATASET UNSTRUCTURED_GRID 

POINTS 1245 float 
-0.304038 -0.95266 0 
-0.251441 -0.967873 0 
-0.196599 -0.980484 0 
-0.147939 -0.988996 0 
-0.096254 -0.995357 0 
-0.0483601 -0.99883 0 
-0.000451504 -1 0 
0.0482414 -0.998836 0 
0.0956209 -0.995418 0 
0.145924 -0.989296 0 
0.198694 -0.980062 0 
0.248343 -0.968672 0 
0.30399 -0.952675 0 
-0.409672 -0.912233 0 
-0.356859 -0.934158 0 
-0.307625 -0.898571 0 
-0.256611 -0.914841 0 
-0.205389 -0.933372 0 
-0.153069 -0.927934 0 
-0.102396 -0.94791 0 
-0.0498583 -0.935106 0 
0.00142854 -0.953377 0 
0.052561 -0.9331 0 
0.104134 -0.942389 0 
0.156872 -0.938823 0 
0.206982 -0.919507 0 
0.258749 -0.920951 0 
0.310446 -0.900065 0 
0.357716 -0.93383 0 
0.410714 -0.911764 0 
-0.51437 -0.857568 0 
-0.462407 -0.886668 0 
-0.411015 -0.857376 0 
-0.359501 -0.879663 0 
-0.305707 -0.84665 0 
-0.253622 -0.86425 0 
-0.200473 -0.885626 0 
-0.148805 -0.868805 0 
-0.0992128 -0.89633 0 
-0.0484472 -0.873916 0 
0.00154915 -0.899374 0 
0.0506565 -0.870008 0 
0.099584 -0.888189 0 
0.15259 -0.889657 0 
0.203706 -0.862941 0 
0.255384 -0.874358 0 
0.307954 -0.849391 0 
0.361689 -0.879386 0 
0.412615 -0.856642 0 
0.46325 -0.886228 0 
0.514942 -0.857225 0 
-0.565364 -0.824841 0 
-0.512807 -0.802464 0 
-0.462454 -0.831649 0 
-0.409305 -0.803744 0 
-0.35814 -0.826779 0 
-0.304287 -0.794815 0 
-0.252533 -0.812725 0 
-0.199644 -0.834469 0 
-0.148659 -0.811689 0 
-0.0980329 -0.840437 0 
-0.0486484 -0.814709 0 
0.00110327 -0.841666 0 
0.0507222 -0.810511 0 
0.10012 -0.830521 0 
0.151601 -0.838979 0 
0.201398 -0.807576 0 
0.253879 -0.824556 0 
0.305585 -0.798078 0 
0.359663 -0.826545 0 
0.410331 -0.802786 0 
0.463256 -0.830671 0 
0.513382 -0.802055 0 
0.565855 -0.824505 0 
-0.661127 -0.750274 0 
-0.614521 -0.7889 0 
-0.561833 -0.769262 0 
-0.50964 -0.747742 0 
-0.460175 -0.777438 0 
-0.407225 -0.750461 0 
-0.356449 -0.774194 0 
-0.303021 -0.743169 0 
-0.251726 -0.760737 0 
-0.199698 -0.781574 0 
-0.149469 -0.755674 0 
-0.0987361 -0.784111 0 
-0.0495663 -0.757521 0 
0.00074427 -0.784506 0 
0.0499021 -0.753017 0 
0.0986422 -0.771593 0 
0.148465 -0.786798 0 
0.198905 -0.753762 0 
0.25178 -0.773224 0 
0.303018 -0.746409 0 
0.356897 -0.773838 0 
0.407278 -0.749476 0 
0.460508 -0.775969 0 
0.509912 -0.747635 0 
0.562265 -0.768427 0 
0.614899 -0.788606 0 
0.660916 -0.75046 0 
-0.707137 -0.707076 0 
-0.654232 -0.698242 0 
-0.60786 -0.732501 0 
-0.557385 -0.712939 0 
-0.507468 -0.693124 0 
-0.457791 -0.723521 0 
-0.40534 -0.697562 0 
-0.354815 -0.72183 0 
-0.302133 -0.691777 0 
-0.251077 -0.708675 0 
-0.199931 -0.727612 0 
-0.150301 -0.700335 0 
-0.0999236 -0.728385 0 
-0.051087 -0.701823 0 
-0.000421628 -0.728505 0 
0.0495464 -0.698598 0 
0.0984035 -0.713168 0 
0.147599 -0.732599 0 
0.197896 -0.700126 0 
0.250029 -0.721435 0 
0.301757 -0.694342 0 
0.353927 -0.721143 0 
0.403704 -0.696683 0 
0.456847 -0.721566 0 
0.505628 -0.694419 0 
0.557407 -0.711375 0 
0.607266 -0.730582 0 
0.652491 -0.698197 0 
0.706565 -0.707648 0 
-0.750394 -0.660991 0 
-0.698464 -0.654201 0 
-0.647093 -0.646808 0 
-0.60217 -0.67432 0 
-0.556909 -0.655804 0 
-0.506644 -0.64072 0 
-0.455848 -0.670392 0 
-0.404184 -0.645105 0 
-0.353627 -0.669626 0 
-0.301541 -0.640968 0 
-0.250517 -0.65732 0 
-0.200181 -0.673083 0 
-0.151003 -0.645606 0 
-0.100944 -0.673231 0 
-0.0519388 -0.647066 0 
-0.00212132 -0.674276 0 
0.047866 -0.647977 0 
0.0973944 -0.654915 0 
0.14682 -0.677634 0 
0.197663 -0.647208 0 
0.249531 -0.669554 0 
0.301392 -0.642514 0 
0.353151 -0.66764 0 
0.404352 -0.642769 0 
0.451679 -0.667224 0 
0.497353 -0.643748 0 
0.550472 -0.654874 0 
0.599514 -0.669274 0 
0.647435 -0.648156 0 
0.698584 -0.655155 0 
0.750179 -0.661235 0 
-0.789039 -0.614343 0 
-0.732835 -0.607626 0 
-0.675089 -0.602016 0 
-0.61271 -0.611831 0 
-0.56007 -0.604859 0 
-0.506586 -0.591159 0 
-0.4548 -0.618267 0 
-0.402585 -0.593363 0 
-0.352885 -0.617892 0 
-0.301898 -0.590774 0 
-0.249931 -0.607445 0 
-0.20047 -0.618026 0 
-0.152094 -0.591572 0 
-0.101636 -0.618979 0 
-0.0515543 -0.593574 0 
-0.00244032 -0.620678 0 
0.0493493 -0.600163 0 
0.0984462 -0.59791 0 
0.147214 -0.623273 0 
0.19846 -0.594491 0 
0.248849 -0.617954 0 
0.29924 -0.591281 0 
0.352315 -0.614754 0 
0.403831 -0.593284 0 
0.455787 -0.608592 0 
0.520167 -0.601585 0 
0.571237 -0.605653 0 
0.620059 -0.607814 0 
0.678676 -0.602486 0 
0.734122 -0.607948 0 
0.789144 -0.614208 0 
-0.824938 -0.565223 0 
-0.769277 -0.561556 0 
-0.712842 -0.556856 0 
-0.655558 -0.556882 0 
-0.604723 -0.559782 0 
-0.552376 -0.552301 0 
-0.499741 -0.541558 0 
-0.452146 -0.567692 0 
-0.399788 -0.54198 0 
-0.351333 -0.566006 0 
-0.301369 -0.539423 0 
-0.251944 -0.559984 0 
-0.202344 -0.562389 0 
-0.151729 -0.539373 0 
-0.101412 -0.56624 0 
-0.0504147 -0.541753 0 
-0.000400428 -0.568612 0 
0.0512066 -0.551572 0 
0.100052 -0.542814 0 
0.148635 -0.569469 0 
0.199383 -0.542248 0 
0.24951 -0.565612 0 
0.300492 -0.537743 0 
0.346797 -0.563054 0 
0.392054 -0.54738 0 
0.444834 -0.550376 0 
0.492055 -0.564982 0 
0.548979 -0.550909 0 
0.602765 -0.5553 0 
0.655752 -0.556591 0 
0.713249 -0.556635 0 
0.769373 -0.561367 0 
0.824922 -0.565247 0 
-0.857615 -0.514292 0 
-0.802388 -0.512635 0 
-0.747487 -0.509447 0 
-0.692481 -0.506961 0 
-0.640359 -0.506188 0 
-0.590701 -0.507101 0 
-0.539866 -0.49886 0 
-0.492526 -0.491066 0 
-0.44688 -0.51632 0 
-0.399236 -0.489206 0 
-0.350286 -0.513725 0 
-0.298979 -0.489497 0 
-0.247977 -0.513509 0 
-0.199703 -0.507566 0 
-0.150161 -0.487331 0 
-0.10059 -0.514616 0 
-0.049804 -0.490619 0 
0.000625811 -0.517509 0 
0.0508042 -0.501589 0 
0.0999639 -0.489781 0 
0.149517 -0.516323 0 
0.199861 -0.49053 0 
0.249857 -0.513971 0 
0.301105 -0.486926 0 
0.350992 -0.50621 0 
0.406179 -0.503633 0 
0.453702 -0.495579 0 
0.499381 -0.517896 0 
0.54509 -0.495628 0 
0.589875 -0.502992 0 
0.639769 -0.505125 0 
0.692133 -0.507178 0 
0.747231 -0.509351 0 
0.802239 -0.512834 0 
0.8575 -0.514485 0 
-0.886692 -0.462362 0 
-0.831447 -0.46229 0 
-0.776968 -0.459992 0 
-0.722557 -0.457864 0 
-0.668309 -0.454847 0 
-0.615699 -0.454692 0 
-0.563442 -0.455041 0 
-0.504959 -0.444494 0 
-0.448651 -0.462232 0 
-0.399535 -0.438236 0 
-0.349128 -0.46264 0 
-0.299137 -0.439068 0 
-0.248305 -0.464591 0 
-0.199624 -0.454437 0 
-0.150124 -0.436363 0 
-0.0998408 -0.463181 0 
-0.0495775 -0.439683 0 
0.000657363 -0.466432 0 
0.050398 -0.45109 0 
0.0997795 -0.438004 0 
0.14961 -0.46426 0 
0.20006 -0.439543 0 
0.250155 -0.462985 0 
0.300624 -0.436016 0 
0.349741 -0.453489 0 
0.398431 -0.460711 0 
0.448861 -0.444362 0 
0.501772 -0.463516 0 
0.556306 -0.446047 0 
0.610655 -0.453181 0 
0.665731 -0.455702 0 
0.720992 -0.458228 0 
0.776173 -0.460571 0 
0.831102 -0.462917 0 
0.886543 -0.462645 0 
-0.912236 -0.409665 0 
-0.857204 -0.410967 0 
-0.803392 -0.409217 0 
-0.74994 -0.407407 0 
-0.696663 -0.406178 0 
-0.642836 -0.402615 0 
-0.594083 -0.40314 0 
-0.543712 -0.409305 0 
-0.498184 -0.388941 0 
-0.452699 -0.414143 0 
-0.401283 -0.388854 0 
-0.349739 -0.411899 0 
-0.299455 -0.388886 0 
-0.248771 -0.414704 0 
-0.199804 -0.40237 0 
-0.150194 -0.385975 0 
-0.0998826 -0.412316 0 
-0.0496331 -0.389139 0 
0.000643541 -0.415495 0 
0.0502079 -0.40057 0 
0.099715 -0.387048 0 
0.149647 -0.41299 0 
0.200027 -0.388895 0 
0.250027 -0.412129 0 
0.301055 -0.385878 0 
0.350404 -0.401986 0 
0.40041 -0.412751 0 
0.450882 -0.391618 0 
0.499731 -0.416383 0 
0.544034 -0.393568 0 
0.59137 -0.399783 0 
0.642288 -0.404278 0 
0.695365 -0.407079 0 
0.749328 -0.408637 0 
0.803118 -0.410657 0 
0.857365 -0.412146 0 
0.912211 -0.40972 0 
-0.934162 -0.35685 0 
-0.879422 -0.35942 0 
-0.826293 -0.357958 0 
-0.773333 -0.356351 0 
-0.720158 -0.355668 0 
-0.665775 -0.356607 0 
-0.607138 -0.350008 0 
-0.553621 -0.361137 0 
-0.5022 -0.339404 0 
-0.449669 -0.361737 0 
-0.400008 -0.33791 0 
-0.350294 -0.361968 0 
-0.299735 -0.338845 0 
-0.249149 -0.364486 0 
-0.19989 -0.351123 0 
-0.150231 -0.335907 0 
-0.0999158 -0.361809 0 
-0.0496591 -0.338853 0 
0.000579022 -0.364807 0 
0.0501213 -0.350175 0 
0.0996736 -0.336536 0 
0.149689 -0.362171 0 
0.200173 -0.338592 0 
0.250216 -0.361805 0 
0.300977 -0.33584 0 
0.350317 -0.350432 0 
0.400031 -0.363711 0 
0.449445 -0.340113 0 
0.500426 -0.362497 0 
0.556035 -0.344079 0 
0.610296 -0.352686 0 
0.6665 -0.355417 0 
0.719677 -0.357923 0 
0.773735 -0.358184 0 
0.826983 -0.360351 0 
0.879942 -0.360326 0 
0.934344 -0.356372 0 
-0.952661 -0.304036 0 
-0.898427 -0.307629 0 
-0.846493 -0.305546 0 
-0.794931 -0.304029 0 
-0.743864 -0.303138 0 
-0.693611 -0.30459 0 
-0.643467 -0.30958 0 
-0.599353 -0.290969 0 
-0.55443 -0.313997 0 
-0.503336 -0.288984 0 
-0.45199 -0.311834 0 
-0.401101 -0.288191 0 
-0.349902 -0.311422 0 
-0.299643 -0.288622 0 
-0.249349 -0.314247 0 
-0.199915 -0.300435 0 
-0.150269 -0.285978 0 
-0.0999683 -0.311532 0 
-0.0497289 -0.288717 0 
0.000527779 -0.314369 0 
0.0500741 -0.299964 0 
0.0996409 -0.286337 0 
0.149787 -0.311716 0 
0.200238 -0.28842 0 
0.250326 -0.311555 0 
0.301235 -0.286006 0 
0.350591 -0.299681 0 
0.400449 -0.31341 0 
0.451856 -0.289027 0 
0.501314 -0.314699 0 
0.544921 -0.289691 0 
0.590901 -0.297941 0 
0.640135 -0.307218 0 
0.69435 -0.304347 0 
0.742809 -0.307966 0 
0.7979 -0.307375 0 
0.847482 -0.307936 0 
0.899876 -0.308548 0 
0.953167 -0.302446 0 
-0.967863 -0.251479 0 
-0.914487 -0.256648 0 
-0.863556 -0.253418 0 
-0.811732 -0.251971 0 
-0.759393 -0.251316 0 
-0.706493 -0.252194 0 
-0.653718 -0.258815 0 
-0.607533 -0.238533 0 
-0.553063 -0.261024 0 
-0.502377 -0.238056 0 
-0.452064 -0.261845 0 
-0.401205 -0.238175 0 
-0.350516 -0.261491 0 
-0.299965 -0.238667 0 
-0.249417 -0.263974 0 
-0.199916 -0.250071 0 
-0.150304 -0.236053 0 
-0.100036 -0.261399 0 
-0.0497663 -0.238671 0 
0.000445464 -0.264099 0 
0.0500404 -0.249853 0 
0.0996125 -0.23625 0 
0.149834 -0.261487 0 
0.200323 -0.238399 0 
0.25055 -0.261503 0 
0.301452 -0.23621 0 
0.351157 -0.249436 0 
0.401482 -0.263625 0 
0.451962 -0.237781 0 
0.501557 -0.260261 0 
[...]
POINT_DATA 1245 
VECTORS vectors float
0.691088 -0.245697 0.679728 
0.689536 -0.214385 0.691794 
0.685849 -0.17024 0.707552 
0.685524 -0.125676 0.717121 
0.689018 -0.0777523 0.720561 
0.689395 -0.0358082 0.7235 
0.696756 0.0067333 0.717277 
0.699674 0.0426273 0.713189 
0.699621 0.0764228 0.710415 
0.700162 0.113181 0.704957 
0.697953 0.149386 0.700389 
0.691869 0.180199 0.699175 
0.681635 0.218312 0.698365 
0.675572 -0.29863 0.674109 
0.687497 -0.272648 0.673061 
0.528911 -0.199215 0.824965 
0.528287 -0.170037 0.831866 
0.540935 -0.143169 0.82879 
0.49521 -0.100192 0.862976 
0.534388 -0.071758 0.842188 
0.48533 -0.0282998 0.873873 
0.541926 -0.000276962 0.840426 
0.48377 0.0323117 0.874598 
0.528794 0.0654525 0.846223 
0.540362 0.0953581 0.836012 
0.505243 0.116301 0.855105 
0.547699 0.157574 0.821703 
0.524203 0.174808 0.833459 
0.668985 0.254112 0.698488 
0.652139 0.293139 0.699131 
0.627963 -0.361123 0.689386 
0.655178 -0.327321 0.680884 
0.51406 -0.240973 0.82321 
0.523967 -0.218237 0.823305 
0.385177 -0.145512 0.911298 
0.390263 -0.129304 0.911578 
0.409273 -0.115077 0.905126 
0.339565 -0.0682323 0.938104 
0.389489 -0.0546691 0.919407 
0.32836 -0.0219119 0.944298 
0.385757 0.00346376 0.922594 
0.323067 0.0184385 0.946196 
0.375183 0.0450669 0.925855 
0.395547 0.0733811 0.91551 
0.354982 0.0820956 0.931262 
0.407725 0.122648 0.90483 
0.384674 0.140828 0.912246 
0.503154 0.211684 0.83787 
0.494886 0.235636 0.836399 
0.632444 0.334052 0.698873 
0.614012 0.371917 0.69618 
0.598278 -0.398362 0.695249 
0.479921 -0.292794 0.827011 
0.497873 -0.265094 0.825741 
0.376267 -0.185077 0.907838 
0.384244 -0.169281 0.907579 
0.276904 -0.112743 0.954261 
0.27691 -0.0968351 0.956004 
0.287962 -0.0795536 0.954332 
0.23278 -0.0542697 0.971014 
0.265727 -0.0381136 0.963295 
0.216769 -0.0198507 0.976021 
0.260764 -0.00220273 0.9654 
0.209722 0.0126782 0.977679 
0.251814 0.0311218 0.967275 
0.28129 0.0538251 0.958112 
0.24197 0.0642133 0.968156 
0.294658 0.0884492 0.951501 
0.269923 0.102684 0.957391 
0.372628 0.158944 0.914268 
0.35526 0.185052 0.916268 
0.48193 0.268935 0.833917 
0.464418 0.303947 0.831825 
0.592257 0.409087 0.694175 
0.539567 -0.474358 0.695595 
0.568591 -0.437149 0.696853 
0.453837 -0.326444 0.829136 
0.347252 -0.229213 0.909328 
0.361323 -0.209759 0.908541 
0.264427 -0.14166 0.953945 
0.269721 -0.123084 0.95504 
0.190384 -0.0785654 0.978561 
0.191091 -0.0682863 0.979194 
0.202114 -0.0578966 0.977649 
0.149355 -0.0341054 0.988195 
0.17787 -0.0257295 0.983718 
0.139483 -0.0110135 0.990163 
0.171098 0.000708343 0.985254 
0.136471 0.00719881 0.990618 
0.161613 0.0229025 0.986588 
0.192764 0.0307208 0.980764 
0.156888 0.0419089 0.986727 
0.208397 0.0653289 0.97586 
0.189121 0.0781025 0.978843 
0.261402 0.11884 0.957886 
0.255435 0.138111 0.956911 
0.351299 0.208112 0.912841 
0.340108 0.232175 0.911275 
0.451405 0.327148 0.830185 
0.567012 0.442969 0.69446 
0.538919 0.474934 0.695704 
0.508406 -0.509201 0.694433 
0.417287 -0.388945 0.821336 
0.42971 -0.35171 0.831655 
0.328474 -0.250812 0.910603 
0.250164 -0.17957 0.951405 
0.259494 -0.1556 0.953127 
0.185093 -0.102005 0.977413 
0.190795 -0.0932097 0.977194 
0.130085 -0.059484 0.989717 
0.128967 -0.0472119 0.990524 
0.134284 -0.0439488 0.989968 
0.10125 -0.0247461 0.994553 
0.114776 -0.0219149 0.99315 
0.0902413 -0.00833172 0.995885 
0.107654 -0.00434177 0.994179 
0.0853374 0.00480138 0.996341 
0.103501 0.0117033 0.99456 
0.125272 0.0275839 0.991739 
0.110631 0.0274874 0.993481 
0.137157 0.0469701 0.989435 
0.128707 0.0539626 0.990213 
0.17882 0.0853685 0.980171 
0.174305 0.102434 0.979349 
0.244468 0.15582 0.957056 
0.245834 0.179804 0.95249 
0.32379 0.256124 0.910802 
0.417797 0.353511 0.836944 
0.410972 0.386946 0.825454 
0.504416 0.511521 0.695637 
0.476434 -0.539204 0.694457 
0.393678 -0.413466 0.821014 
0.312059 -0.311264 0.897627 
0.307636 -0.273601 0.911319 
0.236942 -0.197221 0.951295 
0.176141 -0.135181 0.975039 
0.177267 -0.118058 0.977056 
0.127123 -0.0795575 0.988691 
0.123594 -0.0642539 0.99025 
0.0866754 -0.0383005 0.9955 
0.0872327 -0.035911 0.99554 
0.0846928 -0.0250875 0.996091 
0.060475 -0.0161266 0.998039 
0.072191 -0.0127579 0.997309 
0.0551637 -0.00530036 0.998463 
0.0709285 -0.00212364 0.997479 
0.0557776 0.00483967 0.998431 
0.0605927 0.00714031 0.998137 
0.0799509 0.0141678 0.996698 
0.0652504 0.0219502 0.997627 
0.091218 0.0293776 0.995398 
0.0835401 0.0389126 0.995744 
0.123065 0.0634727 0.990367 
0.118641 0.0747307 0.990121 
0.170748 0.111616 0.978972 
0.168344 0.132022 0.976847 
0.221637 0.190639 0.956313 
0.296782 0.263735 0.917804 
0.313677 0.320832 0.893686 
0.387569 0.421113 0.820033 
0.47004 0.547422 0.692382 
0.441525 -0.565995 0.696208 
0.351515 -0.428316 0.832456 
0.276222 -0.311076 0.909359 
0.226413 -0.225827 0.947491 
0.171436 -0.155472 0.972851 
0.126897 -0.10724 0.986102 
0.124949 -0.0891177 0.988153 
0.0812991 -0.0512447 0.995372 
0.0900552 -0.0495772 0.994702 
0.0562482 -0.0281546 0.99802 
0.0559669 -0.0237818 0.998149 
0.0550594 -0.0198529 0.998286 
0.0410958 -0.0108952 0.999096 
0.0459232 -0.00973641 0.998898 
0.0352589 -0.00567448 0.999362 
0.0412422 -0.0018392 0.999147 
0.0382713 -0.000752282 0.999267 
0.0364992 0.00440689 0.999324 
0.051592 0.0115869 0.998601 
0.0430873 0.00677046 0.999048 
0.062581 0.0270671 0.997673 
0.0574461 0.0248943 0.998038 
0.0795914 0.0413305 0.99597 
0.0837825 0.0565455 0.994878 
0.112688 0.0843733 0.990042 
0.143301 0.124315 0.98184 
0.181327 0.169754 0.968661 
0.222495 0.235609 0.946036 
0.279566 0.31815 0.905883 
0.354355 0.439489 0.825398 
0.438262 0.578193 0.6882 
0.40267 -0.592638 0.697594 
0.330591 -0.44654 0.831452 
0.254613 -0.326817 0.910144 
0.195836 -0.227206 0.953953 
0.160346 -0.172725 0.971831 
0.12018 -0.119091 0.985583 
0.0858555 -0.0789778 0.993172 
0.0874478 -0.0643631 0.994088 
0.0575621 -0.043643 0.997388 
0.0542213 -0.0317504 0.998024 
0.0365247 -0.0234297 0.999058 
0.0383041 -0.014216 0.999165 
0.0309433 -0.0117032 0.999453 
0.024825 -0.00718144 0.999666 
0.0264363 -0.00488557 0.999639 
0.022241 -0.00234364 0.99975 
0.02553 -0.000361294 0.999674 
0.0228673 0.00156611 0.999737 
0.0213129 0.00160918 0.999772 
0.0323308 0.00708181 0.999452 
0.0270395 0.0109866 0.999574 
0.036278 0.0121024 0.999268 
0.0334582 0.0154975 0.99932 
0.0513701 0.0340505 0.998099 
0.0540687 0.0362993 0.997877 
0.0695374 0.0545194 0.996088 
0.0984486 0.0855999 0.991454 
0.112616 0.117093 0.986715 
0.154861 0.167785 0.973584 
0.195853 0.237708 0.951387 
0.252593 0.33452 0.907906 
0.332405 0.458171 0.824371 
0.40725 0.604103 0.684986 
0.363008 -0.619189 0.696297 
0.292975 -0.47224 0.831357 
0.228023 -0.343924 0.91089 
0.177742 -0.244215 0.953292 
0.136434 -0.176657 0.974771 
0.106139 -0.124175 0.986567 
0.078975 -0.0830355 0.993412 
0.0587381 -0.0563924 0.996679 
0.0540482 -0.0476093 0.997403 
0.0359993 -0.0258509 0.999017 
0.037315 -0.0217291 0.999067 
0.0239297 -0.0107413 0.999656 
0.0268399 -0.01104 0.999579 
0.0193621 -0.00827107 0.999778 
0.0151437 -0.00462544 0.999875 
0.0169208 -0.00375544 0.99985 
0.0118029 -0.00196429 0.999928 
0.0193986 -0.00283177 0.999808 
0.0132023 0.00207907 0.999911 
0.0152818 -0.00238525 0.99988 
0.01897 0.00442724 0.99981 
0.0162422 0.00100535 0.999868 
0.0267442 0.0115977 0.999575 
0.0229525 0.0141841 0.999636 
0.0352721 0.0185396 0.999206 
0.0412345 0.0297421 0.998707 
0.0480018 0.0465026 0.997764 
0.0720134 0.0681944 0.99507 
0.079097 0.0867477 0.993085 
0.104807 0.124626 0.986653 
0.13515 0.176346 0.975006 
0.181712 0.246425 0.951974 
0.231474 0.350681 0.907437 
0.302257 0.4779 0.824774 
0.374688 0.625632 0.684246 
0.323393 -0.645851 0.691588 
0.264255 -0.486707 0.832638 
0.208003 -0.357641 0.9104 
0.15701 -0.248882 0.955723 
0.115539 -0.176812 0.97744 
0.0901068 -0.11607 0.989145 
0.0646512 -0.0844289 0.99433 
0.0426666 -0.0488395 0.997895 
0.0397488 -0.035558 0.998577 
0.0233492 -0.0208496 0.99951 
0.0222578 -0.0174545 0.9996 
0.0160137 -0.00973761 0.999824 
0.013031 -0.00934044 0.999871 
0.0131083 -0.00439318 0.999904 
0.00789848 -0.00187602 0.999967 
0.0123951 -0.00467503 0.999912 
0.0103217 0.000173201 0.999947 
0.00736057 -0.00256738 0.99997 
0.0111985 -0.000239046 0.999937 
0.00744398 0.00159573 0.999971 
0.0117703 0.00250074 0.999928 
0.0107993 0.00317789 0.999937 
0.0146677 0.00502685 0.99988 
0.0145573 0.00325455 0.999889 
0.0183497 0.0151376 0.999717 
0.0276221 0.0245531 0.999317 
0.03488 0.0309658 0.998912 
0.0481689 0.052343 0.997467 
0.0604603 0.0764624 0.995238 
0.0835354 0.115675 0.989768 
0.118364 0.175252 0.977383 
0.158208 0.254091 0.954153 
0.215597 0.358092 0.908454 
0.272407 0.493399 0.826046 
0.338834 0.645738 0.684262 
0.288276 -0.66768 0.686368 
0.234715 -0.506577 0.829632 
0.178813 -0.368045 0.912452 
0.137993 -0.262592 0.954989 
0.100225 -0.178735 0.978779 
0.0762447 -0.122084 0.989587 
0.0507658 -0.0838379 0.995185 
0.0454252 -0.0575581 0.997308 
0.0301293 -0.0372695 0.998851 
0.0246533 -0.0291386 0.999271 
0.0181272 -0.0155164 0.999715 
0.0157873 -0.0135384 0.999784 
0.00942135 -0.00547951 0.999941 
0.0108919 -0.00450416 0.999931 
0.0113935 -0.00370221 0.999928 
0.00514805 -0.00349541 0.999981 
0.00668831 -0.0021247 0.999975 
0.00533268 -0.0031001 0.999981 
0.00714032 -0.00195754 0.999973 
0.00825911 -0.00332687 0.99996 
0.00312007 0.00026225 0.999995 
0.00925112 -0.00263618 0.999954 
0.00684596 0.00217499 0.999974 
0.00954102 0.00288375 0.99995 
0.0101523 0.0089275 0.999909 
0.015803 0.00861042 0.999838 
0.0181988 0.0141038 0.999735 
0.0206543 0.0218618 0.999548 
0.0355574 0.0425827 0.99846 
0.0409705 0.0513343 0.997841 
0.0550608 0.0832677 0.995005 
0.0767109 0.120118 0.989791 
0.107542 0.181657 0.977464 
0.141066 0.260167 0.955203 
0.191576 0.371209 0.908572 
0.245788 0.504553 0.827656 
0.302452 0.663508 0.68431 
0.257306 -0.684366 0.682229 
0.208328 -0.520434 0.828099 
0.159724 -0.378237 0.911825 
0.120669 -0.267047 0.956099 
0.089168 -0.183712 0.978927 
0.0646564 -0.125045 0.990042 
0.0451688 -0.0757849 0.996101 
0.0342026 -0.0490626 0.99821 
0.0169871 -0.0299201 0.999408 
0.0153986 -0.0181856 0.999716 
0.0108707 -0.012855 0.999858 
0.00766927 -0.00627545 0.999951 
0.0105993 -0.00657698 0.999922 
0.00398088 -0.00522764 0.999978 
0.00315653 -0.00277853 0.999991 
0.00573929 -0.00282568 0.99998 
0.00501061 -0.00159321 0.999986 
0.00291307 -0.00501182 0.999983 
0.00438343 0.00196761 0.999988 
0.00179057 -0.00344575 0.999992 
0.00762688 -0.00245378 0.999968 
0.00509204 0.000189154 0.999987 
0.00376876 -0.00212763 0.999991 
0.00752974 0.000241286 0.999972 
0.00388551 -0.000980291 0.999992 
0.00921849 0.00599975 0.99994 
0.0125484 0.0144213 0.999817 
0.0172561 0.0183173 0.999683 
0.0208026 0.0347152 0.999181 
0.0299672 0.0475246 0.99842 
0.04586 0.0798442 0.995752 
0.0648982 0.124142 0.99014 
0.0932071 0.185608 0.978193 
0.126399 0.265975 0.955657 
0.1695 0.380115 0.909276 
0.218016 0.516589 0.828013 
0.267784 0.676489 0.686043 
0.228007 -0.69517 0.681727 
0.180272 -0.530497 0.828296 
0.141516 -0.3848 0.912087 
0.100712 -0.274637 0.956259 
0.0787179 -0.193001 0.978036 
0.0544537 -0.129852 0.990037 
0.0402501 -0.0887299 0.995242 
0.0296108 -0.0602005 0.997747 
0.020758 -0.0455116 0.998748 
0.0169201 -0.0230424 0.999591 
0.0160271 -0.0198124 0.999675 
0.00505214 -0.00908095 0.999946 
0.00722555 -0.00855558 0.999937 
0.000566874 -0.00331852 0.999994 
0.00564835 -0.00184828 0.999982 
0.00513582 -0.00144015 0.999986 
0.00195057 -0.00388057 0.999991 
0.00499911 0.000586547 0.999987 
0.00250787 7.52566e-05 0.999997 
0.00655957 -0.00358919 0.999972 
0.00166134 -0.0001948 0.999999 
0.00408385 -0.00140999 0.999991 
0.00186081 -0.00262717 0.999995 
0.00608624 3.98148e-05 0.999981 
0.00390431 0.000633491 0.999992 
0.00588094 0.00335762 0.999977 
0.00571743 0.00369094 0.999977 
0.00885786 0.00724153 0.999935 
0.00752728 0.0135569 0.99988 
0.0203357 0.0226598 0.999536 
0.0199817 0.0377288 0.999088 
0.0264702 0.0539656 0.998192 
0.0456085 0.0842679 0.995399 
0.0594032 0.128445 0.989936 
0.0813428 0.190221 0.978366 
0.111429 0.278297 0.95401 
0.146956 0.382993 0.911987 
0.190217 0.526065 0.828898 
0.233015 0.684879 0.690394 
0.195902 -0.700939 0.685789 
0.157328 -0.534196 0.830591 
0.119758 -0.392717 0.911829 
0.0884384 -0.278984 0.956215 
0.0640982 -0.18966 0.979755 
0.0464068 -0.12967 0.990471 
0.0333422 -0.0852433 0.995802 
0.0206911 -0.0533268 0.998363 
0.0165822 -0.0333973 0.999305 
0.00944686 -0.0227826 0.999696 
0.00411086 -0.0130456 0.999906 
0.00810188 -0.00706452 0.999942 
0.005594 -0.00438322 0.999975 
0.00312138 -0.00278316 0.999991 
0.00517127 -0.00522328 0.999973 
0.00150644 -0.00266302 0.999995 
0.00346473 -0.000347384 0.999994 
0.00170217 -0.00538334 0.999984 
0.00288078 -0.00310446 0.999991 
0.00144822 -0.00410078 0.999991 
0.00200639 -0.00295664 0.999994 
0.00181676 -0.00419841 0.99999 
0.00130627 -0.00193813 0.999997 
0.000180274 -0.00287635 0.999996 
0.00332839 -0.000642855 0.999994 
0.00355278 -0.000559312 0.999994 
0.00421559 0.00226718 0.999989 
0.00726967 0.00789123 0.999942 
0.00853497 0.00908116 0.999922 
0.0110731 0.0224333 0.999687 
0.0160782 0.0308216 0.999396 
0.0248483 0.0569867 0.998066 
0.0336322 0.0930523 0.995093 
0.0477808 0.130491 0.990297 
0.0727487 0.198865 0.977323 
0.0895765 0.279311 0.956013 
0.12607 0.390748 0.911824 
0.160064 0.527022 0.834642 
0.195312 0.689101 0.697848 
0.157397 -0.70209 0.694475 
0.13647 -0.555439 0.820283 
0.100957 -0.414318 0.904516 
0.0779912 -0.296868 0.951728 
0.0515965 -0.199086 0.978623 
0.037141 -0.132716 0.990458 
0.0268519 -0.0825884 0.996222 
0.0142158 -0.0499125 0.998652 
0.0115372 -0.031225 0.999446 
0.00735836 -0.0183784 0.999804 
0.00569841 -0.0109368 0.999924 
0.000320181 -0.00765241 0.999971 
0.00408411 -0.00701913 0.999967 
0.00224005 -0.00338823 0.999992 
0.00234153 -0.00192043 0.999995 
0.00032644 -0.0025337 0.999997 
0.00356677 -0.00457368 0.999983 
0.00279552 -0.00135192 0.999995 
0.000984283 -0.00333943 0.999994 
0.0036017 -0.000617493 0.999993 
0.00419763 -0.00377908 0.999984 
-0.00144681 -0.00123723 0.999998 
0.00528934 -0.00105334 0.999985 
0.00258413 -0.00162173 0.999995 
0.00123733 -0.00238313 0.999996 
0.00178707 0.00116039 0.999998 
0.00226105 0.00057554 0.999997 
0.00294835 0.0045712 0.999985 
0.00482545 0.0106029 0.999932 
0.00898893 0.0177582 0.999802 
0.00777614 0.0296628 0.99953 
0.019514 0.0485269 0.998631 
0.0295493 0.0762027 0.996654 
0.0330183 0.119729 0.992257 
0.0570455 0.181784 0.981682 
0.0683323 0.26303 0.962365 
0.100345 0.383152 0.918219 
0.126366 0.526027 0.841028 
0.153799 0.691652 0.705665 
0.121585 -0.703164 0.700555 
0.0955762 -0.507866 0.856118 
0.0664156 -0.347958 0.935154 
0.0451486 -0.233487 0.971311 
0.036894 -0.155221 0.987191 
0.0224762 -0.101565 0.994575 
0.0157054 -0.0634354 0.997862 
0.0120581 -0.0434282 0.998984 
0.00823088 -0.0275773 0.999586 
0.00229307 -0.0152423 0.999881 
0.00664299 -0.0104302 0.999924 
0.00368771 -0.00622992 0.999974 
0.00153881 -0.00232163 0.999996 
0.00170444 -0.00355541 0.999992 
0.00360084 -0.00293838 0.999989 
0.00355814 -0.00252595 0.99999 
0.00090377 -0.000872286 0.999999 
0.000337163 -0.00252337 0.999997 
0.00629002 -0.00269483 0.999977 
-0.0020675 -0.00353851 0.999992 
0.00220991 -0.00233702 0.999995 
0.00404358 -0.00373849 0.999985 
0.000691792 -0.0052981 0.999986 
0.00195775 -0.00103632 0.999998 
0.00244538 -0.00167124 0.999996 
0.00254337 -0.00206435 0.999995 
0.00244904 0.00138021 0.999996 
0.00600234 0.00554071 0.999967 
0.00100016 0.00526207 0.999986 
0.00797474 0.0150128 0.999855 
0.011587 0.024657 0.999629 
0.00773214 0.0433336 0.999031 
0.0185128 0.0707599 0.997322 
0.0236648 0.108614 0.993802 
0.0379158 0.168779 0.984924 
0.0456625 0.247803 0.967734 
0.0673289 0.350591 0.934105 
0.0910557 0.505606 0.857946 
0.112297 0.695149 0.710041 
0.0794342 -0.703145 0.706596 
0.0735622 -0.552699 0.830128 
0.0515372 -0.397462 0.91617 
0.040901 -0.27302 0.961138 
0.0255279 -0.177892 0.983719 
0.0162102 -0.112027 0.993573 
0.0125188 -0.0708002 0.997412 
0.0043996 -0.0390511 0.999228 
0.00585804 -0.0246736 0.999678 
0.00419905 -0.0148048 0.999882 
0.00116508 -0.00841357 0.999964 
0.00197756 -0.00573271 0.999982 
0.0009739 -0.00449432 0.999989 
0.00421663 -0.00277722 0.999987 
-0.00141649 -0.00274182 0.999995 
0.000163053 -0.00375181 0.999993 
0.00225427 -0.00306348 0.999993 
-0.00010386 -0.00487707 0.999988 
-0.00178544 -0.00101019 0.999998 
0.00188944 -0.0052326 0.999985 
0.00053968 -0.0025369 0.999997 
-0.000103769 -0.0023582 0.999997 
-0.00127922 -0.000480563 0.999999 
0.000262039 -0.00510436 0.999987 
0.000713344 0.000130966 1 
0.00262681 -0.000821481 0.999996 
-0.00118931 0.00183976 0.999998 
0.00164246 -1.02251e-05 0.999999 
0.00596467 0.0106815 0.999925 
0.00140442 0.0139055 0.999902 
0.00211974 0.023753 0.999716 
0.00873223 0.0384275 0.999223 
0.0151471 0.0677754 0.997586 
0.0137779 0.101075 0.994783 
0.0271975 0.161611 0.98648 
0.0302604 0.245898 0.968823 
0.0473351 0.380503 0.923567 
0.0622182 0.536132 0.841838 
0.0670483 0.697929 0.713022 
0.0449597 -0.706961 0.705822 
0.0349308 -0.494977 0.868204 
0.0260022 -0.334563 0.942014 
0.0146791 -0.217744 0.975896 
0.0122625 -0.140025 0.990072 
0.00892727 -0.0908649 0.995823 
0.00846565 -0.0558992 0.998401 
-3.1526e-05 -0.0394405 0.999222 
0.00308273 -0.0231781 0.999727 
0.0010718 -0.0138566 0.999903 
0.000420146 -0.00941608 0.999956 
0.000551782 -0.00469667 0.999989 
0.00186185 -0.00195611 0.999996 
-0.00191697 -0.00450116 0.999988 
0.0021929 -0.000939936 0.999997 
0.00404028 -0.000944994 0.999991 
-0.000361637 -0.0042165 0.999991 
0.00396724 -0.000325007 0.999992 
0.00268632 -0.00710421 0.999971 
0.00134991 -0.000121745 0.999999 
0.00206515 -0.00435262 0.999988 
-0.000223213 -0.0029274 0.999996 
0.00546203 -0.00389578 0.999977 
0.00259007 0.000970445 0.999996 
-0.000749076 -0.00327945 0.999994 
-0.00103312 -0.00127401 0.999999 
0.00469317 0.00110841 0.999988 
0.000404888 0.00435667 0.99999 
-0.000865428 0.0036695 0.999993 
0.00358269 0.0104879 0.999939 
0.00086686 0.0222164 0.999753 
0.00595375 0.0381536 0.999254 
0.00368917 0.0633412 0.997985 
0.00733656 0.101652 0.994793 
0.0128535 0.160529 0.986947 
0.0124233 0.231058 0.972861 
0.0189992 0.341525 0.939681 
0.0230179 0.491925 0.870333 
0.0288078 0.704736 0.708885 
0.010093 -0.708243 0.705896 
0.00628555 -0.548858 0.835892 
0.00620296 -0.395559 0.91842 
0.00505588 -0.265191 0.964183 
0.00445159 -0.171548 0.985166 
0.00136136 -0.105606 0.994407 
0.000809336 -0.065452 0.997855 
0.00129205 -0.0361571 0.999345 
0.00358903 -0.022022 0.999751 
-0.00227935 -0.0132333 0.99991 
0.00415023 -0.00658462 0.99997 
-0.00112707 -0.00422056 0.99999 
0.00149559 -0.00601369 0.999981 
0.00105527 0.00159439 0.999998 
0.00110119 -0.00446273 0.999989 
-0.00128391 -0.00209548 0.999997 
0.00138512 -0.00108498 0.999998 
-0.000909512 -0.00184475 0.999998 
-0.00167548 -0.000480812 0.999998 
0.00127319 -0.00208254 0.999997 
-0.00037775 -0.00231772 0.999997 
0.00257208 -0.00251042 0.999994 
-0.00375293 -0.00117232 0.999992 
-0.00290131 -0.00449088 0.999986 
0.00365684 -1.91339e-05 0.999993 
-0.00107321 0.00151436 0.999998 
0.000186122 -0.00133369 0.999999 
0.000974884 0.00151695 0.999998 
0.000402476 0.00741223 0.999972 
0.003011 0.014481 0.999891 
-0.000402051 0.0209027 0.999781 
0.000595719 0.0388278 0.999246 
0.00238597 0.0616457 0.998095 
-0.00116147 0.0999502 0.994992 
0.00216872 0.15651 0.987674 
-0.0044805 0.247345 0.968917 
-0.00283354 0.380932 0.924599 
-0.00277754 0.545389 0.838179 
-0.00922709 0.710318 0.70382 
-0.0256461 -0.702758 0.710967 
-0.0178994 -0.495723 0.868296 
-0.015008 -0.328673 0.944325 
-0.0127491 -0.217228 0.976038 
-0.00425186 -0.139693 0.990186 
-0.00886499 -0.0893374 0.995962 
-0.00160838 -0.0582194 0.998303 
-0.00237926 -0.0381871 0.999268 
-0.00356904 -0.0232658 0.999723 
0.002082 -0.0134492 0.999907 
-0.00266356 -0.00912778 0.999955 
0.00313428 -0.00645359 0.999974 
0.00147127 -0.00086707 0.999999 
0.000842603 -0.00603282 0.999981 
0.00369162 -0.0013841 0.999992 