# vtk DataFile Version 3.0 
Exported using Morpho https://github.com/Morpho-lang/morpho 
ASCII 
DATASET UNSTRUCTURED_GRID 

POINTS 1245 float 
-0.304038 -0.95266 0 
-0.251441 -0.967873 0 
-0.196599 -0.980484 0 
-0.147939 -0.988996 0 
-0.096254 -0.995357 0 
-0.0483601 -0.99883 0 
-0.000451504 -1 0 
0.0482414 -0.998836 0 
0.0956209 -0.995418 0 
0.145924 -0.989296 0 
0.198694 -0.980062 0 
0.248343 -0.968672 0 
0.30399 -0.952675 0 
-0.409672 -0.912233 0 
-0.356859 -0.934158 0 
-0.307625 -0.898571 0 
-0.256611 -0.914841 0 
-0.205389 -0.933372 0 
-0.153069 -0.927934 0 
-0.102396 -0.94791 0 
-0.0498583 -0.935106 0 
0.00142854 -0.953377 0 
0.052561 -0.9331 0 
0.104134 -0.942389 0 
0.156872 -0.938823 0 
0.206982 -0.919507 0 
0.258749 -0.920951 0 
0.310446 -0.900065 0 
0.357716 -0.93383 0 
0.410714 -0.911764 0 
-0.51437 -0.857568 0 
-0.462407 -0.886668 0 
-0.411015 -0.857376 0 
-0.359501 -0.879663 0 
-0.305707 -0.84665 0 
-0.253622 -0.86425 0 
-0.200473 -0.885626 0 
-0.148805 -0.868805 0 
-0.0992128 -0.89633 0 
-0.0484472 -0.873916 0 
0.00154915 -0.899374 0 
0.0506565 -0.870008 0 
0.099584 -0.888189 0 
0.15259 -0.889657 0 
0.203706 -0.862941 0 
0.255384 -0.874358 0 
0.307954 -0.849391 0 
0.361689 -0.879386 0 
0.412615 -0.856642 0 
0.46325 -0.886228 0 
0.514942 -0.857225 0 
-0.565364 -0.824841 0 
-0.512807 -0.802464 0 
-0.462454 -0.831649 0 
-0.409305 -0.803744 0 
-0.35814 -0.826779 0 
-0.304287 -0.794815 0 
-0.252533 -0.812725 0 
-0.199644 -0.834469 0 
-0.148659 -0.811689 0 
-0.0980329 -0.840437 0 
-0.0486484 -0.814709 0 
0.00110327 -0.841666 0 
0.0507222 -0.810511 0 
0.10012 -0.830521 0 
0.151601 -0.838979 0 
0.201398 -0.807576 0 
0.253879 -0.824556 0 
0.305585 -0.798078 0 
0.359663 -0.826545 0 
0.410331 -0.802786 0 
0.463256 -0.830671 0 
0.513382 -0.802055 0 
0.565855 -0.824505 0 
-0.661127 -0.750274 0 
-0.614521 -0.7889 0 
-0.561833 -0.769262 0 
-0.50964 -0.747742 0 
-0.460175 -0.777438 0 
-0.407225 -0.750461 0 
-0.356449 -0.774194 0 
-0.303021 -0.743169 0 
-0.251726 -0.760737 0 
-0.199698 -0.781574 0 
-0.149469 -0.755674 0 
-0.0987361 -0.784111 0 
-0.0495663 -0.757521 0 
0.00074427 -0.784506 0 
0.0499021 -0.753017 0 
0.0986422 -0.771593 0 
0.148465 -0.786798 0 
0.198905 -0.753762 0 
0.25178 -0.773224 0 
0.303018 -0.746409 0 
0.356897 -0.773838 0 
0.407278 -0.749476 0 
0.460508 -0.775969 0 
0.509912 -0.747635 0 
0.562265 -0.768427 0 
0.614899 -0.788606 0 
0.660916 -0.75046 0 
-0.707137 -0.707076 0 
-0.654232 -0.698242 0 
-0.60786 -0.732501 0 
-0.557385 -0.712939 0 
-0.507468 -0.693124 0 
-0.457791 -0.723521 0 
-0.40534 -0.697562 0 
-0.354815 -0.72183 0 
-0.302133 -0.691777 0 
-0.251077 -0.708675 0 
-0.199931 -0.727612 0 
-0.150301 -0.700335 0 
-0.0999236 -0.728385 0 
-0.051087 -0.701823 0 
-0.000421628 -0.728505 0 
0.0495464 -0.698598 0 
0.0984035 -0.713168 0 
0.147599 -0.732599 0 
0.197896 -0.700126 0 
0.250029 -0.721435 0 
0.301757 -0.694342 0 
0.353927 -0.721143 0 
0.403704 -0.696683 0 
0.456847 -0.721566 0 
0.505628 -0.694419 0 
0.557407 -0.711375 0 
0.607266 -0.730582 0 
0.652491 -0.698197 0 
0.706565 -0.707648 0 
-0.750394 -0.660991 0 
-0.698464 -0.654201 0 
-0.647093 -0.646808 0 
-0.60217 -0.67432 0 
-0.556909 -0.655804 0 
-0.506644 -0.64072 0 
-0.455848 -0.670392 0 
-0.404184 -0.645105 0 
-0.353627 -0.669626 0 
-0.301541 -0.640968 0 
-0.250517 -0.65732 0 
-0.200181 -0.673083 0 
-0.151003 -0.645606 0 
-0.100944 -0.673231 0 
-0.0519388 -0.647066 0 
-0.00212132 -0.674276 0 
0.047866 -0.647977 0 
0.0973944 -0.654915 0 
0.14682 -0.677634 0 
0.197663 -0.647208 0 
0.249531 -0.669554 0 
0.301392 -0.642514 0 
0.353151 -0.66764 0 
0.404352 -0.642769 0 
0.451679 -0.667224 0 
0.497353 -0.643748 0 
0.550472 -0.654874 0 
0.599514 -0.669274 0 
0.647435 -0.648156 0 
0.698584 -0.655155 0 
0.750179 -0.661235 0 
-0.789039 -0.614343 0 
-0.732835 -0.607626 0 
-0.675089 -0.602016 0 
-0.61271 -0.611831 0 
-0.56007 -0.604859 0 
-0.506586 -0.591159 0 
-0.4548 -0.618267 0 
-0.402585 -0.593363 0 
-0.352885 -0.617892 0 
-0.301898 -0.590774 0 
-0.249931 -0.607445 0 
-0.20047 -0.618026 0 
-0.152094 -0.591572 0 
-0.101636 -0.618979 0 
-0.0515543 -0.593574 0 
-0.00244032 -0.620678 0 
0.0493493 -0.600163 0 
0.0984462 -0.59791 0 
0.147214 -0.623273 0 
0.19846 -0.594491 0 
0.248849 -0.617954 0 
0.29924 -0.591281 0 
0.352315 -0.614754 0 
0.403831 -0.593284 0 
0.455787 -0.608592 0 
0.520167 -0.601585 0 
0.571237 -0.605653 0 
0.620059 -0.607814 0 
0.678676 -0.602486 0 
0.734122 -0.607948 0 
0.789144 -0.614208 0 
-0.824938 -0.565223 0 
-0.769277 -0.561556 0 
-0.712842 -0.556856 0 
-0.655558 -0.556882 0 
-0.604723 -0.559782 0 
-0.552376 -0.552301 0 
-0.499741 -0.541558 0 
-0.452146 -0.567692 0 
-0.399788 -0.54198 0 
-0.351333 -0.566006 0 
-0.301369 -0.539423 0 
-0.251944 -0.559984 0 
-0.202344 -0.562389 0 
-0.151729 -0.539373 0 
-0.101412 -0.56624 0 
-0.0504147 -0.541753 0 
-0.000400428 -0.568612 0 
0.0512066 -0.551572 0 
0.100052 -0.542814 0 
0.148635 -0.569469 0 
0.199383 -0.542248 0 
0.24951 -0.565612 0 
0.300492 -0.537743 0 
0.346797 -0.563054 0 
0.392054 -0.54738 0 
0.444834 -0.550376 0 
0.492055 -0.564982 0 
0.548979 -0.550909 0 
0.602765 -0.5553 0 
0.655752 -0.556591 0 
0.713249 -0.556635 0 
0.769373 -0.561367 0 
0.824922 -0.565247 0 
-0.857615 -0.514292 0 
-0.802388 -0.512635 0 
-0.747487 -0.509447 0 
-0.692481 -0.506961 0 
-0.640359 -0.506188 0 
-0.590701 -0.507101 0 
-0.539866 -0.49886 0 
-0.492526 -0.491066 0 
-0.44688 -0.51632 0 
-0.399236 -0.489206 0 
-0.350286 -0.513725 0 
-0.298979 -0.489497 0 
-0.247977 -0.513509 0 
-0.199703 -0.507566 0 
-0.150161 -0.487331 0 
-0.10059 -0.514616 0 
-0.049804 -0.490619 0 
0.000625811 -0.517509 0 
0.0508042 -0.501589 0 
0.0999639 -0.489781 0 
0.149517 -0.516323 0 
0.199861 -0.49053 0 
0.249857 -0.513971 0 
0.301105 -0.486926 0 
0.350992 -0.50621 0 
0.406179 -0.503633 0 
0.453702 -0.495579 0 
0.499381 -0.517896 0 
0.54509 -0.495628 0 
0.589875 -0.502992 0 
0.639769 -0.505125 0 
0.692133 -0.507178 0 
0.747231 -0.509351 0 
0.802239 -0.512834 0 
0.8575 -0.514485 0 
-0.886692 -0.462362 0 
-0.831447 -0.46229 0 
-0.776968 -0.459992 0 
-0.722557 -0.457864 0 
-0.668309 -0.454847 0 
-0.615699 -0.454692 0 
-0.563442 -0.455041 0 
-0.504959 -0.444494 0 
-0.448651 -0.462232 0 
-0.399535 -0.438236 0 
-0.349128 -0.46264 0 
-0.299137 -0.439068 0 
-0.248305 -0.464591 0 
-0.199624 -0.454437 0 
-0.150124 -0.436363 0 
-0.0998408 -0.463181 0 
-0.0495775 -0.439683 0 
0.000657363 -0.466432 0 
0.050398 -0.45109 0 
0.0997795 -0.438004 0 
0.14961 -0.46426 0 
0.20006 -0.439543 0 
0.250155 -0.462985 0 
0.300624 -0.436016 0 
0.349741 -0.453489 0 
0.398431 -0.460711 0 
0.448861 -0.444362 0 
0.501772 -0.463516 0 
0.556306 -0.446047 0 
0.610655 -0.453181 0 
0.665731 -0.455702 0 
0.720992 -0.458228 0 
0.776173 -0.460571 0 
0.831102 -0.462917 0 
0.886543 -0.462645 0 
-0.912236 -0.409665 0 
-0.857204 -0.410967 0 
-0.803392 -0.409217 0 
-0.74994 -0.407407 0 
-0.696663 -0.406178 0 
-0.642836 -0.402615 0 
-0.594083 -0.40314 0 
-0.543712 -0.409305 0 
-0.498184 -0.388941 0 
-0.452699 -0.414143 0 
-0.401283 -0.388854 0 
-0.349739 -0.411899 0 
-0.299455 -0.388886 0 
-0.248771 -0.414704 0 
-0.199804 -0.40237 0 
-0.150194 -0.385975 0 
-0.0998826 -0.412316 0 
-0.0496331 -0.389139 0 
0.000643541 -0.415495 0 
0.0502079 -0.40057 0 
0.099715 -0.387048 0 
0.149647 -0.41299 0 
0.200027 -0.388895 0 
0.250027 -0.412129 0 
0.301055 -0.385878 0 
0.350404 -0.401986 0 
0.40041 -0.412751 0 
0.450882 -0.391618 0 
0.499731 -0.416383 0 
0.544034 -0.393568 0 
0.59137 -0.399783 0 
0.642288 -0.404278 0 
0.695365 -0.407079 0 
0.749328 -0.408637 0 
0.803118 -0.410657 0 
0.857365 -0.412146 0 
0.912211 -0.40972 0 
-0.934162 -0.35685 0 
-0.879422 -0.35942 0 
-0.826293 -0.357958 0 
-0.773333 -0.356351 0 
-0.720158 -0.355668 0 
-0.665775 -0.356607 0 
-0.607138 -0.350008 0 
-0.553621 -0.361137 0 
-0.5022 -0.339404 0 
-0.449669 -0.361737 0 
-0.400008 -0.33791 0 
-0.350294 -0.361968 0 
-0.299735 -0.338845 0 
-0.249149 -0.364486 0 
-0.19989 -0.351123 0 
-0.150231 -0.335907 0 
-0.0999158 -0.361809 0 
-0.0496591 -0.338853 0 
0.000579022 -0.364807 0 
0.0501213 -0.350175 0 
0.0996736 -0.336536 0 
0.149689 -0.362171 0 
0.200173 -0.338592 0 
0.250216 -0.361805 0 
0.300977 -0.33584 0 
0.350317 -0.350432 0 
0.400031 -0.363711 0 
0.449445 -0.340113 0 
0.500426 -0.362497 0 
0.556035 -0.344079 0 
0.610296 -0.352686 0 
0.6665 -0.355417 0 
0.719677 -0.357923 0 
0.773735 -0.358184 0 
0.826983 -0.360351 0 
0.879942 -0.360326 0 
0.934344 -0.356372 0 
-0.952661 -0.304036 0 
-0.898427 -0.307629 0 
-0.846493 -0.305546 0 
-0.794931 -0.304029 0 
-0.743864 -0.303138 0 
-0.693611 -0.30459 0 
-0.643467 -0.30958 0 
-0.599353 -0.290969 0 
-0.55443 -0.313997 0 
-0.503336 -0.288984 0 
-0.45199 -0.311834 0 
-0.401101 -0.288191 0 
-0.349902 -0.311422 0 
-0.299643 -0.288622 0 
-0.249349 -0.314247 0 
-0.199915 -0.300435 0 
-0.150269 -0.285978 0 
-0.0999683 -0.311532 0 
-0.0497289 -0.288717 0 
0.000527779 -0.314369 0 
0.0500741 -0.299964 0 
0.0996409 -0.286337 0 
0.149787 -0.311716 0 
0.200238 -0.28842 0 
0.250326 -0.311555 0 
0.301235 -0.286006 0 
0.350591 -0.299681 0 
0.400449 -0.31341 0 
0.451856 -0.289027 0 
0.501314 -0.314699 0 
0.544921 -0.289691 0 
0.590901 -0.297941 0 
0.640135 -0.307218 0 
0.69435 -0.304347 0 
0.742809 -0.307966 0 
0.7979 -0.307375 0 
0.847482 -0.307936 0 
0.899876 -0.308548 0 
0.953167 -0.302446 0 
-0.967863 -0.251479 0 
-0.914487 -0.256648 0 
-0.863556 -0.253418 0 
-0.811732 -0.251971 0 
-0.759393 -0.251316 0 
-0.706493 -0.252194 0 
-0.653718 -0.258815 0 
-0.607533 -0.238533 0 
-0.553063 -0.261024 0 
-0.502377 -0.238056 0 
-0.452064 -0.261845 0 
-0.401205 -0.238175 0 
-0.350516 -0.261491 0 
-0.299965 -0.238667 0 
-0.249417 -0.263974 0 
-0.199916 -0.250071 0 
-0.150304 -0.236053 0 
-0.100036 -0.261399 0 
-0.0497663 -0.238671 0 
0.000445464 -0.264099 0 
0.0500404 -0.249853 0 
0.0996125 -0.23625 0 
0.149834 -0.261487 0 
0.200323 -0.238399 0 
0.25055 -0.261503 0 
0.301452 -0.23621 0 
0.351157 -0.249436 0 
0.401482 -0.263625 0 
0.451962 -0.237781 0 
0.501557 -0.260261 0 
[...]
POINT_DATA 1245 
VECTORS vectors float
0.529266 -0.206334 0.822985 
0.506476 -0.188637 0.841367 
0.480475 -0.148075 0.864417 
0.475163 -0.103348 0.873808 
0.480832 -0.0568189 0.87497 
0.488383 -0.0215813 0.872363 
0.499651 0.00458585 0.866215 
0.503377 0.0294956 0.863563 
0.503153 0.0554513 0.862417 
0.506426 0.0868542 0.857898 
0.512598 0.114009 0.851026 
0.515571 0.133615 0.846365 
0.511131 0.151985 0.845958 
0.52298 -0.213563 0.825156 
0.53517 -0.209426 0.818373 
0.355271 -0.134963 0.924969 
0.346697 -0.133033 0.928495 
0.35108 -0.117887 0.928895 
0.295167 -0.0750726 0.952492 
0.330941 -0.0478867 0.942436 
0.290475 -0.0210767 0.95665 
0.342036 0.00494394 0.939674 
0.294844 0.0182236 0.955372 
0.332976 0.0412478 0.942033 
0.345872 0.0643352 0.936074 
0.325262 0.0743939 0.942693 
0.357527 0.096749 0.928878 
0.339143 0.114036 0.933798 
0.494548 0.175638 0.851219 
0.475312 0.204581 0.855702 
0.468521 -0.253462 0.846313 
0.497842 -0.228564 0.836607 
0.34769 -0.152224 0.92517 
0.359167 -0.145941 0.921792 
0.229065 -0.0962351 0.968642 
0.222102 -0.0832798 0.97146 
0.225329 -0.0709281 0.971697 
0.175601 -0.050147 0.983183 
0.210602 -0.0330533 0.977013 
0.164952 -0.0176521 0.986144 
0.213395 -0.00608812 0.976947 
0.162768 0.010815 0.986605 
0.204058 0.0228087 0.978693 
0.223691 0.0370167 0.973957 
0.187766 0.0491407 0.980984 
0.244867 0.0606949 0.967655 
0.216584 0.0715163 0.973641 
0.334381 0.120322 0.934726 
0.316733 0.150185 0.936549 
0.459961 0.239876 0.854924 
0.446567 0.278413 0.850332 
0.438972 -0.28675 0.851515 
0.310545 -0.186634 0.932057 
0.33171 -0.165717 0.928712 
0.219983 -0.102905 0.970061 
0.22691 -0.093198 0.969446 
0.134894 -0.0518797 0.989501 
0.137192 -0.0533932 0.989104 
0.145513 -0.050475 0.988068 
0.0946706 -0.0252566 0.995188 
0.123873 -0.0241534 0.992004 
0.0863546 -0.00675982 0.996242 
0.117173 -0.000903812 0.993111 
0.0892893 0.00198968 0.996004 
0.113559 0.0127221 0.99345 
0.136799 0.0200195 0.990397 
0.108169 0.0179203 0.993971 
0.148847 0.0445224 0.987857 
0.137367 0.0453317 0.989482 
0.204619 0.08477 0.975164 
0.204605 0.0981057 0.973916 
0.30523 0.173217 0.936392 
0.308015 0.195487 0.931081 
0.438739 0.307457 0.84438 
0.395996 -0.354952 0.846874 
0.413864 -0.323028 0.851099 
0.29562 -0.20563 0.932912 
0.201949 -0.128332 0.970952 
0.213813 -0.109918 0.970671 
0.134071 -0.0638166 0.988915 
0.140832 -0.0636239 0.987987 
0.08137 -0.0368221 0.996004 
0.0793009 -0.0305459 0.996383 
0.081294 -0.0315291 0.996191 
0.0555287 -0.0173045 0.998307 
0.0670519 -0.0175793 0.997595 
0.0470722 -0.00953472 0.998846 
0.0634961 -0.00636815 0.997962 
0.0429066 0.000853934 0.999079 
0.0613387 0.00164741 0.998116 
0.0759191 0.0198827 0.996916 
0.0644391 0.0114123 0.997856 
0.0832884 0.0234542 0.996249 
0.0763037 0.0231597 0.996816 
0.122678 0.0541813 0.990966 
0.121372 0.0614444 0.990704 
0.193345 0.115104 0.974356 
0.197041 0.134941 0.971064 
0.290638 0.220186 0.931154 
0.426068 0.327392 0.843374 
0.398488 0.345326 0.849681 
0.380525 -0.379378 0.84337 
0.275812 -0.260786 0.925158 
0.275843 -0.229963 0.933289 
0.190197 -0.145054 0.970971 
0.120844 -0.0810964 0.989353 
0.127427 -0.0770974 0.988847 
0.0767357 -0.0424506 0.996147 
0.0763786 -0.0337471 0.996508 
0.0445728 -0.0150521 0.998893 
0.0444649 -0.0195041 0.998821 
0.0434186 -0.0134597 0.998966 
0.0240931 -0.00820006 0.999676 
0.0350207 -0.00553489 0.999371 
0.0211931 -0.00519356 0.999762 
0.0357396 0.00029064 0.999361 
0.0243774 -0.00054817 0.999703 
0.0263296 0.00316909 0.999648 
0.0442916 0.00190153 0.999017 
0.0263566 0.00713017 0.999627 
0.0498834 0.0135639 0.998663 
0.042948 0.0135202 0.998986 
0.07384 0.0328567 0.996729 
0.0719806 0.0349825 0.996792 
0.120862 0.0737828 0.989923 
0.116887 0.0837591 0.989607 
0.182234 0.141018 0.97309 
0.279389 0.224445 0.933577 
0.271276 0.254814 0.928159 
0.362995 0.372379 0.854147 
0.359015 -0.397412 0.844495 
0.259908 -0.281471 0.9237 
0.185963 -0.183756 0.965221 
0.178269 -0.155852 0.971561 
0.112461 -0.0920644 0.989382 
0.0776808 -0.0589922 0.995231 
0.0786641 -0.045734 0.995852 
0.0425085 -0.0188161 0.998919 
0.0494764 -0.023594 0.998497 
0.0253147 -0.0145607 0.999573 
0.0192502 -0.00508358 0.999802 
0.0262608 -0.012173 0.999581 
0.0162454 -0.00397593 0.99986 
0.0187146 -0.00483436 0.999813 
0.0129274 -0.00313289 0.999912 
0.0149843 0.000131115 0.999888 
0.0148236 -0.00400714 0.999882 
0.0172798 0.00146474 0.99985 
0.0225915 0.00261789 0.999741 
0.021006 -0.00153615 0.999778 
0.026677 0.00871738 0.999606 
0.0249883 0.00525839 0.999674 
0.0362015 0.0165437 0.999208 
0.0405662 0.020766 0.998961 
0.0628851 0.0468101 0.996922 
0.0730905 0.0513454 0.996003 
0.11257 0.0932081 0.989262 
0.159481 0.150674 0.975635 
0.178339 0.182989 0.966804 
0.253543 0.286852 0.923814 
0.336715 0.412782 0.846306 
0.330959 -0.411924 0.84899 
0.237412 -0.27535 0.931567 
0.157427 -0.170143 0.972763 
0.112134 -0.108402 0.987763 
0.0814934 -0.075062 0.993843 
0.0436792 -0.0321889 0.998527 
0.0445565 -0.028871 0.99859 
0.0273824 -0.017503 0.999472 
0.0179139 -0.00769134 0.99981 
0.0140491 -0.00342057 0.999895 
0.0133372 -0.00168704 0.99991 
0.0111043 -0.00111778 0.999938 
0.00446266 -0.000141895 0.99999 
0.0100738 -0.000165584 0.999949 
0.00758972 0.00199281 0.999969 
0.0119738 -0.00109042 0.999928 
0.00529251 0.00269787 0.999982 
0.010592 0.000494404 0.999944 
0.0101968 -0.00111865 0.999947 
0.0105191 0.00621339 0.999925 
0.0119767 -0.00363829 0.999922 
0.010169 0.00364401 0.999942 
0.0226667 0.0117709 0.999674 
0.0192173 0.00744441 0.999788 
0.0379457 0.0255986 0.998952 
0.0488899 0.0432627 0.997867 
0.0785435 0.0791559 0.993763 
0.114205 0.115493 0.986721 
0.155724 0.190192 0.969318 
0.229123 0.295091 0.92759 
0.327169 0.444329 0.833986 
0.295519 -0.430053 0.853067 
0.208065 -0.29578 0.932321 
0.143369 -0.18196 0.972798 
0.101057 -0.123373 0.987201 
0.06782 -0.0723337 0.995072 
0.0415843 -0.0388084 0.998381 
0.028054 -0.021531 0.999374 
0.0210806 -0.0175771 0.999623 
0.0113129 -0.00146982 0.999935 
0.0146416 -0.00598276 0.999875 
0.0082538 0.00361185 0.999959 
0.00617478 -0.0042334 0.999972 
0.0101277 -0.000770044 0.999948 
0.00413246 0.00107289 0.999991 
0.00860538 -0.000232377 0.999963 
0.00517049 -0.000367923 0.999987 
0.00828025 -0.000936957 0.999965 
0.00683593 -0.00206305 0.999975 
0.00949192 0.000624253 0.999955 
0.00572802 -0.00216173 0.999981 
0.00727223 -0.00430405 0.999964 
0.0100273 0.00245212 0.999947 
0.0100173 0.00160579 0.999949 
0.0100667 -0.00196241 0.999947 
0.0133771 0.00585367 0.999893 
0.0175137 0.0152487 0.99973 
0.0267844 0.0224062 0.99939 
0.0429218 0.0394276 0.9983 
0.0595732 0.0752569 0.995383 
0.0980303 0.117819 0.988185 
0.146985 0.195165 0.969694 
0.212649 0.311275 0.926223 
0.314725 0.45699 0.83193 
0.257657 -0.453587 0.853154 
0.191454 -0.302066 0.933864 
0.132968 -0.194022 0.971944 
0.0853158 -0.118722 0.989255 
0.0560693 -0.0675477 0.996139 
0.0396303 -0.0452321 0.99819 
0.0232674 -0.0250254 0.999416 
0.0123653 -0.0118916 0.999853 
0.0152468 -0.0080962 0.999851 
0.00716533 -0.00533102 0.99996 
0.00491582 -0.00318792 0.999983 
0.0034918 -0.0028557 0.99999 
0.00156177 0.00189383 0.999997 
0.00648236 0.00242663 0.999976 
0.00612548 0.00273722 0.999977 
0.00669173 0.000816876 0.999977 
0.00769867 9.73675e-05 0.99997 
0.00366749 0.00419337 0.999984 
0.00848377 -0.00419009 0.999955 
0.00469379 0.00331239 0.999983 
0.00658592 -0.00365149 0.999972 
0.0070165 0.00185701 0.999974 
0.00267881 -0.00482506 0.999985 
0.00537997 -0.00404412 0.999977 
0.00179488 0.00222641 0.999996 
0.00680072 0.00409543 0.999968 
0.00975756 0.00281901 0.999948 
0.0182538 0.0170361 0.999688 
0.0187181 0.0271166 0.999457 
0.0357276 0.0398652 0.998566 
0.0546401 0.0763168 0.995585 
0.0855668 0.128066 0.988068 
0.140255 0.202972 0.969088 
0.205281 0.31869 0.925363 
0.285317 0.462913 0.839229 
0.225491 -0.478708 0.848524 
0.161559 -0.322746 0.932595 
0.108267 -0.20066 0.97366 
0.0714773 -0.127616 0.989245 
0.0468097 -0.0691417 0.996508 
0.0267035 -0.0460075 0.998584 
0.0177183 -0.0175948 0.999688 
0.0100877 -0.0115625 0.999882 
0.00496963 -0.00440491 0.999978 
0.0043435 -0.000539927 0.99999 
0.00553479 0.00126168 0.999984 
0.00341549 0.00135812 0.999993 
0.00839449 0.00441791 0.999955 
0.00222674 0.000243935 0.999997 
0.00748682 -0.000630349 0.999972 
0.00369295 0.00312894 0.999988 
0.00309853 -0.00200591 0.999993 
0.0110152 0.000264528 0.999939 
0.00288728 4.05095e-05 0.999996 
0.00751334 -0.00547351 0.999957 
0.00554942 -0.00176779 0.999983 
0.00510112 -0.00305992 0.999982 
0.00580047 -0.00161124 0.999982 
0.00404341 0.0019949 0.99999 
0.00854755 -0.00313427 0.999959 
0.00405456 -0.00233317 0.999989 
0.00182815 0.00272688 0.999995 
0.011936 0.0111974 0.999866 
0.0142844 0.0154683 0.999778 
0.0293462 0.0428738 0.998649 
0.0470344 0.0700054 0.996437 
0.0791105 0.126594 0.988795 
0.119226 0.208039 0.970827 
0.183659 0.32197 0.928765 
0.246986 0.4769 0.843543 
0.20005 -0.506387 0.83878 
0.142812 -0.336481 0.930798 
0.0999261 -0.213237 0.971877 
0.0635055 -0.126117 0.989981 
0.0420684 -0.077253 0.996124 
0.0215146 -0.0379483 0.999048 
0.01893 -0.0215349 0.999589 
0.0061677 -0.0128633 0.999898 
0.00303842 -0.00238778 0.999993 
0.00586958 -0.00135692 0.999982 
0.000765152 -0.00232096 0.999997 
0.00260482 0.00287388 0.999992 
0.00347069 -0.00109317 0.999993 
0.0036026 -0.000377332 0.999993 
0.000445112 0.00145331 0.999999 
0.00579294 0.000951318 0.999983 
0.00644225 0.00131891 0.999978 
0.00676885 -1.50069e-05 0.999977 
0.00591121 7.6503e-05 0.999983 
0.00422257 -0.000957563 0.999991 
0.0084656 -0.00291227 0.99996 
0.00415107 -0.000558953 0.999991 
0.00554788 -0.0062241 0.999965 
0.00419996 -0.00236517 0.999988 
0.00448801 -0.00784683 0.999959 
-0.00136417 -0.000741331 0.999999 
0.00578021 0.00182542 0.999982 
0.00493699 0.0042544 0.999979 
0.00502475 0.00360141 0.999981 
0.004154 0.0172144 0.999843 
0.0130189 0.0156972 0.999792 
0.0245765 0.0443178 0.998715 
0.0405307 0.074828 0.996372 
0.0721173 0.131841 0.988644 
0.106108 0.212111 0.971468 
0.160418 0.337559 0.927534 
0.215896 0.50037 0.838462 
0.183747 -0.527247 0.829607 
0.126698 -0.348043 0.928878 
0.0856126 -0.221154 0.971474 
0.0521943 -0.133447 0.989681 
0.0317066 -0.0765077 0.996565 
0.0175846 -0.0395753 0.999062 
0.00561809 -0.0209583 0.999765 
0.00431219 -0.0117123 0.999922 
0.00658698 -0.00581846 0.999961 
0.004351 -0.0058946 0.999973 
0.00216499 -0.0010909 0.999997 
0.00561486 -0.00250521 0.999981 
-0.00204526 0.000241916 0.999998 
0.00809541 0.00296207 0.999963 
0.00787501 -0.000775839 0.999969 
0.00419984 0.000987219 0.999991 
0.00620426 -0.00141178 0.99998 
0.00702226 0.00144774 0.999974 
0.00542021 -0.00628065 0.999966 
0.00936216 -0.00140769 0.999955 
0.000119036 -0.00408664 0.999992 
0.0058738 -0.00468924 0.999972 
0.00531239 -0.00159199 0.999985 
0.00284413 -0.00207924 0.999994 
0.00708105 0.0017413 0.999973 
0.00438304 -0.00277627 0.999987 
0.00349235 -0.00344989 0.999988 
0.000464695 -0.00133152 0.999999 
0.00810524 -0.000901928 0.999967 
0.00750212 0.00745809 0.999944 
0.0115157 0.0206024 0.999721 
0.0236343 0.0402886 0.998909 
0.0383777 0.0743204 0.996496 
0.0635138 0.134875 0.988825 
0.0962967 0.218247 0.971131 
0.142985 0.345961 0.92729 
0.200208 0.518409 0.831366 
0.172196 -0.534079 0.827713 
0.122016 -0.353773 0.927339 
0.0748435 -0.230344 0.970227 
0.0530903 -0.137972 0.989012 
0.0276697 -0.0789183 0.996497 
0.019236 -0.0481292 0.998656 
0.0134185 -0.0267287 0.999553 
0.00240849 -0.0093923 0.999953 
0.00778904 -0.00550041 0.999955 
-0.00262998 -0.00526021 0.999983 
-0.00298607 0.00191137 0.999994 
0.00462766 -0.00187032 0.999988 
0.00305646 0.00182109 0.999994 
0.00901997 -0.00244333 0.999956 
0.00237261 -0.00214895 0.999995 
0.00282362 -0.00301532 0.999991 
0.00522336 -0.00133225 0.999985 
0.00247447 -0.00705884 0.999972 
0.005358 -0.00615069 0.999967 
0.00128694 -0.00384782 0.999992 
0.00561559 -0.00604871 0.999966 
0.00267116 -0.00760283 0.999968 
0.00530354 -0.00202064 0.999984 
0.00144051 -0.00660965 0.999977 
0.00416584 -0.00402821 0.999983 
0.00114892 -0.00694872 0.999975 
0.0029698 -0.000797738 0.999995 
0.00279392 -0.000152561 0.999996 
0.00560386 0.000942461 0.999984 
-0.00106473 0.0057341 0.999983 
0.00354312 0.00304574 0.999989 
0.00829038 0.0110985 0.999904 
0.00595388 0.0236492 0.999703 
0.0192521 0.0483449 0.998645 
0.0319257 0.075733 0.996617 
0.0567775 0.138812 0.98869 
0.0864572 0.22634 0.970204 
0.131493 0.349966 0.927488 
0.188061 0.517823 0.834561 
0.15946 -0.527149 0.834678 
0.109369 -0.360008 0.926516 
0.0691057 -0.226309 0.971601 
0.0420515 -0.137569 0.989599 
0.0235785 -0.0802154 0.996499 
0.0132537 -0.0398423 0.999118 
0.00559969 -0.0231684 0.999716 
0.00485429 -0.0113802 0.999923 
0.00110087 -0.00980492 0.999951 
0.00171877 -0.0011297 0.999998 
0.00737627 -0.00338726 0.999967 
-0.00169203 -0.00453888 0.999988 
0.000978074 -0.0031503 0.999995 
0.00467043 -0.00411433 0.999981 
0.00117682 0.000337958 0.999999 
0.00780473 -0.00306411 0.999965 
0.00295807 -0.00548605 0.999981 
0.00607092 -0.000439399 0.999981 
0.0040183 -0.00580503 0.999975 
0.00435939 -0.00183066 0.999989 
0.00511115 -0.00712879 0.999962 
0.0034462 -0.00294013 0.99999 
0.00480923 -0.00720963 0.999962 
0.00506053 -0.00402059 0.999979 
0.00294704 -0.00431815 0.999986 
0.00210576 -0.00152779 0.999997 
0.00392796 -0.00177888 0.999991 
0.00208057 -0.00286504 0.999994 
0.00288733 0.00247896 0.999993 
0.00368139 -0.00133716 0.999992 
0.00292743 0.00791581 0.999964 
0.00520517 0.00976399 0.999939 
0.0146828 0.0188286 0.999715 
0.0186786 0.0450155 0.998812 
0.0304748 0.0823402 0.996138 
0.0509362 0.137937 0.98913 
0.075353 0.220999 0.972359 
0.115337 0.346592 0.930898 
0.162825 0.505194 0.847507 
0.131636 -0.515001 0.847022 
0.0962599 -0.368382 0.924678 
0.0664396 -0.244595 0.967346 
0.0377389 -0.145722 0.988605 
0.0265244 -0.0885769 0.995716 
0.01296 -0.0451909 0.998894 
0.0054628 -0.0228727 0.999723 
0.00240051 -0.00709535 0.999972 
0.00155851 -0.00631381 0.999979 
0.000602511 -0.00194833 0.999998 
0.00179596 -0.00434831 0.999989 
0.00540406 -0.00178889 0.999984 
0.000954934 6.66033e-05 1 
0.00347086 -0.00365682 0.999987 
0.002969 -0.00316896 0.999991 
0.00535729 -0.00524605 0.999972 
0.00115821 -0.0036995 0.999992 
0.0032663 -0.00610927 0.999976 
0.00253927 -0.00615137 0.999978 
0.00094043 -0.0115768 0.999933 
-0.00184653 -0.00491302 0.999986 
0.00492374 -0.0111126 0.999926 
-0.00201514 -0.0073114 0.999971 
-0.000237098 -0.0061576 0.999981 
0.0044256 -0.00246256 0.999987 
0.00215256 -0.00490072 0.999986 
0.00482571 -0.00132581 0.999987 
0.00362875 -0.00156129 0.999992 
0.00342015 -0.00192432 0.999992 
0.00233288 0.000707903 0.999997 
0.00651322 0.00218753 0.999976 
0.00169766 0.00769529 0.999969 
0.00434192 0.0233296 0.999718 
0.0138455 0.0342327 0.999318 
0.0189841 0.0732135 0.997136 
0.0371379 0.126521 0.991269 
0.0587521 0.215917 0.974642 
0.0917718 0.331358 0.939031 
0.122281 0.496065 0.859632 
0.0991363 -0.510336 0.854242 
0.0669465 -0.318915 0.945416 
0.0411559 -0.185093 0.981859 
0.0246978 -0.105566 0.994106 
0.00842346 -0.0545596 0.998475 
0.00852923 -0.0251322 0.999648 
0.00303065 -0.0208716 0.999778 
-0.0009211 -0.00482481 0.999988 
0.000959964 -0.00616441 0.999981 
0.00312429 -0.00371617 0.999988 
-0.00352183 -0.00336986 0.999988 
0.00121946 -0.00233241 0.999997 
0.00455347 -0.00471644 0.999979 
0.00274746 -0.00438348 0.999987 
0.00165984 -0.00314511 0.999994 
0.00150818 -0.00510902 0.999986 
0.00329123 -0.00780251 0.999964 
0.00385637 -0.0075763 0.999964 
-0.00421701 -0.00779632 0.999961 
0.00694772 -0.00646796 0.999955 
-0.00114043 -0.00931962 0.999956 
-0.00178313 -0.00615614 0.999979 
0.00182432 -0.00320096 0.999993 
-1.05655e-06 -0.00758531 0.999971 
0.000519944 -0.00466926 0.999989 
-0.00110829 -0.00219567 0.999997 
0.00206688 -0.00172735 0.999996 
-0.00208398 -0.00286764 0.999994 
0.00582525 0.0029903 0.999979 
0.000689776 0.000843648 0.999999 
-0.00117473 0.00305697 0.999995 
0.0078985 0.00638708 0.999948 
0.00596033 0.0155732 0.999861 
0.0057257 0.0309284 0.999505 
0.018367 0.0640177 0.99778 
0.0208687 0.102498 0.994514 
0.0391992 0.187971 0.981392 
0.0635468 0.319122 0.945581 
0.0829122 0.496475 0.864082 
0.0622355 -0.510111 0.857854 
0.0479321 -0.351714 0.93488 
0.035436 -0.227325 0.973174 
0.0166912 -0.127331 0.99172 
0.0119096 -0.066942 0.997686 
0.00652542 -0.0358237 0.999337 
0.00208408 -0.0120388 0.999925 
0.00290151 -0.00790685 0.999965 
-0.00139142 -0.00447372 0.999989 
-0.000609121 -0.00308728 0.999995 
0.00196454 -0.00435776 0.999989 
0.00128598 -0.00322924 0.999994 
0.00200329 -0.00400971 0.99999 
-0.00113232 -0.0035455 0.999993 
0.00623874 -0.00494673 0.999968 
0.00490877 -0.00375673 0.999981 
0.000691644 -0.00503115 0.999987 
0.00491326 -0.00504815 0.999975 
0.00326166 -0.0100657 0.999944 
0.00105868 -0.00448199 0.999989 
0.000462037 -0.00971606 0.999953 
0.000566931 -0.00831535 0.999965 
0.00253341 -0.0100539 0.999946 
0.000500204 -0.00200521 0.999998 
0.00212722 -0.00683525 0.999974 
-6.93064e-05 -0.00210448 0.999998 
0.00597013 -0.00324798 0.999977 
0.0037781 0.00245059 0.99999 
-0.000541714 -0.00555327 0.999984 
0.00550622 0.000737681 0.999985 
0.00559966 0.00151836 0.999983 
0.00117785 0.00628806 0.99998 
0.00211438 0.0128052 0.999916 
0.00586228 0.0305193 0.999517 
0.0091333 0.0600022 0.998156 
0.0151814 0.120791 0.992562 
0.0238057 0.208755 0.977678 
0.0353741 0.334287 0.941807 
0.0464454 0.504025 0.86244 
0.0328962 -0.514392 0.856924 
0.0276226 -0.308705 0.950757 
0.0164614 -0.173019 0.984781 
0.0126841 -0.0934054 0.995547 
0.00554302 -0.0486551 0.9988 
0.00263343 -0.0211603 0.999773 
-0.00381341 -0.0173689 0.999842 
0.00419394 -0.0012345 0.99999 
-0.00138753 -0.00531798 0.999985 
-0.000812434 -0.00156093 0.999998 
0.00224066 -0.00244707 0.999994 
0.000720609 -0.00318584 0.999995 
0.000514349 -0.00534163 0.999986 
0.0056103 -0.00104386 0.999984 
0.00160987 -0.00673681 0.999976 
-0.0032909 -0.00770357 0.999965 
0.00282645 -0.00357303 0.99999 
-0.00157618 -0.00934401 0.999955 
-0.00160321 -0.00202788 0.999997 
-0.000627789 -0.0129913 0.999915 
-0.00174501 -0.00506109 0.999986 
0.000646244 -0.00679909 0.999977 
-0.00661664 -0.00436059 0.999969 
-0.00329402 -0.00918005 0.999952 
0.00162538 -0.000358492 0.999999 
0.00162286 -0.00327248 0.999993 
-0.00395352 -0.00164673 0.999991 
0.00255432 -0.00321694 0.999992 
0.00407139 0.0036769 0.999985 
0.000894167 0.00272849 0.999996 
0.00333382 0.00154501 0.999993 
-0.00026491 0.00533003 0.999986 
0.0070934 0.0126728 0.999895 
-0.00108089 0.0268991 0.999638 
0.00623404 0.054502 0.998494 
0.000569207 0.099102 0.995077 
0.01072 0.172924 0.984877 
0.0153888 0.308988 0.950941 
0.0157637 0.508784 0.86075 
0.0112862 -0.515652 0.856724 
0.0123414 -0.357778 0.933725 
0.00614212 -0.217678 0.976001 
0.00403324 -0.12176 0.992551 
0.00020001 -0.0606501 0.998159 
0.000212833 -0.0308956 0.999523 
0.00105296 -0.00982081 0.999951 
-0.00368687 -0.00867672 0.999956 
-0.00379339 -0.00468517 0.999982 
0.00235024 -0.00228547 0.999995 
-0.00419445 -0.00450349 0.999981 
0.00192676 -0.00291995 0.999994 
0.0015898 -0.000481642 0.999999 
0.0017097 -0.00878445 0.99996 
0.00179468 -0.000536786 0.999998 
0.00638836 -0.00454685 0.999969 
0.00124713 -0.00590392 0.999982 
0.00312075 -0.00702271 0.99997 
0.00343462 -0.00858389 0.999957 
7.00607e-05 -0.00616332 0.999981 
0.000110055 -0.00802484 0.999968 
-0.00277597 -0.00479543 0.999985 
0.00460391 -0.00745048 0.999962 
0.00405046 -0.00175623 0.99999 
-0.00414377 -0.00549155 0.999976 
0.00244551 -0.00462876 0.999986 
0.00196987 0.00141658 0.999997 
0.00129968 0.000792571 0.999999 
0.00280512 -0.000150819 0.999996 
0.000846728 -0.00260255 0.999996 
0.00322598 0.0025967 0.999991 
0.00122238 0.00448283 0.999989 
0.00115213 0.0125527 0.999921 
-0.000670246 0.0258826 0.999665 
0.00191322 0.0555829 0.998452 
-0.00343239 0.113002 0.993589 
-0.00356032 0.211249 0.977426 
-0.0129032 0.348778 0.937117 
-0.00967916 0.513844 0.857829 
-0.00836016 -0.511717 0.859114 
-0.0131813 -0.301091 0.953504 