# vtk DataFile Version 3.0 
Exported using Morpho https://github.com/Morpho-lang/morpho 
ASCII 
DATASET UNSTRUCTURED_GRID 

POINTS 1245 float 
-0.304038 -0.95266 0 
-0.251441 -0.967873 0 
-0.196599 -0.980484 0 
-0.147939 -0.988996 0 
-0.096254 -0.995357 0 
-0.0483601 -0.99883 0 
-0.000451504 -1 0 
0.0482414 -0.998836 0 
0.0956209 -0.995418 0 
0.145924 -0.989296 0 
0.198694 -0.980062 0 
0.248343 -0.968672 0 
0.30399 -0.952675 0 
-0.409672 -0.912233 0 
-0.356859 -0.934158 0 
-0.307625 -0.898571 0 
-0.256611 -0.914841 0 
-0.205389 -0.933372 0 
-0.153069 -0.927934 0 
-0.102396 -0.94791 0 
-0.0498583 -0.935106 0 
0.00142854 -0.953377 0 
0.052561 -0.9331 0 
0.104134 -0.942389 0 
0.156872 -0.938823 0 
0.206982 -0.919507 0 
0.258749 -0.920951 0 
0.310446 -0.900065 0 
0.357716 -0.93383 0 
0.410714 -0.911764 0 
-0.51437 -0.857568 0 
-0.462407 -0.886668 0 
-0.411015 -0.857376 0 
-0.359501 -0.879663 0 
-0.305707 -0.84665 0 
-0.253622 -0.86425 0 
-0.200473 -0.885626 0 
-0.148805 -0.868805 0 
-0.0992128 -0.89633 0 
-0.0484472 -0.873916 0 
0.00154915 -0.899374 0 
0.0506565 -0.870008 0 
0.099584 -0.888189 0 
0.15259 -0.889657 0 
0.203706 -0.862941 0 
0.255384 -0.874358 0 
0.307954 -0.849391 0 
0.361689 -0.879386 0 
0.412615 -0.856642 0 
0.46325 -0.886228 0 
0.514942 -0.857225 0 
-0.565364 -0.824841 0 
-0.512807 -0.802464 0 
-0.462454 -0.831649 0 
-0.409305 -0.803744 0 
-0.35814 -0.826779 0 
-0.304287 -0.794815 0 
-0.252533 -0.812725 0 
-0.199644 -0.834469 0 
-0.148659 -0.811689 0 
-0.0980329 -0.840437 0 
-0.0486484 -0.814709 0 
0.00110327 -0.841666 0 
0.0507222 -0.810511 0 
0.10012 -0.830521 0 
0.151601 -0.838979 0 
0.201398 -0.807576 0 
0.253879 -0.824556 0 
0.305585 -0.798078 0 
0.359663 -0.826545 0 
0.410331 -0.802786 0 
0.463256 -0.830671 0 
0.513382 -0.802055 0 
0.565855 -0.824505 0 
-0.661127 -0.750274 0 
-0.614521 -0.7889 0 
-0.561833 -0.769262 0 
-0.50964 -0.747742 0 
-0.460175 -0.777438 0 
-0.407225 -0.750461 0 
-0.356449 -0.774194 0 
-0.303021 -0.743169 0 
-0.251726 -0.760737 0 
-0.199698 -0.781574 0 
-0.149469 -0.755674 0 
-0.0987361 -0.784111 0 
-0.0495663 -0.757521 0 
0.00074427 -0.784506 0 
0.0499021 -0.753017 0 
0.0986422 -0.771593 0 
0.148465 -0.786798 0 
0.198905 -0.753762 0 
0.25178 -0.773224 0 
0.303018 -0.746409 0 
0.356897 -0.773838 0 
0.407278 -0.749476 0 
0.460508 -0.775969 0 
0.509912 -0.747635 0 
0.562265 -0.768427 0 
0.614899 -0.788606 0 
0.660916 -0.75046 0 
-0.707137 -0.707076 0 
-0.654232 -0.698242 0 
-0.60786 -0.732501 0 
-0.557385 -0.712939 0 
-0.507468 -0.693124 0 
-0.457791 -0.723521 0 
-0.40534 -0.697562 0 
-0.354815 -0.72183 0 
-0.302133 -0.691777 0 
-0.251077 -0.708675 0 
-0.199931 -0.727612 0 
-0.150301 -0.700335 0 
-0.0999236 -0.728385 0 
-0.051087 -0.701823 0 
-0.000421628 -0.728505 0 
0.0495464 -0.698598 0 
0.0984035 -0.713168 0 
0.147599 -0.732599 0 
0.197896 -0.700126 0 
0.250029 -0.721435 0 
0.301757 -0.694342 0 
0.353927 -0.721143 0 
0.403704 -0.696683 0 
0.456847 -0.721566 0 
0.505628 -0.694419 0 
0.557407 -0.711375 0 
0.607266 -0.730582 0 
0.652491 -0.698197 0 
0.706565 -0.707648 0 
-0.750394 -0.660991 0 
-0.698464 -0.654201 0 
-0.647093 -0.646808 0 
-0.60217 -0.67432 0 
-0.556909 -0.655804 0 
-0.506644 -0.64072 0 
-0.455848 -0.670392 0 
-0.404184 -0.645105 0 
-0.353627 -0.669626 0 
-0.301541 -0.640968 0 
-0.250517 -0.65732 0 
-0.200181 -0.673083 0 
-0.151003 -0.645606 0 
-0.100944 -0.673231 0 
-0.0519388 -0.647066 0 
-0.00212132 -0.674276 0 
0.047866 -0.647977 0 
0.0973944 -0.654915 0 
0.14682 -0.677634 0 
0.197663 -0.647208 0 
0.249531 -0.669554 0 
0.301392 -0.642514 0 
0.353151 -0.66764 0 
0.404352 -0.642769 0 
0.451679 -0.667224 0 
0.497353 -0.643748 0 
0.550472 -0.654874 0 
0.599514 -0.669274 0 
0.647435 -0.648156 0 
0.698584 -0.655155 0 
0.750179 -0.661235 0 
-0.789039 -0.614343 0 
-0.732835 -0.607626 0 
-0.675089 -0.602016 0 
-0.61271 -0.611831 0 
-0.56007 -0.604859 0 
-0.506586 -0.591159 0 
-0.4548 -0.618267 0 
-0.402585 -0.593363 0 
-0.352885 -0.617892 0 
-0.301898 -0.590774 0 
-0.249931 -0.607445 0 
-0.20047 -0.618026 0 
-0.152094 -0.591572 0 
-0.101636 -0.618979 0 
-0.0515543 -0.593574 0 
-0.00244032 -0.620678 0 
0.0493493 -0.600163 0 
0.0984462 -0.59791 0 
0.147214 -0.623273 0 
0.19846 -0.594491 0 
0.248849 -0.617954 0 
0.29924 -0.591281 0 
0.352315 -0.614754 0 
0.403831 -0.593284 0 
0.455787 -0.608592 0 
0.520167 -0.601585 0 
0.571237 -0.605653 0 
0.620059 -0.607814 0 
0.678676 -0.602486 0 
0.734122 -0.607948 0 
0.789144 -0.614208 0 
-0.824938 -0.565223 0 
-0.769277 -0.561556 0 
-0.712842 -0.556856 0 
-0.655558 -0.556882 0 
-0.604723 -0.559782 0 
-0.552376 -0.552301 0 
-0.499741 -0.541558 0 
-0.452146 -0.567692 0 
-0.399788 -0.54198 0 
-0.351333 -0.566006 0 
-0.301369 -0.539423 0 
-0.251944 -0.559984 0 
-0.202344 -0.562389 0 
-0.151729 -0.539373 0 
-0.101412 -0.56624 0 
-0.0504147 -0.541753 0 
-0.000400428 -0.568612 0 
0.0512066 -0.551572 0 
0.100052 -0.542814 0 
0.148635 -0.569469 0 
0.199383 -0.542248 0 
0.24951 -0.565612 0 
0.300492 -0.537743 0 
0.346797 -0.563054 0 
0.392054 -0.54738 0 
0.444834 -0.550376 0 
0.492055 -0.564982 0 
0.548979 -0.550909 0 
0.602765 -0.5553 0 
0.655752 -0.556591 0 
0.713249 -0.556635 0 
0.769373 -0.561367 0 
0.824922 -0.565247 0 
-0.857615 -0.514292 0 
-0.802388 -0.512635 0 
-0.747487 -0.509447 0 
-0.692481 -0.506961 0 
-0.640359 -0.506188 0 
-0.590701 -0.507101 0 
-0.539866 -0.49886 0 
-0.492526 -0.491066 0 
-0.44688 -0.51632 0 
-0.399236 -0.489206 0 
-0.350286 -0.513725 0 
-0.298979 -0.489497 0 
-0.247977 -0.513509 0 
-0.199703 -0.507566 0 
-0.150161 -0.487331 0 
-0.10059 -0.514616 0 
-0.049804 -0.490619 0 
0.000625811 -0.517509 0 
0.0508042 -0.501589 0 
0.0999639 -0.489781 0 
0.149517 -0.516323 0 
0.199861 -0.49053 0 
0.249857 -0.513971 0 
0.301105 -0.486926 0 
0.350992 -0.50621 0 
0.406179 -0.503633 0 
0.453702 -0.495579 0 
0.499381 -0.517896 0 
0.54509 -0.495628 0 
0.589875 -0.502992 0 
0.639769 -0.505125 0 
0.692133 -0.507178 0 
0.747231 -0.509351 0 
0.802239 -0.512834 0 
0.8575 -0.514485 0 
-0.886692 -0.462362 0 
-0.831447 -0.46229 0 
-0.776968 -0.459992 0 
-0.722557 -0.457864 0 
-0.668309 -0.454847 0 
-0.615699 -0.454692 0 
-0.563442 -0.455041 0 
-0.504959 -0.444494 0 
-0.448651 -0.462232 0 
-0.399535 -0.438236 0 
-0.349128 -0.46264 0 
-0.299137 -0.439068 0 
-0.248305 -0.464591 0 
-0.199624 -0.454437 0 
-0.150124 -0.436363 0 
-0.0998408 -0.463181 0 
-0.0495775 -0.439683 0 
0.000657363 -0.466432 0 
0.050398 -0.45109 0 
0.0997795 -0.438004 0 
0.14961 -0.46426 0 
0.20006 -0.439543 0 
0.250155 -0.462985 0 
0.300624 -0.436016 0 
0.349741 -0.453489 0 
0.398431 -0.460711 0 
0.448861 -0.444362 0 
0.501772 -0.463516 0 
0.556306 -0.446047 0 
0.610655 -0.453181 0 
0.665731 -0.455702 0 
0.720992 -0.458228 0 
0.776173 -0.460571 0 
0.831102 -0.462917 0 
0.886543 -0.462645 0 
-0.912236 -0.409665 0 
-0.857204 -0.410967 0 
-0.803392 -0.409217 0 
-0.74994 -0.407407 0 
-0.696663 -0.406178 0 
-0.642836 -0.402615 0 
-0.594083 -0.40314 0 
-0.543712 -0.409305 0 
-0.498184 -0.388941 0 
-0.452699 -0.414143 0 
-0.401283 -0.388854 0 
-0.349739 -0.411899 0 
-0.299455 -0.388886 0 
-0.248771 -0.414704 0 
-0.199804 -0.40237 0 
-0.150194 -0.385975 0 
-0.0998826 -0.412316 0 
-0.0496331 -0.389139 0 
0.000643541 -0.415495 0 
0.0502079 -0.40057 0 
0.099715 -0.387048 0 
0.149647 -0.41299 0 
0.200027 -0.388895 0 
0.250027 -0.412129 0 
0.301055 -0.385878 0 
0.350404 -0.401986 0 
0.40041 -0.412751 0 
0.450882 -0.391618 0 
0.499731 -0.416383 0 
0.544034 -0.393568 0 
0.59137 -0.399783 0 
0.642288 -0.404278 0 
0.695365 -0.407079 0 
0.749328 -0.408637 0 
0.803118 -0.410657 0 
0.857365 -0.412146 0 
0.912211 -0.40972 0 
-0.934162 -0.35685 0 
-0.879422 -0.35942 0 
-0.826293 -0.357958 0 
-0.773333 -0.356351 0 
-0.720158 -0.355668 0 
-0.665775 -0.356607 0 
-0.607138 -0.350008 0 
-0.553621 -0.361137 0 
-0.5022 -0.339404 0 
-0.449669 -0.361737 0 
-0.400008 -0.33791 0 
-0.350294 -0.361968 0 
-0.299735 -0.338845 0 
-0.249149 -0.364486 0 
-0.19989 -0.351123 0 
-0.150231 -0.335907 0 
-0.0999158 -0.361809 0 
-0.0496591 -0.338853 0 
0.000579022 -0.364807 0 
0.0501213 -0.350175 0 
0.0996736 -0.336536 0 
0.149689 -0.362171 0 
0.200173 -0.338592 0 
0.250216 -0.361805 0 
0.300977 -0.33584 0 
0.350317 -0.350432 0 
0.400031 -0.363711 0 
0.449445 -0.340113 0 
0.500426 -0.362497 0 
0.556035 -0.344079 0 
0.610296 -0.352686 0 
0.6665 -0.355417 0 
0.719677 -0.357923 0 
0.773735 -0.358184 0 
0.826983 -0.360351 0 
0.879942 -0.360326 0 
0.934344 -0.356372 0 
-0.952661 -0.304036 0 
-0.898427 -0.307629 0 
-0.846493 -0.305546 0 
-0.794931 -0.304029 0 
-0.743864 -0.303138 0 
-0.693611 -0.30459 0 
-0.643467 -0.30958 0 
-0.599353 -0.290969 0 
-0.55443 -0.313997 0 
-0.503336 -0.288984 0 
-0.45199 -0.311834 0 
-0.401101 -0.288191 0 
-0.349902 -0.311422 0 
-0.299643 -0.288622 0 
-0.249349 -0.314247 0 
-0.199915 -0.300435 0 
-0.150269 -0.285978 0 
-0.0999683 -0.311532 0 
-0.0497289 -0.288717 0 
0.000527779 -0.314369 0 
0.0500741 -0.299964 0 
0.0996409 -0.286337 0 
0.149787 -0.311716 0 
0.200238 -0.28842 0 
0.250326 -0.311555 0 
0.301235 -0.286006 0 
0.350591 -0.299681 0 
0.400449 -0.31341 0 
0.451856 -0.289027 0 
0.501314 -0.314699 0 
0.544921 -0.289691 0 
0.590901 -0.297941 0 
0.640135 -0.307218 0 
0.69435 -0.304347 0 
0.742809 -0.307966 0 
0.7979 -0.307375 0 
0.847482 -0.307936 0 
0.899876 -0.308548 0 
0.953167 -0.302446 0 
-0.967863 -0.251479 0 
-0.914487 -0.256648 0 
-0.863556 -0.253418 0 
-0.811732 -0.251971 0 
-0.759393 -0.251316 0 
-0.706493 -0.252194 0 
-0.653718 -0.258815 0 
-0.607533 -0.238533 0 
-0.553063 -0.261024 0 
-0.502377 -0.238056 0 
-0.452064 -0.261845 0 
-0.401205 -0.238175 0 
-0.350516 -0.261491 0 
-0.299965 -0.238667 0 
-0.249417 -0.263974 0 
-0.199916 -0.250071 0 
-0.150304 -0.236053 0 
-0.100036 -0.261399 0 
-0.0497663 -0.238671 0 
0.000445464 -0.264099 0 
0.0500404 -0.249853 0 
0.0996125 -0.23625 0 
0.149834 -0.261487 0 
0.200323 -0.238399 0 
0.25055 -0.261503 0 
0.301452 -0.23621 0 
0.351157 -0.249436 0 
0.401482 -0.263625 0 
0.451962 -0.237781 0 
0.501557 -0.260261 0 
[...]
POINT_DATA 1245 
VECTORS vectors float
0.843784 -0.27368 0.461657 
0.856606 -0.227905 0.462909 
0.866643 -0.179028 0.465703 
0.873948 -0.13493 0.466913 
0.880319 -0.0887601 0.466005 
0.880596 -0.045572 0.471672 
0.883816 -0.000976408 0.467834 
0.881799 0.042198 0.469734 
0.87812 0.0851025 0.470812 
0.873584 0.131096 0.468683 
0.865984 0.178139 0.467267 
0.856247 0.221945 0.466457 
0.842693 0.271327 0.465027 
0.809518 -0.36546 0.459478 
0.828114 -0.319748 0.460423 
0.717316 -0.249857 0.650407 
0.729674 -0.208916 0.651099 
0.754327 -0.170649 0.633932 
0.71931 -0.122794 0.683751 
0.759895 -0.0863715 0.644282 
0.715917 -0.0395979 0.697061 
0.764064 -0.00125764 0.645139 
0.709303 0.0403276 0.70375 
0.744941 0.0837771 0.661849 
0.75065 0.126935 0.648391 
0.716226 0.163142 0.678532 
0.746017 0.212609 0.631075 
0.720915 0.249325 0.646621 
0.826421 0.318409 0.464375 
0.806999 0.365123 0.464152 
0.761888 -0.456093 0.459897 
0.787463 -0.411009 0.459318 
0.687217 -0.331213 0.646553 
0.703724 -0.28981 0.648678 
0.586136 -0.214254 0.781371 
0.599245 -0.179438 0.780197 
0.62762 -0.14726 0.764465 
0.563607 -0.0994766 0.820031 
0.620879 -0.0722795 0.780567 
0.554917 -0.0330602 0.831248 
0.616918 0.000244421 0.787027 
0.545041 0.0314303 0.83782 
0.598821 0.067541 0.79803 
0.617285 0.107683 0.779335 
0.569542 0.13555 0.810709 
0.623174 0.183909 0.760152 
0.592597 0.217574 0.775558 
0.701182 0.291241 0.650786 
0.684668 0.330495 0.649617 
0.784447 0.41163 0.4639 
0.759081 0.456994 0.463631 
0.732881 -0.500383 0.460979 
0.646864 -0.411695 0.641929 
0.668626 -0.371532 0.644129 
0.562072 -0.28612 0.776022 
0.575385 -0.251735 0.778178 
0.468187 -0.181512 0.864786 
0.477735 -0.151979 0.865258 
0.500596 -0.12242 0.856981 
0.434062 -0.0834731 0.897007 
0.482612 -0.0584196 0.873884 
0.419799 -0.0273871 0.907204 
0.475163 -0.000432906 0.879897 
0.410976 0.02502 0.911303 
0.460357 0.0558366 0.885976 
0.493018 0.0904538 0.865304 
0.441779 0.112274 0.890071 
0.502329 0.155886 0.850509 
0.472639 0.181972 0.862264 
0.574055 0.249918 0.779745 
0.555676 0.286758 0.780381 
0.664205 0.371409 0.648758 
0.64281 0.413301 0.644963 
0.730055 0.502012 0.463685 
0.665981 -0.585076 0.462769 
0.700726 -0.543614 0.462025 
0.619965 -0.451393 0.641785 
0.526877 -0.357883 0.770922 
0.545511 -0.323166 0.773293 
0.44622 -0.243237 0.861234 
0.457903 -0.21181 0.863401 
0.366758 -0.151188 0.917949 
0.372981 -0.125424 0.919323 
0.391352 -0.102293 0.914538 
0.328062 -0.0664673 0.942315 
0.367922 -0.0479764 0.928618 
0.31507 -0.02194 0.948815 
0.359547 -0.000123232 0.933127 
0.307922 0.0196245 0.951209 
0.344371 0.0449706 0.937756 
0.38302 0.0714355 0.920974 
0.337989 0.0895554 0.93688 
0.395649 0.129326 0.909251 
0.370655 0.151719 0.916295 
0.454809 0.211428 0.865128 
0.443457 0.240987 0.863291 
0.540501 0.321187 0.777623 
0.524276 0.358399 0.772454 
0.616338 0.451684 0.645066 
0.698134 0.545604 0.4636 
0.664241 0.586719 0.463191 
0.627033 -0.626126 0.463461 
0.56791 -0.530726 0.629133 
0.588863 -0.486884 0.645124 
0.50223 -0.390794 0.771392 
0.42058 -0.307199 0.853663 
0.435206 -0.274067 0.857603 
0.350857 -0.203399 0.914072 
0.359878 -0.1779 0.915882 
0.285392 -0.12585 0.950112 
0.288567 -0.103385 0.951862 
0.298768 -0.0848937 0.950542 
0.248557 -0.0548163 0.967065 
0.276847 -0.0402421 0.960071 
0.235892 -0.0182569 0.971608 
0.268971 -0.00133252 0.963147 
0.230885 0.0160151 0.972849 
0.255221 0.0345279 0.966266 
0.291338 0.0601365 0.954728 
0.259318 0.0732468 0.96301 
0.304866 0.107353 0.946325 
0.287505 0.125135 0.94957 
0.355008 0.174943 0.918349 
0.345122 0.200962 0.916791 
0.426452 0.272069 0.862622 
0.419363 0.3059 0.854728 
0.497011 0.390676 0.774824 
0.58158 0.486028 0.652336 
0.564716 0.528686 0.63371 
0.626137 0.627576 0.46271 
0.585763 -0.664881 0.46348 
0.532098 -0.566873 0.628909 
0.468917 -0.468421 0.748798 
0.473243 -0.421751 0.773413 
0.399092 -0.337665 0.852472 
0.333471 -0.262436 0.905497 
0.340692 -0.231389 0.911257 
0.273298 -0.171493 0.946519 
0.277674 -0.146972 0.949366 
0.220578 -0.104395 0.969766 
0.221789 -0.0859751 0.971297 
0.225475 -0.0679194 0.971879 
0.18497 -0.0447823 0.981723 
0.206945 -0.0320961 0.977826 
0.175502 -0.0149865 0.984365 
0.202156 -0.00146471 0.979352 
0.176273 0.0132111 0.984253 
0.186581 0.0272991 0.98206 
0.217982 0.0465977 0.97484 
0.194766 0.0607131 0.978969 
0.234337 0.0864226 0.968306 
0.22025 0.104333 0.969848 
0.274435 0.146004 0.950457 
0.26787 0.169445 0.948438 
0.33229 0.225027 0.91594 
0.329443 0.255393 0.908979 
0.388972 0.329519 0.860301 
0.460016 0.412281 0.786391 
0.470437 0.473299 0.744767 
0.532471 0.569596 0.626127 
0.585402 0.666274 0.461934 
0.543965 -0.69962 0.463285 
0.486895 -0.587988 0.645913 
0.422767 -0.473942 0.772429 
0.378886 -0.378395 0.844549 
0.322792 -0.298261 0.898246 
0.266403 -0.227584 0.936608 
0.268088 -0.196857 0.943067 
0.210109 -0.142089 0.967298 
0.216478 -0.124115 0.968366 
0.170277 -0.0870844 0.981541 
0.170416 -0.0710275 0.982809 
0.169188 -0.055923 0.983996 
0.138853 -0.0363805 0.989645 
0.154686 -0.0265458 0.987607 
0.131175 -0.0123011 0.991283 
0.150227 -0.00155684 0.98865 
0.135821 0.0098074 0.990685 
0.136292 0.0224704 0.990414 
0.163854 0.0389284 0.985716 
0.147656 0.0476604 0.98789 
0.179979 0.0736756 0.980907 
0.169478 0.0855029 0.981818 
0.210411 0.120046 0.970214 
0.210489 0.143514 0.967005 
0.254257 0.191347 0.948019 
0.287696 0.249651 0.924611 
0.332754 0.314014 0.889196 
0.377862 0.387918 0.840678 
0.427306 0.481257 0.765377 
0.488696 0.592598 0.640316 
0.543954 0.700929 0.461316 
0.500145 -0.73194 0.46273 
0.451068 -0.618216 0.643697 
0.390395 -0.500498 0.772718 
0.337391 -0.396863 0.85362 
0.298378 -0.322265 0.898396 
0.25101 -0.250506 0.935009 
0.207603 -0.19164 0.959258 
0.209176 -0.165515 0.963769 
0.163378 -0.120898 0.979128 
0.164566 -0.10207 0.981071 
0.130192 -0.0740157 0.988722 
0.133338 -0.0602105 0.98924 
0.12462 -0.045637 0.991154 
0.103708 -0.0300041 0.994155 
0.114929 -0.0212315 0.993147 
0.0975339 -0.00991316 0.995183 
0.112305 -0.000233384 0.993674 
0.103058 0.00895399 0.994635 
0.100636 0.0183674 0.994754 
0.121621 0.0313338 0.992082 
0.111239 0.0422385 0.992896 
0.135002 0.0591296 0.989079 
0.127652 0.0706421 0.9893 
0.159777 0.0999916 0.982076 
0.163245 0.116974 0.979626 
0.187114 0.151844 0.970532 
0.226859 0.197981 0.953592 
0.245365 0.246452 0.937581 
0.291407 0.316452 0.90274 
0.336988 0.399136 0.852719 
0.390265 0.502678 0.771368 
0.451776 0.619007 0.64244 
0.501046 0.732569 0.460755 
0.455273 -0.761167 0.4619 
0.4109 -0.645061 0.644249 
0.35671 -0.525648 0.772303 
0.305798 -0.41744 0.855705 
0.261706 -0.332195 0.906177 
0.227738 -0.265627 0.936791 
0.190111 -0.204881 0.960147 
0.160608 -0.160514 0.973879 
0.159667 -0.138551 0.9774 
0.124125 -0.100694 0.987144 
0.125881 -0.0855012 0.988354 
0.09898 -0.0600181 0.993278 
0.103188 -0.0498558 0.993412 
0.0919216 -0.0368914 0.995083 
0.077165 -0.0240969 0.996727 
0.0862099 -0.0174043 0.996125 
0.0724029 -0.00784167 0.997345 
0.0848834 -0.000729192 0.996391 
0.0767235 0.00771322 0.997023 
0.0747157 0.0139803 0.997107 
0.0902895 0.0257581 0.995582 
0.0833935 0.0321883 0.995997 
0.103172 0.0502799 0.993392 
0.0977575 0.0613877 0.993315 
0.120289 0.0826528 0.989292 
0.13532 0.108801 0.98481 
0.146551 0.135366 0.979897 
0.185071 0.17854 0.966371 
0.189555 0.20924 0.959316 
0.223457 0.262359 0.938741 
0.259598 0.331284 0.907116 
0.306931 0.417154 0.855439 
0.356997 0.525924 0.771983 
0.412397 0.645457 0.642895 
0.457065 0.760952 0.460482 
0.409544 -0.787042 0.461344 
0.370079 -0.667081 0.646564 
0.321586 -0.543869 0.775106 
0.272916 -0.431201 0.85999 
0.228265 -0.337836 0.913106 
0.195496 -0.26267 0.944873 
0.165455 -0.206117 0.964438 
0.131674 -0.150129 0.979859 
0.124248 -0.119826 0.984989 
0.0951926 -0.087071 0.991644 
0.0957463 -0.0728477 0.992737 
0.0758696 -0.0517968 0.995772 
0.0778967 -0.0426327 0.996049 
0.068377 -0.0302888 0.9972 
0.057433 -0.0200458 0.998148 
0.0637832 -0.0146884 0.997856 
0.0542153 -0.00615234 0.99851 
0.0619693 -0.000809192 0.998078 
0.057755 0.00630554 0.998311 
0.0546951 0.0121511 0.998429 
0.0670167 0.0221821 0.997505 
0.0623373 0.0288513 0.997638 
0.0772819 0.0414638 0.996147 
0.0737959 0.0493726 0.99605 
0.0906575 0.0705688 0.993379 
0.106523 0.0927677 0.989973 
0.112558 0.113382 0.987155 
0.143353 0.155569 0.977368 
0.155375 0.194303 0.968558 
0.190263 0.256784 0.947556 
0.228518 0.334056 0.914432 
0.272275 0.429981 0.860804 
0.323481 0.541904 0.775693 
0.371623 0.667075 0.645684 
0.411836 0.786269 0.460622 
0.36343 -0.80954 0.461046 
0.32953 -0.686802 0.647852 
0.283998 -0.559845 0.778407 
0.242245 -0.445948 0.861654 
0.202624 -0.348546 0.915128 
0.16883 -0.268311 0.948423 
0.141991 -0.212153 0.966866 
0.126751 -0.167528 0.977685 
0.0994977 -0.126577 0.986954 
0.0973906 -0.107073 0.98947 
0.0748474 -0.0767038 0.994241 
0.0737297 -0.0624617 0.99532 
0.056588 -0.0437725 0.997438 
0.0596146 -0.0356494 0.997585 
0.0509891 -0.025255 0.99838 
0.0421702 -0.0173033 0.998961 
0.0472434 -0.0117625 0.998814 
0.0397271 -0.00587807 0.999193 
0.0459512 -0.00061886 0.998943 
0.0431513 0.00422012 0.99906 
0.0395972 0.0106266 0.999159 
0.0501769 0.01644 0.998605 
0.0465202 0.0235396 0.99864 
0.0583148 0.0351425 0.99768 
0.0561046 0.0447344 0.997422 
0.0692643 0.0597408 0.995808 
0.0833944 0.0805145 0.993259 
0.0863245 0.099453 0.991291 
0.113775 0.13672 0.984054 
0.117158 0.161435 0.979904 
0.139947 0.207542 0.968164 
0.169171 0.2684 0.948337 
0.204332 0.347411 0.91518 
0.242866 0.444727 0.86211 
0.287495 0.560551 0.776613 
0.332477 0.686675 0.64648 
0.365391 0.80847 0.461373 
0.31748 -0.82873 0.460883 
0.287535 -0.703268 0.650183 
0.249212 -0.574143 0.779906 
0.210296 -0.455924 0.864818 
0.176115 -0.356713 0.917463 
0.146958 -0.275045 0.950134 
0.116874 -0.202395 0.972305 
0.103576 -0.157082 0.982139 
0.0770647 -0.115902 0.990266 
0.0736547 -0.0915767 0.99307 
0.0564504 -0.0670084 0.996154 
0.0551376 -0.0534566 0.997047 
0.0440787 -0.0389236 0.99827 
0.0443553 -0.030886 0.998538 
0.0369676 -0.0217271 0.99908 
0.0321697 -0.0140968 0.999383 
0.0348491 -0.00983991 0.999344 
0.0288694 -0.00534212 0.999569 
0.033458 0.000693435 0.99944 
0.0307479 0.00362974 0.999521 
0.0304578 0.00779298 0.999506 
0.0370112 0.0153135 0.999198 
0.0340826 0.0196556 0.999226 
0.0439795 0.029512 0.998596 
0.0420255 0.0367966 0.998439 
0.0521681 0.0517454 0.997297 
0.0643184 0.071426 0.99537 
0.0666819 0.0872367 0.993953 
0.0863824 0.120775 0.988914 
0.0953537 0.15349 0.983539 
0.119881 0.207136 0.970939 
0.146538 0.275083 0.950187 
0.178262 0.356716 0.917048 
0.213553 0.457155 0.863368 
0.252632 0.576295 0.777214 
0.290726 0.703909 0.648067 
0.31859 0.827378 0.462544 
0.271398 -0.844867 0.461023 
0.246677 -0.717696 0.651201 
0.213449 -0.58668 0.781182 
0.178847 -0.46828 0.86529 
0.151276 -0.368781 0.917124 
0.126785 -0.288687 0.948992 
0.10898 -0.22671 0.967846 
0.0855555 -0.17472 0.980894 
0.0807501 -0.14459 0.986191 
0.0609232 -0.103865 0.992724 
0.0584221 -0.0836333 0.994783 
0.0421636 -0.059285 0.99735 
0.0425925 -0.0477607 0.99795 
0.0312928 -0.0329265 0.998968 
0.0331504 -0.0257662 0.999118 
0.0277378 -0.0184289 0.999445 
0.0225198 -0.0128062 0.999664 
0.025525 -0.00818121 0.999641 
0.0210033 -0.00304563 0.999775 
0.0255896 -0.00126999 0.999672 
0.0221863 0.00404486 0.999746 
0.0216446 0.00706476 0.999741 
0.0264077 0.0124193 0.999574 
0.0264243 0.0174245 0.999499 
0.0321181 0.0259326 0.999148 
0.0318304 0.0331324 0.998944 
0.0391389 0.0457792 0.998185 
0.0490146 0.0618377 0.996882 
0.0495725 0.0789804 0.995643 
0.0689988 0.107777 0.991778 
0.0699445 0.131726 0.988815 
0.0846709 0.168558 0.982048 
0.107629 0.220804 0.969361 
0.127916 0.288883 0.94878 
0.153593 0.368369 0.916904 
0.18507 0.475422 0.860071 
0.216378 0.58886 0.778733 
0.249464 0.720059 0.64752 
0.270909 0.843493 0.463819 
0.225703 -0.858024 0.461361 
0.207423 -0.730503 0.650646 
0.177058 -0.598265 0.781492 
0.149204 -0.47626 0.866553 
0.123711 -0.371235 0.920261 
0.10282 -0.286018 0.952692 
0.0875308 -0.220845 0.971373 
0.0661826 -0.167638 0.983625 
0.0614577 -0.129863 0.989625 
0.0449412 -0.0955723 0.994407 
0.0425693 -0.0749873 0.996275 
0.0331253 -0.0539998 0.997991 
0.0314565 -0.0419498 0.998624 
0.0240898 -0.0297703 0.999266 
0.0246031 -0.0240607 0.999408 
0.0201484 -0.016033 0.999668 
0.0167697 -0.0100261 0.999809 
0.0182578 -0.00825036 0.999799 
0.0156373 -0.00387353 0.99987 
0.0168535 -0.000546714 0.999858 
0.0165665 0.00254975 0.99986 
0.0155212 0.00591434 0.999862 
0.0193675 0.0104598 0.999758 
0.0176698 0.0147169 0.999736 
0.0239093 0.0224213 0.999463 
0.0231947 0.028826 0.999315 
0.0289784 0.0408118 0.998747 
0.0377175 0.0567014 0.997678 
0.0385271 0.071015 0.996731 
0.0507429 0.0982153 0.993871 
0.0559941 0.128382 0.990143 
0.0722063 0.173761 0.982137 
0.0905697 0.231283 0.968662 
0.104049 0.29391 0.950153 
0.13367 0.383929 0.913636 
0.149872 0.481899 0.863314 
0.182014 0.602008 0.777468 
0.207036 0.730429 0.650853 
0.222979 0.856602 0.46531 
0.177642 -0.868181 0.463362 
0.170156 -0.755766 0.632348 
0.143955 -0.627414 0.765263 
0.122585 -0.500085 0.857256 
0.0999669 -0.387448 0.916455 
0.0825678 -0.294532 0.952068 
0.0691624 -0.218793 0.973317 
0.0496392 -0.158313 0.98614 
0.0469767 -0.122212 0.991392 
0.033555 -0.0887239 0.995491 
0.0325765 -0.0684697 0.997121 
0.0222779 -0.0493802 0.998532 
0.0229074 -0.038629 0.998991 
0.0169363 -0.0270226 0.999491 
0.0174455 -0.0200135 0.999647 
0.0137284 -0.0144387 0.999802 
0.0120406 -0.0105806 0.999872 
0.0133384 -0.00571438 0.999895 
0.00977407 -0.00346742 0.999946 
0.0131083 8.38339e-05 0.999914 
0.0119376 0.00209642 0.999927 
0.00977118 0.00551125 0.999937 
0.0147332 0.00987953 0.999843 
0.0130422 0.0133606 0.999826 
0.0174404 0.0199495 0.999649 
0.0165899 0.0270827 0.999496 
0.0214305 0.0365112 0.999103 
0.0265755 0.0506941 0.998361 
0.0277448 0.0670594 0.997363 
0.03917 0.0928484 0.994909 
0.0391 0.119293 0.992089 
0.0542141 0.160601 0.985529 
0.0708597 0.215218 0.973992 
0.0757302 0.277458 0.957748 
0.104566 0.367739 0.924031 
0.114013 0.469982 0.875282 
0.144597 0.600509 0.786435 
0.163342 0.736021 0.656957 
0.175286 0.866981 0.466497 
0.134667 -0.87515 0.464735 
0.12237 -0.719664 0.683454 
0.099367 -0.563405 0.820184 
0.0796989 -0.431771 0.898455 
0.0672933 -0.328469 0.942115 
0.0554705 -0.249049 0.966901 
0.0467505 -0.192174 0.980247 
0.0341519 -0.147814 0.988425 
0.0339965 -0.115224 0.992758 
0.022833 -0.0837639 0.996224 
0.0234209 -0.0643875 0.99765 
0.0165569 -0.0461959 0.998795 
0.0167266 -0.0343088 0.999271 
0.01126 -0.0250601 0.999623 
0.0127557 -0.0187887 0.999742 
0.010282 -0.0129779 0.999863 
0.00752599 -0.00791865 0.99994 
0.00872901 -0.00579845 0.999945 
0.00841677 -0.00248207 0.999961 
0.00800003 -0.000484739 0.999968 
0.00744842 0.00242064 0.999969 
0.00860052 0.0044879 0.999953 
0.00946886 0.00764543 0.999926 
0.00906091 0.0125243 0.999881 
0.0120664 0.0178254 0.999768 
0.010882 0.0238981 0.999655 
0.0150147 0.0342177 0.999302 
0.0201593 0.0482925 0.99863 
0.0184663 0.0616056 0.99793 
0.0285381 0.0863297 0.995858 
0.0289429 0.111926 0.993295 
0.0367121 0.151723 0.987741 
0.0513345 0.20341 0.977747 
0.0529763 0.265125 0.962758 
0.0764979 0.351787 0.932949 
0.0790061 0.448917 0.890074 
0.102329 0.571398 0.814269 
0.121603 0.725003 0.677925 
0.130704 0.874904 0.466326 
0.0878321 -0.879897 0.466977 
0.0862368 -0.762534 0.641175 
0.0712043 -0.619833 0.781497 
0.0593701 -0.480887 0.87477 
0.0470674 -0.362375 0.930843 
0.0382796 -0.269818 0.96215 
0.0327485 -0.19897 0.979458 
0.0211179 -0.143359 0.989445 
0.0220718 -0.108527 0.993848 
0.0151092 -0.0799597 0.996684 
0.0147454 -0.0602566 0.998074 
0.0100768 -0.0438209 0.998989 
0.010125 -0.0336561 0.999382 
0.00797205 -0.0229815 0.999704 
0.00749383 -0.0174067 0.99982 
0.00581742 -0.012321 0.999907 
0.00514379 -0.00827103 0.999953 
0.0056074 -0.00607812 0.999966 
0.00304139 -0.00228074 0.999993 
0.00607942 -0.000860132 0.999981 
0.00463591 0.00204112 0.999987 
0.00364866 0.00451854 0.999983 
0.00543402 0.00839304 0.99995 
0.00518574 0.0105725 0.999931 
0.00778596 0.0171857 0.999822 
0.00777633 0.0232708 0.999699 
0.00845235 0.0323094 0.999442 
0.0129042 0.0437342 0.99896 
0.0130459 0.0601769 0.998102 
0.0172586 0.081967 0.996486 
0.0160447 0.108545 0.993962 
0.0243954 0.145254 0.989094 
0.0355467 0.197219 0.979715 
0.0327889 0.257225 0.965795 
0.0520458 0.344793 0.937235 
0.0523347 0.457465 0.887686 
0.0709726 0.604052 0.793778 
0.0822975 0.752698 0.653202 
0.0848425 0.880115 0.467119 
0.0452549 -0.883792 0.465686 
0.0420666 -0.716303 0.69652 
0.033619 -0.554167 0.831727 
0.0258392 -0.417382 0.908364 
0.0222053 -0.312934 0.949515 
0.0186716 -0.235635 0.971662 
0.0167357 -0.180643 0.983406 
0.00804117 -0.140219 0.990088 
0.012065 -0.106332 0.994257 
0.00551576 -0.0781666 0.996925 
0.0079372 -0.058792 0.998239 
0.00415871 -0.0427124 0.999079 
0.00580606 -0.0308722 0.999506 
0.00238091 -0.0232944 0.999726 
0.00471226 -0.0162569 0.999857 
0.00344685 -0.0112796 0.99993 
0.0015917 -0.00835133 0.999964 
0.00387311 -0.00423306 0.999984 
0.00288963 -0.00353222 0.99999 
0.00280162 0.000166206 0.999996 
0.00310763 0.00147344 0.999994 
0.00177185 0.00430218 0.999989 
0.00445913 0.00677238 0.999967 
0.00263126 0.0117343 0.999928 
0.00357635 0.0158102 0.999869 
0.0021516 0.0217575 0.999761 
0.00520609 0.0312282 0.999499 
0.00654468 0.0433865 0.999037 
0.00390697 0.057179 0.998356 
0.0101171 0.0786747 0.996849 
0.00628513 0.106185 0.994327 
0.0122811 0.142619 0.989701 
0.0184731 0.191825 0.981255 
0.0144162 0.255748 0.966636 
0.0288254 0.340816 0.939688 
0.0221742 0.43492 0.900196 
0.0331417 0.560794 0.827292 
0.0389461 0.715846 0.697172 
0.0422838 0.884058 0.465461 
0.0029413 -0.885857 0.463949 
0.00222744 -0.765507 0.643423 
0.00170698 -0.619717 0.784824 
0.00230556 -0.47621 0.879329 
0.00108801 -0.356123 0.934439 
0.000853239 -0.262602 0.964904 
0.00188628 -0.192472 0.981301 
-0.00227931 -0.140549 0.990071 
0.00326915 -0.104224 0.994548 
-0.00212097 -0.0779826 0.996952 
0.00282 -0.057294 0.998353 
-0.00167551 -0.0421664 0.999109 
0.0016599 -0.0317153 0.999496 
-0.000302575 -0.021427 0.99977 
0.000918282 -0.016576 0.999862 
0.00014202 -0.0111051 0.999938 
-3.89318e-05 -0.00741578 0.999973 
-0.000178601 -0.00471003 0.999989 
-0.000718655 -0.00181703 0.999998 
0.000683154 6.29683e-06 1 
-0.000302763 0.00186731 0.999998 
1.52201e-05 0.00433996 0.999991 
-0.000394684 0.00746856 0.999972 
-0.00117746 0.0100803 0.999948 
0.00157081 0.016029 0.99987 
-0.00138948 0.0229127 0.999737 
7.69207e-05 0.0303417 0.99954 
0.00190463 0.041549 0.999135 
-0.00126226 0.0582027 0.998304 
0.0025678 0.0785878 0.996904 
-0.00300927 0.104786 0.99449 
-0.00019726 0.142563 0.989786 
0.00509329 0.189881 0.981794 
-0.00370383 0.252669 0.967546 
0.00588912 0.337161 0.941429 
-0.004482 0.454213 0.890882 
0.000325638 0.604391 0.796688 
0.000296627 0.759319 0.650719 
0.000369489 0.886469 0.462787 
-0.03979 -0.882839 0.467987 
-0.0370041 -0.717121 0.695966 
-0.0300633 -0.553247 0.832475 
-0.0251673 -0.418899 0.907684 
-0.0191101 -0.313567 0.949374 
-0.0166554 -0.235853 0.971646 
-0.0118084 -0.182022 0.983223 
-0.0149552 -0.142014 0.989752 
-0.00794363 -0.106057 0.994328 
-0.00861918 -0.079105 0.996829 
-0.00548452 -0.0585433 0.99827 
-0.0053031 -0.0432549 0.99905 
-0.00303599 -0.0307642 0.999522 
-0.00470899 -0.0240327 0.9997 
-0.00146451 -0.0159854 0.999871 
-0.00285165 -0.0120155 0.999924 
-0.0032274 -0.00753136 0.999966 
-0.000202042 -0.00574722 0.999983 
-0.00291365 -0.00194023 0.999994 
-0.000518934 -0.00113585 0.999999 
-0.00218112 0.00239549 0.999995 
-0.0029414 0.00402394 0.999988 
-0.000545389 0.00694481 0.999976 
-0.0029753 0.0120432 0.999923 
-0.00213652 0.0152333 0.999882 
-0.00387128 0.0224181 0.999741 
-0.00487991 0.0310098 0.999507 
-0.00383931 0.0430325 0.999066 
-0.00734896 0.0571407 0.998339 
-0.00722814 0.0783793 0.996897 
-0.0118936 0.107865 0.994094 
-0.0126913 0.142211 0.989755 
-0.0101413 0.190195 0.981694 
-0.0229401 0.256651 0.966232 