# vtk DataFile Version 3.0 
Exported using Morpho https://github.com/Morpho-lang/morpho 
ASCII 
DATASET UNSTRUCTURED_GRID 

POINTS 1245 float 
-0.304038 -0.95266 0 
-0.251441 -0.967873 0 
-0.196599 -0.980484 0 
-0.147939 -0.988996 0 
-0.096254 -0.995357 0 
-0.0483601 -0.99883 0 
-0.000451504 -1 0 
0.0482414 -0.998836 0 
0.0956209 -0.995418 0 
0.145924 -0.989296 0 
0.198694 -0.980062 0 
0.248343 -0.968672 0 
0.30399 -0.952675 0 
-0.409672 -0.912233 0 
-0.356859 -0.934158 0 
-0.307625 -0.898571 0 
-0.256611 -0.914841 0 
-0.205389 -0.933372 0 
-0.153069 -0.927934 0 
-0.102396 -0.94791 0 
-0.0498583 -0.935106 0 
0.00142854 -0.953377 0 
0.052561 -0.9331 0 
0.104134 -0.942389 0 
0.156872 -0.938823 0 
0.206982 -0.919507 0 
0.258749 -0.920951 0 
0.310446 -0.900065 0 
0.357716 -0.93383 0 
0.410714 -0.911764 0 
-0.51437 -0.857568 0 
-0.462407 -0.886668 0 
-0.411015 -0.857376 0 
-0.359501 -0.879663 0 
-0.305707 -0.84665 0 
-0.253622 -0.86425 0 
-0.200473 -0.885626 0 
-0.148805 -0.868805 0 
-0.0992128 -0.89633 0 
-0.0484472 -0.873916 0 
0.00154915 -0.899374 0 
0.0506565 -0.870008 0 
0.099584 -0.888189 0 
0.15259 -0.889657 0 
0.203706 -0.862941 0 
0.255384 -0.874358 0 
0.307954 -0.849391 0 
0.361689 -0.879386 0 
0.412615 -0.856642 0 
0.46325 -0.886228 0 
0.514942 -0.857225 0 
-0.565364 -0.824841 0 
-0.512807 -0.802464 0 
-0.462454 -0.831649 0 
-0.409305 -0.803744 0 
-0.35814 -0.826779 0 
-0.304287 -0.794815 0 
-0.252533 -0.812725 0 
-0.199644 -0.834469 0 
-0.148659 -0.811689 0 
-0.0980329 -0.840437 0 
-0.0486484 -0.814709 0 
0.00110327 -0.841666 0 
0.0507222 -0.810511 0 
0.10012 -0.830521 0 
0.151601 -0.838979 0 
0.201398 -0.807576 0 
0.253879 -0.824556 0 
0.305585 -0.798078 0 
0.359663 -0.826545 0 
0.410331 -0.802786 0 
0.463256 -0.830671 0 
0.513382 -0.802055 0 
0.565855 -0.824505 0 
-0.661127 -0.750274 0 
-0.614521 -0.7889 0 
-0.561833 -0.769262 0 
-0.50964 -0.747742 0 
-0.460175 -0.777438 0 
-0.407225 -0.750461 0 
-0.356449 -0.774194 0 
-0.303021 -0.743169 0 
-0.251726 -0.760737 0 
-0.199698 -0.781574 0 
-0.149469 -0.755674 0 
-0.0987361 -0.784111 0 
-0.0495663 -0.757521 0 
0.00074427 -0.784506 0 
0.0499021 -0.753017 0 
0.0986422 -0.771593 0 
0.148465 -0.786798 0 
0.198905 -0.753762 0 
0.25178 -0.773224 0 
0.303018 -0.746409 0 
0.356897 -0.773838 0 
0.407278 -0.749476 0 
0.460508 -0.775969 0 
0.509912 -0.747635 0 
0.562265 -0.768427 0 
0.614899 -0.788606 0 
0.660916 -0.75046 0 
-0.707137 -0.707076 0 
-0.654232 -0.698242 0 
-0.60786 -0.732501 0 
-0.557385 -0.712939 0 
-0.507468 -0.693124 0 
-0.457791 -0.723521 0 
-0.40534 -0.697562 0 
-0.354815 -0.72183 0 
-0.302133 -0.691777 0 
-0.251077 -0.708675 0 
-0.199931 -0.727612 0 
-0.150301 -0.700335 0 
-0.0999236 -0.728385 0 
-0.051087 -0.701823 0 
-0.000421628 -0.728505 0 
0.0495464 -0.698598 0 
0.0984035 -0.713168 0 
0.147599 -0.732599 0 
0.197896 -0.700126 0 
0.250029 -0.721435 0 
0.301757 -0.694342 0 
0.353927 -0.721143 0 
0.403704 -0.696683 0 
0.456847 -0.721566 0 
0.505628 -0.694419 0 
0.557407 -0.711375 0 
0.607266 -0.730582 0 
0.652491 -0.698197 0 
0.706565 -0.707648 0 
-0.750394 -0.660991 0 
-0.698464 -0.654201 0 
-0.647093 -0.646808 0 
-0.60217 -0.67432 0 
-0.556909 -0.655804 0 
-0.506644 -0.64072 0 
-0.455848 -0.670392 0 
-0.404184 -0.645105 0 
-0.353627 -0.669626 0 
-0.301541 -0.640968 0 
-0.250517 -0.65732 0 
-0.200181 -0.673083 0 
-0.151003 -0.645606 0 
-0.100944 -0.673231 0 
-0.0519388 -0.647066 0 
-0.00212132 -0.674276 0 
0.047866 -0.647977 0 
0.0973944 -0.654915 0 
0.14682 -0.677634 0 
0.197663 -0.647208 0 
0.249531 -0.669554 0 
0.301392 -0.642514 0 
0.353151 -0.66764 0 
0.404352 -0.642769 0 
0.451679 -0.667224 0 
0.497353 -0.643748 0 
0.550472 -0.654874 0 
0.599514 -0.669274 0 
0.647435 -0.648156 0 
0.698584 -0.655155 0 
0.750179 -0.661235 0 
-0.789039 -0.614343 0 
-0.732835 -0.607626 0 
-0.675089 -0.602016 0 
-0.61271 -0.611831 0 
-0.56007 -0.604859 0 
-0.506586 -0.591159 0 
-0.4548 -0.618267 0 
-0.402585 -0.593363 0 
-0.352885 -0.617892 0 
-0.301898 -0.590774 0 
-0.249931 -0.607445 0 
-0.20047 -0.618026 0 
-0.152094 -0.591572 0 
-0.101636 -0.618979 0 
-0.0515543 -0.593574 0 
-0.00244032 -0.620678 0 
0.0493493 -0.600163 0 
0.0984462 -0.59791 0 
0.147214 -0.623273 0 
0.19846 -0.594491 0 
0.248849 -0.617954 0 
0.29924 -0.591281 0 
0.352315 -0.614754 0 
0.403831 -0.593284 0 
0.455787 -0.608592 0 
0.520167 -0.601585 0 
0.571237 -0.605653 0 
0.620059 -0.607814 0 
0.678676 -0.602486 0 
0.734122 -0.607948 0 
0.789144 -0.614208 0 
-0.824938 -0.565223 0 
-0.769277 -0.561556 0 
-0.712842 -0.556856 0 
-0.655558 -0.556882 0 
-0.604723 -0.559782 0 
-0.552376 -0.552301 0 
-0.499741 -0.541558 0 
-0.452146 -0.567692 0 
-0.399788 -0.54198 0 
-0.351333 -0.566006 0 
-0.301369 -0.539423 0 
-0.251944 -0.559984 0 
-0.202344 -0.562389 0 
-0.151729 -0.539373 0 
-0.101412 -0.56624 0 
-0.0504147 -0.541753 0 
-0.000400428 -0.568612 0 
0.0512066 -0.551572 0 
0.100052 -0.542814 0 
0.148635 -0.569469 0 
0.199383 -0.542248 0 
0.24951 -0.565612 0 
0.300492 -0.537743 0 
0.346797 -0.563054 0 
0.392054 -0.54738 0 
0.444834 -0.550376 0 
0.492055 -0.564982 0 
0.548979 -0.550909 0 
0.602765 -0.5553 0 
0.655752 -0.556591 0 
0.713249 -0.556635 0 
0.769373 -0.561367 0 
0.824922 -0.565247 0 
-0.857615 -0.514292 0 
-0.802388 -0.512635 0 
-0.747487 -0.509447 0 
-0.692481 -0.506961 0 
-0.640359 -0.506188 0 
-0.590701 -0.507101 0 
-0.539866 -0.49886 0 
-0.492526 -0.491066 0 
-0.44688 -0.51632 0 
-0.399236 -0.489206 0 
-0.350286 -0.513725 0 
-0.298979 -0.489497 0 
-0.247977 -0.513509 0 
-0.199703 -0.507566 0 
-0.150161 -0.487331 0 
-0.10059 -0.514616 0 
-0.049804 -0.490619 0 
0.000625811 -0.517509 0 
0.0508042 -0.501589 0 
0.0999639 -0.489781 0 
0.149517 -0.516323 0 
0.199861 -0.49053 0 
0.249857 -0.513971 0 
0.301105 -0.486926 0 
0.350992 -0.50621 0 
0.406179 -0.503633 0 
0.453702 -0.495579 0 
0.499381 -0.517896 0 
0.54509 -0.495628 0 
0.589875 -0.502992 0 
0.639769 -0.505125 0 
0.692133 -0.507178 0 
0.747231 -0.509351 0 
0.802239 -0.512834 0 
0.8575 -0.514485 0 
-0.886692 -0.462362 0 
-0.831447 -0.46229 0 
-0.776968 -0.459992 0 
-0.722557 -0.457864 0 
-0.668309 -0.454847 0 
-0.615699 -0.454692 0 
-0.563442 -0.455041 0 
-0.504959 -0.444494 0 
-0.448651 -0.462232 0 
-0.399535 -0.438236 0 
-0.349128 -0.46264 0 
-0.299137 -0.439068 0 
-0.248305 -0.464591 0 
-0.199624 -0.454437 0 
-0.150124 -0.436363 0 
-0.0998408 -0.463181 0 
-0.0495775 -0.439683 0 
0.000657363 -0.466432 0 
0.050398 -0.45109 0 
0.0997795 -0.438004 0 
0.14961 -0.46426 0 
0.20006 -0.439543 0 
0.250155 -0.462985 0 
0.300624 -0.436016 0 
0.349741 -0.453489 0 
0.398431 -0.460711 0 
0.448861 -0.444362 0 
0.501772 -0.463516 0 
0.556306 -0.446047 0 
0.610655 -0.453181 0 
0.665731 -0.455702 0 
0.720992 -0.458228 0 
0.776173 -0.460571 0 
0.831102 -0.462917 0 
0.886543 -0.462645 0 
-0.912236 -0.409665 0 
-0.857204 -0.410967 0 
-0.803392 -0.409217 0 
-0.74994 -0.407407 0 
-0.696663 -0.406178 0 
-0.642836 -0.402615 0 
-0.594083 -0.40314 0 
-0.543712 -0.409305 0 
-0.498184 -0.388941 0 
-0.452699 -0.414143 0 
-0.401283 -0.388854 0 
-0.349739 -0.411899 0 
-0.299455 -0.388886 0 
-0.248771 -0.414704 0 
-0.199804 -0.40237 0 
-0.150194 -0.385975 0 
-0.0998826 -0.412316 0 
-0.0496331 -0.389139 0 
0.000643541 -0.415495 0 
0.0502079 -0.40057 0 
0.099715 -0.387048 0 
0.149647 -0.41299 0 
0.200027 -0.388895 0 
0.250027 -0.412129 0 
0.301055 -0.385878 0 
0.350404 -0.401986 0 
0.40041 -0.412751 0 
0.450882 -0.391618 0 
0.499731 -0.416383 0 
0.544034 -0.393568 0 
0.59137 -0.399783 0 
0.642288 -0.404278 0 
0.695365 -0.407079 0 
0.749328 -0.408637 0 
0.803118 -0.410657 0 
0.857365 -0.412146 0 
0.912211 -0.40972 0 
-0.934162 -0.35685 0 
-0.879422 -0.35942 0 
-0.826293 -0.357958 0 
-0.773333 -0.356351 0 
-0.720158 -0.355668 0 
-0.665775 -0.356607 0 
-0.607138 -0.350008 0 
-0.553621 -0.361137 0 
-0.5022 -0.339404 0 
-0.449669 -0.361737 0 
-0.400008 -0.33791 0 
-0.350294 -0.361968 0 
-0.299735 -0.338845 0 
-0.249149 -0.364486 0 
-0.19989 -0.351123 0 
-0.150231 -0.335907 0 
-0.0999158 -0.361809 0 
-0.0496591 -0.338853 0 
0.000579022 -0.364807 0 
0.0501213 -0.350175 0 
0.0996736 -0.336536 0 
0.149689 -0.362171 0 
0.200173 -0.338592 0 
0.250216 -0.361805 0 
0.300977 -0.33584 0 
0.350317 -0.350432 0 
0.400031 -0.363711 0 
0.449445 -0.340113 0 
0.500426 -0.362497 0 
0.556035 -0.344079 0 
0.610296 -0.352686 0 
0.6665 -0.355417 0 
0.719677 -0.357923 0 
0.773735 -0.358184 0 
0.826983 -0.360351 0 
0.879942 -0.360326 0 
0.934344 -0.356372 0 
-0.952661 -0.304036 0 
-0.898427 -0.307629 0 
-0.846493 -0.305546 0 
-0.794931 -0.304029 0 
-0.743864 -0.303138 0 
-0.693611 -0.30459 0 
-0.643467 -0.30958 0 
-0.599353 -0.290969 0 
-0.55443 -0.313997 0 
-0.503336 -0.288984 0 
-0.45199 -0.311834 0 
-0.401101 -0.288191 0 
-0.349902 -0.311422 0 
-0.299643 -0.288622 0 
-0.249349 -0.314247 0 
-0.199915 -0.300435 0 
-0.150269 -0.285978 0 
-0.0999683 -0.311532 0 
-0.0497289 -0.288717 0 
0.000527779 -0.314369 0 
0.0500741 -0.299964 0 
0.0996409 -0.286337 0 
0.149787 -0.311716 0 
0.200238 -0.28842 0 
0.250326 -0.311555 0 
0.301235 -0.286006 0 
0.350591 -0.299681 0 
0.400449 -0.31341 0 
0.451856 -0.289027 0 
0.501314 -0.314699 0 
0.544921 -0.289691 0 
0.590901 -0.297941 0 
0.640135 -0.307218 0 
0.69435 -0.304347 0 
0.742809 -0.307966 0 
0.7979 -0.307375 0 
0.847482 -0.307936 0 
0.899876 -0.308548 0 
0.953167 -0.302446 0 
-0.967863 -0.251479 0 
-0.914487 -0.256648 0 
-0.863556 -0.253418 0 
-0.811732 -0.251971 0 
-0.759393 -0.251316 0 
-0.706493 -0.252194 0 
-0.653718 -0.258815 0 
-0.607533 -0.238533 0 
-0.553063 -0.261024 0 
-0.502377 -0.238056 0 
-0.452064 -0.261845 0 
-0.401205 -0.238175 0 
-0.350516 -0.261491 0 
-0.299965 -0.238667 0 
-0.249417 -0.263974 0 
-0.199916 -0.250071 0 
-0.150304 -0.236053 0 
-0.100036 -0.261399 0 
-0.0497663 -0.238671 0 
0.000445464 -0.264099 0 
0.0500404 -0.249853 0 
0.0996125 -0.23625 0 
0.149834 -0.261487 0 
0.200323 -0.238399 0 
0.25055 -0.261503 0 
0.301452 -0.23621 0 
0.351157 -0.249436 0 
0.401482 -0.263625 0 
0.451962 -0.237781 0 
0.501557 -0.260261 0 
[...]
POINT_DATA 1245 
VECTORS vectors float
0.868967 -0.278522 0.409049 
0.882787 -0.230886 0.409119 
0.893771 -0.181056 0.410356 
0.901641 -0.136341 0.410432 
0.908214 -0.0897764 0.408763 
0.909085 -0.0454817 0.414122 
0.912151 -0.00128934 0.409853 
0.909926 0.0432254 0.412512 
0.906237 0.087164 0.413687 
0.901253 0.133971 0.412061 
0.893097 0.182097 0.411361 
0.882852 0.227706 0.410758 
0.868698 0.277993 0.40998 
0.832177 -0.374424 0.40901 
0.852131 -0.326397 0.40907 
0.753096 -0.258673 0.604926 
0.767629 -0.216801 0.603111 
0.792593 -0.176327 0.5837 
0.760534 -0.127318 0.636694 
0.799977 -0.0879099 0.593556 
0.759263 -0.0421606 0.649417 
0.803675 0.000873733 0.595068 
0.753221 0.0419803 0.656427 
0.78534 0.0874692 0.612855 
0.789914 0.132817 0.598662 
0.757018 0.171445 0.6305 
0.782806 0.220654 0.581831 
0.757536 0.262484 0.597697 
0.851384 0.326719 0.410366 
0.831234 0.375003 0.410394 
0.782561 -0.469427 0.408946 
0.808974 -0.422286 0.408944 
0.720576 -0.345747 0.601023 
0.738179 -0.302713 0.602873 
0.628808 -0.228112 0.743348 
0.64241 -0.189867 0.742469 
0.671148 -0.153182 0.725325 
0.611078 -0.106351 0.784393 
0.667205 -0.0750876 0.74108 
0.602756 -0.0343765 0.797185 
0.66468 0.000305252 0.747128 
0.592767 0.0342867 0.804644 
0.646009 0.0729547 0.759836 
0.663888 0.114273 0.739049 
0.6154 0.146224 0.774533 
0.667437 0.195932 0.718428 
0.635541 0.230621 0.736818 
0.738534 0.303882 0.60185 
0.71873 0.347038 0.602489 
0.807973 0.422829 0.41036 
0.781449 0.470038 0.410367 
0.752738 -0.515821 0.409041 
0.676507 -0.432453 0.59609 
0.700099 -0.38958 0.598405 
0.599581 -0.30613 0.739451 
0.615352 -0.266947 0.741675 
0.510881 -0.196462 0.836901 
0.522369 -0.163085 0.836979 
0.548252 -0.132766 0.825708 
0.479918 -0.0885798 0.87283 
0.531331 -0.0633981 0.844789 
0.467563 -0.0285295 0.883499 
0.524088 2.76137e-05 0.851664 
0.458816 0.0285865 0.888071 
0.508751 0.0613763 0.858723 
0.540421 0.0980094 0.835667 
0.488228 0.121834 0.86417 
0.548661 0.169653 0.818651 
0.518037 0.199071 0.831871 
0.614465 0.268564 0.741827 
0.598118 0.305598 0.740854 
0.69757 0.389663 0.601297 
0.675361 0.432596 0.597284 
0.75159 0.516453 0.410352 
0.684675 -0.603227 0.409068 
0.719901 -0.560664 0.409143 
0.648933 -0.473713 0.595384 
0.562815 -0.383485 0.732242 
0.582702 -0.344796 0.735917 
0.487217 -0.264317 0.832319 
0.499896 -0.230862 0.83475 
0.409098 -0.167336 0.897016 
0.417027 -0.138882 0.898221 
0.435415 -0.11242 0.893183 
0.37337 -0.0750289 0.924643 
0.413422 -0.0531605 0.908986 
0.359715 -0.0242863 0.932746 
0.405317 -0.00033808 0.914176 
0.351821 0.0232074 0.935779 
0.389899 0.049416 0.919531 
0.429158 0.0818804 0.89951 
0.383683 0.101821 0.917834 
0.439297 0.143749 0.886766 
0.414014 0.168446 0.894549 
0.498611 0.230178 0.835707 
0.483335 0.263684 0.83478 
0.578436 0.344188 0.739558 
0.561692 0.383702 0.732991 
0.646531 0.473941 0.597811 
0.718735 0.561326 0.410284 
0.683964 0.60349 0.409869 
0.645381 -0.645057 0.409127 
0.594346 -0.556632 0.580443 
0.617012 -0.511979 0.59764 
0.536545 -0.419489 0.732222 
0.456761 -0.334096 0.824469 
0.472552 -0.299344 0.828907 
0.389199 -0.22656 0.892857 
0.399392 -0.196649 0.895442 
0.324383 -0.142128 0.935187 
0.328814 -0.117307 0.937081 
0.340815 -0.0940773 0.935411 
0.287426 -0.0624681 0.955763 
0.319031 -0.0442602 0.94671 
0.275876 -0.0207133 0.96097 
0.311659 -0.000561105 0.950194 
0.271566 0.0189593 0.962233 
0.295947 0.0410103 0.954324 
0.333954 0.0668406 0.940217 
0.297942 0.0845543 0.950832 
0.347955 0.120399 0.929748 
0.327153 0.142735 0.934129 
0.397104 0.195368 0.896738 
0.386219 0.224134 0.894762 
0.467913 0.296248 0.832643 
0.456565 0.333204 0.824939 
0.532522 0.417997 0.736001 
0.612113 0.509424 0.604817 
0.591754 0.554416 0.585192 
0.645133 0.645061 0.409512 
0.603355 -0.68439 0.409356 
0.556939 -0.594418 0.580075 
0.500526 -0.500404 0.706449 
0.506027 -0.451825 0.734705 
0.433996 -0.368332 0.82218 
0.369646 -0.292261 0.882012 
0.379542 -0.257917 0.888497 
0.309089 -0.19366 0.931107 
0.317172 -0.167903 0.933387 
0.256593 -0.121039 0.958911 
0.258664 -0.0989162 0.960889 
0.263864 -0.0793196 0.961293 
0.221524 -0.0522072 0.973756 
0.245028 -0.0374529 0.968792 
0.21151 -0.0174724 0.97722 
0.239613 -0.00110797 0.970868 
0.211829 0.0150787 0.97719 
0.22338 0.0331528 0.974167 
0.257352 0.0560795 0.964689 
0.232333 0.070578 0.970072 
0.273212 0.102654 0.956461 
0.25808 0.121004 0.958516 
0.312798 0.165717 0.935252 
0.305494 0.192268 0.932581 
0.369912 0.251342 0.894423 
0.367247 0.2843 0.885609 
0.426663 0.358672 0.830249 
0.492673 0.443184 0.748906 
0.502443 0.501963 0.703978 
0.558077 0.596072 0.577277 
0.603069 0.684778 0.409129 
0.560587 -0.719679 0.40964 
0.512087 -0.617074 0.597483 
0.452429 -0.506765 0.733824 
0.411226 -0.411743 0.813241 
0.357377 -0.330601 0.87349 
0.300164 -0.257036 0.918604 
0.302441 -0.222348 0.926872 
0.24518 -0.166541 0.955066 
0.249677 -0.142687 0.957759 
0.203062 -0.104298 0.973595 
0.204172 -0.0842745 0.975301 
0.202346 -0.0661153 0.97708 
0.170003 -0.0442483 0.98445 
0.187922 -0.0312669 0.981686 
0.162132 -0.0144733 0.986663 
0.184437 -0.000978476 0.982844 
0.167721 0.0138203 0.985738 
0.168678 0.0274722 0.985288 
0.197198 0.0463547 0.979267 
0.179976 0.0607787 0.981791 
0.213353 0.0856018 0.973218 
0.201885 0.102484 0.974033 
0.245701 0.141548 0.958955 
0.244529 0.166737 0.955199 
0.289892 0.21732 0.932059 
0.322521 0.279221 0.904442 
0.366164 0.346472 0.863644 
0.41201 0.420715 0.808237 
0.45576 0.514746 0.726168 
0.51346 0.620056 0.593202 
0.560381 0.720165 0.409066 
0.515629 -0.752523 0.409677 
0.473246 -0.648467 0.596262 
0.418527 -0.535457 0.733567 
0.368207 -0.433511 0.822491 
0.330224 -0.356561 0.873966 
0.282757 -0.282806 0.916553 
0.238935 -0.220108 0.94576 
0.240976 -0.192155 0.951319 
0.19218 -0.141604 0.97109 
0.196472 -0.122188 0.972866 
0.158947 -0.088584 0.983305 
0.163181 -0.0738222 0.98383 
0.154746 -0.0560373 0.986364 
0.131351 -0.0371966 0.990638 
0.144912 -0.0263728 0.989093 
0.125309 -0.0118728 0.992047 
0.142309 -0.000661058 0.989822 
0.131431 0.011976 0.991253 
0.128361 0.0233561 0.991452 
0.151845 0.0397122 0.987606 
0.139419 0.0505275 0.988944 
0.166697 0.0738214 0.983241 
0.157076 0.0882411 0.983636 
0.191463 0.117533 0.974437 
0.194183 0.139417 0.971008 
0.219008 0.177343 0.959471 
0.259579 0.226695 0.938738 
0.278524 0.277516 0.919461 
0.322364 0.350814 0.87921 
0.367981 0.433586 0.822553 
0.418741 0.536227 0.732882 
0.472976 0.649028 0.595866 
0.515879 0.752663 0.409106 
0.469088 -0.782428 0.40959 
0.431865 -0.676104 0.596972 
0.382924 -0.561521 0.733528 
0.332755 -0.455155 0.825898 
0.291385 -0.368379 0.882832 
0.257399 -0.299674 0.918663 
0.218268 -0.23659 0.946776 
0.188291 -0.188957 0.963764 
0.189768 -0.163986 0.968038 
0.150877 -0.123358 0.980826 
0.153347 -0.104812 0.982598 
0.124724 -0.0766184 0.989229 
0.129141 -0.0628148 0.989635 
0.117896 -0.0465668 0.991933 
0.101139 -0.0315188 0.994373 
0.111557 -0.0221773 0.99351 
0.0966909 -0.0101689 0.995263 
0.109584 -5.63865e-05 0.993978 
0.102365 0.00995653 0.994697 
0.0981305 0.0202321 0.994968 
0.116741 0.0337822 0.992588 
0.10803 0.0447149 0.993142 
0.129406 0.0627569 0.989604 
0.122954 0.0756257 0.989527 
0.147716 0.102951 0.983657 
0.163516 0.132327 0.977626 
0.174686 0.159891 0.971555 
0.214704 0.207513 0.95438 
0.218501 0.240552 0.945723 
0.251893 0.296181 0.921318 
0.289832 0.366813 0.883994 
0.33248 0.455283 0.825939 
0.382896 0.561051 0.733902 
0.432334 0.675971 0.596784 
0.469627 0.782337 0.409143 
0.421797 -0.808991 0.409415 
0.3888 -0.699385 0.599746 
0.343847 -0.581182 0.737561 
0.29841 -0.471128 0.830054 
0.25537 -0.374452 0.891388 
0.220457 -0.299512 0.928273 
0.19251 -0.237707 0.952069 
0.1575 -0.178556 0.971242 
0.148392 -0.144254 0.978351 
0.119137 -0.108465 0.986936 
0.120164 -0.0905362 0.988617 
0.097329 -0.0664545 0.993031 
0.101978 -0.0544165 0.993297 
0.0903644 -0.0399636 0.995107 
0.078019 -0.0271353 0.996583 
0.0861259 -0.0186536 0.99611 
0.0742263 -0.00876264 0.997203 
0.0848022 -1.67513e-05 0.996398 
0.0787402 0.00841226 0.99686 
0.0754992 0.0170468 0.997 
0.0898312 0.0283726 0.995553 
0.0837832 0.0376205 0.995774 
0.100997 0.0546273 0.993386 
0.0960784 0.0668225 0.993128 
0.114678 0.0882826 0.989472 
0.13141 0.113557 0.984803 
0.136757 0.138576 0.980864 
0.170036 0.184322 0.968046 
0.180826 0.225617 0.957287 
0.216399 0.29177 0.931688 
0.254213 0.37145 0.892973 
0.298113 0.468042 0.831905 
0.343916 0.580355 0.73818 
0.390031 0.698855 0.599564 
0.422544 0.808655 0.409308 
0.373819 -0.832312 0.409286 
0.344888 -0.720027 0.602174 
0.305496 -0.599032 0.740157 
0.263616 -0.485627 0.833471 
0.226593 -0.388545 0.893134 
0.19055 -0.305165 0.933041 
0.167391 -0.245509 0.954833 
0.148836 -0.198125 0.968811 
0.119898 -0.153928 0.980781 
0.120378 -0.131289 0.984008 
0.0940332 -0.0972478 0.990808 
0.0939439 -0.0799593 0.992361 
0.0764392 -0.0589115 0.995332 
0.0792903 -0.047845 0.995703 
0.0693568 -0.0347856 0.996985 
0.0604452 -0.0234517 0.997896 
0.0661499 -0.0163053 0.997676 
0.0570939 -0.00739418 0.998341 
0.0650623 -1.23392e-05 0.997881 
0.060313 0.00766035 0.99815 
0.0582229 0.014428 0.998199 
0.0689621 0.025471 0.997294 
0.0646593 0.0332611 0.997353 
0.0781993 0.0473631 0.995812 
0.0749445 0.0579617 0.995502 
0.0894654 0.0782683 0.99291 
0.105308 0.102383 0.989155 
0.107555 0.123981 0.986438 
0.136434 0.163894 0.976998 
0.138887 0.192321 0.971454 
0.162858 0.240969 0.956771 
0.192237 0.305442 0.932604 
0.226195 0.386725 0.894024 
0.265216 0.485478 0.83305 
0.306933 0.598967 0.739615 
0.346962 0.721054 0.599749 
0.374483 0.831901 0.409515 
0.325659 -0.852366 0.409167 
0.301894 -0.737802 0.603746 
0.265934 -0.614099 0.743076 
0.229635 -0.498185 0.83611 
0.196325 -0.397165 0.896502 
0.167753 -0.312676 0.934929 
0.136183 -0.236413 0.962062 
0.12277 -0.188795 0.974312 
0.0965497 -0.14197 0.985151 
0.093327 -0.115984 0.988857 
0.0732252 -0.086604 0.993548 
0.0740647 -0.0716603 0.994675 
0.0586884 -0.0520111 0.996921 
0.0615573 -0.0420883 0.997216 
0.0534442 -0.0303539 0.998109 
0.0458996 -0.020984 0.998726 
0.0507156 -0.0142649 0.998611 
0.0437083 -0.00630491 0.999024 
0.0498588 -0.00059297 0.998756 
0.0464998 0.00659548 0.998897 
0.0438606 0.0132082 0.99895 
0.0528594 0.0214976 0.998371 
0.0499246 0.029384 0.998321 
0.0604935 0.0420143 0.997284 
0.0581243 0.0522912 0.996939 
0.0693673 0.069465 0.99517 
0.0830495 0.0910816 0.992374 
0.0833876 0.110575 0.990363 
0.107045 0.147178 0.983301 
0.114141 0.184576 0.976168 
0.139392 0.241071 0.960445 
0.167405 0.312963 0.934895 
0.198065 0.397464 0.895987 
0.231627 0.499896 0.834537 
0.269669 0.616976 0.739337 
0.303345 0.738974 0.60158 
0.325885 0.852026 0.409695 
0.277821 -0.869308 0.408802 
0.258292 -0.753153 0.605017 
0.226813 -0.628395 0.744094 
0.196187 -0.511316 0.8367 
0.167086 -0.410365 0.896484 
0.144529 -0.328603 0.933344 
0.126797 -0.26323 0.956364 
0.100811 -0.208058 0.972907 
0.0990154 -0.173771 0.979796 
0.0748546 -0.131301 0.988512 
0.0729422 -0.10612 0.991674 
0.0572885 -0.0794744 0.995189 
0.0567506 -0.0638636 0.996344 
0.0456686 -0.0473664 0.997833 
0.0473689 -0.0379838 0.998155 
0.0404991 -0.0271292 0.998811 
0.0353162 -0.0184003 0.999207 
0.0386192 -0.0126556 0.999174 
0.033073 -0.00629074 0.999433 
0.0372981 0.000275721 0.999304 
0.0353571 0.0053573 0.99936 
0.0334549 0.0114646 0.999374 
0.040644 0.0193239 0.998987 
0.0374151 0.026115 0.998959 
0.0467129 0.0372584 0.998213 
0.0445518 0.0469324 0.997904 
0.0534866 0.0624604 0.996613 
0.0647173 0.0829288 0.994452 
0.0655734 0.101758 0.992646 
0.0846781 0.135658 0.98713 
0.0852058 0.159898 0.983449 
0.102123 0.201859 0.974076 
0.123398 0.257821 0.95828 
0.144603 0.329454 0.933033 
0.170714 0.410483 0.895746 
0.200656 0.519189 0.830771 
0.230105 0.631659 0.74031 
0.260331 0.756393 0.600082 
0.27682 0.868995 0.410144 
0.230502 -0.883169 0.408512 
0.21584 -0.767081 0.604153 
0.188946 -0.64127 0.743689 
0.161887 -0.520275 0.838515 
0.137536 -0.414414 0.899636 
0.116635 -0.326216 0.938072 
0.10207 -0.256899 0.961033 
0.0792462 -0.201346 0.976309 
0.0754947 -0.159593 0.984292 
0.0574343 -0.120533 0.991046 
0.0570261 -0.0975999 0.993591 
0.0428928 -0.0729224 0.996415 
0.0437046 -0.0586294 0.997323 
0.0340759 -0.0430537 0.998491 
0.0358245 -0.0335376 0.998795 
0.0304119 -0.0245546 0.999236 
0.026234 -0.0171337 0.999509 
0.0290975 -0.0108878 0.999517 
0.0243409 -0.0051038 0.999691 
0.028791 -7.39222e-05 0.999585 
0.0261331 0.00525409 0.999645 
0.0248857 0.0103907 0.999636 
0.0304879 0.0174326 0.999383 
0.0287338 0.0238503 0.999303 
0.0353388 0.0337861 0.998804 
0.0337722 0.0432003 0.998495 
0.0408267 0.0572569 0.997524 
0.0496091 0.0757914 0.995889 
0.0491251 0.0940697 0.994353 
0.0645945 0.124007 0.990177 
0.0681753 0.159187 0.984892 
0.0855936 0.207842 0.97441 
0.106481 0.267508 0.957654 
0.11713 0.335967 0.934562 
0.148134 0.427688 0.891706 
0.163253 0.527268 0.833869 
0.193211 0.645309 0.739084 
0.21563 0.76845 0.602485 
0.227772 0.882795 0.410843 
0.180928 -0.894055 0.409793 
0.175799 -0.792597 0.583854 
0.153395 -0.670204 0.726152 
0.130748 -0.545376 0.827931 
0.111233 -0.431932 0.895021 
0.093768 -0.335363 0.937411 
0.0799414 -0.256192 0.963315 
0.0600211 -0.190769 0.979798 
0.057815 -0.151224 0.986807 
0.0427728 -0.114513 0.9925 
0.0423402 -0.0909447 0.994955 
0.0324471 -0.068147 0.997148 
0.0327642 -0.0538678 0.99801 
0.025118 -0.0398838 0.998889 
0.0267764 -0.0314783 0.999146 
0.0226185 -0.0224302 0.999493 
0.0188971 -0.0149971 0.999709 
0.0212794 -0.0106017 0.999717 
0.0182373 -0.00464045 0.999823 
0.0205736 -0.000351324 0.999788 
0.0190064 0.00479639 0.999808 
0.0185121 0.00943466 0.999784 
0.0221224 0.015563 0.999634 
0.0206573 0.0219101 0.999547 
0.0261152 0.0309878 0.999179 
0.0246598 0.0396038 0.998911 
0.0300555 0.0532726 0.998128 
0.0378393 0.0706399 0.996784 
0.0371058 0.0889552 0.995344 
0.0499182 0.119157 0.99162 
0.050339 0.148349 0.987653 
0.0637011 0.19353 0.979024 
0.0820299 0.253812 0.963769 
0.086756 0.317508 0.944279 
0.115694 0.41235 0.903649 
0.12354 0.516543 0.847302 
0.153822 0.645261 0.748317 
0.171195 0.774412 0.60908 
0.179093 0.893727 0.411312 
0.136391 -0.901701 0.410284 
0.126891 -0.760014 0.637399 
0.105338 -0.609132 0.786042 
0.0885988 -0.477861 0.873956 
0.0735101 -0.371171 0.92565 
0.0637497 -0.28885 0.95525 
0.0556444 -0.228425 0.97197 
0.0404138 -0.180119 0.982814 
0.0422683 -0.144543 0.988595 
0.030205 -0.108759 0.993609 
0.030665 -0.0857518 0.995845 
0.0221295 -0.0645425 0.99767 
0.023126 -0.0510373 0.998429 
0.0176269 -0.0374867 0.999142 
0.0188779 -0.0289231 0.999403 
0.0154778 -0.0209433 0.999661 
0.0132248 -0.0148735 0.999802 
0.0152159 -0.00944096 0.99984 
0.0116632 -0.00471804 0.999921 
0.0149911 -1.68754e-05 0.999888 
0.0135776 0.00419731 0.999899 
0.0116762 0.00900298 0.999891 
0.015951 0.0149703 0.999761 
0.0141293 0.0203144 0.999694 
0.0186721 0.0290659 0.999403 
0.0172809 0.037856 0.999134 
0.0212055 0.0501297 0.998518 
0.026895 0.0661604 0.997446 
0.0260793 0.0844489 0.996086 
0.0354919 0.111818 0.993095 
0.0338323 0.141547 0.989353 
0.0461463 0.184431 0.981762 
0.0604868 0.241439 0.968529 
0.060592 0.306265 0.950016 
0.0858329 0.396785 0.91389 
0.0869019 0.494478 0.864835 
0.109846 0.618123 0.778369 
0.12633 0.765689 0.630683 
0.13381 0.901811 0.410891 
0.0883629 -0.907242 0.411222 
0.0884762 -0.799823 0.593679 
0.0755296 -0.665885 0.742221 
0.0620709 -0.527057 0.84756 
0.0519538 -0.407526 0.911715 
0.0442681 -0.311156 0.949327 
0.0378308 -0.235346 0.971175 
0.0259309 -0.176154 0.984021 
0.0278632 -0.136869 0.990197 
0.0179759 -0.104744 0.994337 
0.0205933 -0.0823917 0.996387 
0.0136671 -0.0622197 0.997969 
0.0156841 -0.0479582 0.998726 
0.0103188 -0.0362576 0.999289 
0.0127529 -0.0274805 0.999541 
0.0101164 -0.0198054 0.999753 
0.00775573 -0.0136892 0.999876 
0.0099559 -0.0085925 0.999914 
0.00804898 -0.00436381 0.999958 
0.00943037 0.000130609 0.999956 
0.00853256 0.00406145 0.999955 
0.00782346 0.00846126 0.999934 
0.0106926 0.0135366 0.999851 
0.00870759 0.0199313 0.999763 
0.0122071 0.0272997 0.999553 
0.00984029 0.0359146 0.999306 
0.0139557 0.047841 0.998757 
0.0179659 0.0636792 0.997809 
0.0152714 0.0808132 0.996612 
0.0241539 0.107102 0.993955 
0.0210431 0.136864 0.990366 
0.0293036 0.179059 0.983402 
0.040664 0.232887 0.971653 
0.0376845 0.299276 0.953422 
0.0575681 0.389851 0.919077 
0.056758 0.505623 0.860886 
0.0758681 0.649941 0.756188 
0.0861747 0.791588 0.604948 
0.0869359 0.907347 0.411296 
0.0446365 -0.910889 0.41023 
0.0420925 -0.758837 0.649918 
0.0348522 -0.601186 0.798349 
0.0290218 -0.46482 0.884929 
0.0234948 -0.355981 0.934198 
0.021056 -0.275351 0.961113 
0.018999 -0.216834 0.976024 
0.0102857 -0.172209 0.985007 
0.0151428 -0.135086 0.990718 
0.00825512 -0.103111 0.994636 
0.0110842 -0.0795737 0.996767 
0.00592567 -0.0606985 0.998139 
0.00830311 -0.0471291 0.998854 
0.00494193 -0.0348378 0.999381 
0.00673167 -0.0265936 0.999624 
0.00473237 -0.0193931 0.999801 
0.00349146 -0.0132094 0.999907 
0.00496116 -0.00893633 0.999948 
0.00276657 -0.00372178 0.999989 
0.00537398 -0.000298748 0.999986 
0.00377573 0.00414639 0.999984 
0.003108 0.0082273 0.999961 
0.0050199 0.0135602 0.999895 
0.0035956 0.0187642 0.999817 
0.00677113 0.0265534 0.999624 
0.00451908 0.0355242 0.999359 
0.00630898 0.0465186 0.998898 
0.00997964 0.0611282 0.99808 
0.00723049 0.0797548 0.996788 
0.0125288 0.104557 0.99444 
0.00841928 0.134728 0.990847 
0.01409 0.175528 0.984374 
0.0232095 0.22919 0.973105 
0.0162872 0.296175 0.954995 
0.0327247 0.384885 0.922384 
0.0243621 0.48282 0.875381 
0.0350288 0.60698 0.793945 
0.0413481 0.758235 0.650669 
0.0433278 0.911005 0.410113 
0.00112584 -0.913124 0.40768 
0.00104166 -0.805296 0.592871 
0.00101226 -0.665729 0.746193 
0.00026222 -0.523726 0.851886 
0.000458902 -0.401637 0.915799 
0.000620368 -0.30431 0.952573 
0.00214798 -0.229273 0.97336 
-0.0034796 -0.173409 0.984844 
0.00237363 -0.132628 0.991163 
-0.00234814 -0.10275 0.994704 
0.00164647 -0.0793095 0.996849 
-0.00135824 -0.0607651 0.998151 
0.00142441 -0.045994 0.998941 
-0.00137289 -0.0354124 0.999372 
0.00165802 -0.0259354 0.999662 
9.08382e-05 -0.0191901 0.999816 
-0.00130527 -0.013469 0.999908 
0.00148734 -0.00850063 0.999963 
-0.000683658 -0.0043824 0.99999 
0.00127561 -0.000176235 0.999999 
0.000288209 0.00398184 0.999992 
-0.00131862 0.00816823 0.999966 
0.00146623 0.0130188 0.999914 
-0.000858941 0.0192648 0.999814 
0.000853561 0.0260245 0.999661 
-0.00143122 0.0347297 0.999396 
-0.00014344 0.0463065 0.998927 
0.00194513 0.0608447 0.998145 
-0.00214827 0.0788068 0.996888 
0.00196475 0.103031 0.994676 
-0.00385352 0.135028 0.990834 
-0.000206346 0.174131 0.984722 
0.00534975 0.226999 0.97388 
-0.00464305 0.293869 0.955834 
0.00637472 0.382539 0.923917 
-0.00453362 0.501175 0.865334 
0.00042096 0.651168 0.758933 
-0.000866997 0.798492 0.602005 
0.000648685 0.913322 0.407237 
-0.0424674 -0.910787 0.410688 
-0.0408677 -0.758744 0.650106 
-0.033589 -0.60258 0.797351 
-0.0273134 -0.465951 0.884389 
-0.0234495 -0.357858 0.933481 
-0.0187796 -0.275596 0.96109 
-0.0151236 -0.218247 0.975776 
-0.0186007 -0.175039 0.984386 
-0.0091001 -0.134813 0.990829 
-0.0131652 -0.104437 0.994444 
-0.00632507 -0.0792606 0.996834 
-0.00977908 -0.0611794 0.998079 
-0.0049911 -0.046548 0.998904 
-0.00695912 -0.0349748 0.999364 
-0.00394797 -0.0263162 0.999646 
-0.00456837 -0.0190131 0.999809 
-0.00551966 -0.0137291 0.999891 
-0.00372166 -0.00807981 0.99996 
-0.00469727 -0.00434104 0.99998 
-0.00316283 0.000304909 0.999995 
-0.00401406 0.00381239 0.999985 
-0.00531258 0.0085989 0.999949 
-0.00388234 0.0134114 0.999903 
-0.00616191 0.0189827 0.999801 
-0.00413361 0.0265341 0.999639 
-0.00804583 0.0358265 0.999326 
-0.00655976 0.0466949 0.998888 
-0.00537959 0.0604735 0.998155 
-0.011234 0.0805954 0.996684 
-0.00746442 0.103557 0.994595 
-0.0164927 0.135621 0.990624 
-0.0145844 0.175679 0.984339 
-0.0118132 0.227766 0.973644 
-0.0254004 0.297738 0.95431 
-0.0178918 0.382153 0.923926 
-0.0348222 0.479909 0.876627 