# vtk DataFile Version 3.0 
Exported using Morpho https://github.com/Morpho-lang/morpho 
ASCII 
DATASET UNSTRUCTURED_GRID 

POINTS 1245 float 
-0.304038 -0.95266 0 
-0.251441 -0.967873 0 
-0.196599 -0.980484 0 
-0.147939 -0.988996 0 
-0.096254 -0.995357 0 
-0.0483601 -0.99883 0 
-0.000451504 -1 0 
0.0482414 -0.998836 0 
0.0956209 -0.995418 0 
0.145924 -0.989296 0 
0.198694 -0.980062 0 
0.248343 -0.968672 0 
0.30399 -0.952675 0 
-0.409672 -0.912233 0 
-0.356859 -0.934158 0 
-0.307625 -0.898571 0 
-0.256611 -0.914841 0 
-0.205389 -0.933372 0 
-0.153069 -0.927934 0 
-0.102396 -0.94791 0 
-0.0498583 -0.935106 0 
0.00142854 -0.953377 0 
0.052561 -0.9331 0 
0.104134 -0.942389 0 
0.156872 -0.938823 0 
0.206982 -0.919507 0 
0.258749 -0.920951 0 
0.310446 -0.900065 0 
0.357716 -0.93383 0 
0.410714 -0.911764 0 
-0.51437 -0.857568 0 
-0.462407 -0.886668 0 
-0.411015 -0.857376 0 
-0.359501 -0.879663 0 
-0.305707 -0.84665 0 
-0.253622 -0.86425 0 
-0.200473 -0.885626 0 
-0.148805 -0.868805 0 
-0.0992128 -0.89633 0 
-0.0484472 -0.873916 0 
0.00154915 -0.899374 0 
0.0506565 -0.870008 0 
0.099584 -0.888189 0 
0.15259 -0.889657 0 
0.203706 -0.862941 0 
0.255384 -0.874358 0 
0.307954 -0.849391 0 
0.361689 -0.879386 0 
0.412615 -0.856642 0 
0.46325 -0.886228 0 
0.514942 -0.857225 0 
-0.565364 -0.824841 0 
-0.512807 -0.802464 0 
-0.462454 -0.831649 0 
-0.409305 -0.803744 0 
-0.35814 -0.826779 0 
-0.304287 -0.794815 0 
-0.252533 -0.812725 0 
-0.199644 -0.834469 0 
-0.148659 -0.811689 0 
-0.0980329 -0.840437 0 
-0.0486484 -0.814709 0 
0.00110327 -0.841666 0 
0.0507222 -0.810511 0 
0.10012 -0.830521 0 
0.151601 -0.838979 0 
0.201398 -0.807576 0 
0.253879 -0.824556 0 
0.305585 -0.798078 0 
0.359663 -0.826545 0 
0.410331 -0.802786 0 
0.463256 -0.830671 0 
0.513382 -0.802055 0 
0.565855 -0.824505 0 
-0.661127 -0.750274 0 
-0.614521 -0.7889 0 
-0.561833 -0.769262 0 
-0.50964 -0.747742 0 
-0.460175 -0.777438 0 
-0.407225 -0.750461 0 
-0.356449 -0.774194 0 
-0.303021 -0.743169 0 
-0.251726 -0.760737 0 
-0.199698 -0.781574 0 
-0.149469 -0.755674 0 
-0.0987361 -0.784111 0 
-0.0495663 -0.757521 0 
0.00074427 -0.784506 0 
0.0499021 -0.753017 0 
0.0986422 -0.771593 0 
0.148465 -0.786798 0 
0.198905 -0.753762 0 
0.25178 -0.773224 0 
0.303018 -0.746409 0 
0.356897 -0.773838 0 
0.407278 -0.749476 0 
0.460508 -0.775969 0 
0.509912 -0.747635 0 
0.562265 -0.768427 0 
0.614899 -0.788606 0 
0.660916 -0.75046 0 
-0.707137 -0.707076 0 
-0.654232 -0.698242 0 
-0.60786 -0.732501 0 
-0.557385 -0.712939 0 
-0.507468 -0.693124 0 
-0.457791 -0.723521 0 
-0.40534 -0.697562 0 
-0.354815 -0.72183 0 
-0.302133 -0.691777 0 
-0.251077 -0.708675 0 
-0.199931 -0.727612 0 
-0.150301 -0.700335 0 
-0.0999236 -0.728385 0 
-0.051087 -0.701823 0 
-0.000421628 -0.728505 0 
0.0495464 -0.698598 0 
0.0984035 -0.713168 0 
0.147599 -0.732599 0 
0.197896 -0.700126 0 
0.250029 -0.721435 0 
0.301757 -0.694342 0 
0.353927 -0.721143 0 
0.403704 -0.696683 0 
0.456847 -0.721566 0 
0.505628 -0.694419 0 
0.557407 -0.711375 0 
0.607266 -0.730582 0 
0.652491 -0.698197 0 
0.706565 -0.707648 0 
-0.750394 -0.660991 0 
-0.698464 -0.654201 0 
-0.647093 -0.646808 0 
-0.60217 -0.67432 0 
-0.556909 -0.655804 0 
-0.506644 -0.64072 0 
-0.455848 -0.670392 0 
-0.404184 -0.645105 0 
-0.353627 -0.669626 0 
-0.301541 -0.640968 0 
-0.250517 -0.65732 0 
-0.200181 -0.673083 0 
-0.151003 -0.645606 0 
-0.100944 -0.673231 0 
-0.0519388 -0.647066 0 
-0.00212132 -0.674276 0 
0.047866 -0.647977 0 
0.0973944 -0.654915 0 
0.14682 -0.677634 0 
0.197663 -0.647208 0 
0.249531 -0.669554 0 
0.301392 -0.642514 0 
0.353151 -0.66764 0 
0.404352 -0.642769 0 
0.451679 -0.667224 0 
0.497353 -0.643748 0 
0.550472 -0.654874 0 
0.599514 -0.669274 0 
0.647435 -0.648156 0 
0.698584 -0.655155 0 
0.750179 -0.661235 0 
-0.789039 -0.614343 0 
-0.732835 -0.607626 0 
-0.675089 -0.602016 0 
-0.61271 -0.611831 0 
-0.56007 -0.604859 0 
-0.506586 -0.591159 0 
-0.4548 -0.618267 0 
-0.402585 -0.593363 0 
-0.352885 -0.617892 0 
-0.301898 -0.590774 0 
-0.249931 -0.607445 0 
-0.20047 -0.618026 0 
-0.152094 -0.591572 0 
-0.101636 -0.618979 0 
-0.0515543 -0.593574 0 
-0.00244032 -0.620678 0 
0.0493493 -0.600163 0 
0.0984462 -0.59791 0 
0.147214 -0.623273 0 
0.19846 -0.594491 0 
0.248849 -0.617954 0 
0.29924 -0.591281 0 
0.352315 -0.614754 0 
0.403831 -0.593284 0 
0.455787 -0.608592 0 
0.520167 -0.601585 0 
0.571237 -0.605653 0 
0.620059 -0.607814 0 
0.678676 -0.602486 0 
0.734122 -0.607948 0 
0.789144 -0.614208 0 
-0.824938 -0.565223 0 
-0.769277 -0.561556 0 
-0.712842 -0.556856 0 
-0.655558 -0.556882 0 
-0.604723 -0.559782 0 
-0.552376 -0.552301 0 
-0.499741 -0.541558 0 
-0.452146 -0.567692 0 
-0.399788 -0.54198 0 
-0.351333 -0.566006 0 
-0.301369 -0.539423 0 
-0.251944 -0.559984 0 
-0.202344 -0.562389 0 
-0.151729 -0.539373 0 
-0.101412 -0.56624 0 
-0.0504147 -0.541753 0 
-0.000400428 -0.568612 0 
0.0512066 -0.551572 0 
0.100052 -0.542814 0 
0.148635 -0.569469 0 
0.199383 -0.542248 0 
0.24951 -0.565612 0 
0.300492 -0.537743 0 
0.346797 -0.563054 0 
0.392054 -0.54738 0 
0.444834 -0.550376 0 
0.492055 -0.564982 0 
0.548979 -0.550909 0 
0.602765 -0.5553 0 
0.655752 -0.556591 0 
0.713249 -0.556635 0 
0.769373 -0.561367 0 
0.824922 -0.565247 0 
-0.857615 -0.514292 0 
-0.802388 -0.512635 0 
-0.747487 -0.509447 0 
-0.692481 -0.506961 0 
-0.640359 -0.506188 0 
-0.590701 -0.507101 0 
-0.539866 -0.49886 0 
-0.492526 -0.491066 0 
-0.44688 -0.51632 0 
-0.399236 -0.489206 0 
-0.350286 -0.513725 0 
-0.298979 -0.489497 0 
-0.247977 -0.513509 0 
-0.199703 -0.507566 0 
-0.150161 -0.487331 0 
-0.10059 -0.514616 0 
-0.049804 -0.490619 0 
0.000625811 -0.517509 0 
0.0508042 -0.501589 0 
0.0999639 -0.489781 0 
0.149517 -0.516323 0 
0.199861 -0.49053 0 
0.249857 -0.513971 0 
0.301105 -0.486926 0 
0.350992 -0.50621 0 
0.406179 -0.503633 0 
0.453702 -0.495579 0 
0.499381 -0.517896 0 
0.54509 -0.495628 0 
0.589875 -0.502992 0 
0.639769 -0.505125 0 
0.692133 -0.507178 0 
0.747231 -0.509351 0 
0.802239 -0.512834 0 
0.8575 -0.514485 0 
-0.886692 -0.462362 0 
-0.831447 -0.46229 0 
-0.776968 -0.459992 0 
-0.722557 -0.457864 0 
-0.668309 -0.454847 0 
-0.615699 -0.454692 0 
-0.563442 -0.455041 0 
-0.504959 -0.444494 0 
-0.448651 -0.462232 0 
-0.399535 -0.438236 0 
-0.349128 -0.46264 0 
-0.299137 -0.439068 0 
-0.248305 -0.464591 0 
-0.199624 -0.454437 0 
-0.150124 -0.436363 0 
-0.0998408 -0.463181 0 
-0.0495775 -0.439683 0 
0.000657363 -0.466432 0 
0.050398 -0.45109 0 
0.0997795 -0.438004 0 
0.14961 -0.46426 0 
0.20006 -0.439543 0 
0.250155 -0.462985 0 
0.300624 -0.436016 0 
0.349741 -0.453489 0 
0.398431 -0.460711 0 
0.448861 -0.444362 0 
0.501772 -0.463516 0 
0.556306 -0.446047 0 
0.610655 -0.453181 0 
0.665731 -0.455702 0 
0.720992 -0.458228 0 
0.776173 -0.460571 0 
0.831102 -0.462917 0 
0.886543 -0.462645 0 
-0.912236 -0.409665 0 
-0.857204 -0.410967 0 
-0.803392 -0.409217 0 
-0.74994 -0.407407 0 
-0.696663 -0.406178 0 
-0.642836 -0.402615 0 
-0.594083 -0.40314 0 
-0.543712 -0.409305 0 
-0.498184 -0.388941 0 
-0.452699 -0.414143 0 
-0.401283 -0.388854 0 
-0.349739 -0.411899 0 
-0.299455 -0.388886 0 
-0.248771 -0.414704 0 
-0.199804 -0.40237 0 
-0.150194 -0.385975 0 
-0.0998826 -0.412316 0 
-0.0496331 -0.389139 0 
0.000643541 -0.415495 0 
0.0502079 -0.40057 0 
0.099715 -0.387048 0 
0.149647 -0.41299 0 
0.200027 -0.388895 0 
0.250027 -0.412129 0 
0.301055 -0.385878 0 
0.350404 -0.401986 0 
0.40041 -0.412751 0 
0.450882 -0.391618 0 
0.499731 -0.416383 0 
0.544034 -0.393568 0 
0.59137 -0.399783 0 
0.642288 -0.404278 0 
0.695365 -0.407079 0 
0.749328 -0.408637 0 
0.803118 -0.410657 0 
0.857365 -0.412146 0 
0.912211 -0.40972 0 
-0.934162 -0.35685 0 
-0.879422 -0.35942 0 
-0.826293 -0.357958 0 
-0.773333 -0.356351 0 
-0.720158 -0.355668 0 
-0.665775 -0.356607 0 
-0.607138 -0.350008 0 
-0.553621 -0.361137 0 
-0.5022 -0.339404 0 
-0.449669 -0.361737 0 
-0.400008 -0.33791 0 
-0.350294 -0.361968 0 
-0.299735 -0.338845 0 
-0.249149 -0.364486 0 
-0.19989 -0.351123 0 
-0.150231 -0.335907 0 
-0.0999158 -0.361809 0 
-0.0496591 -0.338853 0 
0.000579022 -0.364807 0 
0.0501213 -0.350175 0 
0.0996736 -0.336536 0 
0.149689 -0.362171 0 
0.200173 -0.338592 0 
0.250216 -0.361805 0 
0.300977 -0.33584 0 
0.350317 -0.350432 0 
0.400031 -0.363711 0 
0.449445 -0.340113 0 
0.500426 -0.362497 0 
0.556035 -0.344079 0 
0.610296 -0.352686 0 
0.6665 -0.355417 0 
0.719677 -0.357923 0 
0.773735 -0.358184 0 
0.826983 -0.360351 0 
0.879942 -0.360326 0 
0.934344 -0.356372 0 
-0.952661 -0.304036 0 
-0.898427 -0.307629 0 
-0.846493 -0.305546 0 
-0.794931 -0.304029 0 
-0.743864 -0.303138 0 
-0.693611 -0.30459 0 
-0.643467 -0.30958 0 
-0.599353 -0.290969 0 
-0.55443 -0.313997 0 
-0.503336 -0.288984 0 
-0.45199 -0.311834 0 
-0.401101 -0.288191 0 
-0.349902 -0.311422 0 
-0.299643 -0.288622 0 
-0.249349 -0.314247 0 
-0.199915 -0.300435 0 
-0.150269 -0.285978 0 
-0.0999683 -0.311532 0 
-0.0497289 -0.288717 0 
0.000527779 -0.314369 0 
0.0500741 -0.299964 0 
0.0996409 -0.286337 0 
0.149787 -0.311716 0 
0.200238 -0.28842 0 
0.250326 -0.311555 0 
0.301235 -0.286006 0 
0.350591 -0.299681 0 
0.400449 -0.31341 0 
0.451856 -0.289027 0 
0.501314 -0.314699 0 
0.544921 -0.289691 0 
0.590901 -0.297941 0 
0.640135 -0.307218 0 
0.69435 -0.304347 0 
0.742809 -0.307966 0 
0.7979 -0.307375 0 
0.847482 -0.307936 0 
0.899876 -0.308548 0 
0.953167 -0.302446 0 
-0.967863 -0.251479 0 
-0.914487 -0.256648 0 
-0.863556 -0.253418 0 
-0.811732 -0.251971 0 
-0.759393 -0.251316 0 
-0.706493 -0.252194 0 
-0.653718 -0.258815 0 
-0.607533 -0.238533 0 
-0.553063 -0.261024 0 
-0.502377 -0.238056 0 
-0.452064 -0.261845 0 
-0.401205 -0.238175 0 
-0.350516 -0.261491 0 
-0.299965 -0.238667 0 
-0.249417 -0.263974 0 
-0.199916 -0.250071 0 
-0.150304 -0.236053 0 
-0.100036 -0.261399 0 
-0.0497663 -0.238671 0 
0.000445464 -0.264099 0 
0.0500404 -0.249853 0 
0.0996125 -0.23625 0 
0.149834 -0.261487 0 
0.200323 -0.238399 0 
0.25055 -0.261503 0 
0.301452 -0.23621 0 
0.351157 -0.249436 0 
0.401482 -0.263625 0 
0.451962 -0.237781 0 
0.501557 -0.260261 0 
[...]
POINT_DATA 1245 
VECTORS vectors float
0.857625 -0.276351 0.433716 
0.870995 -0.229329 0.434483 
0.881599 -0.179962 0.436346 
0.889298 -0.135687 0.436735 
0.895749 -0.0895125 0.435455 
0.896384 -0.0453933 0.440949 
0.899591 -0.00163821 0.43673 
0.89732 0.0426322 0.439318 
0.893663 0.0861711 0.440387 
0.888838 0.13257 0.438625 
0.88089 0.180189 0.43768 
0.870862 0.225323 0.43684 
0.857039 0.274947 0.435762 
0.821835 -0.370452 0.432841 
0.841285 -0.323365 0.433215 
0.736397 -0.254013 0.627055 
0.750475 -0.21342 0.625491 
0.775458 -0.174012 0.606947 
0.74153 -0.125324 0.659111 
0.781937 -0.0867226 0.617296 
0.739601 -0.0419341 0.671738 
0.785265 0.000930032 0.619159 
0.733446 0.0407269 0.678527 
0.766656 0.0856115 0.636325 
0.771804 0.130266 0.622374 
0.738419 0.167829 0.653124 
0.765723 0.216285 0.605714 
0.740462 0.257579 0.620781 
0.84002 0.323059 0.43589 
0.820278 0.370664 0.435605 
0.773246 -0.463434 0.432805 
0.799158 -0.417298 0.432676 
0.705504 -0.338815 0.622469 
0.722302 -0.297193 0.624464 
0.609527 -0.222219 0.760984 
0.622222 -0.185112 0.76064 
0.650505 -0.149392 0.744665 
0.589416 -0.103749 0.80114 
0.645688 -0.0733886 0.760067 
0.580278 -0.0335604 0.813726 
0.642959 -0.000114912 0.7659 
0.570169 0.0329308 0.820867 
0.624142 0.0707341 0.778102 
0.64266 0.110833 0.758093 
0.593815 0.14167 0.792031 
0.647303 0.190574 0.738025 
0.615504 0.223605 0.755748 
0.722189 0.29744 0.624478 
0.702579 0.33996 0.625148 
0.797471 0.417738 0.435357 
0.771322 0.464317 0.435284 
0.743811 -0.508989 0.433215 
0.662603 -0.423243 0.617918 
0.68566 -0.381549 0.619912 
0.581599 -0.297429 0.757152 
0.596686 -0.259355 0.759408 
0.490572 -0.189357 0.850578 
0.501383 -0.157286 0.850809 
0.52693 -0.128813 0.84009 
0.457867 -0.0849704 0.884951 
0.509077 -0.061587 0.858515 
0.445304 -0.0274858 0.894958 
0.501522 -0.000272121 0.865145 
0.436593 0.0271879 0.899248 
0.486368 0.0587329 0.871778 
0.518086 0.094123 0.850134 
0.46634 0.116407 0.876913 
0.527296 0.163556 0.833791 
0.497312 0.191616 0.846147 
0.594777 0.260825 0.760402 
0.579755 0.296225 0.759035 
0.682144 0.38153 0.62379 
0.660781 0.423353 0.619791 
0.741894 0.510066 0.435232 
0.67631 -0.595116 0.434098 
0.711278 -0.553124 0.433748 
0.635647 -0.463216 0.617563 
0.54657 -0.371967 0.750268 
0.565734 -0.334405 0.753736 
0.468758 -0.254188 0.845964 
0.48059 -0.22247 0.848258 
0.389458 -0.159808 0.907074 
0.396751 -0.132865 0.908259 
0.414165 -0.107793 0.903796 
0.352965 -0.0717265 0.932883 
0.391802 -0.0511044 0.918629 
0.338878 -0.0233195 0.940541 
0.383537 -0.000754953 0.923525 
0.330958 0.0218017 0.943394 
0.368579 0.0464655 0.928434 
0.407432 0.0783071 0.909872 
0.363163 0.0966634 0.926698 
0.417942 0.137229 0.898049 
0.393648 0.160373 0.905164 
0.478509 0.221143 0.849779 
0.463595 0.253513 0.849006 
0.56031 0.333928 0.757987 
0.544635 0.372397 0.75146 
0.632362 0.463961 0.62037 
0.709444 0.55434 0.435198 
0.675081 0.595972 0.434836 
0.637268 -0.636546 0.434395 
0.582247 -0.544772 0.6035 
0.604101 -0.500604 0.620046 
0.520874 -0.40677 0.750485 
0.43954 -0.320978 0.838914 
0.4545 -0.287908 0.842935 
0.370875 -0.216045 0.903203 
0.38023 -0.18743 0.905701 
0.305801 -0.134286 0.942578 
0.309696 -0.111088 0.944324 
0.321101 -0.0889723 0.942856 
0.268306 -0.058841 0.961535 
0.299141 -0.0418079 0.953293 
0.256839 -0.0196647 0.966254 
0.291767 -0.000693933 0.956489 
0.25272 0.0174773 0.967382 
0.276347 0.038417 0.96029 
0.313743 0.0625577 0.947445 
0.278426 0.079256 0.957182 
0.328255 0.113508 0.937744 
0.307952 0.134686 0.94182 
0.377557 0.186064 0.9071 
0.367455 0.213431 0.90522 
0.449515 0.284585 0.846727 
0.438561 0.320434 0.839635 
0.516162 0.405446 0.754447 
0.598681 0.498304 0.627115 
0.579119 0.543183 0.607926 
0.636702 0.637065 0.434464 
0.595519 -0.675616 0.434627 
0.545258 -0.582035 0.603266 
0.486521 -0.486053 0.725982 
0.49089 -0.437769 0.75325 
0.417611 -0.354019 0.836822 
0.352913 -0.278791 0.893156 
0.362275 -0.245884 0.899054 
0.291771 -0.182653 0.938886 
0.299639 -0.158798 0.940744 
0.239551 -0.113247 0.964256 
0.241139 -0.0924385 0.966078 
0.245947 -0.0745165 0.966415 
0.204693 -0.048513 0.977623 
0.227107 -0.0351604 0.973235 
0.194531 -0.0163921 0.980759 
0.221459 -0.00126396 0.975169 
0.194625 0.0135162 0.980785 
0.206028 0.0305542 0.978069 
0.239175 0.0523246 0.969566 
0.215225 0.0650923 0.974393 
0.25507 0.0963309 0.962112 
0.240832 0.112849 0.963984 
0.29442 0.156085 0.942844 
0.287935 0.181273 0.940337 
0.351658 0.239356 0.905011 
0.349924 0.271142 0.89668 
0.410006 0.344586 0.844486 
0.47677 0.429669 0.76686 
0.488208 0.487793 0.723679 
0.546434 0.584272 0.600029 
0.59512 0.676454 0.433869 
0.553169 -0.710661 0.434702 
0.500982 -0.603766 0.620068 
0.438576 -0.491142 0.752616 
0.395851 -0.396205 0.828446 
0.341586 -0.315675 0.88525 
0.284294 -0.243207 0.927376 
0.285813 -0.20988 0.93502 
0.229683 -0.156034 0.960676 
0.232988 -0.133151 0.963321 
0.187653 -0.0966204 0.977472 
0.188356 -0.0779296 0.979004 
0.186129 -0.061102 0.980624 
0.154817 -0.04063 0.987107 
0.171842 -0.028856 0.984702 
0.146941 -0.0133309 0.989055 
0.168435 -0.00103495 0.985712 
0.152199 0.0126177 0.988269 
0.15342 0.0247852 0.98785 
0.180726 0.0423589 0.982621 
0.164494 0.0560126 0.984786 
0.196688 0.0786522 0.977306 
0.186029 0.0946113 0.977978 
0.229031 0.132316 0.964384 
0.228292 0.155797 0.961046 
0.273272 0.204953 0.939849 
0.306046 0.265188 0.914336 
0.349878 0.331695 0.876107 
0.396898 0.405414 0.823475 
0.441834 0.499967 0.744859 
0.502438 0.607194 0.615525 
0.553107 0.711444 0.433497 
0.508787 -0.74323 0.434449 
0.462715 -0.634816 0.618792 
0.405719 -0.519339 0.752117 
0.354055 -0.417049 0.837087 
0.315374 -0.340379 0.885822 
0.267814 -0.267744 0.925521 
0.224357 -0.206379 0.952403 
0.225665 -0.179991 0.957433 
0.177682 -0.130699 0.97537 
0.181777 -0.11313 0.97681 
0.145106 -0.0806573 0.986123 
0.148783 -0.0675688 0.986559 
0.140649 -0.0511064 0.98874 
0.118007 -0.0335757 0.992445 
0.130838 -0.0240991 0.991111 
0.112004 -0.010781 0.993649 
0.128143 -0.000946841 0.991755 
0.117734 0.0105903 0.992989 
0.114897 0.0207362 0.993161 
0.13742 0.0359153 0.989862 
0.125719 0.0450429 0.991043 
0.15227 0.0675307 0.986029 
0.143212 0.0806426 0.986401 
0.176505 0.107986 0.978358 
0.179427 0.128959 0.975282 
0.204095 0.165366 0.964883 
0.243974 0.213338 0.946025 
0.263688 0.262676 0.928154 
0.30734 0.335069 0.890658 
0.353893 0.417188 0.837086 
0.406244 0.520342 0.751139 
0.462664 0.635719 0.617903 
0.509375 0.743496 0.433302 
0.462892 -0.772839 0.434109 
0.422435 -0.661918 0.619204 
0.371346 -0.544727 0.751915 
0.319591 -0.437726 0.840391 
0.277912 -0.35126 0.894081 
0.243661 -0.283613 0.927466 
0.204602 -0.221963 0.953347 
0.175043 -0.175675 0.968761 
0.176262 -0.152036 0.972531 
0.138264 -0.113142 0.983912 
0.140109 -0.0958777 0.985483 
0.112557 -0.0693928 0.991219 
0.116216 -0.0567588 0.991601 
0.105514 -0.041756 0.993541 
0.0894483 -0.0281054 0.995595 
0.0990735 -0.0199148 0.994881 
0.0851386 -0.00916728 0.996327 
0.0968466 -0.000163903 0.995299 
0.0904939 0.00849353 0.995861 
0.0862966 0.0179224 0.996108 
0.104119 0.0300492 0.994111 
0.0960393 0.0401163 0.994569 
0.11634 0.0562956 0.991613 
0.110643 0.0676839 0.991553 
0.134543 0.0940299 0.986436 
0.150115 0.121691 0.981151 
0.161408 0.1476 0.975788 
0.200487 0.194082 0.96028 
0.204949 0.225797 0.952372 
0.238059 0.280337 0.929913 
0.276603 0.349932 0.895008 
0.319332 0.438264 0.840209 
0.371671 0.544399 0.751991 
0.423275 0.66187 0.618682 
0.463889 0.77273 0.433238 
0.416407 -0.799056 0.433723 
0.380366 -0.684717 0.621679 
0.333179 -0.563755 0.75576 
0.28671 -0.453143 0.844072 
0.243299 -0.356483 0.902067 
0.207823 -0.283127 0.936295 
0.18031 -0.222296 0.958161 
0.145866 -0.165164 0.97542 
0.136062 -0.132406 0.981813 
0.108151 -0.0983317 0.989259 
0.108608 -0.0816585 0.990725 
0.086544 -0.0591395 0.994491 
0.0908638 -0.0483541 0.994689 
0.0795498 -0.0353326 0.996205 
0.0679168 -0.0237924 0.997407 
0.075288 -0.0163411 0.997028 
0.0640473 -0.0078916 0.997916 
0.0740366 -7.11031e-05 0.997256 
0.0682253 0.0070114 0.997645 
0.0654244 0.0145721 0.997751 
0.078876 0.0244807 0.996584 
0.0733933 0.0325805 0.996771 
0.0897709 0.0484655 0.994783 
0.0854055 0.0597349 0.994554 
0.103271 0.0792502 0.991491 
0.119421 0.103034 0.987483 
0.12503 0.126918 0.984002 
0.157649 0.171001 0.972577 
0.168781 0.210667 0.962877 
0.204178 0.275412 0.939393 
0.242105 0.353859 0.903421 
0.286825 0.449869 0.845783 
0.333447 0.563156 0.756088 
0.382216 0.683972 0.621364 
0.417667 0.798519 0.4335 
0.36927 -0.822019 0.433502 
0.337386 -0.704738 0.624111 
0.296446 -0.581075 0.75794 
0.253106 -0.46667 0.847441 
0.215884 -0.370245 0.903501 
0.179352 -0.287907 0.940714 
0.156903 -0.229463 0.960587 
0.137677 -0.183577 0.973316 
0.109599 -0.140984 0.983927 
0.109857 -0.11957 0.986729 
0.084221 -0.0872407 0.992621 
0.0837402 -0.0713269 0.993932 
0.0673834 -0.0519271 0.996375 
0.0694546 -0.0420828 0.996697 
0.0599902 -0.0302899 0.997739 
0.0518917 -0.0200698 0.998451 
0.0568347 -0.0141962 0.998283 
0.0484609 -0.00630846 0.998805 
0.0557205 -0.000123505 0.998446 
0.0511695 0.00656104 0.998668 
0.0498028 0.0118894 0.998688 
0.0593806 0.022208 0.997988 
0.0557441 0.0285118 0.998038 
0.0684379 0.0413138 0.9968 
0.0657278 0.0503313 0.996567 
0.0795292 0.0696673 0.994395 
0.0948782 0.0923451 0.991197 
0.0975938 0.112491 0.988848 
0.125355 0.150651 0.980607 
0.128369 0.177967 0.975627 
0.152192 0.22508 0.962381 
0.181408 0.288279 0.940205 
0.215392 0.368307 0.904409 
0.255274 0.466623 0.846816 
0.298042 0.58067 0.757623 
0.339986 0.7057 0.621609 
0.370456 0.821249 0.43395 
0.321909 -0.841708 0.433477 
0.295729 -0.722002 0.625506 
0.257927 -0.595424 0.760884 
0.220704 -0.478796 0.849732 
0.186922 -0.378135 0.906683 
0.158207 -0.294755 0.942385 
0.12677 -0.220278 0.967164 
0.113076 -0.174434 0.978155 
0.0881067 -0.12901 0.987721 
0.0843862 -0.104855 0.990901 
0.0650029 -0.0768115 0.994924 
0.0656194 -0.0634672 0.995824 
0.0506209 -0.0449306 0.997707 
0.053275 -0.0363476 0.997918 
0.0457268 -0.0258999 0.998618 
0.0384005 -0.0178484 0.999103 
0.0427787 -0.0122191 0.99901 
0.0364993 -0.00518617 0.99932 
0.0419909 -0.00103543 0.999117 
0.0390257 0.00545859 0.999223 
0.0363683 0.0110247 0.999278 
0.0447514 0.017881 0.998838 
0.0425038 0.0248794 0.998786 
0.0520792 0.0362051 0.997986 
0.0503957 0.0453904 0.997697 
0.06096 0.0610128 0.996274 
0.0740921 0.0809475 0.993961 
0.074704 0.0992564 0.992254 
0.0978903 0.134085 0.986123 
0.105158 0.170084 0.979803 
0.130013 0.224632 0.965731 
0.158166 0.294962 0.942328 
0.188773 0.378242 0.906255 
0.222821 0.48028 0.848341 
0.2621 0.598032 0.757405 
0.297453 0.722787 0.623779 
0.32255 0.840956 0.434459 
0.274914 -0.858296 0.433302 
0.253268 -0.736749 0.626942 
0.220044 -0.609197 0.761879 
0.188956 -0.491228 0.850289 
0.159023 -0.390611 0.906716 
0.136523 -0.310128 0.940841 
0.118598 -0.246049 0.961974 
0.0930539 -0.19237 0.976901 
0.0910777 -0.159223 0.983032 
0.0674209 -0.118879 0.990617 
0.0649818 -0.0948413 0.993369 
0.050663 -0.0700559 0.996256 
0.0493569 -0.0555746 0.997234 
0.0394128 -0.0407538 0.998392 
0.0403618 -0.0326213 0.998652 
0.0339193 -0.0228532 0.999163 
0.0294144 -0.0151621 0.999452 
0.0319782 -0.0107137 0.999431 
0.0271018 -0.00562278 0.999617 
0.030409 0.000359061 0.999537 
0.0291952 0.00397258 0.999566 
0.027424 0.00920958 0.999581 
0.0340716 0.0159452 0.999292 
0.0309067 0.0215401 0.99929 
0.0398434 0.0314349 0.998711 
0.0380131 0.0398972 0.99848 
0.0465107 0.0541008 0.997452 
0.0571876 0.0733733 0.995664 
0.0587693 0.0905484 0.994157 
0.0765389 0.123117 0.989436 
0.0777567 0.14555 0.986291 
0.0945883 0.186342 0.977921 
0.115057 0.240725 0.96375 
0.136581 0.310735 0.940632 
0.16288 0.390469 0.906093 
0.193286 0.498727 0.844933 
0.223616 0.612112 0.758495 
0.255459 0.739663 0.622607 
0.274084 0.857537 0.435325 
0.228417 -0.871809 0.433331 
0.211768 -0.75027 0.626299 
0.183764 -0.62153 0.761532 
0.155843 -0.499574 0.852137 
0.131153 -0.394327 0.909563 
0.110013 -0.307318 0.945226 
0.095306 -0.239433 0.966224 
0.0731348 -0.185644 0.979892 
0.0688854 -0.145551 0.98695 
0.051648 -0.107998 0.992809 
0.0509679 -0.0867107 0.994929 
0.0370876 -0.0635474 0.997289 
0.0377655 -0.0506978 0.998 
0.0287288 -0.0364583 0.998922 
0.0300467 -0.027905 0.999159 
0.0251012 -0.0203828 0.999477 
0.0213272 -0.0142928 0.99967 
0.0237521 -0.00866187 0.99968 
0.0193989 -0.00411044 0.999803 
0.0235985 -0.000174137 0.999722 
0.0209825 0.00414013 0.999771 
0.0200624 0.00822825 0.999765 
0.0250756 0.0141942 0.999585 
0.0239086 0.0195267 0.999523 
0.0296445 0.0281768 0.999163 
0.0285698 0.0364876 0.998926 
0.0351942 0.0490802 0.998175 
0.0432571 0.0660845 0.996876 
0.0432331 0.0832108 0.995594 
0.0582382 0.111349 0.992073 
0.0620764 0.145063 0.987473 
0.0790676 0.191719 0.97826 
0.0999127 0.249316 0.963254 
0.110584 0.316735 0.942046 
0.141476 0.407006 0.902403 
0.157405 0.506203 0.847928 
0.187801 0.625081 0.757631 
0.211554 0.751305 0.625128 
0.22553 0.871045 0.436367 
0.17954 -0.88235 0.434999 
0.172863 -0.775941 0.606659 
0.149755 -0.650167 0.744887 
0.125988 -0.524229 0.842206 
0.106464 -0.41128 0.90527 
0.0886958 -0.315918 0.944632 
0.0745492 -0.238678 0.968233 
0.0552845 -0.175001 0.983015 
0.0525075 -0.137184 0.989153 
0.038205 -0.102303 0.994019 
0.0372735 -0.080235 0.996079 
0.0284354 -0.0589471 0.997856 
0.0280888 -0.0458798 0.998552 
0.0210974 -0.033372 0.99922 
0.0222976 -0.0263281 0.999405 
0.0186482 -0.0182932 0.999659 
0.0150876 -0.0117594 0.999817 
0.016974 -0.00884828 0.999817 
0.01474 -0.0036741 0.999885 
0.0161835 -0.000598786 0.999869 
0.0149279 0.00373889 0.999882 
0.0150968 0.00722404 0.99986 
0.0176073 0.0121959 0.999771 
0.0167958 0.0175848 0.999704 
0.0215782 0.0254836 0.999442 
0.0206612 0.0327337 0.999251 
0.0255447 0.0453679 0.998644 
0.0331282 0.0613275 0.997568 
0.0327152 0.0779732 0.996419 
0.0447531 0.106662 0.993288 
0.0460118 0.134146 0.989893 
0.0583783 0.177533 0.982382 
0.076397 0.236241 0.968687 
0.0818205 0.297886 0.951088 
0.110179 0.391595 0.913517 
0.118764 0.495047 0.860711 
0.149453 0.624578 0.766529 
0.168042 0.756629 0.631882 
0.17729 0.881796 0.437039 
0.135614 -0.889803 0.435729 
0.124686 -0.741654 0.659092 
0.102322 -0.587911 0.802428 
0.0854695 -0.45652 0.885598 
0.0695991 -0.350791 0.933864 
0.0599316 -0.270198 0.960938 
0.0517913 -0.211362 0.976035 
0.0369293 -0.16456 0.985676 
0.0383121 -0.13069 0.990683 
0.0270634 -0.0965885 0.994956 
0.0268301 -0.0750567 0.996818 
0.0189228 -0.0554504 0.998282 
0.0195013 -0.0435012 0.998863 
0.0147951 -0.0310415 0.999409 
0.0153767 -0.0237097 0.999601 
0.0123357 -0.016917 0.999781 
0.0106561 -0.0121304 0.99987 
0.0121441 -0.0075425 0.999898 
0.00867456 -0.00391639 0.999955 
0.0119884 -0.00012784 0.999928 
0.0107701 0.00300546 0.999937 
0.00870316 0.00697072 0.999938 
0.0127848 0.0119873 0.999846 
0.0112784 0.0159851 0.999809 
0.0153014 0.0237186 0.999602 
0.0144967 0.0313943 0.999402 
0.0178678 0.0422068 0.998949 
0.0230319 0.0566493 0.998128 
0.02307 0.073892 0.996999 
0.0314521 0.099441 0.994546 
0.0301582 0.127649 0.991361 
0.0426796 0.168591 0.984762 
0.0563323 0.223908 0.972981 
0.056996 0.286852 0.956278 
0.0817248 0.375929 0.923038 
0.0835015 0.472353 0.877445 
0.106527 0.596863 0.79524 
0.123624 0.747287 0.652901 
0.132499 0.889754 0.436786 
0.0881094 -0.895152 0.436966 
0.0873948 -0.782089 0.617008 
0.0741142 -0.645071 0.76052 
0.0598357 -0.505052 0.861012 
0.0497737 -0.386496 0.920947 
0.0420198 -0.291783 0.955561 
0.0352069 -0.2178 0.975358 
0.0239129 -0.16069 0.986715 
0.0252404 -0.123114 0.992072 
0.0157371 -0.0926541 0.995574 
0.0181896 -0.0719635 0.997241 
0.0116975 -0.053202 0.998515 
0.0134443 -0.0401179 0.999105 
0.00828826 -0.030041 0.999514 
0.0106142 -0.0223147 0.999695 
0.00825736 -0.0157535 0.999842 
0.00602328 -0.010759 0.999924 
0.00789077 -0.00650946 0.999948 
0.00674317 -0.00360233 0.999971 
0.00715187 0.000138793 0.999974 
0.00673378 0.00294467 0.999973 
0.00638051 0.00635136 0.999959 
0.00873054 0.0102294 0.99991 
0.00702708 0.0159485 0.999848 
0.00993725 0.0218519 0.999712 
0.007805 0.0293356 0.999539 
0.012038 0.0399867 0.999128 
0.0154058 0.0547113 0.998383 
0.012915 0.0699635 0.997466 
0.021781 0.0948118 0.995257 
0.0191644 0.122837 0.992242 
0.0267835 0.163511 0.986178 
0.0375221 0.215087 0.975874 
0.035427 0.280023 0.959339 
0.0546 0.36889 0.927868 
0.0544791 0.483821 0.873469 
0.0737484 0.62866 0.774176 
0.084561 0.77357 0.628044 
0.085993 0.895222 0.437244 
0.0448846 -0.89866 0.436343 
0.0417525 -0.739688 0.671653 
0.0341978 -0.579212 0.814459 
0.0284068 -0.443079 0.896032 
0.0223625 -0.335404 0.941809 
0.0198809 -0.256573 0.96632 
0.0176018 -0.199789 0.979681 
0.00966364 -0.156632 0.98761 
0.0137674 -0.121347 0.992515 
0.00760653 -0.0910894 0.995814 
0.00980605 -0.069013 0.997568 
0.0051875 -0.0517176 0.998648 
0.00701946 -0.0397146 0.999186 
0.00440555 -0.0283801 0.999587 
0.00540916 -0.0215669 0.999753 
0.00371542 -0.0154956 0.999873 
0.00299662 -0.010161 0.999944 
0.00366281 -0.00726439 0.999967 
0.00186164 -0.00257476 0.999995 
0.00429 -0.000536634 0.999991 
0.00272094 0.00317207 0.999991 
0.0025058 0.00616469 0.999978 
0.00357616 0.0106168 0.999937 
0.00278396 0.0143975 0.999892 
0.0057017 0.0213305 0.999756 
0.00397202 0.0291782 0.999566 
0.00507787 0.0387107 0.999238 
0.00869135 0.0518706 0.998616 
0.00665676 0.0693505 0.99757 
0.0110047 0.0925171 0.99565 
0.0076938 0.120831 0.992643 
0.0127433 0.159862 0.987057 
0.0218205 0.211678 0.977096 
0.0152669 0.27663 0.960855 
0.0311958 0.363631 0.93102 
0.0234117 0.460803 0.887194 
0.0338549 0.584922 0.810383 
0.0406023 0.739181 0.672281 
0.0428668 0.898881 0.43609 
0.00187125 -0.900852 0.434122 
0.00179818 -0.787446 0.616381 
0.00165484 -0.644186 0.764867 
0.000519605 -0.501343 0.865248 
0.000771462 -0.380263 0.924878 
0.000863761 -0.284772 0.958595 
0.00223595 -0.211717 0.977329 
-0.00311678 -0.157872 0.987455 
0.0019626 -0.118888 0.992906 
-0.00183837 -0.0906599 0.99588 
0.00116891 -0.0689307 0.997621 
-0.000847686 -0.0518515 0.998654 
0.00115219 -0.0381994 0.999269 
-0.00112356 -0.0293863 0.999567 
0.00151424 -0.0207211 0.999784 
0.000215027 -0.0152878 0.999883 
-0.0010432 -0.0106493 0.999943 
0.00160135 -0.00667137 0.999976 
-0.00023423 -0.00366554 0.999993 
0.00113212 -0.000364424 0.999999 
0.000505885 0.00290658 0.999996 
-0.00108738 0.00611881 0.999981 
0.00162492 0.00986384 0.99995 
-0.000379546 0.0153656 0.999882 
0.000494486 0.0206636 0.999786 
-0.000990535 0.0280911 0.999605 
-0.000104937 0.0386674 0.999252 
0.001565 0.0518895 0.998652 
-0.0019182 0.0680619 0.997679 
0.00151023 0.0907326 0.995874 
-0.00346518 0.121373 0.992601 
-0.00016511 0.158262 0.987397 
0.00487196 0.209502 0.977796 
-0.0043581 0.274445 0.961593 
0.00609349 0.361493 0.932355 
-0.00415664 0.478941 0.877837 
0.00055645 0.629801 0.776756 
-0.000922075 0.780533 0.625114 
0.000827261 0.90129 0.433216 
-0.0412658 -0.898394 0.437247 
-0.0394844 -0.738981 0.672568 
-0.0320145 -0.580577 0.813576 
-0.0255605 -0.443746 0.895788 
-0.0221515 -0.33715 0.94119 
-0.01718 -0.256605 0.966364 
-0.0139562 -0.200927 0.979507 
-0.0169042 -0.159419 0.987066 
-0.00786301 -0.120957 0.992627 
-0.0118904 -0.092336 0.995657 
-0.00516038 -0.0686255 0.997629 
-0.00860636 -0.0520721 0.998606 
-0.00412505 -0.039061 0.999228 
-0.00550725 -0.0283287 0.999583 
-0.00327221 -0.0212642 0.999769 
-0.00340108 -0.0148928 0.999883 
-0.00410022 -0.0108865 0.999932 
-0.00322825 -0.0059654 0.999977 
-0.00331958 -0.00358616 0.999988 
-0.0025937 0.000454842 0.999997 
-0.00290488 0.00264 0.999992 
-0.00395774 0.00666886 0.99997 
-0.00339781 0.0104244 0.99994 
-0.00496411 0.0146007 0.999881 
-0.00337337 0.0214502 0.999764 
-0.00689855 0.0294052 0.999544 
-0.00533187 0.0389681 0.999226 
-0.00455819 0.0511896 0.998679 
-0.00998523 0.0703186 0.997475 
-0.00623751 0.0914204 0.995793 
-0.0151365 0.121515 0.992474 
-0.0131378 0.16011 0.987012 
-0.0108859 0.210306 0.977575 
-0.0236021 0.278258 0.960216 
-0.0169699 0.361069 0.932385 