# vtk DataFile Version 3.0 
Exported using Morpho https://github.com/Morpho-lang/morpho 
ASCII 
DATASET UNSTRUCTURED_GRID 

POINTS 1245 float 
-0.304038 -0.95266 0 
-0.251441 -0.967873 0 
-0.196599 -0.980484 0 
-0.147939 -0.988996 0 
-0.096254 -0.995357 0 
-0.0483601 -0.99883 0 
-0.000451504 -1 0 
0.0482414 -0.998836 0 
0.0956209 -0.995418 0 
0.145924 -0.989296 0 
0.198694 -0.980062 0 
0.248343 -0.968672 0 
0.30399 -0.952675 0 
-0.409672 -0.912233 0 
-0.356859 -0.934158 0 
-0.307625 -0.898571 0 
-0.256611 -0.914841 0 
-0.205389 -0.933372 0 
-0.153069 -0.927934 0 
-0.102396 -0.94791 0 
-0.0498583 -0.935106 0 
0.00142854 -0.953377 0 
0.052561 -0.9331 0 
0.104134 -0.942389 0 
0.156872 -0.938823 0 
0.206982 -0.919507 0 
0.258749 -0.920951 0 
0.310446 -0.900065 0 
0.357716 -0.93383 0 
0.410714 -0.911764 0 
-0.51437 -0.857568 0 
-0.462407 -0.886668 0 
-0.411015 -0.857376 0 
-0.359501 -0.879663 0 
-0.305707 -0.84665 0 
-0.253622 -0.86425 0 
-0.200473 -0.885626 0 
-0.148805 -0.868805 0 
-0.0992128 -0.89633 0 
-0.0484472 -0.873916 0 
0.00154915 -0.899374 0 
0.0506565 -0.870008 0 
0.099584 -0.888189 0 
0.15259 -0.889657 0 
0.203706 -0.862941 0 
0.255384 -0.874358 0 
0.307954 -0.849391 0 
0.361689 -0.879386 0 
0.412615 -0.856642 0 
0.46325 -0.886228 0 
0.514942 -0.857225 0 
-0.565364 -0.824841 0 
-0.512807 -0.802464 0 
-0.462454 -0.831649 0 
-0.409305 -0.803744 0 
-0.35814 -0.826779 0 
-0.304287 -0.794815 0 
-0.252533 -0.812725 0 
-0.199644 -0.834469 0 
-0.148659 -0.811689 0 
-0.0980329 -0.840437 0 
-0.0486484 -0.814709 0 
0.00110327 -0.841666 0 
0.0507222 -0.810511 0 
0.10012 -0.830521 0 
0.151601 -0.838979 0 
0.201398 -0.807576 0 
0.253879 -0.824556 0 
0.305585 -0.798078 0 
0.359663 -0.826545 0 
0.410331 -0.802786 0 
0.463256 -0.830671 0 
0.513382 -0.802055 0 
0.565855 -0.824505 0 
-0.661127 -0.750274 0 
-0.614521 -0.7889 0 
-0.561833 -0.769262 0 
-0.50964 -0.747742 0 
-0.460175 -0.777438 0 
-0.407225 -0.750461 0 
-0.356449 -0.774194 0 
-0.303021 -0.743169 0 
-0.251726 -0.760737 0 
-0.199698 -0.781574 0 
-0.149469 -0.755674 0 
-0.0987361 -0.784111 0 
-0.0495663 -0.757521 0 
0.00074427 -0.784506 0 
0.0499021 -0.753017 0 
0.0986422 -0.771593 0 
0.148465 -0.786798 0 
0.198905 -0.753762 0 
0.25178 -0.773224 0 
0.303018 -0.746409 0 
0.356897 -0.773838 0 
0.407278 -0.749476 0 
0.460508 -0.775969 0 
0.509912 -0.747635 0 
0.562265 -0.768427 0 
0.614899 -0.788606 0 
0.660916 -0.75046 0 
-0.707137 -0.707076 0 
-0.654232 -0.698242 0 
-0.60786 -0.732501 0 
-0.557385 -0.712939 0 
-0.507468 -0.693124 0 
-0.457791 -0.723521 0 
-0.40534 -0.697562 0 
-0.354815 -0.72183 0 
-0.302133 -0.691777 0 
-0.251077 -0.708675 0 
-0.199931 -0.727612 0 
-0.150301 -0.700335 0 
-0.0999236 -0.728385 0 
-0.051087 -0.701823 0 
-0.000421628 -0.728505 0 
0.0495464 -0.698598 0 
0.0984035 -0.713168 0 
0.147599 -0.732599 0 
0.197896 -0.700126 0 
0.250029 -0.721435 0 
0.301757 -0.694342 0 
0.353927 -0.721143 0 
0.403704 -0.696683 0 
0.456847 -0.721566 0 
0.505628 -0.694419 0 
0.557407 -0.711375 0 
0.607266 -0.730582 0 
0.652491 -0.698197 0 
0.706565 -0.707648 0 
-0.750394 -0.660991 0 
-0.698464 -0.654201 0 
-0.647093 -0.646808 0 
-0.60217 -0.67432 0 
-0.556909 -0.655804 0 
-0.506644 -0.64072 0 
-0.455848 -0.670392 0 
-0.404184 -0.645105 0 
-0.353627 -0.669626 0 
-0.301541 -0.640968 0 
-0.250517 -0.65732 0 
-0.200181 -0.673083 0 
-0.151003 -0.645606 0 
-0.100944 -0.673231 0 
-0.0519388 -0.647066 0 
-0.00212132 -0.674276 0 
0.047866 -0.647977 0 
0.0973944 -0.654915 0 
0.14682 -0.677634 0 
0.197663 -0.647208 0 
0.249531 -0.669554 0 
0.301392 -0.642514 0 
0.353151 -0.66764 0 
0.404352 -0.642769 0 
0.451679 -0.667224 0 
0.497353 -0.643748 0 
0.550472 -0.654874 0 
0.599514 -0.669274 0 
0.647435 -0.648156 0 
0.698584 -0.655155 0 
0.750179 -0.661235 0 
-0.789039 -0.614343 0 
-0.732835 -0.607626 0 
-0.675089 -0.602016 0 
-0.61271 -0.611831 0 
-0.56007 -0.604859 0 
-0.506586 -0.591159 0 
-0.4548 -0.618267 0 
-0.402585 -0.593363 0 
-0.352885 -0.617892 0 
-0.301898 -0.590774 0 
-0.249931 -0.607445 0 
-0.20047 -0.618026 0 
-0.152094 -0.591572 0 
-0.101636 -0.618979 0 
-0.0515543 -0.593574 0 
-0.00244032 -0.620678 0 
0.0493493 -0.600163 0 
0.0984462 -0.59791 0 
0.147214 -0.623273 0 
0.19846 -0.594491 0 
0.248849 -0.617954 0 
0.29924 -0.591281 0 
0.352315 -0.614754 0 
0.403831 -0.593284 0 
0.455787 -0.608592 0 
0.520167 -0.601585 0 
0.571237 -0.605653 0 
0.620059 -0.607814 0 
0.678676 -0.602486 0 
0.734122 -0.607948 0 
0.789144 -0.614208 0 
-0.824938 -0.565223 0 
-0.769277 -0.561556 0 
-0.712842 -0.556856 0 
-0.655558 -0.556882 0 
-0.604723 -0.559782 0 
-0.552376 -0.552301 0 
-0.499741 -0.541558 0 
-0.452146 -0.567692 0 
-0.399788 -0.54198 0 
-0.351333 -0.566006 0 
-0.301369 -0.539423 0 
-0.251944 -0.559984 0 
-0.202344 -0.562389 0 
-0.151729 -0.539373 0 
-0.101412 -0.56624 0 
-0.0504147 -0.541753 0 
-0.000400428 -0.568612 0 
0.0512066 -0.551572 0 
0.100052 -0.542814 0 
0.148635 -0.569469 0 
0.199383 -0.542248 0 
0.24951 -0.565612 0 
0.300492 -0.537743 0 
0.346797 -0.563054 0 
0.392054 -0.54738 0 
0.444834 -0.550376 0 
0.492055 -0.564982 0 
0.548979 -0.550909 0 
0.602765 -0.5553 0 
0.655752 -0.556591 0 
0.713249 -0.556635 0 
0.769373 -0.561367 0 
0.824922 -0.565247 0 
-0.857615 -0.514292 0 
-0.802388 -0.512635 0 
-0.747487 -0.509447 0 
-0.692481 -0.506961 0 
-0.640359 -0.506188 0 
-0.590701 -0.507101 0 
-0.539866 -0.49886 0 
-0.492526 -0.491066 0 
-0.44688 -0.51632 0 
-0.399236 -0.489206 0 
-0.350286 -0.513725 0 
-0.298979 -0.489497 0 
-0.247977 -0.513509 0 
-0.199703 -0.507566 0 
-0.150161 -0.487331 0 
-0.10059 -0.514616 0 
-0.049804 -0.490619 0 
0.000625811 -0.517509 0 
0.0508042 -0.501589 0 
0.0999639 -0.489781 0 
0.149517 -0.516323 0 
0.199861 -0.49053 0 
0.249857 -0.513971 0 
0.301105 -0.486926 0 
0.350992 -0.50621 0 
0.406179 -0.503633 0 
0.453702 -0.495579 0 
0.499381 -0.517896 0 
0.54509 -0.495628 0 
0.589875 -0.502992 0 
0.639769 -0.505125 0 
0.692133 -0.507178 0 
0.747231 -0.509351 0 
0.802239 -0.512834 0 
0.8575 -0.514485 0 
-0.886692 -0.462362 0 
-0.831447 -0.46229 0 
-0.776968 -0.459992 0 
-0.722557 -0.457864 0 
-0.668309 -0.454847 0 
-0.615699 -0.454692 0 
-0.563442 -0.455041 0 
-0.504959 -0.444494 0 
-0.448651 -0.462232 0 
-0.399535 -0.438236 0 
-0.349128 -0.46264 0 
-0.299137 -0.439068 0 
-0.248305 -0.464591 0 
-0.199624 -0.454437 0 
-0.150124 -0.436363 0 
-0.0998408 -0.463181 0 
-0.0495775 -0.439683 0 
0.000657363 -0.466432 0 
0.050398 -0.45109 0 
0.0997795 -0.438004 0 
0.14961 -0.46426 0 
0.20006 -0.439543 0 
0.250155 -0.462985 0 
0.300624 -0.436016 0 
0.349741 -0.453489 0 
0.398431 -0.460711 0 
0.448861 -0.444362 0 
0.501772 -0.463516 0 
0.556306 -0.446047 0 
0.610655 -0.453181 0 
0.665731 -0.455702 0 
0.720992 -0.458228 0 
0.776173 -0.460571 0 
0.831102 -0.462917 0 
0.886543 -0.462645 0 
-0.912236 -0.409665 0 
-0.857204 -0.410967 0 
-0.803392 -0.409217 0 
-0.74994 -0.407407 0 
-0.696663 -0.406178 0 
-0.642836 -0.402615 0 
-0.594083 -0.40314 0 
-0.543712 -0.409305 0 
-0.498184 -0.388941 0 
-0.452699 -0.414143 0 
-0.401283 -0.388854 0 
-0.349739 -0.411899 0 
-0.299455 -0.388886 0 
-0.248771 -0.414704 0 
-0.199804 -0.40237 0 
-0.150194 -0.385975 0 
-0.0998826 -0.412316 0 
-0.0496331 -0.389139 0 
0.000643541 -0.415495 0 
0.0502079 -0.40057 0 
0.099715 -0.387048 0 
0.149647 -0.41299 0 
0.200027 -0.388895 0 
0.250027 -0.412129 0 
0.301055 -0.385878 0 
0.350404 -0.401986 0 
0.40041 -0.412751 0 
0.450882 -0.391618 0 
0.499731 -0.416383 0 
0.544034 -0.393568 0 
0.59137 -0.399783 0 
0.642288 -0.404278 0 
0.695365 -0.407079 0 
0.749328 -0.408637 0 
0.803118 -0.410657 0 
0.857365 -0.412146 0 
0.912211 -0.40972 0 
-0.934162 -0.35685 0 
-0.879422 -0.35942 0 
-0.826293 -0.357958 0 
-0.773333 -0.356351 0 
-0.720158 -0.355668 0 
-0.665775 -0.356607 0 
-0.607138 -0.350008 0 
-0.553621 -0.361137 0 
-0.5022 -0.339404 0 
-0.449669 -0.361737 0 
-0.400008 -0.33791 0 
-0.350294 -0.361968 0 
-0.299735 -0.338845 0 
-0.249149 -0.364486 0 
-0.19989 -0.351123 0 
-0.150231 -0.335907 0 
-0.0999158 -0.361809 0 
-0.0496591 -0.338853 0 
0.000579022 -0.364807 0 
0.0501213 -0.350175 0 
0.0996736 -0.336536 0 
0.149689 -0.362171 0 
0.200173 -0.338592 0 
0.250216 -0.361805 0 
0.300977 -0.33584 0 
0.350317 -0.350432 0 
0.400031 -0.363711 0 
0.449445 -0.340113 0 
0.500426 -0.362497 0 
0.556035 -0.344079 0 
0.610296 -0.352686 0 
0.6665 -0.355417 0 
0.719677 -0.357923 0 
0.773735 -0.358184 0 
0.826983 -0.360351 0 
0.879942 -0.360326 0 
0.934344 -0.356372 0 
-0.952661 -0.304036 0 
-0.898427 -0.307629 0 
-0.846493 -0.305546 0 
-0.794931 -0.304029 0 
-0.743864 -0.303138 0 
-0.693611 -0.30459 0 
-0.643467 -0.30958 0 
-0.599353 -0.290969 0 
-0.55443 -0.313997 0 
-0.503336 -0.288984 0 
-0.45199 -0.311834 0 
-0.401101 -0.288191 0 
-0.349902 -0.311422 0 
-0.299643 -0.288622 0 
-0.249349 -0.314247 0 
-0.199915 -0.300435 0 
-0.150269 -0.285978 0 
-0.0999683 -0.311532 0 
-0.0497289 -0.288717 0 
0.000527779 -0.314369 0 
0.0500741 -0.299964 0 
0.0996409 -0.286337 0 
0.149787 -0.311716 0 
0.200238 -0.28842 0 
0.250326 -0.311555 0 
0.301235 -0.286006 0 
0.350591 -0.299681 0 
0.400449 -0.31341 0 
0.451856 -0.289027 0 
0.501314 -0.314699 0 
0.544921 -0.289691 0 
0.590901 -0.297941 0 
0.640135 -0.307218 0 
0.69435 -0.304347 0 
0.742809 -0.307966 0 
0.7979 -0.307375 0 
0.847482 -0.307936 0 
0.899876 -0.308548 0 
0.953167 -0.302446 0 
-0.967863 -0.251479 0 
-0.914487 -0.256648 0 
-0.863556 -0.253418 0 
-0.811732 -0.251971 0 
-0.759393 -0.251316 0 
-0.706493 -0.252194 0 
-0.653718 -0.258815 0 
-0.607533 -0.238533 0 
-0.553063 -0.261024 0 
-0.502377 -0.238056 0 
-0.452064 -0.261845 0 
-0.401205 -0.238175 0 
-0.350516 -0.261491 0 
-0.299965 -0.238667 0 
-0.249417 -0.263974 0 
-0.199916 -0.250071 0 
-0.150304 -0.236053 0 
-0.100036 -0.261399 0 
-0.0497663 -0.238671 0 
0.000445464 -0.264099 0 
0.0500404 -0.249853 0 
0.0996125 -0.23625 0 
0.149834 -0.261487 0 
0.200323 -0.238399 0 
0.25055 -0.261503 0 
0.301452 -0.23621 0 
0.351157 -0.249436 0 
0.401482 -0.263625 0 
0.451962 -0.237781 0 
0.501557 -0.260261 0 
[...]
POINT_DATA 1245 
VECTORS vectors float
0.849107 -0.274802 0.451111 
0.862078 -0.228268 0.452455 
0.872338 -0.179237 0.454863 
0.87988 -0.135257 0.45554 
0.886218 -0.0893047 0.454579 
0.886684 -0.045266 0.460156 
0.890007 -0.00178355 0.455942 
0.887739 0.0423203 0.458397 
0.884141 0.0855514 0.45932 
0.879468 0.131606 0.4574 
0.87171 0.178788 0.456242 
0.861864 0.223512 0.455229 
0.848301 0.272591 0.45396 
0.814151 -0.367432 0.449614 
0.833188 -0.321117 0.450202 
0.724179 -0.250645 0.64245 
0.737864 -0.211024 0.641113 
0.762782 -0.172412 0.623248 
0.727517 -0.123906 0.674809 
0.768532 -0.0858663 0.634024 
0.725106 -0.0417115 0.687372 
0.771621 0.00106017 0.636081 
0.718942 0.0399146 0.693923 
0.75292 0.0843433 0.652684 
0.758501 0.128456 0.638886 
0.724834 0.165208 0.668821 
0.753185 0.213047 0.622353 
0.727959 0.253931 0.636863 
0.831505 0.320221 0.453936 
0.812066 0.367306 0.45347 
0.766315 -0.458815 0.449722 
0.791872 -0.413461 0.449431 
0.694525 -0.333692 0.637405 
0.710738 -0.293137 0.639471 
0.595629 -0.218006 0.77311 
0.607626 -0.181728 0.773153 
0.635491 -0.146695 0.758045 
0.573751 -0.101922 0.812663 
0.63002 -0.0721646 0.773219 
0.564033 -0.0329501 0.825095 
0.627174 -0.000369835 0.778879 
0.553907 0.0320323 0.831962 
0.608341 0.0691909 0.790654 
0.627321 0.108387 0.771181 
0.578302 0.138407 0.803997 
0.632765 0.186639 0.751514 
0.601042 0.218484 0.768774 
0.710231 0.292625 0.640267 
0.690755 0.33469 0.640968 
0.789593 0.413817 0.453098 
0.763714 0.459935 0.45299 
0.737132 -0.503741 0.450422 
0.652421 -0.416384 0.633223 
0.675134 -0.375576 0.634931 
0.568661 -0.291081 0.769348 
0.583241 -0.253862 0.771611 
0.476079 -0.184254 0.859883 
0.486384 -0.153165 0.860216 
0.51163 -0.126016 0.849915 
0.442117 -0.0824117 0.893163 
0.493105 -0.06028 0.867879 
0.429428 -0.0267159 0.902706 
0.485358 -0.000435934 0.874315 
0.420791 0.0262283 0.906778 
0.470403 0.0568885 0.880616 
0.50214 0.0913697 0.859946 
0.450766 0.112531 0.885521 
0.512024 0.159175 0.844094 
0.482532 0.186231 0.855851 
0.580572 0.255141 0.773201 
0.566487 0.28938 0.77159 
0.670817 0.37548 0.639546 
0.650079 0.416472 0.635569 
0.7346 0.50519 0.452931 
0.669972 -0.588936 0.451986 
0.704783 -0.547359 0.451308 
0.625894 -0.455388 0.63315 
0.534816 -0.363539 0.762765 
0.553507 -0.326795 0.766051 
0.45557 -0.246881 0.855281 
0.466837 -0.216443 0.857447 
0.375546 -0.154472 0.91384 
0.382371 -0.128601 0.915016 
0.399071 -0.104528 0.910942 
0.338548 -0.0693955 0.938387 
0.376459 -0.0496567 0.925102 
0.324165 -0.0226291 0.94573 
0.368106 -0.00103693 0.929783 
0.316259 0.0208313 0.948444 
0.353529 0.0443991 0.934369 
0.392041 0.0757934 0.91682 
0.348714 0.0929857 0.932605 
0.402797 0.13257 0.905638 
0.379219 0.154576 0.912305 
0.464143 0.21464 0.859361 
0.449503 0.246151 0.858694 
0.547204 0.32642 0.770725 
0.532288 0.36416 0.764237 
0.621922 0.456571 0.636205 
0.702444 0.549018 0.452938 
0.668365 0.590266 0.452629 
0.6311 -0.630078 0.452454 
0.573287 -0.535967 0.619743 
0.594568 -0.492155 0.635824 
0.509508 -0.397475 0.763161 
0.427188 -0.311497 0.848811 
0.441586 -0.27965 0.852524 
0.357884 -0.208539 0.910182 
0.366645 -0.18085 0.912614 
0.292724 -0.128724 0.947493 
0.296255 -0.106706 0.94913 
0.307205 -0.0853694 0.947806 
0.254899 -0.0562947 0.965328 
0.285155 -0.0400732 0.957643 
0.243522 -0.0189219 0.969711 
0.277814 -0.00075457 0.960635 
0.239562 0.0164539 0.970742 
0.262625 0.0365984 0.964204 
0.299556 0.0595567 0.952218 
0.264748 0.0755297 0.961355 
0.314391 0.108642 0.943056 
0.294451 0.128971 0.946924 
0.363707 0.179421 0.914071 
0.354131 0.205765 0.912279 
0.436326 0.276189 0.856352 
0.425644 0.311207 0.849693 
0.504292 0.396286 0.767234 
0.588798 0.490083 0.642756 
0.569791 0.534866 0.623905 
0.630307 0.631018 0.45225 
0.589548 -0.66897 0.452671 
0.536567 -0.57288 0.619601 
0.476275 -0.475554 0.739601 
0.479887 -0.427509 0.766123 
0.405813 -0.343677 0.846878 
0.340981 -0.269132 0.900722 
0.349994 -0.237264 0.906206 
0.279555 -0.174824 0.944079 
0.287304 -0.15234 0.945647 
0.227633 -0.10779 0.967763 
0.228887 -0.0878822 0.969478 
0.233431 -0.0711598 0.969766 
0.193011 -0.0459466 0.98012 
0.214626 -0.0335541 0.97612 
0.182769 -0.0156434 0.983031 
0.208821 -0.00137518 0.977953 
0.182716 0.0124402 0.983087 
0.194008 0.0287444 0.980579 
0.226498 0.0496959 0.972743 
0.203347 0.061247 0.977189 
0.242398 0.0918697 0.965817 
0.228781 0.107113 0.967567 
0.281482 0.14925 0.947888 
0.275569 0.173485 0.945497 
0.338699 0.230789 0.912151 
0.337596 0.261729 0.904172 
0.398046 0.334455 0.854224 
0.465246 0.419848 0.779278 
0.47779 0.477473 0.737385 
0.537817 0.575564 0.616019 
0.58908 0.670185 0.451484 
0.547514 -0.70385 0.452574 
0.492772 -0.593928 0.635945 
0.428469 -0.479756 0.765669 
0.384763 -0.384986 0.838894 
0.330298 -0.305 0.893241 
0.273044 -0.233367 0.933267 
0.274069 -0.201035 0.940463 
0.218819 -0.148639 0.964378 
0.221293 -0.126441 0.966976 
0.176959 -0.0912485 0.979979 
0.177381 -0.07351 0.981393 
0.174896 -0.0576083 0.9829 
0.144357 -0.0381246 0.988791 
0.160742 -0.0271817 0.986622 
0.136522 -0.0125291 0.990558 
0.157423 -0.00107198 0.987531 
0.141535 0.0117901 0.989863 
0.142943 0.0229314 0.989465 
0.169364 0.0395854 0.984758 
0.153823 0.0527174 0.986691 
0.185124 0.0737808 0.979942 
0.175017 0.0891153 0.980524 
0.217382 0.125815 0.967944 
0.216898 0.148069 0.964899 
0.261546 0.196199 0.945039 
0.294335 0.255194 0.921001 
0.338237 0.321127 0.884575 
0.38601 0.394376 0.833945 
0.431707 0.489229 0.757816 
0.494264 0.597752 0.631187 
0.547574 0.70491 0.45085 
0.503567 -0.736228 0.452093 
0.454878 -0.624773 0.634621 
0.396356 -0.507626 0.764996 
0.343856 -0.405228 0.847085 
0.304735 -0.328789 0.893887 
0.257196 -0.257021 0.931553 
0.214086 -0.196692 0.956807 
0.214885 -0.171407 0.96148 
0.167587 -0.12306 0.978147 
0.171562 -0.106805 0.979367 
0.135574 -0.0751586 0.987912 
0.138866 -0.0632583 0.988289 
0.13099 -0.047706 0.990235 
0.108918 -0.0311035 0.993564 
0.121238 -0.0225475 0.992367 
0.102966 -0.0100528 0.994634 
0.1185 -0.00113999 0.992953 
0.108443 0.00962886 0.994056 
0.105768 0.0189594 0.99421 
0.127542 0.0332806 0.991275 
0.116375 0.0412778 0.992347 
0.142354 0.063169 0.987798 
0.133688 0.075373 0.988153 
0.16613 0.101314 0.980885 
0.169171 0.121657 0.978049 
0.193659 0.156953 0.968433 
0.23297 0.203881 0.950872 
0.253181 0.252147 0.933981 
0.296612 0.323839 0.898415 
0.343748 0.405435 0.84703 
0.39714 0.508852 0.763773 
0.455036 0.625964 0.633333 
0.504426 0.736651 0.450445 
0.458154 -0.765636 0.451549 
0.415446 -0.651467 0.634819 
0.362899 -0.532543 0.764658 
0.310106 -0.425199 0.850318 
0.268262 -0.33902 0.901721 
0.233904 -0.272231 0.93337 
0.194963 -0.211646 0.957703 
0.165758 -0.166362 0.972033 
0.16683 -0.143659 0.975464 
0.12954 -0.106064 0.985885 
0.130959 -0.0896919 0.987322 
0.104239 -0.0644447 0.992462 
0.107384 -0.0526032 0.992825 
0.0971171 -0.0384774 0.994529 
0.0815704 -0.0258003 0.996334 
0.0906644 -0.0183798 0.995712 
0.077418 -0.00849379 0.996963 
0.0882477 -0.000236 0.996099 
0.0825297 0.00748543 0.99656 
0.0783553 0.0163691 0.996791 
0.0955819 0.0274874 0.995042 
0.0879507 0.0369754 0.995438 
0.107412 0.0518512 0.992862 
0.102251 0.0622297 0.99281 
0.125448 0.0878493 0.988203 
0.140831 0.114291 0.983415 
0.152172 0.139008 0.97853 
0.19051 0.184648 0.964163 
0.195399 0.215401 0.956777 
0.22826 0.269116 0.935668 
0.26715 0.337917 0.902465 
0.309892 0.42607 0.84996 
0.363508 0.532377 0.764485 
0.416583 0.651565 0.633973 
0.459538 0.765562 0.450267 
0.412278 -0.791605 0.450986 
0.374093 -0.673976 0.637032 
0.32538 -0.55113 0.768364 
0.278263 -0.440254 0.853666 
0.234658 -0.343686 0.909294 
0.198866 -0.271544 0.941656 
0.171712 -0.211439 0.96219 
0.137746 -0.15582 0.978134 
0.127499 -0.124172 0.984035 
0.100595 -0.0913529 0.990725 
0.100702 -0.0755566 0.992044 
0.0792434 -0.0541729 0.995382 
0.0833611 -0.0442324 0.995537 
0.0722979 -0.0322188 0.996863 
0.0612256 -0.0215749 0.997891 
0.0680424 -0.0147852 0.997573 
0.0573125 -0.00734121 0.998329 
0.0669029 -0.000103234 0.997759 
0.0612499 0.00606754 0.998104 
0.0587722 0.012894 0.998188 
0.0715589 0.0218593 0.997197 
0.0664524 0.0291904 0.997363 
0.0821963 0.0442691 0.995632 
0.0781881 0.0549208 0.995425 
0.0955083 0.0730489 0.992745 
0.111172 0.095752 0.989178 
0.116902 0.11883 0.986009 
0.149015 0.161694 0.975525 
0.160327 0.200174 0.966554 
0.195559 0.263877 0.944524 
0.233478 0.341361 0.910473 
0.278708 0.436893 0.855246 
0.32586 0.550742 0.768439 
0.376459 0.673101 0.636564 
0.413989 0.790947 0.450573 
0.365784 -0.814316 0.450656 
0.331828 -0.693531 0.639457 
0.289825 -0.568089 0.770244 
0.245536 -0.453093 0.856982 
0.208237 -0.357237 0.910505 
0.171415 -0.275708 0.945834 
0.149522 -0.218202 0.964381 
0.129866 -0.17341 0.97625 
0.102449 -0.132007 0.98594 
0.102596 -0.111464 0.988458 
0.077518 -0.0804078 0.993743 
0.076816 -0.0654391 0.994895 
0.0613036 -0.0472322 0.997001 
0.0628707 -0.0382248 0.997289 
0.0537579 -0.0272939 0.998181 
0.0462862 -0.0178459 0.998769 
0.0507186 -0.0128121 0.998631 
0.0428423 -0.0055948 0.999066 
0.0495936 -0.00021201 0.998769 
0.0451853 0.00583644 0.998962 
0.0443266 0.0102047 0.998965 
0.0530454 0.0200328 0.998391 
0.0498678 0.0253262 0.998435 
0.0619336 0.0372445 0.997385 
0.0595506 0.0451644 0.997203 
0.0727982 0.0638138 0.995303 
0.087761 0.0854723 0.992468 
0.0907659 0.104586 0.990365 
0.11767 0.141442 0.982928 
0.121038 0.167979 0.978332 
0.144704 0.213926 0.966073 
0.173753 0.276196 0.945265 
0.207716 0.355228 0.911409 
0.248161 0.453164 0.856188 
0.291599 0.567471 0.77003 
0.334894 0.694473 0.636831 
0.367447 0.813268 0.451197 
0.319046 -0.83373 0.45067 
0.291127 -0.71044 0.640718 
0.252111 -0.581953 0.773156 
0.214255 -0.464922 0.859035 
0.180199 -0.364637 0.913547 
0.15143 -0.282102 0.947358 
0.12015 -0.208986 0.97051 
0.106314 -0.164443 0.98064 
0.0822866 -0.12009 0.989347 
0.0782687 -0.0972405 0.992179 
0.0594359 -0.0701717 0.995763 
0.05994 -0.0579586 0.996518 
0.0452441 -0.0402176 0.998166 
0.0478255 -0.0325361 0.998326 
0.0406897 -0.0229875 0.998907 
0.0335401 -0.0158118 0.999312 
0.0376316 -0.0109004 0.999232 
0.0318819 -0.00445851 0.999482 
0.0369111 -0.00136186 0.999318 
0.0342349 0.00471533 0.999403 
0.0315284 0.00958823 0.999457 
0.0394797 0.0154937 0.9991 
0.0376761 0.0219251 0.999049 
0.0465166 0.032335 0.998394 
0.0452994 0.0408096 0.99814 
0.0553188 0.0553068 0.996936 
0.0680211 0.0740339 0.994933 
0.0687722 0.0915124 0.993426 
0.0915881 0.125026 0.987917 
0.0989255 0.160024 0.982144 
0.123455 0.213121 0.969195 
0.151653 0.282284 0.947268 
0.182164 0.364599 0.913172 
0.216537 0.466272 0.857731 
0.256638 0.584343 0.769857 
0.29317 0.710925 0.639248 
0.320093 0.832629 0.451962 
0.2727 -0.850044 0.450621 
0.249562 -0.724735 0.642244 
0.215114 -0.595352 0.774133 
0.183748 -0.47687 0.859553 
0.153263 -0.37658 0.913618 
0.130857 -0.297114 0.945833 
0.112833 -0.234014 0.965664 
0.0876314 -0.18144 0.97949 
0.0855692 -0.149136 0.985107 
0.0623163 -0.110363 0.991936 
0.059533 -0.0871391 0.994416 
0.0462181 -0.063724 0.996897 
0.0444241 -0.0500297 0.997759 
0.0353248 -0.0363989 0.998713 
0.0357686 -0.0291074 0.998936 
0.0296596 -0.0200978 0.999358 
0.0256641 -0.0130837 0.999585 
0.0277254 -0.00950299 0.99957 
0.0233301 -0.00523415 0.999714 
0.026013 0.000400986 0.999662 
0.0252997 0.00305764 0.999675 
0.0235918 0.00774684 0.999692 
0.0298645 0.0137426 0.999459 
0.0267054 0.0185438 0.999471 
0.035364 0.027588 0.998994 
0.0337191 0.0352265 0.99881 
0.041884 0.0485144 0.997944 
0.0521187 0.0669177 0.996396 
0.0541732 0.0829311 0.995082 
0.0709431 0.114511 0.990886 
0.0726251 0.135639 0.988093 
0.0893509 0.175557 0.980406 
0.10921 0.22876 0.967338 
0.130932 0.297545 0.945687 
0.157324 0.376272 0.913055 
0.188042 0.484084 0.854578 
0.218955 0.597977 0.771026 
0.25193 0.727359 0.638341 
0.27209 0.848883 0.453171 
0.226843 -0.863275 0.450887 
0.208792 -0.737961 0.641732 
0.179988 -0.607274 0.773836 
0.151508 -0.484781 0.861413 
0.126598 -0.380104 0.916239 
0.10532 -0.293998 0.949986 
0.0905468 -0.227221 0.969625 
0.0688709 -0.174752 0.982201 
0.0643121 -0.135889 0.988634 
0.047689 -0.0994462 0.993899 
0.046877 -0.0793601 0.995743 
0.0332039 -0.0573003 0.997805 
0.0338282 -0.0454546 0.998393 
0.0252511 -0.0321689 0.999163 
0.0262966 -0.0242553 0.99936 
0.0217248 -0.0177141 0.999607 
0.0182222 -0.0125291 0.999755 
0.0203945 -0.00724117 0.999766 
0.0163224 -0.00350501 0.999861 
0.0203465 -0.00024803 0.999793 
0.0177721 0.00340934 0.999836 
0.0170545 0.00685289 0.999831 
0.0216616 0.0121033 0.999692 
0.0208586 0.0167494 0.999642 
0.0259685 0.0245167 0.999362 
0.0251866 0.0320864 0.999168 
0.0314792 0.0436597 0.99855 
0.0390203 0.0595595 0.997462 
0.0392636 0.0758868 0.996343 
0.0539056 0.102676 0.993253 
0.0578854 0.135346 0.989106 
0.0745339 0.180502 0.980747 
0.0953201 0.236566 0.966929 
0.105993 0.303176 0.947021 
0.136749 0.3923 0.909616 
0.153247 0.491104 0.857515 
0.183927 0.610418 0.770429 
0.208622 0.738671 0.64097 
0.2239 0.862141 0.454512 
0.178513 -0.873536 0.452845 
0.170714 -0.763686 0.622608 
0.147103 -0.635674 0.757812 
0.122581 -0.509078 0.851947 
0.103073 -0.39664 0.912169 
0.0851078 -0.302227 0.949429 
0.0707668 -0.226442 0.971451 
0.0520007 -0.164083 0.985075 
0.048858 -0.127546 0.990629 
0.0350896 -0.0940129 0.994952 
0.0338684 -0.0730274 0.996755 
0.0257863 -0.0528397 0.99827 
0.0250062 -0.0406193 0.998862 
0.0185072 -0.0291634 0.999403 
0.0194342 -0.0230268 0.999546 
0.0161611 -0.0156767 0.999746 
0.0127087 -0.00973595 0.999872 
0.0142903 -0.00777633 0.999868 
0.0125965 -0.00309874 0.999916 
0.0134648 -0.000781989 0.999909 
0.0123986 0.00306112 0.999918 
0.0130178 0.00580996 0.999898 
0.0147567 0.0100352 0.999841 
0.0143722 0.0148103 0.999787 
0.0186924 0.0219336 0.999585 
0.0181007 0.028257 0.999437 
0.0226037 0.0401709 0.998937 
0.0300066 0.0551126 0.998029 
0.0297745 0.0705698 0.997062 
0.0412407 0.098158 0.994316 
0.0430491 0.124383 0.9913 
0.0546944 0.166451 0.984532 
0.0724528 0.223973 0.971898 
0.0783508 0.284076 0.955595 
0.106276 0.376884 0.920143 
0.115373 0.479659 0.869837 
0.146312 0.609584 0.779102 
0.165748 0.743501 0.647869 
0.175968 0.872737 0.455374 
0.135059 -0.880825 0.45377 
0.123105 -0.728212 0.674205 
0.10018 -0.572645 0.813659 
0.0832264 -0.441327 0.893478 
0.0668243 -0.336404 0.939344 
0.0572468 -0.257127 0.964681 
0.0490977 -0.19951 0.978665 
0.034501 -0.153825 0.987496 
0.0355949 -0.121203 0.991989 
0.0249471 -0.0883732 0.995775 
0.0242441 -0.0679035 0.997397 
0.0167975 -0.0494644 0.998635 
0.0171571 -0.0385985 0.999107 
0.0129745 -0.0269041 0.999554 
0.0131452 -0.0204079 0.999705 
0.0103599 -0.0144055 0.999843 
0.00908384 -0.0104505 0.999904 
0.0102803 -0.00639124 0.999927 
0.00682195 -0.00344162 0.999971 
0.0101922 -0.000225116 0.999948 
0.0090536 0.00224071 0.999957 
0.00687653 0.00569642 0.99996 
0.0108359 0.0101178 0.99989 
0.00950141 0.0132384 0.999867 
0.0131631 0.0202843 0.999708 
0.0127075 0.0272304 0.999548 
0.0157092 0.0370117 0.999191 
0.0204751 0.0503367 0.998522 
0.0210778 0.0668332 0.997542 
0.0287262 0.0910518 0.995432 
0.0276322 0.118134 0.992613 
0.0403019 0.157649 0.986672 
0.0534477 0.211663 0.97588 
0.054474 0.273212 0.96041 
0.078831 0.36114 0.929174 
0.0810694 0.45652 0.886012 
0.104149 0.581499 0.806853 
0.121667 0.733745 0.668442 
0.131501 0.880592 0.455263 
0.087963 -0.886008 0.45525 
0.0865971 -0.769025 0.633326 
0.0731066 -0.629995 0.77315 
0.0582492 -0.489323 0.870155 
0.0482342 -0.371603 0.927138 
0.0404405 -0.278191 0.959674 
0.0333785 -0.205582 0.97807 
0.0225328 -0.15004 0.988423 
0.0234344 -0.113735 0.993235 
0.014228 -0.0844976 0.996322 
0.0165924 -0.0650093 0.997747 
0.0104056 -0.0472666 0.998828 
0.0119968 -0.035034 0.999314 
0.00698327 -0.0260702 0.999636 
0.00930125 -0.0190532 0.999775 
0.00711831 -0.0132302 0.999887 
0.00496471 -0.0089731 0.999947 
0.00664877 -0.00523157 0.999964 
0.00599498 -0.00318562 0.999977 
0.00577556 0.0001346 0.999983 
0.00566861 0.00223419 0.999981 
0.00551889 0.00502293 0.999972 
0.00755509 0.00813713 0.999938 
0.00600747 0.0134586 0.999891 
0.00852238 0.0183663 0.999795 
0.00651813 0.0251133 0.999663 
0.010816 0.0348589 0.999334 
0.0137321 0.0488072 0.998714 
0.0113389 0.0626986 0.997968 
0.0201868 0.0864951 0.996048 
0.0179006 0.113258 0.993404 
0.0250423 0.152781 0.987943 
0.0353253 0.202706 0.978602 
0.033843 0.266508 0.963238 
0.0524943 0.354058 0.933749 
0.0528465 0.468262 0.882008 
0.072196 0.613229 0.786599 
0.0833237 0.760254 0.64426 
0.0852465 0.886018 0.455746 
0.0450944 -0.889397 0.454905 
0.0415583 -0.725658 0.686799 
0.0337343 -0.563395 0.825499 
0.0279709 -0.427609 0.903531 
0.021578 -0.320912 0.946863 
0.0190489 -0.243432 0.969731 
0.016614 -0.18798 0.982032 
0.00924722 -0.145909 0.989255 
0.0128301 -0.111984 0.993627 
0.00715807 -0.0829997 0.996524 
0.00895986 -0.0619927 0.998036 
0.00471433 -0.0458466 0.998937 
0.00619096 -0.0349311 0.999371 
0.00409246 -0.0242723 0.999697 
0.00458077 -0.0184262 0.99982 
0.00307666 -0.013097 0.999909 
0.00272716 -0.00828516 0.999962 
0.00286254 -0.00628496 0.999976 
0.00132194 -0.00186053 0.999997 
0.00364923 -0.000722936 0.999993 
0.00209413 0.00256628 0.999995 
0.0021654 0.00488382 0.999986 
0.00267134 0.00878894 0.999958 
0.0022759 0.0116303 0.99993 
0.0050536 0.0180275 0.999825 
0.00364917 0.0251039 0.999678 
0.00426673 0.0336365 0.999425 
0.00786491 0.0457733 0.998921 
0.00628814 0.0624339 0.998029 
0.00998178 0.0844031 0.996382 
0.00720808 0.111365 0.993753 
0.0118103 0.149055 0.988758 
0.0208666 0.199486 0.979679 
0.01454 0.262937 0.964703 
0.030113 0.348593 0.93679 
0.0227084 0.445095 0.895195 
0.0329879 0.569012 0.821667 
0.0400255 0.725222 0.68735 
0.0424455 0.88969 0.454588 
0.00245722 -0.891536 0.452943 
0.00238946 -0.774258 0.632865 
0.00212571 -0.628564 0.777755 
0.000738735 -0.485338 0.874326 
0.000984475 -0.365122 0.930959 
0.00104079 -0.271069 0.962559 
0.00230224 -0.199513 0.979892 
-0.002872 -0.147191 0.989104 
0.00167149 -0.109536 0.993981 
-0.00146834 -0.0825282 0.996588 
0.00084157 -0.0620382 0.998073 
-0.000499652 -0.0460157 0.998941 
0.00097878 -0.033141 0.99945 
-0.000950127 -0.0255789 0.999672 
0.00143136 -0.0174354 0.999847 
0.00032467 -0.012882 0.999917 
-0.000870588 -0.00894372 0.99996 
0.00170332 -0.00558107 0.999983 
8.50918e-05 -0.00326729 0.999995 
0.00105591 -0.000515074 0.999999 
0.000664192 0.00222259 0.999997 
-0.000941791 0.00484947 0.999988 
0.00178164 0.00788929 0.999967 
-3.54784e-05 0.0129544 0.999916 
0.000264691 0.0172563 0.999851 
-0.000691517 0.0238379 0.999716 
-5.92864e-05 0.0337317 0.999431 
0.00132933 0.0460007 0.998941 
-0.00175324 0.0609083 0.998142 
0.00120317 0.0824223 0.996597 
-0.00319451 0.112047 0.993698 
-0.00013842 0.147341 0.989086 
0.00454339 0.197344 0.980324 
-0.00415933 0.260818 0.965379 
0.00589174 0.346609 0.937991 
-0.00389912 0.463093 0.886301 
0.000612847 0.614356 0.789029 
-0.00102004 0.767298 0.641289 
0.000883484 0.892184 0.451672 
-0.0403328 -0.888983 0.45616 
-0.0384771 -0.724473 0.688229 
-0.0308631 -0.564724 0.824702 
-0.0243111 -0.427939 0.903481 
-0.0212376 -0.322545 0.946316 
-0.0160412 -0.243329 0.969811 
-0.0131405 -0.188901 0.981908 
-0.0157449 -0.148661 0.988763 
-0.00700572 -0.111513 0.993738 
-0.0110452 -0.0841823 0.996389 
-0.00437114 -0.0615501 0.998094 
-0.00784177 -0.0460821 0.998907 
-0.00356692 -0.0342458 0.999407 
-0.00457582 -0.0240636 0.9997 
-0.0028504 -0.0180987 0.999832 
-0.00265952 -0.0123368 0.99992 
-0.00321311 -0.00915258 0.999953 
-0.00295074 -0.00467351 0.999985 
-0.00247065 -0.0031726 0.999992 
-0.00225193 0.000557203 0.999997 
-0.0021922 0.00189608 0.999996 
-0.003119 0.00546879 0.99998 
-0.0031308 0.00856472 0.999958 
-0.00421298 0.0118165 0.999921 
-0.00289291 0.0182494 0.999829 
-0.00616392 0.0252725 0.999662 
-0.0045222 0.0339459 0.999413 
-0.00402265 0.0450704 0.998976 
-0.00915064 0.0634798 0.997941 
-0.00539626 0.0832501 0.996514 
-0.0142167 0.111899 0.993618 
-0.0121209 0.149386 0.988705 
-0.0102417 0.19817 0.980114 
-0.0223346 0.264615 0.964095 