# vtk DataFile Version 3.0 
Exported using Morpho https://github.com/Morpho-lang/morpho 
ASCII 
DATASET UNSTRUCTURED_GRID 

POINTS 1245 float 
-0.304038 -0.95266 0 
-0.251441 -0.967873 0 
-0.196599 -0.980484 0 
-0.147939 -0.988996 0 
-0.096254 -0.995357 0 
-0.0483601 -0.99883 0 
-0.000451504 -1 0 
0.0482414 -0.998836 0 
0.0956209 -0.995418 0 
0.145924 -0.989296 0 
0.198694 -0.980062 0 
0.248343 -0.968672 0 
0.30399 -0.952675 0 
-0.409672 -0.912233 0 
-0.356859 -0.934158 0 
-0.307625 -0.898571 0 
-0.256611 -0.914841 0 
-0.205389 -0.933372 0 
-0.153069 -0.927934 0 
-0.102396 -0.94791 0 
-0.0498583 -0.935106 0 
0.00142854 -0.953377 0 
0.052561 -0.9331 0 
0.104134 -0.942389 0 
0.156872 -0.938823 0 
0.206982 -0.919507 0 
0.258749 -0.920951 0 
0.310446 -0.900065 0 
0.357716 -0.93383 0 
0.410714 -0.911764 0 
-0.51437 -0.857568 0 
-0.462407 -0.886668 0 
-0.411015 -0.857376 0 
-0.359501 -0.879663 0 
-0.305707 -0.84665 0 
-0.253622 -0.86425 0 
-0.200473 -0.885626 0 
-0.148805 -0.868805 0 
-0.0992128 -0.89633 0 
-0.0484472 -0.873916 0 
0.00154915 -0.899374 0 
0.0506565 -0.870008 0 
0.099584 -0.888189 0 
0.15259 -0.889657 0 
0.203706 -0.862941 0 
0.255384 -0.874358 0 
0.307954 -0.849391 0 
0.361689 -0.879386 0 
0.412615 -0.856642 0 
0.46325 -0.886228 0 
0.514942 -0.857225 0 
-0.565364 -0.824841 0 
-0.512807 -0.802464 0 
-0.462454 -0.831649 0 
-0.409305 -0.803744 0 
-0.35814 -0.826779 0 
-0.304287 -0.794815 0 
-0.252533 -0.812725 0 
-0.199644 -0.834469 0 
-0.148659 -0.811689 0 
-0.0980329 -0.840437 0 
-0.0486484 -0.814709 0 
0.00110327 -0.841666 0 
0.0507222 -0.810511 0 
0.10012 -0.830521 0 
0.151601 -0.838979 0 
0.201398 -0.807576 0 
0.253879 -0.824556 0 
0.305585 -0.798078 0 
0.359663 -0.826545 0 
0.410331 -0.802786 0 
0.463256 -0.830671 0 
0.513382 -0.802055 0 
0.565855 -0.824505 0 
-0.661127 -0.750274 0 
-0.614521 -0.7889 0 
-0.561833 -0.769262 0 
-0.50964 -0.747742 0 
-0.460175 -0.777438 0 
-0.407225 -0.750461 0 
-0.356449 -0.774194 0 
-0.303021 -0.743169 0 
-0.251726 -0.760737 0 
-0.199698 -0.781574 0 
-0.149469 -0.755674 0 
-0.0987361 -0.784111 0 
-0.0495663 -0.757521 0 
0.00074427 -0.784506 0 
0.0499021 -0.753017 0 
0.0986422 -0.771593 0 
0.148465 -0.786798 0 
0.198905 -0.753762 0 
0.25178 -0.773224 0 
0.303018 -0.746409 0 
0.356897 -0.773838 0 
0.407278 -0.749476 0 
0.460508 -0.775969 0 
0.509912 -0.747635 0 
0.562265 -0.768427 0 
0.614899 -0.788606 0 
0.660916 -0.75046 0 
-0.707137 -0.707076 0 
-0.654232 -0.698242 0 
-0.60786 -0.732501 0 
-0.557385 -0.712939 0 
-0.507468 -0.693124 0 
-0.457791 -0.723521 0 
-0.40534 -0.697562 0 
-0.354815 -0.72183 0 
-0.302133 -0.691777 0 
-0.251077 -0.708675 0 
-0.199931 -0.727612 0 
-0.150301 -0.700335 0 
-0.0999236 -0.728385 0 
-0.051087 -0.701823 0 
-0.000421628 -0.728505 0 
0.0495464 -0.698598 0 
0.0984035 -0.713168 0 
0.147599 -0.732599 0 
0.197896 -0.700126 0 
0.250029 -0.721435 0 
0.301757 -0.694342 0 
0.353927 -0.721143 0 
0.403704 -0.696683 0 
0.456847 -0.721566 0 
0.505628 -0.694419 0 
0.557407 -0.711375 0 
0.607266 -0.730582 0 
0.652491 -0.698197 0 
0.706565 -0.707648 0 
-0.750394 -0.660991 0 
-0.698464 -0.654201 0 
-0.647093 -0.646808 0 
-0.60217 -0.67432 0 
-0.556909 -0.655804 0 
-0.506644 -0.64072 0 
-0.455848 -0.670392 0 
-0.404184 -0.645105 0 
-0.353627 -0.669626 0 
-0.301541 -0.640968 0 
-0.250517 -0.65732 0 
-0.200181 -0.673083 0 
-0.151003 -0.645606 0 
-0.100944 -0.673231 0 
-0.0519388 -0.647066 0 
-0.00212132 -0.674276 0 
0.047866 -0.647977 0 
0.0973944 -0.654915 0 
0.14682 -0.677634 0 
0.197663 -0.647208 0 
0.249531 -0.669554 0 
0.301392 -0.642514 0 
0.353151 -0.66764 0 
0.404352 -0.642769 0 
0.451679 -0.667224 0 
0.497353 -0.643748 0 
0.550472 -0.654874 0 
0.599514 -0.669274 0 
0.647435 -0.648156 0 
0.698584 -0.655155 0 
0.750179 -0.661235 0 
-0.789039 -0.614343 0 
-0.732835 -0.607626 0 
-0.675089 -0.602016 0 
-0.61271 -0.611831 0 
-0.56007 -0.604859 0 
-0.506586 -0.591159 0 
-0.4548 -0.618267 0 
-0.402585 -0.593363 0 
-0.352885 -0.617892 0 
-0.301898 -0.590774 0 
-0.249931 -0.607445 0 
-0.20047 -0.618026 0 
-0.152094 -0.591572 0 
-0.101636 -0.618979 0 
-0.0515543 -0.593574 0 
-0.00244032 -0.620678 0 
0.0493493 -0.600163 0 
0.0984462 -0.59791 0 
0.147214 -0.623273 0 
0.19846 -0.594491 0 
0.248849 -0.617954 0 
0.29924 -0.591281 0 
0.352315 -0.614754 0 
0.403831 -0.593284 0 
0.455787 -0.608592 0 
0.520167 -0.601585 0 
0.571237 -0.605653 0 
0.620059 -0.607814 0 
0.678676 -0.602486 0 
0.734122 -0.607948 0 
0.789144 -0.614208 0 
-0.824938 -0.565223 0 
-0.769277 -0.561556 0 
-0.712842 -0.556856 0 
-0.655558 -0.556882 0 
-0.604723 -0.559782 0 
-0.552376 -0.552301 0 
-0.499741 -0.541558 0 
-0.452146 -0.567692 0 
-0.399788 -0.54198 0 
-0.351333 -0.566006 0 
-0.301369 -0.539423 0 
-0.251944 -0.559984 0 
-0.202344 -0.562389 0 
-0.151729 -0.539373 0 
-0.101412 -0.56624 0 
-0.0504147 -0.541753 0 
-0.000400428 -0.568612 0 
0.0512066 -0.551572 0 
0.100052 -0.542814 0 
0.148635 -0.569469 0 
0.199383 -0.542248 0 
0.24951 -0.565612 0 
0.300492 -0.537743 0 
0.346797 -0.563054 0 
0.392054 -0.54738 0 
0.444834 -0.550376 0 
0.492055 -0.564982 0 
0.548979 -0.550909 0 
0.602765 -0.5553 0 
0.655752 -0.556591 0 
0.713249 -0.556635 0 
0.769373 -0.561367 0 
0.824922 -0.565247 0 
-0.857615 -0.514292 0 
-0.802388 -0.512635 0 
-0.747487 -0.509447 0 
-0.692481 -0.506961 0 
-0.640359 -0.506188 0 
-0.590701 -0.507101 0 
-0.539866 -0.49886 0 
-0.492526 -0.491066 0 
-0.44688 -0.51632 0 
-0.399236 -0.489206 0 
-0.350286 -0.513725 0 
-0.298979 -0.489497 0 
-0.247977 -0.513509 0 
-0.199703 -0.507566 0 
-0.150161 -0.487331 0 
-0.10059 -0.514616 0 
-0.049804 -0.490619 0 
0.000625811 -0.517509 0 
0.0508042 -0.501589 0 
0.0999639 -0.489781 0 
0.149517 -0.516323 0 
0.199861 -0.49053 0 
0.249857 -0.513971 0 
0.301105 -0.486926 0 
0.350992 -0.50621 0 
0.406179 -0.503633 0 
0.453702 -0.495579 0 
0.499381 -0.517896 0 
0.54509 -0.495628 0 
0.589875 -0.502992 0 
0.639769 -0.505125 0 
0.692133 -0.507178 0 
0.747231 -0.509351 0 
0.802239 -0.512834 0 
0.8575 -0.514485 0 
-0.886692 -0.462362 0 
-0.831447 -0.46229 0 
-0.776968 -0.459992 0 
-0.722557 -0.457864 0 
-0.668309 -0.454847 0 
-0.615699 -0.454692 0 
-0.563442 -0.455041 0 
-0.504959 -0.444494 0 
-0.448651 -0.462232 0 
-0.399535 -0.438236 0 
-0.349128 -0.46264 0 
-0.299137 -0.439068 0 
-0.248305 -0.464591 0 
-0.199624 -0.454437 0 
-0.150124 -0.436363 0 
-0.0998408 -0.463181 0 
-0.0495775 -0.439683 0 
0.000657363 -0.466432 0 
0.050398 -0.45109 0 
0.0997795 -0.438004 0 
0.14961 -0.46426 0 
0.20006 -0.439543 0 
0.250155 -0.462985 0 
0.300624 -0.436016 0 
0.349741 -0.453489 0 
0.398431 -0.460711 0 
0.448861 -0.444362 0 
0.501772 -0.463516 0 
0.556306 -0.446047 0 
0.610655 -0.453181 0 
0.665731 -0.455702 0 
0.720992 -0.458228 0 
0.776173 -0.460571 0 
0.831102 -0.462917 0 
0.886543 -0.462645 0 
-0.912236 -0.409665 0 
-0.857204 -0.410967 0 
-0.803392 -0.409217 0 
-0.74994 -0.407407 0 
-0.696663 -0.406178 0 
-0.642836 -0.402615 0 
-0.594083 -0.40314 0 
-0.543712 -0.409305 0 
-0.498184 -0.388941 0 
-0.452699 -0.414143 0 
-0.401283 -0.388854 0 
-0.349739 -0.411899 0 
-0.299455 -0.388886 0 
-0.248771 -0.414704 0 
-0.199804 -0.40237 0 
-0.150194 -0.385975 0 
-0.0998826 -0.412316 0 
-0.0496331 -0.389139 0 
0.000643541 -0.415495 0 
0.0502079 -0.40057 0 
0.099715 -0.387048 0 
0.149647 -0.41299 0 
0.200027 -0.388895 0 
0.250027 -0.412129 0 
0.301055 -0.385878 0 
0.350404 -0.401986 0 
0.40041 -0.412751 0 
0.450882 -0.391618 0 
0.499731 -0.416383 0 
0.544034 -0.393568 0 
0.59137 -0.399783 0 
0.642288 -0.404278 0 
0.695365 -0.407079 0 
0.749328 -0.408637 0 
0.803118 -0.410657 0 
0.857365 -0.412146 0 
0.912211 -0.40972 0 
-0.934162 -0.35685 0 
-0.879422 -0.35942 0 
-0.826293 -0.357958 0 
-0.773333 -0.356351 0 
-0.720158 -0.355668 0 
-0.665775 -0.356607 0 
-0.607138 -0.350008 0 
-0.553621 -0.361137 0 
-0.5022 -0.339404 0 
-0.449669 -0.361737 0 
-0.400008 -0.33791 0 
-0.350294 -0.361968 0 
-0.299735 -0.338845 0 
-0.249149 -0.364486 0 
-0.19989 -0.351123 0 
-0.150231 -0.335907 0 
-0.0999158 -0.361809 0 
-0.0496591 -0.338853 0 
0.000579022 -0.364807 0 
0.0501213 -0.350175 0 
0.0996736 -0.336536 0 
0.149689 -0.362171 0 
0.200173 -0.338592 0 
0.250216 -0.361805 0 
0.300977 -0.33584 0 
0.350317 -0.350432 0 
0.400031 -0.363711 0 
0.449445 -0.340113 0 
0.500426 -0.362497 0 
0.556035 -0.344079 0 
0.610296 -0.352686 0 
0.6665 -0.355417 0 
0.719677 -0.357923 0 
0.773735 -0.358184 0 
0.826983 -0.360351 0 
0.879942 -0.360326 0 
0.934344 -0.356372 0 
-0.952661 -0.304036 0 
-0.898427 -0.307629 0 
-0.846493 -0.305546 0 
-0.794931 -0.304029 0 
-0.743864 -0.303138 0 
-0.693611 -0.30459 0 
-0.643467 -0.30958 0 
-0.599353 -0.290969 0 
-0.55443 -0.313997 0 
-0.503336 -0.288984 0 
-0.45199 -0.311834 0 
-0.401101 -0.288191 0 
-0.349902 -0.311422 0 
-0.299643 -0.288622 0 
-0.249349 -0.314247 0 
-0.199915 -0.300435 0 
-0.150269 -0.285978 0 
-0.0999683 -0.311532 0 
-0.0497289 -0.288717 0 
0.000527779 -0.314369 0 
0.0500741 -0.299964 0 
0.0996409 -0.286337 0 
0.149787 -0.311716 0 
0.200238 -0.28842 0 
0.250326 -0.311555 0 
0.301235 -0.286006 0 
0.350591 -0.299681 0 
0.400449 -0.31341 0 
0.451856 -0.289027 0 
0.501314 -0.314699 0 
0.544921 -0.289691 0 
0.590901 -0.297941 0 
0.640135 -0.307218 0 
0.69435 -0.304347 0 
0.742809 -0.307966 0 
0.7979 -0.307375 0 
0.847482 -0.307936 0 
0.899876 -0.308548 0 
0.953167 -0.302446 0 
-0.967863 -0.251479 0 
-0.914487 -0.256648 0 
-0.863556 -0.253418 0 
-0.811732 -0.251971 0 
-0.759393 -0.251316 0 
-0.706493 -0.252194 0 
-0.653718 -0.258815 0 
-0.607533 -0.238533 0 
-0.553063 -0.261024 0 
-0.502377 -0.238056 0 
-0.452064 -0.261845 0 
-0.401205 -0.238175 0 
-0.350516 -0.261491 0 
-0.299965 -0.238667 0 
-0.249417 -0.263974 0 
-0.199916 -0.250071 0 
-0.150304 -0.236053 0 
-0.100036 -0.261399 0 
-0.0497663 -0.238671 0 
0.000445464 -0.264099 0 
0.0500404 -0.249853 0 
0.0996125 -0.23625 0 
0.149834 -0.261487 0 
0.200323 -0.238399 0 
0.25055 -0.261503 0 
0.301452 -0.23621 0 
0.351157 -0.249436 0 
0.401482 -0.263625 0 
0.451962 -0.237781 0 
0.501557 -0.260261 0 
[...]
POINT_DATA 1245 
VECTORS vectors float
0.861048 -0.276887 0.426532 
0.874633 -0.229921 0.426796 
0.88536 -0.180366 0.428492 
0.893051 -0.135845 0.42896 
0.899614 -0.0893276 0.427451 
0.900258 -0.0456953 0.432953 
0.903309 -0.00104643 0.42899 
0.901193 0.0427972 0.431301 
0.897438 0.0863834 0.4326 
0.892572 0.133016 0.430838 
0.884581 0.180886 0.429879 
0.874479 0.225783 0.429312 
0.860463 0.276003 0.428283 
0.825013 -0.371623 0.425735 
0.844508 -0.324319 0.426174 
0.741746 -0.256129 0.619847 
0.75532 -0.214009 0.619428 
0.780259 -0.174331 0.60067 
0.747468 -0.125658 0.652305 
0.787138 -0.0877442 0.610503 
0.745331 -0.040777 0.665447 
0.791348 -0.000539711 0.611366 
0.738891 0.041628 0.672537 
0.772542 0.0862613 0.629077 
0.777433 0.13076 0.615224 
0.743761 0.168653 0.646819 
0.771146 0.218574 0.597962 
0.745932 0.257712 0.614141 
0.843575 0.324181 0.428122 
0.823605 0.371954 0.428165 
0.775986 -0.465367 0.42577 
0.802173 -0.418791 0.425597 
0.709619 -0.341341 0.616383 
0.727147 -0.298258 0.618304 
0.614599 -0.223346 0.756561 
0.628555 -0.186352 0.75511 
0.657418 -0.151737 0.73809 
0.595486 -0.103788 0.796633 
0.652393 -0.0744402 0.754216 
0.587407 -0.0341049 0.808573 
0.649032 0.00034514 0.760761 
0.57752 0.0333415 0.815695 
0.630649 0.0708964 0.772823 
0.648534 0.112296 0.752856 
0.600617 0.142536 0.78673 
0.65287 0.191837 0.732775 
0.621604 0.227091 0.749692 
0.726053 0.300304 0.618599 
0.70816 0.341582 0.617925 
0.80051 0.41945 0.428072 
0.774449 0.465963 0.427911 
0.746452 -0.511048 0.426192 
0.667131 -0.425794 0.611257 
0.689922 -0.383796 0.613766 
0.587733 -0.299341 0.751641 
0.602308 -0.262404 0.753903 
0.497107 -0.191517 0.84629 
0.50785 -0.159819 0.846491 
0.532148 -0.128818 0.836794 
0.465246 -0.0876091 0.880835 
0.515163 -0.0613994 0.85489 
0.45185 -0.0284887 0.891639 
0.507947 -9.26948e-05 0.861388 
0.442944 0.0271851 0.896137 
0.492721 0.0595317 0.868149 
0.525045 0.0957264 0.845674 
0.472984 0.119297 0.872957 
0.533322 0.16506 0.829652 
0.502931 0.193224 0.842451 
0.601932 0.261993 0.754346 
0.583473 0.300015 0.754685 
0.686907 0.383814 0.617127 
0.664771 0.426709 0.613187 
0.744832 0.511948 0.427942 
0.678835 -0.597583 0.426704 
0.713889 -0.555362 0.426539 
0.639714 -0.466833 0.6106 
0.550888 -0.37512 0.745525 
0.570475 -0.338081 0.748505 
0.473277 -0.257671 0.842386 
0.486011 -0.224376 0.844659 
0.394965 -0.162095 0.904283 
0.402202 -0.134255 0.905654 
0.42132 -0.108993 0.900339 
0.357854 -0.0717346 0.931018 
0.398608 -0.0512697 0.915687 
0.344806 -0.0234454 0.938381 
0.390382 -4.04428e-05 0.920653 
0.337345 0.0218095 0.941129 
0.374804 0.0484527 0.925837 
0.413887 0.0775962 0.907015 
0.368011 0.0972921 0.924717 
0.425404 0.138886 0.894283 
0.399679 0.163045 0.902038 
0.483969 0.22439 0.845827 
0.471097 0.256021 0.844109 
0.566503 0.336539 0.752208 
0.549461 0.375421 0.746426 
0.637044 0.466801 0.61341 
0.712305 0.556405 0.427826 
0.677795 0.598285 0.427375 
0.63963 -0.639157 0.427026 
0.586032 -0.548483 0.596434 
0.608012 -0.503998 0.613439 
0.52535 -0.40999 0.745598 
0.44522 -0.325791 0.83405 
0.460731 -0.290984 0.838484 
0.376823 -0.218853 0.90006 
0.386664 -0.190766 0.902274 
0.311551 -0.136805 0.94033 
0.3156 -0.1125 0.9422 
0.326776 -0.0915022 0.940662 
0.274904 -0.0599223 0.959602 
0.305008 -0.0432684 0.951366 
0.262597 -0.019832 0.964702 
0.297334 -0.000911488 0.954773 
0.257697 0.0180325 0.966057 
0.282544 0.0384999 0.958481 
0.319881 0.0654007 0.945198 
0.28579 0.080817 0.954878 
0.33325 0.116686 0.93559 
0.314315 0.136789 0.939412 
0.3831 0.188586 0.904251 
0.372283 0.216439 0.902529 
0.453683 0.288759 0.843084 
0.444852 0.324333 0.834814 
0.520982 0.409124 0.74913 
0.602029 0.502281 0.620706 
0.583398 0.545873 0.601389 
0.639129 0.639703 0.426958 
0.597876 -0.678309 0.427131 
0.54923 -0.585659 0.596113 
0.490012 -0.489862 0.721057 
0.495486 -0.442273 0.747588 
0.422683 -0.358416 0.832392 
0.357635 -0.282185 0.890207 
0.366123 -0.249001 0.896634 
0.297494 -0.186669 0.936297 
0.303451 -0.160526 0.939228 
0.244553 -0.11556 0.962725 
0.246374 -0.0947885 0.964528 
0.250871 -0.0751827 0.965097 
0.208956 -0.0498669 0.976653 
0.232197 -0.0354951 0.972021 
0.199284 -0.0166107 0.979801 
0.227234 -0.0013101 0.973839 
0.200034 0.0149134 0.979675 
0.210952 0.0310557 0.977003 
0.243772 0.0524206 0.968415 
0.219284 0.0677675 0.973305 
0.260084 0.0963994 0.960762 
0.245035 0.115706 0.962585 
0.30023 0.159438 0.940447 
0.292972 0.185007 0.938051 
0.357952 0.242481 0.901706 
0.354607 0.27462 0.893777 
0.413775 0.349552 0.840598 
0.482668 0.43271 0.761442 
0.491669 0.493416 0.717497 
0.54999 0.587458 0.593636 
0.597601 0.67896 0.426481 
0.555417 -0.713413 0.427262 
0.50397 -0.607754 0.613717 
0.442995 -0.49641 0.746548 
0.400974 -0.400958 0.823683 
0.345846 -0.320011 0.882034 
0.289065 -0.247365 0.924798 
0.291454 -0.214348 0.932261 
0.23284 -0.157828 0.959623 
0.239169 -0.137033 0.96126 
0.191979 -0.0981646 0.976477 
0.192647 -0.0798903 0.978011 
0.191466 -0.0627871 0.979489 
0.159579 -0.0414758 0.986313 
0.176804 -0.0297773 0.983796 
0.151857 -0.013742 0.988307 
0.172678 -0.00131167 0.984977 
0.156973 0.0120034 0.98753 
0.157505 0.0259687 0.987177 
0.186375 0.044214 0.981483 
0.169021 0.0554944 0.984049 
0.20261 0.0824037 0.975786 
0.191192 0.096732 0.976775 
0.233916 0.133822 0.963003 
0.233188 0.158924 0.959357 
0.277998 0.20893 0.937585 
0.31111 0.269636 0.911322 
0.355677 0.335671 0.872249 
0.400472 0.410019 0.819455 
0.447191 0.503402 0.739328 
0.505355 0.611491 0.608847 
0.555238 0.714127 0.426301 
0.510786 -0.746094 0.427131 
0.466417 -0.638757 0.611919 
0.409293 -0.524157 0.746819 
0.358141 -0.421348 0.833187 
0.319775 -0.345392 0.882297 
0.272328 -0.272053 0.922943 
0.228456 -0.210941 0.950427 
0.230522 -0.183059 0.955693 
0.183086 -0.135349 0.973735 
0.185493 -0.115192 0.97587 
0.149325 -0.0842815 0.98519 
0.153136 -0.0691467 0.985783 
0.144363 -0.0524836 0.988132 
0.121909 -0.0348661 0.991929 
0.134519 -0.0245428 0.990607 
0.115631 -0.0113534 0.993227 
0.131951 -0.000193731 0.991256 
0.121781 0.0108695 0.992497 
0.118944 0.0218937 0.99266 
0.141462 0.0366592 0.989265 
0.129947 0.0487374 0.990322 
0.155575 0.0684257 0.985451 
0.147039 0.0817892 0.985743 
0.180777 0.112458 0.977074 
0.1839 0.131889 0.974056 
0.208266 0.16884 0.963389 
0.24885 0.21704 0.943911 
0.267143 0.267419 0.925809 
0.31256 0.339342 0.887217 
0.35766 0.42264 0.832739 
0.409104 0.525591 0.745914 
0.466686 0.639061 0.611396 
0.511179 0.74637 0.426178 
0.464825 -0.775756 0.426779 
0.425197 -0.666097 0.612798 
0.374215 -0.550054 0.746595 
0.324484 -0.442776 0.835859 
0.281386 -0.356537 0.890901 
0.247555 -0.288605 0.924891 
0.209189 -0.225905 0.951424 
0.17916 -0.179362 0.967332 
0.179247 -0.155427 0.971449 
0.141811 -0.115434 0.98314 
0.144088 -0.0981439 0.984686 
0.115822 -0.070558 0.990761 
0.120544 -0.0582834 0.990996 
0.108932 -0.0433678 0.993103 
0.0928449 -0.0288573 0.995262 
0.103065 -0.0204953 0.994463 
0.0881927 -0.00925316 0.99606 
0.101455 -0.000404775 0.99484 
0.0931458 0.00937263 0.995608 
0.0902727 0.0176898 0.99576 
0.107538 0.030921 0.99372 
0.0996312 0.0394843 0.994241 
0.120629 0.0588589 0.990951 
0.11454 0.0715345 0.99084 
0.138342 0.0956229 0.985757 
0.154018 0.124107 0.980243 
0.165245 0.152107 0.974452 
0.204972 0.197792 0.958574 
0.208804 0.230171 0.950485 
0.242831 0.284972 0.927267 
0.279277 0.355279 0.892066 
0.325063 0.442295 0.835888 
0.374061 0.549886 0.746796 
0.425938 0.666236 0.612133 
0.465793 0.775523 0.426148 
0.417964 -0.802088 0.426568 
0.382804 -0.689029 0.615386 
0.336937 -0.569163 0.750018 
0.290006 -0.457747 0.840455 
0.246067 -0.362933 0.898739 
0.212849 -0.286804 0.934044 
0.183175 -0.227479 0.9564 
0.148503 -0.16905 0.974356 
0.140794 -0.13623 0.980621 
0.110689 -0.101155 0.988694 
0.111793 -0.084784 0.990108 
0.0902357 -0.0616078 0.994013 
0.0933927 -0.0505842 0.994344 
0.0828455 -0.0366044 0.99589 
0.0709666 -0.0246244 0.997175 
0.0781977 -0.0174605 0.996785 
0.0673997 -0.00768759 0.997696 
0.0766839 -0.000419727 0.997055 
0.0715106 0.00793559 0.997408 
0.0681778 0.015333 0.997555 
0.0818512 0.0268532 0.996283 
0.0762612 0.0351665 0.996468 
0.0926874 0.049965 0.994441 
0.0882961 0.0600703 0.994281 
0.106503 0.0826278 0.990873 
0.123021 0.106875 0.986632 
0.128617 0.129868 0.983154 
0.160994 0.174542 0.971399 
0.172333 0.215262 0.96123 
0.207795 0.280159 0.937194 
0.245801 0.359127 0.900338 
0.289135 0.4559 0.841758 
0.338005 0.567396 0.750876 
0.38375 0.688818 0.615033 
0.419222 0.801586 0.426278 
0.370572 -0.825141 0.426401 
0.340418 -0.709346 0.617206 
0.297961 -0.586173 0.753406 
0.257102 -0.472951 0.842743 
0.218487 -0.375094 0.90087 
0.184024 -0.292912 0.938263 
0.158037 -0.234626 0.959153 
0.141905 -0.187914 0.97188 
0.11336 -0.144642 0.982969 
0.112363 -0.12317 0.986004 
0.0878323 -0.0903478 0.99203 
0.0873287 -0.0740616 0.993423 
0.0691605 -0.0534413 0.996173 
0.0726131 -0.0435657 0.996408 
0.0630686 -0.0313143 0.997518 
0.0537172 -0.0215041 0.998325 
0.0595553 -0.0146419 0.998118 
0.0509613 -0.00696585 0.998676 
0.0582589 -0.000353744 0.998301 
0.0546076 0.00614901 0.998489 
0.0512016 0.0135413 0.998597 
0.0625273 0.0216286 0.997809 
0.0583132 0.0297706 0.997854 
0.071403 0.0432859 0.996508 
0.0683997 0.0540603 0.996192 
0.0826144 0.071744 0.993996 
0.0978043 0.0947648 0.990684 
0.100284 0.115566 0.988224 
0.128999 0.154974 0.97946 
0.131721 0.181852 0.974464 
0.155116 0.229818 0.960793 
0.184529 0.29307 0.938115 
0.219421 0.37368 0.901231 
0.257652 0.472054 0.843078 
0.300487 0.586768 0.751938 
0.342584 0.709741 0.615551 
0.37154 0.82456 0.426683 
0.323226 -0.844899 0.426229 
0.296952 -0.726687 0.619472 
0.260889 -0.601252 0.75527 
0.223262 -0.484099 0.846051 
0.189661 -0.383949 0.903666 
0.160717 -0.300274 0.940216 
0.129926 -0.225097 0.965635 
0.116728 -0.177757 0.977127 
0.0894476 -0.133512 0.987002 
0.0864103 -0.107422 0.990451 
0.0675291 -0.08006 0.9945 
0.0671118 -0.06507 0.995621 
0.0540967 -0.0478883 0.997387 
0.0555598 -0.0383216 0.99772 
0.0474098 -0.0274716 0.998498 
0.0413913 -0.0183152 0.998975 
0.0450997 -0.0126072 0.998903 
0.0382856 -0.00628061 0.999247 
0.0438261 0.000472096 0.999039 
0.0406773 0.00539299 0.999158 
0.0394772 0.0109626 0.99916 
0.0474221 0.0197122 0.99868 
0.0440599 0.0258962 0.998693 
0.0548415 0.0374831 0.997791 
0.0524887 0.0466366 0.997532 
0.0634089 0.063255 0.995981 
0.0765824 0.0847324 0.993456 
0.0780365 0.102698 0.991647 
0.099657 0.138513 0.985334 
0.107862 0.173988 0.978823 
0.133013 0.229949 0.96407 
0.160162 0.300522 0.940231 
0.191465 0.384043 0.903245 
0.225989 0.485716 0.844398 
0.263879 0.603765 0.752221 
0.299332 0.727811 0.617002 
0.323563 0.844266 0.427225 
0.275822 -0.861604 0.4261 
0.254479 -0.741789 0.620475 
0.222868 -0.614779 0.756556 
0.189996 -0.497233 0.846558 
0.162354 -0.396727 0.903465 
0.1385 -0.315232 0.938854 
0.1208 -0.251047 0.960408 
0.0960445 -0.196741 0.97574 
0.0924217 -0.164318 0.982068 
0.0706441 -0.121511 0.990073 
0.0684951 -0.0986212 0.992765 
0.0516694 -0.0722626 0.996046 
0.0521295 -0.058511 0.996925 
0.0401918 -0.0419647 0.99831 
0.04228 -0.0332437 0.998553 
0.0360474 -0.0240323 0.999061 
0.0304661 -0.0166075 0.999398 
0.03391 -0.0109354 0.999365 
0.0286271 -0.00455781 0.99958 
0.0336525 -0.000753853 0.999433 
0.0303352 0.00534348 0.999526 
0.0291798 0.00995694 0.999525 
0.0352361 0.0168497 0.999237 
0.0340557 0.0231474 0.999152 
0.0413466 0.0334054 0.998586 
0.0401969 0.0421939 0.9983 
0.0484821 0.0568387 0.997206 
0.0592257 0.0753138 0.995399 
0.0595565 0.0941147 0.993778 
0.0796986 0.12577 0.988853 
0.0801606 0.150929 0.985289 
0.0957845 0.190497 0.977004 
0.118648 0.245248 0.962172 
0.139187 0.315747 0.938579 
0.164935 0.396804 0.902963 
0.195628 0.504907 0.840713 
0.22568 0.617635 0.75339 
0.256679 0.744803 0.615942 
0.274925 0.861021 0.427854 
0.228927 -0.875278 0.426006 
0.21337 -0.755399 0.619553 
0.184832 -0.627141 0.756658 
0.157888 -0.505934 0.847999 
0.132929 -0.400136 0.906764 
0.112143 -0.312779 0.943183 
0.0971531 -0.245122 0.964612 
0.0747958 -0.189824 0.978965 
0.0706831 -0.149506 0.986231 
0.0530114 -0.112305 0.992259 
0.0515225 -0.0899073 0.994617 
0.0401196 -0.0664691 0.996982 
0.039361 -0.0526816 0.997835 
0.0307808 -0.0384038 0.998788 
0.0319142 -0.0307532 0.999017 
0.0268576 -0.0213976 0.99941 
0.0227906 -0.014165 0.99964 
0.0251034 -0.0103659 0.999631 
0.021477 -0.0048511 0.999758 
0.0238699 -0.000265605 0.999715 
0.022836 0.00411062 0.999731 
0.0215146 0.00878184 0.99973 
0.0263941 0.0147994 0.999542 
0.0243116 0.0204968 0.999494 
0.0312488 0.0297823 0.999068 
0.0299567 0.0379011 0.998832 
0.0365268 0.0516126 0.997999 
0.0458481 0.0694185 0.996534 
0.0459234 0.0860447 0.995232 
0.0596852 0.1153 0.991536 
0.0642398 0.148464 0.986829 
0.0811956 0.196317 0.977173 
0.100592 0.256071 0.96141 
0.113088 0.321669 0.940074 
0.143218 0.413323 0.899251 
0.158583 0.512359 0.844002 
0.189695 0.631423 0.751878 
0.212945 0.75618 0.618746 
0.226235 0.874634 0.428757 
0.179807 -0.885986 0.427433 
0.174212 -0.780657 0.600188 
0.149769 -0.656538 0.739275 
0.128767 -0.530507 0.837843 
0.107214 -0.417165 0.902484 
0.0899495 -0.321927 0.942482 
0.0765641 -0.24358 0.966854 
0.0564438 -0.179997 0.982046 
0.0542726 -0.141477 0.988453 
0.0396656 -0.105535 0.993624 
0.039232 -0.083012 0.995776 
0.0283272 -0.0615574 0.997701 
0.0291177 -0.0487482 0.998387 
0.0221997 -0.0353478 0.999128 
0.0233024 -0.0269694 0.999365 
0.0191197 -0.0195633 0.999626 
0.0165577 -0.0139483 0.999766 
0.0184814 -0.00834741 0.999794 
0.0145755 -0.00442264 0.999884 
0.018155 0.000138941 0.999835 
0.0166007 0.00367235 0.999855 
0.0147037 0.0081246 0.999859 
0.0197832 0.0138057 0.999709 
0.0178964 0.0188121 0.999663 
0.0231375 0.0271037 0.999365 
0.0218057 0.0355422 0.99913 
0.0271671 0.0472201 0.998515 
0.0333998 0.0634323 0.997427 
0.0337553 0.0815387 0.996098 
0.0462007 0.110114 0.992845 
0.0458595 0.13861 0.989285 
0.0609941 0.18266 0.981282 
0.0784575 0.240544 0.967462 
0.0828747 0.304664 0.948848 
0.112198 0.397627 0.910661 
0.120649 0.50121 0.856873 
0.150801 0.630779 0.761168 
0.168287 0.762281 0.624986 
0.177923 0.885378 0.429476 
0.135822 -0.893366 0.42831 
0.125564 -0.746928 0.652941 
0.103601 -0.59425 0.79758 
0.0849295 -0.462573 0.882504 
0.0720951 -0.357205 0.93124 
0.0609408 -0.275459 0.959379 
0.0524446 -0.216208 0.974938 
0.0385512 -0.169284 0.984813 
0.0394718 -0.134408 0.99014 
0.0274675 -0.100251 0.994583 
0.028291 -0.0785647 0.996508 
0.0204251 -0.0582026 0.998096 
0.021222 -0.0446904 0.998775 
0.0150593 -0.0331643 0.999336 
0.0168672 -0.0253834 0.999535 
0.0138201 -0.0180374 0.999742 
0.0109145 -0.0117834 0.999871 
0.0127137 -0.00812569 0.999886 
0.0111202 -0.00357905 0.999932 
0.0121169 -0.000263904 0.999927 
0.0110121 0.0037404 0.999932 
0.0113375 0.00723715 0.99991 
0.0134762 0.0119284 0.999838 
0.0123892 0.0177602 0.999766 
0.0162591 0.0248499 0.999559 
0.0146491 0.0326239 0.99936 
0.0191847 0.0445216 0.998824 
0.024844 0.0604016 0.997865 
0.0230211 0.076241 0.996824 
0.0335675 0.103172 0.994097 
0.032909 0.131262 0.990801 
0.0423746 0.173599 0.983904 
0.0573581 0.228301 0.9719 
0.0580802 0.292589 0.954473 
0.0825872 0.381719 0.920581 
0.0840738 0.479973 0.873245 
0.107314 0.602749 0.790681 
0.125245 0.752599 0.646459 
0.132776 0.893451 0.429088 
0.0882368 -0.898573 0.429861 
0.0875632 -0.788388 0.608915 
0.0737285 -0.650613 0.755822 
0.061826 -0.512243 0.856612 
0.0502849 -0.392459 0.918394 
0.0419162 -0.297344 0.95385 
0.0363003 -0.223288 0.974076 
0.0242086 -0.164918 0.98601 
0.0257486 -0.127324 0.991527 
0.0175389 -0.096209 0.995207 
0.0183143 -0.0744493 0.997057 
0.0125246 -0.0556245 0.998373 
0.0133884 -0.0433425 0.998971 
0.00995323 -0.031172 0.999464 
0.0106274 -0.0238167 0.99966 
0.00834004 -0.0171616 0.999818 
0.00697977 -0.0117966 0.999906 
0.00822919 -0.00804751 0.999934 
0.00545835 -0.00346669 0.999979 
0.00845826 -0.000467201 0.999964 
0.00697154 0.00339722 0.99997 
0.00579259 0.00704155 0.999958 
0.00833595 0.0120405 0.999893 
0.00738041 0.0161199 0.999843 
0.0106226 0.0238266 0.99966 
0.00971145 0.0315928 0.999454 
0.0115124 0.0423968 0.999035 
0.0162147 0.0562359 0.998286 
0.0152331 0.0740522 0.997138 
0.0211661 0.098528 0.994909 
0.0190721 0.127462 0.99166 
0.0277312 0.167265 0.985522 
0.0393116 0.221577 0.97435 
0.036029 0.284864 0.957891 
0.0559613 0.374903 0.925373 
0.055488 0.489545 0.87021 
0.074197 0.635092 0.768864 
0.0847459 0.779321 0.620868 
0.0863875 0.898834 0.429691 
0.0447642 -0.902493 0.428373 
0.042415 -0.744952 0.665769 
0.0344272 -0.585971 0.8096 
0.0273579 -0.448904 0.893161 
0.0234544 -0.341974 0.939417 
0.0202602 -0.262004 0.964854 
0.0183799 -0.204611 0.978671 
0.00928498 -0.161525 0.986825 
0.0140528 -0.125197 0.992032 
0.00682828 -0.0944826 0.995503 
0.00982741 -0.0726054 0.997312 
0.00524695 -0.0545036 0.9985 
0.0074033 -0.0409558 0.999134 
0.00360594 -0.0310899 0.99951 
0.00612315 -0.0227508 0.999722 
0.0043958 -0.0162688 0.999858 
0.00253623 -0.0116411 0.999929 
0.00490851 -0.00675011 0.999965 
0.00333515 -0.00411375 0.999986 
0.00422352 0.000165752 0.999991 
0.00391384 0.00298212 0.999988 
0.00254798 0.00684088 0.999973 
0.00538443 0.0108165 0.999927 
0.00330711 0.0165862 0.999857 
0.00527353 0.0226192 0.99973 
0.00328618 0.0302079 0.999538 
0.00622066 0.0412152 0.999131 
0.00854203 0.0552335 0.998437 
0.00542447 0.0715719 0.997421 
0.0119039 0.0953932 0.995368 
0.00751062 0.125188 0.992105 
0.0137428 0.164309 0.986313 
0.0211543 0.21644 0.976067 
0.0157047 0.283076 0.958969 
0.031281 0.370626 0.928255 
0.0235657 0.466806 0.884046 
0.0346508 0.592298 0.804973 
0.0404925 0.744469 0.666428 
0.0430698 0.902627 0.428263 
0.00169708 -0.904671 0.426107 
0.0012856 -0.792422 0.609972 
0.000938254 -0.650991 0.759085 
0.00147456 -0.508318 0.861168 
0.000599169 -0.38655 0.922268 
0.000617177 -0.290314 0.956931 
0.00194568 -0.216972 0.976176 
-0.00295951 -0.162209 0.986752 
0.00314619 -0.122961 0.992406 
-0.00241029 -0.0942688 0.995544 
0.00265773 -0.0713619 0.997447 
-0.00188041 -0.0540627 0.998536 
0.00173501 -0.0411895 0.99915 
-0.000802133 -0.0298249 0.999555 
0.00121325 -0.0227238 0.999741 
9.05076e-05 -0.0160668 0.999871 
-0.000636642 -0.0110676 0.999939 
0.000280111 -0.00700222 0.999975 
-0.000886919 -0.00306571 0.999995 
0.000894654 4.86756e-05 1 
-0.000263907 0.00317415 0.999995 
-0.0006021 0.00685713 0.999976 
0.00023252 0.0111396 0.999938 
-0.00127602 0.0155968 0.999878 
0.00150781 0.0225255 0.999745 
-0.00169089 0.030955 0.999519 
1.33711e-05 0.0405275 0.999178 
0.00215401 0.0536917 0.998555 
-0.00171543 0.0720747 0.997398 
0.00260131 0.0948038 0.995493 
-0.00356786 0.124058 0.992269 
-0.000260975 0.163994 0.986461 
0.00549625 0.214501 0.976708 
-0.00420617 0.280005 0.959989 
0.00628953 0.367299 0.930082 
-0.00465763 0.486008 0.873942 
0.000305326 0.635821 0.771837 
-4.19055e-05 0.785949 0.618291 
0.000475242 0.904942 0.425534 
-0.0416172 -0.902018 0.429689 
-0.0395132 -0.745851 0.66494 
-0.0323751 -0.585984 0.809676 
-0.0271476 -0.450613 0.892306 
-0.021572 -0.343105 0.939049 
-0.0183955 -0.262471 0.964764 
-0.0137496 -0.206079 0.978439 
-0.0174189 -0.163744 0.986349 
-0.00908999 -0.124982 0.992117 
-0.0111395 -0.0955949 0.995358 
-0.00647844 -0.0723481 0.997358 
-0.00761178 -0.0549448 0.99846 
-0.00430228 -0.0407957 0.999158 
-0.00640172 -0.03163 0.999479 
-0.00275113 -0.0224332 0.999745 
-0.00414712 -0.0167538 0.999851 
-0.00484079 -0.0112131 0.999925 
-0.00176596 -0.00768301 0.999969 
-0.00437535 -0.00321722 0.999985 
-0.00178937 -0.000621294 0.999998 
-0.00336893 0.00355272 0.999988 
-0.0045491 0.00666971 0.999967 
-0.00211904 0.0108274 0.999939 
-0.00476048 0.01683 0.999847 
-0.00334829 0.0221425 0.999749 
-0.00598978 0.0307623 0.999509 
-0.00620599 0.0410619 0.999137 
-0.0049546 0.0547242 0.998489 
-0.00950167 0.0717388 0.997378 
-0.00805288 0.0949183 0.995452 
-0.0144463 0.126679 0.991839 
-0.0142028 0.16409 0.986343 
-0.0113602 0.214901 0.97657 
-0.0249616 0.284153 0.958454 
-0.0170619 0.367265 0.92996 
-0.0327618 0.464733 0.884845 