# vtk DataFile Version 3.0 
Exported using Morpho https://github.com/Morpho-lang/morpho 
ASCII 
DATASET UNSTRUCTURED_GRID 

POINTS 1245 float 
-0.304038 -0.95266 0 
-0.251441 -0.967873 0 
-0.196599 -0.980484 0 
-0.147939 -0.988996 0 
-0.096254 -0.995357 0 
-0.0483601 -0.99883 0 
-0.000451504 -1 0 
0.0482414 -0.998836 0 
0.0956209 -0.995418 0 
0.145924 -0.989296 0 
0.198694 -0.980062 0 
0.248343 -0.968672 0 
0.30399 -0.952675 0 
-0.409672 -0.912233 0 
-0.356859 -0.934158 0 
-0.307625 -0.898571 0 
-0.256611 -0.914841 0 
-0.205389 -0.933372 0 
-0.153069 -0.927934 0 
-0.102396 -0.94791 0 
-0.0498583 -0.935106 0 
0.00142854 -0.953377 0 
0.052561 -0.9331 0 
0.104134 -0.942389 0 
0.156872 -0.938823 0 
0.206982 -0.919507 0 
0.258749 -0.920951 0 
0.310446 -0.900065 0 
0.357716 -0.93383 0 
0.410714 -0.911764 0 
-0.51437 -0.857568 0 
-0.462407 -0.886668 0 
-0.411015 -0.857376 0 
-0.359501 -0.879663 0 
-0.305707 -0.84665 0 
-0.253622 -0.86425 0 
-0.200473 -0.885626 0 
-0.148805 -0.868805 0 
-0.0992128 -0.89633 0 
-0.0484472 -0.873916 0 
0.00154915 -0.899374 0 
0.0506565 -0.870008 0 
0.099584 -0.888189 0 
0.15259 -0.889657 0 
0.203706 -0.862941 0 
0.255384 -0.874358 0 
0.307954 -0.849391 0 
0.361689 -0.879386 0 
0.412615 -0.856642 0 
0.46325 -0.886228 0 
0.514942 -0.857225 0 
-0.565364 -0.824841 0 
-0.512807 -0.802464 0 
-0.462454 -0.831649 0 
-0.409305 -0.803744 0 
-0.35814 -0.826779 0 
-0.304287 -0.794815 0 
-0.252533 -0.812725 0 
-0.199644 -0.834469 0 
-0.148659 -0.811689 0 
-0.0980329 -0.840437 0 
-0.0486484 -0.814709 0 
0.00110327 -0.841666 0 
0.0507222 -0.810511 0 
0.10012 -0.830521 0 
0.151601 -0.838979 0 
0.201398 -0.807576 0 
0.253879 -0.824556 0 
0.305585 -0.798078 0 
0.359663 -0.826545 0 
0.410331 -0.802786 0 
0.463256 -0.830671 0 
0.513382 -0.802055 0 
0.565855 -0.824505 0 
-0.661127 -0.750274 0 
-0.614521 -0.7889 0 
-0.561833 -0.769262 0 
-0.50964 -0.747742 0 
-0.460175 -0.777438 0 
-0.407225 -0.750461 0 
-0.356449 -0.774194 0 
-0.303021 -0.743169 0 
-0.251726 -0.760737 0 
-0.199698 -0.781574 0 
-0.149469 -0.755674 0 
-0.0987361 -0.784111 0 
-0.0495663 -0.757521 0 
0.00074427 -0.784506 0 
0.0499021 -0.753017 0 
0.0986422 -0.771593 0 
0.148465 -0.786798 0 
0.198905 -0.753762 0 
0.25178 -0.773224 0 
0.303018 -0.746409 0 
0.356897 -0.773838 0 
0.407278 -0.749476 0 
0.460508 -0.775969 0 
0.509912 -0.747635 0 
0.562265 -0.768427 0 
0.614899 -0.788606 0 
0.660916 -0.75046 0 
-0.707137 -0.707076 0 
-0.654232 -0.698242 0 
-0.60786 -0.732501 0 
-0.557385 -0.712939 0 
-0.507468 -0.693124 0 
-0.457791 -0.723521 0 
-0.40534 -0.697562 0 
-0.354815 -0.72183 0 
-0.302133 -0.691777 0 
-0.251077 -0.708675 0 
-0.199931 -0.727612 0 
-0.150301 -0.700335 0 
-0.0999236 -0.728385 0 
-0.051087 -0.701823 0 
-0.000421628 -0.728505 0 
0.0495464 -0.698598 0 
0.0984035 -0.713168 0 
0.147599 -0.732599 0 
0.197896 -0.700126 0 
0.250029 -0.721435 0 
0.301757 -0.694342 0 
0.353927 -0.721143 0 
0.403704 -0.696683 0 
0.456847 -0.721566 0 
0.505628 -0.694419 0 
0.557407 -0.711375 0 
0.607266 -0.730582 0 
0.652491 -0.698197 0 
0.706565 -0.707648 0 
-0.750394 -0.660991 0 
-0.698464 -0.654201 0 
-0.647093 -0.646808 0 
-0.60217 -0.67432 0 
-0.556909 -0.655804 0 
-0.506644 -0.64072 0 
-0.455848 -0.670392 0 
-0.404184 -0.645105 0 
-0.353627 -0.669626 0 
-0.301541 -0.640968 0 
-0.250517 -0.65732 0 
-0.200181 -0.673083 0 
-0.151003 -0.645606 0 
-0.100944 -0.673231 0 
-0.0519388 -0.647066 0 
-0.00212132 -0.674276 0 
0.047866 -0.647977 0 
0.0973944 -0.654915 0 
0.14682 -0.677634 0 
0.197663 -0.647208 0 
0.249531 -0.669554 0 
0.301392 -0.642514 0 
0.353151 -0.66764 0 
0.404352 -0.642769 0 
0.451679 -0.667224 0 
0.497353 -0.643748 0 
0.550472 -0.654874 0 
0.599514 -0.669274 0 
0.647435 -0.648156 0 
0.698584 -0.655155 0 
0.750179 -0.661235 0 
-0.789039 -0.614343 0 
-0.732835 -0.607626 0 
-0.675089 -0.602016 0 
-0.61271 -0.611831 0 
-0.56007 -0.604859 0 
-0.506586 -0.591159 0 
-0.4548 -0.618267 0 
-0.402585 -0.593363 0 
-0.352885 -0.617892 0 
-0.301898 -0.590774 0 
-0.249931 -0.607445 0 
-0.20047 -0.618026 0 
-0.152094 -0.591572 0 
-0.101636 -0.618979 0 
-0.0515543 -0.593574 0 
-0.00244032 -0.620678 0 
0.0493493 -0.600163 0 
0.0984462 -0.59791 0 
0.147214 -0.623273 0 
0.19846 -0.594491 0 
0.248849 -0.617954 0 
0.29924 -0.591281 0 
0.352315 -0.614754 0 
0.403831 -0.593284 0 
0.455787 -0.608592 0 
0.520167 -0.601585 0 
0.571237 -0.605653 0 
0.620059 -0.607814 0 
0.678676 -0.602486 0 
0.734122 -0.607948 0 
0.789144 -0.614208 0 
-0.824938 -0.565223 0 
-0.769277 -0.561556 0 
-0.712842 -0.556856 0 
-0.655558 -0.556882 0 
-0.604723 -0.559782 0 
-0.552376 -0.552301 0 
-0.499741 -0.541558 0 
-0.452146 -0.567692 0 
-0.399788 -0.54198 0 
-0.351333 -0.566006 0 
-0.301369 -0.539423 0 
-0.251944 -0.559984 0 
-0.202344 -0.562389 0 
-0.151729 -0.539373 0 
-0.101412 -0.56624 0 
-0.0504147 -0.541753 0 
-0.000400428 -0.568612 0 
0.0512066 -0.551572 0 
0.100052 -0.542814 0 
0.148635 -0.569469 0 
0.199383 -0.542248 0 
0.24951 -0.565612 0 
0.300492 -0.537743 0 
0.346797 -0.563054 0 
0.392054 -0.54738 0 
0.444834 -0.550376 0 
0.492055 -0.564982 0 
0.548979 -0.550909 0 
0.602765 -0.5553 0 
0.655752 -0.556591 0 
0.713249 -0.556635 0 
0.769373 -0.561367 0 
0.824922 -0.565247 0 
-0.857615 -0.514292 0 
-0.802388 -0.512635 0 
-0.747487 -0.509447 0 
-0.692481 -0.506961 0 
-0.640359 -0.506188 0 
-0.590701 -0.507101 0 
-0.539866 -0.49886 0 
-0.492526 -0.491066 0 
-0.44688 -0.51632 0 
-0.399236 -0.489206 0 
-0.350286 -0.513725 0 
-0.298979 -0.489497 0 
-0.247977 -0.513509 0 
-0.199703 -0.507566 0 
-0.150161 -0.487331 0 
-0.10059 -0.514616 0 
-0.049804 -0.490619 0 
0.000625811 -0.517509 0 
0.0508042 -0.501589 0 
0.0999639 -0.489781 0 
0.149517 -0.516323 0 
0.199861 -0.49053 0 
0.249857 -0.513971 0 
0.301105 -0.486926 0 
0.350992 -0.50621 0 
0.406179 -0.503633 0 
0.453702 -0.495579 0 
0.499381 -0.517896 0 
0.54509 -0.495628 0 
0.589875 -0.502992 0 
0.639769 -0.505125 0 
0.692133 -0.507178 0 
0.747231 -0.509351 0 
0.802239 -0.512834 0 
0.8575 -0.514485 0 
-0.886692 -0.462362 0 
-0.831447 -0.46229 0 
-0.776968 -0.459992 0 
-0.722557 -0.457864 0 
-0.668309 -0.454847 0 
-0.615699 -0.454692 0 
-0.563442 -0.455041 0 
-0.504959 -0.444494 0 
-0.448651 -0.462232 0 
-0.399535 -0.438236 0 
-0.349128 -0.46264 0 
-0.299137 -0.439068 0 
-0.248305 -0.464591 0 
-0.199624 -0.454437 0 
-0.150124 -0.436363 0 
-0.0998408 -0.463181 0 
-0.0495775 -0.439683 0 
0.000657363 -0.466432 0 
0.050398 -0.45109 0 
0.0997795 -0.438004 0 
0.14961 -0.46426 0 
0.20006 -0.439543 0 
0.250155 -0.462985 0 
0.300624 -0.436016 0 
0.349741 -0.453489 0 
0.398431 -0.460711 0 
0.448861 -0.444362 0 
0.501772 -0.463516 0 
0.556306 -0.446047 0 
0.610655 -0.453181 0 
0.665731 -0.455702 0 
0.720992 -0.458228 0 
0.776173 -0.460571 0 
0.831102 -0.462917 0 
0.886543 -0.462645 0 
-0.912236 -0.409665 0 
-0.857204 -0.410967 0 
-0.803392 -0.409217 0 
-0.74994 -0.407407 0 
-0.696663 -0.406178 0 
-0.642836 -0.402615 0 
-0.594083 -0.40314 0 
-0.543712 -0.409305 0 
-0.498184 -0.388941 0 
-0.452699 -0.414143 0 
-0.401283 -0.388854 0 
-0.349739 -0.411899 0 
-0.299455 -0.388886 0 
-0.248771 -0.414704 0 
-0.199804 -0.40237 0 
-0.150194 -0.385975 0 
-0.0998826 -0.412316 0 
-0.0496331 -0.389139 0 
0.000643541 -0.415495 0 
0.0502079 -0.40057 0 
0.099715 -0.387048 0 
0.149647 -0.41299 0 
0.200027 -0.388895 0 
0.250027 -0.412129 0 
0.301055 -0.385878 0 
0.350404 -0.401986 0 
0.40041 -0.412751 0 
0.450882 -0.391618 0 
0.499731 -0.416383 0 
0.544034 -0.393568 0 
0.59137 -0.399783 0 
0.642288 -0.404278 0 
0.695365 -0.407079 0 
0.749328 -0.408637 0 
0.803118 -0.410657 0 
0.857365 -0.412146 0 
0.912211 -0.40972 0 
-0.934162 -0.35685 0 
-0.879422 -0.35942 0 
-0.826293 -0.357958 0 
-0.773333 -0.356351 0 
-0.720158 -0.355668 0 
-0.665775 -0.356607 0 
-0.607138 -0.350008 0 
-0.553621 -0.361137 0 
-0.5022 -0.339404 0 
-0.449669 -0.361737 0 
-0.400008 -0.33791 0 
-0.350294 -0.361968 0 
-0.299735 -0.338845 0 
-0.249149 -0.364486 0 
-0.19989 -0.351123 0 
-0.150231 -0.335907 0 
-0.0999158 -0.361809 0 
-0.0496591 -0.338853 0 
0.000579022 -0.364807 0 
0.0501213 -0.350175 0 
0.0996736 -0.336536 0 
0.149689 -0.362171 0 
0.200173 -0.338592 0 
0.250216 -0.361805 0 
0.300977 -0.33584 0 
0.350317 -0.350432 0 
0.400031 -0.363711 0 
0.449445 -0.340113 0 
0.500426 -0.362497 0 
0.556035 -0.344079 0 
0.610296 -0.352686 0 
0.6665 -0.355417 0 
0.719677 -0.357923 0 
0.773735 -0.358184 0 
0.826983 -0.360351 0 
0.879942 -0.360326 0 
0.934344 -0.356372 0 
-0.952661 -0.304036 0 
-0.898427 -0.307629 0 
-0.846493 -0.305546 0 
-0.794931 -0.304029 0 
-0.743864 -0.303138 0 
-0.693611 -0.30459 0 
-0.643467 -0.30958 0 
-0.599353 -0.290969 0 
-0.55443 -0.313997 0 
-0.503336 -0.288984 0 
-0.45199 -0.311834 0 
-0.401101 -0.288191 0 
-0.349902 -0.311422 0 
-0.299643 -0.288622 0 
-0.249349 -0.314247 0 
-0.199915 -0.300435 0 
-0.150269 -0.285978 0 
-0.0999683 -0.311532 0 
-0.0497289 -0.288717 0 
0.000527779 -0.314369 0 
0.0500741 -0.299964 0 
0.0996409 -0.286337 0 
0.149787 -0.311716 0 
0.200238 -0.28842 0 
0.250326 -0.311555 0 
0.301235 -0.286006 0 
0.350591 -0.299681 0 
0.400449 -0.31341 0 
0.451856 -0.289027 0 
0.501314 -0.314699 0 
0.544921 -0.289691 0 
0.590901 -0.297941 0 
0.640135 -0.307218 0 
0.69435 -0.304347 0 
0.742809 -0.307966 0 
0.7979 -0.307375 0 
0.847482 -0.307936 0 
0.899876 -0.308548 0 
0.953167 -0.302446 0 
-0.967863 -0.251479 0 
-0.914487 -0.256648 0 
-0.863556 -0.253418 0 
-0.811732 -0.251971 0 
-0.759393 -0.251316 0 
-0.706493 -0.252194 0 
-0.653718 -0.258815 0 
-0.607533 -0.238533 0 
-0.553063 -0.261024 0 
-0.502377 -0.238056 0 
-0.452064 -0.261845 0 
-0.401205 -0.238175 0 
-0.350516 -0.261491 0 
-0.299965 -0.238667 0 
-0.249417 -0.263974 0 
-0.199916 -0.250071 0 
-0.150304 -0.236053 0 
-0.100036 -0.261399 0 
-0.0497663 -0.238671 0 
0.000445464 -0.264099 0 
0.0500404 -0.249853 0 
0.0996125 -0.23625 0 
0.149834 -0.261487 0 
0.200323 -0.238399 0 
0.25055 -0.261503 0 
0.301452 -0.23621 0 
0.351157 -0.249436 0 
0.401482 -0.263625 0 
0.451962 -0.237781 0 
0.501557 -0.260261 0 
[...]
POINT_DATA 1245 
VECTORS vectors float
0.00886219 0.0150916 0.79968 
-0.0884904 -0.0360152 0.794795 
-0.0647764 0.013885 0.819037 
-0.0798708 -0.0822984 0.986508 
-0.058773 0.0173884 0.789634 
0.0228719 0.0576268 0.865834 
-0.0969746 0.024609 0.909771 
-0.0945454 -0.0903476 0.91526 
-0.0157285 -0.0785371 0.958644 
-0.0643434 -0.0179083 0.752165 
0.0199112 0.0370697 0.775184 
-0.00735766 0.0681389 0.876198 
-0.0120872 -0.0880724 0.887091 
-0.00416592 0.0502158 0.766462 
0.0533297 0.0184284 0.907634 
0.086205 -0.0418616 0.865796 
0.039581 -0.00545988 0.854778 
-0.0919077 -0.051368 0.978592 
-0.047124 -0.0925924 0.857007 
-0.0788938 -0.00481212 0.828329 
0.059048 0.0575239 0.965154 
-0.0422935 0.0189899 0.81273 
-0.0365472 0.0915093 0.827782 
-0.00103369 0.0372679 0.838573 
0.0149432 -0.070512 0.751154 
0.0369183 0.0377181 0.776611 
0.0305624 -0.0961842 0.769987 
-0.0749684 -0.0342261 0.973156 
0.00668919 0.050755 0.840198 
-0.0206738 -0.0053188 0.994489 
0.00234045 0.0406457 0.783117 
0.0154318 -0.0348873 0.853452 
-0.0536826 0.0316966 0.77131 
0.0648769 0.081675 0.899015 
-0.00305852 -0.00711191 0.971217 
0.0784399 -0.053824 0.945426 
0.051206 -0.0681344 0.998689 
-0.0212233 -0.0158787 0.991553 
0.0383735 -0.0831348 0.927756 
0.091796 -0.0465042 0.971293 
0.0441136 -0.083438 0.868197 
0.0733249 0.0568619 0.871834 
-0.067562 -0.0568058 0.994806 
-0.0256961 0.0227508 0.823876 
0.0931576 -0.0820264 0.944125 
-0.0507447 -0.0665887 0.90861 
-0.0250585 0.0536048 0.835718 
0.0409331 -0.0681773 0.858991 
0.0570071 -0.0557878 0.876616 
-0.0429915 0.0484158 0.809524 
-0.081576 -0.0764092 0.790362 
0.0420377 0.0341036 0.951936 
-0.0593718 0.0640808 0.871226 
-0.0765737 0.0989214 0.811864 
0.0423403 0.0961168 0.930624 
0.0430074 -0.0918612 0.790691 
0.0481729 -0.0462939 0.971814 
0.0155413 -0.0910961 0.990791 
-0.079061 -0.0302426 0.831064 
-0.0392764 -0.0572938 0.760689 
0.0991686 0.0535196 0.931845 
-0.0948027 -0.0335161 0.836272 
0.0596214 0.0808084 0.989327 
0.0822213 -0.0761098 0.842887 
-0.00740024 -0.0535337 0.87767 
-0.0779815 0.0176096 0.830647 
-0.0300194 0.0624978 0.901185 
0.06185 -0.0305572 0.758798 
0.0256232 -0.0132531 0.858638 
0.0297544 -0.0857971 0.768203 
-0.083157 -0.0614861 0.807205 
-0.0977988 0.0216183 0.788606 
0.0661692 -0.0424349 0.923508 
-0.0109537 -0.0166574 0.798775 
-0.0623025 -0.0973003 0.93828 
-0.0277122 0.0331928 0.911791 
0.061791 0.0799763 0.83871 
0.00957993 0.0223095 0.903989 
0.031666 0.0676354 0.867628 
-0.0306241 -0.0304203 0.853421 
0.0557485 0.0389933 0.916723 
0.0157636 0.0816565 0.946939 
-0.0429182 -0.0833597 0.891103 
0.059742 -0.0740931 0.883883 
-0.0582021 0.0764506 0.904419 
-0.0255797 -0.0267665 0.845686 
-0.0154977 -0.0843207 0.982576 
0.058782 -0.0980506 0.823782 
0.0702831 -0.057507 0.812557 
-0.00321585 0.0635366 0.823774 
0.0390923 0.0119418 0.942442 
0.0799915 -0.0784131 0.835829 
0.0985873 -0.0649778 0.891508 
0.0167226 -0.0721837 0.901733 
-0.077725 0.0555452 0.839109 
0.0523116 -0.0683958 0.883191 
0.0852007 -0.0721732 0.951793 
0.0854066 0.0776918 0.935942 
-0.00269002 0.0365584 0.784392 
0.022028 0.0553941 0.816439 
-0.0339774 -0.0311306 0.857565 
0.0398875 0.0734381 0.992705 
-0.0499123 -0.0595506 0.970053 
-0.0518974 0.00352333 0.887736 
0.0309434 0.087674 0.929186 
0.0616243 -0.0528855 0.830423 
0.0588034 -0.0979249 0.83476 
-0.0894045 -0.0623411 0.764966 
-0.00417982 -0.0812743 0.954018 
0.0938507 -0.0388847 0.862231 
0.0778234 0.0602234 0.925759 
0.00202922 -0.0833819 0.940883 
-0.00353703 0.069317 0.751626 
-0.0798194 0.00350469 0.788816 
-0.0880666 -0.066659 0.759384 
0.0967081 0.0459702 0.760382 
-0.0339781 0.0933327 0.980536 
0.0176396 -0.0471893 0.993403 
0.0627434 0.0965288 0.835493 
0.0707442 0.0789681 0.948805 
-0.0723685 0.0932984 0.857681 
0.0823111 -0.0312168 0.973454 
-0.0654739 0.00613872 0.917105 
-0.0227953 -0.0206506 0.892298 
-0.0793844 0.0223589 0.855695 
0.0872383 -0.0972559 0.998314 
-0.0880768 -0.0885765 0.863896 
0.0558808 -0.0345077 0.750523 
0.00477494 -0.0511451 0.992935 
-0.0949243 0.0288238 0.89655 
-0.0363584 0.0640143 0.933042 
-0.0328436 -0.0748648 0.877283 
-0.0457148 0.0464022 0.939797 
-0.0311119 0.0953259 0.799851 
0.0882138 -0.0875415 0.780685 
-0.0188161 0.0280014 0.885047 
0.0143982 -0.0823575 0.938672 
0.0369755 0.0855126 0.983951 
-0.0716563 0.089407 0.82126 
-0.0932653 0.0172189 0.984023 
0.0270818 -0.00565891 0.817711 
0.00471149 -0.0414206 0.929793 
0.0313082 -0.0315716 0.795685 
-0.0644943 0.0531354 0.853454 
-0.063777 -0.0792028 0.989181 
-0.01593 -0.00543773 0.814858 
0.0545344 0.0597784 0.921327 
0.0686681 0.0387973 0.911906 
-0.0596899 -0.0870542 0.897121 
-0.0617241 0.0437692 0.94914 
0.033069 -0.0159112 0.990352 
-0.065457 0.0300898 0.840258 
-0.092202 0.0733256 0.996636 
-0.091556 0.0627541 0.985194 
-0.00822673 0.0627437 0.787117 
0.0518691 -0.0708012 0.876127 
0.0718126 0.074126 0.96197 
0.0539608 0.02814 0.832337 
0.0186632 -0.0153967 0.855264 
0.0263025 0.0931346 0.928776 
-0.0295553 -0.0652456 0.774392 
-0.0245948 -0.0404186 0.903964 
0.0881369 0.0695654 0.906647 
0.0715215 -0.0759091 0.767157 
0.0568585 -0.00205132 0.834747 
-0.0255468 0.0372391 0.968817 
0.021432 -0.038151 0.799865 
0.0638694 -0.0926062 0.907043 
-0.0614083 0.0372193 0.883101 
-0.0403554 0.0204207 0.953174 
0.0667355 0.0824196 0.858099 
-0.0999189 0.0467501 0.83294 
0.063301 -0.00134982 0.87162 
-0.0805207 0.0111057 0.767683 
0.00278697 0.0388785 0.943995 
0.0613949 0.0216099 0.76904 
0.0239087 -0.0280835 0.782088 
-0.0818733 0.0540751 0.994811 
-0.0337416 0.0611033 0.809292 
0.0899171 0.0767978 0.986288 
-0.0571341 -0.0146159 0.950439 
-0.0190227 0.065847 0.946631 
0.00374684 -0.0165714 0.823235 
-0.0814503 -0.0510843 0.963736 
0.0614426 -0.00395133 0.983689 
0.0448098 0.00878145 0.793399 
0.0156781 -0.0654668 0.985934 
0.0818747 0.0226421 0.82554 
-0.0351954 -0.0581509 0.788049 
0.0984161 -0.0154285 0.813523 
-0.0979815 0.067983 0.870434 
-0.0257577 0.064323 0.971942 
0.00197453 0.062714 0.928629 
-0.0282358 -0.0556275 0.914768 
-0.0399525 0.0497647 0.984118 
0.0153315 -0.0535761 0.927098 
0.0199917 -0.092834 0.928215 
0.0969783 0.0609551 0.996539 
-0.0820154 0.0996367 0.971469 
-0.0123331 -0.0527813 0.923036 
0.0976925 -0.0230733 0.850909 
-0.0115235 0.0381443 0.80345 
-0.0310094 -0.0317449 0.997288 
0.0244546 -0.00317507 0.793625 
0.0588579 -0.0692826 0.854115 
0.0381277 0.00774671 0.950038 
-0.00594012 -0.0210946 0.937536 
-0.0208711 -0.0370802 0.966073 
-0.00570547 0.040596 0.844895 
0.079967 -0.023575 0.797586 
0.0701961 0.0631041 0.832245 
-0.0835709 -0.0914284 0.979018 
0.0549574 -0.0121478 0.896202 
0.0225531 -0.0602486 0.863887 
0.00524752 -0.0823142 0.79992 
0.030102 0.0615086 0.786157 
0.00317226 0.018352 0.902015 
0.0613189 0.0990071 0.855318 
-0.053112 -0.0975544 0.780523 
-0.0501655 -0.00559474 0.769242 
-0.0720237 -0.0135703 0.753878 
-0.0857629 0.0992221 0.982867 
-0.0156041 -0.0181935 0.840832 
-0.0829585 -0.00605983 0.842475 
0.0434177 0.0110835 0.833639 
-0.0372146 -0.0825577 0.858212 
0.0573188 0.0831926 0.793935 
0.00162898 0.0822182 0.790477 
-0.0353122 0.0916117 0.875499 
-0.00478693 -0.0113375 0.795717 
0.0108111 0.0373192 0.923826 
0.086206 0.0910186 0.813978 
0.0850793 -0.0685252 0.88877 
-0.0669791 0.0303648 0.753213 
-0.00826958 -0.034675 0.867652 
-0.0708117 -0.0690883 0.836567 
-0.0185233 -0.0823784 0.822371 
-0.0270192 0.0814133 0.860322 
0.0939657 0.0974543 0.998102 
-0.00491766 0.0750446 0.994014 
0.0932226 0.0331749 0.940975 
0.0309009 -0.0183952 0.781404 
0.0961701 0.0441852 0.868925 
-0.0534412 0.0201825 0.994014 
0.0440912 -0.0318556 0.787303 
0.0257362 -0.0978122 0.891703 
0.00211507 -0.0851758 0.994091 
-0.0255613 -0.0928265 0.899341 
0.0791513 0.0352068 0.805034 
-0.0429578 -0.0566378 0.908501 
-0.0768827 -0.0152565 0.966891 
-0.0289949 -0.00859016 0.759871 
-0.0332942 -0.0675333 0.990144 
-0.0465405 -0.0548187 0.803984 
-0.0796147 0.0957032 0.763163 
-0.0599065 0.0119565 0.75372 
0.0456289 -0.035248 0.968361 
-0.0355872 -0.00590378 0.813304 
0.0854971 0.0135182 0.896731 
0.0946387 -0.094017 0.79502 
-0.0388448 0.000545172 0.974501 
-0.0678876 -0.09165 0.820001 
-0.0908585 0.054497 0.78193 
-0.0924234 -0.0437245 0.809319 
-0.0948736 -0.0453027 0.870528 
0.0861994 0.0739271 0.840425 
0.0329783 -0.0015378 0.752848 
-0.00147163 -0.016853 0.792327 
0.0368485 0.0242457 0.855051 
-0.0637737 0.0731165 0.859873 
0.0341647 -0.0605895 0.98909 
0.0108728 -0.0724541 0.966229 
-0.0302172 0.023001 0.796296 
-0.0783681 0.0386042 0.976446 
0.0833719 0.0438708 0.773521 
-0.0713774 0.0927453 0.927443 
-0.0264621 -0.0623248 0.766828 
0.078181 0.0331543 0.842542 
-0.0724312 -0.0905867 0.86777 
-0.0514077 -0.040958 0.962548 
0.0491631 0.0760768 0.750939 
0.0402683 0.0922943 0.809986 
-0.0619577 0.0239532 0.932967 
0.0366264 -0.00711346 0.787927 
-0.0284712 0.00181421 0.781372 
0.0499019 -0.0211202 0.845566 
-0.0768958 -0.0726167 0.985619 
0.0158248 -0.0975342 0.91789 
-0.0459381 -0.0400139 0.862246 
0.0639716 -0.015363 0.873314 
-0.084843 0.0648467 0.916527 
-0.00994333 0.0211454 0.88739 
0.0486927 -0.0468542 0.751986 
-0.0496155 0.0102962 0.959416 
-0.099612 -0.00886905 0.92818 
-0.0763625 0.060119 0.962002 
-0.0357183 -0.020528 0.984472 
-0.05509 0.00682052 0.926034 
-0.0455136 -0.0297943 0.790537 
0.0676525 -0.074893 0.945532 
0.0796477 0.0972796 0.968602 
-0.0263495 0.0479178 0.832013 
-0.0572457 0.0776098 0.783807 
-0.0100391 -0.0305271 0.942128 
0.00642704 0.0715487 0.938118 
-0.0517385 -0.0998577 0.847556 
0.028318 0.0506475 0.803022 
-0.0909711 0.061172 0.961625 
-0.00751556 0.0929489 0.996916 
-0.0972799 -0.0320579 0.813156 
0.0258208 0.0347819 0.787738 
0.0770895 0.0948046 0.870276 
0.0601629 0.0658395 0.821583 
-0.0174395 -0.0480196 0.898923 
-0.0257583 0.0326123 0.945942 
-0.0226023 -0.0429917 0.930202 
0.077929 -0.0661199 0.841629 
0.0491955 -0.0203543 0.772839 
-0.0715213 0.0769127 0.875456 
-0.0169631 0.0409754 0.984413 
0.0548032 -0.0652329 0.862783 
0.0244895 0.0786566 0.991556 
0.0670948 0.0766946 0.926173 
0.0443315 0.0193753 0.824469 
-0.0148208 -0.0935762 0.769941 
-0.094281 0.011875 0.970858 
-0.0401181 0.0433349 0.964212 
0.0418903 -0.0224422 0.785775 
-0.0463928 0.0500098 0.888365 
-0.0771878 0.0150534 0.780454 
0.0666876 -0.000943105 0.893751 
0.0320159 -0.0185154 0.877506 
-0.0313116 -0.0121632 0.799739 
-0.0909192 0.0516183 0.751172 
0.0354382 -0.0731803 0.859761 
-0.0314401 0.0621615 0.88753 
-0.0609137 -0.0736363 0.809239 
-0.0380212 -0.0405035 0.887874 
-0.0920401 0.0254529 0.909686 
-0.0180362 -0.0403675 0.946198 
-0.0256803 -0.0760787 0.76494 
-0.0319924 -0.0553334 0.775771 
-0.0137574 -0.0839323 0.805539 
-0.0270058 -0.0765034 0.936237 
-0.0320588 0.0126485 0.944407 
0.0738268 0.0737171 0.86969 
0.0886832 0.0477681 0.905031 
0.0854306 0.0441327 0.836592 
0.0531207 0.0294359 0.916362 
0.0404762 -0.0490297 0.861089 
0.000632329 -0.0383104 0.976544 
-0.0170074 0.026007 0.950156 
-0.0987958 -0.0441543 0.829297 
0.0782651 0.0723675 0.891593 
0.0801224 0.050609 0.824561 
-0.0173662 0.0344455 0.76608 
0.0919371 -0.0705218 0.800144 
0.0150343 -0.0534738 0.883982 
0.00333877 0.0134839 0.854061 
0.0951263 0.00585485 0.941816 
0.0853801 0.00808215 0.828833 
0.0840994 0.0645769 0.788168 
-0.00187583 -0.0670912 0.764139 
-0.0947329 0.0645301 0.933086 
-0.0218806 -0.0639081 0.946504 
0.0796082 -0.078522 0.826475 
0.0237284 0.00190675 0.809464 
0.0194036 0.0630751 0.876152 
-0.0196756 0.0341301 0.868661 
0.0340535 -0.0898172 0.88423 
0.060457 -0.0354295 0.88368 
0.0598228 -0.0439408 0.831289 
0.0446285 -0.0297719 0.888686 
0.0508809 0.0415404 0.981814 
0.0705172 -0.0953815 0.818272 
0.00235326 -0.0600162 0.939487 
0.0905531 0.0860461 0.867878 
-0.0374902 -0.0796107 0.981326 
0.00939733 0.0347323 0.981126 
-0.0191755 0.0816515 0.935905 
0.0270017 0.061995 0.83619 
0.0774489 0.0435936 0.77083 
0.0460976 -0.0269189 0.893317 
-0.0872507 0.0405482 0.806273 
0.0937913 -0.0710549 0.963609 
-0.00566176 0.0596523 0.975964 
0.0146054 -0.0316508 0.806159 
0.0019719 -0.0764558 0.95034 
0.0172007 -0.0392027 0.883567 
0.0743828 0.0219002 0.894759 
-0.0984095 -0.0592167 0.846753 
-0.0424537 -0.0101024 0.761364 
0.0804989 0.0519255 0.840413 
0.00555735 0.0471899 0.811484 
-0.0541088 -0.0748011 0.82936 
0.0232413 -0.0563399 0.78148 
-0.0475181 -0.049735 0.939797 
-0.08155 0.0915122 0.9404 
-0.00924196 -0.0790559 0.947421 
0.0666067 0.0912012 0.873754 
-0.0142342 0.0560608 0.827126 
0.00534076 0.00559846 0.89312 
-0.0515089 -0.0274726 0.779775 
-0.0955904 -0.0533128 0.944947 
0.0645508 0.0532869 0.956509 
-0.00454536 0.092789 0.942774 
0.0248477 0.0637563 0.952705 
-0.0215214 0.0361847 0.966815 
-0.023662 0.0329036 0.797109 
0.0716211 -0.0496983 0.877224 
-0.0782095 -0.032267 0.774573 
0.0304402 0.0180099 0.811832 
0.0218767 0.0283405 0.823229 
-0.0218547 0.0883646 0.83233 
-0.0162953 0.0233463 0.941077 
-0.0331997 0.093428 0.759157 
0.0112454 -0.0913347 0.983083 
0.0410194 -0.045275 0.883408 
0.0812118 -0.0299708 0.903737 
0.0994628 -0.0736632 0.965554 
0.0125912 -0.0135307 0.898327 
0.0681949 -0.0950584 0.800603 
0.0148323 -0.086153 0.907332 
0.0528919 -0.0768422 0.852592 
-0.0262385 0.095516 0.990627 
0.0419551 0.036314 0.793706 
0.0876081 -0.0843519 0.84521 
-0.0348789 -0.0523647 0.987503 
0.0884637 0.0258896 0.876506 
0.0970776 -0.00808024 0.816859 
-0.0340684 -0.0646146 0.877866 
0.0634842 -0.0392006 0.986705 
0.0993039 -0.0119349 0.896739 
-0.0188918 -0.0404365 0.750287 
0.0148612 0.00142027 0.997539 
0.0533649 0.0563241 0.915138 
0.0465313 0.0565929 0.906773 
-0.0816382 -0.00703096 0.883155 
0.0204113 0.0734566 0.781314 
0.0866555 -0.0486161 0.989354 
-0.0211692 0.0605009 0.880807 
0.0888467 -0.0386703 0.8135 
-0.0763056 -0.0193225 0.896846 
0.039011 -0.0130832 0.80065 
0.0338254 0.0677024 0.996354 
0.0270486 -0.0645326 0.754934 
0.0788829 -0.0276932 0.847043 
0.0747415 -0.0781021 0.995221 
0.0442838 -0.0523519 0.829162 
-0.014931 0.0140848 0.836718 
0.0468414 0.0640416 0.808085 
0.0261572 -0.0731497 0.940023 
0.0739868 0.0607577 0.805253 
-0.0200482 -0.0713944 0.871238 
-0.0197392 -0.0282227 0.796853 
0.0222184 -0.0589753 0.886623 
-0.0610129 0.0876387 0.884452 
0.0569817 0.00283716 0.768848 
-0.0545224 0.0612261 0.989179 
-0.0891025 0.0865758 0.910229 
-0.0506108 -0.0224388 0.957137 
-0.0791 0.0261123 0.863357 
-0.0125014 -0.0186894 0.785963 
-0.0119278 -0.0432868 0.793301 
0.0363188 0.0831748 0.787881 
-0.0959523 -0.0970694 0.874427 
-0.00136798 -0.012354 0.812703 
-0.0246031 -0.0519017 0.800836 
-0.0199223 0.0388702 0.807603 
-0.0102394 0.0259829 0.993884 
-0.00150716 -0.0233582 0.904306 
0.0863302 0.0289388 0.787206 
-0.0305513 0.0594396 0.794418 
0.063117 0.0349908 0.996606 
-0.0950627 -0.0292001 0.956787 
-0.0711544 0.0228398 0.965259 
-0.09166 -0.0724181 0.906367 
-0.0554042 0.0226862 0.762615 
0.0217568 0.0564914 0.838037 
0.031027 -0.057401 0.791911 
-0.0518605 0.0934014 0.871882 
0.0178816 0.0388134 0.983301 
0.0981758 -0.0867814 0.844659 
0.0134225 -0.0806815 0.975101 
0.0804919 0.0412165 0.944637 
0.0194546 -0.0745628 0.992987 
-0.0466003 -0.0218127 0.81717 
-0.0491481 0.076409 0.920487 
0.0630171 0.0248556 0.764262 
-0.0951903 0.0421247 0.820913 
0.0754612 0.0136655 0.978928 
0.0227185 0.0207437 0.850692 
-0.0732558 -0.0392114 0.86449 
-0.0037706 -0.0483519 0.890875 
-0.057556 0.0296548 0.978831 
-0.0868147 0.0346338 0.956599 
-0.0876046 -0.0381302 0.884626 
0.0794682 -0.000474011 0.774509 
0.0994089 0.0180969 0.842849 
-0.0539054 -0.0951848 0.984403 
0.00103226 -0.0179949 0.834717 
0.0394248 0.0542058 0.937203 
-0.0374451 0.0677027 0.92691 
0.0368664 -0.0545526 0.838619 
-0.0413632 -0.0160981 0.897401 
-0.0757502 -0.00454632 0.906402 
-0.0893828 0.0518093 0.909358 
0.0822458 -0.0636586 0.84413 
-0.0797477 -0.0342511 0.840312 
-0.0239222 -0.0787347 0.927469 
-0.0361451 -0.0933451 0.798683 
-0.0535058 0.032763 0.802035 
0.0353133 0.060832 0.922926 
-0.0539565 0.0599474 0.800618 
0.0852099 0.0177184 0.994292 
0.0833519 0.0762655 0.985726 
0.0669207 -0.0710936 0.947685 
0.00442874 -0.0664239 0.871567 
-0.0856972 0.022092 0.788448 
-0.0257914 0.00130241 0.95069 
0.00368288 -0.0728371 0.77888 
0.0568353 0.0513067 0.994041 
-0.0524722 -0.0537036 0.938498 
0.0916457 -0.0632 0.777665 
0.0138869 -0.0342511 0.96268 
-0.0204433 0.0642357 0.757524 
-0.0263388 -0.0817695 0.835065 
-0.060666 0.049263 0.984601 
0.0613736 0.0515098 0.947145 
0.0041487 0.0332288 0.780919 
0.0265323 0.042326 0.981606 
-0.0123346 -0.0923665 0.861605 
0.081802 0.0102735 0.7648 
-0.0650326 -0.0807121 0.941327 
0.0360729 0.0563652 0.842883 
0.00261053 0.0199052 0.876348 
0.0847209 0.0916872 0.81848 
-0.0533578 -0.0702804 0.943399 
-0.0146494 -0.0182119 0.957148 
0.0829236 0.00124851 0.771409 
-0.0197933 0.00711295 0.791818 
-0.00587923 0.0503807 0.890613 
0.0882841 -0.086475 0.912103 
-0.0957831 -0.0848316 0.788976 
0.052821 -0.0621506 0.792519 
-0.0196324 -0.0413127 0.949687 
-0.064501 -0.0365994 0.992072 
-0.0495204 0.0868641 0.774847 
-0.0932009 -0.0781175 0.784081 
0.0388357 -0.00114474 0.806039 
0.0559438 0.0728903 0.788035 
0.0692341 0.0339692 0.838394 
0.0893698 -0.0526017 0.76597 
0.0864778 -0.000682733 0.762265 
0.0160774 -0.0248473 0.945758 
-0.0267232 -0.0591702 0.958551 
-0.00614217 -0.0317119 0.869231 
0.0710929 0.0380676 0.898263 
-0.0315544 0.0732813 0.858169 
0.0763059 0.019438 0.79688 
-0.079601 0.0426619 0.857177 
-0.0801554 0.0268978 0.963979 
-0.0598014 0.0892506 0.965797 
-0.00241421 0.0984036 0.751231 
-0.0231157 0.0688935 0.900311 
0.0698273 -0.0933806 0.950662 
0.0785413 -0.037061 0.815661 
0.0843389 0.0504895 0.79963 
0.0945113 -0.0773891 0.832508 
-0.0968292 -0.0448757 0.93122 
-0.00491015 0.0755149 0.896112 
0.0368439 -0.0655229 0.977262 
-0.0267499 -0.0366552 0.961325 
-0.0521843 0.0215509 0.863697 
0.012556 -0.0525593 0.878319 
0.0710034 -0.0668999 0.83576 
0.0685193 0.0246588 0.991943 
0.0921875 -0.00994026 0.883572 
-0.0164304 -0.0383837 0.920059 
-0.0690926 -0.0980453 0.964981 
-0.0357932 -0.0281828 0.805777 
0.0309805 -0.0298337 0.834481 
-0.000239602 -0.0996434 0.956544 
-0.0197184 -0.0236623 0.83314 
0.0350949 -0.0868111 0.828448 
0.0215441 0.0671475 0.888955 
-0.0594386 -0.0815573 0.906493 
-0.0937985 -0.0869776 0.845761 
-0.0756935 -0.0324092 0.991158 
-0.0583419 -0.0694856 0.89683 
-0.0210107 -0.0735913 0.979303 
-0.0844478 -0.0468102 0.811269 
0.0167585 0.00382759 0.803704 
-0.00714777 -0.0630206 0.99346 
-0.020896 -0.0441627 0.940545 
-0.0288235 -0.0747464 0.883022 
0.0395763 0.038563 0.851125 
-0.051692 0.0346351 0.861699 
-0.059476 0.00807585 0.917321 
-0.0383667 -0.0166495 0.855691 
-0.0604533 -0.0819166 0.90674 
-0.0946563 -0.0891004 0.946666 
0.053128 0.0383558 0.931201 
0.0466306 -0.0334956 0.892274 
-0.0594222 0.0372894 0.796179 
-0.0569002 -0.0130308 0.906609 
0.0782406 0.0248919 0.941494 
-0.0782992 0.0870723 0.750583 
0.00900697 0.0969326 0.861614 
-0.0872765 -0.024232 0.971865 
-0.0117167 0.00394842 0.761142 
0.0378432 -0.0835755 0.961415 
0.00439667 0.0267958 0.82628 
0.0364967 -0.0008331 0.896934 
-0.0489237 0.0022172 0.960686 
0.0576345 0.00609469 0.819245 
-0.0232101 0.0545218 0.754291 
-0.0173952 0.0275119 0.766627 
0.0591951 -0.0225531 0.914773 
0.0879145 -0.0134684 0.798422 
-0.069418 0.00754906 0.99063 
0.027071 0.0769515 0.859008 
-0.0676388 0.0412678 0.768908 
-0.0268155 -0.042969 0.982531 
-0.0120124 -0.0580037 0.789999 
0.0871587 0.0205023 0.953772 
0.0870753 -0.0456282 0.829311 
-0.0957361 -0.0839868 0.978012 
0.0301037 0.0609344 0.844017 
0.0285003 0.0958267 0.752888 
-0.00394168 -0.0217517 0.935961 
0.0900498 0.0693838 0.985713 
0.0759101 -0.0265714 0.792126 
0.0412364 -0.0825233 0.980383 
0.0559063 0.0302843 0.924495 
0.0323089 0.0606205 0.752175 
-0.0592937 -0.0261622 0.937621 
-0.0888702 -0.0422905 0.859469 
-0.0790351 0.0412953 0.767474 
0.0707846 -0.0749027 0.993807 
0.0107142 -0.056964 0.880901 
0.0384469 -0.0694582 0.766478 
0.0731294 -0.0128985 0.991098 
0.00539135 -0.0768986 0.889243 
-0.0672952 -0.0185156 0.926857 
-0.00666657 -0.0620614 0.932262 