# vtk DataFile Version 3.0 
Exported using Morpho https://github.com/Morpho-lang/morpho 
ASCII 
DATASET UNSTRUCTURED_GRID 

POINTS 1245 float 
-0.304038 -0.95266 0 
-0.251441 -0.967873 0 
-0.196599 -0.980484 0 
-0.147939 -0.988996 0 
-0.096254 -0.995357 0 
-0.0483601 -0.99883 0 
-0.000451504 -1 0 
0.0482414 -0.998836 0 
0.0956209 -0.995418 0 
0.145924 -0.989296 0 
0.198694 -0.980062 0 
0.248343 -0.968672 0 
0.30399 -0.952675 0 
-0.409672 -0.912233 0 
-0.356859 -0.934158 0 
-0.307625 -0.898571 0 
-0.256611 -0.914841 0 
-0.205389 -0.933372 0 
-0.153069 -0.927934 0 
-0.102396 -0.94791 0 
-0.0498583 -0.935106 0 
0.00142854 -0.953377 0 
0.052561 -0.9331 0 
0.104134 -0.942389 0 
0.156872 -0.938823 0 
0.206982 -0.919507 0 
0.258749 -0.920951 0 
0.310446 -0.900065 0 
0.357716 -0.93383 0 
0.410714 -0.911764 0 
-0.51437 -0.857568 0 
-0.462407 -0.886668 0 
-0.411015 -0.857376 0 
-0.359501 -0.879663 0 
-0.305707 -0.84665 0 
-0.253622 -0.86425 0 
-0.200473 -0.885626 0 
-0.148805 -0.868805 0 
-0.0992128 -0.89633 0 
-0.0484472 -0.873916 0 
0.00154915 -0.899374 0 
0.0506565 -0.870008 0 
0.099584 -0.888189 0 
0.15259 -0.889657 0 
0.203706 -0.862941 0 
0.255384 -0.874358 0 
0.307954 -0.849391 0 
0.361689 -0.879386 0 
0.412615 -0.856642 0 
0.46325 -0.886228 0 
0.514942 -0.857225 0 
-0.565364 -0.824841 0 
-0.512807 -0.802464 0 
-0.462454 -0.831649 0 
-0.409305 -0.803744 0 
-0.35814 -0.826779 0 
-0.304287 -0.794815 0 
-0.252533 -0.812725 0 
-0.199644 -0.834469 0 
-0.148659 -0.811689 0 
-0.0980329 -0.840437 0 
-0.0486484 -0.814709 0 
0.00110327 -0.841666 0 
0.0507222 -0.810511 0 
0.10012 -0.830521 0 
0.151601 -0.838979 0 
0.201398 -0.807576 0 
0.253879 -0.824556 0 
0.305585 -0.798078 0 
0.359663 -0.826545 0 
0.410331 -0.802786 0 
0.463256 -0.830671 0 
0.513382 -0.802055 0 
0.565855 -0.824505 0 
-0.661127 -0.750274 0 
-0.614521 -0.7889 0 
-0.561833 -0.769262 0 
-0.50964 -0.747742 0 
-0.460175 -0.777438 0 
-0.407225 -0.750461 0 
-0.356449 -0.774194 0 
-0.303021 -0.743169 0 
-0.251726 -0.760737 0 
-0.199698 -0.781574 0 
-0.149469 -0.755674 0 
-0.0987361 -0.784111 0 
-0.0495663 -0.757521 0 
0.00074427 -0.784506 0 
0.0499021 -0.753017 0 
0.0986422 -0.771593 0 
0.148465 -0.786798 0 
0.198905 -0.753762 0 
0.25178 -0.773224 0 
0.303018 -0.746409 0 
0.356897 -0.773838 0 
0.407278 -0.749476 0 
0.460508 -0.775969 0 
0.509912 -0.747635 0 
0.562265 -0.768427 0 
0.614899 -0.788606 0 
0.660916 -0.75046 0 
-0.707137 -0.707076 0 
-0.654232 -0.698242 0 
-0.60786 -0.732501 0 
-0.557385 -0.712939 0 
-0.507468 -0.693124 0 
-0.457791 -0.723521 0 
-0.40534 -0.697562 0 
-0.354815 -0.72183 0 
-0.302133 -0.691777 0 
-0.251077 -0.708675 0 
-0.199931 -0.727612 0 
-0.150301 -0.700335 0 
-0.0999236 -0.728385 0 
-0.051087 -0.701823 0 
-0.000421628 -0.728505 0 
0.0495464 -0.698598 0 
0.0984035 -0.713168 0 
0.147599 -0.732599 0 
0.197896 -0.700126 0 
0.250029 -0.721435 0 
0.301757 -0.694342 0 
0.353927 -0.721143 0 
0.403704 -0.696683 0 
0.456847 -0.721566 0 
0.505628 -0.694419 0 
0.557407 -0.711375 0 
0.607266 -0.730582 0 
0.652491 -0.698197 0 
0.706565 -0.707648 0 
-0.750394 -0.660991 0 
-0.698464 -0.654201 0 
-0.647093 -0.646808 0 
-0.60217 -0.67432 0 
-0.556909 -0.655804 0 
-0.506644 -0.64072 0 
-0.455848 -0.670392 0 
-0.404184 -0.645105 0 
-0.353627 -0.669626 0 
-0.301541 -0.640968 0 
-0.250517 -0.65732 0 
-0.200181 -0.673083 0 
-0.151003 -0.645606 0 
-0.100944 -0.673231 0 
-0.0519388 -0.647066 0 
-0.00212132 -0.674276 0 
0.047866 -0.647977 0 
0.0973944 -0.654915 0 
0.14682 -0.677634 0 
0.197663 -0.647208 0 
0.249531 -0.669554 0 
0.301392 -0.642514 0 
0.353151 -0.66764 0 
0.404352 -0.642769 0 
0.451679 -0.667224 0 
0.497353 -0.643748 0 
0.550472 -0.654874 0 
0.599514 -0.669274 0 
0.647435 -0.648156 0 
0.698584 -0.655155 0 
0.750179 -0.661235 0 
-0.789039 -0.614343 0 
-0.732835 -0.607626 0 
-0.675089 -0.602016 0 
-0.61271 -0.611831 0 
-0.56007 -0.604859 0 
-0.506586 -0.591159 0 
-0.4548 -0.618267 0 
-0.402585 -0.593363 0 
-0.352885 -0.617892 0 
-0.301898 -0.590774 0 
-0.249931 -0.607445 0 
-0.20047 -0.618026 0 
-0.152094 -0.591572 0 
-0.101636 -0.618979 0 
-0.0515543 -0.593574 0 
-0.00244032 -0.620678 0 
0.0493493 -0.600163 0 
0.0984462 -0.59791 0 
0.147214 -0.623273 0 
0.19846 -0.594491 0 
0.248849 -0.617954 0 
0.29924 -0.591281 0 
0.352315 -0.614754 0 
0.403831 -0.593284 0 
0.455787 -0.608592 0 
0.520167 -0.601585 0 
0.571237 -0.605653 0 
0.620059 -0.607814 0 
0.678676 -0.602486 0 
0.734122 -0.607948 0 
0.789144 -0.614208 0 
-0.824938 -0.565223 0 
-0.769277 -0.561556 0 
-0.712842 -0.556856 0 
-0.655558 -0.556882 0 
-0.604723 -0.559782 0 
-0.552376 -0.552301 0 
-0.499741 -0.541558 0 
-0.452146 -0.567692 0 
-0.399788 -0.54198 0 
-0.351333 -0.566006 0 
-0.301369 -0.539423 0 
-0.251944 -0.559984 0 
-0.202344 -0.562389 0 
-0.151729 -0.539373 0 
-0.101412 -0.56624 0 
-0.0504147 -0.541753 0 
-0.000400428 -0.568612 0 
0.0512066 -0.551572 0 
0.100052 -0.542814 0 
0.148635 -0.569469 0 
0.199383 -0.542248 0 
0.24951 -0.565612 0 
0.300492 -0.537743 0 
0.346797 -0.563054 0 
0.392054 -0.54738 0 
0.444834 -0.550376 0 
0.492055 -0.564982 0 
0.548979 -0.550909 0 
0.602765 -0.5553 0 
0.655752 -0.556591 0 
0.713249 -0.556635 0 
0.769373 -0.561367 0 
0.824922 -0.565247 0 
-0.857615 -0.514292 0 
-0.802388 -0.512635 0 
-0.747487 -0.509447 0 
-0.692481 -0.506961 0 
-0.640359 -0.506188 0 
-0.590701 -0.507101 0 
-0.539866 -0.49886 0 
-0.492526 -0.491066 0 
-0.44688 -0.51632 0 
-0.399236 -0.489206 0 
-0.350286 -0.513725 0 
-0.298979 -0.489497 0 
-0.247977 -0.513509 0 
-0.199703 -0.507566 0 
-0.150161 -0.487331 0 
-0.10059 -0.514616 0 
-0.049804 -0.490619 0 
0.000625811 -0.517509 0 
0.0508042 -0.501589 0 
0.0999639 -0.489781 0 
0.149517 -0.516323 0 
0.199861 -0.49053 0 
0.249857 -0.513971 0 
0.301105 -0.486926 0 
0.350992 -0.50621 0 
0.406179 -0.503633 0 
0.453702 -0.495579 0 
0.499381 -0.517896 0 
0.54509 -0.495628 0 
0.589875 -0.502992 0 
0.639769 -0.505125 0 
0.692133 -0.507178 0 
0.747231 -0.509351 0 
0.802239 -0.512834 0 
0.8575 -0.514485 0 
-0.886692 -0.462362 0 
-0.831447 -0.46229 0 
-0.776968 -0.459992 0 
-0.722557 -0.457864 0 
-0.668309 -0.454847 0 
-0.615699 -0.454692 0 
-0.563442 -0.455041 0 
-0.504959 -0.444494 0 
-0.448651 -0.462232 0 
-0.399535 -0.438236 0 
-0.349128 -0.46264 0 
-0.299137 -0.439068 0 
-0.248305 -0.464591 0 
-0.199624 -0.454437 0 
-0.150124 -0.436363 0 
-0.0998408 -0.463181 0 
-0.0495775 -0.439683 0 
0.000657363 -0.466432 0 
0.050398 -0.45109 0 
0.0997795 -0.438004 0 
0.14961 -0.46426 0 
0.20006 -0.439543 0 
0.250155 -0.462985 0 
0.300624 -0.436016 0 
0.349741 -0.453489 0 
0.398431 -0.460711 0 
0.448861 -0.444362 0 
0.501772 -0.463516 0 
0.556306 -0.446047 0 
0.610655 -0.453181 0 
0.665731 -0.455702 0 
0.720992 -0.458228 0 
0.776173 -0.460571 0 
0.831102 -0.462917 0 
0.886543 -0.462645 0 
-0.912236 -0.409665 0 
-0.857204 -0.410967 0 
-0.803392 -0.409217 0 
-0.74994 -0.407407 0 
-0.696663 -0.406178 0 
-0.642836 -0.402615 0 
-0.594083 -0.40314 0 
-0.543712 -0.409305 0 
-0.498184 -0.388941 0 
-0.452699 -0.414143 0 
-0.401283 -0.388854 0 
-0.349739 -0.411899 0 
-0.299455 -0.388886 0 
-0.248771 -0.414704 0 
-0.199804 -0.40237 0 
-0.150194 -0.385975 0 
-0.0998826 -0.412316 0 
-0.0496331 -0.389139 0 
0.000643541 -0.415495 0 
0.0502079 -0.40057 0 
0.099715 -0.387048 0 
0.149647 -0.41299 0 
0.200027 -0.388895 0 
0.250027 -0.412129 0 
0.301055 -0.385878 0 
0.350404 -0.401986 0 
0.40041 -0.412751 0 
0.450882 -0.391618 0 
0.499731 -0.416383 0 
0.544034 -0.393568 0 
0.59137 -0.399783 0 
0.642288 -0.404278 0 
0.695365 -0.407079 0 
0.749328 -0.408637 0 
0.803118 -0.410657 0 
0.857365 -0.412146 0 
0.912211 -0.40972 0 
-0.934162 -0.35685 0 
-0.879422 -0.35942 0 
-0.826293 -0.357958 0 
-0.773333 -0.356351 0 
-0.720158 -0.355668 0 
-0.665775 -0.356607 0 
-0.607138 -0.350008 0 
-0.553621 -0.361137 0 
-0.5022 -0.339404 0 
-0.449669 -0.361737 0 
-0.400008 -0.33791 0 
-0.350294 -0.361968 0 
-0.299735 -0.338845 0 
-0.249149 -0.364486 0 
-0.19989 -0.351123 0 
-0.150231 -0.335907 0 
-0.0999158 -0.361809 0 
-0.0496591 -0.338853 0 
0.000579022 -0.364807 0 
0.0501213 -0.350175 0 
0.0996736 -0.336536 0 
0.149689 -0.362171 0 
0.200173 -0.338592 0 
0.250216 -0.361805 0 
0.300977 -0.33584 0 
0.350317 -0.350432 0 
0.400031 -0.363711 0 
0.449445 -0.340113 0 
0.500426 -0.362497 0 
0.556035 -0.344079 0 
0.610296 -0.352686 0 
0.6665 -0.355417 0 
0.719677 -0.357923 0 
0.773735 -0.358184 0 
0.826983 -0.360351 0 
0.879942 -0.360326 0 
0.934344 -0.356372 0 
-0.952661 -0.304036 0 
-0.898427 -0.307629 0 
-0.846493 -0.305546 0 
-0.794931 -0.304029 0 
-0.743864 -0.303138 0 
-0.693611 -0.30459 0 
-0.643467 -0.30958 0 
-0.599353 -0.290969 0 
-0.55443 -0.313997 0 
-0.503336 -0.288984 0 
-0.45199 -0.311834 0 
-0.401101 -0.288191 0 
-0.349902 -0.311422 0 
-0.299643 -0.288622 0 
-0.249349 -0.314247 0 
-0.199915 -0.300435 0 
-0.150269 -0.285978 0 
-0.0999683 -0.311532 0 
-0.0497289 -0.288717 0 
0.000527779 -0.314369 0 
0.0500741 -0.299964 0 
0.0996409 -0.286337 0 
0.149787 -0.311716 0 
0.200238 -0.28842 0 
0.250326 -0.311555 0 
0.301235 -0.286006 0 
0.350591 -0.299681 0 
0.400449 -0.31341 0 
0.451856 -0.289027 0 
0.501314 -0.314699 0 
0.544921 -0.289691 0 
0.590901 -0.297941 0 
0.640135 -0.307218 0 
0.69435 -0.304347 0 
0.742809 -0.307966 0 
0.7979 -0.307375 0 
0.847482 -0.307936 0 
0.899876 -0.308548 0 
0.953167 -0.302446 0 
-0.967863 -0.251479 0 
-0.914487 -0.256648 0 
-0.863556 -0.253418 0 
-0.811732 -0.251971 0 
-0.759393 -0.251316 0 
-0.706493 -0.252194 0 
-0.653718 -0.258815 0 
-0.607533 -0.238533 0 
-0.553063 -0.261024 0 
-0.502377 -0.238056 0 
-0.452064 -0.261845 0 
-0.401205 -0.238175 0 
-0.350516 -0.261491 0 
-0.299965 -0.238667 0 
-0.249417 -0.263974 0 
-0.199916 -0.250071 0 
-0.150304 -0.236053 0 
-0.100036 -0.261399 0 
-0.0497663 -0.238671 0 
0.000445464 -0.264099 0 
0.0500404 -0.249853 0 
0.0996125 -0.23625 0 
0.149834 -0.261487 0 
0.200323 -0.238399 0 
0.25055 -0.261503 0 
0.301452 -0.23621 0 
0.351157 -0.249436 0 
0.401482 -0.263625 0 
0.451962 -0.237781 0 
0.501557 -0.260261 0 
[...]
POINT_DATA 1245 
VECTORS vectors float
0.877997 -0.280378 0.387954 
0.892108 -0.232274 0.387546 
0.903337 -0.182054 0.38838 
0.911312 -0.13695 0.388272 
0.917961 -0.0899912 0.386328 
0.919025 -0.0454943 0.391565 
0.921984 -0.00088796 0.387227 
0.919832 0.0438584 0.389853 
0.916149 0.0881224 0.391031 
0.911072 0.135231 0.389436 
0.902792 0.183707 0.388867 
0.892405 0.229636 0.388433 
0.878016 0.280387 0.387905 
0.840517 -0.377578 0.388543 
0.860824 -0.328885 0.388351 
0.766796 -0.262578 0.585727 
0.781629 -0.219695 0.583772 
0.806484 -0.178373 0.563708 
0.775997 -0.129014 0.617401 
0.814536 -0.0889139 0.573259 
0.775264 -0.0422956 0.63022 
0.818562 0.0009431 0.574417 
0.76939 0.043142 0.637321 
0.800573 0.089131 0.592569 
0.804697 0.135019 0.578129 
0.772303 0.17449 0.61082 
0.796783 0.224242 0.561117 
0.771561 0.266479 0.577653 
0.860485 0.329558 0.388533 
0.840016 0.378347 0.388878 
0.790106 -0.474055 0.388593 
0.816922 -0.42617 0.38861 
0.733032 -0.351395 0.582397 
0.751285 -0.307256 0.584094 
0.644901 -0.233107 0.727849 
0.659198 -0.193914 0.726536 
0.688196 -0.156397 0.708467 
0.629081 -0.108606 0.769715 
0.684953 -0.076521 0.724558 
0.621434 -0.0350259 0.782683 
0.682624 0.00070928 0.73077 
0.611633 0.0355278 0.790343 
0.664178 0.0749049 0.743812 
0.681539 0.117219 0.722333 
0.633464 0.150087 0.759076 
0.684211 0.200355 0.701222 
0.652258 0.236419 0.720185 
0.751986 0.309065 0.582233 
0.73202 0.352737 0.582858 
0.816397 0.426752 0.389075 
0.789557 0.474468 0.389203 
0.759937 -0.521092 0.388534 
0.687961 -0.439846 0.577273 
0.712035 -0.396061 0.579777 
0.614645 -0.313312 0.723911 
0.630949 -0.273282 0.7261 
0.528015 -0.202428 0.824756 
0.54003 -0.168021 0.824704 
0.566116 -0.13616 0.813003 
0.498475 -0.0916496 0.862046 
0.549966 -0.0649198 0.83266 
0.486322 -0.0293846 0.873285 
0.543023 0.000345798 0.839718 
0.477597 0.0298301 0.878073 
0.527618 0.0636756 0.847092 
0.559234 0.101342 0.822793 
0.50674 0.126436 0.852777 
0.566661 0.174789 0.805198 
0.535555 0.205301 0.819166 
0.63091 0.274908 0.725519 
0.613437 0.313298 0.724941 
0.710225 0.396205 0.581896 
0.687318 0.440008 0.577916 
0.759333 0.521421 0.389273 
0.691316 -0.60953 0.388015 
0.726808 -0.566498 0.388369 
0.659851 -0.482105 0.576342 
0.576356 -0.392909 0.716544 
0.596908 -0.35331 0.720328 
0.502795 -0.272761 0.820243 
0.516233 -0.237908 0.822741 
0.425791 -0.173745 0.887984 
0.434226 -0.144011 0.889218 
0.45341 -0.11638 0.883671 
0.390733 -0.0778595 0.917205 
0.431728 -0.0549279 0.90033 
0.377446 -0.0250979 0.925691 
0.423784 3.34376e-05 0.905763 
0.369616 0.0244425 0.928863 
0.408061 0.0519658 0.911474 
0.4476 0.0849579 0.890189 
0.401227 0.106189 0.909803 
0.457429 0.149256 0.876631 
0.431333 0.175213 0.885016 
0.515563 0.23773 0.823213 
0.500001 0.272123 0.822161 
0.593542 0.352594 0.723454 
0.575876 0.393003 0.716879 
0.658091 0.481995 0.578444 
0.72613 0.566786 0.389217 
0.690992 0.609408 0.388783 
0.651767 -0.65171 0.387909 
0.60416 -0.566155 0.560767 
0.627538 -0.521105 0.578486 
0.549563 -0.429897 0.716358 
0.471235 -0.34497 0.811747 
0.487768 -0.30885 0.816513 
0.404778 -0.235414 0.883592 
0.415666 -0.204418 0.886248 
0.34027 -0.148782 0.928483 
0.345174 -0.122625 0.930494 
0.357631 -0.0984393 0.92866 
0.303807 -0.0655817 0.950474 
0.336025 -0.0463516 0.940712 
0.292221 -0.0216028 0.956107 
0.328696 -0.000402977 0.944436 
0.287778 0.0202571 0.957483 
0.312768 0.0432416 0.948845 
0.35127 0.0705391 0.933613 
0.31469 0.0890941 0.945004 
0.364807 0.12628 0.92248 
0.343592 0.149554 0.927134 
0.413731 0.203204 0.887432 
0.402131 0.233113 0.885409 
0.48337 0.305974 0.820203 
0.471666 0.343808 0.81199 
0.546083 0.428313 0.719959 
0.62307 0.518435 0.58567 
0.602016 0.563513 0.565712 
0.651767 0.651398 0.388433 
0.609476 -0.691304 0.38812 
0.566327 -0.604428 0.560304 
0.512015 -0.512132 0.689609 
0.518551 -0.463338 0.718626 
0.44769 -0.380191 0.809338 
0.383771 -0.303516 0.872123 
0.394165 -0.267993 0.879098 
0.323864 -0.202947 0.924081 
0.332181 -0.175621 0.926722 
0.271243 -0.127726 0.953999 
0.273737 -0.104454 0.956116 
0.279267 -0.0834575 0.95658 
0.236087 -0.0554048 0.970151 
0.260473 -0.0394216 0.964676 
0.226213 -0.0184098 0.973904 
0.255263 -0.000979941 0.966871 
0.226743 0.0164495 0.973816 
0.238418 0.0353974 0.970517 
0.273011 0.0593073 0.960181 
0.247141 0.075281 0.966051 
0.288836 0.108045 0.951262 
0.272934 0.127971 0.953483 
0.328515 0.173866 0.928358 
0.320502 0.201594 0.925547 
0.385393 0.2614 0.884953 
0.381894 0.29535 0.875743 
0.440613 0.370429 0.817706 
0.505864 0.454354 0.733256 
0.514104 0.513662 0.686912 
0.567499 0.605676 0.557764 
0.609306 0.691418 0.388185 
0.566353 -0.726833 0.388533 
0.521058 -0.627858 0.578181 
0.463805 -0.519605 0.717562 
0.424028 -0.424636 0.799928 
0.370654 -0.343107 0.863072 
0.313626 -0.26869 0.910738 
0.316614 -0.232891 0.91952 
0.258475 -0.175496 0.949943 
0.263998 -0.150823 0.952658 
0.216398 -0.110876 0.969989 
0.217856 -0.0897455 0.971846 
0.216396 -0.0704387 0.973761 
0.183219 -0.0473828 0.981929 
0.201886 -0.0333539 0.978841 
0.17541 -0.0154481 0.984374 
0.198375 -0.000923424 0.980126 
0.181262 0.0148669 0.983322 
0.181998 0.0298054 0.982847 
0.211534 0.0498223 0.9761 
0.19345 0.064915 0.97896 
0.227779 0.0915547 0.969399 
0.215595 0.109251 0.970352 
0.260048 0.149415 0.953965 
0.258438 0.176026 0.949855 
0.304061 0.227813 0.925013 
0.33646 0.291062 0.895588 
0.379857 0.358892 0.852588 
0.424616 0.43347 0.794862 
0.467257 0.52698 0.709903 
0.52236 0.630602 0.574005 
0.566083 0.727162 0.388312 
0.520935 -0.759935 0.38875 
0.481681 -0.659611 0.576972 
0.428999 -0.548777 0.717498 
0.379976 -0.447269 0.809672 
0.342662 -0.370105 0.863484 
0.295387 -0.295488 0.908533 
0.251364 -0.231775 0.939732 
0.254043 -0.202483 0.945761 
0.20468 -0.150935 0.967122 
0.209168 -0.129968 0.969204 
0.171002 -0.0954343 0.980638 
0.175713 -0.0792605 0.981245 
0.167074 -0.0603218 0.984097 
0.143079 -0.0403729 0.988887 
0.157265 -0.028372 0.987149 
0.137025 -0.0128536 0.990484 
0.154769 -0.000409469 0.987951 
0.143522 0.0131737 0.989559 
0.140243 0.0256721 0.989784 
0.164473 0.042987 0.985444 
0.15146 0.0553131 0.986915 
0.1793 0.0792562 0.980597 
0.169183 0.0948008 0.981015 
0.204419 0.125728 0.970776 
0.206938 0.148405 0.967033 
0.231811 0.18757 0.954506 
0.272882 0.238021 0.932138 
0.291119 0.290086 0.911647 
0.335008 0.364095 0.869025 
0.379734 0.447359 0.809736 
0.429039 0.549452 0.716957 
0.481344 0.659957 0.576857 
0.520984 0.76004 0.388478 
0.473881 -0.790104 0.388809 
0.439446 -0.68769 0.577901 
0.392413 -0.575442 0.71755 
0.343699 -0.469729 0.813158 
0.30266 -0.382751 0.872868 
0.269003 -0.31328 0.910765 
0.229891 -0.24903 0.940816 
0.199633 -0.200305 0.959179 
0.201379 -0.174204 0.963898 
0.161813 -0.132189 0.977928 
0.164829 -0.112533 0.979881 
0.135384 -0.082931 0.987316 
0.140472 -0.0680942 0.98774 
0.128823 -0.0507919 0.990366 
0.111505 -0.0345418 0.993163 
0.122643 -0.0241709 0.992156 
0.107019 -0.0110576 0.994195 
0.120859 3.59247e-05 0.99267 
0.11294 0.0112235 0.993538 
0.108668 0.0222803 0.993828 
0.127906 0.037036 0.991095 
0.118663 0.048734 0.991738 
0.140858 0.068386 0.987665 
0.13378 0.0825455 0.987567 
0.159154 0.110661 0.981032 
0.175129 0.14149 0.974326 
0.18615 0.170443 0.967625 
0.226871 0.218996 0.948984 
0.230056 0.253138 0.939678 
0.263631 0.309637 0.913577 
0.300965 0.381087 0.874181 
0.343497 0.469587 0.813325 
0.392173 0.574942 0.718082 
0.439696 0.687584 0.577837 
0.474164 0.790064 0.388546 
0.425969 -0.816958 0.388753 
0.395569 -0.711445 0.580836 
0.35258 -0.595665 0.721714 
0.308111 -0.486229 0.817709 
0.265474 -0.38962 0.881884 
0.231141 -0.313435 0.921049 
0.202889 -0.250828 0.946531 
0.167494 -0.190066 0.967378 
0.159033 -0.154466 0.975115 
0.128701 -0.117267 0.984726 
0.13028 -0.0982624 0.986596 
0.106856 -0.0728918 0.991599 
0.111818 -0.0597443 0.991931 
0.099998 -0.0440764 0.994011 
0.0871189 -0.0301381 0.995742 
0.0957979 -0.020706 0.995185 
0.0833987 -0.00958728 0.99647 
0.0944938 4.03063e-05 0.995525 
0.0881967 0.00965072 0.996056 
0.0845958 0.0192202 0.99623 
0.0996336 0.0318223 0.994515 
0.0930706 0.0420958 0.994769 
0.110951 0.0600242 0.992012 
0.105515 0.0730569 0.99173 
0.12472 0.0961543 0.987522 
0.141853 0.12266 0.982259 
0.146905 0.148647 0.977918 
0.180707 0.195765 0.963857 
0.191134 0.238413 0.95217 
0.226819 0.305723 0.924709 
0.264436 0.386356 0.88363 
0.307556 0.483375 0.819608 
0.352617 0.594704 0.722488 
0.396422 0.711108 0.580668 
0.426437 0.816786 0.388603 
0.377354 -0.840575 0.388636 
0.350946 -0.732581 0.583234 
0.3129 -0.613992 0.724643 
0.272363 -0.501569 0.821126 
0.235589 -0.404032 0.883887 
0.200019 -0.31985 0.926115 
0.176323 -0.259235 0.949583 
0.158389 -0.210608 0.964654 
0.128778 -0.165111 0.977832 
0.12951 -0.141428 0.98144 
0.102624 -0.106009 0.989055 
0.102935 -0.0875231 0.99083 
0.0844925 -0.0651063 0.994295 
0.088063 -0.052981 0.994705 
0.077755 -0.038805 0.996217 
0.0682138 -0.0265141 0.997318 
0.0746043 -0.018221 0.997047 
0.0649824 -0.00837059 0.997851 
0.0735465 6.33432e-05 0.997292 
0.0686306 0.00865183 0.997605 
0.0659298 0.0167067 0.997684 
0.0776016 0.0283835 0.99658 
0.0727246 0.0374704 0.996648 
0.0869524 0.052733 0.994816 
0.0831597 0.06468 0.994435 
0.0982456 0.0858223 0.991455 
0.114461 0.111158 0.987189 
0.116269 0.133981 0.98414 
0.146014 0.17532 0.973624 
0.14795 0.204704 0.967578 
0.171994 0.25457 0.951637 
0.201447 0.320112 0.925715 
0.235358 0.402337 0.884721 
0.273592 0.501382 0.820831 
0.31433 0.61423 0.723822 
0.352729 0.733671 0.580783 
0.377741 0.840409 0.388617 
0.328599 -0.860911 0.3884 
0.306837 -0.7508 0.584936 
0.272563 -0.629692 0.727459 
0.237055 -0.514506 0.824068 
0.204217 -0.413321 0.88739 
0.175817 -0.327939 0.928194 
0.144209 -0.250259 0.957379 
0.131096 -0.201183 0.970742 
0.103878 -0.153243 0.982714 
0.101149 -0.125723 0.986895 
0.0804777 -0.0952295 0.992197 
0.0815658 -0.0789345 0.993537 
0.0659085 -0.058353 0.996118 
0.0690567 -0.0472397 0.996494 
0.0604796 -0.0344057 0.997576 
0.0527742 -0.0238518 0.998322 
0.0579927 -0.0161509 0.998186 
0.0503879 -0.00733248 0.998703 
0.0571019 -0.000240126 0.998368 
0.0534185 0.00762416 0.998543 
0.0507557 0.0151748 0.998596 
0.0602795 0.024757 0.997874 
0.0567135 0.0334739 0.997829 
0.0680796 0.0472057 0.996562 
0.065115 0.0584885 0.996162 
0.0768526 0.0769343 0.99407 
0.0909584 0.0999576 0.990825 
0.0909988 0.120473 0.988537 
0.115021 0.158515 0.980634 
0.121912 0.197105 0.972773 
0.147457 0.255171 0.955586 
0.175305 0.328341 0.928149 
0.205935 0.413763 0.886787 
0.239075 0.516431 0.822279 
0.276006 0.632743 0.723503 
0.308244 0.752238 0.582343 
0.32863 0.860826 0.388562 
0.280113 -0.878119 0.387871 
0.262396 -0.766622 0.586037 
0.232401 -0.644425 0.728496 
0.202221 -0.528251 0.824656 
0.173872 -0.427105 0.887327 
0.151319 -0.344387 0.926553 
0.133793 -0.277972 0.951226 
0.107464 -0.221578 0.969203 
0.105863 -0.186352 0.976763 
0.0813379 -0.14215 0.986498 
0.0798908 -0.115991 0.990032 
0.063186 -0.0878377 0.994129 
0.0633569 -0.0712499 0.995444 
0.0513647 -0.0533399 0.997254 
0.053728 -0.0428473 0.997636 
0.0465381 -0.0310659 0.998433 
0.0408262 -0.0213924 0.998937 
0.0447728 -0.0144943 0.998892 
0.0386707 -0.00696024 0.999228 
0.0437058 0.000184526 0.999044 
0.0411324 0.00660319 0.999132 
0.0390819 0.0135285 0.999144 
0.0467376 0.0223945 0.998656 
0.0434077 0.0302591 0.998599 
0.0529875 0.0424963 0.997691 
0.050484 0.0532381 0.997305 
0.0597638 0.0699154 0.995761 
0.0714033 0.0913803 0.993253 
0.071604 0.111615 0.991168 
0.0917763 0.146605 0.984928 
0.0916957 0.172347 0.980759 
0.108639 0.215255 0.970496 
0.130552 0.272502 0.953257 
0.151468 0.345425 0.926142 
0.177384 0.427461 0.88646 
0.20691 0.536389 0.818215 
0.235567 0.64791 0.724376 
0.264395 0.770042 0.580629 
0.279096 0.878065 0.388726 
0.232174 -0.892229 0.387328 
0.219205 -0.780887 0.584949 
0.193234 -0.657722 0.728054 
0.166968 -0.537717 0.826427 
0.142919 -0.431496 0.890722 
0.122254 -0.342346 0.931586 
0.10784 -0.271907 0.956262 
0.0844978 -0.214933 0.972967 
0.0812117 -0.171825 0.981774 
0.0624905 -0.131527 0.989341 
0.0623811 -0.107245 0.992274 
0.0480684 -0.0813101 0.995529 
0.049046 -0.0657757 0.996628 
0.0389589 -0.0490798 0.998035 
0.0411204 -0.0387031 0.998404 
0.0353611 -0.0284186 0.99897 
0.0308222 -0.0198351 0.999328 
0.034133 -0.0129525 0.999333 
0.0290338 -0.00606393 0.99956 
0.0336905 1.88842e-06 0.999432 
0.0310185 0.00625538 0.999499 
0.0294588 0.0123983 0.999489 
0.0355729 0.0204066 0.999159 
0.0332556 0.0278378 0.999059 
0.0405833 0.0388929 0.998419 
0.0385335 0.0492845 0.998041 
0.0459214 0.0645993 0.996854 
0.0552991 0.084402 0.994896 
0.0543546 0.103691 0.993123 
0.0701843 0.135058 0.988349 
0.0735033 0.171491 0.98244 
0.0912429 0.221748 0.970826 
0.112141 0.283099 0.952512 
0.122759 0.35237 0.927774 
0.153794 0.445174 0.882138 
0.168221 0.54494 0.821427 
0.197783 0.662079 0.722865 
0.219062 0.782413 0.58296 
0.229638 0.892069 0.389204 
0.182081 -0.903364 0.388304 
0.178236 -0.806193 0.564168 
0.156418 -0.68687 0.709748 
0.134777 -0.563144 0.815294 
0.115275 -0.449465 0.885829 
0.0980866 -0.351976 0.930856 
0.0845618 -0.271261 0.958784 
0.0641212 -0.204433 0.976778 
0.0624385 -0.163474 0.98457 
0.0467758 -0.125274 0.991019 
0.0468435 -0.100439 0.99384 
0.0360654 -0.076405 0.996424 
0.0369841 -0.0610867 0.997447 
0.0288298 -0.0458618 0.998532 
0.0309302 -0.0362369 0.998864 
0.0263668 -0.0262977 0.999306 
0.0225084 -0.0180569 0.999584 
0.0253607 -0.0122869 0.999603 
0.0215988 -0.00559411 0.999751 
0.0247646 -0.000149023 0.999693 
0.0228923 0.00577213 0.999721 
0.0218141 0.0114784 0.999696 
0.0263605 0.0186692 0.999478 
0.0243062 0.0258996 0.999369 
0.0303453 0.0360463 0.998889 
0.028374 0.045861 0.998545 
0.0341727 0.0604258 0.997588 
0.042084 0.0789566 0.995989 
0.0410274 0.098672 0.994274 
0.054467 0.130139 0.989999 
0.0541357 0.160719 0.985514 
0.0683223 0.207377 0.975872 
0.0868761 0.268929 0.959234 
0.0909861 0.334259 0.938079 
0.120408 0.429961 0.894782 
0.127611 0.534602 0.835414 
0.157495 0.662404 0.732404 
0.173815 0.788866 0.589473 
0.180581 0.903128 0.389551 
0.137076 -0.911138 0.388636 
0.128779 -0.77508 0.6186 
0.107917 -0.626878 0.771608 
0.0912413 -0.495903 0.863571 
0.0768445 -0.388535 0.918224 
0.067019 -0.304848 0.95004 
0.0589593 -0.243168 0.968191 
0.0434114 -0.193643 0.980111 
0.0457213 -0.156656 0.986594 
0.0329936 -0.119531 0.992282 
0.0340616 -0.0952967 0.994866 
0.0250121 -0.0727691 0.997035 
0.0264585 -0.0579208 0.997971 
0.0202376 -0.0434418 0.998851 
0.0221349 -0.0338004 0.999183 
0.0184358 -0.0247548 0.999524 
0.0156987 -0.0175012 0.999724 
0.0181947 -0.0112843 0.999771 
0.0145179 -0.00550064 0.999879 
0.0179338 4.4896e-05 0.999839 
0.0162848 0.00529624 0.999853 
0.0145375 0.0109155 0.999835 
0.0189864 0.0177749 0.999662 
0.0168336 0.0243528 0.999562 
0.0218251 0.0339966 0.999184 
0.0198574 0.0438003 0.998843 
0.024279 0.0573092 0.998061 
0.0303839 0.074696 0.996743 
0.0287956 0.0938673 0.995168 
0.0390844 0.122732 0.99167 
0.0370367 0.153697 0.987424 
0.0491901 0.198179 0.978931 
0.0640978 0.256496 0.964418 
0.0636932 0.322863 0.9443 
0.0893563 0.414462 0.905669 
0.0897776 0.513056 0.853647 
0.112654 0.63581 0.76358 
0.128601 0.780705 0.611524 
0.134859 0.911307 0.389015 
0.0886634 -0.916803 0.389372 
0.0893791 -0.814273 0.573559 
0.0767642 -0.683154 0.726229 
0.0639974 -0.545575 0.835615 
0.0538327 -0.425379 0.903413 
0.0462039 -0.327754 0.943633 
0.0401018 -0.250472 0.967293 
0.0277081 -0.189609 0.981469 
0.0301455 -0.148949 0.988385 
0.0199619 -0.115445 0.993113 
0.0227543 -0.091719 0.995525 
0.0154564 -0.070365 0.997402 
0.0177455 -0.0551383 0.998321 
0.0121994 -0.0420232 0.999042 
0.0148099 -0.0323124 0.999368 
0.0119052 -0.0236455 0.99965 
0.00942697 -0.0165218 0.999819 
0.0119714 -0.0105916 0.999872 
0.00937523 -0.0051648 0.999943 
0.0116479 0.000105384 0.999932 
0.0103178 0.00509961 0.999934 
0.00924148 0.0104345 0.999903 
0.0126165 0.0166248 0.999782 
0.0103461 0.0236839 0.999666 
0.0143646 0.0323383 0.999374 
0.011754 0.0419896 0.999049 
0.0157468 0.0549865 0.998363 
0.0202998 0.0717805 0.997214 
0.0173812 0.0904741 0.995747 
0.0262689 0.117949 0.992672 
0.0227258 0.149147 0.988554 
0.0315007 0.19256 0.980779 
0.0433628 0.248247 0.967726 
0.0396319 0.315742 0.948017 
0.0600979 0.40766 0.911154 
0.0586939 0.523993 0.849698 
0.0776302 0.667575 0.740484 
0.0874484 0.806218 0.58512 
0.0876715 0.916904 0.389361 
0.0445064 -0.920542 0.3881 
0.0424864 -0.774524 0.631116 
0.0354367 -0.619532 0.784171 
0.029563 -0.483188 0.875017 
0.0244959 -0.373541 0.92729 
0.022065 -0.29146 0.956328 
0.0201927 -0.231591 0.972604 
0.0108463 -0.185768 0.982534 
0.0163586 -0.14715 0.988979 
0.00881921 -0.113786 0.993466 
0.0122361 -0.0890489 0.995952 
0.00661426 -0.0688759 0.997603 
0.00948524 -0.0539536 0.998498 
0.00547967 -0.0408526 0.99915 
0.00798004 -0.0313463 0.999477 
0.00569864 -0.0231197 0.999716 
0.00401567 -0.0161231 0.999862 
0.00621304 -0.0105958 0.999925 
0.00365768 -0.0048118 0.999982 
0.00645469 -0.000117779 0.999979 
0.0048214 0.0050675 0.999976 
0.00372767 0.0101824 0.999941 
0.00639299 0.0163552 0.999846 
0.00436263 0.0228328 0.99973 
0.00781307 0.0314383 0.999475 
0.00506568 0.0413752 0.999131 
0.00742786 0.0536495 0.998532 
0.0111809 0.0694929 0.99752 
0.00776998 0.0890799 0.995994 
0.013893 0.115226 0.993242 
0.00907407 0.146939 0.989104 
0.0152625 0.189129 0.981834 
0.0244408 0.24427 0.969399 
0.0171537 0.312933 0.94962 
0.0340382 0.402929 0.914598 
0.0251437 0.501366 0.86487 
0.0359987 0.625353 0.779512 
0.0419546 0.773851 0.631977 
0.0436379 0.920569 0.388134 
0.000603961 -0.922782 0.385323 
0.000504353 -0.819777 0.572682 
0.000515419 -0.683564 0.72989 
0.00011811 -0.542531 0.840036 
0.000204585 -0.419764 0.907633 
0.000432453 -0.321034 0.947067 
0.00208871 -0.244427 0.969665 
-0.00379376 -0.186947 0.982363 
0.00272087 -0.144701 0.989472 
-0.00275693 -0.113485 0.993536 
0.00206588 -0.0886168 0.996064 
-0.00180231 -0.0688648 0.997624 
0.00168353 -0.0531192 0.998587 
-0.00158077 -0.0410524 0.999156 
0.00180764 -0.0308264 0.999523 
1.64436e-05 -0.0229193 0.999737 
-0.00153688 -0.0162064 0.999867 
0.00142294 -0.0102977 0.999946 
-0.00104962 -0.00512369 0.999986 
0.00143666 -4.49362e-05 0.999999 
0.000115835 0.00497514 0.999988 
-0.00152421 0.0101187 0.999948 
0.00140073 0.0159891 0.999871 
-0.00124775 0.0229851 0.999735 
0.00120264 0.0310059 0.999518 
-0.0018144 0.040872 0.999163 
-0.000141878 0.0533197 0.998577 
0.0023123 0.0689401 0.997618 
-0.00233375 0.0884241 0.99608 
0.00237267 0.113893 0.99349 
-0.0041824 0.14698 0.989131 
-0.000239385 0.187945 0.98218 
0.00577276 0.242108 0.970232 
-0.00487798 0.310481 0.950567 
0.0066225 0.400417 0.916309 
-0.00484513 0.519922 0.8542 
0.00027777 0.668923 0.743331 
-0.000863727 0.813099 0.582124 
0.000449738 0.922826 0.385216 
-0.043353 -0.92053 0.388259 
-0.041984 -0.774882 0.63071 
-0.0348536 -0.620915 0.783103 
-0.0287795 -0.484683 0.874216 
-0.0245445 -0.375492 0.9265 
-0.0201208 -0.291899 0.956237 
-0.0161183 -0.233198 0.972296 
-0.0200863 -0.188623 0.981844 
-0.0101612 -0.146972 0.989088 
-0.0143184 -0.115162 0.993244 
-0.00734774 -0.0887931 0.996023 
-0.0108442 -0.0694126 0.997529 
-0.00578905 -0.0534605 0.998553 
-0.00829993 -0.041113 0.99912 
-0.00457869 -0.0310778 0.999506 
-0.00565367 -0.0229315 0.999721 
-0.00685152 -0.0164674 0.999841 
-0.00422034 -0.0101177 0.99994 
-0.00601129 -0.00512935 0.999969 
-0.0037128 0.000174804 0.999993 
-0.00502931 0.00490341 0.999975 
-0.00659294 0.0104276 0.999924 
-0.00438644 0.0162315 0.999859 
-0.00727694 0.0230519 0.999708 
-0.00484503 0.0313058 0.999498 
-0.00909634 0.0417318 0.999087 
-0.00766016 0.0537527 0.998525 
-0.00612544 0.0688537 0.997608 
-0.0123422 0.0897989 0.995883 
-0.0085251 0.114326 0.993407 
-0.0176847 0.147999 0.988829 
-0.0158054 0.189217 0.981808 
-0.0126087 0.24283 0.969987 
-0.0269265 0.314442 0.948895 
-0.0186911 0.400104 0.916279 
-0.0359375 0.498685 0.866038 
-0.0362734 0.622613 0.781689 
-0.0423134 0.771861 0.634382 