# vtk DataFile Version 3.0 
Exported using Morpho https://github.com/Morpho-lang/morpho 
ASCII 
DATASET UNSTRUCTURED_GRID 

POINTS 1978 float 
-12 -4 -6.00838e-13 
-11.6243 -4 1.92356e-12 
-11.2729 -4 1.90744e-12 
-10.9569 -4 4.64493e-13 
-10.659 -4 -1.93548e-13 
-10.3291 -4 -7.87648e-14 
-10.0154 -4 3.58417e-13 
-9.67588 -4 5.94182e-13 
-9.33046 -4 6.54725e-14 
-9.00495 -4 -6.49916e-13 
-8.69987 -4 -1.20865e-12 
-8.3695 -4 -1.50462e-12 
-8.07246 -4 -1.36431e-12 
-7.77363 -4 -1.46412e-12 
-7.46486 -4 -1.20668e-12 
-7.18629 -4 -1.07897e-12 
-6.86827 -4 -1.29339e-12 
-6.56342 -4 -1.35073e-12 
-6.26522 -4 -1.51119e-12 
-5.96703 -4 -1.63676e-12 
-5.6748 -4 -1.27e-12 
-5.38435 -4 7.30133e-14 
-5.09822 -4 2.78272e-12 
-4.81268 -4 7.02382e-12 
-4.51259 -4 1.289e-11 
-4.21661 -4 2.09143e-11 
-3.89714 -4 3.46385e-11 
-3.54221 -4 5.4647e-11 
-3.18017 -4 7.69582e-11 
-2.82163 -4 1.05645e-10 
-2.48812 -4 1.21847e-10 
-2.16566 -4 1.24846e-10 
-1.89943 -4 1.18334e-10 
-1.6398 -4 1.23552e-10 
-1.38624 -4 1.14145e-10 
-1.08604 -4 1.07286e-10 
-0.896436 -4 2.87205e-12 
-0.60055 -4 1.09623e-12 
-0.401205 -4 -2.52989e-11 
-0.0794736 -4 -5.9478e-11 
0.396615 -4 1.06037e-10 
0.625497 -4 -4.75199e-12 
0.911682 -4 -2.53315e-11 
1.12801 -4 -9.92762e-11 
1.46826 -4 -9.08964e-11 
1.65343 -4 -1.00935e-10 
1.92738 -4 -1.05961e-10 
2.14307 -4 -1.03103e-10 
2.45828 -4 -1.16107e-10 
2.7926 -4 -1.12318e-10 
3.19031 -4 -9.29687e-11 
3.57212 -4 -6.20008e-11 
3.93547 -4 -3.64409e-11 
4.25852 -4 -2.00629e-11 
4.547 -4 -1.11878e-11 
4.81647 -4 -5.29785e-12 
5.11337 -4 -2.15857e-12 
5.39954 -4 4.65511e-14 
5.68584 -4 1.22318e-12 
5.98382 -4 1.64581e-12 
6.28121 -4 1.41026e-12 
6.56815 -4 1.20895e-12 
6.86228 -4 9.97267e-13 
7.14634 -4 9.47433e-13 
7.43663 -4 1.22424e-12 
7.748 -4 1.42763e-12 
8.06083 -4 1.38981e-12 
8.36415 -4 1.34401e-12 
8.67838 -4 1.02196e-12 
8.95934 -4 9.52815e-13 
9.31488 -4 4.37184e-13 
9.62397 -4 -1.38801e-13 
9.91974 -4 -1.86444e-13 
10.2656 -4 1.4348e-13 
10.5657 -4 -8.04333e-14 
10.9697 -4 -7.15386e-13 
11.2916 -4 -2.04645e-12 
11.6338 -4 -1.84702e-12 
12 -4 6.72959e-13 
-12 -3.66043 2.61948e-13 
-11.6781 -3.67936 -5.52801e-13 
-11.3412 -3.67511 -1.62373e-12 
-11.0065 -3.6531 -1.5538e-12 
-10.6873 -3.63634 -9.80186e-13 
-10.373 -3.67684 -4.91557e-13 
-10.042 -3.65938 -1.79357e-13 
-9.71851 -3.68316 -1.65048e-14 
-9.38372 -3.69129 6.14988e-14 
-9.05281 -3.67684 2.77762e-13 
-8.74706 -3.66378 6.12667e-13 
-8.4371 -3.69121 9.54433e-13 
-8.11799 -3.65718 1.14683e-12 
-7.8126 -3.65823 1.34816e-12 
-7.50392 -3.66734 1.54503e-12 
-7.1958 -3.63572 1.60227e-12 
-6.90287 -3.68835 1.93282e-12 
-6.58809 -3.68005 2.4166e-12 
-6.28169 -3.68105 2.95505e-12 
-5.98402 -3.68407 3.77464e-12 
-5.68456 -3.67853 4.80018e-12 
-5.39332 -3.67506 5.86858e-12 
-5.09706 -3.66719 6.12754e-12 
-4.78678 -3.66655 6.84731e-12 
-4.47065 -3.63881 7.39021e-12 
-4.12734 -3.63303 8.84457e-12 
-3.76343 -3.61345 1.20823e-11 
-3.39294 -3.59047 -5.8866e-12 
-3.05829 -3.57654 1.65312e-11 
-2.72714 -3.66649 -2.50028e-12 
-2.42866 -3.7237 1.37407e-11 
-2.13462 -3.78429 6.94822e-12 
-1.90888 -3.7601 4.47604e-11 
-1.71519 -3.8316 -1.06517e-11 
-1.41554 -3.84323 8.77471e-11 
-1.18787 -3.85352 -2.63882e-11 
-0.751808 -3.8995 2.2962e-11 
-0.534111 -3.85451 3.35151e-11 
-0.287107 -3.9163 -2.39527e-11 
-0.0261034 -3.88454 -4.53135e-11 
0.192011 -3.94484 4.39164e-11 
0.515853 -3.8879 -4.24091e-11 
0.754154 -3.90487 -1.25623e-11 
1.06849 -3.84227 -9.42214e-13 
1.32183 -3.88712 -2.98559e-11 
1.75686 -3.83155 -1.27964e-11 
1.98742 -3.73367 -9.00801e-12 
2.24609 -3.74953 -1.87669e-11 
2.5232 -3.68488 -2.07102e-11 
2.86025 -3.69402 4.35017e-12 
3.17924 -3.6161 -1.00149e-12 
3.51951 -3.6214 -6.28523e-13 
3.88122 -3.61586 -1.04572e-11 
4.23405 -3.62561 -9.92273e-12 
4.55171 -3.63521 -7.89068e-12 
4.87222 -3.68897 -7.40825e-12 
5.17917 -3.68493 -6.38428e-12 
5.47895 -3.68038 -5.61149e-12 
5.7764 -3.6776 -4.433e-12 
6.07577 -3.6681 -3.56028e-12 
6.36733 -3.64827 -2.85558e-12 
6.66512 -3.6598 -2.26947e-12 
6.95986 -3.65102 -1.91219e-12 
7.2518 -3.65743 -1.57817e-12 
7.55339 -3.67416 -1.45079e-12 
7.85614 -3.66606 -1.27886e-12 
8.1518 -3.64896 -1.07762e-12 
8.45172 -3.66339 -9.37119e-13 
8.74052 -3.63073 -6.58472e-13 
9.06744 -3.70653 -4.3001e-13 
9.38987 -3.66432 -2.11329e-13 
9.69729 -3.64794 -1.00893e-13 
10.0322 -3.69565 6.58374e-14 
10.3504 -3.63568 4.38257e-13 
10.6989 -3.72048 1.09127e-12 
11.0236 -3.64511 1.56746e-12 
11.3466 -3.65653 1.60432e-12 
11.6813 -3.67821 5.76195e-13 
12 -3.64853 -5.36737e-13 
-12 -3.34591 1.81941e-13 
-11.6711 -3.33846 -1.7268e-13 
-11.3465 -3.33807 -4.78446e-13 
-11.0241 -3.30884 -8.41488e-13 
-10.6867 -3.30638 -1.03896e-12 
-10.3472 -3.34049 -5.56822e-13 
-10.0092 -3.33026 -2.41621e-13 
-9.69399 -3.33748 -6.64749e-14 
-9.38892 -3.37447 6.2111e-14 
-9.0862 -3.33611 2.02817e-13 
-8.78448 -3.32232 3.36526e-13 
-8.4781 -3.36247 5.52886e-13 
-8.1651 -3.33518 7.48999e-13 
-7.84557 -3.32089 1.0652e-12 
-7.53275 -3.33109 1.11498e-12 
-7.22902 -3.28728 1.36233e-12 
-6.92854 -3.34517 1.76146e-12 
-6.63298 -3.35695 2.07428e-12 
-6.33015 -3.36244 2.57955e-12 
-6.03198 -3.35866 3.14411e-12 
-5.74084 -3.36064 4.07696e-12 
-5.44547 -3.34212 4.58382e-12 
-5.15363 -3.33603 5.72636e-12 
-4.84557 -3.33739 5.78146e-12 
-4.51623 -3.29635 6.60627e-12 
-4.17169 -3.29809 9.69387e-12 
-3.81589 -3.27872 -8.19869e-14 
-3.46351 -3.24911 2.33122e-11 
-3.156 -3.21804 -1.91628e-11 
-2.8391 -3.32128 -7.84221e-12 
-2.57287 -3.40814 -5.62168e-12 
-2.17617 -3.56614 8.37279e-14 
-1.9489 -3.55661 4.73919e-11 
-1.69795 -3.61646 -2.61534e-11 
-1.52409 -3.72847 3.80479e-11 
-1.30403 -3.66891 4.16624e-11 
-0.985955 -3.82327 -3.66177e-11 
-0.618297 -3.71591 -2.83068e-11 
-0.202649 -3.8153 9.0087e-12 
0.0855361 -3.80326 1.13738e-11 
0.310312 -3.84738 -6.2588e-11 
0.661154 -3.74804 4.11483e-11 
0.897134 -3.80678 -9.7209e-12 
1.20416 -3.73554 -1.86067e-11 
1.51349 -3.77972 -1.74789e-11 
1.74515 -3.63296 -1.91494e-11 
1.99521 -3.50846 -1.58174e-11 
2.23804 -3.4841 -1.06279e-11 
2.55059 -3.41189 -6.04763e-12 
2.8475 -3.38775 1.17507e-11 
3.16593 -3.31012 2.18764e-12 
3.50092 -3.27913 2.35135e-12 
3.82964 -3.25664 -3.44181e-14 
4.16561 -3.26823 -1.02266e-11 
4.50613 -3.27766 -6.90809e-12 
4.81644 -3.35416 -6.49303e-12 
5.11833 -3.36663 -5.63192e-12 
5.4175 -3.36607 -4.72196e-12 
5.71592 -3.35209 -3.89019e-12 
6.01227 -3.34138 -2.97834e-12 
6.30922 -3.3105 -2.20157e-12 
6.61316 -3.32436 -1.89642e-12 
6.91722 -3.31647 -1.61886e-12 
7.22326 -3.3182 -1.26633e-12 
7.5227 -3.34242 -1.17297e-12 
7.82546 -3.32905 -9.97793e-13 
8.1259 -3.30078 -7.28407e-13 
8.4252 -3.31265 -4.59645e-13 
8.73388 -3.29869 -3.66413e-13 
9.04629 -3.38425 -2.86781e-13 
9.36054 -3.33418 -1.64388e-13 
9.67271 -3.30711 -2.25991e-14 
9.99074 -3.3683 1.31155e-13 
10.3132 -3.30579 4.77963e-13 
10.6577 -3.38832 1.05455e-12 
10.9947 -3.31782 1.09628e-12 
11.3361 -3.30763 5.80571e-13 
11.6666 -3.33415 6.93766e-14 
12 -3.31052 -1.42412e-13 
-12 -3.02486 1.47777e-13 
-11.6505 -3.00595 1.0042e-13 
-11.3073 -2.99758 4.77776e-13 
-10.9628 -2.9762 -2.42907e-14 
-10.6094 -2.9847 -3.23158e-13 
-10.2763 -3.01364 -2.09074e-13 
-9.9482 -2.98804 -1.18029e-13 
-9.63624 -2.9912 -1.00273e-14 
-9.33961 -3.01968 7.67935e-14 
-9.03861 -2.98366 1.136e-13 
-8.73653 -2.96962 4.22535e-16 
-8.44414 -3.02734 -2.68778e-14 
-8.13231 -2.99901 -2.329e-14 
-7.82708 -2.98135 -5.71876e-14 
-7.51845 -2.99078 1.49103e-13 
-7.21479 -2.94124 -3.19103e-13 
-6.91208 -3.00761 1.79119e-13 
-6.60207 -3.02952 1.59471e-13 
-6.30521 -3.034 1.11255e-13 
-6.01215 -3.02618 -7.45717e-14 
-5.72004 -3.02617 -4.23299e-14 
-5.42524 -2.99528 -8.97019e-13 
-5.11452 -2.99379 -7.94527e-13 
-4.78558 -2.9965 -1.29016e-12 
-4.4326 -2.96212 -1.10581e-12 
-4.1085 -2.97316 -4.43359e-12 
-3.81026 -2.95078 -9.48652e-12 
-3.5468 -2.97372 -1.84914e-11 
-3.27966 -2.92634 1.14602e-11 
-3.03326 -2.97436 2.62318e-11 
-2.82067 -3.08723 1.33573e-12 
-2.3428 -3.41555 2.90114e-11 
-2.11093 -3.33732 -3.13616e-11 
-1.75698 -3.44354 -1.14198e-11 
-1.46992 -3.53908 1.04525e-11 
-1.2067 -3.51093 -4.67653e-12 
-1.10624 -3.65485 -6.30688e-11 
-0.79892 -3.75575 1.07607e-10 
-0.408504 -3.75667 1.08492e-11 
-0.101383 -3.6944 3.89167e-11 
0.2925 -3.72544 3.55227e-11 
0.790928 -3.64737 -9.99588e-12 
0.968595 -3.63446 1.18575e-11 
1.25108 -3.60878 -6.10329e-11 
1.49761 -3.60983 -5.51678e-11 
1.74834 -3.44697 -3.90003e-11 
2.13295 -3.26823 1.10781e-11 
2.39349 -3.24583 -1.27779e-11 
2.70969 -3.15828 7.29767e-12 
2.9657 -3.11433 9.75413e-13 
3.27478 -3.04054 4.64075e-12 
3.54128 -2.97949 1.66776e-11 
3.8169 -2.9243 4.76418e-12 
4.10782 -2.93142 6.90578e-12 
4.43794 -2.94454 2.26809e-12 
4.78911 -2.99077 1.28446e-12 
5.0998 -3.02634 2.18485e-13 
5.40711 -3.041 -2.56648e-13 
5.70987 -3.02145 2.98572e-13 
6.0057 -3.00727 3.04067e-13 
6.3079 -2.97638 3.38655e-13 
6.60613 -2.99456 4.04347e-14 
6.9163 -2.9907 -1.82163e-14 
7.22715 -2.99255 -1.17727e-13 
7.53631 -3.01017 -1.27004e-13 
7.84145 -2.99022 -6.78491e-14 
8.13791 -2.95602 1.42433e-13 
8.43998 -2.97401 3.27692e-14 
8.75246 -2.97296 -2.48239e-14 
9.06581 -3.05382 -9.41717e-14 
9.37573 -2.99668 -8.94863e-14 
9.67417 -2.95599 2.49001e-14 
9.98081 -3.03374 1.51141e-13 
10.2986 -2.96702 2.23112e-13 
10.6291 -3.05942 5.39028e-13 
10.9738 -2.99181 5.21972e-14 
11.3112 -2.97432 -6.16574e-13 
11.6527 -2.99685 4.49605e-14 
12 -2.98874 -1.80049e-13 
-12 -2.71044 -1.22213e-13 
-11.6467 -2.68178 2.57002e-13 
-11.3174 -2.65843 6.89526e-13 
-10.9747 -2.64054 6.44576e-13 
-10.6338 -2.65602 1.87557e-13 
-10.2943 -2.66935 3.96156e-14 
-9.97776 -2.65786 2.78088e-14 
-9.64568 -2.64595 1.08618e-13 
-9.33179 -2.66254 1.60638e-13 
-9.02779 -2.6323 1.483e-13 
-8.70244 -2.64141 -6.89781e-15 
-8.38215 -2.68084 -1.78223e-13 
-8.078 -2.64676 -2.64277e-13 
-7.76525 -2.64691 -3.59614e-13 
-7.46969 -2.6412 -4.49537e-13 
-7.13707 -2.62228 -8.19063e-13 
-6.83746 -2.6861 -7.82299e-13 
-6.54463 -2.68839 -1.09891e-12 
-6.25482 -2.6953 -1.47316e-12 
-5.96395 -2.68467 -2.10274e-12 
[...]
POINT_DATA 1978 
VECTORS vectors float
0.00102342 -0.00119218 0.999999 
0.000239226 -0.035489 0.99937 
5.61927e-05 -0.0270246 0.999635 
0.000587149 -0.0101757 0.999948 
0.000427511 -0.00136059 0.999999 
0.000358868 -0.00222502 0.999997 
0.000398543 -0.00592964 0.999982 
0.000245921 -0.00566961 0.999984 
0.000303547 0.000307867 1 
0.000450725 0.00758017 0.999971 
0.000366333 0.0130819 0.999914 
0.000397742 0.0166112 0.999862 
0.00051934 0.0175123 0.999847 
0.000433222 0.0173519 0.999849 
0.000513524 0.0163136 0.999867 
0.000539243 0.0162907 0.999867 
0.000387316 0.0177011 0.999843 
0.000412274 0.0219784 0.999758 
0.000481703 0.0303206 0.99954 
0.000480536 0.0422381 0.999107 
0.000469939 0.0564292 0.998406 
0.000483439 0.0717115 0.997425 
0.000494863 0.0868227 0.996224 
0.000465252 0.0996597 0.995021 
0.000423032 0.112143 0.993692 
0.000340178 0.122498 0.992469 
0.000239934 0.13259 0.991171 
0.000193563 0.14256 0.989786 
0.000148327 0.155123 0.987895 
0.000128619 0.169724 0.985492 
0.000155216 0.183873 0.98295 
0.000240954 0.202775 0.979225 
0.000359628 0.223878 0.974617 
0.000280152 0.266469 0.963843 
0.000172521 0.324432 0.945909 
-0.000199999 0.469396 0.882988 
-3.77369e-05 0.569209 0.822193 
-0.000200851 0.770009 0.638033 
-5.70288e-05 0.897228 0.441568 
9.69242e-05 0.996673 0.0815033 
-9.79258e-05 0.888006 -0.459831 
8.64103e-05 0.763386 -0.645943 
6.54563e-05 0.583624 -0.812024 
2.98646e-05 0.46798 -0.883739 
-0.000161647 0.321597 -0.946877 
-0.000404898 0.276842 -0.960915 
-0.000431821 0.226472 -0.974018 
-0.000358156 0.20356 -0.979062 
-0.000184453 0.184308 -0.982868 
-9.64862e-05 0.171001 -0.985271 
-6.49751e-05 0.153823 -0.988098 
-0.000139284 0.142284 -0.989826 
-0.000228266 0.13034 -0.991469 
-0.00035913 0.119588 -0.992824 
-0.000539657 0.107574 -0.994197 
-0.000523884 0.0954302 -0.995436 
-0.000450547 0.0822539 -0.996611 
-0.000522073 0.0696501 -0.997571 
-0.000482557 0.0570846 -0.998369 
-0.000423086 0.0440947 -0.999027 
-0.000484072 0.0323305 -0.999477 
-0.000507428 0.0234196 -0.999726 
-0.000542684 0.0175468 -0.999846 
-0.000590151 0.0149722 -0.999888 
-0.000479305 0.0147288 -0.999891 
-0.000388275 0.0153998 -0.999881 
-0.00040468 0.015818 -0.999875 
-0.000437325 0.0154252 -0.999881 
-0.000561524 0.0139071 -0.999903 
-0.000356813 0.011178 -0.999937 
-0.00026687 0.00546846 -0.999985 
-0.000509936 -0.000436197 -1 
-0.000388045 -0.00323625 -0.999995 
-0.000384847 -0.00181651 -0.999998 
-0.000260053 -0.00227535 -0.999997 
-0.000277385 -0.0124647 -0.999922 
-0.000109068 -0.0294745 -0.999566 
-0.000327841 -0.0360221 -0.999351 
-0.00103677 -0.0011501 -0.999999 
0.000523669 -0.000245674 1 
0.00968411 -0.0264955 0.999602 
0.0153607 -0.0284134 0.999478 
0.0182739 -0.0162547 0.999701 
0.0190024 -0.00600259 0.999801 
0.0184503 -0.00279695 0.999826 
0.019284 -0.00385764 0.999807 
0.018692 -0.00393926 0.999818 
0.0188085 -0.000334129 0.999823 
0.0194454 0.00503215 0.999798 
0.0205677 0.00972251 0.999741 
0.0203145 0.0136745 0.9997 
0.021643 0.0154834 0.999646 
0.02148 0.016242 0.999637 
0.0206123 0.0165194 0.999651 
0.020142 0.017254 0.999648 
0.018035 0.019038 0.999656 
0.0171675 0.024072 0.999563 
0.0152609 0.032077 0.999369 
0.0125467 0.0429027 0.999 
0.00886735 0.0565157 0.998362 
0.00352978 0.0711629 0.997458 
-0.00386414 0.0865224 0.996242 
-0.0128131 0.102103 0.994691 
-0.0263221 0.11734 0.992743 
-0.0414046 0.131491 0.990452 
-0.0645638 0.146908 0.987041 
-0.0996372 0.165237 0.981208 
-0.127653 0.181243 0.975118 
-0.123429 0.189388 0.974114 
-0.110414 0.195849 0.974398 
-0.0900968 0.209191 0.973716 
-0.100632 0.232982 0.96726 
-0.0798444 0.256885 0.963138 
-0.055166 0.335708 0.940349 
-0.0644099 0.418395 0.905979 
-0.0160345 0.665173 0.746517 
-0.00894185 0.815381 0.578856 
-0.000737173 0.943628 0.331006 
-0.000577346 0.999212 0.0396864 
0.00043141 0.968346 -0.24961 
0.00919109 0.828968 -0.55922 
0.0192386 0.689661 -0.723877 
0.0486438 0.492089 -0.869185 
0.0362281 0.384708 -0.922327 
0.0654048 0.254006 -0.964989 
0.111446 0.224345 -0.968116 
0.098194 0.202574 -0.974331 
0.119216 0.191067 -0.97431 
0.110157 0.180099 -0.977461 
0.118223 0.175038 -0.977438 
0.0917501 0.160302 -0.982795 
0.0629157 0.143267 -0.987682 
0.0387705 0.126006 -0.991272 
0.0231458 0.111347 -0.993512 
0.00828361 0.0949686 -0.995446 
0.000236526 0.0802008 -0.996779 
-0.00568875 0.0660488 -0.9978 
-0.00973845 0.0528973 -0.998552 
-0.0129183 0.0409474 -0.999078 
-0.0156221 0.0312149 -0.999391 
-0.0175731 0.0235607 -0.999568 
-0.0196982 0.0188073 -0.999629 
-0.020839 0.0162432 -0.999651 
-0.0214214 0.0150924 -0.999657 
-0.0219117 0.0145049 -0.999655 
-0.0222437 0.0138655 -0.999656 
-0.0215295 0.0128302 -0.999686 
-0.0217891 0.0104796 -0.999708 
-0.0188353 0.00796012 -0.999791 
-0.0195972 0.00335127 -0.999802 
-0.0197484 -0.0001692 -0.999805 
-0.0187222 -0.00207517 -0.999823 
-0.0195062 -0.00261712 -0.999806 
-0.0172262 -0.00651288 -0.99983 
-0.0186682 -0.0178491 -0.999666 
-0.0157586 -0.0291588 -0.999451 
-0.0100082 -0.0279925 -0.999558 
-0.000242324 -0.000222632 -1 
0.000990956 -0.00042156 0.999999 
0.0107474 -0.0244812 0.999643 
0.0165034 -0.0294385 0.99943 
0.0190301 -0.0197959 0.999623 
0.0201157 -0.00765055 0.999768 
0.0206482 -0.00263737 0.999783 
0.0211446 -0.00208936 0.999774 
0.021327 -0.00204306 0.99977 
0.0221164 -0.000487443 0.999755 
0.0222711 0.00248789 0.999749 
0.0229331 0.0062721 0.999717 
0.0243387 0.0104764 0.999649 
0.0242082 0.012898 0.999624 
0.0238633 0.01474 0.999607 
0.0228067 0.0166937 0.999601 
0.0208407 0.0192783 0.999597 
0.020028 0.0220995 0.999555 
0.0174824 0.0267842 0.999488 
0.0138212 0.0340043 0.999326 
0.0087538 0.0443207 0.998979 
0.00243356 0.0573013 0.998354 
-0.00772387 0.0735576 0.997261 
-0.019943 0.0908351 0.995666 
-0.0364655 0.110101 0.993251 
-0.0621308 0.132392 0.989248 
-0.090344 0.152924 0.9841 
-0.133043 0.176501 0.975268 
-0.178652 0.198688 0.963642 
-0.248512 0.229462 0.941057 
-0.258195 0.22895 0.938572 
-0.252172 0.225499 0.941042 
-0.201861 0.224899 0.953243 
-0.208817 0.239831 0.948091 
-0.201802 0.270673 0.941282 
-0.123066 0.30255 0.945155 
-0.149932 0.361369 0.92029 
-0.0600748 0.511192 0.857364 
-0.0351076 0.74104 0.670542 
-0.00201055 0.974151 0.225887 
-0.00212476 0.995342 -0.0963836 
0.00230043 0.933235 -0.359258 
0.0444777 0.725848 -0.686415 
0.0510442 0.583121 -0.81078 
0.0955776 0.433638 -0.896004 
0.0849515 0.314338 -0.945502 
0.159067 0.26487 -0.951074 
0.231025 0.242194 -0.942321 
0.233361 0.224312 -0.946164 
0.249566 0.218751 -0.943326 
0.240213 0.214907 -0.946632 
0.22847 0.215462 -0.949409 
0.191734 0.203114 -0.960199 
0.147972 0.18431 -0.971666 
0.099395 0.156662 -0.982638 
0.0654839 0.132444 -0.989025 
0.0351117 0.108128 -0.993517 
0.0185779 0.0900389 -0.995765 
0.00702533 0.0736978 -0.997256 
-0.000864164 0.0589401 -0.998261 
-0.00672116 0.0466089 -0.998891 
-0.0105986 0.036599 -0.999274 
-0.01544 0.0283885 -0.999478 
-0.0189502 0.0225967 -0.999565 
-0.0215402 0.0184595 -0.999598 
-0.024004 0.0156713 -0.999589 
-0.0248064 0.0137548 -0.999598 
-0.0245331 0.0120843 -0.999626 
-0.0238943 0.0101565 -0.999663 
-0.0229008 0.00725141 -0.999711 
-0.0228584 0.00514399 -0.999725 
-0.0217782 0.00188747 -0.999761 
-0.0209113 8.53225e-05 -0.999781 
-0.0218405 -0.000868239 -0.999761 
-0.0209985 -0.00213054 -0.999777 
-0.0215336 -0.00721455 -0.999742 
-0.0203761 -0.0191679 -0.999609 
-0.0172454 -0.0302769 -0.999393 
-0.011279 -0.0262697 -0.999591 
-0.000995489 -0.000404212 -0.999999 
0.000555202 -0.000480667 1 
0.00678713 -0.0266285 0.999622 
0.00867385 -0.0301713 0.999507 
0.00893237 -0.0178984 0.9998 
0.00990417 -0.00598996 0.999933 
0.0108165 -0.00151754 0.99994 
0.00947901 -0.000748696 0.999955 
0.00963455 -0.0015761 0.999952 
0.0113046 -0.00144865 0.999935 
0.0111666 8.09647e-05 0.999938 
0.0120049 0.00361125 0.999921 
0.0147601 0.00808172 0.999858 
0.0141257 0.0113264 0.999836 
0.0128803 0.0142815 0.999815 
0.0121072 0.0176697 0.999771 
0.00770265 0.0224369 0.999719 
0.00724747 0.0263839 0.999626 
0.00363031 0.0322222 0.999474 
-0.00184287 0.0401566 0.999192 
-0.00949301 0.0513372 0.998636 
-0.0189049 0.0658156 0.997653 
-0.0340986 0.0854096 0.995762 
-0.0523386 0.108535 0.992714 
-0.0781529 0.136425 0.987563 
-0.119384 0.171772 0.977876 
-0.164051 0.201941 0.965561 
-0.217888 0.230984 0.948246 
-0.262699 0.250796 0.931714 
-0.330683 0.285969 0.899372 
-0.367988 0.294299 0.882028 
-0.373206 0.281219 0.8841 
-0.269729 0.233201 0.934272 
-0.354076 0.259559 0.898476 
-0.306778 0.274017 0.911484 
-0.247338 0.314002 0.916639 
-0.244638 0.378731 0.892589 
-0.148937 0.442068 0.88453 
-0.0461599 0.637823 0.768799 
-0.0110095 0.877613 0.479244 
-0.00293189 0.994036 0.109016 
0.00542382 0.917106 -0.398606 
0.0898805 0.645695 -0.758287 
0.128794 0.547955 -0.826533 
0.159383 0.40631 -0.899727 
0.166025 0.322905 -0.931755 
0.270874 0.278301 -0.921508 
0.381571 0.260882 -0.886761 
0.359446 0.250655 -0.898872 
0.371586 0.259979 -0.891255 
0.343692 0.26191 -0.90182 
0.312223 0.263228 -0.912813 
0.283489 0.264218 -0.921858 
0.235945 0.246943 -0.939867 
0.178842 0.214216 -0.960275 
0.122617 0.172947 -0.977269 
0.0772215 0.133388 -0.988051 
0.0492828 0.10515 -0.993234 
0.0307412 0.0831466 -0.996063 
0.0197952 0.0663684 -0.997599 
0.011374 0.0529356 -0.998533 
0.00521918 0.0425648 -0.99908 
-0.00176204 0.0334465 -0.999439 
-0.0066609 0.0266161 -0.999624 
-0.0105031 0.0211387 -0.999721 
-0.0134221 0.0164729 -0.999774 
-0.014204 0.0131513 -0.999813 
-0.0131895 0.0102246 -0.999861 
-0.0136329 0.00723246 -0.999881 
-0.0125424 0.00361037 -0.999915 
-0.0137647 0.00149965 -0.999904 
-0.0106948 -0.000596114 -0.999943 
-0.00914365 -0.000554071 -0.999958 
-0.0120541 -0.000104248 -0.999927 
-0.0102866 -0.00141728 -0.999946 
-0.0138192 -0.0070084 -0.99988 
-0.0113453 -0.0196389 -0.999743 
-0.0095659 -0.0317093 -0.999451 
-0.00763676 -0.0273352 -0.999597 
-0.000623165 -0.000365847 -1 
0.000304257 -0.000353452 1 
0.000889979 -0.0284234 0.999596 
-8.63329e-05 -0.0311046 0.999516 
-0.000968457 -0.0189956 0.999819 
-0.000213835 -0.00675394 0.999977 
-0.00032277 -0.00097302 0.999999 
-0.000893354 -0.00023617 1 
-0.000567828 -0.00233676 0.999997 
0.00117901 -0.00376423 0.999992 
0.00229752 -0.00303178 0.999993 
0.00401981 0.00109823 0.999991 
0.00561376 0.00638779 0.999964 
0.00514199 0.0106325 0.99993 
0.00416646 0.0152913 0.999874 
0.00227331 0.02043 0.999789 
-0.00204533 0.0275526 0.999618 
-0.00480571 0.0327381 0.999452 
-0.0105256 0.0402143 0.999136 
-0.0176025 0.049645 0.998612 
-0.027491 0.0632423 0.997619 
-0.0406437 0.081949 0.995807 
-0.0610508 0.110095 0.992044 
-0.0890195 0.145412 0.985358 
-0.128514 0.18741 0.973839 
-0.18425 0.238991 0.953381 
-0.233539 0.269052 0.934382 
-0.296873 0.306879 0.904263 
-0.344279 0.323225 0.881475 
-0.405673 0.349885 0.844399 
-0.445808 0.34895 0.824311 
-0.482337 0.340782 0.806981 
-0.401694 0.277768 0.872632 
-0.42745 0.278261 0.86015 
-0.364481 0.273771 0.890058 
-0.502245 0.302066 0.810251 
-0.356007 0.308524 0.882084 
-0.205941 0.495471 0.843858 
-0.109282 0.53972 0.834721 
-0.0270318 0.822115 0.568679 
-0.00271992 0.990378 -0.138359 
0.0213701 0.818691 -0.573836 
0.18969 0.636815 -0.747319 
0.204251 0.4986 -0.842425 
0.262052 0.349777 -0.899436 
0.321218 0.30982 -0.894892 
0.383543 0.274376 -0.881823 
0.480703 0.284414 -0.829478 
0.463579 0.290918 -0.836936 
0.458757 0.3177 -0.829825 
0.407585 0.314239 -0.857396 
0.391693 0.338031 -0.855752 
0.350168 0.335867 -0.874401 
0.300976 0.322916 -0.897295 
0.235916 0.282292 -0.929868 
0.171964 0.229106 -0.958091 
0.114357 0.171292 -0.978561 
0.0766851 0.128675 -0.988717 
0.0521704 0.0977455 -0.993843 
0.0373924 0.0770973 -0.996322 
0.0254365 0.0604387 -0.997848 
0.0168711 0.0487923 -0.998666 
0.00874948 0.0386059 -0.999216 
0.0030286 0.0307719 -0.999522 
-0.00115561 0.0240949 -0.999709 
-0.0044065 0.0179244 -0.99983 
-0.00533044 0.0129165 -0.999902 
-0.00552834 0.00831092 -0.99995 
-0.00561686 0.00433 -0.999975 
-0.00427097 2.18994e-06 -0.999991 
-0.00420454 -0.00200681 -0.999989 
-0.00170509 -0.00366567 -0.999992 
-0.000354705 -0.00233442 -0.999997 
-0.00127498 -0.000114053 -0.999999 
-0.000864385 -0.00148441 -0.999999 
-0.00341733 -0.00822268 -0.99996 
-0.00159801 -0.0210019 -0.999778 
-0.00129528 -0.0323203 -0.999477 
-0.0019524 -0.0267143 -0.999641 
-1.89309e-05 -0.00039976 -1 
-0.000584193 -0.000286002 1 
-0.00223294 -0.0232412 0.999727 
-0.00432584 -0.0324303 0.999465 
-0.00468291 -0.0241704 0.999697 
-0.00459754 -0.00948525 0.999944 
-0.00445111 -0.00151393 0.999989 
-0.00413165 -0.000172528 0.999991 
-0.00319411 -0.00264834 0.999991 
-0.00103972 -0.0062602 0.99998 
0.00114477 -0.00687574 0.999976 
0.00265593 -0.00348316 0.99999 
0.00353147 0.00244418 0.999991 
0.00388892 0.00776371 0.999962 
0.00310971 0.0138468 0.999899 
0.0012476 0.0206852 0.999785 
-0.00206276 0.0279388 0.999608 
-0.00742109 0.0371045 0.999284 
-0.0133195 0.0448696 0.998904 
-0.0212696 0.0553054 0.998243 
-0.0313043 0.0694387 0.997095 
-0.0453681 0.0907713 0.994838 
-0.0662803 0.123569 0.99012 
-0.0976181 0.169118 0.98075 
-0.143343 0.227245 0.96323 
-0.200204 0.291507 0.935383 
-0.263841 0.341183 0.90221 
-0.315375 0.359193 0.878362 
-0.400022 0.416159 0.816574 
-0.442092 0.418978 0.793103 
-0.482567 0.402958 0.777659 
-0.532665 0.392279 0.749924 
-0.581629 0.383366 0.717452 
-0.498793 0.324016 0.803878 
-0.568937 0.328375 0.753976 
-0.492673 0.294113 0.819006 
-0.452632 0.308689 0.836562 
-0.344537 0.340363 0.874898 
-0.0789013 0.629109 0.773303 
-0.00789909 0.955513 0.294843 
0.00179819 0.955626 -0.294578 
0.0219712 0.845494 -0.533532 
0.31207 0.495886 -0.810376 
0.391994 0.353508 -0.849337 
0.438902 0.329101 -0.836097 
0.455444 0.302718 -0.837217 
0.531078 0.295194 -0.79424 
0.572067 0.326674 -0.752345 
0.524062 0.337873 -0.781793 
0.526781 0.380823 -0.759918 
0.468763 0.376073 -0.799269 
0.474502 0.428016 -0.769188 
0.423058 0.428033 -0.79863 
0.357693 0.413243 -0.837428 
0.289857 0.36961 -0.88282 
0.216587 0.306302 -0.926968 
0.149393 0.233377 -0.960842 
0.101511 0.171307 -0.979974 
0.0685928 0.123753 -0.98994 
0.0492738 0.0960298 -0.994158 
0.0344328 0.0738489 -0.996675 
0.0236599 0.0601735 -0.997907 
0.0140965 0.0472903 -0.998782 
0.00743612 0.0376451 -0.999264 
0.00219745 0.0291638 -0.999572 
-0.00120697 0.0210722 -0.999777 
-0.00363241 0.0145661 -0.999887 
-0.00486848 0.00845184 -0.999952 
-0.0050943 0.00270378 -0.999983 
-0.00412967 -0.00244534 -0.999988 
-0.00205238 -0.00576131 -0.999981 
-0.000433004 -0.00674038 -0.999977 
0.000980385 -0.00423036 -0.999991 
0.00219721 -0.000343325 -0.999998 
0.00267822 -0.0004416 -0.999996 
0.00215108 -0.00707807 -0.999973 
0.00240263 -0.0207654 -0.999781 
0.00226325 -0.0325805 -0.999467 
0.00145972 -0.0275428 -0.99962 
0.000358242 -0.000385306 -1 
-0.000133234 -0.000485813 1 
-0.00288442 -0.0267417 0.999638 
-0.00404897 -0.0312563 0.999503 
-0.00407892 -0.0180732 0.999828 
-0.00332665 -0.00492152 0.999982 
-0.00145236 -0.000784477 0.999999 
0.000677997 -0.0027264 0.999996 
0.00242629 -0.00705387 0.999972 
0.00616376 -0.0102833 0.999928 
0.00832641 -0.00894388 0.999925 
0.00868796 -0.00340804 0.999956 
0.0098102 0.00289666 0.999948 
0.00902558 0.00988894 0.99991 
0.00783505 0.017669 0.999813 
0.00464665 0.0270332 0.999624 
-0.000668743 0.0358676 0.999356 
-0.00520314 0.0466273 0.998899 
-0.013009 0.0566011 0.998312 
-0.0221304 0.0708217 0.997243 
-0.0347563 0.090559 0.995284 
-0.0532622 0.121895 0.991113 
-0.0805765 0.170982 0.981974 
-0.119955 0.233626 0.964899 
-0.172374 0.312208 0.934245 
-0.242639 0.394096 0.886462 
-0.304027 0.436541 0.846758 
-0.361394 0.443661 0.820097 
-0.446192 0.508826 0.736213 
-0.499573 0.513473 0.69769 
-0.514075 0.46428 0.721229 
-0.552417 0.43839 0.708977 
-0.605713 0.434231 0.666749 
-0.655539 0.432358 0.61914 
-0.604395 0.358938 0.711246 
-0.632088 0.330444 0.700908 
-0.548308 0.328614 0.769007 
-0.442466 0.33116 0.833401 
-0.3225 0.41959 0.848492 
-0.0162031 0.913383 0.406778 
0.00322152 0.999321 -0.0367012 
0.0950786 0.73532 -0.671017 
0.275773 0.408686 -0.870014 
0.535655 0.356197 -0.765635 
0.543748 0.336663 -0.768763 
0.555273 0.310886 -0.771376 
0.63613 0.323836 -0.700335 
0.603405 0.364917 -0.70904 
0.598876 0.402026 -0.69262 
0.544537 0.444364 -0.711351 
0.534923 0.511695 -0.672329 
0.454195 0.49944 -0.737744 
0.427632 0.53308 -0.730038 
0.361794 0.489947 -0.793131 
0.299598 0.441056 -0.845997 
0.224918 0.365972 -0.903037 
0.15712 0.287228 -0.944888 
0.104363 0.207079 -0.972742 
0.0707681 0.150436 -0.986084 
0.0476587 0.1115 -0.992621 
0.0324625 0.0867868 -0.995698 
0.0197421 0.0674262 -0.997529 
0.0103445 0.0543879 -0.998466 
0.003275 0.0423937 -0.999096 
-0.0026431 0.0327806 -0.999459 
-0.00596094 0.0233259 -0.99971 
-0.00957651 0.0150864 -0.99984 
-0.0106862 0.00745028 -0.999915 
-0.011918 0.000882918 -0.999929 
-0.0103155 -0.00557156 -0.999931 
-0.00732486 -0.00933483 -0.99993 
-0.00644527 -0.0101047 -0.999928 
-0.00459359 -0.00678628 -0.999966 
-0.000775429 -0.00145294 -0.999999 
0.00055684 -0.000781783 -1 
0.00208848 -0.00719928 -0.999972 
0.00195265 -0.0207389 -0.999783 
0.00188669 -0.0326162 -0.999466 
0.00168146 -0.0279087 -0.999609 
0.000201957 -0.000391231 -1 
-4.56304e-06 -0.000410077 1 
-0.00123715 -0.0273793 0.999624 
-0.00148807 -0.0326048 0.999467 
-0.000892329 -0.02078 0.999784 
0.00106959 -0.00767789 0.99997 
0.00454356 -0.00279272 0.999986 
0.00790952 -0.00450826 0.999959 
0.0110624 -0.00976879 0.999891 
0.0150643 -0.0135268 0.999795 
0.0173216 -0.0121283 0.999776 
0.0176896 -0.00602206 0.999825 
0.0190197 0.00137612 0.999818 
0.0180845 0.00925989 0.999794 
0.0167589 0.018057 0.999696 
0.0132499 0.0282205 0.999514 
0.0080833 0.0391455 0.999201 
0.00369621 0.0503999 0.998722 
-0.00393064 0.0628264 0.998017 
-0.01241 0.0785607 0.996832 
-0.0245964 0.100389 0.994644 
-0.0426286 0.134302 0.990023 
-0.0677406 0.188272 0.979778 
-0.106374 0.264715 0.958442 
-0.158919 0.357144 0.920431 
-0.225699 0.444202 0.867032 
-0.290396 0.526928 0.79876 
-0.355531 0.531506 0.76883 
-0.41612 0.542079 0.730065 
-0.497663 0.602181 0.624268 
-0.55727 0.606571 0.56703 
-0.563047 0.540473 0.625194 
-0.580172 0.489714 0.650831 
-0.640671 0.478895 0.600167 
-0.6663 0.400219 0.629182 
-0.629877 0.332407 0.701969 
-0.627793 0.342176 0.699136 
-0.523194 0.337282 0.78263 
-0.446234 0.328774 0.832335 
-0.0587324 0.66482 0.744691 
0.0051998 0.988746 0.149516 
0.0057539 0.859075 -0.511818 
0.415934 0.362852 -0.833869 
0.624604 0.342254 -0.701949 
0.664997 0.321218 -0.674239 
0.683498 0.362406 -0.633635 
0.674009 0.406617 -0.616745 
0.670697 0.453104 -0.58725 
0.60759 0.449239 -0.654995 
0.601888 0.514386 -0.610851 
0.510194 0.574849 -0.639728 
0.488429 0.635803 -0.597654 
0.424611 0.60619 -0.672487 
0.366558 0.589109 -0.720129 
0.299289 0.52117 -0.799255 
0.230284 0.440391 -0.86777 
0.169649 0.365485 -0.915227 
0.111073 0.267733 -0.957069 
0.0702506 0.190736 -0.979125 
0.04554 0.139178 -0.98922 
0.0269169 0.106016 -0.994 
0.0155954 0.0820135 -0.996509 
0.00491895 0.0658143 -0.99782 
-0.00226396 0.051568 -0.998667 
-0.00913749 0.0400666 -0.999155 
-0.0134688 0.0281879 -0.999512 
-0.017809 0.0185294 -0.99967 
-0.0195287 0.00911663 -0.999768 
-0.0209975 0.00118585 -0.999779 
-0.0195694 -0.00647157 -0.999788 
-0.0170372 -0.0118178 -0.999785 
-0.0156051 -0.0133884 -0.999789 
-0.0129257 -0.0100267 -0.999866 
-0.00765153 -0.00385989 -0.999963 
-0.00512944 -0.00242214 -0.999984 
-0.00159486 -0.00718499 -0.999973 
-0.00114464 -0.019499 -0.999809 
-0.000374121 -0.0321627 -0.999483 
6.31869e-05 -0.0276003 -0.999619 
-0.000136101 -0.000447804 -1 
6.56674e-05 -0.000416075 1 
0.00032864 -0.0274778 0.999622 
0.00115512 -0.0333398 0.999443 
0.00272409 -0.0213456 0.999768 
0.00576209 -0.00915641 0.999941 
0.0101022 -0.00528894 0.999935 
0.0143472 -0.00822727 0.999863 
0.0182608 -0.0136694 0.99974 
0.0216985 -0.016631 0.999626 
0.0238819 -0.0136906 0.999621 
0.0247299 -0.00634835 0.999674 
0.0254149 0.00245372 0.999674 
0.0246984 0.011386 0.99963 
0.0226231 0.0218876 0.999504 