# vtk DataFile Version 3.0 
Exported using Morpho https://github.com/Morpho-lang/morpho 
ASCII 
DATASET UNSTRUCTURED_GRID 

POINTS 1978 float 
-11.995 -3.99524 -6.0771e-05 
-11.6155 -3.99421 -8.39156e-06 
-11.2552 -3.99629 4.5436e-05 
-10.9603 -3.99602 -9.99783e-05 
-10.6603 -3.99468 -4.33915e-05 
-10.3319 -3.99407 6.85805e-05 
-10.0223 -3.99481 0.000103029 
-9.68308 -3.99533 9.39419e-06 
-9.32706 -3.99526 -1.81522e-05 
-9.00345 -3.99578 2.36148e-05 
-8.69537 -3.99566 2.44492e-05 
-8.37074 -3.99599 1.67796e-05 
-8.07629 -3.99517 4.58619e-06 
-7.76907 -3.99416 3.01424e-05 
-7.4636 -3.99516 2.80862e-05 
-7.17329 -3.99495 7.176e-05 
-6.88892 -3.99518 8.39112e-05 
-6.56178 -3.99575 8.34229e-05 
-6.26229 -3.9965 7.76719e-05 
-5.97035 -3.99677 9.62151e-05 
-5.67557 -3.99619 9.93811e-05 
-5.37946 -3.99667 0.000140389 
-5.09045 -3.99722 0.000168833 
-4.80529 -3.99697 0.000257079 
-4.51692 -3.99449 0.000327706 
-4.21676 -3.99575 0.000474306 
-3.88247 -3.9933 0.000527963 
-3.57508 -3.99405 0.000604993 
-3.23003 -3.99225 0.000975064 
-2.81118 -3.9909 0.00118069 
-2.43835 -3.9952 0.00115269 
-2.16509 -3.99852 0.000829566 
-1.87894 -3.99714 0.000813483 
-1.68698 -4.00033 0.000898275 
-1.4099 -3.99907 0.000913337 
-1.09834 -3.99755 0.000666642 
-0.88678 -3.99456 -0.000141353 
-0.56936 -4.00197 -2.09392e-05 
-0.359379 -4.00271 -0.000418902 
-0.0911277 -4.02522 -0.000249289 
0.371667 -4.01198 -1.3032e-06 
0.605864 -3.99074 8.22294e-05 
0.86627 -4.00319 -0.000721077 
1.13026 -3.99834 -0.000606453 
1.45071 -4.00038 -0.000904009 
1.69314 -4.00229 -0.000408065 
1.86568 -3.99621 -0.000566565 
2.14368 -3.99777 -0.00114091 
2.45041 -3.99597 -0.00104608 
2.77591 -3.99216 -0.00115311 
3.20137 -3.99082 -0.00110687 
3.61225 -3.9929 -0.00074153 
3.94853 -3.99485 -0.000542373 
4.24953 -3.99603 -0.00036481 
4.55693 -3.99672 -0.00025545 
4.81337 -3.99696 -0.000216816 
5.10689 -3.99689 -0.000181378 
5.39363 -3.99635 -0.000155422 
5.67906 -3.99628 -0.000116954 
5.98179 -3.99583 -8.16189e-05 
6.28302 -3.99563 -6.77876e-05 
6.56863 -3.99592 -6.49619e-05 
6.86438 -3.99606 -5.30206e-05 
7.14105 -3.99527 -5.55614e-05 
7.43542 -3.99491 -6.66795e-05 
7.7433 -3.99479 -5.08985e-05 
8.06233 -3.99437 -2.39849e-05 
8.3649 -3.99473 -9.58053e-06 
8.68173 -3.99522 2.12031e-05 
8.95747 -3.99434 -2.3665e-07 
9.32605 -3.99529 3.83483e-05 
9.6257 -3.99623 4.09605e-06 
9.91599 -3.99541 -9.39344e-05 
10.2585 -3.99446 -0.000109568 
10.5662 -3.99314 1.24464e-05 
10.9687 -3.99454 4.26326e-05 
11.2823 -3.99636 -4.68655e-05 
11.6407 -3.99491 2.87709e-05 
11.9958 -3.99514 4.91729e-05 
-11.9963 -3.65708 8.61385e-05 
-11.6673 -3.68821 6.46332e-16 
-11.3476 -3.67036 1.33121e-16 
-11.0167 -3.64163 -1.06185e-15 
-10.6935 -3.63867 1.4384e-15 
-10.3719 -3.67252 -7.29328e-16 
-10.0304 -3.65776 -4.51644e-16 
-9.7072 -3.68466 -1.28383e-16 
-9.38127 -3.69338 2.90719e-16 
-9.05581 -3.67834 2.1022e-16 
-8.74466 -3.66961 2.98298e-16 
-8.43817 -3.69567 3.72455e-16 
-8.12117 -3.65559 2.33782e-16 
-7.81581 -3.6534 4.08802e-17 
-7.50373 -3.65454 -3.53353e-17 
-7.21003 -3.63128 -3.6219e-17 
-6.88283 -3.69552 -8.00711e-17 
-6.57978 -3.67757 -8.26894e-17 
-6.27844 -3.67965 -2.29888e-17 
-5.97998 -3.68282 1.62192e-16 
-5.68116 -3.68125 -1.54785e-16 
-5.39192 -3.67751 7.94907e-17 
-5.09968 -3.67954 -3.45993e-16 
-4.79511 -3.6784 -7.93429e-17 
-4.48386 -3.6446 6.98571e-16 
-4.1621 -3.63637 1.02615e-15 
-3.80041 -3.60333 1.1609e-15 
-3.39015 -3.52231 7.74325e-16 
-3.05939 -3.53721 4.38397e-16 
-2.73525 -3.60701 4.20826e-16 
-2.42035 -3.66113 -4.416e-15 
-2.12207 -3.78123 -5.94065e-15 
-1.88707 -3.74081 4.84364e-15 
-1.63976 -3.84531 -7.62878e-16 
-1.36546 -3.87291 -7.64736e-15 
-1.1607 -3.84096 -6.30887e-16 
-0.830637 -3.90192 1.80882e-15 
-0.591476 -3.88775 -6.52091e-15 
-0.291885 -3.92752 6.47769e-15 
-0.0109291 -3.94604 7.88411e-15 
0.26588 -3.96603 -1.03933e-14 
0.569423 -3.89479 1.2427e-14 
0.849814 -3.89607 -7.26078e-15 
1.10842 -3.87908 -3.20068e-15 
1.37675 -3.90501 -1.4654e-15 
1.7264 -3.83861 9.18682e-16 
2.03894 -3.68561 1.03935e-14 
2.23221 -3.73801 -2.22666e-15 
2.50869 -3.68386 7.6089e-16 
2.81138 -3.6357 1.00821e-15 
3.16049 -3.58394 -2.24408e-15 
3.53466 -3.56541 4.56778e-18 
3.90866 -3.60329 -7.07202e-16 
4.26187 -3.66246 4.17576e-16 
4.55884 -3.63672 -4.90921e-17 
4.87517 -3.70223 -3.73702e-16 
5.17981 -3.68891 1.09749e-16 
5.47567 -3.67295 -9.23781e-17 
5.77532 -3.67474 1.08399e-16 
6.07809 -3.66059 3.29372e-17 
6.37707 -3.645 -3.9649e-17 
6.67157 -3.66094 -1.48398e-16 
6.95593 -3.63816 4.85261e-17 
7.24758 -3.65045 2.38211e-16 
7.5514 -3.66778 1.60683e-16 
7.85389 -3.66625 -2.57225e-16 
8.15201 -3.64839 5.8413e-17 
8.45543 -3.66737 -3.84365e-17 
8.73184 -3.61151 1.47712e-16 
9.06434 -3.70283 -2.35069e-16 
9.38925 -3.65881 -4.08929e-16 
9.69853 -3.6469 1.40257e-16 
10.0301 -3.68977 5.75283e-16 
10.3491 -3.63025 -4.0057e-16 
10.7103 -3.71504 -6.66583e-16 
11.0378 -3.63547 1.12138e-15 
11.3503 -3.65665 -3.5598e-16 
11.6681 -3.67933 4.19168e-16 
11.9955 -3.65087 -4.26834e-06 
-11.996 -3.33044 -8.09604e-05 
-11.6916 -3.33409 -6.35591e-16 
-11.3687 -3.33947 -6.87103e-16 
-11.0288 -3.31244 -6.25404e-16 
-10.6961 -3.29586 -1.54312e-15 
-10.3506 -3.34957 6.49909e-16 
-10.0038 -3.33563 -4.51896e-16 
-9.69021 -3.34644 -3.9222e-16 
-9.38876 -3.37236 -1.20224e-16 
-9.078 -3.34922 3.79098e-17 
-8.7858 -3.31955 -2.70455e-16 
-8.48898 -3.36985 -2.28997e-16 
-8.18365 -3.34504 -8.29947e-17 
-7.85679 -3.31236 2.7612e-16 
-7.52492 -3.3372 9.09466e-17 
-7.20965 -3.26692 -1.41501e-16 
-6.92873 -3.36982 -1.2006e-16 
-6.63552 -3.35782 -1.12082e-16 
-6.33255 -3.36295 1.29719e-17 
-6.03236 -3.36151 -1.10289e-16 
-5.7386 -3.36366 2.79519e-17 
-5.44218 -3.34509 -6.813e-17 
-5.15389 -3.34694 -1.19215e-16 
-4.85361 -3.35939 5.74989e-16 
-4.53455 -3.31512 6.62464e-16 
-4.18954 -3.28943 3.32904e-15 
-3.86778 -3.27908 9.59777e-16 
-3.47102 -3.23781 -1.33221e-15 
-3.07826 -3.17699 4.84703e-15 
-2.76415 -3.27591 -6.75956e-15 
-2.49637 -3.37049 1.28359e-14 
-2.16585 -3.56611 -7.37394e-15 
-1.96131 -3.51625 -6.14256e-16 
-1.71329 -3.62679 -5.8228e-15 
-1.51217 -3.70549 1.5221e-15 
-1.30658 -3.69598 -1.50122e-14 
-0.967376 -3.78592 -1.25475e-14 
-0.588616 -3.81488 -9.52661e-15 
-0.259708 -3.85197 -6.20439e-14 
-0.00568409 -3.86371 4.19021e-14 
0.28055 -3.88757 -3.36395e-15 
0.612141 -3.8085 2.40543e-15 
0.879653 -3.78317 7.75387e-15 
1.19885 -3.76455 -6.10246e-15 
1.49018 -3.78398 -1.72179e-15 
1.76113 -3.6633 -1.7781e-17 
2.0045 -3.48243 3.50849e-15 
2.27755 -3.45056 1.01081e-14 
2.51742 -3.39355 -2.56258e-15 
2.81973 -3.31422 -8.00703e-16 
3.13373 -3.26294 2.118e-15 
3.48738 -3.22459 -4.47817e-16 
3.85686 -3.24089 -1.1199e-15 
4.20963 -3.30285 -1.14504e-15 
4.51455 -3.28094 -8.75406e-16 
4.81577 -3.37899 -6.2691e-17 
5.11118 -3.37791 -3.14468e-18 
5.41362 -3.36146 1.71713e-16 
5.71296 -3.35066 1.08773e-17 
6.00889 -3.32902 1.29452e-16 
6.30237 -3.31414 -3.37565e-17 
6.60727 -3.3169 -4.77213e-17 
6.91926 -3.31986 1.42906e-16 
7.23088 -3.31332 1.16638e-16 
7.53204 -3.33634 3.06238e-17 
7.83148 -3.32906 -2.09267e-17 
8.12835 -3.3085 -2.66302e-16 
8.40814 -3.30533 2.52238e-16 
8.73272 -3.29237 4.03312e-16 
9.04858 -3.38119 -1.03101e-16 
9.36382 -3.3338 -2.66952e-17 
9.66893 -3.31259 5.64801e-16 
9.98748 -3.36827 2.09156e-16 
10.3119 -3.29581 -9.21323e-17 
10.6593 -3.39342 2.09448e-17 
10.9936 -3.3143 7.02823e-16 
11.3421 -3.31012 1.29696e-15 
11.6632 -3.33493 -1.98657e-17 
11.9952 -3.31067 4.26867e-05 
-11.9968 -3.03448 -6.05092e-05 
-11.6438 -2.98362 3.27604e-16 
-11.3064 -3.01449 -2.09357e-17 
-10.9659 -2.97969 -1.93169e-16 
-10.6024 -2.98274 3.28257e-16 
-10.2653 -3.02315 8.21682e-16 
-9.94028 -2.99261 -7.05901e-17 
-9.64217 -2.99028 -4.11138e-16 
-9.34262 -3.02422 3.67171e-16 
-9.04259 -2.98511 1.89519e-16 
-8.73349 -2.97334 -1.26349e-16 
-8.43685 -3.03231 -3.24381e-16 
-8.13007 -2.99536 1.82082e-16 
-7.83333 -2.99146 3.42312e-16 
-7.52249 -2.99906 5.62768e-17 
-7.21715 -2.92935 -4.67721e-17 
-6.90687 -3.01755 -1.79912e-16 
-6.59851 -3.03262 -5.47496e-17 
-6.29822 -3.03944 -6.24644e-17 
-6.0038 -3.0263 1.0742e-16 
-5.71566 -3.03516 -2.99519e-16 
-5.43442 -2.9951 -1.10117e-17 
-5.13643 -3.00204 -2.09333e-16 
-4.81355 -3.01114 -5.76919e-16 
-4.44309 -2.98985 6.25689e-16 
-4.09979 -2.97149 -3.37768e-16 
-3.761 -2.93529 -1.695e-15 
-3.48867 -2.99361 5.92085e-16 
-3.32884 -2.86521 -1.19514e-16 
-3.06212 -2.93306 1.09292e-14 
-2.81429 -3.01878 -8.45008e-15 
-2.34709 -3.33873 1.6239e-15 
-2.11249 -3.3539 1.97364e-15 
-1.68211 -3.45199 -1.06648e-14 
-1.43488 -3.52224 -1.20899e-14 
-1.20093 -3.51227 4.97074e-15 
-1.11074 -3.66763 2.5203e-14 
-0.777035 -3.7279 1.07142e-14 
-0.447823 -3.75231 2.71406e-14 
-0.0838233 -3.79539 -1.6427e-14 
0.298935 -3.80846 -2.9826e-16 
0.769677 -3.67566 -2.92367e-14 
0.962954 -3.67184 8.06478e-15 
1.23627 -3.6216 -4.21381e-15 
1.49976 -3.6255 1.38258e-14 
1.75411 -3.4611 1.84895e-14 
2.08702 -3.26793 4.61393e-16 
2.36881 -3.25123 3.59146e-15 
2.69388 -3.11073 1.22594e-14 
2.95472 -3.05958 -1.66959e-17 
3.25077 -2.99859 2.6118e-15 
3.52141 -2.96142 -2.9872e-15 
3.79391 -2.93476 -9.38744e-16 
4.10097 -2.93905 -9.91187e-16 
4.44079 -2.96065 -4.71221e-16 
4.81107 -3.02348 3.8459e-16 
5.1238 -3.03272 2.61331e-16 
5.41792 -3.04633 1.60063e-16 
5.7062 -3.01767 2.10106e-16 
5.99323 -3.0071 -8.24394e-17 
6.30246 -2.9744 1.63646e-16 
6.59904 -2.99459 1.97811e-16 
6.91911 -3.00151 -3.61636e-17 
7.23113 -2.99399 1.68869e-16 
7.53963 -3.00909 -3.72781e-17 
7.84581 -2.99484 -3.30348e-16 
8.13149 -2.95027 -1.07181e-16 
8.44366 -2.98159 3.51992e-17 
8.75838 -2.98218 1.55424e-18 
9.07865 -3.05724 -1.5934e-16 
9.38202 -3.00039 -3.51032e-16 
9.6652 -2.95428 2.21954e-16 
9.96381 -3.03854 4.32065e-16 
10.2941 -2.96748 -1.24909e-15 
10.6333 -3.06245 2.51139e-16 
10.9825 -3.00053 4.29922e-16 
11.3013 -2.97358 -5.23238e-16 
11.6424 -2.99187 -3.34452e-16 
11.9945 -2.98734 5.46089e-05 
-11.9931 -2.73367 8.09891e-06 
-11.6242 -2.66772 1.5495e-16 
-11.3076 -2.66352 -4.26807e-17 
-10.9804 -2.64501 1.13841e-16 
[...]
POINT_DATA 1978 
VECTORS vectors float
0.079991 -0.0962775 0.99219 
0.0791025 -0.0669486 0.994687 
0.0755301 -0.0295032 0.997206 
0.0809133 0.0113797 0.996837 
0.0960101 0.0177229 0.995196 
0.0972905 -0.00770815 0.995076 
0.0887659 -0.0208502 0.995763 
0.084487 -0.0125965 0.996299 
0.0872443 0.00224942 0.99611 
0.0884768 0.0116814 0.995872 
0.089612 0.0174083 0.995684 
0.0908696 0.0209084 0.995531 
0.090223 0.0228937 0.995642 
0.0894232 0.0197656 0.99587 
0.0877874 0.0170033 0.996097 
0.0891926 0.014662 0.99573 
0.0897111 0.0134105 0.995828 
0.0861811 0.0163258 0.996058 
0.0823963 0.0262575 0.996223 
0.0811913 0.0420043 0.995815 
0.080131 0.0594207 0.995067 
0.078841 0.0756369 0.994127 
0.0765226 0.0906837 0.993118 
0.0758335 0.104242 0.991911 
0.0724281 0.115379 0.99138 
0.0700754 0.125887 0.990205 
0.0669373 0.133426 0.989671 
0.0643549 0.145737 0.988218 
0.0614724 0.159126 0.986428 
0.0569633 0.175783 0.98333 
0.0459458 0.185182 0.982385 
0.0359845 0.201475 0.979235 
0.0291979 0.226959 0.973759 
0.0308489 0.241759 0.970073 
0.0264528 0.318726 0.947685 
0.00126227 0.459206 0.888389 
-0.0142861 0.604791 0.796511 
-0.0159273 0.798331 0.60236 
-0.00453232 0.91515 0.403286 
-0.000862261 0.995062 0.103323 
-0.0148155 0.900556 -0.436173 
-0.00699227 0.78157 -0.624011 
0.00486503 0.62764 -0.778703 
0.00406359 0.478639 -0.878254 
-0.0152097 0.335685 -0.942019 
-0.0279863 0.250967 -0.967832 
-0.0427131 0.218352 -0.975183 
-0.0561167 0.195761 -0.979184 
-0.0559438 0.189736 -0.980659 
-0.0566288 0.177989 -0.983154 
-0.0575581 0.158547 -0.98672 
-0.0623892 0.13996 -0.989227 
-0.0688399 0.130297 -0.989884 
-0.0704413 0.124899 -0.990241 
-0.0712059 0.111917 -0.991566 
-0.075481 0.0978304 -0.992573 
-0.0788876 0.0847067 -0.993373 
-0.0807319 0.0733853 -0.994098 
-0.0808646 0.0616737 -0.994892 
-0.0796734 0.0467416 -0.995836 
-0.0801476 0.0299145 -0.996416 
-0.0824646 0.0179656 -0.996448 
-0.0847412 0.0130556 -0.996296 
-0.0881504 0.0121308 -0.996011 
-0.0897919 0.0139811 -0.995826 
-0.0887223 0.0187066 -0.995885 
-0.0868016 0.0187589 -0.996096 
-0.0863823 0.017273 -0.996197 
-0.0867675 0.0174774 -0.996109 
-0.0895574 0.0171534 -0.995784 
-0.0869435 0.0127185 -0.996013 
-0.0826346 -0.000357473 -0.99656 
-0.0857576 -0.0160842 -0.996101 
-0.0959236 -0.0120973 -0.995123 
-0.0961749 0.010241 -0.995215 
-0.082441 0.0114632 -0.996642 
-0.0749977 -0.030022 -0.997281 
-0.0774258 -0.0739631 -0.994345 
-0.083152 -0.101541 -0.991375 
0.0401802 -0.0973402 0.994461 
0.0498331 -0.0703536 0.998133 
0.0488156 -0.035955 0.999373 
0.0505205 -0.0104337 1.00021 
0.0568719 0.00403264 0.999868 
0.0635851 -0.000250075 0.999366 
0.0579113 -0.00790053 0.999666 
0.0572842 -0.00735787 0.999923 
0.0577671 -0.00113693 0.999447 
0.0570728 0.00704207 0.999683 
0.057174 0.0136261 0.99978 
0.0599936 0.0176614 0.999299 
0.0571991 0.0177823 0.999484 
0.0590598 0.0167694 0.999237 
0.0603452 0.0165562 0.999619 
0.0563032 0.0171394 0.99986 
0.0589877 0.0176531 0.999366 
0.0534804 0.0210573 0.999648 
0.0499072 0.0292864 0.999634 
0.0474161 0.0422115 0.999333 
0.0446925 0.0575843 0.998755 
0.0403765 0.0739293 0.997925 
0.0331129 0.0904017 0.99691 
0.0198116 0.106876 0.99542 
-0.00285015 0.122941 0.994256 
-0.021355 0.137315 0.992258 
-0.0424737 0.148698 0.990214 
-0.0821906 0.166187 0.985144 
-0.0982512 0.178578 0.981107 
-0.0911145 0.188438 0.980391 
-0.0882782 0.203787 0.976362 
-0.0617961 0.205157 0.977745 
-0.100926 0.231397 0.968393 
-0.0461208 0.267237 0.963106 
-0.0314227 0.339164 0.940854 
-0.0500828 0.417918 0.907876 
-0.0334656 0.632924 0.773477 
-0.0139688 0.785933 0.618778 
-0.00478735 0.949919 0.31168 
-0.00597847 0.999599 0.00910532 
-0.0164784 0.939163 -0.340319 
-0.00122286 0.801846 -0.597913 
0.0291743 0.624077 -0.781235 
0.0433333 0.486343 -0.87304 
0.0253701 0.372898 -0.928045 
0.0320367 0.256143 -0.966684 
0.0785399 0.218434 -0.97371 
0.0566797 0.200596 -0.979449 
0.0753115 0.192166 -0.979874 
0.0876437 0.182744 -0.981282 
0.0913059 0.174718 -0.982844 
0.0714873 0.161549 -0.986762 
0.0380399 0.144479 -0.990958 
0.0044453 0.128401 -0.993576 
-0.00401262 0.114919 -0.995046 
-0.027356 0.0967122 -0.996424 
-0.0365344 0.081642 -0.997427 
-0.0405804 0.0683099 -0.998248 
-0.0455401 0.0546145 -0.998907 
-0.0468005 0.0411554 -0.999498 
-0.0468152 0.0296804 -0.999861 
-0.0515583 0.0212736 -0.999556 
-0.0530161 0.016677 -1.00003 
-0.0565396 0.0141705 -0.999564 
-0.0587409 0.0149246 -0.999427 
-0.0600288 0.0168488 -0.999345 
-0.0584532 0.0166581 -0.999237 
-0.0605561 0.0155907 -0.999356 
-0.0536994 0.0132172 -1.00008 
-0.0586089 0.0106172 -0.999354 
-0.0523756 0.00374708 -0.999984 
-0.0519719 -0.00214154 -1.00023 
-0.0587843 -0.00609826 -0.999603 
-0.0579139 0.000386181 -0.99972 
-0.0628038 0.00482355 -0.99944 
-0.0496397 -0.0124 -1.00023 
-0.0483592 -0.0370763 -0.99938 
-0.0500415 -0.0717777 -0.997738 
-0.0466052 -0.0969247 -0.99449 
0.0172608 -0.0950912 0.995691 
0.0206066 -0.0757865 0.99813 
0.0273385 -0.0420206 1.00052 
0.0290511 -0.0177232 1.00069 
0.0321743 -0.00239076 1.00102 
0.0354835 0.00527012 1.00085 
0.030857 0.000109367 1.00091 
0.0304753 -0.00564518 1.00063 
0.0319891 -0.00453188 1.00112 
0.0323439 0.00221523 1.00087 
0.0309826 0.00905583 1.00085 
0.0359391 0.014166 1.00037 
0.0353827 0.0158537 1.0008 
0.0326386 0.0162638 1.0007 
0.0331789 0.0168455 1.00062 
0.0275418 0.0191802 1.00082 
0.0324703 0.0210763 1.00039 
0.0277319 0.025649 1.00063 
0.0229124 0.0327654 1.00053 
0.0178675 0.0429982 1.00055 
0.013136 0.0563486 0.999526 
0.00245837 0.0739422 0.998777 
-0.010174 0.0936839 0.997476 
-0.029107 0.114633 0.994715 
-0.0616621 0.138772 0.990377 
-0.097934 0.162699 0.9838 
-0.120463 0.175078 0.979208 
-0.161697 0.192587 0.969645 
-0.23324 0.224974 0.948361 
-0.235449 0.234042 0.94463 
-0.224646 0.233557 0.946687 
-0.164992 0.216277 0.963532 
-0.211589 0.237529 0.948787 
-0.154019 0.263552 0.952974 
-0.11318 0.301567 0.947522 
-0.126954 0.351711 0.928286 
-0.0630846 0.526357 0.848763 
-0.00977241 0.788558 0.615719 
-0.00971432 0.962953 0.265265 
-0.00759685 1.00077 0.00867597 
-0.0157148 0.933973 -0.357362 
0.0139426 0.778535 -0.628112 
0.0547951 0.592217 -0.804674 
0.0795597 0.435558 -0.897565 
0.0620773 0.322375 -0.945459 
0.109706 0.263203 -0.959493 
0.197756 0.243798 -0.950068 
0.214613 0.221646 -0.952253 
0.226112 0.218588 -0.950296 
0.233859 0.222947 -0.947832 
0.212591 0.215784 -0.954782 
0.190144 0.207606 -0.961672 
0.139936 0.183831 -0.975228 
0.0893123 0.155297 -0.985577 
0.0654797 0.137071 -0.990672 
0.0249415 0.111087 -0.994907 
0.00704885 0.0911685 -0.997714 
-0.00377549 0.0735981 -0.998502 
-0.011337 0.0577936 -0.99995 
-0.0157568 0.0455717 -1.00025 
-0.0185277 0.0363996 -1.00057 
-0.0227073 0.0290109 -1.0007 
-0.0277858 0.0225495 -1.0007 
-0.0311043 0.0177976 -1.00047 
-0.0348679 0.0154514 -1.00055 
-0.0351183 0.0151348 -1.00053 
-0.0329566 0.0140823 -1.00085 
-0.0328352 0.0130536 -1.00089 
-0.0311732 0.0108445 -1.00053 
-0.0349632 0.00629167 -1.00077 
-0.0295663 -0.000400333 -1.0009 
-0.0274363 -0.00249657 -1.00094 
-0.0332049 0.000577647 -1.00057 
-0.0328614 0.00587283 -1.00111 
-0.0405087 -0.00185794 -1.00049 
-0.0304564 -0.0181546 -1.00088 
-0.0251816 -0.0432307 -1.00049 
-0.0226999 -0.0708313 -0.998753 
-0.0159503 -0.0958525 -0.995436 
-0.00483759 -0.0995561 0.994944 
0.00213371 -0.073354 0.998778 
0.0104069 -0.0450623 1.0005 
0.0135242 -0.0234712 1.00149 
0.0097537 0.00321358 1.00156 
0.0110707 0.0127891 1.00131 
0.00582138 0.00391764 1.00133 
0.00599008 -0.00725181 1.00133 
0.0101318 -0.0081322 1.00106 
0.00947556 -0.00115343 1.00136 
0.0103612 0.00659642 1.00131 
0.0149105 0.0112347 1.00117 
0.0139578 0.0132785 1.00092 
0.014317 0.015366 1.00137 
0.0139339 0.0180134 1.0009 
0.00724607 0.022743 1.00109 
0.00762407 0.0278342 1.00117 
0.00312828 0.0343376 1.00078 
-0.00240808 0.0408393 1.00056 
-0.010209 0.0500232 0.999885 
-0.0170647 0.0635804 0.999573 
-0.0348543 0.0848181 0.997402 
-0.0538955 0.111026 0.994221 
-0.0823244 0.141835 0.988439 
-0.127089 0.180186 0.97724 
-0.170066 0.208734 0.965222 
-0.217998 0.233226 0.949709 
-0.237417 0.22955 0.945744 
-0.321906 0.272246 0.90807 
-0.350477 0.282619 0.893975 
-0.361305 0.282201 0.889853 
-0.267031 0.244453 0.932444 
-0.301707 0.243846 0.922633 
-0.270553 0.287815 0.919144 
-0.230945 0.328099 0.916924 
-0.231817 0.395604 0.889224 
-0.131603 0.420931 0.898282 
-0.0464784 0.654181 0.754858 
-0.0104419 0.87848 0.477835 
-0.00755652 0.995538 0.0934138 
-0.0104857 0.931081 -0.366539 
0.0825132 0.665381 -0.742492 
0.107811 0.544096 -0.832279 
0.129676 0.417009 -0.900389 
0.147347 0.323555 -0.935723 
0.231941 0.273153 -0.934563 
0.353683 0.264884 -0.897754 
0.324459 0.244708 -0.91417 
0.363925 0.258073 -0.895789 
0.342402 0.261916 -0.903192 
0.313174 0.266351 -0.912722 
0.282616 0.261564 -0.9244 
0.240787 0.246808 -0.940612 
0.185006 0.215983 -0.961277 
0.133812 0.180648 -0.976189 
0.0769898 0.134905 -0.990134 
0.0499988 0.107252 -0.994474 
0.0296002 0.0821843 -0.998006 
0.0195105 0.0650178 -0.998909 
0.0116324 0.0518068 -1.00005 
0.00595148 0.0428598 -1.00049 
-0.00140492 0.0358785 -1.00094 
-0.00663448 0.0286892 -1.00071 
-0.0108831 0.0216489 -1.00122 
-0.0152179 0.0165171 -1.00102 
-0.0153856 0.0132357 -1.00108 
-0.0134007 0.0111596 -1.00117 
-0.0135608 0.0100973 -1.00096 
-0.0126299 0.00709056 -1.00147 
-0.0162064 0.000937376 -1.0012 
-0.00933308 -0.00657041 -1.00125 
-0.00540456 -0.00583425 -1.00129 
-0.0118301 0.0038334 -1.00129 
-0.00899105 0.0119686 -1.00137 
-0.0190926 -0.00258728 -1.00133 
-0.0141496 -0.0257287 -1.00111 
-0.00875173 -0.0455711 -1.00048 
-0.00390487 -0.074489 -0.998722 
0.00773765 -0.099999 -0.994922 
-0.0173079 -0.108983 0.99379 
-0.009682 -0.0700566 0.999239 
-0.00578851 -0.0509868 1.00004 
-0.00676199 -0.0230056 1.00132 
-0.0125032 0.00536057 1.00152 
-0.015433 0.0182292 1.00118 
-0.0166056 0.00675144 1.00111 
-0.0172358 -0.0103813 1.00103 
-0.0132169 -0.0130248 1.00136 
-0.0110618 -0.00548983 1.00126 
-0.00926034 0.00360327 1.00105 
-0.00622583 0.00778737 1.00146 
-0.00879003 0.0103351 1.00122 
-0.00797904 0.0148279 1.00112 
-0.0102319 0.0202671 1.00106 
-0.0141898 0.0299194 1.00076 
-0.0160817 0.0367592 1.00052 
-0.0240249 0.0433346 1.00011 
-0.0309945 0.0489773 0.999673 
-0.0406581 0.0584711 0.998885 
-0.0524717 0.0762631 0.997247 
-0.0755816 0.108068 0.993029 
-0.10541 0.146666 0.985265 
-0.146459 0.190667 0.973216 
-0.19508 0.23828 0.953629 
-0.237704 0.267051 0.935825 
-0.303496 0.304415 0.904545 
-0.344777 0.318821 0.884034 
-0.393205 0.331492 0.858371 
-0.442259 0.34975 0.8266 
-0.467139 0.341712 0.815839 
-0.392518 0.2872 0.874358 
-0.397519 0.275357 0.875294 
-0.360903 0.264354 0.894721 
-0.455854 0.28121 0.845399 
-0.378572 0.312333 0.871506 
-0.227353 0.480173 0.847397 
-0.109228 0.541437 0.83364 
-0.0332041 0.741579 0.66996 
-0.00477396 0.9938 -0.102938 
0.0156741 0.813639 -0.581469 
0.205389 0.628903 -0.748732 
0.20999 0.532037 -0.820753 
0.246276 0.361285 -0.900124 
0.290311 0.312971 -0.905467 
0.400966 0.29625 -0.86754 
0.474037 0.289373 -0.831976 
0.457741 0.29014 -0.840731 
0.434447 0.306118 -0.847423 
0.406842 0.308192 -0.860605 
0.382806 0.332031 -0.862945 
0.352174 0.331412 -0.876838 
0.314523 0.319708 -0.895933 
0.256291 0.286395 -0.925661 
0.182703 0.224331 -0.959594 
0.128302 0.171891 -0.978879 
0.0910825 0.12814 -0.989417 
0.0652006 0.0947355 -0.994925 
0.0510682 0.0732375 -0.997446 
0.0379727 0.0572479 -0.999016 
0.0313425 0.049398 -0.999646 
0.0213182 0.0419209 -1.00023 
0.0152544 0.0342385 -1.00062 
0.00953109 0.0245374 -1.0009 
0.00625575 0.0165785 -1.00109 
0.00669154 0.0116402 -1.00114 
0.00676571 0.00779719 -1.00123 
0.00883054 0.00539883 -1.00104 
0.0109886 0.00154503 -1.0012 
0.00728745 -0.00391285 -1.00125 
0.0128869 -0.012253 -1.00108 
0.0153188 -0.010366 -1.00104 
0.0126773 0.00637094 -1.00122 
0.01289 0.0190715 -1.00117 
0.00415103 0.00025832 -1.00159 
0.00429616 -0.0269514 -1.0012 
0.00264055 -0.0539875 -1.00009 
0.0054876 -0.083417 -0.99793 
0.00847121 -0.109841 -0.993762 
-0.00483263 -0.108861 0.993944 
-0.0095072 -0.0880362 0.997125 
-0.0118245 -0.0536785 1.00004 
-0.0172693 -0.0311682 1.00088 
-0.022201 0.000968945 1.00126 
-0.0249551 0.0204496 1.00086 
-0.0237909 0.0128776 1.00076 
-0.0213015 -0.00841873 1.00075 
-0.0178399 -0.0188002 1.00074 
-0.0139361 -0.0141602 1.00099 
-0.0108056 -0.00345294 1.00117 
-0.00893843 0.00309764 1.00119 
-0.008204 0.0064883 1.00113 
-0.00993277 0.0120573 1.00106 
-0.0103074 0.0198102 1.00093 
-0.015849 0.0295257 1.00064 
-0.0200939 0.0421534 1.00015 
-0.0269103 0.0492204 0.999685 
-0.035052 0.0555637 0.999087 
-0.0446868 0.0645443 0.998201 
-0.0583101 0.0829045 0.996276 
-0.0797976 0.115794 0.991721 
-0.11367 0.163767 0.981909 
-0.16008 0.221111 0.964283 
-0.218073 0.297464 0.931936 
-0.278487 0.347644 0.897357 
-0.319337 0.354054 0.880512 
-0.389148 0.410637 0.82582 
-0.439211 0.409979 0.800174 
-0.463953 0.389154 0.796215 
-0.517608 0.390923 0.761573 
-0.570991 0.385649 0.724904 
-0.504959 0.327814 0.799047 
-0.547572 0.311451 0.777291 
-0.516157 0.298719 0.802888 
-0.519019 0.317652 0.794137 
-0.367704 0.350661 0.861799 
-0.0517585 0.66194 0.749669 
-0.00455749 0.953241 0.302624 
-0.00213305 0.946289 -0.321046 
0.0136527 0.856995 -0.516171 
0.334726 0.489491 -0.802133 
0.418978 0.35705 -0.834417 
0.475461 0.333318 -0.814011 
0.473395 0.316273 -0.822303 
0.533155 0.300202 -0.791528 
0.566685 0.323107 -0.758997 
0.521121 0.330818 -0.787196 
0.519067 0.364415 -0.773773 
0.479884 0.372613 -0.794886 
0.464907 0.423583 -0.778099 
0.419573 0.433004 -0.799015 
0.364626 0.405302 -0.840073 
0.296794 0.363584 -0.885148 
0.227822 0.295191 -0.930183 
0.166811 0.230395 -0.960997 
0.117639 0.167395 -0.980873 
0.0851099 0.119377 -0.99088 
0.0645954 0.0912679 -0.99517 
0.0488524 0.0699629 -0.997674 
0.0367661 0.0590573 -0.998848 
0.0277591 0.051165 -0.999561 
0.0200504 0.0432061 -1.0001 
0.014075 0.0313566 -1.00063 
0.0103184 0.0197366 -1.00094 
0.00679867 0.0121241 -1.00104 
0.00748687 0.00664141 -1.00112 
0.00777686 0.00247662 -1.00137 
0.00862161 -0.00198885 -1.00112 
0.01348 -0.00986268 -1.00105 
0.0160746 -0.0185183 -1.00081 
0.0177257 -0.0145543 -1.00076 
0.022834 0.00488311 -1.00087 
0.0217275 0.0213847 -1.00074 
0.0192974 0.0081359 -1.00128 
0.0144975 -0.0224906 -1.00111 
0.00984057 -0.0501101 -1.00016 
0.00598575 -0.082215 -0.998012 
0.000232473 -0.108433 -0.993996 
-0.00435969 -0.104743 0.99436 
-0.00781808 -0.0766133 0.998687 
-0.0100209 -0.0457875 1.00011 
-0.0128804 -0.0146876 1.00146 
-0.01132 0.0133868 1.00118 
-0.00644036 0.0200108 1.00085 
-0.0035053 0.0010442 1.0009 
-0.00192399 -0.0181908 1.00073 
0.00456666 -0.0223247 1.00073 
0.00745584 -0.012925 1.00099 
0.00667915 -0.00259008 1.00111 
0.0103869 0.00237164 1.00105 
0.00956347 0.0076267 1.001 
0.00896562 0.0151154 1.00093 
0.00537773 0.0273471 1.00071 
-0.00241048 0.0398166 1.00034 
-0.00491748 0.0529268 0.999731 
-0.0149514 0.0600966 0.999046 
-0.0226379 0.0681925 0.998753 
-0.0360243 0.0829059 0.997153 
-0.0550259 0.113404 0.993493 
-0.0838335 0.164599 0.984562 
-0.127658 0.229876 0.96682 
-0.176492 0.310447 0.936208 
-0.237854 0.388468 0.892399 
-0.29963 0.440301 0.848009 
-0.357259 0.441006 0.824415 
-0.452442 0.509735 0.732785 
-0.512433 0.533841 0.673403 
-0.516119 0.459375 0.72348 
-0.53715 0.42614 0.728239 
-0.612976 0.451999 0.648397 
-0.6663 0.436314 0.604939 
-0.605614 0.363236 0.707902 
-0.634488 0.345718 0.691238 
-0.579369 0.336256 0.742985 
-0.454049 0.332473 0.827447 
-0.347543 0.412859 0.842049 
0.00272562 0.956741 0.291404 
0.00417231 0.996589 -0.078603 
0.0951309 0.731357 -0.674949 
0.269884 0.418075 -0.868308 
0.552209 0.349899 -0.757682 
0.553117 0.332604 -0.764989 
0.604147 0.308388 -0.734749 
0.632022 0.335119 -0.69926 
0.622972 0.360596 -0.695182 
0.595999 0.393986 -0.699957 
0.538476 0.435915 -0.721281 
0.515038 0.519067 -0.682756 
0.45769 0.527515 -0.716378 
0.405946 0.528044 -0.746765 
0.363352 0.478279 -0.80124 
0.291355 0.433612 -0.85479 
0.227219 0.3637 -0.90577 
0.160447 0.281071 -0.948389 
0.107707 0.197577 -0.976227 
0.0741169 0.144064 -0.988339 
0.0507662 0.106897 -0.994312 
0.0348457 0.0828756 -0.99719 
0.0214267 0.066322 -0.998751 
0.0109734 0.0589923 -0.99937 
0.00474554 0.0489738 -0.999944 
-0.00328515 0.0361505 -1.00048 
-0.00644877 0.0221425 -1.00083 
-0.0123955 0.0116351 -1.00096 
-0.011634 0.00510224 -1.00085 
-0.0141714 -7.71501e-05 -1.00122 
-0.0111226 -0.00507728 -1.00085 
-0.00442512 -0.014058 -1.00098 
-0.00466933 -0.0229695 -1.00071 
-0.00253618 -0.0176243 -1.00072 
0.00694732 0.00369507 -1.00092 
0.00844888 0.0220032 -1.00082 
0.0130552 0.00987084 -1.00123 
0.00914893 -0.0214767 -1.00113 
0.00634912 -0.046952 -1.0003 
0.003518 -0.0759422 -0.998474 
0.000105429 -0.10597 -0.994261 
-0.00395401 -0.106455 0.994139 
-0.00234802 -0.0765858 0.998373 
-0.00129145 -0.0453952 1.00035 
0.000198284 -0.0185301 1.00113 
0.00418496 0.00787776 1.00107 
0.0120521 0.0198014 1.0009 
0.0169507 0.000546629 1.00079 
0.0208795 -0.0207372 1.00041 
0.0261184 -0.0254185 1.00023 
0.0270915 -0.0160219 1.00053 
0.0263074 -0.00506288 1.00075 
0.0289387 0.000355418 1.00066 
0.0277564 0.00648259 1.00063 
0.0261998 0.0149302 1.00077 
0.0223785 0.0277608 1.00023 
0.0165296 0.0436423 1 
0.0116013 0.0569353 0.999592 
0.00281789 0.0663702 0.998895 
-0.0060171 0.0765205 0.997966 
-0.0178399 0.0935912 0.996831 
-0.035977 0.12419 0.992976 
-0.0626879 0.183152 0.98246 
-0.104301 0.262336 0.961195 
-0.151401 0.358609 0.923446 
-0.210207 0.432221 0.878678 
-0.282125 0.520047 0.808082 
-0.346483 0.530609 0.774626 
-0.40903 0.539737 0.736359 
-0.478005 0.609124 0.633149 
-0.55007 0.625834 0.553071 
-0.56138 0.531956 0.634101 
-0.562471 0.47573 0.676777 
-0.639462 0.497066 0.586871 
-0.676556 0.396282 0.620436 
-0.655789 0.335143 0.676816 
-0.630845 0.352103 0.690247 
-0.515866 0.351798 0.778135 
-0.435331 0.355191 0.828054 
-0.0689731 0.644834 0.759173 
0.00481471 0.98271 0.182773 
0.00944778 0.863074 -0.504227 
0.428705 0.371536 -0.826172 
0.622598 0.343665 -0.699332 
0.690993 0.329122 -0.643324 
0.704427 0.366151 -0.608449 
0.683408 0.415984 -0.599803 
0.654395 0.432994 -0.620464 
0.598932 0.456584 -0.657927 
0.576658 0.523649 -0.627479 
0.516741 0.609236 -0.601701 
0.472632 0.614701 -0.631996 
0.417994 0.61361 -0.670654 
0.360786 0.570556 -0.738777 
0.299319 0.519014 -0.802235 
0.22265 0.442504 -0.870406 
0.157575 0.355054 -0.923702 
0.102573 0.257037 -0.962845 
0.0646065 0.183974 -0.982151 
0.039546 0.132967 -0.991758 
0.0210982 0.101295 -0.995861 
0.0100689 0.079874 -0.997914 
-0.00147541 0.0693523 -0.998727 
-0.00881071 0.0587063 -0.999383 
-0.0170932 0.0449546 -0.999988 
-0.0232721 0.0274002 -1.00047 
-0.0277591 0.0155962 -1.00056 
-0.02954 0.00640121 -1.00083 
-0.0326644 0.00022907 -1.00042 
-0.0306632 -0.00619658 -1.00083 
-0.0273622 -0.0159558 -1.00054 
-0.0264165 -0.025141 -1.00027 
-0.02358 -0.0204791 -1.00038 
-0.0161186 0.00174444 -1.00076 
-0.0120116 0.0204292 -1.00081 
-0.00349316 0.0110941 -1.00122 
-0.00319726 -0.0169247 -1.00118 
-0.00173663 -0.04287 -1.00048 
0.00083714 -0.076247 -0.998425 
0.00256877 -0.105131 -0.994341 
0.00301943 -0.107323 0.994072 
0.00188677 -0.079588 0.998132 
0.00441891 -0.045203 1.00032 
0.00858798 -0.019907 1.00082 
0.0131331 0.00643167 1.0014 
0.0210046 0.0135806 1.00077 
0.0274851 -0.00718988 1.0005 
0.0319504 -0.0257258 1.00006 
0.0355108 -0.0286098 0.999955 
0.0369431 -0.0158565 1.00051 
0.0381111 -0.00576687 1.00021 
0.0385062 0.00104259 1.00057 
0.0367824 0.00877053 1.00037 
0.0339953 0.0194461 1.00012 
0.0292553 0.0339008 1.00009 
0.0236043 0.0508404 0.999546 
0.0171313 0.065101 0.998877 
0.00956598 0.0750501 0.998247 
0.0012873 0.0890956 0.997384 
-0.00950516 0.11159 0.994733 
-0.0261186 0.147156 0.990146 
-0.0516455 0.215365 0.976786 
-0.0904021 0.307232 0.949381 
-0.150513 0.421379 0.895836 
-0.219409 0.519478 0.828217 
-0.280602 0.614352 0.739138 
-0.305138 0.660841 0.686259 
-0.377689 0.607543 0.699252 
-0.431695 0.626779 0.649244 