# vtk DataFile Version 3.0 
Exported using Morpho https://github.com/Morpho-lang/morpho 
ASCII 
DATASET UNSTRUCTURED_GRID 

POINTS 1978 float 
-12 -3.99999 -2.23553e-08 
-11.624 -3.99999 1.27862e-08 
-11.2725 -3.99999 1.20673e-08 
-10.9569 -3.99999 -2.91722e-09 
-10.659 -3.99999 -9.5337e-09 
-10.3292 -3.99999 -9.11698e-09 
-10.0156 -3.99999 -2.27256e-09 
-9.67599 -3.99999 7.64876e-09 
-9.33056 -3.99999 2.85289e-09 
-9.00477 -3.99999 -7.22327e-09 
-8.69983 -3.99999 -1.23654e-08 
-8.36944 -3.99999 -1.25731e-08 
-8.07239 -3.99999 -8.17634e-09 
-7.77373 -3.99999 -1.14671e-08 
-7.46469 -3.99999 -6.21805e-09 
-7.18643 -3.99999 -5.12919e-09 
-6.8684 -3.99999 -6.58861e-09 
-6.56336 -3.99999 -4.84333e-09 
-6.26527 -3.99999 -4.63292e-10 
-5.96704 -3.99999 4.05431e-09 
-5.67482 -3.99999 1.51259e-08 
-5.38404 -3.99999 3.94978e-08 
-5.09812 -3.99999 8.84506e-08 
-4.81263 -3.99999 1.595e-07 
-4.51238 -3.99999 2.45481e-07 
-4.21664 -3.99999 3.4837e-07 
-3.89782 -3.99999 5.57629e-07 
-3.54266 -3.99999 8.3016e-07 
-3.18152 -3.99999 1.12358e-06 
-2.82052 -3.99999 1.52033e-06 
-2.48908 -3.99999 1.83814e-06 
-2.16353 -3.99999 1.88748e-06 
-1.8994 -3.99999 1.74865e-06 
-1.64107 -4 1.86223e-06 
-1.38855 -4 1.79265e-06 
-1.0835 -4 1.44282e-06 
-0.897466 -4 -1.68924e-07 
-0.601212 -4 -3.63484e-09 
-0.400206 -3.99999 -3.45796e-07 
-0.0800534 -3.99977 -7.93516e-07 
0.400202 -3.99999 1.41429e-06 
0.622385 -4 1.73546e-07 
0.910739 -4 -2.68313e-07 
1.12769 -4 -1.4324e-06 
1.46803 -4 -1.29268e-06 
1.65366 -4 -1.61017e-06 
1.92744 -4 -1.6355e-06 
2.1422 -4 -1.53356e-06 
2.45739 -3.99999 -1.7395e-06 
2.79314 -3.99999 -1.60924e-06 
3.19027 -3.99998 -1.32831e-06 
3.57278 -3.99999 -9.2205e-07 
3.93607 -3.99999 -5.88167e-07 
4.25863 -3.99999 -3.45215e-07 
4.54727 -3.99999 -2.15038e-07 
4.81646 -3.99999 -1.37138e-07 
5.11328 -3.99999 -8.09915e-08 
5.39937 -3.99999 -4.04572e-08 
5.68557 -3.99999 -1.52572e-08 
5.9838 -3.99999 -1.29163e-09 
6.28115 -3.99999 3.85453e-10 
6.56827 -3.99999 1.58359e-09 
6.86235 -3.99999 1.05404e-09 
7.14624 -3.99999 2.43383e-09 
7.43649 -3.99999 9.10171e-09 
7.74787 -3.99999 1.28547e-08 
8.06075 -3.99999 1.18617e-08 
8.36423 -3.99999 1.10502e-08 
8.67859 -3.99999 5.40724e-09 
8.95932 -3.99999 7.88459e-09 
9.31503 -3.99999 1.1438e-09 
9.62406 -3.99999 -4.13309e-09 
9.91972 -3.99999 2.49648e-09 
10.2655 -3.99999 1.17277e-08 
10.5656 -3.99999 5.89099e-09 
10.9697 -3.99999 4.10219e-09 
11.2914 -3.99999 -1.49797e-08 
11.6338 -3.99999 -9.68852e-09 
12 -3.99999 2.45085e-08 
-12 -3.66033 1.58256e-08 
-11.6815 -3.68213 -4.3853e-10 
-11.3411 -3.67335 -1.10217e-09 
-11.0069 -3.65252 -1.38711e-09 
-10.6881 -3.6357 -8.43873e-10 
-10.3725 -3.67696 -4.11311e-10 
-10.0402 -3.65951 -1.40588e-10 
-9.71618 -3.68396 2.55821e-11 
-9.38177 -3.69183 5.9177e-11 
-9.05186 -3.6778 2.25742e-10 
-8.74786 -3.66505 5.10197e-10 
-8.43821 -3.69205 7.92655e-10 
-8.12031 -3.65752 9.997e-10 
-7.81286 -3.65674 1.13972e-09 
-7.50395 -3.66672 1.34232e-09 
-7.19499 -3.63632 1.40787e-09 
-6.90073 -3.68897 1.64962e-09 
-6.58804 -3.68158 2.05195e-09 
-6.28032 -3.68079 2.55925e-09 
-5.98267 -3.68383 3.30102e-09 
-5.68356 -3.67907 4.20393e-09 
-5.39393 -3.67748 5.04742e-09 
-5.09782 -3.66987 5.55974e-09 
-4.78978 -3.67033 6.01958e-09 
-4.47651 -3.64269 6.21981e-09 
-4.13512 -3.63538 6.98328e-09 
-3.77543 -3.6143 7.64074e-09 
-3.39424 -3.57706 -1.54777e-10 
-3.05377 -3.57707 9.31936e-09 
-2.7207 -3.66428 -1.4543e-09 
-2.42605 -3.72847 1.64233e-09 
-2.14089 -3.78257 1.07826e-08 
-1.90771 -3.76637 3.05956e-08 
-1.7062 -3.82444 1.43964e-08 
-1.39735 -3.85114 8.36676e-08 
-1.18094 -3.84158 -2.363e-08 
-0.758769 -3.90446 2.05779e-08 
-0.533832 -3.85571 2.54888e-08 
-0.290843 -3.91258 -1.98382e-08 
-0.0354796 -3.88774 -3.79182e-08 
0.201996 -3.94451 3.72254e-08 
0.50759 -3.88956 -3.51681e-08 
0.753277 -3.89541 -3.84797e-08 
1.07732 -3.84524 -6.33585e-09 
1.32559 -3.88871 -2.84953e-08 
1.7586 -3.83446 -1.15828e-08 
1.99469 -3.73156 -1.58912e-08 
2.24307 -3.75352 -9.96577e-09 
2.52135 -3.68508 -1.52733e-08 
2.85299 -3.6836 -6.4973e-10 
3.17293 -3.61129 1.07196e-09 
3.52264 -3.61204 -1.87285e-09 
3.88848 -3.61529 -7.74553e-09 
4.24158 -3.62897 -8.21817e-09 
4.55466 -3.64132 -6.90437e-09 
4.87331 -3.693 -6.72449e-09 
5.17916 -3.68687 -5.63504e-09 
5.47872 -3.67857 -4.98746e-09 
5.77709 -3.67788 -3.83309e-09 
6.07636 -3.66673 -3.05088e-09 
6.36816 -3.64741 -2.48479e-09 
6.66576 -3.65859 -1.98904e-09 
6.96108 -3.65067 -1.69647e-09 
7.25181 -3.65637 -1.38298e-09 
7.55285 -3.67279 -1.2292e-09 
7.85625 -3.66668 -1.07338e-09 
8.15222 -3.65166 -9.3401e-10 
8.45135 -3.6616 -7.91521e-10 
8.73863 -3.6269 -5.48621e-10 
9.06613 -3.70601 -3.30194e-10 
9.38899 -3.66406 -1.77341e-10 
9.69688 -3.64811 -8.7198e-11 
10.0321 -3.69486 4.67937e-11 
10.3512 -3.63488 3.787e-10 
10.7007 -3.7204 9.06121e-10 
11.0249 -3.64428 1.27827e-09 
11.3475 -3.65784 1.1732e-09 
11.6813 -3.67773 5.71842e-10 
12 -3.64872 -2.76396e-08 
-12 -3.34608 1.20864e-08 
-11.6736 -3.33393 -2.38943e-10 
-11.3521 -3.34199 -4.30496e-10 
-11.0281 -3.30932 -7.71478e-10 
-10.6882 -3.30552 -9.34202e-10 
-10.3484 -3.34177 -4.84069e-10 
-10.0086 -3.33142 -2.10456e-10 
-9.69311 -3.33842 -5.86505e-11 
-9.38829 -3.37523 4.94748e-11 
-9.08584 -3.33734 1.79338e-10 
-8.7847 -3.3224 2.92073e-10 
-8.48061 -3.36486 4.7686e-10 
-8.16821 -3.33518 6.48443e-10 
-7.84769 -3.32243 9.41435e-10 
-7.53147 -3.32989 9.78489e-10 
-7.22598 -3.28578 1.22197e-09 
-6.92805 -3.34828 1.49671e-09 
-6.633 -3.35644 1.81782e-09 
-6.33047 -3.36354 2.21164e-09 
-6.03135 -3.35849 2.75998e-09 
-5.74023 -3.36261 3.53495e-09 
-5.44474 -3.34337 4.12877e-09 
-5.1549 -3.34092 4.87107e-09 
-4.84916 -3.34144 5.10556e-09 
-4.52434 -3.30109 5.32291e-09 
-4.18259 -3.2998 6.83772e-09 
-3.82266 -3.26769 1.21337e-09 
-3.46539 -3.25302 1.40856e-08 
-3.1451 -3.20906 -1.25107e-08 
-2.8256 -3.31405 -3.09558e-09 
-2.56408 -3.40433 -6.87054e-09 
-2.17764 -3.55871 8.3882e-09 
-1.95341 -3.56666 1.84396e-08 
-1.68753 -3.60862 -8.36777e-09 
-1.50585 -3.74917 -3.40777e-08 
-1.3106 -3.66568 4.51477e-08 
-0.990779 -3.81729 -1.98605e-08 
-0.622646 -3.71434 -1.83975e-08 
-0.202458 -3.81531 3.69494e-09 
0.0679076 -3.80474 -7.55414e-09 
0.288309 -3.84493 -2.08775e-08 
0.658556 -3.75934 6.32893e-08 
0.904376 -3.81598 6.33798e-10 
1.19827 -3.73729 -1.92902e-08 
1.51356 -3.7834 -1.46071e-08 
1.7463 -3.6374 -1.27851e-08 
1.98681 -3.50758 -1.11027e-08 
2.24035 -3.48124 -1.19895e-08 
2.54832 -3.40813 -3.27096e-09 
2.84299 -3.37255 3.90341e-09 
3.16373 -3.30304 3.28897e-09 
3.49885 -3.26973 8.16452e-10 
3.83266 -3.25169 9.7719e-10 
4.17245 -3.2737 -7.2856e-09 
4.51433 -3.28396 -5.477e-09 
4.81956 -3.36167 -5.38804e-09 
5.11803 -3.36945 -5.07614e-09 
5.41459 -3.36555 -4.28977e-09 
5.71399 -3.35242 -3.40563e-09 
6.01008 -3.3404 -2.6314e-09 
6.30715 -3.31039 -1.91647e-09 
6.61298 -3.3224 -1.67527e-09 
6.91809 -3.31793 -1.38175e-09 
7.22505 -3.31689 -1.10437e-09 
7.52392 -3.34087 -1.02533e-09 
7.8268 -3.32972 -8.6547e-10 
8.12555 -3.3011 -6.32888e-10 
8.42224 -3.31098 -4.01907e-10 
8.73324 -3.29847 -3.30462e-10 
9.04716 -3.38419 -2.48339e-10 
9.3613 -3.33349 -1.40965e-10 
9.67154 -3.30815 -2.39674e-11 
9.99076 -3.36813 1.11396e-10 
10.3129 -3.30445 4.12525e-10 
10.657 -3.38821 9.1833e-10 
10.9954 -3.31799 9.76596e-10 
11.3373 -3.30897 5.01663e-10 
11.6668 -3.33313 2.27089e-10 
12 -3.31045 -7.83496e-09 
-12 -3.02491 1.08128e-08 
-11.6487 -3.00197 -6.77754e-12 
-11.3092 -2.99832 4.49454e-10 
-10.962 -2.97769 5.42196e-12 
-10.6072 -2.98435 -2.77979e-10 
-10.2745 -3.0162 -1.74737e-10 
-9.94665 -2.98883 -1.02169e-10 
-9.63615 -2.99094 -8.24544e-12 
-9.33991 -3.02054 6.84221e-11 
-9.03934 -2.98434 9.93385e-11 
-8.73617 -2.9706 -3.08232e-12 
-8.44333 -3.02886 -3.07328e-11 
-8.13118 -2.99965 -2.64506e-11 
-7.82816 -2.9818 -6.79317e-11 
-7.51865 -2.99285 1.02701e-10 
-7.21578 -2.93857 -2.84359e-10 
-6.91235 -3.00918 1.17128e-10 
-6.59986 -3.03012 1.19283e-10 
-6.30282 -3.03513 5.8393e-11 
-6.01063 -3.02648 -4.79407e-11 
-5.72039 -3.02906 -1.47973e-10 
-5.42793 -2.99617 -7.17482e-10 
-5.11946 -2.99712 -8.47356e-10 
-4.79021 -3.00044 -1.28806e-09 
-4.4357 -2.96813 -1.93949e-09 
-4.11056 -2.96824 -4.50005e-09 
-3.78934 -2.95723 -6.22441e-09 
-3.52741 -2.96252 -9.32554e-09 
-3.28796 -2.91306 4.02331e-09 
-3.04421 -2.95907 1.73571e-08 
-2.82145 -3.06904 1.61466e-09 
-2.33775 -3.40923 2.595e-08 
-2.10215 -3.32506 -1.49167e-08 
-1.75739 -3.43631 -1.04928e-08 
-1.47338 -3.53431 1.18333e-08 
-1.21638 -3.50627 1.47765e-08 
-1.10231 -3.63629 -9.49235e-09 
-0.788973 -3.76407 6.0856e-08 
-0.418248 -3.75122 1.84935e-08 
-0.105744 -3.68608 3.3594e-08 
0.316442 -3.73015 -1.89927e-08 
0.79149 -3.65137 -1.32097e-08 
0.956861 -3.63304 2.63816e-08 
1.24609 -3.61296 -3.91246e-08 
1.49523 -3.61499 -4.29771e-08 
1.74514 -3.44984 -2.63634e-08 
2.12518 -3.26429 1.3873e-08 
2.38964 -3.24256 -1.00616e-08 
2.70513 -3.14662 2.02037e-09 
2.96893 -3.10592 3.3012e-09 
3.27124 -3.03183 2.15997e-09 
3.53269 -2.96819 1.12228e-08 
3.80765 -2.92701 2.99501e-09 
4.10886 -2.92946 7.11485e-09 
4.4411 -2.94948 2.52498e-09 
4.79512 -2.9966 1.53234e-09 
5.10317 -3.03092 3.10721e-10 
5.41014 -3.04241 -2.29513e-10 
5.7115 -3.02183 3.47631e-10 
6.00475 -3.00592 2.42522e-10 
6.30602 -2.97654 3.27758e-10 
6.60446 -2.99594 9.37462e-11 
6.91534 -2.99061 -2.42462e-11 
7.22756 -2.99378 -7.32908e-11 
7.53829 -3.01004 -9.54372e-11 
7.84273 -2.99129 -3.68652e-11 
8.13585 -2.95313 1.22381e-10 
8.44077 -2.97626 3.98127e-11 
8.75509 -2.9742 -1.42096e-11 
9.06695 -3.05617 -8.43845e-11 
9.37384 -2.99475 -7.63996e-11 
9.67577 -2.95799 1.97405e-11 
9.98026 -3.03525 1.32312e-10 
10.2967 -2.96667 1.87333e-10 
10.6292 -3.05975 4.74398e-10 
10.975 -2.99217 4.41444e-11 
11.3127 -2.97419 -5.7018e-10 
11.6503 -2.99497 1.29543e-10 
12 -2.98894 -7.61357e-09 
-12 -2.71092 -2.44461e-09 
-11.6456 -2.6771 1.99024e-10 
-11.3143 -2.66072 6.43686e-10 
-10.9736 -2.63986 5.64645e-10 
-10.6345 -2.65683 1.64622e-10 
-10.2939 -2.67069 3.45889e-11 
-9.97833 -2.65892 2.44609e-11 
[...]
POINT_DATA 1978 
VECTORS vectors float
0.00186885 -0.00558512 0.999982 
0.00439595 -0.0364621 0.999334 
0.00457114 -0.0272513 0.999623 
0.00316178 -0.00989982 0.99995 
0.00357247 -0.00103658 1 
0.00394457 -0.00215108 0.999998 
0.00397551 -0.00608957 0.999982 
0.00436926 -0.00584922 0.999983 
0.00410969 0.000276819 1 
0.00364798 0.00767892 0.99997 
0.00384844 0.0132371 0.999911 
0.00380774 0.0167701 0.999858 
0.00349117 0.0176201 0.999844 
0.00365622 0.0174295 0.999846 
0.0034778 0.0163168 0.999865 
0.00331503 0.0162549 0.999867 
0.00375953 0.0176114 0.999843 
0.00367207 0.0218433 0.999759 
0.0033345 0.0302233 0.999541 
0.00320136 0.0422095 0.999106 
0.00312973 0.0564809 0.998401 
0.00299372 0.0717871 0.997417 
0.00286465 0.087038 0.996202 
0.00283291 0.0998242 0.995003 
0.00286958 0.112321 0.99367 
0.00303213 0.122647 0.992448 
0.00316182 0.132718 0.991152 
0.00295764 0.142532 0.98979 
0.00281992 0.15505 0.987906 
0.0024164 0.169702 0.985495 
0.00202673 0.183879 0.982947 
0.00160527 0.202887 0.979201 
0.000884304 0.223646 0.97467 
0.000492791 0.266379 0.963868 
0.000896102 0.323106 0.946363 
8.4262e-07 0.469888 0.882726 
7.18559e-05 0.569206 0.822195 
-2.4617e-05 0.769845 0.638231 
-0.000191839 0.8977 0.440607 
0.00015093 0.996684 0.0813755 
-8.93979e-05 0.888382 -0.459106 
0.000409078 0.762841 -0.646586 
-9.85836e-05 0.583452 -0.812148 
-0.00053738 0.468046 -0.883704 
-0.000682006 0.320899 -0.947113 
-0.000602455 0.277021 -0.960863 
-0.000563933 0.226421 -0.974029 
-0.00121634 0.203502 -0.979074 
-0.00191418 0.184333 -0.982863 
-0.00241958 0.171074 -0.985258 
-0.0027995 0.153736 -0.988114 
-0.00306377 0.142237 -0.989833 
-0.00304937 0.130388 -0.991462 
-0.00289395 0.11977 -0.992799 
-0.0025046 0.107621 -0.99419 
-0.00268915 0.0955383 -0.995423 
-0.00295429 0.0823541 -0.996601 
-0.00294817 0.0697598 -0.997561 
-0.00314101 0.0571851 -0.998361 
-0.00337551 0.044132 -0.999023 
-0.00326679 0.0322854 -0.999476 
-0.00322794 0.0233179 -0.999726 
-0.00316018 0.0174294 -0.999846 
-0.00313531 0.0148865 -0.999888 
-0.00355587 0.0147153 -0.99989 
-0.00390716 0.0154521 -0.999878 
-0.00387152 0.0159132 -0.999871 
-0.00368747 0.0155421 -0.999877 
-0.0033355 0.0140454 -0.9999 
-0.00396852 0.0113088 -0.999934 
-0.0041499 0.00553428 -0.999983 
-0.00348602 -0.000525011 -0.999998 
-0.00382056 -0.00337089 -0.999993 
-0.00385261 -0.0017761 -1 
-0.00426357 -0.00206813 -1 
-0.00416365 -0.0122023 -0.99993 
-0.00445099 -0.0297872 -0.999552 
-0.00398876 -0.0369726 -0.999317 
-0.00187613 -0.00571002 -0.99998 
0.0012111 -0.00480813 0.999997 
0.0101384 -0.0273282 0.999575 
0.0159994 -0.0289563 0.999453 
0.0189903 -0.0162831 0.999688 
0.0195997 -0.00580246 0.999792 
0.0190611 -0.00268896 0.999815 
0.019926 -0.00391454 0.999794 
0.019329 -0.00407606 0.999805 
0.0194273 -0.000380022 0.999812 
0.0200604 0.00507822 0.999786 
0.0211951 0.00980948 0.999728 
0.0209681 0.0137954 0.999685 
0.0223202 0.0156021 0.99963 
0.0221518 0.0163249 0.999622 
0.0212883 0.016547 0.999637 
0.0207449 0.0172124 0.999637 
0.0186542 0.0189458 0.999647 
0.0178294 0.024 0.999553 
0.0159063 0.0320267 0.999361 
0.0131816 0.042878 0.998994 
0.00949578 0.056545 0.998355 
0.00412146 0.0712767 0.997449 
-0.00335067 0.0865827 0.99624 
-0.0123418 0.102247 0.994683 
-0.0258756 0.11747 0.99274 
-0.040862 0.131518 0.990472 
-0.0638584 0.146843 0.987097 
-0.0996846 0.165326 0.981189 
-0.126744 0.181164 0.975252 
-0.123349 0.189639 0.974076 
-0.109945 0.195866 0.974448 
-0.0893828 0.208946 0.973834 
-0.0991685 0.233124 0.967378 
-0.0796161 0.256548 0.963247 
-0.0524573 0.337043 0.940027 
-0.0654011 0.418525 0.905848 
-0.0160211 0.664301 0.747294 
-0.00838799 0.817313 0.576132 
-0.00059095 0.943228 0.332144 
-0.000553256 0.999038 0.0438121 
0.000477153 0.967231 -0.253887 
0.00909383 0.83024 -0.55733 
0.0187544 0.692382 -0.721285 
0.0481879 0.491968 -0.869279 
0.0354021 0.385166 -0.922168 
0.0647867 0.253413 -0.965187 
0.110638 0.224249 -0.968232 
0.0975053 0.202465 -0.974424 
0.118163 0.190991 -0.974454 
0.110025 0.180294 -0.977441 
0.118003 0.175183 -0.977439 
0.091566 0.160345 -0.982806 
0.0622892 0.143161 -0.987738 
0.0381713 0.125939 -0.991304 
0.0226864 0.111531 -0.993503 
0.00772886 0.0950697 -0.995441 
-0.000338163 0.0802793 -0.996773 
-0.00631439 0.0660829 -0.997795 
-0.0103479 0.0529201 -0.998546 
-0.01354 0.040932 -0.999071 
-0.0162634 0.0311614 -0.999383 
-0.0182107 0.0234907 -0.999559 
-0.0203694 0.0187508 -0.999617 
-0.0215022 0.0162281 -0.999638 
-0.0221151 0.0151165 -0.999642 
-0.0225808 0.0145481 -0.99964 
-0.0229051 0.0139396 -0.999641 
-0.0221809 0.0129249 -0.999671 
-0.0224476 0.0105797 -0.999693 
-0.0194625 0.00807452 -0.999778 
-0.0202257 0.00338237 -0.99979 
-0.0203631 -0.000221067 -0.999793 
-0.0193977 -0.00212792 -0.99981 
-0.020097 -0.00253098 -0.999796 
-0.0178701 -0.00630427 -0.999821 
-0.0193621 -0.0179048 -0.999653 
-0.016374 -0.0296518 -0.999427 
-0.0104984 -0.0289312 -0.999527 
-0.000641434 -0.00547121 -0.999997 
0.00199877 -0.00627141 0.999986 
0.0110885 -0.0251036 0.999624 
0.0170115 -0.030137 0.999402 
0.0195907 -0.0200286 0.999608 
0.0206776 -0.00745999 0.999759 
0.0211896 -0.00250642 0.999773 
0.0217296 -0.00206307 0.999762 
0.0218649 -0.00207207 0.999759 
0.0226807 -0.000516722 0.999743 
0.0227862 0.00247679 0.999738 
0.0234794 0.006313 0.999705 
0.0249179 0.0105577 0.999634 
0.0247604 0.0129622 0.99961 
0.0244601 0.0147687 0.999592 
0.0233518 0.0167271 0.999588 
0.0214 0.0192942 0.999585 
0.0206006 0.0220797 0.999544 
0.0180504 0.0267562 0.99948 
0.014373 0.0339518 0.999321 
0.00929406 0.0442743 0.998977 
0.0029831 0.0572887 0.998354 
-0.00723101 0.0736199 0.997261 
-0.0194695 0.0909273 0.995668 
-0.036071 0.110239 0.993251 
-0.0617636 0.132506 0.989257 
-0.0897764 0.152869 0.984161 
-0.132818 0.176589 0.975283 
-0.17683 0.197904 0.96414 
-0.249086 0.229771 0.940831 
-0.257817 0.228973 0.938671 
-0.252132 0.22564 0.941019 
-0.20136 0.224995 0.953327 
-0.207587 0.239581 0.948425 
-0.202319 0.270762 0.941146 
-0.122913 0.302631 0.945149 
-0.148959 0.361085 0.920559 
-0.0605132 0.510506 0.857743 
-0.035718 0.738966 0.672794 
-0.00182495 0.974558 0.224131 
-0.00209676 0.995423 -0.0955272 
0.00229901 0.933823 -0.357729 
0.0448707 0.723935 -0.688406 
0.0507402 0.581678 -0.811835 
0.0948533 0.434227 -0.895796 
0.084471 0.314347 -0.945543 
0.158267 0.264658 -0.951267 
0.230382 0.242189 -0.94248 
0.23239 0.224368 -0.946391 
0.249062 0.21882 -0.943444 
0.24022 0.214966 -0.946618 
0.228399 0.215513 -0.949415 
0.19147 0.203035 -0.96027 
0.147742 0.184424 -0.97168 
0.0986665 0.156444 -0.982747 
0.0650551 0.132493 -0.989047 
0.0346521 0.108207 -0.993525 
0.0180915 0.0901453 -0.995765 
0.00652457 0.0737362 -0.997257 
-0.00138181 0.0589441 -0.998261 
-0.00722161 0.0466116 -0.998888 
-0.0110613 0.0365781 -0.99927 
-0.0159299 0.0283452 -0.999472 
-0.0194912 0.0226061 -0.999555 
-0.0220443 0.0184494 -0.999587 
-0.0245703 0.0156772 -0.999576 
-0.0253854 0.0137795 -0.999583 
-0.0251225 0.0121505 -0.999611 
-0.0243953 0.010227 -0.999651 
-0.0234166 0.00729196 -0.9997 
-0.0233913 0.00517037 -0.999714 
-0.0223026 0.00187494 -0.99975 
-0.021419 7.41948e-05 -0.999771 
-0.0223996 -0.000847055 -0.999749 
-0.021546 -0.00202133 -0.999766 
-0.022089 -0.00703482 -0.999732 
-0.0209778 -0.0193136 -0.999594 
-0.0177762 -0.0309522 -0.999363 
-0.011619 -0.0270329 -0.999568 
-0.00197632 -0.00711206 -0.999976 
0.00129056 -0.0061022 0.999988 
0.00700097 -0.0274457 0.999599 
0.00875244 -0.030894 0.999485 
0.00895228 -0.017947 0.9998 
0.00995589 -0.00577222 0.999934 
0.0108898 -0.00138516 0.99994 
0.00945769 -0.000666371 0.999956 
0.00958491 -0.0015776 0.999953 
0.0112977 -0.00150565 0.999936 
0.011119 6.9985e-06 0.999939 
0.0119722 0.00360528 0.999922 
0.0148257 0.00813949 0.999858 
0.0141579 0.0113761 0.999836 
0.0128514 0.0143031 0.999816 
0.0121613 0.0176714 0.999771 
0.00760295 0.0224772 0.999719 
0.00730064 0.0264188 0.999625 
0.00366044 0.0322169 0.999475 
-0.00182972 0.0401166 0.999194 
-0.00949751 0.0512891 0.998639 
-0.0189111 0.0657715 0.997656 
-0.0341695 0.0853946 0.995762 
-0.0523693 0.108494 0.992717 
-0.0781814 0.136427 0.987561 
-0.119309 0.171677 0.977903 
-0.164091 0.201976 0.965547 
-0.217577 0.230454 0.948447 
-0.263079 0.25082 0.931601 
-0.330104 0.286027 0.899567 
-0.366553 0.294099 0.882692 
-0.3735 0.281565 0.883867 
-0.268113 0.232853 0.934824 
-0.354972 0.259926 0.898018 
-0.306921 0.27363 0.911552 
-0.247552 0.314069 0.916558 
-0.244317 0.37881 0.892644 
-0.14928 0.442522 0.884246 
-0.0451243 0.640076 0.766985 
-0.011022 0.876188 0.481841 
-0.00300321 0.994055 0.108834 
0.00528707 0.916121 -0.400868 
0.0888212 0.646165 -0.758012 
0.129097 0.549619 -0.825381 
0.158685 0.406832 -0.899615 
0.164726 0.323186 -0.931889 
0.269894 0.278537 -0.921724 
0.381721 0.261137 -0.886621 
0.358971 0.250744 -0.899037 
0.371531 0.260035 -0.891262 
0.343473 0.261942 -0.901894 
0.311676 0.262904 -0.913094 
0.284219 0.264752 -0.921481 
0.235448 0.246332 -0.940152 
0.178785 0.214055 -0.960322 
0.122425 0.172713 -0.977335 
0.0772362 0.133336 -0.988057 
0.0492705 0.105099 -0.993241 
0.030704 0.0831118 -0.996068 
0.0198312 0.066337 -0.997601 
0.0114126 0.0529068 -0.998535 
0.00528358 0.0425589 -0.99908 
-0.00173663 0.0334765 -0.999439 
-0.00666143 0.0266051 -0.999624 
-0.0105395 0.0211602 -0.999721 
-0.0134633 0.016472 -0.999774 
-0.0142413 0.0131612 -0.999813 
-0.013114 0.0102584 -0.999862 
-0.0136503 0.00727299 -0.999881 
-0.0124975 0.00359025 -0.999916 
-0.0138157 0.00145716 -0.999904 
-0.010613 -0.000649434 -0.999944 
-0.00906476 -0.000530698 -0.999959 
-0.0121113 -1.32904e-05 -0.999927 
-0.0102929 -0.00126245 -0.999947 
-0.0140031 -0.00680485 -0.999879 
-0.0114218 -0.0197376 -0.99974 
-0.00966178 -0.0325344 -0.999425 
-0.00786471 -0.0281795 -0.999573 
-0.00138401 -0.0069159 -0.99998 
0.00062085 -0.00839436 0.999972 
0.000842264 -0.0294213 0.999567 
-0.000261586 -0.0318112 0.999495 
-0.00123584 -0.0190799 0.999818 
-0.000413564 -0.00657648 0.999979 
-0.000581104 -0.000788345 1 
-0.0012095 -9.30372e-05 1 
-0.000886096 -0.0023274 0.999997 
0.000899384 -0.00386875 0.999993 
0.00203332 -0.00316301 0.999993 
0.00379631 0.00104947 0.999993 
0.00542235 0.00642163 0.999965 
0.00496531 0.0106554 0.999931 
0.00398434 0.0153015 0.999876 
0.00210843 0.0204497 0.999789 
-0.0022766 0.0276363 0.999616 
-0.00499655 0.032757 0.999451 
-0.0107336 0.0402244 0.999134 
-0.0178175 0.04961 0.99861 
-0.0277208 0.0631817 0.997618 
-0.0408668 0.0818363 0.995808 
-0.0612863 0.10999 0.992042 
-0.089201 0.145299 0.985359 
-0.128737 0.187424 0.973807 
-0.184394 0.238881 0.953381 
-0.233724 0.269042 0.93434 
-0.296682 0.306705 0.904385 
-0.343884 0.322712 0.881817 
-0.406252 0.350221 0.843982 
-0.44501 0.348134 0.825088 
-0.481703 0.340514 0.807473 
-0.401053 0.277636 0.872969 
-0.428099 0.278543 0.859735 
-0.362381 0.273501 0.890998 
-0.503217 0.302595 0.80945 
-0.356752 0.309083 0.881588 
-0.205388 0.495907 0.843737 
-0.10875 0.53988 0.834687 
-0.0264205 0.823498 0.566704 
-0.00318284 0.990271 -0.139118 
0.02114 0.81843 -0.574217 
0.189319 0.637316 -0.746984 
0.203815 0.497852 -0.842972 
0.26168 0.35007 -0.899431 
0.320775 0.309945 -0.895007 
0.38313 0.274291 -0.88203 
0.479206 0.284053 -0.830467 
0.463463 0.290947 -0.83699 
0.458402 0.317279 -0.830182 
0.407666 0.314315 -0.85733 
0.391345 0.337722 -0.856034 
0.349816 0.335612 -0.874639 
0.300673 0.322463 -0.89756 
0.236502 0.282811 -0.929562 
0.172213 0.228836 -0.958112 
0.114456 0.171043 -0.978594 
0.0768741 0.128537 -0.988721 
0.0524533 0.0977551 -0.993828 
0.0376241 0.0770195 -0.99632 
0.0256884 0.0604225 -0.997843 
0.0170709 0.0487681 -0.998665 
0.00894356 0.0386335 -0.999214 
0.00320639 0.0308207 -0.99952 
-0.000971534 0.0241503 -0.999708 
-0.00425616 0.0179333 -0.999831 
-0.0051663 0.0129066 -0.999904 
-0.00532873 0.0083105 -0.999952 
-0.00543754 0.00434064 -0.999976 
-0.00405996 -5.1735e-05 -0.999992 
-0.00396461 -0.00211171 -0.99999 
-0.00143749 -0.00377608 -0.999992 
-4.89417e-05 -0.00235161 -0.999998 
-0.00100103 8.39288e-06 -1 
-0.000617024 -0.00132646 -1 
-0.00326206 -0.00805303 -0.999963 
-0.00139935 -0.0211763 -0.999775 
-0.00110774 -0.0330775 -0.999453 
-0.00194867 -0.0275283 -0.99962 
-9.42006e-05 -0.00691699 -0.999981 
-0.00114975 -0.00918521 0.99996 
-0.00234886 -0.0240442 0.999708 
-0.00457458 -0.0332995 0.999436 
-0.00488618 -0.0245047 0.999688 
-0.00481056 -0.00928344 0.999946 
-0.0047043 -0.00125135 0.999989 
-0.00442217 2.31693e-05 0.999991 
-0.00350835 -0.00257637 0.999991 
-0.00130281 -0.00638275 0.999979 
0.000919211 -0.00704389 0.999975 
0.00244107 -0.00359612 0.999991 
0.00331717 0.0024279 0.999992 
0.00369943 0.00775998 0.999964 
0.00293878 0.0138404 0.9999 
0.00107225 0.0207042 0.999786 
-0.00222184 0.0279926 0.999606 
-0.00762108 0.0371974 0.999279 
-0.0135388 0.0449163 0.9989 
-0.0215076 0.055292 0.998239 
-0.0315435 0.0693429 0.997095 
-0.045613 0.0906227 0.994841 
-0.0665125 0.123403 0.990126 
-0.097834 0.168989 0.980751 
-0.143582 0.227186 0.963209 
-0.200549 0.291807 0.935217 
-0.263541 0.340795 0.902444 
-0.31513 0.35888 0.878578 
-0.40035 0.416395 0.816294 
-0.441708 0.41874 0.793442 
-0.482098 0.402466 0.778205 
-0.533334 0.392685 0.749235 
-0.58198 0.383695 0.716993 
-0.498684 0.324136 0.803897 
-0.569723 0.328898 0.753155 
-0.491586 0.29385 0.819754 
-0.452656 0.309211 0.836355 
-0.34421 0.340456 0.874991 
-0.0798743 0.62761 0.77442 
-0.00796577 0.955998 0.293262 
0.00147473 0.956304 -0.292368 
0.0219779 0.845308 -0.533827 
0.313128 0.494959 -0.810533 
0.391851 0.353393 -0.849451 
0.439418 0.329095 -0.835828 
0.456259 0.302794 -0.836746 
0.531372 0.29532 -0.793996 
0.572028 0.326807 -0.752318 
0.524452 0.338184 -0.781397 
0.526712 0.380676 -0.76004 
0.467265 0.375548 -0.800392 
0.473823 0.427794 -0.76973 
0.424255 0.429295 -0.797317 
0.357852 0.413186 -0.837389 
0.289906 0.369393 -0.882895 
0.21622 0.305754 -0.927235 
0.149348 0.233031 -0.960933 
0.101685 0.171059 -0.98 
0.0687724 0.123489 -0.989961 
0.0495591 0.0959825 -0.994149 
0.0346962 0.0737546 -0.996673 
0.0239165 0.0602331 -0.997898 
0.014294 0.0473356 -0.998777 
0.00763365 0.0377136 -0.99926 
0.00237334 0.0292278 -0.999571 
-0.00102699 0.0210914 -0.999778 
-0.00346022 0.0145495 -0.999889 
-0.00471012 0.00842244 -0.999954 
-0.00492475 0.00268072 -0.999985 
-0.0039269 -0.00252634 -0.99999 
-0.00181472 -0.00591665 -0.999981 
-0.000178061 -0.00688946 -0.999977 
0.00125345 -0.00424732 -0.999991 
0.00246695 -0.000171864 -0.999998 
0.00293649 -0.000177821 -0.999996 
0.00236528 -0.00685032 -0.999974 
0.00258638 -0.0209113 -0.999779 
0.00242439 -0.0333781 -0.99944 
0.00159275 -0.0283591 -0.999597 
0.000761566 -0.00682182 -0.999981 
-0.000368537 -0.00651754 0.999985 
-0.00299351 -0.0274702 0.999619 
-0.00419487 -0.0319733 0.99948 
-0.0042262 -0.0180841 0.999828 
-0.00352003 -0.00458271 0.999984 
-0.00162527 -0.000503164 0.999999 
0.000528632 -0.00259934 0.999997 
0.00227947 -0.0071311 0.999972 
0.00608185 -0.0104726 0.999927 
0.00828155 -0.00913494 0.999924 
0.00862098 -0.00350021 0.999957 
0.00976873 0.00286018 0.999949 
0.00897096 0.0098498 0.999912 
0.00779814 0.0176499 0.999814 
0.00458759 0.0270883 0.999623 
-0.000765911 0.0359527 0.999354 
-0.00527681 0.0467318 0.998894 
-0.0131051 0.0566402 0.998309 
-0.0222567 0.0707971 0.997243 
-0.034892 0.0904436 0.995291 
-0.0534238 0.121744 0.991123 
-0.0807059 0.170791 0.981997 
-0.119906 0.233043 0.965046 
-0.171984 0.31174 0.934473 
-0.24205 0.393165 0.887036 
-0.304632 0.437375 0.846111 
-0.360749 0.442754 0.820871 
-0.446939 0.509766 0.735108 
-0.499022 0.512596 0.698729 
-0.513942 0.463655 0.721725 
-0.550881 0.437658 0.710624 
-0.606111 0.434925 0.665935 
-0.655564 0.432439 0.619058 
-0.604348 0.358553 0.711479 
-0.632469 0.330139 0.700708 
-0.549275 0.328926 0.768183 
-0.443229 0.331782 0.832747 
-0.324179 0.417842 0.848714 
-0.0158534 0.913592 0.406313 
0.00349022 0.999328 -0.0364726 
0.0951881 0.735694 -0.670591 
0.276192 0.409202 -0.869639 
0.535702 0.356159 -0.765619 
0.544717 0.337073 -0.767896 
0.556443 0.311452 -0.770305 
0.636447 0.324183 -0.699887 
0.602532 0.364972 -0.709754 
0.598817 0.40192 -0.692733 
0.544533 0.444114 -0.71151 
0.53595 0.512317 -0.671035 
0.45444 0.500021 -0.7372 
0.427408 0.532945 -0.730268 
0.361314 0.489168 -0.793831 
0.299834 0.440825 -0.846034 
0.224911 0.36578 -0.903118 
0.157112 0.287367 -0.944848 
0.104319 0.206579 -0.972854 
0.0709198 0.150212 -0.986107 
0.0478206 0.11139 -0.992626 
0.0326386 0.0867372 -0.995697 
0.0198779 0.067455 -0.997525 
0.0104446 0.0544745 -0.998461 
0.00335124 0.0424796 -0.999092 
-0.00259844 0.0328557 -0.999457 
-0.00590976 0.023347 -0.99971 
-0.00955489 0.0150626 -0.999841 
-0.0106636 0.00740521 -0.999916 
-0.0119177 0.000840866 -0.999929 
-0.0102659 -0.0057043 -0.999931 
-0.00723606 -0.00954969 -0.999929 
-0.00636284 -0.0102922 -0.999927 
-0.00450163 -0.0068356 -0.999967 
-0.000610214 -0.00126025 -1 
0.000725054 -0.000469458 -1 
0.00225485 -0.00692894 -0.999974 
0.0020711 -0.0208297 -0.999781 
0.001978 -0.0333884 -0.999441 
0.00178756 -0.028832 -0.999583 
0.000449737 -0.00658627 -0.999985 
6.0023e-06 -0.00614375 0.999989 
-0.00126971 -0.0282521 0.999601 
-0.00154735 -0.03339 0.999442 
-0.00094758 -0.0208793 0.999782 
0.00104279 -0.00736448 0.999973 
0.00456996 -0.00252591 0.999987 
0.00799438 -0.00435934 0.999959 
0.0111744 -0.00984813 0.99989 
0.0152437 -0.0137606 0.99979 
0.0175254 -0.0123624 0.99977 
0.0178487 -0.00612099 0.999822 
0.0192212 0.00133811 0.999815 
0.0182717 0.00922244 0.999791 
0.0169534 0.0180379 0.999694 
0.0133991 0.0282606 0.999511 
0.00820251 0.039242 0.999197 
0.00384123 0.0505093 0.998717 
-0.0038406 0.0628685 0.998015 
-0.012288 0.0785235 0.996837 
-0.0245114 0.100252 0.994661 
-0.0425762 0.134094 0.990054 
-0.0676431 0.188065 0.979825 
-0.106308 0.264466 0.958518 
-0.15892 0.357383 0.920339 
-0.226246 0.445267 0.866343 
-0.289252 0.524983 0.800454 
-0.356771 0.533109 0.767143 
-0.415647 0.540673 0.731375 
-0.49729 0.602998 0.623776 
-0.557384 0.607548 0.565869 
-0.56229 0.541226 0.625223 
-0.58021 0.49117 0.649699 
-0.641111 0.479398 0.599294 
-0.666171 0.400177 0.629345 
-0.630026 0.332283 0.701895 
-0.628791 0.342594 0.698034 
-0.521919 0.337654 0.78332 
-0.446674 0.329657 0.83175 
-0.057912 0.664834 0.744741 
0.00505068 0.988828 0.148976 
0.00516095 0.85939 -0.511295 
0.416991 0.363006 -0.833275 
0.624932 0.342748 -0.701413 
0.666037 0.321167 -0.673235 
0.683434 0.362885 -0.633429 
0.67423 0.407051 -0.616217 
0.670705 0.454102 -0.586469 
0.607157 0.44833 -0.656018 
0.601281 0.51282 -0.612761 
0.50969 0.575295 -0.639727 
0.487656 0.636191 -0.597874 
0.42434 0.605993 -0.672836 
0.367124 0.589635 -0.71941 
0.299496 0.521388 -0.799035 
0.2311 0.440747 -0.867373 
0.169339 0.364715 -0.915592 
0.11062 0.266991 -0.95733 
0.0700202 0.190306 -0.979225 
0.0455016 0.139013 -0.989245 
0.0268322 0.105941 -0.994011 
0.0155389 0.0820119 -0.996511 
0.00482522 0.0659083 -0.997815 
-0.00236664 0.0516713 -0.998662 
-0.00929883 0.0401749 -0.99915 
-0.013608 0.0282224 -0.99951 
-0.0180307 0.0185036 -0.999667 
-0.0197473 0.00906978 -0.999764 
-0.0212308 0.00114984 -0.999774 
-0.0197715 -0.00657834 -0.999783 
-0.0172032 -0.0120295 -0.99978 
-0.0157747 -0.0136158 -0.999783 
-0.0130743 -0.0101169 -0.999864 
-0.00768851 -0.00370612 -0.999964 
-0.00513746 -0.00215241 -0.999985 
-0.00154377 -0.00688388 -0.999976 
-0.00111828 -0.0195139 -0.99981 
-0.000355678 -0.0328991 -0.999459 
5.44295e-05 -0.028439 -0.999596 
-0.000260871 -0.00619752 -0.999988 
0.000110332 -0.00599773 0.999989 
0.000349009 -0.0282862 0.9996 
0.00118095 -0.0340649 0.999419 
0.00275545 -0.02143 0.999767 
0.00586361 -0.00888657 0.999944 
0.0102697 -0.00504887 0.999935 
0.0145823 -0.0081473 0.999861 
0.0185458 -0.0138075 0.999733 
0.0220007 -0.0168787 0.999616 
0.0241875 -0.0138858 0.999611 
0.0250543 -0.00645002 0.999666 
0.0257312 0.00243423 0.999667 
0.025024 0.0113517 0.999623 
0.0229267 0.0218851 0.999498 
0.0191461 0.0335318 0.999255 
0.0147239 0.045403 0.998861 