# vtk DataFile Version 3.0 
Exported using Morpho https://github.com/Morpho-lang/morpho 
ASCII 
DATASET UNSTRUCTURED_GRID 

POINTS 1978 float 
-8.48528 -2.82843 -1.96093e-09 
-8.23373 -2.82843 1.2181e-08 
-8.00402 -2.82843 2.15171e-08 
-7.62479 -2.82843 1.35538e-08 
-7.37389 -2.82843 1.74658e-09 
-7.14798 -2.82843 -5.44305e-10 
-6.94181 -2.82843 4.6643e-10 
-6.73739 -2.82843 5.37607e-09 
-6.53132 -2.82843 1.0353e-08 
-6.32219 -2.82843 1.5087e-08 
-6.0775 -2.82843 1.30963e-08 
-5.83905 -2.82843 7.5278e-09 
-5.58599 -2.82843 3.3726e-09 
-5.40424 -2.82843 4.07223e-10 
-5.23276 -2.82843 -7.07749e-10 
-5.03803 -2.82843 -1.20762e-09 
-4.83208 -2.82843 -6.87964e-10 
-4.62287 -2.82843 1.37518e-10 
-4.40651 -2.82843 1.11567e-10 
-4.18326 -2.82843 -4.29386e-10 
-3.96692 -2.82843 -4.93591e-10 
-3.76317 -2.82843 1.15703e-09 
-3.56073 -2.82843 6.45982e-09 
-3.35992 -2.82843 1.95634e-08 
-3.14433 -2.82843 4.47552e-08 
-2.91922 -2.82843 7.87607e-08 
-2.71295 -2.82843 1.22217e-07 
-2.50713 -2.82843 1.88173e-07 
-2.28753 -2.82843 3.00744e-07 
-2.03903 -2.82843 3.90513e-07 
-1.81559 -2.82843 4.77792e-07 
-1.59675 -2.82843 5.2502e-07 
-1.41855 -2.82843 6.27172e-07 
-1.18517 -2.82843 5.12116e-07 
-1.04667 -2.82843 3.82511e-07 
-0.837324 -2.82848 3.80703e-07 
-0.674351 -2.82843 1.89119e-07 
-0.434891 -2.82843 6.41988e-08 
-0.283413 -2.82843 1.23377e-08 
-0.052386 -2.82843 7.02463e-09 
0.152798 -2.82843 1.29699e-08 
0.540641 -2.82843 -5.86157e-08 
0.698541 -2.82843 -1.60392e-07 
0.839575 -2.82843 -2.68852e-07 
0.98508 -2.82843 -3.87687e-07 
1.13826 -2.82843 -4.66623e-07 
1.27702 -2.82843 -5.73565e-07 
1.49268 -2.82843 -7.18939e-07 
1.76127 -2.82843 -5.92685e-07 
2.03087 -2.82843 -4.32397e-07 
2.24376 -2.82843 -3.13567e-07 
2.52736 -2.82843 -2.2471e-07 
2.74393 -2.82843 -1.25392e-07 
2.98449 -2.82843 -7.88461e-08 
3.1746 -2.82843 -3.81131e-08 
3.37917 -2.82843 -1.92843e-08 
3.5813 -2.82843 -7.44944e-09 
3.77602 -2.82843 -1.53931e-09 
3.99152 -2.82843 4.56854e-10 
4.21507 -2.82843 6.19968e-10 
4.42495 -2.82843 2.92889e-10 
4.6477 -2.82843 -1.53544e-10 
4.86183 -2.82843 -4.40968e-10 
5.06723 -2.82843 -6.34562e-10 
5.27552 -2.82843 -9.62732e-10 
5.47474 -2.82843 -1.74121e-09 
5.66721 -2.82843 -3.33411e-09 
5.89251 -2.82843 -5.15447e-09 
6.1082 -2.82843 -5.86372e-09 
6.3207 -2.82843 -7.33701e-09 
6.56204 -2.82843 -6.25875e-09 
6.73915 -2.82843 -4.29559e-09 
6.9313 -2.82843 -8.29089e-09 
7.26419 -2.82843 -1.11868e-08 
7.50139 -2.82843 -1.0493e-08 
7.73867 -2.82843 -1.20927e-08 
7.971 -2.82843 -1.19408e-08 
8.1981 -2.82843 -9.64543e-09 
8.48528 -2.82843 -4.13779e-10 
-8.48528 -2.56531 4.07929e-11 
-8.20491 -2.56659 8.49201e-09 
-7.86058 -2.67881 -2.51693e-09 
-7.9483 -2.47236 -1.22708e-08 
-7.60924 -2.59413 -1.10338e-08 
-7.19103 -2.58613 -4.45208e-09 
-6.94336 -2.59778 -6.05642e-09 
-6.72153 -2.58967 -5.63181e-09 
-6.4836 -2.58559 -1.06722e-08 
-6.32681 -2.42385 -7.38912e-09 
-6.21927 -2.63009 -8.74741e-09 
-5.95808 -2.62413 -3.67622e-09 
-5.69623 -2.63518 -2.70129e-09 
-5.47488 -2.57184 -3.07381e-09 
-5.27817 -2.55179 -2.20137e-09 
-5.07834 -2.58285 -4.31509e-10 
-4.85941 -2.5847 7.81092e-11 
-4.62658 -2.58145 1.28868e-09 
-4.39635 -2.58756 2.25301e-09 
-4.16779 -2.59053 3.67238e-09 
-3.95309 -2.58589 5.60905e-09 
-3.74335 -2.5862 6.80506e-09 
-3.53611 -2.58446 6.93971e-09 
-3.31928 -2.59971 7.24794e-09 
-3.09494 -2.61043 3.18579e-09 
-2.87887 -2.60009 -1.90603e-09 
-2.67259 -2.61662 3.23909e-09 
-2.45783 -2.64533 -1.25624e-09 
-2.21644 -2.6804 -4.92444e-08 
-1.98244 -2.68402 1.27499e-08 
-1.76658 -2.70772 4.01843e-09 
-1.58768 -2.70487 1.1831e-08 
-1.27389 -2.74848 -1.411e-07 
-1.12285 -2.70761 1.27075e-07 
-0.968692 -2.75119 1.39948e-07 
-0.744908 -2.72791 5.16156e-08 
-0.57985 -2.89349 -1.24663e-08 
-0.370285 -2.73875 3.41644e-08 
-0.142891 -2.76463 7.81056e-08 
0.00908369 -2.75428 -5.82838e-08 
0.241738 -2.76978 -1.05053e-07 
0.437249 -2.79115 1.75609e-08 
0.597469 -2.74096 -1.54888e-09 
0.792159 -2.72029 -4.13614e-07 
0.922863 -2.72945 1.7662e-07 
1.20091 -2.7148 -4.57502e-08 
1.40102 -2.7396 8.23242e-08 
1.64582 -2.74067 -6.30485e-08 
1.8506 -2.7281 -2.1585e-08 
2.08611 -2.68209 8.41366e-08 
2.33375 -2.6998 -1.67661e-08 
2.57259 -2.63977 2.32379e-08 
2.80631 -2.65129 -1.65603e-08 
3.01645 -2.59681 1.8191e-08 
3.23081 -2.60882 -5.68214e-09 
3.44417 -2.60121 -7.17957e-09 
3.65293 -2.58295 -8.2386e-09 
3.86074 -2.59693 -6.32665e-09 
4.08366 -2.59486 -4.46171e-09 
4.29943 -2.57244 -3.699e-09 
4.51902 -2.58632 -1.59273e-09 
4.74109 -2.58059 -2.31586e-10 
4.95675 -2.58132 7.64874e-10 
5.16942 -2.59623 1.48924e-09 
5.38114 -2.58853 2.76584e-09 
5.58271 -2.57155 3.76477e-09 
5.79409 -2.59674 3.57767e-09 
6.02333 -2.57917 4.19878e-09 
6.23935 -2.57818 6.57306e-09 
6.46739 -2.61455 5.65978e-09 
6.67797 -2.53626 5.84709e-09 
6.86665 -2.55716 5.47913e-09 
7.0903 -2.66685 7.57123e-09 
7.36931 -2.58738 8.54735e-09 
7.60259 -2.5868 8.20926e-09 
7.82793 -2.57437 8.4156e-09 
8.05133 -2.56133 1.04118e-08 
8.29433 -2.614 1.97687e-09 
8.48528 -2.50942 9.34524e-10 
-8.48528 -2.30707 4.27025e-11 
-8.22301 -2.32794 2.46848e-09 
-7.98085 -2.23665 -1.55658e-08 
-7.71718 -2.37581 -1.05959e-08 
-7.51081 -2.28667 -4.73573e-09 
-7.40495 -2.5517 -4.53976e-09 
-7.06125 -2.37992 -5.02364e-09 
-6.83665 -2.33679 -3.86937e-09 
-6.62359 -2.36656 -4.67185e-09 
-6.43957 -2.2368 -1.61632e-09 
-6.16471 -2.22716 -9.45398e-11 
-6.06621 -2.42361 -4.85922e-09 
-5.81196 -2.42848 -5.54243e-09 
-5.60387 -2.37181 -2.08176e-09 
-5.39058 -2.31486 -5.38957e-10 
-5.1601 -2.32736 -6.04193e-10 
-4.94373 -2.34336 -3.8806e-10 
-4.71137 -2.35162 9.23147e-10 
-4.47513 -2.34801 2.29963e-09 
-4.25083 -2.35187 3.28206e-09 
-4.04032 -2.34546 3.74018e-09 
-3.83711 -2.3432 4.37615e-09 
-3.63803 -2.34017 3.26283e-09 
-3.43303 -2.35786 3.03262e-11 
-3.22741 -2.38048 -6.56128e-09 
-3.02338 -2.38949 -1.27093e-08 
-2.81888 -2.39079 -3.27664e-08 
-2.62071 -2.43198 -7.35e-08 
-2.39895 -2.49913 -4.87028e-08 
-2.19108 -2.51796 -2.37628e-08 
-2.00027 -2.54951 -3.42549e-08 
-1.77442 -2.57925 -1.16699e-08 
-1.43554 -2.6933 -1.40614e-07 
-1.3051 -2.63802 1.0985e-07 
-1.04568 -2.61708 1.34686e-07 
-0.850585 -2.69604 -3.05372e-08 
-0.555141 -2.77828 -3.66537e-08 
-0.381796 -2.63647 3.19038e-08 
-0.239696 -2.70939 1.05949e-07 
0.0606885 -2.68212 4.83172e-09 
0.176045 -2.68895 2.53052e-08 
0.349017 -2.71393 -1.6396e-07 
0.694394 -2.68052 2.26721e-07 
0.801529 -2.59925 -1.89325e-08 
1.0599 -2.7339 -1.30544e-09 
1.31213 -2.65461 1.36204e-07 
1.53873 -2.66019 2.75906e-08 
1.70249 -2.59937 2.18837e-08 
1.89215 -2.60389 1.87955e-08 
2.1439 -2.54426 4.31243e-08 
2.37321 -2.54408 5.43115e-08 
2.56597 -2.44126 4.89151e-08 
2.76646 -2.46348 3.06571e-08 
2.9849 -2.40185 3.08979e-08 
3.20458 -2.3961 1.097e-08 
3.42332 -2.37733 -2.12138e-09 
3.60707 -2.3283 -5.99001e-10 
3.79646 -2.3509 -6.04572e-09 
4.00101 -2.36611 -4.98111e-09 
4.21503 -2.33394 -3.71791e-09 
4.43782 -2.333 -2.49502e-09 
4.65236 -2.33809 -1.09465e-09 
4.87407 -2.33698 4.35537e-11 
5.09167 -2.35068 6.29264e-10 
5.29803 -2.35802 1.04437e-09 
5.50138 -2.33009 1.19577e-09 
5.71129 -2.342 1.61109e-09 
5.91834 -2.35467 1.76141e-09 
6.13888 -2.32345 1.62031e-09 
6.36236 -2.36367 3.04803e-09 
6.55372 -2.33037 3.53717e-09 
6.76846 -2.26846 1.79973e-09 
6.98524 -2.34757 3.10157e-09 
7.17433 -2.45637 3.93955e-09 
7.50908 -2.35081 7.96049e-09 
7.74048 -2.33113 1.12809e-08 
7.97454 -2.31337 7.17427e-09 
8.2234 -2.35053 -2.72163e-09 
8.48528 -2.28594 4.87225e-10 
-8.48528 -2.04465 1.66978e-09 
-8.26361 -2.08505 1.60494e-09 
-8.06706 -1.99888 -3.67128e-09 
-7.77313 -2.11806 -6.04804e-09 
-7.5236 -2.05035 -2.02353e-09 
-7.28666 -2.30641 -5.58038e-09 
-7.05603 -2.1331 -3.02926e-09 
-6.83791 -2.06778 5.29424e-10 
-6.63131 -2.09438 -5.87199e-10 
-6.30764 -2.06114 2.64622e-09 
-6.0143 -2.02832 3.64022e-09 
-5.90828 -2.21446 -4.67305e-10 
-5.70812 -2.14246 1.21947e-09 
-5.50594 -2.09792 1.8801e-09 
-5.27445 -2.09994 6.35048e-10 
-5.05215 -2.09159 -1.48141e-11 
-4.82937 -2.11199 2.92163e-10 
-4.60854 -2.11284 9.09931e-10 
-4.38442 -2.11063 5.9744e-10 
-4.17441 -2.10416 7.21464e-11 
-3.97422 -2.10007 -1.65495e-09 
-3.77639 -2.09605 -3.25788e-09 
-3.56952 -2.11023 -7.4724e-09 
-3.36707 -2.13381 -1.3891e-08 
-3.17064 -2.16247 -2.44509e-08 
-2.96981 -2.19116 -3.45036e-08 
-2.77056 -2.21269 -6.13352e-08 
-2.56172 -2.29309 -4.87517e-08 
-2.36925 -2.34327 -3.26858e-08 
-2.20835 -2.33204 -8.84875e-08 
-2.05839 -2.38149 -4.31489e-08 
-1.87951 -2.44936 -1.08669e-07 
-1.59033 -2.57427 -6.48146e-08 
-1.42971 -2.55845 -1.19495e-07 
-1.1675 -2.59526 -2.32377e-08 
-0.924728 -2.62714 -1.45413e-07 
-0.644594 -2.67084 1.36773e-07 
-0.507403 -2.68209 -1.64e-07 
-0.249879 -2.61156 -7.19801e-09 
-0.106198 -2.66328 2.14195e-08 
0.2824 -2.62966 -1.24287e-07 
0.486738 -2.68015 -1.09844e-07 
0.714974 -2.53677 1.41183e-07 
1.07245 -2.63204 -3.41374e-08 
1.194 -2.5863 -3.30367e-08 
1.43271 -2.58354 6.17452e-08 
1.56445 -2.51789 1.42355e-07 
1.75964 -2.46806 9.64524e-08 
1.9534 -2.48628 9.06406e-08 
2.32652 -2.40496 6.804e-08 
2.47136 -2.28793 3.25256e-08 
2.66415 -2.27164 6.7239e-08 
2.85264 -2.25808 4.35295e-08 
3.07006 -2.19665 3.96864e-08 
3.27134 -2.18382 1.5747e-08 
3.45613 -2.1253 1.40606e-08 
3.64793 -2.07973 9.00003e-09 
3.84041 -2.11355 2.6649e-09 
4.04008 -2.12229 -3.31397e-10 
4.26078 -2.09541 1.1593e-10 
4.4735 -2.08027 -5.74629e-10 
4.6969 -2.09645 -4.40763e-10 
4.92331 -2.10145 -1.2936e-10 
5.13924 -2.10913 -3.21738e-10 
5.34386 -2.10966 -8.71208e-10 
5.56089 -2.09647 -1.37469e-09 
5.76937 -2.0998 -8.42956e-10 
5.97732 -2.10873 -8.35908e-10 
6.22157 -2.10336 -1.3975e-09 
6.41307 -2.08044 -1.5141e-09 
6.6204 -2.07216 -1.75956e-09 
6.89873 -2.08054 -3.60321e-10 
7.1229 -2.13131 1.42974e-09 
7.30836 -2.24904 6.00494e-09 
7.50705 -2.09129 2.50277e-09 
7.73642 -2.08935 1.95404e-09 
7.98167 -2.08614 4.73803e-09 
8.23089 -2.12636 -1.90781e-09 
8.48528 -2.06956 4.80828e-10 
-8.48528 -1.66029 1.10474e-10 
-8.34473 -1.80881 1.89732e-09 
-7.87563 -1.88564 1.95107e-09 
-7.64245 -1.84521 -8.49e-10 
[...]
POINT_DATA 1978 
VECTORS vectors float
0.00797628 -0.00536931 0.999954 
0.00669414 -0.0889472 0.996012 
0.00692585 -0.110597 0.993851 
0.00762007 -0.0408844 0.99914 
0.00653459 -0.0100683 0.999927 
0.00555743 0.00134236 0.999983 
0.0066071 -0.00405519 0.999969 
0.00635658 -0.0273445 0.999605 
0.00672936 -0.0555507 0.998432 
0.00633347 -0.0785964 0.996886 
0.00625625 -0.0855967 0.996311 
0.00552649 -0.0663737 0.997781 
0.00524149 -0.0299799 0.999536 
0.00622619 -0.00625561 0.99996 
0.00592218 0.00531618 0.999967 
0.00567332 0.00905175 0.999941 
0.00592535 0.00496794 0.999969 
0.00588268 -0.00117618 0.999981 
0.00577425 -0.000554204 0.999983 
0.00553619 0.00682207 0.999961 
0.00535762 0.019264 0.999799 
0.00499319 0.0372074 0.999294 
0.00456932 0.0623904 0.998041 
0.0040988 0.0959896 0.995373 
0.00352342 0.137437 0.990504 
0.00315247 0.183378 0.983037 
0.00264737 0.226406 0.974029 
0.00229401 0.267993 0.963418 
0.00150634 0.308596 0.951192 
0.00135597 0.345148 0.938547 
0.000405364 0.381107 0.924531 
0.000126852 0.41432 0.910131 
-0.00139421 0.445381 0.89534 
-0.000470665 0.500929 0.865488 
-0.000216311 0.541682 0.840583 
-6.57558e-05 0.619922 0.784664 
-0.000971522 0.695805 0.718231 
-0.00151586 0.878892 0.477018 
-0.00024413 0.948494 0.316796 
-0.00024906 0.998956 0.0456877 
-0.000272372 0.969275 -0.245981 
-0.00129201 0.778766 -0.627313 
0.00133027 0.699856 -0.714283 
-0.0013099 0.609882 -0.792492 
0.00342499 0.535075 -0.844798 
4.38498e-05 0.494795 -0.86901 
0.00151606 0.456857 -0.889539 
0.000523176 0.425739 -0.904846 
-0.000849728 0.385091 -0.922878 
-0.000977968 0.347822 -0.93756 
-0.00167405 0.312629 -0.949874 
-0.00230328 0.258647 -0.965969 
-0.00286261 0.217781 -0.975993 
-0.00304422 0.170263 -0.985394 
-0.00378114 0.134219 -0.990944 
-0.0040266 0.100383 -0.99494 
-0.00466783 0.0699516 -0.997539 
-0.00502769 0.0446884 -0.998988 
-0.005084 0.0236843 -0.999706 
-0.00566475 0.00981778 -0.999935 
-0.00582998 0.00265209 -0.999979 
-0.00570025 -0.00118224 -0.999982 
-0.00593465 -0.00348101 -0.999975 
-0.00575108 -0.00536032 -0.999968 
-0.00557866 -0.00876197 -0.999945 
-0.00589154 -0.0172569 -0.999833 
-0.00558127 -0.0293111 -0.999554 
-0.00545956 -0.0440234 -0.999015 
-0.00604365 -0.0530826 -0.998571 
-0.00583706 -0.0506667 -0.998698 
-0.00587635 -0.0396416 -0.999196 
-0.00733003 -0.0354738 -0.999343 
-0.00657169 -0.0359921 -0.999332 
-0.00690982 -0.0434979 -0.999035 
-0.00703163 -0.043635 -0.999023 
-0.00626142 -0.0463334 -0.998906 
-0.00687691 -0.0530286 -0.998569 
-0.00536085 -0.0514058 -0.998665 
-0.00586745 -0.00850559 -0.999945 
-0.00486286 -0.00757382 0.999954 
0.0172533 -0.0768976 0.99689 
0.0296212 -0.0796932 0.996379 
0.0489441 -0.0730809 0.996124 
0.0433896 -0.0382373 0.998326 
0.0355025 -0.00584685 0.999352 
0.0365156 -0.0102251 0.999281 
0.0338236 -0.0292235 0.999 
0.0337324 -0.0518819 0.998083 
0.033069 -0.0548691 0.997946 
0.0265787 -0.0729292 0.996983 
0.0210028 -0.0670552 0.997528 
0.0183447 -0.0431103 0.998902 
0.0218423 -0.0198424 0.999564 
0.0250708 -0.00653904 0.999664 
0.023308 0.00116574 0.999728 
0.023946 0.00285208 0.999709 
0.0233689 0.00140806 0.999726 
0.0201153 0.00512557 0.999784 
0.013683 0.0160985 0.999777 
0.00388547 0.0330694 0.999445 
-0.00978971 0.0560654 0.998379 
-0.0278419 0.0868351 0.995833 
-0.0463737 0.123582 0.99125 
-0.0685915 0.167194 0.983535 
-0.0987362 0.213925 0.971847 
-0.114964 0.252882 0.960642 
-0.1219 0.28935 0.94943 
-0.124691 0.327126 0.936718 
-0.139767 0.36426 0.92075 
-0.134927 0.395312 0.908583 
-0.156105 0.421079 0.893489 
-0.105699 0.47971 0.871037 
-0.126406 0.519394 0.845134 
-0.0721451 0.567424 0.820259 
-0.0761168 0.653741 0.75288 
0.00179121 0.763218 0.646137 
-0.0323585 0.909968 0.413415 
-0.00396274 0.990153 0.139931 
-0.00620943 0.999277 -0.0375177 
-0.00451689 0.948089 -0.317979 
-0.000284623 0.845625 -0.533777 
0.0378146 0.740537 -0.67095 
0.0714177 0.628433 -0.774579 
0.123228 0.563634 -0.816782 
0.15197 0.475433 -0.866527 
0.130778 0.441347 -0.887756 
0.102951 0.405703 -0.908188 
0.102497 0.37941 -0.919534 
0.141001 0.347895 -0.92687 
0.0956388 0.304447 -0.947716 
0.119132 0.267537 -0.956155 
0.0838979 0.221187 -0.971616 
0.0910399 0.189952 -0.977563 
0.0586909 0.145766 -0.987577 
0.036457 0.108443 -0.993434 
0.018942 0.076802 -0.996866 
0.00284538 0.0488919 -0.9988 
-0.00883924 0.0274308 -0.999585 
-0.0182319 0.0131617 -0.999747 
-0.0225512 0.00354509 -0.999739 
-0.0243457 -0.00166278 -0.999702 
-0.0248354 -0.00518169 -0.999678 
-0.0232467 -0.0087328 -0.999692 
-0.0237514 -0.014822 -0.999608 
-0.0233576 -0.0236054 -0.999448 
-0.0211194 -0.0344067 -0.999185 
-0.022377 -0.0429374 -0.998827 
-0.0256253 -0.0456331 -0.99863 
-0.0258496 -0.0428288 -0.998748 
-0.0322053 -0.0374557 -0.998779 
-0.0340292 -0.0353164 -0.998797 
-0.030336 -0.0360725 -0.998889 
-0.0427393 -0.0374781 -0.998383 
-0.0459941 -0.0414415 -0.998082 
-0.0478447 -0.0470781 -0.997745 
-0.0457495 -0.0509632 -0.997652 
-0.0226935 -0.0367018 -0.999068 
-0.00463244 -0.00583811 -0.999971 
-4.12904e-05 -0.00906163 0.999959 
0.0229142 -0.0561386 0.99816 
0.050794 -0.0551975 0.997183 
0.0553659 -0.0427539 0.99755 
0.0454904 -0.0200364 0.998764 
0.0433156 -0.0181126 0.998897 
0.0432453 -0.00887649 0.999025 
0.0398977 -0.0213626 0.998975 
0.0379944 -0.036956 0.998594 
0.0268242 -0.0437651 0.998682 
0.017876 -0.0496002 0.998609 
0.0255257 -0.0573163 0.99803 
0.0227317 -0.0461908 0.998674 
0.0184026 -0.0304887 0.999366 
0.0147565 -0.0167939 0.99975 
0.0181131 -0.00634368 0.999816 
0.021556 -0.000576251 0.999767 
0.0222602 0.00214333 0.99975 
0.017696 0.00824193 0.999809 
0.00793597 0.0217245 0.999732 
-0.00799928 0.0426753 0.999057 
-0.0288588 0.0691713 0.997187 
-0.056859 0.102929 0.993062 
-0.0892419 0.141635 0.985888 
-0.123649 0.181605 0.975567 
-0.16356 0.225468 0.960423 
-0.21196 0.272969 0.938382 
-0.237359 0.304765 0.922377 
-0.235954 0.330591 0.913802 
-0.260524 0.360937 0.895461 
-0.270423 0.380538 0.884343 
-0.284322 0.410954 0.866186 
-0.184696 0.450313 0.873559 
-0.22686 0.478367 0.848351 
-0.227677 0.544483 0.80728 
-0.129488 0.605362 0.785347 
-0.0387192 0.792444 0.608714 
-0.0705661 0.890743 0.448997 
-0.0183798 0.968596 0.247959 
-0.00613763 0.99385 -0.110569 
-0.00276268 0.959803 -0.280664 
-0.00323443 0.897412 -0.441183 
0.10152 0.664055 -0.74076 
0.201538 0.592422 -0.780012 
0.123685 0.506969 -0.853044 
0.253285 0.461286 -0.85033 
0.223833 0.428211 -0.875519 
0.27435 0.416621 -0.866695 
0.236121 0.39044 -0.889833 
0.252278 0.362648 -0.89713 
0.215293 0.324372 -0.921104 
0.244539 0.312652 -0.91785 
0.190182 0.265595 -0.94514 
0.178429 0.239481 -0.954365 
0.131037 0.191538 -0.972699 
0.0907199 0.147037 -0.984962 
0.0694693 0.120746 -0.99025 
0.0359937 0.0825896 -0.995933 
0.0113189 0.0514729 -0.99861 
-0.00325674 0.0296562 -0.999555 
-0.0145242 0.0125151 -0.999816 
-0.0199898 0.0026823 -0.999797 
-0.0213812 -0.00347844 -0.999765 
-0.020735 -0.00864051 -0.999748 
-0.019413 -0.0138543 -0.999716 
-0.0168316 -0.0202954 -0.999652 
-0.0172115 -0.0278611 -0.999464 
-0.0182214 -0.0349088 -0.999224 
-0.018997 -0.0385193 -0.999077 
-0.0250446 -0.039864 -0.998891 
-0.028074 -0.0373551 -0.998908 
-0.0292654 -0.0336261 -0.999006 
-0.0389427 -0.0326101 -0.998709 
-0.0440064 -0.0334426 -0.998471 
-0.0560798 -0.0324078 -0.9979 
-0.0614824 -0.0390454 -0.997344 
-0.0584426 -0.0481629 -0.997128 
-0.0344458 -0.0427103 -0.998494 
-0.00156195 -0.00586173 -0.999978 
-0.000521673 -0.0139192 0.999913 
0.0161813 -0.0433392 0.998929 
0.0281783 -0.0474116 0.998478 
0.0408015 -0.0325453 0.998637 
0.0320032 -0.0157321 0.999364 
0.0440227 -0.00928686 0.998987 
0.0326351 -0.0113943 0.999402 
0.0228245 -0.0225509 0.999485 
0.0218261 -0.0327345 0.999226 
0.0105436 -0.0434362 0.999001 
0.00102969 -0.0411331 0.999153 
0.0119477 -0.0435443 0.99898 
0.0043742 -0.0329785 0.999446 
0.000234102 -0.0230008 0.999735 
0.00325726 -0.0131784 0.999908 
0.00737961 -0.00592794 0.999955 
0.0100728 9.11836e-05 0.999949 
0.00729661 0.00753147 0.999945 
-0.00285013 0.0219482 0.999755 
-0.0189569 0.0444422 0.998832 
-0.041552 0.0742595 0.996373 
-0.071767 0.112324 0.991077 
-0.111905 0.159267 0.980873 
-0.158451 0.209404 0.964906 
-0.205337 0.254899 0.944914 
-0.252909 0.297452 0.92063 
-0.311054 0.347453 0.884603 
-0.32886 0.364501 0.871201 
-0.345705 0.383671 0.85632 
-0.408677 0.421895 0.809313 
-0.408668 0.424746 0.807825 
-0.407113 0.431142 0.805218 
-0.325134 0.441382 0.836343 
-0.354304 0.467528 0.809868 
-0.274816 0.511021 0.814453 
-0.217306 0.569376 0.792836 
-0.102788 0.715245 0.691274 
-0.0865851 0.799781 0.594015 
-0.0451976 0.955941 0.290058 
-0.0125966 0.993807 0.110406 
-0.000615942 0.910659 -0.413158 
0.0315318 0.804082 -0.593681 
0.232073 0.648793 -0.724714 
0.255095 0.510064 -0.821439 
0.33173 0.490898 -0.80559 
0.344087 0.458385 -0.819443 
0.414262 0.458419 -0.786282 
0.415826 0.44714 -0.791931 
0.34489 0.411498 -0.843635 
0.327279 0.375251 -0.867223 
0.36013 0.386685 -0.848989 
0.318927 0.354653 -0.878924 
0.269718 0.31323 -0.910571 
0.231076 0.2794 -0.931955 
0.176695 0.229193 -0.957209 
0.143165 0.197397 -0.969813 
0.104909 0.156161 -0.982144 
0.0626533 0.105737 -0.992418 
0.0324482 0.06709 -0.997219 
0.0131889 0.0381478 -0.999185 
0.000736644 0.0182076 -0.999834 
-0.00696965 0.00438944 -0.999966 
-0.00768238 -0.0042116 -0.999962 
-0.00589078 -0.0107658 -0.999925 
-0.00325808 -0.0164799 -0.999859 
-0.00120166 -0.0223006 -0.999751 
-0.00253362 -0.0275741 -0.999616 
-0.00453649 -0.0321968 -0.999471 
-0.00667286 -0.0353962 -0.999351 
-0.00876508 -0.0353409 -0.999337 
-0.0127413 -0.0336726 -0.999352 
-0.0214128 -0.0277769 -0.999385 
-0.0330069 -0.0245366 -0.999154 
-0.0482607 -0.0269547 -0.998471 
-0.0417813 -0.0243365 -0.99883 
-0.0469768 -0.0337127 -0.998327 
-0.0475463 -0.0439904 -0.9979 
-0.029753 -0.0403218 -0.998744 
-0.000449413 -0.00697237 -0.999972 
0.00338816 -0.0111933 0.999935 
0.00307114 -0.0317752 0.99949 
0.0190242 -0.0347224 0.999216 
0.0176962 -0.0176911 0.999687 
0.012439 -0.00703568 0.999898 
0.0294382 -0.00849238 0.99953 
0.0139036 -0.00907338 0.999862 
0.0115946 -0.0176036 0.999778 
0.00651673 -0.0296182 0.99954 
0.00775821 -0.0369613 0.999287 
8.78534e-05 -0.0392049 0.999231 
-0.00653278 -0.0350389 0.999365 
-0.0071562 -0.032167 0.999457 
-0.00893391 -0.0256674 0.999631 
-0.00603852 -0.0180299 0.999819 
-0.00281324 -0.0106797 0.999939 
-0.000389981 -0.00229443 0.999997 
-0.00260763 0.00832896 0.999962 
-0.011109 0.0252339 0.99962 
-0.0279166 0.0526891 0.998221 
-0.0513171 0.0881613 0.994783 
-0.0812652 0.130224 0.988148 
-0.122452 0.182809 0.975493 
-0.173519 0.242518 0.954503 
-0.226105 0.295988 0.928045 
-0.276645 0.338947 0.899212 
-0.32724 0.379224 0.865507 
-0.38219 0.423824 0.82116 
-0.4044 0.427875 0.808321 
-0.438321 0.449046 0.778609 
-0.496612 0.486384 0.718893 
-0.511617 0.478413 0.713701 
-0.467309 0.455774 0.757557 
-0.484296 0.466128 0.740393 
-0.374986 0.505496 0.777084 
-0.412282 0.53681 0.736111 
-0.218071 0.621195 0.752703 
-0.175185 0.710562 0.681478 
-0.110428 0.892196 0.437941 
-0.00619862 0.999515 -0.0305263 
-0.00200494 0.980773 -0.195142 
0.110816 0.726732 -0.677924 
0.24194 0.53836 -0.807238 
0.406336 0.511603 -0.75707 
0.439937 0.484142 -0.756348 
0.527677 0.483421 -0.698471 
0.501556 0.478925 -0.720467 
0.426341 0.439418 -0.790661 
0.408588 0.425552 -0.807441 
0.439105 0.44561 -0.78014 
0.424747 0.450022 -0.785538 
0.36606 0.406331 -0.837195 
0.313917 0.367189 -0.875573 
0.298373 0.372549 -0.878738 
0.241287 0.309667 -0.919721 
0.192701 0.266118 -0.944483 
0.147002 0.220845 -0.964167 
0.0983047 0.157342 -0.982639 
0.062022 0.106518 -0.992374 
0.0357229 0.0671585 -0.997103 
0.0177668 0.0380877 -0.999116 
0.00594138 0.0146112 -0.999876 
0.00189804 0.000573559 -0.999998 
0.00271543 -0.00873733 -0.999958 
0.00541219 -0.0157129 -0.999862 
0.00747446 -0.0210664 -0.99975 
0.0082079 -0.0253635 -0.999645 
0.007163 -0.028498 -0.999568 
0.00415882 -0.0314882 -0.999495 
0.00337985 -0.0314375 -0.9995 
-0.000455486 -0.0310962 -0.999516 
-0.00789133 -0.0276533 -0.999586 
-0.014949 -0.0188566 -0.99971 
-0.0248367 -0.0163227 -0.999558 
-0.0252104 -0.0165829 -0.999545 
-0.0296565 -0.0327879 -0.999022 
-0.0248508 -0.044185 -0.998714 
-0.0222331 -0.0387464 -0.999002 
-0.000975941 -0.00962049 -0.999954 
-0.00110194 -0.00578217 0.999979 
-0.00225296 -0.0324942 0.999469 
0.00495644 -0.0398024 0.999195 
0.000252272 -0.0345093 0.999404 
0.00318185 -0.0169182 0.999852 
0.00499572 -0.00711715 0.999962 
0.0063382 -0.0180148 0.999818 
0.00459821 -0.0272764 0.999617 
0.000690462 -0.0335456 0.999437 
-0.00186187 -0.0349423 0.999388 
-0.00453988 -0.0332235 0.999438 
-0.00761478 -0.0305802 0.999503 
-0.0076311 -0.0276412 0.999589 
-0.00646486 -0.0226479 0.999723 
-0.00334947 -0.0163747 0.99986 
-0.00095401 -0.00793748 0.999968 
-0.000542299 0.00348598 0.999994 
-0.00605427 0.0217823 0.999744 
-0.0188505 0.0479453 0.998672 
-0.0382665 0.0843998 0.995697 
-0.0648886 0.130884 0.989272 
-0.100325 0.184947 0.977614 
-0.140975 0.235345 0.961633 
-0.194753 0.303179 0.93282 
-0.250032 0.366013 0.896392 
-0.298296 0.403365 0.865052 
-0.34376 0.434667 0.832403 
-0.391457 0.469845 0.791206 
-0.440781 0.508991 0.739351 
-0.463813 0.506353 0.72697 
-0.513322 0.535086 0.670959 
-0.546281 0.503786 0.669161 
-0.555629 0.488598 0.672717 
-0.597836 0.4812 0.641123 
-0.587503 0.489951 0.644041 
-0.490762 0.498716 0.714448 
-0.312046 0.560052 0.767443 
-0.14313 0.722514 0.676378 
-0.061944 0.959422 0.275086 
-0.0010668 0.993153 -0.116823 
-0.000788679 0.94272 -0.333588 
0.131883 0.769171 -0.625286 
0.5057 0.509656 -0.696074 
0.499092 0.502829 -0.705741 
0.523607 0.487624 -0.698612 
0.585689 0.512766 -0.627725 
0.552596 0.515971 -0.654532 
0.512466 0.492298 -0.703577 
0.517159 0.516562 -0.682429 
0.485913 0.506674 -0.712159 
0.436293 0.497225 -0.749944 
0.383702 0.457287 -0.802285 
0.351616 0.463852 -0.813146 
0.292008 0.414464 -0.861946 
0.240078 0.354113 -0.903862 
0.189869 0.30644 -0.932762 
0.135575 0.237474 -0.961886 
0.094565 0.177843 -0.979505 
0.0615047 0.125344 -0.990205 
0.0355971 0.0805138 -0.996118 
0.0150508 0.042623 -0.998978 
0.00446687 0.0156844 -0.999867 
0.000869064 -0.000577703 -0.999999 
0.00180604 -0.0110286 -0.999938 
0.00407583 -0.0183505 -0.999823 
0.00648918 -0.0231996 -0.99971 
0.00734061 -0.0260127 -0.999635 
0.00717869 -0.027629 -0.999592 
0.00612657 -0.0286053 -0.999572 
0.0030996 -0.027662 -0.999612 
0.000938442 -0.0272897 -0.999627 
-0.00268079 -0.0236847 -0.999716 
-0.00470117 -0.0155372 -0.999868 
-0.0109838 -0.0102212 -0.999887 
-0.0119161 -0.0095391 -0.999883 
-0.013314 -0.0258266 -0.999578 
-0.00981743 -0.0387457 -0.999201 
-0.00456319 -0.027599 -0.999609 
-0.000968471 -0.0100071 -0.999952 
0.00174519 -0.00461763 0.999985 
-0.00555836 -0.0325388 0.999455 
-0.00983167 -0.0327869 0.999414 
-0.00601705 -0.0159063 0.999855 
0.00173743 -0.00582884 0.999981 
0.00378482 -0.00444926 0.999983 
0.00814148 -0.0155635 0.999846 
0.0080892 -0.0246227 0.999664 
0.00470964 -0.029853 0.999543 
0.00250765 -0.0305646 0.99953 
0.00131714 -0.0299196 0.999551 
-0.00209244 -0.0300361 0.999547 
0.00140159 -0.0284038 0.999596 
0.00129983 -0.0258292 0.999665 
0.00425257 -0.0208128 0.999774 
0.00657881 -0.0127485 0.999897 
0.00767117 -0.00180589 0.999969 
0.00418843 0.0168408 0.999849 
-0.00600833 0.046072 0.99892 
-0.0235384 0.0847105 0.996127 
-0.0477992 0.135 0.989692 
-0.083987 0.199841 0.976222 
-0.128652 0.269162 0.954464 
-0.178747 0.329713 0.927005 
-0.238881 0.410034 0.880232 
-0.296236 0.468694 0.832208 
-0.34424 0.509171 0.788824 
-0.385225 0.532072 0.75399 
-0.426438 0.557418 0.712346 
-0.510853 0.59855 0.617067 
-0.555326 0.613893 0.56103 
-0.566069 0.564117 0.601114 
-0.620269 0.577927 0.530346 
-0.609279 0.536784 0.583645 
-0.654943 0.530991 0.537678 
-0.495155 0.446968 0.745011 
-0.483772 0.5277 0.698211 
-0.222747 0.687529 0.691149 
-0.14573 0.794434 0.589607 
-0.0239348 0.989652 0.141476 
0.0387011 0.832357 -0.552887 
0.334114 0.522658 -0.784344 
0.63717 0.507385 -0.580152 
0.624955 0.507454 -0.59323 
0.657015 0.532019 -0.534122 
0.612301 0.541263 -0.5763 
0.588898 0.562669 -0.580175 
0.575732 0.578846 -0.577469 
0.539267 0.578059 -0.612404 
0.487697 0.554471 -0.674324 
0.416309 0.540916 -0.730819 
0.396532 0.568777 -0.720593 
0.332626 0.499604 -0.799847 
0.305796 0.529173 -0.791495 
0.261312 0.439936 -0.85917 
0.20897 0.385807 -0.898601 
0.154952 0.305637 -0.939455 
0.10458 0.235807 -0.966156 
0.068334 0.173957 -0.982379 
0.039084 0.117173 -0.992342 
0.0169393 0.0698372 -0.997415 
0.000430994 0.0302624 -0.999542 
-0.00630949 0.00635187 -0.99996 
-0.00707185 -0.00818485 -0.999941 
-0.00534613 -0.0174215 -0.999834 
-0.00275367 -0.0232366 -0.999726 
-0.000503839 -0.0261201 -0.999659 
0.00126735 -0.0269212 -0.999637 
0.000744735 -0.0267166 -0.999643 
-0.000229799 -0.0259157 -0.999664 
-0.00217777 -0.024793 -0.99969 
-0.00318765 -0.0222147 -0.999748 
-0.00476093 -0.0129749 -0.999904 
-0.00470704 -0.00477786 -0.999977 
-0.00293173 -0.0039873 -0.999988 
-0.00323256 -0.0170219 -0.99985 
-0.000386311 -0.0323992 -0.999475 
-0.00326606 -0.0320797 -0.99948 
-0.00213767 -0.00632579 -0.999974 
0.00374948 -0.00491557 0.999979 
-0.00309207 -0.0331225 0.999446 
-0.0140775 -0.03715 0.999211 
-0.00722483 -0.019847 0.999777 
-0.00125366 -0.00409196 0.999991 
0.00869665 -0.00729758 0.999936 
0.0107876 -0.0190674 0.99976 
0.0101911 -0.024438 0.999649 
0.00827487 -0.0269496 0.999603 
0.00827809 -0.0266672 0.99961 
0.00676714 -0.0278194 0.99959 
0.00542568 -0.0285684 0.999577 
0.00782327 -0.0287659 0.999556 
0.00963021 -0.0262373 0.999609 
0.0128908 -0.0195914 0.999725 
0.0154201 -0.0087177 0.999843 
0.01398 0.00741839 0.999875 
0.00735189 0.0338754 0.999399 
-0.00654413 0.0739991 0.997237 
-0.0280301 0.127322 0.991465 
-0.0616548 0.196851 0.978493 
-0.101935 0.277933 0.955177 
-0.149195 0.352094 0.923997 
-0.198759 0.414331 0.888158 
-0.262622 0.498512 0.826145 
-0.303325 0.559955 0.771002 
-0.343619 0.579041 0.739349 
-0.397617 0.619678 0.676683 
-0.440297 0.641043 0.628652 
-0.471973 0.591205 0.654002 
-0.519755 0.671296 0.52841 
-0.603263 0.660661 0.446768 
-0.621178 0.616195 0.484193 
-0.667833 0.595848 0.446055 
-0.641328 0.537859 0.547181 
-0.693617 0.58531 0.41989 
-0.722133 0.50585 0.471848 
-0.372932 0.555943 0.742865 
-0.193332 0.748703 0.634087 
-0.00328327 0.995721 0.0923461 
0.00741099 0.870839 -0.491515 
0.389851 0.498454 -0.774313 
0.621032 0.517099 -0.589005 
0.703821 0.530305 -0.472666 
0.670435 0.566613 -0.479027 
0.630602 0.576075 -0.520076 
0.615491 0.633722 -0.46858 
0.515581 0.653319 -0.554392 
0.470697 0.589169 -0.656752 
0.460217 0.64159 -0.613647 
0.412844 0.652333 -0.635627 
0.359445 0.591302 -0.721915 
0.322342 0.619744 -0.715551 
0.268585 0.538502 -0.798673 
0.227078 0.481724 -0.846391 
0.17913 0.403606 -0.897226 
0.134183 0.324059 -0.936472 
0.0910118 0.263085 -0.96047 
0.0560144 0.190169 -0.980152 
0.0286812 0.128226 -0.99133 
0.00602368 0.0689412 -0.997603 
-0.00834883 0.0288961 -0.999548 
-0.0142595 0.00361143 -0.999892 
-0.0145169 -0.011488 -0.999829 
-0.0123908 -0.0212665 -0.999697 
-0.00991146 -0.0266182 -0.999597 
-0.00653793 -0.0281121 -0.999583 
-0.00481916 -0.0273263 -0.999615 
-0.00453456 -0.0257572 -0.999658 
-0.00428433 -0.0241086 -0.9997 
-0.00536696 -0.0217632 -0.999749 
-0.00614725 -0.0187707 -0.999805 
-0.00715185 -0.0107825 -0.999916 
-0.00551993 -0.0025039 -0.999982 
-0.0028887 -6.42144e-05 -0.999996 
0.000193679 -0.013386 -0.99991 
0.00331045 -0.0287368 -0.999582 
-0.0015761 -0.030474 -0.999534 
-0.00412632 -0.0047013 -0.999978 
0.00142589 -0.00475597 0.999983 
1.68566e-05 -0.0328339 0.999461 
-0.00724635 -0.0328217 0.999435 
0.00148858 -0.0100117 0.999949 
0.00517438 -0.00105128 0.999986 
0.00874231 0.000944003 0.999961 
0.0105746 -0.0108762 0.999885 
0.00930824 -0.0192631 0.999771 
0.00836617 -0.0240492 0.999676 
0.0072631 -0.025782 0.999641 
0.00752508 -0.0279357 0.999581 
0.0088281 -0.0297311 0.999519 
0.0114774 -0.0313188 0.999444 