# vtk DataFile Version 3.0 
Exported using Morpho https://github.com/Morpho-lang/morpho 
ASCII 
DATASET UNSTRUCTURED_GRID 

POINTS 1978 float 
-8.48528 -2.82843 5.52014e-09 
-8.2042 -2.82843 -1.59683e-08 
-7.97785 -2.82843 -1.07285e-08 
-7.69321 -2.82843 -1.02862e-08 
-7.47572 -2.82843 1.41105e-09 
-7.20265 -2.82843 -2.64993e-09 
-7.00523 -2.82843 -1.2403e-08 
-6.77659 -2.82843 -1.92538e-08 
-6.54995 -2.82843 -2.42309e-08 
-6.33808 -2.82843 -1.54897e-08 
-6.12582 -2.82843 -1.47584e-08 
-5.91279 -2.82843 -1.34082e-08 
-5.69863 -2.82843 -1.40601e-08 
-5.48836 -2.82843 -9.18588e-09 
-5.27256 -2.82843 -8.71122e-09 
-5.06369 -2.82843 -7.96344e-09 
-4.85489 -2.82843 -4.21244e-09 
-4.6468 -2.82843 -3.28647e-09 
-4.4339 -2.82843 -1.14732e-09 
-4.21776 -2.82843 6.56988e-11 
-4.01164 -2.82843 9.84091e-10 
-3.81402 -2.82843 4.01122e-09 
-3.61568 -2.82843 3.21255e-09 
-3.41521 -2.82843 -4.41327e-09 
-3.19437 -2.82843 -1.73519e-08 
-2.97905 -2.82843 -3.58239e-08 
-2.74072 -2.82843 -6.52392e-08 
-2.49477 -2.82843 -1.00615e-07 
-2.25841 -2.82843 -1.46773e-07 
-2.02813 -2.82843 -2.35727e-07 
-1.78714 -2.82843 -2.87382e-07 
-1.60437 -2.82843 -4.34808e-07 
-1.36697 -2.82843 -3.87912e-07 
-1.17194 -2.82843 -3.5084e-07 
-1.05682 -2.82843 -2.29507e-07 
-0.771389 -2.82843 -2.90346e-07 
-0.65432 -2.82843 3.22901e-09 
-0.514607 -2.82843 -9.57713e-08 
-0.390525 -2.82843 2.81592e-07 
-0.00446043 -2.82843 -1.78718e-07 
0.150551 -2.82843 1.24664e-07 
0.552014 -2.82843 -1.71167e-08 
0.697799 -2.82842 3.6502e-08 
0.838004 -2.82843 1.20182e-07 
1.03787 -2.82843 4.2952e-07 
1.23558 -2.82843 6.20628e-07 
1.44065 -2.82843 3.3962e-07 
1.61325 -2.82843 3.2189e-07 
1.81345 -2.82843 2.69492e-07 
2.02813 -2.82843 2.58328e-07 
2.28794 -2.82843 1.98623e-07 
2.52041 -2.82843 8.90535e-08 
2.76977 -2.82843 6.70152e-08 
3.00706 -2.82843 3.23483e-08 
3.22485 -2.82843 1.36951e-08 
3.43047 -2.82843 4.45314e-09 
3.63046 -2.82843 -2.85855e-09 
3.81962 -2.82843 -1.52077e-09 
4.03242 -2.82843 -1.97593e-09 
4.24143 -2.82843 2.98535e-10 
4.4436 -2.82843 1.58804e-09 
4.65368 -2.82843 3.5112e-09 
4.85605 -2.82843 5.1159e-09 
5.06572 -2.82843 6.82595e-09 
5.27163 -2.82843 9.18918e-09 
5.49551 -2.82843 9.76239e-09 
5.69412 -2.82843 1.1109e-08 
5.91971 -2.82843 1.26755e-08 
6.14562 -2.82843 1.65486e-08 
6.35127 -2.82843 1.95053e-08 
6.58455 -2.82843 1.82682e-08 
6.79688 -2.82843 1.88367e-08 
6.99542 -2.82843 2.21504e-08 
7.27189 -2.82843 6.033e-09 
7.49152 -2.82843 -2.94961e-09 
7.73551 -2.82843 1.44936e-08 
7.99783 -2.82843 2.2308e-08 
8.18878 -2.82843 1.28551e-08 
8.48528 -2.82843 9.55573e-10 
-8.48528 -2.54913 2.51642e-08 
-8.28214 -2.62838 -9.50773e-10 
-8.03551 -2.58051 -3.53664e-10 
-7.79768 -2.63574 -2.04228e-09 
-7.55216 -2.58285 -2.85935e-09 
-7.29123 -2.63931 -1.66328e-09 
-7.03069 -2.56365 -2.68247e-09 
-6.82707 -2.60017 -2.78363e-09 
-6.58024 -2.60112 -3.57561e-09 
-6.349 -2.58771 -2.09828e-09 
-6.12761 -2.58568 -3.40369e-09 
-5.90801 -2.58937 -2.67752e-09 
-5.69084 -2.58377 -2.32854e-09 
-5.46808 -2.59309 -2.10166e-09 
-5.25088 -2.58963 -1.81331e-09 
-5.03424 -2.59172 -1.4911e-09 
-4.82043 -2.59096 -8.40682e-10 
-4.60324 -2.59628 -3.02354e-10 
-4.38251 -2.60137 3.89851e-10 
-4.16329 -2.59464 1.16717e-09 
-3.95571 -2.58735 2.31471e-09 
-3.74467 -2.58519 3.42602e-09 
-3.53061 -2.58133 4.38611e-09 
-3.30878 -2.59367 4.26466e-09 
-3.07589 -2.56849 4.91018e-09 
-2.84549 -2.58207 5.91724e-09 
-2.60722 -2.58797 7.76751e-09 
-2.37128 -2.58325 9.35371e-09 
-2.15457 -2.59796 1.49e-08 
-1.92804 -2.63718 7.27017e-09 
-1.72467 -2.6123 1.44922e-08 
-1.53025 -2.68028 2.92832e-09 
-1.33258 -2.67068 -8.77612e-10 
-1.20433 -2.63323 4.06548e-08 
-0.975231 -2.75774 -3.28651e-08 
-0.815877 -2.72907 -1.89984e-09 
-0.660565 -2.69381 4.94022e-09 
-0.552353 -2.72735 -1.38182e-08 
-0.279144 -2.79364 -2.95825e-08 
-0.0797232 -2.7687 1.55911e-08 
0.277106 -2.75039 -5.18898e-09 
0.396356 -2.79124 1.5742e-08 
0.641684 -2.70767 -2.5542e-08 
0.934915 -2.74008 -1.96706e-08 
1.15893 -2.72029 -1.60959e-08 
1.25457 -2.60554 -3.07689e-09 
1.37003 -2.70319 -2.32649e-09 
1.58171 -2.63442 -8.24931e-09 
1.77383 -2.62508 -2.17933e-08 
1.98628 -2.61006 -9.65213e-10 
2.22556 -2.61712 -1.3152e-08 
2.48027 -2.58806 -1.04511e-08 
2.73128 -2.58891 -5.29833e-09 
2.98459 -2.58413 -6.47034e-09 
3.21842 -2.57836 -5.64673e-09 
3.44034 -2.57739 -4.68797e-09 
3.64311 -2.57046 -4.19442e-09 
3.86386 -2.60449 -2.2094e-09 
4.08451 -2.59747 -1.69343e-09 
4.29595 -2.58559 -7.48724e-10 
4.50932 -2.59296 3.87851e-11 
4.72108 -2.58315 7.40971e-10 
4.9337 -2.59234 1.17218e-09 
5.14595 -2.58729 1.65982e-09 
5.3661 -2.60476 1.75831e-09 
5.57793 -2.57326 2.47826e-09 
5.79434 -2.60083 2.39158e-09 
6.02415 -2.59894 2.78269e-09 
6.24166 -2.5752 2.95563e-09 
6.4626 -2.60617 3.07732e-09 
6.68741 -2.58321 3.15609e-09 
6.89452 -2.5629 3.47935e-09 
7.12611 -2.63525 2.27255e-09 
7.37162 -2.58059 2.40204e-09 
7.60204 -2.60531 2.04016e-09 
7.86029 -2.62213 1.4263e-09 
8.07545 -2.54763 8.66599e-10 
8.30556 -2.64736 7.49736e-10 
8.48528 -2.52659 -1.45853e-08 
-8.48528 -2.32352 8.48126e-09 
-8.23761 -2.38774 -8.18681e-10 
-8.01192 -2.32366 8.03392e-11 
-7.79689 -2.40729 -2.11734e-09 
-7.59122 -2.31373 -2.74657e-09 
-7.37257 -2.42718 -3.9368e-09 
-7.12952 -2.37711 -3.42045e-09 
-6.8843 -2.31059 -3.20963e-09 
-6.68317 -2.38793 -3.68541e-09 
-6.45047 -2.36222 -3.34314e-09 
-6.23046 -2.34906 -3.30449e-09 
-6.00875 -2.34736 -2.82046e-09 
-5.79781 -2.34428 -2.56254e-09 
-5.57524 -2.35298 -2.437e-09 
-5.35908 -2.35416 -1.95434e-09 
-5.14039 -2.35725 -1.56087e-09 
-4.92454 -2.35471 -1.04597e-09 
-4.70847 -2.3606 -4.92344e-10 
-4.49204 -2.36861 2.94243e-10 
-4.275 -2.37088 1.23877e-09 
-4.06201 -2.34771 2.19042e-09 
-3.85344 -2.34912 3.36289e-09 
-3.63622 -2.34433 4.37853e-09 
-3.41429 -2.34468 5.65704e-09 
-3.19644 -2.34695 6.01085e-09 
-2.95257 -2.32559 6.77454e-09 
-2.72997 -2.341 5.91976e-09 
-2.50708 -2.35311 6.10042e-09 
-2.28839 -2.34927 1.35274e-08 
-2.06399 -2.41323 3.86277e-09 
-1.85325 -2.43775 1.92554e-08 
-1.61969 -2.4622 -3.27784e-09 
-1.44276 -2.52392 7.3897e-08 
-1.2883 -2.47315 -1.66013e-07 
-1.09181 -2.61404 1.39827e-09 
-0.923613 -2.64438 -7.9863e-09 
-0.758842 -2.61977 -2.24219e-08 
-0.405549 -2.72494 -1.18022e-08 
-0.226615 -2.71784 1.49547e-08 
0.119962 -2.73234 2.1954e-08 
0.217984 -2.64828 4.31043e-10 
0.499652 -2.71877 -5.73702e-09 
0.775352 -2.69235 2.48828e-08 
0.895289 -2.61638 -1.10433e-07 
1.04148 -2.64702 5.27414e-08 
1.27778 -2.47109 -3.22722e-08 
1.45745 -2.54022 -4.51498e-09 
1.60687 -2.41338 4.45527e-09 
1.76331 -2.42913 -1.41507e-08 
1.99188 -2.41816 -2.32413e-08 
2.23102 -2.40781 2.49501e-09 
2.44399 -2.35054 -1.73334e-08 
2.67184 -2.36367 -1.48449e-09 
2.92496 -2.35313 -8.05952e-09 
3.16074 -2.33746 -6.38683e-09 
3.38712 -2.33915 -6.28527e-09 
3.60636 -2.31316 -4.54387e-09 
3.81339 -2.36765 -3.68701e-09 
4.02497 -2.37132 -2.48884e-09 
4.24124 -2.34859 -1.39802e-09 
4.45362 -2.35103 -4.64853e-10 
4.65885 -2.34627 2.33218e-10 
4.87306 -2.35071 8.34418e-10 
5.08044 -2.35003 1.37787e-09 
5.2978 -2.36798 1.89652e-09 
5.50515 -2.34281 2.24159e-09 
5.73168 -2.35376 2.63105e-09 
5.94726 -2.37176 3.08795e-09 
6.16776 -2.34192 3.22197e-09 
6.39818 -2.35874 3.34653e-09 
6.60872 -2.35727 3.48408e-09 
6.8264 -2.31282 3.40744e-09 
7.05852 -2.38227 3.90655e-09 
7.27319 -2.38252 3.41766e-09 
7.53921 -2.35712 3.71384e-09 
7.77189 -2.40548 2.56452e-09 
7.99271 -2.32184 3.10067e-10 
8.25477 -2.38635 -5.27526e-10 
8.48528 -2.29175 -2.02588e-08 
-8.48528 -2.05076 1.23312e-08 
-8.2785 -2.15294 1.65264e-10 
-8.04695 -2.08514 1.19152e-09 
-7.79258 -2.14225 -6.25663e-11 
-7.52738 -2.08287 -1.23704e-09 
-7.31178 -2.20984 -2.06101e-09 
-7.05163 -2.13521 -1.02951e-09 
-6.77139 -2.09503 -5.72986e-10 
-6.57325 -2.1509 -7.3126e-10 
-6.34883 -2.11514 -2.38152e-10 
-6.12853 -2.11532 -1.94632e-10 
-5.91192 -2.09493 8.9004e-12 
-5.69515 -2.11369 -2.09012e-10 
-5.4758 -2.11282 -3.45863e-11 
-5.25759 -2.1213 -1.92111e-11 
-5.04074 -2.12113 1.61251e-10 
-4.82242 -2.1218 2.48657e-10 
-4.60773 -2.12811 3.25001e-10 
-4.39215 -2.13639 4.38975e-10 
-4.18211 -2.12443 4.72079e-10 
-3.96464 -2.10204 2.97217e-10 
-3.75014 -2.11252 3.55738e-10 
-3.52543 -2.10584 -2.37454e-10 
-3.30453 -2.09517 -1.16359e-09 
-3.08474 -2.11354 -5.45921e-10 
-2.85009 -2.08561 -1.60111e-09 
-2.63986 -2.11235 -5.061e-09 
-2.43321 -2.13565 9.73069e-10 
-2.23008 -2.13724 -3.51886e-09 
-2.0478 -2.22856 -1.10374e-08 
-1.83097 -2.25801 1.02407e-08 
-1.63025 -2.30097 3.14611e-08 
-1.47221 -2.35241 1.45239e-08 
-1.36081 -2.19046 4.29541e-08 
-1.18422 -2.41695 1.36218e-07 
-1.01748 -2.52705 -8.09948e-08 
-0.850728 -2.53848 4.51342e-08 
-0.467028 -2.63391 -8.39031e-09 
-0.125251 -2.67637 -3.44036e-08 
0.0241715 -2.68776 -2.11126e-08 
0.369956 -2.66644 -3.08955e-08 
0.519481 -2.61335 2.76732e-08 
0.717971 -2.5804 1.5169e-07 
0.95036 -2.50367 -7.31792e-08 
1.10864 -2.52755 2.39729e-08 
1.42147 -2.38947 -3.81737e-08 
1.53299 -2.26055 2.27786e-08 
1.71211 -2.22253 -1.06163e-08 
1.89658 -2.25013 8.94822e-09 
2.11439 -2.2229 -1.18488e-08 
2.31312 -2.15484 4.79049e-09 
2.52968 -2.13062 5.59898e-09 
2.74744 -2.14572 -1.97846e-09 
2.9631 -2.11165 1.33442e-09 
3.17309 -2.0876 2.2603e-09 
3.38531 -2.09868 5.06375e-10 
3.61353 -2.08182 1.22182e-10 
3.84073 -2.12569 -7.5156e-10 
4.05695 -2.13399 -5.27549e-10 
4.27606 -2.11057 -3.07831e-10 
4.48122 -2.10221 -3.15645e-10 
4.69725 -2.11266 -3.23714e-10 
4.90612 -2.10721 -2.2812e-10 
5.12514 -2.12091 -1.03347e-10 
5.33042 -2.11791 9.23535e-12 
5.55754 -2.11729 1.15745e-10 
5.7758 -2.11559 2.08772e-10 
5.98843 -2.1276 3.77988e-10 
6.22484 -2.11823 3.11042e-10 
6.43418 -2.10754 4.82868e-11 
6.64366 -2.10682 1.65837e-10 
6.89681 -2.10279 2.429e-10 
7.10459 -2.12991 7.40817e-10 
7.34491 -2.16871 1.41196e-09 
7.55501 -2.08926 7.04759e-10 
7.75943 -2.16331 4.46033e-10 
7.97599 -2.0754 -2.7601e-09 
8.20841 -2.16662 -1.35111e-09 
8.48528 -2.09302 -1.91676e-08 
-8.48528 -1.81473 -9.80715e-11 
-8.24409 -1.90306 1.40172e-09 
-7.91916 -1.89766 2.45303e-09 
[...]
POINT_DATA 1978 
VECTORS vectors float
0.00415661 -0.00660444 0.99997 
0.00540881 -0.0223749 0.999734 
0.00565044 -0.0129485 0.999899 
0.00623228 -0.00738955 0.999952 
0.00617717 -0.0138786 0.999884 
0.00590826 -0.03125 0.999494 
0.00592406 -0.0401567 0.999175 
0.00541348 -0.0457673 0.998937 
0.00555285 -0.0478932 0.998836 
0.00531396 -0.0480532 0.99883 
0.00530103 -0.0449652 0.998974 
0.00519616 -0.0407585 0.999155 
0.00519849 -0.0359322 0.99934 
0.00519764 -0.0311346 0.999501 
0.00517026 -0.0267768 0.999627 
0.00516582 -0.0224023 0.999735 
0.0051211 -0.0176358 0.999831 
0.00511494 -0.0123666 0.99991 
0.00500709 -0.00566823 0.999971 
0.0048776 0.00312465 0.999982 
0.00478471 0.0142475 0.999886 
0.00459161 0.0281523 0.999592 
0.0044507 0.0457655 0.998941 
0.00418771 0.0676358 0.9977 
0.00409136 0.0958268 0.995389 
0.00401211 0.12662 0.991942 
0.0038824 0.163318 0.986565 
0.00368191 0.202496 0.979275 
0.00332415 0.242908 0.970043 
0.00276393 0.287204 0.957865 
0.00234521 0.337836 0.941201 
0.00187913 0.382397 0.923996 
0.0011087 0.448105 0.89398 
0.000283366 0.522544 0.852612 
-0.00031502 0.580971 0.813924 
-0.000511956 0.727718 0.685876 
-0.000889565 0.792917 0.609329 
-0.00122642 0.864743 0.502214 
6.24816e-05 0.919902 0.392149 
-0.00112757 0.999922 0.0124279 
0.000464755 0.983355 -0.181693 
-0.000122149 0.845221 -0.534418 
0.00112319 0.761581 -0.648068 
0.000579675 0.679116 -0.734031 
-0.000254962 0.588149 -0.808753 
-0.000740999 0.506856 -0.86203 
-0.000785556 0.434294 -0.900771 
-0.00184256 0.379195 -0.925315 
-0.00228048 0.330419 -0.943831 
-0.0028233 0.285708 -0.958312 
-0.00341797 0.238364 -0.971169 
-0.00378413 0.202197 -0.979336 
-0.0038416 0.160087 -0.987094 
-0.00400787 0.124427 -0.99222 
-0.00403536 0.0927376 -0.995681 
-0.00420894 0.066491 -0.997777 
-0.00448483 0.0449401 -0.998979 
-0.0045821 0.0282826 -0.999589 
-0.00469613 0.0138352 -0.999893 
-0.0048883 0.00219509 -0.999985 
-0.00496144 -0.00658197 -0.999965 
-0.00501468 -0.0136568 -0.999893 
-0.00511057 -0.0189076 -0.999808 
-0.00518485 -0.0230886 -0.999719 
-0.00513435 -0.0265291 -0.999634 
-0.00527799 -0.0300048 -0.999535 
-0.00534682 -0.0333844 -0.999427 
-0.00521278 -0.0378778 -0.999268 
-0.00541766 -0.0431251 -0.999054 
-0.00534943 -0.0476988 -0.998847 
-0.00523343 -0.0513136 -0.998669 
-0.0058125 -0.0520319 -0.998628 
-0.00584655 -0.0481136 -0.998824 
-0.00620143 -0.0330745 -0.999434 
-0.00638541 -0.0154048 -0.99986 
-0.00579058 -3.83966e-05 -0.999983 
-0.00547912 0.000141804 -0.999984 
-0.00492603 -0.0072605 -0.999961 
-0.00393927 -0.00622046 -0.999973 
0.00338614 -0.00484642 0.99998 
0.0145533 -0.0211294 0.999671 
0.0179723 -0.0220466 0.999596 
0.0214812 -0.0144248 0.999665 
0.028346 -0.0166872 0.999459 
0.0258365 -0.0256555 0.999337 
0.0337782 -0.0354158 0.998802 
0.0317293 -0.041278 0.998644 
0.0319057 -0.0439638 0.998524 
0.0311892 -0.0438026 0.998553 
0.0323356 -0.0418219 0.998602 
0.0308897 -0.0379052 0.998804 
0.0303026 -0.0332922 0.998986 
0.0294038 -0.0290866 0.999144 
0.0293303 -0.0248176 0.999262 
0.0286851 -0.0203121 0.999382 
0.0275011 -0.0153047 0.999505 
0.0261325 -0.00920607 0.999616 
0.0240484 -0.00114194 0.99971 
0.0222195 0.00959311 0.999707 
0.0197902 0.0227126 0.999546 
0.0156848 0.0395143 0.999096 
0.0100225 0.0608621 0.998096 
0.0029469 0.0871112 0.996194 
-0.00607262 0.119863 0.992772 
-0.0133158 0.153083 0.988124 
-0.02119 0.189553 0.981642 
-0.0308027 0.228474 0.973063 
-0.037342 0.267269 0.962898 
-0.0393756 0.310027 0.949912 
-0.0541844 0.356534 0.93271 
-0.0420871 0.403765 0.913894 
-0.0522547 0.467459 0.882469 
-0.0683308 0.520652 0.851031 
-0.0256824 0.614849 0.788227 
-0.0295868 0.70502 0.70857 
-0.0313203 0.786936 0.61624 
-0.0225646 0.84036 0.541559 
-0.00373245 0.958896 0.283731 
-0.0068541 0.997161 0.0749904 
0.00222714 0.952034 -0.305983 
0.00203576 0.91335 -0.407167 
0.0249781 0.779972 -0.625315 
0.0269733 0.636231 -0.771027 
0.0370863 0.534455 -0.844382 
0.0802612 0.501787 -0.86126 
0.0421666 0.46165 -0.88606 
0.0576713 0.395915 -0.916475 
0.0496335 0.346704 -0.936661 
0.0459024 0.299929 -0.952857 
0.0329544 0.256721 -0.965924 
0.0270843 0.210016 -0.977323 
0.0187477 0.171358 -0.985031 
0.0088714 0.133235 -0.991045 
0.000618688 0.100243 -0.994963 
-0.00695369 0.0719682 -0.997383 
-0.0130454 0.0505734 -0.998635 
-0.0165684 0.0302619 -0.999405 
-0.0208685 0.0146182 -0.999675 
-0.0235664 0.00292433 -0.999718 
-0.0253188 -0.00643052 -0.999659 
-0.0276416 -0.0134122 -0.999528 
-0.0280541 -0.0188748 -0.999428 
-0.0291931 -0.0229135 -0.999311 
-0.0284229 -0.0266416 -0.999241 
-0.031473 -0.0296956 -0.999064 
-0.0296215 -0.0336942 -0.998993 
-0.0305064 -0.0383702 -0.998798 
-0.0326059 -0.04252 -0.998564 
-0.0308216 -0.0466572 -0.998435 
-0.0331189 -0.0476402 -0.998315 
-0.0345447 -0.0449149 -0.998394 
-0.0273392 -0.0390446 -0.998864 
-0.0297659 -0.0265118 -0.999205 
-0.0243193 -0.0142217 -0.999603 
-0.0186903 -0.00777247 -0.999795 
-0.0161491 -0.0146627 -0.999762 
-0.0120202 -0.0121399 -0.999854 
-0.0018634 -0.00466298 -0.999984 
0.00223054 -0.00620823 0.999975 
0.015952 -0.0251922 0.999555 
0.0210679 -0.0326394 0.999245 
0.0291246 -0.0251958 0.999258 
0.0329126 -0.0247145 0.999153 
0.0388845 -0.0242351 0.99895 
0.0412671 -0.0309137 0.99867 
0.0420344 -0.0355653 0.998483 
0.0428534 -0.0399614 0.998282 
0.0423349 -0.0407109 0.998274 
0.0415941 -0.0392222 0.998365 
0.0399718 -0.0360713 0.99855 
0.0385376 -0.0323165 0.998735 
0.0378839 -0.0287603 0.998868 
0.0366861 -0.0249301 0.999016 
0.0355538 -0.0207948 0.999152 
0.0342004 -0.0160349 0.999286 
0.032632 -0.0100436 0.999417 
0.0302498 -0.00226116 0.99954 
0.0267849 0.00802546 0.999609 
0.0214248 0.0218241 0.999532 
0.0154527 0.0381814 0.999151 
0.00682495 0.0597194 0.998192 
-0.0037138 0.0856266 0.996321 
-0.0159187 0.114504 0.993295 
-0.0334816 0.151464 0.987896 
-0.0477896 0.185955 0.981396 
-0.0625986 0.221955 0.973046 
-0.080561 0.259748 0.96231 
-0.086534 0.296022 0.951253 
-0.0951834 0.335908 0.937073 
-0.110884 0.392131 0.913202 
-0.0985416 0.441618 0.891775 
-0.152206 0.504898 0.849653 
-0.0790658 0.574898 0.814396 
-0.0620225 0.654134 0.753831 
-0.0571401 0.74355 0.666234 
-0.0159007 0.907672 0.419379 
-0.00871309 0.972115 0.234342 
-0.0014523 0.988793 -0.149288 
0.0014466 0.970966 -0.239211 
0.0131439 0.857235 -0.514757 
0.0434877 0.724764 -0.687623 
0.0634282 0.654126 -0.753721 
0.0685109 0.581344 -0.810768 
0.135084 0.506856 -0.851381 
0.0977367 0.439869 -0.892728 
0.136423 0.409464 -0.902069 
0.112402 0.364176 -0.924523 
0.0931806 0.315607 -0.944304 
0.078296 0.266504 -0.960649 
0.0700584 0.234041 -0.969699 
0.053291 0.196915 -0.978971 
0.0346645 0.155517 -0.987225 
0.0204349 0.120976 -0.992445 
0.00608487 0.0898224 -0.995939 
-0.00318567 0.0650417 -0.997878 
-0.0144649 0.0420395 -0.999011 
-0.0207321 0.024356 -0.999488 
-0.0247784 0.0106762 -0.999636 
-0.0285123 -0.000466705 -0.999593 
-0.0310592 -0.00873462 -0.99948 
-0.0333185 -0.0152598 -0.999328 
-0.0349792 -0.0198082 -0.999192 
-0.0364815 -0.0236031 -0.999056 
-0.0375632 -0.0264918 -0.998943 
-0.038711 -0.0301812 -0.998795 
-0.0399127 -0.0342903 -0.998615 
-0.0408723 -0.0380803 -0.998439 
-0.0416644 -0.0419813 -0.998249 
-0.0423551 -0.0435945 -0.998151 
-0.0420881 -0.0415878 -0.998248 
-0.0413669 -0.0381292 -0.998416 
-0.0391775 -0.0318001 -0.998726 
-0.0339744 -0.0241137 -0.999132 
-0.0278994 -0.0210218 -0.99939 
-0.0193673 -0.0300006 -0.999362 
-0.00992973 -0.021928 -0.99971 
-0.00135591 -0.0053874 -0.999983 
0.000864004 -0.00684796 0.999972 
0.00977806 -0.0300149 0.999502 
0.0133342 -0.0417432 0.99904 
0.0217556 -0.0354852 0.999134 
0.0259152 -0.0300521 0.999212 
0.0355749 -0.0279421 0.998976 
0.0340739 -0.0312362 0.998931 
0.0339785 -0.0350019 0.99881 
0.0365985 -0.0376045 0.998622 
0.0340546 -0.0367897 0.998743 
0.0325077 -0.0344335 0.998878 
0.0297921 -0.0309584 0.999077 
0.0293188 -0.0279405 0.99918 
0.0275227 -0.0244915 0.999321 
0.026496 -0.0210757 0.999427 
0.0247147 -0.0169291 0.999551 
0.02264 -0.0112486 0.999681 
0.0202209 -0.0036206 0.999789 
0.0171142 0.00656501 0.999832 
0.0114153 0.0200092 0.999735 
0.00282464 0.0382796 0.999263 
-0.0057102 0.0591897 0.998231 
-0.0189742 0.0866908 0.996055 
-0.0350989 0.117939 0.9924 
-0.0500457 0.149394 0.987511 
-0.0753136 0.19092 0.978712 
-0.0938347 0.224734 0.969892 
-0.112234 0.259143 0.959296 
-0.14043 0.301135 0.943185 
-0.142081 0.324401 0.935188 
-0.157366 0.366723 0.916924 
-0.169248 0.411797 0.895421 
-0.176243 0.462987 0.868666 
-0.263844 0.503006 0.823025 
-0.161425 0.54291 0.82413 
-0.11969 0.610805 0.782682 
-0.0878486 0.696563 0.712098 
-0.0340869 0.882699 0.468701 
-0.0148803 0.990017 0.140159 
-0.00754696 0.999366 -0.0347972 
0.00989389 0.918578 -0.395117 
0.0354301 0.838682 -0.543468 
0.0793387 0.730933 -0.677822 
0.11418 0.62905 -0.768934 
0.118168 0.567025 -0.81518 
0.162081 0.468573 -0.86843 
0.214242 0.457333 -0.863103 
0.195283 0.409489 -0.89117 
0.159105 0.358351 -0.91993 
0.1354 0.311613 -0.940513 
0.129162 0.280256 -0.951196 
0.109246 0.24555 -0.963209 
0.0812808 0.204964 -0.975389 
0.0651206 0.172943 -0.982777 
0.0495678 0.142302 -0.988581 
0.0305877 0.107644 -0.993719 
0.0162755 0.0778997 -0.996828 
0.00105293 0.0497627 -0.998761 
-0.0075516 0.0299048 -0.999524 
-0.0122212 0.0144751 -0.999821 
-0.0160325 0.00254628 -0.999868 
-0.0200748 -0.00725966 -0.999772 
-0.0224785 -0.0138405 -0.999652 
-0.0252569 -0.0188078 -0.999504 
-0.0266762 -0.0220603 -0.999401 
-0.0283603 -0.0251601 -0.999281 
-0.0298288 -0.0283373 -0.999153 
-0.0319238 -0.0320944 -0.998975 
-0.0331702 -0.0361994 -0.998794 
-0.0335909 -0.0390097 -0.998674 
-0.0341496 -0.040004 -0.998616 
-0.0333293 -0.038045 -0.99872 
-0.0328539 -0.0352682 -0.998838 
-0.0321674 -0.0317392 -0.998979 
-0.0242907 -0.0321893 -0.999187 
-0.0216026 -0.033036 -0.999221 
-0.0115002 -0.0436623 -0.99898 
-0.00744681 -0.0321931 -0.999454 
-0.000986732 -0.00533657 -0.999983 
9.12256e-05 -0.00704581 0.999971 
0.00527498 -0.0397997 0.999194 
0.00976072 -0.0478732 0.998806 
0.014301 -0.0394473 0.999119 
0.0155449 -0.0325751 0.999349 
0.0245492 -0.0297394 0.999256 
0.017409 -0.030182 0.999393 
0.0250522 -0.0315832 0.999187 
0.0232755 -0.0340669 0.999149 
0.0253516 -0.0350223 0.999065 
0.0235038 -0.0329201 0.999182 
0.0216577 -0.0298295 0.99932 
0.01953 -0.0263743 0.999461 
0.0181223 -0.0236565 0.999556 
0.0166695 -0.0206822 0.999647 
0.0152087 -0.0173292 0.999734 
0.0130738 -0.0123777 0.999838 
0.0102927 -0.00500695 0.999935 
0.00711194 0.00521917 0.999961 
0.00203869 0.0187897 0.999822 
-0.00525824 0.0364703 0.999321 
-0.0160154 0.0602863 0.998053 
-0.0280503 0.0865041 0.995857 
-0.045746 0.120077 0.99171 
-0.0658506 0.156658 0.985455 
-0.0848377 0.190107 0.978091 
-0.114706 0.235355 0.965117 
-0.135876 0.268256 0.953717 
-0.164813 0.308807 0.936736 
-0.187183 0.338754 0.922067 
-0.201086 0.365295 0.908914 
-0.213428 0.394105 0.893941 
-0.235969 0.438041 0.867433 
-0.251853 0.472947 0.844329 
-0.195531 0.590263 0.783171 
-0.157364 0.647777 0.7454 
-0.135367 0.707823 0.693298 
-0.0445028 0.833168 0.551226 
-0.0214383 0.945287 0.325535 
-0.0254127 0.978855 0.202972 
-0.00472585 0.991545 -0.129674 
0.0623147 0.808427 -0.585288 
0.113641 0.687612 -0.71713 
0.181292 0.604828 -0.775446 
0.185834 0.55053 -0.813869 
0.282193 0.509369 -0.812964 
0.270317 0.472314 -0.838957 
0.236834 0.417661 -0.877194 
0.207776 0.373353 -0.904122 
0.192045 0.343143 -0.919441 
0.173159 0.313518 -0.933661 
0.155815 0.290133 -0.944216 
0.121235 0.243427 -0.962313 
0.105612 0.218281 -0.970155 
0.0818184 0.18104 -0.980067 
0.0588413 0.142119 -0.988099 
0.0394662 0.106763 -0.993501 
0.0209296 0.0713431 -0.997232 
0.00924534 0.0461562 -0.998892 
0.0015914 0.0265675 -0.999646 
-0.00334533 0.0109638 -0.999934 
-0.00843893 -0.00151749 -0.999963 
-0.0110185 -0.00983831 -0.999891 
-0.0140713 -0.0157182 -0.999778 
-0.0153864 -0.0193041 -0.999695 
-0.017678 -0.0221591 -0.999598 
-0.0191272 -0.0248134 -0.999509 
-0.0208793 -0.0280698 -0.999388 
-0.0231849 -0.0321219 -0.999215 
-0.0232249 -0.0352798 -0.999108 
-0.0238768 -0.0369947 -0.99903 
-0.0247923 -0.0366309 -0.999021 
-0.0217114 -0.0339146 -0.999189 
-0.0217613 -0.0337103 -0.999195 
-0.0162345 -0.0361233 -0.999216 
-0.0127793 -0.0424773 -0.999016 
-0.00702968 -0.0496618 -0.998742 
-0.00416764 -0.0344354 -0.999398 
-0.000273851 -0.00532467 -0.999983 
0.000333789 -0.00648242 0.999975 
0.00331285 -0.0361679 0.99934 
0.00526949 -0.0487287 0.998798 
0.0062019 -0.05129 0.998665 
0.00826019 -0.040226 0.999157 
0.0112661 -0.0310683 0.999454 
0.0150522 -0.0301199 0.999433 
0.0171535 -0.031821 0.999346 
0.0169302 -0.0325503 0.999327 
0.0169906 -0.0314232 0.999362 
0.0147836 -0.02801 0.999498 
0.0135397 -0.0250012 0.999596 
0.0114377 -0.0221989 0.999688 
0.0103598 -0.0200921 0.999745 
0.00882228 -0.0174092 0.99981 
0.00718034 -0.0135214 0.999883 
0.00509023 -0.00719492 0.999961 
0.00205403 0.0026315 0.999995 
-0.00244492 0.0161204 0.999867 
-0.0089845 0.0340295 0.999381 
-0.0181438 0.0571375 0.998202 
-0.0319819 0.0880407 0.995603 
-0.0476789 0.1206 0.991556 
-0.0689865 0.160946 0.984549 
-0.0929624 0.203008 0.974754 
-0.115454 0.23763 0.96447 
-0.146809 0.285034 0.947208 
-0.172647 0.319829 0.931613 
-0.204174 0.359665 0.91047 
-0.238791 0.397789 0.885857 
-0.243722 0.401192 0.882975 
-0.272086 0.435139 0.858268 
-0.285325 0.462989 0.839185 
-0.31176 0.505124 0.804771 
-0.358395 0.552635 0.752428 
-0.197799 0.482051 0.853525 
-0.253307 0.631432 0.732891 
-0.0698051 0.789562 0.609688 
-0.028857 0.955765 0.292713 
-0.0144055 0.999581 0.0250946 
0.00360493 0.97073 -0.240143 
0.0998425 0.791846 -0.602502 
0.238789 0.626457 -0.741978 
0.261161 0.573208 -0.776677 
0.2329 0.517576 -0.82333 
0.340139 0.522844 -0.781626 
0.300799 0.474674 -0.827167 
0.279413 0.439439 -0.853711 
0.25784 0.409409 -0.875159 
0.228319 0.374444 -0.8987 
0.208273 0.352926 -0.912177 
0.164908 0.30188 -0.938975 
0.145056 0.278784 -0.949336 
0.117062 0.239623 -0.963783 
0.0912467 0.198543 -0.975836 
0.0679082 0.158522 -0.985018 
0.0444385 0.113073 -0.992593 
0.028627 0.0801996 -0.996368 
0.0166415 0.0526042 -0.998477 
0.00793677 0.0301115 -0.999515 
0.00194082 0.0120732 -0.999925 
-0.00237858 -0.000664525 -0.999997 
-0.00519471 -0.00967058 -0.99994 
-0.00741675 -0.015065 -0.999859 
-0.00890643 -0.0182828 -0.999793 
-0.0107758 -0.0206058 -0.99973 
-0.0121683 -0.0227877 -0.999666 
-0.0139582 -0.025904 -0.999567 
-0.0159248 -0.0297104 -0.999432 
-0.0160624 -0.0325499 -0.999341 
-0.0171697 -0.0345405 -0.999256 
-0.017917 -0.0341838 -0.999255 
-0.015098 -0.032266 -0.999365 
-0.0141796 -0.0337655 -0.999329 
-0.0109826 -0.0381451 -0.999212 
-0.0100287 -0.0462256 -0.998881 
-0.00828327 -0.0544717 -0.998481 
-0.00555303 -0.0396791 -0.999197 
-0.000726801 -0.0057287 -0.999981 
0.00106335 -0.00566297 0.999982 
0.00569642 -0.0413933 0.999127 
0.00571633 -0.054876 0.998477 
0.00569997 -0.0472765 0.998866 
0.00755697 -0.0347359 0.999368 
0.00815621 -0.0301196 0.999513 
0.0107576 -0.0292274 0.999515 
0.0115613 -0.029648 0.999494 
0.0132014 -0.0310154 0.999432 
0.011648 -0.029029 0.999511 
0.0112545 -0.0270226 0.999572 
0.00937209 -0.0234487 0.999681 
0.00788331 -0.0210126 0.999748 
0.00655149 -0.018983 0.999798 
0.00568259 -0.017245 0.999835 
0.00413607 -0.0141219 0.999892 
0.00264637 -0.00884988 0.999957 
0.000431119 9.97917e-05 1 
-0.00329316 0.0135003 0.999904 
-0.00876133 0.0315614 0.999464 
-0.0170975 0.0554994 0.998312 
-0.0288384 0.0853821 0.995931 
-0.0459073 0.125375 0.991047 
-0.0653596 0.16508 0.984112 
-0.0899047 0.213113 0.972883 
-0.116644 0.259225 0.958748 
-0.142686 0.2959 0.944502 
-0.178058 0.347838 0.920491 
-0.21197 0.392377 0.895047 
-0.248962 0.431911 0.866874 
-0.284576 0.462312 0.839812 
-0.303357 0.467892 0.830091 
-0.324411 0.488373 0.810092 
-0.341909 0.513368 0.787116 
-0.394788 0.574965 0.71663 
-0.228541 0.560683 0.795866 
-0.224848 0.684784 0.693189 
-0.108676 0.756618 0.644763 
-0.0411659 0.881723 0.469969 
-0.0157124 0.999434 -0.0297349 
0.0164038 0.914887 -0.403377 
0.155403 0.676868 -0.719513 
0.327684 0.608154 -0.72303 
0.31761 0.552635 -0.770532 
0.366184 0.554231 -0.747487 
0.353243 0.519628 -0.77795 
0.341891 0.501173 -0.794944 
0.314729 0.469059 -0.825184 
0.278805 0.432067 -0.857663 
0.255548 0.418561 -0.871494 
0.232799 0.409671 -0.882029 
0.19279 0.351068 -0.916288 
0.158346 0.314821 -0.935849 
0.130277 0.282033 -0.950519 
0.101841 0.235444 -0.966538 
0.0763708 0.190067 -0.978796 
0.0547495 0.142066 -0.988342 
0.0366874 0.103625 -0.99394 
0.0231964 0.070371 -0.997251 
0.0134172 0.043557 -0.998961 
0.00643924 0.0222738 -0.999731 
0.00155047 0.00531944 -0.999985 
-0.00148005 -0.00576893 -0.999982 
-0.00346661 -0.012679 -0.999914 
-0.0048683 -0.0162869 -0.999856 
-0.00605569 -0.0183447 -0.999813 
-0.00722383 -0.0199927 -0.999774 
-0.00870139 -0.0224665 -0.99971 
-0.0103476 -0.0258487 -0.999612 
-0.0112541 -0.0288877 -0.999519 
-0.0126018 -0.0314471 -0.999426 
-0.0136526 -0.031997 -0.999395 
-0.0121807 -0.0304589 -0.999462 
-0.0108656 -0.0324026 -0.999416 
-0.00952822 -0.037094 -0.999266 
-0.00943569 -0.0472343 -0.998839 
-0.0102319 -0.0555039 -0.998406 
-0.00862998 -0.0418464 -0.999087 
-0.00155242 -0.0054303 -0.999982 
0.00154207 -0.00496524 0.999985 
0.00761724 -0.0417671 0.999098 
0.00688504 -0.0546457 0.998482 
0.00662378 -0.0439112 0.999014 
0.0064013 -0.0357517 0.99934 
0.00768498 -0.0291006 0.999547 
0.00908191 -0.027609 0.999578 
0.00930544 -0.0281657 0.99956 
0.00969032 -0.0285316 0.999546 
0.00769756 -0.0257538 0.999639 
0.00717002 -0.0234736 0.999699 
0.00539476 -0.0204008 0.999777 
0.00419233 -0.0185546 0.999819 
0.0032649 -0.0173627 0.999844 
0.00258468 -0.0156734 0.999874 
0.00121081 -0.0115928 0.999932 
-8.73061e-05 -0.0040444 0.999992 
-0.00273922 0.00832514 0.999962 
-0.00700674 0.0263655 0.999628 
-0.0138447 0.0512251 0.998591 
-0.0239709 0.0827401 0.996283 
-0.0380601 0.120695 0.99196 
-0.0579366 0.170241 0.983698 
-0.0794807 0.217293 0.972865 
-0.106515 0.272942 0.956116 
-0.136615 0.321778 0.936907 
-0.168442 0.363009 0.916435 
-0.208724 0.425773 0.880427 
-0.250056 0.474189 0.844167 
-0.29187 0.515425 0.805698 
-0.32655 0.532037 0.781219 
-0.346741 0.530001 0.773867 
-0.366563 0.536124 0.760397 
-0.391797 0.560395 0.729694 
-0.380622 0.555404 0.73936 
-0.43362 0.608307 0.664777 
-0.314722 0.542132 0.77913 
-0.0710423 0.800733 0.594795 
-0.0303713 0.921598 0.386956 
-0.029828 0.992958 0.11464 
0.0281044 0.8904 -0.45431 
0.196237 0.673252 -0.712897 
0.38812 0.577845 -0.717954 
0.418783 0.596812 -0.684425 
0.396095 0.569129 -0.720556 
0.401656 0.566059 -0.719896 
0.378962 0.541145 -0.7507 
0.333473 0.500169 -0.799141 
0.306869 0.495339 -0.812694 
0.283903 0.496448 -0.820328 
0.238127 0.4551 -0.858009 
0.192984 0.38125 -0.904105 
0.163298 0.361564 -0.917935 
0.132846 0.326322 -0.935877 
0.100289 0.262923 -0.95959 
0.0734908 0.208964 -0.975158 
0.0523479 0.155873 -0.986389 
0.0347392 0.113085 -0.992978 
0.0218763 0.075775 -0.996885 
0.0128942 0.0462856 -0.998845 
0.00637494 0.022217 -0.999733 
0.00249016 0.0052033 -0.999983 
-0.000134235 -0.00631676 -0.99998 
-0.00148794 -0.0128308 -0.999917 
-0.00248141 -0.0160521 -0.999868 
-0.00302865 -0.017406 -0.999844 
-0.00408455 -0.0186394 -0.999818 
-0.00534749 -0.0207174 -0.999771 
-0.00645155 -0.0233854 -0.999706 
-0.00828385 -0.026941 -0.999603 
-0.00941088 -0.0288164 -0.999541 
-0.0110208 -0.0294742 -0.999505 
-0.0104152 -0.0278896 -0.999557 
-0.0102329 -0.0295558 -0.999511 
-0.00973072 -0.0342625 -0.999366 
-0.0103189 -0.0451889 -0.998925 
-0.0117185 -0.0538644 -0.99848 
-0.0103845 -0.0398809 -0.999151 
-0.00192403 -0.00512759 -0.999983 
0.00163808 -0.00452771 0.999987 
0.00839064 -0.0409583 0.999126 
0.00852352 -0.0528609 0.998566 
0.00769028 -0.0419067 0.999092 
0.00730477 -0.0327814 0.999436 
0.00733111 -0.0260245 0.999635 
0.00791893 -0.0257943 0.999636 
0.00704512 -0.0262499 0.999631 
0.00625112 -0.0262452 0.999636 
0.00399451 -0.0233061 0.99972 
0.00277602 -0.0204575 0.999787 
0.00121191 -0.0182528 0.999833 