# vtk DataFile Version 3.0 
Exported using Morpho https://github.com/Morpho-lang/morpho 
ASCII 
DATASET UNSTRUCTURED_GRID 

POINTS 1960 float 
-8.32618 -2.88146 0 
-8.11405 -2.88146 0 
-7.90192 -2.88146 0 
-7.68979 -2.88146 0 
-7.47765 -2.88146 0 
-7.26552 -2.88146 0 
-7.05339 -2.88146 0 
-6.84126 -2.88146 0 
-6.62913 -2.88146 0 
-6.41699 -2.88146 0 
-6.20486 -2.88146 0 
-5.99273 -2.88146 0 
-5.7806 -2.88146 0 
-5.56847 -2.88146 0 
-5.35633 -2.88146 0 
-5.1442 -2.88146 0 
-4.93207 -2.88146 0 
-4.71994 -2.88146 0 
-4.50781 -2.88146 0 
-4.29567 -2.88146 0 
-4.08354 -2.88146 0 
-3.87141 -2.88146 0 
-3.65928 -2.88146 0 
-3.44715 -2.88146 0 
-3.23501 -2.88146 0 
-3.02288 -2.88146 0 
-2.81075 -2.88146 0 
-2.59862 -2.88146 0 
-2.38649 -2.88146 0 
-2.17435 -2.88146 0 
-1.96222 -2.88146 0 
-1.75009 -2.88146 0 
-1.53796 -2.88146 0 
-1.32583 -2.88146 0 
-1.11369 -2.88146 0 
-0.901561 -2.88146 0 
-0.689429 -2.88146 0 
-0.477297 -2.88146 0 
-0.265165 -2.88146 0 
-0.053033 -2.88146 0 
0.159099 -2.88146 0 
0.371231 -2.88146 0 
0.583363 -2.88146 0 
0.795495 -2.88146 0 
1.00763 -2.88146 0 
1.21976 -2.88146 0 
1.43189 -2.88146 0 
1.64402 -2.88146 0 
1.85616 -2.88146 0 
2.06829 -2.88146 0 
2.28042 -2.88146 0 
2.49255 -2.88146 0 
2.70468 -2.88146 0 
2.91682 -2.88146 0 
3.12895 -2.88146 0 
3.34108 -2.88146 0 
3.55321 -2.88146 0 
3.76534 -2.88146 0 
3.97748 -2.88146 0 
4.18961 -2.88146 0 
4.40174 -2.88146 0 
4.61387 -2.88146 0 
4.826 -2.88146 0 
5.03814 -2.88146 0 
5.25027 -2.88146 0 
5.4624 -2.88146 0 
5.67453 -2.88146 0 
5.88666 -2.88146 0 
6.0988 -2.88146 0 
6.31093 -2.88146 0 
6.52306 -2.88146 0 
6.73519 -2.88146 0 
6.94732 -2.88146 0 
7.15946 -2.88146 0 
7.37159 -2.88146 0 
7.58372 -2.88146 0 
7.79585 -2.88146 0 
8.00798 -2.88146 0 
8.22012 -2.88146 0 
8.53831 -2.88146 0 
-8.53831 -2.72485 0 
-8.29891 -2.66037 0 
-8.07121 -2.65994 0 
-7.84395 -2.66257 0 
-7.61818 -2.6613 0 
-7.39278 -2.66356 0 
-7.16545 -2.6671 0 
-6.94042 -2.66673 0 
-6.71703 -2.66615 0 
-6.49699 -2.67154 0 
-6.27404 -2.67061 0 
-6.05322 -2.67081 0 
-5.83562 -2.67003 0 
-5.61526 -2.66949 0 
-5.40127 -2.66933 0 
-5.18608 -2.67083 0 
-4.97104 -2.67008 0 
-4.75691 -2.6717 0 
-4.5416 -2.67056 0 
-4.32821 -2.67046 0 
-4.11477 -2.67006 0 
-3.90174 -2.67029 0 
-3.68847 -2.67144 0 
-3.47403 -2.67177 0 
-3.25901 -2.67162 0 
-3.04169 -2.6681 0 
-2.82808 -2.66799 0 
-2.61209 -2.66781 0 
-2.39407 -2.66559 0 
-2.17646 -2.66103 0 
-1.95809 -2.6628 0 
-1.73853 -2.66273 0 
-1.51699 -2.66362 0 
-1.29401 -2.66251 0 
-1.07118 -2.66201 0 
-0.84584 -2.65858 0 
-0.618129 -2.65859 0 
-0.399285 -2.62406 0 
-0.202624 -2.62397 0 
0.0308784 -2.68669 0 
0.272179 -2.67049 0 
0.511246 -2.70484 0 
0.508051 -2.52524 0 
0.75588 -2.65255 0 
0.971673 -2.65783 0 
1.18988 -2.65688 0 
1.40622 -2.6619 0 
1.62446 -2.66596 0 
1.84527 -2.66744 0 
2.06641 -2.66127 0 
2.28943 -2.6688 0 
2.50857 -2.67181 0 
2.72313 -2.66747 0 
2.93922 -2.66905 0 
3.15605 -2.66914 0 
3.37185 -2.67083 0 
3.58421 -2.66812 0 
3.79875 -2.67014 0 
4.01313 -2.67122 0 
4.22753 -2.67088 0 
4.44011 -2.67004 0 
4.65315 -2.67054 0 
4.86547 -2.66961 0 
5.07736 -2.67005 0 
5.28842 -2.66958 0 
5.50019 -2.67034 0 
5.71082 -2.67067 0 
5.92293 -2.67173 0 
6.13382 -2.67133 0 
6.34502 -2.6711 0 
6.55817 -2.67147 0 
6.77177 -2.671 0 
6.98526 -2.66869 0 
7.20075 -2.66809 0 
7.41667 -2.66501 0 
7.63474 -2.66324 0 
7.84897 -2.6599 0 
8.06196 -2.64895 0 
8.3113 -2.72352 0 
8.53831 -2.66933 0 
-8.42967 -2.48333 0 
-8.18462 -2.4427 0 
-7.95817 -2.44456 0 
-7.73638 -2.44507 0 
-7.51168 -2.44612 0 
-7.28548 -2.45453 0 
-7.06207 -2.4548 0 
-6.83957 -2.45491 0 
-6.61874 -2.45429 0 
-6.40313 -2.46413 0 
-6.1819 -2.46253 0 
-5.96819 -2.45803 0 
-5.74842 -2.46436 0 
-5.53601 -2.4542 0 
-5.32432 -2.45858 0 
-5.11346 -2.45951 0 
-4.90106 -2.4593 0 
-4.68947 -2.46206 0 
-4.47835 -2.45857 0 
-4.26825 -2.45871 0 
-4.05794 -2.45796 0 
-3.84698 -2.45898 0 
-3.63514 -2.46149 0 
-3.4229 -2.46159 0 
-3.20774 -2.46263 0 
-2.99585 -2.4527 0 
-2.7822 -2.45491 0 
-2.56569 -2.45541 0 
-2.35048 -2.44956 0 
-2.13133 -2.4464 0 
-1.91115 -2.44774 0 
-1.68775 -2.44892 0 
-1.46231 -2.45063 0 
-1.23637 -2.44654 0 
-1.0082 -2.44774 0 
-0.773375 -2.44354 0 
-0.555057 -2.42182 0 
-0.352091 -2.3445 0 
-0.135861 -2.40795 0 
0.0863082 -2.49533 0 
0.309815 -2.44064 0 
0.538905 -2.32055 0 
0.737868 -2.44438 0 
0.97324 -2.43528 0 
1.19348 -2.43542 0 
1.41167 -2.43949 0 
1.62534 -2.44898 0 
1.84226 -2.45618 0 
2.05508 -2.44122 0 
2.26871 -2.46156 0 
2.49383 -2.46107 0 
2.70642 -2.45373 0 
2.92073 -2.45624 0 
3.13413 -2.45897 0 
3.35159 -2.45923 0 
3.56279 -2.45361 0 
3.77324 -2.45875 0 
3.98599 -2.46052 0 
4.19813 -2.46141 0 
4.41206 -2.45787 0 
4.62303 -2.45929 0 
4.8346 -2.45805 0 
5.04648 -2.45756 0 
5.25654 -2.45685 0 
5.46651 -2.45887 0 
5.67766 -2.45812 0 
5.88669 -2.46198 0 
6.09872 -2.46027 0 
6.30886 -2.46022 0 
6.52122 -2.46312 0 
6.73703 -2.4619 0 
6.95315 -2.4583 0 
7.17116 -2.45764 0 
7.39114 -2.45283 0 
7.61369 -2.45063 0 
7.83856 -2.43667 0 
8.06973 -2.43851 0 
8.30146 -2.51668 0 
8.53831 -2.4572 0 
-8.53831 -2.267 0 
-8.30905 -2.2613 0 
-8.05876 -2.2297 0 
-7.83043 -2.22502 0 
-7.60405 -2.23145 0 
-7.37001 -2.24091 0 
-7.14202 -2.24242 0 
-6.9145 -2.2439 0 
-6.68831 -2.2438 0 
-6.46271 -2.24598 0 
-6.24766 -2.25835 0 
-6.02535 -2.24508 0 
-5.80476 -2.25983 0 
-5.58553 -2.24341 0 
-5.36847 -2.24488 0 
-5.15645 -2.24594 0 
-4.94484 -2.24905 0 
-4.73011 -2.25016 0 
-4.5192 -2.24743 0 
-4.30687 -2.24549 0 
-4.09723 -2.24521 0 
-3.8863 -2.24647 0 
-3.67477 -2.24924 0 
-3.46387 -2.24943 0 
-3.25173 -2.25315 0 
-3.03933 -2.23929 0 
-2.82558 -2.23942 0 
-2.61272 -2.24236 0 
-2.39875 -2.23404 0 
-2.18397 -2.23312 0 
-1.96475 -2.2332 0 
-1.74371 -2.23617 0 
-1.51909 -2.23847 0 
-1.29482 -2.23492 0 
-1.06557 -2.235 0 
-0.836337 -2.23869 0 
-0.607094 -2.19775 0 
0.71744 -2.17802 0 
0.911349 -2.23379 0 
1.14912 -2.21583 0 
1.37231 -2.21706 0 
1.58944 -2.22316 0 
1.80144 -2.23744 0 
2.013 -2.22483 0 
2.23542 -2.24175 0 
2.45111 -2.25969 0 
2.67414 -2.23585 0 
2.88512 -2.24297 0 
3.10122 -2.244 0 
3.31573 -2.25214 0 
3.53354 -2.23811 0 
3.74435 -2.24332 0 
3.95503 -2.24891 0 
4.16782 -2.24941 0 
4.37983 -2.24919 0 
4.59606 -2.24642 0 
4.80693 -2.246 0 
5.01934 -2.24688 0 
5.23245 -2.24309 0 
5.44245 -2.24616 0 
5.65297 -2.24689 0 
5.86492 -2.24849 0 
6.07321 -2.25072 0 
6.28601 -2.24827 0 
6.49709 -2.25263 0 
6.71071 -2.25543 0 
6.92973 -2.24964 0 
7.1493 -2.24974 0 
7.3715 -2.24364 0 
7.59683 -2.24215 0 
7.82576 -2.22735 0 
8.05997 -2.22714 0 
8.29919 -2.30213 0 
8.53831 -2.24506 0 
-8.42642 -2.04647 0 
-8.19904 -2.04622 0 
-7.96346 -2.01123 0 
-7.73667 -2.00918 0 
-7.50717 -2.02742 0 
-7.28148 -2.02829 0 
-7.05651 -2.03136 0 
-6.83289 -2.03309 0 
-6.60835 -2.03576 0 
-6.39084 -2.03155 0 
-6.18126 -2.04668 0 
-5.98978 -1.99827 0 
-5.80884 -2.05359 0 
-5.60907 -2.02185 0 
-5.39781 -2.03683 0 
-5.17857 -2.03297 0 
-4.96475 -2.0364 0 
-4.75175 -2.04212 0 
-4.53499 -2.0351 0 
-4.32254 -2.03548 0 
-4.1083 -2.03165 0 
-3.89761 -2.03469 0 
-3.68452 -2.03788 0 
-3.47118 -2.03653 0 
-3.25888 -2.0408 0 
-3.04302 -2.02792 0 
-2.82702 -2.02623 0 
-2.61061 -2.02661 0 
-2.39606 -2.01724 0 
-2.17693 -2.01945 0 
-1.9545 -2.02063 0 
-1.72727 -2.02643 0 
-1.50246 -2.02578 0 
-1.2686 -2.02752 0 
-1.03605 -2.02599 0 
-0.806719 -2.02566 0 
0.894689 -1.99174 0 
1.10432 -2.01761 0 
1.35114 -2.00275 0 
1.58132 -2.00194 0 
1.80052 -2.01361 0 
2.03456 -2.01871 0 
2.25216 -2.02814 0 
2.47181 -2.05017 0 
2.68572 -2.01635 0 
2.90394 -2.0315 0 
3.12457 -2.03289 0 
3.34095 -2.04239 0 
3.55536 -2.02239 0 
3.76718 -2.02932 0 
3.97869 -2.03679 0 
4.18993 -2.03632 0 
4.4065 -2.04141 0 
4.61677 -2.03205 0 
4.82872 -2.03443 0 
5.04079 -2.03545 0 
5.24997 -2.02934 0 
5.45908 -2.03281 0 
5.66931 -2.0364 0 
5.87471 -2.03262 0 
6.08411 -2.0406 0 
6.29247 -2.03512 0 
6.5022 -2.04154 0 
6.7176 -2.0478 0 
6.93371 -2.04109 0 
7.15028 -2.03981 0 
7.37124 -2.03464 0 
7.59618 -2.03271 0 
7.8256 -2.01841 0 
8.06231 -2.0183 0 
8.29977 -2.09091 0 
8.53831 -2.03293 0 
-8.53831 -1.82868 0 
-8.30959 -1.83055 0 
-8.08372 -1.82006 0 
-7.84178 -1.79671 0 
-7.60052 -1.81044 0 
-7.37192 -1.81531 0 
-7.14088 -1.81842 0 
-6.91204 -1.82115 0 
-6.68314 -1.82706 0 
-6.45821 -1.81948 0 
-6.23581 -1.82152 0 
-6.009 -1.79581 0 
-5.77926 -1.81616 0 
-5.55965 -1.81151 0 
-5.34624 -1.82791 0 
-5.13134 -1.82105 0 
-4.92045 -1.82447 0 
-4.70865 -1.83224 0 
-4.49551 -1.82271 0 
-4.28458 -1.82443 0 
-4.07473 -1.81786 0 
-3.86342 -1.82391 0 
-3.65246 -1.82607 0 
-3.44141 -1.82346 0 
-3.2299 -1.82816 0 
-3.01429 -1.81453 0 
-2.79863 -1.81338 0 
-2.58677 -1.80865 0 
-2.3685 -1.80304 0 
-2.14759 -1.80752 0 
-1.9197 -1.81373 0 
-1.69641 -1.81401 0 
-1.46132 -1.82301 0 
-1.22763 -1.82133 0 
-0.99389 -1.81842 0 
1.05278 -1.79031 0 
1.27956 -1.8117 0 
1.5322 -1.79314 0 
1.76835 -1.79227 0 
1.99066 -1.81752 0 
2.22885 -1.8074 0 
2.44618 -1.8373 0 
2.66708 -1.80668 0 
2.89213 -1.81898 0 
3.11189 -1.82667 0 
3.33953 -1.83021 0 
3.55136 -1.80862 0 
3.76966 -1.81493 0 
3.98269 -1.8228 0 
4.20271 -1.82979 0 
4.41311 -1.82667 0 
4.62762 -1.82075 0 
4.84076 -1.82279 0 
5.05082 -1.82164 0 
5.26123 -1.81531 0 
5.47274 -1.82212 0 
5.67699 -1.8184 0 
5.88729 -1.82146 0 
6.09465 -1.82623 0 
6.30425 -1.82275 0 
6.51308 -1.82752 0 
6.72237 -1.83894 0 
6.93455 -1.82756 0 
7.15206 -1.8297 0 
7.37296 -1.82278 0 
7.59748 -1.82191 0 
7.82654 -1.80729 0 
8.06058 -1.80936 0 
8.29942 -1.87811 0 
8.53831 -1.8208 0 
-8.53831 -1.61311 0 
-8.30801 -1.61307 0 
-8.06775 -1.6134 0 
-7.81673 -1.59691 0 
-7.58488 -1.59767 0 
-7.35097 -1.60605 0 
-7.1191 -1.60846 0 
-6.88694 -1.61367 0 
-6.66135 -1.61643 0 
-6.43612 -1.60918 0 
-6.21495 -1.61248 0 
-5.98211 -1.59553 0 
-5.76203 -1.60909 0 
-5.54555 -1.60146 0 
-5.33099 -1.6164 0 
-5.12078 -1.60626 0 
-4.90948 -1.61196 0 
-4.69567 -1.62168 0 
-4.48347 -1.61002 0 
-4.27348 -1.61076 0 
-4.05943 -1.60672 0 
-3.84703 -1.61177 0 
-3.63458 -1.61297 0 
-3.42055 -1.6104 0 
-3.20433 -1.61647 0 
-2.9827 -1.60249 0 
-2.76856 -1.59502 0 
[...]
POINT_DATA 1960 
VECTORS vectors float
-7.96735e-05 -0.000870653 1 
8.03362e-05 -0.01629 0.999867 
-8.32475e-05 -0.0200184 0.9998 
-2.27587e-05 -0.0203622 0.999793 
-4.00789e-05 -0.0190396 0.999819 
-3.49232e-05 -0.016829 0.999858 
-3.62187e-05 -0.0143934 0.999896 
-3.59358e-05 -0.0118724 0.99993 
-3.60576e-05 -0.00926842 0.999957 
-3.60926e-05 -0.00661173 0.999978 
-3.60129e-05 -0.00395141 0.999992 
-3.61328e-05 -0.00132158 0.999999 
-3.59536e-05 0.00128955 0.999999 
-3.61292e-05 0.0039476 0.999992 
-3.58607e-05 0.00674797 0.999977 
-3.58995e-05 0.00980388 0.999952 
-3.56371e-05 0.0132445 0.999912 
-3.54857e-05 0.0172046 0.999852 
-3.52107e-05 0.0218387 0.999762 
-3.48824e-05 0.0273151 0.999627 
-3.44388e-05 0.0338176 0.999428 
-3.39355e-05 0.0415547 0.999136 
-3.32634e-05 0.0507548 0.998711 
-3.25611e-05 0.0616814 0.998096 
-3.14933e-05 0.0746275 0.997211 
-3.04692e-05 0.0899577 0.995946 
-2.9459e-05 0.108057 0.994145 
-2.62555e-05 0.12943 0.991589 
-2.70499e-05 0.154798 0.987946 
-2.26497e-05 0.185296 0.982683 
-1.97814e-05 0.220526 0.975381 
-1.78525e-05 0.26367 0.964613 
-1.30731e-05 0.316692 0.948528 
-9.49203e-06 0.382461 0.923972 
-4.29088e-06 0.46413 0.885767 
-4.52935e-06 0.563929 0.825824 
5.52055e-06 0.680071 0.733146 
-1.30946e-05 0.803006 0.595971 
1.86796e-05 0.912989 0.407984 
-1.45527e-05 0.984913 0.173053 
7.08136e-06 0.996505 -0.0835304 
-1.85491e-06 0.944253 -0.329219 
-8.86833e-07 0.84463 -0.53535 
1.9218e-06 0.724091 -0.689704 
1.64315e-06 0.605332 -0.795973 
5.16091e-06 0.499502 -0.866313 
7.98492e-06 0.411081 -0.911599 
1.38771e-05 0.338675 -0.940903 
1.58071e-05 0.279845 -0.960045 
2.06613e-05 0.231982 -0.97272 
2.41032e-05 0.191596 -0.981474 
2.44083e-05 0.15865 -0.987335 
2.81484e-05 0.131371 -0.991333 
2.91244e-05 0.108592 -0.994086 
3.06505e-05 0.0895744 -0.99598 
3.16391e-05 0.0736837 -0.997282 
3.27403e-05 0.0604185 -0.998173 
3.34044e-05 0.0493338 -0.998782 
3.40706e-05 0.0400938 -0.999196 
3.44988e-05 0.0323873 -0.999475 
3.49957e-05 0.0259486 -0.999663 
3.52667e-05 0.0205486 -0.999789 
3.55521e-05 0.0159862 -0.999872 
3.5756e-05 0.0120819 -0.999927 
3.58934e-05 0.00867856 -0.999962 
3.5972e-05 0.00563105 -0.999984 
3.60768e-05 0.0028103 -0.999996 
3.60815e-05 9.82056e-05 -1 
3.60977e-05 -0.00259996 -0.999997 
3.6149e-05 -0.00534111 -0.999986 
3.60469e-05 -0.00812854 -0.999967 
3.61538e-05 -0.0109196 -0.99994 
3.56861e-05 -0.0136647 -0.999907 
3.69943e-05 -0.0163505 -0.999866 
3.24561e-05 -0.0189756 -0.99982 
4.59964e-05 -0.0213744 -0.999772 
1.64624e-05 -0.0227451 -0.999741 
4.96297e-05 -0.0226866 -0.999743 
7.61265e-05 -0.0201928 -0.999796 
-5.21245e-05 -0.00139318 -0.999999 
-0.000103043 0.000164251 1 
0.00754658 -0.0120101 0.999899 
0.0102716 -0.0185198 0.999776 
0.0110861 -0.0198618 0.999741 
0.0116842 -0.0193873 0.999744 
0.0120054 -0.0178016 0.999769 
0.0121714 -0.0154176 0.999807 
0.0123948 -0.0128101 0.999841 
0.0125816 -0.0101474 0.999869 
0.0125346 -0.00747422 0.999894 
0.0126539 -0.00473781 0.999909 
0.0126996 -0.00203078 0.999917 
0.0127544 0.000640108 0.999918 
0.0127515 0.00339541 0.999913 
0.0127098 0.00620754 0.9999 
0.0125545 0.00928035 0.999878 
0.0124048 0.0127274 0.999842 
0.0121121 0.0166716 0.999788 
0.0118052 0.0213168 0.999703 
0.0113683 0.02676 0.999577 
0.0107996 0.033233 0.999389 
0.0100487 0.0409279 0.999112 
0.00906989 0.0501018 0.998703 
0.00783298 0.0610886 0.998102 
0.00627593 0.0741826 0.997225 
0.00431677 0.089927 0.995939 
0.00193417 0.108218 0.994125 
-0.00097386 0.130066 0.991505 
-0.00446992 0.156173 0.98772 
-0.00851446 0.186957 0.982331 
-0.0124414 0.224194 0.974465 
-0.0162384 0.269276 0.962926 
-0.0189077 0.325049 0.945508 
-0.0195731 0.394918 0.918508 
-0.0165619 0.482023 0.876002 
-0.00913216 0.590151 0.807241 
0.00228438 0.71695 0.697121 
0.0143066 0.840798 0.54116 
0.0177503 0.93584 0.351977 
0.00322702 0.997223 0.0744101 
-0.0105494 0.974795 -0.222851 
-0.0106762 0.879558 -0.475673 
-0.025344 0.872498 -0.48796 
-0.00591969 0.742111 -0.670251 
0.0038597 0.622336 -0.782741 
0.0104255 0.512202 -0.858801 
0.0129407 0.421819 -0.906588 
0.0124594 0.346723 -0.937885 
0.0103397 0.285091 -0.958445 
0.00777581 0.233687 -0.972281 
0.00421659 0.192207 -0.981345 
0.00105508 0.158426 -0.98737 
-0.00156281 0.131013 -0.991379 
-0.00390285 0.107906 -0.994153 
-0.00586371 0.0885961 -0.99605 
-0.00745867 0.0725742 -0.997335 
-0.00876113 0.0594595 -0.998192 
-0.00974935 0.048388 -0.998781 
-0.0105376 0.039188 -0.999176 
-0.0111926 0.0315336 -0.99944 
-0.0117012 0.0252021 -0.999614 
-0.0120721 0.0198777 -0.99973 
-0.0123939 0.0153916 -0.999805 
-0.012605 0.0115497 -0.999854 
-0.0127839 0.00820054 -0.999885 
-0.0128808 0.00517631 -0.999904 
-0.0129389 0.00237863 -0.999913 
-0.0129458 -0.000334516 -0.999916 
-0.0129479 -0.00300707 -0.999912 
-0.0129026 -0.00570009 -0.999901 
-0.0128086 -0.00843928 -0.999882 
-0.0126986 -0.0111816 -0.999857 
-0.0125824 -0.013888 -0.999824 
-0.0123418 -0.0165638 -0.999787 
-0.0120741 -0.0190595 -0.999745 
-0.0116583 -0.021019 -0.999711 
-0.0109701 -0.0220695 -0.999696 
-0.00973349 -0.0215121 -0.999721 
-0.00571402 -0.0159606 -0.999856 
0.000284266 8.83219e-05 -1 
0.00547138 -0.00947982 0.99994 
0.0114653 -0.0183905 0.999765 
0.0136113 -0.0200656 0.999706 
0.014692 -0.0195792 0.9997 
0.015515 -0.018602 0.999707 
0.0160305 -0.0166138 0.999733 
0.0164036 -0.0140821 0.999766 
0.0166799 -0.0114663 0.999795 
0.0169085 -0.00883287 0.999818 
0.0169849 -0.00623962 0.999836 
0.0170972 -0.00355778 0.999848 
0.0171702 -0.00094267 0.999852 
0.0171102 0.00178809 0.999852 
0.0171046 0.00453436 0.999843 
0.0169249 0.00744652 0.999829 
0.0166773 0.0106434 0.999804 
0.0163279 0.0142915 0.999765 
0.0158257 0.0184915 0.999704 
0.0151906 0.0234337 0.99961 
0.0143329 0.0292464 0.999469 
0.0132208 0.036173 0.999258 
0.0117896 0.0444407 0.998942 
0.00996582 0.0543203 0.998474 
0.00762076 0.0661335 0.997782 
0.00463583 0.0803234 0.996758 
0.000698551 0.0970886 0.995275 
-0.00387922 0.116838 0.993143 
-0.00949659 0.140402 0.990049 
-0.0164172 0.168083 0.985636 
-0.0242363 0.201129 0.979265 
-0.0321165 0.240221 0.970187 
-0.0394471 0.28742 0.956992 
-0.0443046 0.344907 0.937591 
-0.0448529 0.415618 0.908433 
-0.0360782 0.504088 0.862898 
-0.0160928 0.616521 0.787174 
0.0116475 0.736521 0.676314 
0.0474108 0.84479 0.532994 
0.0402003 0.952813 0.300883 
0.00269931 0.999936 0.0110058 
-0.0373054 0.956264 -0.290115 
-0.0457801 0.834052 -0.549783 
-0.0114603 0.738467 -0.674192 
0.0126302 0.609186 -0.792927 
0.0270068 0.506571 -0.861775 
0.0319483 0.420004 -0.90696 
0.03044 0.349557 -0.93642 
0.0258682 0.289748 -0.956753 
0.0215847 0.242456 -0.969922 
0.0143308 0.20086 -0.979515 
0.00847496 0.165175 -0.986228 
0.00370165 0.137086 -0.990552 
-0.000718202 0.113081 -0.993586 
-0.00437749 0.0930853 -0.995649 
-0.00735387 0.0761156 -0.997072 
-0.00966457 0.0624309 -0.998002 
-0.0115418 0.0509446 -0.998635 
-0.0130274 0.0413047 -0.999062 
-0.014176 0.0333065 -0.999345 
-0.0150866 0.0266027 -0.999532 
-0.0157637 0.0210539 -0.999654 
-0.0162986 0.0163625 -0.999733 
-0.0167004 0.0123461 -0.999784 
-0.0170054 0.00887753 -0.999816 
-0.017197 0.00577349 -0.999835 
-0.017344 0.00289542 -0.999845 
-0.0173762 0.000177019 -0.999849 
-0.0173917 -0.00251966 -0.999846 
-0.0173327 -0.00517524 -0.999836 
-0.0171819 -0.00785964 -0.999821 
-0.0170002 -0.0105892 -0.999799 
-0.0167487 -0.0133057 -0.999771 
-0.0163489 -0.0160057 -0.999738 
-0.015818 -0.0185279 -0.999703 
-0.0150079 -0.0204239 -0.999679 
-0.0138352 -0.021508 -0.999673 
-0.0120079 -0.0215209 -0.999696 
-0.00811854 -0.016327 -0.999834 
-0.000393308 -0.00015816 -1 
-0.000289506 -7.91239e-05 1 
0.00891185 -0.0160022 0.999832 
0.012151 -0.0205356 0.999715 
0.0137264 -0.0200736 0.999704 
0.0149551 -0.0192484 0.999703 
0.0158378 -0.0175065 0.999721 
0.0163712 -0.0149824 0.999754 
0.016756 -0.0122901 0.999784 
0.0170405 -0.00959907 0.999809 
0.0172526 -0.00690257 0.999827 
0.0174194 -0.00431688 0.999839 
0.0174174 -0.00158994 0.999847 
0.0175145 0.0011706 0.999846 
0.0173087 0.00403532 0.999842 
0.0171346 0.00706008 0.999828 
0.0168314 0.0103057 0.999805 
0.016399 0.0139624 0.999768 
0.0157753 0.0182619 0.999709 
0.0149248 0.0232519 0.999618 
0.0137981 0.0292163 0.999478 
0.012352 0.0362425 0.999267 
0.0104833 0.0446767 0.998946 
0.00808785 0.0547715 0.998466 
0.00498948 0.0668384 0.997751 
0.00110493 0.0812645 0.996692 
-0.00429769 0.0985193 0.995126 
-0.0106907 0.119094 0.992825 
-0.0183683 0.14305 0.989545 
-0.0282168 0.171199 0.984832 
-0.03937 0.203765 0.978228 
-0.0518777 0.242093 0.968865 
-0.0643321 0.286353 0.955962 
-0.0750465 0.338393 0.938007 
-0.0812527 0.399319 0.913204 
-0.0754312 0.473422 0.8776 
-0.0492029 0.564478 0.82398 
-0.00195426 0.671667 0.74085 
-0.0100495 0.712744 -0.701353 
0.0236338 0.622599 -0.782184 
0.0526318 0.517089 -0.854312 
0.0601819 0.434989 -0.898422 
0.0570428 0.366807 -0.928547 
0.0484023 0.30935 -0.949716 
0.0406787 0.260605 -0.964588 
0.0294903 0.215422 -0.976076 
0.0197153 0.178863 -0.983676 
0.0130363 0.147912 -0.988915 
0.0063181 0.122196 -0.992486 
0.000919276 0.100349 -0.994952 
-0.00353979 0.0820636 -0.996621 
-0.00673303 0.0669691 -0.997732 
-0.00946836 0.0545354 -0.998467 
-0.011611 0.0442314 -0.998954 
-0.0132346 0.0356158 -0.999278 
-0.0144817 0.0284814 -0.999489 
-0.0154411 0.0224417 -0.999629 
-0.0161696 0.0174815 -0.999716 
-0.0167279 0.013232 -0.999773 
-0.0171252 0.00955291 -0.999808 
-0.0174212 0.0063203 -0.999828 
-0.017612 0.003356 -0.999839 
-0.0177079 0.000535117 -0.999843 
-0.0177245 -0.00215124 -0.999841 
-0.0176483 -0.00484421 -0.999833 
-0.0175163 -0.00749193 -0.999819 
-0.0173155 -0.0101765 -0.999798 
-0.0169637 -0.0129184 -0.999773 
-0.0164965 -0.0156463 -0.999741 
-0.0158294 -0.0182324 -0.999708 
-0.0148819 -0.02014 -0.999686 
-0.0134462 -0.0211998 -0.999685 
-0.0115587 -0.0214263 -0.999704 
-0.00871433 -0.0166495 -0.999823 
5.38622e-05 -0.0001487 -1 
0.00557336 -0.0110374 0.999924 
0.00974699 -0.0193998 0.999764 
0.0118718 -0.0209635 0.99971 
0.0133909 -0.0201021 0.999708 
0.0145573 -0.018875 0.999716 
0.0152842 -0.0166749 0.999744 
0.0158064 -0.0139985 0.999777 
0.0161982 -0.011315 0.999805 
0.0165064 -0.00862517 0.999827 
0.0167082 -0.0060181 0.999842 
0.0169324 -0.00348051 0.999851 
0.0167796 -0.00107203 0.999859 
0.0169669 0.00123232 0.999855 
0.0167284 0.00393428 0.999852 
0.0165379 0.0069289 0.999839 
0.0161379 0.0103759 0.999816 
0.0156191 0.0141795 0.999777 
0.0149123 0.0185702 0.999716 
0.0138576 0.0239107 0.999618 
0.0125334 0.030135 0.999467 
0.010733 0.0377134 0.999231 
0.0084771 0.0466159 0.998877 
0.00550831 0.0574315 0.998334 
0.00159472 0.0704992 0.997511 
-0.0033269 0.085875 0.9963 
-0.010159 0.105425 0.994375 
-0.0185354 0.127796 0.991627 
-0.0289741 0.153988 0.987648 
-0.0424121 0.18537 0.981753 
-0.0581077 0.221089 0.973521 
-0.0765497 0.26213 0.961992 
-0.0961969 0.308285 0.946418 
-0.115738 0.359021 0.926125 
-0.129652 0.416203 0.899981 
-0.129516 0.479105 0.86815 
-0.0996826 0.551157 0.828426 
0.0714453 0.602473 -0.794935 
0.0914957 0.527083 -0.844874 
0.10054 0.4476 -0.888564 
0.0911489 0.381511 -0.919859 
0.0750957 0.323447 -0.943262 
0.058551 0.269722 -0.961157 
0.0437207 0.225699 -0.973216 
0.0301226 0.185905 -0.982106 
0.0213128 0.155473 -0.98761 
0.0122149 0.127352 -0.991782 
0.00524024 0.103895 -0.994574 
-0.00028501 0.0846119 -0.996414 
-0.00412913 0.0690176 -0.997607 
-0.00745956 0.0560123 -0.998402 
-0.0100427 0.045282 -0.998924 
-0.0119353 0.0363701 -0.999267 
-0.0134633 0.0288211 -0.999494 
-0.0145245 0.0228105 -0.999634 
-0.0153928 0.0176772 -0.999725 
-0.0160411 0.0133271 -0.999783 
-0.0164819 0.00962894 -0.999818 
-0.0168305 0.00632787 -0.999838 
-0.0170584 0.00329412 -0.999849 
-0.0171535 0.00050318 -0.999853 
-0.0171948 -0.0022422 -0.99985 
-0.0170898 -0.0048969 -0.999842 
-0.0169285 -0.00751911 -0.999828 
-0.0167424 -0.0102373 -0.999807 
-0.0163126 -0.0129288 -0.999783 
-0.0157971 -0.0156274 -0.999753 
-0.0150773 -0.0182268 -0.99972 
-0.0140861 -0.020141 -0.999698 
-0.0125805 -0.0211188 -0.999698 
-0.0107151 -0.021361 -0.999714 
-0.00816909 -0.0165799 -0.999829 
-6.69008e-06 -0.000149499 -1 
-0.000288577 5.16933e-05 1 
0.00738358 -0.0162709 0.99984 
0.0100052 -0.021034 0.999729 
0.0116931 -0.0208375 0.999714 
0.013048 -0.019743 0.99972 
0.0138898 -0.0177863 0.999745 
0.0144912 -0.0150884 0.999781 
0.0149431 -0.0123049 0.999813 
0.0153154 -0.00953671 0.999837 
0.0154926 -0.00682833 0.999857 
0.0156254 -0.00410642 0.999869 
0.0155594 -0.0012417 0.999878 
0.015576 0.00179122 0.999877 
0.0153884 0.00486739 0.99987 
0.0152592 0.00808611 0.999851 
0.0147251 0.0117107 0.999823 
0.0141067 0.0157724 0.999776 
0.0132876 0.0205228 0.999701 
0.012007 0.0263078 0.999582 
0.0104443 0.0331162 0.999397 
0.00830032 0.041373 0.999109 
0.00562434 0.0512636 0.998669 
0.00206863 0.0632451 0.997996 
-0.00265183 0.0778121 0.996965 
-0.0086552 0.0951461 0.995426 
-0.0170458 0.117099 0.992974 
-0.0275381 0.142636 0.989392 
-0.0408664 0.172434 0.984173 
-0.0583182 0.208324 0.97632 
-0.0795035 0.248683 0.965317 
-0.105475 0.294599 0.949782 
-0.135458 0.343757 0.929238 
-0.166924 0.395422 0.903204 
-0.197389 0.447014 0.872477 
-0.214838 0.494274 0.842341 
0.168723 0.543434 -0.822321 
0.154121 0.481874 -0.86258 
0.135844 0.416967 -0.898713 
0.10929 0.355932 -0.928099 
0.0824295 0.29906 -0.950667 
0.0614954 0.248304 -0.966728 
0.0428569 0.204177 -0.977995 
0.0305086 0.170452 -0.984894 
0.0189039 0.138114 -0.990236 
0.0102419 0.112096 -0.993645 
0.0034464 0.0899386 -0.995941 
-0.00109068 0.0737314 -0.997278 
-0.00500794 0.0591168 -0.998239 
-0.00794794 0.0473914 -0.998845 
-0.0102812 0.0376214 -0.999239 
-0.0118801 0.029994 -0.999479 
-0.0130945 0.0235475 -0.999637 
-0.0140535 0.0181747 -0.999736 
-0.0147375 0.013708 -0.999797 
-0.0152002 0.00985474 -0.999836 
-0.0156146 0.00640638 -0.999858 
-0.0158083 0.00337944 -0.999869 
-0.0159559 0.000442722 -0.999873 
-0.0160077 -0.00232858 -0.999869 
-0.0159116 -0.00503477 -0.999861 
-0.0157972 -0.00767035 -0.999846 
-0.0155959 -0.0102732 -0.999826 
-0.0151389 -0.012933 -0.999802 
-0.014654 -0.0156568 -0.99977 
-0.0139468 -0.0182753 -0.999736 
-0.0130395 -0.0202201 -0.999711 
-0.0116602 -0.0212659 -0.999706 
-0.00987903 -0.0213549 -0.999723 
-0.00757277 -0.0165511 -0.999834 
-1.16955e-05 -0.000145503 -1 
0.000135177 -0.000427167 1 
0.00657763 -0.0163682 0.999844 
0.00895578 -0.0212426 0.999734 
0.0104188 -0.0209207 0.999727 
0.0114798 -0.0198307 0.999737 
0.0122764 -0.0177079 0.999768 
0.0128187 -0.0149256 0.999806 
0.0132671 -0.0120672 0.999839 
0.0135899 -0.00931689 0.999864 
0.0137349 -0.00657806 0.999884 
0.0138834 -0.00382849 0.999896 
0.0137697 -0.000797372 0.999905 
0.0137945 0.00220815 0.999902 
0.0135459 0.00537744 0.999894 
0.0133088 0.00873055 0.999873 
0.0127306 0.0125091 0.999841 
0.0120891 0.0168283 0.999785 
0.011216 0.0219453 0.999696 
0.00979942 0.0281681 0.999555 
0.00808955 0.0355222 0.999336 
0.00571916 0.0446923 0.998984 
0.0027165 0.0556575 0.998446 
-0.00131407 0.0690847 0.99761 
-0.00673854 0.0856646 0.996301 
-0.013812 0.105675 0.994305 
-0.0238609 0.13152 0.991026 
-0.0365174 0.161368 0.986218 
-0.0532507 0.197143 0.978927 
-0.0758025 0.240486 0.967688 
-0.104408 0.289032 0.951609 
-0.140708 0.34334 0.928611 
-0.184587 0.399546 0.897937 
-0.236149 0.454755 0.858738 
-0.2934 0.501969 0.813599 
0.24508 0.536186 -0.807738 
0.199596 0.480145 -0.854179 
0.160495 0.421274 -0.89262 
0.122677 0.359947 -0.924872 
0.0912252 0.302771 -0.948687 
0.0765336 0.272826 -0.959014 
0.0561212 0.228599 -0.971902 
0.0407357 0.191551 -0.980637 
0.0264464 0.154392 -0.987656 
0.0159729 0.124507 -0.99209 
0.00791037 0.0996621 -0.99499 
0.0025504 0.0807584 -0.99673 
-0.00191566 0.0647493 -0.9979 
-0.00527832 0.0514241 -0.998663 
-0.00786836 0.0408763 -0.999133 
-0.00961241 0.0323303 -0.999431 
-0.0109705 0.0254443 -0.999616 
-0.012018 0.0195637 -0.999736 
-0.0127477 0.0147225 -0.99981 
-0.0132565 0.010625 -0.999856 
-0.0137198 0.00696282 -0.999882 
-0.013867 0.00369573 -0.999897 
-0.0140977 0.00072467 -0.9999 
-0.0141415 -0.00219917 -0.999898 
-0.0140663 -0.00494059 -0.999889 
-0.0139235 -0.00763281 -0.999874 
-0.0137363 -0.0102568 -0.999853 
-0.0133297 -0.0129823 -0.999827 
-0.0128797 -0.0157165 -0.999794 
-0.0122321 -0.0183438 -0.999757 
-0.0114249 -0.0202914 -0.999729 
-0.0102091 -0.0213652 -0.99972 
-0.00868454 -0.0214782 -0.999732 
-0.00677098 -0.0166041 -0.999839 
3.00154e-06 -0.00014812 -1 
-0.000232843 0.000100554 1 
0.00556272 -0.0166751 0.999845 
0.00752358 -0.021486 0.999741 
0.00875847 -0.0212406 0.999736 
0.0096534 -0.020098 0.999751 
0.0103927 -0.0180815 0.999783 
0.0108927 -0.0153369 0.999823 
0.0113321 -0.0124866 0.999858 
0.0116118 -0.00968257 0.999886 
0.0117814 -0.0069766 0.999906 
0.0118815 -0.00416674 0.999921 
0.0119142 -0.00133705 0.999928 
0.0118291 0.00190638 0.999928 
0.0115943 0.00507388 0.99992 
0.0113541 0.00857164 0.999899 
0.0107916 0.0123848 0.999865 
0.0101724 0.0167725 0.999808 
0.00938541 0.0218935 0.999716 
0.00807973 0.0281137 0.999572 
0.00638235 0.0357427 0.999341 
0.00425629 0.0447429 0.998989 
0.00131108 0.0561449 0.998422 
-0.00250888 0.069795 0.997558 
-0.00761078 0.0865746 0.996216 
-0.0144705 0.107321 0.994119 
-0.0235798 0.132586 0.990891 
-0.0364337 0.165572 0.985525 
-0.0527248 0.20284 0.977791 
-0.0745781 0.247434 0.96603 
-0.104556 0.300691 0.947973 
-0.14281 0.360343 0.921823 
-0.191949 0.422253 0.885922 
-0.25349 0.485508 0.836675 
-0.328683 0.541137 0.77404 
0.286008 0.562182 -0.775983 
0.219263 0.497798 -0.839119 
0.163522 0.428337 -0.8887 
0.119496 0.359124 -0.925608 
0.0861556 0.300856 -0.94977 
0.0581245 0.237188 -0.969723 
0.0397948 0.191507 -0.980684 
0.026252 0.154612 -0.987626 
0.0158904 0.123442 -0.992225 
0.00873055 0.0999523 -0.994954 
0.00323725 0.0799419 -0.996794 
-0.00103708 0.0635598 -0.997977 
-0.00407069 0.0505424 -0.998714 
-0.00638849 0.0402955 -0.999167 
-0.00794116 0.0319583 -0.999458 
-0.00929363 0.0249132 -0.999646 
-0.0102065 0.0191788 -0.999764 
-0.0108499 0.0144017 -0.999837 
-0.0113832 0.0101958 -0.999883 
-0.0117538 0.00661105 -0.999909 
-0.0118444 0.00337357 -0.999924 
-0.0121319 0.000298209 -0.999926 
-0.0121158 -0.00257491 -0.999923 
-0.0120699 -0.00536263 -0.999913 
-0.0119142 -0.00803711 -0.999897 
-0.0117458 -0.0106525 -0.999874 
-0.0113283 -0.0133338 -0.999847 
-0.0109228 -0.0160423 -0.999812 
-0.0103187 -0.0185874 -0.999774 
-0.00963789 -0.0204995 -0.999743 
-0.00857119 -0.0214871 -0.999732 
-0.00730607 -0.0214905 -0.999742 
-0.00571677 -0.0164178 -0.999849 
-2.02273e-06 -0.000146811 -1 
0.00314952 -0.0115356 0.999929 
0.00554724 -0.0202322 0.99978 
0.00675871 -0.021822 0.999739 
0.00770412 -0.0208906 0.999752 
0.00830715 -0.0194366 0.999777 
0.00884766 -0.0170585 0.999815 
0.00927366 -0.0142034 0.999856 
0.00961068 -0.0114056 0.999889 
0.00976126 -0.00868357 0.999915 
0.00993108 -0.00592359 0.999933 
0.0099132 -0.0031142 0.999946 
0.0100805 -4.79558e-05 0.999949 
0.00978857 0.00310794 0.999947 
0.00961392 0.00652402 0.999933 
0.00923503 0.0101357 0.999906 
0.00868467 0.0143541 0.999859 
0.00803549 0.0192256 0.999783 
0.00714161 0.024851 0.999666 
0.00577247 0.0319845 0.999472 
0.00396358 0.0405899 0.999168 
0.0016801 0.051067 0.998694 
-0.00151322 0.0642293 0.997934 
-0.00570008 0.0802473 0.996759 
-0.011451 0.100407 0.994881 
-0.0191434 0.125223 0.991944 
-0.0296886 0.156262 0.987269 
-0.0446354 0.197487 0.979289 
-0.064321 0.244248 0.967577 
-0.092216 0.300883 0.949192 
-0.12922 0.368878 0.920452 
-0.180072 0.44266 0.878423 
-0.244491 0.519623 0.818667 
-0.326862 0.592118 0.736585 
0.290366 0.603571 -0.742556 
0.214219 0.522946 -0.825007 
0.154806 0.44296 -0.883075 
0.111572 0.369045 -0.92269 
0.0730954 0.289502 -0.954382 
0.0507589 0.23236 -0.971304 
0.0346555 0.186531 -0.981838 
0.0221056 0.147423 -0.988827 
0.0134881 0.118386 -0.992876 
0.00717474 0.0947472 -0.995476 
0.00188068 0.07307 -0.997325 
-0.00144512 0.0581086 -0.998309 
-0.00395411 0.0456931 -0.998948 
-0.00569104 0.0364121 -0.999321 