# vtk DataFile Version 3.0 
Exported using Morpho https://github.com/Morpho-lang/morpho 
ASCII 
DATASET UNSTRUCTURED_GRID 

POINTS 2189 float 
-8.32618 -2.88146 0 
-8.11405 -2.88146 0 
-7.90192 -2.88146 0 
-7.68979 -2.88146 0 
-7.47765 -2.88146 0 
-7.26552 -2.88146 0 
-7.05339 -2.88146 0 
-6.84126 -2.88146 0 
-6.62913 -2.88146 0 
-6.41699 -2.88146 0 
-6.20486 -2.88146 0 
-5.99273 -2.88146 0 
-5.7806 -2.88146 0 
-5.56847 -2.88146 0 
-5.35633 -2.88146 0 
-5.1442 -2.88146 0 
-4.93207 -2.88146 0 
-4.71994 -2.88146 0 
-4.50781 -2.88146 0 
-4.29567 -2.88146 0 
-4.08354 -2.88146 0 
-3.87141 -2.88146 0 
-3.65928 -2.88146 0 
-3.44715 -2.88146 0 
-3.23501 -2.88146 0 
-3.02288 -2.88146 0 
-2.81075 -2.88146 0 
-2.59862 -2.88146 0 
-2.38649 -2.88146 0 
-2.17435 -2.88146 0 
-1.96222 -2.88146 0 
-1.75009 -2.88146 0 
-1.53796 -2.88146 0 
-1.32583 -2.88146 0 
-1.11369 -2.88146 0 
-0.901561 -2.88146 0 
-0.689429 -2.88146 0 
-0.477297 -2.88146 0 
-0.265165 -2.88146 0 
-0.053033 -2.88146 0 
0.159099 -2.88146 0 
0.371231 -2.88146 0 
0.583363 -2.88146 0 
0.795495 -2.88146 0 
1.00763 -2.88146 0 
1.21976 -2.88146 0 
1.43189 -2.88146 0 
1.64402 -2.88146 0 
1.85616 -2.88146 0 
2.06829 -2.88146 0 
2.28042 -2.88146 0 
2.49255 -2.88146 0 
2.70468 -2.88146 0 
2.91682 -2.88146 0 
3.12895 -2.88146 0 
3.34108 -2.88146 0 
3.55321 -2.88146 0 
3.76534 -2.88146 0 
3.97748 -2.88146 0 
4.18961 -2.88146 0 
4.40174 -2.88146 0 
4.61387 -2.88146 0 
4.826 -2.88146 0 
5.03814 -2.88146 0 
5.25027 -2.88146 0 
5.4624 -2.88146 0 
5.67453 -2.88146 0 
5.88666 -2.88146 0 
6.0988 -2.88146 0 
6.31093 -2.88146 0 
6.52306 -2.88146 0 
6.73519 -2.88146 0 
6.94732 -2.88146 0 
7.15946 -2.88146 0 
7.37159 -2.88146 0 
7.58372 -2.88146 0 
7.79585 -2.88146 0 
8.00798 -2.88146 0 
8.22012 -2.88146 0 
8.53831 -2.88146 0 
-8.53831 -2.73789 0 
-8.32088 -2.65863 0 
-8.09609 -2.65604 0 
-7.86909 -2.66588 0 
-7.63972 -2.67246 0 
-7.40793 -2.67079 0 
-7.18145 -2.6717 0 
-6.95163 -2.67119 0 
-6.72658 -2.67277 0 
-6.50642 -2.66804 0 
-6.28839 -2.66541 0 
-6.07135 -2.66698 0 
-5.85363 -2.66856 0 
-5.63661 -2.67287 0 
-5.41743 -2.67614 0 
-5.19595 -2.67282 0 
-4.97876 -2.66975 0 
-4.76606 -2.66968 0 
-4.5507 -2.67032 0 
-4.33517 -2.66727 0 
-4.12311 -2.66897 0 
-3.90815 -2.66759 0 
-3.6947 -2.66852 0 
-3.4805 -2.6698 0 
-3.26521 -2.67096 0 
-3.04828 -2.66771 0 
-2.83567 -2.67098 0 
-2.6187 -2.66681 0 
-2.40698 -2.67015 0 
-2.19207 -2.66667 0 
-1.98031 -2.66997 0 
-1.76805 -2.67261 0 
-1.55216 -2.66858 0 
-1.3429 -2.66888 0 
-1.13229 -2.67495 0 
-0.915806 -2.66553 0 
-0.711483 -2.6813 0 
-0.481665 -2.65501 0 
-0.279694 -2.66135 0 
-0.0674872 -2.65849 0 
0.142865 -2.65614 0 
0.346096 -2.666 0 
0.565845 -2.66097 0 
0.775318 -2.6625 0 
0.986786 -2.66175 0 
1.19958 -2.66551 0 
1.41498 -2.66744 0 
1.6292 -2.67005 0 
1.84451 -2.67292 0 
2.05902 -2.6771 0 
2.27884 -2.67251 0 
2.49464 -2.67301 0 
2.70512 -2.6776 0 
2.92941 -2.67932 0 
3.15477 -2.68456 0 
3.36384 -2.67143 0 
3.5756 -2.66826 0 
3.791 -2.6694 0 
4.00682 -2.66949 0 
4.22374 -2.67053 0 
4.43799 -2.66866 0 
4.65276 -2.66876 0 
4.86585 -2.66784 0 
5.07967 -2.66921 0 
5.29405 -2.67025 0 
5.50863 -2.67055 0 
5.72134 -2.67054 0 
5.93381 -2.67035 0 
6.14856 -2.67361 0 
6.36184 -2.6726 0 
6.57576 -2.67349 0 
6.78856 -2.66999 0 
7.00106 -2.66781 0 
7.2148 -2.66639 0 
7.42923 -2.66526 0 
7.64386 -2.66205 0 
7.8636 -2.6642 0 
8.07854 -2.65233 0 
8.32104 -2.7285 0 
8.53831 -2.66933 0 
-8.53831 -2.50073 0 
-8.30845 -2.44234 0 
-8.07103 -2.44234 0 
-7.83734 -2.4602 0 
-7.59593 -2.47446 0 
-7.35807 -2.46488 0 
-7.11616 -2.4744 0 
-6.87714 -2.46868 0 
-6.65598 -2.4611 0 
-6.43624 -2.45408 0 
-6.21675 -2.45172 0 
-5.9982 -2.45589 0 
-5.77938 -2.4595 0 
-5.56103 -2.46865 0 
-5.3409 -2.47365 0 
-5.12204 -2.46369 0 
-4.91195 -2.45458 0 
-4.70035 -2.45896 0 
-4.48849 -2.45862 0 
-4.27968 -2.45052 0 
-4.06931 -2.45673 0 
-3.85919 -2.45252 0 
-3.64739 -2.45609 0 
-3.43536 -2.45847 0 
-3.22098 -2.46146 0 
-3.00892 -2.45322 0 
-2.79582 -2.46144 0 
-2.58316 -2.45194 0 
-2.37259 -2.45845 0 
-2.15786 -2.45352 0 
-1.94676 -2.45826 0 
-1.73139 -2.4657 0 
-1.52332 -2.45241 0 
-1.30958 -2.45793 0 
-1.09801 -2.46701 0 
-0.890036 -2.44446 0 
-0.669038 -2.4861 0 
-0.462932 -2.42201 0 
-0.253643 -2.44117 0 
-0.0424724 -2.43481 0 
0.155935 -2.42169 0 
0.379205 -2.45771 0 
0.590764 -2.43661 0 
0.800113 -2.44033 0 
1.01774 -2.44398 0 
1.23817 -2.45308 0 
1.45672 -2.45508 0 
1.67718 -2.46227 0 
1.89504 -2.46603 0 
2.11488 -2.47576 0 
2.33829 -2.4689 0 
2.55195 -2.46216 0 
2.77499 -2.4884 0 
2.92798 -2.38664 0 
3.08127 -2.49118 0 
3.29498 -2.4617 0 
3.50453 -2.4558 0 
3.71844 -2.45848 0 
3.93404 -2.45906 0 
4.15147 -2.46149 0 
4.36726 -2.45675 0 
4.58214 -2.45716 0 
4.79618 -2.45422 0 
5.00975 -2.45653 0 
5.22382 -2.45952 0 
5.43943 -2.46159 0 
5.65521 -2.45929 0 
5.86813 -2.45981 0 
6.08457 -2.46629 0 
6.30013 -2.4652 0 
6.5171 -2.46633 0 
6.73225 -2.46167 0 
6.94978 -2.45679 0 
7.16763 -2.45525 0 
7.3882 -2.45223 0 
7.60899 -2.44701 0 
7.83492 -2.45434 0 
8.06432 -2.43516 0 
8.29808 -2.51723 0 
8.53831 -2.4572 0 
-8.53831 -2.27252 0 
-8.30432 -2.2342 0 
-8.06356 -2.23601 0 
-7.82039 -2.24872 0 
-7.5987 -2.27595 0 
-7.34335 -2.27253 0 
-7.09482 -2.28225 0 
-6.874 -2.2559 0 
-6.65459 -2.24814 0 
-6.43316 -2.24193 0 
-6.21227 -2.2396 0 
-5.99109 -2.24617 0 
-5.77792 -2.24479 0 
-5.5647 -2.26056 0 
-5.34828 -2.26975 0 
-5.13766 -2.25 0 
-4.92939 -2.23912 0 
-4.72031 -2.2458 0 
-4.51081 -2.24498 0 
-4.3017 -2.23503 0 
-4.09297 -2.23908 0 
-3.88571 -2.23823 0 
-3.67574 -2.24048 0 
-3.46461 -2.24519 0 
-3.25375 -2.25004 0 
-3.04183 -2.24152 0 
-2.82566 -2.24772 0 
-2.61583 -2.24216 0 
-2.39767 -2.24235 0 
-2.18843 -2.24703 0 
-1.96538 -2.2448 0 
-1.75215 -2.25846 0 
-1.53667 -2.23701 0 
-1.32458 -2.24993 0 
-1.1047 -2.25185 0 
-0.898623 -2.2203 0 
-0.689904 -2.27758 0 
-0.492139 -2.19177 0 
-0.286586 -2.21478 0 
-0.0800026 -2.21428 0 
0.129144 -2.18082 0 
0.331243 -2.24101 0 
0.541795 -2.2155 0 
0.753125 -2.20815 0 
0.956601 -2.22477 0 
1.17492 -2.2364 0 
1.38991 -2.23978 0 
1.60614 -2.25071 0 
1.82035 -2.25432 0 
2.03348 -2.26586 0 
2.24379 -2.27188 0 
2.45783 -2.255 0 
2.67926 -2.27669 0 
2.91339 -2.20467 0 
3.16175 -2.26922 0 
3.36955 -2.24233 0 
3.57817 -2.24387 0 
3.78753 -2.24658 0 
4.00049 -2.24974 0 
4.2097 -2.24776 0 
4.42099 -2.24324 0 
4.62925 -2.24203 0 
4.83921 -2.23992 0 
5.04851 -2.24352 0 
5.25986 -2.24907 0 
5.47149 -2.25149 0 
5.68043 -2.24612 0 
5.8954 -2.25294 0 
6.10591 -2.25733 0 
6.32028 -2.25839 0 
6.52936 -2.25543 0 
6.74394 -2.25253 0 
6.95952 -2.24644 0 
7.17817 -2.24592 0 
7.39612 -2.23883 0 
7.61644 -2.23282 0 
7.84083 -2.2447 0 
8.06984 -2.22452 0 
8.30239 -2.30716 0 
8.53831 -2.24506 0 
-8.42394 -2.03497 0 
-8.18786 -2.02945 0 
-7.93385 -2.0433 0 
-7.69795 -2.0401 0 
-7.47048 -2.09366 0 
-7.35621 -1.92232 0 
-7.19565 -2.09227 0 
-6.96451 -2.0535 0 
-6.7358 -2.03607 0 
-6.51332 -2.03367 0 
-6.28608 -2.03062 0 
-6.05727 -2.03632 0 
-5.83571 -2.0301 0 
-5.61538 -2.04547 0 
-5.39773 -2.06013 0 
-5.18509 -2.04424 0 
-4.96504 -2.026 0 
-4.75005 -2.03157 0 
-4.53617 -2.03397 0 
-4.32287 -2.02084 0 
-4.10772 -2.02698 0 
-3.8943 -2.01838 0 
-3.68481 -2.02859 0 
-3.47032 -2.03036 0 
-3.25723 -2.03693 0 
-3.03635 -2.03401 0 
-2.8275 -2.03121 0 
-2.60456 -2.03682 0 
-2.39553 -2.02505 0 
-2.16613 -2.04767 0 
-1.95475 -2.02851 0 
-1.74307 -2.0476 0 
-1.52363 -2.02428 0 
-1.30385 -2.04442 0 
-1.09283 -2.02873 0 
-0.891159 -1.98091 0 
-0.698145 -2.05548 0 
-0.48163 -1.96402 0 
-0.274118 -1.98723 0 
-0.0657547 -1.98683 0 
0.143143 -1.95106 0 
0.353032 -2.01402 0 
0.569512 -1.98854 0 
0.7758 -1.9721 0 
0.997026 -2.01257 0 
1.21769 -2.02013 0 
1.44238 -2.0301 0 
1.66117 -2.04032 0 
1.88042 -2.04717 0 
2.09281 -2.05657 0 
2.30417 -2.06319 0 
2.51039 -2.03036 0 
2.69416 -2.08324 0 
2.89543 -1.99325 0 
3.11121 -2.07835 0 
3.3287 -2.03326 0 
3.54143 -2.0295 0 
3.75104 -2.03179 0 
3.96195 -2.0386 0 
4.17466 -2.03219 0 
4.38363 -2.03077 0 
4.5963 -2.02482 0 
4.80452 -2.02545 0 
5.01649 -2.02729 0 
5.22638 -2.03587 0 
5.43832 -2.03965 0 
5.64896 -2.03275 0 
5.86122 -2.04553 0 
6.07786 -2.04426 0 
6.28749 -2.05138 0 
6.50252 -2.04082 0 
6.71122 -2.04433 0 
6.9294 -2.03774 0 
7.14957 -2.03815 0 
7.37095 -2.02829 0 
7.5957 -2.01909 0 
7.82397 -2.03329 0 
8.05705 -2.01572 0 
8.29902 -2.09283 0 
8.53831 -2.03293 0 
-8.53831 -1.83146 0 
-8.30753 -1.81246 0 
-8.06529 -1.84619 0 
-7.82968 -1.83077 0 
-7.58342 -1.85177 0 
-7.34522 -1.71689 0 
-7.12617 -1.8723 0 
-6.89601 -1.83773 0 
-6.67485 -1.81852 0 
-6.45437 -1.8231 0 
-6.22737 -1.82557 0 
-6.00997 -1.82332 0 
-5.78854 -1.82222 0 
-5.57384 -1.83738 0 
-5.37014 -1.84135 0 
-5.15234 -1.83603 0 
-4.95541 -1.79686 0 
-4.75519 -1.82122 0 
-4.54045 -1.82297 0 
-4.3297 -1.80568 0 
-4.12035 -1.81516 0 
-3.90647 -1.80819 0 
-3.69063 -1.80876 0 
-3.48387 -1.82011 0 
-3.2689 -1.82226 0 
-3.05842 -1.83026 0 
-2.83669 -1.81187 0 
-2.63049 -1.83392 0 
-2.40998 -1.80739 0 
-2.19834 -1.84879 0 
-1.97421 -1.81144 0 
-1.76105 -1.82859 0 
-1.55357 -1.81853 0 
-1.32309 -1.82993 0 
-1.10603 -1.80589 0 
-0.878561 -1.76457 0 
-0.661593 -1.82967 0 
-0.448653 -1.71468 0 
-0.261763 -1.75954 0 
-0.0602588 -1.75352 0 
0.154498 -1.71973 0 
0.361704 -1.78918 0 
0.56357 -1.74927 0 
0.765979 -1.72819 0 
0.971971 -1.78812 0 
1.18885 -1.80166 0 
1.41262 -1.81896 0 
1.63947 -1.82655 0 
1.85794 -1.83753 0 
2.0769 -1.84277 0 
2.2876 -1.85176 0 
2.50651 -1.82719 0 
2.72664 -1.85203 0 
2.93335 -1.76175 0 
3.10717 -1.87423 0 
3.30273 -1.81472 0 
3.51001 -1.82115 0 
3.72602 -1.81855 0 
3.93917 -1.82586 0 
4.15172 -1.82194 0 
4.36743 -1.81484 0 
4.57792 -1.81386 0 
4.79397 -1.80817 0 
5.00365 -1.81498 0 
5.21855 -1.82095 0 
5.42892 -1.82801 0 
5.6416 -1.81991 0 
5.85303 -1.83451 0 
6.06533 -1.83887 0 
6.2842 -1.83688 0 
6.49116 -1.83352 0 
6.70846 -1.8268 0 
6.91602 -1.83124 0 
7.13935 -1.83058 0 
7.36815 -1.82233 0 
7.59002 -1.80151 0 
7.80958 -1.82381 0 
8.05616 -1.81355 0 
8.29873 -1.88367 0 
8.53831 -1.8208 0 
-8.53831 -1.61486 0 
-8.30805 -1.59336 0 
[...]
POINT_DATA 2189 
VECTORS vectors float
-0.000206319 -0.000491415 1 
7.12798e-05 -0.0146046 0.999893 
-7.02306e-05 -0.0191146 0.999817 
-4.50163e-05 -0.0202649 0.999795 
-4.1862e-05 -0.0193586 0.999813 
-4.43156e-05 -0.0173664 0.999849 
-4.38342e-05 -0.0151884 0.999885 
-4.35561e-05 -0.0129995 0.999916 
-4.44546e-05 -0.0107161 0.999943 
-4.34682e-05 -0.00834584 0.999965 
-4.40444e-05 -0.00597177 0.999982 
-4.43262e-05 -0.00366594 0.999993 
-4.3658e-05 -0.00142847 0.999999 
-4.391e-05 0.000790455 1 
-4.43835e-05 0.00307116 0.999995 
-4.36567e-05 0.00553785 0.999985 
-4.37215e-05 0.00832605 0.999965 
-4.33396e-05 0.0115679 0.999933 
-4.43881e-05 0.0154235 0.999881 
-4.1696e-05 0.0201088 0.999798 
-4.38853e-05 0.0258538 0.999666 
-4.14974e-05 0.0329514 0.999457 
-4.19296e-05 0.0417642 0.999127 
-4.00845e-05 0.0527255 0.998609 
-4.13113e-05 0.0663741 0.997795 
-3.61215e-05 0.0834054 0.996516 
-3.98453e-05 0.104609 0.994513 
-3.22139e-05 0.131041 0.991377 
-3.501e-05 0.163848 0.986486 
-2.83962e-05 0.204493 0.978868 
-2.61415e-05 0.254491 0.967075 
-2.24762e-05 0.31545 0.948942 
-1.66442e-05 0.38886 0.921297 
-1.05123e-05 0.475308 0.87982 
-7.47904e-06 0.573988 0.818864 
2.54671e-08 0.681667 0.731662 
2.12432e-06 0.790686 0.612222 
2.02596e-06 0.889859 0.456236 
3.33789e-06 0.963624 0.267261 
-1.19306e-07 0.998462 0.0554317 
-1.39543e-06 0.986896 -0.161356 
-2.89262e-06 0.931436 -0.363904 
-2.92368e-06 0.843384 -0.537311 
-8.77133e-07 0.737688 -0.675142 
3.27158e-06 0.628067 -0.778159 
8.55993e-06 0.524096 -0.851659 
1.40674e-05 0.431127 -0.902291 
1.93017e-05 0.351101 -0.936338 
2.41796e-05 0.283967 -0.958834 
2.78154e-05 0.228636 -0.973512 
3.08519e-05 0.183884 -0.982948 
3.51044e-05 0.146548 -0.989204 
3.48705e-05 0.117539 -0.993068 
3.71716e-05 0.0935484 -0.995615 
4.17951e-05 0.0744558 -0.997224 
3.75803e-05 0.0592014 -0.998246 
4.21957e-05 0.0469292 -0.998898 
4.23341e-05 0.0370897 -0.999312 
4.15824e-05 0.0291749 -0.999574 
4.3756e-05 0.0227835 -0.99974 
4.24219e-05 0.0175931 -0.999845 
4.41728e-05 0.0133352 -0.999911 
4.32555e-05 0.00979501 -0.999952 
4.40818e-05 0.00678685 -0.999977 
4.39544e-05 0.00416175 -0.999991 
4.38613e-05 0.00178135 -0.999998 
4.45301e-05 -0.000473893 -1 
4.31271e-05 -0.00271419 -0.999996 
4.51881e-05 -0.00501112 -0.999987 
4.28931e-05 -0.0074057 -0.999973 
4.46908e-05 -0.00987296 -0.999951 
4.38398e-05 -0.0123371 -0.999924 
4.29641e-05 -0.0147452 -0.999891 
4.63492e-05 -0.0171093 -0.999854 
3.90389e-05 -0.0195091 -0.99981 
4.90512e-05 -0.0216959 -0.999765 
4.69778e-05 -0.022662 -0.999743 
1.62013e-05 -0.0217305 -0.999764 
0.000118851 -0.0189445 -0.999821 
-0.000121032 -0.000851716 -1 
2.27726e-05 0.000336954 1 
0.00422568 -0.00783465 0.99996 
0.00715572 -0.0164473 0.999839 
0.00813318 -0.0191644 0.999783 
0.00856342 -0.0194934 0.999773 
0.00896069 -0.0182882 0.999793 
0.00919638 -0.0162317 0.999826 
0.0093943 -0.0139025 0.999859 
0.00948981 -0.0115387 0.999888 
0.00981887 -0.00916308 0.99991 
0.0100007 -0.00680179 0.999927 
0.0100002 -0.00447761 0.99994 
0.0100218 -0.00218716 0.999947 
0.00991194 7.86444e-05 0.999951 
0.00978008 0.00242269 0.999949 
0.00991309 0.00495653 0.999939 
0.0100439 0.0077383 0.99992 
0.00999981 0.0108923 0.999891 
0.0098624 0.0146855 0.999844 
0.00988359 0.0192901 0.999765 
0.0096855 0.0248397 0.999645 
0.00955646 0.0317959 0.999449 
0.00933536 0.040374 0.999141 
0.00904066 0.0510998 0.998653 
0.0087104 0.0645617 0.997876 
0.00849119 0.08154 0.996634 
0.00801502 0.102306 0.994721 
0.00769191 0.128799 0.991641 
0.00711933 0.160943 0.986938 
0.00666125 0.201413 0.979484 
0.00598053 0.250515 0.968094 
0.00525028 0.310588 0.95053 
0.00462257 0.384302 0.923196 
0.00391267 0.468496 0.883457 
0.00307812 0.565441 0.824783 
0.00249915 0.674447 0.738319 
0.00171004 0.779645 0.626219 
0.00133107 0.887812 0.460204 
0.000761749 0.959466 0.281825 
0.000276814 0.99747 0.071086 
-0.000217694 0.989551 -0.14418 
-0.000708497 0.940275 -0.340416 
-0.00132697 0.85206 -0.523443 
-0.00194352 0.748833 -0.662756 
-0.00263827 0.639616 -0.76869 
-0.00333094 0.534602 -0.845098 
-0.00407084 0.439156 -0.898402 
-0.00479378 0.357296 -0.933979 
-0.00546039 0.288256 -0.957538 
-0.00601609 0.231547 -0.972805 
-0.00674869 0.184226 -0.982861 
-0.00737284 0.147174 -0.989083 
-0.00771101 0.117601 -0.993031 
-0.00798456 0.092646 -0.995667 
-0.00826378 0.0727148 -0.997319 
-0.00901803 0.058001 -0.998276 
-0.00928751 0.0460242 -0.998897 
-0.00938486 0.0362433 -0.999299 
-0.00955047 0.0283779 -0.999552 
-0.00966498 0.0220123 -0.999711 
-0.00987071 0.0169174 -0.999808 
-0.00997049 0.0127283 -0.999869 
-0.0100915 0.00926533 -0.999906 
-0.010093 0.00630171 -0.999929 
-0.0100987 0.00369078 -0.999942 
-0.0101359 0.00130384 -0.999948 
-0.0101573 -0.000955445 -0.999948 
-0.0101525 -0.00319923 -0.999943 
-0.00998445 -0.00551652 -0.999935 
-0.00998896 -0.00788427 -0.999919 
-0.00986434 -0.0103052 -0.999898 
-0.00987531 -0.0127146 -0.99987 
-0.00975253 -0.015089 -0.999839 
-0.00954112 -0.01743 -0.999803 
-0.00925107 -0.0196324 -0.999764 
-0.00889527 -0.0211831 -0.999736 
-0.00812396 -0.0215705 -0.999734 
-0.00710014 -0.0202364 -0.99977 
-0.00292665 -0.012468 -0.999918 
0.000215474 0.000381714 -1 
4.74382e-05 -0.000121246 1 
0.00723433 -0.0117258 0.999905 
0.0110161 -0.0179936 0.999777 
0.0126189 -0.0190691 0.999739 
0.0136249 -0.0191941 0.999723 
0.0142814 -0.017702 0.999741 
0.0145688 -0.0154273 0.999775 
0.0149358 -0.0129661 0.999804 
0.0151855 -0.0106227 0.999828 
0.0153664 -0.00829969 0.999847 
0.0155042 -0.00599215 0.999862 
0.0155835 -0.00369847 0.999872 
0.0156558 -0.00140917 0.999876 
0.0156728 0.000888805 0.999877 
0.0156589 0.00330485 0.999872 
0.0156736 0.00590579 0.99986 
0.0156889 0.00875073 0.999839 
0.0155315 0.0120742 0.999806 
0.0153794 0.0160437 0.999753 
0.0152627 0.0207873 0.999667 
0.0149606 0.026622 0.999534 
0.0147243 0.0338202 0.999319 
0.0143708 0.0427998 0.99898 
0.013981 0.0539839 0.998444 
0.0134965 0.0680752 0.997589 
0.013049 0.0854491 0.996257 
0.0123658 0.107181 0.994163 
0.0117956 0.134225 0.990881 
0.0110051 0.16742 0.985824 
0.0102557 0.20927 0.977804 
0.0093828 0.259928 0.965582 
0.00841259 0.322939 0.946383 
0.00763716 0.395918 0.918254 
0.0066222 0.48378 0.875165 
0.00557249 0.583101 0.81238 
0.0048256 0.687788 0.725896 
0.00334073 0.801454 0.598048 
0.00290392 0.895524 0.445004 
0.00162881 0.966582 0.256354 
0.000439296 0.998996 0.0447958 
-0.000799185 0.987456 -0.157893 
-0.00184193 0.928829 -0.370505 
-0.0031792 0.840278 -0.542146 
-0.00422794 0.736014 -0.676953 
-0.00523848 0.623991 -0.781414 
-0.00618405 0.516926 -0.856008 
-0.00718666 0.422615 -0.906281 
-0.00815275 0.341316 -0.939913 
-0.00912844 0.274413 -0.961568 
-0.00998897 0.21908 -0.975656 
-0.0109202 0.173687 -0.98474 
-0.0117891 0.138851 -0.990243 
-0.0121695 0.109725 -0.993888 
-0.0134889 0.0933062 -0.995546 
-0.0129765 0.0790825 -0.996784 
-0.0138394 0.0628243 -0.997929 
-0.0141885 0.0500303 -0.998647 
-0.0145099 0.0395301 -0.999113 
-0.0148211 0.0310362 -0.999408 
-0.0150488 0.0241486 -0.999595 
-0.0152952 0.0186275 -0.999709 
-0.0154509 0.014133 -0.999781 
-0.015615 0.0104244 -0.999824 
-0.0157062 0.00729166 -0.99985 
-0.0157671 0.00456117 -0.999865 
-0.0158012 0.0020835 -0.999873 
-0.0158408 -0.000247604 -0.999874 
-0.0158219 -0.00250128 -0.999872 
-0.0157105 -0.00480735 -0.999865 
-0.0156416 -0.00713927 -0.999852 
-0.0154799 -0.00951914 -0.999835 
-0.015314 -0.0119106 -0.999812 
-0.0150554 -0.0143387 -0.999784 
-0.014678 -0.016716 -0.999753 
-0.014186 -0.0189492 -0.99972 
-0.0134987 -0.0204928 -0.999699 
-0.0123023 -0.0209742 -0.999704 
-0.010585 -0.0202122 -0.99974 
-0.00653014 -0.0135914 -0.999886 
-0.000365087 2.35396e-05 -1 
-0.000187179 3.05696e-05 1 
0.00703611 -0.0131057 0.999889 
0.0106677 -0.0187978 0.999766 
0.0126572 -0.0192185 0.999735 
0.013912 -0.0191619 0.99972 
0.0147339 -0.0175849 0.999737 
0.0152573 -0.0151639 0.999769 
0.0155503 -0.0128513 0.999796 
0.0158062 -0.010527 0.99982 
0.0160245 -0.0082219 0.999838 
0.0162105 -0.0059418 0.999851 
0.016363 -0.00364079 0.999859 
0.016483 -0.00141098 0.999863 
0.016512 0.000853618 0.999863 
0.016519 0.00324099 0.999858 
0.0165461 0.00577771 0.999846 
0.0164565 0.00857798 0.999828 
0.0163536 0.0118395 0.999796 
0.0161986 0.0157197 0.999745 
0.0159706 0.0203912 0.999665 
0.0157222 0.0260827 0.999536 
0.015405 0.033033 0.999336 
0.0150491 0.0417166 0.999016 
0.0146352 0.0525585 0.998511 
0.0141899 0.0660818 0.997713 
0.0136366 0.0828036 0.996473 
0.0130461 0.10418 0.994473 
0.0124331 0.129987 0.991438 
0.0117699 0.163417 0.986487 
0.0111126 0.202947 0.979127 
0.010412 0.255 0.966885 
0.00976928 0.316747 0.94846 
0.00924589 0.390711 0.920467 
0.008561 0.476774 0.878984 
0.0078596 0.578421 0.8157 
0.00747229 0.683219 0.730176 
0.00576383 0.790532 0.612394 
0.00544077 0.883219 0.468929 
0.00334708 0.957646 0.287928 
0.00116512 0.996478 0.0838511 
-0.00122901 0.991405 -0.13082 
-0.00306668 0.945134 -0.326668 
-0.00509877 0.862845 -0.505442 
-0.0066052 0.759952 -0.649946 
-0.007363 0.654945 -0.75564 
-0.00801616 0.546558 -0.837383 
-0.00864915 0.450122 -0.892925 
-0.00922815 0.36622 -0.930483 
-0.0098939 0.296256 -0.955057 
-0.0105725 0.238672 -0.971043 
-0.0112675 0.192125 -0.981306 
-0.0119852 0.153491 -0.988077 
-0.0127636 0.121727 -0.992482 
-0.0133977 0.0950898 -0.995379 
-0.0140757 0.0727719 -0.997249 
-0.0145106 0.0582237 -0.998198 
-0.014922 0.0464025 -0.998811 
-0.0152923 0.0368267 -0.999205 
-0.0156013 0.0289626 -0.999459 
-0.0158595 0.022711 -0.999616 
-0.0160878 0.0175589 -0.999716 
-0.0162742 0.0133732 -0.999778 
-0.016424 0.00984239 -0.999817 
-0.0165363 0.00683637 -0.99984 
-0.0166165 0.00417335 -0.999853 
-0.0166622 0.00175056 -0.99986 
-0.0166695 -0.000515537 -0.999861 
-0.0166297 -0.0028034 -0.999858 
-0.0165452 -0.00504636 -0.99985 
-0.0164067 -0.00733856 -0.999838 
-0.0162199 -0.00958659 -0.999822 
-0.0159697 -0.0119419 -0.999801 
-0.0156216 -0.0143498 -0.999775 
-0.0151519 -0.016736 -0.999745 
-0.0144981 -0.0188969 -0.999716 
-0.0135899 -0.0203779 -0.9997 
-0.0122542 -0.0206297 -0.999712 
-0.0101196 -0.0198462 -0.999752 
-0.0068597 -0.0134472 -0.999886 
7.56712e-05 4.50772e-05 -1 
0.00289021 -0.00721609 0.99997 
0.00885749 -0.0171695 0.999813 
0.0115026 -0.0194232 0.999745 
0.0131324 -0.0195619 0.999722 
0.0141865 -0.0187011 0.999724 
0.0142206 -0.0178894 0.999739 
0.0149305 -0.0162092 0.999757 
0.0153677 -0.0137934 0.999787 
0.0156929 -0.011352 0.999812 
0.0159572 -0.00903977 0.999832 
0.0161755 -0.00672585 0.999847 
0.0163752 -0.00436519 0.999856 
0.0165183 -0.00204292 0.999861 
0.0166269 0.000306095 0.999862 
0.0166767 0.00270496 0.999857 
0.0166602 0.00522353 0.999848 
0.0165274 0.00813406 0.99983 
0.0164521 0.0114419 0.999799 
0.0163069 0.0153511 0.999749 
0.0160059 0.0200056 0.999672 
0.0157643 0.025814 0.999542 
0.0154284 0.0329128 0.999339 
0.0150814 0.0415059 0.999024 
0.014657 0.0524146 0.998518 
0.0141773 0.0658587 0.997728 
0.0136818 0.0834673 0.996417 
0.013165 0.104222 0.994467 
0.0126125 0.131728 0.991206 
0.0121176 0.163952 0.986394 
0.0115816 0.207811 0.9781 
0.0112809 0.258131 0.966044 
0.0108734 0.318516 0.947855 
0.0108467 0.394909 0.918656 
0.0105039 0.485663 0.874083 
0.0104179 0.583739 0.811874 
0.0106026 0.685826 0.727688 
0.00864415 0.785663 0.618594 
0.00809761 0.886965 0.461767 
0.00503509 0.960745 0.277386 
0.00155582 0.997581 0.0695014 
-0.00233256 0.989384 -0.145305 
-0.00524102 0.937554 -0.347802 
-0.00809017 0.849234 -0.527955 
-0.00983382 0.746489 -0.665325 
-0.0101091 0.633039 -0.774054 
-0.0104114 0.525292 -0.850858 
-0.0105437 0.427644 -0.903886 
-0.010711 0.346457 -0.938005 
-0.0110221 0.278567 -0.960354 
-0.0114373 0.22453 -0.9744 
-0.0119588 0.180758 -0.983455 
-0.0125102 0.145615 -0.989262 
-0.0129985 0.119993 -0.99269 
-0.0134604 0.09714 -0.99518 
-0.0140843 0.0772461 -0.996913 
-0.0144686 0.0610934 -0.998027 
-0.0149044 0.0485531 -0.998709 
-0.0152793 0.0385813 -0.999139 
-0.0156091 0.030466 -0.999414 
-0.0158859 0.0238498 -0.999589 
-0.0161249 0.0185483 -0.999698 
-0.0163211 0.0141119 -0.999767 
-0.0164832 0.0104858 -0.999809 
-0.0166155 0.00734296 -0.999835 
-0.0167209 0.004624 -0.99985 
-0.016784 0.00214266 -0.999857 
-0.0167858 -0.000179051 -0.999859 
-0.0167676 -0.00246143 -0.999856 
-0.0166776 -0.00477833 -0.99985 
-0.0165388 -0.00700448 -0.999839 
-0.0163102 -0.00927851 -0.999824 
-0.0160331 -0.0115325 -0.999805 
-0.015641 -0.0139678 -0.99978 
-0.015156 -0.0164135 -0.99975 
-0.0144331 -0.0186366 -0.999722 
-0.0134424 -0.0201949 -0.999706 
-0.0120905 -0.0204864 -0.999717 
-0.00998692 -0.0198125 -0.999754 
-0.00657958 -0.0135137 -0.999887 
-0.000115508 6.46382e-05 -1 
6.88735e-05 7.71737e-06 1 
0.00592915 -0.013347 0.999893 
0.00981155 -0.0194432 0.999763 
0.0115741 -0.0196837 0.999739 
0.0130389 -0.0195154 0.999725 
0.0129049 -0.0178424 0.999758 
0.014467 -0.0155487 0.999774 
0.0146656 -0.013085 0.999807 
0.0148538 -0.01073 0.999832 
0.015147 -0.00847681 0.999849 
0.0153876 -0.00617766 0.999863 
0.0155437 -0.00392086 0.999872 
0.0156724 -0.00157067 0.999876 
0.0158435 0.00075486 0.999874 
0.0158876 0.00304573 0.999869 
0.01584 0.00568664 0.999858 
0.0155324 0.00837282 0.999844 
0.0155502 0.0114491 0.999814 
0.0153656 0.0153504 0.999764 
0.0150877 0.0200435 0.999685 
0.01487 0.0256162 0.999561 
0.0145179 0.0326456 0.999362 
0.014166 0.0414345 0.999041 
0.0138665 0.0518387 0.998559 
0.0134569 0.0652756 0.997777 
0.0130844 0.081667 0.996574 
0.0125537 0.103241 0.994577 
0.0122767 0.128154 0.991678 
0.011861 0.161194 0.986851 
0.0117499 0.200642 0.979594 
0.0116803 0.252017 0.967652 
0.0118194 0.311959 0.950022 
0.0122081 0.381945 0.924104 
0.0126349 0.474309 0.880268 
0.0133252 0.575321 0.817819 
0.014059 0.690306 0.723381 
0.0119307 0.802235 0.596889 
0.0115756 0.899133 0.437522 
0.00713559 0.963542 0.26746 
0.00211117 0.997924 0.064363 
-0.00392641 0.987472 -0.157745 
-0.00800276 0.933841 -0.357598 
-0.0118474 0.850274 -0.526207 
-0.0138936 0.749528 -0.661827 
-0.0133099 0.644356 -0.76461 
-0.0129691 0.536992 -0.843487 
-0.0123525 0.438304 -0.898742 
-0.0119094 0.352801 -0.935623 
-0.0116706 0.284217 -0.958689 
-0.0116807 0.22773 -0.973654 
-0.011861 0.183248 -0.982995 
-0.012161 0.146214 -0.989178 
-0.0126508 0.11611 -0.993156 
-0.0126132 0.0934187 -0.995547 
-0.0135583 0.0776755 -0.996887 
-0.0136296 0.0631663 -0.99791 
-0.014009 0.0504712 -0.998627 
-0.0143492 0.0398764 -0.999102 
-0.0147118 0.0314572 -0.999397 
-0.0149714 0.0246698 -0.999584 
-0.0151678 0.019075 -0.999703 
-0.0153605 0.0145864 -0.999776 
-0.0154873 0.0107561 -0.999822 
-0.0156617 0.00759262 -0.999849 
-0.0157911 0.00476726 -0.999864 
-0.0158882 0.00226969 -0.999871 
-0.0158494 -0.000104158 -0.999874 
-0.0159029 -0.00240325 -0.999871 
-0.0158394 -0.00469013 -0.999864 
-0.0156583 -0.00701593 -0.999853 
-0.0154247 -0.00918463 -0.999839 
-0.015072 -0.0115019 -0.99982 
-0.0147417 -0.0138033 -0.999796 
-0.0142208 -0.0162564 -0.999767 
-0.0135347 -0.018628 -0.999735 
-0.0125731 -0.0202489 -0.999716 
-0.0114587 -0.0204785 -0.999725 
-0.00940976 -0.019838 -0.999759 
-0.00643925 -0.0135414 -0.999888 
-0.000138379 5.8148e-05 -1 
0.000132419 -3.23024e-05 1 
0.0053932 -0.0126543 0.999905 
0.00858164 -0.0192227 0.999778 
0.0101336 -0.019978 0.999749 
0.011581 -0.0197459 0.999738 
0.0112506 -0.0183315 0.999769 
0.0129898 -0.0153827 0.999797 
0.0130316 -0.0129459 0.999831 
0.0132078 -0.0105463 0.999857 
0.0136068 -0.00820431 0.999874 
0.0137702 -0.00594163 0.999888 
0.0139753 -0.0035634 0.999896 
0.0140604 -0.00115776 0.9999 
0.0141222 0.00108344 0.9999 
0.0143303 0.00360987 0.999891 
0.0140141 0.00608731 0.999883 
0.0137774 0.00918748 0.999863 
0.0139035 0.012606 0.999824 
0.0136849 0.016703 0.999767 
0.013364 0.0218597 0.999672 
0.0131789 0.0278215 0.999526 
0.0128759 0.0355917 0.999283 
0.0125015 0.0448847 0.998914 
0.0123116 0.0562529 0.998341 
0.0119611 0.0704687 0.997442 
0.0117258 0.0882693 0.996028 
0.0113074 0.111285 0.993724 
0.0112566 0.137768 0.9904 
0.0111874 0.175807 0.984361 
0.0114253 0.2161 0.976304 
0.0119243 0.273092 0.961914 
0.0127328 0.332115 0.943153 
0.013839 0.41282 0.910707 
0.0153061 0.504239 0.863429 
0.0170702 0.611455 0.791095 
0.0192781 0.717799 0.695984 
0.0162962 0.804768 0.593366 
0.016082 0.908848 0.416817 
0.00921433 0.974357 0.224819 
0.000677244 0.99999 0.00449045 
-0.00809808 0.982121 -0.188077 
-0.0117181 0.938524 -0.345015 
-0.0171222 0.854574 -0.519048 
-0.0186385 0.737977 -0.674568 
-0.0171152 0.616564 -0.787119 
-0.0153787 0.507717 -0.861387 
-0.0137607 0.410813 -0.911616 
-0.0126112 0.330706 -0.94365 
-0.0118369 0.265731 -0.963974 
-0.0114407 0.213674 -0.976838 
-0.0113742 0.172682 -0.984912 
-0.0111048 0.142492 -0.989734 
-0.0116108 0.119138 -0.99281 
-0.0112932 0.0963219 -0.995286 
-0.0121468 0.0755504 -0.997068 
-0.0122168 0.0596104 -0.998147 
-0.012641 0.0473783 -0.998797 
-0.0129336 0.0373366 -0.999219 
-0.0132275 0.0294901 -0.999478 
-0.0134569 0.0230118 -0.999645 
-0.0135739 0.0177583 -0.99975 
-0.0137824 0.013422 -0.999815 
-0.0138502 0.00977995 -0.999856 
-0.0140694 0.00667918 -0.999879 
-0.0141495 0.0039742 -0.999892 
-0.0142271 0.00154208 -0.999898 
-0.0141969 -0.000865056 -0.999899 
-0.0142457 -0.0031368 -0.999894 
-0.0142193 -0.00545633 -0.999884 
-0.0138961 -0.00762733 -0.999874 
-0.0137188 -0.00981454 -0.999858 
-0.0132616 -0.0120101 -0.99984 
-0.0130427 -0.0144004 -0.999811 
-0.0125674 -0.0168598 -0.999779 
-0.0118253 -0.0190344 -0.999749 
-0.0108073 -0.0203576 -0.999734 
-0.0099443 -0.0206014 -0.999738 
-0.00806692 -0.0196992 -0.999773 
-0.00574646 -0.0132819 -0.999895 
-9.45409e-05 5.88697e-05 -1 
3.89126e-05 0.000126398 1 
0.00466042 -0.0129571 0.999905 
0.00732033 -0.0194434 0.999784 
0.00854884 -0.0201498 0.99976 
0.00988464 -0.0199195 0.999753 
0.00959047 -0.0184791 0.999783 
0.0113026 -0.01605 0.999807 
0.0112381 -0.0135058 0.999846 
0.0113486 -0.0110514 0.999875 
0.0117623 -0.00874012 0.999893 
0.0119151 -0.00649386 0.999908 
0.0121411 -0.00414893 0.999918 
0.0122508 -0.0017683 0.999923 
0.0120828 0.000627406 0.999927 
0.0124984 0.00296712 0.999917 
0.0120736 0.00544043 0.999912 
0.0120764 0.00823236 0.999893 
0.0120317 0.011863 0.999857 
0.0119154 0.0156666 0.999806 
0.0117161 0.0203238 0.999725 
0.0114007 0.0263061 0.999589 
0.0112984 0.0331459 0.999387 
0.0109234 0.0419211 0.999061 
0.0107193 0.0528873 0.998543 
0.0105176 0.0655854 0.997792 
0.0103759 0.0821674 0.996565 
0.010196 0.102004 0.994732 
0.0100851 0.129283 0.991556 
0.0103798 0.159732 0.987106 
0.0107037 0.201948 0.979338 
0.0114774 0.246669 0.969032 
0.0127379 0.306703 0.95172 
0.0144562 0.375928 0.926536 
0.0167173 0.45823 0.888676 
0.0195078 0.555176 0.831504 
0.0232815 0.65919 0.751616 
0.0223662 0.832188 0.554042 
0.0267487 0.902103 0.430691 
0.0166498 0.962768 0.269815 
0.00448782 0.997685 0.0678599 
-0.00119721 0.999865 -0.0163928 
-0.0121093 0.982333 -0.186747 
-0.0210374 0.909908 -0.414276 
-0.0248684 0.798372 -0.60165 
-0.0227836 0.666034 -0.745574 
-0.019421 0.549143 -0.835502 
-0.0162627 0.44501 -0.895378 
-0.0139647 0.35798 -0.933625 
-0.0122757 0.285679 -0.958247 
-0.0112347 0.229437 -0.973259 
-0.0106211 0.183885 -0.98289 
-0.010179 0.145601 -0.989291 
-0.0102701 0.114215 -0.993403 
-0.00981988 0.0913723 -0.995768 
-0.0107471 0.0765373 -0.997009 
-0.0105068 0.0634416 -0.99793 
-0.0109283 0.0508165 -0.998648 
-0.0112157 0.0402251 -0.999128 
-0.0114044 0.0315604 -0.999437 
-0.0116434 0.0247651 -0.999625 
-0.0117539 0.0191771 -0.999747 
-0.0119202 0.0144852 -0.999824 
-0.0120163 0.0106852 -0.999871 
-0.0121854 0.00732496 -0.999899 
-0.0122698 0.00450745 -0.999915 
-0.012316 0.00194881 -0.999922 
-0.0123852 -0.000423519 -0.999923 
-0.0123402 -0.0028546 -0.99992 
-0.0124448 -0.00516247 -0.999909 
-0.012016 -0.00742646 -0.9999 
-0.0119174 -0.00962088 -0.999883 
-0.0114307 -0.0117897 -0.999865 
-0.0112903 -0.0141758 -0.999836 
-0.0109433 -0.0166241 -0.999802 
-0.0101863 -0.0188167 -0.999771 
-0.00931032 -0.0203787 -0.999749 
-0.00858822 -0.0206044 -0.999751 
-0.00694785 -0.0198477 -0.999779 