# vtk DataFile Version 3.0 
Exported using Morpho https://github.com/Morpho-lang/morpho 
ASCII 
DATASET UNSTRUCTURED_GRID 

POINTS 2083 float 
-8.32618 -2.88146 0 
-8.11405 -2.88146 0 
-7.90192 -2.88146 0 
-7.68979 -2.88146 0 
-7.47765 -2.88146 0 
-7.26552 -2.88146 0 
-7.05339 -2.88146 0 
-6.84126 -2.88146 0 
-6.62913 -2.88146 0 
-6.41699 -2.88146 0 
-6.20486 -2.88146 0 
-5.99273 -2.88146 0 
-5.7806 -2.88146 0 
-5.56847 -2.88146 0 
-5.35633 -2.88146 0 
-5.1442 -2.88146 0 
-4.93207 -2.88146 0 
-4.71994 -2.88146 0 
-4.50781 -2.88146 0 
-4.29567 -2.88146 0 
-4.08354 -2.88146 0 
-3.87141 -2.88146 0 
-3.65928 -2.88146 0 
-3.44715 -2.88146 0 
-3.23501 -2.88146 0 
-3.02288 -2.88146 0 
-2.81075 -2.88146 0 
-2.59862 -2.88146 0 
-2.38649 -2.88146 0 
-2.17435 -2.88146 0 
-1.96222 -2.88146 0 
-1.75009 -2.88146 0 
-1.53796 -2.88146 0 
-1.32583 -2.88146 0 
-1.11369 -2.88146 0 
-0.901561 -2.88146 0 
-0.689429 -2.88146 0 
-0.477297 -2.88146 0 
-0.265165 -2.88146 0 
-0.053033 -2.88146 0 
0.159099 -2.88146 0 
0.371231 -2.88146 0 
0.583363 -2.88146 0 
0.795495 -2.88146 0 
1.00763 -2.88146 0 
1.21976 -2.88146 0 
1.43189 -2.88146 0 
1.64402 -2.88146 0 
1.85616 -2.88146 0 
2.06829 -2.88146 0 
2.28042 -2.88146 0 
2.49255 -2.88146 0 
2.70468 -2.88146 0 
2.91682 -2.88146 0 
3.12895 -2.88146 0 
3.34108 -2.88146 0 
3.55321 -2.88146 0 
3.76534 -2.88146 0 
3.97748 -2.88146 0 
4.18961 -2.88146 0 
4.40174 -2.88146 0 
4.61387 -2.88146 0 
4.826 -2.88146 0 
5.03814 -2.88146 0 
5.25027 -2.88146 0 
5.4624 -2.88146 0 
5.67453 -2.88146 0 
5.88666 -2.88146 0 
6.0988 -2.88146 0 
6.31093 -2.88146 0 
6.52306 -2.88146 0 
6.73519 -2.88146 0 
6.94732 -2.88146 0 
7.15946 -2.88146 0 
7.37159 -2.88146 0 
7.58372 -2.88146 0 
7.79585 -2.88146 0 
8.00798 -2.88146 0 
8.22012 -2.88146 0 
8.53831 -2.88146 0 
-8.53831 -2.72268 0 
-8.30067 -2.66723 0 
-8.07233 -2.66407 0 
-7.85099 -2.66731 0 
-7.6176 -2.67653 0 
-7.37688 -2.68637 0 
-7.14215 -2.67637 0 
-6.92004 -2.67715 0 
-6.69817 -2.66914 0 
-6.47778 -2.66491 0 
-6.26089 -2.66405 0 
-6.0438 -2.66461 0 
-5.82778 -2.66609 0 
-5.61285 -2.67007 0 
-5.39622 -2.66935 0 
-5.1828 -2.67108 0 
-4.96863 -2.67006 0 
-4.75505 -2.66893 0 
-4.54302 -2.66842 0 
-4.3317 -2.66985 0 
-4.12043 -2.67084 0 
-3.90742 -2.67006 0 
-3.69717 -2.66986 0 
-3.48572 -2.67014 0 
-3.27706 -2.67398 0 
-3.06203 -2.67168 0 
-2.84625 -2.66461 0 
-2.64293 -2.66974 0 
-2.43216 -2.6696 0 
-2.21379 -2.67185 0 
-1.9986 -2.66969 0 
-1.77956 -2.66877 0 
-1.55733 -2.66435 0 
-1.33603 -2.65192 0 
-1.1205 -2.65284 0 
-0.898954 -2.65189 0 
-0.685776 -2.65653 0 
-0.465164 -2.63873 0 
-0.247614 -2.63911 0 
-0.0214343 -2.6478 0 
0.177019 -2.62901 0 
0.392951 -2.63395 0 
0.605126 -2.62552 0 
0.828361 -2.64914 0 
1.04866 -2.65628 0 
1.26214 -2.65504 0 
1.48431 -2.6683 0 
1.70485 -2.67163 0 
1.9214 -2.67422 0 
2.13366 -2.67173 0 
2.34395 -2.66971 0 
2.55576 -2.67222 0 
2.76658 -2.67242 0 
2.9772 -2.67263 0 
3.18614 -2.67047 0 
3.39531 -2.66954 0 
3.60446 -2.66828 0 
3.81304 -2.66883 0 
4.02377 -2.66949 0 
4.23385 -2.67075 0 
4.44524 -2.66977 0 
4.65653 -2.66965 0 
4.86412 -2.66625 0 
5.07564 -2.67024 0 
5.28653 -2.67082 0 
5.49755 -2.67035 0 
5.70576 -2.66757 0 
5.91579 -2.66843 0 
6.12669 -2.66952 0 
6.33829 -2.67009 0 
6.54957 -2.66931 0 
6.76196 -2.66865 0 
6.97486 -2.66757 0 
7.18972 -2.66716 0 
7.40489 -2.66511 0 
7.62178 -2.66358 0 
7.83862 -2.65898 0 
8.05817 -2.65322 0 
8.3092 -2.72159 0 
8.53831 -2.66933 0 
-8.42898 -2.49467 0 
-8.16956 -2.46095 0 
-7.92855 -2.44912 0 
-7.69498 -2.47917 0 
-7.43562 -2.50291 0 
-7.34448 -2.31598 0 
-7.17808 -2.48954 0 
-6.92494 -2.47225 0 
-6.69693 -2.46092 0 
-6.47538 -2.45027 0 
-6.25115 -2.45097 0 
-6.02791 -2.45189 0 
-5.80605 -2.45445 0 
-5.58373 -2.46259 0 
-5.36492 -2.45867 0 
-5.14798 -2.46186 0 
-4.93012 -2.46037 0 
-4.71456 -2.45705 0 
-4.49928 -2.4567 0 
-4.28628 -2.45834 0 
-4.07005 -2.46255 0 
-3.85798 -2.45733 0 
-3.64319 -2.46035 0 
-3.43303 -2.45698 0 
-3.21881 -2.46858 0 
-2.99717 -2.46544 0 
-2.78997 -2.44083 0 
-2.58637 -2.45496 0 
-2.35881 -2.46919 0 
-2.13985 -2.46018 0 
-1.91571 -2.46188 0 
-1.6872 -2.45927 0 
-1.46352 -2.44291 0 
-1.23316 -2.42688 0 
-1.00714 -2.43428 0 
-0.778121 -2.4155 0 
-0.569184 -2.42909 0 
-0.442667 -2.2242 0 
-0.318844 -2.40065 0 
-0.0891381 -2.42136 0 
0.122412 -2.36004 0 
0.317331 -2.38791 0 
0.529411 -2.37874 0 
0.761856 -2.41132 0 
0.979881 -2.42872 0 
1.19422 -2.42639 0 
1.41626 -2.45466 0 
1.64097 -2.46474 0 
1.86514 -2.46558 0 
2.07875 -2.4611 0 
2.28972 -2.45722 0 
2.50208 -2.46187 0 
2.71358 -2.46226 0 
2.92435 -2.463 0 
3.13371 -2.45875 0 
3.34282 -2.45713 0 
3.55236 -2.45524 0 
3.76263 -2.4535 0 
3.9711 -2.45832 0 
4.18403 -2.45785 0 
4.394 -2.46063 0 
4.60977 -2.45914 0 
4.82173 -2.45016 0 
5.03286 -2.45862 0 
5.24529 -2.45974 0 
5.45724 -2.46014 0 
5.66939 -2.45302 0 
5.87902 -2.45482 0 
6.09097 -2.45789 0 
6.30297 -2.45854 0 
6.51642 -2.45787 0 
6.72991 -2.45681 0 
6.94613 -2.45573 0 
7.16353 -2.45554 0 
7.38396 -2.45216 0 
7.60579 -2.45016 0 
7.82991 -2.44223 0 
8.0565 -2.43806 0 
8.29197 -2.51268 0 
8.53831 -2.4572 0 
-8.53831 -2.2668 0 
-8.32019 -2.28552 0 
-8.07756 -2.25288 0 
-7.83127 -2.24931 0 
-7.58882 -2.30799 0 
-7.32333 -2.13307 0 
-7.09129 -2.29927 0 
-6.86299 -2.2618 0 
-6.64636 -2.24248 0 
-6.42566 -2.23791 0 
-6.20671 -2.23891 0 
-5.98886 -2.2405 0 
-5.7707 -2.24619 0 
-5.55984 -2.25065 0 
-5.35549 -2.23588 0 
-5.15283 -2.24901 0 
-4.94523 -2.25058 0 
-4.7334 -2.24507 0 
-4.52343 -2.24479 0 
-4.31366 -2.24344 0 
-4.10742 -2.2525 0 
-3.89949 -2.24413 0 
-3.6916 -2.25026 0 
-3.48384 -2.242 0 
-3.27587 -2.25502 0 
-3.06767 -2.26638 0 
-2.85894 -2.22861 0 
-2.6502 -2.22173 0 
-2.44576 -2.2682 0 
-2.22816 -2.25298 0 
-2.00743 -2.25378 0 
-1.78426 -2.25361 0 
-1.56608 -2.23032 0 
-1.34078 -2.22164 0 
-1.10508 -2.20919 0 
-0.884214 -2.20412 0 
-0.65757 -2.16756 0 
-0.472908 -1.97592 0 
-0.268068 -2.03503 0 
-0.154404 -2.1909 0 
0.0525642 -2.12966 0 
0.275056 -2.10126 0 
0.458699 -2.13214 0 
0.696756 -2.18793 0 
0.937946 -2.18999 0 
1.14791 -2.19256 0 
1.37024 -2.23409 0 
1.5952 -2.25616 0 
1.82412 -2.26294 0 
2.05031 -2.24794 0 
2.26274 -2.24337 0 
2.47646 -2.25155 0 
2.69132 -2.25221 0 
2.90468 -2.25309 0 
3.11584 -2.24735 0 
3.3262 -2.24491 0 
3.53663 -2.24275 0 
3.74797 -2.24137 0 
3.96077 -2.24281 0 
4.16868 -2.2489 0 
4.38457 -2.2469 0 
4.59397 -2.25401 0 
4.81344 -2.23883 0 
5.02915 -2.24697 0 
5.24238 -2.24923 0 
5.45572 -2.24927 0 
5.6672 -2.24057 0 
5.87904 -2.24159 0 
6.08879 -2.24551 0 
6.30103 -2.24754 0 
6.51293 -2.24607 0 
6.72654 -2.24555 0 
6.94061 -2.24429 0 
7.15822 -2.24479 0 
7.37725 -2.24139 0 
7.60014 -2.23826 0 
7.82664 -2.22926 0 
8.06467 -2.23255 0 
8.30089 -2.30253 0 
8.53831 -2.24506 0 
-8.42595 -2.0448 0 
-8.21425 -2.06634 0 
-7.96431 -2.05653 0 
-7.74569 -2.00561 0 
-7.58153 -2.11557 0 
-7.40972 -1.94823 0 
-7.09717 -2.09451 0 
-6.88379 -2.04724 0 
-6.66738 -2.02742 0 
-6.44811 -2.02585 0 
-6.22612 -2.02547 0 
-6.00678 -2.02734 0 
-5.78869 -2.03464 0 
-5.57219 -2.03205 0 
-5.35498 -2.02727 0 
-5.13884 -2.02986 0 
-4.92837 -2.03768 0 
-4.71767 -2.03114 0 
-4.50713 -2.03122 0 
-4.30049 -2.02665 0 
-4.09514 -2.03709 0 
-3.89202 -2.02459 0 
-3.68837 -2.03667 0 
-3.48208 -2.02563 0 
-3.27465 -2.04212 0 
-3.06448 -2.05441 0 
-2.85209 -2.01367 0 
-2.62402 -2.02285 0 
-2.39769 -2.05981 0 
-2.16905 -2.04689 0 
-1.94381 -2.04553 0 
-1.73196 -2.02521 0 
-1.50008 -2.0093 0 
-1.26608 -2.00874 0 
-1.03653 -1.97934 0 
-0.810874 -1.96787 0 
-0.627686 -1.85422 0 
-0.388952 -1.7214 0 
-0.214476 -1.8031 0 
-0.0369178 -1.89273 0 
0.165529 -1.86935 0 
0.356305 -1.80978 0 
0.561432 -1.93823 0 
0.789435 -1.97768 0 
1.00067 -1.93932 0 
1.22488 -1.98108 0 
1.44242 -2.02541 0 
1.66546 -2.05171 0 
1.88454 -2.05252 0 
2.0963 -2.02696 0 
2.31044 -2.03095 0 
2.52217 -2.04118 0 
2.73419 -2.0418 0 
2.9404 -2.03939 0 
3.14715 -2.03356 0 
3.35359 -2.03092 0 
3.56164 -2.02939 0 
3.77234 -2.0298 0 
3.97626 -2.02513 0 
4.18901 -2.04038 0 
4.39509 -2.03097 0 
4.61082 -2.04846 0 
4.81934 -2.02186 0 
5.02724 -2.0394 0 
5.24427 -2.03892 0 
5.45563 -2.03769 0 
5.66728 -2.02841 0 
5.87839 -2.02914 0 
6.09041 -2.03317 0 
6.30078 -2.03563 0 
6.51193 -2.03351 0 
6.72407 -2.03311 0 
6.93873 -2.03235 0 
7.1548 -2.03322 0 
7.37597 -2.03027 0 
7.60158 -2.0274 0 
7.83686 -2.02354 0 
8.07179 -2.02335 0 
8.30471 -2.09007 0 
8.53831 -2.03293 0 
-8.53831 -1.82867 0 
-8.30749 -1.82273 0 
-8.08589 -1.86722 0 
-7.85902 -1.81719 0 
-7.5814 -1.83313 0 
-7.32779 -1.72881 0 
-7.17382 -1.89831 0 
-6.95439 -1.84158 0 
-6.73412 -1.81537 0 
-6.51049 -1.81237 0 
-6.28664 -1.81535 0 
-6.06124 -1.81554 0 
-5.83764 -1.82216 0 
-5.61837 -1.82209 0 
-5.39952 -1.81993 0 
-5.17864 -1.82097 0 
-4.96026 -1.82329 0 
-4.74894 -1.82007 0 
-4.53381 -1.81967 0 
-4.32029 -1.81106 0 
-4.11013 -1.81838 0 
-3.89601 -1.81567 0 
-3.68097 -1.81928 0 
-3.47049 -1.81082 0 
-3.26214 -1.82786 0 
-3.05349 -1.8431 0 
-2.81929 -1.81563 0 
-2.5995 -1.81141 0 
-2.38711 -1.86093 0 
-2.16118 -1.84045 0 
-1.95904 -1.81673 0 
-1.7525 -1.79094 0 
-1.53491 -1.79958 0 
-1.28715 -1.79223 0 
-1.04826 -1.75679 0 
-0.826638 -1.71571 0 
-0.571929 -1.61609 0 
-0.266041 -1.50707 0 
-0.103332 -1.56246 0 
0.0672412 -1.62056 0 
0.252353 -1.56463 0 
0.509184 -1.65805 0 
0.711378 -1.74239 0 
0.916691 -1.71047 0 
1.1593 -1.74465 0 
1.38805 -1.78784 0 
1.60495 -1.83166 0 
1.82517 -1.83757 0 
2.03825 -1.81384 0 
2.26087 -1.81703 0 
2.48163 -1.82623 0 
2.69635 -1.83184 0 
2.9112 -1.82356 0 
3.11802 -1.82005 0 
3.32722 -1.81643 0 
3.53611 -1.81627 0 
3.74764 -1.81886 0 
3.9599 -1.80517 0 
4.16532 -1.82874 0 
4.37596 -1.81314 0 
4.58339 -1.83803 0 
4.79602 -1.81055 0 
5.00893 -1.82332 0 
5.21782 -1.83306 0 
5.43492 -1.82559 0 
5.64477 -1.81787 0 
5.85886 -1.81761 0 
6.07118 -1.82143 0 
6.28368 -1.82319 0 
6.49502 -1.8203 0 
6.70734 -1.82173 0 
6.92274 -1.82045 0 
7.14054 -1.82141 0 
7.36071 -1.81984 0 
7.58652 -1.8179 0 
7.81729 -1.8185 0 
8.05745 -1.81451 0 
8.29859 -1.87367 0 
8.53831 -1.8208 0 
-8.53831 -1.61439 0 
-8.30402 -1.60706 0 
[...]
POINT_DATA 2083 
VECTORS vectors float
-4.95825e-05 -0.000530448 1 
4.55293e-05 -0.0174736 0.999847 
-0.000105995 -0.0221538 0.999755 
-4.41776e-05 -0.0225408 0.999746 
-6.53673e-05 -0.0208848 0.999782 
-5.60389e-05 -0.0185322 0.999828 
-6.00668e-05 -0.0160212 0.999872 
-5.83165e-05 -0.0134283 0.99991 
-5.98167e-05 -0.0107779 0.999942 
-5.86336e-05 -0.00816226 0.999967 
-5.95027e-05 -0.00566217 0.999984 
-5.91695e-05 -0.00330572 0.999995 
-5.93521e-05 -0.00106285 0.999999 
-5.92883e-05 0.00113642 0.999999 
-5.94846e-05 0.00339837 0.999994 
-5.89497e-05 0.00583661 0.999983 
-5.93222e-05 0.00857124 0.999963 
-5.86631e-05 0.0117474 0.999931 
-5.86432e-05 0.0155232 0.99988 
-5.8052e-05 0.0200822 0.999798 
-5.76783e-05 0.0256459 0.999671 
-5.69702e-05 0.0324901 0.999472 
-5.61129e-05 0.0409418 0.999162 
-5.51237e-05 0.0514035 0.998678 
-5.37001e-05 0.0643625 0.997927 
-5.24295e-05 0.0804373 0.99676 
-5.02412e-05 0.100411 0.994946 
-4.71819e-05 0.125168 0.992136 
-4.53323e-05 0.155859 0.987779 
-4.04397e-05 0.193807 0.98104 
-3.6027e-05 0.240599 0.970625 
-3.14869e-05 0.297924 0.95459 
-2.12073e-05 0.367451 0.930043 
-2.17355e-05 0.450535 0.892759 
-4.68839e-06 0.547179 0.837015 
-3.46266e-06 0.65173 0.758451 
-2.67084e-07 0.764192 0.644989 
9.22983e-06 0.86731 0.497768 
1.37093e-06 0.949389 0.314104 
2.95362e-06 0.994641 0.103393 
-1.09241e-06 0.993156 -0.116798 
-3.96136e-06 0.945215 -0.326449 
-4.14477e-06 0.861007 -0.508593 
-1.34957e-06 0.755708 -0.654909 
2.79954e-06 0.644523 -0.764585 
1.06749e-05 0.538224 -0.842802 
1.75489e-05 0.442792 -0.896624 
2.52108e-05 0.360704 -0.93268 
3.132e-05 0.291917 -0.956444 
3.69219e-05 0.235281 -0.971927 
4.15208e-05 0.189122 -0.981954 
4.50819e-05 0.151729 -0.988422 
4.83389e-05 0.121559 -0.992584 
5.05065e-05 0.0972691 -0.995258 
5.26111e-05 0.0777373 -0.996974 
5.40734e-05 0.0620289 -0.998074 
5.54132e-05 0.0493876 -0.99878 
5.62063e-05 0.0392009 -0.999231 
5.73903e-05 0.0309784 -0.99952 
5.73498e-05 0.0243228 -0.999704 
5.86788e-05 0.0189091 -0.999821 
5.8284e-05 0.0144693 -0.999895 
5.91361e-05 0.0107776 -0.999942 
5.8968e-05 0.00765064 -0.999971 
5.94904e-05 0.00494037 -0.999988 
5.92343e-05 0.00249655 -0.999997 
5.94551e-05 0.00018629 -1 
5.93596e-05 -0.00210178 -0.999998 
5.94378e-05 -0.0044562 -0.99999 
5.91652e-05 -0.00694245 -0.999976 
5.92654e-05 -0.00957494 -0.999954 
5.91366e-05 -0.0123099 -0.999924 
5.84036e-05 -0.0150744 -0.999886 
6.18458e-05 -0.0178145 -0.999841 
4.9576e-05 -0.0205391 -0.999789 
7.85147e-05 -0.0231155 -0.999733 
3.13385e-05 -0.024856 -0.999691 
8.14033e-05 -0.0244578 -0.999701 
6.47102e-05 -0.0215359 -0.999768 
-1.68259e-05 -0.000978337 -1 
5.06385e-05 0.000202644 1 
0.00754132 -0.0130954 0.999886 
0.0105943 -0.0200195 0.999743 
0.0113568 -0.0216263 0.999702 
0.0116335 -0.021525 0.999701 
0.0116886 -0.0194947 0.999742 
0.0125043 -0.016794 0.999781 
0.0126549 -0.014156 0.99982 
0.0130052 -0.0114372 0.99985 
0.0132224 -0.00879082 0.999874 
0.0133457 -0.00627417 0.999891 
0.0134079 -0.00386472 0.999903 
0.0134559 -0.00156621 0.999908 
0.0133426 0.000678342 0.999911 
0.0134156 0.00298745 0.999906 
0.0133579 0.00542182 0.999896 
0.0133572 0.00814784 0.999878 
0.0133273 0.0112871 0.999847 
0.0132516 0.0149764 0.9998 
0.0130529 0.0194028 0.999727 
0.01281 0.0247925 0.999611 
0.0125966 0.0314698 0.999425 
0.0123089 0.0395935 0.99914 
0.0119526 0.0496843 0.998693 
0.0113335 0.0619928 0.998012 
0.0107587 0.0777427 0.996915 
0.0103918 0.0974116 0.99519 
0.00951245 0.120279 0.992695 
0.00857569 0.149548 0.988717 
0.00749034 0.187108 0.982311 
0.00649464 0.232959 0.972465 
0.00534968 0.290423 0.956883 
0.00427873 0.361697 0.932286 
0.00345471 0.446937 0.894559 
0.00266376 0.543234 0.839577 
0.00204698 0.654792 0.755806 
0.00153069 0.765064 0.643953 
0.000994296 0.872865 0.48796 
0.000143543 0.954935 0.296815 
-0.000913069 0.997559 0.0698298 
-0.00221045 0.990644 -0.136453 
-0.00308268 0.937585 -0.347742 
-0.00379401 0.850392 -0.526136 
-0.00377308 0.738434 -0.674315 
-0.00398718 0.623607 -0.781728 
-0.00446175 0.518854 -0.854851 
-0.00493867 0.422163 -0.906507 
-0.00578253 0.340669 -0.940166 
-0.00669462 0.274287 -0.961624 
-0.00769927 0.220991 -0.975246 
-0.00863447 0.177971 -0.983998 
-0.00939344 0.142817 -0.989705 
-0.0101501 0.114574 -0.993363 
-0.0107911 0.0918178 -0.995717 
-0.0114061 0.0736227 -0.997221 
-0.0118741 0.058918 -0.998192 
-0.0123057 0.0470453 -0.998817 
-0.01259 0.0374662 -0.999219 
-0.0128348 0.0296271 -0.999479 
-0.012994 0.0232805 -0.999645 
-0.0132 0.0180709 -0.99975 
-0.0133491 0.0137842 -0.999816 
-0.0136004 0.0102697 -0.999855 
-0.0134855 0.00721533 -0.999883 
-0.0135459 0.00454985 -0.999898 
-0.0136029 0.00212535 -0.999905 
-0.013705 -0.000147716 -0.999906 
-0.0136149 -0.00242175 -0.999904 
-0.0135227 -0.0047666 -0.999897 
-0.0134289 -0.00722673 -0.999884 
-0.0133489 -0.00979508 -0.999863 
-0.0132148 -0.012464 -0.999835 
-0.0130519 -0.0151776 -0.9998 
-0.0127926 -0.0179154 -0.999758 
-0.0124905 -0.0205811 -0.99971 
-0.0119966 -0.022789 -0.999668 
-0.0113333 -0.0237649 -0.999653 
-0.010013 -0.023177 -0.999681 
-0.00526053 -0.0162952 -0.999853 
0.000169627 0.000441766 -1 
0.005866 -0.0089527 0.999943 
0.0124461 -0.0199298 0.999724 
0.0144217 -0.0212999 0.999669 
0.0158386 -0.0216486 0.99964 
0.0167277 -0.0199574 0.999661 
0.0170637 -0.0190109 0.999674 
0.0171969 -0.0170595 0.999707 
0.0175014 -0.0140061 0.999749 
0.0177594 -0.0112961 0.999778 
0.0179505 -0.008706 0.999801 
0.0180964 -0.00616092 0.999817 
0.0182184 -0.00370887 0.999827 
0.0183139 -0.00134513 0.999831 
0.0183319 0.00099961 0.999831 
0.0183326 0.00337296 0.999826 
0.0183088 0.0059191 0.999815 
0.0182276 0.00878753 0.999795 
0.0180887 0.0120915 0.999763 
0.0178846 0.0160181 0.999712 
0.0176207 0.020716 0.99963 
0.0172693 0.0265384 0.999499 
0.0168557 0.033595 0.999293 
0.01632 0.0424147 0.998967 
0.0156965 0.0530957 0.998466 
0.0149453 0.0665675 0.99767 
0.01399 0.0839683 0.99637 
0.0128821 0.104248 0.994468 
0.0117484 0.128632 0.991623 
0.010408 0.162411 0.986668 
0.00889633 0.20304 0.97913 
0.00738274 0.254506 0.967043 
0.00592528 0.319372 0.947611 
0.0047056 0.396784 0.9179 
0.00393156 0.491649 0.870784 
0.00366697 0.598806 0.800886 
0.00370752 0.71653 0.697546 
0.00324504 0.823333 0.567549 
0.00532083 0.880768 0.473519 
0.00203993 0.931291 0.364269 
-0.000576166 0.990139 0.14009 
-0.00391758 0.99671 -0.0809598 
-0.00627483 0.960547 -0.278046 
-0.00807065 0.883411 -0.46853 
-0.00786063 0.77169 -0.63595 
-0.00735816 0.658266 -0.752749 
-0.00714897 0.550709 -0.834667 
-0.00710356 0.450494 -0.892751 
-0.00769406 0.363464 -0.931576 
-0.00864866 0.291241 -0.956611 
-0.00974667 0.234817 -0.971991 
-0.0109028 0.18927 -0.981865 
-0.0120609 0.151975 -0.988311 
-0.0131399 0.121962 -0.992448 
-0.0141014 0.0978115 -0.995105 
-0.0149437 0.0784687 -0.996805 
-0.0156629 0.0628565 -0.9979 
-0.0162768 0.0502213 -0.998605 
-0.0167949 0.0399759 -0.999059 
-0.0172111 0.0317401 -0.999348 
-0.0175731 0.0249201 -0.999535 
-0.0178499 0.0194424 -0.999652 
-0.018071 0.0148242 -0.999727 
-0.0182703 0.0110655 -0.999772 
-0.0183785 0.00788766 -0.9998 
-0.0184887 0.00511092 -0.999816 
-0.0185391 0.00261281 -0.999825 
-0.018512 0.000254214 -0.999829 
-0.0184941 -0.00203339 -0.999827 
-0.0184209 -0.0043809 -0.999821 
-0.0183027 -0.00680506 -0.999809 
-0.0181237 -0.00932797 -0.999792 
-0.0179064 -0.0119449 -0.999768 
-0.0176187 -0.0146603 -0.999737 
-0.0172218 -0.0174154 -0.9997 
-0.0166659 -0.0201422 -0.999658 
-0.0158568 -0.0223529 -0.999624 
-0.0145755 -0.023136 -0.999626 
-0.0126554 -0.0228727 -0.999658 
-0.00925906 -0.0178215 -0.999798 
-0.00036677 -1.17849e-05 -1 
-4.90667e-05 -8.49032e-05 1 
0.00909108 -0.0169304 0.999815 
0.0124949 -0.0213627 0.999694 
0.0146175 -0.0217849 0.999656 
0.0162375 -0.0214238 0.999639 
0.0169974 -0.0188576 0.999678 
0.0175483 -0.0159783 0.999718 
0.0178645 -0.0132125 0.999753 
0.0181615 -0.0106717 0.999778 
0.0183948 -0.00814678 0.999798 
0.0185829 -0.00570258 0.999811 
0.0187324 -0.00332025 0.999819 
0.0188494 -0.000979724 0.999822 
0.0189513 0.0012801 0.99982 
0.0189654 0.00354589 0.999814 
0.0189211 0.00595897 0.999803 
0.0187819 0.00870538 0.999786 
0.0186085 0.0119564 0.999755 
0.0183765 0.0157683 0.999707 
0.0180715 0.0203514 0.99963 
0.0176946 0.0257947 0.999511 
0.0171745 0.0324938 0.999324 
0.0166413 0.0408257 0.999028 
0.0158482 0.0508794 0.998579 
0.0150431 0.0634445 0.997872 
0.0140945 0.078961 0.996778 
0.0127543 0.0981115 0.995094 
0.0113418 0.121538 0.992522 
0.0101446 0.150016 0.988632 
0.00841306 0.186995 0.982325 
0.00675722 0.233379 0.972362 
0.00525415 0.291157 0.956661 
0.00400833 0.360121 0.932897 
0.00349012 0.445358 0.895346 
0.00386005 0.549723 0.835338 
0.0049777 0.659293 0.751869 
0.00639795 0.776282 0.630354 
0.0100582 0.863588 0.504098 
0.00646473 0.946722 0.321988 
0.0015797 0.978123 0.208023 
-0.00387365 0.999958 -0.00827776 
-0.0108556 0.97048 -0.240939 
-0.0132086 0.910378 -0.413566 
-0.0124797 0.802004 -0.597188 
-0.011041 0.677337 -0.73559 
-0.00941774 0.571052 -0.82086 
-0.00813809 0.469341 -0.88298 
-0.00789687 0.380062 -0.924927 
-0.00839567 0.304062 -0.952615 
-0.00931539 0.242666 -0.970065 
-0.0104229 0.195631 -0.980622 
-0.0116498 0.157096 -0.987515 
-0.0128367 0.12579 -0.991974 
-0.0139342 0.100715 -0.994818 
-0.0148967 0.0807163 -0.996626 
-0.0157384 0.0646217 -0.997786 
-0.0164545 0.0516191 -0.998531 
-0.0170588 0.0410698 -0.999011 
-0.0175647 0.0324864 -0.999318 
-0.0179787 0.0256613 -0.999509 
-0.0183167 0.0199152 -0.999634 
-0.0185853 0.0153224 -0.99971 
-0.0187491 0.0113376 -0.99976 
-0.0189565 0.00804558 -0.999788 
-0.0190892 0.00522146 -0.999804 
-0.0190994 0.0026591 -0.999814 
-0.0191355 0.000281936 -0.999817 
-0.0191022 -0.00205599 -0.999815 
-0.0190057 -0.00439427 -0.99981 
-0.0188634 -0.00681911 -0.999799 
-0.0185888 -0.00927569 -0.999784 
-0.0183185 -0.0118652 -0.999762 
-0.0179453 -0.0145342 -0.999733 
-0.0174582 -0.017307 -0.999698 
-0.0167283 -0.0200116 -0.99966 
-0.0157111 -0.0221751 -0.999631 
-0.0142539 -0.0229274 -0.999636 
-0.0120085 -0.0226413 -0.999672 
-0.00897502 -0.0174103 -0.999808 
-7.27719e-05 6.48204e-05 -1 
0.00578602 -0.0100794 0.999932 
0.0104976 -0.021003 0.999724 
0.0132577 -0.0220831 0.999668 
0.0148756 -0.0223928 0.999639 
0.0160231 -0.0215415 0.99964 
0.0161045 -0.0200544 0.999669 
0.0174895 -0.0160862 0.999718 
0.0177772 -0.0135386 0.99975 
0.0179807 -0.0109647 0.999778 
0.0182031 -0.00845441 0.999799 
0.0183994 -0.00597562 0.999813 
0.0185677 -0.00355797 0.999821 
0.0187067 -0.00118508 0.999824 
0.0187429 0.00116958 0.999824 
0.0188014 0.00362022 0.999817 
0.0186813 0.00623051 0.999806 
0.0186029 0.00910092 0.999786 
0.0183878 0.0124324 0.999754 
0.0181235 0.0163685 0.999702 
0.0177649 0.0210274 0.999621 
0.0174012 0.0266294 0.999494 
0.0167865 0.0333484 0.999303 
0.0161776 0.0415458 0.999006 
0.0153049 0.0518156 0.998539 
0.0144162 0.0644003 0.99782 
0.0133208 0.0801287 0.996696 
0.0116805 0.100077 0.994911 
0.0100583 0.12641 0.991927 
0.00852323 0.158835 0.987268 
0.00648925 0.199993 0.979776 
0.00463408 0.250051 0.968222 
0.00294384 0.307283 0.951614 
0.00187901 0.383831 0.923401 
0.00211847 0.476297 0.879282 
0.00360026 0.579862 0.814707 
0.00677344 0.692779 0.721118 
0.0109067 0.784796 0.619659 
0.0187525 0.893896 0.447882 
0.0125357 0.959933 0.279948 
0.000209208 0.996095 0.0882822 
-0.0119808 0.991071 -0.132797 
-0.0231974 0.942251 -0.334103 
-0.0196126 0.861796 -0.506876 
-0.0162034 0.749532 -0.66177 
-0.0128978 0.639411 -0.768757 
-0.00961666 0.531145 -0.847226 
-0.00802361 0.437525 -0.899171 
-0.00764957 0.354889 -0.934877 
-0.00805943 0.286757 -0.95797 
-0.00880414 0.232431 -0.972573 
-0.00998788 0.187278 -0.982256 
-0.0112823 0.150847 -0.988493 
-0.0125135 0.121241 -0.992544 
-0.0136106 0.0978849 -0.995105 
-0.0145784 0.0788559 -0.996779 
-0.0154298 0.0634234 -0.997867 
-0.0161676 0.0508045 -0.998578 
-0.0168139 0.0404476 -0.99904 
-0.0173089 0.0323233 -0.999328 
-0.0178211 0.025378 -0.999519 
-0.0181385 0.0199247 -0.999637 
-0.0185233 0.0152127 -0.999713 
-0.0186157 0.0114231 -0.999761 
-0.0188302 0.00818844 -0.999789 
-0.0189176 0.00525714 -0.999807 
-0.0190057 0.0026986 -0.999816 
-0.0190281 0.000284244 -0.999819 
-0.0189512 -0.00207679 -0.999818 
-0.0188423 -0.00446128 -0.999813 
-0.0186535 -0.00685843 -0.999802 
-0.0184523 -0.0093354 -0.999786 
-0.0181041 -0.011858 -0.999766 
-0.0176668 -0.0145046 -0.999739 
-0.0170916 -0.0172066 -0.999706 
-0.0163718 -0.020012 -0.999666 
-0.0153517 -0.0222789 -0.999634 
-0.0138173 -0.0229951 -0.99964 
-0.0116219 -0.0226213 -0.999677 
-0.00864893 -0.0171083 -0.999816 
-0.000142125 5.88821e-05 -1 
-5.44366e-05 7.89105e-05 1 
0.00797691 -0.017425 0.999816 
0.0112936 -0.0223163 0.999687 
0.0128756 -0.0225837 0.999662 
0.0145677 -0.0218252 0.999656 
0.0144123 -0.0191445 0.999713 
0.016359 -0.0171208 0.99972 
0.0163354 -0.0144542 0.999762 
0.0164294 -0.01183 0.999795 
0.0166735 -0.00924916 0.999818 
0.016922 -0.00672799 0.999834 
0.0170951 -0.00421234 0.999845 
0.0172669 -0.0017377 0.999849 
0.0173205 0.000682284 0.99985 
0.0173138 0.00316363 0.999845 
0.0172434 0.00584294 0.999834 
0.0171246 0.00880779 0.999815 
0.0169003 0.0121241 0.999784 
0.0166135 0.0161171 0.999732 
0.0161613 0.0209034 0.999651 
0.0157436 0.0265898 0.999522 
0.0151819 0.033816 0.999313 
0.0144314 0.0425623 0.99899 
0.0135239 0.0534234 0.99848 
0.0126152 0.0662751 0.997722 
0.0114926 0.082102 0.996558 
0.00960049 0.104897 0.994437 
0.00778262 0.131353 0.991305 
0.00645557 0.162179 0.98674 
0.00409211 0.203398 0.979088 
0.0018366 0.248408 0.968654 
-0.000317366 0.303681 0.952774 
-0.00132572 0.371711 0.928348 
-0.00114128 0.464756 0.885438 
0.000954905 0.570388 0.821375 
0.00577975 0.678317 0.734747 
0.0165806 0.802249 0.596759 
0.0355141 0.931574 0.361813 
0.0196979 0.983231 0.181297 
-0.00822243 0.999621 -0.0262703 
-0.0378489 0.966631 -0.25336 
-0.0319554 0.87376 -0.485306 
-0.022672 0.780748 -0.624434 
-0.0157889 0.67424 -0.738343 
-0.0095696 0.556881 -0.830537 
-0.00683099 0.456852 -0.889516 
-0.00620011 0.37579 -0.926684 
-0.00632262 0.30439 -0.952527 
-0.00685113 0.247178 -0.968946 
-0.00806386 0.19807 -0.980155 
-0.00946456 0.158452 -0.987321 
-0.0107902 0.127197 -0.991819 
-0.0119067 0.101944 -0.994719 
-0.0129028 0.0821945 -0.996533 
-0.0137755 0.0659826 -0.997726 
-0.0145484 0.0528491 -0.998497 
-0.0152333 0.0420765 -0.998998 
-0.0156659 0.0333629 -0.999321 
-0.0163192 0.0264297 -0.999517 
-0.0165517 0.0206714 -0.999649 
-0.0170459 0.0159387 -0.999728 
-0.0170973 0.0120087 -0.999782 
-0.0173519 0.00859139 -0.999813 
-0.0175438 0.00568717 -0.99983 
-0.0175472 0.00298934 -0.999842 
-0.0175037 0.000545212 -0.999847 
-0.0174478 -0.0018888 -0.999846 
-0.017367 -0.00430787 -0.99984 
-0.0172039 -0.00675242 -0.999829 
-0.0169455 -0.0092107 -0.999814 
-0.0166338 -0.0117263 -0.999793 
-0.0162016 -0.0143737 -0.999765 
-0.0156754 -0.0171156 -0.999731 
-0.014999 -0.0199119 -0.999689 
-0.0141114 -0.0222998 -0.999652 
-0.0128396 -0.0231024 -0.999651 
-0.0107786 -0.022711 -0.999684 
-0.00819578 -0.0175351 -0.999813 
-0.000108983 6.00936e-05 -1 
0.000175345 -9.73908e-06 1 
0.00705177 -0.0171125 0.999829 
0.00984421 -0.0224751 0.999699 
0.0110634 -0.0228901 0.999677 
0.0127395 -0.0223064 0.99967 
0.0124611 -0.020327 0.999716 
0.0142575 -0.0164377 0.999763 
0.0141873 -0.0137625 0.999805 
0.0143905 -0.0111007 0.999835 
0.0146661 -0.00853189 0.999856 
0.0149177 -0.00600222 0.999871 
0.0150837 -0.00346256 0.99988 
0.0151894 -0.00100675 0.999884 
0.0152172 0.00144788 0.999883 
0.0152094 0.00402267 0.999876 
0.0151148 0.00679717 0.999863 
0.0149092 0.00983124 0.999841 
0.0147099 0.0134038 0.999802 
0.0143727 0.0176376 0.999741 
0.0138945 0.0228134 0.999643 
0.0134762 0.0289195 0.999491 
0.0128619 0.0366517 0.999245 
0.0120606 0.0458945 0.998873 
0.011048 0.0577142 0.998272 
0.010091 0.0716582 0.997378 
0.00896156 0.0893309 0.995962 
0.00677053 0.113801 0.993481 
0.00459055 0.141838 0.989879 
0.00346041 0.170664 0.985323 
0.000519187 0.20804 0.97812 
-0.00232454 0.25379 0.967256 
-0.00521977 0.314657 0.949191 
-0.00635566 0.394146 0.919026 
-0.00695862 0.487671 0.873 
-0.00446106 0.596882 0.802317 
0.00527772 0.715375 0.698721 
0.0323554 0.849909 0.525935 
-0.0500792 0.888111 -0.456892 
-0.0263033 0.77026 -0.637187 
-0.0115376 0.644135 -0.764825 
-0.00483125 0.532059 -0.846694 
-0.00291855 0.438719 -0.898619 
-0.00323557 0.360482 -0.93276 
-0.00368878 0.295259 -0.95541 
-0.0048552 0.235895 -0.971766 
-0.00639865 0.187865 -0.982174 
-0.00787311 0.150243 -0.988618 
-0.00921545 0.120499 -0.992671 
-0.0102132 0.0970013 -0.995232 
-0.011199 0.0780656 -0.996885 
-0.0120188 0.0626286 -0.997965 
-0.0127743 0.0499868 -0.998668 
-0.0133528 0.0398936 -0.999115 
-0.0137434 0.0315405 -0.999408 
-0.0143108 0.0251251 -0.999582 
-0.0145584 0.0195168 -0.999704 
-0.0150202 0.0151115 -0.999773 
-0.0150336 0.0111016 -0.999825 
-0.015277 0.00788447 -0.999852 
-0.015501 0.00502978 -0.999867 
-0.01539 0.00246011 -0.999879 
-0.0153825 -3.33997e-05 -0.999882 
-0.0153098 -0.00247596 -0.99988 
-0.0152208 -0.00489163 -0.999872 
-0.0150327 -0.00731162 -0.99986 
-0.0147594 -0.00975785 -0.999843 
-0.0144631 -0.0122752 -0.99982 
-0.0140357 -0.0149211 -0.99979 
-0.0135241 -0.0176523 -0.999753 
-0.0128865 -0.0204269 -0.999708 
-0.0120615 -0.0226342 -0.999671 
-0.0109336 -0.0232719 -0.999669 
-0.00916081 -0.022813 -0.999698 
-0.00708907 -0.0170169 -0.99983 
-9.50216e-05 5.8098e-05 -1 
6.11771e-05 9.71871e-05 1 
0.00595132 -0.0171917 0.999835 
0.00825872 -0.0226802 0.999709 
0.00927018 -0.0230696 0.999691 
0.0107032 -0.0224002 0.999692 
0.0105146 -0.020124 0.999742 
0.0121605 -0.0174905 0.999773 
0.0120371 -0.0147295 0.999819 
0.0122232 -0.0120493 0.999853 
0.0124727 -0.00944907 0.999878 
0.0127213 -0.00690608 0.999895 
0.0129259 -0.00437561 0.999907 
0.0130004 -0.001858 0.999914 
0.0130443 0.0006072 0.999915 
0.0130746 0.00314381 0.99991 
0.0130081 0.00585276 0.999898 
0.012788 0.0088199 0.999879 
0.0126364 0.012227 0.999845 
0.0123637 0.0162426 0.999792 
0.0119802 0.0211073 0.999705 
0.0114684 0.0271344 0.999566 
0.0110191 0.0342533 0.999352 
0.0102327 0.0431595 0.999016 
0.00940282 0.0541718 0.998487 
0.00825086 0.0687254 0.997601 
0.00715322 0.0856763 0.996297 
0.00555626 0.106415 0.994306 
0.00275461 0.136665 0.990613 
0.000343522 0.173385 0.984854 
-0.00318641 0.213125 0.97702 
-0.00699847 0.267291 0.96359 
-0.0112056 0.343706 0.93901 
-0.0146794 0.425497 0.904841 
-0.0171282 0.5262 0.850188 
-0.0148871 0.641583 0.766909 
0.00660284 0.76761 0.640883 
-0.0329394 0.80198 -0.596442 
-0.00721509 0.678519 -0.734547 
0.00230596 0.552883 -0.833256 
0.00310603 0.446894 -0.894582 
0.00118 0.361136 -0.932512 
-0.000901386 0.287618 -0.957745 
0.000596928 0.259107 -0.965849 
-0.00293222 0.226237 -0.974068 
-0.00483158 0.178742 -0.983884 
-0.00645024 0.141745 -0.989882 
-0.00770971 0.113679 -0.993488 
-0.00873377 0.0906038 -0.995849 
-0.00966328 0.0724521 -0.997325 
-0.0104664 0.0574905 -0.998291 
-0.0110837 0.0456692 -0.998895 
-0.0115783 0.0361574 -0.999279 
-0.0118862 0.0283606 -0.999527 
-0.0123985 0.0224128 -0.999672 
-0.0126387 0.0171195 -0.999774 
-0.013043 0.0130287 -0.99983 
-0.0130119 0.00915206 -0.999873 
-0.0132696 0.0061042 -0.999893 
-0.013249 0.0034376 -0.999906 
-0.0132645 0.000813333 -0.999912 
-0.0132066 -0.00173807 -0.999911 
-0.0130866 -0.00427957 -0.999905 
-0.0129244 -0.0067685 -0.999894 
-0.0126982 -0.00926551 -0.999876 
-0.0124329 -0.011828 -0.999853 
-0.0120662 -0.0144821 -0.999822 
-0.0115844 -0.017272 -0.999784 
-0.01105 -0.0201147 -0.999737 
-0.0103335 -0.0225403 -0.999693 
-0.00944477 -0.0233312 -0.999683 
-0.00792293 -0.0229269 -0.999706 
-0.0061096 -0.0176719 -0.999825 
-7.73099e-05 6.04146e-05 -1 
6.01268e-05 5.2481e-05 1 
0.00483909 -0.0171163 0.999842 
0.00677685 -0.0227665 0.999718 
0.00770836 -0.0231894 0.999701 
0.00895384 -0.0224271 0.999708 
0.00870752 -0.0200199 0.999762 
0.0101744 -0.0172249 0.9998 
0.010058 -0.0143507 0.999846 
0.0102621 -0.0116053 0.99988 