# vtk DataFile Version 3.0 
Exported using Morpho https://github.com/Morpho-lang/morpho 
ASCII 
DATASET UNSTRUCTURED_GRID 

POINTS 2205 float 
-8.32618 -2.88146 0 
-8.11405 -2.88146 0 
-7.90192 -2.88146 0 
-7.68979 -2.88146 0 
-7.47765 -2.88146 0 
-7.26552 -2.88146 0 
-7.05339 -2.88146 0 
-6.84126 -2.88146 0 
-6.62913 -2.88146 0 
-6.41699 -2.88146 0 
-6.20486 -2.88146 0 
-5.99273 -2.88146 0 
-5.7806 -2.88146 0 
-5.56847 -2.88146 0 
-5.35633 -2.88146 0 
-5.1442 -2.88146 0 
-4.93207 -2.88146 0 
-4.71994 -2.88146 0 
-4.50781 -2.88146 0 
-4.29567 -2.88146 0 
-4.08354 -2.88146 0 
-3.87141 -2.88146 0 
-3.65928 -2.88146 0 
-3.44715 -2.88146 0 
-3.23501 -2.88146 0 
-3.02288 -2.88146 0 
-2.81075 -2.88146 0 
-2.59862 -2.88146 0 
-2.38649 -2.88146 0 
-2.17435 -2.88146 0 
-1.96222 -2.88146 0 
-1.75009 -2.88146 0 
-1.53796 -2.88146 0 
-1.32583 -2.88146 0 
-1.11369 -2.88146 0 
-0.901561 -2.88146 0 
-0.689429 -2.88146 0 
-0.477297 -2.88146 0 
-0.265165 -2.88146 0 
-0.053033 -2.88146 0 
0.159099 -2.88146 0 
0.371231 -2.88146 0 
0.583363 -2.88146 0 
0.795495 -2.88146 0 
1.00763 -2.88146 0 
1.21976 -2.88146 0 
1.43189 -2.88146 0 
1.64402 -2.88146 0 
1.85616 -2.88146 0 
2.06829 -2.88146 0 
2.28042 -2.88146 0 
2.49255 -2.88146 0 
2.70468 -2.88146 0 
2.91682 -2.88146 0 
3.12895 -2.88146 0 
3.34108 -2.88146 0 
3.55321 -2.88146 0 
3.76534 -2.88146 0 
3.97748 -2.88146 0 
4.18961 -2.88146 0 
4.40174 -2.88146 0 
4.61387 -2.88146 0 
4.826 -2.88146 0 
5.03814 -2.88146 0 
5.25027 -2.88146 0 
5.4624 -2.88146 0 
5.67453 -2.88146 0 
5.88666 -2.88146 0 
6.0988 -2.88146 0 
6.31093 -2.88146 0 
6.52306 -2.88146 0 
6.73519 -2.88146 0 
6.94732 -2.88146 0 
7.15946 -2.88146 0 
7.37159 -2.88146 0 
7.58372 -2.88146 0 
7.79585 -2.88146 0 
8.00798 -2.88146 0 
8.22012 -2.88146 0 
8.53831 -2.88146 0 
-8.53831 -2.74235 0 
-8.3215 -2.64409 0 
-8.08606 -2.66072 0 
-7.86088 -2.66682 0 
-7.62562 -2.66988 0 
-7.39151 -2.67068 0 
-7.16204 -2.67619 0 
-6.93131 -2.67318 0 
-6.70658 -2.66728 0 
-6.48904 -2.66876 0 
-6.26758 -2.66897 0 
-6.04879 -2.66677 0 
-5.83344 -2.66882 0 
-5.61631 -2.67002 0 
-5.40026 -2.66655 0 
-5.18897 -2.67314 0 
-4.96919 -2.66855 0 
-4.75797 -2.67267 0 
-4.53997 -2.66889 0 
-4.32758 -2.66995 0 
-4.11206 -2.66896 0 
-3.90197 -2.67022 0 
-3.68887 -2.66945 0 
-3.47802 -2.66991 0 
-3.26793 -2.67332 0 
-3.05251 -2.6712 0 
-2.84083 -2.67019 0 
-2.62687 -2.66878 0 
-2.41387 -2.67017 0 
-2.20113 -2.66829 0 
-1.98526 -2.67048 0 
-1.77132 -2.66818 0 
-1.55601 -2.67193 0 
-1.33686 -2.66815 0 
-1.1239 -2.67091 0 
-0.909048 -2.67363 0 
-0.691559 -2.67602 0 
-0.476102 -2.66061 0 
-0.271998 -2.66981 0 
-0.0523306 -2.66505 0 
0.161924 -2.66509 0 
0.375377 -2.66341 0 
0.588203 -2.66345 0 
0.815004 -2.67903 0 
1.02441 -2.66821 0 
1.24723 -2.67952 0 
1.46417 -2.67734 0 
1.67808 -2.67399 0 
1.8967 -2.6774 0 
2.10814 -2.67073 0 
2.32309 -2.6722 0 
2.53382 -2.66846 0 
2.74801 -2.67093 0 
2.96018 -2.66869 0 
3.17227 -2.66818 0 
3.38442 -2.66861 0 
3.59696 -2.6691 0 
3.80962 -2.66977 0 
4.02215 -2.6701 0 
4.23372 -2.66908 0 
4.44684 -2.67086 0 
4.65875 -2.67002 0 
4.87008 -2.66989 0 
5.0871 -2.67471 0 
5.29633 -2.6682 0 
5.50738 -2.66906 0 
5.71721 -2.66794 0 
5.92723 -2.66835 0 
6.13713 -2.66883 0 
6.34832 -2.66965 0 
6.56409 -2.67313 0 
6.77275 -2.66595 0 
6.98785 -2.67054 0 
7.20349 -2.66978 0 
7.41808 -2.66568 0 
7.63423 -2.66325 0 
7.84958 -2.65621 0 
8.0665 -2.65034 0 
8.31377 -2.72348 0 
8.53831 -2.66933 0 
-8.53831 -2.50076 0 
-8.27113 -2.43923 0 
-8.04713 -2.43994 0 
-7.80998 -2.46792 0 
-7.56238 -2.471 0 
-7.3222 -2.46792 0 
-7.08974 -2.4766 0 
-6.86013 -2.46517 0 
-6.64055 -2.45125 0 
-6.42027 -2.46091 0 
-6.20121 -2.45706 0 
-5.98548 -2.45242 0 
-5.76974 -2.45897 0 
-5.55635 -2.45787 0 
-5.34418 -2.45138 0 
-5.12811 -2.46923 0 
-4.91414 -2.45418 0 
-4.69921 -2.467 0 
-4.48512 -2.4557 0 
-4.26888 -2.46217 0 
-4.06069 -2.45309 0 
-3.85048 -2.45938 0 
-3.64154 -2.45574 0 
-3.43478 -2.45631 0 
-3.22246 -2.46666 0 
-3.01433 -2.45766 0 
-2.80211 -2.45961 0 
-2.58879 -2.45714 0 
-2.38156 -2.45533 0 
-2.16148 -2.46182 0 
-1.95275 -2.45658 0 
-1.73507 -2.45816 0 
-1.51762 -2.4648 0 
-1.30553 -2.45307 0 
-1.09496 -2.45858 0 
-0.880359 -2.46549 0 
-0.662575 -2.47141 0 
-0.458097 -2.42912 0 
-0.244447 -2.45971 0 
-0.0333708 -2.44746 0 
0.177106 -2.44613 0 
0.378317 -2.43091 0 
0.577309 -2.44407 0 
0.789212 -2.47885 0 
1.00741 -2.45047 0 
1.21625 -2.47855 0 
1.4345 -2.47261 0 
1.64742 -2.46624 0 
1.86148 -2.47519 0 
2.07598 -2.45956 0 
2.28691 -2.46411 0 
2.49847 -2.45402 0 
2.70757 -2.45993 0 
2.9179 -2.45571 0 
3.12819 -2.45456 0 
3.33813 -2.45463 0 
3.54826 -2.45628 0 
3.75924 -2.45743 0 
3.97068 -2.45848 0 
4.18146 -2.45661 0 
4.3941 -2.46036 0 
4.60642 -2.45877 0 
4.81851 -2.45788 0 
5.03403 -2.47086 0 
5.24923 -2.45514 0 
5.4606 -2.45657 0 
5.67148 -2.4539 0 
5.88176 -2.45437 0 
6.09179 -2.45486 0 
6.30213 -2.45808 0 
6.51782 -2.468 0 
6.73374 -2.45126 0 
6.94888 -2.46148 0 
7.16775 -2.46128 0 
7.38827 -2.45393 0 
7.61047 -2.45001 0 
7.83485 -2.43802 0 
8.06215 -2.43177 0 
8.29512 -2.51265 0 
8.53831 -2.4572 0 
-8.53831 -2.26778 0 
-8.31967 -2.26126 0 
-8.05233 -2.21526 0 
-7.82929 -2.25916 0 
-7.59857 -2.28241 0 
-7.33831 -2.27211 0 
-7.08923 -2.27408 0 
-6.86988 -2.25192 0 
-6.64454 -2.24138 0 
-6.4209 -2.2502 0 
-6.20386 -2.24358 0 
-5.98932 -2.23709 0 
-5.77531 -2.24735 0 
-5.55995 -2.24462 0 
-5.3491 -2.23426 0 
-5.14017 -2.26105 0 
-4.9215 -2.24641 0 
-4.70487 -2.2586 0 
-4.49777 -2.23739 0 
-4.29221 -2.25596 0 
-4.07665 -2.23659 0 
-3.87054 -2.24525 0 
-3.66401 -2.24129 0 
-3.45761 -2.23854 0 
-3.25402 -2.25509 0 
-3.04892 -2.24294 0 
-2.84233 -2.24827 0 
-2.63133 -2.24816 0 
-2.41917 -2.23636 0 
-2.20923 -2.26028 0 
-1.99154 -2.23963 0 
-1.78111 -2.2527 0 
-1.55598 -2.25597 0 
-1.34107 -2.24061 0 
-1.12459 -2.23946 0 
-0.914816 -2.25156 0 
-0.699372 -2.26276 0 
-0.474874 -2.21703 0 
-0.252721 -2.24209 0 
-0.0375814 -2.22833 0 
0.172204 -2.21865 0 
0.380755 -2.20494 0 
0.589572 -2.21329 0 
0.793391 -2.26884 0 
0.99849 -2.22735 0 
1.20683 -2.26383 0 
1.41673 -2.26888 0 
1.63523 -2.25709 0 
1.85003 -2.26949 0 
2.06428 -2.25104 0 
2.27799 -2.254 0 
2.48893 -2.24081 0 
2.69846 -2.24573 0 
2.90739 -2.24233 0 
3.11771 -2.24088 0 
3.32814 -2.24054 0 
3.53848 -2.24131 0 
3.74793 -2.24485 0 
3.95953 -2.24583 0 
4.17026 -2.24373 0 
4.38185 -2.24981 0 
4.59514 -2.24787 0 
4.80806 -2.24667 0 
5.02273 -2.26449 0 
5.23703 -2.24582 0 
5.45136 -2.24468 0 
5.66343 -2.24097 0 
5.87476 -2.24076 0 
6.08519 -2.24092 0 
6.29527 -2.24435 0 
6.50635 -2.26124 0 
6.71567 -2.23737 0 
6.9304 -2.25142 0 
7.14837 -2.25364 0 
7.36921 -2.24608 0 
7.59504 -2.24151 0 
7.82366 -2.22755 0 
8.05808 -2.22031 0 
8.29696 -2.29963 0 
8.53831 -2.24506 0 
-8.4215 -2.03548 0 
-8.19255 -2.05033 0 
-7.90887 -2.02236 0 
-7.69118 -2.05834 0 
-7.45736 -2.09849 0 
-7.35592 -1.92749 0 
-7.1794 -2.08677 0 
-6.94457 -2.04271 0 
-6.72002 -2.03634 0 
-6.48636 -2.03848 0 
-6.26823 -2.03198 0 
-6.0508 -2.02421 0 
-5.83036 -2.03085 0 
-5.61772 -2.03374 0 
-5.40398 -2.02362 0 
-5.18078 -2.04014 0 
-4.97657 -2.04669 0 
-4.74546 -2.0491 0 
-4.53531 -2.02856 0 
-4.31315 -2.03747 0 
-4.10728 -2.03524 0 
-3.88107 -2.02976 0 
-3.67188 -2.027 0 
-3.4612 -2.02476 0 
-3.25037 -2.03835 0 
-3.04116 -2.02804 0 
-2.8267 -2.03895 0 
-2.61243 -2.03844 0 
-2.40189 -2.0244 0 
-2.18562 -2.05303 0 
-1.96853 -2.02636 0 
-1.74004 -2.05613 0 
-1.52479 -2.04123 0 
-1.3045 -2.02824 0 
-1.09351 -2.01837 0 
-0.880092 -2.03741 0 
-0.663627 -2.0541 0 
-0.466803 -1.96693 0 
-0.275449 -2.02368 0 
-0.0661078 -2.01194 0 
0.151521 -1.99576 0 
0.364763 -1.97554 0 
0.573999 -1.98387 0 
0.788345 -2.04382 0 
1.00293 -2.00809 0 
1.21707 -2.0474 0 
1.43333 -2.06048 0 
1.64456 -2.04113 0 
1.8537 -2.06174 0 
2.06203 -2.03598 0 
2.27236 -2.04445 0 
2.48415 -2.02901 0 
2.69714 -2.03137 0 
2.90878 -2.029 0 
3.11992 -2.02798 0 
3.33128 -2.02634 0 
3.542 -2.02766 0 
3.75548 -2.03261 0 
3.96522 -2.03292 0 
4.17915 -2.03198 0 
4.39212 -2.03959 0 
4.60546 -2.03678 0 
4.81265 -2.02867 0 
5.01815 -2.05673 0 
5.22458 -2.02919 0 
5.43262 -2.03491 0 
5.64572 -2.0296 0 
5.85859 -2.02849 0 
6.07035 -2.02775 0 
6.28155 -2.03061 0 
6.49408 -2.04846 0 
6.71085 -2.02816 0 
6.92876 -2.04194 0 
7.14772 -2.04469 0 
7.36634 -2.0335 0 
7.58706 -2.03361 0 
7.82267 -2.02114 0 
8.06128 -2.01401 0 
8.29946 -2.08889 0 
8.53831 -2.03293 0 
-8.53831 -1.83123 0 
-8.30475 -1.81744 0 
-8.07041 -1.85959 0 
-7.82823 -1.8031 0 
-7.60211 -1.86433 0 
-7.36407 -1.73309 0 
-7.11557 -1.8715 0 
-6.88015 -1.8273 0 
-6.64558 -1.83593 0 
-6.42648 -1.82027 0 
-6.21095 -1.81547 0 
-5.98716 -1.81728 0 
-5.77429 -1.8152 0 
-5.56474 -1.81718 0 
-5.33604 -1.82731 0 
-5.13384 -1.81735 0 
-4.91107 -1.85419 0 
-4.70413 -1.8279 0 
-4.47708 -1.83056 0 
-4.27204 -1.81672 0 
-4.05195 -1.83621 0 
-3.84152 -1.8134 0 
-3.63211 -1.81333 0 
-3.42037 -1.81489 0 
-3.21741 -1.82216 0 
-3.01915 -1.80146 0 
-2.8238 -1.83074 0 
-2.62156 -1.8224 0 
-2.41084 -1.80791 0 
-2.1989 -1.84772 0 
-1.9848 -1.81426 0 
-1.76801 -1.85579 0 
-1.54429 -1.82908 0 
-1.328 -1.81955 0 
-1.10651 -1.79571 0 
-0.892566 -1.81464 0 
-0.680498 -1.83495 0 
-0.464223 -1.74048 0 
-0.251645 -1.78937 0 
-0.0371263 -1.79103 0 
0.175922 -1.76783 0 
0.387163 -1.74301 0 
0.585632 -1.73803 0 
0.783446 -1.82445 0 
0.987166 -1.77762 0 
1.20123 -1.82902 0 
1.41643 -1.84588 0 
1.63097 -1.82682 0 
1.84713 -1.84594 0 
2.06293 -1.82286 0 
2.27355 -1.83257 0 
2.4894 -1.81842 0 
2.70252 -1.81909 0 
2.91067 -1.81229 0 
3.11903 -1.81463 0 
3.33281 -1.81478 0 
3.54881 -1.81691 0 
3.75839 -1.81901 0 
3.97454 -1.82305 0 
4.18637 -1.81914 0 
4.39708 -1.82866 0 
4.60655 -1.82085 0 
4.81612 -1.81348 0 
5.02509 -1.84016 0 
5.23732 -1.81428 0 
5.44874 -1.82328 0 
5.66319 -1.81902 0 
5.87566 -1.81668 0 
6.08751 -1.81559 0 
6.30018 -1.81974 0 
6.51223 -1.83936 0 
6.72739 -1.81484 0 
6.93971 -1.83416 0 
7.15523 -1.83224 0 
7.3721 -1.81845 0 
7.60397 -1.82935 0 
7.83889 -1.81407 0 
8.07092 -1.80241 0 
8.30247 -1.87735 0 
8.53831 -1.8208 0 
-8.53831 -1.61365 0 
[...]
POINT_DATA 2205 
VECTORS vectors float
8.07356e-06 -0.000458006 1 
4.78591e-05 -0.0147346 0.999891 
-5.50935e-05 -0.0186284 0.999826 
-2.12753e-05 -0.0194436 0.999811 
-2.85676e-05 -0.018604 0.999827 
-2.70362e-05 -0.0167333 0.99986 
-2.7434e-05 -0.0146255 0.999893 
-2.73193e-05 -0.0124859 0.999922 
-2.74003e-05 -0.0102965 0.999947 
-2.73776e-05 -0.00805545 0.999968 
-2.74198e-05 -0.00579531 0.999983 
-2.74432e-05 -0.00354735 0.999994 
-2.72839e-05 -0.00132896 0.999999 
-2.77258e-05 0.000891659 1 
-2.69816e-05 0.00321094 0.999995 
-2.78624e-05 0.00571297 0.999984 
-2.67824e-05 0.00853756 0.999964 
-2.76253e-05 0.0118248 0.99993 
-2.66899e-05 0.0157401 0.999876 
-2.70765e-05 0.0204965 0.99979 
-2.64879e-05 0.0263235 0.999653 
-2.63181e-05 0.033515 0.999438 
-2.59382e-05 0.042431 0.999099 
-2.53808e-05 0.0535152 0.998567 
-2.48584e-05 0.0672935 0.997733 
-2.39722e-05 0.0844583 0.996427 
-2.31876e-05 0.105824 0.994385 
-2.16839e-05 0.132399 0.991197 
-2.0675e-05 0.165358 0.986234 
-1.82136e-05 0.206106 0.97853 
-1.67043e-05 0.256154 0.966636 
-1.33326e-05 0.317139 0.948379 
-1.05906e-05 0.39042 0.920637 
-7.50653e-06 0.476854 0.878983 
-2.22662e-06 0.5755 0.817802 
-2.04063e-06 0.683037 0.730384 
2.96935e-06 0.792374 0.610036 
2.84265e-06 0.889775 0.456399 
8.54199e-07 0.963804 0.266611 
1.34125e-06 0.998484 0.0550475 
-1.53857e-06 0.986938 -0.161103 
-2.54801e-06 0.931527 -0.363673 
-2.41445e-06 0.843665 -0.536871 
-8.24533e-07 0.73808 -0.674713 
1.43596e-06 0.628786 -0.777579 
5.62908e-06 0.524949 -0.851133 
8.5553e-06 0.432262 -0.901748 
1.21539e-05 0.35248 -0.935819 
1.52115e-05 0.285471 -0.958387 
1.72712e-05 0.230108 -0.973165 
1.97296e-05 0.184863 -0.982764 
2.0993e-05 0.148146 -0.988965 
2.26354e-05 0.118499 -0.992954 
2.3482e-05 0.0946486 -0.995511 
2.44683e-05 0.0754687 -0.997148 
2.5106e-05 0.060059 -0.998195 
2.56759e-05 0.047677 -0.998863 
2.60608e-05 0.0377183 -0.999288 
2.65335e-05 0.029697 -0.999559 
2.66662e-05 0.0232116 -0.999731 
2.69381e-05 0.0179374 -0.999839 
2.72367e-05 0.0136192 -0.999907 
2.7038e-05 0.0100199 -0.99995 
2.76159e-05 0.00697306 -0.999976 
2.71348e-05 0.00431637 -0.999991 
2.7655e-05 0.00190234 -0.999998 
2.73521e-05 -0.000371092 -1 
2.74226e-05 -0.00261115 -0.999997 
2.76143e-05 -0.00487863 -0.999988 
2.71679e-05 -0.00720817 -0.999974 
2.77012e-05 -0.00956033 -0.999954 
2.72034e-05 -0.0119023 -0.999929 
2.72349e-05 -0.0142179 -0.999899 
2.8171e-05 -0.0165278 -0.999863 
2.47581e-05 -0.0188589 -0.999822 
3.30032e-05 -0.0209298 -0.999781 
2.03664e-05 -0.0216362 -0.999766 
2.09069e-05 -0.0212624 -0.999774 
7.04557e-05 -0.0190805 -0.999818 
-7.05611e-05 -0.000709443 -1 
1.7401e-05 0.000250141 1 
0.00562706 -0.00944211 0.99994 
0.00802883 -0.0163901 0.999833 
0.00904339 -0.0186936 0.999784 
0.00960401 -0.0186753 0.999779 
0.00991807 -0.0174903 0.999798 
0.0100261 -0.0154709 0.99983 
0.010313 -0.0131634 0.99986 
0.0106363 -0.0108769 0.999884 
0.010715 -0.00864763 0.999905 
0.0107784 -0.00635337 0.999922 
0.0109202 -0.00408278 0.999932 
0.0109237 -0.0018559 0.999939 
0.0109348 0.000407021 0.99994 
0.0110615 0.0027446 0.999935 
0.0108805 0.00520613 0.999927 
0.0109546 0.00807649 0.999907 
0.0107988 0.0112772 0.999878 
0.0108093 0.0152061 0.999826 
0.0106825 0.0198483 0.999746 
0.0105645 0.0256287 0.999616 
0.0103786 0.0325751 0.999415 
0.0101924 0.0413039 0.999095 
0.00992037 0.0520276 0.998596 
0.00952112 0.0652863 0.997821 
0.00915751 0.0822365 0.996571 
0.00874205 0.10298 0.994645 
0.00823817 0.129075 0.991601 
0.00759232 0.16135 0.986868 
0.00695648 0.201229 0.979519 
0.00612491 0.251061 0.967952 
0.00531227 0.311387 0.950268 
0.00435188 0.384573 0.923084 
0.00344649 0.47284 0.881141 
0.00253603 0.571054 0.820909 
0.00169993 0.679284 0.733873 
0.000993139 0.790531 0.612421 
0.000582081 0.890991 0.45402 
0.000232015 0.961908 0.273372 
8.24686e-05 0.998511 0.0545466 
-7.57351e-05 0.986374 -0.164519 
-0.000283683 0.929743 -0.368209 
-0.000653734 0.841343 -0.5405 
-0.00117106 0.728332 -0.685224 
-0.0020285 0.620786 -0.783977 
-0.00285054 0.513039 -0.858361 
-0.00383762 0.420136 -0.907453 
-0.00481966 0.3418 -0.93976 
-0.00568553 0.274918 -0.961451 
-0.00658247 0.221635 -0.975107 
-0.00729978 0.177548 -0.984085 
-0.00797573 0.142445 -0.989771 
-0.00848296 0.113703 -0.993479 
-0.00900831 0.0908136 -0.995827 
-0.00943052 0.0724102 -0.99733 
-0.00975874 0.0576136 -0.998291 
-0.0100403 0.0456998 -0.998905 
-0.0102706 0.0361123 -0.999295 
-0.0104733 0.0283909 -0.999542 
-0.0106714 0.0221715 -0.999697 
-0.0107581 0.0170675 -0.999796 
-0.010889 0.0128978 -0.999858 
-0.0109681 0.00942536 -0.999895 
-0.010906 0.00638578 -0.99992 
-0.0111337 0.00380961 -0.999931 
-0.0111406 0.00143738 -0.999937 
-0.0111627 -0.000801583 -0.999937 
-0.0111329 -0.00300838 -0.999934 
-0.0110706 -0.00522974 -0.999925 
-0.0109814 -0.00749891 -0.999912 
-0.0108278 -0.00983833 -0.999893 
-0.0108914 -0.0120835 -0.999868 
-0.0105933 -0.0144158 -0.99984 
-0.010378 -0.016739 -0.999806 
-0.010169 -0.0188541 -0.999771 
-0.0098016 -0.0203502 -0.999745 
-0.00917937 -0.0209963 -0.999737 
-0.00783771 -0.0201341 -0.999767 
-0.00440293 -0.013621 -0.999898 
0.000161079 0.000226518 -1 
0.000140205 -0.000162786 1 
0.0089645 -0.0139297 0.999863 
0.0117758 -0.0186493 0.999757 
0.0129526 -0.0186527 0.999742 
0.0138885 -0.0181906 0.999738 
0.0145708 -0.0168135 0.999752 
0.0148976 -0.0146359 0.999782 
0.0152443 -0.0122744 0.999808 
0.0155386 -0.0100378 0.999829 
0.0156347 -0.00783801 0.999847 
0.0157779 -0.00560358 0.99986 
0.0159014 -0.00339866 0.999868 
0.0159355 -0.00118307 0.999872 
0.0160228 0.00106492 0.999871 
0.0160673 0.00341143 0.999865 
0.0158766 0.00602417 0.999856 
0.0159589 0.00893647 0.999833 
0.0157467 0.0123813 0.999799 
0.0156741 0.0164393 0.999742 
0.015428 0.0214636 0.999651 
0.0153023 0.0274023 0.999507 
0.0149427 0.0347525 0.999284 
0.0146442 0.0438028 0.998933 
0.0142423 0.0548838 0.998391 
0.0136517 0.0689605 0.997526 
0.013151 0.0861231 0.996198 
0.0124312 0.107822 0.994092 
0.0116753 0.134939 0.990785 
0.0108274 0.167602 0.985795 
0.00980314 0.210447 0.977556 
0.00882236 0.260397 0.965461 
0.00767187 0.323742 0.946114 
0.00644906 0.399969 0.916506 
0.0053912 0.487479 0.873118 
0.00424787 0.586096 0.81023 
0.00314428 0.694838 0.719159 
0.0021577 0.805826 0.592148 
0.00162944 0.898229 0.439524 
0.000817267 0.969239 0.246118 
0.000250991 0.999397 0.0347279 
-0.00033218 0.983736 -0.179619 
-0.000987578 0.929069 -0.369905 
-0.00166963 0.846861 -0.531811 
-0.00235578 0.742693 -0.669628 
-0.00360081 0.629856 -0.776703 
-0.00455744 0.528298 -0.849047 
-0.00584969 0.433085 -0.901334 
-0.00711267 0.353169 -0.935532 
-0.00822945 0.286097 -0.958165 
-0.00939818 0.229703 -0.973215 
-0.0103776 0.185315 -0.982624 
-0.0113023 0.148348 -0.988871 
-0.0120641 0.119252 -0.992791 
-0.0127979 0.0954995 -0.995347 
-0.0134135 0.0763507 -0.996991 
-0.013941 0.0609429 -0.998044 
-0.0143881 0.0485157 -0.998719 
-0.0147719 0.038459 -0.999151 
-0.0150938 0.0303291 -0.999426 
-0.0153876 0.023772 -0.999599 
-0.0155709 0.0183858 -0.99971 
-0.0157698 0.0139768 -0.999778 
-0.0159229 0.0103134 -0.99982 
-0.0158992 0.0071664 -0.999848 
-0.0160941 0.00441138 -0.999861 
-0.0161068 0.0019803 -0.999868 
-0.016136 -0.000300714 -0.99987 
-0.0161046 -0.00251338 -0.999867 
-0.0160517 -0.00471077 -0.99986 
-0.0159427 -0.00692438 -0.999849 
-0.0157142 -0.00922603 -0.999834 
-0.0156653 -0.0114817 -0.999811 
-0.0153067 -0.0138149 -0.999787 
-0.0149491 -0.016184 -0.999757 
-0.0144747 -0.0183148 -0.999727 
-0.0137187 -0.0197121 -0.999712 
-0.0126499 -0.0205105 -0.99971 
-0.010945 -0.0203162 -0.999734 
-0.0069996 -0.0142496 -0.999874 
-0.000338859 -6.42058e-06 -1 
-4.98661e-05 -5.79708e-05 1 
0.0077167 -0.0133994 0.99988 
0.0110397 -0.0191559 0.999756 
0.0127319 -0.0187366 0.999743 
0.0140442 -0.0182643 0.999735 
0.0148261 -0.016932 0.999747 
0.0152977 -0.0145361 0.999777 
0.0155253 -0.0122877 0.999804 
0.0157628 -0.0100309 0.999825 
0.0159605 -0.0077678 0.999842 
0.0161189 -0.00560376 0.999854 
0.0162443 -0.00344631 0.999862 
0.0163396 -0.00124223 0.999866 
0.0163561 0.00103866 0.999866 
0.0163811 0.00339832 0.99986 
0.0163967 0.00591833 0.999848 
0.0163307 0.0089347 0.999827 
0.0161973 0.0123724 0.999792 
0.0160174 0.0163701 0.999738 
0.0158447 0.0210559 0.999653 
0.0155153 0.0271152 0.999512 
0.0152121 0.0342276 0.999298 
0.0148238 0.0430194 0.998964 
0.0143793 0.0538753 0.998444 
0.013947 0.0671154 0.997648 
0.0133017 0.083423 0.996425 
0.0126687 0.103815 0.994516 
0.0119213 0.129518 0.991505 
0.0110547 0.16147 0.986816 
0.0102987 0.20111 0.979515 
0.00932578 0.250843 0.967983 
0.00843522 0.30968 0.950803 
0.00747632 0.385912 0.922505 
0.00663747 0.47209 0.881525 
0.00579815 0.571562 0.820538 
0.00487764 0.676798 0.736153 
0.00385445 0.786844 0.617139 
0.00314643 0.891528 0.452954 
0.00178387 0.967068 0.254512 
0.000557854 0.999252 0.0386683 
-0.000769335 0.984574 -0.174966 
-0.00217594 0.928411 -0.371548 
-0.00330745 0.841179 -0.540747 
-0.00388181 0.740226 -0.672347 
-0.00509343 0.634965 -0.772524 
-0.00577881 0.53383 -0.845572 
-0.00668405 0.441122 -0.897422 
-0.00769139 0.357598 -0.933844 
-0.00867236 0.289591 -0.957111 
-0.00962495 0.233321 -0.972352 
-0.010533 0.187463 -0.982215 
-0.0113497 0.150684 -0.988517 
-0.0121443 0.121159 -0.992559 
-0.0128184 0.0970733 -0.995195 
-0.0134544 0.0776649 -0.996889 
-0.0140168 0.0619918 -0.997978 
-0.0145133 0.0493688 -0.998675 
-0.0149528 0.0392251 -0.999119 
-0.0153229 0.0309545 -0.999403 
-0.0156236 0.0242839 -0.999583 
-0.0159087 0.0188373 -0.999696 
-0.0161013 0.0143253 -0.999768 
-0.0162395 0.0105687 -0.999812 
-0.0164486 0.00738451 -0.999837 
-0.0164767 0.0046204 -0.999854 
-0.0164994 0.00211696 -0.999862 
-0.016488 -0.000202367 -0.999864 
-0.0164422 -0.00243736 -0.999862 
-0.0163566 -0.00462959 -0.999856 
-0.0162499 -0.00680932 -0.999845 
-0.0161457 -0.00901982 -0.999829 
-0.0158411 -0.0112159 -0.999812 
-0.0155874 -0.0135251 -0.999787 
-0.0151828 -0.0159152 -0.999758 
-0.0145031 -0.018045 -0.999732 
-0.0136263 -0.0194313 -0.999718 
-0.0122372 -0.020109 -0.999723 
-0.0104276 -0.0202279 -0.999741 
-0.0077647 -0.0145838 -0.999864 
6.91173e-05 -7.39158e-06 -1 
0.00400995 -0.00905851 0.999951 
0.00895288 -0.0172404 0.999811 
0.0110854 -0.0192555 0.999753 
0.0125311 -0.0186039 0.999748 
0.0137277 -0.0178577 0.999746 
0.0135904 -0.0173342 0.999757 
0.0144516 -0.0155203 0.999775 
0.0147544 -0.0130394 0.999806 
0.0150836 -0.0107474 0.999828 
0.0153707 -0.00841378 0.999846 
0.0155712 -0.00625098 0.999859 
0.0157286 -0.00408134 0.999868 
0.0158643 -0.00182602 0.999872 
0.0159422 0.00042139 0.999873 
0.0159609 0.00279228 0.999869 
0.0159718 0.00546746 0.999857 
0.0159325 0.00820539 0.999839 
0.0158068 0.0118021 0.999805 
0.01561 0.0157214 0.999755 
0.0154064 0.0207155 0.999667 
0.0151361 0.0263695 0.999538 
0.0147709 0.0340758 0.99931 
0.01438 0.0429179 0.998975 
0.0139182 0.0539334 0.998448 
0.0134079 0.0675279 0.997627 
0.012788 0.0843933 0.99635 
0.0122221 0.10611 0.994279 
0.0115041 0.13262 0.9911 
0.0107697 0.165 0.986235 
0.0100549 0.206094 0.978481 
0.00932628 0.256703 0.966445 
0.00860781 0.322797 0.946429 
0.00808311 0.397695 0.917482 
0.00763403 0.487875 0.87288 
0.00723752 0.586474 0.809936 
0.00647793 0.694562 0.719404 
0.0054391 0.805041 0.593194 
0.00500883 0.894453 0.447135 
0.00305395 0.960982 0.276595 
0.0010989 0.997619 0.0689634 
-0.00116797 0.988142 -0.15354 
-0.00338129 0.933796 -0.35779 
-0.00497916 0.847779 -0.530326 
-0.00563589 0.74241 -0.669922 
-0.00674598 0.632294 -0.774699 
-0.00708596 0.52776 -0.849364 
-0.00764635 0.434649 -0.900568 
-0.00830347 0.354924 -0.934858 
-0.00892161 0.288793 -0.95735 
-0.00963896 0.234227 -0.972134 
-0.0103567 0.188866 -0.981948 
-0.011072 0.151996 -0.988319 
-0.0117273 0.121379 -0.992537 
-0.0123723 0.0971398 -0.995194 
-0.0130236 0.0778958 -0.996876 
-0.0135615 0.0621143 -0.997977 
-0.0140553 0.0494761 -0.998676 
-0.0145049 0.0391637 -0.999128 
-0.0148775 0.0309821 -0.999409 
-0.0151771 0.0242047 -0.999592 
-0.0155123 0.0187843 -0.999703 
-0.0157026 0.0142682 -0.999775 
-0.0158456 0.0106216 -0.999818 
-0.0160552 0.00752883 -0.999843 
-0.0160973 0.00483828 -0.999859 
-0.0161296 0.00235995 -0.999867 
-0.0161047 -5.0179e-06 -0.99987 
-0.0160505 -0.00227704 -0.999869 
-0.0159444 -0.00448563 -0.999863 
-0.0157773 -0.00665216 -0.999853 
-0.0156611 -0.00885696 -0.999838 
-0.0153311 -0.0111274 -0.999821 
-0.0150421 -0.0134734 -0.999796 
-0.0145138 -0.0158388 -0.999769 
-0.0138415 -0.0180633 -0.999741 
-0.0128849 -0.0193156 -0.99973 
-0.011421 -0.0199593 -0.999736 
-0.00957965 -0.020115 -0.999752 
-0.00708902 -0.0144654 -0.99987 
-5.38662e-05 9.22503e-06 -1 
1.03449e-05 -7.53499e-05 1 
0.00637285 -0.0140506 0.999881 
0.009424 -0.0197006 0.999762 
0.0108613 -0.019195 0.999757 
0.0123935 -0.0186118 0.99975 
0.0126047 -0.0174585 0.999768 
0.0139146 -0.0148962 0.999792 
0.0140875 -0.0123713 0.999824 
0.0145246 -0.0100149 0.999844 
0.014695 -0.00784262 0.999861 
0.0148663 -0.00571534 0.999873 
0.0150423 -0.00346717 0.999881 
0.0151353 -0.00125729 0.999885 
0.0152029 0.00100405 0.999884 
0.0153021 0.00361295 0.999876 
0.0152024 0.00613617 0.999866 
0.0153228 0.00924653 0.99984 
0.0150442 0.0126433 0.999807 
0.0148875 0.0170747 0.999743 
0.0145732 0.021946 0.999653 
0.0143888 0.0282994 0.999496 
0.0139182 0.0358382 0.999261 
0.0135336 0.0450917 0.998891 
0.0131049 0.0566737 0.998307 
0.0126826 0.0704548 0.997434 
0.0120636 0.086777 0.996155 
0.0116734 0.106519 0.994242 
0.0110836 0.131608 0.99124 
0.0104641 0.163708 0.986453 
0.0100177 0.203387 0.979047 
0.00951471 0.252743 0.967487 
0.00915852 0.314133 0.949335 
0.00894719 0.38959 0.920945 
0.00888696 0.476442 0.879161 
0.00896648 0.578474 0.815652 
0.00855371 0.68621 0.727353 
0.0076228 0.795357 0.606093 
0.00705383 0.894588 0.446836 
0.00414614 0.966836 0.255364 
0.00100692 0.999227 0.039304 
-0.00230498 0.983904 -0.178681 
-0.00537162 0.925094 -0.3797 
-0.00739067 0.841829 -0.539694 
-0.00762584 0.743949 -0.668193 
-0.00867486 0.639095 -0.769079 
-0.00851804 0.534638 -0.845038 
-0.00864958 0.440351 -0.897784 
-0.00896483 0.359202 -0.933217 
-0.00923657 0.290576 -0.956807 
-0.00969712 0.23421 -0.972138 
-0.0101566 0.188442 -0.982032 
-0.0106953 0.151071 -0.988465 
-0.0112616 0.121067 -0.992581 
-0.0118042 0.097498 -0.995166 
-0.0123157 0.0780534 -0.996873 
-0.0128493 0.0622433 -0.997978 
-0.0133432 0.0493633 -0.998692 
-0.0137695 0.0392795 -0.999133 
-0.0141699 0.0308865 -0.999422 
-0.0144831 0.0242588 -0.999601 
-0.0147576 0.0187836 -0.999715 
-0.0149472 0.014377 -0.999785 
-0.0150843 0.010679 -0.999829 
-0.0153495 0.0075159 -0.999854 
-0.01529 0.00472279 -0.999872 
-0.0153748 0.00219832 -0.999879 
-0.0153404 -0.000196008 -0.999882 
-0.0152693 -0.00247867 -0.99988 
-0.0151575 -0.00469777 -0.999874 
-0.0150247 -0.00688316 -0.999863 
-0.0149209 -0.00905339 -0.999848 
-0.0145021 -0.011292 -0.999831 
-0.0142499 -0.0135554 -0.999807 
-0.0137438 -0.0159201 -0.999779 
-0.0130231 -0.0180892 -0.999752 
-0.0121719 -0.0194864 -0.999736 
-0.0106852 -0.0200576 -0.999742 
-0.00892958 -0.0200153 -0.99976 
-0.00663681 -0.0142771 -0.999876 
-5.5892e-05 5.91076e-06 -1 
0.000114719 -8.58841e-05 1 
0.00596749 -0.0141107 0.999883 
0.00851572 -0.019581 0.999772 
0.00969052 -0.0194419 0.999764 
0.0112518 -0.0187902 0.99976 
0.0110355 -0.0174104 0.999788 
0.012685 -0.015067 0.999806 
0.0125728 -0.0127742 0.999839 
0.0130915 -0.010498 0.999859 
0.0131066 -0.00822435 0.99988 
0.0132323 -0.0060632 0.999894 
0.0135015 -0.00389204 0.999901 
0.013499 -0.00157298 0.999908 
0.0135443 0.000734538 0.999908 
0.0138759 0.00317424 0.999899 
0.0134899 0.00592429 0.999891 
0.0139331 0.00879802 0.999864 
0.0134779 0.0122049 0.999835 
0.0135291 0.0162901 0.999776 
0.0129788 0.0213313 0.999688 
0.0130108 0.0273408 0.999541 
0.0124457 0.0346675 0.999321 
0.0120682 0.0438747 0.998964 
0.0117103 0.0550859 0.998413 
0.011263 0.0689617 0.997556 
0.0107322 0.0859603 0.996241 
0.0103966 0.106842 0.994222 
0.0100387 0.133606 0.990984 
0.00956225 0.165918 0.986093 
0.00947898 0.205266 0.97866 
0.00926217 0.257059 0.966351 
0.00931571 0.319642 0.947493 
0.00958535 0.394734 0.918745 
0.0100978 0.48567 0.874084 
0.0108637 0.590808 0.806739 
0.0110727 0.695759 0.71819 
0.0101093 0.800339 0.599462 
0.00999824 0.893958 0.448038 
0.00601554 0.963862 0.266333 
0.00150262 0.998689 0.0511693 
-0.0033099 0.985694 -0.168513 
-0.00765295 0.931054 -0.364801 
-0.0105335 0.844142 -0.536016 
-0.0103531 0.742118 -0.670189 
-0.0110384 0.635296 -0.77219 
-0.0101224 0.534388 -0.845179 
-0.00964041 0.438058 -0.898895 
-0.00941278 0.35276 -0.935667 
-0.00925295 0.284807 -0.95854 
-0.00925372 0.230097 -0.973124 
-0.00954275 0.185292 -0.982637 
-0.00980352 0.148452 -0.988871 
-0.0101631 0.11971 -0.992757 
-0.0105524 0.0963239 -0.995294 
-0.0110663 0.0767823 -0.996986 
-0.0115249 0.0610008 -0.998071 
-0.0118953 0.0487873 -0.998738 
-0.0123367 0.0386047 -0.999178 
-0.0126717 0.0305744 -0.999452 
-0.0129037 0.0240816 -0.999627 
-0.0132157 0.0187185 -0.999737 
-0.013353 0.0143113 -0.999808 
-0.013509 0.0105867 -0.999853 
-0.0138112 0.00734624 -0.999878 
-0.0136336 0.00451889 -0.999897 
-0.0137899 0.00196766 -0.999903 
-0.0137226 -0.00042422 -0.999906 
-0.0136351 -0.0027188 -0.999903 
-0.0135374 -0.00495927 -0.999896 
-0.0134155 -0.00712739 -0.999885 
-0.0133718 -0.00924493 -0.999868 
-0.0128166 -0.0114165 -0.999853 
-0.0126688 -0.0136426 -0.999827 
-0.0121916 -0.0160046 -0.999798 
-0.0115477 -0.0182396 -0.999767 
-0.0108939 -0.0195423 -0.99975 
-0.00955704 -0.0201472 -0.999751 
-0.00797547 -0.0201295 -0.999766 
-0.00602233 -0.0142545 -0.99988 
-3.95338e-05 4.91949e-06 -1 
-2.62474e-06 4.9595e-05 1 
0.00505577 -0.0142103 0.999886 
0.00725993 -0.0196957 0.99978 
0.00817195 -0.0196208 0.999774 
0.00961293 -0.0188902 0.999775 
0.00923638 -0.0175758 0.999803 
0.0107983 -0.0151795 0.999826 
0.010757 -0.0126759 0.999862 
0.0112413 -0.0103275 0.999883 
0.0111995 -0.0080969 0.999905 
0.0113377 -0.00593204 0.999918 
0.011685 -0.00368269 0.999925 
0.0115782 -0.00138911 0.999932 
0.011705 0.00101833 0.999931 
0.0120037 0.003495 0.999922 
0.0115661 0.00620186 0.999914 
0.0120165 0.00911638 0.999886 
0.0115897 0.0126761 0.999852 
0.0116732 0.0167634 0.999791 
0.011095 0.0216797 0.999703 
0.0112059 0.0274729 0.99956 
0.0106843 0.0346733 0.999342 
0.0103922 0.0434711 0.999001 
0.0100604 0.0547341 0.99845 
0.0096672 0.0684319 0.997609 
0.00927675 0.0859196 0.996259 
0.00901358 0.107306 0.994185 
0.00880231 0.13287 0.991094 
0.00857451 0.167862 0.985773 
0.00872599 0.210922 0.977464 
0.00878922 0.259994 0.96557 
0.00931872 0.317008 0.948377 
0.010091 0.387996 0.921606 
0.0111535 0.472444 0.88129 
0.0126588 0.574082 0.8187 
0.0142147 0.69331 0.7205 
0.0135946 0.799361 0.600697 
0.0139685 0.898241 0.439282 
0.00833082 0.966834 0.255268 
0.00189235 0.998813 0.0486783 
-0.00520459 0.985907 -0.167212 
-0.0115121 0.929992 -0.3674 
-0.0150511 0.846635 -0.531962 
-0.013812 0.743223 -0.668902 
-0.0134242 0.62035 -0.784211 
-0.0116137 0.513035 -0.858289 
-0.0103177 0.416288 -0.909174 
-0.00949191 0.33816 -0.941041 
-0.00898112 0.277201 -0.96077 
-0.00856351 0.228586 -0.973486 
-0.00864463 0.188277 -0.982078 
-0.00868949 0.152575 -0.988254 
-0.00882328 0.121798 -0.992516 
-0.009079 0.0980669 -0.995138 
-0.00951946 0.0786881 -0.996854 
-0.0099084 0.0626432 -0.997987 
-0.0101598 0.0497317 -0.998711 
-0.0105854 0.0395932 -0.99916 
-0.0108509 0.0312469 -0.999453 
-0.0110422 0.0246093 -0.999636 
-0.0113539 0.0191286 -0.999753 
-0.0114626 0.0145823 -0.999828 
-0.0115708 0.0107772 -0.999875 
-0.0119447 0.00752942 -0.9999 
-0.0117688 0.00466126 -0.99992 
-0.011915 0.00207543 -0.999927 
-0.0118304 -0.000342689 -0.99993 
-0.0117244 -0.00266536 -0.999928 
-0.0116447 -0.00492125 -0.99992 
-0.0114868 -0.007114 -0.999909 
-0.0114731 -0.00925592 -0.999891 
-0.0109136 -0.0114401 -0.999875 
-0.0107587 -0.0136918 -0.999848 
-0.0103842 -0.0161592 -0.999816 
-0.00976537 -0.0183437 -0.999784 
-0.0092411 -0.0196007 -0.999765 