# vtk DataFile Version 3.0 
Exported using Morpho https://github.com/Morpho-lang/morpho 
ASCII 
DATASET UNSTRUCTURED_GRID 

POINTS 2219 float 
-8.32618 -2.88146 0 
-8.11405 -2.88146 0 
-7.90192 -2.88146 0 
-7.68979 -2.88146 0 
-7.47765 -2.88146 0 
-7.26552 -2.88146 0 
-7.05339 -2.88146 0 
-6.84126 -2.88146 0 
-6.62913 -2.88146 0 
-6.41699 -2.88146 0 
-6.20486 -2.88146 0 
-5.99273 -2.88146 0 
-5.7806 -2.88146 0 
-5.56847 -2.88146 0 
-5.35633 -2.88146 0 
-5.1442 -2.88146 0 
-4.93207 -2.88146 0 
-4.71994 -2.88146 0 
-4.50781 -2.88146 0 
-4.29567 -2.88146 0 
-4.08354 -2.88146 0 
-3.87141 -2.88146 0 
-3.65928 -2.88146 0 
-3.44715 -2.88146 0 
-3.23501 -2.88146 0 
-3.02288 -2.88146 0 
-2.81075 -2.88146 0 
-2.59862 -2.88146 0 
-2.38649 -2.88146 0 
-2.17435 -2.88146 0 
-1.96222 -2.88146 0 
-1.75009 -2.88146 0 
-1.53796 -2.88146 0 
-1.32583 -2.88146 0 
-1.11369 -2.88146 0 
-0.901561 -2.88146 0 
-0.689429 -2.88146 0 
-0.477297 -2.88146 0 
-0.265165 -2.88146 0 
-0.053033 -2.88146 0 
0.159099 -2.88146 0 
0.371231 -2.88146 0 
0.583363 -2.88146 0 
0.795495 -2.88146 0 
1.00763 -2.88146 0 
1.21976 -2.88146 0 
1.43189 -2.88146 0 
1.64402 -2.88146 0 
1.85616 -2.88146 0 
2.06829 -2.88146 0 
2.28042 -2.88146 0 
2.49255 -2.88146 0 
2.70468 -2.88146 0 
2.91682 -2.88146 0 
3.12895 -2.88146 0 
3.34108 -2.88146 0 
3.55321 -2.88146 0 
3.76534 -2.88146 0 
3.97748 -2.88146 0 
4.18961 -2.88146 0 
4.40174 -2.88146 0 
4.61387 -2.88146 0 
4.826 -2.88146 0 
5.03814 -2.88146 0 
5.25027 -2.88146 0 
5.4624 -2.88146 0 
5.67453 -2.88146 0 
5.88666 -2.88146 0 
6.0988 -2.88146 0 
6.31093 -2.88146 0 
6.52306 -2.88146 0 
6.73519 -2.88146 0 
6.94732 -2.88146 0 
7.15946 -2.88146 0 
7.37159 -2.88146 0 
7.58372 -2.88146 0 
7.79585 -2.88146 0 
8.00798 -2.88146 0 
8.22012 -2.88146 0 
8.53831 -2.88146 0 
-8.53831 -2.74392 0 
-8.31112 -2.64362 0 
-8.07428 -2.66469 0 
-7.84123 -2.66467 0 
-7.60887 -2.66899 0 
-7.37859 -2.66428 0 
-7.14935 -2.6705 0 
-6.92226 -2.66572 0 
-6.69534 -2.66715 0 
-6.4745 -2.66374 0 
-6.25573 -2.66495 0 
-6.0385 -2.66622 0 
-5.8217 -2.66989 0 
-5.60478 -2.67116 0 
-5.38783 -2.66942 0 
-5.17556 -2.67124 0 
-4.96173 -2.6717 0 
-4.74676 -2.6699 0 
-4.53383 -2.66914 0 
-4.32108 -2.66833 0 
-4.10822 -2.66747 0 
-3.89611 -2.66705 0 
-3.68465 -2.66715 0 
-3.47313 -2.66792 0 
-3.26153 -2.66916 0 
-3.04997 -2.67118 0 
-2.83682 -2.67081 0 
-2.62447 -2.66989 0 
-2.41471 -2.67561 0 
-2.19936 -2.67328 0 
-1.98689 -2.67529 0 
-1.77458 -2.67965 0 
-1.55551 -2.67083 0 
-1.3469 -2.68208 0 
-1.12429 -2.67356 0 
-0.909973 -2.67931 0 
-0.694571 -2.68073 0 
-0.477093 -2.67519 0 
-0.258304 -2.67746 0 
-0.042451 -2.66637 0 
0.176419 -2.67289 0 
0.388848 -2.66856 0 
0.607351 -2.6753 0 
0.82278 -2.67638 0 
1.04109 -2.67845 0 
1.25471 -2.67591 0 
1.47091 -2.67626 0 
1.68159 -2.67211 0 
1.89587 -2.67363 0 
2.10829 -2.6721 0 
2.32078 -2.67215 0 
2.53385 -2.67265 0 
2.74784 -2.67288 0 
2.96082 -2.67171 0 
3.1726 -2.67016 0 
3.38525 -2.66896 0 
3.59429 -2.66568 0 
3.81094 -2.67209 0 
4.02164 -2.66794 0 
4.23307 -2.66849 0 
4.44494 -2.66923 0 
4.65942 -2.67205 0 
4.8714 -2.6698 0 
5.08181 -2.66855 0 
5.29347 -2.66931 0 
5.50448 -2.66898 0 
5.71594 -2.66998 0 
5.92706 -2.67024 0 
6.13913 -2.67146 0 
6.35097 -2.6712 0 
6.56797 -2.67515 0 
6.77741 -2.66712 0 
6.99326 -2.67098 0 
7.20668 -2.66636 0 
7.42045 -2.66279 0 
7.63537 -2.65917 0 
7.85108 -2.65436 0 
8.06824 -2.64947 0 
8.31451 -2.72299 0 
8.53831 -2.66933 0 
-8.53831 -2.50227 0 
-8.30643 -2.42204 0 
-8.06992 -2.45305 0 
-7.83076 -2.45541 0 
-7.59638 -2.46016 0 
-7.35609 -2.45742 0 
-7.12884 -2.46067 0 
-6.89023 -2.46046 0 
-6.66957 -2.45234 0 
-6.44761 -2.44932 0 
-6.22949 -2.45026 0 
-6.00965 -2.45465 0 
-5.79239 -2.46016 0 
-5.57449 -2.46297 0 
-5.36328 -2.45588 0 
-5.15152 -2.46057 0 
-4.93709 -2.46275 0 
-4.72507 -2.45783 0 
-4.51358 -2.45639 0 
-4.30102 -2.45556 0 
-4.0893 -2.45348 0 
-3.87875 -2.45209 0 
-3.66743 -2.45283 0 
-3.45566 -2.45467 0 
-3.24428 -2.45683 0 
-3.03165 -2.46142 0 
-2.81972 -2.46021 0 
-2.60987 -2.45734 0 
-2.39623 -2.47053 0 
-2.18214 -2.46566 0 
-1.9709 -2.4679 0 
-1.75377 -2.47954 0 
-1.54145 -2.45906 0 
-1.32151 -2.48611 0 
-1.11203 -2.45866 0 
-0.903628 -2.47579 0 
-0.684802 -2.48129 0 
-0.474778 -2.45721 0 
-0.268381 -2.47216 0 
-0.0688919 -2.43599 0 
0.137666 -2.46256 0 
0.351373 -2.45348 0 
0.566553 -2.46825 0 
0.782674 -2.46819 0 
0.996482 -2.47632 0 
1.21361 -2.46879 0 
1.42655 -2.47301 0 
1.64099 -2.46075 0 
1.85053 -2.4661 0 
2.06273 -2.46215 0 
2.27331 -2.46178 0 
2.48377 -2.46308 0 
2.69538 -2.46495 0 
2.90831 -2.46239 0 
3.11986 -2.45858 0 
3.33084 -2.45824 0 
3.54197 -2.44869 0 
3.75496 -2.46441 0 
3.96894 -2.45424 0 
4.17996 -2.45468 0 
4.39112 -2.45643 0 
4.60474 -2.46333 0 
4.81862 -2.45903 0 
5.03106 -2.45468 0 
5.24201 -2.45698 0 
5.45383 -2.45614 0 
5.66577 -2.45787 0 
5.87744 -2.45849 0 
6.08983 -2.46149 0 
6.3031 -2.46164 0 
6.52069 -2.47249 0 
6.73811 -2.45455 0 
6.95511 -2.46378 0 
7.17484 -2.45478 0 
7.39424 -2.44808 0 
7.61516 -2.44202 0 
7.83865 -2.43426 0 
8.06562 -2.42951 0 
8.2972 -2.51098 0 
8.53831 -2.4572 0 
-8.53831 -2.26887 0 
-8.29633 -2.20974 0 
-8.05316 -2.2439 0 
-7.81874 -2.24387 0 
-7.57263 -2.26063 0 
-7.34483 -2.24251 0 
-7.09826 -2.26506 0 
-6.87633 -2.2432 0 
-6.65107 -2.24022 0 
-6.43041 -2.23414 0 
-6.20651 -2.2408 0 
-5.98731 -2.24375 0 
-5.76824 -2.25245 0 
-5.55838 -2.24762 0 
-5.34697 -2.2424 0 
-5.13306 -2.25136 0 
-4.92193 -2.2504 0 
-4.71065 -2.24458 0 
-4.49755 -2.24442 0 
-4.28526 -2.24219 0 
-4.07457 -2.23835 0 
-3.86257 -2.23826 0 
-3.64978 -2.24004 0 
-3.43822 -2.24194 0 
-3.22604 -2.24635 0 
-3.01554 -2.2505 0 
-2.80603 -2.24768 0 
-2.59251 -2.24956 0 
-2.37941 -2.26464 0 
-2.16813 -2.25566 0 
-1.96315 -2.25157 0 
-1.75991 -2.27543 0 
-1.5581 -2.23927 0 
-1.35068 -2.28098 0 
-1.14226 -2.24428 0 
-0.927662 -2.26305 0 
-0.713849 -2.2756 0 
-0.498227 -2.2426 0 
-0.28395 -2.24799 0 
-0.0649166 -2.21433 0 
0.151635 -2.2416 0 
0.368584 -2.23592 0 
0.583226 -2.25713 0 
0.797603 -2.25632 0 
1.01475 -2.27032 0 
1.22945 -2.25981 0 
1.44252 -2.26574 0 
1.65326 -2.24836 0 
1.86386 -2.25643 0 
2.07367 -2.25037 0 
2.28282 -2.24988 0 
2.49327 -2.2527 0 
2.70518 -2.25593 0 
2.91549 -2.25106 0 
3.12551 -2.24602 0 
3.33547 -2.24521 0 
3.54422 -2.23181 0 
3.75342 -2.25441 0 
3.96546 -2.24185 0 
4.1788 -2.2407 0 
4.39014 -2.24279 0 
4.60163 -2.25341 0 
4.81411 -2.24726 0 
5.02357 -2.23905 0 
5.23273 -2.24294 0 
5.44288 -2.24346 0 
5.65482 -2.24557 0 
5.86662 -2.24614 0 
6.07794 -2.25055 0 
6.2901 -2.25195 0 
6.50571 -2.26813 0 
6.72036 -2.24566 0 
6.9388 -2.25659 0 
7.15813 -2.24833 0 
7.38115 -2.23805 0 
7.60484 -2.22955 0 
7.83093 -2.22 0 
8.06115 -2.21546 0 
8.29825 -2.29562 0 
8.53831 -2.24506 0 
-8.53831 -2.05009 0 
-8.30649 -1.99237 0 
-8.07218 -2.03567 0 
-7.83494 -2.02928 0 
-7.60405 -2.05916 0 
-7.36864 -2.02935 0 
-7.13447 -2.06764 0 
-6.89969 -2.02889 0 
-6.67554 -2.02853 0 
-6.45345 -2.02063 0 
-6.2311 -2.03172 0 
-6.00812 -2.03215 0 
-5.78912 -2.04212 0 
-5.57413 -2.0303 0 
-5.36634 -2.02834 0 
-5.15403 -2.0396 0 
-4.94189 -2.03752 0 
-4.73091 -2.03268 0 
-4.51714 -2.03401 0 
-4.30154 -2.03086 0 
-4.08641 -2.02489 0 
-3.87281 -2.02611 0 
-3.6578 -2.02904 0 
-3.4419 -2.02964 0 
-3.22891 -2.03521 0 
-3.01671 -2.03837 0 
-2.80192 -2.04001 0 
-2.59565 -2.03398 0 
-2.38864 -2.05645 0 
-2.18036 -2.04487 0 
-1.96676 -2.03516 0 
-1.75947 -2.05703 0 
-1.55067 -2.0185 0 
-1.34624 -2.06566 0 
-1.12564 -2.0285 0 
-0.91111 -2.05198 0 
-0.693447 -2.06399 0 
-0.472971 -2.02033 0 
-0.256789 -2.02745 0 
-0.0472756 -1.96734 0 
0.152863 -2.01867 0 
0.368033 -2.00771 0 
0.582013 -2.03775 0 
0.801019 -2.04106 0 
1.01639 -2.05983 0 
1.22854 -2.04511 0 
1.43991 -2.05547 0 
1.64964 -2.03347 0 
1.85856 -2.04459 0 
2.06779 -2.0374 0 
2.27835 -2.03671 0 
2.48732 -2.04112 0 
2.69742 -2.04593 0 
2.90862 -2.03924 0 
3.11882 -2.03337 0 
3.32924 -2.03144 0 
3.54416 -2.0212 0 
3.75947 -2.04162 0 
3.97502 -2.03074 0 
4.18753 -2.02701 0 
4.39878 -2.02871 0 
4.60976 -2.04112 0 
4.82016 -2.03199 0 
5.02972 -2.02298 0 
5.23884 -2.02769 0 
5.44766 -2.0278 0 
5.65725 -2.03304 0 
5.86507 -2.02976 0 
6.07271 -2.03796 0 
6.28324 -2.0404 0 
6.49651 -2.06074 0 
6.71249 -2.03691 0 
6.93133 -2.04981 0 
7.15299 -2.04207 0 
7.37453 -2.0287 0 
7.59792 -2.01784 0 
7.8257 -2.00732 0 
8.0605 -2.00543 0 
8.29846 -2.08208 0 
8.53831 -2.03293 0 
-8.53831 -1.83126 0 
-8.30229 -1.78131 0 
-8.06241 -1.8263 0 
-7.82335 -1.82042 0 
-7.58753 -1.84932 0 
-7.36042 -1.8092 0 
-7.14164 -1.86309 0 
-6.91928 -1.81509 0 
-6.69546 -1.81585 0 
-6.47209 -1.80621 0 
-6.25101 -1.81991 0 
-6.02981 -1.82337 0 
-5.80718 -1.83061 0 
-5.59178 -1.81709 0 
-5.3796 -1.80807 0 
-5.17322 -1.82483 0 
-4.96339 -1.82392 0 
-4.75362 -1.81862 0 
-4.54269 -1.82265 0 
-4.32885 -1.8218 0 
-4.11254 -1.81551 0 
-3.89545 -1.81412 0 
-3.68039 -1.81861 0 
-3.46407 -1.82109 0 
-3.24628 -1.82358 0 
-3.03354 -1.82691 0 
-2.82216 -1.83263 0 
-2.60826 -1.8191 0 
-2.39811 -1.84256 0 
-2.18624 -1.83335 0 
-1.97536 -1.82902 0 
-1.75285 -1.84134 0 
-1.52318 -1.81383 0 
-1.29919 -1.85136 0 
-1.0905 -1.78321 0 
-0.901321 -1.83331 0 
-0.685123 -1.84929 0 
-0.466397 -1.79001 0 
-0.252674 -1.79163 0 
-0.051333 -1.70642 0 
0.14992 -1.76692 0 
0.353231 -1.77463 0 
0.57403 -1.80649 0 
0.789011 -1.82043 0 
1.00816 -1.84095 0 
1.22599 -1.83006 0 
1.44145 -1.84036 0 
1.65128 -1.81579 0 
1.86133 -1.82941 0 
2.07503 -1.82533 0 
2.28481 -1.82305 0 
2.4945 -1.82898 0 
2.70373 -1.83419 0 
2.91253 -1.8262 0 
3.12198 -1.82032 0 
3.33619 -1.82285 0 
3.54948 -1.80866 0 
3.76191 -1.83344 0 
3.9751 -1.81831 0 
4.18586 -1.81184 0 
4.39709 -1.8139 0 
4.60798 -1.82685 0 
4.81825 -1.81658 0 
5.02969 -1.80917 0 
5.24249 -1.81124 0 
5.45514 -1.81398 0 
5.66474 -1.81706 0 
5.87461 -1.81466 0 
6.08471 -1.8251 0 
6.29502 -1.82742 0 
6.5053 -1.85229 0 
6.71903 -1.82438 0 
6.93368 -1.84358 0 
7.15268 -1.83258 0 
7.37233 -1.81669 0 
7.59667 -1.80545 0 
7.82744 -1.79631 0 
8.06301 -1.79528 0 
8.29971 -1.86924 0 
8.53831 -1.8208 0 
-8.53831 -1.61399 0 
[...]
POINT_DATA 2219 
VECTORS vectors float
-0.000206258 -0.000835253 1 
-3.05313e-05 -0.0148915 0.999889 
-6.34267e-05 -0.0191702 0.999816 
-4.80632e-05 -0.0199116 0.999802 
-6.09212e-05 -0.0188029 0.999823 
-5.22284e-05 -0.0167041 0.99986 
-5.57193e-05 -0.0144857 0.999895 
-5.46832e-05 -0.012342 0.999924 
-5.51251e-05 -0.010191 0.999948 
-5.50767e-05 -0.0079659 0.999968 
-5.51197e-05 -0.0056858 0.999984 
-5.51513e-05 -0.00341009 0.999994 
-5.50369e-05 -0.00115818 0.999999 
-5.53531e-05 0.00110183 0.999999 
-5.50021e-05 0.00346579 0.999994 
-5.47686e-05 0.00603518 0.999982 
-5.51107e-05 0.00893008 0.99996 
-5.44715e-05 0.0123069 0.999924 
-5.42133e-05 0.016333 0.999867 
-5.39589e-05 0.0212078 0.999775 
-5.3334e-05 0.0271763 0.999631 
-5.26618e-05 0.0345323 0.999404 
-5.1852e-05 0.0436347 0.999048 
-5.08853e-05 0.0549254 0.99849 
-4.94109e-05 0.0689478 0.99762 
-4.79891e-05 0.0863576 0.996264 
-4.59197e-05 0.107976 0.994153 
-4.31927e-05 0.134807 0.990872 
-4.03336e-05 0.167981 0.98579 
-3.64336e-05 0.208944 0.977928 
-3.18575e-05 0.259218 0.965819 
-2.59677e-05 0.320342 0.947302 
-2.13662e-05 0.393746 0.919219 
-1.15411e-05 0.479869 0.87734 
-7.85367e-06 0.57832 0.81581 
-2.83821e-06 0.685877 0.727717 
2.61238e-06 0.794441 0.607341 
3.59282e-06 0.891224 0.453564 
-8.10672e-08 0.9642 0.265177 
1.00754e-06 0.998521 0.0543609 
-9.36646e-07 0.986856 -0.161605 
-2.37442e-06 0.931726 -0.363161 
-2.36972e-06 0.844293 -0.535883 
-1.24816e-08 0.739409 -0.673257 
3.68839e-06 0.630562 -0.776139 
1.07536e-05 0.527317 -0.849669 
1.63869e-05 0.434857 -0.9005 
2.37151e-05 0.355176 -0.934799 
2.90221e-05 0.288146 -0.957586 
3.44093e-05 0.232707 -0.972547 
3.82813e-05 0.187323 -0.982298 
4.18906e-05 0.150438 -0.98862 
4.48781e-05 0.120592 -0.992702 
4.65284e-05 0.0965098 -0.995332 
4.92952e-05 0.0771057 -0.997023 
4.9734e-05 0.0614851 -0.998108 
5.14874e-05 0.0489007 -0.998804 
5.24047e-05 0.0387671 -0.999248 
5.31084e-05 0.0305944 -0.999532 
5.33561e-05 0.0239655 -0.999713 
5.42246e-05 0.0185736 -0.999827 
5.45478e-05 0.0141506 -0.9999 
5.46228e-05 0.0104673 -0.999945 
5.49283e-05 0.00732917 -0.999973 
5.51092e-05 0.00459565 -0.999989 
5.52366e-05 0.00212875 -0.999998 
5.49281e-05 -0.000194595 -1 
5.57228e-05 -0.00247525 -0.999997 
5.45176e-05 -0.00478447 -0.999989 
5.57894e-05 -0.0071512 -0.999974 
5.4943e-05 -0.00951852 -0.999955 
5.51407e-05 -0.0118484 -0.99993 
5.41759e-05 -0.0141369 -0.9999 
5.85462e-05 -0.0164555 -0.999865 
4.32662e-05 -0.0189211 -0.999821 
8.28106e-05 -0.0212295 -0.999775 
1.19546e-05 -0.022418 -0.999749 
8.81058e-05 -0.0216704 -0.999765 
7.03913e-05 -0.0199779 -0.9998 
-1.62571e-05 -0.00104645 -0.999999 
-0.000338742 0.000279449 1 
0.00539776 -0.00927234 0.999942 
0.00807735 -0.0176797 0.999811 
0.00919058 -0.0190662 0.999776 
0.00963336 -0.0189986 0.999773 
0.0102109 -0.0174947 0.999795 
0.0101652 -0.015264 0.999832 
0.0106015 -0.0129494 0.99986 
0.0106687 -0.010652 0.999886 
0.0110231 -0.0083872 0.999904 
0.0110932 -0.00611974 0.99992 
0.0111635 -0.00385014 0.99993 
0.0110819 -0.00157468 0.999937 
0.0110799 0.000733557 0.999938 
0.0112288 0.00313774 0.999932 
0.0111752 0.00568444 0.999921 
0.0110808 0.00857084 0.999902 
0.0110746 0.0119429 0.999867 
0.0110117 0.015917 0.999813 
0.0108998 0.0207203 0.999726 
0.010758 0.0265989 0.999588 
0.0105773 0.0338129 0.999372 
0.0103364 0.0427031 0.999034 
0.0100189 0.053722 0.998506 
0.00963053 0.0674002 0.99768 
0.00912794 0.0843721 0.996393 
0.00863617 0.105604 0.994371 
0.00811116 0.13185 0.991236 
0.0072388 0.163871 0.986455 
0.00648751 0.204498 0.978845 
0.00555993 0.253742 0.967256 
0.00446029 0.31376 0.949492 
0.00354768 0.388238 0.921552 
0.00236589 0.471725 0.881742 
0.00139633 0.573589 0.819142 
0.000613391 0.68209 0.731268 
3.14601e-05 0.791121 0.61166 
-0.000284542 0.891493 0.453034 
-0.000267619 0.966276 0.25751 
-6.02384e-05 0.999084 0.0428017 
0.000196567 0.983764 -0.179467 
0.000331182 0.925371 -0.379062 
0.000194431 0.833178 -0.553004 
-0.000260805 0.725814 -0.687891 
-0.00100312 0.614446 -0.788958 
-0.00195694 0.512196 -0.858866 
-0.00302 0.420263 -0.907397 
-0.00413851 0.343477 -0.939152 
-0.00512852 0.277935 -0.960586 
-0.00612326 0.224325 -0.974495 
-0.00696616 0.180487 -0.983553 
-0.00768536 0.144796 -0.989432 
-0.00832473 0.115834 -0.993234 
-0.00892097 0.0926119 -0.995662 
-0.00941987 0.0740125 -0.997213 
-0.00984944 0.0589671 -0.998211 
-0.0102723 0.0470524 -0.99884 
-0.0102547 0.0370998 -0.999259 
-0.0107284 0.0292835 -0.999514 
-0.0108715 0.0229293 -0.999678 
-0.0109716 0.0177379 -0.999782 
-0.0109735 0.0134101 -0.99985 
-0.0112055 0.00983019 -0.999889 
-0.0113091 0.00679662 -0.999913 
-0.0113041 0.00411968 -0.999928 
-0.0113587 0.00169008 -0.999934 
-0.0113267 -0.000616657 -0.999936 
-0.0113096 -0.00287835 -0.999932 
-0.0112203 -0.00516174 -0.999924 
-0.0111586 -0.00746338 -0.99991 
-0.0109108 -0.00983092 -0.999892 
-0.0111562 -0.0120858 -0.999865 
-0.0107319 -0.014421 -0.999838 
-0.0106933 -0.0167618 -0.999802 
-0.0104512 -0.0190694 -0.999764 
-0.010051 -0.0207783 -0.999734 
-0.00941869 -0.0213871 -0.999727 
-0.00809784 -0.0209798 -0.999747 
-0.00332714 -0.0132323 -0.999907 
0.00022133 -0.000152421 -1 
0.000144859 -0.000314174 1 
0.00900808 -0.0129014 0.999876 
0.0121859 -0.0187888 0.999749 
0.01371 -0.0189163 0.999727 
0.0146132 -0.0187625 0.999717 
0.0152946 -0.0171881 0.999735 
0.0156105 -0.0149434 0.999766 
0.0159331 -0.012499 0.999795 
0.0161269 -0.0102409 0.999818 
0.0162962 -0.00798701 0.999835 
0.0164178 -0.00577578 0.999849 
0.0165457 -0.00351932 0.999857 
0.0166266 -0.00124995 0.999861 
0.0166651 0.0010853 0.999861 
0.0167001 0.00346385 0.999855 
0.0166372 0.00605498 0.999843 
0.0165521 0.00901862 0.999822 
0.0164403 0.012434 0.999788 
0.0162581 0.0164856 0.999732 
0.0160298 0.0214115 0.999642 
0.0157522 0.0274139 0.9995 
0.0154165 0.0347562 0.999277 
0.015015 0.0438565 0.998925 
0.0145414 0.0551581 0.998372 
0.0139907 0.0691572 0.997508 
0.0133181 0.0866384 0.996151 
0.0125191 0.108223 0.994048 
0.0116165 0.134704 0.990818 
0.0105362 0.16803 0.985726 
0.00934428 0.209189 0.977831 
0.00801611 0.258978 0.96585 
0.0065525 0.321978 0.946725 
0.00503938 0.39474 0.918779 
0.00346237 0.484731 0.874656 
0.00213007 0.581209 0.813751 
0.000976884 0.685433 0.728135 
0.000129801 0.797172 0.603752 
-0.000238264 0.893002 0.450052 
-0.00026165 0.963649 0.267172 
-8.43631e-06 0.997573 0.0696328 
0.000268196 0.990113 -0.140271 
0.000405645 0.938406 -0.345535 
0.000220557 0.852946 -0.521998 
-0.000391512 0.747235 -0.66456 
-0.0013514 0.638148 -0.769912 
-0.002674 0.532482 -0.846437 
-0.0041279 0.439615 -0.898177 
-0.00566024 0.358793 -0.9334 
-0.0071294 0.292207 -0.956329 
-0.00853473 0.236154 -0.971678 
-0.00981637 0.190576 -0.981623 
-0.0109671 0.153435 -0.988098 
-0.0119814 0.12314 -0.992317 
-0.0128589 0.0985432 -0.99505 
-0.0135989 0.078841 -0.996794 
-0.0142133 0.0629831 -0.997913 
-0.0147547 0.050133 -0.998634 
-0.0152097 0.0398251 -0.999091 
-0.0155793 0.0313241 -0.999388 
-0.015883 0.0246165 -0.999571 
-0.0161517 0.0191319 -0.999686 
-0.0163779 0.0145968 -0.999759 
-0.0165211 0.0107793 -0.999805 
-0.0166087 0.00756614 -0.999833 
-0.0166899 0.00480372 -0.999849 
-0.0167436 0.00229638 -0.999857 
-0.0167592 -5.33084e-05 -0.99986 
-0.0167388 -0.00232867 -0.999857 
-0.0166903 -0.00459205 -0.99985 
-0.0166366 -0.00685815 -0.999838 
-0.0164783 -0.00919055 -0.999822 
-0.0163231 -0.0114829 -0.999801 
-0.0160074 -0.0138587 -0.999776 
-0.0156569 -0.0162549 -0.999745 
-0.015115 -0.0186005 -0.999713 
-0.0143149 -0.0202348 -0.999693 
-0.0131266 -0.0207375 -0.999699 
-0.0114284 -0.0210023 -0.999714 
-0.00809847 -0.0147541 -0.999858 
-0.000410108 -0.000141521 -1 
-8.25878e-05 -2.15815e-05 1 
0.00821186 -0.0140698 0.999867 
0.011139 -0.0192454 0.999753 
0.0127734 -0.019015 0.999738 
0.0141102 -0.0188441 0.999723 
0.0147584 -0.0171873 0.999743 
0.0153728 -0.0146356 0.999775 
0.015635 -0.012306 0.999802 
0.0159143 -0.00997818 0.999824 
0.0161325 -0.00775219 0.99984 
0.0163335 -0.00551779 0.999851 
0.0164861 -0.00328588 0.999859 
0.0166106 -0.000991145 0.999862 
0.0166592 0.00128357 0.99986 
0.0166592 0.00370331 0.999854 
0.0166388 0.00637098 0.999841 
0.0165484 0.0093535 0.999819 
0.0163917 0.0128319 0.999783 
0.0161923 0.0170058 0.999724 
0.0159313 0.0220429 0.99963 
0.0156059 0.0281583 0.999482 
0.0152212 0.0357218 0.999246 
0.0147632 0.0451076 0.998873 
0.0142239 0.0566842 0.998291 
0.0136016 0.0710935 0.997377 
0.0128976 0.0889045 0.995957 
0.0120148 0.110591 0.993793 
0.0109953 0.137991 0.990373 
0.00998059 0.17225 0.985003 
0.00869611 0.213254 0.976958 
0.00745319 0.262921 0.964788 
0.00620227 0.321026 0.94705 
0.00480712 0.390199 0.920718 
0.00358846 0.472883 0.881118 
0.00239752 0.567991 0.823032 
0.0013991 0.674793 0.738006 
0.000642777 0.782687 0.622415 
0.000287267 0.88384 0.46779 
0.000102415 0.959443 0.281904 
0.000144078 0.99785 0.065534 
0.000173585 0.988033 -0.15424 
9.25467e-05 0.932895 -0.36015 
-0.000214015 0.845145 -0.534537 
-0.000745927 0.739555 -0.673095 
-0.00161892 0.630101 -0.776511 
-0.00270795 0.525713 -0.850658 
-0.00402569 0.434681 -0.900576 
-0.00532968 0.355429 -0.934688 
-0.00676379 0.289879 -0.95704 
-0.00805091 0.234505 -0.972082 
-0.00931996 0.189772 -0.981784 
-0.0104944 0.152885 -0.988188 
-0.0115568 0.122718 -0.992374 
-0.0124597 0.098514 -0.995058 
-0.0132492 0.0789824 -0.996788 
-0.0139638 0.0632799 -0.997898 
-0.0144942 0.0505344 -0.998617 
-0.0150587 0.040224 -0.999077 
-0.015453 0.0318472 -0.999373 
-0.0157667 0.0249118 -0.999565 
-0.0160405 0.0193297 -0.999684 
-0.0163339 0.0147879 -0.999757 
-0.0165077 0.0109786 -0.999803 
-0.0166511 0.00779247 -0.999831 
-0.0167377 0.00499332 -0.999847 
-0.0167597 0.00246236 -0.999857 
-0.0168101 8.61957e-05 -0.999859 
-0.0167305 -0.00220368 -0.999858 
-0.0166838 -0.0044519 -0.999851 
-0.0165683 -0.00667156 -0.99984 
-0.0164592 -0.00893164 -0.999825 
-0.0161623 -0.0112161 -0.999806 
-0.0159034 -0.0136337 -0.999781 
-0.0153904 -0.016024 -0.999753 
-0.0147073 -0.0184404 -0.999722 
-0.0137468 -0.0200899 -0.999704 
-0.0123226 -0.0203883 -0.999716 
-0.0104001 -0.0206366 -0.999733 
-0.00793882 -0.0148924 -0.999858 
9.01402e-05 -0.000206505 -1 
1.09871e-05 -0.000226488 1 
0.00756995 -0.0138993 0.999875 
0.0103973 -0.0196199 0.999753 
0.012244 -0.0194466 0.999736 
0.0136551 -0.0192732 0.999721 
0.0143909 -0.0175269 0.999743 
0.0150816 -0.0150843 0.999772 
0.0154063 -0.0125441 0.999803 
0.0157686 -0.0102011 0.999824 
0.0160239 -0.00796397 0.99984 
0.016265 -0.0057702 0.999851 
0.0164472 -0.00351716 0.999859 
0.0166047 -0.00121888 0.999861 
0.0166725 0.00112533 0.99986 
0.0166871 0.00351739 0.999855 
0.0166698 0.00617044 0.999842 
0.0165693 0.00916043 0.999821 
0.0163987 0.0126146 0.999786 
0.016178 0.0167695 0.999728 
0.0158877 0.0218467 0.999635 
0.0155279 0.0280569 0.999486 
0.0151161 0.0356472 0.99925 
0.0146295 0.0451038 0.998875 
0.014054 0.0569128 0.99828 
0.0134 0.0713705 0.99736 
0.012623 0.0891788 0.995936 
0.0117663 0.111825 0.993658 
0.0108066 0.138781 0.990264 
0.00976621 0.171491 0.985137 
0.00855466 0.212022 0.977227 
0.00725867 0.262804 0.964822 
0.00600849 0.32235 0.946601 
0.00468205 0.39409 0.91906 
0.00354903 0.475992 0.879443 
0.00245663 0.57686 0.816839 
0.00156794 0.68318 0.730248 
0.000925433 0.794126 0.607753 
0.000588542 0.894382 0.447303 
0.000335428 0.966811 0.255492 
0.000298353 0.998872 0.0474791 
0.000207363 0.987815 -0.155629 
2.56477e-05 0.933356 -0.358953 
-0.000318016 0.845665 -0.533713 
-0.000911168 0.739199 -0.673486 
-0.001711 0.629821 -0.776738 
-0.0027122 0.527654 -0.849455 
-0.00391003 0.436546 -0.899673 
-0.00516373 0.358235 -0.933617 
-0.0065046 0.292329 -0.956296 
-0.00780715 0.237705 -0.971306 
-0.00903739 0.191881 -0.981377 
-0.0102006 0.15484 -0.987887 
-0.0112701 0.124621 -0.99214 
-0.0121944 0.0999769 -0.994915 
-0.0130004 0.0801161 -0.996701 
-0.0137054 0.0640485 -0.997853 
-0.0143221 0.0509681 -0.998598 
-0.0149198 0.0403216 -0.999075 
-0.0153479 0.0317695 -0.999377 
-0.0156953 0.0248871 -0.999567 
-0.0160534 0.019386 -0.999683 
-0.0163202 0.0148 -0.999757 
-0.0164966 0.0110076 -0.999803 
-0.0166173 0.0077842 -0.999832 
-0.0167772 0.00498988 -0.999847 
-0.0168283 0.00245583 -0.999855 
-0.016803 7.3814e-05 -0.999859 
-0.0168038 -0.00219879 -0.999856 
-0.0167207 -0.00440571 -0.99985 
-0.0165437 -0.00657779 -0.999842 
-0.0164155 -0.00878278 -0.999827 
-0.0161017 -0.0110737 -0.999809 
-0.0157713 -0.0134907 -0.999785 
-0.015228 -0.0159447 -0.999757 
-0.0145081 -0.01839 -0.999726 
-0.0135255 -0.0201216 -0.999706 
-0.0120574 -0.0203728 -0.99972 
-0.0100497 -0.0205518 -0.999738 
-0.00742397 -0.0147996 -0.999863 
-6.70568e-05 -0.000191405 -1 
6.25097e-05 -0.000147358 1 
0.00708449 -0.01445 0.99987 
0.00983745 -0.0200455 0.999751 
0.0116617 -0.0198284 0.999735 
0.0130302 -0.0194505 0.999726 
0.0134899 -0.0176227 0.999754 
0.0143569 -0.0152275 0.999781 
0.0144514 -0.0128411 0.999813 
0.0147408 -0.0104323 0.999837 
0.0149286 -0.00817394 0.999855 
0.0152454 -0.00600359 0.999866 
0.0154456 -0.00377409 0.999874 
0.0156152 -0.00142658 0.999877 
0.0155808 0.000940007 0.999878 
0.0155156 0.00340164 0.999874 
0.0156088 0.00599415 0.99986 
0.0155086 0.00894637 0.99984 
0.0153197 0.012359 0.999806 
0.0151417 0.016413 0.999751 
0.0148638 0.0213702 0.999661 
0.0144774 0.0275062 0.999517 
0.0140542 0.0350945 0.999285 
0.0136045 0.0443896 0.998922 
0.013063 0.0560321 0.998344 
0.0124204 0.0706337 0.997425 
0.0117023 0.0883504 0.996021 
0.010914 0.110191 0.993851 
0.00987423 0.13746 0.990458 
0.00901083 0.170766 0.98527 
0.0078823 0.212105 0.977215 
0.00668135 0.26131 0.965232 
0.00549343 0.32548 0.945533 
0.00422737 0.405625 0.91403 
0.00316443 0.497172 0.867646 
0.00224582 0.594511 0.804084 
0.00166446 0.688989 0.724769 
0.00114868 0.798046 0.602595 
0.000834233 0.896991 0.442048 
0.000576663 0.968033 0.250822 
0.000419443 0.998659 0.0517775 
0.000197795 0.988467 -0.151434 
-5.00213e-05 0.93858 -0.345061 
-0.000388738 0.85026 -0.526362 
-0.000906375 0.745249 -0.666786 
-0.00165996 0.634598 -0.772841 
-0.0025812 0.530026 -0.847978 
-0.00364169 0.437051 -0.899429 
-0.00469582 0.35886 -0.93338 
-0.00590941 0.292231 -0.95633 
-0.00711999 0.236655 -0.971568 
-0.00824878 0.191518 -0.981454 
-0.00935926 0.154562 -0.987939 
-0.0103997 0.124773 -0.992131 
-0.0112132 0.100281 -0.994896 
-0.0119424 0.0803749 -0.996693 
-0.0127162 0.0642566 -0.997852 
-0.0132207 0.051157 -0.998603 
-0.0139163 0.0405821 -0.999079 
-0.0142591 0.0320854 -0.999383 
-0.0145943 0.0252716 -0.999574 
-0.0148833 0.0196136 -0.999697 
-0.0152411 0.0150069 -0.999771 
-0.0153731 0.0111802 -0.999819 
-0.0154865 0.00790698 -0.999849 
-0.0155559 0.00500098 -0.999866 
-0.0156522 0.00240079 -0.999875 
-0.0156767 -1.31496e-06 -0.999877 
-0.0156178 -0.00231452 -0.999875 
-0.0156476 -0.00456831 -0.999867 
-0.0155002 -0.00673316 -0.999857 
-0.015479 -0.00887058 -0.999841 
-0.0150123 -0.0111277 -0.999825 
-0.0147933 -0.0135042 -0.999799 
-0.0142202 -0.0159513 -0.999772 
-0.0134686 -0.0183834 -0.99974 
-0.0125503 -0.0201892 -0.999717 
-0.0112149 -0.020499 -0.999727 
-0.00937255 -0.0206479 -0.999743 
-0.00709109 -0.0147521 -0.999866 
-8.82361e-05 -0.000191934 -1 
5.63661e-05 -0.000177269 1 
0.00601693 -0.0142751 0.99988 
0.00849062 -0.0203274 0.999757 
0.0100087 -0.0200874 0.999748 
0.0113147 -0.0197054 0.999742 
0.0116999 -0.0178096 0.999773 
0.0126001 -0.0151513 0.999806 
0.0125575 -0.0125682 0.999842 
0.012884 -0.0101748 0.999865 
0.0130781 -0.00789102 0.999883 
0.0134288 -0.00570138 0.999894 
0.0136617 -0.00338809 0.999901 
0.0137536 -0.00107584 0.999905 
0.0136306 0.00132616 0.999906 
0.0135241 0.00384163 0.999901 
0.0136889 0.00653613 0.999885 
0.0135577 0.00956315 0.999862 
0.0133839 0.0131357 0.999824 
0.0132369 0.0173851 0.999761 
0.0129772 0.0225916 0.999661 
0.0126012 0.0290439 0.999499 
0.0121817 0.0369337 0.999243 
0.0117517 0.0466277 0.998843 
0.011268 0.0588976 0.9982 
0.0106454 0.0737468 0.99722 
0.00999351 0.0918451 0.995723 
0.00930528 0.114325 0.9934 
0.00832849 0.141269 0.989936 
0.00768833 0.173248 0.984848 
0.00668483 0.214192 0.976769 
0.0057089 0.265624 0.96406 
0.00476578 0.327791 0.944738 
0.00374002 0.399843 0.916576 
0.00299461 0.486426 0.873717 
0.00222173 0.589976 0.807418 
0.00164363 0.709298 0.704907 
0.00130136 0.805403 0.592727 
0.00108592 0.894651 0.446764 
0.000804855 0.961506 0.274784 
0.00050042 0.998567 0.0535226 
0.000122879 0.986013 -0.166667 
-0.000224183 0.9251 -0.379724 
-0.000592497 0.832941 -0.553362 
-0.00107599 0.730002 -0.683444 
-0.00163557 0.628914 -0.777473 
-0.0022215 0.536385 -0.843971 
-0.00307037 0.447615 -0.894221 
-0.00392997 0.36766 -0.929952 
-0.00496357 0.2987 -0.954334 
-0.00597934 0.241623 -0.970352 
-0.00696121 0.194053 -0.980966 
-0.00793238 0.156135 -0.987704 
-0.00886403 0.125879 -0.992006 
-0.00961748 0.101309 -0.994809 
-0.0103419 0.0810468 -0.996657 
-0.0110224 0.0646018 -0.99785 
-0.0114401 0.0515419 -0.998605 
-0.0121591 0.0409244 -0.999088 
-0.0123998 0.0324456 -0.999397 
-0.012685 0.0254697 -0.999595 
-0.0130158 0.0198621 -0.999718 
-0.0133549 0.0151948 -0.999795 
-0.0134473 0.0113208 -0.999845 
-0.0135486 0.00796062 -0.999877 
-0.0136645 0.00501039 -0.999894 
-0.0137232 0.00239621 -0.999903 
-0.0137692 -5.74228e-05 -0.999905 
-0.013726 -0.0023987 -0.999903 
-0.013692 -0.00466592 -0.999895 
-0.0135885 -0.00686061 -0.999884 
-0.0136164 -0.00898873 -0.999867 
-0.0130549 -0.0112343 -0.999852 
-0.012928 -0.0135889 -0.999824 
-0.0123561 -0.0160229 -0.999795 
-0.0116291 -0.0184374 -0.999762 
-0.0108103 -0.0202823 -0.999736 
-0.00965554 -0.0206282 -0.999741 
-0.00809635 -0.0207584 -0.999752 
-0.00627331 -0.0145879 -0.999874 
-7.16542e-05 -0.000192478 -1 
4.38578e-05 -0.000182945 1 
0.00504839 -0.0147453 0.999879 
0.00712407 -0.020499 0.999764 
0.00836642 -0.0203255 0.999758 
0.0095426 -0.0199607 0.999755 
0.00985997 -0.0181541 0.999787 
0.0107373 -0.0154286 0.999823 
0.0106633 -0.0128976 0.99986 
0.0109435 -0.0104308 0.999886 
0.0111863 -0.0081921 0.999904 
0.0114817 -0.00591078 0.999917 
0.0117486 -0.0036346 0.999924 
0.0117337 -0.00119923 0.99993 
0.011651 0.00122867 0.999931 
0.0116341 0.00386196 0.999925 
0.0116484 0.00668693 0.99991 
0.0115851 0.00982496 0.999885 
0.0114383 0.0134808 0.999844 
0.0113295 0.017856 0.999776 
0.0111044 0.0231925 0.999669 
0.0107522 0.0297004 0.999501 
0.0103828 0.0377094 0.999235 
0.00998632 0.0473161 0.99883 
0.00961577 0.05893 0.998216 
0.00901204 0.073925 0.997223 
0.00841129 0.0919865 0.995725 
0.00781978 0.113691 0.993485 
0.00705219 0.143484 0.989627 
0.00626882 0.180437 0.983567 
0.00543572 0.224747 0.974402 
0.0046205 0.280968 0.959706 
0.00386804 0.342456 0.939526 
0.00305607 0.413763 0.91038 
0.00271278 0.488208 0.872723 
0.00216048 0.585676 0.810543 
0.00179137 0.693614 0.720345 
0.00143569 0.81629 0.57764 
0.00122951 0.915594 0.402102 
0.000867062 0.976649 0.214841 
0.000649 0.997232 0.0743474 
0.000278785 0.997211 -0.0746278 
-0.00019168 0.954818 -0.297191 
-0.000611764 0.866021 -0.500007 
-0.00101004 0.758758 -0.651372 
-0.00144452 0.645384 -0.763857 
-0.00202462 0.537544 -0.843233 
-0.0026907 0.443606 -0.896218 
-0.00337224 0.364188 -0.931319 
-0.00420098 0.294993 -0.95549 
-0.00509729 0.237428 -0.971392 
-0.00588435 0.191358 -0.981503 
-0.00664379 0.155851 -0.987758 
-0.00742738 0.125947 -0.992009 
-0.00812954 0.101228 -0.99483 
-0.00867886 0.0820814 -0.996588 
-0.00930816 0.0661831 -0.997764 
-0.00969687 0.0527527 -0.998561 
-0.0103403 0.0416235 -0.99908 
-0.0105619 0.0328084 -0.999406 
-0.0108448 0.0258525 -0.999607 
-0.0110991 0.0199905 -0.999739 
-0.0113821 0.0151801 -0.99982 
-0.0115211 0.0111973 -0.999871 
-0.0116293 0.00777569 -0.999902 
-0.0117091 0.00485421 -0.99992 
-0.0117773 0.00219482 -0.999928 
-0.0117816 -0.000239563 -0.999931 
-0.0117702 -0.00264612 -0.999927 
-0.0117587 -0.00493949 -0.999919 
-0.0116083 -0.00708978 -0.999907 
-0.0116747 -0.00913798 -0.99989 
-0.0110656 -0.0112987 -0.999875 
-0.0109993 -0.013625 -0.999847 
-0.0104883 -0.0161069 -0.999815 