# vtk DataFile Version 3.0 
Exported using Morpho https://github.com/Morpho-lang/morpho 
ASCII 
DATASET UNSTRUCTURED_GRID 

POINTS 2054 float 
-8.48528 -2.82843 0 
-8.20636 -2.82843 0 
-7.94054 -2.82843 0 
-7.6904 -2.82843 0 
-7.45357 -2.82843 0 
-7.22694 -2.82843 0 
-7.00705 -2.82843 0 
-6.79111 -2.82843 0 
-6.57731 -2.82843 0 
-6.36453 -2.82843 0 
-6.15219 -2.82843 0 
-5.94 -2.82843 0 
-5.72786 -2.82843 0 
-5.51573 -2.82843 0 
-5.3036 -2.82843 0 
-5.09147 -2.82843 0 
-4.87933 -2.82843 0 
-4.6672 -2.82843 0 
-4.45507 -2.82843 0 
-4.24294 -2.82843 0 
-4.03081 -2.82843 0 
-3.81867 -2.82843 0 
-3.60654 -2.82843 0 
-3.39441 -2.82843 0 
-3.18228 -2.82843 0 
-2.97015 -2.82843 0 
-2.75801 -2.82843 0 
-2.54588 -2.82843 0 
-2.33375 -2.82843 0 
-2.12162 -2.82843 0 
-1.90949 -2.82843 0 
-1.69735 -2.82843 0 
-1.48522 -2.82843 0 
-1.27309 -2.82843 0 
-1.06096 -2.82843 0 
-0.848825 -2.82843 0 
-0.636693 -2.82843 0 
-0.424561 -2.82843 0 
-0.212429 -2.82843 0 
-0.000296761 -2.82843 0 
0.211835 -2.82843 0 
0.423967 -2.82843 0 
0.636099 -2.82843 0 
0.848231 -2.82843 0 
1.06036 -2.82843 0 
1.2725 -2.82843 0 
1.48463 -2.82843 0 
1.69676 -2.82843 0 
1.90889 -2.82843 0 
2.12102 -2.82843 0 
2.33316 -2.82843 0 
2.54529 -2.82843 0 
2.75742 -2.82843 0 
2.96955 -2.82843 0 
3.18168 -2.82843 0 
3.39382 -2.82843 0 
3.60595 -2.82843 0 
3.81808 -2.82843 0 
4.03021 -2.82843 0 
4.24234 -2.82843 0 
4.45448 -2.82843 0 
4.66661 -2.82843 0 
4.87874 -2.82843 0 
5.09087 -2.82843 0 
5.303 -2.82843 0 
5.51514 -2.82843 0 
5.72727 -2.82843 0 
5.93941 -2.82843 0 
6.15159 -2.82843 0 
6.36393 -2.82843 0 
6.57672 -2.82843 0 
6.79055 -2.82843 0 
7.00652 -2.82843 0 
7.22647 -2.82843 0 
7.45313 -2.82843 0 
7.69005 -2.82843 0 
7.9403 -2.82843 0 
8.20621 -2.82843 0 
8.48528 -2.82843 0 
-8.48528 -2.5495 0 
-8.30526 -2.64845 0 
-8.07062 -2.59995 0 
-7.83904 -2.59637 0 
-7.59595 -2.59733 0 
-7.36578 -2.59177 0 
-7.13796 -2.5933 0 
-6.90908 -2.59428 0 
-6.68421 -2.5916 0 
-6.46568 -2.58832 0 
-6.24926 -2.58859 0 
-6.03358 -2.58941 0 
-5.81848 -2.59013 0 
-5.60402 -2.59075 0 
-5.39005 -2.59135 0 
-5.17642 -2.59186 0 
-4.96311 -2.59223 0 
-4.75009 -2.59242 0 
-4.53736 -2.59244 0 
-4.32497 -2.59236 0 
-4.1128 -2.59242 0 
-3.90059 -2.59259 0 
-3.68835 -2.5926 0 
-3.47627 -2.59248 0 
-3.26428 -2.59251 0 
-3.05216 -2.59271 0 
-2.83986 -2.59283 0 
-2.62755 -2.59274 0 
-2.41539 -2.59253 0 
-2.20336 -2.59238 0 
-1.99135 -2.59238 0 
-1.77924 -2.59246 0 
-1.56704 -2.59244 0 
-1.35495 -2.59215 0 
-1.14319 -2.59183 0 
-0.931581 -2.59195 0 
-0.719663 -2.59256 0 
-0.507197 -2.59324 0 
-0.294425 -2.59354 0 
-0.0817689 -2.59344 0 
0.130587 -2.59325 0 
0.342804 -2.59322 0 
0.555051 -2.59322 0 
0.767233 -2.59303 0 
0.97919 -2.59278 0 
1.19107 -2.59278 0 
1.40311 -2.59289 0 
1.61524 -2.59286 0 
1.82732 -2.59279 0 
2.03943 -2.59281 0 
2.25163 -2.5928 0 
2.46381 -2.59266 0 
2.67591 -2.59254 0 
2.88801 -2.59237 0 
3.10001 -2.59226 0 
3.31203 -2.59216 0 
3.52402 -2.59207 0 
3.73601 -2.59208 0 
3.94815 -2.59221 0 
4.16052 -2.5923 0 
4.37309 -2.59232 0 
4.58593 -2.59227 0 
4.79921 -2.5922 0 
5.01319 -2.59212 0 
5.22833 -2.5921 0 
5.44534 -2.59239 0 
5.6657 -2.59346 0 
5.89185 -2.59569 0 
6.12685 -2.59429 0 
6.36853 -2.59189 0 
6.6108 -2.57787 0 
6.84491 -2.61411 0 
7.08804 -2.58476 0 
7.34858 -2.60369 0 
7.58803 -2.59327 0 
7.83059 -2.59326 0 
8.06387 -2.59199 0 
8.30038 -2.64348 0 
8.48528 -2.54936 0 
-8.48528 -2.28369 0 
-8.25701 -2.4138 0 
-8.01078 -2.35334 0 
-7.73666 -2.37963 0 
-7.49744 -2.35565 0 
-7.26898 -2.35831 0 
-7.03324 -2.36676 0 
-6.7997 -2.36275 0 
-6.5773 -2.35166 0 
-6.35808 -2.3495 0 
-6.14038 -2.35058 0 
-5.92336 -2.35185 0 
-5.70723 -2.35272 0 
-5.49199 -2.35362 0 
-5.27734 -2.35447 0 
-5.0632 -2.35505 0 
-4.84958 -2.35534 0 
-4.63641 -2.35533 0 
-4.42363 -2.35504 0 
-4.21126 -2.35485 0 
-3.99909 -2.35513 0 
-3.78684 -2.3554 0 
-3.57461 -2.35516 0 
-3.36263 -2.35498 0 
-3.15066 -2.35537 0 
-2.93843 -2.35586 0 
-2.72604 -2.35589 0 
-2.51374 -2.35551 0 
-2.30162 -2.35509 0 
-2.08964 -2.35496 0 
-1.87761 -2.35518 0 
-1.66544 -2.3554 0 
-1.45322 -2.35518 0 
-1.2412 -2.35438 0 
-1.02967 -2.35407 0 
-0.818162 -2.35505 0 
-0.606054 -2.35676 0 
-0.393243 -2.3579 0 
-0.180256 -2.35789 0 
0.0323765 -2.35727 0 
0.244686 -2.35692 0 
0.456926 -2.35692 0 
0.669206 -2.35667 0 
0.881318 -2.35598 0 
1.09315 -2.35559 0 
1.305 -2.35583 0 
1.51709 -2.35595 0 
1.72919 -2.35571 0 
1.9412 -2.35566 0 
2.15334 -2.3558 0 
2.36559 -2.3556 0 
2.57772 -2.35522 0 
2.78976 -2.35507 0 
3.0019 -2.35461 0 
3.21373 -2.35451 0 
3.42571 -2.35439 0 
3.63769 -2.35431 0 
3.84965 -2.35453 0 
4.06183 -2.35491 0 
4.27435 -2.35507 0 
4.48707 -2.35507 0 
4.70017 -2.35506 0 
4.91376 -2.35498 0 
5.12819 -2.35502 0 
5.34378 -2.35528 0 
5.56106 -2.35662 0 
5.78097 -2.35971 0 
6.00401 -2.36251 0 
6.2308 -2.3624 0 
6.45748 -2.35551 0 
6.68075 -2.33423 0 
6.88797 -2.39744 0 
7.05313 -2.27289 0 
7.24377 -2.40237 0 
7.48542 -2.36016 0 
7.73055 -2.36599 0 
7.99177 -2.33552 0 
8.24864 -2.40698 0 
8.48528 -2.28345 0 
-8.48528 -2.03355 0 
-8.25312 -2.18214 0 
-8.03669 -2.07913 0 
-7.83956 -2.18231 0 
-7.6106 -2.12852 0 
-7.38852 -2.10959 0 
-7.16268 -2.14097 0 
-6.9229 -2.1435 0 
-6.70119 -2.12055 0 
-6.48111 -2.11285 0 
-6.26282 -2.11284 0 
-6.045 -2.1151 0 
-5.82775 -2.11658 0 
-5.61153 -2.11776 0 
-5.3962 -2.1192 0 
-5.18144 -2.1203 0 
-4.96732 -2.12084 0 
-4.75387 -2.12105 0 
-4.54086 -2.12091 0 
-4.32822 -2.12045 0 
-4.11596 -2.12045 0 
-3.90382 -2.12107 0 
-3.69156 -2.12116 0 
-3.47938 -2.12058 0 
-3.26746 -2.12068 0 
-3.05542 -2.12154 0 
-2.84307 -2.12198 0 
-2.63064 -2.12162 0 
-2.41836 -2.12087 0 
-2.20626 -2.12031 0 
-1.99426 -2.12034 0 
-1.78217 -2.1207 0 
-1.56989 -2.12074 0 
-1.35755 -2.11993 0 
-1.14542 -2.11838 0 
-0.934012 -2.11859 0 
-0.722404 -2.12089 0 
-0.509943 -2.12344 0 
-0.296911 -2.12431 0 
-0.0840921 -2.12359 0 
0.128295 -2.12281 0 
0.340414 -2.12274 0 
0.552564 -2.12288 0 
0.76478 -2.12226 0 
0.976792 -2.1213 0 
1.18855 -2.12128 0 
1.40042 -2.12188 0 
1.61256 -2.12177 0 
1.82458 -2.12141 0 
2.03655 -2.12164 0 
2.24875 -2.12174 0 
2.46099 -2.12114 0 
2.67302 -2.12065 0 
2.88504 -2.12054 0 
3.09728 -2.1194 0 
3.30873 -2.11968 0 
3.52086 -2.1195 0 
3.7329 -2.11938 0 
3.94484 -2.11986 0 
4.15715 -2.12044 0 
4.36983 -2.12035 0 
4.58282 -2.1204 0 
4.79606 -2.12017 0 
5.01004 -2.12012 0 
5.22483 -2.12002 0 
5.44073 -2.12051 0 
5.6582 -2.123 0 
5.8782 -2.12696 0 
6.10217 -2.12971 0 
6.33095 -2.12707 0 
6.567 -2.11601 0 
6.82301 -2.12303 0 
7.06572 -2.04567 0 
7.29733 -2.17484 0 
7.54632 -2.11408 0 
7.79371 -2.13741 0 
8.02274 -2.07453 0 
8.25027 -2.1738 0 
8.48528 -2.0332 0 
-8.48528 -1.79671 0 
-8.25436 -1.93882 0 
-8.01299 -1.83977 0 
-7.78596 -1.953 0 
-7.5297 -1.87194 0 
-7.2756 -1.88722 0 
-7.05707 -1.93544 0 
-6.84369 -1.89677 0 
-6.62219 -1.88079 0 
-6.40169 -1.87606 0 
-6.18206 -1.87854 0 
-5.96274 -1.881 0 
-5.74458 -1.88208 0 
-5.52796 -1.88344 0 
-5.31232 -1.88506 0 
-5.09736 -1.88569 0 
-4.88338 -1.88564 0 
-4.67019 -1.88555 0 
-4.45737 -1.88507 0 
-4.24485 -1.88447 0 
-4.03271 -1.88482 0 
-3.82061 -1.88562 0 
-3.60832 -1.88529 0 
-3.39617 -1.88464 0 
-3.18427 -1.88547 0 
-2.97209 -1.88672 0 
-2.7596 -1.88684 0 
-2.54714 -1.88601 0 
-2.33483 -1.88505 0 
-2.12268 -1.8846 0 
-1.91058 -1.885 0 
-1.69824 -1.88561 0 
-1.48561 -1.88547 0 
-1.27286 -1.88413 0 
-1.06032 -1.88216 0 
-0.848858 -1.8839 0 
-0.636875 -1.88781 0 
-0.424169 -1.89034 0 
-0.211518 -1.89004 0 
0.000731944 -1.88866 0 
0.21257 -1.88788 0 
0.424308 -1.88807 0 
0.636257 -1.88793 0 
0.848362 -1.88664 0 
1.06025 -1.88556 0 
1.27191 -1.88605 0 
1.48381 -1.88664 0 
1.69595 -1.886 0 
1.90782 -1.88577 0 
2.11974 -1.88637 0 
2.33202 -1.88609 0 
2.54419 -1.88502 0 
2.75607 -1.88472 0 
2.96812 -1.88462 0 
3.18055 -1.88217 0 
3.39117 -1.88415 0 
3.60398 -1.8838 0 
3.81618 -1.88366 0 
4.02827 -1.88469 0 
4.24071 -1.88523 0 
4.4544 -1.88509 0 
4.66716 -1.88476 0 
4.88099 -1.88493 0 
5.09545 -1.88466 0 
5.31057 -1.88453 0 
5.52653 -1.88564 0 
5.7436 -1.88981 0 
5.96352 -1.89563 0 
6.18733 -1.89813 0 
6.41543 -1.89522 0 
6.65059 -1.89622 0 
6.87542 -1.86913 0 
7.11122 -1.81621 0 
7.31223 -1.94975 0 
7.53264 -1.87683 0 
7.77077 -1.89068 0 
8.01717 -1.8297 0 
8.25014 -1.93148 0 
8.48528 -1.79628 0 
-8.48528 -1.57009 0 
-8.24868 -1.70836 0 
-8.015 -1.61096 0 
-7.76734 -1.73071 0 
-7.54593 -1.61782 0 
-7.32306 -1.66278 0 
-7.05152 -1.7082 0 
-6.79786 -1.66675 0 
-6.56099 -1.64764 0 
-6.33267 -1.64541 0 
-6.10856 -1.64921 0 
-5.88638 -1.65073 0 
-5.66697 -1.65153 0 
-5.44986 -1.65353 0 
-5.23379 -1.65525 0 
-5.01882 -1.6551 0 
-4.80519 -1.6548 0 
-4.59235 -1.65478 0 
-4.37976 -1.65422 0 
-4.16737 -1.65386 0 
-3.95537 -1.65471 0 
-3.74326 -1.6554 0 
-3.5309 -1.65455 0 
-3.31876 -1.65426 0 
-3.10682 -1.65593 0 
-2.89443 -1.65705 0 
-2.68177 -1.65644 0 
-2.46924 -1.65516 0 
-2.25682 -1.65408 0 
-2.04447 -1.65386 0 
-1.83202 -1.65455 0 
-1.61911 -1.65506 0 
-1.40572 -1.65429 0 
-1.19212 -1.65207 0 
-0.97885 -1.64982 0 
-0.767325 -1.65372 0 
-0.555434 -1.6581 0 
-0.343588 -1.65935 0 
-0.132061 -1.65818 0 
0.0792288 -1.65687 0 
0.290417 -1.65682 0 
0.501823 -1.6575 0 
0.713729 -1.65709 0 
0.925861 -1.65545 0 
1.13768 -1.65488 0 
1.34929 -1.65604 0 
1.56128 -1.6563 0 
1.77337 -1.65516 0 
1.985 -1.65561 0 
2.19698 -1.65642 0 
2.40939 -1.65525 0 
2.62143 -1.65394 0 
2.83323 -1.65414 0 
3.04553 -1.65355 0 
3.25842 -1.64868 0 
3.46746 -1.65522 0 
3.68272 -1.65284 0 
3.89574 -1.65288 0 
4.10731 -1.65378 0 
4.32287 -1.65565 0 
4.53627 -1.65249 0 
4.74932 -1.65397 0 
4.96428 -1.65355 0 
5.17935 -1.65257 0 
5.3944 -1.65202 0 
5.60927 -1.65354 0 
5.82513 -1.66019 0 
6.04295 -1.66711 0 
6.26383 -1.66843 0 
6.48537 -1.66776 0 
6.70098 -1.65646 0 
6.91299 -1.6206 0 
7.11709 -1.6046 0 
7.3526 -1.69716 0 
7.60698 -1.65764 0 
7.8325 -1.64214 0 
8.05985 -1.58842 0 
8.2608 -1.69223 0 
8.48528 -1.56961 0 
-8.48528 -1.35019 0 
-8.24958 -1.48044 0 
-8.0219 -1.3751 0 
-7.79713 -1.50391 0 
-7.58956 -1.39834 0 
-7.36199 -1.38754 0 
-7.16079 -1.49923 0 
-6.93764 -1.46284 0 
[...]
POINT_DATA 2054 
VECTORS vectors float
0.0910431 -0.1107 0.989762 
0.101063 -0.0732087 0.99064 
0.0897356 -0.0639804 0.993006 
0.0891174 -0.0330666 0.995726 
0.106331 -0.00742245 0.994455 
0.118604 -0.0129392 0.992926 
0.115226 -0.00320965 0.993377 
0.116439 0.001565 0.993161 
0.10586 -0.00327963 0.994206 
0.0976454 0.0380487 0.994749 
0.104711 0.0703359 0.992273 
0.110229 0.0797955 0.990873 
0.113436 0.074527 0.990803 
0.114998 0.065227 0.991228 
0.11419 0.0576851 0.991752 
0.11162 0.0521229 0.992336 
0.107567 0.0505155 0.9929 
0.104075 0.0591564 0.992848 
0.102102 0.0715092 0.992283 
0.0995263 0.0866163 0.991348 
0.0978644 0.109855 0.989225 
0.096615 0.133061 0.986516 
0.0935479 0.15815 0.983144 
0.091521 0.183807 0.978892 
0.0908713 0.205003 0.974758 
0.088627 0.215782 0.972692 
0.0825175 0.221619 0.971951 
0.0756836 0.224086 0.972003 
0.0677039 0.215837 0.974535 
0.0577884 0.201123 0.978329 
0.0489586 0.177496 0.983327 
0.0399086 0.138997 0.989877 
0.0301907 0.0927073 0.995591 
0.0231313 0.0439197 0.999091 
0.0189868 -0.00712575 1.00011 
0.0158388 -0.0542702 0.998749 
0.0142206 -0.0886642 0.996373 
0.0159036 -0.1078 0.994527 
0.0208178 -0.114136 0.993785 
0.0281291 -0.110081 0.994123 
0.0364925 -0.0997821 0.995067 
0.0420326 -0.0845684 0.996412 
0.0426774 -0.0571545 0.998483 
0.0409939 -0.0114363 1.0002 
0.037601 0.05311 0.998853 
0.0308354 0.137908 0.990678 
0.018619 0.247464 0.969292 
-4.09558e-05 0.38958 0.921572 
-0.0200438 0.566595 0.824348 
-0.0346916 0.754264 0.656377 
-0.0407099 0.910642 0.412306 
-0.038349 0.994279 0.103972 
-0.0331709 0.975164 -0.221283 
-0.0326256 0.865485 -0.500786 
-0.0394863 0.708773 -0.704839 
-0.0515766 0.548689 -0.834823 
-0.06586 0.413399 -0.908447 
-0.0783048 0.310791 -0.94747 
-0.0858029 0.23281 -0.968894 
-0.0916936 0.172512 -0.980866 
-0.0959218 0.132547 -0.986645 
-0.0995978 0.100548 -0.989997 
-0.104149 0.0798045 -0.991365 
-0.108455 0.0707358 -0.991567 
-0.112897 0.0700034 -0.991141 
-0.115813 0.0742447 -0.990516 
-0.114356 0.0792289 -0.990405 
-0.111087 0.0785852 -0.990969 
-0.10504 0.0669581 -0.992599 
-0.096197 0.0306134 -0.994932 
-0.10877 -0.00707516 -0.9939 
-0.113531 -0.00124487 -0.993535 
-0.112706 -0.00370599 -0.993835 
-0.113457 -0.0115505 -0.993385 
-0.0989988 -0.00802497 -0.995134 
-0.082484 -0.0350906 -0.996289 
-0.0923751 -0.063365 -0.993068 
-0.103264 -0.0752849 -0.990416 
-0.0910492 -0.114713 -0.989278 
0.0421585 -0.104141 0.993681 
0.0518729 -0.113635 0.989454 
0.0802867 -0.0782736 0.994744 
0.0725675 -0.0449428 0.997287 
0.0812326 -0.0354777 0.997001 
0.0818879 -0.0184514 0.997516 
0.0793968 -0.0067072 0.997631 
0.0814236 0.000846338 0.997445 
0.080651 -0.000897108 0.997828 
0.0813743 0.0180703 0.997546 
0.0826288 0.0418523 0.996698 
0.0824477 0.0600482 0.995762 
0.0834816 0.0662176 0.995173 
0.0851472 0.0594907 0.995448 
0.084097 0.0532539 0.99591 
0.0797653 0.0521829 0.996348 
0.0736907 0.0533043 0.996759 
0.0678467 0.057586 0.996947 
0.063517 0.0668195 0.996672 
0.0607115 0.0811134 0.995829 
0.058384 0.100988 0.994196 
0.0549249 0.123977 0.991806 
0.0490394 0.147912 0.988861 
0.0409617 0.172195 0.985319 
0.0304037 0.195112 0.98146 
0.0152861 0.213433 0.977987 
-0.00632956 0.226661 0.975102 
-0.0351862 0.235837 0.972364 
-0.0722915 0.238533 0.96963 
-0.117318 0.23218 0.966682 
-0.165936 0.214532 0.963559 
-0.213457 0.183014 0.96055 
-0.256716 0.138552 0.957241 
-0.290939 0.0854608 0.953527 
-0.311348 0.0280489 0.95039 
-0.315878 -0.0280968 0.948901 
-0.305272 -0.0762692 0.949795 
-0.282449 -0.111779 0.953476 
-0.251583 -0.131667 0.959731 
-0.217044 -0.135889 0.967713 
-0.182182 -0.126525 0.976365 
-0.150251 -0.106552 0.984407 
-0.124985 -0.0760865 0.990976 
-0.107714 -0.0312999 0.995535 
-0.0987627 0.030455 0.9964 
-0.0977355 0.111547 0.990652 
-0.104134 0.216123 0.972477 
-0.115782 0.34764 0.932128 
-0.129545 0.509969 0.851715 
-0.141383 0.690181 0.710669 
-0.146218 0.856356 0.495961 
-0.140628 0.96735 0.211748 
-0.125618 0.98642 -0.108278 
-0.107143 0.908325 -0.405566 
-0.0905864 0.767523 -0.635885 
-0.0785422 0.608865 -0.790691 
-0.0718488 0.465332 -0.883531 
-0.0695239 0.349913 -0.935439 
-0.0686588 0.261246 -0.963996 
-0.0677654 0.193957 -0.979812 
-0.0670308 0.145434 -0.98812 
-0.0677063 0.111416 -0.992449 
-0.0705526 0.0881817 -0.994585 
-0.0745074 0.0740183 -0.995418 
-0.0788604 0.0664065 -0.995613 
-0.0820966 0.0645613 -0.99548 
-0.0813074 0.0677843 -0.995334 
-0.0805577 0.0659528 -0.995595 
-0.0785117 0.0516124 -0.996632 
-0.0804711 0.0262321 -0.997767 
-0.0748321 0.00341524 -0.99838 
-0.0887228 0.00314362 -0.996825 
-0.0806674 -0.00486345 -0.997733 
-0.0872331 -0.0109293 -0.997195 
-0.0821373 -0.0323429 -0.997118 
-0.0783154 -0.0386546 -0.997 
-0.0806378 -0.0688461 -0.99562 
-0.0545205 -0.111476 -0.990178 
-0.0436121 -0.116514 -0.992481 
0.0283656 -0.121708 0.991972 
0.0516845 -0.103067 0.995206 
0.0315787 -0.0372712 0.999438 
0.0435387 -0.0707994 0.996891 
0.0537129 -0.0295175 0.99899 
0.0650261 -0.0242532 0.998427 
0.0652973 -0.000345236 0.998278 
0.0593568 -1.78681e-05 0.998928 
0.0613696 0.00774332 0.998812 
0.0639987 0.0227799 0.998117 
0.0609344 0.0395387 0.997915 
0.0634983 0.0566387 0.996879 
0.068612 0.0549934 0.996567 
0.0688487 0.0469959 0.996968 
0.0640126 0.048944 0.997274 
0.0572468 0.0554589 0.997358 
0.0504361 0.0604278 0.997478 
0.0439284 0.0665723 0.997488 
0.0385424 0.077812 0.996946 
0.0343064 0.0954748 0.995651 
0.0294031 0.118103 0.993429 
0.021209 0.142998 0.990388 
0.00863965 0.168854 0.986524 
-0.00855957 0.195423 0.981609 
-0.0324831 0.221811 0.975511 
-0.0664207 0.246474 0.967877 
-0.112727 0.268569 0.957673 
-0.173157 0.286448 0.943329 
-0.247854 0.295861 0.923468 
-0.332228 0.291178 0.897963 
-0.418484 0.26808 0.868379 
-0.499113 0.224907 0.837228 
-0.566075 0.164006 0.808041 
-0.611826 0.0914466 0.785701 
-0.631157 0.015018 0.775533 
-0.623033 -0.057047 0.780245 
-0.59143 -0.117755 0.798062 
-0.543061 -0.159893 0.824914 
-0.48571 -0.180185 0.85618 
-0.425458 -0.178763 0.888205 
-0.367015 -0.158156 0.917944 
-0.31538 -0.122352 0.94248 
-0.274997 -0.0731402 0.960074 
-0.247216 -0.00939918 0.970298 
-0.231873 0.0730401 0.971308 
-0.227898 0.174876 0.959357 
-0.233661 0.29956 0.926581 
-0.245751 0.450398 0.859819 
-0.258529 0.620624 0.741416 
-0.265886 0.788587 0.555243 
-0.2615 0.918316 0.297762 
-0.24112 0.970591 -0.00887533 
-0.207357 0.927136 -0.313149 
-0.168646 0.809028 -0.564161 
-0.132549 0.659039 -0.741485 
-0.104075 0.513251 -0.853065 
-0.0845893 0.390389 -0.917892 
-0.0719967 0.293126 -0.954428 
-0.0634728 0.218209 -0.974804 
-0.0574981 0.163042 -0.985827 
-0.0550165 0.124876 -0.991439 
-0.0558859 0.0994961 -0.994179 
-0.0585597 0.0826051 -0.995448 
-0.0624757 0.0698725 -0.996162 
-0.0680696 0.0595523 -0.996401 
-0.070605 0.0570988 -0.996288 
-0.0674091 0.0609704 -0.996264 
-0.0632295 0.0527033 -0.997122 
-0.0664465 0.0323679 -0.99787 
-0.0673867 0.0163084 -0.998029 
-0.0609484 0.00359275 -0.999114 
-0.062071 0.000950778 -0.998535 
-0.0608262 -0.00534355 -0.998696 
-0.0657095 -0.015483 -0.998383 
-0.0507139 -0.0350891 -0.999178 
-0.0402728 -0.062784 -0.997495 
-0.0291604 -0.0402045 -0.999624 
-0.0497023 -0.0969568 -0.996083 
-0.027114 -0.130521 -0.991047 
0.0188501 -0.132378 0.990953 
0.0184343 -0.0886896 0.997048 
0.0485577 -0.070886 0.996947 
0.0431211 -0.0733782 0.996541 
0.0499694 -0.0530749 0.99807 
0.059395 -0.0342924 0.998695 
0.0594647 -0.0123282 0.998847 
0.0535568 0.00139854 0.999176 
0.05399 -0.0032079 0.999679 
0.0620538 0.0077421 0.999067 
0.0603794 0.0197467 0.999006 
0.0589533 0.0435581 0.998156 
0.0669878 0.0546631 0.997138 
0.0725237 0.0458002 0.997077 
0.0703516 0.0456616 0.997218 
0.0644842 0.0581415 0.996995 
0.0577852 0.068237 0.996754 
0.050382 0.0728911 0.996823 
0.0425811 0.0792146 0.996724 
0.0356442 0.0926013 0.995907 
0.0285932 0.113632 0.994041 
0.018402 0.139352 0.99103 
0.00300255 0.167486 0.986862 
-0.0184929 0.198594 0.980963 
-0.0482604 0.233352 0.972333 
-0.0901177 0.270712 0.959616 
-0.147789 0.309544 0.940528 
-0.224551 0.347997 0.911398 
-0.321524 0.380252 0.868323 
-0.433648 0.39663 0.810023 
-0.550699 0.388367 0.739403 
-0.661808 0.350842 0.662588 
-0.756765 0.284115 0.588232 
-0.826809 0.194097 0.526908 
-0.866668 0.0915654 0.489121 
-0.874141 -0.0113304 0.484366 
-0.851726 -0.103961 0.512811 
-0.805002 -0.177556 0.565886 
-0.741862 -0.224061 0.63231 
-0.670409 -0.240408 0.70267 
-0.596274 -0.22897 0.770504 
-0.52535 -0.192896 0.829957 
-0.464254 -0.13866 0.876091 
-0.418253 -0.0698953 0.90695 
-0.388017 0.0142144 0.922969 
-0.372401 0.116448 0.92228 
-0.369534 0.238654 0.899506 
-0.376863 0.381663 0.845475 
-0.388772 0.541897 0.746369 
-0.397653 0.705786 0.587285 
-0.394933 0.845626 0.360023 
-0.372389 0.925346 0.0740447 
-0.327507 0.917342 -0.227827 
-0.269734 0.828892 -0.491429 
-0.212718 0.695102 -0.688085 
-0.164385 0.553947 -0.817475 
-0.127548 0.427806 -0.896064 
-0.101557 0.325674 -0.941173 
-0.0843475 0.245532 -0.966813 
-0.0731225 0.184337 -0.981122 
-0.0662145 0.141151 -0.988656 
-0.0639114 0.113679 -0.992263 
-0.0651624 0.0968974 -0.993976 
-0.0674286 0.0833543 -0.995007 
-0.0710206 0.0675243 -0.995969 
-0.0743411 0.0538444 -0.996604 
-0.0719333 0.0542516 -0.996819 
-0.0645885 0.0579651 -0.997163 
-0.0575037 0.0395376 -0.998531 
-0.0609954 0.0166522 -0.999147 
-0.056374 0.00739863 -0.999326 
-0.0463235 -0.0038846 -0.999919 
-0.0527804 0.00185163 -0.999049 
-0.0602677 -0.0269846 -0.998672 
-0.0538924 -0.0447533 -0.998624 
-0.0444838 -0.0695779 -0.997341 
-0.0403375 -0.072056 -0.99674 
-0.0137375 -0.0904439 -0.996947 
-0.0203384 -0.130094 -0.991238 
0.00149974 -0.149755 0.988728 
0.0230098 -0.102031 0.995561 
0.0298115 -0.0765455 0.997266 
0.0399579 -0.069086 0.997336 
0.0445837 -0.0552392 0.998166 
0.047182 -0.0236983 0.99955 
0.0468755 -0.0027985 0.998714 
0.0396863 -0.0100045 0.999625 
0.0462937 -0.00425768 0.999364 
0.0517455 0.00241864 0.999081 
0.0448751 0.0218559 0.999249 
0.0471636 0.0492199 0.998183 
0.0570938 0.0481726 0.997747 
0.0594521 0.0410496 0.997895 
0.0548398 0.054233 0.997667 
0.0486707 0.0730987 0.996726 
0.0414898 0.0817517 0.996354 
0.0325814 0.0844714 0.996507 
0.0238786 0.092131 0.996106 
0.0157522 0.110085 0.994568 
0.00508427 0.136259 0.991516 
-0.0107123 0.166546 0.986832 
-0.0328568 0.201162 0.979892 
-0.0635488 0.242945 0.968907 
-0.10673 0.292266 0.951346 
-0.167379 0.348013 0.923389 
-0.250498 0.408645 0.878572 
-0.358293 0.467564 0.808943 
-0.485406 0.510614 0.71026 
-0.619 0.522602 0.58629 
-0.74442 0.494138 0.448322 
-0.849532 0.423472 0.312633 
-0.926748 0.317485 0.197008 
-0.973863 0.190468 0.117729 
-0.993972 0.0588884 0.0857614 
-0.991484 -0.0643461 0.109244 
-0.968751 -0.169906 0.179237 
-0.927327 -0.248196 0.279804 
-0.871007 -0.29324 0.394367 
-0.804438 -0.303235 0.511401 
-0.732883 -0.279963 0.62115 
-0.66318 -0.228659 0.714145 
-0.604039 -0.155333 0.783396 
-0.560195 -0.0664048 0.827581 
-0.532543 0.0389671 0.847244 
-0.519984 0.163209 0.839968 
-0.520465 0.304078 0.799317 
-0.529399 0.4592 0.714532 
-0.537066 0.619047 0.573764 
-0.531818 0.761988 0.369784 
-0.503648 0.85705 0.10841 
-0.447227 0.876398 -0.178941 
-0.370154 0.817714 -0.441627 
-0.290028 0.707311 -0.645662 
-0.220823 0.577875 -0.786776 
-0.166425 0.456654 -0.875046 
-0.125414 0.352627 -0.928332 
-0.0964159 0.270603 -0.958823 
-0.0773657 0.20608 -0.976398 
-0.0651079 0.157207 -0.986257 
-0.0574489 0.124806 -0.991253 
-0.0547039 0.107441 -0.993295 
-0.0555393 0.0978089 -0.994258 
-0.0575882 0.0843423 -0.995364 
-0.0604837 0.0622986 -0.996818 
-0.0625564 0.0467484 -0.997425 
-0.0577733 0.0526276 -0.997326 
-0.0506691 0.0529089 -0.997753 
-0.0502719 0.0224154 -0.998933 
-0.0535594 0.00304093 -0.998912 
-0.0493073 -0.001417 -0.999342 
-0.0403426 -0.00702076 -0.999403 
-0.0400915 -0.000696264 -0.999207 
-0.0502076 -0.0299267 -0.999412 
-0.0451723 -0.0538163 -0.997688 
-0.0325001 -0.0668845 -0.997669 
-0.0312098 -0.0781473 -0.997296 
-0.0187309 -0.0971435 -0.996173 
-0.00294122 -0.141391 -0.98998 
0.017292 -0.149881 0.988581 
0.0163237 -0.0994946 0.995716 
0.0204304 -0.0892516 0.996172 
0.0270003 -0.0732719 0.997542 
0.0299195 -0.0638622 0.998326 
0.0335407 -0.0308682 1.00013 
0.0335433 -0.00918197 0.999852 
0.0296762 -0.0124087 1.00034 
0.039294 -0.00577755 0.999848 
0.0380262 -0.000105628 1.00044 
0.0330105 0.0323281 0.999585 
0.0395842 0.0495827 0.998848 
0.0450987 0.0385152 0.998905 
0.041515 0.043685 0.998987 
0.0345709 0.0694682 0.997843 
0.0272543 0.0880903 0.996479 
0.01911 0.0920088 0.996274 
0.0111543 0.0942482 0.996188 
0.00345046 0.106799 0.995068 
-0.00597215 0.131513 0.992172 
-0.0195256 0.163386 0.987268 
-0.0392664 0.200357 0.979886 
-0.066989 0.246242 0.96792 
-0.106043 0.304416 0.947736 
-0.161654 0.37448 0.914236 
-0.240313 0.454716 0.858832 
-0.345844 0.538734 0.769403 
-0.473033 0.609655 0.637107 
-0.60649 0.645183 0.465316 
-0.727978 0.629739 0.270682 
-0.824305 0.559939 0.0778678 
-0.890557 0.444634 -0.0881394 
-0.929553 0.301591 -0.208264 
-0.949383 0.151627 -0.272327 
-0.959519 0.0090924 -0.279164 
-0.966329 -0.118861 -0.225946 
-0.965356 -0.226304 -0.127063 
-0.952766 -0.303025 0.00233389 
-0.927239 -0.343593 0.14842 
-0.888744 -0.346876 0.299832 
-0.840287 -0.312806 0.443164 
-0.789218 -0.245178 0.56351 
-0.744396 -0.15338 0.650346 
-0.711396 -0.0436228 0.701936 
-0.691002 0.0823387 0.718754 
-0.68219 0.222829 0.69704 
-0.682375 0.373548 0.629071 
-0.683479 0.527601 0.504956 
-0.670855 0.667857 0.322433 
-0.633209 0.768859 0.0889147 
-0.565182 0.806845 -0.172823 
-0.472128 0.774731 -0.421543 
-0.371496 0.68985 -0.622408 
-0.281396 0.580304 -0.765466 
-0.209023 0.466814 -0.860474 
-0.15468 0.370047 -0.917154 
-0.112816 0.286976 -0.95234 
-0.0828885 0.222781 -0.972344 
-0.0632329 0.172189 -0.983978 
-0.0507806 0.134014 -0.990504 
-0.0427663 0.111931 -0.993564 
-0.0395746 0.103545 -0.994536 
-0.0404676 0.0983024 -0.995044 
-0.0424508 0.0818354 -0.996552 
-0.0445065 0.0536034 -0.998438 
-0.0454224 0.039783 -0.998845 
-0.0402924 0.0509772 -0.998742 
-0.0332745 0.0441998 -0.999167 
-0.0380283 0.00734004 -1.00034 
-0.0419392 -0.00614943 -0.999757 
-0.0330817 -0.00791949 -1.00019 
-0.0290199 -0.00912533 -1.00025 
-0.0301539 -0.00738233 -0.999427 
-0.038285 -0.0402152 -0.999581 
-0.0343471 -0.0664455 -0.997914 
-0.0255937 -0.0813302 -0.996812 
-0.0158676 -0.0841959 -0.996802 
-0.0093342 -0.107115 -0.995153 
-0.0175824 -0.142997 -0.989667 
0.00957905 -0.137887 0.990488 
0.0159001 -0.101174 0.995595 
0.0161721 -0.0898052 0.996504 
0.0230171 -0.080459 0.997074 
0.0216497 -0.0742483 0.997274 
0.0253361 -0.0398067 0.999926 
0.028009 -0.015141 0.999436 
0.0298461 -0.0131503 1.00019 
0.0395126 -0.0111073 0.99989 
0.0436976 -0.0130932 0.999824 
0.0375135 0.0082632 0.999832 
0.0357963 0.0429923 0.998843 
0.040546 0.040517 0.998923 
0.040137 0.0321371 0.999089 
0.0343926 0.054831 0.998555 
0.027291 0.0854583 0.99651 
0.0202716 0.097932 0.995417 
0.0137574 0.0981729 0.995525 
0.00752769 0.103791 0.995098 
-7.97096e-05 0.123813 0.992985 
-0.0111209 0.155685 0.988471 
-0.0276109 0.19451 0.981308 
-0.0511898 0.241961 0.969789 
-0.0842251 0.304166 0.949823 
-0.131234 0.383984 0.915038 
-0.199024 0.47975 0.855643 
-0.293171 0.585887 0.756506 
-0.410038 0.684772 0.603202 
-0.533606 0.747331 0.39608 
-0.642866 0.749595 0.155569 
-0.723068 0.684806 -0.0852054 
-0.771402 0.564613 -0.29191 
-0.795437 0.412194 -0.443386 
-0.806876 0.25175 -0.533925 
-0.816398 0.100137 -0.56873 
-0.832655 -0.0362755 -0.552901 
-0.860146 -0.155745 -0.486113 
-0.888228 -0.255908 -0.382049 
-0.911983 -0.32691 -0.248451 
-0.927211 -0.362709 -0.0941705 
-0.930024 -0.360786 0.0701947 
-0.919446 -0.319601 0.229175 
-0.899832 -0.241814 0.363261 
-0.878146 -0.137677 0.45856 
-0.860256 -0.0138086 0.510224 
-0.847471 0.126643 0.515952 
-0.838108 0.277131 0.470182 
-0.826654 0.427528 0.366083 
-0.80058 0.563143 0.204711 
-0.748058 0.663714 0.0019669 
-0.666127 0.711564 -0.224743 
-0.560119 0.699484 -0.445117 
-0.44545 0.639151 -0.62813 
-0.340388 0.552451 -0.762111 
-0.25398 0.456738 -0.853777 
-0.187515 0.36432 -0.913386 
-0.139106 0.293392 -0.946798 
-0.100203 0.227137 -0.969642 
-0.0747961 0.179541 -0.981732 
-0.0571861 0.139883 -0.989286 
-0.0472718 0.11255 -0.993136 
-0.0408984 0.100658 -0.99458 
-0.0380066 0.100006 -0.994701 
-0.0393887 0.0952927 -0.995103 
-0.0423233 0.0721075 -0.997095 
-0.0454275 0.0407494 -0.998593 
-0.0473921 0.0342001 -0.998591 
-0.0434902 0.0479559 -0.998413 
-0.0379342 0.0323465 -0.999056 
-0.0418219 -0.00458636 -1.00008 
-0.0429897 -0.0119036 -0.99958 
-0.0329793 -0.0134574 -1.00021 
-0.0268804 -0.0131634 -1.00009 
-0.022437 -0.024647 -0.999724 
-0.0201904 -0.0558752 -0.998869 
-0.0177877 -0.0770231 -0.997318 
-0.0185028 -0.0885087 -0.996805 
-0.01277 -0.10281 -0.995754 
-0.0120965 -0.131162 -0.99145 
0.0101587 -0.150582 0.988498 
0.0150023 -0.110225 0.994683 
0.0205161 -0.0901933 0.996303 
0.0207732 -0.0857354 0.996676 
0.028787 -0.0670528 0.998041 
0.0346797 -0.0322399 0.999398 
0.0312458 -0.0210533 0.9996 
0.0362622 -0.0204695 0.999689 
0.0407322 -0.0200338 0.999291 
0.0390308 -0.0143224 1.00003 
0.0368868 0.0228726 0.999242 
0.0410124 0.0434392 0.998915 
0.0444347 0.0294546 0.999016 
0.0414503 0.0370508 0.999102 
0.0355005 0.0726138 0.997534 
0.0298372 0.0990501 0.99526 
0.0250779 0.10373 0.994799 
0.0204877 0.103584 0.994915 
0.0150032 0.115779 0.993763 
0.00695951 0.144185 0.990224 
-0.0058623 0.183381 0.983772 
-0.0249661 0.230769 0.973502 
-0.0516728 0.291766 0.955987 
-0.0888415 0.373226 0.92449 
-0.142375 0.476353 0.868754 
-0.218325 0.596709 0.773228 
-0.316474 0.720008 0.618542 
-0.423944 0.813959 0.397895 
-0.51973 0.844096 0.131255 
-0.587513 0.796063 -0.143608 
-0.623618 0.680406 -0.384991 
-0.636967 0.526065 -0.5644 
-0.640476 0.36194 -0.678618 
-0.644085 0.206533 -0.738077 
-0.655339 0.0685306 -0.75392 
-0.682072 -0.051408 -0.731139 
-0.726079 -0.157581 -0.670782 
-0.777125 -0.246287 -0.580441 
-0.831623 -0.308869 -0.462492 
-0.883889 -0.339093 -0.322658 
-0.9271 -0.334372 -0.169446 
-0.956624 -0.290516 -0.018676 
-0.971745 -0.209537 0.107633 
-0.976105 -0.100349 0.192129 
-0.973021 0.0289604 0.228192 
-0.961551 0.17131 0.213594 
-0.937813 0.315684 0.142936 
-0.895094 0.445267 0.0176865 
-0.826726 0.543377 -0.145867 
-0.732587 0.598138 -0.3254 
-0.617614 0.60307 -0.505755 
-0.495035 0.564619 -0.661491 
-0.383001 0.501614 -0.776808 
-0.289689 0.426905 -0.85771 
-0.217125 0.349696 -0.91249 
-0.161303 0.276745 -0.948323 
-0.122087 0.230677 -0.966161 
-0.0932816 0.179034 -0.980293 
-0.071319 0.143294 -0.987862 
-0.0601409 0.11366 -0.992348 
-0.0535403 0.0963385 -0.994447 
-0.0488608 0.0941228 -0.994811 
-0.0460384 0.0986811 -0.994558 
-0.0468524 0.0888839 -0.995692 
-0.0486406 0.056755 -0.998001 
-0.0508659 0.0277506 -0.998874 
-0.0495486 0.0325952 -0.998692 
-0.0434382 0.0445174 -0.998848 
-0.0358162 0.0177692 -0.998934 
-0.0367604 -0.0154588 -1.00034 
-0.0389942 -0.0201044 -0.999193 
-0.0379316 -0.0189682 -0.999585 
-0.0365636 -0.0204359 -0.999121 
-0.0235246 -0.0296233 -0.999786 
-0.0233985 -0.0666965 -0.998083 
-0.0247972 -0.0800909 -0.99707 
-0.0168209 -0.0872137 -0.996303 
-0.0128387 -0.121139 -0.993339 
-0.00957483 -0.145201 -0.989316 
0.0302684 -0.14743 0.988556 
0.024929 -0.112448 0.994275 
0.0301171 -0.0894532 0.995995 
0.032634 -0.0894902 0.996222 
0.0407529 -0.0638653 0.997639 
0.048106 -0.0361792 0.998682 
0.043583 -0.0306416 0.998848 
0.0484708 -0.0273526 0.998828 
0.0509926 -0.0279249 0.998911 
0.054947 -0.0044528 0.999006 
0.0598202 0.0355793 0.997712 
0.0640155 0.0357709 0.997994 
0.0622918 0.0278909 0.998196 
0.0564629 0.0566299 0.997645 
0.0503442 0.0962477 0.994874 
0.0455212 0.112867 0.993209 
0.0415291 0.111221 0.993567 
0.0368855 0.114271 0.993493 
0.0309543 0.135106 0.991226 
0.0221511 0.171627 0.985824 
0.00878731 0.217886 0.97687 
-0.0105222 0.275598 0.962177 
-0.0373101 0.353346 0.935793 
-0.075842 0.456297 0.887745 
-0.132073 0.582448 0.803254 
-0.208249 0.721481 0.661547 
-0.296379 0.844868 0.446848 