# vtk DataFile Version 3.0 
Exported using Morpho https://github.com/Morpho-lang/morpho 
ASCII 
DATASET UNSTRUCTURED_GRID 

POINTS 2054 float 
-8.48528 -2.82843 0 
-8.20636 -2.82843 0 
-7.94054 -2.82843 0 
-7.6904 -2.82843 0 
-7.45357 -2.82843 0 
-7.22694 -2.82843 0 
-7.00705 -2.82843 0 
-6.79111 -2.82843 0 
-6.57731 -2.82843 0 
-6.36453 -2.82843 0 
-6.15219 -2.82843 0 
-5.94 -2.82843 0 
-5.72786 -2.82843 0 
-5.51573 -2.82843 0 
-5.3036 -2.82843 0 
-5.09147 -2.82843 0 
-4.87933 -2.82843 0 
-4.6672 -2.82843 0 
-4.45507 -2.82843 0 
-4.24294 -2.82843 0 
-4.03081 -2.82843 0 
-3.81867 -2.82843 0 
-3.60654 -2.82843 0 
-3.39441 -2.82843 0 
-3.18228 -2.82843 0 
-2.97015 -2.82843 0 
-2.75801 -2.82843 0 
-2.54588 -2.82843 0 
-2.33375 -2.82843 0 
-2.12162 -2.82843 0 
-1.90949 -2.82843 0 
-1.69735 -2.82843 0 
-1.48522 -2.82843 0 
-1.27309 -2.82843 0 
-1.06096 -2.82843 0 
-0.848825 -2.82843 0 
-0.636693 -2.82843 0 
-0.424561 -2.82843 0 
-0.212429 -2.82843 0 
-0.000296761 -2.82843 0 
0.211835 -2.82843 0 
0.423967 -2.82843 0 
0.636099 -2.82843 0 
0.848231 -2.82843 0 
1.06036 -2.82843 0 
1.2725 -2.82843 0 
1.48463 -2.82843 0 
1.69676 -2.82843 0 
1.90889 -2.82843 0 
2.12102 -2.82843 0 
2.33316 -2.82843 0 
2.54529 -2.82843 0 
2.75742 -2.82843 0 
2.96955 -2.82843 0 
3.18168 -2.82843 0 
3.39382 -2.82843 0 
3.60595 -2.82843 0 
3.81808 -2.82843 0 
4.03021 -2.82843 0 
4.24234 -2.82843 0 
4.45448 -2.82843 0 
4.66661 -2.82843 0 
4.87874 -2.82843 0 
5.09087 -2.82843 0 
5.303 -2.82843 0 
5.51514 -2.82843 0 
5.72727 -2.82843 0 
5.93941 -2.82843 0 
6.15159 -2.82843 0 
6.36393 -2.82843 0 
6.57672 -2.82843 0 
6.79055 -2.82843 0 
7.00652 -2.82843 0 
7.22647 -2.82843 0 
7.45313 -2.82843 0 
7.69005 -2.82843 0 
7.9403 -2.82843 0 
8.20621 -2.82843 0 
8.48528 -2.82843 0 
-8.48528 -2.5495 0 
-8.30526 -2.64845 0 
-8.07062 -2.59995 0 
-7.83904 -2.59637 0 
-7.59595 -2.59733 0 
-7.36578 -2.59177 0 
-7.13796 -2.5933 0 
-6.90908 -2.59428 0 
-6.68421 -2.5916 0 
-6.46568 -2.58832 0 
-6.24926 -2.58859 0 
-6.03358 -2.58941 0 
-5.81848 -2.59013 0 
-5.60402 -2.59075 0 
-5.39005 -2.59135 0 
-5.17642 -2.59186 0 
-4.96311 -2.59223 0 
-4.75009 -2.59242 0 
-4.53736 -2.59244 0 
-4.32497 -2.59236 0 
-4.1128 -2.59242 0 
-3.90059 -2.59259 0 
-3.68835 -2.5926 0 
-3.47627 -2.59248 0 
-3.26428 -2.59251 0 
-3.05216 -2.59271 0 
-2.83986 -2.59283 0 
-2.62755 -2.59274 0 
-2.41539 -2.59253 0 
-2.20336 -2.59238 0 
-1.99135 -2.59238 0 
-1.77924 -2.59246 0 
-1.56704 -2.59244 0 
-1.35495 -2.59215 0 
-1.14319 -2.59183 0 
-0.931581 -2.59195 0 
-0.719663 -2.59256 0 
-0.507197 -2.59324 0 
-0.294425 -2.59354 0 
-0.0817689 -2.59344 0 
0.130587 -2.59325 0 
0.342804 -2.59322 0 
0.555051 -2.59322 0 
0.767233 -2.59303 0 
0.97919 -2.59278 0 
1.19107 -2.59278 0 
1.40311 -2.59289 0 
1.61524 -2.59286 0 
1.82732 -2.59279 0 
2.03943 -2.59281 0 
2.25163 -2.5928 0 
2.46381 -2.59266 0 
2.67591 -2.59254 0 
2.88801 -2.59237 0 
3.10001 -2.59226 0 
3.31203 -2.59216 0 
3.52402 -2.59207 0 
3.73601 -2.59208 0 
3.94815 -2.59221 0 
4.16052 -2.5923 0 
4.37309 -2.59232 0 
4.58593 -2.59227 0 
4.79921 -2.5922 0 
5.01319 -2.59212 0 
5.22833 -2.5921 0 
5.44534 -2.59239 0 
5.6657 -2.59346 0 
5.89185 -2.59569 0 
6.12685 -2.59429 0 
6.36853 -2.59189 0 
6.6108 -2.57787 0 
6.84491 -2.61411 0 
7.08804 -2.58476 0 
7.34858 -2.60369 0 
7.58803 -2.59327 0 
7.83059 -2.59326 0 
8.06387 -2.59199 0 
8.30038 -2.64348 0 
8.48528 -2.54936 0 
-8.48528 -2.28369 0 
-8.25701 -2.4138 0 
-8.01078 -2.35334 0 
-7.73666 -2.37963 0 
-7.49744 -2.35565 0 
-7.26898 -2.35831 0 
-7.03324 -2.36676 0 
-6.7997 -2.36275 0 
-6.5773 -2.35166 0 
-6.35808 -2.3495 0 
-6.14038 -2.35058 0 
-5.92336 -2.35185 0 
-5.70723 -2.35272 0 
-5.49199 -2.35362 0 
-5.27734 -2.35447 0 
-5.0632 -2.35505 0 
-4.84958 -2.35534 0 
-4.63641 -2.35533 0 
-4.42363 -2.35504 0 
-4.21126 -2.35485 0 
-3.99909 -2.35513 0 
-3.78684 -2.3554 0 
-3.57461 -2.35516 0 
-3.36263 -2.35498 0 
-3.15066 -2.35537 0 
-2.93843 -2.35586 0 
-2.72604 -2.35589 0 
-2.51374 -2.35551 0 
-2.30162 -2.35509 0 
-2.08964 -2.35496 0 
-1.87761 -2.35518 0 
-1.66544 -2.3554 0 
-1.45322 -2.35518 0 
-1.2412 -2.35438 0 
-1.02967 -2.35407 0 
-0.818162 -2.35505 0 
-0.606054 -2.35676 0 
-0.393243 -2.3579 0 
-0.180256 -2.35789 0 
0.0323765 -2.35727 0 
0.244686 -2.35692 0 
0.456926 -2.35692 0 
0.669206 -2.35667 0 
0.881318 -2.35598 0 
1.09315 -2.35559 0 
1.305 -2.35583 0 
1.51709 -2.35595 0 
1.72919 -2.35571 0 
1.9412 -2.35566 0 
2.15334 -2.3558 0 
2.36559 -2.3556 0 
2.57772 -2.35522 0 
2.78976 -2.35507 0 
3.0019 -2.35461 0 
3.21373 -2.35451 0 
3.42571 -2.35439 0 
3.63769 -2.35431 0 
3.84965 -2.35453 0 
4.06183 -2.35491 0 
4.27435 -2.35507 0 
4.48707 -2.35507 0 
4.70017 -2.35506 0 
4.91376 -2.35498 0 
5.12819 -2.35502 0 
5.34378 -2.35528 0 
5.56106 -2.35662 0 
5.78097 -2.35971 0 
6.00401 -2.36251 0 
6.2308 -2.3624 0 
6.45748 -2.35551 0 
6.68075 -2.33423 0 
6.88797 -2.39744 0 
7.05313 -2.27289 0 
7.24377 -2.40237 0 
7.48542 -2.36016 0 
7.73055 -2.36599 0 
7.99177 -2.33552 0 
8.24864 -2.40698 0 
8.48528 -2.28345 0 
-8.48528 -2.03355 0 
-8.25312 -2.18214 0 
-8.03669 -2.07913 0 
-7.83956 -2.18231 0 
-7.6106 -2.12852 0 
-7.38852 -2.10959 0 
-7.16268 -2.14097 0 
-6.9229 -2.1435 0 
-6.70119 -2.12055 0 
-6.48111 -2.11285 0 
-6.26282 -2.11284 0 
-6.045 -2.1151 0 
-5.82775 -2.11658 0 
-5.61153 -2.11776 0 
-5.3962 -2.1192 0 
-5.18144 -2.1203 0 
-4.96732 -2.12084 0 
-4.75387 -2.12105 0 
-4.54086 -2.12091 0 
-4.32822 -2.12045 0 
-4.11596 -2.12045 0 
-3.90382 -2.12107 0 
-3.69156 -2.12116 0 
-3.47938 -2.12058 0 
-3.26746 -2.12068 0 
-3.05542 -2.12154 0 
-2.84307 -2.12198 0 
-2.63064 -2.12162 0 
-2.41836 -2.12087 0 
-2.20626 -2.12031 0 
-1.99426 -2.12034 0 
-1.78217 -2.1207 0 
-1.56989 -2.12074 0 
-1.35755 -2.11993 0 
-1.14542 -2.11838 0 
-0.934012 -2.11859 0 
-0.722404 -2.12089 0 
-0.509943 -2.12344 0 
-0.296911 -2.12431 0 
-0.0840921 -2.12359 0 
0.128295 -2.12281 0 
0.340414 -2.12274 0 
0.552564 -2.12288 0 
0.76478 -2.12226 0 
0.976792 -2.1213 0 
1.18855 -2.12128 0 
1.40042 -2.12188 0 
1.61256 -2.12177 0 
1.82458 -2.12141 0 
2.03655 -2.12164 0 
2.24875 -2.12174 0 
2.46099 -2.12114 0 
2.67302 -2.12065 0 
2.88504 -2.12054 0 
3.09728 -2.1194 0 
3.30873 -2.11968 0 
3.52086 -2.1195 0 
3.7329 -2.11938 0 
3.94484 -2.11986 0 
4.15715 -2.12044 0 
4.36983 -2.12035 0 
4.58282 -2.1204 0 
4.79606 -2.12017 0 
5.01004 -2.12012 0 
5.22483 -2.12002 0 
5.44073 -2.12051 0 
5.6582 -2.123 0 
5.8782 -2.12696 0 
6.10217 -2.12971 0 
6.33095 -2.12707 0 
6.567 -2.11601 0 
6.82301 -2.12303 0 
7.06572 -2.04567 0 
7.29733 -2.17484 0 
7.54632 -2.11408 0 
7.79371 -2.13741 0 
8.02274 -2.07453 0 
8.25027 -2.1738 0 
8.48528 -2.0332 0 
-8.48528 -1.79671 0 
-8.25436 -1.93882 0 
-8.01299 -1.83977 0 
-7.78596 -1.953 0 
-7.5297 -1.87194 0 
-7.2756 -1.88722 0 
-7.05707 -1.93544 0 
-6.84369 -1.89677 0 
-6.62219 -1.88079 0 
-6.40169 -1.87606 0 
-6.18206 -1.87854 0 
-5.96274 -1.881 0 
-5.74458 -1.88208 0 
-5.52796 -1.88344 0 
-5.31232 -1.88506 0 
-5.09736 -1.88569 0 
-4.88338 -1.88564 0 
-4.67019 -1.88555 0 
-4.45737 -1.88507 0 
-4.24485 -1.88447 0 
-4.03271 -1.88482 0 
-3.82061 -1.88562 0 
-3.60832 -1.88529 0 
-3.39617 -1.88464 0 
-3.18427 -1.88547 0 
-2.97209 -1.88672 0 
-2.7596 -1.88684 0 
-2.54714 -1.88601 0 
-2.33483 -1.88505 0 
-2.12268 -1.8846 0 
-1.91058 -1.885 0 
-1.69824 -1.88561 0 
-1.48561 -1.88547 0 
-1.27286 -1.88413 0 
-1.06032 -1.88216 0 
-0.848858 -1.8839 0 
-0.636875 -1.88781 0 
-0.424169 -1.89034 0 
-0.211518 -1.89004 0 
0.000731944 -1.88866 0 
0.21257 -1.88788 0 
0.424308 -1.88807 0 
0.636257 -1.88793 0 
0.848362 -1.88664 0 
1.06025 -1.88556 0 
1.27191 -1.88605 0 
1.48381 -1.88664 0 
1.69595 -1.886 0 
1.90782 -1.88577 0 
2.11974 -1.88637 0 
2.33202 -1.88609 0 
2.54419 -1.88502 0 
2.75607 -1.88472 0 
2.96812 -1.88462 0 
3.18055 -1.88217 0 
3.39117 -1.88415 0 
3.60398 -1.8838 0 
3.81618 -1.88366 0 
4.02827 -1.88469 0 
4.24071 -1.88523 0 
4.4544 -1.88509 0 
4.66716 -1.88476 0 
4.88099 -1.88493 0 
5.09545 -1.88466 0 
5.31057 -1.88453 0 
5.52653 -1.88564 0 
5.7436 -1.88981 0 
5.96352 -1.89563 0 
6.18733 -1.89813 0 
6.41543 -1.89522 0 
6.65059 -1.89622 0 
6.87542 -1.86913 0 
7.11122 -1.81621 0 
7.31223 -1.94975 0 
7.53264 -1.87683 0 
7.77077 -1.89068 0 
8.01717 -1.8297 0 
8.25014 -1.93148 0 
8.48528 -1.79628 0 
-8.48528 -1.57009 0 
-8.24868 -1.70836 0 
-8.015 -1.61096 0 
-7.76734 -1.73071 0 
-7.54593 -1.61782 0 
-7.32306 -1.66278 0 
-7.05152 -1.7082 0 
-6.79786 -1.66675 0 
-6.56099 -1.64764 0 
-6.33267 -1.64541 0 
-6.10856 -1.64921 0 
-5.88638 -1.65073 0 
-5.66697 -1.65153 0 
-5.44986 -1.65353 0 
-5.23379 -1.65525 0 
-5.01882 -1.6551 0 
-4.80519 -1.6548 0 
-4.59235 -1.65478 0 
-4.37976 -1.65422 0 
-4.16737 -1.65386 0 
-3.95537 -1.65471 0 
-3.74326 -1.6554 0 
-3.5309 -1.65455 0 
-3.31876 -1.65426 0 
-3.10682 -1.65593 0 
-2.89443 -1.65705 0 
-2.68177 -1.65644 0 
-2.46924 -1.65516 0 
-2.25682 -1.65408 0 
-2.04447 -1.65386 0 
-1.83202 -1.65455 0 
-1.61911 -1.65506 0 
-1.40572 -1.65429 0 
-1.19212 -1.65207 0 
-0.97885 -1.64982 0 
-0.767325 -1.65372 0 
-0.555434 -1.6581 0 
-0.343588 -1.65935 0 
-0.132061 -1.65818 0 
0.0792288 -1.65687 0 
0.290417 -1.65682 0 
0.501823 -1.6575 0 
0.713729 -1.65709 0 
0.925861 -1.65545 0 
1.13768 -1.65488 0 
1.34929 -1.65604 0 
1.56128 -1.6563 0 
1.77337 -1.65516 0 
1.985 -1.65561 0 
2.19698 -1.65642 0 
2.40939 -1.65525 0 
2.62143 -1.65394 0 
2.83323 -1.65414 0 
3.04553 -1.65355 0 
3.25842 -1.64868 0 
3.46746 -1.65522 0 
3.68272 -1.65284 0 
3.89574 -1.65288 0 
4.10731 -1.65378 0 
4.32287 -1.65565 0 
4.53627 -1.65249 0 
4.74932 -1.65397 0 
4.96428 -1.65355 0 
5.17935 -1.65257 0 
5.3944 -1.65202 0 
5.60927 -1.65354 0 
5.82513 -1.66019 0 
6.04295 -1.66711 0 
6.26383 -1.66843 0 
6.48537 -1.66776 0 
6.70098 -1.65646 0 
6.91299 -1.6206 0 
7.11709 -1.6046 0 
7.3526 -1.69716 0 
7.60698 -1.65764 0 
7.8325 -1.64214 0 
8.05985 -1.58842 0 
8.2608 -1.69223 0 
8.48528 -1.56961 0 
-8.48528 -1.35019 0 
-8.24958 -1.48044 0 
-8.0219 -1.3751 0 
-7.79713 -1.50391 0 
-7.58956 -1.39834 0 
-7.36199 -1.38754 0 
-7.16079 -1.49923 0 
-6.93764 -1.46284 0 
[...]
POINT_DATA 2054 
VECTORS vectors float
0.18431 -0.246468 0.946251 
0.197656 -0.202343 0.959326 
0.198011 -0.163689 0.966634 
0.208161 -0.127627 0.969638 
0.214639 -0.0926197 0.971759 
0.226742 -0.0896155 0.968995 
0.229026 -0.0822562 0.968922 
0.229214 -0.0733641 0.969676 
0.229069 -0.0560801 0.970405 
0.237016 -0.0571984 0.968367 
0.241345 -0.0549606 0.967301 
0.242667 -0.0636316 0.966661 
0.240225 -0.0732186 0.96691 
0.244057 -0.0949109 0.964491 
0.233753 -0.110818 0.966748 
0.218772 -0.110661 0.971656 
0.205129 -0.0985507 0.976687 
0.203233 -0.0756952 0.978993 
0.200525 -0.0591926 0.979891 
0.193526 -0.0377327 0.981158 
0.192796 -0.0141427 0.981782 
0.197381 0.0173543 0.980719 
0.213123 0.0449888 0.975626 
0.226312 0.0467423 0.971899 
0.225303 0.0426002 0.972284 
0.22115 0.0470393 0.973152 
0.217787 0.0506738 0.974062 
0.211677 0.0523289 0.975884 
0.204126 0.0579854 0.977634 
0.196835 0.0698333 0.97887 
0.189824 0.0865598 0.979558 
0.182861 0.104384 0.979588 
0.173646 0.121029 0.980084 
0.158733 0.140827 0.981254 
0.138849 0.170306 0.981354 
0.117856 0.20896 0.978757 
0.0964081 0.251436 0.972866 
0.0714146 0.298373 0.963569 
0.040228 0.358873 0.947376 
0.00283957 0.443649 0.915001 
-0.0386651 0.55816 0.851485 
-0.0794113 0.697618 0.738571 
-0.109264 0.842211 0.561268 
-0.117121 0.959387 0.314441 
-0.104568 1.00858 0.0114252 
-0.0881558 0.95988 -0.30104 
-0.082436 0.82851 -0.564831 
-0.0908938 0.65893 -0.751989 
-0.111214 0.492859 -0.866052 
-0.136737 0.356152 -0.92652 
-0.161115 0.255092 -0.954769 
-0.182023 0.186767 -0.966165 
-0.196541 0.14288 -0.970288 
-0.205512 0.109813 -0.972296 
-0.21444 0.0865732 -0.972464 
-0.216274 0.0784816 -0.972777 
-0.203017 0.063048 -0.977366 
-0.191911 0.0251272 -0.981817 
-0.190716 -0.00975619 -0.982211 
-0.192462 -0.0369571 -0.981703 
-0.199466 -0.0578007 -0.980331 
-0.200663 -0.0749251 -0.979807 
-0.205753 -0.0991353 -0.976595 
-0.220825 -0.109096 -0.97095 
-0.237572 -0.108271 -0.965804 
-0.246393 -0.0890969 -0.964329 
-0.241176 -0.0719422 -0.966604 
-0.243593 -0.0619574 -0.966818 
-0.240685 -0.0554081 -0.96805 
-0.234968 -0.0569125 -0.966804 
-0.228871 -0.0562599 -0.971921 
-0.229873 -0.0730844 -0.968483 
-0.228757 -0.0822133 -0.969291 
-0.225593 -0.0872368 -0.969981 
-0.213382 -0.0913322 -0.972319 
-0.207305 -0.124887 -0.970528 
-0.196387 -0.161137 -0.967411 
-0.195429 -0.199622 -0.960557 
-0.182868 -0.242523 -0.94785 
0.11184 -0.255025 0.958346 
0.151391 -0.217093 0.96999 
0.151164 -0.179466 0.981225 
0.156573 -0.145176 0.987584 
0.163147 -0.112766 0.990069 
0.166509 -0.0927071 0.990873 
0.172819 -0.0831455 0.990795 
0.176802 -0.0719367 0.991148 
0.177379 -0.0608536 0.991026 
0.180929 -0.0560806 0.991384 
0.187896 -0.0555974 0.989291 
0.192747 -0.0573063 0.988838 
0.193261 -0.0645884 0.987457 
0.193785 -0.076737 0.986691 
0.190139 -0.0864968 0.988262 
0.178196 -0.0877763 0.989661 
0.164379 -0.0826092 0.99384 
0.155521 -0.0708363 0.996614 
0.150012 -0.0553471 0.99724 
0.144301 -0.0387903 0.998809 
0.142292 -0.0208219 0.999464 
0.147527 0.00134604 0.998805 
0.158632 0.0251949 0.996942 
0.168903 0.0406815 0.994299 
0.172215 0.0476732 0.992729 
0.169415 0.0533455 0.99314 
0.162412 0.058407 0.994207 
0.151776 0.0617659 0.99535 
0.139835 0.0666091 0.997252 
0.128366 0.0765263 0.999221 
0.116221 0.0920205 0.999183 
0.101775 0.111699 0.999298 
0.0833696 0.133999 0.999206 
0.0593019 0.159447 0.997212 
0.0291326 0.190565 0.994647 
-0.0060239 0.227468 0.988254 
-0.0440806 0.26952 0.977889 
-0.0834601 0.317214 0.962446 
-0.122847 0.375154 0.938533 
-0.16112 0.451444 0.90048 
-0.197286 0.552649 0.83724 
-0.228896 0.675224 0.733097 
-0.249738 0.804149 0.573357 
-0.253398 0.919468 0.352222 
-0.23552 0.980626 0.0763524 
-0.203725 0.963137 -0.222349 
-0.169864 0.863856 -0.49384 
-0.143548 0.712645 -0.69972 
-0.129721 0.553297 -0.836016 
-0.126827 0.411887 -0.914303 
-0.131388 0.301667 -0.955925 
-0.139996 0.22297 -0.975754 
-0.149777 0.169728 -0.984262 
-0.158108 0.132226 -0.988651 
-0.163852 0.103432 -0.990715 
-0.165671 0.0817197 -0.992487 
-0.160798 0.0609558 -0.995117 
-0.151777 0.0333159 -0.997753 
-0.144793 0.00362472 -0.999956 
-0.142417 -0.0210682 -0.998735 
-0.14588 -0.0409802 -0.999098 
-0.150739 -0.0582579 -0.997729 
-0.157116 -0.0738597 -0.995476 
-0.169186 -0.0831562 -0.99246 
-0.184227 -0.0861007 -0.99001 
-0.193654 -0.0808616 -0.986617 
-0.194704 -0.0698681 -0.988077 
-0.194687 -0.0603857 -0.987481 
-0.191931 -0.056167 -0.987597 
-0.185747 -0.0556573 -0.993934 
-0.176046 -0.0564052 -0.988248 
-0.185069 -0.0687161 -0.992232 
-0.172473 -0.0788442 -0.989392 
-0.169685 -0.0899047 -0.990853 
-0.16278 -0.11048 -0.989305 
-0.155744 -0.142695 -0.988934 
-0.147204 -0.17665 -0.9833 
-0.147474 -0.214303 -0.971513 
-0.108995 -0.254107 -0.959008 
0.0749965 -0.278002 0.955042 
0.111372 -0.216528 0.978032 
0.11401 -0.175072 0.996982 
0.12339 -0.132168 0.993767 
0.124056 -0.107073 0.998536 
0.128073 -0.0916987 0.998349 
0.133138 -0.0777238 0.997909 
0.134079 -0.0641029 0.999673 
0.133249 -0.0569821 0.99797 
0.136885 -0.0553734 0.998605 
0.141103 -0.0541219 0.997862 
0.142536 -0.0556913 0.997379 
0.142391 -0.0626646 0.997455 
0.140751 -0.0686453 0.997481 
0.134138 -0.0687833 0.998572 
0.122535 -0.0660739 1.0006 
0.111332 -0.0614982 1.00202 
0.104088 -0.051961 1.00368 
0.0990131 -0.0388972 1.00487 
0.0960288 -0.0252768 1.00462 
0.0986171 -0.00873025 1.00577 
0.106315 0.0120342 1.0048 
0.114303 0.0313331 1.00304 
0.118466 0.0447757 1.00218 
0.11797 0.0545984 1.00107 
0.112711 0.0626905 1.00133 
0.101807 0.0682299 1.00194 
0.0871669 0.0733722 1.0032 
0.0718747 0.0828428 1.00435 
0.0558845 0.0992773 1.00401 
0.0366124 0.122457 1.00329 
0.0116713 0.15098 1.00033 
-0.0201191 0.18418 0.994595 
-0.0597242 0.22181 0.986543 
-0.106898 0.2623 0.972598 
-0.159563 0.305901 0.953713 
-0.214183 0.352726 0.927277 
-0.266673 0.406077 0.891801 
-0.313859 0.472602 0.845534 
-0.352118 0.554669 0.77815 
-0.380446 0.656696 0.680114 
-0.396405 0.769471 0.537215 
-0.394856 0.871358 0.340581 
-0.37169 0.936289 0.0940892 
-0.328314 0.939019 -0.178998 
-0.271713 0.865474 -0.439158 
-0.216673 0.738766 -0.652559 
-0.172236 0.589727 -0.801701 
-0.142111 0.449516 -0.89379 
-0.124792 0.334525 -0.946234 
-0.11723 0.248745 -0.972789 
-0.116839 0.189668 -0.985238 
-0.119865 0.14897 -0.992207 
-0.121864 0.117122 -0.995392 
-0.121681 0.0904214 -0.998946 
-0.118887 0.0667808 -1.00092 
-0.113085 0.0421799 -1.00289 
-0.105461 0.0156196 -1.00534 
-0.0994289 -0.00791432 -1.0054 
-0.098318 -0.0259706 -1.00485 
-0.101239 -0.0416163 -1.00476 
-0.106219 -0.0547852 -1.0027 
-0.115142 -0.0622911 -1.00349 
-0.126936 -0.0655417 -0.998141 
-0.138266 -0.0679879 -0.998942 
-0.143472 -0.0655169 -0.996781 
-0.145292 -0.059255 -0.997427 
-0.14589 -0.0565417 -0.998062 
-0.143346 -0.0572135 -0.997786 
-0.137458 -0.0564106 -0.998842 
-0.131912 -0.0592326 -1.00113 
-0.141474 -0.0693641 -0.997912 
-0.121697 -0.0801002 -0.997096 
-0.136332 -0.0881722 -0.997935 
-0.126151 -0.104537 -0.999382 
-0.12193 -0.131881 -0.994631 
-0.110254 -0.172241 -0.997694 
-0.106959 -0.214335 -0.979856 
-0.0692336 -0.277067 -0.955722 
0.0577101 -0.296406 0.950404 
0.0833664 -0.229226 0.980798 
0.0806733 -0.186792 0.989194 
0.0966369 -0.150709 0.991072 
0.095061 -0.123161 0.997173 
0.0973647 -0.105121 1.00011 
0.104584 -0.0885897 0.998132 
0.107259 -0.0708864 1.00083 
0.105102 -0.0590139 1.00213 
0.104764 -0.0549721 1.00156 
0.10503 -0.0525207 1.00128 
0.103356 -0.0497345 1.00279 
0.0993462 -0.0519593 1.00204 
0.0957081 -0.0567855 1.00257 
0.0921971 -0.0561186 1.00438 
0.0856139 -0.0520985 1.00299 
0.0767583 -0.0503244 1.00525 
0.0686728 -0.0462828 1.00601 
0.0631365 -0.0362957 1.00577 
0.0596583 -0.0247186 1.00741 
0.0589161 -0.0122096 1.00782 
0.0623714 0.00489412 1.0081 
0.0674682 0.0239604 1.00727 
0.0705255 0.0390928 1.00626 
0.0712285 0.0509225 1.00591 
0.069686 0.0625032 1.00518 
0.0634338 0.0726739 1.00438 
0.0511692 0.0810249 1.00491 
0.0349958 0.0918173 1.005 
0.0165072 0.109712 1.0036 
-0.00610549 0.136134 1.0019 
-0.0357042 0.170356 0.996473 
-0.0736412 0.211745 0.986435 
-0.120922 0.25863 0.971337 
-0.178305 0.307455 0.947503 
-0.243792 0.355777 0.915368 
-0.313148 0.403628 0.874083 
-0.380843 0.453056 0.821981 
-0.441702 0.508039 0.758071 
-0.490221 0.572567 0.678772 
-0.523436 0.650708 0.578613 
-0.537497 0.735997 0.445503 
-0.531611 0.818879 0.271543 
-0.5027 0.87592 0.0573488 
-0.449945 0.885266 -0.18093 
-0.379171 0.836482 -0.415588 
-0.302867 0.736701 -0.618803 
-0.233413 0.606342 -0.771557 
-0.179814 0.475103 -0.873451 
-0.142271 0.36053 -0.933595 
-0.118121 0.270598 -0.965979 
-0.104726 0.206148 -0.983159 
-0.0985446 0.16189 -0.991948 
-0.0942448 0.128538 -0.996694 
-0.0884554 0.0997433 -1.00094 
-0.0825847 0.075351 -1.00334 
-0.0777307 0.0542571 -1.00582 
-0.0720526 0.0316474 -1.00717 
-0.0653231 0.00792117 -1.00705 
-0.0611245 -0.0109489 -1.00872 
-0.0609615 -0.02513 -1.00637 
-0.0641897 -0.0381845 -1.00746 
-0.069628 -0.0466637 -1.00414 
-0.0784028 -0.04899 -1.00564 
-0.0879299 -0.0517428 -1.00427 
-0.0955591 -0.0561738 -1.00242 
-0.100803 -0.0556157 -1.0036 
-0.104483 -0.0524286 -1.00062 
-0.108035 -0.0544999 -1.00229 
-0.108391 -0.0564571 -1.00029 
-0.105794 -0.0562476 -1.0002 
-0.105929 -0.0658019 -1.0016 
-0.0970202 -0.082426 -1.00345 
-0.107309 -0.0950622 -0.999767 
-0.0938698 -0.114751 -1.00019 
-0.0913722 -0.145317 -0.993601 
-0.0789974 -0.184043 -0.99071 
-0.0796053 -0.228118 -0.982191 
-0.0555387 -0.29588 -0.951116 
0.0532055 -0.292783 0.952153 
0.0622579 -0.235866 0.979079 
0.0588813 -0.184353 0.993424 
0.072478 -0.146498 0.997003 
0.0670716 -0.11934 1.00465 
0.0718052 -0.0984156 1.00229 
0.0809452 -0.0806876 1.00411 
0.0764196 -0.0641069 1.0038 
0.0752496 -0.0558033 1.00408 
0.0756025 -0.0533234 1.00564 
0.0753373 -0.0493261 1.00434 
0.0734137 -0.0477742 1.00328 
0.0709615 -0.0520065 1.00503 
0.0691419 -0.052574 1.00418 
0.067868 -0.045953 1.00385 
0.0651243 -0.041011 1.00521 
0.0601159 -0.0385441 1.0045 
0.054747 -0.0306317 1.00486 
0.0498979 -0.0189996 1.00681 
0.0452615 -0.00865085 1.00671 
0.0426723 0.00456282 1.00717 
0.0426795 0.0224739 1.0076 
0.0423866 0.0382734 1.00733 
0.0404733 0.0496691 1.00685 
0.0385067 0.0622607 1.00613 
0.0353528 0.0774802 1.00565 
0.0271218 0.0918878 1.00462 
0.0128444 0.106699 1.00312 
-0.00597594 0.127326 1.00142 
-0.0301686 0.156607 0.998013 
-0.0626596 0.194918 0.989589 
-0.105427 0.243615 0.975835 
-0.159519 0.30151 0.952892 
-0.226002 0.363079 0.916028 
-0.304846 0.423121 0.865727 
-0.389156 0.475315 0.801314 
-0.471218 0.520517 0.724363 
-0.544158 0.563694 0.636832 
-0.600816 0.608182 0.538311 
-0.636403 0.658185 0.428475 
-0.64844 0.714812 0.300992 
-0.636479 0.770337 0.147722 
-0.600519 0.810245 -0.0345284 
-0.541616 0.817254 -0.235952 
-0.464789 0.781789 -0.435455 
-0.378469 0.705542 -0.613101 
-0.294413 0.600145 -0.755834 
-0.223386 0.484941 -0.857616 
-0.169713 0.378675 -0.921033 
-0.132015 0.291662 -0.958305 
-0.106519 0.224903 -0.978806 
-0.0906393 0.176952 -0.990136 
-0.080257 0.14204 -0.995715 
-0.0704635 0.112621 -1.00093 
-0.060393 0.0863051 -1.00404 
-0.0543883 0.0664504 -1.00523 
-0.0522194 0.0497896 -1.00593 
-0.0504056 0.0296385 -1.00753 
-0.048079 0.00830183 -1.00736 
-0.0481553 -0.00698677 -1.00673 
-0.0511604 -0.0192263 -1.00519 
-0.0555687 -0.0315117 -1.00675 
-0.0600223 -0.0383749 -1.00381 
-0.0647566 -0.0399555 -1.00428 
-0.0684278 -0.0452532 -1.00497 
-0.0708286 -0.0516019 -1.00345 
-0.073113 -0.050805 -1.00556 
-0.075603 -0.0487116 -1.00337 
-0.0789594 -0.0520025 -1.00515 
-0.0803357 -0.0537328 -1.00567 
-0.0794022 -0.0554894 -1.00428 
-0.0749256 -0.0669445 -1.00702 
-0.0663937 -0.0852432 -1.00284 
-0.0812156 -0.0982572 -0.998468 
-0.0681091 -0.117421 -1.00388 
-0.0648834 -0.144127 -0.99809 
-0.0564759 -0.184232 -0.994682 
-0.0603671 -0.233421 -0.978448 
-0.0521072 -0.295048 -0.951681 
0.0437177 -0.280711 0.956649 
0.0483777 -0.230995 0.981087 
0.0415676 -0.185117 0.992865 
0.0509588 -0.146132 0.997919 
0.0408212 -0.123512 1.00169 
0.0443597 -0.103701 1.0021 
0.0498398 -0.0799125 1.00556 
0.0455683 -0.0626999 1.00704 
0.0440075 -0.0571719 1.0054 
0.0443857 -0.0538438 1.00519 
0.0465697 -0.0494746 1.00648 
0.0494439 -0.0508161 1.00456 
0.0522721 -0.0537234 1.00482 
0.0548553 -0.0474062 1.00559 
0.0569171 -0.0378662 1.00461 
0.0572514 -0.0335319 1.00526 
0.0552132 -0.0269735 1.00562 
0.051334 -0.0144042 1.00652 
0.0452592 -0.00411477 1.0065 
0.0381771 0.00429589 1.00688 
0.0327675 0.0186172 1.00831 
0.0284375 0.0350351 1.00745 
0.0229733 0.0459853 1.00668 
0.0173623 0.0561659 1.00729 
0.0128427 0.0723674 1.0065 
0.00649681 0.0918527 1.00453 
-0.00499056 0.111916 1.00313 
-0.021635 0.136604 0.99997 
-0.0436597 0.17016 0.994266 
-0.0741745 0.213527 0.98472 
-0.116283 0.268668 0.96747 
-0.171651 0.337732 0.937559 
-0.241708 0.41641 0.888097 
-0.327398 0.495506 0.816467 
-0.424225 0.563791 0.72022 
-0.519312 0.612082 0.608115 
-0.602734 0.643639 0.485912 
-0.665155 0.664515 0.360476 
-0.701944 0.683335 0.238136 
-0.711096 0.705438 0.116432 
-0.694317 0.731015 -0.0139837 
-0.652974 0.750162 -0.161829 
-0.590766 0.749125 -0.325428 
-0.512622 0.717635 -0.489787 
-0.425655 0.655927 -0.637297 
-0.338605 0.572161 -0.76033 
-0.258681 0.474624 -0.852853 
-0.193626 0.379739 -0.916438 
-0.145248 0.298871 -0.954 
-0.110225 0.23431 -0.976541 
-0.085261 0.18367 -0.988797 
-0.0687623 0.146084 -0.996005 
-0.056982 0.117258 -1.00108 
-0.0462151 0.0911546 -1.00363 
-0.0378967 0.068779 -1.00535 
-0.0367294 0.0553564 -1.00684 
-0.0392947 0.0430797 -1.00688 
-0.041757 0.025618 -1.00693 
-0.0440696 0.00834691 -1.00689 
-0.0484987 -0.00268078 -1.00731 
-0.0530796 -0.0133915 -1.00566 
-0.056134 -0.0265437 -1.00505 
-0.0575 -0.0336944 -1.00649 
-0.0570915 -0.0369611 -1.00421 
-0.0554055 -0.045427 -1.00555 
-0.052713 -0.0528924 -1.00475 
-0.0498287 -0.0511784 -1.00563 
-0.0478148 -0.0492032 -1.00426 
-0.0481041 -0.0523509 -1.00557 
-0.0484907 -0.0543946 -1.00493 
-0.0456937 -0.0584006 -1.00574 
-0.0400822 -0.0708349 -1.00548 
-0.0385475 -0.0878974 -1.00295 
-0.050217 -0.105492 -1.00638 
-0.046043 -0.128706 -0.997344 
-0.0441536 -0.156245 -0.997358 
-0.03964 -0.192165 -0.993026 
-0.0461977 -0.232892 -0.980746 
-0.0437759 -0.28313 -0.956534 
0.0154829 -0.284774 0.955958 
0.0321764 -0.231005 0.98193 
0.0231833 -0.189916 0.992676 
0.0331853 -0.152505 0.995666 
0.0257123 -0.130331 1.00035 
0.0249483 -0.109695 1.00314 
0.0306564 -0.0914459 1.00397 
0.029078 -0.0737023 1.0068 
0.0280841 -0.0634359 1.0047 
0.0275555 -0.0596487 1.00683 
0.0279191 -0.054213 1.00658 
0.0303112 -0.0505041 1.00408 
0.0338589 -0.0521422 1.0065 
0.0365304 -0.0476301 1.00588 
0.0385184 -0.0352072 1.00603 
0.0396492 -0.0276386 1.00695 
0.0389381 -0.0235952 1.00689 
0.0364741 -0.0123022 1.00742 
0.0320342 -4.79449e-05 1.00778 
0.0253376 0.00509986 1.00758 
0.0184907 0.0123572 1.00834 
0.0129117 0.0267146 1.00743 
0.00685363 0.0382483 1.00716 
-0.000417337 0.0447921 1.00717 
-0.00680232 0.0571891 1.00655 
-0.0125686 0.0779766 1.00583 
-0.02132 0.101485 1.00364 
-0.0347427 0.129553 1.00018 
-0.0527927 0.168394 0.994069 
-0.0779316 0.218769 0.98309 
-0.114103 0.280439 0.963682 
-0.163655 0.357663 0.930643 
-0.228025 0.451039 0.874165 
-0.308791 0.551077 0.786844 
-0.403819 0.641513 0.664429 
-0.502607 0.706388 0.510832 
-0.590559 0.737126 0.347681 
-0.657099 0.739872 0.18382 
-0.696733 0.726802 0.0360865 
-0.708937 0.711264 -0.0900294 
-0.695251 0.701758 -0.203059 
-0.657342 0.695524 -0.317664 
-0.598159 0.681835 -0.442013 
-0.5224 0.648177 -0.569506 
-0.439683 0.595015 -0.687588 
-0.356689 0.526427 -0.785641 
-0.277674 0.447486 -0.862552 
-0.207917 0.365366 -0.919011 
-0.152783 0.291566 -0.955993 
-0.112006 0.231394 -0.976579 
-0.0814683 0.181694 -0.989776 
-0.0589494 0.140257 -0.998051 
-0.0437048 0.109023 -1.00173 
-0.0328983 0.0856546 -1.00491 
-0.0238094 0.0638559 -1.00566 
-0.0186055 0.0466359 -1.00794 
-0.0199969 0.0397066 -1.00554 
-0.0230523 0.0317726 -1.00675 
-0.0253174 0.0187942 -1.00903 
-0.0295548 0.00661222 -1.00714 
-0.0340596 0.000593238 -1.00765 
-0.0378258 -0.00899002 -1.00835 
-0.0404059 -0.0218676 -1.00637 
-0.0416715 -0.027796 -1.00652 
-0.0417102 -0.0327087 -1.00676 
-0.039849 -0.0441819 -1.00493 
-0.0363783 -0.0528576 -1.0066 
-0.0314143 -0.0518802 -1.00406 
-0.0281142 -0.0515745 -1.00642 
-0.0277209 -0.0560735 -1.00638 
-0.0279687 -0.0600034 -1.00501 
-0.0264125 -0.067032 -1.00695 
-0.0237607 -0.082124 -1.00518 
-0.0283485 -0.10057 -1.00207 
-0.0304967 -0.119362 -1.00095 
-0.0296015 -0.143644 -1.00057 
-0.0276777 -0.173009 -0.991064 
-0.0260688 -0.2287 -0.980368 
-0.014761 -0.284984 -0.956172 
-0.00764899 -0.292632 0.953271 
0.00988211 -0.23723 0.98035 
0.00472358 -0.192829 0.991654 
0.0156993 -0.15539 0.997147 
0.0134915 -0.128234 1.00082 
0.0140024 -0.10757 1.00333 
0.0212556 -0.0891436 1.00522 
0.0220556 -0.0712192 1.00482 
0.0234716 -0.0623313 1.00609 
0.0243506 -0.0570106 1.00534 
0.0250586 -0.0506273 1.00487 
0.025847 -0.0484173 1.00544 
0.0257055 -0.0454243 1.00692 
0.0249425 -0.0321683 1.00713 
0.0240808 -0.0189382 1.00737 
0.0220886 -0.0149551 1.00798 
0.0183025 -0.00859373 1.00749 
0.0138334 0.00423846 1.00865 
0.00892849 0.0108868 1.00799 
0.00398343 0.0123375 1.00706 
0.000634228 0.021693 1.00831 
-0.0021262 0.0344194 1.00681 
-0.00657689 0.0399809 1.00591 
-0.0118857 0.0465103 1.00646 
-0.0166179 0.0646885 1.00557 
-0.0228005 0.0897061 1.00374 
-0.0331818 0.11813 1.00086 
-0.0479874 0.157792 0.995486 
-0.0681503 0.213189 0.984487 
-0.0973176 0.280999 0.965081 
-0.138253 0.361728 0.932748 
-0.1917 0.460213 0.878226 
-0.258762 0.572818 0.789337 
-0.3397 0.683095 0.658743 
-0.428915 0.770364 0.486386 
-0.513731 0.817461 0.285331 
-0.581147 0.81862 0.0828605 
-0.622603 0.7865 -0.105664 
-0.63852 0.738802 -0.258912 
-0.631723 0.693008 -0.376381 
-0.604675 0.657358 -0.473641 
-0.556555 0.624112 -0.565761 
-0.492064 0.585528 -0.660181 
-0.418128 0.53425 -0.749207 
-0.344206 0.474955 -0.823451 
-0.274594 0.412267 -0.880796 
-0.210249 0.347213 -0.925805 
-0.154889 0.283386 -0.958165 
-0.112784 0.228579 -0.976775 
-0.0825577 0.184315 -0.989389 
-0.0592295 0.14356 -0.99752 
-0.0418023 0.107457 -1.00163 
-0.0301619 0.0820276 -1.00433 
-0.0215514 0.0635364 -1.00517 
-0.0143751 0.0451065 -1.00717 
-0.00965866 0.0315323 -1.00568 
-0.00994413 0.0304777 -1.00787 
-0.00799839 0.026262 -1.0072 
-0.00919818 0.0148858 -1.00816 
-0.0102764 0.00762697 -1.0075 
-0.0137111 0.00500872 -1.00881 
-0.0169633 -0.00337439 -1.00757 
-0.0223277 -0.0138183 -1.00874 
-0.0266636 -0.0175683 -1.00747 
-0.0283995 -0.0251839 -1.00832 
-0.0288812 -0.0405229 -1.00645 
-0.0275883 -0.0489817 -1.00569 
-0.0257725 -0.0492418 -1.0066 
-0.0243173 -0.0511597 -1.00137 
-0.023922 -0.0562514 -1.00777 
-0.0227019 -0.0615959 -1.00418 
-0.020151 -0.0709543 -1.00482 
-0.016913 -0.0877267 -1.00621 
-0.0185434 -0.102671 -1.00155 
-0.0161807 -0.126071 -1.00331 
-0.0113095 -0.155368 -0.998244 
-0.0126437 -0.197922 -0.991882 
-0.00411233 -0.243845 -0.982558 
0.00674907 -0.292639 -0.9521 
-0.0213648 -0.296715 0.951719 
-0.00717751 -0.24101 0.980257 
-0.00414599 -0.194483 0.989764 
0.00373268 -0.155791 0.996434 
0.00565473 -0.131942 0.999797 
0.00754531 -0.111295 1.00114 
0.0134598 -0.0846411 1.0063 
0.014954 -0.0657211 1.00598 
0.0161377 -0.0567259 1.00664 
0.0171259 -0.0494312 1.00642 
0.0176393 -0.0444652 1.0065 
0.0155681 -0.0427363 1.00806 
0.0118543 -0.0326604 1.00687 
0.00917778 -0.0161563 1.00858 
0.00655959 -0.00707271 1.00783 
0.00239662 -0.00345543 1.00776 
-0.00251576 0.0070808 1.00844 
-0.00629573 0.0165098 1.00707 
-0.00929667 0.0169699 1.007 
-0.010199 0.0209699 1.00799 
-0.00880816 0.0340772 1.00613 
-0.00772532 0.0423462 1.0059 
-0.0083972 0.044593 1.00612 
-0.00971708 0.0572505 1.0056 
-0.0123178 0.0824121 1.00421 
-0.0189215 0.110588 1.00176 
-0.0301858 0.145716 0.997456 
-0.0454327 0.199091 0.988401 
-0.0669596 0.270384 0.9705 
-0.0982525 0.354721 0.940034 
-0.140171 0.455372 0.89042 
-0.192658 0.574573 0.806709 
-0.257063 0.701663 0.676969 