# vtk DataFile Version 3.0 
Exported using Morpho https://github.com/Morpho-lang/morpho 
ASCII 
DATASET UNSTRUCTURED_GRID 

POINTS 2054 float 
-8.48528 -2.82843 0 
-8.20636 -2.82843 0 
-7.94054 -2.82843 0 
-7.6904 -2.82843 0 
-7.45357 -2.82843 0 
-7.22694 -2.82843 0 
-7.00705 -2.82843 0 
-6.79111 -2.82843 0 
-6.57731 -2.82843 0 
-6.36453 -2.82843 0 
-6.15219 -2.82843 0 
-5.94 -2.82843 0 
-5.72786 -2.82843 0 
-5.51573 -2.82843 0 
-5.3036 -2.82843 0 
-5.09147 -2.82843 0 
-4.87933 -2.82843 0 
-4.6672 -2.82843 0 
-4.45507 -2.82843 0 
-4.24294 -2.82843 0 
-4.03081 -2.82843 0 
-3.81867 -2.82843 0 
-3.60654 -2.82843 0 
-3.39441 -2.82843 0 
-3.18228 -2.82843 0 
-2.97015 -2.82843 0 
-2.75801 -2.82843 0 
-2.54588 -2.82843 0 
-2.33375 -2.82843 0 
-2.12162 -2.82843 0 
-1.90949 -2.82843 0 
-1.69735 -2.82843 0 
-1.48522 -2.82843 0 
-1.27309 -2.82843 0 
-1.06096 -2.82843 0 
-0.848825 -2.82843 0 
-0.636693 -2.82843 0 
-0.424561 -2.82843 0 
-0.212429 -2.82843 0 
-0.000296761 -2.82843 0 
0.211835 -2.82843 0 
0.423967 -2.82843 0 
0.636099 -2.82843 0 
0.848231 -2.82843 0 
1.06036 -2.82843 0 
1.2725 -2.82843 0 
1.48463 -2.82843 0 
1.69676 -2.82843 0 
1.90889 -2.82843 0 
2.12102 -2.82843 0 
2.33316 -2.82843 0 
2.54529 -2.82843 0 
2.75742 -2.82843 0 
2.96955 -2.82843 0 
3.18168 -2.82843 0 
3.39382 -2.82843 0 
3.60595 -2.82843 0 
3.81808 -2.82843 0 
4.03021 -2.82843 0 
4.24234 -2.82843 0 
4.45448 -2.82843 0 
4.66661 -2.82843 0 
4.87874 -2.82843 0 
5.09087 -2.82843 0 
5.303 -2.82843 0 
5.51514 -2.82843 0 
5.72727 -2.82843 0 
5.93941 -2.82843 0 
6.15159 -2.82843 0 
6.36393 -2.82843 0 
6.57672 -2.82843 0 
6.79055 -2.82843 0 
7.00652 -2.82843 0 
7.22647 -2.82843 0 
7.45313 -2.82843 0 
7.69005 -2.82843 0 
7.9403 -2.82843 0 
8.20621 -2.82843 0 
8.48528 -2.82843 0 
-8.48528 -2.5495 0 
-8.30526 -2.64845 0 
-8.07062 -2.59995 0 
-7.83904 -2.59637 0 
-7.59595 -2.59733 0 
-7.36578 -2.59177 0 
-7.13796 -2.5933 0 
-6.90908 -2.59428 0 
-6.68421 -2.5916 0 
-6.46568 -2.58832 0 
-6.24926 -2.58859 0 
-6.03358 -2.58941 0 
-5.81848 -2.59013 0 
-5.60402 -2.59075 0 
-5.39005 -2.59135 0 
-5.17642 -2.59186 0 
-4.96311 -2.59223 0 
-4.75009 -2.59242 0 
-4.53736 -2.59244 0 
-4.32497 -2.59236 0 
-4.1128 -2.59242 0 
-3.90059 -2.59259 0 
-3.68835 -2.5926 0 
-3.47627 -2.59248 0 
-3.26428 -2.59251 0 
-3.05216 -2.59271 0 
-2.83986 -2.59283 0 
-2.62755 -2.59274 0 
-2.41539 -2.59253 0 
-2.20336 -2.59238 0 
-1.99135 -2.59238 0 
-1.77924 -2.59246 0 
-1.56704 -2.59244 0 
-1.35495 -2.59215 0 
-1.14319 -2.59183 0 
-0.931581 -2.59195 0 
-0.719663 -2.59256 0 
-0.507197 -2.59324 0 
-0.294425 -2.59354 0 
-0.0817689 -2.59344 0 
0.130587 -2.59325 0 
0.342804 -2.59322 0 
0.555051 -2.59322 0 
0.767233 -2.59303 0 
0.97919 -2.59278 0 
1.19107 -2.59278 0 
1.40311 -2.59289 0 
1.61524 -2.59286 0 
1.82732 -2.59279 0 
2.03943 -2.59281 0 
2.25163 -2.5928 0 
2.46381 -2.59266 0 
2.67591 -2.59254 0 
2.88801 -2.59237 0 
3.10001 -2.59226 0 
3.31203 -2.59216 0 
3.52402 -2.59207 0 
3.73601 -2.59208 0 
3.94815 -2.59221 0 
4.16052 -2.5923 0 
4.37309 -2.59232 0 
4.58593 -2.59227 0 
4.79921 -2.5922 0 
5.01319 -2.59212 0 
5.22833 -2.5921 0 
5.44534 -2.59239 0 
5.6657 -2.59346 0 
5.89185 -2.59569 0 
6.12685 -2.59429 0 
6.36853 -2.59189 0 
6.6108 -2.57787 0 
6.84491 -2.61411 0 
7.08804 -2.58476 0 
7.34858 -2.60369 0 
7.58803 -2.59327 0 
7.83059 -2.59326 0 
8.06387 -2.59199 0 
8.30038 -2.64348 0 
8.48528 -2.54936 0 
-8.48528 -2.28369 0 
-8.25701 -2.4138 0 
-8.01078 -2.35334 0 
-7.73666 -2.37963 0 
-7.49744 -2.35565 0 
-7.26898 -2.35831 0 
-7.03324 -2.36676 0 
-6.7997 -2.36275 0 
-6.5773 -2.35166 0 
-6.35808 -2.3495 0 
-6.14038 -2.35058 0 
-5.92336 -2.35185 0 
-5.70723 -2.35272 0 
-5.49199 -2.35362 0 
-5.27734 -2.35447 0 
-5.0632 -2.35505 0 
-4.84958 -2.35534 0 
-4.63641 -2.35533 0 
-4.42363 -2.35504 0 
-4.21126 -2.35485 0 
-3.99909 -2.35513 0 
-3.78684 -2.3554 0 
-3.57461 -2.35516 0 
-3.36263 -2.35498 0 
-3.15066 -2.35537 0 
-2.93843 -2.35586 0 
-2.72604 -2.35589 0 
-2.51374 -2.35551 0 
-2.30162 -2.35509 0 
-2.08964 -2.35496 0 
-1.87761 -2.35518 0 
-1.66544 -2.3554 0 
-1.45322 -2.35518 0 
-1.2412 -2.35438 0 
-1.02967 -2.35407 0 
-0.818162 -2.35505 0 
-0.606054 -2.35676 0 
-0.393243 -2.3579 0 
-0.180256 -2.35789 0 
0.0323765 -2.35727 0 
0.244686 -2.35692 0 
0.456926 -2.35692 0 
0.669206 -2.35667 0 
0.881318 -2.35598 0 
1.09315 -2.35559 0 
1.305 -2.35583 0 
1.51709 -2.35595 0 
1.72919 -2.35571 0 
1.9412 -2.35566 0 
2.15334 -2.3558 0 
2.36559 -2.3556 0 
2.57772 -2.35522 0 
2.78976 -2.35507 0 
3.0019 -2.35461 0 
3.21373 -2.35451 0 
3.42571 -2.35439 0 
3.63769 -2.35431 0 
3.84965 -2.35453 0 
4.06183 -2.35491 0 
4.27435 -2.35507 0 
4.48707 -2.35507 0 
4.70017 -2.35506 0 
4.91376 -2.35498 0 
5.12819 -2.35502 0 
5.34378 -2.35528 0 
5.56106 -2.35662 0 
5.78097 -2.35971 0 
6.00401 -2.36251 0 
6.2308 -2.3624 0 
6.45748 -2.35551 0 
6.68075 -2.33423 0 
6.88797 -2.39744 0 
7.05313 -2.27289 0 
7.24377 -2.40237 0 
7.48542 -2.36016 0 
7.73055 -2.36599 0 
7.99177 -2.33552 0 
8.24864 -2.40698 0 
8.48528 -2.28345 0 
-8.48528 -2.03355 0 
-8.25312 -2.18214 0 
-8.03669 -2.07913 0 
-7.83956 -2.18231 0 
-7.6106 -2.12852 0 
-7.38852 -2.10959 0 
-7.16268 -2.14097 0 
-6.9229 -2.1435 0 
-6.70119 -2.12055 0 
-6.48111 -2.11285 0 
-6.26282 -2.11284 0 
-6.045 -2.1151 0 
-5.82775 -2.11658 0 
-5.61153 -2.11776 0 
-5.3962 -2.1192 0 
-5.18144 -2.1203 0 
-4.96732 -2.12084 0 
-4.75387 -2.12105 0 
-4.54086 -2.12091 0 
-4.32822 -2.12045 0 
-4.11596 -2.12045 0 
-3.90382 -2.12107 0 
-3.69156 -2.12116 0 
-3.47938 -2.12058 0 
-3.26746 -2.12068 0 
-3.05542 -2.12154 0 
-2.84307 -2.12198 0 
-2.63064 -2.12162 0 
-2.41836 -2.12087 0 
-2.20626 -2.12031 0 
-1.99426 -2.12034 0 
-1.78217 -2.1207 0 
-1.56989 -2.12074 0 
-1.35755 -2.11993 0 
-1.14542 -2.11838 0 
-0.934012 -2.11859 0 
-0.722404 -2.12089 0 
-0.509943 -2.12344 0 
-0.296911 -2.12431 0 
-0.0840921 -2.12359 0 
0.128295 -2.12281 0 
0.340414 -2.12274 0 
0.552564 -2.12288 0 
0.76478 -2.12226 0 
0.976792 -2.1213 0 
1.18855 -2.12128 0 
1.40042 -2.12188 0 
1.61256 -2.12177 0 
1.82458 -2.12141 0 
2.03655 -2.12164 0 
2.24875 -2.12174 0 
2.46099 -2.12114 0 
2.67302 -2.12065 0 
2.88504 -2.12054 0 
3.09728 -2.1194 0 
3.30873 -2.11968 0 
3.52086 -2.1195 0 
3.7329 -2.11938 0 
3.94484 -2.11986 0 
4.15715 -2.12044 0 
4.36983 -2.12035 0 
4.58282 -2.1204 0 
4.79606 -2.12017 0 
5.01004 -2.12012 0 
5.22483 -2.12002 0 
5.44073 -2.12051 0 
5.6582 -2.123 0 
5.8782 -2.12696 0 
6.10217 -2.12971 0 
6.33095 -2.12707 0 
6.567 -2.11601 0 
6.82301 -2.12303 0 
7.06572 -2.04567 0 
7.29733 -2.17484 0 
7.54632 -2.11408 0 
7.79371 -2.13741 0 
8.02274 -2.07453 0 
8.25027 -2.1738 0 
8.48528 -2.0332 0 
-8.48528 -1.79671 0 
-8.25436 -1.93882 0 
-8.01299 -1.83977 0 
-7.78596 -1.953 0 
-7.5297 -1.87194 0 
-7.2756 -1.88722 0 
-7.05707 -1.93544 0 
-6.84369 -1.89677 0 
-6.62219 -1.88079 0 
-6.40169 -1.87606 0 
-6.18206 -1.87854 0 
-5.96274 -1.881 0 
-5.74458 -1.88208 0 
-5.52796 -1.88344 0 
-5.31232 -1.88506 0 
-5.09736 -1.88569 0 
-4.88338 -1.88564 0 
-4.67019 -1.88555 0 
-4.45737 -1.88507 0 
-4.24485 -1.88447 0 
-4.03271 -1.88482 0 
-3.82061 -1.88562 0 
-3.60832 -1.88529 0 
-3.39617 -1.88464 0 
-3.18427 -1.88547 0 
-2.97209 -1.88672 0 
-2.7596 -1.88684 0 
-2.54714 -1.88601 0 
-2.33483 -1.88505 0 
-2.12268 -1.8846 0 
-1.91058 -1.885 0 
-1.69824 -1.88561 0 
-1.48561 -1.88547 0 
-1.27286 -1.88413 0 
-1.06032 -1.88216 0 
-0.848858 -1.8839 0 
-0.636875 -1.88781 0 
-0.424169 -1.89034 0 
-0.211518 -1.89004 0 
0.000731944 -1.88866 0 
0.21257 -1.88788 0 
0.424308 -1.88807 0 
0.636257 -1.88793 0 
0.848362 -1.88664 0 
1.06025 -1.88556 0 
1.27191 -1.88605 0 
1.48381 -1.88664 0 
1.69595 -1.886 0 
1.90782 -1.88577 0 
2.11974 -1.88637 0 
2.33202 -1.88609 0 
2.54419 -1.88502 0 
2.75607 -1.88472 0 
2.96812 -1.88462 0 
3.18055 -1.88217 0 
3.39117 -1.88415 0 
3.60398 -1.8838 0 
3.81618 -1.88366 0 
4.02827 -1.88469 0 
4.24071 -1.88523 0 
4.4544 -1.88509 0 
4.66716 -1.88476 0 
4.88099 -1.88493 0 
5.09545 -1.88466 0 
5.31057 -1.88453 0 
5.52653 -1.88564 0 
5.7436 -1.88981 0 
5.96352 -1.89563 0 
6.18733 -1.89813 0 
6.41543 -1.89522 0 
6.65059 -1.89622 0 
6.87542 -1.86913 0 
7.11122 -1.81621 0 
7.31223 -1.94975 0 
7.53264 -1.87683 0 
7.77077 -1.89068 0 
8.01717 -1.8297 0 
8.25014 -1.93148 0 
8.48528 -1.79628 0 
-8.48528 -1.57009 0 
-8.24868 -1.70836 0 
-8.015 -1.61096 0 
-7.76734 -1.73071 0 
-7.54593 -1.61782 0 
-7.32306 -1.66278 0 
-7.05152 -1.7082 0 
-6.79786 -1.66675 0 
-6.56099 -1.64764 0 
-6.33267 -1.64541 0 
-6.10856 -1.64921 0 
-5.88638 -1.65073 0 
-5.66697 -1.65153 0 
-5.44986 -1.65353 0 
-5.23379 -1.65525 0 
-5.01882 -1.6551 0 
-4.80519 -1.6548 0 
-4.59235 -1.65478 0 
-4.37976 -1.65422 0 
-4.16737 -1.65386 0 
-3.95537 -1.65471 0 
-3.74326 -1.6554 0 
-3.5309 -1.65455 0 
-3.31876 -1.65426 0 
-3.10682 -1.65593 0 
-2.89443 -1.65705 0 
-2.68177 -1.65644 0 
-2.46924 -1.65516 0 
-2.25682 -1.65408 0 
-2.04447 -1.65386 0 
-1.83202 -1.65455 0 
-1.61911 -1.65506 0 
-1.40572 -1.65429 0 
-1.19212 -1.65207 0 
-0.97885 -1.64982 0 
-0.767325 -1.65372 0 
-0.555434 -1.6581 0 
-0.343588 -1.65935 0 
-0.132061 -1.65818 0 
0.0792288 -1.65687 0 
0.290417 -1.65682 0 
0.501823 -1.6575 0 
0.713729 -1.65709 0 
0.925861 -1.65545 0 
1.13768 -1.65488 0 
1.34929 -1.65604 0 
1.56128 -1.6563 0 
1.77337 -1.65516 0 
1.985 -1.65561 0 
2.19698 -1.65642 0 
2.40939 -1.65525 0 
2.62143 -1.65394 0 
2.83323 -1.65414 0 
3.04553 -1.65355 0 
3.25842 -1.64868 0 
3.46746 -1.65522 0 
3.68272 -1.65284 0 
3.89574 -1.65288 0 
4.10731 -1.65378 0 
4.32287 -1.65565 0 
4.53627 -1.65249 0 
4.74932 -1.65397 0 
4.96428 -1.65355 0 
5.17935 -1.65257 0 
5.3944 -1.65202 0 
5.60927 -1.65354 0 
5.82513 -1.66019 0 
6.04295 -1.66711 0 
6.26383 -1.66843 0 
6.48537 -1.66776 0 
6.70098 -1.65646 0 
6.91299 -1.6206 0 
7.11709 -1.6046 0 
7.3526 -1.69716 0 
7.60698 -1.65764 0 
7.8325 -1.64214 0 
8.05985 -1.58842 0 
8.2608 -1.69223 0 
8.48528 -1.56961 0 
-8.48528 -1.35019 0 
-8.24958 -1.48044 0 
-8.0219 -1.3751 0 
-7.79713 -1.50391 0 
-7.58956 -1.39834 0 
-7.36199 -1.38754 0 
-7.16079 -1.49923 0 
-6.93764 -1.46284 0 
[...]
POINT_DATA 2054 
VECTORS vectors float
0.00255756 -0.00209266 0.999995 
2.51986e-05 -0.00251988 0.999997 
0.00190598 -0.00807109 0.999966 
0.000505063 -0.0150028 0.999887 
0.00160848 -0.0139369 0.999902 
0.000914869 -0.00680908 0.999976 
0.00132871 -0.000277933 0.999999 
0.00118649 0.00240249 0.999996 
0.00130259 0.000281194 0.999999 
0.00128852 -0.00484463 0.999987 
0.00125531 -0.00796984 0.999967 
0.00123654 -0.00422692 0.99999 
0.00119368 0.00627871 0.99998 
0.0012092 0.0186586 0.999825 
0.00121332 0.029012 0.999578 
0.00121221 0.0385253 0.999257 
0.00118235 0.0505739 0.99872 
0.00114328 0.0668237 0.997764 
0.00109972 0.0868773 0.996218 
0.00105671 0.109797 0.993953 
0.000998092 0.134892 0.99086 
0.000933809 0.16128 0.986908 
0.000854687 0.187726 0.982221 
0.000761469 0.212774 0.977101 
0.000654267 0.234547 0.972105 
0.000537092 0.250627 0.968084 
0.000423265 0.258288 0.966068 
0.000314407 0.255162 0.966898 
0.000215202 0.240395 0.970675 
0.000131061 0.215142 0.976583 
6.51356e-05 0.181701 0.983354 
2.60615e-05 0.142626 0.989777 
1.21528e-05 0.100788 0.994908 
2.14021e-05 0.0595603 0.998225 
4.77082e-05 0.0224179 0.999749 
9.3887e-05 -0.00791611 0.999969 
0.000157026 -0.030201 0.999544 
0.000231106 -0.0442624 0.99902 
0.000304817 -0.049674 0.998765 
0.000371941 -0.0454814 0.998965 
0.000434308 -0.0314105 0.999506 
0.000499981 -0.0088782 0.99996 
0.000563864 0.019751 0.999805 
0.000614958 0.0533748 0.998574 
0.000635952 0.0935413 0.995615 
0.000629322 0.143229 0.989689 
0.000597368 0.204575 0.978851 
0.000537171 0.278764 0.96036 
0.000444926 0.367547 0.930005 
0.00031004 0.473063 0.881029 
0.000143892 0.595154 0.803612 
-3.18997e-05 0.727605 0.685996 
-0.000185479 0.855443 0.517897 
-0.000283315 0.955033 0.296499 
-0.000313217 0.999429 0.033801 
-0.000299882 0.970706 -0.24027 
-0.000314436 0.873127 -0.487493 
-0.000395526 0.732606 -0.680653 
-0.000532648 0.581039 -0.813876 
-0.000688983 0.441568 -0.897227 
-0.000828091 0.324858 -0.945762 
-0.000946303 0.233035 -0.972468 
-0.00104472 0.16435 -0.986402 
-0.00111958 0.115072 -0.993357 
-0.00113596 0.0794965 -0.996834 
-0.00118349 0.051238 -0.998686 
-0.00114467 0.0274252 -0.999623 
-0.00125352 0.0104397 -0.999945 
-0.0012199 0.00298247 -0.999995 
-0.00131374 0.00321277 -0.999994 
-0.00125469 0.00547521 -0.999984 
-0.00122755 0.00528538 -0.999985 
-0.00127261 0.000854634 -0.999999 
-0.000965614 -0.00650837 -0.999978 
-0.00155777 -0.0138519 -0.999903 
-0.000581901 -0.0146506 -0.999893 
-0.00177854 -0.0078054 -0.999968 
-0.000223899 -0.0026767 -0.999996 
-0.00224025 -0.0026051 -0.999994 
-0.00224448 -0.000970674 0.999997 
0.00246618 -0.00453367 0.999987 
0.000771537 -0.00516833 0.999986 
0.00103257 -0.00930321 0.999956 
-0.000407827 -0.0112942 0.999936 
-0.000560545 -0.00959662 0.999954 
-0.000407968 -0.00410554 0.999991 
-0.000168509 0.000523741 1 
0.000181616 0.0014869 0.999999 
0.000471506 -0.000604532 1 
0.000559134 -0.00292985 0.999996 
0.000315086 -0.00177717 0.999998 
-0.00014519 0.00463867 0.999989 
-0.000697665 0.0145293 0.999894 
-0.00131059 0.0252382 0.999681 
-0.00234291 0.0359732 0.99935 
-0.00431214 0.0483154 0.998823 
-0.00781182 0.0640274 0.997918 
-0.0132767 0.0836718 0.996405 
-0.020983 0.106953 0.994043 
-0.0312881 0.1332 0.990595 
-0.0447459 0.161646 0.985834 
-0.0622245 0.19128 0.979561 
-0.0846677 0.220554 0.971693 
-0.112597 0.24721 0.962398 
-0.14579 0.268335 0.95223 
-0.183263 0.280729 0.942129 
-0.223173 0.281577 0.933225 
-0.262826 0.269346 0.926485 
-0.299008 0.244351 0.922435 
-0.32866 0.208591 0.921126 
-0.349536 0.165107 0.92226 
-0.360485 0.117542 0.925329 
-0.361443 0.0698484 0.929774 
-0.352805 0.0258998 0.935338 
-0.335524 -0.0111488 0.941966 
-0.311742 -0.0394047 0.949349 
-0.284302 -0.0581017 0.956973 
-0.255765 -0.0670564 0.964411 
-0.227717 -0.0661074 0.971481 
-0.201009 -0.0553868 0.978022 
-0.176242 -0.0358367 0.983694 
-0.154007 -0.00892803 0.988029 
-0.134793 0.024186 0.990579 
-0.118688 0.063873 0.990875 
-0.105688 0.111961 0.988076 
-0.095868 0.170391 0.980702 
-0.0893249 0.241054 0.966392 
-0.0857918 0.325548 0.941625 
-0.0848055 0.425866 0.900803 
-0.0857242 0.542619 0.835593 
-0.0875838 0.672248 0.735127 
-0.0891668 0.803974 0.587941 
-0.0890763 0.917824 0.386864 
-0.0857607 0.986816 0.137258 
-0.0781742 0.987486 -0.136969 
-0.0667292 0.914925 -0.398069 
-0.0534516 0.788375 -0.612869 
-0.0408339 0.639167 -0.767983 
-0.0304454 0.494235 -0.868795 
-0.0225744 0.368752 -0.929254 
-0.0167976 0.267713 -0.963352 
-0.0125011 0.190435 -0.98162 
-0.00917298 0.133484 -0.991009 
-0.00658007 0.0919473 -0.995742 
-0.00456689 0.0606091 -0.998151 
-0.00326287 0.0358761 -0.999351 
-0.00246115 0.017665 -0.999841 
-0.00223239 0.00789118 -0.999966 
-0.0014742 0.00537313 -0.999984 
-0.00149415 0.00564325 -0.999983 
-0.000381219 0.00357948 -0.999994 
5.7512e-05 -0.00189767 -0.999998 
0.000179539 -0.00886193 -0.999961 
0.000454602 -0.0109396 -0.99994 
-0.000606149 -0.00905631 -0.999959 
-0.000285419 -0.00520961 -0.999986 
-0.0020848 -0.00438714 -0.999988 
0.00237458 -0.000730125 -0.999997 
0.00158053 -0.00136909 0.999998 
-0.000845477 -0.00477733 0.999988 
-0.000617045 -0.00478887 0.999988 
-0.00330257 -0.00668449 0.999972 
-0.00300864 -0.00901748 0.999955 
-0.00334969 -0.00598802 0.999976 
-0.00327369 -0.00163234 0.999993 
-0.00298481 0.00203665 0.999993 
-0.00274123 0.00255978 0.999993 
-0.00262804 0.00155309 0.999995 
-0.00300407 0.00138468 0.999995 
-0.00392289 0.00487349 0.99998 
-0.00506302 0.0121394 0.999913 
-0.00633791 0.021853 0.999741 
-0.00801231 0.0329383 0.999425 
-0.0108744 0.0458448 0.998889 
-0.0159735 0.0620011 0.997948 
-0.0242775 0.0824828 0.996297 
-0.0365192 0.107802 0.993501 
-0.0533959 0.137731 0.989029 
-0.0759204 0.171687 0.982222 
-0.105671 0.209017 0.972186 
-0.144648 0.248412 0.957794 
-0.194281 0.287106 0.93799 
-0.254604 0.320848 0.912268 
-0.324087 0.344731 0.880981 
-0.399469 0.354175 0.845567 
-0.475696 0.345974 0.808712 
-0.546711 0.319324 0.774041 
-0.606724 0.276169 0.745396 
-0.651478 0.220639 0.725875 
-0.678951 0.15807 0.716966 
-0.689002 0.0939871 0.718639 
-0.682638 0.033473 0.72999 
-0.660646 -0.0191746 0.750453 
-0.624959 -0.0609274 0.778277 
-0.579507 -0.0902338 0.809957 
-0.529121 -0.106881 0.841788 
-0.47754 -0.111196 0.871545 
-0.426897 -0.103921 0.898309 
-0.378459 -0.0860902 0.921606 
-0.33374 -0.0592463 0.940802 
-0.294193 -0.0248846 0.955422 
-0.260604 0.0166116 0.965303 
-0.232901 0.0658025 0.970272 
-0.211131 0.124273 0.969526 
-0.195623 0.193594 0.961381 
-0.18616 0.275448 0.943119 
-0.181893 0.371714 0.910354 
-0.181762 0.483465 0.856285 
-0.184447 0.609177 0.771286 
-0.187723 0.741591 0.644052 
-0.18856 0.865069 0.464867 
-0.183909 0.955025 0.232605 
-0.170774 0.984674 -0.0353907 
-0.149038 0.940592 -0.305081 
-0.121816 0.833496 -0.53893 
-0.094027 0.692098 -0.715653 
-0.0696854 0.54573 -0.835059 
-0.0504756 0.413598 -0.909059 
-0.036065 0.304186 -0.95193 
-0.0254243 0.218697 -0.975462 
-0.0174055 0.154611 -0.987822 
-0.0112693 0.107542 -0.994137 
-0.00671591 0.0728854 -0.997318 
-0.00351596 0.0468511 -0.998896 
-0.00166745 0.0274631 -0.999621 
-0.000613154 0.0149747 -0.999888 
8.53964e-05 0.00909546 -0.999959 
0.000634375 0.00721381 -0.999974 
0.00232089 0.00597049 -0.999979 
0.0013463 0.00288952 -0.999995 
0.00342327 -0.000548282 -0.999994 
0.00265775 -0.00536821 -0.999982 
0.00307742 -0.00811792 -0.999962 
0.00319782 -0.0061783 -0.999976 
0.00119413 -0.00476785 -0.999988 
0.00135128 -0.00469307 -0.999988 
-0.00132841 -0.00144972 -0.999998 
-0.000769905 -0.00106168 0.999999 
-0.000209352 -0.00396874 0.999992 
-0.00169048 -0.0018939 0.999997 
-0.00233358 -0.00418481 0.999989 
-0.00288389 -0.00588248 0.999979 
-0.0028205 -0.00662463 0.999974 
-0.0030895 -0.00404439 0.999987 
-0.00325161 0.00130224 0.999994 
-0.00309427 0.00414699 0.999987 
-0.00308665 0.00475925 0.999984 
-0.00350039 0.00445088 0.999984 
-0.00465304 0.00570828 0.999973 
-0.0064699 0.0104359 0.999925 
-0.00855995 0.0184196 0.999794 
-0.0108393 0.0289184 0.999523 
-0.0140606 0.0418327 0.999026 
-0.0193449 0.0583428 0.998109 
-0.0280645 0.0797707 0.996418 
-0.0414889 0.107317 0.993359 
-0.0607539 0.141629 0.988054 
-0.0872832 0.182508 0.979322 
-0.123125 0.229589 0.965468 
-0.171073 0.282195 0.943981 
-0.23373 0.337785 0.911741 
-0.311747 0.390682 0.86613 
-0.403216 0.433243 0.80605 
-0.503604 0.457831 0.732648 
-0.605715 0.45837 0.650389 
-0.701146 0.43227 0.567042 
-0.782569 0.381431 0.492033 
-0.845332 0.311615 0.433947 
-0.888016 0.230544 0.39784 
-0.911381 0.145793 0.384875 
-0.917035 0.063729 0.393682 
-0.906549 -0.0106089 0.421967 
-0.879948 -0.0731006 0.469411 
-0.838533 -0.121061 0.531231 
-0.785662 -0.15309 0.599415 
-0.725934 -0.169095 0.666654 
-0.662947 -0.169794 0.729158 
-0.59896 -0.156245 0.785388 
-0.536443 -0.130395 0.833802 
-0.478372 -0.0942821 0.873081 
-0.427309 -0.0496936 0.902739 
-0.38426 0.00287593 0.92322 
-0.349186 0.0639623 0.934868 
-0.322509 0.134443 0.93697 
-0.304701 0.2158 0.927679 
-0.294882 0.309678 0.90396 
-0.291469 0.417361 0.860729 
-0.293035 0.538699 0.789895 
-0.297018 0.6692 0.68114 
-0.299007 0.797383 0.52419 
-0.293868 0.902855 0.313839 
-0.277521 0.958939 0.0584624 
-0.247193 0.945638 -0.211342 
-0.206722 0.863754 -0.459559 
-0.162898 0.736368 -0.656678 
-0.122388 0.593715 -0.795314 
-0.0890098 0.458292 -0.884334 
-0.0634578 0.34193 -0.93758 
-0.0444968 0.248522 -0.967604 
-0.03051 0.177213 -0.9837 
-0.0200565 0.124397 -0.99203 
-0.0123171 0.085734 -0.996242 
-0.00685682 0.0574373 -0.998326 
-0.00330635 0.0365314 -0.999327 
-0.00134768 0.0219061 -0.999759 
-0.000441408 0.0134057 -0.99991 
0.000537752 0.00977415 -0.999952 
0.000950156 0.00812876 -0.999967 
0.00175796 0.00465482 -0.999988 
0.00152096 -0.000688634 -0.999999 
0.00295383 -0.00525203 -0.999982 
0.00248035 -0.00586577 -0.99998 
0.00266459 -0.00375979 -0.999989 
0.00207248 -0.00203084 -0.999996 
0.000801472 -0.00381233 -0.999992 
0.0010646 -0.00104983 -0.999999 
0.000272738 -0.00144051 0.999999 
0.000309673 -0.00233033 0.999997 
0.0019794 -0.00048235 0.999998 
-0.000177728 -0.00239187 0.999997 
0.000394738 -0.00577312 0.999983 
-0.000477268 -0.00535309 0.999986 
-0.00132331 -0.000982042 0.999999 
-0.00147335 0.00394827 0.999991 
-0.00177557 0.00643421 0.999978 
-0.00214399 0.0068486 0.999974 
-0.00301943 0.00684092 0.999972 
-0.00502794 0.00921563 0.999945 
-0.00770699 0.0151637 0.999855 
-0.0105801 0.0244199 0.999646 
-0.0140071 0.0366964 0.999228 
-0.0189475 0.0529545 0.998417 
-0.0267417 0.0747411 0.996844 
-0.0389761 0.103703 0.993844 
-0.0572561 0.141472 0.988285 
-0.0833701 0.188718 0.978486 
-0.119674 0.24537 0.962014 
-0.169317 0.311218 0.935134 
-0.235706 0.384737 0.892424 
-0.32049 0.460087 0.828014 
-0.421522 0.526351 0.738426 
-0.532893 0.571461 0.624066 
-0.645268 0.585396 0.490857 
-0.74804 0.563022 0.351343 
-0.833358 0.506448 0.221416 
-0.898303 0.423989 0.115264 
-0.944278 0.326489 0.0417537 
-0.974632 0.223795 0.00275592 
-0.99238 0.123141 -0.0041592 
-0.999415 0.0293681 0.0174996 
-0.996422 -0.0540639 0.0649635 
-0.982334 -0.123944 0.140203 
-0.955408 -0.178021 0.235594 
-0.915871 -0.214348 0.339464 
-0.866058 -0.231925 0.442894 
-0.808205 -0.230815 0.541783 
-0.744965 -0.21222 0.632448 
-0.680004 -0.178377 0.71118 
-0.617969 -0.132323 0.774987 
-0.562727 -0.0761784 0.823125 
-0.515678 -0.0109887 0.856712 
-0.477306 0.0630816 0.87647 
-0.448931 0.146589 0.88146 
-0.431044 0.240649 0.869649 
-0.421717 0.346469 0.837923 
-0.418933 0.464329 0.780317 
-0.420596 0.591777 0.687677 
-0.421862 0.720467 0.550418 
-0.415534 0.834211 0.362525 
-0.395375 0.909701 0.126972 
-0.358543 0.923461 -0.136622 
-0.305431 0.870016 -0.38702 
-0.245534 0.762073 -0.59913 
-0.187867 0.628937 -0.754416 
-0.138457 0.495663 -0.857408 
-0.0995456 0.376424 -0.921084 
-0.0702176 0.276919 -0.958324 
-0.0487557 0.1993 -0.978725 
-0.0329615 0.140889 -0.989477 
-0.0213877 0.0980565 -0.994951 
-0.0132304 0.0669594 -0.997668 
-0.00771999 0.0444404 -0.998982 
-0.00443713 0.0281278 -0.999594 
-0.00277341 0.017456 -0.999844 
-0.00183824 0.0121707 -0.999924 
-0.00105848 0.0101381 -0.999948 
-0.000166916 0.0082067 -0.999966 
1.04988e-06 0.00453148 -0.99999 
-0.000141675 -0.00132294 -0.999999 
0.000352068 -0.00564072 -0.999984 
-0.000520141 -0.00499169 -0.999987 
-0.000660772 -0.00229242 -0.999997 
-0.00148494 -0.000188299 -0.999999 
7.77294e-05 -0.00268108 -0.999996 
-0.000258633 -0.00139654 -0.999999 
-0.000187723 -0.00141311 0.999999 
0.00161248 -0.00130356 0.999998 
0.00196627 0.00098397 0.999998 
0.00204802 -0.00172573 0.999996 
8.56938e-05 -0.00505495 0.999987 
-0.00106947 -0.00516134 0.999986 
-0.00225039 0.000372458 0.999997 
-0.00391699 0.00638294 0.999972 
-0.00481563 0.00879662 0.99995 
-0.0051972 0.00856582 0.99995 
-0.00641784 0.00896748 0.999939 
-0.00872167 0.0126403 0.999882 
-0.0115864 0.0201955 0.999729 
-0.014858 0.0313509 0.999398 
-0.0191604 0.0465954 0.99873 
-0.0255204 0.0677355 0.997377 
-0.0354166 0.0967018 0.994683 
-0.0506327 0.135788 0.989443 
-0.0730901 0.186835 0.979669 
-0.10533 0.250493 0.962371 
-0.150539 0.326815 0.933022 
-0.212247 0.41513 0.884657 
-0.292955 0.511076 0.808071 
-0.391165 0.602334 0.695833 
-0.500002 0.671028 0.547466 
-0.608504 0.701859 0.370293 
-0.704217 0.686465 0.181231 
-0.778964 0.627061 0.00308545 
-0.832064 0.535299 -0.145345 
-0.868422 0.425983 -0.253737 
-0.894559 0.311558 -0.320463 
-0.915223 0.19987 -0.349883 
-0.932873 0.0950928 -0.347428 
-0.94845 -0.000639866 -0.316927 
-0.961931 -0.0858801 -0.259448 
-0.972639 -0.15866 -0.169708 
-0.974455 -0.21699 -0.0579058 
-0.964004 -0.257719 0.0654069 
-0.940667 -0.278515 0.193841 
-0.904871 -0.278174 0.322223 
-0.858278 -0.257189 0.444087 
-0.804751 -0.217839 0.552198 
-0.750058 -0.163327 0.640888 
-0.699035 -0.0965509 0.708539 
-0.653878 -0.019174 0.756357 
-0.616275 0.0677332 0.784613 
-0.588892 0.164039 0.79139 
-0.571875 0.270359 0.77451 
-0.561907 0.386598 0.731302 
-0.556927 0.511283 0.654539 
-0.553409 0.638424 0.534934 
-0.543091 0.754974 0.367514 
-0.517386 0.841665 0.154634 
-0.472 0.876893 -0.0909679 
-0.408522 0.846624 -0.341084 
-0.333196 0.765415 -0.550564 
-0.25812 0.645222 -0.71907 
-0.192329 0.518945 -0.83289 
-0.139443 0.402575 -0.904704 
-0.098196 0.300888 -0.948591 
-0.0680548 0.218743 -0.973406 
-0.0459819 0.15598 -0.986689 
-0.0298363 0.109122 -0.99358 
-0.018281 0.0751738 -0.997003 
-0.0104548 0.0508384 -0.998652 
-0.0055366 0.0334142 -0.999426 
-0.0027506 0.0211071 -0.999773 
-0.00146786 0.0138896 -0.999902 
-0.000481764 0.0111477 -0.999938 
0.000619633 0.0104183 -0.999946 
0.00131937 0.00879886 -0.99996 
0.00202602 0.0047244 -0.999987 
0.00168944 -0.000881963 -0.999998 
-0.000616432 -0.00537076 -0.999985 
-0.00186102 -0.00408362 -0.99999 
-0.0023683 -9.06507e-05 -0.999997 
-0.00225399 0.00045282 -0.999997 
-0.00149215 -0.00137101 -0.999998 
0.000231396 -0.00146861 -0.999999 
-2.29163e-05 -0.00146999 0.999999 
0.000783699 -0.000443324 1 
-0.000990876 0.00179737 0.999998 
0.000227821 -0.000667234 1 
-0.00374716 -0.00363827 0.999986 
-0.00664326 -0.0036351 0.999971 
-0.00592152 -0.000849746 0.999982 
-0.00886738 0.00585792 0.999944 
-0.0112749 0.0103225 0.999883 
-0.0121556 0.011101 0.999864 
-0.0124357 0.0103827 0.999869 
-0.0133329 0.0115247 0.999845 
-0.0152419 0.0168188 0.999742 
-0.0176743 0.0263439 0.999497 
-0.0209323 0.0399618 0.998982 
-0.0256983 0.0593126 0.997909 
-0.0330297 0.0867249 0.995685 
-0.0443868 0.124782 0.991191 
-0.0615256 0.176287 0.982414 
-0.0868863 0.243104 0.966101 
-0.123497 0.325917 0.937297 
-0.174666 0.424444 0.888448 
-0.243129 0.53599 0.808457 
-0.328537 0.650026 0.685222 
-0.424819 0.744864 0.514496 
-0.520681 0.797201 0.305553 
-0.602844 0.793977 0.0786056 
-0.662441 0.736349 -0.137701 
-0.699966 0.639036 -0.318876 
-0.722383 0.521422 -0.454184 
-0.738293 0.399232 -0.543634 
-0.75406 0.281671 -0.593342 
-0.772406 0.172561 -0.611237 
-0.794383 0.0729361 -0.603022 
-0.820407 -0.017212 -0.571521 
-0.851236 -0.0979474 -0.515562 
-0.887222 -0.16891 -0.429309 
-0.918512 -0.228028 -0.323015 
-0.941184 -0.271813 -0.200723 
-0.952673 -0.296816 -0.0656759 
-0.950749 -0.300321 0.0767104 
-0.934557 -0.281163 0.21806 
-0.906183 -0.24056 0.347798 
-0.87088 -0.181355 0.456814 
-0.833668 -0.106705 0.54186 
-0.797295 -0.0194106 0.603278 
-0.765152 0.0784903 0.639048 
-0.741037 0.185925 0.64521 
-0.72399 0.301993 0.620192 
-0.70953 0.424498 0.562466 
-0.695863 0.549045 0.462952 
-0.676795 0.665144 0.315488 
-0.641852 0.756385 0.126126 
-0.585367 0.805358 -0.0935076 
-0.508427 0.797587 -0.324588 
-0.418386 0.731498 -0.538389 
-0.329324 0.642967 -0.691476 
-0.244426 0.520748 -0.817972 
-0.179157 0.412903 -0.89298 
-0.125534 0.314545 -0.940905 
-0.0864215 0.231935 -0.968885 
-0.0575759 0.166464 -0.984365 
-0.0368723 0.117634 -0.992372 
-0.0216321 0.0809895 -0.99648 
-0.0109856 0.0550734 -0.998422 
-0.00385851 0.0369252 -0.999311 
0.000674836 0.0239536 -0.999713 
0.00329004 0.0154718 -0.999875 
0.00492189 0.0113658 -0.999923 
0.00634821 0.0109203 -0.99992 
0.00777204 0.0111343 -0.999908 
0.00865314 0.00938908 -0.999918 
0.00871201 0.00398207 -0.999954 
0.00437534 -0.0035984 -0.999984 
0.00256142 -0.00449347 -0.999987 
0.00134935 -0.00158012 -0.999998 
0.000398712 0.00275008 -0.999996 
-0.000527855 -0.000557585 -1 
-0.00014422 -0.00143886 -0.999999 
9.35389e-05 -0.00147018 0.999999 
-0.00169329 0.000157085 0.999999 
-0.00511216 0.00292317 0.999983 
-0.00479749 0.00081937 0.999988 
-0.00872745 -0.00241127 0.999959 
-0.0121494 0.000189868 0.999926 
-0.0123858 0.00365042 0.999917 
-0.0160754 0.0107531 0.999813 
-0.0183052 0.0138099 0.999737 
-0.0190629 0.0133119 0.99973 
-0.0191074 0.0123276 0.999741 
-0.0195681 0.0145992 0.999702 
-0.0206844 0.0217912 0.999549 
-0.0224319 0.0332111 0.999197 
-0.0254427 0.0497189 0.998439 
-0.0304164 0.0738536 0.996805 
-0.0382314 0.108438 0.993368 
-0.0500341 0.156528 0.986405 
-0.0677622 0.221433 0.972818 
-0.093932 0.304849 0.947757 
-0.131535 0.407264 0.903789 
-0.183258 0.527105 0.829805 
-0.249751 0.657223 0.711113 
-0.326969 0.777696 0.536917 
-0.405776 0.858759 0.312856 
-0.474031 0.878322 0.062019 
-0.5217 0.833097 -0.183789 
-0.547999 0.738061 -0.393653 
-0.560214 0.616854 -0.552858 
-0.566945 0.48938 -0.662631 
-0.57519 0.367602 -0.73077 
-0.588506 0.256384 -0.766764 
-0.607597 0.156409 -0.778693 
-0.632979 0.0669912 -0.771265 
-0.665603 -0.0132405 -0.746189 
-0.708047 -0.0860161 -0.700907 
-0.760638 -0.152204 -0.631081 
-0.812997 -0.209578 -0.543243 
-0.862975 -0.254683 -0.436361 
-0.906826 -0.283436 -0.31198 
-0.940503 -0.291798 -0.17409 
-0.960314 -0.277192 -0.0310178 
-0.96528 -0.239128 0.105129 
-0.958237 -0.179489 0.222632 
-0.942908 -0.101574 0.317186 
-0.921961 -0.00880157 0.387183 
-0.899598 0.095892 0.426062 
-0.879392 0.209883 0.427339 
-0.858879 0.329629 0.392011 
-0.833561 0.450102 0.320288 
-0.801308 0.563682 0.20042 
-0.75415 0.655723 0.035845 
-0.685364 0.712139 -0.152103 
-0.595743 0.722372 -0.351097 
-0.490913 0.679649 -0.545052 
-0.383024 0.592089 -0.70903 
-0.294454 0.517379 -0.803502 
-0.212599 0.401549 -0.89082 
-0.148474 0.314008 -0.937739 
-0.101859 0.234958 -0.966654 
-0.0672231 0.170692 -0.983029 
-0.0422156 0.120353 -0.991833 
-0.0248004 0.0843732 -0.996126 
-0.0113762 0.0561047 -0.99836 
-0.00257975 0.0376735 -0.999287 
0.00369831 0.0248976 -0.999683 
0.00796523 0.0162757 -0.999836 
0.0108468 0.011253 -0.999878 
0.0125484 0.0105743 -0.999865 
0.0143849 0.0116771 -0.999828 
0.0151528 0.012671 -0.999805 
0.0150895 0.0107136 -0.999829 
0.01379 0.00523536 -0.999891 
0.00914286 -0.0021262 -0.999956 
0.00700993 -0.0026113 -0.999972 
0.00545414 0.00111836 -0.999985 
0.00244843 0.000645909 -0.999997 
0.00167511 0.00039805 -0.999999 
7.66197e-05 -0.00147646 -0.999999 
-0.000450319 -0.00148332 0.999999 
-0.00394674 0.000673409 0.999992 
-0.00749432 0.00368973 0.999965 
-0.008303 0.00200979 0.999964 
-0.0104493 -0.000315121 0.999945 
-0.0126141 0.00300271 0.999916 
-0.0161066 0.00914345 0.999828 
-0.0193043 0.0152978 0.999697 