# vtk DataFile Version 3.0 
Exported using Morpho https://github.com/Morpho-lang/morpho 
ASCII 
DATASET UNSTRUCTURED_GRID 

POINTS 2054 float 
-8.48528 -2.82843 0 
-8.20636 -2.82843 0 
-7.94054 -2.82843 0 
-7.6904 -2.82843 0 
-7.45357 -2.82843 0 
-7.22694 -2.82843 0 
-7.00705 -2.82843 0 
-6.79111 -2.82843 0 
-6.57731 -2.82843 0 
-6.36453 -2.82843 0 
-6.15219 -2.82843 0 
-5.94 -2.82843 0 
-5.72786 -2.82843 0 
-5.51573 -2.82843 0 
-5.3036 -2.82843 0 
-5.09147 -2.82843 0 
-4.87933 -2.82843 0 
-4.6672 -2.82843 0 
-4.45507 -2.82843 0 
-4.24294 -2.82843 0 
-4.03081 -2.82843 0 
-3.81867 -2.82843 0 
-3.60654 -2.82843 0 
-3.39441 -2.82843 0 
-3.18228 -2.82843 0 
-2.97015 -2.82843 0 
-2.75801 -2.82843 0 
-2.54588 -2.82843 0 
-2.33375 -2.82843 0 
-2.12162 -2.82843 0 
-1.90949 -2.82843 0 
-1.69735 -2.82843 0 
-1.48522 -2.82843 0 
-1.27309 -2.82843 0 
-1.06096 -2.82843 0 
-0.848825 -2.82843 0 
-0.636693 -2.82843 0 
-0.424561 -2.82843 0 
-0.212429 -2.82843 0 
-0.000296761 -2.82843 0 
0.211835 -2.82843 0 
0.423967 -2.82843 0 
0.636099 -2.82843 0 
0.848231 -2.82843 0 
1.06036 -2.82843 0 
1.2725 -2.82843 0 
1.48463 -2.82843 0 
1.69676 -2.82843 0 
1.90889 -2.82843 0 
2.12102 -2.82843 0 
2.33316 -2.82843 0 
2.54529 -2.82843 0 
2.75742 -2.82843 0 
2.96955 -2.82843 0 
3.18168 -2.82843 0 
3.39382 -2.82843 0 
3.60595 -2.82843 0 
3.81808 -2.82843 0 
4.03021 -2.82843 0 
4.24234 -2.82843 0 
4.45448 -2.82843 0 
4.66661 -2.82843 0 
4.87874 -2.82843 0 
5.09087 -2.82843 0 
5.303 -2.82843 0 
5.51514 -2.82843 0 
5.72727 -2.82843 0 
5.93941 -2.82843 0 
6.15159 -2.82843 0 
6.36393 -2.82843 0 
6.57672 -2.82843 0 
6.79055 -2.82843 0 
7.00652 -2.82843 0 
7.22647 -2.82843 0 
7.45313 -2.82843 0 
7.69005 -2.82843 0 
7.9403 -2.82843 0 
8.20621 -2.82843 0 
8.48528 -2.82843 0 
-8.48528 -2.5495 0 
-8.30526 -2.64845 0 
-8.07062 -2.59995 0 
-7.83904 -2.59637 0 
-7.59595 -2.59733 0 
-7.36578 -2.59177 0 
-7.13796 -2.5933 0 
-6.90908 -2.59428 0 
-6.68421 -2.5916 0 
-6.46568 -2.58832 0 
-6.24926 -2.58859 0 
-6.03358 -2.58941 0 
-5.81848 -2.59013 0 
-5.60402 -2.59075 0 
-5.39005 -2.59135 0 
-5.17642 -2.59186 0 
-4.96311 -2.59223 0 
-4.75009 -2.59242 0 
-4.53736 -2.59244 0 
-4.32497 -2.59236 0 
-4.1128 -2.59242 0 
-3.90059 -2.59259 0 
-3.68835 -2.5926 0 
-3.47627 -2.59248 0 
-3.26428 -2.59251 0 
-3.05216 -2.59271 0 
-2.83986 -2.59283 0 
-2.62755 -2.59274 0 
-2.41539 -2.59253 0 
-2.20336 -2.59238 0 
-1.99135 -2.59238 0 
-1.77924 -2.59246 0 
-1.56704 -2.59244 0 
-1.35495 -2.59215 0 
-1.14319 -2.59183 0 
-0.931581 -2.59195 0 
-0.719663 -2.59256 0 
-0.507197 -2.59324 0 
-0.294425 -2.59354 0 
-0.0817689 -2.59344 0 
0.130587 -2.59325 0 
0.342804 -2.59322 0 
0.555051 -2.59322 0 
0.767233 -2.59303 0 
0.97919 -2.59278 0 
1.19107 -2.59278 0 
1.40311 -2.59289 0 
1.61524 -2.59286 0 
1.82732 -2.59279 0 
2.03943 -2.59281 0 
2.25163 -2.5928 0 
2.46381 -2.59266 0 
2.67591 -2.59254 0 
2.88801 -2.59237 0 
3.10001 -2.59226 0 
3.31203 -2.59216 0 
3.52402 -2.59207 0 
3.73601 -2.59208 0 
3.94815 -2.59221 0 
4.16052 -2.5923 0 
4.37309 -2.59232 0 
4.58593 -2.59227 0 
4.79921 -2.5922 0 
5.01319 -2.59212 0 
5.22833 -2.5921 0 
5.44534 -2.59239 0 
5.6657 -2.59346 0 
5.89185 -2.59569 0 
6.12685 -2.59429 0 
6.36853 -2.59189 0 
6.6108 -2.57787 0 
6.84491 -2.61411 0 
7.08804 -2.58476 0 
7.34858 -2.60369 0 
7.58803 -2.59327 0 
7.83059 -2.59326 0 
8.06387 -2.59199 0 
8.30038 -2.64348 0 
8.48528 -2.54936 0 
-8.48528 -2.28369 0 
-8.25701 -2.4138 0 
-8.01078 -2.35334 0 
-7.73666 -2.37963 0 
-7.49744 -2.35565 0 
-7.26898 -2.35831 0 
-7.03324 -2.36676 0 
-6.7997 -2.36275 0 
-6.5773 -2.35166 0 
-6.35808 -2.3495 0 
-6.14038 -2.35058 0 
-5.92336 -2.35185 0 
-5.70723 -2.35272 0 
-5.49199 -2.35362 0 
-5.27734 -2.35447 0 
-5.0632 -2.35505 0 
-4.84958 -2.35534 0 
-4.63641 -2.35533 0 
-4.42363 -2.35504 0 
-4.21126 -2.35485 0 
-3.99909 -2.35513 0 
-3.78684 -2.3554 0 
-3.57461 -2.35516 0 
-3.36263 -2.35498 0 
-3.15066 -2.35537 0 
-2.93843 -2.35586 0 
-2.72604 -2.35589 0 
-2.51374 -2.35551 0 
-2.30162 -2.35509 0 
-2.08964 -2.35496 0 
-1.87761 -2.35518 0 
-1.66544 -2.3554 0 
-1.45322 -2.35518 0 
-1.2412 -2.35438 0 
-1.02967 -2.35407 0 
-0.818162 -2.35505 0 
-0.606054 -2.35676 0 
-0.393243 -2.3579 0 
-0.180256 -2.35789 0 
0.0323765 -2.35727 0 
0.244686 -2.35692 0 
0.456926 -2.35692 0 
0.669206 -2.35667 0 
0.881318 -2.35598 0 
1.09315 -2.35559 0 
1.305 -2.35583 0 
1.51709 -2.35595 0 
1.72919 -2.35571 0 
1.9412 -2.35566 0 
2.15334 -2.3558 0 
2.36559 -2.3556 0 
2.57772 -2.35522 0 
2.78976 -2.35507 0 
3.0019 -2.35461 0 
3.21373 -2.35451 0 
3.42571 -2.35439 0 
3.63769 -2.35431 0 
3.84965 -2.35453 0 
4.06183 -2.35491 0 
4.27435 -2.35507 0 
4.48707 -2.35507 0 
4.70017 -2.35506 0 
4.91376 -2.35498 0 
5.12819 -2.35502 0 
5.34378 -2.35528 0 
5.56106 -2.35662 0 
5.78097 -2.35971 0 
6.00401 -2.36251 0 
6.2308 -2.3624 0 
6.45748 -2.35551 0 
6.68075 -2.33423 0 
6.88797 -2.39744 0 
7.05313 -2.27289 0 
7.24377 -2.40237 0 
7.48542 -2.36016 0 
7.73055 -2.36599 0 
7.99177 -2.33552 0 
8.24864 -2.40698 0 
8.48528 -2.28345 0 
-8.48528 -2.03355 0 
-8.25312 -2.18214 0 
-8.03669 -2.07913 0 
-7.83956 -2.18231 0 
-7.6106 -2.12852 0 
-7.38852 -2.10959 0 
-7.16268 -2.14097 0 
-6.9229 -2.1435 0 
-6.70119 -2.12055 0 
-6.48111 -2.11285 0 
-6.26282 -2.11284 0 
-6.045 -2.1151 0 
-5.82775 -2.11658 0 
-5.61153 -2.11776 0 
-5.3962 -2.1192 0 
-5.18144 -2.1203 0 
-4.96732 -2.12084 0 
-4.75387 -2.12105 0 
-4.54086 -2.12091 0 
-4.32822 -2.12045 0 
-4.11596 -2.12045 0 
-3.90382 -2.12107 0 
-3.69156 -2.12116 0 
-3.47938 -2.12058 0 
-3.26746 -2.12068 0 
-3.05542 -2.12154 0 
-2.84307 -2.12198 0 
-2.63064 -2.12162 0 
-2.41836 -2.12087 0 
-2.20626 -2.12031 0 
-1.99426 -2.12034 0 
-1.78217 -2.1207 0 
-1.56989 -2.12074 0 
-1.35755 -2.11993 0 
-1.14542 -2.11838 0 
-0.934012 -2.11859 0 
-0.722404 -2.12089 0 
-0.509943 -2.12344 0 
-0.296911 -2.12431 0 
-0.0840921 -2.12359 0 
0.128295 -2.12281 0 
0.340414 -2.12274 0 
0.552564 -2.12288 0 
0.76478 -2.12226 0 
0.976792 -2.1213 0 
1.18855 -2.12128 0 
1.40042 -2.12188 0 
1.61256 -2.12177 0 
1.82458 -2.12141 0 
2.03655 -2.12164 0 
2.24875 -2.12174 0 
2.46099 -2.12114 0 
2.67302 -2.12065 0 
2.88504 -2.12054 0 
3.09728 -2.1194 0 
3.30873 -2.11968 0 
3.52086 -2.1195 0 
3.7329 -2.11938 0 
3.94484 -2.11986 0 
4.15715 -2.12044 0 
4.36983 -2.12035 0 
4.58282 -2.1204 0 
4.79606 -2.12017 0 
5.01004 -2.12012 0 
5.22483 -2.12002 0 
5.44073 -2.12051 0 
5.6582 -2.123 0 
5.8782 -2.12696 0 
6.10217 -2.12971 0 
6.33095 -2.12707 0 
6.567 -2.11601 0 
6.82301 -2.12303 0 
7.06572 -2.04567 0 
7.29733 -2.17484 0 
7.54632 -2.11408 0 
7.79371 -2.13741 0 
8.02274 -2.07453 0 
8.25027 -2.1738 0 
8.48528 -2.0332 0 
-8.48528 -1.79671 0 
-8.25436 -1.93882 0 
-8.01299 -1.83977 0 
-7.78596 -1.953 0 
-7.5297 -1.87194 0 
-7.2756 -1.88722 0 
-7.05707 -1.93544 0 
-6.84369 -1.89677 0 
-6.62219 -1.88079 0 
-6.40169 -1.87606 0 
-6.18206 -1.87854 0 
-5.96274 -1.881 0 
-5.74458 -1.88208 0 
-5.52796 -1.88344 0 
-5.31232 -1.88506 0 
-5.09736 -1.88569 0 
-4.88338 -1.88564 0 
-4.67019 -1.88555 0 
-4.45737 -1.88507 0 
-4.24485 -1.88447 0 
-4.03271 -1.88482 0 
-3.82061 -1.88562 0 
-3.60832 -1.88529 0 
-3.39617 -1.88464 0 
-3.18427 -1.88547 0 
-2.97209 -1.88672 0 
-2.7596 -1.88684 0 
-2.54714 -1.88601 0 
-2.33483 -1.88505 0 
-2.12268 -1.8846 0 
-1.91058 -1.885 0 
-1.69824 -1.88561 0 
-1.48561 -1.88547 0 
-1.27286 -1.88413 0 
-1.06032 -1.88216 0 
-0.848858 -1.8839 0 
-0.636875 -1.88781 0 
-0.424169 -1.89034 0 
-0.211518 -1.89004 0 
0.000731944 -1.88866 0 
0.21257 -1.88788 0 
0.424308 -1.88807 0 
0.636257 -1.88793 0 
0.848362 -1.88664 0 
1.06025 -1.88556 0 
1.27191 -1.88605 0 
1.48381 -1.88664 0 
1.69595 -1.886 0 
1.90782 -1.88577 0 
2.11974 -1.88637 0 
2.33202 -1.88609 0 
2.54419 -1.88502 0 
2.75607 -1.88472 0 
2.96812 -1.88462 0 
3.18055 -1.88217 0 
3.39117 -1.88415 0 
3.60398 -1.8838 0 
3.81618 -1.88366 0 
4.02827 -1.88469 0 
4.24071 -1.88523 0 
4.4544 -1.88509 0 
4.66716 -1.88476 0 
4.88099 -1.88493 0 
5.09545 -1.88466 0 
5.31057 -1.88453 0 
5.52653 -1.88564 0 
5.7436 -1.88981 0 
5.96352 -1.89563 0 
6.18733 -1.89813 0 
6.41543 -1.89522 0 
6.65059 -1.89622 0 
6.87542 -1.86913 0 
7.11122 -1.81621 0 
7.31223 -1.94975 0 
7.53264 -1.87683 0 
7.77077 -1.89068 0 
8.01717 -1.8297 0 
8.25014 -1.93148 0 
8.48528 -1.79628 0 
-8.48528 -1.57009 0 
-8.24868 -1.70836 0 
-8.015 -1.61096 0 
-7.76734 -1.73071 0 
-7.54593 -1.61782 0 
-7.32306 -1.66278 0 
-7.05152 -1.7082 0 
-6.79786 -1.66675 0 
-6.56099 -1.64764 0 
-6.33267 -1.64541 0 
-6.10856 -1.64921 0 
-5.88638 -1.65073 0 
-5.66697 -1.65153 0 
-5.44986 -1.65353 0 
-5.23379 -1.65525 0 
-5.01882 -1.6551 0 
-4.80519 -1.6548 0 
-4.59235 -1.65478 0 
-4.37976 -1.65422 0 
-4.16737 -1.65386 0 
-3.95537 -1.65471 0 
-3.74326 -1.6554 0 
-3.5309 -1.65455 0 
-3.31876 -1.65426 0 
-3.10682 -1.65593 0 
-2.89443 -1.65705 0 
-2.68177 -1.65644 0 
-2.46924 -1.65516 0 
-2.25682 -1.65408 0 
-2.04447 -1.65386 0 
-1.83202 -1.65455 0 
-1.61911 -1.65506 0 
-1.40572 -1.65429 0 
-1.19212 -1.65207 0 
-0.97885 -1.64982 0 
-0.767325 -1.65372 0 
-0.555434 -1.6581 0 
-0.343588 -1.65935 0 
-0.132061 -1.65818 0 
0.0792288 -1.65687 0 
0.290417 -1.65682 0 
0.501823 -1.6575 0 
0.713729 -1.65709 0 
0.925861 -1.65545 0 
1.13768 -1.65488 0 
1.34929 -1.65604 0 
1.56128 -1.6563 0 
1.77337 -1.65516 0 
1.985 -1.65561 0 
2.19698 -1.65642 0 
2.40939 -1.65525 0 
2.62143 -1.65394 0 
2.83323 -1.65414 0 
3.04553 -1.65355 0 
3.25842 -1.64868 0 
3.46746 -1.65522 0 
3.68272 -1.65284 0 
3.89574 -1.65288 0 
4.10731 -1.65378 0 
4.32287 -1.65565 0 
4.53627 -1.65249 0 
4.74932 -1.65397 0 
4.96428 -1.65355 0 
5.17935 -1.65257 0 
5.3944 -1.65202 0 
5.60927 -1.65354 0 
5.82513 -1.66019 0 
6.04295 -1.66711 0 
6.26383 -1.66843 0 
6.48537 -1.66776 0 
6.70098 -1.65646 0 
6.91299 -1.6206 0 
7.11709 -1.6046 0 
7.3526 -1.69716 0 
7.60698 -1.65764 0 
7.8325 -1.64214 0 
8.05985 -1.58842 0 
8.2608 -1.69223 0 
8.48528 -1.56961 0 
-8.48528 -1.35019 0 
-8.24958 -1.48044 0 
-8.0219 -1.3751 0 
-7.79713 -1.50391 0 
-7.58956 -1.39834 0 
-7.36199 -1.38754 0 
-7.16079 -1.49923 0 
-6.93764 -1.46284 0 
[...]
POINT_DATA 2054 
VECTORS vectors float
0.00175126 -0.00155835 0.999997 
-0.000525869 -0.00252117 0.999997 
0.000901502 -0.00807096 0.999967 
-0.000111256 -0.0150007 0.999887 
0.00073923 -0.0139352 0.999903 
0.000222868 -0.00680897 0.999977 
0.000560623 -0.000278616 1 
0.000434571 0.00240158 0.999997 
0.000522796 0.000280884 1 
0.000508594 -0.00484362 0.999988 
0.000493744 -0.00796765 0.999968 
0.000490263 -0.00422484 0.999991 
0.000465696 0.0062795 0.99998 
0.000478499 0.0186583 0.999826 
0.000479355 0.0290119 0.999579 
0.000480989 0.0385259 0.999257 
0.000467336 0.050575 0.99872 
0.000451689 0.0668249 0.997765 
0.000434119 0.0868784 0.996219 
0.000418662 0.109798 0.993954 
0.000394553 0.134893 0.99086 
0.000370045 0.161281 0.986908 
0.000338728 0.187728 0.982221 
0.000301897 0.212775 0.977101 
0.000259203 0.234548 0.972105 
0.0002117 0.250627 0.968084 
0.000166601 0.258288 0.966068 
0.000123184 0.255161 0.966898 
8.35071e-05 0.240395 0.970675 
4.99842e-05 0.215141 0.976583 
2.3166e-05 0.181699 0.983354 
7.94129e-06 0.142624 0.989777 
2.65247e-06 0.100786 0.994908 
6.89348e-06 0.0595581 0.998225 
1.7027e-05 0.0224156 0.999749 
3.55112e-05 -0.00791844 0.999969 
6.09459e-05 -0.0302034 0.999544 
9.12147e-05 -0.0442647 0.99902 
0.00012089 -0.0496761 0.998765 
0.000147253 -0.0454835 0.998965 
0.000171135 -0.031413 0.999506 
0.000197507 -0.00888138 0.999961 
0.000223683 0.0197474 0.999805 
0.000245432 0.0533714 0.998575 
0.000253456 0.0935385 0.995616 
0.000250613 0.143226 0.98969 
0.000238323 0.204572 0.978851 
0.000214971 0.278761 0.96036 
0.000179568 0.367545 0.930006 
0.000125261 0.473061 0.88103 
5.77132e-05 0.595152 0.803613 
-1.45739e-05 0.727602 0.685999 
-7.82905e-05 0.855441 0.517901 
-0.000118078 0.955032 0.296504 
-0.000127654 0.999428 0.033806 
-0.000115809 0.970707 -0.240265 
-0.000118011 0.873129 -0.487489 
-0.00015105 0.732609 -0.680649 
-0.000208601 0.581042 -0.813873 
-0.000273642 0.441572 -0.897226 
-0.000328842 0.324861 -0.945762 
-0.000375328 0.233038 -0.972468 
-0.000414316 0.164353 -0.986402 
-0.000447339 0.115074 -0.993357 
-0.000445341 0.0794974 -0.996835 
-0.000475489 0.0512386 -0.998686 
-0.000437903 0.0274267 -0.999624 
-0.000508258 0.0104421 -0.999945 
-0.000468989 0.00298465 -0.999995 
-0.000531272 0.00321357 -0.999995 
-0.000488466 0.00547486 -0.999985 
-0.000468271 0.00528451 -0.999986 
-0.000519308 0.000854098 -1 
-0.000262097 -0.00650807 -0.999979 
-0.000697475 -0.01385 -0.999904 
5.09888e-05 -0.0146486 -0.999893 
-0.000804767 -0.00780532 -0.999969 
0.000377182 -0.00267787 -0.999996 
-0.00152564 -0.00198104 -0.999997 
-0.00206903 -0.000256132 0.999998 
0.00246351 -0.00453199 0.999987 
0.000771493 -0.00516902 0.999986 
0.00103131 -0.00930207 0.999956 
-0.000407967 -0.0112933 0.999936 
-0.000560681 -0.00959545 0.999954 
-0.000408326 -0.00410555 0.999991 
-0.000168883 0.000523031 1 
0.000181101 0.00148636 0.999999 
0.000470874 -0.000604367 1 
0.000558402 -0.00292879 0.999996 
0.000314343 -0.00177571 0.999998 
-0.000145931 0.00463965 0.999989 
-0.000698415 0.0145295 0.999894 
-0.00131147 0.0252382 0.999681 
-0.00234394 0.0359735 0.99935 
-0.0043133 0.0483161 0.998823 
-0.00781295 0.0640283 0.997917 
-0.0132777 0.0836729 0.996405 
-0.0209837 0.106954 0.994042 
-0.0312886 0.133201 0.990595 
-0.0447464 0.161647 0.985834 
-0.062225 0.191282 0.979561 
-0.0846683 0.220556 0.971693 
-0.112597 0.247211 0.962397 
-0.145791 0.268336 0.952229 
-0.183263 0.280729 0.942128 
-0.223173 0.281577 0.933225 
-0.262826 0.269346 0.926485 
-0.299008 0.24435 0.922435 
-0.32866 0.208589 0.921126 
-0.349536 0.165106 0.922261 
-0.360485 0.11754 0.92533 
-0.361442 0.0698467 0.929775 
-0.352805 0.025898 0.935338 
-0.335524 -0.0111506 0.941966 
-0.311742 -0.0394066 0.949349 
-0.284302 -0.0581038 0.956972 
-0.255765 -0.0670584 0.96441 
-0.227717 -0.0661094 0.97148 
-0.201009 -0.0553891 0.978022 
-0.176242 -0.0358393 0.983694 
-0.154007 -0.00893092 0.988029 
-0.134793 0.0241831 0.990579 
-0.118689 0.0638704 0.990875 
-0.105689 0.111959 0.988076 
-0.0958692 0.170388 0.980702 
-0.0893261 0.241051 0.966393 
-0.0857929 0.325546 0.941626 
-0.0848064 0.425864 0.900804 
-0.0857249 0.542617 0.835595 
-0.0875842 0.672246 0.735129 
-0.089167 0.803971 0.587945 
-0.0890765 0.917822 0.386869 
-0.0857609 0.986815 0.137264 
-0.0781745 0.987487 -0.136963 
-0.0667297 0.914928 -0.398063 
-0.0534522 0.788378 -0.612865 
-0.0408344 0.639171 -0.76798 
-0.0304457 0.494238 -0.868793 
-0.0225743 0.368756 -0.929252 
-0.0167972 0.267716 -0.963351 
-0.0125005 0.190438 -0.98162 
-0.00917231 0.133486 -0.991008 
-0.00657938 0.0919485 -0.995742 
-0.0045663 0.0606099 -0.998151 
-0.00326223 0.0358773 -0.999351 
-0.00246055 0.0176667 -0.999841 
-0.00223141 0.00789262 -0.999966 
-0.00147378 0.00537381 -0.999984 
-0.00149285 0.00564279 -0.999983 
-0.00038124 0.00357893 -0.999994 
5.79369e-05 -0.00189774 -0.999998 
0.000179911 -0.00886088 -0.999961 
0.000454706 -0.0109386 -0.99994 
-0.000605182 -0.00905526 -0.999959 
-0.000285527 -0.00521021 -0.999986 
-0.00208227 -0.00438565 -0.999988 
0.00215974 -5.52087e-05 -0.999998 
0.00146805 -0.00067695 0.999999 
-0.000844355 -0.00477617 0.999988 
-0.000617401 -0.00478893 0.999988 
-0.00330063 -0.00668514 0.999972 
-0.00300805 -0.00901583 0.999955 
-0.0033487 -0.00598785 0.999976 
-0.00327274 -0.00163241 0.999993 
-0.00298402 0.00203591 0.999993 
-0.00274056 0.00255937 0.999993 
-0.00262753 0.00155321 0.999995 
-0.0030036 0.00138553 0.999995 
-0.00392234 0.00487433 0.99998 
-0.00506249 0.0121399 0.999913 
-0.00633748 0.0218532 0.999741 
-0.00801212 0.0329385 0.999425 
-0.0108744 0.0458453 0.998889 
-0.0159737 0.062002 0.997948 
-0.0242776 0.0824839 0.996297 
-0.0365192 0.107803 0.993501 
-0.0533956 0.137733 0.989029 
-0.0759202 0.171688 0.982222 
-0.105671 0.209019 0.972186 
-0.144648 0.248414 0.957793 
-0.194281 0.287108 0.937989 
-0.254605 0.320849 0.912268 
-0.324088 0.344732 0.880981 
-0.39947 0.354175 0.845567 
-0.475696 0.345974 0.808712 
-0.546712 0.319324 0.774041 
-0.606725 0.276168 0.745396 
-0.651479 0.220637 0.725875 
-0.678951 0.158069 0.716966 
-0.689002 0.0939856 0.718639 
-0.682637 0.0334715 0.72999 
-0.660646 -0.019176 0.750453 
-0.624958 -0.0609289 0.778277 
-0.579507 -0.0902354 0.809957 
-0.52912 -0.106883 0.841788 
-0.47754 -0.111198 0.871545 
-0.426897 -0.103923 0.898309 
-0.378459 -0.0860926 0.921606 
-0.33374 -0.0592488 0.940801 
-0.294194 -0.0248871 0.955422 
-0.260604 0.0166093 0.965303 
-0.232902 0.0658004 0.970272 
-0.211132 0.124271 0.969526 
-0.195624 0.193592 0.961381 
-0.186161 0.275446 0.943119 
-0.181894 0.371711 0.910355 
-0.181762 0.483462 0.856287 
-0.184447 0.609174 0.771289 
-0.187724 0.741588 0.644055 
-0.18856 0.865066 0.464872 
-0.18391 0.955023 0.23261 
-0.170775 0.984674 -0.0353848 
-0.149039 0.940594 -0.305075 
-0.121818 0.833499 -0.538925 
-0.0940285 0.692102 -0.715649 
-0.0696867 0.545733 -0.835056 
-0.0504765 0.413602 -0.909058 
-0.0360657 0.304189 -0.951929 
-0.0254247 0.2187 -0.975461 
-0.0174059 0.154613 -0.987822 
-0.0112698 0.107543 -0.994137 
-0.00671647 0.0728864 -0.997318 
-0.00351665 0.046852 -0.998896 
-0.00166803 0.0274643 -0.999621 
-0.000613729 0.014976 -0.999888 
8.48436e-05 0.00909614 -0.999959 
0.000634071 0.00721382 -0.999974 
0.00231921 0.00596991 -0.999979 
0.0013466 0.00288906 -0.999995 
0.00342166 -0.000548368 -0.999994 
0.00265699 -0.00536757 -0.999982 
0.0030765 -0.00811669 -0.999962 
0.00319619 -0.00617893 -0.999976 
0.00119437 -0.00476774 -0.999988 
0.00135003 -0.00469197 -0.999988 
-0.00126451 -0.000750511 -0.999999 
-0.00073101 -0.000452701 1 
-0.000209505 -0.00396748 0.999992 
-0.00168907 -0.00189497 0.999997 
-0.00233304 -0.0041849 0.999989 
-0.00288292 -0.00588226 0.999979 
-0.00281983 -0.00662372 0.999974 
-0.00308895 -0.00404356 0.999987 
-0.00325098 0.00130162 0.999994 
-0.00309383 0.00414632 0.999987 
-0.00308634 0.00475882 0.999984 
-0.00350014 0.00445105 0.999984 
-0.00465273 0.00570896 0.999973 
-0.00646943 0.0104366 0.999925 
-0.00855938 0.0184201 0.999794 
-0.0108389 0.0289188 0.999523 
-0.0140604 0.0418334 0.999026 
-0.019345 0.0583438 0.998109 
-0.0280647 0.0797721 0.996418 
-0.041489 0.107319 0.993359 
-0.060754 0.141631 0.988053 
-0.0872835 0.18251 0.979322 
-0.123125 0.229591 0.965468 
-0.171074 0.282197 0.94398 
-0.233731 0.337788 0.91174 
-0.311749 0.390683 0.866129 
-0.403218 0.433244 0.806049 
-0.503606 0.457831 0.732647 
-0.605717 0.45837 0.650388 
-0.701148 0.432269 0.567041 
-0.78257 0.381429 0.492032 
-0.845332 0.311614 0.433947 
-0.888016 0.230542 0.397841 
-0.911381 0.145791 0.384876 
-0.917035 0.0637273 0.393683 
-0.906549 -0.0106104 0.421968 
-0.879948 -0.073102 0.469412 
-0.838533 -0.121062 0.531232 
-0.785662 -0.153092 0.599415 
-0.725933 -0.169096 0.666654 
-0.662947 -0.169796 0.729158 
-0.59896 -0.156247 0.785388 
-0.536443 -0.130397 0.833802 
-0.478373 -0.0942842 0.873081 
-0.42731 -0.0496957 0.902739 
-0.384261 0.00287401 0.92322 
-0.349187 0.0639603 0.934868 
-0.322509 0.13444 0.93697 
-0.304702 0.215798 0.927679 
-0.294883 0.309675 0.903961 
-0.291469 0.417359 0.860731 
-0.293034 0.538696 0.789897 
-0.297017 0.669198 0.681143 
-0.299006 0.797381 0.524194 
-0.293868 0.902853 0.313844 
-0.277521 0.958939 0.0584683 
-0.247193 0.945639 -0.211336 
-0.206723 0.863757 -0.459553 
-0.1629 0.736372 -0.656674 
-0.122389 0.593718 -0.795311 
-0.0890111 0.458296 -0.884331 
-0.0634588 0.341934 -0.937579 
-0.0444975 0.248525 -0.967603 
-0.0305105 0.177215 -0.983699 
-0.020057 0.124399 -0.992029 
-0.0123178 0.0857354 -0.996242 
-0.00685755 0.0574382 -0.998326 
-0.00330713 0.0365324 -0.999327 
-0.00134838 0.0219071 -0.999759 
-0.000441805 0.0134065 -0.99991 
0.000537069 0.00977432 -0.999952 
0.000949937 0.00812819 -0.999967 
0.00175756 0.00465422 -0.999988 
0.00152092 -0.000688324 -0.999999 
0.00295296 -0.00525141 -0.999982 
0.00247961 -0.00586519 -0.99998 
0.00266362 -0.00376014 -0.999989 
0.00207108 -0.00203171 -0.999996 
0.000801431 -0.0038113 -0.999992 
0.000978932 -0.000441429 -0.999999 
0.000269058 -0.000749629 1 
0.00030963 -0.00232975 0.999997 
0.00197806 -0.000483094 0.999998 
-0.000177744 -0.00239267 0.999997 
0.000393729 -0.00577198 0.999983 
-0.000478194 -0.00535174 0.999986 
-0.00132393 -0.000981853 0.999999 
-0.00147431 0.00394755 0.999991 
-0.00177662 0.0064336 0.999978 
-0.00214511 0.00684833 0.999974 
-0.00302064 0.00684139 0.999972 
-0.00502884 0.00921643 0.999945 
-0.00770754 0.0151645 0.999855 
-0.0105805 0.0244205 0.999646 
-0.0140077 0.0366973 0.999228 
-0.0189483 0.0529557 0.998417 
-0.0267426 0.0747427 0.996844 
-0.0389772 0.103705 0.993844 
-0.0572573 0.141474 0.988285 
-0.0833715 0.188721 0.978485 
-0.119675 0.245373 0.962014 
-0.16932 0.311221 0.935132 
-0.235709 0.38474 0.892422 
-0.320493 0.460089 0.828011 
-0.421525 0.526353 0.738423 
-0.532896 0.571461 0.624063 
-0.64527 0.585396 0.490854 
-0.748043 0.563021 0.35134 
-0.83336 0.506445 0.221414 
-0.898304 0.423986 0.115263 
-0.944279 0.326486 0.0417533 
-0.974633 0.223793 0.00275611 
-0.992381 0.123139 -0.00415858 
-0.999416 0.029366 0.0175005 
-0.996422 -0.0540657 0.0649644 
-0.982334 -0.123946 0.140204 
-0.955407 -0.178023 0.235595 
-0.91587 -0.214349 0.339464 
-0.866057 -0.231927 0.442894 
-0.808205 -0.230817 0.541783 
-0.744965 -0.212222 0.632447 
-0.680004 -0.178379 0.711179 
-0.61797 -0.132324 0.774986 
-0.562727 -0.0761804 0.823125 
-0.515678 -0.0109909 0.856712 
-0.477307 0.0630794 0.87647 
-0.448932 0.146587 0.881461 
-0.431044 0.240646 0.86965 
-0.421717 0.346466 0.837924 
-0.418932 0.464326 0.780319 
-0.420595 0.591774 0.68768 
-0.421861 0.720464 0.550422 
-0.415533 0.834209 0.36253 
-0.395375 0.909701 0.126978 
-0.358544 0.923462 -0.136616 
-0.305432 0.870018 -0.387014 
-0.245535 0.762077 -0.599125 
-0.187868 0.628942 -0.754412 
-0.138458 0.495667 -0.857405 
-0.0995461 0.376428 -0.921082 
-0.0702178 0.276923 -0.958323 
-0.0487557 0.199303 -0.978724 
-0.0329613 0.140891 -0.989476 
-0.0213876 0.0980583 -0.994951 
-0.0132302 0.0669608 -0.997668 
-0.00771979 0.0444413 -0.998982 
-0.00443681 0.0281288 -0.999594 
-0.00277287 0.0174571 -0.999844 
-0.00183752 0.0121712 -0.999924 
-0.00105762 0.0101378 -0.999948 
-0.000166333 0.00820606 -0.999966 
1.90757e-06 0.00453092 -0.99999 
-0.000140724 -0.00132246 -0.999999 
0.000352552 -0.00563904 -0.999984 
-0.00051962 -0.00499124 -0.999987 
-0.000660255 -0.00229282 -0.999997 
-0.00148404 -0.000189453 -0.999999 
7.76589e-05 -0.00268011 -0.999996 
-0.000267132 -0.000718222 -1 
-0.000172665 -0.000716833 1 
0.00161172 -0.00130317 0.999998 
0.00196522 0.000982723 0.999998 
0.00204656 -0.00172625 0.999996 
8.45048e-05 -0.00505366 0.999987 
-0.00107062 -0.00515969 0.999986 
-0.00225148 0.000372707 0.999997 
-0.00391802 0.00638233 0.999972 
-0.00481666 0.00879594 0.99995 
-0.00519851 0.00856594 0.99995 
-0.00641899 0.00896828 0.999939 
-0.00872248 0.0126412 0.999882 
-0.011587 0.0201964 0.999729 
-0.0148585 0.0313517 0.999398 
-0.019161 0.0465966 0.99873 
-0.0255212 0.0677371 0.997377 
-0.0354177 0.0967039 0.994683 
-0.0506339 0.13579 0.989443 
-0.0730916 0.186837 0.979668 
-0.105332 0.250496 0.962371 
-0.150541 0.326818 0.933021 
-0.21225 0.415133 0.884655 
-0.292959 0.511079 0.808068 
-0.391169 0.602336 0.69583 
-0.500005 0.671029 0.547462 
-0.608506 0.701859 0.370289 
-0.704219 0.686464 0.181227 
-0.778966 0.627059 0.00308186 
-0.832065 0.535296 -0.145347 
-0.868423 0.42598 -0.253738 
-0.894559 0.311555 -0.320463 
-0.915224 0.199867 -0.349883 
-0.932873 0.0950902 -0.347427 
-0.94845 -0.000642242 -0.316926 
-0.961931 -0.0858823 -0.259447 
-0.972639 -0.158662 -0.169706 
-0.974454 -0.216992 -0.0579049 
-0.964003 -0.25772 0.0654073 
-0.940667 -0.278516 0.193841 
-0.904871 -0.278176 0.322222 
-0.858278 -0.25719 0.444086 
-0.804751 -0.21784 0.552197 
-0.750058 -0.163329 0.640887 
-0.699036 -0.096553 0.708538 
-0.653878 -0.0191764 0.756357 
-0.616275 0.0677306 0.784613 
-0.588892 0.164036 0.79139 
-0.571874 0.270356 0.774511 
-0.561907 0.386594 0.731304 
-0.556927 0.511279 0.654542 
-0.553408 0.638421 0.534937 
-0.543091 0.754972 0.367519 
-0.517386 0.841664 0.15464 
-0.472001 0.876893 -0.0909621 
-0.408523 0.846625 -0.341078 
-0.333198 0.765418 -0.550559 
-0.258122 0.645226 -0.719066 
-0.19233 0.518949 -0.832888 
-0.139444 0.402578 -0.904702 
-0.0981964 0.300891 -0.948589 
-0.0680549 0.218746 -0.973406 
-0.0459818 0.155983 -0.986689 
-0.0298362 0.109124 -0.99358 
-0.018281 0.0751754 -0.997003 
-0.0104546 0.0508396 -0.998652 
-0.00553618 0.0334152 -0.999426 
-0.00274994 0.0211083 -0.999773 
-0.00146671 0.0138906 -0.999902 
-0.000480408 0.011148 -0.999938 
0.000620785 0.0104179 -0.999946 
0.00132057 0.00879802 -0.99996 
0.00202697 0.0047241 -0.999987 
0.00169037 -0.000881262 -0.999998 
-0.000615093 -0.00536914 -0.999985 
-0.00185938 -0.00408267 -0.99999 
-0.00236695 -9.16814e-05 -0.999997 
-0.00225278 0.000452534 -0.999997 
-0.00149139 -0.00137066 -0.999998 
0.00021558 -0.000758883 -1 
-1.76506e-05 -0.000772457 1 
0.000782982 -0.000443132 1 
-0.000991327 0.00179641 0.999998 
0.000226765 -0.000667517 1 
-0.00374739 -0.00363709 0.999986 
-0.00664296 -0.00363329 0.999971 
-0.0059217 -0.000848764 0.999982 
-0.00886714 0.0058574 0.999944 
-0.0112744 0.0103216 0.999883 
-0.0121553 0.0111006 0.999865 
-0.0124357 0.0103831 0.999869 
-0.0133329 0.0115257 0.999845 
-0.0152417 0.0168198 0.999742 
-0.0176741 0.0263447 0.999497 
-0.0209321 0.0399628 0.998982 
-0.0256983 0.0593141 0.997909 
-0.0330299 0.0867268 0.995684 
-0.0443872 0.124784 0.991191 
-0.0615263 0.176289 0.982414 
-0.0868874 0.243107 0.9661 
-0.123499 0.32592 0.937296 
-0.174668 0.424447 0.888446 
-0.243131 0.535993 0.808455 
-0.328539 0.650029 0.685219 
-0.424822 0.744866 0.514491 
-0.520683 0.797201 0.305548 
-0.602846 0.793977 0.0786012 
-0.662442 0.736348 -0.137705 
-0.699967 0.639033 -0.318879 
-0.722383 0.521419 -0.454186 
-0.738293 0.399229 -0.543635 
-0.754061 0.281668 -0.593343 
-0.772407 0.172559 -0.611238 
-0.794384 0.0729336 -0.603022 
-0.820407 -0.0172144 -0.571521 
-0.851236 -0.0979496 -0.515561 
-0.887222 -0.168912 -0.429308 
-0.918512 -0.22803 -0.323014 
-0.941184 -0.271815 -0.200722 
-0.952673 -0.296818 -0.0656756 
-0.950748 -0.300323 0.0767103 
-0.934557 -0.281164 0.218059 
-0.906183 -0.240562 0.347798 
-0.87088 -0.181357 0.456813 
-0.833668 -0.106708 0.541859 
-0.797295 -0.0194131 0.603278 
-0.765152 0.0784875 0.639048 
-0.741037 0.185921 0.645211 
-0.72399 0.30199 0.620194 
-0.70953 0.424494 0.562469 
-0.695863 0.549042 0.462955 
-0.676795 0.665141 0.315493 
-0.641853 0.756384 0.12613 
-0.585369 0.805358 -0.0935028 
-0.508429 0.797588 -0.324583 
-0.418388 0.7315 -0.538385 
-0.329326 0.642971 -0.691472 
-0.244427 0.520751 -0.817969 
-0.179159 0.412906 -0.892978 
-0.125535 0.314548 -0.940904 
-0.0864222 0.231938 -0.968884 
-0.0575765 0.166466 -0.984365 
-0.036873 0.117636 -0.992372 
-0.0216328 0.0809913 -0.99648 
-0.0109863 0.0550747 -0.998422 
-0.00385909 0.0369261 -0.999311 
0.000674433 0.0239545 -0.999713 
0.00328992 0.0154728 -0.999875 
0.0049219 0.0113668 -0.999923 
0.0063483 0.0109204 -0.99992 
0.00777178 0.0111336 -0.999908 
0.00865263 0.00938809 -0.999918 
0.00871145 0.00398196 -0.999954 
0.00437541 -0.00359666 -0.999984 
0.00256169 -0.0044922 -0.999987 
0.00134992 -0.00157952 -0.999998 
0.000399138 0.00274734 -0.999996 
-0.000527389 -0.000557275 -1 
-0.00013632 -0.000746745 -1 
9.54945e-05 -0.000775944 1 
-0.00169316 0.000157229 0.999999 
-0.00511155 0.00292201 0.999983 
-0.00479718 0.000818782 0.999988 
-0.00872661 -0.00240978 0.999959 
-0.0121482 0.0001912 0.999926 
-0.0123847 0.00365054 0.999917 
-0.0160738 0.010752 0.999813 
-0.0183036 0.0138088 0.999737 
-0.0190615 0.0133115 0.99973 
-0.0191063 0.0123282 0.999741 
-0.0195672 0.0146002 0.999702 
-0.0206836 0.021792 0.999549 
-0.0224311 0.0332119 0.999197 
-0.025442 0.0497201 0.998439 
-0.0304158 0.0738553 0.996805 
-0.038231 0.108441 0.993368 
-0.050034 0.156531 0.986405 
-0.0677624 0.221436 0.972818 
-0.0939327 0.304851 0.947756 
-0.131537 0.407267 0.903787 
-0.18326 0.527109 0.829803 
-0.249752 0.657226 0.71111 
-0.326971 0.777698 0.536913 
-0.405778 0.85876 0.312852 
-0.474032 0.878321 0.0620147 
-0.521701 0.833095 -0.183793 
-0.548 0.738059 -0.393656 
-0.560215 0.616851 -0.55286 
-0.566946 0.489377 -0.662633 
-0.575191 0.367599 -0.730771 
-0.588507 0.256381 -0.766765 
-0.607597 0.156406 -0.778693 
-0.632979 0.0669889 -0.771265 
-0.665603 -0.0132427 -0.746188 
-0.708047 -0.0860182 -0.700906 
-0.760639 -0.152206 -0.63108 
-0.812997 -0.20958 -0.543242 
-0.862975 -0.254684 -0.43636 
-0.906825 -0.283437 -0.31198 
-0.940503 -0.2918 -0.174089 
-0.960313 -0.277193 -0.0310178 
-0.96528 -0.23913 0.105129 
-0.958237 -0.179491 0.222631 
-0.942908 -0.101576 0.317186 
-0.921961 -0.00880392 0.387183 
-0.899598 0.0958894 0.426062 
-0.879392 0.20988 0.42734 
-0.858879 0.329626 0.392012 
-0.833562 0.450099 0.320291 
-0.801309 0.563679 0.200423 
-0.754151 0.655722 0.0358488 
-0.685365 0.712138 -0.152099 
-0.595745 0.722373 -0.351093 
-0.490916 0.67965 -0.545048 
-0.383026 0.592092 -0.709027 
-0.294457 0.517382 -0.803499 
-0.212601 0.401552 -0.890818 
-0.148475 0.314011 -0.937738 
-0.101861 0.23496 -0.966653 
-0.0672243 0.170694 -0.983028 
-0.0422168 0.120355 -0.991833 
-0.0248016 0.0843752 -0.996125 
-0.0113774 0.0561061 -0.99836 
-0.00258084 0.0376744 -0.999287 
0.00369717 0.0248983 -0.999683 
0.00796421 0.0162764 -0.999836 
0.0108456 0.0112543 -0.999878 
0.0125475 0.0105747 -0.999865 
0.0143835 0.0116769 -0.999828 
0.0151513 0.0126699 -0.999805 
0.0150878 0.0107124 -0.999829 
0.0137884 0.0052351 -0.999891 
0.00914203 -0.00212461 -0.999956 
0.00700924 -0.00261008 -0.999972 
0.00545364 0.00111798 -0.999985 
0.00244844 0.000647344 -0.999997 
0.00167492 0.000397077 -0.999999 
6.56052e-05 -0.00078147 -1 
-0.000394909 -0.000784256 1 
-0.00394609 0.000673492 0.999992 
-0.00749332 0.00368865 0.999965 
-0.00830213 0.00200926 0.999964 
-0.0104485 -0.000313771 0.999945 
-0.012613 0.00300359 0.999916 
-0.016105 0.00914264 0.999829 
-0.0193023 0.0152964 0.999697 
-0.0213637 0.016532 0.999635 