# vtk DataFile Version 3.0 
Exported using Morpho https://github.com/Morpho-lang/morpho 
ASCII 
DATASET UNSTRUCTURED_GRID 

POINTS 2054 float 
-8.48528 -2.82843 0 
-8.20636 -2.82843 0 
-7.94054 -2.82843 0 
-7.6904 -2.82843 0 
-7.45357 -2.82843 0 
-7.22694 -2.82843 0 
-7.00705 -2.82843 0 
-6.79111 -2.82843 0 
-6.57731 -2.82843 0 
-6.36453 -2.82843 0 
-6.15219 -2.82843 0 
-5.94 -2.82843 0 
-5.72786 -2.82843 0 
-5.51573 -2.82843 0 
-5.3036 -2.82843 0 
-5.09147 -2.82843 0 
-4.87933 -2.82843 0 
-4.6672 -2.82843 0 
-4.45507 -2.82843 0 
-4.24294 -2.82843 0 
-4.03081 -2.82843 0 
-3.81867 -2.82843 0 
-3.60654 -2.82843 0 
-3.39441 -2.82843 0 
-3.18228 -2.82843 0 
-2.97015 -2.82843 0 
-2.75801 -2.82843 0 
-2.54588 -2.82843 0 
-2.33375 -2.82843 0 
-2.12162 -2.82843 0 
-1.90949 -2.82843 0 
-1.69735 -2.82843 0 
-1.48522 -2.82843 0 
-1.27309 -2.82843 0 
-1.06096 -2.82843 0 
-0.848825 -2.82843 0 
-0.636693 -2.82843 0 
-0.424561 -2.82843 0 
-0.212429 -2.82843 0 
-0.000296761 -2.82843 0 
0.211835 -2.82843 0 
0.423967 -2.82843 0 
0.636099 -2.82843 0 
0.848231 -2.82843 0 
1.06036 -2.82843 0 
1.2725 -2.82843 0 
1.48463 -2.82843 0 
1.69676 -2.82843 0 
1.90889 -2.82843 0 
2.12102 -2.82843 0 
2.33316 -2.82843 0 
2.54529 -2.82843 0 
2.75742 -2.82843 0 
2.96955 -2.82843 0 
3.18168 -2.82843 0 
3.39382 -2.82843 0 
3.60595 -2.82843 0 
3.81808 -2.82843 0 
4.03021 -2.82843 0 
4.24234 -2.82843 0 
4.45448 -2.82843 0 
4.66661 -2.82843 0 
4.87874 -2.82843 0 
5.09087 -2.82843 0 
5.303 -2.82843 0 
5.51514 -2.82843 0 
5.72727 -2.82843 0 
5.93941 -2.82843 0 
6.15159 -2.82843 0 
6.36393 -2.82843 0 
6.57672 -2.82843 0 
6.79055 -2.82843 0 
7.00652 -2.82843 0 
7.22647 -2.82843 0 
7.45313 -2.82843 0 
7.69005 -2.82843 0 
7.9403 -2.82843 0 
8.20621 -2.82843 0 
8.48528 -2.82843 0 
-8.48528 -2.5495 0 
-8.30526 -2.64845 0 
-8.07062 -2.59995 0 
-7.83904 -2.59637 0 
-7.59595 -2.59733 0 
-7.36578 -2.59177 0 
-7.13796 -2.5933 0 
-6.90908 -2.59428 0 
-6.68421 -2.5916 0 
-6.46568 -2.58832 0 
-6.24926 -2.58859 0 
-6.03358 -2.58941 0 
-5.81848 -2.59013 0 
-5.60402 -2.59075 0 
-5.39005 -2.59135 0 
-5.17642 -2.59186 0 
-4.96311 -2.59223 0 
-4.75009 -2.59242 0 
-4.53736 -2.59244 0 
-4.32497 -2.59236 0 
-4.1128 -2.59242 0 
-3.90059 -2.59259 0 
-3.68835 -2.5926 0 
-3.47627 -2.59248 0 
-3.26428 -2.59251 0 
-3.05216 -2.59271 0 
-2.83986 -2.59283 0 
-2.62755 -2.59274 0 
-2.41539 -2.59253 0 
-2.20336 -2.59238 0 
-1.99135 -2.59238 0 
-1.77924 -2.59246 0 
-1.56704 -2.59244 0 
-1.35495 -2.59215 0 
-1.14319 -2.59183 0 
-0.931581 -2.59195 0 
-0.719663 -2.59256 0 
-0.507197 -2.59324 0 
-0.294425 -2.59354 0 
-0.0817689 -2.59344 0 
0.130587 -2.59325 0 
0.342804 -2.59322 0 
0.555051 -2.59322 0 
0.767233 -2.59303 0 
0.97919 -2.59278 0 
1.19107 -2.59278 0 
1.40311 -2.59289 0 
1.61524 -2.59286 0 
1.82732 -2.59279 0 
2.03943 -2.59281 0 
2.25163 -2.5928 0 
2.46381 -2.59266 0 
2.67591 -2.59254 0 
2.88801 -2.59237 0 
3.10001 -2.59226 0 
3.31203 -2.59216 0 
3.52402 -2.59207 0 
3.73601 -2.59208 0 
3.94815 -2.59221 0 
4.16052 -2.5923 0 
4.37309 -2.59232 0 
4.58593 -2.59227 0 
4.79921 -2.5922 0 
5.01319 -2.59212 0 
5.22833 -2.5921 0 
5.44534 -2.59239 0 
5.6657 -2.59346 0 
5.89185 -2.59569 0 
6.12685 -2.59429 0 
6.36853 -2.59189 0 
6.6108 -2.57787 0 
6.84491 -2.61411 0 
7.08804 -2.58476 0 
7.34858 -2.60369 0 
7.58803 -2.59327 0 
7.83059 -2.59326 0 
8.06387 -2.59199 0 
8.30038 -2.64348 0 
8.48528 -2.54936 0 
-8.48528 -2.28369 0 
-8.25701 -2.4138 0 
-8.01078 -2.35334 0 
-7.73666 -2.37963 0 
-7.49744 -2.35565 0 
-7.26898 -2.35831 0 
-7.03324 -2.36676 0 
-6.7997 -2.36275 0 
-6.5773 -2.35166 0 
-6.35808 -2.3495 0 
-6.14038 -2.35058 0 
-5.92336 -2.35185 0 
-5.70723 -2.35272 0 
-5.49199 -2.35362 0 
-5.27734 -2.35447 0 
-5.0632 -2.35505 0 
-4.84958 -2.35534 0 
-4.63641 -2.35533 0 
-4.42363 -2.35504 0 
-4.21126 -2.35485 0 
-3.99909 -2.35513 0 
-3.78684 -2.3554 0 
-3.57461 -2.35516 0 
-3.36263 -2.35498 0 
-3.15066 -2.35537 0 
-2.93843 -2.35586 0 
-2.72604 -2.35589 0 
-2.51374 -2.35551 0 
-2.30162 -2.35509 0 
-2.08964 -2.35496 0 
-1.87761 -2.35518 0 
-1.66544 -2.3554 0 
-1.45322 -2.35518 0 
-1.2412 -2.35438 0 
-1.02967 -2.35407 0 
-0.818162 -2.35505 0 
-0.606054 -2.35676 0 
-0.393243 -2.3579 0 
-0.180256 -2.35789 0 
0.0323765 -2.35727 0 
0.244686 -2.35692 0 
0.456926 -2.35692 0 
0.669206 -2.35667 0 
0.881318 -2.35598 0 
1.09315 -2.35559 0 
1.305 -2.35583 0 
1.51709 -2.35595 0 
1.72919 -2.35571 0 
1.9412 -2.35566 0 
2.15334 -2.3558 0 
2.36559 -2.3556 0 
2.57772 -2.35522 0 
2.78976 -2.35507 0 
3.0019 -2.35461 0 
3.21373 -2.35451 0 
3.42571 -2.35439 0 
3.63769 -2.35431 0 
3.84965 -2.35453 0 
4.06183 -2.35491 0 
4.27435 -2.35507 0 
4.48707 -2.35507 0 
4.70017 -2.35506 0 
4.91376 -2.35498 0 
5.12819 -2.35502 0 
5.34378 -2.35528 0 
5.56106 -2.35662 0 
5.78097 -2.35971 0 
6.00401 -2.36251 0 
6.2308 -2.3624 0 
6.45748 -2.35551 0 
6.68075 -2.33423 0 
6.88797 -2.39744 0 
7.05313 -2.27289 0 
7.24377 -2.40237 0 
7.48542 -2.36016 0 
7.73055 -2.36599 0 
7.99177 -2.33552 0 
8.24864 -2.40698 0 
8.48528 -2.28345 0 
-8.48528 -2.03355 0 
-8.25312 -2.18214 0 
-8.03669 -2.07913 0 
-7.83956 -2.18231 0 
-7.6106 -2.12852 0 
-7.38852 -2.10959 0 
-7.16268 -2.14097 0 
-6.9229 -2.1435 0 
-6.70119 -2.12055 0 
-6.48111 -2.11285 0 
-6.26282 -2.11284 0 
-6.045 -2.1151 0 
-5.82775 -2.11658 0 
-5.61153 -2.11776 0 
-5.3962 -2.1192 0 
-5.18144 -2.1203 0 
-4.96732 -2.12084 0 
-4.75387 -2.12105 0 
-4.54086 -2.12091 0 
-4.32822 -2.12045 0 
-4.11596 -2.12045 0 
-3.90382 -2.12107 0 
-3.69156 -2.12116 0 
-3.47938 -2.12058 0 
-3.26746 -2.12068 0 
-3.05542 -2.12154 0 
-2.84307 -2.12198 0 
-2.63064 -2.12162 0 
-2.41836 -2.12087 0 
-2.20626 -2.12031 0 
-1.99426 -2.12034 0 
-1.78217 -2.1207 0 
-1.56989 -2.12074 0 
-1.35755 -2.11993 0 
-1.14542 -2.11838 0 
-0.934012 -2.11859 0 
-0.722404 -2.12089 0 
-0.509943 -2.12344 0 
-0.296911 -2.12431 0 
-0.0840921 -2.12359 0 
0.128295 -2.12281 0 
0.340414 -2.12274 0 
0.552564 -2.12288 0 
0.76478 -2.12226 0 
0.976792 -2.1213 0 
1.18855 -2.12128 0 
1.40042 -2.12188 0 
1.61256 -2.12177 0 
1.82458 -2.12141 0 
2.03655 -2.12164 0 
2.24875 -2.12174 0 
2.46099 -2.12114 0 
2.67302 -2.12065 0 
2.88504 -2.12054 0 
3.09728 -2.1194 0 
3.30873 -2.11968 0 
3.52086 -2.1195 0 
3.7329 -2.11938 0 
3.94484 -2.11986 0 
4.15715 -2.12044 0 
4.36983 -2.12035 0 
4.58282 -2.1204 0 
4.79606 -2.12017 0 
5.01004 -2.12012 0 
5.22483 -2.12002 0 
5.44073 -2.12051 0 
5.6582 -2.123 0 
5.8782 -2.12696 0 
6.10217 -2.12971 0 
6.33095 -2.12707 0 
6.567 -2.11601 0 
6.82301 -2.12303 0 
7.06572 -2.04567 0 
7.29733 -2.17484 0 
7.54632 -2.11408 0 
7.79371 -2.13741 0 
8.02274 -2.07453 0 
8.25027 -2.1738 0 
8.48528 -2.0332 0 
-8.48528 -1.79671 0 
-8.25436 -1.93882 0 
-8.01299 -1.83977 0 
-7.78596 -1.953 0 
-7.5297 -1.87194 0 
-7.2756 -1.88722 0 
-7.05707 -1.93544 0 
-6.84369 -1.89677 0 
-6.62219 -1.88079 0 
-6.40169 -1.87606 0 
-6.18206 -1.87854 0 
-5.96274 -1.881 0 
-5.74458 -1.88208 0 
-5.52796 -1.88344 0 
-5.31232 -1.88506 0 
-5.09736 -1.88569 0 
-4.88338 -1.88564 0 
-4.67019 -1.88555 0 
-4.45737 -1.88507 0 
-4.24485 -1.88447 0 
-4.03271 -1.88482 0 
-3.82061 -1.88562 0 
-3.60832 -1.88529 0 
-3.39617 -1.88464 0 
-3.18427 -1.88547 0 
-2.97209 -1.88672 0 
-2.7596 -1.88684 0 
-2.54714 -1.88601 0 
-2.33483 -1.88505 0 
-2.12268 -1.8846 0 
-1.91058 -1.885 0 
-1.69824 -1.88561 0 
-1.48561 -1.88547 0 
-1.27286 -1.88413 0 
-1.06032 -1.88216 0 
-0.848858 -1.8839 0 
-0.636875 -1.88781 0 
-0.424169 -1.89034 0 
-0.211518 -1.89004 0 
0.000731944 -1.88866 0 
0.21257 -1.88788 0 
0.424308 -1.88807 0 
0.636257 -1.88793 0 
0.848362 -1.88664 0 
1.06025 -1.88556 0 
1.27191 -1.88605 0 
1.48381 -1.88664 0 
1.69595 -1.886 0 
1.90782 -1.88577 0 
2.11974 -1.88637 0 
2.33202 -1.88609 0 
2.54419 -1.88502 0 
2.75607 -1.88472 0 
2.96812 -1.88462 0 
3.18055 -1.88217 0 
3.39117 -1.88415 0 
3.60398 -1.8838 0 
3.81618 -1.88366 0 
4.02827 -1.88469 0 
4.24071 -1.88523 0 
4.4544 -1.88509 0 
4.66716 -1.88476 0 
4.88099 -1.88493 0 
5.09545 -1.88466 0 
5.31057 -1.88453 0 
5.52653 -1.88564 0 
5.7436 -1.88981 0 
5.96352 -1.89563 0 
6.18733 -1.89813 0 
6.41543 -1.89522 0 
6.65059 -1.89622 0 
6.87542 -1.86913 0 
7.11122 -1.81621 0 
7.31223 -1.94975 0 
7.53264 -1.87683 0 
7.77077 -1.89068 0 
8.01717 -1.8297 0 
8.25014 -1.93148 0 
8.48528 -1.79628 0 
-8.48528 -1.57009 0 
-8.24868 -1.70836 0 
-8.015 -1.61096 0 
-7.76734 -1.73071 0 
-7.54593 -1.61782 0 
-7.32306 -1.66278 0 
-7.05152 -1.7082 0 
-6.79786 -1.66675 0 
-6.56099 -1.64764 0 
-6.33267 -1.64541 0 
-6.10856 -1.64921 0 
-5.88638 -1.65073 0 
-5.66697 -1.65153 0 
-5.44986 -1.65353 0 
-5.23379 -1.65525 0 
-5.01882 -1.6551 0 
-4.80519 -1.6548 0 
-4.59235 -1.65478 0 
-4.37976 -1.65422 0 
-4.16737 -1.65386 0 
-3.95537 -1.65471 0 
-3.74326 -1.6554 0 
-3.5309 -1.65455 0 
-3.31876 -1.65426 0 
-3.10682 -1.65593 0 
-2.89443 -1.65705 0 
-2.68177 -1.65644 0 
-2.46924 -1.65516 0 
-2.25682 -1.65408 0 
-2.04447 -1.65386 0 
-1.83202 -1.65455 0 
-1.61911 -1.65506 0 
-1.40572 -1.65429 0 
-1.19212 -1.65207 0 
-0.97885 -1.64982 0 
-0.767325 -1.65372 0 
-0.555434 -1.6581 0 
-0.343588 -1.65935 0 
-0.132061 -1.65818 0 
0.0792288 -1.65687 0 
0.290417 -1.65682 0 
0.501823 -1.6575 0 
0.713729 -1.65709 0 
0.925861 -1.65545 0 
1.13768 -1.65488 0 
1.34929 -1.65604 0 
1.56128 -1.6563 0 
1.77337 -1.65516 0 
1.985 -1.65561 0 
2.19698 -1.65642 0 
2.40939 -1.65525 0 
2.62143 -1.65394 0 
2.83323 -1.65414 0 
3.04553 -1.65355 0 
3.25842 -1.64868 0 
3.46746 -1.65522 0 
3.68272 -1.65284 0 
3.89574 -1.65288 0 
4.10731 -1.65378 0 
4.32287 -1.65565 0 
4.53627 -1.65249 0 
4.74932 -1.65397 0 
4.96428 -1.65355 0 
5.17935 -1.65257 0 
5.3944 -1.65202 0 
5.60927 -1.65354 0 
5.82513 -1.66019 0 
6.04295 -1.66711 0 
6.26383 -1.66843 0 
6.48537 -1.66776 0 
6.70098 -1.65646 0 
6.91299 -1.6206 0 
7.11709 -1.6046 0 
7.3526 -1.69716 0 
7.60698 -1.65764 0 
7.8325 -1.64214 0 
8.05985 -1.58842 0 
8.2608 -1.69223 0 
8.48528 -1.56961 0 
-8.48528 -1.35019 0 
-8.24958 -1.48044 0 
-8.0219 -1.3751 0 
-7.79713 -1.50391 0 
-7.58956 -1.39834 0 
-7.36199 -1.38754 0 
-7.16079 -1.49923 0 
-6.93764 -1.46284 0 
[...]
POINT_DATA 2054 
VECTORS vectors float
0.00112422 -0.000961001 0.999999 
-0.00054534 -0.00252193 0.999997 
0.000567956 -0.00807089 0.999967 
-0.00020759 -0.0149995 0.999887 
0.00042553 -0.0139341 0.999903 
1.94146e-05 -0.0068089 0.999977 
0.000283799 -0.000279015 1 
0.000170739 0.00240105 0.999997 
0.00023836 0.000280703 1 
0.000223423 -0.00484303 0.999988 
0.00021665 -0.00796638 0.999968 
0.00021799 -0.00422363 0.999991 
0.000202384 0.00627995 0.99998 
0.00021213 0.0186582 0.999826 
0.00021115 0.0290118 0.999579 
0.000213112 0.0385262 0.999258 
0.000206002 0.0505757 0.99872 
0.000199283 0.0668256 0.997765 
0.000191241 0.086879 0.996219 
0.000185294 0.109799 0.993954 
0.000173938 0.134894 0.99086 
0.000163658 0.161282 0.986908 
0.000149712 0.187729 0.982221 
0.0001335 0.212776 0.977101 
0.000114634 0.234549 0.972104 
9.31552e-05 0.250628 0.968084 
7.33694e-05 0.258288 0.966068 
5.40833e-05 0.255161 0.966899 
3.64221e-05 0.240394 0.970675 
2.16329e-05 0.21514 0.976583 
9.4462e-06 0.181698 0.983354 
2.90118e-06 0.142623 0.989777 
5.81936e-07 0.100784 0.994908 
2.74099e-06 0.0595568 0.998225 
7.00199e-06 0.0224143 0.999749 
1.52415e-05 -0.00791978 0.999969 
2.65484e-05 -0.0302048 0.999544 
4.02559e-05 -0.0442661 0.99902 
5.35188e-05 -0.0496773 0.998765 
6.51055e-05 -0.0454846 0.998965 
7.52591e-05 -0.0314144 0.999506 
8.70697e-05 -0.00888321 0.999961 
9.88297e-05 0.0197453 0.999805 
0.000109084 0.0533694 0.998575 
0.000112346 0.0935368 0.995616 
0.000110976 0.143225 0.98969 
0.000105699 0.204571 0.978852 
9.54643e-05 0.27876 0.960361 
8.04059e-05 0.367544 0.930006 
5.60601e-05 0.473059 0.881031 
2.57878e-05 0.59515 0.803614 
-6.89154e-06 0.727601 0.686001 
-3.60016e-05 0.855439 0.517903 
-5.40107e-05 0.955031 0.296507 
-5.77854e-05 0.999428 0.0338089 
-5.00888e-05 0.970708 -0.240263 
-4.99994e-05 0.873131 -0.487486 
-6.50798e-05 0.732611 -0.680647 
-9.16009e-05 0.581045 -0.813872 
-0.00012144 0.441574 -0.897225 
-0.000145562 0.324863 -0.945761 
-0.000165911 0.23304 -0.972467 
-0.000182764 0.164354 -0.986401 
-0.000199918 0.115075 -0.993357 
-0.000193404 0.0794978 -0.996835 
-0.000215509 0.051239 -0.998686 
-0.000184109 0.0274276 -0.999624 
-0.000233405 0.0104435 -0.999945 
-0.00019798 0.00298591 -0.999996 
-0.000242334 0.00321403 -0.999995 
-0.0002126 0.00547466 -0.999985 
-0.000197648 0.00528401 -0.999986 
-0.000252586 0.000853785 -1 
-5.01221e-05 -0.0065079 -0.999979 
-0.000391699 -0.0138489 -0.999904 
0.000159989 -0.0146474 -0.999893 
-0.00049414 -0.00780528 -0.999969 
0.000434381 -0.00267854 -0.999996 
-0.00102945 -0.00126332 -0.999999 
-0.00126773 0.000280284 0.999999 
0.00246184 -0.00453087 0.999987 
0.000771348 -0.00516942 0.999986 
0.00103046 -0.00930141 0.999956 
-0.000408162 -0.0112928 0.999936 
-0.000560878 -0.00959478 0.999954 
-0.00040864 -0.00410555 0.999991 
-0.000169214 0.000522622 1 
0.000180693 0.00148605 0.999999 
0.000470402 -0.000604272 1 
0.000557874 -0.00292818 0.999996 
0.000313811 -0.00177487 0.999998 
-0.00014646 0.00464022 0.999989 
-0.000698949 0.0145297 0.999894 
-0.00131208 0.0252382 0.999681 
-0.00234464 0.0359737 0.99935 
-0.00431406 0.0483165 0.998823 
-0.0078137 0.0640289 0.997917 
-0.0132783 0.0836735 0.996405 
-0.0209842 0.106955 0.994042 
-0.031289 0.133202 0.990595 
-0.0447468 0.161648 0.985834 
-0.0622254 0.191283 0.979561 
-0.0846687 0.220557 0.971692 
-0.112598 0.247212 0.962397 
-0.145791 0.268337 0.952229 
-0.183264 0.280729 0.942128 
-0.223174 0.281577 0.933224 
-0.262827 0.269345 0.926485 
-0.299008 0.24435 0.922435 
-0.32866 0.208589 0.921126 
-0.349536 0.165105 0.922261 
-0.360485 0.117539 0.92533 
-0.361442 0.0698457 0.929775 
-0.352805 0.025897 0.935338 
-0.335524 -0.0111517 0.941966 
-0.311742 -0.0394077 0.949349 
-0.284302 -0.0581049 0.956972 
-0.255765 -0.0670596 0.96441 
-0.227718 -0.0661106 0.97148 
-0.20101 -0.0553904 0.978022 
-0.176242 -0.0358408 0.983694 
-0.154007 -0.00893259 0.988029 
-0.134794 0.0241814 0.990579 
-0.11869 0.0638689 0.990875 
-0.10569 0.111957 0.988077 
-0.0958699 0.170387 0.980702 
-0.0893269 0.24105 0.966393 
-0.0857936 0.325545 0.941626 
-0.084807 0.425863 0.900805 
-0.0857253 0.542615 0.835596 
-0.0875844 0.672244 0.735131 
-0.0891671 0.80397 0.587947 
-0.0890766 0.917821 0.386872 
-0.085761 0.986814 0.137267 
-0.0781747 0.987487 -0.13696 
-0.0667299 0.914929 -0.39806 
-0.0534525 0.78838 -0.612862 
-0.0408346 0.639173 -0.767978 
-0.0304458 0.494241 -0.868792 
-0.0225742 0.368758 -0.929251 
-0.0167969 0.267718 -0.963351 
-0.0125 0.190439 -0.981619 
-0.00917183 0.133487 -0.991008 
-0.00657888 0.0919493 -0.995742 
-0.00456585 0.0606104 -0.998151 
-0.00326176 0.0358779 -0.999351 
-0.00246009 0.0176677 -0.999841 
-0.00223073 0.00789345 -0.999966 
-0.00147341 0.0053742 -0.999984 
-0.001492 0.00564253 -0.999983 
-0.000381108 0.00357861 -0.999994 
5.82909e-05 -0.00189778 -0.999998 
0.000180265 -0.00886027 -0.999961 
0.000454879 -0.010938 -0.99994 
-0.000604497 -0.00905466 -0.999959 
-0.000285473 -0.00521055 -0.999986 
-0.0020807 -0.00438464 -0.999988 
0.00123248 0.000427075 -0.999999 
0.00101243 -0.000146376 0.999999 
-0.000843706 -0.0047754 0.999988 
-0.000617605 -0.00478897 0.999988 
-0.00329952 -0.00668551 0.999972 
-0.00300771 -0.00901488 0.999955 
-0.00334813 -0.00598775 0.999976 
-0.00327219 -0.00163244 0.999993 
-0.00298356 0.00203549 0.999993 
-0.00274018 0.00255913 0.999993 
-0.00262723 0.00155328 0.999995 
-0.00300333 0.00138601 0.999995 
-0.00392203 0.00487482 0.99998 
-0.00506218 0.0121402 0.999913 
-0.00633723 0.0218533 0.999741 
-0.00801201 0.0329386 0.999425 
-0.0108745 0.0458456 0.998889 
-0.0159738 0.0620025 0.997948 
-0.0242777 0.0824845 0.996297 
-0.0365191 0.107804 0.993501 
-0.0533955 0.137733 0.989029 
-0.0759201 0.171689 0.982221 
-0.105671 0.20902 0.972185 
-0.144648 0.248415 0.957793 
-0.194282 0.287109 0.937989 
-0.254605 0.32085 0.912267 
-0.324088 0.344733 0.88098 
-0.39947 0.354176 0.845567 
-0.475697 0.345974 0.808712 
-0.546712 0.319323 0.77404 
-0.606725 0.276168 0.745396 
-0.651479 0.220637 0.725875 
-0.678951 0.158068 0.716966 
-0.689002 0.0939847 0.71864 
-0.682637 0.0334706 0.72999 
-0.660645 -0.0191769 0.750453 
-0.624958 -0.0609298 0.778277 
-0.579507 -0.0902364 0.809957 
-0.52912 -0.106884 0.841788 
-0.47754 -0.111199 0.871545 
-0.426897 -0.103924 0.898309 
-0.378459 -0.0860939 0.921605 
-0.33374 -0.0592503 0.940801 
-0.294194 -0.0248885 0.955422 
-0.260605 0.0166079 0.965303 
-0.232902 0.0657992 0.970272 
-0.211132 0.12427 0.969526 
-0.195624 0.193591 0.961381 
-0.186161 0.275445 0.943119 
-0.181894 0.37171 0.910355 
-0.181763 0.483461 0.856287 
-0.184447 0.609173 0.77129 
-0.187724 0.741586 0.644057 
-0.18856 0.865065 0.464874 
-0.18391 0.955023 0.232613 
-0.170776 0.984674 -0.0353814 
-0.149039 0.940595 -0.305072 
-0.121818 0.833501 -0.538922 
-0.0940293 0.692104 -0.715647 
-0.0696874 0.545735 -0.835055 
-0.0504771 0.413604 -0.909057 
-0.0360661 0.304191 -0.951928 
-0.025425 0.218701 -0.975461 
-0.0174062 0.154614 -0.987822 
-0.0112701 0.107544 -0.994136 
-0.0067168 0.072887 -0.997318 
-0.00351704 0.0468525 -0.998896 
-0.00166837 0.027465 -0.999621 
-0.00061406 0.0149767 -0.999888 
8.45251e-05 0.00909653 -0.999959 
0.000633896 0.00721382 -0.999974 
0.00231824 0.00596958 -0.999979 
0.00134678 0.00288879 -0.999995 
0.00342073 -0.000548419 -0.999994 
0.00265655 -0.00536721 -0.999982 
0.00307597 -0.00811597 -0.999962 
0.00319526 -0.00617929 -0.999976 
0.0011945 -0.00476768 -0.999988 
0.00134929 -0.00469123 -0.999988 
-0.000980991 -0.000206508 -0.999999 
-0.000567205 1.99355e-05 1 
-0.000209601 -0.00396665 0.999992 
-0.00168826 -0.00189558 0.999997 
-0.00233273 -0.00418495 0.999989 
-0.00288236 -0.00588212 0.999979 
-0.00281945 -0.00662319 0.999974 
-0.00308864 -0.00404308 0.999987 
-0.00325062 0.00130126 0.999994 
-0.00309357 0.00414593 0.999987 
-0.00308616 0.00475857 0.999984 
-0.0035 0.00445115 0.999984 
-0.00465256 0.00570935 0.999973 
-0.00646915 0.0104369 0.999925 
-0.00855905 0.0184203 0.999794 
-0.0108387 0.028919 0.999523 
-0.0140604 0.0418338 0.999026 
-0.019345 0.0583444 0.998109 
-0.0280648 0.0797728 0.996418 
-0.0414891 0.10732 0.993358 
-0.0607541 0.141632 0.988053 
-0.0872836 0.182511 0.979322 
-0.123126 0.229593 0.965467 
-0.171075 0.282199 0.943979 
-0.233732 0.337789 0.911739 
-0.31175 0.390684 0.866128 
-0.403219 0.433245 0.806048 
-0.503607 0.457831 0.732646 
-0.605718 0.45837 0.650387 
-0.701149 0.432268 0.567041 
-0.782571 0.381429 0.492032 
-0.845333 0.311613 0.433947 
-0.888017 0.230541 0.397841 
-0.911381 0.14579 0.384876 
-0.917035 0.0637264 0.393683 
-0.906549 -0.0106112 0.421968 
-0.879948 -0.0731028 0.469412 
-0.838532 -0.121063 0.531232 
-0.785662 -0.153093 0.599415 
-0.725933 -0.169097 0.666654 
-0.662947 -0.169797 0.729157 
-0.59896 -0.156248 0.785388 
-0.536443 -0.130399 0.833801 
-0.478373 -0.0942854 0.873081 
-0.42731 -0.0496968 0.902738 
-0.384261 0.0028729 0.92322 
-0.349187 0.0639592 0.934868 
-0.32251 0.134439 0.93697 
-0.304702 0.215796 0.927679 
-0.294883 0.309674 0.903962 
-0.291469 0.417357 0.860731 
-0.293034 0.538695 0.789898 
-0.297017 0.669196 0.681144 
-0.299006 0.797379 0.524196 
-0.293868 0.902852 0.313847 
-0.277522 0.958938 0.0584717 
-0.247194 0.945639 -0.211332 
-0.206724 0.863759 -0.45955 
-0.162901 0.736374 -0.656671 
-0.12239 0.593721 -0.795309 
-0.0890119 0.458298 -0.88433 
-0.0634593 0.341936 -0.937578 
-0.0444978 0.248527 -0.967602 
-0.0305109 0.177217 -0.983699 
-0.0200573 0.1244 -0.992029 
-0.0123182 0.0857362 -0.996242 
-0.00685797 0.0574388 -0.998325 
-0.00330757 0.0365329 -0.999327 
-0.00134879 0.0219077 -0.999759 
-0.000442035 0.0134069 -0.99991 
0.000536676 0.00977441 -0.999952 
0.000949811 0.00812786 -0.999967 
0.00175732 0.00465387 -0.999988 
0.00152089 -0.000688146 -0.999999 
0.00295245 -0.00525106 -0.999982 
0.00247919 -0.00586486 -0.99998 
0.00266307 -0.00376035 -0.999989 
0.00207027 -0.00203222 -0.999996 
0.000801406 -0.0038106 -0.999992 
0.000644649 3.13366e-05 -1 
0.000247471 -0.000156397 1 
0.000309608 -0.00232931 0.999997 
0.00197728 -0.000483523 0.999998 
-0.000177753 -0.00239314 0.999997 
0.000393147 -0.00577132 0.999983 
-0.000478728 -0.00535097 0.999986 
-0.00132429 -0.000981744 0.999999 
-0.00147487 0.00394714 0.999991 
-0.00177722 0.00643324 0.999978 
-0.00214575 0.00684818 0.999974 
-0.00302133 0.00684166 0.999972 
-0.00502936 0.0092169 0.999945 
-0.00770787 0.0151649 0.999855 
-0.0105808 0.0244209 0.999646 
-0.014008 0.0366978 0.999228 
-0.0189487 0.0529564 0.998417 
-0.0267432 0.0747436 0.996844 
-0.0389778 0.103706 0.993844 
-0.057258 0.141475 0.988285 
-0.0833723 0.188722 0.978485 
-0.119676 0.245374 0.962013 
-0.169321 0.311223 0.935131 
-0.235711 0.384742 0.89242 
-0.320495 0.46009 0.828009 
-0.421527 0.526354 0.738422 
-0.532898 0.571461 0.624061 
-0.645272 0.585395 0.490852 
-0.748044 0.56302 0.351338 
-0.833361 0.506444 0.221413 
-0.898305 0.423985 0.115262 
-0.94428 0.326485 0.041753 
-0.974633 0.223791 0.00275622 
-0.992381 0.123137 -0.00415823 
-0.999416 0.0293649 0.017501 
-0.996422 -0.0540667 0.064965 
-0.982334 -0.123947 0.140205 
-0.955407 -0.178024 0.235595 
-0.91587 -0.21435 0.339464 
-0.866057 -0.231928 0.442894 
-0.808205 -0.230818 0.541782 
-0.744965 -0.212223 0.632447 
-0.680004 -0.17838 0.711178 
-0.61797 -0.132326 0.774986 
-0.562728 -0.0761816 0.823125 
-0.515679 -0.0109921 0.856712 
-0.477307 0.0630781 0.87647 
-0.448932 0.146585 0.881461 
-0.431044 0.240644 0.86965 
-0.421717 0.346464 0.837925 
-0.418932 0.464324 0.78032 
-0.420595 0.591772 0.687682 
-0.421861 0.720463 0.550424 
-0.415533 0.834207 0.362533 
-0.395375 0.9097 0.126981 
-0.358544 0.923463 -0.136613 
-0.305433 0.87002 -0.38701 
-0.245536 0.762079 -0.599122 
-0.187869 0.628944 -0.75441 
-0.138459 0.495669 -0.857404 
-0.0995464 0.37643 -0.921081 
-0.0702179 0.276925 -0.958322 
-0.0487556 0.199305 -0.978724 
-0.0329612 0.140893 -0.989476 
-0.0213875 0.0980594 -0.994951 
-0.0132301 0.0669615 -0.997668 
-0.00771967 0.0444419 -0.998982 
-0.00443663 0.0281294 -0.999594 
-0.00277256 0.0174577 -0.999844 
-0.00183711 0.0121715 -0.999924 
-0.00105712 0.0101377 -0.999948 
-0.000165997 0.00820569 -0.999966 
2.40199e-06 0.00453059 -0.99999 
-0.000140176 -0.00132219 -0.999999 
0.000352832 -0.00563807 -0.999984 
-0.00051932 -0.00499098 -0.999987 
-0.000659956 -0.00229305 -0.999997 
-0.00148351 -0.000190118 -0.999999 
7.76101e-05 -0.00267945 -0.999996 
-0.000286361 -0.000139733 -1 
-0.000115947 -0.000111328 1 
0.00161127 -0.00130284 0.999998 
0.00196461 0.000982005 0.999998 
0.00204571 -0.00172654 0.999996 
8.38194e-05 -0.00505291 0.999987 
-0.00107129 -0.00515873 0.999986 
-0.00225211 0.000372851 0.999997 
-0.00391861 0.00638198 0.999972 
-0.00481726 0.00879555 0.99995 
-0.00519926 0.00856601 0.99995 
-0.00641966 0.00896875 0.999939 
-0.00872294 0.0126418 0.999882 
-0.0115873 0.0201968 0.999729 
-0.0148588 0.0313522 0.999398 
-0.0191613 0.0465974 0.99873 
-0.0255217 0.067738 0.997377 
-0.0354183 0.0967051 0.994683 
-0.0506346 0.135792 0.989443 
-0.0730924 0.186839 0.979668 
-0.105333 0.250497 0.96237 
-0.150542 0.326819 0.93302 
-0.212252 0.415135 0.884654 
-0.292961 0.51108 0.808066 
-0.391171 0.602337 0.695827 
-0.500007 0.67103 0.54746 
-0.608508 0.701859 0.370286 
-0.70422 0.686463 0.181224 
-0.778967 0.627058 0.00307979 
-0.832066 0.535294 -0.145349 
-0.868423 0.425978 -0.253739 
-0.89456 0.311554 -0.320464 
-0.915224 0.199866 -0.349883 
-0.932873 0.0950887 -0.347427 
-0.94845 -0.000643612 -0.316926 
-0.961931 -0.0858835 -0.259447 
-0.972639 -0.158663 -0.169706 
-0.974454 -0.216993 -0.0579044 
-0.964003 -0.257721 0.0654076 
-0.940667 -0.278517 0.193841 
-0.904871 -0.278177 0.322222 
-0.858278 -0.257191 0.444086 
-0.804751 -0.217841 0.552197 
-0.750058 -0.16333 0.640886 
-0.699036 -0.0965542 0.708538 
-0.653878 -0.0191777 0.756357 
-0.616275 0.0677291 0.784613 
-0.588892 0.164035 0.791391 
-0.571874 0.270354 0.774512 
-0.561907 0.386592 0.731305 
-0.556927 0.511277 0.654544 
-0.553408 0.638419 0.53494 
-0.543091 0.75497 0.367522 
-0.517386 0.841663 0.154643 
-0.472002 0.876893 -0.0909588 
-0.408524 0.846626 -0.341075 
-0.333198 0.76542 -0.550556 
-0.258123 0.645229 -0.719064 
-0.19233 0.518951 -0.832886 
-0.139444 0.40258 -0.904701 
-0.0981966 0.300893 -0.948589 
-0.068055 0.218748 -0.973405 
-0.0459818 0.155985 -0.986689 
-0.0298361 0.109126 -0.99358 
-0.018281 0.0751764 -0.997003 
-0.0104545 0.0508403 -0.998652 
-0.00553594 0.0334157 -0.999426 
-0.00274956 0.0211089 -0.999773 
-0.00146605 0.0138912 -0.999902 
-0.000479626 0.0111482 -0.999938 
0.000621449 0.0104176 -0.999946 
0.00132126 0.00879753 -0.99996 
0.00202752 0.00472393 -0.999987 
0.00169091 -0.000880858 -0.999998 
-0.000614321 -0.0053682 -0.999985 
-0.00185843 -0.00408212 -0.99999 
-0.00236617 -9.22755e-05 -0.999997 
-0.00225208 0.000452369 -0.999997 
-0.00149096 -0.00137034 -0.999998 
0.000155977 -0.000136756 -1 
1.29838e-06 -0.000153322 1 
0.000782571 -0.000442918 1 
-0.000991586 0.00179585 0.999998 
0.000226156 -0.00066768 1 
-0.00374752 -0.00363642 0.999986 
-0.00664279 -0.00363224 0.999971 
-0.00592181 -0.000848198 0.999982 
-0.00886701 0.0058571 0.999944 
-0.0112741 0.0103211 0.999883 
-0.0121551 0.0111003 0.999865 
-0.0124357 0.0103833 0.999869 
-0.0133329 0.0115263 0.999845 
-0.0152416 0.0168204 0.999742 
-0.017674 0.0263452 0.999497 
-0.020932 0.0399635 0.998982 
-0.0256982 0.0593149 0.997908 
-0.03303 0.0867279 0.995684 
-0.0443875 0.124785 0.99119 
-0.0615266 0.176291 0.982413 
-0.0868881 0.243108 0.9661 
-0.1235 0.325922 0.937296 
-0.17467 0.424449 0.888445 
-0.243133 0.535995 0.808453 
-0.328541 0.65003 0.685216 
-0.424823 0.744867 0.514489 
-0.520684 0.797201 0.305546 
-0.602847 0.793976 0.0785987 
-0.662443 0.736346 -0.137708 
-0.699967 0.639031 -0.318881 
-0.722384 0.521417 -0.454187 
-0.738294 0.399227 -0.543636 
-0.754061 0.281666 -0.593343 
-0.772407 0.172557 -0.611238 
-0.794384 0.0729322 -0.603021 
-0.820407 -0.0172157 -0.57152 
-0.851236 -0.0979508 -0.51556 
-0.887222 -0.168913 -0.429307 
-0.918512 -0.228031 -0.323013 
-0.941184 -0.271816 -0.200722 
-0.952673 -0.296819 -0.0656754 
-0.950748 -0.300324 0.0767103 
-0.934557 -0.281165 0.218059 
-0.906182 -0.240563 0.347797 
-0.870879 -0.181358 0.456813 
-0.833668 -0.106709 0.541859 
-0.797295 -0.0194146 0.603278 
-0.765152 0.0784858 0.639048 
-0.741037 0.18592 0.645212 
-0.72399 0.301988 0.620195 
-0.709531 0.424493 0.56247 
-0.695863 0.549041 0.462957 
-0.676796 0.665139 0.315495 
-0.641853 0.756383 0.126133 
-0.585369 0.805357 -0.0935 
-0.50843 0.797588 -0.32458 
-0.41839 0.731502 -0.538382 
-0.329327 0.642973 -0.69147 
-0.244428 0.520753 -0.817968 
-0.179159 0.412908 -0.892977 
-0.125535 0.314549 -0.940904 
-0.0864226 0.23194 -0.968883 
-0.0575769 0.166468 -0.984364 
-0.0368733 0.117638 -0.992372 
-0.0216331 0.0809923 -0.99648 
-0.0109866 0.0550755 -0.998422 
-0.00385942 0.0369266 -0.999311 
0.0006742 0.0239551 -0.999713 
0.00328984 0.0154735 -0.999875 
0.00492191 0.0113673 -0.999923 
0.00634835 0.0109204 -0.99992 
0.00777163 0.0111333 -0.999908 
0.00865234 0.00938751 -0.999919 
0.00871112 0.0039819 -0.999954 
0.00437545 -0.00359566 -0.999984 
0.00256185 -0.00449147 -0.999987 
0.00135025 -0.00157918 -0.999998 
0.000399383 0.00274576 -0.999996 
-0.00052712 -0.000556992 -1 
-0.000102897 -0.000135482 -1 
9.86265e-05 -0.000154113 1 
-0.00169308 0.000157416 0.999999 
-0.0051112 0.00292135 0.999983 
-0.004797 0.000818444 0.999988 
-0.00872612 -0.00240893 0.999959 
-0.0121476 0.000191967 0.999926 
-0.012384 0.00365061 0.999917 
-0.0160729 0.0107514 0.999813 
-0.0183026 0.0138082 0.999737 
-0.0190607 0.0133113 0.99973 
-0.0191057 0.0123286 0.999741 
-0.0195667 0.0146008 0.999702 
-0.0206831 0.0217925 0.999549 
-0.0224307 0.0332124 0.999197 
-0.0254416 0.0497208 0.998439 
-0.0304155 0.0738563 0.996805 
-0.0382308 0.108442 0.993367 
-0.0500339 0.156532 0.986405 
-0.0677625 0.221437 0.972818 
-0.0939331 0.304853 0.947756 
-0.131537 0.407269 0.903786 
-0.183261 0.527111 0.829801 
-0.249753 0.657228 0.711108 
-0.326972 0.7777 0.53691 
-0.405779 0.85876 0.312849 
-0.474033 0.878321 0.0620122 
-0.521702 0.833094 -0.183796 
-0.548001 0.738057 -0.393658 
-0.560215 0.616849 -0.552862 
-0.566947 0.489375 -0.662634 
-0.575191 0.367598 -0.730771 
-0.588507 0.25638 -0.766765 
-0.607598 0.156405 -0.778693 
-0.63298 0.0669876 -0.771265 
-0.665604 -0.013244 -0.746188 
-0.708048 -0.0860194 -0.700906 
-0.760639 -0.152208 -0.63108 
-0.812997 -0.209581 -0.543242 
-0.862975 -0.254685 -0.43636 
-0.906825 -0.283438 -0.311979 
-0.940503 -0.291801 -0.174089 
-0.960313 -0.277194 -0.0310178 
-0.965279 -0.239131 0.105129 
-0.958237 -0.179492 0.222631 
-0.942908 -0.101577 0.317186 
-0.921961 -0.00880528 0.387184 
-0.899598 0.0958879 0.426062 
-0.879393 0.209879 0.42734 
-0.858879 0.329624 0.392013 
-0.833562 0.450097 0.320292 
-0.80131 0.563678 0.200425 
-0.754152 0.655721 0.035851 
-0.685366 0.712137 -0.152096 
-0.595746 0.722373 -0.35109 
-0.490917 0.679651 -0.545046 
-0.383027 0.592093 -0.709025 
-0.294458 0.517384 -0.803498 
-0.212602 0.401554 -0.890817 
-0.148476 0.314012 -0.937737 
-0.101861 0.234961 -0.966653 
-0.0672251 0.170695 -0.983028 
-0.0422175 0.120356 -0.991833 
-0.0248023 0.0843763 -0.996125 
-0.0113781 0.0561068 -0.99836 
-0.00258146 0.037675 -0.999287 
0.00369651 0.0248987 -0.999683 
0.00796362 0.0162768 -0.999836 
0.0108449 0.011255 -0.999878 
0.0125469 0.0105749 -0.999865 
0.0143827 0.0116768 -0.999828 
0.0151504 0.0126693 -0.999805 
0.0150868 0.0107117 -0.999829 
0.0137875 0.00523494 -0.999891 
0.00914155 -0.00212369 -0.999956 
0.00700885 -0.00260939 -0.999972 
0.00545336 0.00111776 -0.999985 
0.00244844 0.000648169 -0.999997 
0.00167482 0.000396648 -0.999999 
2.43853e-05 -0.000158534 -1 
-0.000181667 -0.000154654 1 
-0.00394572 0.00067364 0.999992 
-0.00749274 0.00368803 0.999965 
-0.00830162 0.00200896 0.999964 
-0.0104481 -0.000312992 0.999945 
-0.0126124 0.0030041 0.999916 
-0.016104 0.00914217 0.999829 
-0.0193012 0.0152955 0.999697 
-0.0213626 0.0165313 0.999635 
-0.0222394 0.0148053 0.999643 
-0.0223836 0.0141774 0.999649 