# vtk DataFile Version 3.0 
Exported using Morpho https://github.com/Morpho-lang/morpho 
ASCII 
DATASET UNSTRUCTURED_GRID 

POINTS 1978 float 
-8.48529 -2.82845 -1.1954e-09 
-8.23166 -2.82843 -2.35189e-08 
-7.99038 -2.82843 -1.86978e-08 
-7.7454 -2.82843 -2.91324e-08 
-7.33785 -2.82843 -3.77891e-08 
-7.05904 -2.82843 -2.30682e-08 
-6.87207 -2.82843 -1.48288e-08 
-6.66648 -2.82843 -1.27897e-08 
-6.4739 -2.82843 -1.60477e-08 
-6.2926 -2.82843 -1.03647e-08 
-6.08162 -2.82843 -9.36282e-09 
-5.89417 -2.82843 -8.35053e-09 
-5.69756 -2.82843 -5.66484e-09 
-5.50556 -2.82843 -5.38923e-09 
-5.30115 -2.82843 -4.4728e-09 
-5.07948 -2.82843 -2.6528e-09 
-4.85363 -2.82843 -3.58282e-10 
-4.62107 -2.82843 2.51088e-09 
-4.39619 -2.82843 6.39189e-09 
-4.1447 -2.82843 9.01492e-09 
-3.94438 -2.82843 9.36569e-09 
-3.75727 -2.82843 1.22857e-08 
-3.54521 -2.82843 1.63524e-08 
-3.33482 -2.82843 1.94787e-08 
-3.11024 -2.82843 2.1728e-08 
-2.90293 -2.82843 2.44488e-08 
-2.68257 -2.82843 2.43799e-08 
-2.47064 -2.82843 2.02682e-08 
-2.25501 -2.82843 1.38997e-08 
-2.02415 -2.82843 6.75372e-09 
-1.81221 -2.82843 -5.77153e-09 
-1.57113 -2.82843 -4.41237e-10 
-1.40983 -2.82843 -1.72504e-08 
-1.22963 -2.82843 -3.68715e-08 
-1.05291 -2.82843 -1.60484e-08 
-0.856478 -2.82843 -2.7781e-08 
-0.663714 -2.82843 6.04772e-09 
-0.46587 -2.82843 -4.63964e-08 
-0.264678 -2.82842 6.87702e-08 
-0.0433207 -2.82843 -7.2176e-08 
0.24301 -2.82843 -5.8411e-08 
0.506443 -2.82843 9.95218e-08 
0.721261 -2.82843 3.22292e-08 
0.906196 -2.82843 1.87031e-08 
1.06086 -2.82843 -9.2157e-10 
1.22506 -2.82843 2.98176e-08 
1.40707 -2.82843 2.50161e-08 
1.59078 -2.82843 1.66521e-08 
1.8001 -2.82843 -6.49754e-09 
2.02072 -2.82843 -6.38372e-09 
2.24513 -2.82843 -1.31057e-08 
2.46139 -2.82842 -1.83553e-08 
2.67811 -2.82843 -3.28865e-08 
2.90684 -2.82843 -2.6789e-08 
3.13391 -2.82843 -2.17254e-08 
3.31416 -2.82843 -2.02125e-08 
3.51744 -2.82843 -1.55147e-08 
3.73638 -2.82843 -1.35117e-08 
3.94884 -2.82843 -1.04985e-08 
4.17186 -2.82843 -7.18278e-09 
4.3779 -2.82843 -4.22848e-09 
4.60133 -2.82843 -1.61267e-09 
4.79756 -2.82843 7.28577e-11 
5.01163 -2.82843 2.082e-09 
5.25367 -2.82843 4.12412e-09 
5.46574 -2.82843 5.32656e-09 
5.70066 -2.82843 7.3625e-09 
5.92687 -2.82843 9.81686e-09 
6.16688 -2.82843 1.25453e-08 
6.40921 -2.82843 1.46785e-08 
6.62027 -2.82843 1.54864e-08 
6.83688 -2.82843 1.86931e-08 
7.05992 -2.82843 2.38469e-08 
7.29487 -2.82843 2.98988e-08 
7.58736 -2.82843 2.45829e-08 
7.79713 -2.82843 1.57437e-08 
8.06273 -2.82843 1.38135e-08 
8.27343 -2.82843 1.82786e-08 
8.48529 -2.82845 -1.37588e-09 
-8.48528 -2.57696 9.09641e-09 
-8.26338 -2.61009 -1.35271e-09 
-8.02304 -2.57571 -1.39354e-09 
-7.79235 -2.55921 1.40214e-09 
-7.55111 -2.68409 -1.88619e-09 
-7.2134 -2.64247 -1.19408e-09 
-6.98472 -2.55556 -4.86904e-10 
-6.77615 -2.57659 -5.2776e-10 
-6.55917 -2.55205 -4.86901e-10 
-6.36062 -2.52826 -2.39357e-10 
-6.15803 -2.58562 -5.5234e-10 
-5.94635 -2.56147 1.33642e-10 
-5.73447 -2.57897 -9.71602e-10 
-5.51649 -2.57291 1.91281e-10 
-5.2987 -2.58633 -4.03528e-10 
-5.06768 -2.58759 1.44814e-10 
-4.82809 -2.59542 3.57509e-11 
-4.59779 -2.58953 7.61781e-11 
-4.34684 -2.61785 2.27212e-11 
-4.13173 -2.57265 3.98394e-10 
-3.93308 -2.55607 4.1446e-10 
-3.71593 -2.58623 5.43238e-10 
-3.49628 -2.58033 6.19111e-10 
-3.26641 -2.59346 9.76307e-10 
-3.04367 -2.56801 1.17764e-09 
-2.81703 -2.58089 1.25747e-09 
-2.58871 -2.56765 1.27258e-09 
-2.36241 -2.57197 1.76441e-09 
-2.13025 -2.58963 4.76555e-10 
-1.89311 -2.56975 4.35587e-09 
-1.66546 -2.60884 -2.77646e-10 
-1.46327 -2.51539 -2.11575e-08 
-1.29149 -2.57325 8.18288e-08 
-1.10494 -2.57909 -7.81679e-08 
-0.917616 -2.60842 5.61441e-08 
-0.83216 -2.41098 3.96767e-08 
-0.710896 -2.61652 -8.39737e-08 
-0.504307 -2.63808 4.58018e-08 
-0.281481 -2.644 2.91078e-08 
-0.0208687 -2.66051 -3.26752e-08 
0.248483 -2.67029 4.04058e-08 
0.552902 -2.67285 -5.08717e-10 
0.82634 -2.64999 -1.80891e-08 
0.904385 -2.44294 6.03595e-10 
1.05689 -2.57441 -1.08588e-08 
1.12854 -2.35926 2.90434e-08 
1.25936 -2.57402 1.38219e-08 
1.46244 -2.56136 -9.07537e-09 
1.68487 -2.58982 7.40738e-09 
1.93998 -2.59155 -8.27734e-09 
2.1954 -2.58602 6.11769e-10 
2.45017 -2.56979 -1.22965e-08 
2.70268 -2.58304 9.01444e-09 
2.95128 -2.58611 -4.31895e-09 
3.16732 -2.53283 -3.28111e-10 
3.37737 -2.57372 -4.43589e-10 
3.60329 -2.59332 -6.29462e-10 
3.82811 -2.58636 -4.34232e-10 
4.05241 -2.5975 -3.28724e-10 
4.27184 -2.57773 -2.0453e-10 
4.4884 -2.59615 -1.15955e-10 
4.6995 -2.56241 -3.31852e-11 
4.90476 -2.5792 1.54268e-12 
5.13079 -2.60429 1.03557e-10 
5.35439 -2.57121 1.7877e-10 
5.577 -2.59371 2.17113e-10 
5.80608 -2.58237 2.70558e-10 
6.03805 -2.59606 4.0141e-10 
6.27547 -2.59709 4.41731e-10 
6.49978 -2.56532 4.84509e-10 
6.71325 -2.5743 5.50973e-10 
6.93328 -2.5829 4.85275e-10 
7.16047 -2.59388 1.20243e-09 
7.41482 -2.63525 6.13417e-10 
7.63365 -2.55585 5.48336e-10 
7.86934 -2.61401 7.97416e-10 
8.06447 -2.54786 4.62091e-10 
8.27032 -2.58071 6.97171e-10 
8.48528 -2.56484 -9.93973e-09 
-8.48528 -2.3376 2.11107e-10 
-8.24175 -2.37412 7.43176e-10 
-8.00612 -2.32426 -1.48163e-09 
-7.68713 -2.38158 4.46396e-10 
-7.44761 -2.28845 -9.36726e-10 
-7.43024 -2.51377 -1.20837e-09 
-7.18694 -2.40088 4.30168e-11 
-6.9612 -2.30005 -3.48351e-11 
-6.72676 -2.33798 1.60383e-10 
-6.50253 -2.28015 -3.58264e-10 
-6.25421 -2.30443 2.58517e-12 
-6.05724 -2.32075 -1.75422e-11 
-5.82917 -2.32816 1.0385e-10 
-5.6116 -2.33604 -2.7569e-10 
-5.37625 -2.34708 2.54369e-10 
-5.15484 -2.35222 -1.78823e-10 
-4.92418 -2.36205 -9.05598e-11 
-4.69877 -2.35316 1.06169e-10 
-4.46338 -2.38678 6.12353e-11 
-4.25336 -2.3533 1.61688e-10 
-4.04226 -2.3036 8.89899e-11 
-3.82117 -2.33024 1.09261e-10 
-3.61079 -2.34047 2.66621e-10 
-3.38377 -2.35141 3.40307e-10 
-3.16834 -2.33777 4.07702e-10 
-2.93177 -2.32957 4.13848e-10 
-2.70875 -2.32998 6.2459e-10 
-2.47462 -2.32051 -1.61865e-09 
-2.24667 -2.33471 1.37231e-09 
-2.0214 -2.35043 -2.59928e-09 
-1.77127 -2.35286 1.32835e-08 
-1.58549 -2.32081 -3.91138e-08 
-1.37904 -2.26114 6.08742e-08 
-1.2129 -2.32939 -2.63946e-08 
-1.0255 -2.35372 -1.71748e-10 
-0.745239 -2.23368 -7.92398e-08 
-0.625054 -2.42636 7.06048e-08 
-0.421343 -2.45662 -1.13867e-07 
-0.17864 -2.49358 -7.29672e-08 
0.0779038 -2.49921 2.70276e-08 
0.342158 -2.53179 1.64868e-08 
0.490806 -2.43242 3.93973e-08 
0.677741 -2.51176 4.07893e-08 
0.729187 -2.32463 3.78874e-08 
0.943552 -2.246 -5.03644e-08 
1.1584 -2.15716 -2.52697e-08 
1.32969 -2.32496 -1.95139e-08 
1.53685 -2.33078 1.20752e-08 
1.7588 -2.37423 6.49146e-09 
1.99084 -2.35568 3.12267e-09 
2.23115 -2.34959 -1.13001e-08 
2.4684 -2.32486 -2.12976e-09 
2.69862 -2.3467 -9.97859e-10 
2.93541 -2.33576 2.62021e-09 
3.16841 -2.2905 -7.89844e-10 
3.3973 -2.31779 -3.74894e-10 
3.60509 -2.35735 -2.76385e-10 
3.81737 -2.34309 -2.52706e-10 
4.03549 -2.36291 -1.57316e-10 
4.25344 -2.34217 -6.65795e-11 
4.47169 -2.35424 -7.92821e-11 
4.6803 -2.32037 -6.53955e-11 
4.89349 -2.32333 5.39863e-12 
5.10044 -2.36395 -1.37123e-11 
5.31787 -2.33544 5.89955e-11 
5.54559 -2.3469 6.03533e-12 
5.76451 -2.34585 5.53793e-11 
5.99698 -2.35776 9.91978e-11 
6.22654 -2.36322 8.699e-11 
6.45461 -2.33064 6.54517e-11 
6.68687 -2.31868 1.19392e-10 
6.90162 -2.33521 -2.40317e-11 
7.12225 -2.35205 1.02761e-10 
7.35288 -2.40615 2.61659e-10 
7.5494 -2.3127 -2.38559e-10 
7.79212 -2.35417 -1.09719e-10 
8.02516 -2.30767 -5.93052e-11 
8.26204 -2.32627 1.23649e-10 
8.48528 -2.29779 -1.28748e-09 
-8.48528 -2.06318 3.74317e-09 
-8.27463 -2.14134 1.00332e-10 
-8.12447 -2.02332 3.97722e-10 
-7.87879 -2.16529 3.51956e-10 
-7.64203 -2.12602 4.7956e-10 
-7.23603 -2.17283 3.58881e-10 
-7.08832 -2.03686 -6.79296e-11 
-6.85842 -2.0905 1.73304e-10 
-6.64829 -2.0818 2.5735e-10 
-6.36838 -2.08628 1.38771e-10 
-6.14369 -2.04076 -3.25008e-11 
-5.94021 -2.09342 5.13845e-11 
-5.71887 -2.09029 2.70142e-10 
-5.49021 -2.12322 2.93459e-11 
-5.26999 -2.11003 -8.50461e-11 
-5.04854 -2.1263 3.6697e-11 
-4.82852 -2.12385 1.84162e-11 
-4.59377 -2.1413 5.84356e-11 
-4.39117 -2.1254 -5.60394e-11 
-4.1858 -2.0933 -5.75588e-11 
-3.94543 -2.08488 9.57592e-11 
-3.73126 -2.08779 -1.0109e-10 
-3.51105 -2.11344 -1.37142e-10 
-3.29655 -2.09819 -1.07816e-12 
-3.06594 -2.11004 1.45702e-10 
-2.83059 -2.08739 1.00839e-11 
-2.60158 -2.09469 -4.74443e-10 
-2.36703 -2.08549 -6.36833e-10 
-2.14478 -2.10383 1.76127e-09 
-1.91908 -2.14413 1.02069e-09 
-1.72874 -2.07883 -1.52113e-09 
-1.53715 -2.08674 -1.70975e-09 
-1.33187 -2.05231 -3.45571e-09 
-1.1396 -2.11153 -1.1047e-08 
-0.939277 -2.18102 -1.14845e-07 
-0.903926 -1.97315 3.88171e-08 
-0.55402 -2.23644 -9.86347e-09 
-0.380658 -2.27923 2.11809e-07 
-0.164783 -2.34077 1.55462e-08 
0.0484374 -2.31075 -1.13009e-07 
0.253887 -2.35577 -1.83958e-08 
0.368229 -2.22918 -3.68194e-08 
0.546523 -2.24831 -7.72894e-08 
0.737024 -2.14399 -8.68701e-09 
0.942903 -2.07307 1.02506e-07 
1.15098 -1.98969 7.68845e-08 
1.37013 -2.11501 -5.95809e-08 
1.54406 -2.08588 5.33083e-08 
1.73845 -2.15411 -2.44313e-08 
1.96507 -2.13272 2.49189e-09 
2.2029 -2.12067 1.23073e-08 
2.44261 -2.09425 -4.9095e-09 
2.68492 -2.10977 3.32173e-09 
2.92609 -2.1004 -2.74328e-11 
3.15507 -2.05299 -1.11427e-09 
3.38958 -2.08186 3.34233e-10 
3.61832 -2.10694 4.58434e-11 
3.8455 -2.1135 1.05753e-10 
4.063 -2.12865 3.0738e-11 
4.28445 -2.1123 -1.74861e-11 
4.48896 -2.10862 -5.67767e-14 
4.70216 -2.08366 1.71459e-11 
4.91667 -2.087 7.28779e-12 
5.1266 -2.11885 -2.41933e-11 
5.35135 -2.10415 -1.39101e-11 
5.56628 -2.10335 -2.62372e-11 
5.79593 -2.11745 -2.15904e-11 
6.01014 -2.1128 6.70715e-12 
6.22694 -2.12593 -3.61031e-11 
6.46112 -2.10297 1.22452e-10 
6.66434 -2.06149 -2.34271e-10 
6.86889 -2.08492 -1.09984e-10 
7.08337 -2.10495 -2.91377e-10 
7.30417 -2.15516 9.31462e-11 
7.50374 -2.0668 1.21102e-10 
7.74158 -2.119 4.65001e-10 
7.97643 -2.0812 1.17689e-10 
8.23762 -2.08698 -1.99364e-10 
8.48528 -2.05076 -6.03964e-09 
-8.48528 -1.63348 1.73443e-09 
-8.35496 -1.84783 8.95048e-12 
-7.9474 -1.89478 -8.18045e-11 
[...]
POINT_DATA 1978 
VECTORS vectors float
0.000599413 0.000952736 1 
0.00278328 -0.0413996 0.999138 
0.00130435 -0.0369554 0.999315 
0.00112352 -0.0292402 0.999571 
0.0013075 -0.0429852 0.999075 
0.00143637 -0.0470805 0.99889 
0.001472 -0.0439197 0.999033 
0.00164952 -0.0377733 0.999284 
0.00173789 -0.0320218 0.999485 
0.0016277 -0.0271702 0.999629 
0.0017039 -0.0234687 0.999722 
0.0017014 -0.0204954 0.999788 
0.00156059 -0.017188 0.99985 
0.00166428 -0.0143399 0.999895 
0.00176401 -0.0106298 0.999941 
0.00181998 -0.00613903 0.999979 
0.00174825 -0.00141986 0.999997 
0.00170998 0.00452239 0.999988 
0.0018251 0.0110707 0.999936 
0.00177333 0.0197107 0.999803 
0.00149886 0.0269725 0.999634 
0.00154953 0.0349643 0.999387 
0.00168043 0.0462281 0.998929 
0.00168366 0.0597539 0.998211 
0.00158586 0.0770541 0.997025 
0.00149888 0.0974799 0.995236 
0.00143624 0.124405 0.99223 
0.00130995 0.155752 0.987795 
0.0012784 0.193818 0.981036 
0.00116282 0.24078 0.970579 
0.00107696 0.291948 0.956433 
0.000835664 0.361365 0.932424 
0.000534911 0.419689 0.907668 
0.000476345 0.493648 0.869662 
0.000337195 0.576127 0.81736 
0.000156466 0.677932 0.735124 
2.21543e-05 0.785125 0.619337 
-6.426e-05 0.881018 0.473082 
-6.99888e-05 0.957947 0.286944 
-6.95736e-05 0.998704 0.0509006 
0.00011638 0.964991 -0.262284 
9.15438e-05 0.858117 -0.513455 
-0.000113261 0.75085 -0.660473 
-0.00014536 0.663271 -0.748379 
-0.000297855 0.578277 -0.815841 
-0.000430548 0.498483 -0.866899 
-0.000551651 0.421853 -0.906664 
-0.000763778 0.354787 -0.934947 
-0.00106494 0.294575 -0.955628 
-0.00117835 0.240044 -0.970761 
-0.00123431 0.195199 -0.980762 
-0.00133809 0.158503 -0.987357 
-0.00149469 0.126635 -0.991948 
-0.00158658 0.0988607 -0.995099 
-0.00150544 0.0767712 -0.997047 
-0.00145453 0.062103 -0.998068 
-0.0016263 0.0481899 -0.998836 
-0.00172451 0.0352078 -0.999378 
-0.00175811 0.0250887 -0.999683 
-0.00174797 0.0169478 -0.999854 
-0.00174338 0.0103503 -0.999944 
-0.00171055 0.00383444 -0.99999 
-0.00166431 -0.00119824 -0.999997 
-0.00182988 -0.00506589 -0.999985 
-0.00180784 -0.00856844 -0.999961 
-0.00172192 -0.0121449 -0.999924 
-0.00172871 -0.0159493 -0.99987 
-0.00173439 -0.0204152 -0.999789 
-0.00178512 -0.0257991 -0.999665 
-0.00172175 -0.0328211 -0.999459 
-0.00162039 -0.0405984 -0.999174 
-0.00164317 -0.0483397 -0.998829 
-0.00162035 -0.05346 -0.998568 
-0.0017817 -0.0512427 -0.998684 
-0.00172571 -0.0336799 -0.99943 
-0.00157753 -0.0249854 -0.999686 
-0.00186104 -0.0354962 -0.999367 
-0.00235295 -0.0334099 -0.999438 
-0.000133513 0.000417852 -1 
-0.00446128 -0.00316765 0.999985 
0.0205831 -0.0363852 0.999126 
0.0257745 -0.0374469 0.998966 
0.0274307 -0.0333634 0.999067 
0.0241797 -0.0338155 0.999136 
0.0237502 -0.043082 0.998789 
0.0239938 -0.0420235 0.998829 
0.0233828 -0.0394325 0.998949 
0.0237041 -0.0345442 0.999122 
0.0244836 -0.0297558 0.999257 
0.0241229 -0.0252856 0.999389 
0.0246307 -0.021413 0.999467 
0.0242192 -0.0175378 0.999553 
0.0248616 -0.0136448 0.999598 
0.0247937 -0.00959481 0.999647 
0.0247263 -0.00533901 0.99968 
0.0242608 -0.000166827 0.999706 
0.0239958 0.00569602 0.999696 
0.0223962 0.0127096 0.999668 
0.0231695 0.0199505 0.999533 
0.022476 0.0280658 0.999353 
0.0207344 0.0381615 0.999056 
0.019166 0.0505887 0.998536 
0.016595 0.0664828 0.99765 
0.0127847 0.0866664 0.996155 
0.00816305 0.111809 0.993696 
0.00198383 0.143076 0.98971 
-0.0038333 0.179236 0.983799 
-0.00820583 0.221436 0.975141 
-0.0149525 0.273772 0.961678 
-0.0147084 0.333957 0.942474 
-0.0294321 0.40493 0.913874 
-0.0271206 0.471781 0.881299 
-0.0266348 0.554596 0.831694 
-0.0211206 0.645814 0.763202 
-0.0470157 0.695587 0.716902 
-0.018619 0.754068 0.656532 
-0.014069 0.861545 0.507486 
-0.0088298 0.956493 0.291621 
-0.00173515 0.999757 0.0219875 
0.00477659 0.968811 -0.247754 
0.0123163 0.844411 -0.535554 
0.0192541 0.706155 -0.707796 
0.0453795 0.658653 -0.751077 
0.0290426 0.582296 -0.812458 
0.061451 0.545782 -0.835671 
0.029582 0.487022 -0.872888 
0.0263589 0.405133 -0.913878 
0.0180608 0.328265 -0.944413 
0.0126226 0.261609 -0.965091 
0.00661615 0.208451 -0.978011 
0.000424944 0.163642 -0.98652 
-0.00684927 0.125938 -0.992015 
-0.011658 0.0961226 -0.995301 
-0.0140877 0.0763178 -0.996984 
-0.0174778 0.0589593 -0.998107 
-0.0199965 0.0439303 -0.998834 
-0.0215948 0.0316205 -0.999267 
-0.0228235 0.0218188 -0.999501 
-0.0239671 0.0140068 -0.999615 
-0.0239895 0.00737924 -0.999685 
-0.0248189 0.0018519 -0.99969 
-0.0248685 -0.00267272 -0.999687 
-0.0245109 -0.00663373 -0.999678 
-0.0250847 -0.0102187 -0.999633 
-0.0243088 -0.0138765 -0.999608 
-0.0243701 -0.0179395 -0.999542 
-0.0240493 -0.0228046 -0.999451 
-0.0239345 -0.0287147 -0.999301 
-0.0243083 -0.0355859 -0.999071 
-0.0240188 -0.0424843 -0.998808 
-0.0237042 -0.0477207 -0.998579 
-0.0232984 -0.0482873 -0.998562 
-0.0231735 -0.0424045 -0.998832 
-0.0254281 -0.0343183 -0.999087 
-0.0242059 -0.0300312 -0.999256 
-0.0241287 -0.0342214 -0.999123 
-0.0181438 -0.031261 -0.999347 
0.00411317 -0.00453618 -0.999981 
-0.00290273 -0.00327421 0.999991 
0.0198784 -0.0368661 0.999122 
0.0234837 -0.0377931 0.99901 
0.0257214 -0.0334096 0.999111 
0.0224654 -0.0332861 0.999193 
0.028261 -0.0356296 0.998965 
0.023987 -0.0386326 0.998966 
0.0206858 -0.0400078 0.998985 
0.021054 -0.0377463 0.999066 
0.0206261 -0.0332509 0.999234 
0.0223275 -0.0275728 0.99937 
0.0225958 -0.023385 0.999471 
0.0228532 -0.0188493 0.999561 
0.0237569 -0.0148148 0.999608 
0.0246051 -0.0106253 0.999641 
0.0245611 -0.00658725 0.999677 
0.0244369 -0.00184033 0.9997 
0.0234993 0.00353106 0.999718 
0.0237489 0.00982231 0.99967 
0.0222904 0.0165595 0.999614 
0.0200027 0.0248387 0.999491 
0.0182395 0.0347018 0.999231 
0.0157182 0.0459875 0.998818 
0.0125525 0.0612117 0.998046 
0.00730331 0.0801038 0.99676 
-0.000414179 0.10583 0.994384 
-0.00904251 0.134343 0.990894 
-0.0196497 0.169437 0.985345 
-0.0290281 0.208286 0.977637 
-0.0363403 0.252811 0.966833 
-0.0446605 0.315064 0.948019 
-0.0553134 0.372861 0.926237 
-0.0743766 0.450211 0.889819 
-0.0650126 0.515869 0.854197 
-0.0587356 0.600461 0.797494 
-0.0724201 0.744493 0.663691 
-0.037699 0.798996 0.600154 
-0.0232247 0.902793 0.429447 
-0.0107682 0.981851 0.189345 
0.00136361 0.996916 -0.0784681 
0.0122833 0.939587 -0.34209 
0.0275712 0.879617 -0.474883 
0.0301906 0.784274 -0.61968 
0.0522706 0.759634 -0.648247 
0.0762096 0.640541 -0.764133 
0.0985155 0.538817 -0.836642 
0.0691051 0.46266 -0.883838 
0.06039 0.39106 -0.918382 
0.0459492 0.321526 -0.945785 
0.0387504 0.264469 -0.963615 
0.0281143 0.214092 -0.976409 
0.018377 0.171488 -0.985015 
0.00537648 0.133207 -0.991074 
-0.00103001 0.104606 -0.994514 
-0.00522554 0.0816798 -0.996645 
-0.0117334 0.0612305 -0.998055 
-0.0166076 0.0461023 -0.998799 
-0.0187704 0.034093 -0.999242 
-0.0213432 0.0236767 -0.999492 
-0.0222196 0.0155412 -0.999632 
-0.0234661 0.00850212 -0.999689 
-0.0232513 0.00299522 -0.999725 
-0.0240166 -0.00180148 -0.99971 
-0.0251455 -0.00582732 -0.999667 
-0.024389 -0.0095257 -0.999657 
-0.0244774 -0.0132504 -0.999613 
-0.0240581 -0.0170425 -0.999565 
-0.0238686 -0.0217956 -0.999478 
-0.0238362 -0.0275428 -0.999336 
-0.0226625 -0.0341477 -0.99916 
-0.0221505 -0.0408196 -0.998921 
-0.0220632 -0.0450344 -0.998742 
-0.0214229 -0.0447632 -0.998768 
-0.0225316 -0.0407955 -0.998914 
-0.0198967 -0.0353833 -0.999176 
-0.0228508 -0.0332283 -0.999187 
-0.0203289 -0.0351459 -0.999176 
-0.0155997 -0.0327056 -0.999343 
0.00256695 -0.00537045 -0.999982 
-0.0011027 -0.0032658 0.999998 
0.0117154 -0.0355278 0.9993 
0.0127459 -0.0402778 0.999107 
0.0201967 -0.0370018 0.999111 
0.0173215 -0.0325174 0.999321 
0.0186787 -0.0358213 0.999184 
0.0145824 -0.0380246 0.99917 
0.0155285 -0.0405925 0.999055 
0.0149055 -0.0379858 0.999167 
0.0178507 -0.0306191 0.999372 
0.0165206 -0.0252029 0.999546 
0.0176414 -0.0207641 0.999629 
0.0184408 -0.0165368 0.999693 
0.0199942 -0.0124377 0.999723 
0.0194811 -0.00840009 0.999775 
0.0196338 -0.00395725 0.999799 
0.0191724 0.000994708 0.999816 
0.0189052 0.00693805 0.999797 
0.0178173 0.0129451 0.999758 
0.0154952 0.0202263 0.999675 
0.0122765 0.0303795 0.999463 
0.00883541 0.0416801 0.999092 
0.00577237 0.0559084 0.998419 
-6.77372e-05 0.0745003 0.997221 
-0.00772082 0.0986246 0.995095 
-0.0204232 0.12967 0.991347 
-0.0325007 0.162636 0.986151 
-0.0477434 0.202464 0.978125 
-0.0608751 0.244976 0.967616 
-0.0690173 0.293122 0.953581 
-0.0921906 0.351551 0.931618 
-0.102834 0.409535 0.90648 
-0.124395 0.48251 0.867012 
-0.108891 0.551528 0.827019 
-0.0880421 0.643508 0.760359 
-0.12743 0.667955 0.73321 
-0.0550121 0.842084 0.536533 
-0.0353172 0.911225 0.410391 
-0.0154096 0.982685 0.184643 
0.00120952 0.99816 -0.0606222 
0.0158318 0.96111 -0.275711 
0.0350464 0.924383 -0.379851 
0.0486654 0.854133 -0.517772 
0.0786812 0.750708 -0.655932 
0.1088 0.644187 -0.75709 
0.136281 0.554174 -0.821169 
0.11176 0.462575 -0.879508 
0.105558 0.405679 -0.9079 
0.0823187 0.342936 -0.935745 
0.0712634 0.287943 -0.954993 
0.056306 0.236593 -0.969976 
0.0419147 0.190372 -0.980817 
0.0241702 0.147051 -0.988834 
0.0129091 0.114478 -0.993342 
0.0062082 0.0905365 -0.995874 
-0.00197692 0.0672175 -0.997736 
-0.00794154 0.0489084 -0.998772 
-0.0122865 0.0348183 -0.999318 
-0.01538 0.0240775 -0.999592 
-0.0166661 0.0155253 -0.999741 
-0.0178232 0.00890555 -0.999802 
-0.017991 0.00319206 -0.999833 
-0.018848 -0.0017196 -0.999821 
-0.0198088 -0.00598651 -0.999786 
-0.0194884 -0.00999855 -0.99976 
-0.019344 -0.0136231 -0.99972 
-0.0192762 -0.0177347 -0.999657 
-0.0186353 -0.02229 -0.999578 
-0.018265 -0.0276447 -0.999451 
-0.0170364 -0.0344998 -0.99926 
-0.015712 -0.0402459 -0.999066 
-0.0156303 -0.0439789 -0.99891 
-0.0151574 -0.0433353 -0.998946 
-0.0148187 -0.0380807 -0.999165 
-0.0113386 -0.0324565 -0.999409 
-0.014354 -0.0340102 -0.999318 
-0.0145727 -0.0366688 -0.999221 
-0.0111399 -0.0348721 -0.99933 
0.00109982 -0.0031846 -0.999993 
-0.00176666 -0.0034841 0.999996 
0.00544339 -0.0305157 0.999519 
0.0114252 -0.0375983 0.999228 
0.0108139 -0.0323514 0.999418 
0.00914272 -0.0278428 0.999571 
0.013364 -0.0298504 0.999465 
0.0109277 -0.0330111 0.999395 
0.0127027 -0.0413208 0.999065 
0.0132409 -0.040633 0.999086 
0.0140657 -0.035129 0.999284 
0.015596 -0.0292292 0.999451 
0.017025 -0.0237745 0.999573 
0.0167824 -0.0194346 0.99967 
0.0172631 -0.0148478 0.999741 
0.0175516 -0.010893 0.999787 
0.0173311 -0.00639096 0.999829 
0.0167703 -0.00171496 0.999858 
0.0162863 0.00373779 0.99986 
0.0156493 0.00943849 0.999833 
0.0144984 0.0158377 0.99977 
0.0117489 0.024728 0.999625 
0.00828824 0.0361124 0.999313 
0.00361364 0.0503788 0.998724 
-0.0019441 0.0675442 0.997714 
-0.0105703 0.0913221 0.995765 
-0.0222605 0.11994 0.992532 
-0.0391497 0.157681 0.986714 
-0.0560515 0.195425 0.979116 
-0.0768786 0.2407 0.96755 
-0.0947852 0.284549 0.953964 
-0.113583 0.329998 0.937124 
-0.141884 0.392718 0.908648 
-0.155073 0.444587 0.88221 
-0.167437 0.524691 0.834664 
-0.145098 0.592703 0.792244 
-0.104419 0.747742 0.655727 
-0.081172 0.836816 0.541433 
-0.0557961 0.914078 0.401681 
-0.0318876 0.960732 0.275638 
-0.0101852 0.997833 0.0649921 
0.0196226 0.97668 -0.213801 
0.0509777 0.92164 -0.384682 
0.0761203 0.830147 -0.552324 
0.118079 0.721774 -0.681983 
0.154788 0.620962 -0.768405 
0.164514 0.518536 -0.83908 
0.164122 0.469934 -0.86731 
0.151645 0.418503 -0.895466 
0.120883 0.36226 -0.924205 
0.1072 0.31554 -0.942838 
0.0859027 0.265219 -0.960354 
0.0665942 0.218634 -0.973532 
0.0446821 0.171955 -0.984091 
0.0284502 0.135797 -0.990328 
0.0172274 0.108545 -0.993942 
0.00612576 0.0801248 -0.996766 
-0.00132218 0.0586294 -0.998279 
-0.00680451 0.0421981 -0.999086 
-0.0108531 0.0294802 -0.999507 
-0.0134338 0.0200816 -0.999708 
-0.015384 0.0125667 -0.999803 
-0.0164747 0.00660858 -0.999843 
-0.017649 0.00111299 -0.999844 
-0.0180525 -0.00385834 -0.99983 
-0.0179767 -0.00798918 -0.999807 
-0.0179258 -0.0119658 -0.999768 
-0.0172638 -0.0160341 -0.999722 
-0.0168926 -0.0204307 -0.999649 
-0.0160308 -0.0255628 -0.999545 
-0.0152946 -0.0316424 -0.999382 
-0.0150657 -0.0379704 -0.999165 
-0.014252 -0.0431121 -0.998969 
-0.0129831 -0.0435562 -0.998967 
-0.0110948 -0.0376144 -0.999231 
-0.00858026 -0.0300252 -0.999512 
-0.00788616 -0.0318667 -0.999461 
-0.010756 -0.0373576 -0.999244 
-0.00973628 -0.0372259 -0.999259 
0.00138348 -0.0025785 -0.999995 
-0.00221148 -0.00265747 0.999994 
0.00865153 -0.0329371 0.99942 
0.00882283 -0.0402126 0.999152 
0.0104464 -0.0330718 0.999398 
0.010944 -0.0272614 0.999568 
0.0128732 -0.0306439 0.999448 
0.0144528 -0.0397931 0.999103 
0.0188513 -0.0419912 0.99894 
0.0178641 -0.0374803 0.999138 
0.020121 -0.0316167 0.999298 
0.0230051 -0.0256593 0.999406 
0.0237139 -0.019535 0.999528 
0.022163 -0.0153717 0.999636 
0.0229769 -0.0108376 0.999677 
0.0223598 -0.00656269 0.999729 
0.021727 -0.00167809 0.999763 
0.0205422 0.00341174 0.999783 
0.0208615 0.0091996 0.99974 
0.0201799 0.0155839 0.999675 
0.0167481 0.0231033 0.999593 
0.0140725 0.0337714 0.999331 
0.0094008 0.0490048 0.998754 
0.00314753 0.0678215 0.997693 
-0.00657448 0.0902186 0.9959 
-0.0197421 0.120735 0.992489 
-0.0365074 0.155838 0.987108 
-0.0583176 0.20146 0.977759 
-0.0813178 0.244834 0.966149 
-0.109929 0.294822 0.949208 
-0.138467 0.341825 0.929507 
-0.160694 0.384951 0.90884 
-0.19881 0.447177 0.872071 
-0.197286 0.489715 0.849269 
-0.236725 0.545735 0.803825 
-0.207244 0.578498 0.788917 
-0.17147 0.689792 0.703409 
-0.136583 0.770417 0.622739 
-0.101604 0.858078 0.503367 
-0.0270571 0.983344 0.179725 
0.00376278 0.99866 -0.0516032 
0.027002 0.979804 -0.198127 
0.0822145 0.878818 -0.47002 
0.123535 0.785973 -0.605793 
0.171154 0.681195 -0.711814 
0.201273 0.575877 -0.792373 
0.226644 0.53589 -0.813299 
0.212953 0.486096 -0.847562 
0.193671 0.439601 -0.877065 
0.156108 0.381852 -0.910944 
0.130771 0.331746 -0.934261 
0.103567 0.282461 -0.953672 
0.0759776 0.232068 -0.969728 
0.052249 0.187923 -0.980793 
0.0326628 0.149113 -0.988281 
0.0141756 0.110902 -0.99373 
0.0022033 0.0821437 -0.996618 
-0.00572149 0.0596499 -0.998203 
-0.0110969 0.0422842 -0.999044 
-0.0154497 0.0298227 -0.999436 
-0.0187041 0.020419 -0.999617 
-0.0216498 0.0133519 -0.999677 
-0.0226079 0.00690544 -0.999721 
-0.0236111 0.00121609 -0.999721 
-0.0242356 -0.00363652 -0.9997 
-0.0236361 -0.00808423 -0.999688 
-0.0233156 -0.0124962 -0.99965 
-0.0225822 -0.0166214 -0.999607 
-0.0225078 -0.0211362 -0.999523 
-0.0210412 -0.0266583 -0.999423 
-0.0203613 -0.0326047 -0.999261 
-0.0210092 -0.0392405 -0.999009 
-0.0200907 -0.0434665 -0.998853 
-0.0175059 -0.0420327 -0.998963 
-0.01455 -0.0347613 -0.99929 
-0.0122458 -0.0279221 -0.999535 
-0.00954782 -0.0311767 -0.999468 
-0.0112375 -0.0367694 -0.999261 
-0.00960971 -0.0360547 -0.999304 
0.0021212 -0.00350088 -0.999991 
-0.00191578 -0.0018098 0.999996 
0.00973058 -0.0335466 0.99939 
0.0106521 -0.0372955 0.999248 
0.0137534 -0.0306927 0.999434 
0.0147334 -0.0255248 0.999566 
0.0195001 -0.0332252 0.999258 
0.0202082 -0.0400705 0.998993 
0.0245905 -0.0428621 0.998778 
0.0246671 -0.0385339 0.998953 
0.0269405 -0.0323374 0.999114 
0.0291357 -0.0273234 0.999202 
0.0289248 -0.0214168 0.999352 
0.0289625 -0.0153957 0.999462 
0.0289329 -0.0111195 0.99952 
0.0288116 -0.00635812 0.999565 
0.0280247 -0.00162281 0.999606 
0.0271332 0.00368935 0.999625 
0.0267696 0.00949971 0.999597 
0.0256668 0.0161684 0.99954 
0.0229193 0.0238673 0.999452 
0.020039 0.0341945 0.999214 
0.01533 0.0489677 0.998683 
0.00864959 0.0708498 0.99745 
-0.00174264 0.0965481 0.995327 
-0.0153304 0.127491 0.991721 
-0.0335746 0.166497 0.98547 
-0.0544605 0.208197 0.97657 
-0.0835619 0.26265 0.961266 
-0.116219 0.313819 0.942343 
-0.158201 0.376147 0.912954 
-0.18921 0.414379 0.890219 
-0.222476 0.458835 0.860218 
-0.246356 0.508639 0.824982 
-0.29393 0.570783 0.766689 
-0.276831 0.608289 0.743874 
-0.204155 0.632015 0.747581 
-0.179553 0.770162 0.612055 
-0.130448 0.862909 0.488233 
-0.0587621 0.936171 0.346599 
-0.0169527 0.995277 0.0955821 
0.0484711 0.957248 -0.285177 
0.129863 0.839132 -0.528199 
0.186197 0.730968 -0.656519 
0.227975 0.624231 -0.747237 
0.276351 0.590542 -0.758215 
0.278538 0.547604 -0.789016 
0.253117 0.503819 -0.825892 
0.224542 0.462425 -0.857755 
0.180342 0.404048 -0.896784 
0.150563 0.363584 -0.919314 
0.117488 0.313547 -0.942276 
0.0864579 0.263901 -0.960667 
0.059665 0.219457 -0.973796 
0.0371958 0.175384 -0.983797 
0.0177705 0.132791 -0.990985 
0.000935138 0.0959043 -0.99539 
-0.00904039 0.0688007 -0.99759 
-0.0153405 0.0485509 -0.998703 
-0.0201329 0.0343175 -0.999208 
-0.0236923 0.0239033 -0.999434 
-0.0265928 0.0157678 -0.999522 
-0.028014 0.0087442 -0.999569 
-0.0291551 0.00296203 -0.999571 
-0.0298978 -0.00232503 -0.99955 
-0.0298611 -0.00709995 -0.999529 
-0.0294149 -0.011424 -0.999502 
-0.0291092 -0.0159077 -0.99945 
-0.0292245 -0.0204692 -0.999363 
-0.0278778 -0.0257246 -0.99928 
-0.0271418 -0.0317501 -0.999127 
-0.0266476 -0.0379575 -0.998924 
-0.0256764 -0.0430635 -0.998742 
-0.0235429 -0.0418722 -0.998846 
-0.0205152 -0.0336129 -0.999224 
-0.017425 -0.026668 -0.999493 
-0.0142586 -0.0308661 -0.999422 
-0.0136683 -0.0363363 -0.999246 
-0.0107197 -0.0348261 -0.999336 
0.00250682 -0.00366018 -0.999989 
-0.0013214 -0.000868926 0.999999 
0.00917161 -0.0335961 0.999393 
0.01276 -0.0360496 0.999269 
0.014593 -0.0292951 0.999464 
0.0161284 -0.0249116 0.99956 
0.0206431 -0.0339459 0.999211 
0.0241193 -0.042897 0.998788 
0.0269703 -0.0420561 0.998751 
0.0281631 -0.0369156 0.998922 
0.0281438 -0.031659 0.999103 
0.0293651 -0.0250445 0.999255 
0.0304212 -0.0195021 0.999347 
0.0302817 -0.0146179 0.999435 
0.030374 -0.0102296 0.999486 
0.0301253 -0.00574486 0.99953 
0.0294166 -0.000713937 0.999567 
0.0288476 0.00442763 0.999574 
0.0276637 0.0104081 0.999563 
0.0258096 0.0172413 0.999518 
0.0241269 0.0252436 0.99939 
0.0211194 0.0362688 0.999119 
0.0169959 0.05146 0.99853 
0.0101751 0.0739156 0.997213 
-0.00056995 0.104992 0.994473 
-0.0150418 0.141722 0.989792 
-0.0335097 0.184063 0.982343 
-0.0569305 0.234199 0.97052 
-0.0836568 0.282158 0.955714 
-0.125299 0.349418 0.928551 
-0.169379 0.417395 0.8928 
-0.214736 0.46573 0.858478 
-0.260374 0.513873 0.817398 
-0.270422 0.515173 0.813307 
-0.314498 0.565013 0.762792 
-0.366926 0.622054 0.691675 
-0.33845 0.629461 0.69945 
-0.244465 0.669468 0.701463 
-0.246693 0.726861 0.640949 
-0.0567624 0.945475 0.320709 
0.00394376 0.999127 -0.0415761 
0.0790297 0.914674 -0.396391 
0.218389 0.748137 -0.626575 
0.265514 0.659502 -0.703249 
0.329818 0.636773 -0.696951 
0.335125 0.601469 -0.725208 
0.322312 0.569989 -0.755796 
0.285249 0.534952 -0.795273 
0.248783 0.50569 -0.826066 
0.198658 0.44024 -0.875628 
0.160015 0.400126 -0.902383 
0.120496 0.341264 -0.932212 
0.0861268 0.287079 -0.954027 
0.0584794 0.240867 -0.968795 
0.0332642 0.184991 -0.982177 
0.0125449 0.134623 -0.990817 
-0.00178609 0.098911 -0.995095 
-0.0111601 0.0707221 -0.997434 
-0.017224 0.050256 -0.998588 
-0.0214456 0.0356366 -0.999135 
-0.0246269 0.0248772 -0.999387 
-0.0270429 0.0161968 -0.999503 
-0.0284914 0.00946772 -0.999549 
-0.0295673 0.00346192 -0.999557 
-0.030024 -0.001798 -0.999548 
-0.0305208 -0.00678615 -0.999511 
-0.0308234 -0.0115361 -0.999458 
-0.0305021 -0.0158767 -0.999409 
-0.0300967 -0.0208851 -0.999329 
-0.0296285 -0.0264477 -0.999211 
-0.0285481 -0.0323294 -0.99907 
-0.0276834 -0.0392608 -0.998845 
-0.0261569 -0.0437095 -0.998702 
-0.0247597 -0.0414411 -0.998834 
-0.0225979 -0.0324139 -0.999219 
-0.0196534 -0.0263435 -0.99946 
-0.0170385 -0.0296067 -0.999416 
-0.0152533 -0.0346223 -0.999284 
-0.0122951 -0.0341566 -0.999341 
0.00242449 -0.00269477 -0.999993 
-0.000952645 -0.000389864 1 
0.00650322 -0.0316304 0.999478 
0.0130285 -0.0340224 0.999336 
0.0134101 -0.0272218 0.99954 
0.016453 -0.0258263 0.999531 
0.0174738 -0.032892 0.999306 
0.0219114 -0.0424963 0.998856 
0.0241098 -0.0441792 0.998733 
0.024854 -0.0390355 0.998929 
0.0241919 -0.0321236 0.999191 
0.0254317 -0.0251236 0.999361 
0.0270461 -0.0192259 0.999449 