# vtk DataFile Version 3.0 
Exported using Morpho https://github.com/Morpho-lang/morpho 
ASCII 
DATASET UNSTRUCTURED_GRID 

POINTS 1978 float 
-8.48528 -2.82843 -2.91675e-13 
-8.22963 -2.82843 9.19222e-13 
-8.00895 -2.82843 4.52392e-12 
-7.69521 -2.82843 4.22269e-12 
-7.2555 -2.82843 1.11611e-12 
-7.04238 -2.82843 -2.08323e-13 
-6.84018 -2.82843 -6.75433e-16 
-6.66071 -2.82843 7.48964e-13 
-6.46365 -2.82843 1.623e-12 
-6.26963 -2.82843 1.98386e-12 
-6.07045 -2.82843 2.01427e-12 
-5.82455 -2.82843 1.46098e-12 
-5.5901 -2.82843 3.97402e-13 
-5.4059 -2.82843 -1.02527e-13 
-5.21618 -2.82843 -2.77911e-13 
-5.03534 -2.82843 -3.2624e-13 
-4.81941 -2.82843 -1.06262e-13 
-4.61177 -2.82843 -6.78496e-15 
-4.40416 -2.82843 -7.09448e-14 
-4.18711 -2.82843 -1.83982e-13 
-3.9721 -2.82843 -1.85429e-13 
-3.76692 -2.82843 5.58031e-16 
-3.55983 -2.82843 6.47683e-13 
-3.34848 -2.82843 2.30644e-12 
-3.12894 -2.82843 5.49838e-12 
-2.91135 -2.82843 1.01207e-11 
-2.70807 -2.82843 1.66161e-11 
-2.50373 -2.82843 2.7513e-11 
-2.2727 -2.82843 3.97643e-11 
-2.0549 -2.82843 7.95143e-11 
-1.74798 -2.82843 8.65416e-11 
-1.6127 -2.82843 6.44024e-11 
-1.46537 -2.82843 1.48348e-10 
-1.11979 -2.82843 1.2423e-10 
-1.01169 -2.82843 1.10825e-10 
-0.703439 -2.82843 9.0314e-11 
-0.584189 -2.82843 2.24801e-11 
-0.340093 -2.82843 1.58483e-11 
-0.246276 -2.82843 -3.51849e-12 
-0.0126697 -2.82843 3.84208e-12 
0.138258 -2.82843 -1.33999e-11 
0.489615 -2.82843 -1.34706e-11 
0.651962 -2.82843 -1.8662e-11 
0.740553 -2.82843 -4.48329e-11 
0.959912 -2.82843 -7.72982e-11 
1.11295 -2.82843 -1.00572e-10 
1.37209 -2.82843 -1.01984e-10 
1.51523 -2.82843 -8.1361e-11 
1.73354 -2.82843 -9.40073e-11 
2.00709 -2.82843 -6.97962e-11 
2.23126 -2.82843 -4.87425e-11 
2.53442 -2.82843 -3.1623e-11 
2.7428 -2.82843 -1.58844e-11 
2.97615 -2.82843 -9.93372e-12 
3.16185 -2.82843 -4.78857e-12 
3.37606 -2.82843 -2.44326e-12 
3.57085 -2.82843 -7.4941e-13 
3.76906 -2.82843 4.34298e-14 
3.99323 -2.82843 2.50813e-13 
4.21704 -2.82843 2.09079e-13 
4.42352 -2.82843 1.48539e-13 
4.64229 -2.82843 1.19677e-13 
4.85722 -2.82843 7.78199e-14 
5.06368 -2.82843 4.12846e-14 
5.27983 -2.82843 4.60513e-16 
5.47721 -2.82843 -1.27974e-13 
5.66871 -2.82843 -4.26018e-13 
5.89497 -2.82843 -7.40207e-13 
6.09744 -2.82843 -1.01237e-12 
6.29572 -2.82843 -1.4514e-12 
6.55274 -2.82843 -1.12727e-12 
6.71823 -2.82843 -6.54989e-13 
6.89177 -2.82843 -6.45075e-13 
7.13174 -2.82843 -9.05753e-13 
7.39325 -2.82843 -1.7403e-12 
7.68482 -2.82843 -3.30655e-12 
7.95368 -2.82843 -4.96392e-12 
8.24351 -2.82843 -2.17113e-12 
8.48528 -2.82843 2.10979e-13 
-8.48528 -2.56843 2.49622e-13 
-8.19796 -2.55526 1.97867e-12 
-7.92395 -2.63199 -1.82898e-12 
-7.90759 -2.402 -2.9865e-12 
-7.5882 -2.69254 -8.51746e-13 
-7.13644 -2.56292 -6.11378e-13 
-6.93133 -2.58301 -6.49573e-13 
-6.7285 -2.5763 -6.1038e-13 
-6.50669 -2.58795 -1.63447e-12 
-6.35892 -2.3915 2.89479e-13 
-6.25982 -2.58809 -7.43306e-13 
-5.98369 -2.63823 -3.80373e-13 
-5.7095 -2.62152 -3.71756e-13 
-5.48323 -2.56693 -4.32149e-13 
-5.26922 -2.57653 -9.47006e-14 
-5.05783 -2.55246 3.28722e-14 
-4.84975 -2.58556 4.8648e-14 
-4.61885 -2.57508 1.66236e-13 
-4.39306 -2.5811 3.24081e-13 
-4.16838 -2.58686 4.57668e-13 
-3.95588 -2.5783 6.14605e-13 
-3.74432 -2.58011 9.04425e-13 
-3.53202 -2.58316 8.80502e-13 
-3.3137 -2.59426 1.02173e-12 
-3.09557 -2.60121 9.69128e-13 
-2.89109 -2.59845 4.54274e-13 
-2.68962 -2.61699 -1.5042e-13 
-2.47996 -2.65417 -1.06227e-12 
-2.26905 -2.66399 1.44923e-12 
-2.06808 -2.67572 -5.04151e-12 
-1.89128 -2.74065 -1.14301e-11 
-1.59292 -2.67782 -2.42488e-12 
-1.24747 -2.77191 5.87097e-12 
-1.10451 -2.68607 5.75881e-11 
-0.913502 -2.78083 6.06291e-12 
-0.68323 -2.72775 -7.93992e-12 
-0.468367 -2.77734 8.35334e-12 
-0.368312 -2.72034 -7.51774e-12 
-0.156359 -2.7792 -3.1313e-12 
0.0183094 -2.74607 6.07063e-13 
0.127537 -2.72814 6.35498e-12 
0.354795 -2.79264 -2.86142e-12 
0.577045 -2.74832 -1.77451e-11 
0.814412 -2.76712 -3.18381e-11 
0.975945 -2.73399 7.39141e-12 
1.25438 -2.76249 -8.30677e-12 
1.42696 -2.69614 -7.98545e-13 
1.60474 -2.72901 9.16859e-13 
1.84723 -2.73064 1.36824e-11 
2.07626 -2.68009 -6.57643e-12 
2.36692 -2.70459 7.39647e-13 
2.59767 -2.62533 -7.9131e-13 
2.82232 -2.64002 -2.06319e-12 
3.02678 -2.58581 7.54632e-13 
3.23804 -2.6089 -9.49651e-13 
3.44796 -2.58317 -6.11066e-13 
3.64806 -2.57316 -1.25779e-12 
3.85895 -2.59281 -8.25722e-13 
4.08633 -2.58744 -5.66977e-13 
4.30467 -2.5673 -4.70987e-13 
4.52284 -2.58164 -2.42968e-13 
4.74369 -2.57787 -1.15461e-13 
4.95883 -2.57455 -3.29883e-14 
5.17338 -2.59583 6.06891e-14 
5.38819 -2.57947 1.97128e-13 
5.5889 -2.56597 3.60745e-13 
5.79821 -2.59907 3.82863e-13 
6.02165 -2.56661 3.91706e-13 
6.2249 -2.56653 6.53293e-13 
6.44796 -2.62864 6.34379e-13 
6.66076 -2.51804 7.91171e-13 
6.83792 -2.52811 7.67583e-13 
7.03002 -2.61793 5.59504e-13 
7.30794 -2.6165 9.60044e-13 
7.57352 -2.62522 1.01797e-12 
7.82507 -2.56201 1.83918e-12 
8.03521 -2.60783 1.75889e-12 
8.26378 -2.59496 -6.13456e-13 
8.48528 -2.60098 -2.12813e-14 
-8.48528 -2.3075 -1.38263e-13 
-8.23475 -2.34499 1.07434e-12 
-8.0118 -2.19226 -2.36497e-12 
-7.66688 -2.48682 -1.07534e-12 
-7.52152 -2.24856 -4.09108e-13 
-7.37252 -2.60352 -8.49217e-13 
-7.12395 -2.31135 -8.67339e-13 
-6.8792 -2.33865 -3.92959e-13 
-6.64293 -2.35726 -4.32549e-13 
-6.45203 -2.19934 -3.94505e-13 
-6.15656 -2.24079 -2.97458e-13 
-6.06407 -2.43428 -6.75374e-13 
-5.81647 -2.42129 -6.19302e-13 
-5.61096 -2.35228 -2.50522e-13 
-5.37772 -2.32989 -4.26617e-14 
-5.16843 -2.31693 -1.05473e-13 
-4.93485 -2.31739 -2.14323e-14 
-4.71712 -2.34504 1.74565e-13 
-4.48202 -2.34003 3.50083e-13 
-4.25506 -2.34367 4.42939e-13 
-4.04564 -2.3326 4.8919e-13 
-3.83883 -2.3331 5.02361e-13 
-3.63362 -2.33656 5.55945e-13 
-3.42372 -2.35306 3.09946e-13 
-3.21414 -2.37168 3.63419e-13 
-3.01335 -2.37956 -1.73226e-12 
-2.80935 -2.39949 -3.03775e-12 
-2.60962 -2.44428 -5.0249e-12 
-2.39927 -2.50245 -4.79014e-12 
-2.17916 -2.52503 -5.86874e-12 
-1.96523 -2.55367 -1.71967e-12 
-1.74097 -2.66358 -7.30582e-12 
-1.41571 -2.71773 -2.46721e-11 
-1.26944 -2.65177 -3.15816e-11 
-0.996794 -2.67099 -5.09786e-11 
-0.824425 -2.73298 -2.39905e-11 
-0.574121 -2.71327 -2.44474e-12 
-0.366608 -2.61033 1.09682e-11 
-0.256859 -2.69929 4.00013e-12 
0.0162181 -2.64343 -7.31981e-12 
0.250466 -2.74926 -8.88244e-12 
0.424808 -2.72136 -8.06184e-12 
0.696807 -2.6727 3.11993e-11 
0.84225 -2.67477 5.40533e-12 
1.10794 -2.71033 -9.8658e-12 
1.27331 -2.65387 1.10858e-11 
1.54247 -2.59964 5.45444e-12 
1.70901 -2.617 -5.9273e-12 
1.91904 -2.59252 4.90708e-12 
2.18046 -2.55977 1.02058e-11 
2.37192 -2.53761 2.66354e-12 
2.55281 -2.44199 6.15108e-12 
2.77091 -2.44524 3.89894e-12 
2.99789 -2.39402 1.67391e-12 
3.21285 -2.38658 2.08012e-13 
3.39716 -2.34729 -6.81933e-13 
3.59399 -2.32899 -5.51501e-13 
3.79471 -2.3384 -7.12394e-13 
3.99545 -2.35532 -6.66621e-13 
4.21162 -2.32658 -4.80312e-13 
4.43372 -2.32371 -3.39352e-13 
4.64616 -2.33093 -1.81642e-13 
4.86393 -2.32692 -3.71894e-14 
5.08344 -2.34178 3.17566e-14 
5.28956 -2.35066 6.655e-14 
5.49779 -2.31787 9.76642e-14 
5.71016 -2.3371 2.00921e-13 
5.91333 -2.34949 2.12932e-13 
6.13372 -2.3025 1.07832e-13 
6.35303 -2.36467 2.46054e-13 
6.54233 -2.33337 2.37629e-13 
6.76565 -2.22697 1.99429e-13 
6.9629 -2.30034 3.25832e-13 
7.15686 -2.42709 5.14343e-13 
7.56169 -2.40455 7.89025e-13 
7.73895 -2.30178 1.79675e-12 
7.9927 -2.31805 2.40786e-12 
8.21318 -2.38312 -9.70416e-15 
8.48528 -2.36649 -1.37207e-13 
-8.48528 -2.05623 1.76999e-14 
-8.25336 -2.09142 5.6055e-13 
-8.09163 -1.92809 1.66283e-16 
-7.73635 -2.1929 -1.21812e-12 
-7.53564 -1.97808 1.74825e-13 
-7.35913 -2.39033 -5.55392e-13 
-7.0836 -2.03873 -6.46533e-13 
-6.87429 -2.10237 -3.19732e-13 
-6.6478 -2.09832 5.95442e-14 
-6.25824 -2.06184 1.71706e-13 
-6.00076 -2.01145 4.87145e-13 
-5.91393 -2.21416 1.3026e-13 
-5.71349 -2.10947 9.53926e-14 
-5.49589 -2.11361 -1.3215e-14 
-5.28212 -2.07271 -3.14196e-14 
-5.05622 -2.0904 -2.00687e-14 
-4.82174 -2.08427 9.20644e-14 
-4.60792 -2.10728 2.30061e-13 
-4.38232 -2.10535 2.62096e-13 
-4.17452 -2.08741 2.64107e-13 
-3.97311 -2.08556 3.41432e-13 
-3.77535 -2.08981 3.35394e-13 
-3.5719 -2.1066 -1.05524e-13 
-3.3722 -2.12854 -6.21316e-13 
-3.18052 -2.15181 -1.16832e-12 
-2.98558 -2.18145 -2.20459e-12 
-2.80482 -2.21346 -5.1405e-12 
-2.6196 -2.25982 -4.60739e-12 
-2.43771 -2.34151 -6.5603e-12 
-2.23542 -2.38668 2.25198e-13 
-2.02416 -2.41951 -9.61854e-12 
-1.83086 -2.54819 -2.55055e-11 
-1.62383 -2.54383 8.97242e-12 
-1.44951 -2.5937 -1.78962e-11 
-1.15822 -2.57249 -4.71986e-12 
-0.901251 -2.61497 -5.56157e-12 
-0.753445 -2.64622 1.71398e-11 
-0.481638 -2.65505 -8.35711e-12 
-0.203978 -2.62851 1.26446e-11 
-0.100444 -2.71483 6.32883e-12 
0.30692 -2.66368 -8.74134e-12 
0.484434 -2.64186 1.54865e-11 
0.674507 -2.54674 -1.42532e-11 
0.960836 -2.61914 -1.66691e-11 
1.12144 -2.60824 6.35939e-12 
1.39096 -2.56701 2.4723e-11 
1.75448 -2.4789 1.44479e-11 
1.90049 -2.43383 7.40524e-13 
2.05473 -2.46381 1.32439e-11 
2.30475 -2.38801 4.00278e-12 
2.46682 -2.28796 2.2515e-12 
2.67179 -2.28036 5.00821e-12 
2.87625 -2.25542 1.12072e-12 
3.0932 -2.18656 1.46209e-12 
3.26394 -2.13685 1.6142e-12 
3.4522 -2.11553 1.1342e-13 
3.64588 -2.09384 1.84336e-14 
3.83713 -2.09072 -1.53023e-13 
4.03909 -2.11259 -4.76472e-13 
4.26301 -2.08686 -3.26639e-13 
4.47894 -2.07096 -2.78741e-13 
4.69969 -2.08504 -1.56945e-13 
4.92921 -2.09329 -2.19395e-14 
5.14625 -2.09611 4.91238e-15 
5.35315 -2.09936 -2.77804e-14 
5.58075 -2.0872 -5.65717e-14 
5.78949 -2.09201 -1.42548e-14 
5.99436 -2.10004 -3.64781e-14 
6.25072 -2.09801 -1.84708e-13 
6.44165 -2.07784 -1.40145e-13 
6.64581 -2.05543 -6.10062e-14 
6.95303 -2.03056 6.07444e-16 
7.17459 -2.16119 6.15275e-13 
7.36684 -2.32895 7.33729e-13 
7.47629 -2.09834 1.35287e-13 
7.73912 -2.0818 1.54109e-14 
8.01754 -2.09522 8.08695e-13 
8.29161 -2.16284 -4.44904e-13 
8.48528 -2.03845 2.3343e-14 
-8.48528 -1.52532 -1.81611e-14 
-8.37332 -1.82994 4.77741e-13 
-7.83301 -1.98075 -3.12044e-13 
[...]
POINT_DATA 1978 
VECTORS vectors float
0.00133362 0.000106217 0.999999 
-0.000595042 -0.0945914 0.995516 
-0.000188545 -0.142732 0.989761 
-0.00109763 -0.0841762 0.99645 
-0.000721637 -0.0130097 0.999915 
3.19685e-05 0.00350861 0.999994 
0.000228995 -0.00367705 0.999993 
0.000172529 -0.029002 0.999579 
0.000154186 -0.057787 0.998329 
0.000168523 -0.0890549 0.996027 
-2.07133e-05 -0.0909326 0.995857 
-0.000240538 -0.0660818 0.997814 
3.773e-05 -0.0197408 0.999805 
0.000271939 0.00286904 0.999996 
0.000189859 0.0132738 0.999912 
0.000134016 0.014537 0.999894 
-3.89069e-05 0.00463389 0.999989 
7.45486e-05 0.000789976 1 
1.77125e-05 0.00381962 0.999993 
-3.77886e-05 0.0117757 0.999931 
3.4464e-05 0.0222799 0.999752 
7.02594e-05 0.0371545 0.99931 
1.81761e-05 0.0584897 0.998288 
4.8252e-07 0.0886516 0.996063 
-3.12744e-05 0.124571 0.992211 
1.51308e-05 0.163623 0.986523 
6.43638e-05 0.201933 0.979399 
-3.45638e-05 0.242172 0.970233 
1.57581e-05 0.286403 0.958109 
-4.6641e-05 0.328527 0.944495 
2.04019e-05 0.385584 0.922673 
-0.000269078 0.404578 0.914503 
1.26299e-05 0.435234 0.900317 
7.31173e-05 0.503436 0.864033 
3.88264e-05 0.527642 0.849467 
-0.00011902 0.654409 0.75614 
0.000228234 0.735149 0.677905 
-0.000346343 0.893331 0.449398 
0.000209892 0.948996 0.315287 
-0.000194543 0.999998 -0.00181579 
0.000157957 0.973489 -0.228734 
-0.000146406 0.791661 -0.610961 
0.00018246 0.704129 -0.710072 
-0.000303601 0.653779 -0.756685 
0.000295881 0.551085 -0.834449 
-0.000206493 0.508624 -0.860989 
0.000183622 0.446736 -0.894666 
-2.78188e-05 0.41934 -0.907829 
5.41071e-05 0.377458 -0.926027 
-2.08529e-05 0.330853 -0.943682 
0.000126126 0.285094 -0.958499 
6.01885e-05 0.228656 -0.973507 
1.52961e-05 0.191489 -0.981495 
1.58682e-07 0.151585 -0.988444 
-0.000118689 0.121384 -0.992606 
2.65377e-05 0.0912222 -0.995831 
-0.000176425 0.0662643 -0.997802 
-2.09082e-05 0.0442648 -0.99902 
0.000113177 0.0258846 -0.999665 
-3.62268e-05 0.0137876 -0.999905 
-3.69417e-05 0.00786999 -0.999969 
6.75629e-05 0.00540651 -0.999985 
-7.15238e-05 0.00357914 -0.999994 
-7.03793e-06 0.0018525 -0.999998 
1.40407e-05 -0.000713571 -1 
-0.000247008 -0.00824459 -0.999966 
-5.09275e-06 -0.0211946 -0.999775 
0.000113648 -0.0385277 -0.999258 
-0.000269554 -0.0556642 -0.99845 
0.000161901 -0.0593562 -0.998237 
0.000136222 -0.0437178 -0.999044 
-0.000837067 -0.036868 -0.99932 
7.81445e-05 -0.0263579 -0.999653 
0.000216797 -0.0277615 -0.999615 
0.000305346 -0.0441863 -0.999023 
0.000390938 -0.0747663 -0.997201 
0.000157859 -0.106472 -0.994316 
0.000714036 -0.0776877 -0.996977 
-0.00141074 -0.00181858 -0.999997 
-0.00218713 -0.000975854 0.999997 
0.00787332 -0.0962254 0.995328 
0.0300729 -0.113022 0.993137 
0.0502216 -0.0762393 0.995824 
0.0223022 -0.0633716 0.997741 
0.0404647 -0.0177088 0.999024 
0.0318114 -0.0114273 0.999429 
0.0326824 -0.0260368 0.999127 
0.035633 -0.049843 0.998121 
0.0318322 -0.0570525 0.997864 
0.0266629 -0.069393 0.997233 
0.0201876 -0.072523 0.997162 
0.0205799 -0.0386424 0.999041 
0.0262482 -0.0126445 0.999575 
0.0264981 0.000884077 0.999648 
0.028038 0.00534825 0.999593 
0.0261934 0.0059945 0.999639 
0.0258742 0.00424875 0.999656 
0.0242219 0.00807698 0.999674 
0.0185302 0.0186068 0.999655 
0.00973303 0.0337178 0.999384 
-0.00169257 0.0525705 0.998616 
-0.0178314 0.0785124 0.996754 
-0.0361983 0.111762 0.993076 
-0.0589996 0.151138 0.98675 
-0.0863823 0.191941 0.977598 
-0.10471 0.228807 0.967824 
-0.109305 0.263487 0.95845 
-0.124947 0.30406 0.944423 
-0.1482 0.342708 0.927679 
-0.11151 0.361901 0.925523 
-0.209759 0.430761 0.877751 
-0.0855174 0.480849 0.872623 
-0.17682 0.503328 0.845811 
-0.0662799 0.562714 0.82399 
-0.101386 0.659202 0.7451 
-0.0236764 0.821961 0.569052 
-0.0409806 0.876352 0.479925 
-0.00471876 0.979162 0.203025 
0.00149986 0.996548 -0.0830017 
0.0110194 0.974122 -0.225753 
0.00646693 0.877001 -0.480445 
0.0416837 0.750152 -0.65995 
0.047252 0.613662 -0.788154 
0.115844 0.547363 -0.828839 
0.0870067 0.475459 -0.875425 
0.187304 0.446201 -0.875112 
0.130334 0.411674 -0.901963 
0.1179 0.363644 -0.924047 
0.131323 0.323046 -0.937228 
0.0891577 0.271034 -0.958432 
0.11212 0.238856 -0.96456 
0.0783643 0.197257 -0.977215 
0.0793782 0.171866 -0.981917 
0.0462086 0.130239 -0.990405 
0.0284912 0.0988998 -0.994689 
0.00956093 0.0708792 -0.997439 
-0.00464646 0.0462888 -0.998917 
-0.0146583 0.0277452 -0.999508 
-0.0231597 0.0157541 -0.999608 
-0.0255694 0.00834062 -0.999638 
-0.0271979 0.00444829 -0.99962 
-0.0275057 0.00143739 -0.999621 
-0.0255427 -0.00168392 -0.999672 
-0.0263961 -0.00733659 -0.999625 
-0.0265203 -0.0163076 -0.999515 
-0.023042 -0.0295722 -0.999297 
-0.0248006 -0.0435021 -0.998745 
-0.0266306 -0.0504612 -0.998371 
-0.02313 -0.048024 -0.998578 
-0.0342767 -0.0409056 -0.998575 
-0.0356497 -0.0355435 -0.998732 
-0.0287625 -0.0311168 -0.999102 
-0.0297425 -0.0350707 -0.998942 
-0.0358165 -0.0596839 -0.997575 
-0.049655 -0.0796754 -0.995583 
-0.0375934 -0.089829 -0.995247 
-0.0177062 -0.0717665 -0.997264 
0.000543237 -0.000479044 -1 
0.0018102 -3.02153e-05 0.999998 
0.0130904 -0.068444 0.997569 
0.0485842 -0.0648852 0.996709 
0.0448336 -0.065108 0.996871 
0.0456057 -0.0417168 0.998088 
0.0341761 -0.0329561 0.998872 
0.0465184 -0.0221569 0.998672 
0.0405684 -0.0247652 0.99887 
0.0391322 -0.0383618 0.998497 
0.0334209 -0.0477213 0.998301 
0.0308878 -0.0559958 0.997953 
0.0315426 -0.0612026 0.997627 
0.0304389 -0.0448892 0.998528 
0.0282315 -0.0263072 0.999255 
0.0260002 -0.0107281 0.999604 
0.0281888 -0.00148155 0.999602 
0.0318468 0.00306306 0.999488 
0.0325808 0.00464851 0.999458 
0.029917 0.00974147 0.999505 
0.0213337 0.0218935 0.999533 
0.00723152 0.0403704 0.999159 
-0.0118816 0.0636972 0.997899 
-0.0362552 0.0921706 0.995083 
-0.066676 0.127371 0.989611 
-0.101926 0.167748 0.980547 
-0.147558 0.214483 0.965517 
-0.188624 0.254982 0.94837 
-0.214659 0.28696 0.933582 
-0.221182 0.313302 0.923537 
-0.254468 0.355573 0.899341 
-0.291949 0.394071 0.871478 
-0.220316 0.402525 0.888501 
-0.183219 0.452551 0.872713 
-0.28541 0.484235 0.827078 
-0.246391 0.5262 0.813882 
-0.126768 0.59215 0.795794 
-0.0863607 0.735353 0.672159 
-0.0708977 0.883428 0.463172 
-0.027791 0.949589 0.312263 
0.00169122 0.999113 -0.0420772 
0.00911064 0.932314 -0.361536 
0.0403733 0.846368 -0.531066 
0.140994 0.656673 -0.740879 
0.165241 0.5894 -0.790761 
0.147451 0.505048 -0.850403 
0.246318 0.470657 -0.847236 
0.314371 0.441526 -0.840372 
0.252835 0.408069 -0.877243 
0.24885 0.379426 -0.891128 
0.239422 0.342949 -0.90833 
0.211051 0.306028 -0.928334 
0.234943 0.296828 -0.925578 
0.184248 0.251821 -0.950073 
0.155583 0.221481 -0.962673 
0.108272 0.175646 -0.978481 
0.0784788 0.144273 -0.986421 
0.0469928 0.108982 -0.992932 
0.017964 0.0752744 -0.997001 
-0.00378966 0.0483597 -0.998823 
-0.0171904 0.0293404 -0.999422 
-0.0265319 0.0153925 -0.999529 
-0.0313328 0.00777767 -0.999479 
-0.0326573 0.003095 -0.999462 
-0.0312776 -0.00158446 -0.999509 
-0.0292615 -0.0068387 -0.999548 
-0.026944 -0.0138749 -0.999541 
-0.027004 -0.0226701 -0.999378 
-0.0270853 -0.0333385 -0.999077 
-0.0269402 -0.0418982 -0.998759 
-0.0306116 -0.046829 -0.998434 
-0.0331424 -0.044325 -0.998467 
-0.0343304 -0.0400474 -0.998608 
-0.0403348 -0.0367738 -0.998509 
-0.0431344 -0.0358445 -0.998426 
-0.0534045 -0.0515424 -0.997242 
-0.06098 -0.0557224 -0.996582 
-0.0610366 -0.0663491 -0.995928 
-0.0309825 -0.0590355 -0.997775 
0.000878395 2.53515e-06 -1 
-5.14208e-05 2.86085e-05 1 
0.0149724 -0.0506716 0.998603 
0.0228748 -0.0503169 0.998471 
0.0470037 -0.0490716 0.997689 
0.0319661 -0.0379853 0.998767 
0.0471931 -0.0340688 0.998305 
0.0341006 -0.0236021 0.99914 
0.0366235 -0.0315697 0.99883 
0.0324187 -0.042131 0.998586 
0.0254111 -0.0507552 0.998388 
0.0173559 -0.0455779 0.99881 
0.0239552 -0.0455174 0.998676 
0.0191711 -0.0309867 0.999336 
0.02002 -0.0182274 0.999633 
0.0219136 -0.00899479 0.999719 
0.0266349 -0.00165686 0.999644 
0.0277945 0.00348157 0.999608 
0.0262403 0.00928258 0.999613 
0.0172717 0.0210823 0.999629 
0.00319982 0.0405104 0.999174 
-0.0159568 0.0663784 0.997667 
-0.0427897 0.0997634 0.994091 
-0.079521 0.141769 0.986701 
-0.121807 0.186806 0.974816 
-0.168613 0.23367 0.957584 
-0.221916 0.282175 0.933344 
-0.269267 0.321523 0.90781 
-0.306639 0.351768 0.884439 
-0.318215 0.365087 0.874901 
-0.333521 0.386258 0.859982 
-0.396828 0.43484 0.808357 
-0.355705 0.431568 0.828989 
-0.368472 0.453613 0.811458 
-0.348704 0.468637 0.811656 
-0.369874 0.502608 0.781395 
-0.294511 0.557761 0.775993 
-0.203645 0.639368 0.741443 
-0.0950664 0.800114 0.592266 
-0.0254192 0.972752 0.23045 
-0.00578941 0.9948 0.101686 
0.0375616 0.90239 -0.42928 
0.102013 0.796468 -0.596013 
0.244335 0.682536 -0.6888 
0.245736 0.54211 -0.803573 
0.295622 0.508105 -0.808973 
0.387091 0.471028 -0.79265 
0.418561 0.447736 -0.790151 
0.4061 0.431915 -0.805315 
0.347973 0.392362 -0.85145 
0.33312 0.371547 -0.866594 
0.346567 0.374801 -0.859893 
0.297838 0.337854 -0.892831 
0.23741 0.290803 -0.92686 
0.197699 0.260241 -0.945087 
0.159984 0.228173 -0.960386 
0.110721 0.180201 -0.977378 
0.0717813 0.138832 -0.987711 
0.0374059 0.0969732 -0.994584 
0.00835852 0.0603723 -0.998141 
-0.00927982 0.0349776 -0.999345 
-0.02 0.0186377 -0.999626 
-0.0258427 0.00829475 -0.999632 
-0.0264187 0.00168756 -0.99965 
-0.0244714 -0.00431951 -0.999691 
-0.0216301 -0.0106401 -0.999709 
-0.0192361 -0.0181697 -0.99965 
-0.0193228 -0.0255484 -0.999487 
-0.0197784 -0.0334866 -0.999243 
-0.0210117 -0.0420154 -0.998896 
-0.023181 -0.0438947 -0.998767 
-0.0261017 -0.0429905 -0.998734 
-0.0291426 -0.0363853 -0.998913 
-0.0415385 -0.033066 -0.99859 
-0.0511838 -0.0411147 -0.997843 
-0.0443668 -0.0399361 -0.998217 
-0.0486401 -0.0495253 -0.997588 
-0.0498419 -0.0568225 -0.997139 
-0.0188267 -0.0385321 -0.99908 
-0.000812437 -0.000376375 -1 
0.000793891 0.000187994 1 
-0.000153947 -0.0236715 0.99972 
0.0354325 -0.0490117 0.99817 
0.0211416 -0.04168 0.998907 
0.0232682 -0.0273243 0.999356 
0.0371311 -0.0282708 0.99891 
0.0225641 -0.0318037 0.999239 
0.022409 -0.0386489 0.999002 
0.0211495 -0.0452543 0.998752 
0.025192 -0.048362 0.998512 
0.017457 -0.0447129 0.998847 
0.0142278 -0.0362982 0.99924 
0.0125261 -0.0312982 0.999432 
0.0124832 -0.0217031 0.999687 
0.0156956 -0.0137526 0.999782 
0.0197227 -0.00573812 0.999789 
0.0217337 0.00167603 0.999762 
0.0197222 0.0106324 0.999749 
0.0129229 0.0231389 0.999649 
-0.000860406 0.0454733 0.998965 
-0.0213625 0.0766682 0.996828 
-0.0490595 0.115088 0.992143 
-0.0863408 0.162167 0.982979 
-0.133524 0.217734 0.966832 
-0.183049 0.27066 0.945112 
-0.233906 0.315531 0.919635 
-0.291653 0.36382 0.884632 
-0.342341 0.400584 0.849903 
-0.390102 0.435496 0.811273 
-0.407305 0.43714 0.80188 
-0.422679 0.442426 0.79095 
-0.484984 0.485128 0.727627 
-0.485931 0.49158 0.722648 
-0.506115 0.491667 0.708598 
-0.449505 0.499252 0.740738 
-0.41916 0.506902 0.75323 
-0.338851 0.597579 0.72669 
-0.192976 0.710931 0.676268 
-0.0683048 0.913287 0.401548 
-0.00935386 0.995541 0.0938598 
0.019419 0.970163 -0.241673 
0.135872 0.726732 -0.673349 
0.37573 0.533154 -0.758006 
0.456921 0.521486 -0.720608 
0.405577 0.49847 -0.766182 
0.468222 0.473597 -0.745972 
0.553249 0.508002 -0.660189 
0.479997 0.464968 -0.743914 
0.438059 0.437362 -0.785378 
0.442497 0.446052 -0.777967 
0.404605 0.426917 -0.808726 
0.34627 0.389095 -0.853641 
0.288643 0.350576 -0.890944 
0.266879 0.35184 -0.897209 
0.20942 0.302133 -0.929978 
0.156487 0.249864 -0.955552 
0.106958 0.194349 -0.975084 
0.0665246 0.143663 -0.987388 
0.0316514 0.0933538 -0.99513 
0.00801338 0.0587357 -0.998241 
-0.00770647 0.0345376 -0.999374 
-0.016929 0.0163719 -0.999723 
-0.0202211 0.00560566 -0.99978 
-0.0196235 -0.0020723 -0.999805 
-0.0173756 -0.0091535 -0.999807 
-0.0148755 -0.0158112 -0.999764 
-0.013308 -0.0225531 -0.999657 
-0.0129591 -0.0288425 -0.9995 
-0.0140082 -0.0359023 -0.999257 
-0.0144977 -0.0394317 -0.999117 
-0.0167207 -0.0417513 -0.998988 
-0.0202853 -0.0421074 -0.998907 
-0.0215274 -0.0359032 -0.999123 
-0.0318728 -0.0300558 -0.99904 
-0.0351276 -0.0351238 -0.998765 
-0.0356106 -0.045333 -0.998337 
-0.0281137 -0.0524473 -0.998228 
-0.0198796 -0.0351874 -0.999183 
-0.000355102 -0.000204619 -1 
-9.88757e-05 -0.00104678 0.999999 
0.00585627 -0.0439141 0.999018 
0.00765457 -0.0335368 0.999408 
0.0158868 -0.0444358 0.998886 
0.0169126 -0.0306657 0.999387 
0.0172975 -0.0295267 0.999414 
0.0211065 -0.0393416 0.999003 
0.0207616 -0.0425418 0.998879 
0.0197991 -0.0436232 0.998852 
0.0171701 -0.0429069 0.998932 
0.0165186 -0.0388644 0.999108 
0.015664 -0.0314053 0.999384 
0.0137261 -0.0256795 0.999576 
0.0171909 -0.0194357 0.999663 
0.019711 -0.0117396 0.999737 
0.0216563 -0.00335108 0.99976 
0.0224783 0.00619635 0.999728 
0.018433 0.0207428 0.999615 
0.00802072 0.0404374 0.99915 
-0.00922874 0.0717572 0.997379 
-0.0336632 0.113522 0.992965 
-0.0672708 0.162419 0.984426 
-0.107014 0.217731 0.970124 
-0.152047 0.27296 0.949934 
-0.206243 0.335173 0.919306 
-0.257241 0.377985 0.889356 
-0.310846 0.419898 0.852678 
-0.364479 0.457763 0.810931 
-0.415199 0.491274 0.765676 
-0.46503 0.51728 0.718449 
-0.480652 0.505314 0.716681 
-0.50783 0.509858 0.694373 
-0.567905 0.540128 0.621084 
-0.647834 0.558371 0.518201 
-0.478849 0.494248 0.72555 
-0.52209 0.520576 0.67559 
-0.43212 0.549589 0.714999 
-0.245635 0.711762 0.658072 
-0.0471619 0.96381 0.262384 
0.0139713 0.986756 -0.161608 
0.0396949 0.936003 -0.349746 
0.181858 0.777304 -0.602267 
0.51973 0.524214 -0.674597 
0.573275 0.511743 -0.639902 
0.518366 0.490976 -0.700171 
0.571708 0.509891 -0.642776 
0.591748 0.539273 -0.599182 
0.543967 0.510495 -0.665954 
0.548431 0.532507 -0.644717 
0.49095 0.495763 -0.716371 
0.413002 0.466846 -0.781974 
0.357392 0.44075 -0.823414 
0.334816 0.461778 -0.821377 
0.275908 0.407619 -0.870472 
0.217069 0.355406 -0.909157 
0.153909 0.279301 -0.947789 
0.104939 0.22387 -0.968953 
0.0624156 0.159302 -0.985255 
0.0309057 0.108584 -0.993607 
0.00721293 0.0686344 -0.997616 
-0.0107635 0.0373298 -0.999245 
-0.0194751 0.0163414 -0.999677 
-0.022042 0.00424372 -0.999748 
-0.0212532 -0.00444099 -0.999764 
-0.0191325 -0.0120476 -0.999744 
-0.0164208 -0.0185924 -0.999692 
-0.0153682 -0.0243971 -0.999584 
-0.0144409 -0.0299003 -0.999449 
-0.0144522 -0.0347771 -0.999291 
-0.0166205 -0.0378736 -0.999144 
-0.0172576 -0.0402955 -0.999039 
-0.0183984 -0.041268 -0.998979 
-0.0174013 -0.0359391 -0.999202 
-0.0216615 -0.0289458 -0.999346 
-0.0180539 -0.0289959 -0.999416 
-0.0210186 -0.0360961 -0.999127 
-0.0148778 -0.0443958 -0.998903 
-0.0142014 -0.0251679 -0.999582 
0.00140142 -9.24122e-05 -0.999999 
0.000496225 -0.000353631 1 
0.00542499 -0.0357496 0.999346 
0.0063612 -0.0425886 0.999072 
0.00398416 -0.0363586 0.999331 
0.0119527 -0.0260704 0.999589 
0.0194179 -0.0318992 0.999302 
0.0223572 -0.0392042 0.998981 
0.0242348 -0.0436846 0.998751 
0.0239903 -0.0436531 0.998759 
0.0208569 -0.0414654 0.998922 
0.0211537 -0.0369957 0.999092 
0.0194778 -0.0331728 0.99926 
0.0211465 -0.0281093 0.999381 
0.0227469 -0.0229949 0.999477 
0.0256657 -0.0156624 0.999548 
0.0276591 -0.00677039 0.999594 
0.0285764 0.00258581 0.999588 
0.0260398 0.016467 0.999525 
0.0172093 0.0406467 0.999025 
0.00206608 0.0710158 0.997473 
-0.0207715 0.117213 0.99289 
-0.0556996 0.178294 0.982399 
-0.097252 0.244341 0.9648 
-0.146212 0.309305 0.939655 
-0.200732 0.378263 0.903672 
-0.260595 0.439267 0.85973 
-0.313535 0.479299 0.819737 
-0.3689 0.518396 0.771478 
-0.423153 0.551432 0.718933 
-0.478555 0.588203 0.651922 
-0.514445 0.594591 0.617906 
-0.541384 0.582229 0.606558 
-0.561453 0.568906 0.600929 
-0.575584 0.555622 0.599988 
-0.662562 0.592228 0.45856 
-0.578111 0.522783 0.626486 
-0.588072 0.53266 0.608641 
-0.343308 0.531521 0.774355 
-0.134267 0.803799 0.579551 
-0.0067938 0.999977 0.000546964 
0.0891856 0.852544 -0.514991 
0.264776 0.584829 -0.766726 
0.569972 0.53484 -0.623762 
0.66129 0.52638 -0.534435 
0.618853 0.52476 -0.584506 
0.648668 0.571905 -0.502149 
0.619362 0.581584 -0.527401 
0.586636 0.587327 -0.557589 
0.546913 0.584127 -0.599735 
0.483338 0.515435 -0.70761 
0.422739 0.529576 -0.735419 
0.399872 0.550901 -0.732537 
0.334443 0.528621 -0.780197 
0.263938 0.450581 -0.852827 
0.21812 0.447436 -0.867309 
0.18795 0.364154 -0.912177 
0.131012 0.296671 -0.94595 
0.0781207 0.217621 -0.972902 
0.0408372 0.154493 -0.98715 
0.0124147 0.100932 -0.994816 
-0.00754024 0.0601466 -0.998161 
-0.0217572 0.0276859 -0.99938 
-0.0275897 0.00926852 -0.999576 
-0.0282338 -0.00201994 -0.999599 
-0.0264249 -0.0107405 -0.999593 
-0.0236252 -0.0179537 -0.99956 
-0.0212443 -0.0233859 -0.999501 
-0.0193835 -0.0281189 -0.999417 
-0.0193898 -0.0328426 -0.999272 
-0.020016 -0.0362633 -0.999142 
-0.0202848 -0.0387887 -0.999042 
-0.0204508 -0.0400262 -0.998989 
-0.0193672 -0.036355 -0.999151 
-0.0144085 -0.0270764 -0.99953 
-0.00987676 -0.0236242 -0.999672 
-0.00933371 -0.0315457 -0.999459 
-0.00405423 -0.0417005 -0.999122 
-0.00990125 -0.0300875 -0.999498 
-0.00110861 -0.000640088 -0.999999 
0.00253443 -0.000770157 0.999996 
0.00235101 -0.0397144 0.999208 
-0.002847 -0.0423322 0.9991 
0.00491454 -0.0351407 0.99937 
0.00913959 -0.0254561 0.999634 
0.0220825 -0.0331428 0.999207 
0.0246532 -0.041029 0.998854 
0.0250506 -0.0418018 0.998812 
0.0259819 -0.0411528 0.998815 
0.0255937 -0.039477 0.998893 
0.0240445 -0.0361378 0.999058 
0.0236556 -0.0317528 0.999216 
0.0248754 -0.0272255 0.99932 
0.0276451 -0.0216729 0.999383 
0.0303866 -0.0131077 0.999452 
0.0320869 -0.0029384 0.999481 
0.0313322 0.00957896 0.999463 
0.0258016 0.0298984 0.99922 
0.0130084 0.0642548 0.997849 
-0.00501777 0.105036 0.994456 
-0.0350127 0.169162 0.984966 
-0.0726025 0.245028 0.966794 
-0.118597 0.320939 0.939645 
-0.168463 0.388677 0.905842 
-0.22406 0.463358 0.857378 
-0.280211 0.515975 0.809476 
-0.336992 0.568249 0.750686 
-0.383755 0.59618 0.705196 
-0.434832 0.623351 0.649888 
-0.484578 0.648631 0.586909 
-0.534779 0.687399 0.491421 
-0.565345 0.655672 0.500479 
-0.597039 0.640187 0.483431 
-0.626846 0.636034 0.450027 
-0.628802 0.61078 0.481203 
-0.678552 0.623248 0.388754 
-0.584941 0.516741 0.625158 
-0.455978 0.500882 0.735664 
-0.137242 0.810252 0.569786 
-0.0262619 0.990496 0.135014 
0.0701861 0.886123 -0.458104 
0.381794 0.528038 -0.758557 
0.665144 0.547612 -0.507646 
0.699071 0.5651 -0.438135 
0.671565 0.569702 -0.473751 
0.660774 0.60466 -0.444707 
0.6502 0.632581 -0.42081 
0.532218 0.632157 -0.563135 
0.46778 0.547191 -0.694092 
0.489042 0.630977 -0.602251 
0.423488 0.628477 -0.652438 
0.368755 0.616163 -0.695962 
0.287794 0.538556 -0.791917 
0.250925 0.552399 -0.794917 
0.195796 0.480009 -0.855134 
0.158202 0.382837 -0.910169 
0.108128 0.303332 -0.94673 
0.0664898 0.236881 -0.969261 
0.0306229 0.162454 -0.986241 
0.00565089 0.107766 -0.99416 
-0.0146228 0.0585464 -0.998178 
-0.0262737 0.0267829 -0.999296 
-0.0311921 0.00733652 -0.999486 
-0.0315127 -0.00465176 -0.999493 
-0.0295999 -0.0142048 -0.999461 
-0.0271925 -0.0213326 -0.999403 
-0.0241852 -0.0262412 -0.999363 
-0.0223592 -0.029313 -0.99932 
-0.021781 -0.0325811 -0.999232 
-0.0221042 -0.0365919 -0.999086 
-0.0220413 -0.0382213 -0.999026 
-0.0218589 -0.0386485 -0.999014 
-0.0205347 -0.0358155 -0.999147 
-0.0178161 -0.0297421 -0.999399 
-0.0122836 -0.022748 -0.999666 
-0.00634763 -0.0305795 -0.999512 
-0.000735238 -0.0390756 -0.999236 
-0.00703089 -0.0338691 -0.999402 
-0.00085499 -0.000369663 -1 
-0.000775241 -0.000945551 0.999999 
0.00397033 -0.0353013 0.999369 
-0.000463806 -0.0414808 0.999139 
0.0127907 -0.0332467 0.999365 
0.0152149 -0.0262147 0.999541 
0.0183661 -0.0264611 0.999481 
0.0228993 -0.0392644 0.998966 
0.022454 -0.0415835 0.998883 
0.0225933 -0.0387786 0.998992 
0.0218543 -0.0367705 0.999085 
0.0220895 -0.0335621 0.999192 
0.0238311 -0.0306218 0.999247 
0.0247457 -0.0280926 0.999299 
0.0277003 -0.0227978 0.999356 
0.0300869 -0.0143512 0.999444 
0.0309275 -0.00320265 0.999516 
0.0294885 0.0126297 0.999485 
0.0238451 0.0362607 0.999058 