# vtk DataFile Version 3.0 
Exported using Morpho https://github.com/Morpho-lang/morpho 
ASCII 
DATASET UNSTRUCTURED_GRID 

POINTS 1978 float 
-12 -4 -1.13781e-15 
-11.6023 -4 2.86533e-15 
-11.2982 -4 1.05821e-14 
-10.9475 -4 7.99943e-15 
-10.6292 -4 3.2478e-15 
-10.2804 -4 2.73452e-15 
-9.95895 -4 1.19933e-15 
-9.64749 -4 1.95111e-15 
-9.31321 -4 1.28821e-15 
-8.99715 -4 5.71012e-16 
-8.68253 -4 1.53582e-15 
-8.36619 -4 6.92563e-16 
-8.05935 -4 1.50741e-15 
-7.76462 -4 9.97365e-16 
-7.48263 -4 7.52036e-16 
-7.18944 -4 2.31372e-16 
-6.89376 -4 6.88671e-16 
-6.59586 -4 1.0224e-15 
-6.29477 -4 6.36891e-16 
-5.98816 -4 5.68261e-16 
-5.688 -4 5.96691e-16 
-5.38384 -4 4.53998e-16 
-5.08473 -4 9.38366e-17 
-4.7897 -4 -9.48982e-16 
-4.45988 -4 -1.78559e-16 
-4.17196 -4 -1.41372e-15 
-3.86756 -4 -2.8247e-15 
-3.54739 -4 -2.63747e-15 
-3.25018 -4 -2.9634e-15 
-2.95434 -4 2.42911e-16 
-2.66342 -4 2.22508e-15 
-2.39774 -4 4.99629e-15 
-2.13217 -4 9.27958e-15 
-1.84553 -4 6.9912e-15 
-1.57778 -4 -6.14894e-15 
-1.29937 -4 -2.53105e-14 
-1.02214 -4 -5.12284e-14 
-0.72379 -4 -2.10988e-13 
-0.413149 -4 -1.38668e-13 
-0.00626061 -4 -5.96117e-14 
0.406166 -4 1.19252e-13 
0.735013 -4 2.2981e-13 
1.00584 -4 2.818e-14 
1.27934 -4 3.06425e-14 
1.5332 -4 -5.18034e-15 
1.78911 -4 -1.00413e-14 
2.06453 -4 -1.17918e-14 
2.34956 -4 -3.21294e-15 
2.67306 -4 6.8304e-16 
2.97593 -4 3.26185e-15 
3.29422 -4 1.89375e-15 
3.58789 -4 1.82853e-15 
3.88817 -4 2.38199e-15 
4.19955 -4 1.27407e-15 
4.49813 -4 4.69164e-16 
4.79673 -4 2.9987e-17 
5.10629 -4 2.36739e-16 
5.41253 -4 -6.25189e-16 
5.71987 -4 -3.42723e-16 
6.01317 -4 -5.81936e-16 
6.30573 -4 -7.51328e-16 
6.60221 -4 -3.78862e-16 
6.90038 -4 -7.58348e-16 
7.17488 -4 -9.49981e-16 
7.47568 -4 -1.0863e-15 
7.77045 -4 -8.99106e-17 
8.06628 -4 -1.9994e-15 
8.35624 -4 -4.413e-16 
8.65727 -4 -1.38507e-15 
8.93148 -4 -1.45258e-15 
9.2785 -4 -1.78826e-15 
9.60526 -4 -1.30945e-15 
9.89434 -4 -1.79353e-15 
10.2625 -4 -3.44621e-15 
10.5761 -4 -5.85635e-15 
10.9771 -4 -1.11927e-14 
11.2972 -4 -8.22933e-15 
11.5909 -4 -4.11352e-15 
12 -4 1.30181e-15 
-12 -3.60027 1.15823e-14 
-11.7152 -3.71433 -1.04976e-14 
-11.3642 -3.62848 -1.20774e-14 
-11.0475 -3.67594 -1.09885e-14 
-10.7101 -3.64537 -1.02328e-14 
-10.3906 -3.67898 -8.05971e-15 
-10.0536 -3.66402 -6.85918e-15 
-9.73041 -3.66449 -5.38515e-15 
-9.39999 -3.6866 -3.74354e-15 
-9.06362 -3.66602 -2.92091e-15 
-8.74887 -3.66398 -2.32663e-15 
-8.43239 -3.67232 -2.05316e-15 
-8.11491 -3.66729 -1.72271e-15 
-7.80497 -3.66103 -1.50959e-15 
-7.50486 -3.65238 -1.4298e-15 
-7.20909 -3.66821 -1.30483e-15 
-6.90127 -3.66711 -1.06356e-15 
-6.59361 -3.66384 -9.96832e-16 
-6.28008 -3.67383 -7.21674e-16 
-5.97105 -3.66722 -4.22539e-16 
-5.66131 -3.66924 1.49241e-16 
-5.35646 -3.66255 8.45539e-16 
-5.05892 -3.65728 2.01622e-15 
-4.73633 -3.69188 3.05889e-15 
-4.44199 -3.65523 5.6314e-15 
-4.13712 -3.67562 7.61106e-15 
-3.82013 -3.69503 1.02519e-14 
-3.51318 -3.68193 1.51691e-14 
-3.21217 -3.68116 1.78109e-14 
-2.91552 -3.67606 2.02054e-14 
-2.63957 -3.65308 2.41734e-14 
-2.36646 -3.66611 2.41462e-14 
-2.0827 -3.68598 1.51413e-14 
-1.79737 -3.68927 8.8981e-15 
-1.51333 -3.68503 1.51322e-15 
-1.22524 -3.66879 9.04969e-15 
-0.923158 -3.64302 4.4581e-14 
-0.610586 -3.61498 1.62276e-13 
-0.268509 -3.69893 2.27712e-14 
0.0105559 -3.51773 -2.71318e-13 
0.299886 -3.65626 3.0207e-13 
0.641458 -3.61832 -2.26546e-13 
0.960436 -3.63358 -4.48517e-14 
1.24541 -3.65868 -8.80796e-15 
1.5334 -3.66498 -4.22984e-15 
1.80813 -3.67404 -7.97201e-15 
2.09948 -3.69241 -1.51671e-14 
2.41694 -3.72158 -2.38693e-14 
2.71812 -3.69141 -2.23408e-14 
3.02817 -3.69755 -2.00994e-14 
3.32129 -3.66682 -1.75366e-14 
3.61973 -3.6713 -1.3327e-14 
3.93008 -3.68227 -9.96557e-15 
4.22938 -3.66414 -7.16609e-15 
4.52881 -3.66327 -4.81953e-15 
4.83716 -3.6736 -2.95269e-15 
5.14772 -3.67166 -1.68465e-15 
5.45855 -3.67306 -7.00119e-16 
5.76092 -3.65854 -4.93296e-17 
6.06009 -3.66083 5.07755e-16 
6.35957 -3.66232 7.57511e-16 
6.66515 -3.66856 1.02258e-15 
6.95041 -3.63998 1.21024e-15 
7.25048 -3.67 1.35388e-15 
7.55118 -3.66208 1.45294e-15 
7.85309 -3.66253 1.63074e-15 
8.14967 -3.65489 1.8065e-15 
8.44747 -3.66755 2.08252e-15 
8.73494 -3.63103 2.60849e-15 
9.055 -3.70585 2.98249e-15 
9.38743 -3.68112 3.74397e-15 
9.69275 -3.63346 5.36833e-15 
10.0263 -3.70902 6.26671e-15 
10.3536 -3.65292 8.68448e-15 
10.7191 -3.72386 9.37212e-15 
11.055 -3.65025 1.14439e-14 
11.3589 -3.61675 1.19416e-14 
11.7118 -3.72461 1.04911e-14 
12 -3.60613 -1.23924e-14 
-12 -3.29867 5.9733e-15 
-11.6318 -3.36509 -5.26085e-15 
-11.2879 -3.28621 -3.88234e-15 
-10.9743 -3.33206 -6.42057e-15 
-10.6562 -3.29623 -5.47412e-15 
-10.3349 -3.3461 -5.65129e-15 
-10.0099 -3.32858 -4.15804e-15 
-9.69279 -3.3241 -3.31824e-15 
-9.38737 -3.36769 -2.99534e-15 
-9.0785 -3.32545 -2.22786e-15 
-8.7717 -3.32195 -1.56281e-15 
-8.4682 -3.33686 -1.32739e-15 
-8.16202 -3.33755 -1.17941e-15 
-7.854 -3.32987 -9.01628e-16 
-7.55189 -3.31471 -7.23064e-16 
-7.25177 -3.32741 -6.56926e-16 
-6.95423 -3.34196 -6.09647e-16 
-6.64478 -3.33672 -4.803e-16 
-6.33457 -3.34839 -3.57979e-16 
-6.02517 -3.33964 -5.52398e-17 
-5.7151 -3.33982 3.63143e-16 
-5.408 -3.33034 9.17174e-16 
-5.10392 -3.31628 1.54337e-15 
-4.80186 -3.36956 2.69334e-15 
-4.49942 -3.32246 3.60928e-15 
-4.19713 -3.34719 5.31247e-15 
-3.88991 -3.37923 8.06273e-15 
-3.58248 -3.3717 1.09389e-14 
-3.27165 -3.36553 1.19156e-14 
-2.96435 -3.35822 1.73828e-14 
-2.66204 -3.31426 1.76661e-14 
-2.37464 -3.32477 1.7876e-14 
-2.10247 -3.36147 1.10819e-14 
-1.81041 -3.37809 2.08995e-15 
-1.51522 -3.36257 -1.207e-14 
-1.20327 -3.34126 -1.31217e-14 
-0.873298 -3.28513 5.84865e-15 
-0.610655 -3.15184 8.46182e-14 
-0.331113 -3.3094 -9.27251e-14 
0.0303321 -3.09986 -6.02425e-13 
0.337458 -3.2325 -1.4328e-13 
0.627532 -3.18339 2.73464e-13 
0.922414 -3.27656 2.07757e-14 
1.22684 -3.28511 2.16073e-14 
1.5044 -3.33755 7.8776e-15 
1.79791 -3.34524 -9.91042e-16 
2.07623 -3.38111 -1.51249e-14 
2.37028 -3.42606 -2.07561e-14 
2.67063 -3.38314 -2.14853e-14 
2.9741 -3.38794 -1.50142e-14 
3.27454 -3.34075 -1.13706e-14 
3.57433 -3.34087 -8.84841e-15 
3.87505 -3.36099 -7.20227e-15 
4.1771 -3.33399 -5.06018e-15 
4.47869 -3.32755 -3.58397e-15 
4.77913 -3.34295 -2.61235e-15 
5.08356 -3.3466 -1.70408e-15 
5.39422 -3.34643 -9.25817e-16 
5.70028 -3.32899 -3.8293e-16 
6.00983 -3.32302 -1.39246e-17 
6.30848 -3.32531 2.57966e-16 
6.61211 -3.34019 5.01999e-16 
6.91251 -3.29369 5.18343e-16 
7.20937 -3.33298 6.80019e-16 
7.50998 -3.32836 8.04312e-16 
7.81343 -3.3303 9.42233e-16 
8.11904 -3.31596 1.05322e-15 
8.41925 -3.32297 1.25215e-15 
8.74344 -3.31441 1.54474e-15 
9.06827 -3.39003 2.45194e-15 
9.38119 -3.34302 2.89833e-15 
9.69071 -3.28952 3.2596e-15 
10.0039 -3.38244 5.39981e-15 
10.3091 -3.30482 5.17465e-15 
10.6352 -3.40703 7.70151e-15 
10.9674 -3.33509 6.43266e-15 
11.2993 -3.25733 2.6944e-15 
11.6337 -3.3753 5.56046e-15 
12 -3.29465 -6.8151e-15 
-12 -2.96979 7.1438e-15 
-11.6634 -3.05086 -1.20879e-15 
-11.3215 -2.96791 1.86807e-15 
-10.9735 -2.97826 -2.67736e-16 
-10.6318 -2.96924 -7.16643e-16 
-10.2999 -3.008 -1.79151e-15 
-9.97478 -2.99253 -1.67639e-15 
-9.65602 -2.98528 -1.80895e-15 
-9.3522 -3.02477 -1.33913e-15 
-9.04345 -2.98318 -8.13198e-16 
-8.73885 -2.97813 -5.60837e-16 
-8.43712 -2.99751 -5.72701e-16 
-8.12997 -3.00366 -3.90428e-16 
-7.82965 -2.99207 -3.66792e-16 
-7.52583 -2.98111 -1.99929e-16 
-7.22687 -2.9925 -1.72594e-16 
-6.92142 -3.01724 -1.32521e-16 
-6.61263 -3.01181 -7.23069e-17 
-6.30788 -3.01923 6.48777e-17 
-6.00003 -3.0115 2.69642e-16 
-5.69545 -3.00798 4.92019e-16 
-5.39084 -2.99787 7.77237e-16 
-5.08936 -2.9837 1.00729e-15 
-4.79047 -3.03717 1.59892e-15 
-4.49063 -2.99071 1.7382e-15 
-4.19379 -3.01935 2.28334e-15 
-3.895 -3.05848 3.42666e-15 
-3.58838 -3.05215 4.00162e-15 
-3.28446 -3.0506 6.73383e-15 
-2.9702 -3.04138 5.10835e-15 
-2.67583 -2.9798 4.33868e-15 
-2.37878 -2.9884 -5.53705e-16 
-2.08613 -2.99831 5.47575e-15 
-1.81532 -3.05486 -8.59765e-15 
-1.50109 -3.03651 -2.16545e-14 
-1.15921 -3.01674 3.92972e-14 
-0.914515 -2.8285 -1.48844e-13 
-0.556434 -2.75986 -3.21751e-13 
-0.227807 -2.88208 8.92756e-13 
-0.0155625 -2.51197 -8.32269e-13 
0.271847 -2.72082 9.93821e-13 
0.557327 -2.74273 -1.59952e-13 
0.885766 -2.88756 2.78178e-14 
1.20095 -2.91144 2.16797e-14 
1.51091 -2.97074 7.30073e-15 
1.79298 -3.01921 -2.07303e-15 
2.09382 -3.04675 3.17599e-15 
2.37467 -3.11021 -5.46913e-15 
2.66243 -3.04425 -6.98753e-15 
2.94431 -3.07022 -8.45175e-15 
3.24884 -3.02215 -5.06012e-15 
3.55632 -3.01579 -4.19628e-15 
3.86323 -3.03391 -3.4792e-15 
4.16449 -3.00631 -2.6511e-15 
4.46659 -2.99923 -1.77774e-15 
4.77042 -3.00887 -1.36495e-15 
5.06966 -3.01545 -9.73309e-16 
5.37126 -3.02174 -7.1574e-16 
5.67946 -2.99939 -4.4772e-16 
5.98527 -2.99986 -2.32845e-16 
6.29821 -2.9844 -6.75508e-17 
6.59472 -3.00791 8.67941e-17 
6.91678 -2.9795 1.18819e-16 
7.23468 -2.99738 1.95964e-16 
7.53518 -2.99371 2.57605e-16 
7.84018 -2.99895 3.40489e-16 
8.13838 -2.97725 4.22576e-16 
8.4497 -3.00381 5.35266e-16 
8.74846 -2.97027 5.65885e-16 
9.04768 -3.06384 9.21152e-16 
9.35303 -3.00728 1.07758e-15 
9.65887 -2.94953 1.11755e-15 
9.98469 -3.03338 1.72954e-15 
10.3207 -2.97802 1.11581e-15 
10.6529 -3.07308 2.0972e-15 
10.987 -2.99605 2.72679e-16 
11.3384 -2.93434 -2.08335e-15 
11.6695 -3.05517 9.65566e-16 
12 -2.95257 -6.10311e-15 
-12 -2.65494 6.22335e-15 
-11.6511 -2.72165 8.8964e-16 
-11.3117 -2.63992 2.53666e-15 
-10.9738 -2.6552 2.91676e-16 
-10.638 -2.64141 -1.35075e-16 
-10.3021 -2.67517 -7.14539e-16 
-9.97241 -2.66266 -1.31961e-15 
-9.64095 -2.66536 -9.06554e-16 
-9.31239 -2.68198 -5.4035e-16 
-8.99595 -2.645 -4.78475e-16 
-8.68606 -2.64034 -3.37104e-16 
-8.37523 -2.66915 -2.62208e-16 
-8.07147 -2.66483 -2.41624e-16 
-7.76155 -2.66218 -1.71595e-16 
-7.45181 -2.65182 -1.08366e-16 
-7.14364 -2.67246 -7.58411e-17 
-6.83966 -2.69175 -6.01242e-17 
-6.53065 -2.68326 4.16086e-17 
-6.22661 -2.68884 1.42585e-16 
-5.92127 -2.67904 2.75367e-16 
[...]
POINT_DATA 1978 
VECTORS vectors float
-1.51084e-05 -9.17763e-05 1 
9.29286e-05 -0.0469556 0.998897 
2.89496e-05 -0.0462025 0.998932 
2.98326e-05 -0.0360682 0.999349 
3.08729e-05 -0.0267229 0.999643 
3.75517e-05 -0.0184043 0.999831 
3.27089e-05 -0.0130941 0.999914 
4.2784e-05 -0.00972949 0.999953 
4.56118e-05 -0.00752795 0.999972 
4.17063e-05 -0.00623592 0.999981 
4.59274e-05 -0.00527216 0.999986 
5.38631e-05 -0.00456097 0.99999 
5.20964e-05 -0.00411624 0.999992 
4.73635e-05 -0.00383306 0.999993 
4.88177e-05 -0.00357693 0.999994 
5.53429e-05 -0.00338092 0.999994 
5.48716e-05 -0.00330027 0.999995 
4.95734e-05 -0.00300978 0.999995 
5.43933e-05 -0.00256404 0.999997 
5.1069e-05 -0.00196235 0.999998 
5.35355e-05 -0.00111031 0.999999 
4.88275e-05 0.000241316 1 
4.64941e-05 0.00220614 0.999998 
5.42554e-05 0.0048855 0.999988 
5.09288e-05 0.00938616 0.999956 
3.9753e-05 0.0147481 0.999891 
4.97551e-05 0.0225762 0.999745 
5.10105e-05 0.0340813 0.999419 
4.00686e-05 0.0486633 0.998815 
4.48528e-05 0.0688763 0.997625 
3.27683e-05 0.0964451 0.995338 
2.13345e-05 0.13129 0.991344 
2.19816e-05 0.178338 0.983969 
1.2948e-05 0.248481 0.968637 
-1.48835e-07 0.332682 0.943039 
-1.17937e-05 0.446916 0.894576 
-2.02975e-05 0.584086 0.811692 
-3.04981e-05 0.744181 0.667977 
-3.16445e-05 0.90277 0.430124 
-5.95702e-06 0.999895 0.0144749 
3.889e-05 0.904245 -0.427014 
2.25669e-05 0.734336 -0.678787 
1.71455e-05 0.587651 -0.809114 
1.20231e-05 0.454624 -0.890684 
-4.39649e-07 0.351227 -0.93629 
-6.72325e-06 0.262862 -0.964833 
-1.55552e-05 0.191971 -0.981401 
-2.94425e-05 0.138851 -0.990313 
-3.91881e-05 0.0960296 -0.995378 
-4.06414e-05 0.0676529 -0.997709 
-4.31387e-05 0.0464733 -0.99892 
-4.15062e-05 0.0324448 -0.999474 
-4.95916e-05 0.022185 -0.999754 
-5.14408e-05 0.0143957 -0.999896 
-4.5617e-05 0.00887651 -0.999961 
-4.87023e-05 0.00494175 -0.999988 
-5.29577e-05 0.0020917 -0.999998 
-5.30402e-05 0.000129067 -1 
-5.13958e-05 -0.00121804 -0.999999 
-4.84809e-05 -0.00206417 -0.999998 
-5.41974e-05 -0.00255034 -0.999997 
-5.80188e-05 -0.0029034 -0.999996 
-4.85971e-05 -0.00323651 -0.999995 
-4.88866e-05 -0.00344076 -0.999994 
-5.79695e-05 -0.00373069 -0.999993 
-5.37079e-05 -0.00415052 -0.999991 
-5.3852e-05 -0.00455485 -0.99999 
-5.34344e-05 -0.00501255 -0.999987 
-4.01716e-05 -0.00558159 -0.999984 
-4.76435e-05 -0.00610214 -0.999981 
-5.41232e-05 -0.00726599 -0.999974 
-3.34007e-05 -0.00939845 -0.999956 
-3.06634e-05 -0.0123392 -0.999924 
-2.80661e-05 -0.0182238 -0.999834 
-1.2856e-05 -0.0252639 -0.999681 
-2.26974e-05 -0.0371098 -0.999311 
-1.41767e-05 -0.046106 -0.998937 
-9.60866e-05 -0.0470922 -0.998891 
7.16175e-06 -0.000105757 -1 
-0.000519564 -3.84046e-05 1 
0.0145305 -0.0319241 0.999385 
0.0232866 -0.0425069 0.998825 
0.0226751 -0.0378517 0.999026 
0.0250357 -0.0293028 0.999257 
0.0246684 -0.0217461 0.999459 
0.0266789 -0.0155337 0.999523 
0.0277431 -0.0113119 0.999551 
0.0270999 -0.00851818 0.999596 
0.0285211 -0.00669451 0.999571 
0.0288809 -0.00548809 0.999568 
0.0290385 -0.00465869 0.999567 
0.0295731 -0.00410584 0.999554 
0.0301392 -0.00373025 0.999539 
0.0310897 -0.00343456 0.999511 
0.030031 -0.0032096 0.999544 
0.0298234 -0.00300697 0.999551 
0.03011 -0.00271437 0.999543 
0.0295821 -0.00223471 0.99956 
0.0299308 -0.00152663 0.999551 
0.0295031 -0.000490983 0.999565 
0.0296725 0.00108851 0.999559 
0.0295386 0.00331502 0.999558 
0.0268955 0.00660557 0.999616 
0.028921 0.011199 0.999519 
0.0265823 0.0173046 0.999497 
0.0244882 0.0261776 0.999357 
0.0240608 0.0384083 0.998972 
0.0217163 0.0547749 0.998263 
0.019236 0.0775473 0.996803 
0.0167477 0.107185 0.994098 
0.0125504 0.146642 0.98911 
0.00713896 0.201909 0.979378 
0.00224204 0.276664 0.960964 
-0.00288028 0.369641 0.92917 
-0.00745296 0.486991 0.873375 
-0.0103046 0.631347 0.775432 
-0.0103405 0.796643 0.604361 
-0.00571535 0.948422 0.316958 
0.000155983 0.999858 -0.0168287 
0.00561129 0.939333 -0.34296 
0.0098352 0.783847 -0.620876 
0.0102597 0.617028 -0.786874 
0.00674014 0.477251 -0.878741 
0.00213124 0.357544 -0.933894 
-0.00296874 0.265496 -0.964107 
-0.00809369 0.193152 -0.981135 
-0.0123946 0.135001 -0.990768 
-0.0168008 0.0966163 -0.99518 
-0.0194771 0.0676759 -0.997517 
-0.0230381 0.0485368 -0.998556 
-0.0244769 0.0339555 -0.999124 
-0.0254801 0.0229953 -0.999411 
-0.0273945 0.0153847 -0.999506 
-0.028196 0.00974245 -0.999555 
-0.0281306 0.00548271 -0.999589 
-0.0289286 0.00251035 -0.999578 
-0.029195 0.000432146 -0.999574 
-0.0304642 -0.000905836 -0.999535 
-0.03061 -0.00178329 -0.99953 
-0.0303647 -0.00235984 -0.999536 
-0.0304616 -0.00275663 -0.999532 
-0.0320981 -0.00303173 -0.99948 
-0.0300773 -0.00333422 -0.999542 
-0.0305166 -0.00364571 -0.999528 
-0.0304956 -0.00402884 -0.999527 
-0.0307402 -0.00446206 -0.999517 
-0.0300444 -0.00501724 -0.999536 
-0.0317114 -0.00565441 -0.999481 
-0.0269433 -0.00666784 -0.999615 
-0.0277227 -0.00835892 -0.999581 
-0.0295117 -0.0109416 -0.999505 
-0.02446 -0.014951 -0.999589 
-0.0261557 -0.0209599 -0.999438 
-0.0212718 -0.0293443 -0.999343 
-0.0239587 -0.0378345 -0.998997 
-0.0236937 -0.0422539 -0.998826 
-0.0142733 -0.0324524 -0.999371 
0.000507305 -6.66942e-05 -1 
-0.000455482 -0.00010178 1 
0.0222006 -0.0349684 0.999142 
0.0277227 -0.04125 0.998764 
0.0298388 -0.0363147 0.998895 
0.0314072 -0.029218 0.99908 
0.0331656 -0.0221236 0.999205 
0.0345497 -0.0162514 0.999271 
0.0358725 -0.0119211 0.999285 
0.03648 -0.00889221 0.999295 
0.0374422 -0.00702391 0.999274 
0.0379988 -0.00576442 0.999261 
0.0381776 -0.00478065 0.99926 
0.0384201 -0.00409527 0.999253 
0.0384185 -0.00364685 0.999255 
0.038513 -0.00332894 0.999253 
0.0386278 -0.00309174 0.999249 
0.0389782 -0.0028797 0.999236 
0.0389484 -0.00254397 0.999238 
0.0387707 -0.0020643 0.999246 
0.0386069 -0.00134905 0.999254 
0.0382156 -0.000267137 0.999269 
0.0376756 0.00137812 0.999289 
0.0370103 0.00379727 0.999308 
0.0363519 0.00696017 0.999315 
0.0353513 0.0116975 0.999306 
0.0342439 0.0178778 0.999254 
0.0328899 0.0262928 0.999113 
0.0306818 0.0378916 0.998811 
0.0278603 0.054949 0.9981 
0.0243624 0.0774508 0.996698 
0.0193934 0.109158 0.993835 
0.0143965 0.151364 0.988373 
0.00887519 0.206256 0.978458 
0.00235164 0.28083 0.959755 
-0.00420311 0.380616 0.924724 
-0.00928915 0.50574 0.862636 
-0.0119931 0.663058 0.748472 
-0.0107193 0.810703 0.58536 
-0.00761845 0.938811 0.344349 
-0.000369055 0.999955 -0.0094618 
0.00605306 0.938313 -0.345733 
0.00968955 0.805358 -0.592709 
0.0106203 0.643343 -0.765505 
0.00824605 0.491876 -0.870626 
0.00349995 0.373742 -0.927526 
-0.0025708 0.278539 -0.960422 
-0.00898883 0.205945 -0.978522 
-0.0153255 0.148713 -0.988762 
-0.0202894 0.107163 -0.994034 
-0.0243582 0.077541 -0.996692 
-0.02733 0.0559124 -0.998062 
-0.0300156 0.0398287 -0.998756 
-0.0322981 0.0277239 -0.999094 
-0.0338339 0.0189126 -0.999249 
-0.0350018 0.0123307 -0.999311 
-0.0362448 0.00750166 -0.999315 
-0.0372261 0.00399653 -0.999299 
-0.0378677 0.00149131 -0.999282 
-0.038358 -0.00017515 -0.999264 
-0.0386607 -0.00130037 -0.999252 
-0.038883 -0.00200342 -0.999242 
-0.0389665 -0.00247331 -0.999237 
-0.0388009 -0.00277299 -0.999243 
-0.038963 -0.00311183 -0.999236 
-0.0388817 -0.00339887 -0.999238 
-0.0387888 -0.00375348 -0.99924 
-0.038657 -0.00421024 -0.999244 
-0.0382147 -0.00481837 -0.999258 
-0.0382696 -0.00576822 -0.999251 
-0.0376385 -0.0070354 -0.999267 
-0.0369846 -0.00895149 -0.999276 
-0.0358929 -0.011876 -0.999285 
-0.034647 -0.0156794 -0.999277 
-0.0335194 -0.0215727 -0.999205 
-0.0317964 -0.028473 -0.999089 
-0.0299798 -0.0360995 -0.998898 
-0.0272113 -0.0412777 -0.998777 
-0.0219809 -0.0346355 -0.999158 
0.000375499 -0.00012689 -1 
-0.000257031 -0.000134437 1 
0.018305 -0.0330202 0.999287 
0.0232889 -0.0420948 0.998842 
0.0260151 -0.0375638 0.998956 
0.027878 -0.0303691 0.99915 
0.030162 -0.0227796 0.999285 
0.031371 -0.0166713 0.999369 
0.0325475 -0.0121479 0.999396 
0.0340943 -0.00923586 0.999376 
0.0340241 -0.0072523 0.999395 
0.0341824 -0.00578495 0.999399 
0.0349357 -0.00472554 0.999378 
0.035069 -0.00398665 0.999377 
0.0351464 -0.0035055 0.999376 
0.0348824 -0.00318187 0.999386 
0.0354619 -0.00294978 0.999367 
0.0358529 -0.00267923 0.999353 
0.0356826 -0.00231061 0.999361 
0.0356325 -0.001809 0.999363 
0.0353671 -0.00102149 0.999374 
0.0350096 0.00021327 0.999387 
0.0343397 0.00209934 0.999408 
0.0334399 0.00484983 0.999429 
0.033312 0.00834265 0.99941 
0.0316001 0.0137142 0.999407 
0.0305947 0.0202824 0.999326 
0.0294949 0.0288825 0.999148 
0.0273548 0.0415013 0.998764 
0.0246236 0.0579831 0.998014 
0.020608 0.0827584 0.996357 
0.0157306 0.116177 0.993104 
0.0107911 0.160389 0.986995 
0.00615229 0.21777 0.975981 
0.000766684 0.293111 0.956078 
-0.00460479 0.395218 0.918576 
-0.00854632 0.533395 0.845823 
-0.00894553 0.661596 0.749807 
-0.00673432 0.829753 0.558091 
-0.00453099 0.958162 0.28619 
0.000595221 0.999999 -0.000993079 
0.00336796 0.951792 -0.306726 
0.00595937 0.826326 -0.563161 
0.00788592 0.666872 -0.74513 
0.007036 0.513303 -0.858179 
0.00381199 0.389283 -0.92111 
-0.000801408 0.292572 -0.956243 
-0.00610284 0.216961 -0.976161 
-0.0121674 0.15879 -0.987237 
-0.0165139 0.116793 -0.993019 
-0.0205042 0.0843835 -0.996222 
-0.0232893 0.061751 -0.99782 
-0.0260472 0.04398 -0.998693 
-0.0285848 0.0305579 -0.999124 
-0.0301148 0.0212599 -0.99932 
-0.0315388 0.0143328 -0.9994 
-0.0329087 0.00897622 -0.999418 
-0.0339242 0.00510764 -0.999411 
-0.0347329 0.00229656 -0.999394 
-0.0349163 0.000361833 -0.99939 
-0.035193 -0.000936945 -0.99938 
-0.0352012 -0.00176186 -0.999379 
-0.0354575 -0.00225858 -0.999369 
-0.035161 -0.00264737 -0.999378 
-0.0352924 -0.00295515 -0.999373 
-0.03534 -0.00325412 -0.99937 
-0.0354284 -0.00362232 -0.999366 
-0.0351034 -0.00411817 -0.999375 
-0.0352143 -0.0048723 -0.999368 
-0.0343484 -0.00592123 -0.999392 
-0.0353627 -0.00729945 -0.999348 
-0.0337225 -0.00941457 -0.999387 
-0.031844 -0.0125608 -0.999414 
-0.0319537 -0.0168604 -0.999347 
-0.0295912 -0.0233874 -0.999288 
-0.0294136 -0.0302244 -0.99911 
-0.0261541 -0.0376661 -0.998948 
-0.0225849 -0.0422662 -0.998851 
-0.0179834 -0.0325398 -0.999309 
0.000207639 -0.000146969 -1 
-0.000176832 -0.000237305 1 
0.014381 -0.0344263 0.999304 
0.0185327 -0.0441397 0.998853 
0.0209863 -0.0389237 0.999022 
0.0227291 -0.0321144 0.999226 
0.0246902 -0.0241121 0.999404 
0.0259483 -0.0176194 0.999508 
0.0270764 -0.0129185 0.99955 
0.0278572 -0.00955346 0.999566 
0.0277944 -0.00733158 0.999587 
0.0278376 -0.00570864 0.999596 
0.0286605 -0.00457996 0.999579 
0.0286524 -0.00381294 0.999582 
0.028757 -0.00333461 0.999581 
0.0286095 -0.00301315 0.999586 
0.0292143 -0.00275811 0.999569 
0.0297296 -0.0024686 0.999555 
0.0293411 -0.00206672 0.999567 
0.0293315 -0.00146178 0.999569 
0.0290202 -0.00047036 0.999579 
0.0286416 0.00109954 0.999589 
0.0278601 0.00344147 0.999606 
0.0271183 0.00684069 0.999609 
0.0269597 0.0109007 0.999577 
0.0251998 0.0171037 0.999536 
0.0243816 0.0246455 0.999399 
0.0234134 0.0343545 0.999135 
0.0211128 0.0479551 0.998626 
0.0187325 0.0672231 0.997562 
0.0147613 0.092831 0.995572 
0.0101333 0.132105 0.991184 
0.00617907 0.18 0.983647 
0.00242694 0.240743 0.970586 
-0.00155983 0.322704 0.946499 
-0.00558951 0.444211 0.895905 
-0.00614961 0.555526 0.831476 
-0.00521563 0.714923 0.699184 
-0.0025144 0.830477 0.557047 
-0.00146246 0.930461 0.366387 
0.00111494 0.997691 0.067908 
0.00229732 0.95449 -0.298234 
0.00367153 0.81344 -0.581637 
0.00558803 0.676655 -0.736279 
0.00536482 0.516666 -0.85617 
0.00333476 0.384046 -0.923308 
-0.000126334 0.287867 -0.95767 
-0.00404552 0.21861 -0.975804 
-0.00907185 0.160027 -0.987071 
-0.0120556 0.118409 -0.992892 
-0.0158784 0.0859712 -0.996171 
-0.0183077 0.0616921 -0.997927 
-0.0211302 0.0435295 -0.998829 
-0.0231953 0.0309616 -0.999251 
-0.0244201 0.0214927 -0.999471 
-0.0256595 0.0144149 -0.999567 
-0.0269631 0.00915528 -0.999595 
-0.0279328 0.00526124 -0.999596 
-0.0286145 0.00240818 -0.999588 
-0.0286476 0.000395326 -0.999589 
-0.0290726 -0.000952877 -0.999577 
-0.0285544 -0.00174434 -0.999591 
-0.0294481 -0.00225601 -0.999564 
-0.0289407 -0.00261323 -0.999578 
-0.0288671 -0.00288213 -0.999579 
-0.0288998 -0.00317165 -0.999577 
-0.0288031 -0.00353244 -0.999579 
-0.0286648 -0.0040847 -0.999581 
-0.0288092 -0.00491902 -0.999573 
-0.0275769 -0.00606212 -0.999601 
-0.0293035 -0.00759514 -0.999542 
-0.0276075 -0.00991814 -0.99957 
-0.025942 -0.0134431 -0.999573 
-0.0265462 -0.0180249 -0.999485 
-0.0242333 -0.024815 -0.999398 
-0.024216 -0.0320245 -0.999194 
-0.0210715 -0.0396678 -0.998991 
-0.0175895 -0.0438737 -0.998882 
-0.0136699 -0.0329334 -0.999364 
0.000201615 -0.000171339 -1 
-8.43067e-05 -0.000214951 1 
0.00892275 -0.0302569 0.999502 
0.0131349 -0.0449756 0.998902 
0.0152149 -0.0424516 0.998983 
0.0166515 -0.0358586 0.999218 
0.018308 -0.0278539 0.999444 
0.0195483 -0.0207811 0.999593 
0.0202685 -0.0152075 0.999679 
0.0210264 -0.0112283 0.999716 
0.0211054 -0.00852272 0.999741 
0.0208435 -0.00646308 0.999762 
0.0212667 -0.00497277 0.999761 
0.0214342 -0.00404343 0.999762 
0.0215594 -0.00344977 0.999762 
0.0216348 -0.00309272 0.999761 
0.0216844 -0.00282089 0.999761 
0.0221742 -0.00256308 0.999751 
0.0222986 -0.00224322 0.999749 
0.022009 -0.00173015 0.999756 
0.0219122 -0.00089664 0.999759 
0.0217017 0.000488011 0.999764 
0.0211562 0.00258933 0.999773 
0.0206661 0.00563165 0.999771 
0.0197777 0.00973336 0.999757 
0.0196175 0.0146088 0.999701 
0.0181485 0.0218892 0.999596 
0.0174237 0.0306287 0.999379 
0.0161737 0.0415615 0.999005 
0.0146345 0.0578521 0.998218 
0.0117367 0.0788935 0.996814 
0.00854943 0.111391 0.99374 
0.00443881 0.158246 0.98739 
0.00144814 0.21822 0.975899 
-0.00146833 0.293419 0.955983 
-0.00386536 0.38452 0.923109 
-0.00509577 0.491426 0.870905 
-0.00487402 0.634624 0.772805 
-0.00331807 0.774586 0.63246 
0.000509538 0.969446 0.245306 
0.00340771 0.995957 -0.0897662 
0.00264496 0.931797 -0.36297 
0.00333628 0.913206 -0.407485 
0.00302043 0.786444 -0.617654 
0.00453267 0.591664 -0.806172 
0.00429181 0.433671 -0.901061 
0.00212816 0.320207 -0.947345 
-0.000724207 0.236691 -0.971585 
-0.00464867 0.175798 -0.984415 
-0.0068852 0.132879 -0.991108 
-0.0100085 0.0961858 -0.995313 
-0.0124239 0.0703033 -0.997448 
-0.0148577 0.0494071 -0.998668 
-0.0164549 0.0351549 -0.999246 
-0.0177753 0.0249764 -0.99953 
-0.0187088 0.0170554 -0.999679 
-0.0197725 0.0111148 -0.999743 
-0.0205874 0.00673848 -0.999765 
-0.0212896 0.0034872 -0.999767 
-0.0215439 0.00113747 -0.999767 
-0.0219141 -0.000534241 -0.99976 
-0.021375 -0.00152412 -0.99977 
-0.0221288 -0.00213572 -0.999753 
-0.0222639 -0.00248836 -0.999749 
-0.0214056 -0.00277466 -0.999767 
-0.0216204 -0.00303723 -0.999762 
-0.0212526 -0.00337437 -0.999768 
-0.0212014 -0.00387597 -0.999768 
-0.0211022 -0.00470159 -0.999766 
-0.0205354 -0.00601313 -0.999771 
-0.0220497 -0.00790148 -0.999726 
-0.0209414 -0.0106051 -0.999724 
-0.0193604 -0.0143502 -0.99971 
-0.0203264 -0.0192465 -0.999608 
-0.0182806 -0.0264879 -0.999482 
-0.0187566 -0.0338491 -0.999251 
-0.0158584 -0.0414016 -0.999017 
-0.0128482 -0.0455218 -0.998881 
-0.0103089 -0.0352943 -0.999324 
0.00014251 -0.000126654 -1 
-8.92948e-05 -0.000156466 1 
0.00713432 -0.036925 0.999293 
0.0099563 -0.046465 0.99887 
0.0110203 -0.0418456 0.999063 
0.0122918 -0.0342849 0.999337 
0.0132974 -0.0263197 0.999565 
0.0142399 -0.0194407 0.99971 
0.014735 -0.014172 0.999791 
0.0148565 -0.0105933 0.999834 
0.0150207 -0.00790884 0.999856 
0.0150074 -0.00585205 0.99987 
0.0148728 -0.00455751 0.999879 
0.0150893 -0.00374155 0.999879 
0.0151388 -0.00328165 0.99988 
0.0153441 -0.00299412 0.999878 
0.0151847 -0.00275971 0.999881 
0.0153916 -0.00250597 0.999878 
0.0156536 -0.00212602 0.999875 
0.0153009 -0.00147299 0.999882 
0.0153325 -0.000341606 0.999882 
0.0150519 0.00146013 0.999886 
0.0147366 0.0041652 0.999883 
0.014137 0.00784009 0.999869 
0.0132981 0.0126734 0.999831 
0.0132983 0.0185644 0.999739 
0.0120749 0.0272776 0.999555 
0.0109644 0.0374206 0.999239 
0.010369 0.0514918 0.99862 
0.00823886 0.0703935 0.997485 
0.00614999 0.0995506 0.995013 
0.00313282 0.14186 0.989882 
0.000183042 0.21074 0.977542 
-0.00213038 0.292107 0.956383 
-0.00430469 0.400523 0.916277 
-0.00492229 0.569654 0.82187 
-0.00346586 0.713367 0.700782 
-0.000603639 0.881113 0.472906 
0.00037775 0.978678 0.205402 
0.000204818 0.908354 0.418201 
0.00153827 0.991829 0.127566 
-0.00119995 0.991605 -0.1293 
-0.00282409 0.912897 -0.408179 
0.00429051 0.80867 -0.588247 
0.00468373 0.64238 -0.766372 
0.00475527 0.473375 -0.880848 
0.00348262 0.350765 -0.936457 
0.00149066 0.259147 -0.965837 
-0.00154275 0.182352 -0.983232 
-0.00403898 0.128602 -0.991688 
-0.00633355 0.0929542 -0.99565 
-0.00872175 0.0656615 -0.997804 
-0.0101517 0.0474547 -0.998822 
-0.0111236 0.03431 -0.999349 
-0.0123395 0.0241996 -0.999631 
-0.0130326 0.0165865 -0.999777 
-0.0137084 0.010878 -0.999847 
-0.0142584 0.00656867 -0.999877 
-0.0148036 0.00333906 -0.999885 
-0.0153578 0.000853447 -0.999882 
-0.0152242 -0.000707377 -0.999884 
-0.0154386 -0.00176121 -0.999879 
-0.0154568 -0.00227704 -0.999878 
-0.0158006 -0.00259104 -0.999872 
-0.0148222 -0.00284019 -0.999886 
-0.0150766 -0.00308198 -0.999882 
-0.0145872 -0.00340869 -0.999888 
-0.0147159 -0.00397532 -0.999884 
-0.0146885 -0.00489948 -0.99988 
-0.0140108 -0.00625834 -0.999882 
-0.0158788 -0.00805494 -0.999841 
-0.0149068 -0.0107783 -0.999831 
-0.0139447 -0.0149145 -0.999792 
-0.0146085 -0.0204333 -0.999684 
-0.0130197 -0.0280184 -0.999523 
-0.0134583 -0.0357611 -0.99927 
-0.0110299 -0.0429955 -0.999014 
-0.0088699 -0.0469164 -0.998859 
-0.00709867 -0.0355756 -0.999342 
0.000102802 -0.000117853 -1 
-7.86285e-05 -0.0001183 1 
0.00463642 -0.0356868 0.999352 
0.00662113 -0.0473254 0.998858 
0.00748236 -0.0442093 0.998994 
0.00838287 -0.0367153 0.999291 
0.00905656 -0.0284933 0.999553 
0.00971659 -0.0212735 0.999726 
0.0102193 -0.0156875 0.999825 
0.0101016 -0.0115558 0.999882 
0.0102156 -0.00857595 0.999911 
0.0104925 -0.00636906 0.999925 
0.00998772 -0.00479514 0.999939 
0.0100869 -0.00388968 0.999942 
0.010053 -0.00339337 0.999944 
0.0102215 -0.00311985 0.999943 
0.0101588 -0.00292168 0.999944 
0.0100298 -0.00270829 0.999946 
0.0103425 -0.0023764 0.999944 
0.0102526 -0.00179898 0.999946 
0.0102107 -0.000710959 0.999948 
0.0100529 0.00101488 0.999949 
0.0099508 0.00360118 0.999944 
0.00947568 0.00722198 0.999929 
0.00881826 0.011948 0.99989 
0.00853795 0.0181386 0.999799 
0.00826988 0.0259233 0.99963 
0.00681424 0.0366898 0.999303 
0.00661972 0.0500052 0.998727 
0.00498424 0.0677507 0.99769 
0.00389055 0.0944866 0.995519 
0.00170686 0.136051 0.9907 
-0.000342671 0.200835 0.979625 
-0.00225782 0.295124 0.955456 
-0.00400961 0.404222 0.914652 
-0.00419093 0.581518 0.813523 
-0.00185717 0.736577 0.676351 
-5.31626e-05 0.839073 0.544018 
0.00433945 0.995324 0.096495 
0.00198801 0.999382 0.0350942 
0.00219939 0.999311 0.0370624 
0.00202605 0.999663 0.0258664 
-0.000927638 0.998874 -0.0474365 
-0.00114134 0.799639 -0.60048 
0.00471481 0.691701 -0.722168 
0.00478065 0.55315 -0.833068 
0.00431046 0.411637 -0.911338 
0.0029365 0.29971 -0.954026 
0.000711784 0.205925 -0.978568 
-0.00137512 0.144674 -0.989478 
-0.00314371 0.100133 -0.994969 
-0.00496269 0.0714789 -0.99743 
-0.00612357 0.0520752 -0.998624 
-0.0067668 0.0380072 -0.999255 
-0.00770651 0.02716 -0.999601 
-0.0083206 0.0190883 -0.999783 
-0.00879743 0.0128405 -0.999879 
-0.0091902 0.00802359 -0.999926 
-0.00952678 0.0043229 -0.999945 
-0.0102907 0.00159752 -0.999946 
-0.0100167 -0.000324664 -0.99995 
-0.0107191 -0.00158028 -0.999941 
-0.0101964 -0.00228368 -0.999945 
-0.0104993 -0.00262824 -0.999941 
-0.0100566 -0.00285343 -0.999945 
-0.00995372 -0.00306877 -0.999946 
-0.00973347 -0.00332929 -0.999947 
-0.00977099 -0.00381372 -0.999945 
-0.00962121 -0.00467258 -0.999943 
-0.00957616 -0.00619992 -0.999935 
-0.0106786 -0.00846858 -0.999907 
-0.0104031 -0.0116816 -0.999878 
-0.00943462 -0.0158788 -0.999829 
-0.0103396 -0.0209749 -0.999727 
-0.00897709 -0.0280568 -0.999566 