# vtk DataFile Version 3.0 
Exported using Morpho https://github.com/Morpho-lang/morpho 
ASCII 
DATASET UNSTRUCTURED_GRID 

POINTS 1978 float 
-12 -3.99997 -2.62233e-08 
-11.6024 -3.99999 -6.39065e-08 
-11.2983 -3.99999 1.07958e-07 
-10.9475 -3.99999 5.7014e-08 
-10.6293 -4 -1.03407e-08 
-10.2801 -3.99999 -5.35824e-09 
-9.95867 -3.99999 -1.9457e-08 
-9.64757 -3.99999 5.3672e-09 
-9.31337 -3.99999 -1.36507e-10 
-8.99727 -3.99999 -8.11093e-09 
-8.68251 -3.99999 1.45995e-08 
-8.36608 -3.99999 -1.70314e-09 
-8.05923 -3.99999 1.76948e-08 
-7.76437 -4 8.41719e-09 
-7.48247 -3.99998 4.73734e-09 
-7.1899 -4 -5.73567e-09 
-6.89356 -4 3.30299e-09 
-6.59624 -3.99999 1.23547e-08 
-6.29458 -3.99999 5.03382e-09 
-5.98811 -3.99999 5.5585e-09 
-5.68811 -3.99999 9.41449e-09 
-5.3839 -3.99999 1.08736e-08 
-5.08485 -3.99999 9.71033e-09 
-4.78987 -3.99999 -6.7584e-10 
-4.4597 -3.99999 2.6774e-08 
-4.17203 -3.99999 1.72546e-08 
-3.8675 -3.99999 1.26348e-08 
-3.54702 -3.99999 4.03008e-08 
-3.25029 -4 4.9808e-08 
-2.95401 -4 1.20069e-07 
-2.66365 -4 1.60262e-07 
-2.39702 -4.00001 2.09645e-07 
-2.13266 -4.00001 2.48685e-07 
-1.84426 -4.00001 1.71711e-07 
-1.57788 -4.00001 -5.44373e-08 
-1.2989 -3.99999 -4.04263e-07 
-1.02186 -3.99997 -4.61463e-07 
-0.724623 -3.99991 -3.32424e-06 
-0.413128 -3.99985 -6.48369e-07 
-0.0075067 -3.99976 -3.33133e-07 
0.407249 -3.99984 3.03904e-07 
0.736345 -3.99992 3.45553e-06 
1.00437 -3.99995 1.4156e-07 
1.27948 -4 4.87776e-07 
1.53244 -4.00001 -1.06316e-07 
1.78758 -4.00001 -2.98982e-07 
2.06497 -4 -3.31576e-07 
2.34931 -4.00001 -2.04627e-07 
2.67282 -4.00001 -1.23153e-07 
2.97563 -4 -7.37773e-08 
3.29427 -4 -6.99232e-08 
3.58795 -4 -4.59448e-08 
3.88821 -3.99999 -1.74733e-08 
4.19946 -3.99999 -1.87842e-08 
4.49814 -3.99999 -1.95395e-08 
4.79674 -3.99999 -1.6646e-08 
5.10639 -3.99999 -3.40932e-09 
5.41253 -3.99999 -1.43051e-08 
5.71993 -3.99999 -4.10085e-09 
6.01323 -3.99999 -5.95119e-09 
6.30558 -3.99999 -7.78213e-09 
6.60237 -3.99999 1.54187e-09 
6.90038 -3.99999 -6.20093e-09 
7.17482 -3.99999 -8.21128e-09 
7.47566 -3.99999 -1.0493e-08 
7.7705 -3.99999 1.14553e-08 
8.0662 -3.99999 -2.74423e-08 
8.35631 -4 7.04959e-09 
8.65729 -3.99999 -1.24349e-08 
8.93137 -3.99999 -6.87286e-09 
9.27845 -3.99999 -8.99637e-09 
9.60532 -3.99999 2.5979e-09 
9.89432 -3.99999 9.94896e-09 
10.2625 -3.99999 -9.27941e-09 
10.576 -3.99999 -2.53165e-08 
10.9771 -3.99999 -1.09244e-07 
11.2972 -3.99999 -6.99522e-08 
11.5911 -3.99999 3.89354e-08 
12 -3.99997 3.19695e-08 
-12 -3.60008 2.32398e-07 
-11.7142 -3.71318 1.49727e-08 
-11.3639 -3.62799 -5.44226e-08 
-11.0481 -3.67642 -2.97701e-08 
-10.7105 -3.6462 -5.92503e-08 
-10.3916 -3.6812 -3.35922e-08 
-10.055 -3.66124 -3.83742e-08 
-9.73434 -3.65646 -3.12975e-08 
-9.40757 -3.68546 -1.64496e-08 
-9.07275 -3.66866 -1.64261e-08 
-8.75192 -3.66774 -1.27511e-08 
-8.43388 -3.67258 -9.90964e-09 
-8.11725 -3.6668 -8.31096e-09 
-7.80413 -3.65909 -6.73141e-09 
-7.50411 -3.65036 -8.78885e-09 
-7.20672 -3.66561 -6.07159e-09 
-6.89553 -3.66868 -4.48268e-09 
-6.58701 -3.66811 -4.18434e-09 
-6.27263 -3.67531 -2.20568e-09 
-5.96404 -3.66732 -8.16062e-10 
-5.65357 -3.66938 2.85481e-09 
-5.34803 -3.66062 6.92715e-09 
-5.05097 -3.65335 1.51755e-08 
-4.72713 -3.69006 1.40455e-08 
-4.435 -3.646 4.11516e-08 
-4.13098 -3.67165 4.3949e-08 
-3.81305 -3.69347 4.94245e-08 
-3.5063 -3.67685 9.11657e-08 
-3.2044 -3.68496 9.95997e-08 
-2.90354 -3.6847 1.18958e-07 
-2.62444 -3.66393 1.81194e-07 
-2.34842 -3.67124 1.79006e-07 
-2.06177 -3.70629 8.88784e-08 
-1.78 -3.68741 1.56715e-07 
-1.5049 -3.69861 -7.22247e-08 
-1.22923 -3.67428 -3.02017e-08 
-0.946051 -3.66422 -3.13202e-08 
-0.642503 -3.63088 8.40152e-07 
-0.302872 -3.68599 -7.70941e-07 
0.0163171 -3.57754 -2.96228e-06 
0.326951 -3.66507 4.27426e-06 
0.664809 -3.64693 -1.32868e-06 
0.967127 -3.63318 5.94602e-08 
1.24161 -3.69045 -5.81262e-08 
1.52519 -3.6867 -1.02742e-07 
1.80714 -3.70094 -1.67666e-08 
2.09561 -3.70048 -8.24166e-08 
2.40937 -3.72852 -1.05072e-07 
2.70984 -3.70015 -1.31947e-07 
3.02156 -3.70378 -9.52446e-08 
3.31453 -3.6683 -1.1364e-07 
3.61451 -3.66951 -7.69446e-08 
3.9257 -3.67665 -5.21264e-08 
4.22652 -3.65938 -4.42215e-08 
4.52672 -3.65819 -2.99604e-08 
4.83829 -3.67143 -1.74606e-08 
5.15008 -3.67005 -1.1242e-08 
5.46246 -3.67344 -5.78025e-09 
5.76549 -3.6595 -1.70191e-09 
6.06278 -3.66063 1.71128e-09 
6.36286 -3.66589 2.99749e-09 
6.66618 -3.66682 4.02376e-09 
6.94914 -3.63642 7.7977e-09 
7.2494 -3.66815 5.64498e-09 
7.55116 -3.66082 7.29551e-09 
7.85416 -3.66179 8.11685e-09 
8.15327 -3.65695 1.00254e-08 
8.45126 -3.66827 9.69561e-09 
8.73808 -3.6297 1.85693e-08 
9.0562 -3.70569 9.41349e-09 
9.38753 -3.68108 1.87629e-08 
9.69118 -3.6314 3.98285e-08 
10.0242 -3.70775 2.04874e-08 
10.3494 -3.65057 5.5028e-08 
10.7164 -3.72338 1.40351e-08 
11.0515 -3.64934 5.76252e-08 
11.3561 -3.61768 6.12496e-08 
11.7088 -3.72304 -2.79565e-08 
12 -3.60629 -2.49205e-07 
-12 -3.29861 1.32544e-07 
-11.6294 -3.36385 -8.02092e-08 
-11.2851 -3.2866 -3.80996e-08 
-10.973 -3.33357 -6.77803e-08 
-10.6573 -3.29718 -5.48424e-08 
-10.3402 -3.34698 -5.9389e-08 
-10.0197 -3.32148 -4.53878e-08 
-9.69805 -3.3218 -3.63757e-08 
-9.38308 -3.36507 -3.0828e-08 
-9.0667 -3.33808 -2.12563e-08 
-8.77083 -3.31516 -1.52816e-08 
-8.47452 -3.33974 -1.39743e-08 
-8.16808 -3.33448 -1.2158e-08 
-7.86286 -3.33119 -9.48494e-09 
-7.55745 -3.30915 -7.07114e-09 
-7.25926 -3.3267 -6.77841e-09 
-6.95567 -3.35018 -6.5089e-09 
-6.64396 -3.34069 -4.94065e-09 
-6.33403 -3.35046 -3.65478e-09 
-6.02686 -3.34071 -7.0109e-10 
-5.71674 -3.34107 3.44788e-09 
-5.40906 -3.32958 9.00979e-09 
-5.10334 -3.31002 1.54227e-08 
-4.79955 -3.36584 2.74572e-08 
-4.49872 -3.3098 3.52567e-08 
-4.19639 -3.33743 5.29192e-08 
-3.89199 -3.37578 7.91218e-08 
-3.58717 -3.36764 1.06128e-07 
-3.27141 -3.36594 1.28301e-07 
-2.9679 -3.37398 1.63683e-07 
-2.66468 -3.33168 1.50391e-07 
-2.37521 -3.34221 1.40226e-07 
-2.08783 -3.39115 7.27048e-08 
-1.8021 -3.38547 -2.35719e-08 
-1.50291 -3.37976 -2.34433e-08 
-1.21334 -3.33845 -1.86827e-07 
-0.903094 -3.31902 6.22648e-08 
-0.622311 -3.20121 4.72777e-07 
-0.330654 -3.30798 -1.83436e-06 
0.00547122 -3.14571 1.89109e-06 
0.332362 -3.25617 -1.5513e-06 
0.632583 -3.22489 2.7018e-06 
0.938281 -3.27493 3.05319e-07 
1.2366 -3.35078 1.55918e-07 
1.51683 -3.3766 1.38459e-07 
1.79829 -3.38938 1.01391e-08 
2.08049 -3.39617 -1.32529e-07 
2.37163 -3.43876 -1.93106e-07 
2.66929 -3.3955 -2.11898e-07 
2.96554 -3.39724 -1.57924e-07 
3.26165 -3.34288 -1.23724e-07 
3.56105 -3.33944 -9.34075e-08 
3.86258 -3.35381 -7.687e-08 
4.16675 -3.32793 -5.32072e-08 
4.47053 -3.32001 -3.74255e-08 
4.77397 -3.34136 -2.6586e-08 
5.08224 -3.34378 -1.72448e-08 
5.39387 -3.34735 -9.34228e-09 
5.70062 -3.33164 -3.72726e-09 
6.00938 -3.32198 -3.30743e-10 
6.30652 -3.33139 2.71059e-09 
6.60784 -3.33858 5.0824e-09 
6.90607 -3.28846 4.9688e-09 
7.20306 -3.33079 6.80945e-09 
7.50517 -3.32817 8.19995e-09 
7.81133 -3.33088 9.61483e-09 
8.11957 -3.32193 1.0839e-08 
8.42365 -3.32467 1.29189e-08 
8.74664 -3.31244 1.53491e-08 
9.06977 -3.38949 2.56397e-08 
9.38098 -3.34228 2.96819e-08 
9.68548 -3.28298 3.06824e-08 
9.99544 -3.37961 5.43069e-08 
10.3057 -3.307 5.17238e-08 
10.6364 -3.40845 8.62831e-08 
10.971 -3.33129 7.09734e-08 
11.3024 -3.25866 2.4868e-08 
11.6348 -3.37504 8.47968e-08 
12 -3.29452 -1.53992e-07 
-12 -2.96978 1.52454e-07 
-11.6632 -3.05163 -3.02996e-08 
-11.3232 -2.96881 2.39449e-08 
-10.9767 -2.97931 -1.95721e-09 
-10.6356 -2.97205 -3.91954e-09 
-10.3014 -3.00522 -1.73282e-08 
-9.97149 -2.99032 -1.61041e-08 
-9.64235 -2.99513 -1.24046e-08 
-9.33796 -3.02767 -1.10529e-08 
-9.03709 -2.98592 -7.48159e-09 
-8.73431 -2.97063 -5.26233e-09 
-8.43591 -3.00008 -4.7942e-09 
-8.13392 -2.99627 -3.79164e-09 
-7.83372 -2.99489 -3.25378e-09 
-7.53179 -2.97183 -2.03283e-09 
-7.23111 -2.99727 -1.39737e-09 
-6.93071 -3.02692 -1.12214e-09 
-6.621 -3.01693 -6.81099e-10 
-6.31882 -3.01935 4.80893e-10 
-6.01105 -3.01338 2.35174e-09 
-5.70455 -3.01005 4.18339e-09 
-5.39711 -2.99795 6.57651e-09 
-5.09167 -2.97736 9.00193e-09 
-4.79288 -3.0319 1.3461e-08 
-4.48788 -2.98206 1.56332e-08 
-4.18916 -3.01002 2.18257e-08 
-3.89235 -3.05379 3.26586e-08 
-3.58991 -3.04776 3.71987e-08 
-3.28717 -3.05893 5.19636e-08 
-2.96512 -3.05216 5.71104e-08 
-2.66609 -2.9945 5.07528e-08 
-2.36203 -2.99978 9.03691e-08 
-2.07776 -3.05908 -3.02255e-09 
-1.78508 -3.06957 -5.46678e-08 
-1.49039 -3.04576 -1.99126e-07 
-1.17157 -2.99635 -5.56066e-07 
-0.913932 -2.89197 -5.49945e-07 
-0.594747 -2.76468 -3.03457e-06 
-0.278051 -2.87351 2.61651e-06 
0.0054886 -2.60284 -9.8901e-07 
0.301417 -2.7537 2.69191e-06 
0.591296 -2.74737 -1.0303e-06 
0.898384 -2.87625 3.91683e-07 
1.20569 -2.98249 1.99948e-07 
1.49811 -3.02978 9.08456e-09 
1.78531 -3.04954 2.1633e-08 
2.06856 -3.06601 -5.574e-09 
2.3576 -3.12831 -7.32425e-08 
2.65347 -3.07544 -4.44688e-08 
2.94879 -3.07221 -6.70542e-08 
3.24926 -3.01628 -4.28851e-08 
3.551 -3.01358 -3.83609e-08 
3.85747 -3.02754 -3.38208e-08 
4.16103 -3.00027 -2.39606e-08 
4.46268 -2.98859 -1.71245e-08 
4.76316 -3.00867 -1.33791e-08 
5.06544 -3.01495 -9.62322e-09 
5.3714 -3.02121 -6.9304e-09 
5.67969 -3.00242 -4.46557e-09 
5.98545 -2.99933 -2.57976e-09 
6.29905 -2.99095 -8.39895e-10 
6.59324 -3.00567 6.93639e-10 
6.91565 -2.97574 1.01166e-09 
7.23424 -2.99719 1.71374e-09 
7.53658 -2.99608 2.29507e-09 
7.84125 -3.00106 3.14227e-09 
8.14183 -2.98679 3.80342e-09 
8.45035 -3.00359 5.08424e-09 
8.74966 -2.97077 5.22415e-09 
9.05144 -3.06265 8.87393e-09 
9.35357 -3.00337 1.00271e-08 
9.66424 -2.94694 1.17045e-08 
9.99065 -3.03235 1.82179e-08 
10.323 -2.97632 1.03953e-08 
10.6506 -3.07799 1.44981e-08 
10.9849 -2.99341 -1.34063e-10 
11.3359 -2.93629 -2.80837e-08 
11.6689 -3.05375 2.88963e-08 
12 -2.95247 -1.36057e-07 
-12 -2.65489 1.37659e-07 
-11.6506 -2.72255 2.44051e-09 
-11.3103 -2.64243 2.71887e-08 
-10.9723 -2.65654 9.87974e-10 
-10.6371 -2.64423 -4.49917e-12 
-10.3022 -2.67661 -7.95545e-09 
-9.96501 -2.66912 -1.04022e-08 
[...]
POINT_DATA 1978 
VECTORS vectors float
0.0109467 -0.0166497 0.9998 
0.0157748 -0.0488152 0.998686 
0.010866 -0.0468309 0.998845 
0.0116659 -0.0362548 0.999277 
0.0115255 -0.0267089 0.999578 
0.0122317 -0.0183272 0.999758 
0.0121526 -0.0130176 0.999841 
0.012702 -0.00966777 0.999872 
0.0129931 -0.00749867 0.999886 
0.0128065 -0.00623977 0.999897 
0.0131448 -0.00528349 0.999898 
0.01327 -0.00457707 0.9999 
0.0132643 -0.0041421 0.999903 
0.0131648 -0.00385921 0.999905 
0.0130954 -0.00358895 0.999907 
0.0132289 -0.00339356 0.999905 
0.0134647 -0.00333326 0.999901 
0.0133259 -0.00303193 0.999905 
0.0133002 -0.0025926 0.999907 
0.0132756 -0.00200117 0.999909 
0.0132409 -0.00116318 0.999911 
0.013251 0.000181768 0.999911 
0.0126615 0.00214334 0.999917 
0.0131775 0.00478874 0.999901 
0.0126608 0.00927434 0.999876 
0.0120658 0.0146139 0.999821 
0.0124067 0.022411 0.999672 
0.0116911 0.0338771 0.999359 
0.011063 0.0483868 0.99877 
0.0104098 0.0685087 0.997599 
0.00894864 0.0959517 0.99535 
0.00733501 0.130655 0.991407 
0.00556458 0.177532 0.984106 
0.00332112 0.247685 0.968842 
0.000141275 0.331736 0.943379 
-0.0033181 0.44621 0.894927 
-0.0059155 0.583965 0.811758 
-0.00791633 0.743913 0.668222 
-0.00720919 0.903158 0.429225 
-0.00024913 0.999874 0.014809 
0.00703133 0.904269 -0.426881 
0.00821162 0.733744 -0.679369 
0.00552443 0.586865 -0.809667 
0.00293808 0.454019 -0.890991 
0.000283425 0.350591 -0.936533 
-0.00240371 0.262063 -0.965054 
-0.00505289 0.191277 -0.981529 
-0.0075966 0.138262 -0.990372 
-0.00898568 0.0955436 -0.995388 
-0.0104243 0.0673155 -0.99768 
-0.0111247 0.0462078 -0.998872 
-0.0115753 0.0322393 -0.999415 
-0.0123475 0.0220292 -0.999682 
-0.0125551 0.0142726 -0.999819 
-0.0125843 0.00876847 -0.999882 
-0.0129473 0.0048482 -0.999904 
-0.0130518 0.0020196 -0.999912 
-0.0132475 7.82611e-05 -0.999911 
-0.0132469 -0.00125853 -0.99991 
-0.0131597 -0.00210322 -0.99991 
-0.0133431 -0.00257805 -0.999907 
-0.0135945 -0.00292342 -0.999902 
-0.0130092 -0.00326107 -0.99991 
-0.0132013 -0.00346076 -0.999907 
-0.0135254 -0.00375129 -0.9999 
-0.0132863 -0.00417682 -0.999902 
-0.0132503 -0.00457383 -0.999901 
-0.0135714 -0.00503477 -0.999894 
-0.0126387 -0.00562085 -0.999904 
-0.0128621 -0.00611449 -0.999898 
-0.013361 -0.00723078 -0.999883 
-0.011968 -0.00934446 -0.999884 
-0.0124291 -0.0122763 -0.999847 
-0.0114214 -0.018178 -0.99977 
-0.0105561 -0.0252458 -0.999628 
-0.0110849 -0.0372972 -0.999246 
-0.0102764 -0.0467036 -0.998858 
-0.0158824 -0.0489033 -0.998681 
-0.0109846 -0.0165949 -0.9998 
0.0109063 -0.0196612 0.999745 
0.0157014 -0.0332102 0.999345 
0.0248746 -0.043722 0.998755 
0.0238918 -0.0382305 0.999005 
0.0263358 -0.0294104 0.999241 
0.0259335 -0.0217604 0.999448 
0.0280398 -0.0154946 0.999507 
0.0291965 -0.0112789 0.999534 
0.0284563 -0.00850669 0.999575 
0.0299627 -0.006698 0.999548 
0.0302907 -0.00549416 0.999549 
0.0304528 -0.00466776 0.999545 
0.0309881 -0.00412186 0.99953 
0.0314943 -0.00375056 0.999516 
0.0325907 -0.00345205 0.999481 
0.0314707 -0.00322436 0.999519 
0.0310873 -0.00302577 0.999532 
0.0316198 -0.0027454 0.999514 
0.0309751 -0.00226358 0.999536 
0.0313746 -0.00155752 0.999525 
0.0308919 -0.000531535 0.999541 
0.0310827 0.00104475 0.999535 
0.0309804 0.00326003 0.999533 
0.0281217 0.00654184 0.999601 
0.0304407 0.0111386 0.999494 
0.0278604 0.017217 0.999482 
0.0257189 0.0260866 0.999348 
0.0253593 0.0382985 0.998963 
0.022804 0.0546116 0.998265 
0.0202568 0.0773697 0.996815 
0.0176384 0.106994 0.994121 
0.0132832 0.1465 0.989139 
0.00753601 0.201505 0.979474 
0.00243406 0.276458 0.96104 
-0.00297952 0.369549 0.929218 
-0.00785429 0.486897 0.873435 
-0.0110018 0.630615 0.776022 
-0.0109763 0.795588 0.605723 
-0.0061376 0.947404 0.319914 
0.000202928 0.999801 -0.0181969 
0.00601466 0.93857 -0.344971 
0.0105098 0.78369 -0.621048 
0.0110457 0.617353 -0.786613 
0.00712506 0.477501 -0.878614 
0.00222387 0.357737 -0.933836 
-0.00319757 0.2648 -0.964314 
-0.00859921 0.192843 -0.981209 
-0.0131618 0.134771 -0.990807 
-0.0177627 0.0964954 -0.995193 
-0.020491 0.0674339 -0.997532 
-0.0242646 0.0483687 -0.998553 
-0.025716 0.033808 -0.999116 
-0.0267676 0.0228871 -0.999399 
-0.0287457 0.015295 -0.999489 
-0.0295745 0.00967163 -0.999535 
-0.029471 0.00541726 -0.99957 
-0.0303478 0.00245623 -0.999555 
-0.030566 0.000382501 -0.999551 
-0.031903 -0.00094666 -0.999509 
-0.0320627 -0.00181409 -0.999502 
-0.0317387 -0.00238789 -0.999511 
-0.0318646 -0.00277939 -0.999507 
-0.0336123 -0.00305149 -0.999448 
-0.031438 -0.00335339 -0.999518 
-0.0319302 -0.00366492 -0.999502 
-0.031925 -0.00404969 -0.9995 
-0.0321521 -0.00448121 -0.999491 
-0.031417 -0.00503271 -0.999509 
-0.0332411 -0.00566295 -0.999453 
-0.0282561 -0.00666455 -0.999595 
-0.0291089 -0.00834115 -0.999561 
-0.0310337 -0.0109071 -0.999482 
-0.025697 -0.014909 -0.999576 
-0.0275721 -0.0209648 -0.999424 
-0.0224238 -0.0294292 -0.999338 
-0.0252714 -0.0382148 -0.998971 
-0.0252624 -0.0434436 -0.998757 
-0.0154415 -0.033816 -0.999329 
-0.0107147 -0.0193934 -0.999752 
0.00738937 -0.0182002 0.999807 
0.0236609 -0.0366843 0.999066 
0.0286816 -0.0422219 0.998721 
0.0307147 -0.0366078 0.998875 
0.0322592 -0.0294014 0.999072 
0.0341645 -0.0221896 0.999187 
0.0354956 -0.0162704 0.999258 
0.0368374 -0.0119185 0.999267 
0.0375641 -0.00888111 0.999278 
0.0384423 -0.00702296 0.999256 
0.0389739 -0.00577895 0.999241 
0.0391938 -0.00478883 0.999238 
0.0394592 -0.00410247 0.999232 
0.0393846 -0.00365913 0.999236 
0.0394069 -0.00334521 0.999238 
0.0395287 -0.0031082 0.999234 
0.0400563 -0.00290643 0.999208 
0.0399789 -0.00256861 0.999216 
0.0398109 -0.00208833 0.999224 
0.0396232 -0.00137827 0.999232 
0.0392243 -0.000303891 0.999249 
0.0386278 0.00133406 0.999272 
0.0379252 0.00375254 0.999296 
0.0373911 0.00691022 0.999294 
0.0362017 0.0116406 0.999298 
0.0351431 0.0178179 0.999242 
0.0338871 0.0262421 0.999098 
0.0315985 0.0377888 0.998807 
0.0286922 0.0548298 0.998102 
0.0251553 0.0772593 0.996709 
0.0199239 0.108888 0.993877 
0.0148611 0.15094 0.98845 
0.00919084 0.206775 0.978361 
0.00252699 0.280068 0.959993 
-0.00432926 0.380491 0.924793 
-0.00959033 0.505646 0.8627 
-0.0124077 0.662215 0.749214 
-0.0111612 0.810996 0.584928 
-0.00803622 0.939686 0.341877 
-0.000567455 0.999937 -0.00706217 
0.00627464 0.938867 -0.344149 
0.0101288 0.803911 -0.594646 
0.0109757 0.6424 -0.766295 
0.00856857 0.491391 -0.870909 
0.00358737 0.37286 -0.927896 
-0.00264567 0.278772 -0.960371 
-0.00939436 0.205182 -0.978696 
-0.0159661 0.148253 -0.988835 
-0.0210204 0.106849 -0.994073 
-0.0251513 0.077548 -0.996688 
-0.0280871 0.0558714 -0.998065 
-0.0308229 0.0398145 -0.99875 
-0.0332036 0.0276945 -0.99908 
-0.0347257 0.0188829 -0.999239 
-0.0358595 0.0122762 -0.999302 
-0.0372096 0.00745685 -0.999299 
-0.0382365 0.00395088 -0.99928 
-0.0388841 0.0014501 -0.999261 
-0.0393336 -0.000212717 -0.999245 
-0.03961 -0.00133393 -0.999233 
-0.0398667 -0.00203168 -0.999221 
-0.0399638 -0.00249391 -0.999213 
-0.0396538 -0.00279103 -0.999232 
-0.0399338 -0.00313156 -0.999213 
-0.0398572 -0.0034156 -0.999218 
-0.0397675 -0.00376753 -0.999221 
-0.0396106 -0.00422366 -0.999225 
-0.0391654 -0.00482918 -0.999243 
-0.039218 -0.00577915 -0.999233 
-0.0388557 -0.00704164 -0.999239 
-0.038028 -0.0089424 -0.999256 
-0.0367336 -0.0118599 -0.999275 
-0.0357852 -0.0156637 -0.999257 
-0.0344235 -0.0216276 -0.999194 
-0.0329719 -0.0286366 -0.999063 
-0.0308769 -0.0364008 -0.998881 
-0.0280999 -0.0423263 -0.998734 
-0.0234467 -0.0363115 -0.999086 
-0.00717235 -0.018027 -0.99981 
0.00615542 -0.0185068 0.999806 
0.0191058 -0.0346324 0.999239 
0.023695 -0.0431731 0.998807 
0.0263269 -0.0379872 0.998952 
0.0281668 -0.0306212 0.999155 
0.0305445 -0.0228713 0.999293 
0.0317355 -0.0166857 0.999378 
0.0329177 -0.0121354 0.999408 
0.0345434 -0.00923785 0.999377 
0.0344276 -0.00725962 0.9994 
0.0345533 -0.00579305 0.999404 
0.0353642 -0.00473438 0.999384 
0.0354583 -0.00399521 0.999382 
0.0355734 -0.00351545 0.99938 
0.0352363 -0.00319597 0.999391 
0.035914 -0.00297286 0.999367 
0.036256 -0.00269936 0.999361 
0.0360819 -0.00233101 0.999365 
0.0360462 -0.00183643 0.999367 
0.0357784 -0.00105802 0.999378 
0.0354296 0.000171735 0.999391 
0.034742 0.00205278 0.999413 
0.0337958 0.00480545 0.999433 
0.0337417 0.00829757 0.999419 
0.0319325 0.0136804 0.999412 
0.0309448 0.0202554 0.999335 
0.0298607 0.0288416 0.999159 
0.0276847 0.0414919 0.998772 
0.0249485 0.0579583 0.998026 
0.0208754 0.0827171 0.996378 
0.0159462 0.116089 0.993127 
0.0108927 0.160174 0.987053 
0.0063134 0.217158 0.976135 
0.000677797 0.294599 0.955639 
-0.00471849 0.395947 0.918277 
-0.00869384 0.533144 0.845992 
-0.00920609 0.662761 0.748778 
-0.00689609 0.828856 0.559399 
-0.00459396 0.956706 0.290929 
0.000501749 0.999943 -0.00566057 
0.00363608 0.951114 -0.308717 
0.0060672 0.825648 -0.564129 
0.00794621 0.667231 -0.744813 
0.0071815 0.51308 -0.858325 
0.00392943 0.390277 -0.920702 
-0.000828746 0.292098 -0.956408 
-0.00608077 0.217772 -0.976002 
-0.0123186 0.158787 -0.987255 
-0.0167282 0.116757 -0.993037 
-0.0207895 0.0842135 -0.996253 
-0.023562 0.061717 -0.997832 
-0.0263557 0.0439725 -0.998704 
-0.0289442 0.0305327 -0.999137 
-0.0304547 0.0212085 -0.999329 
-0.0319124 0.0143141 -0.999405 
-0.033302 0.00894498 -0.999424 
-0.0343167 0.00507163 -0.999417 
-0.0351532 0.00225537 -0.999398 
-0.0353246 0.000323043 -0.999395 
-0.0355864 -0.000971521 -0.999385 
-0.0356158 -0.00179024 -0.999383 
-0.0358749 -0.00227871 -0.999376 
-0.0355314 -0.00266551 -0.99938 
-0.0357004 -0.00297276 -0.99938 
-0.0357401 -0.00326856 -0.999375 
-0.0358364 -0.00363373 -0.99937 
-0.0355179 -0.00412896 -0.99938 
-0.0356334 -0.00488135 -0.999372 
-0.0347157 -0.00593201 -0.999399 
-0.0358276 -0.0073116 -0.999351 
-0.0341131 -0.00942102 -0.999393 
-0.0321751 -0.0125724 -0.999423 
-0.0323617 -0.0168901 -0.999354 
-0.0298827 -0.0234963 -0.999298 
-0.0298287 -0.030444 -0.999113 
-0.0264397 -0.0380669 -0.998947 
-0.0230033 -0.0434435 -0.998812 
-0.0187724 -0.0341835 -0.999261 
-0.00593625 -0.0189971 -0.999795 
0.00450211 -0.0181519 0.999814 
0.0148859 -0.0362391 0.999257 
0.0188088 -0.0452969 0.998813 
0.0211866 -0.0393259 0.999027 
0.0229364 -0.0323963 0.999229 
0.0249297 -0.0242327 0.99942 
0.0262038 -0.0176362 0.999522 
0.0273368 -0.0129241 0.999559 
0.0281161 -0.00956772 0.999583 
0.0280587 -0.00734405 0.999599 
0.0280784 -0.00571625 0.999609 
0.0289081 -0.00458874 0.999591 
0.0288944 -0.00381658 0.999595 
0.0290075 -0.00334354 0.999593 
0.0288535 -0.00302614 0.999598 
0.0294528 -0.00277393 0.999581 
0.0300183 -0.00248626 0.999565 
0.0295878 -0.00208962 0.999579 
0.029592 -0.00149233 0.99958 
0.0292846 -0.000508191 0.99959 
0.0288985 0.00105865 0.999601 
0.0281156 0.00340364 0.999618 
0.0273473 0.00681209 0.999622 
0.0272103 0.0108759 0.999589 
0.0254231 0.017094 0.999549 
0.0246046 0.0246632 0.999411 
0.0236341 0.0343632 0.999148 
0.0213059 0.0479959 0.998639 
0.0189199 0.0672545 0.997576 
0.0149165 0.0928064 0.995593 
0.0102238 0.132064 0.99121 
0.00623862 0.180139 0.983642 
0.0024974 0.239842 0.970833 
-0.00161932 0.322853 0.946468 
-0.00569774 0.44407 0.895988 
-0.00638099 0.556931 0.830551 
-0.00553814 0.714946 0.699156 
-0.00270886 0.825405 0.564511 
-0.00165923 0.931598 0.363412 
0.001161 0.997307 0.0727039 
0.00256061 0.955147 -0.295991 
0.00383104 0.81323 -0.581904 
0.00582164 0.678451 -0.734626 
0.0055521 0.516781 -0.856114 
0.00342719 0.384027 -0.923339 
-6.96844e-05 0.288713 -0.957435 
-0.00405684 0.218576 -0.975831 
-0.00917067 0.160253 -0.987054 
-0.0122006 0.118308 -0.992927 
-0.0160273 0.0859509 -0.996191 
-0.0184638 0.0617107 -0.997943 
-0.0213293 0.0435322 -0.998844 
-0.0234221 0.030951 -0.999265 
-0.0246396 0.0214712 -0.999485 
-0.0258757 0.0143929 -0.99958 
-0.0272148 0.00912187 -0.999607 
-0.0281972 0.00522104 -0.999608 
-0.0288667 0.0023656 -0.9996 
-0.028907 0.000351984 -0.999601 
-0.0293297 -0.000992634 -0.999588 
-0.0288037 -0.00177386 -0.999602 
-0.0296965 -0.00227819 -0.999575 
-0.0291808 -0.00263164 -0.999589 
-0.0291173 -0.00289733 -0.999591 
-0.0291413 -0.00318328 -0.999589 
-0.0290497 -0.00354015 -0.999591 
-0.0289194 -0.00408816 -0.999593 
-0.0290612 -0.00492466 -0.999581 
-0.0278143 -0.0060684 -0.999614 
-0.0295767 -0.00760364 -0.999553 
-0.0278697 -0.00992827 -0.999582 
-0.0261798 -0.0134453 -0.999587 
-0.0268006 -0.0180484 -0.999498 
-0.024473 -0.0249371 -0.99941 
-0.0244363 -0.032304 -0.999201 
-0.0212676 -0.0401476 -0.998989 
-0.0178797 -0.0451468 -0.998841 
-0.014161 -0.0346109 -0.999322 
-0.0044763 -0.018871 -0.999804 
0.00336659 -0.0186288 0.999809 
0.00921447 -0.031892 0.99947 
0.013375 -0.0466381 0.998842 
0.0153122 -0.043028 0.998977 
0.0167493 -0.0362127 0.999225 
0.0184163 -0.0280408 0.999458 
0.0196744 -0.0208351 0.99961 
0.0203794 -0.015224 0.999697 
0.0211403 -0.0112452 0.999733 
0.0212245 -0.00853966 0.999758 
0.0209446 -0.00647476 0.999779 
0.0213597 -0.00497597 0.999779 
0.0215364 -0.0040453 0.999779 
0.0216529 -0.00345435 0.999779 
0.0217358 -0.00310406 0.999778 
0.0217809 -0.00283553 0.999778 
0.022286 -0.00258005 0.999767 
0.0224138 -0.00226601 0.999765 
0.0221063 -0.00176138 0.999773 
0.0220213 -0.000936724 0.999776 
0.0218132 0.000442527 0.999781 
0.0212705 0.00254985 0.999789 
0.0207601 0.00559816 0.999787 
0.0198717 0.009716 0.999774 
0.0197221 0.0145961 0.999717 
0.0182379 0.0219087 0.999612 
0.0174917 0.0306473 0.999395 
0.0162585 0.0415678 0.999022 
0.0147211 0.057833 0.998237 
0.0118012 0.0788047 0.996841 
0.00860351 0.111118 0.993792 
0.00444628 0.15801 0.987451 
0.0014199 0.218564 0.975843 
-0.00147152 0.292811 0.956194 
-0.003966 0.385152 0.922864 
-0.00520531 0.490946 0.871188 
-0.00500555 0.631702 0.775204 
-0.00361002 0.777457 0.628912 
0.000565307 0.969453 0.245122 
0.00364529 0.996284 -0.0853978 
0.00311561 0.928132 -0.372154 
0.00331628 0.902939 -0.429685 
0.00332074 0.785626 -0.618669 
0.00481234 0.587706 -0.809073 
0.00440632 0.432734 -0.901532 
0.00215547 0.319761 -0.947519 
-0.000712656 0.236352 -0.971691 
-0.00472447 0.175244 -0.984536 
-0.00691809 0.132736 -0.991146 
-0.0100334 0.0963641 -0.995317 
-0.0124667 0.0703767 -0.997463 
-0.014933 0.0494123 -0.998686 
-0.0165367 0.0351667 -0.999264 
-0.0178777 0.0249684 -0.999547 
-0.0187703 0.0170494 -0.999697 
-0.019881 0.0110894 -0.999759 
-0.0206987 0.00671105 -0.999782 
-0.0213943 0.00345174 -0.999784 
-0.0216487 0.00109498 -0.999784 
-0.0220362 -0.000575434 -0.999776 
-0.0214614 -0.00155919 -0.999787 
-0.0222333 -0.00215953 -0.999769 
-0.0223751 -0.00250527 -0.999765 
-0.0214977 -0.00278871 -0.999784 
-0.021705 -0.00304899 -0.999779 
-0.0213526 -0.00338161 -0.999785 
-0.0212789 -0.00387711 -0.999785 
-0.0211954 -0.0047013 -0.999787 
-0.0206242 -0.00601987 -0.999789 
-0.0221785 -0.00791371 -0.999742 
-0.0210541 -0.0106186 -0.999742 
-0.0194542 -0.0143675 -0.999728 
-0.0204551 -0.0192905 -0.999625 
-0.0183827 -0.0266449 -0.999497 
-0.018904 -0.0341622 -0.999259 
-0.0159588 -0.0419019 -0.999015 
-0.0129972 -0.0467738 -0.998841 
-0.0106262 -0.0370783 -0.999277 
-0.0032668 -0.0189573 -0.999807 
0.00237876 -0.0183069 0.999822 
0.00732058 -0.0388096 0.999244 
0.0100329 -0.0476575 0.998834 
0.0110422 -0.0422869 0.999065 
0.0123119 -0.0346014 0.999346 
0.0133227 -0.0264419 0.999582 
0.0142685 -0.0194699 0.999729 
0.0147586 -0.0141813 0.99981 
0.0148759 -0.0106044 0.999853 
0.0150453 -0.00791685 0.999875 
0.0150251 -0.00585357 0.999889 
0.0148842 -0.00455416 0.999898 
0.0151012 -0.00374013 0.999898 
0.0151463 -0.00328872 0.999899 
0.0153665 -0.0030073 0.999896 
0.0151851 -0.00277573 0.9999 
0.015409 -0.00252653 0.999897 
0.0156761 -0.00215523 0.999894 
0.0153165 -0.00151294 0.999901 
0.0153522 -0.000388904 0.999901 
0.0150859 0.0014148 0.999904 
0.0147514 0.00412474 0.999901 
0.0141572 0.00781268 0.999888 
0.0133041 0.0126554 0.999849 
0.0133327 0.0185493 0.999757 
0.0120706 0.0272753 0.999573 
0.0109611 0.0374322 0.999258 
0.0103767 0.0515035 0.998639 
0.00823972 0.0703608 0.997508 
0.00613265 0.0992446 0.995068 
0.00311572 0.142124 0.989866 
0.00015072 0.210925 0.977527 
-0.00218973 0.29357 0.955958 
-0.00433745 0.400529 0.916295 
-0.00519352 0.570657 0.821193 
-0.00399118 0.708628 0.705572 
-0.00100696 0.873369 0.487022 
0.000526583 0.972564 0.232427 
-0.000578068 0.90658 0.421979 
0.00119214 0.991442 0.130342 
-0.00160677 0.991209 -0.132026 
-0.00236471 0.919945 -0.39193 
0.00439853 0.802947 -0.596005 
0.00457359 0.640808 -0.76769 
0.00480308 0.472467 -0.881355 
0.00354919 0.352272 -0.935914 
0.00157904 0.260675 -0.96545 
-0.00155176 0.182227 -0.983284 
-0.00396566 0.128965 -0.991664 
-0.00634842 0.093005 -0.995667 
-0.00872511 0.0656201 -0.997825 
-0.010135 0.0475441 -0.998839 
-0.0111374 0.03434 -0.999367 
-0.0123496 0.0242094 -0.999649 
-0.013042 0.0165576 -0.999796 
-0.0137215 0.0108498 -0.999865 
-0.0142862 0.00653098 -0.999895 
-0.0148277 0.00329232 -0.999903 
-0.0153779 0.00080055 -0.9999 
-0.0152519 -0.000755291 -0.999902 
-0.0154459 -0.00179915 -0.999898 
-0.0154783 -0.00230381 -0.999896 
-0.0158273 -0.00260973 -0.99989 
-0.0148307 -0.00285495 -0.999905 
-0.0150753 -0.00309336 -0.9999 
-0.0145938 -0.00341184 -0.999907 
-0.0147174 -0.00397579 -0.999903 
-0.0146946 -0.0048972 -0.999896 
-0.0140215 -0.00626103 -0.999901 
-0.0159066 -0.00806447 -0.99986 
-0.0149339 -0.0107937 -0.99985 
-0.0139558 -0.01493 -0.999811 
-0.0146366 -0.0204722 -0.999704 
-0.013037 -0.0281701 -0.999539 
-0.0134993 -0.0360996 -0.999278 
-0.0110536 -0.0435417 -0.999011 
-0.00894588 -0.0482643 -0.998814 
-0.007289 -0.0373543 -0.999296 
-0.00218425 -0.0196764 -0.999794 
0.0015246 -0.0198957 0.999791 
0.00476444 -0.0375044 0.999302 
0.00667569 -0.0486994 0.998811 
0.00749576 -0.0448005 0.99899 
0.00838093 -0.0370275 0.999298 
0.00906066 -0.0286502 0.999569 
0.00971927 -0.0213369 0.999745 
0.0102242 -0.0157155 0.999844 
0.0100951 -0.011572 0.999902 
0.0102079 -0.00858901 0.99993 
0.0104875 -0.00637373 0.999944 
0.00997332 -0.00479101 0.999958 
0.0100657 -0.00388884 0.99996 
0.0100316 -0.00339995 0.999962 
0.0102037 -0.00313347 0.999962 
0.0101333 -0.00293949 0.999963 
0.010007 -0.00273037 0.999965 
0.0103315 -0.00240795 0.999962 
0.0102408 -0.00184246 0.999965 
0.0101989 -0.000762423 0.999966 
0.0100529 0.000963655 0.999968 
0.00993455 0.00355305 0.999963 
0.00946883 0.0071878 0.999947 
0.00879556 0.0119228 0.999908 
0.00853083 0.0181262 0.99982 
0.00825416 0.0259216 0.999644 
0.00678588 0.0367252 0.999324 
0.00660099 0.0500358 0.998741 
0.00495834 0.0677189 0.997717 
0.00388 0.0946522 0.995519 
0.00169563 0.135476 0.990805 
-0.000402073 0.201422 0.97953 
-0.00229067 0.295959 0.955224 
-0.00410614 0.407357 0.913278 
-0.00430396 0.58012 0.814542 
-0.00210382 0.737013 0.67588 
0.000357187 0.827947 0.560783 
0.00465749 0.994776 0.101795 
0.00196379 0.999517 0.0313521 
0.00204782 0.999295 0.0360106 
0.00210946 0.999807 0.0178086 
-0.00100433 0.998517 -0.0545707 
-0.00170052 0.805971 -0.591931 
0.00484038 0.699618 -0.714479 
0.00455386 0.551365 -0.834268 
0.00426699 0.410792 -0.911737 
0.00298642 0.300274 -0.953872 
0.000713232 0.205602 -0.978661 
-0.00133677 0.14447 -0.989533 
-0.00315236 0.0998326 -0.995022 
-0.00494527 0.071425 -0.997457 
-0.00610686 0.0520308 -0.998641 
-0.00673924 0.0380221 -0.999273 
-0.00768103 0.0272044 -0.999618 
-0.0083101 0.0190999 -0.999801 
-0.00877378 0.0128367 -0.999897 
-0.00917809 0.00800599 -0.999944 
-0.00951895 0.00429318 -0.999966 
-0.0102827 0.00155567 -0.999962 
-0.0100009 -0.000372828 -0.999971 
-0.0107121 -0.00162264 -0.999958 
-0.0101951 -0.00231747 -0.999964 
-0.0104781 -0.00264746 -0.99996 
-0.0100384 -0.0028697 -0.999964 
-0.00992138 -0.00308177 -0.999965 
-0.00971912 -0.00333592 -0.999966 
-0.00974376 -0.00381057 -0.999964 
-0.00960334 -0.00466657 -0.999966 
-0.00956515 -0.00620038 -0.999954 
-0.0106797 -0.00847766 -0.999926 
-0.0104046 -0.0116937 -0.999897 
-0.00943199 -0.0158959 -0.999849 
-0.0103483 -0.0210168 -0.999746 
-0.00897693 -0.0281979 -0.999582 
-0.00936375 -0.0364515 -0.999312 
-0.00768192 -0.0444099 -0.999004 