# vtk DataFile Version 3.0 
Exported using Morpho https://github.com/Morpho-lang/morpho 
ASCII 
DATASET UNSTRUCTURED_GRID 

POINTS 1978 float 
-12 -4 2.30944e-10 
-11.6024 -4 2.03839e-09 
-11.2983 -4 1.19969e-09 
-10.9475 -4 1.06725e-09 
-10.6293 -4 1.13017e-09 
-10.2803 -4 8.30812e-10 
-9.95882 -4 6.72291e-10 
-9.64755 -4 4.06457e-10 
-9.31327 -4 3.71373e-10 
-8.99719 -4 3.50233e-10 
-8.68248 -4 1.71717e-10 
-8.36619 -4 2.38037e-10 
-8.0593 -4 9.48164e-11 
-7.76455 -4 1.32188e-10 
-7.48262 -4 1.37085e-10 
-7.18953 -4 1.98614e-10 
-6.89372 -4 1.44436e-10 
-6.59599 -4 7.85069e-11 
-6.29469 -4 1.00532e-10 
-5.98814 -4 7.11213e-11 
-5.68804 -4 5.21501e-12 
-5.38386 -4 -6.38718e-11 
-5.08476 -4 -1.44805e-10 
-4.78976 -4 -2.20544e-10 
-4.4598 -4 -5.44545e-10 
-4.172 -4 -6.89686e-10 
-3.86754 -4 -9.86498e-10 
-3.54728 -4 -1.46766e-09 
-3.25028 -4 -1.76195e-09 
-2.95415 -4 -2.41457e-09 
-2.66361 -4 -2.61136e-09 
-2.39747 -4 -2.59907e-09 
-2.13231 -4 -2.56064e-09 
-1.84505 -4 -1.58198e-09 
-1.57783 -4 -7.61675e-10 
-1.29912 -4 -1.25362e-09 
-1.02231 -4 -7.17665e-09 
-0.723975 -4 -4.21356e-09 
-0.413326 -4 -3.64192e-08 
-0.00679811 -4 -2.84852e-09 
0.406549 -4 3.67226e-08 
0.735513 -4 5.83225e-09 
1.00546 -4 7.73445e-09 
1.27926 -4 5.31052e-10 
1.53293 -4 1.42462e-09 
1.78895 -4 1.70493e-09 
2.06451 -4 2.85647e-09 
2.34948 -4 2.93767e-09 
2.67299 -4 2.7077e-09 
2.97586 -4 2.23035e-09 
3.29424 -4 1.88034e-09 
3.58791 -4 1.37905e-09 
3.88819 -4 9.69742e-10 
4.19951 -4 7.04535e-10 
4.49814 -4 4.79881e-10 
4.79673 -4 3.08945e-10 
5.10633 -4 1.12015e-10 
5.41253 -4 8.40625e-11 
5.71989 -4 -3.79617e-11 
6.0132 -4 -6.95439e-11 
6.30567 -4 -8.13688e-11 
6.60228 -4 -1.54868e-10 
6.90038 -4 -1.13392e-10 
7.17486 -4 -1.20875e-10 
7.47568 -4 -1.1916e-10 
7.77046 -4 -2.73326e-10 
8.06626 -4 -5.42345e-11 
8.35626 -4 -2.88272e-10 
8.65728 -4 -1.78789e-10 
8.93144 -4 -2.74015e-10 
9.27848 -4 -3.16747e-10 
9.60528 -4 -4.17022e-10 
9.89432 -4 -6.44507e-10 
10.2625 -4 -7.30611e-10 
10.5761 -4 -1.00095e-09 
10.9771 -4 -8.58364e-10 
11.2972 -4 -1.31693e-09 
11.591 -4 -1.89617e-09 
12 -4 -2.87494e-10 
-12 -3.60019 -1.55936e-09 
-11.7147 -3.7138 -8.49239e-10 
-11.3638 -3.62859 -1.04872e-09 
-11.0475 -3.67621 -8.88653e-10 
-10.7103 -3.64598 -9.1428e-10 
-10.3915 -3.68023 -6.96792e-10 
-10.0553 -3.66225 -6.11606e-10 
-9.73387 -3.6594 -4.754e-10 
-9.40566 -3.68723 -3.32299e-10 
-9.06966 -3.66921 -2.7092e-10 
-8.74917 -3.66749 -2.14769e-10 
-8.43151 -3.67169 -1.79359e-10 
-8.11539 -3.66737 -1.54396e-10 
-7.80415 -3.65946 -1.31517e-10 
-7.50468 -3.65171 -1.30546e-10 
-7.20883 -3.66962 -1.19212e-10 
-6.89841 -3.66442 -9.16408e-11 
-6.58895 -3.66913 -8.90269e-11 
-6.27477 -3.67479 -6.07408e-11 
-5.9659 -3.66755 -3.40416e-11 
-5.65593 -3.66927 1.9465e-11 
-5.35042 -3.66146 8.42909e-11 
-5.05301 -3.65514 1.94008e-10 
-4.73009 -3.69081 2.77356e-10 
-4.43766 -3.65059 5.29416e-10 
-4.13398 -3.67356 6.92428e-10 
-3.81688 -3.69454 9.26503e-10 
-3.50853 -3.67928 1.38086e-09 
-3.20681 -3.6827 1.62339e-09 
-2.90565 -3.68242 1.98577e-09 
-2.63035 -3.6589 2.32925e-09 
-2.35683 -3.67073 2.34548e-09 
-2.06786 -3.69559 1.63337e-09 
-1.78559 -3.68923 9.0515e-10 
-1.50906 -3.68805 1.22532e-10 
-1.23165 -3.66345 6.41916e-10 
-0.937995 -3.66142 3.34226e-09 
-0.62843 -3.61714 1.66723e-08 
-0.291982 -3.69094 1.56833e-09 
0.0159209 -3.56461 -2.92431e-08 
0.322596 -3.65602 3.13695e-08 
0.656134 -3.63002 -2.17751e-08 
0.970154 -3.63805 -3.50091e-09 
1.25281 -3.67672 -7.54073e-10 
1.53615 -3.68581 -8.78192e-10 
1.80745 -3.68337 -3.62839e-10 
2.09403 -3.69479 -1.45084e-09 
2.41117 -3.72667 -2.16682e-09 
2.71411 -3.69784 -2.08564e-09 
3.02351 -3.69968 -1.79538e-09 
3.31579 -3.66685 -1.6357e-09 
3.61518 -3.6709 -1.22134e-09 
3.92631 -3.68002 -8.96975e-10 
4.22698 -3.66206 -6.58506e-10 
4.52692 -3.66014 -4.40405e-10 
4.83751 -3.67242 -2.68616e-10 
5.1492 -3.67093 -1.55499e-10 
5.46074 -3.67319 -6.6871e-11 
5.76369 -3.65924 -6.72282e-12 
6.06178 -3.66089 4.32001e-11 
6.36162 -3.6646 6.80119e-11 
6.66596 -3.66776 8.90072e-11 
6.94982 -3.63809 1.10874e-10 
7.25005 -3.66931 1.19079e-10 
7.55129 -3.66155 1.3046e-10 
7.85383 -3.66288 1.46887e-10 
8.15167 -3.65609 1.6539e-10 
8.44963 -3.66825 1.85892e-10 
8.73691 -3.63076 2.44533e-10 
9.05598 -3.70589 2.52964e-10 
9.38755 -3.68091 3.31637e-10 
9.69198 -3.6322 5.02656e-10 
10.025 -3.70833 5.21795e-10 
10.3508 -3.6517 7.71974e-10 
10.7174 -3.72379 6.96008e-10 
11.0528 -3.6498 9.71614e-10 
11.3571 -3.61713 1.04969e-09 
11.7104 -3.72394 8.346e-10 
12 -3.60617 1.65696e-09 
-12 -3.29868 -6.6371e-10 
-11.631 -3.36482 -5.85943e-10 
-11.2869 -3.28687 -3.84791e-10 
-10.9741 -3.33267 -6.50074e-10 
-10.6574 -3.29699 -5.48746e-10 
-10.3387 -3.34626 -5.77433e-10 
-10.0164 -3.32391 -4.38463e-10 
-9.69614 -3.32302 -3.54584e-10 
-9.38323 -3.36823 -2.98667e-10 
-9.0686 -3.33729 -2.12382e-10 
-8.77218 -3.31507 -1.54887e-10 
-8.47462 -3.33826 -1.38042e-10 
-8.16693 -3.33597 -1.19855e-10 
-7.85964 -3.33025 -9.27861e-11 
-7.55457 -3.31172 -7.18229e-11 
-7.25557 -3.32917 -6.63566e-11 
-6.9587 -3.34319 -6.23604e-11 
-6.6455 -3.3424 -5.03035e-11 
-6.33544 -3.34988 -3.57906e-11 
-6.02631 -3.34053 -5.95024e-12 
-5.7158 -3.34029 3.58983e-11 
-5.40801 -3.32978 9.14477e-11 
-5.10268 -3.31248 1.56293e-10 
-4.79998 -3.36713 2.70953e-10 
-4.49911 -3.31519 3.58151e-10 
-4.19798 -3.34164 5.25488e-10 
-3.89269 -3.3775 7.8979e-10 
-3.58644 -3.37211 1.05612e-09 
-3.26925 -3.3637 1.31134e-09 
-2.96485 -3.37041 1.65188e-09 
-2.66281 -3.31914 1.62711e-09 
-2.37706 -3.33389 1.5168e-09 
-2.10064 -3.3841 8.50512e-10 
-1.80252 -3.38265 3.4636e-10 
-1.50781 -3.36539 -1.00568e-09 
-1.21037 -3.3284 -1.80194e-09 
-0.892505 -3.3132 1.53274e-10 
-0.617249 -3.1721 6.23854e-09 
-0.327247 -3.30571 -1.59596e-08 
0.0177223 -3.14162 -4.86925e-08 
0.331738 -3.2293 -1.45171e-08 
0.620435 -3.19454 3.03316e-08 
0.920327 -3.28127 2.14105e-09 
1.2315 -3.32104 1.73759e-09 
1.5121 -3.36997 1.14203e-09 
1.80289 -3.36017 1.8721e-10 
2.07507 -3.38553 -1.55383e-09 
2.36767 -3.43544 -2.01826e-09 
2.66936 -3.39407 -2.08689e-09 
2.97015 -3.39069 -1.52728e-09 
3.26846 -3.33978 -1.17537e-09 
3.56745 -3.34046 -9.08672e-10 
3.8679 -3.358 -7.44609e-10 
4.17062 -3.33144 -5.22237e-10 
4.47295 -3.32276 -3.6991e-10 
4.77498 -3.342 -2.65844e-10 
5.0818 -3.34534 -1.72356e-10 
5.3933 -3.34639 -9.41403e-11 
5.6998 -3.3309 -3.85766e-11 
6.00955 -3.32252 -2.51201e-12 
6.30737 -3.329 2.62312e-11 
6.60997 -3.33953 5.01569e-11 
6.90932 -3.29058 5.09993e-11 
7.20608 -3.33227 6.80991e-11 
7.50749 -3.32852 8.10284e-11 
7.81254 -3.33123 9.51024e-11 
8.11897 -3.31933 1.0666e-10 
8.42118 -3.3244 1.27014e-10 
8.74451 -3.3136 1.54521e-10 
9.06855 -3.38967 2.48065e-10 
9.38076 -3.34242 2.92372e-10 
9.68759 -3.28568 3.18755e-10 
9.99907 -3.38058 5.35137e-10 
10.3072 -3.3061 5.19868e-10 
10.6358 -3.40826 8.05002e-10 
10.9692 -3.33286 6.6601e-10 
11.3006 -3.25783 2.63223e-10 
11.6341 -3.37543 6.32357e-10 
12 -3.29462 7.74041e-10 
-12 -2.96979 -8.19643e-10 
-11.6637 -3.05147 -1.73171e-10 
-11.3228 -2.96893 2.0262e-10 
-10.9757 -2.97865 -3.17528e-11 
-10.634 -2.97153 -6.22998e-11 
-10.3005 -3.006 -1.80078e-10 
-9.97246 -2.99041 -1.74587e-10 
-9.64542 -2.99343 -1.44162e-10 
-9.3427 -3.02782 -1.23925e-10 
-9.04123 -2.98489 -8.35271e-11 
-8.73718 -2.97065 -5.87039e-11 
-8.43641 -2.99985 -5.22915e-11 
-8.13192 -2.99972 -3.96606e-11 
-7.83176 -2.99363 -3.51019e-11 
-7.52971 -2.97581 -2.09545e-11 
-7.23097 -2.99554 -1.71757e-11 
-6.92434 -3.02249 -1.21387e-11 
-6.61707 -3.01644 -7.03618e-12 
-6.31425 -3.01918 5.36606e-12 
-6.00724 -3.01254 2.43724e-11 
-5.70144 -3.00887 4.4778e-11 
-5.39462 -2.99776 7.15545e-11 
-5.09084 -2.97947 9.52488e-11 
-4.79179 -3.03334 1.49022e-10 
-4.48881 -2.98608 1.67953e-10 
-4.19073 -3.01341 2.35791e-10 
-3.89365 -3.05626 3.45715e-10 
-3.58989 -3.05115 4.00835e-10 
-3.28768 -3.05705 5.3639e-10 
-2.96484 -3.04794 6.12e-10 
-2.66683 -2.9833 5.40187e-10 
-2.36196 -2.99109 3.66052e-10 
-2.07739 -3.03441 3.96607e-10 
-1.80377 -3.07192 -6.20919e-10 
-1.50253 -3.03835 -2.13204e-09 
-1.17256 -2.9943 -5.29174e-09 
-0.913129 -2.87449 -5.15616e-09 
-0.576523 -2.75799 -3.16818e-08 
-0.255144 -2.88448 1.0186e-07 
-0.00591897 -2.56701 -9.93627e-08 
0.283918 -2.72755 1.05483e-07 
0.587894 -2.73778 -1.62769e-08 
0.89601 -2.88835 3.54934e-09 
1.20263 -2.95702 2.00644e-09 
1.50594 -3.00827 3.29618e-10 
1.78404 -3.04162 -7.55248e-11 
2.0856 -3.0465 2.90592e-10 
2.36201 -3.1235 -7.12879e-10 
2.65443 -3.06785 -5.46282e-10 
2.94617 -3.07022 -7.63569e-10 
3.24927 -3.01671 -4.78706e-10 
3.55446 -3.01511 -3.93664e-10 
3.86092 -3.03048 -3.44178e-10 
4.16236 -3.00257 -2.58649e-10 
4.46383 -2.99268 -1.80303e-10 
4.76589 -3.00844 -1.38008e-10 
5.06669 -3.01528 -9.88219e-11 
5.37071 -3.02085 -7.23021e-11 
5.6794 -3.00101 -4.50582e-11 
5.98498 -3.0001 -2.48638e-11 
6.29895 -2.98787 -7.24093e-12 
6.59402 -3.007 8.10943e-12 
6.91625 -2.9772 1.1559e-11 
7.23493 -2.99774 1.9094e-11 
7.53665 -2.99557 2.52145e-11 
7.8409 -2.99996 3.37762e-11 
8.14033 -2.98258 4.14195e-11 
8.45005 -3.00405 5.35245e-11 
8.74902 -2.97064 5.63994e-11 
9.04955 -3.06331 9.33472e-11 
9.35326 -3.00483 1.07643e-10 
9.66198 -2.94782 1.18885e-10 
9.98819 -3.03254 1.83993e-10 
10.3221 -2.97702 1.16503e-10 
10.6515 -3.0762 1.8475e-10 
10.9855 -2.99416 1.90657e-11 
11.337 -2.93539 -2.35111e-10 
11.6692 -3.05475 1.67556e-10 
12 -2.95254 6.98353e-10 
-12 -2.65493 -7.06304e-10 
-11.6508 -2.7222 5.15724e-11 
-11.3107 -2.6421 2.65782e-10 
-10.9724 -2.6559 2.53774e-11 
-10.6373 -2.64345 -5.15678e-12 
-10.3025 -2.67574 -8.04121e-11 
-9.96719 -2.6669 -1.1315e-10 
-9.63887 -2.66935 -9.42365e-11 
-9.31313 -2.68077 -6.35221e-11 
-8.9968 -2.64708 -4.60357e-11 
-8.68472 -2.63589 -3.41709e-11 
-8.37664 -2.66793 -2.68253e-11 
-8.07067 -2.66236 -2.41171e-11 
-7.76248 -2.66113 -1.76084e-11 
-7.44809 -2.65054 -1.1108e-11 
-7.14241 -2.67698 -6.27644e-12 
-6.83908 -2.69649 -5.9804e-12 
-6.53097 -2.68517 4.27859e-12 
-6.22654 -2.68836 1.46669e-11 
-5.92038 -2.68083 2.83667e-11 
[...]
POINT_DATA 1978 
VECTORS vectors float
0.00120224 -0.0056296 0.999985 
0.0036506 -0.0475296 0.998863 
0.00288474 -0.0464053 0.998918 
0.00321211 -0.036124 0.999342 
0.00306403 -0.0267201 0.999638 
0.00316722 -0.0183793 0.999826 
0.0031622 -0.0130697 0.999909 
0.00318901 -0.00971042 0.999947 
0.00322905 -0.0075187 0.999966 
0.00321326 -0.00623578 0.999975 
0.00319262 -0.0052743 0.999981 
0.00314727 -0.00456401 0.999984 
0.00310383 -0.00412123 0.999986 
0.00309315 -0.00383955 0.999988 
0.00308685 -0.00358153 0.999989 
0.00307113 -0.00338532 0.999989 
0.00309192 -0.00331015 0.99999 
0.00311857 -0.00301854 0.99999 
0.00312044 -0.00257329 0.999992 
0.00312825 -0.00197403 0.999993 
0.00309026 -0.00112575 0.999994 
0.00309691 0.000222371 0.999995 
0.00305954 0.00218542 0.999993 
0.00307225 0.0048552 0.999983 
0.00300528 0.00935136 0.999951 
0.00298759 0.0147071 0.999887 
0.00290375 0.022525 0.999742 
0.00277155 0.0340199 0.999417 
0.00262899 0.0485809 0.998816 
0.00238246 0.0687585 0.99763 
0.00210313 0.0962855 0.995352 
0.00180392 0.131085 0.99137 
0.00127204 0.178061 0.984019 
0.000749047 0.248207 0.968707 
7.11831e-05 0.332372 0.943148 
-0.000778892 0.446714 0.894676 
-0.00141012 0.584089 0.811688 
-0.00194026 0.744161 0.667997 
-0.00156125 0.902991 0.429656 
2.90288e-05 0.999895 0.0145006 
0.001557 0.904324 -0.426843 
0.00205168 0.734199 -0.678932 
0.00140358 0.587478 -0.809239 
0.000705337 0.45447 -0.890762 
7.40442e-05 0.351042 -0.93636 
-0.00058859 0.262606 -0.964903 
-0.00126526 0.19173 -0.981447 
-0.00183623 0.13866 -0.990338 
-0.0021755 0.095878 -0.995391 
-0.00251015 0.0675458 -0.997713 
-0.00263763 0.0463897 -0.99892 
-0.00279376 0.0323802 -0.999472 
-0.00287619 0.0221367 -0.999751 
-0.00293032 0.0143578 -0.999892 
-0.00300002 0.00884331 -0.999956 
-0.00305322 0.00491424 -0.999983 
-0.003078 0.0020702 -0.999993 
-0.00310532 0.000112405 -0.999995 
-0.00309294 -0.00123168 -0.999994 
-0.00310239 -0.00207664 -0.999993 
-0.0030712 -0.00255947 -0.999992 
-0.00307981 -0.00290975 -0.999991 
-0.00306753 -0.00324401 -0.99999 
-0.00309797 -0.00344698 -0.999989 
-0.0030597 -0.00373604 -0.999988 
-0.00308232 -0.00415808 -0.999986 
-0.00305934 -0.00456214 -0.999985 
-0.00309387 -0.00501874 -0.999983 
-0.00311028 -0.00558918 -0.999979 
-0.00321328 -0.0061026 -0.999976 
-0.00323365 -0.00725405 -0.999968 
-0.00319622 -0.00938271 -0.99995 
-0.00326352 -0.012318 -0.999918 
-0.00328377 -0.0182045 -0.999828 
-0.00336482 -0.0252592 -0.999674 
-0.00337631 -0.0371706 -0.999303 
-0.00290705 -0.0463026 -0.998923 
-0.00360777 -0.0476477 -0.998857 
-0.00124644 -0.00572836 -0.999984 
0.00186623 -0.0030204 0.999995 
0.0150232 -0.0323874 0.999363 
0.0237642 -0.0428633 0.998798 
0.0230642 -0.0379703 0.999013 
0.0254382 -0.0293363 0.999246 
0.02507 -0.02175 0.999449 
0.0271062 -0.015522 0.999512 
0.0282071 -0.0113027 0.999538 
0.0275339 -0.00851534 0.999585 
0.0289789 -0.00669809 0.999558 
0.0293095 -0.0054884 0.999555 
0.0294935 -0.00466131 0.999554 
0.030021 -0.0041106 0.999541 
0.0305785 -0.00373618 0.999525 
0.0315632 -0.00343976 0.999496 
0.0304815 -0.00321413 0.99953 
0.030253 -0.00301298 0.999538 
0.0305665 -0.00272315 0.999529 
0.0300312 -0.00224318 0.999546 
0.0303883 -0.00153579 0.999537 
0.0299463 -0.000502909 0.999551 
0.0301209 0.00107568 0.999546 
0.0299919 0.00329928 0.999545 
0.0272986 0.00658771 0.999606 
0.0293935 0.0111819 0.999505 
0.0269936 0.0172802 0.999486 
0.0248868 0.0261519 0.999348 
0.0244712 0.0383762 0.998964 
0.0220612 0.0547202 0.998258 
0.0195738 0.0775133 0.996799 
0.0170184 0.107139 0.994099 
0.012783 0.14663 0.989109 
0.00726967 0.201858 0.979388 
0.00230488 0.276678 0.96096 
-0.00291043 0.369612 0.929182 
-0.00758932 0.486941 0.873402 
-0.0105221 0.631038 0.77568 
-0.0105509 0.796255 0.604869 
-0.00587013 0.947896 0.318526 
0.000169436 0.99985 -0.0173363 
0.00575319 0.938935 -0.344046 
0.0100351 0.783693 -0.621067 
0.0105049 0.617017 -0.78688 
0.00686763 0.477249 -0.878741 
0.00215974 0.357568 -0.933885 
-0.00304022 0.265409 -0.964131 
-0.00825525 0.193104 -0.981144 
-0.0126438 0.134945 -0.990773 
-0.0171022 0.0965787 -0.995178 
-0.0198056 0.0676072 -0.997515 
-0.0234215 0.0484865 -0.998549 
-0.0248719 0.0339117 -0.999115 
-0.0258949 0.0229627 -0.999401 
-0.0278215 0.015357 -0.999495 
-0.0286341 0.00972069 -0.999543 
-0.02856 0.00546225 -0.999577 
-0.0293777 0.00249354 -0.999565 
-0.0296336 0.000416988 -0.999561 
-0.0309187 -0.000918312 -0.999522 
-0.0310725 -0.00179269 -0.999516 
-0.0308013 -0.00236838 -0.999523 
-0.0309155 -0.00276346 -0.999518 
-0.0325713 -0.00303767 -0.999465 
-0.0305185 -0.00333998 -0.999529 
-0.0309673 -0.00365148 -0.999514 
-0.0309497 -0.00403502 -0.999513 
-0.0311869 -0.00446778 -0.999504 
-0.0304887 -0.00502197 -0.999523 
-0.0321834 -0.00565715 -0.999466 
-0.0273735 -0.00666693 -0.999603 
-0.0281631 -0.00835337 -0.999569 
-0.0299783 -0.0109316 -0.999491 
-0.0248661 -0.014939 -0.999579 
-0.0265898 -0.0209608 -0.999427 
-0.0216433 -0.0293707 -0.999334 
-0.0243658 -0.0379516 -0.998983 
-0.0241669 -0.0426041 -0.9988 
-0.014764 -0.032938 -0.999348 
-0.0018297 -0.00309434 -0.999994 
0.00099324 -0.00382364 0.999993 
0.0226762 -0.0355014 0.999112 
0.0280122 -0.041543 0.998744 
0.0301027 -0.0364086 0.998884 
0.0316629 -0.0292729 0.99907 
0.033463 -0.0221443 0.999195 
0.0348332 -0.0162588 0.999261 
0.036168 -0.0119251 0.999275 
0.0367919 -0.00888617 0.999284 
0.0377304 -0.00701976 0.999263 
0.0383071 -0.00577056 0.999249 
0.0384812 -0.00478359 0.999248 
0.0387305 -0.00409768 0.999241 
0.0387064 -0.00365069 0.999244 
0.0387828 -0.00333366 0.999242 
0.0389015 -0.00309683 0.999238 
0.0392957 -0.00288758 0.999224 
0.0392553 -0.00255139 0.999226 
0.0390824 -0.00207161 0.999234 
0.038911 -0.0013579 0.999242 
0.0385168 -0.000278276 0.999258 
0.0379608 0.00136474 0.999278 
0.0372852 0.00378386 0.999298 
0.03666 0.00694464 0.999304 
0.0356097 0.0116803 0.999298 
0.0345151 0.0178587 0.999245 
0.0331906 0.0262774 0.999104 
0.0309543 0.0378519 0.998804 
0.0281041 0.0548991 0.998096 
0.024601 0.07739 0.996697 
0.0195476 0.109106 0.993838 
0.0145469 0.151151 0.988404 
0.00897328 0.206305 0.978447 
0.00240076 0.280622 0.959815 
-0.00424556 0.380703 0.924688 
-0.00938182 0.505757 0.862625 
-0.0121166 0.662667 0.748816 
-0.0108595 0.810871 0.585124 
-0.00773638 0.939211 0.343254 
-0.000443252 0.999961 -0.00877434 
0.00611515 0.93846 -0.345335 
0.00982784 0.80534 -0.592732 
0.0107244 0.643225 -0.765602 
0.00833535 0.491591 -0.870786 
0.00352141 0.373424 -0.927654 
-0.00260157 0.278493 -0.960435 
-0.00910691 0.20574 -0.978564 
-0.0155163 0.148545 -0.988784 
-0.0205082 0.107049 -0.994042 
-0.0245942 0.0775436 -0.996686 
-0.0275574 0.0559077 -0.998056 
-0.0302577 0.0398267 -0.998748 
-0.0325685 0.0277177 -0.999085 
-0.0341081 0.0189091 -0.999239 
-0.035252 0.0123129 -0.999303 
-0.036532 0.00748796 -0.999304 
-0.0375274 0.00398269 -0.999288 
-0.038171 0.00147891 -0.99927 
-0.0386499 -0.000186524 -0.999253 
-0.0389467 -0.00131035 -0.999241 
-0.0391771 -0.00201192 -0.99923 
-0.0392651 -0.0024795 -0.999226 
-0.0390596 -0.00277835 -0.999233 
-0.0392538 -0.00311764 -0.999224 
-0.0391731 -0.00340381 -0.999227 
-0.0390816 -0.00375771 -0.999229 
-0.0389419 -0.00421421 -0.999233 
-0.0384993 -0.00482171 -0.999247 
-0.0385563 -0.00577143 -0.99924 
-0.0379977 -0.00703701 -0.999253 
-0.0372966 -0.00894883 -0.999264 
-0.0361498 -0.0118705 -0.999276 
-0.0349836 -0.0156732 -0.999265 
-0.0337908 -0.0215887 -0.999196 
-0.0321396 -0.0285227 -0.999076 
-0.0302502 -0.0361978 -0.998887 
-0.0274804 -0.041592 -0.998757 
-0.022457 -0.0351517 -0.99913 
-0.000794041 -0.00397105 -0.999992 
0.00104086 -0.00402647 0.999992 
0.0185973 -0.0335398 0.999264 
0.0234159 -0.0424187 0.998826 
0.0261131 -0.0376954 0.998948 
0.0279704 -0.0304452 0.999145 
0.0302804 -0.0228077 0.999281 
0.031482 -0.0166773 0.999365 
0.0326589 -0.0121374 0.999393 
0.0342415 -0.00923761 0.999371 
0.0341489 -0.00725518 0.999391 
0.034296 -0.00578726 0.999395 
0.0350698 -0.00472786 0.999374 
0.0351888 -0.00398916 0.999373 
0.0352793 -0.00350853 0.999371 
0.0349906 -0.00318618 0.999383 
0.0355987 -0.0029566 0.999362 
0.0359809 -0.00268534 0.999349 
0.0358078 -0.00231695 0.999356 
0.0357601 -0.00181744 0.999359 
0.0354949 -0.00103286 0.999369 
0.0351394 0.000200055 0.999382 
0.0344642 0.00208443 0.999404 
0.0335502 0.00483566 0.999425 
0.0334441 0.00832735 0.999406 
0.0317034 0.0137032 0.999403 
0.0307022 0.020275 0.999323 
0.0296068 0.0288696 0.999145 
0.0274597 0.0415045 0.998761 
0.0247273 0.0579808 0.998011 
0.0206947 0.0827246 0.996358 
0.015795 0.116132 0.993108 
0.0108121 0.160425 0.986989 
0.00620575 0.217607 0.976017 
0.000735996 0.293593 0.95593 
-0.00464338 0.395465 0.918469 
-0.00857718 0.533124 0.845993 
-0.00903589 0.662202 0.749271 
-0.00677989 0.829372 0.558655 
-0.00455532 0.957545 0.288249 
0.000568372 0.999996 -0.00287339 
0.0034288 0.951631 -0.307225 
0.0060096 0.825587 -0.564243 
0.00792665 0.666913 -0.745093 
0.00709109 0.513392 -0.858125 
0.0038397 0.389577 -0.920986 
-0.000800701 0.292576 -0.956242 
-0.00609994 0.217158 -0.976117 
-0.0122116 0.158837 -0.987229 
-0.0165864 0.11677 -0.993021 
-0.0205938 0.0843066 -0.996227 
-0.0233742 0.0617321 -0.997819 
-0.0261444 0.0439758 -0.998691 
-0.0286955 0.0305504 -0.999121 
-0.0302141 0.0212393 -0.999318 
-0.0316598 0.0143303 -0.999396 
-0.0330309 0.00896742 -0.999414 
-0.0340461 0.00509704 -0.999407 
-0.0348622 0.00228425 -0.99939 
-0.0350432 0.000350193 -0.999386 
-0.0353142 -0.000947167 -0.999376 
-0.0353301 -0.00177044 -0.999374 
-0.0355861 -0.00226466 -0.999364 
-0.035275 -0.00265279 -0.999374 
-0.035418 -0.00296039 -0.999368 
-0.0354646 -0.00325853 -0.999366 
-0.0355536 -0.0036257 -0.999361 
-0.0352329 -0.00412154 -0.999371 
-0.0353428 -0.00487501 -0.999363 
-0.0344629 -0.00592461 -0.999389 
-0.0355073 -0.00730341 -0.999343 
-0.0338434 -0.00941643 -0.999383 
-0.0319468 -0.0125655 -0.999411 
-0.0320805 -0.0168716 -0.999343 
-0.0296833 -0.0234215 -0.999285 
-0.0295449 -0.0302887 -0.999105 
-0.0262459 -0.0377904 -0.998941 
-0.0227159 -0.0426185 -0.998833 
-0.0182735 -0.0330609 -0.999286 
-0.00070942 -0.0039556 -0.999992 
0.00037345 -0.00407828 0.999991 
0.0145649 -0.0349808 0.999282 
0.0186175 -0.044489 0.998836 
0.021047 -0.03905 0.999016 
0.0227922 -0.0321977 0.999222 
0.0247616 -0.0241491 0.999402 
0.0260264 -0.0176221 0.999506 
0.0271548 -0.0129211 0.999548 
0.0279328 -0.00955837 0.999564 
0.027876 -0.00733513 0.999585 
0.027909 -0.00571081 0.999594 
0.0287343 -0.00458272 0.999577 
0.028725 -0.00381401 0.99958 
0.028832 -0.00333733 0.999579 
0.0286815 -0.00301692 0.999584 
0.0292892 -0.0027629 0.999567 
0.0298156 -0.00247393 0.999552 
0.0294151 -0.00207357 0.999565 
0.0294087 -0.00147087 0.999566 
0.0291 -0.000481636 0.999576 
0.0287189 0.00108748 0.999587 
0.0279368 0.00343049 0.999604 
0.0271852 0.00683283 0.999607 
0.0270364 0.0108936 0.999575 
0.025266 0.0171028 0.999535 
0.0244484 0.0246549 0.999397 
0.0234795 0.0343592 0.999134 
0.0211709 0.0479688 0.998625 
0.0187882 0.0672441 0.99756 
0.0148102 0.0928001 0.995575 
0.0101614 0.132083 0.991187 
0.00619094 0.180045 0.983639 
0.00245674 0.240429 0.970664 
-0.00158183 0.322783 0.946472 
-0.00562224 0.444176 0.895922 
-0.00623603 0.556115 0.831082 
-0.00533672 0.714896 0.69921 
-0.00256426 0.82844 0.560071 
-0.00153175 0.931006 0.365001 
0.00121156 0.997522 0.0703513 
0.002444 0.954892 -0.296942 
0.0037423 0.813895 -0.581 
0.00565641 0.677185 -0.735791 
0.00544064 0.516776 -0.856103 
0.00337392 0.384112 -0.92328 
-0.00011508 0.28804 -0.957619 
-0.0040383 0.218765 -0.975769 
-0.00910256 0.160118 -0.987056 
-0.0120991 0.118408 -0.992891 
-0.0159169 0.0859745 -0.99617 
-0.0183524 0.0617015 -0.997926 
-0.0211905 0.043534 -0.998827 
-0.0232633 0.0309578 -0.99925 
-0.0244865 0.0214856 -0.999469 
-0.0257219 0.014408 -0.999565 
-0.0270407 0.00914452 -0.999593 
-0.0280125 0.00524822 -0.999594 
-0.0286895 0.00239472 -0.999586 
-0.0287254 0.000382144 -0.999587 
-0.0291502 -0.000965201 -0.999575 
-0.0286297 -0.00175336 -0.999589 
-0.0295226 -0.00226271 -0.999562 
-0.0290119 -0.00261887 -0.999576 
-0.0289437 -0.0028868 -0.999577 
-0.0289718 -0.00317512 -0.999575 
-0.028878 -0.00353488 -0.999577 
-0.0287417 -0.00408573 -0.999579 
-0.0288851 -0.00492068 -0.999571 
-0.0276473 -0.00606365 -0.999599 
-0.0293855 -0.00759709 -0.999539 
-0.0276873 -0.00992085 -0.999567 
-0.026012 -0.0134429 -0.999571 
-0.0266226 -0.0180311 -0.999483 
-0.0243046 -0.0248514 -0.999396 
-0.0242836 -0.0321091 -0.999189 
-0.02113 -0.0398182 -0.998984 
-0.0176767 -0.0442523 -0.998864 
-0.0138596 -0.0334684 -0.999344 
-0.000561439 -0.00393842 -0.999992 
0.000240265 -0.00428447 0.99999 
0.00905747 -0.0307855 0.999485 
0.0132062 -0.045463 0.998879 
0.0152452 -0.0426328 0.998975 
0.0166814 -0.0359649 0.999214 
0.0183395 -0.0279119 0.999442 
0.0195883 -0.0207984 0.999592 
0.0203015 -0.0152131 0.999678 
0.0210597 -0.0112343 0.999715 
0.0211428 -0.00852764 0.99974 
0.0208746 -0.00646685 0.999761 
0.0212938 -0.00497388 0.999761 
0.0214666 -0.00404404 0.999761 
0.0215857 -0.00345118 0.999761 
0.0216696 -0.00309612 0.99976 
0.0217103 -0.00282523 0.99976 
0.0222104 -0.00256822 0.99975 
0.0223338 -0.00225011 0.999748 
0.0220382 -0.00173954 0.999756 
0.0219451 -0.000908623 0.999759 
0.0217361 0.000474309 0.999764 
0.0211916 0.00257757 0.999772 
0.0206941 0.00562163 0.99977 
0.0198051 0.00972926 0.999757 
0.0196511 0.0146051 0.9997 
0.0181768 0.0218963 0.999595 
0.0174426 0.0306359 0.999378 
0.0162 0.0415622 0.999005 
0.0146645 0.0578405 0.998218 
0.0117529 0.0788572 0.996817 
0.00856704 0.111299 0.99375 
0.00444146 0.15816 0.987404 
0.00143613 0.218409 0.975856 
-0.00146221 0.293118 0.956075 
-0.00390142 0.384717 0.923026 
-0.00514063 0.491164 0.871052 
-0.00493397 0.633536 0.773697 
-0.00338347 0.775363 0.631507 
0.00069423 0.969594 0.24472 
0.00324309 0.995719 -0.0923781 
0.00291874 0.930504 -0.366271 
0.00316508 0.911471 -0.411349 
0.00314817 0.785439 -0.618932 
0.00463798 0.589995 -0.807394 
0.00433408 0.43322 -0.901278 
0.00213583 0.320062 -0.947394 
-0.000714365 0.236589 -0.97161 
-0.00467624 0.175603 -0.98445 
-0.00689861 0.13279 -0.99112 
-0.0100182 0.0962399 -0.995308 
-0.0124373 0.0703106 -0.997448 
-0.0148811 0.0493997 -0.998668 
-0.0164814 0.0351581 -0.999246 
-0.0178066 0.0249732 -0.99953 
-0.0187264 0.0170546 -0.999679 
-0.0198053 0.0111069 -0.999742 
-0.0206223 0.00673083 -0.999765 
-0.0213212 0.00347701 -0.999767 
-0.0215742 0.00112496 -0.999767 
-0.0219527 -0.000546419 -0.999759 
-0.0214021 -0.00153455 -0.99977 
-0.0221575 -0.00214282 -0.999752 
-0.0223002 -0.00249342 -0.999748 
-0.0214349 -0.00277895 -0.999766 
-0.0216442 -0.00304072 -0.999761 
-0.0212846 -0.00337645 -0.999768 
-0.0212242 -0.00387645 -0.999767 
-0.0211303 -0.00470135 -0.999766 
-0.0205631 -0.00601511 -0.999771 
-0.0220893 -0.00790523 -0.999725 
-0.0209755 -0.0106086 -0.999724 
-0.0193894 -0.0143561 -0.999709 
-0.0203652 -0.0192615 -0.999607 
-0.0183109 -0.0265368 -0.99948 
-0.0188019 -0.0339426 -0.999247 
-0.0158885 -0.0415574 -0.99901 
-0.0128945 -0.0458966 -0.998863 
-0.0104306 -0.0358552 -0.999303 
-0.000475395 -0.00392313 -0.999992 
0.000362295 -0.00399893 0.999992 
0.00721019 -0.0375177 0.99927 
0.00998 -0.046824 0.998853 
0.0110289 -0.0419828 0.999058 
0.0122972 -0.0343783 0.999333 
0.013306 -0.0263557 0.999564 
0.0142497 -0.01945 0.999709 
0.0147422 -0.014174 0.999791 
0.0148626 -0.0105958 0.999833 
0.0150292 -0.00791108 0.999856 
0.0150131 -0.00585217 0.99987 
0.0148767 -0.0045562 0.999879 
0.0150929 -0.00374112 0.999879 
0.0151415 -0.00328365 0.99988 
0.0153525 -0.00299807 0.999878 
0.0151835 -0.00276451 0.999881 
0.0153978 -0.00251219 0.999878 
0.0156614 -0.00213484 0.999875 
0.0153056 -0.00148497 0.999882 
0.0153384 -0.000355776 0.999882 
0.0150636 0.00144662 0.999886 
0.0147406 0.00415296 0.999883 
0.0141436 0.00783218 0.999869 
0.0132987 0.0126687 0.999831 
0.0133109 0.0185588 0.999739 
0.0120742 0.0272737 0.999555 
0.0109623 0.0374214 0.99924 
0.0103715 0.0514897 0.99862 
0.00824282 0.070354 0.997488 
0.00614624 0.0994753 0.995021 
0.00312489 0.141954 0.989868 
0.000171084 0.210855 0.977517 
-0.00215096 0.292767 0.956182 
-0.00431148 0.400414 0.916324 
-0.00500649 0.569553 0.82194 
-0.00367248 0.712089 0.702079 
-0.00059923 0.879437 0.476013 
0.000325957 0.979315 0.202345 
-0.000122374 0.907749 0.419513 
0.00131349 0.991455 0.13044 
-0.000772343 0.991592 -0.129402 
-0.00254788 0.914151 -0.405365 
0.00411032 0.807012 -0.590521 
0.00461341 0.641723 -0.766923 
0.00472494 0.472619 -0.881254 
0.00348432 0.350817 -0.936437 
0.00151654 0.259631 -0.965707 
-0.00155033 0.182319 -0.983238 
-0.00400894 0.128737 -0.991671 
-0.00633974 0.0929902 -0.995647 
-0.00872373 0.0656513 -0.997805 
-0.0101451 0.0474879 -0.99882 
-0.0111297 0.0343241 -0.999349 
-0.0123419 0.024206 -0.999631 
-0.0130361 0.0165778 -0.999778 
-0.0137118 0.0108695 -0.999847 
-0.0142679 0.00655681 -0.999877 
-0.0148114 0.00332426 -0.999885 
-0.0153633 0.000836691 -0.999882 
-0.015234 -0.000722059 -0.999884 
-0.0154415 -0.00177281 -0.999879 
-0.0154608 -0.00228541 -0.999878 
-0.0158129 -0.00259671 -0.999872 
-0.0148237 -0.00284466 -0.999886 
-0.0150752 -0.00308538 -0.999882 
-0.0145916 -0.00340975 -0.999888 
-0.0147143 -0.00397545 -0.999884 
-0.0146918 -0.00489891 -0.99988 
-0.0140137 -0.00625896 -0.999882 
-0.0158883 -0.00805731 -0.999841 
-0.0149164 -0.0107829 -0.999831 
-0.013948 -0.0149191 -0.999791 
-0.0146181 -0.0204451 -0.999684 
-0.0130253 -0.0280638 -0.999521 
-0.0134718 -0.0358628 -0.999266 
-0.0110371 -0.0431653 -0.999007 
-0.0088935 -0.0473178 -0.99884 
-0.00717625 -0.0361406 -0.999321 
-0.000252833 -0.00383636 -0.999993 
0.000173191 -0.00389303 0.999992 
0.00469073 -0.0362703 0.999331 
0.00663748 -0.0477351 0.998838 
0.0074877 -0.0443889 0.998986 
0.0083816 -0.0368116 0.999287 
0.00905793 -0.0285409 0.999552 
0.009717 -0.0212933 0.999726 
0.0102212 -0.0156972 0.999825 
0.0100996 -0.0115614 0.999882 
0.0102132 -0.0085801 0.999911 
0.0104915 -0.00637097 0.999925 
0.00998401 -0.0047942 0.999939 
0.0100799 -0.00388952 0.999942 
0.0100473 -0.00339538 0.999944 
0.0102158 -0.00312392 0.999943 
0.0101523 -0.00292707 0.999944 
0.0100216 -0.00271502 0.999946 
0.0103399 -0.00238597 0.999944 
0.0102494 -0.00181227 0.999946 
0.0102066 -0.000726759 0.999948 
0.0100546 0.000999246 0.999949 
0.00994491 0.00358593 0.999944 
0.00947434 0.0072111 0.999929 
0.0088105 0.0119394 0.99989 
0.00853674 0.0181356 0.999799 
0.00826483 0.0259227 0.99963 
0.00680656 0.0367032 0.999303 
0.00661437 0.0500236 0.998726 
0.00496859 0.0677393 0.997691 
0.00389404 0.0945361 0.995514 
0.00170385 0.135863 0.990726 
-0.000361582 0.201024 0.979586 
-0.00227248 0.295483 0.955345 
-0.00404078 0.405394 0.914133 
-0.00422117 0.580529 0.814229 
-0.00186169 0.734414 0.678699 
0.00012143 0.832613 0.553854 
0.00441769 0.995231 0.0974497 
0.00199497 0.999402 0.0345084 
0.00215384 0.999332 0.0364864 
0.00206042 0.999681 0.0252019 
-0.000963395 0.998781 -0.0493482 
-0.00121645 0.804389 -0.594102 
0.00468443 0.692427 -0.721472 
0.0047258 0.554563 -0.832128 
0.00429962 0.411826 -0.911252 
0.00295546 0.300208 -0.953869 
0.000712945 0.205867 -0.97858 
-0.00136195 0.144637 -0.989484 
-0.00314725 0.0999941 -0.994983 
-0.00496225 0.0714503 -0.997432 
-0.00611699 0.0520548 -0.998626 
-0.00676012 0.0380031 -0.999255 
-0.00769875 0.0271733 -0.999601 
-0.00831805 0.0190921 -0.999783 
-0.0087896 0.0128412 -0.999879 
-0.00918675 0.00801955 -0.999926 
-0.00952424 0.00431541 -0.999945 
-0.0102888 0.00158566 -0.999946 
-0.0100111 -0.000338703 -0.99995 
-0.0107166 -0.00159224 -0.999941 
-0.0101971 -0.00229328 -0.999945 
-0.0104947 -0.00263427 -0.999941 
-0.0100505 -0.00285829 -0.999945 
-0.00994359 -0.00307263 -0.999946 
-0.00972985 -0.00333124 -0.999947 
-0.00976243 -0.00381262 -0.999945 
-0.00961591 -0.00467086 -0.999943 
-0.00957278 -0.00620005 -0.999935 
-0.01068 -0.00847137 -0.999907 
-0.0104038 -0.0116852 -0.999878 
-0.0094332 -0.0158843 -0.999829 
-0.0103426 -0.0209879 -0.999726 