# vtk DataFile Version 3.0 
Exported using Morpho https://github.com/Morpho-lang/morpho 
ASCII 
DATASET UNSTRUCTURED_GRID 

POINTS 1978 float 
-11.9989 -3.9984 -7.94157e-07 
-11.6023 -3.99962 -1.32435e-05 
-11.2991 -3.99958 -5.12779e-06 
-10.9482 -3.99973 -3.19706e-06 
-10.6296 -3.99996 -8.04499e-06 
-10.2782 -3.99981 -5.09149e-06 
-9.95699 -3.99971 -5.38111e-06 
-9.6478 -3.99958 -2.03113e-06 
-9.31417 -3.99959 -2.16945e-06 
-8.99849 -3.99973 -2.82613e-06 
-8.68297 -3.99967 -2.11505e-07 
-8.36427 -3.99981 -1.65011e-06 
-8.05821 -3.99966 4.58561e-07 
-7.76261 -3.99995 -3.9728e-07 
-7.48003 -3.99889 -7.12374e-07 
-7.19159 -4.0003 -1.69933e-06 
-6.90071 -3.99972 -8.45702e-07 
-6.59218 -3.9997 1.47967e-07 
-6.29434 -3.99969 -4.55928e-07 
-5.98809 -3.99978 -2.49332e-07 
-5.689 -3.99976 3.63217e-07 
-5.38453 -3.99966 8.73883e-07 
-5.08544 -3.99968 1.36238e-06 
-4.79216 -3.99995 8.53457e-07 
-4.45721 -3.99944 4.80161e-06 
-4.17397 -3.99986 5.24421e-06 
-3.8657 -3.99968 5.92113e-06 
-3.54459 -3.9997 1.09544e-05 
-3.24985 -3.99989 1.30422e-05 
-2.95142 -4.0003 2.02968e-05 
-2.66194 -3.99984 2.44463e-05 
-2.39572 -4.00033 2.76637e-05 
-2.13184 -4.00042 2.85735e-05 
-1.83732 -4.00034 1.67787e-05 
-1.57697 -4.00035 3.37094e-06 
-1.29616 -3.99951 -6.80271e-06 
-1.01517 -3.99885 3.39083e-05 
-0.729729 -3.99613 -0.000145052 
-0.412842 -3.99334 0.000248423 
-0.0131551 -3.99025 5.68332e-06 
0.409645 -3.99374 -0.000252805 
0.742074 -3.99628 0.000129817 
1.00902 -3.99712 -5.13644e-05 
1.26904 -4.0007 1.9554e-05 
1.52205 -4.00032 -1.85338e-05 
1.78504 -4.00041 -2.60152e-05 
2.06032 -3.99997 -3.50958e-05 
2.34783 -4.00039 -2.51254e-05 
2.67202 -4.00021 -2.24354e-05 
2.97304 -4.00033 -1.6177e-05 
3.29521 -3.99968 -1.5132e-05 
3.58659 -3.99995 -1.09705e-05 
3.88789 -3.99966 -6.31725e-06 
4.19881 -3.99978 -5.15781e-06 
4.49843 -3.99973 -3.9734e-06 
4.79748 -3.99968 -2.67028e-06 
5.10672 -3.99968 -6.6693e-07 
5.41285 -3.99962 -1.23205e-06 
5.72022 -3.99964 1.82949e-07 
6.01302 -3.99969 2.63082e-07 
6.30511 -3.99971 1.47255e-07 
6.6029 -3.9996 1.14883e-06 
6.9006 -3.99962 5.4413e-07 
7.17435 -3.99959 3.1964e-07 
7.47588 -3.99982 1.53866e-07 
7.77123 -3.99924 2.61291e-06 
8.06535 -3.99973 -1.24314e-06 
8.35658 -3.99972 2.30863e-06 
8.65769 -3.99957 6.62293e-07 
8.93022 -3.9995 1.20926e-06 
9.27812 -3.99956 1.13629e-06 
9.60588 -3.99957 3.04861e-06 
9.89426 -3.99953 4.15494e-06 
10.263 -3.99955 4.04607e-06 
10.5757 -3.9995 5.15159e-06 
10.9773 -3.99957 -1.07721e-06 
11.2971 -3.9996 9.40249e-06 
11.5917 -3.99973 9.63959e-06 
11.9989 -3.99836 1.41373e-06 
-11.9999 -3.59769 2.60833e-05 
-11.7183 -3.71377 -1.31745e-05 
-11.3675 -3.6264 -1.13882e-06 
-11.0506 -3.67806 3.2895e-06 
-10.7093 -3.6485 2.35884e-06 
-10.3891 -3.68397 -3.89445e-06 
-10.0526 -3.66036 -1.81529e-07 
-9.73438 -3.65335 -7.21004e-07 
-9.40974 -3.6816 1.14765e-06 
-9.0766 -3.66684 2.08476e-06 
-8.75501 -3.66776 6.72271e-07 
-8.43522 -3.67608 2.42594e-06 
-8.11848 -3.66787 6.17163e-07 
-7.80551 -3.66022 1.23769e-06 
-7.50438 -3.64157 2.49609e-06 
-7.20783 -3.65849 3.75163e-06 
-6.88908 -3.67962 3.37685e-06 
-6.58225 -3.66591 3.4297e-06 
-6.26807 -3.67612 3.88635e-06 
-5.96134 -3.66749 4.29453e-06 
-5.65274 -3.67014 3.89922e-06 
-5.34756 -3.66089 4.47656e-06 
-5.05045 -3.65085 5.41207e-06 
-4.72718 -3.69285 7.67328e-06 
-4.43593 -3.636 3.46412e-06 
-4.13159 -3.67173 5.90939e-06 
-3.80852 -3.69097 9.63952e-06 
-3.50244 -3.67317 5.98437e-06 
-3.20012 -3.68585 7.60376e-06 
-2.90152 -3.68616 4.82138e-06 
-2.62027 -3.66621 -1.34e-06 
-2.34273 -3.67368 4.30893e-06 
-2.05168 -3.71965 7.34663e-06 
-1.77487 -3.68342 6.91515e-06 
-1.49876 -3.70444 -1.2908e-05 
-1.22181 -3.6892 -2.53278e-05 
-0.948655 -3.66686 -3.49551e-05 
-0.650428 -3.64121 -7.77868e-06 
-0.317735 -3.6707 -0.000416228 
0.0129959 -3.58646 -0.000327168 
0.330896 -3.67433 0.000631899 
0.670927 -3.65031 8.20824e-05 
0.968537 -3.6405 2.4623e-05 
1.23721 -3.68682 -1.30923e-05 
1.52024 -3.70255 3.56871e-05 
1.8016 -3.70654 2.9972e-06 
2.09346 -3.70671 -5.08683e-06 
2.40889 -3.73524 -1.06673e-05 
2.70719 -3.70202 -1.18169e-05 
3.01831 -3.71147 -1.32992e-05 
3.3125 -3.66625 -2.41e-06 
3.61061 -3.6679 -6.54859e-06 
3.92259 -3.67283 -7.24577e-06 
4.22359 -3.65805 -4.90919e-06 
4.52607 -3.65639 -4.98741e-06 
4.84003 -3.67076 -5.59551e-06 
5.15162 -3.66915 -4.86919e-06 
5.46454 -3.67453 -3.62262e-06 
5.76743 -3.6602 -4.31906e-06 
6.06358 -3.66096 -4.29621e-06 
6.36381 -3.6676 -3.5846e-06 
6.66717 -3.6665 -3.59328e-06 
6.94882 -3.63513 -3.12492e-06 
7.24869 -3.66763 -1.28115e-06 
7.55158 -3.66069 -2.91515e-06 
7.8544 -3.66049 -2.65623e-06 
8.15519 -3.65751 -1.19387e-06 
8.45187 -3.66865 -2.65836e-06 
8.73874 -3.62951 -1.1968e-06 
9.05654 -3.70672 7.71075e-07 
9.38726 -3.68308 -1.01556e-07 
9.69009 -3.63171 -1.1072e-06 
10.0235 -3.70837 3.47e-06 
10.3476 -3.64979 8.67231e-07 
10.7155 -3.72397 1.22344e-05 
11.0509 -3.64973 -5.25424e-06 
11.3566 -3.61835 -1.64785e-06 
11.7095 -3.72309 1.8999e-05 
11.9998 -3.60662 -2.77662e-05 
-11.9997 -3.29854 1.03738e-05 
-11.6285 -3.3624 -2.414e-06 
-11.2822 -3.28631 2.8861e-06 
-10.9695 -3.33567 9.68889e-06 
-10.656 -3.29903 4.75014e-06 
-10.3429 -3.34816 3.0718e-06 
-10.026 -3.31962 -2.65602e-06 
-9.70174 -3.32057 -2.36534e-06 
-9.38381 -3.35936 1.97355e-06 
-9.06337 -3.33886 1.18899e-06 
-8.76889 -3.31509 -1.77753e-06 
-8.47355 -3.34316 -1.88271e-06 
-8.16823 -3.3338 -1.06944e-06 
-7.86697 -3.33401 -1.12396e-06 
-7.5635 -3.3039 -7.21511e-07 
-7.25739 -3.32221 -6.23164e-07 
-6.95331 -3.35752 -1.24849e-06 
-6.64438 -3.33951 -1.48213e-06 
-6.33311 -3.35088 -1.39346e-06 
-6.02723 -3.34081 -1.14792e-06 
-5.71875 -3.34189 -1.74354e-06 
-5.41147 -3.32989 -2.1084e-06 
-5.10522 -3.30914 -1.27051e-06 
-4.79864 -3.36161 -2.22416e-06 
-4.49751 -3.30559 -2.04669e-06 
-4.19147 -3.33258 -3.02289e-06 
-3.89105 -3.37586 -4.1773e-06 
-3.58471 -3.36057 -4.09101e-06 
-3.27143 -3.3672 -3.16513e-06 
-2.96818 -3.37278 -6.56398e-06 
-2.66999 -3.34154 2.11569e-06 
-2.37509 -3.34788 -2.25336e-08 
-2.08268 -3.41074 -4.58241e-06 
-1.78871 -3.38213 -9.00371e-06 
-1.49163 -3.3912 5.29821e-06 
-1.21178 -3.35294 -2.93792e-05 
-0.914272 -3.32713 -1.26849e-05 
-0.62839 -3.23775 -7.54004e-05 
-0.323012 -3.30453 -0.000332441 
0.00159051 -3.15903 0.00018218 
0.32591 -3.2548 0.00028682 
0.640202 -3.26993 1.18915e-05 
0.93673 -3.28792 5.32771e-05 
1.23474 -3.3666 6.10289e-06 
1.51163 -3.40022 4.84241e-06 
1.80204 -3.39559 2.21412e-07 
2.0786 -3.40404 7.64381e-06 
2.36906 -3.44534 9.306e-06 
2.66102 -3.40138 5.48395e-06 
2.96167 -3.40434 5.24509e-06 
3.25232 -3.3427 2.7786e-06 
3.5559 -3.33783 2.22403e-06 
3.8611 -3.34833 2.41416e-06 
4.16786 -3.32192 3.1862e-06 
4.46787 -3.31866 2.99784e-06 
4.77457 -3.34094 1.23871e-06 
5.08412 -3.34164 1.94982e-06 
5.39542 -3.34858 2.05969e-06 
5.7016 -3.3327 1.93646e-06 
6.0092 -3.32213 1.07901e-06 
6.30466 -3.33307 1.57786e-06 
6.60452 -3.33833 2.0457e-06 
6.90186 -3.28613 2.34121e-06 
7.19826 -3.32938 1.28143e-06 
7.50098 -3.32821 6.32876e-07 
7.80996 -3.32988 4.94132e-07 
8.12037 -3.32569 9.58025e-07 
8.42825 -3.32443 2.05932e-06 
8.75084 -3.31164 1.29008e-06 
9.07256 -3.39003 -2.0234e-06 
9.38168 -3.34285 -1.18986e-06 
9.68267 -3.28055 2.9238e-06 
9.99107 -3.37951 -5.25387e-07 
10.3038 -3.30818 -1.47493e-06 
10.6369 -3.40961 -1.13033e-05 
10.9727 -3.33058 -1.00699e-05 
11.3046 -3.25944 1.7878e-06 
11.6364 -3.37544 1.73651e-06 
11.9996 -3.2941 -1.25224e-05 
-11.9998 -2.96972 1.31283e-05 
-11.6631 -3.05088 -1.28719e-05 
-11.3231 -2.96807 -7.06316e-06 
-10.9776 -2.97919 -5.20175e-07 
-10.6378 -2.97256 -6.74818e-07 
-10.3022 -3.00331 -1.51159e-06 
-9.9709 -2.99078 -5.25623e-06 
-9.63829 -2.99769 -4.4386e-06 
-9.33035 -3.02749 -1.33793e-06 
-9.03057 -2.98621 -2.08702e-07 
-8.73035 -2.96974 -2.67913e-06 
-8.43611 -3.0006 -3.48229e-06 
-8.1369 -2.99099 -2.27519e-06 
-7.83741 -2.99635 -1.18108e-07 
-7.53484 -2.96776 2.78808e-07 
-7.23934 -2.99956 -2.21445e-06 
-6.93315 -3.03032 -2.23831e-06 
-6.62322 -3.01567 -2.23159e-06 
-6.32168 -3.0195 -1.7985e-06 
-6.01476 -3.01405 -1.47417e-06 
-5.70823 -3.01159 -1.6249e-06 
-5.39938 -2.998 -1.41852e-06 
-5.09106 -2.97791 -3.74531e-07 
-4.79261 -3.02991 -2.9577e-07 
-4.48693 -2.97637 1.76704e-07 
-4.1889 -3.00582 3.96723e-07 
-3.89143 -3.04821 3.3235e-06 
-3.59375 -3.04387 5.20617e-06 
-3.28749 -3.05902 6.45597e-06 
-2.96582 -3.05276 1.21397e-05 
-2.66457 -3.01045 9.09561e-06 
-2.3569 -3.01271 1.1406e-05 
-2.06506 -3.08804 1.25103e-06 
-1.76792 -3.06543 -5.21422e-06 
-1.47738 -3.05862 -5.84547e-06 
-1.17464 -3.00298 -3.40888e-05 
-0.915999 -2.91314 -3.18716e-05 
-0.607315 -2.79837 -0.000282424 
-0.287224 -2.86996 0.000432977 
0.0120522 -2.62203 -0.000184353 
0.310561 -2.7878 0.000113745 
0.598508 -2.7622 0.000172767 
0.898501 -2.85716 -1.50169e-05 
1.19741 -3.0251 -8.27034e-06 
1.49297 -3.04919 -4.68351e-06 
1.77225 -3.07888 1.90227e-07 
2.07547 -3.06946 -1.02334e-05 
2.35933 -3.13118 -1.46817e-05 
2.65478 -3.085 -1.15137e-05 
2.94981 -3.07405 -8.71587e-06 
3.24973 -3.00982 -8.89517e-06 
3.54954 -3.01285 -5.51356e-06 
3.85428 -3.02239 -3.84727e-06 
4.15724 -2.99684 -5.07547e-07 
4.46203 -2.98256 4.65383e-07 
4.75899 -3.01 3.67003e-07 
5.06429 -3.01317 6.18013e-07 
5.37203 -3.02207 1.46925e-06 
5.68045 -3.0042 1.95734e-06 
5.9865 -2.99909 1.09658e-06 
6.29892 -2.9926 6.37434e-07 
6.59237 -3.00418 1.86251e-06 
6.91464 -2.97352 1.83343e-06 
7.2325 -2.99532 2.21713e-06 
7.53617 -2.99753 8.50478e-07 
7.84006 -3.00117 2.6528e-07 
8.14423 -2.99325 2.01513e-06 
8.45062 -3.00161 3.17257e-06 
8.75074 -2.97093 2.53201e-06 
9.05392 -3.06141 8.06642e-07 
9.35364 -3.00102 7.85373e-07 
9.66791 -2.94589 4.27803e-06 
9.99312 -3.03273 6.45482e-06 
10.3231 -2.97547 3.02641e-06 
10.6495 -3.07995 9.61799e-08 
10.9847 -2.99255 -3.45538e-07 
11.3362 -2.93665 7.63324e-06 
11.6698 -3.05271 1.00797e-05 
11.9998 -2.95174 -1.11636e-05 
-11.9996 -2.65446 1.22817e-05 
-11.6516 -2.72197 -7.70641e-06 
-11.3108 -2.64281 -1.9611e-06 
-10.9708 -2.65427 2.34758e-06 
-10.6362 -2.64495 1.1077e-06 
[...]
POINT_DATA 1978 
VECTORS vectors float
0.053366 -0.0751927 0.996113 
0.0508568 -0.0569048 0.997732 
0.0521206 -0.0519284 0.99795 
0.0505004 -0.0371222 0.998687 
0.0525537 -0.0258367 0.998921 
0.0541475 -0.0175973 0.999001 
0.0570869 -0.0123503 0.998907 
0.0577068 -0.00884703 0.9989 
0.0577824 -0.0074151 0.998893 
0.0587761 -0.0062518 0.998841 
0.0586316 -0.0053532 0.998846 
0.0587685 -0.00485247 0.99883 
0.0594635 -0.00449329 0.998789 
0.06032 -0.00442097 0.998735 
0.0611899 -0.00369624 0.99869 
0.0604929 -0.00319467 0.998509 
0.0593611 -0.00344976 0.998787 
0.0596788 -0.00339545 0.998767 
0.0596159 -0.0028748 0.998773 
0.0596892 -0.00232577 0.99877 
0.0594764 -0.00156897 0.998788 
0.0592863 -0.000452274 0.998808 
0.0593763 0.00161102 0.998809 
0.0570649 0.00418707 0.998937 
0.0571372 0.00797907 0.998919 
0.0563182 0.0134859 0.998903 
0.0535833 0.0211651 0.998913 
0.0519726 0.0315951 0.998716 
0.0495104 0.0458933 0.998276 
0.0460907 0.0650572 0.997364 
0.0413262 0.0915206 0.995496 
0.0343434 0.125864 0.991986 
0.0256534 0.170975 0.985452 
0.0134318 0.240913 0.970933 
0.000806535 0.323094 0.946794 
-0.0140396 0.437866 0.899263 
-0.0285149 0.580083 0.814218 
-0.0358135 0.740158 0.671275 
-0.0278895 0.90377 0.426026 
-0.000656174 0.998882 0.0142034 
0.0272989 0.903117 -0.42741 
0.0349624 0.730343 -0.681996 
0.027951 0.579545 -0.814616 
0.0139108 0.448143 -0.893988 
0.00211441 0.343498 -0.939561 
-0.0110015 0.254376 -0.967498 
-0.0233069 0.185396 -0.982882 
-0.0314069 0.133359 -0.991085 
-0.0396281 0.0911601 -0.995572 
-0.0451153 0.0641757 -0.997456 
-0.0501209 0.0437602 -0.998344 
-0.0530444 0.0303198 -0.998705 
-0.0545066 0.0204355 -0.998886 
-0.0562384 0.013279 -0.998911 
-0.0575825 0.00777225 -0.998894 
-0.0578007 0.00390826 -0.9989 
-0.0585054 0.0013976 -0.998857 
-0.058814 -0.000413242 -0.998832 
-0.0596247 -0.001523 -0.998779 
-0.0602528 -0.00233172 -0.998735 
-0.0601324 -0.0030335 -0.998737 
-0.0601157 -0.0030009 -0.99874 
-0.0609374 -0.00323439 -0.998693 
-0.0602704 -0.00393565 -0.998736 
-0.0599124 -0.00389951 -0.998753 
-0.0602697 -0.00428986 -0.998736 
-0.0602352 -0.00503199 -0.998728 
-0.0601373 -0.00510193 -0.998732 
-0.0608678 -0.00577067 -0.998693 
-0.0580272 -0.00680477 -0.998857 
-0.056789 -0.00685259 -0.998928 
-0.0584126 -0.00854049 -0.99885 
-0.0552569 -0.0119985 -0.999001 
-0.0542574 -0.0172556 -0.998992 
-0.0502716 -0.0246126 -0.999061 
-0.0486707 -0.0379922 -0.998732 
-0.053099 -0.0513649 -0.997927 
-0.0504097 -0.0568372 -0.997753 
-0.0534823 -0.0751279 -0.996112 
0.0362377 -0.075859 0.997065 
0.0470527 -0.0653874 0.997905 
0.0394437 -0.0474343 0.999506 
0.0430819 -0.0407269 0.999641 
0.0436985 -0.0305899 0.999957 
0.0475275 -0.021451 1 
0.0473003 -0.015125 1.00011 
0.0476238 -0.0110293 1.00034 
0.0510156 -0.00836552 0.999748 
0.0501288 -0.00674251 1.00001 
0.0505353 -0.00561288 1.00019 
0.0514519 -0.00479427 0.999933 
0.0510271 -0.00406587 0.999931 
0.0504582 -0.00374564 0.999959 
0.0482772 -0.00362326 1.00007 
0.0506016 -0.00357616 1.00014 
0.0521805 -0.00342766 0.999853 
0.0508183 -0.00294918 0.999931 
0.0514041 -0.00243125 0.999897 
0.0506278 -0.00181371 0.999941 
0.0505277 -0.000841545 0.999957 
0.0494385 0.000622729 1.00002 
0.0483411 0.00280062 1.00008 
0.0504919 0.00593654 0.999746 
0.0455524 0.0103951 1.00038 
0.0465072 0.0164738 1.00003 
0.045981 0.0252501 0.999852 
0.0421194 0.0374563 0.999625 
0.0395604 0.0539168 0.998966 
0.0346676 0.0757731 0.997718 
0.0281156 0.105129 0.99525 
0.0222016 0.144837 0.990369 
0.0156558 0.199121 0.980748 
0.00492029 0.273574 0.96308 
-0.00462576 0.368815 0.930238 
-0.0135299 0.487896 0.873515 
-0.0190567 0.628389 0.777941 
-0.0205553 0.789771 0.612029 
-0.0152221 0.941213 0.332592 
0.000177662 0.997632 -0.0145781 
0.0166185 0.934825 -0.349813 
0.0213922 0.776201 -0.62922 
0.0170601 0.615546 -0.788222 
0.0122861 0.476784 -0.879845 
0.00405908 0.360036 -0.93387 
-0.00654076 0.262956 -0.965834 
-0.017138 0.189165 -0.982913 
-0.0272359 0.132444 -0.991952 
-0.0325661 0.0943783 -0.996166 
-0.0382073 0.0660583 -0.998072 
-0.0392005 0.0472462 -0.999552 
-0.042492 0.0328858 -0.999807 
-0.0452945 0.0221071 -0.999988 
-0.0458775 0.0146829 -1.0001 
-0.0469967 0.00908485 -1.00012 
-0.0492635 0.0048921 -1.00003 
-0.0496658 0.00202754 -1.00001 
-0.0507835 -2.23502e-06 -0.999937 
-0.0499743 -0.00131016 -0.999973 
-0.0501525 -0.00214393 -0.999953 
-0.05098 -0.00264373 -0.999907 
-0.0508842 -0.00295767 -0.999915 
-0.0489833 -0.00324243 -1.00002 
-0.0511599 -0.00359383 -0.99991 
-0.0506134 -0.00384194 -0.999947 
-0.0503499 -0.00420124 -0.99995 
-0.0502364 -0.0046575 -0.999951 
-0.0509066 -0.00515372 -0.999705 
-0.0482935 -0.00575245 -1.00027 
-0.0538029 -0.0066294 -0.999557 
-0.0511891 -0.0080917 -0.999922 
-0.0465254 -0.0106485 -1.00038 
-0.0513198 -0.0145153 -0.999668 
-0.045751 -0.0208069 -1.00031 
-0.049342 -0.0304283 -0.999681 
-0.0417032 -0.0406821 -0.999695 
-0.0387989 -0.0470929 -0.999547 
-0.0479442 -0.0646408 -0.997909 
-0.0365143 -0.0763835 -0.99702 
0.0310326 -0.0782866 0.99706 
0.0309129 -0.0543727 0.999445 
0.0303688 -0.0453379 1.00012 
0.0330415 -0.0403019 0.999812 
0.0345084 -0.0311414 1.00053 
0.0374858 -0.0224674 1.00018 
0.0388082 -0.016162 1.00046 
0.0400091 -0.0118976 1.00024 
0.04122 -0.00895921 1.00063 
0.0419622 -0.00709967 1.00039 
0.0425991 -0.00588635 1.00035 
0.043182 -0.00495468 1.00012 
0.043101 -0.00419613 1.00033 
0.043676 -0.00372901 1.0003 
0.0434835 -0.00352274 1.00049 
0.0436778 -0.0033861 1.00028 
0.0440375 -0.00314606 1.00006 
0.0436932 -0.00271683 1.00028 
0.0437616 -0.00228152 1.00028 
0.0435719 -0.00168312 1.00029 
0.0432883 -0.000688506 1.00031 
0.0426687 0.000940223 1.00035 
0.0414456 0.00334143 1.0006 
0.0414287 0.00645766 1.00039 
0.0395917 0.0113108 1.0004 
0.0385764 0.0174705 1.00034 
0.0371244 0.0254384 1.00023 
0.0345345 0.0374868 0.999934 
0.0316828 0.0540559 0.999278 
0.0277949 0.0765059 0.997708 
0.0225828 0.107366 0.995211 
0.0165143 0.14846 0.990242 
0.0100923 0.20368 0.980165 
0.00239207 0.280582 0.960756 
-0.00493843 0.380981 0.925764 
-0.0105193 0.503727 0.864564 
-0.0137713 0.655085 0.75563 
-0.0124365 0.80804 0.58777 
-0.00850268 0.940719 0.334081 
-0.00109853 0.997549 -0.00221849 
0.00680387 0.9395 -0.336951 
0.0116942 0.79712 -0.602516 
0.0126257 0.640974 -0.767747 
0.00992696 0.491343 -0.871707 
0.00458861 0.37226 -0.929119 
-0.00298309 0.273189 -0.96307 
-0.010019 0.202724 -0.980343 
-0.0174907 0.146949 -0.989959 
-0.0224694 0.10741 -0.995154 
-0.0277845 0.0762298 -0.998144 
-0.0306193 0.0558702 -0.999223 
-0.0339234 0.0393506 -0.999906 
-0.0367046 0.0270948 -1.00002 
-0.0381018 0.0183448 -1.00057 
-0.0396071 0.0119425 -1.00041 
-0.0410188 0.00702074 -1.0004 
-0.0418494 0.00359245 -1.00038 
-0.0428624 0.00104489 -1.00033 
-0.0433868 -0.000615071 -1.0003 
-0.0437523 -0.00161113 -1.00028 
-0.044041 -0.00223513 -1.00026 
-0.0444105 -0.00268217 -1.00005 
-0.0438386 -0.00298056 -1.00047 
-0.044296 -0.00331875 -1.00006 
-0.0438637 -0.0036035 -1.00028 
-0.0437258 -0.00392111 -1.00029 
-0.043732 -0.00434604 -1.00029 
-0.0435708 -0.00497988 -1.0005 
-0.0428059 -0.00591613 -1.00034 
-0.042655 -0.00708785 -1.00035 
-0.0414533 -0.00897534 -1.00039 
-0.0400613 -0.0117777 -1.00045 
-0.0392107 -0.0153499 -1.00046 
-0.0367662 -0.0217533 -1.00046 
-0.035674 -0.030096 -1.00007 
-0.0325579 -0.0402103 -1.00006 
-0.0299851 -0.0452255 -1.00015 
-0.0311263 -0.0552913 -0.9994 
-0.0304135 -0.077879 -0.997121 
0.0205655 -0.0782586 0.997326 
0.0254027 -0.0566374 0.999456 
0.026806 -0.0475065 0.999903 
0.0295818 -0.0425464 1.00003 
0.0321649 -0.0327988 1.00033 
0.0345142 -0.0233812 1.00049 
0.0361265 -0.0166668 1.00055 
0.0375306 -0.0120595 1.00075 
0.0390731 -0.00922833 1.00027 
0.0389589 -0.00737198 1.00049 
0.0393388 -0.00595092 1.00027 
0.039824 -0.00482549 1.00067 
0.0398148 -0.00403967 1.00046 
0.0399774 -0.00361725 1.00044 
0.0398392 -0.00337535 1.00024 
0.040281 -0.00313379 1.0004 
0.0407523 -0.00285003 1.00061 
0.0406726 -0.00251752 1.00041 
0.040707 -0.00206918 1.00041 
0.0404642 -0.00137187 1.00043 
0.0400153 -0.000229748 1.00046 
0.0392634 0.00167402 1.00049 
0.0382498 0.00446351 1.0003 
0.0378573 0.00791922 1.0007 
0.0362504 0.0134164 1.00028 
0.0351519 0.0199793 1.00041 
0.03395 0.0286805 1.00024 
0.0314977 0.0410091 0.999891 
0.0284059 0.0578702 0.999167 
0.0240164 0.0822692 0.997812 
0.0183243 0.115954 0.994424 
0.0126968 0.160747 0.988298 
0.00721447 0.217302 0.977342 
0.000392897 0.297879 0.955807 
-0.00562428 0.398499 0.918214 
-0.0101733 0.533662 0.846417 
-0.0114535 0.666855 0.745298 
-0.0096062 0.82578 0.562375 
-0.00594096 0.953398 0.295576 
8.85157e-05 0.997215 -0.015167 
0.00415175 0.944691 -0.321777 
0.00756229 0.825401 -0.562836 
0.00938875 0.668559 -0.743807 
0.00913385 0.515746 -0.8576 
0.00513334 0.390359 -0.921779 
-0.000482884 0.294948 -0.95673 
-0.00740287 0.214254 -0.978001 
-0.0142502 0.15745 -0.988655 
-0.0193083 0.115423 -0.994403 
-0.0238427 0.0838486 -0.997483 
-0.0270205 0.0613624 -0.998826 
-0.0301642 0.0438379 -0.999846 
-0.0327677 0.0304936 -1.00045 
-0.0345627 0.0211474 -1.00022 
-0.035901 0.0139737 -1.00049 
-0.0376673 0.0086934 -1.0005 
-0.0388127 0.00478671 -1.00049 
-0.039681 0.00187862 -1.00047 
-0.0399955 -9.68426e-05 -1.00045 
-0.0402126 -0.00129913 -1.00044 
-0.0400673 -0.00202671 -1.00044 
-0.0402162 -0.0024854 -1.00062 
-0.0399582 -0.00282846 -1.00023 
-0.0401044 -0.00313138 -1.00063 
-0.0402654 -0.00344251 -1.00043 
-0.0403712 -0.0037362 -1.00042 
-0.0401507 -0.00416833 -1.00044 
-0.0402755 -0.00496532 -1.00044 
-0.0394389 -0.00609182 -1.00047 
-0.0404287 -0.00747178 -1.00043 
-0.0387294 -0.00953138 -1.0005 
-0.0367208 -0.0126512 -1.00057 
-0.0367056 -0.01691 -1.00052 
-0.0342591 -0.0240626 -1.00049 
-0.0332945 -0.0325866 -1.0003 
-0.0297554 -0.0426186 -1.00004 
-0.0260355 -0.0473375 -0.999935 
-0.0252532 -0.0577236 -0.999407 
-0.0205711 -0.0779649 -0.997352 
0.0137567 -0.0794658 0.997333 
0.0190547 -0.058193 0.999724 
0.0204809 -0.0492302 0.999729 
0.0230686 -0.0448832 1.00035 
0.0250988 -0.0349617 1.00023 
0.0272117 -0.024712 1.00092 
0.0286838 -0.0176109 1.00077 
0.0296957 -0.0130555 1.00058 
0.0306361 -0.00968823 1.001 
0.0302589 -0.00752724 1.0008 
0.0301955 -0.00587762 1.00081 
0.0309628 -0.00457422 1.00078 
0.0309226 -0.00381172 1.00079 
0.0311262 -0.003439 1.00076 
0.0307294 -0.0031904 1.00076 
0.031818 -0.00293305 1.00073 
0.0323668 -0.00263679 1.00071 
0.0317308 -0.0022724 1.00074 
0.0318587 -0.00177797 1.00074 
0.0315328 -0.000896103 1.00076 
0.0311512 0.000632134 1.00077 
0.0302613 0.00303795 1.00079 
0.0292984 0.00648228 1.00079 
0.029456 0.0106213 1.00073 
0.0271689 0.017126 1.00069 
0.0264564 0.0246611 1.00055 
0.0254484 0.0343779 1.00029 
0.023279 0.0481105 0.999813 
0.0206388 0.0674704 0.998795 
0.016039 0.0933223 0.996879 
0.0111593 0.130739 0.9928 
0.00629219 0.180155 0.98515 
0.00331418 0.235555 0.973247 
-0.00189203 0.32243 0.947891 
-0.00678707 0.444056 0.896867 
-0.00805416 0.564091 0.826735 
-0.00787133 0.718699 0.6951 
-0.00463731 0.811052 0.58347 
-0.00351072 0.930026 0.362232 
0.000791796 0.994122 0.0770447 
0.00290442 0.952586 -0.295925 
0.00516121 0.815298 -0.577233 
0.00673343 0.667399 -0.744866 
0.00690688 0.513968 -0.858766 
0.00432798 0.389082 -0.922483 
0.000541181 0.295112 -0.956847 
-0.00406964 0.223746 -0.976025 
-0.00976011 0.161821 -0.988109 
-0.0134467 0.119001 -0.994417 
-0.0173034 0.0862644 -0.99745 
-0.0198384 0.0618048 -0.999182 
-0.0230196 0.0438309 -1.00003 
-0.0253125 0.0308881 -1.00044 
-0.0267063 0.0212208 -1.00065 
-0.0275492 0.0142112 -1.00075 
-0.0294471 0.00888667 -1.00077 
-0.0304235 0.00487568 -1.00078 
-0.0312149 0.00194402 -1.00077 
-0.031101 -9.04662e-05 -1.00077 
-0.0314467 -0.0013666 -1.00075 
-0.030746 -0.00203822 -1.00077 
-0.0318917 -0.00244835 -1.00072 
-0.0311665 -0.00275072 -1.00074 
-0.0310238 -0.00305363 -1.00075 
-0.0311285 -0.00333193 -1.00076 
-0.0312756 -0.00360849 -1.00075 
-0.0308927 -0.00406726 -1.00077 
-0.0311632 -0.00492628 -1.00055 
-0.0296479 -0.00617058 -1.0008 
-0.0322251 -0.0077491 -1.00073 
-0.030246 -0.0100403 -1.0008 
-0.0280552 -0.0135161 -1.00084 
-0.0294075 -0.018055 -1.00075 
-0.0266344 -0.0255256 -1.00068 
-0.0274241 -0.03498 -1.0004 
-0.0233701 -0.0455135 -1.00008 
-0.0194481 -0.049585 -0.999956 
-0.0186199 -0.0598354 -0.99941 
-0.0137484 -0.0805425 -0.997254 
0.00963278 -0.0799215 0.997338 
0.0125912 -0.0677576 0.998736 
0.0138891 -0.051327 0.999954 
0.0156987 -0.0489165 1.00004 
0.0170919 -0.0399655 1.00043 
0.0188725 -0.0290674 1.00076 
0.0203342 -0.0210068 1.00091 
0.0209271 -0.0153859 1.00098 
0.021751 -0.0114006 1.001 
0.0218769 -0.00871887 1.001 
0.0215526 -0.00661738 1.00101 
0.0218437 -0.00497647 1.00101 
0.0221342 -0.00396756 1.001 
0.0221493 -0.00348957 1.00099 
0.0224059 -0.00323954 1.00098 
0.0221278 -0.0029835 1.00098 
0.0229873 -0.00271077 1.00096 
0.0229745 -0.00242522 1.00097 
0.022685 -0.00204893 1.00098 
0.0226728 -0.00134999 1.00099 
0.022445 -1.70574e-05 1.001 
0.0219879 0.0021367 1.001 
0.0212786 0.00529429 1.00099 
0.0203735 0.00954287 1.00095 
0.0204744 0.0144398 1.00087 
0.0185687 0.0219218 1.00076 
0.0177693 0.0308943 1.00054 
0.0166536 0.0420172 1.0002 
0.0150303 0.0583499 0.999451 
0.0120255 0.0791907 0.99814 
0.0086461 0.110825 0.995256 
0.00457682 0.154578 0.989523 
0.00116184 0.218389 0.977143 
-0.00145611 0.286042 0.959997 
-0.00471779 0.390963 0.921631 
-0.0061446 0.496146 0.869086 
-0.00627348 0.616446 0.788067 
-0.00533708 0.762674 0.646016 
-0.00109834 0.961372 0.265907 
0.00133694 0.992241 -0.0919931 
0.00304065 0.914681 -0.3979 
0.00303492 0.902485 -0.426413 
0.00454309 0.767749 -0.64005 
0.00585389 0.571928 -0.821255 
0.00479321 0.428232 -0.905007 
0.00235124 0.31434 -0.950833 
-0.000669088 0.231914 -0.974287 
-0.0047992 0.172301 -0.98649 
-0.0068163 0.133284 -0.992279 
-0.0102165 0.0973739 -0.99661 
-0.0125537 0.0707272 -0.998747 
-0.0150527 0.0498423 -0.999916 
-0.0170392 0.0352212 -1.00047 
-0.01841 0.0249134 -1.00073 
-0.0192046 0.0169453 -1.00087 
-0.0203697 0.0108923 -1.00095 
-0.0214434 0.00647405 -1.00098 
-0.0220422 0.00310671 -1.001 
-0.0222315 0.00065267 -1.001 
-0.0226655 -0.00100985 -1.00099 
-0.0220044 -0.00189267 -1.001 
-0.0227771 -0.00235088 -1.00097 
-0.0229465 -0.00264051 -1.00096 
-0.0220577 -0.00293669 -1.00098 
-0.0220697 -0.003188 -1.00099 
-0.0218566 -0.003427 -1.00099 
-0.0216835 -0.00384277 -1.00101 
-0.0216244 -0.00467446 -1.00121 
-0.0211575 -0.00610958 -1.00102 
-0.0228679 -0.00812347 -1.00098 
-0.02158 -0.0107405 -1.001 
-0.0198101 -0.014529 -1.00101 
-0.0210504 -0.0194985 -1.00093 
-0.0187848 -0.027357 -1.0008 
-0.0196712 -0.0370283 -1.0005 
-0.0163782 -0.0478159 -1.00009 
-0.0133256 -0.0518819 -0.999922 
-0.0127531 -0.0601555 -0.999465 
-0.00893201 -0.0826657 -0.99712 
0.00642198 -0.0842108 0.997009 
0.00852881 -0.0606755 0.999703 
0.010159 -0.0522429 0.999945 
0.0110487 -0.048271 1.00014 
0.0123909 -0.0370145 1.0006 
0.0134567 -0.026948 1.00088 
0.0143293 -0.0196116 1.00103 
0.0147613 -0.0142414 1.00109 
0.0148232 -0.0107598 1.00111 
0.0150837 -0.00812163 1.00112 
0.0149892 -0.00588525 1.00113 
0.0148385 -0.00444583 1.00112 
0.0150285 -0.00371447 1.00112 
0.015105 -0.003387 1.00111 
0.0153021 -0.00317025 1.0011 
0.0150313 -0.00291792 1.00111 
0.0154584 -0.00266756 1.00111 
0.0156333 -0.00239515 1.00111 
0.0153463 -0.00192352 1.00112 
0.0153855 -0.000899692 1.00113 
0.015179 0.000946144 1.00112 
0.0147852 0.00375791 1.00111 
0.0141877 0.00760751 1.00107 
0.0132687 0.0125159 1.00102 
0.0134863 0.0184208 1.00091 
0.0119838 0.0273549 1.00072 
0.0108227 0.0375665 1.00044 
0.0102879 0.0514463 0.99989 
0.00792661 0.0705429 0.998819 
0.00591605 0.0987066 0.996553 
0.00293604 0.140758 0.991622 
-9.93408e-05 0.21288 0.978698 
-0.00265968 0.303197 0.954452 
-0.00487328 0.410104 0.913416 
-0.00596286 0.573386 0.820424 
-0.00494875 0.713574 0.700856 
-0.00192647 0.85977 0.509217 
0.00191089 0.95928 0.273917 
-0.00351767 0.891267 0.449626 
-0.000757676 0.978112 0.198081 
0.000610059 0.992152 -0.100787 
-0.000975861 0.916302 -0.394146 
0.00422939 0.776282 -0.629677 
0.00515017 0.641945 -0.767235 
0.00528982 0.483314 -0.876593 
0.00399534 0.35774 -0.935314 
0.00191422 0.263703 -0.96621 
-0.00111036 0.184557 -0.984673 
-0.00380119 0.129793 -0.993034 
-0.00606774 0.0936341 -0.99699 
-0.00837145 0.0672747 -0.998804 
-0.0100365 0.0475683 -1.00028 
-0.0109648 0.034467 -1.00056 
-0.0123187 0.0242101 -1.00082 
-0.0129926 0.0163213 -1.00097 
-0.0137811 0.0105702 -1.00105 
-0.0143439 0.00623936 -1.0011 
-0.0148669 0.00286681 -1.00112 
-0.0154339 0.00029274 -1.00112 
-0.0153257 -0.00126535 -1.00112 
-0.0154608 -0.00215958 -1.00111 
-0.0155265 -0.00250714 -1.0011 
-0.0158092 -0.00272664 -1.00109 
-0.0148038 -0.00299066 -1.00111 
-0.0149235 -0.00323591 -1.0011 
-0.0145598 -0.00349554 -1.00113 
-0.0144568 -0.00387754 -1.00112 
-0.0147048 -0.00482392 -1.00092 
-0.0139079 -0.00628893 -1.00114 
-0.0159594 -0.00823886 -1.00111 
-0.0150219 -0.0109979 -1.00112 
-0.0139855 -0.0150285 -1.0011 
-0.0147581 -0.0206336 -1.001 
-0.0131237 -0.0290046 -1.00083 
-0.0135559 -0.0392326 -1.0005 
-0.0109942 -0.0493827 -1.00007 
-0.00903035 -0.0535832 -0.999863 
-0.0086163 -0.0626746 -0.999328 
-0.0061418 -0.0835406 -0.997055 
0.00400272 -0.084082 0.997018 
0.00562471 -0.0643636 0.999012 
0.00672843 -0.0542209 0.99986 
0.00742135 -0.0503536 1.00027 
0.00838592 -0.0404401 1.00027 
0.00902088 -0.029571 1.00086 
0.00956816 -0.0214934 1.00104 
0.0101277 -0.0158553 1.00111 
0.0100019 -0.0118444 1.00115 
0.010056 -0.00875959 1.00117 
0.0102576 -0.0064057 1.00117 
0.00979435 -0.00468275 1.00118 
0.00973799 -0.00380773 1.00117 
0.00977521 -0.00349613 1.00116 
0.00991188 -0.00331336 1.00116 
0.00990537 -0.00308781 1.00116 
0.00973525 -0.00287597 1.00116 
0.0101488 -0.00266073 1.00117 
0.0101061 -0.0022717 1.00118 
0.0100311 -0.00132211 1.00118 
0.00996273 0.000449748 1.00118 
0.00974467 0.00315292 1.00117 
0.00935729 0.006855 1.00113 
0.00857473 0.011663 1.00107 
0.00840579 0.0180503 1.00115 
0.00803937 0.0257377 1.00061 
0.00650654 0.0366957 1.0007 
0.00638001 0.0503774 0.999746 
0.00471319 0.0687419 0.999188 
0.00346867 0.0953051 0.996625 
0.00151982 0.134054 0.992525 
-0.000503796 0.199888 0.981455 
-0.00310754 0.304741 0.954266 
-0.00456801 0.416474 0.910115 
-0.00441859 0.609423 0.793566 
-0.0025181 0.742352 0.669939 
0.00335757 0.852101 0.520257 
0.00372753 0.999187 0.0435389 
0.00403355 0.999261 0.0361912 
0.00348033 0.999264 0.029345 
0.00319068 0.999247 0.0227361 
0.00077552 0.999942 -0.0241035 
0.000614282 0.801277 -0.595797 
0.00455107 0.669947 -0.742813 
0.00543702 0.550501 -0.835829 
0.00494805 0.417616 -0.909639 
0.00333735 0.304948 -0.953893 
0.000887393 0.205483 -0.980284 
-0.00121171 0.140046 -0.991754 
-0.00290263 0.0993108 -0.996538 
-0.00479636 0.0714077 -0.999009 
-0.00565831 0.0529781 -0.999422 
-0.00648352 0.0383995 -1.00047 
-0.00740333 0.027213 -1.00078 
-0.00812546 0.0190846 -1.00095 
-0.00861556 0.01268 -1.00105 
-0.00902806 0.00786245 -1.00112 
-0.0093967 0.00401312 -1.00115 
-0.0101663 0.00107319 -1.00117 
-0.00993619 -0.000905728 -1.00118 
-0.0104433 -0.00208082 -1.00117 
-0.0100736 -0.00261048 -1.00117 
-0.0102611 -0.00280031 -1.00117 
-0.00982434 -0.00300166 -1.00117 
-0.00966576 -0.00325292 -1.00116 
-0.00938965 -0.00344943 -1.00117 
-0.0095393 -0.00375009 -1.00117 
-0.00933881 -0.00454441 -1.00139 
-0.00939961 -0.0061986 -1.00119 
-0.0105598 -0.00868963 -1.00118 
-0.0102562 -0.0118965 -1.00115 
-0.0093185 -0.015976 -1.00112 
-0.0101987 -0.0211117 -1.00104 
-0.00895785 -0.0288838 -1.00087 
-0.00937195 -0.0392844 -1.00053 
-0.00770546 -0.0502929 -1.00004 
-0.00632389 -0.0547292 -0.999806 
-0.00586045 -0.0643758 -0.999222 
-0.00440797 -0.0843108 -0.996995 
0.00290666 -0.0845326 0.996982 
0.00368723 -0.0649161 0.99922 
0.00452493 -0.0550037 0.999818 
0.00521703 -0.0512819 0.999786 
0.00583892 -0.0398028 1.00075 
0.00626382 -0.0292268 1.00087 
0.00668644 -0.0212653 1.00104 
0.00705372 -0.0155339 1.00113 
0.00677627 -0.0113594 1.00116 