# vtk DataFile Version 3.0 
Exported using Morpho https://github.com/Morpho-lang/morpho 
ASCII 
DATASET UNSTRUCTURED_GRID 

POINTS 1978 float 
-12 -4 1.87089e-12 
-11.6023 -4 1.6094e-11 
-11.2982 -4 9.10398e-12 
-10.9475 -4 8.22686e-12 
-10.6292 -4 8.86285e-12 
-10.2804 -4 6.51506e-12 
-9.95895 -4 5.26316e-12 
-9.64749 -4 3.12039e-12 
-9.31321 -4 2.93813e-12 
-8.99715 -4 2.80054e-12 
-8.68253 -4 1.3373e-12 
-8.36619 -4 1.85436e-12 
-8.05935 -4 7.07708e-13 
-7.76462 -4 1.01718e-12 
-7.48263 -4 1.06245e-12 
-7.18944 -4 1.5726e-12 
-6.89376 -4 1.09624e-12 
-6.59586 -4 6.23234e-13 
-6.29477 -4 7.75109e-13 
-5.98816 -4 5.44826e-13 
-5.688 -4 2.00269e-14 
-5.38384 -4 -5.24599e-13 
-5.08473 -4 -1.15476e-12 
-4.7897 -4 -1.72258e-12 
-4.45988 -4 -4.30204e-12 
-4.17196 -4 -5.41631e-12 
-3.86756 -4 -7.71463e-12 
-3.54739 -4 -1.15487e-11 
-3.25018 -4 -1.39576e-11 
-2.95434 -4 -1.94805e-11 
-2.66342 -4 -2.10692e-11 
-2.39774 -4 -2.10979e-11 
-2.13217 -4 -2.12697e-11 
-1.84553 -4 -1.33483e-11 
-1.57778 -4 -5.90534e-12 
-1.29937 -4 -1.01306e-11 
-1.02215 -4 -5.52045e-11 
-0.72379 -4 -3.23155e-11 
-0.413149 -4 -2.89974e-10 
-0.00626106 -4 -1.32692e-11 
0.406167 -4 2.92919e-10 
0.735013 -4 4.24033e-11 
1.00584 -4 6.23425e-11 
1.27934 -4 3.76424e-12 
1.5332 -4 1.14007e-11 
1.78911 -4 1.3642e-11 
2.06453 -4 2.30956e-11 
2.34956 -4 2.36899e-11 
2.67306 -4 2.18767e-11 
2.97593 -4 1.76425e-11 
3.29422 -4 1.48797e-11 
3.58789 -4 1.09244e-11 
3.88817 -4 7.61208e-12 
4.19955 -4 5.55252e-12 
4.49813 -4 3.77855e-12 
4.79673 -4 2.45033e-12 
5.10629 -4 8.82825e-13 
5.41253 -4 6.89214e-13 
5.71987 -4 -2.88137e-13 
6.01317 -4 -5.31796e-13 
6.30573 -4 -6.23107e-13 
6.60221 -4 -1.21548e-12 
6.90038 -4 -8.72008e-13 
7.17488 -4 -9.28742e-13 
7.47568 -4 -9.08946e-13 
7.77045 -4 -2.16516e-12 
8.06628 -4 -3.69747e-13 
8.35624 -4 -2.2746e-12 
8.65727 -4 -1.37731e-12 
8.93148 -4 -2.12988e-12 
9.2785 -4 -2.45334e-12 
9.60526 -4 -3.26893e-12 
9.89434 -4 -5.05221e-12 
10.2625 -4 -5.67454e-12 
10.5761 -4 -7.7423e-12 
10.9771 -4 -6.43119e-12 
11.2972 -4 -1.01366e-11 
11.5909 -4 -1.49162e-11 
12 -4 -2.31881e-12 
-12 -3.60027 -1.25107e-11 
-11.7151 -3.71428 1.27126e-10 
-11.3641 -3.62857 1.72074e-10 
-11.0475 -3.67607 1.52821e-10 
-10.7105 -3.64571 1.46672e-10 
-10.3912 -3.67954 1.14598e-10 
-10.0542 -3.66263 9.77319e-11 
-9.73127 -3.66558 7.59842e-11 
-9.40038 -3.68635 5.39764e-11 
-9.06409 -3.66616 4.2602e-11 
-8.7499 -3.66311 3.37166e-11 
-8.43305 -3.6732 2.87963e-11 
-8.11588 -3.66684 2.43048e-11 
-7.80453 -3.66032 2.12788e-11 
-7.5036 -3.65262 1.99967e-11 
-7.20811 -3.66779 2.00204e-11 
-6.90101 -3.66999 1.13111e-11 
-6.59242 -3.66183 1.73951e-11 
-6.27843 -3.67418 9.42415e-12 
-5.9701 -3.66737 5.92704e-12 
-5.65989 -3.66911 -2.29563e-12 
-5.35457 -3.66224 -1.21089e-11 
-5.05747 -3.65684 -2.90401e-11 
-4.73552 -3.69161 -4.32956e-11 
-4.44149 -3.6544 -8.11945e-11 
-4.13656 -3.67536 -1.07722e-10 
-3.81784 -3.69523 -1.43439e-10 
-3.50864 -3.68036 -2.14031e-10 
-3.20853 -3.6807 -2.4401e-10 
-2.91445 -3.68292 -3.60855e-10 
-2.63844 -3.65001 -2.7913e-10 
-2.36622 -3.6655 -3.12159e-10 
-2.0814 -3.68976 -2.43873e-10 
-1.79548 -3.69136 -1.39506e-10 
-1.51202 -3.68688 -3.8108e-12 
-1.22708 -3.66966 -1.2397e-10 
-0.925977 -3.64279 -6.02162e-10 
-0.615557 -3.61583 -2.18563e-09 
-0.272626 -3.7002 -2.22644e-10 
0.013239 -3.52379 4.08893e-09 
0.307221 -3.65449 -4.9889e-09 
0.646858 -3.61945 3.14513e-09 
0.961736 -3.63546 5.46035e-10 
1.24435 -3.66382 1.12917e-10 
1.5334 -3.65914 1.03491e-10 
1.81317 -3.68048 3.09521e-11 
2.1028 -3.69241 2.02893e-10 
2.41768 -3.72367 3.29e-10 
2.71773 -3.69343 3.19571e-10 
3.02689 -3.69777 2.79725e-10 
3.31945 -3.66623 2.52305e-10 
3.61841 -3.67127 1.92294e-10 
3.92894 -3.68187 1.4266e-10 
4.22847 -3.66362 1.03429e-10 
4.52813 -3.66275 6.92519e-11 
4.83702 -3.67348 4.24467e-11 
5.14782 -3.67152 2.43026e-11 
5.45876 -3.673 1.02329e-11 
5.76148 -3.65871 8.65435e-13 
6.06056 -3.66093 -7.09051e-12 
6.36014 -3.6628 -1.06022e-11 
6.6654 -3.66837 -1.44984e-11 
6.95036 -3.63967 -1.73847e-11 
7.2505 -3.66994 -1.91209e-11 
7.55132 -3.66212 -2.06973e-11 
7.8533 -3.66267 -2.31364e-11 
8.15009 -3.65517 -2.57154e-11 
8.44793 -3.66782 -2.94792e-11 
8.73535 -3.63104 -3.76045e-11 
9.05523 -3.7059 -4.17884e-11 
9.38746 -3.68105 -5.33536e-11 
9.69257 -3.63314 -7.76202e-11 
10.026 -3.70887 -8.78043e-11 
10.353 -3.6527 -1.25024e-10 
10.7187 -3.72391 -1.29941e-10 
11.0544 -3.65017 -1.63141e-10 
11.3585 -3.61679 -1.69039e-10 
11.7115 -3.72455 -1.26986e-10 
12 -3.60613 1.3306e-11 
-12 -3.29867 -5.42428e-12 
-11.6317 -3.36515 7.00631e-11 
-11.2878 -3.28655 5.68319e-11 
-10.9745 -3.33213 9.53845e-11 
-10.6568 -3.29662 8.0687e-11 
-10.3363 -3.34604 8.38473e-11 
-10.0115 -3.32628 6.22321e-11 
-9.69215 -3.32652 4.95596e-11 
-9.38695 -3.36741 4.42775e-11 
-9.07893 -3.32653 3.13922e-11 
-8.77149 -3.32182 2.25342e-11 
-8.4688 -3.33654 1.99847e-11 
-8.1618 -3.33723 1.76285e-11 
-7.85526 -3.3298 1.33561e-11 
-7.5537 -3.31405 1.06525e-11 
-7.2534 -3.32767 9.56764e-12 
-6.95493 -3.34445 9.23831e-12 
-6.64661 -3.33651 6.86268e-12 
-6.3345 -3.3486 5.46178e-12 
-6.02552 -3.33995 9.57852e-13 
-5.7153 -3.33989 -5.48685e-12 
-5.4079 -3.33014 -1.3487e-11 
-5.10346 -3.31524 -2.25213e-11 
-4.8012 -3.36877 -3.97258e-11 
-4.49939 -3.32106 -5.2523e-11 
-4.19724 -3.34582 -7.81275e-11 
-3.89117 -3.37986 -1.22377e-10 
-3.58287 -3.37276 -1.64344e-10 
-3.26772 -3.36145 -2.10823e-10 
-2.96517 -3.35747 -2.46816e-10 
-2.66761 -3.32316 -1.2521e-10 
-2.37368 -3.32414 -4.24584e-10 
-2.10138 -3.36934 -1.35657e-10 
-1.80748 -3.38305 -3.58e-11 
-1.51458 -3.3601 1.87284e-10 
-1.20603 -3.34037 2.36719e-10 
-0.879839 -3.28666 -7.06282e-11 
-0.613199 -3.15702 -1.0658e-09 
-0.330148 -3.3142 1.38577e-09 
0.0277549 -3.10322 9.30148e-09 
0.335132 -3.23177 2.1273e-09 
0.62642 -3.18746 -3.87582e-09 
0.923855 -3.27638 -3.3461e-10 
1.22514 -3.2953 -2.85673e-10 
1.50332 -3.34212 -1.265e-10 
1.79827 -3.35166 4.30351e-11 
2.0769 -3.38041 2.30002e-10 
2.36908 -3.42831 3.29471e-10 
2.66913 -3.38675 3.22179e-10 
2.97303 -3.38818 2.18866e-10 
3.27319 -3.33937 1.65422e-10 
3.57293 -3.34096 1.28449e-10 
3.87369 -3.36043 1.04807e-10 
4.17573 -3.33334 7.26628e-11 
4.47723 -3.32657 5.27192e-11 
4.778 -3.34276 3.86828e-11 
5.08288 -3.34634 2.52514e-11 
5.39376 -3.34625 1.36278e-11 
5.69988 -3.32947 5.67351e-12 
6.00972 -3.323 -2.70847e-15 
6.30828 -3.32609 -3.84482e-12 
6.61175 -3.33992 -7.40271e-12 
6.91192 -3.29308 -7.62624e-12 
7.20874 -3.333 -1.00149e-11 
7.50954 -3.32858 -1.186e-11 
7.8132 -3.33054 -1.38726e-11 
8.11891 -3.31668 -1.54735e-11 
8.41956 -3.32344 -1.84061e-11 
8.74351 -3.31424 -2.26499e-11 
9.06819 -3.39 -3.62955e-11 
9.38099 -3.34285 -4.27386e-11 
9.68997 -3.28864 -4.80185e-11 
10.0028 -3.38202 -8.0441e-11 
10.3087 -3.30507 -7.62748e-11 
10.6353 -3.4074 -1.13742e-10 
10.9677 -3.33456 -9.49903e-11 
11.2995 -3.25736 -3.87275e-11 
11.6337 -3.37539 -7.57784e-11 
12 -3.29465 6.34807e-12 
-12 -2.96979 -6.66202e-12 
-11.6636 -3.05113 8.93039e-12 
-11.3217 -2.96844 -2.9227e-11 
-10.974 -2.9782 3.60044e-12 
-10.6327 -2.96979 8.94287e-12 
-10.2996 -3.00649 2.5653e-11 
-9.97197 -2.99293 2.54582e-11 
-9.65413 -2.98609 2.31893e-11 
-9.34973 -3.02576 1.93217e-11 
-9.04125 -2.9849 1.27458e-11 
-8.73852 -2.976 8.73917e-12 
-8.43758 -2.99811 8.06082e-12 
-8.13135 -3.0028 5.58641e-12 
-7.83065 -2.99229 5.38521e-12 
-7.52665 -2.9799 2.78549e-12 
-7.22733 -2.99366 2.56451e-12 
-6.92275 -3.01806 1.69203e-12 
-6.61318 -3.01346 1.18377e-12 
-6.30922 -3.01909 -1.09851e-12 
-6.00177 -3.01197 -4.14397e-12 
-5.69662 -3.00801 -7.29958e-12 
-5.39147 -2.99776 -1.15093e-11 
-5.08952 -2.98256 -1.48334e-11 
-4.79069 -3.03614 -2.39925e-11 
-4.49058 -2.98997 -2.57722e-11 
-4.19367 -3.01773 -3.3122e-11 
-3.89545 -3.05743 -4.73166e-11 
-3.58938 -3.05333 -5.67733e-11 
-3.28578 -3.0535 -6.38867e-11 
-2.96555 -3.03591 -1.34879e-10 
-2.67157 -2.98282 -8.39388e-11 
-2.37687 -2.99012 8.85965e-11 
-2.08415 -3.00618 -1.32908e-10 
-1.81381 -3.06168 1.61482e-10 
-1.50274 -3.03276 2.96666e-10 
-1.16024 -3.01861 -4.39515e-09 
-0.911988 -2.83278 5.22168e-09 
-0.560523 -2.75935 4.73089e-09 
-0.23249 -2.88735 -1.56876e-08 
-0.0129729 -2.51668 1.47256e-08 
0.274424 -2.72309 -1.59079e-08 
0.56355 -2.74429 2.19339e-09 
0.887758 -2.88553 -4.574e-10 
1.2021 -2.91994 -3.76782e-10 
1.50789 -2.98323 -1.7018e-10 
1.79194 -3.02538 1.24798e-10 
2.09168 -3.04723 -7.60423e-11 
2.37253 -3.11317 3.75429e-11 
2.66088 -3.04989 1.12734e-10 
2.94349 -3.0706 1.32492e-10 
3.24775 -3.02049 7.55605e-11 
3.55567 -3.01588 6.40908e-11 
3.86285 -3.03325 5.01617e-11 
4.16403 -3.00564 3.94157e-11 
4.466 -2.99757 2.52933e-11 
4.76944 -3.00863 1.95162e-11 
5.06895 -3.01536 1.40035e-11 
5.37101 -3.02139 1.0449e-11 
5.67942 -2.99954 6.51466e-12 
5.98509 -3.00005 3.39901e-12 
6.2984 -2.98507 1.02146e-12 
6.5946 -3.00753 -1.27644e-12 
6.91686 -2.97918 -1.67647e-12 
7.23501 -2.99764 -2.83029e-12 
7.53557 -2.99413 -3.70781e-12 
7.84036 -2.99919 -4.92708e-12 
8.13887 -2.97845 -6.15705e-12 
8.4497 -3.00391 -7.75705e-12 
8.74852 -2.97034 -8.18304e-12 
9.04802 -3.06379 -1.32086e-11 
9.35302 -3.00671 -1.55659e-11 
9.65947 -2.94909 -1.59325e-11 
9.98541 -3.03314 -2.46161e-11 
10.3211 -2.97777 -1.53123e-11 
10.6526 -3.07385 -3.07271e-11 
10.9867 -2.99555 -3.5053e-12 
11.3381 -2.93453 3.16437e-11 
11.6695 -3.0552 -7.32472e-12 
12 -2.95257 5.70138e-12 
-12 -2.65494 -5.79641e-12 
-11.6508 -2.72209 -1.85717e-11 
-11.3113 -2.6407 -3.80184e-11 
-10.9733 -2.65541 -4.09106e-12 
-10.638 -2.64166 2.38709e-12 
-10.3027 -2.67533 1.16202e-11 
-9.97141 -2.664 1.88255e-11 
-9.64019 -2.66578 1.3312e-11 
-9.31242 -2.6836 9.07645e-12 
-8.99688 -2.64435 6.88999e-12 
-8.6854 -2.63842 4.88385e-12 
-8.37536 -2.67005 3.66591e-12 
-8.07107 -2.66428 3.60699e-12 
-7.76199 -2.66206 2.56629e-12 
-7.45136 -2.65112 1.48757e-12 
-7.14317 -2.67359 1.17868e-12 
-6.83927 -2.6927 9.29881e-13 
-6.53092 -2.68416 -1.02752e-15 
-6.22669 -2.6889 -2.09956e-12 
-5.92103 -2.67957 -4.03523e-12 
-5.61601 -2.67658 -5.98885e-12 
[...]
POINT_DATA 1978 
VECTORS vectors float
3.80305e-05 3.07613e-05 1 
0.00042376 -0.0469561 0.998897 
0.000371585 -0.0462027 0.998932 
0.000374982 -0.0360683 0.999349 
0.000378481 -0.0267229 0.999643 
0.000382761 -0.0184042 0.999831 
0.000335012 -0.0130941 0.999914 
0.000362035 -0.00972947 0.999953 
0.000373355 -0.00752794 0.999972 
0.000343468 -0.00623592 0.99998 
0.00034194 -0.00527216 0.999986 
0.000337752 -0.00456097 0.99999 
0.000296607 -0.00411624 0.999991 
0.00025198 -0.00383306 0.999993 
0.000248819 -0.00357694 0.999994 
0.000276091 -0.00338092 0.999994 
0.000287966 -0.00330028 0.999995 
0.000290387 -0.00300979 0.999995 
0.000309146 -0.00256404 0.999997 
0.000305989 -0.00196236 0.999998 
0.00030388 -0.00111032 0.999999 
0.000290174 0.000241299 1 
0.000285301 0.00220612 0.999998 
0.000326851 0.00488547 0.999988 
0.000312143 0.00938612 0.999956 
0.000268706 0.014748 0.999891 
0.000303859 0.0225762 0.999745 
0.000293283 0.0340812 0.999419 
0.000235498 0.0486632 0.998815 
0.00020653 0.0688761 0.997625 
0.000144767 0.096445 0.995338 
9.31707e-05 0.13129 0.991344 
7.87013e-05 0.178337 0.983969 
4.63295e-05 0.248481 0.968637 
-1.58251e-06 0.332682 0.943039 
-4.92724e-05 0.446916 0.894576 
-9.79594e-05 0.584086 0.811692 
-0.000147754 0.744182 0.667977 
-0.000154084 0.90277 0.430123 
-1.97897e-06 0.999895 0.014475 
0.00018063 0.904245 -0.427013 
0.000129947 0.734336 -0.678787 
7.55499e-05 0.587651 -0.809114 
4.11975e-05 0.454624 -0.890684 
7.30643e-07 0.351227 -0.93629 
-3.35252e-05 0.262862 -0.964833 
-8.54379e-05 0.191971 -0.981401 
-0.000169634 0.13885 -0.990313 
-0.000234453 0.0960295 -0.995378 
-0.000257538 0.0676528 -0.997709 
-0.000260619 0.0464732 -0.99892 
-0.000253687 0.0324448 -0.999473 
-0.000287128 0.022185 -0.999754 
-0.000295089 0.0143956 -0.999896 
-0.000278802 0.00887648 -0.999961 
-0.000297669 0.00494173 -0.999988 
-0.000319785 0.00209168 -0.999998 
-0.000317035 0.00012905 -1 
-0.000292822 -0.00121806 -0.999999 
-0.00026883 -0.00206418 -0.999998 
-0.00027846 -0.00255035 -0.999997 
-0.000283837 -0.0029034 -0.999996 
-0.000248723 -0.00323652 -0.999995 
-0.000251287 -0.00344077 -0.999994 
-0.000286019 -0.00373069 -0.999993 
-0.00028103 -0.00415053 -0.999991 
-0.000274563 -0.00455486 -0.99999 
-0.000270112 -0.00501256 -0.999987 
-0.000251074 -0.00558159 -0.999984 
-0.000334108 -0.00610213 -0.999981 
-0.000408435 -0.00726598 -0.999974 
-0.00032619 -0.00939844 -0.999956 
-0.000359645 -0.0123391 -0.999924 
-0.000409426 -0.0182238 -0.999834 
-0.000448194 -0.0252639 -0.999681 
-0.00044672 -0.0371098 -0.999311 
-0.000310915 -0.0461062 -0.998936 
-0.000417774 -0.0470928 -0.99889 
-6.01533e-05 2.08744e-05 -1 
-0.000690629 0.00043772 1 
0.014531 -0.0319246 0.999385 
0.023287 -0.0425072 0.998825 
0.0226755 -0.0378518 0.999026 
0.0250361 -0.0293028 0.999257 
0.0246688 -0.0217461 0.999459 
0.0266793 -0.0155336 0.999523 
0.0277435 -0.0113119 0.999551 
0.0271003 -0.00851817 0.999596 
0.0285215 -0.00669451 0.999571 
0.0288813 -0.00548809 0.999568 
0.0290389 -0.00465869 0.999567 
0.0295735 -0.00410585 0.999554 
0.0301396 -0.00373026 0.999539 
0.0310901 -0.00343457 0.999511 
0.0300314 -0.00320961 0.999544 
0.0298237 -0.00300698 0.999551 
0.0301104 -0.00271438 0.999543 
0.0295825 -0.00223472 0.99956 
0.0299312 -0.00152664 0.999551 
0.0295035 -0.000490994 0.999565 
0.0296729 0.0010885 0.999559 
0.029539 0.003315 0.999558 
0.0268958 0.00660555 0.999616 
0.0289215 0.011199 0.999519 
0.0265827 0.0173046 0.999497 
0.0244886 0.0261776 0.999357 
0.0240612 0.0384083 0.998972 
0.0217167 0.0547748 0.998263 
0.0192362 0.0775473 0.996803 
0.016748 0.107185 0.994098 
0.0125506 0.146642 0.98911 
0.00713908 0.201909 0.979378 
0.00224209 0.276664 0.960964 
-0.00288031 0.369641 0.92917 
-0.00745309 0.486991 0.873375 
-0.0103048 0.631346 0.775432 
-0.0103407 0.796643 0.604362 
-0.00571549 0.948422 0.31696 
0.000155986 0.999858 -0.0168293 
0.00561142 0.939333 -0.342961 
0.00983538 0.783847 -0.620876 
0.01026 0.617028 -0.786874 
0.00674026 0.477251 -0.878741 
0.00213127 0.357544 -0.933894 
-0.00296881 0.265496 -0.964107 
-0.00809385 0.193152 -0.981135 
-0.0123948 0.135001 -0.990768 
-0.0168011 0.0966162 -0.99518 
-0.0194774 0.0676758 -0.997517 
-0.0230385 0.0485368 -0.998556 
-0.0244772 0.0339554 -0.999124 
-0.0254805 0.0229952 -0.999411 
-0.0273949 0.0153847 -0.999506 
-0.0281964 0.00974243 -0.999555 
-0.028131 0.00548269 -0.999589 
-0.028929 0.00251033 -0.999578 
-0.0291954 0.000432132 -0.999574 
-0.0304646 -0.000905848 -0.999535 
-0.0306105 -0.0017833 -0.99953 
-0.0303651 -0.00235985 -0.999536 
-0.030462 -0.00275664 -0.999532 
-0.0320985 -0.00303174 -0.99948 
-0.0300777 -0.00333423 -0.999542 
-0.030517 -0.00364571 -0.999528 
-0.030496 -0.00402884 -0.999527 
-0.0307406 -0.00446206 -0.999517 
-0.0300448 -0.00501725 -0.999536 
-0.0317118 -0.00565441 -0.999481 
-0.0269437 -0.00666784 -0.999615 
-0.0277231 -0.00835892 -0.999581 
-0.0295121 -0.0109416 -0.999505 
-0.0244604 -0.014951 -0.999589 
-0.0261561 -0.0209599 -0.999438 
-0.0212721 -0.0293443 -0.999343 
-0.0239591 -0.0378346 -0.998997 
-0.0236942 -0.0422542 -0.998826 
-0.0142738 -0.0324529 -0.999371 
0.000669987 0.00048225 -1 
-0.000622714 0.000516491 1 
0.022201 -0.0349689 0.999142 
0.0277229 -0.0412503 0.998764 
0.029839 -0.0363148 0.998895 
0.0314074 -0.029218 0.99908 
0.0331658 -0.0221236 0.999205 
0.0345499 -0.0162514 0.999271 
0.0358728 -0.0119211 0.999285 
0.0364803 -0.00889221 0.999295 
0.0374425 -0.00702391 0.999274 
0.0379991 -0.00576442 0.999261 
0.0381779 -0.00478065 0.99926 
0.0384204 -0.00409527 0.999253 
0.0384188 -0.00364686 0.999255 
0.0385133 -0.00332894 0.999253 
0.038628 -0.00309174 0.999249 
0.0389785 -0.0028797 0.999236 
0.0389486 -0.00254398 0.999238 
0.038771 -0.00206431 0.999246 
0.0386072 -0.00134906 0.999254 
0.0382159 -0.000267147 0.999269 
0.0376759 0.0013781 0.999289 
0.0370105 0.00379726 0.999308 
0.0363522 0.00696016 0.999315 
0.0353515 0.0116975 0.999306 
0.0342442 0.0178777 0.999254 
0.0328901 0.0262928 0.999113 
0.0306821 0.0378915 0.998811 
0.0278605 0.054949 0.9981 
0.0243626 0.0774507 0.996698 
0.0193935 0.109158 0.993835 
0.0143967 0.151363 0.988373 
0.00887528 0.206256 0.978458 
0.00235168 0.280829 0.959755 
-0.00420315 0.380616 0.924724 
-0.00928924 0.50574 0.862636 
-0.0119932 0.663058 0.748472 
-0.0107194 0.810703 0.58536 
-0.00761855 0.938811 0.344348 
-0.000369129 0.999955 -0.00946096 
0.0060531 0.938313 -0.345733 
0.00968967 0.805358 -0.592709 
0.0106204 0.643342 -0.765505 
0.00824613 0.491875 -0.870627 
0.00349997 0.373741 -0.927526 
-0.00257083 0.278539 -0.960422 
-0.00898894 0.205945 -0.978522 
-0.0153257 0.148713 -0.988762 
-0.0202896 0.107163 -0.994034 
-0.0243585 0.077541 -0.996692 
-0.0273303 0.0559124 -0.998062 
-0.0300158 0.0398286 -0.998756 
-0.0322983 0.0277239 -0.999094 
-0.0338342 0.0189126 -0.999248 
-0.0350021 0.0123307 -0.999311 
-0.0362451 0.00750165 -0.999315 
-0.0372264 0.00399652 -0.999299 
-0.037868 0.0014913 -0.999282 
-0.0383582 -0.000175161 -0.999264 
-0.038661 -0.00130038 -0.999252 
-0.0388832 -0.00200343 -0.999242 
-0.0389667 -0.00247332 -0.999237 
-0.0388012 -0.00277299 -0.999243 
-0.0389633 -0.00311184 -0.999236 
-0.038882 -0.00339887 -0.999238 
-0.0387891 -0.00375348 -0.99924 
-0.0386573 -0.00421024 -0.999244 
-0.038215 -0.00481837 -0.999258 
-0.0382699 -0.00576822 -0.999251 
-0.0376389 -0.0070354 -0.999267 
-0.0369849 -0.00895148 -0.999276 
-0.0358931 -0.011876 -0.999285 
-0.0346474 -0.0156794 -0.999277 
-0.0335196 -0.0215727 -0.999205 
-0.0317967 -0.0284731 -0.999089 
-0.0299801 -0.0360996 -0.998898 
-0.0272116 -0.041278 -0.998777 
-0.0219813 -0.034636 -0.999158 
0.00052595 0.000686747 -1 
-0.000371677 0.000713055 1 
0.0183053 -0.0330207 0.999287 
0.023289 -0.0420951 0.998842 
0.0260152 -0.037564 0.998956 
0.0278781 -0.0303692 0.99915 
0.0301621 -0.0227796 0.999285 
0.0313711 -0.0166713 0.999369 
0.0325477 -0.0121479 0.999396 
0.0340945 -0.00923586 0.999376 
0.0340243 -0.0072523 0.999395 
0.0341826 -0.00578496 0.999399 
0.0349358 -0.00472554 0.999378 
0.0350691 -0.00398666 0.999377 
0.0351465 -0.0035055 0.999376 
0.0348826 -0.00318188 0.999386 
0.035462 -0.00294979 0.999367 
0.035853 -0.00267924 0.999353 
0.0356827 -0.00231062 0.99936 
0.0356327 -0.00180901 0.999363 
0.0353673 -0.0010215 0.999374 
0.0350097 0.000213258 0.999387 
0.0343398 0.00209933 0.999408 
0.03344 0.00484982 0.999429 
0.0333121 0.00834264 0.99941 
0.0316002 0.0137142 0.999406 
0.0305948 0.0202824 0.999326 
0.029495 0.0288825 0.999148 
0.0273549 0.0415013 0.998764 
0.0246237 0.057983 0.998014 
0.0206081 0.0827584 0.996357 
0.0157306 0.116177 0.993104 
0.0107911 0.160389 0.986995 
0.00615234 0.217769 0.975981 
0.000766654 0.293111 0.956078 
-0.00460483 0.395218 0.918576 
-0.00854634 0.533395 0.845823 
-0.00894562 0.661597 0.749806 
-0.00673437 0.829752 0.558091 
-0.00453102 0.958162 0.286192 
0.000595213 0.999999 -0.000994824 
0.00336802 0.951792 -0.306726 
0.00595943 0.826325 -0.563163 
0.00788596 0.666872 -0.74513 
0.00703606 0.513303 -0.858179 
0.00381202 0.389283 -0.92111 
-0.00080141 0.292572 -0.956243 
-0.00610284 0.216961 -0.976161 
-0.0121674 0.15879 -0.987237 
-0.016514 0.116793 -0.993019 
-0.0205042 0.0843834 -0.996222 
-0.0232894 0.061751 -0.99782 
-0.0260473 0.04398 -0.998693 
-0.0285849 0.0305579 -0.999124 
-0.0301149 0.0212599 -0.99932 
-0.0315389 0.0143328 -0.9994 
-0.0329088 0.00897621 -0.999418 
-0.0339243 0.00510763 -0.999411 
-0.034733 0.00229655 -0.999394 
-0.0349164 0.000361822 -0.99939 
-0.0351931 -0.000936954 -0.99938 
-0.0352013 -0.00176187 -0.999379 
-0.0354576 -0.00225858 -0.999369 
-0.0351611 -0.00264738 -0.999378 
-0.0352926 -0.00295516 -0.999373 
-0.0353402 -0.00325413 -0.99937 
-0.0354285 -0.00362232 -0.999366 
-0.0351036 -0.00411818 -0.999375 
-0.0352145 -0.0048723 -0.999368 
-0.0343485 -0.00592123 -0.999392 
-0.0353628 -0.00729945 -0.999348 
-0.0337226 -0.00941457 -0.999387 
-0.0318441 -0.0125608 -0.999414 
-0.0319538 -0.0168605 -0.999347 
-0.0295913 -0.0233874 -0.999288 
-0.0294137 -0.0302244 -0.99911 
-0.0261542 -0.0376663 -0.998948 
-0.022585 -0.0422665 -0.998851 
-0.0179836 -0.0325403 -0.999309 
0.000313717 0.000856106 -1 
-0.000257564 0.00098108 0.999999 
0.0143812 -0.0344268 0.999304 
0.0185327 -0.0441401 0.998853 
0.0209864 -0.0389239 0.999022 
0.0227292 -0.0321145 0.999226 
0.0246903 -0.0241122 0.999404 
0.0259483 -0.0176194 0.999508 
0.0270765 -0.0129185 0.99955 
0.0278573 -0.00955347 0.999566 
0.0277945 -0.00733158 0.999587 
0.0278377 -0.00570864 0.999596 
0.0286605 -0.00457997 0.999579 
0.0286525 -0.00381294 0.999582 
0.028757 -0.00333461 0.999581 
0.0286095 -0.00301315 0.999586 
0.0292144 -0.00275811 0.999569 
0.0297296 -0.00246861 0.999555 
0.0293411 -0.00206672 0.999567 
0.0293316 -0.00146178 0.999569 
0.0290203 -0.000470371 0.999579 
0.0286417 0.00109953 0.999589 
0.0278602 0.00344146 0.999606 
0.0271184 0.00684068 0.999609 
0.0269597 0.0109007 0.999577 
0.0251999 0.0171037 0.999536 
0.0243816 0.0246456 0.999399 
0.0234135 0.0343545 0.999135 
0.0211129 0.0479551 0.998626 
0.0187326 0.0672231 0.997562 
0.0147613 0.092831 0.995572 
0.0101334 0.132105 0.991184 
0.00617908 0.18 0.983647 
0.00242697 0.240743 0.970586 
-0.00155986 0.322704 0.946499 
-0.00558954 0.444211 0.895905 
-0.00614971 0.555527 0.831476 
-0.00521576 0.714923 0.699184 
-0.00251441 0.830475 0.55705 
-0.00146252 0.930462 0.366386 
0.00111513 0.997691 0.0679107 
0.00229751 0.95449 -0.298233 
0.00367161 0.81344 -0.581637 
0.0055881 0.676655 -0.736279 
0.0053649 0.516666 -0.85617 
0.0033348 0.384046 -0.923308 
-0.000126318 0.287867 -0.95767 
-0.00404551 0.218611 -0.975804 
-0.00907187 0.160027 -0.987071 
-0.0120556 0.118409 -0.992892 
-0.0158784 0.0859712 -0.996171 
-0.0183077 0.0616921 -0.997927 
-0.0211303 0.0435295 -0.998829 
-0.0231953 0.0309616 -0.999251 
-0.0244202 0.0214927 -0.999471 
-0.0256595 0.0144149 -0.999567 
-0.0269632 0.00915527 -0.999595 
-0.0279328 0.00526123 -0.999596 
-0.0286146 0.00240817 -0.999588 
-0.0286476 0.000395314 -0.999589 
-0.0290726 -0.000952889 -0.999577 
-0.0285544 -0.00174435 -0.999591 
-0.0294481 -0.00225602 -0.999564 
-0.0289407 -0.00261324 -0.999578 
-0.0288672 -0.00288213 -0.999579 
-0.0288999 -0.00317165 -0.999577 
-0.0288032 -0.00353244 -0.999579 
-0.0286648 -0.0040847 -0.999581 
-0.0288092 -0.00491903 -0.999573 
-0.027577 -0.00606213 -0.999601 
-0.0293036 -0.00759515 -0.999542 
-0.0276076 -0.00991814 -0.99957 
-0.025942 -0.0134431 -0.999573 
-0.0265463 -0.0180249 -0.999485 
-0.0242334 -0.024815 -0.999398 
-0.0242161 -0.0320245 -0.999194 
-0.0210715 -0.039668 -0.998991 
-0.0175895 -0.0438741 -0.998882 
-0.0136701 -0.0329339 -0.999364 
0.00028428 0.000718266 -1 
-0.000133584 0.000963443 1 
0.00892288 -0.0302575 0.999502 
0.013135 -0.0449761 0.998902 
0.0152149 -0.0424518 0.998983 
0.0166515 -0.0358587 0.999218 
0.018308 -0.027854 0.999444 
0.0195483 -0.0207811 0.999593 
0.0202685 -0.0152075 0.999679 
0.0210264 -0.0112283 0.999716 
0.0211055 -0.00852272 0.999741 
0.0208435 -0.00646308 0.999762 
0.0212667 -0.00497277 0.999761 
0.0214342 -0.00404344 0.999762 
0.0215594 -0.00344978 0.999762 
0.0216348 -0.00309272 0.999761 
0.0216845 -0.0028209 0.999761 
0.0221743 -0.00256308 0.999751 
0.0222986 -0.00224323 0.999749 
0.0220091 -0.00173016 0.999756 
0.0219122 -0.000896651 0.999759 
0.0217018 0.000487998 0.999764 
0.0211562 0.00258932 0.999773 
0.0206661 0.00563164 0.999771 
0.0197777 0.00973336 0.999757 
0.0196175 0.0146088 0.999701 
0.0181486 0.0218892 0.999596 
0.0174237 0.0306287 0.999379 
0.0161738 0.0415615 0.999005 
0.0146345 0.0578521 0.998218 
0.0117367 0.0788934 0.996814 
0.00854945 0.111391 0.99374 
0.00443881 0.158246 0.98739 
0.00144813 0.21822 0.975899 
-0.00146832 0.293419 0.955983 
-0.0038654 0.38452 0.923109 
-0.00509582 0.491425 0.870905 
-0.00487409 0.634623 0.772806 
-0.00331819 0.774586 0.632459 
0.00050962 0.969446 0.245303 
0.00340733 0.995957 -0.0897691 
0.00264518 0.931795 -0.362974 
0.00333636 0.913205 -0.407487 
0.00302056 0.786443 -0.617656 
0.00453277 0.591662 -0.806173 
0.00429185 0.433671 -0.901061 
0.00212817 0.320206 -0.947345 
-0.000724199 0.236691 -0.971585 
-0.0046487 0.175797 -0.984415 
-0.00688521 0.132879 -0.991108 
-0.0100085 0.0961859 -0.995313 
-0.0124239 0.0703033 -0.997448 
-0.0148577 0.049407 -0.998668 
-0.0164549 0.035155 -0.999246 
-0.0177753 0.0249764 -0.99953 
-0.0187088 0.0170554 -0.999679 
-0.0197726 0.0111148 -0.999743 
-0.0205875 0.00673847 -0.999765 
-0.0212896 0.00348719 -0.999767 
-0.0215439 0.00113746 -0.999767 
-0.0219142 -0.000534252 -0.99976 
-0.0213751 -0.00152413 -0.99977 
-0.0221289 -0.00213572 -0.999753 
-0.022264 -0.00248837 -0.999749 
-0.0214056 -0.00277466 -0.999767 
-0.0216204 -0.00303723 -0.999762 
-0.0212526 -0.00337437 -0.999768 
-0.0212014 -0.00387597 -0.999768 
-0.0211022 -0.00470159 -0.999766 
-0.0205354 -0.00601313 -0.999771 
-0.0220498 -0.00790148 -0.999726 
-0.0209414 -0.0106051 -0.999724 
-0.0193604 -0.0143502 -0.99971 
-0.0203264 -0.0192465 -0.999608 
-0.0182806 -0.026488 -0.999482 
-0.0187567 -0.0338492 -0.999251 
-0.0158585 -0.0414017 -0.999017 
-0.0128483 -0.0455221 -0.998881 
-0.010309 -0.0352948 -0.999324 
0.000203115 0.000674887 -1 
-0.000124638 0.000656365 1 
0.00713439 -0.0369256 0.999293 
0.00995632 -0.0464653 0.99887 
0.0110203 -0.0418457 0.999063 
0.0122918 -0.034285 0.999337 
0.0132974 -0.0263197 0.999565 
0.0142399 -0.0194407 0.99971 
0.014735 -0.014172 0.999791 
0.0148565 -0.0105933 0.999834 
0.0150207 -0.00790884 0.999856 
0.0150074 -0.00585205 0.99987 
0.0148728 -0.0045575 0.999879 
0.0150893 -0.00374155 0.999879 
0.0151388 -0.00328166 0.99988 
0.0153441 -0.00299413 0.999878 
0.0151847 -0.00275972 0.999881 
0.0153917 -0.00250598 0.999878 
0.0156536 -0.00212603 0.999875 
0.0153009 -0.001473 0.999882 
0.0153325 -0.000341619 0.999882 
0.0150519 0.00146012 0.999886 
0.0147366 0.00416519 0.999883 
0.014137 0.00784008 0.999869 
0.0132981 0.0126734 0.999831 
0.0132983 0.0185644 0.999739 
0.0120749 0.0272776 0.999555 
0.0109644 0.0374206 0.999239 
0.010369 0.0514918 0.99862 
0.00823886 0.0703934 0.997485 
0.00614999 0.0995505 0.995014 
0.00313281 0.14186 0.989882 
0.000183026 0.210741 0.977542 
-0.0021304 0.292107 0.956383 
-0.0043047 0.400523 0.916277 
-0.0049223 0.569653 0.82187 
-0.00346607 0.713365 0.700784 
-0.000603492 0.88111 0.472912 
0.000377979 0.978679 0.205395 
0.000204366 0.908353 0.418204 
0.00153886 0.991828 0.127574 
-0.00120002 0.991603 -0.129316 
-0.00282351 0.912896 -0.408183 
0.00429032 0.808668 -0.588249 
0.00468366 0.642379 -0.766372 
0.00475524 0.473374 -0.880849 
0.00348262 0.350765 -0.936457 
0.00149068 0.259147 -0.965837 
-0.00154276 0.182352 -0.983232 
-0.00403895 0.128602 -0.991688 
-0.00633356 0.0929542 -0.99565 
-0.00872175 0.0656615 -0.997804 
-0.0101516 0.0474548 -0.998822 
-0.0111236 0.03431 -0.999349 
-0.0123395 0.0241996 -0.999631 
-0.0130326 0.0165865 -0.999777 
-0.0137084 0.010878 -0.999847 
-0.0142584 0.00656866 -0.999877 
-0.0148036 0.00333905 -0.999885 
-0.0153578 0.000853431 -0.999882 
-0.0152243 -0.000707391 -0.999884 
-0.0154386 -0.00176122 -0.999879 
-0.0154568 -0.00227705 -0.999878 
-0.0158006 -0.00259104 -0.999872 
-0.0148222 -0.00284019 -0.999886 
-0.0150766 -0.00308199 -0.999882 
-0.0145872 -0.00340869 -0.999888 
-0.0147159 -0.00397532 -0.999884 
-0.0146885 -0.00489948 -0.99988 
-0.0140108 -0.00625834 -0.999882 
-0.0158788 -0.00805494 -0.999841 
-0.0149068 -0.0107783 -0.999831 
-0.0139447 -0.0149145 -0.999792 
-0.0146085 -0.0204333 -0.999684 
-0.0130197 -0.0280184 -0.999523 
-0.0134583 -0.0357612 -0.99927 
-0.01103 -0.0429956 -0.999014 
-0.00886992 -0.0469168 -0.998859 
-0.00709875 -0.0355762 -0.999342 
0.000146925 0.0006434 -1 
-0.00010919 0.00063518 1 
0.00463647 -0.0356873 0.999352 
0.00662115 -0.0473258 0.998858 
0.00748236 -0.0442095 0.998994 
0.00838286 -0.0367154 0.999291 
0.00905656 -0.0284933 0.999553 
0.00971659 -0.0212735 0.999726 
0.0102193 -0.0156875 0.999825 
0.0101016 -0.0115558 0.999882 
0.0102156 -0.00857595 0.999911 
0.0104925 -0.00636906 0.999925 
0.00998772 -0.00479514 0.999939 
0.0100869 -0.00388968 0.999942 
0.010053 -0.00339337 0.999944 
0.0102215 -0.00311985 0.999943 
0.0101588 -0.00292168 0.999944 
0.0100298 -0.0027083 0.999946 
0.0103425 -0.0023764 0.999944 
0.0102526 -0.001799 0.999946 
0.0102107 -0.000710974 0.999948 
0.0100529 0.00101487 0.999949 
0.0099508 0.00360116 0.999944 
0.00947568 0.00722197 0.999929 
0.00881825 0.011948 0.99989 
0.00853795 0.0181386 0.999799 
0.00826987 0.0259233 0.99963 
0.00681423 0.0366898 0.999303 
0.00661972 0.0500053 0.998727 
0.00498422 0.0677507 0.99769 
0.00389055 0.0944866 0.995519 
0.00170685 0.136051 0.9907 
-0.000342686 0.200835 0.979625 
-0.00225783 0.295125 0.955456 
-0.00400962 0.404222 0.914652 
-0.004191 0.581518 0.813523 
-0.00185705 0.736575 0.676353 
-5.30109e-05 0.839066 0.544029 
0.00433951 0.995324 0.0964958 
0.001988 0.999382 0.0350932 
0.00219938 0.999311 0.0370628 
0.00202593 0.999663 0.0258646 
-0.000927862 0.998874 -0.047433 
-0.00114132 0.799643 -0.600475 
0.00471479 0.691702 -0.722167 
0.00478059 0.553151 -0.833067 
0.00431045 0.411637 -0.911338 
0.00293651 0.29971 -0.954026 
0.000711786 0.205925 -0.978568 
-0.00137511 0.144674 -0.989478 
-0.00314372 0.100133 -0.994969 
-0.00496269 0.0714789 -0.99743 
-0.00612356 0.0520752 -0.998624 
-0.0067668 0.0380072 -0.999255 
-0.0077065 0.02716 -0.999601 
-0.0083206 0.0190883 -0.999783 
-0.00879742 0.0128405 -0.999879 
-0.0091902 0.00802359 -0.999926 
-0.00952678 0.00432289 -0.999945 
-0.0102907 0.00159751 -0.999946 
-0.0100167 -0.000324677 -0.99995 
-0.0107191 -0.00158029 -0.999941 
-0.0101964 -0.00228369 -0.999945 
-0.0104993 -0.00262824 -0.999941 
-0.0100566 -0.00285344 -0.999945 
-0.00995371 -0.00306877 -0.999946 
-0.00973346 -0.00332929 -0.999947 
-0.00977098 -0.00381372 -0.999945 
-0.00962121 -0.00467258 -0.999943 
-0.00957616 -0.00619992 -0.999935 
-0.0106786 -0.00846858 -0.999907 
-0.0104031 -0.0116817 -0.999878 
-0.00943461 -0.0158788 -0.999829 
-0.0103396 -0.0209749 -0.999727 
-0.00897709 -0.0280569 -0.999566 