# vtk DataFile Version 3.0 
Exported using Morpho https://github.com/Morpho-lang/morpho 
ASCII 
DATASET UNSTRUCTURED_GRID 

POINTS 1978 float 
-1.43516e+10 -3.07355e+09 -6.76091e+10 
467390 -1.11131e+07 -1.1859e+06 
-4.3287e+07 5.79653e+06 -809847 
-3.14836e+06 -322540 -13469.6 
-817618 319745 538.52 
1.37425e+07 3.04117e+06 -4566.16 
2.78434e+07 1.94598e+06 2456.2 
1.0093e+07 -3.51975e+07 -13301 
1.58262e+06 6.715e+07 34915.4 
4.49807e+06 -7.10724e+07 -38256.1 
-512803 7.22871e+07 18305.6 
-627316 -7.81244e+07 9587.9 
956509 7.51382e+07 -10022.2 
1.37862e+06 -6.01266e+07 -43584 
1.65033e+06 3.66442e+07 117082 
1.77707e+06 -1.00516e+07 -80336 
-83390.5 7.35056e+06 20454.5 
-71285.7 -2.12406e+07 -40628 
813100 1.76428e+06 100539 
-471339 2.12589e+07 -189263 
-939115 -4.81019e+06 147578 
-3.89425e+06 -2.01363e+06 -87803.1 
-6.19479e+06 -1.12286e+07 209811 
-6.78516e+06 1.25597e+07 -424598 
-5.81927e+06 -2.80526e+06 311875 
-5.03984e+06 -4.77007e+06 4361.73 
-8.8282e+06 -1.00677e+06 25415.3 
-1.15462e+07 2.68436e+06 -92677.1 
-5.65397e+06 1.49013e+06 6394.87 
1.62515e+06 -1.58564e+06 91057.2 
1.24689e+06 2.61055e+06 -92003.7 
-5.03032e+06 -2.92723e+06 22739.3 
-5.24061e+06 1.03543e+06 8761.81 
-1.32585e+06 -131717 -15846.7 
-194035 224128 3944.67 
-71062.2 -114407 -1850.68 
109881 188933 17585.4 
3.82304e+06 -597542 306541 
-3.47761e+06 -2.97795e+06 -555728 
-122284 4.66344e+06 297753 
601407 4.39291e+06 -18316.8 
3.701e+06 -9.82254e+06 289580 
-1.89263e+06 5.05253e+06 -255078 
-1.55003e+06 -1.30604e+06 -50807.7 
-1.01972e+06 554354 -29736.7 
2.23792e+06 -587591 16874.7 
5.90294e+06 1.5453e+06 -7118.73 
5.39667e+06 -2.33925e+06 -1116.26 
3.09902e+06 1.49836e+06 -10893.8 
1.9696e+06 75945.6 -7564.43 
2.72514e+06 441047 2196.91 
4.42426e+06 756561 -44.4193 
6.98521e+06 -1.9894e+06 -4006.28 
6.78465e+06 -5.8728e+06 -2336.29 
5.46298e+06 1.89289e+07 14060 
4.45573e+06 -3.26532e+07 -31456.8 
3.25441e+06 4.4606e+07 33648 
6.21491e+06 -4.02013e+07 -8428.03 
4.56115e+06 1.7634e+07 -13264.5 
2.40996e+06 -1.66908e+06 19189.6 
3.36457e+06 2.1316e+06 -29153.1 
1.59134e+06 8.19652e+06 12265.3 
-395128 -1.4898e+07 -185400 
-2.89686e+06 1.01868e+07 -520019 
-4.09481e+06 -1.16517e+07 982067 
-5.45244e+06 8.22597e+06 1.35032e+06 
-4.21389e+06 -7.08943e+06 -2.31476e+06 
-2.33272e+06 7.26285e+06 233697 
-2.41847e+06 3.89161e+06 400451 
-1.53655e+06 -1.90706e+07 100303 
-4.5063e+06 2.23805e+07 -73699.9 
-1.204e+07 -1.48928e+07 60719.3 
-1.02822e+07 6.91984e+06 -21451.2 
-5.15265e+06 -2.91421e+06 4173.02 
-3.76422e+06 1.39894e+06 -2908.58 
3.63829e+06 2.00913e+06 58288.9 
2.6158e+07 -1.1113e+07 -547729 
-1.61762e+07 -1.05177e+07 -1.36785e+06 
-8.43436e+07 5.07942e+07 6.71595e+06 
8.7355e+10 2.83007e+09 3.83384e+10 
-8.41787 -2.601 4.25941e-05 
-8.02666 -2.58645 -6.84128e-05 
-7.71213 -2.62492 0.000838686 
-7.44645 -2.64106 -0.000553723 
-7.19583 -2.63542 -0.000932725 
-6.95672 -2.57187 6.58786e-05 
-6.70322 -2.56246 5.9567e-05 
-6.52393 -2.60377 3.75894e-05 
-6.2704 -2.57328 -7.58001e-05 
-6.07501 -2.57574 -5.432e-05 
-5.83849 -2.56803 -2.68883e-05 
-5.65654 -2.57746 1.16947e-06 
-5.41281 -2.5861 -3.05537e-05 
-5.19201 -2.62029 4.80118e-05 
-4.98827 -2.56706 7.5933e-05 
-4.78459 -2.57026 -0.000879588 
-4.55468 -2.60343 -4.26567e-05 
-4.33703 -2.60518 -5.53783e-05 
-4.12754 -2.61858 -7.12402e-05 
-3.9123 -2.57896 0.000735012 
-3.69786 -2.58645 6.38555e-05 
-3.47583 -2.61478 7.68757e-05 
-3.2583 -2.6006 -0.000778289 
-3.03347 -2.5791 -0.000422846 
-2.80041 -2.5984 0.000525768 
-2.57821 -2.56812 0.000599697 
-2.35918 -2.62527 0.000800376 
-2.10881 -2.6482 0.000372428 
-1.85446 -2.5636 0.000749405 
-1.66815 -2.56041 0.000441374 
-1.4834 -2.60538 0.000648427 
-1.29851 -2.60466 -0.00226833 
-1.133 -2.62002 0.000766366 
-1.0484 -2.43306 -0.000814297 
-0.906329 -2.34359 0.00325863 
-0.92152 -2.55525 0.00160361 
-0.602142 -2.83507 -0.0169386 
-0.346544 -2.6286 0.0421099 
-0.310807 -2.94504 -0.0338108 
0.39908 -2.92689 -0.00607862 
0.786492 -2.66208 -0.00455147 
0.856844 -2.46429 0.0005502 
0.936013 -2.64367 0.00189197 
1.07728 -2.60539 -0.00287141 
1.21436 -2.57235 0.000426667 
1.39483 -2.62982 -0.000444721 
1.57777 -2.57902 0.000803222 
1.7838 -2.61295 -0.000615564 
2.0081 -2.61883 -0.000719821 
2.24473 -2.61637 -0.000646224 
2.48415 -2.60007 -0.000625928 
2.71925 -2.60653 -0.00064777 
2.96249 -2.58615 0.000421067 
3.1794 -2.5899 0.000841838 
3.38701 -2.57521 0.000699443 
3.6226 -2.61119 -6.65813e-05 
3.86062 -2.5582 -0.000705923 
4.06389 -2.58855 -0.000641488 
4.27271 -2.60823 6.11016e-05 
4.49703 -2.59792 4.66731e-05 
4.69549 -2.56509 3.43924e-05 
4.90166 -2.60471 0.000700883 
5.12489 -2.60553 -5.62714e-05 
5.3469 -2.55944 -3.14534e-05 
5.55116 -2.61859 1.30306e-05 
5.79381 -2.59625 -2.41185e-05 
6.00875 -2.58484 4.57543e-05 
6.21915 -2.58335 7.41123e-05 
6.46093 -2.58693 -3.55617e-05 
6.67156 -2.60054 -4.94779e-05 
6.90273 -2.56084 -6.71373e-05 
7.12612 -2.62054 0.000792731 
7.38041 -2.59135 6.71815e-05 
7.59373 -2.5891 7.1041e-05 
7.83202 -2.64234 -0.00075618 
8.07577 -2.48597 6.88959e-05 
8.366 -2.71426 2.94925e-05 
5.06084e+08 -6.67585e+07 -3.55724e+07 
-7.29095e+10 7.86998e+08 3.14642e+10 
-8.32693 -2.38643 3.91682e-05 
-8.01998 -2.35412 -0.00076051 
-7.76386 -2.42984 -7.28708e-05 
-7.57512 -2.23788 0.000658409 
-7.47989 -2.43427 4.87177e-05 
-7.21324 -2.40322 -0.000754973 
-6.98968 -2.34778 -0.000928983 
-6.75872 -2.37247 4.59096e-05 
-6.51282 -2.34752 5.80789e-05 
-6.29525 -2.36344 0.000851188 
-6.06542 -2.35973 -6.95678e-05 
-5.84306 -2.32944 -3.56174e-05 
-5.62077 -2.36807 -1.02689e-06 
-5.39152 -2.35944 3.47246e-05 
-5.17391 -2.37052 6.23033e-05 
-4.94853 -2.36042 -0.000783402 
-4.72864 -2.36918 -4.04245e-05 
-4.5136 -2.37222 -5.2816e-05 
-4.29345 -2.36117 -6.99839e-05 
-4.08042 -2.3658 0.00070578 
-3.85977 -2.35069 0.000883959 
-3.6416 -2.35984 7.34181e-05 
-3.42572 -2.36393 -0.000722115 
-3.2002 -2.36415 -0.000412249 
-2.96656 -2.36836 0.000512563 
-2.74453 -2.36284 0.00060241 
-2.50263 -2.35687 0.000693286 
-2.26034 -2.39411 0.000733412 
-2.02742 -2.41856 0.000700798 
-1.79685 -2.32109 -0.000420315 
-1.59409 -2.3389 -0.000740092 
-1.40961 -2.38826 -0.000972045 
-1.22479 -2.39434 -0.0010132 
-1.11664 -2.24303 -0.00271268 
-0.78954 -2.16652 0.000514845 
-0.828145 -2.59461 0.00614427 
-0.504149 -2.70429 -0.00322316 
-0.396176 -2.54166 -0.0163404 
-0.0551917 -2.78123 0.0177362 
0.505005 -2.6892 -0.0121347 
0.606747 -2.89713 -0.00329535 
0.749626 -2.34645 -0.00346585 
0.926722 -2.27341 0.0082109 
0.997828 -2.44555 0.000442905 
1.15353 -2.36436 7.60686e-05 
1.35651 -2.40822 0.00123214 
1.56152 -2.36468 -0.000457635 
1.78107 -2.38773 0.000862161 
2.00321 -2.39457 -0.000384739 
2.23419 -2.39837 -0.000536719 
2.46205 -2.36635 -0.00082704 
2.69033 -2.37822 -0.00055673 
2.92031 -2.36622 -0.00054974 
3.15277 -2.35899 0.000422045 
3.36744 -2.34951 0.000715571 
3.59796 -2.36919 0.000654706 
3.80875 -2.35155 -0.000897123 
4.03301 -2.36259 -0.000730495 
4.24289 -2.3652 7.36572e-05 
4.45708 -2.36351 5.58802e-05 
4.66539 -2.34889 4.2439e-05 
4.88332 -2.36024 0.000867491 
5.09248 -2.36166 -7.34731e-05 
5.30015 -2.35831 -4.33182e-05 
5.52688 -2.36388 2.22584e-05 
5.73879 -2.37057 -2.10982e-05 
5.96437 -2.36591 5.08422e-05 
6.18605 -2.35416 -0.000673765 
6.41031 -2.36504 -3.95711e-05 
6.63583 -2.35295 -5.87331e-05 
6.85501 -2.33343 -7.52667e-05 
7.08524 -2.37665 0.000776894 
7.30803 -2.38555 7.1867e-05 
7.54287 -2.34496 -0.000692304 
7.76193 -2.40196 0.00084177 
7.98878 -2.33647 0.000765139 
8.42592 -2.3783 7.53401e-05 
-1.19535e+09 2.05635e+08 -6.77972e+07 
-1.19489e+08 -1.77307e+08 -7.28522e+08 
-8.28395 -2.16161 -5.85212e-05 
-8.05238 -2.12011 -0.000655868 
-7.8052 -2.17762 5.44428e-05 
-7.54456 -2.0244 4.87485e-05 
-7.32636 -2.22036 -7.77192e-05 
-7.08789 -2.12711 3.794e-05 
-6.83966 -2.14105 6.66381e-05 
-6.61538 -2.13995 6.81498e-05 
-6.36916 -2.13882 -7.63177e-05 
-6.14863 -2.1176 2.94184e-05 
-5.92388 -2.11063 -2.66901e-05 
-5.70004 -2.1261 1.26656e-05 
-5.48121 -2.13064 -1.19972e-05 
-5.26287 -2.13969 -2.63448e-05 
-5.03894 -2.13981 3.17597e-05 
-4.82696 -2.14701 5.11797e-05 
-4.6094 -2.13958 7.06996e-05 
-4.39781 -2.13739 -0.000737897 
-4.18179 -2.12929 -0.000875118 
-3.97028 -2.12688 -3.76248e-05 
-3.75699 -2.12628 -5.03345e-05 
-3.54188 -2.1261 -6.20195e-05 
-3.32269 -2.13196 -7.86039e-05 
-3.09885 -2.13714 0.000807281 
-2.87496 -2.13652 0.000902364 
-2.64666 -2.13199 6.71473e-05 
-2.40046 -2.15206 -0.000798168 
-2.16669 -2.1639 -0.000410723 
-1.95475 -2.17143 -0.000783986 
-1.70855 -2.08829 1.96464e-05 
-1.50164 -2.12318 7.59591e-07 
-1.32175 -2.18011 0.000420846 
-1.20175 -2.03458 -0.00172512 
-0.970501 -2.1681 -0.0014204 
-0.834946 -1.95328 -0.00349868 
-0.771394 -2.40591 -0.00893103 
-0.67085 -2.51192 0.00786959 
-0.0955951 -2.57422 0.032362 
0.16192 -2.78612 -0.00120747 
0.591665 -2.43672 0.00286546 
0.663071 -2.57677 0.00259776 
0.755156 -2.17821 0.00115977 
0.924012 -2.06572 0.00580864 
1.09439 -2.19258 -0.00170574 
1.17889 -2.03131 0.000759152 
1.32242 -2.20993 0.000672947 
1.52511 -2.15236 0.00049673 
1.75126 -2.17007 0.000671416 
1.98145 -2.1725 -6.64411e-05 
2.21487 -2.17438 -0.000578593 
2.45628 -2.14693 0.000763224 
2.69886 -2.1477 -7.85318e-05 
2.93035 -2.13573 -0.000932947 
3.15816 -2.12456 -0.000643724 
3.38302 -2.12907 7.76293e-05 
3.60376 -2.12638 4.91495e-05 
3.82793 -2.12546 4.88189e-05 
4.04528 -2.14018 3.99565e-05 
4.26303 -2.1306 0.000780525 
4.47685 -2.12721 0.00063346 
4.68992 -2.12725 -5.74337e-05 
4.90173 -2.12251 -4.06033e-05 
5.11946 -2.12666 3.26885e-05 
5.33254 -2.13323 2.19665e-05 
5.55198 -2.13128 6.97049e-06 
5.77454 -2.13718 -2.01425e-05 
5.99442 -2.13781 3.05447e-05 
6.22093 -2.12756 3.79348e-05 
6.44082 -2.12412 6.79884e-05 
6.66168 -2.11526 -0.000818454 
6.89372 -2.09911 -0.000767788 
7.11725 -2.14569 -5.19069e-05 
7.34571 -2.15374 -7.62751e-05 
7.54592 -2.08634 -3.81424e-05 
7.74194 -2.1538 -4.47936e-05 
7.94164 -2.07272 5.25819e-05 
8.24495 -2.07252 -0.000672901 
[...]
POINT_DATA 1978 
VECTORS vectors float
-1.72652e+08 -2.50963e+08 2.24242e+06 
-2.72798e+08 18176.3 -486570 
-5.86584e+06 5293.1 -123044 
727934 9294.2 -269181 
1.67562e+06 29922 -1.28122e+06 
-3.09217e+06 555.018 -32853 
-7.28194e+06 2088.24 -189403 
-9.75022e+06 2449.55 -324088 
-1.12224e+07 1612.26 -315851 
-1.23267e+07 1225.84 -341144 
-1.28215e+07 995.615 -358364 
-1.27744e+07 690.981 -355527 
-1.25014e+07 338.906 -353848 
-1.24129e+07 -56.5117 -373111 
-1.26612e+07 -503.691 -346328 
-1.01455e+07 -915.407 -326994 
-8.75598e+06 -1488.58 -341764 
-1.12256e+07 -1961.99 -326472 
-1.20802e+07 -2791.81 -346600 
-1.1955e+07 -3447.36 -329381 
-6.97206e+06 -4401.53 -327068 
-6.46908e+06 -5290.9 -307257 
-1.14727e+07 -6295.21 -285991 
-1.08605e+07 -7199.08 -254237 
-9.21956e+06 -7874.54 -216073 
-8.08547e+06 -9014.5 -191379 
-6.11675e+06 -9230.38 -152040 
-5.26959e+06 -6527.51 -83206.7 
-5.45815e+06 -3664.76 -35728.3 
-4.08175e+06 -3242.62 -22560.3 
-3.44694e+06 -10214.9 -55160.6 
-3.349e+06 -12744.5 -54717.8 
-1.95036e+06 -3617.65 -11818.7 
-754293 304.403 778.496 
-464140 -1346.93 -2827.11 
-240799 3686.82 6334.76 
-90059.5 -2855.11 -4073.62 
-2.19759e+06 7501.8 8916.31 
-1.70976e+07 -24570.3 -9855.92 
-1.21323e+07 -4653.27 388.753 
-1.16199e+07 -7913.95 4329.28 
-9.98078e+06 -23839.4 22973.5 
-2.24193e+06 -11539 15160.6 
-1.38357e+06 -6037.63 10329.5 
-597538 -169.052 360.62 
731221 1240.19 -3280.73 
2.35066e+06 -7372.47 25105.2 
3.71102e+06 -12435.3 53531.8 
4.78763e+06 -11698.4 65725.3 
5.27486e+06 -9230.19 67727.1 
5.82157e+06 -8077.22 79467.1 
6.67959e+06 -9060.3 115619 
7.26086e+06 -7797.46 132549 
7.20479e+06 -9728.7 212073 
8.50852e+06 -7708.07 216131 
1.02293e+07 -6887.13 247144 
1.09161e+07 -6789.37 307720 
1.17072e+07 -5105.09 294890 
1.04998e+07 -4474.12 331594 
1.05777e+07 -3498.17 337309 
1.19216e+07 -2682.85 338144 
7.84619e+06 -2155.25 359551 
8.36589e+06 -1571.69 360012 
1.25804e+07 -1013.77 348030 
1.02143e+07 -566.015 351306 
1.04502e+07 -117.781 330696 
1.20562e+07 244.665 301299 
9.49282e+06 574.327 322601 
8.37516e+06 784.107 286227 
9.34124e+06 1094.2 279757 
9.72803e+06 1704.34 300896 
8.04314e+06 1594.62 191156 
6.72208e+06 2126.92 176842 
6.20545e+06 3235.94 181610 
4.90389e+06 1608.33 65462 
5.33143e+06 3637.54 111028 
6.95275e+06 5852.48 135872 
3.98503e+07 17561 455919 
5.37464e+07 5.12638e+08 -1.60863e+06 
1.22971e+08 -2.30343e+08 1.89907e+09 
304.821 -603.235 20403.8 
11.0019 -22.698 594.621 
223.017 -388.206 11344 
397.961 -536.127 21203.3 
406.538 -336.551 20024 
325.782 -173.024 14657.1 
365.296 -126.252 15875.1 
304.858 -67.5782 12338.1 
330.651 -53.2218 14161.8 
332.752 -33.3468 13309.8 
306.57 -17.2059 12225.1 
350.428 -4.26196 13753.6 
351.895 12.6904 14439.8 
321.126 28.0164 12542.1 
356.117 53.4945 14515.3 
324.95 68.5351 12842 
343.7 101.29 13972.6 
330.801 128.5 13343 
329.946 167.056 13338.6 
327.654 215.68 13373.5 
323.106 276.13 13342.9 
331.621 377.716 14215 
324.817 486.204 14205.7 
326.834 655.593 14865 
317.158 849.042 14890.1 
308.264 1088.92 14772.4 
310.364 1465.52 15300.9 
294.777 2190.45 17195.3 
303.555 2454.69 14299.8 
340.907 3179.3 14505.4 
188.348 2447.75 8577.52 
-29.2136 -447.296 -1164.8 
356.879 5968.11 11761.3 
885.328 8176.79 15131.8 
-16.1842 -113.25 -177.99 
-143.897 -2607.08 -3999.58 
-2902.57 -269190 -272024 
512.257 17662.3 10061.3 
6.77166 926.874 266.103 
1674.54 -154408 62079.3 
-585.341 12414.9 -14269.4 
1928.12 -21224.9 27149.3 
-191.354 5037.11 -7381.93 
-112.004 1798.92 -3496.97 
-266.965 3593.05 -8801.62 
-249.59 3679.51 -11557.2 
-290.562 3334.67 -13594.6 
-272.65 2693.75 -14278 
-279.355 2103.04 -14732.8 
-313.097 1737.69 -16259.8 
-304.487 1210.66 -14976.9 
-406.791 1221.94 -19833.4 
-101.59 216.13 -4597.55 
-316.217 514.373 -13991.2 
-441.199 549.816 -19125.8 
-102.227 96.6452 -4299.98 
-350.179 254.096 -14506.7 
-344.199 193.001 -14282.3 
-323.969 135.011 -12976.2 
-332.11 104.849 -13266.3 
-322.305 75.2295 -12716 
-327.583 54.7078 -12913.1 
-326.222 35.836 -12890.7 
-350.031 20.1195 -14155.7 
-340.006 2.52864 -13590.6 
-356.063 -13.9875 -14522.6 
-365.334 -31.7375 -14991.2 
-345.007 -47.0956 -13944.3 
-358.965 -73.8849 -15033.5 
-353.45 -106.622 -14822.4 
-324.676 -139.705 -13556.4 
-375.348 -264.69 -18037.4 
-343.356 -334.501 -15881.3 
-328.651 -447.19 -15830.3 
-330.995 -658.732 -18067.7 
-143.865 -266.998 -7379.63 
-259.252 -549.786 -20177.9 
6.45206e+07 -4.12152e+08 -3.34181e+07 
1.03678e+07 6.54269e+08 5.23614e+07 
121.764 -177.81 6605.2 
440.239 -650.521 17167 
486.768 -610.466 17646.9 
398.333 -374.601 13172.6 
-133.513 128.72 -5056.72 
288.252 -168.45 9678.22 
441.637 -174.231 13432.1 
419.746 -119.996 12912.9 
380.77 -67.432 11076.5 
464.828 -54.5636 13714.5 
419.737 -30.2823 11907.9 
479.498 -16.6533 13694 
416.639 -0.0821667 11809.3 
473.945 15.9783 13611.8 
460.582 33.3254 13037.1 
441.543 50.5326 12619.2 
454.659 73.8509 12883.3 
441.316 98.2517 12641.6 
447.668 132.389 12837.1 
448.985 174.952 12973.2 
446.519 228.2 13067.7 
439.741 295.56 13100.7 
431.551 381.57 13146.8 
428.28 497.516 13293.4 
416.456 642.2 13298.3 
416.53 844.862 13549.9 
417.67 1110.92 13726 
401.569 1455.99 13566.7 
395.275 1892.18 13521.7 
487.421 2567.87 14097.3 
492.293 2969.57 12683.4 
575.716 4172.59 13977.1 
-57.6334 -478.85 -1203.33 
580.104 3643.53 7980.15 
1241.22 5897.59 9374.4 
-2475.79 -33622.6 -43971.3 
-606.935 -22912.8 -19742.8 
934.157 16831.5 7119 
-2532.02 -1.28928e+06 -14640.9 
734.345 -13579.9 8214.86 
1143.78 -59494.4 45670.5 
589.804 -4188.98 4937.27 
2084.47 -15614.6 24475.6 
-620.185 5874.64 -10523.6 
-612.714 4306.73 -10377.1 
-422.631 3299.57 -10153.2 
-522.813 3554.67 -14171.2 
-77.7014 464.691 -2427.72 
-559.885 2681.58 -18431.5 
-521.028 1991.29 -17840.7 
-216.843 597.772 -7115.55 
-358.131 770.538 -11814.2 
-423.901 679.203 -13557.7 
-474.296 572.889 -14737.6 
-372.851 350.261 -11437.7 
-442.342 315.501 -13224.8 
-443.801 244.692 -13089.7 
-436.819 184.479 -12771.9 
-451.397 143.884 -12952.1 
-451.557 108.545 -12881 
-456.613 81.5701 -12957.9 
-457.995 59.1119 -12958.3 
-459.032 40.1946 -12962.5 
-447.917 22.3374 -12710.5 
-454.93 6.6744 -12849.7 
-446.492 -8.48733 -12699.4 
-439.946 -24.276 -12597.6 
-453.113 -43.8723 -12976.5 
-437.334 -64.5694 -12770.8 
-434.964 -94.244 -12874 
-504.359 -159.977 -15058.3 
-359.339 -163.333 -11277.7 
-392.926 -252.517 -12704.7 
-422.444 -384.256 -14067.2 
-336.639 -426.866 -12189.6 
-317.945 -455.073 -11944.3 
-240.511 -349.707 -12834.2 
3.91248e+07 -1.48367e+09 -1.1549e+08 
-2.24544e+07 1.57775e+09 6.24123e+06 
236.243 -405.862 14883.4 
230.942 -395.693 10271.7 
412.129 -561.895 15182.1 
387.505 -427.228 14642.8 
478.072 -312.82 15290.2 
438.989 -229.832 14458.7 
462.749 -163.965 14942.5 
465.631 -109.643 14455.5 
474.111 -71.7322 14481.4 
466.872 -47.6429 14459.3 
461.774 -23.2091 14386 
469.396 -4.24696 14393.6 
466.721 12.9256 14270.3 
469.25 30.0507 14266.4 
464.467 49.8846 14191 
464.435 70.6814 14146.6 
462.575 97.4309 14153.8 
460.892 129.258 14153.3 
456.899 170.677 14186.2 
453.915 222.556 14256.3 
450.573 286.667 14274.3 
446.257 368.606 14318.4 
445.718 474.321 14430.4 
443.441 608.854 14476.6 
439.26 779.02 14523.3 
441.055 1004.1 14592.1 
456.349 1312.46 14616.4 
475.182 1690.78 14571.7 
503.653 2130.74 14391.4 
587.806 2731.34 14083.5 
710.612 3547.19 14185.1 
974.603 5361.23 16504 
175.765 855.363 2288.69 
884.181 4390.8 8859.07 
1235.29 4463.86 8131.3 
-322.74 -2621.4 -3152.84 
-43805 -633706 -585419 
-12252.5 -509781 -98610 
4741.24 -270245 64219.8 
19425.9 -159061 131671 
2280.38 -30916.4 27931.3 
-214.071 1054.63 -1542.24 
-1293.25 6242.81 -11772.9 
-752.905 4157.43 -9086.47 
-798.584 3745.3 -10450.8 
-776.011 4343.57 -13680.7 
-617.398 3299.18 -13143.4 
-709.965 3552.02 -18434.3 
-162.246 687.579 -4720.43 
-511.794 1733.01 -15883.7 
-390.728 1047.6 -12643 
-481.711 1010.39 -15833.7 
-442.413 723.196 -14576.4 
-390.771 499.216 -12885.8 
-484.505 474.137 -15720.1 
-445.127 339.898 -14384 
-454.871 263.002 -14327.3 
-459.443 203.109 -14246.2 
-457.828 154.685 -14200.2 
-457.827 116.758 -14166.3 
-457.812 86.931 -14175.1 
-460.324 63.4696 -14211 
-462.932 42.9099 -14202.8 
-466.553 24.5942 -14241.7 
-469.253 6.78213 -14284.5 
-472.155 -10.895 -14306.2 
-472.903 -31.1889 -14367.9 
-468.183 -56.6577 -14403.9 
-459.774 -84.4222 -14400.7 
-455.114 -122.007 -14538.3 
-381.284 -153.608 -12586.2 
-481 -258.842 -15872 
-413.325 -307.805 -13816.2 
-396.98 -427.739 -14680.7 
-394.898 -514.748 -14519.7 
-297.576 -503.544 -12572.8 
-150.085 -236.691 -7883.17 
-1.73284e+07 -4.63805e+08 -1.5483e+07 
-1.91669e+07 3.33047e+10 2.19316e+07 
206.129 -506.527 18882.1 
276.546 -556.583 13807.2 
317.388 -507.593 14908 
302.397 -395.918 15260.5 
366.795 -317.276 14106.7 
325.885 -265.089 14460.4 
364.595 -194.738 14470.9 
372.512 -140.783 14784.6 
393.802 -94.5929 14699.2 
372.321 -64.2403 14583.3 
373.429 -36.6891 14506.3 
369.443 -11.6949 14443.9 
373.619 6.46547 14378.1 
369.276 23.075 14307 
377.548 40.3525 14262 
368.424 59.9504 14206.5 
373.605 82.2341 14201 
367.075 110.369 14200.9 
366.903 145.699 14215.8 
363.335 191.165 14264.2 
362.68 248.273 14317.1 
361.36 318.574 14343 
360.661 408.615 14424.6 
366.729 523.926 14535.7 
369.871 665.066 14573.7 
377.252 849.468 14623 
400.143 1107.04 14737.3 
431.709 1421.54 14776 
474.976 1794.02 14636.7 
539.257 2245.11 14280.6 
699.47 2943.66 13945.3 
796.63 3429.33 12555.7 
1006.1 3909.24 11747.3 
980.776 3792.86 8783.84 
1852.46 5381.3 11166.5 
811.39 4215.44 5074.23 
-391.865 -2999.62 -2751.03 
-5802.34 -78749.6 -53686.4 
-85111.9 -1.83893e+06 -407102 
-1442.59 19202.6 -8900.19 
39076.9 -200818 206830 
-955.57 3471.04 -5828.52 
-1067.05 3779.16 -7985.66 
-1085.63 4226.72 -10701.1 
-1094.79 4165.32 -13409.8 
-837.113 3664.32 -13429.4 
-710.743 3033.93 -13700.1 
-586.066 2619.03 -13601.7 
-523.284 2177.7 -14611.9 
-462.855 1677.09 -14711.1 
-424.534 1315.22 -14926.2 
-388.164 970.105 -14603.1 
-378.527 773.064 -14690.3 
-365.307 601.737 -14638.4 
-362.794 462.559 -14510.4 
-360.39 363.774 -14453.6 
-365.275 280.805 -14379.8 
-368.683 217.751 -14345.3 
-369.404 167.465 -14299.9 
-364.413 125.444 -14229.6 
-363.289 93.6584 -14200.4 
-363.079 69.3429 -14228.8 
-367.948 49.1835 -14252 
-368.936 30.9766 -14277.3 
-375.08 13.7541 -14329.1 
-378.992 -4.30241 -14363.8 
-378.386 -24.9002 -14397.7 
-378.25 -50.8879 -14465.1 
-369.516 -81.5186 -14482.4 
-362.295 -118.071 -14552.2 
-364.269 -170.663 -14853.3 
-323.674 -216.581 -13457.6 
-384.655 -339.447 -16032.3 
-318.095 -429.943 -14742.8 
-304.912 -546.349 -14603.6 
-210.12 -479.816 -12072.3 
-221.862 -456.254 -16890.2 
2.38937e+07 -2.06371e+08 -1.5015e+07 
-1.98516e+06 6.42808e+08 434859 
153.32 -530.383 19149.4 
171.131 -411.992 10718.9 
276.105 -785.742 18991.5 
224.785 -479.475 13943 
245.158 -334.068 14693.6 
266.139 -235.293 14523.5 
280.26 -177.081 14447.6 
288.43 -120.473 14561 
286.051 -84.5535 14509.1 
279.103 -51.5573 14451.7 
281.806 -23.2281 14355.2 
278.054 -0.672641 14330.1 
278.658 16.3002 14290.6 
280.25 33.3526 14266.9 
281.959 49.7656 14196.4 
279.579 69.8352 14173 
280.429 93.8445 14182.8 
276.665 126.168 14206.8 
277.116 165.96 14215 
276.904 217.655 14267.6 
277.65 282.257 14345.2 
278.899 361.822 14386.6 
285.145 465.068 14471.8 
293.17 593.044 14586.7 
305.123 754.518 14619.6 
333.053 979.046 14739.7 
371.255 1261.07 14855.8 
424.463 1599.83 14800.6 
505.826 2006.2 14579.6 
642.555 2564.72 14569.1 
997.239 3721.17 15056.1 
1538.44 5142.1 17167.1 
632.064 1862.9 6210.78 
414.488 1318.04 3447.87 
2149.38 5855.96 15652 
2574.79 9085.94 12545.6 
-1237.79 -5955.14 -5480.62 
-6849.37 -61349.7 -24619.1 
2408.51 -123556 15096 
6072.77 -38941.2 26530.3 
-3198.25 11936.6 -15298.6 
-1258.89 3678.95 -6868.05 
-1691.74 4765.75 -11258.6 
-1521.07 4800.39 -13033.9 
-1208.57 3937.01 -13414.6 
-946.302 3486.85 -14263.6 
-657.532 2591.69 -13409.4 
-608.365 2485.28 -15797.2 
-437.248 1714.16 -13704.1 
-406.996 1471.85 -14906.5 
-357.15 1128.7 -14742.4 
-315.183 886.225 -14669.9 
-301.021 703.98 -14605.2 
-287.306 544.274 -14503.5 
-276.403 429.85 -14418.9 
-280.149 335.387 -14373.5 
-280.411 261.656 -14322.9 
-279.033 202.447 -14218 
-280.748 155.393 -14228.8 
-276.125 116.96 -14231.2 
-273.31 86.9541 -14170.3 
-274.097 63.8271 -14180.3 
-277.257 45.7811 -14223.9 
-276.957 29.115 -14244.8 
-284.484 11.7989 -14314.5 
-285.612 -6.63554 -14333.3 
-286.028 -29.0692 -14390.2 
-286.342 -58.4006 -14455.7 
-275.331 -91.9184 -14461.8 
-271.321 -133.337 -14615.1 
-285.669 -198.223 -15114.7 
-259.237 -258.334 -14439.1 
-239.604 -311.198 -13237.4 
-230.142 -452.295 -14589.7 
-236.992 -553.719 -14573.6 
-175.273 -550.586 -13061.4 
-99.9952 -286.587 -9365.02 
1.33481e+07 -2.73712e+07 -4.17129e+06 
3.45768e+07 -1.43019e+09 -549695 
79.9085 -398.345 13443.9 
-73.979 266.801 -6567.01 
70.4839 -261.186 6540.01 
196.979 -440.556 14509.7 
170.629 -358.038 14679.4 
190.23 -254.992 13950.8 
204.234 -198.952 14937.9 
204.639 -131.923 13603.4 
206.222 -96.9169 14461.5 
211.499 -63.1823 14422.7 
208.17 -29.6479 14336.6 
207.269 -5.76967 14290.9 
201.769 13.3912 14233.3 
205.254 29.2689 14176.2 
203.856 44.7845 14176.8 
206.954 60.375 14067 
203.547 82.0538 14139 
204.321 109.256 14134.1 
202.693 145.28 14121.6 
205.435 190.014 14147.4 
207.097 247.476 14257.1 
209.784 317.571 14318.3 
217.158 407.099 14385 
225.522 518.174 14490.8 
240.658 661.434 14646.9 
264.87 844.458 14656.1 
300.797 1077.73 14762.7 
354.034 1373.46 14860 
431.181 1734.47 14777.2 
561.344 2207.79 14811.7 
750.792 2792.95 14151.2 
983.452 3282.5 13774.2 
1204.38 3712.19 14808.4 
1790.67 4707.77 14814.7 
1121.51 2716.89 6159.19 
2397.5 6379.6 10588 
-36010.6 -121599 -125323 
-3168.59 -27917.8 -17464.2 
-606.749 19082.9 -2527.24 
237117 -980388 830830 
-1595.9 4667.7 -6601.78 
2698.36 -6730.08 11175.2 
-1825.26 4535.61 -10603.4 
-1017.04 2857.28 -8846.85 
-1236.27 3823.78 -14703.3 
-915.519 3133.19 -13975.9 
-741.876 2771.36 -14729.1 
-515.513 2058.55 -13754.6 
-449.459 1806.65 -14925.9 
-374.931 1474.09 -15181.8 
-300.947 1095.49 -13910 
-267.385 912.412 -14673.3 
-239.937 714.716 -14574.8 
-229.811 567.118 -14450.4 
-212.674 444.463 -14426.4 
-213.441 349.628 -14348.8 
-211.814 273.368 -14317.7 
-207.341 209.937 -14155.8 
-206.023 159.93 -14082.3 
-205.56 122.356 -14227.8 
-201.001 90.3168 -14168.3 
-201.771 66.4687 -14106.4 
-201.852 48.668 -14146.6 
-202.259 33.362 -14180.2 
-207.406 16.6287 -14218.9 
-209.459 -1.38792 -14278.4 
-210.332 -23.3955 -14297.8 
-213.147 -53.4103 -14396.2 
-205.204 -88.5809 -14394.9 
-199.266 -129.842 -14404.1 
-196.819 -176.858 -13795.2 
-212.681 -281.735 -15897.1 
-193.225 -345.813 -14551.2 
-169.083 -464.619 -14600 
-164.406 -578.605 -14486.4 
-107.789 -491.791 -11581.3 
-99.7403 -398.575 -13238.1 
-2.16872e+07 -3.94018e+07 -761947 
6.32851e+07 -5.73924e+08 574660 
42.8382 -315.813 10587.2 
146.803 -755.217 17306.4 
110.243 -601.02 14674.2 
141.137 -480.622 14476.6 
126.441 -354.501 14350.5 
133.085 -234.992 13071.9 
151.561 -196.131 14998.2 
155.989 -132.503 14378.1 
156.152 -98.9257 15722 
138.063 -47.8875 12910 
158.896 -23.2345 15514.1 
130.515 1.31878 12718.6 
145.113 20.3262 14759.7 
147.65 35.5254 14665 
133.048 45.6337 13406.4 
130.499 57.5262 12689.8 
151.747 92.4527 15340.5 
142.486 114.142 14066.4 
142.035 152.029 14093.2 
145.864 199.07 14142 
148.626 258.082 14250 
155.637 333.59 14367.1 
163.208 423.03 14385.7 
177.536 543.477 14600.3 
197.897 692.671 14661.1 
224.162 869.464 14581.8 
281.133 1163.44 15438.7 
332.972 1418.78 14949.4 
415.42 1748.32 14650.1 
610.531 2369.5 15283.8 
749.329 2675.87 13905.6 
837.759 2946.58 14755.7 
1035.72 3205.91 12681 
1312.74 3581.95 11614.4 
2670.12 6060.83 15627.2 
2743.35 6137.05 11160.1 
2820.61 6554.85 8468.34 
-778.078 -3505.73 -2195.52 
-181.591 -5464.6 -531.387 
8428.07 -73183.9 26783.1 
-4783.65 13424.3 -14156.5 
1517.06 -3323.61 6144.98 
-2839.89 6596.13 -17198 
-546.967 1486.03 -4875.72 
-1109.81 3580.05 -14707.9 
-927.467 3254.15 -15794.1 
-599.177 2275.17 -13089.9 
-529.352 2125.2 -14486.5 
-421.052 1775.37 -15279.5 
-303.644 1302.17 -14176.4 
-267.409 1105.16 -15132.3 
-195.716 776.99 -13560.6 
-192.683 696.377 -15266.8 
-172.962 527.818 -14410.8 
-157.288 412.335 -14350.8 
-149.503 311.341 -13685.7 
-155.459 261.192 -14619.4 
-146.634 194.298 -14038.1 
-141.24 146.245 -13762 
-147.204 116.322 -14523.5 
-144.513 86.4139 -14614.5 
-145.104 63.6154 -14492.1 
-132.702 44.3139 -13489.5 
-141.988 32.3517 -14195.9 
-144.877 16.7087 -14192.8 
-146.28 -1.58887 -14173.8 
-149.047 -24.8952 -14293.9 
-150.056 -55.6041 -14340 
-146.346 -94.3839 -14334.2 
-146.907 -142.364 -14449.7 
-142.798 -188.789 -13706.8 
-138.9 -268.931 -14417.1 
-143.723 -353.041 -14520 
-124.817 -466.581 -14473.7 
-120.293 -588.515 -14461.7 
-76.7809 -492.096 -11374.2 
-79.9571 -459.554 -15887.6 
-4.97925e+07 6.86246e+07 -1.01193e+06 
4.99906e+07 5.28748e+08 5.08497e+06 
28.866 -313.401 9753.73 
73.8264 -533.932 12352.8 
76.2764 -597.168 14377.2 
105.264 -480.165 14628.5 
91.3123 -364.589 14474.1 
111.717 -284.754 15071 
102.175 -191.418 14068.4 
103.462 -129.53 13838.3 
99.3265 -88.7558 14405.6 
105.74 -49.4897 14340.3 
100.868 -18.0574 14598.7 
92.882 4.28028 13464.6 
94.7665 22.6526 14639 
82.8533 31.5479 12575.3 
98.0171 51.3375 15270.6 
96.8667 63.6965 14483.9 
89.1176 80.7282 13869.7 
84.151 98.2464 12588 
98.3643 151.187 14669.6 
91.278 177.424 13170.7 
106.944 257.146 14967.1 
92.908 266.72 12186 
119.847 407.25 14782.1 
132.948 516.157 14956.6 
148.714 638.992 14767 
160.728 749.488 13857.9 
191.155 922.543 13699.7 
263.455 1282.1 15451.5 
263.908 1263.25 12334.1 
471.532 2061.43 15857.6 
611.017 2454.5 15429 
235.318 895.928 4516.77 
1116.02 3930.14 16079 
1290.65 4103.63 13627.2 
1946.26 4657.5 12593.2 
1081.47 2061.13 4476.77 
-1932.73 3630.28 -7757.63 
-123.781 290 -791.671 
-1781.12 5254.02 -18064 
-916.279 3484.84 -15232 
-662.75 2706.85 -14448.4 
-587.188 2487.64 -15891 
-436.821 1935.75 -15026.2 
-339.131 1606.43 -15595 
-235.401 1165.92 -14138.8 
-199.19 971.819 -14608.6 
-165.521 808.047 -15322.4 
-131.06 595.601 -14108 
-123.754 483.22 -14225.6 
-113.029 386.213 -14429.2 
-111.711 315.072 -14722.1 
-97.8165 224.851 -13337.4 
-100.138 187.844 -14219.8 
-98.7412 147.692 -14475.7 
-81.2611 93.4248 -12095.7 
-90.7044 82.7113 -14246.2 
-81.6251 54.9607 -12428.8 
-98.0039 51.8208 -15275.2 
-84.3292 32.4154 -12793.7 
-93.9624 21.4758 -13992.9 
-95.5512 4.12837 -13922.7 
-104.86 -18.9759 -14869.7 
-101.155 -48.7565 -14267.2 
-103.475 -89.6156 -14629.8 
-103.839 -135.575 -14422.1 
-118.757 -221.464 -16306.1 
-86.5542 -236.295 -12495.3 
-99.1401 -362.917 -14288.9 
-86.7638 -484.21 -14500.6 
-86.633 -594.562 -14403.1 
-60.419 -561.842 -12543 
-30.8171 -259.747 -8036.85 
-3.40015e+07 -1.55124e+08 -884744 
2.73403e+07 -6.03697e+08 -1.34068e+06 
19.0191 -300.223 9504.95 
41.4484 -445.655 9917.36 
51.8901 -601.517 14399.8 
72.9278 -489.05 14582.5 
65.5382 -361.904 14502 
76.9514 -269.624 14554.3 
71.4009 -190.284 14225.6 
76.8815 -138.022 14726.9 
62.736 -81.2478 13267.5 
69.1796 -44.999 13943.5 
62.4107 -13.6662 13905.2 
64.0561 7.92461 14637.1 
53.6796 23.0638 13397.7 
56.3207 36.184 14013.7 
55.6257 48.08 14427.8 
53.1257 56.6034 13243.7 
48.0591 70.5779 12445.1 
61.331 115.632 15206 
54.0169 132.383 13073.6 
63.4832 192.915 14661.6 
61.726 223.579 13192.4 
79.2092 331.573 15460.3 
76.4377 365.166 13518.9 
86.9705 458.316 13564.6 
104.105 586.999 14006.6 
133.726 794.52 15320.6 
158.383 958.915 14918 
202.169 1209.73 15172.9 
279.752 1585.47 15796.7 
340.032 1770.65 14261.9 
648.532 2999.08 19319 
800.983 3748.35 19132.1 
718.99 3530.86 15030.6 
940.909 4191.83 14661.7 
989.986 2848.42 7994.34 
-1097.56 2803.55 -7783.97 
-1243.89 4414.36 -14433.1 
-591.722 2623.07 -10265 
-558.894 2964.76 -15680.3 
-438.468 2254.27 -14770.4 
-351.401 1847.06 -14886.6 
-241.798 1371.95 -13691.1 
-211.446 1281.81 -15820.4 
-165.912 1019.14 -15533.3 
-122.106 766.323 -14438.1 
-99.0538 603.932 -14331.8 