# vtk DataFile Version 3.0 
Exported using Morpho https://github.com/Morpho-lang/morpho 
ASCII 
DATASET UNSTRUCTURED_GRID 

POINTS 1978 float 
-8.48488 -2.82792 -4.80882e-07 
-8.26483 -2.82837 -1.48077e-05 
-8.0448 -2.82826 -7.07182e-06 
-7.79529 -2.82828 -1.42077e-05 
-7.49145 -2.82801 -7.74568e-06 
-7.20862 -2.8281 -4.834e-06 
-6.99682 -2.8281 -3.28347e-06 
-6.75692 -2.82819 -1.2878e-06 
-6.55525 -2.82824 -2.53354e-06 
-6.35449 -2.8278 -6.982e-07 
-6.15112 -2.82846 -1.25167e-06 
-5.94725 -2.82789 -1.76548e-07 
-5.73294 -2.82811 1.43723e-06 
-5.52781 -2.82809 1.47426e-06 
-5.30209 -2.82822 8.03107e-07 
-5.0989 -2.82802 2.63353e-06 
-4.88037 -2.82816 2.21978e-06 
-4.67563 -2.82813 2.58916e-06 
-4.46164 -2.8282 3.54712e-06 
-4.25207 -2.82811 4.28425e-06 
-4.0429 -2.82817 5.51415e-06 
-3.8336 -2.82821 5.60331e-06 
-3.6249 -2.82816 7.76983e-06 
-3.40857 -2.82828 8.92151e-06 
-3.19305 -2.82823 1.09646e-05 
-2.97051 -2.82823 1.27501e-05 
-2.74744 -2.82838 1.39035e-05 
-2.52571 -2.8283 1.65283e-05 
-2.29972 -2.82873 1.51679e-05 
-2.01985 -2.82823 1.95362e-05 
-1.81219 -2.82821 1.20388e-05 
-1.63427 -2.82888 -7.53542e-06 
-1.42366 -2.82842 7.27761e-06 
-1.23653 -2.82805 2.08522e-05 
-1.06894 -2.82749 9.16551e-05 
-0.972331 -2.8282 9.46651e-05 
-0.881732 -2.82831 0.000129579 
-0.762201 -2.82462 0.00108109 
-0.31412 -2.82069 0.0032092 
0.0896286 -2.81927 0.0011031 
0.38732 -2.81693 -0.00281405 
0.676263 -2.82781 -0.000949939 
0.779776 -2.82656 -0.000305501 
0.941774 -2.82786 -0.000125244 
1.09991 -2.82745 -7.83371e-05 
1.25492 -2.82757 -3.22602e-06 
1.43946 -2.82945 -4.72487e-06 
1.62839 -2.8286 -5.03986e-06 
1.83181 -2.82853 -1.71114e-05 
2.05737 -2.82846 -1.71451e-05 
2.28034 -2.82848 -1.6304e-05 
2.52915 -2.82816 -1.55404e-05 
2.74357 -2.8284 -1.52815e-05 
2.98364 -2.82822 -1.36629e-05 
3.20146 -2.82822 -1.04417e-05 
3.41063 -2.8282 -8.56619e-06 
3.63133 -2.82824 -7.45297e-06 
3.83856 -2.82816 -6.72309e-06 
4.04987 -2.82818 -5.25674e-06 
4.2654 -2.82815 -4.82271e-06 
4.47137 -2.82817 -3.11117e-06 
4.67789 -2.82817 -2.51923e-06 
4.88185 -2.82817 -1.70201e-06 
5.08721 -2.82809 -1.64641e-06 
5.29321 -2.82815 -2.1795e-06 
5.50922 -2.8281 2.18553e-08 
5.7209 -2.8281 -2.52022e-06 
5.94 -2.82805 -9.96569e-08 
6.16304 -2.828 5.12313e-07 
6.37778 -2.8281 8.54313e-07 
6.60303 -2.82809 3.97544e-06 
6.82458 -2.82814 2.39784e-06 
7.03187 -2.82819 4.84338e-06 
7.29668 -2.82795 5.73139e-06 
7.52409 -2.82842 5.89354e-06 
7.75409 -2.82818 1.12798e-05 
8.02644 -2.82805 8.36784e-06 
8.2212 -2.82868 1.439e-05 
8.48464 -2.82774 -1.45435e-06 
-8.48532 -2.5872 1.69945e-05 
-8.25519 -2.57635 -5.23991e-17 
-8.02765 -2.583 9.18832e-17 
-7.80288 -2.60612 -1.74653e-16 
-7.55214 -2.64691 -3.72205e-18 
-7.2497 -2.63568 1.35668e-17 
-6.97971 -2.57324 2.4362e-19 
-6.76987 -2.60548 -2.52988e-18 
-6.53208 -2.5668 3.20877e-17 
-6.30128 -2.60544 2.18768e-17 
-6.05875 -2.57407 -2.03306e-17 
-5.84462 -2.58799 9.02168e-19 
-5.63152 -2.58073 -4.12146e-18 
-5.41242 -2.60557 6.88031e-18 
-5.19586 -2.58301 1.5488e-17 
-4.98062 -2.60281 1.25348e-17 
-4.76426 -2.58994 1.49397e-17 
-4.55116 -2.6005 2.59163e-17 
-4.33497 -2.59517 3.0309e-17 
-4.12157 -2.59311 3.43204e-17 
-3.90883 -2.59241 2.91212e-17 
-3.69615 -2.5899 3.32364e-17 
-3.48118 -2.59576 2.09516e-17 
-3.26236 -2.59321 3.79886e-17 
-3.0414 -2.5976 3.70118e-17 
-2.81566 -2.59651 1.65687e-17 
-2.59075 -2.59287 8.93817e-18 
-2.36624 -2.59754 -1.27808e-17 
-2.12796 -2.64201 2.58495e-19 
-1.88274 -2.57966 5.84479e-17 
-1.68381 -2.55348 -2.96573e-16 
-1.50118 -2.61185 1.12276e-18 
-1.30087 -2.60811 7.3635e-17 
-1.11755 -2.61033 6.27077e-16 
-0.982299 -2.49068 1.9926e-15 
-0.863731 -2.35111 4.54892e-16 
-0.864781 -2.601 2.52905e-15 
-0.674622 -2.77196 1.3486e-14 
-0.362995 -2.72211 -8.20934e-15 
-0.150309 -2.76973 1.39528e-14 
0.208783 -2.75945 2.10508e-14 
0.599732 -2.74989 2.25034e-15 
0.744191 -2.56483 -8.48583e-15 
0.869062 -2.63213 -4.43889e-16 
1.02786 -2.6094 -1.0104e-15 
1.19014 -2.57959 -3.41353e-16 
1.36884 -2.60698 7.58599e-16 
1.56974 -2.60686 1.80613e-16 
1.79847 -2.61692 -1.57198e-16 
2.0261 -2.60654 -1.50068e-16 
2.28208 -2.62435 6.85549e-18 
2.49854 -2.58714 4.60694e-17 
2.74564 -2.61401 -3.17459e-17 
2.96925 -2.59248 -3.35517e-17 
3.18374 -2.58416 -1.32415e-17 
3.41139 -2.59979 -3.52853e-17 
3.62426 -2.58732 -5.11961e-17 
3.84144 -2.59279 -4.61278e-17 
4.06223 -2.59873 -2.93245e-17 
4.27496 -2.59009 -2.35107e-17 
4.48835 -2.59322 -1.22861e-17 
4.69891 -2.59046 -5.86581e-18 
4.90966 -2.59058 -5.41491e-18 
5.12149 -2.58955 -3.38048e-17 
5.34046 -2.59842 -1.15975e-17 
5.55827 -2.59121 -9.82325e-18 
5.7808 -2.59704 -6.73251e-18 
6.00783 -2.59817 -1.68896e-17 
6.22961 -2.58655 -2.26174e-17 
6.45513 -2.59593 -1.09315e-17 
6.6828 -2.59009 5.44661e-18 
6.89797 -2.57078 7.09121e-18 
7.13698 -2.62501 4.65182e-17 
7.38184 -2.58988 7.74866e-18 
7.61031 -2.59079 -1.94697e-17 
7.86454 -2.62624 2.03023e-17 
8.07552 -2.54526 5.83436e-17 
8.3016 -2.61696 -3.51897e-17 
8.48559 -2.52692 -1.8797e-05 
-8.48456 -2.34703 9.87058e-06 
-8.25317 -2.33443 -3.62427e-17 
-8.0265 -2.33584 7.27251e-17 
-7.77427 -2.39064 3.07961e-17 
-7.55968 -2.25772 9.64636e-17 
-7.48627 -2.46731 4.49215e-17 
-7.207 -2.42839 -7.10588e-17 
-7.00453 -2.31435 6.54921e-18 
-6.76135 -2.38304 5.20057e-17 
-6.51577 -2.34465 -3.63286e-17 
-6.27832 -2.38543 2.26229e-17 
-6.05657 -2.33403 1.28195e-17 
-5.83806 -2.34714 -8.81053e-18 
-5.61028 -2.35226 9.82641e-18 
-5.3934 -2.37053 4.0853e-17 
-5.16655 -2.35563 3.00468e-17 
-4.94943 -2.37294 1.86153e-17 
-4.72793 -2.36175 1.38284e-17 
-4.51112 -2.37269 1.53238e-17 
-4.29377 -2.36413 3.29143e-17 
-4.07795 -2.36001 2.75409e-17 
-3.86255 -2.35788 2.12881e-17 
-3.64285 -2.35847 1.29072e-18 
-3.4236 -2.36336 1.48695e-17 
-3.19917 -2.36323 4.26441e-17 
-2.97159 -2.36897 3.87538e-17 
-2.74379 -2.36359 2.83812e-17 
-2.51375 -2.36139 -3.91262e-18 
-2.27041 -2.3939 6.03158e-17 
-2.04559 -2.41128 -8.70129e-17 
-1.81625 -2.32094 -1.12623e-17 
-1.60516 -2.31681 -2.42912e-16 
-1.42123 -2.39002 3.97463e-16 
-1.21873 -2.3982 -1.6731e-16 
-1.07088 -2.3234 -6.92351e-16 
-0.794424 -2.20983 -3.25123e-16 
-0.759362 -2.55662 -1.03273e-15 
-0.585501 -2.72198 1.25168e-15 
-0.325284 -2.63099 -1.80932e-14 
-0.0635534 -2.71413 1.50974e-15 
0.410216 -2.64101 1.81894e-14 
0.508726 -2.69399 -3.14737e-14 
0.657008 -2.38088 1.1964e-15 
0.822245 -2.37976 -5.3461e-16 
0.959231 -2.399 -7.52779e-16 
1.16081 -2.38135 -4.95862e-16 
1.36238 -2.38271 -1.45545e-16 
1.5591 -2.38221 -4.1257e-17 
1.76625 -2.40525 -9.28411e-18 
1.99504 -2.3874 5.86751e-17 
2.23279 -2.41701 5.79792e-18 
2.46569 -2.35002 2.0206e-19 
2.69571 -2.39386 -1.14914e-17 
2.9247 -2.3626 -2.0993e-17 
3.14932 -2.3434 -5.32256e-17 
3.36905 -2.37161 -4.86946e-17 
3.58969 -2.34997 -1.31207e-17 
3.8054 -2.35934 -1.23563e-17 
4.02377 -2.36994 -3.50256e-17 
4.24028 -2.35716 -3.64481e-17 
4.45512 -2.36026 -2.69155e-17 
4.66697 -2.35592 -1.15701e-17 
4.87774 -2.35526 -4.19237e-18 
5.0887 -2.35471 -1.51613e-17 
5.30367 -2.36676 -2.04286e-17 
5.51918 -2.35924 -1.46808e-17 
5.73935 -2.36548 1.86761e-18 
5.96168 -2.36968 1.22926e-18 
6.18511 -2.35313 -1.12447e-17 
6.41056 -2.35937 -4.07231e-18 
6.63231 -2.35764 3.192e-17 
6.85347 -2.32463 -9.52446e-19 
7.08138 -2.38427 -2.27597e-18 
7.30329 -2.38008 -1.60372e-18 
7.55055 -2.34814 3.99696e-17 
7.78438 -2.39769 3.27645e-17 
8.00013 -2.31853 -4.5629e-17 
8.2491 -2.35169 -4.3264e-17 
8.48498 -2.29606 -8.87854e-06 
-8.48532 -2.09996 1.06277e-05 
-8.26339 -2.09352 3.41233e-17 
-8.03764 -2.08852 6.57706e-17 
-7.81265 -2.15923 -1.38326e-16 
-7.55305 -2.04644 -3.64299e-17 
-7.30438 -2.24528 -6.99191e-18 
-7.09109 -2.09386 -2.09498e-17 
-6.82778 -2.14265 1.69082e-17 
-6.60837 -2.13966 -1.8134e-17 
-6.35154 -2.14662 1.41025e-18 
-6.14347 -2.11581 1.08042e-17 
-5.91176 -2.10417 -2.01234e-17 
-5.69415 -2.12328 -2.05623e-17 
-5.47186 -2.12678 -7.09908e-18 
-5.26219 -2.1387 -4.55462e-19 
-5.03452 -2.13524 -1.02226e-17 
-4.8248 -2.14172 -3.61828e-17 
-4.60389 -2.13853 -3.9725e-17 
-4.39511 -2.13882 -2.92946e-17 
-4.1815 -2.13042 -2.32887e-17 
-3.96884 -2.12532 -3.16295e-17 
-3.75402 -2.12778 -3.71572e-17 
-3.53767 -2.12741 -3.33753e-17 
-3.32124 -2.13216 -4.20811e-17 
-3.09785 -2.13708 -1.7665e-17 
-2.87678 -2.1346 -5.46815e-17 
-2.65102 -2.13146 -1.23701e-16 
-2.41227 -2.15255 -3.86489e-17 
-2.18685 -2.16378 -1.22797e-17 
-1.97346 -2.16114 -3.24921e-18 
-1.72679 -2.08236 -9.93977e-17 
-1.50804 -2.09902 6.37762e-17 
-1.31998 -2.18651 6.05539e-16 
-1.14929 -2.11906 8.36986e-17 
-0.952909 -2.15242 1.06959e-15 
-0.813046 -1.98477 3.65437e-15 
-0.69208 -2.44945 3.59431e-15 
-0.551042 -2.62392 -8.78019e-16 
-0.106 -2.62859 -3.44455e-14 
0.166596 -2.68002 5.05793e-14 
0.485498 -2.44844 3.08967e-14 
0.592446 -2.54179 4.32333e-15 
0.719286 -2.20676 -4.06464e-16 
0.867457 -2.13954 -1.88214e-15 
1.03282 -2.20259 -1.21957e-15 
1.16104 -2.05874 -4.26287e-16 
1.3034 -2.16473 3.20536e-16 
1.49925 -2.14781 1.34278e-16 
1.74349 -2.19374 7.52279e-17 
1.99112 -2.17539 7.58762e-17 
2.23142 -2.19463 -9.94674e-17 
2.47959 -2.12752 6.17074e-17 
2.70621 -2.16145 1.4682e-16 
2.93702 -2.13113 2.10435e-17 
3.16548 -2.11183 2.72125e-17 
3.38605 -2.13922 5.38469e-17 
3.60701 -2.11631 4.71871e-17 
3.82831 -2.13126 4.04254e-17 
4.04482 -2.13836 2.50976e-17 
4.26428 -2.12778 2.33619e-17 
4.47721 -2.12721 2.23533e-17 
4.68957 -2.12241 2.89791e-17 
4.90221 -2.12138 2.91397e-17 
5.11955 -2.12582 8.69892e-18 
5.33186 -2.13199 8.76292e-19 
5.55296 -2.13023 1.1315e-17 
5.77454 -2.13619 2.99232e-17 
5.99477 -2.13599 1.70739e-17 
6.22299 -2.12343 -3.65471e-18 
6.44362 -2.12166 -2.7779e-18 
6.6607 -2.11394 8.08452e-19 
6.90273 -2.10292 -1.00156e-17 
7.11697 -2.14004 -2.63714e-17 
7.35238 -2.15583 -1.94032e-17 
7.55947 -2.08351 -3.54926e-17 
7.76116 -2.15731 -5.92137e-17 
7.97839 -2.07852 5.01074e-17 
8.21033 -2.12831 -4.85635e-17 
8.48481 -2.09768 -7.74865e-06 
-8.48492 -1.83304 9.21376e-06 
-8.28242 -1.85051 8.13701e-17 
-7.87664 -1.89465 1.26637e-16 
-7.67292 -1.88685 2.33512e-17 
[...]
POINT_DATA 1978 
VECTORS vectors float
0.0535933 -0.0743188 0.995978 
0.0571385 -0.0576448 0.996903 
0.0597115 -0.0450356 0.997636 
0.0626674 -0.032444 0.99781 
0.0643606 -0.0224767 0.997968 
0.0666847 -0.0147949 0.997962 
0.067538 -0.0102104 0.99796 
0.0684337 -0.00646401 0.997925 
0.0699842 -0.00392912 0.99772 
0.0707239 -0.00290475 0.997888 
0.0709463 -0.00252233 0.997652 
0.0708987 -0.00214707 0.997764 
0.0707641 -0.00135008 0.997771 
0.0704562 -0.000281388 0.997789 
0.0701472 0.00120851 0.997807 
0.0700254 0.00260162 0.997812 
0.0698504 0.00422642 0.997815 
0.0697372 0.00599125 0.997813 
0.0695206 0.00790106 0.997815 
0.0691364 0.0101379 0.997824 
0.0685464 0.013034 0.997833 
0.0679022 0.0166573 0.997826 
0.0669195 0.0212002 0.99781 
0.065432 0.027248 0.997766 
0.0635838 0.0351624 0.997643 
0.0614221 0.0457731 0.997353 
0.0591484 0.0592251 0.996787 
0.0556583 0.0756658 0.995878 
0.0504427 0.0984593 0.994156 
0.0432527 0.137948 0.989789 
0.0350815 0.17819 0.983657 
0.0263824 0.223297 0.974643 
0.0161925 0.29249 0.956337 
0.0058407 0.36709 0.930319 
-0.00450242 0.44862 0.893814 
-0.00888413 0.503009 0.864242 
-0.013161 0.556129 0.831038 
-0.019108 0.634569 0.773414 
-0.00974211 0.917156 0.400764 
0.000104445 0.992947 -0.1214 
0.0165976 0.875247 -0.481916 
0.0239234 0.675732 -0.736935 
0.0201362 0.608401 -0.793351 
0.0138241 0.503018 -0.8642 
0.00109152 0.417122 -0.908956 
-0.00861542 0.34662 -0.938133 
-0.0213675 0.278285 -0.960361 
-0.0286261 0.220508 -0.975204 
-0.0364779 0.172196 -0.984653 
-0.0439021 0.130574 -0.990748 
-0.049955 0.100067 -0.994017 
-0.0554098 0.0743675 -0.995985 
-0.0592254 0.0577986 -0.996865 
-0.0621687 0.0436898 -0.997399 
-0.0642149 0.0344535 -0.997631 
-0.0655529 0.0275111 -0.997754 
-0.0668163 0.0213663 -0.997815 
-0.0677393 0.0167064 -0.99784 
-0.0686004 0.0130507 -0.997831 
-0.0691684 0.0101101 -0.997824 
-0.0695436 0.00785963 -0.997816 
-0.0697889 0.00591583 -0.99781 
-0.0698799 0.00427316 -0.997813 
-0.0699573 0.00273434 -0.997815 
-0.0701924 0.00129192 -0.997802 
-0.0705121 -8.36163e-05 -0.997782 
-0.0707497 -0.00114451 -0.997768 
-0.0708034 -0.00206851 -0.997764 
-0.0707537 -0.00274116 -0.997771 
-0.0708271 -0.00325192 -0.997767 
-0.0698508 -0.00424911 -0.997836 
-0.0681996 -0.00707384 -0.997941 
-0.0673605 -0.0106653 -0.997966 
-0.0661159 -0.0169752 -0.997966 
-0.0642645 -0.0233659 -0.997963 
-0.063047 -0.0311183 -0.99783 
-0.0599954 -0.0433993 -0.997569 
-0.0577258 -0.0545398 -0.997157 
-0.0538555 -0.0745725 -0.995934 
0.0392401 -0.0782542 0.996341 
0.0423403 -0.0603232 0.998129 
0.0455417 -0.0454607 0.998549 
0.048381 -0.0356745 0.99892 
0.053966 -0.0256834 0.998935 
0.0542997 -0.0168901 0.999093 
0.0521379 -0.0114408 0.999281 
0.0547963 -0.00765742 0.999165 
0.0539299 -0.00516688 0.999326 
0.0560524 -0.00318307 0.998998 
0.0551495 -0.00239906 0.999257 
0.0554542 -0.00154477 0.999133 
0.0550911 -0.000465269 0.999146 
0.0563359 0.000834462 0.999068 
0.0546685 0.00223254 0.999154 
0.055677 0.00357736 0.999088 
0.0548059 0.0052656 0.999125 
0.0554158 0.00721245 0.999077 
0.0547233 0.0095256 0.999098 
0.0542825 0.0123871 0.999094 
0.053555 0.0159868 0.999087 
0.0526641 0.0205413 0.999057 
0.0520832 0.0263307 0.998959 
0.0505837 0.0339644 0.998814 
0.0495241 0.0437975 0.998493 
0.0479111 0.0566332 0.997934 
0.0457551 0.0729986 0.996978 
0.0429987 0.0944118 0.995305 
0.0409741 0.124539 0.992065 
0.0363695 0.168854 0.985652 
0.0338719 0.213832 0.97692 
0.0296153 0.267541 0.963657 
0.0280416 0.34009 0.940446 
0.0283141 0.420835 0.907047 
0.04764 0.484551 0.873743 
0.0759178 0.52904 0.84528 
0.0316096 0.559741 0.828117 
-0.00297664 0.696566 0.716673 
0.014197 0.892415 0.449995 
0.00411629 0.978513 0.195978 
-0.00637257 0.958396 -0.284641 
0.000620958 0.732602 -0.681238 
-0.0408671 0.62249 -0.781571 
-0.0227192 0.550219 -0.834845 
-0.026188 0.45726 -0.889144 
-0.0293677 0.376553 -0.926426 
-0.0293426 0.305869 -0.952228 
-0.0320102 0.2424 -0.970231 
-0.0346914 0.184535 -0.982855 
-0.0379399 0.140574 -0.990021 
-0.0427042 0.102793 -0.994481 
-0.0447896 0.0801379 -0.996481 
-0.0483726 0.0600461 -0.997717 
-0.0490491 0.0465015 -0.998403 
-0.0500151 0.0365226 -0.998761 
-0.0518976 0.0284506 -0.998917 
-0.0521598 0.0224988 -0.999048 
-0.0534534 0.0175047 -0.999074 
-0.0544626 0.013417 -0.999079 
-0.0543158 0.0103617 -0.999118 
-0.0548533 0.00786056 -0.999105 
-0.0546701 0.00582126 -0.999128 
-0.0549198 0.00418269 -0.999126 
-0.0550177 0.00276196 -0.99913 
-0.0557657 0.00137483 -0.999096 
-0.0556997 4.09597e-05 -0.999107 
-0.0561836 -0.00122867 -0.999085 
-0.056189 -0.00225202 -0.99909 
-0.0554594 -0.00310235 -0.999136 
-0.0553039 -0.00440598 -0.999145 
-0.0544768 -0.0065878 -0.999186 
-0.0526181 -0.00965084 -0.99927 
-0.053682 -0.0141573 -0.999165 
-0.0515215 -0.0204372 -0.999179 
-0.0501224 -0.0275615 -0.999083 
-0.0498554 -0.0379512 -0.998646 
-0.0428729 -0.0492775 -0.998707 
-0.0438395 -0.0626009 -0.997681 
-0.0358995 -0.0788903 -0.996523 
0.0284794 -0.0806368 0.996756 
0.0307796 -0.0626617 0.998297 
0.0340335 -0.0475983 0.999026 
0.0387165 -0.0363553 0.999323 
0.0351038 -0.0279784 0.999594 
0.0433644 -0.0234255 0.999507 
0.0430998 -0.0174233 0.999633 
0.0395677 -0.0132264 0.99984 
0.0431548 -0.00825594 0.999732 
0.0421255 -0.00597866 0.999785 
0.0449592 -0.00361322 0.999667 
0.0426222 -0.00228887 0.999765 
0.0432347 -0.00142044 0.999735 
0.0436319 -7.15243e-05 0.999712 
0.0438248 0.00135565 0.999697 
0.0433789 0.00260884 0.999707 
0.0436462 0.00394334 0.999685 
0.0430431 0.00559777 0.999699 
0.0435678 0.0076924 0.999664 
0.0430365 0.0102862 0.999667 
0.0425137 0.0134227 0.999656 
0.0420428 0.0173559 0.999621 
0.0416056 0.0225183 0.999543 
0.0409865 0.0290378 0.999409 
0.0397265 0.0375213 0.999186 
0.0392579 0.04852 0.998741 
0.0381936 0.0624744 0.998014 
0.0367302 0.0805342 0.99678 
0.0365549 0.106284 0.994375 
0.0368259 0.138406 0.990394 
0.0373907 0.180005 0.983628 
0.0402091 0.229707 0.973053 
0.0403171 0.287364 0.957521 
0.0472197 0.363846 0.930707 
0.062109 0.421366 0.905152 
0.107447 0.540626 0.83456 
0.0451218 0.622681 0.781139 
0.0123328 0.757721 0.651656 
0.0393229 0.901062 0.429845 
0.00978325 0.995131 0.0922979 
-0.0404398 0.848575 -0.526487 
-0.0209257 0.789934 -0.6118 
-0.0864964 0.647847 -0.756752 
-0.0713507 0.549499 -0.832553 
-0.0558492 0.477166 -0.877388 
-0.0474301 0.377349 -0.925285 
-0.0417559 0.301622 -0.952923 
-0.0381571 0.241761 -0.970163 
-0.0355267 0.190859 -0.981612 
-0.0358727 0.14564 -0.989359 
-0.0368349 0.110467 -0.993891 
-0.0367291 0.0843109 -0.996465 
-0.0392029 0.0647295 -0.997833 
-0.0390131 0.0501714 -0.998672 
-0.0388334 0.0390885 -0.999166 
-0.0406949 0.0305856 -0.999379 
-0.0409385 0.0239905 -0.99954 
-0.0420268 0.0187464 -0.9996 
-0.042892 0.0144207 -0.99963 
-0.0427064 0.0110285 -0.999677 
-0.0429173 0.00832834 -0.999688 
-0.0430868 0.00620962 -0.999692 
-0.043028 0.00450266 -0.999704 
-0.0431495 0.00309792 -0.999708 
-0.0437644 0.0018653 -0.999689 
-0.0436154 0.000608086 -0.999703 
-0.044225 -0.000843097 -0.999682 
-0.0441614 -0.00205049 -0.999689 
-0.0434197 -0.00308207 -0.999725 
-0.0435224 -0.00482232 -0.999721 
-0.0422874 -0.00711191 -0.999766 
-0.0401095 -0.0100031 -0.999839 
-0.0419944 -0.0142723 -0.999718 
-0.0405146 -0.0194208 -0.999696 
-0.0374139 -0.0273573 -0.999754 
-0.0378527 -0.0355992 -0.999371 
-0.0332477 -0.0470491 -0.999058 
-0.0318351 -0.0617627 -0.998307 
-0.0263112 -0.0811474 -0.996656 
0.0203113 -0.0835679 0.996578 
0.0226698 -0.065361 0.998213 
0.025042 -0.0509108 0.999229 
0.0276889 -0.0397194 0.999665 
0.0261103 -0.029121 0.999937 
0.0352674 -0.0202643 0.999878 
0.0299694 -0.0158395 1.00023 
0.0331714 -0.0102513 1.00009 
0.0340971 -0.00757766 1.00007 
0.034679 -0.00468202 1.00007 
0.0336462 -0.00285854 1.0001 
0.0335131 -0.00177668 1.0001 
0.0338259 -0.000401721 1.00009 
0.0340593 0.00115268 1.00007 
0.0342046 0.00229532 1.00006 
0.0339781 0.00345896 1.00006 
0.034194 0.00481677 1.00004 
0.0339646 0.00680162 1.00003 
0.0339326 0.00912892 1.00002 
0.0333819 0.0119547 1.00001 
0.0329896 0.0154931 0.99998 
0.0327828 0.020108 0.999911 
0.0322781 0.0259406 0.999802 
0.0319074 0.033104 0.999611 
0.0316396 0.0424486 0.999275 
0.0317225 0.0539515 0.998728 
0.0317538 0.0685532 0.997839 
0.0322098 0.0895896 0.996166 
0.033521 0.115354 0.993468 
0.035975 0.14677 0.98921 
0.0418484 0.190418 0.981476 
0.0495753 0.243419 0.969262 
0.0550005 0.308084 0.950296 
0.0729737 0.36157 0.929912 
0.0932933 0.449259 0.888735 
0.132189 0.471466 0.872187 
0.0729144 0.647631 0.758352 
0.0403672 0.766958 0.640013 
0.0246224 0.985608 0.162022 
-0.0166007 0.973226 -0.228225 
-0.0875979 0.771279 -0.629423 
-0.0558132 0.721389 -0.689912 
-0.112733 0.567351 -0.815824 
-0.0992247 0.475264 -0.874478 
-0.0717047 0.413621 -0.908006 
-0.0712922 0.344729 -0.936495 
-0.0562089 0.305932 -0.950953 
-0.0476656 0.245869 -0.968864 
-0.0392337 0.189086 -0.981854 
-0.0351161 0.142099 -0.989929 
-0.0329658 0.108361 -0.994275 
-0.0321487 0.0823472 -0.996793 
-0.0333325 0.0641347 -0.998086 
-0.0313467 0.0496617 -0.998964 
-0.0306018 0.0385216 -0.999468 
-0.0323296 0.0302498 -0.999688 
-0.0321178 0.0238478 -0.99986 
-0.0329824 0.0185244 -0.999937 
-0.0335661 0.0142614 -0.999983 
-0.0334359 0.0108013 -1.00002 
-0.0334942 0.00817392 -1.00004 
-0.0334651 0.00603119 -1.00006 
-0.0331962 0.00427826 -1.00008 
-0.0335138 0.00301817 -1.00007 
-0.0342037 0.00201469 -1.00006 
-0.0342345 0.000696231 -1.00007 
-0.0346293 -0.000954046 -1.00006 
-0.0347191 -0.00228952 -1.00006 
-0.0335633 -0.0035022 -1.0001 
-0.0337468 -0.00559884 -1.00009 
-0.0329709 -0.0082571 -1.0001 
-0.0316114 -0.0116467 -1.00012 
-0.0326031 -0.0162506 -1.00003 
-0.031268 -0.0219643 -0.999859 
-0.0278791 -0.0286749 -0.999901 
-0.0297916 -0.0370134 -0.999582 
-0.0245153 -0.0477465 -0.999162 
-0.0240128 -0.0608591 -0.998689 
-0.0202931 -0.083556 -0.99659 
0.0138414 -0.0855104 0.996517 
0.016274 -0.0686462 0.998221 
0.0212665 -0.0437102 0.999419 
0.0214982 -0.0342693 0.999883 
0.0200215 -0.0260498 1.00026 
0.0269489 -0.0217374 0.999989 
0.0229826 -0.0186936 1.00025 
0.0256041 -0.013027 1.00027 
0.0251976 -0.00916865 1.00032 
0.0266811 -0.00645102 1.0003 
0.0253976 -0.00409614 1.00034 
0.0257847 -0.00237449 1.00032 
0.0256346 -0.00103942 1.00032 
0.0261199 0.000619135 1.00031 
0.0257381 0.00207366 1.00031 
0.0262332 0.00296988 1.00028 
0.0257999 0.00394073 1.00029 
0.0262722 0.00551586 1.00026 
0.0258103 0.00767324 1.00026 
0.0259115 0.0102385 1.00024 
0.0256084 0.013397 1.00022 
0.0254029 0.0173356 1.00017 
0.0252937 0.0222429 1.00008 
0.0251381 0.0284306 0.999937 
0.0250668 0.0363439 0.999693 
0.0249427 0.0461438 0.999302 
0.025518 0.0583156 0.998663 
0.0269492 0.0747708 0.997541 
0.0287218 0.0959176 0.995687 
0.0318413 0.121704 0.992765 
0.0373343 0.154485 0.987988 
0.0479489 0.202865 0.978694 
0.0629306 0.266988 0.962239 
0.0793031 0.314639 0.946407 
0.102317 0.390041 0.915502 
0.148273 0.429339 0.891162 
0.127137 0.615629 0.777598 
0.090338 0.723061 0.684529 
0.0688888 0.831418 0.551215 
0.0456325 0.963724 0.257609 
-0.0680877 0.886947 -0.456661 
-0.129152 0.686124 -0.714993 
-0.144056 0.514616 -0.845435 
-0.116736 0.423574 -0.898659 
-0.0974846 0.371887 -0.923614 
-0.0765881 0.297336 -0.952267 
-0.0604494 0.260596 -0.964158 
-0.0494614 0.215093 -0.975999 
-0.0413456 0.189967 -0.981493 
-0.0356701 0.14761 -0.9891 
-0.0311777 0.112667 -0.993851 
-0.0290726 0.0882327 -0.996384 
-0.0268905 0.0666298 -0.998118 
-0.0253337 0.0529594 -0.998966 
-0.0241348 0.0411069 -0.999541 
-0.0247415 0.0318524 -0.999854 
-0.0249351 0.0253543 -1.00003 
-0.0255905 0.0196627 -1.00013 
-0.0259763 0.0151607 -1.00019 
-0.025925 0.0116266 -1.00023 
-0.0257642 0.00875759 -1.00026 
-0.0254554 0.00643799 -1.00028 
-0.0256038 0.00457297 -1.00029 
-0.025747 0.00331709 -1.00029 
-0.0257621 0.0024579 -1.0003 
-0.0261993 0.00137865 -1.0003 
-0.0262477 -0.000304777 -1.0003 
-0.0264609 -0.0019942 -1.0003 
-0.0262136 -0.00328233 -1.00031 
-0.0253309 -0.00533363 -1.00033 
-0.0245221 -0.00815274 -1.00034 
-0.0245741 -0.0109551 -1.00032 
-0.0238201 -0.0160157 -1.00038 
-0.0241493 -0.0215977 -1.00017 
-0.0218587 -0.0280528 -1.00006 
-0.0210839 -0.0392937 -0.999713 
-0.0183637 -0.0521542 -0.999289 
-0.0180009 -0.0673392 -0.998167 
-0.0139193 -0.0855378 -0.996521 
0.00901927 -0.0874982 0.9964 
0.0107725 -0.0699254 0.998193 
0.0162646 -0.0551707 0.999057 
0.0138055 -0.0456797 0.999563 
0.0159514 -0.0344806 0.999866 
0.0156962 -0.0223585 1.0003 
0.0177237 -0.0163058 1.00038 
0.019272 -0.0113862 1.00042 
0.0199189 -0.00827939 1.00043 
0.0198794 -0.0058452 1.00045 
0.0197446 -0.00336693 1.00045 
0.0200713 -0.00179879 1.00044 
0.0194524 0.000108961 1.00045 
0.0196672 0.00169622 1.00044 
0.019656 0.00266992 1.00043 
0.0201215 0.00335151 1.00042 
0.0197664 0.00458731 1.00042 
0.0198284 0.00635607 1.0004 
0.0196536 0.00875511 1.00039 
0.019702 0.0116596 1.00037 
0.019606 0.0153015 1.00032 
0.0195508 0.019733 1.00025 
0.0196117 0.0252301 1.00014 
0.0198034 0.0323938 0.999942 
0.0199756 0.0412496 0.999623 
0.0208899 0.0521902 0.999104 
0.0224583 0.0663886 0.998244 
0.0246183 0.0849391 0.996795 
0.0285806 0.107765 0.994486 
0.0344615 0.136559 0.990755 
0.0427717 0.172969 0.984712 
0.0635955 0.239585 0.969457 
0.0869726 0.288121 0.954226 
0.0988455 0.288613 0.952941 
0.110823 0.350722 0.930406 
0.129761 0.350455 0.928151 
0.163957 0.563963 0.809904 
0.132542 0.745949 0.651742 
0.0847373 0.917537 0.386784 
-0.0151722 0.988989 -0.142212 
-0.102231 0.867468 -0.485633 
-0.168825 0.61594 -0.770379 
-0.155697 0.457357 -0.875779 
-0.141363 0.394582 -0.908131 
-0.105345 0.33969 -0.935059 
-0.0838752 0.276246 -0.958056 
-0.065539 0.237827 -0.969859 
-0.0474613 0.191202 -0.980978 
-0.0383143 0.155896 -0.987726 
-0.0318879 0.123851 -0.992494 
-0.0268897 0.0980649 -0.995636 
-0.0245901 0.0772094 -0.997411 
-0.021417 0.0610972 -0.998592 
-0.0201929 0.0486844 -0.999287 
-0.0195739 0.0375174 -0.999769 
-0.0193361 0.0299173 -1.00002 
-0.0198664 0.0235167 -1.00017 
-0.0198322 0.0183678 -1.00027 
-0.0197864 0.0142597 -1.00033 
-0.0198801 0.010891 -1.00037 
-0.0194785 0.00811291 -1.0004 
-0.0193487 0.00585144 -1.00042 
-0.0194803 0.00416594 -1.00042 
-0.0195605 0.00313121 -1.00043 
-0.0194072 0.00245403 -1.00044 
-0.0200449 0.00140478 -1.00043 
-0.0201676 -0.000384825 -1.00044 
-0.0200538 -0.00228019 -1.00044 
-0.0201525 -0.00381162 -1.00044 
-0.0193594 -0.00601434 -1.00045 
-0.0188795 -0.0092705 -1.00044 
-0.0189774 -0.0125846 -1.00031 
-0.0177841 -0.0174755 -1.00037 
-0.0180295 -0.0238232 -1.00024 
-0.0155616 -0.030702 -1.00009 
-0.0154911 -0.0391874 -0.99981 
-0.0133998 -0.0506399 -0.999325 
-0.0128127 -0.0652185 -0.998493 
-0.0102438 -0.0869657 -0.996442 
0.0063479 -0.0883046 0.996349 
0.00755084 -0.0682376 0.998334 
0.0114448 -0.0559832 0.999067 
0.0108862 -0.0415029 0.999883 
0.013407 -0.0297309 1.00015 
0.0120464 -0.0243371 1.0003 
0.0139035 -0.0184435 1.0003 
0.0141795 -0.0129373 1.00058 
0.015061 -0.00959771 1.0004 
0.0139257 -0.00649461 1.00054 
0.0145264 -0.00412512 1.00053 
0.0144316 -0.00221638 1.00053 
0.0144042 -0.000198564 1.00053 
0.0138538 0.00168641 1.00053 
0.0141373 0.00253243 1.00052 
0.0140458 0.00304764 1.00052 
0.0144358 0.00392229 1.0005 
0.0141136 0.00545797 1.0005 
0.0143285 0.00751462 1.00048 
0.0141511 0.0102088 1.00046 
0.0143512 0.0134185 1.00043 
0.0143432 0.0173697 1.00037 
0.0144342 0.0222334 1.00029 
0.0148661 0.028337 1.00014 
0.0152322 0.0359805 0.999901 
0.01617 0.0458272 0.999496 
0.017943 0.0579879 0.99885 
0.0200245 0.0732195 0.997824 
0.0235483 0.0927855 0.996128 
0.0297556 0.116607 0.993463 
0.037359 0.146036 0.989309 
0.0517251 0.193734 0.980409 
0.0691132 0.232426 0.970957 
0.0760857 0.24033 0.968393 
0.112607 0.303713 0.946562 
0.166712 0.40394 0.899882 
0.198199 0.520546 0.830918 
0.186109 0.688538 0.699509 
0.142642 0.832868 0.536523 
-0.00805101 0.995203 -0.083685 
-0.177043 0.733004 -0.655491 
-0.195066 0.553618 -0.809801 
-0.203419 0.509899 -0.836139 
-0.158856 0.392317 -0.906064 
-0.112531 0.314021 -0.943742 
-0.0830907 0.2554 -0.963962 
-0.0628914 0.216818 -0.974893 
-0.0491147 0.184927 -0.982235 
-0.0377461 0.148086 -0.989084 
-0.0303595 0.119735 -0.992948 
-0.0244765 0.0967385 -0.995722 
-0.02178 0.0794539 -0.997194 
-0.0181274 0.0627969 -0.998557 
-0.0159595 0.0494236 -0.999331 
-0.0154331 0.0396123 -0.999763 
-0.0143606 0.0310181 -1.00007 
-0.014841 0.0244914 -1.00023 
-0.0146892 0.0191131 -1.00034 
-0.0144967 0.0148561 -1.00041 
-0.0145843 0.0114002 -1.00045 
-0.0142208 0.00847923 -1.00048 
-0.0139726 0.00605154 -1.0005 
-0.0139641 0.00429836 -1.00051 
-0.0139418 0.00322319 -1.00052 
-0.0138737 0.00270053 -1.00052 
-0.0143225 0.00195464 -1.00052 
-0.0146072 0.000282253 -1.00053 
-0.014638 -0.00189034 -1.00053 
-0.0145845 -0.0036433 -1.00053 
-0.0140063 -0.00569357 -1.00053 
-0.0137492 -0.00904699 -1.00052 
-0.0142125 -0.0126466 -1.00059 
-0.0134392 -0.0172538 -1.00043 
-0.0133592 -0.024147 -1.0003 
-0.0118337 -0.0318511 -1.0001 
-0.0115673 -0.0418086 -0.999745 
-0.00979943 -0.0543935 -0.99916 
-0.0092935 -0.0680982 -0.998331 
-0.00690794 -0.0882159 -0.996352 
0.00418229 -0.0892168 0.996273 
0.00501585 -0.0707139 0.998167 
0.00911942 -0.0525519 0.999272 
0.00702635 -0.043655 0.999709 
0.00974674 -0.0328643 1.00009 
0.00841951 -0.0253014 1.00031 
0.00987438 -0.0177086 1.00056 
0.00974875 -0.0127649 1.00043 
0.0104604 -0.00928414 1.00056 
0.0098945 -0.00601571 1.00058 
0.0106461 -0.00369225 1.00057 
0.0101196 -0.00157922 1.00058 
0.0100246 0.000718339 1.00058 
0.00961725 0.00228301 1.00067 
0.00978617 0.00277261 1.00047 
0.00958746 0.00309543 1.00066 
0.0100002 0.00404896 1.00055 
0.00970741 0.00569374 1.00054 
0.0100151 0.00792831 1.00053 
0.00996591 0.0106966 1.00051 
0.0102389 0.0140596 1.00047 
0.0103578 0.0182093 1.00041 
0.0107335 0.023348 1.00031 
0.0112622 0.0294935 1.00015 
0.0119639 0.0374516 0.999894 
0.0132152 0.0477783 0.999454 
0.0150059 0.0600585 0.998784 
0.0174328 0.0756571 0.997584 
0.0214723 0.0948082 0.99599 
0.0281195 0.11807 0.993351 
0.039929 0.155054 0.987845 
0.0512275 0.187423 0.981697 
0.0557168 0.197657 0.979436 
0.0790639 0.244752 0.967099 
0.108858 0.292261 0.95082 
0.157076 0.35947 0.920377 
0.21094 0.465243 0.859793 
0.256663 0.591283 0.765778 
0.174896 0.842604 0.510732 
0.0249897 0.999817 0.0374026 
-0.134992 0.900946 -0.414113 
-0.239156 0.683052 -0.691649 
-0.214215 0.464997 -0.859007 
-0.145392 0.343493 -0.928545 
-0.105202 0.287324 -0.952612 
-0.0740631 0.235738 -0.969761 
-0.0580525 0.202807 -0.97814 
-0.0453164 0.170674 -0.98516 
-0.0366599 0.145604 -0.989288 
-0.0270436 0.115677 -0.993768 
-0.0208749 0.0921856 -0.996135 
-0.0172357 0.0736277 -0.997959 
-0.0138491 0.0574621 -0.999047 
-0.012118 0.046043 -0.999435 
-0.0116377 0.0369583 -0.999908 
-0.0106757 0.0287124 -1.00018 
-0.0108599 0.02285 -1.00041 
-0.0106732 0.0180216 -1.00031 
-0.0104452 0.013909 -1.00047 
-0.0102655 0.010598 -1.0006 
-0.0100114 0.00778936 -1.00043 
-0.00973316 0.00551901 -1.00064 
-0.00979482 0.00393638 -1.00046 
-0.0096272 0.00305732 -1.00065 
-0.00971278 0.00270781 -1.00057 
-0.00987228 0.00208789 -1.00057 
-0.0101275 0.00043131 -1.00058 
-0.0104196 -0.00193618 -1.00058 
-0.0104036 -0.00392255 -1.00057 
-0.0100241 -0.00614293 -1.00057 
-0.00983124 -0.00979294 -1.00056 
-0.0101098 -0.0137436 -1.00041 
-0.00933059 -0.0182829 -1.00045 
-0.00940033 -0.0242693 -1.00033 
-0.00809065 -0.0318457 -1.00013 
-0.00800758 -0.0426231 -0.999741 
-0.00667728 -0.0553726 -0.999125 
-0.00624697 -0.0706277 -0.998168 
-0.00462175 -0.0889759 -0.996294 
0.00257107 -0.0902507 0.996077 
0.00329719 -0.069293 0.99837 
0.00571305 -0.0557382 0.999111 
0.0049669 -0.0433193 0.999724 
0.00666373 -0.0322826 1.00012 
0.00584793 -0.0255518 1.00032 
0.00699099 -0.0184617 1.00036 
0.00690315 -0.0132625 1.00064 
0.00743525 -0.00944959 1.00067 
0.00670492 -0.00573879 1.0006 
0.0071228 -0.00345664 1.0006 
0.0065502 -0.00115611 1.00051 
0.00631007 0.001213 1.00069 
0.00586875 0.0025167 1.0005 
0.00594978 0.00278166 1.00058 