# vtk DataFile Version 3.0 
Exported using Morpho https://github.com/Morpho-lang/morpho 
ASCII 
DATASET UNSTRUCTURED_GRID 

POINTS 1978 float 
-8.48528 -2.82843 2.79653e-11 
-8.2652 -2.82843 -5.5378e-11 
-8.04263 -2.82843 -1.42243e-10 
-7.79231 -2.82843 -1.5659e-10 
-7.48656 -2.82843 -9.84995e-11 
-7.2423 -2.82843 -7.1131e-11 
-6.98632 -2.82843 -3.02375e-11 
-6.76721 -2.82843 -1.57756e-11 
-6.5581 -2.82843 -1.78893e-11 
-6.36003 -2.82843 -5.29743e-12 
-6.1387 -2.82843 -1.19109e-11 
-5.93586 -2.82843 -6.22874e-12 
-5.72907 -2.82843 1.43494e-12 
-5.52564 -2.82843 4.79898e-12 
-5.30357 -2.82843 3.96792e-12 
-5.09895 -2.82843 1.63104e-11 
-4.88075 -2.82843 1.71297e-11 
-4.67503 -2.82843 2.32264e-11 
-4.46115 -2.82843 3.07346e-11 
-4.25152 -2.82843 3.82444e-11 
-4.04307 -2.82843 4.89131e-11 
-3.83375 -2.82843 5.62546e-11 
-3.62448 -2.82843 7.37509e-11 
-3.40902 -2.82843 8.84334e-11 
-3.19277 -2.82843 1.11433e-10 
-2.97084 -2.82843 1.34045e-10 
-2.74746 -2.82843 1.53505e-10 
-2.52642 -2.82843 1.9164e-10 
-2.30099 -2.82843 2.62296e-10 
-2.02339 -2.82843 2.93955e-10 
-1.82109 -2.82843 2.47068e-10 
-1.63784 -2.82843 1.60519e-10 
-1.44381 -2.82843 2.23063e-12 
-1.26993 -2.82843 -4.44619e-10 
-1.12636 -2.82843 -1.03752e-10 
-0.988316 -2.82843 -1.44768e-09 
-0.858104 -2.82843 -2.59469e-09 
-0.733368 -2.82843 -1.01407e-08 
-0.274271 -2.82843 -3.28417e-08 
0.0605271 -2.82843 1.38484e-08 
0.373539 -2.82843 2.0217e-08 
0.618258 -2.82843 8.72846e-09 
0.780782 -2.82843 3.85363e-09 
0.961465 -2.82843 1.78622e-09 
1.1112 -2.82843 3.43284e-10 
1.2546 -2.82843 4.02094e-10 
1.44436 -2.82843 -1.54279e-10 
1.63052 -2.82843 -2.29182e-10 
1.84517 -2.82843 -2.903e-10 
2.06847 -2.82843 -2.84612e-10 
2.29738 -2.82843 -2.11681e-10 
2.52034 -2.82843 -1.95675e-10 
2.75844 -2.82843 -1.56746e-10 
2.97653 -2.82843 -1.30863e-10 
3.19547 -2.82843 -1.10032e-10 
3.4164 -2.82843 -8.1133e-11 
3.6301 -2.82843 -7.60294e-11 
3.83874 -2.82843 -5.93055e-11 
4.04741 -2.82843 -4.72822e-11 
4.26375 -2.82843 -4.11268e-11 
4.47011 -2.82843 -2.84129e-11 
4.67763 -2.82843 -2.28117e-11 
4.88233 -2.82843 -1.57866e-11 
5.08772 -2.82843 -1.15694e-11 
5.2941 -2.82843 -1.11039e-11 
5.50952 -2.82843 1.75811e-12 
5.7213 -2.82843 -5.79972e-12 
5.94059 -2.82843 5.51215e-12 
6.16342 -2.82843 7.47216e-12 
6.37809 -2.82843 9.46484e-12 
6.60272 -2.82843 2.29018e-11 
6.82394 -2.82843 2.09915e-11 
7.03563 -2.82843 4.43777e-11 
7.29324 -2.82843 5.28633e-11 
7.52529 -2.82843 6.64094e-11 
7.75417 -2.82843 1.09962e-10 
8.02608 -2.82843 1.6799e-10 
8.22057 -2.82843 4.74159e-11 
8.48528 -2.82843 -3.47345e-11 
-8.48528 -2.58641 4.08363e-11 
-8.25787 -2.58354 -7.76301e-16 
-8.03396 -2.58701 1.24569e-15 
-7.75418 -2.63064 1.90699e-15 
-7.47237 -2.62215 1.73349e-14 
-7.21464 -2.62439 -2.12347e-15 
-6.97318 -2.59598 -1.20059e-15 
-6.73996 -2.59447 -1.08553e-15 
-6.51823 -2.58315 -6.85059e-16 
-6.29448 -2.60399 1.38086e-15 
-6.07499 -2.58128 9.89548e-16 
-5.85903 -2.58567 4.89823e-16 
-5.64439 -2.58216 1.66262e-17 
-5.42304 -2.60335 -4.34446e-16 
-5.2039 -2.58608 -8.74633e-16 
-4.98635 -2.60274 -1.38327e-15 
-4.7685 -2.59104 -2.00158e-15 
-4.55346 -2.60031 7.77392e-16 
-4.33673 -2.59547 1.00924e-15 
-4.12308 -2.59314 1.29831e-15 
-3.9103 -2.59256 1.67326e-15 
-3.69691 -2.59103 -1.16267e-15 
-3.48127 -2.59507 -1.39975e-15 
-3.26182 -2.59394 -1.77017e-15 
-3.03916 -2.59712 3.5241e-14 
-2.81139 -2.59556 -1.64588e-14 
-2.58348 -2.59213 -1.8773e-14 
-2.35472 -2.59614 -2.50552e-14 
-2.11352 -2.64057 -3.10349e-14 
-1.86121 -2.57267 1.70607e-15 
-1.65939 -2.57226 -3.67806e-14 
-1.47285 -2.6121 -2.02986e-14 
-1.283 -2.59242 1.21831e-13 
-1.11629 -2.61022 -2.39915e-14 
-1.01264 -2.45009 2.54847e-14 
-0.881895 -2.37638 -1.75004e-13 
-0.952958 -2.64071 -8.61299e-14 
-0.613194 -2.77648 9.09784e-13 
-0.341187 -2.69813 -2.26165e-12 
-0.118988 -2.7658 1.81613e-12 
0.258681 -2.75669 3.26467e-13 
0.710559 -2.66409 2.44452e-13 
0.803308 -2.49298 -4.58446e-14 
0.881496 -2.65697 -1.01617e-13 
1.04803 -2.62616 1.54222e-13 
1.20427 -2.5622 -3.55565e-14 
1.37159 -2.61639 3.70613e-14 
1.56584 -2.5952 1.82503e-15 
1.77947 -2.61507 1.92694e-14 
2.01457 -2.6132 2.25332e-14 
2.25615 -2.60741 2.02293e-14 
2.48909 -2.59482 1.95941e-14 
2.72256 -2.60808 2.02779e-14 
2.95977 -2.58941 -3.50928e-14 
3.1822 -2.59157 1.91474e-15 
3.40602 -2.59548 1.59086e-15 
3.62676 -2.59137 1.21229e-15 
3.84398 -2.58656 -1.60703e-15 
4.0642 -2.60031 -1.46036e-15 
4.27696 -2.59123 -1.11354e-15 
4.4899 -2.59336 -8.50589e-16 
4.70089 -2.59052 -6.2678e-16 
4.91127 -2.59042 1.59492e-15 
5.12328 -2.59039 1.0251e-15 
5.34105 -2.59791 5.72988e-16 
5.55837 -2.59191 1.85282e-16 
5.78037 -2.5975 -3.42942e-16 
6.00676 -2.59873 -8.33506e-16 
6.22836 -2.58731 -1.35011e-15 
6.45318 -2.59555 6.4809e-16 
6.67972 -2.58939 9.01702e-16 
6.89606 -2.57597 1.22354e-15 
7.1343 -2.61725 1.80465e-15 
7.38054 -2.59554 -1.22324e-15 
7.60909 -2.58922 -1.29352e-15 
7.86259 -2.62577 -1.7199e-15 
8.07344 -2.54538 -1.25445e-15 
8.30063 -2.61753 -5.37262e-16 
8.48528 -2.52741 -5.45826e-11 
-8.48528 -2.34169 5.15687e-12 
-8.24852 -2.33916 -7.13819e-16 
-8.01182 -2.35083 -1.73127e-15 
-7.77723 -2.42206 1.32676e-15 
-7.58603 -2.23649 1.49736e-15 
-7.49729 -2.43234 -8.87951e-16 
-7.21405 -2.4105 -1.71872e-15 
-6.99578 -2.35444 -2.11483e-15 
-6.76615 -2.374 -8.36679e-16 
-6.52411 -2.35402 -1.05844e-15 
-6.28844 -2.37015 1.93694e-15 
-6.06379 -2.34293 1.26732e-15 
-5.84262 -2.34702 6.48843e-16 
-5.61383 -2.3548 -1.46002e-17 
-5.39438 -2.37016 -6.32577e-16 
-5.16743 -2.35889 -1.13498e-15 
-4.94958 -2.3728 -1.78269e-15 
-4.727 -2.36369 7.36715e-16 
-4.51 -2.37184 9.62542e-16 
-4.2927 -2.36428 1.27542e-15 
-4.07727 -2.36019 1.60671e-15 
-3.86187 -2.35869 2.01234e-15 
-3.64378 -2.35898 -1.3368e-15 
-3.42486 -2.3627 -1.64243e-15 
-3.20105 -2.36361 3.43577e-14 
-2.97359 -2.36795 -1.60454e-14 
-2.74419 -2.36254 -1.8858e-14 
-2.51194 -2.36072 -2.17028e-14 
-2.26339 -2.39101 -2.29589e-14 
-2.03377 -2.41321 -2.19379e-14 
-1.79674 -2.32091 3.50302e-14 
-1.5922 -2.33734 -1.68336e-15 
-1.40295 -2.39624 -2.2086e-15 
-1.20574 -2.39367 5.44164e-14 
-1.10156 -2.2503 1.4569e-13 
-0.79362 -2.17902 -4.2904e-14 
-0.814937 -2.59555 -3.30009e-13 
-0.494955 -2.72634 1.73054e-13 
-0.356378 -2.55911 8.77612e-13 
0.0224591 -2.70131 -9.52711e-13 
0.4139 -2.64489 6.51699e-13 
0.523434 -2.72733 1.76998e-13 
0.701724 -2.37831 1.86156e-13 
0.891824 -2.28992 -4.40987e-13 
0.978248 -2.44405 -3.69113e-14 
1.15727 -2.36991 -1.39138e-15 
1.37072 -2.38778 -6.61771e-14 
1.56501 -2.36714 3.81389e-14 
1.77435 -2.39534 1.96032e-15 
1.99779 -2.39958 3.20609e-14 
2.23219 -2.39515 1.68019e-14 
2.46943 -2.36483 2.589e-14 
2.69627 -2.37943 1.74281e-14 
2.92334 -2.36512 1.72092e-14 
3.15235 -2.35363 -3.51742e-14 
3.37266 -2.36199 1.62758e-15 
3.59271 -2.35698 1.48911e-15 
3.80897 -2.35356 -2.04229e-15 
4.02702 -2.37047 -1.66297e-15 
4.24101 -2.35929 -1.34235e-15 
4.45533 -2.35984 -1.01838e-15 
4.66669 -2.3567 -7.73425e-16 
4.87846 -2.35472 1.97405e-15 
5.08942 -2.35605 1.33846e-15 
5.3046 -2.36562 7.89129e-16 
5.51992 -2.36001 3.16492e-16 
5.74 -2.36615 -2.99996e-16 
5.96236 -2.37015 -9.26193e-16 
6.18565 -2.35441 -1.53321e-15 
6.41134 -2.35925 7.2116e-16 
6.6336 -2.35648 1.07038e-15 
6.8567 -2.32891 1.37169e-15 
7.07977 -2.37857 1.76861e-15 
7.30791 -2.38209 -1.30854e-15 
7.55023 -2.3479 -1.57461e-15 
7.78425 -2.3959 1.91629e-15 
7.99981 -2.31775 1.74184e-15 
8.24851 -2.35283 -1.37247e-15 
8.48528 -2.29653 -2.79362e-11 
-8.48528 -2.10473 6.80262e-12 
-8.27768 -2.07138 1.06653e-15 
-8.06493 -2.1041 -1.49248e-15 
-7.82655 -2.16366 -9.92167e-16 
-7.54951 -2.03057 -8.88402e-16 
-7.3155 -2.22697 1.4151e-15 
-7.07963 -2.1251 -6.91447e-16 
-6.83448 -2.13679 -1.21425e-15 
-6.61092 -2.14062 -1.24181e-15 
-6.36282 -2.14219 1.39027e-15 
-6.14393 -2.1169 4.18301e-16 
-5.91693 -2.10836 4.86213e-16 
-5.69695 -2.12446 1.80092e-16 
-5.47442 -2.12978 -1.7059e-16 
-5.2621 -2.13915 -3.74597e-16 
-5.03687 -2.13588 -5.78568e-16 
-4.82573 -2.14301 -9.3234e-16 
-4.6055 -2.13863 -1.28794e-15 
-4.3954 -2.13874 -1.67915e-15 
-4.18198 -2.13053 -1.9914e-15 
-3.96936 -2.12676 6.85688e-16 
-3.75557 -2.12708 9.17315e-16 
-3.54014 -2.12744 1.13026e-15 
-3.32322 -2.13187 1.43251e-15 
-3.10053 -2.1357 1.83777e-15 
-2.87775 -2.1345 2.05423e-15 
-2.64966 -2.12995 -1.22262e-15 
-2.40702 -2.15325 -1.8154e-15 
-2.17615 -2.16423 3.42306e-14 
-1.96151 -2.16754 -1.78308e-15 
-1.71471 -2.08304 2.79269e-16 
-1.50761 -2.12394 1.18314e-17 
-1.32423 -2.18891 -3.50713e-14 
-1.19736 -2.04844 9.26522e-14 
-0.968745 -2.15709 7.62917e-14 
-0.784551 -1.97429 1.87905e-13 
-0.727239 -2.39144 4.79648e-13 
-0.681269 -2.60064 -4.22685e-13 
-0.190647 -2.66307 -1.73828e-12 
0.177848 -2.66642 6.48185e-14 
0.50688 -2.47057 -1.53926e-13 
0.607387 -2.5596 -1.39513e-13 
0.738352 -2.19308 -6.22775e-14 
0.904008 -2.08075 -3.11971e-13 
1.07119 -2.2031 9.1612e-14 
1.16014 -2.03175 1.72974e-15 
1.3137 -2.19406 -2.10702e-14 
1.52406 -2.14185 -1.55475e-14 
1.74793 -2.1742 1.52761e-15 
1.98082 -2.18114 1.20952e-15 
2.21902 -2.17806 1.81123e-14 
2.46112 -2.14507 1.73586e-15 
2.70215 -2.14786 1.42992e-15 
2.93293 -2.13453 -2.12385e-15 
3.16157 -2.12076 -1.46543e-15 
3.38505 -2.12945 -1.41477e-15 
3.60611 -2.12337 -8.95718e-16 
3.82983 -2.12689 -8.89704e-16 
4.04449 -2.13828 -7.28186e-16 
4.26293 -2.13005 1.77615e-15 
4.47612 -2.12671 1.44149e-15 
4.68992 -2.1248 1.04627e-15 
4.90255 -2.12094 7.3967e-16 
5.1194 -2.12704 4.64799e-16 
5.33261 -2.13142 3.12343e-16 
5.55308 -2.13109 9.91136e-17 
5.77435 -2.13696 -2.86407e-16 
5.99441 -2.13665 -5.56433e-16 
6.22223 -2.12483 -6.9106e-16 
6.4429 -2.122 -1.23855e-15 
6.66205 -2.11556 -1.86246e-15 
6.89528 -2.09788 -1.74717e-15 
7.11734 -2.14414 9.45964e-16 
7.34887 -2.15301 1.39006e-15 
7.55648 -2.08562 6.95106e-16 
7.76073 -2.15534 8.16345e-16 
7.98141 -2.07959 -9.58269e-16 
8.21299 -2.12951 -1.53125e-15 
8.48528 -2.09733 1.24585e-11 
-8.48528 -1.83164 7.98194e-12 
-8.27442 -1.80128 1.64989e-15 
-7.87479 -1.909 1.93766e-15 
-7.66867 -1.88248 -1.09464e-15 
[...]
POINT_DATA 1978 
VECTORS vectors float
0.00572351 -0.011021 0.999923 
0.00419404 -0.0373296 0.999294 
0.00125712 -0.042978 0.999075 
-0.000820254 -0.0345071 0.999404 
-0.000726933 -0.023348 0.999727 
0.000714768 -0.0168915 0.999857 
0.00168096 -0.0110247 0.999938 
0.00310438 -0.00755803 0.999967 
0.00342702 -0.00510439 0.999981 
0.00327403 -0.00359328 0.999988 
0.00310462 -0.00277819 0.999991 
0.00366969 -0.00194352 0.999991 
0.00356757 -0.000957765 0.999993 
0.00317428 0.00015146 0.999995 
0.00311098 0.00145437 0.999994 
0.00317694 0.00279943 0.999991 
0.00320721 0.00435553 0.999985 
0.00324756 0.00600954 0.999977 
0.00320829 0.00805455 0.999962 
0.00328207 0.0104655 0.99994 
0.00330484 0.0134563 0.999904 
0.00320977 0.0172172 0.999847 
0.00301934 0.0220065 0.999753 
0.00276076 0.0283049 0.999595 
0.00249726 0.0364196 0.999333 
0.00225958 0.0470506 0.99889 
0.00219836 0.0605983 0.99816 
0.00196621 0.078209 0.996935 
0.000688471 0.102038 0.99478 
0.000765029 0.142269 0.989828 
0.00208123 0.182088 0.98328 
0.00194285 0.226841 0.97393 
0.000773733 0.292691 0.956207 
7.28987e-05 0.364166 0.931334 
0.000510612 0.430114 0.902775 
0.000423407 0.50301 0.86428 
-0.00060046 0.573944 0.818894 
-0.000138623 0.643801 0.765193 
0.000979986 0.928114 0.372296 
-0.000191419 0.996528 -0.0832539 
0.000170352 0.877309 -0.479926 
0.00216826 0.720061 -0.693907 
0.000394287 0.605647 -0.795734 
0.000988412 0.504625 -0.863338 
0.00109984 0.424457 -0.905447 
-0.00043776 0.353602 -0.935396 
-0.00136133 0.281764 -0.959483 
-0.00155104 0.226272 -0.974063 
-0.00155919 0.175235 -0.984525 
-0.00143858 0.135037 -0.99084 
-0.00169328 0.101121 -0.994873 
-0.00164028 0.0781239 -0.996942 
-0.00181797 0.0587256 -0.998272 
-0.00258704 0.0458259 -0.998946 
-0.00238668 0.0356411 -0.999362 
-0.00270634 0.0278559 -0.999608 
-0.00311954 0.022058 -0.999752 
-0.0032001 0.0173091 -0.999845 
-0.00310055 0.0134915 -0.999904 
-0.00318746 0.0103702 -0.999941 
-0.00341804 0.00793375 -0.999963 
-0.00351584 0.00599414 -0.999976 
-0.0035728 0.00436559 -0.999984 
-0.00351159 0.00291284 -0.99999 
-0.00325131 0.00161116 -0.999993 
-0.00310707 0.00035616 -0.999995 
-0.00292233 -0.000812028 -0.999995 
-0.002691 -0.00178029 -0.999995 
-0.00277463 -0.00273943 -0.999992 
-0.00266513 -0.0039112 -0.999989 
-0.00260069 -0.00566412 -0.999981 
-0.00274776 -0.00834168 -0.999961 
-0.00163483 -0.0120264 -0.999926 
-0.00119988 -0.0178153 -0.999841 
-0.00172959 -0.0245614 -0.999697 
-0.000718869 -0.0327447 -0.999463 
-0.00124394 -0.0430336 -0.999073 
-0.00362234 -0.0384891 -0.999252 
-0.00494766 -0.00847387 -0.999952 
0.00873565 -0.005177 0.999948 
0.0149312 -0.0295486 0.999452 
0.0184858 -0.0381379 0.999101 
0.0196441 -0.0341945 0.999222 
0.0187595 -0.0252725 0.999505 
0.0202955 -0.0168015 0.999653 
0.0222199 -0.0118011 0.999683 
0.0230038 -0.00795048 0.999704 
0.0247007 -0.00547542 0.99968 
0.0233415 -0.00375707 0.99972 
0.0249926 -0.00250464 0.999684 
0.0250691 -0.00140698 0.999685 
0.0254708 -0.00030978 0.999676 
0.0243625 0.000878589 0.999703 
0.0255955 0.00223306 0.99967 
0.0245263 0.00368425 0.999692 
0.0252952 0.00533502 0.999666 
0.0245901 0.0072468 0.999671 
0.0247833 0.00962708 0.999646 
0.0247267 0.0125194 0.999616 
0.0244896 0.0161204 0.99957 
0.0242033 0.0206844 0.999493 
0.0233144 0.026555 0.999375 
0.0228459 0.0341969 0.999154 
0.0219602 0.0440497 0.998788 
0.0212605 0.0569152 0.998153 
0.0208066 0.073498 0.997078 
0.0201875 0.0953245 0.995242 
0.017003 0.126347 0.99184 
0.0209173 0.169148 0.985369 
0.0229511 0.214042 0.976555 
0.0211107 0.274352 0.961398 
0.023407 0.358391 0.933278 
0.0270493 0.452346 0.891432 
0.0514052 0.474773 0.878606 
0.0764905 0.535247 0.841225 
0.0301266 0.545824 0.837358 
0.00758421 0.703374 0.710779 
0.0251929 0.868632 0.494817 
0.00702207 0.961148 0.275943 
-0.0100616 0.927773 -0.373009 
-0.0309324 0.656069 -0.754067 
-0.055863 0.614944 -0.786589 
-0.0214071 0.563511 -0.825831 
-0.0284698 0.457258 -0.888878 
-0.0280705 0.377798 -0.925462 
-0.0205739 0.303305 -0.952671 
-0.0207534 0.23818 -0.970999 
-0.0187614 0.185361 -0.982491 
-0.0187679 0.141289 -0.989791 
-0.0191434 0.106246 -0.994156 
-0.0202602 0.0805561 -0.996544 
-0.0204673 0.0614808 -0.997898 
-0.0220667 0.0469465 -0.998654 
-0.0225802 0.0367299 -0.99907 
-0.0230526 0.0287278 -0.999321 
-0.0237611 0.0224637 -0.999465 
-0.0241283 0.0175079 -0.999556 
-0.0240905 0.0135082 -0.999619 
-0.0249573 0.0104007 -0.999634 
-0.0250255 0.00790071 -0.999656 
-0.0253378 0.00591412 -0.999661 
-0.02536 0.00423522 -0.999669 
-0.0252986 0.00277908 -0.999676 
-0.0247196 0.00142086 -0.999693 
-0.02501 0.000186 -0.999687 
-0.0245105 -0.000962864 -0.999699 
-0.0243627 -0.00211645 -0.999701 
-0.0247341 -0.00337637 -0.999688 
-0.0238705 -0.00491322 -0.999703 
-0.0238383 -0.0071911 -0.99969 
-0.0239418 -0.0103019 -0.99966 
-0.0208027 -0.0146698 -0.999676 
-0.0216104 -0.021053 -0.999545 
-0.0207481 -0.0282317 -0.999386 
-0.0183045 -0.0364287 -0.999169 
-0.0194784 -0.0361499 -0.999157 
-0.0128425 -0.0272346 -0.999547 
-0.00919694 -0.00394562 -0.99995 
0.00873153 -0.00432452 0.999953 
0.0184248 -0.0269054 0.999468 
0.0256177 -0.0378542 0.998955 
0.0275568 -0.0345595 0.999023 
0.0302135 -0.0284135 0.99914 
0.0263854 -0.0254382 0.999328 
0.0297659 -0.0173947 0.999406 
0.0328588 -0.0129632 0.999376 
0.0324874 -0.00928738 0.999429 
0.0343556 -0.00608416 0.999391 
0.0338735 -0.00397622 0.999418 
0.0352265 -0.00254145 0.999376 
0.0349936 -0.00121535 0.999387 
0.0352587 -6.95348e-06 0.999378 
0.0347976 0.00117314 0.999394 
0.0353063 0.00255459 0.999373 
0.0349682 0.00400194 0.99938 
0.0352681 0.00572865 0.999361 
0.0348874 0.00776711 0.999361 
0.0348499 0.0103061 0.999339 
0.0345847 0.0134763 0.999311 
0.0341445 0.01745 0.999265 
0.0335388 0.0225422 0.999183 
0.032794 0.0289959 0.999041 
0.0321783 0.0373804 0.998783 
0.0312647 0.048212 0.998348 
0.0306665 0.0622018 0.997592 
0.0303161 0.0806346 0.996283 
0.0294179 0.106662 0.99386 
0.0289383 0.138528 0.989936 
0.0339961 0.179101 0.983243 
0.0377649 0.227803 0.972975 
0.039438 0.285833 0.957468 
0.0444568 0.369371 0.928218 
0.0659828 0.414427 0.907688 
0.111374 0.529189 0.841163 
0.0446826 0.606814 0.793587 
0.0200631 0.757415 0.652625 
0.0510496 0.919806 0.389037 
0.00196377 0.999934 0.0113551 
-0.0462194 0.854712 -0.51704 
-0.0152482 0.79314 -0.608848 
-0.0907154 0.64429 -0.759382 
-0.0716139 0.536455 -0.840885 
-0.0513898 0.486785 -0.872009 
-0.0544537 0.382752 -0.922245 
-0.0395564 0.308826 -0.950296 
-0.0357612 0.243145 -0.96933 
-0.0314197 0.187905 -0.981685 
-0.0300465 0.143909 -0.989135 
-0.029012 0.110879 -0.99341 
-0.0303536 0.0836759 -0.996031 
-0.0302356 0.0650534 -0.997424 
-0.0312121 0.0500101 -0.998261 
-0.0321417 0.0388231 -0.998729 
-0.0325659 0.0305928 -0.999001 
-0.0334196 0.0238366 -0.999157 
-0.0338792 0.0186795 -0.999251 
-0.0341781 0.0144342 -0.999312 
-0.034828 0.0111015 -0.999332 
-0.0350333 0.0084213 -0.999351 
-0.0352156 0.00629099 -0.99936 
-0.0353212 0.00455879 -0.999366 
-0.03539 0.00309889 -0.999369 
-0.035218 0.00175631 -0.999378 
-0.0353817 0.000519095 -0.999374 
-0.0351368 -0.000667912 -0.999382 
-0.0349015 -0.00192585 -0.999389 
-0.0348965 -0.00337882 -0.999385 
-0.0342242 -0.00505297 -0.999401 
-0.0337662 -0.00731614 -0.999403 
-0.0334731 -0.0106173 -0.999383 
-0.0318432 -0.0144739 -0.999388 
-0.0309068 -0.0198625 -0.999325 
-0.0300057 -0.0272932 -0.999177 
-0.0275895 -0.0349841 -0.999007 
-0.0265903 -0.0380586 -0.998922 
-0.0187296 -0.0272331 -0.999454 
-0.00949062 -0.00563594 -0.999939 
0.00691437 -0.00348809 0.99997 
0.015865 -0.027256 0.999503 
0.0224609 -0.0384843 0.999007 
0.0271172 -0.0369715 0.998948 
0.0264433 -0.029154 0.999225 
0.0312447 -0.0204446 0.999303 
0.0303437 -0.0158864 0.999413 
0.0309519 -0.0109672 0.999461 
0.0321938 -0.00758076 0.999453 
0.0327214 -0.0049507 0.999452 
0.0322717 -0.00329323 0.999474 
0.0320822 -0.00161247 0.999484 
0.0325942 -0.000294902 0.999469 
0.0326883 0.000905283 0.999465 
0.032874 0.00210525 0.999457 
0.032712 0.00351333 0.999459 
0.0328121 0.00499362 0.999449 
0.0326638 0.00687989 0.999443 
0.0325455 0.00912744 0.999429 
0.0321883 0.0120241 0.999409 
0.0318197 0.0156013 0.999372 
0.0315434 0.0200688 0.999301 
0.0311413 0.0257226 0.999184 
0.030856 0.0328362 0.998984 
0.0305901 0.0420009 0.998649 
0.0301881 0.053538 0.998109 
0.0301405 0.0686177 0.997188 
0.0310815 0.0893904 0.995512 
0.0323757 0.115199 0.992815 
0.0345987 0.146372 0.988624 
0.0409395 0.190233 0.980885 
0.0485419 0.242309 0.968984 
0.0560751 0.308466 0.949581 
0.0717517 0.349181 0.934304 
0.0890688 0.442311 0.892428 
0.132005 0.477016 0.868925 
0.0784693 0.637354 0.766565 
0.0507096 0.733592 0.677695 
0.0235909 0.981527 0.189863 
-0.0170664 0.972765 -0.231164 
-0.0936639 0.766926 -0.634864 
-0.0546494 0.740913 -0.669374 
-0.113833 0.560803 -0.820087 
-0.0965955 0.466288 -0.879344 
-0.0751347 0.414883 -0.906767 
-0.0717485 0.336496 -0.938948 
-0.0539849 0.30217 -0.951724 
-0.0455134 0.24321 -0.968905 
-0.0377906 0.18907 -0.981236 
-0.0339925 0.144056 -0.988986 
-0.0320148 0.108407 -0.993591 
-0.0307844 0.0825375 -0.996112 
-0.0303475 0.0636538 -0.997511 
-0.0303002 0.0495306 -0.998313 
-0.0302892 0.0386948 -0.998792 
-0.0307921 0.0301332 -0.999071 
-0.0309225 0.0236123 -0.999243 
-0.0317272 0.0183443 -0.999328 
-0.0322303 0.0142482 -0.999379 
-0.0322222 0.0108868 -0.999421 
-0.0323 0.00823734 -0.999444 
-0.0322796 0.00612936 -0.99946 
-0.0323748 0.00446385 -0.999466 
-0.0325769 0.00301961 -0.999465 
-0.032742 0.00172598 -0.999462 
-0.0328329 0.000474534 -0.999461 
-0.0329855 -0.000761145 -0.999456 
-0.0328961 -0.00216956 -0.999456 
-0.0324865 -0.0039314 -0.999464 
-0.0319105 -0.0058593 -0.999474 
-0.0312881 -0.00838771 -0.999475 
-0.0302777 -0.012198 -0.999467 
-0.0302869 -0.0162984 -0.999408 
-0.0298952 -0.0222631 -0.999305 
-0.0270196 -0.0291132 -0.999211 
-0.0271703 -0.0354164 -0.999003 
-0.0236427 -0.0400069 -0.99892 
-0.0190266 -0.0300059 -0.999369 
-0.00697885 -0.00575483 -0.999959 
0.00537727 -0.00344785 0.99998 
0.0109121 -0.0268146 0.999581 
0.0200088 -0.0402703 0.998988 
0.0212726 -0.0340209 0.999195 
0.0198051 -0.0259302 0.999468 
0.0259861 -0.0224778 0.99941 
0.0225269 -0.0183244 0.999578 
0.0251849 -0.0134517 0.999592 
0.0251869 -0.00951884 0.999637 
0.0267806 -0.00643281 0.999621 
0.025522 -0.00440358 0.999665 
0.025734 -0.00252835 0.999666 
0.0255695 -0.000809417 0.999673 
0.0259765 0.000449523 0.999662 
0.0258023 0.00161231 0.999666 
0.0264629 0.00282836 0.999646 
0.0259245 0.00421846 0.999655 
0.0262988 0.00578861 0.999637 
0.0258393 0.00776917 0.999636 
0.0257996 0.0102452 0.999615 
0.0254613 0.0133962 0.999586 
0.02532 0.0173328 0.999529 
0.0251801 0.0221987 0.999436 
0.0249853 0.0283074 0.999287 
0.0252052 0.0360094 0.999034 
0.0253448 0.0455726 0.998639 
0.0257466 0.0579742 0.997986 
0.0270655 0.0748794 0.996825 
0.0290703 0.0957232 0.994983 
0.0321933 0.121597 0.992057 
0.0372775 0.155199 0.98718 
0.0490177 0.206287 0.977263 
0.0610914 0.262986 0.962863 
0.0809968 0.314715 0.945724 
0.101974 0.394355 0.913283 
0.147805 0.429364 0.890955 
0.122078 0.634233 0.763443 
0.0958355 0.733593 0.672798 
0.060767 0.824732 0.56225 
0.0451432 0.975366 0.215926 
-0.0680016 0.905185 -0.419542 
-0.134322 0.69029 -0.710955 
-0.139484 0.506665 -0.850785 
-0.119908 0.424675 -0.89737 
-0.0939398 0.365738 -0.925965 
-0.0777308 0.29574 -0.952101 
-0.0600275 0.262761 -0.962992 
-0.0505868 0.215938 -0.975096 
-0.0422726 0.188909 -0.981084 
-0.0353988 0.147316 -0.988456 
-0.0312453 0.113213 -0.993079 
-0.028321 0.0877395 -0.995741 
-0.0265132 0.0662623 -0.99745 
-0.0257231 0.0525341 -0.998288 
-0.0249266 0.0410594 -0.998846 
-0.0249819 0.0318517 -0.99918 
-0.0249186 0.0251526 -0.999373 
-0.0253889 0.0195177 -0.999487 
-0.0256891 0.0151724 -0.999555 
-0.0258223 0.0117063 -0.999598 
-0.0256002 0.00881251 -0.999633 
-0.0255742 0.00659319 -0.999651 
-0.0255086 0.00487178 -0.999663 
-0.0258085 0.00344981 -0.999661 
-0.0258321 0.00216891 -0.999664 
-0.0261672 0.000959544 -0.999657 
-0.0263761 -0.000299428 -0.999652 
-0.0262719 -0.00172885 -0.999653 
-0.02614 -0.00351674 -0.999652 
-0.0255061 -0.00562688 -0.999659 
-0.0248878 -0.00811082 -0.999657 
-0.0245155 -0.0114857 -0.999633 
-0.0240413 -0.0160868 -0.999582 
-0.0239802 -0.0211618 -0.999488 
-0.0215621 -0.0291437 -0.999343 
-0.0208601 -0.0373776 -0.999083 
-0.0173889 -0.039708 -0.99906 
-0.0131296 -0.0270007 -0.999549 
-0.0056503 -0.00551448 -0.999969 
0.00437354 -0.00441546 0.999981 
0.00800321 -0.0276856 0.999585 
0.0159515 -0.0384027 0.999135 
0.0145244 -0.0413336 0.99904 
0.0161101 -0.0343634 0.99928 
0.016678 -0.0227266 0.999603 
0.0183191 -0.0161959 0.999701 
0.0193932 -0.0122535 0.999737 
0.0198039 -0.0082718 0.99977 
0.0197111 -0.00582639 0.999789 
0.0193091 -0.00356687 0.999807 
0.0196271 -0.00161778 0.999806 
0.0193998 -4.69302e-05 0.999812 
0.0194957 0.00114041 0.999809 
0.0196395 0.0023373 0.999804 
0.0198573 0.0035048 0.999797 
0.019722 0.00492632 0.999793 
0.0197681 0.00661533 0.999783 
0.0194697 0.00887877 0.999771 
0.0194896 0.011672 0.999742 
0.0194019 0.0152505 0.999695 
0.0193476 0.0196686 0.999619 
0.0193762 0.0251372 0.999496 
0.0196896 0.0321134 0.99929 
0.0200777 0.0406146 0.998973 
0.0208386 0.0515304 0.998454 
0.0225403 0.0662595 0.997548 
0.0248934 0.0845574 0.996108 
0.0285012 0.107423 0.993805 
0.0343499 0.136238 0.99008 
0.0433951 0.173209 0.983929 
0.0641677 0.23944 0.968788 
0.0855326 0.285885 0.954439 
0.0970185 0.285946 0.953322 
0.111589 0.354845 0.928242 
0.127565 0.34755 0.928944 
0.163971 0.57862 0.798944 
0.151183 0.727357 0.669399 
0.103062 0.923121 0.37044 
-0.0193458 0.992433 -0.121255 
-0.127822 0.819651 -0.558421 
-0.162627 0.60696 -0.777915 
-0.159507 0.46614 -0.870213 
-0.137069 0.386133 -0.912203 
-0.108859 0.343553 -0.932803 
-0.0861262 0.280564 -0.955964 
-0.0643127 0.236974 -0.969385 
-0.0480886 0.189543 -0.980694 
-0.0380156 0.155301 -0.987136 
-0.0316438 0.124055 -0.991771 
-0.0271612 0.098225 -0.994793 
-0.0241484 0.0763158 -0.996791 
-0.021441 0.0602873 -0.997951 
-0.0205823 0.0481347 -0.998629 
-0.0197915 0.0374932 -0.999101 
-0.0191575 0.0297928 -0.999372 
-0.0194817 0.0233229 -0.999538 
-0.0195708 0.0182619 -0.999642 
-0.0196195 0.0142345 -0.999706 
-0.0197259 0.0109182 -0.999746 
-0.0193985 0.00821677 -0.999778 
-0.0192836 0.00613512 -0.999795 
-0.0193255 0.00450021 -0.999803 
-0.0194886 0.00321798 -0.999805 
-0.019439 0.00204351 -0.999809 
-0.0198699 0.0008241 -0.999802 
-0.0199225 -0.000462852 -0.999801 
-0.0198727 -0.00201967 -0.9998 
-0.0198042 -0.00403914 -0.999796 
-0.0190346 -0.00635466 -0.999799 
-0.0185604 -0.00912127 -0.999786 
-0.0188951 -0.0131111 -0.999735 
-0.017948 -0.0178855 -0.999679 
-0.0180926 -0.0234987 -0.99956 
-0.0157648 -0.0309823 -0.999396 
-0.0162478 -0.0379623 -0.999147 
-0.013406 -0.0421125 -0.999023 
-0.0106719 -0.0305858 -0.999475 
-0.00402877 -0.0061021 -0.999973 
0.00297697 -0.00535743 0.999981 
0.00594113 -0.0296166 0.999544 
0.0112553 -0.0405915 0.999112 
0.0107681 -0.0399025 0.999146 
0.0135681 -0.030346 0.999447 
0.0116194 -0.0243816 0.999635 
0.0136322 -0.0182731 0.99974 
0.0136697 -0.0133162 0.999818 
0.0150408 -0.00969622 0.99984 
0.0142583 -0.0067009 0.999876 
0.0146627 -0.00438025 0.999883 
0.0145187 -0.00206777 0.999892 
0.014502 -0.000403687 0.999895 
0.0141744 0.000940743 0.999899 
0.0144772 0.00206442 0.999893 
0.014378 0.00315865 0.999892 
0.0147103 0.00429146 0.999883 
0.0143944 0.00580269 0.99988 
0.0144539 0.00772893 0.999866 
0.0143512 0.0102862 0.999844 
0.0145182 0.0134284 0.999804 
0.0145221 0.0173536 0.999744 
0.0146463 0.0221716 0.999647 
0.0150884 0.0282856 0.999486 
0.0155513 0.0357316 0.99924 
0.0164117 0.0451066 0.998847 
0.0180394 0.0575133 0.998182 
0.0203172 0.0727945 0.99714 
0.0237169 0.0920084 0.995476 
0.0289677 0.116526 0.992765 
0.0374582 0.147325 0.988379 
0.0519805 0.193368 0.979748 
0.0692862 0.231259 0.970422 
0.0786456 0.242404 0.966983 
0.114438 0.300864 0.946776 
0.164334 0.398104 0.902501 
0.190402 0.506648 0.840865 
0.201972 0.682011 0.7029 
0.095779 0.843888 0.527902 
-0.0315045 0.990852 -0.131223 
-0.181452 0.750234 -0.635786 
-0.193648 0.566384 -0.801067 
-0.202558 0.505207 -0.83889 
-0.156321 0.388446 -0.908115 
-0.108747 0.305517 -0.945956 
-0.0811067 0.250862 -0.964619 
-0.0637904 0.218311 -0.973792 
-0.049439 0.184685 -0.981554 
-0.037041 0.147912 -0.988307 
-0.0298812 0.120111 -0.992311 
-0.0245731 0.0966121 -0.995019 
-0.0215635 0.0784944 -0.996681 
-0.0181844 0.0620515 -0.997907 
-0.0164404 0.0489721 -0.998665 
-0.0158892 0.0392107 -0.999105 
-0.0147334 0.0307911 -0.999417 
-0.0148692 0.0243565 -0.999593 
-0.0147895 0.0190874 -0.999708 
-0.0146439 0.0148272 -0.999783 
-0.0146275 0.0113549 -0.999829 
-0.0144458 0.00859857 -0.999859 
-0.014185 0.0063738 -0.999879 
-0.0143019 0.00471141 -0.999887 
-0.0142671 0.00343989 -0.999892 
-0.014262 0.00235247 -0.999896 
-0.0145851 0.00116935 -0.999893 
-0.0146681 -9.71941e-05 -0.999892 
-0.0147091 -0.00163611 -0.99989 
-0.0148041 -0.0037096 -0.999884 
-0.0142536 -0.00615288 -0.999879 
-0.0138321 -0.00901299 -0.999864 
-0.0142646 -0.0128179 -0.999816 
-0.0133753 -0.017718 -0.999754 
-0.0132741 -0.0237565 -0.99963 
-0.0115744 -0.031805 -0.999427 
-0.0113392 -0.0399068 -0.999139 
-0.00929835 -0.0424242 -0.999056 
-0.00753071 -0.0300937 -0.999519 
-0.00280352 -0.00562901 -0.99998 
0.00201939 -0.00660501 0.999976 
0.0040444 -0.0298163 0.999547 
0.00847422 -0.043595 0.999013 
0.0075062 -0.0409222 0.999134 
0.00974351 -0.0331802 0.999402 
0.00880787 -0.0246945 0.999656 
0.0101788 -0.017973 0.999787 
0.0101039 -0.0130752 0.999863 
0.010848 -0.00921466 0.999899 
0.00993138 -0.00629175 0.999931 
0.0106936 -0.0037091 0.999936 
0.0102415 -0.00149756 0.999946 
0.0102612 0.000103683 0.999947 
0.00983124 0.00137707 0.999951 
0.0100677 0.00242234 0.999946 
0.00992369 0.00340369 0.999945 
0.0102831 0.00453297 0.999937 
0.00989125 0.0060263 0.999933 
0.0101287 0.00811382 0.999916 
0.0100772 0.0107863 0.999891 
0.0103126 0.0140743 0.999848 
0.0104276 0.0181071 0.999782 
0.0108293 0.0232113 0.999672 
0.0113395 0.0293916 0.999504 
0.0121505 0.0371952 0.999234 
0.0134819 0.0471887 0.998795 
0.0153436 0.0595139 0.99811 
0.0181551 0.0751332 0.997008 
0.0221682 0.0944579 0.995282 
0.0281451 0.11845 0.992561 
0.039444 0.153084 0.987426 
0.0528421 0.1887 0.980612 
0.0555898 0.195521 0.979123 
0.0789365 0.244337 0.966472 
0.107383 0.293005 0.950062 
0.157318 0.357093 0.920725 
0.210568 0.471053 0.856604 
0.254705 0.591911 0.764701 
0.18486 0.832909 0.521622 
0.0330563 0.994761 0.0967323 
-0.107521 0.933643 -0.341686 
-0.238143 0.668294 -0.704749 
-0.212205 0.464903 -0.859554 
-0.152377 0.353923 -0.922778 
-0.106696 0.289877 -0.951098 
-0.0731199 0.235872 -0.969029 
-0.0574193 0.201464 -0.977811 
-0.045052 0.17107 -0.984228 
-0.0361304 0.145053 -0.988764 
-0.0273623 0.115373 -0.992945 
-0.0213243 0.0914492 -0.995581 
-0.0176217 0.0728276 -0.997189 
-0.0144076 0.057198 -0.998259 
-0.0126069 0.0455628 -0.998882 
-0.0119933 0.0365994 -0.999258 
-0.0109551 0.028719 -0.999527 
-0.0109205 0.0227421 -0.999682 
-0.0106314 0.0178622 -0.999784 
-0.0104439 0.0138387 -0.99985 
-0.0102619 0.0106256 -0.999891 
-0.0101347 0.0080086 -0.999917 
-0.00988763 0.00591249 -0.999934 
-0.0100121 0.00438941 -0.99994 
-0.0098369 0.00328489 -0.999946 
-0.0100015 0.00227883 -0.999947 
-0.0102073 0.00117721 -0.999947 
-0.0103199 -0.000112093 -0.999947 
-0.0104267 -0.00174157 -0.999944 
-0.0104635 -0.0038773 -0.999938 
-0.0102088 -0.00658404 -0.999926 
-0.0101658 -0.00985143 -0.9999 
-0.0104165 -0.0137714 -0.999851 
-0.00963225 -0.0186495 -0.99978 
-0.00989488 -0.0243057 -0.999656 
-0.0086189 -0.0322186 -0.999444 
-0.00831092 -0.0406598 -0.999138 
-0.00674397 -0.0432227 -0.999043 
-0.00503049 -0.0289128 -0.999569 
-0.00221262 -0.00589649 -0.99998 
0.00144043 -0.00684169 0.999976 
0.00295794 -0.0321147 0.99948 
0.00597083 -0.0431827 0.999049 
0.00530074 -0.0414995 0.999124 
0.00719178 -0.0328055 0.999436 
0.00630654 -0.0251806 0.999663 