# vtk DataFile Version 3.0 
Exported using Morpho https://github.com/Morpho-lang/morpho 
ASCII 
DATASET UNSTRUCTURED_GRID 

POINTS 1978 float 
-8.48528 -2.82843 6.7853e-10 
-8.2652 -2.82843 -1.34366e-09 
-8.04263 -2.82843 -3.45128e-09 
-7.79231 -2.82843 -3.7994e-09 
-7.48656 -2.82843 -2.38992e-09 
-7.2423 -2.82843 -1.72587e-09 
-6.98632 -2.82843 -7.33662e-10 
-6.76721 -2.82843 -3.82769e-10 
-6.5581 -2.82843 -4.34054e-10 
-6.36003 -2.82843 -1.28533e-10 
-6.1387 -2.82843 -2.88997e-10 
-5.93586 -2.82843 -1.5113e-10 
-5.72907 -2.82843 3.48162e-11 
-5.52564 -2.82843 1.16439e-10 
-5.30357 -2.82843 9.62749e-11 
-5.09895 -2.82843 3.95744e-10 
-4.88075 -2.82843 4.15623e-10 
-4.67503 -2.82843 5.6355e-10 
-4.46115 -2.82843 7.45723e-10 
-4.25152 -2.82843 9.27935e-10 
-4.04307 -2.82843 1.18679e-09 
-3.83375 -2.82843 1.36492e-09 
-3.62448 -2.82843 1.78944e-09 
-3.40902 -2.82843 2.14569e-09 
-3.19277 -2.82843 2.70374e-09 
-2.97084 -2.82843 3.25237e-09 
-2.74746 -2.82843 3.72454e-09 
-2.52642 -2.82843 4.64981e-09 
-2.30099 -2.82843 6.36417e-09 
-2.02339 -2.82843 7.13232e-09 
-1.82109 -2.82843 5.99469e-09 
-1.63784 -2.82843 3.89472e-09 
-1.44381 -2.82843 5.41208e-11 
-1.26993 -2.82843 -1.07879e-08 
-1.12636 -2.82843 -2.51737e-09 
-0.988316 -2.82843 -3.51255e-08 
-0.858104 -2.82843 -6.29556e-08 
-0.733368 -2.82843 -2.46047e-07 
-0.274271 -2.82843 -7.96849e-07 
0.0605271 -2.82843 3.36008e-07 
0.373539 -2.82843 4.9053e-07 
0.618258 -2.82843 2.11781e-07 
0.780782 -2.82843 9.35017e-08 
0.961465 -2.82843 4.33396e-08 
1.1112 -2.82843 8.3292e-09 
1.2546 -2.82843 9.75613e-09 
1.44436 -2.82843 -3.74332e-09 
1.63052 -2.82843 -5.56071e-09 
1.84517 -2.82843 -7.04365e-09 
2.06847 -2.82843 -6.90563e-09 
2.29738 -2.82843 -5.13609e-09 
2.52034 -2.82843 -4.74773e-09 
2.75844 -2.82843 -3.80318e-09 
2.97653 -2.82843 -3.17516e-09 
3.19547 -2.82843 -2.66973e-09 
3.4164 -2.82843 -1.96855e-09 
3.6301 -2.82843 -1.84473e-09 
3.83874 -2.82843 -1.43895e-09 
4.04741 -2.82843 -1.14722e-09 
4.26375 -2.82843 -9.97872e-10 
4.47011 -2.82843 -6.89391e-10 
4.67763 -2.82843 -5.53488e-10 
4.88233 -2.82843 -3.83035e-10 
5.08772 -2.82843 -2.80711e-10 
5.2941 -2.82843 -2.69416e-10 
5.50952 -2.82843 4.26575e-11 
5.7213 -2.82843 -1.4072e-10 
5.94059 -2.82843 1.33743e-10 
6.16342 -2.82843 1.81299e-10 
6.37809 -2.82843 2.29649e-10 
6.60272 -2.82843 5.55675e-10 
6.82394 -2.82843 5.09324e-10 
7.03563 -2.82843 1.07675e-09 
7.29324 -2.82843 1.28264e-09 
7.52529 -2.82843 1.61131e-09 
7.75417 -2.82843 2.66803e-09 
8.02608 -2.82843 4.076e-09 
8.22056 -2.82843 1.15047e-09 
8.48528 -2.82843 -8.42774e-10 
-8.48528 -2.58641 9.90826e-10 
-8.26612 -2.57852 -1.84364e-14 
-8.0302 -2.59343 -5.49694e-14 
-7.76264 -2.61712 -8.51562e-14 
-7.49343 -2.63609 -1.84923e-13 
-7.22137 -2.62781 -5.02892e-14 
-6.97401 -2.59575 -2.85566e-14 
-6.74226 -2.59742 -2.586e-14 
-6.52261 -2.57784 -1.62561e-14 
-6.29693 -2.60275 3.36936e-14 
-6.07381 -2.58251 2.41539e-14 
-5.85777 -2.5858 1.19569e-14 
-5.64304 -2.5821 4.09176e-16 
-5.42172 -2.60326 -1.06003e-14 
-5.20243 -2.58587 -2.13425e-14 
-4.98505 -2.60265 -3.37566e-14 
-4.76736 -2.59089 -4.88461e-14 
-4.5527 -2.60028 1.84776e-14 
-4.33619 -2.59543 2.3988e-14 
-4.12281 -2.59304 3.0857e-14 
-3.91025 -2.59241 3.97678e-14 
-3.69703 -2.59085 5.12172e-14 
-3.48153 -2.595 6.16543e-14 
-3.26232 -2.59391 7.79793e-14 
-3.03998 -2.59721 1.49442e-13 
-2.81258 -2.5959 1.75813e-13 
-2.58528 -2.59237 2.00544e-13 
-2.35716 -2.59674 2.6762e-13 
-2.11446 -2.64057 3.31495e-13 
-1.86078 -2.57177 4.04746e-14 
-1.66187 -2.57235 3.92773e-13 
-1.47486 -2.6098 2.1477e-13 
-1.28268 -2.61589 -1.29148e-12 
-1.10748 -2.59524 2.45378e-13 
-1.00213 -2.44857 -2.74137e-13 
-0.878859 -2.36776 1.87188e-12 
-0.944012 -2.64336 9.23106e-13 
-0.636577 -2.77576 -9.70918e-12 
-0.341083 -2.69852 2.4164e-11 
-0.117193 -2.76499 -1.92413e-11 
0.265102 -2.75797 -3.49003e-12 
0.701768 -2.66674 -2.61203e-12 
0.798238 -2.49832 4.91276e-13 
0.874137 -2.65868 1.08458e-12 
1.04182 -2.63004 -1.64661e-12 
1.19831 -2.56099 3.79008e-13 
1.3692 -2.61581 -3.9456e-13 
1.56688 -2.59713 -8.58027e-14 
1.7825 -2.61467 -2.05917e-13 
2.01808 -2.61266 -2.40746e-13 
2.26001 -2.60732 -2.16144e-13 
2.49289 -2.595 -2.09314e-13 
2.72615 -2.60803 -2.16611e-13 
2.96248 -2.58905 -1.48836e-13 
3.18377 -2.59154 -8.4276e-14 
3.40686 -2.59562 -7.00733e-14 
3.62818 -2.58743 -5.33211e-14 
3.8428 -2.59039 -3.81579e-14 
4.06377 -2.60018 -3.47068e-14 
4.27725 -2.59105 -2.64636e-14 
4.48986 -2.59313 -2.02159e-14 
4.70062 -2.59038 -1.48975e-14 
4.91116 -2.59041 3.8923e-14 
5.12313 -2.59025 2.50171e-14 
5.34098 -2.59795 1.39833e-14 
5.55833 -2.59181 4.52177e-15 
5.78041 -2.59738 -8.36921e-15 
6.00694 -2.59861 -2.03412e-14 
6.22859 -2.58717 -3.29486e-14 
6.45349 -2.59556 1.54041e-14 
6.68014 -2.58941 2.1434e-14 
6.89637 -2.5758 2.9081e-14 
7.13447 -2.61715 4.28945e-14 
7.38077 -2.59543 5.38744e-14 
7.60934 -2.58929 5.69556e-14 
7.86281 -2.62587 7.57355e-14 
8.07358 -2.54536 5.52522e-14 
8.30066 -2.61745 -1.31155e-14 
8.48528 -2.52741 -1.32435e-09 
-8.48528 -2.34169 1.25122e-10 
-8.2481 -2.34372 -1.69403e-14 
-8.01369 -2.35171 -4.11908e-14 
-7.7759 -2.40983 -5.84928e-14 
-7.58102 -2.24088 -6.63455e-14 
-7.48989 -2.43699 -2.11693e-14 
-7.22039 -2.41761 -4.06894e-14 
-7.00022 -2.35305 -5.02491e-14 
-6.76987 -2.36723 -1.98681e-14 
-6.52516 -2.35933 -2.51714e-14 
-6.28227 -2.37066 4.72732e-14 
-6.06023 -2.34259 3.09244e-14 
-5.8405 -2.34679 1.58307e-14 
-5.61277 -2.35433 -3.58343e-16 
-5.39366 -2.37002 -1.54387e-14 
-5.16704 -2.35836 -2.77009e-14 
-4.94925 -2.3727 -4.35069e-14 
-4.72693 -2.36331 1.7506e-14 
-4.50991 -2.3719 2.28753e-14 
-4.29269 -2.36413 3.031e-14 
-4.07727 -2.35995 3.81852e-14 
-3.86174 -2.35847 4.78258e-14 
-3.64336 -2.35887 5.88616e-14 
-3.42442 -2.36263 7.23139e-14 
-3.20085 -2.36355 1.45683e-13 
-2.97384 -2.36809 1.71383e-13 
-2.74526 -2.36278 2.01431e-13 
-2.51403 -2.36091 2.31824e-13 
-2.26692 -2.39145 2.4524e-13 
-2.03686 -2.41335 2.34368e-13 
-1.80013 -2.31998 1.48569e-13 
-1.59505 -2.3369 7.36311e-14 
-1.40228 -2.39775 1.02943e-13 
-1.20973 -2.40213 -5.81555e-13 
-1.09978 -2.25665 -1.55705e-12 
-0.795128 -2.18442 4.58368e-13 
-0.811015 -2.58853 3.53199e-12 
-0.497121 -2.72792 -1.84434e-12 
-0.339568 -2.55659 -9.37442e-12 
0.0238555 -2.70055 1.0079e-11 
0.415557 -2.6383 -6.97821e-12 
0.517306 -2.72894 -1.88707e-12 
0.68782 -2.38509 -1.98415e-12 
0.879474 -2.30285 4.71439e-12 
0.979126 -2.4476 3.92994e-13 
1.15996 -2.36085 5.37534e-14 
1.36255 -2.38745 7.06306e-13 
1.55967 -2.37471 -4.05945e-13 
1.77344 -2.39551 -8.74654e-14 
1.99738 -2.39853 -3.42393e-13 
2.2311 -2.39569 -1.79366e-13 
2.46866 -2.36493 -2.76507e-13 
2.69604 -2.37996 -1.86138e-13 
2.92339 -2.36495 -1.83817e-13 
3.15255 -2.35265 -1.4917e-13 
3.37225 -2.3624 -7.15747e-14 
3.59119 -2.35618 -6.55823e-14 
3.8085 -2.35436 -4.85694e-14 
4.02524 -2.37075 -3.95274e-14 
4.2404 -2.35891 -3.19072e-14 
4.45479 -2.35954 -2.42057e-14 
4.66613 -2.35638 -1.83805e-14 
4.87799 -2.35474 4.81754e-14 
5.0891 -2.3558 3.26653e-14 
5.30431 -2.36572 1.92584e-14 
5.51966 -2.35987 7.72377e-15 
5.7398 -2.36596 -7.32162e-15 
5.96224 -2.37003 -2.26041e-14 
6.18563 -2.35413 -3.74184e-14 
6.41129 -2.35918 1.71384e-14 
6.63348 -2.35659 2.54383e-14 
6.85651 -2.32854 3.25961e-14 
7.07946 -2.37815 4.2026e-14 
7.3075 -2.38215 5.76492e-14 
7.5501 -2.34801 6.93564e-14 
7.78426 -2.39607 4.55461e-14 
7.99986 -2.31783 4.13986e-14 
8.24855 -2.35263 -3.3498e-14 
8.48528 -2.29653 -6.77826e-10 
-8.48528 -2.10473 1.65055e-10 
-8.27497 -2.07652 2.53242e-14 
-8.06086 -2.10279 -3.64419e-14 
-7.82402 -2.15874 -2.35574e-14 
-7.55012 -2.03509 -2.11458e-14 
-7.31315 -2.22493 -6.2278e-14 
-7.07856 -2.12475 -1.6449e-14 
-6.83319 -2.13239 5.10035e-14 
-6.60781 -2.14214 5.21352e-14 
-6.3618 -2.14617 3.3933e-14 
-6.14263 -2.11582 1.02106e-14 
-5.91618 -2.10769 1.18692e-14 
-5.6964 -2.12381 4.39611e-15 
-5.47375 -2.1294 -4.16214e-15 
-5.26165 -2.13867 -9.14226e-15 
-5.03621 -2.13572 -1.41192e-14 
-4.82532 -2.14259 -2.27536e-14 
-4.60504 -2.13864 -3.14311e-14 
-4.39518 -2.13862 -4.09791e-14 
-4.18185 -2.13024 -4.85989e-14 
-3.96919 -2.12656 1.62971e-14 
-3.75517 -2.12717 2.1802e-14 
-3.53957 -2.1274 2.68674e-14 
-3.32274 -2.13176 3.40483e-14 
-3.10026 -2.13572 4.36839e-14 
-2.87805 -2.13437 4.88326e-14 
-2.65064 -2.13005 5.38322e-14 
-2.40919 -2.15289 7.99301e-14 
-2.17898 -2.16393 1.4515e-13 
-1.96354 -2.16607 7.86738e-14 
-1.71567 -2.08191 6.92778e-15 
-1.50966 -2.12246 -9.6767e-16 
-1.32286 -2.1936 3.73957e-13 
-1.19879 -2.05552 -9.90352e-13 
-0.970732 -2.15214 -8.15552e-13 
-0.783144 -1.98008 -2.00932e-12 
-0.725064 -2.40671 -5.12905e-12 
-0.658233 -2.59564 4.50546e-12 
-0.189336 -2.66476 1.84454e-11 
0.176091 -2.67243 -7.26137e-13 
0.498109 -2.46632 1.63178e-12 
0.601587 -2.56071 1.49559e-12 
0.735328 -2.1991 6.70837e-13 
0.90333 -2.08954 3.33384e-12 
1.06046 -2.21119 -9.79693e-13 
1.1659 -2.03933 -7.48715e-14 
1.32156 -2.17444 2.24911e-13 
1.52231 -2.15268 1.6599e-13 
1.74558 -2.17842 -6.56957e-14 
1.98086 -2.18033 -5.38424e-14 
2.22044 -2.17853 -1.93514e-13 
2.46281 -2.14428 -7.66124e-14 
2.70277 -2.14907 -6.29562e-14 
2.93364 -2.13445 -5.04905e-14 
3.16254 -2.11997 -3.4843e-14 
3.3862 -2.12999 -3.35994e-14 
3.60613 -2.12304 -2.12878e-14 
3.83012 -2.12751 -2.11351e-14 
4.045 -2.13791 -1.73056e-14 
4.2634 -2.12964 4.33461e-14 
4.47637 -2.12654 3.51806e-14 
4.68997 -2.12422 2.55316e-14 
4.90251 -2.12087 1.80513e-14 
5.11942 -2.12686 1.13431e-14 
5.33243 -2.13142 7.62206e-15 
5.55297 -2.13093 2.41863e-15 
5.7744 -2.13683 -6.98977e-15 
5.9946 -2.13656 -1.35795e-14 
6.22258 -2.1245 -1.68641e-14 
6.44321 -2.12184 -3.02252e-14 
6.66223 -2.11548 -4.54543e-14 
6.89594 -2.09776 -4.26323e-14 
7.118 -2.14373 2.24896e-14 
7.34965 -2.1533 3.30468e-14 
7.55694 -2.08518 1.65398e-14 
7.76064 -2.15564 1.93919e-14 
7.98087 -2.07949 -2.27783e-14 
8.21258 -2.12922 -3.73641e-14 
8.48528 -2.09733 3.02285e-10 
-8.48528 -1.83164 1.93668e-10 
-8.27362 -1.80626 3.93272e-14 
-7.8723 -1.90472 4.60338e-14 
[...]
POINT_DATA 1978 
VECTORS vectors float
0.00572459 -0.0110224 0.999923 
0.00419459 -0.0373296 0.999295 
0.00125732 -0.042978 0.999076 
-0.000820341 -0.0345071 0.999405 
-0.000727026 -0.023348 0.999728 
0.000714871 -0.0168915 0.999857 
0.00168122 -0.0110247 0.999938 
0.00310478 -0.00755803 0.999967 
0.00342746 -0.00510439 0.999981 
0.00327447 -0.00359328 0.999988 
0.00310506 -0.0027782 0.999992 
0.00367015 -0.00194352 0.999992 
0.00356802 -0.000957765 0.999993 
0.00317472 0.00015146 0.999995 
0.00311141 0.00145437 0.999994 
0.00317737 0.00279943 0.999991 
0.00320764 0.00435553 0.999986 
0.00324799 0.00600954 0.999977 
0.00320873 0.00805455 0.999963 
0.00328251 0.0104655 0.99994 
0.00330527 0.0134563 0.999904 
0.0032102 0.0172172 0.999847 
0.00301975 0.0220065 0.999754 
0.00276114 0.0283049 0.999596 
0.00249761 0.0364196 0.999334 
0.0022599 0.0470507 0.99889 
0.00219866 0.0605983 0.99816 
0.00196646 0.078209 0.996935 
0.000688614 0.102038 0.994781 
0.000765172 0.142269 0.989828 
0.00208145 0.182088 0.98328 
0.00194306 0.226841 0.97393 
0.000773835 0.292691 0.956207 
7.29255e-05 0.364166 0.931334 
0.000510649 0.430114 0.902775 
0.00042343 0.50301 0.86428 
-0.000600488 0.573944 0.818894 
-0.0001386 0.643801 0.765193 
0.000980138 0.928114 0.372296 
-0.000191405 0.996528 -0.0832539 
0.000170422 0.877309 -0.479927 
0.00216845 0.720061 -0.693907 
0.000394372 0.605647 -0.795734 
0.000988507 0.504625 -0.863338 
0.00109991 0.424457 -0.905447 
-0.000437802 0.353602 -0.935396 
-0.00136148 0.281764 -0.959483 
-0.00155124 0.226272 -0.974063 
-0.00155941 0.175235 -0.984525 
-0.0014388 0.135037 -0.99084 
-0.00169352 0.101121 -0.994873 
-0.00164053 0.0781239 -0.996943 
-0.00181825 0.0587256 -0.998273 
-0.00258737 0.0458259 -0.998946 
-0.00238702 0.0356411 -0.999362 
-0.00270671 0.0278559 -0.999609 
-0.00311996 0.022058 -0.999752 
-0.00320052 0.0173091 -0.999845 
-0.00310097 0.0134915 -0.999904 
-0.00318789 0.0103702 -0.999941 
-0.00341849 0.00793376 -0.999963 
-0.0035163 0.00599414 -0.999976 
-0.00357326 0.0043656 -0.999984 
-0.00351204 0.00291284 -0.99999 
-0.00325175 0.00161117 -0.999994 
-0.00310749 0.00035616 -0.999995 
-0.00292273 -0.000812029 -0.999996 
-0.00269138 -0.00178029 -0.999995 
-0.00277502 -0.00273944 -0.999993 
-0.0026655 -0.0039112 -0.999989 
-0.00260106 -0.00566412 -0.999981 
-0.00274811 -0.00834168 -0.999962 
-0.00163509 -0.0120264 -0.999927 
-0.00120009 -0.0178153 -0.999841 
-0.0017298 -0.0245615 -0.999697 
-0.000719023 -0.0327448 -0.999464 
-0.00124416 -0.0430336 -0.999073 
-0.00362285 -0.0384891 -0.999253 
-0.00494888 -0.00847524 -0.999952 
0.0087374 -0.00517892 0.999948 
0.0149312 -0.0295486 0.999452 
0.0184858 -0.0381379 0.999101 
0.0196441 -0.0341945 0.999222 
0.0187595 -0.0252725 0.999505 
0.0202955 -0.0168015 0.999653 
0.0222199 -0.0118011 0.999684 
0.0230038 -0.00795048 0.999704 
0.0247007 -0.00547542 0.99968 
0.0233415 -0.00375707 0.999721 
0.0249926 -0.00250464 0.999685 
0.0250691 -0.00140698 0.999685 
0.0254708 -0.00030978 0.999676 
0.0243625 0.000878589 0.999703 
0.0255955 0.00223306 0.99967 
0.0245263 0.00368425 0.999692 
0.0252952 0.00533502 0.999666 
0.0245901 0.00724681 0.999671 
0.0247833 0.00962709 0.999647 
0.0247267 0.0125194 0.999616 
0.0244896 0.0161204 0.99957 
0.0242033 0.0206844 0.999493 
0.0233144 0.026555 0.999375 
0.0228459 0.0341969 0.999154 
0.0219602 0.0440497 0.998788 
0.0212605 0.0569152 0.998153 
0.0208066 0.073498 0.997078 
0.0201875 0.0953245 0.995242 
0.017003 0.126347 0.99184 
0.0209173 0.169148 0.985369 
0.0229511 0.214042 0.976555 
0.0211107 0.274352 0.961398 
0.023407 0.358391 0.933278 
0.0270493 0.452346 0.891432 
0.0514052 0.474773 0.878606 
0.0764905 0.535247 0.841225 
0.0301266 0.545824 0.837358 
0.00758421 0.703374 0.710779 
0.0251929 0.868632 0.494817 
0.00702207 0.961148 0.275943 
-0.0100616 0.927773 -0.373009 
-0.0309324 0.656069 -0.754067 
-0.055863 0.614944 -0.786589 
-0.0214071 0.563511 -0.825831 
-0.0284698 0.457258 -0.888878 
-0.0280705 0.377798 -0.925462 
-0.0205739 0.303305 -0.952671 
-0.0207535 0.23818 -0.970999 
-0.0187614 0.185361 -0.982491 
-0.0187679 0.141289 -0.989791 
-0.0191434 0.106246 -0.994156 
-0.0202602 0.0805561 -0.996544 
-0.0204673 0.0614808 -0.997899 
-0.0220667 0.0469465 -0.998654 
-0.0225802 0.0367299 -0.99907 
-0.0230526 0.0287278 -0.999322 
-0.0237611 0.0224637 -0.999465 
-0.0241283 0.0175079 -0.999556 
-0.0240905 0.0135082 -0.999619 
-0.0249573 0.0104007 -0.999634 
-0.0250255 0.00790071 -0.999656 
-0.0253378 0.00591412 -0.999661 
-0.02536 0.00423522 -0.999669 
-0.0252986 0.00277908 -0.999676 
-0.0247196 0.00142086 -0.999693 
-0.02501 0.000186 -0.999687 
-0.0245105 -0.000962864 -0.999699 
-0.0243627 -0.00211645 -0.999701 
-0.0247341 -0.00337637 -0.999688 
-0.0238705 -0.00491322 -0.999703 
-0.0238383 -0.0071911 -0.99969 
-0.0239418 -0.0103019 -0.99966 
-0.0208027 -0.0146698 -0.999676 
-0.0216104 -0.0210531 -0.999545 
-0.0207481 -0.0282317 -0.999386 
-0.0183045 -0.0364287 -0.999169 
-0.0194784 -0.0361499 -0.999157 
-0.0128425 -0.0272346 -0.999547 
-0.0091989 -0.00394738 -0.99995 
0.00873331 -0.00432589 0.999953 
0.0184248 -0.0269054 0.999468 
0.0256177 -0.0378542 0.998955 
0.0275568 -0.0345595 0.999023 
0.0302135 -0.0284135 0.99914 
0.0263854 -0.0254382 0.999328 
0.0297659 -0.0173947 0.999406 
0.0328588 -0.0129632 0.999376 
0.0324874 -0.00928738 0.999429 
0.0343556 -0.00608416 0.999391 
0.0338735 -0.00397622 0.999418 
0.0352265 -0.00254145 0.999376 
0.0349936 -0.00121535 0.999387 
0.0352587 -6.95348e-06 0.999378 
0.0347976 0.00117314 0.999394 
0.0353063 0.00255459 0.999373 
0.0349682 0.00400194 0.99938 
0.0352681 0.00572865 0.999362 
0.0348874 0.00776711 0.999361 
0.0348499 0.0103061 0.999339 
0.0345847 0.0134763 0.999311 
0.0341445 0.01745 0.999265 
0.0335388 0.0225422 0.999183 
0.032794 0.0289959 0.999041 
0.0321783 0.0373804 0.998783 
0.0312647 0.048212 0.998348 
0.0306665 0.0622019 0.997592 
0.0303161 0.0806346 0.996283 
0.0294179 0.106662 0.99386 
0.0289383 0.138528 0.989936 
0.0339962 0.179101 0.983243 
0.0377649 0.227803 0.972975 
0.039438 0.285833 0.957468 
0.0444568 0.369371 0.928218 
0.0659828 0.414427 0.907688 
0.111374 0.529189 0.841163 
0.0446826 0.606814 0.793587 
0.0200631 0.757415 0.652625 
0.0510496 0.919807 0.389037 
0.00196377 0.999933 0.0113551 
-0.0462194 0.854712 -0.51704 
-0.0152482 0.79314 -0.608848 
-0.0907154 0.64429 -0.759382 
-0.0716139 0.536455 -0.840885 
-0.0513898 0.486785 -0.872009 
-0.0544537 0.382752 -0.922245 
-0.0395564 0.308826 -0.950296 
-0.0357612 0.243145 -0.969331 
-0.0314197 0.187905 -0.981685 
-0.0300465 0.143909 -0.989135 
-0.029012 0.110879 -0.99341 
-0.0303536 0.0836759 -0.996031 
-0.0302356 0.0650534 -0.997424 
-0.0312121 0.0500101 -0.998261 
-0.0321417 0.0388231 -0.998729 
-0.0325659 0.0305928 -0.999001 
-0.0334196 0.0238366 -0.999157 
-0.0338792 0.0186795 -0.999251 
-0.0341781 0.0144342 -0.999312 
-0.034828 0.0111015 -0.999332 
-0.0350333 0.0084213 -0.999351 
-0.0352156 0.00629099 -0.99936 
-0.0353212 0.00455879 -0.999366 
-0.03539 0.00309889 -0.999369 
-0.035218 0.00175631 -0.999378 
-0.0353817 0.000519095 -0.999374 
-0.0351368 -0.000667912 -0.999382 
-0.0349015 -0.00192585 -0.999389 
-0.0348965 -0.00337882 -0.999385 
-0.0342242 -0.00505297 -0.999401 
-0.0337662 -0.00731614 -0.999403 
-0.0334731 -0.0106173 -0.999383 
-0.0318432 -0.0144739 -0.999388 
-0.0309068 -0.0198625 -0.999325 
-0.0300057 -0.0272932 -0.999177 
-0.0275895 -0.0349841 -0.999007 
-0.0265903 -0.0380586 -0.998922 
-0.0187296 -0.0272331 -0.999454 
-0.00949232 -0.00563745 -0.999939 
0.00691591 -0.0034893 0.99997 
0.015865 -0.027256 0.999503 
0.0224609 -0.0384843 0.999007 
0.0271172 -0.0369715 0.998948 
0.0264433 -0.029154 0.999225 
0.0312447 -0.0204446 0.999303 
0.0303437 -0.0158864 0.999413 
0.0309519 -0.0109672 0.999461 
0.0321938 -0.00758076 0.999453 
0.0327214 -0.0049507 0.999452 
0.0322718 -0.00329323 0.999474 
0.0320822 -0.00161247 0.999484 
0.0325942 -0.000294902 0.999469 
0.0326883 0.000905283 0.999465 
0.032874 0.00210525 0.999457 
0.032712 0.00351333 0.999459 
0.0328121 0.00499362 0.999449 
0.0326638 0.00687989 0.999443 
0.0325455 0.00912744 0.999429 
0.0321883 0.0120241 0.99941 
0.0318197 0.0156013 0.999372 
0.0315434 0.0200688 0.999301 
0.0311413 0.0257226 0.999184 
0.030856 0.0328362 0.998984 
0.0305901 0.0420009 0.998649 
0.0301881 0.053538 0.998109 
0.0301405 0.0686177 0.997188 
0.0310815 0.0893904 0.995512 
0.0323757 0.115199 0.992815 
0.0345987 0.146372 0.988624 
0.0409395 0.190233 0.980885 
0.0485419 0.242309 0.968984 
0.0560751 0.308466 0.949581 
0.0717517 0.349181 0.934304 
0.0890688 0.442311 0.892428 
0.132005 0.477016 0.868925 
0.0784693 0.637354 0.766565 
0.0507096 0.733592 0.677695 
0.0235909 0.981527 0.189863 
-0.0170664 0.972765 -0.231164 
-0.0936639 0.766926 -0.634864 
-0.0546494 0.740913 -0.669374 
-0.113833 0.560803 -0.820087 
-0.0965955 0.466288 -0.879344 
-0.0751347 0.414883 -0.906767 
-0.0717485 0.336496 -0.938948 
-0.0539849 0.30217 -0.951724 
-0.0455134 0.24321 -0.968905 
-0.0377906 0.18907 -0.981236 
-0.0339925 0.144056 -0.988986 
-0.0320148 0.108407 -0.993591 
-0.0307844 0.0825375 -0.996112 
-0.0303475 0.0636538 -0.997511 
-0.0303002 0.0495306 -0.998313 
-0.0302892 0.0386948 -0.998792 
-0.0307921 0.0301332 -0.999072 
-0.0309225 0.0236123 -0.999243 
-0.0317272 0.0183443 -0.999328 
-0.0322303 0.0142482 -0.999379 
-0.0322222 0.0108868 -0.999421 
-0.0323 0.00823734 -0.999444 
-0.0322796 0.00612936 -0.99946 
-0.0323748 0.00446385 -0.999466 
-0.032577 0.00301961 -0.999465 
-0.032742 0.00172598 -0.999462 
-0.0328329 0.000474534 -0.999461 
-0.0329855 -0.000761145 -0.999456 
-0.0328961 -0.00216956 -0.999456 
-0.0324865 -0.0039314 -0.999464 
-0.0319105 -0.0058593 -0.999474 
-0.0312881 -0.00838771 -0.999475 
-0.0302777 -0.012198 -0.999467 
-0.0302869 -0.0162984 -0.999408 
-0.0298952 -0.0222631 -0.999305 
-0.0270196 -0.0291132 -0.999211 
-0.0271703 -0.0354164 -0.999003 
-0.0236427 -0.0400069 -0.99892 
-0.0190266 -0.0300059 -0.999369 
-0.00698024 -0.00575651 -0.999959 
0.00537851 -0.00344907 0.99998 
0.0109121 -0.0268146 0.999581 
0.0200088 -0.0402703 0.998989 
0.0212726 -0.0340209 0.999195 
0.0198051 -0.0259302 0.999468 
0.0259861 -0.0224778 0.99941 
0.0225269 -0.0183244 0.999578 
0.0251849 -0.0134517 0.999592 
0.0251869 -0.00951884 0.999637 
0.0267806 -0.00643281 0.999621 
0.025522 -0.00440358 0.999665 
0.025734 -0.00252835 0.999666 
0.0255695 -0.000809417 0.999673 
0.0259765 0.000449523 0.999663 
0.0258023 0.00161231 0.999666 
0.0264629 0.00282836 0.999646 
0.0259245 0.00421846 0.999655 
0.0262988 0.00578861 0.999637 
0.0258393 0.00776917 0.999636 
0.0257996 0.0102452 0.999615 
0.0254613 0.0133962 0.999586 
0.02532 0.0173328 0.999529 
0.0251801 0.0221987 0.999436 
0.0249853 0.0283074 0.999287 
0.0252052 0.0360094 0.999034 
0.0253448 0.0455726 0.99864 
0.0257466 0.0579742 0.997986 
0.0270655 0.0748794 0.996825 
0.0290703 0.0957232 0.994983 
0.0321933 0.121597 0.992057 
0.0372775 0.155199 0.98718 
0.0490177 0.206287 0.977263 
0.0610914 0.262986 0.962863 
0.0809968 0.314715 0.945724 
0.101974 0.394355 0.913283 
0.147805 0.429364 0.890955 
0.122078 0.634233 0.763443 
0.0958355 0.733593 0.672798 
0.060767 0.824732 0.56225 
0.0451432 0.975365 0.215926 
-0.0680016 0.905185 -0.419542 
-0.134322 0.69029 -0.710955 
-0.139484 0.506665 -0.850785 
-0.119908 0.424675 -0.89737 
-0.0939398 0.365738 -0.925965 
-0.0777308 0.29574 -0.952101 
-0.0600276 0.262761 -0.962992 
-0.0505868 0.215938 -0.975096 
-0.0422726 0.188909 -0.981084 
-0.0353988 0.147316 -0.988456 
-0.0312453 0.113213 -0.993079 
-0.028321 0.0877395 -0.995741 
-0.0265132 0.0662623 -0.99745 
-0.0257231 0.0525341 -0.998288 
-0.0249266 0.0410594 -0.998846 
-0.0249819 0.0318517 -0.99918 
-0.0249186 0.0251526 -0.999373 
-0.0253889 0.0195177 -0.999487 
-0.0256891 0.0151724 -0.999555 
-0.0258223 0.0117063 -0.999598 
-0.0256002 0.00881251 -0.999633 
-0.0255742 0.00659319 -0.999651 
-0.0255086 0.00487178 -0.999663 
-0.0258085 0.00344981 -0.999661 
-0.0258321 0.00216891 -0.999664 
-0.0261672 0.000959544 -0.999657 
-0.0263761 -0.000299428 -0.999652 
-0.0262719 -0.00172885 -0.999653 
-0.02614 -0.00351674 -0.999652 
-0.0255061 -0.00562688 -0.999659 
-0.0248878 -0.00811082 -0.999657 
-0.0245155 -0.0114857 -0.999634 
-0.0240413 -0.0160868 -0.999582 
-0.0239802 -0.0211618 -0.999488 
-0.0215621 -0.0291437 -0.999343 
-0.0208601 -0.0373776 -0.999084 
-0.0173889 -0.039708 -0.99906 
-0.0131296 -0.0270007 -0.999549 
-0.00565143 -0.00551619 -0.999969 
0.00437445 -0.00441686 0.999981 
0.00800321 -0.0276856 0.999585 
0.0159515 -0.0384027 0.999135 
0.0145244 -0.0413336 0.99904 
0.0161101 -0.0343634 0.99928 
0.016678 -0.0227266 0.999603 
0.0183191 -0.0161959 0.999701 
0.0193932 -0.0122535 0.999737 
0.0198039 -0.0082718 0.99977 
0.0197111 -0.00582639 0.999789 
0.0193091 -0.00356687 0.999807 
0.0196271 -0.00161778 0.999806 
0.0193998 -4.69302e-05 0.999812 
0.0194957 0.00114041 0.999809 
0.0196395 0.0023373 0.999804 
0.0198573 0.0035048 0.999797 
0.019722 0.00492632 0.999793 
0.0197681 0.00661533 0.999783 
0.0194697 0.00887877 0.999771 
0.0194896 0.011672 0.999742 
0.0194019 0.0152505 0.999695 
0.0193476 0.0196686 0.999619 
0.0193762 0.0251372 0.999496 
0.0196896 0.0321134 0.99929 
0.0200777 0.0406146 0.998973 
0.0208386 0.0515304 0.998454 
0.0225403 0.0662595 0.997548 
0.0248934 0.0845574 0.996108 
0.0285012 0.107423 0.993805 
0.0343499 0.136238 0.99008 
0.0433951 0.173209 0.983929 
0.0641677 0.23944 0.968789 
0.0855326 0.285885 0.954439 
0.0970185 0.285946 0.953322 
0.111589 0.354845 0.928242 
0.127565 0.34755 0.928944 
0.163971 0.57862 0.798944 
0.151183 0.727357 0.669399 
0.103062 0.923121 0.37044 
-0.0193458 0.992433 -0.121255 
-0.127822 0.819651 -0.558421 
-0.162627 0.60696 -0.777915 
-0.159507 0.46614 -0.870213 
-0.137069 0.386133 -0.912203 
-0.108859 0.343553 -0.932803 
-0.0861262 0.280564 -0.955964 
-0.0643127 0.236974 -0.969385 
-0.0480886 0.189543 -0.980694 
-0.0380156 0.155301 -0.987136 
-0.0316438 0.124055 -0.991771 
-0.0271612 0.098225 -0.994794 
-0.0241484 0.0763158 -0.996791 
-0.021441 0.0602873 -0.997951 
-0.0205823 0.0481347 -0.998629 
-0.0197915 0.0374932 -0.999101 
-0.0191575 0.0297928 -0.999373 
-0.0194817 0.0233229 -0.999538 
-0.0195708 0.0182619 -0.999642 
-0.0196195 0.0142345 -0.999706 
-0.0197259 0.0109182 -0.999746 
-0.0193985 0.00821677 -0.999778 
-0.0192836 0.00613512 -0.999795 
-0.0193255 0.00450021 -0.999803 
-0.0194886 0.00321798 -0.999805 
-0.019439 0.00204351 -0.999809 
-0.0198699 0.0008241 -0.999802 
-0.0199225 -0.000462852 -0.999801 
-0.0198727 -0.00201967 -0.999801 
-0.0198042 -0.00403914 -0.999796 
-0.0190346 -0.00635466 -0.999799 
-0.0185604 -0.00912127 -0.999786 
-0.0188951 -0.0131111 -0.999736 
-0.017948 -0.0178855 -0.999679 
-0.0180926 -0.0234987 -0.99956 
-0.0157648 -0.0309823 -0.999396 
-0.0162478 -0.0379623 -0.999147 
-0.013406 -0.0421125 -0.999023 
-0.0106719 -0.0305858 -0.999475 
-0.00402955 -0.00610379 -0.999973 
0.00297759 -0.00535906 0.999981 
0.00594113 -0.0296166 0.999544 
0.0112553 -0.0405915 0.999112 
0.0107681 -0.0399025 0.999146 
0.0135681 -0.030346 0.999447 
0.0116194 -0.0243816 0.999635 
0.0136322 -0.0182731 0.99974 
0.0136697 -0.0133162 0.999818 
0.0150408 -0.00969622 0.99984 
0.0142583 -0.0067009 0.999876 
0.0146627 -0.00438025 0.999883 
0.0145187 -0.00206777 0.999893 
0.014502 -0.000403687 0.999895 
0.0141744 0.000940743 0.999899 
0.0144772 0.00206442 0.999893 
0.014378 0.00315865 0.999892 
0.0147103 0.00429146 0.999883 
0.0143944 0.00580269 0.99988 
0.0144539 0.00772893 0.999866 
0.0143512 0.0102862 0.999844 
0.0145182 0.0134284 0.999804 
0.0145221 0.0173536 0.999744 
0.0146463 0.0221716 0.999647 
0.0150884 0.0282856 0.999486 
0.0155513 0.0357316 0.99924 
0.0164117 0.0451066 0.998847 
0.0180394 0.0575133 0.998182 
0.0203172 0.0727945 0.99714 
0.0237169 0.0920084 0.995476 
0.0289677 0.116526 0.992765 
0.0374582 0.147325 0.988379 
0.0519805 0.193368 0.979748 
0.0692862 0.231259 0.970422 
0.0786456 0.242404 0.966983 
0.114438 0.300864 0.946776 
0.164334 0.398104 0.902501 
0.190402 0.506648 0.840865 
0.201972 0.68201 0.7029 
0.095779 0.843888 0.527901 
-0.0315045 0.990852 -0.131223 
-0.181452 0.750234 -0.635786 
-0.193648 0.566384 -0.801067 
-0.202558 0.505207 -0.83889 
-0.156321 0.388446 -0.908115 
-0.108747 0.305517 -0.945956 
-0.0811067 0.250862 -0.964619 
-0.0637904 0.218311 -0.973792 
-0.049439 0.184685 -0.981554 
-0.037041 0.147912 -0.988307 
-0.0298812 0.120111 -0.992311 
-0.0245731 0.0966121 -0.995019 
-0.0215635 0.0784944 -0.996681 
-0.0181844 0.0620515 -0.997907 
-0.0164404 0.0489721 -0.998665 
-0.0158892 0.0392107 -0.999105 
-0.0147334 0.0307911 -0.999417 
-0.0148692 0.0243565 -0.999593 
-0.0147895 0.0190874 -0.999708 
-0.0146439 0.0148272 -0.999783 
-0.0146275 0.0113549 -0.999829 
-0.0144458 0.00859857 -0.999859 
-0.014185 0.0063738 -0.999879 
-0.0143019 0.00471141 -0.999887 
-0.0142671 0.00343989 -0.999892 
-0.014262 0.00235247 -0.999896 
-0.0145851 0.00116935 -0.999893 
-0.0146681 -9.71942e-05 -0.999892 
-0.0147091 -0.00163611 -0.999891 
-0.0148041 -0.0037096 -0.999884 
-0.0142536 -0.00615288 -0.99988 
-0.0138321 -0.00901299 -0.999864 
-0.0142646 -0.0128179 -0.999816 
-0.0133753 -0.017718 -0.999754 
-0.0132741 -0.0237565 -0.99963 
-0.0115744 -0.031805 -0.999427 
-0.0113392 -0.0399068 -0.999139 
-0.00929835 -0.0424242 -0.999056 
-0.00753071 -0.0300937 -0.999519 
-0.0028041 -0.00563077 -0.99998 
0.00201978 -0.00660685 0.999976 
0.0040444 -0.0298163 0.999547 
0.00847422 -0.043595 0.999013 
0.0075062 -0.0409222 0.999134 
0.00974351 -0.0331802 0.999402 
0.00880787 -0.0246945 0.999656 
0.0101788 -0.017973 0.999787 
0.0101039 -0.0130752 0.999864 
0.010848 -0.00921466 0.999899 
0.00993138 -0.00629175 0.999931 
0.0106936 -0.0037091 0.999936 
0.0102415 -0.00149756 0.999946 
0.0102612 0.000103683 0.999947 
0.00983124 0.00137707 0.999951 
0.0100677 0.00242234 0.999946 
0.00992369 0.00340369 0.999945 
0.0102831 0.00453298 0.999937 
0.00989125 0.0060263 0.999933 
0.0101287 0.00811382 0.999916 
0.0100772 0.0107863 0.999891 
0.0103126 0.0140743 0.999848 
0.0104276 0.0181071 0.999782 
0.0108293 0.0232113 0.999672 
0.0113395 0.0293916 0.999504 
0.0121505 0.0371952 0.999234 
0.0134819 0.0471887 0.998795 
0.0153436 0.0595139 0.99811 
0.0181551 0.0751332 0.997008 
0.0221682 0.0944579 0.995282 
0.0281451 0.11845 0.992561 
0.039444 0.153084 0.987426 
0.0528421 0.1887 0.980612 
0.0555898 0.195521 0.979123 
0.0789365 0.244337 0.966472 
0.107383 0.293005 0.950062 
0.157318 0.357093 0.920725 
0.210568 0.471053 0.856604 
0.254705 0.591911 0.764701 
0.18486 0.832909 0.521622 
0.0330563 0.994761 0.0967323 
-0.107521 0.933643 -0.341686 
-0.238143 0.668294 -0.704749 
-0.212205 0.464903 -0.859554 
-0.152377 0.353923 -0.922779 
-0.106696 0.289877 -0.951098 
-0.0731199 0.235872 -0.96903 
-0.0574193 0.201464 -0.977811 
-0.045052 0.17107 -0.984228 
-0.0361304 0.145053 -0.988764 
-0.0273623 0.115373 -0.992945 
-0.0213243 0.0914492 -0.995581 
-0.0176217 0.0728276 -0.997189 
-0.0144076 0.057198 -0.998259 
-0.0126069 0.0455628 -0.998882 
-0.0119933 0.0365994 -0.999258 
-0.0109551 0.028719 -0.999528 
-0.0109205 0.0227421 -0.999682 
-0.0106314 0.0178622 -0.999784 
-0.0104439 0.0138387 -0.99985 
-0.0102619 0.0106256 -0.999891 
-0.0101347 0.0080086 -0.999917 
-0.00988763 0.00591249 -0.999934 
-0.0100121 0.00438941 -0.99994 
-0.00983691 0.00328489 -0.999946 
-0.0100015 0.00227883 -0.999947 
-0.0102073 0.00117721 -0.999947 
-0.0103199 -0.000112093 -0.999947 
-0.0104267 -0.00174157 -0.999944 
-0.0104635 -0.0038773 -0.999938 
-0.0102088 -0.00658405 -0.999926 
-0.0101658 -0.00985143 -0.9999 
-0.0104165 -0.0137714 -0.999851 
-0.00963225 -0.0186495 -0.99978 
-0.00989488 -0.0243057 -0.999656 
-0.0086189 -0.0322186 -0.999444 
-0.00831092 -0.0406598 -0.999139 
-0.00674397 -0.0432227 -0.999043 
-0.00503049 -0.0289128 -0.999569 
-0.00221305 -0.00589823 -0.99998 
0.00144069 -0.00684357 0.999975 
0.00295794 -0.0321147 0.99948 
0.00597083 -0.0431827 0.999049 
0.00530074 -0.0414995 0.999125 
0.00719178 -0.0328055 0.999436 
0.00630655 -0.0251806 0.999663 