# vtk DataFile Version 3.0 
Exported using Morpho https://github.com/Morpho-lang/morpho 
ASCII 
DATASET UNSTRUCTURED_GRID 

POINTS 1978 float 
-8.48528 -2.82843 3.90695e-11 
-8.2652 -2.82843 -7.73671e-11 
-8.04263 -2.82843 -1.98724e-10 
-7.79231 -2.82843 -2.18768e-10 
-7.48656 -2.82843 -1.37611e-10 
-7.2423 -2.82843 -9.93751e-11 
-6.98632 -2.82843 -4.22439e-11 
-6.76721 -2.82843 -2.20397e-11 
-6.5581 -2.82843 -2.49926e-11 
-6.36003 -2.82843 -7.40089e-12 
-6.1387 -2.82843 -1.66403e-11 
-5.93586 -2.82843 -8.70199e-12 
-5.72907 -2.82843 2.00471e-12 
-5.52564 -2.82843 6.70451e-12 
-5.30357 -2.82843 5.54347e-12 
-5.09895 -2.82843 2.27868e-11 
-4.88075 -2.82843 2.39314e-11 
-4.67503 -2.82843 3.2449e-11 
-4.46115 -2.82843 4.29384e-11 
-4.25152 -2.82843 5.34302e-11 
-4.04307 -2.82843 6.83351e-11 
-3.83375 -2.82843 7.85917e-11 
-3.62448 -2.82843 1.03035e-10 
-3.40902 -2.82843 1.23548e-10 
-3.19277 -2.82843 1.5568e-10 
-2.97084 -2.82843 1.8727e-10 
-2.74746 -2.82843 2.14458e-10 
-2.52642 -2.82843 2.67734e-10 
-2.30099 -2.82843 3.66446e-10 
-2.02339 -2.82843 4.10676e-10 
-1.82109 -2.82843 3.45172e-10 
-1.63784 -2.82843 2.24256e-10 
-1.44381 -2.82843 3.11635e-12 
-1.26993 -2.82843 -6.21164e-10 
-1.12636 -2.82843 -1.44949e-10 
-0.988316 -2.82843 -2.02251e-09 
-0.858104 -2.82843 -3.62496e-09 
-0.733368 -2.82843 -1.41673e-08 
-0.274271 -2.82843 -4.58823e-08 
0.0605271 -2.82843 1.93472e-08 
0.373539 -2.82843 2.82446e-08 
0.618258 -2.82843 1.21943e-08 
0.780782 -2.82843 5.38379e-09 
0.961465 -2.82843 2.49548e-09 
1.1112 -2.82843 4.79592e-10 
1.2546 -2.82843 5.61754e-10 
1.44436 -2.82843 -2.15539e-10 
1.63052 -2.82843 -3.20184e-10 
1.84517 -2.82843 -4.05571e-10 
2.06847 -2.82843 -3.97624e-10 
2.29738 -2.82843 -2.95734e-10 
2.52034 -2.82843 -2.73372e-10 
2.75844 -2.82843 -2.18986e-10 
2.97653 -2.82843 -1.82824e-10 
3.19547 -2.82843 -1.53722e-10 
3.4164 -2.82843 -1.13349e-10 
3.6301 -2.82843 -1.06219e-10 
3.83874 -2.82843 -8.28541e-11 
4.04741 -2.82843 -6.60567e-11 
4.26375 -2.82843 -5.74571e-11 
4.47011 -2.82843 -3.96949e-11 
4.67763 -2.82843 -3.18696e-11 
4.88233 -2.82843 -2.2055e-11 
5.08772 -2.82843 -1.61632e-11 
5.2941 -2.82843 -1.55129e-11 
5.50952 -2.82843 2.4562e-12 
5.7213 -2.82843 -8.10262e-12 
5.94059 -2.82843 7.70087e-12 
6.16342 -2.82843 1.04391e-11 
6.37809 -2.82843 1.32231e-11 
6.60272 -2.82843 3.19955e-11 
6.82394 -2.82843 2.93267e-11 
7.03563 -2.82843 6.19989e-11 
7.29324 -2.82843 7.38538e-11 
7.52529 -2.82843 9.27787e-11 
7.75417 -2.82843 1.53624e-10 
8.02608 -2.82843 2.34694e-10 
8.22056 -2.82843 6.62434e-11 
8.48528 -2.82843 -4.85267e-11 
-8.48528 -2.58641 5.70513e-11 
-8.26592 -2.57912 -1.08384e-15 
-8.03234 -2.59047 1.74261e-15 
-7.75646 -2.62865 2.66879e-15 
-7.47725 -2.62307 -6.0996e-14 
-7.21893 -2.62637 -2.96434e-15 
-6.97403 -2.59575 -1.67628e-15 
-6.74078 -2.59397 -1.51571e-15 
-6.51882 -2.583 -9.56426e-16 
-6.29501 -2.60387 1.92949e-15 
-6.07463 -2.58147 1.38272e-15 
-5.85865 -2.58563 6.84446e-16 
-5.64391 -2.58218 2.32388e-17 
-5.42262 -2.60335 -6.07057e-16 
-5.20344 -2.58603 -1.22214e-15 
-4.9859 -2.6027 -1.93288e-15 
-4.76805 -2.59098 -2.79685e-15 
-4.55314 -2.6003 1.08538e-15 
-4.33651 -2.59545 1.40908e-15 
-4.12296 -2.5931 1.81268e-15 
-3.91027 -2.5925 2.33618e-15 
-3.69695 -2.59097 -1.62627e-15 
-3.48137 -2.59504 -1.95786e-15 
-3.26202 -2.59394 -2.476e-15 
-3.03949 -2.59718 4.92306e-14 
-2.81181 -2.5957 5.79196e-14 
-2.58417 -2.59219 6.60639e-14 
-2.3558 -2.59634 8.81707e-14 
-2.11369 -2.64051 1.09214e-13 
-1.86008 -2.57227 2.38181e-15 
-1.66112 -2.57239 1.29432e-13 
-1.47591 -2.61042 7.14138e-14 
-1.28474 -2.61251 -4.28634e-13 
-1.11017 -2.59668 8.43241e-14 
-1.00546 -2.44753 -8.97287e-14 
-0.880095 -2.3744 6.15984e-13 
-0.947958 -2.64225 3.03098e-13 
-0.608099 -2.77544 -3.20165e-12 
-0.342257 -2.69749 7.95911e-12 
-0.118404 -2.76551 -6.38905e-12 
0.261054 -2.75696 -1.14894e-12 
0.707041 -2.66505 -8.60257e-13 
0.801873 -2.49518 1.61356e-13 
0.878216 -2.65782 3.57584e-13 
1.0451 -2.62879 -5.42706e-13 
1.20117 -2.56047 1.25115e-13 
1.37062 -2.61524 -1.30404e-13 
1.56566 -2.59648 2.55827e-15 
1.78043 -2.61529 -6.78127e-14 
2.01566 -2.61287 -7.92971e-14 
2.25752 -2.60723 -7.11897e-14 
2.49059 -2.59489 -6.89535e-14 
2.72396 -2.60807 -7.13596e-14 
2.96086 -2.58931 -4.90234e-14 
3.18298 -2.59157 2.67813e-15 
3.40639 -2.59547 2.22521e-15 
3.62813 -2.58778 1.69546e-15 
3.84272 -2.58992 -2.24356e-15 
4.06394 -2.60026 -2.03893e-15 
4.27727 -2.59118 -1.55471e-15 
4.48988 -2.59326 -1.18758e-15 
4.70073 -2.59046 -8.75101e-16 
4.91123 -2.59042 2.22862e-15 
5.12325 -2.59033 1.43239e-15 
5.34104 -2.59792 8.00649e-16 
5.55836 -2.59187 2.589e-16 
5.78039 -2.59745 -4.79201e-16 
6.00683 -2.59869 -1.16468e-15 
6.22845 -2.58725 -1.88653e-15 
6.4533 -2.59555 9.04855e-16 
6.67988 -2.58939 1.25895e-15 
6.89618 -2.5759 1.70828e-15 
7.13436 -2.61721 2.51963e-15 
7.38063 -2.5955 -1.71097e-15 
7.60919 -2.58925 -1.80926e-15 
7.86267 -2.62581 -2.40565e-15 
8.07349 -2.54538 -1.75463e-15 
8.30064 -2.6175 -7.50738e-16 
8.48528 -2.52741 -7.62557e-11 
-8.48528 -2.34169 7.20452e-12 
-8.24852 -2.34144 -9.96554e-16 
-8.0114 -2.35141 -2.41728e-15 
-7.77517 -2.41814 1.85585e-15 
-7.58473 -2.23689 2.09485e-15 
-7.4965 -2.43231 -1.23953e-15 
-7.216 -2.41488 -2.39954e-15 
-6.99863 -2.35409 -2.95267e-15 
-6.76749 -2.37178 -1.16814e-15 
-6.52461 -2.35537 -1.4778e-15 
-6.28697 -2.37046 2.70655e-15 
-6.06261 -2.34272 1.77085e-15 
-5.84171 -2.34701 9.0664e-16 
-5.61315 -2.35467 -2.04052e-17 
-5.39386 -2.37011 -8.83918e-16 
-5.16721 -2.35868 -1.58594e-15 
-4.94944 -2.37276 -2.491e-15 
-4.72697 -2.36354 1.02858e-15 
-4.50996 -2.37186 1.34388e-15 
-4.29269 -2.36422 1.78071e-15 
-4.07727 -2.36008 2.24326e-15 
-3.86182 -2.35861 2.80959e-15 
-3.64363 -2.35895 -1.86979e-15 
-3.42471 -2.36267 -2.29727e-15 
-3.20104 -2.36359 4.79968e-14 
-2.97377 -2.36802 5.64648e-14 
-2.74462 -2.36264 6.63626e-14 
-2.51277 -2.36079 7.63737e-14 
-2.2649 -2.39115 8.0794e-14 
-2.03489 -2.41333 7.72014e-14 
-1.79789 -2.3207 4.89358e-14 
-1.59341 -2.3372 -2.35442e-15 
-1.40287 -2.39637 -3.09463e-15 
-1.2094 -2.39831 -1.91506e-13 
-1.1014 -2.25096 -5.12726e-13 
-0.796027 -2.18148 1.50973e-13 
-0.807469 -2.59848 1.16129e-12 
-0.496558 -2.72427 -6.09025e-13 
-0.35199 -2.56149 -3.08851e-12 
0.0236056 -2.70143 3.35141e-12 
0.414722 -2.64235 -2.29372e-12 
0.521207 -2.72803 -6.2279e-13 
0.695739 -2.38091 -6.55013e-13 
0.886332 -2.2963 1.55194e-12 
0.980483 -2.44538 1.29873e-13 
1.16024 -2.36398 -1.93436e-15 
1.36621 -2.38646 2.32881e-13 
1.56163 -2.37197 -1.34194e-13 
1.77503 -2.39558 2.74312e-15 
1.9981 -2.39935 -1.12824e-13 
2.23171 -2.39534 -5.9125e-14 
2.46912 -2.36479 -9.11079e-14 
2.69616 -2.37963 -6.13302e-14 
2.92328 -2.36505 -6.05603e-14 
3.15241 -2.35334 -4.91373e-14 
3.37264 -2.36207 2.2764e-15 
3.59185 -2.35657 2.08287e-15 
3.80913 -2.35393 -2.85149e-15 
4.02599 -2.37073 -2.32181e-15 
4.24089 -2.3591 -1.87418e-15 
4.45516 -2.35969 -1.42185e-15 
4.66641 -2.35658 -1.07984e-15 
4.87825 -2.35473 2.75838e-15 
5.08927 -2.35595 1.87026e-15 
5.30446 -2.36565 1.10267e-15 
5.5198 -2.35996 4.42242e-16 
5.73991 -2.36608 -4.19192e-16 
5.96231 -2.37011 -1.29419e-15 
6.18564 -2.3543 -2.14239e-15 
6.41132 -2.35922 1.00687e-15 
6.63355 -2.35652 1.49444e-15 
6.85663 -2.32877 1.91513e-15 
7.07966 -2.3784 2.46929e-15 
7.30775 -2.38212 -1.83031e-15 
7.55018 -2.34795 -2.20245e-15 
7.78426 -2.39596 2.6755e-15 
7.99983 -2.31778 2.43193e-15 
8.24853 -2.35275 -1.91779e-15 
8.48528 -2.29653 -3.90289e-11 
-8.48528 -2.10473 9.50375e-12 
-8.27689 -2.07305 1.48903e-15 
-8.06333 -2.10394 -2.0855e-15 
-7.82557 -2.16208 -1.38527e-15 
-7.54994 -2.03269 -1.24043e-15 
-7.31222 -2.22656 1.97927e-15 
-7.07932 -2.12563 -9.65386e-16 
-6.83435 -2.13587 -1.69585e-15 
-6.60978 -2.14093 -1.73432e-15 
-6.36216 -2.14335 1.94267e-15 
-6.14329 -2.11666 5.84503e-16 
-5.91662 -2.10815 6.79402e-16 
-5.69663 -2.12415 2.51648e-16 
-5.47415 -2.12957 -2.38367e-16 
-5.26203 -2.13894 -5.23434e-16 
-5.03667 -2.13582 -8.08445e-16 
-4.82556 -2.14285 -1.30278e-15 
-4.60529 -2.13863 -1.79966e-15 
-4.39529 -2.13869 -2.34631e-15 
-4.18191 -2.13041 -2.78264e-15 
-3.96928 -2.12668 9.57347e-16 
-3.75541 -2.1271 1.28074e-15 
-3.53992 -2.12743 1.57807e-15 
-3.32304 -2.13181 2.00005e-15 
-3.10046 -2.13569 2.56588e-15 
-2.8779 -2.13445 2.8681e-15 
-2.65005 -2.13 -1.71009e-15 
-2.40797 -2.15314 -2.53921e-15 
-2.17737 -2.164 4.78192e-14 
-1.96207 -2.16686 -2.49421e-15 
-1.71477 -2.08275 3.90324e-16 
-1.50875 -2.12259 1.43587e-17 
-1.32364 -2.19024 1.23409e-13 
-1.19846 -2.05137 -3.26064e-13 
-0.96881 -2.15331 -2.68466e-13 
-0.782601 -1.97866 -6.61287e-13 
-0.729716 -2.39332 -1.68817e-12 
-0.680711 -2.59712 1.48755e-12 
-0.192349 -2.66467 6.11545e-12 
0.177304 -2.66856 -2.28472e-13 
0.503336 -2.46906 5.41441e-13 
0.605235 -2.55988 4.91042e-13 
0.73632 -2.19515 2.19279e-13 
0.903929 -2.08591 1.09787e-12 
1.06789 -2.20632 -3.22399e-13 
1.15997 -2.03296 2.41144e-15 
1.31639 -2.18821 7.41274e-14 
1.52626 -2.14513 5.47251e-14 
1.74762 -2.17588 2.13527e-15 
1.98113 -2.18078 1.69239e-15 
2.21941 -2.17838 -6.37393e-14 
2.46162 -2.1447 2.42816e-15 
2.70239 -2.14826 2.00003e-15 
2.93319 -2.13452 -2.96531e-15 
3.16202 -2.12041 -2.04604e-15 
3.3856 -2.1298 -1.97523e-15 
3.60588 -2.12337 -1.25059e-15 
3.82991 -2.12714 -1.24216e-15 
4.04477 -2.13796 -1.01668e-15 
4.26314 -2.12985 2.48185e-15 
4.47614 -2.12668 2.01423e-15 
4.68993 -2.12459 1.46198e-15 
4.90258 -2.12089 1.03356e-15 
5.11943 -2.12697 6.49475e-16 
5.33255 -2.13142 4.36443e-16 
5.55306 -2.13103 1.38493e-16 
5.77438 -2.13692 -4.00203e-16 
5.99449 -2.13662 -7.77517e-16 
6.22237 -2.1247 -9.65633e-16 
6.44302 -2.12193 -1.73065e-15 
6.66213 -2.11553 -2.60246e-15 
6.89555 -2.09783 -2.44135e-15 
7.11761 -2.14397 1.32076e-15 
7.34918 -2.15313 1.9408e-15 
7.55665 -2.08545 9.70537e-16 
7.76069 -2.15545 1.13975e-15 
7.9812 -2.07955 -1.33793e-15 
8.21283 -2.1294 -2.13964e-15 
8.48528 -2.09733 1.74054e-11 
-8.48528 -1.83164 1.11513e-11 
-8.27446 -1.80307 2.30377e-15 
-7.87349 -1.90728 2.70526e-15 
[...]
POINT_DATA 1978 
VECTORS vectors float
0.00572371 -0.0110212 0.999923 
0.00419414 -0.0373296 0.999295 
0.00125715 -0.042978 0.999076 
-0.00082027 -0.0345071 0.999405 
-0.00072695 -0.023348 0.999728 
0.000714787 -0.0168915 0.999858 
0.00168101 -0.0110247 0.999938 
0.00310445 -0.00755804 0.999967 
0.0034271 -0.00510439 0.999981 
0.00327412 -0.00359328 0.999988 
0.0031047 -0.0027782 0.999992 
0.00366977 -0.00194352 0.999992 
0.00356765 -0.000957765 0.999993 
0.00317436 0.00015146 0.999995 
0.00311106 0.00145437 0.999994 
0.00317702 0.00279944 0.999991 
0.00320729 0.00435553 0.999986 
0.00324764 0.00600954 0.999977 
0.00320837 0.00805455 0.999963 
0.00328215 0.0104655 0.99994 
0.00330492 0.0134563 0.999904 
0.00320985 0.0172172 0.999847 
0.00301941 0.0220065 0.999754 
0.00276083 0.0283049 0.999596 
0.00249733 0.0364196 0.999334 
0.00225963 0.0470507 0.99889 
0.00219841 0.0605983 0.99816 
0.00196625 0.078209 0.996935 
0.000688498 0.102038 0.994781 
0.000765055 0.142269 0.989828 
0.00208127 0.182088 0.98328 
0.00194289 0.226841 0.97393 
0.000773752 0.292691 0.956207 
7.29036e-05 0.364166 0.931334 
0.000510619 0.430114 0.902775 
0.000423411 0.50301 0.86428 
-0.000600465 0.573944 0.818894 
-0.000138619 0.643801 0.765193 
0.000980014 0.928114 0.372296 
-0.000191416 0.996528 -0.0832539 
0.000170365 0.877309 -0.479927 
0.00216829 0.720061 -0.693907 
0.000394302 0.605647 -0.795734 
0.00098843 0.504625 -0.863338 
0.00109985 0.424457 -0.905447 
-0.000437768 0.353602 -0.935396 
-0.00136136 0.281764 -0.959483 
-0.00155108 0.226272 -0.974063 
-0.00155923 0.175235 -0.984525 
-0.00143862 0.135037 -0.99084 
-0.00169333 0.101121 -0.994873 
-0.00164033 0.0781239 -0.996943 
-0.00181802 0.0587256 -0.998273 
-0.0025871 0.0458259 -0.998946 
-0.00238674 0.0356411 -0.999362 
-0.00270641 0.0278559 -0.999609 
-0.00311962 0.022058 -0.999752 
-0.00320018 0.0173091 -0.999845 
-0.00310062 0.0134915 -0.999904 
-0.00318754 0.0103702 -0.999941 
-0.00341812 0.00793376 -0.999963 
-0.00351593 0.00599414 -0.999976 
-0.00357288 0.0043656 -0.999984 
-0.00351167 0.00291284 -0.99999 
-0.00325139 0.00161117 -0.999994 
-0.00310714 0.00035616 -0.999995 
-0.0029224 -0.000812029 -0.999996 
-0.00269107 -0.00178029 -0.999995 
-0.0027747 -0.00273944 -0.999993 
-0.00266519 -0.0039112 -0.999989 
-0.00260076 -0.00566412 -0.999981 
-0.00274783 -0.00834168 -0.999962 
-0.00163488 -0.0120264 -0.999927 
-0.00119992 -0.0178153 -0.999841 
-0.00172963 -0.0245615 -0.999697 
-0.000718897 -0.0327448 -0.999464 
-0.00124398 -0.0430336 -0.999073 
-0.00362243 -0.0384891 -0.999253 
-0.00494788 -0.00847412 -0.999952 
0.00873597 -0.00517735 0.999949 
0.0149312 -0.0295486 0.999452 
0.0184858 -0.0381379 0.999101 
0.0196441 -0.0341945 0.999222 
0.0187595 -0.0252725 0.999505 
0.0202955 -0.0168015 0.999653 
0.0222199 -0.0118011 0.999684 
0.0230038 -0.00795048 0.999704 
0.0247007 -0.00547542 0.99968 
0.0233415 -0.00375707 0.999721 
0.0249926 -0.00250464 0.999685 
0.0250691 -0.00140698 0.999685 
0.0254708 -0.00030978 0.999676 
0.0243625 0.000878589 0.999703 
0.0255955 0.00223306 0.99967 
0.0245263 0.00368425 0.999692 
0.0252952 0.00533502 0.999666 
0.0245901 0.00724681 0.999671 
0.0247833 0.00962709 0.999647 
0.0247267 0.0125194 0.999616 
0.0244896 0.0161204 0.99957 
0.0242033 0.0206844 0.999493 
0.0233144 0.026555 0.999376 
0.0228459 0.0341969 0.999154 
0.0219602 0.0440497 0.998788 
0.0212605 0.0569152 0.998153 
0.0208066 0.073498 0.997078 
0.0201875 0.0953245 0.995242 
0.017003 0.126347 0.99184 
0.0209173 0.169148 0.985369 
0.0229511 0.214042 0.976555 
0.0211107 0.274352 0.961398 
0.023407 0.358391 0.933278 
0.0270493 0.452346 0.891432 
0.0514052 0.474773 0.878606 
0.0764905 0.535247 0.841225 
0.0301266 0.545824 0.837358 
0.00758421 0.703374 0.710779 
0.0251929 0.868632 0.494817 
0.00702207 0.961148 0.275943 
-0.0100616 0.927773 -0.373009 
-0.0309324 0.656069 -0.754067 
-0.055863 0.614944 -0.786589 
-0.0214071 0.563511 -0.825831 
-0.0284698 0.457258 -0.888878 
-0.0280705 0.377798 -0.925462 
-0.0205739 0.303305 -0.952671 
-0.0207535 0.23818 -0.970999 
-0.0187614 0.185361 -0.982491 
-0.0187679 0.141289 -0.989791 
-0.0191434 0.106246 -0.994156 
-0.0202602 0.0805561 -0.996544 
-0.0204673 0.0614808 -0.997899 
-0.0220667 0.0469465 -0.998654 
-0.0225802 0.0367299 -0.99907 
-0.0230526 0.0287278 -0.999322 
-0.0237611 0.0224637 -0.999465 
-0.0241283 0.0175079 -0.999556 
-0.0240905 0.0135082 -0.999619 
-0.0249573 0.0104007 -0.999634 
-0.0250255 0.00790071 -0.999656 
-0.0253378 0.00591412 -0.999662 
-0.02536 0.00423522 -0.999669 
-0.0252986 0.00277908 -0.999676 
-0.0247196 0.00142086 -0.999693 
-0.02501 0.000186 -0.999687 
-0.0245105 -0.000962864 -0.999699 
-0.0243627 -0.00211645 -0.999701 
-0.0247341 -0.00337637 -0.999688 
-0.0238705 -0.00491322 -0.999703 
-0.0238383 -0.0071911 -0.99969 
-0.0239418 -0.0103019 -0.99966 
-0.0208027 -0.0146698 -0.999676 
-0.0216104 -0.0210531 -0.999545 
-0.0207481 -0.0282317 -0.999386 
-0.0183045 -0.0364287 -0.999169 
-0.0194784 -0.0361499 -0.999157 
-0.0128425 -0.0272346 -0.999547 
-0.0091973 -0.00394594 -0.99995 
0.00873186 -0.00432477 0.999953 
0.0184248 -0.0269054 0.999468 
0.0256177 -0.0378542 0.998955 
0.0275568 -0.0345595 0.999023 
0.0302135 -0.0284135 0.99914 
0.0263854 -0.0254382 0.999328 
0.0297659 -0.0173947 0.999406 
0.0328588 -0.0129632 0.999376 
0.0324874 -0.00928738 0.999429 
0.0343556 -0.00608416 0.999391 
0.0338735 -0.00397622 0.999418 
0.0352265 -0.00254145 0.999376 
0.0349936 -0.00121535 0.999387 
0.0352587 -6.95348e-06 0.999378 
0.0347976 0.00117314 0.999394 
0.0353064 0.00255459 0.999373 
0.0349682 0.00400194 0.99938 
0.0352681 0.00572865 0.999362 
0.0348874 0.00776711 0.999361 
0.0348499 0.0103061 0.999339 
0.0345847 0.0134763 0.999311 
0.0341445 0.01745 0.999265 
0.0335388 0.0225422 0.999183 
0.032794 0.0289959 0.999041 
0.0321784 0.0373804 0.998783 
0.0312647 0.048212 0.998348 
0.0306665 0.0622019 0.997592 
0.0303161 0.0806346 0.996283 
0.0294179 0.106662 0.99386 
0.0289383 0.138528 0.989936 
0.0339962 0.179101 0.983243 
0.0377649 0.227803 0.972975 
0.039438 0.285833 0.957468 
0.0444568 0.369371 0.928218 
0.0659828 0.414427 0.907688 
0.111374 0.529189 0.841163 
0.0446826 0.606814 0.793587 
0.0200631 0.757415 0.652625 
0.0510496 0.919807 0.389037 
0.00196377 0.999933 0.0113551 
-0.0462194 0.854712 -0.51704 
-0.0152482 0.79314 -0.608848 
-0.0907154 0.64429 -0.759382 
-0.0716139 0.536455 -0.840885 
-0.0513898 0.486785 -0.872009 
-0.0544537 0.382752 -0.922245 
-0.0395564 0.308826 -0.950296 
-0.0357612 0.243145 -0.969331 
-0.0314197 0.187905 -0.981685 
-0.0300465 0.143909 -0.989135 
-0.029012 0.110879 -0.99341 
-0.0303536 0.0836759 -0.996031 
-0.0302356 0.0650534 -0.997424 
-0.0312121 0.0500101 -0.998261 
-0.0321417 0.0388231 -0.998729 
-0.0325659 0.0305928 -0.999001 
-0.0334196 0.0238366 -0.999157 
-0.0338792 0.0186795 -0.999251 
-0.0341781 0.0144342 -0.999312 
-0.034828 0.0111015 -0.999332 
-0.0350333 0.0084213 -0.999351 
-0.0352156 0.00629099 -0.99936 
-0.0353212 0.00455879 -0.999366 
-0.03539 0.00309889 -0.999369 
-0.035218 0.00175631 -0.999378 
-0.0353817 0.000519095 -0.999374 
-0.0351368 -0.000667912 -0.999382 
-0.0349015 -0.00192585 -0.999389 
-0.0348965 -0.00337883 -0.999385 
-0.0342242 -0.00505297 -0.999401 
-0.0337662 -0.00731614 -0.999403 
-0.0334731 -0.0106173 -0.999383 
-0.0318432 -0.0144739 -0.999388 
-0.0309068 -0.0198625 -0.999325 
-0.0300057 -0.0272932 -0.999177 
-0.0275895 -0.0349841 -0.999007 
-0.0265903 -0.0380586 -0.998922 
-0.0187296 -0.0272331 -0.999454 
-0.00949093 -0.00563621 -0.999939 
0.00691465 -0.00348831 0.99997 
0.015865 -0.027256 0.999503 
0.0224609 -0.0384843 0.999007 
0.0271172 -0.0369715 0.998948 
0.0264433 -0.029154 0.999225 
0.0312447 -0.0204446 0.999303 
0.0303437 -0.0158864 0.999413 
0.0309519 -0.0109672 0.999461 
0.0321938 -0.00758076 0.999453 
0.0327214 -0.0049507 0.999452 
0.0322718 -0.00329323 0.999474 
0.0320822 -0.00161247 0.999484 
0.0325942 -0.000294902 0.999469 
0.0326883 0.000905283 0.999465 
0.032874 0.00210525 0.999457 
0.032712 0.00351333 0.999459 
0.0328121 0.00499362 0.999449 
0.0326638 0.00687989 0.999443 
0.0325455 0.00912744 0.999429 
0.0321883 0.0120241 0.99941 
0.0318197 0.0156013 0.999372 
0.0315434 0.0200688 0.999301 
0.0311413 0.0257226 0.999184 
0.030856 0.0328362 0.998984 
0.0305901 0.0420009 0.998649 
0.0301881 0.053538 0.998109 
0.0301405 0.0686177 0.997188 
0.0310815 0.0893904 0.995512 
0.0323757 0.115199 0.992815 
0.0345987 0.146372 0.988624 
0.0409395 0.190233 0.980885 
0.0485419 0.242309 0.968984 
0.0560751 0.308466 0.949581 
0.0717517 0.349181 0.934304 
0.0890688 0.442311 0.892428 
0.132005 0.477016 0.868925 
0.0784693 0.637354 0.766565 
0.0507096 0.733592 0.677695 
0.0235909 0.981527 0.189863 
-0.0170664 0.972765 -0.231164 
-0.0936639 0.766926 -0.634864 
-0.0546494 0.740913 -0.669374 
-0.113833 0.560803 -0.820087 
-0.0965955 0.466288 -0.879344 
-0.0751347 0.414883 -0.906767 
-0.0717485 0.336496 -0.938948 
-0.0539849 0.30217 -0.951724 
-0.0455134 0.24321 -0.968905 
-0.0377906 0.18907 -0.981236 
-0.0339925 0.144056 -0.988986 
-0.0320148 0.108407 -0.993591 
-0.0307844 0.0825375 -0.996112 
-0.0303475 0.0636538 -0.997511 
-0.0303002 0.0495306 -0.998313 
-0.0302892 0.0386948 -0.998792 
-0.0307921 0.0301332 -0.999072 
-0.0309225 0.0236123 -0.999243 
-0.0317272 0.0183443 -0.999328 
-0.0322303 0.0142482 -0.999379 
-0.0322222 0.0108868 -0.999421 
-0.0323 0.00823734 -0.999444 
-0.0322796 0.00612936 -0.99946 
-0.0323748 0.00446385 -0.999466 
-0.032577 0.00301961 -0.999465 
-0.032742 0.00172598 -0.999462 
-0.0328329 0.000474534 -0.999461 
-0.0329855 -0.000761145 -0.999456 
-0.0328961 -0.00216956 -0.999456 
-0.0324865 -0.0039314 -0.999465 
-0.0319105 -0.0058593 -0.999474 
-0.0312881 -0.00838771 -0.999475 
-0.0302777 -0.012198 -0.999467 
-0.0302869 -0.0162984 -0.999408 
-0.0298952 -0.0222631 -0.999305 
-0.0270196 -0.0291132 -0.999211 
-0.0271703 -0.0354164 -0.999003 
-0.0236427 -0.0400069 -0.99892 
-0.0190266 -0.0300059 -0.999369 
-0.0069791 -0.00575514 -0.999959 
0.0053775 -0.00344807 0.99998 
0.0109121 -0.0268146 0.999581 
0.0200088 -0.0402703 0.998989 
0.0212726 -0.0340209 0.999195 
0.0198051 -0.0259302 0.999468 
0.0259861 -0.0224778 0.99941 
0.0225269 -0.0183244 0.999578 
0.0251849 -0.0134517 0.999592 
0.0251869 -0.00951884 0.999638 
0.0267806 -0.00643281 0.999621 
0.025522 -0.00440358 0.999665 
0.025734 -0.00252835 0.999666 
0.0255695 -0.000809417 0.999673 
0.0259765 0.000449523 0.999663 
0.0258023 0.00161231 0.999666 
0.0264629 0.00282836 0.999646 
0.0259245 0.00421846 0.999655 
0.0262988 0.00578861 0.999637 
0.0258393 0.00776917 0.999636 
0.0257996 0.0102452 0.999615 
0.0254613 0.0133962 0.999586 
0.02532 0.0173328 0.999529 
0.0251801 0.0221987 0.999436 
0.0249853 0.0283074 0.999287 
0.0252052 0.0360094 0.999034 
0.0253448 0.0455726 0.99864 
0.0257466 0.0579742 0.997986 
0.0270655 0.0748794 0.996825 
0.0290703 0.0957232 0.994983 
0.0321933 0.121597 0.992057 
0.0372775 0.155199 0.98718 
0.0490177 0.206287 0.977263 
0.0610914 0.262986 0.962863 
0.0809968 0.314715 0.945724 
0.101974 0.394355 0.913283 
0.147805 0.429364 0.890955 
0.122078 0.634233 0.763443 
0.0958355 0.733593 0.672798 
0.0607669 0.824732 0.56225 
0.0451432 0.975365 0.215926 
-0.0680016 0.905185 -0.419542 
-0.134322 0.69029 -0.710955 
-0.139484 0.506665 -0.850785 
-0.119908 0.424675 -0.89737 
-0.0939398 0.365738 -0.925965 
-0.0777308 0.29574 -0.952101 
-0.0600276 0.262761 -0.962992 
-0.0505868 0.215938 -0.975096 
-0.0422726 0.188909 -0.981084 
-0.0353988 0.147316 -0.988456 
-0.0312453 0.113213 -0.993079 
-0.028321 0.0877395 -0.995741 
-0.0265132 0.0662623 -0.99745 
-0.0257231 0.0525341 -0.998288 
-0.0249266 0.0410594 -0.998846 
-0.0249819 0.0318517 -0.99918 
-0.0249186 0.0251526 -0.999373 
-0.0253889 0.0195177 -0.999487 
-0.0256891 0.0151724 -0.999555 
-0.0258223 0.0117063 -0.999598 
-0.0256002 0.00881251 -0.999633 
-0.0255742 0.00659319 -0.999651 
-0.0255087 0.00487178 -0.999663 
-0.0258085 0.00344981 -0.999661 
-0.0258321 0.00216891 -0.999664 
-0.0261672 0.000959544 -0.999657 
-0.0263761 -0.000299428 -0.999652 
-0.0262719 -0.00172885 -0.999653 
-0.02614 -0.00351674 -0.999652 
-0.0255061 -0.00562688 -0.999659 
-0.0248878 -0.00811082 -0.999657 
-0.0245155 -0.0114857 -0.999634 
-0.0240413 -0.0160868 -0.999582 
-0.0239802 -0.0211618 -0.999489 
-0.0215621 -0.0291437 -0.999343 
-0.0208601 -0.0373776 -0.999084 
-0.0173889 -0.039708 -0.99906 
-0.0131296 -0.0270007 -0.999549 
-0.00565051 -0.00551479 -0.999969 
0.0043737 -0.00441571 0.999981 
0.00800321 -0.0276856 0.999585 
0.0159515 -0.0384027 0.999135 
0.0145244 -0.0413336 0.99904 
0.0161101 -0.0343634 0.99928 
0.016678 -0.0227266 0.999603 
0.0183192 -0.0161959 0.999701 
0.0193932 -0.0122535 0.999737 
0.0198039 -0.0082718 0.99977 
0.0197111 -0.00582639 0.999789 
0.0193091 -0.00356687 0.999807 
0.0196271 -0.00161778 0.999806 
0.0193998 -4.69302e-05 0.999812 
0.0194957 0.00114041 0.999809 
0.0196395 0.0023373 0.999804 
0.0198573 0.0035048 0.999797 
0.019722 0.00492632 0.999793 
0.0197681 0.00661533 0.999783 
0.0194697 0.00887877 0.999771 
0.0194896 0.011672 0.999742 
0.0194019 0.0152505 0.999696 
0.0193476 0.0196686 0.999619 
0.0193762 0.0251372 0.999496 
0.0196896 0.0321134 0.99929 
0.0200777 0.0406146 0.998973 
0.0208386 0.0515304 0.998454 
0.0225403 0.0662595 0.997548 
0.0248934 0.0845574 0.996108 
0.0285012 0.107423 0.993805 
0.0343499 0.136238 0.99008 
0.0433951 0.173209 0.983929 
0.0641677 0.23944 0.968789 
0.0855326 0.285885 0.954439 
0.0970185 0.285946 0.953322 
0.111589 0.354845 0.928242 
0.127565 0.34755 0.928944 
0.163971 0.57862 0.798944 
0.151183 0.727357 0.669399 
0.103062 0.923121 0.37044 
-0.0193458 0.992433 -0.121255 
-0.127822 0.819651 -0.558421 
-0.162627 0.60696 -0.777915 
-0.159507 0.46614 -0.870213 
-0.137069 0.386133 -0.912203 
-0.108859 0.343553 -0.932803 
-0.0861262 0.280564 -0.955964 
-0.0643127 0.236974 -0.969385 
-0.0480886 0.189543 -0.980694 
-0.0380156 0.155301 -0.987136 
-0.0316438 0.124055 -0.991771 
-0.0271612 0.098225 -0.994794 
-0.0241484 0.0763158 -0.996791 
-0.021441 0.0602873 -0.997951 
-0.0205823 0.0481347 -0.998629 
-0.0197915 0.0374932 -0.999101 
-0.0191575 0.0297928 -0.999373 
-0.0194817 0.0233229 -0.999538 
-0.0195708 0.0182619 -0.999642 
-0.0196195 0.0142345 -0.999706 
-0.0197259 0.0109182 -0.999746 
-0.0193985 0.00821677 -0.999778 
-0.0192836 0.00613512 -0.999795 
-0.0193255 0.00450021 -0.999803 
-0.0194886 0.00321798 -0.999805 
-0.019439 0.00204351 -0.999809 
-0.0198699 0.0008241 -0.999802 
-0.0199225 -0.000462852 -0.999801 
-0.0198727 -0.00201967 -0.999801 
-0.0198042 -0.00403914 -0.999796 
-0.0190346 -0.00635466 -0.999799 
-0.0185604 -0.00912127 -0.999786 
-0.0188951 -0.0131111 -0.999736 
-0.017948 -0.0178855 -0.999679 
-0.0180926 -0.0234987 -0.99956 
-0.0157648 -0.0309823 -0.999396 
-0.0162478 -0.0379623 -0.999147 
-0.013406 -0.0421125 -0.999023 
-0.0106719 -0.0305858 -0.999475 
-0.00402891 -0.00610241 -0.999973 
0.00297709 -0.00535773 0.999981 
0.00594113 -0.0296166 0.999544 
0.0112553 -0.0405915 0.999112 
0.0107681 -0.0399025 0.999146 
0.0135681 -0.030346 0.999447 
0.0116194 -0.0243816 0.999635 
0.0136322 -0.0182731 0.99974 
0.0136697 -0.0133162 0.999818 
0.0150408 -0.00969622 0.99984 
0.0142583 -0.0067009 0.999876 
0.0146627 -0.00438025 0.999883 
0.0145187 -0.00206777 0.999893 
0.014502 -0.000403687 0.999895 
0.0141744 0.000940743 0.999899 
0.0144772 0.00206442 0.999893 
0.014378 0.00315865 0.999892 
0.0147103 0.00429146 0.999883 
0.0143944 0.00580269 0.99988 
0.0144539 0.00772893 0.999866 
0.0143512 0.0102862 0.999844 
0.0145182 0.0134284 0.999804 
0.0145221 0.0173536 0.999744 
0.0146463 0.0221716 0.999647 
0.0150884 0.0282856 0.999486 
0.0155513 0.0357316 0.99924 
0.0164117 0.0451066 0.998847 
0.0180394 0.0575133 0.998182 
0.0203172 0.0727945 0.99714 
0.0237169 0.0920084 0.995476 
0.0289677 0.116526 0.992765 
0.0374582 0.147325 0.988379 
0.0519805 0.193368 0.979748 
0.0692862 0.231259 0.970422 
0.0786456 0.242404 0.966983 
0.114438 0.300864 0.946776 
0.164334 0.398104 0.902501 
0.190402 0.506648 0.840865 
0.201972 0.68201 0.7029 
0.095779 0.843888 0.527901 
-0.0315046 0.990852 -0.131223 
-0.181452 0.750234 -0.635786 
-0.193648 0.566384 -0.801067 
-0.202558 0.505207 -0.83889 
-0.156321 0.388446 -0.908115 
-0.108747 0.305517 -0.945956 
-0.0811067 0.250862 -0.964619 
-0.0637904 0.218311 -0.973792 
-0.049439 0.184685 -0.981554 
-0.037041 0.147912 -0.988307 
-0.0298812 0.120111 -0.992311 
-0.0245731 0.0966121 -0.995019 
-0.0215635 0.0784944 -0.996681 
-0.0181844 0.0620515 -0.997907 
-0.0164404 0.0489721 -0.998665 
-0.0158892 0.0392107 -0.999105 
-0.0147334 0.0307911 -0.999417 
-0.0148692 0.0243565 -0.999593 
-0.0147895 0.0190874 -0.999708 
-0.0146439 0.0148272 -0.999783 
-0.0146275 0.0113549 -0.999829 
-0.0144458 0.00859857 -0.999859 
-0.014185 0.0063738 -0.999879 
-0.0143019 0.00471141 -0.999887 
-0.0142671 0.00343989 -0.999892 
-0.014262 0.00235247 -0.999896 
-0.0145851 0.00116935 -0.999893 
-0.0146681 -9.71942e-05 -0.999892 
-0.0147091 -0.00163611 -0.999891 
-0.0148041 -0.0037096 -0.999884 
-0.0142536 -0.00615288 -0.99988 
-0.0138321 -0.00901299 -0.999864 
-0.0142646 -0.0128179 -0.999816 
-0.0133753 -0.017718 -0.999754 
-0.0132741 -0.0237565 -0.99963 
-0.0115744 -0.031805 -0.999427 
-0.0113392 -0.0399068 -0.999139 
-0.00929835 -0.0424242 -0.999056 
-0.00753071 -0.0300937 -0.999519 
-0.00280362 -0.00562933 -0.99998 
0.00201946 -0.00660534 0.999976 
0.0040444 -0.0298163 0.999547 
0.00847422 -0.043595 0.999013 
0.0075062 -0.0409222 0.999134 
0.00974351 -0.0331802 0.999402 
0.00880787 -0.0246945 0.999656 
0.0101788 -0.017973 0.999787 
0.0101039 -0.0130752 0.999864 
0.010848 -0.00921466 0.999899 
0.00993138 -0.00629175 0.999931 
0.0106936 -0.0037091 0.999936 
0.0102415 -0.00149756 0.999947 
0.0102612 0.000103683 0.999947 
0.00983124 0.00137707 0.999951 
0.0100677 0.00242234 0.999946 
0.00992369 0.00340369 0.999945 
0.0102831 0.00453298 0.999937 
0.00989125 0.0060263 0.999933 
0.0101287 0.00811382 0.999916 
0.0100772 0.0107863 0.999891 
0.0103126 0.0140743 0.999848 
0.0104276 0.0181071 0.999782 
0.0108293 0.0232113 0.999672 
0.0113395 0.0293916 0.999504 
0.0121505 0.0371952 0.999234 
0.0134819 0.0471887 0.998795 
0.0153436 0.0595139 0.99811 
0.0181551 0.0751332 0.997008 
0.0221682 0.0944579 0.995282 
0.0281451 0.11845 0.992561 
0.039444 0.153084 0.987426 
0.0528421 0.1887 0.980612 
0.0555898 0.195521 0.979123 
0.0789365 0.244337 0.966472 
0.107383 0.293005 0.950062 
0.157318 0.357093 0.920725 
0.210568 0.471053 0.856604 
0.254705 0.591911 0.764701 
0.18486 0.832909 0.521622 
0.0330563 0.994761 0.0967323 
-0.107521 0.933643 -0.341686 
-0.238143 0.668294 -0.704749 
-0.212205 0.464903 -0.859554 
-0.152377 0.353923 -0.922779 
-0.106696 0.289877 -0.951098 
-0.0731199 0.235872 -0.96903 
-0.0574193 0.201464 -0.977812 
-0.045052 0.17107 -0.984228 
-0.0361304 0.145054 -0.988764 
-0.0273623 0.115373 -0.992945 
-0.0213243 0.0914492 -0.995581 
-0.0176217 0.0728276 -0.997189 
-0.0144076 0.057198 -0.998259 
-0.0126069 0.0455628 -0.998882 
-0.0119933 0.0365994 -0.999258 
-0.0109551 0.028719 -0.999528 
-0.0109205 0.0227421 -0.999682 
-0.0106314 0.0178622 -0.999784 
-0.0104439 0.0138387 -0.99985 
-0.0102619 0.0106256 -0.999891 
-0.0101347 0.0080086 -0.999917 
-0.00988763 0.00591249 -0.999934 
-0.0100121 0.00438941 -0.99994 
-0.00983691 0.00328489 -0.999946 
-0.0100015 0.00227883 -0.999947 
-0.0102073 0.00117721 -0.999947 
-0.0103199 -0.000112093 -0.999947 
-0.0104267 -0.00174157 -0.999944 
-0.0104635 -0.0038773 -0.999938 
-0.0102088 -0.00658405 -0.999926 
-0.0101658 -0.00985143 -0.9999 
-0.0104165 -0.0137714 -0.999851 
-0.00963225 -0.0186495 -0.99978 
-0.00989488 -0.0243057 -0.999656 
-0.0086189 -0.0322186 -0.999444 
-0.00831092 -0.0406598 -0.999139 
-0.00674397 -0.0432227 -0.999043 
-0.00503049 -0.0289128 -0.999569 
-0.0022127 -0.00589681 -0.99998 
0.00144047 -0.00684203 0.999975 
0.00295794 -0.0321147 0.99948 
0.00597083 -0.0431827 0.999049 
0.00530074 -0.0414995 0.999125 
0.00719178 -0.0328055 0.999436 
0.00630655 -0.0251806 0.999663 