# vtk DataFile Version 3.0 
Exported using Morpho https://github.com/Morpho-lang/morpho 
ASCII 
DATASET UNSTRUCTURED_GRID 

POINTS 1978 float 
-8.4853 -2.82845 -2.03551e-08 
-8.26527 -2.82842 2.71777e-08 
-8.04254 -2.82841 8.95602e-08 
-7.79222 -2.82842 9.75642e-08 
-7.48656 -2.82844 5.4977e-08 
-7.2424 -2.82844 4.57685e-08 
-6.98632 -2.8284 1.63207e-08 
-6.76721 -2.82844 8.26039e-09 
-6.55809 -2.82842 1.19063e-08 
-6.36008 -2.82843 1.94408e-09 
-6.13871 -2.82842 7.9094e-09 
-5.93587 -2.82843 3.86545e-09 
-5.72907 -2.82842 -2.12915e-09 
-5.52565 -2.82843 -4.01638e-09 
-5.30356 -2.82842 -2.32435e-09 
-5.09895 -2.82842 -1.17488e-08 
-4.88075 -2.82842 -1.12509e-08 
-4.67503 -2.82842 -1.51446e-08 
-4.46115 -2.82842 -1.99624e-08 
-4.25151 -2.82843 -2.48113e-08 
-4.04306 -2.82843 -3.19481e-08 
-3.83374 -2.82843 -3.56548e-08 
-3.62447 -2.82843 -4.73096e-08 
-3.409 -2.82843 -5.55815e-08 
-3.19275 -2.82843 -7.00512e-08 
-2.97081 -2.82843 -8.30094e-08 
-2.74741 -2.82843 -9.43728e-08 
-2.52637 -2.82843 -1.219e-07 
-2.30092 -2.82843 -1.57015e-07 
-2.02333 -2.82843 -1.7634e-07 
-1.821 -2.82843 -1.72611e-07 
-1.63779 -2.82842 -1.00687e-07 
-1.44385 -2.82843 -1.16414e-08 
-1.26977 -2.82842 3.4412e-07 
-1.12642 -2.82845 -4.17095e-08 
-0.988178 -2.82839 9.82526e-07 
-0.85844 -2.82845 1.97792e-06 
-0.733347 -2.82839 7.62572e-06 
-0.274382 -2.8283 2.33337e-05 
0.0603947 -2.82834 -1.02587e-05 
0.373507 -2.82834 -1.38364e-05 
0.61841 -2.82838 -5.88377e-06 
0.780685 -2.82844 -2.82458e-06 
0.961639 -2.82841 -1.22665e-06 
1.11107 -2.82843 -2.14321e-07 
1.25466 -2.82842 -2.93343e-07 
1.44428 -2.82843 1.07325e-07 
1.63047 -2.82842 1.50549e-07 
1.84511 -2.82844 1.90054e-07 
2.0684 -2.82843 1.82772e-07 
2.29731 -2.82844 1.31384e-07 
2.52029 -2.82842 1.20868e-07 
2.75839 -2.82843 9.43476e-08 
2.97651 -2.82843 8.40401e-08 
3.19545 -2.82842 6.89224e-08 
3.41637 -2.82843 4.90057e-08 
3.63011 -2.82842 4.98552e-08 
3.83873 -2.82843 3.85113e-08 
4.04739 -2.82842 3.00541e-08 
4.26375 -2.82842 2.72e-08 
4.47011 -2.82843 1.83713e-08 
4.67763 -2.82842 1.49968e-08 
4.88233 -2.82842 1.02296e-08 
5.08772 -2.82842 7.73437e-09 
5.2941 -2.82842 8.36396e-09 
5.50952 -2.82842 -1.85928e-09 
5.7213 -2.82842 5.89243e-09 
5.94059 -2.82842 -3.13916e-09 
6.16343 -2.82842 -4.19416e-09 
6.37809 -2.82842 -4.85935e-09 
6.60273 -2.82842 -1.5218e-08 
6.82397 -2.82843 -1.22424e-08 
7.03564 -2.82842 -2.73527e-08 
7.29326 -2.82842 -2.97365e-08 
7.52531 -2.82843 -3.97234e-08 
7.75418 -2.82843 -6.54239e-08 
8.02597 -2.82842 -1.09417e-07 
8.22061 -2.82842 -2.0185e-08 
8.4853 -2.82844 2.88312e-08 
-8.48528 -2.58646 -2.41506e-08 
-8.26287 -2.58038 1.27692e-08 
-8.03258 -2.58572 4.37235e-08 
-7.78901 -2.60861 1.75901e-08 
-7.52938 -2.65501 7.0499e-10 
-7.2377 -2.62256 -9.19974e-09 
-6.98471 -2.59728 8.4291e-10 
-6.74521 -2.59233 -2.81362e-09 
-6.52481 -2.57416 -4.64155e-09 
-6.2976 -2.60409 1.48704e-09 
-6.07126 -2.58148 -8.65793e-10 
-5.85239 -2.58694 2.3061e-10 
-5.63537 -2.58158 1.12862e-09 
-5.41638 -2.6026 4.59118e-10 
-5.19727 -2.58474 8.18455e-10 
-4.98154 -2.60249 -5.7169e-10 
-4.76486 -2.59007 1.07427e-09 
-4.55131 -2.60006 -1.53674e-10 
-4.33503 -2.59516 7.19337e-10 
-4.12196 -2.59264 1.79875e-09 
-3.90954 -2.59197 3.08928e-09 
-3.69673 -2.58991 5.31105e-09 
-3.48164 -2.59488 1.11403e-09 
-3.26292 -2.59352 2.8284e-09 
-3.04157 -2.59671 -2.91829e-09 
-2.81576 -2.59605 -5.15209e-09 
-2.59081 -2.59212 -1.11585e-09 
-2.36596 -2.59692 1.47461e-08 
-2.12723 -2.64208 -5.61399e-08 
-1.87876 -2.5759 -1.94997e-09 
-1.67418 -2.56545 1.59339e-07 
-1.47144 -2.61172 -9.39096e-08 
-1.2626 -2.62098 -3.79333e-08 
-1.07172 -2.6109 -6.85365e-08 
-0.993838 -2.45496 -7.26411e-09 
-0.861057 -2.35427 -6.12417e-07 
-0.901743 -2.62494 -6.23745e-07 
-0.650405 -2.77717 -5.79297e-06 
-0.380657 -2.71425 5.96601e-06 
-0.194162 -2.763 -7.86131e-06 
0.279643 -2.75846 1.26572e-06 
0.691402 -2.67205 -9.17789e-07 
0.751256 -2.50816 -6.93063e-07 
0.863725 -2.6649 8.92624e-07 
1.0384 -2.60323 -1.15017e-07 
1.19308 -2.57008 5.40876e-08 
1.37519 -2.62009 -5.43766e-08 
1.58267 -2.59207 1.13739e-08 
1.79736 -2.61514 -5.89709e-11 
2.02645 -2.61235 7.3407e-09 
2.26657 -2.61082 1.49703e-08 
2.49964 -2.59381 7.8706e-09 
2.73281 -2.60852 1.29242e-08 
2.96935 -2.58764 -3.77026e-09 
3.18651 -2.59151 -3.80973e-09 
3.40895 -2.59584 4.18603e-09 
3.62719 -2.59054 -5.62463e-09 
3.84283 -2.58812 -3.84109e-10 
4.06312 -2.59897 5.43034e-10 
4.27573 -2.58999 -2.7786e-09 
4.48876 -2.59292 -1.53055e-09 
4.69935 -2.58999 -1.35967e-09 
4.91011 -2.59004 -8.91566e-10 
5.12203 -2.58963 -1.97388e-10 
5.34059 -2.59793 3.62341e-11 
5.55812 -2.59115 -6.2254e-10 
5.78047 -2.59685 5.96066e-12 
6.00747 -2.598 -5.13315e-10 
6.22948 -2.58642 7.49074e-10 
6.4547 -2.59528 1.69817e-09 
6.68194 -2.58943 2.29073e-09 
6.89759 -2.57574 7.88557e-09 
7.13561 -2.61767 -6.1217e-09 
7.38165 -2.5933 -3.12019e-09 
7.6103 -2.58956 -8.63799e-09 
7.86334 -2.62636 -5.49577e-08 
8.0736 -2.54543 -4.49245e-09 
8.3008 -2.6169 -3.92305e-08 
8.48528 -2.52747 3.30225e-08 
-8.48528 -2.34159 2.63261e-09 
-8.2497 -2.34058 -7.7214e-08 
-8.01757 -2.34413 -3.84408e-08 
-7.77571 -2.39459 -4.97173e-08 
-7.56126 -2.25059 -5.48735e-08 
-7.49723 -2.45792 -2.30844e-08 
-7.21973 -2.4204 -4.34258e-08 
-6.99179 -2.34026 -4.25861e-08 
-6.77116 -2.36672 -2.11325e-08 
-6.52396 -2.35725 -2.35922e-08 
-6.28073 -2.37403 -1.21707e-08 
-6.05861 -2.3413 -7.78027e-09 
-5.83894 -2.34776 -4.10798e-09 
-5.61208 -2.35191 -4.80135e-11 
-5.39066 -2.36945 4.06843e-09 
-5.1654 -2.356 7.12295e-09 
-4.94868 -2.37243 1.12952e-08 
-4.72754 -2.36171 1.62498e-08 
-4.51068 -2.37199 2.14776e-08 
-4.29359 -2.36366 2.83741e-08 
-4.07779 -2.35961 3.59318e-08 
-3.86229 -2.35754 4.47706e-08 
-3.64278 -2.35819 5.55312e-08 
-3.42342 -2.3626 6.82633e-08 
-3.19934 -2.36312 8.66988e-08 
-2.97162 -2.36787 1.03072e-07 
-2.74391 -2.3627 1.21658e-07 
-2.51375 -2.3608 1.42156e-07 
-2.27028 -2.39325 1.56905e-07 
-2.04658 -2.41191 1.37522e-07 
-1.81861 -2.31791 8.8676e-08 
-1.60968 -2.32937 1.7643e-08 
-1.41653 -2.39397 5.78162e-08 
-1.20878 -2.42206 -3.1995e-07 
-1.07771 -2.28132 -1.374e-07 
-0.793666 -2.18187 -1.16853e-07 
-0.793135 -2.58511 6.88334e-07 
-0.566837 -2.72754 -4.34383e-06 
-0.290165 -2.58721 4.62887e-06 
-0.00636918 -2.73381 6.91243e-06 
0.398304 -2.6231 -3.52599e-06 
0.504319 -2.72666 1.98262e-07 
0.656929 -2.37956 3.94771e-07 
0.849397 -2.36297 9.32695e-07 
0.961996 -2.44708 2.3509e-07 
1.15152 -2.33486 2.25718e-07 
1.34205 -2.39879 3.42902e-08 
1.54424 -2.37492 -9.02059e-08 
1.77172 -2.39742 -1.28823e-07 
1.99907 -2.39371 -1.6796e-07 
2.22947 -2.40156 -1.22203e-07 
2.46588 -2.36472 -1.68858e-07 
2.69588 -2.38169 -1.14169e-07 
2.92466 -2.36472 -1.11536e-07 
3.15238 -2.34867 -8.93163e-08 
3.36929 -2.36587 -6.93694e-08 
3.59005 -2.35413 -6.19317e-08 
3.80479 -2.356 -4.57563e-08 
4.02417 -2.36941 -3.74558e-08 
4.23995 -2.35715 -2.98751e-08 
4.45481 -2.35942 -2.27926e-08 
4.66646 -2.35543 -1.71766e-08 
4.87773 -2.35464 -1.26214e-08 
5.08903 -2.35459 -8.48012e-09 
5.3039 -2.36607 -5.07096e-09 
5.5193 -2.359 -2.02196e-09 
5.73943 -2.36509 1.8929e-09 
5.96181 -2.36934 5.87034e-09 
6.18537 -2.35303 9.74892e-09 
6.41117 -2.35851 1.60959e-08 
6.63336 -2.35728 2.39602e-08 
6.85611 -2.32725 3.06685e-08 
7.07781 -2.37778 3.88785e-08 
7.30511 -2.3811 5.29634e-08 
7.55015 -2.34794 6.56441e-08 
7.78428 -2.39656 4.29e-08 
7.99962 -2.3181 3.89156e-08 
8.2482 -2.35186 6.48348e-08 
8.48528 -2.2965 1.70227e-08 
-8.48527 -2.10485 1.53695e-09 
-8.26329 -2.08561 -3.64305e-08 
-8.04882 -2.09266 6.23157e-09 
-7.81707 -2.15706 -2.38037e-08 
-7.55316 -2.04417 -2.08352e-08 
-7.30079 -2.22718 -4.60668e-08 
-7.08643 -2.12263 -1.85597e-08 
-6.82782 -2.12514 -1.27558e-08 
-6.60563 -2.14426 -1.32158e-08 
-6.35632 -2.14711 -8.28263e-09 
-6.14108 -2.115 -2.93315e-09 
-5.91314 -2.10656 -2.96382e-09 
-5.69502 -2.12171 -1.22376e-09 
-5.47211 -2.12898 1.05707e-09 
-5.26119 -2.13733 2.28838e-09 
-5.03502 -2.13515 3.72591e-09 
-4.82517 -2.14163 5.88412e-09 
-4.6042 -2.1386 8.2759e-09 
-4.39497 -2.13847 1.06702e-08 
-4.1814 -2.13023 1.27163e-08 
-3.96896 -2.12556 1.54828e-08 
-3.75441 -2.1276 2.04027e-08 
-3.53809 -2.1272 2.56859e-08 
-3.32168 -2.13181 3.19915e-08 
-3.0988 -2.13649 4.12318e-08 
-2.87718 -2.13404 4.62789e-08 
-2.65102 -2.1311 5.0426e-08 
-2.41133 -2.15277 7.53964e-08 
-2.18566 -2.16381 8.56521e-08 
-1.97428 -2.15988 7.02974e-08 
-1.72506 -2.07603 -4.08838e-10 
-1.5135 -2.11339 -2.12373e-08 
-1.31901 -2.19881 1.55192e-07 
-1.18384 -2.09281 -3.32336e-07 
-0.970775 -2.15146 -7.12105e-07 
-0.79629 -1.98271 -8.15419e-07 
-0.71329 -2.43664 -5.54972e-07 
-0.603843 -2.59527 -3.23359e-07 
-0.128449 -2.65143 5.79979e-06 
0.172675 -2.70198 -7.30276e-06 
0.485883 -2.45092 5.0491e-07 
0.568923 -2.56948 6.98744e-08 
0.729622 -2.21299 4.53297e-07 
0.89594 -2.13601 9.75991e-07 
1.03856 -2.1999 1.50331e-07 
1.17763 -2.04572 1.64742e-07 
1.32264 -2.17392 4.46475e-08 
1.51135 -2.15472 6.53843e-08 
1.74228 -2.18685 -5.19854e-08 
1.98268 -2.17982 -6.47158e-08 
2.22893 -2.18243 -1.06192e-07 
2.47212 -2.14059 -6.61744e-08 
2.70669 -2.1538 -5.73178e-08 
2.93642 -2.13375 -4.64834e-08 
3.16392 -2.11762 -3.33752e-08 
3.38742 -2.13339 -3.01742e-08 
3.60666 -2.1186 -2.15066e-08 
3.82909 -2.13051 -1.99222e-08 
4.04497 -2.13799 -1.62721e-08 
4.26396 -2.12831 -1.13497e-08 
4.4768 -2.12635 -9.12921e-09 
4.68955 -2.12273 -6.80045e-09 
4.90209 -2.12132 -4.67135e-09 
5.11943 -2.12586 -2.95975e-09 
5.33191 -2.13182 -1.97965e-09 
5.55272 -2.13035 -6.14489e-10 
5.77423 -2.1361 1.81508e-09 
5.99461 -2.1361 3.49917e-09 
6.22307 -2.12363 4.39675e-09 
6.444 -2.12149 7.93192e-09 
6.66207 -2.11581 1.15371e-08 
6.89752 -2.09737 1.14586e-08 
7.11953 -2.14275 2.15586e-08 
7.35266 -2.15437 3.19954e-08 
7.55903 -2.08367 1.68225e-08 
7.76086 -2.15652 1.79164e-08 
7.97887 -2.07907 -2.2029e-08 
8.21061 -2.12833 4.36693e-08 
8.48528 -2.09738 -1.41545e-08 
-8.48529 -1.83156 -4.01784e-10 
-8.28932 -1.83445 -1.12278e-08 
-7.87155 -1.89913 4.18555e-08 
-7.66697 -1.88509 8.6398e-09 
[...]
POINT_DATA 1978 
VECTORS vectors float
0.011874 -0.0188706 0.999711 
0.0180463 -0.0373518 0.999162 
0.0146229 -0.0429922 0.999002 
0.013181 -0.0345076 0.999391 
0.0128526 -0.0233469 0.999743 
0.0140986 -0.0168924 0.999803 
0.0154934 -0.0110231 0.99985 
0.0159982 -0.00755591 0.999869 
0.0156011 -0.00510223 0.999876 
0.0159888 -0.00359182 0.999877 
0.0161157 -0.00277819 0.999879 
0.0163904 -0.00194385 0.99988 
0.0163236 -0.000958111 0.999883 
0.0164589 0.00015112 0.999886 
0.0164056 0.00145409 0.999885 
0.0162889 0.00279903 0.999881 
0.0163502 0.004355 0.999876 
0.0161875 0.00600874 0.999868 
0.0162598 0.0080535 0.999854 
0.0160569 0.0104642 0.999833 
0.0159658 0.0134544 0.999799 
0.0157412 0.0172148 0.999744 
0.0155703 0.0220035 0.999655 
0.0152764 0.0283015 0.999504 
0.0148705 0.0364156 0.999249 
0.0144398 0.0470462 0.998814 
0.0137751 0.0605928 0.998091 
0.012735 0.0782031 0.996879 
0.0115274 0.102034 0.994751 
0.00966198 0.142266 0.989809 
0.0078998 0.182087 0.983257 
0.00620945 0.226837 0.973918 
0.00305279 0.292703 0.956202 
0.000833212 0.364169 0.931334 
0.0010189 0.430102 0.902778 
0.000644599 0.503002 0.864289 
-0.00123846 0.573935 0.818897 
-0.00373262 0.643858 0.765144 
-0.00261304 0.928233 0.372112 
0.000359307 0.99652 -0.0833348 
0.00412204 0.877308 -0.479915 
0.00629469 0.720092 -0.69387 
0.00232043 0.605636 -0.795743 
0.00248611 0.504623 -0.863337 
0.00195236 0.424463 -0.905444 
-0.00137444 0.353595 -0.9354 
-0.00441641 0.281764 -0.959477 
-0.00664223 0.226269 -0.974048 
-0.00877771 0.17523 -0.9845 
-0.0102153 0.135034 -0.990807 
-0.0116435 0.101112 -0.994827 
-0.012813 0.0781202 -0.996896 
-0.0136477 0.0587197 -0.998201 
-0.0146042 0.0458221 -0.998879 
-0.0148045 0.0356368 -0.999274 
-0.0153432 0.0278524 -0.999508 
-0.0156259 0.0220554 -0.999661 
-0.0156598 0.017307 -0.999743 
-0.0159907 0.0134898 -0.999801 
-0.0161173 0.0103688 -0.999834 
-0.0161015 0.00793253 -0.999853 
-0.0162012 0.00599335 -0.999864 
-0.0162155 0.004365 -0.999872 
-0.016231 0.00291244 -0.999878 
-0.0163533 0.00161095 -0.999883 
-0.016413 0.000355904 -0.999885 
-0.0163396 -0.000812308 -0.999888 
-0.016527 -0.00178014 -0.999888 
-0.016406 -0.00273889 -0.999886 
-0.0162645 -0.0039099 -0.999885 
-0.0163291 -0.00566242 -0.999878 
-0.0156785 -0.00833985 -0.999863 
-0.0152989 -0.0120243 -0.999849 
-0.0152683 -0.0178128 -0.999772 
-0.0145145 -0.0245587 -0.999624 
-0.0144193 -0.0327441 -0.999409 
-0.0144576 -0.0430489 -0.999002 
-0.0179996 -0.0385094 -0.999129 
-0.012632 -0.0179338 -0.999718 
0.00930248 -0.0220153 0.999674 
0.0149282 -0.0295457 0.999473 
0.0184872 -0.0381555 0.999099 
0.0196451 -0.0342021 0.999224 
0.0187612 -0.0252726 0.999537 
0.0202911 -0.0167985 0.999671 
0.0222177 -0.0118008 0.99969 
0.0230005 -0.00794854 0.999712 
0.0247045 -0.00547458 0.999684 
0.0233375 -0.00375701 0.999728 
0.0249937 -0.00250445 0.99969 
0.0250702 -0.00140704 0.999689 
0.0254725 -0.000309949 0.999682 
0.0243609 0.000878371 0.99971 
0.0255981 0.00223299 0.999675 
0.0245252 0.00368426 0.999699 
0.0252969 0.00533496 0.999671 
0.0245896 0.00724667 0.999678 
0.024784 0.00962699 0.999652 
0.0247277 0.0125192 0.999622 
0.0244909 0.0161201 0.999576 
0.024205 0.0206839 0.999499 
0.0233142 0.0265545 0.999382 
0.0228462 0.0341963 0.99916 
0.0219593 0.0440492 0.998795 
0.0212594 0.0569145 0.99816 
0.0208057 0.0734962 0.997085 
0.0201879 0.0953214 0.99525 
0.0169971 0.126343 0.991852 
0.0209157 0.169139 0.985377 
0.0229581 0.214024 0.976565 
0.021111 0.274312 0.961412 
0.0234032 0.358389 0.933276 
0.0270401 0.452408 0.891409 
0.0513939 0.474695 0.878663 
0.0764995 0.535278 0.841203 
0.030137 0.545914 0.837297 
0.00755809 0.703382 0.710734 
0.0251784 0.868564 0.494992 
0.00701085 0.961129 0.276036 
-0.0100631 0.92773 -0.373068 
-0.0309666 0.65597 -0.754233 
-0.0558806 0.615028 -0.78651 
-0.0213646 0.563552 -0.825809 
-0.0285061 0.457222 -0.888897 
-0.0280526 0.377801 -0.925465 
-0.0205767 0.303275 -0.952686 
-0.0207514 0.238181 -0.971006 
-0.0187596 0.185358 -0.982499 
-0.0187658 0.141288 -0.989798 
-0.0191407 0.106245 -0.994165 
-0.0202582 0.0805523 -0.996552 
-0.0204655 0.0614793 -0.997917 
-0.0220657 0.0469444 -0.998653 
-0.0225804 0.0367288 -0.999076 
-0.0230531 0.0287279 -0.999337 
-0.0237613 0.0224637 -0.999464 
-0.0241289 0.0175074 -0.999562 
-0.02409 0.0135081 -0.999625 
-0.0249588 0.0104005 -0.99964 
-0.0250266 0.00790053 -0.999661 
-0.0253397 0.00591408 -0.999666 
-0.0253616 0.00423515 -0.999675 
-0.0252998 0.00277904 -0.999681 
-0.024719 0.00142075 -0.9997 
-0.0250104 0.000185795 -0.999693 
-0.0245093 -0.000962897 -0.999706 
-0.0243615 -0.0021164 -0.999708 
-0.0247346 -0.00337616 -0.999695 
-0.0238692 -0.00491244 -0.99971 
-0.0238382 -0.00719003 -0.999697 
-0.0239438 -0.0103006 -0.999666 
-0.0207963 -0.0146682 -0.999688 
-0.0216097 -0.0210527 -0.999553 
-0.0207464 -0.0282331 -0.999394 
-0.0182998 -0.0364407 -0.999181 
-0.0194862 -0.0361652 -0.999156 
-0.0128287 -0.0272254 -0.999567 
-0.00986317 -0.0221095 -0.999694 
0.00924504 -0.0206176 0.999718 
0.0184372 -0.0268929 0.999467 
0.0256423 -0.0378791 0.998964 
0.0275774 -0.0345689 0.999033 
0.0302327 -0.0284144 0.999144 
0.0263958 -0.0254411 0.999322 
0.029784 -0.0173938 0.999407 
0.0328847 -0.0129614 0.999381 
0.0325073 -0.00928793 0.999433 
0.0343817 -0.00608325 0.999394 
0.0338951 -0.00397571 0.999423 
0.0352517 -0.00254141 0.999379 
0.0350156 -0.00121515 0.999392 
0.0352826 -6.997e-06 0.999381 
0.0348197 0.00117294 0.999399 
0.0353297 0.00255455 0.999378 
0.0349909 0.00400184 0.999384 
0.0352917 0.00572855 0.999366 
0.0349101 0.00776698 0.999365 
0.0348726 0.010306 0.999344 
0.034607 0.0134762 0.999315 
0.0341665 0.0174499 0.999269 
0.0335602 0.0225421 0.999188 
0.0328149 0.0289959 0.999046 
0.0321995 0.0373804 0.998788 
0.0312846 0.0482119 0.998352 
0.0306854 0.0622017 0.997597 
0.0303342 0.080635 0.996288 
0.0294345 0.106663 0.993865 
0.028952 0.138532 0.98994 
0.0340059 0.179103 0.983249 
0.0377745 0.227805 0.97298 
0.039446 0.285823 0.957477 
0.0444531 0.369322 0.928235 
0.0659891 0.414492 0.907661 
0.111382 0.529177 0.841177 
0.0446846 0.606723 0.793639 
0.0200729 0.757026 0.653062 
0.0510177 0.919927 0.388808 
0.00200066 0.999887 0.0116319 
-0.0462025 0.85478 -0.516924 
-0.0152259 0.793082 -0.608902 
-0.090717 0.644234 -0.759426 
-0.0715744 0.536483 -0.840859 
-0.0513845 0.486827 -0.871992 
-0.0544667 0.382723 -0.922261 
-0.039557 0.30884 -0.950296 
-0.0357723 0.243124 -0.969341 
-0.0314295 0.187903 -0.981682 
-0.0300621 0.143901 -0.989149 
-0.0290257 0.110883 -0.993422 
-0.0303731 0.083674 -0.99603 
-0.0302537 0.065055 -0.997427 
-0.0312323 0.0500093 -0.998266 
-0.0321628 0.0388236 -0.998735 
-0.0325862 0.0305931 -0.999005 
-0.0334418 0.0238362 -0.999162 
-0.0339007 0.0186797 -0.999256 
-0.0342002 0.0144341 -0.999316 
-0.0348507 0.0111014 -0.999336 
-0.0350557 0.00842123 -0.999355 
-0.0352379 0.00629085 -0.999364 
-0.0353435 0.00455868 -0.99937 
-0.0354127 0.00309886 -0.999373 
-0.0352408 0.00175626 -0.999382 
-0.0354052 0.000518958 -0.999378 
-0.0351601 -0.000667908 -0.999386 
-0.034925 -0.00192576 -0.999393 
-0.03492 -0.0033788 -0.999389 
-0.0342467 -0.00505237 -0.999405 
-0.0337891 -0.00731521 -0.999407 
-0.0334963 -0.010617 -0.999389 
-0.0318645 -0.0144729 -0.999391 
-0.0309289 -0.0198618 -0.999329 
-0.0300279 -0.0272941 -0.999182 
-0.0276094 -0.0349948 -0.99901 
-0.0266158 -0.038083 -0.998924 
-0.0187424 -0.0272257 -0.999459 
-0.00998419 -0.0200463 -0.999698 
0.00735727 -0.0204927 0.999749 
0.0158751 -0.0272533 0.999511 
0.0224749 -0.0385126 0.999008 
0.027133 -0.0369856 0.998954 
0.0264514 -0.0291563 0.999231 
0.0312634 -0.0204419 0.99931 
0.0303549 -0.015888 0.999419 
0.0309614 -0.010967 0.999468 
0.0322055 -0.00757981 0.999459 
0.0327332 -0.00495028 0.999458 
0.0322814 -0.00329349 0.99948 
0.0320907 -0.00161208 0.99949 
0.032604 -0.000294674 0.999475 
0.032698 0.000905273 0.999471 
0.032884 0.00210529 0.999463 
0.0327214 0.00351338 0.999465 
0.0328217 0.00499354 0.999455 
0.0326733 0.00687974 0.999449 
0.032555 0.00912728 0.999435 
0.0321975 0.0120241 0.999416 
0.0318285 0.0156015 0.999378 
0.0315524 0.0200689 0.999307 
0.0311502 0.0257228 0.99919 
0.0308652 0.0328367 0.998991 
0.0305994 0.0420015 0.998655 
0.0301965 0.0535386 0.998116 
0.0301482 0.0686187 0.997194 
0.0310902 0.0893907 0.995518 
0.0323841 0.115199 0.992821 
0.0346055 0.146374 0.98863 
0.0409409 0.190231 0.980892 
0.0485422 0.242303 0.968993 
0.0560856 0.308453 0.949597 
0.0717493 0.349227 0.934286 
0.0890675 0.442305 0.892436 
0.131995 0.477026 0.868925 
0.0784422 0.637381 0.766545 
0.0507252 0.733743 0.677468 
0.0236141 0.981515 0.189731 
-0.0170313 0.972783 -0.230982 
-0.0936466 0.766882 -0.63488 
-0.0546228 0.741016 -0.669247 
-0.11384 0.560782 -0.820101 
-0.0965879 0.466343 -0.879324 
-0.0751441 0.414883 -0.90677 
-0.0717503 0.336494 -0.938954 
-0.053988 0.302181 -0.951727 
-0.0455163 0.24323 -0.968907 
-0.0377961 0.189072 -0.98125 
-0.0339997 0.144064 -0.988983 
-0.0320251 0.108403 -0.993599 
-0.0307925 0.0825365 -0.996117 
-0.0303566 0.0636542 -0.997518 
-0.0303092 0.049531 -0.998319 
-0.0302974 0.0386954 -0.998797 
-0.0308016 0.0301336 -0.999079 
-0.0309304 0.0236125 -0.999249 
-0.0317369 0.0183445 -0.999334 
-0.0322403 0.0142483 -0.999385 
-0.0322312 0.0108868 -0.999428 
-0.032309 0.00823721 -0.99945 
-0.0322881 0.00612919 -0.999466 
-0.0323837 0.00446385 -0.999472 
-0.032586 0.00301969 -0.999471 
-0.0327514 0.00172596 -0.999468 
-0.0328426 0.000474508 -0.999467 
-0.0329958 -0.000760912 -0.999462 
-0.0329065 -0.00216935 -0.999463 
-0.032497 -0.00393154 -0.999471 
-0.03192 -0.00585893 -0.99948 
-0.0312975 -0.00838701 -0.999482 
-0.0302859 -0.0121981 -0.999472 
-0.0302974 -0.0162979 -0.999416 
-0.0299078 -0.0222633 -0.999311 
-0.0270269 -0.0291157 -0.999217 
-0.0271819 -0.0354257 -0.999009 
-0.0236541 -0.0400349 -0.998923 
-0.0190404 -0.0300098 -0.999369 
-0.00737895 -0.0212812 -0.999688 
0.00573541 -0.0207418 0.999769 
0.0109112 -0.0268054 0.999596 
0.0200106 -0.0402921 0.998994 
0.0212736 -0.0340265 0.999201 
0.0198064 -0.0259294 0.999474 
0.0259897 -0.0224796 0.999416 
0.022526 -0.0183235 0.999585 
0.0251878 -0.0134512 0.999599 
0.0251891 -0.00951856 0.999644 
0.026784 -0.00643214 0.999627 
0.0255234 -0.00440367 0.999671 
0.0257366 -0.00252841 0.999672 
0.0255712 -0.000808874 0.999679 
0.0259784 0.000449753 0.999669 
0.0258038 0.00161233 0.999672 
0.0264654 0.0028284 0.999652 
0.0259261 0.00421855 0.999661 
0.0263007 0.00578852 0.999644 
0.025841 0.00776898 0.999642 
0.0258015 0.0102451 0.999621 
0.0254629 0.0133962 0.999593 
0.0253217 0.017333 0.999536 
0.0251819 0.0221989 0.999443 
0.0249867 0.028308 0.999293 
0.0252069 0.0360101 0.99904 
0.0253468 0.045573 0.998646 
0.0257484 0.0579748 0.997993 
0.0270671 0.0748798 0.996832 
0.0290721 0.0957227 0.99499 
0.032195 0.121596 0.992064 
0.0372789 0.155202 0.987186 
0.0490192 0.206293 0.977268 
0.0610918 0.262986 0.962869 
0.0809988 0.314724 0.945726 
0.101979 0.394346 0.91329 
0.147812 0.429393 0.890947 
0.122052 0.634247 0.76344 
0.095847 0.733556 0.672836 
0.0607805 0.824859 0.562033 
0.0451757 0.975274 0.216107 
-0.068035 0.905193 -0.419614 
-0.134315 0.690319 -0.710887 
-0.139492 0.506657 -0.850792 
-0.119901 0.424675 -0.897375 
-0.0939364 0.365724 -0.925976 
-0.0777295 0.295744 -0.952106 
-0.0600248 0.262754 -0.963001 
-0.0505862 0.215931 -0.975104 
-0.0422752 0.188914 -0.98109 
-0.0353996 0.147311 -0.988463 
-0.031248 0.113214 -0.993086 
-0.0283223 0.0877411 -0.995748 
-0.026515 0.0662615 -0.997457 
-0.0257256 0.0525351 -0.998294 
-0.0249279 0.0410598 -0.998852 
-0.0249839 0.0318517 -0.999187 
-0.0249203 0.025153 -0.99938 
-0.0253906 0.0195176 -0.999494 
-0.025691 0.0151727 -0.999561 
-0.0258241 0.0117063 -0.999604 
-0.0256017 0.00881227 -0.99964 
-0.0255758 0.00659296 -0.999658 
-0.0255101 0.00487173 -0.999669 
-0.02581 0.00344993 -0.999667 
-0.0258337 0.00216902 -0.99967 
-0.0261691 0.000959643 -0.999664 
-0.0263785 -0.000299162 -0.999659 
-0.0262739 -0.00172847 -0.99966 
-0.0261422 -0.0035168 -0.999659 
-0.0255084 -0.00562679 -0.999665 
-0.02489 -0.0081102 -0.999664 
-0.0245177 -0.0114857 -0.99964 
-0.0240433 -0.0160865 -0.999587 
-0.0239828 -0.0211609 -0.999496 
-0.0215631 -0.0291465 -0.999349 
-0.0208627 -0.0373896 -0.99909 
-0.0173935 -0.0397337 -0.999062 
-0.0131322 -0.0269906 -0.99956 
-0.00597695 -0.0216811 -0.999691 
0.00463931 -0.0209571 0.99973 
0.00800345 -0.0276768 0.9996 
0.0159578 -0.0384267 0.999136 
0.0145263 -0.0413557 0.999054 
0.0161109 -0.0343678 0.999286 
0.0166784 -0.0227277 0.999609 
0.0183203 -0.0161949 0.999708 
0.0193935 -0.0122542 0.999743 
0.0198044 -0.00827131 0.999776 
0.0197109 -0.00582615 0.999795 
0.0193087 -0.00356695 0.999814 
0.0196274 -0.00161739 0.999813 
0.0193999 -4.65443e-05 0.999818 
0.0194957 0.00114054 0.999816 
0.0196393 0.00233745 0.999811 
0.019857 0.00350485 0.999803 
0.019722 0.00492615 0.9998 
0.0197682 0.00661507 0.999789 
0.0194697 0.00887864 0.999777 
0.0194896 0.0116719 0.999748 
0.0194021 0.0152506 0.999702 
0.0193476 0.0196689 0.999626 
0.0193762 0.0251376 0.999503 
0.0196894 0.0321142 0.999297 
0.0200777 0.0406153 0.99898 
0.0208384 0.0515313 0.998461 
0.0225401 0.0662613 0.997554 
0.0248936 0.0845586 0.996114 
0.0285013 0.107424 0.993812 
0.0343499 0.136238 0.990087 
0.0433955 0.173207 0.983936 
0.0641683 0.239444 0.968795 
0.0855331 0.285885 0.954453 
0.0970256 0.285952 0.95332 
0.111587 0.354826 0.928248 
0.127577 0.347585 0.92894 
0.163972 0.57863 0.798951 
0.1512 0.727286 0.669471 
0.103112 0.923067 0.37054 
-0.0194561 0.992332 -0.121886 
-0.12786 0.819544 -0.558556 
-0.162631 0.60698 -0.777973 
-0.159479 0.466114 -0.870236 
-0.137092 0.386145 -0.912201 
-0.108877 0.343595 -0.932793 
-0.0861252 0.280571 -0.955968 
-0.0643104 0.236973 -0.969392 
-0.0480902 0.189543 -0.9807 
-0.0380161 0.155303 -0.987143 
-0.0316446 0.124059 -0.991776 
-0.0271618 0.0982253 -0.9948 
-0.0241488 0.0763165 -0.996798 
-0.0214406 0.0602885 -0.997957 
-0.0205827 0.0481366 -0.998635 
-0.0197912 0.0374936 -0.999107 
-0.0191568 0.0297935 -0.999379 
-0.019482 0.0233231 -0.999545 
-0.0195706 0.0182621 -0.999648 
-0.01962 0.0142347 -0.999713 
-0.0197261 0.0109181 -0.999752 
-0.0193985 0.00821657 -0.999785 
-0.0192836 0.00613488 -0.999802 
-0.0193253 0.00450011 -0.99981 
-0.0194885 0.0032181 -0.999811 
-0.0194389 0.00204375 -0.999815 
-0.0198698 0.000824276 -0.999809 
-0.0199225 -0.000462502 -0.999808 
-0.0198729 -0.00201922 -0.999807 
-0.0198042 -0.00403919 -0.999802 
-0.0190345 -0.00635466 -0.999805 
-0.0185601 -0.00912053 -0.999793 
-0.0188954 -0.0131111 -0.999743 
-0.0179482 -0.0178858 -0.999685 
-0.0180928 -0.0234979 -0.999566 
-0.0157651 -0.0309847 -0.999402 
-0.0162494 -0.037973 -0.999153 
-0.0134086 -0.0421412 -0.999027 
-0.010675 -0.0305872 -0.999477 
-0.00425005 -0.0213322 -0.999694 
0.00315688 -0.0214912 0.999699 
0.0059419 -0.0296119 0.999549 
0.0112576 -0.0406178 0.999105 
0.0107683 -0.0399142 0.999144 
0.0135685 -0.0303477 0.999454 
0.0116178 -0.0243819 0.999642 
0.013632 -0.0182727 0.999747 
0.0136686 -0.0133162 0.999824 
0.0150409 -0.00969574 0.999846 
0.0142586 -0.00670079 0.999882 
0.0146628 -0.00438031 0.999889 
0.0145189 -0.00206719 0.999899 
0.014502 -0.000403175 0.999901 
0.0141745 0.000941043 0.999906 
0.0144772 0.00206473 0.9999 
0.0143778 0.00315883 0.999898 
0.0147104 0.00429127 0.999889 
0.0143944 0.00580233 0.999886 
0.0144539 0.00772866 0.999872 
0.0143512 0.010286 0.999851 
0.0145183 0.0134284 0.999811 
0.0145224 0.0173538 0.99975 
0.0146463 0.0221718 0.999653 
0.0150885 0.0282862 0.999493 
0.0155513 0.0357324 0.999247 
0.0164117 0.0451072 0.998854 
0.0180391 0.0575144 0.998188 
0.0203168 0.0727955 0.997147 
0.0237167 0.0920081 0.995483 
0.0289665 0.116526 0.992772 
0.0374572 0.147325 0.988386 
0.0519813 0.193372 0.979754 
0.0692895 0.23127 0.970426 
0.0786421 0.242399 0.966992 
0.114437 0.300852 0.946788 
0.164311 0.398072 0.902521 
0.19038 0.506614 0.8409 
0.201978 0.682028 0.702851 
0.095713 0.843896 0.527886 
-0.0314339 0.990938 -0.130799 
-0.181469 0.750168 -0.635791 
-0.193651 0.56638 -0.801076 
-0.202572 0.505233 -0.838865 
-0.15631 0.388416 -0.908135 
-0.108734 0.3055 -0.945965 
-0.0811119 0.250872 -0.964624 
-0.0637892 0.218306 -0.9738 
-0.0494411 0.184689 -0.98156 
-0.0370402 0.147913 -0.988312 
-0.0298801 0.120109 -0.992319 
-0.0245734 0.0966151 -0.995025 
-0.0215635 0.0784955 -0.996688 
-0.018184 0.0620528 -0.997914 
-0.0164399 0.0489724 -0.998671 
-0.0158895 0.0392117 -0.999111 
-0.014733 0.0307912 -0.999424 
-0.0148694 0.0243568 -0.999599 
-0.0147897 0.0190879 -0.999715 
-0.0146441 0.0148273 -0.999789 
-0.0146276 0.0113549 -0.999835 
-0.0144458 0.00859836 -0.999865 
-0.0141849 0.00637351 -0.999886 
-0.0143018 0.00471113 -0.999893 
-0.0142671 0.00343997 -0.999899 
-0.0142619 0.0023528 -0.999902 
-0.0145851 0.00116961 -0.999899 
-0.014668 -9.6791e-05 -0.999899 
-0.0147092 -0.00163546 -0.999897 
-0.0148045 -0.00370946 -0.99989 
-0.0142539 -0.00615308 -0.999886 
-0.0138319 -0.00901245 -0.99987 
-0.0142645 -0.0128177 -0.999822 
-0.0133751 -0.0177182 -0.999761 
-0.0132736 -0.0237562 -0.999636 
-0.0115736 -0.0318076 -0.999434 
-0.0113391 -0.03992 -0.999145 
-0.00929959 -0.0424531 -0.999059 
-0.00753242 -0.0300913 -0.999524 
-0.00297173 -0.0223064 -0.999684 
0.00213323 -0.0221971 0.999676 
0.00404432 -0.0298091 0.999551 
0.008475 -0.043629 0.999023 
0.00750651 -0.0409348 0.99914 
0.00974306 -0.033184 0.999408 
0.00880765 -0.0246937 0.999663 
0.010179 -0.0179728 0.999792 
0.0101038 -0.0130754 0.999871 
0.0108483 -0.00921418 0.999905 
0.00993093 -0.00629177 0.999939 
0.0106932 -0.00370879 0.999942 
0.0102411 -0.00149685 0.999954 
0.0102607 0.000104198 0.999953 
0.00983051 0.00137745 0.999957 
0.010067 0.00242267 0.999953 
0.00992297 0.00340378 0.999951 
0.0102826 0.00453268 0.999942 
0.00989058 0.00602586 0.99994 
0.0101281 0.00811351 0.999922 
0.0100766 0.0107862 0.999897 
0.0103121 0.0140744 0.999854 
0.010427 0.0181071 0.999788 
0.0108288 0.0232116 0.999679 
0.0113389 0.0293919 0.99951 
0.0121501 0.0371957 0.999241 
0.0134817 0.047189 0.998802 
0.0153433 0.0595139 0.998116 
0.0181551 0.075134 0.997016 
0.0221685 0.0944588 0.995289 
0.0281444 0.118451 0.992567 
0.0394422 0.153081 0.987434 
0.0528444 0.188707 0.980617 
0.0555875 0.195519 0.97913 
0.078938 0.244344 0.966475 
0.107383 0.293013 0.950063 
0.15734 0.357121 0.920723 
0.210564 0.47104 0.856621 
0.254711 0.591926 0.764688 
0.18484 0.832927 0.52158 
0.0330106 0.994762 0.0966381 
-0.107471 0.933631 -0.341666 
-0.23812 0.668353 -0.704717 
-0.212212 0.464939 -0.859531 
-0.152393 0.353941 -0.922784 
-0.106691 0.289874 -0.951098 
-0.073116 0.235869 -0.969038 
-0.0574302 0.201487 -0.977815 
-0.0450488 0.171064 -0.984234 
-0.0361313 0.145058 -0.98877 
-0.0273629 0.115376 -0.992952 
-0.0213242 0.0914504 -0.995588 
-0.0176216 0.0728287 -0.997195 
-0.0144074 0.0571992 -0.998264 
-0.0126062 0.0455636 -0.998889 
-0.0119932 0.0366002 -0.999265 
-0.0109544 0.0287196 -0.999534 
-0.0109202 0.0227425 -0.999688 
-0.010631 0.0178623 -0.999791 
-0.0104432 0.0138388 -0.999856 
-0.0102615 0.0106255 -0.999897 
-0.0101341 0.00800837 -0.999923 
-0.00988708 0.00591206 -0.99994 
-0.0100114 0.00438906 -0.999947 
-0.0098361 0.00328495 -0.999952 
-0.0100008 0.00227918 -0.999954 
-0.0102068 0.00117757 -0.999954 
-0.0103194 -0.000111643 -0.999953 
-0.0104263 -0.00174091 -0.999951 
-0.0104631 -0.00387698 -0.999944 
-0.0102086 -0.00658411 -0.999933 
-0.0101658 -0.00985113 -0.999906 
-0.0104164 -0.013771 -0.999857 
-0.00963217 -0.0186497 -0.999786 
-0.0098951 -0.0243056 -0.999662 
-0.00861917 -0.032221 -0.99945 
-0.00831111 -0.0406728 -0.999144 
-0.0067451 -0.043252 -0.999045 
-0.00503061 -0.0289032 -0.999578 
-0.00233637 -0.0218258 -0.999692 
0.0015171 -0.0216999 0.999677 
0.00295811 -0.0321156 0.999482 
0.00597193 -0.0432111 0.999052 
0.00530058 -0.0415122 0.99913 
0.00719189 -0.0328085 0.999443 
0.00630633 -0.0251805 0.99967 
0.00741108 -0.0188907 0.999801 
0.00726147 -0.0136044 0.999887 
0.0074753 -0.0093589 0.999934 
0.00689385 -0.0061611 0.999964 