# vtk DataFile Version 3.0 
Exported using Morpho https://github.com/Morpho-lang/morpho 
ASCII 
DATASET UNSTRUCTURED_GRID 

POINTS 1978 float 
-8.48528 -2.82843 -1.06106e-09 
-8.2652 -2.82843 2.10082e-09 
-8.04263 -2.82843 5.39663e-09 
-7.79231 -2.82843 5.94093e-09 
-7.48656 -2.82843 3.73685e-09 
-7.2423 -2.82843 2.69872e-09 
-6.98632 -2.82843 1.14713e-09 
-6.76721 -2.82843 5.9847e-10 
-6.5581 -2.82843 6.78731e-10 
-6.36003 -2.82843 2.00946e-10 
-6.1387 -2.82843 4.51904e-10 
-5.93586 -2.82843 2.36314e-10 
-5.72907 -2.82843 -5.44737e-11 
-5.52564 -2.82843 -1.82097e-10 
-5.30357 -2.82843 -1.50537e-10 
-5.09895 -2.82843 -6.18848e-10 
-4.88075 -2.82843 -6.49905e-10 
-4.67503 -2.82843 -8.81213e-10 
-4.46115 -2.82843 -1.16607e-09 
-4.25152 -2.82843 -1.45099e-09 
-4.04307 -2.82843 -1.85577e-09 
-3.83375 -2.82843 -2.13428e-09 
-3.62448 -2.82843 -2.7981e-09 
-3.40902 -2.82843 -3.35512e-09 
-3.19277 -2.82843 -4.22773e-09 
-2.97084 -2.82843 -5.08556e-09 
-2.74746 -2.82843 -5.82385e-09 
-2.52642 -2.82843 -7.27075e-09 
-2.30099 -2.82843 -9.95117e-09 
-2.02339 -2.82843 -1.11523e-08 
-1.82109 -2.82843 -9.37411e-09 
-1.63784 -2.82843 -6.09008e-09 
-1.44381 -2.82843 -8.499e-11 
-1.26993 -2.82843 1.68685e-08 
-1.12636 -2.82843 3.93502e-09 
-0.988316 -2.82843 5.49259e-08 
-0.858104 -2.82843 9.845e-08 
-0.733368 -2.82842 3.84764e-07 
-0.274271 -2.82842 1.24605e-06 
0.0605271 -2.82842 -5.2547e-07 
0.373539 -2.82842 -7.67048e-07 
0.618258 -2.82842 -3.31162e-07 
0.780782 -2.82843 -1.46213e-07 
0.961465 -2.82843 -6.77704e-08 
1.1112 -2.82843 -1.30239e-08 
1.2546 -2.82843 -1.52562e-08 
1.44436 -2.82843 5.85351e-09 
1.63052 -2.82843 8.69518e-09 
1.84517 -2.82843 1.1014e-08 
2.06847 -2.82843 1.07981e-08 
2.29738 -2.82843 8.03104e-09 
2.52034 -2.82843 7.42376e-09 
2.75844 -2.82843 5.94676e-09 
2.97653 -2.82843 4.96491e-09 
3.19547 -2.82843 4.17454e-09 
3.4164 -2.82843 3.07809e-09 
3.6301 -2.82843 2.88457e-09 
3.83874 -2.82843 2.25006e-09 
4.04741 -2.82843 1.79387e-09 
4.26375 -2.82843 1.56037e-09 
4.47011 -2.82843 1.07798e-09 
4.67763 -2.82843 8.65483e-10 
4.88233 -2.82843 5.98944e-10 
5.08772 -2.82843 4.38949e-10 
5.2941 -2.82843 4.21312e-10 
5.50952 -2.82843 -6.67218e-11 
5.7213 -2.82843 2.20098e-10 
5.94059 -2.82843 -2.0912e-10 
6.16342 -2.82843 -2.83477e-10 
6.37809 -2.82843 -3.59063e-10 
6.60272 -2.82843 -8.68908e-10 
6.82394 -2.82843 -7.96384e-10 
7.03563 -2.82843 -1.68366e-09 
7.29324 -2.82843 -2.00552e-09 
7.52529 -2.82843 -2.51949e-09 
7.75417 -2.82843 -4.1718e-09 
8.02608 -2.82843 -6.37356e-09 
8.22056 -2.82843 -1.79869e-09 
8.48528 -2.82843 1.31799e-09 
-8.48528 -2.58641 -1.54928e-09 
-8.26587 -2.58019 9.28437e-16 
-8.03558 -2.5901 3.89208e-15 
-7.77311 -2.6077 5.40201e-15 
-7.5204 -2.65251 7.25571e-15 
-7.23154 -2.61485 3.48722e-15 
-6.9807 -2.59545 1.92028e-15 
-6.74531 -2.59283 1.42506e-15 
-6.52096 -2.58304 1.10437e-15 
-6.29427 -2.60473 5.74306e-16 
-6.07135 -2.58163 4.15399e-16 
-5.85502 -2.5856 2.09262e-16 
-5.64004 -2.58174 4.54823e-18 
-5.41917 -2.60302 -1.8233e-16 
-5.19998 -2.58546 -3.71404e-16 
-4.98316 -2.60254 -5.88371e-16 
-4.76578 -2.59067 -8.41482e-16 
-4.55174 -2.60027 -1.15327e-15 
-4.3355 -2.5954 -1.49312e-15 
-4.12238 -2.5929 -1.91432e-15 
-3.91001 -2.59222 -2.47137e-15 
-3.69707 -2.59045 -3.15658e-15 
-3.48186 -2.59491 -3.83506e-15 
-3.26298 -2.59377 -4.82599e-15 
-3.04125 -2.59686 -5.81479e-15 
-2.81486 -2.59609 -6.85416e-15 
-2.58873 -2.59239 -7.7034e-15 
-2.36197 -2.59785 -1.00992e-14 
-2.11876 -2.64134 -1.30967e-14 
-1.86359 -2.57233 -3.09052e-15 
-1.66123 -2.57386 -1.62611e-14 
-1.47004 -2.61529 -1.80319e-15 
-1.27443 -2.59692 5.1175e-15 
-1.10064 -2.61252 4.15763e-14 
-0.991514 -2.45569 1.35468e-14 
-0.872963 -2.36359 -4.23383e-14 
-0.934928 -2.64538 -4.71452e-14 
-0.633291 -2.77559 2.88112e-13 
-0.356654 -2.68504 -9.33719e-13 
-0.157787 -2.7696 2.43476e-13 
0.280616 -2.75992 1.58844e-13 
0.686143 -2.67265 1.08648e-13 
0.784427 -2.50701 4.25549e-14 
0.865555 -2.66067 -6.48218e-14 
1.03659 -2.62862 6.61599e-14 
1.19342 -2.55822 -1.50995e-14 
1.3646 -2.62334 1.68192e-14 
1.57571 -2.59409 4.56816e-16 
1.79197 -2.61388 7.87759e-15 
2.02531 -2.6121 9.39794e-15 
2.26554 -2.6074 8.68473e-15 
2.49694 -2.59555 8.0769e-15 
2.72962 -2.60803 8.42387e-15 
2.9661 -2.58771 5.73791e-15 
3.18455 -2.59193 5.22502e-15 
3.40747 -2.59689 4.38918e-15 
3.62816 -2.58754 3.03615e-15 
3.84357 -2.59028 2.57685e-15 
4.06385 -2.59973 2.12016e-15 
4.2765 -2.59057 1.63543e-15 
4.4894 -2.59302 1.25678e-15 
4.70012 -2.59026 9.25779e-16 
4.91067 -2.59035 6.69845e-16 
5.12256 -2.59 4.31336e-16 
5.34074 -2.59805 2.41541e-16 
5.55821 -2.5916 7.58146e-17 
5.78046 -2.59716 -1.45682e-16 
6.00725 -2.59839 -3.53352e-16 
6.22904 -2.58689 -5.66655e-16 
6.45405 -2.59551 -9.55685e-16 
6.681 -2.58962 -1.33029e-15 
6.89697 -2.5756 -1.79157e-15 
7.13492 -2.61706 -2.71173e-15 
7.38116 -2.595 -3.34032e-15 
7.60973 -2.58939 -3.59909e-15 
7.86318 -2.62605 -4.90685e-15 
8.07375 -2.54532 -3.45786e-15 
8.30061 -2.61731 -3.26128e-16 
8.48528 -2.52741 2.07081e-09 
-8.48528 -2.34169 -1.95491e-10 
-8.25586 -2.33742 1.09758e-15 
-8.01879 -2.35043 2.32533e-15 
-7.77652 -2.39999 3.09792e-15 
-7.57159 -2.24777 3.62616e-15 
-7.49302 -2.45345 1.30991e-15 
-7.21815 -2.4091 2.53456e-15 
-6.99728 -2.35048 2.90226e-15 
-6.76724 -2.37133 1.21691e-15 
-6.52226 -2.3546 1.42025e-15 
-6.28493 -2.37317 7.86023e-16 
-6.0609 -2.34228 4.96949e-16 
-5.83998 -2.34677 2.53381e-16 
-5.61179 -2.35335 -2.84001e-18 
-5.39231 -2.36983 -2.55169e-16 
-5.16623 -2.35738 -4.49749e-16 
-4.94865 -2.37261 -7.10872e-16 
-4.72695 -2.36263 -1.02414e-15 
-4.51005 -2.37201 -1.34321e-15 
-4.293 -2.36395 -1.77893e-15 
-4.07749 -2.35974 -2.24672e-15 
-3.86186 -2.35804 -2.80786e-15 
-3.64286 -2.35859 -3.47007e-15 
-3.42351 -2.36261 -4.26932e-15 
-3.19968 -2.36338 -5.42511e-15 
-2.97254 -2.36788 -6.42233e-15 
-2.74517 -2.3628 -7.56264e-15 
-2.51559 -2.36093 -8.72559e-15 
-2.27199 -2.39304 -9.40147e-15 
-2.04411 -2.41338 -8.43924e-15 
-1.80856 -2.31976 -5.10099e-15 
-1.60071 -2.34061 -2.42042e-15 
-1.41004 -2.39481 -3.78499e-15 
-1.19907 -2.40943 1.16899e-14 
-1.09482 -2.26852 3.82893e-14 
-0.795543 -2.18005 2.67503e-14 
-0.799156 -2.58729 -1.29794e-13 
-0.491552 -2.72825 6.8806e-14 
-0.297588 -2.56278 2.57426e-13 
0.00977444 -2.72239 -5.50372e-13 
0.413529 -2.62369 2.44911e-13 
0.504109 -2.73252 7.34405e-14 
0.664567 -2.39509 6.1837e-14 
0.862687 -2.32102 -8.82362e-14 
0.973823 -2.44789 -4.52444e-14 
1.16047 -2.35573 -1.51141e-14 
1.357 -2.38695 -1.46031e-14 
1.54471 -2.38153 1.41413e-14 
1.77069 -2.39307 5.88195e-15 
1.99514 -2.39678 1.24141e-14 
2.22862 -2.39749 6.99695e-15 
2.46716 -2.36559 1.0351e-14 
2.69587 -2.38081 7.0672e-15 
2.92444 -2.36481 6.87171e-15 
3.15408 -2.34968 5.54275e-15 
3.37049 -2.36537 4.2777e-15 
3.58923 -2.35479 3.8901e-15 
3.80655 -2.3558 2.85292e-15 
4.02429 -2.37009 2.34821e-15 
4.23962 -2.35828 1.87148e-15 
4.45456 -2.35938 1.42351e-15 
4.66628 -2.35588 1.07861e-15 
4.87777 -2.3548 7.8837e-16 
5.08894 -2.35528 5.32333e-16 
5.3041 -2.36595 3.14874e-16 
5.51944 -2.35959 1.2633e-16 
5.73959 -2.36561 -1.19356e-16 
5.96206 -2.36976 -3.68879e-16 
6.18553 -2.3537 -6.10239e-16 
6.4112 -2.35893 -1.00791e-15 
6.63336 -2.35705 -1.49693e-15 
6.85615 -2.32792 -1.91447e-15 
7.07884 -2.37766 -2.45736e-15 
7.30667 -2.38198 -3.36548e-15 
7.54984 -2.34809 -4.07741e-15 
7.7842 -2.39639 -2.6838e-15 
7.99994 -2.318 -2.43879e-15 
8.24859 -2.35227 -3.42244e-16 
8.48528 -2.29653 1.05988e-09 
-8.48528 -2.10473 -2.57945e-10 
-8.2655 -2.08983 -1.85558e-15 
-8.05004 -2.09916 -4.37604e-16 
-7.81866 -2.15665 1.47361e-15 
-7.54931 -2.03827 1.21955e-15 
-7.31378 -2.22783 3.37832e-15 
-7.07791 -2.12241 9.16461e-16 
-6.83033 -2.13157 8.04271e-16 
-6.60737 -2.14103 8.8252e-16 
-6.35811 -2.14362 5.29049e-16 
-6.14141 -2.11658 1.76201e-16 
-5.91459 -2.10737 1.93951e-16 
-5.6953 -2.12284 7.66065e-17 
-5.47272 -2.12896 -6.65899e-17 
-5.26122 -2.13782 -1.48102e-16 
-5.03547 -2.13546 -2.31689e-16 
-4.82506 -2.14193 -3.70871e-16 
-4.60456 -2.13859 -5.15953e-16 
-4.39504 -2.13845 -6.6984e-16 
-4.18171 -2.13004 -7.96683e-16 
-3.96912 -2.12613 -9.66987e-16 
-3.75474 -2.12731 -1.28491e-15 
-3.53881 -2.12737 -1.59794e-15 
-3.32205 -2.13172 -2.00585e-15 
-3.09936 -2.13612 -2.57581e-15 
-2.87764 -2.1341 -2.8882e-15 
-2.65119 -2.13046 -3.15951e-15 
-2.41124 -2.15249 -4.72788e-15 
-2.18401 -2.16373 -5.33566e-15 
-1.96922 -2.16279 -4.56652e-15 
-1.71701 -2.07919 3.02191e-17 
-1.51138 -2.11959 1.72356e-15 
-1.32283 -2.20351 -1.29867e-14 
-1.19731 -2.06854 3.17638e-14 
-0.976291 -2.15372 2.69436e-14 
-0.787989 -1.98095 9.51615e-14 
-0.715105 -2.41064 1.75005e-13 
-0.63747 -2.5975 -1.66643e-13 
-0.176754 -2.66532 -6.2156e-13 
0.182689 -2.68994 2.0792e-14 
0.480957 -2.45689 -8.94035e-14 
0.587806 -2.56483 -5.07961e-14 
0.733892 -2.20891 -3.88562e-15 
0.902155 -2.10109 -8.92303e-14 
1.0486 -2.21743 -2.45643e-15 
1.17304 -2.04074 -3.26909e-16 
1.31989 -2.16525 1.48718e-15 
1.51829 -2.15197 -8.09589e-15 
1.73983 -2.18529 4.06015e-15 
1.98469 -2.17891 2.95209e-15 
2.22558 -2.1805 7.01498e-15 
2.46764 -2.14231 4.33461e-15 
2.70404 -2.1514 3.65256e-15 
2.93447 -2.13479 2.94723e-15 
3.16336 -2.11933 2.07536e-15 
3.38779 -2.13019 1.92354e-15 
3.60745 -2.12119 1.30589e-15 
3.83003 -2.12875 1.24779e-15 
4.04501 -2.13801 1.01784e-15 
4.2635 -2.12904 7.12002e-16 
4.47667 -2.12624 5.74911e-16 
4.6898 -2.12329 4.22813e-16 
4.90217 -2.12102 2.94656e-16 
5.11933 -2.12641 1.8569e-16 
5.33208 -2.13149 1.25214e-16 
5.55274 -2.13065 3.95356e-17 
5.77432 -2.13647 -1.14312e-16 
5.99477 -2.1363 -2.21272e-16 
6.22299 -2.12404 -2.76024e-16 
6.44379 -2.12165 -4.97481e-16 
6.66228 -2.11538 -7.34219e-16 
6.89686 -2.09749 -7.09154e-16 
7.11887 -2.14317 -1.33804e-15 
7.35099 -2.15368 -1.97209e-15 
7.55788 -2.08439 -1.02074e-15 
7.76059 -2.15625 -1.12448e-15 
7.97991 -2.07928 1.34887e-15 
8.21179 -2.12873 -5.05077e-16 
8.48528 -2.09733 -4.72829e-10 
-8.48528 -1.83164 -3.02719e-10 
-8.27552 -1.82316 -2.43033e-15 
-7.87097 -1.90152 -2.61441e-15 
[...]
POINT_DATA 1978 
VECTORS vectors float
0.00572661 -0.0110251 0.999922 
0.00419564 -0.0373297 0.999295 
0.0012577 -0.0429781 0.999076 
-0.000820506 -0.0345072 0.999406 
-0.000727202 -0.0233481 0.999729 
0.000715064 -0.0168916 0.999858 
0.00168172 -0.0110247 0.999939 
0.00310553 -0.00755804 0.999968 
0.00342827 -0.00510439 0.999982 
0.00327529 -0.00359328 0.999989 
0.00310588 -0.0027782 0.999992 
0.00367102 -0.00194352 0.999992 
0.00356889 -0.000957766 0.999994 
0.00317554 0.00015146 0.999996 
0.00311221 0.00145437 0.999995 
0.00317817 0.00279944 0.999992 
0.00320846 0.00435553 0.999986 
0.0032488 0.00600954 0.999978 
0.00320955 0.00805455 0.999963 
0.00328333 0.0104656 0.999941 
0.00330609 0.0134563 0.999905 
0.003211 0.0172172 0.999847 
0.00302051 0.0220065 0.999754 
0.00276185 0.028305 0.999596 
0.00249827 0.0364197 0.999334 
0.00226051 0.0470507 0.998891 
0.00219924 0.0605984 0.998161 
0.00196694 0.078209 0.996936 
0.000688883 0.102038 0.994781 
0.000765441 0.142269 0.989829 
0.00208188 0.182088 0.98328 
0.00194346 0.226841 0.97393 
0.000774026 0.292691 0.956207 
7.29762e-05 0.364166 0.931334 
0.00051072 0.430114 0.902775 
0.000423474 0.50301 0.86428 
-0.000600542 0.573944 0.818894 
-0.000138558 0.643801 0.765193 
0.000980423 0.928114 0.372296 
-0.000191378 0.996528 -0.0832539 
0.000170553 0.877309 -0.479927 
0.00216883 0.720061 -0.693907 
0.000394531 0.605647 -0.795734 
0.000988684 0.504625 -0.863338 
0.00110006 0.424457 -0.905447 
-0.00043788 0.353602 -0.935396 
-0.00136176 0.281764 -0.959483 
-0.0015516 0.226272 -0.974063 
-0.00155981 0.175235 -0.984526 
-0.00143921 0.135037 -0.99084 
-0.00169396 0.101121 -0.994873 
-0.00164099 0.078124 -0.996943 
-0.00181877 0.0587256 -0.998273 
-0.00258801 0.045826 -0.998947 
-0.00238768 0.0356412 -0.999363 
-0.00270742 0.027856 -0.999609 
-0.00312073 0.022058 -0.999753 
-0.00320131 0.0173091 -0.999846 
-0.00310177 0.0134915 -0.999905 
-0.0031887 0.0103702 -0.999942 
-0.00341933 0.00793376 -0.999964 
-0.00351717 0.00599415 -0.999977 
-0.00357413 0.0043656 -0.999985 
-0.0035129 0.00291284 -0.99999 
-0.00325257 0.00161117 -0.999994 
-0.00310828 0.00035616 -0.999996 
-0.00292348 -0.000812029 -0.999996 
-0.00269211 -0.0017803 -0.999996 
-0.00277574 -0.00273944 -0.999993 
-0.0026662 -0.00391121 -0.99999 
-0.00260176 -0.00566413 -0.999982 
-0.00274877 -0.00834169 -0.999962 
-0.00163557 -0.0120264 -0.999928 
-0.00120049 -0.0178153 -0.999842 
-0.00173021 -0.0245615 -0.999698 
-0.000719313 -0.0327448 -0.999465 
-0.00124457 -0.0430336 -0.999074 
-0.00362383 -0.0384891 -0.999254 
-0.00495117 -0.00847784 -0.999952 
0.0087407 -0.00518254 0.999949 
0.0149312 -0.0295486 0.999452 
0.0184858 -0.0381379 0.999101 
0.0196441 -0.0341945 0.999222 
0.0187595 -0.0252725 0.999505 
0.0202955 -0.0168015 0.999653 
0.0222199 -0.0118011 0.999684 
0.0230038 -0.00795048 0.999704 
0.0247007 -0.00547542 0.99968 
0.0233415 -0.00375707 0.999721 
0.0249926 -0.00250464 0.999685 
0.0250691 -0.00140698 0.999685 
0.0254708 -0.00030978 0.999676 
0.0243625 0.000878589 0.999703 
0.0255955 0.00223306 0.99967 
0.0245263 0.00368425 0.999693 
0.0252953 0.00533502 0.999666 
0.0245901 0.00724681 0.999672 
0.0247833 0.00962709 0.999647 
0.0247267 0.0125194 0.999616 
0.0244896 0.0161204 0.99957 
0.0242033 0.0206844 0.999493 
0.0233144 0.0265551 0.999376 
0.0228459 0.0341969 0.999154 
0.0219602 0.0440497 0.998788 
0.0212605 0.0569152 0.998153 
0.0208066 0.073498 0.997078 
0.0201875 0.0953245 0.995242 
0.017003 0.126347 0.991841 
0.0209173 0.169148 0.985369 
0.0229511 0.214042 0.976555 
0.0211107 0.274352 0.961398 
0.023407 0.358391 0.933278 
0.0270493 0.452346 0.891432 
0.0514052 0.474773 0.878606 
0.0764905 0.535247 0.841225 
0.0301266 0.545824 0.837358 
0.00758421 0.703374 0.710779 
0.0251929 0.868632 0.494817 
0.00702207 0.961148 0.275943 
-0.0100616 0.927773 -0.373008 
-0.0309324 0.656069 -0.754068 
-0.055863 0.614944 -0.786589 
-0.0214071 0.563511 -0.825831 
-0.0284698 0.457258 -0.888878 
-0.0280705 0.377798 -0.925462 
-0.0205739 0.303305 -0.952672 
-0.0207535 0.23818 -0.970999 
-0.0187614 0.185361 -0.982492 
-0.0187679 0.141289 -0.989791 
-0.0191434 0.106246 -0.994156 
-0.0202602 0.0805561 -0.996544 
-0.0204673 0.0614808 -0.997899 
-0.0220667 0.0469465 -0.998654 
-0.0225802 0.0367299 -0.99907 
-0.0230526 0.0287278 -0.999322 
-0.0237611 0.0224637 -0.999465 
-0.0241283 0.0175079 -0.999556 
-0.0240905 0.0135082 -0.999619 
-0.0249573 0.0104007 -0.999635 
-0.0250255 0.00790071 -0.999656 
-0.0253378 0.00591412 -0.999662 
-0.02536 0.00423522 -0.99967 
-0.0252986 0.00277908 -0.999676 
-0.0247196 0.00142086 -0.999694 
-0.02501 0.000186 -0.999687 
-0.0245105 -0.000962864 -0.999699 
-0.0243627 -0.00211645 -0.999701 
-0.0247341 -0.00337637 -0.999689 
-0.0238705 -0.00491322 -0.999703 
-0.0238383 -0.0071911 -0.99969 
-0.0239418 -0.0103019 -0.99966 
-0.0208027 -0.0146698 -0.999676 
-0.0216104 -0.0210531 -0.999545 
-0.0207481 -0.0282317 -0.999386 
-0.0183045 -0.0364287 -0.999169 
-0.0194784 -0.0361499 -0.999157 
-0.0128425 -0.0272346 -0.999547 
-0.0092026 -0.00395071 -0.999951 
0.00873665 -0.00432848 0.999953 
0.0184248 -0.0269054 0.999468 
0.0256177 -0.0378542 0.998955 
0.0275568 -0.0345595 0.999023 
0.0302135 -0.0284135 0.99914 
0.0263854 -0.0254382 0.999328 
0.0297659 -0.0173947 0.999406 
0.0328588 -0.0129632 0.999376 
0.0324874 -0.00928738 0.999429 
0.0343556 -0.00608416 0.999391 
0.0338735 -0.00397622 0.999418 
0.0352265 -0.00254145 0.999376 
0.0349936 -0.00121535 0.999387 
0.0352587 -6.95348e-06 0.999378 
0.0347976 0.00117314 0.999394 
0.0353064 0.00255459 0.999373 
0.0349682 0.00400194 0.999381 
0.0352681 0.00572865 0.999362 
0.0348874 0.00776711 0.999361 
0.0348499 0.0103062 0.99934 
0.0345847 0.0134763 0.999311 
0.0341445 0.01745 0.999265 
0.0335388 0.0225422 0.999183 
0.032794 0.0289959 0.999042 
0.0321784 0.0373804 0.998783 
0.0312647 0.048212 0.998348 
0.0306665 0.0622019 0.997593 
0.0303161 0.0806346 0.996283 
0.0294179 0.106662 0.99386 
0.0289383 0.138528 0.989936 
0.0339962 0.179101 0.983243 
0.0377649 0.227803 0.972975 
0.039438 0.285833 0.957468 
0.0444568 0.369371 0.928218 
0.0659829 0.414427 0.907688 
0.111374 0.529189 0.841163 
0.0446826 0.606814 0.793586 
0.0200631 0.757415 0.652625 
0.0510496 0.919807 0.389037 
0.00196377 0.999933 0.0113551 
-0.0462194 0.854712 -0.51704 
-0.0152482 0.79314 -0.608848 
-0.0907154 0.64429 -0.759382 
-0.0716139 0.536455 -0.840885 
-0.0513898 0.486785 -0.872009 
-0.0544537 0.382752 -0.922245 
-0.0395565 0.308826 -0.950296 
-0.0357612 0.243145 -0.969331 
-0.0314197 0.187905 -0.981685 
-0.0300465 0.143909 -0.989135 
-0.029012 0.11088 -0.993411 
-0.0303536 0.0836759 -0.996031 
-0.0302356 0.0650534 -0.997424 
-0.0312121 0.0500101 -0.998261 
-0.0321417 0.0388231 -0.998729 
-0.0325659 0.0305928 -0.999001 
-0.0334196 0.0238366 -0.999157 
-0.0338792 0.0186795 -0.999252 
-0.0341781 0.0144342 -0.999312 
-0.034828 0.0111015 -0.999332 
-0.0350333 0.0084213 -0.999351 
-0.0352156 0.00629099 -0.99936 
-0.0353212 0.00455879 -0.999366 
-0.03539 0.00309889 -0.999369 
-0.035218 0.00175631 -0.999378 
-0.0353817 0.000519095 -0.999374 
-0.0351368 -0.000667912 -0.999382 
-0.0349015 -0.00192585 -0.999389 
-0.0348965 -0.00337883 -0.999385 
-0.0342242 -0.00505297 -0.999402 
-0.0337662 -0.00731615 -0.999403 
-0.0334731 -0.0106173 -0.999383 
-0.0318432 -0.0144739 -0.999388 
-0.0309068 -0.0198625 -0.999325 
-0.0300057 -0.0272932 -0.999177 
-0.0275895 -0.0349841 -0.999007 
-0.0265903 -0.0380586 -0.998922 
-0.0187296 -0.0272331 -0.999454 
-0.00949552 -0.0056403 -0.999939 
0.00691882 -0.00349159 0.999971 
0.015865 -0.027256 0.999503 
0.0224609 -0.0384843 0.999007 
0.0271172 -0.0369715 0.998949 
0.0264433 -0.029154 0.999225 
0.0312447 -0.0204446 0.999303 
0.0303437 -0.0158864 0.999413 
0.0309519 -0.0109672 0.999461 
0.0321938 -0.00758076 0.999453 
0.0327214 -0.0049507 0.999452 
0.0322718 -0.00329323 0.999474 
0.0320822 -0.00161247 0.999484 
0.0325942 -0.000294902 0.999469 
0.0326883 0.000905283 0.999465 
0.032874 0.00210525 0.999457 
0.032712 0.00351333 0.999459 
0.0328121 0.00499362 0.999449 
0.0326638 0.00687989 0.999443 
0.0325455 0.00912744 0.999429 
0.0321883 0.0120241 0.99941 
0.0318197 0.0156013 0.999372 
0.0315434 0.0200688 0.999301 
0.0311413 0.0257226 0.999184 
0.030856 0.0328362 0.998985 
0.0305901 0.0420009 0.998649 
0.0301881 0.053538 0.99811 
0.0301405 0.0686177 0.997188 
0.0310815 0.0893904 0.995512 
0.0323757 0.115199 0.992815 
0.0345987 0.146372 0.988625 
0.0409395 0.190233 0.980885 
0.048542 0.242309 0.968984 
0.0560751 0.308466 0.949581 
0.0717517 0.349181 0.934304 
0.0890689 0.442311 0.892428 
0.132005 0.477016 0.868925 
0.0784693 0.637354 0.766565 
0.0507096 0.733592 0.677695 
0.0235909 0.981526 0.189863 
-0.0170664 0.972765 -0.231164 
-0.0936639 0.766925 -0.634864 
-0.0546494 0.740913 -0.669374 
-0.113833 0.560803 -0.820087 
-0.0965955 0.466288 -0.879344 
-0.0751347 0.414883 -0.906767 
-0.0717485 0.336496 -0.938948 
-0.0539849 0.30217 -0.951724 
-0.0455134 0.24321 -0.968906 
-0.0377907 0.18907 -0.981236 
-0.0339925 0.144056 -0.988986 
-0.0320148 0.108407 -0.993591 
-0.0307844 0.0825375 -0.996113 
-0.0303475 0.0636538 -0.997511 
-0.0303002 0.0495306 -0.998313 
-0.0302892 0.0386948 -0.998792 
-0.0307921 0.0301332 -0.999072 
-0.0309225 0.0236123 -0.999243 
-0.0317272 0.0183443 -0.999328 
-0.0322303 0.0142482 -0.999379 
-0.0322222 0.0108868 -0.999422 
-0.0323 0.00823734 -0.999444 
-0.0322796 0.00612936 -0.99946 
-0.0323748 0.00446385 -0.999466 
-0.032577 0.00301961 -0.999465 
-0.032742 0.00172598 -0.999463 
-0.0328329 0.000474534 -0.999461 
-0.0329855 -0.000761145 -0.999456 
-0.0328961 -0.00216956 -0.999457 
-0.0324865 -0.0039314 -0.999465 
-0.0319105 -0.0058593 -0.999474 
-0.0312881 -0.00838772 -0.999475 
-0.0302778 -0.012198 -0.999467 
-0.0302869 -0.0162984 -0.999409 
-0.0298952 -0.0222631 -0.999305 
-0.0270196 -0.0291132 -0.999211 
-0.0271703 -0.0354164 -0.999003 
-0.0236427 -0.0400069 -0.99892 
-0.0190266 -0.0300059 -0.999369 
-0.00698288 -0.00575969 -0.999959 
0.00538084 -0.00345137 0.999981 
0.0109121 -0.0268146 0.999581 
0.0200088 -0.0402703 0.998989 
0.0212726 -0.0340209 0.999195 
0.0198052 -0.0259302 0.999468 
0.0259861 -0.0224778 0.99941 
0.0225269 -0.0183244 0.999578 
0.0251849 -0.0134517 0.999592 
0.0251869 -0.00951884 0.999638 
0.0267806 -0.00643281 0.999621 
0.025522 -0.00440358 0.999665 
0.025734 -0.00252835 0.999666 
0.0255695 -0.000809417 0.999673 
0.0259765 0.000449523 0.999663 
0.0258023 0.00161231 0.999666 
0.0264629 0.00282836 0.999646 
0.0259245 0.00421846 0.999655 
0.0262988 0.00578861 0.999638 
0.0258393 0.00776917 0.999636 
0.0257997 0.0102452 0.999615 
0.0254613 0.0133962 0.999586 
0.02532 0.0173328 0.999529 
0.0251801 0.0221987 0.999437 
0.0249853 0.0283074 0.999287 
0.0252052 0.0360094 0.999034 
0.0253448 0.0455726 0.99864 
0.0257466 0.0579742 0.997986 
0.0270655 0.0748794 0.996825 
0.0290703 0.0957232 0.994984 
0.0321933 0.121597 0.992058 
0.0372775 0.155199 0.98718 
0.0490177 0.206287 0.977263 
0.0610914 0.262986 0.962864 
0.0809968 0.314715 0.945724 
0.101974 0.394355 0.913283 
0.147805 0.429364 0.890955 
0.122078 0.634233 0.763443 
0.0958355 0.733593 0.672798 
0.0607669 0.824732 0.562249 
0.0451432 0.975365 0.215926 
-0.0680016 0.905186 -0.419543 
-0.134322 0.690289 -0.710955 
-0.139484 0.506665 -0.850785 
-0.119908 0.424675 -0.89737 
-0.0939398 0.365738 -0.925965 
-0.0777309 0.29574 -0.952101 
-0.0600276 0.262761 -0.962992 
-0.0505868 0.215938 -0.975096 
-0.0422726 0.188909 -0.981084 
-0.0353988 0.147316 -0.988456 
-0.0312453 0.113213 -0.99308 
-0.028321 0.0877396 -0.995741 
-0.0265132 0.0662623 -0.99745 
-0.0257231 0.0525341 -0.998288 
-0.0249266 0.0410594 -0.998846 
-0.0249819 0.0318517 -0.999181 
-0.0249186 0.0251526 -0.999373 
-0.0253889 0.0195177 -0.999487 
-0.0256891 0.0151724 -0.999555 
-0.0258223 0.0117063 -0.999598 
-0.0256002 0.00881251 -0.999634 
-0.0255742 0.00659319 -0.999651 
-0.0255087 0.00487178 -0.999663 
-0.0258085 0.00344981 -0.999661 
-0.0258321 0.00216891 -0.999664 
-0.0261672 0.000959544 -0.999657 
-0.0263761 -0.000299428 -0.999652 
-0.0262719 -0.00172885 -0.999654 
-0.02614 -0.00351675 -0.999652 
-0.0255061 -0.00562688 -0.999659 
-0.0248878 -0.00811082 -0.999658 
-0.0245155 -0.0114857 -0.999634 
-0.0240413 -0.0160868 -0.999582 
-0.0239802 -0.0211618 -0.999489 
-0.0215621 -0.0291437 -0.999343 
-0.0208601 -0.0373776 -0.999084 
-0.0173889 -0.039708 -0.99906 
-0.0131296 -0.0270007 -0.999549 
-0.00565357 -0.00551941 -0.999969 
0.00437617 -0.00441952 0.999981 
0.00800321 -0.0276856 0.999585 
0.0159515 -0.0384027 0.999135 
0.0145244 -0.0413336 0.99904 
0.0161101 -0.0343635 0.99928 
0.0166781 -0.0227266 0.999603 
0.0183192 -0.0161959 0.999701 
0.0193932 -0.0122535 0.999737 
0.0198039 -0.0082718 0.99977 
0.0197111 -0.00582639 0.999789 
0.0193091 -0.00356687 0.999807 
0.0196271 -0.00161778 0.999806 
0.0193998 -4.69302e-05 0.999812 
0.0194957 0.00114041 0.999809 
0.0196395 0.0023373 0.999805 
0.0198573 0.0035048 0.999797 
0.019722 0.00492632 0.999794 
0.0197682 0.00661533 0.999783 
0.0194697 0.00887877 0.999771 
0.0194896 0.011672 0.999742 
0.0194019 0.0152505 0.999696 
0.0193476 0.0196686 0.99962 
0.0193763 0.0251372 0.999496 
0.0196896 0.0321134 0.99929 
0.0200777 0.0406146 0.998973 
0.0208386 0.0515304 0.998454 
0.0225403 0.0662596 0.997548 
0.0248934 0.0845574 0.996108 
0.0285012 0.107423 0.993805 
0.0343499 0.136238 0.990081 
0.0433952 0.173209 0.983929 
0.0641677 0.23944 0.968789 
0.0855326 0.285885 0.954439 
0.0970185 0.285946 0.953322 
0.111589 0.354845 0.928242 
0.127565 0.34755 0.928944 
0.163971 0.57862 0.798945 
0.151183 0.727357 0.669399 
0.103062 0.923121 0.37044 
-0.0193458 0.992432 -0.121255 
-0.127822 0.819651 -0.558421 
-0.162627 0.606961 -0.777916 
-0.159507 0.46614 -0.870213 
-0.137069 0.386133 -0.912203 
-0.108859 0.343553 -0.932803 
-0.0861263 0.280564 -0.955964 
-0.0643127 0.236974 -0.969385 
-0.0480886 0.189543 -0.980694 
-0.0380156 0.155301 -0.987136 
-0.0316438 0.124055 -0.991771 
-0.0271612 0.0982251 -0.994794 
-0.0241484 0.0763158 -0.996791 
-0.021441 0.0602873 -0.997951 
-0.0205823 0.0481347 -0.998629 
-0.0197915 0.0374932 -0.999101 
-0.0191575 0.0297928 -0.999373 
-0.0194817 0.0233229 -0.999538 
-0.0195708 0.0182619 -0.999642 
-0.0196195 0.0142345 -0.999706 
-0.0197259 0.0109182 -0.999746 
-0.0193985 0.00821677 -0.999778 
-0.0192836 0.00613512 -0.999795 
-0.0193255 0.00450021 -0.999803 
-0.0194886 0.00321798 -0.999805 
-0.019439 0.00204351 -0.999809 
-0.0198699 0.0008241 -0.999802 
-0.0199225 -0.000462853 -0.999802 
-0.0198727 -0.00201967 -0.999801 
-0.0198042 -0.00403914 -0.999796 
-0.0190346 -0.00635466 -0.999799 
-0.0185604 -0.00912127 -0.999786 
-0.0188951 -0.0131111 -0.999736 
-0.017948 -0.0178855 -0.999679 
-0.0180926 -0.0234987 -0.99956 
-0.0157648 -0.0309823 -0.999396 
-0.0162478 -0.0379623 -0.999147 
-0.013406 -0.0421125 -0.999023 
-0.0106719 -0.0305858 -0.999475 
-0.004031 -0.00610698 -0.999973 
0.00297876 -0.00536214 0.999981 
0.00594113 -0.0296166 0.999544 
0.0112553 -0.0405915 0.999112 
0.0107681 -0.0399025 0.999146 
0.0135681 -0.030346 0.999448 
0.0116194 -0.0243816 0.999635 
0.0136322 -0.0182731 0.99974 
0.0136697 -0.0133162 0.999818 
0.0150408 -0.00969622 0.99984 
0.0142583 -0.0067009 0.999876 
0.0146627 -0.00438025 0.999883 
0.0145187 -0.00206777 0.999893 
0.014502 -0.000403687 0.999895 
0.0141744 0.000940743 0.999899 
0.0144772 0.00206442 0.999893 
0.014378 0.00315865 0.999892 
0.0147103 0.00429146 0.999883 
0.0143944 0.00580269 0.99988 
0.0144539 0.00772893 0.999866 
0.0143512 0.0102862 0.999844 
0.0145182 0.0134284 0.999805 
0.0145222 0.0173536 0.999744 
0.0146463 0.0221716 0.999647 
0.0150884 0.0282856 0.999486 
0.0155513 0.0357316 0.999241 
0.0164117 0.0451066 0.998848 
0.0180394 0.0575133 0.998182 
0.0203172 0.0727945 0.99714 
0.0237169 0.0920085 0.995476 
0.0289677 0.116526 0.992765 
0.0374582 0.147325 0.988379 
0.0519806 0.193368 0.979749 
0.0692862 0.231259 0.970422 
0.0786456 0.242404 0.966983 
0.114438 0.300864 0.946776 
0.164334 0.398104 0.902501 
0.190402 0.506648 0.840865 
0.201972 0.68201 0.7029 
0.0957789 0.843888 0.527901 
-0.0315046 0.990852 -0.131223 
-0.181452 0.750234 -0.635785 
-0.193648 0.566384 -0.801067 
-0.202558 0.505207 -0.83889 
-0.156321 0.388446 -0.908116 
-0.108747 0.305517 -0.945956 
-0.0811067 0.250862 -0.964619 
-0.0637904 0.218311 -0.973792 
-0.049439 0.184685 -0.981554 
-0.037041 0.147912 -0.988307 
-0.0298812 0.120111 -0.992311 
-0.0245731 0.0966122 -0.995019 
-0.0215635 0.0784944 -0.996681 
-0.0181844 0.0620515 -0.997907 
-0.0164404 0.0489721 -0.998665 
-0.0158892 0.0392107 -0.999105 
-0.0147334 0.0307911 -0.999417 
-0.0148692 0.0243565 -0.999593 
-0.0147895 0.0190874 -0.999709 
-0.0146439 0.0148272 -0.999783 
-0.0146275 0.0113549 -0.999829 
-0.0144458 0.00859857 -0.999859 
-0.014185 0.0063738 -0.999879 
-0.0143019 0.00471141 -0.999887 
-0.0142671 0.00343989 -0.999892 
-0.014262 0.00235247 -0.999896 
-0.0145851 0.00116935 -0.999893 
-0.0146681 -9.71942e-05 -0.999893 
-0.0147091 -0.00163611 -0.999891 
-0.0148041 -0.00370961 -0.999884 
-0.0142536 -0.00615288 -0.99988 
-0.0138321 -0.00901299 -0.999864 
-0.0142646 -0.0128179 -0.999816 
-0.0133753 -0.017718 -0.999754 
-0.0132741 -0.0237565 -0.99963 
-0.0115744 -0.031805 -0.999427 
-0.0113392 -0.0399068 -0.999139 
-0.00929835 -0.0424242 -0.999057 
-0.00753072 -0.0300937 -0.999519 
-0.00280521 -0.00563408 -0.99998 
0.00202052 -0.00661032 0.999976 
0.0040444 -0.0298163 0.999547 
0.00847423 -0.043595 0.999014 
0.0075062 -0.0409222 0.999134 
0.00974351 -0.0331802 0.999402 
0.00880788 -0.0246945 0.999656 
0.0101788 -0.017973 0.999787 
0.0101039 -0.0130752 0.999864 
0.010848 -0.00921466 0.999899 
0.00993138 -0.00629175 0.999931 
0.0106936 -0.0037091 0.999936 
0.0102415 -0.00149756 0.999947 
0.0102612 0.000103683 0.999947 
0.00983124 0.00137707 0.999951 
0.0100677 0.00242234 0.999947 
0.00992369 0.00340369 0.999945 
0.0102831 0.00453298 0.999937 
0.00989125 0.0060263 0.999933 
0.0101287 0.00811382 0.999916 
0.0100772 0.0107863 0.999891 
0.0103126 0.0140743 0.999848 
0.0104276 0.0181071 0.999782 
0.0108293 0.0232113 0.999672 
0.0113395 0.0293916 0.999504 
0.0121505 0.0371952 0.999234 
0.0134819 0.0471887 0.998795 
0.0153436 0.0595139 0.99811 
0.0181551 0.0751332 0.997008 
0.0221682 0.094458 0.995282 
0.0281451 0.11845 0.992561 
0.039444 0.153084 0.987426 
0.0528421 0.1887 0.980612 
0.0555898 0.195521 0.979123 
0.0789365 0.244337 0.966472 
0.107383 0.293005 0.950062 
0.157318 0.357093 0.920726 
0.210568 0.471054 0.856604 
0.254705 0.591911 0.764701 
0.18486 0.832909 0.521622 
0.0330563 0.994761 0.0967323 
-0.107521 0.933643 -0.341685 
-0.238143 0.668295 -0.704749 
-0.212205 0.464903 -0.859554 
-0.152377 0.353923 -0.922779 
-0.106696 0.289877 -0.951098 
-0.0731199 0.235872 -0.96903 
-0.0574193 0.201464 -0.977812 
-0.045052 0.17107 -0.984229 
-0.0361304 0.145054 -0.988764 
-0.0273623 0.115373 -0.992945 
-0.0213244 0.0914492 -0.995582 
-0.0176217 0.0728276 -0.997189 
-0.0144076 0.0571981 -0.998259 
-0.0126069 0.0455628 -0.998882 
-0.0119933 0.0365994 -0.999258 
-0.0109551 0.028719 -0.999528 
-0.0109205 0.0227421 -0.999682 
-0.0106314 0.0178622 -0.999784 
-0.0104439 0.0138387 -0.99985 
-0.0102619 0.0106256 -0.999891 
-0.0101347 0.0080086 -0.999917 
-0.00988763 0.00591249 -0.999934 
-0.0100121 0.00438942 -0.99994 
-0.00983691 0.00328489 -0.999946 
-0.0100015 0.00227883 -0.999948 
-0.0102073 0.00117721 -0.999947 
-0.0103199 -0.000112093 -0.999947 
-0.0104267 -0.00174157 -0.999944 
-0.0104635 -0.0038773 -0.999938 
-0.0102088 -0.00658405 -0.999926 
-0.0101658 -0.00985143 -0.9999 
-0.0104165 -0.0137714 -0.999851 
-0.00963226 -0.0186495 -0.99978 
-0.00989489 -0.0243057 -0.999656 
-0.00861891 -0.0322186 -0.999444 
-0.00831092 -0.0406598 -0.999139 
-0.00674397 -0.0432227 -0.999043 
-0.00503049 -0.0289128 -0.99957 
-0.00221386 -0.00590151 -0.99998 
0.0014412 -0.00684713 0.999975 
0.00295794 -0.0321147 0.99948 
0.00597083 -0.0431827 0.999049 
0.00530074 -0.0414995 0.999125 
0.00719178 -0.0328055 0.999436 
0.00630655 -0.0251806 0.999663 