# vtk DataFile Version 3.0 
Exported using Morpho https://github.com/Morpho-lang/morpho 
ASCII 
DATASET UNSTRUCTURED_GRID 

POINTS 1978 float 
-8.48528 -2.82843 -5.15169e-11 
-8.2652 -2.82843 1.02016e-10 
-8.04263 -2.82843 2.62036e-10 
-7.79231 -2.82843 2.88466e-10 
-7.48656 -2.82843 1.81453e-10 
-7.2423 -2.82843 1.31035e-10 
-6.98632 -2.82843 5.57026e-11 
-6.76721 -2.82843 2.90614e-11 
-6.5581 -2.82843 3.29552e-11 
-6.36003 -2.82843 9.75878e-12 
-6.1387 -2.82843 2.19419e-11 
-5.93586 -2.82843 1.14744e-11 
-5.72907 -2.82843 -2.6434e-12 
-5.52564 -2.82843 -8.84053e-12 
-5.30357 -2.82843 -7.30959e-12 
-5.09895 -2.82843 -3.00465e-11 
-4.88075 -2.82843 -3.15558e-11 
-4.67503 -2.82843 -4.2787e-11 
-4.46115 -2.82843 -5.66184e-11 
-4.25152 -2.82843 -7.04527e-11 
-4.04307 -2.82843 -9.01062e-11 
-3.83375 -2.82843 -1.03631e-10 
-3.62448 -2.82843 -1.35862e-10 
-3.40902 -2.82843 -1.6291e-10 
-3.19277 -2.82843 -2.05279e-10 
-2.97084 -2.82843 -2.46934e-10 
-2.74746 -2.82843 -2.82782e-10 
-2.52642 -2.82843 -3.53033e-10 
-2.30099 -2.82843 -4.83194e-10 
-2.02339 -2.82843 -5.41515e-10 
-1.82109 -2.82843 -4.55142e-10 
-1.63784 -2.82843 -2.95703e-10 
-1.44381 -2.82843 -4.1092e-12 
-1.26993 -2.82843 8.19064e-10 
-1.12636 -2.82843 1.91129e-10 
-0.988316 -2.82843 2.66687e-09 
-0.858104 -2.82843 4.77985e-09 
-0.733368 -2.82843 1.86809e-08 
-0.274271 -2.82843 6.05001e-08 
0.0605271 -2.82843 -2.55111e-08 
0.373539 -2.82843 -3.72431e-08 
0.618258 -2.82843 -1.60793e-08 
0.780782 -2.82843 -7.09904e-09 
0.961465 -2.82843 -3.29052e-09 
1.1112 -2.82843 -6.32388e-10 
1.2546 -2.82843 -7.40726e-10 
1.44436 -2.82843 2.84208e-10 
1.63052 -2.82843 4.22193e-10 
1.84517 -2.82843 5.34783e-10 
2.06847 -2.82843 5.24304e-10 
2.29738 -2.82843 3.89953e-10 
2.52034 -2.82843 3.60467e-10 
2.75844 -2.82843 2.88753e-10 
2.97653 -2.82843 2.41071e-10 
3.19547 -2.82843 2.02697e-10 
3.4164 -2.82843 1.49461e-10 
3.6301 -2.82843 1.40059e-10 
3.83874 -2.82843 1.09251e-10 
4.04741 -2.82843 8.7102e-11 
4.26375 -2.82843 7.57626e-11 
4.47011 -2.82843 5.23414e-11 
4.67763 -2.82843 4.20231e-11 
4.88233 -2.82843 2.90816e-11 
5.08772 -2.82843 2.13128e-11 
5.2941 -2.82843 2.04552e-11 
5.50952 -2.82843 -3.23874e-12 
5.7213 -2.82843 1.06841e-11 
5.94059 -2.82843 -1.01543e-11 
6.16342 -2.82843 -1.3765e-11 
6.37809 -2.82843 -1.74359e-11 
6.60272 -2.82843 -4.21891e-11 
6.82394 -2.82843 -3.867e-11 
7.03563 -2.82843 -8.17514e-11 
7.29324 -2.82843 -9.73832e-11 
7.52529 -2.82843 -1.22337e-10 
7.75417 -2.82843 -2.02568e-10 
8.02608 -2.82843 -3.09467e-10 
8.22057 -2.82843 -8.73482e-11 
8.48528 -2.82843 6.3987e-11 
-8.48528 -2.58641 -7.52275e-11 
-8.26442 -2.57659 1.42952e-15 
-8.0274 -2.59184 -2.29621e-15 
-7.74889 -2.63208 -3.51638e-15 
-7.46967 -2.62208 -3.19349e-14 
-7.21338 -2.62325 3.91021e-15 
-6.97147 -2.59535 2.21095e-15 
-6.73852 -2.59533 1.99913e-15 
-6.51789 -2.5828 1.26153e-15 
-6.29477 -2.60386 -2.54401e-15 
-6.07514 -2.58122 -1.8231e-15 
-5.85929 -2.58568 -9.02429e-16 
-5.64473 -2.58217 -3.06363e-17 
-5.42337 -2.60335 8.00398e-16 
-5.20428 -2.58611 1.61138e-15 
-4.98665 -2.60277 2.54847e-15 
-4.76877 -2.59106 3.68761e-15 
-4.55367 -2.60032 -1.4316e-15 
-4.33691 -2.59548 -1.85855e-15 
-4.12319 -2.59318 -2.39088e-15 
-3.91033 -2.59261 -3.08136e-15 
-3.69689 -2.59107 2.14323e-15 
-3.4812 -2.59508 2.58023e-15 
-3.26169 -2.59393 3.26307e-15 
-3.0389 -2.59709 -6.49174e-14 
-2.81092 -2.59548 3.03228e-14 
-2.583 -2.592 3.45866e-14 
-2.35454 -2.59593 4.61604e-14 
-2.11285 -2.64058 5.71772e-14 
-1.85955 -2.57276 -3.14169e-15 
-1.6618 -2.57268 6.77621e-14 
-1.47613 -2.60934 3.73965e-14 
-1.28611 -2.61277 -3.46279e-13 
-1.11455 -2.59656 4.41965e-14 
-1.0123 -2.44699 -4.69644e-14 
-0.882599 -2.37832 4.9746e-13 
-0.94772 -2.64084 2.44806e-13 
-0.60446 -2.77761 -2.58583e-12 
-0.337869 -2.69149 6.42844e-12 
-0.121039 -2.76542 -5.16151e-12 
0.256798 -2.75659 -9.27957e-13 
0.713746 -2.66303 -6.94822e-13 
0.803782 -2.49116 8.44701e-14 
0.883822 -2.65665 2.88825e-13 
1.05007 -2.62563 -4.38346e-13 
1.20642 -2.56214 6.55041e-14 
1.37302 -2.61705 -6.82758e-14 
1.56671 -2.59343 -3.36786e-15 
1.77908 -2.61543 -3.55018e-14 
2.01396 -2.61324 -4.15145e-14 
2.25501 -2.60728 -3.727e-14 
2.48819 -2.59488 -3.60994e-14 
2.72159 -2.60814 -3.73591e-14 
2.9588 -2.58956 6.46442e-14 
3.18174 -2.59159 -3.5295e-15 
3.40565 -2.59552 -2.9325e-15 
3.62807 -2.58723 -2.2347e-15 
3.84225 -2.59023 2.9594e-15 
4.0638 -2.60027 2.68929e-15 
4.27752 -2.59132 2.05062e-15 
4.48999 -2.59338 1.56639e-15 
4.70081 -2.59057 1.15424e-15 
4.9113 -2.59044 -2.9384e-15 
5.12334 -2.59042 -1.88859e-15 
5.34105 -2.5979 -1.05564e-15 
5.55836 -2.59194 -3.41355e-16 
5.78034 -2.59753 6.31819e-16 
6.00669 -2.59876 1.53561e-15 
6.22829 -2.58735 2.48737e-15 
6.45309 -2.59555 -1.19348e-15 
6.67961 -2.5894 -1.66052e-15 
6.89598 -2.57602 -2.25319e-15 
7.13426 -2.61729 -3.32334e-15 
7.38048 -2.59556 2.25486e-15 
7.60902 -2.58919 2.3844e-15 
7.86253 -2.62575 3.17037e-15 
8.07339 -2.54539 2.3124e-15 
8.30062 -2.61755 9.89833e-16 
8.48528 -2.52741 1.0055e-10 
-8.48528 -2.34169 -9.49983e-12 
-8.24901 -2.34 1.31452e-15 
-8.01303 -2.35049 3.18827e-15 
-7.77672 -2.42189 -2.44583e-15 
-7.58773 -2.23679 -2.76049e-15 
-7.4981 -2.43326 1.63498e-15 
-7.2128 -2.40853 3.16505e-15 
-6.99442 -2.35402 3.89454e-15 
-6.76467 -2.37453 1.54077e-15 
-6.52384 -2.3534 1.94918e-15 
-6.28894 -2.37011 -3.56854e-15 
-6.06452 -2.34286 -2.33484e-15 
-5.84338 -2.34717 -1.1954e-15 
-5.61441 -2.35491 2.6901e-17 
-5.39479 -2.37018 1.16543e-15 
-5.16768 -2.35904 2.09103e-15 
-4.94979 -2.37283 3.28435e-15 
-4.72709 -2.36381 -1.35668e-15 
-4.51007 -2.37183 -1.77255e-15 
-4.29273 -2.36433 -2.34872e-15 
-4.07728 -2.36027 -2.95882e-15 
-3.86191 -2.35875 -3.70579e-15 
-3.64387 -2.359 2.46418e-15 
-3.42493 -2.36273 3.02755e-15 
-3.20106 -2.36361 -6.32904e-14 
-2.97343 -2.36789 2.95613e-14 
-2.74361 -2.36251 3.4743e-14 
-2.51116 -2.36063 3.99842e-14 
-2.26271 -2.39086 4.22984e-14 
-2.03282 -2.41372 4.04174e-14 
-1.79625 -2.32151 -6.45287e-14 
-1.59237 -2.3376 3.10295e-15 
-1.40182 -2.39399 4.07577e-15 
-1.2119 -2.39386 -1.54677e-13 
-1.10036 -2.24665 -4.14115e-13 
-0.793941 -2.18135 7.9042e-14 
-0.811217 -2.59689 9.37976e-13 
-0.470541 -2.73124 -4.92039e-13 
-0.366309 -2.55989 -2.49451e-12 
0.023259 -2.70184 2.70758e-12 
0.413432 -2.64712 -1.85247e-12 
0.525633 -2.72692 -5.03063e-13 
0.705738 -2.3757 -5.29093e-13 
0.894963 -2.28533 1.25347e-12 
0.977185 -2.44338 6.79969e-14 
1.15696 -2.37263 2.55185e-15 
1.37215 -2.38792 1.88099e-13 
1.56547 -2.36535 -7.02583e-14 
1.77498 -2.39437 -3.61481e-15 
1.998 -2.3999 -5.90673e-14 
2.2321 -2.39491 -3.09543e-14 
2.46948 -2.36486 -4.76982e-14 
2.69638 -2.37929 -3.21085e-14 
2.92326 -2.36516 -3.17053e-14 
3.15249 -2.35393 6.47943e-14 
3.37317 -2.36189 -3.00011e-15 
3.59232 -2.35708 -2.74493e-15 
3.81001 -2.35343 3.76098e-15 
4.02656 -2.37083 3.06243e-15 
4.24162 -2.35924 2.472e-15 
4.45572 -2.35983 1.87539e-15 
4.66675 -2.35684 1.42429e-15 
4.87863 -2.35475 -3.63689e-15 
5.08961 -2.35611 -2.46591e-15 
5.30472 -2.36559 -1.45385e-15 
5.52002 -2.36005 -5.8309e-16 
5.74009 -2.3662 5.52698e-16 
5.96241 -2.37017 1.70637e-15 
6.18567 -2.35449 2.82471e-15 
6.41136 -2.35928 -1.32804e-15 
6.63364 -2.35647 -1.97113e-15 
6.85675 -2.32901 -2.52602e-15 
7.07985 -2.37871 -3.25694e-15 
7.30802 -2.38206 2.41212e-15 
7.55026 -2.34785 2.90257e-15 
7.78424 -2.39586 -3.52892e-15 
7.99979 -2.31773 -3.20766e-15 
8.2485 -2.35289 2.52858e-15 
8.48528 -2.29653 5.14633e-11 
-8.48528 -2.10473 -1.25316e-11 
-8.27842 -2.06981 -1.96402e-15 
-8.06596 -2.10362 2.74968e-15 
-7.82642 -2.16435 1.82715e-15 
-7.55001 -2.03005 1.63604e-15 
-7.31743 -2.22676 -2.60855e-15 
-7.07984 -2.1253 1.27329e-15 
-6.83488 -2.13751 2.23647e-15 
-6.61155 -2.14076 2.2872e-15 
-6.36322 -2.14117 -2.56138e-15 
-6.14463 -2.11718 -7.70658e-16 
-5.91736 -2.10863 -8.95778e-16 
-5.69723 -2.12465 -3.31793e-16 
-5.47462 -2.1299 3.14285e-16 
-5.26223 -2.13931 6.90141e-16 
-5.03704 -2.13595 1.06592e-15 
-4.82581 -2.14315 1.7177e-15 
-4.60564 -2.13863 2.37283e-15 
-4.3955 -2.13879 3.09358e-15 
-4.18205 -2.13063 3.66887e-15 
-3.96945 -2.12682 -1.26272e-15 
-3.75572 -2.12706 -1.68927e-15 
-3.5403 -2.12746 -2.08143e-15 
-3.32333 -2.13192 -2.63802e-15 
-3.10058 -2.13567 -3.38434e-15 
-2.87758 -2.13452 -3.78295e-15 
-2.64924 -2.13003 2.25371e-15 
-2.40646 -2.1534 3.34641e-15 
-2.17551 -2.16401 -6.30561e-14 
-1.96037 -2.16793 3.28697e-15 
-1.71406 -2.08403 -5.14662e-16 
-1.50815 -2.12142 -1.97511e-17 
-1.32201 -2.18666 6.46105e-14 
-1.19805 -2.04682 -2.63356e-13 
-0.964399 -2.15588 -2.1684e-13 
-0.784748 -1.97311 -5.34105e-13 
-0.731499 -2.39342 -1.3634e-12 
-0.680889 -2.60996 1.20136e-12 
-0.190987 -2.66099 4.94033e-12 
0.179063 -2.66502 -1.84336e-13 
0.509941 -2.47154 4.37435e-13 
0.608292 -2.5599 3.96572e-13 
0.738768 -2.19081 1.77053e-13 
0.905159 -2.07753 8.86741e-13 
1.07428 -2.20293 -2.60397e-13 
1.15825 -2.03086 -3.18227e-15 
1.31274 -2.19761 3.88103e-14 
1.52466 -2.14026 2.86485e-14 
1.74795 -2.17285 -2.8149e-15 
1.98022 -2.18106 -2.23006e-15 
2.21789 -2.17792 -3.33694e-14 
2.46049 -2.14523 -3.19992e-15 
2.70215 -2.1475 -2.63582e-15 
2.93262 -2.13449 3.91116e-15 
3.16144 -2.12102 2.69866e-15 
3.38516 -2.12952 2.6053e-15 
3.60542 -2.12401 1.6495e-15 
3.82972 -2.12666 1.6384e-15 
4.04465 -2.13786 1.34098e-15 
4.26299 -2.13001 -3.27229e-15 
4.47586 -2.12688 -2.65573e-15 
4.68982 -2.12502 -1.9276e-15 
4.90262 -2.12095 -1.36273e-15 
5.11938 -2.12706 -8.56323e-16 
5.33261 -2.13144 -5.75445e-16 
5.55309 -2.13113 -1.82602e-16 
5.77432 -2.13699 5.27662e-16 
5.99434 -2.13667 1.02514e-15 
6.22212 -2.12494 1.27317e-15 
6.44282 -2.12206 2.28184e-15 
6.66199 -2.11558 3.43131e-15 
6.89508 -2.09791 3.21889e-15 
7.11713 -2.14427 -1.74204e-15 
7.34863 -2.15292 -2.55986e-15 
7.55635 -2.08575 -1.2801e-15 
7.76077 -2.15526 -1.50331e-15 
7.98157 -2.07961 1.76469e-15 
8.2131 -2.12959 2.82108e-15 
8.48528 -2.09733 -2.29507e-11 
-8.48528 -1.83164 -1.47041e-11 
-8.27472 -1.79966 -3.0385e-15 
-7.87537 -1.91084 -3.56821e-15 
[...]
POINT_DATA 1978 
VECTORS vectors float
0.00572155 -0.0110183 0.999923 
0.00419303 -0.0373296 0.999295 
0.00125675 -0.042978 0.999076 
-0.000820096 -0.0345071 0.999405 
-0.000726765 -0.023348 0.999728 
0.000714582 -0.0168915 0.999858 
0.00168049 -0.0110247 0.999938 
0.00310366 -0.00755804 0.999967 
0.00342624 -0.00510439 0.999981 
0.00327324 -0.00359328 0.999989 
0.00310383 -0.0027782 0.999992 
0.00366884 -0.00194352 0.999992 
0.00356673 -0.000957765 0.999994 
0.00317349 0.00015146 0.999995 
0.00311021 0.00145437 0.999995 
0.00317617 0.00279944 0.999991 
0.00320643 0.00435553 0.999986 
0.00324677 0.00600954 0.999977 
0.0032075 0.00805455 0.999963 
0.00328128 0.0104655 0.99994 
0.00330404 0.0134563 0.999904 
0.003209 0.0172172 0.999847 
0.0030186 0.0220065 0.999754 
0.00276007 0.028305 0.999596 
0.00249663 0.0364196 0.999334 
0.00225899 0.0470507 0.99889 
0.0021978 0.0605984 0.99816 
0.00196575 0.078209 0.996935 
0.000688212 0.102038 0.994781 
0.00076477 0.142269 0.989828 
0.00208082 0.182088 0.98328 
0.00194247 0.226841 0.97393 
0.000773549 0.292691 0.956207 
7.28496e-05 0.364166 0.931334 
0.000510543 0.430114 0.902775 
0.000423365 0.50301 0.86428 
-0.000600408 0.573944 0.818894 
-0.000138664 0.643801 0.765193 
0.000979711 0.928114 0.372296 
-0.000191444 0.996528 -0.0832539 
0.000170224 0.877309 -0.479927 
0.0021679 0.720061 -0.693907 
0.000394132 0.605647 -0.795734 
0.000988241 0.504625 -0.863338 
0.0010997 0.424457 -0.905447 
-0.000437684 0.353602 -0.935396 
-0.00136106 0.281764 -0.959483 
-0.00155069 0.226272 -0.974063 
-0.00155881 0.175235 -0.984526 
-0.00143819 0.135037 -0.99084 
-0.00169285 0.101121 -0.994873 
-0.00163983 0.0781239 -0.996943 
-0.00181747 0.0587256 -0.998273 
-0.00258642 0.0458259 -0.998947 
-0.00238605 0.0356411 -0.999362 
-0.00270566 0.0278559 -0.999609 
-0.0031188 0.022058 -0.999752 
-0.00319934 0.0173091 -0.999845 
-0.00309978 0.0134915 -0.999905 
-0.00318667 0.0103702 -0.999942 
-0.00341723 0.00793376 -0.999963 
-0.00351501 0.00599414 -0.999976 
-0.00357196 0.0043656 -0.999984 
-0.00351076 0.00291284 -0.99999 
-0.00325051 0.00161117 -0.999994 
-0.0031063 0.00035616 -0.999996 
-0.00292161 -0.000812029 -0.999996 
-0.0026903 -0.00178029 -0.999995 
-0.00277394 -0.00273944 -0.999993 
-0.00266445 -0.0039112 -0.999989 
-0.00260001 -0.00566412 -0.999981 
-0.00274713 -0.00834168 -0.999962 
-0.00163436 -0.0120264 -0.999927 
-0.00119949 -0.0178153 -0.999841 
-0.00172919 -0.0245615 -0.999697 
-0.000718589 -0.0327448 -0.999464 
-0.00124355 -0.0430336 -0.999073 
-0.0036214 -0.0384891 -0.999253 
-0.00494545 -0.00847135 -0.999952 
0.00873247 -0.0051735 0.999949 
0.0149312 -0.0295486 0.999452 
0.0184858 -0.0381379 0.999101 
0.0196441 -0.0341945 0.999222 
0.0187595 -0.0252725 0.999505 
0.0202955 -0.0168015 0.999653 
0.0222199 -0.0118011 0.999684 
0.0230038 -0.00795048 0.999704 
0.0247007 -0.00547542 0.99968 
0.0233415 -0.00375707 0.999721 
0.0249926 -0.00250464 0.999685 
0.0250691 -0.00140698 0.999685 
0.0254708 -0.00030978 0.999676 
0.0243625 0.000878589 0.999703 
0.0255955 0.00223306 0.99967 
0.0245263 0.00368425 0.999692 
0.0252952 0.00533502 0.999666 
0.0245901 0.00724681 0.999671 
0.0247833 0.00962709 0.999647 
0.0247267 0.0125194 0.999616 
0.0244896 0.0161204 0.99957 
0.0242033 0.0206844 0.999493 
0.0233144 0.026555 0.999376 
0.0228459 0.0341969 0.999154 
0.0219602 0.0440497 0.998788 
0.0212605 0.0569152 0.998153 
0.0208066 0.073498 0.997078 
0.0201875 0.0953245 0.995242 
0.017003 0.126347 0.991841 
0.0209173 0.169148 0.985369 
0.0229511 0.214042 0.976555 
0.0211107 0.274352 0.961398 
0.023407 0.358391 0.933278 
0.0270493 0.452346 0.891432 
0.0514052 0.474773 0.878606 
0.0764905 0.535247 0.841225 
0.0301266 0.545824 0.837358 
0.00758421 0.703374 0.710779 
0.0251929 0.868632 0.494817 
0.00702207 0.961148 0.275943 
-0.0100616 0.927773 -0.373009 
-0.0309324 0.656069 -0.754067 
-0.055863 0.614944 -0.786589 
-0.0214071 0.563511 -0.825831 
-0.0284698 0.457258 -0.888878 
-0.0280705 0.377798 -0.925462 
-0.0205739 0.303305 -0.952671 
-0.0207535 0.23818 -0.970999 
-0.0187614 0.185361 -0.982491 
-0.0187679 0.141289 -0.989791 
-0.0191434 0.106246 -0.994156 
-0.0202602 0.0805561 -0.996544 
-0.0204673 0.0614808 -0.997899 
-0.0220667 0.0469465 -0.998654 
-0.0225802 0.0367299 -0.99907 
-0.0230526 0.0287278 -0.999322 
-0.0237611 0.0224637 -0.999465 
-0.0241283 0.0175079 -0.999556 
-0.0240905 0.0135082 -0.999619 
-0.0249573 0.0104007 -0.999634 
-0.0250255 0.00790071 -0.999656 
-0.0253378 0.00591412 -0.999662 
-0.02536 0.00423522 -0.999669 
-0.0252986 0.00277908 -0.999676 
-0.0247196 0.00142086 -0.999694 
-0.02501 0.000186 -0.999687 
-0.0245105 -0.000962864 -0.999699 
-0.0243627 -0.00211645 -0.999701 
-0.0247341 -0.00337637 -0.999688 
-0.0238705 -0.00491322 -0.999703 
-0.0238383 -0.0071911 -0.99969 
-0.0239418 -0.0103019 -0.99966 
-0.0208027 -0.0146698 -0.999676 
-0.0216104 -0.0210531 -0.999545 
-0.0207481 -0.0282317 -0.999386 
-0.0183045 -0.0364287 -0.999169 
-0.0194784 -0.0361499 -0.999157 
-0.0128425 -0.0272346 -0.999547 
-0.00919338 -0.0039424 -0.99995 
0.0087283 -0.00432202 0.999953 
0.0184248 -0.0269054 0.999468 
0.0256177 -0.0378542 0.998955 
0.0275568 -0.0345595 0.999023 
0.0302135 -0.0284135 0.99914 
0.0263854 -0.0254382 0.999328 
0.0297659 -0.0173947 0.999406 
0.0328588 -0.0129632 0.999376 
0.0324874 -0.00928738 0.999429 
0.0343556 -0.00608416 0.999391 
0.0338735 -0.00397622 0.999418 
0.0352265 -0.00254145 0.999376 
0.0349936 -0.00121535 0.999387 
0.0352587 -6.95348e-06 0.999378 
0.0347976 0.00117314 0.999394 
0.0353064 0.00255459 0.999373 
0.0349682 0.00400194 0.99938 
0.0352681 0.00572865 0.999362 
0.0348874 0.00776711 0.999361 
0.0348499 0.0103061 0.999339 
0.0345847 0.0134763 0.999311 
0.0341445 0.01745 0.999265 
0.0335388 0.0225422 0.999183 
0.032794 0.0289959 0.999042 
0.0321784 0.0373804 0.998783 
0.0312647 0.048212 0.998348 
0.0306665 0.0622019 0.997592 
0.0303161 0.0806346 0.996283 
0.0294179 0.106662 0.99386 
0.0289383 0.138528 0.989936 
0.0339962 0.179101 0.983243 
0.0377649 0.227803 0.972975 
0.039438 0.285833 0.957468 
0.0444568 0.369371 0.928218 
0.0659828 0.414427 0.907688 
0.111374 0.529189 0.841163 
0.0446826 0.606814 0.793587 
0.0200631 0.757415 0.652625 
0.0510496 0.919807 0.389037 
0.00196377 0.999933 0.0113551 
-0.0462194 0.854712 -0.51704 
-0.0152482 0.79314 -0.608848 
-0.0907154 0.64429 -0.759382 
-0.0716139 0.536455 -0.840885 
-0.0513898 0.486785 -0.872009 
-0.0544537 0.382752 -0.922245 
-0.0395564 0.308826 -0.950296 
-0.0357612 0.243145 -0.969331 
-0.0314197 0.187905 -0.981685 
-0.0300465 0.143909 -0.989135 
-0.029012 0.110879 -0.99341 
-0.0303536 0.0836759 -0.996031 
-0.0302356 0.0650534 -0.997424 
-0.0312121 0.0500101 -0.998261 
-0.0321417 0.0388231 -0.998729 
-0.0325659 0.0305928 -0.999001 
-0.0334196 0.0238366 -0.999157 
-0.0338792 0.0186795 -0.999251 
-0.0341781 0.0144342 -0.999312 
-0.034828 0.0111015 -0.999332 
-0.0350333 0.0084213 -0.999351 
-0.0352156 0.00629099 -0.99936 
-0.0353212 0.00455879 -0.999366 
-0.03539 0.00309889 -0.999369 
-0.035218 0.00175631 -0.999378 
-0.0353817 0.000519095 -0.999374 
-0.0351368 -0.000667912 -0.999382 
-0.0349015 -0.00192585 -0.999389 
-0.0348965 -0.00337883 -0.999385 
-0.0342242 -0.00505297 -0.999401 
-0.0337662 -0.00731614 -0.999403 
-0.0334731 -0.0106173 -0.999383 
-0.0318432 -0.0144739 -0.999388 
-0.0309068 -0.0198625 -0.999325 
-0.0300057 -0.0272932 -0.999177 
-0.0275895 -0.0349841 -0.999007 
-0.0265903 -0.0380586 -0.998922 
-0.0187296 -0.0272331 -0.999454 
-0.00948752 -0.00563318 -0.999939 
0.00691156 -0.00348589 0.99997 
0.015865 -0.027256 0.999503 
0.0224609 -0.0384843 0.999007 
0.0271172 -0.0369715 0.998948 
0.0264433 -0.029154 0.999225 
0.0312447 -0.0204446 0.999303 
0.0303437 -0.0158864 0.999413 
0.0309519 -0.0109672 0.999461 
0.0321938 -0.00758076 0.999453 
0.0327214 -0.0049507 0.999452 
0.0322718 -0.00329323 0.999474 
0.0320822 -0.00161247 0.999484 
0.0325942 -0.000294902 0.999469 
0.0326883 0.000905283 0.999465 
0.032874 0.00210525 0.999457 
0.032712 0.00351333 0.999459 
0.0328121 0.00499362 0.999449 
0.0326638 0.00687989 0.999443 
0.0325455 0.00912744 0.999429 
0.0321883 0.0120241 0.99941 
0.0318197 0.0156013 0.999372 
0.0315434 0.0200688 0.999301 
0.0311413 0.0257226 0.999184 
0.030856 0.0328362 0.998984 
0.0305901 0.0420009 0.998649 
0.0301881 0.053538 0.998109 
0.0301405 0.0686177 0.997188 
0.0310815 0.0893904 0.995512 
0.0323757 0.115199 0.992815 
0.0345987 0.146372 0.988624 
0.0409395 0.190233 0.980885 
0.0485419 0.242309 0.968984 
0.0560751 0.308466 0.949581 
0.0717517 0.349181 0.934304 
0.0890688 0.442311 0.892428 
0.132005 0.477016 0.868925 
0.0784693 0.637354 0.766565 
0.0507096 0.733592 0.677695 
0.0235909 0.981527 0.189863 
-0.0170664 0.972765 -0.231164 
-0.0936639 0.766926 -0.634864 
-0.0546494 0.740913 -0.669374 
-0.113833 0.560803 -0.820087 
-0.0965955 0.466288 -0.879344 
-0.0751347 0.414883 -0.906767 
-0.0717485 0.336496 -0.938948 
-0.0539849 0.30217 -0.951724 
-0.0455134 0.24321 -0.968905 
-0.0377906 0.18907 -0.981236 
-0.0339925 0.144056 -0.988986 
-0.0320148 0.108407 -0.993591 
-0.0307844 0.0825375 -0.996112 
-0.0303475 0.0636538 -0.997511 
-0.0303002 0.0495306 -0.998313 
-0.0302892 0.0386948 -0.998792 
-0.0307921 0.0301332 -0.999072 
-0.0309225 0.0236123 -0.999243 
-0.0317272 0.0183443 -0.999328 
-0.0322303 0.0142482 -0.999379 
-0.0322222 0.0108868 -0.999422 
-0.0323 0.00823734 -0.999444 
-0.0322796 0.00612936 -0.99946 
-0.0323748 0.00446385 -0.999466 
-0.032577 0.00301961 -0.999465 
-0.032742 0.00172598 -0.999462 
-0.0328329 0.000474534 -0.999461 
-0.0329855 -0.000761145 -0.999456 
-0.0328961 -0.00216956 -0.999457 
-0.0324865 -0.0039314 -0.999465 
-0.0319105 -0.0058593 -0.999474 
-0.0312881 -0.00838771 -0.999475 
-0.0302777 -0.012198 -0.999467 
-0.0302869 -0.0162984 -0.999408 
-0.0298952 -0.0222631 -0.999305 
-0.0270196 -0.0291132 -0.999211 
-0.0271703 -0.0354164 -0.999003 
-0.0236427 -0.0400069 -0.99892 
-0.0190266 -0.0300059 -0.999369 
-0.0069763 -0.00575175 -0.999959 
0.00537503 -0.00344563 0.99998 
0.0109121 -0.0268146 0.999581 
0.0200088 -0.0402703 0.998989 
0.0212726 -0.0340209 0.999195 
0.0198051 -0.0259302 0.999468 
0.0259861 -0.0224778 0.99941 
0.0225269 -0.0183244 0.999578 
0.0251849 -0.0134517 0.999592 
0.0251869 -0.00951884 0.999638 
0.0267806 -0.00643281 0.999621 
0.025522 -0.00440358 0.999665 
0.025734 -0.00252835 0.999666 
0.0255695 -0.000809417 0.999673 
0.0259765 0.000449523 0.999663 
0.0258023 0.00161231 0.999666 
0.0264629 0.00282836 0.999646 
0.0259245 0.00421846 0.999655 
0.0262988 0.00578861 0.999637 
0.0258393 0.00776917 0.999636 
0.0257997 0.0102452 0.999615 
0.0254613 0.0133962 0.999586 
0.02532 0.0173328 0.999529 
0.0251801 0.0221987 0.999437 
0.0249853 0.0283074 0.999287 
0.0252052 0.0360094 0.999034 
0.0253448 0.0455726 0.99864 
0.0257466 0.0579742 0.997986 
0.0270655 0.0748794 0.996825 
0.0290703 0.0957232 0.994984 
0.0321933 0.121597 0.992057 
0.0372775 0.155199 0.98718 
0.0490177 0.206287 0.977263 
0.0610914 0.262986 0.962864 
0.0809968 0.314715 0.945724 
0.101974 0.394355 0.913283 
0.147805 0.429364 0.890955 
0.122078 0.634233 0.763443 
0.0958355 0.733593 0.672798 
0.0607669 0.824732 0.56225 
0.0451432 0.975365 0.215926 
-0.0680016 0.905185 -0.419542 
-0.134322 0.69029 -0.710955 
-0.139484 0.506665 -0.850785 
-0.119908 0.424675 -0.89737 
-0.0939398 0.365738 -0.925965 
-0.0777308 0.29574 -0.952101 
-0.0600276 0.262761 -0.962992 
-0.0505868 0.215938 -0.975096 
-0.0422726 0.188909 -0.981084 
-0.0353988 0.147316 -0.988456 
-0.0312453 0.113213 -0.993079 
-0.028321 0.0877395 -0.995741 
-0.0265132 0.0662623 -0.99745 
-0.0257231 0.0525341 -0.998288 
-0.0249266 0.0410594 -0.998846 
-0.0249819 0.0318517 -0.99918 
-0.0249186 0.0251526 -0.999373 
-0.0253889 0.0195177 -0.999487 
-0.0256891 0.0151724 -0.999555 
-0.0258223 0.0117063 -0.999598 
-0.0256002 0.00881251 -0.999634 
-0.0255742 0.00659319 -0.999651 
-0.0255087 0.00487178 -0.999663 
-0.0258085 0.00344981 -0.999661 
-0.0258321 0.00216891 -0.999664 
-0.0261672 0.000959544 -0.999657 
-0.0263761 -0.000299428 -0.999652 
-0.0262719 -0.00172885 -0.999653 
-0.02614 -0.00351674 -0.999652 
-0.0255061 -0.00562688 -0.999659 
-0.0248878 -0.00811082 -0.999657 
-0.0245155 -0.0114857 -0.999634 
-0.0240413 -0.0160868 -0.999582 
-0.0239802 -0.0211618 -0.999489 
-0.0215621 -0.0291437 -0.999343 
-0.0208601 -0.0373776 -0.999084 
-0.0173889 -0.039708 -0.99906 
-0.0131296 -0.0270007 -0.999549 
-0.00564823 -0.00551136 -0.999969 
0.00437188 -0.00441289 0.999981 
0.00800321 -0.0276856 0.999585 
0.0159515 -0.0384027 0.999135 
0.0145244 -0.0413336 0.99904 
0.0161101 -0.0343634 0.99928 
0.016678 -0.0227266 0.999603 
0.0183192 -0.0161959 0.999701 
0.0193932 -0.0122535 0.999737 
0.0198039 -0.0082718 0.99977 
0.0197111 -0.00582639 0.999789 
0.0193091 -0.00356687 0.999807 
0.0196271 -0.00161778 0.999806 
0.0193998 -4.69302e-05 0.999812 
0.0194957 0.00114041 0.999809 
0.0196395 0.0023373 0.999804 
0.0198573 0.0035048 0.999797 
0.019722 0.00492632 0.999793 
0.0197681 0.00661533 0.999783 
0.0194697 0.00887877 0.999771 
0.0194896 0.011672 0.999742 
0.0194019 0.0152505 0.999696 
0.0193476 0.0196686 0.999619 
0.0193762 0.0251372 0.999496 
0.0196896 0.0321134 0.99929 
0.0200777 0.0406146 0.998973 
0.0208386 0.0515304 0.998454 
0.0225403 0.0662595 0.997548 
0.0248934 0.0845574 0.996108 
0.0285012 0.107423 0.993805 
0.0343499 0.136238 0.99008 
0.0433952 0.173209 0.983929 
0.0641677 0.23944 0.968789 
0.0855326 0.285885 0.954439 
0.0970185 0.285946 0.953322 
0.111589 0.354845 0.928242 
0.127565 0.34755 0.928944 
0.163971 0.57862 0.798944 
0.151183 0.727357 0.669399 
0.103062 0.923121 0.37044 
-0.0193458 0.992433 -0.121255 
-0.127822 0.819651 -0.558421 
-0.162627 0.60696 -0.777915 
-0.159507 0.46614 -0.870213 
-0.137069 0.386133 -0.912203 
-0.108859 0.343553 -0.932803 
-0.0861262 0.280564 -0.955964 
-0.0643127 0.236974 -0.969385 
-0.0480886 0.189543 -0.980694 
-0.0380156 0.155301 -0.987136 
-0.0316438 0.124055 -0.991771 
-0.0271612 0.0982251 -0.994794 
-0.0241484 0.0763158 -0.996791 
-0.021441 0.0602873 -0.997951 
-0.0205823 0.0481347 -0.998629 
-0.0197915 0.0374932 -0.999101 
-0.0191575 0.0297928 -0.999373 
-0.0194817 0.0233229 -0.999538 
-0.0195708 0.0182619 -0.999642 
-0.0196195 0.0142345 -0.999706 
-0.0197259 0.0109182 -0.999746 
-0.0193985 0.00821677 -0.999778 
-0.0192836 0.00613512 -0.999795 
-0.0193255 0.00450021 -0.999803 
-0.0194886 0.00321798 -0.999805 
-0.019439 0.00204351 -0.999809 
-0.0198699 0.0008241 -0.999802 
-0.0199225 -0.000462852 -0.999802 
-0.0198727 -0.00201967 -0.999801 
-0.0198042 -0.00403914 -0.999796 
-0.0190346 -0.00635466 -0.999799 
-0.0185604 -0.00912127 -0.999786 
-0.0188951 -0.0131111 -0.999736 
-0.017948 -0.0178855 -0.999679 
-0.0180926 -0.0234987 -0.99956 
-0.0157648 -0.0309823 -0.999396 
-0.0162478 -0.0379623 -0.999147 
-0.013406 -0.0421125 -0.999023 
-0.0106719 -0.0305858 -0.999475 
-0.00402736 -0.00609902 -0.999973 
0.00297585 -0.00535445 0.999981 
0.00594113 -0.0296166 0.999544 
0.0112553 -0.0405915 0.999112 
0.0107681 -0.0399025 0.999146 
0.0135681 -0.030346 0.999447 
0.0116194 -0.0243816 0.999635 
0.0136322 -0.0182731 0.99974 
0.0136697 -0.0133162 0.999818 
0.0150408 -0.00969622 0.99984 
0.0142583 -0.0067009 0.999876 
0.0146627 -0.00438025 0.999883 
0.0145187 -0.00206777 0.999893 
0.014502 -0.000403687 0.999895 
0.0141744 0.000940743 0.999899 
0.0144772 0.00206442 0.999893 
0.014378 0.00315865 0.999892 
0.0147103 0.00429146 0.999883 
0.0143944 0.00580269 0.99988 
0.0144539 0.00772893 0.999866 
0.0143512 0.0102862 0.999844 
0.0145182 0.0134284 0.999805 
0.0145221 0.0173536 0.999744 
0.0146463 0.0221716 0.999647 
0.0150884 0.0282856 0.999486 
0.0155513 0.0357316 0.999241 
0.0164117 0.0451066 0.998847 
0.0180394 0.0575133 0.998182 
0.0203172 0.0727945 0.99714 
0.0237169 0.0920084 0.995476 
0.0289677 0.116526 0.992765 
0.0374582 0.147325 0.988379 
0.0519805 0.193368 0.979748 
0.0692862 0.231259 0.970422 
0.0786456 0.242404 0.966983 
0.114438 0.300864 0.946776 
0.164334 0.398104 0.902501 
0.190402 0.506648 0.840865 
0.201972 0.68201 0.7029 
0.095779 0.843888 0.527901 
-0.0315046 0.990852 -0.131223 
-0.181452 0.750234 -0.635786 
-0.193648 0.566384 -0.801067 
-0.202558 0.505207 -0.83889 
-0.156321 0.388446 -0.908115 
-0.108747 0.305517 -0.945956 
-0.0811067 0.250862 -0.964619 
-0.0637904 0.218311 -0.973792 
-0.049439 0.184685 -0.981554 
-0.037041 0.147912 -0.988307 
-0.0298812 0.120111 -0.992311 
-0.0245731 0.0966121 -0.995019 
-0.0215635 0.0784944 -0.996681 
-0.0181844 0.0620515 -0.997907 
-0.0164404 0.0489721 -0.998665 
-0.0158892 0.0392107 -0.999105 
-0.0147334 0.0307911 -0.999417 
-0.0148692 0.0243565 -0.999593 
-0.0147895 0.0190874 -0.999709 
-0.0146439 0.0148272 -0.999783 
-0.0146275 0.0113549 -0.999829 
-0.0144458 0.00859857 -0.999859 
-0.014185 0.0063738 -0.999879 
-0.0143019 0.00471141 -0.999887 
-0.0142671 0.00343989 -0.999892 
-0.014262 0.00235247 -0.999896 
-0.0145851 0.00116935 -0.999893 
-0.0146681 -9.71942e-05 -0.999892 
-0.0147091 -0.00163611 -0.999891 
-0.0148041 -0.0037096 -0.999884 
-0.0142536 -0.00615288 -0.99988 
-0.0138321 -0.00901299 -0.999864 
-0.0142646 -0.0128179 -0.999816 
-0.0133753 -0.017718 -0.999754 
-0.0132741 -0.0237565 -0.99963 
-0.0115744 -0.031805 -0.999427 
-0.0113392 -0.0399068 -0.999139 
-0.00929835 -0.0424242 -0.999056 
-0.00753072 -0.0300937 -0.999519 
-0.00280245 -0.00562581 -0.99998 
0.00201866 -0.00660165 0.999976 
0.0040444 -0.0298163 0.999547 
0.00847422 -0.043595 0.999013 
0.0075062 -0.0409222 0.999134 
0.00974351 -0.0331802 0.999402 
0.00880788 -0.0246945 0.999656 
0.0101788 -0.017973 0.999787 
0.0101039 -0.0130752 0.999864 
0.010848 -0.00921466 0.999899 
0.00993138 -0.00629175 0.999931 
0.0106936 -0.0037091 0.999936 
0.0102415 -0.00149756 0.999947 
0.0102612 0.000103683 0.999947 
0.00983124 0.00137707 0.999951 
0.0100677 0.00242234 0.999946 
0.00992369 0.00340369 0.999945 
0.0102831 0.00453298 0.999937 
0.00989125 0.0060263 0.999933 
0.0101287 0.00811382 0.999916 
0.0100772 0.0107863 0.999891 
0.0103126 0.0140743 0.999848 
0.0104276 0.0181071 0.999782 
0.0108293 0.0232113 0.999672 
0.0113395 0.0293916 0.999504 
0.0121505 0.0371952 0.999234 
0.0134819 0.0471887 0.998795 
0.0153436 0.0595139 0.99811 
0.0181551 0.0751332 0.997008 
0.0221682 0.0944579 0.995282 
0.0281451 0.11845 0.992561 
0.039444 0.153084 0.987426 
0.0528421 0.1887 0.980612 
0.0555898 0.195521 0.979123 
0.0789365 0.244337 0.966472 
0.107383 0.293005 0.950062 
0.157318 0.357093 0.920725 
0.210568 0.471053 0.856604 
0.254705 0.591911 0.764701 
0.18486 0.832909 0.521622 
0.0330563 0.994761 0.0967323 
-0.107521 0.933643 -0.341686 
-0.238143 0.668294 -0.704749 
-0.212205 0.464903 -0.859554 
-0.152377 0.353923 -0.922779 
-0.106696 0.289877 -0.951098 
-0.0731199 0.235872 -0.96903 
-0.0574193 0.201464 -0.977812 
-0.045052 0.17107 -0.984228 
-0.0361304 0.145054 -0.988764 
-0.0273623 0.115373 -0.992945 
-0.0213244 0.0914492 -0.995581 
-0.0176217 0.0728276 -0.997189 
-0.0144076 0.057198 -0.998259 
-0.0126069 0.0455628 -0.998882 
-0.0119933 0.0365994 -0.999258 
-0.0109551 0.028719 -0.999528 
-0.0109205 0.0227421 -0.999682 
-0.0106314 0.0178622 -0.999784 
-0.0104439 0.0138387 -0.99985 
-0.0102619 0.0106256 -0.999891 
-0.0101347 0.0080086 -0.999917 
-0.00988763 0.00591249 -0.999934 
-0.0100121 0.00438941 -0.99994 
-0.00983691 0.00328489 -0.999946 
-0.0100015 0.00227883 -0.999947 
-0.0102073 0.00117721 -0.999947 
-0.0103199 -0.000112093 -0.999947 
-0.0104267 -0.00174157 -0.999944 
-0.0104635 -0.0038773 -0.999938 
-0.0102088 -0.00658405 -0.999926 
-0.0101658 -0.00985143 -0.9999 
-0.0104165 -0.0137714 -0.999851 
-0.00963225 -0.0186495 -0.99978 
-0.00989488 -0.0243057 -0.999656 
-0.0086189 -0.0322186 -0.999444 
-0.00831092 -0.0406598 -0.999139 
-0.00674397 -0.0432227 -0.999043 
-0.00503049 -0.0289128 -0.999569 
-0.00221184 -0.00589332 -0.99998 
0.00143994 -0.00683825 0.999975 
0.00295794 -0.0321147 0.99948 
0.00597083 -0.0431827 0.999049 
0.00530074 -0.0414995 0.999125 
0.00719178 -0.0328055 0.999436 
0.00630655 -0.0251806 0.999663 