# vtk DataFile Version 3.0 
Exported using Morpho https://github.com/Morpho-lang/morpho 
ASCII 
DATASET UNSTRUCTURED_GRID 

POINTS 1978 float 
-8.48528 -2.82843 -2.96782e-09 
-8.2652 -2.82843 5.87699e-09 
-8.04263 -2.82842 1.50955e-08 
-7.79231 -2.82843 1.66181e-08 
-7.48656 -2.82843 1.04533e-08 
-7.2423 -2.82843 7.54878e-09 
-6.98631 -2.82842 3.20895e-09 
-6.76721 -2.82843 1.67419e-09 
-6.5581 -2.82843 1.8985e-09 
-6.36003 -2.82843 5.6219e-10 
-6.1387 -2.82843 1.26404e-09 
-5.93586 -2.82843 6.61025e-10 
-5.72907 -2.82843 -1.52283e-10 
-5.52564 -2.82843 -5.09291e-10 
-5.30357 -2.82843 -4.21096e-10 
-5.09895 -2.82843 -1.73094e-09 
-4.88075 -2.82843 -1.81789e-09 
-4.67503 -2.82843 -2.4649e-09 
-4.46115 -2.82843 -3.26171e-09 
-4.25152 -2.82843 -4.05869e-09 
-4.04307 -2.82843 -5.1909e-09 
-3.83375 -2.82843 -5.97002e-09 
-3.62448 -2.82843 -7.82682e-09 
-3.40902 -2.82843 -9.385e-09 
-3.19277 -2.82843 -1.18259e-08 
-2.97084 -2.82843 -1.42255e-08 
-2.74746 -2.82843 -1.62907e-08 
-2.52642 -2.82843 -2.03378e-08 
-2.30099 -2.82843 -2.78362e-08 
-2.02339 -2.82843 -3.1196e-08 
-1.82109 -2.82843 -2.62201e-08 
-1.63784 -2.82843 -1.70351e-08 
-1.44381 -2.82843 -2.36726e-10 
-1.26993 -2.82843 4.71852e-08 
-1.12636 -2.82843 1.10107e-08 
-0.988316 -2.82842 1.53635e-07 
-0.858104 -2.82843 2.75361e-07 
-0.733368 -2.82842 1.07618e-06 
-0.274271 -2.82841 3.48533e-06 
0.0605271 -2.82841 -1.46966e-06 
0.373539 -2.82841 -2.14553e-06 
0.618258 -2.82842 -9.26308e-07 
0.780782 -2.82843 -4.08966e-07 
0.961465 -2.82842 -1.89563e-07 
1.1112 -2.82843 -3.6431e-08 
1.2546 -2.82843 -4.26723e-08 
1.44436 -2.82843 1.63729e-08 
1.63052 -2.82843 2.4322e-08 
1.84517 -2.82843 3.08081e-08 
2.06847 -2.82843 3.02045e-08 
2.29738 -2.82843 2.24647e-08 
2.52034 -2.82843 2.0766e-08 
2.75844 -2.82843 1.66347e-08 
2.97653 -2.82843 1.38878e-08 
3.19547 -2.82843 1.16771e-08 
3.4164 -2.82843 8.61024e-09 
3.6301 -2.82843 8.06863e-09 
3.83874 -2.82843 6.2938e-09 
4.04741 -2.82843 5.01783e-09 
4.26375 -2.82843 4.36458e-09 
4.47011 -2.82843 3.01532e-09 
4.67763 -2.82843 2.42089e-09 
4.88233 -2.82843 1.67535e-09 
5.08772 -2.82843 1.2278e-09 
5.2941 -2.82843 1.1784e-09 
5.50952 -2.82843 -1.86579e-10 
5.7213 -2.82843 6.15495e-10 
5.94059 -2.82843 -5.84977e-10 
6.16342 -2.82843 -7.92984e-10 
6.37809 -2.82843 -1.00446e-09 
6.60272 -2.82843 -2.43046e-09 
6.82394 -2.82843 -2.22773e-09 
7.03563 -2.82843 -4.70959e-09 
7.29324 -2.82843 -5.61012e-09 
7.52529 -2.82843 -7.0477e-09 
7.75417 -2.82843 -1.16697e-08 
8.02608 -2.82843 -1.7828e-08 
8.22057 -2.82843 -5.03201e-09 
8.48528 -2.82843 3.6862e-09 
-8.48528 -2.58641 -4.33376e-09 
-8.25781 -2.57452 8.23543e-14 
-8.02144 -2.59303 -1.32273e-13 
-7.7395 -2.63478 -2.02558e-13 
-7.4588 -2.6213 -1.83972e-12 
-7.20489 -2.62183 2.2527e-13 
-6.96716 -2.59338 1.27373e-13 
-6.73559 -2.59376 1.1517e-13 
-6.5162 -2.58332 7.26773e-14 
-6.29421 -2.60326 -1.46556e-13 
-6.07625 -2.58135 -1.05025e-13 
-5.86069 -2.58605 -5.19873e-14 
-5.64606 -2.58252 -1.76488e-15 
-5.42461 -2.60339 4.61095e-14 
-5.20546 -2.58622 9.28285e-14 
-4.98753 -2.60284 1.46813e-13 
-4.76953 -2.59115 2.12436e-13 
-4.5542 -2.60035 -8.24748e-14 
-4.33737 -2.5955 -1.07071e-13 
-4.12349 -2.59331 -1.3774e-13 
-3.91044 -2.59273 -1.77519e-13 
-3.69687 -2.59116 1.23462e-13 
-3.48104 -2.5951 1.48636e-13 
-3.26126 -2.59389 1.87971e-13 
-3.03815 -2.5969 6.66299e-12 
-2.80996 -2.59524 1.74684e-12 
-2.58161 -2.59181 1.99247e-12 
-2.35273 -2.59559 2.65921e-12 
-2.11277 -2.64102 -5.86852e-12 
-1.86082 -2.57392 -1.80995e-13 
-1.66052 -2.57237 -6.95493e-12 
-1.47451 -2.61056 2.15437e-12 
-1.28619 -2.5951 3.57426e-11 
-1.11831 -2.62557 2.54622e-12 
-1.02692 -2.43808 -2.70547e-12 
-0.884477 -2.3785 -5.13471e-11 
-0.958555 -2.62804 -2.52686e-11 
-0.608433 -2.7752 2.66907e-10 
-0.319643 -2.6927 -6.63536e-10 
-0.117327 -2.7663 5.32766e-10 
0.252748 -2.75646 9.57824e-11 
0.722387 -2.66076 7.17186e-11 
0.805999 -2.48629 -8.66977e-12 
0.89068 -2.6557 -2.98122e-11 
1.05584 -2.62296 4.52455e-11 
1.21181 -2.56198 -6.72319e-12 
1.37699 -2.61854 7.00767e-12 
1.56982 -2.59068 -1.93993e-13 
1.77886 -2.61496 -2.04519e-12 
2.01166 -2.6127 -2.39157e-12 
2.24853 -2.6108 -2.14705e-12 
2.48931 -2.59409 -2.07962e-12 
2.72017 -2.60863 -2.15219e-12 
2.95653 -2.5899 -6.63495e-12 
3.17981 -2.59161 -2.03319e-13 
3.40425 -2.59567 -1.68928e-13 
3.62648 -2.59009 -1.28732e-13 
3.84306 -2.5873 1.70493e-13 
4.06366 -2.60038 1.54931e-13 
4.27688 -2.59145 1.18137e-13 
4.48998 -2.5936 9.02402e-14 
4.70106 -2.59073 6.64961e-14 
4.91135 -2.59048 -1.69276e-13 
5.12338 -2.59054 -1.08798e-13 
5.34103 -2.59788 -6.08138e-14 
5.55832 -2.592 -1.96649e-14 
5.78024 -2.59762 3.6398e-14 
6.00649 -2.59884 8.84638e-14 
6.22808 -2.58747 1.43293e-13 
6.45286 -2.59553 -6.8757e-14 
6.6793 -2.58943 -9.56633e-14 
6.89573 -2.57613 -1.29807e-13 
7.13417 -2.6174 -1.91459e-13 
7.3803 -2.59559 1.29892e-13 
7.60881 -2.5891 1.37355e-13 
7.86234 -2.62569 1.82631e-13 
8.07326 -2.54539 1.33207e-13 
8.30058 -2.6176 5.70224e-14 
8.48528 -2.52741 5.79258e-09 
-8.48528 -2.34169 -5.47271e-10 
-8.24677 -2.33612 7.57299e-14 
-8.01206 -2.35298 1.83677e-13 
-7.77652 -2.42553 -1.40892e-13 
-7.59072 -2.23703 -1.59018e-13 
-7.49832 -2.43385 9.41933e-14 
-7.21249 -2.40472 1.8234e-13 
-6.99237 -2.35405 2.24366e-13 
-6.76284 -2.37294 8.87641e-14 
-6.5236 -2.35413 1.12293e-13 
-6.28862 -2.36828 -2.05577e-13 
-6.06436 -2.34271 -1.34506e-13 
-5.84345 -2.34759 -6.88645e-14 
-5.61532 -2.35518 1.54971e-15 
-5.39588 -2.37024 6.71383e-14 
-5.16854 -2.35943 1.20461e-13 
-4.95049 -2.37293 1.89206e-13 
-4.72749 -2.36413 -7.81589e-14 
-4.51043 -2.37181 -1.02117e-13 
-4.29294 -2.3645 -1.35311e-13 
-4.07738 -2.36056 -1.70459e-13 
-3.86202 -2.35892 -2.13492e-13 
-3.64405 -2.35904 1.4195e-13 
-3.42499 -2.36279 1.74404e-13 
-3.20069 -2.36363 6.496e-12 
-2.97255 -2.36768 1.70297e-12 
-2.7422 -2.36238 2.00148e-12 
-2.50911 -2.36046 2.30341e-12 
-2.25994 -2.39071 2.43673e-12 
-2.03124 -2.41413 2.32837e-12 
-1.79472 -2.3226 6.6231e-12 
-1.59184 -2.3369 1.78745e-13 
-1.40336 -2.39369 2.34766e-13 
-1.20787 -2.39518 1.59655e-11 
-1.1047 -2.24071 4.27444e-11 
-0.788756 -2.17895 -8.11266e-12 
-0.820346 -2.59486 -9.68168e-11 
-0.46771 -2.73141 5.07881e-11 
-0.373624 -2.56648 2.57481e-10 
0.0231273 -2.6999 -2.79474e-10 
0.412656 -2.65227 1.9121e-10 
0.53066 -2.72597 5.19257e-11 
0.715948 -2.36913 5.46124e-11 
0.903749 -2.27354 -1.29381e-10 
0.974832 -2.44129 -6.97906e-12 
1.15491 -2.37498 1.47075e-13 
1.37541 -2.38976 -1.94154e-11 
1.56728 -2.36141 7.21117e-12 
1.77672 -2.39243 -2.08227e-13 
1.99969 -2.40044 6.06252e-12 
2.23602 -2.39572 -1.78323e-12 
2.46551 -2.36527 -2.74781e-12 
2.69553 -2.37779 -1.84971e-12 
2.92334 -2.36524 -1.82649e-12 
3.15251 -2.35458 -6.65036e-12 
3.37345 -2.36191 -1.72823e-13 
3.59324 -2.35681 -1.58123e-13 
3.81084 -2.35336 2.16671e-13 
4.02801 -2.37068 1.76428e-13 
4.24213 -2.35958 1.42413e-13 
4.45634 -2.36017 1.08042e-13 
4.66752 -2.35717 8.20538e-14 
4.87929 -2.3548 -2.09514e-13 
5.09015 -2.35629 -1.42057e-13 
5.30518 -2.36553 -8.37538e-14 
5.52041 -2.36016 -3.35907e-14 
5.74041 -2.36631 3.18399e-14 
5.9626 -2.37021 9.83011e-14 
6.18575 -2.35475 1.62726e-13 
6.41144 -2.35939 -7.65088e-14 
6.6338 -2.3564 -1.13558e-13 
6.85688 -2.32924 -1.45525e-13 
7.08006 -2.37915 -1.87634e-13 
7.30833 -2.38193 1.38951e-13 
7.55033 -2.3477 1.67204e-13 
7.78421 -2.39575 -2.03302e-13 
7.99973 -2.31766 -1.84795e-13 
8.24846 -2.35304 1.45667e-13 
8.48528 -2.29653 2.96474e-09 
-8.48528 -2.10473 -7.21928e-10 
-8.2797 -2.06607 -1.13148e-13 
-8.06791 -2.10392 1.58404e-13 
-7.82931 -2.16685 1.05263e-13 
-7.55153 -2.02889 9.4253e-14 
-7.32176 -2.22587 -1.50266e-13 
-7.08176 -2.12573 7.33552e-14 
-6.83606 -2.1375 1.28842e-13 
-6.61249 -2.13929 1.31765e-13 
-6.36596 -2.14283 -1.47557e-13 
-6.14636 -2.11609 -4.43962e-14 
-5.91908 -2.10901 -5.16041e-14 
-5.69876 -2.12494 -1.9114e-14 
-5.47589 -2.13024 1.81054e-14 
-5.26293 -2.13977 3.97577e-14 
-5.0376 -2.1362 6.14059e-14 
-4.82613 -2.14353 9.89535e-14 
-4.60608 -2.13865 1.36695e-13 
-4.39579 -2.13898 1.78215e-13 
-4.18227 -2.13097 2.11357e-13 
-3.96976 -2.12702 -7.27457e-14 
-3.75615 -2.12703 -9.73194e-14 
-3.54075 -2.12749 -1.19912e-13 
-3.32362 -2.13211 -1.51977e-13 
-3.10051 -2.13567 -1.94973e-13 
-2.87692 -2.13462 -2.17937e-13 
-2.64812 -2.13016 1.29826e-13 
-2.4042 -2.1537 1.92772e-13 
-2.17288 -2.1644 6.47196e-12 
-1.9591 -2.16928 1.89347e-13 
-1.71274 -2.08502 -2.96489e-14 
-1.50598 -2.12313 -1.14632e-15 
-1.32283 -2.18217 -6.63148e-12 
-1.19538 -2.04058 2.71832e-11 
-0.961514 -2.16025 2.2382e-11 
-0.789404 -1.96974 5.51296e-11 
-0.730076 -2.39284 1.40729e-10 
-0.689516 -2.60952 -1.24003e-10 
-0.176898 -2.65854 -5.09937e-10 
0.180814 -2.66213 1.90266e-11 
0.517885 -2.4744 -4.51518e-11 
0.612245 -2.5608 -4.09335e-11 
0.738251 -2.18673 -1.8275e-11 
0.901812 -2.06917 -9.15283e-11 
1.08018 -2.19971 2.68778e-11 
1.15942 -2.03421 -1.83349e-13 
1.31429 -2.20424 2.23584e-12 
1.52473 -2.13622 1.65036e-12 
1.74721 -2.17085 -1.62159e-13 
1.97905 -2.18035 -1.28461e-13 
2.21552 -2.17549 -1.92235e-12 
2.45806 -2.1466 -1.84332e-13 
2.70069 -2.1479 -1.51838e-13 
2.93189 -2.13456 2.25323e-13 
3.16069 -2.12189 1.55471e-13 
3.38409 -2.12889 1.50093e-13 
3.60586 -2.12428 9.50283e-14 
3.82947 -2.12604 9.43891e-14 
4.04425 -2.13843 7.72541e-14 
4.2627 -2.13031 -1.88511e-13 
4.47582 -2.12703 -1.52992e-13 
4.68976 -2.12551 -1.11045e-13 
4.90254 -2.12115 -7.85046e-14 
5.11924 -2.12714 -4.93312e-14 
5.33264 -2.13145 -3.31503e-14 
5.55305 -2.13129 -1.05194e-14 
5.77414 -2.13701 3.03977e-14 
5.99412 -2.13673 5.90567e-14 
6.2218 -2.12526 7.33452e-14 
6.44254 -2.12234 1.31452e-13 
6.66177 -2.11554 1.97671e-13 
6.89447 -2.09792 1.85434e-13 
7.11644 -2.14474 -1.0036e-13 
7.34791 -2.15263 -1.47474e-13 
7.55598 -2.08612 -7.37467e-14 
7.76087 -2.15506 -8.66063e-14 
7.98202 -2.07968 1.01665e-13 
8.21344 -2.12983 1.62518e-13 
8.48528 -2.09733 -1.32216e-09 
-8.48528 -1.83164 -8.47083e-10 
-8.27504 -1.796 -1.75048e-13 
-7.87722 -1.91317 -2.05566e-13 
[...]
POINT_DATA 1978 
VECTORS vectors float
0.00559756 -0.010852 0.999928 
0.00412886 -0.0373294 0.999289 
0.00123333 -0.0429777 0.999069 
-0.000810074 -0.0345067 0.999394 
-0.000716058 -0.0233477 0.999715 
0.000702756 -0.0168914 0.99985 
0.00165043 -0.0110246 0.999931 
0.00305792 -0.00755799 0.999961 
0.00337629 -0.00510437 0.999977 
0.00322301 -0.00359326 0.999984 
0.00305371 -0.00277818 0.999987 
0.00361541 -0.00194351 0.999987 
0.00351381 -0.000957761 0.999989 
0.00312318 0.000151459 0.99999 
0.00306123 0.00145436 0.999989 
0.00312702 0.00279942 0.999986 
0.00315658 0.00435551 0.99998 
0.00319704 0.00600951 0.999972 
0.00315741 0.00805451 0.999958 
0.00323112 0.0104655 0.999935 
0.00325374 0.0134562 0.9999 
0.00316 0.0172171 0.999842 
0.0029718 0.0220064 0.999749 
0.00271641 0.0283048 0.999591 
0.00245647 0.0364194 0.999328 
0.00222163 0.0470504 0.998885 
0.00216245 0.060598 0.998155 
0.00193647 0.0782086 0.996931 
0.000671744 0.102037 0.994775 
0.000748325 0.142268 0.989824 
0.00205498 0.182088 0.983279 
0.00191807 0.226841 0.973929 
0.000761836 0.292691 0.956206 
6.97463e-05 0.364165 0.931334 
0.000506188 0.430114 0.902775 
0.000420684 0.50301 0.86428 
-0.00059713 0.573944 0.818894 
-0.000141264 0.6438 0.765192 
0.000962266 0.928109 0.372294 
-0.000193071 0.996528 -0.0832539 
0.000162157 0.877308 -0.479926 
0.00214503 0.72006 -0.693906 
0.000384342 0.605646 -0.795733 
0.000977381 0.504625 -0.863338 
0.00109078 0.424457 -0.905447 
-0.000432893 0.353602 -0.935395 
-0.00134402 0.281764 -0.959482 
-0.00152832 0.226271 -0.974062 
-0.00153413 0.175235 -0.984523 
-0.00141331 0.135036 -0.990836 
-0.00166567 0.101121 -0.994869 
-0.00161146 0.0781234 -0.996937 
-0.00178555 0.0587253 -0.998268 
-0.00254757 0.0458256 -0.99894 
-0.00234618 0.035641 -0.999357 
-0.00266233 0.0278558 -0.999604 
-0.00307138 0.0220579 -0.999746 
-0.00315085 0.0173091 -0.999841 
-0.003051 0.0134914 -0.999899 
-0.00313694 0.0103702 -0.999936 
-0.00336571 0.00793372 -0.999958 
-0.003462 0.00599412 -0.999972 
-0.00351855 0.00436558 -0.99998 
-0.00345827 0.00291283 -0.999985 
-0.00319997 0.00161116 -0.999989 
-0.00305775 0.000356158 -0.99999 
-0.00287558 -0.000812024 -0.99999 
-0.00264585 -0.00178028 -0.999989 
-0.00272997 -0.00273942 -0.999987 
-0.00262143 -0.00391118 -0.999983 
-0.00255694 -0.00566409 -0.999975 
-0.0027068 -0.00834164 -0.999956 
-0.00160473 -0.0120263 -0.999919 
-0.00117509 -0.0178151 -0.999832 
-0.0017043 -0.0245613 -0.999691 
-0.000700827 -0.0327445 -0.999455 
-0.00121838 -0.0430333 -0.999066 
-0.0035618 -0.0384888 -0.999246 
-0.00480532 -0.00831252 -0.999955 
0.00853063 -0.00495216 0.99995 
0.0149312 -0.0295485 0.999449 
0.0184858 -0.0381379 0.999101 
0.0196441 -0.0341945 0.999221 
0.0187594 -0.0252724 0.999501 
0.0202954 -0.0168015 0.999651 
0.0222199 -0.0118011 0.999682 
0.0230038 -0.00795047 0.999703 
0.0247007 -0.00547542 0.999679 
0.0233415 -0.00375707 0.99972 
0.0249926 -0.00250463 0.999684 
0.0250691 -0.00140698 0.999684 
0.0254708 -0.000309779 0.999675 
0.0243625 0.000878588 0.999702 
0.0255954 0.00223306 0.999669 
0.0245263 0.00368424 0.999691 
0.0252952 0.00533501 0.999665 
0.0245901 0.0072468 0.99967 
0.0247833 0.00962708 0.999646 
0.0247267 0.0125194 0.999615 
0.0244896 0.0161204 0.999569 
0.0242033 0.0206844 0.999492 
0.0233143 0.026555 0.999374 
0.0228458 0.0341969 0.999153 
0.0219601 0.0440497 0.998787 
0.0212605 0.0569151 0.998152 
0.0208066 0.0734979 0.997077 
0.0201875 0.0953244 0.99524 
0.0170029 0.126347 0.991839 
0.0209173 0.169147 0.985368 
0.0229511 0.214042 0.976554 
0.0211107 0.274352 0.961397 
0.023407 0.358391 0.933278 
0.0270492 0.452346 0.891431 
0.0514051 0.474772 0.878605 
0.0764905 0.535247 0.841225 
0.0301266 0.545824 0.837359 
0.00758424 0.703377 0.710782 
0.0251928 0.86863 0.494816 
0.00702207 0.961148 0.275943 
-0.0100617 0.927775 -0.37301 
-0.0309322 0.656065 -0.754063 
-0.0558631 0.614945 -0.78659 
-0.0214071 0.563511 -0.825831 
-0.0284697 0.457258 -0.888878 
-0.0280705 0.377798 -0.925462 
-0.0205739 0.303305 -0.952671 
-0.0207534 0.23818 -0.970998 
-0.0187614 0.185361 -0.98249 
-0.0187679 0.141288 -0.98979 
-0.0191433 0.106246 -0.994154 
-0.0202601 0.080556 -0.996543 
-0.0204672 0.0614807 -0.997896 
-0.0220667 0.0469465 -0.998653 
-0.0225801 0.0367299 -0.999069 
-0.0230526 0.0287277 -0.99932 
-0.0237611 0.0224637 -0.999465 
-0.0241283 0.0175079 -0.999555 
-0.0240905 0.0135082 -0.999618 
-0.0249573 0.0104007 -0.999634 
-0.0250255 0.00790071 -0.999655 
-0.0253378 0.00591411 -0.999661 
-0.0253599 0.00423522 -0.999669 
-0.0252985 0.00277908 -0.999675 
-0.0247195 0.00142086 -0.999692 
-0.0250099 0.000186 -0.999686 
-0.0245105 -0.000962863 -0.999698 
-0.0243626 -0.00211644 -0.9997 
-0.0247341 -0.00337636 -0.999687 
-0.0238705 -0.00491321 -0.999702 
-0.0238383 -0.00719109 -0.999689 
-0.0239418 -0.0103019 -0.999659 
-0.0208027 -0.0146697 -0.999674 
-0.0216103 -0.021053 -0.999544 
-0.0207481 -0.0282317 -0.999385 
-0.0183044 -0.0364287 -0.999167 
-0.0194784 -0.0361499 -0.999156 
-0.0128425 -0.0272346 -0.999544 
-0.00896737 -0.00373915 -0.999948 
0.00852374 -0.00416397 0.999953 
0.0184248 -0.0269054 0.999468 
0.0256177 -0.0378541 0.998953 
0.0275567 -0.0345595 0.999021 
0.0302135 -0.0284134 0.999139 
0.0263854 -0.0254382 0.999328 
0.0297659 -0.0173947 0.999405 
0.0328588 -0.0129632 0.999375 
0.0324874 -0.00928737 0.999428 
0.0343556 -0.00608416 0.99939 
0.0338734 -0.00397622 0.999417 
0.0352265 -0.00254145 0.999375 
0.0349936 -0.00121535 0.999386 
0.0352587 -6.95347e-06 0.999377 
0.0347976 0.00117314 0.999393 
0.0353063 0.00255459 0.999372 
0.0349681 0.00400194 0.99938 
0.0352681 0.00572864 0.999361 
0.0348874 0.0077671 0.99936 
0.0348499 0.0103061 0.999339 
0.0345846 0.0134763 0.99931 
0.0341445 0.01745 0.999264 
0.0335387 0.0225422 0.999182 
0.032794 0.0289959 0.999041 
0.0321783 0.0373803 0.998782 
0.0312647 0.048212 0.998347 
0.0306665 0.0622018 0.997591 
0.0303161 0.0806345 0.996282 
0.0294179 0.106662 0.993859 
0.0289383 0.138527 0.989935 
0.0339961 0.179101 0.983242 
0.0377649 0.227802 0.972974 
0.039438 0.285833 0.957467 
0.0444568 0.369371 0.928218 
0.0659828 0.414427 0.907687 
0.111374 0.529189 0.841162 
0.0446827 0.606815 0.793588 
0.0200631 0.757416 0.652626 
0.0510495 0.919805 0.389037 
0.00196378 0.999938 0.0113551 
-0.0462195 0.854713 -0.517041 
-0.0152482 0.793141 -0.608849 
-0.0907154 0.64429 -0.759382 
-0.071614 0.536455 -0.840886 
-0.0513897 0.486784 -0.872008 
-0.0544537 0.382751 -0.922244 
-0.0395564 0.308826 -0.950295 
-0.0357612 0.243145 -0.96933 
-0.0314197 0.187905 -0.981684 
-0.0300465 0.143908 -0.989133 
-0.029012 0.110879 -0.993409 
-0.0303536 0.0836758 -0.99603 
-0.0302356 0.0650534 -0.997423 
-0.0312121 0.05001 -0.99826 
-0.0321417 0.038823 -0.998728 
-0.0325659 0.0305928 -0.999001 
-0.0334196 0.0238366 -0.999156 
-0.0338791 0.0186795 -0.999251 
-0.034178 0.0144342 -0.999311 
-0.034828 0.0111015 -0.999331 
-0.0350332 0.0084213 -0.99935 
-0.0352156 0.00629098 -0.999359 
-0.0353212 0.00455879 -0.999365 
-0.03539 0.00309889 -0.999368 
-0.035218 0.00175631 -0.999377 
-0.0353817 0.000519095 -0.999373 
-0.0351368 -0.000667912 -0.999381 
-0.0349015 -0.00192585 -0.999388 
-0.0348965 -0.00337882 -0.999384 
-0.0342242 -0.00505297 -0.999401 
-0.0337662 -0.00731614 -0.999402 
-0.0334731 -0.0106173 -0.999382 
-0.0318431 -0.0144739 -0.999387 
-0.0309068 -0.0198625 -0.999324 
-0.0300057 -0.0272932 -0.999176 
-0.0275895 -0.0349841 -0.999006 
-0.0265903 -0.0380586 -0.998921 
-0.0187296 -0.0272331 -0.999453 
-0.00929155 -0.00545883 -0.999943 
0.00673379 -0.00334639 0.999967 
0.015865 -0.027256 0.999502 
0.0224609 -0.0384843 0.999006 
0.0271172 -0.0369715 0.998947 
0.0264433 -0.029154 0.999224 
0.0312447 -0.0204445 0.999302 
0.0303437 -0.0158864 0.999412 
0.0309519 -0.0109671 0.99946 
0.0321937 -0.00758075 0.999452 
0.0327214 -0.00495069 0.999451 
0.0322717 -0.00329323 0.999473 
0.0320822 -0.00161247 0.999483 
0.0325941 -0.000294902 0.999468 
0.0326882 0.000905282 0.999464 
0.032874 0.00210525 0.999456 
0.032712 0.00351333 0.999458 
0.0328121 0.00499361 0.999448 
0.0326638 0.00687988 0.999442 
0.0325455 0.00912743 0.999428 
0.0321883 0.0120241 0.999409 
0.0318196 0.0156013 0.999371 
0.0315433 0.0200688 0.9993 
0.0311412 0.0257226 0.999183 
0.030856 0.0328362 0.998983 
0.0305901 0.0420008 0.998648 
0.030188 0.053538 0.998108 
0.0301405 0.0686176 0.997187 
0.0310815 0.0893903 0.995511 
0.0323757 0.115198 0.992814 
0.0345986 0.146372 0.988623 
0.0409395 0.190232 0.980884 
0.0485419 0.242308 0.968983 
0.056075 0.308465 0.94958 
0.0717517 0.349181 0.934304 
0.0890688 0.442311 0.892427 
0.132005 0.477016 0.868925 
0.0784693 0.637354 0.766565 
0.0507099 0.733596 0.677698 
0.023591 0.981531 0.189864 
-0.0170665 0.972768 -0.231164 
-0.0936642 0.766928 -0.634865 
-0.0546494 0.740914 -0.669375 
-0.113833 0.560803 -0.820087 
-0.0965954 0.466287 -0.879343 
-0.0751347 0.414883 -0.906767 
-0.0717484 0.336495 -0.938947 
-0.0539848 0.30217 -0.951723 
-0.0455133 0.243209 -0.968905 
-0.0377906 0.18907 -0.981234 
-0.0339925 0.144056 -0.988985 
-0.0320148 0.108407 -0.99359 
-0.0307844 0.0825374 -0.996112 
-0.0303474 0.0636537 -0.997509 
-0.0303002 0.0495305 -0.998312 
-0.0302891 0.0386948 -0.998791 
-0.0307921 0.0301331 -0.99907 
-0.0309225 0.0236123 -0.999242 
-0.0317271 0.0183443 -0.999327 
-0.0322303 0.0142482 -0.999378 
-0.0322222 0.0108868 -0.99942 
-0.0323 0.00823733 -0.999443 
-0.0322796 0.00612935 -0.999459 
-0.0323747 0.00446384 -0.999465 
-0.0325769 0.0030196 -0.999464 
-0.0327419 0.00172598 -0.999461 
-0.0328328 0.000474534 -0.99946 
-0.0329855 -0.000761144 -0.999455 
-0.032896 -0.00216956 -0.999455 
-0.0324865 -0.00393139 -0.999463 
-0.0319105 -0.00585929 -0.999473 
-0.0312881 -0.00838771 -0.999474 
-0.0302777 -0.012198 -0.999466 
-0.0302869 -0.0162984 -0.999407 
-0.0298952 -0.0222631 -0.999304 
-0.0270195 -0.0291131 -0.99921 
-0.0271703 -0.0354164 -0.999002 
-0.0236427 -0.0400069 -0.998919 
-0.0190266 -0.0300059 -0.999368 
-0.00681519 -0.00555746 -0.999963 
0.00523273 -0.00330508 0.999975 
0.0109121 -0.0268145 0.999579 
0.0200088 -0.0402703 0.998988 
0.0212726 -0.0340209 0.999194 
0.0198051 -0.0259302 0.999466 
0.025986 -0.0224778 0.999409 
0.0225269 -0.0183243 0.999577 
0.0251848 -0.0134517 0.999591 
0.0251868 -0.00951883 0.999636 
0.0267806 -0.00643281 0.99962 
0.025522 -0.00440358 0.999664 
0.025734 -0.00252834 0.999665 
0.0255695 -0.000809416 0.999672 
0.0259765 0.000449522 0.999661 
0.0258022 0.00161231 0.999665 
0.0264628 0.00282836 0.999645 
0.0259244 0.00421846 0.999654 
0.0262987 0.00578861 0.999636 
0.0258393 0.00776916 0.999635 
0.0257996 0.0102451 0.999614 
0.0254613 0.0133962 0.999585 
0.02532 0.0173328 0.999528 
0.02518 0.0221986 0.999435 
0.0249853 0.0283074 0.999286 
0.0252052 0.0360093 0.999033 
0.0253448 0.0455725 0.998638 
0.0257465 0.0579742 0.997985 
0.0270654 0.0748793 0.996824 
0.0290703 0.0957231 0.994982 
0.0321932 0.121597 0.992056 
0.0372774 0.155199 0.987179 
0.0490176 0.206287 0.977262 
0.0610913 0.262986 0.962863 
0.0809968 0.314715 0.945723 
0.101974 0.394355 0.913282 
0.147804 0.429364 0.890954 
0.122078 0.634233 0.763443 
0.0958355 0.733593 0.672798 
0.0607671 0.824733 0.562251 
0.0451435 0.975371 0.215927 
-0.0680013 0.905182 -0.419541 
-0.134323 0.690292 -0.710958 
-0.139484 0.506665 -0.850784 
-0.119908 0.424675 -0.89737 
-0.0939398 0.365737 -0.925964 
-0.0777308 0.295739 -0.9521 
-0.0600275 0.26276 -0.962991 
-0.0505867 0.215938 -0.975095 
-0.0422725 0.188909 -0.981083 
-0.0353987 0.147315 -0.988455 
-0.0312453 0.113213 -0.993078 
-0.028321 0.0877394 -0.99574 
-0.0265132 0.0662622 -0.997449 
-0.025723 0.052534 -0.998287 
-0.0249266 0.0410593 -0.998845 
-0.0249819 0.0318517 -0.999179 
-0.0249186 0.0251526 -0.999372 
-0.0253888 0.0195177 -0.999486 
-0.0256891 0.0151724 -0.999554 
-0.0258222 0.0117063 -0.999597 
-0.0256002 0.0088125 -0.999632 
-0.0255742 0.00659318 -0.99965 
-0.0255086 0.00487178 -0.999662 
-0.0258084 0.00344981 -0.99966 
-0.025832 0.00216891 -0.999663 
-0.0261671 0.000959543 -0.999656 
-0.0263761 -0.000299428 -0.999651 
-0.0262718 -0.00172885 -0.999652 
-0.02614 -0.00351674 -0.999651 
-0.0255061 -0.00562687 -0.999658 
-0.0248877 -0.00811081 -0.999656 
-0.0245155 -0.0114857 -0.999632 
-0.0240413 -0.0160868 -0.999581 
-0.0239801 -0.0211618 -0.999487 
-0.0215621 -0.0291437 -0.999342 
-0.0208601 -0.0373776 -0.999082 
-0.0173889 -0.0397079 -0.999059 
-0.0131296 -0.0270007 -0.999548 
-0.00551723 -0.00531424 -0.999971 
0.00426677 -0.00425087 0.999981 
0.00800319 -0.0276856 0.999583 
0.0159515 -0.0384027 0.999134 
0.0145244 -0.0413335 0.999038 
0.0161101 -0.0343634 0.999279 
0.016678 -0.0227266 0.999602 
0.0183191 -0.0161959 0.9997 
0.0193932 -0.0122535 0.999736 
0.0198038 -0.00827179 0.999769 
0.0197111 -0.00582639 0.999788 
0.0193091 -0.00356687 0.999806 
0.0196271 -0.00161778 0.999805 
0.0193998 -4.69301e-05 0.999811 
0.0194957 0.00114041 0.999808 
0.0196395 0.0023373 0.999803 
0.0198572 0.00350479 0.999796 
0.019722 0.00492631 0.999792 
0.0197681 0.00661532 0.999782 
0.0194697 0.00887876 0.99977 
0.0194896 0.0116719 0.999741 
0.0194019 0.0152505 0.999694 
0.0193475 0.0196686 0.999618 
0.0193762 0.0251372 0.999495 
0.0196896 0.0321134 0.999289 
0.0200777 0.0406146 0.998972 
0.0208386 0.0515304 0.998453 
0.0225403 0.0662595 0.997547 
0.0248933 0.0845573 0.996107 
0.0285012 0.107422 0.993804 
0.0343499 0.136238 0.990079 
0.0433951 0.173209 0.983928 
0.0641676 0.23944 0.968787 
0.0855325 0.285884 0.954438 
0.0970185 0.285946 0.953321 
0.111589 0.354845 0.928242 
0.127565 0.34755 0.928942 
0.163971 0.57862 0.798943 
0.151183 0.727357 0.669399 
0.103062 0.923122 0.370441 
-0.0193458 0.992435 -0.121256 
-0.127822 0.819652 -0.558421 
-0.162626 0.606957 -0.777911 
-0.159507 0.46614 -0.870213 
-0.137069 0.386133 -0.912202 
-0.108859 0.343552 -0.932802 
-0.0861262 0.280563 -0.955963 
-0.0643126 0.236974 -0.969384 
-0.0480886 0.189543 -0.980693 
-0.0380155 0.1553 -0.987134 
-0.0316438 0.124055 -0.99177 
-0.0271612 0.0982249 -0.994792 
-0.0241483 0.0763157 -0.99679 
-0.0214409 0.0602872 -0.99795 
-0.0205823 0.0481346 -0.998628 
-0.0197915 0.0374932 -0.9991 
-0.0191574 0.0297928 -0.999372 
-0.0194816 0.0233228 -0.999537 
-0.0195708 0.0182619 -0.999641 
-0.0196195 0.0142345 -0.999705 
-0.0197259 0.0109182 -0.999745 
-0.0193985 0.00821676 -0.999777 
-0.0192836 0.00613512 -0.999794 
-0.0193255 0.00450021 -0.999802 
-0.0194886 0.00321798 -0.999804 
-0.0194389 0.00204351 -0.999808 
-0.0198698 0.000824099 -0.999801 
-0.0199224 -0.000462852 -0.9998 
-0.0198727 -0.00201967 -0.999799 
-0.0198042 -0.00403914 -0.999795 
-0.0190346 -0.00635466 -0.999798 
-0.0185604 -0.00912126 -0.999785 
-0.018895 -0.0131111 -0.999734 
-0.017948 -0.0178855 -0.999678 
-0.0180926 -0.0234986 -0.999559 
-0.0157648 -0.0309823 -0.999395 
-0.0162478 -0.0379622 -0.999146 
-0.013406 -0.0421124 -0.999022 
-0.0106719 -0.0305858 -0.999475 
-0.00393826 -0.00590421 -0.999977 
0.00290456 -0.00516634 0.999984 
0.00594113 -0.0296166 0.999543 
0.0112553 -0.0405915 0.999113 
0.0107681 -0.0399024 0.999145 
0.0135681 -0.030346 0.999446 
0.0116194 -0.0243816 0.999634 
0.0136322 -0.0182731 0.999739 
0.0136696 -0.0133162 0.999817 
0.0150408 -0.00969621 0.999839 
0.0142583 -0.00670089 0.999875 
0.0146626 -0.00438025 0.999882 
0.0145186 -0.00206777 0.999891 
0.014502 -0.000403687 0.999894 
0.0141744 0.000940742 0.999898 
0.0144772 0.00206442 0.999892 
0.014378 0.00315864 0.999891 
0.0147103 0.00429146 0.999882 
0.0143944 0.00580268 0.999879 
0.0144539 0.00772892 0.999865 
0.0143511 0.0102862 0.999843 
0.0145182 0.0134284 0.999803 
0.0145221 0.0173536 0.999743 
0.0146463 0.0221715 0.999646 
0.0150883 0.0282856 0.999485 
0.0155513 0.0357315 0.999239 
0.0164116 0.0451065 0.998846 
0.0180394 0.0575132 0.998181 
0.0203172 0.0727944 0.997139 
0.0237169 0.0920083 0.995475 
0.0289677 0.116526 0.992764 
0.0374582 0.147325 0.988378 
0.0519805 0.193368 0.979747 
0.0692861 0.231258 0.970421 
0.0786455 0.242404 0.966981 
0.114438 0.300863 0.946775 
0.164334 0.398104 0.9025 
0.190402 0.506648 0.840865 
0.201973 0.682012 0.702902 
0.0957791 0.843888 0.527902 
-0.0315045 0.99085 -0.131223 
-0.181453 0.750238 -0.635789 
-0.193648 0.566384 -0.801067 
-0.202558 0.505207 -0.83889 
-0.156321 0.388445 -0.908115 
-0.108747 0.305517 -0.945956 
-0.0811066 0.250862 -0.964618 
-0.0637903 0.218311 -0.973791 
-0.049439 0.184685 -0.981552 
-0.037041 0.147912 -0.988306 
-0.0298812 0.12011 -0.99231 
-0.024573 0.096612 -0.995018 
-0.0215635 0.0784943 -0.99668 
-0.0181844 0.0620514 -0.997906 
-0.0164404 0.0489721 -0.998664 
-0.0158892 0.0392106 -0.999104 
-0.0147334 0.030791 -0.999416 
-0.0148691 0.0243564 -0.999592 
-0.0147895 0.0190874 -0.999707 
-0.0146439 0.0148272 -0.999782 
-0.0146274 0.0113549 -0.999828 
-0.0144457 0.00859856 -0.999858 
-0.0141849 0.0063738 -0.999878 
-0.0143018 0.0047114 -0.999886 
-0.014267 0.00343989 -0.999891 
-0.014262 0.00235247 -0.999895 
-0.0145851 0.00116935 -0.999892 
-0.0146681 -9.71941e-05 -0.999891 
-0.0147091 -0.00163611 -0.99989 
-0.0148041 -0.0037096 -0.999883 
-0.0142536 -0.00615287 -0.999879 
-0.0138321 -0.00901298 -0.999863 
-0.0142646 -0.0128179 -0.999815 
-0.0133753 -0.017718 -0.999752 
-0.0132741 -0.0237565 -0.999629 
-0.0115744 -0.031805 -0.999426 
-0.0113392 -0.0399068 -0.999138 
-0.00929834 -0.0424242 -0.999056 
-0.00753071 -0.0300937 -0.999518 
-0.00273468 -0.00542356 -0.999983 
0.00197305 -0.00638955 0.999981 
0.0040444 -0.0298163 0.999547 
0.00847421 -0.0435949 0.999012 
0.0075062 -0.0409221 0.999133 
0.0097435 -0.0331801 0.999401 
0.00880787 -0.0246945 0.999655 
0.0101788 -0.017973 0.999786 
0.0101039 -0.0130752 0.999862 
0.010848 -0.00921465 0.999898 
0.00993137 -0.00629175 0.99993 
0.0106936 -0.00370909 0.999935 
0.0102415 -0.00149756 0.999945 
0.0102612 0.000103683 0.999947 
0.00983123 0.00137707 0.99995 
0.0100677 0.00242234 0.999945 
0.00992368 0.00340369 0.999944 
0.0102831 0.00453297 0.999936 
0.00989124 0.0060263 0.999932 
0.0101287 0.00811381 0.999915 
0.0100772 0.0107863 0.99989 
0.0103126 0.0140743 0.999847 
0.0104276 0.0181071 0.999781 
0.0108293 0.0232113 0.999671 
0.0113395 0.0293916 0.999503 
0.0121504 0.0371952 0.999233 
0.0134819 0.0471886 0.998794 
0.0153436 0.0595138 0.998109 
0.0181551 0.0751331 0.997007 
0.0221682 0.0944578 0.995281 
0.0281451 0.11845 0.99256 
0.0394439 0.153084 0.987425 
0.052842 0.1887 0.980611 
0.0555898 0.195521 0.979122 
0.0789365 0.244336 0.966471 
0.107383 0.293004 0.950061 
0.157318 0.357093 0.920724 
0.210568 0.471053 0.856603 
0.254705 0.59191 0.7647 
0.18486 0.832909 0.521622 
0.0330563 0.994762 0.0967323 
-0.107521 0.933645 -0.341686 
-0.238142 0.668293 -0.704747 
-0.212206 0.464904 -0.859555 
-0.152377 0.353922 -0.922777 
-0.106696 0.289877 -0.951098 
-0.0731198 0.235871 -0.969028 
-0.0574193 0.201464 -0.97781 
-0.045052 0.171069 -0.984228 
-0.0361304 0.145053 -0.988763 
-0.0273623 0.115373 -0.992944 
-0.0213243 0.0914491 -0.99558 
-0.0176217 0.0728275 -0.997188 
-0.0144076 0.057198 -0.998258 
-0.0126069 0.0455627 -0.998881 
-0.0119933 0.0365994 -0.999257 
-0.0109551 0.028719 -0.999527 
-0.0109205 0.0227421 -0.999681 
-0.0106314 0.0178622 -0.999783 
-0.0104439 0.0138387 -0.999849 
-0.0102619 0.0106256 -0.99989 
-0.0101347 0.00800859 -0.999916 
-0.00988762 0.00591248 -0.999933 
-0.0100121 0.00438941 -0.999939 
-0.0098369 0.00328489 -0.999945 
-0.0100015 0.00227882 -0.999946 
-0.0102073 0.0011772 -0.999946 
-0.0103199 -0.000112093 -0.999946 
-0.0104267 -0.00174157 -0.999943 
-0.0104635 -0.0038773 -0.999937 
-0.0102088 -0.00658404 -0.999925 
-0.0101658 -0.00985142 -0.999899 
-0.0104165 -0.0137714 -0.99985 
-0.00963224 -0.0186495 -0.999779 
-0.00989487 -0.0243057 -0.999655 
-0.0086189 -0.0322186 -0.999443 
-0.00831091 -0.0406597 -0.999137 
-0.00674396 -0.0432227 -0.999042 
-0.00503049 -0.0289128 -0.999568 
-0.00216222 -0.00569299 -0.999983 
0.00140902 -0.00662087 0.999982 
0.00295794 -0.0321146 0.999479 
0.00597083 -0.0431826 0.999049 
0.00530073 -0.0414994 0.999123 
0.00719177 -0.0328055 0.999435 
0.00630654 -0.0251806 0.999662 