# vtk DataFile Version 3.0 
Exported using Morpho https://github.com/Morpho-lang/morpho 
ASCII 
DATASET UNSTRUCTURED_GRID 

POINTS 1978 float 
-8.48528 -2.82843 -6.65854e-10 
-8.2652 -2.82843 1.31855e-09 
-8.04263 -2.82843 3.3868e-09 
-7.79231 -2.82843 3.72841e-09 
-7.48656 -2.82843 2.34527e-09 
-7.2423 -2.82843 1.69363e-09 
-6.98632 -2.82843 7.19953e-10 
-6.76721 -2.82843 3.75617e-10 
-6.5581 -2.82843 4.25944e-10 
-6.36003 -2.82843 1.26131e-10 
-6.1387 -2.82843 2.83598e-10 
-5.93586 -2.82843 1.48306e-10 
-5.72907 -2.82843 -3.41662e-11 
-5.52564 -2.82843 -1.14264e-10 
-5.30357 -2.82843 -9.44761e-11 
-5.09895 -2.82843 -3.88351e-10 
-4.88075 -2.82843 -4.07858e-10 
-4.67503 -2.82843 -5.53021e-10 
-4.46115 -2.82843 -7.3179e-10 
-4.25152 -2.82843 -9.10598e-10 
-4.04307 -2.82843 -1.16462e-09 
-3.83375 -2.82843 -1.33942e-09 
-3.62448 -2.82843 -1.75601e-09 
-3.40902 -2.82843 -2.1056e-09 
-3.19277 -2.82843 -2.65323e-09 
-2.97084 -2.82843 -3.1916e-09 
-2.74746 -2.82843 -3.65495e-09 
-2.52642 -2.82843 -4.56294e-09 
-2.30099 -2.82843 -6.24526e-09 
-2.02339 -2.82843 -6.99905e-09 
-1.82109 -2.82843 -5.8827e-09 
-1.63784 -2.82843 -3.82195e-09 
-1.44381 -2.82843 -5.31186e-11 
-1.26993 -2.82843 1.05865e-08 
-1.12636 -2.82843 2.47025e-09 
-0.988316 -2.82843 3.44693e-08 
-0.858104 -2.82843 6.17795e-08 
-0.733368 -2.82843 2.41451e-07 
-0.274271 -2.82842 7.81961e-07 
0.0605271 -2.82842 -3.29731e-07 
0.373539 -2.82842 -4.81366e-07 
0.618258 -2.82843 -2.07824e-07 
0.780782 -2.82843 -9.17548e-08 
0.961465 -2.82843 -4.25299e-08 
1.1112 -2.82843 -8.17358e-09 
1.2546 -2.82843 -9.57386e-09 
1.44436 -2.82843 3.67338e-09 
1.63052 -2.82843 5.45682e-09 
1.84517 -2.82843 6.91205e-09 
2.06847 -2.82843 6.77661e-09 
2.29738 -2.82843 5.04012e-09 
2.52034 -2.82843 4.65902e-09 
2.75844 -2.82843 3.73212e-09 
2.97653 -2.82843 3.11584e-09 
3.19547 -2.82843 2.61985e-09 
3.4164 -2.82843 1.93177e-09 
3.6301 -2.82843 1.81026e-09 
3.83874 -2.82843 1.41206e-09 
4.04741 -2.82843 1.12579e-09 
4.26375 -2.82843 9.79229e-10 
4.47011 -2.82843 6.76511e-10 
4.67763 -2.82843 5.43147e-10 
4.88233 -2.82843 3.75879e-10 
5.08772 -2.82843 2.75467e-10 
5.2941 -2.82843 2.64383e-10 
5.50952 -2.82843 -4.18608e-11 
5.7213 -2.82843 1.38092e-10 
5.94059 -2.82843 -1.31244e-10 
6.16342 -2.82843 -1.77912e-10 
6.37809 -2.82843 -2.25357e-10 
6.60272 -2.82843 -5.45293e-10 
6.82394 -2.82843 -4.99807e-10 
7.03563 -2.82843 -1.05663e-09 
7.29324 -2.82843 -1.25867e-09 
7.52529 -2.82843 -1.58121e-09 
7.75417 -2.82843 -2.61818e-09 
8.02608 -2.82843 -3.99984e-09 
8.22056 -2.82843 -1.12897e-09 
8.48528 -2.82843 8.2703e-10 
-8.48528 -2.58641 -9.72313e-10 
-8.2684 -2.57971 -6.19999e-14 
-8.03375 -2.59325 -1.99752e-13 
-7.76822 -2.61508 -2.97046e-13 
-7.50015 -2.63807 -3.85219e-13 
-7.23027 -2.62775 -1.78737e-13 
-6.98023 -2.59781 -1.01631e-13 
-6.74224 -2.59718 -8.85868e-14 
-6.52185 -2.57829 -5.63173e-14 
-6.2964 -2.60311 -3.2394e-14 
-6.07271 -2.58251 -2.32187e-14 
-5.85629 -2.58575 -1.15103e-14 
-5.64152 -2.58185 -3.97973e-16 
-5.42037 -2.60313 1.01927e-14 
-5.20118 -2.58565 2.05205e-14 
-4.9841 -2.60259 3.24622e-14 
-4.76659 -2.5908 4.69753e-14 
-4.55223 -2.60026 6.40427e-14 
-4.33585 -2.59541 8.31484e-14 
-4.12263 -2.59298 1.06955e-13 
-3.91019 -2.5923 1.37821e-13 
-3.69712 -2.59068 1.77477e-13 
-3.48174 -2.59495 2.13657e-13 
-3.26267 -2.59384 2.70192e-13 
-3.04062 -2.59711 3.26445e-13 
-2.81369 -2.59609 3.84023e-13 
-2.58677 -2.59252 4.38231e-13 
-2.35883 -2.59742 5.84405e-13 
-2.1157 -2.64074 7.23027e-13 
-1.86241 -2.57172 1.40998e-13 
-1.66267 -2.57232 8.55864e-13 
-1.47362 -2.60954 2.54897e-13 
-1.281 -2.61872 -1.88107e-12 
-1.10374 -2.59548 -5.27982e-13 
-0.995409 -2.45177 -6.45821e-13 
-0.875885 -2.36681 4.2529e-12 
-0.93859 -2.64384 2.30774e-12 
-0.634311 -2.77615 -2.10526e-11 
-0.339617 -2.69759 5.32453e-11 
-0.130634 -2.76829 -2.82281e-11 
0.273635 -2.75874 -7.82038e-12 
0.694236 -2.6697 -5.77342e-12 
0.792468 -2.5023 1.14636e-12 
0.869607 -2.65946 2.32032e-12 
1.03895 -2.63018 -3.56252e-12 
1.1955 -2.55726 8.84873e-13 
1.36496 -2.61987 -8.86381e-13 
1.57286 -2.5951 -2.52961e-13 
1.78783 -2.61367 -4.56366e-13 
2.02172 -2.61264 -5.27708e-13 
2.26315 -2.60735 -4.72443e-13 
2.49522 -2.5952 -4.57144e-13 
2.72804 -2.60791 -4.73427e-13 
2.96473 -2.58796 -3.23953e-13 
3.18392 -2.59196 -2.93634e-13 
3.40687 -2.59682 -2.44791e-13 
3.62832 -2.58671 -1.78699e-13 
3.84311 -2.5909 -1.36115e-13 
4.06383 -2.59997 -1.19679e-13 
4.27714 -2.59086 -9.16764e-14 
4.4897 -2.59305 -7.00589e-14 
4.70039 -2.59031 -5.16451e-14 
4.91095 -2.59039 -3.74328e-14 
5.12289 -2.59015 -2.40593e-14 
5.34088 -2.598 -1.34477e-14 
5.55828 -2.59173 -4.34873e-15 
5.78043 -2.59729 8.04931e-15 
6.00708 -2.5985 1.95625e-14 
6.22879 -2.58706 3.16873e-14 
6.45375 -2.59554 5.33929e-14 
6.68051 -2.58947 7.43046e-14 
6.89662 -2.57567 1.00785e-13 
7.13465 -2.61709 1.48676e-13 
7.38095 -2.59528 1.86733e-13 
7.60952 -2.58934 1.97422e-13 
7.86298 -2.62595 2.62534e-13 
8.07367 -2.54533 1.91494e-13 
8.30066 -2.61739 1.2618e-14 
8.48528 -2.52741 1.29961e-09 
-8.48528 -2.34169 -1.22782e-10 
-8.24852 -2.34492 -6.01142e-14 
-8.01503 -2.35014 -1.41836e-13 
-7.77783 -2.4057 -2.01544e-13 
-7.57763 -2.24449 -2.28815e-13 
-7.49053 -2.43903 -7.22977e-14 
-7.22055 -2.41849 -1.42336e-13 
-6.9964 -2.34983 -1.72333e-13 
-6.76717 -2.36803 -6.85975e-14 
-6.52418 -2.35837 -8.72755e-14 
-6.28282 -2.37179 -4.54525e-14 
-6.06053 -2.34248 -2.97401e-14 
-5.84045 -2.34662 -1.52239e-14 
-5.61262 -2.35389 3.53397e-16 
-5.39332 -2.36993 1.48531e-14 
-5.16674 -2.35795 2.66437e-14 
-4.94895 -2.37266 4.18434e-14 
-4.7269 -2.363 6.06574e-14 
-4.50989 -2.37195 7.92832e-14 
-4.29275 -2.36403 1.0504e-13 
-4.07733 -2.35984 1.32334e-13 
-3.86172 -2.35828 1.65754e-13 
-3.64305 -2.35876 2.04041e-13 
-3.42394 -2.3626 2.50689e-13 
-3.20034 -2.36345 3.1784e-13 
-2.97356 -2.36804 3.73689e-13 
-2.74577 -2.3629 4.39351e-13 
-2.51525 -2.36107 5.05999e-13 
-2.26923 -2.39216 5.35428e-13 
-2.0397 -2.41331 5.12664e-13 
-1.80375 -2.31963 3.2417e-13 
-1.59811 -2.33572 2.51726e-13 
-1.40269 -2.39858 3.6797e-13 
-1.20885 -2.40531 -1.26368e-12 
-1.09669 -2.2614 -3.36302e-12 
-0.795666 -2.18351 1.10857e-12 
-0.802331 -2.58865 7.86635e-12 
-0.494652 -2.72898 -4.19235e-12 
-0.327132 -2.55226 -2.06159e-11 
0.0109325 -2.71196 9.94886e-12 
0.415362 -2.62961 -1.53178e-11 
0.509491 -2.7303 -4.12406e-12 
0.676852 -2.3903 -4.2729e-12 
0.871915 -2.31098 1.03856e-11 
0.976808 -2.44888 8.01799e-13 
1.16019 -2.35775 1.97418e-13 
1.36197 -2.38464 1.53068e-12 
1.54945 -2.3817 -8.82917e-13 
1.77279 -2.3923 -2.69329e-13 
1.99626 -2.39773 -7.49512e-13 
2.22993 -2.39663 -3.89969e-13 
2.46791 -2.36527 -6.02764e-13 
2.69624 -2.38027 -4.05695e-13 
2.92452 -2.36478 -4.00919e-13 
3.15434 -2.35017 -3.24079e-13 
3.37112 -2.36446 -2.48717e-13 
3.58916 -2.35587 -2.29278e-13 
3.80718 -2.35498 -1.67733e-13 
4.02427 -2.3706 -1.37344e-13 
4.23997 -2.35863 -1.1051e-13 
4.45464 -2.3594 -8.38525e-14 
4.66612 -2.35613 -6.37079e-14 
4.87784 -2.35478 -4.6331e-14 
5.08899 -2.35558 -3.14164e-14 
5.3042 -2.36581 -1.85218e-14 
5.51954 -2.35976 -7.42815e-15 
5.73969 -2.3658 7.04211e-15 
5.96215 -2.36991 2.17402e-14 
6.1856 -2.35393 3.5988e-14 
6.41124 -2.35911 5.93906e-14 
6.63341 -2.35675 8.81561e-14 
6.85633 -2.32824 1.1295e-13 
7.07919 -2.37789 1.45617e-13 
7.30715 -2.38212 1.99756e-13 
7.54999 -2.34806 2.40347e-13 
7.78424 -2.39621 1.57872e-13 
7.99991 -2.3179 1.43482e-13 
8.24858 -2.35247 3.22176e-14 
8.48528 -2.29653 6.65162e-10 
-8.48528 -2.10473 -1.61969e-10 
-8.27259 -2.08072 8.87522e-14 
-8.05653 -2.10079 3.53762e-14 
-7.82046 -2.15765 -8.1272e-14 
-7.55056 -2.03723 -7.34735e-14 
-7.31535 -2.22453 -2.18005e-13 
-7.07792 -2.12194 -5.72532e-14 
-6.83137 -2.13181 -4.91393e-14 
-6.60744 -2.14122 -5.00561e-14 
-6.36071 -2.14567 -3.26529e-14 
-6.14223 -2.11616 -9.82072e-15 
-5.9154 -2.10751 -1.14201e-14 
-5.69567 -2.12346 -4.23003e-15 
-5.47306 -2.1292 3.99958e-15 
-5.26128 -2.13832 8.79013e-15 
-5.03579 -2.13561 1.35781e-14 
-4.82516 -2.14226 2.18842e-14 
-4.60481 -2.13865 3.02293e-14 
-4.39511 -2.13853 3.94118e-14 
-4.18181 -2.1301 4.67398e-14 
-3.96917 -2.1264 5.64797e-14 
-3.75496 -2.12725 7.55541e-14 
-3.53918 -2.12738 9.31258e-14 
-3.3223 -2.13174 1.18029e-13 
-3.09978 -2.13582 1.51485e-13 
-2.878 -2.13423 1.69366e-13 
-2.65122 -2.13018 1.86583e-13 
-2.41047 -2.15259 2.76713e-13 
-2.18121 -2.16385 3.16259e-13 
-1.96596 -2.16548 2.74222e-13 
-1.71629 -2.08037 -7.99255e-15 
-1.51033 -2.12142 6.32682e-15 
-1.32176 -2.19725 7.83261e-13 
-1.19823 -2.06126 -2.16637e-12 
-0.971626 -2.15139 -1.90625e-12 
-0.783275 -1.98126 -4.54592e-12 
-0.721713 -2.40593 -1.15878e-11 
-0.64781 -2.59675 9.60924e-12 
-0.189287 -2.65858 2.95031e-11 
0.177783 -2.6835 -3.73049e-12 
0.490007 -2.46264 3.32209e-12 
0.595918 -2.5628 3.39194e-12 
0.734394 -2.2041 1.51048e-12 
0.903402 -2.09511 7.35629e-12 
1.05511 -2.21454 -2.224e-12 
1.16788 -2.04152 -2.5842e-13 
1.32175 -2.17091 5.15137e-13 
1.52127 -2.15091 3.73667e-13 
1.73888 -2.1835 -2.50266e-13 
1.98239 -2.17891 -1.81832e-13 
2.22236 -2.1793 -4.23911e-13 
2.46493 -2.14333 -2.64764e-13 
2.70276 -2.15047 -2.18245e-13 
2.93289 -2.13472 -1.76848e-13 
3.16263 -2.1204 -1.20884e-13 
3.38812 -2.12894 -1.15718e-13 
3.60734 -2.12236 -7.31978e-14 
3.83056 -2.12816 -7.33707e-14 
4.04529 -2.1378 -5.99045e-14 
4.26349 -2.12932 -4.16874e-14 
4.47645 -2.1264 -3.38276e-14 
4.68987 -2.12379 -2.45521e-14 
4.90235 -2.12091 -1.73616e-14 
5.11938 -2.12667 -1.09093e-14 
5.33226 -2.13143 -7.32962e-15 
5.55285 -2.1308 -2.32531e-15 
5.77438 -2.13668 6.72201e-15 
5.99471 -2.13647 1.30602e-14 
6.22282 -2.12428 1.62175e-14 
6.44346 -2.12176 2.90679e-14 
6.6623 -2.11542 4.3717e-14 
6.89641 -2.09764 4.09916e-14 
7.11842 -2.14347 7.79752e-14 
7.35024 -2.15349 1.1456e-13 
7.55733 -2.08483 5.74039e-14 
7.76059 -2.15592 6.71555e-14 
7.98045 -2.07941 -7.89624e-14 
8.21224 -2.129 3.59303e-14 
8.48528 -2.09733 -2.96639e-10 
-8.48528 -1.83164 -1.90049e-10 
-8.27183 -1.80999 1.3475e-13 
-7.87057 -1.90288 1.59647e-13 
[...]
POINT_DATA 1978 
VECTORS vectors float
0.00572636 -0.0110248 0.999923 
0.0041955 -0.0373296 0.999294 
0.00125765 -0.042978 0.999075 
-0.000820482 -0.0345071 0.999403 
-0.000727177 -0.023348 0.999726 
0.000715038 -0.0168915 0.999856 
0.00168165 -0.0110247 0.999937 
0.00310543 -0.00755803 0.999966 
0.00342817 -0.00510439 0.999981 
0.00327518 -0.00359327 0.999988 
0.00310577 -0.00277819 0.999991 
0.00367091 -0.00194352 0.999991 
0.00356878 -0.000957764 0.999993 
0.00317543 0.00015146 0.999994 
0.0031121 0.00145437 0.999994 
0.00317807 0.00279943 0.999991 
0.00320835 0.00435553 0.999985 
0.00324869 0.00600953 0.999976 
0.00320944 0.00805454 0.999962 
0.00328322 0.0104655 0.999939 
0.00330599 0.0134563 0.999904 
0.00321089 0.0172172 0.999846 
0.00302041 0.0220065 0.999753 
0.00276176 0.0283049 0.999595 
0.00249818 0.0364196 0.999333 
0.00226043 0.0470506 0.998889 
0.00219916 0.0605983 0.998159 
0.00196688 0.0782089 0.996935 
0.000688848 0.102038 0.99478 
0.000765406 0.142269 0.989827 
0.00208182 0.182088 0.98328 
0.00194341 0.226841 0.97393 
0.000774002 0.292691 0.956207 
7.29698e-05 0.364166 0.931334 
0.000510711 0.430114 0.902775 
0.000423468 0.50301 0.86428 
-0.000600535 0.573944 0.818894 
-0.000138563 0.643801 0.765193 
0.000980386 0.928113 0.372296 
-0.000191381 0.996528 -0.0832539 
0.000170537 0.877309 -0.479926 
0.00216878 0.720061 -0.693907 
0.000394511 0.605647 -0.795734 
0.000988661 0.504625 -0.863338 
0.00110004 0.424457 -0.905447 
-0.00043787 0.353602 -0.935396 
-0.00136172 0.281764 -0.959483 
-0.00155156 0.226272 -0.974063 
-0.00155976 0.175235 -0.984525 
-0.00143915 0.135037 -0.990839 
-0.0016939 0.101121 -0.994872 
-0.00164093 0.0781238 -0.996942 
-0.0018187 0.0587256 -0.998272 
-0.00258792 0.0458259 -0.998946 
-0.00238759 0.0356411 -0.999361 
-0.00270733 0.0278559 -0.999608 
-0.00312063 0.022058 -0.999751 
-0.00320121 0.0173091 -0.999845 
-0.00310166 0.0134915 -0.999904 
-0.0031886 0.0103702 -0.999941 
-0.00341922 0.00793375 -0.999962 
-0.00351705 0.00599414 -0.999975 
-0.00357402 0.00436559 -0.999984 
-0.00351279 0.00291284 -0.999989 
-0.00325246 0.00161116 -0.999993 
-0.00310818 0.00035616 -0.999995 
-0.00292338 -0.000812028 -0.999995 
-0.00269202 -0.00178029 -0.999994 
-0.00277564 -0.00273943 -0.999992 
-0.00266611 -0.0039112 -0.999988 
-0.00260167 -0.00566412 -0.99998 
-0.00274868 -0.00834168 -0.999961 
-0.00163551 -0.0120264 -0.999926 
-0.00120043 -0.0178153 -0.99984 
-0.00173016 -0.0245614 -0.999696 
-0.000719275 -0.0327447 -0.999463 
-0.00124452 -0.0430336 -0.999072 
-0.0036237 -0.038489 -0.999252 
-0.00495088 -0.00847751 -0.999952 
0.00874028 -0.00518208 0.999948 
0.0149312 -0.0295486 0.999452 
0.0184858 -0.0381379 0.999101 
0.0196441 -0.0341945 0.999222 
0.0187595 -0.0252725 0.999504 
0.0202955 -0.0168015 0.999653 
0.0222199 -0.0118011 0.999683 
0.0230038 -0.00795048 0.999704 
0.0247007 -0.00547542 0.99968 
0.0233415 -0.00375707 0.99972 
0.0249926 -0.00250464 0.999684 
0.0250691 -0.00140698 0.999685 
0.0254708 -0.00030978 0.999675 
0.0243625 0.000878589 0.999703 
0.0255955 0.00223306 0.99967 
0.0245263 0.00368425 0.999692 
0.0252952 0.00533502 0.999666 
0.0245901 0.0072468 0.999671 
0.0247833 0.00962708 0.999646 
0.0247267 0.0125194 0.999616 
0.0244896 0.0161204 0.99957 
0.0242033 0.0206844 0.999493 
0.0233144 0.026555 0.999375 
0.0228459 0.0341969 0.999154 
0.0219602 0.0440497 0.998788 
0.0212605 0.0569152 0.998153 
0.0208066 0.073498 0.997078 
0.0201875 0.0953245 0.995241 
0.017003 0.126347 0.99184 
0.0209173 0.169148 0.985369 
0.0229511 0.214042 0.976555 
0.0211107 0.274352 0.961398 
0.023407 0.358391 0.933278 
0.0270493 0.452346 0.891432 
0.0514052 0.474773 0.878606 
0.0764905 0.535247 0.841225 
0.0301266 0.545824 0.837358 
0.00758421 0.703374 0.710779 
0.0251929 0.868632 0.494817 
0.00702207 0.961148 0.275943 
-0.0100616 0.927774 -0.373009 
-0.0309324 0.656068 -0.754067 
-0.055863 0.614944 -0.786589 
-0.0214071 0.563511 -0.825831 
-0.0284698 0.457258 -0.888878 
-0.0280705 0.377798 -0.925462 
-0.0205739 0.303305 -0.952671 
-0.0207534 0.23818 -0.970999 
-0.0187614 0.185361 -0.982491 
-0.0187679 0.141289 -0.98979 
-0.0191434 0.106246 -0.994155 
-0.0202602 0.0805561 -0.996544 
-0.0204673 0.0614808 -0.997898 
-0.0220667 0.0469465 -0.998654 
-0.0225802 0.0367299 -0.99907 
-0.0230526 0.0287278 -0.999321 
-0.0237611 0.0224637 -0.999465 
-0.0241283 0.0175079 -0.999555 
-0.0240905 0.0135082 -0.999618 
-0.0249573 0.0104007 -0.999634 
-0.0250255 0.00790071 -0.999656 
-0.0253378 0.00591412 -0.999661 
-0.0253599 0.00423522 -0.999669 
-0.0252986 0.00277908 -0.999676 
-0.0247196 0.00142086 -0.999693 
-0.02501 0.000186 -0.999687 
-0.0245105 -0.000962864 -0.999699 
-0.0243627 -0.00211644 -0.999701 
-0.0247341 -0.00337637 -0.999688 
-0.0238705 -0.00491322 -0.999703 
-0.0238383 -0.0071911 -0.99969 
-0.0239418 -0.0103019 -0.99966 
-0.0208027 -0.0146698 -0.999676 
-0.0216104 -0.021053 -0.999545 
-0.0207481 -0.0282317 -0.999386 
-0.0183045 -0.0364287 -0.999168 
-0.0194784 -0.0361499 -0.999156 
-0.0128425 -0.0272346 -0.999546 
-0.00920212 -0.00395028 -0.999949 
0.00873622 -0.00432814 0.999952 
0.0184248 -0.0269054 0.999468 
0.0256177 -0.0378542 0.998955 
0.0275568 -0.0345595 0.999023 
0.0302135 -0.0284135 0.999139 
0.0263854 -0.0254382 0.999328 
0.0297659 -0.0173947 0.999405 
0.0328588 -0.0129632 0.999376 
0.0324874 -0.00928738 0.999429 
0.0343556 -0.00608416 0.999391 
0.0338735 -0.00397622 0.999418 
0.0352265 -0.00254145 0.999376 
0.0349936 -0.00121535 0.999387 
0.0352587 -6.95348e-06 0.999378 
0.0347976 0.00117314 0.999394 
0.0353063 0.00255459 0.999373 
0.0349682 0.00400194 0.99938 
0.0352681 0.00572865 0.999361 
0.0348874 0.00776711 0.999361 
0.0348499 0.0103061 0.999339 
0.0345847 0.0134763 0.999311 
0.0341445 0.01745 0.999264 
0.0335388 0.0225422 0.999183 
0.032794 0.0289959 0.999041 
0.0321783 0.0373804 0.998783 
0.0312647 0.048212 0.998348 
0.0306665 0.0622018 0.997592 
0.0303161 0.0806346 0.996283 
0.0294179 0.106662 0.99386 
0.0289383 0.138528 0.989936 
0.0339961 0.179101 0.983243 
0.0377649 0.227803 0.972975 
0.039438 0.285833 0.957467 
0.0444568 0.369371 0.928218 
0.0659828 0.414427 0.907687 
0.111374 0.529189 0.841162 
0.0446826 0.606815 0.793587 
0.0200631 0.757415 0.652625 
0.0510496 0.919806 0.389037 
0.00196377 0.999934 0.0113551 
-0.0462194 0.854712 -0.51704 
-0.0152482 0.79314 -0.608848 
-0.0907154 0.64429 -0.759382 
-0.0716139 0.536455 -0.840885 
-0.0513898 0.486785 -0.872009 
-0.0544537 0.382752 -0.922245 
-0.0395564 0.308826 -0.950296 
-0.0357612 0.243145 -0.96933 
-0.0314197 0.187905 -0.981685 
-0.0300465 0.143908 -0.989135 
-0.029012 0.110879 -0.99341 
-0.0303536 0.0836759 -0.996031 
-0.0302356 0.0650534 -0.997424 
-0.0312121 0.0500101 -0.998261 
-0.0321417 0.0388231 -0.998729 
-0.0325659 0.0305928 -0.999001 
-0.0334196 0.0238366 -0.999157 
-0.0338792 0.0186795 -0.999251 
-0.0341781 0.0144342 -0.999311 
-0.034828 0.0111015 -0.999332 
-0.0350333 0.0084213 -0.999351 
-0.0352156 0.00629098 -0.99936 
-0.0353212 0.00455879 -0.999366 
-0.03539 0.00309889 -0.999369 
-0.035218 0.00175631 -0.999378 
-0.0353817 0.000519095 -0.999374 
-0.0351368 -0.000667912 -0.999382 
-0.0349015 -0.00192585 -0.999389 
-0.0348965 -0.00337882 -0.999385 
-0.0342242 -0.00505297 -0.999401 
-0.0337662 -0.00731614 -0.999403 
-0.0334731 -0.0106173 -0.999383 
-0.0318432 -0.0144739 -0.999388 
-0.0309068 -0.0198625 -0.999325 
-0.0300057 -0.0272932 -0.999177 
-0.0275895 -0.0349841 -0.999007 
-0.0265903 -0.0380586 -0.998922 
-0.0187296 -0.0272331 -0.999454 
-0.00949511 -0.00563994 -0.999939 
0.00691844 -0.00349129 0.99997 
0.015865 -0.027256 0.999502 
0.0224609 -0.0384843 0.999007 
0.0271172 -0.0369715 0.998948 
0.0264433 -0.029154 0.999225 
0.0312447 -0.0204446 0.999303 
0.0303437 -0.0158864 0.999413 
0.0309519 -0.0109672 0.999461 
0.0321938 -0.00758076 0.999453 
0.0327214 -0.0049507 0.999452 
0.0322717 -0.00329323 0.999474 
0.0320822 -0.00161247 0.999484 
0.0325942 -0.000294902 0.999469 
0.0326883 0.000905283 0.999465 
0.032874 0.00210525 0.999457 
0.032712 0.00351333 0.999459 
0.0328121 0.00499361 0.999449 
0.0326638 0.00687989 0.999443 
0.0325455 0.00912744 0.999428 
0.0321883 0.0120241 0.999409 
0.0318197 0.0156013 0.999372 
0.0315434 0.0200688 0.999301 
0.0311413 0.0257226 0.999184 
0.030856 0.0328362 0.998984 
0.0305901 0.0420009 0.998649 
0.0301881 0.053538 0.998109 
0.0301405 0.0686177 0.997188 
0.0310815 0.0893904 0.995511 
0.0323757 0.115199 0.992815 
0.0345987 0.146372 0.988624 
0.0409395 0.190233 0.980885 
0.0485419 0.242309 0.968984 
0.0560751 0.308466 0.949581 
0.0717517 0.349181 0.934304 
0.0890688 0.442311 0.892428 
0.132005 0.477016 0.868925 
0.0784693 0.637354 0.766565 
0.0507097 0.733593 0.677695 
0.0235909 0.981527 0.189863 
-0.0170664 0.972765 -0.231164 
-0.0936639 0.766926 -0.634864 
-0.0546494 0.740913 -0.669374 
-0.113833 0.560803 -0.820087 
-0.0965955 0.466288 -0.879343 
-0.0751347 0.414883 -0.906767 
-0.0717485 0.336496 -0.938948 
-0.0539849 0.30217 -0.951724 
-0.0455134 0.24321 -0.968905 
-0.0377906 0.18907 -0.981236 
-0.0339925 0.144056 -0.988986 
-0.0320148 0.108407 -0.993591 
-0.0307844 0.0825375 -0.996112 
-0.0303475 0.0636538 -0.99751 
-0.0303002 0.0495306 -0.998313 
-0.0302892 0.0386948 -0.998792 
-0.0307921 0.0301332 -0.999071 
-0.0309225 0.0236123 -0.999243 
-0.0317272 0.0183443 -0.999328 
-0.0322303 0.0142482 -0.999379 
-0.0322222 0.0108868 -0.999421 
-0.0323 0.00823734 -0.999444 
-0.0322796 0.00612936 -0.99946 
-0.0323748 0.00446384 -0.999466 
-0.0325769 0.00301961 -0.999465 
-0.032742 0.00172598 -0.999462 
-0.0328329 0.000474534 -0.999461 
-0.0329855 -0.000761145 -0.999455 
-0.032896 -0.00216956 -0.999456 
-0.0324865 -0.0039314 -0.999464 
-0.0319105 -0.0058593 -0.999473 
-0.0312881 -0.00838771 -0.999475 
-0.0302777 -0.012198 -0.999467 
-0.0302869 -0.0162984 -0.999408 
-0.0298952 -0.0222631 -0.999305 
-0.0270196 -0.0291132 -0.999211 
-0.0271703 -0.0354164 -0.999003 
-0.0236427 -0.0400069 -0.99892 
-0.0190266 -0.0300059 -0.999369 
-0.00698254 -0.00575929 -0.999959 
0.00538053 -0.00345108 0.999979 
0.0109121 -0.0268146 0.999581 
0.0200088 -0.0402703 0.998988 
0.0212726 -0.0340209 0.999195 
0.0198051 -0.0259302 0.999467 
0.0259861 -0.0224778 0.999409 
0.0225269 -0.0183244 0.999578 
0.0251849 -0.0134517 0.999592 
0.0251869 -0.00951884 0.999637 
0.0267806 -0.00643281 0.999621 
0.025522 -0.00440358 0.999664 
0.025734 -0.00252835 0.999666 
0.0255695 -0.000809417 0.999673 
0.0259765 0.000449523 0.999662 
0.0258023 0.00161231 0.999666 
0.0264629 0.00282836 0.999646 
0.0259245 0.00421846 0.999655 
0.0262988 0.00578861 0.999637 
0.0258393 0.00776917 0.999636 
0.0257996 0.0102452 0.999615 
0.0254613 0.0133962 0.999586 
0.02532 0.0173328 0.999529 
0.0251801 0.0221987 0.999436 
0.0249853 0.0283074 0.999287 
0.0252052 0.0360094 0.999033 
0.0253448 0.0455726 0.998639 
0.0257466 0.0579742 0.997986 
0.0270655 0.0748794 0.996825 
0.0290703 0.0957232 0.994983 
0.0321933 0.121597 0.992057 
0.0372775 0.155199 0.98718 
0.0490177 0.206287 0.977263 
0.0610914 0.262986 0.962863 
0.0809968 0.314715 0.945724 
0.101974 0.394355 0.913283 
0.147805 0.429364 0.890955 
0.122078 0.634233 0.763443 
0.0958355 0.733593 0.672798 
0.060767 0.824732 0.56225 
0.0451432 0.975366 0.215926 
-0.0680015 0.905185 -0.419542 
-0.134322 0.69029 -0.710956 
-0.139484 0.506665 -0.850785 
-0.119908 0.424675 -0.89737 
-0.0939398 0.365738 -0.925965 
-0.0777308 0.29574 -0.952101 
-0.0600275 0.262761 -0.962992 
-0.0505868 0.215938 -0.975096 
-0.0422726 0.188909 -0.981084 
-0.0353988 0.147315 -0.988456 
-0.0312453 0.113213 -0.993079 
-0.028321 0.0877395 -0.995741 
-0.0265132 0.0662623 -0.99745 
-0.0257231 0.0525341 -0.998288 
-0.0249266 0.0410594 -0.998846 
-0.0249819 0.0318517 -0.99918 
-0.0249186 0.0251526 -0.999373 
-0.0253889 0.0195177 -0.999487 
-0.0256891 0.0151724 -0.999555 
-0.0258223 0.0117063 -0.999598 
-0.0256002 0.00881251 -0.999633 
-0.0255742 0.00659319 -0.999651 
-0.0255086 0.00487178 -0.999663 
-0.0258085 0.00344981 -0.999661 
-0.0258321 0.00216891 -0.999664 
-0.0261672 0.000959544 -0.999657 
-0.0263761 -0.000299428 -0.999652 
-0.0262719 -0.00172885 -0.999653 
-0.02614 -0.00351674 -0.999652 
-0.0255061 -0.00562688 -0.999659 
-0.0248878 -0.00811082 -0.999657 
-0.0245155 -0.0114857 -0.999633 
-0.0240413 -0.0160868 -0.999581 
-0.0239802 -0.0211618 -0.999488 
-0.0215621 -0.0291437 -0.999343 
-0.0208601 -0.0373776 -0.999083 
-0.0173889 -0.039708 -0.99906 
-0.0131296 -0.0270007 -0.999549 
-0.0056533 -0.005519 -0.999969 
0.00437595 -0.00441918 0.999981 
0.00800321 -0.0276856 0.999584 
0.0159515 -0.0384027 0.999135 
0.0145244 -0.0413336 0.99904 
0.0161101 -0.0343634 0.999279 
0.016678 -0.0227266 0.999602 
0.0183191 -0.0161959 0.999701 
0.0193932 -0.0122535 0.999737 
0.0198039 -0.0082718 0.99977 
0.0197111 -0.00582639 0.999789 
0.0193091 -0.00356687 0.999807 
0.0196271 -0.00161778 0.999806 
0.0193998 -4.69302e-05 0.999812 
0.0194957 0.00114041 0.999809 
0.0196395 0.0023373 0.999804 
0.0198573 0.0035048 0.999797 
0.019722 0.00492632 0.999793 
0.0197681 0.00661533 0.999783 
0.0194697 0.00887877 0.999771 
0.0194896 0.0116719 0.999742 
0.0194019 0.0152505 0.999695 
0.0193475 0.0196686 0.999619 
0.0193762 0.0251372 0.999496 
0.0196896 0.0321134 0.99929 
0.0200777 0.0406146 0.998973 
0.0208386 0.0515304 0.998454 
0.0225403 0.0662595 0.997548 
0.0248934 0.0845574 0.996108 
0.0285012 0.107423 0.993805 
0.0343499 0.136238 0.99008 
0.0433951 0.173209 0.983928 
0.0641677 0.23944 0.968788 
0.0855326 0.285885 0.954439 
0.0970185 0.285946 0.953322 
0.111589 0.354845 0.928242 
0.127565 0.34755 0.928943 
0.163971 0.57862 0.798944 
0.151183 0.727357 0.669399 
0.103062 0.923121 0.37044 
-0.0193458 0.992433 -0.121255 
-0.127822 0.819651 -0.558421 
-0.162627 0.60696 -0.777915 
-0.159507 0.46614 -0.870213 
-0.137069 0.386133 -0.912203 
-0.108859 0.343553 -0.932803 
-0.0861262 0.280564 -0.955963 
-0.0643127 0.236974 -0.969385 
-0.0480886 0.189543 -0.980694 
-0.0380156 0.155301 -0.987135 
-0.0316438 0.124055 -0.991771 
-0.0271612 0.098225 -0.994793 
-0.0241484 0.0763158 -0.996791 
-0.021441 0.0602873 -0.997951 
-0.0205823 0.0481347 -0.998629 
-0.0197915 0.0374932 -0.999101 
-0.0191575 0.0297928 -0.999372 
-0.0194817 0.0233229 -0.999538 
-0.0195708 0.0182619 -0.999642 
-0.0196195 0.0142345 -0.999706 
-0.0197259 0.0109182 -0.999746 
-0.0193985 0.00821677 -0.999778 
-0.0192836 0.00613512 -0.999795 
-0.0193255 0.00450021 -0.999803 
-0.0194886 0.00321798 -0.999805 
-0.019439 0.00204351 -0.999809 
-0.0198699 0.0008241 -0.999802 
-0.0199225 -0.000462852 -0.999801 
-0.0198727 -0.00201967 -0.9998 
-0.0198042 -0.00403914 -0.999796 
-0.0190346 -0.00635466 -0.999799 
-0.0185604 -0.00912127 -0.999786 
-0.0188951 -0.0131111 -0.999735 
-0.017948 -0.0178855 -0.999679 
-0.0180926 -0.0234987 -0.99956 
-0.0157648 -0.0309823 -0.999396 
-0.0162478 -0.0379623 -0.999147 
-0.013406 -0.0421125 -0.999023 
-0.0106719 -0.0305858 -0.999475 
-0.00403082 -0.00610658 -0.999973 
0.00297861 -0.00536175 0.999981 
0.00594113 -0.0296166 0.999544 
0.0112553 -0.0405915 0.999112 
0.0107681 -0.0399025 0.999146 
0.0135681 -0.030346 0.999447 
0.0116194 -0.0243816 0.999635 
0.0136322 -0.0182731 0.99974 
0.0136697 -0.0133162 0.999818 
0.0150408 -0.00969622 0.99984 
0.0142583 -0.0067009 0.999876 
0.0146627 -0.00438025 0.999883 
0.0145187 -0.00206777 0.999892 
0.014502 -0.000403687 0.999895 
0.0141744 0.000940743 0.999899 
0.0144772 0.00206442 0.999893 
0.014378 0.00315864 0.999892 
0.0147103 0.00429146 0.999883 
0.0143944 0.00580269 0.999879 
0.0144539 0.00772893 0.999866 
0.0143512 0.0102862 0.999844 
0.0145182 0.0134284 0.999804 
0.0145221 0.0173536 0.999744 
0.0146463 0.0221716 0.999647 
0.0150884 0.0282856 0.999486 
0.0155513 0.0357316 0.99924 
0.0164117 0.0451066 0.998847 
0.0180394 0.0575133 0.998182 
0.0203172 0.0727945 0.99714 
0.0237169 0.0920084 0.995476 
0.0289677 0.116526 0.992765 
0.0374582 0.147325 0.988378 
0.0519805 0.193368 0.979748 
0.0692862 0.231259 0.970422 
0.0786455 0.242404 0.966982 
0.114438 0.300864 0.946776 
0.164334 0.398104 0.902501 
0.190402 0.506648 0.840865 
0.201973 0.682011 0.7029 
0.095779 0.843888 0.527902 
-0.0315045 0.990852 -0.131223 
-0.181452 0.750235 -0.635786 
-0.193648 0.566384 -0.801067 
-0.202558 0.505207 -0.83889 
-0.156321 0.388446 -0.908115 
-0.108747 0.305517 -0.945956 
-0.0811067 0.250862 -0.964619 
-0.0637904 0.218311 -0.973792 
-0.049439 0.184685 -0.981553 
-0.037041 0.147912 -0.988307 
-0.0298812 0.120111 -0.992311 
-0.0245731 0.0966121 -0.995019 
-0.0215635 0.0784944 -0.996681 
-0.0181844 0.0620515 -0.997907 
-0.0164404 0.0489721 -0.998665 
-0.0158892 0.0392107 -0.999105 
-0.0147334 0.0307911 -0.999417 
-0.0148692 0.0243565 -0.999593 
-0.0147895 0.0190874 -0.999708 
-0.0146439 0.0148272 -0.999783 
-0.0146275 0.0113549 -0.999828 
-0.0144457 0.00859857 -0.999859 
-0.014185 0.0063738 -0.999879 
-0.0143019 0.00471141 -0.999887 
-0.0142671 0.00343989 -0.999892 
-0.014262 0.00235247 -0.999895 
-0.0145851 0.00116935 -0.999893 
-0.0146681 -9.71941e-05 -0.999892 
-0.0147091 -0.00163611 -0.99989 
-0.0148041 -0.0037096 -0.999883 
-0.0142536 -0.00615288 -0.999879 
-0.0138321 -0.00901299 -0.999864 
-0.0142646 -0.0128179 -0.999816 
-0.0133753 -0.017718 -0.999753 
-0.0132741 -0.0237565 -0.99963 
-0.0115744 -0.031805 -0.999427 
-0.0113392 -0.0399068 -0.999139 
-0.00929835 -0.0424242 -0.999056 
-0.00753071 -0.0300937 -0.999519 
-0.00280507 -0.00563366 -0.99998 
0.00202043 -0.00660988 0.999976 
0.0040444 -0.0298163 0.999547 
0.00847422 -0.043595 0.999013 
0.0075062 -0.0409222 0.999134 
0.00974351 -0.0331802 0.999402 
0.00880787 -0.0246945 0.999656 
0.0101788 -0.017973 0.999787 
0.0101039 -0.0130752 0.999863 
0.010848 -0.00921466 0.999899 
0.00993138 -0.00629175 0.999931 
0.0106936 -0.0037091 0.999936 
0.0102415 -0.00149756 0.999946 
0.0102612 0.000103683 0.999947 
0.00983124 0.00137707 0.999951 
0.0100677 0.00242234 0.999946 
0.00992369 0.00340369 0.999945 
0.0102831 0.00453297 0.999937 
0.00989125 0.0060263 0.999933 
0.0101287 0.00811382 0.999916 
0.0100772 0.0107863 0.999891 
0.0103126 0.0140743 0.999848 
0.0104276 0.0181071 0.999782 
0.0108293 0.0232113 0.999672 
0.0113395 0.0293916 0.999504 
0.0121504 0.0371952 0.999234 
0.0134819 0.0471887 0.998795 
0.0153436 0.0595139 0.998109 
0.0181551 0.0751332 0.997008 
0.0221682 0.0944579 0.995282 
0.0281451 0.11845 0.992561 
0.039444 0.153084 0.987426 
0.0528421 0.1887 0.980612 
0.0555898 0.195521 0.979123 
0.0789365 0.244337 0.966472 
0.107383 0.293005 0.950062 
0.157318 0.357093 0.920725 
0.210568 0.471053 0.856604 
0.254705 0.591911 0.764701 
0.18486 0.832909 0.521622 
0.0330563 0.994761 0.0967323 
-0.107521 0.933644 -0.341686 
-0.238143 0.668294 -0.704749 
-0.212205 0.464903 -0.859554 
-0.152377 0.353922 -0.922778 
-0.106696 0.289877 -0.951098 
-0.0731199 0.235872 -0.969029 
-0.0574193 0.201464 -0.977811 
-0.045052 0.17107 -0.984228 
-0.0361304 0.145053 -0.988764 
-0.0273623 0.115373 -0.992945 
-0.0213243 0.0914492 -0.995581 
-0.0176217 0.0728276 -0.997189 
-0.0144076 0.057198 -0.998259 
-0.0126069 0.0455628 -0.998882 
-0.0119933 0.0365994 -0.999258 
-0.0109551 0.028719 -0.999527 
-0.0109205 0.0227421 -0.999682 
-0.0106314 0.0178622 -0.999784 
-0.0104439 0.0138387 -0.99985 
-0.0102619 0.0106256 -0.999891 
-0.0101347 0.0080086 -0.999916 
-0.00988763 0.00591249 -0.999934 
-0.0100121 0.00438941 -0.99994 
-0.0098369 0.00328489 -0.999946 
-0.0100015 0.00227883 -0.999947 
-0.0102073 0.00117721 -0.999947 
-0.0103199 -0.000112093 -0.999947 
-0.0104267 -0.00174157 -0.999944 
-0.0104635 -0.0038773 -0.999938 
-0.0102088 -0.00658404 -0.999926 
-0.0101658 -0.00985143 -0.9999 
-0.0104165 -0.0137714 -0.999851 
-0.00963225 -0.0186495 -0.99978 
-0.00989488 -0.0243057 -0.999656 
-0.0086189 -0.0322186 -0.999444 
-0.00831092 -0.0406598 -0.999138 
-0.00674396 -0.0432227 -0.999043 
-0.00503049 -0.0289128 -0.999569 
-0.00221376 -0.0059011 -0.99998 
0.00144113 -0.00684668 0.999976 
0.00295794 -0.0321147 0.99948 
0.00597083 -0.0431827 0.999049 
0.00530074 -0.0414995 0.999124 
0.00719178 -0.0328055 0.999436 
0.00630654 -0.0251806 0.999663 