# vtk DataFile Version 3.0 
Exported using Morpho https://github.com/Morpho-lang/morpho 
ASCII 
DATASET UNSTRUCTURED_GRID 

POINTS 1978 float 
-8.48592 -2.82586 0.000145462 
-8.23626 -2.83086 -0.000434513 
-8.04304 -2.82966 -0.000550955 
-7.79013 -2.83157 -0.000366939 
-7.46939 -2.82335 -0.000277142 
-7.20069 -2.82672 -0.000212509 
-6.9989 -2.82701 -0.0002315 
-6.75902 -2.82319 -0.000237011 
-6.50436 -2.8253 -0.000110605 
-6.33466 -2.82652 -0.000109414 
-6.1648 -2.82422 -2.74659e-05 
-5.9316 -2.82618 -1.23461e-05 
-5.71629 -2.82836 -0.000132209 
-5.5137 -2.82564 -9.53568e-05 
-5.29735 -2.82627 -3.00124e-05 
-5.08816 -2.82674 -0.000156074 
-4.87427 -2.82601 -9.91635e-05 
-4.66407 -2.82715 -9.41673e-05 
-4.45098 -2.82354 -0.000106006 
-4.22691 -2.82735 -8.24581e-05 
-4.02202 -2.82728 -0.000107982 
-3.82125 -2.82673 7.77549e-06 
-3.61426 -2.82819 -2.7081e-05 
-3.41107 -2.8265 3.66295e-05 
-3.19254 -2.82793 3.4518e-05 
-2.98166 -2.82818 5.07395e-05 
-2.76005 -2.82721 0.000205696 
-2.53328 -2.82793 0.000322843 
-2.29742 -2.82918 0.000486805 
-2.05483 -2.8292 0.000486795 
-1.80682 -2.82927 0.000517321 
-1.59842 -2.83057 0.000339733 
-1.39906 -2.83144 3.14485e-06 
-1.18528 -2.82634 0.00103327 
-1.01099 -2.80954 0.00188245 
-0.852959 -2.82412 0.00289405 
-0.772445 -2.82211 0.00351935 
-0.652225 -2.79581 0.0158464 
-0.286601 -2.74309 0.0189739 
0.0547931 -2.75626 -0.019865 
0.314697 -2.75458 -0.0169988 
0.633159 -2.80531 -0.0180758 
0.753238 -2.80219 -0.00632524 
0.899048 -2.82121 -0.00213374 
1.06863 -2.81856 -0.00151312 
1.19866 -2.83 -0.000204429 
1.33155 -2.82939 -0.000137837 
1.56677 -2.83333 -0.000340058 
1.80015 -2.83198 -0.000404209 
2.05788 -2.8308 -0.000463829 
2.29346 -2.82631 -0.000416829 
2.52393 -2.82821 -0.000273565 
2.75247 -2.82826 -0.000241349 
2.98386 -2.82934 -0.00010852 
3.20207 -2.82596 -3.05938e-05 
3.40685 -2.8274 1.09463e-05 
3.62242 -2.82732 2.17673e-05 
3.82288 -2.82744 9.30365e-05 
4.0283 -2.82766 7.69661e-05 
4.25013 -2.82893 0.000130869 
4.44982 -2.82565 7.95454e-05 
4.661 -2.82522 7.57912e-05 
4.85818 -2.82602 5.67787e-05 
5.07949 -2.82657 7.18342e-05 
5.28152 -2.82483 0.000136354 
5.50046 -2.82798 -3.78977e-05 
5.70917 -2.82732 0.000240313 
5.923 -2.82505 5.96638e-05 
6.15682 -2.82395 4.95808e-05 
6.35997 -2.82459 0.000138379 
6.5914 -2.82466 4.6314e-05 
6.8171 -2.82573 0.000170043 
7.01804 -2.82671 0.000146489 
7.28355 -2.82813 0.000183963 
7.52713 -2.82859 0.000215874 
7.76555 -2.82912 0.000247593 
8.04037 -2.82965 0.00063279 
8.22902 -2.83456 0.00043766 
8.48326 -2.82498 -7.91448e-05 
-8.48547 -2.55653 0.000494783 
-8.28769 -2.61818 -0.000165648 
-8.04836 -2.55264 -0.000181515 
-7.85021 -2.62074 -8.61264e-05 
-7.57956 -2.66072 -8.89546e-05 
-7.26337 -2.62763 -5.34592e-05 
-7.01303 -2.56602 -3.76713e-05 
-6.80866 -2.60506 -1.84258e-05 
-6.55969 -2.61957 8.33961e-05 
-6.33087 -2.52306 6.45776e-06 
-6.10957 -2.6055 4.67019e-06 
-5.88751 -2.58925 2.17576e-05 
-5.67963 -2.57471 1.42122e-05 
-5.45814 -2.59154 4.45383e-05 
-5.24161 -2.58541 5.06027e-05 
-5.02375 -2.59154 7.38298e-05 
-4.80786 -2.58609 6.55883e-05 
-4.59 -2.59098 0.000107417 
-4.361 -2.6039 0.000121267 
-4.1429 -2.5876 0.000156798 
-3.9359 -2.58047 0.000103164 
-3.7261 -2.58813 9.60505e-05 
-3.51657 -2.58221 0.00010508 
-3.30055 -2.59545 0.000120468 
-3.07904 -2.58449 0.000166305 
-2.86022 -2.59116 0.000128952 
-2.63361 -2.59145 0.000129416 
-2.39629 -2.59791 6.01094e-05 
-2.15676 -2.60477 0.000129562 
-1.90869 -2.61405 0.000135543 
-1.67497 -2.58263 -0.00025411 
-1.47283 -2.58893 -0.000636428 
-1.27435 -2.62368 7.97566e-05 
-1.08565 -2.59276 -0.000156605 
-0.903705 -2.6113 -0.00019727 
-0.792244 -2.47456 -0.000771396 
-0.707622 -2.61826 -3.77627e-06 
-0.561283 -2.71375 0.00349116 
-0.286018 -2.69161 -0.00461079 
-0.0186492 -2.70352 0.0233848 
0.256288 -2.68241 -0.0101025 
0.540921 -2.72236 0.00128171 
0.668524 -2.60284 0.000998487 
0.818514 -2.60354 0.000617517 
0.975713 -2.61831 -0.000281047 
1.12536 -2.52208 -5.75509e-05 
1.34557 -2.64103 0.00048883 
1.57181 -2.62388 0.000186557 
1.82699 -2.63111 -1.23729e-05 
2.06205 -2.60162 -0.000258116 
2.30039 -2.59284 -0.000142173 
2.53551 -2.59481 -0.000131364 
2.77815 -2.60433 -9.56824e-05 
3.00145 -2.59174 -0.000131627 
3.21395 -2.57718 -0.000137552 
3.43345 -2.59595 -0.000134568 
3.64049 -2.57783 -0.000141657 
3.85265 -2.58638 -0.000169586 
4.07804 -2.60533 -0.000129834 
4.28497 -2.57963 -7.91877e-05 
4.49996 -2.59019 -6.632e-05 
4.70568 -2.56992 -3.41747e-05 
4.92196 -2.5979 -3.54185e-05 
5.13203 -2.57966 -0.000120698 
5.35215 -2.59854 -4.61471e-05 
5.56829 -2.58712 -5.22902e-05 
5.78604 -2.59116 -6.08168e-05 
6.01462 -2.60816 -9.56221e-05 
6.22981 -2.57283 -6.17336e-05 
6.45112 -2.60126 -2.19929e-05 
6.68117 -2.59235 4.3729e-05 
6.89222 -2.5632 0.00011494 
7.12438 -2.62841 0.000100749 
7.3759 -2.6082 0.000175315 
7.61512 -2.60366 0.000117458 
7.87532 -2.63482 8.70315e-05 
8.07856 -2.54779 0.00015176 
8.30272 -2.62517 7.9174e-05 
8.48922 -2.53636 -0.000582846 
-8.48376 -2.36238 0.000586793 
-8.20302 -2.37048 0.00011182 
-7.94797 -2.31087 6.78931e-06 
-7.72967 -2.43761 5.5068e-05 
-7.58483 -2.28664 6.9937e-05 
-7.43704 -2.47522 -3.6719e-05 
-7.17912 -2.39076 5.03491e-06 
-6.95005 -2.31319 2.7883e-06 
-6.72351 -2.3973 3.99386e-05 
-6.508 -2.36483 -2.79096e-05 
-6.21344 -2.33343 2.80385e-05 
-6.00999 -2.36299 9.89465e-06 
-5.79823 -2.33447 1.20661e-05 
-5.5724 -2.35347 4.98891e-05 
-5.35553 -2.35256 0.000103897 
-5.13262 -2.35521 0.000125747 
-4.91763 -2.35203 6.07251e-05 
-4.69771 -2.35486 6.02072e-05 
-4.47222 -2.37515 6.30649e-05 
-4.25384 -2.36628 0.000124284 
-4.03994 -2.34298 9.84239e-05 
-3.82799 -2.34599 9.40603e-05 
-3.61992 -2.346 5.15827e-05 
-3.40305 -2.35449 6.45065e-05 
-3.19061 -2.35734 9.83626e-05 
-2.96606 -2.35003 0.000120222 
-2.74568 -2.35676 3.69983e-05 
-2.51542 -2.36159 -8.72295e-05 
-2.28342 -2.37142 3.06801e-06 
-2.04242 -2.38942 0.000216079 
-1.81158 -2.37183 4.48892e-05 
-1.58791 -2.33802 -0.000462065 
-1.38195 -2.36807 9.35437e-05 
-1.19915 -2.3938 0.000159431 
-0.988727 -2.41541 -0.000531471 
-0.75184 -2.3306 0.00223136 
-0.599683 -2.51308 0.00133015 
-0.466469 -2.62195 -0.00423851 
-0.228563 -2.6213 0.0113422 
0.0108176 -2.62376 0.0286362 
0.260077 -2.61104 -0.00560206 
0.493767 -2.62416 0.00779271 
0.642649 -2.42921 -0.00093866 
0.786603 -2.39979 0.000845717 
0.944942 -2.39223 0.000198088 
1.126 -2.3033 0.000325879 
1.3151 -2.42923 4.12053e-05 
1.52399 -2.41491 -2.16148e-05 
1.75704 -2.4277 6.21612e-05 
1.99259 -2.38108 -8.04746e-05 
2.23024 -2.36598 -3.4258e-05 
2.46955 -2.36064 -7.75839e-06 
2.70209 -2.37898 1.26933e-05 
2.93046 -2.35935 -0.000106351 
3.14711 -2.3386 -0.000153829 
3.36981 -2.35617 -0.000103174 
3.57759 -2.34159 -6.91055e-05 
3.79445 -2.34772 -6.32312e-05 
4.01365 -2.37624 -0.000130369 
4.22525 -2.34457 -0.000158974 
4.44259 -2.35444 -9.32913e-05 
4.65122 -2.33225 -5.97144e-05 
4.87139 -2.35833 -1.06464e-05 
5.07893 -2.34409 -6.65434e-05 
5.29881 -2.36549 -7.03994e-05 
5.51387 -2.35348 -4.00847e-05 
5.73448 -2.35422 -1.07273e-05 
5.95715 -2.37796 -1.58218e-05 
6.17066 -2.34333 -6.9695e-06 
6.40227 -2.35758 -7.00513e-06 
6.61846 -2.36402 7.83517e-05 
6.83809 -2.31902 4.59123e-05 
7.0693 -2.38126 -2.15134e-05 
7.29081 -2.40216 5.47785e-06 
7.54376 -2.37732 -5.286e-06 
7.79375 -2.41809 2.80266e-05 
8.00513 -2.31614 -6.72837e-05 
8.25356 -2.36615 -7.06164e-05 
8.48275 -2.3029 -0.000566579 
-8.48269 -2.1075 0.000445589 
-8.26372 -2.16881 0.000115738 
-8.07153 -2.07435 3.51168e-05 
-7.80641 -2.13727 4.15441e-05 
-7.55044 -2.0595 8.7988e-05 
-7.33583 -2.23314 -6.30122e-05 
-7.09758 -2.12208 3.46242e-06 
-6.80399 -2.13203 -1.66994e-05 
-6.60291 -2.13068 -6.14795e-05 
-6.36208 -2.16733 -1.50462e-05 
-6.12019 -2.09144 -1.75521e-05 
-5.92359 -2.10435 -4.55251e-05 
-5.6925 -2.11604 -7.4552e-05 
-5.47605 -2.11589 -4.42022e-05 
-5.25574 -2.12502 -8.83316e-06 
-5.04094 -2.11563 -3.33883e-05 
-4.82416 -2.12065 -0.000117741 
-4.59894 -2.13743 -0.00014968 
-4.38538 -2.1393 -0.000111108 
-4.17417 -2.12077 -8.12487e-05 
-3.95766 -2.10882 -9.67283e-05 
-3.74975 -2.10682 -0.000139602 
-3.53325 -2.11913 -0.000168205 
-3.32031 -2.1194 -0.000154412 
-3.10265 -2.12626 -0.00010335 
-2.87615 -2.1153 -0.000125073 
-2.65036 -2.12831 -0.000169569 
-2.41817 -2.12967 -0.000152422 
-2.1802 -2.15062 8.43723e-05 
-1.95557 -2.14923 0.000244589 
-1.72723 -2.12697 0.000132331 
-1.49974 -2.1083 0.000315483 
-1.30325 -2.13497 -0.000141903 
-1.10749 -2.1959 -0.000520999 
-0.93014 -2.2468 -0.000164962 
-0.808317 -2.11572 -0.000127222 
-0.616113 -2.30935 0.0020053 
-0.433795 -2.5262 -0.00977046 
-0.195761 -2.53179 0.0128551 
0.0787659 -2.582 -0.0304004 
0.364897 -2.52545 0.0060807 
0.511085 -2.43799 -0.0157397 
0.651881 -2.23541 -0.00279616 
0.806403 -2.17923 -0.000555731 
0.958433 -2.17059 0.000684357 
1.13466 -2.07426 3.79133e-05 
1.32481 -2.20832 0.000324719 
1.54915 -2.20091 -0.000180099 
1.77571 -2.1993 4.55322e-05 
2.02117 -2.15395 -5.45796e-05 
2.2712 -2.14261 7.8973e-06 
2.51771 -2.13347 0.000104375 
2.7458 -2.14475 0.000135203 
2.96545 -2.11523 0.000134795 
3.19892 -2.11525 0.000125602 
3.40518 -2.10817 0.00015258 
3.62259 -2.11049 0.000176993 
3.846 -2.1247 0.000170935 
4.05149 -2.13299 9.61759e-05 
4.274 -2.11544 7.2723e-05 
4.47921 -2.10911 8.4395e-05 
4.70639 -2.11235 0.000109716 
4.90974 -2.11265 9.8015e-05 
5.13177 -2.12038 3.56515e-05 
5.34135 -2.12648 2.68611e-05 
5.56282 -2.12173 6.58971e-05 
5.78822 -2.1282 8.99168e-05 
5.99588 -2.12859 4.92004e-05 
6.2359 -2.12466 3.19683e-05 
6.45428 -2.11387 1.80727e-05 
6.66531 -2.11025 1.13029e-05 
6.9176 -2.10696 3.36087e-05 
7.13201 -2.14054 -4.98462e-05 
7.36185 -2.1796 -7.58213e-05 
7.55289 -2.0859 -0.000104422 
7.73817 -2.18914 -7.02522e-05 
7.95419 -2.08883 -4.35979e-05 
8.20859 -2.13749 -0.000159694 
8.48446 -2.1012 -0.000430918 
-8.48161 -1.79659 0.000281891 
-8.30486 -1.90064 7.17764e-05 
-7.89902 -1.90149 3.87187e-05 
-7.67133 -1.87861 2.47624e-05 
-7.43159 -1.78894 -5.85582e-05 
[...]
POINT_DATA 1978 
VECTORS vectors float
0.0805019 -0.12387 0.990696 
0.0928431 -0.0896464 0.994583 
0.101933 -0.0685777 0.995542 
0.113161 -0.047427 0.995503 
0.124185 -0.0308341 0.995323 
0.133195 -0.023182 0.99406 
0.139842 -0.0199343 0.992853 
0.143783 -0.0211279 0.99231 
0.144151 -0.0232401 0.992271 
0.143245 -0.0231336 0.991488 
0.14299 -0.0228039 0.992469 
0.14079 -0.0213239 0.992709 
0.139422 -0.0184479 0.992922 
0.139456 -0.01668 0.993102 
0.139118 -0.0161132 0.993041 
0.138168 -0.0153537 0.993098 
0.138816 -0.0123799 0.993116 
0.137007 -0.0110107 0.993409 
0.137875 -0.00950171 0.993177 
0.137557 -0.00717689 0.993214 
0.136693 -0.00543655 0.993349 
0.135307 -0.000685358 0.993545 
0.132463 0.00371559 0.993902 
0.131262 0.0104384 0.9941 
0.127828 0.0186027 0.994528 
0.126291 0.0270095 0.994517 
0.12268 0.0378157 0.994749 
0.116419 0.0491611 0.995131 
0.105371 0.0668939 0.995319 
0.0888381 0.0947235 0.994715 
0.0669608 0.137572 0.991304 
0.0435849 0.191307 0.983175 
0.0203316 0.258981 0.967622 
-0.00466328 0.356586 0.93586 
-0.0212068 0.453538 0.891604 
-0.0389742 0.555542 0.8308 
-0.0429264 0.607419 0.793552 
-0.0424167 0.686106 0.731941 
-0.0305855 0.922252 0.385323 
0.0116796 0.996933 -0.0807622 
0.0180588 0.908494 -0.409079 
0.0421906 0.705068 -0.712624 
0.0396372 0.617681 -0.785576 
0.0329389 0.518101 -0.854968 
0.0122953 0.417619 -0.909431 
-0.000520407 0.351836 -0.936956 
-0.0116975 0.291008 -0.958963 
-0.0380861 0.202603 -0.98083 
-0.0651733 0.138691 -0.990879 
-0.0884786 0.0929497 -0.994815 
-0.105005 0.0661334 -0.995471 
-0.116185 0.0492073 -0.995108 
-0.123121 0.0373346 -0.994764 
-0.12648 0.0275804 -0.994522 
-0.128111 0.0179195 -0.994375 
-0.13077 0.00997366 -0.994206 
-0.13277 0.00350379 -0.993978 
-0.134962 -0.00175378 -0.993592 
-0.136846 -0.00402819 -0.993398 
-0.138149 -0.00771016 -0.993182 
-0.136614 -0.00890253 -0.993402 
-0.138534 -0.0109344 -0.993134 
-0.137629 -0.0119521 -0.993273 
-0.139116 -0.0147219 -0.992966 
-0.138205 -0.0175515 -0.993094 
-0.140608 -0.0167787 -0.992747 
-0.139496 -0.0191674 -0.992889 
-0.139655 -0.0203505 -0.992904 
-0.142421 -0.0222275 -0.992455 
-0.143064 -0.0234674 -0.992338 
-0.143311 -0.0235645 -0.99239 
-0.142446 -0.0229015 -0.992486 
-0.139742 -0.0220546 -0.992963 
-0.131736 -0.0251873 -0.994157 
-0.122999 -0.0324194 -0.995269 
-0.114157 -0.0460305 -0.995552 
-0.101534 -0.0695288 -0.995546 
-0.0934856 -0.0894054 -0.994624 
-0.081527 -0.125188 -0.990387 
0.0540291 -0.135498 0.992215 
0.0690119 -0.106596 0.997453 
0.0729331 -0.0822889 1.00132 
0.0875926 -0.0612047 1.00116 
0.10008 -0.0422235 1.0014 
0.105901 -0.0297179 1.0006 
0.105099 -0.0258537 1.00095 
0.112522 -0.0235738 0.999914 
0.116407 -0.02278 0.99948 
0.104851 -0.0213367 1.00176 
0.114407 -0.0201404 0.99978 
0.110772 -0.0183666 1.00025 
0.108725 -0.0170581 1.00054 
0.110452 -0.0159052 1.00033 
0.108766 -0.0145404 1.00048 
0.108931 -0.0132317 1.00044 
0.108025 -0.0112507 1.0006 
0.107968 -0.00972693 1.00055 
0.109944 -0.00785127 1.00023 
0.107426 -0.00542297 1.00057 
0.106796 -0.00194349 1.00068 
0.106236 0.0032365 1.00073 
0.103723 0.00941535 1.001 
0.103232 0.0167875 1.00092 
0.0997322 0.0254562 1.0013 
0.0979783 0.0364362 1.00123 
0.0938472 0.0503612 1.0011 
0.0875525 0.0676178 1.0009 
0.0778024 0.0925569 0.999673 
0.0648928 0.132189 0.995558 
0.0504567 0.187432 0.987451 
0.0394601 0.248092 0.9738 
0.0259287 0.326365 0.949498 
0.0222743 0.419581 0.910684 
0.0147201 0.522942 0.853694 
0.04849 0.587104 0.808575 
0.0111079 0.649189 0.760466 
-0.0113988 0.751373 0.654919 
-0.00234553 0.917758 0.386481 
-0.0204553 0.993936 0.0248415 
-0.0104301 0.934718 -0.348334 
0.00331762 0.768308 -0.635436 
-0.0240472 0.673341 -0.73675 
-0.0199814 0.574969 -0.819456 
-0.0173376 0.478632 -0.879529 
-0.0351149 0.397342 -0.921706 
-0.028509 0.295435 -0.959639 
-0.0424567 0.214795 -0.981714 
-0.060534 0.147925 -0.993751 
-0.0723229 0.106751 -0.998395 
-0.0833269 0.0766818 -1.00062 
-0.0915317 0.0565651 -1.00113 
-0.0980053 0.0409102 -1.00087 
-0.0999553 0.0290105 -1.00118 
-0.100357 0.0197646 -1.00133 
-0.10422 0.0113971 -1.00084 
-0.104281 0.00525628 -1.00104 
-0.106104 0.000150654 -1.00074 
-0.109627 -0.00376691 -1.00025 
-0.107263 -0.00680679 -1.00063 
-0.108061 -0.00896675 -1.00052 
-0.106449 -0.0108147 -1.00074 
-0.109213 -0.0124732 -1.00036 
-0.107639 -0.0143656 -1.00053 
-0.1097 -0.0158495 -1.0002 
-0.109935 -0.0166463 -1.00032 
-0.110313 -0.0180924 -1.00023 
-0.113213 -0.0192939 -0.999815 
-0.110454 -0.020888 -1.00023 
-0.113578 -0.0225423 -0.999849 
-0.112351 -0.0236124 -1.00011 
-0.106909 -0.0256988 -1.00069 
-0.110675 -0.0277469 -1.00002 
-0.100726 -0.0347215 -1.00106 
-0.0932049 -0.0452308 -1.00136 
-0.0880876 -0.0623954 -1.00089 
-0.0713707 -0.0852158 -1.00093 
-0.0703829 -0.108473 -0.99697 
-0.0530604 -0.137641 -0.991798 
0.0390719 -0.145266 0.991433 
0.0523844 -0.105125 1.00047 
0.0558934 -0.0807671 1.00374 
0.0739521 -0.0588645 1.0023 
0.0647559 -0.0532617 1.00381 
0.0860739 -0.0413461 1.00169 
0.0829844 -0.033471 1.00341 
0.0788389 -0.0293067 1.0039 
0.0897757 -0.0247109 1.00284 
0.0878729 -0.0230772 1.00306 
0.0847404 -0.0198315 1.00329 
0.0868361 -0.0176983 1.00308 
0.0838113 -0.0160139 1.0033 
0.0845647 -0.0153153 1.00314 
0.083969 -0.0142087 1.00328 
0.0835601 -0.0129577 1.0033 
0.0830739 -0.0117311 1.00337 
0.0833927 -0.0100335 1.00327 
0.084683 -0.00827566 1.0032 
0.0841619 -0.00637693 1.00325 
0.0821889 -0.00307673 1.00325 
0.082166 0.0019246 1.00326 
0.0817401 0.00770971 1.00334 
0.0805315 0.0146816 1.00338 
0.0794803 0.022496 1.00334 
0.0767501 0.0332795 1.0035 
0.0750345 0.0460468 1.00316 
0.0723685 0.0619674 1.00257 
0.0679317 0.0831196 1.00168 
0.0624258 0.115281 0.998465 
0.0567232 0.15836 0.992797 
0.053871 0.214096 0.982026 
0.0507666 0.282445 0.963412 
0.0492915 0.357938 0.937341 
0.0529034 0.464306 0.886248 
0.0831617 0.590872 0.80254 
0.0449312 0.713442 0.695575 
0.02011 0.813741 0.57465 
0.00456949 0.940698 0.31996 
-0.029143 0.99804 -0.0099066 
-0.0294783 0.925719 -0.357297 
-0.0317294 0.792326 -0.603465 
-0.0727981 0.669132 -0.737469 
-0.0696711 0.57384 -0.81642 
-0.0602831 0.483587 -0.875792 
-0.0645082 0.382074 -0.925908 
-0.0464789 0.308559 -0.954489 
-0.049517 0.234264 -0.977027 
-0.055012 0.171364 -0.99063 
-0.0605643 0.124782 -0.997365 
-0.0659096 0.0897535 -1.00087 
-0.0714362 0.0660287 -1.00273 
-0.0766975 0.0485607 -1.00299 
-0.0778235 0.0350579 -1.00329 
-0.0775471 0.0248461 -1.00372 
-0.0806406 0.0153629 -1.00346 
-0.0800422 0.00821876 -1.00343 
-0.0818496 0.0020895 -1.00344 
-0.0852061 -0.00239241 -1.00304 
-0.0821602 -0.00553239 -1.00332 
-0.0830548 -0.00774379 -1.00328 
-0.0806468 -0.00942709 -1.00341 
-0.0842079 -0.011448 -1.00314 
-0.0820051 -0.0128249 -1.00331 
-0.085248 -0.0141901 -1.00302 
-0.0846346 -0.0152097 -1.00317 
-0.0851614 -0.0162207 -1.00316 
-0.088051 -0.0176348 -1.00292 
-0.0852676 -0.0197556 -1.00317 
-0.0866721 -0.0215255 -1.00302 
-0.0864783 -0.0239936 -1.00311 
-0.0812281 -0.0277215 -1.00349 
-0.0838172 -0.0305497 -1.00334 
-0.0819483 -0.0367074 -1.00335 
-0.0735447 -0.0483024 -1.00414 
-0.0698697 -0.0641258 -1.00219 
-0.0558975 -0.0862679 -1.00308 
-0.0498605 -0.112885 -0.999309 
-0.0360705 -0.148529 -0.991259 
0.0268452 -0.15642 0.990277 
0.0378984 -0.121589 0.999027 
0.0381571 -0.0996502 1.00189 
0.0488435 -0.0734324 1.00435 
0.049516 -0.0565761 1.00447 
0.0652061 -0.0425523 1.00442 
0.0614963 -0.0358656 1.00568 
0.065511 -0.0285927 1.00458 
0.0663577 -0.0251665 1.00445 
0.0698446 -0.0213994 1.00432 
0.0637708 -0.0182017 1.00471 
0.0638336 -0.0156578 1.00476 
0.0642117 -0.0150289 1.00462 
0.0635239 -0.0146637 1.00458 
0.0638609 -0.0133198 1.00458 
0.0635761 -0.012044 1.00454 
0.0630365 -0.0106486 1.00457 
0.0641662 -0.0092364 1.00451 
0.0650242 -0.00777277 1.00448 
0.0637952 -0.0056 1.00449 
0.0632346 -0.00153065 1.00449 
0.0629007 0.00413113 1.00455 
0.0630396 0.010766 1.00456 
0.0624599 0.0179238 1.00448 
0.0618455 0.0269544 1.00446 
0.0596977 0.0385285 1.00445 
0.0588563 0.0522505 1.00391 
0.0574718 0.0699532 1.00306 
0.0566773 0.0962759 1.00087 
0.0563305 0.130056 0.996805 
0.0582965 0.172916 0.990152 
0.0629428 0.23098 0.977121 
0.0695004 0.297222 0.956345 
0.0796634 0.379308 0.926215 
0.0843944 0.47491 0.878225 
0.121871 0.50829 0.853451 
0.101023 0.66703 0.733993 
0.0539131 0.824315 0.556347 
0.0286518 0.948597 0.285069 
0.0143542 0.99329 -0.11574 
-0.0617642 0.863327 -0.491493 
-0.0867537 0.755632 -0.650221 
-0.119698 0.619835 -0.77334 
-0.111672 0.519674 -0.848565 
-0.0942232 0.442025 -0.894777 
-0.0881174 0.348094 -0.937367 
-0.0653647 0.29361 -0.958851 
-0.0586418 0.221204 -0.980413 
-0.0570854 0.165349 -0.991467 
-0.055963 0.119603 -0.998433 
-0.0568335 0.0851057 -1.00184 
-0.0586549 0.062516 -1.00366 
-0.061246 0.0465954 -1.00397 
-0.0603546 0.033875 -1.00435 
-0.0613373 0.0226344 -1.00471 
-0.0615396 0.0143028 -1.00461 
-0.062692 0.00708477 -1.00459 
-0.064043 0.000960342 -1.00463 
-0.0643622 -0.00351864 -1.00448 
-0.0624205 -0.0068609 -1.00462 
-0.0618427 -0.00863184 -1.00463 
-0.0622624 -0.00987938 -1.00452 
-0.062257 -0.0110722 -1.0046 
-0.06365 -0.0122824 -1.00449 
-0.0641241 -0.0134584 -1.00451 
-0.0651054 -0.0148182 -1.00457 
-0.0658928 -0.0154815 -1.00453 
-0.0659201 -0.0168164 -1.00459 
-0.0669305 -0.0199802 -1.00446 
-0.0653967 -0.022761 -1.00457 
-0.0647655 -0.026137 -1.00461 
-0.0621658 -0.032029 -1.00481 
-0.0623606 -0.0370054 -1.00479 
-0.0620533 -0.0450871 -1.00382 
-0.0515121 -0.0564988 -1.00419 
-0.0541177 -0.0661584 -1.0035 
-0.0423146 -0.0875763 -1.00286 
-0.0374121 -0.11555 -0.999971 
-0.0268376 -0.157374 -0.990179 
0.0180128 -0.16482 0.98952 
0.0253148 -0.133642 0.997498 
0.0338711 -0.0849268 1.00248 
0.0369367 -0.0673754 1.00426 
0.0353309 -0.0531415 1.00633 
0.049736 -0.0450483 1.00455 
0.042132 -0.0397295 1.00605 
0.0508351 -0.0330247 1.00555 
0.0460759 -0.0280508 1.00563 
0.0512979 -0.0230609 1.0053 
0.0504073 -0.0200289 1.00548 
0.0432567 -0.0169063 1.00596 
0.0466024 -0.0149405 1.00576 
0.0454467 -0.0149426 1.0057 
0.0460745 -0.0142616 1.00568 
0.04534 -0.0127661 1.0057 
0.0454103 -0.0114589 1.00567 
0.0465965 -0.0102135 1.00557 
0.0463836 -0.00930489 1.00558 
0.046342 -0.00834608 1.00559 
0.0466907 -0.00552733 1.00561 
0.0458866 -0.000408177 1.00566 
0.0472108 0.00625819 1.0055 
0.0472906 0.0129419 1.00548 
0.0477826 0.0206969 1.00536 
0.0473212 0.0308645 1.00526 
0.0464933 0.0434626 1.00493 
0.0467709 0.0580422 1.00427 
0.0487222 0.0797251 1.00285 
0.0521457 0.105981 1.00009 
0.0575391 0.138619 0.995713 
0.064955 0.182542 0.987816 
0.0790161 0.235313 0.975556 
0.0942533 0.313893 0.949605 
0.112359 0.397671 0.914466 
0.152178 0.447068 0.883039 
0.143939 0.595865 0.78863 
0.113608 0.751376 0.656013 
0.0709725 0.878741 0.459893 
-0.020647 0.992527 0.0387217 
-0.0558269 0.935861 -0.321353 
-0.120227 0.763456 -0.63035 
-0.159039 0.577894 -0.798575 
-0.142131 0.469475 -0.873525 
-0.11877 0.375615 -0.923129 
-0.0982298 0.287837 -0.957847 
-0.0775544 0.265545 -0.966545 
-0.0692733 0.213027 -0.980449 
-0.0603486 0.170832 -0.990431 
-0.0549602 0.128746 -0.997492 
-0.0500756 0.0928257 -1.00161 
-0.0480606 0.067294 -1.00377 
-0.0477367 0.0487486 -1.00488 
-0.0468361 0.0361823 -1.00524 
-0.0471528 0.0256269 -1.00542 
-0.045508 0.0162631 -1.00563 
-0.0464929 0.00922846 -1.00559 
-0.0479011 0.00261459 -1.00563 
-0.0469474 -0.00357696 -1.00556 
-0.046871 -0.00756163 -1.00546 
-0.0438371 -0.00948608 -1.00568 
-0.0450089 -0.0100351 -1.00557 
-0.0434294 -0.011023 -1.00569 
-0.0453015 -0.0121903 -1.00566 
-0.0453958 -0.0133302 -1.00561 
-0.0462118 -0.0142661 -1.00566 
-0.0473597 -0.014655 -1.00568 
-0.046102 -0.0157607 -1.00576 
-0.0491412 -0.018361 -1.00559 
-0.0470687 -0.0220444 -1.00572 
-0.0455471 -0.0258258 -1.00573 
-0.0478065 -0.03104 -1.00559 
-0.0444666 -0.0378337 -1.00665 
-0.045429 -0.0459609 -1.00555 
-0.0380677 -0.0584834 -1.00502 
-0.0369894 -0.0741872 -1.00375 
-0.0292342 -0.100241 -1.00194 
-0.0272434 -0.126056 -0.998878 
-0.0191444 -0.16316 -0.989854 
0.0142078 -0.168733 0.988884 
0.0172647 -0.136284 0.997458 
0.0260742 -0.110919 1.00076 
0.0252795 -0.0864073 1.00352 
0.0264303 -0.0672253 1.00413 
0.0286778 -0.0468692 1.0062 
0.03119 -0.036665 1.00637 
0.0330079 -0.0307255 1.00624 
0.0338393 -0.0243731 1.00606 
0.0336267 -0.0208295 1.0063 
0.0304538 -0.0174571 1.00643 
0.0294626 -0.0146303 1.00644 
0.0302756 -0.0144673 1.00631 
0.0305126 -0.0142973 1.00622 
0.02908 -0.012905 1.0063 
0.0294275 -0.0119358 1.00625 
0.0305384 -0.0109807 1.00626 
0.0305749 -0.0102863 1.00615 
0.0299904 -0.00996148 1.00614 
0.0312154 -0.00851303 1.00619 
0.0314678 -0.00474894 1.00624 
0.0323502 0.00114142 1.00612 
0.0338593 0.00764323 1.00607 
0.034467 0.0151458 1.00609 
0.0349514 0.0239216 1.0059 
0.0355435 0.0344457 1.00577 
0.0357695 0.0465872 1.00543 
0.0386918 0.0627485 1.00438 
0.043106 0.0826486 1.00285 
0.0496813 0.106401 1.0005 
0.0582099 0.13869 0.995933 
0.07089 0.180507 0.987753 
0.0955021 0.244342 0.971136 
0.118172 0.27524 0.959022 
0.131225 0.33953 0.935543 
0.164818 0.356648 0.923125 
0.187746 0.522212 0.831607 
0.154606 0.745413 0.641945 
0.0505251 0.944399 0.292781 
0.00586018 1.0043 0.0298235 
-0.0473014 0.945898 -0.265725 
-0.150137 0.759819 -0.630705 
-0.192842 0.510592 -0.837197 
-0.162845 0.396577 -0.906782 
-0.132196 0.320723 -0.942309 
-0.111216 0.257399 -0.965979 
-0.086138 0.226034 -0.976659 
-0.0697774 0.18094 -0.988641 
-0.0574282 0.145443 -0.99499 
-0.0495559 0.110662 -0.999312 
-0.0425641 0.0815623 -1.00356 
-0.0383745 0.058693 -1.0048 
-0.0351227 0.0444904 -1.00554 
-0.0353617 0.0322713 -1.00572 
-0.0348114 0.0218225 -1.00609 
-0.0323879 0.0130141 -1.00623 
-0.0334188 0.0060842 -1.00615 
-0.0333744 -0.000290805 -1.00617 
-0.0317089 -0.00596655 -1.0061 
-0.0313927 -0.00946524 -1.00611 
-0.0288678 -0.010688 -1.00617 
-0.0294023 -0.0107996 -1.00614 
-0.028016 -0.0114823 -1.00627 
-0.0298651 -0.0124627 -1.0062 
-0.0293718 -0.0134513 -1.00626 
-0.030712 -0.0141612 -1.00635 
-0.0304985 -0.0147331 -1.00642 
-0.0303619 -0.0154065 -1.00644 
-0.033048 -0.0181622 -1.0063 
-0.0310708 -0.0221035 -1.00634 
-0.0311421 -0.0261236 -1.00621 
-0.0329239 -0.0323995 -1.00559 
-0.0300287 -0.0397147 -1.00638 
-0.0306596 -0.0476409 -1.00625 
-0.0270244 -0.061148 -1.00543 
-0.0268103 -0.0778923 -1.0041 
-0.0223834 -0.10226 -1.00205 
-0.020159 -0.131372 -0.998148 
-0.0155834 -0.167937 -0.988994 
0.0123899 -0.173267 0.987723 
0.0148535 -0.13295 0.997974 
0.0195024 -0.107965 1.00145 
0.0200739 -0.0816435 1.00455 
0.0225263 -0.0589956 1.00561 
0.0205405 -0.0487169 1.00623 
0.0229431 -0.040022 1.00557 
0.0217079 -0.0311966 1.00688 
0.0242221 -0.025909 1.00549 
0.0209972 -0.0203819 1.00634 
0.0190676 -0.0167291 1.00645 
0.0195219 -0.0143737 1.00649 
0.0170717 -0.0136373 1.00643 
0.0173364 -0.0139274 1.00638 
0.0165461 -0.013356 1.0063 
0.0161187 -0.0124174 1.0062 
0.0168631 -0.011379 1.00625 
0.016413 -0.0111189 1.0062 
0.0164723 -0.0113069 1.00612 
0.0172265 -0.0105442 1.00617 
0.0185013 -0.00762685 1.00619 
0.0200459 -0.00211978 1.00621 
0.0209762 0.004578 1.00614 
0.0228328 0.0111367 1.00628 
0.0239494 0.0192568 1.00604 
0.0254096 0.0291096 1.00582 
0.0270831 0.0401095 1.00567 
0.0307786 0.0541897 1.00512 
0.0356465 0.0705901 1.00387 
0.0426858 0.0919935 1.00216 
0.0518524 0.120108 0.999102 
0.0649458 0.152708 0.993224 
0.0881633 0.2055 0.981314 
0.111645 0.225088 0.974984 
0.143433 0.278306 0.955032 
0.189071 0.333273 0.928134 
0.216513 0.438375 0.87868 
0.233481 0.540565 0.806115 
0.183967 0.772844 0.610263 
0.0369614 1.00074 -0.045097 
-0.186275 0.768375 -0.618322 
-0.235567 0.512282 -0.824288 
-0.221778 0.429423 -0.8828 
-0.19314 0.352526 -0.919957 
-0.156336 0.310421 -0.942527 
-0.120242 0.244105 -0.968323 
-0.0878353 0.200183 -0.982426 
-0.0660232 0.158338 -0.99195 
-0.0522167 0.123824 -0.998459 
-0.0445837 0.0988735 -1.00149 
-0.0371916 0.0776931 -1.00338 
-0.0329513 0.0622939 -1.00384 
-0.0271628 0.0451891 -1.00563 
-0.0261245 0.0336332 -1.00592 
-0.0245689 0.023481 -1.00614 
-0.022615 0.0144784 -1.00632 
-0.0218869 0.00640603 -1.00631 
-0.0209939 -7.71018e-05 -1.00629 
-0.0193317 -0.00579902 -1.00627 
-0.0178635 -0.00994485 -1.00625 
-0.0170735 -0.0116368 -1.0062 
-0.0160447 -0.0114877 -1.00613 
-0.0152072 -0.0112338 -1.00619 
-0.0158905 -0.0119126 -1.00631 
-0.0157704 -0.013017 -1.00635 
-0.0174375 -0.0138547 -1.00638 
-0.0173912 -0.0141835 -1.00639 
-0.0177938 -0.0140126 -1.00645 
-0.019906 -0.0160655 -1.00645 
-0.020029 -0.0191688 -1.00632 
-0.0210647 -0.0235241 -1.00687 
-0.0220084 -0.030419 -1.00619 
-0.0227428 -0.0397744 -1.00636 
-0.022851 -0.0501714 -1.00611 
-0.0210645 -0.0649256 -1.00513 
-0.0207564 -0.0810648 -1.00388 
-0.0180792 -0.103861 -1.00187 
-0.0165409 -0.130751 -0.998305 
-0.0136037 -0.171078 -0.988147 
0.0111147 -0.1743 0.987362 
0.0128921 -0.136984 0.997067 
0.0164627 -0.102734 1.00201 
0.0153577 -0.0844681 1.00336 
0.0185144 -0.0677268 1.00494 
0.0182412 -0.0508237 1.00585 
0.0183543 -0.0381505 1.0061 
0.0159283 -0.0282691 1.00594 
0.0159256 -0.0226913 1.00617 
0.0125264 -0.0179409 1.00623 
0.0115638 -0.0137308 1.00629 
0.0103773 -0.0124635 1.00624 
0.00766943 -0.0129078 1.00618 
0.00739903 -0.0135884 1.00674 
0.00710913 -0.0130454 1.00549 
0.0060104 -0.0123314 1.00661 
0.00627721 -0.0119316 1.00547 
0.00607926 -0.0119465 1.00664 
0.00677361 -0.0125494 1.00547 
0.00746589 -0.011675 1.006 
0.0094989 -0.00801171 1.00611 
0.0111729 -0.0023303 1.00609 
0.0126303 0.0042873 1.00614 
0.0144932 0.0114499 1.00612 
0.0163731 0.0193078 1.00601 
0.0184627 0.0277955 1.00588 
0.0220408 0.0389702 1.00559 
0.0265957 0.0527313 1.00507 
0.0323914 0.0688898 1.00402 
0.0403271 0.0891525 1.00247 
0.0504325 0.113489 0.999602 
0.0697285 0.154115 0.992628 
0.0867444 0.180672 0.98686 
0.110513 0.210615 0.978211 
0.143994 0.254442 0.962282 
0.178111 0.294229 0.943399 
0.238314 0.375625 0.899855 
0.278342 0.586404 0.765244 
0.217417 0.801734 0.565223 
-0.00212321 1.00179 0.0341559 
-0.215061 0.793525 -0.576675 
-0.273204 0.559751 -0.787203 
-0.239462 0.393525 -0.89027 
-0.182375 0.301357 -0.940402 
-0.138038 0.248545 -0.964555 
-0.101011 0.195357 -0.982678 
-0.0844342 0.180347 -0.987023 
-0.0659104 0.14748 -0.994064 
-0.0525683 0.12149 -0.998646 
-0.0420075 0.0955327 -1.00202 
-0.0331487 0.0712752 -1.00411 
-0.0266722 0.0526994 -1.00505 
-0.020632 0.0372851 -1.00586 
-0.0184196 0.0292794 -1.00607 
-0.0160238 0.0195905 -1.00604 
-0.0146143 0.0101993 -1.00614 
-0.0128989 0.00279379 -1.00614 
-0.0112309 -0.00343036 -1.00611 
-0.0095334 -0.00884932 -1.00607 
-0.00795934 -0.0121446 -1.00651 
-0.00715258 -0.0127582 -1.00533 
-0.00555969 -0.0121082 -1.0065 
-0.00657861 -0.0116611 -1.00606 
-0.00563801 -0.0123365 -1.00616 
-0.00655901 -0.0130114 -1.00623 
-0.00722021 -0.0133809 -1.00619 
-0.0082606 -0.013441 -1.00562 
-0.0100671 -0.0128054 -1.00636 
-0.0112774 -0.0137813 -1.00695 
-0.0131917 -0.0184469 -1.00565 
-0.0147726 -0.0238415 -1.00596 
-0.0169396 -0.0302639 -1.00606 
-0.0174306 -0.0388815 -1.00601 
-0.0192382 -0.0486294 -1.00606 
-0.0175445 -0.0635256 -1.00507 
-0.0168803 -0.0837378 -1.00351 
-0.0150261 -0.108267 -1.00104 
-0.0134543 -0.138924 -0.996854 
-0.0118616 -0.173932 -0.987588 
0.00962652 -0.174461 0.98748 
0.0102874 -0.143174 0.995954 
0.013307 -0.109582 1.00097 
0.0125116 -0.0829455 1.00328 
0.0160143 -0.0643205 1.00484 
0.0137891 -0.0519041 1.00547 
0.0154058 -0.041242 1.00578 
0.0139462 -0.0304956 1.00575 
0.0125923 -0.0218528 1.00592 
0.0100351 -0.015211 1.00671 
0.00788114 -0.0114363 1.00614 
0.00656302 -0.011083 1.00612 
0.00451135 -0.0120066 1.00591 
0.00311577 -0.0127244 1.00532 
0.00229614 -0.0129501 1.0059 
0.00131469 -0.0125527 1.00591 
0.00127485 -0.0125139 1.00592 
0.00131265 -0.0134599 1.00584 
0.00217434 -0.0141704 1.00643 
0.00301312 -0.013187 1.00592 
0.00462775 -0.00962037 1.00604 
0.00660041 -0.00394553 1.00614 
0.0083742 0.00195524 1.00608 
0.0106044 0.00932948 1.00617 
0.0121193 0.0172332 1.00617 
0.0145508 0.0261018 1.00609 
0.0178405 0.035135 1.00581 
0.0224278 0.0467583 1.00552 