# vtk DataFile Version 3.0 
Exported using Morpho https://github.com/Morpho-lang/morpho 
ASCII 
DATASET UNSTRUCTURED_GRID 

POINTS 1978 float 
-8.48528 -2.82843 1.04953e-08 
-8.28169 -2.82843 -1.78649e-10 
-8.0403 -2.82843 -5.55548e-10 
-7.79227 -2.82843 -4.58162e-10 
-7.48649 -2.82843 -2.82556e-10 
-7.24264 -2.82843 -2.06779e-10 
-6.98709 -2.82843 -8.79126e-11 
-6.76841 -2.82843 -3.82831e-11 
-6.55875 -2.82843 -8.44374e-11 
-6.36027 -2.82843 3.57441e-11 
-6.13908 -2.82843 -8.50326e-11 
-5.93623 -2.82843 -5.25288e-11 
-5.72885 -2.82843 4.2511e-11 
-5.52538 -2.82843 4.54386e-11 
-5.30351 -2.82843 -9.02701e-11 
-5.09903 -2.82843 1.36619e-10 
-4.88079 -2.82843 4.36851e-12 
-4.67505 -2.82843 5.73772e-11 
-4.46118 -2.82843 8.69927e-11 
-4.25153 -2.82843 8.1754e-11 
-4.04299 -2.82843 1.70904e-10 
-3.83351 -2.82843 8.8227e-11 
-3.62412 -2.82843 2.5206e-10 
-3.40861 -2.82843 2.20833e-10 
-3.19241 -2.82843 3.46119e-10 
-2.97057 -2.82843 4.14239e-10 
-2.74706 -2.82843 3.91579e-10 
-2.52568 -2.82843 5.85446e-10 
-2.30061 -2.82843 8.37082e-10 
-2.02366 -2.82843 9.38911e-10 
-1.82119 -2.82843 6.95898e-10 
-1.63749 -2.82843 4.56553e-10 
-1.44349 -2.82843 6.33778e-11 
-1.26986 -2.82843 -1.39061e-09 
-1.12635 -2.82843 -2.95396e-10 
-0.988313 -2.82843 -4.17924e-09 
-0.858103 -2.82843 -7.48579e-09 
-0.733454 -2.82843 -2.90337e-08 
-0.282597 -2.82843 -7.43039e-08 
0.0481886 -2.82842 1.19726e-07 
0.41394 -2.82843 3.56984e-08 
0.618324 -2.82843 2.48486e-08 
0.780796 -2.82843 1.10418e-08 
0.961488 -2.82843 5.1139e-09 
1.11127 -2.82843 9.31227e-10 
1.25447 -2.82843 1.20941e-09 
1.44404 -2.82843 -4.6623e-10 
1.63034 -2.82843 -6.63283e-10 
1.84503 -2.82843 -8.67107e-10 
2.06839 -2.82843 -8.72006e-10 
2.29735 -2.82843 -5.64127e-10 
2.52003 -2.82843 -5.99995e-10 
2.75788 -2.82843 -4.82223e-10 
2.97606 -2.82843 -3.99657e-10 
3.1953 -2.82843 -3.24224e-10 
3.41598 -2.82843 -1.53545e-10 
3.62974 -2.82843 -2.88359e-10 
3.83856 -2.82843 -1.62542e-10 
4.04726 -2.82843 -1.02818e-10 
4.26356 -2.82843 -1.80426e-10 
4.46987 -2.82843 -2.49398e-11 
4.67749 -2.82843 -8.22009e-11 
4.88237 -2.82843 -1.75663e-11 
5.08794 -2.82843 3.13855e-12 
5.29439 -2.82843 -1.29128e-10 
5.50983 -2.82843 1.62521e-10 
5.72157 -2.82843 -1.45519e-10 
5.94072 -2.82843 7.68148e-11 
6.16352 -2.82843 2.1335e-11 
6.37815 -2.82843 -3.44336e-11 
6.60294 -2.82843 1.48406e-10 
6.82463 -2.82843 -3.5454e-11 
7.03635 -2.82843 2.02156e-10 
7.29345 -2.82843 1.51399e-10 
7.52547 -2.82843 1.52915e-10 
7.75416 -2.82843 3.10911e-10 
8.02402 -2.82843 1.26633e-09 
8.2388 -2.82843 -7.96778e-10 
8.48528 -2.82843 -5.4291e-08 
-8.48528 -3.79401 -1.37546e-08 
-8.2533 -2.57136 1.74791e-15 
-8.01402 -2.59407 -2.80739e-15 
-7.72921 -2.63788 3.44164e-14 
-7.4483 -2.62068 -2.27226e-14 
-7.19552 -2.61982 -3.82754e-14 
-6.95793 -2.5913 2.7034e-15 
-6.73036 -2.59816 2.44439e-15 
-6.51486 -2.57736 1.54252e-15 
-6.29423 -2.60236 -3.11054e-15 
-6.07586 -2.58157 -2.22908e-15 
-5.8613 -2.58626 -1.10339e-15 
-5.6472 -2.58273 4.79903e-17 
-5.42599 -2.60339 -1.2538e-15 
-5.20691 -2.58637 1.97021e-15 
-4.98876 -2.60295 3.11599e-15 
-4.77068 -2.59132 -3.60948e-14 
-4.55508 -2.60041 -1.75046e-15 
-4.3381 -2.59554 -2.27251e-15 
-4.12398 -2.5935 -2.92342e-15 
-3.91064 -2.59289 3.0162e-14 
-3.69684 -2.59118 2.62038e-15 
-3.4808 -2.59508 3.15467e-15 
-3.26063 -2.59377 -3.19379e-14 
-3.03703 -2.59669 -1.73519e-14 
-2.80842 -2.59511 2.15755e-14 
-2.5798 -2.59151 2.46092e-14 
-2.35136 -2.59539 3.28443e-14 
-2.1119 -2.64182 1.5283e-14 
-1.85967 -2.57528 3.07526e-14 
-1.66214 -2.57229 1.81122e-14 
-1.47986 -2.60957 2.66089e-14 
-1.29074 -2.61114 -9.3083e-14 
-1.12249 -2.59801 3.14486e-14 
-1.03066 -2.42989 -3.34156e-14 
-0.884201 -2.37089 1.33721e-13 
-0.960819 -2.62449 6.5806e-14 
-0.611065 -2.77583 -6.95094e-13 
-0.311347 -2.69207 1.72802e-12 
-0.119531 -2.76632 -1.38746e-12 
0.250294 -2.75621 -2.49442e-13 
0.729444 -2.65892 -1.86774e-13 
0.816985 -2.48186 2.25781e-14 
0.895638 -2.65473 7.76387e-14 
1.06291 -2.60964 -1.17831e-13 
1.21812 -2.57518 1.75087e-14 
1.38586 -2.62427 -1.82496e-14 
1.576 -2.58247 3.29611e-14 
1.77926 -2.61204 -2.52603e-14 
2.00898 -2.61343 -2.95386e-14 
2.24684 -2.61268 -2.65185e-14 
2.48715 -2.59603 -2.56856e-14 
2.71959 -2.60737 -2.65819e-14 
2.95586 -2.58989 1.72789e-14 
3.17941 -2.59173 3.45457e-14 
3.40326 -2.59569 2.87024e-14 
3.6266 -2.5865 -2.73223e-15 
3.84128 -2.59003 -2.89683e-14 
4.06295 -2.60031 -2.63241e-14 
4.2771 -2.59169 2.50737e-15 
4.48981 -2.5938 1.91528e-15 
4.70085 -2.59104 1.41133e-15 
4.91131 -2.59062 2.87615e-14 
5.12338 -2.5907 -2.30916e-15 
5.34089 -2.59787 -1.29073e-15 
5.55817 -2.59212 5.34725e-16 
5.78002 -2.5977 -9.89729e-16 
6.00613 -2.59894 1.87757e-15 
6.22776 -2.58771 3.04128e-15 
6.45258 -2.59568 -1.45931e-15 
6.67883 -2.58936 -2.03038e-15 
6.89538 -2.57636 -2.75505e-15 
7.13403 -2.61758 3.25306e-14 
7.38004 -2.59561 2.75686e-15 
7.6085 -2.58899 2.91524e-15 
7.86209 -2.62561 -3.10306e-14 
8.07307 -2.5454 2.82722e-15 
8.30053 -2.61766 1.21026e-15 
8.48528 -3.58506 6.7789e-08 
-8.48528 -2.12307 9.57963e-09 
-8.24616 -2.33147 1.60731e-15 
-8.01155 -2.35449 -3.12084e-14 
-7.77389 -2.42951 -2.99033e-15 
-7.59421 -2.23811 2.70185e-14 
-7.49632 -2.4345 1.99918e-15 
-7.21124 -2.40149 -3.09811e-14 
-6.99148 -2.3533 -3.81218e-14 
-6.76036 -2.36833 1.88395e-15 
-6.52273 -2.35574 2.38333e-15 
-6.28551 -2.36784 3.49294e-14 
-6.06493 -2.3419 -2.85479e-15 
-5.84498 -2.34809 -1.4616e-15 
-5.61718 -2.35558 -4.21395e-17 
-5.39756 -2.37038 1.42496e-15 
-5.16974 -2.35994 2.55668e-15 
-4.95143 -2.37314 -3.21477e-14 
-4.72817 -2.36453 -1.65886e-15 
-4.51107 -2.37182 -2.16736e-15 
-4.29334 -2.36475 -2.87186e-15 
-4.07756 -2.36105 2.89624e-14 
-3.86215 -2.35911 3.62742e-14 
-3.64409 -2.35902 3.01279e-15 
-3.42471 -2.36288 -2.96327e-14 
-3.19983 -2.36362 -1.69171e-14 
-2.9711 -2.36743 2.10336e-14 
-2.73996 -2.36253 2.47205e-14 
-2.50656 -2.36016 2.84497e-14 
-2.25783 -2.39066 3.00963e-14 
-2.03 -2.41613 2.8758e-14 
-1.79569 -2.32457 -1.72481e-14 
-1.59434 -2.3354 -3.03705e-14 
-1.40833 -2.39257 -3.98889e-14 
-1.22312 -2.39234 -4.15779e-14 
-1.10872 -2.23549 -1.11317e-13 
-0.781207 -2.17379 2.11272e-14 
-0.82785 -2.59695 2.52136e-13 
-0.464611 -2.73119 -1.32265e-13 
-0.374082 -2.57123 -6.70547e-13 
0.028195 -2.70255 7.27823e-13 
0.414877 -2.65654 -4.97959e-13 
0.535959 -2.7247 -1.35228e-13 
0.724174 -2.36394 -1.42225e-13 
0.91118 -2.26835 3.36943e-13 
0.984839 -2.43991 1.81751e-14 
1.1575 -2.36662 3.12156e-15 
1.3626 -2.40441 5.0562e-14 
1.56361 -2.36366 -1.87795e-14 
1.78188 -2.38622 3.53797e-14 
2.00282 -2.39705 -1.57882e-14 
2.23539 -2.39917 -2.20248e-14 
2.46198 -2.36596 -3.39385e-14 
2.69101 -2.37854 -2.2846e-14 
2.92019 -2.36512 -2.25592e-14 
3.15084 -2.35526 1.73191e-14 
3.3733 -2.36167 2.93642e-14 
3.59276 -2.35733 2.68666e-14 
3.81222 -2.35297 -3.68144e-14 
4.02838 -2.37099 -2.99766e-14 
4.24372 -2.35974 3.0226e-15 
4.45773 -2.36045 2.2931e-15 
4.66857 -2.35776 1.74153e-15 
4.88044 -2.35506 3.55984e-14 
5.09128 -2.35653 -3.01505e-15 
5.30599 -2.36558 -1.77761e-15 
5.52119 -2.3603 9.13395e-16 
5.741 -2.36644 -8.65788e-16 
5.96301 -2.37025 2.08636e-15 
6.18598 -2.3552 -2.76487e-14 
6.41173 -2.35978 -1.62384e-15 
6.634 -2.3561 -2.41017e-15 
6.85708 -2.32968 -3.08865e-15 
7.08031 -2.37975 3.18807e-14 
7.30867 -2.38175 2.94914e-15 
7.55036 -2.34752 -2.84094e-14 
7.78412 -2.39561 3.45429e-14 
7.99965 -2.31762 3.13983e-14 
8.24842 -2.35326 3.09166e-15 
8.48529 -2.05579 -2.58973e-07 
-8.48528 -1.30403 -7.62732e-09 
-8.28147 -2.06016 -2.40148e-15 
-8.07051 -2.10322 -2.69142e-14 
-7.8323 -2.17048 2.23412e-15 
-7.55419 -2.02858 2.00045e-15 
-7.32641 -2.22429 -3.18929e-15 
-7.08515 -2.12642 1.55691e-15 
-6.83901 -2.13746 2.73457e-15 
-6.6131 -2.13884 2.7966e-15 
-6.36835 -2.14204 -3.13178e-15 
-6.14954 -2.11576 1.20722e-15 
-5.92182 -2.10996 -1.09526e-15 
-5.7012 -2.12548 5.19746e-16 
-5.47808 -2.13083 -4.92319e-16 
-5.2644 -2.14037 -1.08109e-15 
-5.03889 -2.13671 1.30329e-15 
-4.82704 -2.14398 2.10021e-15 
-4.60705 -2.13871 2.90124e-15 
-4.39651 -2.13934 -3.02804e-14 
-4.18275 -2.13157 -3.59114e-14 
-3.97038 -2.12733 -1.54397e-15 
-3.75681 -2.12704 -2.06553e-15 
-3.54118 -2.12758 -2.54504e-15 
-3.32362 -2.13249 -3.2256e-15 
-3.09995 -2.13567 3.31277e-14 
-2.87542 -2.13485 3.70294e-14 
-2.64589 -2.13068 2.75546e-15 
-2.40101 -2.15413 -3.27537e-14 
-2.16923 -2.16485 -1.68545e-14 
-1.95583 -2.17051 -3.21717e-14 
-1.7094 -2.08674 8.0621e-16 
-1.50241 -2.12264 3.11706e-17 
-1.32054 -2.1793 1.72699e-14 
-1.19496 -2.03345 -7.07922e-14 
-0.956166 -2.16448 -5.82877e-14 
-0.796709 -1.96492 -1.43572e-13 
-0.737577 -2.38972 -3.66494e-13 
-0.699325 -2.60797 3.22937e-13 
-0.167621 -2.65198 1.32801e-12 
0.187331 -2.65749 -4.95496e-14 
0.526383 -2.47666 1.17587e-13 
0.621601 -2.55845 1.06602e-13 
0.743021 -2.18066 4.75923e-14 
0.904701 -2.05887 2.38363e-13 
1.08484 -2.19151 -6.99969e-14 
1.16933 -2.03102 3.11526e-14 
1.32142 -2.20883 2.76151e-14 
1.52631 -2.14859 2.03838e-14 
1.75061 -2.16989 2.75523e-14 
1.98099 -2.17481 -2.72648e-15 
2.21456 -2.1761 -2.37432e-14 
2.45633 -2.14694 3.13197e-14 
2.69889 -2.14796 -3.22264e-15 
2.93004 -2.13483 -3.82845e-14 
3.15951 -2.12306 -2.64159e-14 
3.38338 -2.12885 3.1856e-15 
3.6048 -2.12569 2.0169e-15 
3.82913 -2.12539 2.00334e-15 
4.04443 -2.13835 1.63966e-15 
4.26273 -2.13041 3.20297e-14 
4.47546 -2.12757 2.59947e-14 
4.68955 -2.12627 -2.35685e-15 
4.90259 -2.12149 -1.6662e-15 
5.11896 -2.1271 1.34141e-15 
5.33248 -2.13177 9.0142e-16 
5.55288 -2.13139 2.86041e-16 
5.77387 -2.13708 -8.2657e-16 
5.99377 -2.1368 1.25343e-15 
6.22142 -2.12597 1.5567e-15 
6.44181 -2.12253 2.78998e-15 
6.66143 -2.11556 -3.35861e-14 
6.89364 -2.09817 -3.1507e-14 
7.11549 -2.14531 -2.13005e-15 
7.34687 -2.15225 -3.13003e-15 
7.55547 -2.08672 -1.56522e-15 
7.76103 -2.15482 -1.83815e-15 
7.98261 -2.07983 2.15775e-15 
8.21391 -2.13017 -2.76132e-14 
8.48528 -1.77652 2.54305e-07 
-8.48528 -2.1889 2.2942e-11 
-8.27501 -1.79094 2.97423e-14 
-7.87861 -1.91669 3.49276e-14 
[...]
POINT_DATA 1978 
VECTORS vectors float
-0.00260141 0.000582844 0.999998 
-0.011562 -0.0373275 0.999236 
-0.00295964 -0.0429778 0.999072 
0.00166905 -0.0345071 0.999403 
0.00153254 -0.023348 0.999726 
-0.00162488 -0.0168915 0.999856 
-0.00478324 -0.0110246 0.999928 
-0.00745004 -0.00755786 0.999944 
-0.00797838 -0.00510426 0.999955 
-0.0078029 -0.00359319 0.999963 
-0.00772734 -0.00277813 0.999966 
-0.00829938 -0.00194347 0.999964 
-0.0082135 -0.000957739 0.999966 
-0.00764872 0.000151457 0.999971 
-0.00739657 0.00145434 0.999972 
-0.00746456 0.00279937 0.999968 
-0.00759447 0.00435543 0.999962 
-0.00758497 0.0060094 0.999953 
-0.00764088 0.00805435 0.999938 
-0.00767846 0.0104653 0.999916 
-0.0077264 0.0134559 0.99988 
-0.00750335 0.0172168 0.999824 
-0.00710426 0.022006 0.999733 
-0.0065462 0.0283044 0.999578 
-0.00593565 0.0364191 0.999319 
-0.00547015 0.0470501 0.998878 
-0.0052448 0.0605976 0.998149 
-0.00428148 0.0782084 0.996928 
-0.00207837 0.102038 0.994778 
-0.00224145 0.142269 0.989826 
-0.00401734 0.182087 0.983274 
-0.00390841 0.22684 0.973924 
-0.00180918 0.292691 0.956206 
-0.000503116 0.364165 0.931334 
-0.00077066 0.430114 0.902774 
-0.000447506 0.50301 0.86428 
0.000537593 0.573944 0.818894 
-4.23195e-05 0.643801 0.765193 
-0.00236185 0.928112 0.372295 
0.000398183 0.996528 -0.0832539 
-0.00113337 0.877308 -0.479926 
-0.00427808 0.720056 -0.693902 
-0.00192843 0.605646 -0.795732 
-0.00174904 0.504625 -0.863337 
-0.00141867 0.424457 -0.905447 
0.000698968 0.353602 -0.935396 
0.00270532 0.281763 -0.95948 
0.00348341 0.226271 -0.974058 
0.00370225 0.175234 -0.98452 
0.00363244 0.135036 -0.990834 
0.00400796 0.10112 -0.994866 
0.00408838 0.0781233 -0.996935 
0.00464807 0.0587251 -0.998263 
0.00569481 0.0458253 -0.998933 
0.0059348 0.0356406 -0.999347 
0.0065111 0.0278555 -0.999591 
0.00721871 0.0220576 -0.999731 
0.00744037 0.0173087 -0.999823 
0.00740948 0.0134912 -0.999882 
0.00757931 0.01037 -0.999918 
0.00793815 0.00793355 -0.999937 
0.00822584 0.00599398 -0.999948 
0.00830211 0.00436547 -0.999956 
0.00812185 0.00291276 -0.999963 
0.00772401 0.00161113 -0.999969 
0.00733919 0.000356152 -0.999973 
0.00687587 -0.000812013 -0.999976 
0.00654716 -0.00178026 -0.999977 
0.00649697 -0.00273939 -0.999975 
0.00633378 -0.00391114 -0.999972 
0.00637149 -0.00566402 -0.999964 
0.00602087 -0.00834156 -0.999947 
0.00409374 -0.0120263 -0.999919 
0.00322324 -0.0178152 -0.999836 
0.0035223 -0.0245613 -0.999692 
0.00217199 -0.0327447 -0.999461 
0.0030351 -0.0430334 -0.999069 
0.00995154 -0.0384874 -0.99921 
0.000414358 0.00234375 -0.999998 
0.00176264 0.00661641 0.99998 
0.0149312 -0.0295486 0.999452 
0.0184858 -0.0381379 0.999101 
0.0196441 -0.0341945 0.999222 
0.0187595 -0.0252725 0.999505 
0.0202955 -0.0168015 0.999653 
0.0222199 -0.0118011 0.999684 
0.0230038 -0.00795048 0.999704 
0.0247007 -0.00547542 0.99968 
0.0233415 -0.00375707 0.999721 
0.0249926 -0.00250464 0.999685 
0.0250691 -0.00140698 0.999685 
0.0254708 -0.00030978 0.999676 
0.0243625 0.000878589 0.999703 
0.0255955 0.00223306 0.99967 
0.0245263 0.00368425 0.999692 
0.0252952 0.00533502 0.999666 
0.0245901 0.00724681 0.999671 
0.0247833 0.00962709 0.999647 
0.0247267 0.0125194 0.999616 
0.0244896 0.0161204 0.99957 
0.0242033 0.0206844 0.999493 
0.0233144 0.026555 0.999375 
0.0228459 0.0341969 0.999154 
0.0219602 0.0440497 0.998788 
0.0212605 0.0569152 0.998153 
0.0208066 0.073498 0.997078 
0.0201875 0.0953245 0.995242 
0.017003 0.126347 0.99184 
0.0209173 0.169148 0.985369 
0.0229511 0.214042 0.976555 
0.0211107 0.274352 0.961398 
0.023407 0.358391 0.933278 
0.0270493 0.452346 0.891432 
0.0514052 0.474773 0.878606 
0.0764905 0.535247 0.841225 
0.0301266 0.545824 0.837358 
0.00758421 0.703374 0.710779 
0.0251929 0.868632 0.494817 
0.00702207 0.961148 0.275943 
-0.0100616 0.927773 -0.373009 
-0.0309324 0.656069 -0.754067 
-0.055863 0.614944 -0.786589 
-0.0214071 0.563511 -0.825831 
-0.0284698 0.457258 -0.888878 
-0.0280705 0.377798 -0.925462 
-0.0205739 0.303305 -0.952671 
-0.0207535 0.23818 -0.970999 
-0.0187614 0.185361 -0.982491 
-0.0187679 0.141289 -0.989791 
-0.0191434 0.106246 -0.994156 
-0.0202602 0.0805561 -0.996544 
-0.0204673 0.0614808 -0.997898 
-0.0220667 0.0469465 -0.998654 
-0.0225802 0.0367299 -0.99907 
-0.0230526 0.0287278 -0.999321 
-0.0237611 0.0224637 -0.999465 
-0.0241283 0.0175079 -0.999556 
-0.0240905 0.0135082 -0.999619 
-0.0249573 0.0104007 -0.999634 
-0.0250255 0.00790071 -0.999656 
-0.0253378 0.00591412 -0.999661 
-0.02536 0.00423522 -0.999669 
-0.0252986 0.00277908 -0.999676 
-0.0247196 0.00142086 -0.999693 
-0.02501 0.000186 -0.999687 
-0.0245105 -0.000962864 -0.999699 
-0.0243627 -0.00211645 -0.999701 
-0.0247341 -0.00337637 -0.999688 
-0.0238705 -0.00491322 -0.999703 
-0.0238383 -0.0071911 -0.99969 
-0.0239418 -0.0103019 -0.99966 
-0.0208027 -0.0146698 -0.999676 
-0.0216104 -0.0210531 -0.999545 
-0.0207481 -0.0282317 -0.999386 
-0.0183045 -0.0364287 -0.999169 
-0.0194784 -0.0361499 -0.999157 
-0.0128425 -0.0272346 -0.999547 
0.000664328 0.00239579 -1 
0.000666325 0.00704096 0.999977 
0.0184248 -0.0269054 0.999468 
0.0256177 -0.0378542 0.998955 
0.0275568 -0.0345595 0.999023 
0.0302135 -0.0284135 0.99914 
0.0263854 -0.0254382 0.999328 
0.0297659 -0.0173947 0.999406 
0.0328588 -0.0129632 0.999376 
0.0324874 -0.00928738 0.999429 
0.0343556 -0.00608416 0.999391 
0.0338735 -0.00397622 0.999418 
0.0352265 -0.00254145 0.999376 
0.0349936 -0.00121535 0.999387 
0.0352587 -6.95348e-06 0.999378 
0.0347976 0.00117314 0.999394 
0.0353063 0.00255459 0.999373 
0.0349682 0.00400194 0.99938 
0.0352681 0.00572865 0.999362 
0.0348874 0.00776711 0.999361 
0.0348499 0.0103061 0.999339 
0.0345847 0.0134763 0.999311 
0.0341445 0.01745 0.999265 
0.0335388 0.0225422 0.999183 
0.032794 0.0289959 0.999041 
0.0321783 0.0373804 0.998783 
0.0312647 0.048212 0.998348 
0.0306665 0.0622019 0.997592 
0.0303161 0.0806346 0.996283 
0.0294179 0.106662 0.99386 
0.0289383 0.138528 0.989936 
0.0339961 0.179101 0.983243 
0.0377649 0.227803 0.972975 
0.039438 0.285833 0.957468 
0.0444568 0.369371 0.928218 
0.0659828 0.414427 0.907688 
0.111374 0.529189 0.841163 
0.0446826 0.606814 0.793587 
0.0200631 0.757415 0.652625 
0.0510496 0.919807 0.389037 
0.00196377 0.999933 0.0113551 
-0.0462194 0.854712 -0.51704 
-0.0152482 0.79314 -0.608848 
-0.0907154 0.64429 -0.759382 
-0.0716139 0.536455 -0.840885 
-0.0513898 0.486785 -0.872009 
-0.0544537 0.382752 -0.922245 
-0.0395564 0.308826 -0.950296 
-0.0357612 0.243145 -0.969331 
-0.0314197 0.187905 -0.981685 
-0.0300465 0.143909 -0.989135 
-0.029012 0.110879 -0.99341 
-0.0303536 0.0836759 -0.996031 
-0.0302356 0.0650534 -0.997424 
-0.0312121 0.0500101 -0.998261 
-0.0321417 0.0388231 -0.998729 
-0.0325659 0.0305928 -0.999001 
-0.0334196 0.0238366 -0.999157 
-0.0338792 0.0186795 -0.999251 
-0.0341781 0.0144342 -0.999312 
-0.034828 0.0111015 -0.999332 
-0.0350333 0.0084213 -0.999351 
-0.0352156 0.00629099 -0.99936 
-0.0353212 0.00455879 -0.999366 
-0.03539 0.00309889 -0.999369 
-0.035218 0.00175631 -0.999378 
-0.0353817 0.000519095 -0.999374 
-0.0351368 -0.000667912 -0.999382 
-0.0349015 -0.00192585 -0.999389 
-0.0348965 -0.00337882 -0.999385 
-0.0342242 -0.00505297 -0.999401 
-0.0337662 -0.00731614 -0.999403 
-0.0334731 -0.0106173 -0.999383 
-0.0318432 -0.0144739 -0.999388 
-0.0309068 -0.0198625 -0.999325 
-0.0300057 -0.0272932 -0.999177 
-0.0275895 -0.0349841 -0.999007 
-0.0265903 -0.0380586 -0.998922 
-0.0187296 -0.0272331 -0.999454 
0.00195681 0.00250515 -0.999999 
-0.000551546 0.00129769 1 
0.015865 -0.027256 0.999503 
0.0224609 -0.0384843 0.999007 
0.0271172 -0.0369715 0.998948 
0.0264433 -0.029154 0.999225 
0.0312447 -0.0204446 0.999303 
0.0303437 -0.0158864 0.999413 
0.0309519 -0.0109672 0.999461 
0.0321938 -0.00758076 0.999453 
0.0327214 -0.0049507 0.999452 
0.0322718 -0.00329323 0.999474 
0.0320822 -0.00161247 0.999484 
0.0325942 -0.000294902 0.999469 
0.0326883 0.000905283 0.999465 
0.032874 0.00210525 0.999457 
0.032712 0.00351333 0.999459 
0.0328121 0.00499362 0.999449 
0.0326638 0.00687989 0.999443 
0.0325455 0.00912744 0.999429 
0.0321883 0.0120241 0.99941 
0.0318197 0.0156013 0.999372 
0.0315434 0.0200688 0.999301 
0.0311413 0.0257226 0.999184 
0.030856 0.0328362 0.998984 
0.0305901 0.0420009 0.998649 
0.0301881 0.053538 0.998109 
0.0301405 0.0686177 0.997188 
0.0310815 0.0893904 0.995512 
0.0323757 0.115199 0.992815 
0.0345987 0.146372 0.988624 
0.0409395 0.190233 0.980885 
0.0485419 0.242309 0.968984 
0.0560751 0.308466 0.949581 
0.0717517 0.349181 0.934304 
0.0890688 0.442311 0.892428 
0.132005 0.477016 0.868925 
0.0784693 0.637354 0.766565 
0.0507096 0.733592 0.677695 
0.0235909 0.981527 0.189863 
-0.0170664 0.972765 -0.231164 
-0.0936639 0.766926 -0.634864 
-0.0546494 0.740913 -0.669374 
-0.113833 0.560803 -0.820087 
-0.0965955 0.466288 -0.879344 
-0.0751347 0.414883 -0.906767 
-0.0717485 0.336496 -0.938948 
-0.0539849 0.30217 -0.951724 
-0.0455134 0.24321 -0.968905 
-0.0377906 0.18907 -0.981236 
-0.0339925 0.144056 -0.988986 
-0.0320148 0.108407 -0.993591 
-0.0307844 0.0825375 -0.996112 
-0.0303475 0.0636538 -0.997511 
-0.0303002 0.0495306 -0.998313 
-0.0302892 0.0386948 -0.998792 
-0.0307921 0.0301332 -0.999072 
-0.0309225 0.0236123 -0.999243 
-0.0317272 0.0183443 -0.999328 
-0.0322303 0.0142482 -0.999379 
-0.0322222 0.0108868 -0.999421 
-0.0323 0.00823734 -0.999444 
-0.0322796 0.00612936 -0.99946 
-0.0323748 0.00446385 -0.999466 
-0.032577 0.00301961 -0.999465 
-0.032742 0.00172598 -0.999462 
-0.0328329 0.000474534 -0.999461 
-0.0329855 -0.000761145 -0.999456 
-0.0328961 -0.00216956 -0.999456 
-0.0324865 -0.0039314 -0.999464 
-0.0319105 -0.0058593 -0.999474 
-0.0312881 -0.00838771 -0.999475 
-0.0302777 -0.012198 -0.999467 
-0.0302869 -0.0162984 -0.999408 
-0.0298952 -0.0222631 -0.999305 
-0.0270196 -0.0291132 -0.999211 
-0.0271703 -0.0354164 -0.999003 
-0.0236427 -0.0400069 -0.99892 
-0.0190266 -0.0300059 -0.999369 
-0.00875629 0.00168697 -0.999962 
0.000629071 -0.00250481 0.999998 
0.0109121 -0.0268146 0.999581 
0.0200088 -0.0402703 0.998989 
0.0212726 -0.0340209 0.999195 
0.0198051 -0.0259302 0.999468 
0.0259861 -0.0224778 0.99941 
0.0225269 -0.0183244 0.999578 
0.0251849 -0.0134517 0.999592 
0.0251869 -0.00951884 0.999637 
0.0267806 -0.00643281 0.999621 
0.025522 -0.00440358 0.999665 
0.025734 -0.00252835 0.999666 
0.0255695 -0.000809417 0.999673 
0.0259765 0.000449523 0.999663 
0.0258023 0.00161231 0.999666 
0.0264629 0.00282836 0.999646 
0.0259245 0.00421846 0.999655 
0.0262988 0.00578861 0.999637 
0.0258393 0.00776917 0.999636 
0.0257996 0.0102452 0.999615 
0.0254613 0.0133962 0.999586 
0.02532 0.0173328 0.999529 
0.0251801 0.0221987 0.999436 
0.0249853 0.0283074 0.999287 
0.0252052 0.0360094 0.999034 
0.0253448 0.0455726 0.99864 
0.0257466 0.0579742 0.997986 
0.0270655 0.0748794 0.996825 
0.0290703 0.0957232 0.994983 
0.0321933 0.121597 0.992057 
0.0372775 0.155199 0.98718 
0.0490177 0.206287 0.977263 
0.0610914 0.262986 0.962863 
0.0809968 0.314715 0.945724 
0.101974 0.394355 0.913283 
0.147805 0.429364 0.890955 
0.122078 0.634233 0.763443 
0.0958355 0.733593 0.672798 
0.0607669 0.824732 0.56225 
0.0451432 0.975365 0.215926 
-0.0680016 0.905185 -0.419542 
-0.134322 0.69029 -0.710955 
-0.139484 0.506665 -0.850785 
-0.119908 0.424675 -0.89737 
-0.0939398 0.365738 -0.925965 
-0.0777308 0.29574 -0.952101 
-0.0600276 0.262761 -0.962992 
-0.0505868 0.215938 -0.975096 
-0.0422726 0.188909 -0.981084 
-0.0353988 0.147316 -0.988456 
-0.0312453 0.113213 -0.993079 
-0.028321 0.0877395 -0.995741 
-0.0265132 0.0662623 -0.99745 
-0.0257231 0.0525341 -0.998288 
-0.0249266 0.0410594 -0.998846 
-0.0249819 0.0318517 -0.99918 
-0.0249186 0.0251526 -0.999373 
-0.0253889 0.0195177 -0.999487 
-0.0256891 0.0151724 -0.999555 
-0.0258223 0.0117063 -0.999598 
-0.0256002 0.00881251 -0.999633 
-0.0255742 0.00659319 -0.999651 
-0.0255086 0.00487178 -0.999663 
-0.0258085 0.00344981 -0.999661 
-0.0258321 0.00216891 -0.999664 
-0.0261672 0.000959544 -0.999657 
-0.0263761 -0.000299428 -0.999652 
-0.0262719 -0.00172885 -0.999653 
-0.02614 -0.00351674 -0.999652 
-0.0255061 -0.00562688 -0.999659 
-0.0248878 -0.00811082 -0.999657 
-0.0245155 -0.0114857 -0.999634 
-0.0240413 -0.0160868 -0.999582 
-0.0239802 -0.0211618 -0.999488 
-0.0215621 -0.0291437 -0.999343 
-0.0208601 -0.0373776 -0.999084 
-0.0173889 -0.039708 -0.99906 
-0.0131296 -0.0270007 -0.999549 
0.00428092 3.39124e-05 -0.999993 
-0.0025868 0.00587728 0.99998 
0.00800321 -0.0276856 0.999585 
0.0159515 -0.0384027 0.999135 
0.0145244 -0.0413336 0.99904 
0.0161101 -0.0343634 0.99928 
0.016678 -0.0227266 0.999603 
0.0183191 -0.0161959 0.999701 
0.0193932 -0.0122535 0.999737 
0.0198039 -0.0082718 0.99977 
0.0197111 -0.00582639 0.999789 
0.0193091 -0.00356687 0.999807 
0.0196271 -0.00161778 0.999806 
0.0193998 -4.69302e-05 0.999812 
0.0194957 0.00114041 0.999809 
0.0196395 0.0023373 0.999804 
0.0198573 0.0035048 0.999797 
0.019722 0.00492632 0.999793 
0.0197681 0.00661533 0.999783 
0.0194697 0.00887877 0.999771 
0.0194896 0.011672 0.999742 
0.0194019 0.0152505 0.999695 
0.0193476 0.0196686 0.999619 
0.0193762 0.0251372 0.999496 
0.0196896 0.0321134 0.99929 
0.0200777 0.0406146 0.998973 
0.0208386 0.0515304 0.998454 
0.0225403 0.0662595 0.997548 
0.0248934 0.0845574 0.996108 
0.0285012 0.107423 0.993805 
0.0343499 0.136238 0.99008 
0.0433951 0.173209 0.983929 
0.0641677 0.23944 0.968789 
0.0855326 0.285885 0.954439 
0.0970185 0.285946 0.953322 
0.111589 0.354845 0.928242 
0.127565 0.34755 0.928944 
0.163971 0.57862 0.798944 
0.151183 0.727357 0.669399 
0.103062 0.923121 0.37044 
-0.0193458 0.992433 -0.121255 
-0.127822 0.819651 -0.558421 
-0.162627 0.60696 -0.777915 
-0.159507 0.46614 -0.870213 
-0.137069 0.386133 -0.912203 
-0.108859 0.343553 -0.932803 
-0.0861262 0.280564 -0.955964 
-0.0643127 0.236974 -0.969385 
-0.0480886 0.189543 -0.980694 
-0.0380156 0.155301 -0.987136 
-0.0316438 0.124055 -0.991771 
-0.0271612 0.098225 -0.994794 
-0.0241484 0.0763158 -0.996791 
-0.021441 0.0602873 -0.997951 
-0.0205823 0.0481347 -0.998629 
-0.0197915 0.0374932 -0.999101 
-0.0191575 0.0297928 -0.999373 
-0.0194817 0.0233229 -0.999538 
-0.0195708 0.0182619 -0.999642 
-0.0196195 0.0142345 -0.999706 
-0.0197259 0.0109182 -0.999746 
-0.0193985 0.00821677 -0.999778 
-0.0192836 0.00613512 -0.999795 
-0.0193255 0.00450021 -0.999803 
-0.0194886 0.00321798 -0.999805 
-0.019439 0.00204351 -0.999809 
-0.0198699 0.0008241 -0.999802 
-0.0199225 -0.000462852 -0.999801 
-0.0198727 -0.00201967 -0.999801 
-0.0198042 -0.00403914 -0.999796 
-0.0190346 -0.00635466 -0.999799 
-0.0185604 -0.00912127 -0.999786 
-0.0188951 -0.0131111 -0.999736 
-0.017948 -0.0178855 -0.999679 
-0.0180926 -0.0234987 -0.99956 
-0.0157648 -0.0309823 -0.999396 
-0.0162478 -0.0379623 -0.999147 
-0.013406 -0.0421125 -0.999023 
-0.0106719 -0.0305858 -0.999475 
0.000600655 -0.00206783 -0.999999 
0.0119367 -0.0332189 0.999377 
0.00594113 -0.0296166 0.999544 
0.0112553 -0.0405915 0.999112 
0.0107681 -0.0399025 0.999146 
0.0135681 -0.030346 0.999447 
0.0116194 -0.0243816 0.999635 
0.0136322 -0.0182731 0.99974 
0.0136697 -0.0133162 0.999818 
0.0150408 -0.00969622 0.99984 
0.0142583 -0.0067009 0.999876 
0.0146627 -0.00438025 0.999883 
0.0145187 -0.00206777 0.999893 
0.014502 -0.000403687 0.999895 
0.0141744 0.000940743 0.999899 
0.0144772 0.00206442 0.999893 
0.014378 0.00315865 0.999892 
0.0147103 0.00429146 0.999883 
0.0143944 0.00580269 0.99988 
0.0144539 0.00772893 0.999866 
0.0143512 0.0102862 0.999844 
0.0145182 0.0134284 0.999804 
0.0145221 0.0173536 0.999744 
0.0146463 0.0221716 0.999647 
0.0150884 0.0282856 0.999486 
0.0155513 0.0357316 0.99924 
0.0164117 0.0451066 0.998847 
0.0180394 0.0575133 0.998182 
0.0203172 0.0727945 0.99714 
0.0237169 0.0920084 0.995476 
0.0289677 0.116526 0.992765 
0.0374582 0.147325 0.988379 
0.0519805 0.193368 0.979748 
0.0692862 0.231259 0.970422 
0.0786456 0.242404 0.966983 
0.114438 0.300864 0.946776 
0.164334 0.398104 0.902501 
0.190402 0.506648 0.840865 
0.201972 0.68201 0.7029 
0.095779 0.843888 0.527901 
-0.0315045 0.990852 -0.131223 
-0.181452 0.750234 -0.635785 
-0.193648 0.566384 -0.801067 
-0.202558 0.505207 -0.83889 
-0.156321 0.388446 -0.908115 
-0.108747 0.305517 -0.945956 
-0.0811067 0.250862 -0.964619 
-0.0637904 0.218311 -0.973792 
-0.049439 0.184685 -0.981554 
-0.037041 0.147912 -0.988307 
-0.0298812 0.120111 -0.992311 
-0.0245731 0.0966121 -0.995019 
-0.0215635 0.0784944 -0.996681 
-0.0181844 0.0620515 -0.997907 
-0.0164404 0.0489721 -0.998665 
-0.0158892 0.0392107 -0.999105 
-0.0147334 0.0307911 -0.999417 
-0.0148692 0.0243565 -0.999593 
-0.0147895 0.0190874 -0.999708 
-0.0146439 0.0148272 -0.999783 
-0.0146275 0.0113549 -0.999829 
-0.0144458 0.00859857 -0.999859 
-0.014185 0.0063738 -0.999879 
-0.0143019 0.00471141 -0.999887 
-0.0142671 0.00343989 -0.999892 
-0.014262 0.00235247 -0.999896 
-0.0145851 0.00116935 -0.999893 
-0.0146681 -9.71942e-05 -0.999892 
-0.0147091 -0.00163611 -0.999891 
-0.0148041 -0.0037096 -0.999884 
-0.0142536 -0.00615288 -0.99988 
-0.0138321 -0.00901299 -0.999864 
-0.0142646 -0.0128179 -0.999816 
-0.0133753 -0.017718 -0.999754 
-0.0132741 -0.0237565 -0.99963 
-0.0115744 -0.031805 -0.999427 
-0.0113392 -0.0399068 -0.999139 
-0.00929835 -0.0424242 -0.999056 
-0.00753071 -0.0300937 -0.999519 
-0.0115881 -0.0190891 -0.999752 
0.0132341 -0.0122276 0.999838 
0.0040444 -0.0298163 0.999547 
0.00847422 -0.043595 0.999013 
0.0075062 -0.0409222 0.999134 
0.00974351 -0.0331802 0.999402 
0.00880787 -0.0246945 0.999656 
0.0101788 -0.017973 0.999787 
0.0101039 -0.0130752 0.999864 
0.010848 -0.00921466 0.999899 
0.00993138 -0.00629175 0.999931 
0.0106936 -0.0037091 0.999936 
0.0102415 -0.00149756 0.999946 
0.0102612 0.000103683 0.999947 
0.00983124 0.00137707 0.999951 
0.0100677 0.00242234 0.999946 
0.00992369 0.00340369 0.999945 
0.0102831 0.00453298 0.999937 
0.00989125 0.0060263 0.999933 
0.0101287 0.00811382 0.999916 
0.0100772 0.0107863 0.999891 
0.0103126 0.0140743 0.999848 
0.0104276 0.0181071 0.999782 
0.0108293 0.0232113 0.999672 
0.0113395 0.0293916 0.999504 
0.0121505 0.0371952 0.999234 
0.0134819 0.0471887 0.998795 
0.0153436 0.0595139 0.99811 
0.0181551 0.0751332 0.997008 
0.0221682 0.0944579 0.995282 
0.0281451 0.11845 0.992561 
0.039444 0.153084 0.987426 
0.0528421 0.1887 0.980612 
0.0555898 0.195521 0.979123 
0.0789365 0.244337 0.966472 
0.107383 0.293005 0.950062 
0.157318 0.357093 0.920725 
0.210568 0.471053 0.856604 
0.254705 0.591911 0.764701 
0.18486 0.832909 0.521622 
0.0330563 0.994761 0.0967323 
-0.107521 0.933643 -0.341686 
-0.238143 0.668294 -0.704749 
-0.212205 0.464903 -0.859554 
-0.152377 0.353923 -0.922779 
-0.106696 0.289877 -0.951098 
-0.0731199 0.235872 -0.96903 
-0.0574193 0.201464 -0.977811 
-0.045052 0.17107 -0.984228 
-0.0361304 0.145053 -0.988764 
-0.0273623 0.115373 -0.992945 
-0.0213243 0.0914492 -0.995581 
-0.0176217 0.0728276 -0.997189 
-0.0144076 0.057198 -0.998259 
-0.0126069 0.0455628 -0.998882 
-0.0119933 0.0365994 -0.999258 
-0.0109551 0.028719 -0.999528 
-0.0109205 0.0227421 -0.999682 
-0.0106314 0.0178622 -0.999784 
-0.0104439 0.0138387 -0.99985 
-0.0102619 0.0106256 -0.999891 
-0.0101347 0.0080086 -0.999917 
-0.00988763 0.00591249 -0.999934 
-0.0100121 0.00438941 -0.99994 
-0.00983691 0.00328489 -0.999946 
-0.0100015 0.00227883 -0.999947 
-0.0102073 0.00117721 -0.999947 
-0.0103199 -0.000112093 -0.999947 
-0.0104267 -0.00174157 -0.999944 
-0.0104635 -0.0038773 -0.999938 
-0.0102088 -0.00658405 -0.999926 
-0.0101658 -0.00985143 -0.9999 
-0.0104165 -0.0137714 -0.999851 
-0.00963225 -0.0186495 -0.99978 
-0.00989488 -0.0243057 -0.999656 
-0.0086189 -0.0322186 -0.999444 
-0.00831092 -0.0406598 -0.999139 
-0.00674397 -0.0432227 -0.999043 
-0.00503049 -0.0289128 -0.999569 
-0.00769923 0.0110465 -0.99991 
0.00600632 0.0206381 0.99977 
0.00295794 -0.0321147 0.99948 
0.00597083 -0.0431827 0.999049 
0.00530074 -0.0414995 0.999125 
0.00719178 -0.0328055 0.999436 
0.00630655 -0.0251806 0.999663 
0.00741118 -0.0188904 0.999794 