# vtk DataFile Version 3.0 
Exported using Morpho https://github.com/Morpho-lang/morpho 
ASCII 
DATASET UNSTRUCTURED_GRID 

POINTS 1978 float 
-8.48528 -2.82843 -8.63146e-11 
-8.2652 -2.82843 1.70924e-10 
-8.04263 -2.82843 4.39032e-10 
-7.79231 -2.82843 4.83315e-10 
-7.48656 -2.82843 3.04018e-10 
-7.2423 -2.82843 2.19545e-10 
-6.98631 -2.82843 9.33278e-11 
-6.76721 -2.82843 4.86913e-11 
-6.5581 -2.82843 5.52152e-11 
-6.36003 -2.82843 1.63505e-11 
-6.1387 -2.82843 3.67628e-11 
-5.93586 -2.82843 1.9225e-11 
-5.72907 -2.82843 -4.42893e-12 
-5.52564 -2.82843 -1.4812e-11 
-5.30357 -2.82843 -1.2247e-11 
-5.09895 -2.82843 -5.03419e-11 
-4.88075 -2.82843 -5.28707e-11 
-4.67503 -2.82843 -7.16882e-11 
-4.46115 -2.82843 -9.48622e-11 
-4.25152 -2.82843 -1.18041e-10 
-4.04307 -2.82843 -1.5097e-10 
-3.83375 -2.82843 -1.7363e-10 
-3.62448 -2.82843 -2.27632e-10 
-3.40902 -2.82843 -2.72949e-10 
-3.19277 -2.82843 -3.43938e-10 
-2.97084 -2.82843 -4.13729e-10 
-2.74746 -2.82843 -4.73792e-10 
-2.52642 -2.82843 -5.91495e-10 
-2.30099 -2.82843 -8.09575e-10 
-2.02339 -2.82843 -9.0729e-10 
-1.82109 -2.82843 -7.62575e-10 
-1.63784 -2.82843 -4.9544e-10 
-1.44381 -2.82843 -6.88483e-12 
-1.26993 -2.82843 1.37231e-09 
-1.12636 -2.82843 3.2023e-10 
-0.988316 -2.82843 4.46826e-09 
-0.858104 -2.82843 8.00848e-09 
-0.733368 -2.82843 3.12993e-08 
-0.274271 -2.82843 1.01366e-07 
0.0605271 -2.82843 -4.2743e-08 
0.373539 -2.82843 -6.23996e-08 
0.618258 -2.82843 -2.69403e-08 
0.780782 -2.82843 -1.18942e-08 
0.961465 -2.82843 -5.51316e-09 
1.1112 -2.82843 -1.05954e-09 
1.2546 -2.82843 -1.24106e-09 
1.44436 -2.82843 4.76181e-10 
1.63052 -2.82843 7.07369e-10 
1.84517 -2.82843 8.96011e-10 
2.06847 -2.82843 8.78454e-10 
2.29738 -2.82843 6.53353e-10 
2.52034 -2.82843 6.0395e-10 
2.75844 -2.82843 4.83796e-10 
2.97653 -2.82843 4.03907e-10 
3.19547 -2.82843 3.39612e-10 
3.4164 -2.82843 2.50416e-10 
3.6301 -2.82843 2.34664e-10 
3.83874 -2.82843 1.83046e-10 
4.04741 -2.82843 1.45936e-10 
4.26375 -2.82843 1.26938e-10 
4.47011 -2.82843 8.76963e-11 
4.67763 -2.82843 7.04082e-11 
4.88233 -2.82843 4.87253e-11 
5.08772 -2.82843 3.57088e-11 
5.2941 -2.82843 3.4272e-11 
5.50952 -2.82843 -5.42639e-12 
5.7213 -2.82843 1.79008e-11 
5.94059 -2.82843 -1.70132e-11 
6.16342 -2.82843 -2.30628e-11 
6.37809 -2.82843 -2.92132e-11 
6.60272 -2.82843 -7.06864e-11 
6.82394 -2.82843 -6.47902e-11 
7.03563 -2.82843 -1.36972e-10 
7.29324 -2.82843 -1.63162e-10 
7.52529 -2.82843 -2.04972e-10 
7.75417 -2.82843 -3.39396e-10 
8.02608 -2.82843 -5.18501e-10 
8.22057 -2.82843 -1.46349e-10 
8.48528 -2.82843 1.07208e-10 
-8.48528 -2.58641 -1.26041e-10 
-8.25589 -2.5733 -1.8695e-15 
-8.01829 -2.59344 3.0027e-15 
-7.73531 -2.63607 -3.68107e-14 
-7.45492 -2.62112 -3.34331e-13 
-7.20232 -2.62116 4.09381e-14 
-6.965 -2.59236 -2.89147e-15 
-6.73374 -2.59502 -2.61445e-15 
-6.51487 -2.58265 -1.64983e-15 
-6.29371 -2.60359 3.32693e-15 
-6.07599 -2.5809 2.38415e-15 
-5.86089 -2.58591 1.18015e-15 
-5.64649 -2.58251 -5.13289e-17 
-5.4251 -2.60341 1.34103e-15 
-5.20603 -2.5863 -2.10728e-15 
-4.98807 -2.60289 -3.33276e-15 
-4.77002 -2.59123 3.86059e-14 
-4.55454 -2.60037 1.87224e-15 
-4.33762 -2.59552 2.4306e-15 
-4.12364 -2.59338 3.12679e-15 
-3.9105 -2.59279 -3.22603e-14 
-3.69685 -2.59117 -2.80267e-15 
-3.48095 -2.5951 -3.37414e-15 
-3.26104 -2.59385 3.41598e-14 
-3.03776 -2.59681 1.21086e-12 
-2.80942 -2.59516 3.17452e-13 
-2.58097 -2.59169 3.6209e-13 
-2.35227 -2.59544 4.83257e-13 
-2.11256 -2.64128 -1.06648e-12 
-1.85982 -2.5744 -3.2892e-14 
-1.65937 -2.57278 -1.26391e-12 
-1.47443 -2.6103 3.91512e-13 
-1.28602 -2.59573 6.49548e-12 
-1.12291 -2.60689 4.62722e-13 
-1.02848 -2.43955 -4.91663e-13 
-0.887382 -2.37896 -9.33126e-12 
-0.959759 -2.63711 -4.59204e-12 
-0.608949 -2.77452 4.85047e-11 
-0.317766 -2.69256 -1.20584e-10 
-0.117916 -2.76645 9.68192e-11 
0.250881 -2.75645 1.74065e-11 
0.723194 -2.65919 1.30334e-11 
0.809858 -2.48168 -1.57555e-12 
0.888855 -2.65765 -5.41775e-12 
1.05848 -2.61147 8.22243e-12 
1.21853 -2.56639 -1.2218e-12 
1.38351 -2.62015 1.2735e-12 
1.5712 -2.58909 -3.52541e-14 
1.77844 -2.61382 -3.7167e-13 
2.00974 -2.61362 -4.34619e-13 
2.24783 -2.61187 -3.90182e-13 
2.48825 -2.59525 -3.77927e-13 
2.72026 -2.60754 -3.91116e-13 
2.95652 -2.58997 -1.20576e-12 
3.17965 -2.59175 -3.6949e-14 
3.40368 -2.59567 -3.06992e-14 
3.62591 -2.59042 2.92231e-15 
3.84271 -2.58684 3.09835e-14 
4.06358 -2.60037 2.81554e-14 
4.27685 -2.59154 -2.6818e-15 
4.48991 -2.59368 -2.04852e-15 
4.70101 -2.59084 -1.50951e-15 
4.91135 -2.59052 -3.07624e-14 
5.1234 -2.59059 2.4698e-15 
5.34099 -2.59785 1.38052e-15 
5.55828 -2.59206 -5.71924e-16 
5.78017 -2.59765 1.05858e-15 
6.00637 -2.59886 -2.00819e-15 
6.22795 -2.58755 -3.25285e-15 
6.45276 -2.59557 1.56084e-15 
6.67913 -2.58942 2.17163e-15 
6.89559 -2.5762 2.94671e-15 
7.13412 -2.61748 -3.47936e-14 
7.38021 -2.5956 -2.94865e-15 
7.60869 -2.58906 -3.11805e-15 
7.86225 -2.62566 3.31894e-14 
8.07319 -2.54539 -3.0239e-15 
8.30056 -2.61762 -1.29445e-15 
8.48528 -2.52741 1.68469e-10 
-8.48528 -2.34169 -1.59163e-11 
-8.24656 -2.33432 -1.71913e-15 
-8.01185 -2.35361 3.33795e-14 
-7.77556 -2.42704 3.19836e-15 
-7.59208 -2.23745 -2.88981e-14 
-7.49776 -2.43431 -2.13826e-15 
-7.21193 -2.40296 3.31364e-14 
-6.99166 -2.35359 4.07739e-14 
-6.7603 -2.37355 -2.01501e-15 
-6.52224 -2.3526 -2.54913e-15 
-6.28911 -2.36888 -3.73594e-14 
-6.06576 -2.34247 3.05339e-15 
-5.84475 -2.34774 1.56328e-15 
-5.61604 -2.35539 4.50711e-17 
-5.39634 -2.37031 -1.52409e-15 
-5.16884 -2.35961 -2.73455e-15 
-4.95077 -2.37301 3.43842e-14 
-4.7277 -2.36428 1.77427e-15 
-4.51064 -2.37181 2.31814e-15 
-4.29307 -2.36459 3.07165e-15 
-4.07746 -2.36073 -3.09773e-14 
-3.86209 -2.359 -3.87977e-14 
-3.6441 -2.35904 -3.22238e-15 
-3.42493 -2.36282 3.16942e-14 
-3.2004 -2.36363 1.18051e-12 
-2.97202 -2.36758 3.0948e-13 
-2.74133 -2.36239 3.63728e-13 
-2.50804 -2.36034 4.18598e-13 
-2.25898 -2.39066 4.42825e-13 
-2.03078 -2.41481 4.23134e-13 
-1.79523 -2.3235 1.20361e-12 
-1.59263 -2.33652 3.24833e-14 
-1.40519 -2.39218 4.26639e-14 
-1.21312 -2.39076 2.9014e-12 
-1.10689 -2.23681 7.7679e-12 
-0.787099 -2.1798 -1.47431e-12 
-0.82483 -2.59182 -1.75945e-11 
-0.467695 -2.73195 9.22969e-12 
-0.373653 -2.56838 4.67918e-11 
0.0234108 -2.70056 -5.07886e-11 
0.413074 -2.65518 3.47484e-11 
0.532983 -2.72601 9.43641e-12 
0.719932 -2.36644 9.92466e-12 
0.908752 -2.27065 -2.35124e-11 
0.977072 -2.44578 -1.2683e-12 
1.15343 -2.36979 -3.33872e-15 
1.37258 -2.3898 -3.52834e-12 
1.56727 -2.36118 1.31048e-12 
1.77885 -2.39181 -3.7841e-14 
2.0027 -2.39863 1.10174e-12 
2.23628 -2.3979 -3.24064e-13 
2.46407 -2.3654 -4.99357e-13 
2.69353 -2.3782 -3.36147e-13 
2.92228 -2.3651 -3.31926e-13 
3.15201 -2.35486 -1.20857e-12 
3.3735 -2.36182 -3.1407e-14 
3.59348 -2.35716 -2.87356e-14 
3.81113 -2.3531 3.93755e-14 
4.02857 -2.37066 3.2062e-14 
4.24268 -2.35967 -3.23288e-15 
4.45681 -2.36029 -2.45263e-15 
4.66789 -2.35738 -1.86268e-15 
4.87968 -2.35488 -3.80749e-14 
5.09053 -2.35639 3.2248e-15 
5.30545 -2.36551 1.90127e-15 
5.52068 -2.36022 -9.76939e-16 
5.7406 -2.36637 9.26019e-16 
5.96272 -2.37024 -2.23151e-15 
6.18581 -2.35486 2.95721e-14 
6.41151 -2.35957 1.73681e-15 
6.63389 -2.3563 2.57784e-15 
6.85695 -2.32938 3.30352e-15 
7.08015 -2.37939 -3.40985e-14 
7.30846 -2.38187 -3.1543e-15 
7.55035 -2.34763 3.03858e-14 
7.78418 -2.3957 -3.6946e-14 
7.9997 -2.31764 -3.35826e-14 
8.24844 -2.35312 -3.30674e-15 
8.48528 -2.29653 8.62251e-11 
-8.48528 -2.10473 -2.09963e-11 
-8.28039 -2.06376 2.56855e-15 
-8.06883 -2.10385 2.87866e-14 
-7.83037 -2.16818 -2.38954e-15 
-7.55259 -2.02868 -2.13961e-15 
-7.32376 -2.22522 3.41116e-15 
-7.08302 -2.12585 -1.66522e-15 
-6.83705 -2.13849 -2.9248e-15 
-6.61318 -2.13934 -2.99115e-15 
-6.36616 -2.14041 3.34965e-15 
-6.14762 -2.11674 -1.2912e-15 
-5.91992 -2.10949 1.17145e-15 
-5.69945 -2.12523 -5.55903e-16 
-5.47654 -2.13044 5.26569e-16 
-5.26341 -2.13997 1.1563e-15 
-5.03806 -2.13634 -1.39396e-15 
-4.82648 -2.14369 -2.24632e-15 
-4.6064 -2.13867 -3.10307e-15 
-4.39601 -2.13909 3.2387e-14 
-4.18241 -2.13117 3.84097e-14 
-3.96996 -2.12713 1.65138e-15 
-3.75639 -2.12702 2.20922e-15 
-3.54094 -2.12751 2.72209e-15 
-3.32368 -2.13224 3.44999e-15 
-3.10038 -2.13567 -3.54323e-14 
-2.87645 -2.13469 -3.96055e-14 
-2.64737 -2.13033 -2.94715e-15 
-2.40308 -2.15389 3.50323e-14 
-2.17174 -2.16445 1.17614e-12 
-1.95803 -2.16974 3.44098e-14 
-1.71109 -2.08569 -8.62296e-16 
-1.50371 -2.12298 -3.33391e-17 
-1.3212 -2.1835 -1.20513e-12 
-1.19538 -2.03705 4.93998e-12 
-0.958269 -2.16268 4.06746e-12 
-0.791626 -1.96744 1.00187e-11 
-0.731796 -2.38957 2.55745e-11 
-0.693413 -2.60932 -2.2535e-11 
-0.174286 -2.65625 -9.26704e-11 
0.182237 -2.66056 3.45769e-12 
0.521452 -2.47551 -8.2054e-12 
0.615543 -2.56041 -7.43882e-12 
0.741188 -2.18416 -3.3211e-12 
0.902449 -2.0624 -1.66334e-11 
1.07885 -2.19741 4.88449e-12 
1.16173 -2.03637 -3.33198e-14 
1.31355 -2.20924 4.06317e-13 
1.52755 -2.13527 2.99919e-13 
1.74798 -2.16972 -2.9469e-14 
1.97816 -2.17945 2.91616e-15 
2.21455 -2.17574 -3.49348e-13 
2.45723 -2.14648 -3.34986e-14 
2.70016 -2.14773 3.44683e-15 
2.93114 -2.13459 4.09479e-14 
3.16017 -2.12238 2.82536e-14 
3.38377 -2.12882 -3.40722e-15 
3.60561 -2.12464 -2.15721e-15 
3.82937 -2.12582 -2.1427e-15 
4.04425 -2.13847 -1.75373e-15 
4.26266 -2.13038 -3.42579e-14 
4.47569 -2.12721 -2.78031e-14 
4.68968 -2.12579 2.52081e-15 
4.90255 -2.12126 1.78211e-15 
5.11914 -2.12715 -1.43473e-15 
5.33261 -2.13156 -9.6413e-16 
5.55301 -2.13133 -3.05941e-16 
5.77403 -2.13704 8.84073e-16 
5.99396 -2.13679 -1.34063e-15 
6.22171 -2.12551 -1.66499e-15 
6.44231 -2.12247 -2.98407e-15 
6.66165 -2.1155 3.59226e-14 
6.89417 -2.09798 3.36989e-14 
7.11608 -2.14495 2.27824e-15 
7.34752 -2.1525 3.34778e-15 
7.55579 -2.08634 1.6741e-15 
7.76094 -2.15497 1.96603e-15 
7.98225 -2.07974 -2.30786e-15 
8.21362 -2.12996 2.95342e-14 
8.48528 -2.09733 -3.84535e-11 
-8.48528 -1.83164 -2.46362e-11 
-8.27506 -1.79387 -3.18114e-14 
-7.87779 -1.91445 -3.73574e-14 
[...]
POINT_DATA 1978 
VECTORS vectors float
0.00559592 -0.0108498 0.999925 
0.00412803 -0.0373296 0.999294 
0.00123303 -0.042978 0.999075 
-0.000809949 -0.0345071 0.999404 
-0.000715926 -0.023348 0.999727 
0.000702605 -0.0168915 0.999857 
0.00165004 -0.0110247 0.999938 
0.00305733 -0.00755803 0.999967 
0.00337564 -0.00510439 0.999981 
0.00322235 -0.00359328 0.999988 
0.00305306 -0.00277819 0.999991 
0.00361471 -0.00194352 0.999992 
0.00351313 -0.000957765 0.999993 
0.00312253 0.00015146 0.999995 
0.00306059 0.00145437 0.999994 
0.00312639 0.00279943 0.999991 
0.00315593 0.00435553 0.999986 
0.00319639 0.00600954 0.999977 
0.00315677 0.00805455 0.999963 
0.00323047 0.0104655 0.99994 
0.00325309 0.0134563 0.999904 
0.00315937 0.0172172 0.999847 
0.00297119 0.0220065 0.999753 
0.00271584 0.0283049 0.999596 
0.00245595 0.0364196 0.999334 
0.00222115 0.0470506 0.99889 
0.00216199 0.0605983 0.99816 
0.00193609 0.078209 0.996935 
0.000671531 0.102038 0.99478 
0.00074811 0.142269 0.989828 
0.00205464 0.182088 0.98328 
0.00191774 0.226841 0.97393 
0.000761681 0.292691 0.956207 
6.97051e-05 0.364166 0.931334 
0.00050613 0.430114 0.902775 
0.000420648 0.50301 0.86428 
-0.000597086 0.573944 0.818894 
-0.000141298 0.643801 0.765193 
0.00096204 0.928114 0.372296 
-0.000193091 0.996528 -0.0832539 
0.000162051 0.877309 -0.479927 
0.00214473 0.720061 -0.693907 
0.000384212 0.605647 -0.795734 
0.000977236 0.504625 -0.863338 
0.00109066 0.424457 -0.905447 
-0.000432829 0.353602 -0.935396 
-0.00134379 0.281764 -0.959483 
-0.00152802 0.226272 -0.974063 
-0.00153381 0.175235 -0.984525 
-0.00141299 0.135037 -0.99084 
-0.00166532 0.101121 -0.994873 
-0.00161109 0.0781239 -0.996942 
-0.00178513 0.0587256 -0.998273 
-0.00254707 0.0458259 -0.998946 
-0.00234566 0.0356411 -0.999362 
-0.00266177 0.0278559 -0.999608 
-0.00307077 0.022058 -0.999752 
-0.00315022 0.0173091 -0.999845 
-0.00305037 0.0134915 -0.999904 
-0.0031363 0.0103702 -0.999941 
-0.00336505 0.00793376 -0.999963 
-0.00346131 0.00599414 -0.999976 
-0.00351786 0.00436559 -0.999984 
-0.00345759 0.00291284 -0.99999 
-0.00319932 0.00161117 -0.999994 
-0.00305712 0.00035616 -0.999995 
-0.00287498 -0.000812028 -0.999996 
-0.00264527 -0.00178029 -0.999995 
-0.0027294 -0.00273944 -0.999993 
-0.00262087 -0.0039112 -0.999989 
-0.00255638 -0.00566412 -0.999981 
-0.00270628 -0.00834168 -0.999962 
-0.00160435 -0.0120264 -0.999926 
-0.00117478 -0.0178153 -0.999841 
-0.00170398 -0.0245614 -0.999697 
-0.000700599 -0.0327447 -0.999463 
-0.00121805 -0.0430336 -0.999073 
-0.00356104 -0.0384891 -0.999253 
-0.00480349 -0.00831048 -0.999954 
0.00852801 -0.00494937 0.999951 
0.0149312 -0.0295486 0.999452 
0.0184858 -0.0381379 0.999101 
0.0196441 -0.0341945 0.999222 
0.0187595 -0.0252725 0.999505 
0.0202955 -0.0168015 0.999653 
0.0222199 -0.0118011 0.999683 
0.0230038 -0.00795048 0.999704 
0.0247007 -0.00547542 0.99968 
0.0233415 -0.00375707 0.99972 
0.0249926 -0.00250464 0.999685 
0.0250691 -0.00140698 0.999685 
0.0254708 -0.00030978 0.999676 
0.0243625 0.000878589 0.999703 
0.0255955 0.00223306 0.99967 
0.0245263 0.00368425 0.999692 
0.0252952 0.00533502 0.999666 
0.0245901 0.0072468 0.999671 
0.0247833 0.00962709 0.999646 
0.0247267 0.0125194 0.999616 
0.0244896 0.0161204 0.99957 
0.0242033 0.0206844 0.999493 
0.0233144 0.026555 0.999375 
0.0228459 0.0341969 0.999154 
0.0219602 0.0440497 0.998788 
0.0212605 0.0569152 0.998153 
0.0208066 0.073498 0.997078 
0.0201875 0.0953245 0.995242 
0.017003 0.126347 0.99184 
0.0209173 0.169148 0.985369 
0.0229511 0.214042 0.976555 
0.0211107 0.274352 0.961398 
0.023407 0.358391 0.933278 
0.0270493 0.452346 0.891432 
0.0514052 0.474773 0.878606 
0.0764905 0.535247 0.841225 
0.0301266 0.545824 0.837358 
0.00758421 0.703374 0.710779 
0.0251929 0.868632 0.494817 
0.00702207 0.961148 0.275943 
-0.0100616 0.927773 -0.373009 
-0.0309324 0.656069 -0.754067 
-0.055863 0.614944 -0.786589 
-0.0214071 0.563511 -0.825831 
-0.0284698 0.457258 -0.888878 
-0.0280705 0.377798 -0.925462 
-0.0205739 0.303305 -0.952671 
-0.0207535 0.23818 -0.970999 
-0.0187614 0.185361 -0.982491 
-0.0187679 0.141289 -0.989791 
-0.0191434 0.106246 -0.994156 
-0.0202602 0.0805561 -0.996544 
-0.0204673 0.0614808 -0.997898 
-0.0220667 0.0469465 -0.998654 
-0.0225802 0.0367299 -0.99907 
-0.0230526 0.0287278 -0.999321 
-0.0237611 0.0224637 -0.999465 
-0.0241283 0.0175079 -0.999556 
-0.0240905 0.0135082 -0.999619 
-0.0249573 0.0104007 -0.999634 
-0.0250255 0.00790071 -0.999656 
-0.0253378 0.00591412 -0.999661 
-0.02536 0.00423522 -0.999669 
-0.0252986 0.00277908 -0.999676 
-0.0247196 0.00142086 -0.999693 
-0.02501 0.000186 -0.999687 
-0.0245105 -0.000962864 -0.999699 
-0.0243627 -0.00211645 -0.999701 
-0.0247341 -0.00337637 -0.999688 
-0.0238705 -0.00491322 -0.999703 
-0.0238383 -0.0071911 -0.99969 
-0.0239418 -0.0103019 -0.99966 
-0.0208027 -0.0146698 -0.999676 
-0.0216104 -0.021053 -0.999545 
-0.0207481 -0.0282317 -0.999386 
-0.0183045 -0.0364287 -0.999169 
-0.0194784 -0.0361499 -0.999157 
-0.0128425 -0.0272346 -0.999547 
-0.00896448 -0.00373662 -0.999953 
0.0085211 -0.00416199 0.999955 
0.0184248 -0.0269054 0.999468 
0.0256177 -0.0378542 0.998955 
0.0275568 -0.0345595 0.999023 
0.0302135 -0.0284135 0.99914 
0.0263854 -0.0254382 0.999328 
0.0297659 -0.0173947 0.999406 
0.0328588 -0.0129632 0.999376 
0.0324874 -0.00928738 0.999429 
0.0343556 -0.00608416 0.999391 
0.0338735 -0.00397622 0.999418 
0.0352265 -0.00254145 0.999376 
0.0349936 -0.00121535 0.999387 
0.0352587 -6.95348e-06 0.999378 
0.0347976 0.00117314 0.999394 
0.0353063 0.00255459 0.999373 
0.0349682 0.00400194 0.99938 
0.0352681 0.00572865 0.999361 
0.0348874 0.00776711 0.999361 
0.0348499 0.0103061 0.999339 
0.0345847 0.0134763 0.999311 
0.0341445 0.01745 0.999265 
0.0335388 0.0225422 0.999183 
0.032794 0.0289959 0.999041 
0.0321783 0.0373804 0.998783 
0.0312647 0.048212 0.998348 
0.0306665 0.0622018 0.997592 
0.0303161 0.0806346 0.996283 
0.0294179 0.106662 0.99386 
0.0289383 0.138528 0.989936 
0.0339961 0.179101 0.983243 
0.0377649 0.227803 0.972975 
0.039438 0.285833 0.957468 
0.0444568 0.369371 0.928218 
0.0659828 0.414427 0.907688 
0.111374 0.529189 0.841163 
0.0446826 0.606814 0.793587 
0.0200631 0.757415 0.652625 
0.0510496 0.919806 0.389037 
0.00196377 0.999934 0.0113551 
-0.0462194 0.854712 -0.51704 
-0.0152482 0.79314 -0.608848 
-0.0907154 0.64429 -0.759382 
-0.0716139 0.536455 -0.840885 
-0.0513898 0.486785 -0.872009 
-0.0544537 0.382752 -0.922245 
-0.0395564 0.308826 -0.950296 
-0.0357612 0.243145 -0.969331 
-0.0314197 0.187905 -0.981685 
-0.0300465 0.143909 -0.989135 
-0.029012 0.110879 -0.99341 
-0.0303536 0.0836759 -0.996031 
-0.0302356 0.0650534 -0.997424 
-0.0312121 0.0500101 -0.998261 
-0.0321417 0.0388231 -0.998729 
-0.0325659 0.0305928 -0.999001 
-0.0334196 0.0238366 -0.999157 
-0.0338792 0.0186795 -0.999251 
-0.0341781 0.0144342 -0.999312 
-0.034828 0.0111015 -0.999332 
-0.0350333 0.0084213 -0.999351 
-0.0352156 0.00629099 -0.99936 
-0.0353212 0.00455879 -0.999366 
-0.03539 0.00309889 -0.999369 
-0.035218 0.00175631 -0.999378 
-0.0353817 0.000519095 -0.999374 
-0.0351368 -0.000667912 -0.999382 
-0.0349015 -0.00192585 -0.999389 
-0.0348965 -0.00337882 -0.999385 
-0.0342242 -0.00505297 -0.999401 
-0.0337662 -0.00731614 -0.999403 
-0.0334731 -0.0106173 -0.999383 
-0.0318432 -0.0144739 -0.999388 
-0.0309068 -0.0198625 -0.999325 
-0.0300057 -0.0272932 -0.999177 
-0.0275895 -0.0349841 -0.999007 
-0.0265903 -0.0380586 -0.998922 
-0.0187296 -0.0272331 -0.999454 
-0.00928899 -0.00545662 -0.999942 
0.00673151 -0.00334466 0.999972 
0.015865 -0.027256 0.999503 
0.0224609 -0.0384843 0.999007 
0.0271172 -0.0369715 0.998948 
0.0264433 -0.029154 0.999225 
0.0312447 -0.0204446 0.999303 
0.0303437 -0.0158864 0.999413 
0.0309519 -0.0109672 0.999461 
0.0321938 -0.00758076 0.999453 
0.0327214 -0.0049507 0.999452 
0.0322717 -0.00329323 0.999474 
0.0320822 -0.00161247 0.999484 
0.0325942 -0.000294902 0.999469 
0.0326883 0.000905283 0.999465 
0.032874 0.00210525 0.999457 
0.032712 0.00351333 0.999459 
0.0328121 0.00499362 0.999449 
0.0326638 0.00687989 0.999443 
0.0325455 0.00912744 0.999429 
0.0321883 0.0120241 0.999409 
0.0318197 0.0156013 0.999372 
0.0315434 0.0200688 0.999301 
0.0311413 0.0257226 0.999184 
0.030856 0.0328362 0.998984 
0.0305901 0.0420009 0.998649 
0.0301881 0.053538 0.998109 
0.0301405 0.0686177 0.997188 
0.0310815 0.0893904 0.995512 
0.0323757 0.115199 0.992815 
0.0345987 0.146372 0.988624 
0.0409395 0.190233 0.980885 
0.0485419 0.242309 0.968984 
0.0560751 0.308466 0.949581 
0.0717517 0.349181 0.934304 
0.0890688 0.442311 0.892428 
0.132005 0.477016 0.868925 
0.0784693 0.637354 0.766565 
0.0507096 0.733592 0.677695 
0.0235909 0.981527 0.189863 
-0.0170664 0.972765 -0.231164 
-0.0936639 0.766926 -0.634864 
-0.0546494 0.740913 -0.669374 
-0.113833 0.560803 -0.820087 
-0.0965955 0.466288 -0.879344 
-0.0751347 0.414883 -0.906767 
-0.0717485 0.336496 -0.938948 
-0.0539849 0.30217 -0.951724 
-0.0455134 0.24321 -0.968905 
-0.0377906 0.18907 -0.981236 
-0.0339925 0.144056 -0.988986 
-0.0320148 0.108407 -0.993591 
-0.0307844 0.0825375 -0.996112 
-0.0303475 0.0636538 -0.997511 
-0.0303002 0.0495306 -0.998313 
-0.0302892 0.0386948 -0.998792 
-0.0307921 0.0301332 -0.999071 
-0.0309225 0.0236123 -0.999243 
-0.0317272 0.0183443 -0.999328 
-0.0322303 0.0142482 -0.999379 
-0.0322222 0.0108868 -0.999421 
-0.0323 0.00823734 -0.999444 
-0.0322796 0.00612936 -0.99946 
-0.0323748 0.00446385 -0.999466 
-0.032577 0.00301961 -0.999465 
-0.032742 0.00172598 -0.999462 
-0.0328329 0.000474534 -0.999461 
-0.0329855 -0.000761145 -0.999456 
-0.0328961 -0.00216956 -0.999456 
-0.0324865 -0.0039314 -0.999464 
-0.0319105 -0.0058593 -0.999474 
-0.0312881 -0.00838771 -0.999475 
-0.0302777 -0.012198 -0.999467 
-0.0302869 -0.0162984 -0.999408 
-0.0298952 -0.0222631 -0.999305 
-0.0270196 -0.0291132 -0.999211 
-0.0271703 -0.0354164 -0.999003 
-0.0236427 -0.0400069 -0.99892 
-0.0190266 -0.0300059 -0.999369 
-0.00681309 -0.005555 -0.999961 
0.00523092 -0.00330334 0.999981 
0.0109121 -0.0268146 0.999581 
0.0200088 -0.0402703 0.998988 
0.0212726 -0.0340209 0.999195 
0.0198051 -0.0259302 0.999468 
0.0259861 -0.0224778 0.99941 
0.0225269 -0.0183244 0.999578 
0.0251849 -0.0134517 0.999592 
0.0251869 -0.00951884 0.999637 
0.0267806 -0.00643281 0.999621 
0.025522 -0.00440358 0.999665 
0.025734 -0.00252835 0.999666 
0.0255695 -0.000809417 0.999673 
0.0259765 0.000449523 0.999662 
0.0258023 0.00161231 0.999666 
0.0264629 0.00282836 0.999646 
0.0259245 0.00421846 0.999655 
0.0262988 0.00578861 0.999637 
0.0258393 0.00776917 0.999636 
0.0257996 0.0102452 0.999615 
0.0254613 0.0133962 0.999586 
0.02532 0.0173328 0.999529 
0.0251801 0.0221987 0.999436 
0.0249853 0.0283074 0.999287 
0.0252052 0.0360094 0.999034 
0.0253448 0.0455726 0.998639 
0.0257466 0.0579742 0.997986 
0.0270655 0.0748794 0.996825 
0.0290703 0.0957232 0.994983 
0.0321933 0.121597 0.992057 
0.0372775 0.155199 0.98718 
0.0490177 0.206287 0.977263 
0.0610914 0.262986 0.962863 
0.0809968 0.314715 0.945724 
0.101974 0.394355 0.913283 
0.147805 0.429364 0.890955 
0.122078 0.634233 0.763443 
0.0958355 0.733593 0.672798 
0.060767 0.824732 0.56225 
0.0451432 0.975366 0.215926 
-0.0680016 0.905185 -0.419542 
-0.134322 0.69029 -0.710955 
-0.139484 0.506665 -0.850785 
-0.119908 0.424675 -0.89737 
-0.0939398 0.365738 -0.925965 
-0.0777308 0.29574 -0.952101 
-0.0600276 0.262761 -0.962992 
-0.0505868 0.215938 -0.975096 
-0.0422726 0.188909 -0.981084 
-0.0353988 0.147316 -0.988456 
-0.0312453 0.113213 -0.993079 
-0.028321 0.0877395 -0.995741 
-0.0265132 0.0662623 -0.99745 
-0.0257231 0.0525341 -0.998288 
-0.0249266 0.0410594 -0.998846 
-0.0249819 0.0318517 -0.99918 
-0.0249186 0.0251526 -0.999373 
-0.0253889 0.0195177 -0.999487 
-0.0256891 0.0151724 -0.999555 
-0.0258223 0.0117063 -0.999598 
-0.0256002 0.00881251 -0.999633 
-0.0255742 0.00659319 -0.999651 
-0.0255086 0.00487178 -0.999663 
-0.0258085 0.00344981 -0.999661 
-0.0258321 0.00216891 -0.999664 
-0.0261672 0.000959544 -0.999657 
-0.0263761 -0.000299428 -0.999652 
-0.0262719 -0.00172885 -0.999653 
-0.02614 -0.00351674 -0.999652 
-0.0255061 -0.00562688 -0.999659 
-0.0248878 -0.00811082 -0.999657 
-0.0245155 -0.0114857 -0.999633 
-0.0240413 -0.0160868 -0.999582 
-0.0239802 -0.0211618 -0.999488 
-0.0215621 -0.0291437 -0.999343 
-0.0208601 -0.0373776 -0.999083 
-0.0173889 -0.039708 -0.99906 
-0.0131296 -0.0270007 -0.999549 
-0.00551552 -0.00531174 -0.999971 
0.00426541 -0.00424884 0.999982 
0.00800321 -0.0276856 0.999585 
0.0159515 -0.0384027 0.999135 
0.0145244 -0.0413336 0.99904 
0.0161101 -0.0343634 0.99928 
0.016678 -0.0227266 0.999603 
0.0183191 -0.0161959 0.999701 
0.0193932 -0.0122535 0.999737 
0.0198039 -0.0082718 0.99977 
0.0197111 -0.00582639 0.999789 
0.0193091 -0.00356687 0.999807 
0.0196271 -0.00161778 0.999806 
0.0193998 -4.69302e-05 0.999812 
0.0194957 0.00114041 0.999809 
0.0196395 0.0023373 0.999804 
0.0198573 0.0035048 0.999797 
0.019722 0.00492632 0.999793 
0.0197681 0.00661533 0.999783 
0.0194697 0.00887877 0.999771 
0.0194896 0.011672 0.999742 
0.0194019 0.0152505 0.999695 
0.0193476 0.0196686 0.999619 
0.0193762 0.0251372 0.999496 
0.0196896 0.0321134 0.99929 
0.0200777 0.0406146 0.998973 
0.0208386 0.0515304 0.998454 
0.0225403 0.0662595 0.997548 
0.0248934 0.0845574 0.996108 
0.0285012 0.107423 0.993805 
0.0343499 0.136238 0.99008 
0.0433951 0.173209 0.983929 
0.0641677 0.23944 0.968788 
0.0855326 0.285885 0.954439 
0.0970185 0.285946 0.953322 
0.111589 0.354845 0.928242 
0.127565 0.34755 0.928944 
0.163971 0.57862 0.798944 
0.151183 0.727357 0.669399 
0.103062 0.923121 0.37044 
-0.0193458 0.992433 -0.121255 
-0.127822 0.819651 -0.558421 
-0.162627 0.60696 -0.777915 
-0.159507 0.46614 -0.870213 
-0.137069 0.386133 -0.912203 
-0.108859 0.343553 -0.932803 
-0.0861262 0.280564 -0.955964 
-0.0643127 0.236974 -0.969385 
-0.0480886 0.189543 -0.980694 
-0.0380156 0.155301 -0.987136 
-0.0316438 0.124055 -0.991771 
-0.0271612 0.098225 -0.994794 
-0.0241484 0.0763158 -0.996791 
-0.021441 0.0602873 -0.997951 
-0.0205823 0.0481347 -0.998629 
-0.0197915 0.0374932 -0.999101 
-0.0191575 0.0297928 -0.999372 
-0.0194817 0.0233229 -0.999538 
-0.0195708 0.0182619 -0.999642 
-0.0196195 0.0142345 -0.999706 
-0.0197259 0.0109182 -0.999746 
-0.0193985 0.00821677 -0.999778 
-0.0192836 0.00613512 -0.999795 
-0.0193255 0.00450021 -0.999803 
-0.0194886 0.00321798 -0.999805 
-0.019439 0.00204351 -0.999809 
-0.0198699 0.0008241 -0.999802 
-0.0199225 -0.000462852 -0.999801 
-0.0198727 -0.00201967 -0.9998 
-0.0198042 -0.00403914 -0.999796 
-0.0190346 -0.00635466 -0.999799 
-0.0185604 -0.00912127 -0.999786 
-0.0188951 -0.0131111 -0.999736 
-0.017948 -0.0178855 -0.999679 
-0.0180926 -0.0234987 -0.99956 
-0.0157648 -0.0309823 -0.999396 
-0.0162478 -0.0379623 -0.999147 
-0.013406 -0.0421125 -0.999023 
-0.0106719 -0.0305858 -0.999475 
-0.00393709 -0.00590172 -0.999975 
0.00290362 -0.00516395 0.999982 
0.00594113 -0.0296166 0.999544 
0.0112553 -0.0405915 0.999112 
0.0107681 -0.0399025 0.999146 
0.0135681 -0.030346 0.999447 
0.0116194 -0.0243816 0.999635 
0.0136322 -0.0182731 0.99974 
0.0136697 -0.0133162 0.999818 
0.0150408 -0.00969622 0.99984 
0.0142583 -0.0067009 0.999876 
0.0146627 -0.00438025 0.999883 
0.0145187 -0.00206777 0.999892 
0.014502 -0.000403687 0.999895 
0.0141744 0.000940743 0.999899 
0.0144772 0.00206442 0.999893 
0.014378 0.00315865 0.999892 
0.0147103 0.00429146 0.999883 
0.0143944 0.00580269 0.99988 
0.0144539 0.00772893 0.999866 
0.0143512 0.0102862 0.999844 
0.0145182 0.0134284 0.999804 
0.0145221 0.0173536 0.999744 
0.0146463 0.0221716 0.999647 
0.0150884 0.0282856 0.999486 
0.0155513 0.0357316 0.99924 
0.0164117 0.0451066 0.998847 
0.0180394 0.0575133 0.998182 
0.0203172 0.0727945 0.99714 
0.0237169 0.0920084 0.995476 
0.0289677 0.116526 0.992765 
0.0374582 0.147325 0.988379 
0.0519805 0.193368 0.979748 
0.0692862 0.231259 0.970422 
0.0786456 0.242404 0.966983 
0.114438 0.300864 0.946776 
0.164334 0.398104 0.902501 
0.190402 0.506648 0.840865 
0.201972 0.682011 0.7029 
0.095779 0.843888 0.527902 
-0.0315045 0.990852 -0.131223 
-0.181452 0.750234 -0.635786 
-0.193648 0.566384 -0.801067 
-0.202558 0.505207 -0.83889 
-0.156321 0.388446 -0.908115 
-0.108747 0.305517 -0.945956 
-0.0811067 0.250862 -0.964619 
-0.0637904 0.218311 -0.973792 
-0.049439 0.184685 -0.981554 
-0.037041 0.147912 -0.988307 
-0.0298812 0.120111 -0.992311 
-0.0245731 0.0966121 -0.995019 
-0.0215635 0.0784944 -0.996681 
-0.0181844 0.0620515 -0.997907 
-0.0164404 0.0489721 -0.998665 
-0.0158892 0.0392107 -0.999105 
-0.0147334 0.0307911 -0.999417 
-0.0148692 0.0243565 -0.999593 
-0.0147895 0.0190874 -0.999708 
-0.0146439 0.0148272 -0.999783 
-0.0146275 0.0113549 -0.999829 
-0.0144458 0.00859857 -0.999859 
-0.014185 0.0063738 -0.999879 
-0.0143019 0.00471141 -0.999887 
-0.0142671 0.00343989 -0.999892 
-0.014262 0.00235247 -0.999896 
-0.0145851 0.00116935 -0.999893 
-0.0146681 -9.71942e-05 -0.999892 
-0.0147091 -0.00163611 -0.99989 
-0.0148041 -0.0037096 -0.999884 
-0.0142536 -0.00615288 -0.999879 
-0.0138321 -0.00901299 -0.999864 
-0.0142646 -0.0128179 -0.999816 
-0.0133753 -0.017718 -0.999754 
-0.0132741 -0.0237565 -0.99963 
-0.0115744 -0.031805 -0.999427 
-0.0113392 -0.0399068 -0.999139 
-0.00929835 -0.0424242 -0.999056 
-0.00753071 -0.0300937 -0.999519 
-0.00273379 -0.005421 -0.999982 
0.00197245 -0.00638684 0.999978 
0.0040444 -0.0298163 0.999547 
0.00847422 -0.043595 0.999013 
0.0075062 -0.0409222 0.999134 
0.00974351 -0.0331802 0.999402 
0.00880787 -0.0246945 0.999656 
0.0101788 -0.017973 0.999787 
0.0101039 -0.0130752 0.999863 
0.010848 -0.00921466 0.999899 
0.00993138 -0.00629175 0.999931 
0.0106936 -0.0037091 0.999936 
0.0102415 -0.00149756 0.999946 
0.0102612 0.000103683 0.999947 
0.00983124 0.00137707 0.999951 
0.0100677 0.00242234 0.999946 
0.00992369 0.00340369 0.999945 
0.0102831 0.00453297 0.999937 
0.00989125 0.0060263 0.999933 
0.0101287 0.00811382 0.999916 
0.0100772 0.0107863 0.999891 
0.0103126 0.0140743 0.999848 
0.0104276 0.0181071 0.999782 
0.0108293 0.0232113 0.999672 
0.0113395 0.0293916 0.999504 
0.0121505 0.0371952 0.999234 
0.0134819 0.0471887 0.998795 
0.0153436 0.0595139 0.99811 
0.0181551 0.0751332 0.997008 
0.0221682 0.0944579 0.995282 
0.0281451 0.11845 0.992561 
0.039444 0.153084 0.987426 
0.0528421 0.1887 0.980612 
0.0555898 0.195521 0.979123 
0.0789365 0.244337 0.966472 
0.107383 0.293005 0.950062 
0.157318 0.357093 0.920725 
0.210568 0.471053 0.856604 
0.254705 0.591911 0.764701 
0.18486 0.832909 0.521622 
0.0330563 0.994761 0.0967323 
-0.107521 0.933643 -0.341686 
-0.238143 0.668294 -0.704749 
-0.212205 0.464903 -0.859554 
-0.152377 0.353923 -0.922778 
-0.106696 0.289877 -0.951098 
-0.0731199 0.235872 -0.969029 
-0.0574193 0.201464 -0.977811 
-0.045052 0.17107 -0.984228 
-0.0361304 0.145053 -0.988764 
-0.0273623 0.115373 -0.992945 
-0.0213243 0.0914492 -0.995581 
-0.0176217 0.0728276 -0.997189 
-0.0144076 0.057198 -0.998259 
-0.0126069 0.0455628 -0.998882 
-0.0119933 0.0365994 -0.999258 
-0.0109551 0.028719 -0.999527 
-0.0109205 0.0227421 -0.999682 
-0.0106314 0.0178622 -0.999784 
-0.0104439 0.0138387 -0.99985 
-0.0102619 0.0106256 -0.999891 
-0.0101347 0.0080086 -0.999917 
-0.00988763 0.00591249 -0.999934 
-0.0100121 0.00438941 -0.99994 
-0.0098369 0.00328489 -0.999946 
-0.0100015 0.00227883 -0.999947 
-0.0102073 0.00117721 -0.999947 
-0.0103199 -0.000112093 -0.999947 
-0.0104267 -0.00174157 -0.999944 
-0.0104635 -0.0038773 -0.999938 
-0.0102088 -0.00658405 -0.999926 
-0.0101658 -0.00985143 -0.9999 
-0.0104165 -0.0137714 -0.999851 
-0.00963225 -0.0186495 -0.99978 
-0.00989488 -0.0243057 -0.999656 
-0.0086189 -0.0322186 -0.999444 
-0.00831092 -0.0406598 -0.999138 
-0.00674397 -0.0432227 -0.999043 
-0.00503049 -0.0289128 -0.999569 
-0.00216157 -0.00569044 -0.999981 
0.00140861 -0.00661808 0.999977 
0.00295794 -0.0321147 0.99948 
0.00597083 -0.0431827 0.999049 
0.00530074 -0.0414995 0.999124 
0.00719178 -0.0328055 0.999436 
0.00630655 -0.0251806 0.999663 