# vtk DataFile Version 3.0 
Exported using Morpho https://github.com/Morpho-lang/morpho 
ASCII 
DATASET UNSTRUCTURED_GRID 

POINTS 1978 float 
-8.48528 -2.82843 -4.23786e-11 
-8.2652 -2.82843 1.31046e-10 
-8.04263 -2.82843 3.28646e-10 
-7.79231 -2.82843 3.61075e-10 
-7.48656 -2.82843 2.27097e-10 
-7.2423 -2.82843 1.64053e-10 
-6.98631 -2.82843 6.97308e-11 
-6.76721 -2.82843 3.62923e-11 
-6.5581 -2.82843 4.14054e-11 
-6.36003 -2.82843 1.20076e-11 
-6.1387 -2.82843 2.75987e-11 
-5.93586 -2.82843 1.43903e-11 
-5.72907 -2.82843 -3.36518e-12 
-5.52564 -2.82843 -1.11141e-11 
-5.30357 -2.82843 -9.00612e-12 
-5.09895 -2.82843 -3.77325e-11 
-4.88075 -2.82843 -3.94364e-11 
-4.67503 -2.82843 -5.35402e-11 
-4.46115 -2.82843 -7.08624e-11 
-4.25152 -2.82843 -8.81436e-11 
-4.04307 -2.82843 -1.12818e-10 
-3.83375 -2.82843 -1.29609e-10 
-3.62448 -2.82843 -1.70096e-10 
-3.40902 -2.82843 -2.03857e-10 
-3.19277 -2.82843 -2.56963e-10 
-2.97084 -2.82843 -3.09102e-10 
-2.74746 -2.82843 -3.53875e-10 
-2.52642 -2.82843 -4.41876e-10 
-2.30099 -2.82843 -6.04902e-10 
-2.02339 -2.82843 -6.77897e-10 
-1.82109 -2.82843 -5.69828e-10 
-1.63784 -2.82843 -3.70086e-10 
-1.44381 -2.82843 -5.04902e-12 
-1.26993 -2.82843 1.02532e-09 
-1.12636 -2.82843 2.39156e-10 
-0.988316 -2.82843 3.33795e-09 
-0.858104 -2.82843 5.98252e-09 
-0.733368 -2.82843 2.33781e-08 
-0.274271 -2.82843 7.57373e-08 
0.0605271 -2.82843 -3.19406e-08 
0.373539 -2.82843 -4.6622e-08 
0.618258 -2.82843 -2.01213e-08 
0.780782 -2.82843 -8.88276e-09 
0.961465 -2.82843 -4.11822e-09 
1.1112 -2.82843 -7.90843e-10 
1.2546 -2.82843 -9.27433e-10 
1.44436 -2.82843 3.55903e-10 
1.63052 -2.82843 5.28426e-10 
1.84517 -2.82843 6.69494e-10 
2.06847 -2.82843 6.56408e-10 
2.29738 -2.82843 4.87927e-10 
2.52034 -2.82843 4.51254e-10 
2.75844 -2.82843 3.61413e-10 
2.97653 -2.82843 3.01729e-10 
3.19547 -2.82843 2.5377e-10 
3.4164 -2.82843 1.86906e-10 
3.6301 -2.82843 1.75426e-10 
3.83874 -2.82843 1.36697e-10 
4.04741 -2.82843 1.08957e-10 
4.26375 -2.82843 9.49084e-11 
4.47011 -2.82843 6.54338e-11 
4.67763 -2.82843 5.26187e-11 
4.88233 -2.82843 3.63625e-11 
5.08772 -2.82843 2.66276e-11 
5.2941 -2.82843 2.57322e-11 
5.50952 -2.82843 -4.26311e-12 
5.7213 -2.82843 1.35438e-11 
5.94059 -2.82843 -1.2791e-11 
6.16342 -2.82843 -1.72282e-11 
6.37809 -2.82843 -2.1737e-11 
6.60272 -2.82843 -5.29209e-11 
6.82394 -2.82843 -4.82605e-11 
7.03563 -2.82843 -1.02425e-10 
7.29324 -2.82843 -1.21877e-10 
7.52529 -2.82843 -1.53072e-10 
7.75417 -2.82843 -2.53528e-10 
8.02608 -2.82843 -3.88492e-10 
8.22057 -2.82843 -1.12132e-10 
8.48528 -2.82843 5.90478e-11 
-8.48528 -2.58641 -1.65005e-10 
-8.25405 -2.57194 -1.39657e-15 
-8.01525 -2.5939 2.2431e-15 
-7.73112 -2.63736 -2.74986e-14 
-7.4507 -2.62084 1.81553e-14 
-7.19832 -2.6202 3.05819e-14 
-6.96051 -2.59086 -2.16001e-15 
-6.73108 -2.60028 -1.95307e-15 
-6.51583 -2.57746 -1.23247e-15 
-6.29324 -2.60313 2.48531e-15 
-6.07549 -2.58107 1.78103e-15 
-5.8612 -2.58597 8.81606e-16 
-5.64697 -2.58258 -3.83441e-17 
-5.42559 -2.6034 1.00179e-15 
-5.20659 -2.58635 -1.5742e-15 
-4.98855 -2.60293 -2.48967e-15 
-4.77048 -2.59129 2.88397e-14 
-4.55491 -2.6004 1.39862e-15 
-4.33795 -2.59554 1.81573e-15 
-4.12387 -2.59346 2.3358e-15 
-3.91059 -2.59286 -2.40994e-14 
-3.69685 -2.59118 -2.09368e-15 
-3.48085 -2.59509 -2.52058e-15 
-3.26077 -2.59379 2.55183e-14 
-3.0373 -2.5967 1.38642e-14 
-2.8088 -2.59512 -1.72387e-14 
-2.58006 -2.59163 -1.96627e-14 
-2.35135 -2.59538 -2.62425e-14 
-2.11235 -2.64164 -1.22111e-14 
-1.86014 -2.57516 -2.45713e-14 
-1.66056 -2.57258 -1.44716e-14 
-1.47696 -2.60856 -2.12604e-14 
-1.28909 -2.61031 7.43722e-14 
-1.12282 -2.59967 -2.51274e-14 
-1.03178 -2.43299 2.66989e-14 
-0.88564 -2.37243 -1.06842e-13 
-0.957736 -2.62477 -5.25781e-14 
-0.61154 -2.77486 5.55372e-13 
-0.312433 -2.69274 -1.38067e-12 
-0.120203 -2.7664 1.10856e-12 
0.251019 -2.75682 1.99301e-13 
0.727891 -2.65875 1.4923e-13 
0.813897 -2.4822 -1.80398e-14 
0.89458 -2.65642 -6.20324e-14 
1.06203 -2.61087 9.41456e-14 
1.21779 -2.57297 -1.39894e-14 
1.38502 -2.62627 1.45814e-14 
1.5756 -2.57791 -2.63358e-14 
1.77977 -2.61287 2.01829e-14 
2.00974 -2.61343 2.36013e-14 
2.24724 -2.61284 2.11882e-14 
2.48732 -2.59591 2.05227e-14 
2.71981 -2.60738 2.12389e-14 
2.95615 -2.58985 -1.38058e-14 
3.17944 -2.59176 -2.76019e-14 
3.40344 -2.59568 -2.29331e-14 
3.62552 -2.59059 2.18305e-15 
3.84262 -2.58653 2.31456e-14 
4.0634 -2.60037 2.10329e-14 
4.27662 -2.59162 -2.00338e-15 
4.48978 -2.5938 -1.5303e-15 
4.70102 -2.59097 -1.12765e-15 
4.91134 -2.59057 -2.29804e-14 
5.12336 -2.59067 1.84501e-15 
5.34093 -2.59786 1.03129e-15 
5.55822 -2.5921 -4.27244e-16 
5.78007 -2.59769 7.90791e-16 
6.0062 -2.59893 -1.50018e-15 
6.22783 -2.58764 -2.42997e-15 
6.45264 -2.59567 1.16599e-15 
6.67893 -2.58937 1.62227e-15 
6.89545 -2.5763 2.20128e-15 
7.13406 -2.61754 -2.59918e-14 
7.38009 -2.5956 -2.20273e-15 
7.60856 -2.58901 -2.32927e-15 
7.86214 -2.62563 2.47934e-14 
8.07311 -2.5454 -2.25894e-15 
8.30054 -2.61765 -9.66992e-16 
8.48528 -2.52741 1.90454e-10 
-8.48528 -2.34169 3.44206e-11 
-8.24627 -2.33232 -1.28424e-15 
-8.01162 -2.35424 2.49354e-14 
-7.7744 -2.42876 2.38927e-15 
-7.59356 -2.23795 -2.15877e-14 
-7.49682 -2.43455 -1.59734e-15 
-7.2111 -2.40142 2.47538e-14 
-6.99065 -2.35382 3.04592e-14 
-6.75981 -2.36911 -1.50527e-15 
-6.52305 -2.35581 -1.90427e-15 
-6.28662 -2.36776 -2.79085e-14 
-6.06566 -2.34239 2.28097e-15 
-5.84569 -2.34796 1.16781e-15 
-5.61704 -2.35552 3.36694e-17 
-5.39714 -2.37035 -1.13854e-15 
-5.16942 -2.35983 -2.04278e-15 
-4.9512 -2.3731 2.56859e-14 
-4.728 -2.36445 1.32543e-15 
-4.51092 -2.37182 1.73172e-15 
-4.29324 -2.3647 2.29461e-15 
-4.07753 -2.36094 -2.31409e-14 
-3.86213 -2.35908 -2.8983e-14 
-3.6441 -2.35903 -2.40721e-15 
-3.42478 -2.36286 2.36765e-14 
-3.19998 -2.36363 1.35167e-14 
-2.97141 -2.36746 -1.68058e-14 
-2.74053 -2.36245 -1.97517e-14 
-2.50698 -2.36027 -2.27313e-14 
-2.25801 -2.39064 -2.40469e-14 
-2.03055 -2.41553 -2.29776e-14 
-1.79548 -2.32425 1.37812e-14 
-1.5924 -2.33611 2.42659e-14 
-1.4063 -2.39255 3.18711e-14 
-1.22156 -2.39322 3.32206e-14 
-1.10791 -2.23697 8.89412e-14 
-0.78234 -2.17706 -1.68806e-14 
-0.827269 -2.59797 -2.01454e-13 
-0.465994 -2.73146 1.05678e-13 
-0.375132 -2.57063 5.35759e-13 
0.0270519 -2.70222 -5.81522e-13 
0.414252 -2.65622 3.97863e-13 
0.535368 -2.72508 1.08045e-13 
0.722234 -2.36473 1.13636e-13 
0.909404 -2.26985 -2.69213e-13 
0.983466 -2.44276 -1.45218e-14 
1.15574 -2.36532 -2.49412e-15 
1.36396 -2.40284 -4.03989e-14 
1.56561 -2.36079 1.50048e-14 
1.77991 -2.38906 -2.82683e-14 
2.00297 -2.39704 1.26147e-14 
2.23565 -2.39898 1.75978e-14 
2.46261 -2.36561 2.71167e-14 
2.69178 -2.37852 1.82539e-14 
2.92096 -2.36509 1.80247e-14 
3.15111 -2.35507 -1.38379e-14 
3.3732 -2.3618 -2.34619e-14 
3.59349 -2.3574 -2.14663e-14 
3.81137 -2.3529 2.94146e-14 
4.02903 -2.37064 2.39512e-14 
4.24323 -2.35979 -2.41505e-15 
4.45732 -2.36047 -1.83218e-15 
4.66842 -2.35763 -1.39148e-15 
4.88021 -2.35498 -2.8443e-14 
5.091 -2.35649 2.40901e-15 
5.3058 -2.36556 1.42031e-15 
5.52102 -2.36028 -7.29801e-16 
5.74086 -2.36641 6.91762e-16 
5.9629 -2.37023 -1.667e-15 
6.18591 -2.35511 2.20912e-14 
6.41166 -2.3597 1.29744e-15 
6.63396 -2.35618 1.92572e-15 
6.85704 -2.32959 2.46782e-15 
7.08026 -2.37963 -2.54726e-14 
7.30861 -2.38179 -2.35635e-15 
7.55036 -2.34754 2.26991e-14 
7.78414 -2.39564 -2.75997e-14 
7.99967 -2.31763 -2.50871e-14 
8.24843 -2.35322 -2.47023e-15 
8.48528 -2.29653 8.81571e-11 
-8.48528 -2.10473 -1.65828e-11 
-8.28112 -2.06127 1.91878e-15 
-8.07001 -2.10339 2.15044e-14 
-7.83166 -2.16979 -1.78506e-15 
-7.55377 -2.02864 -1.59835e-15 
-7.32572 -2.22453 2.54823e-15 
-7.08444 -2.12639 -1.24396e-15 
-6.83888 -2.13809 -2.18491e-15 
-6.61212 -2.13865 -2.23448e-15 
-6.36803 -2.14151 2.50228e-15 
-6.14885 -2.11648 -9.64563e-16 
-5.92101 -2.10997 8.75108e-16 
-5.70051 -2.12547 -4.15275e-16 
-5.47745 -2.1307 3.93362e-16 
-5.26402 -2.14025 8.63786e-16 
-5.0386 -2.13658 -1.04133e-15 
-4.82685 -2.14388 -1.67806e-15 
-4.60684 -2.13869 -2.31808e-15 
-4.39634 -2.13925 2.4194e-14 
-4.18263 -2.13143 2.86931e-14 
-3.97023 -2.12726 1.23363e-15 
-3.75668 -2.12702 1.65035e-15 
-3.54113 -2.12755 2.03348e-15 
-3.32367 -2.13241 2.57724e-15 
-3.10009 -2.13568 -2.64689e-14 
-2.87581 -2.13477 -2.95864e-14 
-2.64645 -2.13053 -2.20161e-15 
-2.40145 -2.15408 2.61701e-14 
-2.16986 -2.16485 1.34667e-14 
-1.95728 -2.17014 2.57051e-14 
-1.71096 -2.08626 -6.44159e-16 
-1.50235 -2.12272 -2.49052e-17 
-1.31896 -2.18238 -1.37986e-14 
-1.1962 -2.03258 5.65621e-14 
-0.956641 -2.16345 4.65717e-14 
-0.794859 -1.96568 1.14712e-13 
-0.737499 -2.38998 2.92824e-13 
-0.695975 -2.60766 -2.58022e-13 
-0.168032 -2.65254 -1.06106e-12 
0.186796 -2.65868 3.959e-14 
0.524089 -2.47635 -9.39505e-14 
0.619673 -2.5593 -8.51733e-14 
0.742097 -2.18102 -3.80261e-14 
0.903818 -2.05999 -1.90449e-13 
1.08464 -2.19283 5.59267e-14 
1.1648 -2.03357 -2.48908e-14 
1.32154 -2.2078 -2.20644e-14 
1.52518 -2.14889 -1.62866e-14 
1.75154 -2.16757 -2.20142e-14 
1.97927 -2.17799 2.17845e-15 
2.21416 -2.17588 1.89707e-14 
2.45638 -2.14672 -2.50244e-14 
2.69937 -2.14785 2.57488e-15 
2.9305 -2.13472 3.05892e-14 
3.15957 -2.12284 2.11062e-14 
3.38328 -2.12867 -2.54529e-15 
3.60548 -2.125 -1.6115e-15 
3.82925 -2.12559 -1.60066e-15 
4.04421 -2.13863 -1.31008e-15 
4.26258 -2.13052 -2.55916e-14 
4.47563 -2.12739 -2.07697e-14 
4.68966 -2.12608 1.88312e-15 
4.90253 -2.12143 1.33129e-15 
5.11899 -2.12714 -1.07178e-15 
5.33254 -2.13169 -7.20232e-16 
5.55293 -2.13137 -2.28546e-16 
5.77392 -2.13707 6.60427e-16 
5.99385 -2.13681 -1.00149e-15 
6.22149 -2.1258 -1.2438e-15 
6.44199 -2.12252 -2.22918e-15 
6.6615 -2.11553 2.68352e-14 
6.89381 -2.0981 2.5174e-14 
7.11568 -2.14521 1.70191e-15 
7.34709 -2.15234 2.50088e-15 
7.55557 -2.08659 1.2506e-15 
7.761 -2.15486 1.46868e-15 
7.98249 -2.0798 -1.72404e-15 
8.21382 -2.1301 2.20629e-14 
8.48528 -2.09733 -1.15412e-10 
-8.48528 -1.83164 -1.2108e-11 
-8.27506 -1.79197 -2.3764e-14 
-7.87846 -1.91607 -2.7907e-14 
[...]
POINT_DATA 1978 
VECTORS vectors float
0.00559572 -0.0108495 0.999925 
0.00412793 -0.0373296 0.999294 
0.00123299 -0.042978 0.999075 
-0.000809932 -0.0345071 0.999404 
-0.000715908 -0.023348 0.999727 
0.000702586 -0.0168915 0.999857 
0.00165 -0.0110247 0.999938 
0.00305726 -0.00755803 0.999967 
0.00337556 -0.00510439 0.999981 
0.00322227 -0.00359328 0.999988 
0.00305298 -0.00277819 0.999991 
0.00361463 -0.00194352 0.999992 
0.00351304 -0.000957765 0.999993 
0.00312245 0.00015146 0.999995 
0.00306051 0.00145437 0.999994 
0.00312631 0.00279943 0.999991 
0.00315585 0.00435553 0.999986 
0.00319631 0.00600954 0.999977 
0.00315668 0.00805455 0.999963 
0.00323039 0.0104655 0.99994 
0.00325301 0.0134563 0.999904 
0.00315929 0.0172172 0.999847 
0.00297111 0.0220065 0.999753 
0.00271577 0.0283049 0.999596 
0.00245589 0.0364196 0.999334 
0.00222109 0.0470506 0.99889 
0.00216194 0.0605983 0.99816 
0.00193604 0.078209 0.996935 
0.000671504 0.102038 0.99478 
0.000748083 0.142269 0.989828 
0.0020546 0.182088 0.98328 
0.0019177 0.226841 0.97393 
0.000761661 0.292691 0.956207 
6.97e-05 0.364166 0.931334 
0.000506123 0.430114 0.902775 
0.000420643 0.50301 0.86428 
-0.00059708 0.573944 0.818894 
-0.000141302 0.643801 0.765193 
0.000962012 0.928114 0.372296 
-0.000193093 0.996528 -0.0832539 
0.000162037 0.877309 -0.479927 
0.00214469 0.720061 -0.693907 
0.000384196 0.605647 -0.795734 
0.000977218 0.504625 -0.863338 
0.00109064 0.424457 -0.905447 
-0.000432821 0.353602 -0.935396 
-0.00134377 0.281764 -0.959483 
-0.00152799 0.226272 -0.974063 
-0.00153377 0.175235 -0.984525 
-0.00141295 0.135037 -0.99084 
-0.00166527 0.101121 -0.994873 
-0.00161104 0.0781239 -0.996942 
-0.00178508 0.0587256 -0.998273 
-0.002547 0.0458259 -0.998946 
-0.00234559 0.0356411 -0.999362 
-0.0026617 0.0278559 -0.999608 
-0.00307069 0.022058 -0.999752 
-0.00315014 0.0173091 -0.999845 
-0.00305029 0.0134915 -0.999904 
-0.00313622 0.0103702 -0.999941 
-0.00336496 0.00793376 -0.999963 
-0.00346122 0.00599414 -0.999976 
-0.00351777 0.00436559 -0.999984 
-0.0034575 0.00291284 -0.99999 
-0.00319924 0.00161117 -0.999994 
-0.00305704 0.00035616 -0.999995 
-0.00287491 -0.000812028 -0.999996 
-0.0026452 -0.00178029 -0.999995 
-0.00272933 -0.00273944 -0.999993 
-0.0026208 -0.0039112 -0.999989 
-0.00255631 -0.00566412 -0.999981 
-0.00270621 -0.00834168 -0.999962 
-0.00160431 -0.0120264 -0.999926 
-0.00117474 -0.0178153 -0.999841 
-0.00170394 -0.0245614 -0.999697 
-0.00070057 -0.0327447 -0.999463 
-0.00121801 -0.0430336 -0.999073 
-0.00356094 -0.0384891 -0.999253 
-0.00480327 -0.00831024 -0.999954 
0.0085277 -0.00494904 0.999951 
0.0149312 -0.0295486 0.999452 
0.0184858 -0.0381379 0.999101 
0.0196441 -0.0341945 0.999222 
0.0187595 -0.0252725 0.999505 
0.0202955 -0.0168015 0.999653 
0.0222199 -0.0118011 0.999683 
0.0230038 -0.00795048 0.999704 
0.0247007 -0.00547542 0.99968 
0.0233415 -0.00375707 0.99972 
0.0249926 -0.00250464 0.999685 
0.0250691 -0.00140698 0.999685 
0.0254708 -0.00030978 0.999676 
0.0243625 0.000878589 0.999703 
0.0255955 0.00223306 0.99967 
0.0245263 0.00368425 0.999692 
0.0252952 0.00533502 0.999666 
0.0245901 0.0072468 0.999671 
0.0247833 0.00962708 0.999646 
0.0247267 0.0125194 0.999616 
0.0244896 0.0161204 0.99957 
0.0242033 0.0206844 0.999493 
0.0233144 0.026555 0.999375 
0.0228459 0.0341969 0.999154 
0.0219602 0.0440497 0.998788 
0.0212605 0.0569152 0.998153 
0.0208066 0.073498 0.997078 
0.0201875 0.0953245 0.995242 
0.017003 0.126347 0.99184 
0.0209173 0.169148 0.985369 
0.0229511 0.214042 0.976555 
0.0211107 0.274352 0.961398 
0.023407 0.358391 0.933278 
0.0270493 0.452346 0.891432 
0.0514052 0.474773 0.878606 
0.0764905 0.535247 0.841225 
0.0301266 0.545824 0.837358 
0.00758421 0.703374 0.710779 
0.0251929 0.868632 0.494817 
0.00702207 0.961148 0.275943 
-0.0100616 0.927773 -0.373009 
-0.0309324 0.656069 -0.754067 
-0.055863 0.614944 -0.786589 
-0.0214071 0.563511 -0.825831 
-0.0284698 0.457258 -0.888878 
-0.0280705 0.377798 -0.925462 
-0.0205739 0.303305 -0.952671 
-0.0207535 0.23818 -0.970999 
-0.0187614 0.185361 -0.982491 
-0.0187679 0.141289 -0.989791 
-0.0191434 0.106246 -0.994156 
-0.0202602 0.0805561 -0.996544 
-0.0204673 0.0614808 -0.997898 
-0.0220667 0.0469465 -0.998654 
-0.0225802 0.0367299 -0.99907 
-0.0230526 0.0287278 -0.999321 
-0.0237611 0.0224637 -0.999465 
-0.0241283 0.0175079 -0.999556 
-0.0240905 0.0135082 -0.999619 
-0.0249573 0.0104007 -0.999634 
-0.0250255 0.00790071 -0.999656 
-0.0253378 0.00591412 -0.999661 
-0.02536 0.00423522 -0.999669 
-0.0252986 0.00277908 -0.999676 
-0.0247196 0.00142086 -0.999693 
-0.02501 0.000186 -0.999687 
-0.0245105 -0.000962864 -0.999699 
-0.0243627 -0.00211645 -0.999701 
-0.0247341 -0.00337637 -0.999688 
-0.0238705 -0.00491322 -0.999703 
-0.0238383 -0.0071911 -0.99969 
-0.0239418 -0.0103019 -0.99966 
-0.0208027 -0.0146698 -0.999676 
-0.0216104 -0.021053 -0.999545 
-0.0207481 -0.0282317 -0.999386 
-0.0183045 -0.0364287 -0.999169 
-0.0194784 -0.0361499 -0.999157 
-0.0128425 -0.0272346 -0.999547 
-0.00896414 -0.00373632 -0.999953 
0.00852078 -0.00416176 0.999955 
0.0184248 -0.0269054 0.999468 
0.0256177 -0.0378542 0.998955 
0.0275568 -0.0345595 0.999023 
0.0302135 -0.0284135 0.99914 
0.0263854 -0.0254382 0.999328 
0.0297659 -0.0173947 0.999406 
0.0328588 -0.0129632 0.999376 
0.0324874 -0.00928738 0.999429 
0.0343556 -0.00608416 0.999391 
0.0338735 -0.00397622 0.999418 
0.0352265 -0.00254145 0.999376 
0.0349936 -0.00121535 0.999387 
0.0352587 -6.95348e-06 0.999378 
0.0347976 0.00117314 0.999394 
0.0353063 0.00255459 0.999373 
0.0349682 0.00400194 0.99938 
0.0352681 0.00572865 0.999361 
0.0348874 0.00776711 0.999361 
0.0348499 0.0103061 0.999339 
0.0345847 0.0134763 0.999311 
0.0341445 0.01745 0.999265 
0.0335388 0.0225422 0.999183 
0.032794 0.0289959 0.999041 
0.0321783 0.0373804 0.998783 
0.0312647 0.048212 0.998348 
0.0306665 0.0622018 0.997592 
0.0303161 0.0806346 0.996283 
0.0294179 0.106662 0.99386 
0.0289383 0.138528 0.989936 
0.0339961 0.179101 0.983243 
0.0377649 0.227803 0.972975 
0.039438 0.285833 0.957468 
0.0444568 0.369371 0.928218 
0.0659828 0.414427 0.907688 
0.111374 0.529189 0.841163 
0.0446826 0.606814 0.793587 
0.0200631 0.757415 0.652625 
0.0510496 0.919806 0.389037 
0.00196377 0.999934 0.0113551 
-0.0462194 0.854712 -0.51704 
-0.0152482 0.79314 -0.608848 
-0.0907154 0.64429 -0.759382 
-0.0716139 0.536455 -0.840885 
-0.0513898 0.486785 -0.872009 
-0.0544537 0.382752 -0.922245 
-0.0395564 0.308826 -0.950296 
-0.0357612 0.243145 -0.969331 
-0.0314197 0.187905 -0.981685 
-0.0300465 0.143909 -0.989135 
-0.029012 0.110879 -0.99341 
-0.0303536 0.0836759 -0.996031 
-0.0302356 0.0650534 -0.997424 
-0.0312121 0.0500101 -0.998261 
-0.0321417 0.0388231 -0.998729 
-0.0325659 0.0305928 -0.999001 
-0.0334196 0.0238366 -0.999157 
-0.0338792 0.0186795 -0.999251 
-0.0341781 0.0144342 -0.999312 
-0.034828 0.0111015 -0.999332 
-0.0350333 0.0084213 -0.999351 
-0.0352156 0.00629099 -0.99936 
-0.0353212 0.00455879 -0.999366 
-0.03539 0.00309889 -0.999369 
-0.035218 0.00175631 -0.999378 
-0.0353817 0.000519095 -0.999374 
-0.0351368 -0.000667912 -0.999382 
-0.0349015 -0.00192585 -0.999389 
-0.0348965 -0.00337882 -0.999385 
-0.0342242 -0.00505297 -0.999401 
-0.0337662 -0.00731614 -0.999403 
-0.0334731 -0.0106173 -0.999383 
-0.0318432 -0.0144739 -0.999388 
-0.0309068 -0.0198625 -0.999325 
-0.0300057 -0.0272932 -0.999177 
-0.0275895 -0.0349841 -0.999007 
-0.0265903 -0.0380586 -0.998922 
-0.0187296 -0.0272331 -0.999454 
-0.00928868 -0.00545636 -0.999942 
0.00673124 -0.00334445 0.999972 
0.015865 -0.027256 0.999503 
0.0224609 -0.0384843 0.999007 
0.0271172 -0.0369715 0.998948 
0.0264433 -0.029154 0.999225 
0.0312447 -0.0204446 0.999303 
0.0303437 -0.0158864 0.999413 
0.0309519 -0.0109672 0.999461 
0.0321938 -0.00758076 0.999453 
0.0327214 -0.0049507 0.999452 
0.0322717 -0.00329323 0.999474 
0.0320822 -0.00161247 0.999484 
0.0325942 -0.000294902 0.999469 
0.0326883 0.000905283 0.999465 
0.032874 0.00210525 0.999457 
0.032712 0.00351333 0.999459 
0.0328121 0.00499362 0.999449 
0.0326638 0.00687989 0.999443 
0.0325455 0.00912744 0.999429 
0.0321883 0.0120241 0.999409 
0.0318197 0.0156013 0.999372 
0.0315434 0.0200688 0.999301 
0.0311413 0.0257226 0.999184 
0.030856 0.0328362 0.998984 
0.0305901 0.0420009 0.998649 
0.0301881 0.053538 0.998109 
0.0301405 0.0686177 0.997188 
0.0310815 0.0893904 0.995512 
0.0323757 0.115199 0.992815 
0.0345987 0.146372 0.988624 
0.0409395 0.190233 0.980885 
0.0485419 0.242309 0.968984 
0.0560751 0.308466 0.949581 
0.0717517 0.349181 0.934304 
0.0890688 0.442311 0.892428 
0.132005 0.477016 0.868925 
0.0784693 0.637354 0.766565 
0.0507096 0.733592 0.677695 
0.0235909 0.981527 0.189863 
-0.0170664 0.972765 -0.231164 
-0.0936639 0.766926 -0.634864 
-0.0546494 0.740913 -0.669374 
-0.113833 0.560803 -0.820087 
-0.0965955 0.466288 -0.879344 
-0.0751347 0.414883 -0.906767 
-0.0717485 0.336496 -0.938948 
-0.0539849 0.30217 -0.951724 
-0.0455134 0.24321 -0.968905 
-0.0377906 0.18907 -0.981236 
-0.0339925 0.144056 -0.988986 
-0.0320148 0.108407 -0.993591 
-0.0307844 0.0825375 -0.996112 
-0.0303475 0.0636538 -0.997511 
-0.0303002 0.0495306 -0.998313 
-0.0302892 0.0386948 -0.998792 
-0.0307921 0.0301332 -0.999071 
-0.0309225 0.0236123 -0.999243 
-0.0317272 0.0183443 -0.999328 
-0.0322303 0.0142482 -0.999379 
-0.0322222 0.0108868 -0.999421 
-0.0323 0.00823734 -0.999444 
-0.0322796 0.00612936 -0.99946 
-0.0323748 0.00446385 -0.999466 
-0.032577 0.00301961 -0.999465 
-0.032742 0.00172598 -0.999462 
-0.0328329 0.000474534 -0.999461 
-0.0329855 -0.000761145 -0.999456 
-0.0328961 -0.00216956 -0.999456 
-0.0324865 -0.0039314 -0.999464 
-0.0319105 -0.0058593 -0.999474 
-0.0312881 -0.00838771 -0.999475 
-0.0302777 -0.012198 -0.999467 
-0.0302869 -0.0162984 -0.999408 
-0.0298952 -0.0222631 -0.999305 
-0.0270196 -0.0291132 -0.999211 
-0.0271703 -0.0354164 -0.999003 
-0.0236427 -0.0400069 -0.99892 
-0.0190266 -0.0300059 -0.999369 
-0.00681284 -0.00555471 -0.999961 
0.0052307 -0.00330314 0.999981 
0.0109121 -0.0268146 0.999581 
0.0200088 -0.0402703 0.998988 
0.0212726 -0.0340209 0.999195 
0.0198051 -0.0259302 0.999468 
0.0259861 -0.0224778 0.99941 
0.0225269 -0.0183244 0.999578 
0.0251849 -0.0134517 0.999592 
0.0251869 -0.00951884 0.999637 
0.0267806 -0.00643281 0.999621 
0.025522 -0.00440358 0.999665 
0.025734 -0.00252835 0.999666 
0.0255695 -0.000809417 0.999673 
0.0259765 0.000449523 0.999662 
0.0258023 0.00161231 0.999666 
0.0264629 0.00282836 0.999646 
0.0259245 0.00421846 0.999655 
0.0262988 0.00578861 0.999637 
0.0258393 0.00776917 0.999636 
0.0257996 0.0102452 0.999615 
0.0254613 0.0133962 0.999586 
0.02532 0.0173328 0.999529 
0.0251801 0.0221987 0.999436 
0.0249853 0.0283074 0.999287 
0.0252052 0.0360094 0.999034 
0.0253448 0.0455726 0.998639 
0.0257466 0.0579742 0.997986 
0.0270655 0.0748794 0.996825 
0.0290703 0.0957232 0.994983 
0.0321933 0.121597 0.992057 
0.0372775 0.155199 0.98718 
0.0490177 0.206287 0.977263 
0.0610914 0.262986 0.962863 
0.0809968 0.314715 0.945724 
0.101974 0.394355 0.913283 
0.147805 0.429364 0.890955 
0.122078 0.634233 0.763443 
0.0958355 0.733593 0.672798 
0.060767 0.824732 0.56225 
0.0451432 0.975366 0.215926 
-0.0680016 0.905185 -0.419542 
-0.134322 0.69029 -0.710955 
-0.139484 0.506665 -0.850785 
-0.119908 0.424675 -0.89737 
-0.0939398 0.365738 -0.925965 
-0.0777308 0.29574 -0.952101 
-0.0600276 0.262761 -0.962992 
-0.0505868 0.215938 -0.975096 
-0.0422726 0.188909 -0.981084 
-0.0353988 0.147316 -0.988456 
-0.0312453 0.113213 -0.993079 
-0.028321 0.0877395 -0.995741 
-0.0265132 0.0662623 -0.99745 
-0.0257231 0.0525341 -0.998288 
-0.0249266 0.0410594 -0.998846 
-0.0249819 0.0318517 -0.99918 
-0.0249186 0.0251526 -0.999373 
-0.0253889 0.0195177 -0.999487 
-0.0256891 0.0151724 -0.999555 
-0.0258223 0.0117063 -0.999598 
-0.0256002 0.00881251 -0.999633 
-0.0255742 0.00659319 -0.999651 
-0.0255086 0.00487178 -0.999663 
-0.0258085 0.00344981 -0.999661 
-0.0258321 0.00216891 -0.999664 
-0.0261672 0.000959544 -0.999657 
-0.0263761 -0.000299428 -0.999652 
-0.0262719 -0.00172885 -0.999653 
-0.02614 -0.00351674 -0.999652 
-0.0255061 -0.00562688 -0.999659 
-0.0248878 -0.00811082 -0.999657 
-0.0245155 -0.0114857 -0.999633 
-0.0240413 -0.0160868 -0.999582 
-0.0239802 -0.0211618 -0.999488 
-0.0215621 -0.0291437 -0.999343 
-0.0208601 -0.0373776 -0.999083 
-0.0173889 -0.039708 -0.99906 
-0.0131296 -0.0270007 -0.999549 
-0.00551532 -0.00531146 -0.999971 
0.00426524 -0.0042486 0.999982 
0.00800321 -0.0276856 0.999585 
0.0159515 -0.0384027 0.999135 
0.0145244 -0.0413336 0.99904 
0.0161101 -0.0343634 0.99928 
0.016678 -0.0227266 0.999603 
0.0183191 -0.0161959 0.999701 
0.0193932 -0.0122535 0.999737 
0.0198039 -0.0082718 0.99977 
0.0197111 -0.00582639 0.999789 
0.0193091 -0.00356687 0.999807 
0.0196271 -0.00161778 0.999806 
0.0193998 -4.69302e-05 0.999812 
0.0194957 0.00114041 0.999809 
0.0196395 0.0023373 0.999804 
0.0198573 0.0035048 0.999797 
0.019722 0.00492632 0.999793 
0.0197681 0.00661533 0.999783 
0.0194697 0.00887877 0.999771 
0.0194896 0.011672 0.999742 
0.0194019 0.0152505 0.999695 
0.0193476 0.0196686 0.999619 
0.0193762 0.0251372 0.999496 
0.0196896 0.0321134 0.99929 
0.0200777 0.0406146 0.998973 
0.0208386 0.0515304 0.998454 
0.0225403 0.0662595 0.997548 
0.0248934 0.0845574 0.996108 
0.0285012 0.107423 0.993805 
0.0343499 0.136238 0.99008 
0.0433951 0.173209 0.983929 
0.0641677 0.23944 0.968788 
0.0855326 0.285885 0.954439 
0.0970185 0.285946 0.953322 
0.111589 0.354845 0.928242 
0.127565 0.34755 0.928944 
0.163971 0.57862 0.798944 
0.151183 0.727357 0.669399 
0.103062 0.923121 0.37044 
-0.0193458 0.992433 -0.121255 
-0.127822 0.819651 -0.558421 
-0.162627 0.60696 -0.777915 
-0.159507 0.46614 -0.870213 
-0.137069 0.386133 -0.912203 
-0.108859 0.343553 -0.932803 
-0.0861262 0.280564 -0.955964 
-0.0643127 0.236974 -0.969385 
-0.0480886 0.189543 -0.980694 
-0.0380156 0.155301 -0.987136 
-0.0316438 0.124055 -0.991771 
-0.0271612 0.098225 -0.994794 
-0.0241484 0.0763158 -0.996791 
-0.021441 0.0602873 -0.997951 
-0.0205823 0.0481347 -0.998629 
-0.0197915 0.0374932 -0.999101 
-0.0191575 0.0297928 -0.999372 
-0.0194817 0.0233229 -0.999538 
-0.0195708 0.0182619 -0.999642 
-0.0196195 0.0142345 -0.999706 
-0.0197259 0.0109182 -0.999746 
-0.0193985 0.00821677 -0.999778 
-0.0192836 0.00613512 -0.999795 
-0.0193255 0.00450021 -0.999803 
-0.0194886 0.00321798 -0.999805 
-0.019439 0.00204351 -0.999809 
-0.0198699 0.0008241 -0.999802 
-0.0199225 -0.000462852 -0.999801 
-0.0198727 -0.00201967 -0.9998 
-0.0198042 -0.00403914 -0.999796 
-0.0190346 -0.00635466 -0.999799 
-0.0185604 -0.00912127 -0.999786 
-0.0188951 -0.0131111 -0.999736 
-0.017948 -0.0178855 -0.999679 
-0.0180926 -0.0234987 -0.99956 
-0.0157648 -0.0309823 -0.999396 
-0.0162478 -0.0379623 -0.999147 
-0.013406 -0.0421125 -0.999023 
-0.0106719 -0.0305858 -0.999475 
-0.00393695 -0.00590143 -0.999975 
0.00290351 -0.00516367 0.999982 
0.00594113 -0.0296166 0.999544 
0.0112553 -0.0405915 0.999112 
0.0107681 -0.0399025 0.999146 
0.0135681 -0.030346 0.999447 
0.0116194 -0.0243816 0.999635 
0.0136322 -0.0182731 0.99974 
0.0136697 -0.0133162 0.999818 
0.0150408 -0.00969622 0.99984 
0.0142583 -0.0067009 0.999876 
0.0146627 -0.00438025 0.999883 
0.0145187 -0.00206777 0.999892 
0.014502 -0.000403687 0.999895 
0.0141744 0.000940743 0.999899 
0.0144772 0.00206442 0.999893 
0.014378 0.00315865 0.999892 
0.0147103 0.00429146 0.999883 
0.0143944 0.00580269 0.99988 
0.0144539 0.00772893 0.999866 
0.0143512 0.0102862 0.999844 
0.0145182 0.0134284 0.999804 
0.0145221 0.0173536 0.999744 
0.0146463 0.0221716 0.999647 
0.0150884 0.0282856 0.999486 
0.0155513 0.0357316 0.99924 
0.0164117 0.0451066 0.998847 
0.0180394 0.0575133 0.998182 
0.0203172 0.0727945 0.99714 
0.0237169 0.0920084 0.995476 
0.0289677 0.116526 0.992765 
0.0374582 0.147325 0.988379 
0.0519805 0.193368 0.979748 
0.0692862 0.231259 0.970422 
0.0786456 0.242404 0.966983 
0.114438 0.300864 0.946776 
0.164334 0.398104 0.902501 
0.190402 0.506648 0.840865 
0.201972 0.682011 0.7029 
0.095779 0.843888 0.527902 
-0.0315045 0.990852 -0.131223 
-0.181452 0.750234 -0.635786 
-0.193648 0.566384 -0.801067 
-0.202558 0.505207 -0.83889 
-0.156321 0.388446 -0.908115 
-0.108747 0.305517 -0.945956 
-0.0811067 0.250862 -0.964619 
-0.0637904 0.218311 -0.973792 
-0.049439 0.184685 -0.981554 
-0.037041 0.147912 -0.988307 
-0.0298812 0.120111 -0.992311 
-0.0245731 0.0966121 -0.995019 
-0.0215635 0.0784944 -0.996681 
-0.0181844 0.0620515 -0.997907 
-0.0164404 0.0489721 -0.998665 
-0.0158892 0.0392107 -0.999105 
-0.0147334 0.0307911 -0.999417 
-0.0148692 0.0243565 -0.999593 
-0.0147895 0.0190874 -0.999708 
-0.0146439 0.0148272 -0.999783 
-0.0146275 0.0113549 -0.999829 
-0.0144458 0.00859857 -0.999859 
-0.014185 0.0063738 -0.999879 
-0.0143019 0.00471141 -0.999887 
-0.0142671 0.00343989 -0.999892 
-0.014262 0.00235247 -0.999896 
-0.0145851 0.00116935 -0.999893 
-0.0146681 -9.71942e-05 -0.999892 
-0.0147091 -0.00163611 -0.99989 
-0.0148041 -0.0037096 -0.999884 
-0.0142536 -0.00615288 -0.999879 
-0.0138321 -0.00901299 -0.999864 
-0.0142646 -0.0128179 -0.999816 
-0.0133753 -0.017718 -0.999754 
-0.0132741 -0.0237565 -0.99963 
-0.0115744 -0.031805 -0.999427 
-0.0113392 -0.0399068 -0.999139 
-0.00929835 -0.0424242 -0.999056 
-0.00753071 -0.0300937 -0.999519 
-0.00273369 -0.0054207 -0.999982 
0.00197238 -0.00638653 0.999978 
0.0040444 -0.0298163 0.999547 
0.00847422 -0.043595 0.999013 
0.0075062 -0.0409222 0.999134 
0.00974351 -0.0331802 0.999402 
0.00880787 -0.0246945 0.999656 
0.0101788 -0.017973 0.999787 
0.0101039 -0.0130752 0.999863 
0.010848 -0.00921466 0.999899 
0.00993138 -0.00629175 0.999931 
0.0106936 -0.0037091 0.999936 
0.0102415 -0.00149756 0.999946 
0.0102612 0.000103683 0.999947 
0.00983124 0.00137707 0.999951 
0.0100677 0.00242234 0.999946 
0.00992369 0.00340369 0.999945 
0.0102831 0.00453297 0.999937 
0.00989125 0.0060263 0.999933 
0.0101287 0.00811382 0.999916 
0.0100772 0.0107863 0.999891 
0.0103126 0.0140743 0.999848 
0.0104276 0.0181071 0.999782 
0.0108293 0.0232113 0.999672 
0.0113395 0.0293916 0.999504 
0.0121505 0.0371952 0.999234 
0.0134819 0.0471887 0.998795 
0.0153436 0.0595139 0.99811 
0.0181551 0.0751332 0.997008 
0.0221682 0.0944579 0.995282 
0.0281451 0.11845 0.992561 
0.039444 0.153084 0.987426 
0.0528421 0.1887 0.980612 
0.0555898 0.195521 0.979123 
0.0789365 0.244337 0.966472 
0.107383 0.293005 0.950062 
0.157318 0.357093 0.920725 
0.210568 0.471053 0.856604 
0.254705 0.591911 0.764701 
0.18486 0.832909 0.521622 
0.0330563 0.994761 0.0967323 
-0.107521 0.933643 -0.341686 
-0.238143 0.668294 -0.704749 
-0.212205 0.464903 -0.859554 
-0.152377 0.353923 -0.922778 
-0.106696 0.289877 -0.951098 
-0.0731199 0.235872 -0.969029 
-0.0574193 0.201464 -0.977811 
-0.045052 0.17107 -0.984228 
-0.0361304 0.145053 -0.988764 
-0.0273623 0.115373 -0.992945 
-0.0213243 0.0914492 -0.995581 
-0.0176217 0.0728276 -0.997189 
-0.0144076 0.057198 -0.998259 
-0.0126069 0.0455628 -0.998882 
-0.0119933 0.0365994 -0.999258 
-0.0109551 0.028719 -0.999527 
-0.0109205 0.0227421 -0.999682 
-0.0106314 0.0178622 -0.999784 
-0.0104439 0.0138387 -0.99985 
-0.0102619 0.0106256 -0.999891 
-0.0101347 0.0080086 -0.999917 
-0.00988763 0.00591249 -0.999934 
-0.0100121 0.00438941 -0.99994 
-0.0098369 0.00328489 -0.999946 
-0.0100015 0.00227883 -0.999947 
-0.0102073 0.00117721 -0.999947 
-0.0103199 -0.000112093 -0.999947 
-0.0104267 -0.00174157 -0.999944 
-0.0104635 -0.0038773 -0.999938 
-0.0102088 -0.00658405 -0.999926 
-0.0101658 -0.00985143 -0.9999 
-0.0104165 -0.0137714 -0.999851 
-0.00963225 -0.0186495 -0.99978 
-0.00989488 -0.0243057 -0.999656 
-0.0086189 -0.0322186 -0.999444 
-0.00831092 -0.0406598 -0.999138 
-0.00674397 -0.0432227 -0.999043 
-0.00503049 -0.0289128 -0.999569 
-0.00216149 -0.00569015 -0.999981 
0.00140856 -0.00661776 0.999977 
0.00295794 -0.0321147 0.99948 
0.00597083 -0.0431827 0.999049 
0.00530074 -0.0414995 0.999124 
0.00719178 -0.0328055 0.999436 
0.00630655 -0.0251806 0.999663 