# vtk DataFile Version 3.0 
Exported using Morpho https://github.com/Morpho-lang/morpho 
ASCII 
DATASET UNSTRUCTURED_GRID 

POINTS 1978 float 
-8.4853 -2.82845 -2.03551e-08 
-8.26527 -2.82842 2.71777e-08 
-8.04254 -2.82841 8.95602e-08 
-7.79222 -2.82842 9.75642e-08 
-7.48656 -2.82844 5.4977e-08 
-7.2424 -2.82844 4.57685e-08 
-6.98632 -2.8284 1.63207e-08 
-6.76721 -2.82844 8.26039e-09 
-6.55809 -2.82842 1.19063e-08 
-6.36008 -2.82843 1.94408e-09 
-6.13871 -2.82842 7.9094e-09 
-5.93587 -2.82843 3.86545e-09 
-5.72907 -2.82842 -2.12915e-09 
-5.52565 -2.82843 -4.01638e-09 
-5.30356 -2.82842 -2.32435e-09 
-5.09895 -2.82842 -1.17488e-08 
-4.88075 -2.82842 -1.12509e-08 
-4.67503 -2.82842 -1.51446e-08 
-4.46115 -2.82842 -1.99624e-08 
-4.25151 -2.82843 -2.48113e-08 
-4.04306 -2.82843 -3.19481e-08 
-3.83374 -2.82843 -3.56548e-08 
-3.62447 -2.82843 -4.73096e-08 
-3.409 -2.82843 -5.55815e-08 
-3.19275 -2.82843 -7.00512e-08 
-2.97081 -2.82843 -8.30094e-08 
-2.74741 -2.82843 -9.43728e-08 
-2.52637 -2.82843 -1.219e-07 
-2.30092 -2.82843 -1.57015e-07 
-2.02333 -2.82843 -1.7634e-07 
-1.821 -2.82843 -1.72611e-07 
-1.63779 -2.82842 -1.00687e-07 
-1.44385 -2.82843 -1.16414e-08 
-1.26977 -2.82842 3.4412e-07 
-1.12642 -2.82845 -4.17095e-08 
-0.988178 -2.82839 9.82526e-07 
-0.85844 -2.82845 1.97792e-06 
-0.733347 -2.82839 7.62572e-06 
-0.274382 -2.8283 2.33337e-05 
0.0603947 -2.82834 -1.02587e-05 
0.373507 -2.82834 -1.38364e-05 
0.61841 -2.82838 -5.88377e-06 
0.780685 -2.82844 -2.82458e-06 
0.961639 -2.82841 -1.22665e-06 
1.11107 -2.82843 -2.14321e-07 
1.25466 -2.82842 -2.93343e-07 
1.44428 -2.82843 1.07325e-07 
1.63047 -2.82842 1.50549e-07 
1.84511 -2.82844 1.90054e-07 
2.0684 -2.82843 1.82772e-07 
2.29731 -2.82844 1.31384e-07 
2.52029 -2.82842 1.20868e-07 
2.75839 -2.82843 9.43476e-08 
2.97651 -2.82843 8.40401e-08 
3.19545 -2.82842 6.89224e-08 
3.41637 -2.82843 4.90057e-08 
3.63011 -2.82842 4.98552e-08 
3.83873 -2.82843 3.85113e-08 
4.04739 -2.82842 3.00541e-08 
4.26375 -2.82842 2.72e-08 
4.47011 -2.82843 1.83713e-08 
4.67763 -2.82842 1.49968e-08 
4.88233 -2.82842 1.02296e-08 
5.08772 -2.82842 7.73437e-09 
5.2941 -2.82842 8.36396e-09 
5.50952 -2.82842 -1.85928e-09 
5.7213 -2.82842 5.89243e-09 
5.94059 -2.82842 -3.13916e-09 
6.16343 -2.82842 -4.19415e-09 
6.37809 -2.82842 -4.85935e-09 
6.60273 -2.82842 -1.5218e-08 
6.82397 -2.82843 -1.22424e-08 
7.03564 -2.82842 -2.73527e-08 
7.29326 -2.82842 -2.97365e-08 
7.52531 -2.82843 -3.97234e-08 
7.75418 -2.82843 -6.54239e-08 
8.02597 -2.82842 -1.09417e-07 
8.22061 -2.82842 -2.0185e-08 
8.4853 -2.82844 2.88312e-08 
-8.48528 -2.58646 -2.41506e-08 
-8.26169 -2.5786 -3.44035e-16 
-8.03054 -2.58922 -1.12937e-15 
-7.78705 -2.60917 -4.50664e-16 
-7.52854 -2.65234 -2.84557e-17 
-7.23746 -2.62236 2.7195e-16 
-6.98336 -2.59699 -2.0998e-17 
-6.74501 -2.59181 7.5131e-17 
-6.52237 -2.57702 1.20021e-16 
-6.29509 -2.60361 -3.84756e-17 
-6.07055 -2.5816 2.23512e-17 
-5.85349 -2.58701 -5.99754e-18 
-5.63767 -2.58168 -2.95971e-17 
-5.41849 -2.60232 -1.18325e-17 
-5.19872 -2.58537 -2.09314e-17 
-4.9822 -2.60257 1.42483e-17 
-4.76505 -2.59047 -2.80731e-17 
-4.55139 -2.60025 3.01638e-18 
-4.33521 -2.59533 -1.91413e-17 
-4.12213 -2.5928 -4.74243e-17 
-3.90974 -2.59218 -8.09925e-17 
-3.69687 -2.59021 -1.38918e-16 
-3.48174 -2.59491 -3.14901e-17 
-3.26299 -2.59373 -7.61549e-17 
-3.04159 -2.59675 7.09283e-17 
-2.81569 -2.59607 1.27787e-16 
-2.5903 -2.59217 2.34026e-17 
-2.36504 -2.59724 -3.87956e-16 
-2.12391 -2.64212 1.43753e-15 
-1.87125 -2.5734 3.68344e-17 
-1.66785 -2.57162 -4.07891e-15 
-1.46816 -2.61212 2.4129e-15 
-1.26545 -2.62086 1.05158e-15 
-1.07741 -2.60879 1.62747e-15 
-0.992009 -2.44728 -5.35548e-16 
-0.857444 -2.34791 1.63616e-14 
-0.911654 -2.62385 1.67836e-14 
-0.637017 -2.77619 1.49882e-13 
-0.368445 -2.71064 -1.52958e-13 
-0.200869 -2.77004 2.06712e-13 
0.279228 -2.76076 -3.48193e-14 
0.682624 -2.67407 2.54741e-14 
0.764152 -2.51254 1.75001e-14 
0.867395 -2.66249 -2.32519e-14 
1.04105 -2.60556 2.98426e-15 
1.19523 -2.5697 -1.50977e-15 
1.37435 -2.62151 1.37984e-15 
1.5803 -2.59129 -2.879e-16 
1.79472 -2.61393 9.91284e-18 
2.0269 -2.61301 -1.86986e-16 
2.26723 -2.60913 -3.76397e-16 
2.49817 -2.59545 -1.90367e-16 
2.73115 -2.60757 -3.49505e-16 
2.96729 -2.58773 1.17229e-16 
3.18552 -2.59175 1.02486e-16 
3.40875 -2.59632 -1.19829e-16 
3.62713 -2.59146 1.58796e-16 
3.84368 -2.58736 9.17895e-18 
4.0638 -2.59942 -1.23297e-17 
4.27606 -2.59022 7.30778e-17 
4.48895 -2.59305 4.02186e-17 
4.69966 -2.59022 3.57606e-17 
4.91037 -2.59026 2.3224e-17 
5.12224 -2.58983 4.73276e-18 
5.34061 -2.59809 -1.35708e-18 
5.55812 -2.59141 1.58141e-17 
5.78048 -2.59701 -1.18867e-18 
6.00744 -2.59822 1.34769e-17 
6.2293 -2.58663 -1.97825e-17 
6.4544 -2.59544 -4.49041e-17 
6.68156 -2.58964 -5.8298e-17 
6.8973 -2.57566 -2.07555e-16 
7.13534 -2.61706 1.51924e-16 
7.38146 -2.59441 8.23817e-17 
7.60997 -2.58948 2.15479e-16 
7.86335 -2.62602 1.41391e-15 
8.07386 -2.54541 1.09784e-16 
8.30033 -2.61724 1.03378e-15 
8.48528 -2.52747 3.30225e-08 
-8.48528 -2.34159 2.63261e-09 
-8.248 -2.34212 2.0035e-15 
-8.01742 -2.34772 9.88278e-16 
-7.77593 -2.39689 1.28155e-15 
-7.56294 -2.2499 1.41129e-15 
-7.49606 -2.455 5.98496e-16 
-7.22225 -2.42054 1.11507e-15 
-6.99385 -2.34492 1.09542e-15 
-6.76918 -2.36437 5.46775e-16 
-6.52306 -2.35802 6.07386e-16 
-6.28084 -2.37278 3.13717e-16 
-6.05907 -2.34229 2.00401e-16 
-5.83923 -2.34706 1.05629e-16 
-5.61231 -2.3526 1.08082e-18 
-5.39066 -2.36961 -1.04781e-16 
-5.16542 -2.35673 -1.83276e-16 
-4.94839 -2.37257 -2.911e-16 
-4.72721 -2.36216 -4.18409e-16 
-4.51045 -2.37207 -5.5332e-16 
-4.29339 -2.36388 -7.30808e-16 
-4.07768 -2.3597 -9.25535e-16 
-3.86212 -2.35782 -1.15319e-15 
-3.64282 -2.3584 -1.43033e-15 
-3.4234 -2.36265 -1.75838e-15 
-3.19936 -2.36332 -2.23301e-15 
-2.97175 -2.36788 -2.65503e-15 
-2.74402 -2.36282 -3.13368e-15 
-2.51428 -2.36077 -3.66206e-15 
-2.272 -2.39362 -4.04334e-15 
-2.04723 -2.41274 -3.54477e-15 
-1.81467 -2.31889 -2.2865e-15 
-1.60635 -2.3352 -4.45378e-16 
-1.41495 -2.39555 -1.50682e-15 
-1.20877 -2.42331 8.45641e-15 
-1.08517 -2.27734 3.40773e-15 
-0.792007 -2.1779 2.90465e-15 
-0.801437 -2.59173 -1.7183e-14 
-0.548512 -2.723 1.11938e-13 
-0.294592 -2.56532 -1.20453e-13 
-0.000835611 -2.73906 -1.72072e-13 
0.404264 -2.6222 9.02433e-14 
0.498245 -2.72924 -5.20702e-15 
0.655568 -2.38496 -1.06184e-14 
0.853552 -2.35508 -2.41293e-14 
0.966456 -2.44173 -5.75111e-15 
1.15139 -2.33345 -5.83449e-15 
1.34115 -2.39752 -8.34322e-16 
1.5395 -2.37779 2.28629e-15 
1.76944 -2.39437 3.33864e-15 
1.99749 -2.39579 4.30589e-15 
2.22986 -2.39979 3.15323e-15 
2.46682 -2.36528 4.34988e-15 
2.69532 -2.38152 2.94021e-15 
2.9244 -2.36468 2.8757e-15 
3.15371 -2.34907 2.29909e-15 
3.37013 -2.36622 1.78636e-15 
3.58967 -2.35509 1.59774e-15 
3.80474 -2.35547 1.17704e-15 
4.02454 -2.36951 9.64832e-16 
4.2399 -2.35768 7.69393e-16 
4.45472 -2.3594 5.87146e-16 
4.66633 -2.35569 4.42373e-16 
4.87767 -2.35482 3.25141e-16 
5.08899 -2.35492 2.18396e-16 
5.30404 -2.36611 1.30738e-16 
5.51935 -2.35935 5.20388e-17 
5.73949 -2.36537 -4.8686e-17 
5.96193 -2.36962 -1.51108e-16 
6.18545 -2.35337 -2.51184e-16 
6.41119 -2.35875 -4.14527e-16 
6.63329 -2.35733 -6.17151e-16 
6.85607 -2.32761 -7.90286e-16 
7.07835 -2.37773 -1.00089e-15 
7.30603 -2.38162 -1.36375e-15 
7.54979 -2.34809 -1.69123e-15 
7.78414 -2.39661 -1.10529e-15 
7.99988 -2.31815 -1.0026e-15 
8.24854 -2.352 -1.66441e-15 
8.48528 -2.2965 1.70227e-08 
-8.48527 -2.10485 1.53695e-09 
-8.26594 -2.08693 9.28336e-16 
-8.05095 -2.09415 -1.54909e-16 
-7.81704 -2.15683 6.14636e-16 
-7.55086 -2.04234 5.37178e-16 
-7.30233 -2.22505 1.18558e-15 
-7.08384 -2.12744 4.78976e-16 
-6.82949 -2.12463 3.28515e-16 
-6.60603 -2.1425 3.40057e-16 
-6.35763 -2.14697 2.13265e-16 
-6.14127 -2.11536 7.55931e-17 
-5.91402 -2.10694 7.62668e-17 
-5.69511 -2.1219 3.15121e-17 
-5.47244 -2.12938 -2.72101e-17 
-5.26106 -2.13712 -5.89197e-17 
-5.03515 -2.13517 -9.59704e-17 
-4.82507 -2.14162 -1.51559e-16 
-4.60437 -2.13851 -2.13158e-16 
-4.39502 -2.13839 -2.74818e-16 
-4.18153 -2.13007 -3.27528e-16 
-3.96899 -2.1257 -3.98787e-16 
-3.75451 -2.12739 -5.25432e-16 
-3.53836 -2.12721 -6.61598e-16 
-3.32182 -2.13171 -8.23932e-16 
-3.09901 -2.13631 -1.06194e-15 
-2.87738 -2.13395 -1.19214e-15 
-2.65096 -2.13089 -1.29894e-15 
-2.4115 -2.15263 -1.94198e-15 
-2.18618 -2.16342 -2.20699e-15 
-1.97263 -2.16052 -1.80966e-15 
-1.72081 -2.07688 1.08875e-17 
-1.51151 -2.11585 5.50056e-16 
-1.31987 -2.20028 -4.04793e-15 
-1.18847 -2.08711 8.58074e-15 
-0.972414 -2.15524 1.84454e-14 
-0.794452 -1.97928 2.0514e-14 
-0.71894 -2.43118 1.39319e-14 
-0.623544 -2.58792 9.43887e-15 
-0.144218 -2.67337 -1.56728e-13 
0.187987 -2.69518 1.93487e-13 
0.478773 -2.44895 -1.43868e-14 
0.578888 -2.55916 -2.11933e-15 
0.733848 -2.21629 -1.19156e-14 
0.899664 -2.12799 -2.488e-14 
1.04052 -2.19694 -3.91808e-15 
1.17749 -2.04578 -4.30385e-15 
1.32919 -2.17304 -1.10996e-15 
1.51809 -2.15421 -1.69413e-15 
1.74226 -2.18642 1.3343e-15 
1.98451 -2.1787 1.68214e-15 
2.2268 -2.1808 2.72902e-15 
2.47033 -2.14151 1.70415e-15 
2.70539 -2.15274 1.47598e-15 
2.93572 -2.13445 1.19713e-15 
3.16397 -2.11792 8.59752e-16 
3.38763 -2.13182 7.76903e-16 
3.60683 -2.11971 5.54159e-16 
3.82961 -2.1296 5.13102e-16 
4.045 -2.13783 4.191e-16 
4.2636 -2.12864 2.92307e-16 
4.47672 -2.1262 2.35117e-16 
4.68968 -2.1228 1.75166e-16 
4.90212 -2.12112 1.20314e-16 
5.11937 -2.12604 7.62379e-17 
5.33192 -2.13155 5.09521e-17 
5.55267 -2.13042 1.58071e-17 
5.77428 -2.13619 -4.6722e-17 
5.99471 -2.1361 -9.01033e-17 
6.22311 -2.1238 -1.13255e-16 
6.44397 -2.12147 -2.04316e-16 
6.66216 -2.11553 -2.97054e-16 
6.89728 -2.09737 -2.95305e-16 
7.11923 -2.14289 -5.55254e-16 
7.35193 -2.15394 -8.2442e-16 
7.55856 -2.08385 -4.33341e-16 
7.76058 -2.15658 -4.61567e-16 
7.97932 -2.07909 5.67945e-16 
8.21136 -2.12845 -1.12653e-15 
8.48528 -2.09738 -1.41545e-08 
-8.48529 -1.83156 -4.01784e-10 
-8.28588 -1.83083 2.97401e-16 
-7.87323 -1.89912 -1.07874e-15 
[...]
POINT_DATA 1978 
VECTORS vectors float
0.011874 -0.0188706 0.999711 
0.0180463 -0.0373518 0.999162 
0.0146229 -0.0429922 0.999002 
0.013181 -0.0345076 0.999391 
0.0128526 -0.0233469 0.999743 
0.0140986 -0.0168924 0.999803 
0.0154934 -0.0110231 0.99985 
0.0159982 -0.00755591 0.999869 
0.0156011 -0.00510223 0.999876 
0.0159888 -0.00359182 0.999877 
0.0161157 -0.00277819 0.999879 
0.0163904 -0.00194385 0.99988 
0.0163236 -0.000958111 0.999883 
0.0164589 0.00015112 0.999886 
0.0164056 0.00145409 0.999885 
0.0162889 0.00279903 0.999881 
0.0163502 0.004355 0.999876 
0.0161875 0.00600874 0.999868 
0.0162598 0.0080535 0.999854 
0.0160569 0.0104642 0.999833 
0.0159658 0.0134544 0.999799 
0.0157412 0.0172148 0.999744 
0.0155703 0.0220035 0.999655 
0.0152764 0.0283015 0.999504 
0.0148705 0.0364156 0.999249 
0.0144398 0.0470462 0.998814 
0.0137751 0.0605928 0.998091 
0.012735 0.0782031 0.996879 
0.0115274 0.102034 0.994751 
0.00966198 0.142266 0.989809 
0.0078998 0.182087 0.983257 
0.00620945 0.226837 0.973918 
0.00305279 0.292703 0.956202 
0.000833212 0.364169 0.931334 
0.0010189 0.430102 0.902778 
0.000644599 0.503002 0.864289 
-0.00123846 0.573935 0.818897 
-0.00373262 0.643858 0.765144 
-0.00261304 0.928233 0.372112 
0.000359307 0.99652 -0.0833348 
0.00412204 0.877308 -0.479915 
0.00629469 0.720092 -0.69387 
0.00232043 0.605636 -0.795743 
0.00248611 0.504623 -0.863337 
0.00195236 0.424463 -0.905444 
-0.00137444 0.353595 -0.9354 
-0.00441641 0.281764 -0.959477 
-0.00664223 0.226269 -0.974048 
-0.00877771 0.17523 -0.9845 
-0.0102153 0.135034 -0.990807 
-0.0116435 0.101112 -0.994827 
-0.012813 0.0781202 -0.996896 
-0.0136477 0.0587197 -0.998201 
-0.0146042 0.0458221 -0.998879 
-0.0148045 0.0356368 -0.999274 
-0.0153432 0.0278524 -0.999508 
-0.0156259 0.0220554 -0.999661 
-0.0156598 0.017307 -0.999743 
-0.0159907 0.0134898 -0.999801 
-0.0161173 0.0103688 -0.999834 
-0.0161015 0.00793253 -0.999853 
-0.0162012 0.00599335 -0.999864 
-0.0162155 0.004365 -0.999872 
-0.016231 0.00291244 -0.999878 
-0.0163533 0.00161095 -0.999883 
-0.016413 0.000355904 -0.999885 
-0.0163396 -0.000812308 -0.999888 
-0.016527 -0.00178014 -0.999888 
-0.016406 -0.00273889 -0.999886 
-0.0162645 -0.0039099 -0.999885 
-0.0163291 -0.00566242 -0.999878 
-0.0156785 -0.00833985 -0.999863 
-0.0152989 -0.0120243 -0.999849 
-0.0152683 -0.0178128 -0.999772 
-0.0145145 -0.0245587 -0.999624 
-0.0144193 -0.0327441 -0.999409 
-0.0144576 -0.0430489 -0.999002 
-0.0179996 -0.0385094 -0.999129 
-0.012632 -0.0179338 -0.999718 
0.00930248 -0.0220153 0.999674 
0.0149282 -0.0295457 0.999473 
0.0184872 -0.0381555 0.999099 
0.0196451 -0.0342021 0.999224 
0.0187612 -0.0252726 0.999537 
0.0202911 -0.0167985 0.999671 
0.0222177 -0.0118008 0.99969 
0.0230005 -0.00794854 0.999712 
0.0247045 -0.00547458 0.999684 
0.0233375 -0.00375701 0.999728 
0.0249937 -0.00250445 0.99969 
0.0250702 -0.00140704 0.999689 
0.0254725 -0.000309949 0.999682 
0.0243609 0.000878371 0.99971 
0.0255981 0.00223299 0.999675 
0.0245252 0.00368426 0.999699 
0.0252969 0.00533496 0.999671 
0.0245896 0.00724667 0.999678 
0.024784 0.00962699 0.999652 
0.0247277 0.0125192 0.999622 
0.0244909 0.0161201 0.999576 
0.024205 0.0206839 0.999499 
0.0233142 0.0265545 0.999382 
0.0228462 0.0341963 0.99916 
0.0219593 0.0440492 0.998795 
0.0212594 0.0569145 0.99816 
0.0208057 0.0734962 0.997085 
0.0201879 0.0953214 0.99525 
0.0169971 0.126343 0.991852 
0.0209157 0.169139 0.985377 
0.0229581 0.214024 0.976565 
0.021111 0.274312 0.961412 
0.0234032 0.358389 0.933276 
0.0270401 0.452408 0.891409 
0.0513939 0.474695 0.878663 
0.0764995 0.535278 0.841203 
0.030137 0.545914 0.837297 
0.00755809 0.703382 0.710734 
0.0251784 0.868564 0.494992 
0.00701085 0.961129 0.276036 
-0.0100631 0.92773 -0.373068 
-0.0309666 0.65597 -0.754233 
-0.0558806 0.615028 -0.78651 
-0.0213646 0.563552 -0.825809 
-0.0285061 0.457222 -0.888897 
-0.0280526 0.377801 -0.925465 
-0.0205767 0.303275 -0.952686 
-0.0207514 0.238181 -0.971006 
-0.0187596 0.185358 -0.982499 
-0.0187658 0.141288 -0.989798 
-0.0191407 0.106245 -0.994165 
-0.0202582 0.0805523 -0.996552 
-0.0204655 0.0614793 -0.997917 
-0.0220657 0.0469444 -0.998653 
-0.0225804 0.0367288 -0.999076 
-0.0230531 0.0287279 -0.999337 
-0.0237613 0.0224637 -0.999464 
-0.0241289 0.0175074 -0.999562 
-0.02409 0.0135081 -0.999625 
-0.0249588 0.0104005 -0.99964 
-0.0250266 0.00790053 -0.999661 
-0.0253397 0.00591408 -0.999666 
-0.0253616 0.00423515 -0.999675 
-0.0252998 0.00277904 -0.999681 
-0.024719 0.00142075 -0.9997 
-0.0250104 0.000185795 -0.999693 
-0.0245093 -0.000962897 -0.999706 
-0.0243615 -0.0021164 -0.999708 
-0.0247346 -0.00337616 -0.999695 
-0.0238692 -0.00491244 -0.99971 
-0.0238382 -0.00719003 -0.999697 
-0.0239438 -0.0103006 -0.999666 
-0.0207963 -0.0146682 -0.999688 
-0.0216097 -0.0210527 -0.999553 
-0.0207464 -0.0282331 -0.999394 
-0.0182998 -0.0364407 -0.999181 
-0.0194862 -0.0361652 -0.999156 
-0.0128287 -0.0272254 -0.999567 
-0.00986317 -0.0221095 -0.999694 
0.00924504 -0.0206176 0.999718 
0.0184372 -0.0268929 0.999467 
0.0256423 -0.0378791 0.998964 
0.0275774 -0.0345689 0.999033 
0.0302327 -0.0284144 0.999144 
0.0263958 -0.0254411 0.999322 
0.029784 -0.0173938 0.999407 
0.0328847 -0.0129614 0.999381 
0.0325073 -0.00928793 0.999433 
0.0343817 -0.00608325 0.999394 
0.0338951 -0.00397571 0.999423 
0.0352517 -0.00254141 0.999379 
0.0350156 -0.00121515 0.999392 
0.0352826 -6.997e-06 0.999381 
0.0348197 0.00117294 0.999399 
0.0353297 0.00255455 0.999378 
0.0349909 0.00400184 0.999384 
0.0352917 0.00572855 0.999366 
0.0349101 0.00776698 0.999365 
0.0348726 0.010306 0.999344 
0.034607 0.0134762 0.999315 
0.0341665 0.0174499 0.999269 
0.0335602 0.0225421 0.999188 
0.0328149 0.0289959 0.999046 
0.0321995 0.0373804 0.998788 
0.0312846 0.0482119 0.998352 
0.0306854 0.0622017 0.997597 
0.0303342 0.080635 0.996288 
0.0294345 0.106663 0.993865 
0.028952 0.138532 0.98994 
0.0340059 0.179103 0.983249 
0.0377745 0.227805 0.97298 
0.039446 0.285823 0.957477 
0.0444531 0.369322 0.928235 
0.0659891 0.414492 0.907661 
0.111382 0.529177 0.841177 
0.0446846 0.606723 0.793639 
0.0200729 0.757026 0.653062 
0.0510177 0.919927 0.388808 
0.00200066 0.999887 0.0116319 
-0.0462025 0.85478 -0.516924 
-0.0152259 0.793082 -0.608902 
-0.090717 0.644234 -0.759426 
-0.0715744 0.536483 -0.840859 
-0.0513845 0.486827 -0.871992 
-0.0544667 0.382723 -0.922261 
-0.039557 0.30884 -0.950296 
-0.0357723 0.243124 -0.969341 
-0.0314295 0.187903 -0.981682 
-0.0300621 0.143901 -0.989149 
-0.0290257 0.110883 -0.993422 
-0.0303731 0.083674 -0.99603 
-0.0302537 0.065055 -0.997427 
-0.0312323 0.0500093 -0.998266 
-0.0321628 0.0388236 -0.998735 
-0.0325862 0.0305931 -0.999005 
-0.0334418 0.0238362 -0.999162 
-0.0339007 0.0186797 -0.999256 
-0.0342002 0.0144341 -0.999316 
-0.0348507 0.0111014 -0.999336 
-0.0350557 0.00842123 -0.999355 
-0.0352379 0.00629085 -0.999364 
-0.0353435 0.00455868 -0.99937 
-0.0354127 0.00309886 -0.999373 
-0.0352408 0.00175626 -0.999382 
-0.0354052 0.000518958 -0.999378 
-0.0351601 -0.000667908 -0.999386 
-0.034925 -0.00192576 -0.999393 
-0.03492 -0.0033788 -0.999389 
-0.0342467 -0.00505237 -0.999405 
-0.0337891 -0.00731521 -0.999407 
-0.0334963 -0.010617 -0.999389 
-0.0318645 -0.0144729 -0.999391 
-0.0309289 -0.0198618 -0.999329 
-0.0300279 -0.0272941 -0.999182 
-0.0276094 -0.0349948 -0.99901 
-0.0266158 -0.038083 -0.998924 
-0.0187424 -0.0272257 -0.999459 
-0.00998419 -0.0200463 -0.999698 
0.00735727 -0.0204927 0.999749 
0.0158751 -0.0272533 0.999511 
0.0224749 -0.0385126 0.999008 
0.027133 -0.0369856 0.998954 
0.0264514 -0.0291563 0.999231 
0.0312634 -0.0204419 0.99931 
0.0303549 -0.015888 0.999419 
0.0309614 -0.010967 0.999468 
0.0322055 -0.00757981 0.999459 
0.0327332 -0.00495028 0.999458 
0.0322814 -0.00329349 0.99948 
0.0320907 -0.00161208 0.99949 
0.032604 -0.000294674 0.999475 
0.032698 0.000905273 0.999471 
0.032884 0.00210529 0.999463 
0.0327214 0.00351338 0.999465 
0.0328217 0.00499354 0.999455 
0.0326733 0.00687974 0.999449 
0.032555 0.00912728 0.999435 
0.0321975 0.0120241 0.999416 
0.0318285 0.0156015 0.999378 
0.0315524 0.0200689 0.999307 
0.0311502 0.0257228 0.99919 
0.0308652 0.0328367 0.998991 
0.0305994 0.0420015 0.998655 
0.0301965 0.0535386 0.998116 
0.0301482 0.0686187 0.997194 
0.0310902 0.0893907 0.995518 
0.0323841 0.115199 0.992821 
0.0346055 0.146374 0.98863 
0.0409409 0.190231 0.980892 
0.0485422 0.242303 0.968993 
0.0560856 0.308453 0.949597 
0.0717493 0.349227 0.934286 
0.0890675 0.442305 0.892436 
0.131995 0.477026 0.868925 
0.0784422 0.637381 0.766545 
0.0507252 0.733743 0.677468 
0.0236141 0.981515 0.189731 
-0.0170313 0.972783 -0.230982 
-0.0936466 0.766882 -0.63488 
-0.0546228 0.741016 -0.669247 
-0.11384 0.560782 -0.820101 
-0.0965879 0.466343 -0.879324 
-0.0751441 0.414883 -0.90677 
-0.0717503 0.336494 -0.938954 
-0.053988 0.302181 -0.951727 
-0.0455163 0.24323 -0.968907 
-0.0377961 0.189072 -0.98125 
-0.0339997 0.144064 -0.988983 
-0.0320251 0.108403 -0.993599 
-0.0307925 0.0825365 -0.996117 
-0.0303566 0.0636542 -0.997518 
-0.0303092 0.049531 -0.998319 
-0.0302974 0.0386954 -0.998797 
-0.0308016 0.0301336 -0.999079 
-0.0309304 0.0236125 -0.999249 
-0.0317369 0.0183445 -0.999334 
-0.0322403 0.0142483 -0.999385 
-0.0322312 0.0108868 -0.999428 
-0.032309 0.00823721 -0.99945 
-0.0322881 0.00612919 -0.999466 
-0.0323837 0.00446385 -0.999472 
-0.032586 0.00301969 -0.999471 
-0.0327514 0.00172596 -0.999468 
-0.0328426 0.000474508 -0.999467 
-0.0329958 -0.000760912 -0.999462 
-0.0329065 -0.00216935 -0.999463 
-0.032497 -0.00393154 -0.999471 
-0.03192 -0.00585893 -0.99948 
-0.0312975 -0.00838701 -0.999482 
-0.0302859 -0.0121981 -0.999472 
-0.0302974 -0.0162979 -0.999416 
-0.0299078 -0.0222633 -0.999311 
-0.0270269 -0.0291157 -0.999217 
-0.0271819 -0.0354257 -0.999009 
-0.0236541 -0.0400349 -0.998923 
-0.0190404 -0.0300098 -0.999369 
-0.00737895 -0.0212812 -0.999688 
0.00573541 -0.0207418 0.999769 
0.0109112 -0.0268054 0.999596 
0.0200106 -0.0402921 0.998994 
0.0212736 -0.0340265 0.999201 
0.0198064 -0.0259294 0.999474 
0.0259897 -0.0224796 0.999416 
0.022526 -0.0183235 0.999585 
0.0251878 -0.0134512 0.999599 
0.0251891 -0.00951856 0.999644 
0.026784 -0.00643214 0.999627 
0.0255234 -0.00440367 0.999671 
0.0257366 -0.00252841 0.999672 
0.0255712 -0.000808874 0.999679 
0.0259784 0.000449753 0.999669 
0.0258038 0.00161233 0.999672 
0.0264654 0.0028284 0.999652 
0.0259261 0.00421855 0.999661 
0.0263007 0.00578852 0.999644 
0.025841 0.00776898 0.999642 
0.0258015 0.0102451 0.999621 
0.0254629 0.0133962 0.999593 
0.0253217 0.017333 0.999536 
0.0251819 0.0221989 0.999443 
0.0249867 0.028308 0.999293 
0.0252069 0.0360101 0.99904 
0.0253468 0.045573 0.998646 
0.0257484 0.0579748 0.997993 
0.0270671 0.0748798 0.996832 
0.0290721 0.0957227 0.99499 
0.032195 0.121596 0.992064 
0.0372789 0.155202 0.987186 
0.0490192 0.206293 0.977268 
0.0610918 0.262986 0.962869 
0.0809988 0.314724 0.945726 
0.101979 0.394346 0.91329 
0.147812 0.429393 0.890947 
0.122052 0.634247 0.76344 
0.095847 0.733556 0.672836 
0.0607805 0.824859 0.562033 
0.0451757 0.975274 0.216107 
-0.068035 0.905193 -0.419614 
-0.134315 0.690319 -0.710887 
-0.139492 0.506657 -0.850792 
-0.119901 0.424675 -0.897375 
-0.0939364 0.365724 -0.925976 
-0.0777295 0.295744 -0.952106 
-0.0600248 0.262754 -0.963001 
-0.0505862 0.215931 -0.975104 
-0.0422752 0.188914 -0.98109 
-0.0353996 0.147311 -0.988463 
-0.031248 0.113214 -0.993086 
-0.0283223 0.0877411 -0.995748 
-0.026515 0.0662615 -0.997457 
-0.0257256 0.0525351 -0.998294 
-0.0249279 0.0410598 -0.998852 
-0.0249839 0.0318517 -0.999187 
-0.0249203 0.025153 -0.99938 
-0.0253906 0.0195176 -0.999494 
-0.025691 0.0151727 -0.999561 
-0.0258241 0.0117063 -0.999604 
-0.0256017 0.00881227 -0.99964 
-0.0255758 0.00659296 -0.999658 
-0.0255101 0.00487173 -0.999669 
-0.02581 0.00344993 -0.999667 
-0.0258337 0.00216902 -0.99967 
-0.0261691 0.000959643 -0.999664 
-0.0263785 -0.000299162 -0.999659 
-0.0262739 -0.00172847 -0.99966 
-0.0261422 -0.0035168 -0.999659 
-0.0255084 -0.00562679 -0.999665 
-0.02489 -0.0081102 -0.999664 
-0.0245177 -0.0114857 -0.99964 
-0.0240433 -0.0160865 -0.999587 
-0.0239828 -0.0211609 -0.999496 
-0.0215631 -0.0291465 -0.999349 
-0.0208627 -0.0373896 -0.99909 
-0.0173935 -0.0397337 -0.999062 
-0.0131322 -0.0269906 -0.99956 
-0.00597695 -0.0216811 -0.999691 
0.00463931 -0.0209571 0.99973 
0.00800345 -0.0276768 0.9996 
0.0159578 -0.0384267 0.999136 
0.0145263 -0.0413557 0.999054 
0.0161109 -0.0343678 0.999286 
0.0166784 -0.0227277 0.999609 
0.0183203 -0.0161949 0.999708 
0.0193935 -0.0122542 0.999743 
0.0198044 -0.00827131 0.999776 
0.0197109 -0.00582615 0.999795 
0.0193087 -0.00356695 0.999814 
0.0196274 -0.00161739 0.999813 
0.0193999 -4.65443e-05 0.999818 
0.0194957 0.00114054 0.999816 
0.0196393 0.00233745 0.999811 
0.019857 0.00350485 0.999803 
0.019722 0.00492615 0.9998 
0.0197682 0.00661507 0.999789 
0.0194697 0.00887864 0.999777 
0.0194896 0.0116719 0.999748 
0.0194021 0.0152506 0.999702 
0.0193476 0.0196689 0.999626 
0.0193762 0.0251376 0.999503 
0.0196894 0.0321142 0.999297 
0.0200777 0.0406153 0.99898 
0.0208384 0.0515313 0.998461 
0.0225401 0.0662613 0.997554 
0.0248936 0.0845586 0.996114 
0.0285013 0.107424 0.993812 
0.0343499 0.136238 0.990087 
0.0433955 0.173207 0.983936 
0.0641683 0.239444 0.968795 
0.0855331 0.285885 0.954453 
0.0970256 0.285952 0.95332 
0.111587 0.354826 0.928248 
0.127577 0.347585 0.92894 
0.163972 0.57863 0.798951 
0.1512 0.727286 0.669471 
0.103112 0.923067 0.37054 
-0.0194561 0.992332 -0.121886 
-0.12786 0.819544 -0.558556 
-0.162631 0.60698 -0.777973 
-0.159479 0.466114 -0.870236 
-0.137092 0.386145 -0.912201 
-0.108877 0.343595 -0.932793 
-0.0861252 0.280571 -0.955968 
-0.0643104 0.236973 -0.969392 
-0.0480902 0.189543 -0.9807 
-0.0380161 0.155303 -0.987143 
-0.0316446 0.124059 -0.991776 
-0.0271618 0.0982253 -0.9948 
-0.0241488 0.0763165 -0.996798 
-0.0214406 0.0602885 -0.997957 
-0.0205827 0.0481366 -0.998635 
-0.0197912 0.0374936 -0.999107 
-0.0191568 0.0297935 -0.999379 
-0.019482 0.0233231 -0.999545 
-0.0195706 0.0182621 -0.999648 
-0.01962 0.0142347 -0.999713 
-0.0197261 0.0109181 -0.999752 
-0.0193985 0.00821657 -0.999785 
-0.0192836 0.00613488 -0.999802 
-0.0193253 0.00450011 -0.99981 
-0.0194885 0.0032181 -0.999811 
-0.0194389 0.00204375 -0.999815 
-0.0198698 0.000824276 -0.999809 
-0.0199225 -0.000462502 -0.999808 
-0.0198729 -0.00201922 -0.999807 
-0.0198042 -0.00403919 -0.999802 
-0.0190345 -0.00635466 -0.999805 
-0.0185601 -0.00912053 -0.999793 
-0.0188954 -0.0131111 -0.999743 
-0.0179482 -0.0178858 -0.999685 
-0.0180928 -0.0234979 -0.999566 
-0.0157651 -0.0309847 -0.999402 
-0.0162494 -0.037973 -0.999153 
-0.0134086 -0.0421412 -0.999027 
-0.010675 -0.0305872 -0.999477 
-0.00425005 -0.0213322 -0.999694 
0.00315688 -0.0214912 0.999699 
0.0059419 -0.0296119 0.999549 
0.0112576 -0.0406178 0.999105 
0.0107683 -0.0399142 0.999144 
0.0135685 -0.0303477 0.999454 
0.0116178 -0.0243819 0.999642 
0.013632 -0.0182727 0.999747 
0.0136686 -0.0133162 0.999824 
0.0150409 -0.00969574 0.999846 
0.0142586 -0.00670079 0.999882 
0.0146628 -0.00438031 0.999889 
0.0145189 -0.00206719 0.999899 
0.014502 -0.000403175 0.999901 
0.0141745 0.000941043 0.999906 
0.0144772 0.00206473 0.9999 
0.0143778 0.00315883 0.999898 
0.0147104 0.00429127 0.999889 
0.0143944 0.00580233 0.999886 
0.0144539 0.00772866 0.999872 
0.0143512 0.010286 0.999851 
0.0145183 0.0134284 0.999811 
0.0145224 0.0173538 0.99975 
0.0146463 0.0221718 0.999653 
0.0150885 0.0282862 0.999493 
0.0155513 0.0357324 0.999247 
0.0164117 0.0451072 0.998854 
0.0180391 0.0575144 0.998188 
0.0203168 0.0727955 0.997147 
0.0237167 0.0920081 0.995483 
0.0289665 0.116526 0.992772 
0.0374572 0.147325 0.988386 
0.0519813 0.193372 0.979754 
0.0692895 0.23127 0.970426 
0.0786421 0.242399 0.966992 
0.114437 0.300852 0.946788 
0.164311 0.398072 0.902521 
0.19038 0.506614 0.8409 
0.201978 0.682028 0.702851 
0.095713 0.843896 0.527886 
-0.0314339 0.990938 -0.130799 
-0.181469 0.750168 -0.635791 
-0.193651 0.56638 -0.801076 
-0.202572 0.505233 -0.838865 
-0.15631 0.388416 -0.908135 
-0.108734 0.3055 -0.945965 
-0.0811119 0.250872 -0.964624 
-0.0637892 0.218306 -0.9738 
-0.0494411 0.184689 -0.98156 
-0.0370402 0.147913 -0.988312 
-0.0298801 0.120109 -0.992319 
-0.0245734 0.0966151 -0.995025 
-0.0215635 0.0784955 -0.996688 
-0.018184 0.0620528 -0.997914 
-0.0164399 0.0489724 -0.998671 
-0.0158895 0.0392117 -0.999111 
-0.014733 0.0307912 -0.999424 
-0.0148694 0.0243568 -0.999599 
-0.0147897 0.0190879 -0.999715 
-0.0146441 0.0148273 -0.999789 
-0.0146276 0.0113549 -0.999835 
-0.0144458 0.00859836 -0.999865 
-0.0141849 0.00637351 -0.999886 
-0.0143018 0.00471113 -0.999893 
-0.0142671 0.00343997 -0.999899 
-0.0142619 0.0023528 -0.999902 
-0.0145851 0.00116961 -0.999899 
-0.014668 -9.6791e-05 -0.999899 
-0.0147092 -0.00163546 -0.999897 
-0.0148045 -0.00370946 -0.99989 
-0.0142539 -0.00615308 -0.999886 
-0.0138319 -0.00901245 -0.99987 
-0.0142645 -0.0128177 -0.999822 
-0.0133751 -0.0177182 -0.999761 
-0.0132736 -0.0237562 -0.999636 
-0.0115736 -0.0318076 -0.999434 
-0.0113391 -0.03992 -0.999145 
-0.00929959 -0.0424531 -0.999059 
-0.00753242 -0.0300913 -0.999524 
-0.00297173 -0.0223064 -0.999684 
0.00213323 -0.0221971 0.999676 
0.00404432 -0.0298091 0.999551 
0.008475 -0.043629 0.999023 
0.00750651 -0.0409348 0.99914 
0.00974306 -0.033184 0.999408 
0.00880765 -0.0246937 0.999663 
0.010179 -0.0179728 0.999792 
0.0101038 -0.0130754 0.999871 
0.0108483 -0.00921418 0.999905 
0.00993093 -0.00629177 0.999939 
0.0106932 -0.00370879 0.999942 
0.0102411 -0.00149685 0.999954 
0.0102607 0.000104198 0.999953 
0.00983051 0.00137745 0.999957 
0.010067 0.00242267 0.999953 
0.00992297 0.00340378 0.999951 
0.0102826 0.00453268 0.999942 
0.00989058 0.00602586 0.99994 
0.0101281 0.00811351 0.999922 
0.0100766 0.0107862 0.999897 
0.0103121 0.0140744 0.999854 
0.010427 0.0181071 0.999788 
0.0108288 0.0232116 0.999679 
0.0113389 0.0293919 0.99951 
0.0121501 0.0371957 0.999241 
0.0134817 0.047189 0.998802 
0.0153433 0.0595139 0.998116 
0.0181551 0.075134 0.997016 
0.0221685 0.0944588 0.995289 
0.0281444 0.118451 0.992567 
0.0394422 0.153081 0.987434 
0.0528444 0.188707 0.980617 
0.0555875 0.195519 0.97913 
0.078938 0.244344 0.966475 
0.107383 0.293013 0.950063 
0.15734 0.357121 0.920723 
0.210564 0.47104 0.856621 
0.254711 0.591926 0.764688 
0.18484 0.832927 0.52158 
0.0330106 0.994762 0.0966381 
-0.107471 0.933631 -0.341666 
-0.23812 0.668353 -0.704717 
-0.212212 0.464939 -0.859531 
-0.152393 0.353941 -0.922784 
-0.106691 0.289874 -0.951098 
-0.073116 0.235869 -0.969038 
-0.0574302 0.201487 -0.977815 
-0.0450488 0.171064 -0.984234 
-0.0361313 0.145058 -0.98877 
-0.0273629 0.115376 -0.992952 
-0.0213242 0.0914504 -0.995588 
-0.0176216 0.0728287 -0.997195 
-0.0144074 0.0571992 -0.998264 
-0.0126062 0.0455636 -0.998889 
-0.0119932 0.0366002 -0.999265 
-0.0109544 0.0287196 -0.999534 
-0.0109202 0.0227425 -0.999688 
-0.010631 0.0178623 -0.999791 
-0.0104432 0.0138388 -0.999856 
-0.0102615 0.0106255 -0.999897 
-0.0101341 0.00800837 -0.999923 
-0.00988708 0.00591206 -0.99994 
-0.0100114 0.00438906 -0.999947 
-0.0098361 0.00328495 -0.999952 
-0.0100008 0.00227918 -0.999954 
-0.0102068 0.00117757 -0.999954 
-0.0103194 -0.000111643 -0.999953 
-0.0104263 -0.00174091 -0.999951 
-0.0104631 -0.00387698 -0.999944 
-0.0102086 -0.00658411 -0.999933 
-0.0101658 -0.00985113 -0.999906 
-0.0104164 -0.013771 -0.999857 
-0.00963217 -0.0186497 -0.999786 
-0.0098951 -0.0243056 -0.999662 
-0.00861917 -0.032221 -0.99945 
-0.00831111 -0.0406728 -0.999144 
-0.0067451 -0.043252 -0.999045 
-0.00503061 -0.0289032 -0.999578 
-0.00233637 -0.0218258 -0.999692 
0.0015171 -0.0216999 0.999677 
0.00295811 -0.0321156 0.999482 
0.00597193 -0.0432111 0.999052 
0.00530058 -0.0415122 0.99913 
0.00719189 -0.0328085 0.999443 
0.00630633 -0.0251805 0.99967 
0.00741108 -0.0188907 0.999801 
0.00726147 -0.0136044 0.999887 
0.0074753 -0.0093589 0.999934 
0.00689385 -0.0061611 0.999964 