# vtk DataFile Version 3.0 
Exported using Morpho https://github.com/Morpho-lang/morpho 
ASCII 
DATASET UNSTRUCTURED_GRID 

POINTS 1978 float 
-8.48528 -2.82843 1.35406e-11 
-8.26812 -2.82843 -3.27516e-10 
-8.04374 -2.82843 -3.05248e-10 
-7.75296 -2.82843 -3.00134e-10 
-7.47729 -2.82843 -2.02992e-10 
-7.22102 -2.82843 -1.38545e-10 
-7.00033 -2.82843 -6.12801e-11 
-6.77865 -2.82843 -6.32004e-11 
-6.56033 -2.82843 -3.63004e-11 
-6.34265 -2.82843 -2.66657e-11 
-6.14264 -2.82843 -2.34675e-11 
-5.92863 -2.82843 -1.70225e-11 
-5.71498 -2.82843 -4.07958e-12 
-5.51206 -2.82843 -2.88594e-13 
-5.29489 -2.82843 2.73181e-12 
-5.08432 -2.82843 7.43986e-12 
-4.86741 -2.82843 1.17859e-11 
-4.66322 -2.82843 1.61437e-11 
-4.44475 -2.82843 2.25159e-11 
-4.23014 -2.82843 2.87317e-11 
-4.01179 -2.82843 3.39802e-11 
-3.80185 -2.82843 4.13186e-11 
-3.58519 -2.82843 5.19935e-11 
-3.37316 -2.82843 7.08236e-11 
-3.15062 -2.82843 8.65775e-11 
-2.94033 -2.82843 9.86852e-11 
-2.72921 -2.82843 1.03473e-10 
-2.53305 -2.82843 1.21992e-10 
-2.32168 -2.82843 1.55499e-10 
-2.11162 -2.82843 1.57905e-10 
-1.89913 -2.82843 1.35602e-10 
-1.6931 -2.82843 9.00039e-11 
-1.49275 -2.82843 4.63204e-11 
-1.27535 -2.82843 6.17737e-11 
-1.10014 -2.82843 -1.75172e-11 
-0.848589 -2.82843 5.71669e-11 
-0.63083 -2.82843 4.59127e-11 
-0.445798 -2.82843 2.25259e-10 
-0.235712 -2.82843 1.52008e-10 
0.0205774 -2.82843 -1.28097e-10 
0.230681 -2.82843 -4.6121e-10 
0.426369 -2.82843 2.45595e-10 
0.642601 -2.82843 -9.36096e-11 
0.873376 -2.82843 -9.31314e-11 
1.08275 -2.82843 -1.24038e-10 
1.26654 -2.82843 1.19576e-10 
1.44183 -2.82843 -1.65753e-10 
1.70128 -2.82843 -1.22392e-10 
1.88522 -2.82843 -1.05439e-10 
2.10257 -2.82843 -2.16213e-10 
2.33282 -2.82843 -1.34635e-10 
2.5222 -2.82843 -1.31889e-10 
2.74696 -2.82843 -1.40697e-10 
2.96586 -2.82843 -9.95875e-11 
3.17728 -2.82843 -7.16799e-11 
3.38482 -2.82843 -7.28808e-11 
3.61127 -2.82843 -5.1512e-11 
3.81404 -2.82843 -3.73393e-11 
4.02866 -2.82843 -3.89218e-11 
4.25432 -2.82843 -2.51081e-11 
4.45252 -2.82843 -1.82707e-11 
4.66453 -2.82843 -1.85922e-11 
4.87289 -2.82843 -1.03991e-11 
5.07474 -2.82843 -7.68166e-12 
5.29016 -2.82843 -4.37051e-12 
5.50069 -2.82843 1.14129e-12 
5.70393 -2.82843 4.83262e-12 
5.92225 -2.82843 1.47845e-11 
6.1427 -2.82843 1.74956e-11 
6.34129 -2.82843 3.45131e-11 
6.58077 -2.82843 5.28431e-11 
6.79042 -2.82843 4.10102e-11 
6.99166 -2.82843 9.23679e-11 
7.25182 -2.82843 1.29512e-10 
7.48143 -2.82843 1.28979e-10 
7.72454 -2.82843 2.20118e-10 
7.99521 -2.82843 2.10858e-10 
8.18278 -2.82843 3.8706e-10 
8.48528 -2.82843 4.32112e-11 
-8.48528 -2.60442 2.96696e-10 
-8.25391 -2.58302 1.54288e-09 
-8.02557 -2.58124 7.07698e-10 
-7.79053 -2.63056 8.23672e-10 
-7.51925 -2.63224 7.81545e-10 
-7.23553 -2.59916 7.7791e-10 
-6.99903 -2.60149 4.78112e-10 
-6.77909 -2.58677 4.00298e-10 
-6.54471 -2.60424 3.61213e-10 
-6.33209 -2.57525 2.42345e-10 
-6.10928 -2.59662 1.6017e-10 
-5.89189 -2.59201 1.2237e-10 
-5.68304 -2.57752 7.80573e-11 
-5.46564 -2.59467 2.71786e-11 
-5.24967 -2.5879 -1.15825e-11 
-5.03053 -2.59514 -5.12825e-11 
-4.82037 -2.58185 -8.50264e-11 
-4.60184 -2.59773 -1.4455e-10 
-4.38317 -2.59271 -1.77264e-10 
-4.16411 -2.59494 -2.33176e-10 
-3.95211 -2.58308 -2.7584e-10 
-3.73851 -2.58943 -3.69384e-10 
-3.52583 -2.58664 -4.44767e-10 
-3.30837 -2.60023 -5.96385e-10 
-3.09546 -2.59304 -6.83831e-10 
-2.8835 -2.599 -8.83239e-10 
-2.68147 -2.58821 -9.52376e-10 
-2.4731 -2.6084 -1.27448e-09 
-2.25751 -2.60465 -1.28644e-09 
-2.04677 -2.60739 -1.31545e-09 
-1.83275 -2.60012 -1.09463e-09 
-1.62294 -2.58895 -8.32062e-10 
-1.41855 -2.60097 -6.08713e-10 
-1.23835 -2.52537 3.91685e-10 
-1.01411 -2.63107 1.50163e-10 
-0.788073 -2.5863 6.42775e-10 
-0.593596 -2.5253 -2.77327e-10 
-0.385477 -2.5018 5.61968e-10 
-0.162942 -2.5565 3.06548e-10 
0.0243921 -2.45729 -2.03842e-11 
0.205737 -2.53311 1.96665e-09 
0.40989 -2.52036 -8.1475e-10 
0.616706 -2.57007 3.58037e-10 
0.844838 -2.57901 -2.66166e-10 
1.0664 -2.56818 -3.2853e-10 
1.2682 -2.56749 -3.35589e-11 
1.51411 -2.65536 1.31063e-09 
1.71984 -2.58536 6.17094e-10 
1.93672 -2.62018 1.39505e-09 
2.16614 -2.62513 1.50804e-09 
2.36638 -2.58081 9.19565e-10 
2.58177 -2.61772 1.22384e-09 
2.8039 -2.60678 9.45171e-10 
3.0129 -2.59344 7.51828e-10 
3.22088 -2.58509 5.95e-10 
3.44328 -2.60416 5.51941e-10 
3.65027 -2.57757 3.676e-10 
3.86457 -2.59131 3.22329e-10 
4.0917 -2.60357 2.79497e-10 
4.29958 -2.57341 1.8685e-10 
4.5143 -2.59196 1.55783e-10 
4.72842 -2.58827 1.13255e-10 
4.94021 -2.58271 6.93956e-11 
5.15481 -2.59764 2.9781e-11 
5.37373 -2.59199 -5.9108e-12 
5.58476 -2.58243 -5.33191e-11 
5.80094 -2.59752 -1.03526e-10 
6.02559 -2.59774 -1.49356e-10 
6.2387 -2.56975 -1.90168e-10 
6.45806 -2.61188 -3.24299e-10 
6.6851 -2.57813 -3.38313e-10 
6.8938 -2.56446 -4.08586e-10 
7.12017 -2.62345 -6.92628e-10 
7.36991 -2.59366 -6.68148e-10 
7.60741 -2.60482 -8.01963e-10 
7.86394 -2.62638 -1.00963e-09 
8.07754 -2.53379 -4.42008e-10 
8.30015 -2.64199 -1.58637e-09 
8.48528 -2.52582 -3.13e-10 
-8.48528 -2.36276 1.60304e-10 
-8.23691 -2.3499 4.7914e-10 
-7.99411 -2.34532 1.13505e-10 
-7.75607 -2.41204 1.2599e-10 
-7.56445 -2.24733 2.79901e-10 
-7.45657 -2.44375 2.56763e-10 
-7.17429 -2.38577 2.65177e-10 
-6.95027 -2.35585 2.09068e-10 
-6.70499 -2.37307 1.34484e-10 
-6.48309 -2.35488 1.09699e-10 
-6.2404 -2.35554 1.09415e-10 
-6.02398 -2.36056 7.36481e-11 
-5.8087 -2.34486 4.9165e-11 
-5.57984 -2.35147 2.80558e-11 
-5.36473 -2.35609 9.19188e-12 
-5.1403 -2.36011 -1.03296e-11 
-4.92754 -2.34763 -2.63423e-11 
-4.70337 -2.36036 -4.31994e-11 
-4.48571 -2.36393 -6.45557e-11 
-4.26279 -2.36242 -8.74072e-11 
-4.04913 -2.34748 -1.0579e-10 
-3.8319 -2.3471 -1.28324e-10 
-3.61938 -2.34881 -1.68172e-10 
-3.40097 -2.3624 -2.15074e-10 
-3.18962 -2.36306 -2.7655e-10 
-2.9738 -2.36712 -3.26373e-10 
-2.76754 -2.35606 -3.88256e-10 
-2.55541 -2.37259 -4.62724e-10 
-2.34728 -2.39013 -5.25481e-10 
-2.12555 -2.37681 -5.69431e-10 
-1.91551 -2.38219 -4.49904e-10 
-1.69244 -2.36745 -2.99416e-10 
-1.46977 -2.34834 -1.53114e-10 
-1.25952 -2.27337 -2.62639e-10 
-1.0343 -2.3974 5.50306e-10 
-0.838915 -2.31759 5.56919e-10 
-0.620213 -2.2529 7.33485e-10 
-0.414818 -2.18231 1.37391e-09 
-0.199133 -2.22583 7.55954e-10 
0.03732 -2.16148 -2.18367e-09 
0.26331 -2.21891 -1.77645e-09 
0.452292 -2.14844 -3.51669e-10 
0.617376 -2.28253 7.91604e-10 
0.823781 -2.32227 -1.56823e-09 
1.04997 -2.31766 -6.75361e-10 
1.26194 -2.31472 -4.78195e-10 
1.46712 -2.4415 2.00899e-10 
1.65738 -2.35736 2.60292e-10 
1.88097 -2.38894 4.5425e-10 
2.08864 -2.41686 5.65937e-10 
2.29648 -2.36191 5.72407e-10 
2.52478 -2.38498 4.86997e-10 
2.73209 -2.39338 4.09953e-10 
2.94858 -2.35875 3.34264e-10 
3.15248 -2.34788 2.72031e-10 
3.37052 -2.37101 2.25006e-10 
3.57655 -2.34001 1.73267e-10 
3.79067 -2.3483 1.34658e-10 
4.00767 -2.37412 1.0841e-10 
4.21671 -2.33907 8.65113e-11 
4.43825 -2.3494 6.55918e-11 
4.64859 -2.35097 4.65706e-11 
4.86131 -2.34794 3.08788e-11 
5.07995 -2.35601 1.72264e-11 
5.29109 -2.36494 -1.76451e-12 
5.50777 -2.34646 -1.96574e-11 
5.72639 -2.35752 -3.47377e-11 
5.94321 -2.3701 -5.44942e-11 
6.15888 -2.33935 -8.0594e-11 
6.39285 -2.3615 -1.11693e-10 
6.60132 -2.35983 -1.43633e-10 
6.82782 -2.31466 -1.64745e-10 
7.05786 -2.37086 -2.18698e-10 
7.27708 -2.39131 -2.77424e-10 
7.53898 -2.3719 -2.91386e-10 
7.78243 -2.40579 -2.06794e-10 
7.99841 -2.31083 -9.54948e-11 
8.26073 -2.3705 -6.56297e-10 
8.48528 -2.27865 -1.03583e-10 
-8.48528 -2.09215 1.38674e-10 
-8.27137 -2.11789 4.38525e-10 
-8.04188 -2.10412 9.73234e-12 
-7.79589 -2.15592 3.931e-11 
-7.5116 -2.0314 1.3269e-10 
-7.30799 -2.21917 2.29211e-10 
-7.06377 -2.1344 8.0324e-11 
-6.80446 -2.14308 1.02553e-10 
-6.58531 -2.12464 6.88366e-11 
-6.34729 -2.14016 6.50307e-11 
-6.12174 -2.11657 3.10782e-11 
-5.91488 -2.11222 2.54675e-11 
-5.68949 -2.12374 1.45059e-11 
-5.46778 -2.11331 5.20428e-12 
-5.25128 -2.12928 -5.32444e-12 
-5.0384 -2.11447 -1.16098e-11 
-4.81519 -2.12651 -1.46633e-11 
-4.59833 -2.129 -2.23976e-11 
-4.38046 -2.13413 -3.58246e-11 
-4.16896 -2.11619 -4.76077e-11 
-3.95317 -2.11132 -5.38183e-11 
-3.74002 -2.10897 -6.74897e-11 
-3.52428 -2.12287 -9.99331e-11 
-3.31469 -2.12652 -1.17594e-10 
-3.1021 -2.13553 -1.5454e-10 
-2.89573 -2.1278 -1.71028e-10 
-2.68038 -2.13399 -2.03139e-10 
-2.47106 -2.14704 -2.23574e-10 
-2.26041 -2.16785 -2.79283e-10 
-2.03804 -2.14158 -3.88236e-10 
-1.82283 -2.15796 -3.06906e-10 
-1.5979 -2.13294 -6.04278e-12 
-1.39031 -2.07087 4.06072e-10 
-1.17147 -1.94224 -1.81288e-11 
-1.06718 -2.13713 1.24002e-09 
-0.83164 -2.05851 -6.66347e-10 
-0.605217 -1.96195 1.89391e-09 
-0.342192 -1.89952 1.52688e-10 
-0.10577 -1.91415 7.41131e-10 
0.0596525 -1.64987 -9.39362e-12 
0.189818 -1.90018 -7.66498e-11 
0.313271 -1.61459 4.02166e-11 
0.461363 -1.89195 -8.11004e-11 
0.724759 -1.99606 -2.53776e-09 
0.945527 -2.07193 -5.26238e-10 
1.17628 -2.06649 -2.02999e-10 
1.44567 -2.18668 -6.19973e-11 
1.6764 -2.1232 1.76353e-10 
1.88931 -2.16912 4.85289e-10 
2.11169 -2.1837 3.38927e-10 
2.36238 -2.16065 2.7167e-10 
2.57357 -2.15129 2.46891e-10 
2.78027 -2.16012 2.42967e-10 
2.98613 -2.11098 1.52696e-10 
3.20684 -2.12687 1.52851e-10 
3.40811 -2.1219 1.045e-10 
3.62442 -2.10523 7.30712e-11 
3.84252 -2.12168 6.18952e-11 
4.04489 -2.12503 4.95184e-11 
4.27329 -2.11315 3.75042e-11 
4.48434 -2.109 2.28368e-11 
4.69771 -2.1125 1.24955e-11 
4.91673 -2.1199 1.01271e-11 
5.1304 -2.11849 6.89583e-12 
5.34167 -2.12888 -1.34625e-12 
5.56585 -2.11775 -1.08643e-11 
5.7833 -2.12606 -1.99988e-11 
5.99344 -2.12583 -3.27249e-11 
6.23499 -2.12589 -4.64068e-11 
6.44461 -2.10901 -5.59399e-11 
6.6581 -2.11569 -7.46107e-11 
6.91563 -2.10445 -8.28753e-11 
7.1322 -2.13312 -1.22985e-10 
7.3651 -2.17877 -1.9558e-10 
7.55927 -2.08363 -1.12662e-10 
7.74249 -2.17366 -8.91949e-11 
7.95765 -2.07614 1.17141e-10 
8.20482 -2.14673 -1.5939e-10 
8.48528 -2.08116 -6.6876e-11 
-8.48528 -1.80935 9.28333e-11 
-8.28861 -1.86658 2.27367e-10 
-7.89279 -1.90727 -2.63148e-10 
-7.6751 -1.90299 -6.4327e-11 
[...]
POINT_DATA 1978 
VECTORS vectors float
0.000619119 -0.00198122 0.999998 
0.00142415 -0.102229 0.99476 
0.00149635 -0.101042 0.994881 
0.00228149 -0.0794949 0.996833 
0.00187947 -0.0586558 0.998276 
0.00126127 -0.0454586 0.998965 
0.00103752 -0.036589 0.99933 
0.000829895 -0.0271248 0.999632 
0.000859426 -0.0196551 0.999806 
0.000791497 -0.0141194 0.9999 
0.000783679 -0.0107412 0.999942 
0.0007369 -0.00703363 0.999975 
0.000750471 -0.00285052 0.999996 
0.000804362 -0.000413083 1 
0.000790231 0.00131859 0.999999 
0.000809017 0.00325069 0.999994 
0.000809806 0.0052181 0.999986 
0.000839949 0.00708506 0.999975 
0.000838151 0.00929418 0.999956 
0.000854109 0.012137 0.999926 
0.000833984 0.0157562 0.999876 
0.000822461 0.0201481 0.999797 
0.000814511 0.0262452 0.999655 
0.000817306 0.0339901 0.999422 
0.000759537 0.0447798 0.998997 
0.000693543 0.0583058 0.998299 
0.000624099 0.0763437 0.997081 
0.00058765 0.0982596 0.995161 
0.000525729 0.128417 0.99172 
0.000475695 0.167041 0.98595 
0.000403649 0.216101 0.976371 
0.000308589 0.275446 0.961317 
0.00018057 0.346841 0.937924 
3.62238e-05 0.442367 0.896834 
-7.41128e-05 0.538388 0.842697 
-0.000111599 0.673356 0.739319 
-0.000177981 0.798426 0.602093 
-0.00015287 0.886745 0.462259 
-8.19604e-05 0.967204 0.254001 
-6.64127e-06 0.999596 -0.0284161 
9.34693e-05 0.967835 -0.251585 
0.0001438 0.898298 -0.439388 
0.000181295 0.795571 -0.60586 
0.000184119 0.662049 -0.74946 
2.80081e-05 0.539591 -0.841927 
-8.00128e-05 0.44702 -0.894524 
-0.000242453 0.367764 -0.929919 
-0.000346907 0.273475 -0.961879 
-0.000489487 0.22057 -0.975371 
-0.000521316 0.169828 -0.985474 
-0.000596439 0.126869 -0.991919 
-0.000715037 0.0999455 -0.994993 
-0.000705172 0.074787 -0.997199 
-0.000762766 0.0559451 -0.998434 
-0.0007809 0.0427452 -0.999086 
-0.00078278 0.0333011 -0.999445 
-0.000790614 0.0252998 -0.99968 
-0.000834099 0.0196811 -0.999806 
-0.000815485 0.0153698 -0.999882 
-0.000786657 0.0116762 -0.999932 
-0.00077645 0.00927804 -0.999957 
-0.000720992 0.00742072 -0.999972 
-0.000738868 0.00522689 -0.999986 
-0.000751948 0.0034351 -0.999994 
-0.000749834 0.0015417 -0.999999 
-0.000794254 -0.00060613 -1 
-0.000798322 -0.00277299 -0.999996 
-0.000816152 -0.0059317 -0.999982 
-0.000869439 -0.00975001 -0.999952 
-0.000858463 -0.0144008 -0.999896 
-0.000861816 -0.0212876 -0.999773 
-0.000930156 -0.0281398 -0.999604 
-0.00109809 -0.0354413 -0.999371 
-0.00128118 -0.046512 -0.998917 
-0.00132482 -0.0593493 -0.998236 
-0.00146124 -0.0770658 -0.997025 
-0.00143115 -0.100896 -0.994896 
-0.00178919 -0.104533 -0.99452 
-0.000929951 -0.00113041 -0.999999 
0.00137909 -0.000400326 0.999999 
0.0511202 -0.0826367 0.995268 
0.0558777 -0.0917552 0.994213 
0.0531157 -0.083454 0.995095 
0.0553271 -0.0644618 0.996385 
0.0599692 -0.0476678 0.997061 
0.0633182 -0.037197 0.9973 
0.0651448 -0.0286558 0.997464 
0.0655647 -0.0202159 0.997644 
0.0702823 -0.0152397 0.997411 
0.0686753 -0.0109938 0.997578 
0.0695247 -0.00682697 0.997557 
0.0721293 -0.00346561 0.997389 
0.0711062 -0.000809063 0.997468 
0.0724889 0.00126438 0.997368 
0.0720475 0.00341729 0.997395 
0.0738434 0.00552212 0.997255 
0.0717759 0.00790483 0.997389 
0.0716289 0.0106762 0.997374 
0.0703859 0.0140817 0.99742 
0.0703337 0.0182573 0.997356 
0.0682495 0.0234246 0.997393 
0.0669956 0.030142 0.997298 
0.0637021 0.0390287 0.997205 
0.0624211 0.0509735 0.996747 
0.059318 0.0665762 0.996017 
0.0570917 0.086343 0.994628 
0.0512164 0.111525 0.992441 
0.0457065 0.145738 0.988267 
0.0386606 0.18873 0.981268 
0.0308914 0.243351 0.969446 
0.0223743 0.308621 0.950922 
0.0125352 0.390415 0.920554 
0.00508213 0.478788 0.877916 
-0.00362255 0.594657 0.803971 
-0.00865745 0.715847 0.698203 
-0.0100737 0.814892 0.579525 
-0.00933381 0.907996 0.418874 
-0.00451726 0.980813 0.194899 
0.000289966 0.999901 -0.0140447 
0.00470828 0.97538 -0.220479 
0.00725791 0.909471 -0.415705 
0.00849037 0.81456 -0.580017 
0.00678178 0.688145 -0.725541 
0.00106034 0.561486 -0.827486 
-0.00685036 0.455649 -0.890133 
-0.0162405 0.34675 -0.937817 
-0.0265377 0.280194 -0.959577 
-0.0338428 0.216308 -0.975739 
-0.0414585 0.163679 -0.985642 
-0.0497474 0.129309 -0.990356 
-0.0520654 0.0977296 -0.99385 
-0.0572161 0.0734719 -0.995655 
-0.061145 0.0561517 -0.996548 
-0.0643449 0.043348 -0.996986 
-0.0647671 0.0329319 -0.997357 
-0.0688555 0.0259513 -0.997289 
-0.068934 0.0201049 -0.997419 
-0.0690791 0.0153118 -0.997494 
-0.0733319 0.0120167 -0.997235 
-0.0721963 0.00913972 -0.997349 
-0.073131 0.00663388 -0.9973 
-0.0739836 0.00426504 -0.99725 
-0.0718371 0.00214115 -0.997414 
-0.0721707 -9.25612e-05 -0.997392 
-0.0724563 -0.0024731 -0.997369 
-0.069838 -0.00522159 -0.997545 
-0.068765 -0.00880074 -0.997594 
-0.0703186 -0.013072 -0.997439 
-0.064865 -0.0183355 -0.997726 
-0.0672251 -0.0252724 -0.997418 
-0.0669223 -0.0325398 -0.997227 
-0.059681 -0.0414122 -0.997358 
-0.0603023 -0.0542346 -0.996706 
-0.0567446 -0.0694942 -0.995967 
-0.0531776 -0.0875448 -0.99474 
-0.0582768 -0.0921171 -0.994041 
-0.0489636 -0.0800441 -0.995588 
-0.00119523 -0.00122197 -0.999999 
0.000274783 -0.00143694 0.999999 
0.0554955 -0.0810331 0.995165 
0.0635711 -0.0915933 0.993765 
0.0640057 -0.0804732 0.9947 
0.0685703 -0.0694827 0.995224 
0.0672327 -0.0598004 0.995944 
0.0732201 -0.0455111 0.996277 
0.075848 -0.035681 0.996481 
0.0771472 -0.026794 0.99666 
0.0792136 -0.0199258 0.996659 
0.0815222 -0.0139807 0.996573 
0.0818761 -0.00977979 0.996595 
0.0830997 -0.00637461 0.996521 
0.0843022 -0.00326376 0.996435 
0.0850955 -0.000732398 0.996373 
0.0858049 0.00175902 0.99631 
0.0863965 0.00419551 0.996252 
0.0863591 0.00697044 0.99624 
0.085744 0.00988144 0.996268 
0.0845863 0.0133451 0.996327 
0.0831979 0.0175128 0.996379 
0.0811932 0.022616 0.996442 
0.0790967 0.0288495 0.996449 
0.0766023 0.0371652 0.996369 
0.074092 0.0480294 0.996094 
0.0708985 0.0628881 0.995499 
0.0672354 0.0817506 0.994382 
0.0623808 0.106086 0.992398 
0.0561995 0.136205 0.989085 
0.0480474 0.178185 0.982823 
0.0388242 0.229124 0.972623 
0.0279095 0.295753 0.954857 
0.0170836 0.375114 0.926821 
0.00696417 0.470655 0.88229 
-0.00154671 0.580502 0.814258 
-0.00723889 0.693765 0.720166 
-0.00996221 0.812277 0.583186 
-0.00920708 0.911555 0.411076 
-0.00642442 0.973658 0.227921 
-0.00226556 0.999976 -0.00651308 
0.00294409 0.969799 -0.243889 
0.00500083 0.891776 -0.452449 
0.00717538 0.798928 -0.601384 
0.00572747 0.689095 -0.724648 
0.000231269 0.568706 -0.822541 
-0.00791605 0.466146 -0.884673 
-0.0176096 0.372892 -0.927707 
-0.0265863 0.309389 -0.950564 
-0.0373543 0.239285 -0.970231 
-0.0462632 0.185609 -0.981534 
-0.0544402 0.146228 -0.987752 
-0.0611222 0.110024 -0.992048 
-0.0661303 0.0846044 -0.994218 
-0.0705291 0.0647706 -0.995405 
-0.0738187 0.0502588 -0.996004 
-0.0764962 0.0382907 -0.996334 
-0.0790126 0.0303859 -0.99641 
-0.081028 0.0237759 -0.996428 
-0.0825749 0.0183365 -0.996416 
-0.0844327 0.0144344 -0.996325 
-0.0855793 0.0108083 -0.996273 
-0.086334 0.00784594 -0.996235 
-0.086681 0.00506681 -0.996223 
-0.0863172 0.00237921 -0.996265 
-0.0857093 -1.74292e-05 -0.99632 
-0.0849711 -0.00262762 -0.99638 
-0.0838304 -0.00541292 -0.996465 
-0.0824913 -0.00854865 -0.996555 
-0.0813777 -0.012457 -0.996605 
-0.0798591 -0.0175266 -0.996652 
-0.0787194 -0.0233146 -0.996624 
-0.0769988 -0.0311469 -0.996545 
-0.0750328 -0.0401551 -0.996372 
-0.0725026 -0.0506132 -0.996083 
-0.0690561 -0.0666559 -0.995383 
-0.065756 -0.0830076 -0.994377 
-0.0637656 -0.09209 -0.993707 
-0.0548225 -0.0770188 -0.995521 
-0.000584083 -0.00110869 -0.999999 
0.000835256 -0.00154365 0.999998 
0.0473432 -0.0757633 0.996001 
0.055472 -0.0912191 0.994285 
0.0613023 -0.0848568 0.994506 
0.0609735 -0.0681163 0.995812 
0.0711849 -0.0541155 0.995994 
0.0692426 -0.0424039 0.996698 
0.0716542 -0.0308707 0.996952 
0.0730154 -0.0239439 0.997043 
0.0751149 -0.0174349 0.997022 
0.0740014 -0.0127629 0.997176 
0.0752607 -0.00929261 0.997121 
0.0769666 -0.00597253 0.997016 
0.0772186 -0.00311722 0.997009 
0.0790545 -0.000340921 0.99687 
0.0787954 0.00240773 0.996888 
0.0798936 0.00559846 0.996788 
0.0798043 0.00880806 0.996772 
0.0792072 0.0122565 0.996783 
0.0771894 0.0161964 0.996885 
0.0751628 0.0210053 0.99695 
0.072968 0.0267549 0.996975 
0.0714895 0.0341371 0.996857 
0.068958 0.0437185 0.996661 
0.066524 0.0565841 0.996179 
0.0628331 0.0732469 0.995333 
0.0587033 0.0954578 0.993701 
0.0539325 0.122949 0.990946 
0.0484492 0.157206 0.986377 
0.0394641 0.204226 0.978128 
0.0303292 0.262237 0.964527 
0.0189925 0.34051 0.940049 
0.00933806 0.425719 0.904807 
0.000198278 0.536389 0.843971 
-0.00130554 0.572684 0.819775 
-0.00697531 0.701014 0.713113 
-0.008802 0.82252 0.568668 
-0.00761125 0.925919 0.377645 
-0.00486774 0.990942 0.134202 
-0.00112295 0.997052 -0.0767193 
0.000595444 0.975044 -0.22201 
0.00287038 0.94123 -0.337753 
0.00460614 0.86384 -0.503746 
0.00534254 0.736635 -0.676269 
0.00287257 0.625632 -0.780113 
-0.00284505 0.516159 -0.856488 
-0.0143003 0.394763 -0.918672 
-0.0228897 0.312172 -0.94975 
-0.0340154 0.242407 -0.969578 
-0.0432589 0.187406 -0.98133 
-0.0510077 0.140173 -0.988812 
-0.0566436 0.108401 -0.992492 
-0.0621374 0.0834169 -0.994576 
-0.0638012 0.0651629 -0.995833 
-0.0680721 0.0493437 -0.996459 
-0.0701919 0.0388934 -0.996775 
-0.0717349 0.0305412 -0.996956 
-0.0748873 0.023847 -0.996907 
-0.0766139 0.0189366 -0.996881 
-0.0776296 0.0143872 -0.996878 
-0.0781955 0.0108081 -0.996879 
-0.0789958 0.00751355 -0.996847 
-0.0795723 0.00423111 -0.99682 
-0.0789708 0.00121949 -0.996876 
-0.0788772 -0.00149655 -0.996883 
-0.0772683 -0.00443149 -0.997 
-0.0766012 -0.00737299 -0.997035 
-0.0755808 -0.0105724 -0.997084 
-0.0743971 -0.0149858 -0.997116 
-0.07229 -0.0199111 -0.997185 
-0.0715757 -0.0260941 -0.997094 
-0.069376 -0.0356355 -0.996954 
-0.0690771 -0.0452431 -0.996585 
-0.0690359 -0.0576355 -0.995948 
-0.0626176 -0.071093 -0.995502 
-0.0637089 -0.0829079 -0.994519 
-0.0567047 -0.0942404 -0.993933 
-0.0525198 -0.0839472 -0.995085 
-0.000893354 -0.000967982 -0.999999 
0.000370819 -0.00157634 0.999999 
0.0355294 -0.0749904 0.996551 
0.0485544 -0.0939914 0.994388 
0.0510422 -0.0808316 0.99542 
0.048186 -0.064492 0.996754 
0.0606497 -0.0540325 0.996696 
0.0522734 -0.0471494 0.997519 
0.0603709 -0.0372 0.997483 
0.0579419 -0.0286213 0.99791 
0.061781 -0.0217024 0.997854 
0.0619361 -0.016506 0.997944 
0.059533 -0.0126566 0.998146 
0.0627499 -0.00912136 0.997988 
0.0638121 -0.00595802 0.997944 
0.0641998 -0.00284137 0.997933 
0.0649943 0.000109249 0.997886 
0.0659669 0.00365343 0.997815 
0.0661575 0.00723317 0.997783 
0.0661337 0.0109114 0.997751 
0.0644325 0.014753 0.997813 
0.062863 0.0191712 0.997838 
0.0608114 0.0243782 0.997852 
0.0596632 0.0308437 0.997742 
0.0577983 0.0389799 0.997567 
0.0558814 0.0499149 0.997189 
0.0531844 0.0638742 0.99654 
0.0500836 0.0824187 0.995339 
0.0458648 0.106145 0.993292 
0.0415368 0.135958 0.989843 
0.0366085 0.173724 0.984114 
0.027839 0.229044 0.973018 
0.0200517 0.295581 0.955107 
0.0110201 0.371582 0.928335 
0.0035551 0.461593 0.887085 
-0.00578079 0.657463 0.753465 
-0.00757443 0.768618 0.639663 
-0.00716685 0.875235 0.483644 
-0.00495518 0.935499 0.353294 
-0.00528217 0.97615 0.217031 
-0.00264021 0.999525 0.0307032 
0.00011156 0.968093 -0.250592 
0.00314513 0.885327 -0.464958 
0.00513009 0.812128 -0.583456 
0.00420773 0.697693 -0.716385 
0.00152088 0.591791 -0.80609 
-0.00204676 0.498312 -0.866996 
-0.00851738 0.423482 -0.905864 
-0.0128905 0.354644 -0.934913 
-0.0218824 0.276143 -0.960867 
-0.0310171 0.215551 -0.976 
-0.0391892 0.16468 -0.985568 
-0.0432725 0.124414 -0.991286 
-0.0486154 0.0953161 -0.994259 
-0.0507957 0.0752215 -0.995872 
-0.0548596 0.0566086 -0.996888 
-0.0562563 0.0441834 -0.997438 
-0.0583938 0.0348966 -0.997684 
-0.0609736 0.0271938 -0.997769 
-0.0619105 0.0216932 -0.997846 
-0.0646301 0.0169592 -0.997765 
-0.0639537 0.0127591 -0.997871 
-0.0647342 0.00897072 -0.997862 
-0.0658398 0.00525671 -0.997816 
-0.0651643 0.00174909 -0.997873 
-0.0648962 -0.00149269 -0.997891 
-0.0646936 -0.00438858 -0.997896 
-0.063119 -0.00763468 -0.997977 
-0.0618066 -0.0108587 -0.998029 
-0.0627024 -0.0143597 -0.997929 
-0.0586649 -0.0192597 -0.998092 
-0.0578344 -0.0250864 -0.998011 
-0.0588544 -0.0325429 -0.997736 
-0.0557153 -0.0437176 -0.997489 
-0.0573309 -0.0554242 -0.996816 
-0.0511144 -0.0708694 -0.996175 
-0.0501002 -0.0881587 -0.994846 
-0.0438698 -0.096492 -0.994367 
-0.0405565 -0.0808046 -0.995905 
-0.000367678 -0.00110857 -0.999999 
0.000314765 -0.00114169 0.999999 
0.0258796 -0.0793443 0.996511 
0.0402655 -0.0928969 0.994861 
0.0375546 -0.0955668 0.994714 
0.0398 -0.0810443 0.995916 
0.0412092 -0.0566757 0.997542 
0.0437524 -0.0413993 0.998184 
0.0465575 -0.0335095 0.998353 
0.0473554 -0.0248024 0.99857 
0.0486514 -0.0194899 0.998626 
0.0480214 -0.0154719 0.998726 
0.0485301 -0.0115622 0.998755 
0.0506258 -0.00834199 0.998683 
0.0518047 -0.00509266 0.998644 
0.0512358 -0.00181652 0.998685 
0.0532023 0.00182204 0.998582 
0.0531093 0.00577397 0.998572 
0.0530985 0.00976548 0.998542 
0.0518484 0.0136989 0.998561 
0.0506632 0.0180192 0.998553 
0.0492623 0.0229034 0.998523 
0.0482372 0.0289661 0.998416 
0.0466328 0.0365538 0.998243 
0.0452229 0.0466451 0.997887 
0.0429334 0.059905 0.99728 
0.0404607 0.0774125 0.996178 
0.0367919 0.100313 0.994275 
0.0325577 0.130503 0.990913 
0.0281827 0.16841 0.985314 
0.0226155 0.216866 0.975939 
0.0142779 0.292064 0.956292 
0.00618534 0.385495 0.922689 
-0.000761898 0.50426 0.863552 
-0.00457756 0.62589 0.779898 
-0.00356132 0.585926 0.810357 
-0.00637044 0.700415 0.713708 
-0.00611532 0.796128 0.605097 
-0.00332592 0.863242 0.504779 
-0.000280066 0.975781 0.218749 
-0.000976686 0.997757 -0.0669312 
0.00114912 0.998876 -0.047388 
0.00100235 0.955992 -0.293392 
0.00199412 0.871113 -0.491079 
0.00417467 0.754156 -0.656682 
0.00295589 0.629817 -0.776738 
0.000410551 0.516675 -0.856181 
-0.00484303 0.418673 -0.908124 
-0.0102704 0.331162 -0.943518 
-0.0173397 0.259743 -0.965522 
-0.0256597 0.20082 -0.979292 
-0.0314299 0.15451 -0.987491 
-0.0349534 0.116299 -0.992599 
-0.0373719 0.0921579 -0.995043 
-0.0420641 0.0694636 -0.996697 
-0.0437932 0.0538094 -0.99759 
-0.0450735 0.0420996 -0.998096 
-0.0479746 0.0328077 -0.99831 
-0.0486217 0.0263114 -0.998471 
-0.0499802 0.0208646 -0.998532 
-0.0520992 0.016323 -0.998509 
-0.0513196 0.0120365 -0.99861 
-0.0523956 0.00786319 -0.998595 
-0.0524336 0.00397351 -0.998617 
-0.0522826 0.000124979 -0.998632 
-0.0515251 -0.00327649 -0.998666 
-0.051913 -0.00638694 -0.998631 
-0.0498019 -0.00972508 -0.998712 
-0.0493219 -0.0131506 -0.998696 
-0.0488507 -0.0166556 -0.998667 
-0.0455199 -0.0217268 -0.998727 
-0.0453015 -0.0281423 -0.998577 
-0.0468271 -0.0364935 -0.998236 
-0.0419727 -0.0463161 -0.998045 
-0.0447572 -0.0569093 -0.997376 
-0.039763 -0.0728917 -0.996547 
-0.0397302 -0.0896568 -0.99518 
-0.0342186 -0.0990006 -0.994499 
-0.0296931 -0.080157 -0.99634 
-0.000496792 -0.00105093 -0.999999 
0.000263646 -0.000949108 1 
0.0204503 -0.0863025 0.996059 
0.0303718 -0.0987577 0.994648 
0.029088 -0.0918689 0.995346 
0.0339162 -0.0717636 0.996845 
0.0300598 -0.0593245 0.997786 
0.0348201 -0.0473566 0.998271 
0.0329275 -0.0367087 0.998783 
0.0376825 -0.0293611 0.998858 
0.0365874 -0.0228974 0.999068 
0.0372533 -0.0186164 0.999132 
0.0390339 -0.0145679 0.999132 
0.0388732 -0.0111026 0.999182 
0.0409648 -0.00780454 0.99913 
0.0415717 -0.00450305 0.999125 
0.0417949 -0.000556408 0.999126 
0.0429556 0.00337887 0.999071 
0.0427721 0.00765896 0.999055 
0.0417745 0.0116815 0.999059 
0.0410719 0.0158231 0.999031 
0.0401074 0.0202724 0.99899 
0.0394656 0.025459 0.998897 
0.0383459 0.031791 0.998759 
0.0371035 0.0400995 0.998507 
0.0356269 0.0509931 0.998063 
0.0336326 0.0657422 0.99727 
0.0310263 0.0847665 0.995918 
0.0276122 0.11049 0.993494 
0.0234842 0.144243 0.989264 
0.0191988 0.186806 0.982209 
0.0143417 0.244943 0.969431 
0.00733695 0.328262 0.944558 
0.00144115 0.433283 0.901257 
-0.0022105 0.53944 0.842021 
-0.00458647 0.735139 0.677901 
-0.00196203 0.860831 0.508887 
-0.00117714 0.932516 0.361127 
0.00191236 0.974199 0.225681 
-0.000245771 0.950912 0.309461 
-0.00120431 0.9886 0.150563 
-0.00184169 0.999981 -0.00582137 
-0.00364052 0.964056 -0.265676 
0.00150332 0.892381 -0.451279 
0.00402703 0.768761 -0.639523 
0.00412053 0.72716 -0.686455 
0.00411738 0.591917 -0.805989 
-0.00192126 0.420042 -0.907503 
-0.00614699 0.335833 -0.941901 
-0.0115946 0.262484 -0.964867 
-0.0183178 0.203935 -0.978813 
-0.0195889 0.171868 -0.984925 
-0.0256699 0.138469 -0.990034 
-0.0267163 0.10861 -0.993725 
-0.0316623 0.0817552 -0.996149 
-0.0340493 0.0629248 -0.997437 
-0.0354296 0.0486964 -0.998185 
-0.0377472 0.0375 -0.998583 
-0.0385492 0.0300357 -0.998805 
-0.0397857 0.0239457 -0.998921 
-0.040863 0.0188901 -0.998986 
-0.0419399 0.0146238 -0.999013 
-0.0419923 0.00991269 -0.999069 
-0.041923 0.00565632 -0.999105 
-0.042294 0.00133179 -0.999104 
-0.0415204 -0.00262467 -0.999134 
-0.0414609 -0.00620336 -0.999121 
-0.0404526 -0.00945447 -0.999137 
-0.0396144 -0.0130593 -0.99913 
-0.0380896 -0.0167301 -0.999134 
-0.0368634 -0.0207158 -0.999106 
-0.0352365 -0.02713 -0.999011 
-0.0361491 -0.0354148 -0.998719 
-0.032968 -0.0468398 -0.998358 
-0.0334988 -0.0610547 -0.997572 
-0.0293522 -0.0768479 -0.996611 
-0.0305176 -0.0915102 -0.995336 
-0.0257773 -0.101411 -0.994511 
-0.0240702 -0.0882063 -0.995811 
-0.000361538 -0.00103245 -0.999999 
0.000197733 -0.000927619 1 
0.0145625 -0.0878793 0.996025 
0.0232986 -0.101421 0.994571 
0.0207777 -0.0939535 0.99536 
0.0255102 -0.0782915 0.996604 
0.0231093 -0.0613798 0.997847 
0.0263438 -0.0462117 0.998584 
0.0249784 -0.0356568 0.999052 
0.0287141 -0.028123 0.999192 
0.0272931 -0.0229565 0.999364 
0.0297915 -0.0183443 0.999388 
0.0311634 -0.0145776 0.999408 
0.0310135 -0.0110896 0.999457 
0.0328677 -0.00764253 0.99943 
0.0340952 -0.00368372 0.999412 
0.0335851 0.000713828 0.999436 
0.0346759 0.00511696 0.999386 
0.0335851 0.00944764 0.999391 
0.0329602 0.0137672 0.999362 
0.0324012 0.0181533 0.99931 
0.0318936 0.0230356 0.999226 
0.0312275 0.0287726 0.999098 
0.0303009 0.0362332 0.998884 
0.0290616 0.0461701 0.998511 
0.027607 0.059508 0.997846 
0.0252934 0.0772003 0.996695 
0.0225879 0.100502 0.99468 
0.0190117 0.131818 0.991092 
0.0150396 0.173653 0.984692 
0.0113413 0.228047 0.973584 
0.00682418 0.298292 0.95445 
0.00167689 0.399187 0.916868 
-0.00116435 0.509845 0.860265 
-0.00195755 0.621075 0.783748 
-0.00313115 0.638624 0.769512 
-0.00152325 0.856838 0.515584 
0.00305117 0.946205 0.323553 
0.00341916 0.998523 0.0542282 
0.00264126 0.998538 0.0539955 
0.00114923 0.99994 0.0108931 
-0.000388817 0.999631 -0.0271754 
-0.00339508 0.993102 -0.117204 
-0.00309768 0.958338 -0.285621 
0.000596788 0.845874 -0.533383 
0.00550936 0.651365 -0.758745 
0.00468195 0.554453 -0.832202 
0.00236933 0.491585 -0.870826 
-0.000402822 0.394222 -0.919015 
-0.00431794 0.310802 -0.950465 
-0.00951227 0.238105 -0.971193 
-0.0141073 0.179839 -0.983595 
-0.0188685 0.134338 -0.990756 
-0.0225645 0.0975778 -0.994972 
-0.0256019 0.0752447 -0.996836 
-0.0275191 0.0578676 -0.997945 
-0.0295734 0.0439203 -0.998597 
-0.0303159 0.0348173 -0.998934 
-0.031432 0.027725 -0.999121 
-0.0323894 0.0222036 -0.999229 
-0.032688 0.0176045 -0.999311 
-0.0344432 0.0131947 -0.99932 
-0.0333949 0.00874768 -0.999404 
-0.0338574 0.00410162 -0.999418 
-0.0336177 -0.000323957 -0.999435 
-0.0334288 -0.00462234 -0.99943 
-0.0324914 -0.00819195 -0.999438 
-0.0322924 -0.0116627 -0.99941 
-0.0308683 -0.015219 -0.999408 
-0.029037 -0.0189428 -0.999399 
-0.0288878 -0.0234821 -0.999307 
-0.0263268 -0.0296373 -0.999214 
-0.0280204 -0.0366361 -0.998936 
-0.0245791 -0.046347 -0.998623 
-0.0258773 -0.0585535 -0.997949 
-0.0225695 -0.0747404 -0.996948 
-0.0220362 -0.0934561 -0.99538 
-0.0187796 -0.103053 -0.994499 
-0.0170283 -0.0850507 -0.996231 
-0.000148147 -0.0010132 -0.999999 
0.000134688 -0.000836496 1 
0.00955893 -0.0899731 0.995898 
0.0163071 -0.103482 0.994498 