# vtk DataFile Version 3.0 
Exported using Morpho https://github.com/Morpho-lang/morpho 
ASCII 
DATASET UNSTRUCTURED_GRID 

POINTS 1978 float 
-8.48528 -2.82843 -3.78636e-13 
-8.26812 -2.82843 1.81536e-12 
-8.04373 -2.82843 1.8323e-12 
-7.75296 -2.82843 1.63626e-12 
-7.47729 -2.82843 1.17922e-12 
-7.22102 -2.82843 8.08493e-13 
-7.00033 -2.82843 6.28148e-13 
-6.77865 -2.82843 4.48418e-13 
-6.56033 -2.82843 3.48241e-13 
-6.34265 -2.82843 2.39825e-13 
-6.14264 -2.82843 1.87828e-13 
-5.92863 -2.82843 1.32669e-13 
-5.71498 -2.82843 4.85809e-14 
-5.51206 -2.82843 1.33312e-15 
-5.29489 -2.82843 -1.94847e-14 
-5.08432 -2.82843 -6.39058e-14 
-4.86741 -2.82843 -9.18314e-14 
-4.66322 -2.82843 -1.40063e-13 
-4.44475 -2.82843 -1.7715e-13 
-4.23014 -2.82843 -2.31323e-13 
-4.01179 -2.82843 -2.79508e-13 
-3.80185 -2.82843 -3.50724e-13 
-3.58519 -2.82843 -4.39688e-13 
-3.37316 -2.82843 -5.71085e-13 
-3.15062 -2.82843 -6.918e-13 
-2.94033 -2.82843 -8.1838e-13 
-2.72922 -2.82843 -9.12557e-13 
-2.53305 -2.82843 -1.07839e-12 
-2.32168 -2.82843 -1.21789e-12 
-2.11162 -2.82843 -1.21978e-12 
-1.89913 -2.82843 -1.08543e-12 
-1.6931 -2.82843 -8.13674e-13 
-1.49275 -2.82843 -4.19718e-13 
-1.27535 -2.82843 -4.1815e-13 
-1.10014 -2.82843 1.51407e-13 
-0.848589 -2.82843 -7.35525e-13 
-0.630831 -2.82843 -2.8477e-13 
-0.445796 -2.82843 -1.60379e-12 
-0.235711 -2.82843 -1.58641e-12 
0.0205766 -2.82843 1.36986e-12 
0.230682 -2.82843 9.43434e-13 
0.426369 -2.82843 7.3122e-13 
0.642603 -2.82843 7.50495e-13 
0.873376 -2.82843 6.18258e-13 
1.08274 -2.82843 2.13868e-13 
1.26654 -2.82843 1.60631e-13 
1.44184 -2.82843 7.51618e-13 
1.70128 -2.82843 8.76612e-13 
1.88522 -2.82843 1.09036e-12 
2.10257 -2.82843 1.37172e-12 
2.33282 -2.82843 1.14847e-12 
2.5222 -2.82843 1.13718e-12 
2.74696 -2.82843 1.0439e-12 
2.96586 -2.82843 8.02916e-13 
3.17728 -2.82843 6.30549e-13 
3.38482 -2.82843 5.639e-13 
3.61127 -2.82843 4.3353e-13 
3.81404 -2.82843 3.3128e-13 
4.02866 -2.82843 2.95053e-13 
4.25432 -2.82843 2.19808e-13 
4.45252 -2.82843 1.61877e-13 
4.66453 -2.82843 1.44644e-13 
4.87289 -2.82843 9.59688e-14 
5.07474 -2.82843 5.86549e-14 
5.29016 -2.82843 3.23878e-14 
5.50069 -2.82843 -9.44496e-15 
5.70393 -2.82843 -5.47498e-14 
5.92225 -2.82843 -1.14354e-13 
6.1427 -2.82843 -1.5687e-13 
6.34129 -2.82843 -2.74202e-13 
6.58077 -2.82843 -3.76383e-13 
6.79042 -2.82843 -4.20925e-13 
6.99166 -2.82843 -6.55542e-13 
7.25182 -2.82843 -8.50698e-13 
7.48143 -2.82843 -9.58565e-13 
7.72454 -2.82843 -1.36501e-12 
7.99521 -2.82843 -1.5645e-12 
8.18278 -2.82843 -2.10298e-12 
8.48528 -2.82843 -2.36411e-13 
-8.48528 -2.60442 -8.69418e-14 
-8.25406 -2.58219 -1.36396e-12 
-8.01998 -2.58735 -1.11441e-12 
-7.78361 -2.63022 -1.09047e-12 
-7.52043 -2.62886 -1.03335e-12 
-7.24024 -2.61714 -7.07593e-13 
-6.98795 -2.58501 -5.81383e-13 
-6.76892 -2.59015 -3.68103e-13 
-6.54167 -2.59775 -3.76845e-13 
-6.33237 -2.57692 -2.35678e-13 
-6.11013 -2.59748 -1.6298e-13 
-5.89213 -2.59233 -1.20068e-13 
-5.68282 -2.57741 -8.10071e-14 
-5.46507 -2.59507 -2.86326e-14 
-5.24947 -2.58827 1.19246e-14 
-5.03076 -2.59514 5.36171e-14 
-4.82032 -2.5821 8.65627e-14 
-4.60189 -2.5979 1.44752e-13 
-4.38331 -2.59285 1.82685e-13 
-4.1646 -2.5954 2.41423e-13 
-3.95296 -2.58385 2.84645e-13 
-3.73966 -2.59066 3.78851e-13 
-3.52713 -2.58828 4.6749e-13 
-3.30973 -2.6014 6.16734e-13 
-3.09666 -2.59376 7.1846e-13 
-2.88479 -2.59885 8.91073e-13 
-2.68272 -2.58726 9.56208e-13 
-2.47383 -2.60727 1.26334e-12 
-2.25861 -2.60276 1.26751e-12 
-2.04782 -2.60545 1.29445e-12 
-1.83397 -2.5992 1.14369e-12 
-1.62369 -2.58848 8.4983e-13 
-1.41858 -2.59944 6.51636e-13 
-1.24119 -2.5207 -5.74791e-13 
-1.01613 -2.62895 -3.04891e-13 
-0.789961 -2.58227 -3.26155e-13 
-0.585988 -2.52904 3.30456e-14 
-0.378958 -2.50125 -6.03587e-13 
-0.159712 -2.55802 -5.42726e-13 
0.0240196 -2.45191 4.13703e-13 
0.204758 -2.53486 -5.66024e-13 
0.415536 -2.51458 -5.22656e-13 
0.616582 -2.57008 -4.16417e-13 
0.842094 -2.57738 4.00227e-13 
1.06837 -2.57374 3.93231e-13 
1.27432 -2.55385 5.58823e-14 
1.51765 -2.65515 -1.27892e-12 
1.71921 -2.58199 -6.54133e-13 
1.93545 -2.61926 -1.34935e-12 
2.16614 -2.62427 -1.48495e-12 
2.36889 -2.58039 -9.68207e-13 
2.58392 -2.61817 -1.23201e-12 
2.80601 -2.60619 -9.74954e-13 
3.01469 -2.5932 -7.62387e-13 
3.22273 -2.58588 -6.14954e-13 
3.4447 -2.60516 -5.63322e-13 
3.65164 -2.57836 -3.83201e-13 
3.8656 -2.59217 -3.32772e-13 
4.09206 -2.60409 -2.82099e-13 
4.29944 -2.57393 -1.92722e-13 
4.51386 -2.59243 -1.56514e-13 
4.72758 -2.58821 -1.1287e-13 
4.93922 -2.58312 -7.29942e-14 
5.15386 -2.59753 -3.07931e-14 
5.37285 -2.5925 6.68467e-15 
5.58408 -2.58298 5.22621e-14 
5.80052 -2.59792 1.04177e-13 
6.02522 -2.59832 1.54573e-13 
6.23856 -2.57034 1.98236e-13 
6.45805 -2.61207 3.3272e-13 
6.68483 -2.5789 3.57441e-13 
6.89375 -2.56497 4.31764e-13 
7.12055 -2.6241 7.58886e-13 
7.3704 -2.59397 7.64783e-13 
7.60759 -2.60498 9.30244e-13 
7.86414 -2.62685 1.18923e-12 
8.07801 -2.53409 6.34965e-13 
8.30151 -2.64284 1.69142e-12 
8.48528 -2.52582 1.10039e-13 
-8.48528 -2.36275 5.39906e-14 
-8.23941 -2.34937 -2.95054e-13 
-7.99701 -2.3495 -1.6954e-13 
-7.75681 -2.40947 -2.04898e-13 
-7.56544 -2.24387 -2.67707e-13 
-7.45571 -2.44098 -3.92366e-13 
-7.18328 -2.39921 -3.22423e-13 
-6.94729 -2.34616 -2.47384e-13 
-6.70478 -2.3743 -1.51e-13 
-6.4852 -2.35207 -1.30024e-13 
-6.24338 -2.35718 -1.22047e-13 
-6.02606 -2.36067 -8.31894e-14 
-5.81084 -2.34433 -5.72821e-14 
-5.58204 -2.3516 -3.27017e-14 
-5.3666 -2.35637 -1.1242e-14 
-5.1418 -2.35983 9.09604e-15 
-4.92786 -2.34781 2.7879e-14 
-4.70322 -2.35976 4.68774e-14 
-4.48561 -2.36361 7.04348e-14 
-4.26275 -2.36211 9.6212e-14 
-4.04957 -2.34792 1.1535e-13 
-3.83266 -2.34836 1.4221e-13 
-3.62068 -2.35082 1.84781e-13 
-3.40282 -2.36414 2.35127e-13 
-3.19156 -2.36444 3.00593e-13 
-2.9755 -2.36674 3.58785e-13 
-2.76925 -2.3548 4.17186e-13 
-2.55598 -2.37088 5.06296e-13 
-2.34707 -2.38637 5.91192e-13 
-2.12521 -2.37426 6.09351e-13 
-1.9151 -2.37906 5.19605e-13 
-1.69465 -2.36504 3.2381e-13 
-1.47351 -2.34631 1.95873e-13 
-1.25941 -2.27062 -4.13971e-14 
-1.03731 -2.39105 -5.7907e-13 
-0.831934 -2.32163 -8.08729e-13 
-0.622689 -2.25317 -8.53006e-13 
-0.41516 -2.19195 -1.14278e-12 
-0.194969 -2.22588 -4.38003e-13 
0.0475514 -2.15818 7.04936e-13 
0.272451 -2.21957 2.13622e-12 
0.451051 -2.13636 2.82004e-13 
0.609756 -2.27909 -6.03115e-13 
0.816357 -2.31164 1.60788e-12 
1.04432 -2.32324 8.09667e-13 
1.26262 -2.30024 2.71648e-13 
1.46994 -2.43763 -2.40397e-13 
1.65468 -2.35116 -3.05705e-13 
1.87736 -2.38746 -5.21024e-13 
2.0874 -2.41399 -6.52092e-13 
2.29755 -2.36279 -6.41609e-13 
2.52798 -2.38339 -5.32812e-13 
2.73259 -2.39302 -4.5081e-13 
2.95061 -2.35794 -3.7114e-13 
3.15352 -2.34829 -2.99611e-13 
3.37176 -2.37152 -2.51096e-13 
3.57762 -2.34165 -1.90947e-13 
3.79203 -2.34925 -1.46556e-13 
4.00851 -2.37427 -1.21838e-13 
4.21728 -2.33913 -9.30085e-14 
4.43824 -2.34967 -7.17464e-14 
4.64842 -2.35056 -5.12446e-14 
4.86124 -2.34758 -3.27239e-14 
5.07951 -2.35574 -1.87909e-14 
5.29128 -2.36476 2.96135e-15 
5.50804 -2.34677 2.18916e-14 
5.72677 -2.35797 3.91286e-14 
5.94395 -2.37022 6.27674e-14 
6.15972 -2.33975 8.94714e-14 
6.3935 -2.36177 1.23935e-13 
6.60234 -2.35968 1.61578e-13 
6.82827 -2.31543 1.79715e-13 
7.05853 -2.37153 2.48079e-13 
7.27785 -2.39147 3.1734e-13 
7.5394 -2.37137 3.24637e-13 
7.78269 -2.40598 2.61987e-13 
7.99845 -2.31083 1.22709e-13 
8.2615 -2.37065 4.03548e-13 
8.48528 -2.27865 -1.38128e-14 
-8.48528 -2.09215 4.55113e-14 
-8.27101 -2.11114 -2.27917e-13 
-8.04203 -2.10607 1.74443e-14 
-7.79732 -2.15779 -5.59662e-14 
-7.50769 -2.02826 -1.30769e-13 
-7.30505 -2.21669 -2.2531e-13 
-7.0618 -2.13471 -6.36589e-14 
-6.8045 -2.14685 -1.13418e-13 
-6.5885 -2.12369 -7.77632e-14 
-6.35182 -2.14119 -6.89579e-14 
-6.12263 -2.11636 -3.38057e-14 
-5.91499 -2.11139 -2.94538e-14 
-5.6895 -2.12381 -1.50358e-14 
-5.46804 -2.11437 -3.873e-15 
-5.25132 -2.12914 5.95124e-15 
-5.03736 -2.11509 1.46043e-14 
-4.81362 -2.12628 1.85904e-14 
-4.59634 -2.12814 2.84595e-14 
-4.37879 -2.13375 4.12943e-14 
-4.16747 -2.11575 5.62594e-14 
-3.95229 -2.11245 6.15747e-14 
-3.73989 -2.11051 7.87418e-14 
-3.52528 -2.12474 1.1076e-13 
-3.31614 -2.12823 1.29634e-13 
-3.10369 -2.13652 1.65106e-13 
-2.89707 -2.12621 1.91217e-13 
-2.68142 -2.13283 2.16808e-13 
-2.47185 -2.1439 2.365e-13 
-2.26101 -2.1635 3.32458e-13 
-2.0398 -2.13962 3.80179e-13 
-1.82168 -2.15431 3.10263e-13 
-1.59477 -2.13053 -1.16807e-13 
-1.38331 -2.06824 -1.01436e-13 
-1.17297 -1.95259 -6.18923e-13 
-1.04523 -2.13361 -4.44773e-13 
-0.820345 -2.05035 -7.65356e-13 
-0.592986 -1.9655 -5.31774e-13 
-0.332609 -1.90616 -4.1006e-13 
-0.103176 -1.91988 -2.67164e-13 
0.0539234 -1.64804 1.62277e-14 
0.182032 -1.89139 7.25114e-13 
0.311181 -1.60885 -2.00367e-13 
0.450736 -1.88163 7.10699e-13 
0.715606 -1.99046 2.33622e-12 
0.938787 -2.06228 5.26359e-13 
1.16844 -2.05943 1.69535e-13 
1.44271 -2.17995 -2.46244e-14 
1.67099 -2.12145 -1.94699e-13 
1.88852 -2.16579 -4.55773e-13 
2.11174 -2.17919 -3.96883e-13 
2.3653 -2.16457 -2.43529e-13 
2.57338 -2.14467 -2.43275e-13 
2.78288 -2.16371 -2.67729e-13 
2.98725 -2.10831 -1.59914e-13 
3.20761 -2.12733 -1.58341e-13 
3.40906 -2.12231 -1.16549e-13 
3.62578 -2.10775 -7.29989e-14 
3.84328 -2.12211 -6.99121e-14 
4.04553 -2.12531 -5.29316e-14 
4.2732 -2.11277 -4.19045e-14 
4.4838 -2.10913 -2.59062e-14 
4.69731 -2.11223 -1.39587e-14 
4.91594 -2.11888 -1.24817e-14 
5.13015 -2.11881 -7.15866e-15 
5.34166 -2.12851 2.00863e-15 
5.56567 -2.11784 1.11261e-14 
5.78332 -2.1266 2.11082e-14 
5.99391 -2.12599 3.54594e-14 
6.23491 -2.12564 4.92464e-14 
6.44499 -2.10977 5.93216e-14 
6.65833 -2.11514 8.17666e-14 
6.91507 -2.10496 8.5071e-14 
7.13182 -2.13329 1.29219e-13 
7.36471 -2.17818 2.01761e-13 
7.55836 -2.08263 1.15557e-13 
7.74164 -2.17346 9.04924e-14 
7.95714 -2.07633 -1.05656e-13 
8.20509 -2.14671 8.26833e-14 
8.48528 -2.08116 -1.42149e-14 
-8.48528 -1.80935 4.99473e-14 
-8.29201 -1.85354 -7.00997e-14 
-7.8951 -1.90752 2.29669e-13 
[...]
POINT_DATA 1978 
VECTORS vectors float
9.55445e-05 -0.00162079 0.999999 
2.04276e-05 -0.102226 0.994761 
-0.000560635 -0.101041 0.994882 
-0.000603823 -0.0794951 0.996835 
-0.000526396 -0.0586562 0.998278 
-0.00029601 -0.0454588 0.998966 
-8.36521e-05 -0.0365891 0.99933 
-0.000101188 -0.0271249 0.999632 
-3.46423e-05 -0.0196552 0.999807 
-2.28126e-05 -0.0141195 0.9999 
2.30328e-06 -0.0107412 0.999942 
-3.883e-05 -0.00703364 0.999975 
-1.53331e-05 -0.0028506 0.999996 
-5.23108e-06 -0.00041314 1 
-3.66696e-05 0.00131858 0.999999 
-2.82043e-05 0.00325068 0.999995 
-2.37295e-05 0.00521809 0.999986 
-1.76399e-05 0.00708507 0.999975 
-4.73255e-05 0.00929422 0.999957 
-3.86284e-05 0.012137 0.999926 
-3.60394e-05 0.0157563 0.999876 
-3.11392e-05 0.0201482 0.999797 
-3.63551e-05 0.0262453 0.999656 
-3.54069e-05 0.0339902 0.999422 
-3.87172e-05 0.04478 0.998997 
-1.58137e-05 0.0583061 0.998299 
8.04212e-07 0.076344 0.997082 
1.10722e-05 0.0982599 0.995161 
-1.41487e-05 0.128418 0.99172 
-8.41152e-06 0.167041 0.98595 
-3.0902e-06 0.216101 0.976371 
9.01638e-06 0.275446 0.961316 
2.22663e-06 0.346841 0.937924 
-7.80339e-06 0.442368 0.896834 
-5.17476e-06 0.538389 0.842697 
1.95649e-05 0.673357 0.739318 
-1.94207e-05 0.798426 0.602093 
-1.45797e-05 0.886745 0.462258 
7.14926e-06 0.967204 0.254002 
-4.41928e-07 0.999596 -0.0284153 
1.06323e-05 0.967835 -0.251585 
1.53579e-06 0.898298 -0.439387 
-9.52058e-06 0.795571 -0.60586 
1.41025e-05 0.66205 -0.74946 
-9.04625e-06 0.539591 -0.841927 
-3.0741e-06 0.447021 -0.894524 
1.27309e-05 0.367765 -0.929919 
2.65208e-05 0.273475 -0.961879 
-2.74437e-05 0.220571 -0.975371 
5.42002e-05 0.169829 -0.985474 
1.62484e-05 0.126869 -0.991919 
-1.4911e-05 0.0999458 -0.994993 
6.74301e-05 0.0747873 -0.9972 
2.82245e-05 0.0559453 -0.998434 
1.17839e-05 0.0427454 -0.999086 
4.40447e-05 0.0333013 -0.999445 
3.99926e-05 0.0252999 -0.99968 
1.93935e-06 0.0196812 -0.999806 
5.5069e-05 0.0153699 -0.999882 
2.71178e-05 0.0116763 -0.999932 
-1.07756e-05 0.00927809 -0.999957 
2.72005e-05 0.0074207 -0.999972 
-3.99448e-06 0.00522689 -0.999986 
7.2936e-06 0.00343508 -0.999994 
3.36065e-05 0.00154166 -0.999999 
-2.77281e-06 -0.000606169 -1 
2.19145e-05 -0.00277306 -0.999996 
6.06192e-05 -0.00593177 -0.999982 
5.36935e-06 -0.00975009 -0.999952 
5.8646e-05 -0.0144009 -0.999896 
9.07964e-05 -0.0212877 -0.999773 
1.63656e-05 -0.0281399 -0.999604 
0.000148376 -0.0354413 -0.999372 
0.000219411 -0.0465121 -0.998918 
0.000223244 -0.0593495 -0.998237 
0.000339135 -0.0770659 -0.997026 
0.000232503 -0.100896 -0.994897 
8.42588e-05 -0.104532 -0.994522 
5.31596e-05 -0.000742821 -1 
0.00124012 2.51333e-05 0.999999 
0.0511159 -0.0826338 0.995268 
0.0558754 -0.0917545 0.994213 
0.0531131 -0.0834533 0.995095 
0.0553242 -0.0644615 0.996385 
0.0599666 -0.0476678 0.997062 
0.0633156 -0.0371969 0.9973 
0.0651425 -0.0286558 0.997464 
0.0655621 -0.020216 0.997644 
0.0702799 -0.0152397 0.997411 
0.0686726 -0.0109938 0.997579 
0.0695222 -0.006827 0.997557 
0.0721269 -0.00346566 0.997389 
0.0711034 -0.000809093 0.997469 
0.0724864 0.00126437 0.997369 
0.0720449 0.00341728 0.997396 
0.0738409 0.00552212 0.997255 
0.0717731 0.00790483 0.99739 
0.0716263 0.0106763 0.997374 
0.0703833 0.0140817 0.997421 
0.0703313 0.0182574 0.997357 
0.068247 0.0234246 0.997393 
0.0669932 0.030142 0.997298 
0.0636996 0.0390288 0.997206 
0.0624188 0.0509737 0.996747 
0.0593158 0.0665763 0.996017 
0.0570897 0.0863431 0.994628 
0.0512143 0.111525 0.992441 
0.0457047 0.145739 0.988267 
0.038659 0.18873 0.981268 
0.0308901 0.243351 0.969446 
0.0223734 0.308622 0.950922 
0.0125347 0.390415 0.920554 
0.00508212 0.478787 0.877916 
-0.00362218 0.594656 0.803972 
-0.0086569 0.715847 0.698204 
-0.0100733 0.814893 0.579524 
-0.00933343 0.907997 0.418872 
-0.00451691 0.980813 0.194897 
0.000290073 0.999901 -0.0140437 
0.0047081 0.975381 -0.220476 
0.00725764 0.90947 -0.415705 
0.00848972 0.81456 -0.580018 
0.00678122 0.688144 -0.725542 
0.00106014 0.561485 -0.827486 
-0.00685019 0.455649 -0.890133 
-0.0162395 0.346751 -0.937817 
-0.0265368 0.280194 -0.959577 
-0.0338412 0.216308 -0.975739 
-0.0414566 0.163679 -0.985642 
-0.0497458 0.129309 -0.990356 
-0.0520631 0.0977298 -0.99385 
-0.0572138 0.0734721 -0.995655 
-0.0611428 0.0561519 -0.996548 
-0.0643426 0.0433481 -0.996986 
-0.0647645 0.032932 -0.997357 
-0.0688533 0.0259514 -0.997289 
-0.0689314 0.0201049 -0.997419 
-0.0690764 0.0153119 -0.997494 
-0.0733296 0.0120167 -0.997235 
-0.0721936 0.00913973 -0.997349 
-0.0731284 0.00663389 -0.9973 
-0.0739811 0.00426505 -0.997251 
-0.0718344 0.00214114 -0.997414 
-0.0721681 -9.25739e-05 -0.997392 
-0.0724538 -0.00247312 -0.997369 
-0.0698354 -0.00522162 -0.997545 
-0.0687624 -0.00880075 -0.997594 
-0.0703164 -0.013072 -0.997439 
-0.0648622 -0.0183355 -0.997726 
-0.0672228 -0.0252724 -0.997418 
-0.0669202 -0.0325399 -0.997228 
-0.0596782 -0.0414123 -0.997358 
-0.0602999 -0.0542347 -0.996706 
-0.0567422 -0.0694942 -0.995967 
-0.0531749 -0.0875444 -0.99474 
-0.058275 -0.092116 -0.994042 
-0.0489583 -0.0800396 -0.995589 
-0.00103343 -0.000500859 -0.999999 
0.000197701 -0.000704032 1 
0.055493 -0.0810301 0.995166 
0.06357 -0.0915922 0.993765 
0.0640049 -0.0804729 0.9947 
0.0685694 -0.0694825 0.995224 
0.0672319 -0.0598006 0.995944 
0.073219 -0.0455112 0.996277 
0.0758469 -0.035681 0.996481 
0.0771462 -0.026794 0.99666 
0.0792126 -0.0199258 0.996659 
0.0815211 -0.0139808 0.996574 
0.0818751 -0.00977983 0.996595 
0.0830986 -0.00637463 0.996521 
0.0843011 -0.00326378 0.996435 
0.0850944 -0.000732409 0.996373 
0.0858038 0.00175901 0.996311 
0.0863954 0.00419551 0.996252 
0.086358 0.00697043 0.99624 
0.0857429 0.00988145 0.996268 
0.0845852 0.0133451 0.996327 
0.0831968 0.0175128 0.996379 
0.0811922 0.022616 0.996442 
0.0790957 0.0288495 0.996449 
0.0766013 0.0371653 0.996369 
0.0740911 0.0480295 0.996094 
0.0708976 0.0628882 0.995499 
0.0672345 0.0817507 0.994382 
0.0623799 0.106086 0.992398 
0.0561986 0.136206 0.989085 
0.0480466 0.178185 0.982823 
0.0388236 0.229124 0.972623 
0.0279091 0.295753 0.954857 
0.0170833 0.375114 0.926821 
0.00696399 0.470656 0.882289 
-0.00154672 0.580502 0.814257 
-0.00723875 0.693764 0.720166 
-0.00996209 0.812277 0.583187 
-0.00920692 0.911553 0.411079 
-0.00642423 0.973659 0.22792 
-0.00226555 0.999976 -0.00651697 
0.00294399 0.969797 -0.243894 
0.00500042 0.891776 -0.45245 
0.00717505 0.79893 -0.601381 
0.00572715 0.689096 -0.724647 
0.000231173 0.568707 -0.82254 
-0.00791592 0.466146 -0.884672 
-0.0176093 0.372893 -0.927707 
-0.0265859 0.309389 -0.950564 
-0.0373537 0.239285 -0.970231 
-0.0462625 0.185609 -0.981534 
-0.0544393 0.146228 -0.987752 
-0.0611213 0.110025 -0.992048 
-0.0661293 0.0846045 -0.994218 
-0.0705282 0.0647707 -0.995405 
-0.0738178 0.0502588 -0.996005 
-0.0764952 0.0382908 -0.996334 
-0.0790116 0.0303859 -0.99641 
-0.081027 0.0237759 -0.996428 
-0.0825739 0.0183365 -0.996416 
-0.0844316 0.0144344 -0.996325 
-0.0855782 0.0108083 -0.996273 
-0.0863329 0.00784593 -0.996235 
-0.0866799 0.00506681 -0.996223 
-0.0863161 0.00237921 -0.996265 
-0.0857082 -1.74329e-05 -0.99632 
-0.08497 -0.00262763 -0.99638 
-0.0838293 -0.00541292 -0.996465 
-0.0824903 -0.00854866 -0.996555 
-0.0813767 -0.012457 -0.996606 
-0.079858 -0.0175266 -0.996652 
-0.0787183 -0.0233146 -0.996624 
-0.0769978 -0.0311469 -0.996545 
-0.0750318 -0.0401551 -0.996372 
-0.0725016 -0.0506132 -0.996083 
-0.0690552 -0.0666559 -0.995384 
-0.065755 -0.0830072 -0.994377 
-0.0637646 -0.0920888 -0.993707 
-0.0548195 -0.0770156 -0.995522 
-0.000492451 -0.000564361 -1 
0.000733279 -0.00060362 1 
0.0473409 -0.07576 0.996002 
0.0554714 -0.0912179 0.994285 
0.0613018 -0.0848563 0.994506 
0.060973 -0.0681162 0.995812 
0.0711841 -0.0541155 0.995994 
0.0692421 -0.0424038 0.996698 
0.0716537 -0.0308708 0.996952 
0.0730149 -0.0239439 0.997043 
0.0751143 -0.0174349 0.997022 
0.0740011 -0.0127629 0.997176 
0.0752602 -0.00929261 0.997121 
0.0769661 -0.00597253 0.997016 
0.0772182 -0.00311721 0.997009 
0.079054 -0.000340905 0.99687 
0.078795 0.00240775 0.996888 
0.0798931 0.00559846 0.996788 
0.0798038 0.00880806 0.996772 
0.0792066 0.0122565 0.996783 
0.0771889 0.0161964 0.996885 
0.0751623 0.0210053 0.99695 
0.0729676 0.026755 0.996975 
0.071489 0.0341371 0.996857 
0.0689577 0.0437185 0.996661 
0.0665236 0.0565841 0.996179 
0.0628327 0.0732469 0.995333 
0.0587029 0.0954578 0.993701 
0.0539321 0.122949 0.990946 
0.0484487 0.157206 0.986377 
0.0394637 0.204226 0.978128 
0.0303289 0.262238 0.964527 
0.0189924 0.34051 0.940049 
0.009338 0.425719 0.904807 
0.000198302 0.536388 0.843972 
-0.00130557 0.572685 0.819775 
-0.00697524 0.701015 0.713112 
-0.00880173 0.82252 0.568668 
-0.00761096 0.92592 0.377642 
-0.00486781 0.990942 0.134202 
-0.00112303 0.997052 -0.0767168 
0.000594947 0.975045 -0.222007 
0.00287049 0.94123 -0.337753 
0.00460596 0.863843 -0.50374 
0.00534238 0.736637 -0.676267 
0.00287252 0.625633 -0.780113 
-0.002845 0.516159 -0.856488 
-0.0143002 0.394763 -0.918672 
-0.0228895 0.312172 -0.94975 
-0.034015 0.242407 -0.969578 
-0.0432585 0.187406 -0.98133 
-0.0510073 0.140173 -0.988812 
-0.0566432 0.108401 -0.992492 
-0.0621369 0.083417 -0.994576 
-0.0638008 0.0651629 -0.995833 
-0.0680716 0.0493438 -0.996459 
-0.0701915 0.0388935 -0.996775 
-0.0717345 0.0305412 -0.996956 
-0.0748869 0.023847 -0.996907 
-0.0766134 0.0189366 -0.996881 
-0.0776291 0.0143872 -0.996878 
-0.0781951 0.0108081 -0.996879 
-0.0789953 0.00751353 -0.996847 
-0.0795718 0.00423111 -0.99682 
-0.0789703 0.0012195 -0.996876 
-0.0788767 -0.00149655 -0.996883 
-0.0772678 -0.00443149 -0.997001 
-0.0766008 -0.00737299 -0.997035 
-0.0755803 -0.0105724 -0.997084 
-0.0743966 -0.0149858 -0.997116 
-0.0722896 -0.0199111 -0.997185 
-0.0715752 -0.0260941 -0.997094 
-0.0693756 -0.0356355 -0.996954 
-0.0690766 -0.045243 -0.996585 
-0.0690353 -0.0576354 -0.995948 
-0.0626172 -0.0710929 -0.995502 
-0.0637084 -0.0829074 -0.994519 
-0.0567042 -0.0942392 -0.993933 
-0.0525181 -0.0839447 -0.995085 
-0.000802813 -0.000484784 -1 
0.000304763 -0.00067488 1 
0.0355275 -0.0749866 0.996551 
0.0485542 -0.0939902 0.994388 
0.0510421 -0.0808313 0.99542 
0.0481859 -0.0644919 0.996754 
0.0606494 -0.0540324 0.996696 
0.0522733 -0.0471494 0.997519 
0.0603706 -0.0372 0.997483 
0.0579419 -0.0286213 0.99791 
0.0617808 -0.0217024 0.997854 
0.0619359 -0.016506 0.997944 
0.0595331 -0.0126566 0.998146 
0.0627498 -0.00912134 0.997988 
0.0638119 -0.00595801 0.997944 
0.0641997 -0.00284136 0.997933 
0.0649941 0.000109263 0.997886 
0.0659667 0.00365343 0.997815 
0.0661574 0.00723315 0.997783 
0.0661335 0.0109113 0.997751 
0.0644323 0.014753 0.997813 
0.0628629 0.0191712 0.997838 
0.0608113 0.0243782 0.997852 
0.0596631 0.0308437 0.997742 
0.0577982 0.0389799 0.997567 
0.0558813 0.0499149 0.997189 
0.0531843 0.0638742 0.99654 
0.0500834 0.0824187 0.995339 
0.0458647 0.106145 0.993292 
0.0415367 0.135958 0.989843 
0.0366084 0.173724 0.984114 
0.0278389 0.229044 0.973018 
0.0200516 0.295581 0.955107 
0.0110201 0.371582 0.928335 
0.00355498 0.461594 0.887084 
-0.00578072 0.657462 0.753466 
-0.00757426 0.768618 0.639663 
-0.00716673 0.875236 0.483643 
-0.00495541 0.9355 0.353293 
-0.00528209 0.976151 0.217029 
-0.00264022 0.999525 0.0306992 
0.00011139 0.968094 -0.250589 
0.00314493 0.885324 -0.464963 
0.00513036 0.81213 -0.583455 
0.00420787 0.697693 -0.716385 
0.0015209 0.591791 -0.80609 
-0.00204683 0.498311 -0.866996 
-0.00851739 0.423482 -0.905865 
-0.0128905 0.354644 -0.934912 
-0.0218823 0.276143 -0.960867 
-0.0310169 0.215551 -0.976 
-0.0391891 0.16468 -0.985568 
-0.0432723 0.124415 -0.991286 
-0.0486152 0.0953162 -0.994259 
-0.0507956 0.0752217 -0.995872 
-0.0548595 0.0566086 -0.996888 
-0.0562562 0.0441834 -0.997438 
-0.0583937 0.0348966 -0.997684 
-0.0609735 0.0271938 -0.997769 
-0.0619103 0.0216931 -0.997846 
-0.0646299 0.0169592 -0.997765 
-0.0639536 0.0127591 -0.997871 
-0.0647341 0.00897071 -0.997862 
-0.0658396 0.00525671 -0.997816 
-0.0651642 0.00174911 -0.997873 
-0.0648961 -0.00149267 -0.997891 
-0.0646935 -0.00438857 -0.997896 
-0.0631188 -0.00763466 -0.997977 
-0.0618065 -0.0108587 -0.998029 
-0.0627022 -0.0143597 -0.997929 
-0.0586648 -0.0192597 -0.998092 
-0.0578343 -0.0250864 -0.998011 
-0.0588543 -0.032543 -0.997736 
-0.0557151 -0.0437176 -0.997489 
-0.0573307 -0.0554242 -0.996816 
-0.0511143 -0.0708692 -0.996175 
-0.0501001 -0.0881581 -0.994846 
-0.0438695 -0.0964905 -0.994367 
-0.0405549 -0.0808014 -0.995905 
-0.000303902 -0.000532415 -1 
0.000272787 -0.000510494 1 
0.0258785 -0.0793408 0.996512 
0.0402652 -0.0928955 0.994861 
0.0375545 -0.0955657 0.994714 
0.0398 -0.081044 0.995916 
0.0412091 -0.0566757 0.997542 
0.0437524 -0.0413993 0.998184 
0.0465575 -0.0335095 0.998353 
0.0473554 -0.0248024 0.99857 
0.0486514 -0.0194899 0.998626 
0.0480213 -0.0154719 0.998726 
0.0485301 -0.0115622 0.998755 
0.0506257 -0.00834196 0.998683 
0.0518046 -0.00509263 0.998644 
0.0512358 -0.00181649 0.998685 
0.0532022 0.00182206 0.998582 
0.0531093 0.00577397 0.998572 
0.0530985 0.00976547 0.998542 
0.0518484 0.0136989 0.998561 
0.0506631 0.0180192 0.998553 
0.0492623 0.0229034 0.998523 
0.0482372 0.0289661 0.998416 
0.0466327 0.0365538 0.998243 
0.0452229 0.0466452 0.997887 
0.0429333 0.0599051 0.99728 
0.0404607 0.0774126 0.996178 
0.0367919 0.100313 0.994275 
0.0325577 0.130503 0.990913 
0.0281826 0.16841 0.985314 
0.0226154 0.216866 0.975939 
0.0142778 0.292064 0.956292 
0.00618532 0.385496 0.922689 
-0.000761875 0.504258 0.863552 
-0.00457744 0.625888 0.7799 
-0.00356134 0.585926 0.810356 
-0.00637037 0.700414 0.713708 
-0.00611538 0.796133 0.605091 
-0.00332582 0.86324 0.504782 
-0.000279856 0.975779 0.218757 
-0.00097642 0.997756 -0.0669461 
0.00114967 0.998876 -0.0473789 
0.00100267 0.955992 -0.29339 
0.00199375 0.871114 -0.491077 
0.00417459 0.754152 -0.656686 
0.00295587 0.629816 -0.776739 
0.000410562 0.516676 -0.856181 
-0.00484306 0.418673 -0.908124 
-0.0102706 0.331161 -0.943518 
-0.0173397 0.259742 -0.965522 
-0.0256597 0.200819 -0.979292 
-0.0314297 0.15451 -0.987491 
-0.0349534 0.116299 -0.992599 
-0.0373718 0.0921581 -0.995043 
-0.0420641 0.0694637 -0.996697 
-0.0437932 0.0538095 -0.99759 
-0.0450735 0.0420997 -0.998096 
-0.0479746 0.0328078 -0.99831 
-0.0486217 0.0263114 -0.998471 
-0.0499802 0.0208646 -0.998532 
-0.0520992 0.016323 -0.998509 
-0.0513196 0.0120365 -0.99861 
-0.0523956 0.00786318 -0.998595 
-0.0524336 0.00397351 -0.998617 
-0.0522826 0.000125007 -0.998632 
-0.051525 -0.00327647 -0.998666 
-0.0519129 -0.00638692 -0.998631 
-0.0498019 -0.00972506 -0.998712 
-0.0493219 -0.0131506 -0.998696 
-0.0488507 -0.0166556 -0.998667 
-0.0455199 -0.0217268 -0.998727 
-0.0453015 -0.0281423 -0.998577 
-0.0468271 -0.0364936 -0.998236 
-0.0419727 -0.0463161 -0.998045 
-0.0447571 -0.0569093 -0.997376 
-0.039763 -0.0728915 -0.996547 
-0.0397301 -0.0896562 -0.99518 
-0.0342184 -0.0989991 -0.994499 
-0.0296918 -0.0801534 -0.99634 
-0.000439006 -0.000515755 -1 
0.000231856 -0.00047656 1 
0.0204496 -0.0862993 0.996059 
0.0303716 -0.0987562 0.994648 
0.0290879 -0.0918682 0.995346 
0.0339162 -0.0717636 0.996845 
0.0300599 -0.0593245 0.997786 
0.0348201 -0.0473566 0.998271 
0.0329275 -0.0367087 0.998783 
0.0376825 -0.0293612 0.998858 
0.0365875 -0.0228974 0.999068 
0.0372533 -0.0186164 0.999132 
0.0390339 -0.0145679 0.999132 
0.0388732 -0.0111026 0.999182 
0.0409648 -0.00780452 0.99913 
0.0415717 -0.00450303 0.999125 
0.0417948 -0.000556396 0.999126 
0.0429555 0.00337887 0.999071 
0.0427721 0.00765893 0.999055 
0.0417745 0.0116815 0.999059 
0.0410719 0.015823 0.999031 
0.0401074 0.0202724 0.99899 
0.0394655 0.025459 0.998897 
0.0383459 0.0317911 0.998759 
0.0371035 0.0400995 0.998507 
0.0356269 0.0509932 0.998063 
0.0336326 0.0657422 0.99727 
0.0310263 0.0847666 0.995918 
0.0276121 0.110491 0.993494 
0.0234842 0.144243 0.989264 
0.0191988 0.186806 0.982209 
0.0143417 0.244943 0.969431 
0.00733696 0.328263 0.944558 
0.0014412 0.433282 0.901257 
-0.00221039 0.539439 0.842022 
-0.00458646 0.735137 0.677903 
-0.00196176 0.860836 0.508878 
-0.00117749 0.932516 0.361128 
0.00191322 0.974195 0.225698 
-0.000245227 0.950916 0.30945 
-0.00120501 0.988601 0.150557 
-0.00184123 0.999981 -0.00581473 
-0.00364113 0.964057 -0.265671 
0.00150307 0.892383 -0.451276 
0.00402682 0.768766 -0.639518 
0.00412001 0.727162 -0.686453 
0.0041172 0.591918 -0.805988 
-0.00192137 0.420041 -0.907503 
-0.00614698 0.335834 -0.941901 
-0.0115945 0.262485 -0.964866 
-0.0183176 0.203936 -0.978813 
-0.0195892 0.171867 -0.984925 
-0.0256699 0.138469 -0.990034 
-0.0267163 0.10861 -0.993725 
-0.0316623 0.0817552 -0.996149 
-0.0340493 0.0629249 -0.997437 
-0.0354296 0.0486963 -0.998185 
-0.0377472 0.0375 -0.998583 
-0.0385492 0.0300357 -0.998805 
-0.0397856 0.0239457 -0.998921 
-0.0408629 0.0188901 -0.998986 
-0.0419399 0.0146238 -0.999013 
-0.0419922 0.00991266 -0.999069 
-0.041923 0.00565631 -0.999105 
-0.0422939 0.0013318 -0.999104 
-0.0415204 -0.00262464 -0.999134 
-0.0414609 -0.00620334 -0.999121 
-0.0404526 -0.00945445 -0.999137 
-0.0396144 -0.0130593 -0.99913 
-0.0380896 -0.0167301 -0.999134 
-0.0368634 -0.0207158 -0.999106 
-0.0352365 -0.02713 -0.999011 
-0.036149 -0.0354148 -0.998719 
-0.032968 -0.0468398 -0.998358 
-0.0334988 -0.0610547 -0.997572 
-0.0293522 -0.0768477 -0.996611 
-0.0305176 -0.0915096 -0.995336 
-0.0257773 -0.10141 -0.994511 
-0.0240696 -0.0882035 -0.995812 
-0.000318563 -0.000523522 -1 
0.000173805 -0.000489765 1 
0.0145621 -0.0878761 0.996025 
0.0232985 -0.10142 0.994571 
0.0207776 -0.0939529 0.99536 
0.0255102 -0.0782912 0.996604 
0.0231092 -0.0613798 0.997847 
0.0263438 -0.0462117 0.998584 
0.0249784 -0.0356568 0.999052 
0.0287141 -0.028123 0.999192 
0.0272931 -0.0229565 0.999364 
0.0297914 -0.0183443 0.999388 
0.0311633 -0.0145775 0.999408 
0.0310135 -0.0110895 0.999457 
0.0328677 -0.00764249 0.99943 
0.0340952 -0.00368369 0.999412 
0.0335851 0.00071384 0.999436 
0.0346758 0.00511695 0.999386 
0.033585 0.00944762 0.999391 
0.0329602 0.0137671 0.999362 
0.0324012 0.0181533 0.99931 
0.0318936 0.0230356 0.999226 
0.0312275 0.0287726 0.999098 
0.0303009 0.0362332 0.998884 
0.0290616 0.0461701 0.998511 
0.027607 0.0595081 0.997846 
0.0252934 0.0772003 0.996695 
0.0225878 0.100502 0.99468 
0.0190117 0.131818 0.991092 
0.0150396 0.173653 0.984692 
0.0113413 0.228047 0.973584 
0.00682421 0.298292 0.95445 
0.00167696 0.399186 0.916868 
-0.00116428 0.509845 0.860266 
-0.0019575 0.621074 0.78375 
-0.00313118 0.638626 0.769511 
-0.00152337 0.856835 0.515589 
0.00305123 0.946215 0.323523 
0.00341919 0.998523 0.0542282 
0.00264094 0.998537 0.054007 
0.00114921 0.99994 0.0108926 
-0.000389084 0.999631 -0.0271786 
-0.00339517 0.993102 -0.117205 
-0.00309722 0.958339 -0.285616 
0.0005962 0.845874 -0.533382 
0.00550916 0.651366 -0.758744 
0.00468185 0.554451 -0.832203 
0.00236925 0.491585 -0.870826 
-0.000402818 0.394223 -0.919015 
-0.00431792 0.310802 -0.950465 
-0.00951239 0.238104 -0.971193 
-0.0141072 0.17984 -0.983595 
-0.0188684 0.134338 -0.990756 
-0.0225645 0.0975781 -0.994972 
-0.0256017 0.0752449 -0.996836 
-0.0275191 0.0578677 -0.997945 
-0.0295733 0.0439204 -0.998597 
-0.0303158 0.0348174 -0.998934 
-0.031432 0.027725 -0.999121 
-0.0323893 0.0222036 -0.999229 
-0.0326879 0.0176045 -0.999311 
-0.0344431 0.0131947 -0.99932 
-0.0333948 0.00874764 -0.999404 
-0.0338574 0.00410161 -0.999418 
-0.0336176 -0.00032394 -0.999435 
-0.0334287 -0.00462231 -0.99943 
-0.0324914 -0.00819193 -0.999438 
-0.0322924 -0.0116627 -0.99941 
-0.0308683 -0.015219 -0.999408 
-0.029037 -0.0189428 -0.999399 
-0.0288878 -0.0234821 -0.999307 
-0.0263268 -0.0296374 -0.999214 
-0.0280203 -0.0366361 -0.998936 
-0.024579 -0.046347 -0.998623 
-0.0258773 -0.0585534 -0.997949 
-0.0225695 -0.0747403 -0.996948 
-0.0220361 -0.0934555 -0.99538 
-0.0187795 -0.103051 -0.994499 
-0.0170277 -0.0850471 -0.996231 
-0.000123523 -0.000500154 -1 
0.000118259 -0.000431524 1 
0.00955873 -0.0899698 0.995899 
0.016307 -0.103481 0.994498 
0.0148674 -0.0947 0.995395 
0.0186179 -0.0762674 0.996914 