# vtk DataFile Version 3.0 
Exported using Morpho https://github.com/Morpho-lang/morpho 
ASCII 
DATASET UNSTRUCTURED_GRID 

POINTS 1978 float 
-12 -4 -1.94246e-15 
-11.6393 -4 4.25798e-14 
-11.2865 -4 -5.61106e-14 
-10.9605 -4 -1.62869e-13 
-10.6516 -4 -1.39717e-13 
-10.3203 -4 1.3195e-14 
-9.99234 -4 1.43697e-13 
-9.67072 -4 1.63968e-13 
-9.32629 -4 1.32161e-13 
-8.98917 -4 7.03849e-14 
-8.6828 -4 2.79227e-14 
-8.36801 -4 2.79143e-15 
-8.06262 -4 1.35929e-14 
-7.7669 -4 4.09281e-14 
-7.46765 -4 7.11756e-14 
-7.1753 -4 8.75559e-14 
-6.86568 -4 7.77961e-14 
-6.57121 -4 2.84753e-14 
-6.27721 -4 -2.83079e-14 
-5.97992 -4 -8.7027e-14 
-5.67251 -4 -1.1648e-13 
-5.36632 -4 -8.08236e-14 
-5.0752 -4 3.60762e-14 
-4.777 -4 2.98536e-13 
-4.48795 -4 7.83444e-13 
-4.19107 -4 1.68802e-12 
-3.87741 -4 3.29155e-12 
-3.54971 -4 5.82754e-12 
-3.22225 -4 8.93228e-12 
-2.89255 -4 1.30828e-11 
-2.52871 -4 1.60029e-11 
-2.20758 -4 1.82261e-11 
-1.93306 -4 1.65972e-11 
-1.66049 -4 1.62367e-11 
-1.38742 -4 1.60136e-11 
-1.1065 -4 1.36619e-11 
-0.800321 -4 9.23383e-12 
-0.649428 -4 -1.45131e-12 
-0.430565 -4 -2.92151e-12 
0.0207842 -4 5.19194e-12 
0.258273 -4 1.69203e-12 
0.570461 -4 1.54048e-12 
0.868756 -4 -6.22764e-12 
1.08367 -4 -1.7078e-11 
1.46425 -4 -1.48158e-11 
1.63916 -4 -1.24247e-11 
1.88478 -4 -1.61047e-11 
2.20291 -4 -1.69252e-11 
2.52546 -4 -1.6433e-11 
2.90297 -4 -1.42228e-11 
3.27773 -4 -9.48265e-12 
3.62636 -4 -5.49863e-12 
3.92726 -4 -3.19638e-12 
4.21014 -4 -1.64974e-12 
4.50116 -4 -8.60888e-13 
4.78467 -4 -3.13304e-13 
5.08532 -4 -3.69373e-14 
5.3842 -4 8.5876e-14 
5.68861 -4 9.17233e-14 
5.9856 -4 6.23731e-14 
6.28641 -4 4.08327e-14 
6.58478 -4 2.66305e-14 
6.8909 -4 -5.51258e-17 
7.16913 -4 -3.47391e-14 
7.45426 -4 -7.67802e-14 
7.75114 -4 -1.0303e-13 
8.05379 -4 -1.0619e-13 
8.35596 -4 -9.38706e-14 
8.65807 -4 -7.70261e-14 
8.95476 -4 -6.57685e-14 
9.30288 -4 -5.49548e-14 
9.61439 -4 -6.41663e-14 
9.89672 -4 -8.69532e-14 
10.2516 -4 -3.16566e-14 
10.5682 -4 1.06355e-13 
10.9838 -4 1.56084e-13 
11.3075 -4 2.22127e-14 
11.637 -4 -6.30222e-14 
12 -4 3.18843e-15 
-12 -3.67642 -2.28463e-15 
-11.6671 -3.66775 1.39238e-14 
-11.3367 -3.65956 -4.5055e-14 
-11.011 -3.64579 -4.46876e-15 
-10.6968 -3.64356 -1.25836e-14 
-10.387 -3.67413 -3.89237e-15 
-10.055 -3.66303 -4.83527e-14 
-9.73377 -3.65606 -9.23988e-14 
-9.40692 -3.6742 -8.77373e-14 
-9.07184 -3.67004 -7.40488e-14 
-8.75118 -3.65109 -5.39946e-14 
-8.43363 -3.67215 -4.97514e-14 
-8.10989 -3.65739 -2.62466e-14 
-7.80094 -3.64216 -3.45245e-14 
-7.49974 -3.64347 -5.68565e-14 
-7.20333 -3.64633 -5.03242e-14 
-6.89765 -3.67667 -3.48526e-14 
-6.58566 -3.66393 1.9392e-14 
-6.27833 -3.65832 9.70192e-14 
-5.97154 -3.66465 1.96596e-13 
-5.66059 -3.66749 3.08537e-13 
-5.3598 -3.65987 4.39544e-13 
-5.07129 -3.65793 5.25019e-13 
-4.77407 -3.67597 7.17822e-13 
-4.4687 -3.66533 9.00094e-13 
-4.15106 -3.65224 1.25822e-12 
-3.81883 -3.64667 1.95279e-12 
-3.48091 -3.63105 5.46169e-13 
-3.15174 -3.63231 5.78116e-13 
-2.82505 -3.66804 1.00749e-12 
-2.50102 -3.68713 5.02582e-12 
-2.1771 -3.73472 -4.23803e-12 
-1.91715 -3.74914 6.20799e-12 
-1.69134 -3.80603 9.58315e-13 
-1.48617 -3.84146 5.25398e-12 
-1.16109 -3.86612 4.76294e-12 
-0.876282 -3.89872 -1.86995e-13 
-0.513384 -3.87696 7.10618e-13 
-0.269847 -3.94292 -4.48104e-12 
0.155098 -3.88012 -1.16364e-12 
0.355253 -3.90235 -7.48512e-12 
0.70673 -3.89949 -8.17649e-13 
0.834644 -3.80382 -1.82612e-11 
1.1762 -3.80904 -4.23389e-12 
1.32061 -3.89927 -4.72009e-12 
1.72076 -3.78414 -4.41382e-12 
1.97595 -3.77974 -8.19428e-13 
2.26252 -3.70363 -3.9628e-12 
2.56929 -3.69943 1.50904e-12 
2.91764 -3.66437 -7.809e-14 
3.2698 -3.6414 2.8252e-14 
3.60638 -3.6321 -2.02245e-12 
3.93831 -3.62569 -9.61604e-13 
4.25584 -3.65231 -1.30964e-12 
4.56302 -3.65763 -8.9012e-13 
4.87198 -3.68057 -6.77311e-13 
5.17351 -3.67413 -5.09069e-13 
5.47278 -3.67207 -3.841e-13 
5.7682 -3.65643 -2.72873e-13 
6.06553 -3.65266 -1.69379e-13 
6.36144 -3.64511 -8.78447e-14 
6.6678 -3.65901 -3.14086e-14 
6.95865 -3.63262 1.22491e-14 
7.25164 -3.65196 3.96686e-14 
7.54853 -3.66455 4.55787e-14 
7.84626 -3.66642 7.27773e-14 
8.14388 -3.64813 6.91748e-14 
8.44246 -3.64471 7.31798e-14 
8.7451 -3.6391 6.7129e-14 
9.06824 -3.69475 7.37072e-14 
9.38645 -3.66294 6.89692e-14 
9.68652 -3.62943 5.44726e-14 
10.0131 -3.70278 3.97208e-14 
10.3387 -3.6513 5.48302e-15 
10.7036 -3.72584 -1.94085e-15 
11.0279 -3.63846 2.56242e-14 
11.3504 -3.64641 6.31873e-14 
11.6852 -3.68411 1.46826e-15 
12 -3.65457 -1.03846e-15 
-12 -3.35615 -1.06064e-14 
-11.6558 -3.32995 5.69625e-14 
-11.3093 -3.31574 1.06644e-14 
-10.9688 -3.30008 -7.20512e-14 
-10.6433 -3.30158 -5.81128e-14 
-10.3207 -3.34647 -3.77624e-14 
-9.99823 -3.32032 -4.44939e-14 
-9.69107 -3.30213 -2.30477e-14 
-9.38886 -3.34291 -3.30003e-14 
-9.08487 -3.31317 -2.57323e-14 
-8.78279 -3.30848 -3.63159e-14 
-8.47374 -3.33801 -4.30631e-14 
-8.16169 -3.33289 -3.04152e-14 
-7.84531 -3.29952 -1.75543e-14 
-7.54231 -3.29196 -9.22769e-15 
-7.2445 -3.28915 1.76877e-15 
-6.94618 -3.34463 1.7574e-14 
-6.64064 -3.33676 4.90768e-14 
-6.33352 -3.33167 1.00348e-13 
-6.02405 -3.32659 1.58582e-13 
-5.72093 -3.33535 2.11097e-13 
-5.41667 -3.32544 2.61551e-13 
-5.11758 -3.30712 2.47601e-13 
-4.82245 -3.34868 3.6847e-13 
-4.51674 -3.33389 5.16315e-13 
-4.19997 -3.3101 8.13855e-13 
-3.87877 -3.3045 6.06819e-13 
-3.56933 -3.30351 8.07497e-13 
-3.25391 -3.3018 -1.4155e-13 
-2.96175 -3.33627 -2.0747e-12 
-2.67369 -3.40157 -1.06851e-12 
-2.33623 -3.49041 -1.28959e-12 
-2.04059 -3.5082 1.43644e-12 
-1.69386 -3.60385 -4.92915e-12 
-1.45342 -3.62259 2.65457e-11 
-1.29843 -3.77237 -4.66612e-12 
-0.961914 -3.79972 -2.91067e-13 
-0.645889 -3.81644 -7.54104e-12 
-0.139282 -3.87043 2.52929e-12 
0.00224411 -3.81316 2.73949e-12 
0.330297 -3.74693 9.13059e-13 
0.618354 -3.73386 1.25802e-11 
1.00016 -3.82942 1.52373e-11 
1.35106 -3.66396 -9.74482e-12 
1.51091 -3.75933 -2.41321e-12 
1.78081 -3.55447 -2.19109e-12 
2.0265 -3.53414 -6.50836e-13 
2.29424 -3.41803 2.89964e-14 
2.59189 -3.42296 -3.84055e-13 
2.93298 -3.38058 7.77537e-13 
3.24262 -3.31912 1.6587e-13 
3.54769 -3.29525 -1.44557e-12 
3.87225 -3.29591 6.66947e-14 
4.19268 -3.30649 -5.4952e-13 
4.49997 -3.31574 -5.01247e-13 
4.80521 -3.34846 -3.93647e-13 
5.10437 -3.34547 -3.4556e-13 
5.40207 -3.34157 -2.62617e-13 
5.69849 -3.32268 -2.04185e-13 
6.00059 -3.31305 -1.60271e-13 
6.30485 -3.29646 -1.0504e-13 
6.61283 -3.3185 -5.05723e-14 
6.91848 -3.28489 -2.1934e-14 
7.2245 -3.31021 -1.99831e-15 
7.52859 -3.32786 1.0875e-14 
7.83229 -3.3258 2.64336e-14 
8.12738 -3.29446 2.94263e-14 
8.4249 -3.296 3.18358e-14 
8.73382 -3.29654 2.94873e-14 
9.0532 -3.36341 3.23641e-14 
9.3734 -3.32398 3.95511e-14 
9.69485 -3.29219 3.50561e-14 
10.0062 -3.37456 2.98371e-14 
10.2984 -3.28965 3.92689e-14 
10.6205 -3.39998 6.05004e-14 
10.9563 -3.31495 8.03545e-14 
11.3115 -3.29369 -1.3512e-14 
11.6504 -3.33865 -3.30064e-14 
12 -3.32822 4.04095e-15 
-12 -3.02976 -1.67565e-14 
-11.641 -3.00502 2.61792e-14 
-11.2821 -2.98613 7.49936e-14 
-10.9534 -2.95685 -1.47209e-14 
-10.6153 -2.96773 -2.1792e-14 
-10.2991 -3.01116 -2.22341e-14 
-9.99111 -2.96818 -1.22436e-14 
-9.67668 -2.9643 1.82226e-14 
-9.3631 -2.99087 1.93311e-14 
-9.05605 -2.96204 1.77705e-14 
-8.74451 -2.9677 3.24239e-15 
-8.43911 -3.00312 -1.91863e-14 
-8.12362 -3.00222 -2.45436e-14 
-7.81806 -2.95727 -8.334e-15 
-7.5144 -2.94901 1.15793e-14 
-7.21521 -2.94836 2.9719e-14 
-6.92009 -3.01496 3.8633e-14 
-6.61192 -3.00792 4.46891e-14 
-6.30785 -3.00345 4.82674e-14 
-6.00813 -2.9888 5.0172e-14 
-5.70853 -2.9995 3.96794e-14 
-5.41013 -2.98822 2.78649e-15 
-5.10965 -2.9698 -7.76931e-14 
-4.80646 -3.01363 -2.66515e-14 
-4.49901 -2.9939 -2.66553e-13 
-4.17519 -2.97234 -3.47309e-13 
-3.8676 -2.97866 -1.00421e-12 
-3.57469 -2.99079 -1.0171e-12 
-3.30929 -3.02767 -9.47468e-13 
-3.03266 -3.05091 -7.89482e-13 
-2.78567 -3.13537 -1.49641e-12 
-2.44739 -3.27509 -1.807e-12 
-2.16996 -3.30267 -1.98949e-12 
-1.84125 -3.4476 -2.52355e-13 
-1.60105 -3.42002 2.26564e-13 
-1.2657 -3.5404 -1.92362e-11 
-1.12854 -3.66438 -2.04663e-13 
-0.724516 -3.71669 -3.35544e-12 
-0.354342 -3.81201 -2.57693e-12 
-0.0980817 -3.67232 1.40704e-11 
0.163145 -3.71923 -9.96377e-13 
0.797315 -3.65438 -6.43148e-12 
1.156 -3.61319 -5.29521e-12 
1.24083 -3.45817 -3.09847e-11 
1.58593 -3.55636 -4.72822e-12 
1.8517 -3.34014 3.30729e-12 
2.07672 -3.29325 1.49617e-12 
2.43792 -3.18991 1.14042e-12 
2.69446 -3.18877 -1.65459e-12 
2.97015 -3.12864 3.12452e-12 
3.24024 -3.03806 -1.10909e-12 
3.54969 -3.01036 1.37797e-12 
3.84556 -2.98418 6.47086e-13 
4.14108 -2.98566 4.30043e-13 
4.45948 -2.97987 3.52316e-13 
4.77568 -3.01013 8.03819e-14 
5.08285 -3.00953 1.27683e-14 
5.38525 -3.00727 -4.62482e-15 
5.683 -2.99107 -1.00969e-14 
5.98375 -2.98053 -4.7272e-14 
6.28662 -2.95834 -4.56433e-14 
6.59096 -2.98038 -4.39115e-14 
6.90991 -2.96047 -2.80789e-14 
7.22648 -2.97579 -1.83937e-14 
7.53027 -2.99345 -6.15643e-15 
7.83396 -2.98551 -3.95654e-15 
8.12949 -2.94514 2.96378e-15 
8.42999 -2.9525 6.13581e-15 
8.73796 -2.96434 5.31259e-16 
9.05797 -3.03324 3.40134e-15 
9.38256 -2.99647 -1.13527e-14 
9.66075 -2.92342 -2.37036e-14 
9.96238 -3.01652 1.09904e-14 
10.2869 -2.95469 1.58761e-14 
10.6251 -3.05507 1.92862e-14 
10.9815 -2.98616 -5.67152e-16 
11.3163 -2.94702 -9.98039e-14 
11.6543 -3.00518 -4.22349e-16 
12 -2.98601 4.32281e-15 
-12 -2.71555 -5.10866e-15 
-11.6327 -2.69446 4.40754e-14 
-11.3091 -2.64018 9.61665e-14 
-10.9481 -2.63504 3.52697e-14 
-10.6039 -2.63916 1.2331e-14 
-10.2732 -2.66477 -7.25549e-15 
-9.94181 -2.63651 2.02288e-14 
-9.61491 -2.64038 4.75075e-14 
-9.30837 -2.64898 4.30119e-14 
-8.98915 -2.6285 2.33272e-14 
-8.68097 -2.62903 2.20691e-15 
-8.37639 -2.67534 -9.52348e-15 
-8.07794 -2.65828 -1.24352e-14 
-7.76551 -2.62636 -1.85774e-15 
-7.45788 -2.61654 1.25921e-14 
-7.13885 -2.63464 2.46211e-14 
-6.84236 -2.69402 2.0819e-14 
-6.53651 -2.6761 3.0903e-15 
-6.23957 -2.66537 -2.16093e-14 
-5.93735 -2.65552 -4.2678e-14 
[...]
POINT_DATA 1978 
VECTORS vectors float
0.000529933 -0.00245969 0.999997 
-0.000609415 -0.00692529 0.999976 
-0.000117179 0.00914979 0.999958 
-0.000294525 0.0197359 0.999805 
-0.000215503 0.0141717 0.9999 
-0.000248193 -0.00162228 0.999999 
-0.00025088 -0.0125782 0.999921 
-0.000269777 -0.0140578 0.999901 
-0.000296323 -0.0109458 0.99994 
-0.000229727 -0.00614655 0.999981 
-0.000204148 -0.00265171 0.999996 
-0.000214319 -0.000450023 1 
-0.000164264 -0.00152717 0.999999 
-0.000171274 -0.00412447 0.999991 
-0.000154612 -0.00703653 0.999975 
-0.000186842 -0.00864097 0.999963 
-0.000181502 -0.0077196 0.99997 
-0.000140125 -0.00338078 0.999994 
-0.000160807 0.00379104 0.999993 
-0.000177522 0.0131928 0.999913 
-0.000191162 0.0247662 0.999693 
-0.000145356 0.0384257 0.999261 
-0.000145893 0.0540066 0.998541 
-0.000125311 0.0747709 0.997201 
-0.000104069 0.0985784 0.995129 
-0.000156557 0.124956 0.992162 
-0.000171427 0.152398 0.988319 
-0.000179073 0.1765 0.984301 
-0.000136468 0.195802 0.980643 
-0.000214939 0.213098 0.977031 
-8.83544e-05 0.231868 0.972747 
-0.000143955 0.248085 0.968738 
6.46654e-05 0.264171 0.964476 
-8.90572e-05 0.290305 0.956934 
5.80826e-05 0.349926 0.936777 
-4.83475e-05 0.460153 0.88784 
3.71685e-05 0.63326 0.773939 
-0.000362568 0.732083 0.681216 
0.000160011 0.876889 0.480694 
-9.68043e-05 0.99979 0.0204805 
9.66511e-05 0.949787 -0.312897 
-3.72908e-05 0.77793 -0.628351 
-2.27116e-05 0.59952 -0.80036 
9.4059e-05 0.481424 -0.876488 
-3.88643e-05 0.344076 -0.938942 
-0.000157052 0.306838 -0.951762 
0.000104587 0.273098 -0.961986 
4.09785e-05 0.245935 -0.969286 
0.00013669 0.22492 -0.974377 
0.000181221 0.206362 -0.978476 
0.000185183 0.187279 -0.982307 
0.000139682 0.170884 -0.985291 
9.23577e-05 0.151151 -0.988511 
8.97227e-05 0.126405 -0.991979 
9.64044e-05 0.100635 -0.994923 
0.000118895 0.0764981 -0.99707 
0.000157392 0.053234 -0.998582 
0.000163744 0.0337869 -0.999429 
0.000167868 0.018729 -0.999825 
0.000170179 0.00954007 -0.999954 
0.000169281 0.00520665 -0.999986 
0.000175447 0.00272294 -0.999996 
0.000150746 -0.000256838 -1 
9.59171e-05 -0.0037607 -0.999993 
0.000142926 -0.00740091 -0.999973 
0.000172747 -0.0093301 -0.999956 
0.00018065 -0.0095364 -0.999955 
0.00018826 -0.0085054 -0.999964 
0.000173839 -0.00710134 -0.999975 
0.000242435 -0.00545437 -0.999985 
0.000302347 -0.00457842 -0.999989 
0.000115541 -0.00631646 -0.99998 
0.000238305 -0.00726588 -0.999974 
0.000218259 -0.00251829 -0.999997 
0.00027338 0.00842083 -0.999965 
0.00039178 0.0168254 -0.999858 
1.43472e-05 0.00455058 -0.99999 
0.00055347 -0.0109529 -0.99994 
-0.000475668 -0.0023114 -0.999997 
0.000174569 0.00035702 1 
0.00877793 -0.0101541 0.99991 
0.0136701 -0.000537429 0.999906 
0.0165673 0.00692474 0.999839 
0.018847 0.00687354 0.999799 
0.0211025 -0.000137607 0.999777 
0.0223218 -0.00838625 0.999716 
0.0230412 -0.0115704 0.999668 
0.0224556 -0.011042 0.999687 
0.0227573 -0.0077648 0.999711 
0.0242124 -0.00430896 0.999698 
0.0239759 -0.00180018 0.999711 
0.0239823 -0.0021156 0.99971 
0.0243494 -0.00375236 0.999696 
0.0239913 -0.00555479 0.999697 
0.0229071 -0.00672628 0.999715 
0.021215 -0.00600844 0.999757 
0.0199036 -0.00174865 0.9998 
0.0177821 0.00583314 0.999825 
0.0144093 0.0162389 0.999764 
0.00989561 0.0292254 0.999524 
0.00431287 0.0444477 0.999002 
-0.00277706 0.0614232 0.998108 
-0.00980011 0.0804779 0.996708 
-0.0207209 0.105347 0.99422 
-0.0354498 0.132673 0.990526 
-0.0546109 0.160971 0.985447 
-0.0865932 0.189583 0.978039 
-0.114614 0.213052 0.970295 
-0.126344 0.228558 0.965297 
-0.133305 0.241524 0.961195 
-0.137947 0.255629 0.956883 
-0.119908 0.269863 0.955404 
-0.0963181 0.289209 0.952408 
-0.0701239 0.333359 0.940188 
-0.0587382 0.428555 0.901605 
-0.0383487 0.571236 0.81989 
-0.0235485 0.820711 0.570857 
-0.00340792 0.939135 0.343532 
0.00198531 0.98306 -0.183271 
0.00470376 0.914237 -0.405152 
0.0165907 0.704522 -0.709488 
0.0451645 0.60865 -0.792152 
0.0850189 0.445263 -0.891355 
0.0411506 0.395433 -0.917572 
0.09931 0.299999 -0.948756 
0.104027 0.268897 -0.957535 
0.132766 0.247605 -0.959721 
0.131603 0.231365 -0.963925 
0.125915 0.218482 -0.967683 
0.10678 0.203393 -0.973257 
0.0773915 0.180813 -0.980468 
0.0578981 0.155661 -0.986112 
0.0345772 0.127503 -0.991235 
0.0203544 0.101173 -0.994661 
0.00803252 0.0752129 -0.997135 
-0.000304832 0.0531182 -0.998588 
-0.00717811 0.0347248 -0.999371 
-0.0124986 0.0212582 -0.999696 
-0.0161976 0.0116959 -0.9998 
-0.018699 0.00572052 -0.999809 
-0.0208615 0.00169549 -0.999781 
-0.0226726 -0.00156616 -0.999742 
-0.0231468 -0.00457492 -0.999722 
-0.0231122 -0.00691537 -0.999709 
-0.0243096 -0.00776506 -0.999674 
-0.0250457 -0.00758902 -0.999658 
-0.0257163 -0.00719281 -0.999643 
-0.0257471 -0.00672392 -0.999646 
-0.0233509 -0.00600203 -0.999709 
-0.0239616 -0.00606838 -0.999694 
-0.0241569 -0.00627786 -0.999688 
-0.0214719 -0.00513629 -0.999756 
-0.0203518 -0.000503231 -0.999793 
-0.0161483 0.00751353 -0.999841 
-0.0157549 0.00388014 -0.999868 
-0.0127541 -0.00430101 -0.999909 
-0.00848058 -0.0131217 -0.999878 
-0.000271387 0.000403931 -1 
0.00129216 -0.000576731 0.999999 
0.00736516 -0.0153272 0.999855 
0.0119344 -0.0107051 0.999871 
0.0166966 -0.00219414 0.999858 
0.020802 -0.000660527 0.999783 
0.024793 -0.00393424 0.999685 
0.0262273 -0.00841991 0.999621 
0.0268227 -0.0110789 0.999579 
0.0277697 -0.0109349 0.999555 
0.0283856 -0.00873448 0.999559 
0.0291202 -0.0054121 0.999561 
0.029468 -0.00255035 0.999562 
0.0284029 -0.00182961 0.999595 
0.0263315 -0.00286004 0.999649 
0.0245624 -0.00456411 0.999688 
0.0233612 -0.00581054 0.99971 
0.0235649 -0.00545704 0.999707 
0.0217529 -0.00135161 0.999762 
0.0180362 0.00686752 0.999814 
0.011988 0.0190953 0.999746 
0.0038961 0.0336675 0.999425 
-0.00724289 0.0513134 0.998656 
-0.0218831 0.0721013 0.997157 
-0.0342207 0.0924203 0.995132 
-0.0552253 0.119442 0.991304 
-0.0839676 0.150444 0.985046 
-0.120255 0.183795 0.975581 
-0.1624 0.215789 0.96284 
-0.215517 0.247569 0.944596 
-0.257289 0.266402 0.928888 
-0.267632 0.269208 0.925149 
-0.259211 0.269804 0.92737 
-0.267515 0.280143 0.92193 
-0.226141 0.304506 0.925276 
-0.180607 0.341575 0.922338 
-0.120695 0.391494 0.912231 
-0.0843096 0.542715 0.835675 
-0.0549882 0.70975 0.702305 
-0.00280691 0.980959 0.194197 
0.00156117 0.999344 0.0361952 
0.0107548 0.908609 -0.417509 
0.0587255 0.744482 -0.665055 
0.081699 0.520154 -0.850156 
0.163394 0.380709 -0.910144 
0.115196 0.339519 -0.933519 
0.234482 0.305549 -0.922853 
0.238896 0.280155 -0.929754 
0.293212 0.274923 -0.915666 
0.264298 0.261234 -0.928387 
0.245839 0.254036 -0.93543 
0.219741 0.24583 -0.944077 
0.17413 0.220908 -0.959624 
0.133888 0.191699 -0.972279 
0.0940754 0.157784 -0.982982 
0.0636269 0.126518 -0.989922 
0.0375784 0.0962718 -0.994645 
0.0204149 0.0717089 -0.997217 
0.00703205 0.0502463 -0.998712 
-0.00290635 0.0331331 -0.999447 
-0.0109152 0.0193202 -0.999754 
-0.0161439 0.00936376 -0.999826 
-0.0199901 0.00262725 -0.999797 
-0.0216393 -0.00154043 -0.999765 
-0.0241522 -0.00416547 -0.9997 
-0.0259954 -0.0056167 -0.999646 
-0.0279253 -0.00608534 -0.999591 
-0.0285235 -0.00588376 -0.999576 
-0.0291028 -0.00603286 -0.999558 
-0.0292481 -0.00657074 -0.999551 
-0.0289572 -0.00698994 -0.999556 
-0.0283346 -0.0073035 -0.999572 
-0.0271786 -0.00711601 -0.999605 
-0.0262874 -0.00539505 -0.99964 
-0.0239376 -0.00351664 -0.999707 
-0.0206887 0.000378574 -0.999786 
-0.0169317 -0.00374232 -0.99985 
-0.0114947 -0.0141351 -0.999834 
-0.00802106 -0.0168213 -0.999826 
-0.00144518 -0.00064638 -0.999999 
0.00138911 -0.000424529 0.999999 
0.00417025 -0.0200971 0.999789 
0.00546344 -0.0187454 0.999809 
0.00916384 -0.0105628 0.999902 
0.0135034 -0.00652529 0.999888 
0.0174515 -0.00629451 0.999828 
0.0182408 -0.0087168 0.999796 
0.0199147 -0.011393 0.999737 
0.0216536 -0.0112754 0.999702 
0.0220074 -0.00902159 0.999717 
0.0222993 -0.00528293 0.999737 
0.022825 -0.00215609 0.999737 
0.0216763 -0.000957815 0.999765 
0.0185632 -0.00184575 0.999826 
0.0164159 -0.00389002 0.999858 
0.0144616 -0.00521105 0.999882 
0.0149102 -0.0041966 0.99988 
0.0117136 0.00151767 0.99993 
0.00665346 0.0123315 0.999902 
-0.00188177 0.0278411 0.999611 
-0.012962 0.0460713 0.998854 
-0.0286957 0.0678063 0.997286 
-0.0496783 0.0939019 0.994341 
-0.0695819 0.117803 0.990596 
-0.103621 0.153202 0.982747 
-0.149957 0.195723 0.969126 
-0.203429 0.238655 0.949558 
-0.25406 0.273416 0.927738 
-0.29996 0.297538 0.906363 
-0.358387 0.322626 0.876054 
-0.386382 0.322725 0.864036 
-0.37339 0.303262 0.876705 
-0.396613 0.306003 0.865483 
-0.322441 0.303316 0.896678 
-0.358891 0.336124 0.870757 
-0.288602 0.384278 0.876949 
-0.172686 0.440023 0.881226 
-0.09359 0.692594 0.71523 
-0.0195513 0.903929 0.427236 
0.00689084 0.994557 0.103967 
0.00700702 0.971655 -0.2363 
0.113465 0.627455 -0.770341 
0.193491 0.445979 -0.873879 
0.279385 0.401127 -0.872376 
0.245332 0.337626 -0.908747 
0.381557 0.32457 -0.865488 
0.39339 0.309659 -0.865653 
0.426308 0.310675 -0.849555 
0.373674 0.3005 -0.877535 
0.361417 0.306311 -0.880654 
0.314412 0.297086 -0.901601 
0.266776 0.276808 -0.923151 
0.217755 0.246861 -0.944268 
0.164321 0.207572 -0.96432 
0.117469 0.166715 -0.978983 
0.076182 0.125265 -0.989194 
0.0492489 0.0939177 -0.994361 
0.0294185 0.0681525 -0.997241 
0.0149404 0.0472709 -0.99877 
0.00316265 0.0287677 -0.999581 
-0.00444755 0.0146085 -0.999883 
-0.0102539 0.00437271 -0.999938 
-0.0125132 -0.0011878 -0.999921 
-0.0153096 -0.00358755 -0.999876 
-0.0180239 -0.00420944 -0.999829 
-0.0197681 -0.00410977 -0.999796 
-0.0204889 -0.00368047 -0.999783 
-0.0219871 -0.00431653 -0.999749 
-0.0226613 -0.00586236 -0.999726 
-0.0240958 -0.00769321 -0.99968 
-0.022037 -0.00887244 -0.999718 
-0.0188415 -0.00916246 -0.99978 
-0.0193897 -0.00709129 -0.999787 
-0.0152856 -0.00615731 -0.999864 
-0.0147894 -0.00646264 -0.99987 
-0.00903867 -0.0129044 -0.999876 
-0.00424584 -0.0230348 -0.999726 
-0.00441185 -0.0209464 -0.999771 
-0.000894284 -0.000342733 -1 
0.000153334 -0.000288101 1 
-0.000369211 -0.0238672 0.999715 
-0.000298525 -0.0265923 0.999646 
0.00319986 -0.0175457 0.999841 
0.00614031 -0.0103406 0.999928 
0.00939701 -0.0079963 0.999924 
0.0112402 -0.0102488 0.999884 
0.0133451 -0.0125625 0.999832 
0.0147913 -0.0116321 0.999823 
0.0150489 -0.00793842 0.999855 
0.0147445 -0.00352816 0.999885 
0.0149317 -0.000614868 0.999888 
0.0131324 0.000440312 0.999914 
0.0105822 -0.000697692 0.999944 
0.00823866 -0.00290826 0.999962 
0.00609313 -0.00392228 0.999974 
0.00516535 -0.00122801 0.999986 
0.000615392 0.00780146 0.999969 
-0.00643582 0.0228069 0.999719 
-0.0174403 0.0435493 0.998899 
-0.0319657 0.0669435 0.997245 
-0.0529917 0.0956725 0.994001 
-0.0822593 0.130485 0.988032 
-0.114085 0.165191 0.979641 
-0.160961 0.212184 0.963883 
-0.225984 0.270656 0.935776 
-0.28909 0.315706 0.903746 
-0.352948 0.361425 0.863018 
-0.389822 0.372873 0.842024 
-0.440206 0.390955 0.808315 
-0.476054 0.386187 0.790084 
-0.452238 0.339312 0.824832 
-0.489375 0.338663 0.803629 
-0.474026 0.329912 0.816369 
-0.489335 0.346858 0.800151 
-0.393973 0.359944 0.84571 
-0.308807 0.441356 0.842522 
-0.143202 0.609144 0.780023 
-0.0473567 0.851352 0.522454 
-0.0125372 0.957313 0.28878 
0.0169227 0.816119 -0.577636 
0.182861 0.518041 -0.835581 
0.349412 0.453384 -0.819972 
0.340234 0.377396 -0.861285 
0.401266 0.354773 -0.844465 
0.528442 0.353615 -0.771819 
0.496284 0.332822 -0.80183 
0.488482 0.353364 -0.797821 
0.471479 0.372685 -0.799258 
0.432405 0.367429 -0.82342 
0.368921 0.346781 -0.862346 
0.335385 0.340974 -0.878211 
0.28339 0.312218 -0.906758 
0.215612 0.261683 -0.940762 
0.152893 0.207123 -0.966294 
0.105145 0.157455 -0.981913 
0.0702458 0.117083 -0.990635 
0.0457522 0.0856304 -0.995276 
0.0270572 0.0585884 -0.997915 
0.0136285 0.0360952 -0.999255 
0.00453332 0.0180956 -0.999826 
-0.0020065 0.00534068 -0.999984 
-0.00472764 -0.00108553 -0.999988 
-0.00725253 -0.00279552 -0.99997 
-0.00973479 -0.00253131 -0.999949 
-0.0113441 -0.00147972 -0.999935 
-0.0133672 -0.000834633 -0.99991 
-0.0151889 -0.00219026 -0.999882 
-0.0159954 -0.00507901 -0.999859 
-0.0168811 -0.00829035 -0.999823 
-0.0144763 -0.0103818 -0.999841 
-0.012417 -0.010928 -0.999863 
-0.0114548 -0.00865247 -0.999897 
-0.00761668 -0.00810545 -0.999938 
-0.0065493 -0.0111588 -0.999916 
-0.00250269 -0.0197443 -0.999802 
0.000581046 -0.0291741 -0.999574 
0.000609659 -0.0235648 -0.999722 
0.000545991 -0.000370072 -1 
-0.000743481 -0.000377723 1 
-0.00242874 -0.0232858 0.999726 
-0.00176084 -0.0294964 0.999563 
-0.000696974 -0.0258463 0.999666 
0.00120071 -0.0153997 0.999881 
0.00396719 -0.00997177 0.999942 
0.00685511 -0.0100117 0.999926 
0.00957177 -0.012796 0.999872 
0.0109107 -0.0127505 0.999859 
0.0116409 -0.00931766 0.999889 
0.0112814 -0.00364622 0.99993 
0.0104348 0.000908762 0.999945 
0.00896172 0.00272378 0.999956 
0.00709335 0.002061 0.999973 
0.00496529 -0.000291103 0.999988 
0.00295768 -0.00250212 0.999992 
0.000490778 -0.000547354 1 
-0.00272914 0.00699899 0.999972 
-0.00934628 0.0232763 0.999685 
-0.0193239 0.0456999 0.998768 
-0.0347878 0.0744476 0.996618 
-0.0554439 0.106157 0.992802 
-0.0851835 0.145333 0.985709 
-0.127644 0.199034 0.971644 
-0.172321 0.246452 0.953712 
-0.233221 0.306678 0.922798 
-0.311687 0.366143 0.876807 
-0.379459 0.421828 0.823451 
-0.442355 0.462362 0.768468 
-0.464794 0.453885 0.760233 
-0.516161 0.463334 0.720347 
-0.558899 0.456319 0.692391 
-0.53774 0.390795 0.747071 
-0.589318 0.380809 0.712523 
-0.571915 0.359572 0.737307 
-0.537365 0.37527 0.755255 
-0.562649 0.393928 0.726806 
-0.164174 0.697169 0.697856 
-0.0932209 0.800888 0.591514 
0.0115153 0.998703 -0.0496012 
0.025227 0.858344 -0.512454 
0.266735 0.554512 -0.78827 
0.445321 0.393052 -0.804487 
0.638407 0.416699 -0.647146 
0.515209 0.365361 -0.775288 
0.569854 0.354992 -0.741112 
0.551041 0.363866 -0.75097 
0.559779 0.429293 -0.70877 
0.551541 0.472815 -0.687203 
0.47021 0.424785 -0.773602 
0.426036 0.421059 -0.800751 
0.392652 0.428455 -0.813788 
0.324639 0.385847 -0.863557 
0.252169 0.324953 -0.911491 
0.190343 0.271309 -0.943483 
0.13447 0.208522 -0.968729 
0.0923778 0.155743 -0.983469 
0.0617451 0.115116 -0.991431 
0.0395602 0.0814164 -0.995895 
0.0235026 0.0533615 -0.998299 
0.0121845 0.0300037 -0.999476 
0.00418784 0.0112996 -0.999927 
4.456e-05 0.00166556 -0.999999 
-0.00245977 -0.00134894 -0.999996 
-0.0048852 -0.000743131 -0.999988 
-0.00687484 0.00125968 -0.999976 
-0.00910012 0.00231611 -0.999956 
-0.0109381 0.00120125 -0.999939 
-0.012016 -0.0022981 -0.999925 
-0.0124825 -0.00738887 -0.999895 
-0.011418 -0.0111237 -0.999873 
-0.00980641 -0.0124749 -0.999874 
-0.00779307 -0.010599 -0.999913 
-0.00431124 -0.00968317 -0.999944 
-0.00194458 -0.0136035 -0.999906 
0.000140734 -0.0233995 -0.999726 
0.00121221 -0.0331532 -0.99945 
0.00178512 -0.0277162 -0.999614 
0.000491789 -0.000452981 -1 
-0.000388081 -0.000446992 1 
-0.0018464 -0.0276935 0.999615 
-0.00110897 -0.0320739 0.999485 
-0.000306629 -0.022352 0.99975 
0.00221128 -0.0134569 0.999907 
0.00525632 -0.0105951 0.99993 
0.00786291 -0.0121036 0.999896 
0.00968679 -0.0134268 0.999863 
0.0102629 -0.0111237 0.999885 
0.0102793 -0.0058558 0.99993 
0.00943616 0.00112933 0.999955 
0.00794408 0.00519314 0.999955 
0.006193 0.00559831 0.999965 
0.0042629 0.00346363 0.999985 
0.0023961 0.000130766 0.999997 
0.000447677 -0.000409095 1 
-0.00226712 0.00539606 0.999983 
-0.00686692 0.0181968 0.999811 
-0.0154914 0.0414283 0.999021 
-0.0282174 0.0704871 0.997114 
-0.0471106 0.107359 0.993104 
-0.0732665 0.148352 0.986217 
-0.10818 0.199288 0.973951 
-0.156393 0.271362 0.949686 
-0.210391 0.328143 0.920901 
-0.282564 0.402993 0.870491 
-0.33155 0.42123 0.84418 
-0.418888 0.504522 0.754977 
-0.469759 0.525041 0.709689 
-0.533107 0.556124 0.637591 
-0.532023 0.516419 0.671016 
-0.58473 0.529794 0.614337 
-0.640281 0.443787 0.626972 
-0.681698 0.399752 0.612769 
-0.620029 0.378509 0.687238 
-0.641505 0.394587 0.657854 
-0.450219 0.393946 0.801317 
-0.164905 0.517093 0.839893 
-0.0254237 0.936073 0.350887 
0.0131746 0.962025 -0.272643 
0.118347 0.726086 -0.677342 
0.449428 0.461668 -0.764773 
0.460753 0.414329 -0.784881 
0.623553 0.401874 -0.67058 
0.616992 0.371232 -0.693907 
0.668246 0.377071 -0.641299 
0.623913 0.440212 -0.645714 
0.618885 0.493715 -0.610923 
0.570043 0.54934 -0.610964 
0.501093 0.493748 -0.710717 
0.467023 0.517575 -0.716942 
0.406785 0.506972 -0.759938 
0.340801 0.465761 -0.816652 
0.261227 0.386308 -0.884605 
0.191532 0.317616 -0.928674 
0.136162 0.246401 -0.959555 
0.0932057 0.181437 -0.978976 
0.0629666 0.135061 -0.988835 
0.04095 0.0962593 -0.994514 
0.0245056 0.0628761 -0.99772 
0.012076 0.0327734 -0.99939 
0.0050895 0.0136041 -0.999895 
0.000959052 0.00287479 -0.999995 
-0.00134775 0.000134382 -0.999999 
-0.00348162 0.0015597 -0.999993 
-0.00528744 0.00436681 -0.999976 
-0.00736841 0.00546819 -0.999958 
-0.00889439 0.0042488 -0.999951 
-0.0103988 -0.000465997 -0.999946 
-0.0111863 -0.00661327 -0.999916 
-0.0105106 -0.0112931 -0.999881 
-0.00912173 -0.0132223 -0.999871 
-0.00708311 -0.0118498 -0.999905 
-0.00416719 -0.0108037 -0.999933 
-0.00127781 -0.0151164 -0.999885 
-0.000412076 -0.0243753 -0.999703 
-0.000131753 -0.0341941 -0.999415 
0.000492063 -0.0281938 -0.999602 
0.000118796 -0.000380027 -1 
5.0248e-05 -0.000336349 1 
-0.000570184 -0.0285904 0.999591 
-0.000314793 -0.0338947 0.999425 
0.000664467 -0.0247148 0.999694 
0.00255153 -0.0165421 0.99986 
0.00510119 -0.0119599 0.999915 
0.0073729 -0.0124972 0.999895 
0.00869146 -0.0133659 0.999873 
0.00855363 -0.0109228 0.999904 
0.00785686 -0.00530018 0.999955 
0.00681406 0.00178491 0.999975 
0.00429518 0.00738176 0.999964 
0.00272542 0.00824922 0.999962 
0.0011863 0.00609776 0.999981 
0.000112781 0.00240487 0.999997 
-0.00164241 0.00104171 0.999998 
-0.00443544 0.00639439 0.99997 
-0.00863842 0.0207535 0.999747 
-0.0159052 0.0439494 0.998907 
-0.0278232 0.0767019 0.996666 
-0.0441361 0.114941 0.992391 
-0.0683584 0.16277 0.984293 
-0.100432 0.220317 0.970244 
-0.141305 0.290888 0.946265 
-0.205678 0.384367 0.899977 
-0.268812 0.446079 0.853671 
-0.344311 0.517967 0.783045 
-0.390933 0.521819 0.758206 
-0.474611 0.598053 0.645815 
-0.513481 0.606335 0.607202 
-0.550561 0.606914 0.573183 
-0.595212 0.57948 0.55671 
-0.648528 0.58157 0.491109 
-0.616353 0.476876 0.626656 
-0.727352 0.503677 0.466121 
-0.725378 0.412583 0.551001 
-0.633617 0.405755 0.658705 
-0.550705 0.394164 0.73577 
-0.239598 0.524079 0.817272 
0.0128867 0.980326 0.196963 
0.0132148 0.868262 -0.495929 
0.383408 0.403108 -0.830965 
0.517192 0.399785 -0.756759 
0.699564 0.402154 -0.590663 
0.755981 0.408115 -0.511796 
0.723472 0.479901 -0.496269 
0.651528 0.563556 -0.507854 
0.618101 0.570456 -0.540862 
0.584052 0.633973 -0.506913 
0.530881 0.570682 -0.626489 
0.477324 0.594548 -0.647051 
0.443979 0.615174 -0.651494 
0.354892 0.546109 -0.758826 
0.270823 0.459988 -0.845616 
0.217499 0.418724 -0.881682 
0.153494 0.322613 -0.934003 
0.105974 0.237007 -0.965711 
0.0729843 0.175631 -0.981747 
0.0484946 0.125953 -0.99085 
0.0307652 0.0846823 -0.995933 
0.017517 0.0489617 -0.998647 
0.00935909 0.0232177 -0.999687 
0.00466387 0.00771324 -0.999959 
0.00220216 0.00187007 -0.999996 
0.000541731 0.00287891 -0.999996 
-0.000884169 0.00588134 -0.999982 
-0.00277891 0.00801181 -0.999964 
-0.00428288 0.00740628 -0.999963 
-0.00646949 0.0023434 -0.999976 
-0.00827003 -0.00540059 -0.999951 
-0.00869744 -0.011473 -0.999896 
-0.00784756 -0.0134295 -0.999879 
-0.00718673 -0.0125099 -0.999896 
-0.00517804 -0.0116312 -0.999919 
-0.00295228 -0.0147192 -0.999887 
-0.00209319 -0.0233215 -0.999726 
-0.00159938 -0.0334834 -0.999438 
-0.000813363 -0.0290519 -0.999578 
-7.41908e-06 -0.000450104 -1 
0.000326738 -0.00048541 1 
-0.000109421 -0.0302018 0.999544 
-0.000245916 -0.0341901 0.999415 
0.00106881 -0.0253643 0.999678 
0.00260042 -0.0169908 0.999852 
0.00391139 -0.0124321 0.999915 
0.00524051 -0.0125965 0.999907 
0.00531238 -0.0124111 0.999909 
0.00400582 -0.00900024 0.999951 