# vtk DataFile Version 3.0 
Exported using Morpho https://github.com/Morpho-lang/morpho 
ASCII 
DATASET UNSTRUCTURED_GRID 

POINTS 1978 float 
-8.49048 -2.83402 1.94693e-06 
-8.23885 -2.83224 5.68218e-06 
-8.0483 -2.83278 4.63679e-06 
-7.79146 -2.84114 1.0768e-05 
-7.47997 -2.83306 8.74183e-06 
-7.20548 -2.83433 3.59126e-06 
-6.99945 -2.8377 5.38998e-06 
-6.75883 -2.83424 4.22836e-06 
-6.50198 -2.83446 4.25481e-06 
-6.33103 -2.83336 9.05593e-07 
-6.1609 -2.83537 -3.70234e-06 
-5.93516 -2.83697 9.40619e-07 
-5.71173 -2.83608 -8.49916e-07 
-5.51138 -2.83493 -7.78836e-07 
-5.29565 -2.83583 -2.56068e-06 
-5.0897 -2.8354 -7.00982e-06 
-4.87395 -2.83512 -8.73883e-06 
-4.66861 -2.8369 -1.11387e-05 
-4.45212 -2.83205 -6.43433e-06 
-4.22567 -2.83823 -5.03627e-06 
-4.01606 -2.8342 1.84966e-06 
-3.81052 -2.83389 6.16606e-06 
-3.60187 -2.83559 -2.05684e-06 
-3.39997 -2.83284 4.83523e-06 
-3.18682 -2.83378 -1.05801e-05 
-2.98536 -2.8352 -4.43449e-05 
-2.76939 -2.83411 -5.19515e-05 
-2.55411 -2.8365 -8.33821e-05 
-2.32478 -2.83796 -0.00010339 
-2.06926 -2.83675 -6.31688e-05 
-1.80728 -2.83338 -9.44128e-05 
-1.58753 -2.83219 -4.61934e-05 
-1.37744 -2.83246 -5.88354e-05 
-1.12419 -2.83041 0.00106378 
-0.958531 -2.82157 0.00300231 
-0.785299 -2.82437 0.00451816 
-0.698517 -2.82154 0.00933308 
-0.569046 -2.82231 0.0519267 
-0.269078 -2.67992 0.0326611 
0.026746 -2.73817 0.0215389 
0.245473 -2.76542 -0.0648197 
0.565339 -2.78608 -0.0331213 
0.718299 -2.81373 -0.0101232 
0.839057 -2.82717 -0.00460243 
1.02485 -2.82883 -0.0010621 
1.15384 -2.82881 -0.000399514 
1.28833 -2.83118 -0.000281868 
1.53823 -2.83075 3.78e-05 
1.77881 -2.83518 9.98676e-05 
2.05757 -2.83645 0.000124158 
2.30301 -2.8363 4.05884e-05 
2.54014 -2.83767 5.05529e-05 
2.75962 -2.83392 9.41949e-05 
2.99071 -2.83922 5.75346e-05 
3.20328 -2.83399 9.59057e-06 
3.4075 -2.83475 -3.52831e-06 
3.62175 -2.83492 -1.39597e-05 
3.82008 -2.83249 -6.61761e-06 
4.0279 -2.8353 1.2303e-06 
4.25428 -2.83642 2.49673e-06 
4.45256 -2.83424 9.84419e-06 
4.66542 -2.83378 7.35564e-06 
4.86553 -2.83507 9.835e-06 
5.07997 -2.83838 4.94646e-06 
5.28171 -2.8341 7.1105e-06 
5.50551 -2.83833 1.60469e-06 
5.70418 -2.83655 -5.54552e-07 
5.91852 -2.83637 2.95679e-07 
6.15262 -2.83428 -3.24568e-07 
6.35187 -2.83475 -1.0922e-07 
6.58843 -2.83439 -4.18332e-06 
6.81562 -2.83173 -3.83477e-06 
7.01055 -2.83555 -2.99188e-06 
7.27778 -2.83625 -7.04721e-06 
7.51948 -2.83516 -4.64572e-06 
7.77019 -2.83593 -8.46274e-06 
8.0418 -2.833 -4.99205e-06 
8.22651 -2.83372 -5.55994e-06 
8.48547 -2.8304 -7.68278e-07 
-8.49245 -2.56516 -7.02136e-06 
-8.29446 -2.62133 6.97377e-07 
-8.05842 -2.55124 -1.80305e-06 
-7.86321 -2.63445 -7.03227e-06 
-7.58823 -2.66922 -5.5925e-06 
-7.27457 -2.64449 -4.78758e-06 
-7.0175 -2.58608 -3.4951e-06 
-6.80964 -2.61968 -2.93981e-06 
-6.5602 -2.63478 -1.54388e-07 
-6.32982 -2.53523 -1.50747e-06 
-6.11229 -2.61461 -1.39954e-06 
-5.88529 -2.61177 4.87046e-07 
-5.67588 -2.58698 1.28063e-06 
-5.45763 -2.6078 -2.20889e-06 
-5.24429 -2.59747 2.13672e-06 
-5.02417 -2.60848 8.01823e-06 
-4.80858 -2.59799 1.33528e-05 
-4.59192 -2.60911 1.5318e-05 
-4.35952 -2.61647 9.11402e-06 
-4.13976 -2.60033 4.25623e-07 
-3.92466 -2.59202 -5.78273e-06 
-3.71114 -2.59787 -3.7721e-06 
-3.49864 -2.59253 -3.84108e-06 
-3.28345 -2.6077 -6.77606e-06 
-3.0658 -2.59511 1.29481e-05 
-2.85089 -2.60627 3.80699e-05 
-2.62657 -2.60001 5.45839e-05 
-2.40101 -2.61494 6.84609e-05 
-2.15428 -2.63052 6.97099e-05 
-1.88272 -2.62099 2.80195e-05 
-1.62839 -2.59179 6.93925e-05 
-1.41257 -2.59627 -8.69846e-05 
-1.20778 -2.65755 -0.000687748 
-1.00478 -2.60212 -0.00126438 
-0.846498 -2.65363 -0.00122845 
-0.730531 -2.55464 0.000546362 
-0.638145 -2.68823 0.00266052 
-0.504063 -2.73671 0.012424 
-0.263099 -2.63527 -0.000808819 
0.0516049 -2.72542 -0.0340616 
0.29931 -2.72289 -0.0345318 
0.475762 -2.7016 -0.0107497 
0.638424 -2.66771 -0.00614191 
0.766275 -2.599 0.000359675 
0.909102 -2.64802 0.000697713 
1.027 -2.52672 0.000419858 
1.27657 -2.65444 0.000528332 
1.50413 -2.62495 2.59603e-05 
1.78086 -2.64474 -0.000131836 
2.03162 -2.61989 -7.57805e-05 
2.28186 -2.61659 -2.70522e-05 
2.5105 -2.60783 -5.89192e-05 
2.75313 -2.61878 -5.64499e-05 
2.97442 -2.60925 -3.37274e-05 
3.18908 -2.59597 -2.56116e-06 
3.41213 -2.60855 1.36705e-05 
3.61844 -2.58995 1.01775e-05 
3.83573 -2.59753 2.37662e-06 
4.06764 -2.6174 1.05531e-06 
4.27648 -2.58498 -4.22078e-06 
4.49535 -2.60241 -1.2557e-05 
4.70637 -2.58871 -1.28691e-05 
4.92395 -2.61027 -8.48313e-06 
5.13265 -2.59858 -7.22924e-06 
5.35821 -2.62093 -1.32639e-06 
5.56974 -2.59416 1.08331e-06 
5.78363 -2.6064 -1.83567e-07 
6.01251 -2.62319 3.25493e-07 
6.22893 -2.58336 -5.70721e-08 
6.44946 -2.61862 1.92373e-06 
6.68134 -2.60659 2.40918e-06 
6.89238 -2.56885 1.75134e-06 
7.12139 -2.63998 3.17004e-06 
7.37474 -2.61754 5.49724e-06 
7.62236 -2.62413 2.20724e-06 
7.88641 -2.63919 5.28599e-06 
8.08696 -2.54314 6.33903e-07 
8.30917 -2.62404 -1.79475e-06 
8.49505 -2.53766 7.60694e-06 
-8.49346 -2.37105 -3.6179e-06 
-8.21126 -2.3716 1.66446e-06 
-7.94548 -2.3214 1.26718e-06 
-7.73625 -2.45227 -2.01001e-06 
-7.59313 -2.29252 5.16051e-07 
-7.44685 -2.4885 4.96751e-07 
-7.18199 -2.41534 2.80033e-06 
-6.94939 -2.33901 -1.89599e-06 
-6.71917 -2.41478 -6.68261e-08 
-6.50282 -2.38083 -2.49996e-06 
-6.20818 -2.34331 2.54737e-06 
-6.00518 -2.38433 2.57267e-07 
-5.79559 -2.35783 -1.63928e-07 
-5.56692 -2.3663 2.07043e-07 
-5.35739 -2.36693 6.95117e-08 
-5.13454 -2.37453 1.28904e-06 
-4.92094 -2.36917 1.1169e-06 
-4.69826 -2.37169 2.14246e-06 
-4.4722 -2.39642 1.52844e-06 
-4.24793 -2.37595 2.09198e-06 
-4.02997 -2.36008 1.52516e-06 
-3.81063 -2.3577 4.92475e-07 
-3.59848 -2.36115 -1.20024e-06 
-3.37594 -2.37062 -1.63804e-06 
-3.16255 -2.37302 -3.28189e-07 
-2.93799 -2.36909 1.08992e-06 
-2.72205 -2.37699 -3.59069e-06 
-2.4921 -2.37717 -7.72724e-06 
-2.26013 -2.40213 -1.33191e-05 
-2.0077 -2.41711 -2.1572e-05 
-1.7424 -2.38693 -5.06703e-05 
-1.494 -2.34641 -4.21129e-05 
-1.27371 -2.40426 -1.26224e-05 
-1.09246 -2.42836 -0.000643485 
-0.878984 -2.44088 -0.000521439 
-0.682576 -2.41988 0.000902425 
-0.564846 -2.57771 -0.00382346 
-0.429926 -2.66179 -0.00130164 
-0.212855 -2.64441 0.0461203 
-0.0180505 -2.6962 0.0483497 
0.171813 -2.66325 -0.0106392 
0.371552 -2.6391 0.0126014 
0.517787 -2.5601 -0.00370642 
0.67278 -2.48098 0.0052236 
0.853018 -2.41106 0.00157402 
1.04688 -2.32494 -0.000159791 
1.23408 -2.45789 2.94189e-05 
1.45246 -2.41822 -1.7468e-05 
1.70422 -2.44365 2.57512e-05 
1.96178 -2.40585 2.41501e-05 
2.22113 -2.40016 9.82972e-06 
2.46614 -2.37622 3.55917e-06 
2.69445 -2.40622 7.2255e-07 
2.92713 -2.37822 -7.3811e-06 
3.1406 -2.36292 -2.16075e-06 
3.36244 -2.3793 1.99935e-06 
3.57379 -2.34978 9.25082e-07 
3.78582 -2.36377 -9.17251e-07 
4.00688 -2.39228 -1.16416e-06 
4.21828 -2.35041 -1.70307e-06 
4.43748 -2.36617 -1.71984e-06 
4.648 -2.35385 -2.11551e-06 
4.86963 -2.37344 -1.2204e-06 
5.0787 -2.36169 -8.95141e-07 
5.29725 -2.39263 -2.25738e-07 
5.50989 -2.36568 -1.93335e-07 
5.73162 -2.36932 -3.35016e-07 
5.95096 -2.3955 -5.5888e-07 
6.16533 -2.35927 -6.9963e-07 
6.40151 -2.37475 2.48555e-07 
6.61506 -2.38321 2.14859e-07 
6.83649 -2.32904 1.12541e-07 
7.07142 -2.39069 -1.03987e-07 
7.28778 -2.41436 6.42452e-07 
7.54765 -2.40291 1.43295e-06 
7.79854 -2.42908 1.64681e-06 
8.00655 -2.31232 -1.40652e-06 
8.2583 -2.36194 -1.48158e-06 
8.4927 -2.31116 3.82055e-06 
-8.49304 -2.11883 -4.1993e-06 
-8.27167 -2.17552 3.15766e-06 
-8.07102 -2.09132 -7.46424e-07 
-7.80527 -2.14007 1.44518e-08 
-7.54254 -2.06569 7.62209e-07 
-7.3393 -2.25521 -2.48284e-06 
-7.09819 -2.14749 8.96329e-07 
-6.80893 -2.14961 -3.16356e-07 
-6.6055 -2.14578 -3.46284e-07 
-6.36278 -2.18054 -5.71808e-08 
-6.11807 -2.1033 -6.27533e-07 
-5.92348 -2.12496 -2.6485e-07 
-5.69434 -2.13628 -5.61233e-07 
-5.47783 -2.12148 -7.53599e-07 
-5.2593 -2.14125 2.72141e-07 
-5.04661 -2.1303 -4.57445e-07 
-4.82924 -2.13651 -2.51552e-07 
-4.60159 -2.1525 -9.86108e-07 
-4.38729 -2.15755 -1.0337e-06 
-4.17178 -2.12817 -1.47027e-06 
-3.95651 -2.1242 -2.37113e-06 
-3.74782 -2.1163 -3.94757e-06 
-3.53209 -2.13544 -4.63037e-06 
-3.31998 -2.13655 -6.4874e-06 
-3.10018 -2.14789 -7.68979e-06 
-2.88277 -2.13735 -1.43043e-05 
-2.66117 -2.15366 -2.24731e-05 
-2.42699 -2.15278 -3.70762e-05 
-2.18253 -2.18279 -4.5601e-05 
-1.92563 -2.1906 -5.39914e-05 
-1.66393 -2.14762 -8.45044e-05 
-1.39952 -2.13287 8.69229e-06 
-1.20203 -2.16436 -0.000140663 
-1.01932 -2.20565 -0.000136082 
-0.863799 -2.28206 -0.00077138 
-0.717119 -2.2375 0.000964549 
-0.534442 -2.44647 -0.000266588 
-0.387357 -2.58372 -0.0320776 
-0.191013 -2.57704 0.00663048 
0.0287993 -2.67652 -0.0108129 
0.296643 -2.57813 0.00494358 
0.444487 -2.44238 0.000661375 
0.565927 -2.39267 0.00507072 
0.703888 -2.244 0.000701071 
0.836614 -2.23524 0.00042688 
1.00663 -2.11966 0.000626499 
1.24457 -2.23828 0.000121029 
1.49409 -2.2139 0.000141276 
1.73765 -2.21624 7.91948e-05 
2.0109 -2.18663 5.15857e-05 
2.27297 -2.17499 3.79986e-05 
2.52559 -2.15319 2.39889e-05 
2.75065 -2.17959 1.22018e-05 
2.96837 -2.13224 1.22735e-05 
3.19635 -2.13982 6.16539e-06 
3.40237 -2.1323 5.58949e-06 
3.61846 -2.11482 4.64368e-06 
3.83804 -2.14152 1.89351e-06 
4.04074 -2.1457 1.965e-06 
4.26725 -2.12394 1.82325e-06 
4.4737 -2.12313 1.22804e-06 
4.69875 -2.12942 7.46731e-08 
4.90748 -2.12592 -1.30098e-07 
5.13189 -2.13515 4.64753e-07 
5.34055 -2.14594 1.82746e-07 
5.56549 -2.13434 1.68149e-07 
5.78828 -2.13931 1.69465e-07 
5.99533 -2.1441 -1.2696e-07 
6.24178 -2.14182 5.55843e-07 
6.45686 -2.12216 1.65259e-07 
6.66722 -2.1261 2.25456e-07 
6.93118 -2.12273 2.22624e-06 
7.14559 -2.14614 -2.04678e-06 
7.37746 -2.20136 -4.35405e-07 
7.55858 -2.09186 -2.49476e-06 
7.73238 -2.20332 2.6314e-06 
7.95246 -2.09238 -1.25509e-06 
8.21334 -2.13894 -3.09731e-06 
8.49308 -2.1187 2.36106e-06 
-8.48872 -1.81005 -2.25951e-06 
-8.30987 -1.9126 9.89102e-07 
-7.90518 -1.90638 8.02665e-07 
-7.67553 -1.8878 -7.002e-08 
-7.433 -1.79708 1.77257e-06 
[...]
POINT_DATA 1978 
VECTORS vectors float
0.000175804 -0.000927377 1.00229 
0.00110416 -0.00121418 1.00352 
0.0017751 -0.00141723 1.0036 
0.00262984 -0.00177609 1.00368 
0.00377217 -0.00257687 1.00358 
0.00485564 -0.00363346 1.00328 
0.00550703 -0.00474378 1.00331 
0.00613354 -0.00618728 1.00348 
0.00673467 -0.00797984 1.00321 
0.00689352 -0.0092553 1.00235 
0.00695268 -0.0104533 1.00309 
0.00699879 -0.0119151 1.00327 
0.00705641 -0.0134253 1.00322 
0.00708245 -0.0147931 1.0031 
0.00683263 -0.0162053 1.00309 
0.00618524 -0.0174893 1.0031 
0.00518571 -0.0188194 1.00308 
0.00407161 -0.0202107 1.00301 
0.00319712 -0.022055 1.00305 
0.00294681 -0.0242823 1.00301 
0.00335516 -0.0265247 1.00296 
0.00441802 -0.0290386 1.00286 
0.00553054 -0.031438 1.00278 
0.00676272 -0.0335075 1.00263 
0.00657727 -0.0354032 1.00252 
0.00385122 -0.0360148 1.00262 
-0.00104176 -0.0335253 1.00279 
-0.00728164 -0.0276292 1.00297 
-0.0136098 -0.017367 1.00323 
-0.0191687 -0.00600353 1.0035 
-0.0282609 0.00498377 1.00324 
-0.0439841 0.0194572 1.00196 
-0.0629779 0.0448179 0.999968 
-0.0973803 0.0999889 0.99266 
-0.118173 0.166506 0.980742 
-0.141454 0.254187 0.958188 
-0.15407 0.299433 0.943265 
-0.229979 0.382843 0.903411 
-0.048023 0.777014 0.621465 
-0.0451272 0.996904 -0.105581 
0.171662 0.82466 -0.546246 
0.187553 0.411722 -0.89901 
0.158902 0.296563 -0.943015 
0.147096 0.227914 -0.964237 
0.110791 0.145787 -0.984771 
0.0932424 0.103555 -0.991916 
0.0802873 0.0675822 -0.997183 
0.0528897 0.0275039 -1.00123 
0.034257 0.00522592 -1.00276 
0.0189656 -0.00814644 -1.00338 
0.0122978 -0.0148465 -1.0033 
0.00921948 -0.0243004 -1.00306 
0.00434308 -0.0338192 -1.00279 
-0.00339963 -0.0386201 -1.00253 
-0.00812726 -0.0368216 -1.00259 
-0.00858589 -0.0334971 -1.00263 
-0.00662993 -0.0305172 -1.00268 
-0.0042517 -0.0282955 -1.00283 
-0.00298203 -0.0261537 -1.00297 
-0.0028777 -0.0241371 -1.00305 
-0.0031994 -0.0221372 -1.00309 
-0.00416532 -0.0203714 -1.00306 
-0.00505142 -0.0188897 -1.00307 
-0.00598275 -0.0176705 -1.00303 
-0.00662888 -0.0165018 -1.00305 
-0.00720795 -0.0150041 -1.00301 
-0.00722046 -0.0135385 -1.00307 
-0.00709057 -0.0119711 -1.0032 
-0.00697493 -0.0104337 -1.00317 
-0.00684113 -0.00897041 -1.00322 
-0.00649096 -0.00724389 -1.00331 
-0.00596818 -0.00581655 -1.00325 
-0.00545012 -0.00469047 -1.00337 
-0.00456289 -0.00342994 -1.00345 
-0.00373457 -0.00252886 -1.00334 
-0.00284279 -0.00179198 -1.00347 
-0.00179146 -0.00129784 -1.00357 
-0.00114369 -0.00118309 -1.00344 
-0.000230162 -0.000965046 -1.00235 
-1.16426e-05 -0.00197797 1.00349 
0.000677506 -0.00192401 1.00504 
0.00145142 -0.00227143 1.00634 
0.00213311 -0.00231048 1.00625 
0.00304563 -0.00280426 1.00668 
0.0039583 -0.00390283 1.00591 
0.00446139 -0.00515949 1.00616 
0.00505324 -0.00622347 1.00608 
0.0055356 -0.0076704 1.00601 
0.00529255 -0.0091249 1.0068 
0.00581917 -0.0105487 1.00586 
0.0059019 -0.0120737 1.00588 
0.00575764 -0.0131771 1.00589 
0.00575089 -0.0144483 1.00566 
0.0054331 -0.0154999 1.00568 
0.00477219 -0.0165224 1.00571 
0.00365763 -0.0177997 1.00567 
0.0024711 -0.0197783 1.00561 
0.00163346 -0.0224308 1.0056 
0.00129337 -0.0251488 1.00561 
0.00187889 -0.0280778 1.00557 
0.00279418 -0.0306435 1.00539 
0.0038882 -0.0322867 1.00535 
0.00479828 -0.0329532 1.00524 
0.00461966 -0.0323944 1.0053 
0.00335433 -0.0301355 1.00538 
0.000375487 -0.0244008 1.00572 
-0.00402782 -0.0163089 1.00599 
-0.00923819 -0.00629547 1.00626 
-0.0146066 0.00666746 1.00643 
-0.0213395 0.0283718 1.00551 
-0.027076 0.0560287 1.00358 
-0.0455696 0.0947433 0.998805 
-0.0419925 0.159676 0.989503 
-0.0603799 0.229785 0.973139 
-0.01598 0.29461 0.956842 
-0.0834385 0.359967 0.930571 
-0.111862 0.472586 0.871675 
0.0436305 0.780528 0.627438 
0.0800354 0.980909 -0.171491 
0.0957611 0.753981 -0.637485 
0.0789467 0.526524 -0.850153 
0.0744854 0.370792 -0.926149 
0.0359276 0.28197 -0.960781 
0.0593596 0.21108 -0.977924 
0.0202377 0.163256 -0.990769 
0.0435539 0.0850122 -1.00007 
0.0311043 0.0452123 -1.00394 
0.0215082 0.0139726 -1.00572 
0.0109574 0.00024552 -1.00627 
0.00584904 -0.0101258 -1.00611 
0.00291918 -0.018339 -1.00582 
-0.000236116 -0.0278629 -1.00558 
-0.00378305 -0.0329897 -1.00531 
-0.00577998 -0.0341152 -1.00528 
-0.00561042 -0.032956 -1.00527 
-0.00389001 -0.0313056 -1.00538 
-0.00243744 -0.028948 -1.0055 
-0.00161337 -0.0259358 -1.0056 
-0.00138043 -0.0233744 -1.00571 
-0.00212413 -0.0209088 -1.00563 
-0.00304393 -0.018777 -1.00572 
-0.00421727 -0.0173166 -1.00564 
-0.00493552 -0.0160972 -1.00565 
-0.00568004 -0.0151223 -1.00563 
-0.00583309 -0.0138964 -1.00576 
-0.00594366 -0.0126609 -1.00576 
-0.00591816 -0.0111722 -1.00576 
-0.00561706 -0.00976153 -1.00596 
-0.00554471 -0.00829893 -1.00592 
-0.00518742 -0.00694329 -1.00604 
-0.00463842 -0.00586841 -1.00621 
-0.00439202 -0.00456091 -1.00606 
-0.00363727 -0.00363908 -1.00615 
-0.00292599 -0.00284448 -1.00619 
-0.00211104 -0.0022253 -1.00608 
-0.00134517 -0.00225412 -1.00643 
-0.000635084 -0.00176935 -1.00513 
-2.89267e-05 -0.00207278 -1.0036 
-0.000132992 -0.00269626 1.00371 
0.000725483 -0.00275417 1.00646 
0.0014893 -0.00304384 1.00771 
0.00215707 -0.00305044 1.00598 
0.00215894 -0.00367969 1.00667 
0.00304087 -0.0036824 1.00586 
0.00339527 -0.00476488 1.00659 
0.00360608 -0.0058453 1.00671 
0.00427021 -0.00689208 1.00659 
0.00440129 -0.00812543 1.00661 
0.0044822 -0.00975136 1.00644 
0.00469595 -0.0109948 1.00632 
0.00457094 -0.0120854 1.00632 
0.00457243 -0.0131699 1.0062 
0.00435614 -0.0139585 1.00612 
0.0039793 -0.0147682 1.00616 
0.00319274 -0.015827 1.0062 
0.00209033 -0.01781 1.00614 
0.00106275 -0.0205819 1.00607 
0.000374436 -0.0236879 1.00607 
0.000252476 -0.0268796 1.00598 
0.000709699 -0.0296352 1.00583 
0.00141175 -0.0314869 1.00573 
0.00263494 -0.0318689 1.0057 
0.00378795 -0.0311452 1.00573 
0.00421484 -0.0282067 1.00575 
0.00393615 -0.023708 1.00598 
0.00301088 -0.0165011 1.00632 
0.000614257 -0.00724282 1.00665 
-0.00220998 0.004626 1.00705 
-0.00328821 0.0218669 1.00655 
0.00420824 0.0462641 1.00529 
0.00446819 0.0833158 1.00199 
0.00439614 0.125189 0.996634 
0.0167146 0.200008 0.981869 
0.0526432 0.298943 0.952719 
-0.00340437 0.414679 0.907237 
-0.0304457 0.561564 0.826815 
-0.0477381 0.834418 0.532553 
-0.0952781 0.993301 0.0378961 
-0.014887 0.875774 -0.449602 
-0.0203077 0.635637 -0.75878 
-0.0171666 0.469339 -0.879893 
-0.0369665 0.326982 -0.944618 
-0.0334675 0.222824 -0.97635 
-0.0290706 0.144028 -0.993063 
0.00585658 0.101247 -0.998858 
0.00561155 0.0596942 -1.00395 
0.00925875 0.0270043 -1.00601 
0.00261045 0.00911539 -1.00676 
-0.000786505 -0.00481498 -1.00674 
-0.00203745 -0.0139814 -1.00636 
-0.00254285 -0.0227668 -1.006 
-0.00419786 -0.0284429 -1.00593 
-0.00408386 -0.0309876 -1.00581 
-0.00326833 -0.0322415 -1.00568 
-0.001933 -0.0318843 -1.00575 
-0.00114188 -0.0302167 -1.00582 
-0.000652624 -0.027025 -1.00589 
-0.000415065 -0.0239527 -1.00591 
-0.00106482 -0.0209402 -1.00604 
-0.00181605 -0.018349 -1.00614 
-0.00281692 -0.0164331 -1.00611 
-0.00353909 -0.0151736 -1.00613 
-0.00434757 -0.014399 -1.00615 
-0.00447665 -0.0134654 -1.0062 
-0.00472408 -0.0124755 -1.00623 
-0.00478921 -0.011409 -1.00623 
-0.00449472 -0.0101045 -1.00633 
-0.00447212 -0.0086452 -1.00645 
-0.00429763 -0.00742863 -1.00653 
-0.00376949 -0.00635879 -1.00659 
-0.00358314 -0.00528287 -1.00656 
-0.00318351 -0.00442007 -1.00646 
-0.00253879 -0.00360528 -1.00736 
-0.00197925 -0.00295191 -1.00606 
-0.00126429 -0.00297689 -1.00748 
-0.000675737 -0.00271376 -1.00632 
4.57858e-05 -0.00280635 -1.00353 
1.42595e-05 -0.00333618 1.00382 
0.000463916 -0.00314369 1.00648 
0.000927806 -0.00339633 1.00695 
0.00146131 -0.00354911 1.00789 
0.00191964 -0.00421282 1.00686 
0.00265576 -0.00438667 1.00672 
0.00283698 -0.00546389 1.00765 
0.00320739 -0.00664053 1.00678 
0.00345011 -0.00758882 1.00679 
0.0037119 -0.0088195 1.00668 
0.00351993 -0.0100336 1.00643 
0.00365041 -0.0110999 1.0064 
0.00362146 -0.0121453 1.00635 
0.00339518 -0.012716 1.0063 
0.00320943 -0.0133419 1.0063 
0.00276919 -0.0142054 1.00632 
0.00207727 -0.015788 1.00631 
0.00114635 -0.0185585 1.00629 
0.000282149 -0.0217828 1.00625 
-0.000143003 -0.0252096 1.00609 
-0.000221599 -0.0283676 1.00591 
-6.08766e-05 -0.0304851 1.00581 
0.000558488 -0.0315756 1.00567 
0.00161317 -0.0311312 1.00568 
0.00321737 -0.0294518 1.00579 
0.00483205 -0.0258916 1.00586 
0.00608544 -0.020173 1.00616 
0.0072963 -0.0122552 1.00655 
0.00740283 -0.00275806 1.00697 
0.00848221 0.010425 1.00721 
0.015542 0.027443 1.00643 
0.0319404 0.0508043 1.00466 
0.0416102 0.0798319 1.0006 
0.0577958 0.116549 0.995731 
0.0621414 0.173259 0.985954 
0.106819 0.210047 0.974018 
0.0840332 0.399907 0.91367 
0.0734463 0.587229 0.805138 
0.0820278 0.838719 0.516508 
0.0282843 0.989149 -0.0917064 
-0.0903678 0.693527 -0.719733 
-0.118912 0.477101 -0.869418 
-0.10378 0.36563 -0.924608 
-0.116109 0.245108 -0.964175 
-0.0846332 0.196193 -0.979949 
-0.0703159 0.125864 -0.99382 
-0.0270138 0.0890349 -1.00104 
-0.0142652 0.0507445 -1.00603 
-0.0086165 0.0268073 -1.00677 
-0.00862898 0.00727403 -1.00723 
-0.0069403 -0.00467043 -1.00703 
-0.00593619 -0.0143945 -1.00655 
-0.00500038 -0.0221169 -1.00624 
-0.00434974 -0.0272548 -1.00604 
-0.0025274 -0.0304862 -1.00579 
-0.00140907 -0.0319847 -1.00571 
-0.000537372 -0.0316066 -1.0057 
-0.000178268 -0.0299443 -1.00575 
1.43274e-05 -0.0271874 -1.00583 
-0.000207118 -0.0236204 -1.00595 
-0.000719512 -0.0205167 -1.00607 
-0.00146709 -0.0173714 -1.00619 
-0.00214813 -0.0150681 -1.00627 
-0.00285604 -0.0137716 -1.00628 
-0.00327118 -0.0131746 -1.00632 
-0.00349643 -0.0126545 -1.00632 
-0.0037112 -0.0117863 -1.00639 
-0.00376929 -0.0107605 -1.00648 
-0.00365012 -0.00943256 -1.00656 
-0.00349147 -0.00834557 -1.00667 
-0.00328613 -0.0073028 -1.00671 
-0.00302258 -0.00613879 -1.00674 
-0.00279957 -0.00526381 -1.00662 
-0.00244436 -0.00443364 -1.00591 
-0.00195453 -0.00417005 -1.00675 
-0.00178656 -0.0035317 -1.00695 
-0.00113181 -0.00340142 -1.00694 
-0.000628869 -0.00320963 -1.00653 
-2.63162e-05 -0.00329442 -1.00348 
0.000173703 -0.00389423 1.00375 
0.000378534 -0.00361175 1.00633 
0.00109262 -0.00381388 1.00614 
0.00147827 -0.00416237 1.00678 
0.00169935 -0.00473973 1.00726 
0.0022155 -0.00489227 1.00604 
0.00210875 -0.00547991 1.00647 
0.00254814 -0.00619456 1.00669 
0.0026303 -0.00716549 1.00649 
0.00292167 -0.00820646 1.00651 
0.00300768 -0.00919471 1.0064 
0.00278827 -0.0101944 1.00623 
0.00294113 -0.0111671 1.00621 
0.00278781 -0.0118425 1.00616 
0.00261999 -0.0124104 1.00609 
0.00238655 -0.0129105 1.00609 
0.00198486 -0.0142339 1.00612 
0.00136493 -0.0167224 1.00609 
0.000752247 -0.0203737 1.00601 
0.000209203 -0.0238761 1.00589 
-0.000111584 -0.0272721 1.00572 
-0.000230739 -0.0295653 1.0057 
-0.000146187 -0.0308439 1.00565 
0.000676589 -0.03102 1.00558 
0.00223553 -0.0302766 1.00566 
0.0043741 -0.027683 1.00578 
0.00682616 -0.0230928 1.00606 
0.00977005 -0.016807 1.00653 
0.0130584 -0.00841824 1.00687 
0.015752 0.0011481 1.00732 
0.0216014 0.0121511 1.00731 
0.0373991 0.0259738 1.00626 
0.0603898 0.0382781 1.00458 
0.0822697 0.0700755 0.999339 
0.115036 0.113595 0.991003 
0.159343 0.14837 0.978276 
0.14324 0.284138 0.942725 
0.0541178 0.493596 0.872542 
0.222057 0.717544 0.650543 
-0.0808078 0.996855 0.0550558 
-0.193782 0.684669 -0.674532 
-0.170869 0.422097 -0.884957 
-0.166238 0.287374 -0.943904 
-0.156425 0.171005 -0.975622 
-0.114988 0.114775 -0.990787 
-0.0792908 0.068157 -1 
-0.0488588 0.0704028 -1.00215 
-0.0407955 0.041801 -1.00442 
-0.0246025 0.0269871 -1.00655 
-0.0177141 0.0113643 -1.00709 
-0.013973 -0.00233966 -1.00718 
-0.0104274 -0.0124494 -1.00686 
-0.00744961 -0.0203611 -1.00632 
-0.00547486 -0.025226 -1.00602 
-0.0029822 -0.0288069 -1.00581 
-0.00130405 -0.0311559 -1.00564 
-0.000365589 -0.0316117 -1.00563 
8.23259e-06 -0.0306033 -1.00561 
-3.91556e-05 -0.028637 -1.00565 
-0.000345781 -0.0254082 -1.0058 
-0.000617692 -0.0216008 -1.0059 
-0.0011268 -0.0181505 -1.00596 
-0.00158421 -0.0152424 -1.00605 
-0.00210222 -0.0134384 -1.00617 
-0.0023933 -0.0124911 -1.00614 
-0.00273934 -0.0120153 -1.00614 
-0.00289467 -0.0114818 -1.00615 
-0.00300178 -0.0107208 -1.00621 
-0.00309984 -0.00980808 -1.00628 
-0.0028197 -0.00872368 -1.00633 
-0.00273986 -0.00768952 -1.00648 
-0.00264589 -0.00675133 -1.00658 
-0.00228978 -0.00583478 -1.00736 
-0.00209296 -0.00500972 -1.00662 
-0.00163168 -0.00449782 -1.00667 
-0.00127771 -0.00396321 -1.00684 
-0.000838704 -0.00372512 -1.00684 
-0.000467708 -0.00355017 -1.00642 
-0.000114198 -0.00370774 -1.00358 
0.00022834 -0.0041866 1.00354 
0.000434203 -0.0039851 1.00627 
0.000701465 -0.00381123 1.00683 
0.00097414 -0.00411134 1.00672 
0.00129503 -0.00443624 1.00595 
0.00173728 -0.00525759 1.00646 
0.00199781 -0.00608477 1.00639 
0.0021851 -0.00676572 1.00643 
0.00232263 -0.00781128 1.00627 
0.0024216 -0.0086763 1.00622 
0.00246242 -0.00952557 1.00612 
0.00239719 -0.0105389 1.00609 
0.00241251 -0.0112503 1.00607 
0.00219993 -0.0116528 1.00603 
0.0019482 -0.0120864 1.00602 
0.00177926 -0.0130132 1.00603 
0.00141341 -0.0153992 1.00595 
0.00119036 -0.0186284 1.00588 
0.000818609 -0.0221499 1.00581 
0.000461639 -0.0258135 1.00566 
7.36471e-05 -0.028587 1.00552 
-0.000273309 -0.0303403 1.0055 
-4.632e-07 -0.0309481 1.00544 
0.00119262 -0.0304547 1.00551 
0.00340364 -0.0289777 1.00569 
0.00639932 -0.0265751 1.00579 
0.00962185 -0.0235528 1.00609 
0.0139208 -0.0183581 1.00662 
0.0184626 -0.0114916 1.00694 
0.0225216 -0.00435191 1.00731 
0.0319179 0.00428033 1.00722 
0.0523282 0.00877465 1.00598 
0.0781911 0.0138289 1.00332 
0.1044 0.0186362 0.999681 
0.133816 0.0489619 0.994767 
0.184492 0.0626409 0.984917 
0.210471 0.226609 0.952311 
0.145555 0.493645 0.857396 
0.0647241 0.788373 0.596505 
0.0666942 0.988139 -0.0492595 
-0.0742788 0.688516 -0.744098 
-0.254104 0.380536 -0.891551 
-0.229964 0.219784 -0.949935 
-0.181594 0.101462 -0.981762 
-0.128962 0.0616823 -0.994806 
-0.0982432 0.0256154 -1.00089 
-0.0663666 0.0282314 -1.00388 
-0.0475002 0.0153505 -1.00698 
-0.0311685 0.010523 -1.00703 
-0.0223757 0.000377677 -1.00641 
-0.0172498 -0.00987051 -1.00787 
-0.0124154 -0.0169669 -1.00657 
-0.00923599 -0.0222386 -1.00622 
-0.00558193 -0.0271982 -1.00592 
-0.00299224 -0.0296376 -1.00569 
-0.00100955 -0.0309872 -1.00551 
-0.00010759 -0.0314518 -1.00554 
1.6828e-05 -0.0302889 -1.00553 
-0.000372949 -0.0280562 -1.00553 
-0.000719339 -0.0250628 -1.00572 
-0.00105099 -0.0212232 -1.00586 
-0.00122336 -0.0174634 -1.00596 
-0.00139533 -0.0144313 -1.00607 
-0.00173314 -0.0126799 -1.00606 
-0.00196321 -0.0118316 -1.00604 
-0.00230873 -0.0113949 -1.00603 
-0.0023421 -0.0108611 -1.00601 
-0.00248736 -0.0102427 -1.00602 
-0.0025876 -0.00947242 -1.00615 
-0.00232347 -0.00847176 -1.00629 
-0.00231197 -0.00747309 -1.00636 
-0.00220097 -0.00659469 -1.00565 
-0.00192639 -0.00586286 -1.00637 
-0.00176621 -0.00515099 -1.0065 
-0.00137966 -0.00462291 -1.00658 
-0.00110978 -0.00414735 -1.00679 
-0.000751923 -0.00402442 -1.0068 
-0.000427792 -0.00391659 -1.00647 
-0.000140721 -0.00402393 -1.00358 
0.000276759 -0.00447348 1.00347 
0.000613849 -0.00431515 1.0064 
0.00071077 -0.00411888 1.00684 
0.00108027 -0.0044766 1.00747 
0.00143269 -0.00482301 1.00643 
0.00156417 -0.00536547 1.00628 
0.00178497 -0.00590576 1.00566 
0.00184036 -0.00674092 1.00701 
0.0020759 -0.00743439 1.00568 
0.00211776 -0.00836499 1.00619 
0.00208698 -0.00919716 1.0062 
0.0021367 -0.0101186 1.00608 
0.00206651 -0.0108171 1.00594 
0.00197911 -0.0113223 1.00595 
0.0018273 -0.0116706 1.00587 
0.00151607 -0.0125845 1.00593 
0.00145735 -0.0144889 1.00582 
0.00126996 -0.0176145 1.00583 
0.00128319 -0.0215075 1.00572 
0.00122215 -0.0254031 1.00553 
0.000781538 -0.0283311 1.00534 
0.000368427 -0.0303424 1.0053 
0.000140712 -0.0309823 1.00524 
0.00105835 -0.0310551 1.00518 
0.00321245 -0.0307757 1.00537 
0.0066203 -0.0298546 1.00553 
0.0103162 -0.0272571 1.00569 
0.0143724 -0.0229026 1.00621 
0.0195287 -0.0179056 1.00675 
0.0254 -0.0128851 1.00707 
0.03349 -0.00887861 1.00717 
0.0504083 -0.00866298 1.00645 
0.075012 -0.0108262 1.00433 
0.101026 -0.0231786 1.0023 
0.138143 -0.0100632 0.995752 
0.208529 -6.43712e-05 0.983449 
0.268222 0.157057 0.954074 
0.305947 0.279103 0.910894 
0.238692 0.57274 0.793354 
-0.0603635 0.98192 0.160426 
-0.185172 0.690379 -0.694094 
-0.344605 0.210285 -0.910871 
-0.283649 0.153239 -0.95629 
-0.226005 0.0538199 -0.977033 
-0.154781 0.0218865 -0.992815 
-0.109374 -0.00508133 -1.00097 
-0.0730559 -0.00114535 -1.00412 
-0.0501333 -0.00237225 -1.00629 
-0.0336093 -0.00384009 -1.00728 
-0.0250086 -0.00920613 -1.00726 
-0.0221593 -0.0156761 -1.00694 
-0.0166739 -0.0192492 -1.00583 
-0.0126087 -0.025241 -1.00614 
-0.00779418 -0.0275592 -1.00592 
-0.00445452 -0.0299719 -1.0056 
-0.00184724 -0.0310561 -1.00534 
-0.000465339 -0.0315099 -1.00533 
-0.000453266 -0.0312159 -1.0053 
-0.000858335 -0.0292799 -1.00526 
-0.00111436 -0.026657 -1.0054 
-0.00137139 -0.0233148 -1.00549 
-0.00122252 -0.0190556 -1.00567 
-0.00131208 -0.0156469 -1.00582 
-0.001392 -0.0128822 -1.00592 
-0.00172214 -0.0116833 -1.00596 
-0.00189477 -0.0112531 -1.00598 
-0.00205917 -0.010922 -1.00591 
-0.00215712 -0.0103158 -1.00602 
-0.00220593 -0.00953132 -1.00624 
-0.00220561 -0.00875711 -1.00627 
-0.00207184 -0.00781068 -1.00699 
-0.00198035 -0.00682282 -1.00642 
-0.0017662 -0.00594059 -1.00644 
-0.00156306 -0.00527143 -1.00639 
-0.0013036 -0.00485636 -1.00652 
-0.00108218 -0.0043994 -1.00681 
-0.000843745 -0.00428473 -1.00667 
-0.000521297 -0.00420949 -1.00646 
-0.000171605 -0.00434952 -1.00356 
0.000439805 -0.00492379 1.00356 
0.000698278 -0.00469749 1.00626 
0.000942123 -0.0044048 1.0067 
0.00118723 -0.00474137 1.00652 
0.00133096 -0.00481882 1.00648 
0.0015808 -0.00553075 1.00636 
0.00180458 -0.00624895 1.00629 
0.00192054 -0.00709115 1.00638 
0.00196422 -0.00777838 1.00616 
0.00201981 -0.0085435 1.00625 
0.00204965 -0.00946489 1.00613 
0.00201462 -0.0102813 1.00596 
0.00192473 -0.0108489 1.00584 
0.00180178 -0.011267 1.00641 
0.00170655 -0.0118281 1.00517 
0.00144855 -0.0132538 1.00636 
0.0013704 -0.0155113 1.00506 
0.00135084 -0.0188395 1.0062 
0.00155867 -0.0229092 1.00497 
0.00157805 -0.0266614 1.00526 
0.00134844 -0.0296913 1.00511 
0.000914608 -0.0313722 1.00515 
0.00107224 -0.032143 1.00517 
0.00179533 -0.0318641 1.00518 
0.00411882 -0.0318977 1.00536 
0.00757686 -0.031643 1.0056 
0.012345 -0.0298924 1.00591 
0.0177585 -0.0257218 1.00642 
0.0239779 -0.0226098 1.00698 
0.0308715 -0.0210323 1.00728 
0.0392974 -0.0211858 1.00712 
0.056467 -0.0240091 1.00599 
0.0771087 -0.0359404 1.00417 
0.102788 -0.0596636 1.00053 
0.139082 -0.0522471 0.995359 
0.169788 -0.0724138 0.988064 
0.26462 -0.0193222 0.970784 
0.374765 0.205437 0.905799 
0.390522 0.591947 0.69321 
0.109268 0.996707 -0.0118104 
-0.272986 0.672139 -0.670454 
-0.40162 0.225281 -0.898167 
-0.284324 0.0244698 -0.961279 
-0.188894 -0.0311275 -0.986079 
-0.13249 -0.0405761 -0.996714 
-0.0902854 -0.0500799 -1.00223 
-0.0763219 -0.0259139 -1.00433 
-0.0568858 -0.0227116 -1.00585 
-0.0422627 -0.0160015 -1.00685 
-0.0317051 -0.0168358 -1.00728 
-0.0255609 -0.020434 -1.00703 
-0.0185977 -0.0247914 -1.00655 
-0.0122025 -0.0294173 -1.00604 
-0.00782532 -0.0308947 -1.0057 
-0.00412775 -0.0322297 -1.00545 
-0.00166651 -0.032457 -1.0053 
-0.00102779 -0.0324403 -1.00524 
-0.00111878 -0.0319074 -1.00517 
-0.00146672 -0.0294166 -1.00522 
-0.00164182 -0.0263454 -1.00593 
-0.00155919 -0.022507 -1.00486 
-0.00134552 -0.0186533 -1.00617 
-0.00143253 -0.0149904 -1.00577 
-0.00137961 -0.0127662 -1.0059 
-0.00173704 -0.0115373 -1.00586 
-0.00180432 -0.0109111 -1.00589 
-0.00198293 -0.0105624 -1.00523 
-0.00205559 -0.0101499 -1.00602 
-0.00210829 -0.00948314 -1.00671 
-0.00209685 -0.00853449 -1.00531 
-0.00199242 -0.00770194 -1.00613 
-0.00192354 -0.00689136 -1.0063 
-0.00178558 -0.0062891 -1.00637 
-0.00157554 -0.00553344 -1.0064 
-0.00138655 -0.00507881 -1.00636 
-0.00110475 -0.00468038 -1.00666 
-0.000885678 -0.0045831 -1.00654 
-0.000605993 -0.00455153 -1.00624 