# vtk DataFile Version 3.0 
Exported using Morpho https://github.com/Morpho-lang/morpho 
ASCII 
DATASET UNSTRUCTURED_GRID 

POINTS 1978 float 
-8.48528 -2.82843 -1.01854e-13 
-8.24954 -2.82843 -4.731e-13 
-8.013 -2.82843 6.48656e-14 
-7.78736 -2.82843 1.09899e-12 
-7.48056 -2.82843 -1.34029e-12 
-7.17885 -2.82843 6.55932e-13 
-6.97146 -2.82843 -6.07732e-13 
-6.76636 -2.82843 2.93203e-12 
-6.56757 -2.82843 3.21206e-12 
-6.37403 -2.82843 -2.77786e-12 
-6.1757 -2.82843 4.73312e-12 
-5.96384 -2.82843 1.50602e-12 
-5.74722 -2.82843 2.50044e-12 
-5.52895 -2.82843 2.09145e-12 
-5.30999 -2.82843 1.39509e-12 
-5.0917 -2.82843 6.94143e-13 
-4.8824 -2.82843 -6.02687e-13 
-4.67599 -2.82843 1.45567e-12 
-4.46092 -2.82843 1.92431e-12 
-4.26701 -2.82843 7.22723e-12 
-4.05257 -2.82843 1.00723e-11 
-3.8499 -2.82843 1.28147e-11 
-3.63229 -2.82843 1.14901e-11 
-3.42046 -2.82843 -4.66422e-12 
-3.20937 -2.82843 -3.76265e-11 
-3.01319 -2.82843 -9.29505e-11 
-2.83306 -2.82843 -1.57866e-10 
-2.65188 -2.82843 -2.77925e-10 
-2.4759 -2.82843 -3.81442e-10 
-2.29829 -2.82843 -7.13994e-10 
-2.12216 -2.82843 -5.44481e-10 
-1.95138 -2.82843 -1.37358e-09 
-1.781 -2.82843 -2.27866e-09 
-1.59748 -2.82843 -9.27622e-09 
-1.34898 -2.82843 -1.44158e-08 
-1.10298 -2.82843 -3.03777e-08 
-0.871465 -2.82843 -4.28279e-08 
-0.627027 -2.82843 8.39158e-10 
-0.0858551 -2.82843 -8.68256e-08 
0.182234 -2.82843 5.03214e-08 
0.413764 -2.82843 6.09103e-08 
0.692119 -2.82843 9.85512e-08 
0.914218 -2.82843 8.49873e-09 
1.12603 -2.82843 1.61642e-08 
1.34775 -2.82843 5.9416e-09 
1.5495 -2.82843 1.11961e-08 
1.74791 -2.82843 5.52628e-09 
1.94983 -2.82843 2.36777e-09 
2.1429 -2.82843 9.95355e-10 
2.32446 -2.82843 5.47594e-11 
2.52676 -2.82843 3.10284e-10 
2.66851 -2.82843 2.2986e-10 
2.84539 -2.82843 2.35765e-10 
3.02792 -2.82843 1.69121e-10 
3.22588 -2.82843 2.44963e-11 
3.42562 -2.82843 1.47783e-12 
3.64062 -2.82843 -1.00649e-11 
3.85524 -2.82843 -1.539e-11 
4.06725 -2.82843 -8.0662e-12 
4.27339 -2.82843 -3.96952e-12 
4.47551 -2.82843 -1.51137e-12 
4.67724 -2.82843 3.12051e-13 
4.87688 -2.82843 -2.45401e-13 
5.0733 -2.82843 -8.6488e-13 
5.27559 -2.82843 -8.42431e-13 
5.49456 -2.82843 -2.69632e-12 
5.70828 -2.82843 -2.24893e-12 
5.92977 -2.82843 -2.21568e-12 
6.15932 -2.82843 -1.06534e-12 
6.37892 -2.82843 -1.33283e-12 
6.60893 -2.82843 -9.01613e-13 
6.82721 -2.82843 1.98868e-15 
7.04639 -2.82843 -2.62939e-13 
7.3042 -2.82843 1.48798e-12 
7.52664 -2.82843 2.86124e-13 
7.75535 -2.82843 1.58594e-12 
8.02181 -2.82843 -3.33147e-13 
8.21848 -2.82843 -2.35481e-13 
8.48528 -2.82843 2.47622e-13 
-8.48528 -2.61139 -2.73678e-12 
-8.23954 -2.59828 3.09277e-16 
-8.01752 -2.58153 6.37904e-17 
-7.79033 -2.58179 -4.77892e-17 
-7.55366 -2.64867 6.07193e-16 
-7.27004 -2.64647 -1.6901e-16 
-6.99811 -2.58133 -9.02086e-17 
-6.77419 -2.57362 -9.69507e-16 
-6.55477 -2.57197 3.96309e-16 
-6.33599 -2.58279 6.37519e-16 
-6.10941 -2.58747 1.21275e-15 
-5.88246 -2.58963 2.22281e-15 
-5.65766 -2.58955 3.73649e-15 
-5.43194 -2.59603 6.1402e-15 
-5.2081 -2.60231 9.54022e-15 
-4.99174 -2.59788 1.43219e-14 
-4.78091 -2.59767 2.0761e-14 
-4.56864 -2.60826 3.03827e-14 
-4.36355 -2.5833 4.87683e-14 
-4.15793 -2.60237 -1.36129e-20 
-3.94884 -2.58554 -2.51356e-20 
-3.73718 -2.5994 -4.82791e-20 
-3.51775 -2.5928 -9.41277e-20 
-3.30141 -2.59829 -1.97203e-19 
-3.08948 -2.58715 -3.75765e-19 
-2.88996 -2.57642 -6.28684e-19 
-2.70454 -2.58873 -1.00579e-18 
-2.51502 -2.57995 -1.54284e-18 
-2.33412 -2.59184 -2.2851e-18 
-2.15135 -2.56387 -3.38259e-18 
-1.96816 -2.54561 -6.71908e-18 
-1.78179 -2.53539 -8.38032e-18 
-1.57233 -2.56838 -1.94103e-17 
-1.33676 -2.60089 -2.48488e-17 
-1.15767 -2.49431 -4.85988e-17 
-0.940738 -2.54316 -6.02293e-17 
-0.666708 -2.53901 -4.53254e-17 
-0.411194 -2.68084 2.30176e-17 
-0.239735 -2.51358 -4.88247e-17 
0.0159952 -2.54359 2.29541e-17 
0.260392 -2.47292 5.06334e-17 
0.495992 -2.49984 8.0972e-17 
0.750663 -2.54105 5.69793e-17 
1.00638 -2.54487 3.18102e-17 
1.21063 -2.35261 3.84601e-17 
1.27158 -2.58759 3.05739e-17 
1.51547 -2.56299 2.36569e-17 
1.73698 -2.57244 1.65145e-17 
1.95851 -2.57699 5.49234e-18 
2.17013 -2.58768 3.585e-18 
2.39507 -2.62351 1.44058e-18 
2.56814 -2.52168 1.55659e-18 
2.74707 -2.5889 9.04181e-19 
2.95283 -2.59924 5.53243e-19 
3.16547 -2.60009 3.3346e-19 
3.387 -2.58991 1.51684e-19 
3.60952 -2.59651 6.60171e-20 
3.83926 -2.5947 2.69731e-20 
4.06444 -2.5873 1.5705e-20 
4.28227 -2.59309 8.2292e-21 
4.49588 -2.59617 -3.32332e-14 
4.70543 -2.594 -2.36637e-14 
4.90976 -2.58804 -1.68822e-14 
5.11843 -2.59089 -1.15137e-14 
5.33697 -2.60267 -7.20692e-15 
5.55643 -2.59216 -4.5379e-15 
5.77936 -2.59515 -2.79261e-15 
6.00943 -2.59995 -1.60348e-15 
6.23544 -2.58699 -8.43897e-16 
6.46381 -2.59765 1.33258e-15 
6.69147 -2.58464 7.58251e-16 
6.91037 -2.584 3.37326e-16 
7.15086 -2.6189 1.78668e-16 
7.39027 -2.58529 1.19793e-16 
7.61413 -2.58962 2.64604e-17 
7.8639 -2.62343 -4.07477e-17 
8.07631 -2.54909 9.64846e-17 
8.30415 -2.62099 -1.55691e-16 
8.48528 -2.52376 9.57798e-13 
-8.48528 -2.39161 2.20906e-12 
-8.25977 -2.35564 -1.80431e-16 
-8.01579 -2.34567 -1.62117e-17 
-7.78326 -2.3513 -1.82893e-17 
-7.5667 -2.22383 -2.30695e-17 
-7.52745 -2.4443 -3.30796e-17 
-7.24538 -2.44478 -5.48657e-17 
-6.99577 -2.3525 -2.79796e-16 
-6.74846 -2.34793 -6.88231e-16 
-6.50692 -2.33908 5.13463e-16 
-6.27339 -2.35342 1.02482e-15 
-6.03865 -2.35403 2.04964e-15 
-5.81197 -2.35221 3.40567e-15 
-5.58136 -2.36047 5.47691e-15 
-5.35367 -2.37166 8.42115e-15 
-5.13594 -2.37268 1.27185e-14 
-4.9195 -2.37039 1.89009e-14 
-4.7014 -2.3781 2.84158e-14 
-4.49706 -2.369 4.41076e-14 
-4.2762 -2.35994 -1.10253e-20 
-4.0715 -2.362 -1.86592e-20 
-3.85026 -2.35784 -3.5125e-20 
-3.63395 -2.3692 -7.15863e-20 
-3.40788 -2.36424 -1.38249e-19 
-3.19484 -2.36166 -2.56285e-19 
-2.97974 -2.34598 -4.66288e-19 
-2.77299 -2.33712 -8.02258e-19 
-2.57712 -2.36089 -1.35372e-18 
-2.36043 -2.35225 -2.20633e-18 
-2.15618 -2.31767 -3.61698e-18 
-1.93298 -2.29141 -5.99263e-18 
-1.71017 -2.28357 -1.16666e-17 
-1.51499 -2.1144 -8.92101e-18 
-1.45613 -2.34833 -2.16951e-17 
-1.24772 -2.22382 -4.45098e-17 
-1.00401 -2.21806 -5.13518e-17 
-0.770643 -2.29116 -5.09511e-17 
-0.488778 -2.30812 -5.79666e-17 
-0.321838 -2.13784 -5.97892e-17 
-0.0841434 -2.22144 -5.33946e-17 
0.153334 -2.18106 1.21569e-17 
0.417776 -2.12562 4.43618e-17 
0.669623 -2.22587 5.52699e-17 
0.903875 -2.28243 7.57336e-17 
1.07074 -2.1051 2.2727e-17 
1.3138 -2.09049 2.08435e-17 
1.47319 -2.31112 2.00428e-17 
1.70583 -2.30985 1.13155e-17 
1.92086 -2.3372 7.73397e-18 
2.13434 -2.34859 4.27803e-18 
2.33967 -2.39998 2.56385e-18 
2.53762 -2.29343 1.1539e-18 
2.74259 -2.33372 8.84351e-19 
2.92778 -2.37351 6.46559e-19 
3.13269 -2.37196 3.41913e-19 
3.34271 -2.36652 1.83252e-19 
3.56756 -2.36373 8.59027e-20 
3.79048 -2.36846 4.12336e-20 
4.01464 -2.36046 2.07945e-20 
4.23675 -2.36235 1.1432e-20 
4.4516 -2.36637 -4.48801e-14 
4.66194 -2.36407 -2.97276e-14 
4.86992 -2.35247 -2.0414e-14 
5.07679 -2.35752 -1.39191e-14 
5.29119 -2.37179 -9.4061e-15 
5.50604 -2.36332 -6.21541e-15 
5.7291 -2.36243 -3.89891e-15 
5.9545 -2.36981 -2.27256e-15 
6.17965 -2.3551 -1.31949e-15 
6.41027 -2.36021 -6.83492e-16 
6.63329 -2.35467 9.89597e-16 
6.86249 -2.33678 4.69369e-16 
7.08651 -2.38399 1.59026e-16 
7.31413 -2.37307 8.60603e-17 
7.55912 -2.34284 3.58698e-17 
7.78769 -2.39383 9.98864e-18 
8.0049 -2.32023 1.59894e-17 
8.24932 -2.35833 -3.61098e-17 
8.48528 -2.29704 1.48142e-13 
-8.48528 -2.14587 -5.38187e-13 
-8.22873 -2.13457 -1.67972e-16 
-8.01858 -2.08714 -8.09897e-19 
-7.80003 -2.10148 -2.00452e-18 
-7.50406 -2.02462 -8.12094e-18 
-7.31002 -2.25014 -6.95621e-17 
-7.07549 -2.1545 -8.62108e-17 
-6.8119 -2.13376 -1.94035e-16 
-6.57044 -2.12238 -5.14699e-16 
-6.32527 -2.11606 -1.22864e-15 
-6.10364 -2.12442 7.75425e-16 
-5.8763 -2.11177 1.24815e-15 
-5.65575 -2.12609 2.04988e-15 
-5.43298 -2.1396 3.24963e-15 
-5.21902 -2.1397 4.75757e-15 
-5.009 -2.14446 6.97274e-15 
-4.79333 -2.15422 1.07197e-14 
-4.58637 -2.13901 1.58396e-14 
-4.37564 -2.14628 2.62011e-14 
-4.15971 -2.12383 4.17158e-14 
-3.94783 -2.13435 -1.17096e-20 
-3.72356 -2.1328 -2.2878e-20 
-3.50464 -2.14375 -4.71079e-20 
-3.28334 -2.1258 -8.09368e-20 
-3.07315 -2.12537 -1.33688e-19 
-2.86266 -2.10528 -1.99245e-19 
-2.65317 -2.11206 -3.77771e-19 
-2.45693 -2.14313 -7.00195e-19 
-2.25646 -2.09976 -6.49513e-19 
-2.02665 -2.08542 -1.30258e-18 
-1.7856 -2.03415 -1.70173e-18 
-1.54061 -1.90446 1.54496e-18 
-1.25265 -1.96779 -3.27041e-19 
-1.10862 -1.73567 7.9936e-18 
-0.964652 -1.98033 -7.00163e-18 
-0.684379 -2.03317 -8.9502e-17 
-0.467884 -1.89622 1.99518e-17 
-0.308655 -1.65659 3.62196e-17 
-0.105783 -1.86889 -7.9699e-18 
0.0938941 -1.50405 4.83443e-17 
0.15336 -1.86361 -3.25825e-17 
0.353755 -1.39347 -3.72238e-17 
0.362125 -1.739 4.23658e-17 
0.607299 -1.90111 3.52572e-18 
0.848678 -1.92824 2.32928e-17 
1.10524 -1.83174 -3.57312e-18 
1.55051 -2.04544 8.15262e-18 
1.7722 -2.06026 2.76372e-18 
1.9764 -2.09778 2.3649e-18 
2.17162 -2.09444 9.49803e-19 
2.35131 -2.16644 1.08364e-18 
2.57129 -2.05942 2.28376e-19 
2.76539 -2.11201 2.1031e-19 
2.97284 -2.14093 1.40204e-19 
3.17568 -2.13505 1.19648e-19 
3.39335 -2.14091 5.24154e-20 
3.61872 -2.13535 2.94624e-20 
3.84041 -2.13795 1.61493e-20 
4.06525 -2.13477 -4.95476e-14 
4.28426 -2.13539 -2.84763e-14 
4.4955 -2.13569 -1.77808e-14 
4.7032 -2.13047 -1.11543e-14 
4.91232 -2.1194 -6.86314e-15 
5.12556 -2.13267 -5.034e-15 
5.33408 -2.136 -3.74414e-15 
5.55266 -2.13389 -2.47108e-15 
5.77538 -2.13345 -1.59327e-15 
5.99361 -2.1328 -9.93026e-16 
6.22317 -2.12605 -5.25988e-16 
6.44384 -2.12028 7.70256e-16 
6.66979 -2.12086 3.54167e-16 
6.89974 -2.10104 1.1165e-16 
7.11631 -2.1487 1.14468e-16 
7.35399 -2.15089 2.26685e-17 
7.56942 -2.09049 2.53603e-17 
7.77873 -2.15308 8.98287e-18 
7.9952 -2.07941 5.32079e-18 
8.2263 -2.13463 5.19085e-18 
8.48528 -2.09016 -8.18015e-13 
-8.48528 -1.82075 -1.06982e-12 
-8.31983 -1.91587 3.26926e-16 
-7.90706 -1.83901 -3.43686e-19 
-7.68065 -1.87966 -5.10062e-19 
[...]
POINT_DATA 1978 
VECTORS vectors float
5.71137e-06 4.59384e-05 1 
-6.90064e-06 0.000646136 1 
-3.1817e-08 0.000773065 1 
-4.99395e-06 0.000889604 1 
-7.33035e-06 0.0011072 0.999999 
-7.90644e-06 0.00144908 0.999999 
-9.63621e-06 0.00183365 0.999998 
-9.36499e-06 0.00241511 0.999997 
-1.28109e-05 0.00314483 0.999995 
-1.63458e-05 0.00417317 0.999991 
-2.12942e-05 0.00541849 0.999985 
-2.79814e-05 0.00705118 0.999975 
-3.40289e-05 0.00900864 0.999959 
-3.93143e-05 0.0112314 0.999937 
-4.44347e-05 0.0137661 0.999905 
-4.81011e-05 0.0166465 0.999861 
-5.27998e-05 0.0197491 0.999805 
-5.72575e-05 0.0231761 0.999731 
-6.41664e-05 0.0272055 0.99963 
-7.61166e-05 0.0314289 0.999506 
-9.18294e-05 0.0370921 0.999312 
-0.000118133 0.0438031 0.99904 
-0.000149277 0.0530011 0.998594 
-0.000186359 0.0647648 0.997901 
-0.000203703 0.0798778 0.996805 
-0.00021138 0.0967779 0.995306 
-0.000239889 0.115198 0.993343 
-0.000265066 0.136386 0.990656 
-0.000322239 0.16395 0.986469 
-0.00032436 0.190384 0.98171 
-0.000406936 0.222841 0.974855 
-0.000436585 0.259988 0.965612 
-0.000575603 0.30398 0.952678 
-0.000880576 0.360232 0.932862 
-0.00139444 0.466945 0.884285 
-0.00154428 0.586979 0.809601 
-0.00195134 0.706986 0.707225 
-0.00406495 0.825546 0.564319 
-0.00364753 0.995813 0.0913294 
-0.000296562 0.98541 -0.170194 
0.00101556 0.923063 -0.384648 
0.00132065 0.789558 -0.613675 
0.00114293 0.677678 -0.735358 
0.000795356 0.569487 -0.822 
0.000735752 0.488477 -0.872577 
0.000863455 0.405549 -0.914073 
0.000868465 0.32645 -0.945214 
0.000623543 0.261569 -0.965185 
0.000561532 0.2175 -0.97606 
0.000300605 0.184318 -0.982867 
0.00030048 0.15615 -0.987733 
0.000266479 0.138397 -0.990377 
0.000195151 0.117074 -0.993123 
0.000214377 0.0981185 -0.995175 
0.000206609 0.0789093 -0.996882 
0.000179588 0.0640486 -0.997947 
0.000143996 0.0518674 -0.998654 
0.000113413 0.0431653 -0.999068 
8.45945e-05 0.0363411 -0.999339 
6.85751e-05 0.0312111 -0.999513 
5.84103e-05 0.0270091 -0.999635 
5.17326e-05 0.0232716 -0.999729 
4.71648e-05 0.0198952 -0.999802 
4.40437e-05 0.0168867 -0.999857 
4.11351e-05 0.0141382 -0.9999 
3.89365e-05 0.0115297 -0.999934 
3.48954e-05 0.00931976 -0.999957 
3.0597e-05 0.00732473 -0.999973 
2.60204e-05 0.00557483 -0.999984 
2.10066e-05 0.00420352 -0.999991 
1.62327e-05 0.00307596 -0.999995 
1.2541e-05 0.00227988 -0.999997 
9.62065e-06 0.00171665 -0.999999 
7.49726e-06 0.00128479 -0.999999 
4.98435e-06 0.00103712 -0.999999 
3.85833e-06 0.000872318 -1 
1.08784e-06 0.000737186 -1 
5.21135e-06 0.000634351 -1 
7.33597e-07 -8.73659e-05 -1 
0.000204853 -0.000305579 1 
2.69381e-05 0.000769217 1 
-9.94016e-05 0.000883447 1 
-0.00020047 0.000999777 0.999999 
-0.00022447 0.00112359 0.999999 
-0.000321394 0.00144454 0.999999 
-0.000600229 0.00203659 0.999998 
-0.000726816 0.00265961 0.999996 
-0.000948997 0.00355739 0.999993 
-0.00109058 0.0046724 0.999988 
-0.00125934 0.0061828 0.99998 
-0.00150137 0.00804625 0.999966 
-0.00178964 0.0101883 0.999946 
-0.00206003 0.0125881 0.999919 
-0.00231901 0.0152912 0.99988 
-0.00267253 0.0182392 0.99983 
-0.00298062 0.0214587 0.999765 
-0.00318043 0.0251628 0.999678 
-0.00388329 0.0294006 0.99956 
-0.00410518 0.0344287 0.999399 
-0.00498111 0.0407702 0.999156 
-0.00562323 0.0488027 0.998793 
-0.00691937 0.059709 0.998192 
-0.00856468 0.073348 0.99727 
-0.0111677 0.0898914 0.995889 
-0.0139085 0.108846 0.993961 
-0.0154804 0.130438 0.991336 
-0.0169658 0.159179 0.987104 
-0.0192435 0.191155 0.981371 
-0.0259312 0.219292 0.975315 
-0.0256106 0.254572 0.966715 
-0.0282915 0.305687 0.951711 
-0.0313585 0.375135 0.92644 
-0.0274855 0.458834 0.888097 
-0.0354459 0.555517 0.830749 
-0.0326232 0.672864 0.739046 
-0.0283206 0.802672 0.595748 
-0.0136986 0.910446 0.4134 
-0.0169751 0.9655 0.259849 
-0.00513474 0.999962 0.00708089 
0.00711125 0.973317 -0.229356 
0.0165666 0.900346 -0.434859 
0.0207791 0.786538 -0.617193 
0.0249658 0.626966 -0.778646 
0.0386758 0.537815 -0.842175 
0.0283044 0.507646 -0.8611 
0.0271509 0.411273 -0.911108 
0.0256574 0.329082 -0.943953 
0.022937 0.262056 -0.96478 
0.0208541 0.214174 -0.976573 
0.0159549 0.175901 -0.984279 
0.0190901 0.152278 -0.988153 
0.0141233 0.12922 -0.991515 
0.0119667 0.106239 -0.994269 
0.00913465 0.0853969 -0.996305 
0.00720912 0.0674528 -0.997696 
0.00553536 0.0540131 -0.998525 
0.00462295 0.0437921 -0.99903 
0.00405203 0.0365872 -0.999322 
0.00358249 0.0310465 -0.999512 
0.00324197 0.026489 -0.999644 
0.0030289 0.0226257 -0.999739 
0.00284097 0.0193061 -0.99981 
0.00253668 0.016285 -0.999864 
0.00212072 0.0134583 -0.999907 
0.0019235 0.0109978 -0.999938 
0.00162362 0.00881894 -0.99996 
0.00134083 0.00689151 -0.999975 
0.00116068 0.00533184 -0.999985 
0.000923776 0.00401797 -0.999992 
0.000787947 0.0030272 -0.999995 
0.000633643 0.00229456 -0.999997 
0.000432616 0.00168356 -0.999998 
0.000381639 0.00133362 -0.999999 
0.000274863 0.0010879 -0.999999 
0.000151032 0.000896011 -1 
8.44544e-05 0.000840824 -1 
-5.24853e-05 0.000681629 -1 
-0.000211529 -0.000441572 -1 
0.000240996 -0.000420574 1 
1.77944e-05 0.000977143 1 
-0.000194208 0.00107105 0.999999 
-0.000353043 0.00117704 0.999999 
-0.000585588 0.00147826 0.999999 
-0.000438126 0.00129675 0.999999 
-0.000615745 0.00167253 0.999998 
-0.000946638 0.0023709 0.999997 
-0.00119648 0.00317336 0.999994 
-0.00154207 0.0042868 0.99999 
-0.00181779 0.0055605 0.999983 
-0.00221201 0.00717413 0.999972 
-0.00260092 0.00901432 0.999956 
-0.00304173 0.0111664 0.999933 
-0.00348007 0.0136033 0.999901 
-0.00394452 0.0162624 0.99986 
-0.00442812 0.0192824 0.999804 
-0.00489043 0.0227732 0.999729 
-0.00541199 0.0266619 0.99963 
-0.0060732 0.0318333 0.999475 
-0.00676281 0.0376616 0.999268 
-0.00785393 0.0455466 0.998931 
-0.00931647 0.0554209 0.99842 
-0.011621 0.0688355 0.99756 
-0.0145378 0.0844185 0.996324 
-0.0181822 0.103233 0.994491 
-0.0215891 0.124752 0.991953 
-0.0239499 0.148553 0.988614 
-0.0267376 0.180106 0.983284 
-0.0311153 0.217725 0.975514 
-0.0342087 0.269652 0.96235 
-0.037973 0.334153 0.941754 
-0.0405034 0.402838 0.914375 
-0.0421879 0.4368 0.898569 
-0.0456398 0.534281 0.844074 
-0.0451902 0.653368 0.75569 
-0.0426471 0.763351 0.644575 
-0.0344259 0.886278 0.461872 
-0.0271376 0.953743 0.299396 
-0.0150924 0.995521 0.0933302 
-0.00101378 0.989158 -0.146854 
0.0132949 0.920099 -0.391459 
0.0263418 0.813685 -0.580709 
0.0336348 0.700382 -0.712976 
0.0365746 0.606276 -0.794413 
0.0381454 0.483131 -0.874717 
0.0380501 0.416542 -0.90832 
0.0359483 0.338329 -0.940341 
0.0337918 0.274305 -0.961049 
0.030638 0.226216 -0.973595 
0.0263394 0.187149 -0.981978 
0.0241911 0.158784 -0.987017 
0.0206901 0.133519 -0.99083 
0.0177384 0.111915 -0.993559 
0.0140769 0.0909762 -0.995754 
0.011081 0.0730685 -0.997265 
0.00874572 0.0586542 -0.99824 
0.00721722 0.0474228 -0.998849 
0.00632176 0.0389916 -0.99922 
0.00568294 0.0325904 -0.999453 
0.00522916 0.0275552 -0.999607 
0.00488153 0.023485 -0.999712 
0.00455929 0.0200445 -0.999789 
0.00412604 0.0170473 -0.999846 
0.0036076 0.0142747 -0.999892 
0.00320321 0.0118494 -0.999925 
0.00275632 0.00962455 -0.99995 
0.00231276 0.00768781 -0.999968 
0.00197004 0.0060916 -0.999979 
0.00161847 0.00471273 -0.999988 
0.00134284 0.00365211 -0.999992 
0.00110524 0.00282116 -0.999995 
0.000842533 0.00212388 -0.999997 
0.000680347 0.00167547 -0.999998 
0.000523383 0.00135664 -0.999999 
0.000336947 0.00110318 -0.999999 
0.000223038 0.00105085 -0.999999 
1.79869e-06 0.000938785 -1 
-0.000228715 -0.000391686 -1 
0.00019651 -0.000810616 1 
-7.74375e-05 0.00120437 0.999999 
-0.000296092 0.00130051 0.999999 
-0.000477094 0.00140163 0.999999 
-0.000727133 0.00176912 0.999998 
-0.000765411 0.00182947 0.999998 
-0.00103203 0.0025029 0.999996 
-0.00129729 0.00334759 0.999994 
-0.00160554 0.00438317 0.999989 
-0.0019606 0.00569556 0.999982 
-0.00231972 0.00706816 0.999972 
-0.00274954 0.00883392 0.999957 
-0.00320111 0.0107119 0.999937 
-0.00369504 0.0129585 0.999909 
-0.00418285 0.0154109 0.999872 
-0.00465833 0.0181092 0.999825 
-0.00513641 0.0212674 0.999761 
-0.00560087 0.0248654 0.999675 
-0.00613111 0.029414 0.999549 
-0.00673626 0.0352707 0.999355 
-0.00752508 0.0423454 0.999075 
-0.00872559 0.0517196 0.998624 
-0.0105759 0.063508 0.997925 
-0.013038 0.0788586 0.996801 
-0.0159916 0.0964726 0.995207 
-0.018832 0.117364 0.99291 
-0.022145 0.142792 0.989505 
-0.0253344 0.169896 0.985136 
-0.026841 0.201808 0.979057 
-0.0301707 0.249238 0.967972 
-0.0329771 0.307798 0.95088 
-0.0340297 0.389649 0.920334 
-0.0408116 0.508185 0.86028 
-0.0340746 0.568643 0.821878 
-0.0414046 0.649289 0.759414 
-0.0394378 0.79361 0.607147 
-0.0334242 0.886867 0.460815 
-0.0255693 0.947092 0.319943 
-0.0173499 0.99415 0.10661 
-0.0118923 0.995729 -0.0915523 
-0.00425887 0.987535 -0.157344 
-0.00453265 0.923617 -0.383291 
0.00417619 0.926519 -0.376225 
0.0183354 0.825702 -0.563808 
0.0261107 0.706884 -0.706848 
0.0265735 0.583295 -0.811826 
0.0329584 0.388942 -0.920673 
0.0320224 0.317764 -0.947629 
0.029796 0.26331 -0.964251 
0.0277144 0.220631 -0.974963 
0.0261251 0.186717 -0.982066 
0.0200463 0.153964 -0.987873 
0.0179505 0.130981 -0.991222 
0.0157045 0.107998 -0.994027 
0.0127784 0.088339 -0.996009 
0.0100176 0.0711742 -0.997414 
0.00817575 0.0566967 -0.998358 
0.00709 0.0460354 -0.998915 
0.00633731 0.0377373 -0.999268 
0.0058554 0.0314168 -0.999489 
0.00550918 0.0266084 -0.999631 
0.00517579 0.0227611 -0.999728 
0.00479642 0.0194769 -0.999799 
0.00436516 0.0165453 -0.999854 
0.00391558 0.0140326 -0.999894 
0.00344044 0.011688 -0.999926 
0.00296628 0.00959094 -0.99995 
0.00252935 0.00781651 -0.999966 
0.00212004 0.00625768 -0.999978 
0.00177867 0.00500536 -0.999986 
0.00147858 0.00394346 -0.999991 
0.00122926 0.00311859 -0.999994 
0.000998363 0.00239445 -0.999997 
0.000797567 0.00187042 -0.999998 
0.000650396 0.00158238 -0.999999 
0.00046542 0.0013143 -0.999999 
0.000321462 0.00127468 -0.999999 
8.32744e-05 0.00117155 -0.999999 
-0.000182178 -0.000578747 -1 
4.92877e-05 -0.00109636 0.999999 
-6.15934e-05 0.00140099 0.999999 
-0.000474167 0.00154439 0.999999 
-0.000648201 0.00169554 0.999998 
-0.000842917 0.0021144 0.999997 
-0.000914611 0.00222003 0.999997 
-0.0010328 0.00270265 0.999996 
-0.00116834 0.00309607 0.999995 
-0.00141336 0.004077 0.999991 
-0.0016951 0.00520377 0.999985 
-0.00197717 0.00647351 0.999977 
-0.00235261 0.007867 0.999966 
-0.00276821 0.00962501 0.99995 
-0.00324082 0.0115027 0.999929 
-0.00369824 0.0136078 0.999901 
-0.00414915 0.0159717 0.999864 
-0.00460972 0.0187038 0.999814 
-0.00501066 0.0217353 0.999751 
-0.00540812 0.02554 0.999659 
-0.00584403 0.030285 0.999524 
-0.00625387 0.0364947 0.999314 
-0.00691734 0.0444063 0.99899 
-0.00781325 0.0543362 0.998492 
-0.00939734 0.0668621 0.997718 
-0.0112904 0.0830736 0.996479 
-0.0133975 0.101065 0.99479 
-0.0157129 0.123807 0.992182 
-0.0189138 0.151413 0.98829 
-0.0207834 0.176985 0.983994 
-0.0231746 0.219182 0.975409 
-0.0253375 0.270187 0.962474 
-0.0265794 0.3362 0.941415 
-0.0298473 0.444356 0.895353 
-0.0268169 0.520851 0.853226 
-0.0345301 0.730592 0.68194 
-0.0304018 0.837966 0.544875 
-0.0276004 0.887695 0.459604 
-0.0260721 0.940154 0.339751 
-0.0209412 0.98729 0.157545 
-0.0232974 0.995198 0.0950677 
-0.016206 0.991501 -0.12909 
-0.00678249 0.876781 -0.480841 
0.0090405 0.821469 -0.570182 
0.0156711 0.69082 -0.722857 
0.0157977 0.583208 -0.812169 
0.0162256 0.479641 -0.877315 
0.0268482 0.476503 -0.878763 
0.0235513 0.374423 -0.926959 
0.0230125 0.307106 -0.951397 
0.0223596 0.253573 -0.967058 
0.0210976 0.2099 -0.977495 
0.020254 0.177137 -0.983978 
0.0132397 0.13337 -0.990978 
0.0124594 0.112921 -0.993526 
0.0101558 0.0930997 -0.995605 
0.00830261 0.0761342 -0.997063 
0.00707544 0.0610035 -0.998112 
0.00618255 0.0489561 -0.998782 
0.00577473 0.0401479 -0.999177 
0.00547664 0.0330459 -0.999439 
0.00523196 0.027674 -0.999603 
0.00498178 0.0235662 -0.99971 
0.0046852 0.0202413 -0.999784 
0.00432985 0.0172893 -0.999841 
0.00391529 0.0147745 -0.999883 
0.00348094 0.0125348 -0.999915 
0.0030181 0.0104764 -0.999941 
0.00257361 0.00867039 -0.999959 
0.00218636 0.0071235 -0.999972 
0.00183094 0.00580377 -0.999981 
0.00154648 0.00467265 -0.999988 
0.00131396 0.00374757 -0.999992 
0.00109609 0.00288349 -0.999995 
0.000917829 0.00226096 -0.999997 
0.000760375 0.00187706 -0.999998 
0.000556394 0.00154959 -0.999999 
0.000369252 0.00146811 -0.999999 
0.000123442 0.00138683 -0.999999 
-7.11176e-05 -0.000670405 -1 
-0.000128261 -0.000880214 1 
-0.000235889 0.00166955 0.999999 
-0.000284981 0.00149701 0.999999 
-0.000584231 0.00175931 0.999998 
-0.000728969 0.0019068 0.999998 
-0.000974802 0.00262894 0.999996 
-0.00116695 0.0034297 0.999993 
-0.00131196 0.00408308 0.999991 
-0.00153694 0.00522447 0.999985 
-0.00175625 0.00645543 0.999978 
-0.00208721 0.0078243 0.999967 
-0.00244564 0.00928687 0.999954 
-0.00290506 0.0111902 0.999933 
-0.00334088 0.0131075 0.999909 
-0.00377243 0.0152426 0.999877 
-0.00421228 0.0177341 0.999834 
-0.00456861 0.0205254 0.999779 
-0.00489153 0.0238637 0.999703 
-0.00518176 0.0282318 0.999588 
-0.00541708 0.0336113 0.99942 
-0.00571376 0.0410684 0.99914 
-0.00608137 0.0498692 0.998737 
-0.0067787 0.0612501 0.998099 
-0.00795783 0.0755311 0.997112 
-0.00903057 0.0936574 0.995564 
-0.0106011 0.113221 0.993513 
-0.0128508 0.139372 0.990157 
-0.0133247 0.166558 0.985942 
-0.0172873 0.198998 0.979847 
-0.0191512 0.244802 0.969384 
-0.0199253 0.303439 0.952643 
-0.0226718 0.398714 0.916795 
-0.0203011 0.471956 0.881388 
-0.0234561 0.58592 0.810029 
-0.0292739 0.660063 0.75064 
-0.0278225 0.75135 0.659317 
-0.025547 0.785398 0.618463 
-0.0272972 0.896989 0.441209 
-0.0287185 0.953438 0.300217 
-0.0255102 0.999373 -0.0245672 
-0.0158783 0.946585 -0.322063 
-0.0243957 0.941488 -0.336162 
-0.0101461 0.825988 -0.563596 
0.00407233 0.76543 -0.643506 
0.00621934 0.643932 -0.765057 
0.00842409 0.53038 -0.847718 
0.016297 0.394633 -0.918694 
0.0145448 0.314791 -0.94905 
0.0146925 0.262147 -0.964916 
0.0142738 0.218794 -0.975667 
0.0135062 0.180421 -0.983497 
0.0130136 0.153208 -0.988108 
0.00778552 0.130385 -0.991433 
0.00789206 0.11077 -0.993815 
0.00628442 0.0917405 -0.995763 
0.00554502 0.0741042 -0.997235 
0.00516676 0.0594285 -0.998219 
0.00481074 0.0477671 -0.998847 
0.00484273 0.0390782 -0.999224 
0.00480712 0.0322718 -0.999468 
0.00471354 0.0270959 -0.999622 
0.00455523 0.0230674 -0.999724 
0.00432547 0.0196865 -0.999797 
0.00401239 0.0169554 -0.999848 
0.00362511 0.0145415 -0.999888 
0.00320688 0.0123782 -0.999918 
0.00276504 0.0104456 -0.999942 
0.00234189 0.00874587 -0.999959 
0.00198973 0.00725376 -0.999972 
0.00167797 0.00596667 -0.999981 
0.00144532 0.0048767 -0.999987 
0.001246 0.00382977 -0.999992 
0.00108555 0.00306704 -0.999995 
0.000938791 0.00244279 -0.999997 
0.000811986 0.00209787 -0.999997 
0.000654462 0.00177387 -0.999998 
0.000481983 0.00165716 -0.999999 
0.00025954 0.00160408 -0.999999 
5.39614e-05 -0.000675315 -1 
-0.000250629 -0.000828813 1 
-0.000398827 0.00184035 0.999998 
-0.000414761 0.00170061 0.999998 
-0.00069478 0.00198646 0.999998 
-0.000851878 0.00223502 0.999997 
-0.000959736 0.00281356 0.999996 
-0.00109085 0.00333375 0.999994 
-0.001197 0.00423853 0.99999 
-0.00134898 0.00500424 0.999987 
-0.00148916 0.00622971 0.999979 
-0.001744 0.00759663 0.99997 
-0.00204398 0.00904888 0.999957 
-0.00247113 0.010631 0.99994 
-0.00288514 0.0125754 0.999917 
-0.00330292 0.014555 0.999889 
-0.00373421 0.0168004 0.999852 
-0.00406107 0.0192803 0.999806 
-0.00431812 0.0222042 0.999744 
-0.00452485 0.0258148 0.999656 
-0.00461212 0.0304037 0.999527 
-0.00474188 0.0365737 0.99932 
-0.00476705 0.0442349 0.99901 
-0.00484891 0.0536905 0.998546 
-0.00507983 0.0655802 0.997834 
-0.0056509 0.0805983 0.996731 
-0.00593705 0.0991768 0.995052 
-0.00744343 0.120833 0.992645 
-0.00786183 0.144249 0.98951 
-0.00869915 0.177238 0.98413 
-0.0122502 0.210842 0.977443 
-0.0138074 0.256849 0.966353 
-0.0161541 0.332953 0.942805 
-0.0153986 0.394396 0.918811 
-0.0169073 0.522019 0.852766 
-0.0227142 0.654766 0.75549 
-0.0218215 0.713863 0.699945 
-0.0244025 0.816211 0.577239 
-0.0209216 0.844906 0.534506 
-0.0157779 0.892864 0.450052 
-0.0313124 0.998935 0.0338942 
-0.0259782 0.889217 -0.456748 
-0.0171512 0.815222 -0.578895 
-0.0146124 0.836109 -0.54837 
-0.00279041 0.673229 -0.739428 
-0.00200822 0.74476 -0.66733 
0.00184205 0.583415 -0.812172 
0.00810363 0.438762 -0.898567 
0.00923622 0.370287 -0.928871 
0.00815922 0.292664 -0.95618 
0.00723097 0.237908 -0.971261 
0.00813211 0.192842 -0.981196 
0.00724464 0.156119 -0.987712 
0.00317893 0.130379 -0.991459 
0.0035713 0.108948 -0.994041 
0.00309862 0.0893855 -0.995992 
0.00323007 0.0724835 -0.997364 
0.00352032 0.0584494 -0.998284 
0.00362349 0.0471442 -0.998882 
0.00394397 0.0385891 -0.999247 
0.00409853 0.0319805 -0.99948 
0.00414 0.0269372 -0.999629 
0.00408255 0.0229983 -0.999727 
0.00395788 0.0198601 -0.999795 
0.00368576 0.0171536 -0.999846 
0.00336596 0.0149141 -0.999883 
0.00298475 0.0128479 -0.999913 
0.00257489 0.0110104 -0.999936 
0.00218313 0.00939122 -0.999954 
0.00184286 0.00789866 -0.999967 
0.00157764 0.00661514 -0.999977 
0.00136211 0.00543877 -0.999984 
0.00122739 0.00435628 -0.99999 
0.00108622 0.00348305 -0.999993 
0.000960275 0.00273647 -0.999996 
0.000817923 0.00224373 -0.999997 
0.000663721 0.00190808 -0.999998 
0.000508597 0.00181552 -0.999998 
0.000334579 0.00175793 -0.999998 
0.000182152 -0.000930574 -1 
-0.00033795 -0.000829187 1 
-0.000433939 0.00194896 0.999998 
-0.000545023 0.00186232 0.999998 
-0.000670949 0.00207886 0.999998 
-0.000828819 0.00232252 0.999997 
-0.000912004 0.00297361 0.999995 
-0.001041 0.00363227 0.999993 
-0.00111164 0.00462947 0.999989 
-0.00124026 0.00562916 0.999983 
-0.00137907 0.00698535 0.999975 
-0.00158257 0.00832873 0.999964 
-0.00190077 0.00984436 0.99995 
-0.0023112 0.0114123 0.999932 
-0.00265445 0.0131645 0.99991 
-0.00306556 0.0151076 0.999881 
-0.00343354 0.0172049 0.999846 
-0.00369384 0.0195085 0.999803 
-0.00386556 0.0223097 0.999744 
-0.00395588 0.0258171 0.999659 
-0.00394358 0.0306418 0.999523 
-0.00389671 0.0368866 0.999312 
-0.00367595 0.0447888 0.99899 
-0.00336759 0.0547841 0.998493 
-0.00305325 0.0678157 0.997693 
-0.00296302 0.0841419 0.996449 
-0.0029445 0.105552 0.994409 
-0.00337176 0.126239 0.991994 
-0.00381869 0.154175 0.988036 
-0.00405369 0.188282 0.982107 
-0.00688553 0.224932 0.97435 
-0.00983622 0.280865 0.959697 
-0.00951107 0.335421 0.94202 
-0.0126759 0.43844 0.898671 
-0.0109092 0.515775 0.856655 
-0.017474 0.603986 0.796804 
-0.0171622 0.708975 0.705024 
-0.00838588 0.813318 0.58176 
-0.00527528 0.943181 0.332236 
-0.0115899 0.971062 0.238545 
-0.0246881 0.991583 0.127099 
-0.0500301 0.980403 -0.190544 
-0.0563407 0.949414 -0.308931 
-0.010678 0.738779 -0.673863 
-0.00593267 0.695677 -0.71833 
-0.00195427 0.5457 -0.837978 
-0.00250981 0.457189 -0.889366 
0.00209892 0.479661 -0.877451 
0.00103396 0.388612 -0.921401 
0.00312205 0.319253 -0.947664 
0.00106386 0.251384 -0.967887 
0.00250638 0.199134 -0.979969 
0.00278628 0.161695 -0.986837 
-0.000319586 0.129868 -0.991531 
0.000287674 0.105173 -0.994454 
0.000525783 0.0865199 -0.99625 
0.00127193 0.0701309 -0.997537 
0.00206942 0.05631 -0.998411 
0.00263344 0.0450105 -0.998983 
0.00312034 0.036841 -0.999316 
0.00340071 0.0308057 -0.99952 
0.00355755 0.0260402 -0.999655 
0.00356928 0.0223121 -0.999745 
0.00352222 0.0193699 -0.999806 
0.00328832 0.0168974 -0.999852 
0.00299924 0.0147578 -0.999887 
0.00263199 0.0128269 -0.999914 
0.00224013 0.0111165 -0.999936 
0.00188024 0.0095216 -0.999953 
0.00157807 0.00812321 -0.999966 
0.00135841 0.00678673 -0.999976 
0.00119652 0.00556236 -0.999984 
0.0011087 0.00449748 -0.999989 
0.00100848 0.00365645 -0.999993 
0.000930806 0.00293039 -0.999995 
0.000809555 0.00241887 -0.999997 
0.000677312 0.00205404 -0.999998 
0.000532364 0.00194487 -0.999998 
0.000389222 0.00189158 -0.999998 
0.000292243 -0.000898705 -1 
-0.000362573 -0.000715889 1 
-0.000448692 0.0020271 0.999998 