# vtk DataFile Version 3.0 
Exported using Morpho https://github.com/Morpho-lang/morpho 
ASCII 
DATASET UNSTRUCTURED_GRID 

POINTS 1978 float 
-12 -4 5.97473e-09 
-11.7179 -4 2.98896e-09 
-11.401 -4 9.37304e-10 
-11.118 -4 3.21459e-09 
-10.7742 -4 3.454e-09 
-10.319 -4 8.25893e-11 
-10.0091 -4 7.10835e-10 
-9.70927 -4 1.25502e-09 
-9.41646 -4 3.5469e-09 
-9.10781 -4 2.82121e-09 
-8.69512 -4 2.83121e-10 
-8.2351 -4 -5.85472e-09 
-7.91697 -4 -7.54461e-09 
-7.68379 -4 -3.18322e-09 
-7.45848 -4 5.67928e-10 
-7.22554 -4 3.04546e-09 
-6.97847 -4 1.50959e-09 
-6.60409 -4 2.60172e-10 
-6.28891 -4 -8.69448e-10 
-5.96159 -4 -2.9999e-09 
-5.65212 -4 -2.92332e-09 
-5.36313 -4 -1.77204e-09 
-5.08051 -4 -1.85812e-09 
-4.75655 -4 -2.30381e-10 
-4.43977 -4 -3.05387e-09 
-4.12082 -4 -9.14911e-09 
-3.79659 -4 -1.54662e-08 
-3.46941 -4 -3.11488e-08 
-3.13487 -4 -5.13943e-08 
-2.81962 -4 -6.18502e-08 
-2.52595 -4 -8.64015e-08 
-2.23364 -4 -9.18478e-08 
-1.93792 -4 -1.30075e-07 
-1.64636 -4 -1.16032e-07 
-1.38968 -4 -1.27218e-07 
-1.1349 -4 -1.34498e-07 
-0.857582 -4 -1.28629e-08 
-0.571691 -4 1.42639e-08 
-0.305451 -4 1.54247e-08 
0.00476341 -4 -8.85882e-08 
0.305651 -4 -6.1734e-09 
0.584431 -4 2.64092e-08 
0.829659 -4 6.32897e-08 
1.06045 -4 7.929e-08 
1.31046 -4 9.12291e-08 
1.58852 -4 1.38693e-07 
1.89947 -4 1.16461e-07 
2.20652 -4 1.21821e-07 
2.54471 -4 1.03716e-07 
2.87796 -4 7.21401e-08 
3.25232 -4 4.74327e-08 
3.54568 -4 2.7772e-08 
3.83918 -4 1.13506e-08 
4.12951 -4 5.14355e-09 
4.42587 -4 4.89806e-09 
4.71242 -4 2.40914e-09 
5.06398 -4 2.10532e-09 
5.37548 -4 1.08672e-09 
5.71221 -4 -6.22143e-11 
6.0038 -4 7.85463e-11 
6.2848 -4 6.05034e-10 
6.55589 -4 1.83103e-09 
6.84232 -4 2.61899e-09 
7.10814 -4 2.56788e-09 
7.46125 -4 1.47901e-09 
7.79777 -4 1.22238e-09 
8.11878 -4 1.53016e-09 
8.38708 -4 1.06754e-09 
8.61989 -4 2.24677e-09 
8.86979 -4 5.24263e-09 
9.25636 -4 1.33082e-09 
9.60677 -4 -1.47971e-09 
9.88925 -4 -4.42059e-10 
10.2425 -4 1.84645e-10 
10.5962 -4 -3.87289e-09 
11.1381 -4 -2.19365e-09 
11.4319 -4 -2.50424e-09 
11.7275 -4 -3.17246e-09 
12 -4 -3.48482e-09 
-12 -3.76288 -7.98427e-09 
-11.6396 -3.68214 3.47545e-18 
-11.3468 -3.60358 -1.35666e-17 
-11.0527 -3.64895 4.9388e-18 
-10.7373 -3.64508 7.60596e-19 
-10.4106 -3.7244 3.40567e-18 
-10.0434 -3.62458 1.8957e-17 
-9.73404 -3.60792 3.93824e-17 
-9.43568 -3.60105 2.70329e-17 
-9.13325 -3.61109 2.8026e-17 
-8.80842 -3.67451 2.82932e-18 
-8.39413 -3.70856 -1.49325e-17 
-8.01269 -3.6423 -1.45581e-17 
-7.719 -3.60328 2.3607e-17 
-7.47962 -3.53359 2.33514e-17 
-7.23513 -3.63179 1.30008e-17 
-6.92279 -3.68812 2.65488e-17 
-6.5943 -3.62753 1.3304e-17 
-6.26865 -3.63908 -1.24578e-18 
-5.95318 -3.63627 -1.16367e-17 
-5.64883 -3.63209 -2.46319e-17 
-5.35523 -3.62574 -2.53409e-17 
-5.06482 -3.6298 -3.50478e-17 
-4.76804 -3.66921 -4.39332e-17 
-4.48276 -3.62076 -5.9761e-17 
-4.18977 -3.66117 -8.11013e-17 
-3.8668 -3.66424 -9.60242e-17 
-3.54234 -3.66601 -1.10035e-16 
-3.19829 -3.66051 -5.17004e-17 
-2.84063 -3.61046 -5.24136e-16 
-2.50234 -3.58912 3.62518e-16 
-2.16147 -3.58455 -3.11039e-16 
-1.83972 -3.58734 5.07214e-16 
-1.52169 -3.60103 5.56233e-16 
-1.25815 -3.65025 -6.79734e-17 
-1.00606 -3.63588 -2.00272e-15 
-0.751735 -3.72944 4.50386e-15 
-0.513951 -3.68106 -9.585e-16 
-0.255527 -3.72498 -1.3153e-15 
0.0477575 -3.77276 -1.62042e-16 
0.289205 -3.72078 3.71207e-16 
0.542022 -3.7302 -3.27907e-15 
0.783693 -3.67244 3.40838e-15 
1.02763 -3.64184 -5.82437e-18 
1.27675 -3.61937 -1.44646e-16 
1.56979 -3.61119 -1.2548e-15 
1.88826 -3.58297 1.13066e-15 
2.24168 -3.58901 5.92235e-16 
2.61635 -3.60286 1.34733e-16 
3.01797 -3.67954 1.04868e-16 
3.35857 -3.62695 1.37823e-16 
3.66609 -3.63971 1.45285e-16 
3.96629 -3.64377 1.04487e-16 
4.26385 -3.64126 8.92668e-17 
4.54879 -3.61231 6.2244e-17 
4.86057 -3.67748 3.20719e-17 
5.17407 -3.633 3.34016e-17 
5.49466 -3.66217 1.69593e-17 
5.79723 -3.62133 1.05778e-17 
6.0856 -3.62388 1.38681e-18 
6.36745 -3.62071 -3.3417e-18 
6.64864 -3.63489 -7.09786e-18 
6.9183 -3.57684 -4.51707e-18 
7.22434 -3.66215 -5.64821e-18 
7.55602 -3.65191 -8.80456e-18 
7.87782 -3.66394 -1.16684e-17 
8.17087 -3.62261 -2.33521e-17 
8.43467 -3.56014 -3.09155e-17 
8.70215 -3.57324 -1.87088e-17 
9.01562 -3.7002 7.9641e-18 
9.38087 -3.65784 -1.96338e-17 
9.67581 -3.58083 -3.00909e-17 
10.0049 -3.65491 -2.38944e-17 
10.3541 -3.64181 -1.90047e-17 
10.7782 -3.77178 3.01957e-17 
11.0501 -3.60696 -1.53605e-17 
11.3498 -3.61237 -2.67318e-17 
11.6654 -3.64628 6.31799e-18 
12 -3.70443 4.59411e-09 
-12 -3.50075 3.41732e-10 
-11.6109 -3.37859 3.60392e-17 
-11.2388 -3.24882 -2.79455e-18 
-10.9336 -3.3009 6.05763e-17 
-10.6265 -3.27666 9.58496e-17 
-10.369 -3.39709 5.85282e-17 
-10.0509 -3.27732 4.20069e-17 
-9.72574 -3.2591 2.65484e-17 
-9.40727 -3.24413 2.69907e-17 
-9.08713 -3.26468 2.78348e-17 
-8.77644 -3.31074 3.19228e-17 
-8.46071 -3.38657 2.97796e-17 
-8.12226 -3.33616 5.00543e-18 
-7.81938 -3.2519 1.93933e-17 
-7.54305 -3.17108 2.06214e-17 
-7.24971 -3.2364 2.36606e-17 
-6.97634 -3.37263 2.19654e-17 
-6.66574 -3.29984 1.09688e-17 
-6.33083 -3.29208 -4.17126e-18 
-6.01883 -3.29237 -1.31641e-17 
-5.70974 -3.29099 -2.6444e-17 
-5.40424 -3.27786 -4.75139e-17 
-5.10437 -3.26967 -7.40487e-17 
-4.8079 -3.31735 -9.65876e-17 
-4.51519 -3.26916 -1.70592e-16 
-4.22143 -3.30813 -1.99231e-16 
-3.92161 -3.34071 -2.49916e-16 
-3.59272 -3.32882 -3.16445e-16 
-3.26633 -3.32818 -4.90893e-16 
-2.9284 -3.28574 -4.75058e-16 
-2.59067 -3.26587 -4.09718e-16 
-2.22995 -3.25796 -1.12951e-15 
-1.93602 -3.24726 -3.81254e-16 
-1.62112 -3.34542 6.45733e-16 
-1.28136 -3.36186 -2.67905e-16 
-1.03503 -3.37771 -1.91659e-15 
-0.75907 -3.46647 -3.15758e-15 
-0.484224 -3.45283 -1.82639e-15 
-0.241238 -3.51335 2.66816e-15 
0.0508351 -3.55263 1.55814e-15 
0.295095 -3.48205 7.07142e-15 
0.506971 -3.46082 -3.76748e-15 
0.794363 -3.43781 -3.84143e-15 
1.02725 -3.37616 2.49835e-15 
1.29968 -3.33263 7.51487e-16 
1.55461 -3.30952 -4.85723e-16 
1.89285 -3.29968 -1.7303e-15 
2.22323 -3.28054 7.75986e-17 
2.57843 -3.25636 4.59541e-16 
2.93965 -3.34425 6.32542e-16 
3.28674 -3.28921 4.07545e-16 
3.61092 -3.28608 3.95432e-16 
3.91506 -3.30096 2.50748e-16 
4.21248 -3.30056 2.04703e-16 
4.50456 -3.25185 1.48972e-16 
4.80124 -3.32332 1.06378e-16 
5.09638 -3.29794 7.8935e-17 
5.41408 -3.31792 4.86623e-17 
5.71735 -3.28591 2.87261e-17 
6.02569 -3.27076 1.25038e-17 
6.31634 -3.26713 2.58873e-18 
6.6042 -3.26497 -2.92359e-18 
6.89087 -3.21693 -9.68788e-18 
7.18731 -3.29566 -1.50749e-17 
7.49529 -3.3164 -2.73269e-17 
7.82185 -3.3181 -2.99912e-17 
8.13716 -3.27617 -2.76248e-17 
8.4451 -3.20035 -2.42863e-17 
8.77192 -3.26525 -2.05783e-17 
9.10252 -3.37795 -2.62708e-17 
9.39521 -3.26439 -4.47371e-17 
9.72335 -3.24247 -5.78995e-17 
10.046 -3.31261 -5.50988e-17 
10.3453 -3.25753 -8.26489e-17 
10.6413 -3.4374 -6.97855e-17 
10.9391 -3.28212 -9.8058e-17 
11.2766 -3.24154 -1.19292e-17 
11.6191 -3.33572 -2.52864e-17 
12 -3.37885 -2.94575e-10 
-12 -3.21889 6.59728e-10 
-11.6075 -3.08439 6.08779e-17 
-11.2283 -2.93156 -7.18156e-17 
-10.888 -2.9554 2.98054e-18 
-10.574 -2.95285 5.06423e-17 
-10.2709 -3.0281 5.8686e-17 
-9.93734 -2.95479 3.39165e-17 
-9.62293 -2.92987 2.52548e-17 
-9.30526 -2.92383 1.84634e-17 
-9.0018 -2.93134 2.88724e-18 
-8.71198 -2.9482 8.8373e-18 
-8.44436 -3.0464 1.72312e-17 
-8.15534 -2.98882 1.85275e-17 
-7.86298 -2.93167 2.4227e-18 
-7.54794 -2.86456 2.18243e-18 
-7.23716 -2.91767 4.2196e-18 
-6.94586 -3.04066 3.09701e-18 
-6.60971 -2.99793 -9.05697e-18 
-6.30613 -2.96458 -1.21937e-17 
-6.00257 -2.96768 -1.51555e-17 
-5.69976 -2.96693 -2.30969e-17 
-5.39444 -2.95232 -3.20519e-17 
-5.09203 -2.94365 -6.69315e-17 
-4.80193 -2.99112 -8.14264e-17 
-4.51122 -2.94113 -8.21816e-17 
-4.21905 -2.98083 -2.04222e-16 
-3.92316 -3.01468 -2.87781e-16 
-3.61064 -3.01928 -4.71146e-16 
-3.26827 -2.99707 -5.90688e-16 
-2.92877 -2.97467 -3.65315e-16 
-2.58945 -2.99713 -1.30588e-15 
-2.28034 -3.03354 5.17833e-15 
-1.96059 -2.97641 -4.7444e-15 
-1.71639 -3.10059 9.8816e-16 
-1.45537 -3.17424 -2.93327e-16 
-1.08409 -3.17654 6.50455e-15 
-0.78406 -3.27426 1.00143e-14 
-0.558674 -3.27865 -2.16323e-15 
-0.298954 -3.29545 -4.94724e-15 
-0.00555562 -3.37762 2.26118e-15 
0.184711 -3.28963 -1.32433e-14 
0.58208 -3.28493 4.28194e-15 
0.871999 -3.19752 1.95275e-15 
1.11114 -3.18417 6.77212e-15 
1.32454 -3.07901 1.06276e-14 
1.64179 -3.14543 1.14595e-15 
1.98055 -3.05646 1.64314e-15 
2.2735 -3.03184 2.26925e-16 
2.55732 -2.97207 6.12671e-16 
2.88505 -3.03399 4.10637e-16 
3.22628 -2.9805 5.18402e-16 
3.56878 -2.95309 2.98577e-16 
3.88499 -2.97482 2.00828e-16 
4.18927 -2.97088 1.68563e-16 
4.48919 -2.93057 1.00991e-16 
4.78592 -2.98387 9.37118e-17 
5.08958 -2.97676 5.82061e-17 
5.39573 -2.99127 4.2412e-17 
5.6923 -2.95958 2.16119e-17 
5.9918 -2.9593 1.33674e-17 
6.30061 -2.93964 1.23627e-17 
6.59315 -2.92927 1.08627e-17 
6.92196 -2.9216 6.54865e-18 
7.24294 -2.96477 -2.76932e-18 
7.54234 -2.98777 -1.05669e-17 
7.84583 -2.99352 -1.40006e-17 
8.14571 -2.95404 -1.16746e-17 
8.44115 -2.87147 -1.15595e-17 
8.73405 -2.93558 -5.14922e-18 
9.05031 -3.035 -1.42956e-17 
9.35731 -2.94019 -2.05567e-17 
9.67606 -2.91966 -2.73306e-17 
10.0014 -2.96709 -3.66885e-17 
10.3136 -2.92563 -4.69215e-17 
10.6377 -3.06233 -6.36762e-17 
10.9675 -2.95031 -4.50122e-18 
11.3095 -2.9202 4.85284e-17 
11.6478 -3.02629 -3.39652e-17 
12 -3.07858 3.82353e-10 
-12 -2.90457 4.47108e-09 
-11.6073 -2.77467 3.82455e-17 
-11.3117 -2.58575 -7.63589e-17 
-10.968 -2.63338 -6.03472e-17 
-10.6483 -2.63918 -1.89544e-17 
-10.3117 -2.70482 1.67551e-17 
-9.99973 -2.66836 1.67101e-17 
-9.66464 -2.62237 8.80271e-18 
-9.34244 -2.61567 5.40724e-18 
-9.01967 -2.60548 -2.19443e-18 
-8.70696 -2.61769 2.93385e-18 
-8.39718 -2.6844 7.94681e-18 
-8.09426 -2.6492 6.24824e-18 
-7.78252 -2.62504 2.99103e-18 
-7.42064 -2.58824 -2.67925e-18 
-7.12051 -2.62942 -6.2311e-18 
-6.85198 -2.75074 -8.87361e-18 
-6.54485 -2.67703 -1.00297e-17 
-6.2393 -2.65163 -7.37438e-18 
-5.94303 -2.65061 -8.96122e-18 
[...]
POINT_DATA 1978 
VECTORS vectors float
0.00287251 -0.00715747 0.99997 
0.0024365 -0.0412528 0.999146 
0.00329997 -0.0566692 0.998388 
0.00314004 -0.0487209 0.998808 
0.00454024 -0.0339908 0.999411 
0.00461179 -0.0225655 0.999734 
0.00303466 -0.0118786 0.999925 
0.00275412 -0.000103799 0.999996 
0.00324157 0.00671482 0.999972 
0.00429478 0.00404436 0.999982 
0.00544367 -0.0106726 0.999927 
0.00509812 -0.0340628 0.999406 
0.00232146 -0.0399911 0.999197 
0.000486617 -0.0354318 0.999372 
-0.000587768 -0.0229604 0.999736 
0.000916632 -0.00865143 0.999962 
0.00348179 -0.00304198 0.999989 
0.00438433 -0.00391564 0.999983 
0.00345667 -0.00748691 0.999966 
0.00360016 -0.0113417 0.999929 
0.00329823 -0.00887439 0.999955 
0.00274504 0.000242542 0.999996 
0.00289023 0.0126744 0.999916 
0.00352648 0.0299811 0.999544 
0.00332441 0.046338 0.99892 
0.00303367 0.0644043 0.997919 
0.00319023 0.0823956 0.996595 
0.00304644 0.0994092 0.995042 
0.00275753 0.114776 0.993388 
0.00230686 0.130559 0.991438 
0.00183061 0.148983 0.988838 
0.00167078 0.171439 0.985194 
0.00126057 0.207567 0.97822 
0.000890048 0.262483 0.964936 
0.000836859 0.343682 0.939086 
0.000160021 0.438804 0.898583 
-2.19744e-05 0.596383 0.8027 
-1.77897e-05 0.766799 0.641887 
-0.000198263 0.922909 0.385017 
-4.00875e-06 0.999973 -0.0073736 
6.47345e-05 0.928088 -0.372362 
0.00023699 0.764138 -0.645053 
6.15905e-05 0.607627 -0.794223 
-0.000377262 0.478088 -0.878312 
-0.000700326 0.361857 -0.932234 
-0.000944847 0.274193 -0.961675 
-0.00171574 0.214592 -0.976702 
-0.00205292 0.175275 -0.984517 
-0.00224392 0.150262 -0.988644 
-0.00311822 0.133109 -0.991097 
-0.00287103 0.117084 -0.993118 
-0.00234065 0.101828 -0.994799 
-0.00261725 0.082168 -0.996615 
-0.00273893 0.0607658 -0.998148 
-0.00271434 0.0412604 -0.999145 
-0.00334079 0.0260534 -0.999655 
-0.00363919 0.0139292 -0.999896 
-0.00367791 0.0079063 -0.999962 
-0.00347497 0.00388387 -0.999986 
-0.00281045 -0.00110557 -0.999996 
-0.00270118 -0.00702986 -0.999972 
-0.0026606 -0.0137958 -0.999901 
-0.00257738 -0.0196057 -0.999805 
-0.00316226 -0.0196108 -0.999803 
-0.00417816 -0.0153544 -0.999873 
-0.00442934 -0.0141707 -0.99989 
-0.00265673 -0.0189557 -0.999817 
-0.000667871 -0.0243103 -0.999704 
-0.000955351 -0.0273432 -0.999626 
-0.00357944 -0.0268538 -0.999633 
-0.00498191 -0.015745 -0.999863 
-0.00324624 -0.011897 -0.999924 
-0.0032913 -0.0125163 -0.999916 
-0.00401063 -0.0204287 -0.999783 
-0.00511426 -0.0300125 -0.999536 
-0.00457967 -0.0471044 -0.998879 
-0.00298155 -0.0550475 -0.998479 
-0.00201886 -0.0361156 -0.999346 
-0.00252379 -0.00739549 -0.999969 
-0.000610003 -0.00312673 0.999993 
0.0137864 -0.0423148 0.999009 
0.0218949 -0.0543759 0.998281 
0.0259975 -0.0515238 0.998333 
0.0302665 -0.0396723 0.998754 
0.0289237 -0.027101 0.999214 
0.0441028 -0.0146137 0.99892 
0.0515354 -0.00575887 0.998655 
0.0515076 0.000257837 0.998673 
0.0517092 0.000128749 0.998662 
0.0411097 -0.00675318 0.999132 
0.0369584 -0.0226221 0.999061 
0.0456864 -0.0290796 0.998533 
0.0537157 -0.0248996 0.998246 
0.0611468 -0.0177352 0.997971 
0.0506464 -0.0117423 0.998648 
0.035805 -0.00349095 0.999353 
0.045993 -0.00375916 0.998935 
0.0436134 -0.00550415 0.999033 
0.042611 -0.00556406 0.999076 
0.0414481 -0.00138864 0.99914 
0.0387989 0.00775313 0.999217 
0.0342549 0.0200408 0.999212 
0.0267387 0.0337675 0.999072 
0.0225902 0.051399 0.998423 
0.0129433 0.0670701 0.997665 
-0.000574715 0.0858506 0.996308 
-0.0191664 0.104854 0.994303 
-0.0440377 0.12298 0.991432 
-0.0780436 0.141311 0.986884 
-0.117801 0.161743 0.979777 
-0.146479 0.18691 0.971395 
-0.157502 0.22827 0.960774 
-0.153896 0.30219 0.940743 
-0.119001 0.398517 0.909408 
-0.104738 0.517633 0.849168 
-0.0688425 0.630816 0.772873 
-0.0484678 0.800683 0.597125 
-0.0215339 0.951199 0.307826 
0.00114162 0.99937 -0.0354648 
0.0213871 0.925645 -0.377788 
0.0437412 0.794917 -0.605139 
0.0639985 0.65226 -0.755289 
0.0900822 0.504927 -0.858448 
0.112879 0.37619 -0.919641 
0.134352 0.278971 -0.950855 
0.146772 0.217891 -0.964874 
0.126872 0.177753 -0.975863 
0.0991432 0.156877 -0.98263 
0.0528207 0.135281 -0.989399 
0.0347193 0.122102 -0.99191 
0.0115877 0.10181 -0.994737 
-0.00451077 0.080708 -0.996728 
-0.016459 0.0600504 -0.99806 
-0.0243801 0.0435553 -0.998754 
-0.0260305 0.0265678 -0.999308 
-0.0341136 0.0172002 -0.99927 
-0.0355327 0.00996998 -0.999319 
-0.0427151 0.00508766 -0.999074 
-0.0456755 -0.000648641 -0.998956 
-0.0479153 -0.00680366 -0.998828 
-0.0486547 -0.0126719 -0.998735 
-0.0528224 -0.0149703 -0.998492 
-0.0435179 -0.0156749 -0.99893 
-0.0443133 -0.0134325 -0.998928 
-0.0452331 -0.0134693 -0.998886 
-0.0542782 -0.0155242 -0.998405 
-0.0615506 -0.0168945 -0.997961 
-0.0576359 -0.0189006 -0.998159 
-0.038928 -0.0197032 -0.999048 
-0.0438869 -0.0139569 -0.998939 
-0.0512639 -0.0133724 -0.998596 
-0.0411774 -0.0169539 -0.999008 
-0.037608 -0.0255988 -0.998965 
-0.0191148 -0.0372398 -0.999124 
-0.0316492 -0.0496096 -0.998267 
-0.0254304 -0.0509721 -0.998376 
-0.0126144 -0.0371582 -0.99923 
0.00109689 -0.00433312 -0.99999 
0.00263697 -0.0039984 0.999987 
0.0264202 -0.0472121 0.998536 
0.0378922 -0.0670777 0.997028 
0.0481236 -0.0573913 0.997191 
0.0590901 -0.0423372 0.997355 
0.0590331 -0.0291643 0.99783 
0.0687279 -0.0191734 0.997451 
0.0744785 -0.00992849 0.997173 
0.0759225 -0.00467654 0.997103 
0.0788778 -0.00436568 0.996875 
0.0784026 -0.00811541 0.996889 
0.0735393 -0.0153447 0.997174 
0.0747029 -0.0201394 0.997003 
0.0753807 -0.0179804 0.996993 
0.0757855 -0.0136298 0.997031 
0.073428 -0.0102223 0.997248 
0.0670334 -0.00612892 0.997732 
0.0713795 -0.00468164 0.997438 
0.068066 -0.0028403 0.997677 
0.0651833 0.000738476 0.997873 
0.0612231 0.00694699 0.9981 
0.0550069 0.0165227 0.998349 
0.0477753 0.0292705 0.998429 
0.0384759 0.0429257 0.998337 
0.0265345 0.0636591 0.997619 
0.0102567 0.0822859 0.996556 
-0.0117693 0.102165 0.994698 
-0.0488593 0.128158 0.99055 
-0.0954643 0.150847 0.983937 
-0.162744 0.17331 0.971328 
-0.226445 0.188238 0.955662 
-0.297101 0.207463 0.932036 
-0.305551 0.229178 0.924184 
-0.270957 0.278732 0.921353 
-0.233019 0.372508 0.898299 
-0.1953 0.479062 0.855779 
-0.124352 0.660133 0.740784 
-0.0786907 0.835845 0.543297 
-0.0431888 0.947722 0.31616 
-0.00321095 0.999823 -0.0185233 
0.0343241 0.93907 -0.342008 
0.0717541 0.804402 -0.589737 
0.121046 0.620296 -0.774971 
0.178918 0.474311 -0.861985 
0.223371 0.350245 -0.909634 
0.264938 0.275964 -0.923933 
0.289323 0.229521 -0.929308 
0.268782 0.202184 -0.941742 
0.231931 0.190851 -0.953826 
0.136974 0.166446 -0.976491 
0.0983636 0.155476 -0.98293 
0.0516613 0.131644 -0.98995 
0.0163808 0.105849 -0.994248 
-0.00904913 0.0814808 -0.996634 
-0.023742 0.0627428 -0.997747 
-0.038815 0.0416185 -0.998379 
-0.0477902 0.0294977 -0.998422 
-0.0547704 0.0190171 -0.998318 
-0.0605452 0.0119949 -0.998094 
-0.0650974 0.00444294 -0.997869 
-0.0681444 -0.00274373 -0.997672 
-0.0699147 -0.00863036 -0.997516 
-0.0723221 -0.0115288 -0.997315 
-0.0721865 -0.0125625 -0.997312 
-0.0725271 -0.0110168 -0.997306 
-0.0732102 -0.00998269 -0.997267 
-0.0772426 -0.0106226 -0.996956 
-0.078985 -0.0115139 -0.996809 
-0.078956 -0.014863 -0.996767 
-0.0709775 -0.0152236 -0.997362 
-0.0758369 -0.0132236 -0.997033 
-0.0750844 -0.014778 -0.997068 
-0.0681502 -0.0199287 -0.997476 
-0.0661177 -0.0289234 -0.997393 
-0.0522363 -0.0381219 -0.997907 
-0.0536358 -0.0543286 -0.997082 
-0.0403007 -0.0632789 -0.997182 
-0.0236126 -0.0412943 -0.998868 
-0.00128249 -0.00643579 -0.999978 
0.00194004 -0.0048495 0.999985 
0.0302942 -0.0525622 0.998158 
0.0341889 -0.0784631 0.996331 
0.0450453 -0.065527 0.996834 
0.0550785 -0.0464379 0.997402 
0.063694 -0.029737 0.997527 
0.0663967 -0.0187452 0.997617 
0.0683929 -0.0113112 0.997595 
0.0705264 -0.0075137 0.997482 
0.0729015 -0.00707565 0.997314 
0.0746484 -0.00776758 0.99718 
0.0776282 -0.0104496 0.996928 
0.0738061 -0.0117339 0.997204 
0.0686908 -0.0115389 0.997571 
0.0614521 -0.0100423 0.99806 
0.063102 -0.00923916 0.997964 
0.0677104 -0.00743947 0.997677 
0.0644289 -0.00466786 0.997912 
0.0597954 0.000292997 0.998211 
0.056037 0.00735085 0.998402 
0.0503365 0.0163993 0.998598 
0.0414536 0.0284216 0.998736 
0.0307198 0.0438174 0.998567 
0.020781 0.0593347 0.998022 
-0.00471357 0.087901 0.996118 
-0.0264469 0.110395 0.993536 
-0.0598617 0.137018 0.988758 
-0.113237 0.16889 0.979109 
-0.201333 0.204883 0.957856 
-0.307482 0.231992 0.922841 
-0.377663 0.236589 0.895208 
-0.439661 0.23802 0.866051 
-0.443302 0.242984 0.86281 
-0.396267 0.269302 0.877752 
-0.337764 0.31993 0.885189 
-0.28319 0.414781 0.864731 
-0.189603 0.582325 0.790537 
-0.125467 0.759193 0.638658 
-0.0656485 0.931571 0.357584 
-0.0101409 0.999659 0.0240717 
0.0367395 0.957346 -0.286598 
0.103289 0.771264 -0.628079 
0.212083 0.544968 -0.811191 
0.288493 0.397231 -0.871195 
0.351395 0.308166 -0.884056 
0.382979 0.264857 -0.884973 
0.411561 0.237679 -0.879844 
0.410308 0.231595 -0.88205 
0.397401 0.242203 -0.885105 
0.27123 0.21915 -0.937234 
0.211205 0.210075 -0.9546 
0.138389 0.18301 -0.973322 
0.0735275 0.145141 -0.986675 
0.0321746 0.112595 -0.99312 
0.00777782 0.0884486 -0.996051 
-0.0192622 0.0598765 -0.99802 
-0.0329907 0.04293 -0.998533 
-0.0437296 0.0288674 -0.998626 
-0.0491538 0.0197591 -0.998596 
-0.0543573 0.00991081 -0.998473 
-0.0572432 0.000715701 -0.99836 
-0.0590941 -0.00612258 -0.998234 
-0.0616669 -0.00991562 -0.998048 
-0.0651004 -0.00988543 -0.99783 
-0.0681894 -0.00822913 -0.997639 
-0.070491 -0.00696718 -0.997488 
-0.0704582 -0.00670807 -0.997492 
-0.0670503 -0.00701544 -0.997725 
-0.0714827 -0.0105529 -0.997386 
-0.0754726 -0.0129599 -0.997064 
-0.0703524 -0.0129755 -0.997438 
-0.0674451 -0.0156179 -0.997601 
-0.0658824 -0.021792 -0.99759 
-0.0599666 -0.0320564 -0.997686 
-0.0582939 -0.0447748 -0.997295 
-0.0451418 -0.0653388 -0.996842 
-0.0331643 -0.0732821 -0.99676 
-0.0239558 -0.0445969 -0.998718 
-0.000797654 -0.00664544 -0.999978 
-0.00296758 -0.00685013 0.999971 
0.0231596 -0.0554266 0.998194 
0.0252674 -0.0884899 0.995757 
0.0326544 -0.0805676 0.996214 
0.0395725 -0.0593055 0.997455 
0.0486405 -0.0366715 0.998143 
0.0510384 -0.0239054 0.998411 
0.0517227 -0.0153348 0.998544 
0.0537864 -0.0103636 0.998499 
0.0546743 -0.00794694 0.998473 
0.0548874 -0.00569127 0.998476 
0.0577084 -0.00550744 0.998318 
0.0533524 -0.0056472 0.99856 
0.049277 -0.00669191 0.998763 
0.0432593 -0.00788341 0.999033 
0.0450751 -0.00870719 0.998946 
0.0511306 -0.00715232 0.998667 
0.0441779 -0.00253918 0.999021 
0.0395319 0.00587358 0.999201 
0.0353381 0.0163475 0.999242 
0.0284731 0.0288112 0.999179 
0.0172459 0.0453584 0.998822 
0.00113917 0.0675103 0.997718 
-0.0134351 0.0875102 0.996073 
-0.0544314 0.131119 0.989871 
-0.093589 0.166345 0.981616 
-0.151506 0.206659 0.966612 
-0.238963 0.250727 0.938101 
-0.357978 0.290009 0.887551 
-0.468509 0.306043 0.828756 
-0.520683 0.280455 0.806371 
-0.563877 0.26253 0.783021 
-0.593045 0.263279 0.760908 
-0.510688 0.280936 0.812572 
-0.445184 0.311303 0.839584 
-0.373202 0.352328 0.858246 
-0.239595 0.539642 0.807082 
-0.166591 0.718581 0.675196 
-0.109981 0.867004 0.486013 
0.0187455 0.990524 -0.136053 
0.0674174 0.893967 -0.443032 
0.153604 0.671344 -0.725054 
0.318222 0.472739 -0.821737 
0.392314 0.347002 -0.851868 
0.454761 0.276119 -0.846729 
0.492617 0.258777 -0.830881 
0.549467 0.256809 -0.795069 
0.5638 0.271505 -0.78001 
0.526006 0.297212 -0.796858 
0.412054 0.285649 -0.865226 
0.32582 0.281915 -0.902422 
0.228968 0.251594 -0.940359 
0.137007 0.197406 -0.970701 
0.0792148 0.153488 -0.98497 
0.043217 0.118809 -0.991976 
0.00897202 0.0809059 -0.996682 
-0.0100007 0.0570831 -0.99832 
-0.0218885 0.0403244 -0.998947 
-0.0292768 0.0269177 -0.999209 
-0.0362506 0.0140212 -0.999245 
-0.0383841 0.00349774 -0.999257 
-0.0431606 -0.00547218 -0.999053 
-0.0440898 -0.00885671 -0.998988 
-0.0459837 -0.00787205 -0.998911 
-0.0496463 -0.0056481 -0.998751 
-0.0521634 -0.00381167 -0.998631 
-0.0522067 -0.00290464 -0.998632 
-0.0482954 -0.00323271 -0.998828 
-0.0525899 -0.00707698 -0.998591 
-0.0594464 -0.011057 -0.99817 
-0.053416 -0.0129944 -0.998488 
-0.050864 -0.0163908 -0.998571 
-0.0498882 -0.0238929 -0.998469 
-0.0443999 -0.0364923 -0.998347 
-0.0444272 -0.0520555 -0.997656 
-0.03113 -0.0753381 -0.996672 
-0.0221414 -0.0814769 -0.996429 
-0.0180648 -0.048717 -0.998649 
-0.000277638 -0.0070202 -0.999976 
-0.00214167 -0.00732739 0.999971 
0.00606326 -0.0257384 0.99965 
0.0128897 -0.0699379 0.997468 
0.024806 -0.0934278 0.995317 
0.0277076 -0.0728504 0.996958 
0.0334831 -0.0480397 0.998284 
0.0355391 -0.0321713 0.998851 
0.036405 -0.0213298 0.99911 
0.0368017 -0.0138258 0.999227 
0.0369771 -0.00947086 0.999271 
0.0368501 -0.00462572 0.99931 
0.0378414 -0.00140585 0.999283 
0.0353378 -0.000720082 0.999375 
0.0312826 -0.00194339 0.999509 
0.0304198 -0.00497328 0.999525 
0.0257659 -0.00795767 0.999636 
0.0279011 -0.00790651 0.99958 
0.0284608 -0.00445853 0.999585 
0.0228367 0.0049849 0.999727 
0.0177359 0.01812 0.999679 
0.0119683 0.0330135 0.999383 
0.00213597 0.0515198 0.99867 
-0.0156629 0.0789268 0.996758 
-0.041611 0.114777 0.99252 
-0.0695049 0.1486 0.986452 
-0.137276 0.219162 0.965983 
-0.215043 0.279151 0.935859 
-0.316258 0.33518 0.887488 
-0.430363 0.376567 0.820357 
-0.543425 0.393104 0.741727 
-0.616264 0.372513 0.693868 
-0.623827 0.328016 0.709398 
-0.685258 0.309041 0.659481 
-0.646659 0.269138 0.71372 
-0.580698 0.27504 0.766252 
-0.513582 0.33771 0.788788 
-0.414379 0.377511 0.828116 
-0.283641 0.554647 0.782249 
-0.0890114 0.933809 0.346521 
-0.0259181 0.993802 0.108099 
0.0431741 0.967235 -0.250183 
0.213459 0.636768 -0.740919 
0.405573 0.404774 -0.819553 
0.475699 0.274908 -0.835545 
0.591916 0.271368 -0.758943 
0.621069 0.268805 -0.736218 
0.606607 0.26778 -0.748546 
0.665694 0.311969 -0.677884 
0.629023 0.35191 -0.693173 
0.549468 0.372864 -0.747702 
0.447828 0.378112 -0.810236 
0.347808 0.35875 -0.866215 
0.226264 0.285011 -0.931436 
0.140124 0.217333 -0.965987 
0.0887241 0.170739 -0.981314 
0.0435337 0.116659 -0.992218 
0.0177467 0.08187 -0.996485 
0.00189969 0.0573636 -0.998352 
-0.00888752 0.0384363 -0.999222 
-0.0170066 0.0219597 -0.999614 
-0.0198597 0.00903399 -0.999762 
-0.0253142 -0.0021494 -0.999677 
-0.0272757 -0.00751954 -0.9996 
-0.0268618 -0.00714992 -0.999614 
-0.0296093 -0.00407471 -0.999553 
-0.0317158 -0.00103801 -0.999497 
-0.0330646 0.000603411 -0.999453 
-0.0304225 0.000776304 -0.999537 
-0.0335879 -0.00321135 -0.999431 
-0.0402954 -0.00909721 -0.999147 
-0.0365805 -0.0131594 -0.999244 
-0.0355648 -0.0184427 -0.999197 
-0.0351182 -0.0274835 -0.999005 
-0.0303045 -0.0424299 -0.99864 
-0.0302062 -0.060014 -0.997741 
-0.0205927 -0.0837954 -0.99627 
-0.0143351 -0.0893163 -0.9959 
-0.0112657 -0.0546657 -0.998441 
0.000134596 -0.00728969 -0.999974 
-0.00117602 -0.0057721 0.999983 
-0.00276733 -0.0559495 0.99843 
0.0185803 -0.0942479 0.995375 
0.0211009 -0.0861698 0.996057 
0.0220111 -0.0618582 0.997842 
0.0228267 -0.0433313 0.9988 
0.0237817 -0.0292449 0.99929 
0.0230594 -0.018886 0.999556 
0.0221594 -0.0121002 0.999681 
0.021891 -0.00604767 0.999742 
0.0217165 0.000215337 0.999764 
0.0191581 0.00343535 0.999811 
0.0165541 0.00291652 0.999859 
0.0140011 -0.000449306 0.999902 
0.0141237 -0.00486386 0.999889 
0.00996823 -0.00785384 0.99992 
0.00959654 -0.00637991 0.999934 
0.0111724 -0.000289137 0.999938 
0.00554665 0.0123022 0.999909 
0.00017277 0.0298464 0.999555 
-0.00725864 0.050366 0.998705 
-0.0206791 0.0778287 0.996752 
-0.0462679 0.121009 0.991573 
-0.0819636 0.174897 0.981169 
-0.121164 0.220287 0.967881 
-0.206979 0.319659 0.92465 
-0.29715 0.390042 0.871532 
-0.418318 0.461914 0.782078 
-0.52908 0.497332 0.687557 
-0.625077 0.487139 0.609897 
-0.696751 0.445409 0.562271 
-0.725994 0.39234 0.564802 
-0.750222 0.367643 0.54955 
-0.779288 0.312119 0.543408 
-0.713718 0.287241 0.638826 
-0.602691 0.311015 0.73487 
-0.456178 0.386755 0.80145 
-0.325951 0.45872 0.826639 
-0.155724 0.80939 0.566249 
-0.0494554 0.978335 0.201032 
0.0934058 0.83048 -0.549161 
0.381857 0.340512 -0.859207 
0.533654 0.285973 -0.795885 
0.537751 0.277018 -0.796294 
0.736314 0.285737 -0.613348 
0.742918 0.285458 -0.605463 
0.736062 0.369808 -0.56697 
0.730209 0.409576 -0.546848 
0.677783 0.455803 -0.576935 
0.606573 0.48226 -0.632056 
0.51846 0.493182 -0.698549 
0.408617 0.464612 -0.785601 
0.278669 0.374532 -0.884347 
0.184097 0.292061 -0.938514 
0.11216 0.213169 -0.970556 
0.0681491 0.15404 -0.985712 
0.0385639 0.107892 -0.993415 
0.0180957 0.0717118 -0.997261 
0.00492449 0.0451166 -0.99897 
-0.00220043 0.0259958 -0.99966 
-0.00702279 0.00878425 -0.999937 
-0.0104319 -0.00209406 -0.999944 
-0.0122654 -0.00710472 -0.9999 
-0.0114682 -0.00608504 -0.999916 
-0.0131332 -0.00204847 -0.999912 
-0.0145078 0.00194404 -0.999893 
-0.0167169 0.00384982 -0.999853 
-0.0142043 0.00404142 -0.999891 
-0.0183901 -0.000840994 -0.999831 
-0.0245435 -0.0078651 -0.999668 
-0.0222248 -0.0135993 -0.999661 
-0.0221466 -0.0206746 -0.999541 
-0.0227361 -0.0317016 -0.999239 
-0.0191775 -0.0471852 -0.998702 
-0.0193382 -0.0670443 -0.997563 
-0.0133351 -0.0875355 -0.996072 
-0.00927126 -0.090938 -0.995814 
-0.0046121 -0.0528688 -0.998591 
0.000186297 -0.00734119 -0.999974 
-0.000534146 -0.00552053 0.999985 
0.00106904 -0.0640932 0.997944 
0.0166572 -0.0958001 0.995261 
0.0160557 -0.0880481 0.995987 
0.015155 -0.0667704 0.997653 
0.0132101 -0.0464562 0.998833 
0.0134392 -0.0323824 0.999385 
0.0124106 -0.0212303 0.999698 
0.0102439 -0.0126591 0.999868 
0.00877034 -0.00552123 0.999946 
0.00777229 0.00205522 0.999968 
0.00334694 0.0068242 0.999971 
0.00128346 0.00626208 0.99998 
-0.000686349 0.00242181 0.999997 
-0.00100487 -0.00326335 0.999994 
-0.00242583 -0.00732589 0.99997 
-0.00555454 -0.00608074 0.999966 
-0.00400293 0.00113897 0.999992 
-0.00782338 0.0156489 0.999847 
-0.0126956 0.0355781 0.999286 
-0.0206102 0.0612787 0.997908 
-0.0342134 0.0950942 0.99488 
-0.060188 0.148203 0.987124 
-0.0971042 0.215389 0.971689 
-0.150553 0.292672 0.944287 
-0.22412 0.383891 0.895767 
-0.332739 0.502252 0.79814 
-0.434939 0.566058 0.70029 
-0.541429 0.621243 0.566491 
-0.627264 0.63726 0.447704 
-0.669862 0.580181 0.46333 
-0.734322 0.546177 0.403065 
-0.780389 0.440155 0.444135 
-0.807593 0.362094 0.46549 
-0.709135 0.273584 0.64983 
-0.691465 0.315187 0.650026 
-0.585714 0.358595 0.726875 
-0.458406 0.39328 0.796992 
-0.200963 0.69207 0.693292 
0.00394267 0.999668 -0.0254536 
0.121123 0.752284 -0.647609 
0.473117 0.271729 -0.838048 
0.683672 0.291661 -0.668971 
0.704706 0.285962 -0.649319 
0.722853 0.300541 -0.622221 
0.788734 0.361405 -0.497278 
0.793129 0.444072 -0.41683 
0.754285 0.493287 -0.43327 
0.722714 0.556748 -0.409531 
0.6448 0.582877 -0.494456 
0.566232 0.607319 -0.557265 
0.45936 0.585036 -0.668372 
0.345118 0.510969 -0.787276 
0.241041 0.409879 -0.879715 
0.156929 0.302115 -0.940266 
0.100729 0.219674 -0.970359 
0.0635341 0.154434 -0.985958 
0.0375805 0.101191 -0.994157 
0.0211737 0.0629698 -0.997791 
0.0129623 0.0373193 -0.99922 
0.00646647 0.0172429 -0.999831 
0.00461448 0.00232991 -0.999987 
0.00268109 -0.00561232 -0.999981 
0.00254895 -0.00670193 -0.999974 
0.00278383 -0.00239398 -0.999993 
0.000996782 0.00283087 -0.999996 
-0.000523343 0.0063951 -0.99998 
-0.00025004 0.00733065 -0.999973 
-0.00437402 0.00222315 -0.999988 
-0.0108289 -0.00652123 -0.99992 
-0.0110083 -0.0143259 -0.999837 
-0.00997444 -0.0217122 -0.999715 
-0.0127909 -0.0311542 -0.999433 
-0.0111296 -0.0451194 -0.99892 
-0.0118882 -0.0664411 -0.99772 
-0.00892781 -0.0884761 -0.996038 
-0.00684151 -0.09477 -0.995476 
-0.00151106 -0.0558753 -0.998437 
-0.000184426 -0.00693264 -0.999976 
0.000727902 -0.0058901 0.999982 
0.00413737 -0.063397 0.99798 
0.0127384 -0.0949914 0.995397 
0.0113044 -0.0892146 0.995948 
0.00898178 -0.0660139 0.997778 
0.00647777 -0.0465733 0.998894 
0.00499286 -0.0313425 0.999496 
0.0031651 -0.019136 0.999812 
-0.000349122 -0.00959079 0.999954 
-0.00307975 -0.00135886 0.999995 