# vtk DataFile Version 3.0 
Exported using Morpho https://github.com/Morpho-lang/morpho 
ASCII 
DATASET UNSTRUCTURED_GRID 

POINTS 1978 float 
-12 -4 7.54974e-16 
-11.5976 -4 7.33073e-14 
-11.3008 -4 6.27208e-14 
-10.9629 -4 5.7815e-14 
-10.6537 -4 4.56261e-14 
-10.2989 -4 3.43793e-14 
-9.97579 -4 1.94696e-14 
-9.67019 -4 1.2625e-14 
-9.33589 -4 8.53735e-15 
-9.01295 -4 5.49249e-15 
-8.68177 -4 4.64204e-15 
-8.34572 -4 4.03107e-15 
-8.03234 -4 2.89236e-15 
-7.7493 -4 1.29197e-15 
-7.4834 -4 -5.77984e-16 
-7.19784 -4 -2.88358e-15 
-6.9016 -4 -5.08907e-15 
-6.60236 -4 -6.79162e-15 
-6.29948 -4 -8.5384e-15 
-5.98697 -4 -1.03156e-14 
-5.68089 -4 -1.29658e-14 
-5.37466 -4 -1.65086e-14 
-5.07506 -4 -2.04357e-14 
-4.78203 -4 -2.93469e-14 
-4.45503 -4 -3.66179e-14 
-4.15094 -4 -4.52789e-14 
-3.82393 -4 -6.00258e-14 
-3.50698 -4 -7.37174e-14 
-3.19481 -4 -8.48269e-14 
-2.90341 -4 -8.85666e-14 
-2.61851 -4 -1.06389e-13 
-2.34133 -4 -1.13934e-13 
-2.06999 -4 -1.30894e-13 
-1.79295 -4 -1.37228e-13 
-1.50991 -4 -1.28412e-13 
-1.21598 -4 -1.03949e-13 
-0.923063 -4 -1.04089e-13 
-0.598643 -4 -1.21105e-14 
-0.326529 -4 -9.41018e-14 
0.0211111 -4 9.01866e-14 
0.32067 -4 3.24206e-14 
0.610632 -4 2.87713e-14 
0.906738 -4 7.35347e-14 
1.1841 -4 6.08572e-14 
1.45426 -4 1.07113e-13 
1.72824 -4 1.45593e-13 
2.00963 -4 1.43782e-13 
2.30062 -4 1.61163e-13 
2.62671 -4 1.32872e-13 
2.93065 -4 1.14619e-13 
3.26506 -4 8.47666e-14 
3.55427 -4 6.27524e-14 
3.85766 -4 5.54611e-14 
4.17444 -4 4.3457e-14 
4.47529 -4 3.30063e-14 
4.77474 -4 2.77424e-14 
5.0895 -4 2.2471e-14 
5.39878 -4 1.77639e-14 
5.71221 -4 1.32346e-14 
6.0048 -4 1.00212e-14 
6.30081 -4 7.9378e-15 
6.59631 -4 6.28187e-15 
6.89893 -4 4.35773e-15 
7.1739 -4 3.01938e-15 
7.48131 -4 1.70641e-15 
7.77698 -4 -2.17664e-17 
8.07324 -4 -1.6594e-15 
8.36056 -4 -3.45421e-15 
8.64885 -4 -4.74945e-15 
8.92471 -4 -8.12452e-15 
9.27742 -4 -1.19329e-14 
9.612 -4 -1.34525e-14 
9.8997 -4 -2.34334e-14 
10.2752 -4 -3.40937e-14 
10.5963 -4 -5.44349e-14 
10.9948 -4 -6.66061e-14 
11.3065 -4 -5.66885e-14 
11.5967 -4 -7.28892e-14 
12 -4 -1.07528e-15 
-12 -3.6226 -8.60415e-15 
-11.7037 -3.71635 -7.12429e-14 
-11.3529 -3.61699 -6.06827e-14 
-11.0463 -3.66795 -6.98001e-14 
-10.7173 -3.64488 -5.41379e-14 
-10.3926 -3.68695 -4.88945e-14 
-10.0508 -3.66066 -3.36151e-14 
-9.73011 -3.64819 -2.2693e-14 
-9.40622 -3.67671 -1.62476e-14 
-9.07127 -3.66044 -9.75687e-15 
-8.75158 -3.66578 -6.50158e-15 
-8.42271 -3.67649 -4.39986e-15 
-8.09606 -3.6651 -2.13712e-15 
-7.78645 -3.64572 -3.48624e-16 
-7.49578 -3.63228 1.51635e-15 
-7.21169 -3.65708 3.07937e-15 
-6.90648 -3.66124 4.8297e-15 
-6.59772 -3.66211 7.60655e-15 
-6.28141 -3.66946 1.03476e-14 
-5.96977 -3.66185 1.28908e-14 
-5.65988 -3.66083 1.62326e-14 
-5.35659 -3.65352 1.99146e-14 
-5.06233 -3.64692 2.45344e-14 
-4.74275 -3.68332 3.43101e-14 
-4.4444 -3.66021 4.20891e-14 
-4.14509 -3.66288 4.95395e-14 
-3.84681 -3.68882 6.64323e-14 
-3.53166 -3.68665 9.16206e-14 
-3.22319 -3.68541 1.13132e-13 
-2.91225 -3.6605 1.22548e-13 
-2.62673 -3.66443 1.62072e-13 
-2.34058 -3.66795 1.89534e-13 
-2.05401 -3.6756 1.98831e-13 
-1.76515 -3.68362 2.20007e-13 
-1.47101 -3.67007 1.66331e-13 
-1.16902 -3.66149 1.35529e-13 
-0.842146 -3.66309 3.122e-14 
-0.562507 -3.5859 -2.29371e-14 
-0.239151 -3.67011 -5.62162e-14 
0.0498559 -3.55675 -1.5651e-13 
0.312664 -3.58484 1.62311e-13 
0.606144 -3.61813 3.50694e-14 
0.90232 -3.64314 -3.79053e-15 
1.19772 -3.63909 -8.98725e-14 
1.48499 -3.65315 -1.81229e-13 
1.78284 -3.67972 -2.3166e-13 
2.07889 -3.68374 -2.10884e-13 
2.4022 -3.72284 -2.19552e-13 
2.71764 -3.69012 -1.54869e-13 
3.03748 -3.71153 -1.3936e-13 
3.33739 -3.65714 -9.38095e-14 
3.63274 -3.66771 -7.80719e-14 
3.94079 -3.67859 -6.39181e-14 
4.24046 -3.65842 -4.8016e-14 
4.53639 -3.65423 -3.79355e-14 
4.844 -3.66919 -3.13729e-14 
5.15314 -3.6639 -2.46157e-14 
5.46588 -3.66835 -1.97099e-14 
5.76644 -3.64748 -1.49129e-14 
6.06503 -3.65436 -1.20217e-14 
6.36232 -3.6521 -9.22259e-15 
6.66671 -3.66276 -7.33927e-15 
6.9524 -3.63202 -5.12847e-15 
7.25403 -3.66738 -3.41157e-15 
7.55407 -3.65461 -1.61042e-15 
7.8563 -3.65747 5.2025e-16 
8.15172 -3.64613 2.46815e-15 
8.43961 -3.64495 4.61267e-15 
8.72288 -3.62285 6.96663e-15 
9.04553 -3.70124 1.2978e-14 
9.38287 -3.67831 1.7649e-14 
9.68574 -3.62178 2.25211e-14 
10.0223 -3.70783 3.90769e-14 
10.3548 -3.65586 4.51114e-14 
10.7261 -3.72097 6.95121e-14 
11.0522 -3.63927 6.26228e-14 
11.3524 -3.60931 6.03082e-14 
11.708 -3.71816 7.07583e-14 
12 -3.60669 9.11948e-15 
-12 -3.32383 -4.37731e-15 
-11.6238 -3.36703 -1.42265e-14 
-11.2725 -3.26936 -9.90675e-15 
-10.9623 -3.3221 -1.85031e-14 
-10.6472 -3.28922 -1.69964e-14 
-10.3487 -3.35619 -1.93918e-14 
-10.0287 -3.31763 -1.52801e-14 
-9.71064 -3.3038 -1.24305e-14 
-9.39813 -3.34777 -9.16625e-15 
-9.08637 -3.31564 -7.31907e-15 
-8.77681 -3.31704 -3.73618e-15 
-8.47076 -3.34113 -2.24023e-15 
-8.15828 -3.33557 -1.04159e-15 
-7.84973 -3.31282 3.41284e-16 
-7.54921 -3.28556 4.49847e-16 
-7.25228 -3.30336 1.14875e-15 
-6.95798 -3.33118 1.86265e-15 
-6.65129 -3.329 2.93361e-15 
-6.33965 -3.33904 4.13513e-15 
-6.0286 -3.32919 5.34602e-15 
-5.71725 -3.32487 6.77856e-15 
-5.41026 -3.31341 8.18548e-15 
-5.10827 -3.29796 9.73242e-15 
-4.80765 -3.35484 1.36919e-14 
-4.50441 -3.32322 1.72489e-14 
-4.2062 -3.32977 2.19598e-14 
-3.90178 -3.35374 3.08569e-14 
-3.60308 -3.37292 4.02467e-14 
-3.29107 -3.36689 5.12239e-14 
-2.98354 -3.35323 6.44924e-14 
-2.66613 -3.31678 7.98237e-14 
-2.37837 -3.33364 8.52126e-14 
-2.07467 -3.36109 1.2645e-13 
-1.76687 -3.36209 1.23995e-13 
-1.45822 -3.33727 1.06143e-13 
-1.12171 -3.34206 6.32271e-14 
-0.841234 -3.24822 -9.13421e-15 
-0.555538 -3.17655 -1.87314e-14 
-0.268933 -3.28948 -1.97363e-13 
0.0173846 -3.13267 3.08125e-13 
0.295151 -3.09572 3.35052e-14 
0.562906 -3.22147 2.93713e-14 
0.869816 -3.26866 1.4966e-14 
1.17493 -3.28509 -1.49437e-14 
1.47254 -3.3072 -9.02534e-14 
1.77107 -3.35687 -1.13727e-13 
2.071 -3.36144 -1.0256e-13 
2.37085 -3.42961 -1.14362e-13 
2.66973 -3.37421 -8.51952e-14 
2.9768 -3.4023 -7.2961e-14 
3.27652 -3.33894 -4.88414e-14 
3.58462 -3.32986 -3.63563e-14 
3.88199 -3.35031 -2.9797e-14 
4.1816 -3.32528 -2.15829e-14 
4.48099 -3.31157 -1.62972e-14 
4.78009 -3.33231 -1.36712e-14 
5.08349 -3.33176 -1.10089e-14 
5.39447 -3.33732 -8.63644e-15 
5.70195 -3.31197 -6.27616e-15 
6.01188 -3.30967 -5.05276e-15 
6.31025 -3.30801 -3.91437e-15 
6.61377 -3.32591 -3.11586e-15 
6.913 -3.28192 -1.85337e-15 
7.21279 -3.32596 -1.44195e-15 
7.51514 -3.31505 -6.01858e-16 
7.81853 -3.32199 2.15025e-16 
8.12553 -3.30324 1.11158e-15 
8.4261 -3.28489 2.01878e-15 
8.74583 -3.29851 3.71213e-15 
9.06636 -3.38189 6.73457e-15 
9.37807 -3.33083 9.45258e-15 
9.69815 -3.28063 1.24304e-14 
10.0119 -3.38055 1.80667e-14 
10.3084 -3.29632 1.67862e-14 
10.6279 -3.40588 2.46753e-14 
10.9548 -3.31901 1.93688e-14 
11.2835 -3.24394 8.70096e-15 
11.6216 -3.36735 1.48481e-14 
12 -3.30268 5.51324e-15 
-12 -3.00858 -3.43908e-15 
-11.6458 -3.05711 -8.49619e-16 
-11.2969 -2.95353 5.74649e-15 
-10.9463 -2.96771 -1.24418e-15 
-10.6125 -2.95901 -3.969e-15 
-10.2874 -3.00487 -6.81528e-15 
-9.96669 -2.9757 -7.34332e-15 
-9.64354 -2.97009 -8.11236e-15 
-9.34419 -3.00118 -7.34537e-15 
-9.03883 -2.96932 -4.58522e-15 
-8.73559 -2.96886 -2.51121e-15 
-8.43307 -2.99982 -1.10352e-15 
-8.12773 -2.99487 -2.38552e-16 
-7.82992 -2.97047 2.29404e-16 
-7.52618 -2.94979 3.4324e-16 
-7.22525 -2.97365 5.32036e-16 
-6.926 -2.99844 1.26399e-15 
-6.61654 -3.00251 1.3227e-15 
-6.31127 -3.00615 1.89601e-15 
-6.00277 -2.99743 2.69861e-15 
-5.69739 -2.98908 3.41596e-15 
-5.39314 -2.97625 4.16309e-15 
-5.08969 -2.96531 4.90306e-15 
-4.79114 -3.02135 7.53769e-15 
-4.49148 -2.99068 7.93248e-15 
-4.19732 -2.99808 1.09632e-14 
-3.90443 -3.03363 1.65134e-14 
-3.59846 -3.04329 2.24639e-14 
-3.29883 -3.04797 2.94381e-14 
-2.9777 -3.03927 3.74287e-14 
-2.68398 -2.97207 4.26719e-14 
-2.3836 -2.98046 3.8359e-14 
-2.09523 -3.0401 1.76258e-14 
-1.77976 -3.03952 5.07644e-15 
-1.44265 -3.01723 -2.57979e-14 
-1.15626 -2.95305 -9.00625e-14 
-0.87547 -2.82632 -7.65144e-14 
-0.563081 -2.78897 -1.92009e-13 
-0.250123 -2.87316 2.35257e-13 
0.0122768 -2.66838 -1.15336e-13 
0.282532 -2.58713 -1.23868e-13 
0.548704 -2.77337 4.34335e-14 
0.835039 -2.88633 2.83035e-14 
1.15175 -2.92123 -2.14326e-14 
1.4683 -2.94505 -3.27799e-14 
1.7708 -3.02059 -2.82402e-14 
2.07854 -3.02404 -4.40094e-14 
2.37505 -3.10713 -4.44702e-14 
2.67515 -3.03866 -4.47376e-14 
2.9691 -3.08001 -3.41701e-14 
3.26794 -3.00751 -2.8292e-14 
3.56973 -3.00965 -2.10253e-14 
3.87959 -3.01742 -1.59327e-14 
4.1761 -2.99231 -1.21246e-14 
4.4767 -2.98222 -8.36567e-15 
4.77733 -2.99602 -6.3129e-15 
5.07461 -2.99701 -5.01177e-15 
5.3753 -3.00778 -3.98007e-15 
5.67924 -2.98039 -3.09058e-15 
5.98496 -2.98331 -2.33716e-15 
6.29659 -2.9641 -2.01731e-15 
6.59321 -2.98872 -1.38284e-15 
6.91368 -2.9645 -8.8167e-16 
7.23011 -2.98863 -4.66837e-16 
7.52934 -2.97687 -2.0468e-16 
7.83476 -2.99013 2.58979e-16 
8.13193 -2.96212 6.57276e-16 
8.4344 -2.94886 1.32225e-15 
8.73835 -2.97006 2.18375e-15 
9.05441 -3.04846 4.1948e-15 
9.37263 -3.00112 5.99769e-15 
9.66425 -2.92756 6.54334e-15 
9.97961 -3.025 7.32687e-15 
10.3098 -2.96663 5.3817e-15 
10.6419 -3.06518 8.56134e-15 
10.974 -2.97717 1.84086e-15 
11.3309 -2.9256 -6.23387e-15 
11.6661 -3.0532 1.57297e-15 
12 -2.96245 5.20093e-15 
-12 -2.69157 -6.01853e-15 
-11.6468 -2.7352 5.15187e-15 
-11.314 -2.62429 1.03014e-14 
-10.9736 -2.64774 2.97104e-15 
-10.6327 -2.63259 -8.21894e-16 
-10.2978 -2.66966 -2.13866e-15 
-9.96692 -2.65098 -5.0165e-15 
-9.63846 -2.64907 -4.18088e-15 
-9.31153 -2.65545 -3.5892e-15 
-8.99865 -2.62902 -1.78943e-15 
-8.68657 -2.63217 -1.31497e-15 
-8.37744 -2.66635 -1.01231e-15 
-8.0749 -2.65072 -7.25595e-16 
-7.76311 -2.64238 -1.75692e-16 
-7.44468 -2.63036 -2.14499e-16 
-7.14028 -2.65016 8.24988e-17 
-6.83623 -2.67861 6.25873e-16 
-6.52871 -2.67303 5.53879e-16 
-6.22448 -2.67479 1.01159e-15 
-5.92009 -2.66344 1.5328e-15 
[...]
POINT_DATA 1978 
VECTORS vectors float
0.000362848 -0.000448815 1 
-3.4837e-05 -0.0649109 0.997891 
7.32008e-05 -0.0648064 0.997898 
6.84481e-05 -0.0528768 0.998601 
2.83611e-05 -0.0400207 0.999199 
3.5292e-05 -0.0260622 0.99966 
7.00019e-05 -0.016484 0.999864 
5.91506e-05 -0.010277 0.999947 
4.78642e-05 -0.00612535 0.999981 
5.41163e-05 -0.00414227 0.999991 
4.56866e-05 -0.00332864 0.999994 
6.09258e-05 -0.00287667 0.999996 
9.32062e-05 -0.00220345 0.999998 
0.000128715 -0.00103653 0.999999 
0.000126193 0.000476691 1 
0.000105799 0.00235271 0.999997 
9.96686e-05 0.00409556 0.999992 
9.85432e-05 0.00533557 0.999986 
8.6422e-05 0.00645972 0.999979 
8.46163e-05 0.00794443 0.999968 
8.84612e-05 0.0101413 0.999949 
8.87769e-05 0.0132965 0.999912 
0.000100483 0.0172103 0.999852 
8.0007e-05 0.0216362 0.999766 
7.1889e-05 0.0276514 0.999618 
7.39212e-05 0.0345785 0.999402 
6.31361e-05 0.0439657 0.999033 
7.40994e-05 0.0562555 0.998416 
8.95366e-05 0.0740086 0.997258 
9.99959e-05 0.0973339 0.995252 
0.000103002 0.128523 0.991707 
0.000100585 0.172231 0.985057 
9.91335e-05 0.226901 0.973918 
8.05342e-05 0.300158 0.953889 
5.9768e-05 0.396563 0.918008 
4.05701e-05 0.522498 0.852641 
2.40854e-05 0.666159 0.74581 
-2.44152e-06 0.831181 0.556002 
6.82786e-06 0.943579 0.331149 
-2.46439e-06 0.999843 -0.0177028 
2.03598e-06 0.946068 -0.323969 
-4.96572e-06 0.826425 -0.563047 
-2.21649e-05 0.674774 -0.738024 
-5.2235e-05 0.536793 -0.843714 
-6.33851e-05 0.417938 -0.908476 
-7.82455e-05 0.319055 -0.947736 
-8.22223e-05 0.240437 -0.970665 
-6.98468e-05 0.17896 -0.983856 
-6.87226e-05 0.129377 -0.991595 
-6.67659e-05 0.0963671 -0.995346 
-7.13593e-05 0.0710881 -0.99747 
-0.00010084 0.0555087 -0.998458 
-7.71291e-05 0.0435888 -0.99905 
-8.28153e-05 0.0341687 -0.999416 
-9.56143e-05 0.0272269 -0.999629 
-8.38396e-05 0.0217623 -0.999763 
-8.008e-05 0.0171428 -0.999853 
-8.20753e-05 0.013514 -0.999909 
-9.03611e-05 0.0105304 -0.999945 
-0.000105684 0.0083 -0.999966 
-0.000101064 0.00651542 -0.999979 
-9.75356e-05 0.00497317 -0.999988 
-0.000112523 0.00360426 -0.999993 
-0.000110949 0.00252864 -0.999997 
-9.29518e-05 0.00127999 -0.999999 
-0.000107994 -2.03722e-05 -1 
-0.000105617 -0.00141146 -0.999999 
-0.000107383 -0.00291167 -0.999996 
-0.000119369 -0.0043441 -0.999991 
-7.6245e-05 -0.00563689 -0.999984 
-2.90758e-05 -0.00794583 -0.999968 
-7.83634e-05 -0.0116414 -0.999932 
-3.22513e-05 -0.0164531 -0.999865 
-1.52388e-05 -0.026251 -0.999655 
1.83874e-05 -0.0376819 -0.99929 
-4.79103e-06 -0.0544606 -0.998516 
-0.000104176 -0.064895 -0.997892 
4.31672e-05 -0.0646179 -0.99791 
-0.000373391 -0.000372794 -1 
-0.000267676 0.000411607 1 
0.0248708 -0.0498389 0.998448 
0.0325778 -0.058377 0.997763 
0.0326742 -0.0529627 0.998062 
0.0346104 -0.0414542 0.998541 
0.0345649 -0.030278 0.998944 
0.0369677 -0.0200602 0.999115 
0.0387866 -0.0129343 0.999164 
0.0386119 -0.00804544 0.999222 
0.0397519 -0.00518181 0.999196 
0.0396783 -0.0036617 0.999206 
0.0398168 -0.00278003 0.999203 
0.0407709 -0.00191637 0.999167 
0.0423866 -0.000719921 0.999101 
0.0433139 0.00072951 0.999061 
0.0416097 0.00226387 0.999131 
0.0409227 0.00380076 0.999155 
0.0412288 0.00510632 0.999137 
0.0407513 0.00640272 0.999149 
0.041065 0.00800553 0.999124 
0.0409785 0.0102402 0.999108 
0.0413414 0.013202 0.999058 
0.0416145 0.016808 0.998992 
0.0398377 0.0217479 0.998969 
0.0415099 0.027133 0.99877 
0.0406665 0.034021 0.998593 
0.0386965 0.0429543 0.998327 
0.0385827 0.0555021 0.997713 
0.0367325 0.0726696 0.996679 
0.0353649 0.0974075 0.994616 
0.0330012 0.129462 0.991035 
0.0296352 0.173065 0.984464 
0.0256755 0.233526 0.972011 
0.0212787 0.313485 0.949355 
0.0164635 0.415621 0.909389 
0.0116418 0.542586 0.839919 
0.0066031 0.702705 0.71145 
0.00342129 0.84288 0.538091 
0.00121421 0.963983 0.26596 
-0.000755804 0.999678 -0.0253687 
-0.00234134 0.952386 -0.304887 
-0.00489697 0.834775 -0.55057 
-0.0081632 0.685254 -0.728259 
-0.0131788 0.531639 -0.846869 
-0.0179883 0.40437 -0.914419 
-0.0225284 0.302954 -0.952739 
-0.0266224 0.22495 -0.974006 
-0.0294224 0.163346 -0.98613 
-0.0331345 0.118833 -0.992361 
-0.0348012 0.0881136 -0.995502 
-0.0385269 0.0665958 -0.997036 
-0.0391289 0.0517331 -0.997894 
-0.0393519 0.0402292 -0.998415 
-0.0407968 0.0316519 -0.998666 
-0.0411185 0.0251363 -0.998838 
-0.0403715 0.0198912 -0.998987 
-0.0408209 0.0156953 -0.999043 
-0.0406615 0.0123365 -0.999097 
-0.0419202 0.00971253 -0.999074 
-0.0416945 0.0076661 -0.999101 
-0.041801 0.00598818 -0.999108 
-0.0415959 0.00456434 -0.999124 
-0.0433424 0.00337293 -0.999055 
-0.0413406 0.0022056 -0.999143 
-0.0420875 0.00101928 -0.999113 
-0.0420193 -0.000236714 -0.999117 
-0.04252 -0.00159278 -0.999094 
-0.042442 -0.00305445 -0.999094 
-0.0428907 -0.00454099 -0.999069 
-0.038435 -0.00652857 -0.99924 
-0.0387006 -0.00953207 -0.999205 
-0.0402815 -0.0137617 -0.999094 
-0.0352077 -0.0201618 -0.999177 
-0.0357775 -0.029384 -0.998928 
-0.0317756 -0.0421111 -0.998608 
-0.0338772 -0.0528463 -0.998028 
-0.0329385 -0.0580184 -0.997772 
-0.0247409 -0.0494522 -0.99847 
0.000274622 0.000345175 -1 
-5.02743e-05 -1.58467e-05 1 
0.029766 -0.0508098 0.998265 
0.035169 -0.0559721 0.997813 
0.0381694 -0.0498725 0.998026 
0.0402431 -0.0401215 0.998384 
0.0421957 -0.0301997 0.998653 
0.0442434 -0.0212122 0.998796 
0.0461731 -0.0140725 0.998834 
0.047078 -0.00890025 0.998852 
0.0484379 -0.00577907 0.998809 
0.0492321 -0.0039966 0.998779 
0.0498251 -0.0027543 0.998754 
0.0499722 -0.00166803 0.998749 
0.0500582 -0.000519625 0.998746 
0.0499241 0.000836723 0.998753 
0.0501177 0.00215464 0.998741 
0.0501843 0.0034482 0.998734 
0.0499672 0.00467566 0.99874 
0.0496821 0.0059476 0.998747 
0.0495403 0.00744658 0.998744 
0.0493822 0.00943161 0.998735 
0.0493243 0.0120386 0.99871 
0.0492573 0.0152907 0.998669 
0.0493928 0.019637 0.998586 
0.0494388 0.0245892 0.998474 
0.048886 0.0309642 0.998324 
0.0483995 0.0397234 0.998038 
0.0470445 0.0510602 0.997587 
0.0451834 0.0678125 0.996674 
0.0424433 0.0909044 0.994955 
0.038309 0.123859 0.99156 
0.0343216 0.168184 0.985158 
0.0299004 0.229109 0.972941 
0.0241101 0.310038 0.950418 
0.017893 0.41934 0.907653 
0.0114231 0.564932 0.825058 
0.006088 0.710904 0.703263 
0.0019403 0.852837 0.522174 
0.00042707 0.957207 0.289404 
-0.00201125 0.999956 -0.0091701 
-0.00397101 0.956179 -0.292755 
-0.00671348 0.846596 -0.532193 
-0.010182 0.700173 -0.713901 
-0.0147214 0.548549 -0.835989 
-0.0201397 0.414529 -0.909813 
-0.0257989 0.308044 -0.951022 
-0.0311335 0.228859 -0.972962 
-0.0359589 0.168242 -0.98509 
-0.0398462 0.124631 -0.991403 
-0.0427695 0.0922402 -0.994818 
-0.0452298 0.069838 -0.996532 
-0.0469226 0.0531111 -0.997486 
-0.0481436 0.0413691 -0.997983 
-0.0487513 0.0321732 -0.998293 
-0.0489656 0.0252031 -0.998482 
-0.0492545 0.0200421 -0.998585 
-0.0494613 0.0158629 -0.99865 
-0.0495925 0.0125483 -0.998691 
-0.0494145 0.00982398 -0.99873 
-0.0496388 0.00774158 -0.998737 
-0.0497791 0.00612783 -0.998741 
-0.0498957 0.00477344 -0.998743 
-0.0500138 0.00360486 -0.998742 
-0.0502852 0.00249476 -0.998732 
-0.050352 0.00136208 -0.998731 
-0.0503539 0.000140918 -0.998731 
-0.0501876 -0.00121911 -0.998739 
-0.0496619 -0.00273146 -0.998762 
-0.049851 -0.00465637 -0.998746 
-0.0485993 -0.00693863 -0.998794 
-0.0477764 -0.010159 -0.998806 
-0.0464085 -0.0150974 -0.998808 
-0.0444478 -0.021293 -0.998785 
-0.0428472 -0.0297954 -0.998637 
-0.0406836 -0.0392076 -0.998403 
-0.0385711 -0.049347 -0.998037 
-0.035156 -0.0557462 -0.997826 
-0.0302033 -0.0506455 -0.99826 
-4.33294e-05 -9.47595e-05 -1 
0.000221575 0.000204495 1 
0.0254959 -0.0493014 0.998458 
0.0301207 -0.0567925 0.997932 
0.0335176 -0.0501622 0.998179 
0.0365289 -0.0410631 0.998489 
0.039499 -0.0305543 0.998752 
0.0411293 -0.0214675 0.998923 
0.0431023 -0.0141105 0.998971 
0.0451355 -0.00918227 0.998939 
0.0455073 -0.00606122 0.998946 
0.0458654 -0.00395338 0.99894 
0.0472208 -0.00248209 0.998881 
0.0470702 -0.00119568 0.998891 
0.0469197 2.23592e-05 0.998899 
0.0464421 0.00129203 0.99892 
0.0466758 0.00245884 0.998907 
0.0471596 0.00356585 0.998881 
0.0469199 0.0047462 0.998887 
0.0466801 0.00595231 0.998892 
0.0465054 0.00740371 0.998891 
0.0463693 0.00928012 0.998881 
0.0462536 0.0117453 0.998861 
0.0462396 0.0149288 0.998819 
0.0469013 0.0188799 0.998721 
0.0462972 0.023974 0.99864 
0.0463015 0.0305605 0.99846 
0.046125 0.0389015 0.998178 
0.0448304 0.0508026 0.997702 
0.0426898 0.0668044 0.996852 
0.0392574 0.0909742 0.995079 
0.0346949 0.123746 0.991707 
0.0298981 0.169876 0.985012 
0.026095 0.232466 0.972255 
0.0203119 0.319361 0.947415 
0.0139743 0.441386 0.897209 
0.00855699 0.572844 0.81962 
0.00453981 0.715377 0.698723 
0.000939714 0.863976 0.503531 
-0.0019639 0.970446 0.241312 
-0.00425427 0.999953 -0.00874037 
-0.00467854 0.963012 -0.269417 
-0.00537678 0.859166 -0.511668 
-0.00836653 0.711592 -0.702543 
-0.0126583 0.558621 -0.829327 
-0.017216 0.420665 -0.907053 
-0.022529 0.31476 -0.948904 
-0.0278397 0.230234 -0.972737 
-0.0335789 0.170205 -0.984836 
-0.0367916 0.125164 -0.991454 
-0.0402881 0.093216 -0.99483 
-0.0420159 0.0699714 -0.996664 
-0.043827 0.0528355 -0.997641 
-0.0452656 0.0401779 -0.998167 
-0.0459348 0.0312725 -0.998455 
-0.0463522 0.0245771 -0.998623 
-0.0466879 0.0193868 -0.998721 
-0.0466907 0.0153359 -0.998792 
-0.0466328 0.0121373 -0.998838 
-0.0464786 0.00966337 -0.998873 
-0.0463522 0.00767356 -0.998896 
-0.0461383 0.00607082 -0.998917 
-0.04636 0.00483253 -0.998913 
-0.0463697 0.00370971 -0.998917 
-0.0467239 0.00260312 -0.998904 
-0.0469601 0.00154588 -0.998896 
-0.0473716 0.000329688 -0.998877 
-0.0469825 -0.000999756 -0.998895 
-0.0466804 -0.00260815 -0.998906 
-0.0463233 -0.00457089 -0.998916 
-0.04694 -0.00711912 -0.998872 
-0.0449716 -0.0107536 -0.99893 
-0.0423778 -0.0157588 -0.998977 
-0.0420616 -0.0224206 -0.998863 
-0.0389917 -0.0318498 -0.998732 
-0.0381778 -0.0410814 -0.998426 
-0.0339357 -0.0507533 -0.998134 
-0.0295618 -0.0567 -0.997954 
-0.0251014 -0.0478353 -0.99854 
-0.000110004 0.000112141 -1 
0.000140612 0.000275865 1 
0.0200927 -0.0497646 0.998559 
0.0240191 -0.0591453 0.99796 
0.0274951 -0.0528903 0.998222 
0.0300892 -0.0435925 0.998596 
0.0331265 -0.0329821 0.998907 
0.0351266 -0.0234261 0.999108 
0.0367173 -0.0156712 0.999203 
0.0381594 -0.0100756 0.999221 
0.0383702 -0.00653387 0.999242 
0.0389501 -0.00392144 0.999233 
0.0396477 -0.00198989 0.999212 
0.0396456 -0.000493724 0.999214 
0.0396022 0.000791802 0.999215 
0.0390031 0.00203277 0.999237 
0.0395487 0.0030795 0.999213 
0.0402631 0.00406048 0.999181 
0.0395151 0.00512056 0.999206 
0.0393987 0.00628528 0.999204 
0.0392768 0.00773479 0.999198 
0.0392797 0.00963973 0.999182 
0.0392198 0.0121175 0.999157 
0.0394236 0.0154141 0.999104 
0.0405194 0.0193772 0.998991 
0.0395892 0.0247163 0.99891 
0.0395875 0.0316975 0.998713 
0.0397274 0.0407039 0.998381 
0.0378921 0.053178 0.997866 
0.0359894 0.0714362 0.996796 
0.0319597 0.0950399 0.99496 
0.0268883 0.133223 0.990721 
0.0222934 0.183468 0.982773 
0.0192587 0.246958 0.968835 
0.0140304 0.34856 0.937182 
0.00828506 0.4674 0.884007 
0.00460716 0.60246 0.798136 
0.00259931 0.767335 0.641242 
-6.81327e-05 0.893042 0.449974 
-0.000233421 0.944302 0.329079 
-0.00141539 0.997487 0.0708394 
-0.00361445 0.96634 -0.257242 
-0.00466587 0.855955 -0.517029 
-0.00579995 0.718772 -0.695221 
-0.00917366 0.559162 -0.829007 
-0.0128063 0.416346 -0.909116 
-0.0174877 0.303418 -0.952697 
-0.022309 0.227156 -0.973603 
-0.0282558 0.16478 -0.985925 
-0.0301373 0.121888 -0.992086 
-0.0341124 0.0899101 -0.995366 
-0.035556 0.0660075 -0.997185 
-0.0378746 0.049159 -0.998073 
-0.0390603 0.0375981 -0.998529 
-0.0394339 0.0289042 -0.998804 
-0.0395892 0.022465 -0.998963 
-0.0399384 0.0177185 -0.999045 
-0.0398306 0.0140184 -0.999108 
-0.0397887 0.0111695 -0.999146 
-0.0391607 0.00890134 -0.999193 
-0.0392128 0.00715657 -0.999205 
-0.0384427 0.00582431 -0.999244 
-0.0395257 0.00469018 -0.999208 
-0.0391752 0.0036654 -0.999226 
-0.0393744 0.00273564 -0.999221 
-0.0396133 0.00169614 -0.999214 
-0.0399087 0.000525948 -0.999203 
-0.0395025 -0.000869712 -0.999219 
-0.0393924 -0.00264659 -0.99922 
-0.0391777 -0.00481964 -0.999221 
-0.0406393 -0.00746355 -0.999146 
-0.0379859 -0.0112004 -0.999216 
-0.0356229 -0.017063 -0.99922 
-0.035898 -0.0243367 -0.999059 
-0.032575 -0.0340907 -0.998888 
-0.0322002 -0.043278 -0.998544 
-0.0277167 -0.0531537 -0.998202 
-0.0232313 -0.0584193 -0.998022 
-0.0194734 -0.0484427 -0.998636 
-0.0001131 7.04238e-05 -1 
0.000156641 0.000318801 1 
0.0126785 -0.0446967 0.99892 
0.0175176 -0.059672 0.998064 
0.0204599 -0.0574966 0.998136 
0.0227286 -0.0491908 0.998531 
0.0253473 -0.0387833 0.998926 
0.027395 -0.0288231 0.999209 
0.0285638 -0.0198692 0.999394 
0.0298856 -0.0130729 0.999468 
0.0301047 -0.00853428 0.99951 
0.0303548 -0.00509603 0.999526 
0.0309673 -0.0025628 0.999517 
0.0307469 -0.000740669 0.999527 
0.0307148 0.000706379 0.999528 
0.0307072 0.00188943 0.999527 
0.0302769 0.00297761 0.999537 
0.0307825 0.00386258 0.999519 
0.0309415 0.0047219 0.99951 
0.0303793 0.00572986 0.999522 
0.0303576 0.00689544 0.999515 
0.030525 0.00841607 0.999499 
0.030577 0.010422 0.999478 
0.0308946 0.013131 0.999436 
0.0310566 0.0166292 0.999379 
0.0321218 0.0208264 0.999267 
0.0314016 0.026924 0.999144 
0.0312982 0.0348276 0.998903 
0.0308779 0.044782 0.998519 
0.0294901 0.0601621 0.997753 
0.0259523 0.0791778 0.996523 
0.0225696 0.10972 0.993706 
0.0167024 0.155989 0.987618 
0.0128906 0.221645 0.975042 
0.0108015 0.296822 0.954872 
0.00597079 0.396442 0.91804 
0.00123584 0.530973 0.847388 
-0.000400538 0.685268 0.728291 
-0.00214745 0.833592 0.552376 
-0.00147475 0.996184 0.0872598 
0.00229136 0.996895 -0.0787112 
-0.000870876 0.958066 -0.286545 
0.00026231 0.958163 -0.286222 
-0.00293954 0.835421 -0.549602 
-0.00311682 0.622807 -0.782369 
-0.00546211 0.468623 -0.883381 
-0.00960703 0.332314 -0.94312 
-0.0132255 0.239689 -0.97076 
-0.0200366 0.175959 -0.984193 
-0.021148 0.1331 -0.990877 
-0.0253817 0.0964084 -0.995018 
-0.027663 0.0719463 -0.997025 
-0.0296747 0.051883 -0.998212 
-0.0306897 0.039001 -0.998768 
-0.0313322 0.0298489 -0.999063 
-0.0313432 0.0229461 -0.999245 
-0.0313709 0.0178582 -0.999348 
-0.0312014 0.0141168 -0.999413 
-0.0310607 0.011267 -0.999454 
-0.0306092 0.00909071 -0.99949 
-0.0304547 0.0073691 -0.999509 
-0.0295335 0.00609501 -0.999545 
-0.0304867 0.00500975 -0.999523 
-0.0307738 0.00410661 -0.999518 
-0.0299371 0.00321111 -0.999547 
-0.0306058 0.00226256 -0.999529 
-0.0305779 0.00110745 -0.999532 
-0.0304051 -0.000267657 -0.999538 
-0.0303748 -0.00211357 -0.999536 
-0.0299137 -0.00446987 -0.999542 
-0.0317765 -0.00761069 -0.999466 
-0.0300452 -0.0121469 -0.999475 
-0.0277647 -0.0183662 -0.999446 
-0.0284292 -0.026264 -0.999251 
-0.0254504 -0.0368554 -0.998996 
-0.0255013 -0.0461712 -0.998608 
-0.0212342 -0.0556326 -0.998225 
-0.0171633 -0.0605192 -0.998019 
-0.0144881 -0.0504446 -0.998622 
-9.6709e-05 8.16447e-05 -1 
0.000126575 0.000154245 1 
0.0104372 -0.051925 0.998596 
0.0141488 -0.0620393 0.997973 
0.0155294 -0.0565358 0.99828 
0.0176233 -0.047079 0.998736 
0.0191687 -0.0367921 0.999139 
0.020763 -0.0267182 0.999427 
0.0216279 -0.0180166 0.999604 
0.0218627 -0.0119901 0.999689 
0.0223159 -0.00739703 0.999724 
0.0225624 -0.00392517 0.999738 
0.0221735 -0.00152902 0.999753 
0.0220732 0.000294969 0.999756 
0.0219632 0.00164904 0.999757 
0.0221141 0.00269932 0.999752 
0.0213723 0.00361554 0.999765 
0.0214386 0.00437649 0.999761 
0.0218815 0.00517791 0.999747 
0.0213301 0.00613029 0.999754 
0.0216224 0.00731329 0.999739 
0.0218964 0.00889278 0.999721 
0.0223158 0.0111011 0.999689 
0.0225807 0.0140448 0.999646 
0.0225115 0.0177946 0.999588 
0.0239804 0.0226862 0.999455 
0.0233059 0.0299415 0.99928 
0.0224728 0.0390472 0.998985 
0.0226833 0.0522898 0.998374 
0.0190589 0.0693631 0.997409 
0.0166343 0.0969425 0.995151 
0.0123178 0.138232 0.990323 
0.00765115 0.214944 0.976596 
0.00419375 0.311864 0.950118 
0.000305966 0.435836 0.900026 
-0.00203121 0.626178 0.779678 
-0.00130553 0.787139 0.616774 
0.00491799 0.934533 0.355842 
0.0029515 0.954891 0.296943 
-0.00118236 0.955574 0.294748 
0.00133674 0.997375 0.0723928 
0.00016888 0.997153 -0.0753985 
-0.00635763 0.954988 -0.296577 
0.00199093 0.870867 -0.491515 
0.000777148 0.718251 -0.695784 
0.0019142 0.525629 -0.850712 
-0.00240154 0.37901 -0.92539 
-0.00525852 0.270636 -0.962667 
-0.0114869 0.182328 -0.983171 
-0.0146426 0.125396 -0.991999 
-0.0177809 0.0918692 -0.995612 
-0.0212522 0.0651916 -0.997646 
-0.0219676 0.0479491 -0.998608 
-0.02271 0.0360283 -0.999093 
-0.0232918 0.0274261 -0.999352 
-0.0231491 0.0210555 -0.99951 
-0.0227815 0.0164322 -0.999605 
-0.0224522 0.0129719 -0.999664 
-0.0221236 0.0104129 -0.999701 
-0.0220908 0.00840483 -0.999721 
-0.0213623 0.00698496 -0.999747 
-0.0213942 0.00581444 -0.999754 
-0.0214841 0.00494893 -0.999757 
-0.0220443 0.00413318 -0.999748 
-0.0209395 0.00336891 -0.999775 
-0.0218864 0.0024102 -0.999758 
-0.0214462 0.00130279 -0.999769 
-0.0216702 -0.000229528 -0.999765 
-0.0215523 -0.00224415 -0.999765 
-0.021392 -0.00493653 -0.999759 
-0.0236554 -0.00811626 -0.999687 
-0.0219844 -0.0127594 -0.999677 
-0.0204923 -0.0197638 -0.999595 
-0.0211415 -0.0283895 -0.999373 
-0.0185599 -0.0392591 -0.999057 
-0.0187555 -0.0489587 -0.998625 
-0.0150229 -0.0579828 -0.998205 
-0.0118984 -0.0624923 -0.997975 
-0.0100084 -0.0512623 -0.998635 
-3.68779e-05 8.44528e-05 -1 
2.58123e-06 0.00014477 1 
0.00738966 -0.0522598 0.998606 
0.010015 -0.0634284 0.997936 
0.0107476 -0.0594887 0.998171 
0.0122729 -0.0508937 0.998629 
0.0132016 -0.0402088 0.999104 
0.0142815 -0.0297022 0.999457 
0.0152452 -0.0207701 0.999668 
0.0151069 -0.0137864 0.999791 
0.0154612 -0.00860506 0.999843 
0.0159443 -0.00472967 0.999862 
0.0150953 -0.00177729 0.999884 
0.0149847 0.000288667 0.999888 
0.0147343 0.00177084 0.99989 
0.014722 0.00282454 0.999888 
0.0143015 0.00364853 0.999891 
0.0137139 0.00438884 0.999896 
0.0141264 0.00506636 0.999887 
0.014062 0.0058428 0.999884 
0.0141524 0.00686297 0.999876 
0.0145154 0.00820564 0.999861 
0.0151568 0.0101122 0.999834 
0.0155247 0.0127738 0.999798 
0.015418 0.0162666 0.999749 
0.0162461 0.0210575 0.999646 
0.0170351 0.027294 0.999482 
0.0156005 0.0360739 0.999227 
0.0158418 0.0488404 0.998681 
0.0130444 0.0659138 0.99774 
0.0109815 0.0927307 0.995631 
0.00761875 0.137279 0.990503 
0.00435216 0.209678 0.977761 
0.000659151 0.318406 0.947954 
-0.00179878 0.476406 0.879223 
-0.00281465 0.625281 0.780395 
-5.53571e-05 0.815388 0.578915 
0.00331258 0.996227 0.0867258 
0.00651051 0.992271 0.123921 
0.00577594 0.993815 0.110898 
0.00551615 0.997103 0.0758626 
0.00419279 0.999118 0.0417864 
0.0030233 0.999828 -0.018299 
-0.00292874 0.847884 -0.530174 
0.00217209 0.664789 -0.747028 
0.00230021 0.540229 -0.841515 
0.00271546 0.439864 -0.89806 
0.00029558 0.325112 -0.945675 
-0.00486506 0.207721 -0.978176 
-0.00837734 0.143265 -0.989649 
-0.0106472 0.0981116 -0.995118 
-0.0141757 0.0708123 -0.997389 
-0.0149889 0.0516149 -0.998555 
-0.01565 0.0382978 -0.999144 
-0.0161887 0.0289276 -0.99945 
-0.0162496 0.0222204 -0.999621 
-0.0157964 0.0171915 -0.999727 
-0.0153216 0.0134498 -0.999792 
-0.0147344 0.0106744 -0.999834 
-0.015004 0.00872616 -0.999849 
-0.0140285 0.00719885 -0.999876 
-0.0146505 0.00615184 -0.999874 
-0.0138262 0.00525224 -0.999891 
-0.0144153 0.00455264 -0.999886 
-0.0139444 0.00387389 -0.999895 
-0.0144223 0.00299086 -0.999892 
-0.0142381 0.00196551 -0.999897 
-0.014611 0.000423171 -0.999893 
-0.0145601 -0.00170762 -0.999893 
-0.0144748 -0.00458367 -0.999885 
-0.0161496 -0.00862391 -0.999832 
-0.0155261 -0.0142654 -0.999778 
-0.0139291 -0.0214031 -0.999674 
-0.0150054 -0.0295485 -0.999451 
-0.0128048 -0.0399232 -0.999121 
-0.0131477 -0.0500793 -0.998659 
-0.0104628 -0.0595037 -0.998173 
-0.00827401 -0.0641653 -0.997905 
-0.00661017 -0.0515768 -0.998647 
-4.50022e-05 6.73228e-05 -1 
2.86091e-05 7.64344e-05 1 
0.00513016 -0.0527088 0.998597 
0.00686736 -0.0642514 0.99791 