# vtk DataFile Version 3.0 
Exported using Morpho https://github.com/Morpho-lang/morpho 
ASCII 
DATASET UNSTRUCTURED_GRID 

POINTS 1978 float 
-12 -3.99999 -1.69769e-09 
-11.5977 -3.99999 6.4848e-08 
-11.3007 -3.99999 8.03861e-08 
-10.9628 -3.99999 6.49378e-08 
-10.6538 -3.99999 4.83363e-08 
-10.2989 -3.99999 3.38642e-08 
-9.97565 -3.99999 2.07423e-08 
-9.67028 -3.99999 1.26413e-08 
-9.33596 -3.99999 7.97102e-09 
-9.01303 -3.99999 5.50565e-09 
-8.6817 -3.99999 4.94771e-09 
-8.34565 -3.99999 4.66482e-09 
-8.03222 -3.99999 3.73627e-09 
-7.74917 -3.99999 1.90008e-09 
-7.48341 -3.99999 -5.20849e-10 
-7.19804 -3.99999 -3.49263e-09 
-6.90164 -3.99999 -6.23544e-09 
-6.60235 -3.99999 -8.04159e-09 
-6.29951 -3.99999 -9.64372e-09 
-5.98695 -3.99999 -1.15455e-08 
-5.6809 -3.99999 -1.45765e-08 
-5.37467 -3.99999 -1.89753e-08 
-5.07508 -3.99999 -2.45102e-08 
-4.78208 -3.99999 -3.26713e-08 
-4.45513 -3.99999 -4.06583e-08 
-4.15087 -3.99999 -5.13586e-08 
-3.82395 -3.99999 -6.46514e-08 
-3.50689 -3.99999 -7.79974e-08 
-3.1948 -3.99999 -9.41321e-08 
-2.90338 -4 -1.0774e-07 
-2.61842 -4 -1.21078e-07 
-2.34108 -4 -1.38688e-07 
-2.07013 -4 -1.51969e-07 
-1.79278 -4 -1.54741e-07 
-1.51006 -4 -1.43532e-07 
-1.21566 -4 -1.1572e-07 
-0.923275 -4 -1.20837e-07 
-0.598618 -4 -1.98845e-08 
-0.326669 -3.99999 -1.48099e-07 
0.0207375 -3.99999 1.47489e-07 
0.320805 -3.99999 5.30838e-08 
0.610287 -4 5.36994e-08 
0.90681 -4 1.04392e-07 
1.18401 -4 8.04126e-08 
1.4542 -4 1.35493e-07 
1.72824 -4 1.63029e-07 
2.0094 -4 1.70673e-07 
2.30069 -4 1.70648e-07 
2.62654 -3.99999 1.45579e-07 
2.93063 -3.99999 1.21354e-07 
3.26504 -3.99999 9.27375e-08 
3.55425 -3.99999 7.35556e-08 
3.85766 -3.99999 6.10198e-08 
4.17443 -3.99999 4.84592e-08 
4.4753 -3.99999 3.84544e-08 
4.77474 -3.99999 3.14623e-08 
5.08953 -3.99999 2.52937e-08 
5.39879 -3.99999 2.00202e-08 
5.71225 -3.99999 1.53198e-08 
6.00481 -3.99999 1.18482e-08 
6.30078 -3.99999 9.38435e-09 
6.5963 -3.99999 7.28348e-09 
6.89902 -3.99999 5.14714e-09 
7.17379 -3.99999 3.54483e-09 
7.48135 -3.99999 1.96059e-09 
7.77703 -3.99999 -3.64312e-11 
8.07323 -3.99999 -1.96925e-09 
8.36058 -3.99999 -4.24717e-09 
8.64882 -3.99999 -6.23103e-09 
8.92466 -3.99999 -8.55848e-09 
9.27739 -3.99999 -1.15044e-08 
9.61204 -3.99999 -1.51175e-08 
9.89968 -3.99999 -2.33816e-08 
10.2752 -3.99999 -3.47644e-08 
10.5964 -3.99999 -5.30767e-08 
10.9949 -3.99999 -6.84042e-08 
11.3065 -3.99999 -8.18253e-08 
11.5968 -3.99999 -6.23814e-08 
12 -3.99999 1.01051e-09 
-12 -3.62262 2.60364e-08 
-11.7024 -3.71542 2.47022e-13 
-11.3507 -3.6167 1.5117e-13 
-11.0437 -3.66669 1.69327e-13 
-10.7162 -3.64385 1.37152e-13 
-10.3936 -3.68578 1.2271e-13 
-10.0536 -3.65784 9.22269e-14 
-9.7348 -3.64406 6.40925e-14 
-9.41353 -3.67269 4.58224e-14 
-9.08064 -3.66055 2.91021e-14 
-8.75287 -3.66665 1.77672e-14 
-8.42105 -3.6779 1.12007e-14 
-8.09514 -3.66555 5.34289e-15 
-7.7836 -3.64143 -4.92634e-17 
-7.49511 -3.62928 -4.56614e-15 
-7.21031 -3.65851 -8.61728e-15 
-6.90258 -3.6614 -1.32603e-14 
-6.59377 -3.66118 -2.04742e-14 
-6.27759 -3.66803 -2.80502e-14 
-5.96532 -3.66025 -3.5611e-14 
-5.65456 -3.65915 -4.50922e-14 
-5.35013 -3.65164 -5.61309e-14 
-5.05577 -3.64439 -6.99793e-14 
-4.73508 -3.68176 -9.14388e-14 
-4.43865 -3.65398 -1.1348e-13 
-4.13994 -3.66185 -1.37675e-13 
-3.83996 -3.6878 -1.7716e-13 
-3.52446 -3.67932 -2.42313e-13 
-3.21861 -3.68379 -3.07992e-13 
-2.91055 -3.66676 -3.69718e-13 
-2.62798 -3.66336 -4.7121e-13 
-2.34283 -3.65649 -5.36656e-13 
-2.04996 -3.68663 -6.13994e-13 
-1.76358 -3.69084 -6.28869e-13 
-1.47524 -3.67371 -5.1728e-13 
-1.17298 -3.66818 -3.30496e-13 
-0.848912 -3.67524 -4.76825e-14 
-0.570972 -3.59284 9.93167e-14 
-0.250464 -3.67584 2.4241e-13 
0.0395034 -3.57304 5.5626e-13 
0.313446 -3.59159 -5.16592e-13 
0.600998 -3.61918 -1.98616e-13 
0.896922 -3.64162 3.95246e-14 
1.19365 -3.66363 2.9804e-13 
1.48658 -3.66605 5.31656e-13 
1.78238 -3.68109 6.40842e-13 
2.07992 -3.68692 6.12009e-13 
2.40235 -3.72528 5.73399e-13 
2.71689 -3.69023 4.29084e-13 
3.03513 -3.7103 3.62912e-13 
3.3337 -3.65452 2.65611e-13 
3.62878 -3.66507 2.17117e-13 
3.93741 -3.67578 1.71541e-13 
4.23766 -3.65504 1.32061e-13 
4.53429 -3.65077 1.04709e-13 
4.84319 -3.66651 8.4091e-14 
5.15344 -3.66194 6.61303e-14 
5.46719 -3.6667 5.28783e-14 
5.76847 -3.6458 4.14233e-14 
6.06713 -3.65312 3.3195e-14 
6.3656 -3.65185 2.55814e-14 
6.66651 -3.66454 2.09819e-14 
6.95063 -3.62477 1.40882e-14 
7.25174 -3.66447 9.36698e-15 
7.55253 -3.6533 4.49667e-15 
7.85515 -3.65656 -1.5235e-15 
8.15127 -3.64512 -7.01069e-15 
8.44013 -3.64536 -1.32468e-14 
8.72377 -3.62147 -2.0585e-14 
9.04608 -3.69999 -3.3563e-14 
9.38311 -3.67561 -4.67871e-14 
9.68548 -3.61849 -6.53061e-14 
10.0209 -3.7053 -9.85875e-14 
10.3516 -3.65341 -1.14717e-13 
10.7229 -3.72045 -1.5412e-13 
11.048 -3.63867 -1.54973e-13 
11.3488 -3.60817 -1.5519e-13 
11.7061 -3.71669 -2.50675e-13 
12 -3.60674 -2.83664e-08 
-12 -3.32378 2.27558e-08 
-11.6234 -3.36645 1.2026e-13 
-11.2725 -3.26826 3.21973e-14 
-10.9624 -3.31937 6.34538e-14 
-10.6481 -3.28787 5.88494e-14 
-10.35 -3.35284 6.50048e-14 
-10.0313 -3.31198 5.37782e-14 
-9.71235 -3.30112 4.35761e-14 
-9.39778 -3.33895 3.27652e-14 
-9.07537 -3.32514 2.26061e-14 
-8.77683 -3.30548 1.36236e-14 
-8.47396 -3.34669 7.92227e-15 
-8.1585 -3.33353 2.90918e-15 
-7.85284 -3.31076 -1.0014e-15 
-7.55003 -3.2763 -2.13837e-15 
-7.25504 -3.30442 -3.49719e-15 
-6.95966 -3.33428 -6.39489e-15 
-6.65099 -3.32753 -1.01651e-14 
-6.33921 -3.33605 -1.41748e-14 
-6.02909 -3.32653 -1.80613e-14 
-5.71769 -3.32215 -2.27646e-14 
-5.41025 -3.3109 -2.7565e-14 
-5.10758 -3.29286 -3.26016e-14 
-4.80651 -3.35191 -4.65243e-14 
-4.50376 -3.31304 -5.6293e-14 
-4.20484 -3.32288 -7.17409e-14 
-3.90358 -3.35447 -1.02044e-13 
-3.60252 -3.36442 -1.3515e-13 
-3.28801 -3.36021 -1.72392e-13 
-2.98048 -3.35988 -2.26486e-13 
-2.669 -3.31904 -2.52243e-13 
-2.37982 -3.32792 -2.92286e-13 
-2.07756 -3.37301 -3.48371e-13 
-1.77504 -3.36936 -3.59953e-13 
-1.46305 -3.34637 -2.87904e-13 
-1.12843 -3.35269 -1.5595e-13 
-0.843692 -3.27298 6.55556e-14 
-0.559978 -3.17425 4.96465e-14 
-0.278268 -3.29852 7.12098e-13 
0.0203297 -3.14305 -7.73994e-13 
0.293896 -3.13292 -2.60598e-13 
0.568825 -3.21155 -2.33903e-13 
0.866505 -3.27774 -4.33688e-14 
1.17397 -3.31573 1.20978e-13 
1.46723 -3.33816 3.09773e-13 
1.77488 -3.35704 3.36549e-13 
2.07111 -3.3687 3.45825e-13 
2.37295 -3.43343 3.7399e-13 
2.67031 -3.37447 2.81417e-13 
2.97634 -3.39951 2.42437e-13 
3.27399 -3.33339 1.67794e-13 
3.57969 -3.3253 1.27363e-13 
3.87708 -3.34598 1.02938e-13 
4.17722 -3.31997 7.43465e-14 
4.47728 -3.30614 5.59084e-14 
4.77775 -3.32821 4.6653e-14 
5.08276 -3.32803 3.71744e-14 
5.39408 -3.33398 2.92779e-14 
5.70127 -3.30925 2.16375e-14 
6.01077 -3.30669 1.72775e-14 
6.30836 -3.30862 1.367e-14 
6.61045 -3.31786 1.05219e-14 
6.90905 -3.28259 6.75871e-15 
7.21316 -3.3206 4.87068e-15 
7.51542 -3.31299 2.21385e-15 
7.8186 -3.32 -6.17234e-16 
8.12486 -3.30202 -3.54052e-15 
8.42584 -3.28551 -6.83563e-15 
8.74587 -3.29682 -1.2612e-14 
9.06757 -3.37903 -2.32542e-14 
9.37948 -3.32587 -3.30612e-14 
9.69764 -3.27432 -4.22363e-14 
10.0099 -3.37503 -5.98155e-14 
10.3077 -3.29357 -5.76212e-14 
10.627 -3.40504 -8.5104e-14 
10.9538 -3.31636 -6.67859e-14 
11.282 -3.24235 -2.80184e-14 
11.6202 -3.36585 -1.27154e-13 
12 -3.30267 -2.57375e-08 
-12 -3.00865 1.75368e-08 
-11.645 -3.056 7.2719e-14 
-11.296 -2.95137 -2.12021e-14 
-10.9473 -2.9656 6.19308e-15 
-10.6141 -2.96018 1.39831e-14 
-10.2854 -3.00129 2.41786e-14 
-9.96167 -2.97272 2.36881e-14 
-9.63769 -2.96913 2.54277e-14 
-9.32832 -3.00234 2.00679e-14 
-9.02251 -2.96838 1.29626e-14 
-8.7232 -2.94673 7.62691e-15 
-8.44107 -3.00622 4.60339e-15 
-8.14226 -2.98651 2.06771e-15 
-7.84079 -2.97149 2.10069e-16 
-7.53309 -2.94612 -8.09652e-16 
-7.23003 -2.96948 -1.75929e-15 
-6.93177 -3.00319 -3.57851e-15 
-6.62064 -3.00149 -4.36282e-15 
-6.31616 -3.00188 -6.12528e-15 
-6.00775 -2.99425 -8.67198e-15 
-5.70111 -2.98649 -1.11247e-14 
-5.39528 -2.97376 -1.354e-14 
-5.09 -2.96028 -1.63324e-14 
-4.79078 -3.01666 -2.4294e-14 
-4.48839 -2.98053 -2.81538e-14 
-4.19333 -2.99172 -3.85432e-14 
-3.89916 -3.02949 -5.92985e-14 
-3.59753 -3.03802 -7.65399e-14 
-3.29869 -3.04574 -1.01188e-13 
-2.97994 -3.04084 -1.27176e-13 
-2.68155 -2.98058 -1.48364e-13 
-2.37602 -2.98461 -1.69309e-13 
-2.08051 -3.05154 -1.62398e-13 
-1.76846 -3.04789 -1.10819e-13 
-1.42917 -3.02414 -3.05561e-14 
-1.14215 -2.96443 2.00525e-13 
-0.86105 -2.84799 1.96471e-13 
-0.552235 -2.78568 5.4701e-13 
-0.230566 -2.87515 -6.57142e-13 
0.0103484 -2.61609 1.26348e-12 
0.277126 -2.6293 -6.08645e-13 
0.550249 -2.76731 -8.77447e-14 
0.839653 -2.88626 -1.17622e-13 
1.15121 -2.94628 7.96184e-14 
1.46571 -2.97066 1.11883e-13 
1.7572 -3.03121 1.91268e-13 
2.07352 -3.02991 1.87492e-13 
2.36737 -3.11206 1.91016e-13 
2.67211 -3.04461 1.64309e-13 
2.96841 -3.0763 1.29114e-13 
3.2677 -3.00326 9.61046e-14 
3.56845 -3.00313 7.23085e-14 
3.87649 -3.01264 5.6287e-14 
4.17371 -2.98682 4.12567e-14 
4.47289 -2.97484 2.95002e-14 
4.77225 -2.99215 2.29144e-14 
5.0712 -2.99373 1.77898e-14 
5.37367 -3.00301 1.41209e-14 
5.67939 -2.97838 1.04845e-14 
5.98584 -2.98023 8.14337e-15 
6.29799 -2.96531 6.5355e-15 
6.59395 -2.98076 4.96043e-15 
6.9147 -2.96456 2.88745e-15 
7.23074 -2.98533 1.72524e-15 
7.53046 -2.97526 4.09162e-16 
7.83516 -2.98768 -8.24391e-16 
8.13338 -2.96211 -2.62638e-15 
8.43512 -2.94968 -4.74054e-15 
8.73895 -2.96865 -7.77963e-15 
9.05497 -3.04594 -1.46505e-14 
9.37151 -2.99448 -2.0342e-14 
9.66503 -2.92386 -2.2851e-14 
9.98177 -3.0193 -2.82222e-14 
10.3111 -2.96358 -2.00984e-14 
10.6413 -3.06484 -2.79532e-14 
10.9724 -2.97462 -6.4432e-15 
11.3294 -2.92454 2.39043e-14 
11.6656 -3.05168 -9.57765e-14 
12 -2.96243 -2.47809e-08 
-12 -2.69168 2.58987e-08 
-11.6455 -2.73462 4.41882e-14 
-11.3095 -2.62401 -3.81046e-14 
-10.9684 -2.645 -9.39103e-15 
-10.6314 -2.6329 9.74217e-16 
-10.3001 -2.67169 8.13577e-15 
-9.96949 -2.65257 1.71158e-14 
-9.64215 -2.64447 1.77925e-14 
[...]
POINT_DATA 1978 
VECTORS vectors float
0.00373261 -0.0107684 0.999955 
0.0113538 -0.0655431 0.997783 
0.00821249 -0.0650771 0.997847 
0.00820815 -0.0529914 0.998562 
0.00865484 -0.040056 0.999161 
0.00907237 -0.0260322 0.999621 
0.00816069 -0.0164381 0.999833 
0.00842123 -0.0102321 0.999913 
0.00894484 -0.00608768 0.999942 
0.00889292 -0.00412098 0.999953 
0.00926058 -0.00332687 0.999953 
0.00905207 -0.00288855 0.999955 
0.00793702 -0.00222152 0.999965 
0.00694119 -0.00105036 0.999973 
0.00693733 0.000469572 0.999973 
0.00771414 0.00235719 0.999966 
0.00807698 0.00410883 0.999957 
0.00812897 0.00534567 0.999952 
0.00841408 0.00646388 0.999943 
0.00841739 0.00794333 0.999933 
0.00828715 0.0101398 0.999914 
0.00805401 0.0133024 0.999878 
0.00778415 0.0172258 0.999821 
0.00836933 0.0216533 0.99973 
0.00850566 0.0276714 0.999582 
0.00840609 0.0346063 0.999367 
0.00867645 0.0439708 0.998995 
0.00831633 0.0562328 0.998384 
0.00758678 0.0739812 0.99723 
0.00685255 0.0972918 0.995231 
0.00629963 0.128419 0.9917 
0.00561643 0.172161 0.985051 
0.00517467 0.22678 0.973932 
0.00469254 0.300018 0.953922 
0.00399239 0.396401 0.918069 
0.00300295 0.522464 0.852657 
0.00195911 0.666169 0.7458 
0.000848605 0.831204 0.555968 
0.000300021 0.943663 0.330908 
7.02266e-05 0.999841 -0.0178173 
-0.000136114 0.946002 -0.324162 
-0.000797757 0.826343 -0.563167 
-0.00170426 0.674574 -0.738205 
-0.00250949 0.536697 -0.843772 
-0.0034902 0.417886 -0.908493 
-0.00446307 0.318963 -0.947757 
-0.00546377 0.240354 -0.97067 
-0.00684603 0.178867 -0.98385 
-0.00750471 0.129314 -0.991576 
-0.00810842 0.0963188 -0.995318 
-0.0079175 0.0710663 -0.99744 
-0.00754769 0.0555068 -0.99843 
-0.00821284 0.0436006 -0.999015 
-0.00823015 0.0341857 -0.999381 
-0.00789539 0.0272451 -0.999597 
-0.00821719 0.02178 -0.999729 
-0.00847956 0.0171572 -0.999817 
-0.00849832 0.0135259 -0.999872 
-0.00811108 0.0105386 -0.999911 
-0.00779525 0.00830516 -0.999934 
-0.00792776 0.00652091 -0.999946 
-0.00806323 0.00497582 -0.999954 
-0.00757737 0.0036052 -0.999963 
-0.00779459 0.00253106 -0.999965 
-0.00814769 0.00128127 -0.999965 
-0.0079965 -2.10938e-05 -0.999967 
-0.00775167 -0.00141341 -0.999967 
-0.00748415 -0.00291923 -0.999966 
-0.00717837 -0.00435256 -0.999964 
-0.00866963 -0.00563412 -0.999947 
-0.00960987 -0.0079298 -0.999923 
-0.00812247 -0.0116164 -0.999901 
-0.00872616 -0.0164181 -0.999829 
-0.00902349 -0.0262284 -0.999617 
-0.00952687 -0.0377014 -0.999245 
-0.00900511 -0.054588 -0.99847 
-0.0074479 -0.0651672 -0.997848 
-0.0112709 -0.0652396 -0.997804 
-0.00380949 -0.0107262 -0.999954 
-0.00357476 -0.0112228 0.999961 
0.0259391 -0.0507511 0.998376 
0.0331528 -0.0587321 0.997727 
0.0332867 -0.0531217 0.998037 
0.0351774 -0.041509 0.998525 
0.0352095 -0.0302869 0.998923 
0.0375827 -0.0200438 0.999096 
0.0394068 -0.0129114 0.999145 
0.0392796 -0.00802388 0.999198 
0.0404121 -0.00517123 0.999173 
0.0402923 -0.00365566 0.999185 
0.0404896 -0.00278398 0.999179 
0.0414155 -0.00192711 0.999143 
0.0430048 -0.000729964 0.999078 
0.0439183 0.000727203 0.999038 
0.0422372 0.00226916 0.999107 
0.0415297 0.0038104 0.999134 
0.041871 0.00511498 0.999113 
0.0414014 0.00640765 0.999125 
0.0417006 0.00800866 0.999101 
0.0416078 0.0102449 0.999085 
0.0419578 0.0132119 0.999035 
0.0422151 0.0168223 0.99897 
0.0404971 0.021771 0.998945 
0.0421478 0.0271572 0.998745 
0.0412519 0.0340348 0.998571 
0.0393405 0.0429784 0.998306 
0.0392424 0.0555141 0.997689 
0.0373538 0.0726468 0.996661 
0.0359119 0.097367 0.994606 
0.0335416 0.129432 0.991023 
0.0301065 0.172986 0.984471 
0.026138 0.233469 0.972016 
0.02167 0.313461 0.949359 
0.0167562 0.41572 0.909342 
0.011857 0.542529 0.839958 
0.00672117 0.702486 0.71167 
0.00346313 0.842816 0.538194 
0.00118937 0.963858 0.266415 
-0.000759136 0.999691 -0.0248334 
-0.00235654 0.952375 -0.304922 
-0.00494641 0.834861 -0.550441 
-0.00828529 0.685451 -0.728077 
-0.013423 0.531387 -0.847029 
-0.0183012 0.404093 -0.914541 
-0.0229399 0.30287 -0.952759 
-0.0270925 0.224821 -0.974027 
-0.0300233 0.163304 -0.986121 
-0.0336985 0.118799 -0.992352 
-0.0354512 0.088114 -0.995481 
-0.0391011 0.0665949 -0.997019 
-0.0397398 0.0517411 -0.997873 
-0.0399878 0.0402425 -0.998393 
-0.0414062 0.0316654 -0.998644 
-0.0417295 0.0251493 -0.998815 
-0.0410048 0.0199025 -0.998964 
-0.0414519 0.0157048 -0.99902 
-0.0412977 0.012344 -0.999074 
-0.0425311 0.00971813 -0.999051 
-0.0423201 0.00767103 -0.999078 
-0.0424161 0.00599107 -0.999085 
-0.04223 0.00456786 -0.9991 
-0.0439478 0.00337483 -0.999031 
-0.0419781 0.00220764 -0.999119 
-0.0427102 0.0010199 -0.99909 
-0.0426528 -0.000235521 -0.999093 
-0.0431305 -0.00159317 -0.999072 
-0.0430623 -0.0030574 -0.999069 
-0.0434724 -0.00454193 -0.999048 
-0.0391441 -0.00652215 -0.999215 
-0.0393628 -0.00951886 -0.999183 
-0.0408592 -0.0137437 -0.999075 
-0.0359148 -0.0201394 -0.999154 
-0.0363763 -0.0293842 -0.998911 
-0.0324758 -0.042164 -0.998587 
-0.034447 -0.0530097 -0.998003 
-0.0335138 -0.0583687 -0.997736 
-0.0258161 -0.0503779 -0.998398 
0.00401629 -0.0117909 -0.99995 
-0.00335174 -0.0118934 0.999946 
0.0303455 -0.0515392 0.998213 
0.0354339 -0.0562918 0.99779 
0.0384272 -0.0500164 0.998012 
0.0404879 -0.0401947 0.998375 
0.0424888 -0.0302255 0.998644 
0.0445293 -0.0212084 0.998787 
0.0464608 -0.0140533 0.998823 
0.047389 -0.008883 0.998843 
0.0487272 -0.00575582 0.998799 
0.0495625 -0.00399374 0.998766 
0.0501573 -0.00275651 0.99874 
0.0502915 -0.00167141 0.998736 
0.0503524 -0.000524893 0.998735 
0.0501937 0.000836861 0.998743 
0.050406 0.0021589 0.99873 
0.0504887 0.00345482 0.998721 
0.0502753 0.00468179 0.998728 
0.0499927 0.00595275 0.998735 
0.0498436 0.00745074 0.998732 
0.0496799 0.00943565 0.998724 
0.049614 0.012045 0.998699 
0.0495379 0.015301 0.998659 
0.0496991 0.0196506 0.998573 
0.0497316 0.0246 0.998462 
0.0491772 0.0309735 0.998315 
0.0487156 0.0397319 0.998024 
0.0473459 0.0510517 0.997578 
0.0454742 0.0677862 0.996667 
0.0427497 0.0909055 0.994944 
0.0385679 0.123763 0.991569 
0.0345608 0.168137 0.985161 
0.0301605 0.229049 0.972951 
0.0243129 0.309724 0.950521 
0.0180732 0.419085 0.907775 
0.0115774 0.564568 0.825311 
0.00622912 0.710754 0.703418 
0.00206669 0.852794 0.522246 
0.000506786 0.957135 0.289642 
-0.00193391 0.999959 -0.00885836 
-0.0039743 0.956077 -0.293091 
-0.00674216 0.846271 -0.532712 
-0.0102238 0.700251 -0.713828 
-0.0148286 0.54872 -0.83588 
-0.0203088 0.414411 -0.909868 
-0.026005 0.307866 -0.95108 
-0.0313631 0.228861 -0.972958 
-0.0362505 0.168188 -0.985093 
-0.0401338 0.124574 -0.991402 
-0.043084 0.0921954 -0.994812 
-0.0455182 0.0698308 -0.996523 
-0.0472124 0.0531215 -0.997474 
-0.0484472 0.0413808 -0.997971 
-0.0490422 0.0321873 -0.998281 
-0.0492495 0.0252171 -0.998472 
-0.0495515 0.0200545 -0.998573 
-0.0497632 0.0158731 -0.998638 
-0.0498968 0.0125577 -0.998678 
-0.049704 0.00983178 -0.99872 
-0.0499299 0.00774768 -0.998726 
-0.05007 0.00613329 -0.99873 
-0.0501855 0.00477699 -0.998731 
-0.0502951 0.00361067 -0.998732 
-0.0505841 0.00249842 -0.998719 
-0.0506504 0.00136556 -0.998719 
-0.0506569 0.000143417 -0.998719 
-0.0504779 -0.00121796 -0.998727 
-0.0499472 -0.00273156 -0.998754 
-0.0501495 -0.00465596 -0.998733 
-0.0489415 -0.00693398 -0.998781 
-0.0480864 -0.0101484 -0.998795 
-0.0466889 -0.015085 -0.998799 
-0.0447706 -0.0212897 -0.998774 
-0.0431166 -0.0298274 -0.998629 
-0.0409938 -0.0392633 -0.998391 
-0.0388358 -0.0494839 -0.998024 
-0.03542 -0.0560766 -0.997803 
-0.0307926 -0.0513664 -0.998208 
0.00392397 -0.0128186 -0.999928 
-0.00243018 -0.0113744 0.999945 
0.0259423 -0.0501016 0.99841 
0.0302582 -0.0571347 0.997912 
0.033632 -0.0503157 0.998173 
0.0366555 -0.0411617 0.998482 
0.0396527 -0.0306074 0.998749 
0.041277 -0.0214812 0.998921 
0.0432632 -0.0140974 0.998969 
0.0453105 -0.00915882 0.998934 
0.0456783 -0.00604956 0.998942 
0.0460042 -0.00394526 0.998937 
0.0474283 -0.00248318 0.998875 
0.0472364 -0.00119729 0.998886 
0.0470928 2.16189e-05 0.998894 
0.0465889 0.00129423 0.998916 
0.046832 0.00246261 0.998903 
0.0473438 0.00357081 0.998876 
0.047086 0.00475289 0.998883 
0.0468432 0.00595831 0.998888 
0.0466709 0.00740859 0.998886 
0.0465322 0.00928514 0.998877 
0.0464142 0.0117521 0.998857 
0.0463945 0.0149384 0.998814 
0.0470756 0.0188887 0.998717 
0.0464488 0.0239839 0.998637 
0.0464599 0.0305714 0.998454 
0.0463017 0.0389038 0.998174 
0.0450151 0.0508048 0.997696 
0.0428808 0.0668205 0.996847 
0.0394114 0.0909162 0.995084 
0.0348402 0.123723 0.991708 
0.0300264 0.169894 0.985013 
0.0261911 0.232539 0.97224 
0.0204102 0.319747 0.947289 
0.0140468 0.441607 0.897105 
0.00859273 0.573233 0.819354 
0.00454723 0.715917 0.698176 
0.000933404 0.864296 0.502984 
-0.00183781 0.970343 0.24173 
-0.00425465 0.999954 -0.00860943 
-0.00459574 0.963222 -0.26867 
-0.00537836 0.859164 -0.511676 
-0.00838435 0.71136 -0.702783 
-0.0126937 0.55879 -0.829218 
-0.0172875 0.420729 -0.907028 
-0.0226165 0.314801 -0.948894 
-0.0279776 0.230244 -0.972736 
-0.0337333 0.170211 -0.984835 
-0.0369607 0.125178 -0.991449 
-0.0404484 0.0932134 -0.99483 
-0.0421765 0.0699626 -0.99666 
-0.04399 0.0528335 -0.997638 
-0.0454388 0.040189 -0.998163 
-0.0461026 0.0312834 -0.99845 
-0.0465123 0.0245906 -0.998617 
-0.0468553 0.0194022 -0.998717 
-0.0468569 0.0153483 -0.998787 
-0.0467987 0.0121471 -0.998835 
-0.0466397 0.00967164 -0.998867 
-0.0465095 0.00768018 -0.998892 
-0.0463029 0.00607622 -0.998912 
-0.0465242 0.00483796 -0.99891 
-0.0465206 0.00371501 -0.998913 
-0.0468872 0.00260876 -0.998901 
-0.0471285 0.0015502 -0.998891 
-0.0475428 0.000332926 -0.998872 
-0.0471517 -0.000997742 -0.998891 
-0.046844 -0.00260641 -0.998901 
-0.0464885 -0.00456929 -0.998913 
-0.0471329 -0.00711428 -0.998867 
-0.0451385 -0.0107425 -0.998927 
-0.0425242 -0.0157537 -0.998975 
-0.0422236 -0.0224358 -0.99886 
-0.0391287 -0.0319045 -0.998729 
-0.0383388 -0.0411661 -0.998421 
-0.0340554 -0.0509104 -0.998126 
-0.0297066 -0.0570727 -0.997932 
-0.0255881 -0.0486614 -0.998491 
0.00335583 -0.0127452 -0.999923 
-0.00314584 -0.0148384 0.999868 
0.0203893 -0.050561 0.998517 
0.0241032 -0.059528 0.997938 
0.0275657 -0.0530655 0.998214 
0.0301744 -0.0437032 0.998594 
0.0332238 -0.0330472 0.998907 
0.0352325 -0.0234392 0.999107 
0.036826 -0.0156663 0.999202 
0.038279 -0.0100709 0.999221 
0.0384786 -0.00653247 0.999242 
0.0390799 -0.00392058 0.999231 
0.0397312 -0.00198423 0.999213 
0.0397635 -0.000488967 0.999212 
0.039717 0.000795796 0.999214 
0.0391001 0.00203942 0.999237 
0.0396613 0.00308698 0.999212 
0.040387 0.0040676 0.999179 
0.0396155 0.00512807 0.999205 
0.0395017 0.00629161 0.999203 
0.0393837 0.00774093 0.999198 
0.0393855 0.00964686 0.999181 
0.0393291 0.0121266 0.999156 
0.0395249 0.0154243 0.999103 
0.0406435 0.0193875 0.998989 
0.0396951 0.024729 0.998909 
0.039703 0.0317164 0.998711 
0.0398575 0.0407018 0.998379 
0.0380082 0.0531827 0.997865 
0.0361125 0.0714192 0.996796 
0.0320799 0.0949788 0.994967 
0.0269944 0.133196 0.990728 
0.0223676 0.183357 0.982796 
0.0193404 0.246748 0.968895 
0.0140647 0.348445 0.937231 
0.00829396 0.46721 0.884117 
0.00453389 0.602598 0.798038 
0.00246064 0.766563 0.642169 
5.02494e-05 0.891789 0.452466 
-0.000364835 0.944926 0.327295 
-0.00127827 0.99748 0.0709472 
-0.00359372 0.966111 -0.258105 
-0.00469286 0.855864 -0.517185 
-0.00577054 0.718961 -0.695028 
-0.00918539 0.558949 -0.829159 
-0.0128515 0.416214 -0.909184 
-0.0175277 0.303412 -0.952705 
-0.0224083 0.2271 -0.97362 
-0.0283624 0.1647 -0.985941 
-0.0302458 0.121876 -0.99209 
-0.0342351 0.0898804 -0.995369 
-0.0356697 0.0660021 -0.997186 
-0.0379901 0.0491562 -0.998072 
-0.0391843 0.0375998 -0.998528 
-0.0395485 0.0289102 -0.998803 
-0.0396965 0.0224731 -0.998962 
-0.0400548 0.0177263 -0.999044 
-0.0399414 0.0140252 -0.999107 
-0.0398969 0.0111753 -0.999145 
-0.0392659 0.00890733 -0.999193 
-0.0393168 0.00716141 -0.999204 
-0.0385478 0.00583028 -0.999243 
-0.0396333 0.00469635 -0.999207 
-0.0392753 0.00367137 -0.999225 
-0.0394856 0.00274174 -0.99922 
-0.0397186 0.00170314 -0.999213 
-0.0400218 0.000531098 -0.999202 
-0.0396123 -0.000864242 -0.999218 
-0.0395135 -0.00264229 -0.999219 
-0.039288 -0.00481491 -0.999219 
-0.0407614 -0.00745666 -0.999145 
-0.038098 -0.0111933 -0.999215 
-0.0357263 -0.0170559 -0.99922 
-0.0360079 -0.0243507 -0.999059 
-0.0326701 -0.0341553 -0.998886 
-0.0322929 -0.0433914 -0.99854 
-0.0277882 -0.0533413 -0.998194 
-0.0233179 -0.0588076 -0.998001 
-0.0197994 -0.0492723 -0.998592 
0.00223358 -0.012663 -0.999922 
-0.0025571 -0.0153447 0.999858 
0.0129792 -0.045773 0.99887 
0.0176018 -0.060166 0.998037 
0.0205024 -0.0577411 0.998125 
0.0227751 -0.0493332 0.998527 
0.0254019 -0.0388838 0.998925 
0.0274639 -0.0288662 0.99921 
0.028625 -0.0198725 0.999396 
0.0299561 -0.0130674 0.999469 
0.0301707 -0.00852734 0.999512 
0.0304217 -0.00509062 0.999528 
0.0310372 -0.0025601 0.999518 
0.0308015 -0.000734073 0.999529 
0.0307723 0.000712716 0.999529 
0.0307689 0.00189563 0.999528 
0.0303311 0.00298632 0.999539 
0.0308435 0.00387064 0.99952 
0.0310039 0.00472926 0.999511 
0.0304285 0.00573733 0.999524 
0.0304122 0.00690227 0.999517 
0.0305828 0.00842222 0.9995 
0.0306385 0.0104294 0.999479 
0.0309514 0.013138 0.999438 
0.0311128 0.0166388 0.999381 
0.0322031 0.0208328 0.999267 
0.03147 0.0269364 0.999145 
0.0313531 0.0348308 0.998905 
0.0309655 0.0447791 0.99852 
0.0295642 0.0601667 0.997754 
0.0260128 0.0791568 0.996527 
0.0226558 0.109692 0.993713 
0.0167303 0.15593 0.987633 
0.0129056 0.221674 0.975042 
0.0108416 0.296729 0.954905 
0.00600429 0.396274 0.918118 
0.00127285 0.530823 0.847491 
-0.000363984 0.684628 0.728898 
-0.00200274 0.833835 0.552017 
-0.00137646 0.996354 0.0853074 
0.0023219 0.99693 -0.0783042 
-0.00092183 0.958133 -0.286325 
3.09573e-05 0.958045 -0.286641 
-0.00301339 0.835967 -0.548774 
-0.00318936 0.622072 -0.782967 
-0.00551463 0.468082 -0.883676 
-0.0096118 0.332245 -0.943152 
-0.0132935 0.239401 -0.970837 
-0.0201068 0.175873 -0.984213 
-0.021196 0.133064 -0.990884 
-0.0254551 0.0964199 -0.995021 
-0.0277309 0.0719519 -0.997027 
-0.0297458 0.0518931 -0.998213 
-0.0307666 0.0390079 -0.998769 
-0.0314036 0.0298548 -0.999064 
-0.0314039 0.0229522 -0.999246 
-0.0314394 0.0178653 -0.999349 
-0.0312648 0.014124 -0.999415 
-0.0311214 0.0112739 -0.999455 
-0.0306632 0.00909692 -0.999492 
-0.0305141 0.00737601 -0.99951 
-0.0295836 0.00610196 -0.999547 
-0.030539 0.00501762 -0.999524 
-0.0308354 0.00411454 -0.999519 
-0.0299908 0.00321912 -0.999548 
-0.0306544 0.00227106 -0.999531 
-0.0306438 0.00111536 -0.999533 
-0.030456 -0.000260541 -0.999539 
-0.0304393 -0.00210913 -0.999538 
-0.0299755 -0.00446529 -0.999545 
-0.0318461 -0.00760774 -0.999467 
-0.0301075 -0.0121425 -0.999477 
-0.0278279 -0.0183737 -0.999448 
-0.0284954 -0.0263007 -0.999252 
-0.0255052 -0.0369416 -0.998996 
-0.0255679 -0.0462922 -0.998605 
-0.0212815 -0.0558323 -0.998217 
-0.017215 -0.0609183 -0.997998 
-0.0146924 -0.0512732 -0.99858 
0.001425 -0.0125626 -0.999923 
-0.000997003 -0.011986 0.999929 
0.0105745 -0.0527541 0.998556 
0.0141846 -0.0624431 0.997951 
0.0155499 -0.0567147 0.998274 
0.0176399 -0.0472035 0.998733 
0.0191959 -0.0368678 0.99914 
0.0207949 -0.0267459 0.99943 
0.0216526 -0.0180142 0.999607 
0.0218903 -0.0119831 0.999692 
0.0223442 -0.00738999 0.999726 
0.0225814 -0.00391862 0.999741 
0.0221981 -0.00152139 0.999756 
0.022086 0.000305032 0.999759 
0.0219778 0.00165838 0.99976 
0.0221368 0.002708 0.999754 
0.0213774 0.00362435 0.999768 
0.0214508 0.00438433 0.999763 
0.0218978 0.00518543 0.99975 
0.0213386 0.00613728 0.999757 
0.0216336 0.00731855 0.999742 
0.0219165 0.0088975 0.999723 
0.0223305 0.0111041 0.999692 
0.0226012 0.0140489 0.999649 
0.0225266 0.0177976 0.999591 
0.0240276 0.0226857 0.999457 
0.0233242 0.0299384 0.999283 
0.0225024 0.0390474 0.998987 
0.0227376 0.0522947 0.998375 
0.0190743 0.069329 0.997417 
0.0166706 0.0969412 0.995155 
0.0123573 0.137885 0.990379 
0.00765948 0.214752 0.976646 
0.00419331 0.311969 0.950091 
0.000280752 0.436647 0.899642 
-0.00210536 0.626816 0.779179 
-0.00159542 0.787495 0.616322 
0.00342887 0.936044 0.35187 
0.00289755 0.955781 0.294081 
-0.00135206 0.95554 0.294858 
0.00129604 0.997217 0.0745689 
0.000207831 0.996518 -0.0833326 
-0.00575961 0.956302 -0.292335 
0.00216906 0.870609 -0.491978 
0.000741591 0.718014 -0.696032 
0.00187539 0.525362 -0.850885 
-0.00238623 0.379201 -0.92532 
-0.00528249 0.270545 -0.962701 
-0.011511 0.182285 -0.983187 
-0.0146447 0.125369 -0.992009 
-0.0178209 0.0918789 -0.995615 
-0.0212888 0.0651701 -0.997652 
-0.0220019 0.0479428 -0.998611 
-0.0227463 0.0360285 -0.999095 
-0.0233211 0.0274258 -0.999355 
-0.0231714 0.021054 -0.999513 
-0.0228059 0.0164349 -0.999608 
-0.022472 0.0129742 -0.999666 
-0.0221407 0.0104156 -0.999704 
-0.0221033 0.00840791 -0.999724 
-0.0213763 0.00699004 -0.99975 
-0.0214011 0.00582178 -0.999757 
-0.0214966 0.00495641 -0.99976 
-0.0220648 0.00414083 -0.999751 
-0.0209477 0.00337778 -0.999778 
-0.0218938 0.00241925 -0.999761 
-0.0214671 0.00131149 -0.999772 
-0.0216809 -0.00022091 -0.999768 
-0.0215658 -0.0022352 -0.999769 
-0.0214079 -0.00492899 -0.999761 
-0.0236857 -0.00810397 -0.99969 
-0.0220147 -0.0127493 -0.99968 
-0.0205205 -0.0197591 -0.999598 
-0.0211687 -0.0284186 -0.999376 
-0.0185829 -0.039352 -0.999056 
-0.018783 -0.0491061 -0.998621 
-0.015035 -0.0582033 -0.998195 
-0.0119185 -0.062911 -0.997952 
-0.0101392 -0.052113 -0.998593 
0.00106744 -0.0129142 -0.999917 
-0.000833337 -0.0123991 0.999926 
0.0074994 -0.0531579 0.998561 
0.0100412 -0.0638373 0.997913 
0.0107498 -0.0597239 0.998162 
0.0122745 -0.0510507 0.998623 
0.0132057 -0.0403008 0.999104 
0.0142859 -0.0297422 0.999459 
0.0152515 -0.020783 0.999671 
0.0151128 -0.013785 0.999794 
0.0154659 -0.00859964 0.999847 
0.0159465 -0.00472483 0.999865 
0.0150954 -0.00176803 0.999888 
0.0149803 0.000299785 0.999891 
0.0147285 0.00178185 0.999893 
0.0147169 0.00283468 0.999891 
0.0142901 0.00365761 0.999894 
0.0136997 0.00439766 0.9999 
0.014118 0.00507414 0.999891 
0.0140524 0.0058498 0.999887 
0.0141401 0.00686839 0.99988 
0.0145126 0.00820974 0.999864 
0.0151495 0.0101143 0.999837 
0.0155267 0.0127763 0.999801 
0.0154143 0.0162673 0.999752 
0.0162579 0.0210597 0.99965 
0.0170467 0.0272886 0.999484 
0.015608 0.0360679 0.999232 
0.0158556 0.0488253 0.998685 
0.0130502 0.0659164 0.997744 
0.0109903 0.0926223 0.995647 
0.00760905 0.137319 0.990505 
0.00437936 0.209463 0.977811 
0.000633518 0.318453 0.947954 
-0.00189926 0.476348 0.879261 
-0.00294962 0.624276 0.78121 
-0.000347294 0.812676 0.582722 
0.00264394 0.995639 0.0934496 
0.00658132 0.992424 0.122689 
0.00601625 0.993779 0.111238 
0.00552791 0.997117 0.075815 
0.00448997 0.99906 0.0432941 
0.00302657 0.999835 -0.0182076 
-0.00255972 0.84999 -0.526794 
0.0022773 0.665796 -0.746138 
0.00245829 0.541852 -0.840476 
0.00273515 0.440249 -0.897881 
0.000311717 0.325124 -0.945684 
-0.00485462 0.207833 -0.97816 
-0.00836959 0.143257 -0.989656 
-0.0106676 0.0980508 -0.995129 
-0.0141925 0.0707747 -0.997394 
-0.0150013 0.0515776 -0.998561 
-0.015662 0.0382874 -0.999147 
-0.0161972 0.0289297 -0.999453 
-0.0162578 0.0222233 -0.999624 
-0.0157988 0.0171915 -0.99973 
-0.0153216 0.0134522 -0.999795 
-0.0147297 0.0106773 -0.999838 
-0.0149983 0.00873015 -0.999852 
-0.0140174 0.00720381 -0.999881 
-0.0146388 0.00616006 -0.999876 
-0.0138207 0.00526169 -0.999894 
-0.0144043 0.00456128 -0.999889 
-0.0139349 0.00388416 -0.999899 
-0.0144106 0.00300282 -0.999895 
-0.0142337 0.00197758 -0.9999 
-0.0146082 0.000436362 -0.999896 
-0.0145562 -0.001698 -0.999895 
-0.014475 -0.00457607 -0.99989 
-0.0161564 -0.00862277 -0.999836 
-0.0155323 -0.0142724 -0.999781 
-0.013928 -0.0214209 -0.999677 
-0.0150141 -0.0295827 -0.999453 
-0.0128056 -0.0400058 -0.999121 
-0.0131545 -0.0502204 -0.998655 
-0.0104628 -0.0597214 -0.998164 
-0.00828144 -0.0645848 -0.997881 
-0.00669436 -0.0524652 -0.998603 
0.000594583 -0.0122145 -0.999929 
-0.000506232 -0.0121772 0.999931 
0.00520581 -0.0535902 0.998552 