# vtk DataFile Version 3.0 
Exported using Morpho https://github.com/Morpho-lang/morpho 
ASCII 
DATASET UNSTRUCTURED_GRID 

POINTS 1978 float 
-12 -4 -5.63044e-12 
-11.5976 -4 2.85277e-10 
-11.3008 -4 3.20088e-10 
-10.9629 -4 2.66136e-10 
-10.6537 -4 2.01508e-10 
-10.2989 -4 1.43889e-10 
-9.97579 -4 8.60671e-11 
-9.6702 -4 5.28873e-11 
-9.33589 -4 3.38771e-11 
-9.01295 -4 2.325e-11 
-8.68177 -4 2.06797e-11 
-8.34572 -4 1.9276e-11 
-8.03234 -4 1.48414e-11 
-7.7493 -4 7.2804e-12 
-7.4834 -4 -2.24963e-12 
-7.19784 -4 -1.41384e-11 
-6.9016 -4 -2.52097e-11 
-6.60236 -4 -3.25698e-11 
-6.29948 -4 -3.95349e-11 
-5.98697 -4 -4.74233e-11 
-5.68089 -4 -5.97834e-11 
-5.37466 -4 -7.73738e-11 
-5.07506 -4 -9.88675e-11 
-4.78203 -4 -1.34049e-10 
-4.45503 -4 -1.66073e-10 
-4.15094 -4 -2.10052e-10 
-3.82393 -4 -2.67953e-10 
-3.50698 -4 -3.17456e-10 
-3.19481 -4 -3.86317e-10 
-2.90341 -4 -4.53071e-10 
-2.61851 -4 -4.8737e-10 
-2.34133 -4 -5.98651e-10 
-2.06999 -4 -5.94542e-10 
-1.79295 -4 -6.25593e-10 
-1.50991 -4 -5.96643e-10 
-1.21598 -4 -4.83332e-10 
-0.923063 -4 -4.84113e-10 
-0.598643 -4 -8.34857e-11 
-0.326529 -4 -5.53523e-10 
0.021111 -4 5.7237e-10 
0.32067 -4 1.92616e-10 
0.610632 -4 2.31694e-10 
0.906738 -4 4.53926e-10 
1.1841 -4 2.7391e-10 
1.45426 -4 5.88245e-10 
1.72824 -4 6.51937e-10 
2.00963 -4 7.03435e-10 
2.30062 -4 7.13571e-10 
2.62671 -4 6.04726e-10 
2.93065 -4 5.06441e-10 
3.26506 -4 3.82503e-10 
3.55427 -4 2.97965e-10 
3.85766 -4 2.51018e-10 
4.17444 -4 1.98395e-10 
4.47529 -4 1.55707e-10 
4.77474 -4 1.28425e-10 
5.0895 -4 1.03561e-10 
5.39878 -4 8.20524e-11 
5.71221 -4 6.23972e-11 
6.0048 -4 4.79716e-11 
6.30081 -4 3.82946e-11 
6.59631 -4 2.94657e-11 
6.89893 -4 2.09039e-11 
7.1739 -4 1.42747e-11 
7.48131 -4 8.01163e-12 
7.77698 -4 -1.38433e-13 
8.07324 -4 -7.99111e-12 
8.36056 -4 -1.71022e-11 
8.64885 -4 -2.46729e-11 
8.92471 -4 -3.56844e-11 
9.27742 -4 -4.9063e-11 
9.612 -4 -6.17739e-11 
9.8997 -4 -9.8526e-11 
10.2752 -4 -1.45595e-10 
10.5963 -4 -2.26209e-10 
10.9948 -4 -2.8699e-10 
11.3065 -4 -3.17315e-10 
11.5967 -4 -2.76949e-10 
12 -4 3.50755e-12 
-12 -3.6226 6.83398e-11 
-11.7031 -3.71601 3.76164e-09 
-11.352 -3.61665 3.12066e-09 
-11.0456 -3.66744 3.48412e-09 
-10.7173 -3.64434 2.71644e-09 
-10.3931 -3.6865 2.48455e-09 
-10.0514 -3.65867 1.6878e-09 
-9.73191 -3.64699 1.1424e-09 
-9.40847 -3.67578 8.57107e-10 
-9.07415 -3.66046 5.42611e-10 
-8.75209 -3.66414 3.40486e-10 
-8.42346 -3.6759 2.09623e-10 
-8.09667 -3.66536 1.03635e-10 
-7.78554 -3.64433 5.16697e-12 
-7.49609 -3.63103 -7.54799e-11 
-7.2103 -3.65761 -1.57546e-10 
-6.90432 -3.66133 -2.47473e-10 
-6.59565 -3.6616 -3.85926e-10 
-6.27938 -3.66881 -5.25095e-10 
-5.96752 -3.66108 -6.60413e-10 
-5.65734 -3.66003 -8.33974e-10 
-5.35366 -3.6526 -1.02787e-09 
-5.05942 -3.64575 -1.24305e-09 
-4.73927 -3.68237 -1.80893e-09 
-4.44155 -3.65778 -2.02383e-09 
-4.14228 -3.66133 -2.61218e-09 
-3.84517 -3.6895 -3.48571e-09 
-3.52861 -3.68443 -4.49491e-09 
-3.21821 -3.68365 -5.78432e-09 
-2.91076 -3.66226 -6.37228e-09 
-2.62994 -3.66429 -8.24552e-09 
-2.34426 -3.65739 -6.74138e-09 
-2.0506 -3.68413 -1.3669e-08 
-1.7627 -3.68687 -1.21086e-08 
-1.47344 -3.67101 -7.16055e-09 
-1.17307 -3.66423 -7.39312e-09 
-0.846212 -3.66762 -1.73801e-09 
-0.566688 -3.58956 1.68405e-09 
-0.245174 -3.67144 3.33896e-09 
0.0440343 -3.56479 8.24969e-09 
0.31392 -3.58924 -8.40085e-09 
0.604486 -3.61766 -6.33012e-10 
0.899916 -3.63661 -4.77265e-09 
1.19459 -3.6523 1.09691e-08 
1.4845 -3.65852 7.88484e-09 
1.78254 -3.68152 1.20111e-08 
2.07934 -3.68569 1.04998e-08 
2.40243 -3.72418 1.13309e-08 
2.7175 -3.6902 7.85152e-09 
3.03656 -3.71089 7.10267e-09 
3.33583 -3.65591 4.7379e-09 
3.63093 -3.66644 3.95395e-09 
3.93921 -3.67734 3.23214e-09 
4.23906 -3.65683 2.41515e-09 
4.53542 -3.65263 1.9057e-09 
4.84371 -3.66792 1.58379e-09 
5.15335 -3.663 1.24935e-09 
5.4663 -3.66755 9.95162e-10 
5.76712 -3.64675 7.46089e-10 
6.06566 -3.6538 6.07385e-10 
6.36325 -3.65195 4.41212e-10 
6.66643 -3.66198 4.05284e-10 
6.95205 -3.63055 2.29917e-10 
7.25362 -3.66628 1.8284e-10 
7.55384 -3.6539 8.35595e-11 
7.856 -3.65694 -2.71921e-11 
8.15152 -3.6458 -1.25619e-10 
8.43962 -3.64508 -2.39291e-10 
8.7231 -3.62239 -3.42715e-10 
9.04574 -3.70063 -6.53597e-10 
9.38301 -3.67709 -8.95106e-10 
9.68555 -3.62025 -1.12998e-09 
10.0215 -3.70669 -1.96421e-09 
10.3533 -3.65481 -2.23602e-09 
10.7248 -3.72068 -3.52069e-09 
11.0504 -3.63892 -3.1574e-09 
11.3507 -3.6088 -3.06924e-09 
11.707 -3.71748 -3.73664e-09 
12 -3.60669 -7.46881e-11 
-12 -3.32383 6.37022e-11 
-11.6235 -3.36679 8.56491e-10 
-11.2723 -3.26873 4.89406e-10 
-10.9623 -3.32103 9.36875e-10 
-10.6476 -3.28804 8.7382e-10 
-10.3496 -3.35472 9.87069e-10 
-10.0299 -3.31401 8.00953e-10 
-9.71193 -3.30352 6.42434e-10 
-9.39847 -3.34574 5.21013e-10 
-9.0859 -3.31634 2.88244e-10 
-8.77788 -3.31644 2.17468e-10 
-8.46885 -3.34066 1.35737e-10 
-8.15586 -3.33429 4.1007e-11 
-7.84923 -3.31212 -2.08093e-11 
-7.54894 -3.27999 -3.45004e-11 
-7.25481 -3.30574 -5.2156e-11 
-6.95945 -3.33231 -9.34258e-11 
-6.6516 -3.32843 -1.51039e-10 
-6.33949 -3.33771 -2.09897e-10 
-6.02877 -3.32801 -2.69991e-10 
-5.71735 -3.32365 -3.40476e-10 
-5.41008 -3.31225 -4.09804e-10 
-5.1077 -3.29561 -4.80867e-10 
-4.80696 -3.35332 -6.86726e-10 
-4.5039 -3.31863 -8.32084e-10 
-4.20593 -3.32713 -1.09429e-09 
-3.90194 -3.35177 -1.47863e-09 
-3.60376 -3.37037 -2.01581e-09 
-3.29131 -3.36552 -2.57029e-09 
-2.98232 -3.3549 -3.55747e-09 
-2.66525 -3.31829 -3.8248e-09 
-2.37863 -3.3281 -4.12461e-09 
-2.07618 -3.36992 -5.50367e-09 
-1.77034 -3.36479 -4.93469e-09 
-1.46084 -3.34012 -4.8826e-09 
-1.1247 -3.34796 -2.19197e-09 
-0.841334 -3.25711 1.10102e-09 
-0.556055 -3.17585 1.05587e-09 
-0.273075 -3.29051 1.02303e-08 
0.0213621 -3.13252 -1.22512e-08 
0.293963 -3.11786 -3.19025e-09 
0.56796 -3.2172 -3.38114e-09 
0.868954 -3.27299 6.05003e-10 
1.17474 -3.29977 -5.69195e-10 
1.47113 -3.31847 6.68198e-09 
1.77191 -3.35781 3.35752e-09 
2.07064 -3.36661 5.82559e-09 
2.3718 -3.43142 5.67825e-09 
2.67028 -3.37391 4.14529e-09 
2.97624 -3.40142 3.65501e-09 
3.27482 -3.33728 2.45547e-09 
3.58251 -3.32761 1.90107e-09 
3.87969 -3.34845 1.53235e-09 
4.17941 -3.32286 1.10705e-09 
4.47906 -3.30909 8.30933e-10 
4.77874 -3.3304 6.92887e-10 
5.08291 -3.33018 5.51693e-10 
5.39424 -3.33571 4.3475e-10 
5.7015 -3.31075 3.19344e-10 
6.01144 -3.30854 2.58502e-10 
6.30963 -3.30829 2.11806e-10 
6.61289 -3.32304 1.55043e-10 
6.91153 -3.28133 1.06033e-10 
7.21213 -3.32398 6.35056e-11 
7.5146 -3.3141 2.90512e-11 
7.81828 -3.32122 -1.09722e-11 
8.12528 -3.30283 -5.26619e-11 
8.42627 -3.28527 -1.00455e-10 
8.74615 -3.29776 -1.85771e-10 
9.06696 -3.38074 -3.4396e-10 
9.37859 -3.32854 -4.91303e-10 
9.69785 -3.27783 -6.26419e-10 
10.011 -3.37815 -8.91019e-10 
10.308 -3.2951 -8.5689e-10 
10.6273 -3.40561 -1.27426e-09 
10.9543 -3.31784 -9.90386e-10 
11.2827 -3.24321 -4.32142e-10 
11.6209 -3.36675 -8.76419e-10 
12 -3.30268 -7.12231e-11 
-12 -3.00858 4.88709e-11 
-11.6454 -3.05678 1.77051e-10 
-11.2964 -2.9527 -2.87423e-10 
-10.9468 -2.96685 1.04251e-10 
-10.613 -2.95981 2.00796e-10 
-10.2852 -3.00275 3.32411e-10 
-9.96332 -2.97308 3.35447e-10 
-9.64028 -2.97099 4.25258e-10 
-9.3389 -3.00106 2.39702e-10 
-9.03271 -2.96976 1.79516e-10 
-8.73225 -2.96428 9.87115e-11 
-8.43699 -3.00004 7.42328e-11 
-8.13274 -2.99183 4.87068e-11 
-7.83454 -2.97027 1.06964e-11 
-7.52908 -2.94929 -1.17733e-11 
-7.22692 -2.97067 -2.78338e-11 
-6.92927 -3.00097 -5.42508e-11 
-6.61903 -3.00224 -6.50929e-11 
-6.31394 -3.00432 -9.12219e-11 
-6.00525 -2.99615 -1.29072e-10 
-5.6992 -2.98797 -1.65858e-10 
-5.39409 -2.97514 -2.03232e-10 
-5.08966 -2.96306 -2.47026e-10 
-4.7906 -3.01908 -3.7201e-10 
-4.48979 -2.98579 -4.12863e-10 
-4.19519 -2.99566 -5.53252e-10 
-3.90177 -3.03121 -9.54351e-10 
-3.59708 -3.04179 -1.0925e-09 
-3.29868 -3.04628 -1.54595e-09 
-2.97703 -3.04228 -1.67833e-09 
-2.6852 -2.97558 -2.31504e-09 
-2.3821 -2.98162 -2.40803e-09 
-2.08574 -3.04686 -2.56926e-09 
-1.77492 -3.04389 -1.47098e-09 
-1.43764 -3.01894 -4.50036e-10 
-1.14974 -2.9609 3.28128e-09 
-0.868584 -2.83444 3.13844e-09 
-0.557365 -2.79161 7.78151e-09 
-0.233882 -2.86906 -9.61943e-09 
0.0116805 -2.62401 1.70455e-08 
0.278537 -2.61743 -7.492e-09 
0.55047 -2.77258 -1.70786e-09 
0.839792 -2.88788 -1.16275e-09 
1.15211 -2.93234 1.29644e-09 
1.465 -2.95684 9.20743e-10 
1.76659 -3.02033 4.15342e-09 
2.07325 -3.02968 1.81366e-09 
2.37019 -3.1095 2.91544e-09 
2.67404 -3.04095 2.57716e-09 
2.96976 -3.07803 1.79941e-09 
3.26869 -3.00526 1.46843e-09 
3.5691 -3.00679 1.0807e-09 
3.87822 -3.01546 8.3874e-10 
4.17492 -2.98985 6.09778e-10 
4.47479 -2.9788 4.38356e-10 
4.77485 -2.99421 3.40458e-10 
5.07293 -2.99548 2.64144e-10 
5.37443 -3.00566 2.10073e-10 
5.67913 -2.97946 1.56302e-10 
5.98516 -2.9821 1.20361e-10 
6.2971 -2.96448 9.41417e-11 
6.59343 -2.98548 7.52565e-11 
6.91432 -2.96428 3.86502e-11 
7.23077 -2.98717 2.95561e-11 
7.53014 -2.97629 8.66137e-12 
7.83505 -2.98919 -1.1279e-11 
8.13255 -2.96221 -3.81607e-11 
8.43459 -2.94939 -7.06214e-11 
8.73849 -2.96929 -1.15685e-10 
9.05458 -3.04733 -2.18137e-10 
9.37216 -2.99814 -3.03193e-10 
9.66457 -2.92581 -3.35984e-10 
9.98049 -3.02251 -4.16834e-10 
10.3103 -2.96527 -3.01487e-10 
10.6417 -3.06519 -4.1772e-10 
10.9734 -2.976 -9.5208e-11 
11.3303 -2.9251 3.33058e-10 
11.6658 -3.05268 -2.40661e-10 
12 -2.96245 -6.86651e-11 
-12 -2.69157 7.09391e-11 
-11.6461 -2.73517 -1.90263e-10 
-11.3121 -2.62428 -5.34354e-10 
-10.9717 -2.6466 -1.65581e-10 
-10.6327 -2.63301 3.76783e-11 
-10.2998 -2.67063 1.17444e-10 
-9.96731 -2.65322 2.52633e-10 
-9.63821 -2.64586 2.6425e-10 
-9.31298 -2.65694 2.21508e-10 
-9.0005 -2.629 1.69729e-10 
-8.6875 -2.62639 7.11069e-11 
-8.37771 -2.66456 2.35987e-11 
-8.07371 -2.64858 1.61939e-11 
-7.76249 -2.64223 7.64127e-13 
-7.44326 -2.62994 3.67549e-12 
-7.13782 -2.64995 -8.37605e-12 
-6.83543 -2.68123 -2.83943e-11 
-6.5281 -2.67213 -3.44405e-11 
-6.22409 -2.67303 -5.65356e-11 
-5.91971 -2.66269 -7.9302e-11 
-5.615 -2.65548 -9.96893e-11 
[...]
POINT_DATA 1978 
VECTORS vectors float
0.000788324 -0.000450026 1 
0.000631672 -0.064911 0.997891 
0.000697632 -0.0648064 0.997898 
0.000725967 -0.0528769 0.998601 
0.000688366 -0.0400207 0.999199 
0.000718068 -0.0260621 0.99966 
0.000692732 -0.0164839 0.999864 
0.00069315 -0.0102769 0.999947 
0.000717542 -0.00612534 0.999981 
0.000740136 -0.00414226 0.999991 
0.000749992 -0.00332864 0.999994 
0.000717204 -0.00287667 0.999996 
0.000644988 -0.00220345 0.999997 
0.000604763 -0.00103653 0.999999 
0.0005979 0.000476689 1 
0.000616761 0.00235271 0.999997 
0.000644102 0.00409556 0.999991 
0.000668291 0.00533557 0.999986 
0.000678943 0.00645971 0.999979 
0.000682092 0.00794443 0.999968 
0.000671723 0.0101413 0.999948 
0.000654064 0.0132965 0.999911 
0.00065273 0.0172103 0.999852 
0.000670978 0.0216362 0.999766 
0.000686926 0.0276514 0.999617 
0.000697947 0.0345785 0.999402 
0.000696518 0.0439657 0.999033 
0.00066907 0.0562555 0.998416 
0.00062051 0.0740086 0.997257 
0.000560745 0.0973339 0.995252 
0.000512434 0.128523 0.991706 
0.000465477 0.172231 0.985057 
0.000435338 0.226901 0.973918 
0.000384155 0.300158 0.953889 
0.000319457 0.396563 0.918008 
0.000242028 0.522498 0.852641 
0.000162206 0.666159 0.74581 
6.31927e-05 0.831181 0.556002 
3.87914e-05 0.943579 0.331149 
6.29554e-06 0.999843 -0.0177029 
-1.04586e-05 0.946068 -0.323969 
-5.49007e-05 0.826425 -0.563047 
-0.000128545 0.674774 -0.738024 
-0.000219968 0.536793 -0.843714 
-0.000287875 0.417938 -0.908476 
-0.000370487 0.319055 -0.947736 
-0.000451043 0.240437 -0.970665 
-0.000544247 0.17896 -0.983856 
-0.000609878 0.129377 -0.991595 
-0.000647183 0.0963671 -0.995346 
-0.000639748 0.0710881 -0.99747 
-0.000642738 0.0555087 -0.998458 
-0.000651075 0.0435888 -0.999049 
-0.000661229 0.0341687 -0.999416 
-0.000659444 0.0272269 -0.999629 
-0.000667781 0.0217623 -0.999763 
-0.000684043 0.0171428 -0.999853 
-0.000683545 0.013514 -0.999908 
-0.000661157 0.0105304 -0.999944 
-0.000648674 0.0083 -0.999965 
-0.000640688 0.00651542 -0.999979 
-0.000641891 0.00497317 -0.999987 
-0.000635986 0.00360426 -0.999993 
-0.000642208 0.00252864 -0.999997 
-0.000647631 0.00127999 -0.999999 
-0.00065226 -2.03725e-05 -1 
-0.000627015 -0.00141146 -0.999999 
-0.000613071 -0.00291167 -0.999996 
-0.000631821 -0.0043441 -0.99999 
-0.000698318 -0.00563689 -0.999984 
-0.000740984 -0.00794582 -0.999968 
-0.000711975 -0.0116414 -0.999932 
-0.000708228 -0.0164531 -0.999864 
-0.000753513 -0.026251 -0.999655 
-0.000755976 -0.0376818 -0.999289 
-0.000764682 -0.0544606 -0.998516 
-0.000695287 -0.064895 -0.997892 
-0.000595027 -0.0646181 -0.99791 
-0.000795914 -0.000373674 -1 
-0.000268558 0.000417603 1 
0.024871 -0.0498391 0.998448 
0.0325779 -0.058377 0.997763 
0.0326743 -0.0529628 0.998062 
0.0346105 -0.0414542 0.998541 
0.034565 -0.030278 0.998944 
0.0369678 -0.0200602 0.999115 
0.0387867 -0.0129343 0.999164 
0.038612 -0.00804543 0.999222 
0.039752 -0.00518181 0.999196 
0.0396784 -0.0036617 0.999206 
0.039817 -0.00278003 0.999203 
0.0407711 -0.00191638 0.999167 
0.0423868 -0.000719923 0.999101 
0.043314 0.000729509 0.999061 
0.0416098 0.00226387 0.999131 
0.0409229 0.00380076 0.999155 
0.041229 0.00510632 0.999137 
0.0407515 0.00640272 0.999149 
0.0410652 0.00800554 0.999124 
0.0409786 0.0102402 0.999108 
0.0413415 0.013202 0.999058 
0.0416146 0.016808 0.998992 
0.0398378 0.0217479 0.998969 
0.0415101 0.027133 0.99877 
0.0406666 0.034021 0.998593 
0.0386967 0.0429543 0.998327 
0.0385829 0.0555021 0.997713 
0.0367326 0.0726696 0.996679 
0.035365 0.0974074 0.994616 
0.0330013 0.129462 0.991035 
0.0296353 0.173065 0.984464 
0.0256756 0.233526 0.972011 
0.0212788 0.313485 0.949355 
0.0164636 0.415621 0.909389 
0.0116419 0.542586 0.839919 
0.00660312 0.702705 0.71145 
0.0034213 0.84288 0.538091 
0.0012142 0.963983 0.26596 
-0.000755802 0.999678 -0.0253685 
-0.00234134 0.952386 -0.304887 
-0.00489698 0.834775 -0.55057 
-0.00816322 0.685254 -0.728259 
-0.0131789 0.531639 -0.846869 
-0.0179884 0.40437 -0.914419 
-0.0225285 0.302954 -0.952739 
-0.0266225 0.22495 -0.974006 
-0.0294225 0.163346 -0.98613 
-0.0331346 0.118833 -0.992361 
-0.0348013 0.0881136 -0.995502 
-0.038527 0.0665958 -0.997036 
-0.039129 0.0517331 -0.997894 
-0.039352 0.0402292 -0.998415 
-0.0407969 0.0316519 -0.998666 
-0.0411187 0.0251363 -0.998838 
-0.0403716 0.0198912 -0.998987 
-0.040821 0.0156953 -0.999043 
-0.0406616 0.0123365 -0.999097 
-0.0419203 0.00971253 -0.999074 
-0.0416946 0.0076661 -0.999101 
-0.0418011 0.00598818 -0.999108 
-0.0415961 0.00456434 -0.999124 
-0.0433426 0.00337293 -0.999055 
-0.0413407 0.0022056 -0.999143 
-0.0420877 0.00101928 -0.999113 
-0.0420194 -0.000236713 -0.999117 
-0.0425201 -0.00159278 -0.999094 
-0.0424421 -0.00305445 -0.999094 
-0.0428908 -0.00454099 -0.999069 
-0.0384352 -0.00652857 -0.99924 
-0.0387007 -0.00953207 -0.999205 
-0.0402816 -0.0137617 -0.999094 
-0.0352079 -0.0201618 -0.999177 
-0.0357777 -0.029384 -0.998928 
-0.0317757 -0.0421111 -0.998608 
-0.0338773 -0.0528463 -0.998028 
-0.0329386 -0.0580185 -0.997772 
-0.0247411 -0.0494524 -0.99847 
0.000275289 0.000350333 -1 
-5.10524e-05 -1.24811e-05 1 
0.0297661 -0.05081 0.998265 
0.0351691 -0.0559721 0.997813 
0.0381694 -0.0498725 0.998026 
0.0402431 -0.0401215 0.998384 
0.0421958 -0.0301997 0.998653 
0.0442434 -0.0212122 0.998796 
0.0461732 -0.0140725 0.998834 
0.047078 -0.00890025 0.998852 
0.0484379 -0.00577907 0.998809 
0.0492322 -0.0039966 0.998779 
0.0498252 -0.0027543 0.998754 
0.0499723 -0.00166803 0.998749 
0.0500582 -0.000519626 0.998746 
0.0499241 0.000836723 0.998753 
0.0501178 0.00215464 0.998741 
0.0501844 0.0034482 0.998734 
0.0499672 0.00467566 0.99874 
0.0496821 0.0059476 0.998747 
0.0495404 0.00744658 0.998744 
0.0493822 0.00943161 0.998735 
0.0493244 0.0120386 0.99871 
0.0492573 0.0152907 0.998669 
0.0493929 0.019637 0.998586 
0.0494388 0.0245892 0.998474 
0.0488861 0.0309642 0.998324 
0.0483995 0.0397234 0.998038 
0.0470446 0.0510602 0.997587 
0.0451834 0.0678125 0.996674 
0.0424433 0.0909044 0.994955 
0.0383091 0.123859 0.99156 
0.0343216 0.168184 0.985158 
0.0299004 0.229109 0.972941 
0.0241101 0.310038 0.950418 
0.017893 0.419339 0.907653 
0.0114231 0.564932 0.825058 
0.00608803 0.710904 0.703263 
0.00194034 0.852836 0.522174 
0.000427107 0.957207 0.289404 
-0.00201122 0.999956 -0.0091701 
-0.00397101 0.956179 -0.292755 
-0.00671348 0.846596 -0.532194 
-0.010182 0.700173 -0.7139 
-0.0147215 0.548549 -0.835989 
-0.0201397 0.414529 -0.909813 
-0.0257989 0.308044 -0.951022 
-0.0311335 0.228859 -0.972962 
-0.035959 0.168242 -0.98509 
-0.0398462 0.124631 -0.991403 
-0.0427695 0.0922402 -0.994818 
-0.0452298 0.069838 -0.996532 
-0.0469227 0.0531111 -0.997486 
-0.0481436 0.0413691 -0.997983 
-0.0487513 0.0321732 -0.998293 
-0.0489657 0.0252031 -0.998482 
-0.0492545 0.0200421 -0.998585 
-0.0494614 0.0158629 -0.99865 
-0.0495925 0.0125483 -0.998691 
-0.0494146 0.00982398 -0.99873 
-0.0496389 0.00774158 -0.998737 
-0.0497791 0.00612783 -0.998741 
-0.0498958 0.00477344 -0.998743 
-0.0500138 0.00360486 -0.998742 
-0.0502852 0.00249476 -0.998732 
-0.0503521 0.00136208 -0.998731 
-0.050354 0.000140918 -0.998731 
-0.0501877 -0.00121911 -0.998739 
-0.049662 -0.00273146 -0.998762 
-0.049851 -0.00465636 -0.998746 
-0.0485994 -0.00693863 -0.998794 
-0.0477765 -0.010159 -0.998806 
-0.0464086 -0.0150974 -0.998808 
-0.0444479 -0.021293 -0.998785 
-0.0428473 -0.0297955 -0.998637 
-0.0406837 -0.0392076 -0.998403 
-0.0385712 -0.049347 -0.998037 
-0.0351561 -0.0557463 -0.997826 
-0.0302034 -0.0506456 -0.99826 
-4.3328e-05 -9.30284e-05 -1 
0.000224461 0.000209912 1 
0.025496 -0.0493015 0.998458 
0.0301208 -0.0567926 0.997932 
0.0335176 -0.0501622 0.998179 
0.036529 -0.0410632 0.998489 
0.039499 -0.0305543 0.998752 
0.0411294 -0.0214675 0.998923 
0.0431023 -0.0141105 0.998971 
0.0451355 -0.00918227 0.998939 
0.0455073 -0.00606121 0.998946 
0.0458654 -0.00395337 0.99894 
0.0472208 -0.00248209 0.998881 
0.0470702 -0.00119568 0.998891 
0.0469197 2.23589e-05 0.998899 
0.0464422 0.00129203 0.99892 
0.0466759 0.00245884 0.998907 
0.0471596 0.00356585 0.998881 
0.04692 0.00474621 0.998887 
0.0466802 0.00595232 0.998892 
0.0465054 0.00740371 0.998891 
0.0463693 0.00928012 0.998881 
0.0462537 0.0117453 0.998861 
0.0462396 0.0149288 0.998819 
0.0469013 0.0188799 0.998721 
0.0462973 0.023974 0.99864 
0.0463015 0.0305605 0.99846 
0.0461251 0.0389015 0.998178 
0.0448304 0.0508026 0.997702 
0.0426898 0.0668044 0.996852 
0.0392574 0.0909741 0.995079 
0.034695 0.123746 0.991707 
0.0298981 0.169876 0.985012 
0.026095 0.232466 0.972254 
0.020312 0.319361 0.947415 
0.0139743 0.441386 0.897209 
0.00855699 0.572844 0.81962 
0.0045398 0.715378 0.698723 
0.000939694 0.863977 0.503531 
-0.00196388 0.970446 0.241312 
-0.00425428 0.999953 -0.00874035 
-0.00467852 0.963012 -0.269417 
-0.0053768 0.859166 -0.511668 
-0.00836653 0.711592 -0.702543 
-0.0126583 0.558621 -0.829327 
-0.017216 0.420665 -0.907053 
-0.022529 0.31476 -0.948904 
-0.0278397 0.230234 -0.972737 
-0.033579 0.170205 -0.984836 
-0.0367916 0.125164 -0.991454 
-0.0402881 0.093216 -0.99483 
-0.0420159 0.0699714 -0.996664 
-0.043827 0.0528355 -0.997641 
-0.0452656 0.0401779 -0.998167 
-0.0459348 0.0312725 -0.998455 
-0.0463523 0.0245771 -0.998623 
-0.046688 0.0193868 -0.998721 
-0.0466907 0.0153359 -0.998792 
-0.0466328 0.0121373 -0.998838 
-0.0464786 0.00966337 -0.998873 
-0.0463522 0.00767356 -0.998896 
-0.0461384 0.00607082 -0.998917 
-0.04636 0.00483253 -0.998913 
-0.0463697 0.00370971 -0.998917 
-0.0467239 0.00260313 -0.998904 
-0.0469602 0.00154588 -0.998896 
-0.0473716 0.000329689 -0.998877 
-0.0469826 -0.000999755 -0.998895 
-0.0466804 -0.00260815 -0.998906 
-0.0463234 -0.00457089 -0.998916 
-0.0469401 -0.00711912 -0.998872 
-0.0449716 -0.0107536 -0.99893 
-0.0423779 -0.0157588 -0.998977 
-0.0420616 -0.0224206 -0.998863 
-0.0389917 -0.0318498 -0.998732 
-0.0381778 -0.0410814 -0.998426 
-0.0339357 -0.0507534 -0.998134 
-0.0295619 -0.0567001 -0.997954 
-0.0251015 -0.0478355 -0.99854 
-0.000111852 0.000115359 -1 
0.000143966 0.000284967 1 
0.0200927 -0.0497648 0.998559 
0.0240191 -0.0591454 0.99796 
0.0274951 -0.0528904 0.998222 
0.0300892 -0.0435925 0.998596 
0.0331266 -0.0329821 0.998907 
0.0351266 -0.0234261 0.999108 
0.0367173 -0.0156712 0.999203 
0.0381594 -0.0100756 0.999221 
0.0383702 -0.00653387 0.999242 
0.0389502 -0.00392143 0.999233 
0.0396477 -0.00198989 0.999212 
0.0396456 -0.000493723 0.999214 
0.0396022 0.000791803 0.999215 
0.0390031 0.00203278 0.999237 
0.0395487 0.0030795 0.999213 
0.0402632 0.00406048 0.999181 
0.0395151 0.00512056 0.999206 
0.0393988 0.00628528 0.999204 
0.0392768 0.00773479 0.999198 
0.0392797 0.00963973 0.999182 
0.0392198 0.0121175 0.999157 
0.0394236 0.0154141 0.999104 
0.0405194 0.0193772 0.998991 
0.0395892 0.0247164 0.99891 
0.0395875 0.0316975 0.998713 
0.0397274 0.0407039 0.998381 
0.0378921 0.053178 0.997866 
0.0359894 0.0714362 0.996796 
0.0319597 0.0950399 0.99496 
0.0268883 0.133223 0.990721 
0.0222935 0.183468 0.982773 
0.0192587 0.246958 0.968835 
0.0140304 0.34856 0.937182 
0.00828505 0.4674 0.884007 
0.00460713 0.60246 0.798136 
0.00259927 0.767334 0.641242 
-6.80793e-05 0.893041 0.449975 
-0.000233457 0.944302 0.329079 
-0.00141536 0.997487 0.0708394 
-0.00361443 0.96634 -0.257242 
-0.00466587 0.855955 -0.517029 
-0.00579995 0.718772 -0.695221 
-0.00917366 0.559162 -0.829007 
-0.0128063 0.416345 -0.909116 
-0.0174877 0.303418 -0.952697 
-0.022309 0.227156 -0.973603 
-0.0282558 0.16478 -0.985925 
-0.0301373 0.121888 -0.992086 
-0.0341124 0.08991 -0.995366 
-0.0355561 0.0660075 -0.997185 
-0.0378746 0.049159 -0.998073 
-0.0390603 0.0375981 -0.998529 
-0.0394339 0.0289042 -0.998804 
-0.0395892 0.0224651 -0.998963 
-0.0399385 0.0177185 -0.999045 
-0.0398307 0.0140184 -0.999108 
-0.0397887 0.0111695 -0.999146 
-0.0391607 0.00890134 -0.999193 
-0.0392128 0.00715657 -0.999205 
-0.0384427 0.00582432 -0.999244 
-0.0395257 0.00469018 -0.999208 
-0.0391753 0.00366541 -0.999226 
-0.0393744 0.00273565 -0.999221 
-0.0396133 0.00169614 -0.999214 
-0.0399088 0.000525949 -0.999203 
-0.0395026 -0.000869711 -0.999219 
-0.0393925 -0.00264659 -0.99922 
-0.0391778 -0.00481964 -0.999221 
-0.0406393 -0.00746355 -0.999146 
-0.0379859 -0.0112004 -0.999216 
-0.0356229 -0.017063 -0.99922 
-0.0358981 -0.0243367 -0.999059 
-0.032575 -0.0340908 -0.998888 
-0.0322002 -0.043278 -0.998544 
-0.0277167 -0.0531537 -0.998202 
-0.0232313 -0.0584193 -0.998022 
-0.0194735 -0.0484429 -0.998636 
-0.000115134 7.37765e-05 -1 
0.000159881 0.000328268 1 
0.0126786 -0.0446969 0.99892 
0.0175176 -0.0596721 0.998064 
0.02046 -0.0574966 0.998136 
0.0227286 -0.0491908 0.998531 
0.0253473 -0.0387833 0.998926 
0.027395 -0.0288231 0.999209 
0.0285638 -0.0198692 0.999394 
0.0298856 -0.0130729 0.999468 
0.0301047 -0.00853428 0.99951 
0.0303548 -0.00509603 0.999526 
0.0309674 -0.0025628 0.999517 
0.0307469 -0.000740667 0.999527 
0.0307148 0.00070638 0.999528 
0.0307072 0.00188944 0.999527 
0.0302769 0.00297762 0.999537 
0.0307826 0.00386258 0.999519 
0.0309416 0.0047219 0.99951 
0.0303793 0.00572987 0.999522 
0.0303576 0.00689545 0.999515 
0.0305251 0.00841607 0.999499 
0.030577 0.010422 0.999478 
0.0308946 0.013131 0.999436 
0.0310566 0.0166292 0.999379 
0.0321218 0.0208264 0.999267 
0.0314016 0.026924 0.999144 
0.0312982 0.0348276 0.998903 
0.0308779 0.044782 0.998519 
0.0294901 0.0601622 0.997753 
0.0259523 0.0791778 0.996523 
0.0225696 0.10972 0.993706 
0.0167024 0.155989 0.987618 
0.0128906 0.221645 0.975042 
0.0108015 0.296822 0.954872 
0.0059708 0.396442 0.91804 
0.00123585 0.530973 0.847388 
-0.000400511 0.685268 0.728291 
-0.00214742 0.833593 0.552375 
-0.00147474 0.996185 0.0872596 
0.00229141 0.996895 -0.078711 
-0.000870891 0.958066 -0.286545 
0.000262264 0.958163 -0.286222 
-0.00293954 0.835422 -0.549602 
-0.00311683 0.622807 -0.782369 
-0.00546212 0.468623 -0.883382 
-0.00960703 0.332314 -0.94312 
-0.0132256 0.239689 -0.97076 
-0.0200366 0.175959 -0.984193 
-0.021148 0.1331 -0.990877 
-0.0253817 0.0964084 -0.995018 
-0.027663 0.0719463 -0.997025 
-0.0296747 0.051883 -0.998212 
-0.0306898 0.039001 -0.998768 
-0.0313322 0.0298489 -0.999063 
-0.0313433 0.0229461 -0.999245 
-0.0313709 0.0178582 -0.999348 
-0.0312014 0.0141168 -0.999413 
-0.0310607 0.011267 -0.999454 
-0.0306092 0.00909071 -0.99949 
-0.0304548 0.0073691 -0.999509 
-0.0295335 0.00609501 -0.999545 
-0.0304867 0.00500975 -0.999523 
-0.0307738 0.00410661 -0.999518 
-0.0299371 0.00321111 -0.999547 
-0.0306059 0.00226256 -0.999529 
-0.0305779 0.00110746 -0.999532 
-0.0304051 -0.000267656 -0.999538 
-0.0303748 -0.00211357 -0.999536 
-0.0299137 -0.00446987 -0.999542 
-0.0317765 -0.00761069 -0.999466 
-0.0300452 -0.0121469 -0.999475 
-0.0277647 -0.0183662 -0.999446 
-0.0284292 -0.026264 -0.999251 
-0.0254505 -0.0368555 -0.998996 
-0.0255013 -0.0461712 -0.998608 
-0.0212343 -0.0556326 -0.998225 
-0.0171633 -0.0605192 -0.998019 
-0.0144882 -0.0504448 -0.998622 
-9.83569e-05 8.49981e-05 -1 
0.000128598 0.000159769 1 
0.0104372 -0.0519252 0.998596 
0.0141488 -0.0620394 0.997973 
0.0155294 -0.0565358 0.99828 
0.0176233 -0.047079 0.998736 
0.0191687 -0.0367921 0.999139 
0.020763 -0.0267182 0.999427 
0.0216279 -0.0180166 0.999604 
0.0218627 -0.0119901 0.999689 
0.0223159 -0.00739703 0.999724 
0.0225624 -0.00392517 0.999738 
0.0221735 -0.00152902 0.999753 
0.0220732 0.000294971 0.999756 
0.0219632 0.00164904 0.999757 
0.0221141 0.00269932 0.999752 
0.0213723 0.00361555 0.999765 
0.0214386 0.00437649 0.999761 
0.0218815 0.00517791 0.999747 
0.0213301 0.00613029 0.999754 
0.0216224 0.00731329 0.999739 
0.0218964 0.00889278 0.999721 
0.0223158 0.0111011 0.999689 
0.0225807 0.0140448 0.999646 
0.0225115 0.0177946 0.999588 
0.0239804 0.0226862 0.999455 
0.0233059 0.0299415 0.99928 
0.0224728 0.0390472 0.998985 
0.0226833 0.0522898 0.998374 
0.019059 0.0693631 0.997409 
0.0166343 0.0969425 0.995151 
0.0123179 0.138232 0.990323 
0.00765115 0.214944 0.976596 
0.00419375 0.311864 0.950118 
0.000305957 0.435836 0.900026 
-0.00203123 0.626178 0.779678 
-0.00130563 0.78714 0.616774 
0.00491768 0.934533 0.355842 
0.00295148 0.954891 0.296942 
-0.00118236 0.955574 0.294749 
0.00133665 0.997375 0.0723924 
0.000168884 0.997153 -0.0753992 
-0.00635753 0.954988 -0.296576 
0.00199098 0.870867 -0.491515 
0.000777137 0.718251 -0.695784 
0.00191419 0.525629 -0.850712 
-0.00240153 0.37901 -0.92539 
-0.00525852 0.270636 -0.962667 
-0.0114869 0.182328 -0.983171 
-0.0146426 0.125396 -0.991999 
-0.0177809 0.0918692 -0.995612 
-0.0212522 0.0651916 -0.997646 
-0.0219676 0.0479491 -0.998608 
-0.02271 0.0360283 -0.999093 
-0.0232918 0.0274261 -0.999352 
-0.0231491 0.0210555 -0.99951 
-0.0227815 0.0164322 -0.999605 
-0.0224522 0.0129719 -0.999664 
-0.0221236 0.0104129 -0.999701 
-0.0220908 0.00840483 -0.999721 
-0.0213623 0.00698496 -0.999747 
-0.0213942 0.00581444 -0.999754 
-0.0214841 0.00494893 -0.999757 
-0.0220443 0.00413319 -0.999748 
-0.0209395 0.00336891 -0.999775 
-0.0218864 0.0024102 -0.999758 
-0.0214462 0.00130279 -0.999769 
-0.0216702 -0.000229527 -0.999765 
-0.0215523 -0.00224415 -0.999765 
-0.021392 -0.00493652 -0.999759 
-0.0236554 -0.00811626 -0.999687 
-0.0219844 -0.0127594 -0.999677 
-0.0204923 -0.0197638 -0.999595 
-0.0211415 -0.0283895 -0.999373 
-0.0185599 -0.0392591 -0.999057 
-0.0187555 -0.0489587 -0.998625 
-0.0150229 -0.0579828 -0.998205 
-0.0118984 -0.0624924 -0.997975 
-0.0100085 -0.0512625 -0.998635 
-3.77812e-05 8.79164e-05 -1 
3.08291e-06 0.000149402 1 
0.00738968 -0.05226 0.998606 
0.010015 -0.0634284 0.997936 
0.0107476 -0.0594887 0.998171 
0.0122729 -0.0508937 0.998629 
0.0132016 -0.0402088 0.999104 
0.0142815 -0.0297022 0.999457 
0.0152452 -0.0207702 0.999668 
0.0151069 -0.0137864 0.999791 
0.0154612 -0.00860506 0.999843 
0.0159443 -0.00472967 0.999862 
0.0150953 -0.00177729 0.999884 
0.0149847 0.000288669 0.999888 
0.0147343 0.00177085 0.99989 
0.014722 0.00282454 0.999888 
0.0143015 0.00364853 0.999891 
0.0137139 0.00438885 0.999896 
0.0141264 0.00506637 0.999887 
0.014062 0.0058428 0.999884 
0.0141524 0.00686297 0.999876 
0.0145154 0.00820564 0.999861 
0.0151568 0.0101122 0.999834 
0.0155247 0.0127738 0.999798 
0.015418 0.0162666 0.999749 
0.0162461 0.0210575 0.999646 
0.0170351 0.0272939 0.999482 
0.0156005 0.0360739 0.999227 
0.0158418 0.0488404 0.998681 
0.0130444 0.0659138 0.99774 
0.0109815 0.0927306 0.995631 
0.00761875 0.137279 0.990503 
0.00435217 0.209678 0.977761 
0.000659145 0.318406 0.947954 
-0.0017988 0.476406 0.879223 
-0.00281471 0.625281 0.780395 
-5.5483e-05 0.815387 0.578916 
0.00331225 0.996227 0.0867247 
0.00651055 0.992271 0.123921 
0.00577598 0.993815 0.110897 
0.00551615 0.997103 0.0758626 
0.00419283 0.999118 0.0417863 
0.0030233 0.999828 -0.018299 
-0.00292872 0.847884 -0.530173 
0.00217212 0.66479 -0.747027 
0.00230024 0.54023 -0.841514 
0.00271547 0.439864 -0.89806 
0.000295583 0.325112 -0.945675 
-0.00486506 0.207721 -0.978176 
-0.00837734 0.143265 -0.989649 
-0.0106472 0.0981116 -0.995118 
-0.0141757 0.0708122 -0.997389 
-0.0149889 0.0516149 -0.998555 
-0.01565 0.0382978 -0.999144 
-0.0161888 0.0289276 -0.99945 
-0.0162496 0.0222204 -0.999621 
-0.0157964 0.0171915 -0.999727 
-0.0153216 0.0134498 -0.999792 
-0.0147344 0.0106744 -0.999834 
-0.015004 0.00872617 -0.999849 
-0.0140285 0.00719885 -0.999876 
-0.0146505 0.00615184 -0.999874 
-0.0138262 0.00525225 -0.999891 
-0.0144153 0.00455264 -0.999886 
-0.0139444 0.0038739 -0.999895 
-0.0144223 0.00299086 -0.999892 
-0.0142381 0.00196551 -0.999897 
-0.014611 0.000423174 -0.999893 
-0.0145601 -0.00170762 -0.999893 
-0.0144748 -0.00458367 -0.999885 
-0.0161496 -0.00862391 -0.999832 
-0.0155261 -0.0142654 -0.999778 
-0.0139291 -0.0214031 -0.999674 
-0.0150054 -0.0295485 -0.999451 
-0.0128048 -0.0399232 -0.999121 
-0.0131477 -0.0500794 -0.998659 
-0.0104628 -0.0595038 -0.998173 
-0.00827401 -0.0641654 -0.997905 
-0.00661019 -0.051577 -0.998647 
-4.57675e-05 7.03197e-05 -1 
2.89988e-05 7.98572e-05 1 
0.00513018 -0.052709 0.998597 
0.00686736 -0.0642515 0.99791 