# vtk DataFile Version 3.0 
Exported using Morpho https://github.com/Morpho-lang/morpho 
ASCII 
DATASET UNSTRUCTURED_GRID 

POINTS 1978 float 
-11.9995 -3.99937 -1.68044e-06 
-11.5981 -3.99921 6.38965e-07 
-11.3005 -3.99931 2.76362e-06 
-10.9623 -3.99937 7.38186e-07 
-10.6547 -3.99932 6.26885e-07 
-10.2989 -3.99933 6.57053e-08 
-9.975 -3.99934 -2.25909e-07 
-9.67063 -3.9993 -3.89125e-07 
-9.33614 -3.9993 -2.17276e-07 
-9.0135 -3.99927 -1.06659e-07 
-8.68158 -3.99925 -7.57073e-09 
-8.34519 -3.99931 2.17869e-07 
-8.03154 -3.99933 3.40053e-07 
-7.74825 -3.9994 1.84015e-07 
-7.48302 -3.99939 6.39341e-09 
-7.19987 -3.99934 -1.217e-07 
-6.90159 -3.99942 -2.33806e-07 
-6.6025 -3.99932 -2.33129e-07 
-6.29971 -3.99931 -2.12374e-07 
-5.9868 -3.99932 -1.68065e-07 
-5.68105 -3.99933 -2.19656e-07 
-5.37482 -3.99934 -3.4809e-07 
-5.07521 -3.99937 -6.16139e-07 
-4.7822 -3.99934 -7.61174e-07 
-4.45671 -3.9993 -9.4738e-07 
-4.14978 -3.99931 -1.16494e-06 
-3.82485 -3.99936 -1.19568e-06 
-3.5054 -3.99934 -1.01616e-06 
-3.19433 -3.99943 -1.07634e-06 
-2.90406 -3.9995 -5.75997e-07 
-2.61684 -3.99955 9.01549e-08 
-2.34008 -3.99964 1.62741e-07 
-2.07012 -3.99968 1.10089e-06 
-1.7917 -3.99972 2.45429e-06 
-1.5105 -3.99978 1.96813e-06 
-1.21394 -3.99975 6.27859e-07 
-0.923243 -3.99972 -6.30643e-06 
-0.598978 -3.99953 -4.60934e-06 
-0.326559 -3.99947 -1.69462e-05 
0.0181507 -3.99929 1.08618e-05 
0.321113 -3.99945 1.12455e-05 
0.609183 -3.99957 8.84402e-06 
0.907252 -3.99965 6.58026e-06 
1.18346 -3.99989 -3.1958e-06 
1.45289 -3.99977 -1.31087e-06 
1.72763 -3.99974 -1.22048e-06 
2.00774 -3.99967 -6.39987e-07 
2.30096 -3.99957 -2.21669e-07 
2.62558 -3.99949 9.87649e-07 
2.92985 -3.99946 8.76039e-07 
3.26505 -3.99937 1.20401e-06 
3.55398 -3.9994 1.13064e-06 
3.85776 -3.99936 1.02146e-06 
4.17437 -3.99934 9.99958e-07 
4.47534 -3.99935 8.45658e-07 
4.7748 -3.99933 6.73193e-07 
5.08976 -3.99933 5.45266e-07 
5.39877 -3.99933 4.58816e-07 
5.71245 -3.99933 3.51007e-07 
6.00495 -3.99936 2.4343e-07 
6.30031 -3.99936 1.88421e-07 
6.59735 -3.99934 1.63455e-07 
6.89794 -3.99936 1.03086e-07 
7.17425 -3.99935 7.32124e-08 
7.48135 -3.99934 5.62886e-08 
7.77741 -3.99934 -1.96753e-09 
8.07301 -3.99936 -6.75377e-08 
8.36092 -3.9994 -1.1635e-07 
8.64854 -3.99938 -2.08599e-07 
8.92446 -3.99932 -1.76316e-07 
9.27709 -3.99927 1.007e-08 
9.61231 -3.9993 9.2602e-08 
9.89962 -3.99931 1.42384e-07 
10.2754 -3.99928 -1.32002e-07 
10.5966 -3.99927 -7.72988e-07 
10.9951 -3.99929 -1.123e-06 
11.3063 -3.99935 -2.92772e-06 
11.5971 -3.99922 -4.36971e-07 
11.9995 -3.99936 1.61439e-06 
-11.9993 -3.6225 1.05348e-06 
-11.6997 -3.71349 9.26181e-17 
-11.3476 -3.61618 -7.11366e-16 
-11.041 -3.66549 -8.93879e-16 
-10.7139 -3.64036 1.56755e-16 
-10.394 -3.68447 2.75402e-16 
-10.056 -3.65568 6.54351e-16 
-9.73768 -3.63902 6.48089e-16 
-9.4177 -3.67034 4.91762e-16 
-9.08471 -3.658 2.99965e-16 
-8.75731 -3.66508 1.1724e-16 
-8.42369 -3.67642 3.69323e-17 
-8.09678 -3.66409 -4.00884e-17 
-7.7828 -3.63939 -1.07615e-16 
-7.4941 -3.62404 -8.45292e-17 
-7.21092 -3.65786 3.04399e-17 
-6.89955 -3.66131 7.23566e-17 
-6.59087 -3.65986 -5.7839e-18 
-6.27541 -3.66636 -1.02346e-16 
-5.96332 -3.65803 -1.59926e-16 
-5.65162 -3.65706 -1.76143e-16 
-5.34516 -3.64937 -2.54836e-16 
-5.0496 -3.64222 -3.30596e-16 
-4.72568 -3.67939 -9.49545e-17 
-4.43031 -3.64436 -7.9585e-16 
-4.13877 -3.66608 -4.90926e-16 
-3.82833 -3.68794 -5.64969e-16 
-3.52284 -3.67265 -1.50169e-15 
-3.21954 -3.68305 -1.54267e-15 
-2.91205 -3.67116 -2.01902e-15 
-2.62804 -3.66281 -3.53523e-15 
-2.34325 -3.66178 -3.44595e-15 
-2.04964 -3.68807 -2.30698e-15 
-1.75952 -3.68464 -2.06495e-15 
-1.46862 -3.68872 -2.25948e-15 
-1.17625 -3.66724 2.65717e-16 
-0.853662 -3.689 5.74925e-15 
-0.577008 -3.59426 3.05486e-15 
-0.257187 -3.6785 1.07295e-14 
0.0326544 -3.58723 8.51276e-15 
0.311588 -3.60679 -1.2759e-14 
0.599603 -3.61424 -5.08294e-15 
0.889741 -3.66675 -4.73307e-15 
1.19611 -3.66776 -1.38921e-15 
1.48882 -3.67438 1.93452e-15 
1.78346 -3.68494 3.58843e-15 
2.08096 -3.69237 2.30592e-15 
2.4008 -3.72327 1.4456e-15 
2.7148 -3.69305 2.07603e-15 
3.03223 -3.70987 1.05205e-15 
3.32983 -3.65207 2.17091e-15 
3.62512 -3.66195 1.0568e-15 
3.93448 -3.67288 5.57295e-16 
4.23564 -3.65113 7.18176e-16 
4.53356 -3.64687 5.02005e-16 
4.84377 -3.66381 1.96279e-16 
5.15484 -3.65965 2.34793e-16 
5.46896 -3.66535 1.4037e-16 
5.76969 -3.64394 2.27392e-16 
6.06676 -3.65074 1.4004e-16 
6.36483 -3.65265 8.26363e-17 
6.66729 -3.65764 7.99699e-17 
6.95001 -3.62545 9.85474e-17 
7.25189 -3.6625 2.47724e-18 
7.55243 -3.65092 3.99626e-17 
7.85514 -3.6543 -1.50645e-17 
8.15101 -3.64328 -5.48467e-17 
8.44018 -3.64476 -5.46829e-17 
8.72387 -3.62049 -1.72507e-16 
9.04586 -3.69773 -1.56552e-16 
9.38357 -3.67359 -2.82976e-16 
9.68571 -3.61491 -7.78004e-16 
10.0201 -3.7024 -4.32504e-16 
10.3493 -3.65033 -5.79002e-16 
10.7204 -3.71921 3.83016e-16 
11.045 -3.63728 3.23924e-16 
11.3457 -3.60698 6.66428e-16 
11.7036 -3.71464 4.54186e-17 
11.9993 -3.60671 -1.18086e-06 
-11.9993 -3.32313 1.46369e-06 
-11.6233 -3.36523 2.23513e-15 
-11.2731 -3.26788 7.53478e-16 
-10.9631 -3.31791 1.52061e-15 
-10.649 -3.28617 1.80707e-15 
-10.3493 -3.34967 1.41907e-15 
-10.0311 -3.30836 1.36093e-15 
-9.7111 -3.29603 1.21083e-15 
-9.39531 -3.33497 8.23348e-16 
-9.07256 -3.322 6.06131e-16 
-8.77418 -3.30253 3.55666e-16 
-8.47361 -3.34496 1.86497e-16 
-8.15788 -3.33059 5.96407e-17 
-7.85389 -3.31003 -6.93127e-17 
-7.55022 -3.2703 -6.03848e-17 
-7.25488 -3.30044 -6.99897e-17 
-6.96045 -3.33794 -1.466e-16 
-6.6498 -3.32564 -3.09233e-16 
-6.3379 -3.33273 -3.76269e-16 
-6.02915 -3.32368 -4.49914e-16 
-5.71806 -3.31927 -5.7846e-16 
-5.41121 -3.30849 -6.98543e-16 
-5.10841 -3.28894 -8.74362e-16 
-4.8064 -3.35054 -1.11217e-15 
-4.50311 -3.30152 -1.44754e-15 
-4.20257 -3.31376 -1.80566e-15 
-3.90424 -3.36111 -2.55545e-15 
-3.60074 -3.35232 -3.50582e-15 
-3.28726 -3.35677 -4.53842e-15 
-2.98064 -3.36124 -5.91672e-15 
-2.67082 -3.32228 -6.5245e-15 
-2.37771 -3.33202 -7.26215e-15 
-2.07915 -3.376 -9.16879e-15 
-1.7783 -3.37357 -9.52626e-15 
-1.46627 -3.35806 -7.576e-15 
-1.13487 -3.35479 -2.26082e-15 
-0.846724 -3.30162 1.24652e-15 
-0.562327 -3.17419 4.18995e-15 
-0.290082 -3.30325 1.75202e-14 
0.0151715 -3.16374 -9.58562e-15 
0.291718 -3.16184 -9.67327e-15 
0.573546 -3.20229 -1.17641e-14 
0.866128 -3.29348 -1.61055e-15 
1.16453 -3.34311 4.80019e-15 
1.471 -3.34813 7.89109e-15 
1.77414 -3.36462 8.40759e-15 
2.07073 -3.37933 9.44403e-15 
2.37208 -3.43218 9.55313e-15 
2.67196 -3.38021 7.63487e-15 
2.97659 -3.39752 6.03854e-15 
3.2717 -3.32817 4.32318e-15 
3.57693 -3.31994 3.41075e-15 
3.87345 -3.34149 2.61498e-15 
4.17415 -3.31497 1.87721e-15 
4.4747 -3.30097 1.44378e-15 
4.77672 -3.32477 1.18568e-15 
5.08307 -3.32441 9.74199e-16 
5.39445 -3.33144 7.22536e-16 
5.70106 -3.30686 5.62523e-16 
6.01052 -3.30342 4.51933e-16 
6.30819 -3.30892 3.77158e-16 
6.61085 -3.31981 2.68511e-16 
6.90912 -3.26956 1.7051e-16 
7.20748 -3.31907 1.27105e-16 
7.51084 -3.31006 6.96268e-17 
7.81615 -3.31795 1.69788e-18 
8.12388 -3.29987 -9.81273e-17 
8.42643 -3.28561 -1.9561e-16 
8.74711 -3.29579 -3.36917e-16 
9.06918 -3.37626 -5.32452e-16 
9.38069 -3.32195 -9.29998e-16 
9.69741 -3.26854 -1.24901e-15 
10.0087 -3.36954 -1.35749e-15 
10.3078 -3.29118 -1.61386e-15 
10.6269 -3.40352 -1.79575e-15 
10.9533 -3.31386 -1.98005e-15 
11.2811 -3.24124 -5.83981e-16 
11.6194 -3.36432 -2.55548e-15 
11.9993 -3.30215 -1.73934e-06 
-11.9993 -3.00851 2.12487e-06 
-11.6432 -3.0545 1.92991e-15 
-11.2936 -2.95094 -8.56994e-16 
-10.9467 -2.96489 9.45447e-17 
-10.6151 -2.95874 1.40946e-16 
-10.2894 -2.99943 7.20076e-16 
-9.96556 -2.96982 6.26031e-16 
-9.63684 -2.96696 7.25461e-16 
-9.3262 -2.99944 5.32591e-16 
-9.0203 -2.96646 2.95323e-16 
-8.72134 -2.94331 1.85273e-16 
-8.44108 -3.00396 1.29996e-16 
-8.14346 -2.98209 8.08446e-17 
-7.84179 -2.971 1.71292e-17 
-7.53477 -2.93973 -2.6894e-17 
-7.23291 -2.96718 -3.91749e-17 
-6.93423 -3.00782 -9.34955e-17 
-6.62227 -2.99997 -9.24803e-17 
-6.31915 -2.99783 -1.2609e-16 
-6.0112 -2.99152 -2.07644e-16 
-5.7037 -2.98404 -2.76623e-16 
-5.39773 -2.97189 -3.35231e-16 
-5.0918 -2.95509 -3.88044e-16 
-4.79338 -3.01514 -6.12471e-16 
-4.48749 -2.97107 -6.50666e-16 
-4.1905 -2.98216 -9.83324e-16 
-3.89818 -3.0348 -1.579e-15 
-3.59789 -3.02765 -1.94608e-15 
-3.29848 -3.04242 -2.59213e-15 
-2.9803 -3.04059 -3.39213e-15 
-2.68091 -2.98574 -3.7581e-15 
-2.37074 -2.99165 -4.42708e-15 
-2.0708 -3.05487 -5.48954e-15 
-1.75691 -3.05449 -3.7724e-15 
-1.41897 -3.03797 -5.21996e-16 
-1.12951 -2.96843 4.14525e-15 
-0.848451 -2.87694 4.45564e-15 
-0.546745 -2.77166 1.31637e-14 
-0.225502 -2.87896 -1.99986e-14 
0.0122076 -2.61807 1.54019e-14 
0.273289 -2.65339 -9.37081e-15 
0.546079 -2.75909 3.42843e-15 
0.841066 -2.88476 -4.17219e-15 
1.14927 -2.97048 5.43855e-16 
1.45757 -2.99607 3.99283e-15 
1.75779 -3.03393 5.23265e-15 
2.06956 -3.04505 4.38649e-15 
2.36709 -3.1153 5.05416e-15 
2.67146 -3.05135 3.99729e-15 
2.96496 -3.07014 3.41817e-15 
3.26793 -2.99931 2.37492e-15 
3.56754 -2.99815 1.86464e-15 
3.87416 -3.00789 1.5063e-15 
4.17148 -2.98202 1.05935e-15 
4.46991 -2.96885 7.35735e-16 
4.76872 -2.98944 5.97205e-16 
5.06896 -2.99095 4.4333e-16 
5.37286 -2.99957 3.73671e-16 
5.67983 -2.97694 2.38229e-16 
5.98641 -2.9774 1.86471e-16 
6.29843 -2.96538 1.59148e-16 
6.59328 -2.98286 1.42804e-16 
6.91507 -2.95439 6.32856e-17 
7.23269 -2.98229 2.20851e-17 
7.53312 -2.97406 -7.60814e-18 
7.83617 -2.98555 -1.12193e-17 
8.13478 -2.96146 -5.99468e-17 
8.43582 -2.95006 -1.29067e-16 
8.73952 -2.96782 -2.00479e-16 
9.05524 -3.0433 -3.8015e-16 
9.37013 -2.9893 -5.39354e-16 
9.66579 -2.92115 -5.67623e-16 
9.98449 -3.01431 -7.53295e-16 
10.3124 -2.96091 -4.17608e-16 
10.6406 -3.06428 -7.99538e-16 
10.9713 -2.97279 -4.83584e-17 
11.3275 -2.92347 1.10691e-15 
11.6638 -3.05011 -2.294e-15 
11.9993 -2.96214 -2.23045e-06 
-11.9992 -2.69166 1.9136e-06 
-11.6438 -2.73386 6.69467e-16 
-11.3057 -2.62481 -1.47978e-15 
-10.9647 -2.6431 -4.90855e-17 
[...]
POINT_DATA 1978 
VECTORS vectors float
0.0351814 -0.0503814 0.99813 
0.0410475 -0.0698295 0.996836 
0.0377224 -0.0671343 0.997141 
0.0379103 -0.0537607 0.997943 
0.0375551 -0.0402342 0.998603 
0.0381921 -0.0258132 0.999064 
0.0388265 -0.0161293 0.999229 
0.0395836 -0.00981833 0.999284 
0.0398792 -0.00578304 0.999309 
0.0398136 -0.00393821 0.999323 
0.0398775 -0.00330021 0.999328 
0.040179 -0.00307216 0.999307 
0.0404169 -0.00251667 0.99928 
0.0403119 -0.00123458 0.999272 
0.0403914 0.000475198 0.999267 
0.04051 0.00247698 0.999284 
0.0405673 0.00422896 0.999221 
0.0404842 0.00544483 0.999271 
0.0404235 0.00652082 0.999267 
0.0404472 0.00792117 0.999258 
0.040304 0.0101101 0.999241 
0.0403245 0.0133135 0.9992 
0.0399807 0.0173776 0.999148 
0.0398584 0.0218506 0.999074 
0.0398235 0.027833 0.99895 
0.039411 0.0348889 0.998741 
0.0390827 0.0440745 0.998328 
0.0384037 0.0559503 0.997825 
0.0375102 0.0736774 0.996673 
0.0366423 0.0970123 0.994648 
0.0346198 0.127464 0.991364 
0.0324038 0.171461 0.98469 
0.0295433 0.226081 0.973758 
0.0258448 0.298994 0.953976 
0.0210618 0.395341 0.918364 
0.0152226 0.5218 0.853 
0.00920841 0.666225 0.745756 
0.0032822 0.831102 0.556154 
0.000962426 0.944038 0.329872 
-0.00049417 0.999838 -0.0185535 
-0.000715554 0.945545 -0.325511 
-0.00350048 0.825603 -0.564287 
-0.00905151 0.672713 -0.739909 
-0.0149759 0.536616 -0.843724 
-0.0200598 0.417312 -0.90861 
-0.0248942 0.318273 -0.947744 
-0.0288651 0.239641 -0.970509 
-0.0321693 0.178106 -0.983573 
-0.0343236 0.128772 -0.991175 
-0.0363842 0.0959175 -0.994826 
-0.0377289 0.0709803 -0.996866 
-0.0385146 0.0554934 -0.997813 
-0.0393131 0.043653 -0.998377 
-0.0396471 0.0343654 -0.998728 
-0.0397511 0.0273952 -0.998935 
-0.0399796 0.0218794 -0.999066 
-0.0400665 0.0172543 -0.999157 
-0.0402219 0.0136404 -0.999206 
-0.0403994 0.0106523 -0.999229 
-0.040432 0.008354 -0.999244 
-0.0405779 0.00653422 -0.999253 
-0.0407865 0.00502765 -0.999255 
-0.0405334 0.00363307 -0.999265 
-0.0405486 0.00250341 -0.999271 
-0.0408003 0.00127794 -0.999268 
-0.0405797 3.70223e-06 -0.999273 
-0.0407098 -0.00140966 -0.999267 
-0.0407431 -0.00293034 -0.999259 
-0.0402413 -0.00448877 -0.999267 
-0.0398287 -0.00580926 -0.999302 
-0.0399026 -0.00775833 -0.999307 
-0.039166 -0.0113562 -0.99928 
-0.0387054 -0.0162228 -0.999244 
-0.0378122 -0.0260632 -0.99908 
-0.0364067 -0.0378333 -0.99876 
-0.0372579 -0.0553262 -0.997904 
-0.0375505 -0.0671653 -0.997138 
-0.0411733 -0.0695465 -0.996849 
-0.0350373 -0.0502879 -0.998139 
0.0264593 -0.0530409 0.998234 
0.0334305 -0.0578389 0.997838 
0.0372171 -0.061145 0.997548 
0.038113 -0.0544294 0.997904 
0.0393057 -0.041922 0.998508 
0.0404009 -0.0303232 0.998794 
0.0422774 -0.0198812 0.99902 
0.0439316 -0.0127227 0.999104 
0.0445104 -0.00781538 0.999043 
0.0453899 -0.00505371 0.999061 
0.0453482 -0.00363312 0.999087 
0.04576 -0.00281512 0.999048 
0.0462833 -0.00200133 0.999026 
0.0475002 -0.000820861 0.998973 
0.0483308 0.000702374 0.998932 
0.0469553 0.00231378 0.998977 
0.0460945 0.00388653 0.999063 
0.0467232 0.00519034 0.998993 
0.0463865 0.00644024 0.999002 
0.0465217 0.00803141 0.998986 
0.0463886 0.0102765 0.998972 
0.0466341 0.0132821 0.998926 
0.0466423 0.0169163 0.998871 
0.0455532 0.0219208 0.998822 
0.0470752 0.0273934 0.998599 
0.0455728 0.0340674 0.998464 
0.0441699 0.0430716 0.998235 
0.0443089 0.0556831 0.997548 
0.0420467 0.0725151 0.996587 
0.04 0.0970725 0.994627 
0.0375822 0.129122 0.990991 
0.0338179 0.172391 0.984614 
0.0294166 0.233123 0.972109 
0.0244798 0.312374 0.949806 
0.0191607 0.416259 0.90913 
0.0133752 0.543124 0.839694 
0.00762642 0.701153 0.713112 
0.00384187 0.842585 0.538693 
0.00121889 0.963253 0.268585 
-0.000615952 0.999754 -0.0219514 
-0.00238988 0.952914 -0.303289 
-0.00539078 0.835712 -0.54925 
-0.00943442 0.686316 -0.727384 
-0.0149824 0.529663 -0.848251 
-0.0206268 0.403066 -0.915104 
-0.0260041 0.30183 -0.953116 
-0.0306415 0.223724 -0.974295 
-0.0347209 0.16309 -0.986073 
-0.0380159 0.118514 -0.992377 
-0.0405526 0.0881882 -0.995343 
-0.0433471 0.0665171 -0.99699 
-0.0443186 0.0518296 -0.997777 
-0.0448634 0.0403667 -0.99828 
-0.0459897 0.0317684 -0.99854 
-0.0462937 0.0252608 -0.998712 
-0.045832 0.0200053 -0.99885 
-0.0462483 0.0157882 -0.998906 
-0.0461713 0.0124024 -0.998956 
-0.0470945 0.00975889 -0.998943 
-0.0470159 0.00771257 -0.998963 
-0.0469452 0.00602738 -0.998978 
-0.0472227 0.00457206 -0.998973 
-0.0481962 0.00339741 -0.998933 
-0.0469051 0.00222864 -0.998994 
-0.04737 0.00101912 -0.998975 
-0.0474276 -0.000222641 -0.998974 
-0.0476321 -0.00159293 -0.998981 
-0.0477912 -0.00309051 -0.998914 
-0.0476382 -0.00454586 -0.998977 
-0.0447738 -0.0064475 -0.999054 
-0.0445595 -0.00943657 -0.999065 
-0.0450501 -0.0135992 -0.999023 
-0.0416144 -0.0199195 -0.999018 
-0.0409033 -0.0293892 -0.998867 
-0.0383548 -0.0425525 -0.998469 
-0.0387749 -0.0544 -0.997883 
-0.0375018 -0.0607259 -0.997565 
-0.0334311 -0.0576008 -0.997852 
-0.0261769 -0.0528747 -0.998249 
0.0220061 -0.0518059 0.99842 
0.0335072 -0.0569731 0.997927 
0.0373933 -0.0587464 0.997713 
0.0401912 -0.0510043 0.997987 
0.0423764 -0.0407282 0.998374 
0.0445041 -0.0304742 0.998685 
0.0466581 -0.0211508 0.998805 
0.0486518 -0.013886 0.998795 
0.049615 -0.00873037 0.998886 
0.0510459 -0.00563317 0.998793 
0.0518511 -0.00394945 0.998758 
0.0525604 -0.00276317 0.998702 
0.0526819 -0.0017034 0.998718 
0.0525405 -0.00057422 0.998725 
0.0521841 0.000835307 0.998765 
0.0525506 0.00219686 0.998722 
0.052751 0.00351262 0.998685 
0.052597 0.00472354 0.99871 
0.0522602 0.00599061 0.998722 
0.0520811 0.00748661 0.998723 
0.0518731 0.00947199 0.998718 
0.0517457 0.0121036 0.998695 
0.0516793 0.015396 0.998674 
0.0518901 0.0197746 0.998545 
0.0519085 0.0246798 0.99844 
0.0513403 0.0311196 0.998341 
0.0509526 0.0397522 0.997996 
0.0496854 0.0510437 0.997592 
0.047716 0.0677776 0.996673 
0.0449322 0.0906726 0.99496 
0.0404875 0.123263 0.991721 
0.036319 0.167838 0.985254 
0.0318867 0.22878 0.973062 
0.0259452 0.309563 0.950642 
0.019307 0.417308 0.908768 
0.0125258 0.562301 0.826996 
0.00715819 0.709279 0.705041 
0.0026748 0.852546 0.522764 
0.000541506 0.957537 0.288377 
-0.00206347 0.999966 -0.006865 
-0.00398843 0.954942 -0.296818 
-0.00673535 0.844641 -0.535414 
-0.0106159 0.701596 -0.712645 
-0.0158325 0.54829 -0.836299 
-0.0215662 0.413182 -0.910525 
-0.0274284 0.308026 -0.951151 
-0.0331364 0.228707 -0.973066 
-0.0383389 0.167725 -0.985232 
-0.0423379 0.12429 -0.991465 
-0.0453142 0.091864 -0.994855 
-0.0477134 0.0698261 -0.996532 
-0.0493832 0.0531822 -0.997457 
-0.0506634 0.0414649 -0.997944 
-0.0512025 0.0323121 -0.998274 
-0.0513705 0.025334 -0.998487 
-0.0517356 0.0201607 -0.998565 
-0.0520222 0.0159635 -0.998627 
-0.0521152 0.0126392 -0.998648 
-0.0518627 0.00989645 -0.998734 
-0.0520824 0.00779857 -0.998719 
-0.0522368 0.00616976 -0.998723 
-0.0524212 0.00482372 -0.998699 
-0.0522647 0.00364032 -0.998754 
-0.0527725 0.00253446 -0.998689 
-0.0528797 0.00139058 -0.998707 
-0.0528941 0.00016058 -0.998707 
-0.052629 -0.00121581 -0.998702 
-0.0520516 -0.00273492 -0.998806 
-0.0524787 -0.00466191 -0.998699 
-0.051372 -0.00690607 -0.998767 
-0.0503648 -0.0100477 -0.998792 
-0.0488732 -0.0149715 -0.998808 
-0.0469844 -0.0212741 -0.998786 
-0.0452454 -0.0301044 -0.998642 
-0.0430211 -0.0396609 -0.998385 
-0.0407877 -0.0503928 -0.998018 
-0.0373544 -0.0586275 -0.997721 
-0.0341145 -0.0566946 -0.997924 
-0.021706 -0.0516225 -0.998435 
0.0167514 -0.0516766 0.99853 
0.0285826 -0.0561262 0.998127 
0.0310799 -0.0595545 0.997862 
0.0344536 -0.0514028 0.99825 
0.0375587 -0.0419686 0.998495 
0.0408611 -0.0309796 0.998806 
0.0424769 -0.0216472 0.998982 
0.0443867 -0.0139448 0.999058 
0.046638 -0.00904177 0.998965 
0.0469605 -0.00598259 0.998995 
0.0472086 -0.00391197 0.998992 
0.0488585 -0.00247804 0.998914 
0.0485278 -0.00119222 0.998931 
0.0484004 2.83835e-05 0.998938 
0.047722 0.0013116 0.998949 
0.0479914 0.0024948 0.998953 
0.0487834 0.00361045 0.99893 
0.0483125 0.00481154 0.998929 
0.0480808 0.00601404 0.998936 
0.0479313 0.00745359 0.998934 
0.0477723 0.00933208 0.998926 
0.0476309 0.0118129 0.998906 
0.0475656 0.0150318 0.998844 
0.0484232 0.0189814 0.998777 
0.047588 0.0240741 0.998703 
0.047648 0.0306438 0.998466 
0.0478002 0.0390075 0.998226 
0.046258 0.050727 0.997732 
0.0442375 0.0667726 0.996904 
0.0406925 0.0908202 0.995182 
0.0359579 0.123526 0.991779 
0.0310355 0.169499 0.985237 
0.0271265 0.232752 0.972302 
0.0210947 0.320818 0.947065 
0.0147151 0.44216 0.896987 
0.00892682 0.574878 0.818366 
0.00481953 0.718547 0.695627 
0.00146452 0.866498 0.499259 
-0.000712062 0.968317 0.249808 
-0.00330339 0.999979 -0.00639661 
-0.00453296 0.964853 -0.262793 
-0.00590957 0.857675 -0.514276 
-0.00857682 0.709925 -0.704387 
-0.0131409 0.56016 -0.82846 
-0.0179811 0.421047 -0.907037 
-0.0234194 0.313651 -0.94941 
-0.0289448 0.230762 -0.972727 
-0.0348885 0.170039 -0.984952 
-0.0382936 0.125327 -0.991462 
-0.0416699 0.0927968 -0.994978 
-0.0433754 0.0699357 -0.996688 
-0.0452154 0.0528342 -0.997712 
-0.0467696 0.0402818 -0.998226 
-0.0473854 0.0313742 -0.998494 
-0.0477233 0.0247038 -0.998644 
-0.048133 0.0195206 -0.99876 
-0.0481135 0.0154476 -0.998832 
-0.0480824 0.0122263 -0.9989 
-0.0478463 0.00973949 -0.998896 
-0.0477036 0.0077352 -0.998942 
-0.0475318 0.0061225 -0.99896 
-0.0478196 0.00487966 -0.998974 
-0.0476287 0.00376104 -0.998946 
-0.0481534 0.00265005 -0.998966 
-0.0483957 0.00158995 -0.998936 
-0.0488601 0.000357012 -0.998915 
-0.0484644 -0.000976871 -0.998934 
-0.0480658 -0.00258932 -0.998929 
-0.0476947 -0.00455639 -0.998986 
-0.0486422 -0.00707574 -0.998904 
-0.0464026 -0.0106525 -0.998981 
-0.0435825 -0.015702 -0.999044 
-0.0434674 -0.0225152 -0.998921 
-0.040105 -0.0323303 -0.998796 
-0.0395918 -0.0418384 -0.998464 
-0.0348713 -0.0520262 -0.99816 
-0.0305639 -0.0597421 -0.997866 
-0.0284281 -0.0550194 -0.998192 
-0.0167078 -0.0525234 -0.998479 
0.0121141 -0.0496521 0.998679 
0.0220402 -0.0563556 0.998302 
0.0246011 -0.0625708 0.997835 
0.0281375 -0.0543077 0.998234 
0.0308331 -0.0445874 0.998675 
0.0339901 -0.0336138 0.999003 
0.0359748 -0.0234605 0.999197 
0.0378052 -0.0156173 0.999259 
0.0392099 -0.00999414 0.999321 
0.0393834 -0.00647731 0.999319 
0.0399384 -0.00390281 0.999288 
0.0406212 -0.00197276 0.999308 
0.0406658 -0.000461534 0.999284 
0.0406362 0.000821378 0.999284 
0.0399128 0.00208892 0.999311 
0.0405483 0.0031484 0.999281 
0.041347 0.0041251 0.999246 
0.040425 0.00518764 0.99928 
0.0403381 0.00633875 0.999278 
0.0402329 0.00778795 0.999272 
0.0402238 0.00970267 0.999255 
0.040211 0.0121946 0.999227 
0.0403534 0.0155052 0.999175 
0.0416089 0.0194723 0.999052 
0.0405729 0.0248196 0.998976 
0.0406438 0.0318628 0.998775 
0.0408626 0.0406761 0.998447 
0.038972 0.0532634 0.997935 
0.0370978 0.071343 0.996883 
0.0329917 0.0946255 0.9951 
0.0278278 0.132568 0.990933 
0.0231232 0.182653 0.983036 
0.019979 0.245688 0.969338 
0.0143401 0.348463 0.937387 
0.00853659 0.466028 0.884955 
0.00412716 0.604029 0.797099 
0.00142257 0.761993 0.647741 
-0.000562083 0.881743 0.47183 
-0.00112208 0.950468 0.310911 
-0.0022608 0.997911 0.0638481 
-0.00322749 0.964843 -0.263008 
-0.00442246 0.858547 -0.512896 
-0.00581261 0.720541 -0.693456 
-0.00943515 0.557705 -0.830176 
-0.0131573 0.415829 -0.90954 
-0.0180229 0.304029 -0.95267 
-0.0231436 0.225997 -0.974014 
-0.0291631 0.164902 -0.986021 
-0.0311235 0.121502 -0.992271 
-0.0352508 0.0900457 -0.995441 
-0.0365664 0.0659707 -0.997273 
-0.0389259 0.049114 -0.99815 
-0.0401725 0.0376219 -0.998596 
-0.0404583 0.0289699 -0.998871 
-0.0405786 0.0225414 -0.999032 
-0.0409751 0.0177901 -0.999112 
-0.0408212 0.0140856 -0.999178 
-0.040768 0.0112304 -0.999216 
-0.0401125 0.00895611 -0.999266 
-0.0401382 0.00720146 -0.999278 
-0.0393837 0.00587601 -0.999317 
-0.0404937 0.00474807 -0.999278 
-0.0401051 0.00371756 -0.999299 
-0.0403612 0.0027952 -0.999291 
-0.0405651 0.00175917 -0.999286 
-0.0409035 0.000570882 -0.999272 
-0.0404888 -0.000821158 -0.99929 
-0.0405079 -0.00261261 -0.999288 
-0.040173 -0.00478216 -0.999274 
-0.0417167 -0.00740712 -0.999218 
-0.0390171 -0.0111417 -0.999294 
-0.0365588 -0.0169846 -0.999305 
-0.0369056 -0.0244528 -0.99914 
-0.0334162 -0.0346887 -0.998963 
-0.0329902 -0.044298 -0.998598 
-0.0283392 -0.0547141 -0.998224 
-0.0238934 -0.0616834 -0.997928 
-0.0215218 -0.0555477 -0.998336 
-0.0122202 -0.0523061 -0.998557 
0.00856412 -0.0495386 0.998718 
0.01453 -0.0547975 0.998459 
0.0181416 -0.0633835 0.997943 
0.0208644 -0.0595777 0.998127 
0.0231224 -0.0504511 0.998583 
0.0258397 -0.0396762 0.999001 
0.0280101 -0.0291811 0.9993 
0.02913 -0.0198667 0.999495 
0.030494 -0.0130237 0.999566 
0.0307 -0.00847255 0.999607 
0.0309265 -0.00505148 0.999623 
0.0315427 -0.00252985 0.999611 
0.0312725 -0.000686034 0.999622 
0.0312265 0.000765814 0.999621 
0.0312357 0.00194846 0.999618 
0.030768 0.00305608 0.99963 
0.0313019 0.00393497 0.99961 
0.0314796 0.00478977 0.999602 
0.0308297 0.00579645 0.999618 
0.0308456 0.00695756 0.99961 
0.0310298 0.00847219 0.999592 
0.0311087 0.0104868 0.999569 
0.0314185 0.0131948 0.999526 
0.0315329 0.0167088 0.999469 
0.0328424 0.0208867 0.999347 
0.0320272 0.0270299 0.999227 
0.0317638 0.03483 0.998995 
0.0316854 0.0447849 0.998607 
0.0301633 0.0601394 0.997852 
0.0265284 0.0789146 0.99666 
0.023187 0.109291 0.993885 
0.0171069 0.155745 0.987811 
0.0130425 0.221621 0.975214 
0.0111368 0.296433 0.955123 
0.00618406 0.396448 0.918181 
0.00127861 0.529215 0.848718 
-0.000667681 0.684452 0.729203 
-0.000579307 0.836896 0.54757 
6.02973e-05 0.996144 0.0881203 
7.41929e-05 0.995833 -0.0911632 
-0.00142246 0.957325 -0.288807 
-0.000686481 0.964378 -0.264283 
-0.00358188 0.835119 -0.550177 
-0.00309033 0.618583 -0.786 
-0.00567205 0.465869 -0.885036 
-0.00973522 0.331002 -0.943768 
-0.0137861 0.23863 -0.971188 
-0.0206374 0.174429 -0.984608 
-0.0216866 0.132608 -0.991029 
-0.0259731 0.0963237 -0.995171 
-0.0282828 0.0721054 -0.997123 
-0.0303278 0.0519749 -0.998307 
-0.0313528 0.0390576 -0.998858 
-0.0319649 0.0298937 -0.999151 
-0.0319075 0.0229977 -0.999333 
-0.031972 0.0179185 -0.999435 
-0.0317552 0.0141781 -0.999503 
-0.0315957 0.0113265 -0.999546 
-0.0310998 0.00914608 -0.999584 
-0.0309702 0.00743122 -0.999602 
-0.0299659 0.00615727 -0.999641 
-0.0309537 0.00507753 -0.999617 
-0.0312981 0.0041766 -0.999611 
-0.0304129 0.00328511 -0.999641 
-0.0310466 0.00233979 -0.999624 
-0.0311579 0.00118191 -0.999623 
-0.0308381 -0.00019872 -0.999634 
-0.0309555 -0.00208026 -0.999629 
-0.0304612 -0.00443503 -0.999659 
-0.032387 -0.0075974 -0.999562 
-0.0306022 -0.0120953 -0.999573 
-0.0283228 -0.0184096 -0.999545 
-0.0290253 -0.0265491 -0.999345 
-0.0259619 -0.0376146 -0.999076 
-0.0260927 -0.0472607 -0.998666 
-0.0216597 -0.0573053 -0.998243 
-0.0175407 -0.0638817 -0.99792 
-0.015728 -0.0574976 -0.998333 
-0.00841988 -0.0526563 -0.998577 
0.00661944 -0.0520256 0.998626 
0.0112496 -0.0591443 0.998317 
0.0144391 -0.0656537 0.997834 
0.0156278 -0.0579856 0.998339 
0.0177655 -0.0482943 0.998796 
0.0193925 -0.0375308 0.999225 
0.0210121 -0.0269481 0.99953 
0.0218479 -0.0179957 0.999713 
0.0220805 -0.011933 0.999798 
0.0225411 -0.0073449 0.99983 
0.0227307 -0.00387819 0.999844 
0.0223284 -0.00145667 0.999858 
0.0221924 0.0003811 0.999861 
0.0220661 0.00173405 0.999861 
0.0222771 0.00277747 0.999854 
0.0213934 0.00369288 0.99987 
0.0215411 0.00444804 0.999864 
0.0219723 0.00524881 0.999852 
0.0213991 0.00619407 0.999859 
0.021702 0.00736178 0.999844 
0.0220353 0.00893453 0.999823 
0.0224293 0.0111314 0.999791 
0.0227467 0.014079 0.999746 
0.0226338 0.0178376 0.999687 
0.0243707 0.0226877 0.999548 
0.0234435 0.0298857 0.999382 
0.0227277 0.0390543 0.999087 
0.023059 0.0521406 0.998466 
0.0192678 0.0690382 0.997578 
0.0169699 0.0967731 0.995275 
0.0125541 0.136568 0.990746 
0.00760128 0.214441 0.976888 
0.00415649 0.313116 0.949887 
-1.8439e-05 0.44016 0.898124 
-0.00201413 0.623202 0.782345 
-0.00285644 0.787692 0.61617 
0.000228824 0.931228 0.364593 
-0.000891535 0.960564 0.277848 
-0.00161123 0.955914 0.293619 
0.000827647 0.996011 0.0894468 
0.000659672 0.995069 -0.0987743 
-0.00272855 0.958043 -0.287032 
0.00154536 0.870213 -0.492908 
0.000308819 0.715359 -0.698897 
0.0019378 0.52255 -0.852805 
-0.00225585 0.380274 -0.925071 
-0.00537868 0.270108 -0.963005 
-0.0116919 0.182346 -0.983362 
-0.0146314 0.125614 -0.992139 
-0.0180692 0.0920386 -0.995706 
-0.0216154 0.0649182 -0.9978 
-0.0222338 0.0479237 -0.998702 
-0.02301 0.0359979 -0.999195 
-0.0235359 0.0274072 -0.999451 
-0.0233363 0.0210517 -0.999609 
-0.0229631 0.0164631 -0.999704 
-0.0226142 0.0129958 -0.999765 
-0.0222524 0.0104427 -0.999804 
-0.0221801 0.00843742 -0.999825 
-0.0214692 0.00703382 -0.999851 
-0.0214343 0.00588378 -0.999859 
-0.021552 0.00501934 -0.999862 
-0.022193 0.00420392 -0.999852 
-0.0209941 0.00344998 -0.99988 
-0.0219366 0.00249026 -0.999862 
-0.0216011 0.00137801 -0.999872 
-0.0217584 -0.000156642 -0.99987 
-0.0216096 -0.0021572 -0.99989 
-0.0215483 -0.00487895 -0.999826 
-0.0238685 -0.00800074 -0.999795 
-0.0222554 -0.0126826 -0.999785 
-0.0207219 -0.0197115 -0.999704 
-0.021356 -0.0286212 -0.999478 
-0.0187534 -0.0401 -0.999138 
-0.0189856 -0.0502561 -0.998677 
-0.0151159 -0.0598536 -0.998212 
-0.0120117 -0.0660134 -0.997862 
-0.0107753 -0.0585967 -0.998331 
-0.00543496 -0.0534345 -0.998552 
0.00437743 -0.0538527 0.998536 
0.00801677 -0.0595993 0.998298 
0.0101266 -0.0667424 0.997836 
0.0107983 -0.0615592 0.998165 
0.0122928 -0.0522032 0.998658 
0.0132282 -0.0409995 0.99919 
0.0143029 -0.0300181 0.999561 
0.0152898 -0.0208367 0.999778 
0.0151437 -0.01377 0.999902 
0.0154886 -0.00854511 0.999954 
0.0159505 -0.00468615 0.999971 
0.0150828 -0.00169726 0.999992 
0.0149313 0.00039547 0.999994 
0.0146745 0.00186829 0.999995 
0.0146463 0.00291655 0.999993 
0.0141734 0.00373055 0.999997 
0.013596 0.00446726 1 
0.0140261 0.00513691 0.999993 
0.013954 0.00590953 0.999991 
0.0140342 0.00691413 0.999983 
0.0144636 0.00824362 0.999966 
0.0150858 0.0101349 0.999938 
0.0155204 0.0127998 0.9999 
0.0154093 0.0162762 0.999849 
0.0162846 0.0210622 0.999781 
0.0171385 0.0272667 0.999547 
0.0157085 0.0359724 0.999355 
0.0159205 0.0488459 0.998792 
0.0130774 0.066209 0.997844 
0.0109534 0.0925102 0.995823 
0.00755435 0.136926 0.990715 
0.00440914 0.20751 0.978336 
0.000677865 0.317832 0.948429 
-0.00185038 0.478536 0.878231 
-0.00366152 0.6304 0.776499 
-0.00271613 0.802163 0.597202 
0.00501713 0.989153 0.1473 
0.00672796 0.992393 0.122518 
0.0068531 0.993015 0.119114 
0.00614773 0.994468 0.103349 
0.00436291 0.99979 0.0195425 
0.00325136 0.999956 -0.00372331 
9.19342e-05 0.847332 -0.530991 
0.00293441 0.67115 -0.741493 
0.00362973 0.555949 -0.831337 
0.00271972 0.441791 -0.897326 
0.000642369 0.32662 -0.945401 
-0.00481825 0.208125 -0.978275 
-0.00834533 0.142637 -0.9899 
-0.0107816 0.0977141 -0.995298 
-0.0142976 0.0703949 -0.997504 
-0.0150925 0.0512696 -0.998711 
-0.0157376 0.0382586 -0.999255 
-0.01625 0.0289615 -0.999553 
-0.0163053 0.0222528 -0.999721 
-0.0158113 0.0172017 -0.999828 
-0.0153119 0.0134666 -0.999894 
-0.0146811 0.0107002 -0.999958 
-0.0149328 0.00875964 -0.999934 
-0.0139108 0.00723979 -1.00002 
-0.0145402 0.00622527 -0.999943 
-0.0137519 0.00534756 -0.999997 
-0.0143092 0.00461976 -0.999993 
-0.0138322 0.0039642 -1 
-0.0143108 0.00309852 -0.999998 
-0.0141757 0.0020752 -1 
-0.0145795 0.000546174 -1 
-0.0145253 -0.00162844 -0.999985 
-0.0144591 -0.00451606 -1.00003 
-0.0161894 -0.00861921 -0.999944 
-0.0155542 -0.0143136 -0.999891 
-0.0139144 -0.021524 -0.999786 
-0.0150559 -0.0298268 -0.999557 
-0.0128073 -0.0406937 -0.999208 
-0.0131783 -0.0513819 -0.998712 
-0.0104491 -0.0613575 -0.99818 
-0.00829683 -0.0677101 -0.997785 
-0.00705458 -0.0592465 -0.998323 
-0.00364702 -0.0532295 -0.998574 
0.00317944 -0.0535349 0.998559 
0.00557741 -0.0604314 0.99824 
0.00696272 -0.0678152 0.99781 
0.0076224 -0.0631449 0.998071 
0.00845213 -0.0526387 0.99872 
0.00905149 -0.0413147 0.999221 