# vtk DataFile Version 3.0 
Exported using Morpho https://github.com/Morpho-lang/morpho 
ASCII 
DATASET UNSTRUCTURED_GRID 

POINTS 1978 float 
-12 -3.99999 -1.69769e-09 
-11.5977 -3.99999 6.48483e-08 
-11.3007 -3.99999 8.03864e-08 
-10.9628 -3.99999 6.4938e-08 
-10.6538 -3.99999 4.83365e-08 
-10.2989 -3.99999 3.38643e-08 
-9.97565 -3.99999 2.07424e-08 
-9.67028 -3.99999 1.26414e-08 
-9.33596 -3.99999 7.97105e-09 
-9.01303 -3.99999 5.50567e-09 
-8.6817 -3.99999 4.94773e-09 
-8.34565 -3.99999 4.66484e-09 
-8.03222 -3.99999 3.73628e-09 
-7.74917 -3.99999 1.90009e-09 
-7.48341 -3.99999 -5.20851e-10 
-7.19804 -3.99999 -3.49264e-09 
-6.90164 -3.99999 -6.23546e-09 
-6.60235 -3.99999 -8.04162e-09 
-6.29951 -3.99999 -9.64376e-09 
-5.98695 -3.99999 -1.15455e-08 
-5.6809 -3.99999 -1.45765e-08 
-5.37467 -3.99999 -1.89753e-08 
-5.07508 -3.99999 -2.45102e-08 
-4.78208 -3.99999 -3.26715e-08 
-4.45513 -3.99999 -4.06584e-08 
-4.15087 -3.99999 -5.13588e-08 
-3.82395 -3.99999 -6.46517e-08 
-3.50689 -3.99999 -7.79977e-08 
-3.1948 -3.99999 -9.41325e-08 
-2.90338 -4 -1.07741e-07 
-2.61842 -4 -1.21078e-07 
-2.34108 -4 -1.38689e-07 
-2.07013 -4 -1.5197e-07 
-1.79278 -4 -1.54741e-07 
-1.51006 -4 -1.43532e-07 
-1.21566 -4 -1.1572e-07 
-0.923275 -4 -1.20838e-07 
-0.598618 -4 -1.98846e-08 
-0.326669 -3.99999 -1.481e-07 
0.0207375 -3.99999 1.47489e-07 
0.320805 -3.99999 5.3084e-08 
0.610287 -4 5.36996e-08 
0.90681 -4 1.04393e-07 
1.18401 -4 8.04129e-08 
1.4542 -4 1.35493e-07 
1.72824 -4 1.63029e-07 
2.0094 -4 1.70673e-07 
2.30069 -4 1.70649e-07 
2.62654 -3.99999 1.4558e-07 
2.93063 -3.99999 1.21354e-07 
3.26504 -3.99999 9.27379e-08 
3.55425 -3.99999 7.35559e-08 
3.85766 -3.99999 6.102e-08 
4.17443 -3.99999 4.84594e-08 
4.4753 -3.99999 3.84545e-08 
4.77474 -3.99999 3.14624e-08 
5.08953 -3.99999 2.52938e-08 
5.39879 -3.99999 2.00203e-08 
5.71225 -3.99999 1.53198e-08 
6.00481 -3.99999 1.18483e-08 
6.30078 -3.99999 9.38438e-09 
6.5963 -3.99999 7.28351e-09 
6.89902 -3.99999 5.14715e-09 
7.17379 -3.99999 3.54484e-09 
7.48135 -3.99999 1.9606e-09 
7.77703 -3.99999 -3.64314e-11 
8.07323 -3.99999 -1.96926e-09 
8.36058 -3.99999 -4.24718e-09 
8.64882 -3.99999 -6.23105e-09 
8.92466 -3.99999 -8.55851e-09 
9.27739 -3.99999 -1.15045e-08 
9.61204 -3.99999 -1.51176e-08 
9.89968 -3.99999 -2.33817e-08 
10.2752 -3.99999 -3.47645e-08 
10.5964 -3.99999 -5.30769e-08 
10.9949 -3.99999 -6.84044e-08 
11.3065 -3.99999 -8.18256e-08 
11.5968 -3.99999 -6.23816e-08 
12 -3.99999 1.01051e-09 
-12 -3.62262 2.60365e-08 
-11.7001 -3.71399 -7.15818e-08 
-11.349 -3.61638 -4.38299e-08 
-11.0423 -3.66613 -4.90927e-08 
-10.7153 -3.64125 -3.97697e-08 
-10.3942 -3.68494 -3.55728e-08 
-10.0545 -3.65669 -2.67352e-08 
-9.73597 -3.64033 -1.8581e-08 
-9.41592 -3.6712 -1.3282e-08 
-9.08313 -3.6585 -8.43597e-09 
-8.75491 -3.66553 -5.15024e-09 
-8.42223 -3.6767 -3.24721e-09 
-8.09594 -3.66435 -1.54927e-09 
-7.78335 -3.64002 1.37164e-11 
-7.49473 -3.62689 1.32365e-09 
-7.20989 -3.65618 2.49873e-09 
-6.902 -3.66211 3.84385e-09 
-6.59275 -3.65958 5.93596e-09 
-6.27593 -3.66669 8.1318e-09 
-5.96344 -3.65849 1.03237e-08 
-5.65224 -3.65747 1.3072e-08 
-5.34727 -3.64994 1.6272e-08 
-5.05291 -3.64295 2.02864e-08 
-4.73209 -3.67912 2.65094e-08 
-4.43572 -3.65177 3.2896e-08 
-4.13651 -3.65875 3.99145e-08 
-3.83544 -3.68438 5.13582e-08 
-3.52325 -3.67779 7.0249e-08 
-3.21888 -3.68247 8.92909e-08 
-2.91004 -3.6667 1.07173e-07 
-2.6233 -3.66397 1.36607e-07 
-2.34251 -3.66848 1.5547e-07 
-2.0528 -3.68109 1.78095e-07 
-1.76372 -3.68661 1.82363e-07 
-1.46986 -3.67995 1.49746e-07 
-1.17584 -3.66664 9.59123e-08 
-0.853288 -3.68184 1.38317e-08 
-0.573958 -3.59389 -2.87929e-08 
-0.256957 -3.67455 -7.02514e-08 
0.0326011 -3.58077 -1.61225e-07 
0.310637 -3.59994 1.49816e-07 
0.601871 -3.61584 5.74407e-08 
0.891748 -3.66101 -1.11103e-08 
1.19566 -3.66313 -8.66616e-08 
1.48998 -3.67163 -1.54099e-07 
1.78357 -3.68301 -1.85801e-07 
2.0799 -3.69059 -1.77397e-07 
2.40116 -3.72352 -1.66249e-07 
2.71647 -3.69282 -1.24367e-07 
3.03341 -3.70871 -1.05212e-07 
3.33178 -3.65289 -7.69993e-08 
3.62699 -3.66307 -6.29429e-08 
3.93597 -3.67347 -4.97318e-08 
4.2364 -3.6526 -3.82861e-08 
4.53364 -3.64831 -3.03565e-08 
4.84361 -3.66466 -2.43791e-08 
5.15425 -3.66014 -1.91726e-08 
5.4677 -3.66557 -1.53303e-08 
5.76851 -3.64427 -1.20092e-08 
6.06661 -3.65119 -9.62402e-09 
6.36548 -3.652 -7.41548e-09 
6.66641 -3.66379 -6.0831e-09 
6.95004 -3.62193 -4.0842e-09 
7.252 -3.66295 -2.71575e-09 
7.55308 -3.65162 -1.30382e-09 
7.85544 -3.6545 4.41519e-10 
8.15114 -3.64412 2.03202e-09 
8.44004 -3.64426 3.84067e-09 
8.72392 -3.62053 5.96811e-09 
9.04614 -3.6983 9.73065e-09 
9.38358 -3.67414 1.35632e-08 
9.68545 -3.61611 1.89327e-08 
10.0201 -3.70323 2.85816e-08 
10.3503 -3.65166 3.32592e-08 
10.722 -3.71914 4.46865e-08 
11.0468 -3.63736 4.49328e-08 
11.347 -3.60772 4.49938e-08 
11.7035 -3.71519 7.26393e-08 
12 -3.60674 -2.83665e-08 
-12 -3.32378 2.27558e-08 
-11.623 -3.36562 -3.48358e-08 
-11.2728 -3.26832 -9.33332e-09 
-10.9632 -3.31847 -1.8393e-08 
-10.6485 -3.2868 -1.70581e-08 
-10.3494 -3.35143 -1.88474e-08 
-10.031 -3.31044 -1.55914e-08 
-9.71173 -3.29752 -1.26329e-08 
-9.39655 -3.3369 -9.49961e-09 
-9.07388 -3.32353 -6.55406e-09 
-8.7757 -3.30389 -3.94969e-09 
-8.47354 -3.34577 -2.29666e-09 
-8.15828 -3.33176 -8.43565e-10 
-7.85318 -3.31017 2.90673e-10 
-7.55016 -3.27319 6.19678e-10 
-7.25525 -3.3024 1.01366e-09 
-6.95954 -3.33593 1.85393e-09 
-6.65061 -3.32649 2.94656e-09 
-6.33862 -3.33426 4.10911e-09 
-6.0295 -3.32474 5.23602e-09 
-5.71844 -3.32058 6.59961e-09 
-5.41059 -3.30974 7.99128e-09 
-5.10735 -3.29102 9.45121e-09 
-4.80564 -3.35016 1.34867e-08 
-4.5028 -3.30794 1.63207e-08 
-4.20521 -3.31915 2.07997e-08 
-3.90259 -3.35456 2.9583e-08 
-3.60016 -3.3597 3.91766e-08 
-3.28885 -3.35758 4.99782e-08 
-2.98247 -3.35941 6.56651e-08 
-2.66992 -3.32233 7.31341e-08 
-2.37825 -3.33413 8.47211e-08 
-2.08219 -3.3698 1.01062e-07 
-1.77581 -3.37148 1.04346e-07 
-1.46575 -3.35122 8.35846e-08 
-1.13116 -3.35437 4.52443e-08 
-0.843433 -3.28661 -1.89621e-08 
-0.560325 -3.17525 -1.43973e-08 
-0.282271 -3.29879 -2.06398e-07 
0.0143313 -3.15353 2.24419e-07 
0.295407 -3.14604 7.55369e-08 
0.574383 -3.20884 6.77193e-08 
0.866585 -3.28854 1.25243e-08 
1.16545 -3.32919 -3.48837e-08 
1.46981 -3.34246 -8.99024e-08 
1.77484 -3.36063 -9.75446e-08 
2.07119 -3.37466 -1.00256e-07 
2.37277 -3.4331 -1.08416e-07 
2.67155 -3.37908 -8.15937e-08 
2.97642 -3.39694 -7.0291e-08 
3.27232 -3.33042 -4.86399e-08 
3.57786 -3.32292 -3.69206e-08 
3.87526 -3.34344 -2.98403e-08 
4.17555 -3.31714 -2.1552e-08 
4.47587 -3.30334 -1.62073e-08 
4.77703 -3.32627 -1.35243e-08 
5.08279 -3.32606 -1.07769e-08 
5.39435 -3.33249 -8.48738e-09 
5.70141 -3.30805 -6.27246e-09 
6.01126 -3.30462 -5.00878e-09 
6.30894 -3.30892 -3.96291e-09 
6.61062 -3.31751 -3.05031e-09 
6.90816 -3.27819 -1.95934e-09 
7.21135 -3.31919 -1.41157e-09 
7.51319 -3.31143 -6.41281e-10 
7.8168 -3.31848 1.79225e-10 
8.1239 -3.30122 1.02699e-09 
8.4257 -3.28536 1.98166e-09 
8.7463 -3.29627 3.65567e-09 
9.06855 -3.37739 6.7408e-09 
9.38015 -3.32359 9.58411e-09 
9.69744 -3.27124 1.22445e-08 
10.0092 -3.37202 1.73416e-08 
10.3075 -3.29214 1.67034e-08 
10.6267 -3.40418 2.46696e-08 
10.9537 -3.31481 1.93607e-08 
11.2816 -3.2418 8.12185e-09 
11.6192 -3.36497 3.68351e-08 
12 -3.30267 -2.57376e-08 
-12 -3.00865 1.75369e-08 
-11.6432 -3.0552 -2.10536e-08 
-11.2945 -2.95131 6.14616e-09 
-10.9477 -2.96498 -1.79513e-09 
-10.6148 -2.95957 -4.05239e-09 
-10.2879 -3.00062 -7.00568e-09 
-9.96384 -2.97159 -6.86346e-09 
-9.63675 -2.96805 -7.37276e-09 
-9.3268 -3.0013 -5.81839e-09 
-9.02156 -2.96718 -3.758e-09 
-8.72218 -2.94506 -2.21124e-09 
-8.44091 -3.00519 -1.3346e-09 
-8.14294 -2.98447 -5.99404e-10 
-7.84141 -2.97153 -6.08263e-11 
-7.53402 -2.9427 2.34622e-10 
-7.23148 -2.96846 5.10288e-10 
-6.93304 -3.00617 1.03781e-09 
-6.62156 -3.00095 1.26473e-09 
-6.31758 -2.99985 1.77584e-09 
-6.0095 -2.99299 2.5143e-09 
-5.70278 -2.98555 3.22531e-09 
-5.39667 -2.97313 3.9257e-09 
-5.09127 -2.9579 4.73503e-09 
-4.79222 -3.01579 7.04466e-09 
-4.48744 -2.97545 8.16127e-09 
-4.19159 -2.98759 1.11715e-08 
-3.8987 -3.03354 1.71935e-08 
-3.59786 -3.03345 2.21888e-08 
-3.2989 -3.04371 2.93327e-08 
-2.97969 -3.0408 3.68617e-08 
-2.68134 -2.98299 4.30114e-08 
-2.37281 -2.9886 4.90652e-08 
-2.07486 -3.05158 4.70088e-08 
-1.76096 -3.05429 3.20511e-08 
-1.42405 -3.02888 8.79892e-09 
-1.13406 -2.96933 -5.82405e-08 
-0.853331 -2.86016 -5.69942e-08 
-0.548977 -2.78151 -1.58596e-07 
-0.236966 -2.88046 1.90536e-07 
0.00919268 -2.61804 -3.6633e-07 
0.269785 -2.64276 1.7647e-07 
0.54956 -2.76099 2.54738e-08 
0.844246 -2.88646 3.40556e-08 
1.14863 -2.95869 -2.30812e-08 
1.461 -2.98256 -3.23849e-08 
1.75791 -3.03074 -5.54658e-08 
2.07161 -3.03775 -5.43099e-08 
2.36778 -3.11475 -5.53806e-08 
2.67098 -3.04694 -4.7627e-08 
2.9662 -3.07317 -3.74163e-08 
3.26785 -3.0018 -2.78632e-08 
3.56863 -3.00066 -2.0963e-08 
3.87543 -3.01071 -1.63163e-08 
4.1725 -2.98469 -1.19601e-08 
4.47134 -2.97185 -8.55134e-09 
4.77028 -2.99074 -6.64195e-09 
5.06995 -2.99243 -5.15658e-09 
5.37323 -3.00156 -4.09332e-09 
5.67944 -2.97789 -3.03937e-09 
5.9861 -2.97902 -2.36051e-09 
6.29846 -2.96586 -1.89459e-09 
6.59385 -2.98055 -1.43825e-09 
6.91487 -2.96046 -8.36633e-10 
7.23083 -2.98387 -5.00194e-10 
7.53178 -2.97518 -1.19049e-10 
7.83603 -2.98701 2.38904e-10 
8.1345 -2.96206 7.60969e-10 
8.43554 -2.95025 1.37416e-09 
8.73927 -2.96839 2.25514e-09 
9.05514 -3.04481 4.24692e-09 
9.37089 -2.99189 5.89749e-09 
9.66555 -2.9225 6.62417e-09 
9.98288 -3.01699 8.17903e-09 
10.3117 -2.96239 5.82503e-09 
10.6412 -3.06478 8.10463e-09 
10.9721 -2.97375 1.8674e-09 
11.3281 -2.92413 -6.93055e-09 
11.6639 -3.05092 2.77291e-08 
12 -2.96243 -2.4781e-08 
-12 -2.69168 2.58988e-08 
-11.6437 -2.73451 -1.27786e-08 
-11.3074 -2.62422 1.10455e-08 
-10.967 -2.6433 2.72433e-09 
-10.6301 -2.6346 -2.85753e-10 
-10.2994 -2.67094 -2.35864e-09 
-9.96802 -2.6515 -4.96415e-09 
-9.64295 -2.64526 -5.15789e-09 
[...]
POINT_DATA 1978 
VECTORS vectors float
0.00373261 -0.0107684 0.999955 
0.0113538 -0.0655431 0.997783 
0.00821249 -0.0650771 0.997847 
0.00820815 -0.0529914 0.998562 
0.00865484 -0.040056 0.999161 
0.00907237 -0.0260322 0.999621 
0.00816069 -0.0164381 0.999833 
0.00842123 -0.0102321 0.999913 
0.00894484 -0.00608768 0.999942 
0.00889292 -0.00412098 0.999953 
0.00926058 -0.00332687 0.999953 
0.00905207 -0.00288855 0.999955 
0.00793702 -0.00222152 0.999965 
0.00694119 -0.00105036 0.999973 
0.00693733 0.000469572 0.999973 
0.00771414 0.00235719 0.999966 
0.00807698 0.00410883 0.999957 
0.00812897 0.00534567 0.999952 
0.00841408 0.00646388 0.999943 
0.00841739 0.00794333 0.999933 
0.00828715 0.0101398 0.999914 
0.00805401 0.0133024 0.999878 
0.00778415 0.0172258 0.999821 
0.00836933 0.0216533 0.99973 
0.00850566 0.0276714 0.999582 
0.0084061 0.0346063 0.999367 
0.00867645 0.0439708 0.998995 
0.00831633 0.0562328 0.998384 
0.00758678 0.0739812 0.99723 
0.00685255 0.0972918 0.995231 
0.00629963 0.128419 0.9917 
0.00561643 0.172161 0.985051 
0.00517467 0.22678 0.973932 
0.00469254 0.300018 0.953922 
0.00399239 0.396401 0.918069 
0.00300295 0.522464 0.852657 
0.00195911 0.666169 0.7458 
0.000848605 0.831204 0.555968 
0.000300021 0.943663 0.330908 
7.02266e-05 0.999841 -0.0178173 
-0.000136114 0.946002 -0.324162 
-0.000797757 0.826343 -0.563167 
-0.00170426 0.674574 -0.738205 
-0.00250949 0.536697 -0.843772 
-0.0034902 0.417886 -0.908493 
-0.00446307 0.318963 -0.947757 
-0.00546377 0.240354 -0.97067 
-0.00684603 0.178867 -0.98385 
-0.00750471 0.129314 -0.991576 
-0.00810842 0.0963188 -0.995318 
-0.0079175 0.0710663 -0.99744 
-0.00754769 0.0555068 -0.99843 
-0.00821284 0.0436006 -0.999015 
-0.00823015 0.0341857 -0.999381 
-0.00789539 0.0272451 -0.999597 
-0.00821719 0.02178 -0.999729 
-0.00847956 0.0171572 -0.999817 
-0.00849832 0.0135259 -0.999872 
-0.00811108 0.0105386 -0.999911 
-0.00779525 0.00830516 -0.999934 
-0.00792776 0.00652091 -0.999946 
-0.00806323 0.00497582 -0.999954 
-0.00757737 0.0036052 -0.999963 
-0.00779459 0.00253106 -0.999965 
-0.00814769 0.00128127 -0.999965 
-0.0079965 -2.10938e-05 -0.999967 
-0.00775167 -0.00141341 -0.999967 
-0.00748415 -0.00291923 -0.999966 
-0.00717837 -0.00435256 -0.999964 
-0.00866963 -0.00563412 -0.999947 
-0.00960987 -0.0079298 -0.999923 
-0.00812247 -0.0116164 -0.999901 
-0.00872616 -0.0164181 -0.999829 
-0.00902349 -0.0262284 -0.999617 
-0.00952687 -0.0377014 -0.999245 
-0.00900511 -0.054588 -0.99847 
-0.0074479 -0.0651672 -0.997848 
-0.0112709 -0.0652396 -0.997804 
-0.00380949 -0.0107262 -0.999954 
-0.00357476 -0.0112228 0.999961 
0.0259391 -0.0507511 0.998376 
0.0331528 -0.0587321 0.997727 
0.0332867 -0.0531217 0.998037 
0.0351774 -0.041509 0.998525 
0.0352095 -0.0302869 0.998923 
0.0375827 -0.0200438 0.999096 
0.0394068 -0.0129114 0.999145 
0.0392796 -0.00802388 0.999198 
0.0404121 -0.00517123 0.999173 
0.0402923 -0.00365566 0.999185 
0.0404896 -0.00278398 0.999179 
0.0414155 -0.00192711 0.999143 
0.0430048 -0.000729964 0.999078 
0.0439183 0.000727203 0.999038 
0.0422372 0.00226916 0.999107 
0.0415297 0.0038104 0.999134 
0.041871 0.00511498 0.999113 
0.0414014 0.00640765 0.999125 
0.0417006 0.00800866 0.999101 
0.0416078 0.0102449 0.999085 
0.0419578 0.0132119 0.999035 
0.0422151 0.0168223 0.99897 
0.0404971 0.021771 0.998945 
0.0421478 0.0271572 0.998745 
0.0412519 0.0340348 0.998571 
0.0393405 0.0429784 0.998306 
0.0392424 0.0555141 0.997689 
0.0373538 0.0726468 0.996661 
0.0359119 0.097367 0.994606 
0.0335416 0.129432 0.991023 
0.0301065 0.172986 0.984471 
0.026138 0.233469 0.972016 
0.02167 0.313461 0.949359 
0.0167562 0.41572 0.909342 
0.011857 0.542529 0.839958 
0.00672117 0.702486 0.71167 
0.00346313 0.842816 0.538194 
0.00118937 0.963858 0.266415 
-0.000759136 0.999691 -0.0248334 
-0.00235654 0.952375 -0.304922 
-0.00494641 0.834861 -0.550441 
-0.00828529 0.685451 -0.728077 
-0.013423 0.531387 -0.847029 
-0.0183012 0.404093 -0.914541 
-0.0229399 0.30287 -0.952759 
-0.0270925 0.224821 -0.974027 
-0.0300233 0.163304 -0.986121 
-0.0336985 0.118799 -0.992352 
-0.0354512 0.088114 -0.995481 
-0.0391011 0.0665949 -0.997019 
-0.0397398 0.0517411 -0.997873 
-0.0399878 0.0402425 -0.998393 
-0.0414062 0.0316654 -0.998644 
-0.0417295 0.0251493 -0.998815 
-0.0410048 0.0199025 -0.998964 
-0.0414519 0.0157048 -0.99902 
-0.0412977 0.012344 -0.999074 
-0.0425311 0.00971813 -0.999051 
-0.0423201 0.00767103 -0.999078 
-0.0424161 0.00599107 -0.999085 
-0.04223 0.00456786 -0.9991 
-0.0439478 0.00337483 -0.999031 
-0.0419781 0.00220764 -0.999119 
-0.0427102 0.0010199 -0.99909 
-0.0426528 -0.000235521 -0.999093 
-0.0431305 -0.00159317 -0.999072 
-0.0430623 -0.0030574 -0.999069 
-0.0434724 -0.00454193 -0.999048 
-0.0391441 -0.00652215 -0.999215 
-0.0393628 -0.00951886 -0.999183 
-0.0408592 -0.0137437 -0.999075 
-0.0359148 -0.0201394 -0.999154 
-0.0363763 -0.0293842 -0.998911 
-0.0324758 -0.042164 -0.998587 
-0.034447 -0.0530097 -0.998003 
-0.0335138 -0.0583687 -0.997736 
-0.0258161 -0.0503779 -0.998398 
0.00401629 -0.0117909 -0.99995 
-0.00335174 -0.0118934 0.999946 
0.0303455 -0.0515392 0.998213 
0.0354339 -0.0562918 0.99779 
0.0384272 -0.0500164 0.998012 
0.0404879 -0.0401947 0.998375 
0.0424888 -0.0302255 0.998644 
0.0445293 -0.0212084 0.998787 
0.0464608 -0.0140533 0.998823 
0.047389 -0.008883 0.998843 
0.0487272 -0.00575582 0.998799 
0.0495625 -0.00399374 0.998766 
0.0501573 -0.00275651 0.99874 
0.0502915 -0.00167141 0.998736 
0.0503524 -0.000524893 0.998735 
0.0501937 0.000836861 0.998743 
0.050406 0.0021589 0.99873 
0.0504887 0.00345482 0.998721 
0.0502753 0.00468179 0.998728 
0.0499927 0.00595275 0.998735 
0.0498436 0.00745074 0.998732 
0.0496799 0.00943565 0.998724 
0.049614 0.012045 0.998699 
0.0495379 0.015301 0.998659 
0.0496991 0.0196506 0.998573 
0.0497316 0.0246 0.998462 
0.0491772 0.0309735 0.998315 
0.0487156 0.0397319 0.998024 
0.0473459 0.0510517 0.997578 
0.0454742 0.0677862 0.996667 
0.0427497 0.0909055 0.994944 
0.0385679 0.123763 0.991569 
0.0345608 0.168137 0.985161 
0.0301605 0.229049 0.972951 
0.0243129 0.309724 0.950521 
0.0180732 0.419085 0.907775 
0.0115774 0.564568 0.825311 
0.00622912 0.710754 0.703418 
0.00206669 0.852794 0.522246 
0.000506786 0.957135 0.289642 
-0.00193391 0.999959 -0.00885836 
-0.0039743 0.956077 -0.293091 
-0.00674216 0.846271 -0.532712 
-0.0102238 0.700251 -0.713828 
-0.0148286 0.54872 -0.83588 
-0.0203088 0.414411 -0.909868 
-0.026005 0.307866 -0.95108 
-0.0313631 0.228861 -0.972958 
-0.0362505 0.168188 -0.985093 
-0.0401338 0.124574 -0.991402 
-0.043084 0.0921954 -0.994812 
-0.0455182 0.0698308 -0.996523 
-0.0472124 0.0531215 -0.997474 
-0.0484472 0.0413808 -0.997971 
-0.0490422 0.0321873 -0.998281 
-0.0492495 0.0252171 -0.998472 
-0.0495515 0.0200545 -0.998573 
-0.0497632 0.0158731 -0.998638 
-0.0498968 0.0125577 -0.998678 
-0.049704 0.00983178 -0.99872 
-0.0499299 0.00774768 -0.998726 
-0.05007 0.00613329 -0.99873 
-0.0501855 0.00477699 -0.998731 
-0.0502951 0.00361067 -0.998732 
-0.0505841 0.00249842 -0.998719 
-0.0506504 0.00136556 -0.998719 
-0.0506569 0.000143417 -0.998719 
-0.0504779 -0.00121796 -0.998727 
-0.0499472 -0.00273156 -0.998754 
-0.0501495 -0.00465596 -0.998733 
-0.0489415 -0.00693398 -0.998781 
-0.0480864 -0.0101484 -0.998795 
-0.0466889 -0.015085 -0.998799 
-0.0447706 -0.0212897 -0.998774 
-0.0431166 -0.0298274 -0.998629 
-0.0409938 -0.0392633 -0.998391 
-0.0388358 -0.0494839 -0.998024 
-0.03542 -0.0560766 -0.997803 
-0.0307926 -0.0513664 -0.998208 
0.00392397 -0.0128186 -0.999928 
-0.00243018 -0.0113744 0.999945 
0.0259423 -0.0501016 0.99841 
0.0302582 -0.0571347 0.997912 
0.033632 -0.0503157 0.998173 
0.0366555 -0.0411617 0.998482 
0.0396527 -0.0306074 0.998749 
0.041277 -0.0214812 0.998921 
0.0432632 -0.0140974 0.998969 
0.0453105 -0.00915882 0.998934 
0.0456783 -0.00604956 0.998942 
0.0460042 -0.00394526 0.998937 
0.0474283 -0.00248318 0.998875 
0.0472364 -0.00119729 0.998886 
0.0470928 2.16189e-05 0.998894 
0.0465889 0.00129423 0.998916 
0.046832 0.00246261 0.998903 
0.0473438 0.00357081 0.998876 
0.047086 0.00475289 0.998883 
0.0468432 0.00595831 0.998888 
0.0466709 0.00740859 0.998886 
0.0465322 0.00928514 0.998877 
0.0464142 0.0117521 0.998857 
0.0463945 0.0149384 0.998814 
0.0470756 0.0188887 0.998717 
0.0464488 0.0239839 0.998637 
0.0464599 0.0305714 0.998454 
0.0463017 0.0389038 0.998174 
0.0450151 0.0508048 0.997696 
0.0428808 0.0668205 0.996847 
0.0394114 0.0909162 0.995084 
0.0348402 0.123723 0.991708 
0.0300264 0.169894 0.985013 
0.0261911 0.232539 0.97224 
0.0204102 0.319747 0.947289 
0.0140468 0.441607 0.897105 
0.00859273 0.573233 0.819354 
0.00454723 0.715917 0.698176 
0.000933404 0.864296 0.502984 
-0.00183781 0.970343 0.24173 
-0.00425465 0.999954 -0.00860943 
-0.00459574 0.963222 -0.26867 
-0.00537836 0.859164 -0.511676 
-0.00838435 0.71136 -0.702783 
-0.0126937 0.55879 -0.829218 
-0.0172875 0.420729 -0.907028 
-0.0226165 0.314801 -0.948894 
-0.0279776 0.230244 -0.972736 
-0.0337333 0.170211 -0.984835 
-0.0369607 0.125178 -0.991449 
-0.0404484 0.0932134 -0.99483 
-0.0421765 0.0699626 -0.99666 
-0.04399 0.0528335 -0.997638 
-0.0454388 0.040189 -0.998163 
-0.0461026 0.0312834 -0.99845 
-0.0465123 0.0245906 -0.998617 
-0.0468553 0.0194022 -0.998717 
-0.0468569 0.0153483 -0.998787 
-0.0467987 0.0121471 -0.998835 
-0.0466397 0.00967164 -0.998867 
-0.0465095 0.00768018 -0.998892 
-0.0463029 0.00607622 -0.998912 
-0.0465242 0.00483796 -0.99891 
-0.0465206 0.00371501 -0.998913 
-0.0468872 0.00260876 -0.998901 
-0.0471285 0.0015502 -0.998891 
-0.0475428 0.000332926 -0.998872 
-0.0471517 -0.000997742 -0.998891 
-0.046844 -0.00260641 -0.998901 
-0.0464885 -0.00456929 -0.998913 
-0.0471329 -0.00711428 -0.998867 
-0.0451385 -0.0107425 -0.998927 
-0.0425242 -0.0157537 -0.998975 
-0.0422236 -0.0224358 -0.99886 
-0.0391287 -0.0319045 -0.998729 
-0.0383388 -0.0411661 -0.998421 
-0.0340554 -0.0509104 -0.998126 
-0.0297066 -0.0570727 -0.997932 
-0.0255881 -0.0486614 -0.998491 
0.00335583 -0.0127452 -0.999923 
-0.00314584 -0.0148384 0.999868 
0.0203893 -0.050561 0.998517 
0.0241032 -0.059528 0.997938 
0.0275657 -0.0530655 0.998214 
0.0301744 -0.0437032 0.998594 
0.0332238 -0.0330472 0.998907 
0.0352325 -0.0234392 0.999107 
0.036826 -0.0156663 0.999202 
0.038279 -0.0100709 0.999221 
0.0384786 -0.00653247 0.999242 
0.0390799 -0.00392058 0.999231 
0.0397312 -0.00198423 0.999213 
0.0397635 -0.000488967 0.999212 
0.039717 0.000795796 0.999214 
0.0391001 0.00203942 0.999237 
0.0396613 0.00308698 0.999212 
0.040387 0.0040676 0.999179 
0.0396155 0.00512807 0.999205 
0.0395017 0.00629161 0.999203 
0.0393837 0.00774093 0.999198 
0.0393855 0.00964686 0.999181 
0.0393291 0.0121266 0.999156 
0.0395249 0.0154243 0.999103 
0.0406435 0.0193875 0.998989 
0.0396951 0.024729 0.998909 
0.039703 0.0317164 0.998711 
0.0398575 0.0407018 0.998379 
0.0380082 0.0531827 0.997865 
0.0361125 0.0714192 0.996796 
0.0320799 0.0949788 0.994967 
0.0269944 0.133196 0.990728 
0.0223676 0.183357 0.982796 
0.0193404 0.246748 0.968895 
0.0140647 0.348445 0.937231 
0.00829396 0.46721 0.884117 
0.00453389 0.602598 0.798038 
0.00246064 0.766563 0.642169 
5.02494e-05 0.891789 0.452466 
-0.000364835 0.944926 0.327295 
-0.00127827 0.99748 0.0709472 
-0.00359372 0.966111 -0.258105 
-0.00469286 0.855864 -0.517185 
-0.00577054 0.718961 -0.695028 
-0.00918539 0.558949 -0.829159 
-0.0128515 0.416214 -0.909184 
-0.0175277 0.303412 -0.952705 
-0.0224083 0.2271 -0.97362 
-0.0283624 0.1647 -0.985941 
-0.0302458 0.121876 -0.99209 
-0.0342351 0.0898804 -0.995369 
-0.0356697 0.0660021 -0.997186 
-0.0379901 0.0491562 -0.998072 
-0.0391843 0.0375998 -0.998528 
-0.0395485 0.0289102 -0.998803 
-0.0396965 0.0224731 -0.998962 
-0.0400548 0.0177263 -0.999044 
-0.0399414 0.0140252 -0.999107 
-0.0398969 0.0111753 -0.999145 
-0.0392659 0.00890733 -0.999193 
-0.0393168 0.00716141 -0.999204 
-0.0385478 0.00583028 -0.999243 
-0.0396333 0.00469635 -0.999207 
-0.0392753 0.00367137 -0.999225 
-0.0394856 0.00274174 -0.99922 
-0.0397186 0.00170314 -0.999213 
-0.0400218 0.000531098 -0.999202 
-0.0396123 -0.000864242 -0.999218 
-0.0395135 -0.00264229 -0.999219 
-0.039288 -0.00481491 -0.999219 
-0.0407614 -0.00745666 -0.999145 
-0.038098 -0.0111933 -0.999215 
-0.0357263 -0.0170559 -0.99922 
-0.0360079 -0.0243507 -0.999059 
-0.0326701 -0.0341553 -0.998886 
-0.0322929 -0.0433914 -0.99854 
-0.0277882 -0.0533413 -0.998194 
-0.0233179 -0.0588076 -0.998001 
-0.0197994 -0.0492723 -0.998592 
0.00223358 -0.012663 -0.999922 
-0.0025571 -0.0153447 0.999858 
0.0129792 -0.045773 0.99887 
0.0176018 -0.060166 0.998037 
0.0205024 -0.0577411 0.998125 
0.0227751 -0.0493332 0.998527 
0.0254019 -0.0388838 0.998925 
0.0274639 -0.0288662 0.99921 
0.028625 -0.0198725 0.999396 
0.0299561 -0.0130674 0.999469 
0.0301707 -0.00852734 0.999512 
0.0304217 -0.00509062 0.999528 
0.0310372 -0.0025601 0.999518 
0.0308015 -0.000734073 0.999529 
0.0307723 0.000712716 0.999529 
0.0307689 0.00189563 0.999528 
0.0303311 0.00298632 0.999539 
0.0308435 0.00387064 0.99952 
0.0310039 0.00472926 0.999511 
0.0304285 0.00573733 0.999524 
0.0304122 0.00690227 0.999517 
0.0305828 0.00842222 0.9995 
0.0306385 0.0104294 0.999479 
0.0309514 0.013138 0.999438 
0.0311128 0.0166388 0.999381 
0.0322031 0.0208328 0.999267 
0.03147 0.0269364 0.999145 
0.0313531 0.0348308 0.998905 
0.0309655 0.0447791 0.99852 
0.0295642 0.0601667 0.997754 
0.0260128 0.0791568 0.996527 
0.0226558 0.109692 0.993713 
0.0167303 0.15593 0.987633 
0.0129056 0.221674 0.975042 
0.0108416 0.296729 0.954905 
0.00600429 0.396274 0.918118 
0.00127285 0.530823 0.847491 
-0.000363984 0.684628 0.728898 
-0.00200274 0.833835 0.552017 
-0.00137646 0.996354 0.0853074 
0.0023219 0.99693 -0.0783042 
-0.00092183 0.958133 -0.286325 
3.09573e-05 0.958045 -0.286641 
-0.00301339 0.835967 -0.548774 
-0.00318936 0.622072 -0.782967 
-0.00551463 0.468082 -0.883676 
-0.0096118 0.332245 -0.943152 
-0.0132935 0.239401 -0.970837 
-0.0201068 0.175873 -0.984213 
-0.021196 0.133064 -0.990884 
-0.0254551 0.0964199 -0.995021 
-0.0277309 0.0719519 -0.997027 
-0.0297458 0.0518931 -0.998213 
-0.0307666 0.0390079 -0.998769 
-0.0314036 0.0298548 -0.999064 
-0.0314039 0.0229522 -0.999246 
-0.0314394 0.0178653 -0.999349 
-0.0312648 0.014124 -0.999415 
-0.0311214 0.0112739 -0.999455 
-0.0306632 0.00909692 -0.999492 
-0.0305141 0.00737601 -0.99951 
-0.0295836 0.00610196 -0.999547 
-0.030539 0.00501762 -0.999524 
-0.0308354 0.00411454 -0.999519 
-0.0299908 0.00321912 -0.999548 
-0.0306544 0.00227106 -0.999531 
-0.0306438 0.00111536 -0.999533 
-0.030456 -0.000260541 -0.999539 
-0.0304393 -0.00210913 -0.999538 
-0.0299755 -0.00446529 -0.999545 
-0.0318461 -0.00760774 -0.999467 
-0.0301075 -0.0121425 -0.999477 
-0.0278279 -0.0183737 -0.999448 
-0.0284954 -0.0263007 -0.999252 
-0.0255052 -0.0369416 -0.998996 
-0.0255679 -0.0462922 -0.998605 
-0.0212815 -0.0558323 -0.998217 
-0.017215 -0.0609183 -0.997998 
-0.0146924 -0.0512732 -0.99858 
0.001425 -0.0125626 -0.999923 
-0.000997003 -0.011986 0.999929 
0.0105745 -0.0527541 0.998556 
0.0141846 -0.0624431 0.997951 
0.0155499 -0.0567147 0.998274 
0.0176399 -0.0472035 0.998733 
0.0191959 -0.0368678 0.99914 
0.0207949 -0.0267459 0.99943 
0.0216526 -0.0180142 0.999607 
0.0218903 -0.0119831 0.999692 
0.0223442 -0.00738999 0.999726 
0.0225814 -0.00391862 0.999741 
0.0221981 -0.00152139 0.999756 
0.022086 0.000305032 0.999759 
0.0219778 0.00165838 0.99976 
0.0221368 0.002708 0.999754 
0.0213774 0.00362435 0.999768 
0.0214508 0.00438433 0.999763 
0.0218978 0.00518543 0.99975 
0.0213386 0.00613728 0.999757 
0.0216336 0.00731855 0.999742 
0.0219165 0.0088975 0.999723 
0.0223305 0.0111041 0.999692 
0.0226012 0.0140489 0.999649 
0.0225266 0.0177976 0.999591 
0.0240276 0.0226857 0.999457 
0.0233242 0.0299384 0.999283 
0.0225024 0.0390474 0.998987 
0.0227376 0.0522947 0.998375 
0.0190743 0.069329 0.997417 
0.0166706 0.0969412 0.995155 
0.0123573 0.137885 0.990379 
0.00765948 0.214752 0.976646 
0.00419331 0.311969 0.950091 
0.000280752 0.436647 0.899642 
-0.00210536 0.626816 0.779179 
-0.00159542 0.787495 0.616322 
0.00342887 0.936044 0.35187 
0.00289755 0.955781 0.294081 
-0.00135206 0.95554 0.294858 
0.00129604 0.997217 0.0745689 
0.000207831 0.996518 -0.0833326 
-0.00575961 0.956302 -0.292335 
0.00216906 0.870609 -0.491978 
0.000741591 0.718014 -0.696032 
0.00187539 0.525362 -0.850885 
-0.00238623 0.379201 -0.92532 
-0.00528249 0.270545 -0.962701 
-0.011511 0.182285 -0.983187 
-0.0146447 0.125369 -0.992009 
-0.0178209 0.0918789 -0.995615 
-0.0212888 0.0651701 -0.997652 
-0.0220019 0.0479428 -0.998611 
-0.0227463 0.0360285 -0.999095 
-0.0233211 0.0274258 -0.999355 
-0.0231714 0.021054 -0.999513 
-0.0228059 0.0164349 -0.999608 
-0.022472 0.0129742 -0.999666 
-0.0221407 0.0104156 -0.999704 
-0.0221033 0.00840791 -0.999724 
-0.0213763 0.00699004 -0.99975 
-0.0214011 0.00582178 -0.999757 
-0.0214966 0.00495641 -0.99976 
-0.0220648 0.00414083 -0.999751 
-0.0209477 0.00337778 -0.999778 
-0.0218938 0.00241925 -0.999761 
-0.0214671 0.00131149 -0.999772 
-0.0216809 -0.00022091 -0.999768 
-0.0215658 -0.0022352 -0.999769 
-0.0214079 -0.00492899 -0.999761 
-0.0236857 -0.00810397 -0.99969 
-0.0220147 -0.0127493 -0.99968 
-0.0205205 -0.0197591 -0.999598 
-0.0211687 -0.0284186 -0.999376 
-0.0185829 -0.039352 -0.999056 
-0.018783 -0.0491061 -0.998621 
-0.015035 -0.0582033 -0.998195 
-0.0119185 -0.062911 -0.997952 
-0.0101392 -0.052113 -0.998593 
0.00106744 -0.0129142 -0.999917 
-0.000833337 -0.0123991 0.999926 
0.0074994 -0.0531579 0.998561 
0.0100412 -0.0638373 0.997913 
0.0107498 -0.0597239 0.998162 
0.0122745 -0.0510507 0.998623 
0.0132057 -0.0403008 0.999104 
0.0142859 -0.0297422 0.999459 
0.0152515 -0.020783 0.999671 
0.0151128 -0.013785 0.999794 
0.0154659 -0.00859964 0.999847 
0.0159465 -0.00472483 0.999865 
0.0150954 -0.00176803 0.999888 
0.0149803 0.000299785 0.999891 
0.0147285 0.00178185 0.999893 
0.0147169 0.00283468 0.999891 
0.0142901 0.00365761 0.999894 
0.0136997 0.00439766 0.9999 
0.014118 0.00507414 0.999891 
0.0140524 0.0058498 0.999887 
0.0141401 0.00686839 0.99988 
0.0145126 0.00820974 0.999864 
0.0151495 0.0101143 0.999837 
0.0155267 0.0127763 0.999801 
0.0154143 0.0162673 0.999752 
0.0162579 0.0210597 0.99965 
0.0170467 0.0272886 0.999484 
0.015608 0.0360679 0.999232 
0.0158556 0.0488253 0.998685 
0.0130502 0.0659164 0.997744 
0.0109903 0.0926223 0.995647 
0.00760905 0.137319 0.990505 
0.00437936 0.209463 0.977811 
0.000633518 0.318453 0.947954 
-0.00189926 0.476348 0.879261 
-0.00294962 0.624276 0.78121 
-0.000347294 0.812676 0.582722 
0.00264394 0.995639 0.0934496 
0.00658132 0.992424 0.122689 
0.00601625 0.993779 0.111238 
0.00552791 0.997117 0.075815 
0.00448997 0.99906 0.0432941 
0.00302657 0.999835 -0.0182076 
-0.00255972 0.84999 -0.526794 
0.0022773 0.665796 -0.746138 
0.00245829 0.541852 -0.840476 
0.00273515 0.440249 -0.897881 
0.000311717 0.325124 -0.945684 
-0.00485462 0.207833 -0.97816 
-0.00836959 0.143257 -0.989656 
-0.0106676 0.0980508 -0.995129 
-0.0141925 0.0707747 -0.997394 
-0.0150013 0.0515776 -0.998561 
-0.015662 0.0382874 -0.999147 
-0.0161972 0.0289297 -0.999453 
-0.0162578 0.0222233 -0.999624 
-0.0157988 0.0171915 -0.99973 
-0.0153216 0.0134522 -0.999795 
-0.0147297 0.0106773 -0.999838 
-0.0149983 0.00873015 -0.999852 
-0.0140174 0.00720381 -0.999881 
-0.0146388 0.00616006 -0.999876 
-0.0138207 0.00526169 -0.999894 
-0.0144043 0.00456128 -0.999889 
-0.0139349 0.00388416 -0.999899 
-0.0144106 0.00300282 -0.999895 
-0.0142337 0.00197758 -0.9999 
-0.0146082 0.000436362 -0.999896 
-0.0145562 -0.001698 -0.999895 
-0.014475 -0.00457607 -0.99989 
-0.0161564 -0.00862277 -0.999836 
-0.0155323 -0.0142724 -0.999781 
-0.013928 -0.0214209 -0.999677 
-0.0150141 -0.0295827 -0.999453 
-0.0128056 -0.0400058 -0.999121 
-0.0131545 -0.0502204 -0.998655 
-0.0104628 -0.0597214 -0.998164 
-0.00828144 -0.0645848 -0.997881 
-0.00669436 -0.0524652 -0.998603 
0.000594583 -0.0122145 -0.999929 
-0.000506232 -0.0121772 0.999931 
0.00520581 -0.0535902 0.998552 