# vtk DataFile Version 3.0 
Exported using Morpho https://github.com/Morpho-lang/morpho 
ASCII 
DATASET UNSTRUCTURED_GRID 

POINTS 1978 float 
-12 -4 -2.6288e-10 
-11.5977 -4 1.0933e-08 
-11.3008 -4 1.33415e-08 
-10.9629 -4 1.08182e-08 
-10.6537 -4 8.08328e-09 
-10.2989 -4 5.68448e-09 
-9.97572 -4 3.46317e-09 
-9.67022 -4 2.11746e-09 
-9.33593 -4 1.34146e-09 
-9.01298 -4 9.2391e-10 
-8.68175 -4 8.27848e-10 
-8.34568 -4 7.76774e-10 
-8.03229 -4 6.18251e-10 
-7.74925 -4 3.12404e-10 
-7.48341 -4 -8.75577e-11 
-7.19794 -4 -5.79947e-10 
-6.90162 -4 -1.03528e-09 
-6.60235 -4 -1.33681e-09 
-6.29949 -4 -1.60695e-09 
-5.98696 -4 -1.92494e-09 
-5.6809 -4 -2.42949e-09 
-5.37467 -4 -3.15892e-09 
-5.07507 -4 -4.07077e-09 
-4.78205 -4 -5.44761e-09 
-4.45508 -4 -6.77444e-09 
-4.15091 -4 -8.55814e-09 
-3.82393 -4 -1.08011e-08 
-3.50696 -4 -1.30182e-08 
-3.19484 -4 -1.56968e-08 
-2.90335 -4 -1.79231e-08 
-2.6185 -4 -2.01656e-08 
-2.34114 -4 -2.29238e-08 
-2.07013 -4 -2.53855e-08 
-1.79289 -4 -2.58545e-08 
-1.51 -4 -2.39425e-08 
-1.21581 -4 -1.93e-08 
-0.923182 -4 -2.00744e-08 
-0.598624 -4 -3.29679e-09 
-0.326616 -4 -2.42995e-08 
0.0209111 -4 2.4261e-08 
0.32075 -4 8.72203e-09 
0.610425 -4 8.80672e-09 
0.906795 -4 1.71987e-08 
1.18405 -4 1.35861e-08 
1.45421 -4 2.24737e-08 
1.72829 -4 2.71387e-08 
2.00951 -4 2.839e-08 
2.30067 -4 2.85553e-08 
2.62663 -4 2.43135e-08 
2.93064 -4 2.02922e-08 
3.26504 -4 1.54744e-08 
3.55426 -4 1.22288e-08 
3.85766 -4 1.01779e-08 
4.17443 -4 8.07643e-09 
4.47529 -4 6.39426e-09 
4.77475 -4 5.2397e-09 
5.08952 -4 4.21535e-09 
5.39878 -4 3.33615e-09 
5.71222 -4 2.54932e-09 
6.0048 -4 1.9696e-09 
6.30079 -4 1.56052e-09 
6.59632 -4 1.21329e-09 
6.89896 -4 8.54877e-10 
7.17386 -4 5.89468e-10 
7.48132 -4 3.26475e-10 
7.77701 -4 -6.16506e-12 
8.07323 -4 -3.276e-10 
8.36056 -4 -7.05127e-10 
8.64884 -4 -1.03034e-09 
8.92469 -4 -1.43059e-09 
9.2774 -4 -1.93367e-09 
9.61202 -4 -2.51783e-09 
9.8997 -4 -3.91793e-09 
10.2752 -4 -5.82123e-09 
10.5964 -4 -8.91725e-09 
10.9948 -4 -1.14532e-08 
11.3065 -4 -1.35093e-08 
11.5968 -4 -1.05351e-08 
12 -4 1.52652e-10 
-12 -3.6226 4.07885e-09 
-11.7025 -3.71566 -6.21313e-10 
-11.3513 -3.61654 -5.15797e-10 
-11.0448 -3.66688 -5.75734e-10 
-10.7167 -3.64389 -4.48832e-10 
-10.3935 -3.68617 -4.10587e-10 
-10.0531 -3.6584 -2.79238e-10 
-9.73321 -3.64541 -1.88991e-10 
-9.40867 -3.67299 -1.41415e-10 
-9.07646 -3.65968 -8.96842e-11 
-8.75416 -3.66325 -5.62514e-11 
-8.42515 -3.67825 -3.4852e-11 
-8.09589 -3.66513 -1.71592e-11 
-7.78326 -3.6418 -7.55124e-13 
-7.4952 -3.63014 1.24945e-11 
-7.21022 -3.65782 2.60544e-11 
-6.90359 -3.66159 4.0957e-11 
-6.59468 -3.66112 6.37948e-11 
-6.27826 -3.66833 8.68274e-11 
-5.96626 -3.66052 1.09192e-10 
-5.65578 -3.65941 1.379e-10 
-5.35174 -3.65191 1.69948e-10 
-5.0576 -3.64507 2.0558e-10 
-4.73747 -3.68162 2.98971e-10 
-4.44018 -3.65605 3.34519e-10 
-4.14059 -3.66097 4.32008e-10 
-3.84246 -3.68852 5.76676e-10 
-3.5261 -3.6807 7.41445e-10 
-3.2205 -3.68367 9.54327e-10 
-2.90999 -3.66709 1.06003e-09 
-2.6228 -3.66224 1.36031e-09 
-2.34151 -3.6689 1.14324e-09 
-2.05494 -3.67833 2.22666e-09 
-1.76699 -3.68665 1.99719e-09 
-1.47368 -3.67424 1.19611e-09 
-1.17337 -3.66642 1.22112e-09 
-0.847734 -3.67241 2.88604e-10 
-0.568709 -3.59062 -2.79141e-10 
-0.247813 -3.67377 -5.52659e-10 
0.0407238 -3.56859 -1.36655e-09 
0.312252 -3.59226 1.38432e-09 
0.604874 -3.61716 1.2013e-10 
0.897006 -3.6512 7.3074e-10 
1.19484 -3.65086 -1.75995e-09 
1.48593 -3.66701 -1.32327e-09 
1.78276 -3.68037 -1.97469e-09 
2.07915 -3.68752 -1.74142e-09 
2.40153 -3.72372 -1.8726e-09 
2.71747 -3.69062 -1.2987e-09 
3.03594 -3.71046 -1.17395e-09 
3.33471 -3.65515 -7.83394e-10 
3.62979 -3.66555 -6.53633e-10 
3.93827 -3.67639 -5.34282e-10 
4.23819 -3.65573 -3.99237e-10 
4.53473 -3.65155 -3.15041e-10 
4.84347 -3.66706 -2.61823e-10 
5.15361 -3.66228 -2.06511e-10 
5.46711 -3.66705 -1.64496e-10 
5.7679 -3.64618 -1.23318e-10 
6.06598 -3.65309 -1.00336e-10 
6.36328 -3.65275 -7.31653e-11 
6.6669 -3.6598 -6.67267e-11 
6.95205 -3.63127 -3.8169e-11 
7.25325 -3.66427 -3.01371e-11 
7.5535 -3.65383 -1.38199e-11 
7.85531 -3.65672 4.4739e-12 
8.15105 -3.64543 2.07523e-11 
8.43973 -3.64489 3.95658e-11 
8.7235 -3.62187 5.66995e-11 
9.04591 -3.70013 1.08052e-10 
9.3831 -3.67622 1.47928e-10 
9.68554 -3.61923 1.86806e-10 
10.0211 -3.70586 3.24631e-10 
10.3523 -3.65398 3.6945e-10 
10.7239 -3.72038 5.81778e-10 
11.0494 -3.63855 5.21761e-10 
11.3497 -3.6085 5.07311e-10 
11.7061 -3.71693 6.17184e-10 
12 -3.6067 -4.44498e-09 
-12 -3.3238 3.59251e-09 
-11.6234 -3.36672 -1.41217e-10 
-11.2726 -3.26825 -8.10013e-11 
-10.9624 -3.32048 -1.5501e-10 
-10.6477 -3.28786 -1.44462e-10 
-10.3499 -3.35406 -1.63157e-10 
-10.0312 -3.31289 -1.32764e-10 
-9.71172 -3.30208 -1.06341e-10 
-9.39739 -3.34335 -8.60489e-11 
-9.08429 -3.3174 -4.78813e-11 
-8.77595 -3.31363 -3.58323e-11 
-8.46757 -3.34181 -2.23143e-11 
-8.15685 -3.33361 -6.79814e-12 
-7.85267 -3.31211 3.31297e-12 
-7.55075 -3.27818 5.67699e-12 
-7.25516 -3.30503 8.64374e-12 
-6.95931 -3.33346 1.54806e-11 
-6.65127 -3.32798 2.49833e-11 
-6.33926 -3.33682 3.47155e-11 
-6.02901 -3.32722 4.46407e-11 
-5.71765 -3.32291 5.62906e-11 
-5.41011 -3.31156 6.77687e-11 
-5.10744 -3.29428 7.95309e-11 
-4.80656 -3.35248 1.13602e-10 
-4.50354 -3.31564 1.37549e-10 
-4.2056 -3.32535 1.80859e-10 
-3.90227 -3.352 2.44543e-10 
-3.60432 -3.36863 3.32732e-10 
-3.28882 -3.36016 4.26173e-10 
-2.98137 -3.35829 5.88832e-10 
-2.66776 -3.32056 6.27835e-10 
-2.37816 -3.33246 6.82614e-10 
-2.07895 -3.36643 9.08206e-10 
-1.7726 -3.36848 8.16549e-10 
-1.46238 -3.34266 8.03621e-10 
-1.12654 -3.35084 3.59816e-10 
-0.842015 -3.26526 -1.8399e-10 
-0.557085 -3.17588 -1.72876e-10 
-0.275352 -3.29367 -1.69302e-09 
0.0198918 -3.1381 1.95127e-09 
0.293811 -3.12366 6.03629e-10 
0.569041 -3.21482 5.59895e-10 
0.86889 -3.27752 -9.24757e-11 
1.17237 -3.30469 8.0598e-11 
1.47213 -3.32714 -1.09125e-09 
1.76991 -3.35958 -5.68708e-10 
2.07275 -3.36932 -9.54726e-10 
2.37366 -3.43208 -9.35428e-10 
2.66966 -3.37402 -6.86729e-10 
2.97621 -3.4 -6.04022e-10 
3.27432 -3.33528 -4.05961e-10 
3.58109 -3.32633 -3.14524e-10 
3.87835 -3.34713 -2.53457e-10 
4.17819 -3.32127 -1.83108e-10 
4.47807 -3.30759 -1.37436e-10 
4.77821 -3.32924 -1.14584e-10 
5.08275 -3.32906 -9.12254e-11 
5.39384 -3.33487 -7.19344e-11 
5.70099 -3.30993 -5.28625e-11 
6.01138 -3.30803 -4.27712e-11 
6.31005 -3.30799 -3.49513e-11 
6.61149 -3.32187 -2.56967e-11 
6.91065 -3.28047 -1.75172e-11 
7.21092 -3.32217 -1.05802e-11 
7.51494 -3.31358 -4.79422e-12 
7.81885 -3.32065 1.8396e-12 
8.12539 -3.30248 8.7188e-12 
8.42625 -3.28547 1.66187e-11 
8.74607 -3.29729 3.07143e-11 
9.06727 -3.37982 5.68905e-11 
9.37903 -3.32717 8.12746e-11 
9.69774 -3.27603 1.03575e-10 
10.0104 -3.37651 1.47309e-10 
10.3078 -3.29433 1.41725e-10 
10.6271 -3.40534 2.10787e-10 
10.954 -3.31711 1.63822e-10 
11.2823 -3.24278 7.1492e-11 
11.6204 -3.36637 1.44566e-10 
12 -3.30267 -4.05437e-09 
-12 -3.00859 2.76274e-09 
-11.645 -3.05649 -2.8816e-11 
-11.2961 -2.95197 4.74477e-11 
-10.947 -2.96637 -1.72369e-11 
-10.6136 -2.95964 -3.33533e-11 
-10.2856 -3.00186 -5.51917e-11 
-9.96114 -2.97333 -5.49352e-11 
-9.63664 -2.97071 -6.96664e-11 
-9.33548 -3.00128 -3.97902e-11 
-9.02979 -2.9707 -2.95794e-11 
-8.73138 -2.95933 -1.64967e-11 
-8.43769 -3.00026 -1.22749e-11 
-8.13359 -2.9892 -7.95192e-12 
-7.8366 -2.9703 -1.75705e-12 
-7.53171 -2.94795 1.91058e-12 
-7.22937 -2.97036 4.55638e-12 
-6.93102 -3.00221 8.93983e-12 
-6.61999 -3.002 1.07615e-11 
-6.31504 -3.00313 1.50819e-11 
-6.00652 -2.99529 2.13305e-11 
-5.7002 -2.98731 2.74132e-11 
-5.39476 -2.97454 3.35849e-11 
-5.09002 -2.96158 4.08236e-11 
-4.79074 -3.01805 6.14528e-11 
-4.48871 -2.9828 6.83841e-11 
-4.19408 -2.99383 9.15871e-11 
-3.90114 -3.03097 1.57551e-10 
-3.59697 -3.03925 1.81083e-10 
-3.29846 -3.04732 2.54914e-10 
-2.9785 -3.03882 2.78065e-10 
-2.68329 -2.97761 3.83737e-10 
-2.37775 -2.98261 4.03227e-10 
-2.08411 -3.04842 4.22165e-10 
-1.77144 -3.04762 2.46849e-10 
-1.43321 -3.02004 7.98548e-11 
-1.14522 -2.96245 -5.38289e-10 
-0.864632 -2.83915 -5.16711e-10 
-0.556114 -2.7892 -1.28389e-09 
-0.232908 -2.87122 1.58788e-09 
0.0116092 -2.61936 -3.12185e-09 
0.276174 -2.62344 1.47949e-09 
0.549224 -2.76988 2.80742e-10 
0.84125 -2.884 1.92702e-10 
1.15198 -2.93974 -2.13679e-10 
1.46511 -2.96512 -1.51272e-10 
1.76495 -3.01927 -6.84488e-10 
2.06905 -3.03442 -3.08787e-10 
2.36728 -3.11026 -4.86459e-10 
2.6736 -3.0434 -4.25023e-10 
2.96876 -3.07721 -2.98688e-10 
3.2682 -3.0048 -2.42904e-10 
3.56882 -3.00513 -1.78719e-10 
3.87733 -3.01416 -1.38764e-10 
4.17419 -2.98842 -1.00834e-10 
4.47374 -2.97679 -7.25216e-11 
4.77346 -2.99319 -5.6349e-11 
5.07201 -2.99469 -4.36994e-11 
5.37403 -3.00426 -3.47564e-11 
5.67938 -2.97896 -2.58278e-11 
5.98556 -2.98117 -1.9908e-11 
6.29717 -2.96522 -1.55736e-11 
6.59344 -2.98351 -1.24564e-11 
6.9145 -2.96375 -6.40545e-12 
7.2314 -2.98634 -4.85034e-12 
7.53027 -2.97561 -1.43848e-12 
7.83491 -2.98852 1.84701e-12 
8.13285 -2.96232 6.31254e-12 
8.43479 -2.94975 1.16817e-11 
8.73871 -2.96896 1.91465e-11 
9.05473 -3.04675 3.60782e-11 
9.37181 -2.99631 5.01255e-11 
9.66489 -2.92479 5.55895e-11 
9.98117 -3.02098 6.90282e-11 
10.3106 -2.96446 4.99091e-11 
10.6415 -3.06518 6.90334e-11 
10.973 -2.9753 1.57788e-11 
11.3299 -2.9248 -5.50554e-11 
11.6654 -3.05231 3.92819e-11 
12 -2.96244 -3.90162e-09 
-12 -2.69159 4.07159e-09 
-11.6457 -2.73489 3.16694e-11 
-11.3106 -2.62433 8.84349e-11 
-10.9702 -2.6458 2.73402e-11 
-10.6317 -2.63286 -6.14145e-12 
-10.3004 -2.67111 -1.93801e-11 
-9.96958 -2.65221 -4.23331e-11 
-9.64104 -2.64549 -4.40739e-11 
-9.31423 -2.65933 -3.64004e-11 
-9.00282 -2.62751 -2.80604e-11 
-8.68653 -2.62406 -1.16869e-11 
-8.37721 -2.66396 -3.99578e-12 
-8.0727 -2.64535 -2.68921e-12 
-7.76124 -2.64321 -1.46644e-13 
-7.44068 -2.62909 -5.44452e-13 
-7.13614 -2.65028 1.41642e-12 
-6.83522 -2.68262 4.69241e-12 
-6.52827 -2.67152 5.70676e-12 
-6.22431 -2.67193 9.35565e-12 
-5.91972 -2.66223 1.31125e-11 
[...]
POINT_DATA 1978 
VECTORS vectors float
0.00134934 -0.00388749 0.999992 
0.00245978 -0.0652276 0.997866 
0.00148862 -0.064945 0.997887 
0.00181211 -0.0529347 0.998596 
0.00172929 -0.0400387 0.999196 
0.00178674 -0.0260477 0.999658 
0.00179245 -0.0164612 0.999862 
0.0018179 -0.0102546 0.999945 
0.00185159 -0.00610685 0.999979 
0.00182357 -0.00413179 0.999989 
0.00182922 -0.00332731 0.999992 
0.0018562 -0.00288208 0.999993 
0.00188331 -0.00221227 0.999995 
0.00190662 -0.00104341 0.999997 
0.00188381 0.000473419 0.999998 
0.00189739 0.00235513 0.999995 
0.00187692 0.00410193 0.999989 
0.0018521 0.00534046 0.999984 
0.00186818 0.00646181 0.999977 
0.00184213 0.00794396 0.999966 
0.001854 0.0101407 0.999946 
0.0018541 0.0132994 0.999909 
0.00183609 0.0172181 0.99985 
0.00185876 0.0216448 0.999763 
0.0018208 0.0276613 0.999615 
0.00179451 0.0345925 0.999399 
0.00180456 0.0439687 0.999031 
0.00177561 0.0562449 0.998415 
0.00174581 0.0739968 0.997257 
0.00170465 0.0973133 0.995252 
0.00164335 0.12847 0.991712 
0.00152661 0.172204 0.98506 
0.00141813 0.226833 0.973932 
0.00123439 0.300095 0.953908 
0.000990577 0.396484 0.918041 
0.000712737 0.522483 0.85265 
0.000437507 0.666165 0.745804 
0.000138618 0.831196 0.55598 
6.57367e-05 0.943623 0.331021 
7.43814e-06 0.999842 -0.0177688 
4.98278e-06 0.946033 -0.324071 
-0.000145796 0.826387 -0.563103 
-0.00042116 0.674703 -0.738089 
-0.000687064 0.536724 -0.843757 
-0.000972187 0.417913 -0.908486 
-0.00119822 0.319011 -0.94775 
-0.00136157 0.240397 -0.970674 
-0.00152857 0.178915 -0.983863 
-0.00158044 0.129347 -0.991598 
-0.00170247 0.0963442 -0.995346 
-0.00173462 0.071078 -0.997469 
-0.00178201 0.055508 -0.998456 
-0.00181657 0.043595 -0.999047 
-0.0018178 0.0341777 -0.999414 
-0.00182521 0.0272363 -0.999627 
-0.00184389 0.0217713 -0.999761 
-0.00182971 0.0171501 -0.999851 
-0.00184709 0.0135201 -0.999906 
-0.00184915 0.0105346 -0.999942 
-0.00186762 0.00830253 -0.999963 
-0.00187004 0.00651802 -0.999977 
-0.0018884 0.00497468 -0.999985 
-0.0018564 0.00360486 -0.999991 
-0.00189782 0.00252972 -0.999995 
-0.00185957 0.00128061 -0.999997 
-0.00187691 -2.07391e-05 -0.999998 
-0.00187649 -0.00141244 -0.999997 
-0.0019105 -0.00291506 -0.999994 
-0.00184952 -0.00434805 -0.999988 
-0.0018795 -0.00563551 -0.999982 
-0.00183055 -0.00793738 -0.999966 
-0.00179277 -0.0116287 -0.99993 
-0.00187381 -0.0164356 -0.999862 
-0.00175411 -0.0262398 -0.999653 
-0.00179523 -0.0376924 -0.999286 
-0.00180361 -0.0545253 -0.99851 
-0.00148435 -0.0650349 -0.997881 
-0.0024898 -0.0649294 -0.997886 
-0.00138761 -0.00369795 -0.999992 
-0.00168041 -0.00117026 0.999999 
0.0253973 -0.0503009 0.998411 
0.0328661 -0.058554 0.997743 
0.0329808 -0.0530416 0.998048 
0.0348943 -0.0414811 0.99853 
0.0348881 -0.0302825 0.998932 
0.0372752 -0.0200524 0.999104 
0.0390969 -0.0129231 0.999152 
0.0389489 -0.00803474 0.999209 
0.040082 -0.00517675 0.999183 
0.0399868 -0.00365878 0.999194 
0.04015 -0.00278208 0.99919 
0.0410934 -0.00192166 0.999153 
0.0426992 -0.000724641 0.999088 
0.0436172 0.000728402 0.999048 
0.0419244 0.00226644 0.999118 
0.0412274 0.00380557 0.999143 
0.0415512 0.00511063 0.999123 
0.0410776 0.00640519 0.999135 
0.0413839 0.00800713 0.999111 
0.0412943 0.0102426 0.999095 
0.0416507 0.013207 0.999045 
0.0419158 0.0168153 0.99898 
0.0401689 0.0217596 0.998956 
0.0418306 0.027145 0.998756 
0.0409591 0.0340281 0.998581 
0.0390191 0.042967 0.998314 
0.0389182 0.05551 0.997699 
0.0370449 0.0726539 0.996669 
0.035632 0.0973842 0.994609 
0.033278 0.129462 0.991026 
0.0298587 0.173025 0.984464 
0.0259194 0.233499 0.972012 
0.021475 0.313455 0.94936 
0.0166087 0.415675 0.909361 
0.0117491 0.542561 0.839934 
0.00666106 0.702591 0.711562 
0.00344151 0.842844 0.538147 
0.00119896 0.963918 0.266197 
-0.000757319 0.999685 -0.0250746 
-0.00234996 0.952383 -0.304896 
-0.00492244 0.834803 -0.550527 
-0.00821948 0.685342 -0.728174 
-0.0133093 0.531525 -0.846938 
-0.018141 0.404222 -0.914481 
-0.0227384 0.30291 -0.952748 
-0.0268567 0.224888 -0.974014 
-0.0297248 0.163328 -0.986124 
-0.0334168 0.118815 -0.992354 
-0.0351277 0.0881139 -0.995491 
-0.0388149 0.0665957 -0.997025 
-0.0394354 0.0517371 -0.997882 
-0.0396713 0.0402357 -0.998402 
-0.0411028 0.0316586 -0.998653 
-0.0414251 0.0251427 -0.998825 
-0.0406893 0.0198968 -0.998974 
-0.0411374 0.0156999 -0.99903 
-0.0409807 0.0123401 -0.999084 
-0.0422268 0.00971522 -0.999061 
-0.0420094 0.00766851 -0.999088 
-0.0421078 0.00598964 -0.999095 
-0.0419175 0.004566 -0.999111 
-0.0436436 0.00337386 -0.999041 
-0.0416636 0.00220661 -0.999129 
-0.0423995 0.0010196 -0.9991 
-0.0423374 -0.00023608 -0.999103 
-0.0428265 -0.00159294 -0.999081 
-0.0427528 -0.00305591 -0.999081 
-0.0431822 -0.00454146 -0.999057 
-0.0387909 -0.00652537 -0.999226 
-0.0390325 -0.00952547 -0.999193 
-0.0405705 -0.0137528 -0.999082 
-0.0355613 -0.0201506 -0.999164 
-0.0360766 -0.0293838 -0.998917 
-0.0321243 -0.0421371 -0.998595 
-0.0341614 -0.0529273 -0.998014 
-0.0332266 -0.058193 -0.997752 
-0.0252706 -0.0499208 -0.998433 
0.00185535 -0.00122742 -0.999999 
-0.00144339 -0.00232611 0.999997 
0.0300473 -0.0511769 0.998237 
0.0353013 -0.0561312 0.997799 
0.038298 -0.0499443 0.998017 
0.0403651 -0.0401579 0.998378 
0.042342 -0.0302124 0.998646 
0.0443856 -0.0212109 0.998789 
0.0463162 -0.0140631 0.998828 
0.047233 -0.00889167 0.998844 
0.0485818 -0.00576743 0.998803 
0.049393 -0.00399473 0.998771 
0.0499949 -0.00275554 0.998746 
0.050132 -0.00166974 0.998741 
0.0502046 -0.000522464 0.998739 
0.0500581 0.000836766 0.998746 
0.0502612 0.00215678 0.998734 
0.0503357 0.00345152 0.998726 
0.0501207 0.00467872 0.998732 
0.049837 0.00595017 0.99874 
0.0496915 0.00744862 0.998737 
0.0495305 0.00943355 0.998728 
0.0494686 0.0120417 0.998703 
0.049397 0.0152958 0.998662 
0.0495454 0.0196437 0.998579 
0.0495848 0.0245943 0.998467 
0.0490312 0.0309686 0.998317 
0.0485568 0.039727 0.99803 
0.0471946 0.0510544 0.99758 
0.0453287 0.0678025 0.996669 
0.0425957 0.090907 0.994948 
0.0384387 0.1238 0.991562 
0.0344411 0.168161 0.985158 
0.0300307 0.229073 0.972945 
0.024212 0.309877 0.950469 
0.0179841 0.419201 0.907715 
0.0115024 0.564736 0.825191 
0.00616198 0.710823 0.703343 
0.00200719 0.852814 0.522211 
0.000471149 0.957167 0.289535 
-0.00196511 0.999957 -0.00903549 
-0.00396966 0.956126 -0.292929 
-0.00672821 0.846424 -0.532466 
-0.0102013 0.700209 -0.713865 
-0.0147733 0.54865 -0.835922 
-0.0202249 0.414454 -0.909845 
-0.0259009 0.30797 -0.951043 
-0.0312491 0.228843 -0.972962 
-0.0361049 0.168208 -0.98509 
-0.0399894 0.124605 -0.9914 
-0.0429264 0.0922169 -0.994813 
-0.0453736 0.069834 -0.996526 
-0.047067 0.0531167 -0.997478 
-0.0482949 0.041375 -0.997976 
-0.0488962 0.0321802 -0.998285 
-0.049107 0.02521 -0.998475 
-0.0494024 0.0200481 -0.998578 
-0.0496117 0.0158679 -0.998643 
-0.0497442 0.012553 -0.998683 
-0.0495587 0.00982791 -0.998723 
-0.0497838 0.00774462 -0.99873 
-0.0499242 0.00613046 -0.998734 
-0.0500404 0.00477532 -0.998736 
-0.0501538 0.00360774 -0.998735 
-0.0504341 0.00249666 -0.998724 
-0.0505004 0.00136376 -0.998723 
-0.050505 0.000142109 -0.998724 
-0.0503323 -0.00121854 -0.998732 
-0.0498039 -0.00273149 -0.998755 
-0.0499996 -0.00465611 -0.998738 
-0.0487699 -0.0069363 -0.998786 
-0.0479309 -0.0101538 -0.998799 
-0.0465482 -0.0150912 -0.998802 
-0.044609 -0.0212912 -0.998778 
-0.0429814 -0.0298113 -0.998631 
-0.0408383 -0.0392354 -0.998395 
-0.0387031 -0.0494153 -0.998028 
-0.0352879 -0.0559107 -0.997812 
-0.0304887 -0.0510082 -0.998233 
0.00159833 -0.00222893 -0.999997 
-0.000800682 -0.00201266 0.999998 
0.0257106 -0.049703 0.998433 
0.0301896 -0.0569632 0.99792 
0.0335746 -0.0502388 0.998173 
0.036592 -0.0411125 0.998484 
0.0395752 -0.0305809 0.998749 
0.0411997 -0.0214712 0.99892 
0.0431862 -0.0141041 0.998967 
0.0452227 -0.00917029 0.998935 
0.0455931 -0.00605506 0.998942 
0.0459376 -0.00394981 0.998936 
0.0473202 -0.00248246 0.998877 
0.0471527 -0.00119644 0.998887 
0.0470061 2.19208e-05 0.998895 
0.0465151 0.00129303 0.998917 
0.0467535 0.0024606 0.998903 
0.0472513 0.00356824 0.998877 
0.0470026 0.0047495 0.998883 
0.0467612 0.00595524 0.998888 
0.0465877 0.00740606 0.998887 
0.0464503 0.00928254 0.998877 
0.0463336 0.0117486 0.998857 
0.0463166 0.0149334 0.998815 
0.046988 0.0188841 0.998717 
0.0463724 0.0239789 0.998636 
0.0463804 0.0305659 0.998456 
0.0462133 0.0389029 0.998174 
0.0449218 0.0508035 0.997698 
0.0427856 0.0668118 0.996847 
0.0393331 0.0909426 0.995079 
0.034767 0.123738 0.991706 
0.0299606 0.169897 0.985006 
0.0261432 0.232503 0.972245 
0.0203605 0.319564 0.947345 
0.0140097 0.441514 0.897145 
0.00857437 0.573055 0.819472 
0.00454103 0.715671 0.698423 
0.00093304 0.864141 0.503249 
-0.00190057 0.970401 0.241492 
-0.0042706 0.999953 -0.00867849 
-0.00462748 0.963125 -0.269013 
-0.00537509 0.859177 -0.51165 
-0.00837301 0.711466 -0.702671 
-0.0126738 0.55871 -0.829266 
-0.0172519 0.420696 -0.907037 
-0.0225714 0.314784 -0.948895 
-0.0279074 0.230255 -0.97273 
-0.0336547 0.170216 -0.984832 
-0.0368759 0.125171 -0.99145 
-0.0403676 0.0932165 -0.994827 
-0.042096 0.0699677 -0.996661 
-0.043908 0.0528343 -0.997638 
-0.0453517 0.0401835 -0.998163 
-0.0460183 0.0312779 -0.998451 
-0.0464318 0.0245838 -0.998619 
-0.0467713 0.0193946 -0.998717 
-0.0467734 0.0153421 -0.998788 
-0.0467151 0.0121422 -0.998834 
-0.0465589 0.00966743 -0.998869 
-0.0464303 0.00767681 -0.998892 
-0.0462207 0.00607353 -0.998913 
-0.0464412 0.00483521 -0.998909 
-0.0464449 0.00371235 -0.998914 
-0.0468051 0.00260587 -0.998901 
-0.0470439 0.00154804 -0.998892 
-0.0474567 0.000331345 -0.998873 
-0.0470668 -0.000998771 -0.998891 
-0.0467619 -0.00260731 -0.998903 
-0.0464055 -0.00457012 -0.998912 
-0.0470361 -0.00711674 -0.998868 
-0.0450545 -0.010748 -0.998927 
-0.0424507 -0.0157563 -0.998974 
-0.0421421 -0.0224284 -0.99886 
-0.0390599 -0.0318771 -0.998728 
-0.038258 -0.0411234 -0.998421 
-0.0339954 -0.0508316 -0.998128 
-0.0296345 -0.0568858 -0.997941 
-0.0253331 -0.0482512 -0.998514 
0.00127196 -0.00188134 -0.999998 
-0.00109251 -0.00212133 0.999994 
0.0202332 -0.0501637 0.998536 
0.0240615 -0.0593362 0.997948 
0.0275302 -0.0529775 0.998216 
0.0301316 -0.0436473 0.998593 
0.0331752 -0.0330144 0.998904 
0.0351816 -0.0234358 0.999106 
0.0367678 -0.0156685 0.999201 
0.0382197 -0.0100732 0.999219 
0.0384233 -0.00653352 0.99924 
0.039014 -0.00392077 0.999231 
0.03969 -0.00198713 0.99921 
0.0397029 -0.000491253 0.999211 
0.03966 0.000793808 0.999213 
0.0390509 0.00203624 0.999235 
0.0396047 0.00308329 0.999211 
0.0403251 0.00406403 0.999178 
0.0395648 0.0051243 0.999204 
0.0394497 0.00628843 0.999202 
0.0393299 0.00773784 0.999196 
0.0393323 0.00964329 0.99918 
0.0392741 0.0121221 0.999155 
0.0394737 0.0154191 0.999102 
0.0405813 0.0193823 0.998988 
0.0396414 0.0247226 0.998908 
0.0396453 0.0317071 0.998711 
0.0397915 0.0407024 0.998379 
0.0379495 0.0531801 0.997864 
0.0360512 0.0714285 0.996794 
0.0320195 0.0950066 0.994962 
0.0269418 0.13321 0.990722 
0.0223284 0.183408 0.982783 
0.0193002 0.246848 0.968862 
0.0140461 0.348496 0.937205 
0.00828699 0.467302 0.884059 
0.00456746 0.602524 0.798088 
0.00252624 0.766927 0.641729 
3.67017e-06 0.892417 0.451212 
-0.000298705 0.944606 0.328207 
-0.00131532 0.997476 0.0709905 
-0.00360791 0.966204 -0.257754 
-0.00468425 0.855874 -0.517163 
-0.00578338 0.71886 -0.695131 
-0.0091792 0.55904 -0.82909 
-0.0128277 0.416281 -0.909146 
-0.0175061 0.303413 -0.952698 
-0.0223589 0.227118 -0.97361 
-0.0283101 0.164731 -0.985932 
-0.0301914 0.121877 -0.992086 
-0.0341736 0.0898924 -0.995365 
-0.0356127 0.0660034 -0.997184 
-0.0379319 0.0491574 -0.99807 
-0.0391221 0.0375988 -0.998527 
-0.0394908 0.0289071 -0.998802 
-0.0396422 0.022469 -0.998961 
-0.0399964 0.0177223 -0.999043 
-0.0398857 0.0140217 -0.999106 
-0.0398424 0.0111723 -0.999144 
-0.039213 0.00890431 -0.999191 
-0.0392644 0.00715892 -0.999203 
-0.038495 0.00582727 -0.999242 
-0.0395787 0.00469319 -0.999205 
-0.0392254 0.00366835 -0.999224 
-0.0394295 0.00273868 -0.999219 
-0.0396656 0.00169963 -0.999212 
-0.039965 0.000528474 -0.999201 
-0.039557 -0.000866986 -0.999217 
-0.0394527 -0.00264442 -0.999218 
-0.0392324 -0.00481723 -0.999218 
-0.0407 -0.00746003 -0.999144 
-0.0380415 -0.0111968 -0.999213 
-0.0356742 -0.0170593 -0.999218 
-0.0359525 -0.0243434 -0.999057 
-0.0326224 -0.0341227 -0.998885 
-0.0322464 -0.0433345 -0.99854 
-0.0277522 -0.0532473 -0.998196 
-0.0232747 -0.0586128 -0.998009 
-0.0196281 -0.0488602 -0.998613 
0.00079991 -0.00205578 -0.999998 
-0.000842189 -0.00222081 0.999994 
0.0128149 -0.0452369 0.998894 
0.0175602 -0.0599186 0.998049 
0.0204809 -0.0576186 0.998129 
0.0227518 -0.0492615 0.998527 
0.0253744 -0.0388331 0.998923 
0.0274294 -0.0288443 0.999208 
0.0285936 -0.0198707 0.999394 
0.0299212 -0.0130699 0.999467 
0.0301369 -0.00853144 0.999509 
0.0303891 -0.00509331 0.999525 
0.0310008 -0.00256128 0.999516 
0.0307749 -0.000737413 0.999526 
0.0307433 0.000709504 0.999527 
0.0307378 0.00189247 0.999526 
0.0303036 0.00298193 0.999536 
0.0308129 0.00386657 0.999518 
0.0309728 0.00472553 0.999509 
0.0304035 0.00573358 0.999521 
0.0303846 0.00689884 0.999514 
0.0305538 0.00841912 0.999498 
0.0306077 0.0104257 0.999477 
0.0309226 0.0131344 0.999435 
0.0310845 0.016634 0.999378 
0.0321623 0.0208295 0.999266 
0.0314354 0.0269304 0.999143 
0.0313252 0.0348286 0.998902 
0.030921 0.0447806 0.998518 
0.0295287 0.0601675 0.997751 
0.0259801 0.0791685 0.996523 
0.0226139 0.109707 0.993707 
0.0167148 0.155958 0.987622 
0.012898 0.221663 0.975038 
0.0108221 0.296762 0.95489 
0.00598938 0.396338 0.918085 
0.00125556 0.530902 0.847432 
-0.000378979 0.684905 0.728632 
-0.00207877 0.833699 0.552215 
-0.001438 0.996291 0.086034 
0.00231626 0.996921 -0.0783825 
-0.000903328 0.958122 -0.286358 
0.000174047 0.958064 -0.286554 
-0.00298302 0.835777 -0.549061 
-0.00315904 0.622412 -0.782684 
-0.00548919 0.468341 -0.883531 
-0.00960887 0.332274 -0.943134 
-0.0132593 0.239551 -0.970793 
-0.0200725 0.175912 -0.984201 
-0.0211694 0.133092 -0.990878 
-0.0254183 0.0964183 -0.995016 
-0.0276961 0.0719513 -0.997024 
-0.0297098 0.051888 -0.998211 
-0.0307282 0.0390045 -0.998766 
-0.0313676 0.029852 -0.999062 
-0.031373 0.0229492 -0.999244 
-0.0314051 0.0178618 -0.999347 
-0.0312329 0.0141204 -0.999412 
-0.0310909 0.0112705 -0.999453 
-0.0306358 0.0090938 -0.999489 
-0.0304845 0.00737256 -0.999508 
-0.0295582 0.00609847 -0.999544 
-0.0305128 0.00501371 -0.999522 
-0.0308043 0.00411054 -0.999517 
-0.029964 0.0032151 -0.999546 
-0.0306297 0.00226679 -0.999528 
-0.030611 0.00111138 -0.999531 
-0.0304302 -0.000264129 -0.999537 
-0.0304069 -0.00211136 -0.999535 
-0.0299444 -0.00446754 -0.999542 
-0.0318112 -0.00760922 -0.999465 
-0.030076 -0.0121447 -0.999474 
-0.0277963 -0.0183701 -0.999445 
-0.028462 -0.0262826 -0.999249 
-0.0254775 -0.0368985 -0.998994 
-0.0255346 -0.0462311 -0.998604 
-0.0212577 -0.055732 -0.998219 
-0.0171893 -0.0607182 -0.998007 
-0.0145854 -0.050862 -0.998599 
0.000487472 -0.00201506 -0.999998 
-0.000274549 -0.00209383 0.999998 
0.0105016 -0.0523403 0.998574 
0.0141669 -0.0622402 0.997961 
0.0155398 -0.0566245 0.998275 
0.0176315 -0.0471404 0.998733 
0.0191824 -0.0368296 0.999137 
0.020779 -0.0267323 0.999427 
0.0216404 -0.0180151 0.999603 
0.0218759 -0.0119864 0.999689 
0.0223302 -0.00739312 0.999723 
0.0225723 -0.00392215 0.999738 
0.0221863 -0.00152512 0.999753 
0.0220786 0.000300016 0.999756 
0.0219705 0.00165369 0.999757 
0.0221256 0.00270364 0.999752 
0.0213748 0.00361993 0.999765 
0.0214446 0.00438036 0.99976 
0.0218899 0.00518162 0.999747 
0.0213342 0.00613375 0.999754 
0.0216279 0.00731587 0.999739 
0.0219067 0.00889511 0.99972 
0.022323 0.0111025 0.999689 
0.022591 0.0140468 0.999646 
0.0225188 0.0177959 0.999588 
0.0240043 0.0226859 0.999454 
0.0233147 0.029941 0.99928 
0.0224878 0.0390495 0.998984 
0.0227108 0.0522961 0.998373 
0.0190666 0.0693395 0.997411 
0.016653 0.0969325 0.995152 
0.0123399 0.138039 0.99035 
0.00765437 0.214858 0.976615 
0.00419171 0.311943 0.950091 
0.000292723 0.436259 0.899821 
-0.00206736 0.626528 0.779396 
-0.00144802 0.787303 0.616565 
0.00412423 0.935073 0.354431 
0.00292113 0.955328 0.295534 
-0.00127832 0.955526 0.294904 
0.00116912 0.997325 0.0730857 
0.000266642 0.99694 -0.0781527 
-0.00606525 0.955612 -0.294565 
0.00209898 0.870751 -0.491719 
0.000759613 0.718104 -0.695935 
0.00189212 0.525481 -0.850803 
-0.00239397 0.379117 -0.925345 
-0.00527128 0.270577 -0.962684 
-0.0114999 0.182311 -0.983174 
-0.0146448 0.125362 -0.992003 
-0.0177994 0.091877 -0.995611 
-0.021271 0.0651801 -0.997647 
-0.0219846 0.0479454 -0.998608 
-0.0227283 0.0360285 -0.999092 
-0.0233063 0.0274259 -0.999352 
-0.0231601 0.0210546 -0.99951 
-0.0227939 0.0164335 -0.999605 
-0.022462 0.012973 -0.999664 
-0.0221322 0.0104142 -0.999701 
-0.022097 0.00840628 -0.99972 
-0.0213695 0.00698744 -0.999747 
-0.0213975 0.00581806 -0.999754 
-0.0214907 0.00495261 -0.999757 
-0.0220544 0.00413697 -0.999748 
-0.0209437 0.00337329 -0.999775 
-0.0218898 0.00241469 -0.999757 
-0.0214569 0.00130711 -0.999769 
-0.0216754 -0.00022524 -0.999765 
-0.0215592 -0.00223969 -0.999765 
-0.0213997 -0.00493276 -0.999759 
-0.0236707 -0.00810999 -0.999687 
-0.0219995 -0.0127541 -0.999677 
-0.0205064 -0.0197612 -0.999594 
-0.021155 -0.0284039 -0.999373 
-0.0185714 -0.0393053 -0.999055 
-0.0187692 -0.0490322 -0.998621 
-0.0150288 -0.0580927 -0.998198 
-0.0119086 -0.0627009 -0.997961 
-0.0100703 -0.0516905 -0.998612 
0.000393775 -0.00198535 -0.999998 
-0.000327409 -0.00204293 0.999998 
0.00744177 -0.052712 0.998582 
0.0100281 -0.063632 0.997923 
0.0107486 -0.0596057 0.998164 
0.0122736 -0.0509721 0.998625 
0.0132038 -0.0402543 0.999102 
0.0142837 -0.029722 0.999456 
0.0152484 -0.0207767 0.999668 
0.0151098 -0.013786 0.999791 
0.0154637 -0.00860244 0.999843 
0.015945 -0.00472724 0.999862 
0.0150959 -0.00177272 0.999884 
0.0149823 0.000294046 0.999888 
0.0147312 0.00177639 0.99989 
0.0147198 0.00282956 0.999888 
0.0142959 0.00365303 0.999891 
0.0137066 0.00439323 0.999896 
0.0141223 0.00507021 0.999887 
0.0140574 0.00584625 0.999884 
0.0141462 0.00686563 0.999876 
0.0145142 0.00820766 0.999861 
0.0151531 0.0101132 0.999834 
0.0155258 0.012775 0.999798 
0.0154158 0.0162669 0.999749 
0.0162523 0.0210588 0.999646 
0.0170412 0.0272908 0.999482 
0.015604 0.0360685 0.999227 
0.0158484 0.0488274 0.998682 
0.0130478 0.0659154 0.99774 
0.010986 0.0926819 0.995635 
0.00761269 0.137315 0.990498 
0.00436725 0.20955 0.977788 
0.000645574 0.318407 0.947954 
-0.00184936 0.476341 0.879258 
-0.00288442 0.624711 0.78085 
-0.000277067 0.814144 0.580663 
0.00300545 0.99606 0.088614 
0.00654067 0.992315 0.123568 
0.00590673 0.993796 0.111057 
0.00551546 0.997105 0.0758334 
0.00429645 0.999124 0.041625 
0.00302726 0.999829 -0.0182191 
-0.00271722 0.848916 -0.528521 
0.00222335 0.665308 -0.746566 
0.00237975 0.541036 -0.840996 
0.00272472 0.440074 -0.897957 
0.000302972 0.325118 -0.945673 
-0.00485795 0.207778 -0.978164 
-0.00837554 0.143302 -0.989644 
-0.0106546 0.0980607 -0.995123 
-0.014185 0.070794 -0.99739 
-0.0149951 0.0515969 -0.998555 
-0.0156558 0.0382928 -0.999144 
-0.0161932 0.0289288 -0.99945 
-0.0162539 0.0222217 -0.999621 
-0.0157975 0.0171914 -0.999727 
-0.0153216 0.013451 -0.999792 
-0.0147321 0.0106758 -0.999834 
-0.0150012 0.00872816 -0.999849 
-0.0140229 0.00720131 -0.999876 
-0.0146446 0.00615596 -0.999874 
-0.0138236 0.00525693 -0.999891 
-0.0144098 0.00455696 -0.999886 
-0.0139398 0.00387902 -0.999895 
-0.0144164 0.00299683 -0.999892 
-0.014236 0.0019715 -0.999897 
-0.0146096 0.000429765 -0.999893 
-0.0145581 -0.00170283 -0.999893 
-0.0144749 -0.00457983 -0.999885 
-0.0161531 -0.00862339 -0.999832 
-0.0155292 -0.0142691 -0.999778 
-0.0139284 -0.0214123 -0.999674 
-0.0150099 -0.0295655 -0.99945 
-0.0128051 -0.0399638 -0.999119 
-0.0131513 -0.050149 -0.998655 
-0.0104628 -0.059612 -0.998167 
-0.00827788 -0.0643743 -0.997891 
-0.00664979 -0.0520245 -0.998624 
0.000199835 -0.0020611 -0.999998 
-0.000183968 -0.00206245 0.999998 