# vtk DataFile Version 3.0 
Exported using Morpho https://github.com/Morpho-lang/morpho 
ASCII 
DATASET UNSTRUCTURED_GRID 

POINTS 1978 float 
-11.9553 -3.94789 -0.000398435 
-11.5852 -3.95642 -0.00138543 
-11.3066 -3.94834 -0.00222479 
-10.9816 -3.93896 -0.00243175 
-10.6529 -3.92971 -0.00177707 
-10.2929 -3.93005 8.78638e-06 
-9.97215 -3.93177 -0.000760783 
-9.67109 -3.92945 -0.000978788 
-9.34044 -3.92986 2.60404e-05 
-9.0238 -3.92245 4.70643e-06 
-8.68361 -3.91521 -0.000513677 
-8.33136 -3.91726 0.000285213 
-8.00579 -3.93096 0.000833729 
-7.71993 -3.94242 0.000336951 
-7.48005 -3.9508 -0.000206016 
-7.23861 -3.93998 -0.000218075 
-6.93117 -3.92876 -8.4689e-05 
-6.60457 -3.9265 0.000166796 
-6.29924 -3.92905 0.000256073 
-5.98482 -3.92972 0.000322798 
-5.68112 -3.93213 0.000463655 
-5.37396 -3.93273 0.000433012 
-5.07494 -3.93437 0.000321578 
-4.78587 -3.93152 0.000340758 
-4.4446 -3.92935 0.000624662 
-4.1604 -3.932 0.0007184 
-3.84212 -3.92944 0.000850055 
-3.50183 -3.93181 0.00132693 
-3.19682 -3.93703 0.00175602 
-2.87972 -3.94651 0.00211071 
-2.6007 -3.95498 0.00279642 
-2.33047 -3.96252 0.00255935 
-2.05713 -3.97398 0.00281172 
-1.78869 -3.9743 0.00355558 
-1.50079 -3.97915 0.00295122 
-1.2163 -3.97974 0.000627035 
-0.91969 -3.97701 -0.000287833 
-0.626057 -3.94922 -0.000854411 
-0.308315 -3.94902 -0.0012434 
0.0226574 -3.92876 -0.000494685 
0.330403 -3.94108 0.00169786 
0.628472 -3.95876 0.000581574 
0.906 -3.9789 0.000901899 
1.1682 -3.98879 -0.00145375 
1.45161 -3.97925 -0.00356463 
1.7105 -3.97921 -0.00392062 
1.97237 -3.97138 -0.00373572 
2.28305 -3.95647 -0.00312196 
2.60466 -3.9453 -0.00271166 
2.93059 -3.93727 -0.00225623 
3.26061 -3.93512 -0.00147301 
3.55475 -3.93713 -0.00119501 
3.85979 -3.93374 -0.000857359 
4.17532 -3.93239 -0.000632426 
4.47676 -3.93381 -0.000631291 
4.77495 -3.93284 -0.000386394 
5.09522 -3.93117 -0.000466124 
5.39724 -3.93169 -0.000201789 
5.7142 -3.93283 -0.000182346 
6.00582 -3.9359 -0.000151266 
6.29888 -3.93424 -0.000240154 
6.59848 -3.93312 -0.000116833 
6.8968 -3.93656 -0.000108541 
7.16923 -3.93569 -8.92575e-05 
7.48045 -3.93114 4.76507e-05 
7.7842 -3.93662 3.72707e-05 
8.08801 -3.93732 -2.58637e-05 
8.36316 -3.94508 5.6674e-05 
8.64009 -3.94027 -6.51289e-05 
8.91409 -3.93052 -0.000205239 
9.27555 -3.92633 -4.07195e-05 
9.61466 -3.93135 0.000877229 
9.90101 -3.93129 0.000764939 
10.2744 -3.93044 -0.000108415 
10.5962 -3.92725 0.00112206 
11.0107 -3.93401 0.00266265 
11.3176 -3.95284 0.00269492 
11.5897 -3.95915 0.00137557 
11.9564 -3.9468 -5.0628e-05 
-11.9557 -3.609 0.00243279 
-11.6747 -3.68648 -0.00093036 
-11.3442 -3.59235 -0.000228153 
-11.0527 -3.62857 -0.000901457 
-10.7283 -3.62092 0.000289802 
-10.3918 -3.64411 0.000306134 
-10.048 -3.61363 -1.73461e-05 
-9.73537 -3.59426 -0.000406666 
-9.42542 -3.62521 -0.00039383 
-9.10433 -3.60795 2.89237e-05 
-8.7783 -3.62199 -0.000122231 
-8.43539 -3.63092 -0.000196638 
-8.09348 -3.62711 -0.00020333 
-7.77866 -3.60841 5.63923e-05 
-7.49969 -3.56487 2.90145e-05 
-7.19948 -3.63114 -0.000150033 
-6.87797 -3.63654 -0.000217422 
-6.57264 -3.61249 -0.000181876 
-6.26145 -3.62511 5.8272e-06 
-5.95484 -3.61635 -8.72174e-05 
-5.64669 -3.61896 -0.000208146 
-5.34325 -3.6117 -4.19699e-05 
-5.05429 -3.59781 -7.56686e-05 
-4.72703 -3.6429 -0.000276256 
-4.4427 -3.58423 -0.000229425 
-4.13457 -3.62149 -0.000100982 
-3.80343 -3.64276 -8.59655e-06 
-3.50029 -3.6219 3.43205e-05 
-3.1867 -3.64783 0.000121489 
-2.89475 -3.63795 4.81991e-05 
-2.61444 -3.64395 0.000282492 
-2.33497 -3.66016 0.000102883 
-2.05749 -3.682 0.000257276 
-1.75531 -3.70205 0.000816156 
-1.45825 -3.70071 0.00131093 
-1.15651 -3.70049 0.0013817 
-0.868013 -3.67239 0.000613596 
-0.577385 -3.60708 -0.000584095 
-0.294195 -3.66082 0.000133823 
0.00118312 -3.58466 0.000301884 
0.298935 -3.61109 -0.000290373 
0.590986 -3.62724 0.000958751 
0.885361 -3.6577 -0.000424508 
1.189 -3.71836 -0.00143355 
1.49661 -3.69598 -0.0011084 
1.78307 -3.68124 -0.000247896 
2.07381 -3.71053 0.000210663 
2.38711 -3.69936 -0.000219655 
2.70509 -3.67702 -0.000786268 
3.02477 -3.65985 -0.000287207 
3.31991 -3.61744 3.65453e-05 
3.61868 -3.62051 -6.86023e-06 
3.93003 -3.62483 0.000120505 
4.23303 -3.60763 7.92526e-06 
4.53384 -3.60599 0.000302671 
4.84857 -3.62818 -6.29768e-05 
5.15871 -3.61106 2.32259e-05 
5.47582 -3.6298 4.76811e-05 
5.77687 -3.60611 9.2563e-05 
6.07046 -3.61171 5.07897e-05 
6.36967 -3.61889 1.28285e-05 
6.67193 -3.61534 0.000206051 
6.95006 -3.58681 6.21098e-05 
7.25219 -3.62491 4.68171e-05 
7.55841 -3.61096 -9.62097e-05 
7.85628 -3.62328 -8.65383e-05 
8.14777 -3.6021 9.08966e-05 
8.43379 -3.6037 9.37074e-05 
8.71408 -3.58736 1.35553e-05 
9.03919 -3.65671 -5.10778e-05 
9.3853 -3.63539 0.000110029 
9.68254 -3.57682 0.000410015 
10.0177 -3.65786 0.000502219 
10.3498 -3.61144 0.000168507 
10.7305 -3.67889 0.000656156 
11.0525 -3.6055 0.00122041 
11.3382 -3.58725 -0.00122281 
11.6733 -3.68898 0.00166665 
11.9507 -3.59984 -0.00324383 
-11.949 -3.33011 0.00182934 
-11.5981 -3.35918 0.00109239 
-11.2629 -3.26149 8.98345e-05 
-10.9573 -3.30873 0.000783244 
-10.6496 -3.27856 -0.000857885 
-10.3606 -3.34001 -0.000529868 
-10.0525 -3.28452 0.000135941 
-9.71982 -3.28773 -0.000245312 
-9.38974 -3.30652 -4.77148e-05 
-9.06001 -3.30218 -4.41706e-05 
-8.76065 -3.28579 -0.000106984 
-8.46603 -3.33668 0.000153147 
-8.16285 -3.30677 0.000139423 
-7.85829 -3.3046 0.000273195 
-7.55771 -3.23708 0.000101126 
-7.25562 -3.30105 -0.000191071 
-6.95815 -3.33577 -6.39541e-06 
-6.65148 -3.30396 0.000343031 
-6.33627 -3.31333 0.000189781 
-6.03173 -3.30623 -4.15024e-05 
-5.72364 -3.30462 -7.08127e-06 
-5.4159 -3.29592 6.64357e-05 
-5.11266 -3.26908 0.000180807 
-4.80564 -3.33622 0.000202183 
-4.51021 -3.25964 -4.72301e-05 
-4.19988 -3.29941 -0.00019025 
-3.89238 -3.34558 0.000100708 
-3.58597 -3.31489 -0.000138568 
-3.27643 -3.34313 -0.000204744 
-2.97372 -3.33752 3.99649e-05 
-2.68075 -3.32705 0.000429086 
-2.39221 -3.34299 0.000316928 
-2.07604 -3.40131 0.000473815 
-1.7578 -3.41552 0.000770118 
-1.44945 -3.41269 0.000182397 
-1.14629 -3.38466 0.00034954 
-0.848645 -3.34473 0.00043997 
-0.556335 -3.22098 8.69192e-05 
-0.280388 -3.31227 -0.000194922 
0.0121058 -3.18405 -0.000134796 
0.289697 -3.24529 0.000840521 
0.565293 -3.24245 0.000405332 
0.859716 -3.33499 0.000198104 
1.16727 -3.40849 0.000129958 
1.48055 -3.4073 0.00027514 
1.78182 -3.39531 0.000534197 
2.07603 -3.41721 -0.000308936 
2.367 -3.43568 -0.000570918 
2.65611 -3.38138 -0.0002064 
2.95519 -3.38326 -0.00025556 
3.26386 -3.31045 0.000293336 
3.56358 -3.30063 -0.000201906 
3.86489 -3.31259 -0.000110149 
4.16929 -3.28986 0.00023563 
4.47363 -3.28017 -2.23539e-05 
4.77893 -3.30939 -0.000132462 
5.0798 -3.30156 -0.000173721 
5.39728 -3.31779 -1.10874e-05 
5.70044 -3.293 -4.70511e-05 
6.00812 -3.28527 -7.49562e-05 
6.30265 -3.29806 -0.000163971 
6.60229 -3.30299 -0.000156463 
6.89885 -3.24872 0.000108148 
7.19152 -3.30183 -4.33855e-06 
7.49167 -3.29929 -3.80476e-05 
7.80572 -3.29688 -0.000206002 
8.12559 -3.30075 -2.05685e-06 
8.44674 -3.26325 0.000224386 
8.76988 -3.28905 4.53085e-05 
9.08247 -3.3654 -0.000472232 
9.38184 -3.30216 0.000457658 
9.69453 -3.25009 0.000529041 
10.0031 -3.34877 -0.000303119 
10.3041 -3.27531 0.000408622 
10.6291 -3.38701 -6.6306e-05 
10.957 -3.30072 -0.00037316 
11.2787 -3.23837 0.000363971 
11.5981 -3.36309 -0.000805174 
11.9404 -3.30757 -0.00189445 
-11.9363 -3.02699 0.00223314 
-11.6082 -3.0629 0.00085336 
-11.2801 -2.95154 -9.94595e-05 
-10.9509 -2.97024 0.000670253 
-10.621 -2.95822 -0.000117678 
-10.3001 -2.99244 -0.000750611 
-9.9607 -2.97677 0.000677359 
-9.63309 -2.9696 -0.000341604 
-9.32432 -3.00292 -5.47002e-05 
-9.01984 -2.96884 0.000420059 
-8.7207 -2.94377 7.84197e-05 
-8.43654 -3.00298 -0.000162374 
-8.14069 -2.9683 -0.000257776 
-7.85239 -2.98387 -3.01435e-05 
-7.54331 -2.92366 3.04227e-05 
-7.24155 -2.98291 1.24478e-05 
-6.94081 -3.01944 2.148e-07 
-6.62531 -2.9986 -5.73236e-05 
-6.32363 -2.99519 -0.000213932 
-6.01703 -2.99295 -9.07044e-05 
-5.71072 -2.98751 2.97539e-06 
-5.40533 -2.97467 -7.86518e-06 
-5.08996 -2.96035 2.39423e-06 
-4.79862 -3.0073 2.07998e-05 
-4.48158 -2.95499 -3.74381e-05 
-4.18801 -2.97221 -8.27062e-05 
-3.90152 -3.03338 0.000180784 
-3.60612 -3.00961 0.000265956 
-3.30398 -3.04027 0.000256601 
-2.99213 -3.03766 0.000327793 
-2.67793 -3.00839 0.000518144 
-2.36156 -3.02948 0.000143248 
-2.0427 -3.10587 -0.00011499 
-1.72345 -3.07796 8.67202e-05 
-1.41557 -3.08802 0.000399219 
-1.10955 -2.99098 0.000518899 
-0.836485 -2.9753 -0.000279074 
-0.546715 -2.78754 -0.00115666 
-0.250413 -2.90104 0.000100003 
0.00164615 -2.65844 -0.000874155 
0.266084 -2.77663 -0.00040312 
0.531896 -2.75531 0.000745275 
0.822887 -2.94495 -0.000139145 
1.13266 -3.032 -4.22509e-06 
1.45089 -3.0708 -0.000337062 
1.76538 -3.08066 0.000122558 
2.07452 -3.10124 0.000439462 
2.38179 -3.12494 -0.000115522 
2.68417 -3.06323 -0.000375127 
2.97181 -3.08126 3.98706e-05 
3.26478 -2.99318 -0.000244271 
3.55914 -2.98753 -0.000270601 
3.85745 -2.99849 2.01462e-05 
4.15842 -2.97496 4.00328e-05 
4.46276 -2.96145 5.91147e-05 
4.7586 -2.985 -1.31497e-05 
5.07163 -2.99484 5.27709e-05 
5.37533 -2.99943 -4.95271e-05 
5.68118 -2.97995 0.000133094 
5.99016 -2.97779 0.000159637 
6.30314 -2.97023 7.90938e-05 
6.59507 -2.98261 -0.000141635 
6.91688 -2.94918 3.42505e-05 
7.2336 -2.97913 0.000183143 
7.5324 -2.97711 7.80016e-05 
7.8307 -2.99224 -0.000110008 
8.13536 -2.98085 -0.000133543 
8.44305 -2.96295 7.07535e-05 
8.74695 -2.96432 4.65684e-05 
9.05466 -3.04186 -0.000218325 
9.35885 -2.9845 0.000125479 
9.66489 -2.92536 -2.31611e-06 
9.9896 -3.01085 -0.000805292 
10.317 -2.95859 0.000391615 
10.6442 -3.06658 0.00053572 
10.973 -2.97491 -0.000251847 
11.3128 -2.92744 -0.00055918 
11.6306 -3.05605 -0.000933791 
11.9342 -2.96995 -0.00123086 
-11.9161 -2.69871 0.00230577 
-11.606 -2.74946 0.000555628 
-11.2849 -2.63051 -0.00116898 
-10.9556 -2.65076 -0.000877474 
-10.6395 -2.6275 -0.000271 
[...]
POINT_DATA 1978 
VECTORS vectors float
0.126856 -0.188586 0.974576 
0.139984 -0.116021 0.98809 
0.148182 -0.0752496 0.991641 
0.159509 -0.0444474 0.990703 
0.166853 -0.0276348 0.989305 
0.171132 -0.0189094 0.988583 
0.171795 -0.010159 0.988842 
0.174791 -0.00340981 0.988157 
0.176341 0.00324977 0.987431 
0.177775 0.00616067 0.987073 
0.182922 0.000544285 0.985745 
0.18243 -0.0120638 0.985727 
0.177972 -0.0198607 0.986872 
0.173907 -0.0116085 0.987966 
0.173451 0.00162952 0.986547 
0.174872 0.0114209 0.987637 
0.177439 0.0133754 0.986924 
0.179187 0.00803925 0.986553 
0.178313 0.00444272 0.986861 
0.176406 0.00489776 0.987331 
0.175437 0.00750908 0.987651 
0.17443 0.0129293 0.987833 
0.173872 0.0209471 0.987969 
0.174607 0.0285868 0.987611 
0.175317 0.0353107 0.987201 
0.174609 0.0417841 0.987191 
0.172845 0.0487202 0.987014 
0.171143 0.0577223 0.986894 
0.167169 0.069633 0.986942 
0.159536 0.0889093 0.988957 
0.151346 0.118907 0.983403 
0.13964 0.159228 0.983455 
0.128719 0.219468 0.96937 
0.113292 0.29096 0.954654 
0.093203 0.39031 0.920406 
0.0685916 0.515269 0.858525 
0.0437519 0.670218 0.744598 
0.0243602 0.822925 0.572867 
0.00949395 0.949603 0.307541 
-0.000520514 1.00012 -0.0212403 
-0.00833582 0.942742 -0.327876 
-0.0227411 0.819293 -0.579229 
-0.0415744 0.673276 -0.739456 
-0.0644915 0.531852 -0.85117 
-0.0900815 0.405176 -0.914108 
-0.109393 0.312942 -0.945698 
-0.124673 0.232459 -0.97054 
-0.140041 0.167407 -0.977719 
-0.152256 0.119629 -0.984666 
-0.162319 0.0919067 -0.985918 
-0.167283 0.0741454 -0.986584 
-0.169452 0.0599597 -0.987337 
-0.171665 0.0480568 -0.987474 
-0.173701 0.0392231 -0.987458 
-0.174373 0.0327152 -0.987631 
-0.174466 0.0257658 -0.987661 
-0.175915 0.0198482 -0.987427 
-0.17673 0.0161545 -0.987291 
-0.175763 0.0128813 -0.987517 
-0.176203 0.00904682 -0.987501 
-0.177815 0.00617092 -0.987128 
-0.177711 0.00625559 -0.987057 
-0.177601 0.00410802 -0.987135 
-0.178434 0.00163402 -0.98711 
-0.178259 0.00178284 -0.988872 
-0.180213 0.000498294 -0.984517 
-0.177917 -0.00142508 -0.988962 
-0.178816 -0.00383006 -0.985051 
-0.17923 -0.0100594 -0.986856 
-0.180486 -0.0112811 -0.986223 
-0.180653 -0.006655 -0.986055 
-0.177961 -0.00465788 -0.98746 
-0.174115 -0.00842731 -0.98791 
-0.172652 -0.0204913 -0.988043 
-0.170315 -0.0274873 -0.988665 
-0.162612 -0.0445393 -0.989857 
-0.147258 -0.0735299 -0.991979 
-0.140426 -0.1164 -0.988051 
-0.124821 -0.189029 -0.974761 
0.0722377 -0.19563 0.981802 
0.0928511 -0.144285 0.998009 
0.0967183 -0.095698 1.00631 
0.110418 -0.0628041 1.00781 
0.116912 -0.0397818 1.00969 
0.126657 -0.0245905 1.00488 
0.125244 -0.0150734 1.00676 
0.125842 -0.0076489 1.00837 
0.130765 -0.00289412 1.00374 
0.132394 -0.000855874 1.00527 
0.137116 -0.00114894 1.00623 
0.137902 -0.0050571 1.0024 
0.134861 -0.00888104 1.00613 
0.130331 -0.00582003 1.00523 
0.124004 0.000762582 1.00747 
0.131935 0.00631382 1.00477 
0.134873 0.00769794 1.00401 
0.131075 0.0067795 1.00485 
0.131683 0.0063675 1.00455 
0.129528 0.00719863 1.00503 
0.128901 0.00983159 1.00522 
0.128321 0.013968 1.00543 
0.126779 0.0195896 1.00567 
0.132883 0.0272463 1.00442 
0.125857 0.0330532 1.00559 
0.130392 0.0403162 1.00454 
0.131603 0.0486971 1.00395 
0.125952 0.0594013 1.00397 
0.124928 0.0752102 1.00117 
0.117752 0.0959203 1.00198 
0.111032 0.126356 0.999739 
0.103205 0.168934 0.992447 
0.0951855 0.225609 0.985624 
0.0833275 0.310093 0.963472 
0.0685743 0.418562 0.917913 
0.051803 0.553312 0.847909 
0.0364891 0.701851 0.721506 
0.0218279 0.847971 0.540176 
0.0111224 0.956699 0.2983 
0.000414941 0.999548 -0.00149063 
-0.00955013 0.954992 -0.301534 
-0.0200543 0.84015 -0.552165 
-0.0350232 0.689953 -0.735601 
-0.0528759 0.534 -0.858806 
-0.070485 0.399088 -0.928668 
-0.0843097 0.298988 -0.964438 
-0.0997984 0.220403 -0.984282 
-0.111142 0.158882 -0.994433 
-0.118141 0.116785 -1.00145 
-0.123417 0.0889984 -1.00222 
-0.122826 0.0710757 -1.00379 
-0.125821 0.0566044 -1.0045 
-0.12856 0.0453593 -1.00459 
-0.128071 0.0370607 -1.00496 
-0.128214 0.0299528 -1.00535 
-0.132071 0.0234094 -1.00473 
-0.129512 0.0174617 -1.00536 
-0.131772 0.0139554 -1.00468 
-0.127932 0.0108259 -1.00543 
-0.128691 0.0082081 -1.00513 
-0.130505 0.0065849 -1.00463 
-0.131709 0.00522606 -1.0049 
-0.128082 0.00420278 -1.00492 
-0.133278 0.00238259 -1.00453 
-0.132662 0.00101792 -1.00276 
-0.133811 -0.000625664 -1.00461 
-0.131019 -0.00217986 -1.00489 
-0.131998 -0.00393523 -1.00465 
-0.130657 -0.00627855 -1.00703 
-0.140089 -0.00742704 -1.00199 
-0.135861 -0.00708071 -1.00484 
-0.126585 -0.00933274 -1.00829 
-0.133683 -0.0147826 -1.00378 
-0.124327 -0.0249342 -1.00919 
-0.126225 -0.039274 -1.00646 
-0.110557 -0.0632072 -1.00782 
-0.0997191 -0.0949476 -1.00654 
-0.0931275 -0.142885 -0.997843 
-0.0718759 -0.198642 -0.981015 
0.0337664 -0.20776 0.981967 
0.05912 -0.141161 1.00389 
0.0629295 -0.0977255 1.01143 
0.0756109 -0.0640363 1.00909 
0.0810064 -0.0441145 1.01174 
0.0905994 -0.0263026 1.01045 
0.0883187 -0.0182084 1.01091 
0.0914145 -0.0111578 1.01019 
0.0954283 -0.0050907 1.00992 
0.0970609 -0.00383732 1.00956 
0.0975482 -0.00288146 1.00915 
0.102491 -0.0028779 1.00891 
0.0986572 -0.00385674 1.00899 
0.0965925 -0.00303924 1.00727 
0.0896309 0.000582865 1.01159 
0.0954673 0.00455078 1.00745 
0.098818 0.00621108 1.00883 
0.094815 0.00674444 1.00897 
0.0953352 0.00682969 1.00908 
0.0937738 0.00808662 1.00928 
0.0932278 0.0103959 1.00947 
0.092674 0.013298 1.00958 
0.0907963 0.0175891 1.00972 
0.0982189 0.0240802 1.00896 
0.090916 0.0302493 1.00932 
0.0944027 0.0370446 1.01068 
0.097792 0.0454236 1.00789 
0.0934254 0.055807 1.00811 
0.0928059 0.0705189 1.00738 
0.0874781 0.0922703 1.00633 
0.0810393 0.12104 1.00422 
0.0757651 0.162669 1.0014 
0.0715148 0.226146 0.985481 
0.0618932 0.313051 0.964846 
0.0508176 0.425367 0.920218 
0.0382084 0.560683 0.844099 
0.0262421 0.712243 0.716621 
0.0134086 0.856995 0.527591 
0.00710807 0.959988 0.286727 
-0.00329112 0.999404 -0.0126151 
-0.0100217 0.957274 -0.29659 
-0.0176399 0.852804 -0.535241 
-0.0272383 0.705401 -0.723375 
-0.0391685 0.550014 -0.851948 
-0.0512281 0.409369 -0.928031 
-0.0623433 0.303864 -0.966591 
-0.0726505 0.224934 -0.987271 
-0.0827719 0.166806 -0.997015 
-0.0860236 0.125611 -1.00311 
-0.091531 0.0966902 -1.00338 
-0.0889453 0.07446 -1.00903 
-0.0915205 0.0583919 -1.00824 
-0.0945057 0.0468271 -1.00684 
-0.0939356 0.0375397 -1.01074 
-0.0937424 0.0306184 -1.0074 
-0.096277 0.0235957 -1.00938 
-0.0942141 0.0181423 -1.00928 
-0.0954641 0.0140014 -1.00941 
-0.0918208 0.0113704 -1.00953 
-0.0897788 0.00892394 -1.0113 
-0.0927594 0.00704282 -1.00964 
-0.0940275 0.00607023 -1.00725 
-0.0893121 0.00501003 -1.01196 
-0.0955662 0.00396205 -1.00724 
-0.0961395 0.0018452 -1.01132 
-0.0967863 -0.000206773 -1.00894 
-0.0967513 -0.00158425 -1.00908 
-0.0928854 -0.00281363 -1.00978 
-0.0943945 -0.00506265 -1.00927 
-0.104033 -0.00672375 -1.00891 
-0.0958077 -0.0082127 -1.00957 
-0.0869692 -0.0121826 -1.01084 
-0.0966888 -0.0172165 -1.00992 
-0.0844515 -0.0257843 -1.01123 
-0.0950194 -0.0401298 -1.00872 
-0.076033 -0.0631967 -1.01158 
-0.0604717 -0.0993165 -1.01133 
-0.0635053 -0.140742 -1.00392 
-0.0376059 -0.211289 -0.980808 
0.00992154 -0.222225 0.978295 
0.0328741 -0.155708 1.0035 
0.0390452 -0.110374 1.00763 
0.0497573 -0.069698 1.01602 
0.0543188 -0.0460292 1.01178 
0.0610434 -0.0305171 1.01592 
0.0625732 -0.0186494 1.01355 
0.0654945 -0.0129003 1.01332 
0.0695552 -0.00684241 1.01252 
0.0682565 -0.00529589 1.01236 
0.0673507 -0.0038967 1.01247 
0.0712723 -0.00187444 1.01186 
0.0689306 -0.001722 1.01174 
0.0703224 -0.00129617 1.012 
0.0643342 0.00184437 1.01045 
0.0679225 0.00460066 1.01369 
0.0698904 0.00619188 1.01147 
0.067655 0.00587349 1.01188 
0.0663864 0.00631475 1.01192 
0.0652488 0.00835245 1.0121 
0.0660131 0.0106269 1.01208 
0.0656487 0.0130697 1.01211 
0.0653907 0.0167118 1.01211 
0.069901 0.0222411 1.01154 
0.0671812 0.0288286 1.01158 
0.0684667 0.0356337 1.00925 
0.0720189 0.0429133 1.01062 
0.0683744 0.0535086 1.0103 
0.0685231 0.0685052 1.01155 
0.0637502 0.0898552 1.00962 
0.0570745 0.122887 1.00715 
0.0526719 0.170076 1.00242 
0.0498662 0.236006 0.989122 
0.0396341 0.327589 0.964666 
0.0322671 0.441765 0.916078 
0.01973 0.582352 0.833423 
0.0129709 0.721352 0.709423 
0.000907022 0.863448 0.517234 
-0.000756145 0.968774 0.256062 
-0.00682486 1.00018 -0.00916023 
-0.00862539 0.963264 -0.277521 
-0.0098095 0.868268 -0.512393 
-0.0176504 0.72622 -0.706659 
-0.0255239 0.568624 -0.84358 
-0.0338872 0.426386 -0.924501 
-0.0423378 0.31267 -0.967663 
-0.0514427 0.227937 -0.990922 
-0.0599873 0.166413 -1.00098 
-0.0610084 0.123183 -1.00647 
-0.0677948 0.0943478 -1.00844 
-0.0645549 0.0727977 -1.00836 
-0.066701 0.0568694 -1.01051 
-0.0695254 0.0445411 -1.01255 
-0.0681012 0.0363992 -1.00962 
-0.0682702 0.0288435 -1.01345 
-0.0683819 0.0224502 -1.01157 
-0.0684515 0.0169539 -1.01198 
-0.0670369 0.0136892 -1.01185 
-0.0649577 0.0109717 -1.01199 
-0.0642425 0.00875159 -1.01046 
-0.0638073 0.00694949 -1.01199 
-0.065606 0.00586778 -1.01357 
-0.0638421 0.00570663 -1.01007 
-0.0680678 0.0045144 -1.01377 
-0.067371 0.0024316 -1.01159 
-0.0698875 -2.64239e-05 -1.01202 
-0.0683248 -0.000958771 -1.01206 
-0.0675796 -0.00197086 -1.01201 
-0.0686583 -0.00492498 -1.0122 
-0.0720499 -0.00680368 -1.01181 
-0.0673202 -0.00921609 -1.01267 
-0.0617772 -0.0140764 -1.01341 
-0.0665315 -0.0202757 -1.01311 
-0.0581495 -0.0318323 -1.01384 
-0.0622357 -0.0452875 -1.01316 
-0.0502875 -0.0721078 -1.01334 
-0.041239 -0.113251 -1.00974 
-0.0368382 -0.158529 -1.00285 
-0.0203095 -0.222739 -0.977911 
0.00644405 -0.234997 0.973806 
0.0214175 -0.165148 1.00374 
0.0262276 -0.117406 1.00929 
0.0317739 -0.0770785 1.01309 
0.0347995 -0.0539596 1.01416 
0.0405183 -0.0318888 1.01419 
0.0434877 -0.0217401 1.01361 
0.0449042 -0.0151885 1.01152 
0.0475948 -0.0092705 1.01493 
0.047511 -0.0068003 1.01286 
0.0469561 -0.00362425 1.01108 
0.0493876 -0.000978973 1.0142 
0.048965 -0.000227106 1.01099 
0.0488556 0.00113051 1.01377 
0.0460248 0.00428673 1.01244 
0.0479248 0.00627151 1.01201 
0.0489368 0.0064781 1.0123 
0.0458139 0.00611293 1.01231 
0.0454892 0.00728866 1.01248 
0.0460866 0.00939832 1.01246 
0.0463271 0.0116285 1.01244 
0.0469733 0.014405 1.01232 
0.0471606 0.0182248 1.01217 
0.0509724 0.0232779 1.01184 
0.049362 0.0293864 1.01135 
0.0508993 0.0362536 1.01113 
0.0527302 0.0444353 1.01076 
0.0502578 0.0557127 1.01087 
0.0487432 0.0724598 1.01047 
0.0430898 0.0943493 1.00817 
0.0382794 0.127235 1.01029 
0.0302019 0.173725 1.00197 
0.0298042 0.236972 0.994318 
0.0209954 0.337249 0.960941 
0.0119983 0.469355 0.905236 
0.000737243 0.615766 0.809667 
-0.00325459 0.768536 0.659972 
-0.00861099 0.877645 0.494295 
-0.00544678 0.949031 0.326155 
-0.00317243 0.999999 0.00903263 
-0.00430777 0.963945 -0.272204 
-0.00469979 0.863247 -0.519955 
-0.00649025 0.710166 -0.723165 
-0.0112352 0.564843 -0.851587 
-0.018457 0.427718 -0.92768 
-0.0253671 0.314445 -0.970434 
-0.0317617 0.228606 -0.993599 
-0.0400339 0.164399 -1.00352 
-0.0419656 0.120862 -1.00872 
-0.0467607 0.0901578 -1.01173 
-0.0468992 0.0678285 -1.01094 
-0.0494831 0.0522135 -1.01102 
-0.0511472 0.041483 -1.01109 
-0.0509909 0.0334951 -1.01166 
-0.0486734 0.0266498 -1.01183 
-0.0499431 0.0204143 -1.01225 
-0.0483392 0.0160004 -1.01227 
-0.0473749 0.0129783 -1.01237 
-0.0454171 0.0108218 -1.01226 
-0.0452164 0.00882857 -1.01235 
-0.0436738 0.00687331 -1.01246 
-0.04624 0.00592619 -1.01224 
-0.045802 0.00630916 -1.01232 
-0.0473327 0.00563027 -1.01196 
-0.0488934 0.00330331 -1.01083 
-0.0499677 0.000839019 -1.01236 
-0.0479543 -0.000391865 -1.01228 
-0.0479789 -0.00132339 -1.01264 
-0.0466546 -0.00428461 -1.01274 
-0.0515849 -0.00763503 -1.01274 
-0.0468375 -0.0106722 -1.01308 
-0.0422339 -0.0165996 -1.01335 
-0.0435263 -0.0225473 -1.01384 
-0.0396423 -0.033493 -1.01412 
-0.0417885 -0.0511449 -1.01414 
-0.0324488 -0.0783945 -1.01362 
-0.0239742 -0.118478 -1.00895 
-0.0223274 -0.166587 -1.00169 
-0.0117565 -0.231366 -0.975446 
0.0194493 -0.237973 0.972681 
0.0166175 -0.19169 0.993899 
0.0170384 -0.137233 1.00606 
0.0201447 -0.0928613 1.01158 
0.022576 -0.0622504 1.01338 
0.0270332 -0.0405042 1.01389 
0.02822 -0.0280087 1.01357 
0.0302363 -0.0208528 1.01332 
0.0317886 -0.0126396 1.01353 
0.0326888 -0.00921352 1.01329 
0.0321587 -0.00576446 1.01309 
0.0324855 -0.00127618 1.01314 
0.0337691 4.43287e-05 1.01285 
0.0330859 0.00128969 1.01282 
0.0327355 0.00428812 1.01276 
0.0312537 0.00674101 1.01247 
0.0315379 0.00680323 1.01249 
0.0305739 0.00581226 1.01263 
0.0297934 0.00577964 1.01276 
0.0303425 0.0077435 1.01283 
0.030692 0.0103431 1.01276 
0.0316457 0.0126222 1.01266 
0.0323951 0.0150104 1.01248 
0.0336886 0.0189482 1.01224 
0.0362564 0.0238352 1.01181 
0.0367473 0.0299951 1.01139 
0.0370963 0.0369491 1.01115 
0.0381678 0.0458063 1.011 
0.0362519 0.0599555 1.01102 
0.032396 0.0764179 1.01143 
0.0274353 0.103329 1.01094 
0.0198323 0.143915 1.00876 
0.0112363 0.213187 0.999223 
0.00810182 0.291303 0.980586 
-0.00137825 0.42414 0.933009 
-0.00560745 0.55569 0.852008 
-0.0079312 0.715533 0.725471 
-0.00927556 0.833367 0.560602 
-0.0066606 0.983571 0.201158 
0.00286764 0.997364 -0.0551112 
0.00616702 0.962942 -0.287497 
0.0127129 0.926967 -0.39129 
0.00297282 0.821872 -0.594736 
-0.00237977 0.60136 -0.818488 
-0.00335018 0.442188 -0.92179 
-0.00916516 0.322446 -0.97025 
-0.013182 0.234502 -0.99512 
-0.0235391 0.171419 -1.00452 
-0.0252186 0.127289 -1.00969 
-0.0314606 0.0942996 -1.00931 
-0.0338713 0.0715238 -1.01144 
-0.036142 0.0527115 -1.01168 
-0.0372323 0.0397404 -1.01167 
-0.0370766 0.0319767 -1.01168 
-0.035276 0.0257032 -1.01204 
-0.0346174 0.0199871 -1.01224 
-0.0334241 0.0157502 -1.01245 
-0.0323655 0.0128827 -1.01263 
-0.0313622 0.0107954 -1.01264 
-0.0302101 0.00864945 -1.0126 
-0.0285041 0.00675138 -1.01274 
-0.03013 0.00580568 -1.01257 
-0.0316966 0.00628182 -1.01229 
-0.0314339 0.00681523 -1.01248 
-0.0319546 0.00541149 -1.01273 
-0.0330995 0.00212399 -1.01421 
-0.0329507 0.000199714 -1.01284 
-0.0320898 -0.000585708 -1.01291 
-0.0317767 -0.00406004 -1.0131 
-0.0354625 -0.00878803 -1.0132 
-0.0317191 -0.0120654 -1.01343 
-0.0297636 -0.0186983 -1.01339 
-0.0308149 -0.0262438 -1.0135 
-0.0260478 -0.0371807 -1.01368 
-0.0272406 -0.0560394 -1.01357 
-0.0203402 -0.0838475 -1.01232 
-0.0154696 -0.121452 -1.0079 
-0.0145718 -0.170453 -1.00045 
-0.00972544 -0.235653 -0.974227 
0.0188378 -0.234432 0.974129 
0.0143479 -0.170893 1.00019 
0.0143583 -0.12071 1.00813 
0.0142952 -0.083405 1.0127 
0.0162248 -0.0539118 1.01367 
0.0177627 -0.0367715 1.01539 
0.0200674 -0.0270359 1.01361 
0.0207273 -0.0187668 1.01357 
0.0209607 -0.0126309 1.01349 
0.0225586 -0.00856186 1.01316 
0.023455 -0.00322714 1.01292 
0.0231291 -7.13528e-05 1.01297 
0.0229486 0.00121554 1.01285 
0.0223827 0.00388056 1.01287 
0.0219101 0.00709908 1.01273 
0.0200913 0.0080549 1.01239 
0.0201642 0.00646842 1.0125 
0.0199647 0.00510435 1.01271 
0.0192751 0.00618004 1.01289 
0.0202173 0.00900512 1.01289 
0.0216783 0.0114671 1.01272 
0.0223665 0.0129784 1.01252 
0.0235886 0.0154984 1.01232 
0.0243719 0.0195476 1.0121 
0.0277988 0.0244893 1.01162 
0.0274949 0.0298055 1.01139 
0.0272017 0.0380268 1.01152 
0.0281964 0.0499879 1.00995 
0.0231943 0.0660369 1.01367 
0.0193045 0.0907517 1.01228 
0.0114164 0.132386 1.01036 
0.0027401 0.203703 1.00174 
-0.0043723 0.326541 0.969857 
-0.00677075 0.450847 0.914373 
-0.0102074 0.648875 0.786923 
-0.00856237 0.75012 0.677061 
-0.00535444 0.92273 0.404334 
-0.00171818 0.950276 0.320817 
-0.00274915 0.952384 0.316815 
0.000289472 0.979954 0.17437 
0.0125423 0.997535 -0.0623029 
0.0126748 0.940079 -0.331078 
0.0131096 0.818367 -0.587911 
0.00485052 0.709511 -0.725386 
0.00691809 0.549098 -0.861194 
0.00469498 0.398435 -0.941699 
-0.000805298 0.265348 -0.988487 
-0.00943042 0.179571 -1.00461 
-0.0136689 0.12547 -1.01104 
-0.0204156 0.0896923 -1.01406 
-0.0256806 0.064642 -1.01044 
-0.0269104 0.0470292 -1.01344 
-0.0272107 0.0357445 -1.01183 
-0.0271354 0.0284233 -1.01176 
-0.0259397 0.0225156 -1.01206 
-0.0246649 0.0178771 -1.0122 
-0.0234574 0.0144993 -1.01263 
-0.0221308 0.0124184 -1.01256 
-0.0216098 0.0103201 -1.01275 
-0.0201095 0.00799685 -1.01278 
-0.0192963 0.00608987 -1.01271 
-0.01943 0.0059628 -1.01252 
-0.0210197 0.00703378 -1.01239 
-0.0206855 0.00794464 -1.01251 
-0.0224598 0.00630349 -1.01265 
-0.0225109 0.00302831 -1.01138 
-0.022741 0.000732379 -1.01284 
-0.0216271 -0.00030128 -1.01301 
-0.0215764 -0.0041048 -1.0132 
-0.0230901 -0.00953476 -1.01331 
-0.0208766 -0.0130483 -1.01347 
-0.0185975 -0.0196826 -1.01357 
-0.0205125 -0.0293977 -1.01352 
-0.0170259 -0.0404358 -1.01364 
-0.0178627 -0.0592304 -1.01322 
-0.0138419 -0.0862242 -1.01204 
-0.0108289 -0.125445 -1.00742 
-0.0101813 -0.173527 -0.999576 
-0.00980508 -0.235627 -0.973813 
0.00908152 -0.233762 0.974327 
0.0102382 -0.17572 1.00121 
0.0106674 -0.126123 1.00746 
0.0104526 -0.0860278 1.01194 
0.0121842 -0.061071 1.01284 
0.0132753 -0.0409588 1.01186 
0.014857 -0.0307481 1.01167 
0.0149985 -0.0213903 1.01332 
0.014561 -0.0142688 1.01333 
0.0149052 -0.0108814 1.01314 
0.0153432 -0.00396286 1.01326 
0.0141052 -7.39624e-05 1.01299 
0.0139426 0.00108857 1.01297 
0.0135032 0.00431939 1.01293 
0.0127341 0.0077976 1.01282 
0.0118386 0.00881093 1.01254 
0.0101393 0.00677453 1.01249 
0.0103279 0.00463544 1.0127 
0.0105018 0.00492137 1.01293 
0.0112318 0.00776027 1.01303 
0.0127842 0.01043 1.01295 
0.0138992 0.0117324 1.01273 
0.0150154 0.0133963 1.01244 
0.0158313 0.0165301 1.01228 
0.018261 0.0211429 1.01195 
0.0196143 0.0254804 1.01173 
0.0190468 0.0331107 1.01328 
0.0192821 0.0469559 1.01204 
0.0152533 0.0640688 1.01085 
0.0114448 0.0889049 1.01212 
0.00455424 0.129745 1.01063 
-0.00308784 0.201318 1.00233 
-0.00747873 0.322944 0.972697 
-0.0110806 0.507698 0.885613 
-0.00830897 0.679246 0.75386 
-0.00676778 0.842892 0.554483 
-0.0017732 0.968335 0.248746 
0.00230398 0.99274 0.122772 
0.00609927 0.998603 0.0712281 
0.00590737 1.00255 0.0339373 
0.00233534 1.00414 -0.0245672 
0.00285932 1.00077 -0.0751265 
0.0129738 0.869015 -0.480414 
0.00773581 0.688524 -0.748904 
0.011853 0.611096 -0.810713 
0.011848 0.49125 -0.895179 
0.00664331 0.324925 -0.967625 
0.000732634 0.208875 -0.999508 
-0.00544235 0.137444 -1.00991 
-0.0117519 0.0908803 -1.01289 
-0.0174994 0.0650284 -1.01278 
-0.0174107 0.0487624 -1.0123 
-0.0185114 0.0360612 -1.01193 
-0.0186593 0.0272102 -1.01197 
-0.0182531 0.0218327 -1.01183 
-0.016313 0.0166733 -1.01226 
-0.0153356 0.0138084 -1.01105 
-0.0137408 0.011965 -1.01427 
-0.0134448 0.0106902 -1.01132 
-0.0117564 0.00813023 -1.01313 
-0.0118503 0.00587474 -1.01289 
-0.0100856 0.00503926 -1.01286 
-0.0109483 0.00644693 -1.01265 
-0.0107182 0.00841168 -1.01261 
-0.0122803 0.00851319 -1.01291 
-0.0122842 0.00538581 -1.01464 
-0.0129826 0.00125699 -1.01313 
-0.0134033 -9.51113e-05 -1.01337 
-0.0135404 -0.00368629 -1.01333 
-0.0161955 -0.0105824 -1.01335 
-0.0151269 -0.01513 -1.01353 
-0.012969 -0.0220758 -1.01329 
-0.0145769 -0.030458 -1.01335 
-0.0120072 -0.041186 -1.01347 
-0.012303 -0.0598306 -1.01315 
-0.00923424 -0.0868845 -1.01187 
-0.00729382 -0.126685 -1.00714 
-0.00729073 -0.177532 -0.998587 
-0.00651599 -0.235535 -0.974022 
0.00114453 -0.23705 0.973569 
0.00550992 -0.176355 0.997021 
0.006839 -0.128858 1.00718 
0.00764297 -0.0895116 1.01165 
0.00885246 -0.0610811 1.01297 
0.00904103 -0.0423688 1.01347 
0.0092922 -0.0303776 1.015 
0.00954854 -0.0213459 1.01329 
0.00917169 -0.0139792 1.01322 
0.00837221 -0.00848288 1.01482 
0.00761895 -0.0030537 1.01135 
0.00624245 0.000545664 1.01443 
0.00553029 0.00278526 1.01271 
0.00449954 0.00608076 1.01284 
0.00377651 0.00906283 1.01254 
0.0032543 0.00876498 1.01231 
0.00165948 0.0055181 1.01233 
0.00229879 0.00363587 1.01258 
0.0030304 0.00458893 1.01282 
0.00382771 0.00778736 1.01283 
0.00526192 0.0103625 1.01273 
0.00674064 0.0112766 1.01246 
0.00769969 0.0126571 1.01223 
0.00906453 0.0158722 1.012 
0.010156 0.0197166 1.01182 
0.0121652 0.0252036 1.01035 