# vtk DataFile Version 3.0 
Exported using Morpho https://github.com/Morpho-lang/morpho 
ASCII 
DATASET UNSTRUCTURED_GRID 

POINTS 1978 float 
-8.48528 -2.82843 -5.14012e-15 
-8.24949 -2.82843 4.13703e-14 
-8.00958 -2.82843 8.42373e-14 
-7.78034 -2.82843 1.1565e-13 
-7.38917 -2.82843 1.09041e-13 
-7.131 -2.82843 6.59568e-14 
-6.92759 -2.82843 4.7765e-14 
-6.72407 -2.82843 4.08134e-14 
-6.51705 -2.82843 3.4097e-14 
-6.3283 -2.82843 2.54753e-14 
-6.12809 -2.82843 2.0683e-14 
-5.92947 -2.82843 1.54633e-14 
-5.72229 -2.82843 1.11593e-14 
-5.5115 -2.82843 7.008e-15 
-5.29423 -2.82843 2.77079e-15 
-5.0755 -2.82843 -1.21357e-15 
-4.85499 -2.82843 -4.89512e-15 
-4.64378 -2.82843 -9.99964e-15 
-4.42011 -2.82843 -1.63802e-14 
-4.18828 -2.82843 -2.27118e-14 
-3.9714 -2.82843 -2.92354e-14 
-3.76236 -2.82843 -3.72036e-14 
-3.55328 -2.82843 -4.74213e-14 
-3.34297 -2.82843 -6.09472e-14 
-3.12589 -2.82843 -7.52045e-14 
-2.91432 -2.82843 -8.66945e-14 
-2.71206 -2.82843 -9.76374e-14 
-2.51532 -2.82843 -1.18776e-13 
-2.29694 -2.82843 -1.36866e-13 
-2.08611 -2.82843 -1.45232e-13 
-1.87062 -2.82843 -1.49997e-13 
-1.66527 -2.82843 -1.42581e-13 
-1.46293 -2.82843 -1.31737e-13 
-1.25618 -2.82843 -1.1008e-13 
-1.08094 -2.82843 -9.48291e-14 
-0.836796 -2.82843 -7.65981e-14 
-0.616588 -2.82843 -3.37468e-14 
-0.441938 -2.82843 -5.97774e-14 
-0.231391 -2.82843 -3.66033e-14 
0.0049977 -2.82843 1.03553e-13 
0.223359 -2.82843 -7.77048e-15 
0.437039 -2.82843 3.32259e-14 
0.645383 -2.82843 6.10549e-14 
0.869483 -2.82843 9.35122e-14 
1.05438 -2.82843 8.43869e-14 
1.23408 -2.82843 9.80667e-14 
1.43475 -2.82843 1.36224e-13 
1.65718 -2.82843 1.50847e-13 
1.85929 -2.82843 1.47948e-13 
2.06756 -2.82843 1.61608e-13 
2.29797 -2.82843 1.3739e-13 
2.48954 -2.82843 1.16962e-13 
2.7159 -2.82843 1.11315e-13 
2.93907 -2.82843 8.89666e-14 
3.14864 -2.82843 6.826e-14 
3.34709 -2.82843 5.92701e-14 
3.56938 -2.82843 4.85487e-14 
3.77237 -2.82843 3.72904e-14 
3.99103 -2.82843 3.11559e-14 
4.22213 -2.82843 2.2216e-14 
4.42514 -2.82843 1.4521e-14 
4.64424 -2.82843 9.53855e-15 
4.84884 -2.82843 4.5111e-15 
5.06446 -2.82843 2.24267e-16 
5.27832 -2.82843 -3.93784e-15 
5.49502 -2.82843 -8.06245e-15 
5.70552 -2.82843 -1.27842e-14 
5.92568 -2.82843 -1.80852e-14 
6.15225 -2.82843 -2.22228e-14 
6.35648 -2.82843 -3.02724e-14 
6.59191 -2.82843 -3.79728e-14 
6.79922 -2.82843 -4.32588e-14 
6.99734 -2.82843 -6.61444e-14 
7.26224 -2.82843 -8.90694e-14 
7.49513 -2.82843 -9.72188e-14 
7.72485 -2.82843 -1.09504e-13 
7.98108 -2.82843 -1.02216e-13 
8.16903 -2.82843 -5.21512e-14 
8.48528 -2.82843 -7.94106e-15 
-8.48528 -2.5988 9.76933e-16 
-8.25578 -2.60182 -7.74592e-15 
-8.03647 -2.56423 -1.99291e-14 
-7.82546 -2.58603 -2.0706e-14 
-7.57608 -2.67934 -1.80817e-14 
-7.24098 -2.61859 -1.95267e-14 
-6.99295 -2.57024 -1.48902e-14 
-6.78487 -2.57568 -1.172e-14 
-6.56632 -2.58909 -1.27469e-14 
-6.34794 -2.56347 -8.69784e-15 
-6.1431 -2.581 -7.1957e-15 
-5.9294 -2.57213 -2.86438e-15 
-5.71326 -2.5782 -3.48264e-15 
-5.49041 -2.58677 -1.98633e-15 
-5.26708 -2.58668 -5.07113e-16 
-5.04301 -2.58829 6.36433e-16 
-4.82728 -2.57854 2.01523e-15 
-4.60491 -2.59068 3.3815e-15 
-4.3737 -2.60019 5.02792e-15 
-4.15368 -2.587 6.6182e-15 
-3.94271 -2.58027 8.87554e-15 
-3.7336 -2.58137 1.09348e-14 
-3.52204 -2.58642 1.44689e-14 
-3.30471 -2.59639 1.76403e-14 
-3.08996 -2.5932 2.22028e-14 
-2.88236 -2.58493 2.61722e-14 
-2.6813 -2.58028 2.99613e-14 
-2.46541 -2.60397 3.64634e-14 
-2.24614 -2.59216 3.95958e-14 
-2.03149 -2.59494 3.93027e-14 
-1.81702 -2.58365 4.94952e-14 
-1.60486 -2.57478 3.61239e-14 
-1.40309 -2.57579 5.29018e-14 
-1.21689 -2.52724 2.34848e-14 
-0.995341 -2.59651 -1.63331e-14 
-0.772331 -2.56909 4.63477e-14 
-0.577965 -2.49277 -5.74451e-15 
-0.375234 -2.51991 -6.17477e-15 
-0.159829 -2.54841 -2.9206e-14 
0.0224834 -2.43691 3.17229e-14 
0.189164 -2.53906 -1.55467e-14 
0.395987 -2.54046 -3.26474e-14 
0.614854 -2.50956 4.50796e-14 
0.835452 -2.58096 1.97664e-14 
1.05506 -2.53686 -2.36627e-14 
1.25133 -2.55444 -1.82895e-14 
1.48124 -2.60563 -4.07219e-14 
1.69303 -2.57776 -3.56422e-14 
1.90585 -2.59038 -3.97455e-14 
2.14157 -2.61907 -5.21527e-14 
2.359 -2.57534 -4.27938e-14 
2.57114 -2.60287 -2.53176e-14 
2.80198 -2.60366 -3.34302e-14 
3.01374 -2.58475 -2.06495e-14 
3.21934 -2.57254 -1.91518e-14 
3.43385 -2.59963 -1.67289e-14 
3.64298 -2.57574 -1.14672e-14 
3.85532 -2.59162 -9.48145e-15 
4.0812 -2.60296 -7.79763e-15 
4.29264 -2.57153 -5.63818e-15 
4.50693 -2.59081 -4.23058e-15 
4.71732 -2.57312 -2.47888e-15 
4.93217 -2.5873 -1.21667e-15 
5.14893 -2.58465 -1.1683e-16 
5.36851 -2.58833 1.13756e-15 
5.58585 -2.58019 2.40552e-15 
5.80492 -2.58878 3.84789e-15 
6.0326 -2.59423 5.62622e-15 
6.24942 -2.56786 7.09927e-15 
6.47112 -2.60323 9.83716e-15 
6.6955 -2.57129 1.16535e-14 
6.90242 -2.55898 1.32137e-14 
7.12663 -2.6268 1.68198e-14 
7.38039 -2.59578 1.94381e-14 
7.61458 -2.59194 2.0937e-14 
7.86224 -2.61327 1.91372e-14 
8.07826 -2.5303 2.00866e-14 
8.3026 -2.64555 7.10985e-15 
8.48528 -2.51277 6.06429e-16 
-8.48528 -2.36193 2.63143e-15 
-8.22605 -2.37308 -5.56383e-15 
-7.96941 -2.30875 -1.96394e-14 
-7.70689 -2.41187 -2.61083e-14 
-7.55098 -2.26049 -2.60072e-14 
-7.43373 -2.50236 -5.34236e-15 
-7.1473 -2.38153 -1.69401e-14 
-6.91962 -2.3082 -1.39757e-14 
-6.69809 -2.34502 -1.22386e-14 
-6.47963 -2.34496 -1.12617e-14 
-6.24366 -2.32642 -9.17223e-15 
-6.03469 -2.33488 -7.48825e-15 
-5.81465 -2.33307 -5.2067e-15 
-5.5905 -2.34493 -3.74915e-15 
-5.36849 -2.34914 -1.44036e-15 
-5.14308 -2.35055 2.68493e-16 
-4.92507 -2.33745 2.0103e-15 
-4.70254 -2.34685 3.69526e-15 
-4.4779 -2.36749 5.64426e-15 
-4.25846 -2.35491 7.84821e-15 
-4.04336 -2.33763 1.05925e-14 
-3.83325 -2.3347 1.32255e-14 
-3.62246 -2.34352 1.73072e-14 
-3.40726 -2.3597 2.15616e-14 
-3.19353 -2.36201 2.68358e-14 
-2.98149 -2.35103 3.26297e-14 
-2.77322 -2.33668 4.04355e-14 
-2.55885 -2.36378 4.93951e-14 
-2.34517 -2.37391 5.45239e-14 
-2.11641 -2.35633 5.48924e-14 
-1.90205 -2.35445 6.51823e-14 
-1.67595 -2.34199 5.82525e-14 
-1.45475 -2.30874 3.05999e-14 
-1.26528 -2.25072 6.1426e-14 
-1.05499 -2.3337 5.28481e-15 
-0.83934 -2.30798 -2.22251e-14 
-0.618512 -2.23025 1.17722e-14 
-0.397851 -2.21727 -5.90687e-14 
-0.181095 -2.22761 -2.06701e-14 
0.0503137 -2.13593 7.00585e-14 
0.269744 -2.22079 1.59965e-13 
0.469254 -2.25084 -1.83246e-13 
0.65038 -2.12993 1.53512e-13 
0.776766 -2.33777 -1.54282e-13 
1.01751 -2.28632 -3.44289e-14 
1.2429 -2.2729 -3.70632e-14 
1.442 -2.36731 -5.92812e-14 
1.64988 -2.33604 -7.41621e-14 
1.86468 -2.34411 -5.41209e-14 
2.07656 -2.39438 -5.77801e-14 
2.29064 -2.36406 -5.72237e-14 
2.52988 -2.35446 -4.44902e-14 
2.74054 -2.38633 -3.63695e-14 
2.96268 -2.34491 -3.44379e-14 
3.16888 -2.33014 -2.85898e-14 
3.38573 -2.35751 -2.2074e-14 
3.59111 -2.33702 -1.87972e-14 
3.80495 -2.34611 -1.38866e-14 
4.01818 -2.37089 -1.03598e-14 
4.22966 -2.3351 -8.44409e-15 
4.44968 -2.34363 -6.02599e-15 
4.65554 -2.33009 -4.04755e-15 
4.87221 -2.3418 -2.14172e-15 
5.08479 -2.34361 -6.40032e-16 
5.30231 -2.34946 9.81056e-16 
5.51927 -2.34168 2.76454e-15 
5.7405 -2.34493 4.71672e-15 
5.96147 -2.35968 6.71516e-15 
6.17956 -2.33017 9.515e-15 
6.41035 -2.35239 1.17399e-14 
6.62067 -2.34445 1.46432e-14 
6.84486 -2.30404 1.70046e-14 
7.06984 -2.36761 1.91483e-14 
7.28344 -2.39609 2.15163e-14 
7.54052 -2.35786 2.60665e-14 
7.78363 -2.38413 1.94323e-14 
7.99473 -2.29878 2.49543e-14 
8.25919 -2.36587 4.51732e-15 
8.48528 -2.26103 3.0303e-16 
-8.48528 -2.12826 6.31551e-15 
-8.24594 -2.15811 -4.46002e-15 
-8.07267 -2.04276 -6.43535e-15 
-7.81021 -2.1431 -1.1517e-14 
-7.54047 -2.03868 -5.7978e-15 
-7.31061 -2.25469 -2.44115e-14 
-7.066 -2.11339 -9.78389e-15 
-6.80458 -2.08808 -5.40742e-15 
-6.593 -2.1066 -4.82625e-15 
-6.36412 -2.12217 -7.37197e-15 
-6.13245 -2.08379 -4.19889e-15 
-5.92369 -2.09583 -3.11053e-15 
-5.6995 -2.1072 -2.16192e-15 
-5.47753 -2.10929 -1.0222e-15 
-5.25655 -2.11688 -1.81195e-16 
-5.03969 -2.10388 8.89562e-16 
-4.81736 -2.10607 1.67034e-15 
-4.59372 -2.12472 3.0768e-15 
-4.38103 -2.1257 4.28116e-15 
-4.16783 -2.10821 5.24971e-15 
-3.95624 -2.0935 5.9379e-15 
-3.74489 -2.09922 7.69563e-15 
-3.5313 -2.11745 1.0301e-14 
-3.32084 -2.12751 1.31371e-14 
-3.11063 -2.12405 1.58115e-14 
-2.9007 -2.10852 1.72252e-14 
-2.67936 -2.11491 2.12864e-14 
-2.46867 -2.13381 2.8722e-14 
-2.2508 -2.14792 3.57289e-14 
-2.02214 -2.11434 3.37245e-14 
-1.8014 -2.12455 3.38938e-14 
-1.57806 -2.09373 1.71623e-14 
-1.38027 -1.9995 1.24829e-14 
-1.1749 -1.96724 -1.08183e-14 
-1.01366 -2.0786 4.09954e-14 
-0.784083 -2.03854 3.35546e-14 
-0.543239 -1.94846 9.33125e-15 
-0.306996 -1.94695 1.96578e-14 
-0.085547 -1.90909 4.26694e-14 
0.0547909 -1.68712 1.03889e-13 
0.217712 -1.90585 -1.23933e-13 
0.257826 -1.56992 -1.67677e-13 
0.420342 -1.90467 4.91813e-14 
0.700239 -1.91768 1.35686e-15 
0.931855 -2.07054 4.96929e-15 
1.18744 -2.0281 1.05584e-14 
1.43967 -2.10936 -7.41734e-15 
1.66121 -2.09563 -2.12033e-14 
1.88411 -2.10669 -2.51856e-14 
2.09727 -2.15745 -3.22792e-14 
2.34119 -2.15565 -4.14887e-14 
2.5711 -2.12086 -2.5665e-14 
2.78052 -2.15242 -3.04379e-14 
2.9907 -2.09585 -1.4727e-14 
3.2149 -2.10728 -1.30271e-14 
3.41767 -2.11069 -1.09268e-14 
3.63227 -2.10271 -8.21225e-15 
3.84672 -2.11406 -7.29699e-15 
4.05082 -2.12507 -5.89312e-15 
4.27544 -2.10526 -4.30715e-15 
4.47945 -2.09341 -3.01055e-15 
4.69819 -2.09647 -1.98383e-15 
4.90988 -2.10119 -1.25141e-15 
5.1268 -2.10764 -3.18584e-16 
5.34168 -2.11042 5.08607e-16 
5.56263 -2.10756 1.56244e-15 
5.78503 -2.11146 2.8394e-15 
5.99792 -2.11442 4.31076e-15 
6.23526 -2.10718 5.59021e-15 
6.44338 -2.09937 6.38578e-15 
6.66167 -2.10286 7.12118e-15 
6.90794 -2.08514 6.71004e-15 
7.11687 -2.12094 9.79339e-15 
7.34573 -2.17767 1.75885e-14 
7.52668 -2.06717 1.01009e-14 
7.71945 -2.15023 1.28791e-14 
7.94866 -2.07344 5.15848e-15 
8.20733 -2.13961 9.38424e-15 
8.48528 -2.05966 -6.26394e-16 
-8.48528 -1.70155 3.53023e-15 
-8.34797 -1.90633 7.35994e-15 
-7.92679 -1.8775 7.3448e-15 
-7.7014 -1.88854 3.49132e-15 
[...]
POINT_DATA 1978 
VECTORS vectors float
-0.000102076 -8.03634e-06 1 
-6.02204e-05 -0.0580817 0.998312 
-8.67815e-05 -0.0798561 0.996806 
-0.000239083 -0.0754816 0.997147 
-0.000310077 -0.0612875 0.99812 
-6.77691e-05 -0.0515823 0.998669 
-3.01906e-05 -0.0431266 0.99907 
-5.93681e-05 -0.0351611 0.999382 
-2.90519e-05 -0.0284497 0.999595 
-7.22474e-06 -0.0224778 0.999747 
-2.37614e-05 -0.0172021 0.999852 
-4.57574e-05 -0.0130459 0.999915 
-5.91743e-05 -0.00878054 0.999961 
-6.41973e-05 -0.00533259 0.999986 
-7.76337e-05 -0.00208859 0.999998 
-8.69877e-05 0.000900219 1 
-6.45031e-05 0.00386399 0.999993 
-6.64268e-05 0.00741188 0.999973 
-0.000105591 0.0116468 0.999932 
-9.54066e-05 0.0169259 0.999857 
-5.77218e-05 0.0231651 0.999732 
-4.86171e-05 0.0304135 0.999537 
-5.29448e-05 0.0392195 0.999231 
-6.73575e-05 0.0502475 0.998737 
-7.36639e-05 0.0644716 0.99792 
-4.17028e-05 0.081982 0.996634 
-1.77984e-05 0.103207 0.99466 
-4.04509e-05 0.128778 0.991673 
-6.45936e-05 0.164216 0.986424 
-5.2567e-05 0.207443 0.978247 
-3.56425e-05 0.262854 0.964836 
-3.06743e-05 0.327066 0.945001 
-2.14321e-05 0.402397 0.915465 
4.94373e-06 0.492998 0.870031 
-1.38017e-05 0.578033 0.816013 
-3.70169e-05 0.706856 0.707357 
-5.13924e-06 0.81925 0.573437 
5.81132e-06 0.897973 0.440052 
-3.62508e-06 0.970341 0.241738 
-2.25357e-06 0.999908 -0.0135822 
2.35976e-06 0.973135 -0.230236 
6.80008e-06 0.903083 -0.429465 
1.99217e-05 0.809868 -0.586612 
1.16534e-05 0.690917 -0.722934 
-1.82143e-05 0.593415 -0.804897 
-1.20923e-05 0.501797 -0.864985 
4.58125e-05 0.417046 -0.908886 
3.90321e-05 0.330769 -0.943712 
2.55034e-05 0.266535 -0.963825 
6.83053e-05 0.213065 -0.977038 
4.23721e-05 0.16545 -0.986218 
3.79769e-05 0.133111 -0.991101 
9.4976e-05 0.103054 -0.994676 
6.82536e-05 0.0802857 -0.996772 
2.94637e-05 0.0632172 -0.998 
5.77506e-05 0.0504425 -0.998727 
6.14988e-05 0.039279 -0.999228 
5.52145e-05 0.030552 -0.999533 
9.57846e-05 0.0230097 -0.999735 
7.80436e-05 0.0165577 -0.999863 
5.32439e-05 0.0115378 -0.999933 
6.03579e-05 0.00723182 -0.999974 
5.792e-05 0.00363432 -0.999993 
7.13156e-05 0.000199871 -1 
7.43531e-05 -0.00289421 -0.999996 
5.85345e-05 -0.00611291 -0.999981 
7.36408e-05 -0.00946991 -0.999955 
9.02025e-05 -0.0130967 -0.999914 
6.07928e-05 -0.0175468 -0.999846 
9.31043e-05 -0.0228928 -0.999738 
8.36271e-05 -0.030287 -0.999541 
1.61368e-05 -0.0392177 -0.999231 
9.84945e-05 -0.0498849 -0.998755 
0.000144551 -0.0648744 -0.997893 
0.00012144 -0.0770999 -0.997023 
0.00013053 -0.0852317 -0.996361 
2.83672e-06 -0.0908819 -0.995862 
-2.77723e-05 -0.0737586 -0.997276 
0.000249673 0.000313617 -1 
0.000503708 -0.000184113 1 
0.0150753 -0.0495057 0.99866 
0.0251791 -0.0681371 0.997358 
0.0281461 -0.0731152 0.996926 
0.0190334 -0.0676444 0.997528 
0.0272745 -0.0548136 0.998124 
0.0334314 -0.0451812 0.998419 
0.0337018 -0.0372025 0.998739 
0.0340569 -0.0296212 0.998981 
0.0372892 -0.0230733 0.999038 
0.0357883 -0.017773 0.999201 
0.0354952 -0.0130236 0.999285 
0.0359548 -0.00859285 0.999316 
0.0353558 -0.00483451 0.999363 
0.0351774 -0.00155148 0.99938 
0.0350056 0.00159596 0.999386 
0.0360376 0.00471983 0.999339 
0.0343354 0.00837826 0.999375 
0.0333127 0.0129511 0.999361 
0.0348523 0.018371 0.999224 
0.0354346 0.0246135 0.999069 
0.0348475 0.0320653 0.998878 
0.0339796 0.0412911 0.998569 
0.0322738 0.0531955 0.998062 
0.0319079 0.0680868 0.997169 
0.0315896 0.0861911 0.995778 
0.0304618 0.107924 0.993692 
0.0263523 0.137095 0.990207 
0.0249616 0.175119 0.984231 
0.0220316 0.222684 0.974642 
0.0202726 0.281172 0.959443 
0.0173993 0.351229 0.936128 
0.0144188 0.431274 0.902106 
0.0132297 0.514195 0.857572 
0.00758638 0.626227 0.779604 
0.00597773 0.742014 0.670358 
0.00545623 0.834006 0.551728 
0.00303443 0.920414 0.390933 
0.00114275 0.982983 0.183692 
-0.000357472 0.999849 -0.0173762 
-0.00229093 0.975812 -0.218599 
-0.00497852 0.914878 -0.4037 
-0.00700786 0.828894 -0.559362 
-0.00782799 0.714966 -0.699116 
-0.0114362 0.597533 -0.801763 
-0.0137421 0.497546 -0.867329 
-0.0143568 0.397381 -0.917542 
-0.01844 0.316749 -0.94833 
-0.0208157 0.252723 -0.967315 
-0.0222916 0.196602 -0.98023 
-0.0281316 0.155577 -0.987423 
-0.0264629 0.122493 -0.992117 
-0.0290795 0.0942718 -0.995122 
-0.0315024 0.0742394 -0.996743 
-0.034128 0.0590314 -0.997673 
-0.0323528 0.0463286 -0.998402 
-0.0350675 0.0364248 -0.998721 
-0.0338113 0.0280245 -0.999035 
-0.0330428 0.0206283 -0.999241 
-0.0365858 0.0149769 -0.999218 
-0.0348617 0.0101681 -0.99934 
-0.0367165 0.00625302 -0.999306 
-0.0354665 0.00264227 -0.999367 
-0.0356648 -0.000713001 -0.999364 
-0.0354705 -0.00399459 -0.999363 
-0.0361884 -0.00726466 -0.999319 
-0.0349057 -0.0108531 -0.999332 
-0.0340809 -0.0151601 -0.999304 
-0.0363165 -0.0202476 -0.999135 
-0.0321117 -0.0267275 -0.999127 
-0.0349008 -0.0350495 -0.998776 
-0.0352897 -0.044246 -0.998397 
-0.0277909 -0.0557292 -0.998059 
-0.0308007 -0.0682879 -0.99719 
-0.0301517 -0.0783509 -0.99647 
-0.0259761 -0.0840296 -0.996125 
-0.0269749 -0.0698572 -0.997192 
-0.0105996 -0.0438223 -0.998983 
-0.000839676 -0.000371079 -1 
0.000411983 -0.000419703 1 
0.0225812 -0.0474251 0.99862 
0.0394722 -0.0684762 0.996872 
0.042494 -0.0700988 0.996635 
0.04905 -0.0643952 0.996718 
0.0347811 -0.0613987 0.997507 
0.0470968 -0.0509633 0.997589 
0.0515654 -0.0431258 0.997738 
0.0518242 -0.0350723 0.99804 
0.0537414 -0.027587 0.998174 
0.0554469 -0.0203353 0.998255 
0.055492 -0.0149561 0.998347 
0.0557992 -0.0102348 0.99839 
0.0561038 -0.00615905 0.998406 
0.0560028 -0.00274279 0.998427 
0.0558517 0.000516792 0.998439 
0.0565458 0.00370841 0.998393 
0.0555858 0.00716147 0.998428 
0.0542108 0.0111764 0.998467 
0.0547643 0.016029 0.998371 
0.0554048 0.0218039 0.998226 
0.0549365 0.0286065 0.99808 
0.0539581 0.0369045 0.997861 
0.0522993 0.0474401 0.997504 
0.0509768 0.0605887 0.99686 
0.0498732 0.0770903 0.995776 
0.0484282 0.0973698 0.994069 
0.0447183 0.123457 0.991342 
0.0407533 0.156771 0.986794 
0.0369286 0.202767 0.97853 
0.0329291 0.256709 0.965928 
0.0280615 0.326969 0.944618 
0.0234236 0.40761 0.912856 
0.0203002 0.491195 0.870813 
0.0147647 0.598404 0.801058 
0.0116776 0.708123 0.705992 
0.00832522 0.821259 0.570494 
0.00417159 0.917712 0.397225 
0.000824566 0.980398 0.197023 
-0.00336061 0.999749 -0.0221329 
-0.00563694 0.974113 -0.225992 
-0.0100359 0.903122 -0.429267 
-0.0128761 0.804726 -0.593507 
-0.0135429 0.721385 -0.692402 
-0.0174414 0.601901 -0.79838 
-0.0214079 0.494824 -0.86873 
-0.023846 0.407314 -0.912977 
-0.0290602 0.334922 -0.941797 
-0.0326917 0.268373 -0.96276 
-0.0356192 0.213397 -0.976316 
-0.0407957 0.168676 -0.984827 
-0.0436941 0.128504 -0.990746 
-0.0452118 0.101519 -0.993806 
-0.0493634 0.0785861 -0.995684 
-0.0519494 0.0625806 -0.996687 
-0.0520856 0.049014 -0.997439 
-0.0541725 0.0387375 -0.99778 
-0.0542687 0.0300618 -0.998074 
-0.0534459 0.0228295 -0.99831 
-0.0558956 0.0169669 -0.998292 
-0.055818 0.0118521 -0.998371 
-0.0568124 0.00787034 -0.998354 
-0.0564859 0.00415266 -0.998395 
-0.0566126 0.000785051 -0.998396 
-0.0564305 -0.00251133 -0.998403 
-0.0568178 -0.00578468 -0.998368 
-0.0562573 -0.00938152 -0.998372 
-0.054917 -0.0135363 -0.998399 
-0.0558118 -0.018488 -0.99827 
-0.0537816 -0.025061 -0.998238 
-0.0533146 -0.0324062 -0.998052 
-0.0536688 -0.0415732 -0.997693 
-0.0500066 -0.0515403 -0.997418 
-0.0476674 -0.0613485 -0.996978 
-0.0481643 -0.0719454 -0.996245 
-0.0447977 -0.0800817 -0.995781 
-0.043199 -0.0735889 -0.996353 
-0.0220217 -0.0440948 -0.998785 
-0.000484318 -0.000342391 -1 
7.37991e-05 0.000147182 1 
0.0229407 -0.0441487 0.998762 
0.034574 -0.0641589 0.997341 
0.0448201 -0.0710933 0.996462 
0.0462413 -0.0643453 0.996856 
0.0509615 -0.0559959 0.99713 
0.051513 -0.0481332 0.997512 
0.0529718 -0.039511 0.997814 
0.0548093 -0.031882 0.997988 
0.0572448 -0.024003 0.998072 
0.0570509 -0.0173696 0.99822 
0.0577542 -0.0124431 0.998253 
0.0586649 -0.00802096 0.998246 
0.058726 -0.00420385 0.998265 
0.0588027 -0.000792912 0.998269 
0.0585002 0.00244378 0.998284 
0.0583643 0.00586452 0.998278 
0.0582905 0.00954158 0.998254 
0.0578795 0.0136931 0.99823 
0.0572056 0.0187702 0.998186 
0.0563866 0.0249378 0.998098 
0.0557616 0.0323435 0.99792 
0.055169 0.0415898 0.99761 
0.0541155 0.052974 0.997129 
0.0525281 0.0672604 0.996352 
0.0502519 0.0852326 0.995093 
0.0477097 0.109084 0.992887 
0.0449391 0.137858 0.989432 
0.0413021 0.175869 0.983547 
0.0362194 0.226572 0.973321 
0.0315071 0.288489 0.956965 
0.0260035 0.365139 0.93059 
0.0213074 0.443406 0.896068 
0.0169673 0.535524 0.84435 
0.015669 0.602176 0.798209 
0.0115373 0.723709 0.690009 
0.00641222 0.843108 0.537706 
0.00211655 0.937958 0.346741 
-0.00187961 0.992646 0.121041 
-0.00416927 0.996802 -0.0798054 
-0.00771688 0.970705 -0.240152 
-0.00547333 0.959074 -0.283104 
-0.00996149 0.890104 -0.455649 
-0.012743 0.766863 -0.641684 
-0.0161635 0.65708 -0.753648 
-0.0196507 0.530414 -0.847511 
-0.0246607 0.418719 -0.907781 
-0.0292731 0.335533 -0.941573 
-0.0337329 0.265651 -0.963479 
-0.0383988 0.209736 -0.977004 
-0.0433173 0.158123 -0.986469 
-0.0462288 0.122783 -0.991356 
-0.0495593 0.0966223 -0.994087 
-0.0507335 0.0772001 -0.995724 
-0.0528984 0.0601261 -0.996788 
-0.054234 0.0478515 -0.997381 
-0.0552902 0.0374329 -0.997768 
-0.0564214 0.028972 -0.997987 
-0.0570983 0.022357 -0.998118 
-0.057498 0.0163466 -0.998212 
-0.0576101 0.0118357 -0.998269 
-0.0580546 0.00769153 -0.998284 
-0.0584821 0.00412143 -0.99828 
-0.0588205 0.000726306 -0.998268 
-0.0590323 -0.00257834 -0.998253 
-0.0589637 -0.00605139 -0.998242 
-0.0587764 -0.00992127 -0.998222 
-0.0583048 -0.0142544 -0.998197 
-0.0575093 -0.0201758 -0.998141 
-0.056292 -0.0266205 -0.998059 
-0.0552317 -0.0345974 -0.997874 
-0.053933 -0.0446547 -0.997546 
-0.0531885 -0.0531277 -0.99717 
-0.0526648 -0.0623607 -0.996663 
-0.0500755 -0.0685214 -0.996392 
-0.0498904 -0.0763575 -0.995832 
-0.0446728 -0.0753817 -0.996154 
-0.0293367 -0.0496203 -0.998337 
-0.000244882 -0.000208587 -1 
9.52475e-05 0.000172486 1 
0.00940318 -0.0278845 0.999567 
0.0354001 -0.0717876 0.996792 
0.0401702 -0.0701974 0.996724 
0.0404614 -0.0615624 0.997283 
0.0480388 -0.0561892 0.997264 
0.044441 -0.0527304 0.997619 
0.0476694 -0.0452949 0.997836 
0.0482311 -0.0368998 0.998154 
0.0512042 -0.0284795 0.998282 
0.0522468 -0.0213743 0.998405 
0.0514493 -0.0152852 0.998559 
0.0530106 -0.0103802 0.99854 
0.0536563 -0.00618191 0.99854 
0.0534908 -0.00231901 0.998566 
0.053219 0.0010151 0.998582 
0.0531109 0.00441874 0.998579 
0.0530898 0.00799113 0.998558 
0.0527933 0.0117499 0.998536 
0.052281 0.0161138 0.998502 
0.0514189 0.0215009 0.998446 
0.0506186 0.0281256 0.998322 
0.0502435 0.0361559 0.998082 
0.0496228 0.0458888 0.997713 
0.0485533 0.057941 0.997139 
0.0467373 0.073042 0.996233 
0.044421 0.0932563 0.994651 
0.0416201 0.118727 0.992054 
0.0390958 0.150542 0.98783 
0.0355958 0.192235 0.980703 
0.0303353 0.251623 0.96735 
0.0262145 0.316751 0.948146 
0.0216273 0.386409 0.922074 
0.0174435 0.477836 0.878276 
0.0119854 0.673255 0.739313 
0.0078021 0.787056 0.616833 
0.00281767 0.912491 0.409086 
0.00229083 0.950477 0.310785 
-0.000167368 0.976486 0.215579 
-0.00235222 0.998595 0.0529417 
-0.00532652 0.990228 -0.139353 
-0.00749963 0.917263 -0.398212 
-0.00801272 0.849427 -0.527646 
-0.0109046 0.724984 -0.688679 
-0.0153625 0.609293 -0.792796 
-0.0159027 0.540621 -0.841116 
-0.0204885 0.457025 -0.889218 
-0.0240157 0.368735 -0.929224 
-0.0280989 0.29298 -0.955706 
-0.0327772 0.229392 -0.972782 
-0.037437 0.180767 -0.982813 
-0.0402081 0.141089 -0.98918 
-0.043537 0.106037 -0.993409 
-0.0448651 0.0861955 -0.995268 
-0.0471543 0.0663406 -0.996682 
-0.048317 0.0521588 -0.997469 
-0.0496057 0.0413913 -0.997911 
-0.0507366 0.0320532 -0.998198 
-0.0514011 0.0248722 -0.998368 
-0.0523443 0.0189977 -0.998448 
-0.0517559 0.0139628 -0.998562 
-0.0525244 0.00971877 -0.998572 
-0.0528288 0.00592478 -0.998586 
-0.0533528 0.0024879 -0.998573 
-0.0535737 -0.000923034 -0.998563 
-0.0536893 -0.00437958 -0.998548 
-0.0535563 -0.00829388 -0.99853 
-0.0529848 -0.0127547 -0.998514 
-0.0529659 -0.0180922 -0.998432 
-0.0508845 -0.0249081 -0.998394 
-0.0500309 -0.032491 -0.998219 
-0.0493287 -0.0413265 -0.997927 
-0.0474173 -0.0510215 -0.997571 
-0.0479501 -0.0587822 -0.997119 
-0.0440889 -0.0670878 -0.996772 
-0.0431833 -0.0756055 -0.996202 
-0.0361356 -0.0708404 -0.996833 
-0.0236152 -0.0465177 -0.998638 
-0.00032128 -0.000334632 -1 
0.000138085 -0.000130392 1 
0.0124726 -0.0386128 0.999176 
0.0206871 -0.0508357 0.998493 
0.0306014 -0.0735208 0.996824 
0.0346485 -0.0701937 0.996931 
0.0382997 -0.0577301 0.997597 
0.0411411 -0.0497843 0.997912 
0.0430873 -0.0422748 0.998177 
0.045057 -0.0319322 0.998474 
0.0463009 -0.0245067 0.998627 
0.0464613 -0.018149 0.998755 
0.0469643 -0.0117002 0.998828 
0.0479323 -0.00722996 0.998824 
0.0482631 -0.00322026 0.998829 
0.0476595 0.000493928 0.998864 
0.0477316 0.00382514 0.998853 
0.047763 0.0073365 0.998832 
0.0472831 0.0110839 0.99882 
0.0468163 0.0151969 0.998788 
0.0462315 0.0200385 0.99873 
0.0456074 0.0260762 0.998619 
0.045149 0.0335831 0.998416 
0.0446158 0.0425856 0.998096 
0.0438018 0.0536429 0.997599 
0.0423883 0.0673806 0.996827 
0.0406186 0.0853999 0.995518 
0.0380504 0.109029 0.99331 
0.0352912 0.140064 0.989513 
0.0324846 0.177966 0.9835 
0.0287567 0.229117 0.972974 
0.0237878 0.300585 0.953458 
0.0194416 0.38278 0.923635 
0.0151662 0.492149 0.870379 
0.0118461 0.597333 0.801906 
0.01325 0.596076 0.802818 
0.00802704 0.717234 0.696786 
0.0050551 0.850708 0.525614 
0.00722232 0.863385 0.504494 
0.000706018 0.989126 0.147072 
-0.00573117 0.996198 -0.0869327 
-0.00474914 0.995151 -0.0982491 
-0.00943894 0.957617 -0.287889 
-0.00988416 0.930171 -0.366993 
-0.00897591 0.811456 -0.584344 
-0.0110073 0.659641 -0.7515 
-0.0141207 0.528152 -0.849032 
-0.018893 0.426196 -0.904433 
-0.0224444 0.340149 -0.940104 
-0.0263919 0.266624 -0.963439 
-0.0301786 0.21034 -0.977162 
-0.0337297 0.168328 -0.985154 
-0.0378491 0.126524 -0.991241 
-0.0379351 0.101229 -0.99414 
-0.0412637 0.0788985 -0.996028 
-0.0426552 0.0619635 -0.997167 
-0.0434339 0.0491602 -0.997846 
-0.0449396 0.03865 -0.998242 
-0.0454856 0.0303958 -0.998502 
-0.046076 0.0236437 -0.998658 
-0.0468206 0.0181828 -0.998738 
-0.046445 0.0133147 -0.998832 
-0.0473055 0.00924703 -0.998838 
-0.0474026 0.00564224 -0.99886 
-0.0479906 0.00216363 -0.998845 
-0.048028 -0.00127234 -0.998845 
-0.0482736 -0.00501061 -0.998822 
-0.0479169 -0.00913645 -0.99881 
-0.0474236 -0.0141543 -0.998775 
-0.0470805 -0.0198575 -0.998694 
-0.0450848 -0.0272205 -0.998612 
-0.0444509 -0.0354308 -0.998383 
-0.0437885 -0.0447195 -0.998039 
-0.0415626 -0.0538133 -0.997686 
-0.0419729 -0.0602543 -0.9973 
-0.0379161 -0.0675821 -0.996993 
-0.0373142 -0.074813 -0.996499 
-0.0310039 -0.0706767 -0.997017 
-0.0173532 -0.0422961 -0.998954 
-0.000281914 -0.000179718 -1 
0.000171554 -0.000345433 1 
0.0133051 -0.0455093 0.998875 
0.0233642 -0.0659223 0.997551 
0.0281173 -0.0737573 0.99688 
0.0334464 -0.0652684 0.997307 
0.0327099 -0.0601585 0.997653 
0.0361136 -0.0535049 0.997914 
0.0367539 -0.0449609 0.998312 
0.040152 -0.0365452 0.998525 
0.0400372 -0.0277155 0.998814 
0.0402288 -0.0211411 0.998967 
0.0415824 -0.0146757 0.999027 
0.0410817 -0.0089678 0.999116 
0.0420993 -0.00472886 0.999102 
0.0420783 -0.000916178 0.999114 
0.0414404 0.00275165 0.999137 
0.0419581 0.00608321 0.999101 
0.0416181 0.00957176 0.999088 
0.0408483 0.0134104 0.999075 
0.0402453 0.0177054 0.999033 
0.0399251 0.0229189 0.99894 
0.0395829 0.0293888 0.998784 
0.0390494 0.037195 0.998545 
0.0385139 0.0467606 0.998163 
0.0375867 0.0586027 0.997574 
0.0363761 0.0740968 0.996587 
0.034642 0.0942041 0.99495 
0.0322882 0.121485 0.992068 
0.0294868 0.156629 0.987217 
0.0269029 0.201043 0.979213 
0.0234795 0.261095 0.965028 
0.018948 0.340893 0.939911 
0.0149914 0.446185 0.894815 
0.0111601 0.559941 0.828457 
0.00781403 0.777217 0.629184 
0.00736318 0.839448 0.54339 
0.00631319 0.934696 0.355391 
0.0027565 0.945934 0.324348 
0.00178538 0.993285 0.115682 
-0.00303864 0.996681 0.0813507 
-0.000284734 0.998718 -0.0506103 
-0.00580817 0.971396 -0.237393 
-0.0114912 0.809864 -0.586505 
-0.0119502 0.847254 -0.531054 
-0.0115697 0.696698 -0.717271 
-0.0124046 0.562444 -0.826742 
-0.0156807 0.430823 -0.9023 
-0.0189925 0.348452 -0.937134 
-0.022585 0.275776 -0.960956 
-0.0259645 0.215446 -0.976171 
-0.02904 0.169185 -0.985156 
-0.0330191 0.135408 -0.99024 
-0.031925 0.11419 -0.992946 
-0.035192 0.0875096 -0.995542 
-0.0369663 0.0693413 -0.996908 
-0.0374394 0.0547336 -0.997799 
-0.0386655 0.0429166 -0.99833 
-0.0393338 0.0341235 -0.998643 
-0.0398476 0.0267627 -0.998847 
-0.0402937 0.0207513 -0.998972 
-0.0408464 0.015914 -0.999039 
-0.0408125 0.0112805 -0.999103 
-0.0412258 0.00764774 -0.999121 
-0.0416164 0.00398601 -0.999126 
-0.0417984 0.000527041 -0.999126 
-0.0421431 -0.00327835 -0.999106 
-0.0420135 -0.00739504 -0.99909 
-0.0417798 -0.0123627 -0.99905 
-0.0410805 -0.0185022 -0.998985 
-0.0399818 -0.0253468 -0.998879 
-0.0387667 -0.0347276 -0.998645 
-0.0386341 -0.0439234 -0.998288 
-0.0363896 -0.0529593 -0.997933 
-0.0359238 -0.061422 -0.997465 
-0.032045 -0.069575 -0.997062 
-0.0315153 -0.0757066 -0.996632 
-0.0257594 -0.0719838 -0.997073 
-0.0175193 -0.0475284 -0.998716 
-0.000278469 -0.000229378 -1 
0.000165354 -0.000462063 1 
0.0114912 -0.0478322 0.998789 
0.0220988 -0.0713963 0.997203 
0.0231663 -0.0750044 0.996914 
0.0281407 -0.0684128 0.99726 
0.0278281 -0.0612174 0.997736 
0.0305064 -0.0522475 0.998168 
0.0304543 -0.0432472 0.9986 
0.0339573 -0.0351148 0.998806 
0.0319186 -0.0278206 0.999103 
0.0333252 -0.0199914 0.999245 
0.0349184 -0.0133098 0.999302 
0.0336135 -0.00767728 0.999405 
0.0348621 -0.00334187 0.999387 
0.034823 0.000593266 0.999393 
0.0341707 0.00438218 0.999406 
0.0346257 0.00775251 0.99937 
0.0340321 0.0113227 0.999357 
0.033041 0.0153011 0.999337 
0.0328038 0.0199792 0.999262 
0.0327138 0.0256191 0.999136 
0.0322807 0.0323743 0.998954 
0.0317585 0.0406394 0.998669 
0.0311938 0.0509288 0.998215 
0.0305352 0.0643032 0.997463 
0.0293871 0.0816052 0.996231 
0.0280187 0.104874 0.994091 
0.0257797 0.135125 0.990493 
0.023282 0.175403 0.984221 
0.0214157 0.226604 0.973751 
0.0183956 0.291715 0.956328 
0.0143988 0.391567 0.920037 
0.0110798 0.495406 0.868591 
0.00902126 0.62702 0.778951 
0.00982257 0.663927 0.747733 
0.0081757 0.869353 0.494123 
0.00657714 0.951434 0.307782 
0.00482591 0.996194 0.0870323 
0.00440538 0.998596 0.0527791 
0.00456919 0.999891 0.0140175 
0.00186091 0.998077 -0.0619628 
-0.00199702 0.998895 -0.0469467 
-0.0108236 0.913 -0.407816 
-0.0110128 0.793358 -0.608656 
-0.0120565 0.656126 -0.754555 
-0.0110513 0.56867 -0.822491 
-0.0122142 0.490598 -0.871301 
-0.0139289 0.391925 -0.919892 
-0.0171658 0.30844 -0.951089 
-0.0202237 0.242446 -0.969954 
-0.0228365 0.187737 -0.981954 
-0.0260715 0.144442 -0.98917 
-0.0277629 0.103326 -0.99426 
-0.0294102 0.0813661 -0.99625 
-0.0307436 0.0643278 -0.997455 
-0.0313558 0.050113 -0.998251 
-0.0317508 0.0399831 -0.998696 
-0.0324809 0.0317904 -0.998967 
-0.0328478 0.0251009 -0.999145 
-0.0329163 0.0196262 -0.999265 
-0.0342951 0.0147928 -0.999302 
-0.0332326 0.0107789 -0.99939 
-0.0342434 0.00705301 -0.999389 
-0.0340431 0.00360418 -0.999414 
-0.0345691 -8.41867e-05 -0.999402 
-0.0346125 -0.00395557 -0.999393 
-0.0347169 -0.00844554 -0.999362 
-0.0346452 -0.0138402 -0.999304 
-0.0334023 -0.0200507 -0.999241 
-0.0333033 -0.0280334 -0.999052 
-0.0318637 -0.0371602 -0.998801 
-0.0319786 -0.0465111 -0.998406 
-0.0294236 -0.0551159 -0.998046 
-0.0305356 -0.0615317 -0.997638 
-0.0265943 -0.0686543 -0.997286 
-0.0253986 -0.0759199 -0.99679 
-0.020178 -0.0711324 -0.997263 
-0.0124242 -0.0427624 -0.999008 
-0.000221619 -0.000311469 -1 
8.56641e-05 -0.000355698 1 
0.00862009 -0.0470539 0.998855 
0.0175225 -0.0724247 0.99722 
0.0185875 -0.0759348 0.99694 
0.023287 -0.0683271 0.997391 
0.021032 -0.0636592 0.99775 
0.0244678 -0.056318 0.998113 
0.0238373 -0.0468899 0.998616 