# vtk DataFile Version 3.0 
Exported using Morpho https://github.com/Morpho-lang/morpho 
ASCII 
DATASET UNSTRUCTURED_GRID 

POINTS 1978 float 
-12 -4.00001 -6.46079e-08 
-11.6563 -3.9999 -4.49192e-07 
-11.3137 -3.99991 -4.19135e-08 
-10.9985 -3.99991 -1.97783e-07 
-10.6933 -3.9999 -3.83857e-08 
-10.367 -3.9999 -3.42674e-07 
-10.0394 -3.99989 1.27215e-07 
-9.7128 -3.9999 2.8168e-07 
-9.38563 -3.9999 1.68649e-08 
-9.05905 -3.9999 -7.46694e-08 
-8.70073 -3.99989 -1.22181e-07 
-8.33765 -3.99991 -8.99903e-08 
-8.04706 -3.99991 3.51097e-09 
-7.74738 -3.99991 8.17731e-09 
-7.47787 -3.99992 -1.69652e-08 
-7.18204 -3.9999 -1.55466e-07 
-6.85272 -3.9999 -1.3875e-07 
-6.54098 -3.9999 -1.4665e-08 
-6.22203 -3.99991 1.14439e-07 
-5.93894 -3.99992 1.24443e-07 
-5.66209 -3.99993 6.52492e-08 
-5.39503 -3.99992 1.58215e-07 
-5.08349 -3.99993 2.91572e-07 
-4.80463 -3.99993 5.3995e-07 
-4.50878 -3.99991 8.87817e-07 
-4.17853 -3.9999 1.78422e-06 
-3.82268 -3.99988 2.87393e-06 
-3.4449 -3.99988 4.49405e-06 
-3.10494 -3.99988 6.60785e-06 
-2.71063 -3.99989 7.3812e-06 
-2.43667 -3.99994 8.09445e-06 
-2.14302 -3.99994 8.1472e-06 
-1.93678 -3.99998 9.33437e-06 
-1.64643 -3.99999 1.01372e-05 
-1.43442 -3.99996 9.49066e-06 
-1.06556 -4.00001 1.1147e-05 
-0.824355 -3.99999 1.04551e-06 
-0.594611 -3.99997 -2.76589e-06 
-0.370311 -3.99992 -9.24542e-06 
0.000230797 -3.99993 5.93966e-06 
0.269511 -3.99995 2.57836e-06 
0.551445 -3.99995 4.61257e-06 
0.803447 -3.99997 -2.22244e-06 
1.02348 -4 -6.2958e-06 
1.27018 -3.99999 -1.15219e-05 
1.56572 -3.99998 -1.22548e-05 
1.85415 -3.99996 -1.22782e-05 
2.16827 -3.99993 -1.1013e-05 
2.44265 -3.99992 -9.41293e-06 
2.81098 -3.99988 -9.11051e-06 
3.18011 -3.99989 -7.20458e-06 
3.52661 -3.99988 -4.44866e-06 
3.90826 -3.99989 -2.55458e-06 
4.25264 -3.99991 -1.42367e-06 
4.54967 -3.99993 -8.17731e-07 
4.8304 -3.99992 -3.95076e-07 
5.12535 -3.99993 -1.97848e-07 
5.38465 -3.99993 -1.26392e-07 
5.65801 -3.99992 -7.03994e-08 
5.9413 -3.99992 -9.03531e-08 
6.2371 -3.99991 -4.81672e-08 
6.50968 -3.99991 -1.74397e-08 
6.83917 -3.9999 1.34471e-08 
7.14039 -3.99991 4.57219e-09 
7.43462 -3.99991 3.372e-08 
7.75339 -3.99991 1.08202e-07 
8.04454 -3.99991 1.41178e-07 
8.38018 -3.99991 5.61036e-08 
8.67261 -3.99991 4.77027e-08 
8.96909 -3.99991 -9.76427e-08 
9.29166 -3.9999 -1.76396e-08 
9.62066 -3.9999 -1.0869e-07 
9.94032 -3.9999 -1.64367e-07 
10.2955 -3.9999 2.47965e-07 
10.5999 -3.99991 2.85515e-07 
10.9778 -3.9999 5.99323e-09 
11.2965 -3.9999 -8.63317e-09 
11.6546 -3.99989 4.91598e-07 
12 -4 2.92419e-08 
-11.9999 -3.73633 7.98508e-08 
-11.6051 -3.6866 -8.70892e-16 
-11.3102 -3.63555 -2.83011e-17 
-11.0034 -3.64941 -2.19545e-16 
-10.6843 -3.65514 4.23827e-16 
-10.3651 -3.66894 4.01785e-16 
-10.0402 -3.66734 2.17233e-17 
-9.70783 -3.67228 -3.35777e-16 
-9.37456 -3.67724 -3.54054e-16 
-9.06492 -3.65859 -2.10052e-16 
-8.76524 -3.70588 -3.62976e-16 
-8.41642 -3.71381 -3.20272e-16 
-8.09473 -3.65323 -4.70942e-17 
-7.79378 -3.65651 2.75901e-17 
-7.48744 -3.60292 1.24869e-16 
-7.22028 -3.63541 1.56251e-16 
-6.91722 -3.67736 6.51487e-17 
-6.59931 -3.67317 -8.20055e-17 
-6.29324 -3.6941 -1.93099e-16 
-5.98984 -3.67726 -2.64488e-16 
-5.71311 -3.67525 -1.79313e-16 
-5.43027 -3.65794 -1.40588e-16 
-5.1346 -3.70004 4.6407e-16 
-4.79575 -3.63493 6.24781e-16 
-4.45247 -3.63838 1.11627e-15 
-4.09833 -3.61897 1.85974e-15 
-3.70785 -3.61337 4.22079e-15 
-3.33902 -3.59512 2.96646e-15 
-2.97022 -3.66038 3.39469e-15 
-2.67031 -3.621 8.39352e-16 
-2.38375 -3.71186 -4.10649e-15 
-2.12345 -3.69323 4.50366e-15 
-1.85437 -3.81191 -8.81651e-15 
-1.59829 -3.77543 1.4453e-15 
-1.26786 -3.87777 -5.24521e-16 
-1.0108 -3.83352 -6.23825e-15 
-0.764052 -3.84154 -3.29611e-15 
-0.515982 -3.84389 -3.61124e-15 
-0.188268 -3.89759 -9.61195e-15 
0.0815432 -3.8698 -1.18394e-14 
0.33021 -3.86899 2.50574e-14 
0.586857 -3.84978 2.21132e-15 
0.819942 -3.81635 -3.15686e-15 
1.05813 -3.8223 1.18816e-14 
1.35245 -3.84344 -9.55057e-15 
1.64109 -3.81202 7.18364e-15 
1.92282 -3.77792 -4.29764e-16 
2.17263 -3.69775 1.37433e-15 
2.43172 -3.66585 2.08508e-15 
2.71488 -3.68621 -7.24401e-15 
3.08965 -3.63241 -8.02018e-15 
3.44686 -3.54164 -3.33305e-15 
3.81478 -3.60948 -1.88002e-15 
4.20194 -3.64061 -8.43369e-16 
4.55589 -3.63486 -6.23387e-16 
4.89833 -3.69176 -5.85021e-16 
5.19941 -3.66834 -8.25849e-17 
5.49009 -3.68303 9.30737e-17 
5.78115 -3.68088 1.80851e-16 
6.07369 -3.67875 2.19704e-16 
6.35939 -3.63265 1.72438e-16 
6.65335 -3.68822 1.44484e-16 
6.95473 -3.6639 2.4823e-17 
7.24596 -3.66074 -4.53888e-17 
7.5429 -3.68869 -7.91431e-17 
7.83442 -3.6558 -2.121e-16 
8.13707 -3.69111 -8.06263e-17 
8.42973 -3.64542 -1.48124e-16 
8.73126 -3.65673 1.15052e-16 
9.05087 -3.68846 3.17229e-16 
9.3775 -3.69458 3.23953e-16 
9.70274 -3.6813 2.72224e-16 
10.0453 -3.71287 5.73424e-17 
10.3695 -3.6623 -3.80689e-16 
10.7056 -3.72104 -3.60773e-16 
11.0245 -3.65554 4.17063e-16 
11.3525 -3.68431 9.76638e-16 
11.6767 -3.6698 4.87499e-16 
11.9999 -3.67355 -2.66922e-07 
-11.9999 -3.46852 7.93422e-07 
-11.7253 -3.35965 1.02379e-15 
-11.4 -3.28792 6.17999e-16 
-11.0623 -3.30954 1.27361e-15 
-10.7197 -3.31507 1.31746e-15 
-10.3784 -3.32677 1.12866e-15 
-10.0261 -3.34431 8.39388e-16 
-9.68298 -3.35109 7.45229e-16 
-9.36834 -3.3349 7.1838e-16 
-9.06433 -3.31235 6.84761e-16 
-8.7646 -3.35025 6.34598e-16 
-8.47596 -3.41479 6.36357e-16 
-8.15672 -3.33669 6.27418e-16 
-7.84839 -3.31943 4.04644e-16 
-7.54276 -3.27531 2.07076e-16 
-7.22248 -3.23065 1.46672e-17 
-6.95427 -3.32951 -1.35719e-16 
-6.65535 -3.34934 -3.87082e-16 
-6.34367 -3.36923 -5.838e-16 
-6.0482 -3.3708 -6.29157e-16 
-5.75156 -3.33369 -7.49646e-16 
-5.48235 -3.32392 -7.90123e-16 
-5.18163 -3.35886 -6.09983e-16 
-4.88179 -3.32636 -1.15751e-15 
-4.53164 -3.29751 -1.14562e-15 
-4.16988 -3.23889 -1.31737e-15 
-3.8179 -3.275 -3.17807e-15 
-3.45368 -3.2504 1.17583e-15 
-3.10644 -3.30121 6.12629e-16 
-2.81457 -3.30675 4.00505e-16 
-2.5332 -3.35757 -1.02057e-14 
-2.28316 -3.45021 -4.76136e-15 
-1.82788 -3.59873 1.63186e-15 
-1.56348 -3.54302 -3.81306e-14 
-1.40152 -3.71165 7.69409e-16 
-1.12977 -3.69199 -6.0746e-15 
-0.838934 -3.67751 -5.19211e-15 
-0.586117 -3.68881 -1.80698e-14 
-0.319289 -3.77795 -2.35582e-14 
0.0426651 -3.74975 3.38531e-15 
0.346245 -3.72488 -6.07104e-15 
0.585425 -3.68437 -1.75872e-14 
0.814066 -3.62806 -1.62617e-14 
1.13051 -3.6773 1.5798e-14 
1.43061 -3.66653 1.28715e-15 
1.72447 -3.59779 -2.59779e-15 
1.98978 -3.49986 -3.6391e-16 
2.2605 -3.40036 1.21947e-14 
2.53198 -3.36593 -2.55139e-15 
2.85357 -3.40752 -1.37378e-15 
3.17314 -3.27155 -4.54101e-15 
3.50596 -3.14925 -3.95803e-15 
3.79138 -3.22659 2.46157e-16 
4.15227 -3.27085 1.14543e-15 
4.50005 -3.28834 1.22111e-15 
4.83919 -3.36645 7.64157e-16 
5.15092 -3.34506 1.05328e-15 
5.45097 -3.35924 8.76738e-16 
5.74236 -3.35867 7.4149e-16 
6.03551 -3.3467 5.89312e-16 
6.32811 -3.29762 4.68402e-16 
6.63396 -3.34248 1.98368e-16 
6.93077 -3.33152 2.73425e-17 
7.23234 -3.32311 -1.60068e-16 
7.53091 -3.35319 -3.21665e-16 
7.82838 -3.31116 -4.35729e-16 
8.11546 -3.34632 -4.25014e-16 
8.41023 -3.30313 -4.98296e-16 
8.72522 -3.32157 -4.65868e-16 
9.04521 -3.37049 -4.95435e-16 
9.37485 -3.37956 -6.08044e-16 
9.68214 -3.33854 -5.6917e-16 
9.99775 -3.40126 -5.79685e-16 
10.3289 -3.35345 -1.00949e-15 
10.6875 -3.4007 -9.94191e-16 
11.0358 -3.32943 -1.08415e-15 
11.364 -3.35077 -8.5384e-16 
11.6795 -3.32422 -8.02414e-16 
11.9999 -3.35181 -6.95868e-07 
-11.9999 -3.05433 2.3373e-07 
-11.6703 -3.0189 6.91547e-16 
-11.2955 -2.96623 -4.05531e-16 
-10.9631 -2.98279 3.29133e-16 
-10.6267 -2.98027 5.28695e-16 
-10.2886 -3.00787 6.09658e-16 
-9.95113 -3.019 3.36393e-16 
-9.62952 -3.0034 2.12565e-16 
-9.31357 -2.98713 1.68696e-16 
-8.99567 -2.97696 9.9767e-17 
-8.70222 -2.99244 2.38054e-17 
-8.42193 -3.07148 1.88794e-16 
-8.12458 -2.98957 1.37276e-16 
-7.81914 -2.97968 7.9461e-17 
-7.49075 -2.94606 6.27237e-17 
-7.16837 -2.89968 -2.08795e-17 
-6.86476 -2.9874 -1.60372e-16 
-6.56523 -3.03418 -2.76051e-16 
-6.27534 -3.04334 -3.05475e-16 
-5.99149 -3.04277 -2.22847e-17 
-5.72935 -2.96513 6.33742e-16 
-5.4275 -2.99348 9.98001e-16 
-5.13591 -2.99042 1.33714e-15 
-4.80513 -2.97756 1.85882e-15 
-4.46598 -2.94502 3.3026e-15 
-4.10376 -2.89025 3.9399e-15 
-3.79683 -2.95837 1.03769e-15 
-3.5164 -2.93362 6.06495e-15 
-3.23147 -2.99111 1.99459e-15 
-2.95944 -3.02429 1.46162e-15 
-2.68704 -3.07439 5.33391e-16 
-2.39205 -3.18151 1.60283e-14 
-2.01146 -3.44412 5.10752e-15 
-1.71836 -3.37628 -2.60577e-14 
-1.40164 -3.38115 1.0818e-14 
-1.24768 -3.53895 -6.74608e-15 
-0.939191 -3.53484 -3.33013e-14 
-0.642679 -3.5209 -2.49593e-14 
-0.373325 -3.60669 -2.93511e-15 
-0.119086 -3.67719 -4.17355e-15 
0.243705 -3.61207 2.37541e-14 
0.502522 -3.53359 2.52888e-14 
0.723871 -3.4666 -3.1074e-14 
1.04692 -3.52489 -4.17699e-15 
1.37488 -3.49519 1.82721e-14 
1.69248 -3.41522 -5.03684e-15 
2.00693 -3.28721 1.99741e-14 
2.30236 -3.16758 -2.50524e-15 
2.64878 -3.17463 7.68044e-15 
2.89917 -3.11985 -8.65285e-15 
3.23289 -3.00982 1.86557e-15 
3.53237 -2.87744 -3.12519e-15 
3.83775 -2.86601 -8.65157e-15 
4.11961 -2.91542 -2.25998e-15 
4.46176 -2.91704 -3.439e-15 
4.79738 -3.01128 -2.0329e-15 
5.11872 -3.00307 -1.36216e-15 
5.42548 -3.02351 -6.34046e-16 
5.72411 -3.02473 -1.72857e-16 
6.02094 -3.00865 5.20515e-17 
6.31222 -2.95597 6.01961e-17 
6.61126 -3.00705 1.8961e-16 
6.91788 -2.99185 8.81593e-17 
7.22725 -2.99904 -1.72792e-17 
7.5449 -3.01359 -9.76003e-17 
7.85675 -2.96625 -7.9318e-17 
8.15097 -2.97909 -1.329e-16 
8.44693 -2.94217 2.14392e-17 
8.7426 -2.99456 -8.31549e-17 
9.0747 -3.04806 -1.73543e-16 
9.37932 -3.02765 -1.11161e-16 
9.68972 -2.99137 -1.21773e-16 
10.0183 -3.0622 -3.22566e-16 
10.3531 -3.02003 -6.31165e-16 
10.6839 -3.09326 -5.99432e-16 
10.9976 -2.97939 -1.03627e-16 
11.3235 -3.00625 2.93037e-16 
11.6625 -2.99501 -7.96566e-16 
11.9999 -3.02219 -2.26417e-07 
-11.9999 -2.72265 4.51386e-07 
-11.6108 -2.73321 1.86372e-17 
-11.3293 -2.58537 -7.37573e-16 
-11.0244 -2.65006 -3.59864e-16 
[...]
POINT_DATA 1978 
VECTORS vectors float
0.0185011 -0.017179 0.999668 
0.0195814 -0.039542 0.999031 
0.0185122 -0.0392635 0.999057 
0.0193093 -0.0253954 0.999485 
0.0192262 -0.0163367 0.999682 
0.020056 -0.0144507 0.999687 
0.0202473 -0.016981 0.999647 
0.0199208 -0.021936 0.999557 
0.020167 -0.0237692 0.999513 
0.0204466 -0.0218773 0.999555 
0.0202744 -0.0181198 0.999634 
0.0197445 -0.0137641 0.99971 
0.0192542 -0.00950103 0.999762 
0.0189325 -0.00494002 0.9998 
0.0191835 -0.00123108 0.999805 
0.0190336 0.00140139 0.999809 
0.0191996 0.00145171 0.999809 
0.019232 -0.00073964 0.99981 
0.0188243 -0.00370229 0.999811 
0.0187256 -0.00446773 0.999809 
0.0184718 -0.00250403 0.99982 
0.0175156 0.00256807 0.999838 
0.0165869 0.00976952 0.999813 
0.0169722 0.0187546 0.999678 
0.0162147 0.0305094 0.999407 
0.0157621 0.0437322 0.998926 
0.0157041 0.0571326 0.998251 
0.0148922 0.0701158 0.997442 
0.013656 0.081642 0.996584 
0.0118178 0.0945034 0.995466 
0.0104991 0.108009 0.9941 
0.00881521 0.131514 0.991279 
0.00890595 0.1586 0.987306 
0.00657325 0.220983 0.97526 
0.00446483 0.286174 0.958179 
0.00228585 0.455121 0.890436 
-0.000514999 0.608497 0.79356 
-0.00160815 0.762692 0.646761 
-0.000940925 0.899085 0.43778 
-0.000667865 0.999988 0.00501288 
0.00277225 0.941724 -0.336373 
0.00269382 0.779576 -0.626305 
0.000938463 0.615994 -0.787753 
-0.0011743 0.480055 -0.877242 
-0.00395783 0.351797 -0.936072 
-0.00633719 0.249277 -0.968417 
-0.00693525 0.180269 -0.9836 
-0.00877219 0.134964 -0.990822 
-0.0106114 0.114899 -0.993331 
-0.0119489 0.0973689 -0.995192 
-0.0130902 0.08301 -0.996479 
-0.0145355 0.0685568 -0.997552 
-0.0149808 0.0530163 -0.998488 
-0.0153939 0.0381671 -0.999157 
-0.016138 0.0254382 -0.999544 
-0.0165087 0.0151913 -0.999747 
-0.0174211 0.00750212 -0.999816 
-0.0180387 0.00219301 -0.999829 
-0.0179204 -0.00145032 -0.999832 
-0.0181755 -0.00369142 -0.99982 
-0.0188792 -0.00496145 -0.999799 
-0.0188161 -0.00541628 -0.999799 
-0.0189238 -0.00494664 -0.999799 
-0.0194042 -0.00465777 -0.999792 
-0.0191661 -0.00438727 -0.999799 
-0.0193021 -0.00517964 -0.999792 
-0.0189002 -0.00772765 -0.999783 
-0.0188294 -0.0122524 -0.999738 
-0.0192976 -0.0163065 -0.999671 
-0.0192316 -0.0190105 -0.999629 
-0.0195181 -0.0191979 -0.999623 
-0.0201942 -0.0165489 -0.999656 
-0.0202716 -0.0116196 -0.999724 
-0.0203352 -0.00792209 -0.999758 
-0.0202419 -0.0105807 -0.999737 
-0.020039 -0.02198 -0.999557 
-0.019039 -0.037658 -0.999113 
-0.0198991 -0.0375734 -0.999101 
-0.0190309 -0.0189462 -0.999628 
0.00666499 -0.0288761 0.999565 
0.0157631 -0.0342556 0.99932 
0.022369 -0.0357201 0.999132 
0.023955 -0.0280255 0.999346 
0.0255553 -0.0190298 0.999515 
0.0252948 -0.0145786 0.9996 
0.0249295 -0.0153118 0.999596 
0.0229524 -0.0179191 0.999603 
0.0218001 -0.0194905 0.999596 
0.0211801 -0.0187989 0.999622 
0.0196008 -0.0173799 0.999678 
0.0192227 -0.0140792 0.999739 
0.0208386 -0.0104109 0.999752 
0.02179 -0.00652453 0.999764 
0.0229291 -0.00262331 0.999755 
0.0215993 0.000311728 0.999789 
0.0196076 0.00171743 0.99983 
0.0177388 0.00149939 0.999865 
0.0151046 0.000733023 0.999909 
0.0116608 0.00196685 0.999952 
0.00662269 0.00532417 0.999986 
0.000101671 0.0116034 0.999954 
-0.00552921 0.0178876 0.999848 
-0.0184315 0.0330336 0.999312 
-0.0296184 0.0474536 0.998459 
-0.0485741 0.0649456 0.996737 
-0.0727636 0.0826074 0.993953 
-0.100762 0.098417 0.990057 
-0.103354 0.103419 0.989283 
-0.135637 0.115667 0.984028 
-0.103049 0.122437 0.987124 
-0.122017 0.140899 0.982516 
-0.0627726 0.176131 0.982373 
-0.0741881 0.229956 0.970384 
-0.0317285 0.361523 0.931834 
-0.0324722 0.4843 0.874309 
-0.0219366 0.635731 0.771609 
-0.0134801 0.81195 0.583587 
-0.00326333 0.974057 0.226315 
0.00338125 0.995856 -0.0908614 
0.0126452 0.914555 -0.404261 
0.0233346 0.758405 -0.651373 
0.0377749 0.600359 -0.798844 
0.0411777 0.454217 -0.889948 
0.0479294 0.316153 -0.947511 
0.0635391 0.232307 -0.970582 
0.0858218 0.172955 -0.981206 
0.119557 0.143207 -0.982463 
0.129027 0.125557 -0.983681 
0.115988 0.114124 -0.986693 
0.120154 0.106011 -0.987101 
0.118315 0.101136 -0.987847 
0.071843 0.0790338 -0.994313 
0.0410346 0.0568211 -0.99757 
0.0261555 0.0404879 -0.998865 
0.0111828 0.0243531 -0.999666 
0.00453707 0.0165294 -0.999875 
-0.0025859 0.00937615 -0.999975 
-0.00792065 0.00439065 -0.999981 
-0.0128602 0.00084705 -0.999936 
-0.0159404 -0.000494481 -0.999897 
-0.0183284 -0.00276528 -0.999851 
-0.0214045 -0.00351651 -0.999787 
-0.0226583 -0.00426482 -0.999757 
-0.0222471 -0.00511382 -0.999761 
-0.0225492 -0.00669306 -0.999748 
-0.0212065 -0.00930124 -0.999752 
-0.0216029 -0.0123892 -0.999713 
-0.0210564 -0.0150569 -0.999686 
-0.020716 -0.0163713 -0.999674 
-0.0215681 -0.0153463 -0.999671 
-0.0224121 -0.0123048 -0.9997 
-0.0229522 -0.00930731 -0.99972 
-0.0259332 -0.00924938 -0.999645 
-0.0242932 -0.0147429 -0.999616 
-0.0238462 -0.0260537 -0.999401 
-0.0204288 -0.034879 -0.999204 
-0.0146087 -0.0302477 -0.999466 
-0.008666 -0.02728 -0.999627 
0.0109506 -0.0267125 0.999648 
0.0148248 -0.0267617 0.999558 
0.0251465 -0.0373282 0.999003 
0.0299099 -0.0312306 0.999081 
0.0318879 -0.0210379 0.999287 
0.0314893 -0.0135622 0.999431 
0.0307723 -0.012102 0.99947 
0.0284376 -0.0131281 0.999525 
0.0256883 -0.0139695 0.999587 
0.0234451 -0.014683 0.999629 
0.022786 -0.0152856 0.99964 
0.0235507 -0.0143337 0.999634 
0.0229948 -0.0113802 0.999685 
0.0224946 -0.00792297 0.999731 
0.0213538 -0.00427458 0.999778 
0.0191009 -0.000487887 0.999835 
0.0202436 0.00227811 0.999807 
0.0180686 0.00441789 0.999842 
0.0133859 0.00683749 0.999902 
0.00600126 0.0110534 0.999935 
-0.00497445 0.0183654 0.999833 
-0.0155091 0.0265683 0.999541 
-0.0259584 0.0357075 0.999042 
-0.042092 0.0508742 0.997835 
-0.0674522 0.0724011 0.995112 
-0.106098 0.100221 0.989317 
-0.137543 0.117257 0.983558 
-0.195546 0.143018 0.970234 
-0.228785 0.14827 0.962142 
-0.261539 0.152774 0.95305 
-0.264724 0.147568 0.952981 
-0.231722 0.145888 0.961798 
-0.160023 0.182362 0.970142 
-0.163987 0.235567 0.957932 
-0.0907451 0.292212 0.952053 
-0.0768111 0.413452 0.907293 
-0.0535289 0.581778 0.81159 
-0.0329686 0.757691 0.651783 
-0.00999915 0.922039 0.386974 
0.00677988 0.997797 -0.0660313 
0.0271879 0.903518 -0.427707 
0.0516359 0.746972 -0.66285 
0.0843661 0.596447 -0.798219 
0.0866247 0.415887 -0.905291 
0.111406 0.286134 -0.951708 
0.160123 0.206155 -0.965341 
0.214866 0.168435 -0.962026 
0.263443 0.153285 -0.952431 
0.2733 0.147935 -0.950501 
0.226416 0.136526 -0.964431 
0.245911 0.150503 -0.957555 
0.24163 0.162635 -0.956661 
0.166681 0.129783 -0.977463 
0.108068 0.0983307 -0.989295 
0.071603 0.0732437 -0.994761 
0.040712 0.0484685 -0.998013 
0.0269626 0.0368598 -0.998973 
0.0136201 0.0254514 -0.999599 
0.00374229 0.0171435 -0.999858 
-0.0043529 0.0107668 -0.99995 
-0.00956952 0.00700731 -0.999944 
-0.0168446 0.00187354 -0.999873 
-0.0212373 -0.00103691 -0.999787 
-0.0233933 -0.0035196 -0.999737 
-0.0247817 -0.00576026 -0.999691 
-0.0236457 -0.00809075 -0.999703 
-0.0230212 -0.0102179 -0.999698 
-0.0214944 -0.0122574 -0.999708 
-0.021529 -0.0130972 -0.999698 
-0.0234915 -0.0127006 -0.999656 
-0.0259076 -0.0105376 -0.999626 
-0.0286066 -0.00781587 -0.999576 
-0.0308914 -0.00728454 -0.999511 
-0.0325856 -0.00822273 -0.999454 
-0.0320667 -0.0162451 -0.999371 
-0.0310871 -0.0278339 -0.999145 
-0.0274309 -0.0350616 -0.999024 
-0.0177755 -0.0280851 -0.999476 
-0.00996706 -0.0244265 -0.999697 
0.00880361 -0.0296566 0.999592 
0.014377 -0.0304194 0.999462 
0.0211337 -0.0386785 0.999046 
0.0243541 -0.029655 0.999279 
0.0245014 -0.0176386 0.99956 
0.0236219 -0.00922139 0.999694 
0.0209197 -0.0068296 0.999773 
0.0166042 -0.00720893 0.999851 
0.0120876 -0.00882289 0.999903 
0.00892089 -0.0116345 0.999907 
0.00845028 -0.0140114 0.999879 
0.0124402 -0.0140969 0.999838 
0.00908176 -0.0123932 0.999897 
0.00886083 -0.00909367 0.999934 
0.00754784 -0.00475907 0.999976 
0.00357807 0.000439064 1.00001 
0.00463996 0.00549889 0.999991 
0.0013531 0.0104401 0.999959 
-0.00617946 0.0167446 0.999853 
-0.0169849 0.0249962 0.999558 
-0.0346905 0.0387831 0.998661 
-0.0479042 0.0514751 0.997542 
-0.0658558 0.0686513 0.995483 
-0.0921049 0.0925273 0.991461 
-0.129759 0.122723 0.983943 
-0.190735 0.164821 0.967725 
-0.231742 0.180856 0.955837 
-0.298107 0.210081 0.931144 
-0.341991 0.21564 0.914643 
-0.383827 0.211882 0.898785 
-0.410455 0.202156 0.8892 
-0.392503 0.176481 0.90269 
-0.241631 0.159277 0.957221 
-0.264858 0.200139 0.943301 
-0.246757 0.266974 0.931602 
-0.148158 0.343952 0.927247 
-0.100249 0.510788 0.853851 
-0.0612795 0.702599 0.708963 
-0.0194759 0.895828 0.44399 
0.00031445 0.990965 0.134305 
0.0319346 0.946121 -0.322238 
0.0681673 0.803302 -0.591683 
0.115874 0.649575 -0.751429 
0.136736 0.450475 -0.882264 
0.173811 0.301379 -0.937546 
0.251857 0.211502 -0.944381 
0.337605 0.17514 -0.924862 
0.414013 0.17353 -0.893598 
0.366746 0.174249 -0.91387 
0.363182 0.18425 -0.913338 
0.349043 0.205892 -0.914221 
0.341566 0.231793 -0.910838 
0.267215 0.206239 -0.94133 
0.193929 0.165047 -0.967055 
0.139415 0.129572 -0.981741 
0.0886506 0.0876919 -0.992215 
0.0652235 0.0673462 -0.995614 
0.0445194 0.0484501 -0.997847 
0.0290195 0.034358 -0.999007 
0.01778 0.0241707 -0.999564 
0.0111553 0.0170742 -0.999807 
-0.000595238 0.00795435 -0.999981 
-0.00567127 0.00215383 -0.999998 
-0.00954709 -0.00270032 -0.999966 
-0.0113192 -0.00664015 -0.999928 
-0.00863907 -0.00987529 -0.999929 
-0.00847714 -0.0119392 -0.999908 
-0.0055113 -0.012919 -0.999917 
-0.00823436 -0.0118143 -0.999911 
-0.0125235 -0.0091467 -0.999897 
-0.0140172 -0.00570317 -0.999901 
-0.0161569 -0.00269238 -0.999879 
-0.0229622 -0.00325057 -0.999749 
-0.0248323 -0.00621988 -0.999686 
-0.0288624 -0.0164972 -0.999463 
-0.0251317 -0.0279142 -0.999311 
-0.0230851 -0.0355652 -0.99912 
-0.015683 -0.0284616 -0.999498 
-0.00742548 -0.0249892 -0.999712 
0.00535183 -0.0360879 0.999383 
0.0112439 -0.0335595 0.999402 
0.0114814 -0.040637 0.999122 
0.0134197 -0.0314623 0.999431 
0.0119407 -0.016228 0.999814 
0.00927885 -0.00495427 0.999961 
0.00583562 -0.000854977 0.999999 
7.53841e-05 -0.00074043 1.00002 
-0.00513336 -0.00346606 0.999996 
-0.0082314 -0.00838964 0.999946 
-0.00979673 -0.0129935 0.999883 
-0.00658831 -0.0147315 0.999887 
-0.00878107 -0.0140294 0.999878 
-0.00711195 -0.0103923 0.999935 
-0.00942679 -0.00554726 0.999955 
-0.0135822 0.0012191 0.99992 
-0.0136863 0.0088501 0.999881 
-0.0187429 0.0172852 0.999689 
-0.0279522 0.0273588 0.999252 
-0.0419082 0.0413427 0.998281 
-0.063257 0.0642494 0.995944 
-0.086622 0.0906321 0.992129 
-0.115422 0.120302 0.986026 
-0.16144 0.164976 0.973013 
-0.216645 0.206893 0.954094 
-0.305111 0.268055 0.91383 
-0.339087 0.267969 0.9018 
-0.402493 0.295162 0.86654 
-0.447189 0.292944 0.845117 
-0.516359 0.273251 0.811637 
-0.584301 0.285228 0.759772 
-0.509757 0.223607 0.830772 
-0.36906 0.170576 0.913624 
-0.378504 0.182718 0.907395 
-0.372375 0.211447 0.903688 
-0.20376 0.36407 0.908834 
-0.14072 0.532136 0.834915 
-0.0497455 0.817897 0.573299 
-0.0104483 0.954998 0.29642 
0.0194974 0.995159 -0.0962954 
0.0601763 0.901979 -0.427563 
0.10697 0.764792 -0.63537 
0.182586 0.501098 -0.845925 
0.220425 0.359294 -0.906828 
0.289321 0.252703 -0.923284 
0.395291 0.194256 -0.897789 
0.496623 0.180583 -0.84898 
0.488388 0.201819 -0.848977 
0.511739 0.228 -0.828343 
0.452514 0.234009 -0.860516 
0.442849 0.263523 -0.857003 
0.414796 0.297947 -0.859763 
0.357915 0.293039 -0.886592 
0.281392 0.258254 -0.924204 
0.212942 0.210508 -0.954138 
0.141935 0.14414 -0.979346 
0.103898 0.107183 -0.988815 
0.0746319 0.0762089 -0.994316 
0.0549099 0.0548828 -0.996997 
0.0412321 0.0395986 -0.99838 
0.029516 0.0254271 -0.999254 
0.0179492 0.0133283 -0.999764 
0.0125984 0.00479293 -0.999927 
0.00806689 -0.00255253 -0.999976 
0.00585232 -0.00767506 -0.999968 
0.00912693 -0.0116652 -0.999903 
0.010606 -0.0138967 -0.999865 
0.0140482 -0.0143978 -0.999812 
0.0111038 -0.0117809 -0.999884 
0.00556653 -0.00728897 -0.999971 
0.00496372 -0.00139751 -1 
0.00237514 0.00288542 -1.00001 
-0.00677433 0.00222368 -0.999989 
-0.00985022 -0.000943626 -0.99997 
-0.0161992 -0.0132109 -0.999799 
-0.0147841 -0.0275662 -0.999525 
-0.0148815 -0.036861 -0.999227 
-0.0108872 -0.0298605 -0.999527 
-0.00558022 -0.0255056 -0.999704 
0.00263629 -0.0351082 0.999436 
0.00460425 -0.0208989 0.999802 
0.00578444 -0.0359037 0.999363 
0.00435196 -0.0322446 0.999486 
0.0029049 -0.0182323 0.999846 
-0.000148613 -0.00308167 1.00001 
-0.00610724 0.00581672 0.999981 
-0.0110528 0.0068688 0.999932 
-0.0161347 0.00353637 0.999879 
-0.0203544 -0.00339834 0.999802 
-0.0219894 -0.010654 0.999716 
-0.0207123 -0.0156166 0.999679 
-0.0204723 -0.0166098 0.999668 
-0.0193126 -0.014 0.99973 
-0.0198901 -0.00934975 0.999773 
-0.0221112 -0.00208374 0.999768 
-0.0256598 0.00909315 0.999643 
-0.0312189 0.0206843 0.999313 
-0.040753 0.0350284 0.99857 
-0.0543825 0.0537048 0.997091 
-0.0708855 0.0757909 0.994618 
-0.0991583 0.116167 0.988287 
-0.132389 0.15807 0.978533 
-0.179021 0.2124 0.960662 
-0.237877 0.266944 0.93391 
-0.308596 0.317229 0.896751 
-0.4009 0.381939 0.832716 
-0.451388 0.373775 0.810283 
-0.511244 0.361869 0.779546 
-0.498533 0.295841 0.814854 
-0.6225 0.354622 0.697705 
-0.657488 0.28668 0.696843 
-0.515406 0.199769 0.833359 
-0.521702 0.189532 0.831822 
-0.502088 0.190012 0.843691 
-0.381427 0.245474 0.891234 
-0.252937 0.414281 0.874326 
-0.107296 0.637136 0.763283 
-0.005405 0.969745 0.244157 
0.0267099 0.99588 -0.0867474 
0.0694723 0.914161 -0.399336 
0.184496 0.607105 -0.772916 
0.290756 0.3682 -0.88312 
0.350666 0.262643 -0.898926 
0.496578 0.198227 -0.845066 
0.563852 0.184268 -0.805071 
0.582396 0.2083 -0.78577 
0.600734 0.278649 -0.749322 
0.589497 0.345387 -0.730217 
0.543777 0.290542 -0.787343 
0.506934 0.319337 -0.800659 
0.494735 0.386086 -0.778578 
0.430686 0.371357 -0.822567 
0.349409 0.354306 -0.867409 
0.270636 0.307006 -0.912435 
0.195165 0.226038 -0.954381 
0.141161 0.165947 -0.976 
0.101711 0.116094 -0.988035 
0.0760793 0.0828669 -0.993671 
0.0586783 0.0589471 -0.996553 
0.0440309 0.0379681 -0.998321 
0.0323039 0.0206686 -0.999282 
0.0260859 0.00892577 -0.999634 
0.0206862 -0.000984939 -0.999798 
0.0187163 -0.00840861 -0.999807 
0.0206135 -0.0137205 -0.999709 
0.0227402 -0.0163156 -0.999623 
0.0240188 -0.015569 -0.999606 
0.0234865 -0.0105195 -0.999684 
0.0196643 -0.00383169 -0.999814 
0.0188297 0.0040763 -0.999829 
0.0146644 0.00955309 -0.999864 
0.00618119 0.00830565 -0.999963 
0.000689551 0.00299664 -1.00001 
-0.0056746 -0.0110764 -0.999939 
-0.00585554 -0.0255725 -0.999675 
-0.00781718 -0.036146 -0.999333 
-0.00582319 -0.0284266 -0.999608 
-0.00335981 -0.0260671 -0.999697 
-6.8231e-05 -0.0284026 0.999649 
0.00153747 -0.0254092 0.999709 
0.00192204 -0.0346946 0.999413 
-0.00230159 -0.0174588 0.99986 
-0.00515567 -0.00276673 0.999999 
-0.0107921 0.0107305 0.999901 
-0.0167502 0.0155628 0.999756 
-0.0206993 0.0120897 0.999729 
-0.024329 0.00417928 0.99971 
-0.0261671 -0.0053558 0.999658 
-0.0265307 -0.0140209 0.999564 
-0.0258033 -0.018233 0.999516 
-0.0245222 -0.0183722 0.999546 
-0.0238334 -0.0152084 0.999615 
-0.0240434 -0.00874785 0.999687 
-0.0265327 0.00255973 0.999659 
-0.0317719 0.0160124 0.999382 
-0.0396366 0.0318343 0.998722 
-0.0506455 0.0522262 0.997365 
-0.0657538 0.0794787 0.994683 
-0.0875773 0.114087 0.989619 
-0.11993 0.172937 0.977628 
-0.163229 0.23917 0.95718 
-0.225067 0.312498 0.922888 
-0.291731 0.373781 0.880459 
-0.369857 0.424462 0.826472 
-0.464614 0.470484 0.750195 
-0.520448 0.468819 0.71369 
-0.564633 0.558251 0.607903 
-0.553855 0.429609 0.713225 
-0.603519 0.388147 0.696514 
-0.685741 0.347982 0.639282 
-0.740566 0.35102 0.573025 
-0.659639 0.252074 0.708064 
-0.616335 0.186892 0.765001 
-0.535048 0.205077 0.81956 
-0.33854 0.297159 0.892845 
-0.252197 0.477115 0.841861 
-0.0427031 0.875651 0.481021 
0.0458348 0.986371 -0.157778 
0.183237 0.68553 -0.704549 
0.309466 0.448826 -0.838332 
0.413774 0.286144 -0.864246 
0.511196 0.219399 -0.831003 
0.679004 0.184083 -0.710685 
0.632102 0.199082 -0.748888 
0.630602 0.2467 -0.735858 
0.66864 0.327144 -0.667758 
0.611319 0.408443 -0.677852 
0.537141 0.382934 -0.751565 
0.546713 0.474711 -0.689757 
0.492006 0.51749 -0.700104 
0.451845 0.438748 -0.776752 
0.372638 0.43559 -0.8194 
0.29513 0.386793 -0.873673 
0.209855 0.293984 -0.932512 
0.152601 0.21753 -0.96407 
0.109721 0.150337 -0.982547 
0.0833216 0.11044 -0.990402 
0.0635241 0.073998 -0.995247 
0.0485414 0.0475146 -0.997706 
0.0375896 0.027932 -0.99892 
0.0300394 0.0108519 -0.999502 
0.0255702 -0.00154744 -0.999687 
0.0237958 -0.0101407 -0.999681 
0.024137 -0.0160392 -0.999597 
0.0256175 -0.01879 -0.99951 
0.0270276 -0.0173761 -0.999496 
0.0274505 -0.0112699 -0.999575 
0.0263766 -0.00208299 -0.999665 
0.0244656 0.00786202 -0.999686 
0.0201206 0.0155016 -0.999692 
0.0132789 0.0149674 -0.999818 
0.00795633 0.00968622 -0.999938 
0.00175659 -0.00584736 -0.999998 
-0.000575755 -0.021197 -0.999791 
-0.00318241 -0.0340531 -0.999429 
-0.00232612 -0.0258284 -0.999699 
-0.00130381 -0.0268135 -0.999712 
-0.000559798 -0.025595 0.99971 
0.000160502 -0.0250885 0.999716 
0.000194061 -0.0326663 0.999479 
-0.00333615 -0.017785 0.999855 
-0.008214 0.00405214 0.999974 
-0.0124396 0.0168308 0.999797 
-0.0171604 0.0222232 0.999623 
-0.0208898 0.0182497 0.99963 
-0.0234597 0.00860616 0.999699 
-0.0236026 -0.0033696 0.99973 
-0.0244098 -0.0140961 0.999614 
-0.0228665 -0.020039 0.999552 
-0.022634 -0.0208992 0.999537 
-0.0215784 -0.0182081 0.999615 
-0.0212649 -0.0116523 0.999722 
-0.0237654 -0.000503921 0.999729 
-0.0279882 0.0159546 0.999496 
-0.0362874 0.036109 0.9987 
-0.0463349 0.0608107 0.997088 
-0.0604747 0.0937739 0.993772 
-0.0822911 0.133676 0.987619 
-0.108484 0.197304 0.974337 
-0.147536 0.275689 0.949873 
-0.203596 0.356415 0.911891 
-0.27558 0.437744 0.855836 
-0.339168 0.507772 0.791942 
-0.384922 0.498265 0.776908 
-0.509189 0.559313 0.654141 
-0.538315 0.617181 0.573863 
-0.613596 0.541961 0.574265 
-0.606794 0.491228 0.624899 
-0.638135 0.44803 0.626148 
-0.69692 0.408733 0.589296 
-0.759807 0.310948 0.570968 
-0.646312 0.219673 0.73079 
-0.681865 0.190466 0.706243 
-0.510121 0.224134 0.830393 
-0.449743 0.240598 0.860142 
-0.098116 0.664736 0.740625 
0.0140881 0.9908 0.134861 
0.0939797 0.811059 -0.577416 
0.435762 0.289576 -0.852225 
0.545436 0.248997 -0.800271 
0.56725 0.227035 -0.79164 
0.686019 0.185283 -0.703627 
0.721903 0.24391 -0.647586 
0.722797 0.296896 -0.624039 
0.675741 0.427807 -0.600296 
0.66519 0.51714 -0.538596 
0.608762 0.478232 -0.633016 
0.561269 0.564498 -0.605249 
0.468713 0.615947 -0.633187 
0.438892 0.533277 -0.723186 
0.363634 0.522453 -0.771253 
0.289947 0.448965 -0.84522 
0.223331 0.379568 -0.897817 
0.160465 0.287602 -0.94423 
0.115245 0.198767 -0.973261 
0.0822288 0.143214 -0.98629 
0.0627742 0.0955898 -0.993454 
0.048026 0.0620427 -0.996932 
0.0362268 0.036352 -0.998693 
0.0282722 0.0153925 -0.999497 
0.023952 -0.00018679 -0.999727 
0.0220046 -0.0109318 -0.999712 
0.0212885 -0.0178573 -0.999625 
0.0218628 -0.0209427 -0.999554 
0.0232621 -0.0194402 -0.999553 
0.0237537 -0.012638 -0.999652 
0.0249256 -0.00224228 -0.999699 
0.0229793 0.0106435 -0.99969 
0.0197407 0.02013 -0.99962 
0.0152325 0.0218381 -0.999663 
0.0103149 0.0165248 -0.999826 
0.00527467 0.000123694 -1 
0.00182916 -0.017183 -0.999866 
-0.000615578 -0.0313221 -0.999527 
-0.00086251 -0.0254387 -0.999702 
-0.00064064 -0.027294 -0.999717 
-0.00015407 -0.0245714 0.999736 
-0.00038673 -0.0242586 0.999733 
-0.00156041 -0.0281938 0.999617 
-0.00408085 -0.0124517 0.999929 
-0.00757644 0.00671588 0.999962 
-0.0109946 0.0232431 0.999687 
-0.014159 0.0278774 0.999525 
-0.0163171 0.0231239 0.999613 
-0.0170193 0.0116214 0.9998 
-0.0168268 -0.00194306 0.999867 
-0.0170714 -0.0141883 0.999765 
-0.0156836 -0.0213947 0.999658 
-0.0144593 -0.0225618 0.999657 
-0.0143219 -0.019379 0.99972 
-0.0145454 -0.0114656 0.999841 
-0.0174589 0.000710353 0.99986 
-0.0203372 0.0184656 0.999636 