# vtk DataFile Version 3.0 
Exported using Morpho https://github.com/Morpho-lang/morpho 
ASCII 
DATASET UNSTRUCTURED_GRID 

POINTS 1978 float 
-8.48528 -2.82843 3.28782e-09 
-8.25444 -2.82843 6.98193e-09 
-8.02228 -2.82843 2.06799e-10 
-7.75521 -2.82843 9.78108e-10 
-7.46138 -2.82843 9.59858e-10 
-7.22647 -2.82843 9.53201e-10 
-6.98602 -2.82843 9.54661e-10 
-6.76701 -2.82843 -1.28176e-10 
-6.55481 -2.82843 2.02893e-10 
-6.33794 -2.82843 -3.55653e-11 
-6.13443 -2.82843 3.86108e-12 
-5.92475 -2.82843 -1.06176e-10 
-5.71421 -2.82843 -1.38842e-10 
-5.51181 -2.82843 -3.8654e-11 
-5.29543 -2.82843 -5.9985e-11 
-5.08329 -2.82843 -8.46466e-11 
-4.86794 -2.82843 -2.24358e-10 
-4.65629 -2.82843 -1.37968e-10 
-4.43593 -2.82843 -1.32424e-10 
-4.20846 -2.82843 -1.94919e-10 
-3.99093 -2.82843 -1.78348e-10 
-3.77937 -2.82843 -2.55503e-10 
-3.56575 -2.82843 -3.01806e-10 
-3.35538 -2.82843 -3.23734e-10 
-3.13831 -2.82843 -5.01011e-10 
-2.92836 -2.82843 -9.0325e-10 
-2.72529 -2.82843 -1.4968e-09 
-2.53127 -2.82843 -2.29618e-09 
-2.31336 -2.82843 -3.25009e-09 
-2.1057 -2.82843 -3.63384e-09 
-1.88814 -2.82843 -5.33255e-09 
-1.68578 -2.82843 -4.87221e-09 
-1.4846 -2.82843 -5.71774e-09 
-1.27457 -2.82843 -1.07373e-10 
-1.0978 -2.82843 -6.1646e-09 
-0.848897 -2.82843 -7.17626e-10 
-0.626519 -2.82843 5.31218e-09 
-0.436098 -2.82843 -1.01615e-08 
-0.212382 -2.82843 1.8874e-08 
0.0189566 -2.82843 -6.69061e-09 
0.221693 -2.82843 2.78372e-09 
0.425203 -2.82843 -3.18657e-09 
0.661359 -2.82843 -1.08172e-08 
0.874215 -2.82843 -6.70083e-09 
1.06607 -2.82843 1.14306e-09 
1.25655 -2.82843 2.24137e-09 
1.45328 -2.82843 7.42876e-09 
1.6831 -2.82843 6.31089e-09 
1.87856 -2.82843 5.20271e-09 
2.09053 -2.82843 5.44311e-09 
2.32505 -2.82843 2.61709e-09 
2.50914 -2.82843 2.72339e-09 
2.73439 -2.82843 1.67797e-09 
2.95245 -2.82843 7.73113e-10 
3.16111 -2.82843 5.77675e-10 
3.36117 -2.82843 4.67831e-10 
3.58509 -2.82843 2.80089e-10 
3.7882 -2.82843 2.67443e-10 
4.0051 -2.82843 2.1007e-10 
4.23566 -2.82843 4.41683e-11 
4.43873 -2.82843 1.93874e-10 
4.65534 -2.82843 1.0436e-10 
4.86216 -2.82843 1.55866e-10 
5.07359 -2.82843 1.91164e-10 
5.28681 -2.82843 1.4862e-10 
5.50124 -2.82843 1.20886e-10 
5.70785 -2.82843 2.16119e-10 
5.92639 -2.82843 9.84532e-11 
6.15055 -2.82843 6.50923e-11 
6.35395 -2.82843 1.53499e-10 
6.58814 -2.82843 -2.65314e-10 
6.80326 -2.82843 -5.18674e-10 
6.9999 -2.82843 -2.98745e-10 
7.25687 -2.82843 -2.5236e-10 
7.48853 -2.82843 1.40815e-09 
7.72246 -2.82843 2.12771e-10 
7.98784 -2.82843 9.39267e-10 
8.17683 -2.82843 -5.32679e-09 
8.48528 -2.82843 -5.43586e-09 
-8.48528 -2.59113 -2.5773e-09 
-8.24876 -2.58349 -7.6304e-09 
-8.00745 -2.58708 -9.90853e-10 
-7.7656 -2.61615 -8.36243e-09 
-7.50986 -2.64214 -2.65642e-09 
-7.21924 -2.59841 -1.52643e-09 
-6.98578 -2.58374 2.49237e-09 
-6.77024 -2.58188 5.83175e-09 
-6.54241 -2.59316 5.09615e-09 
-6.33157 -2.57297 2.62815e-09 
-6.11252 -2.58677 3.50773e-09 
-5.8976 -2.58494 1.65359e-09 
-5.68829 -2.57264 2.43197e-09 
-5.46933 -2.58942 1.20984e-09 
-5.25206 -2.58356 5.78686e-10 
-5.03366 -2.58641 6.04614e-11 
-4.81928 -2.58088 -5.94251e-10 
-4.59961 -2.58964 -1.29476e-09 
-4.37363 -2.59607 -1.47647e-09 
-4.15379 -2.58593 -2.46171e-09 
-3.94196 -2.57973 -3.77504e-09 
-3.73002 -2.58401 -4.84163e-09 
-3.51893 -2.58482 -6.83054e-09 
-3.30382 -2.59619 -5.85723e-09 
-3.09127 -2.59347 -9.50777e-09 
-2.88378 -2.5898 -1.21921e-08 
-2.68571 -2.58324 -1.62038e-08 
-2.47328 -2.61016 -8.04219e-09 
-2.2563 -2.59602 -1.46983e-08 
-2.041 -2.60362 -7.32761e-09 
-1.82666 -2.58087 -2.64766e-08 
-1.61893 -2.57691 -9.27706e-09 
-1.41621 -2.58697 -3.14532e-08 
-1.23665 -2.53143 5.56497e-09 
-1.0402 -2.6048 4.81379e-09 
-0.816181 -2.57875 -1.64888e-08 
-0.616266 -2.50662 1.77809e-08 
-0.402582 -2.51792 7.14565e-08 
-0.179585 -2.53215 3.89921e-08 
0.0334803 -2.49426 -2.57427e-08 
0.252826 -2.52133 -6.88918e-08 
0.477585 -2.37569 -3.5108e-08 
0.524725 -2.60216 8.62804e-09 
0.793442 -2.58962 -3.68849e-09 
1.03552 -2.5588 7.48493e-08 
1.25647 -2.56179 1.76048e-08 
1.49335 -2.61545 -2.88514e-08 
1.7143 -2.57879 2.45726e-08 
1.93088 -2.60339 7.77676e-10 
2.16831 -2.62681 6.98339e-09 
2.37556 -2.56882 1.91949e-08 
2.58402 -2.60968 -4.17786e-09 
2.80975 -2.60303 1.54937e-08 
3.01727 -2.58889 8.6688e-09 
3.22099 -2.57564 9.11133e-09 
3.43687 -2.60114 5.95534e-09 
3.64398 -2.57437 6.02761e-09 
3.85654 -2.58821 2.99369e-09 
4.08295 -2.60134 2.20114e-09 
4.29367 -2.57056 2.86593e-09 
4.50887 -2.58802 1.31282e-09 
4.72049 -2.57724 7.27726e-10 
4.93521 -2.58456 5.70462e-11 
5.15039 -2.58725 -2.54873e-10 
5.36906 -2.58875 -6.60245e-10 
5.58285 -2.57884 -1.62051e-09 
5.8 -2.59057 -1.55691e-09 
6.02569 -2.59424 -1.76603e-09 
6.24107 -2.56787 -4.42949e-09 
6.46208 -2.60092 -1.73e-09 
6.68857 -2.57995 -5.13362e-09 
6.89648 -2.55587 -8.11637e-09 
7.12006 -2.62007 2.85772e-09 
7.36901 -2.59495 -1.52388e-09 
7.60345 -2.59534 -1.65966e-09 
7.85672 -2.62083 1.35817e-08 
8.07194 -2.53104 -1.26668e-08 
8.3003 -2.64006 8.54855e-09 
8.48528 -2.51421 -1.2635e-09 
-8.48528 -2.34874 -2.04063e-09 
-8.23149 -2.35182 1.91173e-08 
-7.99143 -2.34138 3.49132e-08 
-7.75277 -2.39211 2.45577e-08 
-7.55735 -2.24528 3.76137e-08 
-7.45585 -2.45415 2.10598e-08 
-7.17472 -2.37883 2.81672e-08 
-6.94856 -2.32807 2.92046e-08 
-6.70877 -2.36119 1.87886e-08 
-6.4871 -2.34436 1.92439e-08 
-6.2479 -2.34433 1.66317e-08 
-6.02972 -2.34517 1.23562e-08 
-5.81504 -2.33424 9.63753e-09 
-5.58557 -2.34374 7.18039e-09 
-5.36811 -2.34775 4.82543e-09 
-5.14411 -2.34732 2.66864e-09 
-4.92694 -2.34007 4.05796e-10 
-4.70521 -2.34773 -2.02019e-09 
-4.48199 -2.36121 -4.76526e-09 
-4.26223 -2.35283 -8.11748e-09 
-4.04641 -2.33636 -1.18646e-08 
-3.83331 -2.3375 -1.57847e-08 
-3.62258 -2.34265 -2.14115e-08 
-3.40772 -2.35657 -2.74599e-08 
-3.19663 -2.36193 -3.52355e-08 
-2.98505 -2.35776 -4.29452e-08 
-2.78013 -2.34218 -5.29746e-08 
-2.56932 -2.37037 -6.70097e-08 
-2.35996 -2.38368 -7.53162e-08 
-2.12997 -2.36815 -7.93796e-08 
-1.91699 -2.36154 -8.81897e-08 
-1.68411 -2.33619 -7.45464e-08 
-1.46622 -2.3243 -4.14219e-08 
-1.25665 -2.2732 -3.19744e-08 
-1.03184 -2.35807 -1.55e-08 
-0.8223 -2.30024 4.09289e-09 
-0.604964 -2.21179 3.57614e-08 
-0.402467 -2.19216 1.8837e-08 
-0.188958 -2.22578 5.52844e-08 
0.0196788 -2.15254 -8.00389e-08 
0.232567 -2.2253 -1.03495e-08 
0.425767 -2.08542 -9.69387e-08 
0.667702 -2.15926 5.27478e-08 
0.771018 -2.3578 1.16238e-08 
1.00626 -2.31312 -1.88316e-08 
1.24082 -2.31111 5.76984e-08 
1.46289 -2.38685 6.69564e-08 
1.66421 -2.33484 9.70715e-08 
1.88109 -2.36262 8.68982e-08 
2.09265 -2.40938 7.36576e-08 
2.29947 -2.35941 8.90617e-08 
2.53789 -2.36074 6.30999e-08 
2.74296 -2.38979 5.30123e-08 
2.96422 -2.34889 4.57589e-08 
3.16546 -2.335 3.65172e-08 
3.38184 -2.36119 2.81057e-08 
3.58562 -2.33427 2.31576e-08 
3.79831 -2.34191 1.71725e-08 
4.01297 -2.36747 1.19756e-08 
4.22339 -2.33263 8.87717e-09 
4.44398 -2.34141 5.3902e-09 
4.65262 -2.33362 2.66795e-09 
4.86786 -2.34219 2.73793e-10 
5.08277 -2.3447 -2.06898e-09 
5.2974 -2.35266 -4.32173e-09 
5.51355 -2.34014 -6.69375e-09 
5.73349 -2.34715 -8.97144e-09 
5.95227 -2.3606 -1.11717e-08 
6.16938 -2.33153 -1.52341e-08 
6.40056 -2.35037 -1.81403e-08 
6.61384 -2.35056 -2.1737e-08 
6.83331 -2.30559 -2.60117e-08 
7.06311 -2.3624 -2.96117e-08 
7.27893 -2.38898 -3.23106e-08 
7.53272 -2.36029 -4.01048e-08 
7.77653 -2.39483 -3.25008e-08 
7.99021 -2.30248 -3.61565e-08 
8.25492 -2.36396 -1.5824e-08 
8.48528 -2.26632 1.20301e-09 
-8.48528 -2.08375 -4.76276e-10 
-8.26687 -2.11616 1.16109e-08 
-8.03742 -2.09456 1.41112e-08 
-7.79346 -2.14101 1.34822e-08 
-7.52961 -2.02495 1.18283e-08 
-7.30974 -2.21829 2.70343e-08 
-7.0676 -2.11256 1.27571e-08 
-6.80743 -2.12122 1.23429e-08 
-6.59408 -2.11555 1.08234e-08 
-6.35669 -2.12684 9.65536e-09 
-6.12843 -2.10157 5.83521e-09 
-5.91943 -2.09538 4.42494e-09 
-5.69431 -2.11323 3.40987e-09 
-5.47157 -2.10596 2.17959e-09 
-5.25378 -2.11569 1.48167e-09 
-5.03653 -2.10491 2.93678e-10 
-4.81513 -2.1097 -7.67351e-10 
-4.59371 -2.12214 -2.09023e-09 
-4.37877 -2.12198 -3.533e-09 
-4.16531 -2.10601 -4.88469e-09 
-3.95001 -2.09606 -6.02142e-09 
-3.73881 -2.09974 -7.91934e-09 
-3.52581 -2.11551 -1.10388e-08 
-3.31592 -2.12467 -1.45137e-08 
-3.10634 -2.12934 -1.8454e-08 
-2.89971 -2.11549 -2.03682e-08 
-2.68124 -2.12232 -2.4911e-08 
-2.47411 -2.14318 -3.3239e-08 
-2.25879 -2.16271 -4.58475e-08 
-2.03027 -2.12323 -3.94631e-08 
-1.80643 -2.13224 -4.0868e-08 
-1.5721 -2.08552 -2.39347e-08 
-1.36691 -2.03827 -1.35214e-08 
-1.15988 -1.9492 2.26446e-08 
-1.03321 -2.10925 -2.2262e-08 
-0.793496 -2.03432 -9.00704e-08 
-0.564969 -1.90771 1.94218e-08 
-0.317112 -1.90994 9.83563e-10 
-0.110534 -1.88652 6.44518e-08 
0.0384966 -1.66447 -1.3293e-07 
0.180416 -1.89865 8.77246e-08 
0.274769 -1.59197 2.54225e-07 
0.441064 -1.83864 3.54161e-08 
0.719621 -1.91081 -9.11016e-08 
0.943671 -2.05943 2.93078e-09 
1.18142 -2.07393 -3.1737e-09 
1.42874 -2.13178 1.9526e-08 
1.65664 -2.10236 2.42517e-08 
1.88264 -2.12677 4.71818e-08 
2.10027 -2.17026 5.5047e-08 
2.34928 -2.15771 4.27361e-08 
2.57177 -2.12478 3.17054e-08 
2.78322 -2.16149 3.25025e-08 
2.98825 -2.09774 1.71242e-08 
3.21136 -2.11439 1.49846e-08 
3.41181 -2.11237 1.20229e-08 
3.62606 -2.09858 9.04421e-09 
3.84216 -2.11154 7.82056e-09 
4.04584 -2.1194 5.99466e-09 
4.27179 -2.1028 3.84168e-09 
4.47994 -2.09514 2.29159e-09 
4.69748 -2.09786 1.26878e-09 
4.91203 -2.106 3.63439e-10 
5.12755 -2.10748 -7.16453e-10 
5.34104 -2.11462 -1.82056e-09 
5.56364 -2.10843 -2.76501e-09 
5.78352 -2.11389 -4.06078e-09 
5.99541 -2.11541 -5.57808e-09 
6.23307 -2.11008 -7.29014e-09 
6.4468 -2.10226 -8.73547e-09 
6.65823 -2.09995 -1.02865e-08 
6.9096 -2.0928 -9.48975e-09 
7.12403 -2.12186 -1.22265e-08 
7.35051 -2.16891 -2.13713e-08 
7.53883 -2.07092 -1.23868e-08 
7.72617 -2.16113 -2.02109e-08 
7.94883 -2.07207 -1.27806e-09 
8.20361 -2.13854 -1.74194e-08 
8.48528 -2.06541 3.90517e-09 
-8.48528 -1.78726 6.01307e-10 
-8.29311 -1.86251 4.49296e-09 
-7.89084 -1.89525 -1.31994e-08 
[...]
POINT_DATA 1978 
VECTORS vectors float
0.00180841 -0.00356299 0.999992 
0.00156923 -0.0571752 0.998363 
0.00146163 -0.0825586 0.996586 
0.00140617 -0.0791824 0.996861 
0.0013867 -0.067729 0.997704 
0.00135266 -0.0576595 0.998336 
0.00137624 -0.0458327 0.998949 
0.00134665 -0.0379063 0.999281 
0.00136983 -0.0309268 0.999521 
0.00134406 -0.025437 0.999676 
0.00134648 -0.0207796 0.999783 
0.0013598 -0.0167918 0.999858 
0.00134637 -0.0132403 0.999912 
0.00135952 -0.010238 0.999947 
0.00139703 -0.00724881 0.999973 
0.00139715 -0.00440557 0.99999 
0.00136467 -0.00156832 0.999998 
0.001379 0.00177229 0.999998 
0.00143316 0.00575268 0.999983 
0.0014135 0.0105669 0.999944 
0.00135277 0.0164012 0.999865 
0.00133446 0.0233411 0.999727 
0.00132725 0.0319819 0.999488 
0.00132964 0.0425635 0.999093 
0.00132542 0.0560907 0.998425 
0.00122751 0.0725107 0.997367 
0.00114122 0.0926853 0.995695 
0.00114863 0.116573 0.993182 
0.00114282 0.150232 0.98865 
0.00106276 0.190751 0.981638 
0.000923319 0.244448 0.969662 
0.000809831 0.306576 0.951846 
0.000634555 0.381329 0.924439 
0.000545624 0.476737 0.879046 
0.000384325 0.561258 0.827641 
0.000256552 0.699253 0.714874 
0.000149994 0.810558 0.585658 
-8.89111e-06 0.897856 0.440289 
1.76681e-06 0.976053 0.217534 
2.61084e-05 0.999563 -0.0295772 
5.07645e-05 0.972906 -0.231202 
-7.22337e-06 0.905763 -0.423784 
-0.000165447 0.796227 -0.604998 
-0.000261837 0.679935 -0.733273 
-0.000341556 0.575771 -0.817611 
-0.000489421 0.480751 -0.876857 
-0.000733152 0.395832 -0.918323 
-0.000795023 0.30668 -0.951812 
-0.000922249 0.247069 -0.968998 
-0.00110523 0.195458 -0.980712 
-0.00108958 0.149204 -0.988806 
-0.00112222 0.120135 -0.992757 
-0.00129453 0.0919872 -0.99576 
-0.00128122 0.0711371 -0.997466 
-0.00122295 0.0549659 -0.998488 
-0.00133285 0.0426162 -0.999091 
-0.00132881 0.0317325 -0.999496 
-0.00132468 0.0234426 -0.999725 
-0.00142193 0.0165761 -0.999862 
-0.00139195 0.0106471 -0.999943 
-0.00134286 0.00595911 -0.999982 
-0.00136244 0.00184972 -0.999998 
-0.00136359 -0.00166597 -0.999998 
-0.00138288 -0.00491735 -0.999987 
-0.00140143 -0.00784693 -0.999969 
-0.00134796 -0.0108248 -0.999941 
-0.00138569 -0.0139311 -0.999902 
-0.00142683 -0.0172371 -0.999851 
-0.00134884 -0.021159 -0.999776 
-0.00141066 -0.0256888 -0.999669 
-0.00141005 -0.0315292 -0.999502 
-0.00124873 -0.0390923 -0.999235 
-0.00135296 -0.048068 -0.998844 
-0.00141654 -0.0612631 -0.998122 
-0.00137432 -0.0742557 -0.997239 
-0.00141037 -0.0843304 -0.996438 
-0.00123869 -0.0914248 -0.995812 
-0.00172335 -0.0738312 -0.99727 
-0.00263473 -0.00258195 -0.999994 
-0.000219154 -0.0028357 0.999996 
0.0123585 -0.0477397 0.998783 
0.022062 -0.0729537 0.997091 
0.0237978 -0.0774523 0.996712 
0.0232374 -0.0685793 0.997375 
0.0278592 -0.0553104 0.99808 
0.0310536 -0.0460718 0.998455 
0.0322887 -0.0381122 0.998752 
0.0323499 -0.0305646 0.999009 
0.0346732 -0.0249923 0.999086 
0.0343055 -0.0202643 0.999206 
0.0340577 -0.0160424 0.999291 
0.0357593 -0.0124269 0.999283 
0.0340742 -0.00930065 0.999376 
0.0346835 -0.0063729 0.999378 
0.0342373 -0.00344638 0.999408 
0.0347429 -0.00041526 0.999396 
0.0334509 0.00309892 0.999436 
0.0323409 0.00743012 0.999449 
0.0335528 0.0125815 0.999358 
0.0339981 0.018561 0.99925 
0.0332194 0.0258581 0.999114 
0.0328995 0.0348569 0.998851 
0.0309121 0.0462774 0.99845 
0.0307662 0.0604863 0.997695 
0.0302197 0.0778944 0.996503 
0.0295648 0.0985462 0.994693 
0.0247852 0.125971 0.991724 
0.0237127 0.162016 0.986503 
0.0202258 0.207493 0.978027 
0.0190937 0.264367 0.964233 
0.0158097 0.332749 0.942883 
0.0124571 0.413905 0.910235 
0.0118489 0.496848 0.867757 
0.00623983 0.602225 0.798302 
0.00483308 0.723332 0.690483 
0.00389827 0.823043 0.567966 
0.0023332 0.915753 0.401736 
0.00132085 0.979869 0.199635 
0.000669617 0.999837 -0.0180554 
-0.000556237 0.969124 -0.246575 
-0.00527534 0.891425 -0.453137 
-0.00228495 0.865385 -0.501103 
-0.00555832 0.715304 -0.698791 
-0.00947385 0.584816 -0.811111 
-0.0119003 0.478407 -0.878058 
-0.0123064 0.375945 -0.92656 
-0.0176769 0.297339 -0.954608 
-0.018858 0.234115 -0.972026 
-0.0203217 0.179787 -0.983496 
-0.0274437 0.142653 -0.989392 
-0.0245882 0.111597 -0.993449 
-0.0282105 0.0853105 -0.995955 
-0.0303238 0.0665021 -0.997325 
-0.0327677 0.0519304 -0.998113 
-0.0308032 0.0393653 -0.99875 
-0.0340161 0.0298019 -0.998977 
-0.0326719 0.0218112 -0.999228 
-0.0315606 0.0148398 -0.999392 
-0.0355191 0.00955612 -0.999323 
-0.0338301 0.00498728 -0.999415 
-0.0352716 0.00115297 -0.999377 
-0.0346715 -0.00234913 -0.999396 
-0.0343005 -0.00555161 -0.999396 
-0.0343615 -0.00864817 -0.999372 
-0.0354603 -0.0116129 -0.999304 
-0.033621 -0.0148565 -0.999324 
-0.0329922 -0.0186708 -0.999281 
-0.0356764 -0.022843 -0.999102 
-0.0309127 -0.0282013 -0.999124 
-0.0331734 -0.0351979 -0.99883 
-0.0349603 -0.0431048 -0.998459 
-0.0267365 -0.0532079 -0.998226 
-0.029432 -0.0655837 -0.997413 
-0.0286443 -0.0765656 -0.996653 
-0.0238973 -0.0843224 -0.996152 
-0.0257215 -0.0702309 -0.997199 
-0.00736232 -0.040838 -0.999139 
0.000245828 -0.00160237 -0.999999 
0.00117394 -0.00186968 0.999998 
0.022222 -0.0440594 0.998782 
0.0402775 -0.0719179 0.996597 
0.0425591 -0.075026 0.996273 
0.0513433 -0.0676853 0.996385 
0.0404365 -0.0645141 0.997097 
0.0487979 -0.0531903 0.997391 
0.053833 -0.0445684 0.997555 
0.0525875 -0.0359445 0.997969 
0.0552649 -0.0287171 0.998059 
0.0567948 -0.0225848 0.99813 
0.0569134 -0.0179342 0.998218 
0.057592 -0.0140604 0.998241 
0.0576624 -0.0106009 0.99828 
0.0576303 -0.0075815 0.998309 
0.0575341 -0.0045509 0.998333 
0.0577402 -0.00151002 0.998331 
0.057043 0.00186695 0.99837 
0.0558563 0.00578873 0.998422 
0.0558871 0.0104397 0.998383 
0.0562142 0.0160021 0.998291 
0.0555199 0.0226753 0.9982 
0.0548064 0.0307968 0.998022 
0.0533664 0.0410632 0.99773 
0.0520866 0.0536763 0.997199 
0.0507876 0.069643 0.996278 
0.0495345 0.089049 0.994795 
0.045852 0.113862 0.992438 
0.0415807 0.145054 0.98855 
0.0373477 0.189385 0.981192 
0.0327932 0.241268 0.969904 
0.0273439 0.31239 0.94956 
0.0217662 0.393652 0.919002 
0.0176213 0.487781 0.872788 
0.011938 0.601461 0.798813 
0.00931512 0.707828 0.706324 
0.00620996 0.820119 0.572159 
0.00297399 0.910032 0.414527 
-0.000280879 0.976978 0.213341 
-0.00412452 0.999958 -0.00818262 
-0.00536722 0.974192 -0.225659 
-0.00876277 0.906466 -0.422189 
-0.00986756 0.79422 -0.60755 
-0.00906368 0.733628 -0.67949 
-0.0139348 0.598712 -0.800843 
-0.0186834 0.483357 -0.875224 
-0.0222836 0.387563 -0.921574 
-0.0287351 0.317123 -0.947949 
-0.032759 0.250133 -0.967657 
-0.0354577 0.197123 -0.979737 
-0.0422255 0.156232 -0.986818 
-0.0449575 0.11873 -0.991908 
-0.0465151 0.0931972 -0.994561 
-0.0506335 0.0715155 -0.996153 
-0.0528511 0.0561913 -0.99702 
-0.0527879 0.0428519 -0.997686 
-0.0551474 0.0328315 -0.997938 
-0.0553199 0.024347 -0.998172 
-0.0543737 0.0173159 -0.998371 
-0.0569383 0.0117534 -0.998309 
-0.056927 0.00680808 -0.998355 
-0.0577123 0.00281358 -0.998329 
-0.0576851 -0.000831172 -0.998335 
-0.0578286 -0.00408704 -0.998318 
-0.0576108 -0.00714022 -0.998314 
-0.0583629 -0.0101282 -0.998244 
-0.0576593 -0.0133444 -0.998247 
-0.0564167 -0.01692 -0.998264 
-0.0576456 -0.0209569 -0.998117 
-0.0556163 -0.0263797 -0.998104 
-0.0547566 -0.0327006 -0.997964 
-0.0558343 -0.0406751 -0.997611 
-0.0520018 -0.0502736 -0.997381 
-0.0493409 -0.0599699 -0.99698 
-0.0492912 -0.0705191 -0.996292 
-0.0454051 -0.0797592 -0.995779 
-0.0443864 -0.074555 -0.996229 
-0.0212189 -0.042017 -0.998892 
-0.00109499 -0.00279848 -0.999996 
0.00136866 0.000339229 1 
0.0200248 -0.0379681 0.999078 
0.0383198 -0.0657831 0.997098 
0.0475552 -0.0745906 0.99608 
0.0489858 -0.0663919 0.99659 
0.0536389 -0.0587327 0.996832 
0.0543003 -0.0494927 0.997297 
0.0560402 -0.0392661 0.997656 
0.0573294 -0.0318783 0.997846 
0.0586733 -0.0249577 0.997965 
0.0585198 -0.0195456 0.998095 
0.0588637 -0.0155352 0.998145 
0.0595911 -0.0119361 0.998151 
0.0594998 -0.00868896 0.99819 
0.059617 -0.00569318 0.998205 
0.0591838 -0.00269658 0.998243 
0.0590443 0.000551192 0.998255 
0.0589488 0.00420922 0.998252 
0.0583915 0.00838276 0.998259 
0.0575531 0.0133833 0.998253 
0.0566471 0.0195302 0.998203 
0.0559702 0.0268534 0.998071 
0.0554775 0.035963 0.997812 
0.0545182 0.0471096 0.997401 
0.0531192 0.0610572 0.99672 
0.0508972 0.0784282 0.99562 
0.0483233 0.101498 0.993661 
0.0454645 0.129118 0.990586 
0.041744 0.165497 0.985327 
0.0360119 0.215509 0.975838 
0.0306365 0.27671 0.960465 
0.0239609 0.356096 0.934142 
0.0187259 0.438667 0.898454 
0.0135086 0.540193 0.841433 
0.0129787 0.590682 0.8068 
0.00861536 0.721204 0.69267 
0.00451535 0.838588 0.544747 
-0.000119399 0.944475 0.328582 
-0.00417453 0.993996 0.109338 
-0.00506209 0.998377 -0.0567236 
-0.00783782 0.979066 -0.203393 
-0.00722954 0.951482 -0.30762 
-0.00885039 0.889833 -0.456199 
-0.0106008 0.754088 -0.656688 
-0.0132963 0.633453 -0.773667 
-0.0167879 0.51596 -0.856449 
-0.0224492 0.410605 -0.911537 
-0.0274604 0.329114 -0.943891 
-0.03345 0.255102 -0.966335 
-0.0387753 0.197425 -0.979551 
-0.0438265 0.148203 -0.987986 
-0.0469467 0.114737 -0.992286 
-0.0502772 0.0894225 -0.994724 
-0.0512832 0.0707421 -0.996175 
-0.0534849 0.054033 -0.997106 
-0.0545832 0.0420715 -0.997622 
-0.0555303 0.0317874 -0.997951 
-0.0566945 0.0233608 -0.998118 
-0.0573716 0.0169341 -0.998209 
-0.0578263 0.011094 -0.998265 
-0.0580125 0.00657894 -0.998294 
-0.058552 0.00248617 -0.998281 
-0.0591112 -0.00107616 -0.998251 
-0.0593979 -0.00427212 -0.998225 
-0.0597198 -0.0072811 -0.998189 
-0.0597325 -0.0103989 -0.99816 
-0.0596572 -0.0136927 -0.998125 
-0.0593451 -0.017276 -0.998088 
-0.0589014 -0.0220961 -0.998019 
-0.0578903 -0.0275343 -0.997943 
-0.057011 -0.03428 -0.997785 
-0.0557482 -0.043983 -0.997476 
-0.0548829 -0.0529776 -0.997086 
-0.0542678 -0.0623234 -0.99658 
-0.0514232 -0.0689552 -0.996293 
-0.0510382 -0.0758977 -0.995808 
-0.0453838 -0.0757727 -0.996092 
-0.0295671 -0.0484212 -0.998389 
-0.000636681 -0.00322793 -0.999994 
0.00129035 0.000168294 1 
0.0146771 -0.0342763 0.999305 
0.0398063 -0.0752864 0.996367 
0.0430393 -0.0719581 0.996479 
0.042887 -0.0636036 0.997053 
0.0501108 -0.0586279 0.997021 
0.0469628 -0.0536607 0.997454 
0.0507791 -0.0448187 0.997704 
0.0505771 -0.0359209 0.998074 
0.0529212 -0.0285451 0.998191 
0.0531896 -0.0224498 0.998332 
0.0522288 -0.0176151 0.99848 
0.0534213 -0.0136867 0.998478 
0.053679 -0.0103364 0.998505 
0.0534167 -0.00715593 0.998547 
0.0532468 -0.0042678 0.998572 
0.0529892 -0.00112848 0.998594 
0.052915 0.00233381 0.998596 
0.052567 0.0061658 0.998598 
0.0518377 0.0105888 0.998599 
0.0509907 0.0159886 0.998571 
0.0501372 0.0225473 0.998488 
0.0498064 0.0304714 0.998294 
0.0492977 0.0400231 0.997982 
0.0484697 0.0518885 0.997476 
0.0469401 0.0664738 0.996683 
0.0448674 0.0859023 0.995293 
0.0420553 0.110134 0.993027 
0.039457 0.140198 0.989337 
0.0358995 0.180077 0.982997 
0.0299009 0.238656 0.970644 
0.0251354 0.303858 0.952386 
0.0193853 0.37763 0.925753 
0.0149475 0.466734 0.884272 
0.00912906 0.666417 0.745523 
0.00499646 0.783344 0.621568 
0.000732548 0.910071 0.414451 
-0.000333252 0.952254 0.305306 
-0.00203595 0.980871 0.194649 
-0.00343561 0.999846 -0.0172352 
-0.00596989 0.982095 -0.188291 
-0.00761487 0.9098 -0.414976 
-0.00887058 0.830685 -0.556673 
-0.0100513 0.717591 -0.696392 
-0.012047 0.612065 -0.790715 
-0.0152482 0.508776 -0.860764 
-0.0191477 0.433245 -0.901073 
-0.0220825 0.362554 -0.931701 
-0.0273055 0.282662 -0.958831 
-0.0327882 0.217886 -0.975423 
-0.0375232 0.170282 -0.984681 
-0.0405693 0.131723 -0.990456 
-0.0439074 0.0989034 -0.994128 
-0.0450604 0.0795919 -0.995808 
-0.0473306 0.0602635 -0.99706 
-0.0481491 0.0466914 -0.997748 
-0.0492467 0.0360313 -0.998136 
-0.0503046 0.0266621 -0.998378 
-0.0507827 0.0194904 -0.998519 
-0.0518402 0.0136143 -0.998563 
-0.0513588 0.00848667 -0.998644 
-0.0521452 0.00421903 -0.998631 
-0.0526459 0.000398258 -0.998613 
-0.0530776 -0.00289606 -0.998586 
-0.0533957 -0.00601661 -0.998555 
-0.0537762 -0.00900941 -0.998512 
-0.0536849 -0.0122901 -0.998482 
-0.0532936 -0.015834 -0.998453 
-0.0536813 -0.0201223 -0.998355 
-0.0520798 -0.0256778 -0.998313 
-0.0511489 -0.0323321 -0.998167 
-0.0511348 -0.0405881 -0.997867 
-0.0491109 -0.0508959 -0.997496 
-0.0493135 -0.0598276 -0.99699 
-0.04553 -0.0680935 -0.996639 
-0.044226 -0.0755867 -0.996158 
-0.0363127 -0.0704995 -0.996851 
-0.0232459 -0.0434259 -0.998786 
-0.000653984 -0.00336265 -0.999994 
0.000803127 -0.00201172 0.999998 
0.0142129 -0.0375099 0.999195 
0.0280359 -0.0584409 0.997897 
0.0338561 -0.0764705 0.996497 
0.0373805 -0.0718397 0.996715 
0.0400221 -0.0593094 0.997437 
0.0427869 -0.0489278 0.997885 
0.0445159 -0.0408307 0.998174 
0.0452413 -0.0310796 0.998492 
0.0461774 -0.0248268 0.998625 
0.0454396 -0.0195523 0.998776 
0.0455622 -0.0148425 0.998851 
0.0461058 -0.0113635 0.998872 
0.0462903 -0.00820322 0.998894 
0.0454873 -0.00513064 0.998952 
0.0457072 -0.00214665 0.998953 
0.0456014 0.00125836 0.998959 
0.0450823 0.00505133 0.99897 
0.0443327 0.00931066 0.998973 
0.0437391 0.0143453 0.99894 
0.0430398 0.0205291 0.998862 
0.0426456 0.0281235 0.998694 
0.0422793 0.0371557 0.998415 
0.0418647 0.0482031 0.99796 
0.0406767 0.0619257 0.997251 
0.0393657 0.0795979 0.996049 
0.0369277 0.10272 0.994025 
0.0342306 0.133196 0.990498 
0.0317317 0.170438 0.984857 
0.0276156 0.221071 0.974867 
0.0217229 0.296543 0.954772 
0.016397 0.380302 0.924717 
0.0121566 0.48144 0.876395 
0.00668693 0.591731 0.806108 
0.0102234 0.582457 0.812797 
0.00495514 0.699168 0.714941 
0.000916253 0.854624 0.519246 
0.000444414 0.87452 0.48499 
-0.0021393 0.985791 0.167963 
0.00255501 0.997417 -0.0717853 
-0.002729 0.999936 -0.0110027 
-0.004533 0.963192 -0.268776 
-0.00762265 0.87064 -0.491862 
-0.00884819 0.784097 -0.620575 
-0.0101858 0.646159 -0.763134 
-0.0123668 0.540307 -0.841377 
-0.0160853 0.427881 -0.903692 
-0.0203367 0.33586 -0.941692 
-0.0251784 0.257942 -0.965832 
-0.0294431 0.200712 -0.979208 
-0.0332816 0.158625 -0.986778 
-0.0373926 0.11845 -0.992256 
-0.0367588 0.0940054 -0.994893 
-0.0402291 0.0721076 -0.996585 
-0.0408688 0.0561813 -0.997584 
-0.041247 0.0436214 -0.998196 
-0.0427942 0.0330887 -0.998536 
-0.0430431 0.0248268 -0.998765 
-0.0435042 0.0179518 -0.998892 
-0.0444706 0.0123647 -0.998934 
-0.0438619 0.00736923 -0.99901 
-0.0448976 0.00320504 -0.998986 
-0.0449733 -0.000376334 -0.998988 
-0.0456829 -0.0036437 -0.998949 
-0.0457852 -0.00665965 -0.998929 
-0.046514 -0.00971958 -0.99887 
-0.0461012 -0.0129719 -0.998852 
-0.0460798 -0.0168458 -0.998796 
-0.0463086 -0.0213615 -0.998699 
-0.0444903 -0.0272603 -0.998638 
-0.0441948 -0.0349296 -0.998412 
-0.0447466 -0.0440053 -0.998029 
-0.0419424 -0.0530924 -0.997708 
-0.0428717 -0.0608771 -0.997224 
-0.0390406 -0.0690875 -0.996846 
-0.0381727 -0.0756452 -0.996404 
-0.0310726 -0.0714814 -0.996958 
-0.0178383 -0.0393073 -0.999068 
-0.000530582 -0.00326522 -0.999995 
0.00048857 -0.00341643 0.999994 
0.0142631 -0.0439741 0.998931 
0.0256317 -0.0676313 0.997381 
0.0292595 -0.0763093 0.996655 
0.0344541 -0.0674356 0.997128 
0.0318864 -0.0616947 0.997586 
0.0358255 -0.053199 0.997941 
0.0349747 -0.0433092 0.998449 
0.0384341 -0.0353873 0.998634 
0.0367489 -0.0274637 0.998947 
0.037011 -0.022008 0.999072 
0.037552 -0.0169048 0.999152 
0.0368329 -0.0128364 0.999239 
0.0373481 -0.00961952 0.999256 
0.0373085 -0.00664978 0.999282 
0.0365018 -0.00359131 0.999327 
0.0370424 -0.000514479 0.999314 
0.0365738 0.00297728 0.999326 
0.0355915 0.0068677 0.999343 
0.0349893 0.0113809 0.999323 
0.0347756 0.0168304 0.999253 
0.0344132 0.0235249 0.999131 
0.0339915 0.0315537 0.998924 
0.0337833 0.0412576 0.998577 
0.0333281 0.0530906 0.998033 
0.0324685 0.0684891 0.997123 
0.0311846 0.0881667 0.995618 
0.0291466 0.115198 0.992915 
0.0266293 0.150689 0.988223 
0.0245578 0.194642 0.980567 
0.0209215 0.257374 0.966085 
0.0152839 0.342643 0.939341 
0.0100598 0.456978 0.889421 
0.00624984 0.572097 0.820162 
0.00183505 0.759605 0.650382 
0.00238844 0.83014 0.55755 
8.13348e-06 0.935888 0.352298 
0.00566215 0.932309 0.361619 
0.00346677 0.982723 0.185047 
0.00681667 0.990856 0.134752 
-0.000286545 0.998322 -0.0579152 
0.00071938 0.97516 -0.221501 
-0.00353511 0.91036 -0.413802 
-0.00657948 0.779872 -0.625904 
-0.00859135 0.702542 -0.711591 
-0.00993799 0.552986 -0.833131 
-0.0124882 0.440242 -0.897792 
-0.0157259 0.350109 -0.936577 
-0.0199188 0.271202 -0.962316 
-0.0234507 0.208333 -0.977777 
-0.0264249 0.161747 -0.986478 
-0.0306811 0.128316 -0.991259 
-0.0286639 0.108017 -0.993736 
-0.0318507 0.0818033 -0.99614 
-0.0328919 0.0643045 -0.997388 
-0.0328946 0.049852 -0.998215 
-0.0339892 0.0378459 -0.998705 
-0.0343581 0.0288382 -0.998993 
-0.0346886 0.021218 -0.999173 
-0.0351261 0.0148944 -0.999272 
-0.0357062 0.0098139 -0.999314 
-0.0356247 0.00495011 -0.999353 
-0.0359284 0.0012181 -0.999354 
-0.0364787 -0.00227478 -0.999332 
-0.0366845 -0.00534044 -0.999313 
-0.0373672 -0.00842231 -0.999266 
-0.0374561 -0.0115212 -0.999232 
-0.0375885 -0.0152408 -0.999177 
-0.0374619 -0.0197453 -0.999103 
-0.0367677 -0.0250202 -0.999011 
-0.036218 -0.0327232 -0.998808 
-0.0368578 -0.0422735 -0.998426 
-0.0350353 -0.0532452 -0.997967 
-0.0350248 -0.0632926 -0.99738 
-0.0312536 -0.0712465 -0.996969 
-0.0315961 -0.0768787 -0.99654 
-0.025515 -0.0744278 -0.9969 
-0.017575 -0.0457839 -0.998797 
-0.000384262 -0.00337277 -0.999995 
0.000316844 -0.00401364 0.999992 
0.0110223 -0.044214 0.998961 
0.0226208 -0.0745189 0.996963 
0.0220523 -0.077639 0.996738 
0.0272146 -0.0712635 0.997086 
0.0253572 -0.0631938 0.997679 
0.0279112 -0.0517435 0.99827 
0.0266347 -0.0415384 0.998782 
0.029529 -0.0333675 0.999007 
0.0266416 -0.026506 0.999294 
0.0285675 -0.0204735 0.999382 
0.0287322 -0.0156724 0.999464 
0.0275217 -0.0118135 0.999551 
0.0281579 -0.00870677 0.999566 
0.0282809 -0.00567256 0.999584 
0.0272842 -0.00251719 0.999624 
0.0277434 0.000693711 0.999615 
0.0268702 0.00433479 0.999629 
0.0260017 0.00853446 0.999625 
0.0258943 0.013589 0.999572 
0.025928 0.0196002 0.999472 
0.0256219 0.0268748 0.99931 
0.0253575 0.0357134 0.99904 
0.0251495 0.0463936 0.998607 
0.0249512 0.0598579 0.997895 
0.0241479 0.0772824 0.996717 
0.0231703 0.100247 0.994693 
0.0213802 0.131154 0.991131 
0.019372 0.172898 0.984749 
0.0180317 0.224329 0.974347 
0.0150027 0.290043 0.956896 
0.010355 0.392459 0.919711 
0.00708856 0.496541 0.867985 
0.00536762 0.613239 0.789879 
0.00392742 0.684816 0.728706 
0.00377236 0.8668 0.498642 
0.00676445 0.960336 0.278765 
0.0122818 0.994632 0.102745 
0.00959301 0.997372 0.0718169 
0.00524291 0.999971 0.00558751 
0.00413974 0.999346 -0.035912 
0.00363797 0.998374 -0.0568859 
-0.00544086 0.932547 -0.361007 
-0.00318178 0.864915 -0.501909 
-0.00763332 0.611713 -0.791043 
-0.00496585 0.560659 -0.828032 
-0.0084543 0.485713 -0.874077 
-0.0102482 0.387836 -0.921671 
-0.013544 0.30794 -0.95131 
-0.0168855 0.239422 -0.970769 
-0.0190746 0.182294 -0.983059 
-0.021967 0.137929 -0.990198 
-0.0232183 0.098346 -0.994881 
-0.0240222 0.0768906 -0.99675 
-0.0250566 0.0597838 -0.997897 
-0.0253969 0.0452816 -0.998651 
-0.025424 0.0347707 -0.999072 
-0.0258444 0.0261189 -0.999325 
-0.0261076 0.018945 -0.99948 
-0.0260561 0.0130967 -0.999575 
-0.0273989 0.00800413 -0.999592 
-0.0263163 0.00369155 -0.999647 
-0.0272129 -3.51947e-05 -0.99963 
-0.027126 -0.00325815 -0.999627 
-0.0277775 -0.0063405 -0.999594 
-0.0278826 -0.00928001 -0.999568 
-0.0285141 -0.012577 -0.999514 
-0.0285989 -0.0164488 -0.999456 
-0.0278443 -0.021028 -0.999391 
-0.028466 -0.0274257 -0.999218 
-0.0273492 -0.0352451 -0.999004 
-0.0290537 -0.0435371 -0.998629 
-0.0263957 -0.0527541 -0.998259 
-0.0279961 -0.0619243 -0.997688 
-0.0247141 -0.0703847 -0.997214 
-0.0239597 -0.0776119 -0.996696 
-0.0190461 -0.0728305 -0.997162 
-0.0121397 -0.0410788 -0.999082 
-0.000327692 -0.00363854 -0.999994 
0.000184871 -0.0041835 0.999991 
0.00784963 -0.0456839 0.998925 
0.0166194 -0.0733816 0.997165 
0.0166082 -0.07825 0.996795 
0.0207419 -0.0709117 0.997267 