# vtk DataFile Version 3.0 
Exported using Morpho https://github.com/Morpho-lang/morpho 
ASCII 
DATASET UNSTRUCTURED_GRID 

POINTS 1978 float 
-8.44933 -2.78217 -0.0005291 
-8.21955 -2.79704 0.000213297 
-8.04167 -2.79495 -0.0039612 
-7.79334 -2.78194 -0.00356287 
-7.46377 -2.77202 -0.00274655 
-7.19843 -2.78175 -0.00049423 
-6.9993 -2.78809 -0.000600557 
-6.76332 -2.78221 -0.000475636 
-6.51026 -2.78834 -0.000278971 
-6.34501 -2.79713 -8.79482e-05 
-6.1796 -2.78811 -0.000965245 
-5.95026 -2.78328 -0.000352183 
-5.72523 -2.77923 -0.000304949 
-5.51613 -2.78222 -0.000103751 
-5.29426 -2.78096 0.00010217 
-5.08168 -2.78217 -5.35302e-05 
-4.86097 -2.78253 7.65704e-05 
-4.65736 -2.78163 7.32991e-05 
-4.43609 -2.78342 0.000130092 
-4.22239 -2.78332 0.000459164 
-4.00479 -2.78528 0.000487378 
-3.79661 -2.78346 0.000388097 
-3.57958 -2.78236 0.000340089 
-3.36713 -2.78166 0.000875803 
-3.13493 -2.78243 0.00133779 
-2.92063 -2.78496 0.00146147 
-2.6993 -2.79171 0.00144756 
-2.50212 -2.79914 0.00184296 
-2.29385 -2.80115 0.00239008 
-2.0795 -2.80444 0.00296513 
-1.87204 -2.80816 0.00334869 
-1.66626 -2.81175 0.00284395 
-1.47109 -2.8195 0.00267371 
-1.25942 -2.81809 0.00139237 
-1.07029 -2.81165 0.000831748 
-0.826487 -2.81383 -0.000355433 
-0.613451 -2.80642 -0.000437204 
-0.441145 -2.79615 -0.00133916 
-0.198683 -2.78449 -3.45774e-05 
0.0525661 -2.77484 -0.000880102 
0.224175 -2.79912 0.00168024 
0.390419 -2.79887 0.00106032 
0.593993 -2.80284 -0.00023879 
0.848463 -2.81824 0.000621484 
1.0626 -2.81262 -0.000356769 
1.24068 -2.82703 -0.00103162 
1.41849 -2.82016 -0.00316524 
1.66945 -2.81754 -0.00265935 
1.84339 -2.80932 -0.00387663 
2.07645 -2.80131 -0.00283115 
2.30481 -2.80043 -0.00245562 
2.49035 -2.79726 -0.00209838 
2.72365 -2.79003 -0.00150733 
2.94725 -2.78987 -0.00144188 
3.16353 -2.78413 -0.00108842 
3.3757 -2.78238 -0.000644318 
3.6042 -2.78438 -0.000515822 
3.80586 -2.78271 -0.000484835 
4.02074 -2.78114 -0.000578754 
4.25061 -2.78339 -0.000240017 
4.44723 -2.78355 -0.000109962 
4.65783 -2.78414 -5.51239e-05 
4.86814 -2.78329 -0.000202662 
5.06915 -2.78477 -0.000198064 
5.28848 -2.78315 0.000147438 
5.49907 -2.78452 0.000160845 
5.70287 -2.78372 7.3194e-05 
5.92447 -2.78396 0.000301129 
6.14657 -2.78546 0.000152965 
6.3442 -2.78506 0.000459323 
6.58843 -2.78568 0.000540944 
6.79412 -2.78815 0.000778115 
6.99194 -2.78506 0.000503223 
7.25839 -2.7799 0.00134366 
7.48689 -2.78751 0.00235693 
7.72615 -2.79352 0.00174416 
7.97229 -2.79881 0.00180172 
8.14525 -2.79567 -0.000315892 
8.42942 -2.76295 -0.000223036 
-8.4508 -2.54366 0.0018028 
-8.24883 -2.58628 -0.000538873 
-8.01692 -2.51494 -9.51975e-05 
-7.83748 -2.58263 -0.000103014 
-7.56854 -2.61892 0.000326775 
-7.2522 -2.5872 -0.00043818 
-7.00067 -2.53486 -0.000254439 
-6.80111 -2.5699 -9.94193e-06 
-6.55917 -2.5911 -0.000271474 
-6.32993 -2.50412 -6.07053e-05 
-6.11947 -2.57441 0.000237913 
-5.89302 -2.56564 -0.000193034 
-5.67863 -2.54362 -0.000555884 
-5.46088 -2.56096 -0.000184006 
-5.24487 -2.55195 -0.000151864 
-5.02554 -2.56453 -4.74423e-05 
-4.81823 -2.5482 -0.000383091 
-4.59916 -2.56766 2.57917e-05 
-4.38182 -2.56175 0.000137925 
-4.16285 -2.56276 9.11717e-06 
-3.95391 -2.55121 -9.88339e-05 
-3.73957 -2.55665 -2.17134e-05 
-3.52611 -2.54769 0.000189706 
-3.30259 -2.56652 4.79245e-05 
-3.08644 -2.55559 5.53849e-05 
-2.86739 -2.57114 0.000188069 
-2.66394 -2.56277 0.000695667 
-2.45756 -2.58782 0.000603931 
-2.2403 -2.59689 0.000693112 
-2.02842 -2.59251 0.000670239 
-1.81952 -2.59138 0.000661468 
-1.61494 -2.58022 0.000358315 
-1.40641 -2.60157 0.000416703 
-1.21 -2.56604 1.14781e-05 
-0.982444 -2.61537 -0.000228579 
-0.765114 -2.57852 -0.00103256 
-0.58988 -2.50405 -0.000925422 
-0.399189 -2.51142 -0.00199386 
-0.208492 -2.55808 -0.00110956 
-0.0085449 -2.49196 0.00154515 
0.201 -2.45625 0.000253475 
0.407537 -2.51944 0.000853862 
0.614702 -2.53841 0.00108687 
0.80981 -2.61754 0.0004209 
1.0506 -2.59426 0.000288116 
1.27225 -2.57728 -0.000170412 
1.5049 -2.64751 -0.000600588 
1.69202 -2.5678 -0.000408473 
1.91005 -2.61886 -0.00105385 
2.14681 -2.60701 -0.000718484 
2.34339 -2.55696 -0.000449544 
2.56131 -2.59776 -0.000422311 
2.79024 -2.57843 -0.00015008 
3.00336 -2.56524 -2.92004e-05 
3.21672 -2.55284 -0.000170884 
3.44209 -2.56798 -0.000266524 
3.64938 -2.54306 -0.000134506 
3.86484 -2.558 0.000195672 
4.09575 -2.57273 7.67071e-05 
4.30435 -2.54053 -5.79902e-05 
4.51716 -2.56043 4.19997e-05 
4.73202 -2.56025 0.000256006 
4.94287 -2.5482 0.000382159 
5.156 -2.56767 -9.00706e-05 
5.37639 -2.55731 -0.000106015 
5.58686 -2.54843 0.000309764 
5.80287 -2.56547 0.000491546 
6.0288 -2.56459 2.33199e-05 
6.24142 -2.53498 -0.000125871 
6.46163 -2.58229 0.000737588 
6.68842 -2.54352 0.000455729 
6.89267 -2.53188 9.85587e-06 
7.11801 -2.59262 9.97605e-05 
7.37074 -2.56143 9.19701e-05 
7.60547 -2.57936 0.000423496 
7.85224 -2.59388 -0.000403835 
8.05252 -2.50927 0.000846637 
8.25935 -2.60704 0.0005157 
8.4445 -2.4889 -0.000736216 
-8.44689 -2.36451 0.00283048 
-8.16682 -2.35107 0.00039975 
-7.91856 -2.27052 0.000661566 
-7.71509 -2.40761 -0.000879661 
-7.56723 -2.26162 -0.00101641 
-7.42307 -2.44099 0.000406512 
-7.16053 -2.36304 0.000223217 
-6.93272 -2.28846 -0.000496849 
-6.70955 -2.37281 -0.000328969 
-6.4948 -2.34968 -0.000169107 
-6.21785 -2.30785 7.15884e-05 
-6.01626 -2.35008 6.26908e-05 
-5.79945 -2.32482 -0.000304283 
-5.57142 -2.32366 0.000133406 
-5.36076 -2.32993 0.000505927 
-5.13531 -2.33597 0.000438917 
-4.92707 -2.32267 0.00024506 
-4.70287 -2.34044 0.000269622 
-4.48751 -2.34268 0.000293642 
-4.26548 -2.34244 0.000344309 
-4.05174 -2.3231 0.000198248 
-3.83555 -2.32412 0.000466818 
-3.62357 -2.3198 0.000430027 
-3.39851 -2.33481 0.000357104 
-3.18457 -2.33136 0.000329053 
-2.96288 -2.34381 0.00043549 
-2.75604 -2.33622 0.000570073 
-2.54499 -2.35503 0.000416879 
-2.33836 -2.38596 0.000207371 
-2.12174 -2.38088 0.000444901 
-1.90451 -2.37474 0.000463968 
-1.68917 -2.3571 0.000452911 
-1.46598 -2.36429 9.5122e-05 
-1.26539 -2.32703 -7.61965e-05 
-1.03916 -2.39059 -0.000162572 
-0.816292 -2.35399 0.000945874 
-0.606636 -2.21116 -0.00131321 
-0.40666 -2.21215 -0.000907512 
-0.203861 -2.25997 -0.00106073 
0.00998545 -2.172 4.76989e-05 
0.215365 -2.16103 0.00123932 
0.422313 -2.21178 0.000307322 
0.624032 -2.26002 0.00194782 
0.837815 -2.37944 -7.08793e-05 
1.05793 -2.37794 0.000671084 
1.25211 -2.33413 -0.000186934 
1.45884 -2.43513 -0.000713623 
1.65436 -2.33943 -0.000402646 
1.86726 -2.40014 -0.000267081 
2.08236 -2.41703 -0.000551295 
2.29865 -2.33439 -0.000495594 
2.51606 -2.37279 -0.000421683 
2.72328 -2.37456 -0.000570568 
2.94272 -2.33762 -0.000660972 
3.14747 -2.32565 -0.000288014 
3.36982 -2.34273 -0.000180603 
3.5768 -2.31127 -0.000337348 
3.78984 -2.32302 -0.000576751 
4.00883 -2.35353 -0.000372093 
4.21824 -2.31811 -0.000335377 
4.44199 -2.32455 -0.000318383 
4.65123 -2.33349 -0.000237876 
4.86151 -2.32451 -9.93588e-05 
5.08135 -2.33323 -0.000138529 
5.28985 -2.34243 -0.000344759 
5.50739 -2.31977 -0.00035624 
5.72558 -2.33233 0.000191148 
5.9422 -2.34605 0.000219578 
6.15771 -2.31359 -0.000358715 
6.3937 -2.34023 -0.000599452 
6.59962 -2.33737 0.000198187 
6.82535 -2.28767 0.000402977 
7.05311 -2.34819 -0.000163734 
7.27148 -2.37162 -0.000734944 
7.53443 -2.3538 0.00135424 
7.77149 -2.38369 0.000844241 
7.97989 -2.28842 -0.000494771 
8.23103 -2.3518 -0.000244028 
8.45203 -2.26215 -0.0010562 
-8.43403 -2.12211 0.0045187 
-8.22699 -2.16775 -0.000417803 
-8.05103 -2.05621 0.00231747 
-7.7715 -2.11336 0.000288561 
-7.51536 -2.04467 0.000201039 
-7.31715 -2.21283 0.000648063 
-7.08211 -2.1082 -0.000114781 
-6.78702 -2.11619 0.000122171 
-6.58848 -2.12233 2.60201e-05 
-6.35771 -2.14594 0.000174679 
-6.1117 -2.07973 -2.54262e-05 
-5.91607 -2.10597 -0.000190014 
-5.68877 -2.10727 -0.00013307 
-5.46687 -2.09095 -1.75994e-05 
-5.25225 -2.11334 -0.000292634 
-5.04282 -2.09376 -0.0001138 
-4.82139 -2.11266 -0.000447807 
-4.60619 -2.11543 -0.000216816 
-4.38986 -2.11964 -0.00061721 
-4.18063 -2.10353 -0.000325527 
-3.96284 -2.09465 -0.000365285 
-3.75121 -2.08889 -0.000302057 
-3.52929 -2.10367 -0.000540278 
-3.31729 -2.10074 -0.000595911 
-3.09901 -2.11386 -0.000261557 
-2.89111 -2.11082 -0.000409484 
-2.67706 -2.1207 -0.000326871 
-2.46844 -2.14006 -0.000101694 
-2.26095 -2.16952 1.78996e-05 
-2.03785 -2.16032 -0.00062968 
-1.8167 -2.14329 -0.000641877 
-1.58043 -2.13309 -0.000608865 
-1.3703 -2.08695 8.9159e-05 
-1.19071 -1.98619 0.00013525 
-1.0681 -2.15481 0.000103465 
-0.825057 -2.12571 0.000563318 
-0.579711 -1.91954 -0.00186432 
-0.371574 -1.89705 -0.000911042 
-0.160656 -1.94426 -3.73994e-05 
0.0243976 -1.75417 -0.00081609 
0.199016 -1.82083 -9.79904e-05 
0.363711 -1.77703 0.00114425 
0.551531 -1.93574 0.000166766 
0.752707 -2.03829 0.00177591 
0.949785 -2.12967 0.000435342 
1.17612 -2.1103 0.00139846 
1.44322 -2.19325 0.000578909 
1.67666 -2.11962 0.00135001 
1.89701 -2.18302 0.000210939 
2.11052 -2.19088 0.000552568 
2.36755 -2.13257 4.88091e-05 
2.57153 -2.14416 0.00036762 
2.77819 -2.14702 0.000225282 
2.98206 -2.09351 0.000285125 
3.20434 -2.11044 0.000384549 
3.40632 -2.0974 0.000455885 
3.62193 -2.08196 0.000435392 
3.84266 -2.1062 0.00038604 
4.04475 -2.11111 0.000407211 
4.27463 -2.10041 0.000355146 
4.48735 -2.09195 0.000448032 
4.69633 -2.09902 0.000186809 
4.91771 -2.10704 0.000216563 
5.12802 -2.1031 0.000339798 
5.33753 -2.1141 0.000219708 
5.56302 -2.09825 3.11427e-05 
5.78015 -2.10845 0.000278292 
5.99009 -2.10855 0.000274266 
6.23589 -2.1113 7.77117e-05 
6.44296 -2.09498 -7.70933e-05 
6.65489 -2.10113 9.14913e-05 
6.91576 -2.08632 0.000342142 
7.13079 -2.12131 -6.88086e-05 
7.36339 -2.16933 -0.000351646 
7.55374 -2.07299 -0.00045086 
7.73104 -2.16054 0.000128866 
7.94074 -2.06419 -0.000742688 
8.18468 -2.13913 -0.000301663 
8.45178 -2.07507 -0.00246963 
-8.4256 -1.78716 0.00199622 
-8.2758 -1.90721 -0.000216296 
-7.88524 -1.90117 -0.00110265 
-7.65881 -1.88067 -0.000676599 
-7.42571 -1.78663 0.000114789 
[...]
POINT_DATA 1978 
VECTORS vectors float
0.150398 -0.224248 0.960861 
0.155184 -0.175192 0.973515 
0.164816 -0.134833 0.978472 
0.176825 -0.0979072 0.979616 
0.186098 -0.0768811 0.97924 
0.195262 -0.0667328 0.978504 
0.195159 -0.0555223 0.979113 
0.195157 -0.0420702 0.979856 
0.193459 -0.0324561 0.980552 
0.195171 -0.0209635 0.979828 
0.19815 -0.00870209 0.980002 
0.202396 -0.00362934 0.97904 
0.204998 -0.00141861 0.978434 
0.205265 -0.000729829 0.978298 
0.20619 -0.000849081 0.978168 
0.206802 0.00102994 0.977941 
0.206834 0.00252549 0.977913 
0.206091 0.00407935 0.978118 
0.205021 0.005494 0.978331 
0.203904 0.00759535 0.978626 
0.202215 0.0124884 0.979046 
0.20066 0.018831 0.979366 
0.198972 0.0257194 0.979708 
0.196357 0.0313387 0.980128 
0.192851 0.038252 0.980634 
0.187476 0.0487336 0.981365 
0.180451 0.0667475 0.981755 
0.172173 0.0914162 0.981395 
0.162572 0.123738 0.979574 
0.152171 0.163548 0.975673 
0.138936 0.211905 0.96852 
0.120044 0.274224 0.955435 
0.100309 0.348044 0.933442 
0.0783339 0.446893 0.892412 
0.0578547 0.545587 0.836954 
0.0321435 0.685445 0.728003 
0.0162951 0.808982 0.588278 
0.00882955 0.89351 0.450344 
0.0022764 0.975066 0.213934 
-6.50812e-05 0.998231 -0.0584271 
-0.00022972 0.968556 -0.242635 
-0.00405701 0.914308 -0.407479 
-0.0139924 0.816447 -0.577193 
-0.0334987 0.669035 -0.743111 
-0.0569277 0.548915 -0.834881 
-0.0761073 0.455432 -0.887125 
-0.0946511 0.370934 -0.92512 
-0.120514 0.272439 -0.955748 
-0.135903 0.217718 -0.967559 
-0.152385 0.16351 -0.975522 
-0.163987 0.121575 -0.979812 
-0.171439 0.0942163 -0.981341 
-0.181038 0.0682191 -0.981444 
-0.188067 0.0501485 -0.981092 
-0.192229 0.0378567 -0.980832 
-0.195723 0.0308621 -0.980299 
-0.199287 0.0233875 -0.979602 
-0.201582 0.0158624 -0.979227 
-0.204105 0.0128333 -0.978584 
-0.205098 0.0112312 -0.978353 
-0.204445 0.0083905 -0.978587 
-0.205485 0.00537083 -0.978262 
-0.20642 0.00200829 -0.978137 
-0.20578 0.000449223 -0.978233 
-0.205164 0.000131561 -0.978419 
-0.203462 -0.00120338 -0.978835 
-0.202506 -0.00557466 -0.978935 
-0.202993 -0.0108343 -0.978753 
-0.201609 -0.0140928 -0.9793 
-0.198013 -0.0184654 -0.97995 
-0.196105 -0.0280556 -0.980113 
-0.19517 -0.0383622 -0.980257 
-0.19465 -0.0508767 -0.979339 
-0.191181 -0.0597035 -0.97975 
-0.181373 -0.0720434 -0.980988 
-0.171473 -0.102118 -0.980386 
-0.161645 -0.152458 -0.976255 
-0.161552 -0.197009 -0.967997 
-0.175663 -0.256225 -0.947725 
0.108126 -0.224264 0.968667 
0.121784 -0.185567 0.980698 
0.119873 -0.143904 0.990521 
0.140022 -0.112957 0.991839 
0.15444 -0.0863263 0.992846 
0.156573 -0.0669676 0.992343 
0.151342 -0.0538531 0.994599 
0.159269 -0.0429619 0.993889 
0.161062 -0.0323629 0.993628 
0.149584 -0.0215531 0.997004 
0.162461 -0.0122728 0.993565 
0.164826 -0.00672755 0.993409 
0.162303 -0.00356688 0.993705 
0.165326 -0.00182205 0.992897 
0.166014 -0.000850373 0.992967 
0.168392 0.000764196 0.99232 
0.165279 0.00272865 0.992955 
0.167696 0.00491736 0.992467 
0.165741 0.00731692 0.992804 
0.164876 0.0105643 0.993096 
0.161887 0.0153726 0.993626 
0.160208 0.0215368 0.99381 
0.155839 0.0284663 0.994638 
0.155319 0.0361867 0.994369 
0.149441 0.046616 0.994876 
0.146836 0.0609633 0.994449 
0.138425 0.0806283 0.994385 
0.134259 0.106046 0.992396 
0.126753 0.142132 0.989099 
0.115245 0.187324 0.983151 
0.101524 0.242051 0.972779 
0.0853359 0.309067 0.955282 
0.0714446 0.3913 0.925606 
0.0535882 0.485057 0.880728 
0.0392081 0.605334 0.800556 
0.0236666 0.727878 0.693137 
0.0146727 0.824248 0.569474 
0.00760926 0.912165 0.412906 
0.00329339 0.973968 0.226112 
0.000864894 0.998639 0.0112523 
-0.00356824 0.97574 -0.213506 
-0.00663933 0.909365 -0.418395 
-0.0145568 0.811252 -0.588725 
-0.0255665 0.701982 -0.719752 
-0.0424811 0.567978 -0.828022 
-0.0585027 0.45391 -0.898776 
-0.0840495 0.346164 -0.941842 
-0.0893862 0.283206 -0.962911 
-0.111969 0.214059 -0.9778 
-0.124303 0.159845 -0.986657 
-0.125546 0.125011 -0.991869 
-0.140655 0.0921399 -0.992926 
-0.146154 0.0687372 -0.994123 
-0.149196 0.0525253 -0.994694 
-0.151351 0.0404969 -0.994911 
-0.157262 0.0305883 -0.994096 
-0.156774 0.0238179 -0.994456 
-0.16232 0.0174199 -0.993566 
-0.167065 0.012876 -0.992621 
-0.162406 0.0100728 -0.993514 
-0.166632 0.00770068 -0.99273 
-0.166889 0.00467476 -0.992586 
-0.165308 0.00153785 -0.992905 
-0.168358 -0.000831007 -0.992518 
-0.164647 -0.00254925 -0.993039 
-0.162051 -0.00455859 -0.993528 
-0.16474 -0.00810199 -0.99323 
-0.163324 -0.0132446 -0.993358 
-0.15719 -0.018469 -0.994594 
-0.162626 -0.0247314 -0.993794 
-0.154068 -0.033514 -0.994801 
-0.15188 -0.0436765 -0.99497 
-0.160867 -0.0564957 -0.993132 
-0.146925 -0.071777 -0.994187 
-0.143974 -0.0936599 -0.99321 
-0.140117 -0.128038 -0.989928 
-0.127211 -0.164414 -0.986368 
-0.145437 -0.209383 -0.972818 
-0.13995 -0.233491 -0.961483 
0.077532 -0.233641 0.969791 
0.0930474 -0.176339 0.987907 
0.0948185 -0.13707 0.99556 
0.116733 -0.105244 0.995373 
0.102975 -0.09625 0.998197 
0.130289 -0.07914 0.995876 
0.125563 -0.0632344 0.998067 
0.118043 -0.0495858 1.00003 
0.129226 -0.0372622 0.998877 
0.126931 -0.0283013 0.99912 
0.124161 -0.0188987 0.999891 
0.13254 -0.0119848 0.99888 
0.129855 -0.00724062 0.999048 
0.13082 -0.00393419 0.998852 
0.13255 -0.00263596 0.998652 
0.1344 -0.000816558 0.99836 
0.133418 0.00166693 0.998475 
0.135183 0.00488552 0.998209 
0.133853 0.00778757 0.998349 
0.13378 0.0113017 0.99841 
0.130265 0.0159428 0.998977 
0.127272 0.02126 0.999326 
0.123166 0.0278875 0.999789 
0.121598 0.0363562 0.999806 
0.118215 0.0468633 0.999746 
0.115802 0.0608094 0.999284 
0.109386 0.0787098 0.9988 
0.10517 0.103176 0.996994 
0.101342 0.133075 0.994052 
0.0924508 0.174538 0.988705 
0.0818355 0.227052 0.978975 
0.0685227 0.293223 0.962686 
0.05653 0.376307 0.934036 
0.0418154 0.467038 0.893499 
0.0329615 0.578386 0.823667 
0.0208795 0.703077 0.719512 
0.00863391 0.818831 0.578886 
0.0036931 0.912042 0.413046 
0.000259856 0.975818 0.216621 
-0.00442919 0.998394 -0.0129125 
-0.00546067 0.972538 -0.231314 
-0.00836687 0.904498 -0.429978 
-0.0125079 0.808822 -0.593288 
-0.0223157 0.692348 -0.730067 
-0.0338373 0.569853 -0.829488 
-0.0419047 0.471018 -0.890305 
-0.0618329 0.375719 -0.932405 
-0.0647007 0.306083 -0.958698 
-0.0823217 0.236419 -0.976773 
-0.0949388 0.182051 -0.986913 
-0.0946133 0.142319 -0.993515 
-0.106688 0.106756 -0.996578 
-0.113477 0.0818477 -0.998044 
-0.114572 0.062859 -0.999333 
-0.116946 0.0490077 -0.999778 
-0.122614 0.0375318 -0.999566 
-0.12124 0.029642 -0.999974 
-0.126412 0.0222939 -0.99935 
-0.13374 0.0168242 -0.998452 
-0.130523 0.0129723 -0.99892 
-0.130958 0.00938565 -0.998855 
-0.133526 0.00651295 -0.998573 
-0.133755 0.0032967 -0.99843 
-0.134059 -0.000203262 -0.998321 
-0.13455 -0.00260513 -0.998266 
-0.129283 -0.00443299 -0.999025 
-0.131209 -0.00704648 -0.998856 
-0.133264 -0.0118651 -0.998687 
-0.126275 -0.0177341 -0.999502 
-0.128416 -0.023801 -0.999074 
-0.126192 -0.0308787 -0.999394 
-0.118312 -0.0409715 -1.00028 
-0.124444 -0.054535 -0.998843 
-0.121835 -0.0687013 -0.99809 
-0.11495 -0.0905876 -0.998185 
-0.113068 -0.11906 -0.994009 
-0.101218 -0.149315 -0.992674 
-0.109913 -0.194007 -0.982864 
-0.0955555 -0.232601 -0.967747 
0.0540354 -0.24503 0.967312 
0.0705282 -0.196765 0.985955 
0.0692937 -0.164765 0.992479 
0.083129 -0.1197 0.999331 
0.0809617 -0.093226 1.00135 
0.102773 -0.0751912 1.00023 
0.0960944 -0.0598833 1.00306 
0.098051 -0.0409198 1.00277 
0.0991318 -0.0322094 1.00289 
0.104479 -0.0243272 1.00238 
0.0989504 -0.0174264 1.0029 
0.10217 -0.0116401 1.00254 
0.103236 -0.00715479 1.0023 
0.101564 -0.00569165 1.00237 
0.105795 -0.00389526 1.00197 
0.105384 -0.00148506 1.00201 
0.106964 0.00262347 1.00186 
0.10643 0.00611808 1.0019 
0.106747 0.00993155 1.00179 
0.104066 0.0136893 1.00208 
0.100879 0.0187406 1.00239 
0.0976979 0.0248902 1.00258 
0.0959688 0.032824 1.00264 
0.0928288 0.0421831 1.00256 
0.0914819 0.0538672 1.00218 
0.0882448 0.0695102 1.00154 
0.0846112 0.0913922 1.00012 
0.0805131 0.118943 0.997726 
0.0769896 0.152348 0.993884 
0.0684844 0.199132 0.986417 
0.0579368 0.259221 0.973336 
0.0463068 0.339872 0.949238 
0.0343872 0.426266 0.91247 
0.0217254 0.513144 0.867244 
0.0236616 0.571097 0.829825 
0.0126309 0.705671 0.717786 
-0.000427042 0.838014 0.549645 
-0.00440869 0.92831 0.372849 
-0.00474878 0.986171 0.165559 
-0.00636928 0.998469 -0.0358516 
-0.00629949 0.975882 -0.219053 
-0.00530333 0.926599 -0.380612 
-0.00824759 0.845948 -0.541367 
-0.012954 0.74209 -0.678076 
-0.020863 0.63354 -0.782917 
-0.028723 0.517324 -0.864741 
-0.0440813 0.392027 -0.928205 
-0.0496311 0.30581 -0.961291 
-0.0644284 0.235394 -0.978794 
-0.0732842 0.182566 -0.98912 
-0.0771478 0.135292 -0.996249 
-0.0842284 0.104028 -0.999253 
-0.0897466 0.0801491 -1.00071 
-0.088193 0.062887 -1.00205 
-0.0927037 0.0478273 -1.00239 
-0.0939816 0.0379381 -1.00259 
-0.0953637 0.0293923 -1.00263 
-0.100825 0.0220262 -1.00229 
-0.103711 0.0170438 -1.00214 
-0.104013 0.0125035 -1.00209 
-0.104001 0.00857356 -1.00208 
-0.104835 0.00481546 -1.00208 
-0.106072 0.00122895 -1.00191 
-0.105683 -0.00231891 -1.00185 
-0.10541 -0.00483254 -1.00189 
-0.101782 -0.00671489 -1.00234 
-0.10253 -0.00937205 -1.00238 
-0.102854 -0.0144658 -1.00246 
-0.10151 -0.0214074 -1.00247 
-0.0968988 -0.0270314 -1.00291 
-0.0971936 -0.0339922 -1.00289 
-0.0939399 -0.0466902 -1.003 
-0.0959965 -0.0622058 -1.00208 
-0.0968004 -0.0788938 -0.99981 
-0.0834593 -0.0962016 -1.0008 
-0.0908814 -0.116583 -0.998353 
-0.0777417 -0.146958 -0.995079 
-0.0815148 -0.187066 -0.987307 
-0.0660456 -0.237642 -0.968871 
0.0486785 -0.254596 0.964715 
0.0542641 -0.214714 0.982577 
0.0634898 -0.140815 0.995677 
0.0662428 -0.11087 1.00035 
0.0634804 -0.0900488 1.00253 
0.0805791 -0.0761523 1.00149 
0.0687533 -0.0646309 1.00317 
0.0792066 -0.0487036 1.00354 
0.075513 -0.0377699 1.00378 
0.0808295 -0.029338 1.00351 
0.0824425 -0.0229979 1.00354 
0.0784621 -0.0164413 1.0038 
0.0827946 -0.0106766 1.00344 
0.0828061 -0.00745026 1.0033 
0.083376 -0.00575591 1.00319 
0.0853908 -0.00371158 1.00308 
0.0861466 0.000188888 1.00305 
0.086415 0.00461899 1.00301 
0.0864786 0.00918914 1.00303 
0.0849709 0.0133915 1.00305 
0.0827422 0.0183291 1.00326 
0.0790543 0.0243232 1.00349 
0.0773276 0.0315688 1.0034 
0.074824 0.0395165 1.00332 
0.0732241 0.0497695 1.00301 
0.0710049 0.0636869 1.00251 
0.0683199 0.0817986 1.00151 
0.0648954 0.104563 0.999834 
0.0612827 0.132967 0.997138 
0.0580097 0.16855 0.992384 
0.0503694 0.218027 0.983559 
0.0414791 0.286098 0.967204 
0.0302231 0.366652 0.941168 
0.0174145 0.48587 0.88426 
0.00833638 0.660812 0.759926 
-0.00119071 0.776198 0.636669 
-0.00620239 0.879358 0.485505 
-0.00736604 0.941903 0.340482 
-0.00650842 0.979736 0.200907 
-0.00208198 0.998756 0.00625568 
-0.000130647 0.978045 -0.203811 
-0.00112652 0.912758 -0.416385 
-0.00350201 0.817141 -0.582404 
-0.00966945 0.712483 -0.712953 
-0.0158863 0.599191 -0.810558 
-0.020735 0.500381 -0.876207 
-0.0320437 0.41579 -0.918628 
-0.0336588 0.349852 -0.944876 
-0.0443927 0.267386 -0.971852 
-0.0533058 0.207415 -0.985546 
-0.0611412 0.159789 -0.993599 
-0.063105 0.119643 -0.998731 
-0.0679334 0.0929118 -1.00092 
-0.0686922 0.0732267 -1.00225 
-0.0729682 0.055471 -1.00292 
-0.073227 0.0443648 -1.00324 
-0.075349 0.0355436 -1.00341 
-0.0795229 0.0274042 -1.00331 
-0.08117 0.0214164 -1.00334 
-0.0852758 0.0158609 -1.00312 
-0.0838679 0.0112292 -1.0032 
-0.0843097 0.00700535 -1.00323 
-0.0861894 0.00230459 -1.0031 
-0.0851585 -0.00207935 -1.00306 
-0.0849097 -0.00522592 -1.00304 
-0.0842887 -0.00692553 -1.00315 
-0.0817249 -0.00904023 -1.0034 
-0.0812767 -0.0136659 -1.00348 
-0.0839645 -0.0200766 -1.00344 
-0.0776206 -0.0261862 -1.00363 
-0.0761147 -0.0327954 -1.00371 
-0.0768097 -0.0419684 -1.00363 
-0.0731992 -0.0599961 -1.00407 
-0.0759804 -0.0777728 -1.00214 
-0.0652186 -0.0972305 -1.00114 
-0.0652545 -0.123766 -0.999099 
-0.0576167 -0.160645 -0.993749 
-0.0606829 -0.195669 -0.986766 
-0.0446873 -0.243588 -0.968165 
0.044576 -0.258062 0.96418 
0.0440291 -0.211078 0.983512 
0.052869 -0.181001 0.990308 
0.0500594 -0.139571 0.997085 
0.0515918 -0.112664 0.999446 
0.0553143 -0.0778353 1.00285 
0.0584668 -0.0560734 1.0039 
0.0628201 -0.0444395 1.00424 
0.0627494 -0.0326615 1.00449 
0.0649687 -0.0264025 1.00442 
0.0648267 -0.0208649 1.00464 
0.0630926 -0.0135471 1.0048 
0.0661229 -0.00958751 1.00445 
0.0668557 -0.00784455 1.00433 
0.0663475 -0.00635927 1.00438 
0.0693211 -0.00253113 1.00423 
0.0689509 0.00251982 1.0043 
0.0691447 0.00725028 1.00431 
0.0676583 0.0115724 1.00433 
0.0662858 0.0164421 1.00435 
0.0635757 0.02234 1.00457 
0.0617683 0.0297294 1.00443 
0.059619 0.0372215 1.00423 
0.0585599 0.0460193 1.00395 
0.0568104 0.0578119 1.00349 
0.0549614 0.0742759 1.00276 
0.0519922 0.0964749 1.00137 
0.0491307 0.125264 0.998822 
0.0463771 0.161038 0.994385 
0.0413262 0.206193 0.986688 
0.0328399 0.278197 0.969934 
0.0209106 0.374496 0.937927 
0.01122 0.485064 0.884682 
0.00059621 0.625794 0.787372 
0.00681398 0.603199 0.807729 
-0.000573254 0.715351 0.711698 
-0.0048586 0.804612 0.595978 
-0.00475086 0.891332 0.461079 
-0.00362255 0.985527 0.170918 
-0.00148622 0.998591 0.0468134 
0.000697681 0.994156 -0.113788 
0.00384437 0.96598 -0.260185 
0.00356787 0.880662 -0.48404 
-0.00112694 0.75041 -0.668659 
-0.00663068 0.628346 -0.787784 
-0.00916794 0.532442 -0.85759 
-0.0195547 0.42761 -0.914583 
-0.027447 0.32444 -0.956915 
-0.0363025 0.249079 -0.977066 
-0.0442017 0.192441 -0.987988 
-0.0497961 0.148289 -0.996775 
-0.0506306 0.111475 -1.00022 
-0.0527662 0.0887105 -1.00211 
-0.0566099 0.0667908 -1.00318 
-0.0573517 0.0526754 -1.00376 
-0.0576909 0.0423132 -1.00416 
-0.0613803 0.0334509 -1.00426 
-0.0625354 0.0266423 -1.00443 
-0.0650079 0.0203284 -1.00444 
-0.0680672 0.0150608 -1.00431 
-0.0666131 0.0102043 -1.00453 
-0.067645 0.00504998 -1.00448 
-0.0683764 -3.91704e-05 -1.00441 
-0.0677023 -0.00477558 -1.00436 
-0.0666609 -0.00755227 -1.00436 
-0.0671736 -0.00881327 -1.0043 
-0.0646561 -0.0112802 -1.00451 
-0.065163 -0.0165092 -1.00464 
-0.0653964 -0.022801 -1.00454 
-0.0603541 -0.0293117 -1.0048 
-0.0605375 -0.0362682 -1.00465 
-0.0621094 -0.04804 -1.00335 
-0.0558983 -0.0634725 -1.0038 
-0.0599694 -0.0796624 -1.00251 
-0.0525088 -0.101858 -1.00098 
-0.0518628 -0.12653 -0.998984 
-0.0437515 -0.160593 -0.993888 
-0.0420348 -0.207381 -0.98527 
-0.0314083 -0.253072 -0.966357 
0.0339492 -0.25815 0.964874 
0.0348268 -0.204316 0.985773 
0.0426701 -0.167654 0.992943 
0.0393378 -0.130901 0.999931 
0.0460502 -0.0985406 1.00177 
0.0392304 -0.082387 1.00342 
0.0461499 -0.0645628 1.00341 
0.0421873 -0.0480102 1.00608 
0.0491293 -0.0379346 1.00456 
0.0472948 -0.0308408 1.00532 
0.0479396 -0.02566 1.00542 
0.050423 -0.0182247 1.00545 
0.0483102 -0.0122544 1.00544 
0.0515051 -0.0100855 1.00522 
0.0525422 -0.00920206 1.00505 
0.0528886 -0.00606703 1.00512 
0.0544249 -0.000878457 1.00511 
0.0541714 0.00487405 1.00522 
0.0536617 0.00969311 1.00512 
0.0527899 0.0145039 1.00499 
0.0504984 0.0200433 1.00512 
0.0495973 0.0264272 1.00506 
0.0477278 0.0334752 1.00471 
0.0464549 0.040933 1.00453 
0.0450846 0.0500698 1.00427 
0.0437038 0.0633245 1.00371 
0.0419814 0.0811989 1.00278 
0.039194 0.104988 1.00115 
0.0360158 0.134804 0.998385 
0.0328773 0.172101 0.993449 
0.0291172 0.227245 0.983179 
0.0196514 0.309406 0.961764 
0.00864491 0.429433 0.914394 
0.00157529 0.548696 0.847834 
-0.00346473 0.745935 0.674544 
-0.00246534 0.867303 0.499795 
-0.00170465 0.918731 0.398803 
0.00158734 0.972133 0.21986 
-0.00199019 0.950245 0.31998 
-0.0010219 0.980463 0.170098 
0.00352054 0.996918 -0.0553314 
0.00315243 0.948912 -0.315903 
0.00634536 0.860271 -0.516707 
0.00602546 0.80812 -0.5991 
0.00179285 0.710822 -0.713994 
-0.00304072 0.55401 -0.842977 
-0.0123151 0.413936 -0.921009 
-0.0187308 0.318806 -0.958789 
-0.0264655 0.242946 -0.979433 
-0.033428 0.188197 -0.990406 
-0.0314075 0.16282 -0.994693 
-0.0396243 0.133884 -0.997305 
-0.0374906 0.104895 -1.00139 
-0.0430869 0.0786224 -1.00312 
-0.0436051 0.0612164 -1.00399 
-0.0443742 0.048643 -1.00442 
-0.0470893 0.0388032 -1.00461 
-0.0479286 0.0316784 -1.0049 
-0.0500105 0.0246845 -1.00511 
-0.0516925 0.0183806 -1.00514 
-0.0537643 0.0131102 -1.00509 
-0.053368 0.00759014 -1.00528 
-0.0524966 0.00215264 -1.00541 
-0.0539493 -0.00365784 -1.00528 
-0.0524399 -0.00819572 -1.00511 
-0.0524955 -0.0099349 -1.00498 
-0.0504787 -0.0113049 -1.00521 
-0.0501627 -0.0152493 -1.00533 
-0.0495712 -0.0222977 -1.00545 
-0.0477242 -0.0283327 -1.0054 
-0.0449582 -0.0353064 -1.00625 
-0.0474624 -0.0461218 -1.00528 
-0.042394 -0.0634007 -1.0047 
-0.0437828 -0.084318 -1.00309 
-0.0373329 -0.10627 -1.00148 
-0.0396555 -0.129115 -0.999273 
-0.0326672 -0.159483 -0.994746 
-0.0327974 -0.20038 -0.986809 
-0.0243777 -0.256992 -0.965651 
0.0234906 -0.257865 0.965301 
0.0254785 -0.209209 0.98541 
0.0322074 -0.160641 0.994676 
0.0263855 -0.131802 0.999379 
0.0322725 -0.107371 1.00164 
0.0284336 -0.0842589 1.00363 
0.0333421 -0.0619345 1.00508 
0.0309879 -0.0464984 1.00578 
0.0361708 -0.0369018 1.0057 
0.0338956 -0.0311225 1.00587 
0.0369788 -0.0238106 1.00593 
0.0382257 -0.0164074 1.00586 
0.0366807 -0.0125524 1.00586 
0.040036 -0.0112423 1.00614 
0.0419582 -0.00937281 1.00488 
0.0408717 -0.00437998 1.00636 
0.0422746 0.00171065 1.00517 
0.040728 0.0075918 1.0065 
0.0402315 0.0127128 1.00512 
0.0392446 0.0180062 1.00555 
0.0379912 0.0246719 1.00564 
0.0368549 0.031716 1.00524 
0.0355547 0.0387189 1.00493 
0.0345025 0.0470679 1.00475 
0.0333094 0.0585372 1.00429 
0.0312925 0.0752352 1.00351 
0.0296292 0.0971741 1.00208 
0.0268907 0.12546 0.999708 
0.0238702 0.162943 0.995203 
0.0210082 0.215707 0.986066 
0.0148536 0.287727 0.968435 
0.00677993 0.397317 0.928738 
0.00030307 0.525539 0.861327 
-0.00149778 0.640564 0.778458 
-0.00186642 0.701349 0.722343 
-0.00222781 0.865521 0.501165 
0.00129364 0.962778 0.252468 
-0.00427998 1.00074 0.0766018 
0.00603369 1.00001 0.0305075 
0.00642796 1.00275 0.00277975 
0.00470645 1.00142 -0.040345 
0.00619453 0.998637 -0.0834981 
0.00379799 0.956668 -0.289418 
0.00720597 0.838051 -0.547435 
0.00333259 0.655727 -0.766246 
0.00384228 0.583815 -0.822357 
-0.00204976 0.483118 -0.887211 
-0.00609606 0.397035 -0.928484 
-0.013028 0.301563 -0.963285 
-0.0188894 0.231359 -0.982047 
-0.0231355 0.172569 -0.993445 
-0.0278324 0.127883 -0.99945 
-0.0299102 0.0915524 -1.00272 
-0.0316901 0.0724576 -1.00381 
-0.0328968 0.0567964 -1.00449 
-0.035015 0.0452084 -1.00476 
-0.0355068 0.0375838 -1.00497 
-0.0370165 0.0305469 -1.00531 
-0.0387695 0.0235408 -1.00558 
-0.0398422 0.017402 -1.00615 
-0.0424504 0.0121274 -1.00495 
-0.0408526 0.00691299 -1.00649 
-0.0409129 0.000481442 -1.00594 
-0.0409197 -0.00570226 -1.00575 
-0.0407152 -0.0101536 -1.00557 
-0.0393658 -0.0117965 -1.00557 
-0.0387226 -0.0129492 -1.00507 
-0.0374419 -0.0174346 -1.00586 
-0.0358966 -0.0244643 -1.00658 
-0.0364771 -0.0315838 -1.00504 
-0.0323505 -0.0380481 -1.00573 
-0.0355449 -0.047228 -1.00576 
-0.030633 -0.0629941 -1.00515 
-0.0326386 -0.080918 -1.00385 
-0.0271023 -0.101555 -1.0021 
-0.0267665 -0.132266 -0.999212 
-0.0225035 -0.169345 -0.993404 
-0.0231565 -0.211259 -0.984639 
-0.0165062 -0.261022 -0.96443 
0.0153641 -0.259288 0.964887 
0.0166399 -0.215205 0.983818 
0.0219526 -0.168843 0.99367 
0.0185841 -0.131245 0.999516 
0.0233835 -0.103781 1.00205 
0.0191842 -0.0851104 1.00368 
0.0237156 -0.0662886 1.00509 
0.0218061 -0.0493053 1.00564 
0.0247386 -0.0384478 1.00592 
0.0237128 -0.0309777 1.00676 
0.0259074 -0.0231803 1.00604 
0.0272646 -0.0166487 1.00609 
0.0266167 -0.0143768 1.00575 
0.0292365 -0.0131999 1.00514 
0.03165 -0.0108184 1.00569 
0.0305598 -0.00573284 1.00597 
0.03168 0.00102978 1.00599 
0.0305839 0.00704221 1.00604 
0.0299934 0.0125751 1.00649 
0.0296284 0.0183138 1.00578 
0.0287268 0.0244983 1.00559 
0.0277408 0.0310589 1.00536 
0.0271525 0.0380417 1.00507 
0.0263731 0.046266 1.00478 
0.0255567 0.0571039 1.00441 
0.0240329 0.0727042 1.00382 
0.0226453 0.0937341 1.00269 