# vtk DataFile Version 3.0 
Exported using Morpho https://github.com/Morpho-lang/morpho 
ASCII 
DATASET UNSTRUCTURED_GRID 

POINTS 1978 float 
-8.48528 -2.82843 9.1118e-09 
-8.26109 -2.82843 1.7643e-07 
-8.03683 -2.82843 1.8497e-07 
-7.76109 -2.82843 2.50164e-07 
-7.47459 -2.82843 1.92381e-07 
-7.239 -2.82843 1.06686e-07 
-6.99701 -2.82843 9.06702e-08 
-6.7737 -2.82843 6.27287e-08 
-6.55614 -2.82843 4.787e-08 
-6.34136 -2.82843 2.74443e-08 
-6.14935 -2.82843 3.09422e-08 
-5.92678 -2.82843 2.19328e-08 
-5.71464 -2.82843 1.2517e-08 
-5.50991 -2.82843 8.30827e-09 
-5.29274 -2.82843 3.34666e-09 
-5.08145 -2.82843 -4.62386e-10 
-4.8641 -2.82843 -4.41854e-09 
-4.65768 -2.82843 -8.70007e-09 
-4.43733 -2.82843 -1.43536e-08 
-4.22006 -2.82843 -2.17156e-08 
-4.00147 -2.82843 -2.70841e-08 
-3.79101 -2.82843 -3.44147e-08 
-3.5754 -2.82843 -4.40291e-08 
-3.36354 -2.82843 -6.31823e-08 
-3.14148 -2.82843 -8.10879e-08 
-2.93027 -2.82843 -9.67282e-08 
-2.71852 -2.82843 -1.05632e-07 
-2.52113 -2.82843 -1.3532e-07 
-2.30693 -2.82843 -1.78552e-07 
-2.09603 -2.82843 -1.89741e-07 
-1.88842 -2.82843 -2.01186e-07 
-1.68286 -2.82843 -1.8169e-07 
-1.48373 -2.82843 -1.85027e-07 
-1.26882 -2.82843 -1.31113e-07 
-1.09082 -2.82843 -8.32349e-08 
-0.832058 -2.82843 -1.15503e-07 
-0.610299 -2.82843 -3.25457e-09 
-0.436288 -2.82843 7.73533e-08 
-0.224567 -2.82843 2.5923e-08 
0.0214569 -2.82843 6.67164e-09 
0.214477 -2.82843 -6.86372e-08 
0.414355 -2.82843 -1.60001e-08 
0.634049 -2.82843 9.73865e-09 
0.841322 -2.82843 -1.2164e-08 
1.0449 -2.82843 1.05865e-07 
1.25362 -2.82843 9.88658e-08 
1.44601 -2.82843 2.77838e-07 
1.6834 -2.82843 2.2439e-07 
1.87938 -2.82843 1.99549e-07 
2.09511 -2.82843 2.17909e-07 
2.31194 -2.82843 1.47952e-07 
2.50725 -2.82843 1.49246e-07 
2.7348 -2.82843 1.36214e-07 
2.95264 -2.82843 1.00458e-07 
3.16985 -2.82843 7.06802e-08 
3.3751 -2.82843 6.17413e-08 
3.59953 -2.82843 4.4976e-08 
3.8028 -2.82843 3.24359e-08 
4.01863 -2.82843 3.21667e-08 
4.2467 -2.82843 1.90816e-08 
4.44569 -2.82843 1.19524e-08 
4.65849 -2.82843 8.81045e-09 
4.86771 -2.82843 4.58979e-09 
5.0715 -2.82843 1.11216e-09 
5.28861 -2.82843 -4.6434e-09 
5.49974 -2.82843 -8.124e-09 
5.70379 -2.82843 -1.33138e-08 
5.92351 -2.82843 -2.36786e-08 
6.14472 -2.82843 -2.41634e-08 
6.34488 -2.82843 -4.06493e-08 
6.58571 -2.82843 -5.79023e-08 
6.7948 -2.82843 -4.471e-08 
6.99324 -2.82843 -9.01659e-08 
7.2514 -2.82843 -1.31133e-07 
7.47995 -2.82843 -1.26449e-07 
7.71728 -2.82843 -1.96265e-07 
7.98242 -2.82843 -1.29065e-07 
8.1686 -2.82843 -2.52457e-07 
8.48528 -2.82843 -5.98129e-08 
-8.48528 -2.59721 -1.0528e-07 
-8.2456 -2.57772 2.02567e-14 
-8.00639 -2.58445 2.91436e-14 
-7.7683 -2.62066 3.84838e-14 
-7.5101 -2.63811 3.81675e-14 
-7.22062 -2.59996 2.35697e-14 
-6.98058 -2.59201 1.56073e-14 
-6.76503 -2.58392 1.29475e-14 
-6.53605 -2.59324 1.1321e-14 
-6.33334 -2.56148 7.56805e-15 
-6.10914 -2.60004 6.37232e-15 
-5.89279 -2.58422 4.84535e-15 
-5.68215 -2.57341 3.24844e-15 
-5.46431 -2.5887 1.77227e-15 
-5.24886 -2.58219 7.42983e-16 
-5.0303 -2.58945 -2.44816e-16 
-4.82002 -2.57716 -1.2223e-15 
-4.60097 -2.59298 -2.54849e-15 
-4.3814 -2.58909 -3.6829e-15 
-4.16258 -2.58921 -5.19205e-15 
-3.95101 -2.57822 -6.71583e-15 
-3.73832 -2.58288 -8.94109e-15 
-3.52611 -2.58124 -1.14425e-14 
-3.30832 -2.59456 -1.51493e-14 
-3.0955 -2.58864 -1.84176e-14 
-2.88263 -2.59396 -2.29836e-14 
-2.68097 -2.58414 -2.58373e-14 
-2.4696 -2.60672 -3.45812e-14 
-2.25177 -2.6029 -3.77306e-14 
-2.04296 -2.59874 -4.03838e-14 
-1.83037 -2.59848 -4.72103e-14 
-1.61982 -2.5858 -3.64562e-14 
-1.41224 -2.59704 -4.81768e-14 
-1.22271 -2.54657 -7.54964e-15 
-0.996062 -2.6216 -9.95393e-15 
-0.773867 -2.5826 -2.29378e-14 
-0.583838 -2.49435 2.45104e-14 
-0.380606 -2.52258 1.75406e-14 
-0.169452 -2.53359 3.2061e-14 
0.0220542 -2.46118 -5.42572e-14 
0.208082 -2.49549 4.3529e-14 
0.401534 -2.51174 -3.87772e-14 
0.608648 -2.56842 5.18293e-15 
0.831036 -2.57952 9.72364e-15 
1.04726 -2.57631 1.86154e-14 
1.25573 -2.57704 1.72156e-14 
1.50077 -2.6352 5.44625e-14 
1.71978 -2.5904 4.40639e-14 
1.9365 -2.61259 4.47126e-14 
2.16417 -2.61643 3.96866e-14 
2.37102 -2.58023 3.33079e-14 
2.58108 -2.60988 3.11186e-14 
2.80414 -2.5961 2.47066e-14 
3.01922 -2.59695 2.15326e-14 
3.225 -2.57807 1.48617e-14 
3.44286 -2.59749 1.37314e-14 
3.64993 -2.57216 9.63793e-15 
3.8637 -2.58667 7.68327e-15 
4.09139 -2.60038 6.26165e-15 
4.30004 -2.56772 4.0972e-15 
4.51418 -2.58667 2.90068e-15 
4.7282 -2.58315 1.78849e-15 
4.94026 -2.57804 6.73966e-16 
5.15533 -2.59328 -4.49878e-16 
5.37424 -2.58639 -1.38184e-15 
5.58521 -2.57663 -2.59005e-15 
5.80194 -2.59287 -4.14695e-15 
6.02699 -2.59217 -5.76494e-15 
6.24034 -2.5646 -7.04281e-15 
6.46062 -2.60816 -1.0753e-14 
6.68653 -2.57307 -1.20199e-14 
6.89277 -2.55787 -1.37487e-14 
7.11741 -2.62097 -2.22186e-14 
7.36568 -2.59154 -2.24027e-14 
7.60078 -2.59843 -2.73968e-14 
7.85414 -2.62035 -3.5818e-14 
8.06746 -2.52667 -1.85283e-14 
8.29461 -2.64435 -3.03297e-14 
8.48528 -2.52362 1.29873e-07 
-8.48528 -2.36179 -8.07372e-08 
-8.22628 -2.34807 5.81361e-15 
-7.98613 -2.33692 5.98149e-15 
-7.74943 -2.39644 8.77771e-15 
-7.55536 -2.24284 1.12981e-14 
-7.45324 -2.44915 7.06624e-15 
-7.1714 -2.38411 1.04304e-14 
-6.9442 -2.33916 1.14658e-14 
-6.70529 -2.36278 4.7891e-15 
-6.4909 -2.33617 5.92137e-15 
-6.24201 -2.3484 5.11306e-15 
-6.02975 -2.35411 3.66189e-15 
-5.81041 -2.33521 2.50845e-15 
-5.5819 -2.34159 1.54354e-15 
-5.36596 -2.34518 9.58743e-16 
-5.14134 -2.34942 2.65099e-16 
-4.92812 -2.33752 -4.51716e-16 
-4.70408 -2.3508 -1.16409e-15 
-4.48566 -2.35582 -1.92079e-15 
-4.26333 -2.35263 -2.84942e-15 
-4.04932 -2.33743 -3.7999e-15 
-3.83333 -2.33583 -4.84351e-15 
-3.62081 -2.33814 -6.34237e-15 
-3.40232 -2.35295 -8.15727e-15 
-3.19042 -2.35308 -1.03511e-14 
-2.97499 -2.35921 -1.2608e-14 
-2.76819 -2.34584 -1.49565e-14 
-2.5565 -2.36861 -1.8848e-14 
-2.34606 -2.38762 -2.26855e-14 
-2.12605 -2.36653 -2.32687e-14 
-1.91362 -2.37226 -2.46216e-14 
-1.69609 -2.36282 -2.04044e-14 
-1.47186 -2.34761 -4.65582e-15 
-1.27415 -2.29472 -1.19092e-14 
-1.04963 -2.37553 -1.06033e-14 
-0.834236 -2.33041 1.83706e-14 
-0.618879 -2.22881 -7.10567e-15 
-0.402023 -2.22024 4.18301e-14 
-0.18708 -2.19528 2.93696e-15 
0.0264529 -2.15976 2.04561e-14 
0.261593 -2.15369 -3.749e-14 
0.451305 -2.15823 -3.82675e-14 
0.617939 -2.28302 1.45852e-14 
0.830621 -2.31706 -1.70572e-14 
1.03813 -2.32487 4.33968e-15 
1.25793 -2.3384 1.08037e-14 
1.46521 -2.42376 1.69461e-14 
1.65328 -2.35575 2.52215e-14 
1.87489 -2.3803 2.28521e-14 
2.08952 -2.40747 2.25542e-14 
2.30443 -2.36135 2.11039e-14 
2.53045 -2.36301 1.8315e-14 
2.73189 -2.38061 1.65245e-14 
2.96193 -2.36135 1.29857e-14 
3.1643 -2.33721 1.04829e-14 
3.37837 -2.35684 8.27832e-15 
3.58242 -2.32943 6.74636e-15 
3.79509 -2.33863 5.27617e-15 
4.01114 -2.36656 4.01109e-15 
4.21984 -2.32933 2.94227e-15 
4.44084 -2.33889 2.00075e-15 
4.65089 -2.34079 1.26776e-15 
4.86286 -2.33826 6.61358e-16 
5.08135 -2.34714 -7.1583e-18 
5.29212 -2.35482 -7.07166e-16 
5.50869 -2.3354 -1.37226e-15 
5.72754 -2.34801 -2.17986e-15 
5.94458 -2.36016 -3.1255e-15 
6.16074 -2.32863 -4.16909e-15 
6.39442 -2.35344 -5.46005e-15 
6.60252 -2.35061 -6.91043e-15 
6.82634 -2.30306 -7.4806e-15 
7.05414 -2.36338 -9.59735e-15 
7.2709 -2.38722 -1.05912e-14 
7.52904 -2.36274 -1.21055e-14 
7.77194 -2.3947 -1.15372e-14 
7.98944 -2.30003 -6.30472e-15 
8.25715 -2.36897 -5.00194e-15 
8.48528 -2.27371 6.24173e-08 
-8.48528 -2.0947 -1.17458e-07 
-8.26704 -2.11895 -2.33303e-15 
-8.03438 -2.08955 -1.97428e-15 
-7.78741 -2.14116 2.01511e-15 
-7.51027 -2.02496 2.07152e-15 
-7.30305 -2.21821 6.42213e-15 
-7.05883 -2.12241 4.96017e-16 
-6.80274 -2.12767 4.61684e-15 
-6.59265 -2.10589 3.89429e-15 
-6.35121 -2.13487 2.96961e-15 
-6.12275 -2.10208 1.86164e-15 
-5.91695 -2.1048 1.47717e-15 
-5.68928 -2.11086 1.0185e-15 
-5.46791 -2.10127 7.37284e-16 
-5.25101 -2.1162 4.15722e-16 
-5.03835 -2.10142 -2.78802e-17 
-4.81591 -2.11364 -4.0468e-16 
-4.59898 -2.11821 -7.69348e-16 
-4.38231 -2.12227 -1.16297e-15 
-4.17087 -2.1045 -1.60038e-15 
-3.95635 -2.09723 -1.96679e-15 
-3.74375 -2.09565 -2.62317e-15 
-3.52795 -2.1107 -3.40638e-15 
-3.3185 -2.11511 -4.29874e-15 
-3.10543 -2.12374 -5.45788e-15 
-2.90015 -2.11803 -6.27137e-15 
-2.68384 -2.1225 -7.59969e-15 
-2.47522 -2.14435 -8.60276e-15 
-2.26599 -2.16006 -1.14287e-14 
-2.03851 -2.1343 -1.25074e-14 
-1.82238 -2.14218 -1.17334e-14 
-1.59672 -2.13304 -1.11873e-14 
-1.39204 -2.0581 -3.52013e-15 
-1.19516 -1.99289 1.55126e-14 
-1.05123 -2.12977 2.88417e-15 
-0.817263 -2.07271 -9.20764e-15 
-0.590127 -1.94466 5.00564e-14 
-0.361369 -1.9291 -9.26149e-15 
-0.137724 -1.86097 -2.06084e-14 
0.0767004 -1.6203 -4.89389e-14 
0.118228 -1.89475 -9.35101e-14 
0.344117 -1.80483 7.66702e-14 
0.572772 -1.90063 3.73952e-14 
0.779765 -2.0256 -5.85323e-14 
0.991408 -2.03934 -4.58293e-15 
1.19789 -2.09911 -2.22281e-15 
1.43478 -2.16898 7.42387e-15 
1.65858 -2.12372 1.37908e-14 
1.87672 -2.16085 1.63639e-14 
2.11067 -2.18007 1.72576e-14 
2.3472 -2.14673 1.41917e-14 
2.55242 -2.11488 1.14196e-14 
2.781 -2.16982 8.3827e-15 
2.98611 -2.11096 5.09309e-15 
3.20563 -2.10937 4.52889e-15 
3.40785 -2.10729 3.76238e-15 
3.62329 -2.09232 2.73163e-15 
3.8415 -2.10944 2.4129e-15 
4.04385 -2.11537 1.93683e-15 
4.27193 -2.10029 1.32182e-15 
4.48345 -2.09677 8.55555e-16 
4.69615 -2.09934 4.79983e-16 
4.91554 -2.10847 1.8634e-16 
5.12836 -2.10635 -1.47234e-16 
5.33983 -2.11624 -5.22827e-16 
5.56451 -2.10472 -8.28244e-16 
5.7818 -2.11384 -1.25792e-15 
5.99243 -2.11377 -1.75351e-15 
6.23441 -2.113 -2.21442e-15 
6.44307 -2.09859 -2.71256e-15 
6.65512 -2.10342 -3.34498e-15 
6.9107 -2.09168 -2.80148e-15 
7.12484 -2.12455 -3.1817e-15 
7.35396 -2.17107 -4.37573e-15 
7.54598 -2.07368 -1.65444e-15 
7.73047 -2.16127 -4.93612e-15 
7.94992 -2.06611 4.05837e-15 
8.20216 -2.14271 -5.5624e-16 
8.48528 -2.07373 5.79882e-08 
-8.48528 -1.79493 -8.8552e-08 
-8.2943 -1.86776 -5.96376e-15 
-7.88593 -1.89497 -6.30271e-15 
-7.66621 -1.88697 1.35973e-15 
[...]
POINT_DATA 1978 
VECTORS vectors float
0.0155 -0.0326907 0.999351 
0.0113179 -0.0936679 0.99554 
0.00581813 -0.103101 0.994654 
0.00352632 -0.0961802 0.995357 
0.00526337 -0.079733 0.996802 
0.00720662 -0.0656174 0.997819 
0.00791578 -0.050902 0.998673 
0.00974664 -0.0402737 0.999142 
0.00979617 -0.0304164 0.999491 
0.0111193 -0.022613 0.999684 
0.0109079 -0.0169715 0.999798 
0.0101797 -0.0114501 0.999884 
0.0109565 -0.00713933 0.999916 
0.0108166 -0.00417254 0.999934 
0.0104902 -0.00158681 0.999945 
0.0105487 0.000605746 0.999945 
0.0107418 0.00277409 0.99994 
0.0105678 0.00502775 0.999933 
0.0100033 0.00791461 0.99992 
0.0100311 0.0115276 0.999884 
0.0102945 0.0159808 0.999821 
0.0103835 0.021353 0.999719 
0.0101894 0.0283468 0.999547 
0.00978198 0.0372139 0.999261 
0.00962753 0.0493906 0.998734 
0.00992119 0.0645472 0.997867 
0.0102525 0.0843256 0.996387 
0.00972107 0.107866 0.994119 
0.00869603 0.140667 0.99002 
0.00830056 0.18216 0.983235 
0.00779815 0.23347 0.972334 
0.00692927 0.296376 0.955048 
0.00569754 0.371451 0.928436 
0.00481192 0.465409 0.885084 
0.00293292 0.554716 0.832036 
0.00123872 0.694562 0.719432 
0.000645815 0.812254 0.583304 
-0.000182298 0.897833 0.440336 
-4.71453e-05 0.971609 0.236592 
8.27642e-05 0.999353 -0.0359646 
0.000313427 0.972307 -0.233707 
-0.000251455 0.906983 -0.421169 
-0.0010316 0.805126 -0.593104 
-0.00151723 0.692381 -0.721531 
-0.00306534 0.575742 -0.817627 
-0.00464341 0.470484 -0.882398 
-0.00513512 0.385277 -0.922788 
-0.00629212 0.296357 -0.955058 
-0.00773311 0.237189 -0.971434 
-0.00790475 0.184273 -0.982845 
-0.00907026 0.140639 -0.990021 
-0.00917794 0.110617 -0.993822 
-0.00864616 0.0832178 -0.996495 
-0.00930871 0.0630527 -0.997968 
-0.0101344 0.0479581 -0.998799 
-0.0100563 0.0368782 -0.99927 
-0.0102049 0.0276287 -0.999567 
-0.0106417 0.0213019 -0.999718 
-0.00968668 0.0160916 -0.999825 
-0.0104209 0.0114802 -0.999881 
-0.0112542 0.00836116 -0.999903 
-0.0108925 0.00551379 -0.999927 
-0.0112424 0.00288941 -0.999934 
-0.0109017 0.000602774 -0.999942 
-0.0105693 -0.00206422 -0.999943 
-0.0111094 -0.00485161 -0.999928 
-0.0106414 -0.00776988 -0.999914 
-0.0098378 -0.0118959 -0.999882 
-0.0105495 -0.0169123 -0.999803 
-0.00954189 -0.0223807 -0.999705 
-0.00916282 -0.030778 -0.999485 
-0.0108887 -0.0396472 -0.999156 
-0.00845026 -0.0498626 -0.998721 
-0.00692319 -0.0665409 -0.99776 
-0.00755459 -0.0833081 -0.996496 
-0.00642569 -0.0995502 -0.995012 
-0.00813292 -0.111148 -0.993771 
-0.0084297 -0.10509 -0.994428 
-0.0100808 -0.0258034 -0.999623 
0.0207338 -0.0120004 0.999722 
0.0433243 -0.077747 0.996034 
0.0483731 -0.0940142 0.994397 
0.04774 -0.0940784 0.994421 
0.0472227 -0.0806754 0.995623 
0.0502147 -0.0624665 0.996786 
0.0536733 -0.0511559 0.997249 
0.0541567 -0.0398647 0.997738 
0.0561705 -0.0302195 0.997966 
0.0602133 -0.0230772 0.997921 
0.0571043 -0.0164929 0.998234 
0.0590851 -0.011083 0.998193 
0.0611296 -0.00722842 0.998106 
0.0601491 -0.0041236 0.998183 
0.0610905 -0.00146657 0.998133 
0.060627 0.000995221 0.998162 
0.0619709 0.00330945 0.998074 
0.0599525 0.00595739 0.998185 
0.0599496 0.00919672 0.998161 
0.0594506 0.0131601 0.998146 
0.0597878 0.0179042 0.998052 
0.0583468 0.0238617 0.998013 
0.0575029 0.0314456 0.997852 
0.0548499 0.0414349 0.997637 
0.0540972 0.0542733 0.997062 
0.0518456 0.0708322 0.996142 
0.0504914 0.0912313 0.994551 
0.0457936 0.117848 0.991977 
0.0421346 0.15366 0.987227 
0.0380449 0.197686 0.979529 
0.0334219 0.253246 0.966827 
0.0279566 0.322744 0.946076 
0.0219945 0.404695 0.914189 
0.0172727 0.491936 0.870464 
0.0102474 0.610608 0.791869 
0.00598759 0.732501 0.680741 
0.00336076 0.829441 0.558588 
0.00144246 0.915047 0.403346 
0.000355223 0.981694 0.190463 
-0.0012428 0.99998 -0.00608903 
-0.00243755 0.978085 -0.208194 
-0.00385556 0.919016 -0.394201 
-0.00611328 0.822503 -0.56873 
-0.00964823 0.698193 -0.715848 
-0.0142831 0.575851 -0.817432 
-0.019359 0.468694 -0.883152 
-0.0241464 0.363777 -0.931175 
-0.0313089 0.287006 -0.95742 
-0.0351467 0.224981 -0.973731 
-0.0397095 0.172671 -0.984181 
-0.0457604 0.134629 -0.989841 
-0.0461809 0.103785 -0.993529 
-0.0502947 0.078735 -0.995628 
-0.0528093 0.0601836 -0.996791 
-0.0557501 0.0466465 -0.997357 
-0.055593 0.0351796 -0.997836 
-0.0589983 0.0270672 -0.997893 
-0.0583956 0.0205205 -0.998085 
-0.0579071 0.0149845 -0.998211 
-0.0619509 0.0110015 -0.99802 
-0.0605624 0.00762058 -0.998137 
-0.0612272 0.00463954 -0.998115 
-0.0620737 0.00197641 -0.998071 
-0.060145 -0.000624045 -0.998191 
-0.0609146 -0.00349996 -0.998139 
-0.0614529 -0.00647936 -0.998091 
-0.0588799 -0.0100203 -0.998217 
-0.0583471 -0.0146363 -0.998191 
-0.0600365 -0.0199722 -0.997998 
-0.0544966 -0.0266811 -0.998159 
-0.0571787 -0.0354786 -0.997735 
-0.05705 -0.0450946 -0.997355 
-0.0496719 -0.057425 -0.997116 
-0.0514599 -0.0731896 -0.995992 
-0.0500265 -0.0877925 -0.994884 
-0.0480832 -0.100606 -0.993766 
-0.0521055 -0.0953325 -0.994083 
-0.0404251 -0.0760096 -0.996289 
-0.0182522 -0.00702351 -0.999819 
0.0159363 -0.00983952 0.999832 
0.0487927 -0.0758414 0.995927 
0.057273 -0.0922212 0.994092 
0.0576202 -0.0876909 0.994483 
0.0624848 -0.0793372 0.99489 
0.0579338 -0.0749801 0.995503 
0.0642609 -0.0604343 0.996104 
0.0679775 -0.0484008 0.996514 
0.067747 -0.0380001 0.996981 
0.0706898 -0.0289501 0.99708 
0.0724486 -0.0205501 0.997163 
0.0728294 -0.0148436 0.997236 
0.0744561 -0.0103088 0.997173 
0.0753025 -0.00646131 0.997142 
0.0757861 -0.00335785 0.99712 
0.0761312 -0.000535765 0.9971 
0.0766403 0.00199043 0.997059 
0.0762109 0.00480949 0.997082 
0.0756351 0.0079362 0.997106 
0.0748654 0.0117106 0.997127 
0.0741758 0.0162458 0.997115 
0.0728439 0.0219327 0.997104 
0.0714251 0.0289986 0.997026 
0.0693842 0.0382353 0.996859 
0.067432 0.0498577 0.99648 
0.0647869 0.0651291 0.995774 
0.0620686 0.0841952 0.994517 
0.058227 0.108837 0.992355 
0.0534367 0.140007 0.98871 
0.0478932 0.182875 0.981971 
0.0416127 0.234978 0.971112 
0.034364 0.303162 0.952322 
0.026374 0.387484 0.921503 
0.0200561 0.475803 0.879326 
0.0136319 0.586564 0.80979 
0.00815818 0.699697 0.714396 
0.00343317 0.819518 0.573045 
0.000151355 0.922282 0.38652 
-0.00163949 0.979559 0.201151 
-0.00393574 0.999859 -0.0162952 
-0.00537876 0.969152 -0.246404 
-0.00683567 0.892499 -0.450999 
-0.00830735 0.814055 -0.580729 
-0.0119264 0.69587 -0.718072 
-0.0168117 0.578423 -0.815567 
-0.0227779 0.47318 -0.880674 
-0.0284279 0.38236 -0.923579 
-0.0350597 0.313612 -0.948906 
-0.0412239 0.246613 -0.968239 
-0.0466405 0.191899 -0.980308 
-0.0528524 0.148211 -0.987545 
-0.0574333 0.112697 -0.991971 
-0.0608063 0.087923 -0.994272 
-0.0645204 0.0667601 -0.995683 
-0.0673682 0.0521353 -0.996367 
-0.0689769 0.0397215 -0.996829 
-0.071503 0.0308042 -0.996967 
-0.0728004 0.0234094 -0.997074 
-0.073191 0.0174303 -0.997168 
-0.0752829 0.0130005 -0.997079 
-0.0757917 0.00902708 -0.997085 
-0.0761694 0.00578752 -0.99708 
-0.0766535 0.00284698 -0.997056 
-0.0764389 7.74476e-06 -0.997076 
-0.0760059 -0.00274422 -0.997106 
-0.0760423 -0.00583922 -0.997089 
-0.0749362 -0.00930775 -0.997147 
-0.0735698 -0.0133806 -0.997202 
-0.0733367 -0.0184631 -0.997138 
-0.0711701 -0.0250957 -0.997151 
-0.0698986 -0.0325357 -0.997026 
-0.0689017 -0.0425711 -0.996717 
-0.06632 -0.0542571 -0.996324 
-0.0641033 -0.0667426 -0.995711 
-0.0625964 -0.0805249 -0.994788 
-0.060434 -0.0922117 -0.993906 
-0.0597637 -0.0943558 -0.993745 
-0.0489499 -0.0730618 -0.996127 
-0.0178065 -0.0131869 -0.999762 
0.0122789 -0.00754639 0.999902 
0.0423089 -0.0694734 0.996688 
0.0506889 -0.0874881 0.994878 
0.056843 -0.0874554 0.994548 
0.0580792 -0.0778043 0.995278 
0.0644678 -0.0683793 0.995577 
0.0642116 -0.0560013 0.996367 
0.0668964 -0.0420729 0.996875 
0.068555 -0.0331486 0.997099 
0.0706525 -0.0244532 0.997203 
0.0710927 -0.0180303 0.997309 
0.072521 -0.013284 0.997281 
0.0737023 -0.00895878 0.997242 
0.0742274 -0.00542253 0.997229 
0.0751551 -0.00234162 0.997171 
0.0751213 0.000387675 0.997176 
0.0754508 0.00334317 0.997146 
0.0752388 0.00647606 0.997147 
0.0746428 0.0100709 0.997162 
0.0733576 0.0142912 0.997205 
0.0719148 0.019561 0.997221 
0.0703272 0.0259678 0.997188 
0.0688629 0.0341658 0.997043 
0.0668654 0.0442974 0.99678 
0.0645708 0.0574713 0.996259 
0.0615012 0.073849 0.995374 
0.0578557 0.0958201 0.993718 
0.0539502 0.123083 0.990931 
0.0494014 0.157704 0.986252 
0.0425406 0.20619 0.97759 
0.0359305 0.265308 0.963497 
0.0282197 0.342185 0.939212 
0.020404 0.428884 0.903132 
0.0131361 0.523748 0.851775 
0.0120073 0.584957 0.810978 
0.00612518 0.707869 0.70632 
0.00195481 0.820967 0.570975 
-0.000498871 0.925057 0.379828 
-0.00256269 0.989908 0.141686 
-0.00335257 0.997985 -0.0633633 
-0.00447776 0.985999 -0.166688 
-0.00608919 0.926394 -0.376507 
-0.00837321 0.828378 -0.560108 
-0.0102088 0.732668 -0.680514 
-0.0137517 0.621522 -0.783278 
-0.0180509 0.517227 -0.855661 
-0.0258339 0.398266 -0.91691 
-0.0318997 0.317181 -0.947831 
-0.0388363 0.247071 -0.968222 
-0.045836 0.188057 -0.981091 
-0.0514323 0.141257 -0.988639 
-0.0553374 0.111032 -0.992277 
-0.060583 0.0848031 -0.994556 
-0.0622049 0.0668569 -0.995824 
-0.0654562 0.0512258 -0.996542 
-0.0676404 0.0399565 -0.996912 
-0.0693156 0.0306231 -0.997127 
-0.0714964 0.0230416 -0.997177 
-0.0728522 0.0175179 -0.997191 
-0.0737607 0.0125051 -0.9972 
-0.0743506 0.00863193 -0.997197 
-0.0749685 0.00523695 -0.997174 
-0.0754127 0.00203776 -0.997152 
-0.0752699 -0.000908023 -0.997165 
-0.0751209 -0.0038351 -0.997169 
-0.0742523 -0.00724903 -0.997215 
-0.0735664 -0.0109257 -0.997233 
-0.0725066 -0.0151479 -0.997255 
-0.0711375 -0.0211321 -0.997245 
-0.0693114 -0.0275804 -0.997216 
-0.067865 -0.0355709 -0.997063 
-0.0654782 -0.047628 -0.996719 
-0.0644056 -0.0590262 -0.996179 
-0.0637287 -0.0715754 -0.995399 
-0.0595463 -0.0803792 -0.994987 
-0.0598419 -0.0877171 -0.994349 
-0.0546711 -0.0923512 -0.994227 
-0.0496712 -0.0784275 -0.995684 
-0.0169641 -0.0142467 -0.999762 
0.0101408 -0.00803711 0.999923 
0.0332713 -0.0648213 0.997344 
0.0487042 -0.0909998 0.994661 
0.051942 -0.0838512 0.995126 
0.0512812 -0.0748996 0.995874 
0.059042 -0.0681311 0.99593 
0.0560748 -0.060887 0.996571 
0.0611768 -0.0494864 0.996902 
0.0609729 -0.0389251 0.997382 
0.0642774 -0.029787 0.99749 
0.0652545 -0.0226617 0.997614 
0.0649636 -0.0170427 0.997744 
0.0672197 -0.012274 0.997665 
0.0679362 -0.00827526 0.997658 
0.0685412 -0.00473024 0.997639 
0.0689931 -0.00174175 0.997618 
0.0695118 0.00147739 0.997582 
0.0695318 0.0047161 0.997571 
0.0692344 0.00825158 0.997568 
0.0680732 0.0122227 0.997608 
0.0667442 0.0170473 0.997627 
0.0650792 0.0229451 0.997618 
0.0638052 0.0302835 0.997505 
0.0620311 0.0391625 0.997308 
0.0601749 0.0504398 0.996915 
0.057549 0.0644328 0.996264 
0.0546824 0.0827246 0.995073 
0.0508702 0.106588 0.993004 
0.0469507 0.136098 0.989585 
0.042269 0.175022 0.98366 
0.0348103 0.232121 0.972067 
0.0283425 0.299779 0.95359 
0.0207529 0.376121 0.926341 
0.0135476 0.467212 0.884045 
0.00606107 0.660296 0.750985 
0.00254461 0.773021 0.634378 
-0.000400602 0.89535 0.445364 
-0.00255471 0.94258 0.333972 
-0.00216665 0.972084 0.234623 
-0.00294268 0.998674 0.0513836 
-0.00256289 0.970597 -0.240696 
-0.00416183 0.943295 -0.331931 
-0.00610056 0.850531 -0.525892 
-0.00859951 0.720465 -0.693441 
-0.0109043 0.610532 -0.79192 
-0.0155217 0.502944 -0.864182 
-0.0211056 0.424896 -0.904999 
-0.0253686 0.342605 -0.93914 
-0.0315626 0.272712 -0.961581 
-0.0388103 0.212245 -0.976448 
-0.044315 0.162459 -0.985722 
-0.047525 0.126107 -0.99088 
-0.0537683 0.0938734 -0.994134 
-0.0551809 0.0759159 -0.995588 
-0.0586601 0.0580699 -0.99659 
-0.0606207 0.0450445 -0.997146 
-0.0626821 0.0350722 -0.997419 
-0.0648686 0.0264528 -0.997545 
-0.0660236 0.0201237 -0.997617 
-0.0678727 0.0148857 -0.997585 
-0.0679078 0.0102694 -0.997641 
-0.0686331 0.00643428 -0.997623 
-0.0693765 0.00294208 -0.997588 
-0.069199 -0.000279399 -0.997605 
-0.0690388 -0.00347191 -0.99761 
-0.0688009 -0.00665602 -0.99761 
-0.0677117 -0.0105229 -0.997652 
-0.0665119 -0.0146945 -0.99768 
-0.0661848 -0.0197106 -0.997615 
-0.0632316 -0.0264248 -0.997651 
-0.0617838 -0.0340956 -0.997509 
-0.061161 -0.0436541 -0.997175 
-0.0580913 -0.0569591 -0.996688 
-0.0579733 -0.0688491 -0.995944 
-0.0534202 -0.0797815 -0.995382 
-0.0516354 -0.0882272 -0.994764 
-0.0454842 -0.0898566 -0.994918 
-0.0410547 -0.0726872 -0.996512 
-0.0128095 -0.0116212 -0.999858 
0.00957038 -0.0120675 0.999888 
0.0276555 -0.0691447 0.997225 
0.0405869 -0.0837267 0.995664 
0.0416783 -0.0913662 0.994947 
0.0450089 -0.084183 0.995435 
0.0473726 -0.0694703 0.996461 
0.0510418 -0.0548032 0.997194 
0.0533508 -0.0453738 0.997547 
0.05496 -0.0338165 0.997918 
0.0566109 -0.0265181 0.998046 
0.0564393 -0.0205161 0.998197 
0.0572772 -0.0148592 0.99825 
0.058999 -0.010693 0.998203 
0.0599552 -0.00687016 0.99818 
0.0595125 -0.00347475 0.998224 
0.0609542 -0.000143587 0.998143 
0.0609362 0.00331431 0.998138 
0.0607089 0.00699855 0.998133 
0.0595625 0.0109738 0.998166 
0.0583843 0.0156326 0.998174 
0.0570187 0.0212558 0.998149 
0.0558744 0.0282553 0.99804 
0.0541862 0.0366717 0.997859 
0.0527213 0.0471184 0.997499 
0.0503799 0.0601161 0.996921 
0.047966 0.0769915 0.99588 
0.0449225 0.0987013 0.994105 
0.0407781 0.128057 0.990931 
0.0371447 0.164765 0.985636 
0.0318768 0.213335 0.976462 
0.0239552 0.287793 0.957397 
0.0165519 0.373025 0.927677 
0.00932024 0.485107 0.874409 
0.00431731 0.596084 0.802913 
0.00753966 0.586034 0.810254 
0.0023999 0.702335 0.711846 
-0.000477194 0.834032 0.551719 
-0.00315091 0.885315 0.464984 
-0.00333746 0.997437 0.0714641 
1.33858e-05 0.999714 0.0239045 
-0.00218836 0.994911 -0.100734 
-0.00127628 0.953783 -0.300492 
-0.00159046 0.867377 -0.497654 
-0.00471278 0.754842 -0.655892 
-0.00653613 0.628448 -0.777827 
-0.0103288 0.516568 -0.856188 
-0.0167866 0.406237 -0.913618 
-0.0214668 0.319932 -0.9472 
-0.0287965 0.249315 -0.967997 
-0.0351832 0.197615 -0.97965 
-0.038773 0.155224 -0.987121 
-0.0447326 0.110019 -0.992925 
-0.0454629 0.0898397 -0.99492 
-0.0491754 0.0691739 -0.996394 
-0.0511314 0.0542264 -0.997221 
-0.0527069 0.0423371 -0.997714 
-0.0554942 0.0324949 -0.997932 
-0.0564156 0.025152 -0.998093 
-0.0577087 0.0188813 -0.998157 
-0.0596758 0.0137594 -0.998125 
-0.0590721 0.00918503 -0.998214 
-0.0601883 0.00518837 -0.998176 
-0.0602665 0.00169124 -0.998183 
-0.0603372 -0.00176053 -0.998179 
-0.0598097 -0.0051099 -0.998199 
-0.0601712 -0.00855739 -0.998154 
-0.0583548 -0.0125395 -0.998219 
-0.0578374 -0.0171787 -0.99818 
-0.0570806 -0.0223596 -0.998121 
-0.0536972 -0.029569 -0.998122 
-0.0529567 -0.038126 -0.997871 
-0.0534078 -0.048668 -0.997388 
-0.0488691 -0.0600057 -0.997003 
-0.0502506 -0.0700902 -0.996277 
-0.0454588 -0.0809649 -0.995682 
-0.0444961 -0.0886327 -0.995072 
-0.0381701 -0.0914357 -0.995081 
-0.0319253 -0.0686974 -0.997129 
-0.0100711 -0.0129205 -0.999873 
0.00780343 -0.0141622 0.999876 
0.0233245 -0.074923 0.996919 
0.0338122 -0.0904937 0.995325 
0.0344727 -0.0893751 0.995404 
0.0403802 -0.0801103 0.99597 
0.0369984 -0.0723571 0.996695 
0.0422462 -0.0607785 0.997259 
0.0404423 -0.0489345 0.997986 
0.0459095 -0.039751 0.998156 
0.0446426 -0.0309611 0.998525 
0.0455105 -0.0246503 0.998662 
0.0472084 -0.0185746 0.998715 
0.0468681 -0.0137592 0.998809 
0.0490316 -0.00975098 0.998752 
0.0493609 -0.00614464 0.998764 
0.0493116 -0.00245518 0.998783 
0.0505154 0.00100159 0.998725 
0.0502857 0.00470852 0.998726 
0.0491327 0.00854106 0.998758 
0.048159 0.0128921 0.998759 
0.0473731 0.0180563 0.998716 
0.0464742 0.0242357 0.998628 
0.0451647 0.0315669 0.998483 
0.0438143 0.040556 0.998218 
0.0423031 0.051435 0.997782 
0.0403824 0.0655881 0.997032 
0.0380075 0.0836793 0.99577 
0.0353172 0.107791 0.993549 
0.0313454 0.140933 0.989526 
0.0280282 0.182773 0.982759 
0.0232685 0.243777 0.969555 
0.0155474 0.328135 0.944506 
0.00914253 0.43203 0.901817 
0.00362185 0.548129 0.836389 
-0.00138407 0.771629 0.636074 
-0.00200066 0.838709 0.544579 
-0.00177203 0.915168 0.40307 
0.00182368 0.951835 0.306605 
-0.00344165 0.973723 0.227708 
0.00358437 0.993879 0.11041 
0.00292356 0.998913 -0.0464987 
-0.00110277 0.985143 -0.171735 
-0.00110492 0.894795 -0.446477 
-3.68531e-05 0.790554 -0.612395 
-0.00141675 0.734202 -0.678933 
-0.00482665 0.5639 -0.825833 
-0.0106769 0.431151 -0.90222 
-0.0141958 0.344007 -0.938863 
-0.022019 0.255522 -0.966556 
-0.0280997 0.191605 -0.981073 
-0.0274319 0.159538 -0.986813 
-0.0363997 0.134006 -0.990314 
-0.0342823 0.108093 -0.993552 
-0.0381974 0.0827282 -0.995842 
-0.0404734 0.0647028 -0.997086 
-0.0420016 0.0504215 -0.997847 
-0.0443105 0.0385404 -0.998276 
-0.0454486 0.0300057 -0.998518 
-0.0468037 0.022694 -0.998648 
-0.0480235 0.0165724 -0.998711 
-0.0492047 0.0117197 -0.998722 
-0.0492594 0.0068665 -0.998765 
-0.0492406 0.00296365 -0.998785 
-0.0496901 -0.000764501 -0.998767 
-0.0490777 -0.00435255 -0.998788 
-0.04933 -0.00803267 -0.998752 
-0.0484896 -0.0117484 -0.998757 
-0.0477998 -0.0163609 -0.998725 
-0.0463335 -0.0216199 -0.998694 
-0.0449614 -0.0276534 -0.998608 
-0.043063 -0.0366358 -0.998403 
-0.0436835 -0.0472232 -0.997931 
-0.0401282 -0.0605846 -0.997359 
-0.0401245 -0.0737819 -0.996469 
-0.0352917 -0.0837939 -0.99586 
-0.0360225 -0.0899554 -0.995297 
-0.0300213 -0.0936739 -0.995152 
-0.0270679 -0.0767353 -0.996686 
-0.00841485 -0.0136584 -0.999878 
0.00573034 -0.0140872 0.999891 
0.017739 -0.0756647 0.996978 
0.0271412 -0.0936599 0.995236 
0.0253967 -0.091684 0.995467 
0.0312811 -0.0843437 0.995948 
0.0288416 -0.0748087 0.996783 
0.0325272 -0.0602563 0.997655 
0.0310961 -0.0477008 0.99838 
0.035467 -0.0379899 0.998651 
0.0331829 -0.0305413 0.998985 
0.0360234 -0.0235735 0.999075 
0.0370971 -0.0180177 0.999151 
0.0364981 -0.0133607 0.999247 
0.0385159 -0.00940479 0.999216 
0.0394768 -0.00544706 0.999207 
0.0388243 -0.00157637 0.999247 
0.0399733 0.00218687 0.9992 
0.0388167 0.00609826 0.99923 
0.037826 0.0104557 0.999232 
0.0375386 0.0155373 0.999177 
0.0368553 0.0213933 0.999094 
0.0359119 0.0282343 0.998958 
0.0347951 0.0365872 0.998727 
0.0334239 0.0467728 0.998348 
0.0321982 0.0595374 0.997709 
0.0302413 0.076139 0.996641 
0.0280928 0.0981322 0.994779 
0.025362 0.127404 0.991529 
0.0217527 0.169672 0.985264 
0.0191624 0.222917 0.974652 
0.0142123 0.292037 0.956305 
0.00837472 0.391636 0.920086 
0.00378267 0.500969 0.865461 
0.000986067 0.631538 0.775348 
0.00073654 0.655812 0.754927 
0.00361505 0.871624 0.490165 
0.00777053 0.956399 0.291961 
0.00726502 0.997183 0.0746475 
0.00660411 0.999615 0.0269471 
0.0059282 0.999744 -0.0217908 
0.00379005 0.996082 -0.0881775 
0.00409895 0.996032 -0.0888768 
-0.00120381 0.957052 -0.289914 
-0.000351629 0.873321 -0.487149 
-0.0017972 0.625913 -0.779893 
-0.00204391 0.54985 -0.835264 
-0.00506735 0.483165 -0.875518 
-0.00730282 0.39752 -0.917568 
-0.0136002 0.293803 -0.955773 
-0.019001 0.222408 -0.974772 
-0.0197904 0.177157 -0.983986 
-0.0265202 0.127558 -0.991479 
-0.0282632 0.0946821 -0.995109 
-0.0303311 0.0739817 -0.996801 
-0.0322074 0.058164 -0.99779 
-0.0341354 0.0448131 -0.998414 
-0.0347591 0.0351861 -0.998778 
-0.0361915 0.0271226 -0.998979 
-0.0373678 0.020377 -0.999096 
-0.0376239 0.0148067 -0.999185 
-0.0397304 0.00982151 -0.999164 
-0.0383892 0.00533537 -0.999251 
-0.038973 0.00124544 -0.999242 
-0.0386735 -0.00249562 -0.999251 
-0.038758 -0.00633384 -0.999231 
-0.0379074 -0.0100192 -0.999233 
-0.0381735 -0.0141189 -0.999174 
-0.0368075 -0.0188042 -0.999148 
-0.0349834 -0.0242375 -0.999096 
-0.0352227 -0.0313589 -0.998889 
-0.0323747 -0.0400401 -0.998676 
-0.0343207 -0.0489423 -0.998214 
-0.0301695 -0.0601371 -0.997736 
-0.0316358 -0.0720877 -0.996899 
-0.0275499 -0.083387 -0.996139 
-0.0265094 -0.0917259 -0.995434 
-0.0220953 -0.0936189 -0.995365 
-0.0195115 -0.0729731 -0.997145 
-0.00553189 -0.0130406 -0.999907 
0.00391691 -0.0149631 0.999887 
0.0124259 -0.0764055 0.997001 
0.0197902 -0.0942813 0.995351 
0.0187554 -0.0929124 0.9955 
0.0232341 -0.0846683 0.996141 
0.0208571 -0.0747984 0.996983 