# vtk DataFile Version 3.0 
Exported using Morpho https://github.com/Morpho-lang/morpho 
ASCII 
DATASET UNSTRUCTURED_GRID 

POINTS 1978 float 
-8.48528 -2.82843 2.01411e-18 
-8.26163 -2.82843 -1.71499e-17 
-8.0339 -2.82843 -2.28173e-17 
-7.78151 -2.82843 -3.14731e-17 
-7.49933 -2.82843 -5.00107e-17 
-7.23905 -2.82843 -3.89195e-17 
-6.99339 -2.82843 -3.93227e-17 
-6.76585 -2.82843 -2.98707e-17 
-6.54887 -2.82843 -3.44874e-17 
-6.33736 -2.82843 -2.59923e-17 
-6.12566 -2.82843 -2.05067e-17 
-5.92143 -2.82843 -2.26951e-17 
-5.70475 -2.82843 -1.96004e-17 
-5.50702 -2.82843 -1.99421e-17 
-5.28881 -2.82843 -2.00476e-17 
-5.08059 -2.82843 -1.94157e-17 
-4.8627 -2.82843 -1.83378e-17 
-4.65844 -2.82843 -1.90167e-17 
-4.43765 -2.82843 -1.9471e-17 
-4.22024 -2.82843 -1.81245e-17 
-4.00839 -2.82843 -1.55822e-17 
-3.80953 -2.82843 -1.29486e-17 
-3.60666 -2.82843 -1.01323e-17 
-3.40042 -2.82843 -5.7939e-18 
-3.18852 -2.82843 1.82163e-19 
-2.97824 -2.82843 7.40661e-18 
-2.76211 -2.82843 1.60294e-17 
-2.5384 -2.82843 2.58647e-17 
-2.30873 -2.82843 3.65382e-17 
-2.07392 -2.82843 4.98622e-17 
-1.82953 -2.82843 5.93925e-17 
-1.61634 -2.82843 5.03592e-17 
-1.37488 -2.82843 -1.46577e-16 
-1.1949 -2.82843 -3.01609e-16 
-1.04537 -2.82843 -1.28815e-16 
-0.84559 -2.82843 -4.11292e-16 
-0.704016 -2.82843 -1.17242e-14 
-0.607256 -2.82843 -8.95801e-15 
-0.334452 -2.82843 -1.80123e-14 
0.135884 -2.82843 1.39004e-14 
0.286604 -2.82843 1.26817e-14 
0.59824 -2.82843 6.22166e-15 
0.713417 -2.82843 2.46677e-15 
0.878285 -2.82843 1.68496e-15 
1.00986 -2.82843 7.99472e-16 
1.16877 -2.82843 4.46756e-16 
1.38204 -2.82843 2.01008e-16 
1.60893 -2.82843 1.43472e-17 
1.84611 -2.82843 -3.91469e-17 
2.09398 -2.82843 -4.1645e-17 
2.32375 -2.82843 -2.94143e-17 
2.53366 -2.82843 -2.56112e-17 
2.75524 -2.82843 -1.87197e-17 
2.97989 -2.82843 -6.87945e-18 
3.20259 -2.82843 2.50685e-19 
3.41311 -2.82843 6.42402e-18 
3.62812 -2.82843 1.0364e-17 
3.82014 -2.82843 1.39156e-17 
4.03365 -2.82843 1.69103e-17 
4.24904 -2.82843 1.67584e-17 
4.44624 -2.82843 1.74953e-17 
4.65751 -2.82843 1.8115e-17 
4.86108 -2.82843 1.84024e-17 
5.07012 -2.82843 1.91409e-17 
5.28024 -2.82843 2.06599e-17 
5.50084 -2.82843 2.00008e-17 
5.69941 -2.82843 2.0362e-17 
5.91732 -2.82843 2.36948e-17 
6.1415 -2.82843 2.31981e-17 
6.34228 -2.82843 2.6239e-17 
6.57979 -2.82843 2.97777e-17 
6.79599 -2.82843 2.71101e-17 
6.9959 -2.82843 3.73894e-17 
7.27099 -2.82843 4.48552e-17 
7.50006 -2.82843 4.13021e-17 
7.74487 -2.82843 3.50654e-17 
8.01973 -2.82843 1.9984e-17 
8.20722 -2.82843 1.63855e-17 
8.48528 -2.82843 -1.95839e-19 
-8.48528 -2.59129 2.69347e-18 
-8.25899 -2.59006 -1.13495e-18 
-8.02808 -2.58683 -5.50063e-17 
-7.79244 -2.61568 -9.11974e-17 
-7.54316 -2.63807 -9.44763e-17 
-7.25645 -2.62076 -1.01218e-16 
-6.99529 -2.59817 -7.51151e-17 
-6.77132 -2.59856 -9.04829e-17 
-6.54395 -2.59353 -4.00938e-17 
-6.32371 -2.59259 -4.99615e-17 
-6.10719 -2.58832 -6.45187e-17 
-5.88746 -2.59784 -5.08185e-17 
-5.6817 -2.57411 4.54294e-18 
-5.46186 -2.60018 -5.05608e-17 
-5.24729 -2.58768 4.22861e-18 
-5.02808 -2.59847 3.91337e-18 
-4.81721 -2.58423 3.12729e-18 
-4.59783 -2.60256 4.56998e-18 
-4.37485 -2.60176 3.85355e-18 
-4.15625 -2.59837 3.94963e-18 
-3.94869 -2.58422 2.96623e-18 
-3.74053 -2.58874 1.98884e-18 
-3.52768 -2.59061 1.69751e-18 
-3.30964 -2.59421 1.18669e-18 
-3.08794 -2.58826 1.1327e-18 
-2.86282 -2.58949 7.72688e-19 
-2.62909 -2.59056 6.43861e-17 
-2.38741 -2.58987 8.13414e-17 
-2.14161 -2.59143 8.50324e-17 
-1.89423 -2.60483 1.42136e-17 
-1.65321 -2.58837 -1.3317e-16 
-1.44059 -2.63657 3.01412e-16 
-1.22454 -2.6094 -1.22087e-15 
-1.06539 -2.63441 1.83394e-15 
-0.916753 -2.69845 -3.4734e-15 
-0.862174 -2.54278 -7.7573e-15 
-0.754747 -2.68998 1.04208e-14 
-0.522915 -2.77635 -6.58284e-15 
-0.192863 -2.78192 2.57539e-14 
0.020251 -2.80123 -2.63663e-14 
0.267245 -2.73763 -2.65345e-15 
0.496987 -2.77925 4.71095e-16 
0.677045 -2.66246 -1.94254e-15 
0.816954 -2.68824 -1.44932e-15 
0.971027 -2.61564 -2.11649e-15 
1.13364 -2.60231 -2.23865e-16 
1.31644 -2.62354 9.47452e-17 
1.54092 -2.61741 -6.14678e-17 
1.78034 -2.60837 -3.00938e-17 
2.02955 -2.61137 -1.15054e-16 
2.285 -2.59259 -8.04804e-17 
2.52139 -2.58362 -5.95495e-17 
2.75437 -2.58688 7.2594e-18 
2.99072 -2.5941 2.61998e-18 
3.21543 -2.58804 1.46318e-18 
3.44144 -2.59756 -1.2914e-18 
3.64398 -2.57426 -1.11366e-18 
3.86261 -2.60219 -3.36158e-18 
4.08552 -2.60352 -3.53976e-18 
4.29405 -2.58154 -2.94554e-18 
4.50657 -2.59697 -4.03315e-18 
4.71786 -2.58637 -3.87163e-18 
4.93057 -2.59291 -3.69906e-18 
5.1447 -2.59269 -4.42981e-18 
5.3666 -2.60412 4.95879e-17 
5.57812 -2.57949 -3.49391e-18 
5.79239 -2.60014 5.35488e-17 
6.01943 -2.6042 5.80198e-17 
6.23545 -2.57454 5.24033e-17 
6.45566 -2.61053 7.08259e-17 
6.6845 -2.586 6.51973e-17 
6.89409 -2.56382 6.02319e-17 
7.1256 -2.63465 9.78753e-17 
7.3766 -2.59227 8.24282e-17 
7.61206 -2.6083 9.87737e-17 
7.87329 -2.63164 9.6408e-17 
8.08256 -2.53854 -3.60745e-18 
8.30582 -2.62963 -3.04886e-19 
8.48528 -2.52413 -2.24042e-18 
-8.48528 -2.35107 4.75963e-17 
-8.24729 -2.35644 -3.32714e-17 
-8.00674 -2.3522 -2.64446e-18 
-7.76384 -2.39443 1.55048e-18 
-7.5579 -2.24647 -3.49741e-18 
-7.4742 -2.45274 6.53479e-18 
-7.19088 -2.41313 6.68368e-19 
-6.9526 -2.35618 -3.66074e-18 
-6.7159 -2.37636 5.45712e-18 
-6.47962 -2.36506 -1.81337e-18 
-6.2505 -2.3584 6.89737e-19 
-6.02423 -2.36042 1.35224e-18 
-5.81467 -2.34545 5.96322e-20 
-5.57916 -2.35676 5.66076e-19 
-5.36615 -2.35971 5.63761e-19 
-5.13869 -2.3629 5.40995e-19 
-4.92618 -2.35288 3.98417e-19 
-4.70091 -2.36474 4.51666e-19 
-4.48176 -2.37787 4.24504e-19 
-4.25984 -2.37255 2.31196e-19 
-4.04863 -2.35228 -1.7042e-19 
-3.83501 -2.34914 -2.79692e-19 
-3.62253 -2.35582 -8.41319e-19 
-3.40418 -2.36024 -1.19313e-18 
-3.18451 -2.35852 -2.14353e-18 
-2.95709 -2.35363 -2.88544e-18 
-2.72733 -2.35662 -3.8468e-18 
-2.4899 -2.35738 -7.81696e-18 
-2.24641 -2.35666 -7.18505e-18 
-2.00025 -2.36661 1.42661e-18 
-1.76669 -2.37045 -7.82873e-17 
-1.52511 -2.38445 3.78034e-16 
-1.32555 -2.43106 -3.78247e-16 
-1.10824 -2.41608 4.13245e-16 
-0.960157 -2.45216 1.31176e-15 
-0.740589 -2.3779 -8.63715e-15 
-0.624249 -2.65765 -3.18414e-14 
-0.443332 -2.72335 2.03504e-14 
-0.312914 -2.7325 -6.0434e-15 
-0.0638936 -2.73513 1.2744e-15 
0.267695 -2.63766 4.0687e-15 
0.408912 -2.72905 -5.3519e-15 
0.651085 -2.50979 -1.74317e-15 
0.808724 -2.52443 3.59269e-16 
0.974624 -2.43154 -1.08814e-15 
1.12788 -2.37818 3.07927e-16 
1.29895 -2.39871 5.36655e-16 
1.49517 -2.40725 -2.18015e-16 
1.71641 -2.39438 4.53161e-17 
1.958 -2.39065 -7.78972e-18 
2.20072 -2.38147 -8.53183e-18 
2.45273 -2.35176 -4.31891e-18 
2.69036 -2.35573 2.81362e-18 
2.92918 -2.36246 -3.69372e-18 
3.15812 -2.3531 -3.13985e-19 
3.38311 -2.36537 -1.11844e-18 
3.59326 -2.32881 2.25537e-19 
3.80448 -2.36592 7.48953e-20 
4.0174 -2.37855 -9.68272e-20 
4.22865 -2.35034 -1.47379e-21 
4.4465 -2.35693 -3.07494e-19 
4.6522 -2.35305 -4.01578e-19 
4.86812 -2.35536 -4.14939e-19 
5.07927 -2.35752 -4.65759e-19 
5.29765 -2.37404 -7.57864e-19 
5.50935 -2.34973 -4.7025e-19 
5.73154 -2.3585 -6.12868e-19 
5.94651 -2.37877 -9.98055e-19 
6.16401 -2.34754 -4.95185e-19 
6.39782 -2.36391 -9.99364e-19 
6.60932 -2.36427 -8.9621e-19 
6.83171 -2.31633 -7.95214e-20 
7.06454 -2.38435 -7.65771e-19 
7.282 -2.39367 -1.4314e-18 
7.54433 -2.36964 -8.75326e-19 
7.78023 -2.4145 -2.73631e-18 
7.99305 -2.32096 -1.73534e-19 
8.25496 -2.3596 8.79216e-19 
8.48528 -2.2877 1.91504e-18 
-8.48528 -2.11491 4.61976e-17 
-8.25681 -2.1046 -5.91861e-17 
-8.04535 -2.11312 5.61527e-18 
-7.79694 -2.15432 -5.11776e-19 
-7.51101 -2.03385 -3.87342e-19 
-7.30149 -2.23202 7.99673e-19 
-7.05948 -2.1491 -1.77428e-18 
-6.80066 -2.13941 -3.50972e-18 
-6.58333 -2.14711 -3.43258e-19 
-6.34948 -2.13384 -2.80605e-18 
-6.12379 -2.12651 3.18266e-19 
-5.91547 -2.10588 -2.0133e-18 
-5.69075 -2.13356 -6.27736e-19 
-5.47032 -2.11607 -7.43636e-19 
-5.25445 -2.13585 -1.00975e-18 
-5.04116 -2.11783 -9.05607e-19 
-4.82154 -2.13144 -1.02749e-18 
-4.60293 -2.13946 -8.71745e-19 
-4.39011 -2.14801 -9.23284e-19 
-4.18302 -2.12674 -8.13126e-19 
-3.9709 -2.1164 -8.83514e-19 
-3.75895 -2.11562 -7.14298e-19 
-3.54575 -2.12537 -8.78393e-19 
-3.33034 -2.12493 -4.9773e-19 
-3.1099 -2.12578 -9.70067e-19 
-2.8838 -2.11913 6.70927e-20 
-2.65495 -2.12321 -8.50058e-19 
-2.41948 -2.12433 2.54996e-18 
-2.17887 -2.12642 6.08063e-19 
-1.94778 -2.12776 -2.31221e-17 
-1.71304 -2.1544 4.0714e-17 
-1.51399 -2.12822 -2.89679e-17 
-1.34314 -2.19913 -7.79507e-16 
-1.16704 -2.24494 3.24993e-15 
-0.970206 -2.22177 -4.41952e-15 
-0.849173 -2.28547 4.7608e-15 
-0.721653 -2.54167 5.48212e-15 
-0.388342 -2.62641 -5.31359e-15 
-0.239836 -2.66295 -7.54559e-15 
0.143792 -2.72308 -1.08007e-15 
0.404275 -2.62701 -5.93373e-15 
0.562638 -2.64847 -7.05327e-15 
0.689093 -2.37668 -1.63352e-15 
0.846534 -2.34915 7.0713e-16 
1.00411 -2.20773 1.04598e-15 
1.1833 -2.15977 4.65863e-16 
1.36758 -2.17811 2.49386e-16 
1.56064 -2.17534 -9.38928e-17 
1.78265 -2.17249 1.03209e-17 
2.01011 -2.15949 8.33404e-18 
2.24832 -2.15529 -1.2782e-18 
2.48575 -2.11928 -1.17256e-17 
2.72133 -2.12948 6.40034e-18 
2.95017 -2.12778 -9.35143e-21 
3.17746 -2.12147 -1.30438e-18 
3.38848 -2.12081 1.20095e-18 
3.6134 -2.10263 3.61054e-19 
3.83405 -2.13375 5.02538e-19 
4.04296 -2.13963 6.92236e-19 
4.26761 -2.12486 8.22186e-19 
4.47391 -2.11297 9.39309e-19 
4.69146 -2.12329 9.74865e-19 
4.90389 -2.11808 9.91677e-19 
5.12459 -2.13117 9.37221e-19 
5.33409 -2.1328 9.28171e-19 
5.56073 -2.1249 9.15795e-19 
5.77928 -2.12678 8.07591e-19 
5.99036 -2.13805 8.72034e-19 
6.23134 -2.1319 5.61343e-19 
6.44428 -2.11546 6.26839e-19 
6.65618 -2.11638 1.29092e-18 
6.91805 -2.1122 1.45792e-18 
7.12928 -2.1398 1.62101e-18 
7.365 -2.1796 1.19605e-18 
7.56435 -2.08976 1.1004e-18 
7.75395 -2.17558 1.10275e-18 
7.96351 -2.07386 9.19183e-19 
8.19063 -2.14132 1.63651e-18 
8.48528 -2.1018 8.64224e-19 
-8.48528 -1.81172 9.51552e-19 
-8.308 -1.86251 3.11726e-20 
-7.89336 -1.91333 -1.7879e-18 
[...]
POINT_DATA 1978 
VECTORS vectors float
4.54846e-05 -0.000440579 1 
-5.85045e-05 -0.0210193 0.999779 
-5.4336e-05 -0.0205527 0.999789 
-4.51725e-05 -0.0258887 0.999665 
-6.27687e-05 -0.0360086 0.999351 
-4.34148e-05 -0.0387134 0.99925 
-3.64489e-05 -0.0371165 0.999311 
-2.33188e-05 -0.0338841 0.999426 
-2.37544e-05 -0.030777 0.999526 
-1.5981e-05 -0.0279937 0.999608 
-1.82471e-05 -0.0257934 0.999667 
-1.66135e-05 -0.0238617 0.999715 
-2.08747e-05 -0.02245 0.999748 
-9.70475e-06 -0.0217791 0.999763 
-2.76914e-05 -0.0210635 0.999778 
-1.57018e-05 -0.0203368 0.999793 
-2.38208e-05 -0.0198694 0.999803 
-1.547e-05 -0.0194769 0.99981 
-2.91533e-05 -0.0189765 0.99982 
-1.98096e-05 -0.0181231 0.999836 
-1.59394e-05 -0.0168934 0.999857 
-9.58155e-06 -0.014904 0.999889 
-1.47604e-05 -0.0115812 0.999933 
-1.59571e-05 -0.00636603 0.99998 
-1.7309e-05 0.00130764 0.999999 
-1.66098e-05 0.0115795 0.999933 
-2.04798e-05 0.0252665 0.999681 
-2.22965e-05 0.0433616 0.999059 
-2.03837e-05 0.06769 0.997706 
-2.24602e-05 0.101597 0.994826 
-1.16105e-05 0.15028 0.988643 
-5.68119e-06 0.207334 0.97827 
-8.66799e-06 0.290101 0.956996 
1.30119e-05 0.366288 0.930502 
-2.41165e-06 0.442383 0.896826 
-3.07794e-05 0.581937 0.813234 
1.36665e-05 0.67735 0.735661 
-0.000114618 0.740152 0.67244 
7.92192e-05 0.91387 0.406007 
-7.09714e-05 0.992759 -0.120122 
7.30225e-05 0.930179 -0.367105 
-9.54814e-05 0.735894 -0.677097 
8.39519e-05 0.664377 -0.747398 
2.51111e-05 0.551201 -0.834372 
-2.4152e-06 0.470984 -0.882142 
2.63069e-06 0.387154 -0.922015 
2.44857e-06 0.292473 -0.956274 
7.04876e-06 0.213486 -0.976946 
1.54412e-05 0.150894 -0.98855 
2.17545e-05 0.102331 -0.99475 
1.58411e-05 0.0678154 -0.997698 
1.33383e-05 0.0449873 -0.998988 
2.39487e-05 0.0269311 -0.999637 
2.38667e-05 0.0113539 -0.999936 
1.9213e-05 0.000633704 -1 
1.75121e-05 -0.00681865 -0.999977 
1.81516e-05 -0.0121125 -0.999927 
3.30451e-06 -0.0151143 -0.999886 
2.97997e-05 -0.0169999 -0.999855 
1.21587e-05 -0.0183314 -0.999832 
1.21427e-05 -0.0190116 -0.999819 
2.06488e-05 -0.0194991 -0.99981 
1.32957e-05 -0.0200151 -0.9998 
1.82988e-05 -0.0203737 -0.999792 
2.31084e-05 -0.0209386 -0.999781 
2.02456e-05 -0.0216779 -0.999765 
1.0023e-05 -0.0224411 -0.999748 
3.4231e-05 -0.0238854 -0.999715 
1.48695e-05 -0.0259631 -0.999663 
2.14156e-05 -0.028026 -0.999607 
3.79442e-05 -0.0310956 -0.999516 
6.47528e-06 -0.0343077 -0.999411 
3.70931e-05 -0.0369594 -0.999317 
5.32305e-05 -0.0393575 -0.999225 
2.91304e-05 -0.0372172 -0.999307 
5.31245e-05 -0.028311 -0.999599 
4.50521e-05 -0.021299 -0.999773 
6.53803e-05 -0.0216517 -0.999766 
-1.86652e-05 -0.000184851 -1 
0.000157676 0.000278855 1 
0.0125259 -0.0214573 0.999691 
0.0159004 -0.0241036 0.999583 
0.0167777 -0.0264059 0.99951 
0.015902 -0.0321859 0.999355 
0.015902 -0.0363036 0.999214 
0.0172503 -0.0357562 0.999212 
0.0172458 -0.0334955 0.99929 
0.017781 -0.030228 0.999385 
0.0178488 -0.0274669 0.999463 
0.0182037 -0.0251834 0.999517 
0.0182047 -0.0233238 0.999562 
0.0187016 -0.0219604 0.999584 
0.0181646 -0.0211208 0.999612 
0.0185655 -0.0204383 0.999619 
0.0183709 -0.0198085 0.999635 
0.0187134 -0.0192709 0.999639 
0.0183929 -0.0187954 0.999654 
0.0185325 -0.0180683 0.999665 
0.0185408 -0.0168946 0.999685 
0.0186203 -0.0151103 0.999712 
0.0182381 -0.0124288 0.999756 
0.0179519 -0.00821202 0.999805 
0.0175721 -0.00186701 0.999844 
0.0173823 0.00717015 0.999823 
0.0170938 0.0193775 0.999666 
0.0169665 0.0360212 0.999207 
0.0173239 0.0590125 0.998107 
0.018224 0.0911888 0.995667 
0.0191941 0.136939 0.990394 
0.0236021 0.197671 0.979984 
0.0234833 0.266799 0.963466 
0.0332741 0.359212 0.932663 
0.0387666 0.443568 0.895402 
0.0255061 0.53164 0.846586 
0.0691744 0.55495 0.829003 
0.0403694 0.645688 0.762533 
0.0148889 0.800529 0.599109 
0.00974061 0.971109 0.238436 
0.00158038 0.999311 0.0370874 
-0.0181034 0.940858 -0.338317 
-0.0109301 0.803241 -0.595554 
-0.039364 0.680039 -0.732118 
-0.026281 0.586507 -0.809518 
-0.0414411 0.482857 -0.874718 
-0.0353725 0.394675 -0.918139 
-0.0254862 0.313943 -0.9491 
-0.0222585 0.233873 -0.972012 
-0.0201934 0.167495 -0.985666 
-0.0184255 0.11551 -0.993135 
-0.0177338 0.0759154 -0.996957 
-0.0174472 0.048272 -0.998682 
-0.016677 0.0272794 -0.999489 
-0.0170251 0.0120991 -0.999782 
-0.0174895 0.00162795 -0.999846 
-0.0175654 -0.00607024 -0.999827 
-0.0183972 -0.0106678 -0.999774 
-0.0181125 -0.0142831 -0.999734 
-0.0183367 -0.0164455 -0.999697 
-0.0187937 -0.0176598 -0.999667 
-0.0184888 -0.0185344 -0.999657 
-0.0186898 -0.0190943 -0.999643 
-0.0184761 -0.0196246 -0.999637 
-0.0185378 -0.0201305 -0.999625 
-0.0182472 -0.0207979 -0.999617 
-0.0186507 -0.0215512 -0.999594 
-0.0182246 -0.0227107 -0.999576 
-0.0180034 -0.0244446 -0.999539 
-0.0183526 -0.0265095 -0.99948 
-0.017527 -0.0291542 -0.999421 
-0.0176157 -0.0322761 -0.999324 
-0.0175416 -0.0349012 -0.999237 
-0.016103 -0.0367933 -0.999193 
-0.0170253 -0.0350243 -0.999241 
-0.0172451 -0.0310944 -0.999368 
-0.0164086 -0.0259078 -0.99953 
-0.015658 -0.025864 -0.999543 
-0.0114655 -0.0207698 -0.999719 
-3.23291e-05 7.65211e-05 -1 
-8.11235e-05 -0.000212821 1 
0.0114021 -0.0243321 0.999639 
0.0146045 -0.0264624 0.999543 
0.0159811 -0.027262 0.999501 
0.0130053 -0.0282482 0.999516 
0.0171636 -0.0313101 0.999362 
0.0171548 -0.0345966 0.999254 
0.0167128 -0.0347189 0.999257 
0.0178633 -0.0325175 0.999312 
0.0182838 -0.0291248 0.999409 
0.0185275 -0.0263585 0.999481 
0.0186249 -0.024069 0.999537 
0.018596 -0.0223994 0.999576 
0.0188934 -0.0211483 0.999598 
0.0189766 -0.0203979 0.999612 
0.0190616 -0.0197035 0.999624 
0.0190021 -0.0191023 0.999637 
0.0191696 -0.0185537 0.999644 
0.0193092 -0.0178697 0.999654 
0.0192873 -0.0167563 0.999674 
0.0190925 -0.0151098 0.999704 
0.0189803 -0.0126863 0.999739 
0.0188924 -0.00907758 0.99978 
0.0189014 -0.00365102 0.999815 
0.0189707 0.00402508 0.999812 
0.0192522 0.0147002 0.999707 
0.0198903 0.0289536 0.999383 
0.0212844 0.0485507 0.998594 
0.0240548 0.075842 0.99683 
0.028303 0.113914 0.993087 
0.0345986 0.162193 0.986152 
0.0446736 0.226728 0.972933 
0.051337 0.298623 0.95299 
0.0731225 0.381779 0.921357 
0.0819718 0.467334 0.880272 
0.115559 0.581335 0.805416 
0.0560722 0.740861 0.669314 
0.0343045 0.843874 0.535444 
0.0267015 0.924576 0.38006 
0.00711927 0.996922 0.0780796 
-0.0452706 0.938117 -0.343346 
-0.0249753 0.856727 -0.515165 
-0.0930557 0.676365 -0.730664 
-0.0707176 0.579466 -0.811923 
-0.0831039 0.467987 -0.879819 
-0.0725329 0.381359 -0.921577 
-0.0538738 0.309581 -0.949346 
-0.0428788 0.240441 -0.969716 
-0.0350619 0.178223 -0.983365 
-0.0289861 0.126524 -0.99154 
-0.0246126 0.0859442 -0.995996 
-0.0217699 0.0545349 -0.998275 
-0.0198236 0.0321096 -0.999288 
-0.0191674 0.0159551 -0.999689 
-0.0188882 0.00478892 -0.99981 
-0.0189363 -0.00319488 -0.999816 
-0.0186925 -0.00833282 -0.999791 
-0.019031 -0.0123082 -0.999743 
-0.0192647 -0.0149273 -0.999703 
-0.0190513 -0.0165095 -0.999682 
-0.0191953 -0.0176657 -0.99966 
-0.0191611 -0.0184115 -0.999647 
-0.0190555 -0.0190239 -0.999637 
-0.0190073 -0.0195488 -0.999628 
-0.019184 -0.0201922 -0.999612 
-0.0188786 -0.0209134 -0.999603 
-0.0189098 -0.0220264 -0.999579 
-0.0190387 -0.0235422 -0.999542 
-0.0185224 -0.0254719 -0.999504 
-0.018541 -0.0282131 -0.99943 
-0.0182577 -0.0311276 -0.999349 
-0.0171738 -0.0340362 -0.999273 
-0.0170839 -0.0353632 -0.999228 
-0.0165076 -0.0339221 -0.999288 
-0.0153705 -0.0298212 -0.999437 
-0.0162667 -0.0277728 -0.999482 
-0.0137215 -0.0275362 -0.999527 
-0.0112929 -0.0244616 -0.999637 
-8.63959e-07 -9.56739e-05 -1 
-3.49294e-05 -0.000181882 1 
0.00934534 -0.0264891 0.999605 
0.0110786 -0.0279127 0.999549 
0.011461 -0.0266479 0.999579 
0.0107556 -0.0272481 0.999571 
0.0142773 -0.0319821 0.999386 
0.0147173 -0.0342689 0.999304 
0.015638 -0.033449 0.999318 
0.0163576 -0.0306417 0.999397 
0.0166059 -0.0273709 0.999487 
0.0167772 -0.0247914 0.999552 
0.0169416 -0.0229059 0.999594 
0.0173168 -0.0214787 0.999619 
0.0174546 -0.0204598 0.999638 
0.0174735 -0.0197303 0.999653 
0.0175658 -0.0190979 0.999663 
0.0177343 -0.0185163 0.999671 
0.0178176 -0.017827 0.999682 
0.0178147 -0.0168904 0.999699 
0.0177879 -0.015519 0.999721 
0.0177138 -0.0135447 0.999751 
0.0176528 -0.0107067 0.999787 
0.0177122 -0.00660245 0.999821 
0.0180075 -0.000776665 0.999838 
0.0185419 0.00735665 0.999801 
0.019544 0.0184429 0.999639 
0.021296 0.0333363 0.999217 
0.0244695 0.0533756 0.998275 
0.0297657 0.0806123 0.996301 
0.037113 0.114674 0.99271 
0.0466338 0.16055 0.985926 
0.0614139 0.210569 0.975648 
0.0731685 0.271354 0.959694 
0.0935722 0.342054 0.93501 
0.123087 0.431295 0.893775 
0.136341 0.515073 0.846233 
0.0881163 0.664026 0.742499 
0.0652652 0.862877 0.501183 
0.0421045 0.946735 0.31925 
-0.0131894 0.990198 -0.139049 
-0.0608428 0.861517 -0.504069 
-0.0522871 0.754806 -0.653861 
-0.133959 0.618844 -0.774007 
-0.116891 0.523755 -0.843811 
-0.114747 0.399073 -0.909711 
-0.0920695 0.3192 -0.943205 
-0.071042 0.261321 -0.962634 
-0.0554608 0.204083 -0.977381 
-0.0432063 0.153395 -0.98722 
-0.034458 0.110973 -0.993226 
-0.0279598 0.0764699 -0.99668 
-0.0234537 0.0482436 -0.99856 
-0.0205613 0.0292014 -0.999362 
-0.0191924 0.0148453 -0.999706 
-0.0183058 0.00432145 -0.999823 
-0.0179278 -0.00264316 -0.999836 
-0.0177978 -0.0080483 -0.999809 
-0.0176471 -0.0118744 -0.999774 
-0.0177361 -0.0143584 -0.99974 
-0.017779 -0.0161111 -0.999712 
-0.0177966 -0.0172218 -0.999693 
-0.0177155 -0.0181214 -0.999679 
-0.0176497 -0.0187596 -0.999668 
-0.0175338 -0.0193508 -0.999659 
-0.0175308 -0.019978 -0.999647 
-0.017475 -0.0208554 -0.99963 
-0.0173677 -0.0220505 -0.999606 
-0.0173054 -0.0236329 -0.999571 
-0.0170973 -0.026016 -0.999515 
-0.0167593 -0.0287418 -0.999446 
-0.0163297 -0.0318189 -0.99936 
-0.0153874 -0.0347764 -0.999277 
-0.01439 -0.0344679 -0.999302 
-0.0130915 -0.0310325 -0.999433 
-0.0108425 -0.0270943 -0.999574 
-0.0113774 -0.0269987 -0.999571 
-0.0103247 -0.0278139 -0.99956 
-0.0103418 -0.0277601 -0.999561 
-2.98936e-05 3.73725e-05 -1 
1.38713e-05 -0.000260223 1 
0.00858792 -0.0237487 0.999681 
0.00926449 -0.0260905 0.999617 
0.00955174 -0.0253752 0.999632 
0.0129479 -0.0283531 0.999514 
0.0129367 -0.0316891 0.999414 
0.0150026 -0.0341781 0.999303 
0.0152774 -0.034899 0.999274 
0.0171955 -0.0329351 0.99931 
0.0173834 -0.0295998 0.999411 
0.0182916 -0.0263091 0.999486 
0.0191777 -0.0239926 0.999528 
0.0193129 -0.0221179 0.999569 
0.0195882 -0.0208687 0.99959 
0.0199563 -0.0198826 0.999603 
0.0201659 -0.0192091 0.999612 
0.0201609 -0.0185725 0.999624 
0.0201719 -0.0178567 0.999637 
0.0201865 -0.0168922 0.999654 
0.0204903 -0.0156164 0.999668 
0.0206011 -0.0138558 0.999692 
0.0205503 -0.0113937 0.999724 
0.0203098 -0.00795942 0.999762 
0.0202794 -0.00321256 0.999789 
0.0205067 0.00342441 0.999784 
0.0212659 0.0124242 0.999697 
0.0228864 0.0248748 0.999429 
0.0258584 0.0412999 0.998812 
0.0310861 0.0632565 0.997513 
0.0392478 0.0908313 0.995093 
0.0495372 0.126605 0.990716 
0.0634302 0.168515 0.983656 
0.0854444 0.224085 0.970817 
0.103959 0.289276 0.951584 
0.13583 0.369039 0.919435 
0.181472 0.456158 0.871199 
0.183238 0.627571 0.756689 
0.095799 0.769275 0.631695 
0.0954244 0.882633 0.460274 
0.0236423 0.984484 0.173874 
-0.0488825 0.968035 -0.246006 
-0.0980056 0.788766 -0.60683 
-0.182539 0.56588 -0.804027 
-0.152067 0.469707 -0.869627 
-0.13041 0.338192 -0.931997 
-0.103925 0.267209 -0.958018 
-0.0812071 0.219957 -0.972124 
-0.0636575 0.174561 -0.982586 
-0.0500119 0.135288 -0.989543 
-0.0397877 0.100338 -0.994158 
-0.0321961 0.0716133 -0.996913 
-0.0270446 0.0479823 -0.998482 
-0.0234458 0.0290696 -0.999302 
-0.0216502 0.0164814 -0.99963 
-0.0206778 0.00627884 -0.999766 
-0.020546 -0.00104859 -0.999788 
-0.0203835 -0.00618146 -0.999773 
-0.0201328 -0.0103658 -0.999744 
-0.0202687 -0.0130622 -0.999709 
-0.0202194 -0.0150135 -0.999683 
-0.0209773 -0.0163947 -0.999646 
-0.0205455 -0.0175166 -0.999635 
-0.0206311 -0.0182994 -0.99962 
-0.0201273 -0.0189566 -0.999618 
-0.0201196 -0.0195943 -0.999606 
-0.0196849 -0.0203885 -0.999598 
-0.0196627 -0.0215355 -0.999575 
-0.0193878 -0.0230725 -0.999546 
-0.0186019 -0.0251269 -0.999511 
-0.018765 -0.0280488 -0.99943 
-0.01816 -0.0313911 -0.999342 
-0.0165985 -0.0343826 -0.999271 
-0.0154823 -0.035054 -0.999265 
-0.0130403 -0.0317463 -0.999411 
-0.0111358 -0.0267568 -0.99958 
-0.00939553 -0.025699 -0.999626 
-0.00976311 -0.0277255 -0.999568 
-0.00911386 -0.0255412 -0.999632 
6.92187e-05 -6.70373e-05 -1 
-1.07041e-05 -0.000110701 1 
0.010225 -0.0245334 0.999647 
0.0096398 -0.0283938 0.99955 
0.0109794 -0.0255031 0.999614 
0.0121517 -0.0251883 0.999609 
0.0168901 -0.0322836 0.999336 
0.0193546 -0.0361151 0.99916 
0.0200978 -0.035041 0.999184 
0.0216682 -0.031387 0.999272 
0.0221377 -0.0280981 0.99936 
0.0237352 -0.0253666 0.999396 
0.0241343 -0.0230582 0.999443 
0.0247133 -0.0215167 0.999463 
0.0248096 -0.0203556 0.999485 
0.0257693 -0.0194974 0.999478 
0.0255868 -0.018792 0.999496 
0.0256911 -0.0180351 0.999507 
0.0257981 -0.0170852 0.999521 
0.0262358 -0.0158483 0.99953 
0.0262299 -0.0142584 0.999554 
0.0260509 -0.0121958 0.999586 
0.0257558 -0.00944985 0.999624 
0.025456 -0.00583323 0.999659 
0.0252115 -0.000921676 0.999682 
0.0253785 0.005676 0.999662 
0.0260157 0.0147211 0.999553 
0.0278164 0.026813 0.999253 
0.0312173 0.0430092 0.998587 
0.0372921 0.0636439 0.997276 
0.046543 0.0897388 0.994877 
0.0578101 0.119677 0.991128 
0.0732022 0.158761 0.9846 
0.0919456 0.191666 0.977144 
0.114882 0.233238 0.96561 
0.129384 0.289183 0.94849 
0.171064 0.376469 0.910499 
0.199769 0.528735 0.824943 
0.136019 0.677187 0.72313 
0.0723767 0.943824 0.322426 
-0.0141052 0.99653 -0.0820268 
-0.0954296 0.920535 -0.378825 
-0.14732 0.737343 -0.659259 
-0.169129 0.398242 -0.901553 
-0.175566 0.34331 -0.922667 
-0.132625 0.285956 -0.94902 
-0.125611 0.241593 -0.962213 
-0.0979134 0.210437 -0.972692 
-0.0754794 0.167274 -0.983017 
-0.0578386 0.126621 -0.990263 
-0.0456488 0.0938258 -0.994542 
-0.0364699 0.0647797 -0.997233 
-0.0301608 0.040965 -0.998705 
-0.0276916 0.0252418 -0.999298 
-0.0257019 0.0133488 -0.999581 
-0.0252773 0.00451901 -0.99967 
-0.0255924 -0.00171102 -0.999671 
-0.025148 -0.00679035 -0.999661 
-0.0255651 -0.0101944 -0.999621 
-0.0258178 -0.0127599 -0.999585 
-0.0258376 -0.014672 -0.999558 
-0.0265116 -0.0162056 -0.999517 
-0.0262696 -0.0173763 -0.999504 
-0.0261314 -0.0182926 -0.999491 
-0.0257064 -0.0190054 -0.999489 
-0.0256061 -0.019742 -0.999477 
-0.0248771 -0.0206508 -0.999477 
-0.0247762 -0.0219318 -0.999452 
-0.0241581 -0.0236661 -0.999428 
-0.0231154 -0.0258965 -0.999397 
-0.0230601 -0.0291432 -0.999309 
-0.0219431 -0.0328625 -0.999219 
-0.0198827 -0.0357079 -0.999164 
-0.0192148 -0.0359512 -0.999169 
-0.0160635 -0.031899 -0.999362 
-0.0139188 -0.02641 -0.999554 
-0.0111928 -0.0248612 -0.999628 
-0.01128 -0.0262279 -0.999592 
-0.0101308 -0.0252152 -0.999631 
-4.24783e-05 -3.25964e-05 -1 
1.9376e-05 -3.54813e-05 1 
0.0104441 -0.0244819 0.999646 
0.0115862 -0.0266226 0.999578 
0.0135273 -0.0249552 0.999597 
0.0156549 -0.0271278 0.999509 
0.0184834 -0.0327656 0.999292 
0.0206122 -0.0366135 0.999117 
0.0221003 -0.0366376 0.999084 
0.0232804 -0.0340247 0.99915 
0.0242462 -0.0302303 0.999249 
0.0250756 -0.0272726 0.999313 
0.0258888 -0.0244081 0.999367 
0.0265226 -0.0224943 0.999395 
0.0271321 -0.0210776 0.99941 
0.0276024 -0.0200587 0.999418 
0.0279157 -0.0191517 0.999427 
0.0282435 -0.0183234 0.999433 
0.0284223 -0.0172904 0.999446 
0.0284602 -0.0160062 0.999467 
0.0283307 -0.0143892 0.999495 
0.0280538 -0.0124188 0.999529 
0.0277153 -0.00995349 0.999566 
0.0273877 -0.00675874 0.999602 
0.0272247 -0.00257114 0.999626 
0.0272926 0.00295883 0.999623 
0.0278106 0.0104939 0.999558 
0.0291492 0.0205381 0.999364 
0.0320563 0.0342989 0.998897 
0.0373223 0.0518488 0.997957 
0.0455784 0.0739659 0.996219 
0.0564564 0.0995868 0.993426 
0.0705663 0.130939 0.988876 
0.0892828 0.161125 0.982887 
0.109669 0.186665 0.976283 
0.136367 0.239423 0.961291 
0.162203 0.303719 0.938853 
0.203566 0.370973 0.906057 
0.227476 0.45999 0.858291 
0.138081 0.779815 0.610592 
-0.00540195 0.999758 -0.0213292 
-0.199822 0.680768 -0.704717 
-0.212116 0.479382 -0.851587 
-0.226443 0.41775 -0.879891 
-0.168591 0.299499 -0.939083 
-0.149021 0.250848 -0.956487 
-0.110342 0.196336 -0.974308 
-0.0883936 0.166841 -0.982014 
-0.069761 0.132948 -0.988665 
-0.056656 0.103602 -0.993004 
-0.0467031 0.0795795 -0.995734 
-0.0394544 0.0582766 -0.997521 
-0.0339495 0.042312 -0.998527 
-0.0302735 0.0258175 -0.999208 
-0.0282403 0.0144104 -0.999497 
-0.0273965 0.00603088 -0.999606 
-0.0270924 -0.000256356 -0.999633 
-0.0272954 -0.00517504 -0.999614 
-0.0275697 -0.00875932 -0.999582 
-0.0279167 -0.0114755 -0.999544 
-0.0281902 -0.0136197 -0.99951 
-0.028441 -0.0153352 -0.999478 
-0.0284007 -0.0168534 -0.999455 
-0.0283771 -0.0179753 -0.999436 
-0.0281095 -0.0188996 -0.999426 
-0.0278246 -0.019712 -0.999418 
-0.0274098 -0.0206764 -0.99941 
-0.0269657 -0.021911 -0.999396 
-0.0263016 -0.0236733 -0.999374 
-0.0255205 -0.0260167 -0.999336 
-0.0247329 -0.0289514 -0.999275 
-0.0235227 -0.0329161 -0.999181 
-0.0223699 -0.0363326 -0.999089 
-0.0207234 -0.0367612 -0.999109 
-0.018273 -0.0316723 -0.999331 
-0.0160852 -0.0265813 -0.999517 
-0.0137231 -0.0247389 -0.9996 
-0.0125881 -0.0258028 -0.999588 
-0.0110089 -0.0249051 -0.999629 
-2.44493e-05 -2.67631e-05 -1 
2.72649e-05 6.65974e-06 1 
0.0093105 -0.0246315 0.999653 
0.0125098 -0.0254268 0.999598 
0.0129656 -0.0247695 0.999609 
0.0153508 -0.0263937 0.999534 
0.0166437 -0.0331421 0.999312 
0.0192673 -0.0379521 0.999094 
0.0195667 -0.0370795 0.999121 
0.0216833 -0.0336139 0.9992 
0.0210378 -0.0303696 0.999317 
0.0228996 -0.0270664 0.999371 
0.023491 -0.0245157 0.999423 
0.0237067 -0.0226388 0.999463 
0.0245721 -0.0212693 0.999472 
0.0253256 -0.0201621 0.999476 
0.0252359 -0.019144 0.999498 
0.0260901 -0.0181684 0.999494 
0.0257543 -0.016901 0.999525 
0.0255198 -0.0153555 0.999556 
0.0253037 -0.0135103 0.999589 
0.0250456 -0.011354 0.999622 
0.0247597 -0.00877299 0.999655 
0.0245927 -0.00547522 0.999683 
0.0246957 -0.00129639 0.999694 
0.025209 0.00436128 0.999673 
0.0261632 0.011729 0.999589 
0.0281353 0.0216155 0.99937 
0.0315293 0.0342368 0.998916 
0.0373985 0.0506226 0.998017 
0.0454602 0.0698564 0.996521 
0.0558113 0.0916902 0.994222 
0.0688763 0.116324 0.99082 
0.0860352 0.142958 0.985982 
0.112104 0.176588 0.97788 
0.146342 0.227887 0.962627 
0.167662 0.244189 0.955124 
0.185317 0.285818 0.940195 
0.25012 0.564201 0.78684 
0.190095 0.768087 0.611478 
0.0317542 0.988313 0.149096 
-0.133668 0.863157 -0.486921 
-0.265304 0.578815 -0.771095 
-0.190001 0.300475 -0.934673 
-0.17033 0.258601 -0.950849 
-0.134292 0.215927 -0.96713 
-0.104452 0.170988 -0.979721 
-0.0850702 0.145393 -0.98571 
-0.0685735 0.11831 -0.990606 
-0.0552423 0.0917849 -0.994245 
-0.045503 0.0707771 -0.996454 
-0.0372169 0.0503817 -0.998036 
-0.0319575 0.0345002 -0.998894 
-0.027856 0.0205067 -0.999402 
-0.0259941 0.0112049 -0.999599 
-0.0249598 0.00410611 -0.99968 
-0.0244764 -0.00177017 -0.999699 
-0.0249489 -0.00581123 -0.999672 
-0.0247722 -0.00896097 -0.999653 
-0.0252692 -0.0115122 -0.999614 
-0.0253414 -0.0135481 -0.999587 
-0.0260518 -0.0154957 -0.99954 
-0.0253386 -0.0170009 -0.999534 
-0.0257647 -0.0182925 -0.999501 
-0.0251916 -0.0193175 -0.999496 
-0.0250261 -0.0202837 -0.999481 
-0.0245305 -0.0213716 -0.999471 
-0.0241909 -0.022817 -0.999447 
-0.023457 -0.0247633 -0.999418 
-0.0224815 -0.0272175 -0.999377 
-0.0219439 -0.0306851 -0.999288 
-0.0207029 -0.0346738 -0.999184 
-0.0208211 -0.0373942 -0.999084 
-0.0186936 -0.0382255 -0.999094 
-0.017987 -0.0341736 -0.999254 
-0.0152577 -0.0279196 -0.999494 
-0.0134007 -0.0248673 -0.999601 
-0.0114775 -0.0262252 -0.99959 
-0.00996405 -0.0239384 -0.999664 
5.3352e-05 -1.30607e-05 -1 
-1.09881e-06 2.70747e-05 1 
0.00720061 -0.0245144 0.999674 
0.0107947 -0.0257666 0.99961 
0.0105188 -0.024993 0.999632 
0.0133845 -0.0277265 0.999526 
0.0130419 -0.0348825 0.999306 
0.0156591 -0.0386416 0.99913 