# vtk DataFile Version 3.0 
Exported using Morpho https://github.com/Morpho-lang/morpho 
ASCII 
DATASET UNSTRUCTURED_GRID 

POINTS 1978 float 
-8.48528 -2.82843 3.83815e-09 
-8.26025 -2.82843 1.43352e-09 
-8.03642 -2.82843 -1.99235e-08 
-7.76276 -2.82843 -1.60061e-08 
-7.46418 -2.82843 -1.11953e-08 
-7.23329 -2.82843 -9.40884e-09 
-6.98608 -2.82843 -7.69175e-09 
-6.77784 -2.82843 -4.73909e-09 
-6.56246 -2.82843 -4.22933e-09 
-6.3432 -2.82843 -3.87394e-09 
-6.14997 -2.82843 -2.0509e-09 
-5.92856 -2.82843 -1.3685e-09 
-5.71539 -2.82843 -9.4959e-10 
-5.51051 -2.82843 -3.8508e-10 
-5.29329 -2.82843 -1.11125e-10 
-5.08166 -2.82843 1.3746e-10 
-4.86412 -2.82843 4.21322e-10 
-4.65778 -2.82843 8.19742e-10 
-4.438 -2.82843 1.13721e-09 
-4.22113 -2.82843 1.67718e-09 
-4.00288 -2.82843 2.3361e-09 
-3.79248 -2.82843 3.04819e-09 
-3.57636 -2.82843 3.97632e-09 
-3.36333 -2.82843 4.74075e-09 
-3.14077 -2.82843 6.03907e-09 
-2.92881 -2.82843 7.31129e-09 
-2.71683 -2.82843 9.40007e-09 
-2.51932 -2.82843 1.09318e-08 
-2.30653 -2.82843 1.07314e-08 
-2.0953 -2.82843 1.22303e-08 
-1.88825 -2.82843 1.23023e-08 
-1.68351 -2.82843 1.20668e-08 
-1.48136 -2.82843 8.79828e-09 
-1.26864 -2.82843 8.43272e-09 
-1.08967 -2.82843 6.56374e-09 
-0.834279 -2.82843 6.59092e-10 
-0.624217 -2.82843 5.05785e-09 
-0.444408 -2.82843 -6.11898e-09 
-0.209803 -2.82843 1.95277e-08 
0.0278368 -2.82843 -9.92536e-10 
0.22028 -2.82843 -8.89127e-09 
0.415972 -2.82843 -5.46968e-09 
0.629774 -2.82843 -5.42249e-09 
0.848508 -2.82843 -1.22211e-08 
1.05237 -2.82843 -1.74584e-09 
1.25472 -2.82843 -1.58882e-08 
1.44217 -2.82843 8.56419e-10 
1.68604 -2.82843 -1.25884e-08 
1.87833 -2.82843 -1.5137e-08 
2.09239 -2.82843 -8.40963e-09 
2.31228 -2.82843 -1.38021e-08 
2.50686 -2.82843 -1.01369e-08 
2.73559 -2.82843 -7.88848e-09 
2.95239 -2.82843 -7.57231e-09 
3.16977 -2.82843 -6.5785e-09 
3.3756 -2.82843 -4.26179e-09 
3.60025 -2.82843 -3.80303e-09 
3.80413 -2.82843 -3.22716e-09 
4.02034 -2.82843 -2.01362e-09 
4.24747 -2.82843 -1.85066e-09 
4.44679 -2.82843 -1.38548e-09 
4.65905 -2.82843 -8.56405e-10 
4.86794 -2.82843 -5.0492e-10 
5.07169 -2.82843 -1.6181e-10 
5.28827 -2.82843 1.78896e-10 
5.49917 -2.82843 7.09528e-10 
5.70399 -2.82843 1.0837e-09 
5.92343 -2.82843 1.4627e-09 
6.14415 -2.82843 2.70949e-09 
6.34486 -2.82843 3.14368e-09 
6.58475 -2.82843 3.44661e-09 
6.7943 -2.82843 6.82742e-09 
6.99417 -2.82843 5.92251e-09 
7.25062 -2.82843 7.54515e-09 
7.47855 -2.82843 1.35783e-08 
7.71627 -2.82843 1.19381e-08 
7.98037 -2.82843 2.6961e-08 
8.16649 -2.82843 -3.2218e-09 
8.48528 -2.82843 -5.96094e-09 
-8.48528 -2.59742 -4.81164e-09 
-8.24491 -2.57724 -3.95599e-10 
-8.00519 -2.58292 -2.18415e-09 
-7.76768 -2.6188 -1.3763e-09 
-7.51064 -2.64244 -1.04034e-09 
-7.21695 -2.59997 -8.24477e-10 
-6.98322 -2.58269 -7.70466e-10 
-6.76961 -2.58335 -4.83406e-10 
-6.53708 -2.59817 -5.04118e-10 
-6.33398 -2.56138 -4.2575e-10 
-6.11001 -2.59845 -2.46939e-10 
-5.8931 -2.58503 -2.18568e-10 
-5.68247 -2.57278 -1.49713e-10 
-5.46459 -2.58818 -7.30423e-11 
-5.24881 -2.58206 -3.68092e-11 
-5.03021 -2.5891 1.43355e-11 
-4.8201 -2.57661 6.16356e-11 
-4.60118 -2.59234 1.07212e-10 
-4.38188 -2.58861 1.64119e-10 
-4.16319 -2.58864 2.27722e-10 
-3.95195 -2.57729 3.20215e-10 
-3.73902 -2.58257 3.88733e-10 
-3.52642 -2.58116 5.4889e-10 
-3.30842 -2.59406 6.24532e-10 
-3.09541 -2.58838 8.84572e-10 
-2.88258 -2.59393 9.61003e-10 
-2.68056 -2.58374 1.31345e-09 
-2.47069 -2.6055 1.42082e-09 
-2.25265 -2.60338 1.56835e-09 
-2.04431 -2.59803 1.73469e-09 
-1.83315 -2.59633 2.03141e-09 
-1.62029 -2.59063 1.72562e-09 
-1.41296 -2.59781 2.12848e-09 
-1.2311 -2.52373 5.98652e-11 
-1.00591 -2.63182 4.50113e-10 
-0.782215 -2.58175 -4.05751e-10 
-0.586003 -2.52065 3.26983e-10 
-0.379099 -2.50633 -1.22117e-09 
-0.18518 -2.5631 -1.9522e-09 
0.00473434 -2.45718 2.73959e-09 
0.19363 -2.48783 -2.73887e-10 
0.399206 -2.52208 -3.74687e-10 
0.60212 -2.56311 -6.39495e-10 
0.829918 -2.58085 -5.0714e-11 
1.05351 -2.5744 -4.59475e-10 
1.2587 -2.57059 -1.15785e-09 
1.50298 -2.64088 -1.15917e-09 
1.71705 -2.589 -2.55909e-09 
1.93597 -2.61419 -1.67339e-09 
2.16283 -2.61263 -1.30043e-09 
2.37166 -2.58147 -2.03405e-09 
2.58155 -2.61141 -1.06834e-09 
2.80386 -2.59481 -1.06593e-09 
3.01925 -2.59748 -9.95946e-10 
3.22482 -2.57775 -7.20714e-10 
3.44294 -2.59701 -5.22402e-10 
3.65007 -2.57167 -5.07363e-10 
3.86428 -2.58658 -3.34915e-10 
4.09182 -2.5993 -2.33884e-10 
4.30035 -2.56737 -2.25456e-10 
4.51451 -2.58607 -1.19861e-10 
4.72846 -2.58279 -8.34181e-11 
4.94046 -2.57767 -3.61834e-11 
5.15538 -2.59272 1.84027e-11 
5.37409 -2.58571 5.93161e-11 
5.58526 -2.5768 1.2752e-10 
5.80209 -2.59232 1.74839e-10 
6.02687 -2.59134 2.32703e-10 
6.24017 -2.56431 4.02281e-10 
6.46048 -2.6073 3.57117e-10 
6.68637 -2.57267 5.86192e-10 
6.89283 -2.55832 8.13533e-10 
7.1176 -2.61977 6.88516e-10 
7.36508 -2.59033 1.10183e-09 
7.5992 -2.59814 1.13925e-09 
7.85149 -2.61934 1.22707e-09 
8.06544 -2.52645 1.81079e-09 
8.29405 -2.64369 3.88852e-10 
8.48528 -2.52155 3.58684e-09 
-8.48528 -2.36223 -7.74967e-09 
-8.22578 -2.34665 -5.74874e-10 
-7.98433 -2.33476 -8.33984e-10 
-7.74769 -2.39333 -9.77749e-10 
-7.55197 -2.24402 -4.88435e-10 
-7.45207 -2.45373 -1.31946e-09 
-7.17103 -2.38013 -9.15722e-10 
-6.94318 -2.33087 -6.23536e-10 
-6.70185 -2.36728 -4.74388e-10 
-6.48883 -2.33762 -3.4173e-10 
-6.23985 -2.34647 -2.83546e-10 
-6.02706 -2.35364 -2.17872e-10 
-5.8092 -2.33508 -1.34221e-10 
-5.581 -2.34044 -9.70395e-11 
-5.36518 -2.34473 -6.40906e-11 
-5.14087 -2.34892 -1.64291e-11 
-4.92793 -2.3365 2.68467e-11 
-4.704 -2.35011 7.1678e-11 
-4.4855 -2.35494 1.19588e-10 
-4.26333 -2.35192 1.71565e-10 
-4.04952 -2.33591 2.14022e-10 
-3.83325 -2.33526 2.80016e-10 
-3.62062 -2.33774 3.73022e-10 
-3.40218 -2.35226 4.96939e-10 
-3.18997 -2.35261 6.28927e-10 
-2.97445 -2.35879 7.72835e-10 
-2.76769 -2.34697 8.61733e-10 
-2.55562 -2.36585 1.12538e-09 
-2.34565 -2.388 1.50557e-09 
-2.12453 -2.36539 1.47459e-09 
-1.91278 -2.36963 1.61387e-09 
-1.69319 -2.36876 1.56424e-09 
-1.47026 -2.34753 5.74609e-10 
-1.25381 -2.28007 1.39395e-09 
-1.01984 -2.39738 1.06019e-09 
-0.817324 -2.32021 2.84936e-10 
-0.593501 -2.2471 -1.14612e-09 
-0.384474 -2.17892 1.56378e-09 
-0.179809 -2.23082 -1.90775e-09 
0.0319708 -2.0918 -3.45222e-09 
0.231194 -2.12954 5.55346e-09 
0.416862 -2.22316 -2.95877e-09 
0.624552 -2.2696 1.08339e-09 
0.826588 -2.32788 4.77261e-10 
1.04424 -2.32451 1.04434e-10 
1.25887 -2.31751 -3.93143e-10 
1.4649 -2.42677 -1.72485e-09 
1.64775 -2.34799 -1.23198e-09 
1.86541 -2.38804 -1.8604e-09 
2.08457 -2.40267 -1.81765e-09 
2.3061 -2.36233 -1.30401e-09 
2.53027 -2.36447 -1.14783e-09 
2.73033 -2.37996 -1.11087e-09 
2.96075 -2.3623 -8.04323e-10 
3.16228 -2.33698 -6.01429e-10 
3.3769 -2.35659 -5.21399e-10 
3.58145 -2.32858 -3.71678e-10 
3.79444 -2.33829 -3.04697e-10 
4.0107 -2.3654 -2.61037e-10 
4.21964 -2.32839 -1.59733e-10 
4.44055 -2.33813 -1.22316e-10 
4.65062 -2.34016 -7.71235e-11 
4.86252 -2.33769 -3.57757e-11 
5.08103 -2.34641 6.19732e-13 
5.29182 -2.35387 4.73152e-11 
5.50861 -2.33516 8.24988e-11 
5.72711 -2.34742 1.31639e-10 
5.94411 -2.35909 2.03381e-10 
6.16026 -2.32787 2.41821e-10 
6.39382 -2.35252 3.44889e-10 
6.6021 -2.35001 4.47186e-10 
6.82618 -2.30327 4.33614e-10 
7.05363 -2.36255 6.89994e-10 
7.27044 -2.3857 8.86792e-10 
7.52832 -2.36175 8.45533e-10 
7.76974 -2.39339 1.17837e-09 
7.98719 -2.29939 6.13861e-10 
8.25589 -2.36824 7.17643e-10 
8.48528 -2.2736 7.60988e-09 
-8.48528 -2.09797 -5.73875e-09 
-8.26478 -2.11754 8.33385e-11 
-8.03045 -2.08819 1.01784e-10 
-7.78351 -2.13844 -1.88422e-10 
-7.50835 -2.02522 2.29515e-11 
-7.30381 -2.21882 -2.00111e-10 
-7.0614 -2.11565 -1.65755e-10 
-6.80005 -2.13076 -2.01265e-10 
-6.59202 -2.10667 -2.12481e-10 
-6.3518 -2.13332 -1.59936e-10 
-6.1223 -2.10199 -1.05879e-10 
-5.91706 -2.10384 -8.7612e-11 
-5.6899 -2.1101 -6.16924e-11 
-5.46805 -2.10053 -4.07863e-11 
-5.25119 -2.11568 -2.05698e-11 
-5.03874 -2.10063 3.66431e-12 
-4.8158 -2.11288 2.47005e-11 
-4.59881 -2.11769 4.51116e-11 
-4.38205 -2.12133 6.38075e-11 
-4.17095 -2.1033 8.32299e-11 
-3.95566 -2.09663 1.04231e-10 
-3.74309 -2.09518 1.41597e-10 
-3.52748 -2.10993 1.83396e-10 
-3.31807 -2.11459 2.2884e-10 
-3.10518 -2.12322 2.83897e-10 
-2.89973 -2.11811 3.40568e-10 
-2.68433 -2.12322 4.15048e-10 
-2.47382 -2.14136 4.93656e-10 
-2.26476 -2.16054 6.22106e-10 
-2.03742 -2.1308 6.72825e-10 
-1.81922 -2.14619 6.20821e-10 
-1.59867 -2.13496 4.89125e-10 
-1.38352 -2.07524 -2.87159e-10 
-1.17432 -1.94698 -2.40153e-10 
-1.0616 -2.14584 -1.26982e-09 
-0.821417 -2.0729 -1.10611e-09 
-0.589575 -1.96712 -5.64641e-10 
-0.351273 -1.87104 -2.20333e-09 
-0.136976 -1.9101 2.59334e-09 
0.0391129 -1.58491 4.59374e-10 
0.148964 -1.77104 2.95386e-09 
0.348584 -1.83935 -5.12465e-09 
0.548844 -1.93263 4.16579e-09 
0.753431 -2.01578 6.08298e-10 
0.961204 -2.05796 -8.79837e-10 
1.1741 -2.06819 1.59928e-10 
1.4241 -2.16372 -5.2167e-10 
1.66398 -2.12773 -5.93216e-10 
1.89348 -2.16808 -4.56448e-10 
2.11912 -2.18156 -6.57178e-10 
2.35487 -2.14488 -5.92954e-10 
2.55917 -2.11594 -5.86255e-10 
2.78512 -2.1694 -3.98287e-10 
2.98688 -2.10981 -2.7933e-10 
3.20578 -2.10965 -2.50544e-10 
3.40761 -2.107 -2.18633e-10 
3.62314 -2.09155 -1.42137e-10 
3.84109 -2.10893 -1.25769e-10 
4.04368 -2.11437 -9.69252e-11 
4.27204 -2.09943 -6.72709e-11 
4.48361 -2.09611 -5.05572e-11 
4.69628 -2.09873 -3.01836e-11 
4.91565 -2.10797 -1.16837e-11 
5.1285 -2.10567 7.34699e-12 
5.34026 -2.11574 2.82196e-11 
5.56443 -2.10402 4.19514e-11 
5.78156 -2.11315 6.32376e-11 
5.99221 -2.11286 8.91834e-11 
6.23425 -2.11228 1.06892e-10 
6.44308 -2.09781 1.50068e-10 
6.65528 -2.10328 1.83624e-10 
6.91018 -2.09138 1.68213e-10 
7.12421 -2.12364 2.02893e-10 
7.35348 -2.17005 1.84077e-10 
7.54533 -2.07336 2.04735e-11 
7.72991 -2.15939 2.50698e-10 
7.95019 -2.06542 -2.50662e-11 
8.20236 -2.14221 6.58702e-11 
8.48528 -2.07234 4.75871e-09 
-8.48528 -1.79577 -3.95323e-09 
-8.29408 -1.86827 1.87047e-10 
-7.88285 -1.89225 3.25654e-11 
[...]
POINT_DATA 1978 
VECTORS vectors float
0.001625 -0.00874863 0.999961 
0.00133053 -0.0912544 0.995827 
-0.00639978 -0.108707 0.994054 
-0.0083069 -0.101254 0.994827 
-0.00622965 -0.0825222 0.99657 
-0.00404487 -0.0664735 0.99778 
-0.00288648 -0.0520444 0.998641 
-0.000923744 -0.0409924 0.999159 
-0.0017652 -0.0310262 0.999517 
-0.00116741 -0.0225427 0.999745 
-0.00093437 -0.0164104 0.999865 
-0.00144494 -0.0108405 0.999941 
-0.00137468 -0.00658002 0.999978 
-0.00124307 -0.0036491 0.999993 
-0.00163491 -0.00124532 0.999998 
-0.00154392 0.000686549 0.999999 
-0.00149683 0.00273559 0.999995 
-0.00157119 0.00493491 0.999987 
-0.00198145 0.00770504 0.999969 
-0.00196228 0.0111631 0.999936 
-0.00169225 0.0155009 0.999879 
-0.00146598 0.0208126 0.999783 
-0.0016893 0.0276887 0.999615 
-0.00186256 0.0363042 0.999339 
-0.00184652 0.0480929 0.998841 
-0.00117216 0.0629249 0.998018 
-0.000585328 0.0825559 0.996587 
-0.000641865 0.105987 0.994368 
-0.000886004 0.138402 0.990376 
-0.000781517 0.179914 0.983682 
-0.00040762 0.23104 0.972944 
-0.000314124 0.293275 0.956028 
-0.000263799 0.369115 0.929384 
-6.58043e-07 0.463421 0.886138 
-0.000384826 0.553218 0.833037 
-0.000679629 0.69353 0.720427 
-0.000262333 0.809212 0.587517 
-4.11131e-05 0.892614 0.450822 
-0.0001065 0.974864 0.222801 
2.57678e-05 0.999469 -0.0325893 
0.000116718 0.971202 -0.238258 
0.000102999 0.906853 -0.421447 
0.000187733 0.808354 -0.588697 
0.000451939 0.685685 -0.727898 
-0.000157644 0.570739 -0.821131 
0.00029912 0.467039 -0.884237 
0.000522881 0.383385 -0.923589 
0.00113618 0.293353 -0.956004 
0.000749988 0.235694 -0.971827 
0.000718366 0.182679 -0.983173 
0.0011097 0.13826 -0.990396 
0.00129345 0.108675 -0.994077 
0.00191964 0.0814489 -0.996676 
0.00185265 0.0614916 -0.998106 
0.00151977 0.0467319 -0.998907 
0.00138947 0.0358119 -0.999358 
0.0015351 0.0267617 -0.999641 
0.00163081 0.0206733 -0.999785 
0.00188517 0.015679 -0.999876 
0.00166303 0.0113033 -0.999935 
0.000994115 0.00836934 -0.999965 
0.00081394 0.00551843 -0.999985 
0.00102427 0.00292258 -0.999995 
0.00118353 0.000797018 -0.999999 
0.00125258 -0.00177172 -0.999998 
0.00121736 -0.00452614 -0.999989 
0.00150221 -0.00738739 -0.999972 
0.00173191 -0.0115342 -0.999932 
0.00177522 -0.0167607 -0.999858 
0.00225697 -0.0223216 -0.999749 
0.0020176 -0.0309691 -0.999519 
0.00155619 -0.0399286 -0.999202 
0.00268777 -0.0502762 -0.998732 
0.00405691 -0.0674288 -0.997716 
0.00431783 -0.0853075 -0.996346 
0.00409944 -0.104954 -0.994469 
0.00501364 -0.119259 -0.992851 
0.00389135 -0.111739 -0.993731 
-0.00191995 -0.00508154 -0.999985 
0.00434872 -0.00691781 0.999967 
0.0272359 -0.0697278 0.997194 
0.0453614 -0.0993808 0.994015 
0.04062 -0.0987392 0.994284 
0.0370557 -0.0842005 0.99576 
0.0448473 -0.0645843 0.996904 
0.0502878 -0.0519774 0.997381 
0.0502051 -0.0404954 0.997918 
0.0513041 -0.0306109 0.998214 
0.0588293 -0.0231186 0.998 
0.051725 -0.0159278 0.998534 
0.0550068 -0.0105845 0.99843 
0.0588607 -0.00692085 0.998242 
0.0560026 -0.00373253 0.998424 
0.0579537 -0.00120537 0.998319 
0.0566197 0.00102564 0.998395 
0.0596551 0.00322075 0.998214 
0.055772 0.00580458 0.998427 
0.0564168 0.00894184 0.998367 
0.0557523 0.0127723 0.998363 
0.0571194 0.0174349 0.998215 
0.0548887 0.0232837 0.998221 
0.0546316 0.0307047 0.998034 
0.0507807 0.0403726 0.997894 
0.0511547 0.0528576 0.997291 
0.0482053 0.0690988 0.996445 
0.0482854 0.0893336 0.994831 
0.0420048 0.115668 0.992399 
0.0384307 0.151321 0.987737 
0.0349287 0.195176 0.980146 
0.0306537 0.250079 0.96774 
0.0253628 0.319943 0.947097 
0.0193951 0.401634 0.915595 
0.0165269 0.488831 0.872222 
0.00757227 0.609962 0.792394 
0.00508821 0.730323 0.683083 
0.00349737 0.826001 0.563657 
0.000789549 0.920713 0.39024 
-0.000318743 0.978679 0.205398 
-0.00239902 0.999989 0.00404921 
-0.00344808 0.978763 -0.204967 
-0.0049875 0.915868 -0.401448 
-0.00674681 0.819583 -0.572921 
-0.00887998 0.696352 -0.717645 
-0.0130368 0.571235 -0.820683 
-0.0179703 0.46772 -0.883694 
-0.0186505 0.360194 -0.932691 
-0.0296578 0.285252 -0.957994 
-0.0309378 0.223065 -0.974313 
-0.0348669 0.170059 -0.984817 
-0.0447618 0.132415 -0.990183 
-0.0410846 0.101713 -0.993965 
-0.0467778 0.0770594 -0.995929 
-0.0495795 0.0587411 -0.997041 
-0.0532601 0.0454297 -0.997547 
-0.0509322 0.0342014 -0.998116 
-0.0570745 0.0263281 -0.998023 
-0.0547078 0.0199676 -0.998303 
-0.0528164 0.0146755 -0.998496 
-0.0603509 0.0108593 -0.998118 
-0.0567045 0.00753791 -0.998363 
-0.0577095 0.00461291 -0.998323 
-0.0595814 0.0020273 -0.998221 
-0.0557302 -0.000469735 -0.998446 
-0.0574146 -0.00324347 -0.998345 
-0.0588091 -0.00622777 -0.99825 
-0.0544321 -0.0097713 -0.99847 
-0.0539166 -0.0144159 -0.998441 
-0.0584928 -0.0198923 -0.99809 
-0.0480578 -0.0266909 -0.998488 
-0.0544278 -0.0355517 -0.997885 
-0.055632 -0.0454373 -0.997417 
-0.0424002 -0.058331 -0.997397 
-0.0477606 -0.0753161 -0.996015 
-0.0449684 -0.0919994 -0.994743 
-0.0409876 -0.107154 -0.993397 
-0.0512892 -0.102317 -0.993429 
-0.0182972 -0.0638702 -0.997791 
-0.00623858 -0.00329829 -0.999975 
0.000245306 -0.00210683 0.999998 
0.0432845 -0.0744546 0.996284 
0.0603959 -0.0965329 0.993496 
0.0611957 -0.0916782 0.993907 
0.0668544 -0.0838877 0.99423 
0.0626863 -0.0788068 0.994917 
0.0687326 -0.0619004 0.995713 
0.0717185 -0.0491436 0.996214 
0.0724963 -0.0379135 0.996648 
0.0749101 -0.0289879 0.996769 
0.0762786 -0.0204055 0.996878 
0.0769572 -0.0146047 0.996927 
0.0789537 -0.0101545 0.996827 
0.0797239 -0.00618496 0.996798 
0.0803621 -0.00309071 0.996761 
0.0807991 -0.000445254 0.99673 
0.0813347 0.0019233 0.996685 
0.0809812 0.00462715 0.996705 
0.0804221 0.00770888 0.996731 
0.0795426 0.0114575 0.996766 
0.0787158 0.015953 0.99677 
0.0772521 0.0214982 0.99678 
0.0757834 0.0283383 0.996722 
0.0737297 0.037304 0.99658 
0.0717583 0.0486644 0.996234 
0.0689804 0.0636857 0.995583 
0.0660893 0.0825156 0.994396 
0.0620548 0.106889 0.992333 
0.057034 0.137754 0.988823 
0.051133 0.180499 0.982245 
0.0442696 0.23178 0.971761 
0.0363306 0.299531 0.953395 
0.0274569 0.385189 0.922429 
0.0198774 0.478036 0.878115 
0.0134231 0.583375 0.812092 
0.0072108 0.69939 0.714704 
0.00174607 0.824011 0.566571 
-0.00123904 0.91636 0.400354 
-0.00289045 0.97973 0.2003 
-0.00458671 0.999368 -0.035252 
-0.0055797 0.970044 -0.242866 
-0.00667577 0.902129 -0.431415 
-0.0090496 0.808831 -0.587971 
-0.0124723 0.69165 -0.722125 
-0.017147 0.577392 -0.816287 
-0.0234934 0.473032 -0.880732 
-0.0297062 0.379642 -0.924656 
-0.0365618 0.313437 -0.948905 
-0.043674 0.245286 -0.968467 
-0.0497249 0.189451 -0.98063 
-0.0563958 0.146117 -0.987659 
-0.0612365 0.110948 -0.991938 
-0.0649716 0.086394 -0.99414 
-0.0686943 0.0653117 -0.995498 
-0.0716909 0.0508281 -0.996131 
-0.0732787 0.0386601 -0.996562 
-0.0759065 0.0300462 -0.996662 
-0.0772993 0.0228916 -0.996745 
-0.0777417 0.0171062 -0.996827 
-0.0799524 0.0128324 -0.996716 
-0.0804446 0.00889333 -0.996719 
-0.0808488 0.00570484 -0.99671 
-0.0813589 0.00284491 -0.996681 
-0.0811002 8.06923e-05 -0.996706 
-0.0805923 -0.00259509 -0.996744 
-0.0805277 -0.00568587 -0.996736 
-0.0793745 -0.00916554 -0.996803 
-0.0778305 -0.0132179 -0.996879 
-0.0775924 -0.0183505 -0.996816 
-0.0753764 -0.025024 -0.996841 
-0.0739262 -0.0324332 -0.996736 
-0.0728831 -0.0425988 -0.99643 
-0.07045 -0.0548577 -0.996006 
-0.06825 -0.0684702 -0.995316 
-0.0665213 -0.0846887 -0.994185 
-0.0640207 -0.096833 -0.99324 
-0.0629812 -0.0990546 -0.993087 
-0.0407784 -0.0657413 -0.997003 
-0.0010193 -0.0041417 -0.999991 
0.00302782 0.000715041 0.999995 
0.0342227 -0.0632514 0.997411 
0.052616 -0.0926286 0.99431 
0.0601608 -0.0910238 0.99403 
0.0619511 -0.0825866 0.994657 
0.0683883 -0.0710993 0.995122 
0.0685714 -0.056654 0.996036 
0.0714439 -0.0424083 0.996543 
0.0732397 -0.0331404 0.996764 
0.0752035 -0.0243913 0.99687 
0.0759469 -0.0179592 0.99695 
0.0775505 -0.0132083 0.996901 
0.0786249 -0.00882249 0.996865 
0.0793279 -0.00531669 0.996834 
0.0803799 -0.00230914 0.996762 
0.0804817 0.000304446 0.996756 
0.080858 0.00317206 0.996721 
0.0806591 0.00626942 0.996722 
0.0800224 0.00988546 0.996744 
0.0786611 0.0141288 0.996801 
0.0770796 0.0193136 0.996838 
0.0753807 0.0255354 0.996828 
0.0737828 0.0334584 0.996713 
0.0716692 0.0433621 0.996486 
0.0692903 0.0563197 0.996006 
0.0661999 0.0724899 0.99517 
0.0624288 0.0940639 0.993607 
0.0582211 0.121111 0.99093 
0.0532906 0.15536 0.98642 
0.0456715 0.203711 0.977965 
0.038342 0.263546 0.963885 
0.0298384 0.339056 0.940293 
0.0208543 0.427758 0.903653 
0.0115582 0.535013 0.844765 
0.0112896 0.579632 0.8148 
0.00424493 0.705419 0.708778 
-1.54475e-05 0.829638 0.558302 
-0.00195243 0.931948 0.362586 
-0.00343546 0.988888 0.14862 
-0.00271829 0.999588 -0.0285846 
-0.00372259 0.98574 -0.168236 
-0.00465554 0.929744 -0.368177 
-0.00678784 0.839447 -0.543399 
-0.0096312 0.738128 -0.674592 
-0.0136815 0.625963 -0.779733 
-0.0183196 0.518383 -0.854953 
-0.0268685 0.402644 -0.914962 
-0.0338538 0.311945 -0.949497 
-0.0417766 0.241706 -0.96945 
-0.0492876 0.185717 -0.981366 
-0.0551518 0.139574 -0.988675 
-0.0596903 0.109304 -0.992215 
-0.0651095 0.0833333 -0.994393 
-0.066886 0.0655486 -0.995605 
-0.0703232 0.050042 -0.996268 
-0.0726853 0.0389791 -0.996593 
-0.0743262 0.0299665 -0.996784 
-0.0765858 0.0226459 -0.996806 
-0.0780885 0.0173139 -0.996796 
-0.0790317 0.0123868 -0.996795 
-0.0798145 0.00849536 -0.996774 
-0.0804742 0.00510701 -0.996744 
-0.0807993 0.00196238 -0.996729 
-0.0806407 -0.000929889 -0.996743 
-0.0803689 -0.00382022 -0.996758 
-0.0793187 -0.00724789 -0.996823 
-0.0785715 -0.0109502 -0.996848 
-0.0773559 -0.0151658 -0.996888 
-0.075743 -0.021097 -0.996904 
-0.0740582 -0.0275103 -0.996874 
-0.0724584 -0.0354999 -0.99674 
-0.0700036 -0.0478565 -0.996398 
-0.0688232 -0.0600934 -0.995817 
-0.067768 -0.074512 -0.994915 
-0.0637695 -0.0853755 -0.994306 
-0.0639033 -0.0926528 -0.993646 
-0.0579552 -0.0961487 -0.993678 
-0.0463475 -0.0768403 -0.995966 
-0.00302864 -0.00528304 -0.999982 
0.00469371 3.69875e-05 0.999989 
0.0244132 -0.0524022 0.998328 
0.0524301 -0.0955751 0.994041 
0.0560456 -0.0888642 0.994466 
0.0547648 -0.0790271 0.995367 
0.063366 -0.0705088 0.995497 
0.0600602 -0.0623006 0.996249 
0.0655234 -0.0499913 0.996598 
0.0651288 -0.038945 0.997117 
0.068681 -0.0297179 0.997196 
0.069627 -0.0226792 0.997315 
0.0690138 -0.0171743 0.997468 
0.0714408 -0.0123649 0.997368 
0.0723146 -0.00834576 0.997347 
0.0730009 -0.00479183 0.99732 
0.0735307 -0.00184427 0.997291 
0.0742515 0.00128963 0.997239 
0.0743271 0.00450997 0.997224 
0.0740822 0.00812081 0.997219 
0.0727532 0.012175 0.997276 
0.0712289 0.0169926 0.997315 
0.0694456 0.0227618 0.997326 
0.068092 0.0298405 0.997233 
0.0662356 0.0384831 0.997062 
0.0643095 0.0495581 0.996699 
0.061554 0.0633565 0.996091 
0.0586637 0.0813317 0.994959 
0.0547295 0.104855 0.992981 
0.0505169 0.134225 0.989662 
0.0455901 0.172265 0.983995 
0.037281 0.229862 0.972509 
0.0302047 0.296189 0.954652 
0.0215657 0.374268 0.92707 
0.0135033 0.466313 0.884517 
0.00485384 0.653264 0.757115 
0.00107466 0.770288 0.637695 
-0.00105281 0.880903 0.473297 
-0.00120358 0.942261 0.334878 
-0.00192458 0.979311 0.202353 
-0.00205436 0.999809 0.0194178 
-0.00366474 0.977663 -0.210149 
-0.00388572 0.914355 -0.404894 
-0.00461045 0.833193 -0.552963 
-0.00713209 0.721423 -0.692458 
-0.0108111 0.600415 -0.799615 
-0.0161137 0.488004 -0.872693 
-0.0234951 0.408172 -0.912603 
-0.0264201 0.343948 -0.938617 
-0.0338917 0.272335 -0.961605 
-0.0415414 0.211269 -0.976545 
-0.0476996 0.161846 -0.985663 
-0.0511126 0.124735 -0.990873 
-0.0578797 0.0923798 -0.99404 
-0.0591332 0.0748599 -0.995439 
-0.0627249 0.057242 -0.996388 
-0.0647675 0.044285 -0.996917 
-0.0669636 0.034512 -0.997158 
-0.0692722 0.0261246 -0.997256 
-0.070447 0.0200172 -0.997315 
-0.0725648 0.0148673 -0.997253 
-0.0724866 0.0102354 -0.997317 
-0.0732852 0.00632452 -0.997291 
-0.0740678 0.00280602 -0.997249 
-0.073793 -0.000379699 -0.997274 
-0.0735875 -0.00353928 -0.997283 
-0.0732997 -0.00675479 -0.997287 
-0.0720492 -0.010669 -0.997344 
-0.0707261 -0.0148674 -0.997385 
-0.0705423 -0.0197786 -0.997313 
-0.0672083 -0.0264011 -0.99739 
-0.0657857 -0.0340309 -0.997253 
-0.0654128 -0.043683 -0.996902 
-0.062135 -0.057829 -0.996391 
-0.0620962 -0.0713745 -0.995515 
-0.0573223 -0.0847559 -0.994752 
-0.0556296 -0.0934892 -0.994065 
-0.0480607 -0.0940703 -0.994405 
-0.0359512 -0.0662901 -0.997153 
-0.00346242 -0.00491804 -0.999982 
0.00360594 -0.00346715 0.999987 
0.0228349 -0.0606957 0.997895 
0.0420278 -0.0911248 0.994952 
0.0441446 -0.0959177 0.99441 
0.0477508 -0.0898139 0.994813 
0.0495009 -0.0721336 0.996166 
0.0533616 -0.0554322 0.997036 
0.0557967 -0.0454298 0.997408 
0.0574113 -0.0337963 0.997779 
0.0590986 -0.0265571 0.997899 
0.0586258 -0.0207171 0.998065 
0.0595762 -0.0151411 0.998109 
0.0614601 -0.0109024 0.99805 
0.0625851 -0.0070299 0.998015 
0.0620191 -0.00363933 0.998068 
0.0637368 -0.000339265 0.997967 
0.0637806 0.00312536 0.997959 
0.0635734 0.00692181 0.997953 
0.0622284 0.0110352 0.998001 
0.0609975 0.0157592 0.998014 
0.0595367 0.0213101 0.997999 
0.0583072 0.0280801 0.997904 
0.0565477 0.0363072 0.99774 
0.0550512 0.0466268 0.997394 
0.0525632 0.0595892 0.996838 
0.0500882 0.0763768 0.99582 
0.0469367 0.0980302 0.994076 
0.0425871 0.127408 0.990936 
0.0385481 0.165057 0.985531 
0.0330822 0.214286 0.976211 
0.0237674 0.29144 0.956294 
0.0159627 0.380564 0.924617 
0.00811925 0.495088 0.868805 
0.00263887 0.615903 0.787818 
0.00610495 0.586309 0.810065 
0.00170561 0.697967 0.716128 
-0.000402314 0.817234 0.576306 
-0.000874974 0.882038 0.471177 
-0.00108381 0.983794 0.179302 
-2.02993e-05 0.999333 0.0365151 
-0.00306312 0.98972 -0.142988 
-0.00405209 0.949979 -0.312287 
-0.00315147 0.859639 -0.510893 
-0.00302243 0.751093 -0.660189 
-0.00504203 0.639695 -0.768612 
-0.00899659 0.516513 -0.856232 
-0.0157711 0.410013 -0.911943 
-0.0221852 0.318998 -0.947496 
-0.0299163 0.250095 -0.967759 
-0.0367762 0.196736 -0.979767 
-0.0405484 0.154029 -0.987234 
-0.0469903 0.10894 -0.992937 
-0.0475513 0.0889428 -0.994901 
-0.0512991 0.0684872 -0.996332 
-0.053457 0.0534133 -0.997141 
-0.0549996 0.0416337 -0.997618 
-0.0580183 0.0320783 -0.9978 
-0.0588816 0.0249855 -0.997952 
-0.0602804 0.0189284 -0.998002 
-0.0624863 0.0138571 -0.99795 
-0.0616715 0.00919416 -0.998054 
-0.0629193 0.00504599 -0.998006 
-0.0629271 0.00148349 -0.998017 
-0.0629641 -0.00192496 -0.998014 
-0.0623273 -0.00525977 -0.998042 
-0.0627543 -0.00877347 -0.997991 
-0.0606862 -0.0128239 -0.998075 
-0.0602118 -0.0174519 -0.998033 
-0.059534 -0.022518 -0.997972 
-0.055709 -0.0296067 -0.998008 
-0.055112 -0.0381358 -0.997752 
-0.0559619 -0.0489012 -0.997235 
-0.0508325 -0.061067 -0.996839 
-0.0528969 -0.0728182 -0.995942 
-0.0475664 -0.0862737 -0.995135 
-0.0471395 -0.0943433 -0.994423 
-0.0397781 -0.0961464 -0.994572 
-0.0269239 -0.0605427 -0.997802 
-0.00334448 -0.00481483 -0.999983 
0.00240791 -0.00586884 0.99998 
0.0208203 -0.0717826 0.997203 
0.034847 -0.0957152 0.994799 
0.0357578 -0.0948121 0.994853 
0.0417949 -0.0855001 0.995461 
0.037619 -0.075257 0.996454 
0.0431593 -0.0618218 0.997154 
0.0409533 -0.0491757 0.99795 
0.0469438 -0.0398029 0.998104 
0.0454322 -0.0310901 0.998484 
0.0463753 -0.0249538 0.998612 
0.0481328 -0.0190132 0.99866 
0.0478952 -0.0141927 0.998752 
0.0502308 -0.0100853 0.998687 
0.0506523 -0.00642151 0.998696 
0.0506399 -0.00275439 0.998713 
0.0520099 0.000694787 0.998646 
0.0518242 0.00450339 0.998646 
0.0505318 0.00850785 0.998686 
0.0496249 0.0130409 0.998683 
0.0487923 0.0181751 0.998644 
0.0477851 0.0241527 0.998566 
0.0464813 0.0312173 0.998431 
0.0450427 0.0399529 0.998186 
0.0435087 0.0506401 0.997769 
0.0415069 0.0645624 0.99705 
0.0390844 0.0823163 0.99584 
0.036252 0.105864 0.99372 
0.0321532 0.138034 0.989906 
0.0284416 0.179491 0.983349 
0.0237296 0.238523 0.970847 
0.0152453 0.323224 0.9462 
0.00939948 0.419429 0.90774 
0.00399747 0.525366 0.850867 
-0.000648978 0.744534 0.667585 
-0.00133533 0.879252 0.476356 
0.00145856 0.949658 0.313284 
0.00366797 0.982193 0.187836 
0.000144163 0.970204 0.242292 
0.00246284 0.994703 0.102758 
0.00162001 0.995528 -0.0944494 
0.000361317 0.98742 -0.158117 
-0.00359075 0.938157 -0.346193 
-0.000978773 0.81416 -0.58064 
-0.00171678 0.711177 -0.703011 
-0.00310883 0.567342 -0.823476 
-0.00835883 0.440481 -0.897723 
-0.0137873 0.344776 -0.938584 
-0.0220222 0.254584 -0.9668 
-0.0284398 0.192048 -0.980973 
-0.027504 0.158987 -0.986897 
-0.0373997 0.133328 -0.990366 
-0.0352907 0.106998 -0.993633 
-0.0391265 0.082241 -0.995844 
-0.0414822 0.0642632 -0.997071 
-0.0432075 0.0498823 -0.99782 
-0.0455394 0.0381025 -0.998236 
-0.0467644 0.0297804 -0.998462 
-0.0481357 0.0227096 -0.998583 
-0.0494721 0.0167511 -0.998635 
-0.0506863 0.0118718 -0.998644 
-0.0507094 0.00681412 -0.99869 
-0.0506674 0.00272578 -0.998712 
-0.0510911 -0.0010596 -0.998694 
-0.0503581 -0.00461586 -0.998721 
-0.0505561 -0.00830798 -0.998687 
-0.0495702 -0.0121269 -0.998697 
-0.0489076 -0.0167891 -0.998662 
-0.0472748 -0.021992 -0.99864 
-0.0457776 -0.0278467 -0.998564 
-0.0438098 -0.0367119 -0.998365 
-0.044611 -0.047451 -0.997877 
-0.0407859 -0.0616287 -0.997266 
-0.041057 -0.0770842 -0.996179 
-0.0359046 -0.0894708 -0.995342 
-0.0371091 -0.095688 -0.99472 
-0.0305417 -0.0984619 -0.994672 
-0.0246448 -0.0748048 -0.996894 
-0.00293843 -0.0049525 -0.999983 
0.00161883 -0.00680768 0.999975 
0.0153256 -0.0702107 0.997414 
0.0276212 -0.098602 0.994744 
0.0257325 -0.097677 0.994886 
0.0318322 -0.0900734 0.995426 
0.028762 -0.0779073 0.996546 
0.0325321 -0.0612248 0.997594 
0.030999 -0.0478392 0.998374 
0.0355942 -0.0380298 0.998643 
0.0332715 -0.0306586 0.998976 
0.0363957 -0.0241258 0.999046 
0.0375708 -0.0185604 0.999122 
0.0370701 -0.0138536 0.999217 
0.0392558 -0.00978908 0.999181 
0.0403354 -0.00577717 0.99917 
0.0397429 -0.00190314 0.999208 
0.0409886 0.00192611 0.999158 
0.0396638 0.0060106 0.999195 
0.0389635 0.0107026 0.999183 
0.0385039 0.0158884 0.999132 
0.037785 0.0216092 0.999052 
0.0367775 0.0282159 0.998925 
0.0356469 0.0363267 0.998704 
0.0341968 0.0464253 0.998336 
0.0328684 0.059161 0.997707 
0.0307929 0.0758541 0.996643 
0.0284502 0.0978923 0.99479 
0.0254196 0.127347 0.991533 
0.0216037 0.169969 0.985213 
0.0184029 0.225692 0.974025 
0.0129579 0.297566 0.954613 
0.00687666 0.402368 0.915452 
0.00266827 0.51978 0.854296 
4.98691e-05 0.645941 0.763387 
-6.32069e-05 0.639253 0.768996 
0.000494628 0.860857 0.508847 
0.00669815 0.940364 0.340105 
0.00654103 0.998243 0.0588864 
0.00496532 0.999786 0.0200957 
0.00543551 0.999983 0.00192631 
0.00514836 0.999829 -0.0177583 
0.00302616 0.996843 -0.0793448 
0.00117 0.967434 -0.25312 
-0.00158999 0.834385 -0.55118 
-0.000933165 0.614824 -0.788664 
-0.000755565 0.569381 -0.822073 
-0.00326875 0.484965 -0.874528 
-0.00611528 0.390503 -0.920582 
-0.0127444 0.293602 -0.955843 
-0.018514 0.221914 -0.974891 
-0.0189859 0.179121 -0.983644 
-0.0268206 0.127305 -0.991501 
-0.0286203 0.0943808 -0.995125 
-0.0308349 0.0736134 -0.99681 
-0.0329601 0.0576152 -0.997795 
-0.03494 0.0443305 -0.998406 
-0.0356137 0.0348556 -0.998758 
-0.0371248 0.0270497 -0.998945 
-0.038306 0.0205431 -0.999055 
-0.0386387 0.0150673 -0.99914 
-0.0407803 0.00994716 -0.999119 
-0.0393722 0.00519855 -0.999211 
-0.0399514 0.00091584 -0.999201 
-0.0395321 -0.00284945 -0.999214 
-0.0395552 -0.00666894 -0.999195 
-0.0386155 -0.0104102 -0.9992 
-0.0387481 -0.0146278 -0.999142 
-0.0373304 -0.0193534 -0.999116 
-0.0353059 -0.0246975 -0.999071 
-0.0354396 -0.0315758 -0.998873 
-0.0323857 -0.0400971 -0.998671 
-0.0344819 -0.0491563 -0.998196 
-0.0301103 -0.0609947 -0.997684 
-0.0316608 -0.0746409 -0.996708 
-0.0274989 -0.0886758 -0.995681 
-0.0266545 -0.0978238 -0.994847 
-0.021952 -0.0984721 -0.994898 
-0.0164419 -0.0660677 -0.99768 
-0.00189241 -0.0059011 -0.999981 
0.000807362 -0.0064461 0.999979 
0.0106885 -0.0704362 0.997459 
0.0196416 -0.0991409 0.99488 
0.0187834 -0.0991406 0.994896 
0.0231627 -0.0901551 0.995658 