# vtk DataFile Version 3.0 
Exported using Morpho https://github.com/Morpho-lang/morpho 
ASCII 
DATASET UNSTRUCTURED_GRID 

POINTS 1978 float 
-8.48528 -2.82843 -4.66658e-12 
-8.2602 -2.82843 9.80631e-12 
-8.03625 -2.82843 3.85302e-11 
-7.76282 -2.82843 3.6228e-11 
-7.46433 -2.82843 2.74176e-11 
-7.23315 -2.82843 2.03678e-11 
-6.9863 -2.82843 1.65028e-11 
-6.77771 -2.82843 1.11153e-11 
-6.56255 -2.82843 9.76206e-12 
-6.34316 -2.82843 7.52731e-12 
-6.14998 -2.82843 4.72638e-12 
-5.92853 -2.82843 3.43658e-12 
-5.71539 -2.82843 2.14926e-12 
-5.51051 -2.82843 1.0197e-12 
-5.29328 -2.82843 3.92283e-13 
-5.08166 -2.82843 -2.78968e-13 
-4.86412 -2.82843 -8.68645e-13 
-4.65778 -2.82843 -1.7934e-12 
-4.438 -2.82843 -2.60084e-12 
-4.22112 -2.82843 -3.78646e-12 
-4.00287 -2.82843 -5.07917e-12 
-3.79247 -2.82843 -6.70595e-12 
-3.57636 -2.82843 -8.73445e-12 
-3.36332 -2.82843 -1.1071e-11 
-3.14079 -2.82843 -1.39842e-11 
-2.92882 -2.82843 -1.697e-11 
-2.71685 -2.82843 -2.04853e-11 
-2.51934 -2.82843 -2.44159e-11 
-2.30653 -2.82843 -2.71438e-11 
-2.0953 -2.82843 -2.9723e-11 
-1.88831 -2.82843 -3.04089e-11 
-1.68351 -2.82843 -2.92724e-11 
-1.48138 -2.82843 -2.48658e-11 
-1.26851 -2.82843 -2.12438e-11 
-1.0899 -2.82843 -1.25453e-11 
-0.834368 -2.82843 -7.2548e-12 
-0.624318 -2.82843 -5.3265e-12 
-0.444077 -2.82843 -4.99067e-12 
-0.209966 -2.82843 -6.13111e-12 
0.027881 -2.82843 1.03134e-12 
0.220245 -2.82843 1.11897e-11 
0.416061 -2.82843 6.84076e-12 
0.629743 -2.82843 8.61087e-12 
0.848557 -2.82843 1.76563e-11 
1.05242 -2.82843 9.52444e-12 
1.25465 -2.82843 2.56235e-11 
1.44219 -2.82843 1.9461e-11 
1.68605 -2.82843 3.21659e-11 
1.87835 -2.82843 3.33849e-11 
2.09244 -2.82843 2.79272e-11 
2.31228 -2.82843 2.91838e-11 
2.50691 -2.82843 2.40159e-11 
2.73559 -2.82843 2.0469e-11 
2.95236 -2.82843 1.74036e-11 
3.1698 -2.82843 1.39749e-11 
3.37559 -2.82843 1.03535e-11 
3.60025 -2.82843 8.52877e-12 
3.80412 -2.82843 6.67799e-12 
4.02033 -2.82843 5.01472e-12 
4.24746 -2.82843 4.00681e-12 
4.44677 -2.82843 2.77142e-12 
4.65906 -2.82843 1.88488e-12 
4.86793 -2.82843 1.0437e-12 
5.0717 -2.82843 2.42049e-13 
5.28827 -2.82843 -4.9607e-13 
5.49917 -2.82843 -1.49292e-12 
5.704 -2.82843 -2.49474e-12 
5.92343 -2.82843 -3.67674e-12 
6.14416 -2.82843 -5.43087e-12 
6.34486 -2.82843 -7.32444e-12 
6.58475 -2.82843 -8.95473e-12 
6.79431 -2.82843 -1.24708e-11 
6.99416 -2.82843 -1.48478e-11 
7.25063 -2.82843 -1.94213e-11 
7.47855 -2.82843 -2.70267e-11 
7.71628 -2.82843 -3.11745e-11 
7.98036 -2.82843 -4.37434e-11 
8.16645 -2.82843 -1.43496e-11 
8.48528 -2.82843 2.02983e-12 
-8.48528 -2.59752 3.18438e-12 
-8.25 -2.57721 -7.67808e-15 
-8.008 -2.59729 -4.50065e-14 
-7.74674 -2.60618 -2.96544e-14 
-7.49332 -2.62851 -2.25104e-14 
-7.22197 -2.61899 -1.71099e-14 
-6.98366 -2.58477 -1.5718e-14 
-6.76578 -2.58332 -9.84096e-15 
-6.5336 -2.59847 -1.02243e-14 
-6.33222 -2.56188 -8.62774e-15 
-6.1091 -2.59921 -4.99715e-15 
-5.89227 -2.58578 -4.42901e-15 
-5.68236 -2.57342 -3.02802e-15 
-5.46474 -2.58903 -1.47921e-15 
-5.24907 -2.58303 -7.44424e-16 
-5.03047 -2.58959 2.91917e-16 
-4.82001 -2.57746 1.24428e-15 
-4.60115 -2.59292 2.17085e-15 
-4.38172 -2.58928 3.32815e-15 
-4.16329 -2.58945 4.62082e-15 
-3.95223 -2.57834 6.4845e-15 
-3.73951 -2.58408 7.86678e-15 
-3.52703 -2.5831 1.11017e-14 
-3.30931 -2.59551 1.26759e-14 
-3.09631 -2.58976 1.79172e-14 
-2.88354 -2.59467 1.94355e-14 
-2.68138 -2.58404 2.6495e-14 
-2.4708 -2.60504 2.86738e-14 
-2.25287 -2.60221 3.17329e-14 
-2.04475 -2.59659 3.51686e-14 
-1.83291 -2.59691 4.08813e-14 
-1.61877 -2.5897 3.46528e-14 
-1.41238 -2.59465 4.28818e-14 
-1.23062 -2.52223 1.46373e-15 
-1.00975 -2.63249 9.76399e-15 
-0.788829 -2.58234 -7.70133e-15 
-0.600195 -2.5166 7.81006e-15 
-0.381332 -2.53066 -2.37177e-14 
-0.154066 -2.54944 -4.09522e-14 
0.0294265 -2.43317 5.34902e-14 
0.202705 -2.49244 -4.79973e-15 
0.400533 -2.53205 -7.77813e-15 
0.60829 -2.56032 -1.35762e-14 
0.827904 -2.58117 -6.71445e-16 
1.05212 -2.57046 -1.00136e-14 
1.25885 -2.56959 -2.30974e-14 
1.50181 -2.63774 -2.38673e-14 
1.71544 -2.58829 -5.18097e-14 
1.9368 -2.61454 -3.38455e-14 
2.16399 -2.61355 -2.63419e-14 
2.37363 -2.58279 -4.11941e-14 
2.58324 -2.61112 -2.18058e-14 
2.80589 -2.59533 -2.16897e-14 
3.02179 -2.59875 -2.01896e-14 
3.22757 -2.57886 -1.4606e-14 
3.44466 -2.59805 -1.05863e-14 
3.65152 -2.5731 -1.02671e-14 
3.86512 -2.58789 -6.78481e-15 
4.09181 -2.59993 -4.75134e-15 
4.29984 -2.56854 -4.54829e-15 
4.51394 -2.5868 -2.41714e-15 
4.72757 -2.58328 -1.68382e-15 
4.93965 -2.57854 -7.29559e-16 
5.15474 -2.59313 3.72738e-16 
5.37352 -2.58656 1.20042e-15 
5.58493 -2.578 2.57572e-15 
5.80186 -2.593 3.54381e-15 
6.02661 -2.59227 4.72112e-15 
6.24004 -2.56571 8.13974e-15 
6.46017 -2.60774 7.29959e-15 
6.68587 -2.57402 1.18749e-14 
6.8928 -2.55968 1.64733e-14 
7.11787 -2.62022 1.42521e-14 
7.36556 -2.59108 2.26553e-14 
7.60034 -2.59874 2.36035e-14 
7.8537 -2.61957 2.58334e-14 
8.06776 -2.5273 3.69237e-14 
8.29519 -2.64506 7.64977e-15 
8.48528 -2.52158 -1.48738e-12 
-8.48528 -2.36222 6.91728e-12 
-8.22808 -2.34668 -1.16679e-14 
-7.98918 -2.34365 -1.66792e-14 
-7.75512 -2.39012 -1.97398e-14 
-7.5535 -2.24463 -9.85657e-15 
-7.45005 -2.4457 -2.64369e-14 
-7.1759 -2.38904 -1.8342e-14 
-6.9458 -2.33201 -1.24495e-14 
-6.70201 -2.36874 -9.52788e-15 
-6.49052 -2.33877 -6.84152e-15 
-6.24159 -2.34802 -5.69355e-15 
-6.0284 -2.35531 -4.38133e-15 
-5.81057 -2.3353 -2.69423e-15 
-5.58241 -2.34193 -1.94904e-15 
-5.36642 -2.34631 -1.28945e-15 
-5.14204 -2.35003 -3.26745e-16 
-4.92819 -2.33808 5.40849e-16 
-4.704 -2.35093 1.44518e-15 
-4.48538 -2.3562 2.40832e-15 
-4.26318 -2.35282 3.45574e-15 
-4.0497 -2.33748 4.31086e-15 
-3.83357 -2.33734 5.63866e-15 
-3.62129 -2.34064 7.50899e-15 
-3.40357 -2.35476 1.00146e-14 
-3.19166 -2.35505 1.2666e-14 
-2.97622 -2.36003 1.55709e-14 
-2.76927 -2.34729 1.73729e-14 
-2.55635 -2.36615 2.26669e-14 
-2.34564 -2.38636 3.03097e-14 
-2.12545 -2.36311 2.97248e-14 
-1.91348 -2.36845 3.2488e-14 
-1.69371 -2.36944 3.15281e-14 
-1.47006 -2.34285 1.15718e-14 
-1.25027 -2.2821 2.74129e-14 
-1.01334 -2.39719 2.05568e-14 
-0.81794 -2.30807 6.04534e-15 
-0.579614 -2.25358 -2.41526e-14 
-0.379667 -2.18147 3.03926e-14 
-0.187488 -2.2364 -3.66127e-14 
0.0330652 -2.09743 -6.97125e-14 
0.23655 -2.12145 1.11956e-13 
0.409763 -2.22299 -6.02282e-14 
0.612489 -2.26859 2.23737e-14 
0.820571 -2.31547 9.63303e-15 
1.03596 -2.32538 3.27246e-15 
1.25407 -2.31808 -8.15604e-15 
1.46335 -2.41995 -3.50006e-14 
1.64408 -2.34453 -2.43397e-14 
1.86225 -2.3907 -3.70838e-14 
2.08507 -2.40269 -3.6592e-14 
2.30599 -2.36433 -2.61036e-14 
2.53009 -2.36299 -2.31504e-14 
2.73026 -2.38089 -2.23308e-14 
2.96204 -2.36492 -1.61762e-14 
3.16437 -2.33938 -1.21149e-14 
3.3792 -2.35723 -1.0527e-14 
3.58295 -2.3311 -7.47281e-15 
3.79616 -2.34052 -6.14157e-15 
4.01165 -2.36659 -5.26038e-15 
4.22034 -2.32941 -3.22164e-15 
4.44051 -2.33989 -2.46159e-15 
4.65074 -2.34087 -1.55566e-15 
4.86266 -2.33891 -7.22159e-16 
5.0811 -2.34755 -1.42406e-14 
5.29227 -2.35488 9.49872e-16 
5.50922 -2.33691 1.65698e-15 
5.7277 -2.34891 2.64637e-15 
5.94491 -2.36039 4.09122e-15 
6.16117 -2.32973 4.85745e-15 
6.39408 -2.35374 6.94104e-15 
6.60237 -2.35113 8.99833e-15 
6.82605 -2.30549 8.7145e-15 
7.05388 -2.36377 1.38814e-14 
7.27106 -2.38664 1.78441e-14 
7.52938 -2.36221 1.70071e-14 
7.77157 -2.39424 2.37218e-14 
7.98869 -2.30034 1.23555e-14 
8.25605 -2.36923 1.43344e-14 
8.48528 -2.27359 -6.13201e-12 
-8.48528 -2.09799 4.99595e-12 
-8.2633 -2.115 2.13025e-15 
-8.02857 -2.0929 1.97279e-15 
-7.78444 -2.13922 -3.76129e-15 
-7.50859 -2.02576 4.88037e-16 
-7.30231 -2.21728 -4.05904e-15 
-7.06 -2.11562 -3.36634e-15 
-6.79948 -2.13508 -4.06214e-15 
-6.5911 -2.106 -4.28779e-15 
-6.35305 -2.1351 -3.20828e-15 
-6.12425 -2.10404 -2.12458e-15 
-5.91873 -2.1044 -1.75137e-15 
-5.69084 -2.11123 -1.23936e-15 
-5.46912 -2.10254 -8.20542e-16 
-5.25198 -2.11665 -4.11392e-16 
-5.03844 -2.10268 7.05398e-17 
-4.81511 -2.11402 4.94016e-16 
-4.59762 -2.11858 9.00449e-16 
-4.38103 -2.12244 1.27826e-15 
-4.16983 -2.10413 1.66247e-15 
-3.95495 -2.09871 2.08724e-15 
-3.74263 -2.09782 2.83177e-15 
-3.52807 -2.11257 3.67799e-15 
-3.31902 -2.11732 4.58872e-15 
-3.10638 -2.12528 5.70154e-15 
-2.90076 -2.11853 6.83691e-15 
-2.68456 -2.12346 8.32956e-15 
-2.47374 -2.14132 9.92672e-15 
-2.26512 -2.15762 1.24871e-14 
-2.03826 -2.12905 1.35847e-14 
-1.81993 -2.14424 1.25624e-14 
-1.60154 -2.13405 1.03822e-14 
-1.38281 -2.07724 -5.89816e-15 
-1.17604 -1.94691 -4.43268e-15 
-1.06349 -2.14392 -2.47038e-14 
-0.815151 -2.06996 -2.2431e-14 
-0.592931 -1.97082 -1.10158e-14 
-0.351038 -1.88569 -4.40056e-14 
-0.126655 -1.90387 5.23531e-14 
0.0417922 -1.57065 1.11929e-14 
0.139198 -1.76634 5.7306e-14 
0.34329 -1.83954 -1.03824e-13 
0.55186 -1.94054 8.46018e-14 
0.757182 -2.00886 1.25527e-14 
0.963338 -2.05287 -1.78605e-14 
1.17369 -2.06652 2.93368e-15 
1.41854 -2.15371 -9.18101e-15 
1.66723 -2.13131 -1.23111e-14 
1.89726 -2.17167 -9.83749e-15 
2.1218 -2.17839 -1.3525e-14 
2.35302 -2.14508 -1.18043e-14 
2.55685 -2.11348 -1.17031e-14 
2.78437 -2.17201 -7.95228e-15 
2.98711 -2.11364 -5.63039e-15 
3.20654 -2.11205 -5.04993e-15 
3.40824 -2.10728 -4.38024e-15 
3.62414 -2.09522 -2.87267e-15 
3.84147 -2.11047 -2.5242e-15 
4.04402 -2.11595 -1.95318e-15 
4.27175 -2.09993 -1.34964e-15 
4.48302 -2.09799 -1.01639e-15 
4.69593 -2.09945 -6.07762e-16 
4.91519 -2.10892 -2.33446e-16 
5.12839 -2.10711 1.47673e-16 
5.34048 -2.11684 5.65927e-16 
5.56441 -2.10544 8.4589e-16 
5.7818 -2.11476 1.27206e-15 
5.99271 -2.11449 1.79016e-15 
6.23387 -2.11332 2.15591e-15 
6.44278 -2.09952 3.01943e-15 
6.65482 -2.10426 3.68958e-15 
6.90902 -2.0931 3.40674e-15 
7.12335 -2.12464 4.08521e-15 
7.35274 -2.17059 3.69809e-15 
7.54491 -2.07374 4.07544e-16 
7.73079 -2.16006 5.03719e-15 
7.95129 -2.06628 -5.15732e-16 
8.20312 -2.14316 1.39086e-15 
8.48528 -2.07235 -3.86581e-12 
-8.48528 -1.79577 3.35298e-12 
-8.29504 -1.86549 4.58098e-15 
-7.88505 -1.89158 7.12044e-16 
[...]
POINT_DATA 1978 
VECTORS vectors float
-0.000168003 -0.00349442 0.999994 
0.000919567 -0.0909582 0.995854 
-0.000197463 -0.108586 0.994087 
0.000266098 -0.101213 0.994865 
0.00017961 -0.0825034 0.996591 
0.00022804 -0.066472 0.997788 
0.000158209 -0.0520417 0.998645 
0.000474401 -0.0409928 0.999159 
0.000167563 -0.0310323 0.999518 
0.000340746 -0.0225479 0.999746 
0.000357384 -0.0164164 0.999865 
0.000273488 -0.0108459 0.999941 
0.000298819 -0.00658602 0.999978 
0.000356939 -0.00365401 0.999993 
0.000270704 -0.00124864 0.999999 
0.000323921 0.000686098 1 
0.000306815 0.00273623 0.999996 
0.000331015 0.00493595 0.999988 
0.000280528 0.00770772 0.99997 
0.000295823 0.0111673 0.999938 
0.000297848 0.0155067 0.99988 
0.000327319 0.0208189 0.999783 
0.000284488 0.0276964 0.999616 
0.000296803 0.0363152 0.99934 
0.000254532 0.0481084 0.998842 
0.000292873 0.0629452 0.998017 
0.000326635 0.082578 0.996585 
0.000287238 0.106011 0.994365 
0.000246803 0.138433 0.990372 
0.000225916 0.179947 0.983676 
0.000249322 0.231072 0.972937 
0.000202094 0.293315 0.956016 
0.000143194 0.369151 0.92937 
0.000180339 0.463458 0.886119 
8.8778e-05 0.553297 0.832984 
9.63338e-06 0.693594 0.720366 
2.47683e-05 0.809214 0.587513 
2.12883e-05 0.892647 0.450756 
-1.7001e-05 0.974838 0.222915 
1.34297e-05 0.999472 -0.0325042 
1.33877e-05 0.971216 -0.238201 
-1.04294e-05 0.906856 -0.421441 
-5.19213e-05 0.808334 -0.588724 
3.34818e-05 0.68569 -0.727894 
-0.000190352 0.570774 -0.821107 
-6.98594e-05 0.467073 -0.884219 
-0.00022123 0.383411 -0.923578 
-0.000118354 0.293382 -0.955995 
-0.000234993 0.23572 -0.971821 
-0.000276803 0.182706 -0.983168 
-0.000211687 0.138296 -0.990391 
-0.000306292 0.108701 -0.994074 
-0.0002361 0.0814718 -0.996676 
-0.000273386 0.0615123 -0.998106 
-0.000293295 0.0467458 -0.998907 
-0.000314832 0.0358242 -0.999358 
-0.000291426 0.026772 -0.999642 
-0.000302649 0.0206802 -0.999786 
-0.000299428 0.0156829 -0.999877 
-0.000278124 0.0113063 -0.999936 
-0.000339564 0.00836938 -0.999965 
-0.000347715 0.0055189 -0.999985 
-0.00030815 0.0029238 -0.999996 
-0.000316944 0.000795178 -1 
-0.000313083 -0.00177392 -0.999998 
-0.000330399 -0.00452807 -0.99999 
-0.000298338 -0.00739217 -0.999973 
-0.000301517 -0.0115389 -0.999933 
-0.000316396 -0.0167638 -0.999859 
-0.000248723 -0.0223272 -0.999751 
-0.000292342 -0.0309739 -0.99952 
-0.000323717 -0.0399334 -0.999202 
-0.000280846 -0.0502816 -0.998735 
-0.000235963 -0.0674281 -0.997724 
-0.000135379 -0.0852949 -0.996356 
-0.000431038 -0.104901 -0.994483 
-9.77452e-05 -0.119142 -0.992877 
-0.000267623 -0.111472 -0.993768 
-9.77373e-05 -0.00189361 -0.999998 
0.000879935 -0.000207483 1 
0.0271499 -0.0696366 0.997203 
0.0451031 -0.0992392 0.994041 
0.0404786 -0.0986473 0.994299 
0.0369457 -0.0841719 0.995766 
0.0447315 -0.0645862 0.996909 
0.0501303 -0.0519646 0.99739 
0.0500942 -0.0405032 0.997923 
0.0511445 -0.0306094 0.998222 
0.0586506 -0.0231194 0.998011 
0.0515878 -0.0159338 0.998541 
0.0548594 -0.0105932 0.998438 
0.0586859 -0.00692409 0.998252 
0.0558513 -0.00373528 0.998432 
0.0577863 -0.00120742 0.998328 
0.0564669 0.00102539 0.998404 
0.0594785 0.00322159 0.998224 
0.0556212 0.00580641 0.998435 
0.0562545 0.00894426 0.998376 
0.0555948 0.0127758 0.998372 
0.0569541 0.0174393 0.998224 
0.0547376 0.0232891 0.998229 
0.0544675 0.0307116 0.998043 
0.0506394 0.0403823 0.9979 
0.0509967 0.0528701 0.997298 
0.0480688 0.069114 0.99645 
0.048135 0.0893493 0.994837 
0.0418757 0.115689 0.992402 
0.0383143 0.151348 0.987738 
0.0348201 0.1952 0.980145 
0.0305466 0.250121 0.967732 
0.0252779 0.319984 0.947086 
0.0193217 0.401694 0.91557 
0.0164862 0.488802 0.872239 
0.00755844 0.609808 0.792513 
0.00508358 0.730202 0.683212 
0.00348334 0.825979 0.563691 
0.000796585 0.920612 0.390477 
-0.000316641 0.978775 0.204938 
-0.00240833 0.99999 0.00378338 
-0.00343477 0.978778 -0.204896 
-0.00498082 0.915874 -0.401434 
-0.00673449 0.81956 -0.572954 
-0.00886354 0.696353 -0.717645 
-0.0130022 0.571288 -0.820646 
-0.0179134 0.467749 -0.88368 
-0.0186006 0.360256 -0.932668 
-0.0295415 0.285298 -0.957983 
-0.0308407 0.22308 -0.974312 
-0.0347755 0.170087 -0.984815 
-0.0445939 0.132431 -0.990189 
-0.0409761 0.101729 -0.993968 
-0.0466428 0.0770733 -0.995934 
-0.0494182 0.0587518 -0.997049 
-0.053108 0.0454377 -0.997554 
-0.0507942 0.0342096 -0.998123 
-0.0569013 0.0263348 -0.998032 
-0.0545534 0.0199721 -0.998311 
-0.0526786 0.014679 -0.998504 
-0.060168 0.0108616 -0.998129 
-0.0565519 0.00753914 -0.998371 
-0.0575542 0.00461396 -0.998332 
-0.0594036 0.00202734 -0.998232 
-0.0555837 -0.000470948 -0.998454 
-0.057252 -0.00324504 -0.998354 
-0.0586357 -0.00623 -0.99826 
-0.0542836 -0.00977447 -0.998478 
-0.0537685 -0.0144193 -0.998449 
-0.0583084 -0.019896 -0.9981 
-0.0479386 -0.0266952 -0.998493 
-0.0542651 -0.0355559 -0.997893 
-0.0554601 -0.0454414 -0.997426 
-0.0422914 -0.0583333 -0.997401 
-0.0476074 -0.0753049 -0.996023 
-0.0448316 -0.0919682 -0.994752 
-0.0408519 -0.107069 -0.993412 
-0.0510235 -0.102077 -0.993467 
-0.0182355 -0.0637377 -0.9978 
-0.000280846 9.06541e-05 -1 
-0.000936637 -0.000439464 0.999999 
0.0430705 -0.0741887 0.996314 
0.060217 -0.0963782 0.993522 
0.0610701 -0.0916583 0.993916 
0.0667648 -0.0838508 0.994239 
0.0624961 -0.0787914 0.99493 
0.0685786 -0.0619002 0.995724 
0.0715938 -0.0491505 0.996222 
0.0723564 -0.0379073 0.996658 
0.0747916 -0.0289895 0.996778 
0.0761559 -0.0204096 0.996887 
0.0768301 -0.014609 0.996937 
0.0788288 -0.0101552 0.996836 
0.0795992 -0.006187 0.996808 
0.080233 -0.00309349 0.996771 
0.0806674 -0.000446399 0.996741 
0.0812116 0.00192357 0.996695 
0.0808502 0.00462844 0.996716 
0.0802869 0.00771041 0.996742 
0.0794124 0.0114599 0.996776 
0.0785966 0.0159557 0.996779 
0.0771353 0.0215021 0.996789 
0.0756657 0.028344 0.99673 
0.0736073 0.0373108 0.996589 
0.0716381 0.0486735 0.996242 
0.0688634 0.0636956 0.995591 
0.0659844 0.0825262 0.994402 
0.0619438 0.106903 0.992338 
0.0569157 0.137775 0.988827 
0.0510346 0.180517 0.982247 
0.0441804 0.231807 0.971758 
0.0362519 0.299557 0.953389 
0.0274034 0.385166 0.92244 
0.0198357 0.478109 0.878077 
0.0133801 0.583663 0.811885 
0.00720092 0.699468 0.714627 
0.00175603 0.824042 0.566526 
-0.00123304 0.91643 0.400193 
-0.00289229 0.979705 0.200424 
-0.00459864 0.999371 -0.0351544 
-0.00559038 0.970001 -0.243038 
-0.00667974 0.902236 -0.431191 
-0.00904933 0.808813 -0.587997 
-0.0124526 0.691775 -0.722006 
-0.0171204 0.577419 -0.816268 
-0.0234475 0.473049 -0.880724 
-0.0296285 0.379656 -0.924653 
-0.0364947 0.313458 -0.948901 
-0.0435751 0.245318 -0.968463 
-0.0496112 0.189475 -0.980631 
-0.0562933 0.14613 -0.987663 
-0.0611278 0.110963 -0.991943 
-0.0648435 0.0864114 -0.994147 
-0.0685734 0.0653207 -0.995505 
-0.071581 0.0508381 -0.996138 
-0.0731571 0.0386682 -0.996571 
-0.075795 0.0300519 -0.99667 
-0.0771789 0.0228952 -0.996754 
-0.077605 0.0171094 -0.996837 
-0.0798362 0.0128337 -0.996725 
-0.0803213 0.00889456 -0.996729 
-0.0807259 0.00570556 -0.99672 
-0.0812361 0.00284495 -0.996691 
-0.0809726 8.03847e-05 -0.996716 
-0.0804613 -0.00259646 -0.996754 
-0.0804072 -0.00568735 -0.996746 
-0.0792457 -0.00916708 -0.996813 
-0.0776973 -0.013221 -0.996889 
-0.0774753 -0.0183537 -0.996825 
-0.0752454 -0.025027 -0.996851 
-0.0738001 -0.0324383 -0.996745 
-0.0727832 -0.042602 -0.996437 
-0.0703162 -0.0548571 -0.996015 
-0.0681056 -0.0684612 -0.995326 
-0.0663896 -0.0846583 -0.994196 
-0.0638698 -0.0967944 -0.993253 
-0.0628216 -0.0988916 -0.993113 
-0.0406072 -0.0655833 -0.997021 
0.000998356 -0.000687947 -0.999999 
-0.00038717 -0.000544506 1 
0.0341365 -0.0630483 0.997426 
0.0525316 -0.0924518 0.99433 
0.060115 -0.0909847 0.994036 
0.0619218 -0.0825439 0.994662 
0.0683269 -0.0710669 0.995129 
0.0685298 -0.0566449 0.99604 
0.0714011 -0.0424109 0.996546 
0.0731874 -0.0331456 0.996767 
0.0751554 -0.0243967 0.996873 
0.075902 -0.0179625 0.996953 
0.0774968 -0.0132102 0.996905 
0.0785759 -0.00882452 0.996869 
0.0792794 -0.00531833 0.996838 
0.0803275 -0.00231009 0.996766 
0.0804321 0.000304815 0.99676 
0.0808065 0.00317306 0.996725 
0.0806074 0.00627089 0.996726 
0.0799705 0.00988686 0.996748 
0.0786111 0.0141303 0.996805 
0.0770317 0.0193149 0.996842 
0.0753347 0.0255387 0.996831 
0.0737364 0.0334623 0.996716 
0.0716242 0.0433676 0.996488 
0.0692453 0.0563259 0.996008 
0.0661558 0.0724968 0.995172 
0.0623867 0.094074 0.993609 
0.0581799 0.121123 0.990931 
0.0532474 0.155373 0.98642 
0.0456355 0.203738 0.977961 
0.0383097 0.263572 0.963879 
0.0298123 0.339072 0.940288 
0.0208315 0.427778 0.903644 
0.0115619 0.534921 0.844823 
0.011268 0.579576 0.81484 
0.00424292 0.705486 0.708711 
-2.80219e-06 0.829584 0.558382 
-0.00193806 0.931895 0.362722 
-0.00341159 0.988911 0.148472 
-0.00269046 0.999581 -0.0288209 
-0.00371036 0.985796 -0.167906 
-0.00466767 0.929776 -0.368095 
-0.00677961 0.839532 -0.543269 
-0.00961945 0.738072 -0.674654 
-0.0136665 0.625968 -0.779729 
-0.018301 0.518383 -0.854953 
-0.0268375 0.402727 -0.914926 
-0.0338294 0.311988 -0.949484 
-0.0417469 0.241708 -0.969451 
-0.0492467 0.185735 -0.981365 
-0.0551147 0.13961 -0.988672 
-0.0596434 0.10933 -0.992215 
-0.0650623 0.0833383 -0.994395 
-0.0668452 0.0655534 -0.995608 
-0.0702782 0.0500465 -0.996271 
-0.0726365 0.0389837 -0.996596 
-0.074284 0.0299683 -0.996787 
-0.0765379 0.022648 -0.996809 
-0.0780371 0.0173146 -0.9968 
-0.0789838 0.0123876 -0.996799 
-0.0797653 0.00849623 -0.996777 
-0.080422 0.00510732 -0.996748 
-0.080749 0.00196259 -0.996733 
-0.0805895 -0.000930117 -0.996747 
-0.080317 -0.0038211 -0.996762 
-0.0792712 -0.00724856 -0.996827 
-0.0785211 -0.0109508 -0.996852 
-0.0773058 -0.0151671 -0.996892 
-0.0756978 -0.0210983 -0.996908 
-0.07401 -0.0275124 -0.996878 
-0.0724117 -0.0355026 -0.996743 
-0.0699627 -0.0478537 -0.996401 
-0.0687774 -0.0600848 -0.995821 
-0.0677182 -0.0744863 -0.99492 
-0.0637337 -0.0853326 -0.994312 
-0.0638486 -0.0926122 -0.993653 
-0.0578912 -0.0960314 -0.993693 
-0.0462036 -0.0766025 -0.995991 
-0.000347142 -0.000801345 -1 
-0.000516935 -0.000461732 1 
0.024397 -0.0523034 0.998333 
0.0523841 -0.0954828 0.994052 
0.0560095 -0.0888307 0.994471 
0.0547358 -0.0789876 0.995372 
0.0633378 -0.0704816 0.9955 
0.0600221 -0.0622876 0.996252 
0.0654841 -0.0499831 0.996601 
0.0650963 -0.0389497 0.997119 
0.0686394 -0.0297161 0.997199 
0.0695885 -0.0226795 0.997318 
0.0689779 -0.0171742 0.99747 
0.0714027 -0.0123648 0.997371 
0.0722769 -0.00834584 0.99735 
0.072962 -0.00479231 0.997323 
0.0734921 -0.00184411 0.997294 
0.0742111 0.0012902 0.997242 
0.0742865 0.0045109 0.997227 
0.0740412 0.0081213 0.997222 
0.0727143 0.0121746 0.997279 
0.0711904 0.0169926 0.997318 
0.0694106 0.0227618 0.997328 
0.0680549 0.0298413 0.997235 
0.0662014 0.0384844 0.997064 
0.0642752 0.0495598 0.996701 
0.0615204 0.0633587 0.996093 
0.0586286 0.0813368 0.994961 
0.0546954 0.104862 0.992982 
0.0504833 0.134233 0.989663 
0.0455574 0.172285 0.983993 
0.0372527 0.22989 0.972503 
0.030181 0.296186 0.954653 
0.0215583 0.374249 0.927078 
0.013492 0.466322 0.884512 
0.00486076 0.653187 0.757181 
0.00108585 0.770258 0.637732 
-0.00102061 0.880958 0.473194 
-0.00127209 0.942426 0.334413 
-0.00191042 0.979318 0.202319 
-0.00218013 0.999818 0.0189537 
-0.00365338 0.97759 -0.210487 
-0.00384867 0.914454 -0.404672 
-0.00462767 0.833139 -0.553044 
-0.00714722 0.721281 -0.692606 
-0.010804 0.600465 -0.799578 
-0.0161156 0.487951 -0.872722 
-0.023484 0.408055 -0.912655 
-0.0263954 0.343893 -0.938638 
-0.0338769 0.272341 -0.961604 
-0.0415157 0.211257 -0.976548 
-0.0476666 0.161851 -0.985663 
-0.0510775 0.124754 -0.990872 
-0.0578472 0.0923858 -0.994042 
-0.0590988 0.0748679 -0.995441 
-0.06269 0.0572505 -0.99639 
-0.0647305 0.0442927 -0.996919 
-0.066928 0.034515 -0.997161 
-0.0692343 0.0261272 -0.997258 
-0.07041 0.020018 -0.997317 
-0.0725246 0.0148678 -0.997256 
-0.0724479 0.0102357 -0.99732 
-0.0732459 0.00632567 -0.997294 
-0.0740272 0.00280668 -0.997252 
-0.0737539 -0.000379198 -0.997276 
-0.0735481 -0.00353923 -0.997285 
-0.0732598 -0.00675492 -0.99729 
-0.0720109 -0.0106688 -0.997347 
-0.070689 -0.0148673 -0.997388 
-0.0705028 -0.0197799 -0.997315 
-0.0671729 -0.0264027 -0.997392 
-0.0657489 -0.0340329 -0.997256 
-0.0653746 -0.0436844 -0.996904 
-0.0620998 -0.0578195 -0.996394 
-0.0620618 -0.0713505 -0.995519 
-0.0572885 -0.0847125 -0.994757 
-0.0555916 -0.0934347 -0.994072 
-0.047985 -0.0938891 -0.994426 
-0.0358643 -0.0661136 -0.997167 
0.000151115 -0.000415906 -1 
-0.000231078 -0.000622005 1 
0.0227938 -0.0605446 0.997905 
0.041919 -0.0908298 0.994984 
0.044108 -0.0958458 0.994418 
0.0477262 -0.0897699 0.994818 
0.049481 -0.0721091 0.996169 
0.0533388 -0.0554259 0.997037 
0.0557689 -0.0454274 0.99741 
0.0573918 -0.0338007 0.997779 
0.059069 -0.0265577 0.997901 
0.0586056 -0.0207178 0.998066 
0.0595539 -0.015141 0.99811 
0.0614383 -0.0109023 0.998051 
0.0625593 -0.00702992 0.998016 
0.0619974 -0.00363906 0.99807 
0.0637118 -0.00033855 0.997968 
0.0637563 0.00312617 0.997961 
0.0635477 0.00692225 0.997955 
0.0622036 0.0110349 0.998002 
0.0609764 0.0157584 0.998015 
0.0595152 0.0213103 0.998 
0.0582856 0.0280806 0.997905 
0.0565273 0.0363091 0.997741 
0.0550308 0.0466288 0.997395 
0.0525429 0.0595918 0.996839 
0.0500686 0.0763801 0.995821 
0.0469151 0.0980391 0.994076 
0.0425667 0.127421 0.990935 
0.0385271 0.165074 0.985528 
0.0330608 0.214323 0.976203 
0.0237481 0.291504 0.956275 
0.0159532 0.380592 0.924605 
0.00810687 0.495153 0.868768 
0.00261835 0.615901 0.787819 
0.00610099 0.586311 0.810063 
0.00169989 0.698051 0.716046 
-0.000424962 0.817439 0.576016 
-0.000925477 0.882043 0.471167 
-0.00111277 0.983587 0.18043 
-4.42453e-05 0.999335 0.0364738 
-0.0030159 0.989881 -0.141869 
-0.00410097 0.949905 -0.312512 
-0.00314104 0.859543 -0.511053 
-0.00303879 0.75142 -0.659817 
-0.0050358 0.639725 -0.768587 
-0.00901068 0.516597 -0.856181 
-0.0157648 0.410072 -0.911917 
-0.0221677 0.319028 -0.947486 
-0.0299014 0.250121 -0.967753 
-0.0367531 0.19674 -0.979767 
-0.0405266 0.154029 -0.987235 
-0.0469759 0.10894 -0.992938 
-0.0475293 0.0889391 -0.994902 
-0.05128 0.0684869 -0.996333 
-0.0534354 0.0534174 -0.997142 
-0.0549815 0.0416347 -0.997619 
-0.0579969 0.0320789 -0.997801 
-0.0588606 0.0249843 -0.997954 
-0.0602588 0.0189268 -0.998003 
-0.0624624 0.0138553 -0.997951 
-0.0616484 0.00919344 -0.998056 
-0.0628966 0.00504628 -0.998007 
-0.0629032 0.00148373 -0.998019 
-0.0629418 -0.00192496 -0.998015 
-0.062304 -0.00525988 -0.998043 
-0.0627292 -0.00877329 -0.997992 
-0.0606648 -0.0128235 -0.998076 
-0.0601886 -0.0174516 -0.998034 
-0.059509 -0.0225189 -0.997974 
-0.0556896 -0.0296075 -0.998009 
-0.0550906 -0.0381369 -0.997753 
-0.0559362 -0.0488993 -0.997236 
-0.0508142 -0.0610563 -0.99684 
-0.0528713 -0.0727929 -0.995945 
-0.0475471 -0.0862272 -0.99514 
-0.0471105 -0.0942858 -0.99443 
-0.039729 -0.0959703 -0.994591 
-0.0268662 -0.0603993 -0.997813 
5.11773e-05 -0.000598367 -1 
-2.13487e-05 -0.000706784 1 
0.0207657 -0.071562 0.99722 
0.0347945 -0.0954962 0.994822 
0.0357423 -0.0947633 0.994858 
0.0417816 -0.0854521 0.995466 
0.0376123 -0.0752292 0.996457 
0.0431488 -0.0618114 0.997155 
0.0409485 -0.0491729 0.997951 
0.0469279 -0.0398007 0.998105 
0.0454295 -0.0310908 0.998484 
0.0463623 -0.0249538 0.998613 
0.048125 -0.0190126 0.99866 
0.0478877 -0.0141921 0.998752 
0.0502197 -0.0100852 0.998687 
0.0506416 -0.00642121 0.998696 
0.0506308 -0.00275387 0.998714 
0.0519984 0.000695827 0.998647 
0.0518128 0.00450379 0.998647 
0.0505219 0.00850754 0.998687 
0.0496153 0.0130402 0.998683 
0.0487841 0.0181738 0.998644 
0.0477756 0.024152 0.998566 
0.0464726 0.031217 0.998432 
0.0450344 0.0399533 0.998186 
0.0435003 0.0506413 0.997769 
0.0414975 0.0645655 0.99705 
0.0390767 0.082322 0.995839 
0.0362418 0.105875 0.993719 
0.0321443 0.138049 0.989904 
0.0284321 0.179514 0.983344 
0.0237202 0.238537 0.970844 
0.0152438 0.323199 0.946208 
0.00939861 0.419373 0.907765 
0.00398812 0.525271 0.850926 
-0.000659611 0.744354 0.667785 
-0.00126072 0.879158 0.476528 
0.00148237 0.949616 0.313414 
0.00374179 0.982478 0.186339 
0.000213866 0.970401 0.241499 
0.00253356 0.994556 0.104169 
0.00158763 0.995549 -0.0942293 
0.000414963 0.987316 -0.158766 
-0.00352236 0.938152 -0.346206 
-0.00100509 0.814395 -0.58031 
-0.00170696 0.71118 -0.703007 
-0.00311776 0.567198 -0.823576 
-0.00833864 0.440697 -0.897617 
-0.0137847 0.344827 -0.938565 
-0.0220195 0.254568 -0.966804 
-0.028426 0.192095 -0.980965 
-0.0274988 0.15901 -0.986894 
-0.0373758 0.13334 -0.990365 
-0.0352923 0.107014 -0.993631 
-0.0391169 0.0822371 -0.995845 
-0.0414712 0.0642631 -0.997071 
-0.0432012 0.0498805 -0.99782 
-0.0455303 0.038103 -0.998236 
-0.046756 0.0297804 -0.998462 
-0.0481262 0.0227091 -0.998583 
-0.049462 0.0167504 -0.998636 
-0.0506759 0.0118713 -0.998645 
-0.0506986 0.0068144 -0.998691 
-0.0506584 0.00272741 -0.998712 
-0.0510805 -0.00105823 -0.998694 
-0.0503487 -0.00461466 -0.998721 
-0.0505461 -0.00830708 -0.998687 
-0.0495609 -0.0121259 -0.998697 
-0.0488967 -0.0167876 -0.998663 
-0.047267 -0.0219912 -0.99864 
-0.0457686 -0.0278476 -0.998564 
-0.0438022 -0.0367115 -0.998365 
-0.0445999 -0.047449 -0.997877 
-0.0407787 -0.0616178 -0.997266 
-0.0410462 -0.0770516 -0.996182 
-0.0358975 -0.0894206 -0.995347 
-0.0370956 -0.0956351 -0.994725 
-0.0305178 -0.0983114 -0.994688 
-0.0245881 -0.0745594 -0.996913 
-8.44821e-05 -0.000554548 -1 
4.26506e-05 -0.000745147 1 
0.0152924 -0.070026 0.997428 
0.0276048 -0.0984465 0.994759 
0.0257281 -0.0976152 0.994892 
0.0318246 -0.0900203 0.995431 
0.0287616 -0.0778733 0.996548 
0.0325307 -0.0612149 0.997594 
0.0310006 -0.0478397 0.998374 
0.0355891 -0.0380301 0.998643 
0.0332761 -0.0306612 0.998976 
0.0363907 -0.0241208 0.999046 
0.0375674 -0.0185584 0.999122 
0.0370681 -0.013852 0.999217 
0.039252 -0.00978753 0.999181 
0.0403307 -0.00577593 0.99917 
0.0397395 -0.00190193 0.999208 
0.0409828 0.00192727 0.999158 
0.0396606 0.00601128 0.999195 
0.0389601 0.0107018 0.999183 
0.0384985 0.0158864 0.999132 
0.0377824 0.0216073 0.999052 
0.0367727 0.0282164 0.998925 
0.0356435 0.0363272 0.998704 
0.0341932 0.0464262 0.998336 
0.0328649 0.0591624 0.997707 
0.0307892 0.0758583 0.996643 
0.028447 0.0978972 0.99479 
0.0254151 0.127366 0.99153 
0.0215999 0.169995 0.985208 
0.0183997 0.22571 0.974021 
0.0129599 0.297556 0.954617 
0.0068805 0.402376 0.915449 
0.00267924 0.519577 0.854419 
7.34224e-05 0.645787 0.763518 
-5.31411e-05 0.639155 0.769078 
0.000573798 0.861132 0.508381 
0.00654243 0.940553 0.339583 
0.00649358 0.99826 0.0586103 
0.00499419 0.999782 0.0202737 
0.00543143 0.999983 0.0019373 
0.00511269 0.999825 -0.0179679 
0.00308081 0.996869 -0.0790169 
0.000991694 0.96654 -0.256512 
-0.00159339 0.834363 -0.551212 
-0.000948559 0.614639 -0.788808 
-0.000771137 0.569302 -0.822128 
-0.00326569 0.484908 -0.874559 
-0.00614005 0.390275 -0.920678 
-0.0127536 0.293563 -0.955855 
-0.0185043 0.221928 -0.974887 
-0.0189932 0.179064 -0.983654 
-0.0268066 0.127313 -0.9915 
-0.0286244 0.0943981 -0.995123 
-0.030826 0.0736256 -0.996809 
-0.0329566 0.0576187 -0.997795 
-0.0349351 0.0443358 -0.998406 
-0.0356101 0.0348579 -0.998758 
-0.0371205 0.0270503 -0.998945 
-0.038302 0.0205419 -0.999055 
-0.0386345 0.0150655 -0.99914 
-0.0407756 0.00994637 -0.999119 
-0.0393677 0.00519893 -0.999211 
-0.0399482 0.000917233 -0.999201 
-0.0395276 -0.00284881 -0.999214 
-0.0395509 -0.00666825 -0.999195 
-0.0386127 -0.0104094 -0.9992 
-0.0387441 -0.0146264 -0.999142 
-0.0373275 -0.0193523 -0.999116 
-0.0353044 -0.0246968 -0.999071 
-0.0354371 -0.0315763 -0.998873 
-0.0323864 -0.0400977 -0.998671 
-0.0344787 -0.0491544 -0.998196 
-0.0301108 -0.0609849 -0.997684 
-0.0316599 -0.0746154 -0.99671 
-0.0274982 -0.0886272 -0.995685 
-0.0266515 -0.0977587 -0.994853 
-0.0219341 -0.0982894 -0.994916 
-0.0164135 -0.0658988 -0.997691 
0.000136424 -0.000624642 -1 
-8.70502e-05 -0.000572112 1 
0.010671 -0.0702677 0.997471 
0.019628 -0.0989618 0.994898 
0.0187815 -0.0990811 0.994902 
0.0231624 -0.0901062 0.995663 