# vtk DataFile Version 3.0 
Exported using Morpho https://github.com/Morpho-lang/morpho 
ASCII 
DATASET UNSTRUCTURED_GRID 

POINTS 1978 float 
-8.48528 -2.82843 2.69385e-10 
-8.26021 -2.82843 2.13322e-10 
-8.03626 -2.82843 -1.2555e-09 
-7.76281 -2.82843 -9.71736e-10 
-7.46431 -2.82843 -6.55812e-10 
-7.23316 -2.82843 -5.74753e-10 
-6.98629 -2.82843 -4.69641e-10 
-6.77771 -2.82843 -2.80199e-10 
-6.56254 -2.82843 -2.51652e-10 
-6.34316 -2.82843 -2.44059e-10 
-6.14998 -2.82843 -1.22017e-10 
-5.92853 -2.82843 -7.85583e-11 
-5.71539 -2.82843 -5.68321e-11 
-5.51051 -2.82843 -2.16197e-11 
-5.29328 -2.82843 -5.28585e-12 
-5.08166 -2.82843 8.54094e-12 
-4.86412 -2.82843 2.60393e-11 
-4.65778 -2.82843 4.96874e-11 
-4.438 -2.82843 6.78267e-11 
-4.22112 -2.82843 1.00518e-10 
-4.00287 -2.82843 1.41887e-10 
-3.79247 -2.82843 1.84375e-10 
-3.57636 -2.82843 2.40635e-10 
-3.36332 -2.82843 2.80585e-10 
-3.14079 -2.82843 3.5841e-10 
-2.92882 -2.82843 4.33359e-10 
-2.71685 -2.82843 5.70146e-10 
-2.51934 -2.82843 6.57537e-10 
-2.30653 -2.82843 6.14723e-10 
-2.0953 -2.82843 7.12127e-10 
-1.8883 -2.82843 7.10684e-10 
-1.68351 -2.82843 7.0228e-10 
-1.48138 -2.82843 4.78403e-10 
-1.26851 -2.82843 4.85317e-10 
-1.08989 -2.82843 4.13393e-10 
-0.834362 -2.82843 -1.25433e-11 
-0.624312 -2.82843 3.6217e-10 
-0.444095 -2.82843 -5.48193e-10 
-0.209959 -2.82843 1.53777e-09 
0.027878 -2.82843 -7.41456e-11 
0.220246 -2.82843 -6.19246e-10 
0.416055 -2.82843 -3.80096e-10 
0.629746 -2.82843 -3.60947e-10 
0.848554 -2.82843 -8.29878e-10 
1.05241 -2.82843 -5.18409e-11 
1.25466 -2.82843 -1.04962e-09 
1.44219 -2.82843 2.59505e-10 
1.68605 -2.82843 -7.19326e-10 
1.87834 -2.82843 -9.152e-10 
2.09244 -2.82843 -4.16028e-10 
2.31228 -2.82843 -8.45278e-10 
2.50691 -2.82843 -5.96509e-10 
2.73559 -2.82843 -4.46769e-10 
2.95236 -2.82843 -4.50944e-10 
3.1698 -2.82843 -4.02797e-10 
3.37559 -2.82843 -2.4822e-10 
3.60025 -2.82843 -2.28395e-10 
3.80412 -2.82843 -1.99325e-10 
4.02033 -2.82843 -1.16118e-10 
4.24746 -2.82843 -1.12546e-10 
4.44677 -2.82843 -8.64708e-11 
4.65906 -2.82843 -5.17676e-11 
4.86793 -2.82843 -3.11843e-11 
5.0717 -2.82843 -1.08903e-11 
5.28827 -2.82843 9.81726e-12 
5.49917 -2.82843 4.35665e-11 
5.704 -2.82843 6.44642e-11 
5.92343 -2.82843 8.40116e-11 
6.14416 -2.82843 1.69063e-10 
6.34486 -2.82843 1.86238e-10 
6.58475 -2.82843 1.95171e-10 
6.79431 -2.82843 4.37686e-10 
6.99417 -2.82843 3.41286e-10 
7.25063 -2.82843 4.30265e-10 
7.47855 -2.82843 8.50216e-10 
7.71628 -2.82843 6.78315e-10 
7.98036 -2.82843 1.78604e-09 
8.16645 -2.82843 -4.07092e-10 
8.48528 -2.82843 -4.70265e-10 
-8.48528 -2.59751 -3.62877e-10 
-8.24432 -2.57745 -4.16554e-10 
-8.00456 -2.58499 -2.26611e-09 
-7.7652 -2.61753 -1.37589e-09 
-7.50844 -2.64309 -1.04379e-09 
-7.21613 -2.59969 -8.45642e-10 
-6.98204 -2.58301 -8.00849e-10 
-6.76841 -2.58297 -5.02064e-10 
-6.5356 -2.5976 -5.23126e-10 
-6.33331 -2.56154 -4.44728e-10 
-6.11013 -2.59848 -2.57363e-10 
-5.89277 -2.58545 -2.28213e-10 
-5.68232 -2.57312 -1.56369e-10 
-5.46473 -2.58842 -7.62004e-11 
-5.24902 -2.58241 -3.84774e-11 
-5.03033 -2.58928 1.49048e-11 
-4.82007 -2.57691 6.44151e-11 
-4.60117 -2.59251 1.11785e-10 
-4.38181 -2.58883 1.71064e-10 
-4.16322 -2.58892 2.3729e-10 
-3.95204 -2.57764 3.34106e-10 
-3.73917 -2.58312 4.05599e-10 
-3.52662 -2.58185 5.72899e-10 
-3.30875 -2.59457 6.5031e-10 
-3.09577 -2.58897 9.2297e-10 
-2.88302 -2.59436 1.00311e-09 
-2.6809 -2.58397 1.37379e-09 
-2.47066 -2.60518 1.48273e-09 
-2.25271 -2.60269 1.63436e-09 
-2.04458 -2.59749 1.80809e-09 
-1.83311 -2.59706 2.13001e-09 
-1.61981 -2.59044 1.80603e-09 
-1.41306 -2.59608 2.20976e-09 
-1.23019 -2.52393 7.41863e-11 
-1.00651 -2.63198 4.54353e-10 
-0.78627 -2.58489 -4.23509e-10 
-0.59774 -2.51873 2.8557e-10 
-0.385811 -2.52075 -1.34561e-09 
-0.163932 -2.54783 -1.95876e-09 
0.020062 -2.44408 2.93822e-09 
0.199281 -2.49064 -2.84348e-10 
0.394872 -2.52869 -4.5891e-10 
0.605381 -2.56076 -6.16253e-10 
0.828093 -2.58211 -7.27549e-11 
1.05053 -2.57131 -5.00373e-10 
1.25924 -2.56874 -1.18075e-09 
1.50339 -2.63974 -1.19339e-09 
1.71659 -2.58843 -2.67117e-09 
1.93644 -2.61435 -1.74088e-09 
2.16315 -2.61342 -1.35729e-09 
2.37208 -2.58222 -2.12777e-09 
2.58235 -2.61137 -1.10797e-09 
2.80476 -2.59511 -1.10964e-09 
3.02012 -2.59786 -1.03779e-09 
3.22574 -2.57818 -7.52123e-10 
3.44356 -2.59737 -5.44228e-10 
3.65057 -2.57226 -5.29936e-10 
3.86451 -2.587 -3.49132e-10 
4.09174 -2.59945 -2.43358e-10 
4.30015 -2.56784 -2.3581e-10 
4.51432 -2.58628 -1.25162e-10 
4.72812 -2.58294 -8.71528e-11 
4.94015 -2.57798 -3.7828e-11 
5.15516 -2.59279 1.92269e-11 
5.37391 -2.586 6.19178e-11 
5.58516 -2.57728 1.33288e-10 
5.80201 -2.5925 1.82208e-10 
6.02678 -2.59165 2.42359e-10 
6.24015 -2.56485 4.20234e-10 
6.46031 -2.60738 3.69846e-10 
6.68612 -2.57324 6.11475e-10 
6.89291 -2.55896 8.49842e-10 
7.11772 -2.61984 7.0689e-10 
7.36494 -2.59076 1.13959e-09 
7.59957 -2.59856 1.17371e-09 
7.85289 -2.61931 1.24892e-09 
8.06629 -2.5267 1.88403e-09 
8.29426 -2.64439 4.10469e-10 
8.48528 -2.52158 2.77856e-10 
-8.48528 -2.36222 -5.67759e-10 
-8.22687 -2.34714 -6.02379e-10 
-7.98653 -2.33751 -8.77295e-10 
-7.74928 -2.39241 -1.02498e-09 
-7.55248 -2.24451 -5.13025e-10 
-7.45307 -2.45402 -1.38594e-09 
-7.17168 -2.38098 -9.6194e-10 
-6.94476 -2.33133 -6.56252e-10 
-6.70189 -2.36839 -4.987e-10 
-6.48921 -2.33796 -3.5892e-10 
-6.24067 -2.34719 -2.979e-10 
-6.02756 -2.35447 -2.28683e-10 
-5.80941 -2.33502 -1.40755e-10 
-5.58143 -2.34098 -1.01849e-10 
-5.36571 -2.34538 -6.72635e-11 
-5.14132 -2.34942 -1.73042e-11 
-4.92797 -2.3371 2.81726e-11 
-4.70399 -2.35045 7.51416e-11 
-4.48545 -2.35544 1.2541e-10 
-4.26328 -2.35228 1.79899e-10 
-4.04958 -2.3365 2.24421e-10 
-3.83331 -2.336 2.93694e-10 
-3.62077 -2.33878 3.91318e-10 
-3.40263 -2.35319 5.21079e-10 
-3.19062 -2.35352 6.59459e-10 
-2.97522 -2.35926 8.1002e-10 
-2.76833 -2.34714 9.03187e-10 
-2.55572 -2.366 1.18093e-09 
-2.34547 -2.38732 1.57977e-09 
-2.12508 -2.36458 1.54444e-09 
-1.91341 -2.36932 1.69007e-09 
-1.69317 -2.36904 1.64224e-09 
-1.46998 -2.34578 6.04539e-10 
-1.25327 -2.28049 1.45976e-09 
-1.01636 -2.3974 1.13173e-09 
-0.817573 -2.31475 2.92289e-10 
-0.589139 -2.24682 -1.17463e-09 
-0.382607 -2.18042 1.67082e-09 
-0.183798 -2.23374 -2.05437e-09 
0.0332509 -2.09771 -3.61912e-09 
0.232004 -2.13164 5.81858e-09 
0.414969 -2.21871 -3.12327e-09 
0.618099 -2.27031 1.10367e-09 
0.826123 -2.32131 5.14483e-10 
1.04272 -2.32469 1.33094e-10 
1.25505 -2.32049 -4.6155e-10 
1.46603 -2.42409 -1.78257e-09 
1.64669 -2.34526 -1.30019e-09 
1.86382 -2.38986 -1.96785e-09 
2.08524 -2.40277 -1.90136e-09 
2.30616 -2.36268 -1.36711e-09 
2.53029 -2.364 -1.20278e-09 
2.73052 -2.38021 -1.16542e-09 
2.96132 -2.36331 -8.43933e-10 
3.16301 -2.33784 -6.30758e-10 
3.37765 -2.3568 -5.46409e-10 
3.58201 -2.32951 -3.89968e-10 
3.79506 -2.33914 -3.19406e-10 
4.01099 -2.36583 -2.737e-10 
4.21985 -2.32879 -1.67434e-10 
4.44049 -2.33882 -1.28336e-10 
4.65067 -2.34044 -8.08309e-11 
4.86261 -2.33821 -3.74743e-11 
5.08106 -2.34684 6.6632e-13 
5.29197 -2.35425 4.96693e-11 
5.50882 -2.33585 8.66022e-11 
5.72729 -2.34799 1.38123e-10 
5.94441 -2.35957 2.13393e-10 
6.16063 -2.32857 2.53862e-10 
6.39392 -2.35295 3.61784e-10 
6.60214 -2.35041 4.69061e-10 
6.8261 -2.30412 4.54947e-10 
7.05373 -2.36294 7.23783e-10 
7.27061 -2.38604 9.3034e-10 
7.52859 -2.36185 8.86785e-10 
7.77053 -2.39373 1.23609e-09 
7.988 -2.29971 6.4367e-10 
8.25516 -2.36869 7.57499e-10 
8.48528 -2.27359 5.64153e-10 
-8.48528 -2.09799 -4.19439e-10 
-8.26352 -2.11671 7.44741e-11 
-8.02975 -2.09003 1.08176e-10 
-7.78423 -2.13867 -1.9849e-10 
-7.50815 -2.02549 2.43619e-11 
-7.3029 -2.21864 -2.08938e-10 
-7.06088 -2.11595 -1.73051e-10 
-6.79994 -2.1328 -2.10561e-10 
-6.59158 -2.10663 -2.2265e-10 
-6.35231 -2.13446 -1.67873e-10 
-6.12325 -2.1027 -1.11446e-10 
-5.91761 -2.10398 -9.20865e-11 
-5.69012 -2.11044 -6.46932e-11 
-5.46854 -2.10135 -4.28123e-11 
-5.25157 -2.11609 -2.16668e-11 
-5.03857 -2.10141 3.9233e-12 
-4.81553 -2.11329 2.59633e-11 
-4.59837 -2.11811 4.74571e-11 
-4.38164 -2.12181 6.70573e-11 
-4.17048 -2.10361 8.7589e-11 
-3.95539 -2.09736 1.0952e-10 
-3.74289 -2.09615 1.48879e-10 
-3.52769 -2.1109 1.92575e-10 
-3.31844 -2.11562 2.40265e-10 
-3.10561 -2.12396 2.98092e-10 
-2.9001 -2.11818 3.57771e-10 
-2.68431 -2.12335 4.36182e-10 
-2.47358 -2.14157 5.18532e-10 
-2.26489 -2.15971 6.52511e-10 
-2.03798 -2.12986 7.02667e-10 
-1.81915 -2.14552 6.53597e-10 
-1.59924 -2.1341 5.08883e-10 
-1.38369 -2.07571 -3.04448e-10 
-1.17457 -1.94743 -2.60695e-10 
-1.06125 -2.14579 -1.33757e-09 
-0.818975 -2.07098 -1.15311e-09 
-0.591065 -1.96907 -6.03849e-10 
-0.353481 -1.8776 -2.31433e-09 
-0.130341 -1.90526 2.71748e-09 
0.0414558 -1.57709 4.17303e-10 
0.143647 -1.76664 3.16103e-09 
0.345112 -1.83658 -5.36071e-09 
0.548323 -1.93632 4.37469e-09 
0.758091 -2.01418 6.65712e-10 
0.963747 -2.05967 -8.91994e-10 
1.17345 -2.06581 1.58427e-10 
1.41892 -2.16173 -6.06205e-10 
1.6657 -2.12945 -6.02305e-10 
1.89504 -2.16991 -4.6811e-10 
2.11966 -2.18003 -6.90746e-10 
2.35336 -2.14484 -6.26969e-10 
2.55777 -2.11474 -6.18985e-10 
2.78502 -2.17059 -4.17697e-10 
2.9871 -2.11127 -2.92806e-10 
3.20603 -2.11037 -2.62931e-10 
3.40785 -2.10712 -2.29648e-10 
3.62352 -2.09288 -1.48752e-10 
3.84123 -2.10953 -1.32081e-10 
4.04378 -2.115 -1.01642e-10 
4.27192 -2.09962 -7.0655e-11 
4.48338 -2.09683 -5.30565e-11 
4.69617 -2.09905 -3.16429e-11 
4.9155 -2.10837 -1.22903e-11 
5.12847 -2.10623 7.7028e-12 
5.34034 -2.11616 2.9637e-11 
5.56441 -2.10457 4.3978e-11 
5.78164 -2.11382 6.63456e-11 
5.99238 -2.11345 9.36189e-11 
6.2342 -2.11275 1.12111e-10 
6.44293 -2.09847 1.57347e-10 
6.65502 -2.10359 1.92635e-10 
6.90991 -2.092 1.76404e-10 
7.12398 -2.12407 2.1297e-10 
7.35295 -2.17024 1.92739e-10 
7.54502 -2.07342 2.15795e-11 
7.73042 -2.15978 2.6342e-10 
7.95069 -2.06575 -2.62122e-11 
8.20256 -2.14254 6.90053e-11 
8.48528 -2.07234 3.52052e-10 
-8.48528 -1.79577 -2.88643e-10 
-8.29465 -1.86701 1.74144e-10 
-7.88385 -1.89242 3.39405e-11 
[...]
POINT_DATA 1978 
VECTORS vectors float
9.54281e-05 -0.00435708 0.999991 
0.00205918 -0.0909767 0.995851 
0.000758907 -0.108594 0.994086 
0.00190477 -0.101216 0.994863 
0.00166358 -0.0825042 0.996589 
0.00121948 -0.066472 0.997788 
0.000932881 -0.0520417 0.998644 
0.00127356 -0.0409927 0.999159 
0.000810522 -0.0310319 0.999518 
0.000987931 -0.0225475 0.999745 
0.00105184 -0.016416 0.999865 
0.000963251 -0.0108456 0.999941 
0.000962897 -0.00658564 0.999978 
0.001066 -0.00365373 0.999993 
0.000958248 -0.00124846 0.999999 
0.00103419 0.000686132 0.999999 
0.00101047 0.00273619 0.999996 
0.00104736 0.00493586 0.999987 
0.000992237 0.00770753 0.99997 
0.0010037 0.011167 0.999937 
0.000999887 0.0155063 0.999879 
0.00103641 0.0208185 0.999783 
0.000970714 0.0276959 0.999616 
0.000980394 0.0363145 0.99934 
0.00090312 0.0481075 0.998842 
0.000936434 0.062944 0.998017 
0.000951436 0.0825767 0.996584 
0.000864687 0.106009 0.994365 
0.000790242 0.138431 0.990372 
0.000722178 0.179945 0.983676 
0.000717194 0.23107 0.972937 
0.000595849 0.293312 0.956016 
0.00047385 0.369149 0.92937 
0.00046004 0.463455 0.88612 
0.000281704 0.553291 0.832988 
0.000111339 0.69359 0.72037 
7.36765e-05 0.809214 0.587514 
5.03186e-05 0.892645 0.45076 
-1.64787e-05 0.97484 0.222907 
2.51288e-05 0.999471 -0.0325101 
2.1649e-05 0.971215 -0.238205 
-4.00572e-05 0.906856 -0.421442 
-0.00011651 0.808335 -0.588723 
-4.15526e-05 0.68569 -0.727894 
-0.000415961 0.570771 -0.821109 
-0.000303791 0.467071 -0.88422 
-0.00060276 0.38341 -0.923578 
-0.000503108 0.29338 -0.955996 
-0.000688047 0.235718 -0.971821 
-0.000846134 0.182704 -0.983168 
-0.000738322 0.138294 -0.990391 
-0.000914822 0.1087 -0.994074 
-0.000884809 0.0814704 -0.996675 
-0.000923037 0.061511 -0.998106 
-0.000952881 0.0467449 -0.998906 
-0.00101642 0.0358234 -0.999358 
-0.000975694 0.0267714 -0.999641 
-0.000971576 0.0206798 -0.999786 
-0.0010212 0.0156827 -0.999877 
-0.000951347 0.011306 -0.999936 
-0.00102008 0.00836933 -0.999964 
-0.00106183 0.00551887 -0.999984 
-0.000970502 0.00292374 -0.999995 
-0.00099544 0.000795307 -0.999999 
-0.00101641 -0.00177378 -0.999998 
-0.00101174 -0.00452794 -0.999989 
-0.000986371 -0.00739185 -0.999972 
-0.00103231 -0.0115386 -0.999933 
-0.000998499 -0.0167636 -0.999859 
-0.000940822 -0.0223269 -0.99975 
-0.00104148 -0.0309736 -0.99952 
-0.00101849 -0.039933 -0.999202 
-0.00109962 -0.0502811 -0.998735 
-0.00109978 -0.0674281 -0.997724 
-0.000977015 -0.0852957 -0.996355 
-0.00154025 -0.104904 -0.994481 
-0.000770647 -0.119149 -0.992876 
-0.000793571 -0.111489 -0.993765 
-0.000305464 -0.00251175 -0.999997 
0.000886398 -0.000994744 0.999999 
0.0271556 -0.069642 0.997202 
0.0451182 -0.0992478 0.994039 
0.0404858 -0.0986529 0.994298 
0.036951 -0.0841738 0.995766 
0.0447378 -0.0645861 0.996909 
0.0501395 -0.0519654 0.997389 
0.0501006 -0.0405027 0.997923 
0.0511539 -0.0306095 0.998222 
0.0586613 -0.0231193 0.99801 
0.0515958 -0.0159334 0.998541 
0.054868 -0.0105927 0.998437 
0.0586963 -0.00692389 0.998252 
0.0558602 -0.00373511 0.998432 
0.0577962 -0.0012073 0.998328 
0.0564759 0.00102541 0.998403 
0.059489 0.00322154 0.998224 
0.05563 0.0058063 0.998435 
0.056264 0.00894411 0.998376 
0.0556041 0.0127755 0.998371 
0.0569639 0.017439 0.998224 
0.0547465 0.0232888 0.998229 
0.0544772 0.0307112 0.998043 
0.0506477 0.0403817 0.9979 
0.051006 0.0528694 0.997298 
0.0480769 0.0691131 0.99645 
0.0481439 0.0893483 0.994836 
0.0418833 0.115688 0.992402 
0.0383212 0.151346 0.987738 
0.0348265 0.195199 0.980145 
0.0305529 0.250119 0.967733 
0.0252829 0.319982 0.947086 
0.019326 0.401691 0.915572 
0.0164886 0.488804 0.872238 
0.00755914 0.609818 0.792505 
0.00508375 0.73021 0.683204 
0.00348397 0.825981 0.563686 
0.000796111 0.920618 0.390464 
-0.000316786 0.978769 0.204968 
-0.00240756 0.99999 0.00380271 
-0.00343568 0.978777 -0.204901 
-0.00498113 0.915875 -0.401432 
-0.00673514 0.819562 -0.572951 
-0.0088644 0.696352 -0.717645 
-0.0130041 0.571286 -0.820648 
-0.0179168 0.467747 -0.883681 
-0.0186033 0.360251 -0.93267 
-0.0295484 0.285296 -0.957984 
-0.0308463 0.223079 -0.974312 
-0.0347808 0.170085 -0.984815 
-0.0446039 0.13243 -0.990188 
-0.0409823 0.101728 -0.993968 
-0.0466507 0.0770725 -0.995933 
-0.0494277 0.0587512 -0.997048 
-0.053117 0.0454372 -0.997554 
-0.0508023 0.0342091 -0.998123 
-0.0569116 0.0263344 -0.998032 
-0.0545624 0.0199718 -0.998311 
-0.0526865 0.0146788 -0.998503 
-0.0601789 0.0108615 -0.998129 
-0.056561 0.00753907 -0.998371 
-0.0575634 0.00461389 -0.998331 
-0.0594142 0.00202734 -0.998231 
-0.0555923 -0.000470875 -0.998453 
-0.0572616 -0.00324495 -0.998354 
-0.058646 -0.00622986 -0.998259 
-0.0542923 -0.00977428 -0.998477 
-0.0537772 -0.0144191 -0.998449 
-0.0583194 -0.0198958 -0.9981 
-0.0479454 -0.0266949 -0.998493 
-0.0542747 -0.0355557 -0.997893 
-0.0554703 -0.0454412 -0.997426 
-0.0422973 -0.0583332 -0.997401 
-0.0476161 -0.0753056 -0.996023 
-0.0448393 -0.0919702 -0.994752 
-0.0408593 -0.107074 -0.993411 
-0.0510394 -0.102092 -0.993465 
-0.0182398 -0.0637454 -0.9978 
-0.000273736 -0.000424626 -1 
-0.000969187 -0.000966731 0.999999 
0.0430838 -0.0742049 0.996312 
0.060228 -0.0963877 0.99352 
0.0610778 -0.0916595 0.993916 
0.0667703 -0.0838531 0.994239 
0.0625077 -0.0787922 0.994929 
0.068588 -0.0619002 0.995723 
0.0716015 -0.04915 0.996222 
0.072365 -0.0379077 0.996658 
0.0747988 -0.0289894 0.996777 
0.0761634 -0.0204094 0.996886 
0.0768379 -0.0146087 0.996937 
0.0788364 -0.0101552 0.996836 
0.0796069 -0.00618687 0.996807 
0.0802409 -0.00309332 0.996771 
0.0806754 -0.000446326 0.99674 
0.0812192 0.00192355 0.996694 
0.0808582 0.00462836 0.996715 
0.0802952 0.00771031 0.996741 
0.0794203 0.0114597 0.996775 
0.0786039 0.0159555 0.996778 
0.0771425 0.0215018 0.996788 
0.0756729 0.0283437 0.99673 
0.0736148 0.0373104 0.996589 
0.0716455 0.0486729 0.996242 
0.0688705 0.0636949 0.99559 
0.0659908 0.0825256 0.994402 
0.0619506 0.106902 0.992338 
0.0569229 0.137773 0.988827 
0.0510406 0.180516 0.982247 
0.0441858 0.231805 0.971758 
0.0362567 0.299555 0.95339 
0.0274067 0.385167 0.92244 
0.0198384 0.478104 0.878079 
0.0133828 0.583645 0.811899 
0.00720139 0.699464 0.714631 
0.00175543 0.824038 0.566532 
-0.0012334 0.916425 0.400203 
-0.00289204 0.979707 0.200412 
-0.00459775 0.999371 -0.0351623 
-0.0055895 0.970004 -0.243024 
-0.00667956 0.902228 -0.431207 
-0.00904933 0.808813 -0.587996 
-0.0124538 0.691767 -0.722014 
-0.0171221 0.577416 -0.81627 
-0.0234503 0.473049 -0.880724 
-0.0296333 0.379655 -0.924653 
-0.0364988 0.313456 -0.948901 
-0.0435812 0.245316 -0.968463 
-0.0496182 0.189474 -0.980631 
-0.0562997 0.146129 -0.987662 
-0.0611345 0.110962 -0.991942 
-0.0648513 0.0864103 -0.994147 
-0.0685808 0.0653202 -0.995505 
-0.0715877 0.0508375 -0.996138 
-0.0731645 0.0386677 -0.99657 
-0.0758019 0.0300515 -0.99667 
-0.0771862 0.022895 -0.996754 
-0.0776134 0.0171092 -0.996837 
-0.0798433 0.0128336 -0.996725 
-0.0803289 0.00889449 -0.996729 
-0.0807335 0.00570552 -0.996719 
-0.0812436 0.00284495 -0.99669 
-0.0809804 8.04042e-05 -0.996716 
-0.0804693 -0.00259638 -0.996754 
-0.0804146 -0.00568725 -0.996745 
-0.0792535 -0.00916698 -0.996812 
-0.0777054 -0.0132208 -0.996889 
-0.0774824 -0.0183535 -0.996825 
-0.0752534 -0.0250268 -0.99685 
-0.0738078 -0.032438 -0.996745 
-0.0727894 -0.0426018 -0.996437 
-0.0703244 -0.0548571 -0.996015 
-0.0681144 -0.0684617 -0.995326 
-0.0663977 -0.0846601 -0.994195 
-0.063879 -0.0967968 -0.993252 
-0.0628313 -0.0989015 -0.993112 
-0.0406185 -0.0655926 -0.997019 
0.0010286 -0.00119431 -0.999999 
-0.000420446 -0.0012668 0.999999 
0.0341425 -0.0630602 0.997426 
0.0525367 -0.0924625 0.994329 
0.0601179 -0.0909871 0.994036 
0.0619237 -0.0825465 0.994662 
0.0683307 -0.0710689 0.995128 
0.0685323 -0.0566455 0.996039 
0.0714037 -0.0424108 0.996545 
0.0731907 -0.0331452 0.996767 
0.0751584 -0.0243964 0.996873 
0.0759048 -0.0179623 0.996953 
0.0775001 -0.0132101 0.996905 
0.0785789 -0.0088244 0.996869 
0.0792823 -0.00531823 0.996838 
0.0803307 -0.00231003 0.996766 
0.0804351 0.000304791 0.99676 
0.0808096 0.003173 0.996725 
0.0806106 0.0062708 0.996726 
0.0799737 0.00988677 0.996748 
0.0786142 0.0141302 0.996805 
0.0770347 0.0193148 0.996841 
0.0753375 0.0255384 0.996831 
0.0737393 0.033462 0.996716 
0.071627 0.0433672 0.996488 
0.069248 0.0563255 0.996008 
0.0661585 0.0724964 0.995172 
0.0623893 0.0940734 0.993608 
0.0581825 0.121123 0.990931 
0.0532501 0.155372 0.98642 
0.0456378 0.203736 0.977962 
0.0383117 0.263571 0.963879 
0.0298139 0.339072 0.940288 
0.0208329 0.427777 0.903644 
0.0115616 0.534927 0.844819 
0.0112692 0.57958 0.814837 
0.00424306 0.705482 0.708715 
-3.54949e-06 0.829588 0.558376 
-0.00193898 0.931898 0.362715 
-0.00341323 0.988909 0.148483 
-0.00269199 0.999581 -0.0288038 
-0.00371117 0.985792 -0.167929 
-0.00466677 0.929773 -0.368103 
-0.0067801 0.839528 -0.543274 
-0.00962032 0.738074 -0.674651 
-0.0136675 0.625968 -0.779729 
-0.0183022 0.518383 -0.854952 
-0.0268395 0.402722 -0.914929 
-0.0338309 0.311985 -0.949485 
-0.0417487 0.241708 -0.969451 
-0.0492492 0.185734 -0.981365 
-0.055117 0.139607 -0.988672 
-0.0596463 0.109328 -0.992215 
-0.0650652 0.083338 -0.994395 
-0.0668477 0.0655532 -0.995607 
-0.070281 0.0500462 -0.996271 
-0.0726395 0.0389834 -0.996596 
-0.0742866 0.0299682 -0.996787 
-0.0765408 0.0226478 -0.996809 
-0.0780402 0.0173145 -0.9968 
-0.0789867 0.0123876 -0.996799 
-0.0797683 0.00849617 -0.996777 
-0.0804252 0.0051073 -0.996748 
-0.0807521 0.00196258 -0.996732 
-0.0805927 -0.000930103 -0.996747 
-0.0803202 -0.00382105 -0.996762 
-0.0792741 -0.00724852 -0.996827 
-0.0785242 -0.0109508 -0.996852 
-0.0773089 -0.015167 -0.996892 
-0.0757006 -0.0210983 -0.996907 
-0.074013 -0.0275123 -0.996878 
-0.0724145 -0.0355024 -0.996743 
-0.0699652 -0.0478539 -0.996401 
-0.0687802 -0.0600854 -0.995821 
-0.0677213 -0.0744878 -0.99492 
-0.0637359 -0.0853352 -0.994312 
-0.063852 -0.0926147 -0.993653 
-0.0578952 -0.0960386 -0.993692 
-0.0462127 -0.0766168 -0.995989 
-0.000338424 -0.00139215 -0.999999 
-0.000545956 -0.00117554 0.999999 
0.0243994 -0.0523089 0.998333 
0.0523869 -0.0954885 0.994051 
0.0560117 -0.0888328 0.99447 
0.0547376 -0.0789901 0.995371 
0.0633395 -0.0704833 0.9955 
0.0600244 -0.0622884 0.996252 
0.0654865 -0.0499836 0.996601 
0.0650982 -0.0389494 0.997118 
0.068642 -0.0297162 0.997199 
0.0695909 -0.0226795 0.997318 
0.0689801 -0.0171742 0.99747 
0.071405 -0.0123649 0.997371 
0.0722792 -0.00834584 0.99735 
0.0729643 -0.00479228 0.997323 
0.0734944 -0.00184412 0.997294 
0.0742136 0.00129016 0.997242 
0.074289 0.00451085 0.997227 
0.0740437 0.00812127 0.997222 
0.0727166 0.0121746 0.997278 
0.0711928 0.0169926 0.997318 
0.0694127 0.0227618 0.997328 
0.0680572 0.0298412 0.997235 
0.0662035 0.0384843 0.997064 
0.0642773 0.0495597 0.996701 
0.0615225 0.0633586 0.996093 
0.0586308 0.0813365 0.994961 
0.0546975 0.104861 0.992982 
0.0504853 0.134233 0.989663 
0.0455594 0.172283 0.983993 
0.0372544 0.229888 0.972504 
0.0301825 0.296186 0.954653 
0.0215588 0.374249 0.927078 
0.0134927 0.466321 0.884513 
0.00486029 0.653192 0.757177 
0.00108504 0.77026 0.637729 
-0.00102265 0.880954 0.473201 
-0.00126769 0.942415 0.334442 
-0.00191106 0.979318 0.20232 
-0.00217276 0.999818 0.0189768 
-0.00365417 0.977594 -0.210469 
-0.00385118 0.914448 -0.404685 
-0.00462651 0.833142 -0.55304 
-0.00714623 0.721291 -0.692595 
-0.0108043 0.600463 -0.79958 
-0.0161152 0.487956 -0.87272 
-0.0234846 0.408063 -0.912651 
-0.0263969 0.343896 -0.938637 
-0.0338779 0.27234 -0.961605 
-0.0415173 0.211258 -0.976548 
-0.0476687 0.161851 -0.985663 
-0.0510797 0.124752 -0.990872 
-0.0578491 0.0923855 -0.994041 
-0.0591009 0.0748674 -0.995441 
-0.0626922 0.05725 -0.99639 
-0.0647327 0.0442922 -0.996919 
-0.0669302 0.0345148 -0.997161 
-0.0692367 0.026127 -0.997258 
-0.0704123 0.020018 -0.997317 
-0.072527 0.0148678 -0.997256 
-0.0724503 0.0102357 -0.99732 
-0.0732483 0.0063256 -0.997294 
-0.0740297 0.00280664 -0.997252 
-0.0737563 -0.00037923 -0.997276 
-0.0735505 -0.00353924 -0.997285 
-0.0732622 -0.00675491 -0.99729 
-0.0720133 -0.0106688 -0.997347 
-0.0706913 -0.0148673 -0.997387 
-0.0705053 -0.0197798 -0.997315 
-0.0671751 -0.0264026 -0.997392 
-0.0657512 -0.0340328 -0.997256 
-0.065377 -0.0436843 -0.996904 
-0.062102 -0.0578201 -0.996394 
-0.0620639 -0.071352 -0.995518 
-0.0572906 -0.0847152 -0.994757 
-0.055594 -0.093438 -0.994072 
-0.0479896 -0.0939002 -0.994424 
-0.0358702 -0.0661242 -0.997166 
0.000163257 -0.00092478 -1 
-0.000247189 -0.00125256 0.999999 
0.0227974 -0.0605535 0.997905 
0.0419256 -0.0908478 0.994982 
0.0441103 -0.0958502 0.994418 
0.0477277 -0.0897726 0.994818 
0.0494823 -0.0721105 0.996168 
0.0533402 -0.0554263 0.997037 
0.0557707 -0.0454276 0.99741 
0.057393 -0.0338004 0.997779 
0.0590708 -0.0265576 0.9979 
0.0586069 -0.0207178 0.998066 
0.0595553 -0.015141 0.99811 
0.0614396 -0.0109023 0.998051 
0.0625609 -0.00702991 0.998016 
0.0619987 -0.00363908 0.99807 
0.0637134 -0.000338595 0.997968 
0.0637578 0.00312612 0.997961 
0.0635492 0.00692222 0.997955 
0.0622052 0.0110349 0.998002 
0.0609777 0.0157584 0.998015 
0.0595165 0.0213103 0.998 
0.0582869 0.0280806 0.997905 
0.0565285 0.036309 0.997741 
0.0550321 0.0466287 0.997395 
0.0525442 0.0595916 0.996839 
0.0500698 0.0763799 0.995821 
0.0469165 0.0980385 0.994076 
0.042568 0.12742 0.990935 
0.0385284 0.165073 0.985529 
0.0330621 0.214321 0.976204 
0.0237493 0.2915 0.956276 
0.0159538 0.380591 0.924606 
0.00810773 0.495149 0.86877 
0.00261961 0.615903 0.787818 
0.00610127 0.586311 0.810063 
0.00170038 0.698045 0.716052 
-0.000423324 0.817424 0.576036 
-0.000922568 0.882047 0.47116 
-0.00111139 0.983599 0.180363 
-4.34208e-05 0.999335 0.0364581 
-0.00301791 0.989872 -0.141928 
-0.0040972 0.949912 -0.31249 
-0.00314156 0.859551 -0.51104 
-0.00303789 0.751399 -0.659841 
-0.00503622 0.639722 -0.76859 
-0.00900982 0.51659 -0.856186 
-0.0157654 0.410067 -0.911919 
-0.0221685 0.319026 -0.947487 
-0.0299022 0.25012 -0.967753 
-0.0367544 0.19674 -0.979767 
-0.040528 0.154029 -0.987235 
-0.0469768 0.10894 -0.992938 
-0.0475307 0.0889393 -0.994902 
-0.0512812 0.0684869 -0.996333 
-0.0534368 0.0534171 -0.997141 
-0.0549826 0.0416347 -0.997619 
-0.0579982 0.0320789 -0.997801 
-0.0588618 0.0249844 -0.997953 
-0.0602601 0.0189269 -0.998003 
-0.0624639 0.0138555 -0.997951 
-0.0616498 0.00919349 -0.998056 
-0.0628979 0.00504627 -0.998007 
-0.0629046 0.00148372 -0.998018 
-0.0629432 -0.00192496 -0.998015 
-0.0623054 -0.00525987 -0.998043 
-0.0627307 -0.0087733 -0.997992 
-0.0606661 -0.0128236 -0.998076 
-0.06019 -0.0174516 -0.998034 
-0.0595105 -0.0225188 -0.997974 
-0.0556908 -0.0296074 -0.998009 
-0.0550919 -0.0381368 -0.997753 
-0.0559378 -0.0488994 -0.997236 
-0.0508153 -0.0610569 -0.99684 
-0.0528729 -0.0727945 -0.995944 
-0.0475483 -0.0862301 -0.99514 
-0.0471123 -0.0942893 -0.994429 
-0.0397321 -0.095981 -0.99459 
-0.0268705 -0.0604077 -0.997812 
6.06613e-05 -0.00109812 -0.999999 
-2.81721e-05 -0.00131685 0.999999 
0.0207694 -0.0715753 0.997219 
0.0347977 -0.0955096 0.99482 
0.0357432 -0.0947663 0.994858 
0.0417824 -0.085455 0.995466 
0.0376127 -0.0752309 0.996457 
0.0431494 -0.0618121 0.997155 
0.0409488 -0.0491731 0.997951 
0.0469289 -0.0398009 0.998105 
0.0454296 -0.0310908 0.998484 
0.0463631 -0.0249538 0.998613 
0.0481255 -0.0190127 0.99866 
0.0478882 -0.0141921 0.998752 
0.0502204 -0.0100852 0.998687 
0.0506423 -0.00642123 0.998696 
0.0506314 -0.0027539 0.998714 
0.0519991 0.000695764 0.998647 
0.0518135 0.00450377 0.998647 
0.0505225 0.00850756 0.998687 
0.0496159 0.0130403 0.998683 
0.0487846 0.0181738 0.998644 
0.0477762 0.0241521 0.998566 
0.0464731 0.031217 0.998432 
0.045035 0.0399533 0.998186 
0.0435008 0.0506413 0.997769 
0.0414981 0.0645653 0.99705 
0.0390771 0.0823217 0.995839 
0.0362424 0.105874 0.993719 
0.0321449 0.138048 0.989904 
0.0284326 0.179513 0.983345 
0.0237208 0.238536 0.970844 
0.0152439 0.323201 0.946208 
0.00939865 0.419377 0.907764 
0.00398866 0.525278 0.850922 
-0.000658808 0.744365 0.667773 
-0.0012651 0.87916 0.476526 
0.00147802 0.949624 0.313387 
0.00373576 0.98245 0.186489 
0.000211262 0.970388 0.241552 
0.00252567 0.994565 0.104084 
0.00159234 0.995549 -0.0942331 
0.00041175 0.987324 -0.158715 
-0.00352734 0.938144 -0.346226 
-0.00100329 0.814376 -0.580337 
-0.00170758 0.71118 -0.703007 
-0.00311749 0.567207 -0.82357 
-0.00833994 0.440684 -0.897623 
-0.0137848 0.344825 -0.938566 
-0.0220199 0.254568 -0.966804 
-0.0284268 0.192091 -0.980965 
-0.0274991 0.159009 -0.986894 
-0.0373773 0.133339 -0.990365 
-0.0352921 0.107013 -0.993631 
-0.0391175 0.0822374 -0.995845 
-0.0414719 0.0642631 -0.997071 
-0.0432016 0.0498806 -0.99782 
-0.0455309 0.0381029 -0.998236 
-0.0467565 0.0297804 -0.998462 
-0.0481267 0.0227091 -0.998583 
-0.0494627 0.0167504 -0.998636 
-0.0506765 0.0118714 -0.998645 
-0.0506993 0.00681438 -0.998691 
-0.0506589 0.00272731 -0.998712 
-0.0510811 -0.00105831 -0.998694 
-0.0503493 -0.00461474 -0.998721 
-0.0505467 -0.00830714 -0.998687 
-0.0495615 -0.012126 -0.998697 
-0.0488974 -0.0167877 -0.998663 
-0.0472675 -0.0219912 -0.99864 
-0.0457692 -0.0278476 -0.998564 
-0.0438026 -0.0367115 -0.998365 
-0.0446006 -0.0474491 -0.997877 
-0.0407791 -0.0616185 -0.997266 
-0.0410469 -0.0770536 -0.996182 
-0.035898 -0.0894236 -0.995347 
-0.0370964 -0.0956383 -0.994725 
-0.0305193 -0.0983206 -0.994687 
-0.024592 -0.0745741 -0.996912 
-7.96252e-05 -0.00105344 -0.999999 
3.88619e-05 -0.00134517 0.999999 
0.0152947 -0.0700372 0.997427 
0.0276058 -0.098456 0.994758 
0.0257284 -0.097619 0.994891 
0.0318251 -0.0900236 0.995431 
0.0287616 -0.0778754 0.996548 
0.0325308 -0.0612155 0.997594 
0.0310005 -0.0478396 0.998374 
0.0355895 -0.03803 0.998643 
0.0332758 -0.030661 0.998976 
0.036391 -0.0241212 0.999046 
0.0375676 -0.0185586 0.999122 
0.0370682 -0.0138521 0.999217 
0.0392522 -0.00978763 0.999181 
0.040331 -0.00577601 0.99917 
0.0397397 -0.001902 0.999208 
0.0409832 0.0019272 0.999158 
0.0396608 0.00601123 0.999195 
0.0389604 0.0107019 0.999183 
0.0384988 0.0158865 0.999132 
0.0377825 0.0216074 0.999052 
0.036773 0.0282163 0.998925 
0.0356437 0.0363272 0.998704 
0.0341934 0.0464261 0.998336 
0.0328651 0.0591623 0.997707 
0.0307894 0.075858 0.996643 
0.0284472 0.0978969 0.99479 
0.0254154 0.127365 0.99153 
0.0216002 0.169994 0.985208 
0.0183999 0.225709 0.974021 
0.0129598 0.297556 0.954616 
0.00688025 0.402376 0.915449 
0.00267856 0.519589 0.854412 
7.1995e-05 0.645796 0.76351 
-5.38386e-05 0.63916 0.769073 
0.000569151 0.861117 0.508407 
0.00655359 0.940555 0.339579 
0.00649637 0.998259 0.0586204 
0.00499335 0.999782 0.0202624 
0.00543159 0.999983 0.00193857 
0.00511371 0.999826 -0.0179656 
0.00307902 0.996866 -0.0790443 
0.0010039 0.966594 -0.256312 
-0.00159497 0.83437 -0.551202 
-0.000947741 0.614651 -0.788799 
-0.000769916 0.569308 -0.822124 
-0.00326582 0.484914 -0.874556 
-0.00613843 0.390289 -0.920672 
-0.0127532 0.293565 -0.955854 
-0.0185048 0.221929 -0.974887 
-0.0189928 0.179068 -0.983653 
-0.0268075 0.127312 -0.9915 
-0.0286241 0.0943969 -0.995123 
-0.0308266 0.0736248 -0.996809 
-0.0329568 0.0576185 -0.997795 
-0.0349354 0.0443354 -0.998406 
-0.0356103 0.0348577 -0.998758 
-0.0371208 0.0270503 -0.998945 
-0.0383022 0.020542 -0.999055 
-0.0386347 0.0150656 -0.99914 
-0.0407759 0.00994642 -0.999119 
-0.039368 0.00519891 -0.999211 
-0.0399484 0.000917148 -0.999201 
-0.0395279 -0.00284885 -0.999214 
-0.0395512 -0.00666829 -0.999195 
-0.0386129 -0.0104095 -0.9992 
-0.0387443 -0.0146265 -0.999142 
-0.0373276 -0.0193524 -0.999116 
-0.0353045 -0.0246968 -0.999071 
-0.0354373 -0.0315764 -0.998873 
-0.0323863 -0.0400976 -0.998671 
-0.0344789 -0.0491545 -0.998196 
-0.0301108 -0.0609855 -0.997684 
-0.03166 -0.074617 -0.99671 
-0.0274982 -0.0886302 -0.995685 
-0.0266517 -0.0977627 -0.994853 
-0.0219352 -0.0983005 -0.994915 
-0.0164157 -0.0659089 -0.997691 
0.000143859 -0.00118311 -0.999999 
-9.13943e-05 -0.00110736 0.999999 
0.0106722 -0.0702777 0.99747 
0.0196288 -0.0989728 0.994897 
0.0187816 -0.0990848 0.994902 