# vtk DataFile Version 3.0 
Exported using Morpho https://github.com/Morpho-lang/morpho 
ASCII 
DATASET UNSTRUCTURED_GRID 

POINTS 1978 float 
-8.48526 -2.82838 -2.98554e-07 
-8.26071 -2.82836 -2.82507e-08 
-8.03587 -2.82835 1.69047e-06 
-7.76273 -2.82838 1.42126e-06 
-7.46416 -2.82837 1.00699e-06 
-7.23338 -2.82838 8.08751e-07 
-6.98625 -2.82838 6.59459e-07 
-6.77789 -2.82839 4.10138e-07 
-6.56231 -2.82838 3.67666e-07 
-6.34319 -2.82838 3.23874e-07 
-6.15015 -2.82838 1.7736e-07 
-5.92858 -2.82838 1.21084e-07 
-5.71533 -2.82838 8.20113e-08 
-5.51057 -2.82838 3.44759e-08 
-5.29333 -2.82838 1.08222e-08 
-5.08163 -2.82838 -1.16044e-08 
-4.86408 -2.82838 -3.56288e-08 
-4.65782 -2.82838 -7.02382e-08 
-4.43802 -2.82838 -9.85712e-08 
-4.22108 -2.82838 -1.44989e-07 
-4.00284 -2.82838 -2.00053e-07 
-3.79246 -2.82838 -2.61363e-07 
-3.57636 -2.82838 -3.41106e-07 
-3.36331 -2.82838 -4.1277e-07 
-3.1407 -2.82838 -5.25193e-07 
-2.92869 -2.82839 -6.34502e-07 
-2.71671 -2.82839 -8.02819e-07 
-2.51927 -2.8284 -9.39705e-07 
-2.30645 -2.82839 -9.51321e-07 
-2.09516 -2.8284 -1.0743e-06 
-1.88809 -2.8284 -1.08122e-06 
-1.68337 -2.8284 -1.05556e-06 
-1.48123 -2.82842 -8.00096e-07 
-1.26853 -2.82841 -7.38615e-07 
-1.08959 -2.8284 -5.56315e-07 
-0.834228 -2.82843 -1.17423e-07 
-0.624194 -2.8284 -3.86011e-07 
-0.444433 -2.82837 3.58336e-07 
-0.209778 -2.82839 -1.35133e-06 
0.0278379 -2.82836 7.02238e-08 
0.220278 -2.82839 6.94964e-07 
0.415965 -2.82839 4.27072e-07 
0.629761 -2.8284 4.3837e-07 
0.848464 -2.82841 9.79436e-07 
1.05231 -2.82842 1.86284e-07 
1.25459 -2.82841 1.28302e-06 
1.442 -2.82841 1.09902e-07 
1.68596 -2.82841 1.12446e-06 
1.87814 -2.82841 1.2975e-06 
2.09227 -2.8284 7.9845e-07 
2.31225 -2.82839 1.17465e-06 
2.50665 -2.8284 8.85278e-07 
2.73548 -2.82838 7.0578e-07 
2.95242 -2.82839 6.57392e-07 
3.16969 -2.82838 5.60337e-07 
3.37553 -2.82838 3.73717e-07 
3.6003 -2.82838 3.27729e-07 
3.80403 -2.82838 2.73447e-07 
4.02029 -2.82838 1.77994e-07 
4.24759 -2.82838 1.58371e-07 
4.44674 -2.82838 1.16299e-07 
4.65904 -2.82838 7.33374e-08 
4.86796 -2.82838 4.27429e-08 
5.07161 -2.82838 1.2912e-08 
5.28832 -2.82838 -1.61986e-08 
5.49922 -2.82838 -6.02299e-08 
5.70389 -2.82838 -9.39349e-08 
5.9235 -2.82838 -1.29472e-07 
6.14422 -2.82838 -2.2803e-07 
6.34474 -2.82838 -2.74095e-07 
6.58493 -2.82838 -3.07974e-07 
6.79438 -2.82838 -5.63351e-07 
6.99402 -2.82838 -5.26362e-07 
7.25075 -2.82838 -6.78413e-07 
7.47849 -2.82838 -1.14959e-06 
7.71632 -2.82838 -1.07602e-06 
7.97992 -2.82838 -2.19915e-06 
8.16631 -2.82834 8.84582e-08 
8.48524 -2.82836 4.22437e-07 
-8.48524 -2.59777 3.47418e-07 
-8.24481 -2.57525 -2.93918e-18 
-8.0075 -2.57595 1.06763e-17 
-7.77517 -2.62175 -2.26792e-18 
-7.51538 -2.64106 -8.42459e-18 
-7.21948 -2.60033 -9.92756e-20 
-6.98548 -2.58168 3.90055e-18 
-6.77185 -2.58436 1.66323e-18 
-6.53932 -2.59804 1.36033e-18 
-6.33545 -2.56064 4.28603e-18 
-6.11033 -2.59797 8.86005e-19 
-5.89353 -2.58399 1.6231e-18 
-5.68221 -2.57196 1.28733e-18 
-5.46407 -2.58736 4.87977e-19 
-5.24827 -2.58102 3.55786e-19 
-5.02973 -2.5886 -2.9325e-20 
-4.82009 -2.57578 -4.97998e-19 
-4.60128 -2.59177 -5.63175e-19 
-4.38219 -2.58794 -9.61687e-19 
-4.16336 -2.58787 -1.25817e-18 
-3.95197 -2.5764 -2.36756e-18 
-3.73868 -2.58131 -2.34561e-18 
-3.52594 -2.57929 -3.74964e-18 
-3.30748 -2.59271 -2.75975e-18 
-3.09445 -2.58705 -5.83151e-18 
-2.88155 -2.59339 -5.05993e-18 
-2.67943 -2.58351 -1.1054e-17 
-2.47012 -2.60544 -6.16267e-18 
-2.25257 -2.60391 -6.55645e-18 
-2.04433 -2.59891 -9.22682e-18 
-1.83377 -2.59559 -1.18232e-17 
-1.62143 -2.59023 -9.24239e-18 
-1.41291 -2.59946 -7.91213e-18 
-1.22827 -2.53045 -1.05825e-17 
-1.00347 -2.63129 3.03625e-17 
-0.78593 -2.57651 -1.28277e-17 
-0.587571 -2.51733 -3.7826e-18 
-0.383274 -2.50623 5.35534e-17 
-0.190094 -2.5643 -1.24585e-17 
-0.000380851 -2.46127 -4.03593e-17 
0.193301 -2.49802 6.19902e-20 
0.396503 -2.51579 8.75985e-18 
0.601841 -2.56566 8.00095e-18 
0.830372 -2.58161 -1.91627e-18 
1.05338 -2.57616 -6.50877e-19 
1.26159 -2.57194 8.06851e-18 
1.50561 -2.64261 -1.86219e-17 
1.71785 -2.59021 2.46239e-17 
1.93573 -2.61462 2.28877e-18 
2.16198 -2.61264 -6.80765e-19 
2.36918 -2.57968 1.98167e-17 
2.57962 -2.61181 5.82254e-19 
2.80198 -2.59461 5.50155e-18 
3.01673 -2.59589 5.91438e-18 
3.22264 -2.57683 5.53981e-18 
3.4419 -2.59609 1.80975e-18 
3.64925 -2.57029 4.34741e-18 
3.86396 -2.58533 1.80976e-18 
4.09218 -2.59866 6.17172e-19 
4.30103 -2.56625 2.00071e-18 
4.51509 -2.5854 6.07129e-19 
4.72925 -2.58226 5.29284e-19 
4.94111 -2.57679 2.37987e-19 
5.15588 -2.59225 -1.87196e-19 
5.3745 -2.58488 -4.11612e-19 
5.58543 -2.57575 -1.06719e-18 
5.80218 -2.59159 -8.86573e-19 
6.02708 -2.59049 -9.9053e-19 
6.24028 -2.563 -3.69023e-18 
6.46042 -2.6067 4.43385e-19 
6.6864 -2.57165 -4.02424e-18 
6.8932 -2.55738 -7.58364e-18 
7.11843 -2.619 3.7804e-18 
7.36564 -2.58922 -3.79081e-18 
7.598 -2.5977 1.74809e-19 
7.84851 -2.61961 8.91485e-18 
8.06251 -2.52577 -1.60596e-17 
8.29267 -2.64231 1.62786e-17 
8.48522 -2.52199 -2.39251e-07 
-8.48521 -2.36192 5.81331e-07 
-8.2222 -2.34469 1.53388e-17 
-7.97719 -2.32693 1.23063e-17 
-7.74276 -2.39765 1.57352e-17 
-7.55211 -2.24333 8.64644e-18 
-7.44905 -2.4531 1.83873e-17 
-7.16913 -2.37781 1.32514e-17 
-6.93953 -2.32922 9.22846e-18 
-6.70204 -2.36582 7.85511e-18 
-6.4889 -2.33625 5.30855e-18 
-6.23916 -2.34451 4.58962e-18 
-6.02683 -2.35212 3.50519e-18 
-5.80884 -2.33458 2.10393e-18 
-5.57985 -2.33893 1.49385e-18 
-5.36406 -2.34307 9.96873e-19 
-5.13965 -2.34759 2.29336e-19 
-4.92749 -2.33487 -4.37442e-19 
-4.70384 -2.34914 -1.16143e-18 
-4.48553 -2.35357 -1.897e-18 
-4.2636 -2.35088 -2.71441e-18 
-4.0496 -2.33436 -3.39841e-18 
-3.83328 -2.33354 -4.44269e-18 
-3.62042 -2.33497 -5.82731e-18 
-3.40122 -2.35005 -7.91655e-18 
-3.18883 -2.35031 -9.86026e-18 
-2.97311 -2.3575 -1.22457e-17 
-2.7663 -2.34648 -1.37478e-17 
-2.55458 -2.36496 -1.78324e-17 
-2.34516 -2.38858 -2.38605e-17 
-2.12406 -2.3679 -2.39589e-17 
-1.91184 -2.37013 -2.555e-17 
-1.69187 -2.36775 -2.51726e-17 
-1.46883 -2.35091 -1.18853e-17 
-1.26018 -2.28103 -1.46382e-17 
-1.03162 -2.39149 -2.4364e-17 
-0.816985 -2.329 1.42525e-17 
-0.599815 -2.23936 1.68787e-17 
-0.389017 -2.17797 -2.34331e-17 
-0.182078 -2.23346 2.99528e-17 
0.0352162 -2.0936 5.43933e-17 
0.230494 -2.15253 -9.10145e-18 
0.424198 -2.19702 -3.19504e-17 
0.625512 -2.27257 -1.46895e-17 
0.830295 -2.33168 -9.20249e-18 
1.0473 -2.32605 -5.1525e-18 
1.26092 -2.31934 8.47071e-18 
1.46697 -2.42907 2.72046e-17 
1.64861 -2.35121 2.07806e-17 
1.86557 -2.38978 2.92994e-17 
2.08499 -2.40313 2.8028e-17 
2.3055 -2.359 2.08979e-17 
2.53001 -2.36578 1.84351e-17 
2.73015 -2.37967 1.73762e-17 
2.95929 -2.35948 1.24974e-17 
3.16032 -2.33522 9.61512e-18 
3.37529 -2.35577 8.37285e-18 
3.58034 -2.32614 5.83775e-18 
3.79324 -2.33617 4.85073e-18 
4.01023 -2.36414 4.13446e-18 
4.21929 -2.32725 2.5693e-18 
4.4407 -2.33625 1.93067e-18 
4.65048 -2.33935 1.23897e-18 
4.86234 -2.33622 5.83088e-19 
5.08093 -2.34521 -6.64181e-21 
5.29143 -2.35271 -7.26601e-19 
5.50811 -2.33335 -1.2867e-18 
5.7266 -2.34587 -2.06527e-18 
5.94348 -2.35778 -3.18861e-18 
6.15973 -2.32605 -3.76785e-18 
6.39368 -2.35117 -5.43045e-18 
6.60159 -2.34869 -7.01741e-18 
6.82596 -2.30141 -6.79649e-18 
7.05371 -2.36127 -1.07607e-17 
7.2706 -2.38439 -1.38615e-17 
7.52778 -2.36079 -1.33971e-17 
7.76775 -2.39266 -1.79616e-17 
7.98583 -2.29828 -9.67079e-18 
8.2554 -2.36771 -2.0808e-17 
8.48523 -2.27333 -5.66737e-07 
-8.48523 -2.09793 4.16803e-07 
-8.26745 -2.11941 5.82707e-18 
-8.03334 -2.08254 -8.49129e-19 
-7.78166 -2.13787 2.69889e-18 
-7.50786 -2.02463 -6.34334e-19 
-7.30544 -2.21875 3.90565e-18 
-7.06342 -2.11586 2.84813e-18 
-6.80035 -2.12538 3.18242e-18 
-6.59302 -2.10769 3.2333e-18 
-6.34982 -2.13121 2.29862e-18 
-6.1199 -2.09951 1.52677e-18 
-5.91538 -2.10339 1.27477e-18 
-5.68847 -2.10923 9.38996e-19 
-5.46694 -2.09823 6.63045e-19 
-5.2508 -2.11432 3.30075e-19 
-5.03933 -2.0986 -1.73402e-20 
-4.81687 -2.11176 -3.53529e-19 
-4.6002 -2.11663 -6.51818e-19 
-4.38313 -2.12001 -9.64662e-19 
-4.17197 -2.10255 -1.22817e-18 
-3.95622 -2.09479 -1.60607e-18 
-3.74376 -2.09275 -2.12137e-18 
-3.52705 -2.10781 -2.866e-18 
-3.31739 -2.11201 -3.56314e-18 
-3.10413 -2.12127 -4.4767e-18 
-2.89867 -2.11732 -5.40558e-18 
-2.68384 -2.12234 -6.43357e-18 
-2.47362 -2.14081 -7.78208e-18 
-2.26502 -2.16292 -9.57997e-18 
-2.03902 -2.13384 -9.21734e-18 
-1.81996 -2.14669 -9.83324e-18 
-1.59707 -2.13647 -1.00066e-17 
-1.3838 -2.07288 4.96837e-18 
-1.17079 -1.94983 3.47313e-18 
-1.06104 -2.14695 1.49675e-17 
-0.825591 -2.07834 2.01901e-17 
-0.591318 -1.96216 8.11976e-18 
-0.353679 -1.86064 3.3519e-17 
-0.142585 -1.91874 -4.61427e-17 
0.0276195 -1.59815 -2.55113e-17 
0.149667 -1.76997 -3.31955e-17 
0.350631 -1.82396 1.58549e-17 
0.553599 -1.93475 1.53801e-18 
0.763845 -2.02407 -1.1524e-17 
0.965269 -2.06509 1.37661e-17 
1.17334 -2.06836 -3.50212e-18 
1.4259 -2.1669 4.17862e-18 
1.66739 -2.13155 4.85542e-18 
1.89186 -2.167 7.1853e-18 
2.11847 -2.1814 1.09923e-17 
2.35782 -2.14432 7.52856e-18 
2.5618 -2.11759 8.31987e-18 
2.78576 -2.16693 6.19422e-18 
2.98626 -2.10593 4.68371e-18 
3.20491 -2.10813 3.98253e-18 
3.40681 -2.10619 3.45496e-18 
3.62228 -2.0884 2.3645e-18 
3.84083 -2.10744 1.94196e-18 
4.04348 -2.11278 1.56065e-18 
4.2724 -2.09878 1.03976e-18 
4.48423 -2.09422 7.8511e-19 
4.69651 -2.09795 4.86919e-19 
4.91613 -2.1069 1.60707e-19 
5.12862 -2.10421 -1.16668e-19 
5.34008 -2.11458 -4.31721e-19 
5.56442 -2.10248 -6.80907e-19 
5.78129 -2.11144 -9.98354e-19 
5.99183 -2.11138 -1.37883e-18 
6.23458 -2.1111 -1.7381e-18 
6.44309 -2.09615 -2.38066e-18 
6.65534 -2.10213 -2.87943e-18 
6.91125 -2.08971 -2.82643e-18 
7.12548 -2.12257 -3.24221e-18 
7.35472 -2.16937 -2.99746e-18 
7.54563 -2.07257 -3.95612e-19 
7.72895 -2.15848 -3.98711e-18 
7.94897 -2.0649 5.30906e-19 
8.20244 -2.14082 -6.11013e-18 
8.48523 -2.07255 -3.53041e-07 
-8.48522 -1.79583 2.78639e-07 
-8.29387 -1.87077 4.3884e-18 
-7.88066 -1.89324 -9.36789e-19 
[...]
POINT_DATA 1978 
VECTORS vectors float
0.011716 -0.0184983 0.999807 
0.0296788 -0.0912275 0.995374 
0.0206802 -0.108692 0.993865 
0.0203514 -0.101243 0.994687 
0.0201167 -0.0825109 0.996418 
0.0200871 -0.0664612 0.99759 
0.0216217 -0.0520329 0.998411 
0.0233623 -0.0409815 0.998891 
0.022459 -0.031018 0.999267 
0.0207005 -0.0225376 0.999532 
0.0221375 -0.0164062 0.99962 
0.0240767 -0.0108371 0.999652 
0.0224943 -0.00657799 0.999725 
0.0230563 -0.00364792 0.999727 
0.0235192 -0.00124483 0.999722 
0.0237525 0.000686405 0.999717 
0.0230456 0.00273487 0.99973 
0.0231595 0.00493351 0.999719 
0.02376 0.00770272 0.999688 
0.0234894 0.0111598 0.999662 
0.022885 0.0154966 0.999618 
0.0227573 0.0208069 0.999524 
0.0225433 0.0276813 0.999363 
0.0227649 0.0362943 0.999083 
0.0222842 0.0480803 0.998596 
0.021508 0.0629095 0.997789 
0.0201057 0.0825383 0.996386 
0.0191929 0.105966 0.994186 
0.0191118 0.138376 0.990198 
0.0174764 0.179886 0.983535 
0.015634 0.231011 0.972829 
0.0133518 0.293248 0.955947 
0.0114308 0.369091 0.929327 
0.00859177 0.463404 0.88611 
0.00630986 0.553205 0.833026 
0.00398557 0.693523 0.720426 
0.00142233 0.809213 0.587516 
0.000488284 0.892615 0.450826 
-8.96832e-05 0.974862 0.222799 
-2.04439e-05 0.999469 -0.0325908 
-8.99432e-05 0.971201 -0.238261 
-0.000913667 0.906852 -0.421448 
-0.0021397 0.808355 -0.588694 
-0.0034402 0.685684 -0.727897 
-0.00638418 0.570726 -0.821115 
-0.00774573 0.467025 -0.884215 
-0.0123568 0.383356 -0.923523 
-0.0136841 0.293325 -0.955919 
-0.0148222 0.235668 -0.971724 
-0.0187388 0.182646 -0.983004 
-0.0176987 0.138236 -0.990244 
-0.019492 0.108653 -0.993891 
-0.021965 0.0814286 -0.99644 
-0.0214965 0.0614765 -0.997879 
-0.0213264 0.0467207 -0.998681 
-0.0229785 0.035802 -0.999095 
-0.0226138 0.0267543 -0.999386 
-0.0219049 0.020668 -0.999546 
-0.0243866 0.0156743 -0.99958 
-0.0228663 0.0113001 -0.999674 
-0.0222011 0.00836733 -0.999718 
-0.0236164 0.00551688 -0.999705 
-0.0224775 0.00292175 -0.999742 
-0.0231727 0.00079696 -0.99973 
-0.0238779 -0.00177115 -0.999713 
-0.022391 -0.00452495 -0.999738 
-0.0229504 -0.00738512 -0.999709 
-0.024187 -0.0115307 -0.999641 
-0.0217432 -0.0167566 -0.999623 
-0.0230119 -0.0223154 -0.999487 
-0.0239192 -0.0309603 -0.999236 
-0.0197773 -0.0399207 -0.999008 
-0.0223399 -0.0502637 -0.99849 
-0.0226179 -0.0674128 -0.997476 
-0.0199746 -0.0852923 -0.996161 
-0.023618 -0.10493 -0.994211 
-0.0191565 -0.119244 -0.992681 
-0.031005 -0.1117 -0.993263 
-0.0221854 -0.0179263 -0.999582 
0.00445121 -0.0312096 0.999564 
0.0272376 -0.0697285 0.997193 
0.0453732 -0.0993882 0.994012 
0.0406265 -0.0987446 0.994291 
0.0370598 -0.0842031 0.995773 
0.0448519 -0.0645846 0.996911 
0.0502944 -0.0519781 0.997382 
0.0502093 -0.0404952 0.997922 
0.0513104 -0.0306111 0.998217 
0.0588375 -0.0231186 0.998002 
0.0517301 -0.0159276 0.998537 
0.0550126 -0.0105841 0.998432 
0.0588682 -0.0069207 0.998243 
0.0560086 -0.00373239 0.998425 
0.0579606 -0.00120526 0.99832 
0.0566258 0.00102566 0.998397 
0.0596627 0.00322071 0.998214 
0.0557779 0.0058045 0.998428 
0.0564234 0.00894173 0.998369 
0.0557587 0.0127721 0.998365 
0.0571264 0.0174347 0.998217 
0.0548949 0.0232835 0.998223 
0.0546385 0.0307044 0.998036 
0.0507863 0.0403723 0.997896 
0.0511614 0.0528571 0.997293 
0.0482107 0.0690983 0.996448 
0.0482919 0.0893331 0.994834 
0.0420099 0.115667 0.992403 
0.0384353 0.15132 0.987742 
0.0349331 0.195176 0.980152 
0.0306581 0.250078 0.967747 
0.0253664 0.319943 0.947105 
0.0193981 0.401633 0.915603 
0.0165289 0.488837 0.87223 
0.00757234 0.609975 0.792395 
0.00508814 0.730332 0.683079 
0.00349831 0.826 0.563663 
0.000789424 0.920718 0.390238 
-0.000318841 0.978678 0.205403 
-0.0023992 0.999987 0.00405437 
-0.00344841 0.978763 -0.204971 
-0.0049878 0.915872 -0.401443 
-0.00674768 0.819584 -0.572925 
-0.00888046 0.696355 -0.717646 
-0.0130383 0.57124 -0.820695 
-0.017973 0.467723 -0.883703 
-0.0186515 0.360194 -0.932699 
-0.0296632 0.285252 -0.958002 
-0.0309414 0.223066 -0.974319 
-0.03487 0.170059 -0.984823 
-0.0447694 0.132415 -0.990187 
-0.0410884 0.101713 -0.99397 
-0.0467832 0.077059 -0.995932 
-0.0495862 0.0587407 -0.997044 
-0.0532666 0.0454294 -0.997549 
-0.0509375 0.0342011 -0.998119 
-0.0570822 0.0263278 -0.998024 
-0.0547141 0.0199674 -0.998305 
-0.0528215 0.0146754 -0.998499 
-0.060359 0.0108592 -0.998119 
-0.0567106 0.00753787 -0.998364 
-0.0577158 0.00461287 -0.998324 
-0.059589 0.0020273 -0.998222 
-0.0557359 -0.000469671 -0.998447 
-0.0574212 -0.00324339 -0.998346 
-0.0588165 -0.00622766 -0.998251 
-0.0544379 -0.00977116 -0.998471 
-0.0539224 -0.0144157 -0.998444 
-0.0585011 -0.0198921 -0.998091 
-0.0480617 -0.0266908 -0.998492 
-0.0544348 -0.0355516 -0.997887 
-0.0556398 -0.0454372 -0.997419 
-0.0424037 -0.0583313 -0.997403 
-0.0477671 -0.075317 -0.996019 
-0.0449739 -0.0920016 -0.994748 
-0.0409926 -0.107159 -0.993401 
-0.051302 -0.102329 -0.993423 
-0.0182954 -0.0638722 -0.997795 
-0.00644491 -0.0329963 -0.999485 
0.000272061 -0.0265788 0.999686 
0.0432951 -0.0744651 0.996274 
0.0604054 -0.0965415 0.993499 
0.0612027 -0.0916799 0.993913 
0.0668594 -0.0838901 0.994235 
0.0626965 -0.0788081 0.994921 
0.068741 -0.0619008 0.995719 
0.0717256 -0.0491437 0.996222 
0.0725039 -0.0379139 0.996652 
0.0749167 -0.028988 0.996775 
0.0762855 -0.0204054 0.996883 
0.0769643 -0.0146046 0.996933 
0.0789607 -0.0101545 0.996832 
0.0797309 -0.00618489 0.996803 
0.0803692 -0.00309058 0.996766 
0.0808064 -0.0004452 0.996735 
0.0813416 0.0019233 0.99669 
0.0809886 0.00462711 0.99671 
0.0804296 0.00770884 0.996736 
0.0795499 0.0114574 0.996771 
0.0787224 0.015953 0.996775 
0.0772586 0.0214981 0.996785 
0.07579 0.0283382 0.996727 
0.0737366 0.0373039 0.996586 
0.071765 0.0486642 0.99624 
0.0689869 0.0636856 0.995589 
0.0660952 0.0825155 0.994402 
0.062061 0.106889 0.992339 
0.0570406 0.137754 0.98883 
0.0511386 0.180499 0.982253 
0.0442747 0.23178 0.971769 
0.036335 0.299532 0.953403 
0.02746 0.385195 0.922438 
0.0198797 0.478036 0.878124 
0.0134254 0.583365 0.812107 
0.00721167 0.699391 0.714713 
0.00174589 0.824016 0.566572 
-0.00123918 0.916358 0.400361 
-0.00289087 0.97973 0.200303 
-0.00458662 0.999365 -0.0352551 
-0.00557977 0.970045 -0.242859 
-0.0066754 0.902125 -0.431425 
-0.00904961 0.808842 -0.587971 
-0.0124735 0.69165 -0.722139 
-0.0171486 0.577396 -0.816294 
-0.0234958 0.473034 -0.880738 
-0.0297106 0.379644 -0.924664 
-0.0365656 0.313439 -0.948914 
-0.0436793 0.245286 -0.968473 
-0.0497313 0.189451 -0.980638 
-0.0564016 0.146117 -0.987666 
-0.0612426 0.110948 -0.991945 
-0.0649788 0.0863937 -0.994146 
-0.068701 0.0653116 -0.995504 
-0.0716971 0.0508279 -0.996137 
-0.0732855 0.0386599 -0.996567 
-0.0759128 0.0300461 -0.996668 
-0.077306 0.0228915 -0.996751 
-0.0777493 0.0171061 -0.996832 
-0.079959 0.0128324 -0.996721 
-0.0804514 0.00889332 -0.996725 
-0.0808557 0.00570483 -0.996715 
-0.0813657 0.00284493 -0.996686 
-0.0811073 8.07083e-05 -0.996711 
-0.0805996 -0.00259503 -0.996749 
-0.0805344 -0.00568582 -0.996741 
-0.0793816 -0.00916551 -0.996808 
-0.0778379 -0.0132178 -0.996884 
-0.077599 -0.0183505 -0.996822 
-0.0753837 -0.025024 -0.996847 
-0.0739332 -0.0324331 -0.996742 
-0.0728889 -0.0425989 -0.996437 
-0.0704574 -0.054858 -0.996012 
-0.068258 -0.0684711 -0.995322 
-0.0665288 -0.084691 -0.994192 
-0.0640289 -0.0968355 -0.993244 
-0.0629899 -0.0990636 -0.99309 
-0.0407868 -0.065745 -0.996995 
-0.0010658 -0.0275641 -0.999686 
0.00310837 -0.0250503 0.999685 
0.0342269 -0.0632594 0.997409 
0.0526208 -0.0926384 0.994314 
0.0601636 -0.0910266 0.994038 
0.0619531 -0.0825894 0.994664 
0.068392 -0.0711014 0.99513 
0.0685742 -0.0566549 0.996046 
0.0714467 -0.0424085 0.99655 
0.073243 -0.0331404 0.996771 
0.0752065 -0.0243912 0.996877 
0.0759498 -0.0179591 0.996957 
0.0775538 -0.0132083 0.996908 
0.078628 -0.00882245 0.996872 
0.079331 -0.00531664 0.996841 
0.0803832 -0.00230911 0.996768 
0.0804849 0.000304432 0.996763 
0.0808612 0.00317204 0.996727 
0.0806623 0.00626939 0.996729 
0.0800257 0.00988546 0.996751 
0.0786643 0.0141288 0.996808 
0.0770826 0.0193137 0.996845 
0.0753837 0.0255355 0.996835 
0.0737858 0.0334584 0.99672 
0.0716721 0.0433621 0.996493 
0.0692932 0.0563198 0.996013 
0.0662027 0.07249 0.995177 
0.0624314 0.0940641 0.993615 
0.0582237 0.121111 0.990938 
0.0532933 0.15536 0.986428 
0.0456738 0.203712 0.977974 
0.0383441 0.263547 0.963894 
0.02984 0.339058 0.940302 
0.0208557 0.427762 0.903664 
0.0115582 0.535021 0.844769 
0.0112908 0.579641 0.814808 
0.00424503 0.705421 0.708785 
-1.61556e-05 0.829644 0.558303 
-0.00195309 0.93195 0.362584 
-0.00343634 0.988889 0.14862 
-0.00271941 0.99959 -0.0285754 
-0.00372315 0.985737 -0.168245 
-0.00465517 0.929747 -0.368182 
-0.00678829 0.83945 -0.543412 
-0.00963186 0.738134 -0.674595 
-0.0136824 0.625964 -0.779736 
-0.0183207 0.51839 -0.854962 
-0.0268701 0.402646 -0.914972 
-0.0338554 0.311945 -0.949507 
-0.0417787 0.241708 -0.96946 
-0.0492902 0.185718 -0.981375 
-0.0551542 0.139574 -0.988683 
-0.0596932 0.109304 -0.992223 
-0.0651123 0.0833336 -0.994399 
-0.0668887 0.0655489 -0.995614 
-0.070326 0.0500421 -0.996275 
-0.0726883 0.0389792 -0.9966 
-0.0743289 0.0299666 -0.996791 
-0.0765888 0.0226459 -0.996813 
-0.0780917 0.017314 -0.996803 
-0.0790347 0.0123868 -0.996802 
-0.0798177 0.00849537 -0.99678 
-0.0804774 0.00510703 -0.99675 
-0.0808025 0.00196238 -0.996735 
-0.0806439 -0.000929883 -0.996749 
-0.0803722 -0.0038202 -0.996764 
-0.0793218 -0.00724791 -0.99683 
-0.0785747 -0.0109502 -0.996855 
-0.077359 -0.0151658 -0.996895 
-0.0757459 -0.0210971 -0.996911 
-0.0740612 -0.0275104 -0.996882 
-0.0724614 -0.0355001 -0.996747 
-0.0700063 -0.047857 -0.996406 
-0.0688261 -0.0600943 -0.995825 
-0.067771 -0.0745137 -0.994921 
-0.0637718 -0.0853784 -0.994313 
-0.0639066 -0.0926556 -0.993652 
-0.0579589 -0.0961554 -0.993684 
-0.0463547 -0.0768503 -0.99596 
-0.00308724 -0.0276632 -0.999653 
0.00481729 -0.0257534 0.999644 
0.0244136 -0.0524043 0.998344 
0.0524328 -0.0955804 0.994046 
0.0560479 -0.0888666 0.994473 
0.0547668 -0.0790299 0.995377 
0.0633679 -0.0705106 0.995503 
0.0600627 -0.0623018 0.996257 
0.0655259 -0.0499921 0.996606 
0.065131 -0.0389451 0.997125 
0.0686837 -0.0297182 0.997203 
0.0696295 -0.0226794 0.997323 
0.0690162 -0.0171744 0.997475 
0.0714433 -0.012365 0.997376 
0.0723171 -0.00834582 0.997354 
0.0730035 -0.00479184 0.997328 
0.0735332 -0.00184429 0.997298 
0.0742542 0.00128961 0.997246 
0.0743298 0.00450996 0.997231 
0.0740848 0.00812084 0.997226 
0.0727558 0.0121751 0.997283 
0.0712315 0.0169927 0.997323 
0.069448 0.022762 0.997333 
0.0680944 0.0298406 0.99724 
0.0662379 0.0384833 0.997069 
0.0643117 0.0495584 0.996706 
0.0615563 0.0633569 0.996099 
0.058666 0.0813321 0.994967 
0.0547317 0.104856 0.992989 
0.0505191 0.134226 0.989671 
0.0455923 0.172265 0.984004 
0.0372829 0.229863 0.972519 
0.0302061 0.296192 0.954659 
0.0215663 0.374273 0.927079 
0.013504 0.466317 0.884526 
0.00485356 0.653272 0.757117 
0.00107424 0.770295 0.637697 
-0.00105415 0.880904 0.473305 
-0.00120095 0.942257 0.334899 
-0.00192537 0.97931 0.202352 
-0.00204872 0.999808 0.0194394 
-0.00366552 0.977668 -0.210139 
-0.00388725 0.914353 -0.404904 
-0.00460986 0.833199 -0.552962 
-0.00713154 0.721433 -0.692455 
-0.0108115 0.600424 -0.799627 
-0.016114 0.488008 -0.872699 
-0.0234962 0.408178 -0.912612 
-0.0264216 0.343954 -0.938624 
-0.0338928 0.272338 -0.961615 
-0.0415431 0.211272 -0.976554 
-0.0477018 0.161847 -0.985671 
-0.0511149 0.124735 -0.990881 
-0.057882 0.0923802 -0.99405 
-0.0591354 0.07486 -0.995446 
-0.0627272 0.0572421 -0.996396 
-0.0647699 0.044285 -0.996925 
-0.0669659 0.0345121 -0.997166 
-0.0692747 0.0261246 -0.997263 
-0.0704495 0.0200173 -0.997322 
-0.0725674 0.0148674 -0.99726 
-0.0724891 0.0102355 -0.997324 
-0.0732878 0.00632452 -0.997298 
-0.0740704 0.002806 -0.997256 
-0.0737956 -0.000379726 -0.997281 
-0.0735901 -0.00353931 -0.99729 
-0.0733023 -0.00675483 -0.997294 
-0.0720518 -0.010669 -0.997351 
-0.0707286 -0.0148675 -0.997392 
-0.0705449 -0.0197787 -0.99732 
-0.0672107 -0.0264012 -0.997397 
-0.0657881 -0.0340311 -0.997261 
-0.0654154 -0.0436833 -0.99691 
-0.0621375 -0.0578301 -0.9964 
-0.0620985 -0.0713763 -0.995523 
-0.0573246 -0.0847588 -0.994759 
-0.055632 -0.0934927 -0.994072 
-0.0480648 -0.0940802 -0.994408 
-0.0359555 -0.0662956 -0.997151 
-0.00354307 -0.0316196 -0.99951 
0.00369572 -0.0262719 0.999649 
0.0228366 -0.0607 0.997898 
0.0420336 -0.0911403 0.994952 
0.0441468 -0.0959221 0.994417 
0.0477524 -0.0898167 0.994819 
0.0495023 -0.0721355 0.996174 
0.0533632 -0.0554329 0.997044 
0.0557985 -0.0454303 0.997416 
0.0574128 -0.0337963 0.997787 
0.0591006 -0.0265573 0.997907 
0.0586273 -0.0207173 0.998073 
0.0595779 -0.0151412 0.998117 
0.0614618 -0.0109025 0.998058 
0.0625869 -0.00702995 0.998022 
0.0620207 -0.00363937 0.998076 
0.0637385 -0.000339303 0.997974 
0.0637824 0.00312534 0.997967 
0.0635752 0.00692184 0.997961 
0.0622301 0.0110353 0.998008 
0.060999 0.0157594 0.998021 
0.0595383 0.0213103 0.998006 
0.0583087 0.0280803 0.997911 
0.0565492 0.0363073 0.997747 
0.0550527 0.0466271 0.997402 
0.0525646 0.0595896 0.996846 
0.0500896 0.0763773 0.995828 
0.0469383 0.0980305 0.994084 
0.0425886 0.127409 0.990945 
0.0385496 0.165058 0.98554 
0.0330835 0.214286 0.976221 
0.0237687 0.291441 0.956307 
0.0159634 0.380566 0.924627 
0.00811982 0.49509 0.868815 
0.00263991 0.615907 0.787826 
0.00610511 0.586315 0.810071 
0.00170578 0.697971 0.716139 
-0.000401347 0.817231 0.576324 
-0.000872491 0.882041 0.471183 
-0.0010814 0.983811 0.179262 
-2.15204e-05 0.99933 0.0365129 
-0.00306517 0.989721 -0.143051 
-0.0040497 0.949989 -0.312263 
-0.00315178 0.859639 -0.510884 
-0.00302165 0.751087 -0.66021 
-0.00504207 0.639698 -0.768619 
-0.00899623 0.516513 -0.856244 
-0.0157714 0.410018 -0.911955 
-0.0221864 0.319 -0.947507 
-0.0299174 0.250097 -0.967769 
-0.0367778 0.196737 -0.979774 
-0.0405499 0.154031 -0.987243 
-0.0469915 0.108941 -0.992945 
-0.0475528 0.0889437 -0.994909 
-0.0513006 0.0684878 -0.99634 
-0.0534585 0.0534135 -0.997148 
-0.055001 0.0416339 -0.997626 
-0.0580199 0.0320785 -0.997808 
-0.0588832 0.0249857 -0.99796 
-0.060282 0.0189286 -0.99801 
-0.062488 0.0138573 -0.997957 
-0.0616732 0.00919426 -0.998062 
-0.062921 0.00504601 -0.998013 
-0.0629288 0.00148348 -0.998025 
-0.0629658 -0.00192498 -0.998021 
-0.062329 -0.0052598 -0.998049 
-0.062756 -0.00877355 -0.997998 
-0.0606878 -0.012824 -0.998082 
-0.0602135 -0.0174521 -0.998041 
-0.0595357 -0.0225181 -0.99798 
-0.0557104 -0.0296069 -0.998016 
-0.0551136 -0.0381361 -0.99776 
-0.0559635 -0.0489017 -0.997241 
-0.0508339 -0.0610681 -0.996847 
-0.0528987 -0.0728202 -0.99595 
-0.0475678 -0.0862768 -0.995143 
-0.0471413 -0.0943469 -0.99443 
-0.0397809 -0.0961561 -0.994576 
-0.0269266 -0.0605458 -0.997803 
-0.00342068 -0.029369 -0.99957 
0.00246325 -0.0284958 0.999599 
0.0208229 -0.071791 0.997199 
0.0348499 -0.095727 0.994802 
0.035759 -0.0948155 0.994862 
0.041796 -0.0855033 0.995469 
0.0376196 -0.0752591 0.996462 
0.0431602 -0.0618227 0.99716 
0.040954 -0.0491764 0.99796 
0.0469449 -0.0398033 0.998111 
0.0454327 -0.0310903 0.998491 
0.0463763 -0.024954 0.99862 
0.0481336 -0.0190133 0.998668 
0.047896 -0.0141929 0.998759 
0.0502317 -0.0100854 0.998694 
0.0506532 -0.00642157 0.998703 
0.0506408 -0.00275444 0.998721 
0.0520109 0.000694733 0.998654 
0.0518252 0.00450339 0.998654 
0.0505328 0.00850792 0.998694 
0.0496257 0.013041 0.99869 
0.0487931 0.0181753 0.998651 
0.0477859 0.0241529 0.998573 
0.046482 0.0312176 0.998439 
0.0450435 0.0399531 0.998193 
0.0435094 0.0506404 0.997776 
0.0415077 0.0645628 0.997058 
0.0390851 0.0823166 0.995848 
0.0362528 0.105865 0.993728 
0.032154 0.138034 0.989915 
0.0284424 0.179491 0.983359 
0.0237303 0.238525 0.970857 
0.0152455 0.323229 0.94621 
0.00939961 0.419435 0.907746 
0.00399795 0.525376 0.850872 
-0.000648607 0.744548 0.667578 
-0.00133818 0.879261 0.476346 
0.00145782 0.949644 0.313307 
0.00366496 0.982168 0.187926 
0.000139237 0.970224 0.242316 
0.00246013 0.994705 0.102668 
0.0016217 0.995515 -0.0944412 
0.000360104 0.987442 -0.158091 
-0.00359417 0.938165 -0.346201 
-0.00097694 0.814157 -0.58067 
-0.00171697 0.711184 -0.703017 
-0.00310839 0.567353 -0.823484 
-0.00835914 0.440483 -0.897735 
-0.0137879 0.344777 -0.938595 
-0.0220225 0.254588 -0.96681 
-0.0284408 0.192049 -0.980985 
-0.0275044 0.158987 -0.986903 
-0.0374013 0.13333 -0.990378 
-0.0352909 0.106997 -0.99364 
-0.0391273 0.0822417 -0.995853 
-0.0414831 0.0642637 -0.997078 
-0.0432082 0.0498828 -0.997828 
-0.0455402 0.0381028 -0.998243 
-0.0467652 0.0297806 -0.99847 
-0.0481365 0.0227098 -0.99859 
-0.049473 0.0167513 -0.998643 
-0.0506872 0.011872 -0.998652 
-0.0507103 0.00681416 -0.998698 
-0.0506682 0.00272573 -0.998719 
-0.051092 -0.00105968 -0.998701 
-0.050359 -0.00461595 -0.998728 
-0.050557 -0.00830809 -0.998694 
-0.0495711 -0.012127 -0.998705 
-0.0489085 -0.0167893 -0.99867 
-0.0472756 -0.0219922 -0.998648 
-0.0457784 -0.0278469 -0.998571 
-0.0438106 -0.0367123 -0.998375 
-0.0446119 -0.0474515 -0.997885 
-0.0407866 -0.0616298 -0.997274 
-0.0410579 -0.0770866 -0.996187 
-0.0359052 -0.0894741 -0.99535 
-0.03711 -0.0956914 -0.994726 
-0.0305431 -0.0984704 -0.994677 
-0.0246475 -0.0748149 -0.99689 
-0.00300271 -0.0285724 -0.999591 
0.00165394 -0.0306308 0.999532 
0.0153271 -0.0702167 0.997413 
0.0276223 -0.0986107 0.994749 
0.0257329 -0.0976809 0.994892 
0.0318328 -0.0900768 0.995434 
0.0287623 -0.0779097 0.996554 
0.0325324 -0.0612259 0.997602 
0.0309991 -0.0478396 0.998382 
0.0355947 -0.0380301 0.99865 
0.0332717 -0.0306588 0.998987 
0.0363961 -0.0241261 0.999051 
0.0375713 -0.0185607 0.999129 
0.0370705 -0.0138538 0.999226 
0.0392563 -0.00978923 0.999189 
0.0403359 -0.00577727 0.999176 
0.0397434 -0.00190322 0.999217 
0.0409892 0.00192607 0.999164 
0.0396643 0.00601062 0.999204 
0.038964 0.0107027 0.999191 
0.0385045 0.0158887 0.99914 
0.0377854 0.0216095 0.99906 
0.036778 0.0282161 0.998932 
0.0356473 0.0363269 0.998711 
0.0341972 0.0464256 0.998344 
0.0328688 0.0591614 0.997715 
0.0307934 0.0758545 0.996651 
0.0284506 0.0978928 0.994799 
0.0254201 0.127348 0.991542 
0.0216041 0.16997 0.985223 
0.0184033 0.225693 0.974034 
0.0129579 0.29757 0.954624 
0.00687656 0.402373 0.915464 
0.00266789 0.519794 0.854299 
4.87751e-05 0.645954 0.763386 
-6.35828e-05 0.639262 0.768998 
0.000489081 0.860853 0.508868 
0.00670848 0.940341 0.340152 
0.00654409 0.998247 0.0588913 
0.00496306 0.999787 0.0200864 
0.00543585 0.999984 0.00192378 
0.00515114 0.999828 -0.0177361 
0.00302356 0.996839 -0.0793583 
0.00117632 0.967462 -0.253024 
-0.00158988 0.834432 -0.551214 
-0.000932318 0.614837 -0.788662 
-0.00075509 0.569382 -0.822082 
-0.00326871 0.484972 -0.874535 
-0.00611505 0.390509 -0.920591 
-0.0127439 0.293608 -0.955853 
-0.0185148 0.221915 -0.974903 
-0.0189857 0.179125 -0.983652 
-0.0268216 0.127306 -0.991515 
-0.0286204 0.0943809 -0.995134 
-0.0308355 0.0736134 -0.996818 
-0.0329606 0.0576155 -0.997802 
-0.0349405 0.0443306 -0.998413 
-0.0356142 0.0348557 -0.998765 
-0.0371252 0.0270499 -0.998952 
-0.0383065 0.0205433 -0.999062 
-0.0386393 0.0150675 -0.999149 
-0.0407807 0.00994726 -0.999125 
-0.0393728 0.00519857 -0.99922 
-0.0399519 0.000915775 -0.999209 
-0.0395326 -0.00284951 -0.999222 
-0.0395557 -0.00666903 -0.999203 
-0.0386159 -0.0104104 -0.999207 
-0.0387486 -0.014628 -0.99915 
-0.0373308 -0.0193537 -0.999123 
-0.0353063 -0.0246977 -0.999079 
-0.0354399 -0.031576 -0.998879 
-0.032386 -0.0400974 -0.998679 
-0.0344824 -0.0491568 -0.998204 
-0.0301105 -0.0609957 -0.997692 
-0.0316611 -0.0746429 -0.996716 
-0.0274992 -0.088679 -0.995689 
-0.0266548 -0.0978279 -0.994854 
-0.0219531 -0.0984821 -0.994901 
-0.0164432 -0.0660725 -0.99768 
-0.00193855 -0.031836 -0.999486 
0.000827222 -0.0299183 0.999553 
0.0106893 -0.0704418 0.997463 
0.0196424 -0.0991507 0.994883 
0.0187836 -0.0991444 0.994903 
0.0231629 -0.0901583 0.995666 
0.0206007 -0.0774222 0.996794 
0.0245032 -0.0635541 0.997686 
0.0228256 -0.0508966 0.998451 