# vtk DataFile Version 3.0 
Exported using Morpho https://github.com/Morpho-lang/morpho 
ASCII 
DATASET UNSTRUCTURED_GRID 

POINTS 1978 float 
-8.44828 -2.78001 -0.000150531 
-8.2179 -2.79717 -0.000948224 
-8.04211 -2.79575 -0.00369022 
-7.79229 -2.77996 -0.00332508 
-7.46474 -2.77219 -0.00273664 
-7.19799 -2.78218 -0.00034064 
-6.99846 -2.78681 -0.00100295 
-6.76222 -2.78084 -0.000584497 
-6.51101 -2.78929 -0.000174738 
-6.34538 -2.79611 -0.000450098 
-6.17928 -2.78839 -0.000650883 
-5.95088 -2.7834 -0.000546724 
-5.72411 -2.77958 -0.0004443 
-5.51546 -2.78278 -0.0001579 
-5.29452 -2.78196 -0.000269206 
-5.08246 -2.7833 -0.000210534 
-4.86108 -2.78278 -0.000109819 
-4.65774 -2.78194 4.69313e-05 
-4.43595 -2.78391 0.000127041 
-4.22123 -2.78502 0.000316532 
-4.00533 -2.78732 0.000203796 
-3.79916 -2.78501 5.5458e-05 
-3.58181 -2.78345 0.000265119 
-3.36717 -2.78199 0.000621829 
-3.1337 -2.78345 0.000890987 
-2.9189 -2.78756 0.0011022 
-2.69875 -2.79535 0.00120854 
-2.50148 -2.80176 0.00148336 
-2.29415 -2.80213 0.00183125 
-2.07904 -2.80516 0.00235753 
-1.87311 -2.81129 0.00302616 
-1.66771 -2.81222 0.00254755 
-1.47089 -2.81843 0.0024416 
-1.25992 -2.81686 0.00170609 
-1.06888 -2.81014 0.000793506 
-0.828006 -2.81058 -0.000210373 
-0.611637 -2.80022 -0.00042342 
-0.440768 -2.79121 -0.00141774 
-0.201429 -2.77947 -6.55332e-05 
0.0476621 -2.77062 -0.000467232 
0.222459 -2.79305 0.00141438 
0.391264 -2.79404 0.00101965 
0.595484 -2.79646 0.000245572 
0.850377 -2.81403 0.000840067 
1.0639 -2.80971 -0.00108581 
1.24191 -2.82454 -0.00148913 
1.4185 -2.81655 -0.00296462 
1.67156 -2.81556 -0.00264693 
1.84549 -2.80858 -0.00364946 
2.076 -2.80145 -0.00276519 
2.30515 -2.80147 -0.00212501 
2.49013 -2.79752 -0.00174562 
2.72379 -2.79185 -0.00129046 
2.94695 -2.79122 -0.00103342 
3.16249 -2.78521 -0.000790649 
3.37547 -2.78222 -0.000554577 
3.605 -2.78524 -0.000278101 
3.80812 -2.78499 -0.00019606 
4.0227 -2.78318 -0.000302167 
4.25084 -2.78525 -3.3126e-05 
4.44613 -2.78466 -7.03622e-06 
4.65815 -2.78422 2.14703e-06 
4.86954 -2.78357 0.000241426 
5.06947 -2.78498 -2.6113e-05 
5.28828 -2.78385 8.89235e-05 
5.49795 -2.78501 0.000347956 
5.70259 -2.78375 0.000167015 
5.92422 -2.78288 0.000410713 
6.14667 -2.78464 0.000327995 
6.34532 -2.78532 0.000507564 
6.5877 -2.78479 0.000583215 
6.79395 -2.78841 0.000918229 
6.99287 -2.78396 0.000934214 
7.2573 -2.77983 0.00152601 
7.48573 -2.7873 0.00202724 
7.72309 -2.79123 0.0020019 
7.97069 -2.79806 0.00147889 
8.14532 -2.7953 0.000157381 
8.43073 -2.76313 -0.000108102 
-8.4501 -2.54206 0.00309601 
-8.24862 -2.58475 -0.000865253 
-8.01677 -2.51276 -0.000267417 
-7.83623 -2.58077 0.000206918 
-7.56891 -2.61723 0.000141052 
-7.25252 -2.58762 -0.000177145 
-7.0013 -2.53425 -0.000530278 
-6.80186 -2.56804 -2.64179e-06 
-6.5579 -2.59185 -7.57285e-05 
-6.33071 -2.50442 6.1719e-06 
-6.11986 -2.57219 0.000212268 
-5.89329 -2.56514 -0.000446764 
-5.67842 -2.54312 -0.000125753 
-5.46093 -2.56083 0.000248142 
-5.24513 -2.5519 0.000112988 
-5.02503 -2.56459 0.000157133 
-4.81737 -2.54656 4.92964e-05 
-4.59787 -2.56748 0.000286752 
-4.3822 -2.56131 0.000215811 
-4.16375 -2.56342 0.000149786 
-3.9544 -2.5516 0.000376226 
-3.74008 -2.55641 0.000491043 
-3.52617 -2.5475 0.000565805 
-3.30191 -2.56569 0.000524722 
-3.08568 -2.55653 0.000584858 
-2.86685 -2.57339 0.000733012 
-2.6645 -2.56455 0.000681847 
-2.45869 -2.58871 0.000876368 
-2.2431 -2.59985 0.00110485 
-2.03163 -2.59286 0.00118595 
-1.82186 -2.59248 0.00139035 
-1.61618 -2.58285 0.00115958 
-1.40911 -2.59948 0.00129116 
-1.21207 -2.56556 0.00064386 
-0.983421 -2.60917 0.000364812 
-0.765556 -2.57436 -0.000527309 
-0.587373 -2.49408 -0.000335772 
-0.399218 -2.50737 -0.00162649 
-0.206809 -2.54948 -0.00108285 
-0.0102045 -2.48267 0.0011849 
0.199247 -2.45189 -3.07007e-06 
0.406983 -2.51884 0.00108817 
0.615244 -2.53147 0.0009588 
0.810973 -2.61465 1.37384e-05 
1.05193 -2.59037 -0.000591937 
1.27406 -2.57482 -0.00115701 
1.50607 -2.64719 -0.00125702 
1.69309 -2.56738 -0.000759824 
1.91073 -2.61803 -0.00110569 
2.14875 -2.60822 -0.00077952 
2.34436 -2.55599 -0.000566654 
2.5617 -2.59879 -0.00062736 
2.79052 -2.58099 -0.000727917 
3.0024 -2.56591 -0.000537413 
3.21534 -2.55197 -0.000557863 
3.44191 -2.56768 -0.000571807 
3.64968 -2.54324 -0.000658028 
3.86554 -2.55765 -0.00045512 
4.09667 -2.57356 -0.000175242 
4.3051 -2.54161 -0.000236833 
4.51673 -2.56098 -0.000306992 
4.73148 -2.56038 -0.000244443 
4.94268 -2.54748 3.63762e-05 
5.15683 -2.56763 -5.03167e-05 
5.37677 -2.55701 -0.000222991 
5.58623 -2.54797 -5.16792e-05 
5.8026 -2.56427 0.000218083 
6.02969 -2.5633 0.000127102 
6.24212 -2.53441 -0.000197234 
6.46184 -2.58219 5.80979e-05 
6.68805 -2.54365 0.000311735 
6.89235 -2.53118 0.000154039 
7.11819 -2.59074 -0.000495165 
7.37036 -2.56115 6.60954e-06 
7.60485 -2.57787 -0.000299841 
7.85163 -2.59165 0.000642975 
8.05178 -2.50873 0.00030953 
8.25866 -2.60647 -0.000209589 
8.44445 -2.48968 -0.00036963 
-8.44667 -2.36184 0.00221262 
-8.16646 -2.35109 0.00124544 
-7.91627 -2.26717 -3.73986e-05 
-7.71422 -2.4073 -0.000408623 
-7.56814 -2.26138 -0.00115316 
-7.42115 -2.44165 0.001322 
-7.16006 -2.36379 7.44361e-05 
-6.93127 -2.29039 -0.000403407 
-6.70834 -2.37292 -0.000106189 
-6.49471 -2.35023 0.000251547 
-6.21795 -2.30804 2.51501e-06 
-6.01499 -2.34951 -0.000254203 
-5.8005 -2.32512 -8.00778e-05 
-5.57188 -2.32337 0.000351653 
-5.36073 -2.33086 0.000322188 
-5.13491 -2.33581 0.000144182 
-4.9274 -2.32275 7.78065e-05 
-4.70283 -2.33963 0.000157021 
-4.48815 -2.34187 6.78052e-05 
-4.267 -2.34326 -4.15329e-05 
-4.05292 -2.32363 1.88949e-05 
-3.83529 -2.32471 0.000341842 
-3.62228 -2.31889 0.000171925 
-3.39797 -2.33375 7.6108e-05 
-3.18454 -2.3308 -1.97291e-05 
-2.96371 -2.34511 0.000178804 
-2.75636 -2.33779 0.000447302 
-2.54408 -2.35572 0.000588982 
-2.33717 -2.38754 0.000445458 
-2.12384 -2.38302 0.000483603 
-1.90625 -2.37568 0.000375852 
-1.68864 -2.35986 0.000228767 
-1.46575 -2.36263 -0.000372291 
-1.26407 -2.32441 -0.0012506 
-1.04056 -2.3834 -0.000325529 
-0.817128 -2.35001 0.000755401 
-0.60806 -2.20726 -0.00173635 
-0.406395 -2.21247 -0.000518653 
-0.203711 -2.25228 -0.00125835 
0.0106996 -2.16778 -0.000786751 
0.217959 -2.16076 0.00118388 
0.424846 -2.21133 0.000877298 
0.626023 -2.25737 0.00238867 
0.839467 -2.37671 3.22835e-05 
1.05894 -2.37511 0.000947659 
1.25458 -2.33284 0.000326855 
1.46033 -2.43703 -0.000288875 
1.65538 -2.34033 -0.000369743 
1.86878 -2.40055 -0.000558243 
2.08478 -2.41954 -0.000527473 
2.29892 -2.33353 -0.000473947 
2.51554 -2.37362 -0.000324204 
2.72296 -2.37807 -0.000477145 
2.94333 -2.33893 -0.000200016 
3.14721 -2.32606 3.56888e-05 
3.36928 -2.34288 -5.23064e-05 
3.5758 -2.31025 -0.000135457 
3.7882 -2.32249 -0.000275643 
4.00824 -2.3541 -0.00011265 
4.21862 -2.31913 8.27716e-07 
4.44159 -2.32419 -5.09409e-05 
4.65025 -2.33405 -0.000149146 
4.8608 -2.32543 -0.000145757 
5.08214 -2.33344 5.22911e-05 
5.29072 -2.34262 -4.72571e-05 
5.50735 -2.31924 -0.000309039 
5.72523 -2.33239 -0.000133841 
5.94169 -2.34564 0.000349111 
6.15754 -2.31293 0.000130674 
6.39335 -2.33972 -0.000597913 
6.59926 -2.33781 -0.000207177 
6.8245 -2.28793 0.000513735 
7.05164 -2.34751 0.000438598 
7.27043 -2.37152 -3.25632e-05 
7.53367 -2.35359 3.99285e-05 
7.77079 -2.38305 0.000831884 
7.97953 -2.28732 -0.0003696 
8.2301 -2.35077 8.24789e-05 
8.45096 -2.26126 -0.00131701 
-8.43217 -2.11989 0.00359156 
-8.22577 -2.16614 0.000423481 
-8.05035 -2.05484 0.000750499 
-7.77059 -2.11451 0.00022445 
-7.51091 -2.0453 0.000853134 
-7.31582 -2.21204 -6.86912e-06 
-7.07851 -2.10946 -0.000103384 
-6.78761 -2.11658 -5.80183e-05 
-6.58713 -2.12393 0.000108856 
-6.35803 -2.14573 0.000151008 
-6.1105 -2.08005 -0.000117873 
-5.91496 -2.1053 -0.000140109 
-5.68885 -2.1082 -7.22075e-05 
-5.4668 -2.09091 -6.87555e-05 
-5.25175 -2.11443 -0.000158755 
-5.04204 -2.09257 -9.68038e-05 
-4.82044 -2.11264 -0.000151553 
-4.60662 -2.11505 -8.71248e-05 
-4.39079 -2.12056 -0.000310774 
-4.18106 -2.10569 -9.68353e-05 
-3.96192 -2.09399 -0.00021505 
-3.74988 -2.08844 -0.000105718 
-3.52881 -2.10193 -6.94597e-05 
-3.31721 -2.09915 -0.000171181 
-3.1 -2.11345 -0.00019632 
-2.89098 -2.11247 -0.000232979 
-2.67595 -2.12122 -0.00026234 
-2.46705 -2.14037 -0.000161084 
-2.26111 -2.17027 -0.000127747 
-2.0407 -2.16168 -0.000757208 
-1.81861 -2.14482 -0.000788535 
-1.58227 -2.13329 -0.000473193 
-1.37214 -2.08793 6.35311e-05 
-1.19349 -1.9843 6.66662e-05 
-1.06899 -2.14807 -0.000627147 
-0.826092 -2.12235 -2.68605e-05 
-0.583039 -1.92072 -0.00279693 
-0.372327 -1.89806 -0.00159439 
-0.162647 -1.94283 -1.48238e-05 
0.0249662 -1.7492 -0.000300148 
0.199134 -1.82424 0.000244601 
0.363764 -1.77464 0.00126539 
0.551586 -1.93383 0.00034991 
0.754705 -2.04242 0.00228591 
0.95357 -2.12677 0.000817111 
1.17606 -2.10719 0.00169368 
1.44299 -2.19624 0.000897565 
1.67608 -2.12262 0.00127283 
1.89775 -2.18568 0.000841954 
2.11101 -2.19247 0.000891742 
2.36758 -2.13223 -0.000111215 
2.5715 -2.14519 0.000357174 
2.77926 -2.14863 -1.20008e-05 
2.98357 -2.09348 0.000243019 
3.20549 -2.11142 0.000110326 
3.40652 -2.09661 0.000136618 
3.62153 -2.08045 0.000170933 
3.84104 -2.1064 1.52951e-05 
4.04463 -2.11172 0.000172291 
4.27597 -2.10014 0.000160245 
4.48852 -2.09213 0.000131475 
4.69675 -2.09895 0.000129603 
4.91755 -2.10659 0.000103306 
5.12863 -2.10333 1.27723e-05 
5.33802 -2.11486 7.77178e-05 
5.5629 -2.09825 0.00013677 
5.77909 -2.10827 8.44208e-05 
5.98866 -2.10849 0.000249126 
6.23541 -2.11132 0.000224147 
6.4428 -2.09512 3.36488e-05 
6.65526 -2.10182 -0.00011589 
6.91626 -2.08737 -0.000146622 
7.13115 -2.1215 0.000270921 
7.36265 -2.17041 -0.000810776 
7.55333 -2.07292 -0.000540681 
7.73131 -2.16019 0.000314373 
7.94147 -2.06378 -0.000115573 
8.18435 -2.13809 -0.000836635 
8.45141 -2.0726 -0.00218073 
-8.42712 -1.78866 0.00162998 
-8.27352 -1.90437 0.000399544 
-7.88436 -1.89936 -0.00126485 
-7.65631 -1.87883 -0.000157307 
-7.42364 -1.78672 0.000136266 
[...]
POINT_DATA 1978 
VECTORS vectors float
0.152355 -0.226123 0.961923 
0.158502 -0.174768 0.973773 
0.164719 -0.136641 0.978274 
0.175443 -0.0989341 0.979912 
0.186007 -0.0779017 0.980141 
0.19358 -0.0680367 0.979585 
0.192696 -0.0551634 0.98029 
0.19208 -0.0441103 0.980942 
0.192586 -0.0325423 0.981757 
0.195679 -0.0202557 0.980388 
0.197948 -0.00969348 0.98122 
0.200189 -0.00256709 0.980108 
0.203324 -0.000148002 0.979441 
0.203813 -0.000877136 0.979357 
0.204864 -0.000101427 0.97901 
0.205699 0.00116194 0.978835 
0.205328 0.00205447 0.978893 
0.204355 0.00352599 0.979232 
0.204182 0.00527075 0.979042 
0.203168 0.00731394 0.97945 
0.201019 0.0119392 0.979976 
0.198847 0.0184753 0.980468 
0.196762 0.025132 0.980827 
0.194568 0.0307394 0.981182 
0.19199 0.0380125 0.981553 
0.187078 0.0487003 0.982102 
0.178642 0.0662224 0.982754 
0.170205 0.0901744 0.982567 
0.161832 0.122932 0.98049 
0.151632 0.163775 0.976281 
0.138833 0.211545 0.969172 
0.12044 0.272557 0.956563 
0.101381 0.346812 0.934533 
0.0792584 0.44479 0.893971 
0.0590251 0.543886 0.838503 
0.0333586 0.682817 0.730662 
0.0167438 0.807844 0.589571 
0.00928107 0.893019 0.451607 
0.00248929 0.974746 0.215225 
0.000503959 0.998686 -0.0523326 
0.00065343 0.968911 -0.241634 
-0.00377283 0.912751 -0.410922 
-0.0138635 0.815038 -0.57916 
-0.0349138 0.667317 -0.745127 
-0.0584405 0.546676 -0.836922 
-0.0780978 0.453846 -0.888293 
-0.095527 0.370253 -0.926 
-0.121016 0.270574 -0.956607 
-0.136155 0.217122 -0.968419 
-0.151689 0.163663 -0.976168 
-0.162309 0.121273 -0.980706 
-0.169844 0.0928452 -0.982529 
-0.179871 0.0672215 -0.982321 
-0.187306 0.0496265 -0.98195 
-0.191437 0.0376324 -0.981673 
-0.194252 0.0303367 -0.981301 
-0.196938 0.0224827 -0.980816 
-0.199677 0.0153987 -0.980369 
-0.203105 0.0123819 -0.979515 
-0.204253 0.0110161 -0.979154 
-0.203725 0.00848269 -0.979392 
-0.203929 0.00487726 -0.979264 
-0.204794 0.00246614 -0.97907 
-0.205413 0.000175303 -0.978999 
-0.204587 -0.000241478 -0.979162 
-0.202475 -0.000686638 -0.979673 
-0.199547 -0.00502976 -0.98035 
-0.200205 -0.0101742 -0.980166 
-0.201183 -0.0150449 -0.979935 
-0.198103 -0.01802 -0.98062 
-0.193635 -0.0284651 -0.981392 
-0.192712 -0.039522 -0.981271 
-0.192037 -0.0503489 -0.980921 
-0.190727 -0.0613623 -0.980395 
-0.18119 -0.0728732 -0.981697 
-0.1719 -0.104411 -0.980582 
-0.163242 -0.153667 -0.975705 
-0.162379 -0.19865 -0.968088 
-0.177769 -0.257066 -0.948556 
0.108221 -0.224538 0.969016 
0.121865 -0.186002 0.981884 
0.119168 -0.143381 0.992122 
0.136908 -0.114747 0.992591 
0.154017 -0.0877212 0.992677 
0.155398 -0.0680344 0.993297 
0.147287 -0.0543736 0.995937 
0.15414 -0.0440879 0.995052 
0.159014 -0.0330438 0.994512 
0.147516 -0.0216329 0.997849 
0.160669 -0.0117461 0.994773 
0.161259 -0.00550527 0.994533 
0.15857 -0.00302822 0.994951 
0.163545 -0.00224081 0.994053 
0.163861 -0.00087508 0.994101 
0.166022 0.00104281 0.993561 
0.162581 0.00284533 0.994284 
0.165519 0.00498465 0.993474 
0.164298 0.00768689 0.993804 
0.163629 0.0114309 0.994001 
0.159305 0.0160831 0.994915 
0.157062 0.0217518 0.995256 
0.152849 0.0280931 0.995867 
0.152851 0.0366978 0.995557 
0.147648 0.0478725 0.995857 
0.14456 0.0616863 0.995414 
0.136231 0.0802674 0.995369 
0.131808 0.105187 0.993545 
0.125007 0.140791 0.990057 
0.113978 0.185527 0.984268 
0.101051 0.239688 0.974207 
0.0850845 0.307072 0.956703 
0.0707637 0.389395 0.926858 
0.0529374 0.484601 0.881575 
0.0388741 0.60446 0.801898 
0.0232768 0.727394 0.693606 
0.0139235 0.824656 0.568823 
0.00721251 0.912474 0.412708 
0.00318484 0.974503 0.224986 
0.000675203 0.998769 0.01277 
-0.00290488 0.976423 -0.212072 
-0.00572053 0.90911 -0.41937 
-0.012867 0.809646 -0.590676 
-0.025327 0.700213 -0.721779 
-0.0427627 0.566662 -0.829443 
-0.0584172 0.453349 -0.899605 
-0.0840331 0.344913 -0.942864 
-0.0890958 0.281486 -0.963777 
-0.110862 0.212674 -0.978724 
-0.122937 0.158336 -0.98764 
-0.124047 0.123696 -0.992699 
-0.138374 0.0917236 -0.993915 
-0.143397 0.0686005 -0.995118 
-0.146811 0.0535596 -0.995604 
-0.149055 0.0408051 -0.996012 
-0.15479 0.0305373 -0.995395 
-0.153786 0.0234116 -0.995796 
-0.159433 0.0175761 -0.99475 
-0.165261 0.0133948 -0.99365 
-0.16063 0.0106448 -0.994636 
-0.164433 0.00790865 -0.99392 
-0.164499 0.00504864 -0.993856 
-0.16282 0.00241034 -0.99421 
-0.166646 -0.00039776 -0.993399 
-0.163174 -0.00250364 -0.9941 
-0.159166 -0.00419055 -0.994908 
-0.160856 -0.00726445 -0.994625 
-0.160968 -0.0123338 -0.994615 
-0.155506 -0.0182777 -0.995664 
-0.161179 -0.025481 -0.994339 
-0.151299 -0.0350288 -0.996061 
-0.147836 -0.0439032 -0.996434 
-0.156965 -0.0565867 -0.994068 
-0.144285 -0.072748 -0.99525 
-0.141603 -0.0938975 -0.994088 
-0.136487 -0.128557 -0.991021 
-0.127777 -0.163404 -0.98763 
-0.147279 -0.210195 -0.972954 
-0.14077 -0.233715 -0.961821 
0.0788324 -0.232288 0.969842 
0.094164 -0.174792 0.989222 
0.0922909 -0.134253 0.99655 
0.11708 -0.106375 0.995539 
0.100533 -0.0953453 0.998773 
0.128279 -0.0788359 0.996426 
0.123878 -0.0635656 0.999181 
0.115018 -0.0494869 1.00066 
0.126398 -0.0386867 0.999743 
0.125213 -0.0296825 1.00009 
0.122673 -0.0182429 1.00041 
0.129739 -0.0109001 0.999766 
0.127458 -0.00659659 0.999746 
0.12834 -0.00485576 0.999619 
0.130756 -0.00377156 0.999263 
0.133098 -0.00126174 0.998986 
0.131943 0.00139111 0.999049 
0.133395 0.00476415 0.998871 
0.133154 0.00787757 0.998851 
0.133138 0.0115984 0.998931 
0.128732 0.0157843 0.999508 
0.125319 0.0204822 0.999921 
0.12133 0.0269677 1.0004 
0.120242 0.0357249 1.00038 
0.116837 0.0465786 1.00034 
0.115009 0.0601866 0.999807 
0.108771 0.0775372 0.999321 
0.105097 0.101316 0.997567 
0.101897 0.131086 0.994524 
0.0930579 0.172513 0.989361 
0.081851 0.226687 0.979549 
0.0682758 0.293319 0.962947 
0.0551915 0.376989 0.934152 
0.0401761 0.468493 0.892986 
0.0312275 0.579613 0.823212 
0.0186878 0.702796 0.719761 
0.00557685 0.818704 0.579485 
0.00195584 0.911691 0.414127 
-0.00102938 0.975588 0.217917 
-0.00511842 0.998659 -0.0124433 
-0.00530764 0.972026 -0.233963 
-0.00699342 0.903183 -0.432849 
-0.0100098 0.808443 -0.594112 
-0.0205427 0.691538 -0.730783 
-0.0326621 0.57062 -0.829423 
-0.0405218 0.471675 -0.889964 
-0.0611055 0.374919 -0.933306 
-0.064125 0.306257 -0.958877 
-0.0821866 0.236151 -0.977429 
-0.095053 0.180763 -0.987787 
-0.0945972 0.140408 -0.994111 
-0.106383 0.105168 -0.997308 
-0.11309 0.0805616 -0.998707 
-0.113587 0.0621161 -0.999837 
-0.116002 0.0488391 -1.00026 
-0.120999 0.0370169 -1.00018 
-0.119766 0.0285979 -1.00043 
-0.124609 0.021578 -0.999937 
-0.132 0.0166151 -0.999166 
-0.129703 0.0131004 -0.999375 
-0.130468 0.00928909 -0.999208 
-0.131887 0.00596231 -0.999092 
-0.131381 0.002962 -0.999059 
-0.133109 -0.000222099 -0.998873 
-0.132937 -0.00308714 -0.998901 
-0.127515 -0.0052308 -0.999543 
-0.127809 -0.00686958 -0.999603 
-0.130111 -0.0107507 -0.999549 
-0.125227 -0.0168797 -1.00013 
-0.126322 -0.0247002 -0.999896 
-0.124059 -0.0326716 -1.00013 
-0.116154 -0.0423884 -1.00076 
-0.121088 -0.0540777 -0.999875 
-0.120333 -0.068873 -0.999198 
-0.11264 -0.0901969 -0.998881 
-0.113745 -0.119535 -0.9945 
-0.100171 -0.149518 -0.993664 
-0.109249 -0.192136 -0.983916 
-0.0979337 -0.231815 -0.968063 
0.0555686 -0.243994 0.967187 
0.0720276 -0.193059 0.986436 
0.0709874 -0.164411 0.992849 
0.0833463 -0.12018 0.998685 
0.0810635 -0.0917695 1.00004 
0.101888 -0.075182 1.00038 
0.0932642 -0.0587604 1.00279 
0.0956193 -0.042816 1.00206 
0.0980248 -0.0342048 1.00186 
0.103261 -0.024954 1.00178 
0.0973729 -0.0156483 1.0023 
0.0994526 -0.0103845 1.00191 
0.101297 -0.00770181 1.0016 
0.100758 -0.00670114 1.00166 
0.105725 -0.00430721 1.0012 
0.103897 -0.00123405 1.00136 
0.105888 0.00271305 1.0012 
0.106066 0.0064125 1.00105 
0.106725 0.0104456 1.00106 
0.103465 0.0143273 1.00141 
0.0997771 0.0189177 1.00184 
0.096509 0.0247692 1.00206 
0.0945453 0.0328206 1.00211 
0.0915946 0.0424426 1.00206 
0.0905768 0.0540539 1.00166 
0.0872234 0.0689551 1.00111 
0.0840119 0.0902284 0.999895 
0.0802792 0.117762 0.9975 
0.0770513 0.151655 0.993492 
0.068571 0.198717 0.986335 
0.0575272 0.259174 0.973255 
0.0450909 0.338736 0.949547 
0.0319395 0.425612 0.912756 
0.0178261 0.513277 0.867586 
0.0203857 0.572057 0.829178 
0.00932049 0.703459 0.719764 
-0.00431461 0.835745 0.553739 
-0.00758725 0.927677 0.37513 
-0.0071655 0.985702 0.168286 
-0.00795329 0.998615 -0.0388112 
-0.00705638 0.976293 -0.219603 
-0.00509614 0.926617 -0.381604 
-0.00649194 0.846141 -0.541441 
-0.0105861 0.741077 -0.679193 
-0.0182965 0.631894 -0.784138 
-0.025898 0.518275 -0.863946 
-0.0423038 0.392593 -0.927931 
-0.0488066 0.306978 -0.960725 
-0.0641375 0.236193 -0.978395 
-0.073856 0.182387 -0.988749 
-0.0771797 0.133931 -0.996089 
-0.0841463 0.102763 -0.998891 
-0.0890192 0.0793922 -1.00037 
-0.0872459 0.0623872 -1.00165 
-0.0915737 0.0483223 -1.00187 
-0.0928519 0.0382517 -1.00199 
-0.0938555 0.0293984 -1.00215 
-0.0997621 0.0221477 -1.00174 
-0.102892 0.0174785 -1.00152 
-0.103834 0.0130884 -1.00141 
-0.103928 0.00907506 -1.00133 
-0.104229 0.00493347 -1.00134 
-0.105131 0.00111157 -1.00128 
-0.104026 -0.00248927 -1.00128 
-0.104833 -0.00551836 -1.00113 
-0.100907 -0.00764914 -1.00153 
-0.100052 -0.00902987 -1.00171 
-0.100614 -0.0124982 -1.00185 
-0.101371 -0.0203262 -1.00179 
-0.0962461 -0.0283035 -1.002 
-0.0953752 -0.0363039 -1.00205 
-0.0912351 -0.0473743 -1.00219 
-0.0925342 -0.0612976 -1.0018 
-0.0969343 -0.079524 -0.99933 
-0.0812673 -0.0958119 -0.999638 
-0.0887969 -0.114688 -0.997615 
-0.0780836 -0.145914 -0.995273 
-0.08294 -0.185642 -0.98793 
-0.0676919 -0.236955 -0.968883 
0.0499609 -0.25352 0.965072 
0.0549721 -0.213104 0.982502 
0.0623656 -0.138086 0.995813 
0.0641511 -0.109275 0.999327 
0.0615362 -0.0885699 1.0028 
0.0783182 -0.074587 1.00116 
0.0671508 -0.0641403 1.00357 
0.0781029 -0.0497659 1.00329 
0.0752348 -0.0402056 1.00365 
0.080656 -0.0309063 1.00329 
0.0824036 -0.0219171 1.00354 
0.0769056 -0.0138738 1.00419 
0.0816289 -0.00977427 1.00343 
0.0814333 -0.00855612 1.00346 
0.0830271 -0.00730148 1.00346 
0.0842229 -0.00434393 1.00341 
0.0850451 0.000444739 1.00329 
0.0856304 0.00492274 1.00323 
0.0864015 0.00926742 1.00314 
0.0843358 0.0134918 1.00338 
0.0818608 0.0181808 1.00362 
0.0779919 0.023856 1.00382 
0.0761556 0.0311678 1.00366 
0.0738523 0.0393315 1.00349 
0.0720787 0.0492056 1.00325 
0.0702118 0.0620107 1.00278 
0.0678136 0.0796424 1.00192 
0.0648831 0.102117 1.00032 
0.061916 0.130482 0.997563 
0.0583577 0.166902 0.99281 
0.0502611 0.218063 0.983987 
0.0400377 0.287204 0.96724 
0.0275295 0.368558 0.941025 
0.0114922 0.490656 0.881731 
0.00387223 0.660589 0.759657 
-0.00474298 0.777114 0.635453 
-0.00927156 0.879594 0.485037 
-0.00794427 0.943395 0.336738 
-0.00846681 0.981472 0.191535 
-0.00293404 0.999157 0.00510503 
-0.000481214 0.97795 -0.205474 
-0.00142989 0.911561 -0.418985 
-0.00196385 0.815261 -0.58563 
-0.00630887 0.712401 -0.71343 
-0.0116289 0.600111 -0.81026 
-0.0166891 0.499932 -0.876745 
-0.0295074 0.416764 -0.918526 
-0.0309918 0.351557 -0.944753 
-0.0431041 0.269067 -0.971764 
-0.0532803 0.20825 -0.985567 
-0.0614403 0.15942 -0.9937 
-0.0630873 0.117117 -0.999221 
-0.0677943 0.090553 -1.00133 
-0.0682645 0.0713202 -1.00268 
-0.0725066 0.0546493 -1.00313 
-0.0721009 0.0439393 -1.00353 
-0.0741439 0.0352572 -1.00368 
-0.0781975 0.0271084 -1.00358 
-0.0803108 0.0211665 -1.00364 
-0.0845081 0.0160748 -1.00335 
-0.0837595 0.0115829 -1.00348 
-0.0840782 0.00718558 -1.00343 
-0.0849195 0.00235616 -1.00339 
-0.0842203 -0.00228656 -1.00345 
-0.0839508 -0.00639334 -1.00328 
-0.0832088 -0.00862268 -1.00334 
-0.0808209 -0.00959128 -1.00356 
-0.0792644 -0.0117376 -1.00377 
-0.0824716 -0.0178414 -1.00355 
-0.0774099 -0.0269563 -1.004 
-0.0757509 -0.0354977 -1.00387 
-0.075634 -0.0445381 -1.0036 
-0.0713152 -0.0592745 -1.00403 
-0.0746775 -0.0767591 -1.0021 
-0.0648914 -0.0970341 -1.0003 
-0.0642506 -0.123047 -0.998011 
-0.0570174 -0.158617 -0.994306 
-0.0617376 -0.19292 -0.987446 
-0.0454615 -0.242712 -0.968894 
0.0443557 -0.255571 0.965281 
0.0437645 -0.207825 0.984736 
0.0531595 -0.176828 0.991171 
0.0504475 -0.138961 0.997166 
0.0509505 -0.111291 0.999375 
0.0551449 -0.0778112 1.00373 
0.0577739 -0.0568695 1.00493 
0.0615793 -0.0470328 1.00483 
0.0627651 -0.0351727 1.00508 
0.0645334 -0.0267114 1.00525 
0.063632 -0.0185463 1.0055 
0.0616938 -0.0121969 1.00546 
0.0652414 -0.0108389 1.00506 
0.0665994 -0.0102094 1.00498 
0.0661851 -0.00780846 1.00508 
0.0689437 -0.0027868 1.00496 
0.0689614 0.00261773 1.00497 
0.0696105 0.00748142 1.00489 
0.0683008 0.0117606 1.00492 
0.0663783 0.0165015 1.00508 
0.0636765 0.0220958 1.00522 
0.06178 0.0293965 1.00499 
0.0597655 0.0372861 1.00475 
0.0585138 0.0456451 1.00449 
0.057065 0.0565994 1.00411 
0.055539 0.0722545 1.00343 
0.0526933 0.0943447 1.00219 
0.0494288 0.123815 0.999541 
0.0462114 0.16127 0.994892 
0.0403316 0.207985 0.987098 
0.030168 0.280251 0.970156 
0.0158859 0.37816 0.937047 
0.00619043 0.48923 0.882984 
-0.00327039 0.635191 0.77931 
0.00100105 0.608445 0.803708 
-0.00288659 0.716409 0.711292 
-0.00628565 0.802794 0.599041 
-0.00448604 0.893232 0.459386 
-0.00381995 0.983346 0.184018 
-0.00209625 0.998555 0.0604532 
-0.000312584 0.995478 -0.106188 
0.00262969 0.967193 -0.258522 
0.00299596 0.878177 -0.488621 
1.28018e-05 0.746955 -0.67243 
-0.00260686 0.627246 -0.788784 
-0.00456356 0.532624 -0.857936 
-0.0147229 0.427428 -0.915167 
-0.0238158 0.327486 -0.956638 
-0.0346486 0.252424 -0.977037 
-0.0438303 0.193613 -0.988525 
-0.0504513 0.146587 -0.997544 
-0.0512919 0.109321 -1.00105 
-0.0532607 0.0865193 -1.00277 
-0.0568927 0.0646973 -1.00387 
-0.0571606 0.0517553 -1.00442 
-0.0577828 0.0417774 -1.00473 
-0.0613706 0.0332172 -1.00481 
-0.0625298 0.0265163 -1.00497 
-0.0650609 0.0202022 -1.0051 
-0.0685806 0.0150091 -1.00497 
-0.0673623 0.0103673 -1.00505 
-0.0680811 0.00546673 -1.00502 
-0.0681251 0.000231259 -1.0051 
-0.067828 -0.00544294 -1.00504 
-0.0668065 -0.00957611 -1.00497 
-0.0667804 -0.0110389 -1.00494 
-0.0639535 -0.011588 -1.00515 
-0.0638361 -0.0141309 -1.00537 
-0.0643939 -0.0207358 -1.00542 
-0.0604074 -0.0305038 -1.00549 
-0.0603039 -0.0397752 -1.00535 
-0.0621021 -0.050056 -1.00405 
-0.0553113 -0.0630931 -1.00482 
-0.0580752 -0.0779846 -1.00351 
-0.0520929 -0.0999114 -1.00157 
-0.0512193 -0.124485 -0.998628 
-0.0446257 -0.160087 -0.994901 
-0.0427687 -0.203773 -0.985886 
-0.0319029 -0.251077 -0.967355 
0.0333602 -0.255287 0.966138 
0.0344718 -0.200278 0.987142 
0.0425942 -0.165586 0.994013 
0.0387833 -0.127746 1.0001 
0.0452355 -0.09588 1.00234 
0.0394053 -0.0810755 1.0043 
0.04608 -0.0648324 1.00447 
0.0433821 -0.0506545 1.0064 
0.0496863 -0.0414731 1.00486 
0.0485009 -0.0318876 1.00603 
0.0486969 -0.023084 1.00612 
0.0504038 -0.0150387 1.00598 
0.0490527 -0.0127426 1.00585 
0.0524559 -0.0127031 1.0056 
0.05388 -0.0113548 1.00558 
0.053962 -0.00629525 1.00564 
0.0556045 -0.000265408 1.00569 
0.0555301 0.00555481 1.00561 
0.0551313 0.0102993 1.00558 
0.0537397 0.0149982 1.00555 
0.0514573 0.0203548 1.00568 
0.0502206 0.0266047 1.0056 
0.0484577 0.0336246 1.00523 
0.047095 0.0412955 1.00498 
0.0459488 0.0498114 1.00477 
0.0444237 0.0615951 1.00435 
0.0428284 0.078686 1.0036 
0.0400033 0.102892 1.002 
0.0363355 0.13416 0.999049 
0.0321584 0.173514 0.993846 
0.0268912 0.230681 0.983104 
0.0159684 0.311577 0.961629 
0.00451667 0.426336 0.916158 
-0.00100111 0.543161 0.85174 
-0.00443424 0.758016 0.659887 
-0.00167181 0.864823 0.504235 
-0.000798434 0.922358 0.391699 
0.00333564 0.978802 0.19734 
-0.00233472 0.947547 0.323899 
0.000159654 0.980796 0.16883 
0.00309009 0.996818 -0.0596203 
0.00020893 0.949142 -0.316013 
0.00560813 0.861936 -0.513832 
0.00532339 0.810406 -0.595007 
0.00279112 0.712408 -0.712176 
-0.000325365 0.553463 -0.843669 
-0.00801155 0.415819 -0.920626 
-0.0149927 0.321169 -0.958573 
-0.0239907 0.247005 -0.979117 
-0.0322213 0.191038 -0.990552 
-0.0309711 0.16474 -0.994874 
-0.0398781 0.132772 -0.998177 
-0.0381724 0.102872 -1.00223 
-0.0436899 0.0771638 -1.00375 
-0.0442771 0.0603249 -1.00453 
-0.0453345 0.0483248 -1.00491 
-0.0478323 0.038972 -1.00512 
-0.0486375 0.0319587 -1.00537 
-0.0508197 0.0250681 -1.00561 
-0.0527659 0.0188786 -1.0057 
-0.0549359 0.0136934 -1.00575 
-0.0548082 0.00820662 -1.00574 
-0.0539444 0.00297081 -1.00585 
-0.0546606 -0.00318533 -1.00584 
-0.0536023 -0.00921033 -1.0057 
-0.0537958 -0.0126577 -1.00553 
-0.0514929 -0.0131567 -1.00554 
-0.0501658 -0.0134423 -1.00585 
-0.049917 -0.0186534 -1.00603 
-0.0485644 -0.0274793 -1.00616 
-0.0461889 -0.0382683 -1.00653 
-0.0481532 -0.0486768 -1.0057 
-0.0432471 -0.0641454 -1.00539 
-0.0433333 -0.0833204 -1.00402 
-0.037032 -0.103398 -1.00179 
-0.0390549 -0.127239 -0.999046 
-0.0325177 -0.156377 -0.995746 
-0.0324029 -0.196374 -0.988146 
-0.0239523 -0.254168 -0.966631 
0.0238229 -0.254402 0.96641 
0.0255958 -0.203748 0.986803 
0.0320758 -0.157385 0.995892 
0.0275213 -0.129299 0.999129 
0.032663 -0.10528 1.00172 
0.0309108 -0.0839144 1.00428 
0.0349882 -0.0626927 1.00553 
0.0331882 -0.0497066 1.00579 
0.03794 -0.0396836 1.00611 
0.0350675 -0.0302158 1.00646 
0.0376998 -0.0200602 1.00645 
0.0387843 -0.0146593 1.00619 
0.0380431 -0.0148695 1.00599 
0.0414111 -0.0142994 1.00654 
0.0432409 -0.010912 1.00531 
0.0425783 -0.00448367 1.00682 
0.0439427 0.00210654 1.00542 
0.0426142 0.00780854 1.00685 
0.042031 0.0128088 1.00537 
0.0407513 0.0179475 1.00605 
0.0394799 0.0242297 1.00596 
0.0381132 0.0312852 1.00559 
0.0371357 0.0384517 1.00524 
0.0363754 0.0460732 1.00504 
0.0354614 0.0563154 1.0047 
0.0335093 0.0718872 1.00406 
0.0315189 0.09468 1.00278 
0.0283137 0.125636 1.00014 
0.0243561 0.165324 0.995238 
0.0201331 0.219449 0.985828 
0.0124237 0.293401 0.967274 
0.00363869 0.404462 0.926116 
-0.000283864 0.535062 0.855769 
-0.00106763 0.647309 0.771921 
-0.00149458 0.68156 0.739805 
-0.000100775 0.851646 0.527087 
0.00153132 0.947911 0.301186 
0.0122938 0.998643 0.0737056 
0.00526336 1.00257 0.0331663 
0.00745687 1.00326 0.000903421 
0.00658351 1.00201 -0.0457858 
0.00965903 0.99922 -0.0905403 
0.000952203 0.959148 -0.284552 
0.0041683 0.83894 -0.546497 
0.00381716 0.657243 -0.765336 
0.00487509 0.585729 -0.821177 
0.000380225 0.485975 -0.886047 
-0.00396212 0.399665 -0.927921 
-0.0109908 0.305214 -0.962813 
-0.0177372 0.235377 -0.981577 
-0.0231402 0.175238 -0.993453 
-0.0291709 0.127864 -0.999866 
-0.0318245 0.0895775 -1.00333 
-0.0339493 0.069397 -1.00438 
-0.035151 0.0542141 -1.00488 
-0.0368398 0.0438899 -1.00509 
-0.0370515 0.0368774 -1.00531 
-0.0383854 0.0298026 -1.00569 
-0.0400812 0.0231775 -1.00594 
-0.0410919 0.0173741 -1.00663 
-0.0439714 0.0123276 -1.00526 
-0.0425414 0.00727294 -1.00682 
-0.0423318 0.00101668 -1.00626 
-0.042301 -0.00587197 -1.00623 
-0.0419141 -0.0121972 -1.00601 
-0.0409295 -0.0150454 -1.00594 
-0.0403515 -0.0147429 -1.00525 
-0.0379115 -0.0153376 -1.00616 
-0.0362041 -0.0207863 -1.00718 
-0.0372816 -0.0314108 -1.00564 
-0.0343765 -0.0415983 -1.00608 
-0.0366979 -0.0500357 -1.00582 
-0.0323425 -0.0631872 -1.00568 
-0.0341898 -0.0806309 -1.00457 
-0.028671 -0.101021 -1.00241 
-0.0275288 -0.128919 -0.999024 
-0.0229446 -0.166551 -0.994566 
-0.0228934 -0.206765 -0.986047 
-0.0167873 -0.25862 -0.965436 
0.0157106 -0.257661 0.966177 
0.0175526 -0.211464 0.984983 
0.0230814 -0.165792 0.994642 
0.0198867 -0.128348 0.999059 
0.0251628 -0.102956 1.00215 
0.0208969 -0.0847883 1.00438 
0.0255969 -0.0661425 1.00551 
0.0238133 -0.0523958 1.00588 
0.0268252 -0.0405916 1.00626 
0.0255013 -0.0287995 1.00723 
0.0275473 -0.0196469 1.00643 
0.0296722 -0.0161263 1.00611 
0.0294037 -0.0174381 1.00594 
0.0321405 -0.0164282 1.00539 
0.0341719 -0.0122869 1.00622 
0.0333949 -0.00552579 1.00618 
0.0345158 0.00165469 1.0063 
0.0336217 0.00760068 1.0062 
0.032971 0.0129473 1.00686 
0.0323506 0.0185006 1.00609 
0.0312396 0.0244414 1.00595 
0.0303782 0.030982 1.00558 
0.0297745 0.037785 1.00531 
0.0291349 0.0453539 1.00509 
0.0286098 0.0552087 1.00477 
0.0269054 0.0703832 1.00426 
0.024941 0.0921832 1.00325 