# vtk DataFile Version 3.0 
Exported using Morpho https://github.com/Morpho-lang/morpho 
ASCII 
DATASET UNSTRUCTURED_GRID 

POINTS 1978 float 
-8.48179 -2.82369 -6.58924e-05 
-8.25925 -2.82405 -9.74649e-05 
-8.03703 -2.82231 -1.53984e-05 
-7.76676 -2.82254 0.000104832 
-7.46606 -2.82147 6.61673e-05 
-7.20647 -2.82405 1.24179e-05 
-7.00936 -2.82465 -4.3782e-05 
-6.77066 -2.82234 5.26794e-06 
-6.55693 -2.82485 1.08873e-05 
-6.34424 -2.82471 -1.71532e-05 
-6.154 -2.82354 -2.44875e-05 
-5.93185 -2.82361 -6.95984e-06 
-5.71621 -2.82356 -4.16784e-06 
-5.51182 -2.82383 -3.09618e-06 
-5.29403 -2.8234 -4.37743e-06 
-5.08177 -2.82351 4.05282e-06 
-4.8633 -2.82376 2.57202e-06 
-4.65802 -2.82345 1.648e-06 
-4.43804 -2.82354 4.20024e-07 
-4.22181 -2.82351 9.80027e-06 
-4.00358 -2.82381 1.06491e-05 
-3.79361 -2.8237 9.01017e-06 
-3.57636 -2.8237 1.22964e-05 
-3.36326 -2.82362 1.44844e-05 
-3.139 -2.82384 2.25315e-05 
-2.92687 -2.82401 3.39145e-05 
-2.71284 -2.82464 4.62911e-05 
-2.51521 -2.82536 5.74849e-05 
-2.30423 -2.82493 5.57305e-05 
-2.09209 -2.82583 6.96688e-05 
-1.88288 -2.8261 9.4679e-05 
-1.6797 -2.82628 0.000115941 
-1.47466 -2.82665 0.000115322 
-1.26714 -2.82767 4.64661e-05 
-1.08538 -2.82597 2.77918e-05 
-0.832028 -2.82761 1.33495e-05 
-0.619501 -2.82516 -0.000100393 
-0.448786 -2.82449 1.5071e-05 
-0.209747 -2.82588 -0.000116276 
0.0314816 -2.82262 -8.88846e-05 
0.223553 -2.82469 0.000146569 
0.420578 -2.82614 0.000156349 
0.61051 -2.82492 -1.70508e-05 
0.848787 -2.8269 7.12051e-05 
1.05003 -2.82799 -6.10723e-05 
1.24947 -2.82685 -0.000103482 
1.4394 -2.82703 -6.25724e-05 
1.68337 -2.82624 -8.93554e-05 
1.87067 -2.82573 -6.78869e-05 
2.08354 -2.82592 -2.37098e-05 
2.31244 -2.82483 -7.07695e-05 
2.50077 -2.82508 -4.73976e-05 
2.73425 -2.82361 -2.87227e-05 
2.95322 -2.82443 -2.73033e-05 
3.16695 -2.82405 -2.87175e-05 
3.37529 -2.82346 -1.59753e-05 
3.6014 -2.82396 -1.01158e-05 
3.80427 -2.82374 -1.3795e-05 
4.02055 -2.82326 -1.05508e-05 
4.24871 -2.82374 1.65298e-06 
4.4467 -2.82374 -5.40072e-06 
4.65889 -2.82382 -5.87472e-06 
4.86843 -2.82363 5.21676e-06 
5.07076 -2.82383 -7.11055e-06 
5.28855 -2.82349 2.24546e-06 
5.49935 -2.82385 1.02655e-05 
5.7036 -2.82366 -5.60806e-06 
5.92397 -2.82343 1.24811e-05 
6.14491 -2.82382 9.43783e-06 
6.34367 -2.82378 2.05236e-06 
6.58578 -2.82344 6.62865e-06 
6.79522 -2.82422 3.02433e-05 
6.99539 -2.82385 -4.02865e-06 
7.25303 -2.82343 9.34831e-06 
7.47716 -2.82396 1.37714e-05 
7.71413 -2.82367 -6.90873e-05 
7.97771 -2.82359 -3.79588e-05 
8.16642 -2.82243 5.34873e-05 
8.48103 -2.82242 4.12416e-05 
-8.48156 -2.58976 0.000116229 
-8.24176 -2.57326 -2.04619e-05 
-8.01649 -2.55419 1.40864e-05 
-7.80909 -2.61551 -2.23114e-05 
-7.53526 -2.64028 -0.00011364 
-7.23453 -2.61781 -4.95519e-05 
-6.98341 -2.55818 -9.03413e-06 
-6.78369 -2.59901 -2.14117e-05 
-6.54037 -2.5828 -1.19615e-05 
-6.33573 -2.55398 1.10177e-05 
-6.11376 -2.59197 6.33266e-06 
-5.89376 -2.58393 -1.97921e-06 
-5.68252 -2.5689 -3.85154e-06 
-5.46539 -2.58431 -1.55148e-06 
-5.24793 -2.5774 -1.67495e-06 
-5.02798 -2.58645 2.65096e-06 
-4.81844 -2.57238 -8.33344e-07 
-4.60008 -2.58968 6.82702e-06 
-4.3823 -2.58475 5.20651e-06 
-4.16408 -2.58497 1.19159e-06 
-3.95298 -2.57265 3.81608e-06 
-3.73875 -2.57846 9.66913e-06 
-3.52548 -2.57358 1.20769e-05 
-3.30511 -2.58918 2.09241e-05 
-3.09101 -2.581 1.2626e-05 
-2.87637 -2.59061 2.06345e-05 
-2.67364 -2.5805 -3.45429e-06 
-2.46621 -2.60245 1.75084e-05 
-2.24898 -2.60668 4.40973e-05 
-2.03919 -2.60396 2.39659e-05 
-1.83125 -2.59386 2.12977e-06 
-1.62445 -2.59092 -4.0552e-06 
-1.41055 -2.59035 5.61637e-05 
-1.22298 -2.55245 -7.60294e-05 
-0.988731 -2.63095 -1.99037e-05 
-0.769389 -2.58042 -5.22161e-06 
-0.583036 -2.4828 -0.00012925 
-0.398791 -2.5116 -0.00036177 
-0.195985 -2.58296 4.64354e-05 
-0.00314601 -2.47011 2.63813e-06 
0.190204 -2.4868 0.000226245 
0.387004 -2.52236 -7.14908e-05 
0.604514 -2.55986 0.000121013 
0.828909 -2.60098 4.40463e-05 
1.05982 -2.58304 8.07696e-05 
1.26999 -2.57765 4.95765e-05 
1.50766 -2.64506 -0.000148819 
1.71339 -2.58549 8.62727e-05 
1.92994 -2.61453 -8.96593e-05 
2.15552 -2.6234 -8.53138e-05 
2.35774 -2.56968 2.94969e-05 
2.56992 -2.6148 -5.06607e-05 
2.79492 -2.59416 -3.36955e-05 
3.00834 -2.5876 -8.9227e-06 
3.21831 -2.57549 -1.07978e-05 
3.44087 -2.59184 -2.09674e-05 
3.64935 -2.56491 -7.25325e-06 
3.86524 -2.58158 -8.63669e-06 
4.09427 -2.59573 -6.82714e-06 
4.30353 -2.56191 -1.53445e-06 
4.51663 -2.58264 -5.9288e-06 
4.73106 -2.58074 -3.89181e-06 
4.94194 -2.57189 3.24858e-06 
5.15659 -2.59072 1.10552e-06 
5.37528 -2.5812 -2.62395e-06 
5.5859 -2.57165 3.51416e-07 
5.80233 -2.58861 7.92806e-06 
6.02746 -2.5877 5.13307e-06 
6.23999 -2.55849 -9.48422e-06 
6.46033 -2.60547 1.57985e-05 
6.68821 -2.56666 1.35184e-06 
6.89524 -2.55309 -8.15185e-06 
7.11811 -2.61803 4.11014e-05 
7.36269 -2.58699 4.78727e-06 
7.59793 -2.59409 -1.50511e-06 
7.85054 -2.61502 7.49367e-06 
8.06399 -2.5229 2.41407e-05 
8.29036 -2.63751 -4.25421e-06 
8.47948 -2.51925 -4.14386e-05 
-8.47936 -2.35814 2.89102e-05 
-8.20887 -2.34829 -7.40731e-06 
-7.95038 -2.3027 4.12641e-06 
-7.71716 -2.41629 7.29327e-05 
-7.55983 -2.24605 2.17794e-05 
-7.4307 -2.45226 8.91649e-05 
-7.1646 -2.39002 3.30968e-05 
-6.93827 -2.30078 -2.15051e-06 
-6.71168 -2.38076 4.3694e-06 
-6.48727 -2.33027 2.41115e-06 
-6.23532 -2.33875 -2.59017e-06 
-6.02072 -2.34967 -2.36669e-06 
-5.80306 -2.33571 -5.41249e-06 
-5.5743 -2.33562 1.44223e-06 
-5.35944 -2.34066 2.62531e-06 
-5.13495 -2.3449 4.0812e-07 
-4.92565 -2.33273 1.48881e-06 
-4.70308 -2.34818 3.83702e-06 
-4.48671 -2.35169 2.88797e-06 
-4.26568 -2.34954 -1.54232e-07 
-4.05178 -2.33203 9.64502e-07 
-3.83447 -2.33162 8.47604e-06 
-3.62126 -2.32961 4.91378e-06 
-3.39944 -2.34588 2.62105e-06 
-3.18668 -2.34451 1.3979e-06 
-2.96879 -2.35373 5.6074e-06 
-2.76191 -2.34543 1.89051e-05 
-2.54999 -2.36282 1.49815e-05 
-2.34164 -2.39045 -5.07733e-06 
-2.12337 -2.37854 -2.91522e-06 
-1.91189 -2.37376 -7.37591e-06 
-1.69308 -2.36026 5.75976e-06 
-1.47318 -2.36181 -4.15577e-05 
-1.26221 -2.2806 5.65595e-05 
-1.04937 -2.39803 -8.24263e-05 
-0.836289 -2.33843 -4.40854e-05 
-0.616227 -2.22647 -4.09807e-05 
-0.38621 -2.15715 -5.40065e-05 
-0.201179 -2.26987 -2.91378e-05 
0.0225809 -2.1031 -7.20919e-05 
0.229364 -2.16053 0.000175515 
0.439904 -2.21052 -0.000279415 
0.63249 -2.27883 0.000154241 
0.836838 -2.3546 0.000140732 
1.05546 -2.34072 7.87305e-05 
1.26624 -2.33241 6.02376e-05 
1.47232 -2.43376 4.01329e-05 
1.65149 -2.34969 2.15843e-06 
1.86609 -2.39426 1.92656e-05 
2.08598 -2.40668 1.84288e-05 
2.302 -2.3561 -2.38623e-06 
2.52968 -2.36966 -1.54091e-06 
2.7263 -2.38385 2.0751e-06 
2.95418 -2.35037 -6.58161e-06 
3.15394 -2.3338 -4.45536e-06 
3.37102 -2.35329 -2.07997e-06 
3.57676 -2.32138 -6.72852e-06 
3.79046 -2.33244 -5.78038e-06 
4.00903 -2.36189 6.1518e-07 
4.21827 -2.32576 -1.3726e-06 
4.4411 -2.33322 -1.98179e-06 
4.65041 -2.33967 -3.48588e-06 
4.86139 -2.33354 -3.66616e-06 
5.08113 -2.34389 2.86762e-06 
5.29037 -2.35123 1.7612e-06 
5.50748 -2.33008 -4.09372e-06 
5.72615 -2.34279 -2.35385e-06 
5.94241 -2.35611 6.3256e-06 
6.1575 -2.32312 4.83784e-06 
6.39241 -2.34964 -1.2533e-05 
6.60039 -2.34679 -4.49629e-06 
6.82718 -2.29637 2.08966e-05 
7.05397 -2.35855 -9.36241e-07 
7.2686 -2.38371 -3.00857e-05 
7.52619 -2.36044 -6.05888e-05 
7.76863 -2.39006 -8.19104e-05 
7.98596 -2.29767 1.00524e-05 
8.25302 -2.36352 -7.05806e-05 
8.48044 -2.26993 2.79348e-05 
-8.47834 -2.10568 1.39483e-05 
-8.25319 -2.13713 2.49013e-05 
-8.04972 -2.05751 -0.000105737 
-7.78483 -2.13446 2.8837e-06 
-7.51073 -2.02894 -1.12117e-05 
-7.3077 -2.22114 -1.19664e-05 
-7.07759 -2.11382 -4.30042e-05 
-6.79141 -2.1178 -3.18806e-05 
-6.59268 -2.11695 -2.32112e-05 
-6.34583 -2.12851 -2.05051e-05 
-6.1148 -2.0954 -1.862e-05 
-5.91328 -2.10274 -1.12784e-05 
-5.69046 -2.10871 -9.96799e-06 
-5.46835 -2.09378 -8.72582e-06 
-5.25194 -2.11247 -7.80943e-06 
-5.04143 -2.09466 -1.85312e-06 
-4.81978 -2.11132 3.68485e-07 
-4.60391 -2.11574 5.74751e-06 
-4.38667 -2.11917 2.86941e-06 
-4.17541 -2.10233 1.13315e-05 
-3.95801 -2.09332 1.03231e-05 
-3.74562 -2.08839 1.78283e-05 
-3.5254 -2.10417 2.56132e-05 
-3.31468 -2.10616 3.21136e-05 
-3.09988 -2.11753 3.90819e-05 
-2.89425 -2.11496 4.71163e-05 
-2.68169 -2.12267 5.84007e-05 
-2.47333 -2.14046 7.72599e-05 
-2.26663 -2.16808 9.55742e-05 
-2.04397 -2.14616 9.02096e-05 
-1.82397 -2.14566 8.49522e-05 
-1.59126 -2.1334 7.51638e-05 
-1.37875 -2.0849 -7.99569e-05 
-1.1687 -1.95914 0.000244132 
-1.0521 -2.15114 -0.000161831 
-0.829353 -2.08413 -3.51862e-05 
-0.605125 -1.94992 -0.000174267 
-0.368845 -1.86399 -0.000110173 
-0.146263 -1.93824 0.000208874 
0.0160596 -1.64488 -0.000298988 
0.172084 -1.78004 0.000290087 
0.347156 -1.82696 -0.000196675 
0.552577 -1.91253 0.000434731 
0.758048 -2.02647 8.2403e-05 
0.955828 -2.08115 -8.55097e-05 
1.16807 -2.08469 -1.07485e-05 
1.43016 -2.17948 -4.28412e-05 
1.67376 -2.13363 -8.2269e-05 
1.89533 -2.17617 -9.21977e-05 
2.11762 -2.17965 -7.30061e-05 
2.36503 -2.14636 -0.000106956 
2.56891 -2.12038 -3.49657e-05 
2.78566 -2.16786 -6.61596e-05 
2.98272 -2.09325 -5.07755e-05 
3.20445 -2.10986 -3.88471e-05 
3.40749 -2.10281 -2.71358e-05 
3.62235 -2.08337 -2.18959e-05 
3.8415 -2.10557 -1.7954e-05 
4.04411 -2.11044 -9.55785e-06 
4.27377 -2.09892 -7.59396e-06 
4.48597 -2.09199 -4.68281e-06 
4.69666 -2.09764 -2.33107e-06 
4.91737 -2.10675 4.15838e-07 
5.12841 -2.10226 1.70444e-06 
5.33929 -2.11377 6.69354e-06 
5.56424 -2.09995 1.08537e-05 
5.78057 -2.10875 8.86541e-06 
5.99036 -2.10943 1.42808e-05 
6.23422 -2.11028 2.41131e-05 
6.44296 -2.09454 2.54954e-05 
6.65693 -2.10033 2.5194e-05 
6.9163 -2.08664 3.26204e-05 
7.12813 -2.12186 4.36435e-05 
7.35443 -2.16908 1.62973e-05 
7.54558 -2.07233 1.67654e-05 
7.72904 -2.15848 1.96909e-06 
7.94762 -2.06309 5.43832e-05 
8.19829 -2.13953 9.56771e-05 
8.48124 -2.07 -7.59017e-05 
-8.47768 -1.78799 -3.66864e-05 
-8.30158 -1.8776 0.000163072 
-7.88115 -1.89527 -5.86114e-05 
[...]
POINT_DATA 1978 
VECTORS vectors float
0.0911828 -0.125335 0.987948 
0.0946248 -0.117558 0.988703 
0.0920221 -0.121114 0.988727 
0.0817817 -0.108107 0.990973 
0.0812827 -0.0843844 0.993309 
0.0882947 -0.0646042 0.994212 
0.0909519 -0.0515702 0.994735 
0.0903865 -0.0405331 0.995284 
0.0931424 -0.0322856 0.995195 
0.0959314 -0.0222538 0.995341 
0.0948256 -0.013951 0.995587 
0.0948161 -0.0095064 0.995624 
0.0965053 -0.00614558 0.995494 
0.0971953 -0.00261497 0.995435 
0.0977204 -0.000725552 0.995381 
0.0975606 0.00045234 0.995393 
0.0979578 0.00249692 0.995352 
0.097464 0.00490852 0.99539 
0.0967258 0.00748161 0.995444 
0.0963684 0.010445 0.995458 
0.0962989 0.0147053 0.995422 
0.0955209 0.0199523 0.995415 
0.0943545 0.0267777 0.995374 
0.0922203 0.0348994 0.995326 
0.0906231 0.0458841 0.995034 
0.0887295 0.0599489 0.994465 
0.0862587 0.0790264 0.993357 
0.0826953 0.102367 0.991531 
0.0772676 0.134048 0.988194 
0.0715585 0.174786 0.982255 
0.0649457 0.22597 0.972249 
0.0576122 0.287264 0.95642 
0.0477716 0.363965 0.930501 
0.0359974 0.458793 0.888134 
0.0273391 0.550072 0.834977 
0.0151428 0.686919 0.726782 
0.00553429 0.810825 0.585438 
0.00295837 0.893084 0.450261 
-0.000170136 0.975312 0.220114 
-0.00125571 0.99943 -0.0343032 
-0.000620558 0.971577 -0.236608 
-0.00312245 0.90449 -0.42626 
-0.00637805 0.812629 -0.583213 
-0.0156557 0.679597 -0.733664 
-0.0261224 0.567253 -0.823231 
-0.0365943 0.463167 -0.885831 
-0.0456959 0.37684 -0.925434 
-0.0571952 0.288441 -0.956067 
-0.063494 0.231074 -0.971145 
-0.0694514 0.178172 -0.981788 
-0.0776805 0.133374 -0.988264 
-0.0813992 0.104189 -0.991453 
-0.084688 0.0778265 -0.993578 
-0.0885473 0.0593299 -0.994513 
-0.0913222 0.0444824 -0.995036 
-0.0924315 0.0340398 -0.995334 
-0.0945105 0.0259484 -0.995377 
-0.0958122 0.0194832 -0.995398 
-0.0953123 0.0148044 -0.995508 
-0.0969452 0.0115562 -0.995395 
-0.097846 0.00806883 -0.995343 
-0.0975022 0.00532339 -0.995384 
-0.0981401 0.00315728 -0.995335 
-0.0976365 0.000574247 -0.995384 
-0.0971408 -0.00132023 -0.99543 
-0.0976939 -0.00389851 -0.995379 
-0.0967856 -0.00743924 -0.995447 
-0.0954234 -0.0103513 -0.995554 
-0.0954654 -0.0157531 -0.995499 
-0.0937023 -0.0225309 -0.995533 
-0.0927127 -0.0297549 -0.995441 
-0.0939638 -0.0388899 -0.995039 
-0.0895379 -0.0500013 -0.994934 
-0.0861033 -0.0655637 -0.994337 
-0.0846433 -0.0856497 -0.992962 
-0.081775 -0.111236 -0.990653 
-0.0918825 -0.134876 -0.98682 
-0.0940778 -0.128702 -0.987504 
-0.0903083 -0.123984 -0.988125 
0.0675266 -0.123934 0.990038 
0.0759754 -0.119024 0.991048 
0.0728585 -0.106985 0.992388 
0.0764207 -0.102964 0.992594 
0.0817843 -0.0883515 0.993575 
0.0820658 -0.067415 0.995221 
0.0805347 -0.0506752 0.99637 
0.083495 -0.0401084 0.996561 
0.0840724 -0.0303213 0.996963 
0.0808411 -0.0221634 0.997343 
0.0857056 -0.015369 0.997021 
0.0876933 -0.0109353 0.996913 
0.0869161 -0.00656443 0.997024 
0.0887714 -0.00304517 0.996868 
0.0888549 -0.000853352 0.996869 
0.0894369 0.0010334 0.996806 
0.0884513 0.0030751 0.996892 
0.0895507 0.00560802 0.996776 
0.0886215 0.00858715 0.996849 
0.0874342 0.0123541 0.996924 
0.0856178 0.0169226 0.997025 
0.084981 0.022533 0.99697 
0.0836768 0.0296065 0.996901 
0.083191 0.0390161 0.996614 
0.0801937 0.0512392 0.996313 
0.0776794 0.0672197 0.995555 
0.073295 0.0872012 0.994338 
0.0704462 0.113107 0.991933 
0.0657542 0.148462 0.987598 
0.0588799 0.192511 0.980419 
0.0509639 0.247727 0.968407 
0.0427388 0.31352 0.949564 
0.0339743 0.397533 0.917925 
0.0244926 0.487972 0.873438 
0.0176601 0.60861 0.794142 
0.00927816 0.730479 0.683468 
0.00369874 0.828921 0.560269 
0.000834833 0.913878 0.405936 
-0.000463787 0.97856 0.206167 
-0.00291379 0.999742 3.99627e-05 
-0.00407685 0.978437 -0.207072 
-0.00549261 0.918213 -0.396761 
-0.00814605 0.819063 -0.574027 
-0.0135825 0.695484 -0.719016 
-0.0206539 0.56837 -0.823586 
-0.0288023 0.461023 -0.888005 
-0.0424828 0.356673 -0.934004 
-0.0460768 0.284908 -0.958492 
-0.0569361 0.219869 -0.974747 
-0.0645232 0.167115 -0.984569 
-0.0662202 0.131108 -0.99017 
-0.0743091 0.0995905 -0.993106 
-0.0771197 0.0750853 -0.995048 
-0.0790566 0.0574446 -0.996066 
-0.0810241 0.0437622 -0.996603 
-0.0841227 0.0328225 -0.996752 
-0.0839162 0.0255 -0.996991 
-0.0862416 0.0192207 -0.996928 
-0.0882993 0.0141853 -0.996821 
-0.0867028 0.0105805 -0.997013 
-0.0884212 0.00727109 -0.996874 
-0.088746 0.00455824 -0.996854 
-0.0880245 0.00208814 -0.996933 
-0.0894087 -0.000367145 -0.996805 
-0.0884244 -0.00292456 -0.996891 
-0.0874274 -0.00590293 -0.996969 
-0.0882015 -0.00937783 -0.996876 
-0.0868167 -0.0138353 -0.996963 
-0.0839252 -0.0194932 -0.997141 
-0.0864978 -0.0262767 -0.996755 
-0.0819274 -0.0348474 -0.996904 
-0.079844 -0.044641 -0.9967 
-0.0838277 -0.0577346 -0.995682 
-0.0784431 -0.0760709 -0.994914 
-0.0773773 -0.0960102 -0.993268 
-0.0785109 -0.113932 -0.991122 
-0.0748028 -0.11226 -0.991916 
-0.0855755 -0.13115 -0.98851 
-0.0690128 -0.122421 -0.990331 
0.0572723 -0.123794 0.990967 
0.0626742 -0.106438 0.993246 
0.0641535 -0.0990349 0.993924 
0.0694865 -0.0987138 0.993539 
0.0685308 -0.0907995 0.994154 
0.0727793 -0.0807932 0.994987 
0.0739513 -0.0628192 0.9961 
0.0767341 -0.049373 0.996589 
0.0787056 -0.0373882 0.996966 
0.0803536 -0.0281921 0.997097 
0.0822931 -0.0200375 0.99711 
0.0842763 -0.0146016 0.997052 
0.0851018 -0.00966495 0.997022 
0.0863382 -0.00556739 0.996944 
0.0870377 -0.00272377 0.99689 
0.0875803 -0.000274799 0.996841 
0.0881947 0.00185364 0.996773 
0.0877971 0.00445459 0.996803 
0.0871585 0.00743462 0.99685 
0.086191 0.0112372 0.996907 
0.0851837 0.0157656 0.996935 
0.0837595 0.0212192 0.996964 
0.082064 0.0278185 0.99695 
0.0798311 0.0364823 0.996865 
0.0774905 0.0475832 0.996586 
0.0748124 0.0624313 0.995977 
0.0717441 0.0811395 0.994855 
0.0675122 0.105618 0.992868 
0.0623648 0.136257 0.989499 
0.0557177 0.178467 0.983198 
0.0484529 0.230336 0.972766 
0.0400304 0.296686 0.955037 
0.0312698 0.37837 0.926064 
0.0222894 0.475794 0.880207 
0.0152339 0.581797 0.813913 
0.00819966 0.695751 0.71926 
0.00189724 0.816372 0.577978 
-0.00224819 0.921369 0.389414 
-0.00243107 0.977413 0.211203 
-0.00504761 0.999374 -0.031913 
-0.00595703 0.969207 -0.246267 
-0.00819699 0.895411 -0.445276 
-0.00994824 0.804762 -0.594289 
-0.013172 0.693446 -0.721466 
-0.018841 0.573308 -0.820037 
-0.0254151 0.468376 -0.88391 
-0.0338786 0.376325 -0.926759 
-0.0389872 0.311535 -0.950317 
-0.0471212 0.242387 -0.969754 
-0.0549255 0.185876 -0.98202 
-0.0606306 0.14503 -0.988234 
-0.0663504 0.109146 -0.992595 
-0.0704472 0.0848609 -0.994664 
-0.074421 0.0641824 -0.995894 
-0.0772805 0.0500123 -0.996479 
-0.079884 0.0379519 -0.996802 
-0.0818959 0.0296241 -0.996901 
-0.0834226 0.0226416 -0.996956 
-0.0846752 0.0169532 -0.996974 
-0.0861687 0.0127165 -0.996886 
-0.0873142 0.00874719 -0.99682 
-0.088089 0.00557766 -0.996774 
-0.0883115 0.00280899 -0.996755 
-0.0879146 0.000175239 -0.996801 
-0.0874957 -0.00241503 -0.996839 
-0.0871613 -0.00549945 -0.99685 
-0.0860276 -0.00900641 -0.996936 
-0.0846848 -0.0130958 -0.997026 
-0.0832819 -0.0180861 -0.997064 
-0.0814068 -0.0246179 -0.997107 
-0.0801341 -0.0320749 -0.997014 
-0.0788915 -0.0422761 -0.99673 
-0.0756848 -0.0546155 -0.996417 
-0.0733805 -0.0695139 -0.995685 
-0.0706038 -0.089528 -0.994404 
-0.0700175 -0.105131 -0.992783 
-0.0676842 -0.103385 -0.9931 
-0.0677414 -0.115159 -0.992049 
-0.066596 -0.123225 -0.990309 
0.0481695 -0.114718 0.992389 
0.0550406 -0.109411 0.993452 
0.0601987 -0.0980169 0.994239 
0.067102 -0.100196 0.993558 
0.0689204 -0.0887204 0.994434 
0.0727112 -0.073259 0.995426 
0.0762912 -0.0581221 0.996269 
0.0797775 -0.0422507 0.996646 
0.0814118 -0.0331505 0.996842 
0.0835439 -0.0240394 0.996908 
0.0849597 -0.0177703 0.99692 
0.085552 -0.0130893 0.996933 
0.0870009 -0.00868795 0.99685 
0.0877838 -0.00516506 0.996803 
0.0888692 -0.00220075 0.996708 
0.0891721 0.000239186 0.996678 
0.0897143 0.00294065 0.996624 
0.0895699 0.00597195 0.996624 
0.088737 0.00965652 0.996677 
0.0871708 0.0139739 0.996771 
0.0854431 0.0191742 0.996844 
0.0836312 0.0252655 0.996867 
0.0817251 0.0330111 0.996804 
0.0793873 0.0426988 0.996629 
0.076767 0.0555098 0.996211 
0.0737076 0.0716476 0.99542 
0.070145 0.0930035 0.993929 
0.0657636 0.119637 0.991404 
0.0602038 0.153149 0.987173 
0.0522088 0.200561 0.979154 
0.0437885 0.259845 0.965561 
0.0341466 0.338771 0.941202 
0.0240576 0.42842 0.90445 
0.015106 0.527566 0.850146 
0.012642 0.587308 0.810404 
0.00549027 0.707923 0.70712 
-0.000993942 0.822281 0.569831 
-0.00368029 0.92727 0.374441 
-0.00474747 0.988828 0.149077 
-0.00399964 0.999483 -0.0267603 
-0.00470079 0.981936 -0.188823 
-0.00578718 0.933805 -0.358293 
-0.00704853 0.845708 -0.534678 
-0.0109716 0.738262 -0.675362 
-0.0152458 0.630215 -0.777015 
-0.0207931 0.518526 -0.855982 
-0.0304323 0.399766 -0.91705 
-0.0390439 0.309594 -0.951012 
-0.0475205 0.237914 -0.971144 
-0.0551242 0.183308 -0.982343 
-0.0626936 0.137032 -0.989382 
-0.0666722 0.108328 -0.992651 
-0.0725952 0.0817231 -0.994736 
-0.0745719 0.06453 -0.995852 
-0.0781839 0.0489581 -0.996445 
-0.0806076 0.038273 -0.996706 
-0.0826663 0.0295252 -0.996828 
-0.0849444 0.0224374 -0.996814 
-0.0862661 0.0172252 -0.996802 
-0.0877386 0.0123364 -0.996742 
-0.0886481 0.00841501 -0.996699 
-0.0892786 0.00494743 -0.996662 
-0.0897296 0.00184083 -0.996625 
-0.0892427 -0.000879394 -0.996672 
-0.0889438 -0.00370355 -0.996693 
-0.088129 -0.00721127 -0.996753 
-0.0869983 -0.0109928 -0.996824 
-0.0855477 -0.0151539 -0.996902 
-0.0841868 -0.0207958 -0.996929 
-0.0820873 -0.0270803 -0.996973 
-0.0805786 -0.0352424 -0.996855 
-0.0781884 -0.0477625 -0.996534 
-0.076177 -0.0607464 -0.99599 
-0.0743385 -0.0772621 -0.994869 
-0.0711188 -0.0917512 -0.994 
-0.0703481 -0.101973 -0.993025 
-0.0660108 -0.102357 -0.993298 
-0.0623728 -0.102849 -0.993739 
-0.0521345 -0.121885 -0.991363 
0.0385456 -0.112991 0.992966 
0.0453666 -0.120553 0.992617 
0.0587453 -0.0999251 0.99388 
0.0617943 -0.098256 0.994002 
0.0590329 -0.0839363 0.995637 
0.0707651 -0.0726873 0.995502 
0.0648475 -0.0627957 0.996699 
0.0725797 -0.0498217 0.996877 
0.0706388 -0.0387714 0.997497 
0.0753576 -0.0294989 0.997453 
0.0757129 -0.0223763 0.997597 
0.0736977 -0.0171589 0.997854 
0.0769918 -0.0124344 0.997665 
0.0781353 -0.00827565 0.997613 
0.0785732 -0.00461209 0.997596 
0.0790969 -0.00179463 0.997556 
0.080054 0.00121121 0.99748 
0.0802939 0.00439353 0.997454 
0.0801429 0.00811787 0.997445 
0.0783751 0.0123514 0.997547 
0.0766912 0.017258 0.997607 
0.0744577 0.0229225 0.997664 
0.0732936 0.0298219 0.997569 
0.0712454 0.038253 0.997432 
0.0692825 0.0492062 0.997096 
0.0664393 0.063041 0.996521 
0.0634687 0.0809047 0.995443 
0.0596453 0.10369 0.993598 
0.0554914 0.132844 0.990404 
0.0506307 0.171147 0.98482 
0.0414433 0.227762 0.97378 
0.0339845 0.291443 0.956793 
0.0250468 0.369175 0.930037 
0.0140555 0.470636 0.883241 
0.00488279 0.659263 0.752553 
-0.000776198 0.770946 0.637729 
-0.00186518 0.884715 0.467018 
4.93651e-05 0.936308 0.351597 
-0.00215922 0.980091 0.198125 
-0.000776427 0.99979 0.0166251 
-0.00149225 0.981014 -0.195086 
-0.00287065 0.919128 -0.393753 
-0.00305151 0.831615 -0.556137 
-0.00698072 0.710147 -0.704965 
-0.0119951 0.591126 -0.807767 
-0.0176532 0.488635 -0.873158 
-0.0259201 0.416354 -0.909841 
-0.0295094 0.345969 -0.938611 
-0.0373566 0.272251 -0.962469 
-0.0460319 0.210622 -0.977374 
-0.0534733 0.159094 -0.986675 
-0.055664 0.123018 -0.991665 
-0.06346 0.0923461 -0.994474 
-0.0638024 0.0746011 -0.995921 
-0.0680181 0.0564079 -0.996822 
-0.069689 0.0437918 -0.997326 
-0.071865 0.0342303 -0.997538 
-0.074697 0.0260188 -0.99757 
-0.0756967 0.0200861 -0.99763 
-0.0783871 0.0149442 -0.997512 
-0.0778595 0.0103184 -0.997614 
-0.0786816 0.0062742 -0.997579 
-0.0799553 0.00268054 -0.997491 
-0.0792755 -0.000385939 -0.997545 
-0.0791094 -0.00339157 -0.997553 
-0.0791561 -0.00662315 -0.997536 
-0.0776116 -0.0107644 -0.997627 
-0.0762046 -0.0149927 -0.997686 
-0.0766676 -0.0196618 -0.997578 
-0.0724057 -0.025992 -0.997769 
-0.0710887 -0.0336678 -0.997651 
-0.0714337 -0.0436314 -0.997249 
-0.0675174 -0.0583322 -0.996901 
-0.0683579 -0.0735529 -0.995723 
-0.0623602 -0.0911447 -0.994667 
-0.0613064 -0.103464 -0.993488 
-0.0545705 -0.101172 -0.994171 
-0.0525189 -0.105977 -0.993993 
-0.0398759 -0.120268 -0.992122 
0.0303279 -0.122905 0.99213 
0.0351382 -0.114337 0.993834 
0.0476222 -0.0991628 0.994912 
0.0474803 -0.103517 0.994239 
0.0499852 -0.099856 0.994406 
0.052125 -0.0749698 0.996598 
0.0553699 -0.0557984 0.997663 
0.0585085 -0.0453787 0.998007 
0.0596693 -0.0333929 0.998402 
0.0616731 -0.0263498 0.998477 
0.0607247 -0.0208734 0.998653 
0.0611491 -0.0153316 0.998724 
0.0640347 -0.0110282 0.99859 
0.065084 -0.00694171 0.998552 
0.0638847 -0.00365069 0.99864 
0.0662329 -0.000521715 0.998492 
0.0662072 0.00286139 0.998492 
0.066073 0.00678477 0.998486 
0.0645223 0.0110827 0.99855 
0.0631667 0.0159646 0.998572 
0.0615108 0.0213583 0.998571 
0.0604111 0.0279946 0.998474 
0.0584841 0.0360317 0.998332 
0.0569445 0.0463427 0.998002 
0.0545253 0.0594075 0.997454 
0.0521336 0.076101 0.996469 
0.0488693 0.0973756 0.994817 
0.0448381 0.125602 0.991894 
0.0408509 0.162526 0.986751 
0.0354875 0.211714 0.977653 
0.0253869 0.290049 0.95789 
0.0166018 0.381569 0.925252 
0.00736046 0.502264 0.865727 
0.00181976 0.624782 0.78177 
0.00520027 0.589244 0.809138 
0.00112618 0.714585 0.701003 
5.89859e-05 0.803962 0.594687 
-0.000925449 0.885216 0.465659 
-0.00119674 0.987008 0.160376 
-0.00111527 0.999445 0.0259474 
-0.00211151 0.992587 -0.121379 
-0.00192747 0.947987 -0.318269 
-0.00131257 0.844215 -0.537448 
-0.00137716 0.75052 -0.661674 
-0.00356754 0.634696 -0.773825 
-0.00863891 0.516319 -0.857407 
-0.0182838 0.406866 -0.914353 
-0.0225574 0.32265 -0.947486 
-0.0309197 0.252686 -0.968027 
-0.0392622 0.196963 -0.980376 
-0.0433956 0.152357 -0.988231 
-0.0495783 0.107976 -0.993708 
-0.0490348 0.0882202 -0.995655 
-0.0535766 0.0677912 -0.996993 
-0.0554939 0.0529718 -0.997764 
-0.0564867 0.0417563 -0.998228 
-0.0601814 0.0321367 -0.998362 
-0.0608585 0.0252015 -0.998519 
-0.0623285 0.0192011 -0.998564 
-0.0648954 0.0140947 -0.99849 
-0.0638147 0.00924813 -0.998618 
-0.0651528 0.00487961 -0.998558 
-0.0652618 0.00127697 -0.998562 
-0.0651255 -0.00201664 -0.998564 
-0.0643549 -0.00516745 -0.998606 
-0.0651744 -0.00872742 -0.998531 
-0.0628258 -0.0130827 -0.998639 
-0.062466 -0.0177155 -0.998596 
-0.0618444 -0.0224391 -0.998551 
-0.0575424 -0.0292345 -0.99865 
-0.0572371 -0.0378626 -0.998393 
-0.0588904 -0.0491205 -0.997689 
-0.0526407 -0.0619996 -0.997451 
-0.055632 -0.0751764 -0.996402 
-0.0497014 -0.0930189 -0.995207 
-0.049713 -0.104892 -0.99399 
-0.0430731 -0.102394 -0.994595 
-0.0397145 -0.111546 -0.993995 
-0.0297399 -0.12254 -0.992192 
0.0215358 -0.126623 0.991902 
0.0261798 -0.108878 0.994758 
0.0379671 -0.101772 0.994906 
0.0370602 -0.106221 0.994527 
0.0429234 -0.092016 0.995619 
0.0378303 -0.0783569 0.99697 
0.0439447 -0.063545 0.997637 
0.0415474 -0.0494695 0.99877 
0.0477125 -0.0395462 0.9987 
0.0460639 -0.0308125 0.999188 
0.0470015 -0.0249776 0.999294 
0.0493189 -0.0192857 0.999295 
0.0484598 -0.0144388 0.999412 
0.0514579 -0.0101095 0.999307 
0.0515829 -0.00637159 0.999323 
0.0515554 -0.00283443 0.99934 
0.0531499 0.000473614 0.999261 
0.0528624 0.0043514 0.999269 
0.0516312 0.00860138 0.99931 
0.0506792 0.0133856 0.999304 
0.0493687 0.0185348 0.999283 
0.0488471 0.024341 0.99918 
0.0473337 0.0311175 0.999062 
0.0458936 0.0397621 0.998826 
0.0442929 0.0505851 0.998418 
0.0423259 0.0645524 0.997717 
0.0400047 0.0820039 0.996567 
0.0371014 0.104991 0.994575 
0.0331652 0.136148 0.991006 
0.0292121 0.177201 0.984691 
0.0246897 0.235257 0.972643 
0.0160131 0.319033 0.948685 
0.00874625 0.42281 0.907055 
0.00341813 0.53041 0.84878 
-0.000522407 0.729829 0.684193 
-0.00197744 0.860886 0.509884 
-0.000907233 0.94163 0.337532 
0.00459115 0.980653 0.194506 
-0.00210547 0.956645 0.291036 
0.00174433 0.98872 0.14935 
0.00289224 0.998971 -0.0372152 
-0.00141024 0.979092 -0.207965 
0.000395798 0.902837 -0.429257 
0.000252116 0.793695 -0.610178 
-7.19736e-05 0.724651 -0.69014 
-0.00179394 0.580834 -0.815187 
-0.00887471 0.431027 -0.903623 
-0.0149275 0.331836 -0.944127 
-0.0227654 0.24985 -0.969048 
-0.0301339 0.190561 -0.98245 
-0.0288667 0.15537 -0.988011 
-0.0378944 0.133246 -0.991194 
-0.0359778 0.108664 -0.994227 
-0.0395897 0.0831908 -0.996496 
-0.0427611 0.0638755 -0.997756 
-0.043741 0.0493988 -0.998515 
-0.0466635 0.0375588 -0.998887 
-0.0476318 0.0295518 -0.999107 
-0.0491241 0.0228448 -0.999208 
-0.0503857 0.0170687 -0.999266 
-0.0518401 0.0120756 -0.99927 
-0.0517741 0.00670207 -0.999325 
-0.0516698 0.00243677 -0.999348 
-0.0521481 -0.00125735 -0.99932 
-0.0512529 -0.00461 -0.999357 
-0.051546 -0.00824683 -0.999322 
-0.0504642 -0.0123002 -0.999339 
-0.0497458 -0.0171744 -0.999307 
-0.0481661 -0.0221987 -0.999295 
-0.0465154 -0.0277151 -0.999248 
-0.0442632 -0.0364885 -0.999207 
-0.0456305 -0.0476133 -0.998572 
-0.0411989 -0.0626825 -0.997942 
-0.0417104 -0.080394 -0.996667 
-0.0360858 -0.0973253 -0.995373 
-0.0379118 -0.107003 -0.994275 
-0.0315886 -0.105307 -0.994693 
-0.0303167 -0.106405 -0.994894 
-0.0204234 -0.125941 -0.99201 
0.0151899 -0.12598 0.992096 
0.0186992 -0.110852 0.994693 
0.0291683 -0.105018 0.99481 
0.0264961 -0.108658 0.994456 
0.0321505 -0.0982927 0.995407 
0.0288959 -0.080627 0.997094 
0.0327741 -0.061471 0.998318 
0.0309396 -0.0478033 0.999118 
0.0358144 -0.0378531 0.999374 
0.0334174 -0.0306844 0.999688 
0.036649 -0.0242391 0.999735 
0.0381685 -0.0190197 0.99978 
0.0372374 -0.0141165 0.999999 
0.0397402 -0.00976655 0.99984 
0.0408549 -0.00576163 0.999715 
0.0402398 -0.00218849 0.999969 
0.0416444 0.00159087 0.9997 
0.0403001 0.00593256 0.999848 
0.0394863 0.0109093 0.999841 
0.038741 0.0161576 0.999793 
0.038245 0.0219364 0.999802 
0.0372341 0.0283613 0.999568 
0.036046 0.0362896 0.999355 
0.0346635 0.0463194 0.998995 
0.0333209 0.0590714 0.998387 
0.0312242 0.0754784 0.997382 
0.0289196 0.0970927 0.995635 
0.0258464 0.126483 0.99249 
0.0219286 0.168266 0.986451 
0.0187139 0.223755 0.975316 
0.012986 0.296213 0.956109 
0.00620667 0.406087 0.915116 
0.00202311 0.514868 0.858358 
-0.00134392 0.645293 0.764717 
0.000323666 0.644905 0.765345 
-0.00135561 0.876019 0.482875 
0.00404145 0.942334 0.334455 
0.0102147 0.998318 0.0554223 
0.00370335 1.00032 0.01605 
0.00814564 0.999006 0.0256386 
0.00628942 1 -0.0147139 
0.00187834 0.995965 -0.090466 
-0.0016651 0.958812 -0.282792 
-0.00164058 0.890643 -0.454824 
4.48679e-05 0.617733 -0.787513 
0.00176379 0.574788 -0.819178 
-0.00174794 0.496765 -0.869009 
-0.0057775 0.395519 -0.919562 
-0.0124256 0.29413 -0.956773 
-0.0185232 0.221546 -0.976002 
-0.020623 0.176976 -0.98491 
-0.0260581 0.12505 -0.992763 
-0.0293649 0.093663 -0.996055 
-0.0317812 0.0730963 -0.997422 
-0.0331581 0.0573526 -0.998489 
-0.0353911 0.0440762 -0.999074 
-0.0360767 0.0348285 -0.999405 
-0.0375065 0.0271552 -0.99959 
-0.0387895 0.0208892 -0.999696 
-0.0390302 0.0154895 -0.999899 
-0.0413647 0.010233 -0.999665 
-0.0399027 0.00514812 -0.999982 
-0.0404102 0.000575376 -0.999859 
-0.0401538 -0.00314181 -0.999866 
-0.0399499 -0.00668567 -0.999855 
-0.0390098 -0.0103901 -0.999867 
-0.039233 -0.0149008 -0.999803 
-0.0377216 -0.0197658 -0.999783 
-0.0355688 -0.0248985 -0.999757 
-0.0357319 -0.0313728 -0.99947 
-0.0323785 -0.0398792 -0.999411 
-0.0347726 -0.0491804 -0.998928 
-0.0301207 -0.061827 -0.998388 
-0.0319679 -0.0774467 -0.997258 
-0.0273445 -0.0953909 -0.995839 
-0.0268624 -0.108612 -0.994456 
-0.0224682 -0.106864 -0.994801 
-0.02139 -0.112362 -0.994472 
-0.0152283 -0.125988 -0.992087 
0.0122935 -0.12763 0.991752 
0.0135634 -0.112155 0.994698 
0.0200814 -0.107209 0.994799 
0.0189552 -0.11114 0.994349 
0.0234144 -0.0970585 0.995772 
0.0199155 -0.0804908 0.997312 
0.0240623 -0.0650425 0.99834 
0.0224389 -0.0509878 0.99918 
0.025077 -0.0387188 0.999663 
0.0245362 -0.0303535 1.00005 
0.0270108 -0.0244091 1.00003 