# vtk DataFile Version 3.0 
Exported using Morpho https://github.com/Morpho-lang/morpho 
ASCII 
DATASET UNSTRUCTURED_GRID 

POINTS 1978 float 
-8.48526 -2.82838 -2.98554e-07 
-8.26071 -2.82836 -2.82507e-08 
-8.03587 -2.82835 1.69047e-06 
-7.76273 -2.82838 1.42126e-06 
-7.46416 -2.82837 1.00699e-06 
-7.23338 -2.82838 8.08751e-07 
-6.98625 -2.82838 6.59459e-07 
-6.77789 -2.82839 4.10138e-07 
-6.56231 -2.82838 3.67666e-07 
-6.34319 -2.82838 3.23874e-07 
-6.15015 -2.82838 1.7736e-07 
-5.92858 -2.82838 1.21084e-07 
-5.71533 -2.82838 8.20113e-08 
-5.51057 -2.82838 3.44759e-08 
-5.29333 -2.82838 1.08222e-08 
-5.08163 -2.82838 -1.16044e-08 
-4.86408 -2.82838 -3.56288e-08 
-4.65782 -2.82838 -7.02382e-08 
-4.43802 -2.82838 -9.85712e-08 
-4.22108 -2.82838 -1.44988e-07 
-4.00284 -2.82838 -2.00053e-07 
-3.79246 -2.82838 -2.61363e-07 
-3.57636 -2.82838 -3.41106e-07 
-3.36331 -2.82838 -4.1277e-07 
-3.1407 -2.82838 -5.25193e-07 
-2.92869 -2.82839 -6.34502e-07 
-2.71671 -2.82839 -8.02819e-07 
-2.51927 -2.8284 -9.39705e-07 
-2.30645 -2.82839 -9.51321e-07 
-2.09516 -2.8284 -1.0743e-06 
-1.88809 -2.8284 -1.08122e-06 
-1.68337 -2.8284 -1.05556e-06 
-1.48123 -2.82842 -8.00096e-07 
-1.26853 -2.82841 -7.38614e-07 
-1.08959 -2.8284 -5.56315e-07 
-0.834228 -2.82843 -1.17423e-07 
-0.624194 -2.8284 -3.86011e-07 
-0.444433 -2.82837 3.58336e-07 
-0.209778 -2.82839 -1.35133e-06 
0.0278379 -2.82836 7.02237e-08 
0.220278 -2.82839 6.94964e-07 
0.415965 -2.82839 4.27071e-07 
0.629761 -2.8284 4.3837e-07 
0.848464 -2.82841 9.79435e-07 
1.05231 -2.82842 1.86284e-07 
1.25459 -2.82841 1.28302e-06 
1.442 -2.82841 1.09902e-07 
1.68596 -2.82841 1.12446e-06 
1.87814 -2.82841 1.2975e-06 
2.09227 -2.8284 7.9845e-07 
2.31225 -2.82839 1.17465e-06 
2.50665 -2.8284 8.85278e-07 
2.73548 -2.82838 7.05779e-07 
2.95242 -2.82839 6.57391e-07 
3.16969 -2.82838 5.60336e-07 
3.37553 -2.82838 3.73717e-07 
3.6003 -2.82838 3.27728e-07 
3.80403 -2.82838 2.73447e-07 
4.02029 -2.82838 1.77994e-07 
4.24759 -2.82838 1.58371e-07 
4.44674 -2.82838 1.16299e-07 
4.65904 -2.82838 7.33374e-08 
4.86796 -2.82838 4.27428e-08 
5.07161 -2.82838 1.2912e-08 
5.28832 -2.82838 -1.61985e-08 
5.49922 -2.82838 -6.02299e-08 
5.70389 -2.82838 -9.39348e-08 
5.9235 -2.82838 -1.29472e-07 
6.14422 -2.82838 -2.2803e-07 
6.34474 -2.82838 -2.74095e-07 
6.58493 -2.82838 -3.07974e-07 
6.79438 -2.82838 -5.6335e-07 
6.99402 -2.82838 -5.26362e-07 
7.25075 -2.82838 -6.78413e-07 
7.47849 -2.82838 -1.14959e-06 
7.71632 -2.82838 -1.07602e-06 
7.97992 -2.82838 -2.19915e-06 
8.16631 -2.82834 8.84582e-08 
8.48524 -2.82836 4.22437e-07 
-8.48524 -2.59777 3.47417e-07 
-8.24401 -2.57658 9.80978e-16 
-8.00689 -2.58004 -3.63546e-15 
-7.77047 -2.61787 1.03446e-15 
-7.51193 -2.64334 2.66429e-15 
-7.21903 -2.59915 -1.08685e-17 
-6.98437 -2.58228 -1.06078e-15 
-6.77059 -2.58241 -3.81962e-16 
-6.53686 -2.59544 -5.50352e-16 
-6.33429 -2.56081 -1.16912e-15 
-6.11151 -2.59751 -2.43671e-16 
-5.89323 -2.58496 -4.52183e-16 
-5.68192 -2.57252 -3.65343e-16 
-5.46443 -2.58762 -1.37045e-16 
-5.24881 -2.58153 -9.90191e-17 
-5.03005 -2.58873 8.60638e-18 
-4.82004 -2.57612 1.41379e-16 
-4.60118 -2.59192 1.58999e-16 
-4.38197 -2.58824 2.72919e-16 
-4.16324 -2.58815 3.58988e-16 
-3.95192 -2.57681 6.68725e-16 
-3.73885 -2.58205 6.51193e-16 
-3.52626 -2.58037 1.07558e-15 
-3.30812 -2.59354 7.6231e-16 
-3.09505 -2.58802 1.65363e-15 
-2.88211 -2.5938 1.38558e-15 
-2.68013 -2.58362 3.05028e-15 
-2.47061 -2.60501 1.79866e-15 
-2.25286 -2.60326 1.83672e-15 
-2.04425 -2.59846 2.43395e-15 
-1.83279 -2.59747 3.41002e-15 
-1.62041 -2.59103 2.67496e-15 
-1.41338 -2.59746 3.01425e-15 
-1.23033 -2.52591 1.60818e-15 
-1.00715 -2.63147 -3.84393e-15 
-0.782211 -2.58608 -3.17835e-15 
-0.587273 -2.5214 1.5543e-15 
-0.380344 -2.50274 -1.53847e-14 
-0.186314 -2.56489 3.64424e-15 
0.00268048 -2.45915 1.14308e-14 
0.194 -2.49804 -5.25888e-16 
0.397723 -2.51439 -1.93021e-15 
0.602802 -2.56241 -2.39165e-15 
0.829184 -2.5804 9.80947e-16 
1.05314 -2.57248 -1.30261e-16 
1.26023 -2.56789 -2.26932e-15 
1.50405 -2.64143 5.29548e-15 
1.71797 -2.59011 -6.95367e-15 
1.9364 -2.6147 -6.53757e-16 
2.16243 -2.61293 4.19068e-16 
2.37033 -2.58116 -5.60968e-15 
2.58116 -2.61178 -7.40664e-17 
2.8033 -2.59491 -1.4555e-15 
3.01816 -2.59673 -1.70508e-15 
3.22386 -2.57734 -1.51132e-15 
3.44254 -2.59661 -5.17579e-16 
3.64973 -2.57109 -1.22732e-15 
3.86403 -2.58591 -5.15536e-16 
4.09188 -2.59886 -1.78652e-16 
4.30066 -2.56682 -5.69492e-16 
4.51481 -2.58558 -1.75308e-16 
4.72873 -2.58243 -1.50185e-16 
4.94066 -2.57709 -6.96543e-17 
5.15557 -2.59233 5.14714e-17 
5.3743 -2.58522 1.14211e-16 
5.58539 -2.57625 2.99903e-16 
5.80212 -2.59189 2.48755e-16 
6.02689 -2.5908 2.81305e-16 
6.24016 -2.56375 1.04019e-15 
6.46043 -2.60704 -1.24371e-16 
6.68661 -2.57218 1.14504e-15 
6.89334 -2.55796 2.11418e-15 
7.11752 -2.61942 -1.04256e-15 
7.36411 -2.59015 1.12434e-15 
7.59883 -2.59846 -8.51782e-17 
7.85214 -2.61866 -2.4609e-15 
8.06431 -2.52592 4.34518e-15 
8.29231 -2.6435 -4.59194e-15 
8.48522 -2.52199 -2.39251e-07 
-8.48521 -2.36192 5.81331e-07 
-8.22354 -2.3464 -4.31593e-15 
-7.98252 -2.33278 -3.5354e-15 
-7.74554 -2.39429 -4.35713e-15 
-7.5535 -2.2447 -2.20722e-15 
-7.45015 -2.45383 -5.61184e-15 
-7.16935 -2.37949 -3.91587e-15 
-6.94304 -2.32932 -2.64041e-15 
-6.70155 -2.36803 -2.07829e-15 
-6.48795 -2.33699 -1.48881e-15 
-6.24026 -2.34594 -1.24253e-15 
-6.02732 -2.35357 -9.63683e-16 
-5.80839 -2.33461 -5.91751e-16 
-5.58027 -2.33969 -4.2339e-16 
-5.36501 -2.34412 -2.8125e-16 
-5.1406 -2.34854 -6.8427e-17 
-4.92774 -2.33594 1.19242e-16 
-4.70388 -2.34975 3.18402e-16 
-4.48554 -2.3544 5.27515e-16 
-4.26351 -2.35157 7.5543e-16 
-4.04953 -2.33538 9.4321e-16 
-3.83318 -2.33457 1.23272e-15 
-3.62044 -2.33663 1.63593e-15 
-3.40177 -2.35142 2.19354e-15 
-3.18964 -2.35169 2.7613e-15 
-2.97407 -2.35823 3.40088e-15 
-2.76704 -2.34665 3.80897e-15 
-2.55477 -2.36554 4.96592e-15 
-2.3451 -2.3881 6.64454e-15 
-2.12492 -2.36673 6.5593e-15 
-1.91317 -2.37002 7.14866e-15 
-1.69246 -2.3682 6.93804e-15 
-1.46966 -2.34946 2.84292e-15 
-1.25768 -2.279 5.0042e-15 
-1.02205 -2.39623 3.31639e-15 
-0.819463 -2.31979 1.75819e-15 
-0.596149 -2.24379 -5.07167e-15 
-0.386267 -2.17853 6.47419e-15 
-0.182408 -2.23251 -8.21222e-15 
0.0347217 -2.09233 -1.5443e-14 
0.229419 -2.14846 1.08847e-14 
0.420465 -2.19987 -9.27822e-16 
0.624463 -2.27174 4.07284e-15 
0.829067 -2.32913 2.15846e-15 
1.04696 -2.32401 1.05976e-15 
1.25529 -2.31979 -2.48185e-15 
1.465 -2.42714 -7.53659e-15 
1.64836 -2.34958 -5.50115e-15 
1.86511 -2.38858 -8.19115e-15 
2.08458 -2.40314 -7.95317e-15 
2.30578 -2.36056 -5.71593e-15 
2.53029 -2.36505 -5.10261e-15 
2.73036 -2.37963 -4.85421e-15 
2.96032 -2.36129 -3.51671e-15 
3.16136 -2.33627 -2.66018e-15 
3.37611 -2.35624 -2.30981e-15 
3.58108 -2.32764 -1.62894e-15 
3.79407 -2.33751 -1.34666e-15 
4.01047 -2.36489 -1.1492e-15 
4.21941 -2.32798 -7.08417e-16 
4.44053 -2.3375 -5.3693e-16 
4.65063 -2.3399 -3.42072e-16 
4.86255 -2.33724 -1.59344e-16 
5.081 -2.34595 2.02107e-18 
5.29158 -2.35345 2.05448e-16 
5.50837 -2.33456 3.59919e-16 
5.72696 -2.34684 5.76672e-16 
5.9439 -2.35856 8.90979e-16 
6.16003 -2.32718 1.05712e-15 
6.39362 -2.35195 1.51562e-15 
6.60181 -2.3496 1.95686e-15 
6.82629 -2.30257 1.89385e-15 
7.05382 -2.3618 3.02185e-15 
7.27022 -2.38513 3.88352e-15 
7.52803 -2.36126 3.69168e-15 
7.76959 -2.39291 5.14181e-15 
7.98741 -2.29915 2.70528e-15 
8.25379 -2.36788 5.86705e-15 
8.48523 -2.27333 -5.66737e-07 
-8.48523 -2.09793 4.16803e-07 
-8.26367 -2.11821 -1.60754e-15 
-8.03113 -2.08549 3.2437e-16 
-7.78366 -2.13852 -7.91635e-16 
-7.50759 -2.02562 1.28068e-16 
-7.30358 -2.21819 -9.31052e-16 
-7.06229 -2.11654 -7.66272e-16 
-6.8002 -2.12998 -9.04846e-16 
-6.59219 -2.10805 -9.4412e-16 
-6.35142 -2.13414 -6.82247e-16 
-6.12194 -2.10091 -4.57099e-16 
-5.91615 -2.10359 -3.72148e-16 
-5.68907 -2.10966 -2.63045e-16 
-5.46792 -2.09995 -1.79415e-16 
-5.25113 -2.11547 -8.9984e-17 
-5.03869 -2.09997 1.24064e-17 
-4.81608 -2.11257 1.04122e-16 
-4.59937 -2.11746 1.90481e-16 
-4.38244 -2.12106 2.75528e-16 
-4.17131 -2.10319 3.55813e-16 
-3.95598 -2.09593 4.53837e-16 
-3.74336 -2.09437 6.08364e-16 
-3.52733 -2.10919 8.00874e-16 
-3.3178 -2.1136 9.98385e-16 
-3.10467 -2.12239 1.24683e-15 
-2.8992 -2.11768 1.49736e-15 
-2.68402 -2.123 1.82042e-15 
-2.47387 -2.14168 2.18035e-15 
-2.26554 -2.16201 2.70084e-15 
-2.03885 -2.13161 2.76243e-15 
-1.81827 -2.14611 2.7039e-15 
-1.59588 -2.13424 2.52609e-15 
-1.38498 -2.07502 -1.30098e-15 
-1.17342 -1.94901 -6.56052e-16 
-1.0618 -2.14586 -5.1128e-15 
-0.820314 -2.07372 -5.0934e-15 
-0.590814 -1.96489 -2.21031e-15 
-0.354764 -1.87054 -9.55327e-15 
-0.137855 -1.91254 1.23768e-14 
0.032393 -1.60048 5.09778e-15 
0.15183 -1.76189 1.20028e-14 
0.346855 -1.81588 -1.18619e-14 
0.545867 -1.93793 7.80547e-15 
0.758511 -2.02311 3.91708e-15 
0.965496 -2.07101 -3.29862e-15 
1.17836 -2.06607 7.29006e-16 
1.42447 -2.16833 -1.83424e-15 
1.66612 -2.1297 -1.78973e-15 
1.89303 -2.16567 -2.26652e-15 
2.11954 -2.1815 -2.87817e-15 
2.35555 -2.14445 -2.43778e-15 
2.55974 -2.11572 -2.45808e-15 
2.78592 -2.16896 -1.71045e-15 
2.98676 -2.10818 -1.26836e-15 
3.20546 -2.10902 -1.1078e-15 
3.40734 -2.10681 -9.57296e-16 
3.62285 -2.09042 -6.4282e-16 
3.84099 -2.10851 -5.49352e-16 
4.04355 -2.11399 -4.30987e-16 
4.27212 -2.09929 -2.93473e-16 
4.48377 -2.09558 -2.21232e-16 
4.69641 -2.09869 -1.33912e-16 
4.9159 -2.10777 -4.91258e-17 
5.12855 -2.1053 3.25563e-17 
5.34013 -2.11547 1.22818e-16 
5.56443 -2.10361 1.8691e-16 
5.78153 -2.1127 2.78618e-16 
5.99206 -2.11247 3.90284e-16 
6.23432 -2.11192 4.76584e-16 
6.44298 -2.0973 6.60318e-16 
6.65532 -2.10292 8.05814e-16 
6.91104 -2.09082 7.65053e-16 
7.12477 -2.12344 9.04355e-16 
7.35313 -2.16977 8.19415e-16 
7.5451 -2.07296 9.52224e-17 
7.73035 -2.15946 1.10532e-15 
7.95005 -2.06527 -1.08339e-16 
8.20137 -2.14184 1.72682e-15 
8.48523 -2.07255 -3.5304e-07 
-8.48522 -1.79583 2.78638e-07 
-8.29442 -1.86844 -1.16882e-15 
-7.88291 -1.89417 2.17895e-16 
[...]
POINT_DATA 1978 
VECTORS vectors float
0.011716 -0.0184983 0.999807 
0.0296788 -0.0912275 0.995374 
0.0206802 -0.108692 0.993865 
0.0203514 -0.101243 0.994687 
0.0201167 -0.0825109 0.996418 
0.0200871 -0.0664612 0.99759 
0.0216217 -0.0520329 0.998411 
0.0233623 -0.0409815 0.998891 
0.022459 -0.031018 0.999267 
0.0207005 -0.0225376 0.999532 
0.0221375 -0.0164062 0.99962 
0.0240767 -0.0108371 0.999652 
0.0224943 -0.00657799 0.999725 
0.0230563 -0.00364792 0.999727 
0.0235192 -0.00124483 0.999722 
0.0237525 0.000686405 0.999717 
0.0230456 0.00273487 0.99973 
0.0231595 0.00493351 0.999719 
0.02376 0.00770272 0.999688 
0.0234894 0.0111598 0.999662 
0.022885 0.0154966 0.999618 
0.0227573 0.0208069 0.999524 
0.0225433 0.0276813 0.999363 
0.0227649 0.0362943 0.999083 
0.0222842 0.0480803 0.998596 
0.021508 0.0629095 0.997789 
0.0201057 0.0825383 0.996386 
0.0191929 0.105966 0.994186 
0.0191118 0.138376 0.990198 
0.0174764 0.179886 0.983535 
0.015634 0.231011 0.972829 
0.0133518 0.293248 0.955947 
0.0114308 0.369091 0.929327 
0.00859177 0.463404 0.88611 
0.00630986 0.553205 0.833026 
0.00398557 0.693523 0.720426 
0.00142233 0.809213 0.587516 
0.000488284 0.892615 0.450826 
-8.96832e-05 0.974862 0.222799 
-2.04439e-05 0.999469 -0.0325908 
-8.99432e-05 0.971201 -0.238261 
-0.000913667 0.906852 -0.421448 
-0.0021397 0.808355 -0.588694 
-0.0034402 0.685684 -0.727897 
-0.00638418 0.570726 -0.821115 
-0.00774573 0.467025 -0.884215 
-0.0123568 0.383356 -0.923523 
-0.0136841 0.293325 -0.955919 
-0.0148222 0.235668 -0.971724 
-0.0187388 0.182646 -0.983004 
-0.0176987 0.138236 -0.990244 
-0.019492 0.108653 -0.993891 
-0.021965 0.0814286 -0.99644 
-0.0214965 0.0614765 -0.997879 
-0.0213264 0.0467207 -0.998681 
-0.0229785 0.035802 -0.999095 
-0.0226138 0.0267543 -0.999386 
-0.0219049 0.020668 -0.999546 
-0.0243866 0.0156743 -0.99958 
-0.0228663 0.0113001 -0.999674 
-0.0222011 0.00836733 -0.999718 
-0.0236164 0.00551688 -0.999705 
-0.0224775 0.00292175 -0.999742 
-0.0231727 0.00079696 -0.99973 
-0.0238779 -0.00177115 -0.999713 
-0.022391 -0.00452495 -0.999738 
-0.0229504 -0.00738512 -0.999709 
-0.024187 -0.0115307 -0.999641 
-0.0217432 -0.0167566 -0.999623 
-0.0230119 -0.0223154 -0.999487 
-0.0239192 -0.0309603 -0.999236 
-0.0197773 -0.0399207 -0.999008 
-0.0223399 -0.0502637 -0.99849 
-0.0226179 -0.0674128 -0.997476 
-0.0199746 -0.0852923 -0.996161 
-0.023618 -0.10493 -0.994211 
-0.0191565 -0.119244 -0.992681 
-0.031005 -0.1117 -0.993263 
-0.0221854 -0.0179263 -0.999582 
0.00445121 -0.0312096 0.999564 
0.0272376 -0.0697285 0.997193 
0.0453732 -0.0993882 0.994012 
0.0406265 -0.0987446 0.994291 
0.0370598 -0.0842031 0.995773 
0.0448519 -0.0645846 0.996911 
0.0502944 -0.0519781 0.997382 
0.0502093 -0.0404952 0.997922 
0.0513104 -0.0306111 0.998217 
0.0588375 -0.0231186 0.998002 
0.0517301 -0.0159276 0.998537 
0.0550126 -0.0105841 0.998432 
0.0588682 -0.0069207 0.998243 
0.0560086 -0.00373239 0.998425 
0.0579606 -0.00120526 0.99832 
0.0566258 0.00102566 0.998397 
0.0596627 0.00322071 0.998214 
0.0557779 0.0058045 0.998428 
0.0564234 0.00894173 0.998369 
0.0557587 0.0127721 0.998365 
0.0571264 0.0174347 0.998217 
0.0548949 0.0232835 0.998223 
0.0546385 0.0307044 0.998036 
0.0507863 0.0403723 0.997896 
0.0511614 0.0528571 0.997293 
0.0482107 0.0690983 0.996448 
0.0482919 0.0893331 0.994834 
0.0420099 0.115667 0.992403 
0.0384353 0.15132 0.987742 
0.0349331 0.195176 0.980152 
0.0306581 0.250078 0.967747 
0.0253664 0.319943 0.947105 
0.0193981 0.401633 0.915603 
0.0165289 0.488837 0.87223 
0.00757234 0.609975 0.792395 
0.00508814 0.730332 0.683079 
0.00349831 0.826 0.563663 
0.000789424 0.920718 0.390238 
-0.000318841 0.978678 0.205403 
-0.0023992 0.999987 0.00405437 
-0.00344841 0.978763 -0.204971 
-0.0049878 0.915872 -0.401443 
-0.00674768 0.819584 -0.572925 
-0.00888046 0.696355 -0.717646 
-0.0130383 0.57124 -0.820695 
-0.017973 0.467723 -0.883703 
-0.0186515 0.360194 -0.932699 
-0.0296632 0.285252 -0.958002 
-0.0309414 0.223066 -0.974319 
-0.03487 0.170059 -0.984823 
-0.0447694 0.132415 -0.990187 
-0.0410884 0.101713 -0.99397 
-0.0467832 0.077059 -0.995932 
-0.0495862 0.0587407 -0.997044 
-0.0532666 0.0454294 -0.997549 
-0.0509375 0.0342011 -0.998119 
-0.0570822 0.0263278 -0.998024 
-0.0547141 0.0199674 -0.998305 
-0.0528215 0.0146754 -0.998499 
-0.060359 0.0108592 -0.998119 
-0.0567106 0.00753787 -0.998364 
-0.0577158 0.00461287 -0.998324 
-0.059589 0.0020273 -0.998222 
-0.0557359 -0.000469671 -0.998447 
-0.0574212 -0.00324339 -0.998346 
-0.0588165 -0.00622766 -0.998251 
-0.0544379 -0.00977116 -0.998471 
-0.0539224 -0.0144157 -0.998444 
-0.0585011 -0.0198921 -0.998091 
-0.0480617 -0.0266908 -0.998492 
-0.0544348 -0.0355516 -0.997887 
-0.0556398 -0.0454372 -0.997419 
-0.0424037 -0.0583313 -0.997403 
-0.0477671 -0.075317 -0.996019 
-0.0449739 -0.0920016 -0.994748 
-0.0409926 -0.107159 -0.993401 
-0.051302 -0.102329 -0.993423 
-0.0182954 -0.0638722 -0.997795 
-0.00644491 -0.0329963 -0.999485 
0.000272061 -0.0265788 0.999686 
0.0432951 -0.0744651 0.996274 
0.0604054 -0.0965415 0.993499 
0.0612027 -0.0916799 0.993913 
0.0668594 -0.0838901 0.994235 
0.0626965 -0.0788081 0.994921 
0.068741 -0.0619008 0.995719 
0.0717256 -0.0491437 0.996222 
0.0725039 -0.0379139 0.996652 
0.0749167 -0.028988 0.996775 
0.0762855 -0.0204054 0.996883 
0.0769643 -0.0146046 0.996933 
0.0789607 -0.0101545 0.996832 
0.0797309 -0.00618489 0.996803 
0.0803692 -0.00309058 0.996766 
0.0808064 -0.0004452 0.996735 
0.0813416 0.0019233 0.99669 
0.0809886 0.00462711 0.99671 
0.0804296 0.00770884 0.996736 
0.0795499 0.0114574 0.996771 
0.0787224 0.015953 0.996775 
0.0772586 0.0214981 0.996785 
0.07579 0.0283382 0.996727 
0.0737366 0.0373039 0.996586 
0.071765 0.0486642 0.99624 
0.0689869 0.0636856 0.995589 
0.0660952 0.0825155 0.994402 
0.062061 0.106889 0.992339 
0.0570406 0.137754 0.98883 
0.0511386 0.180499 0.982253 
0.0442747 0.23178 0.971769 
0.036335 0.299532 0.953403 
0.02746 0.385195 0.922438 
0.0198797 0.478036 0.878124 
0.0134254 0.583365 0.812107 
0.00721167 0.699391 0.714713 
0.00174589 0.824016 0.566572 
-0.00123918 0.916358 0.400361 
-0.00289087 0.97973 0.200303 
-0.00458662 0.999365 -0.0352551 
-0.00557977 0.970045 -0.242859 
-0.0066754 0.902125 -0.431425 
-0.00904961 0.808842 -0.587971 
-0.0124735 0.69165 -0.722139 
-0.0171486 0.577396 -0.816294 
-0.0234958 0.473034 -0.880738 
-0.0297106 0.379644 -0.924664 
-0.0365656 0.313439 -0.948914 
-0.0436793 0.245286 -0.968473 
-0.0497313 0.189451 -0.980638 
-0.0564016 0.146117 -0.987666 
-0.0612426 0.110948 -0.991945 
-0.0649788 0.0863937 -0.994146 
-0.068701 0.0653116 -0.995504 
-0.0716971 0.0508279 -0.996137 
-0.0732855 0.0386599 -0.996567 
-0.0759128 0.0300461 -0.996668 
-0.077306 0.0228915 -0.996751 
-0.0777493 0.0171061 -0.996832 
-0.079959 0.0128324 -0.996721 
-0.0804514 0.00889332 -0.996725 
-0.0808557 0.00570483 -0.996715 
-0.0813657 0.00284493 -0.996686 
-0.0811073 8.07083e-05 -0.996711 
-0.0805996 -0.00259503 -0.996749 
-0.0805344 -0.00568582 -0.996741 
-0.0793816 -0.00916551 -0.996808 
-0.0778379 -0.0132178 -0.996884 
-0.077599 -0.0183505 -0.996822 
-0.0753837 -0.025024 -0.996847 
-0.0739332 -0.0324331 -0.996742 
-0.0728889 -0.0425989 -0.996437 
-0.0704574 -0.054858 -0.996012 
-0.068258 -0.0684711 -0.995322 
-0.0665288 -0.084691 -0.994192 
-0.0640289 -0.0968355 -0.993244 
-0.0629899 -0.0990636 -0.99309 
-0.0407868 -0.065745 -0.996995 
-0.0010658 -0.0275641 -0.999686 
0.00310837 -0.0250503 0.999685 
0.0342269 -0.0632594 0.997409 
0.0526208 -0.0926384 0.994314 
0.0601636 -0.0910266 0.994038 
0.0619531 -0.0825894 0.994664 
0.068392 -0.0711014 0.99513 
0.0685742 -0.0566549 0.996046 
0.0714467 -0.0424085 0.99655 
0.073243 -0.0331404 0.996771 
0.0752065 -0.0243912 0.996877 
0.0759498 -0.0179591 0.996957 
0.0775538 -0.0132083 0.996908 
0.078628 -0.00882245 0.996872 
0.079331 -0.00531664 0.996841 
0.0803832 -0.00230911 0.996768 
0.0804849 0.000304432 0.996763 
0.0808612 0.00317204 0.996727 
0.0806623 0.00626939 0.996729 
0.0800257 0.00988546 0.996751 
0.0786643 0.0141288 0.996808 
0.0770826 0.0193137 0.996845 
0.0753837 0.0255355 0.996835 
0.0737858 0.0334584 0.99672 
0.0716721 0.0433621 0.996493 
0.0692932 0.0563198 0.996013 
0.0662027 0.07249 0.995177 
0.0624314 0.0940641 0.993615 
0.0582237 0.121111 0.990938 
0.0532933 0.15536 0.986428 
0.0456738 0.203712 0.977974 
0.0383441 0.263547 0.963894 
0.02984 0.339058 0.940302 
0.0208557 0.427762 0.903664 
0.0115582 0.535021 0.844769 
0.0112908 0.579641 0.814808 
0.00424503 0.705421 0.708785 
-1.61556e-05 0.829644 0.558303 
-0.00195309 0.93195 0.362584 
-0.00343634 0.988889 0.14862 
-0.00271941 0.99959 -0.0285754 
-0.00372315 0.985737 -0.168245 
-0.00465517 0.929747 -0.368182 
-0.00678829 0.83945 -0.543412 
-0.00963186 0.738134 -0.674595 
-0.0136824 0.625964 -0.779736 
-0.0183207 0.51839 -0.854962 
-0.0268701 0.402646 -0.914972 
-0.0338554 0.311945 -0.949507 
-0.0417787 0.241708 -0.96946 
-0.0492902 0.185718 -0.981375 
-0.0551542 0.139574 -0.988683 
-0.0596932 0.109304 -0.992223 
-0.0651123 0.0833336 -0.994399 
-0.0668887 0.0655489 -0.995614 
-0.070326 0.0500421 -0.996275 
-0.0726883 0.0389792 -0.9966 
-0.0743289 0.0299666 -0.996791 
-0.0765888 0.0226459 -0.996813 
-0.0780917 0.017314 -0.996803 
-0.0790347 0.0123868 -0.996802 
-0.0798177 0.00849537 -0.99678 
-0.0804774 0.00510703 -0.99675 
-0.0808025 0.00196238 -0.996735 
-0.0806439 -0.000929883 -0.996749 
-0.0803722 -0.0038202 -0.996764 
-0.0793218 -0.00724791 -0.99683 
-0.0785747 -0.0109502 -0.996855 
-0.077359 -0.0151658 -0.996895 
-0.0757459 -0.0210971 -0.996911 
-0.0740612 -0.0275104 -0.996882 
-0.0724614 -0.0355001 -0.996747 
-0.0700063 -0.047857 -0.996406 
-0.0688261 -0.0600943 -0.995825 
-0.067771 -0.0745137 -0.994921 
-0.0637718 -0.0853784 -0.994313 
-0.0639066 -0.0926556 -0.993652 
-0.0579589 -0.0961554 -0.993684 
-0.0463547 -0.0768503 -0.99596 
-0.00308724 -0.0276632 -0.999653 
0.00481729 -0.0257534 0.999644 
0.0244136 -0.0524043 0.998344 
0.0524328 -0.0955804 0.994046 
0.0560479 -0.0888666 0.994473 
0.0547668 -0.0790299 0.995377 
0.0633679 -0.0705106 0.995503 
0.0600627 -0.0623018 0.996257 
0.0655259 -0.0499921 0.996606 
0.065131 -0.0389451 0.997125 
0.0686837 -0.0297182 0.997203 
0.0696295 -0.0226794 0.997323 
0.0690162 -0.0171744 0.997475 
0.0714433 -0.012365 0.997376 
0.0723171 -0.00834582 0.997354 
0.0730035 -0.00479184 0.997328 
0.0735332 -0.00184429 0.997298 
0.0742542 0.00128961 0.997246 
0.0743298 0.00450996 0.997231 
0.0740848 0.00812084 0.997226 
0.0727558 0.0121751 0.997283 
0.0712315 0.0169927 0.997323 
0.069448 0.022762 0.997333 
0.0680944 0.0298406 0.99724 
0.0662379 0.0384833 0.997069 
0.0643117 0.0495584 0.996706 
0.0615563 0.0633569 0.996099 
0.058666 0.0813321 0.994967 
0.0547317 0.104856 0.992989 
0.0505191 0.134226 0.989671 
0.0455923 0.172265 0.984004 
0.0372829 0.229863 0.972519 
0.0302061 0.296192 0.954659 
0.0215663 0.374273 0.927079 
0.013504 0.466317 0.884526 
0.00485356 0.653272 0.757117 
0.00107424 0.770295 0.637697 
-0.00105415 0.880904 0.473305 
-0.00120095 0.942257 0.334899 
-0.00192537 0.97931 0.202352 
-0.00204872 0.999808 0.0194394 
-0.00366552 0.977668 -0.210139 
-0.00388725 0.914353 -0.404904 
-0.00460986 0.833199 -0.552962 
-0.00713154 0.721433 -0.692455 
-0.0108115 0.600424 -0.799627 
-0.016114 0.488008 -0.872699 
-0.0234962 0.408178 -0.912612 
-0.0264216 0.343954 -0.938624 
-0.0338928 0.272338 -0.961615 
-0.0415431 0.211272 -0.976554 
-0.0477018 0.161847 -0.985671 
-0.0511149 0.124735 -0.990881 
-0.057882 0.0923802 -0.99405 
-0.0591354 0.07486 -0.995446 
-0.0627272 0.0572421 -0.996396 
-0.0647699 0.044285 -0.996925 
-0.0669659 0.0345121 -0.997166 
-0.0692747 0.0261246 -0.997263 
-0.0704495 0.0200173 -0.997322 
-0.0725674 0.0148674 -0.99726 
-0.0724891 0.0102355 -0.997324 
-0.0732878 0.00632452 -0.997298 
-0.0740704 0.002806 -0.997256 
-0.0737956 -0.000379726 -0.997281 
-0.0735901 -0.00353931 -0.99729 
-0.0733023 -0.00675483 -0.997294 
-0.0720518 -0.010669 -0.997351 
-0.0707286 -0.0148675 -0.997392 
-0.0705449 -0.0197787 -0.99732 
-0.0672107 -0.0264012 -0.997397 
-0.0657881 -0.0340311 -0.997261 
-0.0654154 -0.0436833 -0.99691 
-0.0621375 -0.0578301 -0.9964 
-0.0620985 -0.0713763 -0.995523 
-0.0573246 -0.0847588 -0.994759 
-0.055632 -0.0934927 -0.994072 
-0.0480648 -0.0940802 -0.994408 
-0.0359555 -0.0662956 -0.997151 
-0.00354307 -0.0316196 -0.99951 
0.00369572 -0.0262719 0.999649 
0.0228366 -0.0607 0.997898 
0.0420336 -0.0911403 0.994952 
0.0441468 -0.0959221 0.994417 
0.0477524 -0.0898167 0.994819 
0.0495023 -0.0721355 0.996174 
0.0533632 -0.0554329 0.997044 
0.0557985 -0.0454303 0.997416 
0.0574128 -0.0337963 0.997787 
0.0591006 -0.0265573 0.997907 
0.0586273 -0.0207173 0.998073 
0.0595779 -0.0151412 0.998117 
0.0614618 -0.0109025 0.998058 
0.0625869 -0.00702995 0.998022 
0.0620207 -0.00363937 0.998076 
0.0637385 -0.000339303 0.997974 
0.0637824 0.00312534 0.997967 
0.0635752 0.00692184 0.997961 
0.0622301 0.0110353 0.998008 
0.060999 0.0157594 0.998021 
0.0595383 0.0213103 0.998006 
0.0583087 0.0280803 0.997911 
0.0565492 0.0363073 0.997747 
0.0550527 0.0466271 0.997402 
0.0525646 0.0595896 0.996846 
0.0500896 0.0763773 0.995828 
0.0469383 0.0980305 0.994084 
0.0425886 0.127409 0.990945 
0.0385496 0.165058 0.98554 
0.0330835 0.214286 0.976221 
0.0237687 0.291441 0.956307 
0.0159634 0.380566 0.924627 
0.00811982 0.49509 0.868815 
0.00263991 0.615907 0.787826 
0.00610511 0.586315 0.810071 
0.00170578 0.697971 0.716139 
-0.000401347 0.817231 0.576324 
-0.000872491 0.882041 0.471183 
-0.0010814 0.983811 0.179262 
-2.15204e-05 0.99933 0.0365129 
-0.00306517 0.989721 -0.143051 
-0.0040497 0.949989 -0.312263 
-0.00315178 0.859639 -0.510884 
-0.00302165 0.751087 -0.66021 
-0.00504207 0.639698 -0.768619 
-0.00899623 0.516513 -0.856244 
-0.0157714 0.410018 -0.911955 
-0.0221864 0.319 -0.947507 
-0.0299174 0.250097 -0.967769 
-0.0367778 0.196737 -0.979774 
-0.0405499 0.154031 -0.987243 
-0.0469915 0.108941 -0.992945 
-0.0475528 0.0889437 -0.994909 
-0.0513006 0.0684878 -0.99634 
-0.0534585 0.0534135 -0.997148 
-0.055001 0.0416339 -0.997626 
-0.0580199 0.0320785 -0.997808 
-0.0588832 0.0249857 -0.99796 
-0.060282 0.0189286 -0.99801 
-0.062488 0.0138573 -0.997957 
-0.0616732 0.00919426 -0.998062 
-0.062921 0.00504601 -0.998013 
-0.0629288 0.00148348 -0.998025 
-0.0629658 -0.00192498 -0.998021 
-0.062329 -0.0052598 -0.998049 
-0.062756 -0.00877355 -0.997998 
-0.0606878 -0.012824 -0.998082 
-0.0602135 -0.0174521 -0.998041 
-0.0595357 -0.0225181 -0.99798 
-0.0557104 -0.0296069 -0.998016 
-0.0551136 -0.0381361 -0.99776 
-0.0559635 -0.0489017 -0.997241 
-0.0508339 -0.0610681 -0.996847 
-0.0528987 -0.0728202 -0.99595 
-0.0475678 -0.0862768 -0.995143 
-0.0471413 -0.0943469 -0.99443 
-0.0397809 -0.0961561 -0.994576 
-0.0269266 -0.0605458 -0.997803 
-0.00342068 -0.029369 -0.99957 
0.00246325 -0.0284958 0.999599 
0.0208229 -0.071791 0.997199 
0.0348499 -0.095727 0.994802 
0.035759 -0.0948155 0.994862 
0.041796 -0.0855033 0.995469 
0.0376196 -0.0752591 0.996462 
0.0431602 -0.0618227 0.99716 
0.040954 -0.0491764 0.99796 
0.0469449 -0.0398033 0.998111 
0.0454327 -0.0310903 0.998491 
0.0463763 -0.024954 0.99862 
0.0481336 -0.0190133 0.998668 
0.047896 -0.0141929 0.998759 
0.0502317 -0.0100854 0.998694 
0.0506532 -0.00642157 0.998703 
0.0506408 -0.00275444 0.998721 
0.0520109 0.000694733 0.998654 
0.0518252 0.00450339 0.998654 
0.0505328 0.00850792 0.998694 
0.0496257 0.013041 0.99869 
0.0487931 0.0181753 0.998651 
0.0477859 0.0241529 0.998573 
0.046482 0.0312176 0.998439 
0.0450435 0.0399531 0.998193 
0.0435094 0.0506404 0.997776 
0.0415077 0.0645628 0.997058 
0.0390851 0.0823166 0.995848 
0.0362528 0.105865 0.993728 
0.032154 0.138034 0.989915 
0.0284424 0.179491 0.983359 
0.0237303 0.238525 0.970857 
0.0152455 0.323229 0.94621 
0.00939961 0.419435 0.907746 
0.00399795 0.525376 0.850872 
-0.000648607 0.744548 0.667578 
-0.00133818 0.879261 0.476346 
0.00145782 0.949644 0.313307 
0.00366496 0.982168 0.187926 
0.000139237 0.970224 0.242316 
0.00246013 0.994705 0.102668 
0.0016217 0.995515 -0.0944412 
0.000360104 0.987442 -0.158091 
-0.00359417 0.938165 -0.346201 
-0.00097694 0.814157 -0.58067 
-0.00171697 0.711184 -0.703017 
-0.00310839 0.567353 -0.823484 
-0.00835914 0.440483 -0.897735 
-0.0137879 0.344777 -0.938595 
-0.0220225 0.254588 -0.96681 
-0.0284408 0.192049 -0.980985 
-0.0275044 0.158987 -0.986903 
-0.0374013 0.13333 -0.990378 
-0.0352909 0.106997 -0.99364 
-0.0391273 0.0822417 -0.995853 
-0.0414831 0.0642637 -0.997078 
-0.0432082 0.0498828 -0.997828 
-0.0455402 0.0381028 -0.998243 
-0.0467652 0.0297806 -0.99847 
-0.0481365 0.0227098 -0.99859 
-0.049473 0.0167513 -0.998643 
-0.0506872 0.011872 -0.998652 
-0.0507103 0.00681416 -0.998698 
-0.0506682 0.00272573 -0.998719 
-0.051092 -0.00105968 -0.998701 
-0.050359 -0.00461595 -0.998728 
-0.050557 -0.00830809 -0.998694 
-0.0495711 -0.012127 -0.998705 
-0.0489085 -0.0167893 -0.99867 
-0.0472756 -0.0219922 -0.998648 
-0.0457784 -0.0278469 -0.998571 
-0.0438106 -0.0367123 -0.998375 
-0.0446119 -0.0474515 -0.997885 
-0.0407866 -0.0616298 -0.997274 
-0.0410579 -0.0770866 -0.996187 
-0.0359052 -0.0894741 -0.99535 
-0.03711 -0.0956914 -0.994726 
-0.0305431 -0.0984704 -0.994677 
-0.0246475 -0.0748149 -0.99689 
-0.00300271 -0.0285724 -0.999591 
0.00165394 -0.0306308 0.999532 
0.0153271 -0.0702167 0.997413 
0.0276223 -0.0986107 0.994749 
0.0257329 -0.0976809 0.994892 
0.0318328 -0.0900768 0.995434 
0.0287623 -0.0779097 0.996554 
0.0325324 -0.0612259 0.997602 
0.0309991 -0.0478396 0.998382 
0.0355947 -0.0380301 0.99865 
0.0332717 -0.0306588 0.998987 
0.0363961 -0.0241261 0.999051 
0.0375713 -0.0185607 0.999129 
0.0370705 -0.0138538 0.999226 
0.0392563 -0.00978923 0.999189 
0.0403359 -0.00577727 0.999176 
0.0397434 -0.00190322 0.999217 
0.0409892 0.00192607 0.999164 
0.0396643 0.00601062 0.999204 
0.038964 0.0107027 0.999191 
0.0385045 0.0158887 0.99914 
0.0377854 0.0216095 0.99906 
0.036778 0.0282161 0.998932 
0.0356473 0.0363269 0.998711 
0.0341972 0.0464256 0.998344 
0.0328688 0.0591614 0.997715 
0.0307934 0.0758545 0.996651 
0.0284506 0.0978928 0.994799 
0.0254201 0.127348 0.991542 
0.0216041 0.16997 0.985223 
0.0184033 0.225693 0.974034 
0.0129579 0.29757 0.954624 
0.00687656 0.402373 0.915464 
0.00266789 0.519794 0.854299 
4.87751e-05 0.645954 0.763386 
-6.35828e-05 0.639262 0.768998 
0.000489081 0.860853 0.508868 
0.00670848 0.940341 0.340152 
0.00654409 0.998247 0.0588913 
0.00496306 0.999787 0.0200864 
0.00543585 0.999984 0.00192378 
0.00515114 0.999828 -0.0177361 
0.00302356 0.996839 -0.0793583 
0.00117632 0.967462 -0.253024 
-0.00158988 0.834432 -0.551214 
-0.000932318 0.614837 -0.788662 
-0.00075509 0.569382 -0.822082 
-0.00326871 0.484972 -0.874535 
-0.00611505 0.390509 -0.920591 
-0.0127439 0.293608 -0.955853 
-0.0185148 0.221915 -0.974903 
-0.0189857 0.179125 -0.983652 
-0.0268216 0.127306 -0.991515 
-0.0286204 0.0943809 -0.995134 
-0.0308355 0.0736134 -0.996818 
-0.0329606 0.0576155 -0.997802 
-0.0349405 0.0443306 -0.998413 
-0.0356142 0.0348557 -0.998765 
-0.0371252 0.0270499 -0.998952 
-0.0383065 0.0205433 -0.999062 
-0.0386393 0.0150675 -0.999149 
-0.0407807 0.00994726 -0.999125 
-0.0393728 0.00519857 -0.99922 
-0.0399519 0.000915775 -0.999209 
-0.0395326 -0.00284951 -0.999222 
-0.0395557 -0.00666903 -0.999203 
-0.0386159 -0.0104104 -0.999207 
-0.0387486 -0.014628 -0.99915 
-0.0373308 -0.0193537 -0.999123 
-0.0353063 -0.0246977 -0.999079 
-0.0354399 -0.031576 -0.998879 
-0.032386 -0.0400974 -0.998679 
-0.0344824 -0.0491568 -0.998204 
-0.0301105 -0.0609957 -0.997692 
-0.0316611 -0.0746429 -0.996716 
-0.0274992 -0.088679 -0.995689 
-0.0266548 -0.0978279 -0.994854 
-0.0219531 -0.0984821 -0.994901 
-0.0164432 -0.0660725 -0.99768 
-0.00193855 -0.031836 -0.999486 
0.000827222 -0.0299183 0.999553 
0.0106893 -0.0704418 0.997463 
0.0196424 -0.0991507 0.994883 
0.0187836 -0.0991444 0.994903 
0.0231629 -0.0901583 0.995666 
0.0206007 -0.0774222 0.996794 
0.0245032 -0.0635541 0.997686 
0.0228256 -0.0508966 0.998451 