# vtk DataFile Version 3.0 
Exported using Morpho https://github.com/Morpho-lang/morpho 
ASCII 
DATASET UNSTRUCTURED_GRID 

POINTS 1978 float 
-8.48526 -2.82838 -2.98554e-07 
-8.26071 -2.82836 -2.82507e-08 
-8.03587 -2.82835 1.69047e-06 
-7.76273 -2.82838 1.42126e-06 
-7.46416 -2.82837 1.00699e-06 
-7.23338 -2.82838 8.08751e-07 
-6.98625 -2.82838 6.59459e-07 
-6.77789 -2.82839 4.10138e-07 
-6.56231 -2.82838 3.67666e-07 
-6.34319 -2.82838 3.23874e-07 
-6.15015 -2.82838 1.7736e-07 
-5.92858 -2.82838 1.21084e-07 
-5.71533 -2.82838 8.20113e-08 
-5.51057 -2.82838 3.44759e-08 
-5.29333 -2.82838 1.08222e-08 
-5.08163 -2.82838 -1.16044e-08 
-4.86408 -2.82838 -3.56288e-08 
-4.65782 -2.82838 -7.02382e-08 
-4.43802 -2.82838 -9.85712e-08 
-4.22108 -2.82838 -1.44989e-07 
-4.00284 -2.82838 -2.00053e-07 
-3.79246 -2.82838 -2.61363e-07 
-3.57636 -2.82838 -3.41106e-07 
-3.36331 -2.82838 -4.1277e-07 
-3.1407 -2.82838 -5.25193e-07 
-2.92869 -2.82839 -6.34502e-07 
-2.71671 -2.82839 -8.02819e-07 
-2.51927 -2.8284 -9.39705e-07 
-2.30645 -2.82839 -9.51321e-07 
-2.09516 -2.8284 -1.0743e-06 
-1.88809 -2.8284 -1.08122e-06 
-1.68337 -2.8284 -1.05556e-06 
-1.48123 -2.82842 -8.00096e-07 
-1.26853 -2.82841 -7.38615e-07 
-1.08959 -2.8284 -5.56315e-07 
-0.834228 -2.82843 -1.17423e-07 
-0.624194 -2.8284 -3.86011e-07 
-0.444433 -2.82837 3.58336e-07 
-0.209778 -2.82839 -1.35133e-06 
0.0278379 -2.82836 7.02238e-08 
0.220278 -2.82839 6.94964e-07 
0.415965 -2.82839 4.27072e-07 
0.629761 -2.8284 4.3837e-07 
0.848464 -2.82841 9.79436e-07 
1.05231 -2.82842 1.86284e-07 
1.25459 -2.82841 1.28302e-06 
1.442 -2.82841 1.09902e-07 
1.68596 -2.82841 1.12446e-06 
1.87814 -2.82841 1.2975e-06 
2.09227 -2.8284 7.9845e-07 
2.31225 -2.82839 1.17465e-06 
2.50665 -2.8284 8.85278e-07 
2.73548 -2.82838 7.0578e-07 
2.95242 -2.82839 6.57392e-07 
3.16969 -2.82838 5.60337e-07 
3.37553 -2.82838 3.73717e-07 
3.6003 -2.82838 3.27729e-07 
3.80403 -2.82838 2.73447e-07 
4.02029 -2.82838 1.77994e-07 
4.24759 -2.82838 1.58371e-07 
4.44674 -2.82838 1.16299e-07 
4.65904 -2.82838 7.33374e-08 
4.86796 -2.82838 4.27429e-08 
5.07161 -2.82838 1.2912e-08 
5.28832 -2.82838 -1.61986e-08 
5.49922 -2.82838 -6.02299e-08 
5.70389 -2.82838 -9.39349e-08 
5.9235 -2.82838 -1.29472e-07 
6.14422 -2.82838 -2.2803e-07 
6.34474 -2.82838 -2.74095e-07 
6.58493 -2.82838 -3.07974e-07 
6.79438 -2.82838 -5.63351e-07 
6.99402 -2.82838 -5.26362e-07 
7.25075 -2.82838 -6.78413e-07 
7.47849 -2.82838 -1.14959e-06 
7.71632 -2.82838 -1.07602e-06 
7.97992 -2.82838 -2.19915e-06 
8.16631 -2.82834 8.84582e-08 
8.48524 -2.82836 4.22437e-07 
-8.48524 -2.59777 3.47418e-07 
-8.23975 -2.57486 1.84006e-07 
-8.00778 -2.56698 -6.67051e-07 
-7.78413 -2.62143 1.42254e-07 
-7.52025 -2.64185 5.27009e-07 
-7.22252 -2.59691 6.02074e-09 
-6.98404 -2.58233 -2.43888e-07 
-6.77073 -2.58491 -1.04029e-07 
-6.53982 -2.58957 -8.51449e-08 
-6.33631 -2.55841 -2.68036e-07 
-6.11315 -2.59526 -5.54163e-08 
-5.89341 -2.58339 -1.0156e-07 
-5.68114 -2.57007 -8.05325e-08 
-5.46357 -2.58525 -3.0525e-08 
-5.24804 -2.57914 -2.22579e-08 
-5.02958 -2.58685 1.82944e-09 
-4.81997 -2.57378 3.11448e-08 
-4.6012 -2.59008 3.52361e-08 
-4.38243 -2.58617 6.01548e-08 
-4.16364 -2.5859 7.86968e-08 
-3.9522 -2.57457 1.4808e-07 
-3.73859 -2.57981 1.46721e-07 
-3.52583 -2.57689 2.3453e-07 
-3.30684 -2.59113 1.72649e-07 
-3.09355 -2.58511 3.64748e-07 
-2.88029 -2.59244 3.16519e-07 
-2.6783 -2.58258 6.9136e-07 
-2.47003 -2.60409 3.8553e-07 
-2.25272 -2.60394 4.10166e-07 
-2.04343 -2.59962 5.7716e-07 
-1.83369 -2.59557 7.39532e-07 
-1.62257 -2.59039 5.78066e-07 
-1.41486 -2.59682 4.95066e-07 
-1.22635 -2.53736 6.61735e-07 
-0.99427 -2.62993 -1.89879e-06 
-0.780019 -2.58517 8.02221e-07 
-0.590367 -2.50703 2.36439e-07 
-0.385042 -2.49847 -3.34966e-06 
-0.192781 -2.56883 7.79494e-07 
-0.00158348 -2.4603 2.52451e-06 
0.193709 -2.49631 -3.92596e-09 
0.395084 -2.51726 -5.48065e-07 
0.60273 -2.56598 -5.00383e-07 
0.829628 -2.58385 1.19751e-07 
1.05513 -2.57381 4.06735e-08 
1.26384 -2.57076 -5.04509e-07 
1.50624 -2.64371 1.16427e-06 
1.71813 -2.58985 -1.54009e-06 
1.93523 -2.61424 -1.43321e-07 
2.16115 -2.61438 4.23512e-08 
2.36683 -2.57729 -1.23934e-06 
2.57849 -2.61189 -3.65342e-08 
2.80116 -2.59502 -3.44147e-07 
3.01468 -2.59283 -3.69963e-07 
3.22136 -2.57587 -3.46474e-07 
3.44135 -2.59462 -1.13234e-07 
3.64901 -2.56811 -2.71907e-07 
3.86398 -2.58336 -1.13187e-07 
4.09253 -2.59698 -3.86276e-08 
4.30166 -2.5642 -1.25133e-07 
4.51555 -2.58345 -3.79715e-08 
4.7297 -2.58082 -3.3105e-08 
4.94128 -2.57446 -1.4881e-08 
5.15611 -2.59076 1.17184e-08 
5.3748 -2.58285 2.57442e-08 
5.58563 -2.57361 6.67547e-08 
5.80222 -2.58996 5.54695e-08 
6.02701 -2.58862 6.19559e-08 
6.2402 -2.56101 2.3081e-07 
6.46069 -2.60534 -2.76935e-08 
6.68678 -2.56956 2.51673e-07 
6.89307 -2.55618 4.74304e-07 
7.11807 -2.61777 -2.36348e-07 
7.36535 -2.58717 2.37042e-07 
7.59965 -2.5968 -1.09902e-08 
7.84983 -2.61834 -5.57881e-07 
8.05765 -2.52574 1.00359e-06 
8.28812 -2.63971 -1.01903e-06 
8.48522 -2.52199 -2.39251e-07 
-8.48521 -2.36192 5.81331e-07 
-8.21518 -2.34404 -9.59279e-07 
-7.97343 -2.32199 -7.6967e-07 
-7.73904 -2.39938 -9.84146e-07 
-7.55743 -2.24522 -5.409e-07 
-7.44364 -2.44995 -1.15002e-06 
-7.16376 -2.37675 -8.28779e-07 
-6.93991 -2.32807 -5.77138e-07 
-6.70586 -2.36508 -4.91294e-07 
-6.48859 -2.33417 -3.32042e-07 
-6.24135 -2.34323 -2.87043e-07 
-6.02738 -2.35153 -2.19249e-07 
-5.80713 -2.33327 -1.31598e-07 
-5.57818 -2.33656 -9.34179e-08 
-5.36322 -2.34121 -6.2351e-08 
-5.13902 -2.34603 -1.43373e-08 
-4.92711 -2.3332 2.73513e-08 
-4.70342 -2.34771 7.2651e-08 
-4.48565 -2.35172 1.18643e-07 
-4.26401 -2.34939 1.69777e-07 
-4.04976 -2.33265 2.12555e-07 
-3.83333 -2.33206 2.77882e-07 
-3.62061 -2.33237 3.64474e-07 
-3.40073 -2.34808 4.95153e-07 
-3.18839 -2.34786 6.16707e-07 
-2.97218 -2.35587 7.65916e-07 
-2.76541 -2.34587 8.59874e-07 
-2.55376 -2.36358 1.11536e-06 
-2.34481 -2.38834 1.49235e-06 
-2.12421 -2.37021 1.49854e-06 
-1.91219 -2.36906 1.59805e-06 
-1.69127 -2.36629 1.57447e-06 
-1.46792 -2.35078 7.43258e-07 
-1.26408 -2.27847 9.15584e-07 
-1.0406 -2.39295 1.52378e-06 
-0.824112 -2.32582 -8.91438e-07 
-0.601336 -2.23361 -1.05565e-06 
-0.392076 -2.17189 1.4655e-06 
-0.187878 -2.24226 -1.87346e-06 
0.0339916 -2.09866 -3.40244e-06 
0.2313 -2.15632 5.69289e-07 
0.429004 -2.197 1.99827e-06 
0.626434 -2.27823 9.1883e-07 
0.834198 -2.33412 5.75976e-07 
1.05288 -2.32833 3.2215e-07 
1.26063 -2.32259 -5.29738e-07 
1.4671 -2.43062 -1.70144e-06 
1.64828 -2.35158 -1.29982e-06 
1.86591 -2.3888 -1.83248e-06 
2.08585 -2.40449 -1.75291e-06 
2.30396 -2.35565 -1.30714e-06 
2.53013 -2.36612 -1.15303e-06 
2.73005 -2.38015 -1.08679e-06 
2.95807 -2.35541 -7.81664e-07 
3.15909 -2.33408 -6.01401e-07 
3.3741 -2.3547 -5.23673e-07 
3.57976 -2.32382 -3.65153e-07 
3.79301 -2.33415 -3.03392e-07 
4.01007 -2.36249 -2.5858e-07 
4.21897 -2.32571 -1.60723e-07 
4.44066 -2.33437 -1.20747e-07 
4.6505 -2.3384 -7.74936e-08 
4.86218 -2.33447 -3.64749e-08 
5.08092 -2.34374 4.23915e-10 
5.29103 -2.35126 4.54399e-08 
5.50786 -2.33146 8.04739e-08 
5.72645 -2.34411 1.29185e-07 
5.94309 -2.35617 1.99437e-07 
6.15918 -2.32419 2.35655e-07 
6.39348 -2.34956 3.39676e-07 
6.6016 -2.34711 4.38887e-07 
6.82627 -2.29965 4.25103e-07 
7.05313 -2.35979 6.73059e-07 
7.27007 -2.38235 8.6692e-07 
7.5292 -2.35946 8.37973e-07 
7.76906 -2.39024 1.12341e-06 
7.9856 -2.29862 6.04967e-07 
8.25011 -2.36548 1.30139e-06 
8.48523 -2.27333 -5.66737e-07 
-8.48523 -2.09793 4.16803e-07 
-8.26283 -2.12258 -3.63149e-07 
-8.0309 -2.07758 5.28802e-08 
-7.78282 -2.1372 -1.6887e-07 
-7.50975 -2.02768 3.96273e-08 
-7.30641 -2.21679 -2.44341e-07 
-7.06405 -2.11743 -1.78164e-07 
-6.7993 -2.12427 -1.99089e-07 
-6.59186 -2.11162 -2.02253e-07 
-6.34838 -2.1326 -1.43789e-07 
-6.11774 -2.09825 -9.55091e-08 
-5.91342 -2.10286 -7.97415e-08 
-5.68781 -2.10869 -5.87378e-08 
-5.46726 -2.09743 -4.14756e-08 
-5.2513 -2.11434 -2.06476e-08 
-5.03998 -2.09791 1.08435e-09 
-4.81743 -2.11167 2.21137e-08 
-4.60102 -2.1164 4.0773e-08 
-4.38384 -2.11985 6.03431e-08 
-4.17271 -2.10274 7.68275e-08 
-3.9567 -2.09421 1.00467e-07 
-3.74428 -2.0916 1.32701e-07 
-3.52664 -2.10706 1.79281e-07 
-3.31692 -2.1105 2.2289e-07 
-3.10327 -2.12037 2.80038e-07 
-2.89787 -2.11671 3.38143e-07 
-2.68374 -2.12235 4.02452e-07 
-2.47392 -2.14078 4.86809e-07 
-2.26568 -2.16458 5.99281e-07 
-2.04053 -2.1349 5.76605e-07 
-1.81919 -2.14646 6.15116e-07 
-1.59514 -2.13503 6.25927e-07 
-1.38454 -2.07612 -3.10779e-07 
-1.171 -1.95457 -2.17043e-07 
-1.06039 -2.14763 -9.36303e-07 
-0.826242 -2.08256 -1.2628e-06 
-0.594389 -1.95946 -5.07857e-07 
-0.360245 -1.86786 -2.0965e-06 
-0.142272 -1.92015 2.88606e-06 
0.0238596 -1.61615 1.59571e-06 
0.156744 -1.76699 2.07647e-06 
0.353331 -1.82703 -9.91655e-07 
0.558036 -1.92569 -9.5877e-08 
0.759657 -2.02299 7.20586e-07 
0.96271 -2.07387 -8.61131e-07 
1.17566 -2.07177 2.19001e-07 
1.42761 -2.17045 -2.61436e-07 
1.66952 -2.13213 -3.03788e-07 
1.89344 -2.16815 -4.49503e-07 
2.11804 -2.18001 -6.87609e-07 
2.36032 -2.14425 -4.70978e-07 
2.56348 -2.11741 -5.20433e-07 
2.78573 -2.16624 -3.87492e-07 
2.98602 -2.10336 -2.92983e-07 
3.2044 -2.10779 -2.49125e-07 
3.40614 -2.10587 -2.16118e-07 
3.62189 -2.08703 -1.47911e-07 
3.84096 -2.10702 -1.2148e-07 
4.04342 -2.11243 -9.76254e-08 
4.27261 -2.0988 -6.50426e-08 
4.48458 -2.09368 -4.91115e-08 
4.69667 -2.0981 -3.04578e-08 
4.91663 -2.10688 -1.00524e-08 
5.12866 -2.10383 7.2978e-09 
5.33984 -2.11447 2.70054e-08 
5.56446 -2.102 4.25941e-08 
5.78116 -2.11099 6.24525e-08 
5.99133 -2.11105 8.62532e-08 
6.23473 -2.1108 1.08728e-07 
6.44326 -2.09571 1.48918e-07 
6.6555 -2.10187 1.80122e-07 
6.91187 -2.08901 1.76806e-07 
7.12557 -2.12233 2.02815e-07 
7.35508 -2.16932 1.87531e-07 
7.54648 -2.07229 2.47779e-08 
7.72985 -2.15812 2.49456e-07 
7.94757 -2.06581 -3.31692e-08 
8.1987 -2.1406 3.82161e-07 
8.48523 -2.07255 -3.53041e-07 
-8.48522 -1.79583 2.78639e-07 
-8.29476 -1.87318 -2.73079e-07 
-7.88121 -1.89478 5.86467e-08 
[...]
POINT_DATA 1978 
VECTORS vectors float
0.011716 -0.0184983 0.999807 
0.0296788 -0.0912275 0.995374 
0.0206802 -0.108692 0.993865 
0.0203514 -0.101243 0.994687 
0.0201167 -0.0825109 0.996418 
0.0200871 -0.0664612 0.99759 
0.0216217 -0.0520329 0.998411 
0.0233623 -0.0409815 0.998891 
0.022459 -0.031018 0.999267 
0.0207005 -0.0225376 0.999532 
0.0221375 -0.0164062 0.99962 
0.0240767 -0.0108371 0.999652 
0.0224943 -0.00657799 0.999725 
0.0230563 -0.00364792 0.999727 
0.0235192 -0.00124483 0.999722 
0.0237525 0.000686405 0.999717 
0.0230456 0.00273487 0.99973 
0.0231595 0.00493351 0.999719 
0.02376 0.00770272 0.999688 
0.0234894 0.0111598 0.999662 
0.022885 0.0154966 0.999618 
0.0227573 0.0208069 0.999524 
0.0225433 0.0276813 0.999363 
0.0227649 0.0362943 0.999083 
0.0222842 0.0480803 0.998596 
0.021508 0.0629095 0.997789 
0.0201057 0.0825383 0.996386 
0.0191929 0.105966 0.994186 
0.0191118 0.138376 0.990198 
0.0174764 0.179886 0.983535 
0.015634 0.231011 0.972829 
0.0133518 0.293248 0.955947 
0.0114308 0.369091 0.929327 
0.00859177 0.463404 0.88611 
0.00630986 0.553205 0.833026 
0.00398557 0.693523 0.720426 
0.00142233 0.809213 0.587516 
0.000488284 0.892615 0.450826 
-8.96832e-05 0.974862 0.222799 
-2.04439e-05 0.999469 -0.0325908 
-8.99432e-05 0.971201 -0.238261 
-0.000913667 0.906852 -0.421448 
-0.0021397 0.808355 -0.588694 
-0.0034402 0.685684 -0.727897 
-0.00638418 0.570726 -0.821115 
-0.00774573 0.467025 -0.884215 
-0.0123568 0.383356 -0.923523 
-0.0136841 0.293325 -0.955919 
-0.0148222 0.235668 -0.971724 
-0.0187388 0.182646 -0.983004 
-0.0176987 0.138236 -0.990244 
-0.019492 0.108653 -0.993891 
-0.021965 0.0814286 -0.99644 
-0.0214965 0.0614765 -0.997879 
-0.0213264 0.0467207 -0.998681 
-0.0229785 0.035802 -0.999095 
-0.0226138 0.0267543 -0.999386 
-0.0219049 0.020668 -0.999546 
-0.0243866 0.0156743 -0.99958 
-0.0228663 0.0113001 -0.999674 
-0.0222011 0.00836733 -0.999718 
-0.0236164 0.00551688 -0.999705 
-0.0224775 0.00292175 -0.999742 
-0.0231727 0.00079696 -0.99973 
-0.0238779 -0.00177115 -0.999713 
-0.022391 -0.00452495 -0.999738 
-0.0229504 -0.00738512 -0.999709 
-0.024187 -0.0115307 -0.999641 
-0.0217432 -0.0167566 -0.999623 
-0.0230119 -0.0223154 -0.999487 
-0.0239192 -0.0309603 -0.999236 
-0.0197773 -0.0399207 -0.999008 
-0.0223399 -0.0502637 -0.99849 
-0.0226179 -0.0674128 -0.997476 
-0.0199746 -0.0852923 -0.996161 
-0.023618 -0.10493 -0.994211 
-0.0191565 -0.119244 -0.992681 
-0.031005 -0.1117 -0.993263 
-0.0221854 -0.0179263 -0.999582 
0.00445121 -0.0312096 0.999564 
0.0272376 -0.0697285 0.997193 
0.0453732 -0.0993882 0.994012 
0.0406265 -0.0987446 0.994291 
0.0370598 -0.0842031 0.995773 
0.0448519 -0.0645846 0.996911 
0.0502944 -0.0519781 0.997382 
0.0502093 -0.0404952 0.997922 
0.0513104 -0.0306111 0.998217 
0.0588375 -0.0231186 0.998002 
0.0517301 -0.0159276 0.998537 
0.0550126 -0.0105841 0.998432 
0.0588682 -0.0069207 0.998243 
0.0560086 -0.00373239 0.998425 
0.0579606 -0.00120526 0.99832 
0.0566258 0.00102566 0.998397 
0.0596627 0.00322071 0.998214 
0.0557779 0.0058045 0.998428 
0.0564234 0.00894173 0.998369 
0.0557587 0.0127721 0.998365 
0.0571264 0.0174347 0.998217 
0.0548949 0.0232835 0.998223 
0.0546385 0.0307044 0.998036 
0.0507863 0.0403723 0.997896 
0.0511614 0.0528571 0.997293 
0.0482107 0.0690983 0.996448 
0.0482919 0.0893331 0.994834 
0.0420099 0.115667 0.992403 
0.0384353 0.15132 0.987742 
0.0349331 0.195176 0.980152 
0.0306581 0.250078 0.967747 
0.0253664 0.319943 0.947105 
0.0193981 0.401633 0.915603 
0.0165289 0.488837 0.87223 
0.00757234 0.609975 0.792395 
0.00508814 0.730332 0.683079 
0.00349831 0.826 0.563663 
0.000789424 0.920718 0.390238 
-0.000318841 0.978678 0.205403 
-0.0023992 0.999987 0.00405437 
-0.00344841 0.978763 -0.204971 
-0.0049878 0.915872 -0.401443 
-0.00674768 0.819584 -0.572925 
-0.00888046 0.696355 -0.717646 
-0.0130383 0.57124 -0.820695 
-0.017973 0.467723 -0.883703 
-0.0186515 0.360194 -0.932699 
-0.0296632 0.285252 -0.958002 
-0.0309414 0.223066 -0.974319 
-0.03487 0.170059 -0.984823 
-0.0447694 0.132415 -0.990187 
-0.0410884 0.101713 -0.99397 
-0.0467832 0.077059 -0.995932 
-0.0495862 0.0587407 -0.997044 
-0.0532666 0.0454294 -0.997549 
-0.0509375 0.0342011 -0.998119 
-0.0570822 0.0263278 -0.998024 
-0.0547141 0.0199674 -0.998305 
-0.0528215 0.0146754 -0.998499 
-0.060359 0.0108592 -0.998119 
-0.0567106 0.00753787 -0.998364 
-0.0577158 0.00461287 -0.998324 
-0.059589 0.0020273 -0.998222 
-0.0557359 -0.000469671 -0.998447 
-0.0574212 -0.00324339 -0.998346 
-0.0588165 -0.00622766 -0.998251 
-0.0544379 -0.00977116 -0.998471 
-0.0539224 -0.0144157 -0.998444 
-0.0585011 -0.0198921 -0.998091 
-0.0480617 -0.0266908 -0.998492 
-0.0544348 -0.0355516 -0.997887 
-0.0556398 -0.0454372 -0.997419 
-0.0424037 -0.0583313 -0.997403 
-0.0477671 -0.075317 -0.996019 
-0.0449739 -0.0920016 -0.994748 
-0.0409926 -0.107159 -0.993401 
-0.051302 -0.102329 -0.993423 
-0.0182954 -0.0638722 -0.997795 
-0.00644491 -0.0329963 -0.999485 
0.000272061 -0.0265788 0.999686 
0.0432951 -0.0744651 0.996274 
0.0604054 -0.0965415 0.993499 
0.0612027 -0.0916799 0.993913 
0.0668594 -0.0838901 0.994235 
0.0626965 -0.0788081 0.994921 
0.068741 -0.0619008 0.995719 
0.0717256 -0.0491437 0.996222 
0.0725039 -0.0379139 0.996652 
0.0749167 -0.028988 0.996775 
0.0762855 -0.0204054 0.996883 
0.0769643 -0.0146046 0.996933 
0.0789607 -0.0101545 0.996832 
0.0797309 -0.00618489 0.996803 
0.0803692 -0.00309058 0.996766 
0.0808064 -0.0004452 0.996735 
0.0813416 0.0019233 0.99669 
0.0809886 0.00462711 0.99671 
0.0804296 0.00770884 0.996736 
0.0795499 0.0114574 0.996771 
0.0787224 0.015953 0.996775 
0.0772586 0.0214981 0.996785 
0.07579 0.0283382 0.996727 
0.0737366 0.0373039 0.996586 
0.071765 0.0486642 0.99624 
0.0689869 0.0636856 0.995589 
0.0660952 0.0825155 0.994402 
0.062061 0.106889 0.992339 
0.0570406 0.137754 0.98883 
0.0511386 0.180499 0.982253 
0.0442747 0.23178 0.971769 
0.036335 0.299532 0.953403 
0.02746 0.385195 0.922438 
0.0198797 0.478036 0.878124 
0.0134254 0.583365 0.812107 
0.00721167 0.699391 0.714713 
0.00174589 0.824016 0.566572 
-0.00123918 0.916358 0.400361 
-0.00289087 0.97973 0.200303 
-0.00458662 0.999365 -0.0352551 
-0.00557977 0.970045 -0.242859 
-0.0066754 0.902125 -0.431425 
-0.00904961 0.808842 -0.587971 
-0.0124735 0.69165 -0.722139 
-0.0171486 0.577396 -0.816294 
-0.0234958 0.473034 -0.880738 
-0.0297106 0.379644 -0.924664 
-0.0365656 0.313439 -0.948914 
-0.0436793 0.245286 -0.968473 
-0.0497313 0.189451 -0.980638 
-0.0564016 0.146117 -0.987666 
-0.0612426 0.110948 -0.991945 
-0.0649788 0.0863937 -0.994146 
-0.068701 0.0653116 -0.995504 
-0.0716971 0.0508279 -0.996137 
-0.0732855 0.0386599 -0.996567 
-0.0759128 0.0300461 -0.996668 
-0.077306 0.0228915 -0.996751 
-0.0777493 0.0171061 -0.996832 
-0.079959 0.0128324 -0.996721 
-0.0804514 0.00889332 -0.996725 
-0.0808557 0.00570483 -0.996715 
-0.0813657 0.00284493 -0.996686 
-0.0811073 8.07083e-05 -0.996711 
-0.0805996 -0.00259503 -0.996749 
-0.0805344 -0.00568582 -0.996741 
-0.0793816 -0.00916551 -0.996808 
-0.0778379 -0.0132178 -0.996884 
-0.077599 -0.0183505 -0.996822 
-0.0753837 -0.025024 -0.996847 
-0.0739332 -0.0324331 -0.996742 
-0.0728889 -0.0425989 -0.996437 
-0.0704574 -0.054858 -0.996012 
-0.068258 -0.0684711 -0.995322 
-0.0665288 -0.084691 -0.994192 
-0.0640289 -0.0968355 -0.993244 
-0.0629899 -0.0990636 -0.99309 
-0.0407868 -0.065745 -0.996995 
-0.0010658 -0.0275641 -0.999686 
0.00310837 -0.0250503 0.999685 
0.0342269 -0.0632594 0.997409 
0.0526208 -0.0926384 0.994314 
0.0601636 -0.0910266 0.994038 
0.0619531 -0.0825894 0.994664 
0.068392 -0.0711014 0.99513 
0.0685742 -0.0566549 0.996046 
0.0714467 -0.0424085 0.99655 
0.073243 -0.0331404 0.996771 
0.0752065 -0.0243912 0.996877 
0.0759498 -0.0179591 0.996957 
0.0775538 -0.0132083 0.996908 
0.078628 -0.00882245 0.996872 
0.079331 -0.00531664 0.996841 
0.0803832 -0.00230911 0.996768 
0.0804849 0.000304432 0.996763 
0.0808612 0.00317204 0.996727 
0.0806623 0.00626939 0.996729 
0.0800257 0.00988546 0.996751 
0.0786643 0.0141288 0.996808 
0.0770826 0.0193137 0.996845 
0.0753837 0.0255355 0.996835 
0.0737858 0.0334584 0.99672 
0.0716721 0.0433621 0.996493 
0.0692932 0.0563198 0.996013 
0.0662027 0.07249 0.995177 
0.0624314 0.0940641 0.993615 
0.0582237 0.121111 0.990938 
0.0532933 0.15536 0.986428 
0.0456738 0.203712 0.977974 
0.0383441 0.263547 0.963894 
0.02984 0.339058 0.940302 
0.0208557 0.427762 0.903664 
0.0115582 0.535021 0.844769 
0.0112908 0.579641 0.814808 
0.00424503 0.705421 0.708785 
-1.61556e-05 0.829644 0.558303 
-0.00195309 0.93195 0.362584 
-0.00343634 0.988889 0.14862 
-0.00271941 0.99959 -0.0285754 
-0.00372315 0.985737 -0.168245 
-0.00465517 0.929747 -0.368182 
-0.00678829 0.83945 -0.543412 
-0.00963186 0.738134 -0.674595 
-0.0136824 0.625964 -0.779736 
-0.0183207 0.51839 -0.854962 
-0.0268701 0.402646 -0.914972 
-0.0338554 0.311945 -0.949507 
-0.0417787 0.241708 -0.96946 
-0.0492902 0.185718 -0.981375 
-0.0551542 0.139574 -0.988683 
-0.0596932 0.109304 -0.992223 
-0.0651123 0.0833336 -0.994399 
-0.0668887 0.0655489 -0.995614 
-0.070326 0.0500421 -0.996275 
-0.0726883 0.0389792 -0.9966 
-0.0743289 0.0299666 -0.996791 
-0.0765888 0.0226459 -0.996813 
-0.0780917 0.017314 -0.996803 
-0.0790347 0.0123868 -0.996802 
-0.0798177 0.00849537 -0.99678 
-0.0804774 0.00510703 -0.99675 
-0.0808025 0.00196238 -0.996735 
-0.0806439 -0.000929883 -0.996749 
-0.0803722 -0.0038202 -0.996764 
-0.0793218 -0.00724791 -0.99683 
-0.0785747 -0.0109502 -0.996855 
-0.077359 -0.0151658 -0.996895 
-0.0757459 -0.0210971 -0.996911 
-0.0740612 -0.0275104 -0.996882 
-0.0724614 -0.0355001 -0.996747 
-0.0700063 -0.047857 -0.996406 
-0.0688261 -0.0600943 -0.995825 
-0.067771 -0.0745137 -0.994921 
-0.0637718 -0.0853784 -0.994313 
-0.0639066 -0.0926556 -0.993652 
-0.0579589 -0.0961554 -0.993684 
-0.0463547 -0.0768503 -0.99596 
-0.00308724 -0.0276632 -0.999653 
0.00481729 -0.0257534 0.999644 
0.0244136 -0.0524043 0.998344 
0.0524328 -0.0955804 0.994046 
0.0560479 -0.0888666 0.994473 
0.0547668 -0.0790299 0.995377 
0.0633679 -0.0705106 0.995503 
0.0600627 -0.0623018 0.996257 
0.0655259 -0.0499921 0.996606 
0.065131 -0.0389451 0.997125 
0.0686837 -0.0297182 0.997203 
0.0696295 -0.0226794 0.997323 
0.0690162 -0.0171744 0.997475 
0.0714433 -0.012365 0.997376 
0.0723171 -0.00834582 0.997354 
0.0730035 -0.00479184 0.997328 
0.0735332 -0.00184429 0.997298 
0.0742542 0.00128961 0.997246 
0.0743298 0.00450996 0.997231 
0.0740848 0.00812084 0.997226 
0.0727558 0.0121751 0.997283 
0.0712315 0.0169927 0.997323 
0.069448 0.022762 0.997333 
0.0680944 0.0298406 0.99724 
0.0662379 0.0384833 0.997069 
0.0643117 0.0495584 0.996706 
0.0615563 0.0633569 0.996099 
0.058666 0.0813321 0.994967 
0.0547317 0.104856 0.992989 
0.0505191 0.134226 0.989671 
0.0455923 0.172265 0.984004 
0.0372829 0.229863 0.972519 
0.0302061 0.296192 0.954659 
0.0215663 0.374273 0.927079 
0.013504 0.466317 0.884526 
0.00485356 0.653272 0.757117 
0.00107424 0.770295 0.637697 
-0.00105415 0.880904 0.473305 
-0.00120095 0.942257 0.334899 
-0.00192537 0.97931 0.202352 
-0.00204872 0.999808 0.0194394 
-0.00366552 0.977668 -0.210139 
-0.00388725 0.914353 -0.404904 
-0.00460986 0.833199 -0.552962 
-0.00713154 0.721433 -0.692455 
-0.0108115 0.600424 -0.799627 
-0.016114 0.488008 -0.872699 
-0.0234962 0.408178 -0.912612 
-0.0264216 0.343954 -0.938624 
-0.0338928 0.272338 -0.961615 
-0.0415431 0.211272 -0.976554 
-0.0477018 0.161847 -0.985671 
-0.0511149 0.124735 -0.990881 
-0.057882 0.0923802 -0.99405 
-0.0591354 0.07486 -0.995446 
-0.0627272 0.0572421 -0.996396 
-0.0647699 0.044285 -0.996925 
-0.0669659 0.0345121 -0.997166 
-0.0692747 0.0261246 -0.997263 
-0.0704495 0.0200173 -0.997322 
-0.0725674 0.0148674 -0.99726 
-0.0724891 0.0102355 -0.997324 
-0.0732878 0.00632452 -0.997298 
-0.0740704 0.002806 -0.997256 
-0.0737956 -0.000379726 -0.997281 
-0.0735901 -0.00353931 -0.99729 
-0.0733023 -0.00675483 -0.997294 
-0.0720518 -0.010669 -0.997351 
-0.0707286 -0.0148675 -0.997392 
-0.0705449 -0.0197787 -0.99732 
-0.0672107 -0.0264012 -0.997397 
-0.0657881 -0.0340311 -0.997261 
-0.0654154 -0.0436833 -0.99691 
-0.0621375 -0.0578301 -0.9964 
-0.0620985 -0.0713763 -0.995523 
-0.0573246 -0.0847588 -0.994759 
-0.055632 -0.0934927 -0.994072 
-0.0480648 -0.0940802 -0.994408 
-0.0359555 -0.0662956 -0.997151 
-0.00354307 -0.0316196 -0.99951 
0.00369572 -0.0262719 0.999649 
0.0228366 -0.0607 0.997898 
0.0420336 -0.0911403 0.994952 
0.0441468 -0.0959221 0.994417 
0.0477524 -0.0898167 0.994819 
0.0495023 -0.0721355 0.996174 
0.0533632 -0.0554329 0.997044 
0.0557985 -0.0454303 0.997416 
0.0574128 -0.0337963 0.997787 
0.0591006 -0.0265573 0.997907 
0.0586273 -0.0207173 0.998073 
0.0595779 -0.0151412 0.998117 
0.0614618 -0.0109025 0.998058 
0.0625869 -0.00702995 0.998022 
0.0620207 -0.00363937 0.998076 
0.0637385 -0.000339303 0.997974 
0.0637824 0.00312534 0.997967 
0.0635752 0.00692184 0.997961 
0.0622301 0.0110353 0.998008 
0.060999 0.0157594 0.998021 
0.0595383 0.0213103 0.998006 
0.0583087 0.0280803 0.997911 
0.0565492 0.0363073 0.997747 
0.0550527 0.0466271 0.997402 
0.0525646 0.0595896 0.996846 
0.0500896 0.0763773 0.995828 
0.0469383 0.0980305 0.994084 
0.0425886 0.127409 0.990945 
0.0385496 0.165058 0.98554 
0.0330835 0.214286 0.976221 
0.0237687 0.291441 0.956307 
0.0159634 0.380566 0.924627 
0.00811982 0.49509 0.868815 
0.00263991 0.615907 0.787826 
0.00610511 0.586315 0.810071 
0.00170578 0.697971 0.716139 
-0.000401347 0.817231 0.576324 
-0.000872491 0.882041 0.471183 
-0.0010814 0.983811 0.179262 
-2.15204e-05 0.99933 0.0365129 
-0.00306517 0.989721 -0.143051 
-0.0040497 0.949989 -0.312263 
-0.00315178 0.859639 -0.510884 
-0.00302165 0.751087 -0.66021 
-0.00504207 0.639698 -0.768619 
-0.00899623 0.516513 -0.856244 
-0.0157714 0.410018 -0.911955 
-0.0221864 0.319 -0.947507 
-0.0299174 0.250097 -0.967769 
-0.0367778 0.196737 -0.979774 
-0.0405499 0.154031 -0.987243 
-0.0469915 0.108941 -0.992945 
-0.0475528 0.0889437 -0.994909 
-0.0513006 0.0684878 -0.99634 
-0.0534585 0.0534135 -0.997148 
-0.055001 0.0416339 -0.997626 
-0.0580199 0.0320785 -0.997808 
-0.0588832 0.0249857 -0.99796 
-0.060282 0.0189286 -0.99801 
-0.062488 0.0138573 -0.997957 
-0.0616732 0.00919426 -0.998062 
-0.062921 0.00504601 -0.998013 
-0.0629288 0.00148348 -0.998025 
-0.0629658 -0.00192498 -0.998021 
-0.062329 -0.0052598 -0.998049 
-0.062756 -0.00877355 -0.997998 
-0.0606878 -0.012824 -0.998082 
-0.0602135 -0.0174521 -0.998041 
-0.0595357 -0.0225181 -0.99798 
-0.0557104 -0.0296069 -0.998016 
-0.0551136 -0.0381361 -0.99776 
-0.0559635 -0.0489017 -0.997241 
-0.0508339 -0.0610681 -0.996847 
-0.0528987 -0.0728202 -0.99595 
-0.0475678 -0.0862768 -0.995143 
-0.0471413 -0.0943469 -0.99443 
-0.0397809 -0.0961561 -0.994576 
-0.0269266 -0.0605458 -0.997803 
-0.00342068 -0.029369 -0.99957 
0.00246325 -0.0284958 0.999599 
0.0208229 -0.071791 0.997199 
0.0348499 -0.095727 0.994802 
0.035759 -0.0948155 0.994862 
0.041796 -0.0855033 0.995469 
0.0376196 -0.0752591 0.996462 
0.0431602 -0.0618227 0.99716 
0.040954 -0.0491764 0.99796 
0.0469449 -0.0398033 0.998111 
0.0454327 -0.0310903 0.998491 
0.0463763 -0.024954 0.99862 
0.0481336 -0.0190133 0.998668 
0.047896 -0.0141929 0.998759 
0.0502317 -0.0100854 0.998694 
0.0506532 -0.00642157 0.998703 
0.0506408 -0.00275444 0.998721 
0.0520109 0.000694733 0.998654 
0.0518252 0.00450339 0.998654 
0.0505328 0.00850792 0.998694 
0.0496257 0.013041 0.99869 
0.0487931 0.0181753 0.998651 
0.0477859 0.0241529 0.998573 
0.046482 0.0312176 0.998439 
0.0450435 0.0399531 0.998193 
0.0435094 0.0506404 0.997776 
0.0415077 0.0645628 0.997058 
0.0390851 0.0823166 0.995848 
0.0362528 0.105865 0.993728 
0.032154 0.138034 0.989915 
0.0284424 0.179491 0.983359 
0.0237303 0.238525 0.970857 
0.0152455 0.323229 0.94621 
0.00939961 0.419435 0.907746 
0.00399795 0.525376 0.850872 
-0.000648607 0.744548 0.667578 
-0.00133818 0.879261 0.476346 
0.00145782 0.949644 0.313307 
0.00366496 0.982168 0.187926 
0.000139237 0.970224 0.242316 
0.00246013 0.994705 0.102668 
0.0016217 0.995515 -0.0944412 
0.000360104 0.987442 -0.158091 
-0.00359417 0.938165 -0.346201 
-0.00097694 0.814157 -0.58067 
-0.00171697 0.711184 -0.703017 
-0.00310839 0.567353 -0.823484 
-0.00835914 0.440483 -0.897735 
-0.0137879 0.344777 -0.938595 
-0.0220225 0.254588 -0.96681 
-0.0284408 0.192049 -0.980985 
-0.0275044 0.158987 -0.986903 
-0.0374013 0.13333 -0.990378 
-0.0352909 0.106997 -0.99364 
-0.0391273 0.0822417 -0.995853 
-0.0414831 0.0642637 -0.997078 
-0.0432082 0.0498828 -0.997828 
-0.0455402 0.0381028 -0.998243 
-0.0467652 0.0297806 -0.99847 
-0.0481365 0.0227098 -0.99859 
-0.049473 0.0167513 -0.998643 
-0.0506872 0.011872 -0.998652 
-0.0507103 0.00681416 -0.998698 
-0.0506682 0.00272573 -0.998719 
-0.051092 -0.00105968 -0.998701 
-0.050359 -0.00461595 -0.998728 
-0.050557 -0.00830809 -0.998694 
-0.0495711 -0.012127 -0.998705 
-0.0489085 -0.0167893 -0.99867 
-0.0472756 -0.0219922 -0.998648 
-0.0457784 -0.0278469 -0.998571 
-0.0438106 -0.0367123 -0.998375 
-0.0446119 -0.0474515 -0.997885 
-0.0407866 -0.0616298 -0.997274 
-0.0410579 -0.0770866 -0.996187 
-0.0359052 -0.0894741 -0.99535 
-0.03711 -0.0956914 -0.994726 
-0.0305431 -0.0984704 -0.994677 
-0.0246475 -0.0748149 -0.99689 
-0.00300271 -0.0285724 -0.999591 
0.00165394 -0.0306308 0.999532 
0.0153271 -0.0702167 0.997413 
0.0276223 -0.0986107 0.994749 
0.0257329 -0.0976809 0.994892 
0.0318328 -0.0900768 0.995434 
0.0287623 -0.0779097 0.996554 
0.0325324 -0.0612259 0.997602 
0.0309991 -0.0478396 0.998382 
0.0355947 -0.0380301 0.99865 
0.0332717 -0.0306588 0.998987 
0.0363961 -0.0241261 0.999051 
0.0375713 -0.0185607 0.999129 
0.0370705 -0.0138538 0.999226 
0.0392563 -0.00978923 0.999189 
0.0403359 -0.00577727 0.999176 
0.0397434 -0.00190322 0.999217 
0.0409892 0.00192607 0.999164 
0.0396643 0.00601062 0.999204 
0.038964 0.0107027 0.999191 
0.0385045 0.0158887 0.99914 
0.0377854 0.0216095 0.99906 
0.036778 0.0282161 0.998932 
0.0356473 0.0363269 0.998711 
0.0341972 0.0464256 0.998344 
0.0328688 0.0591614 0.997715 
0.0307934 0.0758545 0.996651 
0.0284506 0.0978928 0.994799 
0.0254201 0.127348 0.991542 
0.0216041 0.16997 0.985223 
0.0184033 0.225693 0.974034 
0.0129579 0.29757 0.954624 
0.00687656 0.402373 0.915464 
0.00266789 0.519794 0.854299 
4.87751e-05 0.645954 0.763386 
-6.35828e-05 0.639262 0.768998 
0.000489081 0.860853 0.508868 
0.00670848 0.940341 0.340152 
0.00654409 0.998247 0.0588913 
0.00496306 0.999787 0.0200864 
0.00543585 0.999984 0.00192378 
0.00515114 0.999828 -0.0177361 
0.00302356 0.996839 -0.0793583 
0.00117632 0.967462 -0.253024 
-0.00158988 0.834432 -0.551214 
-0.000932318 0.614837 -0.788662 
-0.00075509 0.569382 -0.822082 
-0.00326871 0.484972 -0.874535 
-0.00611505 0.390509 -0.920591 
-0.0127439 0.293608 -0.955853 
-0.0185148 0.221915 -0.974903 
-0.0189857 0.179125 -0.983652 
-0.0268216 0.127306 -0.991515 
-0.0286204 0.0943809 -0.995134 
-0.0308355 0.0736134 -0.996818 
-0.0329606 0.0576155 -0.997802 
-0.0349405 0.0443306 -0.998413 
-0.0356142 0.0348557 -0.998765 
-0.0371252 0.0270499 -0.998952 
-0.0383065 0.0205433 -0.999062 
-0.0386393 0.0150675 -0.999149 
-0.0407807 0.00994726 -0.999125 
-0.0393728 0.00519857 -0.99922 
-0.0399519 0.000915775 -0.999209 
-0.0395326 -0.00284951 -0.999222 
-0.0395557 -0.00666903 -0.999203 
-0.0386159 -0.0104104 -0.999207 
-0.0387486 -0.014628 -0.99915 
-0.0373308 -0.0193537 -0.999123 
-0.0353063 -0.0246977 -0.999079 
-0.0354399 -0.031576 -0.998879 
-0.032386 -0.0400974 -0.998679 
-0.0344824 -0.0491568 -0.998204 
-0.0301105 -0.0609957 -0.997692 
-0.0316611 -0.0746429 -0.996716 
-0.0274992 -0.088679 -0.995689 
-0.0266548 -0.0978279 -0.994854 
-0.0219531 -0.0984821 -0.994901 
-0.0164432 -0.0660725 -0.99768 
-0.00193855 -0.031836 -0.999486 
0.000827222 -0.0299183 0.999553 
0.0106893 -0.0704418 0.997463 
0.0196424 -0.0991507 0.994883 
0.0187836 -0.0991444 0.994903 
0.0231629 -0.0901583 0.995666 
0.0206007 -0.0774222 0.996794 
0.0245032 -0.0635541 0.997686 
0.0228256 -0.0508966 0.998451 