# vtk DataFile Version 3.0 
Exported using Morpho https://github.com/Morpho-lang/morpho 
ASCII 
DATASET UNSTRUCTURED_GRID 

POINTS 1978 float 
-8.48528 -2.82843 -4.67048e-12 
-8.2602 -2.82843 9.8138e-12 
-8.03625 -2.82843 3.85615e-11 
-7.76282 -2.82843 3.62573e-11 
-7.46433 -2.82843 2.74397e-11 
-7.23315 -2.82843 2.03842e-11 
-6.9863 -2.82843 1.65161e-11 
-6.77771 -2.82843 1.11242e-11 
-6.56255 -2.82843 9.76993e-12 
-6.34316 -2.82843 7.53342e-12 
-6.14998 -2.82843 4.73019e-12 
-5.92853 -2.82843 3.43934e-12 
-5.71539 -2.82843 2.15099e-12 
-5.51051 -2.82843 1.02052e-12 
-5.29328 -2.82843 3.92595e-13 
-5.08166 -2.82843 -2.79194e-13 
-4.86412 -2.82843 -8.69348e-13 
-4.65778 -2.82843 -1.79485e-12 
-4.438 -2.82843 -2.60294e-12 
-4.22112 -2.82843 -3.78952e-12 
-4.00287 -2.82843 -5.08327e-12 
-3.79247 -2.82843 -6.71137e-12 
-3.57636 -2.82843 -8.74151e-12 
-3.36332 -2.82843 -1.10799e-11 
-3.14079 -2.82843 -1.39955e-11 
-2.92882 -2.82843 -1.69837e-11 
-2.71685 -2.82843 -2.05018e-11 
-2.51934 -2.82843 -2.44356e-11 
-2.30653 -2.82843 -2.71656e-11 
-2.0953 -2.82843 -2.97469e-11 
-1.88831 -2.82843 -3.04333e-11 
-1.68351 -2.82843 -2.9296e-11 
-1.48138 -2.82843 -2.48857e-11 
-1.26851 -2.82843 -2.12609e-11 
-1.0899 -2.82843 -1.25555e-11 
-0.834368 -2.82843 -7.26048e-12 
-0.624318 -2.82843 -5.33099e-12 
-0.444077 -2.82843 -4.9941e-12 
-0.209966 -2.82843 -6.13725e-12 
0.027881 -2.82843 1.03221e-12 
0.220245 -2.82843 1.1199e-11 
0.416061 -2.82843 6.84646e-12 
0.629743 -2.82843 8.61793e-12 
0.848557 -2.82843 1.76708e-11 
1.05242 -2.82843 9.53195e-12 
1.25465 -2.82843 2.56445e-11 
1.44219 -2.82843 1.9476e-11 
1.68605 -2.82843 3.21918e-11 
1.87835 -2.82843 3.34119e-11 
2.09244 -2.82843 2.79495e-11 
2.31228 -2.82843 2.92074e-11 
2.50691 -2.82843 2.40352e-11 
2.73559 -2.82843 2.04855e-11 
2.95236 -2.82843 1.74176e-11 
3.1698 -2.82843 1.39862e-11 
3.37559 -2.82843 1.03618e-11 
3.60025 -2.82843 8.53566e-12 
3.80412 -2.82843 6.68339e-12 
4.02033 -2.82843 5.01875e-12 
4.24746 -2.82843 4.01005e-12 
4.44677 -2.82843 2.77367e-12 
4.65906 -2.82843 1.8864e-12 
4.86793 -2.82843 1.04454e-12 
5.0717 -2.82843 2.42248e-13 
5.28827 -2.82843 -4.96468e-13 
5.49917 -2.82843 -1.49413e-12 
5.704 -2.82843 -2.49675e-12 
5.92343 -2.82843 -3.6797e-12 
6.14416 -2.82843 -5.43527e-12 
6.34486 -2.82843 -7.33034e-12 
6.58475 -2.82843 -8.96192e-12 
6.79431 -2.82843 -1.2481e-11 
6.99416 -2.82843 -1.48597e-11 
7.25063 -2.82843 -1.94369e-11 
7.47855 -2.82843 -2.70486e-11 
7.71628 -2.82843 -3.11995e-11 
7.98036 -2.82843 -4.37792e-11 
8.16645 -2.82843 -1.43604e-11 
8.48528 -2.82843 2.03183e-12 
-8.48528 -2.59752 3.18719e-12 
-8.2443 -2.57784 9.76675e-12 
-8.0033 -2.58748 5.78906e-11 
-7.76234 -2.61726 3.87657e-11 
-7.50639 -2.64289 2.94595e-11 
-7.21444 -2.60002 2.20284e-11 
-6.98032 -2.5836 2.02057e-11 
-6.76689 -2.58326 1.26453e-11 
-6.53451 -2.59865 1.31304e-11 
-6.33259 -2.56181 1.10653e-11 
-6.10923 -2.59913 6.40978e-12 
-5.89246 -2.58564 5.68061e-12 
-5.68244 -2.57333 3.88218e-12 
-5.46476 -2.58891 1.89728e-12 
-5.24905 -2.5829 9.54261e-13 
-5.03046 -2.58953 -3.75009e-13 
-4.82005 -2.57735 -1.59452e-12 
-4.60117 -2.59284 -2.78458e-12 
-4.38174 -2.58919 -4.27043e-12 
-4.16326 -2.58932 -5.93006e-12 
-3.95215 -2.57815 -8.31689e-12 
-3.73939 -2.5838 -1.00885e-11 
-3.52691 -2.58279 -1.42346e-11 
-3.30919 -2.59528 -1.62701e-11 
-3.09617 -2.58953 -2.29808e-11 
-2.88335 -2.59454 -2.49199e-11 
-2.68126 -2.58403 -3.39437e-11 
-2.47083 -2.60522 -3.67528e-11 
-2.25277 -2.60242 -4.07032e-11 
-2.04475 -2.59684 -4.51254e-11 
-1.83328 -2.59684 -5.23256e-11 
-1.619 -2.58995 -4.43534e-11 
-1.4119 -2.59499 -5.50014e-11 
-1.2304 -2.52207 -1.88465e-12 
-1.00993 -2.63288 -1.27434e-11 
-0.789426 -2.58258 9.75902e-12 
-0.600045 -2.51627 -1.05432e-11 
-0.382428 -2.52822 2.98734e-11 
-0.15769 -2.55021 5.31999e-11 
0.0270346 -2.43572 -6.77752e-11 
0.203008 -2.49181 5.97624e-12 
0.400972 -2.53123 9.71905e-12 
0.606913 -2.56049 1.77913e-11 
0.827277 -2.58173 6.94642e-13 
1.05241 -2.57122 1.29184e-11 
1.25861 -2.5706 2.96664e-11 
1.50119 -2.63861 3.07828e-11 
1.71573 -2.58813 6.64389e-11 
1.93702 -2.61482 4.34246e-11 
2.16385 -2.61346 3.37849e-11 
2.37315 -2.5824 5.28112e-11 
2.58289 -2.61118 2.8038e-11 
2.80551 -2.5952 2.7854e-11 
3.02135 -2.5986 2.59058e-11 
3.22708 -2.57868 1.87356e-11 
3.44429 -2.59784 1.3583e-11 
3.65119 -2.57286 1.31644e-11 
3.86495 -2.58769 8.70395e-12 
4.09178 -2.59981 6.1004e-12 
4.2999 -2.56836 5.82697e-12 
4.51402 -2.58669 3.09739e-12 
4.72772 -2.58321 2.15785e-12 
4.93982 -2.57843 9.3462e-13 
5.15487 -2.59305 -4.77995e-13 
5.37362 -2.58642 -1.53936e-12 
5.58499 -2.57782 -3.30101e-12 
5.80193 -2.59287 -4.54694e-12 
6.02665 -2.59213 -6.05916e-12 
6.24005 -2.56548 -1.0436e-11 
6.46025 -2.60768 -9.39012e-12 
6.68595 -2.5738 -1.5232e-11 
6.89275 -2.55945 -2.11234e-11 
7.11778 -2.62015 -1.84006e-11 
7.36549 -2.59099 -2.91795e-11 
7.60016 -2.59859 -3.04603e-11 
7.85328 -2.61959 -3.34965e-11 
8.0674 -2.52715 -4.74389e-11 
8.29507 -2.64483 -9.73892e-12 
8.48528 -2.52158 -1.48878e-12 
-8.48528 -2.36222 6.9232e-12 
-8.22868 -2.34729 1.49621e-11 
-7.98857 -2.33993 2.13169e-11 
-7.75113 -2.39151 2.52549e-11 
-7.55219 -2.24461 1.26157e-11 
-7.45437 -2.4541 3.38103e-11 
-7.17299 -2.38186 2.34513e-11 
-6.94606 -2.3325 1.59035e-11 
-6.70227 -2.36857 1.21857e-11 
-6.49012 -2.33858 8.74569e-12 
-6.24118 -2.34779 7.28211e-12 
-6.02805 -2.35497 5.6063e-12 
-5.81028 -2.33529 3.44692e-12 
-5.58213 -2.34169 2.49343e-12 
-5.36616 -2.34604 1.65015e-12 
-5.14182 -2.34985 4.16941e-13 
-4.92815 -2.33781 -6.92338e-13 
-4.70401 -2.3508 -1.85059e-12 
-4.48538 -2.356 -3.08305e-12 
-4.26318 -2.35265 -4.42416e-12 
-4.04964 -2.3372 -5.5189e-12 
-3.83349 -2.33695 -7.21811e-12 
-3.62113 -2.34012 -9.61139e-12 
-3.4033 -2.3543 -1.28223e-11 
-3.19133 -2.35462 -1.6215e-11 
-2.97591 -2.35984 -1.9937e-11 
-2.76905 -2.34729 -2.22469e-11 
-2.55631 -2.36613 -2.90145e-11 
-2.34559 -2.38667 -3.87948e-11 
-2.12511 -2.36341 -3.8069e-11 
-1.91352 -2.36874 -4.15965e-11 
-1.69374 -2.36937 -4.03579e-11 
-1.46976 -2.34365 -1.48063e-11 
-1.25049 -2.28179 -3.49443e-11 
-1.01414 -2.39765 -2.60361e-11 
-0.818031 -2.31013 -7.84447e-12 
-0.581678 -2.25189 3.12955e-11 
-0.380839 -2.18129 -3.85054e-11 
-0.187877 -2.23462 4.62017e-11 
0.0323575 -2.09667 8.92888e-11 
0.236667 -2.12243 -1.43376e-10 
0.411458 -2.22398 7.7165e-11 
0.613614 -2.26874 -2.89209e-11 
0.821321 -2.3176 -1.22759e-11 
1.03734 -2.32633 -4.36888e-12 
1.25585 -2.31872 1.02732e-11 
1.4644 -2.42202 4.49828e-11 
1.64468 -2.34378 3.10065e-11 
1.86322 -2.39062 4.73037e-11 
2.08528 -2.40299 4.68609e-11 
2.30584 -2.36409 3.33809e-11 
2.53012 -2.36323 2.96487e-11 
2.73041 -2.38071 2.85744e-11 
2.96192 -2.36446 2.07006e-11 
3.16408 -2.3389 1.55095e-11 
3.37876 -2.3571 1.34845e-11 
3.58263 -2.33066 9.56259e-12 
3.79579 -2.34011 7.86415e-12 
4.01144 -2.36638 6.73518e-12 
4.2202 -2.32925 4.12578e-12 
4.4405 -2.33959 3.15055e-12 
4.65071 -2.34074 1.99232e-12 
4.86264 -2.33873 9.25091e-13 
5.08109 -2.34735 -1.42537e-14 
5.29219 -2.3547 -1.21503e-12 
5.5091 -2.33664 -2.11974e-12 
5.72758 -2.34868 -3.38631e-12 
5.94477 -2.36013 -5.2358e-12 
6.16098 -2.32943 -6.21409e-12 
6.39404 -2.35354 -8.88411e-12 
6.60234 -2.35092 -1.15171e-11 
6.82607 -2.30511 -1.11507e-11 
7.05377 -2.36357 -1.7766e-11 
7.27092 -2.3865 -2.28379e-11 
7.52916 -2.36217 -2.17664e-11 
7.77124 -2.39413 -3.03636e-11 
7.98836 -2.30016 -1.58159e-11 
8.25606 -2.36905 -1.83018e-11 
8.48528 -2.27359 -6.13731e-12 
-8.48528 -2.09799 5.00023e-12 
-8.2634 -2.11559 -2.88845e-12 
-8.02896 -2.09231 -2.50044e-12 
-7.78456 -2.1388 4.80412e-12 
-7.50859 -2.02556 -6.28853e-13 
-7.30256 -2.2188 5.20638e-12 
-7.06008 -2.11582 4.31985e-12 
-6.79978 -2.13452 5.20489e-12 
-6.59121 -2.10603 5.49191e-12 
-6.35282 -2.13469 4.10347e-12 
-6.12393 -2.10374 2.71613e-12 
-5.91847 -2.10428 2.23798e-12 
-5.69071 -2.11101 1.5859e-12 
-5.46893 -2.1022 1.05006e-12 
-5.25182 -2.11647 5.25524e-13 
-5.03849 -2.10231 -8.9143e-14 
-4.81522 -2.1138 -6.31327e-13 
-4.59781 -2.11842 -1.15011e-12 
-4.3812 -2.12224 -1.63413e-12 
-4.17002 -2.10396 -2.12356e-12 
-3.95507 -2.09832 -2.6682e-12 
-3.74268 -2.09733 -3.61861e-12 
-3.52793 -2.11204 -4.70366e-12 
-3.31883 -2.11683 -5.86832e-12 
-3.10616 -2.1249 -7.29353e-12 
-2.90056 -2.11848 -8.7445e-12 
-2.6845 -2.12346 -1.06522e-11 
-2.47369 -2.14135 -1.27008e-11 
-2.26487 -2.15812 -1.59759e-11 
-2.03799 -2.12924 -1.74135e-11 
-1.81993 -2.14472 -1.60839e-11 
-1.60069 -2.1341 -1.34426e-11 
-1.38258 -2.07654 7.5616e-12 
-1.17564 -1.94723 5.53084e-12 
-1.06379 -2.14461 3.13945e-11 
-0.816706 -2.07068 2.87857e-11 
-0.591279 -1.97075 1.3958e-11 
-0.350509 -1.88313 5.62233e-11 
-0.127564 -1.90254 -6.70579e-11 
0.0442507 -1.57318 -1.51042e-11 
0.139814 -1.76668 -7.25515e-11 
0.342314 -1.83986 1.33125e-10 
0.552396 -1.93912 -1.08449e-10 
0.755868 -2.01098 -1.60174e-11 
0.963005 -2.05218 2.30383e-11 
1.17396 -2.06667 -3.72462e-12 
1.41864 -2.15504 1.11776e-11 
1.66528 -2.13019 1.59484e-11 
1.89707 -2.17093 1.27953e-11 
2.12163 -2.17899 1.73777e-11 
2.35272 -2.14489 1.50587e-11 
2.55702 -2.1141 1.49384e-11 
2.78433 -2.17155 1.01645e-11 
2.98707 -2.11301 7.20969e-12 
3.20647 -2.11154 6.46504e-12 
3.40816 -2.1073 5.60016e-12 
3.62388 -2.09447 3.68159e-12 
3.84141 -2.11022 3.22844e-12 
4.04397 -2.11567 2.50074e-12 
4.2718 -2.09984 1.72606e-12 
4.48312 -2.09765 1.30056e-12 
4.69599 -2.0993 7.78075e-13 
4.91527 -2.10875 2.98242e-13 
5.12843 -2.10686 -1.88993e-13 
5.34045 -2.11666 -7.23712e-13 
5.56439 -2.10519 -1.08322e-12 
5.78175 -2.11447 -1.62797e-12 
5.99266 -2.11418 -2.28991e-12 
6.23394 -2.11314 -2.76071e-12 
6.44285 -2.09916 -3.86491e-12 
6.65492 -2.10407 -4.72102e-12 
6.90919 -2.09279 -4.36595e-12 
7.12347 -2.12447 -5.22877e-12 
7.35289 -2.1705 -4.73366e-12 
7.54498 -2.07369 -5.20283e-13 
7.73057 -2.15995 -6.44339e-12 
7.95113 -2.06612 6.62985e-13 
8.20305 -2.14303 -1.79581e-12 
8.48528 -2.07235 -3.86915e-12 
-8.48528 -1.79577 3.35586e-12 
-8.29481 -1.86602 -6.14972e-12 
-7.88466 -1.8916 -9.26118e-13 
[...]
POINT_DATA 1978 
VECTORS vectors float
-0.000168003 -0.00349442 0.999994 
0.000919567 -0.0909582 0.995854 
-0.000197463 -0.108586 0.994087 
0.000266098 -0.101213 0.994865 
0.00017961 -0.0825034 0.996591 
0.00022804 -0.066472 0.997788 
0.000158209 -0.0520417 0.998645 
0.000474401 -0.0409928 0.999159 
0.000167563 -0.0310323 0.999518 
0.000340746 -0.0225479 0.999746 
0.000357384 -0.0164164 0.999865 
0.000273488 -0.0108459 0.999941 
0.000298819 -0.00658602 0.999978 
0.000356939 -0.00365401 0.999993 
0.000270704 -0.00124864 0.999999 
0.000323921 0.000686098 1 
0.000306815 0.00273623 0.999996 
0.000331015 0.00493595 0.999988 
0.000280528 0.00770772 0.99997 
0.000295823 0.0111673 0.999938 
0.000297848 0.0155067 0.99988 
0.000327319 0.0208189 0.999783 
0.000284488 0.0276964 0.999616 
0.000296803 0.0363152 0.99934 
0.000254532 0.0481084 0.998842 
0.000292873 0.0629452 0.998017 
0.000326635 0.082578 0.996585 
0.000287238 0.106011 0.994365 
0.000246803 0.138433 0.990372 
0.000225916 0.179947 0.983676 
0.000249322 0.231072 0.972937 
0.000202094 0.293315 0.956016 
0.000143194 0.369151 0.92937 
0.000180339 0.463458 0.886119 
8.8778e-05 0.553297 0.832984 
9.63338e-06 0.693594 0.720366 
2.47683e-05 0.809214 0.587513 
2.12883e-05 0.892647 0.450756 
-1.7001e-05 0.974838 0.222915 
1.34297e-05 0.999472 -0.0325042 
1.33877e-05 0.971216 -0.238201 
-1.04294e-05 0.906856 -0.421441 
-5.19213e-05 0.808334 -0.588724 
3.34818e-05 0.68569 -0.727894 
-0.000190352 0.570774 -0.821107 
-6.98594e-05 0.467073 -0.884219 
-0.00022123 0.383411 -0.923578 
-0.000118354 0.293382 -0.955995 
-0.000234993 0.23572 -0.971821 
-0.000276803 0.182706 -0.983168 
-0.000211687 0.138296 -0.990391 
-0.000306292 0.108701 -0.994074 
-0.0002361 0.0814718 -0.996676 
-0.000273386 0.0615123 -0.998106 
-0.000293295 0.0467458 -0.998907 
-0.000314832 0.0358242 -0.999358 
-0.000291426 0.026772 -0.999642 
-0.000302649 0.0206802 -0.999786 
-0.000299428 0.0156829 -0.999877 
-0.000278124 0.0113063 -0.999936 
-0.000339564 0.00836938 -0.999965 
-0.000347715 0.0055189 -0.999985 
-0.00030815 0.0029238 -0.999996 
-0.000316944 0.000795178 -1 
-0.000313083 -0.00177392 -0.999998 
-0.000330399 -0.00452807 -0.99999 
-0.000298338 -0.00739217 -0.999973 
-0.000301517 -0.0115389 -0.999933 
-0.000316396 -0.0167638 -0.999859 
-0.000248723 -0.0223272 -0.999751 
-0.000292342 -0.0309739 -0.99952 
-0.000323717 -0.0399334 -0.999202 
-0.000280846 -0.0502816 -0.998735 
-0.000235963 -0.0674281 -0.997724 
-0.000135379 -0.0852949 -0.996356 
-0.000431038 -0.104901 -0.994483 
-9.77452e-05 -0.119142 -0.992877 
-0.000267623 -0.111472 -0.993768 
-9.77373e-05 -0.00189361 -0.999998 
0.000879935 -0.000207483 1 
0.0271499 -0.0696366 0.997203 
0.0451031 -0.0992392 0.994041 
0.0404786 -0.0986473 0.994299 
0.0369457 -0.0841719 0.995766 
0.0447315 -0.0645862 0.996909 
0.0501303 -0.0519646 0.99739 
0.0500942 -0.0405032 0.997923 
0.0511445 -0.0306094 0.998222 
0.0586506 -0.0231194 0.998011 
0.0515878 -0.0159338 0.998541 
0.0548594 -0.0105932 0.998438 
0.0586859 -0.00692409 0.998252 
0.0558513 -0.00373528 0.998432 
0.0577863 -0.00120742 0.998328 
0.0564669 0.00102539 0.998404 
0.0594785 0.00322159 0.998224 
0.0556212 0.00580641 0.998435 
0.0562545 0.00894426 0.998376 
0.0555948 0.0127758 0.998372 
0.0569541 0.0174393 0.998224 
0.0547376 0.0232891 0.998229 
0.0544675 0.0307116 0.998043 
0.0506394 0.0403823 0.9979 
0.0509967 0.0528701 0.997298 
0.0480688 0.069114 0.99645 
0.048135 0.0893493 0.994837 
0.0418757 0.115689 0.992402 
0.0383143 0.151348 0.987738 
0.0348201 0.1952 0.980145 
0.0305466 0.250121 0.967732 
0.0252779 0.319984 0.947086 
0.0193217 0.401694 0.91557 
0.0164862 0.488802 0.872239 
0.00755844 0.609808 0.792513 
0.00508358 0.730202 0.683212 
0.00348334 0.825979 0.563691 
0.000796585 0.920612 0.390477 
-0.000316641 0.978775 0.204938 
-0.00240833 0.99999 0.00378338 
-0.00343477 0.978778 -0.204896 
-0.00498082 0.915874 -0.401434 
-0.00673449 0.81956 -0.572954 
-0.00886354 0.696353 -0.717645 
-0.0130022 0.571288 -0.820646 
-0.0179134 0.467749 -0.88368 
-0.0186006 0.360256 -0.932668 
-0.0295415 0.285298 -0.957983 
-0.0308407 0.22308 -0.974312 
-0.0347755 0.170087 -0.984815 
-0.0445939 0.132431 -0.990189 
-0.0409761 0.101729 -0.993968 
-0.0466428 0.0770733 -0.995934 
-0.0494182 0.0587518 -0.997049 
-0.053108 0.0454377 -0.997554 
-0.0507942 0.0342096 -0.998123 
-0.0569013 0.0263348 -0.998032 
-0.0545534 0.0199721 -0.998311 
-0.0526786 0.014679 -0.998504 
-0.060168 0.0108616 -0.998129 
-0.0565519 0.00753914 -0.998371 
-0.0575542 0.00461396 -0.998332 
-0.0594036 0.00202734 -0.998232 
-0.0555837 -0.000470948 -0.998454 
-0.057252 -0.00324504 -0.998354 
-0.0586357 -0.00623 -0.99826 
-0.0542836 -0.00977447 -0.998478 
-0.0537685 -0.0144193 -0.998449 
-0.0583084 -0.019896 -0.9981 
-0.0479386 -0.0266952 -0.998493 
-0.0542651 -0.0355559 -0.997893 
-0.0554601 -0.0454414 -0.997426 
-0.0422914 -0.0583333 -0.997401 
-0.0476074 -0.0753049 -0.996023 
-0.0448316 -0.0919682 -0.994752 
-0.0408519 -0.107069 -0.993412 
-0.0510235 -0.102077 -0.993467 
-0.0182355 -0.0637377 -0.9978 
-0.000280846 9.06541e-05 -1 
-0.000936637 -0.000439464 0.999999 
0.0430705 -0.0741887 0.996314 
0.060217 -0.0963782 0.993522 
0.0610701 -0.0916583 0.993916 
0.0667648 -0.0838508 0.994239 
0.0624961 -0.0787914 0.99493 
0.0685786 -0.0619002 0.995724 
0.0715938 -0.0491505 0.996222 
0.0723564 -0.0379073 0.996658 
0.0747916 -0.0289895 0.996778 
0.0761559 -0.0204096 0.996887 
0.0768301 -0.014609 0.996937 
0.0788288 -0.0101552 0.996836 
0.0795992 -0.006187 0.996808 
0.080233 -0.00309349 0.996771 
0.0806674 -0.000446399 0.996741 
0.0812116 0.00192357 0.996695 
0.0808502 0.00462844 0.996716 
0.0802869 0.00771041 0.996742 
0.0794124 0.0114599 0.996776 
0.0785966 0.0159557 0.996779 
0.0771353 0.0215021 0.996789 
0.0756657 0.028344 0.99673 
0.0736073 0.0373108 0.996589 
0.0716381 0.0486735 0.996242 
0.0688634 0.0636956 0.995591 
0.0659844 0.0825262 0.994402 
0.0619438 0.106903 0.992338 
0.0569157 0.137775 0.988827 
0.0510346 0.180517 0.982247 
0.0441804 0.231807 0.971758 
0.0362519 0.299557 0.953389 
0.0274034 0.385166 0.92244 
0.0198357 0.478109 0.878077 
0.0133801 0.583663 0.811885 
0.00720092 0.699468 0.714627 
0.00175603 0.824042 0.566526 
-0.00123304 0.91643 0.400193 
-0.00289229 0.979705 0.200424 
-0.00459864 0.999371 -0.0351544 
-0.00559038 0.970001 -0.243038 
-0.00667974 0.902236 -0.431191 
-0.00904933 0.808813 -0.587997 
-0.0124526 0.691775 -0.722006 
-0.0171204 0.577419 -0.816268 
-0.0234475 0.473049 -0.880724 
-0.0296285 0.379656 -0.924653 
-0.0364947 0.313458 -0.948901 
-0.0435751 0.245318 -0.968463 
-0.0496112 0.189475 -0.980631 
-0.0562933 0.14613 -0.987663 
-0.0611278 0.110963 -0.991943 
-0.0648435 0.0864114 -0.994147 
-0.0685734 0.0653207 -0.995505 
-0.071581 0.0508381 -0.996138 
-0.0731571 0.0386682 -0.996571 
-0.075795 0.0300519 -0.99667 
-0.0771789 0.0228952 -0.996754 
-0.077605 0.0171094 -0.996837 
-0.0798362 0.0128337 -0.996725 
-0.0803213 0.00889456 -0.996729 
-0.0807259 0.00570556 -0.99672 
-0.0812361 0.00284495 -0.996691 
-0.0809726 8.03847e-05 -0.996716 
-0.0804613 -0.00259646 -0.996754 
-0.0804072 -0.00568735 -0.996746 
-0.0792457 -0.00916708 -0.996813 
-0.0776973 -0.013221 -0.996889 
-0.0774753 -0.0183537 -0.996825 
-0.0752454 -0.025027 -0.996851 
-0.0738001 -0.0324383 -0.996745 
-0.0727832 -0.042602 -0.996437 
-0.0703162 -0.0548571 -0.996015 
-0.0681056 -0.0684612 -0.995326 
-0.0663896 -0.0846583 -0.994196 
-0.0638698 -0.0967944 -0.993253 
-0.0628216 -0.0988916 -0.993113 
-0.0406072 -0.0655833 -0.997021 
0.000998356 -0.000687947 -0.999999 
-0.00038717 -0.000544506 1 
0.0341365 -0.0630483 0.997426 
0.0525316 -0.0924518 0.99433 
0.060115 -0.0909847 0.994036 
0.0619218 -0.0825439 0.994662 
0.0683269 -0.0710669 0.995129 
0.0685298 -0.0566449 0.99604 
0.0714011 -0.0424109 0.996546 
0.0731874 -0.0331456 0.996767 
0.0751554 -0.0243967 0.996873 
0.075902 -0.0179625 0.996953 
0.0774968 -0.0132102 0.996905 
0.0785759 -0.00882452 0.996869 
0.0792794 -0.00531833 0.996838 
0.0803275 -0.00231009 0.996766 
0.0804321 0.000304815 0.99676 
0.0808065 0.00317306 0.996725 
0.0806074 0.00627089 0.996726 
0.0799705 0.00988686 0.996748 
0.0786111 0.0141303 0.996805 
0.0770317 0.0193149 0.996842 
0.0753347 0.0255387 0.996831 
0.0737364 0.0334623 0.996716 
0.0716242 0.0433676 0.996488 
0.0692453 0.0563259 0.996008 
0.0661558 0.0724968 0.995172 
0.0623867 0.094074 0.993609 
0.0581799 0.121123 0.990931 
0.0532474 0.155373 0.98642 
0.0456355 0.203738 0.977961 
0.0383097 0.263572 0.963879 
0.0298123 0.339072 0.940288 
0.0208315 0.427778 0.903644 
0.0115619 0.534921 0.844823 
0.011268 0.579576 0.81484 
0.00424292 0.705486 0.708711 
-2.80219e-06 0.829584 0.558382 
-0.00193806 0.931895 0.362722 
-0.00341159 0.988911 0.148472 
-0.00269046 0.999581 -0.0288209 
-0.00371036 0.985796 -0.167906 
-0.00466767 0.929776 -0.368095 
-0.00677961 0.839532 -0.543269 
-0.00961945 0.738072 -0.674654 
-0.0136665 0.625968 -0.779729 
-0.018301 0.518383 -0.854953 
-0.0268375 0.402727 -0.914926 
-0.0338294 0.311988 -0.949484 
-0.0417469 0.241708 -0.969451 
-0.0492467 0.185735 -0.981365 
-0.0551147 0.13961 -0.988672 
-0.0596434 0.10933 -0.992215 
-0.0650623 0.0833383 -0.994395 
-0.0668452 0.0655534 -0.995608 
-0.0702782 0.0500465 -0.996271 
-0.0726365 0.0389837 -0.996596 
-0.074284 0.0299683 -0.996787 
-0.0765379 0.022648 -0.996809 
-0.0780371 0.0173146 -0.9968 
-0.0789838 0.0123876 -0.996799 
-0.0797653 0.00849623 -0.996777 
-0.080422 0.00510732 -0.996748 
-0.080749 0.00196259 -0.996733 
-0.0805895 -0.000930117 -0.996747 
-0.080317 -0.0038211 -0.996762 
-0.0792712 -0.00724856 -0.996827 
-0.0785211 -0.0109508 -0.996852 
-0.0773058 -0.0151671 -0.996892 
-0.0756978 -0.0210983 -0.996908 
-0.07401 -0.0275124 -0.996878 
-0.0724117 -0.0355026 -0.996743 
-0.0699627 -0.0478537 -0.996401 
-0.0687774 -0.0600848 -0.995821 
-0.0677182 -0.0744863 -0.99492 
-0.0637337 -0.0853326 -0.994312 
-0.0638486 -0.0926122 -0.993653 
-0.0578912 -0.0960314 -0.993693 
-0.0462036 -0.0766025 -0.995991 
-0.000347142 -0.000801345 -1 
-0.000516935 -0.000461732 1 
0.024397 -0.0523034 0.998333 
0.0523841 -0.0954828 0.994052 
0.0560095 -0.0888307 0.994471 
0.0547358 -0.0789876 0.995372 
0.0633378 -0.0704816 0.9955 
0.0600221 -0.0622876 0.996252 
0.0654841 -0.0499831 0.996601 
0.0650963 -0.0389497 0.997119 
0.0686394 -0.0297161 0.997199 
0.0695885 -0.0226795 0.997318 
0.0689779 -0.0171742 0.99747 
0.0714027 -0.0123648 0.997371 
0.0722769 -0.00834584 0.99735 
0.072962 -0.00479231 0.997323 
0.0734921 -0.00184411 0.997294 
0.0742111 0.0012902 0.997242 
0.0742865 0.0045109 0.997227 
0.0740412 0.0081213 0.997222 
0.0727143 0.0121746 0.997279 
0.0711904 0.0169926 0.997318 
0.0694106 0.0227618 0.997328 
0.0680549 0.0298413 0.997235 
0.0662014 0.0384844 0.997064 
0.0642752 0.0495598 0.996701 
0.0615204 0.0633587 0.996093 
0.0586286 0.0813368 0.994961 
0.0546954 0.104862 0.992982 
0.0504833 0.134233 0.989663 
0.0455574 0.172285 0.983993 
0.0372527 0.22989 0.972503 
0.030181 0.296186 0.954653 
0.0215583 0.374249 0.927078 
0.013492 0.466322 0.884512 
0.00486076 0.653187 0.757181 
0.00108585 0.770258 0.637732 
-0.00102061 0.880958 0.473194 
-0.00127209 0.942426 0.334413 
-0.00191042 0.979318 0.202319 
-0.00218013 0.999818 0.0189537 
-0.00365338 0.97759 -0.210487 
-0.00384867 0.914454 -0.404672 
-0.00462767 0.833139 -0.553044 
-0.00714722 0.721281 -0.692606 
-0.010804 0.600465 -0.799578 
-0.0161156 0.487951 -0.872722 
-0.023484 0.408055 -0.912655 
-0.0263954 0.343893 -0.938638 
-0.0338769 0.272341 -0.961604 
-0.0415157 0.211257 -0.976548 
-0.0476666 0.161851 -0.985663 
-0.0510775 0.124754 -0.990872 
-0.0578472 0.0923858 -0.994042 
-0.0590988 0.0748679 -0.995441 
-0.06269 0.0572505 -0.99639 
-0.0647305 0.0442927 -0.996919 
-0.066928 0.034515 -0.997161 
-0.0692343 0.0261272 -0.997258 
-0.07041 0.020018 -0.997317 
-0.0725246 0.0148678 -0.997256 
-0.0724479 0.0102357 -0.99732 
-0.0732459 0.00632567 -0.997294 
-0.0740272 0.00280668 -0.997252 
-0.0737539 -0.000379198 -0.997276 
-0.0735481 -0.00353923 -0.997285 
-0.0732598 -0.00675492 -0.99729 
-0.0720109 -0.0106688 -0.997347 
-0.070689 -0.0148673 -0.997388 
-0.0705028 -0.0197799 -0.997315 
-0.0671729 -0.0264027 -0.997392 
-0.0657489 -0.0340329 -0.997256 
-0.0653746 -0.0436844 -0.996904 
-0.0620998 -0.0578195 -0.996394 
-0.0620618 -0.0713505 -0.995519 
-0.0572885 -0.0847125 -0.994757 
-0.0555916 -0.0934347 -0.994072 
-0.047985 -0.0938891 -0.994426 
-0.0358643 -0.0661136 -0.997167 
0.000151115 -0.000415906 -1 
-0.000231078 -0.000622005 1 
0.0227938 -0.0605446 0.997905 
0.041919 -0.0908298 0.994984 
0.044108 -0.0958458 0.994418 
0.0477262 -0.0897699 0.994818 
0.049481 -0.0721091 0.996169 
0.0533388 -0.0554259 0.997037 
0.0557689 -0.0454274 0.99741 
0.0573918 -0.0338007 0.997779 
0.059069 -0.0265577 0.997901 
0.0586056 -0.0207178 0.998066 
0.0595539 -0.015141 0.99811 
0.0614383 -0.0109023 0.998051 
0.0625593 -0.00702992 0.998016 
0.0619974 -0.00363906 0.99807 
0.0637118 -0.00033855 0.997968 
0.0637563 0.00312617 0.997961 
0.0635477 0.00692225 0.997955 
0.0622036 0.0110349 0.998002 
0.0609764 0.0157584 0.998015 
0.0595152 0.0213103 0.998 
0.0582856 0.0280806 0.997905 
0.0565273 0.0363091 0.997741 
0.0550308 0.0466288 0.997395 
0.0525429 0.0595918 0.996839 
0.0500686 0.0763801 0.995821 
0.0469151 0.0980391 0.994076 
0.0425667 0.127421 0.990935 
0.0385271 0.165074 0.985528 
0.0330608 0.214323 0.976203 
0.0237481 0.291504 0.956275 
0.0159532 0.380592 0.924605 
0.00810687 0.495153 0.868768 
0.00261835 0.615901 0.787819 
0.00610099 0.586311 0.810063 
0.00169989 0.698051 0.716046 
-0.000424962 0.817439 0.576016 
-0.000925477 0.882043 0.471167 
-0.00111277 0.983587 0.18043 
-4.42453e-05 0.999335 0.0364738 
-0.0030159 0.989881 -0.141869 
-0.00410097 0.949905 -0.312512 
-0.00314104 0.859543 -0.511053 
-0.00303879 0.75142 -0.659817 
-0.0050358 0.639725 -0.768587 
-0.00901068 0.516597 -0.856181 
-0.0157648 0.410072 -0.911917 
-0.0221677 0.319028 -0.947486 
-0.0299014 0.250121 -0.967753 
-0.0367531 0.19674 -0.979767 
-0.0405266 0.154029 -0.987235 
-0.0469759 0.10894 -0.992938 
-0.0475293 0.0889391 -0.994902 
-0.05128 0.0684869 -0.996333 
-0.0534354 0.0534174 -0.997142 
-0.0549815 0.0416347 -0.997619 
-0.0579969 0.0320789 -0.997801 
-0.0588606 0.0249843 -0.997954 
-0.0602588 0.0189268 -0.998003 
-0.0624624 0.0138553 -0.997951 
-0.0616484 0.00919344 -0.998056 
-0.0628966 0.00504628 -0.998007 
-0.0629032 0.00148373 -0.998019 
-0.0629418 -0.00192496 -0.998015 
-0.062304 -0.00525988 -0.998043 
-0.0627292 -0.00877329 -0.997992 
-0.0606648 -0.0128235 -0.998076 
-0.0601886 -0.0174516 -0.998034 
-0.059509 -0.0225189 -0.997974 
-0.0556896 -0.0296075 -0.998009 
-0.0550906 -0.0381369 -0.997753 
-0.0559362 -0.0488993 -0.997236 
-0.0508142 -0.0610563 -0.99684 
-0.0528713 -0.0727929 -0.995945 
-0.0475471 -0.0862272 -0.99514 
-0.0471105 -0.0942858 -0.99443 
-0.039729 -0.0959703 -0.994591 
-0.0268662 -0.0603993 -0.997813 
5.11773e-05 -0.000598367 -1 
-2.13487e-05 -0.000706784 1 
0.0207657 -0.071562 0.99722 
0.0347945 -0.0954962 0.994822 
0.0357423 -0.0947633 0.994858 
0.0417816 -0.0854521 0.995466 
0.0376123 -0.0752292 0.996457 
0.0431488 -0.0618114 0.997155 
0.0409485 -0.0491729 0.997951 
0.0469279 -0.0398007 0.998105 
0.0454295 -0.0310908 0.998484 
0.0463623 -0.0249538 0.998613 
0.048125 -0.0190126 0.99866 
0.0478877 -0.0141921 0.998752 
0.0502197 -0.0100852 0.998687 
0.0506416 -0.00642121 0.998696 
0.0506308 -0.00275387 0.998714 
0.0519984 0.000695827 0.998647 
0.0518128 0.00450379 0.998647 
0.0505219 0.00850754 0.998687 
0.0496153 0.0130402 0.998683 
0.0487841 0.0181738 0.998644 
0.0477756 0.024152 0.998566 
0.0464726 0.031217 0.998432 
0.0450344 0.0399533 0.998186 
0.0435003 0.0506413 0.997769 
0.0414975 0.0645655 0.99705 
0.0390767 0.082322 0.995839 
0.0362418 0.105875 0.993719 
0.0321443 0.138049 0.989904 
0.0284321 0.179514 0.983344 
0.0237202 0.238537 0.970844 
0.0152438 0.323199 0.946208 
0.00939861 0.419373 0.907765 
0.00398812 0.525271 0.850926 
-0.000659611 0.744354 0.667785 
-0.00126072 0.879158 0.476528 
0.00148237 0.949616 0.313414 
0.00374179 0.982478 0.186339 
0.000213866 0.970401 0.241499 
0.00253356 0.994556 0.104169 
0.00158763 0.995549 -0.0942293 
0.000414963 0.987316 -0.158766 
-0.00352236 0.938152 -0.346206 
-0.00100509 0.814395 -0.58031 
-0.00170696 0.71118 -0.703007 
-0.00311776 0.567198 -0.823576 
-0.00833864 0.440697 -0.897617 
-0.0137847 0.344827 -0.938565 
-0.0220195 0.254568 -0.966804 
-0.028426 0.192095 -0.980965 
-0.0274988 0.15901 -0.986894 
-0.0373758 0.13334 -0.990365 
-0.0352923 0.107014 -0.993631 
-0.0391169 0.0822371 -0.995845 
-0.0414712 0.0642631 -0.997071 
-0.0432012 0.0498805 -0.99782 
-0.0455303 0.038103 -0.998236 
-0.046756 0.0297804 -0.998462 
-0.0481262 0.0227091 -0.998583 
-0.049462 0.0167504 -0.998636 
-0.0506759 0.0118713 -0.998645 
-0.0506986 0.0068144 -0.998691 
-0.0506584 0.00272741 -0.998712 
-0.0510805 -0.00105823 -0.998694 
-0.0503487 -0.00461466 -0.998721 
-0.0505461 -0.00830708 -0.998687 
-0.0495609 -0.0121259 -0.998697 
-0.0488967 -0.0167876 -0.998663 
-0.047267 -0.0219912 -0.99864 
-0.0457686 -0.0278476 -0.998564 
-0.0438022 -0.0367115 -0.998365 
-0.0445999 -0.047449 -0.997877 
-0.0407787 -0.0616178 -0.997266 
-0.0410462 -0.0770516 -0.996182 
-0.0358975 -0.0894206 -0.995347 
-0.0370956 -0.0956351 -0.994725 
-0.0305178 -0.0983114 -0.994688 
-0.0245881 -0.0745594 -0.996913 
-8.44821e-05 -0.000554548 -1 
4.26506e-05 -0.000745147 1 
0.0152924 -0.070026 0.997428 
0.0276048 -0.0984465 0.994759 
0.0257281 -0.0976152 0.994892 
0.0318246 -0.0900203 0.995431 
0.0287616 -0.0778733 0.996548 
0.0325307 -0.0612149 0.997594 
0.0310006 -0.0478397 0.998374 
0.0355891 -0.0380301 0.998643 
0.0332761 -0.0306612 0.998976 
0.0363907 -0.0241208 0.999046 
0.0375674 -0.0185584 0.999122 
0.0370681 -0.013852 0.999217 
0.039252 -0.00978753 0.999181 
0.0403307 -0.00577593 0.99917 
0.0397395 -0.00190193 0.999208 
0.0409828 0.00192727 0.999158 
0.0396606 0.00601128 0.999195 
0.0389601 0.0107018 0.999183 
0.0384985 0.0158864 0.999132 
0.0377824 0.0216073 0.999052 
0.0367727 0.0282164 0.998925 
0.0356435 0.0363272 0.998704 
0.0341932 0.0464262 0.998336 
0.0328649 0.0591624 0.997707 
0.0307892 0.0758583 0.996643 
0.028447 0.0978972 0.99479 
0.0254151 0.127366 0.99153 
0.0215999 0.169995 0.985208 
0.0183997 0.22571 0.974021 
0.0129599 0.297556 0.954617 
0.0068805 0.402376 0.915449 
0.00267924 0.519577 0.854419 
7.34224e-05 0.645787 0.763518 
-5.31411e-05 0.639155 0.769078 
0.000573798 0.861132 0.508381 
0.00654243 0.940553 0.339583 
0.00649358 0.99826 0.0586103 
0.00499419 0.999782 0.0202737 
0.00543143 0.999983 0.0019373 
0.00511269 0.999825 -0.0179679 
0.00308081 0.996869 -0.0790169 
0.000991694 0.96654 -0.256512 
-0.00159339 0.834363 -0.551212 
-0.000948559 0.614639 -0.788808 
-0.000771137 0.569302 -0.822128 
-0.00326569 0.484908 -0.874559 
-0.00614005 0.390275 -0.920678 
-0.0127536 0.293563 -0.955855 
-0.0185043 0.221928 -0.974887 
-0.0189932 0.179064 -0.983654 
-0.0268066 0.127313 -0.9915 
-0.0286244 0.0943981 -0.995123 
-0.030826 0.0736256 -0.996809 
-0.0329566 0.0576187 -0.997795 
-0.0349351 0.0443358 -0.998406 
-0.0356101 0.0348579 -0.998758 
-0.0371205 0.0270503 -0.998945 
-0.038302 0.0205419 -0.999055 
-0.0386345 0.0150655 -0.99914 
-0.0407756 0.00994637 -0.999119 
-0.0393677 0.00519893 -0.999211 
-0.0399482 0.000917233 -0.999201 
-0.0395276 -0.00284881 -0.999214 
-0.0395509 -0.00666825 -0.999195 
-0.0386127 -0.0104094 -0.9992 
-0.0387441 -0.0146264 -0.999142 
-0.0373275 -0.0193523 -0.999116 
-0.0353044 -0.0246968 -0.999071 
-0.0354371 -0.0315763 -0.998873 
-0.0323864 -0.0400977 -0.998671 
-0.0344787 -0.0491544 -0.998196 
-0.0301108 -0.0609849 -0.997684 
-0.0316599 -0.0746154 -0.99671 
-0.0274982 -0.0886272 -0.995685 
-0.0266515 -0.0977587 -0.994853 
-0.0219341 -0.0982894 -0.994916 
-0.0164135 -0.0658988 -0.997691 
0.000136424 -0.000624642 -1 
-8.70502e-05 -0.000572112 1 
0.010671 -0.0702677 0.997471 
0.019628 -0.0989618 0.994898 
0.0187815 -0.0990811 0.994902 
0.0231624 -0.0901062 0.995663 