# vtk DataFile Version 3.0 
Exported using Morpho https://github.com/Morpho-lang/morpho 
ASCII 
DATASET UNSTRUCTURED_GRID 

POINTS 1978 float 
-8.48528 -2.82843 6.67968e-17 
-8.2602 -2.82843 -4.9729e-15 
-8.03625 -2.82843 -7.87653e-15 
-7.76282 -2.82843 -7.12705e-15 
-7.46433 -2.82843 -7.50289e-15 
-7.23315 -2.82843 -3.78025e-15 
-6.9863 -2.82843 -3.38155e-15 
-6.77771 -2.82843 -2.52543e-15 
-6.56255 -2.82843 -2.20392e-15 
-6.34316 -2.82843 -1.38736e-15 
-6.14998 -2.82843 -1.05789e-15 
-5.92853 -2.82843 -8.28676e-16 
-5.71539 -2.82843 -4.72625e-16 
-5.51051 -2.82843 -2.56626e-16 
-5.29328 -2.82843 -1.16801e-16 
-5.08166 -2.82843 5.43722e-17 
-4.86412 -2.82843 1.72571e-16 
-4.65778 -2.82843 3.81009e-16 
-4.438 -2.82843 5.77306e-16 
-4.22112 -2.82843 8.30281e-16 
-4.00287 -2.82843 1.07237e-15 
-3.79247 -2.82843 1.43632e-15 
-3.57636 -2.82843 1.86845e-15 
-3.36332 -2.82843 2.51425e-15 
-3.14079 -2.82843 3.14712e-15 
-2.92882 -2.82843 3.8248e-15 
-2.71685 -2.82843 4.33295e-15 
-2.51934 -2.82843 5.28479e-15 
-2.30653 -2.82843 6.55821e-15 
-2.0953 -2.82843 6.94014e-15 
-1.88831 -2.82843 7.23563e-15 
-1.68351 -2.82843 6.86129e-15 
-1.48138 -2.82843 6.48544e-15 
-1.26851 -2.82843 5.10158e-15 
-1.0899 -2.82843 2.25449e-15 
-0.834368 -2.82843 2.80945e-15 
-0.624318 -2.82843 -1.7069e-16 
-0.444076 -2.82843 5.04334e-15 
-0.209966 -2.82843 -6.75519e-15 
0.0278812 -2.82843 -7.02498e-17 
0.220245 -2.82843 -4.87008e-16 
0.416062 -2.82843 -2.67196e-16 
0.629743 -2.82843 -1.04321e-15 
0.848557 -2.82843 -1.61266e-15 
1.05242 -2.82843 -3.31647e-15 
1.25465 -2.82843 -3.33247e-15 
1.44219 -2.82843 -8.78209e-15 
1.68605 -2.82843 -7.82903e-15 
1.87835 -2.82843 -7.12423e-15 
2.09244 -2.82843 -8.06553e-15 
2.31228 -2.82843 -5.97752e-15 
2.50691 -2.82843 -5.50939e-15 
2.73559 -2.82843 -5.05738e-15 
2.95236 -2.82843 -3.88358e-15 
3.1698 -2.82843 -2.87865e-15 
3.37559 -2.82843 -2.4333e-15 
3.60025 -2.82843 -1.86103e-15 
3.80412 -2.82843 -1.33536e-15 
4.02033 -2.82843 -1.20185e-15 
4.24746 -2.82843 -8.41883e-16 
4.44677 -2.82843 -5.3108e-16 
4.65906 -2.82843 -4.02987e-16 
4.86793 -2.82843 -2.08056e-16 
5.0717 -2.82843 -2.62224e-17 
5.28827 -2.82843 1.28828e-16 
5.49917 -2.82843 3.04161e-16 
5.704 -2.82843 5.58024e-16 
5.92343 -2.82843 8.87976e-16 
6.14416 -2.82843 1.04357e-15 
6.34486 -2.82843 1.65469e-15 
6.58475 -2.82843 2.21816e-15 
6.79431 -2.82843 2.10196e-15 
6.99416 -2.82843 3.57464e-15 
7.25063 -2.82843 4.76535e-15 
7.47855 -2.82843 5.11992e-15 
7.71628 -2.82843 7.74319e-15 
7.98036 -2.82843 5.83993e-15 
8.16645 -2.82843 7.834e-15 
8.48528 -2.82843 2.04055e-15 
-8.48528 -2.59753 9.97351e-16 
-8.24933 -2.57641 2.09606e-15 
-8.00289 -2.60346 1.3917e-14 
-7.73647 -2.6084 1.0117e-16 
-7.47409 -2.63024 7.77115e-15 
-7.22591 -2.62091 2.41721e-15 
-6.98802 -2.5892 4.06822e-15 
-6.7655 -2.58384 2.65818e-15 
-6.53321 -2.59835 2.84487e-15 
-6.33203 -2.56237 2.36314e-15 
-6.10848 -2.59975 1.37704e-15 
-5.89167 -2.58603 1.2258e-15 
-5.68218 -2.57358 8.45997e-16 
-5.4646 -2.58943 4.09521e-16 
-5.24899 -2.58342 2.08729e-16 
-5.03047 -2.58979 -7.81019e-17 
-4.81986 -2.57781 -3.53298e-16 
-4.60108 -2.59318 -6.01857e-16 
-4.38168 -2.58958 -9.15412e-16 
-4.1634 -2.58983 -1.26584e-15 
-3.95246 -2.57891 -1.80058e-15 
-3.73982 -2.58489 -2.19604e-15 
-3.5274 -2.58403 -3.11189e-15 
-3.30975 -2.59626 -3.4654e-15 
-3.09669 -2.59031 -4.98105e-15 
-2.88387 -2.59485 -5.4404e-15 
-2.68168 -2.584 -7.5505e-15 
-2.4708 -2.60481 -8.08698e-15 
-2.25283 -2.60184 -8.80485e-15 
-2.04466 -2.59588 -9.622e-15 
-1.83293 -2.59698 -1.20073e-14 
-1.6186 -2.58948 -1.01201e-14 
-1.41248 -2.59364 -1.17325e-14 
-1.23061 -2.52194 -3.8741e-16 
-1.00966 -2.6313 -1.48836e-15 
-0.787862 -2.58073 2.78106e-15 
-0.598621 -2.51673 7.01965e-16 
-0.376733 -2.53738 9.17686e-15 
-0.146422 -2.55219 7.81885e-15 
0.0362557 -2.42815 -1.9548e-14 
0.203439 -2.49447 2.59178e-15 
0.401774 -2.53252 3.46349e-15 
0.609745 -2.55953 1.65036e-15 
0.828916 -2.57937 7.65937e-16 
1.05319 -2.56928 2.29436e-15 
1.25884 -2.5683 6.02282e-15 
1.50124 -2.63588 5.31962e-15 
1.7146 -2.58825 1.47285e-14 
1.93686 -2.61429 9.22684e-15 
2.16415 -2.61336 7.35454e-15 
2.3746 -2.58289 1.15488e-14 
2.58407 -2.61123 5.67324e-15 
2.80686 -2.59548 5.82432e-15 
3.02316 -2.59949 5.54685e-15 
3.22908 -2.57936 4.03381e-15 
3.44569 -2.59856 2.91855e-15 
3.65252 -2.5737 2.86798e-15 
3.86582 -2.58861 1.87898e-15 
4.09202 -2.60027 1.28676e-15 
4.29971 -2.56903 1.29888e-15 
4.5137 -2.58717 6.87061e-16 
4.72717 -2.58353 4.77778e-16 
4.93921 -2.57888 2.09744e-16 
5.15437 -2.59337 -1.02912e-16 
5.37319 -2.58694 -3.33915e-16 
5.58471 -2.57847 -7.28078e-16 
5.80169 -2.59335 -9.749e-16 
6.02647 -2.59275 -1.29107e-15 
6.23993 -2.56635 -2.28199e-15 
6.46006 -2.60797 -1.88307e-15 
6.68574 -2.57462 -3.29659e-15 
6.89285 -2.56023 -4.60515e-15 
7.11808 -2.62046 -3.35173e-15 
7.36604 -2.59127 -5.67269e-15 
7.60095 -2.59884 -5.62496e-15 
7.85438 -2.6197 -5.33588e-15 
8.06878 -2.5278 -9.83831e-15 
8.29579 -2.64554 -2.45598e-15 
8.48528 -2.52159 -1.14584e-15 
-8.48528 -2.36222 8.96099e-16 
-8.22746 -2.34917 3.15975e-15 
-7.99051 -2.35089 4.83991e-15 
-7.75434 -2.39938 7.34269e-15 
-7.55691 -2.23892 3.2933e-15 
-7.45016 -2.42881 6.52282e-15 
-7.17872 -2.39579 5.82585e-15 
-6.94601 -2.33416 4.10527e-15 
-6.70298 -2.3682 2.88293e-15 
-6.49281 -2.33995 1.98681e-15 
-6.2426 -2.34883 1.68322e-15 
-6.02894 -2.3559 1.29395e-15 
-5.8116 -2.33545 7.95007e-16 
-5.58337 -2.34263 5.74621e-16 
-5.36714 -2.34698 3.77264e-16 
-5.14269 -2.35045 1.03637e-16 
-4.92841 -2.33883 -1.56412e-16 
-4.70404 -2.35127 -4.14324e-16 
-4.48539 -2.3567 -6.95826e-16 
-4.26323 -2.35324 -9.97053e-16 
-4.04991 -2.33829 -1.24345e-15 
-3.83392 -2.33851 -1.63106e-15 
-3.62187 -2.34212 -2.17768e-15 
-3.40438 -2.35605 -2.88163e-15 
-3.19251 -2.35623 -3.65701e-15 
-2.97696 -2.36054 -4.48009e-15 
-2.76995 -2.34727 -4.98092e-15 
-2.55681 -2.3661 -6.57176e-15 
-2.34582 -2.38555 -8.79814e-15 
-2.12589 -2.36235 -8.47788e-15 
-1.91349 -2.36769 -9.40914e-15 
-1.69442 -2.36959 -9.15792e-15 
-1.47073 -2.34121 -3.34409e-15 
-1.24836 -2.28309 -8.86187e-15 
-1.01117 -2.39536 -7.61498e-15 
-0.816689 -2.30515 -1.06515e-15 
-0.573954 -2.25726 4.77146e-15 
-0.371327 -2.18061 -1.87142e-14 
-0.189125 -2.23285 2.0608e-14 
0.0296685 -2.11204 2.16842e-14 
0.243875 -2.11399 -3.16993e-14 
0.406449 -2.22485 1.68099e-14 
0.608415 -2.26776 -4.88274e-15 
0.816817 -2.31171 -2.96047e-15 
1.03177 -2.32414 3.39697e-16 
1.25108 -2.31394 3.61623e-15 
1.45942 -2.41627 9.44507e-15 
1.64239 -2.34544 8.00741e-15 
1.86135 -2.391 1.1779e-14 
2.08477 -2.40166 1.05024e-14 
2.30543 -2.3653 7.82235e-15 
2.53033 -2.36237 6.60811e-15 
2.7301 -2.38123 6.56782e-15 
2.96251 -2.36638 4.73697e-15 
3.16516 -2.34066 3.50767e-15 
3.38033 -2.35751 2.98593e-15 
3.58375 -2.33241 2.18536e-15 
3.79729 -2.34156 1.75953e-15 
4.01232 -2.36719 1.51408e-15 
4.22087 -2.32987 9.19887e-16 
4.44061 -2.34068 7.15692e-16 
4.65085 -2.34123 4.44047e-16 
4.86272 -2.33935 2.04576e-16 
5.08116 -2.34812 -8.625e-18 
5.29251 -2.35536 -2.8122e-16 
5.50955 -2.33767 -4.88621e-16 
5.72805 -2.34958 -7.74788e-16 
5.94533 -2.36109 -1.19463e-15 
6.16158 -2.3306 -1.43236e-15 
6.39415 -2.35435 -2.01676e-15 
6.60259 -2.35172 -2.61671e-15 
6.82611 -2.30656 -2.55359e-15 
7.05414 -2.36437 -4.04751e-15 
7.27156 -2.38701 -5.20035e-15 
7.53008 -2.36237 -4.95742e-15 
7.77245 -2.39455 -6.89493e-15 
7.98933 -2.30085 -3.5772e-15 
8.25655 -2.36963 -4.28732e-15 
8.48528 -2.27359 -1.1545e-15 
-8.48528 -2.09799 7.26928e-16 
-8.263 -2.11568 1.20971e-16 
-8.02903 -2.09583 -7.76775e-16 
-7.78814 -2.14316 1.05366e-15 
-7.50749 -2.02441 -2.35111e-16 
-7.30006 -2.21075 6.70172e-16 
-7.05891 -2.11666 8.0803e-16 
-6.79896 -2.13719 1.12924e-15 
-6.59079 -2.10608 1.18767e-15 
-6.35325 -2.13568 9.56896e-16 
-6.12441 -2.10476 6.42856e-16 
-5.91946 -2.10467 5.31116e-16 
-5.69148 -2.11193 3.60571e-16 
-5.46958 -2.10347 2.38495e-16 
-5.2523 -2.11708 1.26207e-16 
-5.03831 -2.10366 -2.80865e-17 
-4.81479 -2.11465 -1.49799e-16 
-4.59706 -2.11891 -2.77203e-16 
-4.38058 -2.12294 -3.83781e-16 
-4.16935 -2.10466 -5.10711e-16 
-3.95466 -2.09986 -6.27797e-16 
-3.74258 -2.09922 -8.60051e-16 
-3.52848 -2.11401 -1.09235e-15 
-3.3196 -2.11869 -1.36322e-15 
-3.10709 -2.12635 -1.67819e-15 
-2.90141 -2.11869 -2.02149e-15 
-2.68496 -2.12341 -2.47059e-15 
-2.47421 -2.14096 -2.89614e-15 
-2.26581 -2.1561 -3.64535e-15 
-2.03911 -2.12889 -3.7311e-15 
-1.82101 -2.14277 -3.59229e-15 
-1.60368 -2.13354 -1.81171e-15 
-1.382 -2.07897 1.67814e-15 
-1.17679 -1.94514 2.40427e-15 
-1.0635 -2.14081 8.48106e-15 
-0.81203 -2.07013 6.05153e-15 
-0.595607 -1.97062 3.95068e-15 
-0.355645 -1.90245 2.12338e-14 
-0.107707 -1.87165 -4.54371e-14 
0.0658123 -1.52917 -7.6755e-14 
0.116823 -1.78574 2.25766e-14 
0.33514 -1.83953 2.84986e-14 
0.554476 -1.94236 -2.38855e-14 
0.757629 -2.00767 -3.9221e-15 
0.964146 -2.04998 3.97365e-15 
1.17437 -2.06419 -1.15599e-15 
1.41988 -2.1494 5.57745e-15 
1.66923 -2.13231 2.10338e-15 
1.89824 -2.17255 1.67224e-15 
2.12263 -2.17649 3.50524e-15 
2.35345 -2.14612 3.56161e-15 
2.55671 -2.11174 3.61704e-15 
2.78447 -2.17304 2.36031e-15 
2.9871 -2.11541 1.61749e-15 
3.20683 -2.11347 1.4515e-15 
3.40848 -2.10734 1.31584e-15 
3.62465 -2.09726 7.95893e-16 
3.84166 -2.11103 7.50244e-16 
4.04427 -2.11685 5.60393e-16 
4.2716 -2.10016 4.00768e-16 
4.48271 -2.09891 2.96908e-16 
4.69568 -2.0998 1.74965e-16 
4.91495 -2.10931 7.10211e-17 
5.12831 -2.10784 -4.28073e-17 
5.34059 -2.11739 -1.68449e-16 
5.56442 -2.10611 -2.41619e-16 
5.78196 -2.11552 -3.70516e-16 
5.99292 -2.11529 -5.26883e-16 
6.23351 -2.11375 -6.15044e-16 
6.44266 -2.10055 -8.74068e-16 
6.65464 -2.10477 -1.07745e-15 
6.90837 -2.09396 -9.47723e-16 
7.12291 -2.12509 -1.18187e-15 
7.35259 -2.17079 -1.06424e-15 
7.54487 -2.07396 -1.20692e-16 
7.73118 -2.16024 -1.4856e-15 
7.9517 -2.06673 1.38374e-16 
8.20346 -2.14358 -2.51066e-16 
8.48528 -2.07235 -7.09912e-16 
-8.48528 -1.79577 5.52964e-16 
-8.29519 -1.86464 5.31765e-17 
-7.88586 -1.89068 -8.19611e-17 
[...]
POINT_DATA 1978 
VECTORS vectors float
-0.000219029 -0.00205003 0.999998 
0.000703935 -0.090957 0.995855 
-0.000216253 -0.108586 0.994087 
0.00018176 -0.101213 0.994865 
8.93227e-05 -0.0825034 0.996591 
0.000144333 -0.066472 0.997788 
7.40826e-05 -0.0520417 0.998645 
0.000338848 -0.0409928 0.999159 
7.64646e-05 -0.0310323 0.999518 
0.000230229 -0.0225479 0.999746 
0.00023629 -0.0164164 0.999865 
0.000165205 -0.0108459 0.999941 
0.000190173 -0.00658605 0.999978 
0.000236438 -0.00365403 0.999993 
0.000163118 -0.00124865 0.999999 
0.000209268 0.000686096 1 
0.000193051 0.00273624 0.999996 
0.000214827 0.00493596 0.999988 
0.000171939 0.00770773 0.99997 
0.000186777 0.0111673 0.999938 
0.00018706 0.0155067 0.99988 
0.000212129 0.0208189 0.999783 
0.000176786 0.0276964 0.999616 
0.000189805 0.0363152 0.99934 
0.000155329 0.0481085 0.998842 
0.000186839 0.0629454 0.998017 
0.000215914 0.0825781 0.996585 
0.000186341 0.106011 0.994365 
0.000156106 0.138433 0.990372 
0.000142449 0.179947 0.983676 
0.000165241 0.231072 0.972937 
0.000132157 0.293315 0.956016 
8.66332e-05 0.369151 0.92937 
0.000126327 0.463458 0.886119 
5.68503e-05 0.553297 0.832984 
-4.92251e-07 0.693595 0.720366 
1.76023e-05 0.809214 0.587513 
1.6014e-05 0.892647 0.450756 
-1.45816e-05 0.974838 0.222915 
1.05537e-05 0.999472 -0.0325038 
1.01459e-05 0.971216 -0.2382 
-5.52078e-06 0.906856 -0.42144 
-4.04955e-05 0.808334 -0.588724 
3.92024e-05 0.68569 -0.727894 
-0.000143443 0.570774 -0.821107 
-3.15842e-05 0.467074 -0.884218 
-0.00015447 0.383411 -0.923578 
-6.11494e-05 0.293382 -0.955995 
-0.000156984 0.23572 -0.971821 
-0.000180261 0.182706 -0.983168 
-0.000127494 0.138296 -0.990391 
-0.000205 0.108701 -0.994074 
-0.000139618 0.0814719 -0.996676 
-0.000173174 0.0615123 -0.998106 
-0.000187071 0.0467459 -0.998907 
-0.000201517 0.0358242 -0.999358 
-0.000182514 0.0267721 -0.999642 
-0.000194813 0.0206802 -0.999786 
-0.000187228 0.0156829 -0.999877 
-0.000172066 0.0113063 -0.999936 
-0.000222682 0.00836938 -0.999965 
-0.000224836 0.0055189 -0.999985 
-0.000196437 0.0029238 -0.999996 
-0.000203678 0.000795171 -1 
-0.00019723 -0.00177392 -0.999998 
-0.000215633 -0.00452808 -0.99999 
-0.000188071 -0.0073922 -0.999973 
-0.000187307 -0.0115389 -0.999933 
-0.000207171 -0.0167638 -0.999859 
-0.000148692 -0.0223273 -0.999751 
-0.000181211 -0.0309739 -0.99952 
-0.000214417 -0.0399334 -0.999202 
-0.000172256 -0.0502816 -0.998735 
-0.000142494 -0.0674281 -0.997724 
-5.6277e-05 -0.0852949 -0.996356 
-0.000290394 -0.104901 -0.994483 
-2.78419e-05 -0.119141 -0.992877 
-0.00017894 -0.111471 -0.993768 
-4.07372e-05 -0.000909444 -1 
0.000813757 0.000748206 0.999999 
0.0271495 -0.0696361 0.997203 
0.045102 -0.0992387 0.994041 
0.0404782 -0.0986469 0.994299 
0.0369453 -0.0841717 0.995766 
0.044731 -0.0645862 0.996909 
0.0501297 -0.0519645 0.99739 
0.0500938 -0.0405032 0.997923 
0.0511439 -0.0306094 0.998222 
0.05865 -0.0231194 0.998011 
0.0515873 -0.0159338 0.998541 
0.0548588 -0.0105933 0.998438 
0.0586853 -0.0069241 0.998253 
0.0558507 -0.00373529 0.998432 
0.0577856 -0.00120743 0.998328 
0.0564663 0.00102539 0.998404 
0.0594779 0.00322159 0.998224 
0.0556206 0.00580642 0.998435 
0.0562539 0.00894427 0.998376 
0.0555942 0.0127758 0.998372 
0.0569535 0.0174393 0.998225 
0.0547371 0.0232891 0.998229 
0.0544668 0.0307116 0.998043 
0.0506389 0.0403824 0.9979 
0.0509961 0.0528702 0.997298 
0.0480683 0.0691141 0.99645 
0.0481344 0.0893493 0.994837 
0.0418752 0.115689 0.992402 
0.0383139 0.151348 0.987738 
0.0348197 0.1952 0.980145 
0.0305462 0.250121 0.967732 
0.0252775 0.319984 0.947086 
0.0193214 0.401695 0.91557 
0.0164861 0.488802 0.872239 
0.0075584 0.609808 0.792513 
0.00508357 0.730202 0.683213 
0.00348332 0.825978 0.563691 
0.000796624 0.920612 0.390478 
-0.000316626 0.978775 0.204936 
-0.0024084 0.99999 0.00378182 
-0.0034347 0.978778 -0.204895 
-0.00498082 0.915874 -0.401435 
-0.00673447 0.81956 -0.572954 
-0.00886349 0.696353 -0.717645 
-0.0130021 0.571288 -0.820646 
-0.0179131 0.467749 -0.88368 
-0.0186004 0.360256 -0.932668 
-0.029541 0.285299 -0.957983 
-0.0308403 0.22308 -0.974312 
-0.0347751 0.170087 -0.984815 
-0.0445933 0.132431 -0.990189 
-0.0409757 0.101729 -0.993968 
-0.0466423 0.0770734 -0.995934 
-0.0494175 0.0587518 -0.997049 
-0.0531075 0.0454377 -0.997555 
-0.0507937 0.0342097 -0.998123 
-0.0569006 0.0263348 -0.998032 
-0.0545528 0.0199721 -0.998311 
-0.052678 0.014679 -0.998504 
-0.0601673 0.0108617 -0.998129 
-0.0565514 0.00753915 -0.998371 
-0.0575536 0.00461396 -0.998332 
-0.0594029 0.00202734 -0.998232 
-0.0555832 -0.000470953 -0.998454 
-0.0572514 -0.00324505 -0.998355 
-0.0586351 -0.00623 -0.99826 
-0.0542831 -0.00977448 -0.998478 
-0.053768 -0.0144193 -0.998449 
-0.0583078 -0.019896 -0.9981 
-0.0479382 -0.0266952 -0.998494 
-0.0542645 -0.0355559 -0.997893 
-0.0554595 -0.0454414 -0.997426 
-0.042291 -0.0583333 -0.997401 
-0.0476069 -0.0753049 -0.996023 
-0.0448311 -0.0919681 -0.994752 
-0.0408515 -0.107068 -0.993412 
-0.0510225 -0.102076 -0.993467 
-0.0182352 -0.0637372 -0.9978 
-0.000270325 0.000650856 -1 
-0.000837135 0.000104776 1 
0.0430697 -0.0741877 0.996314 
0.0602163 -0.0963776 0.993522 
0.0610696 -0.0916583 0.993916 
0.0667645 -0.0838507 0.994239 
0.0624955 -0.0787913 0.99493 
0.068578 -0.0619002 0.995724 
0.0715934 -0.0491505 0.996222 
0.0723559 -0.0379073 0.996658 
0.0747911 -0.0289895 0.996778 
0.0761554 -0.0204097 0.996887 
0.0768296 -0.014609 0.996937 
0.0788283 -0.0101552 0.996836 
0.0795987 -0.00618701 0.996808 
0.0802325 -0.0030935 0.996771 
0.0806668 -0.000446403 0.996741 
0.0812111 0.00192357 0.996695 
0.0808497 0.00462844 0.996716 
0.0802864 0.00771041 0.996742 
0.0794118 0.0114599 0.996776 
0.0785961 0.0159557 0.996779 
0.0771349 0.0215021 0.996789 
0.0756653 0.028344 0.99673 
0.0736068 0.0373109 0.996589 
0.0716377 0.0486735 0.996242 
0.0688629 0.0636956 0.995591 
0.065984 0.0825262 0.994402 
0.0619433 0.106903 0.992338 
0.0569152 0.137775 0.988827 
0.0510342 0.180517 0.982247 
0.04418 0.231807 0.971758 
0.0362516 0.299557 0.953389 
0.0274032 0.385166 0.922441 
0.0198356 0.478109 0.878076 
0.01338 0.583665 0.811885 
0.0072009 0.699468 0.714627 
0.00175607 0.824043 0.566525 
-0.00123303 0.91643 0.400193 
-0.00289232 0.979705 0.200425 
-0.00459872 0.999371 -0.0351538 
-0.00559045 0.97 -0.24304 
-0.00667975 0.902237 -0.431189 
-0.00904934 0.808813 -0.587996 
-0.0124526 0.691775 -0.722005 
-0.0171203 0.57742 -0.816268 
-0.0234474 0.473049 -0.880724 
-0.0296282 0.379656 -0.924653 
-0.0364944 0.313458 -0.9489 
-0.0435747 0.245319 -0.968463 
-0.0496108 0.189475 -0.980631 
-0.0562929 0.14613 -0.987663 
-0.0611274 0.110963 -0.991943 
-0.064843 0.0864114 -0.994147 
-0.0685729 0.0653208 -0.995505 
-0.0715805 0.0508381 -0.996138 
-0.0731566 0.0386682 -0.996571 
-0.0757946 0.0300519 -0.99667 
-0.0771784 0.0228952 -0.996754 
-0.0776045 0.0171094 -0.996837 
-0.0798357 0.0128337 -0.996725 
-0.0803208 0.00889457 -0.996729 
-0.0807255 0.00570557 -0.99672 
-0.0812356 0.00284495 -0.996691 
-0.0809721 8.03834e-05 -0.996716 
-0.0804608 -0.00259647 -0.996754 
-0.0804068 -0.00568735 -0.996746 
-0.0792452 -0.00916709 -0.996813 
-0.0776968 -0.013221 -0.996889 
-0.0774748 -0.0183537 -0.996825 
-0.0752449 -0.025027 -0.996851 
-0.0737996 -0.0324384 -0.996745 
-0.0727829 -0.042602 -0.996438 
-0.0703158 -0.0548571 -0.996015 
-0.068105 -0.0684611 -0.995326 
-0.0663891 -0.0846581 -0.994196 
-0.0638692 -0.0967943 -0.993253 
-0.062821 -0.098891 -0.993113 
-0.0406065 -0.0655827 -0.997021 
0.00090761 -3.40706e-05 -1 
-0.000286312 0.000208676 1 
0.0341361 -0.0630475 0.997427 
0.0525313 -0.0924511 0.994331 
0.0601149 -0.0909845 0.994036 
0.0619218 -0.0825437 0.994662 
0.0683266 -0.0710667 0.995129 
0.0685296 -0.0566449 0.99604 
0.071401 -0.0424109 0.996546 
0.0731872 -0.0331456 0.996767 
0.0751553 -0.0243967 0.996873 
0.0759018 -0.0179625 0.996953 
0.0774966 -0.0132102 0.996905 
0.0785757 -0.00882453 0.996869 
0.0792791 -0.00531834 0.996838 
0.0803273 -0.00231009 0.996766 
0.0804319 0.000304816 0.99676 
0.0808063 0.00317307 0.996725 
0.0806073 0.0062709 0.996726 
0.0799703 0.00988687 0.996748 
0.078611 0.0141303 0.996805 
0.0770316 0.0193149 0.996842 
0.0753345 0.0255387 0.996831 
0.0737363 0.0334623 0.996716 
0.0716241 0.0433676 0.996488 
0.069245 0.0563259 0.996008 
0.0661556 0.0724968 0.995172 
0.0623865 0.094074 0.993609 
0.0581798 0.121123 0.990931 
0.0532472 0.155373 0.98642 
0.0456354 0.203738 0.977961 
0.0383096 0.263572 0.963879 
0.0298122 0.339072 0.940288 
0.0208314 0.427778 0.903644 
0.0115619 0.53492 0.844824 
0.0112679 0.579575 0.814841 
0.00424291 0.705487 0.708711 
-2.75878e-06 0.829584 0.558382 
-0.001938 0.931895 0.362723 
-0.00341151 0.988911 0.148471 
-0.00269033 0.999581 -0.0288218 
-0.00371032 0.985796 -0.167905 
-0.00466774 0.929776 -0.368095 
-0.00677956 0.839532 -0.543269 
-0.00961938 0.738072 -0.674654 
-0.0136664 0.625968 -0.779729 
-0.0183009 0.518384 -0.854952 
-0.0268373 0.402728 -0.914926 
-0.0338293 0.311988 -0.949484 
-0.0417468 0.241708 -0.969451 
-0.0492465 0.185735 -0.981365 
-0.0551146 0.13961 -0.988672 
-0.0596432 0.10933 -0.992215 
-0.065062 0.0833384 -0.994395 
-0.0668451 0.0655535 -0.995608 
-0.0702781 0.0500465 -0.996271 
-0.0726363 0.0389837 -0.996596 
-0.0742838 0.0299683 -0.996787 
-0.0765376 0.022648 -0.996809 
-0.0780368 0.0173146 -0.9968 
-0.0789836 0.0123876 -0.996799 
-0.0797651 0.00849623 -0.996777 
-0.0804218 0.00510732 -0.996748 
-0.0807488 0.00196259 -0.996733 
-0.0805893 -0.000930118 -0.996747 
-0.0803168 -0.00382111 -0.996762 
-0.079271 -0.00724856 -0.996827 
-0.0785208 -0.0109508 -0.996852 
-0.0773056 -0.0151671 -0.996892 
-0.0756977 -0.0210983 -0.996908 
-0.0740099 -0.0275124 -0.996878 
-0.0724115 -0.0355026 -0.996743 
-0.0699626 -0.0478537 -0.996401 
-0.0687772 -0.0600848 -0.995821 
-0.067718 -0.0744861 -0.99492 
-0.0637335 -0.0853324 -0.994312 
-0.0638484 -0.092612 -0.993653 
-0.057891 -0.0960309 -0.993693 
-0.0462031 -0.0766015 -0.995991 
-0.00034013 9.71681e-07 -1 
-0.000426609 0.000264184 1 
0.0243969 -0.052303 0.998333 
0.0523838 -0.0954824 0.994052 
0.0560094 -0.0888306 0.994471 
0.0547357 -0.0789875 0.995372 
0.0633376 -0.0704815 0.9955 
0.0600219 -0.0622875 0.996252 
0.065484 -0.0499831 0.996601 
0.0650961 -0.0389497 0.997119 
0.0686392 -0.029716 0.997199 
0.0695884 -0.0226795 0.997318 
0.0689778 -0.0171742 0.99747 
0.0714026 -0.0123648 0.997371 
0.0722768 -0.00834584 0.99735 
0.0729619 -0.00479231 0.997323 
0.0734919 -0.00184411 0.997294 
0.0742109 0.0012902 0.997242 
0.0742864 0.0045109 0.997227 
0.0740411 0.00812131 0.997222 
0.0727141 0.0121746 0.997279 
0.0711902 0.0169926 0.997318 
0.0694104 0.0227618 0.997328 
0.0680547 0.0298413 0.997235 
0.0662013 0.0384844 0.997064 
0.064275 0.0495598 0.996701 
0.0615202 0.0633587 0.996093 
0.0586285 0.0813369 0.994961 
0.0546952 0.104862 0.992982 
0.0504832 0.134233 0.989663 
0.0455573 0.172285 0.983993 
0.0372526 0.22989 0.972503 
0.030181 0.296186 0.954653 
0.0215583 0.374249 0.927078 
0.0134919 0.466322 0.884512 
0.00486079 0.653187 0.757181 
0.00108591 0.770258 0.637732 
-0.00102045 0.880958 0.473193 
-0.00127241 0.942427 0.33441 
-0.00191033 0.979318 0.202319 
-0.00218067 0.999818 0.0189517 
-0.00365333 0.977589 -0.210489 
-0.00384851 0.914454 -0.404672 
-0.00462775 0.833139 -0.553044 
-0.00714729 0.72128 -0.692607 
-0.010804 0.600465 -0.799578 
-0.0161157 0.487951 -0.872722 
-0.023484 0.408054 -0.912656 
-0.0263953 0.343892 -0.938638 
-0.0338768 0.272341 -0.961604 
-0.0415156 0.211257 -0.976548 
-0.0476665 0.161851 -0.985663 
-0.0510774 0.124754 -0.990872 
-0.0578471 0.0923859 -0.994042 
-0.0590987 0.074868 -0.995441 
-0.0626899 0.0572505 -0.99639 
-0.0647303 0.0442927 -0.996919 
-0.0669279 0.034515 -0.997161 
-0.0692342 0.0261272 -0.997258 
-0.0704099 0.0200181 -0.997317 
-0.0725244 0.0148678 -0.997256 
-0.0724478 0.0102357 -0.99732 
-0.0732457 0.00632567 -0.997294 
-0.0740271 0.00280668 -0.997252 
-0.0737538 -0.000379196 -0.997276 
-0.073548 -0.00353923 -0.997285 
-0.0732597 -0.00675492 -0.99729 
-0.0720108 -0.0106688 -0.997347 
-0.0706888 -0.0148673 -0.997388 
-0.0705027 -0.0197799 -0.997315 
-0.0671728 -0.0264028 -0.997392 
-0.0657488 -0.0340329 -0.997256 
-0.0653745 -0.0436844 -0.996904 
-0.0620997 -0.0578195 -0.996394 
-0.0620616 -0.0713504 -0.995519 
-0.0572884 -0.0847124 -0.994757 
-0.0555915 -0.0934344 -0.994072 
-0.0479847 -0.0938885 -0.994426 
-0.0358639 -0.066113 -0.997167 
0.00014134 0.000214803 -1 
-0.00018825 0.000122849 1 
0.0227936 -0.060544 0.997905 
0.0419185 -0.0908287 0.994984 
0.0441079 -0.0958455 0.994418 
0.0477261 -0.0897697 0.994818 
0.049481 -0.0721089 0.996169 
0.0533387 -0.0554258 0.997037 
0.0557688 -0.0454274 0.99741 
0.0573917 -0.0338007 0.997779 
0.0590689 -0.0265577 0.997901 
0.0586055 -0.0207178 0.998066 
0.0595539 -0.015141 0.99811 
0.0614382 -0.0109023 0.998051 
0.0625592 -0.00702992 0.998016 
0.0619973 -0.00363905 0.99807 
0.0637118 -0.000338546 0.997968 
0.0637562 0.00312617 0.997961 
0.0635475 0.00692225 0.997955 
0.0622035 0.0110349 0.998002 
0.0609763 0.0157584 0.998015 
0.0595151 0.0213103 0.998 
0.0582855 0.0280806 0.997905 
0.0565272 0.0363091 0.997741 
0.0550308 0.0466288 0.997395 
0.0525428 0.0595918 0.996839 
0.0500685 0.0763802 0.995821 
0.046915 0.0980391 0.994076 
0.0425666 0.127421 0.990935 
0.038527 0.165074 0.985528 
0.0330607 0.214324 0.976203 
0.023748 0.291504 0.956275 
0.0159532 0.380592 0.924605 
0.00810681 0.495154 0.868768 
0.00261827 0.615901 0.787819 
0.00610096 0.586312 0.810062 
0.00169985 0.698051 0.716046 
-0.000425084 0.817439 0.576015 
-0.000925703 0.882043 0.471168 
-0.001113 0.983586 0.180434 
-4.42124e-05 0.999335 0.036475 
-0.00301581 0.989881 -0.141865 
-0.00410124 0.949905 -0.312513 
-0.00314101 0.859543 -0.511055 
-0.00303886 0.751422 -0.659815 
-0.00503575 0.639725 -0.768587 
-0.00901073 0.516598 -0.856181 
-0.0157647 0.410073 -0.911917 
-0.0221676 0.319028 -0.947486 
-0.0299014 0.250121 -0.967753 
-0.0367531 0.19674 -0.979767 
-0.0405265 0.154029 -0.987235 
-0.0469759 0.10894 -0.992938 
-0.0475293 0.0889391 -0.994902 
-0.0512799 0.0684869 -0.996333 
-0.0534353 0.0534174 -0.997142 
-0.0549814 0.0416347 -0.997619 
-0.0579969 0.0320789 -0.997801 
-0.0588605 0.0249843 -0.997954 
-0.0602587 0.0189268 -0.998003 
-0.0624623 0.0138553 -0.997951 
-0.0616483 0.00919344 -0.998056 
-0.0628965 0.00504629 -0.998007 
-0.0629031 0.00148373 -0.998019 
-0.0629417 -0.00192496 -0.998015 
-0.0623039 -0.00525987 -0.998043 
-0.0627291 -0.00877329 -0.997992 
-0.0606647 -0.0128235 -0.998076 
-0.0601885 -0.0174516 -0.998034 
-0.0595089 -0.0225189 -0.997974 
-0.0556895 -0.0296075 -0.998009 
-0.0550905 -0.0381369 -0.997753 
-0.0559361 -0.0488993 -0.997236 
-0.0508141 -0.0610562 -0.99684 
-0.0528712 -0.0727928 -0.995945 
-0.0475471 -0.0862271 -0.99514 
-0.0471104 -0.0942855 -0.99443 
-0.0397289 -0.0959695 -0.994591 
-0.026866 -0.0603988 -0.997813 
4.28125e-05 5.88309e-05 -1 
-1.39665e-05 8.08614e-05 1 
0.0207655 -0.0715612 0.99722 
0.0347943 -0.0954953 0.994822 
0.0357422 -0.0947631 0.994858 
0.0417815 -0.0854519 0.995466 
0.0376122 -0.0752291 0.996457 
0.0431487 -0.0618113 0.997155 
0.0409485 -0.0491729 0.997951 
0.0469278 -0.0398007 0.998105 
0.0454295 -0.0310908 0.998484 
0.0463622 -0.0249538 0.998613 
0.048125 -0.0190126 0.99866 
0.0478877 -0.0141921 0.998752 
0.0502196 -0.0100852 0.998687 
0.0506416 -0.00642121 0.998696 
0.0506308 -0.00275387 0.998714 
0.0519983 0.000695831 0.998647 
0.0518128 0.00450379 0.998647 
0.0505219 0.00850754 0.998687 
0.0496153 0.0130402 0.998683 
0.0487841 0.0181737 0.998644 
0.0477756 0.024152 0.998566 
0.0464725 0.031217 0.998432 
0.0450344 0.0399533 0.998186 
0.0435003 0.0506413 0.997769 
0.0414975 0.0645655 0.99705 
0.0390767 0.0823221 0.995839 
0.0362417 0.105875 0.993719 
0.0321443 0.138049 0.989904 
0.028432 0.179514 0.983344 
0.0237201 0.238537 0.970844 
0.0152438 0.323199 0.946208 
0.00939861 0.419373 0.907765 
0.00398808 0.52527 0.850926 
-0.000659679 0.744353 0.667786 
-0.00126046 0.879158 0.476528 
0.00148251 0.949616 0.313414 
0.00374227 0.982481 0.186323 
0.000214123 0.970401 0.241497 
0.00253426 0.994555 0.104179 
0.00158744 0.995549 -0.0942295 
0.000415122 0.987315 -0.15877 
-0.00352202 0.938152 -0.346205 
-0.00100521 0.814396 -0.580308 
-0.0017069 0.71118 -0.703007 
-0.00311776 0.567197 -0.823576 
-0.00833855 0.440698 -0.897617 
-0.0137847 0.344827 -0.938565 
-0.0220195 0.254568 -0.966804 
-0.0284259 0.192095 -0.980965 
-0.0274988 0.15901 -0.986894 
-0.0373756 0.13334 -0.990365 
-0.0352923 0.107014 -0.993631 
-0.0391168 0.0822371 -0.995845 
-0.0414712 0.0642631 -0.997071 
-0.0432012 0.0498804 -0.99782 
-0.0455303 0.038103 -0.998236 
-0.046756 0.0297803 -0.998462 
-0.0481261 0.0227091 -0.998583 
-0.049462 0.0167504 -0.998636 
-0.0506758 0.0118713 -0.998645 
-0.0506986 0.0068144 -0.998691 
-0.0506584 0.00272742 -0.998712 
-0.0510804 -0.00105822 -0.998694 
-0.0503487 -0.00461466 -0.998721 
-0.0505461 -0.00830707 -0.998687 
-0.0495609 -0.0121259 -0.998697 
-0.0488967 -0.0167876 -0.998663 
-0.047267 -0.0219912 -0.99864 
-0.0457686 -0.0278476 -0.998564 
-0.0438022 -0.0367115 -0.998365 
-0.0445998 -0.047449 -0.997877 
-0.0407787 -0.0616178 -0.997266 
-0.0410462 -0.0770515 -0.996182 
-0.0358975 -0.0894203 -0.995347 
-0.0370955 -0.0956348 -0.994725 
-0.0305178 -0.0983108 -0.994688 
-0.0245879 -0.0745584 -0.996913 
-8.10206e-05 0.000103025 -1 
4.12918e-05 4.85944e-05 1 
0.0152923 -0.0700253 0.997428 
0.0276048 -0.0984459 0.994759 
0.025728 -0.097615 0.994892 
0.0318246 -0.0900201 0.995431 
0.0287616 -0.0778731 0.996548 
0.0325307 -0.0612149 0.997594 
0.0310006 -0.0478397 0.998374 
0.0355891 -0.03803 0.998643 
0.0332761 -0.0306612 0.998976 
0.0363907 -0.0241208 0.999046 
0.0375674 -0.0185584 0.999122 
0.0370681 -0.013852 0.999217 
0.0392519 -0.00978752 0.999181 
0.0403306 -0.00577592 0.99917 
0.0397395 -0.00190192 0.999208 
0.0409827 0.00192727 0.999158 
0.0396606 0.00601128 0.999195 
0.0389601 0.0107018 0.999183 
0.0384984 0.0158864 0.999132 
0.0377824 0.0216073 0.999052 
0.0367727 0.0282164 0.998925 
0.0356435 0.0363272 0.998704 
0.0341932 0.0464262 0.998336 
0.0328649 0.0591624 0.997707 
0.0307892 0.0758583 0.996643 
0.028447 0.0978972 0.99479 
0.0254151 0.127366 0.99153 
0.0215999 0.169995 0.985208 
0.0183997 0.22571 0.974021 
0.0129599 0.297555 0.954617 
0.00688052 0.402376 0.915449 
0.00267929 0.519577 0.85442 
7.3531e-05 0.645786 0.763518 
-5.30963e-05 0.639154 0.769079 
0.000574317 0.861133 0.50838 
0.006541 0.940551 0.339588 
0.0064934 0.99826 0.0586102 
0.00499425 0.999782 0.0202745 
0.00543141 0.999983 0.00193722 
0.00511262 0.999825 -0.0179682 
0.00308095 0.996869 -0.079016 
0.000990551 0.966537 -0.256526 
-0.00159328 0.834363 -0.551213 
-0.000948605 0.614638 -0.788809 
-0.000771244 0.569302 -0.822128 
-0.00326567 0.484908 -0.874559 
-0.00614017 0.390274 -0.920678 
-0.0127537 0.293562 -0.955855 
-0.0185043 0.221928 -0.974887 
-0.0189933 0.179063 -0.983654 
-0.0268066 0.127313 -0.9915 
-0.0286244 0.0943982 -0.995123 
-0.0308259 0.0736256 -0.996809 
-0.0329566 0.0576188 -0.997795 
-0.034935 0.0443358 -0.998406 
-0.0356101 0.0348579 -0.998758 
-0.0371205 0.0270503 -0.998945 
-0.0383019 0.0205419 -0.999055 
-0.0386345 0.0150655 -0.99914 
-0.0407755 0.00994637 -0.999119 
-0.0393677 0.00519893 -0.999211 
-0.0399482 0.000917238 -0.999201 
-0.0395276 -0.00284881 -0.999214 
-0.0395509 -0.00666824 -0.999195 
-0.0386127 -0.0104094 -0.9992 
-0.0387441 -0.0146264 -0.999142 
-0.0373274 -0.0193523 -0.999116 
-0.0353044 -0.0246968 -0.999071 
-0.0354371 -0.0315763 -0.998873 
-0.0323864 -0.0400977 -0.998671 
-0.0344787 -0.0491544 -0.998196 
-0.0301108 -0.0609849 -0.997684 
-0.0316599 -0.0746153 -0.99671 
-0.0274982 -0.088627 -0.995685 
-0.0266515 -0.0977585 -0.994853 
-0.021934 -0.0982887 -0.994916 
-0.0164133 -0.0658982 -0.997691 
0.000121558 0.000104748 -1 
-7.95637e-05 0.000127793 1 
0.0106709 -0.070267 0.997471 
0.0196279 -0.0989611 0.994898 
0.0187815 -0.0990809 0.994902 
0.0231624 -0.090106 0.995663 
0.0206028 -0.0773941 0.996788 
0.0245031 -0.063542 0.997678 