# vtk DataFile Version 3.0 
Exported using Morpho https://github.com/Morpho-lang/morpho 
ASCII 
DATASET UNSTRUCTURED_GRID 

POINTS 1978 float 
-8.48388 -2.82701 4.10711e-06 
-8.26614 -2.82696 -4.05815e-05 
-8.04799 -2.82534 -7.81568e-05 
-7.75408 -2.82975 -3.5809e-05 
-7.48387 -2.82581 -5.32345e-05 
-7.21308 -2.82714 -3.40245e-05 
-7.00922 -2.82739 -3.8375e-05 
-6.77606 -2.8275 -2.22948e-05 
-6.55798 -2.82781 -9.89187e-06 
-6.34419 -2.82655 -5.96494e-06 
-6.14413 -2.82773 -2.62694e-05 
-5.92847 -2.82745 -1.4013e-05 
-5.71399 -2.82702 -9.76465e-06 
-5.51151 -2.82723 -1.09981e-05 
-5.29509 -2.82708 -3.97192e-06 
-5.08538 -2.82725 -1.01825e-05 
-4.86891 -2.82734 4.24099e-06 
-4.66418 -2.82715 5.65072e-06 
-4.44614 -2.82731 1.38293e-05 
-4.22991 -2.82724 1.42271e-05 
-4.01149 -2.82723 1.42184e-05 
-3.8006 -2.8271 1.77606e-05 
-3.58273 -2.82698 2.2425e-05 
-3.37157 -2.8272 3.70489e-05 
-3.14822 -2.82754 4.81924e-05 
-2.93904 -2.82779 5.84053e-05 
-2.7285 -2.82824 6.4282e-05 
-2.53337 -2.82852 7.08727e-05 
-2.32221 -2.82837 8.92365e-05 
-2.11208 -2.82929 0.000107197 
-1.89628 -2.82859 0.000132367 
-1.69198 -2.82947 0.000115877 
-1.49105 -2.82876 7.3541e-05 
-1.28084 -2.82902 -7.16962e-06 
-1.09734 -2.8271 -9.67308e-05 
-0.849724 -2.8275 3.81802e-06 
-0.631911 -2.82235 6.14291e-05 
-0.457943 -2.82146 1.87526e-05 
-0.239423 -2.81763 2.34588e-06 
0.0213269 -2.8162 8.49386e-05 
0.242381 -2.82094 6.20054e-05 
0.425857 -2.82028 -0.000142946 
0.645335 -2.82248 -0.000109252 
0.871751 -2.82597 8.13123e-05 
1.08781 -2.82805 -3.65466e-06 
1.26612 -2.82883 8.3961e-06 
1.43935 -2.82896 -7.41175e-05 
1.70305 -2.82891 -7.51915e-05 
1.88461 -2.82856 -0.000145854 
2.10077 -2.82948 -0.000119024 
2.33442 -2.82784 -7.87941e-05 
2.52153 -2.82843 -7.36835e-05 
2.74599 -2.828 -5.96473e-05 
2.96545 -2.82805 -5.69922e-05 
3.17546 -2.82738 -5.27285e-05 
3.38205 -2.82707 -3.18401e-05 
3.60986 -2.82722 -2.25488e-05 
3.81251 -2.82718 -1.80277e-05 
4.02747 -2.8271 -1.23681e-05 
4.2542 -2.82725 -1.44701e-05 
4.45278 -2.82727 -8.64593e-06 
4.66498 -2.82739 -9.10747e-06 
4.87368 -2.82703 5.28716e-06 
5.07549 -2.82725 4.49421e-06 
5.29015 -2.827 5.45473e-06 
5.50098 -2.82717 8.99045e-06 
5.70368 -2.82725 3.72395e-06 
5.92227 -2.8271 1.56109e-05 
6.14332 -2.82705 1.64803e-05 
6.3415 -2.82726 2.38136e-05 
6.5814 -2.82716 1.57434e-05 
6.79176 -2.82731 9.39236e-06 
6.99302 -2.82714 4.03127e-05 
7.2545 -2.82697 3.75987e-05 
7.48425 -2.82747 6.60935e-05 
7.72841 -2.82745 4.86339e-05 
7.99789 -2.82718 6.6204e-05 
8.18479 -2.82729 3.10711e-05 
8.4831 -2.82608 2.15108e-06 
-8.48402 -2.5962 5.24017e-05 
-8.24925 -2.5764 -2.60645e-05 
-8.02535 -2.56091 3.76887e-05 
-7.81634 -2.63883 2.59463e-06 
-7.55723 -2.62978 -5.13005e-05 
-7.25856 -2.62717 -2.47685e-05 
-6.99523 -2.56914 1.81182e-05 
-6.78923 -2.60912 -6.83492e-07 
-6.54635 -2.59451 -8.02171e-06 
-6.33587 -2.56861 5.16165e-06 
-6.11249 -2.59693 4.5139e-06 
-5.89325 -2.59585 3.40213e-06 
-5.68087 -2.57844 1.15657e-06 
-5.46275 -2.59515 1.5147e-06 
-5.24639 -2.58793 1.31495e-06 
-5.02868 -2.59685 2.76141e-06 
-4.81956 -2.58447 2.99868e-06 
-4.60147 -2.59891 2.7068e-06 
-4.38285 -2.59533 1.05369e-06 
-4.16301 -2.59464 2.53426e-06 
-3.94983 -2.58318 2.73561e-06 
-3.73418 -2.58919 5.46629e-06 
-3.5208 -2.58254 3.56271e-06 
-3.30167 -2.60006 5.44954e-06 
-3.08899 -2.59139 1.27722e-06 
-2.87722 -2.60067 7.50431e-06 
-2.67616 -2.59111 1.88852e-06 
-2.47043 -2.61293 1.07077e-05 
-2.25641 -2.61374 7.45969e-06 
-2.0426 -2.61971 5.1826e-06 
-1.82961 -2.60107 1.84575e-05 
-1.63062 -2.58901 -5.37503e-06 
-1.41789 -2.59423 -1.17659e-05 
-1.2267 -2.55579 -3.80595e-05 
-0.99616 -2.62617 -8.73195e-05 
-0.785174 -2.58001 -4.66798e-05 
-0.607284 -2.47382 -0.000149367 
-0.415997 -2.51974 -0.000281666 
-0.18828 -2.55021 -0.00015723 
0.0103957 -2.46937 -1.49659e-05 
0.209339 -2.52429 0.000229418 
0.417129 -2.46774 0.000103675 
0.602658 -2.5582 5.32062e-05 
0.834195 -2.5899 0.00013919 
1.06018 -2.59763 6.84193e-05 
1.27522 -2.55987 2.80263e-05 
1.51494 -2.66118 -4.13704e-05 
1.71285 -2.5828 1.2427e-05 
1.9308 -2.62463 -1.91468e-05 
2.16118 -2.63854 -2.84693e-05 
2.36057 -2.58149 1.65841e-05 
2.57431 -2.62009 -1.154e-05 
2.79708 -2.61012 -1.1186e-05 
3.00691 -2.59603 -4.43687e-06 
3.2148 -2.58548 -6.74247e-07 
3.43867 -2.60478 -7.16911e-06 
3.64601 -2.57611 -2.79048e-06 
3.86176 -2.59038 -4.25829e-06 
4.09133 -2.60411 -4.43784e-06 
4.3008 -2.57356 -1.35884e-06 
4.51583 -2.59285 -2.69611e-06 
4.73077 -2.5907 -2.69443e-06 
4.94229 -2.58381 -3.36441e-06 
5.15621 -2.59887 -2.43671e-06 
5.37482 -2.59289 -8.71056e-07 
5.58533 -2.58215 -1.60325e-06 
5.80065 -2.59836 -1.87253e-06 
6.02558 -2.5986 -1.75501e-06 
6.2381 -2.56911 -3.38832e-06 
6.45745 -2.61272 -1.58476e-06 
6.68456 -2.57839 -5.42587e-06 
6.89309 -2.56371 -6.89349e-06 
7.12048 -2.62288 6.77382e-06 
7.36942 -2.59374 -6.64606e-06 
7.60859 -2.60721 -8.12915e-06 
7.86594 -2.62518 -1.3989e-05 
8.07844 -2.53305 -2.9154e-05 
8.30055 -2.63889 3.78368e-05 
8.48417 -2.52324 -8.58306e-05 
-8.48188 -2.36355 0.000139589 
-8.22112 -2.34684 -2.22736e-05 
-7.97336 -2.32533 -2.46072e-07 
-7.75071 -2.41141 4.74484e-05 
-7.57305 -2.26182 -3.47729e-05 
-7.44658 -2.45777 4.41188e-05 
-7.17523 -2.39806 -5.7256e-06 
-6.93708 -2.32061 -1.64399e-05 
-6.709 -2.39333 -8.07326e-07 
-6.48155 -2.3488 -5.52768e-06 
-6.22995 -2.35228 -1.00549e-05 
-6.01534 -2.36356 -6.62405e-06 
-5.79923 -2.34947 -4.6224e-06 
-5.57029 -2.3495 -3.21074e-06 
-5.35835 -2.35604 -4.09792e-06 
-5.13643 -2.36023 -2.69978e-06 
-4.9272 -2.34997 -1.31459e-06 
-4.70519 -2.36358 -5.29638e-07 
-4.48754 -2.36589 -7.60479e-07 
-4.26622 -2.36422 -7.25234e-07 
-4.05052 -2.34762 5.44149e-07 
-3.83199 -2.34665 2.65655e-06 
-3.61895 -2.34401 5.81395e-06 
-3.39674 -2.35953 6.83365e-06 
-3.18591 -2.36034 9.67548e-06 
-2.96895 -2.36856 1.10722e-05 
-2.76351 -2.36091 2.02673e-05 
-2.55359 -2.37866 2.40181e-05 
-2.34836 -2.40155 1.85642e-05 
-2.12783 -2.39945 1.92207e-05 
-1.91662 -2.39356 1.55815e-05 
-1.69658 -2.35151 4.72559e-06 
-1.48 -2.3648 9.8155e-06 
-1.27011 -2.28942 6.32367e-07 
-1.05369 -2.38752 -2.59e-05 
-0.84487 -2.32205 -0.000150773 
-0.634022 -2.21156 -0.000138808 
-0.410752 -2.18232 -0.000196607 
-0.216143 -2.22071 -2.3171e-05 
0.00331276 -2.12588 0.000294567 
0.224565 -2.21503 -7.48834e-06 
0.45102 -2.13358 -9.84513e-05 
0.656021 -2.24631 0.000289974 
0.837054 -2.34467 3.0172e-05 
1.06058 -2.35821 8.2976e-05 
1.27705 -2.32449 6.25365e-05 
1.47854 -2.44612 1.15882e-05 
1.65709 -2.35052 -2.72989e-05 
1.87306 -2.40271 -1.76405e-05 
2.08996 -2.43009 -5.48658e-06 
2.29946 -2.36983 -3.54133e-05 
2.52551 -2.38825 -2.38652e-05 
2.72975 -2.39863 -1.11341e-05 
2.94603 -2.36354 -1.29803e-05 
3.14818 -2.34897 -1.11872e-05 
3.36592 -2.37155 -5.53155e-06 
3.57212 -2.33729 -8.58566e-06 
3.78667 -2.3465 -3.72661e-06 
4.00562 -2.37452 1.29956e-06 
4.21612 -2.3401 -1.10923e-06 
4.43906 -2.34968 1.46111e-06 
4.6496 -2.35456 1.21088e-06 
4.86196 -2.34993 6.72644e-07 
5.08083 -2.35754 1.86151e-06 
5.29099 -2.36633 3.65092e-06 
5.50754 -2.34663 3.85519e-06 
5.72591 -2.35683 3.67511e-06 
5.94153 -2.37134 4.88676e-06 
6.15679 -2.33875 8.86547e-06 
6.39152 -2.36196 7.00313e-06 
6.59968 -2.36102 6.99624e-06 
6.82676 -2.31343 1.29623e-05 
7.05695 -2.36958 9.85862e-06 
7.27644 -2.38994 7.67057e-06 
7.53939 -2.37463 6.34736e-06 
7.78246 -2.4047 -1.94359e-05 
7.99892 -2.31073 6.9412e-06 
8.26112 -2.36752 1.68827e-05 
8.48423 -2.27826 -7.43787e-05 
-8.48623 -2.09255 6.42128e-05 
-8.27766 -2.13003 -5.30118e-05 
-8.04184 -2.09715 -2.35672e-05 
-7.78647 -2.13945 -5.3169e-06 
-7.51833 -2.04276 -1.16616e-05 
-7.32099 -2.22883 -3.06705e-05 
-7.0797 -2.13126 -1.31006e-05 
-6.79652 -2.13365 -1.09414e-05 
-6.59339 -2.13644 -6.38229e-06 
-6.3476 -2.14761 -8.23584e-06 
-6.11672 -2.1111 -6.26452e-06 
-5.9148 -2.11716 -4.5931e-06 
-5.68984 -2.12445 -1.89067e-06 
-5.46812 -2.11001 -1.55954e-06 
-5.25369 -2.13086 -1.81023e-06 
-5.04252 -2.11441 -6.61871e-07 
-4.82102 -2.12922 -3.63886e-07 
-4.60469 -2.13389 1.24502e-06 
-4.38558 -2.13553 1.70616e-06 
-4.17271 -2.12003 2.87735e-06 
-3.95468 -2.11075 3.59615e-06 
-3.74098 -2.10529 6.64767e-06 
-3.52019 -2.12161 9.71372e-06 
-3.30887 -2.12198 1.09952e-05 
-3.09455 -2.13625 1.53817e-05 
-2.88801 -2.13244 2.03782e-05 
-2.67498 -2.14118 2.63737e-05 
-2.46945 -2.15604 2.99302e-05 
-2.26232 -2.18407 3.54806e-05 
-2.04481 -2.16436 3.67324e-05 
-1.8298 -2.15843 3.57968e-05 
-1.5842 -2.12481 8.98424e-06 
-1.37906 -2.08133 -6.9533e-05 
-1.16887 -1.9445 2.29827e-05 
-1.0703 -2.13897 -0.000119535 
-0.845503 -2.06107 -7.70559e-05 
-0.599472 -1.93949 -9.28788e-05 
-0.385492 -1.84758 5.66027e-05 
-0.133915 -1.91118 -0.000183105 
0.0724713 -1.66172 4.40159e-05 
0.218404 -1.92781 5.89484e-05 
0.320389 -1.65348 -3.09118e-05 
0.529118 -1.88618 0.000404888 
0.758848 -1.99727 -0.000126192 
0.970486 -2.09706 0.000136164 
1.18791 -2.10116 3.82366e-05 
1.45224 -2.18765 1.84604e-05 
1.6777 -2.12792 -1.3147e-05 
1.89394 -2.18407 -4.13225e-05 
2.11165 -2.2001 -3.1727e-05 
2.3638 -2.16382 -3.43978e-05 
2.57325 -2.15473 -2.83295e-05 
2.78115 -2.16744 -2.76172e-05 
2.98526 -2.11419 -1.49091e-05 
3.20568 -2.12836 -1.43171e-05 
3.40628 -2.12097 -1.0866e-05 
3.62245 -2.10157 -7.10182e-06 
3.84195 -2.12176 -5.17233e-06 
4.0449 -2.12584 -3.14147e-06 
4.27456 -2.11517 -2.23694e-06 
4.48672 -2.11005 -1.09551e-06 
4.69867 -2.11556 -3.37045e-08 
4.91879 -2.12385 2.5109e-07 
5.1308 -2.11983 6.44374e-07 
5.34182 -2.13162 1.37593e-06 
5.56596 -2.11862 1.35143e-06 
5.78233 -2.12522 2.64582e-06 
5.99173 -2.12753 5.52837e-06 
6.23559 -2.12788 7.03733e-06 
6.44523 -2.10977 5.20345e-06 
6.65884 -2.11764 6.03386e-06 
6.91897 -2.10414 1.0485e-05 
7.13589 -2.13292 1.59693e-05 
7.36926 -2.18113 2.23332e-05 
7.56338 -2.08689 1.18832e-05 
7.74502 -2.17461 7.95678e-06 
7.95913 -2.07613 -1.0393e-05 
8.20509 -2.14556 4.32553e-05 
8.48384 -2.08269 -3.92421e-05 
-8.48353 -1.81108 6.91828e-05 
-8.29371 -1.88729 1.72118e-06 
-7.90007 -1.9084 3.09776e-05 
-7.67622 -1.88993 2.69129e-06 
[...]
POINT_DATA 1978 
VECTORS vectors float
0.0776485 -0.103605 0.991722 
0.0775406 -0.0990558 0.992298 
0.0712402 -0.0946481 0.993389 
0.070984 -0.0735493 0.995055 
0.0731288 -0.0556536 0.996085 
0.0760596 -0.0443121 0.996413 
0.0791166 -0.0352494 0.996517 
0.0797188 -0.0263645 0.996737 
0.0790339 -0.0205488 0.996822 
0.0795824 -0.0148688 0.996963 
0.0800342 -0.0108827 0.996993 
0.0823639 -0.00798619 0.996816 
0.08314 -0.00431536 0.996777 
0.0835022 -0.00163814 0.996752 
0.0843001 3.30183e-05 0.99668 
0.0843642 0.00162151 0.996671 
0.0846165 0.00342005 0.996643 
0.0842476 0.00534058 0.996668 
0.0839267 0.00737567 0.996679 
0.0831383 0.00991203 0.996731 
0.0822883 0.0133826 0.99677 
0.0813318 0.0176098 0.996792 
0.0800935 0.0234557 0.996777 
0.0781397 0.0308743 0.996732 
0.075791 0.0412617 0.996538 
0.072324 0.0544525 0.996162 
0.06839 0.0721593 0.995313 
0.0633891 0.0937054 0.993848 
0.0578178 0.123275 0.990959 
0.0504098 0.160837 0.985969 
0.0407805 0.209724 0.977196 
0.0295736 0.268525 0.963106 
0.0164348 0.339524 0.940726 
0.000975588 0.434601 0.900849 
-0.0105469 0.531825 0.846964 
-0.0199388 0.666543 0.745232 
-0.0255604 0.795543 0.605209 
-0.0244352 0.883002 0.468375 
-0.014959 0.966224 0.256148 
0.000577548 0.999078 -0.0331328 
0.014167 0.965713 -0.258235 
0.0210345 0.896729 -0.441586 
0.0253023 0.789628 -0.612992 
0.0223629 0.659436 -0.75149 
0.0106094 0.532648 -0.846421 
-0.00125264 0.440232 -0.897973 
-0.013393 0.36073 -0.932822 
-0.0299451 0.265813 -0.963823 
-0.0394946 0.213148 -0.976505 
-0.0499558 0.163977 -0.985467 
-0.0578458 0.121905 -0.991131 
-0.0628202 0.0949469 -0.993774 
-0.068821 0.0705151 -0.995401 
-0.0727677 0.0524733 -0.996231 
-0.0759708 0.0392108 -0.996604 
-0.0782501 0.0300595 -0.996744 
-0.0803372 0.022726 -0.996767 
-0.0811294 0.0170132 -0.996817 
-0.0823942 0.013014 -0.996767 
-0.0831426 0.00992445 -0.996733 
-0.083323 0.00727023 -0.996739 
-0.0840253 0.00546104 -0.996685 
-0.0841448 0.00355328 -0.996683 
-0.0839268 0.00165539 -0.996702 
-0.0840295 0.000139982 -0.996697 
-0.0835209 -0.00178539 -0.996744 
-0.0830607 -0.00425965 -0.99678 
-0.0827459 -0.00683314 -0.996795 
-0.081456 -0.0104551 -0.996878 
-0.08043 -0.0152883 -0.996903 
-0.0799853 -0.0208859 -0.996846 
-0.0790564 -0.0276578 -0.996764 
-0.0781701 -0.0351183 -0.996606 
-0.0774827 -0.0443855 -0.996297 
-0.075122 -0.0561448 -0.99589 
-0.0720004 -0.0722461 -0.995085 
-0.070891 -0.094867 -0.993274 
-0.0754743 -0.0977804 -0.992685 
-0.0778338 -0.10429 -0.991597 
0.0642012 -0.103095 0.992737 
0.0639057 -0.0909243 0.994758 
0.058282 -0.0849463 0.995546 
0.0645958 -0.0792243 0.995505 
0.069626 -0.0619148 0.996506 
0.0703759 -0.0456774 0.997326 
0.0672888 -0.0356997 0.99795 
0.0711783 -0.0278555 0.997897 
0.0723202 -0.0201643 0.998076 
0.0707518 -0.015623 0.998196 
0.0742812 -0.0119893 0.997947 
0.0744597 -0.00804445 0.997977 
0.074641 -0.00471264 0.997993 
0.07618 -0.00213264 0.997877 
0.0763322 -0.000140553 0.997866 
0.0771456 0.00187873 0.997795 
0.07685 0.0038791 0.997814 
0.0770387 0.00614263 0.997784 
0.076043 0.00882223 0.997848 
0.0750534 0.0120985 0.997896 
0.0735047 0.0160725 0.997964 
0.0724469 0.0210128 0.997952 
0.0702707 0.027537 0.99795 
0.0687126 0.0363054 0.997767 
0.0655797 0.0481164 0.997468 
0.0628787 0.0635116 0.996764 
0.0585645 0.0829428 0.995586 
0.054218 0.107694 0.993447 
0.0477552 0.141419 0.989542 
0.0397966 0.184404 0.982791 
0.0299676 0.239622 0.971155 
0.0195141 0.303076 0.953501 
0.00863918 0.385807 0.923235 
-0.000875017 0.476081 0.879976 
-0.011033 0.595127 0.803949 
-0.0156301 0.713928 0.700092 
-0.0147129 0.812126 0.582966 
-0.0138956 0.903764 0.426255 
-0.00763329 0.978992 0.199217 
0.00041875 0.99888 -0.0147889 
0.00657323 0.973993 -0.223114 
0.0108349 0.905476 -0.422672 
0.0146352 0.816272 -0.577128 
0.0143149 0.687133 -0.726456 
0.00783626 0.560868 -0.828309 
-0.00144453 0.451845 -0.892919 
-0.015849 0.341315 -0.94039 
-0.0233773 0.275926 -0.961716 
-0.0355782 0.211617 -0.977434 
-0.0454115 0.159109 -0.98686 
-0.0494147 0.125572 -0.991718 
-0.0567982 0.0943688 -0.994675 
-0.0614279 0.0701068 -0.996417 
-0.0644424 0.0531392 -0.997284 
-0.0670939 0.0405452 -0.997713 
-0.0707354 0.0302327 -0.997827 
-0.0711618 0.0234706 -0.997986 
-0.073286 0.0178505 -0.997946 
-0.0754266 0.0132524 -0.997853 
-0.0752185 0.0100796 -0.99791 
-0.0766715 0.00730376 -0.997812 
-0.0772125 0.00491132 -0.99778 
-0.0769602 0.0026557 -0.997806 
-0.0769817 0.000670571 -0.997802 
-0.0764862 -0.00142776 -0.997843 
-0.0753142 -0.00371703 -0.997932 
-0.0750383 -0.00633485 -0.997941 
-0.0740792 -0.00974492 -0.997994 
-0.0718575 -0.0137526 -0.998124 
-0.0724897 -0.0185647 -0.997997 
-0.070372 -0.0249224 -0.998033 
-0.068721 -0.0315825 -0.997975 
-0.0698244 -0.0397788 -0.997601 
-0.066263 -0.0516974 -0.997319 
-0.0643445 -0.0658538 -0.996609 
-0.0629241 -0.0825159 -0.995341 
-0.0585025 -0.0852761 -0.995609 
-0.0677474 -0.0941705 -0.993976 
-0.0613114 -0.103293 -0.992997 
0.0559872 -0.0987217 0.99389 
0.0561053 -0.0825255 0.995899 
0.0601295 -0.0864362 0.995183 
0.0594791 -0.0767615 0.996233 
0.0648267 -0.0661711 0.996396 
0.0611583 -0.0565105 0.99738 
0.0680681 -0.0435388 0.997574 
0.0710938 -0.0342016 0.997689 
0.0713317 -0.0261951 0.997909 
0.0735239 -0.0199191 0.997871 
0.0764802 -0.0145915 0.997725 
0.0762825 -0.0107475 0.997788 
0.077706 -0.00744731 0.9977 
0.0789884 -0.00444953 0.997617 
0.0796844 -0.0020043 0.997562 
0.0803878 0.000370374 0.997503 
0.0810872 0.00266151 0.997439 
0.0808478 0.00530628 0.99745 
0.0802186 0.00815122 0.997487 
0.0789653 0.0114984 0.99756 
0.0778109 0.0155191 0.9976 
0.0759409 0.0204092 0.997663 
0.0739545 0.0264503 0.997671 
0.0714377 0.0346372 0.997604 
0.068962 0.0453369 0.997343 
0.0658179 0.0600573 0.99677 
0.062234 0.0787131 0.995693 
0.0572273 0.102836 0.993791 
0.0507255 0.132692 0.990607 
0.0422616 0.174474 0.98452 
0.032886 0.225444 0.974467 
0.0217795 0.292416 0.956806 
0.0111559 0.369417 0.929924 
0.00103043 0.466516 0.885156 
-0.00706399 0.573471 0.81956 
-0.012242 0.690301 0.723721 
-0.0138267 0.807474 0.589333 
-0.0119798 0.912519 0.407432 
-0.00804381 0.972901 0.227236 
-0.00210856 0.998952 -0.00505214 
0.00474728 0.97045 -0.23759 
0.00873709 0.892075 -0.450614 
0.0114204 0.790731 -0.611874 
0.0112274 0.690568 -0.723386 
0.00625219 0.565953 -0.824892 
-0.00148537 0.462334 -0.887226 
-0.0112408 0.368245 -0.930326 
-0.0202819 0.306698 -0.952322 
-0.0309563 0.236654 -0.971746 
-0.0402744 0.181239 -0.983482 
-0.0489531 0.142964 -0.989174 
-0.055773 0.10677 -0.993474 
-0.0607095 0.0815042 -0.995578 
-0.0654301 0.061923 -0.996685 
-0.0688247 0.0476162 -0.997241 
-0.071214 0.0357044 -0.997579 
-0.0740071 0.0279471 -0.997617 
-0.0758536 0.021524 -0.997637 
-0.0770311 0.0162954 -0.997652 
-0.0791206 0.0125728 -0.997533 
-0.080192 0.00905607 -0.997481 
-0.0809372 0.00615664 -0.997442 
-0.0812994 0.00345975 -0.997417 
-0.0809986 0.000912165 -0.997447 
-0.0801531 -0.00134854 -0.997516 
-0.0796318 -0.00386241 -0.997548 
-0.0783893 -0.00657301 -0.99764 
-0.0768203 -0.00956252 -0.99775 
-0.0760374 -0.0132222 -0.997769 
-0.0742922 -0.0178407 -0.997847 
-0.0732709 -0.0230864 -0.997826 
-0.0721653 -0.0301827 -0.997721 
-0.0700371 -0.0385152 -0.997613 
-0.067546 -0.0483287 -0.997371 
-0.064307 -0.0634024 -0.996867 
-0.0613266 -0.0788132 -0.99582 
-0.0600301 -0.0863235 -0.995294 
-0.0569652 -0.0848099 -0.99564 
-0.0539288 -0.0956179 -0.9942 
0.0427084 -0.101511 0.994114 
0.0505121 -0.0845434 0.995926 
0.0537379 -0.084953 0.995895 
0.0587453 -0.0807353 0.99594 
0.0582915 -0.0645525 0.997023 
0.0676272 -0.0516611 0.997177 
0.0656159 -0.0405816 0.997948 
0.067758 -0.0297053 0.998038 
0.068987 -0.0235992 0.998103 
0.0708787 -0.0176958 0.99808 
0.0698466 -0.0135284 0.99822 
0.071045 -0.0103111 0.998168 
0.0727542 -0.00712287 0.998069 
0.0730444 -0.00432573 0.998058 
0.0749261 -0.00160939 0.99792 
0.0746614 0.000982513 0.99794 
0.0758036 0.0039948 0.997847 
0.0757588 0.00710677 0.997833 
0.0750218 0.0105079 0.997864 
0.073157 0.014356 0.997959 
0.0711164 0.019012 0.998034 
0.0689905 0.0245382 0.998062 
0.0675391 0.0318051 0.997957 
0.06499 0.0413572 0.997773 
0.0626254 0.054206 0.997306 
0.0587814 0.0708868 0.99649 
0.0545693 0.0932012 0.994897 
0.049571 0.120681 0.992211 
0.0438181 0.154954 0.987726 
0.0346449 0.201495 0.979675 
0.0251369 0.258971 0.966352 
0.0130722 0.341095 0.940717 
0.00357347 0.427873 0.904662 
-0.00450001 0.533915 0.846004 
-0.00697464 0.574924 0.81881 
-0.011464 0.699518 0.714725 
-0.0125327 0.828744 0.559043 
-0.0101191 0.924153 0.380114 
-0.00572074 0.989497 0.137853 
-0.000332267 0.995511 -0.0823688 
0.00257674 0.971894 -0.231566 
0.00389988 0.942627 -0.331849 
0.00782006 0.856559 -0.515424 
0.00995688 0.741973 -0.670339 
0.00808849 0.622991 -0.782601 
0.00270914 0.514426 -0.858253 
-0.00822932 0.392683 -0.920337 
-0.0171754 0.31077 -0.951118 
-0.0286898 0.239456 -0.971375 
-0.0382233 0.185612 -0.982663 
-0.0465773 0.137888 -0.990133 
-0.052267 0.106067 -0.993753 
-0.0580482 0.0808123 -0.995795 
-0.0598667 0.0626394 -0.996995 
-0.0641062 0.0467969 -0.997591 
-0.0663361 0.0363831 -0.997877 
-0.067917 0.0281472 -0.998038 
-0.0709292 0.0216606 -0.997986 
-0.0725698 0.0169595 -0.997959 
-0.0735777 0.0125804 -0.99795 
-0.0741721 0.00908869 -0.997943 
-0.0749125 0.00587514 -0.997911 
-0.075503 0.00270245 -0.997873 
-0.0747895 -0.000149897 -0.99793 
-0.0747143 -0.00274613 -0.997929 
-0.073137 -0.00560223 -0.998038 
-0.0723771 -0.00847416 -0.998078 
-0.0713367 -0.011498 -0.998129 
-0.0701475 -0.0155483 -0.998168 
-0.0681656 -0.0199491 -0.998239 
-0.067537 -0.0254635 -0.998167 
-0.0657662 -0.0341099 -0.998039 
-0.0655939 -0.0430288 -0.997712 
-0.0657737 -0.054808 -0.997005 
-0.0599328 -0.0675072 -0.996715 
-0.0607303 -0.0788133 -0.995835 
-0.0544747 -0.0888912 -0.995361 
-0.0526029 -0.0834423 -0.996013 
-0.0425084 -0.0969954 -0.994615 
0.0307069 -0.103032 0.994423 
0.0386222 -0.0893885 0.996126 
0.0464976 -0.0889363 0.995634 
0.048478 -0.0768992 0.996676 
0.0458177 -0.0609226 0.998032 
0.0578601 -0.0511739 0.997708 
0.049279 -0.0444057 0.998611 
0.0570789 -0.0352792 0.998544 
0.0541932 -0.0275429 0.998937 
0.0580957 -0.0214977 0.998854 
0.058268 -0.0169652 0.998922 
0.0554477 -0.0135023 0.999139 
0.0590255 -0.0101615 0.998962 
0.0600099 -0.00710302 0.998921 
0.0604659 -0.00405251 0.998908 
0.0612956 -0.00122844 0.998864 
0.0622621 0.0021415 0.998804 
0.0624958 0.00561672 0.998777 
0.0625382 0.00919699 0.998747 
0.0608174 0.01299 0.998815 
0.059314 0.0172406 0.99884 
0.0572741 0.0222485 0.998855 
0.0561852 0.0285407 0.998753 
0.0543185 0.0365731 0.998592 
0.052376 0.0474346 0.998238 
0.0497149 0.0613094 0.997621 
0.04649 0.0799463 0.996468 
0.0421419 0.103724 0.994488 
0.0376681 0.133609 0.991116 
0.0323974 0.171802 0.98542 
0.023398 0.227159 0.974423 
0.015284 0.294436 0.956269 
0.0064077 0.370374 0.929691 
-0.000989443 0.463969 0.886568 
-0.0100505 0.659842 0.751703 
-0.0113821 0.770665 0.637149 
-0.00908462 0.872575 0.487561 
-0.00473759 0.937573 0.346037 
-0.00562791 0.974993 0.218338 
-0.00201005 0.997762 0.0489624 
0.00175447 0.964045 -0.261974 
0.00471426 0.891069 -0.452945 
0.00683594 0.811088 -0.584483 
0.007325 0.694256 -0.720023 
0.00599484 0.593296 -0.805501 
0.00260738 0.502335 -0.865413 
-0.00298059 0.425164 -0.905873 
-0.00812508 0.354753 -0.935595 
-0.016818 0.276595 -0.961666 
-0.0262676 0.214572 -0.977179 
-0.0348287 0.163215 -0.986799 
-0.0392095 0.122919 -0.992453 
-0.0448965 0.0933697 -0.995405 
-0.0471203 0.0731451 -0.996982 
-0.0513025 0.0543309 -0.997961 
-0.052815 0.0417586 -0.998477 
-0.0549676 0.0325351 -0.998702 
-0.0574775 0.0249675 -0.998777 
-0.0584281 0.0196546 -0.998844 
-0.0610619 0.015108 -0.998766 
-0.0603738 0.0110329 -0.998867 
-0.0611187 0.007328 -0.998855 
-0.0621925 0.00370506 -0.998807 
-0.0614438 0.000341742 -0.998857 
-0.061154 -0.00275588 -0.998868 
-0.060888 -0.00554442 -0.998873 
-0.0593156 -0.00872904 -0.998948 
-0.0579687 -0.0118227 -0.999 
-0.0588641 -0.0150363 -0.998912 
-0.0548914 -0.0194113 -0.999076 
-0.0541474 -0.0244751 -0.999016 
-0.0553196 -0.031107 -0.998775 
-0.0525325 -0.0413168 -0.998687 
-0.0544614 -0.0523894 -0.997952 
-0.0487115 -0.0671699 -0.997367 
-0.0479106 -0.0837764 -0.996136 
-0.0422236 -0.0901143 -0.99587 
-0.0422485 -0.0865519 -0.99624 
-0.0326187 -0.102155 -0.994457 
0.023668 -0.103639 0.994556 
0.027465 -0.0897424 0.996484 
0.0387136 -0.0846763 0.996543 
0.0358712 -0.0905594 0.996061 
0.0375017 -0.0768596 0.997042 
0.0386869 -0.0533853 0.998635 
0.0406723 -0.0389008 0.999211 
0.0433209 -0.0318315 0.999341 
0.0439575 -0.0241868 0.999517 
0.0452301 -0.0196439 0.999554 
0.0447261 -0.0161592 0.99963 
0.0450941 -0.012479 0.999659 
0.0473668 -0.00939675 0.999577 
0.0485205 -0.00621239 0.999542 
0.0479812 -0.0030836 0.999584 
0.04993 0.000359385 0.999494 
0.0499459 0.00417812 0.999486 
0.0498912 0.00812158 0.999466 
0.0487737 0.0119839 0.999483 
0.0475645 0.016155 0.999481 
0.0462776 0.0208548 0.999446 
0.045232 0.0267234 0.999351 
0.0435995 0.0342386 0.99919 
0.0421381 0.0443164 0.998859 
0.0397924 0.0577045 0.998277 
0.037241 0.0753909 0.997214 
0.0334031 0.0986754 0.995342 
0.0290372 0.129137 0.992019 
0.0245278 0.167103 0.986485 
0.0186391 0.215876 0.97712 
0.0104467 0.291809 0.957435 
0.00239966 0.385255 0.923634 
-0.00376575 0.500725 0.866275 
-0.00710014 0.61447 0.789393 
-0.00717652 0.587811 0.809502 
-0.00908705 0.699773 0.715185 
-0.00791585 0.782831 0.621848 
-0.00536278 0.866393 0.498624 
-0.00171013 0.978667 0.200986 
-0.000776951 0.997983 -0.052431 
-0.000135504 0.996969 -0.0631808 
0.000762473 0.955488 -0.291634 
0.00425843 0.869626 -0.493077 
0.00632463 0.766928 -0.641774 
0.00593312 0.629709 -0.777417 
0.00362607 0.514633 -0.858146 
-0.000879411 0.418473 -0.909051 
-0.00578257 0.336551 -0.942654 
-0.0129845 0.26227 -0.965767 
-0.0213409 0.201445 -0.979986 
-0.027476 0.15419 -0.988632 
-0.0313174 0.115224 -0.99366 
-0.0340422 0.0907843 -0.99608 
-0.0387665 0.0675571 -0.997728 
-0.0407803 0.0515249 -0.998583 
-0.0420753 0.039696 -0.999059 
-0.045008 0.0304412 -0.999251 
-0.0456534 0.0240953 -0.999396 
-0.04698 0.0188517 -0.999453 
-0.0490071 0.0144897 -0.999435 
-0.048245 0.0103173 -0.999528 
-0.0492725 0.00623451 -0.99951 
-0.0492194 0.00244473 -0.999532 
-0.0490477 -0.00125165 -0.999536 
-0.0482697 -0.00448088 -0.999564 
-0.0485315 -0.00748455 -0.999533 
-0.046456 -0.0107451 -0.999604 
-0.0459177 -0.0140167 -0.999595 
-0.0454543 -0.0171699 -0.999578 
-0.0422663 -0.021601 -0.999643 
-0.0420078 -0.0271082 -0.999531 
-0.0436524 -0.0344822 -0.999125 
-0.0391573 -0.0434514 -0.99909 
-0.0420776 -0.0535885 -0.998495 
-0.0374889 -0.068924 -0.997741 
-0.0377666 -0.0851127 -0.996466 
-0.0327801 -0.0927341 -0.99598 
-0.0315319 -0.0881941 -0.996491 
-0.0245882 -0.102542 -0.99465 
0.0171459 -0.104239 0.994621 
0.0207666 -0.0893797 0.996678 
0.0290668 -0.091979 0.996197 
0.027429 -0.087009 0.996781 
0.0318456 -0.0673616 0.998041 
0.027788 -0.0554919 0.998871 
0.03221 -0.0444084 0.999166 
0.03031 -0.0346343 0.999835 
0.0348017 -0.0281922 0.999656 
0.0337114 -0.0227081 0.999937 
0.0343521 -0.019038 0.999983 
0.0362832 -0.0153694 0.999966 
0.0360395 -0.0120945 1.00001 
0.0382498 -0.00887396 0.999959 
0.0388403 -0.00569401 0.999955 
0.0390748 -0.00195242 0.999962 
0.0402804 0.00181704 0.999914 
0.0401295 0.0059868 0.999904 
0.0391698 0.00995029 0.999913 
0.0384988 0.0139816 0.999887 
0.0377771 0.0182979 0.999835 
0.0370038 0.023286 0.999756 
0.0358891 0.0294603 0.999629 
0.0345672 0.0378095 0.999395 
0.0330424 0.0488529 0.998978 
0.0309081 0.0639298 0.998213 
0.0281674 0.0834852 0.996881 
0.0245234 0.11013 0.994424 
0.0202231 0.145051 0.990075 
0.0157489 0.188749 0.982794 
0.0105794 0.249635 0.969199 
0.00369909 0.334919 0.943138 
-0.00203926 0.453041 0.892276 
-0.00475281 0.563359 0.826834 
-0.00655751 0.739884 0.672259 
-0.00393442 0.851951 0.523877 
-0.001065 0.930547 0.365073 
0.00196474 0.979015 0.198231 
-0.0024094 0.942819 0.331686 
-0.000955446 0.984182 0.171241 
-0.00160052 0.99884 -0.0103937 
-0.00261132 0.962962 -0.268206 
0.00230387 0.881863 -0.469348 
0.00537859 0.763022 -0.647446 
0.00658047 0.727685 -0.686242 
0.00668319 0.598833 -0.80149 
0.00140705 0.425134 -0.905976 
-0.0027383 0.341024 -0.940807 
-0.00809846 0.266193 -0.964789 
-0.0146424 0.205318 -0.979454 
-0.0162376 0.172423 -0.985749 
-0.0222701 0.138645 -0.9908 
-0.0236592 0.108187 -0.994657 
-0.028744 0.0807214 -0.997099 
-0.03138 0.06105 -0.998389 
-0.0328817 0.0465792 -0.999101 
-0.0352827 0.0351554 -0.999473 
-0.0361423 0.0277263 -0.999673 
-0.0373642 0.0218042 -0.999779 
-0.0383826 0.0169553 -0.999846 
-0.0394137 0.0128424 -0.999874 
-0.0394433 0.00819523 -0.999926 
-0.0393322 0.00401205 -0.999958 
-0.0395965 -0.000151467 -0.999953 
-0.038839 -0.0039123 -0.999971 
-0.038675 -0.00733433 -0.999957 
-0.0376581 -0.010497 -0.999968 
-0.0367225 -0.0140054 -0.999963 
-0.0352456 -0.0173787 -0.999975 
-0.0340474 -0.0208835 -0.99996 
-0.032476 -0.0263436 -1.00001 
-0.0333565 -0.0334831 -0.999669 
-0.030481 -0.0438522 -0.99937 
-0.0312568 -0.0573095 -0.998681 
-0.0274761 -0.0724474 -0.997809 
-0.0288669 -0.0867694 -0.996619 
-0.0244878 -0.0951072 -0.995979 
-0.0243989 -0.0893534 -0.996594 
-0.0184947 -0.104098 -0.994615 
0.0107896 -0.105642 0.994553 
0.0145107 -0.0918502 0.996546 
0.0219625 -0.0949353 0.996075 
0.0194017 -0.0887244 0.99667 
0.0238794 -0.0738994 0.997793 
0.0213148 -0.057277 0.998931 
0.0241713 -0.0430284 0.999566 
0.0228861 -0.0337314 0.999941 
0.0264531 -0.0273011 1.00004 
0.025166 -0.0230357 1.00017 
0.0275666 -0.018942 1.00018 
0.0290111 -0.0155058 1.00019 
0.0289547 -0.0121131 1.00032 
0.0307572 -0.00875435 1.00022 
0.03202 -0.00498749 1.00009 
0.0316451 -0.000847137 1.00033 
0.0326979 0.00340715 1.00008 
0.0317275 0.00766713 1.0002 
0.0310947 0.0119188 1.00025 
0.0307667 0.0162312 1.00001 
0.0302126 0.0208539 1.00012 
0.0294812 0.0264402 0.99991 
0.0285067 0.0338627 0.999713 
0.0271858 0.0438663 0.999367 
0.0255994 0.0574368 0.99874 
0.023144 0.075479 0.997628 
0.0202449 0.0995862 0.995616 
0.0164777 0.132082 0.991943 
0.0123348 0.174872 0.985401 
0.00856957 0.229107 0.974149 
0.00413209 0.297214 0.955719 
-0.000677242 0.397891 0.918303 
-0.00326655 0.502498 0.865316 
-0.00364567 0.619767 0.78528 
-0.00572132 0.659197 0.752683 
-0.0019521 0.861112 0.507963 
0.00309439 0.934422 0.353415 
0.00328945 0.998506 0.0577639 
0.00209693 0.999028 0.0380785 
-7.20485e-05 0.999619 0.0184264 
0.000669092 0.999863 -0.0102634 
-0.00597843 0.991122 -0.130035 
-0.00383139 0.955737 -0.290712 
0.00107144 0.856849 -0.514091 
0.00684353 0.650352 -0.760172 
0.00656317 0.556737 -0.831343 
0.00483979 0.497839 -0.868056 
0.00173361 0.392731 -0.920508 
-0.00203043 0.310963 -0.951311 
-0.00685648 0.239368 -0.971913 
-0.0114139 0.180484 -0.984257 
-0.0162892 0.133866 -0.991811 
-0.0200971 0.0967463 -0.995998 
-0.0234491 0.0740167 -0.997637 
-0.0254778 0.0559995 -0.998831 
-0.0277459 0.0415541 -0.999457 
-0.0285688 0.032363 -0.999763 
-0.029746 0.0253264 -0.99993 
-0.0306665 0.0200307 -1.00003 
-0.0309378 0.0156232 -1.00021 
-0.0325511 0.0113572 -1.00002 
-0.031551 0.00699235 -1.00031 
-0.0319347 0.00242413 -1.00021 
-0.0316993 -0.00186253 -1.00022 
-0.031342 -0.00588876 -1.00021 
-0.0304438 -0.0092789 -1.00022 
-0.0301152 -0.0126642 -1.00018 
-0.0287086 -0.0160973 -1.00019 
-0.0269082 -0.0195409 -1.0002 
-0.0266446 -0.0234185 -1.00001 
-0.0242357 -0.0286497 -1.00006 
-0.0257205 -0.0346649 -0.999847 
-0.0225746 -0.0433519 -0.99959 
-0.0239006 -0.0547563 -0.99902 
-0.0208843 -0.0702291 -0.99812 
-0.0206563 -0.0881891 -0.99669 
-0.0177869 -0.0961112 -0.996029 
-0.017683 -0.0915852 -0.996524 
-0.0127294 -0.106015 -0.994492 
0.00731236 -0.10496 0.994554 
0.00956947 -0.0950973 0.996374 
0.0152738 -0.0964492 0.996039 
0.0138695 -0.0892256 0.996703 
0.0172704 -0.0713114 0.998111 
0.0147186 -0.0570844 0.999044 
0.0179825 -0.0455068 0.99958 
0.0168204 -0.0360438 0.99997 
0.0190911 -0.0283412 1.00017 
0.0192599 -0.0234011 1.00038 
0.0213971 -0.0195858 1.0003 