# vtk DataFile Version 3.0 
Exported using Morpho https://github.com/Morpho-lang/morpho 
ASCII 
DATASET UNSTRUCTURED_GRID 

POINTS 1978 float 
-8.48528 -2.82843 -9.94498e-11 
-8.26067 -2.82843 3.5944e-10 
-8.02745 -2.82843 5.125e-10 
-7.78726 -2.82843 4.59299e-10 
-7.47878 -2.82843 3.70826e-10 
-7.19212 -2.82843 2.45835e-10 
-6.98916 -2.82843 1.55736e-10 
-6.75992 -2.82843 1.21246e-10 
-6.54423 -2.82843 1.05981e-10 
-6.34964 -2.82843 8.12158e-11 
-6.14696 -2.82843 7.34784e-11 
-5.93997 -2.82843 5.23333e-11 
-5.72364 -2.82843 3.13046e-11 
-5.52932 -2.82843 7.89745e-12 
-5.30604 -2.82843 -6.05382e-12 
-5.09351 -2.82843 -2.68542e-11 
-4.87847 -2.82843 -4.4083e-11 
-4.67088 -2.82843 -6.26224e-11 
-4.46169 -2.82843 -8.1339e-11 
-4.25498 -2.82843 -9.99909e-11 
-4.05307 -2.82843 -1.23999e-10 
-3.84756 -2.82843 -1.55884e-10 
-3.6395 -2.82843 -1.98197e-10 
-3.42755 -2.82843 -2.55274e-10 
-3.20996 -2.82843 -3.24171e-10 
-2.98951 -2.82843 -4.10495e-10 
-2.76324 -2.82843 -4.91132e-10 
-2.55176 -2.82843 -6.21531e-10 
-2.27566 -2.82843 -7.27305e-10 
-2.03851 -2.82843 -6.50778e-10 
-1.83073 -2.82843 -4.75157e-10 
-1.62099 -2.82843 7.21937e-11 
-1.41501 -2.82843 1.51552e-09 
-1.25711 -2.82843 2.70673e-09 
-1.11347 -2.82843 6.70579e-09 
-0.976882 -2.82843 5.66688e-09 
-0.841833 -2.82843 1.70597e-08 
-0.735028 -2.82843 8.99503e-08 
-0.298787 -2.82843 3.46166e-07 
0.0543648 -2.82842 3.68734e-08 
0.372476 -2.82843 -2.33799e-07 
0.561165 -2.82843 -9.62618e-08 
0.763575 -2.82843 -2.58005e-08 
0.963044 -2.82843 -1.38202e-08 
1.12767 -2.82843 -6.19197e-09 
1.30385 -2.82843 -1.97111e-09 
1.47112 -2.82843 -3.84635e-10 
1.66918 -2.82843 3.59367e-10 
1.90877 -2.82843 6.58932e-10 
2.1513 -2.82843 6.61298e-10 
2.36141 -2.82843 6.01213e-10 
2.59054 -2.82843 5.15349e-10 
2.79252 -2.82843 4.31447e-10 
3.01044 -2.82843 3.72542e-10 
3.22564 -2.82843 2.85524e-10 
3.41166 -2.82843 2.16661e-10 
3.61067 -2.82843 1.87046e-10 
3.8158 -2.82843 1.56457e-10 
4.03044 -2.82843 1.31133e-10 
4.24808 -2.82843 1.03433e-10 
4.45046 -2.82843 7.99497e-11 
4.66162 -2.82843 6.2444e-11 
4.86363 -2.82843 4.27436e-11 
5.07443 -2.82843 2.63659e-11 
5.28222 -2.82843 8.41117e-12 
5.50092 -2.82843 -8.20196e-12 
5.71611 -2.82843 -2.85292e-11 
5.93809 -2.82843 -5.07459e-11 
6.16175 -2.82843 -7.36242e-11 
6.38024 -2.82843 -9.62786e-11 
6.6069 -2.82843 -1.16351e-10 
6.8277 -2.82843 -1.39604e-10 
7.03997 -2.82843 -1.87195e-10 
7.29764 -2.82843 -2.50393e-10 
7.53169 -2.82843 -3.04428e-10 
7.75491 -2.82843 -4.1491e-10 
8.03046 -2.82843 -5.36487e-10 
8.22558 -2.82843 -2.9668e-10 
8.48528 -2.82843 3.60819e-12 
-8.48528 -2.60856 1.13795e-10 
-8.2392 -2.59549 -3.57677e-10 
-8.01884 -2.55225 -2.22226e-10 
-7.80148 -2.60069 -2.13239e-10 
-7.55685 -2.66292 -2.63185e-10 
-7.26226 -2.64433 -2.21629e-10 
-6.99538 -2.56229 -1.50475e-10 
-6.77703 -2.60816 -1.08652e-10 
-6.55226 -2.57827 -1.08918e-10 
-6.32222 -2.5855 -6.31408e-11 
-6.09394 -2.58817 -4.43808e-11 
-5.86682 -2.59589 -3.17318e-11 
-5.65709 -2.56687 -1.7938e-11 
-5.43534 -2.60404 -1.88488e-12 
-5.2092 -2.59581 9.6336e-12 
-4.98725 -2.60157 2.3063e-11 
-4.76847 -2.59604 3.86748e-11 
-4.55354 -2.59951 5.62426e-11 
-4.33866 -2.59729 7.62652e-11 
-4.12744 -2.59111 1.01546e-10 
-3.91825 -2.5937 1.32011e-10 
-3.70644 -2.59392 1.66132e-10 
-3.49162 -2.59507 2.08112e-10 
-3.27246 -2.59717 2.5379e-10 
-3.04843 -2.59623 3.07738e-10 
-2.82163 -2.59907 3.73705e-10 
-2.5942 -2.58016 3.92686e-10 
-2.36839 -2.63702 4.85573e-10 
-2.0976 -2.60154 3.9905e-10 
-1.86107 -2.57037 2.33977e-10 
-1.64785 -2.5858 1.14809e-10 
-1.44112 -2.60763 -1.98119e-10 
-1.24564 -2.59019 1.29874e-09 
-1.0836 -2.59554 -2.47777e-09 
-0.972712 -2.45971 -3.36293e-09 
-0.846148 -2.38517 -1.62441e-08 
-0.934944 -2.64475 1.54532e-08 
-0.652263 -2.77685 -9.41899e-08 
-0.397061 -2.70364 5.84836e-08 
-0.205478 -2.76837 -1.5459e-07 
0.247199 -2.76353 3.54736e-08 
0.59256 -2.70757 7.87551e-10 
0.797598 -2.69581 -1.53453e-08 
0.95978 -2.64858 -1.88183e-09 
1.14397 -2.64721 1.71997e-09 
1.08015 -2.47162 4.41059e-10 
1.32127 -2.59778 -2.0196e-09 
1.51824 -2.60209 4.881e-10 
1.75435 -2.62937 -3.42755e-10 
2.01007 -2.62355 -3.81887e-10 
2.24825 -2.58471 -4.01099e-10 
2.48226 -2.60663 -4.49107e-10 
2.7171 -2.57662 -3.78639e-10 
2.94285 -2.59921 -3.08746e-10 
3.17998 -2.59955 -2.92597e-10 
3.40615 -2.56896 -2.16263e-10 
3.61668 -2.58945 -1.7191e-10 
3.83926 -2.59534 -1.35619e-10 
4.06586 -2.60352 -1.11229e-10 
4.27766 -2.58882 -8.33139e-11 
4.49168 -2.59967 -6.10134e-11 
4.69874 -2.58827 -4.38265e-11 
4.91021 -2.59658 -2.83975e-11 
5.12137 -2.5906 -1.51242e-11 
5.33985 -2.59991 -1.33272e-12 
5.55816 -2.59299 1.08532e-11 
5.78093 -2.59727 2.49363e-11 
6.00724 -2.59658 3.90885e-11 
6.23036 -2.58915 5.62795e-11 
6.45721 -2.59662 7.86467e-11 
6.68359 -2.58892 1.03787e-10 
6.89958 -2.57674 1.37078e-10 
7.1378 -2.61805 1.73552e-10 
7.38405 -2.59667 2.06133e-10 
7.6095 -2.58502 2.23051e-10 
7.8622 -2.62983 2.18356e-10 
8.07163 -2.54741 2.16137e-10 
8.29809 -2.61458 3.55396e-10 
8.48528 -2.53174 -2.14039e-10 
-8.48528 -2.38448 2.40075e-10 
-8.22988 -2.36691 -3.04551e-10 
-7.99376 -2.29136 -1.04908e-10 
-7.77252 -2.38113 -1.03868e-10 
-7.55824 -2.25636 -1.63877e-10 
-7.51017 -2.47225 -1.4511e-10 
-7.23604 -2.43678 -1.68835e-10 
-6.98768 -2.33216 -1.32668e-10 
-6.7518 -2.37712 -9.58909e-11 
-6.50407 -2.34745 -7.74725e-11 
-6.26796 -2.36039 -5.25348e-11 
-6.03484 -2.35929 -4.30316e-11 
-5.82699 -2.33944 -2.43031e-11 
-5.59033 -2.34613 -1.32558e-11 
-5.37245 -2.37498 8.32105e-13 
-5.14636 -2.37058 1.32528e-11 
-4.92735 -2.37373 2.65556e-11 
-4.70867 -2.36893 3.93385e-11 
-4.49294 -2.37257 5.46452e-11 
-4.27909 -2.36585 7.24783e-11 
-4.06506 -2.35915 9.47641e-11 
-3.8531 -2.36149 1.22609e-10 
-3.63723 -2.3628 1.55119e-10 
-3.41799 -2.36565 1.91949e-10 
-3.19436 -2.36829 2.32865e-10 
-2.96644 -2.3673 2.84545e-10 
-2.74345 -2.36041 3.30454e-10 
-2.49857 -2.36546 3.50726e-10 
-2.27396 -2.42356 3.89696e-10 
-2.02827 -2.36008 2.7726e-10 
-1.79494 -2.32578 7.83108e-11 
-1.58339 -2.34876 -2.85907e-10 
-1.38166 -2.38235 5.86006e-11 
-1.19342 -2.37663 -2.76605e-09 
-1.07057 -2.27525 -8.89669e-10 
-0.771413 -2.21527 -8.47962e-10 
-0.79076 -2.60314 4.53449e-09 
-0.536746 -2.73284 9.11654e-09 
-0.3038 -2.61726 1.62219e-07 
-0.0326032 -2.73241 1.4571e-07 
0.275889 -2.61847 -1.69657e-07 
0.415783 -2.69568 -4.86979e-08 
0.745788 -2.53067 2.91183e-09 
0.879508 -2.46534 -2.83738e-09 
0.940941 -2.29879 -1.04367e-08 
1.08568 -2.23537 6.03025e-09 
1.25301 -2.40019 8.98726e-10 
1.46624 -2.37635 3.82007e-10 
1.69521 -2.41944 -3.00207e-10 
1.93999 -2.42497 -3.35982e-10 
2.18657 -2.37372 -3.54019e-10 
2.44413 -2.37266 -3.34398e-10 
2.6717 -2.35601 -3.36996e-10 
2.92031 -2.36171 -2.82036e-10 
3.14593 -2.37318 -2.47508e-10 
3.37347 -2.34095 -2.02516e-10 
3.60476 -2.35485 -1.61306e-10 
3.82184 -2.3639 -1.29695e-10 
4.03889 -2.37817 -9.75298e-11 
4.25454 -2.35534 -7.11913e-11 
4.46505 -2.36793 -5.40434e-11 
4.67204 -2.35318 -3.93113e-11 
4.88029 -2.36234 -2.80061e-11 
5.08859 -2.35666 -1.65369e-11 
5.30238 -2.36871 -4.76572e-12 
5.51796 -2.36129 7.39663e-12 
5.73783 -2.36553 1.91499e-11 
5.96054 -2.36697 3.30712e-11 
6.18515 -2.35546 4.9525e-11 
6.4114 -2.36209 6.72332e-11 
6.63534 -2.35659 8.87372e-11 
6.85901 -2.3302 1.1635e-10 
7.08266 -2.38041 1.48451e-10 
7.31196 -2.38408 1.82871e-10 
7.55342 -2.3435 1.79218e-10 
7.78774 -2.39923 1.47035e-10 
8.00258 -2.31919 1.12293e-10 
8.24837 -2.35223 3.00604e-10 
8.48528 -2.30152 -1.58341e-10 
-8.48528 -2.09844 2.68982e-10 
-8.2904 -2.15575 -2.47087e-10 
-8.08611 -2.06305 -7.57656e-11 
-7.79515 -2.12918 -7.36854e-11 
-7.54156 -2.03892 -7.34169e-11 
-7.30729 -2.24603 -1.61484e-10 
-7.09838 -2.12878 -8.68154e-11 
-6.83076 -2.13111 -6.81582e-11 
-6.61255 -2.14978 -5.48615e-11 
-6.35312 -2.13277 -3.89903e-11 
-6.12653 -2.13478 -2.86914e-11 
-5.91083 -2.09086 -1.5326e-11 
-5.69265 -2.12214 -9.22053e-12 
-5.46456 -2.12584 -3.59069e-12 
-5.25539 -2.14601 4.08046e-12 
-5.03697 -2.14326 1.20803e-11 
-4.82534 -2.14407 1.84425e-11 
-4.6112 -2.14239 2.39732e-11 
-4.40293 -2.14027 3.10826e-11 
-4.1926 -2.1337 4.00807e-11 
-3.9821 -2.12614 5.06111e-11 
-3.77194 -2.13022 6.66853e-11 
-3.55779 -2.13218 8.54772e-11 
-3.33947 -2.13712 1.06089e-10 
-3.11644 -2.13965 1.3174e-10 
-2.89413 -2.12878 1.60386e-10 
-2.65759 -2.1434 2.04311e-10 
-2.41651 -2.1441 2.13437e-10 
-2.19901 -2.18608 2.60286e-10 
-1.94238 -2.12004 1.31617e-10 
-1.70234 -2.09024 -3.748e-11 
-1.48659 -2.13022 -2.0894e-10 
-1.30359 -2.15255 -1.28205e-09 
-1.14927 -2.0702 -9.39584e-10 
-0.944428 -2.18064 -4.76386e-09 
-0.738497 -2.03192 -4.83458e-09 
-0.700943 -2.44667 2.31774e-08 
-0.631356 -2.60668 1.68616e-08 
-0.142167 -2.65762 1.90818e-07 
0.123414 -2.6958 -1.30775e-07 
0.495534 -2.51775 -2.76197e-08 
0.605311 -2.5769 -2.70505e-08 
0.759143 -2.29455 2.7895e-08 
0.827765 -2.12381 6.95698e-09 
0.976806 -2.03028 5.10244e-09 
1.15169 -2.00279 6.29488e-10 
1.27613 -2.18667 1.11447e-10 
1.49293 -2.16001 1.45387e-11 
1.71696 -2.21185 5.60023e-11 
1.95464 -2.20687 -2.29747e-10 
2.22311 -2.16649 -2.16152e-10 
2.45421 -2.13376 -1.70503e-10 
2.7128 -2.14532 -1.8092e-10 
2.94514 -2.12798 -1.49657e-10 
3.17035 -2.13601 -1.30169e-10 
3.41725 -2.12363 -1.02568e-10 
3.63808 -2.12523 -7.7638e-11 
3.85647 -2.13454 -6.22294e-11 
4.06987 -2.14587 -5.05701e-11 
4.28872 -2.12703 -3.36536e-11 
4.49374 -2.13117 -2.49541e-11 
4.70547 -2.12176 -1.84375e-11 
4.912 -2.12631 -1.43896e-11 
5.12744 -2.12802 -8.78431e-12 
5.33913 -2.13495 -1.37242e-12 
5.55834 -2.13088 6.19977e-12 
5.77921 -2.13516 1.29723e-11 
6.00064 -2.13366 2.14943e-11 
6.22863 -2.1254 3.07596e-11 
6.44961 -2.12539 3.86037e-11 
6.66926 -2.11574 4.8129e-11 
6.90336 -2.10082 6.39069e-11 
7.12525 -2.14792 9.48591e-11 
7.35579 -2.15358 1.14644e-10 
7.56128 -2.07979 7.2768e-11 
7.76346 -2.1595 5.92471e-11 
7.9846 -2.0824 -2.43366e-11 
8.21656 -2.1281 1.5118e-10 
8.48528 -2.09915 -1.20734e-10 
-8.48528 -1.80878 1.98265e-10 
-8.29605 -1.88445 -1.51226e-10 
-7.89918 -1.92 1.29788e-10 
[...]
POINT_DATA 1978 
VECTORS vectors float
0.00088147 -0.00535506 0.999985 
0.00407498 -0.0292148 0.999565 
0.00290287 -0.0324322 0.99947 
0.0032094 -0.0274111 0.999619 
0.0037424 -0.0189889 0.999813 
0.00311625 -0.0128406 0.999913 
0.00279025 -0.00968044 0.999949 
0.00309869 -0.00718039 0.999969 
0.0027543 -0.00585966 0.999979 
0.00278698 -0.00493726 0.999984 
0.00288033 -0.00408429 0.999988 
0.00295805 -0.00291805 0.999991 
0.00287091 -0.00166544 0.999994 
0.00296556 -0.000672217 0.999995 
0.00309531 0.000385798 0.999995 
0.00307033 0.00138945 0.999994 
0.00301105 0.00237562 0.999993 
0.00297273 0.00332296 0.99999 
0.00294704 0.00435469 0.999986 
0.00287794 0.00553502 0.999981 
0.00282969 0.00701197 0.999971 
0.00283453 0.00904784 0.999955 
0.00283113 0.0119099 0.999925 
0.002822 0.0159385 0.999869 
0.0028032 0.0215986 0.999763 
0.00269264 0.0292644 0.999568 
0.00249828 0.0395683 0.999214 
0.00255324 0.0523335 0.998626 
0.00249163 0.0748208 0.997194 
0.00167604 0.102082 0.994775 
0.00106962 0.134495 0.990914 
0.000558317 0.178042 0.984023 
-5.05327e-06 0.237119 0.971481 
-0.000460117 0.297713 0.954655 
-0.00107804 0.359008 0.933334 
-0.001122 0.425934 0.904754 
-0.000963374 0.496249 0.86818 
-0.00314404 0.558349 0.8296 
-0.00242158 0.887672 0.46047 
0.00120005 0.998104 -0.0615425 
0.00297605 0.850687 -0.525664 
0.00412454 0.68306 -0.730351 
0.00232426 0.534977 -0.844863 
0.00193071 0.410539 -0.911841 
0.000646605 0.332609 -0.943065 
0.000136735 0.263697 -0.964606 
-0.000264652 0.21072 -0.977547 
-0.000973465 0.161737 -0.986833 
-0.00164921 0.118268 -0.99298 
-0.00190775 0.0853318 -0.996351 
-0.00214487 0.0646933 -0.997903 
-0.00231573 0.0480107 -0.998844 
-0.00243456 0.036992 -0.999313 
-0.00262244 0.0276316 -0.999615 
-0.00255666 0.0205448 -0.999786 
-0.00241682 0.0158374 -0.999872 
-0.00267665 0.012201 -0.999922 
-0.00293393 0.00926985 -0.999953 
-0.00303631 0.00708108 -0.99997 
-0.00294761 0.00547018 -0.999981 
-0.00294595 0.00432473 -0.999986 
-0.00291343 0.00330629 -0.99999 
-0.00293824 0.00237487 -0.999993 
-0.00296152 0.00142656 -0.999995 
-0.00304805 0.000515493 -0.999995 
-0.00307904 -0.000458296 -0.999995 
-0.00311985 -0.0014984 -0.999994 
-0.00316097 -0.00266452 -0.999991 
-0.00312346 -0.00392935 -0.999987 
-0.00315735 -0.00514518 -0.999982 
-0.00308872 -0.0064229 -0.999975 
-0.00293112 -0.00813286 -0.999963 
-0.00324071 -0.0105067 -0.99994 
-0.00324232 -0.0148136 -0.999885 
-0.00288532 -0.0199572 -0.999797 
-0.00316186 -0.0259879 -0.999657 
-0.0030599 -0.0330855 -0.999448 
-0.00472346 -0.0299877 -0.999539 
-0.00133571 -0.00451518 -0.999989 
-0.00293993 -0.00283254 0.999992 
0.0122653 -0.0252558 0.999606 
0.0163574 -0.0296433 0.999427 
0.016127 -0.0277187 0.999486 
0.0148871 -0.0215002 0.999658 
0.0160247 -0.0147312 0.999763 
0.0201692 -0.0107694 0.999739 
0.01857 -0.00802885 0.999795 
0.0208729 -0.00628424 0.999762 
0.0208369 -0.00490158 0.999771 
0.0208071 -0.0036526 0.999777 
0.020436 -0.0023818 0.999788 
0.0220033 -0.0012652 0.999757 
0.020348 -0.000224717 0.999793 
0.0209371 0.000802645 0.999781 
0.0208044 0.00181576 0.999782 
0.0212452 0.00284028 0.99977 
0.0211078 0.00394813 0.999769 
0.021151 0.00523814 0.999763 
0.0212551 0.00682009 0.999751 
0.0207654 0.00886254 0.999745 
0.0202287 0.0116693 0.999727 
0.0195323 0.015533 0.999689 
0.0186644 0.0208398 0.999609 
0.0179154 0.0281062 0.999444 
0.0169748 0.0377899 0.999142 
0.016909 0.0507298 0.998569 
0.0138657 0.0673582 0.997633 
0.0145581 0.0952476 0.995347 
0.0158419 0.128871 0.991535 
0.0158367 0.170032 0.985311 
0.0161961 0.226561 0.973862 
0.0204264 0.298568 0.95417 
0.02465 0.371018 0.928299 
0.0484026 0.411009 0.910345 
0.0720097 0.459046 0.88549 
0.0234113 0.449628 0.892909 
0.00659193 0.626488 0.779403 
0.0283944 0.819696 0.572095 
0.00924495 0.943319 0.331758 
-0.0126759 0.925043 -0.37965 
-0.0195213 0.678127 -0.734685 
-0.0162175 0.516804 -0.85595 
-0.0210469 0.417236 -0.908555 
-0.0172867 0.323858 -0.945948 
-0.0398425 0.340252 -0.93949 
-0.0188094 0.255208 -0.966703 
-0.015684 0.198542 -0.979967 
-0.0135165 0.145946 -0.9892 
-0.0136474 0.104691 -0.994411 
-0.0154407 0.0771055 -0.996903 
-0.015101 0.0569111 -0.998265 
-0.0171084 0.0423648 -0.998956 
-0.0169262 0.03157 -0.999358 
-0.0178399 0.0230322 -0.999576 
-0.0200134 0.017041 -0.999655 
-0.0196062 0.0127201 -0.999727 
-0.0201627 0.00953655 -0.999751 
-0.020374 0.00714242 -0.999767 
-0.0214332 0.00552507 -0.999755 
-0.0211212 0.00420868 -0.999768 
-0.021732 0.00312313 -0.999759 
-0.0212705 0.00211274 -0.999772 
-0.0214397 0.00116659 -0.99977 
-0.0208416 0.000223895 -0.999783 
-0.0210251 -0.000750103 -0.999779 
-0.0206763 -0.00182928 -0.999785 
-0.02059 -0.00303156 -0.999783 
-0.0207539 -0.00432145 -0.999775 
-0.0201826 -0.00575606 -0.99978 
-0.0201832 -0.00745739 -0.999769 
-0.0201139 -0.00960143 -0.999752 
-0.0176128 -0.0126755 -0.999765 
-0.0179233 -0.0174214 -0.999688 
-0.0174261 -0.0227617 -0.999589 
-0.0147961 -0.0285344 -0.999483 
-0.0158713 -0.0289641 -0.999455 
-0.0104185 -0.0221722 -0.9997 
0.0042956 -0.00396277 -0.999983 
-0.00425889 -0.00423033 0.999982 
0.015223 -0.0244823 0.999584 
0.0200959 -0.0300535 0.999346 
0.0214905 -0.027917 0.999379 
0.0236835 -0.0232761 0.999449 
0.0211205 -0.0208701 0.999559 
0.0235479 -0.0152209 0.999607 
0.0259307 -0.0117117 0.999595 
0.0260411 -0.00861768 0.999624 
0.0275668 -0.00645264 0.999599 
0.0276406 -0.00467973 0.999607 
0.0280164 -0.00319843 0.999602 
0.0281343 -0.00204224 0.999602 
0.0282979 -0.00088449 0.999599 
0.0280129 7.06017e-05 0.999608 
0.0282635 0.00104144 0.9996 
0.0283839 0.00203112 0.999595 
0.0285262 0.00314325 0.999588 
0.028442 0.00441753 0.999586 
0.0283358 0.00594547 0.999581 
0.0280733 0.00786814 0.999575 
0.0275371 0.0103288 0.999567 
0.0268311 0.013659 0.999547 
0.0259599 0.0181611 0.999498 
0.0250034 0.024235 0.999394 
0.0241533 0.0323941 0.999183 
0.0234268 0.0428602 0.998806 
0.0225839 0.0581019 0.998055 
0.0210951 0.0767752 0.996825 
0.0229778 0.103907 0.994322 
0.026 0.137738 0.990127 
0.0291267 0.179238 0.983375 
0.0335841 0.233634 0.971745 
0.0432858 0.29732 0.953796 
0.0603875 0.335819 0.939989 
0.112741 0.447878 0.886958 
0.0360317 0.536797 0.842942 
0.017023 0.715063 0.698852 
0.0568263 0.87326 0.483929 
0.00754124 0.997535 0.0697638 
-0.0618956 0.887258 -0.457102 
-0.0399597 0.8 -0.598667 
-0.0515344 0.528564 -0.847328 
-0.0570076 0.447106 -0.892662 
-0.0680827 0.386778 -0.919656 
-0.0634586 0.315552 -0.946784 
-0.0376113 0.266455 -0.963113 
-0.0301722 0.200715 -0.979185 
-0.0238678 0.152671 -0.987989 
-0.0216251 0.113001 -0.99336 
-0.0219774 0.0831933 -0.996291 
-0.0217851 0.0606375 -0.997922 
-0.0227539 0.0458948 -0.998687 
-0.0234841 0.0336508 -0.999158 
-0.0243536 0.0250932 -0.999388 
-0.0258452 0.0187772 -0.99949 
-0.0264908 0.0137978 -0.999554 
-0.0272091 0.0104297 -0.999575 
-0.0276529 0.00788837 -0.999587 
-0.0283904 0.00603675 -0.999579 
-0.0285176 0.00453668 -0.999583 
-0.0288052 0.00331091 -0.99958 
-0.0286801 0.00222168 -0.999586 
-0.0286487 0.00125879 -0.999589 
-0.0283796 0.000356074 -0.999597 
-0.0283527 -0.000559231 -0.999598 
-0.0281767 -0.00157937 -0.999602 
-0.0280265 -0.00274487 -0.999603 
-0.0279799 -0.00409349 -0.9996 
-0.0275976 -0.00570215 -0.999603 
-0.0271732 -0.00759975 -0.999602 
-0.0266989 -0.00998625 -0.999594 
-0.0254064 -0.0128789 -0.999594 
-0.0243072 -0.0169646 -0.999561 
-0.0233044 -0.0226168 -0.999473 
-0.0213598 -0.0278121 -0.999385 
-0.0200892 -0.0298848 -0.999352 
-0.014447 -0.0227663 -0.999637 
0.00328471 -0.00418288 -0.999986 
-0.00404522 -0.00477536 0.999981 
0.01193 -0.02188 0.99969 
0.0165214 -0.0297244 0.999422 
0.0208646 -0.0293783 0.999351 
0.0214573 -0.0239631 0.999483 
0.0248918 -0.0175969 0.999535 
0.0248395 -0.0143047 0.999589 
0.0257145 -0.0102967 0.999616 
0.026814 -0.00780977 0.99961 
0.0270092 -0.00543912 0.99962 
0.027156 -0.00373889 0.999624 
0.0263454 -0.0023929 0.99965 
0.0269627 -0.00129239 0.999636 
0.0270086 -0.000271946 0.999635 
0.027361 0.000578366 0.999626 
0.0273482 0.00149951 0.999625 
0.0274121 0.00253501 0.999621 
0.0273323 0.00378166 0.999619 
0.0271694 0.00522723 0.999617 
0.0268188 0.00699757 0.999616 
0.0263456 0.0092233 0.99961 
0.0259894 0.012058 0.99959 
0.0254972 0.0158201 0.99955 
0.0249538 0.0208068 0.999472 
0.0244002 0.0273858 0.999327 
0.0238712 0.0358091 0.999074 
0.023764 0.0475269 0.998587 
0.023989 0.0632695 0.997708 
0.0247366 0.0824766 0.996286 
0.0280432 0.110423 0.993489 
0.0344249 0.144947 0.98884 
0.0422835 0.189203 0.981027 
0.0530726 0.238124 0.969784 
0.0722798 0.27592 0.958459 
0.0860465 0.36458 0.927188 
0.146735 0.400929 0.904282 
0.0789418 0.563915 0.822051 
0.0483976 0.656138 0.753087 
0.0317149 0.967919 0.249251 
-0.015879 0.97914 -0.202566 
-0.0879116 0.696008 -0.712632 
-0.0498839 0.638089 -0.768345 
-0.106055 0.467718 -0.877492 
-0.109268 0.392588 -0.913201 
-0.0934427 0.314853 -0.94453 
-0.0728808 0.257559 -0.96351 
-0.0516181 0.245378 -0.968052 
-0.040094 0.187162 -0.981511 
-0.03086 0.144533 -0.989019 
-0.0265695 0.108777 -0.993711 
-0.0241603 0.0783561 -0.996633 
-0.0230985 0.0595636 -0.997957 
-0.0231919 0.0438172 -0.99877 
-0.0234981 0.0330794 -0.999177 
-0.0242326 0.0250321 -0.999393 
-0.0249412 0.0183542 -0.99952 
-0.0255329 0.0139028 -0.999577 
-0.026225 0.0105154 -0.999601 
-0.0268101 0.0079991 -0.999609 
-0.0268603 0.0060303 -0.999621 
-0.0270752 0.00450525 -0.999623 
-0.0270261 0.00317052 -0.99963 
-0.0270925 0.0020568 -0.999631 
-0.0271275 0.00107247 -0.999631 
-0.0272124 0.000215433 -0.99963 
-0.0271694 -0.000680055 -0.999631 
-0.0272411 -0.00171019 -0.999628 
-0.0271909 -0.0029307 -0.999626 
-0.0269457 -0.00446321 -0.999627 
-0.0266729 -0.0063049 -0.999624 
-0.0260727 -0.00850388 -0.999624 
-0.0252442 -0.0113871 -0.999617 
-0.0249082 -0.0145801 -0.999584 
-0.0240203 -0.0191146 -0.999529 
-0.021862 -0.0243157 -0.999465 
-0.0215685 -0.0287091 -0.999355 
-0.0186187 -0.0314961 -0.999331 
-0.0145222 -0.0247934 -0.999587 
0.00284904 -0.00396097 -0.999988 
-0.00293085 -0.00463118 0.999985 
0.00885122 -0.0220564 0.999718 
0.0167734 -0.0321386 0.999343 
0.0173229 -0.0282176 0.999452 
0.0168499 -0.0228909 0.999596 
0.0217843 -0.0191522 0.999579 
0.0192263 -0.0167587 0.999675 
0.021609 -0.0128001 0.999685 
0.0216835 -0.0095585 0.999719 
0.0232799 -0.00700036 0.999705 
0.0224617 -0.00481276 0.999736 
0.0221754 -0.00320896 0.999749 
0.021717 -0.0017518 0.999763 
0.0224405 -0.000741865 0.999748 
0.0222193 0.000155378 0.999753 
0.0226716 0.000971532 0.999743 
0.0225298 0.00192543 0.999744 
0.0225943 0.00309267 0.99974 
0.022352 0.00450087 0.99974 
0.0221829 0.00616818 0.999735 
0.0217927 0.00821374 0.999729 
0.0214472 0.0108086 0.999712 
0.0212792 0.0140932 0.999674 
0.0210854 0.0184404 0.999608 
0.020925 0.0240933 0.999491 
0.0207081 0.0312786 0.999296 
0.0211436 0.0411235 0.99893 
0.021945 0.0538644 0.998307 
0.0237073 0.0711394 0.997185 
0.0267499 0.0915156 0.995444 
0.0338714 0.121475 0.992017 
0.0460232 0.162423 0.985647 
0.0613339 0.204234 0.976999 
0.0848267 0.249266 0.964713 
0.108776 0.328305 0.938288 
0.166356 0.341775 0.924941 
0.137245 0.543879 0.827864 
0.11004 0.653438 0.74894 
0.0719682 0.749877 0.657651 
0.0703003 0.948835 0.307847 
-0.119481 0.786567 -0.605836 
-0.103259 0.55813 -0.823303 
-0.166955 0.413104 -0.895249 
-0.131218 0.339289 -0.931485 
-0.104248 0.269648 -0.957299 
-0.0742191 0.220016 -0.972669 
-0.0536618 0.198655 -0.978599 
-0.0469224 0.158102 -0.986307 
-0.0380462 0.147526 -0.988326 
-0.0305128 0.115295 -0.992863 
-0.0255873 0.0876477 -0.995823 
-0.0222808 0.0652978 -0.997617 
-0.021076 0.0490627 -0.998573 
-0.0203449 0.0373309 -0.999096 
-0.0203039 0.0283492 -0.999392 
-0.0210582 0.021474 -0.999548 
-0.0209431 0.0160787 -0.999651 
-0.0214961 0.0122124 -0.999694 
-0.0219685 0.00926637 -0.999716 
-0.0222652 0.00705705 -0.999727 
-0.0219805 0.00521543 -0.999745 
-0.0221632 0.00374658 -0.999747 
-0.0220383 0.00245768 -0.999754 
-0.0223045 0.0014103 -0.99975 
-0.0222815 0.000526066 -0.999752 
-0.0224403 -0.000283005 -0.999748 
-0.0225362 -0.00123564 -0.999745 
-0.0225794 -0.00240383 -0.999742 
-0.022548 -0.00389525 -0.999738 
-0.0221401 -0.00585511 -0.999738 
-0.021633 -0.00815348 -0.999733 
-0.0211959 -0.0108793 -0.999716 
-0.0206729 -0.0145736 -0.99968 
-0.0202558 -0.0186284 -0.999621 
-0.0181762 -0.0245609 -0.999533 
-0.0173186 -0.0305334 -0.999384 
-0.0143153 -0.031912 -0.999388 
-0.0103176 -0.0227567 -0.999688 
0.00221457 -0.00423851 -0.999989 
-0.0018661 -0.0042285 0.999989 
0.00708113 -0.0242164 0.999682 
0.0120736 -0.0310194 0.999446 
0.0129106 -0.0332955 0.999362 
0.0132677 -0.0290136 0.999491 
0.0148409 -0.019496 0.9997 
0.0161118 -0.0146315 0.999763 
0.0172748 -0.0114021 0.999786 
0.0178251 -0.00816953 0.999808 
0.0182025 -0.00594094 0.999817 
0.0171128 -0.00385745 0.999846 
0.0175358 -0.0023205 0.999844 
0.0171278 -0.00102842 0.999853 
0.0174123 -0.000191239 0.999848 
0.017401 0.000604141 0.999848 
0.0175847 0.00142155 0.999844 
0.0175803 0.00249137 0.999842 
0.0174695 0.00379286 0.99984 
0.0172828 0.00537858 0.999836 
0.0170817 0.00725021 0.999828 
0.0168528 0.00958929 0.999812 
0.0166544 0.0125593 0.999782 
0.016735 0.016374 0.999726 
0.0168329 0.0213893 0.99963 
0.0169878 0.0277022 0.999472 
0.0177954 0.0362534 0.999184 
0.0189433 0.0473163 0.9987 
0.0210934 0.0616787 0.997873 
0.0248652 0.08028 0.996462 
0.0306471 0.10214 0.994298 
0.0446774 0.140291 0.989102 
0.0642833 0.178841 0.981776 
0.0889624 0.216918 0.972128 
0.0945047 0.198947 0.975443 
0.120845 0.282022 0.951767 
0.130993 0.250201 0.959291 
0.185498 0.497891 0.847168 
0.17433 0.671504 0.720202 
0.134593 0.88731 0.441097 
-0.0497332 0.971035 -0.233703 
-0.150872 0.626862 -0.764383 
-0.156157 0.491528 -0.856747 
-0.214765 0.429066 -0.87737 
-0.161866 0.326931 -0.931083 
-0.122085 0.255707 -0.959015 
-0.0868847 0.209348 -0.973974 
-0.0611999 0.174847 -0.982692 
-0.0428927 0.132182 -0.990297 
-0.0343256 0.117221 -0.992513 
-0.0272716 0.0930309 -0.99529 
-0.0226164 0.0727818 -0.997092 
-0.0192404 0.0538318 -0.998365 
-0.0176323 0.0420521 -0.99896 
-0.0167895 0.0325626 -0.999329 
-0.0167 0.0248579 -0.999552 
-0.0169203 0.0192301 -0.999672 
-0.016627 0.0145981 -0.999755 
-0.0169944 0.0112076 -0.999793 
-0.0171485 0.00861769 -0.999816 
-0.0173808 0.00656289 -0.999827 
-0.0169627 0.00482878 -0.999845 
-0.0171935 0.00338403 -0.999847 
-0.0171145 0.00213171 -0.999851 
-0.01735 0.00114986 -0.999849 
-0.0172582 0.000351536 -0.999851 
-0.0175818 -0.000427801 -0.999845 
-0.0176199 -0.00137114 -0.999844 
-0.0177003 -0.00263088 -0.99984 
-0.0177128 -0.00429569 -0.999834 
-0.0171886 -0.00643038 -0.999832 
-0.0169014 -0.00908615 -0.999816 
-0.0168996 -0.0123438 -0.999781 
-0.016033 -0.0162121 -0.99974 
-0.0158184 -0.0208084 -0.999658 
-0.0136975 -0.0264333 -0.999557 
-0.0139314 -0.0311849 -0.999417 
-0.011513 -0.0337701 -0.999363 
-0.00889511 -0.0260403 -0.999621 
0.00145654 -0.00400201 -0.999991 
-0.00124015 -0.00413448 0.999991 
0.00553648 -0.0254943 0.99966 
0.00938093 -0.0335137 0.999394 
0.00988569 -0.0330613 0.999405 
0.0123669 -0.0246021 0.999621 
0.0105854 -0.021049 0.999722 
0.012388 -0.0165723 0.999786 
0.0125859 -0.0124236 0.999844 
0.0138948 -0.009383 0.99986 
0.0132946 -0.00648448 0.999891 
0.0131982 -0.00443106 0.999903 
0.0130449 -0.00249561 0.999912 
0.0132707 -0.00126802 0.999911 
0.0127378 -0.000298149 0.999919 
0.0131228 0.000388994 0.999914 
0.0129144 0.00115897 0.999916 
0.0131518 0.0021172 0.999911 
0.0130102 0.00333836 0.99991 
0.0129531 0.00481182 0.999905 
0.0127553 0.006555 0.999897 
0.0126921 0.00862685 0.999882 
0.0126001 0.0112088 0.999858 
0.0126676 0.0145321 0.999814 
0.012968 0.0187446 0.99974 
0.0132703 0.0240452 0.999623 
0.0142267 0.031078 0.999416 
0.0154725 0.0397403 0.99909 
0.0173666 0.0508931 0.998553 
0.0204317 0.0645543 0.997705 
0.0249473 0.0804065 0.99645 
0.0341989 0.106696 0.993703 
0.0480836 0.134722 0.989716 
0.0654896 0.160239 0.984903 
0.0750168 0.162123 0.983915 
0.113954 0.202683 0.972591 
0.176881 0.286762 0.941531 
0.223632 0.421101 0.879013 
0.238005 0.60962 0.75612 
0.119021 0.797697 0.591197 
0.00520041 0.999963 -0.00683859 
-0.194183 0.72133 -0.664812 
-0.213894 0.538756 -0.814857 
-0.221509 0.374768 -0.900268 
-0.162846 0.276504 -0.947115 
-0.112837 0.212874 -0.970543 
-0.0813196 0.17891 -0.980499 
-0.0614163 0.157896 -0.985544 
-0.0438451 0.12531 -0.991148 
-0.0309177 0.0999569 -0.994511 
-0.0245748 0.0815476 -0.996366 
-0.0199811 0.0663579 -0.997596 
-0.0182222 0.0566951 -0.998225 
-0.0151666 0.0432195 -0.998951 
-0.0138572 0.034068 -0.999324 
-0.0134039 0.0265235 -0.999558 
-0.0129871 0.020344 -0.999709 
-0.0128897 0.0158218 -0.999792 
-0.0127728 0.012018 -0.999846 
-0.0128301 0.00926143 -0.999875 
-0.012918 0.00706677 -0.999892 
-0.0127935 0.00529989 -0.999904 
-0.0127199 0.00368902 -0.999912 
-0.0128546 0.00240051 -0.999915 
-0.0128787 0.00132319 -0.999916 
-0.0128555 0.000531299 -0.999917 
-0.0131258 -0.000184977 -0.999914 
-0.0132182 -0.00103358 -0.999912 
-0.013342 -0.00222871 -0.999909 
-0.0133857 -0.00388444 -0.999903 
-0.0129957 -0.00604357 -0.999897 
-0.0128373 -0.00883152 -0.999879 
-0.013128 -0.0121095 -0.999841 
-0.0123814 -0.0160557 -0.999795 
-0.0120721 -0.0210401 -0.999706 
-0.0105373 -0.0272209 -0.999574 
-0.0102651 -0.0329506 -0.999404 
-0.00842144 -0.0342687 -0.999377 
-0.00645059 -0.0255115 -0.999654 
0.00124722 -0.00417255 -0.999991 
-0.000853368 -0.00411525 0.999991 
0.00401283 -0.0255921 0.999664 
0.00710086 -0.0346995 0.999373 
0.00704622 -0.0341745 0.999391 
0.00935545 -0.028663 0.999545 
0.00824592 -0.0220602 0.999723 
0.00931121 -0.015696 0.999834 
0.00924473 -0.0118833 0.999887 
0.0102146 -0.00873032 0.99991 
0.00913417 -0.00612406 0.99994 
0.00981859 -0.00376677 0.999945 
0.00929297 -0.0020391 0.999955 
0.00960749 -0.000920558 0.999953 
0.0089256 -0.000136911 0.99996 
0.00933439 0.000463095 0.999956 
0.00916541 0.00119033 0.999957 
0.00925982 0.00217291 0.999955 
0.00921317 0.00343746 0.999952 
0.00916892 0.00493027 0.999946 
0.0090209 0.00666828 0.999937 
0.00905386 0.00873924 0.999921 
0.00910678 0.0113066 0.999895 
0.00924064 0.0144879 0.999852 
0.00966025 0.0185232 0.999782 
0.010232 0.0236822 0.999667 
0.0113113 0.0301377 0.999482 
0.0128194 0.0383681 0.999182 
0.0146902 0.0480093 0.998739 
0.0177474 0.0599096 0.998046 
0.0231035 0.0761832 0.996826 
0.0323421 0.0984458 0.994617 
0.0425204 0.117427 0.992171 
0.0529043 0.132385 0.989786 
0.0734939 0.155741 0.98506 
0.103562 0.182354 0.977764 
0.15905 0.233625 0.95923 
0.235426 0.352311 0.905788 
0.304053 0.489759 0.817122 
0.233949 0.781738 0.578061 
0.0482452 0.992014 0.116537 
-0.146972 0.891635 -0.428236 
-0.291117 0.546658 -0.785121 
-0.218015 0.305512 -0.926894 
-0.150076 0.225138 -0.962699 
-0.10237 0.182983 -0.977772 
-0.0742232 0.15813 -0.984625 
-0.0560692 0.138424 -0.988785 
-0.0410455 0.115011 -0.992516 
-0.0316336 0.0983846 -0.994646 
-0.0230144 0.0776715 -0.996713 
-0.0174071 0.0611471 -0.997977 
-0.0145839 0.0487679 -0.998704 
-0.0117605 0.0376725 -0.999221 
-0.0107308 0.0298889 -0.999496 
-0.0102336 0.0236374 -0.999668 
-0.00952902 0.018396 -0.999785 
-0.00953751 0.0143873 -0.999851 
-0.00919957 0.0111399 -0.999896 
-0.0091912 0.00864174 -0.99992 
-0.00908189 0.006642 -0.999937 
-0.00920906 0.00489951 -0.999946 
-0.00899131 0.0033921 -0.999954 
-0.00925516 0.00213261 -0.999955 
-0.00910236 0.00115871 -0.999958 
-0.00921035 0.000413554 -0.999958 
-0.00936455 -0.000230564 -0.999956 
-0.00948836 -0.00106454 -0.999954 
-0.00964858 -0.00231215 -0.999951 
-0.00959022 -0.00402294 -0.999946 
-0.009422 -0.00640989 -0.999935 
-0.00947237 -0.00951584 -0.99991 
-0.00969589 -0.0129783 -0.999869 
-0.00905522 -0.0169687 -0.999815 
-0.00908133 -0.0216537 -0.999724 
-0.00787123 -0.0276735 -0.999586 
-0.00775758 -0.0336041 -0.999405 
-0.00634696 -0.0351807 -0.999361 
-0.00467191 -0.0254799 -0.999664 
0.000868519 -0.00416043 -0.999991 
-0.000551477 -0.0038057 0.999993 
0.00298282 -0.0269565 0.999632 
0.00508604 -0.0352572 0.999365 
0.00522749 -0.0343254 0.999397 