# vtk DataFile Version 3.0 
Exported using Morpho https://github.com/Morpho-lang/morpho 
ASCII 
DATASET UNSTRUCTURED_GRID 

POINTS 1978 float 
-8.48528 -2.82843 1.26445e-18 
-8.26671 -2.82843 1.1862e-19 
-8.04488 -2.82843 -4.75012e-20 
-7.78423 -2.82843 -2.02912e-20 
-7.49735 -2.82843 3.01624e-22 
-7.24594 -2.82843 1.17228e-19 
-6.99615 -2.82843 2.39043e-19 
-6.78235 -2.82843 3.74712e-19 
-6.56305 -2.82843 4.30279e-19 
-6.36094 -2.82843 3.88968e-19 
-6.14019 -2.82843 3.69337e-19 
-5.93293 -2.82843 1.83631e-19 
-5.72125 -2.82843 3.27477e-20 
-5.52815 -2.82843 -1.06232e-19 
-5.29382 -2.82843 -1.4e-19 
-5.08912 -2.82843 -8.1701e-20 
-4.87182 -2.82843 4.45723e-19 
-4.66145 -2.82843 1.67629e-18 
-4.44953 -2.82843 3.96159e-18 
-4.23824 -2.82843 6.42017e-18 
-4.03492 -2.82843 7.52342e-18 
-3.83245 -2.82843 4.24303e-18 
-3.62739 -2.82843 -1.38981e-17 
-3.41932 -2.82843 -8.64524e-17 
-3.20139 -2.82843 -3.44837e-16 
-2.97702 -2.82843 -1.06407e-15 
-2.76457 -2.82843 -2.95199e-15 
-2.54979 -2.82843 -9.39887e-15 
-2.29272 -2.82843 -2.64916e-14 
-2.04624 -2.82843 -6.15294e-14 
-1.8311 -2.82843 -1.71538e-13 
-1.59921 -2.82843 -3.44967e-13 
-1.40728 -2.82843 -5.54127e-13 
-1.24904 -2.82843 -8.38156e-13 
-1.11134 -2.82843 -1.18407e-12 
-0.970829 -2.82843 -2.27007e-12 
-0.80757 -2.82843 -1.9804e-11 
-0.642695 -2.82843 -2.65678e-10 
-0.222569 -2.82843 -5.86306e-10 
0.256958 -2.82843 -8.92671e-10 
0.434707 -2.82843 -2.29077e-10 
0.758466 -2.82843 5.97451e-11 
0.857163 -2.82843 -3.75046e-12 
0.976202 -2.82843 4.11222e-13 
1.13338 -2.82843 1.85251e-12 
1.283 -2.82843 1.12663e-12 
1.45368 -2.82843 8.80767e-13 
1.64952 -2.82843 3.75908e-13 
1.87466 -2.82843 1.89356e-13 
2.12258 -2.82843 6.31053e-14 
2.37134 -2.82843 1.98075e-14 
2.58527 -2.82843 6.73691e-15 
2.79871 -2.82843 2.89438e-15 
3.0174 -2.82843 1.16497e-15 
3.23392 -2.82843 3.86043e-16 
3.42654 -2.82843 1.02722e-16 
3.62541 -2.82843 2.34562e-17 
3.82518 -2.82843 -5.02993e-19 
4.03181 -2.82843 -6.23774e-18 
4.24659 -2.82843 -7.40967e-18 
4.4523 -2.82843 -5.4631e-18 
4.65896 -2.82843 -2.65868e-18 
4.86118 -2.82843 -7.7278e-19 
5.07669 -2.82843 7.07253e-20 
5.28285 -2.82843 2.43166e-19 
5.50382 -2.82843 1.4022e-19 
5.71934 -2.82843 -3.34091e-20 
5.93746 -2.82843 -2.36038e-19 
6.16609 -2.82843 -3.23575e-19 
6.38258 -2.82843 -4.18005e-19 
6.60275 -2.82843 -3.59502e-19 
6.82321 -2.82843 -2.74394e-19 
7.03183 -2.82843 -2.07157e-19 
7.29773 -2.82843 -7.35234e-20 
7.53144 -2.82843 1.64324e-20 
7.75668 -2.82843 3.94783e-20 
8.04016 -2.82843 2.86525e-20 
8.23152 -2.82843 1.37342e-20 
8.48528 -2.82843 -3.29696e-20 
-8.48528 -2.58894 -3.65498e-18 
-8.25876 -2.58035 1.80282e-18 
-8.031 -2.58494 -4.61997e-20 
-7.78698 -2.61278 -4.8173e-20 
-7.52336 -2.65474 -1.04481e-19 
-7.22855 -2.61606 -1.75621e-19 
-6.98405 -2.59093 -2.70564e-19 
-6.75437 -2.60189 -3.22333e-19 
-6.53462 -2.58099 -3.09633e-19 
-6.30339 -2.60248 -2.75369e-19 
-6.07654 -2.58621 -2.26956e-19 
-5.85895 -2.58811 -1.71607e-19 
-5.65273 -2.56412 -1.50643e-19 
-5.43071 -2.6113 -2.29749e-19 
-5.21145 -2.5825 -3.2798e-19 
-4.99349 -2.59889 -5.92118e-19 
-4.77492 -2.59419 -1.09658e-18 
-4.55927 -2.59856 -2.04805e-18 
-4.34302 -2.59983 -3.41976e-18 
-4.13085 -2.59198 -4.49926e-18 
-3.92349 -2.59109 -3.55076e-18 
-3.71562 -2.59194 4.96962e-18 
-3.50448 -2.59271 4.1512e-17 
-3.28782 -2.60029 1.84735e-16 
-3.06233 -2.60317 6.68099e-16 
-2.83637 -2.58731 2.61e-15 
-2.61821 -2.58831 7.13623e-15 
-2.38617 -2.62566 2.04588e-14 
-2.12269 -2.61247 -1.33591e-18 
-1.87798 -2.58103 -4.23299e-18 
-1.65444 -2.60191 -1.41215e-17 
-1.43945 -2.58217 -4.21482e-17 
-1.25275 -2.56461 -9.62572e-17 
-1.10168 -2.57279 -1.97981e-16 
-0.976099 -2.63046 -3.82079e-16 
-0.866075 -2.4707 -1.95953e-16 
-0.828795 -2.65783 -1.25055e-15 
-0.533973 -2.78311 -1.16434e-14 
-0.471948 -2.621 2.29593e-14 
0.129769 -2.78794 -2.5245e-14 
0.403181 -2.71531 2.8913e-15 
0.67867 -2.75961 3.26592e-15 
0.801642 -2.56863 9.84043e-16 
0.917947 -2.57661 4.75619e-16 
1.0694 -2.62963 3.13282e-16 
1.07877 -2.41497 4.61265e-17 
1.24978 -2.59167 1.11193e-16 
1.44088 -2.60216 5.6609e-17 
1.6519 -2.60554 1.5218e-17 
1.91892 -2.62791 4.5937e-18 
2.2018 -2.62813 1.21994e-18 
2.45958 -2.59164 -1.85091e-14 
2.69847 -2.58971 -5.74017e-15 
2.93198 -2.60028 -2.14292e-15 
3.16755 -2.60198 -4.85095e-16 
3.39471 -2.57687 -2.19806e-16 
3.606 -2.59149 -2.94045e-17 
3.82373 -2.59555 -1.78462e-18 
4.04262 -2.60055 3.20736e-18 
4.25745 -2.59378 4.6263e-18 
4.47331 -2.5942 3.62299e-18 
4.68258 -2.58667 2.05651e-18 
4.89979 -2.59914 1.0847e-18 
5.11187 -2.58637 4.99938e-19 
5.33352 -2.60082 3.04657e-19 
5.55419 -2.59273 1.80045e-19 
5.77598 -2.59323 1.54415e-19 
6.00611 -2.60233 1.91992e-19 
6.2309 -2.58775 2.4582e-19 
6.45418 -2.59106 2.80856e-19 
6.67998 -2.58921 2.74437e-19 
6.89417 -2.57387 2.56143e-19 
7.13372 -2.62433 1.85315e-19 
7.38504 -2.59805 1.1951e-19 
7.6121 -2.58872 7.07398e-20 
7.86971 -2.63722 2.79317e-20 
8.07576 -2.54483 4.63626e-20 
8.30038 -2.61276 -2.62408e-18 
8.48528 -2.53125 2.80025e-18 
-8.48528 -2.34829 2.83372e-19 
-8.25045 -2.34314 -1.049e-18 
-8.01967 -2.34048 -5.36292e-20 
-7.77966 -2.41046 -5.90014e-20 
-7.57368 -2.2625 -6.24813e-20 
-7.48581 -2.46019 -8.9879e-20 
-7.207 -2.40674 -1.5146e-19 
-6.9841 -2.34672 -1.67825e-19 
-6.75557 -2.36978 -2.28415e-19 
-6.50802 -2.35988 -2.10411e-19 
-6.26957 -2.37667 -1.81933e-19 
-6.04086 -2.34775 -1.09108e-19 
-5.8281 -2.33567 -5.70542e-20 
-5.58429 -2.34927 -3.80699e-20 
-5.37184 -2.36961 -4.76983e-20 
-5.13739 -2.35775 -1.33757e-19 
-4.91748 -2.36902 -3.34978e-19 
-4.69463 -2.36671 -8.12693e-19 
-4.47585 -2.37288 -1.63796e-18 
-4.26044 -2.36799 -2.57563e-18 
-4.04659 -2.35755 -2.85351e-18 
-3.83692 -2.35658 3.15807e-19 
-3.62514 -2.35911 1.59052e-17 
-3.40786 -2.3653 7.68227e-17 
-3.18725 -2.37585 3.03548e-16 
-2.96411 -2.36856 1.21351e-15 
-2.73762 -2.3473 3.34427e-15 
-2.50507 -2.37651 1.03561e-14 
-2.27209 -2.41512 3.15436e-14 
-2.02442 -2.37558 -1.84177e-18 
-1.77499 -2.35072 -5.01993e-18 
-1.55743 -2.35768 -1.04303e-17 
-1.34684 -2.33804 -1.7424e-17 
-1.1519 -2.32052 -2.2665e-17 
-0.990691 -2.37526 -5.15361e-17 
-0.796774 -2.28689 6.39345e-17 
-0.68637 -2.67203 -1.87919e-15 
-0.409282 -2.74169 -3.54206e-14 
-0.273089 -2.71528 -1.08169e-14 
-0.107603 -2.76772 1.15848e-14 
0.261541 -2.68156 7.02061e-15 
0.597854 -2.69295 1.85966e-15 
0.696135 -2.5048 3.72425e-16 
0.809296 -2.32432 -1.97618e-16 
0.938361 -2.33034 9.71196e-17 
1.06258 -2.16768 -2.30342e-17 
1.24395 -2.37501 4.22049e-17 
1.44733 -2.37449 1.23038e-17 
1.6832 -2.41229 9.49303e-18 
1.94734 -2.43011 2.74631e-18 
2.20729 -2.41581 -3.80223e-14 
2.44484 -2.35871 -1.17834e-14 
2.67885 -2.36307 -4.96831e-15 
2.92242 -2.36784 -1.77119e-15 
3.14869 -2.37675 -5.3349e-16 
3.37901 -2.35078 -7.55189e-17 
3.60368 -2.35342 -3.26459e-17 
3.81577 -2.36407 -6.09545e-18 
4.02928 -2.37596 1.10661e-18 
4.24466 -2.36175 2.26655e-18 
4.45251 -2.36172 1.77587e-18 
4.66014 -2.34914 1.05311e-18 
4.86976 -2.36636 4.15396e-19 
5.08076 -2.35077 1.96375e-19 
5.29688 -2.3686 9.81434e-20 
5.51339 -2.36127 6.8285e-20 
5.73393 -2.35937 6.83226e-20 
5.95782 -2.37304 1.08793e-19 
6.18208 -2.3572 1.40637e-19 
6.41019 -2.35344 1.70594e-19 
6.63303 -2.35564 1.75709e-19 
6.85608 -2.32516 1.62335e-19 
7.0779 -2.38475 1.54351e-19 
7.30665 -2.39325 1.14481e-19 
7.5558 -2.34829 8.14845e-20 
7.79125 -2.41009 4.41434e-20 
8.00042 -2.31853 4.00428e-20 
8.24798 -2.34988 1.73502e-18 
8.48528 -2.30256 -9.68028e-19 
-8.48528 -2.09444 -1.03686e-19 
-8.27061 -2.10321 2.44719e-19 
-8.04887 -2.08821 -1.53524e-20 
-7.81347 -2.1649 -3.83075e-20 
-7.54472 -2.05351 -1.48997e-20 
-7.31508 -2.23145 -7.53431e-20 
-7.08256 -2.1237 -6.33778e-20 
-6.83336 -2.12838 -7.2662e-20 
-6.61132 -2.14651 -8.32079e-20 
-6.36238 -2.1477 -7.85203e-20 
-6.14474 -2.12692 -4.45965e-20 
-5.92559 -2.09193 -4.56461e-21 
-5.69994 -2.12686 1.75074e-20 
-5.47641 -2.11462 4.32397e-20 
-5.26448 -2.14307 6.26186e-20 
-5.03766 -2.13229 8.97448e-20 
-4.82265 -2.14155 8.06606e-20 
-4.60464 -2.14125 -6.85204e-20 
-4.39378 -2.14208 -3.88564e-19 
-4.18332 -2.13481 -8.82793e-19 
-3.97354 -2.12254 -1.4867e-18 
-3.76413 -2.12448 -1.82029e-18 
-3.55001 -2.13144 6.92876e-19 
-3.33215 -2.13874 1.49676e-17 
-3.11362 -2.14391 5.44525e-17 
-2.89047 -2.1317 1.2623e-16 
-2.6476 -2.12937 5.5681e-16 
-2.41207 -2.16 3.43834e-15 
-2.18331 -2.18278 9.84351e-15 
-1.92144 -2.14688 8.77344e-15 
-1.67317 -2.11054 -1.22332e-14 
-1.45594 -2.11337 -7.29306e-15 
-1.24228 -2.11496 -3.09355e-14 
-1.05074 -2.05693 1.12368e-17 
-0.939578 -2.17461 4.70198e-17 
-0.750687 -2.09954 1.14758e-16 
-0.717678 -2.48293 -3.02251e-16 
-0.57424 -2.60698 -8.01071e-16 
-0.451747 -2.61213 -3.86745e-15 
-0.115196 -2.66311 -1.93488e-15 
0.542062 -2.58391 1.27047e-15 
0.52427 -2.43257 2.92236e-16 
0.651393 -2.32839 -2.52074e-16 
0.731978 -2.14106 -5.74708e-17 
0.886758 -2.0707 -1.00377e-16 
1.13981 -1.9777 -1.96951e-17 
1.28153 -2.1757 -2.96854e-18 
1.51549 -2.17082 1.55448e-18 
1.7563 -2.21313 1.78597e-18 
2.01387 -2.21702 -3.95895e-14 
2.25069 -2.17696 -9.68367e-15 
2.49411 -2.12075 -1.09138e-15 
2.73825 -2.14423 -6.43286e-16 
2.96414 -2.12994 -1.75151e-16 
3.19265 -2.14793 -5.64092e-17 
3.42475 -2.12368 6.63497e-18 
3.64253 -2.12278 3.43478e-18 
3.8579 -2.13784 2.46391e-18 
4.06761 -2.14597 1.89579e-18 
4.27884 -2.12632 9.29142e-19 
4.48438 -2.12395 4.69856e-19 
4.69818 -2.11834 5.50656e-20 
4.90397 -2.12782 -1.29667e-20 
5.12476 -2.1235 -7.11981e-20 
5.33634 -2.13284 -6.21612e-20 
5.55523 -2.12851 -5.09136e-20 
5.78037 -2.1315 -1.78471e-20 
5.99967 -2.13744 1.92532e-20 
6.22985 -2.12724 5.41328e-20 
6.45434 -2.11723 7.26899e-20 
6.67402 -2.11379 7.22779e-20 
6.91119 -2.09517 5.09635e-20 
7.127 -2.15273 6.27252e-20 
7.36201 -2.16881 3.67593e-20 
7.56297 -2.07735 1.88245e-20 
7.75996 -2.16906 2.93874e-20 
7.9809 -2.08199 1.08838e-20 
8.21197 -2.12791 -1.88569e-19 
8.48528 -2.10416 1.15865e-19 
-8.48528 -1.81243 3.12876e-19 
-8.29329 -1.85363 1.85699e-19 
-7.88586 -1.91183 1.64138e-21 
[...]
POINT_DATA 1978 
VECTORS vectors float
8.20617e-06 -0.00095493 1 
-2.96593e-06 -0.00163655 0.999999 
2.60393e-07 -0.00161077 0.999999 
-1.74737e-07 -0.00164682 0.999999 
-2.1855e-07 -0.00174106 0.999998 
-3.31409e-07 -0.00186966 0.999998 
-2.90842e-07 -0.00200869 0.999998 
-1.37157e-07 -0.00214285 0.999998 
-1.47427e-07 -0.00228386 0.999997 
-1.26862e-07 -0.00239807 0.999997 
-1.4056e-07 -0.00250356 0.999997 
-8.49194e-08 -0.00257798 0.999997 
-1.20649e-08 -0.00262782 0.999997 
-2.91004e-08 -0.00264418 0.999997 
8.60513e-08 -0.00264034 0.999997 
1.21794e-07 -0.0026107 0.999997 
3.10243e-07 -0.00253736 0.999997 
3.92419e-07 -0.00239904 0.999997 
5.26082e-07 -0.00215665 0.999998 
5.32327e-07 -0.00177891 0.999998 
5.23027e-07 -0.00126114 0.999999 
8.00195e-07 -0.000567402 1 
1.53012e-06 0.000385645 1 
3.14354e-06 0.00175492 0.999998 
4.93713e-06 0.00383446 0.999993 
5.45563e-06 0.00695501 0.999976 
6.25086e-06 0.0111869 0.999937 
1.75886e-05 0.0170775 0.999854 
3.31733e-05 0.0266093 0.999646 
3.94457e-05 0.0395966 0.999216 
3.80803e-05 0.0571334 0.998367 
1.94975e-05 0.087007 0.996208 
-3.9276e-05 0.121066 0.992644 
-9.80746e-05 0.159415 0.987212 
-0.000207978 0.205802 0.978594 
-0.000158805 0.261483 0.965208 
-0.000104437 0.340663 0.940186 
-0.00053879 0.501989 0.864874 
-0.00149563 0.895787 0.444481 
-0.00135701 0.861635 -0.507527 
-0.000495542 0.678712 -0.734405 
-0.000227706 0.406323 -0.91373 
0.000563238 0.337162 -0.941447 
3.61575e-05 0.271939 -0.962315 
0.000175079 0.20641 -0.978466 
9.12692e-05 0.159166 -0.987252 
1.95115e-05 0.11872 -0.992928 
-1.59939e-05 0.0852483 -0.99636 
-5.22953e-05 0.0544086 -0.998519 
-5.86853e-05 0.0357857 -0.999359 
-2.10274e-05 0.0240942 -0.99971 
-7.3288e-06 0.0170424 -0.999855 
-6.07873e-06 0.0116401 -0.999932 
-5.82698e-06 0.00736228 -0.999973 
-2.34624e-06 0.00412018 -0.999992 
-1.15964e-06 0.00209097 -0.999998 
-5.68393e-07 0.000676943 -1 
-1.02086e-06 -0.000264588 -1 
-9.42999e-07 -0.000976347 -1 
-7.56928e-07 -0.00157729 -0.999999 
-4.15733e-07 -0.00203442 -0.999998 
-2.60004e-07 -0.00235755 -0.999997 
-2.94651e-07 -0.00253638 -0.999997 
-1.82318e-07 -0.00261494 -0.999997 
-9.49203e-08 -0.0026409 -0.999997 
3.50891e-08 -0.00264072 -0.999997 
9.27879e-08 -0.00262063 -0.999997 
1.69297e-07 -0.00256893 -0.999997 
2.09327e-07 -0.00248259 -0.999997 
1.87015e-07 -0.00237803 -0.999997 
2.0347e-07 -0.00225513 -0.999997 
1.67009e-07 -0.00212571 -0.999998 
2.88469e-07 -0.0020028 -0.999998 
3.33563e-07 -0.00185364 -0.999998 
1.26202e-07 -0.00175198 -0.999998 
5.80526e-08 -0.0016786 -0.999999 
4.4999e-08 -0.00163418 -0.999999 
2.52222e-06 -0.00162793 -0.999999 
-5.47739e-06 -0.000815444 -1 
0.000119619 -0.000362665 1 
4.21423e-05 -0.00153795 0.999999 
1.6859e-05 -0.00158284 0.999999 
1.24699e-05 -0.00163072 0.999999 
2.02272e-05 -0.00171158 0.999999 
3.53784e-05 -0.00184629 0.999998 
5.38064e-05 -0.00196767 0.999998 
6.68331e-05 -0.00211372 0.999998 
8.2804e-05 -0.00222898 0.999998 
8.30046e-05 -0.00234962 0.999997 
8.57795e-05 -0.00243575 0.999997 
7.25284e-05 -0.00249841 0.999997 
5.45776e-05 -0.0025179 0.999997 
1.22949e-05 -0.00254397 0.999997 
-3.81033e-05 -0.00249871 0.999997 
-0.000100099 -0.00243949 0.999997 
-0.000181529 -0.00230838 0.999997 
-0.00026844 -0.00209689 0.999998 
-0.000364611 -0.00175627 0.999998 
-0.000479075 -0.00125301 0.999999 
-0.000599074 -0.000579195 1 
-0.000741991 0.000346376 1 
-0.000932403 0.00166397 0.999998 
-0.00117403 0.00356348 0.999993 
-0.00153495 0.00641298 0.999978 
-0.00210362 0.0105615 0.999942 
-0.00263412 0.0159958 0.999869 
-0.00290853 0.023747 0.999714 
-0.0037824 0.0367981 0.999316 
-0.00493743 0.0554101 0.998451 
-0.00530231 0.0807258 0.996722 
-0.00652836 0.117912 0.993003 
-0.00688076 0.161978 0.98677 
-0.00620638 0.211529 0.977352 
-0.00631616 0.274469 0.961575 
0.0188534 0.310191 0.950487 
-0.008868 0.37027 0.928882 
-0.0132198 0.60148 0.798778 
0.0558492 0.633162 0.772002 
-0.0150616 0.953399 -0.301338 
-0.0305695 0.693364 -0.719939 
0.00914624 0.476778 -0.878976 
-0.0130435 0.374244 -0.927238 
-0.00410896 0.30482 -0.952401 
0.00471339 0.23463 -0.972073 
-0.0143987 0.212107 -0.97714 
0.00632028 0.173207 -0.984865 
0.00744715 0.12733 -0.991833 
0.00637734 0.0824876 -0.996572 
0.0050631 0.050742 -0.998699 
0.00387125 0.0326337 -0.99946 
0.00316968 0.0220493 -0.999752 
0.00247928 0.0149467 -0.999885 
0.00187213 0.00969566 -0.999951 
0.00141803 0.00575145 -0.999982 
0.00115044 0.00311424 -0.999994 
0.000872686 0.00134248 -0.999999 
0.000681058 0.000116251 -1 
0.000544822 -0.000762772 -1 
0.000460773 -0.00137452 -0.999999 
0.000360105 -0.00184318 -0.999998 
0.000267229 -0.00215373 -0.999998 
0.00016148 -0.0023701 -0.999997 
8.23584e-05 -0.00246449 -0.999997 
1.21766e-05 -0.00252261 -0.999997 
-3.7046e-05 -0.00252945 -0.999997 
-6.78417e-05 -0.00250926 -0.999997 
-8.05682e-05 -0.00245842 -0.999997 
-8.69215e-05 -0.00237151 -0.999997 
-8.00258e-05 -0.00227075 -0.999997 
-6.9484e-05 -0.00215447 -0.999998 
-5.87149e-05 -0.00203837 -0.999998 
-3.64699e-05 -0.0019188 -0.999998 
-2.62387e-05 -0.00179639 -0.999998 
-1.451e-05 -0.00170745 -0.999999 
-7.56532e-06 -0.0016414 -0.999999 
-1.15932e-05 -0.00159216 -0.999999 
-3.12161e-05 -0.0015484 -0.999999 
-8.4814e-05 -0.000276727 -1 
9.30229e-05 -0.000349694 1 
3.23039e-05 -0.00148496 0.999999 
6.06685e-06 -0.00155834 0.999999 
6.47663e-06 -0.00162055 0.999999 
3.86036e-06 -0.00169814 0.999999 
2.39906e-05 -0.00172924 0.999999 
4.59219e-05 -0.001851 0.999998 
6.45673e-05 -0.00195286 0.999998 
8.67169e-05 -0.00206242 0.999998 
0.000110384 -0.00218479 0.999998 
0.000121089 -0.00229289 0.999997 
0.000122702 -0.00235967 0.999997 
0.000105247 -0.0024014 0.999997 
6.03922e-05 -0.00242377 0.999997 
6.14298e-07 -0.00241491 0.999997 
-8.98587e-05 -0.00234592 0.999997 
-0.000194971 -0.00224039 0.999997 
-0.000321217 -0.00204847 0.999998 
-0.000450945 -0.00176079 0.999998 
-0.000583815 -0.00132531 0.999999 
-0.000721152 -0.000699422 0.999999 
-0.000867027 0.000145517 1 
-0.0010478 0.00132964 0.999999 
-0.00129417 0.0030289 0.999995 
-0.00164067 0.00542471 0.999984 
-0.00209993 0.00884042 0.999959 
-0.00260559 0.0136251 0.999904 
-0.00325544 0.0202725 0.999789 
-0.00386806 0.0296344 0.999553 
-0.00394124 0.0439452 0.999026 
-0.00291155 0.0647755 0.997896 
-0.00121726 0.0910167 0.995849 
0.00475069 0.124671 0.992187 
0.0150011 0.169295 0.985451 
0.0213536 0.229402 0.973098 
0.0668807 0.287187 0.955537 
0.00739364 0.449255 0.893373 
-0.00067597 0.696434 0.71762 
0.0328585 0.831996 0.553808 
-0.000241667 0.967988 0.250995 
-0.0555571 0.811738 -0.581373 
-0.00791156 0.541487 -0.840672 
-0.0418647 0.425081 -0.904187 
-0.0611281 0.302548 -0.951172 
-0.0404207 0.250207 -0.967348 
-0.0425376 0.176144 -0.983445 
-0.00656536 0.158595 -0.987322 
0.00162383 0.113277 -0.993562 
0.00566428 0.0798373 -0.996792 
0.00554883 0.0517415 -0.998645 
0.00464489 0.0340315 -0.99941 
0.00360295 0.0234467 -0.999719 
0.00293224 0.0160478 -0.999867 
0.00230555 0.0105275 -0.999942 
0.00180866 0.00664401 -0.999976 
0.00139032 0.0038875 -0.999991 
0.00111096 0.00188055 -0.999998 
0.000928098 0.000533443 -0.999999 
0.000785367 -0.000416198 -1 
0.000674058 -0.00105731 -0.999999 
0.000540484 -0.00155247 -0.999999 
0.000406399 -0.00189265 -0.999998 
0.000263979 -0.00214805 -0.999998 
0.000142535 -0.00228436 -0.999997 
3.465e-05 -0.00238194 -0.999997 
-4.35066e-05 -0.0024157 -0.999997 
-9.60099e-05 -0.00241558 -0.999997 
-0.000120182 -0.00238666 -0.999997 
-0.000125659 -0.00231794 -0.999997 
-0.000113953 -0.00223034 -0.999998 
-9.37566e-05 -0.00213283 -0.999998 
-7.12531e-05 -0.00202303 -0.999998 
-5.19514e-05 -0.00193195 -0.999998 
-3.15018e-05 -0.00182549 -0.999998 
-8.09919e-06 -0.00171911 -0.999999 
-2.10301e-06 -0.00164524 -0.999999 
3.43495e-06 -0.00158671 -0.999999 
-1.8495e-05 -0.00151328 -0.999999 
-5.04437e-05 -0.00045892 -1 
1.42784e-05 -0.0002839 1 
-7.20469e-06 -0.00143578 0.999999 
-2.71481e-05 -0.00152522 0.999999 
-1.97674e-05 -0.00160082 0.999999 
-2.66263e-05 -0.00170505 0.999999 
1.95211e-05 -0.00180091 0.999998 
2.3775e-05 -0.00189169 0.999998 
5.55974e-05 -0.00200526 0.999998 
8.72051e-05 -0.0021006 0.999998 
0.00011494 -0.00220044 0.999998 
0.000125785 -0.00226351 0.999997 
0.000117627 -0.00229977 0.999997 
8.83458e-05 -0.00233316 0.999997 
3.03038e-05 -0.00231449 0.999997 
-4.57064e-05 -0.00228053 0.999997 
-0.000152336 -0.00217574 0.999998 
-0.000267772 -0.00202522 0.999998 
-0.000390374 -0.00178282 0.999998 
-0.000502385 -0.00143647 0.999999 
-0.000599485 -0.0009318 0.999999 
-0.000676993 -0.000218743 1 
-0.000758111 0.000758341 0.999999 
-0.000857175 0.0021408 0.999997 
-0.000974897 0.00408016 0.999991 
-0.00113964 0.00673077 0.999977 
-0.00126743 0.0103618 0.999946 
-0.00137233 0.0157482 0.999875 
-0.00156082 0.0230836 0.999732 
-0.00137902 0.0330775 0.999452 
0.00114297 0.0484493 0.998825 
0.00672725 0.0680933 0.997656 
0.0145331 0.092848 0.995574 
0.0285959 0.126911 0.991502 
0.0540865 0.160222 0.985598 
0.0604957 0.209459 0.975944 
0.110414 0.231382 0.966577 
0.0465289 0.388829 0.920134 
0.0363277 0.531751 0.846121 
0.0490023 0.702918 0.709581 
0.0371529 0.96138 0.272706 
-0.049376 0.547163 -0.835569 
-0.114462 0.490483 -0.863901 
-0.0981792 0.364849 -0.925876 
-0.112152 0.252121 -0.961175 
-0.0823938 0.198475 -0.976637 
-0.0490312 0.129595 -0.990354 
-0.0195726 0.127794 -0.991608 
-0.00723039 0.0917771 -0.995753 
0.000618207 0.0663894 -0.997794 
0.00218126 0.0445812 -0.999003 
0.00210081 0.0309693 -0.999518 
0.00145763 0.0211172 -0.999776 
0.00157741 0.0144574 -0.999894 
0.00133937 0.00987687 -0.99995 
0.00116797 0.00637381 -0.999979 
0.000921165 0.00368223 -0.999993 
0.000838072 0.00186791 -0.999998 
0.000782192 0.000598854 -1 
0.000717977 -0.000292246 -1 
0.000629462 -0.000940205 -0.999999 
0.000525351 -0.00141175 -0.999999 
0.000397945 -0.00176244 -0.999998 
0.000268292 -0.00200517 -0.999998 
0.000135916 -0.00216858 -0.999998 
2.65618e-05 -0.00226727 -0.999997 
-5.70635e-05 -0.00231354 -0.999997 
-0.000110365 -0.00232304 -0.999997 
-0.000130556 -0.00229825 -0.999997 
-0.000124592 -0.00223956 -0.999997 
-0.000101766 -0.002164 -0.999998 
-7.20797e-05 -0.00208119 -0.999998 
-3.72688e-05 -0.0019861 -0.999998 
-2.09613e-05 -0.00189141 -0.999998 
-2.14323e-07 -0.0017999 -0.999998 
2.76427e-05 -0.00171807 -0.999999 
2.1262e-05 -0.00164834 -0.999999 
3.17637e-05 -0.00157957 -0.999999 
1.40602e-05 -0.00150306 -0.999999 
-9.26449e-06 -0.000396669 -1 
-6.78077e-05 -0.000304245 1 
-5.66848e-05 -0.00140653 0.999999 
-5.63053e-05 -0.0015808 0.999999 
-5.65464e-05 -0.00165811 0.999999 
-7.03924e-05 -0.00174983 0.999998 
-2.35051e-05 -0.00179562 0.999998 
-3.71078e-05 -0.00185994 0.999998 
1.48695e-06 -0.0019479 0.999998 
2.97768e-05 -0.00203665 0.999998 
7.27033e-05 -0.00211967 0.999998 
9.23878e-05 -0.00217706 0.999998 
0.000102257 -0.00221716 0.999998 
8.89777e-05 -0.00224477 0.999997 
4.77089e-05 -0.00224251 0.999997 
-2.68942e-05 -0.00219927 0.999998 
-0.00011485 -0.00213171 0.999998 
-0.000225383 -0.00199219 0.999998 
-0.000331342 -0.00179739 0.999998 
-0.000424277 -0.00150145 0.999999 
-0.000490549 -0.00108639 0.999999 
-0.000520846 -0.000495834 1 
-0.00051658 0.000344375 1 
-0.000490085 0.00151146 0.999999 
-0.00041516 0.00314 0.999995 
-0.000278168 0.00537739 0.999986 
-6.10653e-05 0.00831227 0.999965 
0.000219572 0.0125406 0.999921 
0.000904879 0.0187661 0.999823 
0.0020862 0.0269811 0.999634 
0.0044435 0.0380032 0.999268 
0.0114498 0.0528902 0.998535 
0.0235231 0.072278 0.997107 
0.0406336 0.0978142 0.994375 
0.0705397 0.120089 0.990254 
0.105422 0.158243 0.981756 
0.156306 0.186946 0.969856 
0.131461 0.3364 0.932498 
0.0974458 0.4244 0.900216 
0.0996272 0.574389 0.812497 
0.0840808 0.820512 0.565412 
-0.0984825 0.906443 -0.410685 
-0.201441 0.541878 -0.81596 
-0.163281 0.379545 -0.910651 
-0.130895 0.16213 -0.978049 
-0.0815297 0.138431 -0.987011 
-0.0490181 0.0903274 -0.994705 
-0.0271269 0.0970331 -0.994911 
-0.026445 0.0700664 -0.997192 
-0.0119435 0.0694178 -0.997516 
-0.00448547 0.0506805 -0.998705 
-0.00223157 0.0349199 -0.999388 
-0.00118535 0.0245721 -0.999697 
-0.000397233 0.0159656 -0.999872 
-4.72439e-05 0.0111853 -0.999937 
0.000264907 0.00745209 -0.999972 
0.000389396 0.00470879 -0.999989 
0.000447191 0.00253681 -0.999997 
0.000541578 0.00114332 -0.999999 
0.000585226 0.000140313 -1 
0.000575642 -0.000573377 -1 
0.000517788 -0.00111857 -0.999999 
0.000432403 -0.0015125 -0.999999 
0.000316888 -0.00179794 -0.999998 
0.000194741 -0.00200026 -0.999998 
7.43376e-05 -0.00212871 -0.999998 
-1.84143e-05 -0.00220439 -0.999998 
-8.25179e-05 -0.00224018 -0.999997 
-0.00011047 -0.00223574 -0.999997 
-0.00010776 -0.00220511 -0.999998 
-7.94666e-05 -0.00214656 -0.999998 
-4.12368e-05 -0.00207764 -0.999998 
-8.26874e-06 -0.00200268 -0.999998 
2.25586e-05 -0.00190527 -0.999998 
3.4172e-05 -0.00182466 -0.999998 
6.01663e-05 -0.00173001 -0.999999 
5.68055e-05 -0.00163304 -0.999999 
5.81249e-05 -0.00154669 -0.999999 
4.01205e-05 -0.00146007 -0.999999 
4.48386e-05 -0.000369797 -1 
-0.000105964 -0.00037696 1 
-9.51047e-05 -0.00142869 0.999999 
-6.98714e-05 -0.00150416 0.999999 
-9.09091e-05 -0.00157457 0.999999 
-9.2435e-05 -0.00166341 0.999999 
-9.24448e-05 -0.00180688 0.999998 
-6.66827e-05 -0.00190458 0.999998 
-3.34933e-05 -0.00197861 0.999998 
9.64129e-06 -0.00205914 0.999998 
4.40705e-05 -0.00211127 0.999998 
6.83186e-05 -0.00214691 0.999998 
7.96389e-05 -0.00217745 0.999998 
5.52728e-05 -0.00217062 0.999998 
2.62015e-06 -0.00214963 0.999998 
-7.96393e-05 -0.00208483 0.999998 
-0.000170493 -0.00199435 0.999998 
-0.000269972 -0.00183565 0.999998 
-0.000352987 -0.0016164 0.999999 
-0.000407165 -0.00130054 0.999999 
-0.000422139 -0.000865589 1 
-0.000388442 -0.000236533 1 
-0.000296029 0.000655521 1 
-0.000139441 0.00188314 0.999998 
0.000130126 0.00357024 0.999994 
0.000556571 0.00575742 0.999983 
0.00113013 0.00883926 0.99996 
0.00197254 0.0131987 0.999911 
0.00365106 0.0188362 0.999816 
0.00619002 0.0261836 0.999638 
0.0104664 0.0362145 0.999289 
0.0203308 0.0481506 0.998633 
0.036514 0.0631394 0.997337 
0.0578628 0.0772039 0.995335 
0.081121 0.0671062 0.994443 
0.106812 0.0995047 0.989288 
0.146554 0.101483 0.983983 
0.190277 0.282141 0.940314 
0.185866 0.470072 0.862836 
0.14651 0.685238 0.713431 
-0.0255772 0.997665 -0.0633342 
-0.0972614 0.637327 -0.764431 
-0.241253 0.331235 -0.912184 
-0.166664 0.247368 -0.95448 
-0.154143 0.118522 -0.980914 
-0.0909673 0.101053 -0.990714 
-0.0657996 0.0697554 -0.995392 
-0.0423075 0.0604415 -0.997275 
-0.0246882 0.050414 -0.998423 
-0.0135386 0.0491388 -0.9987 
-0.00788069 0.036395 -0.999306 
-0.00510133 0.025725 -0.999656 
-0.00267833 0.0182883 -0.999829 
-0.00185971 0.0124031 -0.999921 
-0.000914729 0.00859911 -0.999963 
-0.000413239 0.00570432 -0.999984 
-4.40515e-05 0.00351536 -0.999994 
0.000178402 0.00182964 -0.999998 
0.000358808 0.000713769 -1 
0.000450126 -9.32734e-05 -1 
0.000482258 -0.000710132 -1 
0.000452213 -0.0011767 -0.999999 
0.000383058 -0.00151546 -0.999999 
0.000278751 -0.00176592 -0.999998 
0.000165707 -0.00194669 -0.999998 
6.05844e-05 -0.00205737 -0.999998 
-2.35474e-05 -0.00213422 -0.999998 
-7.39991e-05 -0.00216883 -0.999998 
-8.82622e-05 -0.00216956 -0.999998 
-7.43804e-05 -0.00214829 -0.999998 
-3.59089e-05 -0.00210305 -0.999998 
7.61547e-06 -0.0020462 -0.999998 
4.06458e-05 -0.00197309 -0.999998 
7.19206e-05 -0.00189311 -0.999998 
7.99172e-05 -0.00180672 -0.999998 
9.68473e-05 -0.00171478 -0.999999 
8.49325e-05 -0.00163402 -0.999999 
8.45387e-05 -0.00155435 -0.999999 
6.94055e-05 -0.00146973 -0.999999 
6.76697e-05 -0.000437111 -1 
-0.00011436 -0.000398336 1 
-0.000108181 -0.00143528 0.999999 
-0.000101798 -0.00151474 0.999999 
-0.000114488 -0.0015985 0.999999 
-0.00011331 -0.00171127 0.999999 
-0.000125183 -0.0017987 0.999998 
-0.000106887 -0.00188859 0.999998 
-8.07279e-05 -0.00196398 0.999998 
-3.86034e-05 -0.00203083 0.999998 
-2.54746e-06 -0.00207471 0.999998 
3.15298e-05 -0.00210348 0.999998 
5.68124e-05 -0.00212097 0.999998 
4.77375e-05 -0.00211323 0.999998 
5.4605e-06 -0.00208532 0.999998 
-6.21814e-05 -0.00203711 0.999998 
-0.000149872 -0.00194749 0.999998 
-0.000235307 -0.00182749 0.999998 
-0.000311667 -0.00164046 0.999999 
-0.000357477 -0.00138894 0.999999 
-0.0003609 -0.00104197 0.999999 
-0.000316607 -0.000561482 1 
-0.000207029 0.000128393 1 
-1.47595e-05 0.00109331 0.999999 
0.000290861 0.00240426 0.999997 
0.000784918 0.00409702 0.999991 
0.00150504 0.0064032 0.999978 
0.00251819 0.00954155 0.999951 
0.00408742 0.0134798 0.999901 
0.00677507 0.0183819 0.999808 
0.0107737 0.0248951 0.999632 
0.017249 0.0330802 0.999304 
0.0305325 0.0419853 0.998652 
0.0490925 0.0456144 0.997752 
0.0683344 0.0337819 0.99709 
0.107805 0.0411168 0.993321 
0.176991 0.0641096 0.982122 
0.212249 0.161833 0.963722 
0.263403 0.337743 0.903631 
0.254105 0.580328 0.773725 
0.0961671 0.926479 0.363852 
-0.150835 0.71486 -0.682806 
-0.285776 0.50442 -0.814796 
-0.229572 0.195347 -0.953486 
-0.146295 0.0535846 -0.987789 
-0.105923 0.0651042 -0.992241 
-0.0750256 0.0418053 -0.996305 
-0.0496784 0.0400168 -0.997963 
-0.0315319 0.0400046 -0.998702 
-0.0177581 0.0361478 -0.999189 
-0.0114331 0.0295915 -0.999497 
-0.0077564 0.0212845 -0.999743 
-0.00469253 0.016661 -0.99985 
-0.00341973 0.0116438 -0.999926 
-0.00194139 0.00829652 -0.999964 
-0.00109574 0.00555515 -0.999984 
-0.000506172 0.00349586 -0.999994 
-0.000129462 0.001979 -0.999998 
0.000148779 0.000799645 -1 
0.00030976 9.57208e-06 -1 
0.000399671 -0.00057763 -1 
0.000418598 -0.00102538 -0.999999 
0.000375669 -0.00137976 -0.999999 
0.000296626 -0.00163082 -0.999999 
0.0001893 -0.00182533 -0.999998 
9.03451e-05 -0.00195019 -0.999998 
2.97512e-06 -0.00204321 -0.999998 
-5.02313e-05 -0.00209599 -0.999998 
-6.65259e-05 -0.00211739 -0.999998 
-5.07618e-05 -0.00211478 -0.999998 
-1.25432e-05 -0.00209001 -0.999998 
3.61748e-05 -0.0020441 -0.999998 
7.07207e-05 -0.00198574 -0.999998 
0.00010092 -0.00189972 -0.999998 
0.000112383 -0.00180375 -0.999998 
0.00011929 -0.00170612 -0.999999 
0.000106653 -0.00161901 -0.999999 
9.77714e-05 -0.00153662 -0.999999 
8.33493e-05 -0.00145992 -0.999999 
7.45887e-05 -0.000376203 -1 
-0.000107459 -0.000425829 1 
-0.000106593 -0.00144519 0.999999 
-0.000113563 -0.00152362 0.999999 
-0.000123971 -0.00159594 0.999999 
-0.00012984 -0.0016866 0.999999 
-0.000139271 -0.00180334 0.999998 
-0.000127129 -0.00190273 0.999998 
-0.0001064 -0.0019803 0.999998 
-6.58051e-05 -0.00202974 0.999998 
-3.32931e-05 -0.00205512 0.999998 
1.17347e-05 -0.00208159 0.999998 
3.46143e-05 -0.00207739 0.999998 
2.7561e-05 -0.00205605 0.999998 
-1.137e-05 -0.00201548 0.999998 
-7.56387e-05 -0.00196578 0.999998 
-0.000153088 -0.00187268 0.999998 
-0.000231207 -0.0017598 0.999998 
-0.000290132 -0.00158815 0.999999 
-0.000319736 -0.00136237 0.999999 
-0.000305814 -0.00105178 0.999999 
-0.000240725 -0.000609087 1 
-0.000103546 1.02931e-05 1 
0.00012612 0.000867983 1 
0.000490328 0.00202922 0.999998 
0.00109167 0.0035628 0.999993 
0.00200905 0.0056212 0.999982 
0.00329903 0.00816654 0.999961 
0.00517804 0.011205 0.999924 
0.0080053 0.0144067 0.999864 
0.012265 0.0188457 0.999747 
0.0198872 0.0258553 0.999468 
0.0307523 0.0275426 0.999147 
0.043114 0.0233341 0.998798 
0.0691656 0.00891412 0.997565 
0.107083 0.00376693 0.994243 
0.168981 0.0176157 0.985462 
0.274295 0.186576 0.943373 
0.369096 0.367432 0.853676 
0.224793 0.793014 0.566213 
-0.0455104 0.997156 -0.0600667 
-0.269322 0.7374 -0.619441 
-0.367944 0.267225 -0.890622 
-0.214562 0.0861441 -0.972904 
-0.159328 0.0109409 -0.987165 
-0.1023 0.015439 -0.994634 
-0.0645338 0.0154524 -0.997796 
-0.0433137 0.0187905 -0.998885 
-0.0316812 0.0259934 -0.99916 
-0.0211588 0.0276296 -0.999394 
-0.0134401 0.0222658 -0.999662 
-0.00906429 0.0165566 -0.999822 
-0.00584716 0.0131144 -0.999897 
-0.00352055 0.00879692 -0.999955 
-0.00212565 0.00625463 -0.999978 
-0.00118852 0.00409271 -0.999991 
-0.000592963 0.00250094 -0.999997 
-0.000169646 0.00128794 -0.999999 