# vtk DataFile Version 3.0 
Exported using Morpho https://github.com/Morpho-lang/morpho 
ASCII 
DATASET UNSTRUCTURED_GRID 

POINTS 1978 float 
-8.48528 -2.82843 4.76204e-09 
-8.25887 -2.82843 1.21462e-08 
-8.03421 -2.82843 -4.59503e-09 
-7.76522 -2.82843 -9.53809e-09 
-7.4726 -2.82843 -8.05583e-09 
-7.23404 -2.82843 9.13016e-10 
-6.99464 -2.82843 2.4489e-09 
-6.77124 -2.82843 1.12923e-10 
-6.56146 -2.82843 3.76512e-10 
-6.3393 -2.82843 1.20996e-09 
-6.14434 -2.82843 3.79269e-10 
-5.92498 -2.82843 5.2083e-10 
-5.71374 -2.82843 4.25173e-10 
-5.51124 -2.82843 4.08789e-10 
-5.29515 -2.82843 3.92103e-10 
-5.08461 -2.82843 -3.13871e-11 
-4.86858 -2.82843 5.61855e-12 
-4.66107 -2.82843 -1.09186e-10 
-4.44163 -2.82843 -3.09432e-10 
-4.22156 -2.82843 -3.67558e-10 
-4.00359 -2.82843 -5.68535e-10 
-3.79183 -2.82843 -6.97574e-10 
-3.57643 -2.82843 -1.08569e-09 
-3.3646 -2.82843 -1.17668e-09 
-3.14435 -2.82843 -1.68674e-09 
-2.93526 -2.82843 -2.55294e-09 
-2.72718 -2.82843 -3.67535e-09 
-2.53418 -2.82843 -4.01638e-09 
-2.31879 -2.82843 -4.89515e-09 
-2.1102 -2.82843 -5.48107e-09 
-1.8992 -2.82843 -7.39601e-09 
-1.6945 -2.82843 -7.41283e-09 
-1.49601 -2.82843 -7.17167e-09 
-1.27782 -2.82843 -6.90453e-09 
-1.10305 -2.82843 5.57737e-09 
-0.844213 -2.82843 1.60773e-09 
-0.622448 -2.82843 5.07905e-09 
-0.449672 -2.82843 -1.72865e-08 
-0.213971 -2.82843 2.85654e-08 
0.0366973 -2.82843 2.70441e-08 
0.222573 -2.82843 -2.85187e-08 
0.419155 -2.82843 -1.35066e-09 
0.633607 -2.82843 -7.22526e-09 
0.860369 -2.82843 -7.62558e-09 
1.06754 -2.82843 1.38671e-09 
1.25991 -2.82843 6.51504e-09 
1.44726 -2.82843 4.39618e-09 
1.70026 -2.82843 7.30411e-09 
1.89017 -2.82843 6.58331e-09 
2.10073 -2.82843 5.66203e-09 
2.32862 -2.82843 4.70706e-09 
2.51596 -2.82843 3.94721e-09 
2.74008 -2.82843 2.38654e-09 
2.9615 -2.82843 1.88633e-09 
3.17007 -2.82843 2.11938e-09 
3.37516 -2.82843 1.39442e-09 
3.60145 -2.82843 9.21199e-10 
3.80375 -2.82843 8.65458e-10 
4.0196 -2.82843 4.36837e-10 
4.24792 -2.82843 2.61923e-10 
4.44776 -2.82843 2.58072e-10 
4.66116 -2.82843 2.17753e-10 
4.86925 -2.82843 -9.33876e-11 
5.0744 -2.82843 -7.49731e-11 
5.28845 -2.82843 -1.47361e-10 
5.50042 -2.82843 -4.44713e-10 
5.70413 -2.82843 -3.02013e-10 
5.92258 -2.82843 -5.12484e-10 
6.14474 -2.82843 -6.34939e-10 
6.34461 -2.82843 -2.46325e-10 
6.58196 -2.82843 -6.78273e-10 
6.79425 -2.82843 -1.58565e-09 
6.99349 -2.82843 7.07467e-11 
7.25295 -2.82843 -7.36263e-11 
7.48305 -2.82843 1.56829e-10 
7.72249 -2.82843 2.29048e-09 
7.98976 -2.82843 5.77171e-09 
8.17537 -2.82843 -4.78933e-09 
8.48528 -2.82843 -5.83542e-09 
-8.48528 -2.5906 -8.29117e-09 
-8.24988 -2.57751 2.04411e-09 
-8.00967 -2.58501 -6.23344e-09 
-7.77174 -2.61911 -1.95268e-09 
-7.51584 -2.64142 -1.23971e-09 
-7.22494 -2.6003 -2.5718e-09 
-6.98646 -2.59029 -3.14707e-09 
-6.77313 -2.5808 -1.97049e-09 
-6.53765 -2.60096 -2.27539e-09 
-6.33207 -2.56587 -2.04318e-09 
-6.10844 -2.59818 -1.45107e-09 
-5.89207 -2.58616 -1.25902e-09 
-5.68248 -2.57359 -1.05121e-09 
-5.46486 -2.59047 -7.17329e-10 
-5.24953 -2.58393 -5.71674e-10 
-5.03148 -2.5902 -3.3642e-10 
-4.82021 -2.58001 -1.35777e-10 
-4.60124 -2.59293 1.31648e-10 
-4.37979 -2.5924 3.51511e-10 
-4.16053 -2.5886 6.5498e-10 
-3.94806 -2.57997 1.04688e-09 
-3.7346 -2.58427 1.48202e-09 
-3.52243 -2.58319 2.10057e-09 
-3.30563 -2.59646 2.51163e-09 
-3.09393 -2.59073 3.4899e-09 
-2.8837 -2.59588 4.25796e-09 
-2.68531 -2.58498 5.57669e-09 
-2.47566 -2.61271 5.77184e-09 
-2.25873 -2.60378 6.40682e-09 
-2.0486 -2.60501 6.88187e-09 
-1.83452 -2.59478 7.86614e-09 
-1.62692 -2.58291 6.59257e-09 
-1.41914 -2.59897 7.60767e-09 
-1.23435 -2.52243 -4.94743e-10 
-1.00419 -2.6296 5.69608e-09 
-0.765348 -2.58137 1.31551e-09 
-0.587286 -2.4658 -1.00009e-08 
-0.392673 -2.50538 -1.08669e-08 
-0.185418 -2.54289 -2.08256e-08 
0.0101959 -2.49184 1.07663e-09 
0.198647 -2.42161 3.03781e-08 
0.38206 -2.50942 2.17804e-09 
0.587185 -2.56244 -8.48822e-09 
0.821776 -2.5892 -1.47737e-09 
1.05396 -2.57259 -1.44516e-09 
1.2638 -2.56768 -6.71568e-10 
1.51392 -2.64549 -4.36395e-09 
1.72923 -2.58739 -9.11184e-09 
1.94057 -2.61199 -4.64888e-09 
2.16967 -2.62683 -6.23331e-09 
2.37392 -2.57787 -7.29174e-09 
2.58253 -2.61231 -4.27001e-09 
2.80693 -2.60728 -4.67787e-09 
3.01351 -2.58868 -3.7942e-09 
3.21952 -2.57987 -2.94914e-09 
3.44027 -2.60194 -2.16927e-09 
3.64638 -2.57275 -1.82729e-09 
3.86025 -2.58757 -1.14243e-09 
4.08812 -2.60124 -7.56163e-10 
4.29725 -2.56936 -5.6662e-10 
4.51222 -2.58818 -1.80081e-10 
4.72584 -2.58312 9.94817e-12 
4.93866 -2.58135 2.63021e-10 
5.15312 -2.59209 4.49042e-10 
5.37169 -2.58931 6.52778e-10 
5.58306 -2.57843 9.56832e-10 
5.79905 -2.59369 1.09369e-09 
6.02429 -2.59533 1.30663e-09 
6.23791 -2.56631 1.88195e-09 
6.45751 -2.60638 1.75887e-09 
6.68452 -2.57772 2.60829e-09 
6.89272 -2.55923 3.41316e-09 
7.11807 -2.62139 2.27828e-09 
7.36651 -2.59237 3.32482e-09 
7.60218 -2.60011 3.00053e-09 
7.85697 -2.62281 3.34786e-09 
8.06881 -2.52735 6.3861e-09 
8.29667 -2.64039 -2.37228e-09 
8.48528 -2.52014 3.0552e-09 
-8.48528 -2.34972 -4.48248e-09 
-8.22405 -2.34981 -5.88278e-10 
-7.98633 -2.33557 -7.42982e-09 
-7.75323 -2.39619 -5.52585e-09 
-7.55883 -2.24757 -4.74681e-09 
-7.45733 -2.4539 -5.16982e-09 
-7.17483 -2.38294 -5.26755e-09 
-6.94795 -2.33506 -4.67545e-09 
-6.7031 -2.37008 -3.34213e-09 
-6.48789 -2.34521 -2.98893e-09 
-6.23889 -2.3505 -2.32725e-09 
-6.02549 -2.35487 -1.84066e-09 
-5.80837 -2.33671 -1.44459e-09 
-5.57988 -2.34453 -1.19031e-09 
-5.36495 -2.34852 -9.01733e-10 
-5.1413 -2.35181 -5.95795e-10 
-4.92765 -2.34145 -2.81385e-10 
-4.70458 -2.35293 -4.0783e-12 
-4.48425 -2.35974 3.36163e-10 
-4.26284 -2.35437 7.3749e-10 
-4.04727 -2.33912 1.17966e-09 
-3.83116 -2.33925 1.68964e-09 
-3.61836 -2.34133 2.38438e-09 
-3.40073 -2.35633 3.21414e-09 
-3.18977 -2.35797 4.25253e-09 
-2.97531 -2.36285 5.27305e-09 
-2.77111 -2.34897 6.38268e-09 
-2.56012 -2.37537 8.12322e-09 
-2.35253 -2.39434 9.61297e-09 
-2.12752 -2.37366 1.03638e-08 
-1.91548 -2.37678 1.11029e-08 
-1.69059 -2.35196 8.8096e-09 
-1.4701 -2.34536 2.58628e-09 
-1.25991 -2.27184 7.84002e-09 
-1.02436 -2.39866 -4.71197e-09 
-0.835226 -2.31137 -3.48944e-09 
-0.621467 -2.20084 -3.68723e-09 
-0.396912 -2.18542 -1.0994e-08 
-0.18804 -2.19408 -1.21505e-08 
0.0185403 -2.15081 1.02103e-08 
0.256293 -2.09109 2.53335e-08 
0.458019 -2.18748 1.05851e-08 
0.652124 -2.26911 1.21445e-08 
0.834737 -2.34679 -6.61408e-09 
1.04778 -2.31669 6.76492e-09 
1.26553 -2.31901 -6.68725e-10 
1.47357 -2.43188 -5.15066e-09 
1.66218 -2.35489 -9.84244e-09 
1.88293 -2.37608 -1.15053e-08 
2.09174 -2.41487 -1.0319e-08 
2.29931 -2.36882 -1.03544e-08 
2.53347 -2.36977 -8.12627e-09 
2.73813 -2.39345 -6.57327e-09 
2.95394 -2.35019 -5.612e-09 
3.15606 -2.3397 -4.40623e-09 
3.374 -2.36563 -3.33658e-09 
3.57889 -2.33188 -2.56656e-09 
3.79224 -2.34112 -1.85978e-09 
4.00917 -2.36845 -1.27941e-09 
4.21894 -2.33219 -8.04749e-10 
4.44098 -2.34217 -4.13256e-10 
4.65126 -2.34204 -7.82736e-11 
4.86484 -2.34255 2.24595e-10 
5.08214 -2.34874 4.87466e-10 
5.29428 -2.35754 7.89118e-10 
5.5103 -2.33999 1.08119e-09 
5.72916 -2.35034 1.39998e-09 
5.94597 -2.3646 1.74185e-09 
6.16199 -2.33258 2.18359e-09 
6.39501 -2.35402 2.63471e-09 
6.60489 -2.35405 3.26107e-09 
6.82832 -2.30787 3.74253e-09 
7.05766 -2.36562 4.75258e-09 
7.27468 -2.38742 5.51119e-09 
7.53194 -2.36466 5.41501e-09 
7.77405 -2.39832 5.68514e-09 
7.98956 -2.30187 6.64482e-09 
8.25535 -2.36511 -1.07231e-09 
8.48528 -2.27346 2.9191e-09 
-8.48528 -2.08598 -1.99033e-09 
-8.26708 -2.12164 1.40322e-09 
-8.03463 -2.08792 -2.44037e-09 
-7.78835 -2.1408 -2.5961e-09 
-7.51405 -2.02967 -8.72493e-10 
-7.30848 -2.22094 -3.697e-09 
-7.06416 -2.11934 -2.57821e-09 
-6.80186 -2.13514 -2.37075e-09 
-6.59113 -2.11469 -1.97284e-09 
-6.35103 -2.14023 -1.64202e-09 
-6.12114 -2.10492 -1.22161e-09 
-5.91592 -2.10502 -9.8775e-10 
-5.68847 -2.11497 -7.75588e-10 
-5.46773 -2.10522 -5.64395e-10 
-5.25136 -2.11975 -3.94131e-10 
-5.03808 -2.10623 -1.78528e-10 
-4.81591 -2.11685 -1.38686e-11 
-4.59713 -2.1238 1.72862e-10 
-4.38037 -2.12448 3.98678e-10 
-4.16759 -2.10794 6.27809e-10 
-3.95123 -2.10054 8.98045e-10 
-3.73867 -2.10043 1.25588e-09 
-3.52302 -2.11508 1.70116e-09 
-3.31416 -2.12068 2.22206e-09 
-3.10233 -2.13058 2.86584e-09 
-2.89849 -2.12173 3.4463e-09 
-2.68299 -2.12995 4.27252e-09 
-2.47739 -2.15069 5.19458e-09 
-2.26809 -2.17271 6.45865e-09 
-2.04082 -2.13769 5.77515e-09 
-1.82455 -2.1472 5.66166e-09 
-1.59419 -2.11437 3.01493e-09 
-1.3928 -2.06233 -5.01e-09 
-1.16542 -1.94983 5.28853e-09 
-1.0718 -2.13971 -1.28652e-08 
-0.833668 -2.05828 5.16571e-09 
-0.589805 -1.92815 -2.27701e-08 
-0.351207 -1.90546 7.2313e-09 
-0.105948 -1.86434 5.82097e-09 
0.0791652 -1.56662 1.32721e-08 
0.144138 -1.86143 -1.11138e-08 
0.336059 -1.67154 -1.23023e-08 
0.498857 -1.88847 -6.53541e-09 
0.727919 -1.98554 4.26796e-09 
0.941578 -2.06109 6.54612e-09 
1.17522 -2.07212 -1.39862e-09 
1.44046 -2.16753 -4.8736e-09 
1.66297 -2.12027 -2.86526e-09 
1.88291 -2.15092 -4.27425e-09 
2.10822 -2.18151 -6.90161e-09 
2.35693 -2.16835 -6.01172e-09 
2.57725 -2.13608 -4.86885e-09 
2.7807 -2.15789 -4.92823e-09 
2.98529 -2.09989 -2.84301e-09 
3.20732 -2.12002 -2.54197e-09 
3.407 -2.11533 -2.05341e-09 
3.62211 -2.0956 -1.39981e-09 
3.8399 -2.11321 -1.12e-09 
4.0427 -2.11866 -7.98334e-10 
4.27126 -2.10464 -4.91277e-10 
4.48228 -2.09971 -2.7048e-10 
4.69699 -2.1037 -5.56248e-11 
4.91474 -2.11133 1.10388e-10 
5.12876 -2.11083 2.72659e-10 
5.34071 -2.1203 4.71451e-10 
5.56447 -2.11008 6.27024e-10 
5.78213 -2.11748 8.41357e-10 
5.99237 -2.11968 1.08259e-09 
6.2334 -2.11627 1.2849e-09 
6.44429 -2.10265 1.56911e-09 
6.65653 -2.10695 1.95628e-09 
6.912 -2.09668 2.11428e-09 
7.12668 -2.12641 2.5917e-09 
7.35626 -2.17159 3.01707e-09 
7.5475 -2.07589 1.22867e-09 
7.73167 -2.16478 3.11753e-09 
7.94988 -2.0692 1.94559e-09 
8.2014 -2.14001 9.84123e-10 
8.48528 -2.07505 6.57145e-09 
-8.48528 -1.8054 -5.83171e-10 
-8.2836 -1.87056 1.48229e-09 
-7.88109 -1.89645 -3.96641e-10 
[...]
POINT_DATA 1978 
VECTORS vectors float
0.00482519 -0.00542921 0.999974 
0.0047935 -0.0678067 0.997686 
0.00597092 -0.097512 0.995218 
0.00766188 -0.0941949 0.995527 
0.0070565 -0.077136 0.996998 
0.00547257 -0.0634985 0.997968 
0.00477289 -0.0503937 0.998719 
0.00464382 -0.0414134 0.999132 
0.00445919 -0.0335141 0.999429 
0.00438578 -0.0266647 0.999636 
0.00437414 -0.0213035 0.999764 
0.00435565 -0.0165731 0.999854 
0.00448264 -0.0127135 0.99991 
0.00443318 -0.00964352 0.999945 
0.00453667 -0.00728642 0.999964 
0.00456348 -0.00541372 0.999976 
0.00459049 -0.0035596 0.999984 
0.00467389 -0.0014793 0.999989 
0.00475808 0.00108445 0.999989 
0.00475383 0.00433038 0.99998 
0.00462814 0.00852853 0.999954 
0.00448282 0.0137375 0.999896 
0.00450043 0.0205377 0.99978 
0.0044456 0.0291856 0.999565 
0.00431113 0.0410762 0.999147 
0.00395872 0.0560133 0.998423 
0.00379905 0.0755625 0.997135 
0.00361633 0.0986371 0.995118 
0.00347091 0.131221 0.991348 
0.00323397 0.171268 0.98522 
0.00280178 0.222451 0.97494 
0.00237458 0.284206 0.958761 
0.00176928 0.357626 0.933863 
0.00138864 0.454719 0.890634 
0.000936836 0.543399 0.839474 
0.000473281 0.683634 0.729825 
-3.11108e-05 0.804764 0.593594 
-0.000220797 0.887713 0.460396 
-0.000147976 0.974627 0.223836 
-2.18539e-05 0.998984 -0.0450565 
0.000195838 0.970738 -0.240142 
7.72312e-05 0.903229 -0.429159 
-4.94553e-05 0.800517 -0.59931 
-0.000345259 0.675415 -0.737438 
-0.000755767 0.559637 -0.828738 
-0.00145133 0.461036 -0.88738 
-0.00201176 0.374563 -0.927199 
-0.00266419 0.28252 -0.959258 
-0.00307409 0.225913 -0.974143 
-0.0031759 0.174523 -0.984648 
-0.00365041 0.13063 -0.991425 
-0.00394246 0.101449 -0.994834 
-0.00410161 0.0747966 -0.997191 
-0.00424358 0.0545122 -0.998505 
-0.00432142 0.0395628 -0.999209 
-0.00429086 0.028566 -0.999583 
-0.00443425 0.0196663 -0.999798 
-0.00465187 0.0134178 -0.9999 
-0.00458377 0.00854324 -0.999954 
-0.00463353 0.00451453 -0.99998 
-0.00448335 0.00141356 -0.99999 
-0.00429117 -0.00123143 -0.999991 
-0.00444006 -0.00350233 -0.999985 
-0.00445742 -0.00553515 -0.999976 
-0.00440817 -0.00761675 -0.999962 
-0.00451484 -0.0100971 -0.99994 
-0.00457779 -0.0129924 -0.999906 
-0.00450798 -0.016702 -0.999851 
-0.00473919 -0.0214164 -0.99976 
-0.0047176 -0.0266481 -0.999635 
-0.00448639 -0.0337316 -0.999422 
-0.00477743 -0.0415804 -0.999125 
-0.00497056 -0.0504614 -0.998715 
-0.0054473 -0.0640976 -0.99793 
-0.00566298 -0.079245 -0.99684 
-0.00551824 -0.095423 -0.995423 
-0.00613173 -0.105498 -0.994402 
-0.00525191 -0.0872068 -0.996176 
-0.00506881 -0.00597922 -0.999969 
-0.000330054 -0.00433288 0.999993 
0.015592 -0.0604693 0.998047 
0.0319042 -0.0869067 0.995705 
0.0325846 -0.0903617 0.995375 
0.0309433 -0.0785422 0.99643 
0.0371457 -0.0617387 0.9974 
0.040456 -0.0502935 0.997914 
0.0419334 -0.0412057 0.99827 
0.0416855 -0.0329752 0.998586 
0.0472843 -0.0265769 0.998528 
0.0428076 -0.0205196 0.998872 
0.0450684 -0.0159836 0.998856 
0.0477232 -0.0125146 0.998782 
0.0456275 -0.00947505 0.998913 
0.0470115 -0.00704927 0.998869 
0.046345 -0.00491814 0.998913 
0.0479486 -0.00283537 0.998845 
0.0457074 -0.000425369 0.998954 
0.0453985 0.00255473 0.998965 
0.0455972 0.00626654 0.99894 
0.0461401 0.0108594 0.998876 
0.0447775 0.016672 0.998858 
0.0441758 0.0241177 0.998732 
0.0411831 0.0339182 0.998575 
0.0410386 0.0466811 0.998066 
0.0389076 0.063093 0.997249 
0.0384017 0.083251 0.995788 
0.0324031 0.109621 0.993445 
0.0299201 0.145147 0.988957 
0.0259314 0.188802 0.981673 
0.0224324 0.244958 0.969274 
0.0181089 0.312967 0.949591 
0.0126026 0.39491 0.918633 
0.0101016 0.481279 0.876509 
0.0042486 0.598406 0.801181 
0.00115424 0.730354 0.683068 
-0.000732787 0.828126 0.560541 
-0.00112689 0.915902 0.401399 
-0.00103698 0.978061 0.208315 
-0.00136418 0.999999 -0.000664945 
-0.00149321 0.976573 -0.21518 
-0.00134292 0.915872 -0.401469 
-0.00227353 0.822659 -0.56853 
-0.00410407 0.69903 -0.715081 
-0.00719522 0.569923 -0.821666 
-0.0109026 0.46226 -0.886677 
-0.0129187 0.351649 -0.936043 
-0.0211407 0.277555 -0.960477 
-0.0230276 0.216577 -0.975994 
-0.0262445 0.163129 -0.986255 
-0.0346765 0.126583 -0.99135 
-0.0329088 0.0959781 -0.994839 
-0.0365582 0.0706577 -0.99683 
-0.0403591 0.0526852 -0.997795 
-0.0428079 0.0389677 -0.998323 
-0.0411852 0.0274654 -0.998774 
-0.0460431 0.0196562 -0.998746 
-0.0446531 0.0132368 -0.998915 
-0.0433879 0.007972 -0.999026 
-0.0486474 0.00428821 -0.998806 
-0.0463237 0.00104735 -0.998926 
-0.0473068 -0.00167388 -0.998879 
-0.0479279 -0.00406533 -0.998842 
-0.045963 -0.00633322 -0.998923 
-0.0463616 -0.00877179 -0.998886 
-0.047604 -0.0114607 -0.9988 
-0.0445085 -0.0147293 -0.9989 
-0.0437653 -0.0189676 -0.998861 
-0.0471378 -0.0238336 -0.998604 
-0.0403673 -0.0298397 -0.998739 
-0.0440162 -0.0373892 -0.998331 
-0.0453185 -0.0457331 -0.997925 
-0.0353782 -0.0566072 -0.997769 
-0.0387737 -0.0708109 -0.996736 
-0.0366126 -0.0849099 -0.995715 
-0.0328486 -0.0962315 -0.994816 
-0.0348836 -0.0839812 -0.995856 
-0.00959305 -0.0520436 -0.998596 
-0.00138969 -0.0061021 -0.999983 
0.00154774 -0.00568951 0.999984 
0.0271754 -0.0604376 0.997801 
0.0499927 -0.0845892 0.995161 
0.0528042 -0.0859829 0.994896 
0.0615939 -0.0793397 0.994943 
0.0517069 -0.074363 0.99589 
0.0596881 -0.0593191 0.996453 
0.0641174 -0.0483227 0.996772 
0.0633969 -0.0384638 0.997247 
0.0665098 -0.0310003 0.997304 
0.0672603 -0.023904 0.997449 
0.0677877 -0.0189647 0.997519 
0.0697108 -0.0149517 0.997455 
0.0701513 -0.0113776 0.997471 
0.0705394 -0.00859187 0.997472 
0.0709232 -0.00611933 0.997463 
0.0717266 -0.00383257 0.997417 
0.0710787 -0.00124392 0.99747 
0.0702827 0.0017038 0.997526 
0.0698109 0.00531119 0.997546 
0.0695303 0.00974058 0.997532 
0.068233 0.0152561 0.997553 
0.0668738 0.0221618 0.997515 
0.0646219 0.0311947 0.997422 
0.0628087 0.0427185 0.997111 
0.0602007 0.0579765 0.996501 
0.0579382 0.0769477 0.99535 
0.0533094 0.101442 0.993412 
0.0478483 0.132184 0.99007 
0.0423814 0.175551 0.983558 
0.0356598 0.227132 0.973211 
0.0281287 0.297426 0.95433 
0.0199103 0.380707 0.924481 
0.0133845 0.475001 0.879884 
0.00657135 0.586496 0.809926 
0.00226855 0.695266 0.718749 
-0.00132234 0.818066 0.575123 
-0.0023835 0.921491 0.388393 
-0.00283518 0.979367 0.202069 
-0.00249154 0.999893 -0.014427 
-0.00227943 0.964434 -0.264314 
-0.00275682 0.892451 -0.451136 
-0.0041885 0.794902 -0.606724 
-0.00649169 0.695684 -0.718319 
-0.0106459 0.57834 -0.815727 
-0.0160875 0.466166 -0.884551 
-0.020762 0.373276 -0.927488 
-0.0288508 0.305044 -0.951901 
-0.0354869 0.236119 -0.971076 
-0.0403229 0.183433 -0.982205 
-0.0478134 0.142471 -0.988643 
-0.0523778 0.105759 -0.993011 
-0.0550448 0.0803904 -0.995242 
-0.0601807 0.0599294 -0.996387 
-0.0631117 0.0450738 -0.996988 
-0.0638138 0.0324475 -0.997434 
-0.067355 0.0237957 -0.997445 
-0.0682729 0.0165424 -0.997529 
-0.0678162 0.0107063 -0.99764 
-0.0709308 0.00651292 -0.99746 
-0.0710078 0.00268476 -0.997472 
-0.0714521 -0.000360414 -0.997444 
-0.0718399 -0.00308355 -0.997411 
-0.0714555 -0.00564753 -0.997428 
-0.0706394 -0.00808941 -0.997469 
-0.0710782 -0.0108027 -0.997412 
-0.0697324 -0.0139285 -0.997468 
-0.067898 -0.0176268 -0.997536 
-0.0687842 -0.022167 -0.997385 
-0.0662521 -0.0280448 -0.997409 
-0.0650995 -0.0345085 -0.997282 
-0.0657943 -0.0430074 -0.996906 
-0.0619519 -0.0535425 -0.996642 
-0.0593971 -0.0652435 -0.9961 
-0.0581896 -0.0793225 -0.995149 
-0.054169 -0.0894711 -0.994515 
-0.0522509 -0.0855665 -0.994961 
-0.0238284 -0.0553193 -0.998183 
-0.00219171 -0.00452938 -0.999989 
0.00397028 -0.00803017 0.999963 
0.0232168 -0.0509609 0.99843 
0.0456683 -0.0784714 0.995869 
0.056633 -0.0852255 0.994751 
0.0591647 -0.0778614 0.995207 
0.0637763 -0.0668802 0.995721 
0.0648335 -0.0540314 0.996432 
0.0670612 -0.0420825 0.996861 
0.0684197 -0.0342632 0.997068 
0.0699269 -0.0269242 0.997189 
0.0706479 -0.021389 0.997272 
0.0716659 -0.0172929 0.997279 
0.0726588 -0.0134884 0.997266 
0.0732722 -0.0104199 0.997258 
0.0741727 -0.00772352 0.997215 
0.0743825 -0.00523654 0.997216 
0.0746558 -0.00247032 0.997206 
0.0745249 0.000547909 0.997219 
0.0739334 0.00402152 0.997255 
0.0727374 0.00818816 0.997317 
0.0713543 0.0133674 0.997361 
0.0698417 0.0196717 0.997364 
0.0682704 0.02772 0.997282 
0.0663298 0.0378229 0.997081 
0.0640251 0.0510149 0.996643 
0.0609245 0.0675365 0.995855 
0.0571564 0.0897088 0.994327 
0.052895 0.116698 0.991758 
0.0476187 0.15139 0.987326 
0.0398708 0.201024 0.978775 
0.0325273 0.260297 0.96498 
0.0234558 0.340425 0.939979 
0.0155437 0.42278 0.906099 
0.00743352 0.53209 0.846655 
0.00659312 0.574526 0.81846 
0.000918731 0.70323 0.710962 
-0.00253787 0.823477 0.567344 
-0.00327483 0.926986 0.375082 
-0.00326265 0.993851 0.110673 
-0.000704629 0.996146 -0.0877118 
-0.00308559 0.985973 -0.166876 
-0.000919961 0.936038 -0.351899 
-0.00238989 0.867584 -0.497285 
-0.00393471 0.750418 -0.660951 
-0.0076707 0.634093 -0.773219 
-0.012639 0.510926 -0.859532 
-0.0209267 0.390774 -0.920249 
-0.0276528 0.311582 -0.949817 
-0.0351736 0.242736 -0.969454 
-0.0427685 0.183987 -0.981998 
-0.0498604 0.135376 -0.989539 
-0.0547593 0.102885 -0.993185 
-0.0592736 0.0783614 -0.995161 
-0.0615376 0.0604384 -0.996273 
-0.065126 0.0441725 -0.996899 
-0.067303 0.0330911 -0.997184 
-0.0689767 0.023965 -0.99733 
-0.0710055 0.0165477 -0.997339 
-0.0722891 0.0111758 -0.997321 
-0.0732539 0.00632541 -0.997293 
-0.0738705 0.00257949 -0.997264 
-0.0743798 -0.000708066 -0.99723 
-0.0746646 -0.00369756 -0.997202 
-0.0744712 -0.00642289 -0.997202 
-0.0741425 -0.0090409 -0.997207 
-0.0732848 -0.0120103 -0.997239 
-0.0725219 -0.0152489 -0.99725 
-0.0715397 -0.0189515 -0.997258 
-0.0703813 -0.0241436 -0.997228 
-0.0689719 -0.0297343 -0.997175 
-0.0677656 -0.036575 -0.997031 
-0.0660255 -0.0469677 -0.996712 
-0.0648641 -0.0575613 -0.996233 
-0.0637139 -0.0702979 -0.995489 
-0.0605395 -0.080165 -0.994941 
-0.0596314 -0.0864446 -0.99447 
-0.0527794 -0.0856544 -0.994926 
-0.0340699 -0.0620457 -0.997491 
-0.00234015 -0.00434066 -0.999989 
0.00382806 -0.0076272 0.999966 
0.0198286 -0.0473914 0.998679 
0.0494985 -0.0871966 0.994961 
0.0532987 -0.0838901 0.995049 
0.0516682 -0.0739805 0.99592 
0.0604203 -0.0661576 0.995978 
0.0561986 -0.0588917 0.996681 
0.0613617 -0.0482066 0.996951 
0.0606252 -0.0388908 0.997403 
0.0637009 -0.0310727 0.997485 
0.0642651 -0.025137 0.997616 
0.0631733 -0.0204221 0.997794 
0.0654229 -0.0163388 0.997724 
0.0661566 -0.0129383 0.997725 
0.0667301 -0.00989744 0.997722 
0.0673167 -0.00722338 0.997706 
0.0679889 -0.00424792 0.997677 
0.0681827 -0.00110106 0.997672 
0.06794 0.00234431 0.997687 
0.0667863 0.00625687 0.997748 
0.065447 0.0110275 0.997795 
0.0638092 0.0168132 0.997821 
0.062565 0.0239236 0.997754 
0.0609187 0.0326311 0.997609 
0.0591498 0.0438167 0.997287 
0.0564514 0.0577736 0.996732 
0.0534427 0.0763839 0.995645 
0.0494169 0.100197 0.99374 
0.0454382 0.129748 0.990505 
0.0404295 0.16879 0.984823 
0.0318306 0.22684 0.973412 
0.0250867 0.292419 0.955961 
0.0160913 0.371008 0.92849 
0.00871504 0.465146 0.885191 
0.000781531 0.660124 0.751156 
-0.00221183 0.775266 0.631631 
-0.0030699 0.899086 0.437761 
-0.00273321 0.941021 0.338338 
-0.00247254 0.975553 0.21975 
-0.00041234 0.994756 0.102278 
-0.000889263 0.984007 -0.178126 
-1.43054e-05 0.923353 -0.383952 
-0.000611936 0.822945 -0.568122 
-0.00219694 0.721075 -0.692854 
-0.00553458 0.59784 -0.801597 
-0.00770126 0.506734 -0.862068 
-0.0152499 0.429912 -0.902742 
-0.0206515 0.345514 -0.938186 
-0.0276518 0.268754 -0.962812 
-0.0355225 0.207896 -0.977506 
-0.0425235 0.158795 -0.986395 
-0.0470849 0.121165 -0.991515 
-0.0513231 0.0897661 -0.99464 
-0.0536354 0.0705051 -0.996068 
-0.0576929 0.0514178 -0.997009 
-0.0594643 0.038546 -0.997486 
-0.0615219 0.0287123 -0.997693 
-0.0637422 0.020185 -0.997762 
-0.0648055 0.0139902 -0.9978 
-0.0667654 0.00884143 -0.99773 
-0.0664352 0.00434673 -0.997781 
-0.0671954 0.000577687 -0.99774 
-0.067707 -0.00281752 -0.997701 
-0.0675498 -0.00584766 -0.997699 
-0.0672908 -0.00875497 -0.997695 
-0.0670127 -0.0115545 -0.997685 
-0.0659136 -0.0148486 -0.997715 
-0.0647996 -0.0184433 -0.997728 
-0.0649019 -0.0227125 -0.997633 
-0.0620507 -0.0283663 -0.99767 
-0.0608966 -0.0349051 -0.997534 
-0.0610861 -0.0431841 -0.997198 
-0.0583573 -0.0551002 -0.996774 
-0.0587472 -0.0672057 -0.996008 
-0.0542925 -0.079616 -0.995346 
-0.0525641 -0.0871982 -0.994803 
-0.0427262 -0.0809985 -0.995798 
-0.0267969 -0.0551192 -0.998119 
-0.00352442 -0.00391303 -0.999987 
0.00265686 -0.00537095 0.999983 
0.0170328 -0.0497181 0.998617 
0.0359639 -0.0750126 0.996533 
0.0410709 -0.0882092 0.995255 
0.0447506 -0.0844575 0.995422 
0.0458662 -0.0675891 0.996658 
0.0490144 -0.0526117 0.997411 
0.0511142 -0.0440167 0.997722 
0.0523688 -0.0342491 0.99804 
0.0535086 -0.0281393 0.998171 
0.0527061 -0.0232197 0.99834 
0.0534792 -0.0184875 0.998398 
0.055135 -0.0150095 0.998366 
0.0560895 -0.0117972 0.998356 
0.0556587 -0.00884175 0.998411 
0.0572831 -0.00578184 0.998341 
0.0574939 -0.00243503 0.998343 
0.0572097 0.00120557 0.998361 
0.0561223 0.00516888 0.998411 
0.0551844 0.00981504 0.998428 
0.0538123 0.0154006 0.998432 
0.0526621 0.0222573 0.998364 
0.0511154 0.0305595 0.998225 
0.0497726 0.0410016 0.997919 
0.0473065 0.0541961 0.997409 
0.0449599 0.0714077 0.996433 
0.0413839 0.0939437 0.994717 
0.0372605 0.124041 0.991577 
0.0337151 0.161447 0.986305 
0.027992 0.2117 0.976934 
0.0187963 0.291734 0.956315 
0.0105263 0.382084 0.924068 
0.00416717 0.48764 0.873035 
-0.000704775 0.592331 0.805695 
0.00184226 0.585545 0.810638 
-0.0023102 0.700444 0.713704 
-0.00314199 0.829523 0.558464 
-0.00361238 0.878913 0.476968 
-0.00265347 0.998777 0.0493705 
0.0032209 0.996999 0.0773419 
0.00164192 0.990641 -0.136485 
2.51416e-05 0.944852 -0.327499 
0.000423157 0.858068 -0.513537 
0.000771927 0.739249 -0.673431 
-0.000434361 0.636227 -0.771502 
-0.00300176 0.520892 -0.853617 
-0.0107479 0.408258 -0.912803 
-0.0168174 0.321421 -0.946787 
-0.0236738 0.247813 -0.968519 
-0.0309727 0.191051 -0.981091 
-0.0360793 0.149169 -0.988153 
-0.0410073 0.111455 -0.992923 
-0.0408484 0.0866318 -0.995403 
-0.0465448 0.064235 -0.996849 
-0.0481827 0.0487569 -0.997648 
-0.0493911 0.0366896 -0.998105 
-0.0524816 0.0266875 -0.998265 
-0.0532974 0.0193007 -0.998392 
-0.0544815 0.0130831 -0.998429 
-0.0564921 0.00798042 -0.998371 
-0.0556064 0.00339052 -0.998447 
-0.0566436 -0.000578286 -0.998394 
-0.0564476 -0.0040473 -0.998397 
-0.0565837 -0.00728151 -0.998371 
-0.0559082 -0.0102868 -0.998383 
-0.0562323 -0.0132488 -0.99833 
-0.0545007 -0.0165871 -0.998376 
-0.0540278 -0.0204235 -0.998331 
-0.0537816 -0.0247397 -0.998246 
-0.0505245 -0.0306474 -0.998253 
-0.0501611 -0.0378966 -0.998022 
-0.0514744 -0.0470921 -0.997563 
-0.0471139 -0.0575762 -0.997229 
-0.0493203 -0.0683859 -0.996439 
-0.0446828 -0.0809618 -0.995715 
-0.0443422 -0.0881595 -0.995119 
-0.0358807 -0.0835079 -0.995861 
-0.0204991 -0.0517888 -0.998447 
-0.00297289 -0.00432488 -0.999987 
0.00172497 -0.00389 0.999992 
0.0156878 -0.0577704 0.998206 
0.0303382 -0.0808138 0.996267 
0.0331804 -0.0886887 0.995507 
0.038707 -0.0799445 0.996048 
0.0343347 -0.0699098 0.996962 
0.0393069 -0.058001 0.997542 
0.0369682 -0.0467954 0.99822 
0.042172 -0.0389508 0.998351 
0.0405652 -0.0316209 0.998676 
0.040921 -0.0265184 0.99881 
0.0426602 -0.0215528 0.998857 
0.0422064 -0.0176855 0.998952 
0.0442627 -0.0144069 0.998916 
0.044727 -0.0113718 0.998935 
0.0447455 -0.00812912 0.998965 
0.0461087 -0.00483848 0.998925 
0.0459649 -0.00120465 0.998942 
0.0449826 0.00264518 0.998984 
0.0443168 0.00705991 0.998993 
0.0436189 0.012151 0.998974 
0.0427226 0.0182464 0.99892 
0.0414566 0.0254414 0.998816 
0.0402502 0.0343958 0.998597 
0.0387204 0.0454608 0.998215 
0.0366837 0.0602218 0.997511 
0.0341975 0.0791866 0.996273 
0.0309237 0.105177 0.993973 
0.0269304 0.140244 0.989751 
0.0234691 0.183757 0.982691 
0.0183379 0.248475 0.968465 
0.0097626 0.339402 0.940591 
0.00325637 0.450324 0.892859 
-0.000787358 0.555111 0.831776 
-0.00385384 0.768451 0.639897 
-0.00346131 0.84514 0.534533 
0.000951818 0.934956 0.354761 
0.00296555 0.936741 0.350008 
-0.00143607 0.965736 0.259521 
0.00243683 0.997648 0.0684541 
-0.00142289 0.996054 -0.0887375 
-2.88168e-05 0.981574 -0.191082 
0.000872652 0.937668 -0.347522 
0.00249645 0.815193 -0.579185 
0.00229232 0.709226 -0.704977 
0.00106477 0.588604 -0.808421 
-0.00471214 0.431017 -0.902331 
-0.00936215 0.342657 -0.939414 
-0.0153176 0.26733 -0.963483 
-0.0218423 0.203336 -0.978865 
-0.0260704 0.156962 -0.98726 
-0.0311074 0.122801 -0.991944 
-0.0296411 0.101509 -0.994393 
-0.0349894 0.0748085 -0.996584 
-0.0372112 0.0572999 -0.997663 
-0.0384182 0.0432795 -0.998324 
-0.0408686 0.0316925 -0.998662 
-0.0419028 0.02344 -0.998847 
-0.043111 0.0164473 -0.998935 
-0.0442638 0.0105201 -0.998965 
-0.0452383 0.00573483 -0.99896 
-0.0450761 0.000918943 -0.998983 
-0.0449558 -0.00296071 -0.998985 
-0.0451687 -0.00659086 -0.998958 
-0.0445096 -0.00986371 -0.99896 
-0.0446006 -0.0130221 -0.99892 
-0.0436976 -0.0161436 -0.998914 
-0.0429819 -0.0198597 -0.998878 
-0.0418986 -0.0241462 -0.99883 
-0.0406662 -0.0290698 -0.99875 
-0.0392353 -0.0363772 -0.998568 
-0.0402779 -0.0455997 -0.998147 
-0.0374154 -0.0578546 -0.997624 
-0.0380167 -0.0718054 -0.996694 
-0.0336532 -0.0835667 -0.995934 
-0.0348576 -0.0894533 -0.995381 
-0.0279948 -0.0866997 -0.995841 
-0.0193657 -0.0599967 -0.99801 
-0.0019529 -0.00415522 -0.99999 
0.00152797 -0.00344669 0.999994 
0.0119777 -0.0579757 0.998246 
0.0248791 -0.0865671 0.995935 
0.0239696 -0.0907693 0.995583 
0.0294796 -0.0841395 0.996018 
0.0264063 -0.0720578 0.997051 
0.0294318 -0.0568169 0.997951 
0.0276301 -0.0453187 0.99859 
0.0315289 -0.0372209 0.99881 
0.0291529 -0.0311779 0.999089 
0.0317847 -0.0255771 0.999167 
0.0327554 -0.0212036 0.999238 
0.0322264 -0.0175548 0.999326 
0.0341957 -0.014344 0.999312 
0.0351681 -0.0110226 0.999321 
0.0347607 -0.00749526 0.999368 
0.0359063 -0.00386513 0.999348 
0.0349483 3.31433e-05 0.999389 
0.0345136 0.0044723 0.999394 
0.0341074 0.00948072 0.999373 
0.0336199 0.0152053 0.999319 
0.0326402 0.0218921 0.999227 
0.0316486 0.0300847 0.999046 
0.0303182 0.0402073 0.998731 
0.0290034 0.0532659 0.998159 
0.0268525 0.0705489 0.997147 
0.0244752 0.0935452 0.995314 
0.0212917 0.124962 0.991933 
0.0175825 0.167741 0.985674 
0.0148405 0.221457 0.975057 
0.00977118 0.292127 0.95633 
0.00365573 0.39987 0.916565 
0.000124741 0.503308 0.864107 
-0.00248124 0.633198 0.773986 
-0.00305545 0.6593 0.751874 
0.00100228 0.844372 0.535753 
0.00423898 0.97585 0.218412 
0.005534 0.997123 0.0755939 
0.00392262 0.998545 0.053781 
0.000425075 0.999774 -0.0212447 
-6.73658e-05 0.998424 -0.0561146 
-0.00187739 0.997436 -0.0715425 
-0.00345937 0.946218 -0.323513 
0.00174192 0.824584 -0.565734 
0.00345585 0.66694 -0.745104 
0.0028299 0.565391 -0.824819 
-5.70443e-06 0.492975 -0.870044 
-0.00285774 0.386788 -0.922164 
-0.00747734 0.299653 -0.954019 
-0.013466 0.227868 -0.973599 
-0.0174349 0.173427 -0.984692 
-0.0210137 0.132513 -0.990958 
-0.0243935 0.0917891 -0.99548 
-0.0268203 0.0697974 -0.997201 
-0.0289047 0.0528817 -0.998182 
-0.0307843 0.0387497 -0.998775 
-0.0316337 0.0290014 -0.999079 
-0.0329338 0.0209843 -0.999237 
-0.0340316 0.014344 -0.999318 
-0.0342663 0.00883738 -0.999374 
-0.0360104 0.00383323 -0.999344 
-0.034657 -0.000696721 -0.999399 
-0.035081 -0.00477732 -0.999373 
-0.0345255 -0.00838429 -0.999369 
-0.0344593 -0.0118054 -0.999336 
-0.0336622 -0.0149168 -0.999322 
-0.0335582 -0.0182024 -0.999271 
-0.0324252 -0.0219321 -0.999234 
-0.0308718 -0.0262388 -0.999179 
-0.0310814 -0.0319175 -0.999007 
-0.0288182 -0.0390162 -0.998823 
-0.0308827 -0.0468041 -0.998427 
-0.0274395 -0.0569155 -0.998002 
-0.0292035 -0.0692455 -0.997172 
-0.0257855 -0.082392 -0.996266 
-0.0252832 -0.090812 -0.995547 
-0.0201417 -0.08512 -0.996167 
-0.0128368 -0.0547542 -0.998417 
-0.00177251 -0.00371368 -0.999992 
0.00121126 -0.00323447 0.999995 
0.00881896 -0.0586596 0.998238 
0.0177388 -0.0863997 0.996102 