# vtk DataFile Version 3.0 
Exported using Morpho https://github.com/Morpho-lang/morpho 
ASCII 
DATASET UNSTRUCTURED_GRID 

POINTS 1978 float 
-12 -4 5.61531e-12 
-11.605 -4.00001 -5.69859e-13 
-11.3028 -4.00001 7.58453e-12 
-10.9614 -4.00001 -5.45061e-12 
-10.6535 -4.00001 -4.3339e-12 
-10.3188 -4.00001 -4.2637e-12 
-9.99983 -4.00001 -1.40402e-11 
-9.65774 -4.00001 -1.26074e-11 
-9.30834 -4.00001 -1.48195e-11 
-8.993 -4.00001 -1.68945e-11 
-8.69 -4.00001 -6.07631e-12 
-8.37566 -4.00001 -8.11138e-12 
-8.0759 -4.00001 -6.18658e-12 
-7.76813 -4.00001 -1.15923e-11 
-7.47733 -4.00001 4.67771e-12 
-7.19401 -4 1.12883e-11 
-6.89485 -4.00001 2.05344e-11 
-6.59688 -4.00001 4.41437e-12 
-6.29424 -4.00001 -7.59694e-12 
-5.98773 -4.00001 -1.13028e-11 
-5.68894 -4.00001 -4.21079e-11 
-5.38901 -4.00001 -6.00884e-11 
-5.10044 -4.00001 -5.65265e-11 
-4.81297 -4.00001 -4.68556e-11 
-4.50614 -4.00001 -4.89941e-11 
-4.20931 -4.00001 1.78581e-10 
-3.90463 -4.00001 2.51004e-10 
-3.5628 -4.00001 -1.5393e-10 
-3.24944 -4.00001 -4.62863e-10 
-2.91873 -4.00001 -1.2576e-10 
-2.6134 -4.00001 -5.00611e-10 
-2.31552 -4 1.56357e-11 
-2.03635 -4.00001 8.16046e-09 
-1.75304 -4 2.66434e-08 
-1.54792 -4.00001 6.89392e-08 
-1.33925 -4 2.84236e-07 
-1.12086 -3.99999 8.0794e-07 
-0.931282 -3.99999 4.17533e-06 
-0.630612 -3.99995 2.63867e-05 
-0.346851 -3.99998 0.00018053 
0.470639 -4.00008 0.000135629 
0.834859 -3.99995 -3.87148e-06 
1.08629 -4.00001 -1.58211e-06 
1.3577 -4 -1.83345e-07 
1.54538 -4 -6.29526e-08 
1.74336 -4 -2.76626e-08 
2.01364 -4.00001 -1.05982e-08 
2.32329 -4.00001 -1.9266e-09 
2.64467 -4.00001 -3.52283e-10 
2.9648 -4 1.85592e-10 
3.27712 -4.00001 3.69647e-10 
3.58837 -4.00001 4.62954e-12 
3.88776 -4.00001 -2.31053e-10 
4.20065 -4.00001 -4.61909e-11 
4.50471 -4.00001 5.93676e-11 
4.79948 -4.00001 5.10716e-11 
5.10543 -4.00001 6.34524e-11 
5.40826 -4.00001 4.01415e-11 
5.71118 -4.00001 4.13967e-11 
6.00573 -4.00001 1.87168e-11 
6.30378 -4.00001 1.21104e-12 
6.58624 -4.00001 -7.51096e-12 
6.89791 -4.00001 -1.03171e-11 
7.17759 -4.00001 -9.66219e-12 
7.47612 -4.00001 1.11968e-12 
7.77499 -4.00001 -6.98904e-13 
8.07136 -4.00001 4.28042e-12 
8.3637 -4.00001 4.90864e-12 
8.65527 -4.00001 4.41063e-12 
8.94921 -4.00001 2.32894e-11 
9.28111 -4.00001 1.56965e-11 
9.6103 -4.00001 1.51237e-11 
9.90826 -4.00001 1.58259e-11 
10.2753 -4.00001 1.41405e-11 
10.5939 -4.00001 1.34861e-11 
10.9831 -4.00001 4.11544e-12 
11.3028 -4.00001 -1.25995e-12 
11.5924 -4.00001 -5.97551e-12 
12 -4 -3.93675e-12 
-12 -3.62394 1.05743e-12 
-11.7027 -3.71605 -1.65349e-20 
-11.3526 -3.63133 3.72505e-22 
-11.0401 -3.67494 7.01796e-21 
-10.7073 -3.64215 -1.62073e-20 
-10.3951 -3.6725 -2.7251e-21 
-10.0627 -3.65923 -1.62354e-20 
-9.73922 -3.68718 -3.94174e-21 
-9.39279 -3.69507 -1.42242e-20 
-9.04945 -3.66661 -2.64894e-20 
-8.73837 -3.65724 -4.76064e-21 
-8.43014 -3.67298 -2.04013e-20 
-8.11503 -3.66027 2.46758e-21 
-7.8086 -3.67178 -2.40899e-20 
-7.49639 -3.65802 6.1778e-21 
-7.19766 -3.65506 7.72256e-21 
-6.89134 -3.67086 1.32028e-20 
-6.58113 -3.67059 1.76844e-20 
-6.2647 -3.675 2.7138e-20 
-5.95425 -3.66912 -1.11991e-21 
-5.64325 -3.67186 -6.24067e-20 
-5.34235 -3.66014 -1.30699e-19 
-5.04526 -3.65891 -1.52901e-19 
-4.73228 -3.67942 -6.16047e-20 
-4.42544 -3.66418 8.73412e-20 
-4.11687 -3.66693 2.12939e-19 
-3.78253 -3.69911 3.03924e-19 
-3.45357 -3.66998 -4.47376e-20 
-3.12016 -3.68816 -1.21335e-19 
-2.79209 -3.66756 2.82966e-19 
-2.48463 -3.66618 5.18827e-19 
-2.18047 -3.67207 2.13068e-18 
-1.90863 -3.70387 4.23848e-19 
-1.66909 -3.63356 -8.5035e-18 
-1.4701 -3.68968 -4.73291e-18 
-1.28124 -3.72585 -2.31763e-17 
-1.08926 -3.77104 -3.96204e-17 
-0.853994 -3.86918 9.43207e-16 
-0.696961 -3.80027 -8.10248e-16 
-0.150323 -3.9565 1.1908e-13 
0.367516 -3.90372 4.27978e-14 
0.953693 -3.82348 -1.20193e-15 
1.19581 -3.84207 -2.46227e-16 
1.36384 -3.68898 1.48912e-16 
1.5572 -3.65851 1.01319e-17 
1.77747 -3.6488 1.64879e-18 
2.01921 -3.69004 -1.19821e-18 
2.31002 -3.69383 -1.44056e-18 
2.62129 -3.68587 -5.74947e-19 
2.94327 -3.67534 4.32198e-19 
3.27303 -3.66335 -1.18739e-19 
3.58881 -3.65624 -8.21605e-20 
3.91129 -3.67186 -3.7459e-19 
4.22483 -3.66502 -4.83527e-20 
4.52719 -3.66016 -2.41449e-20 
4.83663 -3.67505 1.09171e-19 
5.14477 -3.67277 1.44704e-19 
5.452 -3.67347 1.11484e-19 
5.75211 -3.66405 3.30293e-20 
6.055 -3.6676 -1.31764e-20 
6.34569 -3.64916 -1.99978e-20 
6.65244 -3.68307 -3.40952e-20 
6.94364 -3.64445 5.97172e-21 
7.24159 -3.66696 -2.09549e-20 
7.54266 -3.66713 1.75566e-20 
7.84273 -3.6627 -9.30991e-21 
8.13796 -3.65658 1.36031e-20 
8.43562 -3.65546 6.1089e-21 
8.73723 -3.65624 7.35187e-22 
9.05776 -3.69293 3.11283e-20 
9.38501 -3.68372 1.5013e-20 
9.69689 -3.64522 4.03545e-21 
10.0354 -3.70996 1.68119e-20 
10.3662 -3.66124 1.89177e-20 
10.7292 -3.71885 1.42384e-20 
11.0647 -3.65443 -4.34095e-21 
11.3658 -3.61716 3.46386e-23 
11.7154 -3.72696 1.36308e-20 
12 -3.60931 -8.93085e-13 
-12 -3.31901 -8.7981e-12 
-11.6349 -3.37433 -1.38258e-20 
-11.2944 -3.28758 -3.93492e-21 
-10.9791 -3.33403 2.05966e-21 
-10.6606 -3.29182 8.2903e-21 
-10.3389 -3.33981 -2.69269e-21 
-10.0099 -3.32643 9.05414e-21 
-9.69476 -3.34574 3.33884e-21 
-9.38893 -3.38454 -7.96804e-21 
-9.08219 -3.32677 1.32542e-21 
-8.77672 -3.317 4.98539e-21 
-8.47087 -3.3343 -2.18524e-21 
-8.16666 -3.33332 1.14093e-20 
-7.85347 -3.33404 -1.07409e-20 
-7.55194 -3.33148 7.25002e-21 
-7.2455 -3.31303 -8.43879e-21 
-6.94211 -3.34812 1.34743e-20 
-6.6317 -3.34133 -5.80506e-22 
-6.32499 -3.35063 5.62425e-22 
-6.01673 -3.34153 -2.20113e-21 
-5.71077 -3.34566 -2.0643e-21 
-5.40806 -3.32785 -5.33193e-21 
-5.10952 -3.32044 1.13534e-20 
-4.80853 -3.3538 -5.61519e-21 
-4.50413 -3.33748 2.46122e-21 
-4.19566 -3.33482 1.26397e-19 
-3.87286 -3.38149 3.64171e-20 
-3.54615 -3.36125 -7.66659e-20 
-3.197 -3.37095 1.63778e-19 
-2.85775 -3.3569 -1.96872e-19 
-2.51847 -3.3309 -3.01279e-19 
-2.20151 -3.36117 -1.68599e-18 
-1.88564 -3.36773 -5.93016e-18 
-1.59443 -3.33112 1.54707e-18 
-1.36025 -3.37498 -1.34364e-18 
-1.16473 -3.23905 5.74754e-17 
-1.15995 -3.52302 -3.60139e-17 
-0.927527 -3.65569 1.01119e-17 
-0.757437 -3.597 1.53057e-15 
-0.503158 -3.87769 3.869e-15 
0.710547 -3.88533 7.10216e-15 
0.817618 -3.6958 -2.04904e-14 
1.11369 -3.65382 -5.19762e-17 
1.20883 -3.43469 6.24064e-18 
1.40578 -3.35558 3.27742e-18 
1.62781 -3.30544 -2.89584e-18 
1.90483 -3.34175 3.59154e-18 
2.18705 -3.38542 1.25505e-18 
2.50575 -3.37545 8.45279e-19 
2.83539 -3.35992 -3.98375e-19 
3.17683 -3.35351 2.6789e-19 
3.51992 -3.32846 -2.6646e-19 
3.85389 -3.34363 1.29949e-19 
4.1733 -3.33493 -3.3613e-20 
4.486 -3.32199 -4.41682e-21 
4.7876 -3.34641 -1.32303e-20 
5.09256 -3.34883 7.44148e-21 
5.40181 -3.34827 6.35284e-21 
5.70696 -3.33305 3.27261e-20 
6.01092 -3.33805 -9.58777e-21 
6.31274 -3.3081 -2.95425e-21 
6.61328 -3.34932 1.25671e-20 
6.91158 -3.30909 -1.21771e-20 
7.21337 -3.32949 1.41867e-20 
7.51371 -3.33487 -1.08915e-20 
7.81741 -3.33083 1.06466e-20 
8.12513 -3.31736 1.40768e-21 
8.42792 -3.32076 8.15441e-21 
8.73928 -3.32479 1.3998e-21 
9.05867 -3.3738 6.78496e-21 
9.38136 -3.35307 5.66267e-21 
9.69413 -3.30271 -1.66138e-21 
10.0071 -3.38912 8.14969e-21 
10.31 -3.31455 -9.48492e-21 
10.6358 -3.40313 -2.78994e-21 
10.9665 -3.34251 1.0029e-22 
11.2955 -3.26073 2.65479e-22 
11.6323 -3.3777 1.38288e-20 
12 -3.30677 7.12676e-12 
-12 -2.98782 1.84958e-12 
-11.6634 -3.05896 1.23061e-20 
-11.318 -2.97116 2.12497e-21 
-10.9687 -2.98483 -9.46677e-22 
-10.6302 -2.96407 -1.27159e-21 
-10.2988 -3.00503 -1.17846e-21 
-9.97529 -2.98683 -6.55655e-21 
-9.66215 -3.0019 -5.43686e-22 
-9.35976 -3.03567 4.7754e-21 
-9.05276 -2.98101 -4.54338e-21 
-8.74249 -2.97906 3.30219e-21 
-8.43809 -2.99717 3.03201e-21 
-8.12499 -3.0069 -3.25436e-21 
-7.82278 -2.99584 -4.54233e-22 
-7.51852 -2.99713 7.33412e-21 
-7.21486 -2.97925 2.48958e-21 
-6.91413 -3.02445 -1.01903e-20 
-6.60665 -3.01207 -1.7135e-21 
-6.30075 -3.02201 -8.24017e-22 
-5.99531 -3.01246 2.20124e-21 
-5.693 -3.01421 5.2791e-21 
-5.39353 -2.99338 -3.18511e-21 
-5.09115 -2.99112 8.07702e-21 
-4.79105 -3.02432 -4.49409e-21 
-4.48764 -3.00778 1.23458e-20 
-4.18109 -3.00425 2.28019e-20 
-3.87326 -3.06113 -2.09469e-19 
-3.55178 -3.03486 2.06305e-19 
-3.22989 -3.06012 -6.19467e-21 
-2.89263 -3.03601 -1.46455e-19 
-2.56701 -3.00948 2.54163e-19 
-2.23574 -3.02352 1.03652e-18 
-1.93009 -3.06254 4.93781e-18 
-1.6493 -3.00789 3.70977e-19 
-1.39715 -3.03103 2.55013e-17 
-1.1571 -2.97014 3.37045e-17 
-0.928241 -3.16319 2.43209e-16 
-0.984812 -3.42062 6.92659e-18 
-0.564224 -3.6694 -4.05238e-15 
-0.206715 -3.77259 -3.99105e-14 
0.953787 -3.7881 1.65597e-14 
0.980845 -3.51142 -6.1859e-17 
0.936432 -3.29542 -1.27185e-16 
1.13808 -3.14835 -1.00819e-16 
1.34342 -3.02317 -2.3932e-17 
1.61343 -2.97949 -7.05653e-18 
1.89589 -3.02917 -2.83335e-18 
2.19367 -3.05524 7.4376e-19 
2.49724 -3.05968 -2.25793e-19 
2.83856 -3.04676 -1.10876e-19 
3.18007 -3.03838 -7.25218e-20 
3.51454 -3.0046 8.83848e-20 
3.8397 -3.02516 -3.28231e-20 
4.16704 -3.0058 -1.01428e-20 
4.47597 -2.99192 8.35011e-21 
4.78313 -3.0095 -2.61681e-20 
5.07981 -3.01947 -9.94567e-21 
5.38212 -3.02544 -3.58178e-21 
5.68993 -3.00545 -4.83129e-20 
5.9948 -3.00826 1.66242e-20 
6.29743 -2.97653 1.98661e-20 
6.60111 -3.01468 -2.25186e-20 
6.91298 -2.98595 8.5682e-21 
7.2254 -2.99494 -2.21648e-21 
7.52547 -3.00046 -8.22145e-21 
7.83362 -3.00079 3.61168e-21 
8.13453 -2.9794 -3.41799e-21 
8.44165 -2.99092 -2.77185e-22 
8.75157 -2.99281 -2.22069e-21 
9.06105 -3.04936 1.23301e-21 
9.37034 -3.01601 8.97349e-22 
9.67048 -2.95565 4.45198e-22 
9.98882 -3.03901 8.82002e-22 
10.3214 -2.98577 1.22911e-21 
10.6519 -3.06979 5.35153e-21 
10.9844 -3.00371 4.73804e-21 
11.3355 -2.93885 -2.0856e-21 
11.6655 -3.06208 -1.03272e-20 
12 -2.9739 -2.60984e-12 
-12 -2.67259 5.04634e-12 
-11.6499 -2.73168 1.85092e-20 
-11.3219 -2.63605 -4.01039e-21 
-10.9902 -2.66267 1.35376e-21 
-10.6522 -2.63806 -4.8784e-21 
-10.3148 -2.67071 1.57462e-21 
-9.97779 -2.66641 -1.61674e-21 
[...]
POINT_DATA 1978 
VECTORS vectors float
5.63475e-07 0.000117121 1 
1.44112e-06 0.000106694 1.00001 
8.07753e-07 9.87167e-05 1.00001 
9.31031e-07 8.90323e-05 1.00001 
1.70944e-06 7.80417e-05 1.00001 
2.43798e-06 6.30747e-05 1.00001 
1.94016e-06 4.91471e-05 1.00001 
-9.73589e-07 3.85048e-05 1.00001 
-6.11335e-06 3.43658e-05 1.00001 
-1.23717e-05 3.64789e-05 1.00001 
-2.001e-05 4.52724e-05 1.00001 
-2.81123e-05 6.42961e-05 1.00001 
-3.72264e-05 9.62094e-05 1.00001 
-4.51183e-05 0.000145483 1.00001 
-4.86295e-05 0.000203981 1.00001 
-4.76454e-05 0.000258837 1.00001 
-4.57283e-05 0.000306096 1 
-4.80298e-05 0.000340227 1.00001 
-5.28506e-05 0.000393353 1.00001 
-5.07116e-05 0.000465506 1.00001 
-4.08558e-05 0.000518244 1.00001 
-4.24757e-05 0.000553886 1.00001 
-7.01504e-05 0.000641341 1.00001 
-0.000137437 0.000895071 1.00001 
-0.000251105 0.00149014 1 
-0.000405961 0.00250436 1 
-0.000652193 0.00406177 0.999997 
-0.00102881 0.00654132 0.999984 
-0.00160998 0.0101896 0.999953 
-0.00227524 0.0160561 0.999875 
-0.00358695 0.0242559 0.999706 
-0.00590717 0.0389693 0.99923 
-0.00846144 0.0618153 0.998059 
-0.010011 0.0958011 0.995355 
-0.0122455 0.130244 0.991409 
-0.0151332 0.176528 0.984179 
-0.0194509 0.241367 0.970235 
-0.0248637 0.322911 0.946111 
-0.0380002 0.517336 0.854996 
0.00230699 0.771268 0.636691 
0.00148887 0.690153 -0.723735 
0.041903 0.403006 -0.914344 
0.0248602 0.243817 -0.969524 
0.0133056 0.162665 -0.986588 
0.0124203 0.121373 -0.99253 
0.00960482 0.0875578 -0.996119 
0.0068013 0.0577474 -0.998316 
0.00458622 0.0370934 -0.999309 
0.003195 0.0229906 -0.999737 
0.00205804 0.0139669 -0.999907 
0.00126329 0.00920946 -0.999961 
0.000880523 0.00637435 -0.999985 
0.000630529 0.0043357 -0.999996 
0.000411129 0.00268471 -1 
0.000247017 0.00161761 -1 
0.000144214 0.00101794 -1.00001 
7.97072e-05 0.000728963 -1.00001 
4.9685e-05 0.000614929 -1.00001 
4.54969e-05 0.000552098 -1.00001 
5.00926e-05 0.000481035 -1.00001 
4.89805e-05 0.000405933 -1.00001 
4.56775e-05 0.000357077 -1.00001 
4.57795e-05 0.000322348 -1.00001 
5.07178e-05 0.000278207 -1.00001 
5.24559e-05 0.000212168 -1.00001 
4.66279e-05 0.000149482 -1.00001 
3.82555e-05 0.000101175 -1.00001 
2.96084e-05 6.78835e-05 -1.00001 
2.07966e-05 4.80702e-05 -1.00001 
1.27078e-05 4.01127e-05 -1.00001 
6.35619e-06 4.05795e-05 -1.00001 
1.72528e-06 4.47086e-05 -1.00001 
-8.67073e-07 5.14722e-05 -1.00001 
-1.64314e-06 6.57512e-05 -1.00001 
-8.04606e-07 7.81286e-05 -1.00001 
-1.289e-07 9.10649e-05 -1.00001 
-2.1601e-08 9.98051e-05 -1.00001 
-1.73052e-07 0.000105871 -1.00001 
5.97937e-07 0.000114336 -1 
-1.48739e-06 0.000112607 1.00001 
-1.42426e-06 0.000106927 1.00001 
-3.68692e-06 9.65507e-05 1.00001 
-4.32912e-06 8.68469e-05 1.00001 
-5.6917e-06 7.47439e-05 1.00001 
-6.02138e-06 6.40798e-05 1.00001 
-8.99197e-06 5.42295e-05 1.00001 
-1.39914e-05 4.85073e-05 1.00002 
-2.45486e-05 4.89137e-05 1.00001 
-4.24176e-05 5.65553e-05 1.00001 
-6.24993e-05 6.79698e-05 1.00001 
-8.07175e-05 8.31107e-05 1.00001 
-0.000104438 0.000109982 1.00001 
-0.000119464 0.000144994 1.00001 
-0.000137549 0.000190876 1.00001 
-0.000149477 0.000237285 1.00001 
-0.000150911 0.000282353 1.00001 
-0.000156894 0.000327006 1.00001 
-0.000152386 0.000383549 1.00001 
-0.00014269 0.000449972 1.00001 
-0.000131 0.000519014 1.00001 
-0.000132739 0.000610196 1.00001 
-0.000151663 0.000798139 1.00001 
-0.000213289 0.00122164 1.00001 
-0.000370241 0.00204389 1.00001 
-0.000661434 0.00334389 1.00001 
-0.00109865 0.00536411 0.999998 
-0.00176865 0.00850413 0.999975 
-0.00248686 0.0133248 0.999921 
-0.00350129 0.0209823 0.999786 
-0.00456482 0.0324783 0.999474 
-0.00565593 0.0513392 0.998676 
-0.00602613 0.077062 0.997017 
-0.00506319 0.108013 0.994147 
-0.00505839 0.144701 0.989467 
-0.00218188 0.18931 0.981919 
-0.000838535 0.24902 0.968504 
-0.0043941 0.359548 0.933135 
0.0205143 0.446376 0.894653 
0.043187 0.87489 0.482333 
-0.0093094 0.705242 -0.708975 
0.00745994 0.353879 -0.935292 
0.00999764 0.218715 -0.975754 
0.00496909 0.160985 -0.98695 
0.00464392 0.118904 -0.992903 
0.00376474 0.0849458 -0.996386 
0.00359406 0.0594597 -0.998235 
0.00307013 0.0394961 -0.999226 
0.00281164 0.0253781 -0.999686 
0.00227919 0.0158338 -0.999885 
0.00169824 0.0100545 -0.999963 
0.0012521 0.00682699 -0.999989 
0.000782607 0.00453096 -1 
0.000435333 0.00291668 -1.00001 
0.000253909 0.0018348 -1.00001 
0.00017227 0.00114677 -1.00001 
0.000141494 0.000798872 -1.00001 
0.00013032 0.000630296 -1.00001 
0.000132336 0.000531789 -1.00001 
0.00013747 0.000449853 -1.00001 
0.00015028 0.000381251 -1.00001 
0.00014823 0.000331621 -1.00001 
0.000160693 0.000286051 -1.00001 
0.000149278 0.000243476 -1.00001 
0.000139617 0.000193337 -1.00001 
0.000125896 0.000147637 -1.00001 
0.000108125 0.000113382 -1.00001 
8.71613e-05 8.89189e-05 -1.00001 
6.48485e-05 7.2315e-05 -1.00001 
4.05966e-05 5.90667e-05 -1.00001 
2.57729e-05 5.50786e-05 -1.00001 
1.73622e-05 5.56294e-05 -1.00002 
9.08004e-06 5.81755e-05 -1.00001 
8.11088e-06 6.58572e-05 -1.00002 
5.96231e-06 7.8574e-05 -1.00001 
7.00662e-06 8.85292e-05 -1.00001 
6.34674e-06 9.68046e-05 -1.00001 
3.84092e-06 0.00010552 -1.00001 
5.55246e-06 0.000109458 -1.00001 
-3.28823e-07 0.000111898 1.00001 
-3.89811e-06 0.000104355 1.00001 
-8.38669e-06 9.3916e-05 1.00002 
-1.05638e-05 8.25492e-05 1.00001 
-1.32908e-05 7.01122e-05 1.00002 
-1.4351e-05 6.20098e-05 1.00001 
-1.90369e-05 5.94547e-05 1.00001 
-2.77835e-05 6.34588e-05 1.00001 
-4.14646e-05 6.99807e-05 1.00001 
-6.64407e-05 8.6732e-05 1.00001 
-9.41266e-05 0.000100935 1.00001 
-0.000123494 0.000113776 1.00001 
-0.000154836 0.000131189 1.00001 
-0.000184129 0.00015401 1.00001 
-0.000207753 0.000181916 1.00001 
-0.000228901 0.00021507 1.00001 
-0.000237962 0.000256383 1.00001 
-0.000246254 0.000300913 1.00001 
-0.000237939 0.000355515 1.00001 
-0.000217478 0.000420819 1.00001 
-0.000188203 0.000499603 1.00001 
-0.00016683 0.000608944 1.00001 
-0.000163059 0.000807535 1.00001 
-0.000199769 0.00121601 1.00001 
-0.000301244 0.00199428 1.00001 
-0.000566897 0.00326634 1.00001 
-0.00114204 0.00519932 0.999996 
-0.0018369 0.00805482 0.999981 
-0.00263089 0.0127441 0.999928 
-0.00325082 0.019889 0.999811 
-0.00348009 0.0311701 0.99952 
-0.00346283 0.0482679 0.99884 
-0.000398404 0.0747521 0.997212 
0.00870352 0.10546 0.994394 
0.0166605 0.145001 0.989301 
0.0425555 0.164556 0.985456 
0.0190116 0.208356 0.977873 
0.0225922 0.31056 0.950285 
0.0585257 0.381746 0.922437 
0.032187 0.604405 0.796054 
0.0300867 0.494198 -0.868879 
-0.0183908 0.381518 -0.924183 
-0.0049033 0.236637 -0.971585 
-0.0228726 0.18784 -0.981938 
-0.0175633 0.136497 -0.990492 
-0.0110069 0.0976398 -0.995172 
-0.00328519 0.0665112 -0.997791 
0.000516464 0.0457731 -0.998964 
0.00199762 0.0294375 -0.999573 
0.00230558 0.0185457 -0.999836 
0.00206524 0.0117155 -0.999944 
0.00145448 0.00769535 -0.999984 
0.000828927 0.00518675 -0.999999 
0.000393658 0.00343209 -1 
0.000198284 0.00216401 -1.00001 
0.000164733 0.00137487 -1.00001 
0.000162115 0.000926852 -1.00001 
0.000165596 0.000685562 -1.00001 
0.000176335 0.00054449 -1.00001 
0.000194719 0.000445102 -1.00001 
0.000218246 0.000364923 -1.00001 
0.000231469 0.0003135 -1.00001 
0.000245221 0.000268345 -1.00001 
0.000236025 0.000232597 -1.00001 
0.000218807 0.000196744 -1.00001 
0.000194924 0.000165434 -1.00001 
0.000165944 0.000141855 -1.00001 
0.000132834 0.000123522 -1.00001 
9.88246e-05 0.000107366 -1.00001 
6.59651e-05 8.84451e-05 -1.00001 
4.36854e-05 7.78501e-05 -1.00001 
2.99504e-05 6.98116e-05 -1.00001 
1.90611e-05 6.16702e-05 -1.00001 
1.77009e-05 6.36504e-05 -1.00001 
1.38785e-05 7.20789e-05 -1.00001 
1.37727e-05 8.26622e-05 -1.00001 
1.19682e-05 9.36815e-05 -1.00002 
7.06647e-06 0.00010247 -1.00001 
3.90626e-06 0.000107372 -1.00001 
3.2864e-06 0.000116906 1.00001 
-4.66128e-06 0.000108687 1.00001 
-1.17082e-05 9.81214e-05 1.00001 
-1.65062e-05 8.23046e-05 1.00002 
-2.05702e-05 6.94076e-05 1.00001 
-2.29888e-05 6.28086e-05 1.00001 
-2.88249e-05 6.7017e-05 1.00002 
-3.8355e-05 8.01768e-05 1.00001 
-5.29738e-05 9.54552e-05 1.00001 
-7.62017e-05 0.000119044 1.00001 
-0.000104729 0.000137275 1.00001 
-0.000136629 0.0001498 1.00001 
-0.000171185 0.000161173 1.00001 
-0.000202938 0.000174188 1.00001 
-0.000230434 0.000189975 1.00001 
-0.000253722 0.000211905 1.00001 
-0.000265746 0.000242501 1.00001 
-0.000271053 0.000285257 1.00001 
-0.000255402 0.00034002 1.00001 
-0.000218629 0.000405623 1.00001 
-0.000171199 0.000488707 1.00001 
-0.000121375 0.000607275 1.00001 
-7.89285e-05 0.000828424 1.00001 
-5.79488e-05 0.0012663 1.00001 
-4.75222e-05 0.00209607 1.00001 
-0.000170773 0.0034433 1.00001 
-0.000632985 0.00538113 0.999998 
-0.00108959 0.00824939 0.999975 
-0.00150745 0.0123562 0.999935 
-0.00126117 0.0185581 0.999839 
-0.000102505 0.0272101 0.999644 
0.00228565 0.0404939 0.99919 
0.00701702 0.0595179 0.998216 
0.0193956 0.0795802 0.996648 
0.0339711 0.105513 0.993848 
0.0584724 0.126788 0.990211 
0.083824 0.195253 0.977171 
0.0498525 0.240564 0.969356 
0.0839986 0.526574 0.846015 
0.115082 0.818765 0.562597 
0.0690519 0.323432 -0.943722 
-0.0336727 0.272555 -0.961552 
-0.0759012 0.229065 -0.970452 
-0.0583526 0.153698 -0.986401 
-0.0419663 0.109059 -0.993157 
-0.0248581 0.0781074 -0.996647 
-0.011977 0.0581563 -0.998247 
-0.0047146 0.0408049 -0.999164 
-0.00112489 0.0270699 -0.999649 
0.000584146 0.0171492 -0.999867 
0.000996488 0.0111684 -0.999949 
0.00060617 0.00759946 -0.999982 
0.000234526 0.00529937 -0.999998 
-7.15089e-05 0.00347792 -1.00001 
-0.000106328 0.00223652 -1.00001 
-9.65563e-06 0.00141999 -1.00001 
6.65127e-05 0.000959824 -1.00001 
0.000114171 0.000696362 -1.00001 
0.000146342 0.000531311 -1.00001 
0.00018372 0.000420549 -1.00001 
0.000221559 0.000342955 -1.00001 
0.000253054 0.000293467 -1.00001 
0.000267333 0.00025264 -1.00001 
0.000258161 0.000221744 -1.00001 
0.000238913 0.000200015 -1.00001 
0.000209337 0.000182366 -1.00001 
0.000175297 0.000170939 -1.00001 
0.000139288 0.000157512 -1.00001 
0.000105298 0.000142604 -1.00001 
7.5597e-05 0.000118998 -1.00001 
5.38125e-05 0.000101788 -1.00001 
4.02603e-05 8.52283e-05 -1.00001 
2.90196e-05 6.81575e-05 -1.00001 
2.55741e-05 6.45523e-05 -1.00001 
2.10725e-05 7.07828e-05 -1.00001 
1.90995e-05 8.35284e-05 -1.00001 
1.40661e-05 9.90092e-05 -1.00001 
6.68529e-06 0.00010674 -1.00001 
-2.84818e-06 0.000112916 -1.00001 
6.80569e-06 0.000128433 1.00001 
-5.76593e-06 0.000116239 1.00002 
-1.51219e-05 0.000105333 1.00001 
-2.11865e-05 8.72818e-05 1.00001 
-2.62983e-05 7.24067e-05 1.00001 
-3.00026e-05 6.6043e-05 1.00002 
-3.6196e-05 7.41785e-05 1.00001 
-4.55562e-05 9.46237e-05 1.00001 
-5.91495e-05 0.000119213 1.00002 
-8.01475e-05 0.000150256 1.00001 
-0.000106885 0.000173248 1.00001 
-0.000139641 0.000185323 1.00001 
-0.000173744 0.000193862 1.00001 
-0.000207443 0.000198756 1.00001 
-0.00023567 0.000204758 1.00001 
-0.000257949 0.000216754 1.00001 
-0.000268965 0.000239479 1.00001 
-0.000264101 0.000275736 1.00001 
-0.000237494 0.000324522 1.00001 
-0.000188108 0.000384798 1.00001 
-0.000127782 0.000462736 1.00001 
-5.6484e-05 0.000583514 1.00001 
2.73632e-05 0.000812449 1.00001 
0.000122891 0.00126445 1.00001 
0.000259396 0.00210525 1.00001 
0.000319552 0.003526 1 
9.28125e-05 0.00549799 0.999999 
2.89152e-05 0.00826741 0.999978 
0.000104534 0.0123382 0.999937 
0.00126571 0.0174541 0.99986 
0.00388222 0.0255814 0.999679 
0.00912049 0.03783 0.999256 
0.0185589 0.0531893 0.998425 
0.0365436 0.0676349 0.997052 
0.0569599 0.0818148 0.995028 
0.0909029 0.0948291 0.991342 
0.0926801 0.137112 0.986221 
0.087709 0.295033 0.951456 
0.128084 0.411212 0.902502 
0.0867311 0.701911 0.707003 
-0.0476832 0.642116 -0.765133 
-0.0647671 0.371015 -0.926371 
-0.114615 0.173543 -0.978141 
-0.0857285 0.111952 -0.99002 
-0.0541975 0.0783297 -0.995465 
-0.0312715 0.0584774 -0.997808 
-0.0161693 0.0431837 -0.998949 
-0.00816371 0.0312027 -0.999495 
-0.00308302 0.0206985 -0.999794 
-0.000973146 0.0135192 -0.999921 
-0.000415957 0.00915625 -0.999971 
-0.000559611 0.00644298 -0.999992 
-0.000590557 0.00459765 -1 
-0.000562198 0.00304884 -1.00001 
-0.000362616 0.00193428 -1.00001 
-0.000164167 0.00125755 -1.00001 
-2.5949e-05 0.000857504 -1.00001 
5.41465e-05 0.000621618 -1.00001 
0.000108411 0.000467296 -1.00001 
0.000160932 0.000370272 -1.00001 
0.00021251 0.000304633 -1.00001 
0.000250042 0.000266189 -1.00001 
0.000266621 0.000238961 -1.00001 
0.000259318 0.000223676 -1.00001 
0.00023665 0.000212926 -1.00001 
0.000204426 0.000207643 -1.00001 
0.000167218 0.000203061 -1.00001 
0.000131999 0.000191793 -1.00001 
0.000102078 0.000177083 -1.00001 
7.76437e-05 0.000148038 -1.00001 
5.93433e-05 0.000124119 -1.00001 
4.63946e-05 9.63595e-05 -1.00001 
3.63672e-05 7.36594e-05 -1.00001 
3.23474e-05 6.69953e-05 -1.00001 
2.71409e-05 7.21555e-05 -1.00001 
2.28906e-05 8.79546e-05 -1.00001 
1.59564e-05 0.000106955 -1.00001 
5.45934e-06 0.000116801 -1.00001 
-9.34163e-06 0.000128872 -1.00001 
5.91546e-06 0.000149086 1.00001 
-4.45858e-06 0.000132602 1.00001 
-1.45046e-05 0.000119435 1.00001 
-2.26168e-05 9.87351e-05 1.00001 
-2.8379e-05 8.14077e-05 1.00001 
-3.37752e-05 7.1096e-05 1.00001 
-3.96601e-05 7.53894e-05 1.00001 
-4.75815e-05 9.55613e-05 1.00001 
-5.87091e-05 0.000127403 1.00001 
-7.31943e-05 0.000161133 1.00001 
-9.44111e-05 0.000195061 1.00001 
-0.000122935 0.000216285 1.00001 
-0.000155608 0.00022755 1.00001 
-0.00019113 0.000229588 1.00001 
-0.000222937 0.000228373 1.00001 
-0.000246775 0.000225355 1.00001 
-0.000258431 0.000230351 1.00001 
-0.00025459 0.00024596 1.00001 
-0.000228749 0.000275482 1.00001 
-0.000185021 0.000317323 1.00001 
-0.000124918 0.000372839 1.00001 
-5.423e-05 0.000457341 1.00001 
4.01163e-05 0.000610421 1.00001 
0.000178381 0.000921384 1.00001 
0.000374975 0.00150239 1.00001 
0.000634335 0.00259092 1.00001 
0.000806417 0.00430881 1 
0.000902954 0.00636752 0.999992 
0.00126044 0.00946775 0.999967 
0.00233715 0.0129452 0.999927 
0.00444488 0.0181422 0.999839 
0.00915446 0.0258595 0.999638 
0.0180207 0.0353098 0.999228 
0.0321608 0.0429468 0.998574 
0.0527576 0.0465198 0.997539 
0.0961588 0.0624608 0.993416 
0.14751 0.200249 0.968582 
0.146187 0.282993 0.947918 
0.162282 0.657383 0.735936 
0.0543483 0.961198 0.270391 
-0.0812357 0.614109 -0.784988 
-0.130448 0.334253 -0.933411 
-0.159877 0.127232 -0.978912 
-0.100765 0.0763815 -0.991983 
-0.0613463 0.0517571 -0.996786 
-0.0349646 0.0395167 -0.998623 
-0.0194625 0.0333019 -0.999266 
-0.00976711 0.0221993 -0.999722 
-0.00496194 0.0169287 -0.999856 
-0.00254046 0.0115062 -0.999944 
-0.00167905 0.00808339 -0.999979 
-0.00148627 0.0057918 -0.999995 
-0.00121726 0.00416874 -1 
-0.000933206 0.00283606 -1.00001 
-0.000574551 0.00182252 -1.00001 
-0.000288169 0.00116245 -1.00001 
-0.000109099 0.000791745 -1.00001 
-5.45126e-06 0.000566855 -1.00001 
6.14612e-05 0.000419191 -1.00001 
0.000122298 0.00032622 -1.00001 
0.000180511 0.000274759 -1.00001 
0.000232674 0.000249631 -1.00001 
0.000257761 0.000240227 -1.00001 
0.000256943 0.000239231 -1.00001 
0.000237526 0.000239143 -1.00001 
0.000204117 0.000241918 -1.00001 
0.000165438 0.000240477 -1.00001 
0.000129408 0.000228215 -1.00001 
0.000100293 0.000207961 -1.00001 
7.86192e-05 0.000173983 -1.00001 
6.21457e-05 0.000138315 -1.00001 
5.21812e-05 0.00010612 -1.00001 
4.29196e-05 7.9759e-05 -1.00001 
3.74607e-05 7.11385e-05 -1.00001 
3.10921e-05 7.67294e-05 -1.00001 
2.54295e-05 9.52474e-05 -1.00001 
1.81212e-05 0.000117179 -1.00001 
6.11762e-06 0.000130509 -1.00001 
-1.02153e-05 0.000149037 -1.00001 
1.00443e-06 0.000164674 1.00001 
-9.84554e-06 0.000143289 1.00002 
-1.94325e-05 0.000122816 1.00001 
-2.64321e-05 0.000102168 1.00001 
-3.28905e-05 8.30716e-05 1.00001 
-3.94735e-05 7.66243e-05 1.00001 
-4.6732e-05 8.62518e-05 1.00001 
-5.54186e-05 0.000113214 1.00001 
-6.58708e-05 0.000151054 1.00001 
-7.91337e-05 0.000191453 1.00001 
-9.89941e-05 0.000230653 1.00001 
-0.00012458 0.000256494 1.00001 
-0.000157756 0.000268041 1.00001 
-0.000192547 0.000268864 1.00001 
-0.000223563 0.000260071 1.00001 
-0.000242158 0.000245393 1.00001 
-0.000243863 0.000234906 1.00001 
-0.000231566 0.000233592 1.00001 
-0.000199525 0.000243278 1.00001 
-0.000153634 0.000270509 1.00001 
-9.33234e-05 0.000312407 1.00001 
-1.73465e-05 0.000393699 1.00001 
8.87964e-05 0.000540154 1.00001 
0.000255387 0.000817574 1.00001 
0.000531577 0.00141413 1.00001 
0.000927122 0.0025092 1.00001 
0.00130894 0.00389723 1 
0.00162031 0.00604887 0.999993 
0.00229916 0.008237 0.999977 
0.00369513 0.0112732 0.999943 
0.00641536 0.0156663 0.999871 
0.0118899 0.0209948 0.999724 
0.0199468 0.0239353 0.99953 
0.0318817 0.0242699 0.999212 
0.0556117 0.0249999 0.998155 
0.0967026 0.0219595 0.995083 
0.168001 0.129662 0.977232 
0.236431 0.29514 0.925737 
0.196082 0.46937 0.861058 
0.186793 0.821641 0.538489 
-0.138067 0.596231 -0.790833 
-0.188428 0.245862 -0.950817 
-0.151602 0.0667556 -0.986192 
-0.084289 0.0270524 -0.996087 
-0.0475621 0.0224562 -0.998634 
-0.0273867 0.020923 -0.999419 
-0.0161896 0.0202268 -0.999679 
-0.00897222 0.0138651 -0.999879 
-0.0051289 0.0114186 -0.999938 
-0.00327475 0.00831484 -0.999974 
-0.00246979 0.00616408 -0.999991 
-0.00198191 0.00451676 -1 
-0.00150633 0.00325585 -1.00001 
-0.00100999 0.00219228 -1.00001 
-0.000580902 0.00141196 -1.00001 
-0.000286703 0.000910879 -1.00001 
-0.000119094 0.000619255 -1.00001 
-2.43624e-05 0.00043541 -1.00001 
4.59753e-05 0.000314691 -1.00001 
0.000109524 0.00024929 -1.00001 
0.000176702 0.000228674 -1.00001 
0.000222757 0.000230427 -1.00001 
0.00024859 0.000244862 -1.00001 
0.000246198 0.000265546 -1.00001 
0.000224534 0.000275909 -1.00001 
0.000188514 0.000283129 -1.00001 
0.000149604 0.000277853 -1.00001 
0.000117353 0.000259841 -1.00001 
9.32388e-05 0.000230554 -1.00001 
7.72637e-05 0.000190004 -1.00001 
6.56926e-05 0.000151002 -1.00001 
5.63113e-05 0.00011133 -1.00001 
4.72558e-05 8.36746e-05 -1.00001 
4.06559e-05 7.68427e-05 -1.00001 
3.35085e-05 8.38326e-05 -1.00001 
2.76781e-05 0.000104247 -1.00001 
2.02158e-05 0.000129554 -1.00001 
8.59571e-06 0.000146356 -1.00001 
-4.42777e-06 0.000169665 -1.00001 
-4.9478e-06 0.000177903 1.00001 
-1.25811e-05 0.000158518 1.00001 
-2.01392e-05 0.000136958 1.00001 
-2.69207e-05 0.000114379 1.00001 
-3.34767e-05 9.3402e-05 1.00001 
-4.05701e-05 8.33648e-05 1.00001 
-4.86249e-05 8.97349e-05 1.00001 
-5.75128e-05 0.000114328 1.00001 
-6.72552e-05 0.000153645 1.00001 
-7.79386e-05 0.000199301 1.00001 
-9.2142e-05 0.000243773 1.00001 
-0.000113123 0.000283631 1.00001 
-0.000141256 0.00030587 1.00001 
-0.000174012 0.000314456 1.00001 
-0.000205436 0.000304006 1.00001 
-0.000225961 0.000279036 1.00001 
-0.000229395 0.000250067 1.00001 
-0.000219685 0.000220144 1.00001 
-0.000197568 0.000204183 1.00001 
-0.000161789 0.000202923 1.00001 
-0.000114854 0.000220467 1.00001 
-4.81278e-05 0.000269618 1.00001 
4.17006e-05 0.000363484 1.00001 
0.000184956 0.000543081 1.00001 
0.000446221 0.000936118 1.00001 
0.000863254 0.00168958 1.00001 
0.00137086 0.00272214 1.00001 
0.00189487 0.00438224 0.999999 
0.00250831 0.00591466 0.999995 
0.00359601 0.0079934 0.999975 
0.00572372 0.0107105 0.999941 
0.00956104 0.0137116 0.999873 
0.0151848 0.0137172 0.999807 
0.0233233 0.0116136 0.999679 
0.040254 0.00790734 0.999177 
0.0749541 -0.00642509 0.997185 
0.175625 0.0688599 0.982052 
0.312131 0.222871 0.923541 
0.318066 0.599468 0.734514 
0.0430603 0.994287 0.0972487 
-0.226101 0.55062 -0.803566 
-0.272031 0.178123 -0.945677 
-0.126624 -0.000227661 -0.991956 
-0.0607174 -0.00924606 -0.998131 
-0.0333059 0.000664534 -0.99946 
-0.0220573 0.00716491 -0.999749 
-0.013908 0.0106634 -0.999865 
-0.00815386 0.00787441 -0.999949 
-0.00534068 0.00761979 -0.999971 
-0.00381704 0.00606182 -0.999988 
-0.00295514 0.00485064 -0.999994 
-0.00225182 0.0036596 -1 
-0.0015795 0.00253862 -1.00001 
-0.00102142 0.0017458 -1.00001 
-0.000582841 0.00115526 -1.00001 
-0.00028828 0.000744804 -1.00001 
-0.000123736 0.000485151 -1.00001 
-3.25601e-05 0.00031824 -1.00001 