# vtk DataFile Version 3.0 
Exported using Morpho https://github.com/Morpho-lang/morpho 
ASCII 
DATASET UNSTRUCTURED_GRID 

POINTS 1978 float 
-12 -4 -7.84167e-13 
-11.605 -4 8.0653e-14 
-11.3029 -4 -1.05753e-12 
-10.9614 -4 7.62401e-13 
-10.6535 -4 6.05583e-13 
-10.3188 -4 5.959e-13 
-9.99992 -4 1.96155e-12 
-9.65767 -4 1.76135e-12 
-9.30836 -4 2.06855e-12 
-8.99302 -4 2.36244e-12 
-8.69006 -4 8.4919e-13 
-8.37571 -4 1.13396e-12 
-8.07591 -4 8.65521e-13 
-7.76825 -4 1.61904e-12 
-7.47769 -4 -6.57573e-13 
-7.19359 -4 -1.58085e-12 
-6.89489 -4 -2.86982e-12 
-6.5968 -4 -6.15586e-13 
-6.29427 -4 1.06389e-12 
-5.9878 -4 1.58317e-12 
-5.68894 -4 5.88498e-12 
-5.38903 -4 8.39061e-12 
-5.10045 -4 7.89797e-12 
-4.81293 -4 6.54628e-12 
-4.50607 -4 6.84125e-12 
-4.20923 -4 -2.49812e-11 
-3.90456 -4 -3.52075e-11 
-3.56288 -4 2.09839e-11 
-3.24945 -4 6.28314e-11 
-2.91882 -4 1.18084e-11 
-2.61312 -4 5.04119e-11 
-2.31547 -4 -6.09211e-11 
-2.03621 -4 -1.29826e-09 
-1.75339 -4 -3.88957e-09 
-1.54688 -4 -9.76196e-09 
-1.33718 -4 -3.94159e-08 
-1.1235 -4 -1.10174e-07 
-0.930579 -4 -5.785e-07 
-0.631559 -4.00001 -3.50225e-06 
-0.334585 -4 -2.21696e-05 
0.457843 -4.00008 -1.73097e-05 
0.840764 -4.00001 6.04821e-07 
1.08309 -4 2.27055e-07 
1.36062 -4 2.69437e-08 
1.54292 -4 8.79706e-09 
1.74424 -4 3.92239e-09 
2.01415 -4 1.54056e-09 
2.32329 -4 2.97338e-10 
2.64437 -4 6.07547e-11 
2.96477 -4 -2.21654e-11 
3.27705 -4 -5.06288e-11 
3.58802 -4 -3.78502e-13 
3.88797 -4 3.23574e-11 
4.20073 -4 6.47067e-12 
4.50467 -4 -8.29013e-12 
4.79953 -4 -7.13625e-12 
5.10543 -4 -8.86513e-12 
5.40827 -4 -5.6083e-12 
5.71115 -4 -5.78425e-12 
6.00571 -4 -2.61685e-12 
6.30381 -4 -1.6977e-13 
6.58619 -4 1.05016e-12 
6.89792 -4 1.44167e-12 
7.17764 -4 1.34943e-12 
7.4761 -4 -1.56559e-13 
7.77501 -4 9.86398e-14 
8.07135 -4 -5.99234e-13 
8.36355 -4 -6.85754e-13 
8.6553 -4 -6.14609e-13 
8.94935 -4 -3.25273e-12 
9.28115 -4 -2.19324e-12 
9.61025 -4 -2.11353e-12 
9.90826 -4 -2.21054e-12 
10.2753 -4 -1.97586e-12 
10.5939 -4 -1.88447e-12 
10.983 -4 -5.75639e-13 
11.3028 -4 1.76153e-13 
11.5924 -4 8.35336e-13 
12 -4 5.51226e-13 
-12 -3.62395 -1.44181e-13 
-11.7027 -3.716 -5.07985e-16 
-11.3526 -3.6312 -1.42538e-15 
-11.0401 -3.67498 8.63804e-16 
-10.7073 -3.64206 2.46186e-16 
-10.395 -3.67232 -1.19072e-16 
-10.0626 -3.65914 1.09003e-15 
-9.73919 -3.68713 8.96636e-16 
-9.39273 -3.69493 4.55458e-16 
-9.04948 -3.66648 3.08095e-16 
-8.73828 -3.65713 5.28657e-16 
-8.42988 -3.67307 1.01409e-15 
-8.11458 -3.66033 -4.28036e-16 
-7.80804 -3.67183 1.02707e-15 
-7.49602 -3.65775 9.37962e-16 
-7.19754 -3.65576 -1.95221e-15 
-6.89128 -3.66997 -9.22226e-15 
-6.5811 -3.67058 -1.33491e-15 
-6.26484 -3.67507 2.48575e-15 
-5.95447 -3.66912 2.90723e-15 
-5.64338 -3.67184 1.53149e-15 
-5.34251 -3.66013 -7.23805e-16 
-5.04548 -3.65888 3.11148e-15 
-4.73274 -3.67938 5.62539e-15 
-4.42611 -3.66422 1.88894e-14 
-4.11754 -3.66684 6.69169e-14 
-3.78318 -3.69891 2.24869e-13 
-3.45377 -3.67016 8.26674e-13 
-3.12025 -3.68813 2.90932e-12 
-2.79213 -3.66817 1.03255e-11 
-2.48432 -3.66582 3.95733e-11 
-2.18098 -3.67073 1.27967e-10 
-1.91457 -3.70461 3.82653e-10 
-1.68147 -3.63326 9.29364e-10 
-1.46998 -3.67499 2.22445e-09 
-1.27464 -3.73717 3.34904e-09 
-1.07707 -3.76649 1.14493e-08 
-0.846326 -3.87066 2.75519e-08 
-0.699905 -3.79565 3.0532e-08 
-0.182624 -3.92635 -3.98607e-06 
0.356051 -3.79741 1.50546e-07 
0.949274 -3.81975 -3.62471e-08 
1.20256 -3.84026 -1.10453e-08 
1.36559 -3.68287 -4.08366e-09 
1.5561 -3.65797 -1.28767e-09 
1.77534 -3.65227 -4.96722e-10 
2.01962 -3.68831 -1.52597e-10 
2.31002 -3.69396 -4.65952e-11 
2.62303 -3.6852 -1.39628e-11 
2.94497 -3.67564 -3.84736e-12 
3.27433 -3.66268 -1.02596e-12 
3.58916 -3.65708 -3.04463e-13 
3.91167 -3.6717 -1.09122e-13 
4.22452 -3.66469 -2.41849e-14 
4.52692 -3.66007 -7.66697e-15 
4.83649 -3.67492 -1.8382e-15 
5.14464 -3.67291 -1.17544e-15 
5.4521 -3.67327 -9.38313e-16 
5.75206 -3.66393 -7.53565e-16 
6.05516 -3.66769 -3.39568e-16 
6.3458 -3.64897 1.02373e-16 
6.65244 -3.68305 -1.93467e-16 
6.94344 -3.64449 -1.0031e-16 
7.2412 -3.66671 -1.12853e-17 
7.5423 -3.66701 7.19852e-16 
7.84239 -3.66248 -7.96545e-16 
8.13784 -3.6565 5.32041e-16 
8.43575 -3.65598 2.36393e-16 
8.73753 -3.65659 2.49019e-15 
9.05816 -3.69266 5.98475e-16 
9.38535 -3.68353 1.36353e-15 
9.6971 -3.64511 -8.64886e-16 
10.0355 -3.70985 1.1645e-16 
10.3664 -3.66124 5.15218e-17 
10.7293 -3.71874 -1.76577e-15 
11.0647 -3.65446 1.45456e-15 
11.3658 -3.6171 6.67293e-16 
11.7154 -3.72685 8.77199e-16 
12 -3.60931 1.24297e-13 
-12 -3.31899 1.23111e-12 
-11.6348 -3.37425 8.32709e-16 
-11.2942 -3.28746 -2.20454e-17 
-10.9789 -3.334 3.35893e-18 
-10.6604 -3.2917 2.00246e-17 
-10.3386 -3.33959 -6.19319e-18 
-10.0102 -3.32754 5.91549e-18 
-9.69451 -3.34432 7.17561e-18 
-9.3891 -3.38443 -7.56416e-17 
-9.0824 -3.32664 2.55955e-17 
-8.77683 -3.31707 9.7019e-17 
-8.47071 -3.33432 -1.51928e-16 
-8.16645 -3.33346 6.69766e-17 
-7.85333 -3.33417 -1.53732e-17 
-7.55191 -3.33104 1.02441e-17 
-7.2454 -3.31416 -1.23032e-16 
-6.9422 -3.34695 2.61706e-16 
-6.63193 -3.34124 -6.57421e-17 
-6.32505 -3.3507 1.49352e-17 
-6.01682 -3.34157 8.31344e-17 
-5.71075 -3.34562 -1.45047e-16 
-5.40796 -3.32776 1.62611e-16 
-5.10944 -3.32057 2.2587e-15 
-4.80829 -3.35368 1.14083e-15 
-4.50377 -3.33752 5.10208e-15 
-4.19514 -3.33514 3.65578e-14 
-3.87194 -3.38146 1.47137e-13 
-3.54465 -3.36168 4.72489e-13 
-3.1953 -3.37083 1.62289e-12 
-2.857 -3.35664 5.08305e-12 
-2.51845 -3.33164 1.52559e-11 
-2.20157 -3.35947 5.84933e-11 
-1.88154 -3.36475 1.74906e-10 
-1.59209 -3.32833 5.76424e-11 
-1.36457 -3.37913 -8.06422e-11 
-1.16588 -3.23632 -1.15205e-09 
-1.17363 -3.51783 2.26363e-09 
-0.93424 -3.65498 1.11225e-08 
-0.767979 -3.59523 1.04308e-08 
-0.513175 -3.87202 -9.71036e-09 
0.711613 -3.8947 -1.94496e-07 
0.822195 -3.69763 4.19675e-07 
1.11433 -3.64974 -3.38708e-09 
1.21851 -3.43198 -5.36351e-10 
1.41246 -3.34991 -6.82074e-11 
1.63265 -3.30332 5.41834e-12 
1.90397 -3.3438 -1.47627e-10 
2.19093 -3.38128 -6.062e-11 
2.50217 -3.37834 -1.59497e-11 
2.83411 -3.36089 -4.59391e-12 
3.17631 -3.35278 -1.31969e-12 
3.51939 -3.32801 -3.5667e-13 
3.85004 -3.34619 -1.21448e-13 
4.17406 -3.33366 -2.82091e-14 
4.48637 -3.32177 -1.22401e-14 
4.78767 -3.34627 -3.07266e-15 
5.09272 -3.3487 -1.34797e-15 
5.40109 -3.34916 -9.86446e-17 
5.70779 -3.33234 3.01972e-16 
6.0111 -3.3383 -1.49056e-16 
6.31264 -3.30779 5.62564e-17 
6.61302 -3.34913 -9.96067e-17 
6.91145 -3.30946 9.62184e-17 
7.21353 -3.3292 -5.47895e-17 
7.51406 -3.3348 -2.98188e-17 
7.81793 -3.33054 -5.09582e-17 
8.12564 -3.31725 1.33987e-17 
8.42839 -3.32115 1.20132e-16 
8.73915 -3.32497 -3.03357e-17 
9.05813 -3.37345 1.12215e-16 
9.38049 -3.35279 -3.34912e-17 
9.69384 -3.30307 2.53595e-17 
10.0071 -3.38895 -2.48273e-19 
10.3101 -3.31456 -3.3255e-18 
10.6359 -3.40299 -2.05154e-17 
10.9665 -3.34249 -5.34578e-18 
11.2955 -3.26071 -3.22638e-18 
11.6323 -3.37751 9.44327e-16 
12 -3.30676 -9.97634e-13 
-12 -2.98789 -2.58501e-13 
-11.6632 -3.05895 4.16002e-16 
-11.3179 -2.97102 2.22425e-17 
-10.9686 -2.98471 5.82565e-18 
-10.6302 -2.96373 1.28079e-17 
-10.3002 -3.00548 -3.85338e-17 
-9.97802 -2.99042 2.61324e-17 
-9.6601 -2.99802 1.80083e-18 
-9.35956 -3.03578 8.3153e-17 
-9.05266 -2.98112 -4.76485e-17 
-8.74245 -2.9793 6.96278e-17 
-8.43812 -2.99706 -1.01923e-16 
-8.12498 -3.00692 6.21436e-17 
-7.82276 -2.99586 1.77055e-17 
-7.51814 -2.99722 4.57927e-18 
-7.21466 -2.98015 1.60748e-16 
-6.91416 -3.02306 -6.30653e-17 
-6.60655 -3.01231 3.00573e-17 
-6.30072 -3.02208 3.23775e-17 
-5.99534 -3.01243 -2.92927e-16 
-5.69295 -3.01417 2.83739e-16 
-5.39353 -2.99331 -6.62845e-16 
-5.0913 -2.99116 -2.22868e-16 
-4.79124 -3.02428 -1.16389e-15 
-4.48769 -3.00801 2.44435e-15 
-4.18096 -3.00445 -2.41472e-15 
-3.8735 -3.06165 1.9206e-14 
-3.55266 -3.0349 1.10455e-13 
-3.23113 -3.06009 4.11488e-13 
-2.89354 -3.03597 1.10717e-12 
-2.56808 -3.0102 1.64766e-12 
-2.23663 -3.02318 5.75392e-13 
-1.93086 -3.06028 -8.07354e-11 
-1.64944 -3.01344 -5.29538e-11 
-1.39629 -3.03174 -4.64129e-10 
-1.16016 -2.96082 -7.93824e-10 
-0.929021 -3.16405 -4.60927e-09 
-0.990902 -3.42173 -3.33074e-09 
-0.566925 -3.66198 6.90263e-08 
-0.20333 -3.76495 4.11457e-07 
0.960075 -3.77969 -2.97567e-07 
0.983642 -3.50419 -5.26177e-09 
0.940243 -3.29697 1.18139e-08 
1.13756 -3.14549 2.47049e-09 
1.33833 -3.015 6.38197e-10 
1.61878 -2.98267 -2.39629e-11 
1.89819 -3.02678 3.99362e-11 
2.19002 -3.05896 1.55136e-11 
2.50012 -3.05834 2.43254e-13 
2.84026 -3.04744 1.09622e-13 
3.18013 -3.03778 3.10684e-15 
3.51515 -3.00483 3.38374e-15 
3.84197 -3.0239 2.66044e-14 
4.16485 -3.00746 -5.83928e-15 
4.47503 -2.99229 2.14397e-15 
4.78319 -3.00942 3.37132e-16 
5.08029 -3.01944 -1.28272e-16 
5.38293 -3.02518 2.8623e-16 
5.6891 -3.00596 -2.83773e-16 
5.99473 -3.00821 -4.83929e-17 
6.29771 -2.97618 -9.97088e-17 
6.60101 -3.01456 -2.96459e-17 
6.91288 -2.98646 2.16567e-17 
7.2255 -2.99485 1.38633e-17 
7.52566 -3.00056 -3.43675e-17 
7.83388 -3.00062 6.66709e-18 
8.13473 -2.97937 -1.16099e-17 
8.44154 -2.99075 2.94194e-17 
8.75098 -2.99259 -8.08294e-17 
9.06049 -3.04877 4.5963e-17 
9.3706 -3.01636 -9.76234e-17 
9.67048 -2.95575 6.30598e-17 
9.98867 -3.03905 -3.54811e-17 
10.3214 -2.98576 4.97103e-18 
10.6519 -3.06969 -5.1791e-18 
10.9843 -3.00369 2.46295e-17 
11.3353 -2.93888 -6.2437e-18 
11.6655 -3.06193 -2.75983e-15 
12 -2.97392 3.64749e-13 
-12 -2.67258 -7.05829e-13 
-11.6501 -2.73181 -1.01763e-15 
-11.3221 -2.63596 2.34339e-17 
-10.9906 -2.66262 -9.54159e-20 
-10.6521 -2.63788 -5.06287e-17 
-10.3131 -2.67043 2.03457e-17 
-9.97581 -2.663 3.7844e-17 
-9.64564 -2.66888 -5.13962e-17 
-9.32552 -2.68536 -1.09166e-17 
-9.00438 -2.64773 -3.28569e-17 
-8.69258 -2.64483 1.03219e-16 
-8.37918 -2.67468 -6.48849e-17 
-8.07499 -2.66994 1.96833e-17 
-7.76625 -2.6655 3.17618e-17 
-7.46455 -2.6606 4.15024e-17 
-7.15092 -2.65708 -5.0785e-17 
-6.85358 -2.69507 -5.4763e-17 
-6.54481 -2.68484 6.94033e-17 
-6.24468 -2.69028 -4.61968e-17 
-5.94146 -2.68217 2.61578e-16 
[...]
POINT_DATA 1978 
VECTORS vectors float
7.69094e-09 0.000116303 1 
1.76478e-07 0.000106193 1 
5.35046e-08 9.81886e-05 1 
8.63557e-08 8.8428e-05 1 
1.1902e-07 7.74781e-05 1 
1.30111e-07 6.28172e-05 1 
4.29221e-08 4.93484e-05 1 
-1.39279e-07 3.91606e-05 1 
-3.73892e-07 3.53411e-05 1 
-7.39059e-07 3.76887e-05 1 
-1.14174e-06 4.66752e-05 1 
-1.61462e-06 6.56981e-05 1 
-2.26382e-06 9.72514e-05 1 
-2.96454e-06 0.000145655 1 
-3.80792e-06 0.000202862 1 
-3.54131e-06 0.00025685 1 
-2.93824e-06 0.000303955 1 
-3.17749e-06 0.000338995 1 
-3.75512e-06 0.000391907 1 
-3.80741e-06 0.000462604 1 
-2.53303e-06 0.000515987 1 
-2.40885e-06 0.000555962 1 
-4.90525e-06 0.00065035 1 
-9.58924e-06 0.000912073 1 
-1.89911e-05 0.00151456 0.999999 
-3.31815e-05 0.00253451 0.999997 
-4.07412e-05 0.00409959 0.999992 
-5.78895e-05 0.00660505 0.999978 
-0.000109302 0.0102752 0.999947 
-0.000131728 0.0161811 0.999869 
-0.000221297 0.0245165 0.999699 
-0.000473819 0.0392828 0.999228 
-0.000722441 0.0620684 0.998072 
-0.00127269 0.0960444 0.995376 
-0.00225925 0.13042 0.991456 
-0.0024559 0.176682 0.984265 
-0.00406828 0.241627 0.970361 
-0.00303253 0.322593 0.946532 
-0.00815531 0.516889 0.856012 
0.00360547 0.766598 0.642123 
-0.00258069 0.692536 -0.721377 
0.00969231 0.403773 -0.914806 
0.00265748 0.247216 -0.968956 
0.00181072 0.163639 -0.986518 
0.00286428 0.121689 -0.992564 
0.00133148 0.0878407 -0.996134 
0.000477671 0.0580391 -0.998314 
0.000277918 0.0372754 -0.999305 
0.000222885 0.0231563 -0.999732 
0.000134724 0.0141215 -0.9999 
6.97058e-05 0.00929324 -0.999957 
5.90059e-05 0.00640313 -0.99998 
4.49845e-05 0.00435525 -0.999991 
2.77699e-05 0.0027107 -0.999997 
1.83007e-05 0.00164112 -0.999999 
1.0206e-05 0.00103477 -1 
4.44699e-06 0.000737584 -1 
2.81124e-06 0.000616767 -1 
3.14262e-06 0.000550135 -1 
3.97516e-06 0.000478784 -1 
3.85931e-06 0.000404751 -1 
3.12082e-06 0.000355737 -1 
2.909e-06 0.000319765 -1 
3.98334e-06 0.000275751 -1 
3.61819e-06 0.000211238 -1 
3.07515e-06 0.000149828 -1 
2.53896e-06 0.000102243 -1 
2.00326e-06 6.93387e-05 -1 
1.40136e-06 4.95997e-05 -1 
6.95297e-07 4.14201e-05 -1 
3.54147e-07 4.14766e-05 -1 
2.16443e-07 4.52497e-05 -1 
3.39609e-08 5.17081e-05 -1 
-7.95295e-08 6.54787e-05 -1 
-6.26495e-08 7.75699e-05 -1 
-5.52706e-08 9.04393e-05 -1 
-2.33238e-08 9.92054e-05 -1 
-1.63682e-07 0.000105338 -1 
2.49191e-07 0.000113671 -1 
-1.58487e-06 0.000111553 1 
-1.4872e-06 0.000106355 1 
-3.66997e-06 9.60161e-05 1 
-4.35405e-06 8.63839e-05 1 
-5.75089e-06 7.44031e-05 1 
-6.16616e-06 6.3886e-05 1 
-9.12215e-06 5.42934e-05 1 
-1.39263e-05 4.87899e-05 1 
-2.41105e-05 4.93428e-05 1 
-4.14813e-05 5.70127e-05 1 
-6.09097e-05 6.84563e-05 1 
-7.83355e-05 8.36168e-05 1 
-0.000101322 0.000110319 1 
-0.0001158 0.000145027 1 
-0.000133746 0.000190257 1 
-0.000145215 0.000235947 1 
-0.000146706 0.000280752 1 
-0.000151912 0.000325653 1 
-0.000147318 0.000382029 1 
-0.000138148 0.000447957 1 
-0.000126658 0.00051781 1 
-0.000128181 0.000612295 1 
-0.000146484 0.000805586 1 
-0.000205178 0.00123425 1 
-0.000355953 0.00205665 0.999998 
-0.000631577 0.00335632 0.999995 
-0.00103882 0.0053842 0.999985 
-0.00167909 0.00853434 0.999962 
-0.00234273 0.013372 0.999908 
-0.00328973 0.0210523 0.999773 
-0.00425528 0.0326206 0.999459 
-0.00522241 0.0514779 0.998661 
-0.00545829 0.0771271 0.997007 
-0.00446393 0.107627 0.994182 
-0.00397904 0.144469 0.989501 
-0.00139701 0.189578 0.981865 
0.00065465 0.250739 0.968055 
-0.00179295 0.361617 0.932325 
0.0223744 0.448012 0.893748 
0.041603 0.879031 0.474943 
-0.0146431 0.731406 -0.681785 
0.00546319 0.348119 -0.937435 
0.00828273 0.217752 -0.975969 
0.00383387 0.161657 -0.98684 
0.0038447 0.119321 -0.992849 
0.00332091 0.0853186 -0.996348 
0.00318986 0.0596261 -0.998216 
0.00278135 0.0395629 -0.999214 
0.00257825 0.0253944 -0.999674 
0.00212781 0.0158833 -0.999872 
0.0016095 0.0100906 -0.999948 
0.00118465 0.00683706 -0.999976 
0.000738654 0.00453603 -0.99999 
0.000414895 0.00292682 -0.999996 
0.000242805 0.0018467 -0.999998 
0.000164087 0.00115722 -1 
0.000135253 0.000804047 -1 
0.000125175 0.000630822 -1 
0.000127732 0.000530211 -1 
0.000132992 0.000448121 -1 
0.00014599 0.000379956 -1 
0.000143364 0.000330165 -1 
0.000156191 0.000284456 -1 
0.000144955 0.000242126 -1 
0.000135463 0.000192741 -1 
0.000122141 0.000147715 -1 
0.000105008 0.000113751 -1 
8.4677e-05 8.9343e-05 -1 
6.31709e-05 7.27872e-05 -1 
3.96532e-05 5.96103e-05 -1 
2.53237e-05 5.54003e-05 -1 
1.72946e-05 5.57624e-05 -1 
9.15854e-06 5.81749e-05 -1 
8.18016e-06 6.56856e-05 -1 
5.99808e-06 7.8149e-05 -1 
6.9037e-06 8.80162e-05 -1 
6.24111e-06 9.62403e-05 -1 
3.79308e-06 0.000105 -1 
5.53744e-06 0.000108541 -1 
-3.43227e-07 0.000110863 1 
-3.83481e-06 0.000103766 1 
-8.26661e-06 9.33892e-05 1 
-1.043e-05 8.22049e-05 1 
-1.32098e-05 7.00233e-05 1 
-1.44042e-05 6.20765e-05 1 
-1.91942e-05 5.95425e-05 1 
-2.78367e-05 6.33903e-05 1 
-4.11566e-05 6.97813e-05 1 
-6.54769e-05 8.62793e-05 1 
-9.24237e-05 0.000100433 1 
-0.000121063 0.000113366 1 
-0.000151575 0.000130857 1 
-0.0001802 0.000153689 1 
-0.00020351 0.000181528 1 
-0.000224254 0.000214519 1 
-0.000233203 0.00025546 1 
-0.000240684 0.000299715 1 
-0.000232281 0.000353992 1 
-0.000212308 0.00041895 1 
-0.000183914 0.000497996 1 
-0.000163126 0.000609371 1 
-0.000158979 0.000812311 1 
-0.000195363 0.00122567 1 
-0.00029655 0.00200365 0.999998 
-0.000555263 0.00327053 0.999995 
-0.00110607 0.00520374 0.999986 
-0.00176611 0.0080649 0.999966 
-0.00252328 0.0127661 0.999916 
-0.00309973 0.0199136 0.999797 
-0.00326161 0.0311937 0.999508 
-0.00307028 0.0482565 0.998831 
8.72384e-06 0.0745821 0.997215 
0.00907339 0.105611 0.994366 
0.0171209 0.145114 0.989267 
0.0429851 0.164746 0.985399 
0.019517 0.207137 0.978117 
0.023555 0.30903 0.950761 
0.0587413 0.380082 0.923086 
0.0326736 0.605425 0.795231 
0.0220817 0.501453 -0.864904 
-0.0205029 0.384452 -0.922917 
-0.00585928 0.238277 -0.97118 
-0.0232924 0.18712 -0.982061 
-0.0179001 0.136011 -0.990546 
-0.0112206 0.0974536 -0.995177 
-0.00353639 0.0667099 -0.997767 
0.000292546 0.0457529 -0.998953 
0.00180694 0.0295165 -0.999563 
0.0021655 0.0185869 -0.999825 
0.00195925 0.0117435 -0.99993 
0.00138435 0.0076934 -0.99997 
0.000802531 0.00518647 -0.999986 
0.00038296 0.00342263 -0.999994 
0.000193369 0.00216849 -0.999998 
0.000158609 0.00138219 -0.999999 
0.000155953 0.000930715 -1 
0.000160775 0.000686306 -1 
0.000171942 0.000542341 -1 
0.000190475 0.000443578 -1 
0.000213552 0.000363868 -1 
0.000226404 0.000312534 -1 
0.000239929 0.000267496 -1 
0.000231142 0.000231818 -1 
0.0002142 0.000196211 -1 
0.000190838 0.000165121 -1 
0.000162526 0.00014151 -1 
0.000130179 0.00012304 -1 
9.70426e-05 0.000106789 -1 
6.50441e-05 8.8072e-05 -1 
4.34143e-05 7.75374e-05 -1 
3.00331e-05 6.96727e-05 -1 
1.91621e-05 6.17637e-05 -1 
1.76685e-05 6.37617e-05 -1 
1.37655e-05 7.19379e-05 -1 
1.35278e-05 8.23272e-05 -1 
1.17215e-05 9.31581e-05 -1 
6.91598e-06 0.000101889 -1 
3.84482e-06 0.000106454 -1 
3.31197e-06 0.000115777 1 
-4.5499e-06 0.000107985 1 
-1.15153e-05 9.75447e-05 1 
-1.62965e-05 8.20424e-05 1 
-2.03991e-05 6.95231e-05 1 
-2.29179e-05 6.30907e-05 1 
-2.88227e-05 6.71629e-05 1 
-3.84045e-05 7.99347e-05 1 
-5.28169e-05 9.48238e-05 1 
-7.57698e-05 0.000118077 1 
-0.000103867 0.000136187 1 
-0.000135248 0.000148818 1 
-0.000169272 0.000160445 1 
-0.000200617 0.000173741 1 
-0.0002278 0.000189719 1 
-0.000250811 0.000211796 1 
-0.000262105 0.000242109 1 
-0.000266788 0.000284411 1 
-0.000251146 0.000338579 1 
-0.000215471 0.000403761 1 
-0.000169347 0.000487128 1 
-0.000120596 0.00060788 1 
-7.85994e-05 0.00083394 1 
-5.8545e-05 0.00127635 1 
-5.32226e-05 0.00210477 0.999998 
-0.000178352 0.00344318 0.999994 
-0.000622066 0.0053744 0.999986 
-0.00105287 0.00823404 0.999966 
-0.00144638 0.0123216 0.999923 
-0.00119483 0.018517 0.999828 
-2.77808e-05 0.0271666 0.999631 
0.00242257 0.0404859 0.999177 
0.00726285 0.0595366 0.9982 
0.0193819 0.079488 0.996648 
0.0340384 0.105734 0.993812 
0.058532 0.126066 0.990294 
0.0837207 0.195889 0.977046 
0.0499028 0.240983 0.969246 
0.0846313 0.525214 0.846752 
0.1126 0.823706 0.555726 
0.0678762 0.321438 -0.944495 
-0.0349368 0.270633 -0.962048 
-0.0756258 0.228311 -0.970647 
-0.0582372 0.153956 -0.98636 
-0.0421685 0.108934 -0.993155 
-0.0247603 0.078087 -0.996639 
-0.0120571 0.0580866 -0.998239 
-0.00480714 0.0407751 -0.999157 
-0.00121342 0.0270666 -0.999633 
0.000501227 0.0171712 -0.999853 
0.000929187 0.0111775 -0.999937 
0.000576797 0.0075877 -0.999971 
0.000229937 0.00526767 -0.999986 
-6.01466e-05 0.0034751 -0.999994 
-0.000100233 0.00224054 -0.999997 
-1.00817e-05 0.00142649 -0.999999 
6.39285e-05 0.000963238 -1 
0.000111822 0.000695618 -1 
0.000144779 0.000530559 -1 
0.000181628 0.000419392 -1 
0.000218866 0.000342304 -1 
0.000248897 0.000292443 -1 
0.000263468 0.000252171 -1 
0.000254744 0.00022142 -1 
0.000235942 0.00019966 -1 
0.000206907 0.000181885 -1 
0.000173485 0.000170191 -1 
0.000137973 0.000156488 -1 
0.000104498 0.000141438 -1 
7.51181e-05 0.000118059 -1 
5.36583e-05 0.000101055 -1 
4.0273e-05 8.49869e-05 -1 
2.90411e-05 6.83275e-05 -1 
2.54565e-05 6.48492e-05 -1 
2.08636e-05 7.0828e-05 -1 
1.88205e-05 8.32426e-05 -1 
1.38301e-05 9.84047e-05 -1 
6.53459e-06 0.000106068 -1 
-2.89457e-06 0.000111812 -1 
6.81499e-06 0.000127009 1 
-5.59199e-06 0.000115429 1 
-1.48416e-05 0.000104702 1 
-2.08485e-05 8.70146e-05 1 
-2.59899e-05 7.25977e-05 1 
-2.97952e-05 6.64373e-05 1 
-3.60947e-05 7.44112e-05 1 
-4.55239e-05 9.43339e-05 1 
-5.91618e-05 0.000118401 1 
-8.00692e-05 0.000148924 1 
-0.00010653 0.000171713 1 
-0.000138875 0.000183934 1 
-0.000172527 0.000192806 1 
-0.000205778 0.000198164 1 
-0.000233663 0.000204518 1 
-0.000255493 0.000216672 1 
-0.00026594 0.000239186 1 
-0.000260706 0.000274871 1 
-0.000234444 0.000322996 1 
-0.000186289 0.00038303 1 
-0.000127114 0.000461634 1 
-5.65554e-05 0.000584947 1 
2.66718e-05 0.000819269 1 
0.000119825 0.00127658 0.999999 
0.000248893 0.00211737 0.999998 
0.000302877 0.00352668 0.999994 
8.56846e-05 0.00548984 0.999985 
3.76335e-05 0.00825819 0.999966 
0.000127448 0.0123165 0.999925 
0.00129243 0.0174301 0.999848 
0.00390019 0.02556 0.999666 
0.00915265 0.0378103 0.999243 
0.0186718 0.0530448 0.998418 
0.036262 0.067792 0.997041 
0.0567468 0.0813045 0.995073 
0.0907383 0.09457 0.991375 
0.09306 0.138209 0.986022 
0.0884979 0.295525 0.951227 
0.127871 0.41362 0.901425 
0.0870392 0.701326 0.707508 
-0.0451037 0.621637 -0.782008 
-0.0656491 0.374701 -0.924819 
-0.11561 0.174082 -0.977921 
-0.0857735 0.112079 -0.989991 
-0.0539143 0.0781297 -0.995485 
-0.0313374 0.058386 -0.997802 
-0.0161449 0.0430644 -0.998942 
-0.00819337 0.0311538 -0.999481 
-0.00313332 0.0207491 -0.99978 
-0.00102582 0.0135479 -0.999908 
-0.000439144 0.00916304 -0.999958 
-0.000548455 0.00642473 -0.99998 
-0.00057002 0.00457637 -0.99999 
-0.000543948 0.00304528 -0.999996 
-0.000354977 0.00194043 -0.999998 
-0.000163642 0.0012643 -0.999999 
-2.73521e-05 0.000860805 -1 
5.33995e-05 0.000621833 -1 
0.00010795 0.000466528 -1 
0.000159847 0.000369521 -1 
0.000210116 0.000303681 -1 
0.000247075 0.000265759 -1 
0.000263395 0.000238582 -1 
0.000256553 0.000223342 -1 
0.000234432 0.00021244 -1 
0.00020281 0.00020686 -1 
0.000166232 0.000201832 -1 
0.000131445 0.000190232 -1 
0.000101784 0.000175409 -1 
7.7499e-05 0.000146658 -1 
5.93445e-05 0.000123268 -1 
4.63536e-05 9.6164e-05 -1 
3.62845e-05 7.39489e-05 -1 
3.21428e-05 6.74411e-05 -1 
2.6821e-05 7.23316e-05 -1 
2.25581e-05 8.76752e-05 -1 
1.56735e-05 0.000106285 -1 
5.26908e-06 0.000115973 -1 
-9.34742e-06 0.000127464 -1 
5.97708e-06 0.000147404 1 
-4.30729e-06 0.000131605 1 
-1.42842e-05 0.000118625 1 
-2.23472e-05 9.83236e-05 1 
-2.81191e-05 8.14575e-05 1 
-3.35424e-05 7.15171e-05 1 
-3.94513e-05 7.58083e-05 1 
-4.74354e-05 9.55825e-05 1 
-5.85922e-05 0.000126704 1 
-7.31085e-05 0.000159826 1 
-9.42516e-05 0.00019328 1 
-0.000122517 0.00021436 1 
-0.000154714 0.000225858 1 
-0.000189637 0.000228385 1 
-0.000220914 0.000227647 1 
-0.000244403 0.000225069 1 
-0.00025576 0.000230096 1 
-0.000251812 0.000245478 1 
-0.000226346 0.000274473 1 
-0.000183369 0.000315981 1 
-0.000124031 0.000371765 1 
-5.36465e-05 0.000457762 1 
4.08514e-05 0.000615163 1 
0.00017863 0.000932794 1 
0.000370657 0.00151843 0.999999 
0.000619538 0.00259932 0.999996 
0.000787526 0.00430315 0.999991 
0.000894701 0.00635492 0.99998 
0.0012645 0.00944335 0.999955 
0.00234164 0.0129129 0.999914 
0.00446397 0.018112 0.999826 
0.00916805 0.02584 0.999624 
0.0180724 0.0353007 0.999214 
0.0322554 0.0427099 0.998567 
0.05274 0.046851 0.997509 
0.0957446 0.0617676 0.993488 
0.148613 0.199068 0.968652 
0.145162 0.281329 0.948569 
0.161259 0.651685 0.74115 
0.0503 0.968067 0.24559 
-0.0773667 0.625618 -0.776285 
-0.130918 0.335045 -0.933062 
-0.159219 0.126539 -0.9791 
-0.100387 0.0758025 -0.992057 
-0.0612543 0.0516081 -0.996787 
-0.0349382 0.0394192 -0.998612 
-0.0195234 0.0332977 -0.999255 
-0.00983351 0.022218 -0.999705 
-0.00502148 0.0169838 -0.999843 
-0.00258097 0.0115294 -0.99993 
-0.00167962 0.00808685 -0.999966 
-0.00146147 0.00577244 -0.999983 
-0.00119073 0.00415154 -0.999991 
-0.000914978 0.00283259 -0.999996 
-0.000568903 0.00182946 -0.999998 
-0.000289148 0.00116922 -1 
-0.000110962 0.000795134 -1 
-6.44363e-06 0.000567788 -1 
6.11789e-05 0.000419473 -1 
0.000121998 0.000326063 -1 
0.000179203 0.000274453 -1 
0.000230002 0.000249233 -1 
0.000254648 0.000239683 -1 
0.000254041 0.000238548 -1 
0.000235086 0.000238313 -1 
0.000202356 0.000240715 -1 
0.000164482 0.000238773 -1 
0.000129016 0.000226265 -1 
0.000100146 0.000206061 -1 
7.85519e-05 0.000172454 -1 
6.20644e-05 0.000137451 -1 
5.20073e-05 0.000106005 -1 
4.27134e-05 8.01411e-05 -1 
3.71933e-05 7.16534e-05 -1 
3.07889e-05 7.69239e-05 -1 
2.5124e-05 9.49209e-05 -1 
1.7855e-05 0.000116428 -1 
5.93854e-06 0.000129549 -1 
-1.02307e-05 0.000147402 -1 
1.15754e-06 0.000162845 1 
-9.6478e-06 0.000142192 1 
-1.91901e-05 0.000122023 1 
-2.62037e-05 0.000101808 1 
-3.26445e-05 8.32647e-05 1 
-3.91973e-05 7.71278e-05 1 
-4.64346e-05 8.66581e-05 1 
-5.51529e-05 0.000113107 1 
-6.56663e-05 0.000150229 1 
-7.90384e-05 0.000189937 1 
-9.89279e-05 0.000228575 1 
-0.000124301 0.000254148 1 
-0.000156938 0.0002659 1 
-0.000191008 0.000267149 1 
-0.00022136 0.000258789 1 
-0.000239707 0.000244609 1 
-0.00024145 0.000234474 1 
-0.000229395 0.000233358 1 
-0.000197895 0.000242978 1 
-0.000152719 0.00026996 1 
-9.30148e-05 0.000312377 1 
-1.68636e-05 0.000395383 1 
9.04628e-05 0.000545996 1 
0.000257607 0.000830197 1 
0.000528779 0.00142953 0.999999 
0.000912077 0.00251961 0.999996 
0.00128657 0.00389498 0.999992 
0.00160811 0.00603481 0.999981 
0.00229936 0.00821379 0.999964 
0.00369789 0.0112418 0.99993 
0.00642635 0.0156311 0.999857 
0.0118949 0.0209339 0.999711 
0.0199924 0.0239477 0.999514 
0.0317588 0.0241408 0.999204 
0.0555675 0.0249145 0.998144 
0.0968878 0.0217547 0.995058 
0.167468 0.129917 0.97728 
0.23799 0.302192 0.923061 
0.197699 0.466049 0.86239 
0.186054 0.816109 0.547128 
-0.13924 0.597227 -0.789893 
-0.188 0.24664 -0.950697 
-0.15137 0.0665995 -0.986231 
-0.0843487 0.026974 -0.996072 
-0.0475541 0.0223071 -0.99862 
-0.0275113 0.0209531 -0.999402 
-0.0162705 0.0202335 -0.999663 
-0.00903525 0.0139154 -0.999863 
-0.0051766 0.0114411 -0.999921 
-0.00327998 0.00832587 -0.99996 
-0.00244558 0.00615934 -0.999978 
-0.00195151 0.00449877 -0.999988 
-0.00148314 0.00324668 -0.999994 
-0.000999589 0.00219502 -0.999997 
-0.000580314 0.00141959 -0.999999 
-0.000289732 0.000916211 -1 
-0.000121235 0.000621785 -1 
-2.47781e-05 0.000436883 -1 
4.65246e-05 0.000316196 -1 
0.000109675 0.000250236 -1 
0.000175378 0.00022893 -1 
0.000220363 0.000230153 -1 
0.000245615 0.00024408 -1 
0.000243356 0.000264167 -1 
0.000222258 0.000274313 -1 
0.000187123 0.000281159 -1 
0.000149065 0.000275621 -1 
0.000117269 0.000257555 -1 
9.32708e-05 0.000228528 -1 
7.71805e-05 0.00018845 -1 
6.54803e-05 0.000150191 -1 
5.59975e-05 0.000111331 -1 
4.69583e-05 8.4158e-05 -1 
4.03818e-05 7.73564e-05 -1 
3.32719e-05 8.39809e-05 -1 
2.74289e-05 0.000103867 -1 
1.99802e-05 0.000128695 -1 
8.426e-06 0.000145242 -1 
-4.52787e-06 0.000167763 -1 
-4.69507e-06 0.000175927 1 
-1.23042e-05 0.000157287 1 
-1.9841e-05 0.000136015 1 
-2.66321e-05 0.00011398 1 
-3.31474e-05 9.33711e-05 1 
-4.02284e-05 8.38336e-05 1 
-4.8232e-05 9.02282e-05 1 
-5.70855e-05 0.000114424 1 
-6.68657e-05 0.000153083 1 
-7.76812e-05 0.000197992 1 
-9.20201e-05 0.0002418 1 
-0.000112934 0.000281166 1 
-0.000140679 0.000303197 1 
-0.000172695 0.000311808 1 
-0.000203346 0.000301739 1 
-0.000223518 0.000277457 1 
-0.000227036 0.000249272 1 
-0.00021766 0.000220231 1 
-0.000195912 0.000204639 1 
-0.000160423 0.000203375 1 
-0.000113822 0.000221169 1 
-4.72859e-05 0.000271286 1 
4.38139e-05 0.000367796 1 
0.000189105 0.000552538 1 
0.000448855 0.000950647 1 
0.000856837 0.00170614 0.999998 
0.00135191 0.00272885 0.999996 
0.00187246 0.00437149 0.999989 
0.00249597 0.0058957 0.99998 
0.00359616 0.00796552 0.999962 
0.00573104 0.0106802 0.999927 
0.0095724 0.013675 0.999861 
0.0151593 0.0136538 0.999792 
0.0233816 0.0116201 0.999659 
0.0402513 0.00777532 0.99916 
0.0746611 -0.00663487 0.997187 
0.176444 0.0699893 0.981819 
0.311746 0.219914 0.924366 
0.31954 0.602605 0.731274 
0.0441601 0.99438 0.0962162 
-0.228154 0.546324 -0.805901 
-0.271396 0.176922 -0.946068 
-0.126612 -0.000355343 -0.991952 
-0.0607166 -0.00919691 -0.998113 
-0.0333338 0.00075289 -0.999445 
-0.0220677 0.00717775 -0.999731 
-0.0139522 0.0106953 -0.999846 
-0.00819858 0.00790642 -0.999935 
-0.00536194 0.00763076 -0.999957 
-0.00380519 0.00607965 -0.999975 
-0.00291867 0.00483341 -0.999984 
-0.00222204 0.00364423 -0.999991 
-0.00156336 0.00253545 -0.999996 
-0.00101691 0.00175075 -0.999998 
-0.000585281 0.00116174 -1 
-0.00029273 0.000748941 -1 
-0.000126255 0.000487857 -1 
-3.28109e-05 0.000321038 -1 
3.40586e-05 0.000233198 -1 
9.84449e-05 0.000183306 -1 
0.000158747 0.000188989 -1 
0.000204002 0.000211543 -1 
0.000231641 0.000252147 -1 
0.00023355 0.000288602 -1 
0.000211531 0.000316365 -1 
0.000180187 0.00032489 -1 
0.000143362 0.000316313 -1 
0.000112982 0.000290134 -1 
9.17336e-05 0.000249861 -1 
7.75987e-05 0.000200429 -1 
6.71111e-05 0.00015208 -1 
5.89806e-05 0.000114674 -1 
5.04804e-05 8.97038e-05 -1 
4.36144e-05 8.43427e-05 -1 
3.62455e-05 9.11541e-05 -1 
2.97507e-05 0.000112695 -1 
2.26979e-05 0.000139205 -1 
1.30662e-05 0.000159573 -1 
4.86496e-06 0.000182869 -1 
-6.36776e-06 0.000184939 1 
-1.37286e-05 0.000166994 1 
-2.0445e-05 0.000145227 1 
-2.64352e-05 0.000122047 1 
-3.27885e-05 9.98351e-05 1 
-4.02769e-05 9.08275e-05 1 
-4.94066e-05 9.84091e-05 1 
-5.93974e-05 0.000124283 1 
-6.97331e-05 0.000166182 1 
-7.99853e-05 0.000215586 1 
-9.29322e-05 0.000267005 1 
-0.000108606 0.000312403 1 
-0.000131948 0.000342949 1 
-0.000160181 0.000356544 1 
-0.000188447 0.000342974 1 
-0.00020497 0.000311267 1 
-0.000208201 0.000264381 1 
-0.000201127 0.000216484 1 
-0.000187062 0.000177361 1 
-0.000163521 0.000149715 1 
-0.000126876 0.000149483 1 
-6.88209e-05 0.000178457 1 
1.66839e-05 0.000249867 1 
0.000150541 0.000390524 1 
0.000379787 0.000673326 1 
0.000763069 0.00121697 0.999999 
0.00124165 0.00189047 0.999998 
0.00187139 0.00310551 0.999994 
0.00252331 0.00422507 0.999988 
0.00346273 0.00562604 0.999978 
0.00514444 0.00723955 0.999961 
0.00805521 0.00855604 0.999931 
0.0115794 0.00686069 0.99991 
0.0182201 0.00286185 0.99983 
0.0320964 -0.00669969 0.999463 
0.0537029 -0.0285861 0.998148 
0.150638 -0.0286517 0.988174 
-0.0999142 -0.069939 -0.992535 
-0.0423073 -0.0370323 -0.998418 
-0.0235335 -0.0126978 -0.999643 
-0.0130709 -0.0021788 -0.999913 
-0.0113667 0.00369206 -0.999929 
-0.00720196 0.00365574 -0.999968 
-0.00504257 0.00464321 -0.999977 
-0.00375262 0.00407433 -0.999985 
-0.00286119 0.00344365 -0.99999 
-0.0020705 0.00263826 -0.999995 
-0.00138806 0.00181751 -0.999998 
-0.000860972 0.00124851 -0.999999 