# vtk DataFile Version 3.0 
Exported using Morpho https://github.com/Morpho-lang/morpho 
ASCII 
DATASET UNSTRUCTURED_GRID 

POINTS 1978 float 
-12.0003 -4.00034 9.25066e-09 
-11.6051 -4.00117 -9.08762e-10 
-11.3024 -4.00051 1.24626e-08 
-10.9616 -4.00089 -8.97349e-09 
-10.6535 -4.00083 -7.15104e-09 
-10.3188 -4.00079 -6.96144e-09 
-9.99894 -4.00084 -2.30876e-08 
-9.65792 -4.00083 -2.06889e-08 
-9.30768 -4.00078 -2.46481e-08 
-8.99389 -4.00087 -2.79372e-08 
-8.68911 -4.00073 -9.87013e-09 
-8.37575 -4.00084 -1.32851e-08 
-8.07533 -4.00074 -1.0169e-08 
-7.76689 -4.00069 -1.90516e-08 
-7.47043 -4.00068 7.18275e-09 
-7.19006 -4.00086 1.9969e-08 
-6.90988 -4.00069 3.32287e-08 
-6.59451 -4.00082 7.24866e-09 
-6.293 -4.00073 -1.24124e-08 
-5.9873 -4.00078 -1.86339e-08 
-5.6885 -4.00079 -6.96343e-08 
-5.38857 -4.00071 -9.93436e-08 
-5.09996 -4.00077 -9.29343e-08 
-4.81291 -4.00066 -7.34584e-08 
-4.50825 -4.00071 -8.37603e-08 
-4.2107 -4.00075 3e-07 
-3.90545 -4.00075 4.19404e-07 
-3.56177 -4.00089 -2.28697e-07 
-3.24935 -4.00077 -6.64846e-07 
-2.91761 -4.00057 4.58207e-08 
-2.61572 -4.00098 -1.29591e-07 
-2.31669 -3.99967 1.66671e-07 
-2.03476 -4.00124 6.15939e-06 
-1.75825 -3.99971 1.38786e-05 
-1.55712 -4.00091 2.74447e-05 
-1.33104 -3.99955 0.000106025 
-1.12778 -4.00062 0.000138986 
-0.935641 -4.00188 0.000903213 
-0.640478 -3.99429 0.00376499 
-0.296229 -3.99708 0.0170387 
0.469756 -3.98185 -0.0059728 
0.843133 -3.99532 -0.00206716 
1.17077 -3.99841 -0.00023979 
1.34021 -4.00109 -6.43859e-05 
1.52277 -3.99938 -1.82685e-05 
1.73087 -4.00012 -1.33249e-05 
2.01675 -4.00072 -4.65353e-06 
2.32217 -4.00119 -7.29197e-07 
2.64733 -4.00069 -4.40925e-07 
2.96709 -4.00034 3.04377e-07 
3.28739 -4.00081 5.33278e-07 
3.58436 -4.00078 -4.59329e-08 
3.88311 -4.00065 -3.74874e-07 
4.20115 -4.00074 -7.9787e-08 
4.50494 -4.00088 9.45537e-08 
4.79868 -4.00079 8.26362e-08 
5.10564 -4.00072 1.03941e-07 
5.40832 -4.00078 6.61901e-08 
5.71126 -4.00074 6.8221e-08 
6.00566 -4.00074 3.09629e-08 
6.30358 -4.00067 1.98658e-09 
6.58794 -4.00079 -1.24373e-08 
6.89695 -4.00071 -1.7382e-08 
7.17757 -4.00072 -1.57917e-08 
7.47601 -4.00079 1.79929e-09 
7.77484 -4.00073 -1.18865e-09 
8.07133 -4.00071 7.00353e-09 
8.3635 -4.00085 8.33352e-09 
8.65741 -4.00068 6.77458e-09 
8.94711 -4.00074 3.88656e-08 
9.28102 -4.00103 2.58148e-08 
9.61087 -4.00057 2.49479e-08 
9.90787 -4.00091 2.60429e-08 
10.2754 -4.00091 2.32033e-08 
10.5933 -4.00086 2.22296e-08 
10.9834 -4.00089 6.82618e-09 
11.3028 -4.00052 -2.06238e-09 
11.5925 -4.00109 -9.79541e-09 
12.0004 -4.00044 -6.43123e-09 
-12.0013 -3.62394 1.73198e-09 
-11.7035 -3.71611 2.08241e-08 
-11.3526 -3.63199 -4.68297e-10 
-11.039 -3.67502 -8.84235e-09 
-10.7073 -3.64278 2.04015e-08 
-10.3953 -3.67285 3.42763e-09 
-10.0632 -3.66017 2.03995e-08 
-9.73948 -3.6851 5.01844e-09 
-9.39399 -3.69713 1.79229e-08 
-9.05014 -3.66637 3.35491e-08 
-8.73727 -3.65985 5.95835e-09 
-8.42852 -3.67334 2.57871e-08 
-8.11555 -3.66037 -3.06062e-09 
-7.81221 -3.67166 3.04903e-08 
-7.50157 -3.65912 -7.57857e-09 
-7.20356 -3.64254 -1.01576e-08 
-6.88502 -3.68273 -1.65845e-08 
-6.57692 -3.66919 -2.21804e-08 
-6.26324 -3.67509 -3.42195e-08 
-5.95474 -3.66955 1.23561e-09 
-5.64423 -3.67269 7.8776e-08 
-5.34221 -3.66053 1.65755e-07 
-5.04476 -3.65918 1.93472e-07 
-4.73058 -3.67895 7.97612e-08 
-4.42226 -3.66435 -1.04534e-07 
-4.11384 -3.66677 -2.69456e-07 
-3.779 -3.70102 -3.72531e-07 
-3.45212 -3.66991 5.45376e-08 
-3.11878 -3.68974 1.27191e-07 
-2.79279 -3.66278 -4.66943e-07 
-2.48778 -3.66925 -9.74815e-07 
-2.17495 -3.67142 -3.14106e-06 
-1.90176 -3.70065 -6.48917e-06 
-1.65734 -3.64383 -8.39986e-06 
-1.46589 -3.70379 -4.78678e-05 
-1.28847 -3.69312 -2.06754e-05 
-1.08552 -3.75826 -9.59465e-05 
-0.858524 -3.85694 -0.000519569 
-0.632494 -3.85944 -0.000264657 
-0.200225 -3.92821 -0.0124749 
0.452773 -3.89727 -0.00155386 
0.847059 -3.85681 0.000927387 
1.13001 -3.84355 0.000298192 
1.3853 -3.68801 -4.44419e-05 
1.5797 -3.63374 2.52838e-05 
1.78772 -3.62917 9.79368e-06 
2.01401 -3.69143 1.76796e-06 
2.29785 -3.69753 1.64838e-06 
2.61058 -3.6879 6.68997e-07 
2.93431 -3.6667 -6.16624e-07 
3.26362 -3.67903 1.58483e-07 
3.59267 -3.64442 1.07962e-07 
3.91387 -3.67127 4.64673e-07 
4.22683 -3.66563 6.2285e-08 
4.5269 -3.6608 2.72358e-08 
4.83614 -3.67609 -1.39411e-07 
5.14533 -3.67272 -1.83512e-07 
5.45304 -3.67412 -1.40972e-07 
5.75259 -3.6641 -4.16213e-08 
6.05358 -3.66754 1.66506e-08 
6.34504 -3.65126 2.51423e-08 
6.65343 -3.6802 4.28498e-08 
6.94319 -3.64669 -7.192e-09 
7.24206 -3.66769 2.64579e-08 
7.54397 -3.66765 -2.22128e-08 
7.84529 -3.66379 1.16636e-08 
8.14229 -3.65764 -1.72854e-08 
8.43685 -3.65801 -7.81836e-09 
8.73054 -3.64848 -9.88371e-10 
9.05374 -3.69392 -3.93856e-08 
9.38481 -3.6854 -1.89725e-08 
9.69653 -3.64513 -5.10466e-09 
10.0349 -3.71103 -2.11628e-08 
10.3655 -3.66122 -2.37665e-08 
10.7286 -3.72005 -1.79367e-08 
11.0643 -3.65436 5.4606e-09 
11.3655 -3.61748 -3.0219e-11 
11.7158 -3.72789 -1.7204e-08 
12.0011 -3.60935 -1.53313e-09 
-12.0005 -3.31894 -1.45263e-08 
-11.6353 -3.37453 1.74445e-08 
-11.2948 -3.28835 4.93309e-09 
-10.9795 -3.33342 -2.6013e-09 
-10.6611 -3.2922 -1.04368e-08 
-10.3397 -3.34006 3.40148e-09 
-10.0113 -3.3268 -1.13948e-08 
-9.69629 -3.344 -4.21298e-09 
-9.3864 -3.38703 1.00538e-08 
-9.07865 -3.32933 -1.65216e-09 
-8.77724 -3.31392 -6.22972e-09 
-8.473 -3.33517 2.75269e-09 
-8.16809 -3.33328 -1.44133e-08 
-7.85425 -3.33331 1.35503e-08 
-7.55351 -3.33302 -9.11399e-09 
-7.24507 -3.30504 1.04468e-08 
-6.94012 -3.35727 -1.67783e-08 
-6.63175 -3.34046 6.40659e-10 
-6.32504 -3.35028 -7.1378e-10 
-6.01738 -3.3415 2.77484e-09 
-5.71111 -3.34612 2.59863e-09 
-5.40742 -3.32806 6.784e-09 
-5.10862 -3.3194 -1.28498e-08 
-4.80934 -3.35524 6.50585e-09 
-4.50689 -3.33706 -4.40913e-09 
-4.19789 -3.33275 -1.58934e-07 
-3.8747 -3.38149 -5.62021e-08 
-3.5513 -3.36 7.00714e-08 
-3.20512 -3.37161 -3.01697e-07 
-2.8653 -3.35512 -5.99533e-08 
-2.51882 -3.32968 -4.59487e-07 
-2.20579 -3.37281 -1.22904e-06 
-1.86851 -3.37561 -5.38524e-06 
-1.59307 -3.32473 -9.20877e-06 
-1.36202 -3.36956 -1.4187e-05 
-1.17943 -3.29367 -5.26409e-06 
-1.10981 -3.51834 -4.54347e-05 
-0.902177 -3.64808 -0.000679022 
-0.766575 -3.58856 -6.21833e-05 
-0.534911 -3.78728 0.00218698 
0.467853 -3.81219 -0.000986027 
0.798701 -3.71639 0.00268197 
1.11836 -3.68173 0.000246293 
1.16396 -3.45489 3.52635e-05 
1.38306 -3.38065 5.93592e-06 
1.63464 -3.30153 3.92005e-06 
1.91469 -3.33975 3.59563e-06 
2.19232 -3.38168 1.46492e-06 
2.50356 -3.38095 2.91702e-07 
2.83747 -3.35601 7.51077e-07 
3.18276 -3.35737 -2.649e-07 
3.51603 -3.33035 3.6315e-07 
3.86167 -3.33917 -1.55826e-07 
4.17763 -3.3355 4.22005e-08 
4.48659 -3.32202 3.73126e-09 
4.78673 -3.34672 1.61818e-08 
5.09158 -3.34898 -9.3554e-09 
5.40158 -3.34831 -7.99823e-09 
5.7067 -3.33367 -4.10796e-08 
6.0117 -3.33597 1.21015e-08 
6.31125 -3.31017 3.66508e-09 
6.61331 -3.35138 -1.59383e-08 
6.91424 -3.30494 1.53873e-08 
7.21257 -3.33068 -1.80515e-08 
7.5128 -3.3349 1.37616e-08 
7.81542 -3.33182 -1.34365e-08 
8.12139 -3.31955 -1.77248e-09 
8.42234 -3.31227 -1.01602e-08 
8.74262 -3.32804 -1.80607e-09 
9.06469 -3.37655 -8.451e-09 
9.38377 -3.35285 -7.13043e-09 
9.69471 -3.30208 2.07269e-09 
10.007 -3.38948 -1.02649e-08 
10.3098 -3.31428 1.19593e-08 
10.6355 -3.40358 3.49556e-09 
10.9661 -3.34268 -1.21872e-10 
11.2958 -3.26052 -3.24081e-10 
11.6326 -3.37864 -1.74547e-08 
12.0005 -3.30666 1.17364e-08 
-12.0008 -2.98719 2.91161e-09 
-11.6644 -3.05897 -1.54726e-08 
-11.3194 -2.97136 -2.66025e-09 
-10.9703 -2.98417 1.16288e-09 
-10.628 -2.96625 1.61341e-09 
-10.2968 -3.00559 1.45756e-09 
-9.97481 -2.98632 8.31895e-09 
-9.65886 -3.00476 6.21262e-10 
-9.35951 -3.03511 -5.90824e-09 
-9.05466 -2.98047 5.64231e-09 
-8.74305 -2.97803 -4.16564e-09 
-8.43723 -2.99685 -3.83241e-09 
-8.12372 -3.0073 4.11002e-09 
-7.8214 -2.99583 5.70011e-10 
-7.51948 -2.99666 -9.27101e-09 
-7.21782 -2.97691 -3.00871e-09 
-6.91397 -3.02897 1.27475e-08 
-6.60654 -3.01118 2.20144e-09 
-6.30063 -3.02218 1.03897e-09 
-5.99587 -3.01263 -2.78084e-09 
-5.69341 -3.01399 -6.66911e-09 
-5.39338 -2.9933 3.42103e-09 
-5.09038 -2.99116 -1.024e-08 
-4.79015 -3.02417 5.2162e-09 
-4.48727 -3.00686 -1.65329e-08 
-4.18158 -3.00329 -2.60823e-08 
-3.87327 -3.05998 2.59487e-07 
-3.55088 -3.03503 -2.65401e-07 
-3.22574 -3.058 -6.48735e-09 
-2.88329 -3.04272 1.38043e-07 
-2.56159 -2.99914 -4.04814e-07 
-2.22314 -3.02545 -1.22446e-06 
-1.94392 -3.07817 1.00152e-06 
-1.64368 -2.99741 2.84661e-07 
-1.39459 -3.02044 -3.27259e-07 
-1.16767 -2.98992 -1.26214e-05 
-0.972039 -3.17341 -6.58472e-07 
-0.94506 -3.41562 0.000151007 
-0.475138 -3.70302 -0.00178003 
-0.148222 -3.85392 0.0192404 
0.962321 -3.81544 -0.00250101 
0.9451 -3.56726 0.000517848 
0.953642 -3.28925 -9.7516e-05 
1.15055 -3.13346 1.76517e-06 
1.35817 -3.01411 3.24246e-06 
1.59735 -3.00272 2.98121e-06 
1.87367 -3.01441 -9.71099e-08 
2.18877 -3.07154 -2.06372e-07 
2.50575 -3.05895 -2.19418e-07 
2.83419 -3.04349 1.31056e-07 
3.17641 -3.03942 8.00141e-08 
3.51625 -3.00394 -1.12835e-07 
3.84005 -3.02659 4.43709e-08 
4.16912 -3.00385 1.02832e-08 
4.47647 -2.99197 -7.45543e-09 
4.78175 -3.00945 3.4579e-08 
5.07824 -3.01947 1.25788e-08 
5.38176 -3.02506 4.52293e-09 
5.69016 -3.0058 6.09194e-08 
5.99443 -3.0084 -2.11943e-08 
6.29924 -2.97503 -2.50209e-08 
6.60079 -3.01765 2.85011e-08 
6.91263 -2.98364 -1.08905e-08 
7.22593 -2.99526 2.90304e-09 
7.52469 -3 1.03966e-08 
7.83142 -3.00126 -4.55729e-09 
8.13028 -2.98076 4.32192e-09 
8.44451 -2.99087 3.39054e-10 
8.75591 -2.99482 2.79356e-09 
9.06272 -3.05115 -1.53419e-09 
9.36921 -3.01479 -1.13212e-09 
9.67055 -2.95574 -5.64046e-10 
9.98857 -3.03878 -1.11324e-09 
10.3214 -2.98624 -1.55181e-09 
10.6522 -3.0698 -6.7514e-09 
10.9849 -3.00383 -5.95978e-09 
11.3362 -2.93866 2.61232e-09 
11.6663 -3.06251 1.29813e-08 
12.0009 -2.97389 -4.12326e-09 
-12.0007 -2.6723 7.99281e-09 
-11.6498 -2.7312 -2.32714e-08 
-11.32 -2.6363 5.04764e-09 
-10.9872 -2.66416 -1.67692e-09 
[...]
POINT_DATA 1978 
VECTORS vectors float
8.54424e-06 0.000126742 1.00047 
3.75686e-06 0.000113118 1.0007 
9.79774e-07 0.00010573 1.00071 
-9.07004e-07 9.93084e-05 1.0007 
3.18423e-06 8.98306e-05 1.0007 
1.497e-05 7.35347e-05 1.00069 
2.05956e-05 4.64252e-05 1.00069 
9.99816e-06 2.26661e-05 1.00068 
-2.09406e-05 1.03681e-05 1.00067 
-6.33777e-05 9.67833e-06 1.00066 
-0.000104621 1.78764e-05 1.00066 
-0.000146253 3.50391e-05 1.00065 
-0.000185943 7.3479e-05 1.00065 
-0.000229367 0.000139475 1.00064 
-0.000258529 0.000221448 1.00064 
-0.000256288 0.000304329 1.00043 
-0.000216477 0.000354801 1.00064 
-0.000193604 0.000357137 1.00064 
-0.000244687 0.000390732 1.00064 
-0.000259 0.000518022 1.00063 
-0.000172655 0.00058654 1.00063 
-0.000153507 0.00052238 1.00063 
-0.000303739 0.000516802 1.00063 
-0.000550494 0.000649426 1.00063 
-0.000948786 0.00108212 1.00063 
-0.00142659 0.0020415 1.00064 
-0.00230498 0.00342275 1.00064 
-0.00440076 0.00547038 1.00063 
-0.00707349 0.00848968 1.0006 
-0.00928589 0.0146298 1.00051 
-0.0125589 0.0204237 1.00035 
-0.0257374 0.0306226 0.99981 
-0.0397737 0.0596043 0.997959 
-0.0441363 0.0949749 0.994982 
-0.0492664 0.127165 0.991044 
-0.0695734 0.17628 0.982096 
-0.0801176 0.236834 0.968609 
-0.103779 0.320148 0.941929 
-0.090969 0.495883 0.86401 
-0.00591344 0.791901 0.616883 
0.0768078 0.628276 -0.774009 
0.112189 0.379843 -0.918485 
0.0857449 0.20982 -0.974216 
0.06523 0.161105 -0.985093 
0.0508297 0.11766 -0.992164 
0.0418245 0.0833497 -0.996151 
0.0286709 0.0503233 -0.998877 
0.0168754 0.0358509 -0.999818 
0.01197 0.0197973 -1.00038 
0.00803218 0.0112729 -1.00037 
0.00594327 0.00845343 -1.00083 
0.00418355 0.00603002 -1.00043 
0.00242176 0.00373988 -1.00066 
0.00142564 0.0022178 -1.00065 
0.000969949 0.00123162 -1.00064 
0.000608461 0.00074414 -1.00063 
0.000349903 0.000594135 -1.00063 
0.000197983 0.000587571 -1.00063 
0.000169946 0.000610608 -1.00063 
0.000232514 0.000528709 -1.00063 
0.000231261 0.000400509 -1.00063 
0.000189273 0.000375972 -1.00063 
0.000216505 0.000386504 -1.00063 
0.000263424 0.000326099 -1.00063 
0.000267471 0.000226326 -1.00063 
0.00023694 0.000141566 -1.00063 
0.000198497 8.07699e-05 -1.00063 
0.000157742 4.05988e-05 -1.00063 
0.000114937 1.56746e-05 -1.00064 
6.77145e-05 9.45207e-06 -1.00065 
1.71892e-05 1.74785e-05 -1.00065 
-7.78554e-06 3.27936e-05 -1.00067 
-1.62011e-05 4.88009e-05 -1.00067 
-1.17631e-05 7.526e-05 -1.00068 
5.38643e-07 9.08208e-05 -1.00069 
4.35693e-06 0.00010207 -1.0007 
2.28641e-06 0.000108287 -1.0007 
3.13023e-06 0.000113622 -1.0007 
1.25335e-06 0.000119633 -1.00047 
8.06639e-07 0.000122272 1.0007 
2.26269e-06 0.000115036 1.00115 
-2.50532e-06 0.0001049 1.00139 
-4.07025e-06 9.54521e-05 1.00138 
-3.77194e-06 8.06946e-05 1.00137 
3.4869e-07 6.59364e-05 1.00136 
1.38093e-06 5.13624e-05 1.00136 
-5.08866e-06 4.69124e-05 1.00155 
-2.9019e-05 4.87666e-05 1.00112 
-7.34415e-05 5.83978e-05 1.00131 
-0.000119056 6.63719e-05 1.00151 
-0.000162105 7.80986e-05 1.00128 
-0.000201862 0.000109142 1.00128 
-0.000238199 0.000150143 1.00127 
-0.000269041 0.000204956 1.00127 
-0.000280229 0.000254961 1.00146 
-0.000269823 0.000308225 1.00126 
-0.000274427 0.000346739 1.00126 
-0.000295347 0.000410105 1.00126 
-0.000283892 0.000493629 1.00125 
-0.000236226 0.000549024 1.00125 
-0.000244781 0.00059607 1.00125 
-0.000344445 0.000733936 1.00125 
-0.000525941 0.00107429 1.00105 
-0.000714286 0.00183432 1.00146 
-0.00118564 0.00328743 1.00128 
-0.00254018 0.00540852 1.00127 
-0.00450599 0.00836598 1.00126 
-0.00651742 0.0128821 1.0012 
-0.00825299 0.0203621 1.00105 
-0.0118423 0.0316822 1.00068 
-0.01794 0.0520031 0.999641 
-0.0242605 0.078504 0.997632 
-0.0175926 0.111142 0.994517 
-0.0183712 0.149469 0.989315 
-0.0157997 0.192805 0.98169 
-0.0293611 0.253512 0.967297 
-0.0515336 0.355581 0.933077 
-0.025439 0.486943 0.873331 
0.0635459 0.844595 0.524319 
0.0452703 0.635165 -0.767197 
0.0598374 0.376236 -0.924636 
0.0534065 0.235282 -0.970837 
0.0208877 0.158338 -0.987721 
0.0169256 0.112584 -0.994429 
0.0149908 0.0825328 -0.997427 
0.0140649 0.0613839 -0.999077 
0.00990043 0.0409149 -1.00027 
0.00732163 0.024704 -1.00092 
0.00637059 0.0144542 -1.00138 
0.00528393 0.00992779 -1.00106 
0.00312125 0.00732313 -1.0015 
0.00158109 0.0047107 -1.00129 
0.000848276 0.00278595 -1.00127 
0.00059743 0.00163796 -1.00125 
0.000478656 0.00102818 -1.00125 
0.000363621 0.000770785 -1.00125 
0.000263124 0.000648663 -1.00124 
0.000224815 0.000570008 -1.00124 
0.000250537 0.000478469 -1.00124 
0.000273475 0.000393623 -1.00125 
0.000268523 0.000350791 -1.00124 
0.000281309 0.000315958 -1.00125 
0.000287684 0.000266384 -1.00125 
0.000272651 0.000202735 -1.00125 
0.000241683 0.00015034 -1.00125 
0.0002052 0.000111431 -1.00125 
0.000165066 8.50051e-05 -1.00107 
0.000119639 7.21997e-05 -1.00148 
6.8793e-05 6.08885e-05 -1.00108 
2.7859e-05 5.72878e-05 -1.0013 
9.41655e-06 5.52351e-05 -1.00153 
-7.07099e-07 5.59717e-05 -1.00112 
5.23449e-06 6.69247e-05 -1.00156 
8.18694e-06 8.6281e-05 -1.00136 
9.05199e-06 9.76527e-05 -1.00138 
8.35101e-06 0.000105261 -1.00139 
4.18981e-06 0.000113569 -1.00114 
6.2173e-06 0.000116537 -1.0007 
-1.60934e-06 0.000120668 1.00071 
-3.89294e-06 0.000114141 1.00139 
-1.14149e-05 0.000102443 1.0016 
-1.33451e-05 8.91012e-05 1.00117 
-1.55877e-05 7.02297e-05 1.00159 
-1.28696e-05 5.66928e-05 1.00115 
-1.53661e-05 5.39068e-05 1.00136 
-2.22629e-05 6.55487e-05 1.00114 
-3.96987e-05 8.03903e-05 1.00154 
-7.31774e-05 0.000100204 1.00132 
-0.000113197 0.000111077 1.0013 
-0.000155191 0.000118471 1.00109 
-0.000190766 0.000137139 1.00128 
-0.000224521 0.000162133 1.00128 
-0.000256722 0.000188358 1.00147 
-0.000279848 0.000219955 1.00127 
-0.000293597 0.000264079 1.00107 
-0.000310498 0.000310337 1.00126 
-0.000330683 0.000379702 1.00126 
-0.000305962 0.000458618 1.00126 
-0.000232604 0.00053046 1.00126 
-0.000183364 0.000614429 1.00126 
-0.000190387 0.000771408 1.00144 
-0.00024987 0.00107739 1.00125 
-0.000289736 0.00176001 1.00126 
-0.000427824 0.00319492 1.00128 
-0.00123306 0.00552162 1.00108 
-0.0027405 0.00832742 1.00148 
-0.00451889 0.0125405 1.00125 
-0.00504112 0.0201384 1.00091 
-0.00472425 0.0317765 1.00103 
-0.00627812 0.0477658 1.00009 
-0.00645376 0.0737004 0.998413 
0.00385013 0.104519 0.995495 
0.0176567 0.147265 0.989734 
0.0388346 0.171511 0.985105 
0.0179294 0.21638 0.976639 
0.00865846 0.305989 0.952442 
0.0476352 0.362122 0.930952 
0.0225376 0.551759 0.832679 
0.0170785 0.614222 -0.788696 
0.00647057 0.39443 -0.917086 
0.0156397 0.234126 -0.97255 
-0.0214564 0.19201 -0.981832 
-0.0135218 0.139619 -0.990999 
-0.00995496 0.0958001 -0.996146 
-0.00215979 0.0683212 -0.998713 
0.00175051 0.0461628 -1.00029 
0.00293112 0.0298709 -1.00082 
0.00432108 0.0173255 -1.00095 
0.00409225 0.011262 -1.00148 
0.00223468 0.00856359 -1.00131 
0.000766359 0.00570192 -1.0013 
0.000233564 0.00340034 -1.00129 
0.000163625 0.00196772 -1.00127 
0.000248636 0.00126786 -1.00126 
0.000264512 0.000923039 -1.00125 
0.00022434 0.000714174 -1.00125 
0.00020207 0.000573251 -1.00125 
0.000241962 0.000466474 -1.00125 
0.00029224 0.000378339 -1.00125 
0.000306073 0.000324435 -1.00106 
0.000303068 0.000280723 -1.00145 
0.000293163 0.000241708 -1.00106 
0.000271304 0.000199763 -1.00126 
0.000239393 0.00016959 -1.00126 
0.000201439 0.0001471 -1.00127 
0.000162546 0.000131002 -1.00147 
0.000119528 0.000117061 -1.0013 
7.53981e-05 0.000102941 -1.0013 
4.19746e-05 8.96534e-05 -1.00131 
2.59731e-05 7.19983e-05 -1.00134 
1.37469e-05 5.62869e-05 -1.00134 
1.68468e-05 5.64011e-05 -1.00136 
1.74754e-05 7.32499e-05 -1.00115 
1.70389e-05 9.03884e-05 -1.00138 
1.52763e-05 0.000103286 -1.0016 
8.75589e-06 0.000111018 -1.00139 
5.26363e-06 0.000115628 -1.00071 
4.02785e-06 0.000126231 1.0007 
-6.76844e-06 0.000118305 1.00139 
-1.72454e-05 0.000108493 1.00139 
-2.36839e-05 8.82136e-05 1.00138 
-2.7711e-05 6.63428e-05 1.00137 
-2.72305e-05 5.31435e-05 1.00137 
-3.03331e-05 5.93277e-05 1.00156 
-3.80595e-05 8.4558e-05 1.00133 
-5.29119e-05 0.000112262 1.00112 
-7.83807e-05 0.000139689 1.0013 
-0.000114519 0.000155476 1.00109 
-0.000154197 0.000163225 1.00148 
-0.000193846 0.000173927 1.00128 
-0.000227365 0.000181904 1.00126 
-0.000259615 0.000187943 1.00106 
-0.000283618 0.000207901 1.00126 
-0.000302551 0.000245062 1.00146 
-0.000328245 0.000294457 1.00126 
-0.000342893 0.000365006 1.00125 
-0.000297542 0.00044572 1.00125 
-0.000190398 0.000528059 1.00125 
-9.47204e-05 0.00063149 1.00124 
-5.66492e-05 0.000802496 1.00105 
-3.82235e-05 0.00110376 1.00143 
4.91039e-05 0.00178936 1.00105 
0.000130671 0.00328093 1.00126 
-0.000261857 0.00577161 1.00147 
-0.00129156 0.00874914 1.00107 
-0.00259692 0.0122053 1.00126 
-0.00208582 0.0188266 1.00139 
0.000399013 0.0287032 1.00097 
0.0025991 0.043013 1.0004 
0.0047922 0.0591621 0.999266 
0.0161253 0.0791729 0.997851 
0.03374 0.103934 0.995088 
0.0596171 0.127257 0.99085 
0.078728 0.187827 0.979552 
0.0532909 0.240241 0.969627 
0.0751422 0.574413 0.814519 
0.0386605 0.879174 0.471198 
0.0987753 0.304585 -0.948215 
-0.0202298 0.279354 -0.960687 
-0.0719971 0.230281 -0.970912 
-0.0590406 0.153246 -0.987215 
-0.0433017 0.110429 -0.993946 
-0.0276444 0.0828667 -0.997214 
-0.0142466 0.0602762 -0.99924 
-0.00505303 0.0410389 -1.0002 
-0.000426963 0.0265235 -1.00095 
0.00226113 0.0154793 -1.00142 
0.00210513 0.0109677 -1.00108 
0.000514682 0.00864017 -1.0013 
-0.000241581 0.00590953 -1.0013 
-0.000438368 0.0034227 -1.00128 
-0.000221096 0.00199933 -1.00126 
1.23769e-05 0.00129966 -1.00125 
0.000108982 0.00095825 -1.00125 
0.00012471 0.00072884 -1.00125 
0.000139942 0.000559385 -1.00125 
0.000217984 0.000442833 -1.00125 
0.000292136 0.000353024 -1.00126 
0.000318504 0.000298256 -1.00145 
0.000313134 0.000259465 -1.00106 
0.000294987 0.000224311 -1.00145 
0.000270736 0.00019832 -1.00126 
0.00023733 0.000187239 -1.00127 
0.000197473 0.000185113 -1.00147 
0.000156908 0.000175155 -1.00108 
0.000116693 0.000161374 -1.00129 
8.05093e-05 0.000140818 -1.0013 
5.30154e-05 0.00011888 -1.00131 
3.91306e-05 8.94628e-05 -1.00133 
3.01954e-05 5.96428e-05 -1.00135 
3.09892e-05 5.27262e-05 -1.00136 
2.80454e-05 6.84554e-05 -1.00137 
2.61398e-05 9.02228e-05 -1.00138 
2.0858e-05 0.000109583 -1.00139 
1.06819e-05 0.000116501 -1.00139 
-3.1336e-06 0.000121675 -1.0007 
4.85501e-06 0.000141762 1.0007 
-9.45597e-06 0.000130018 1.0016 
-1.97336e-05 0.000118301 1.00117 
-2.53268e-05 9.32617e-05 1.0016 
-3.05102e-05 6.87591e-05 1.00116 
-3.43788e-05 5.33112e-05 1.00157 
-3.90083e-05 6.42294e-05 1.00114 
-4.59993e-05 9.98737e-05 1.00133 
-5.92291e-05 0.000137107 1.00153 
-8.16668e-05 0.000174153 1.0013 
-0.000110906 0.000197592 1.00128 
-0.000151039 0.000208772 1.00128 
-0.000190581 0.00021283 1.00127 
-0.000230608 0.000205758 1.00125 
-0.000263981 0.000197001 1.00125 
-0.000286956 0.000207471 1.00125 
-0.000303175 0.000239002 1.00126 
-0.000320508 0.000285212 1.00125 
-0.00030871 0.000344962 1.00125 
-0.000228243 0.000420762 1.00124 
-0.000100239 0.000508272 1.00124 
-1.44877e-06 0.000607359 1.00123 
3.62478e-05 0.000751548 1.00123 
0.00010627 0.001042 1.00123 
0.00031596 0.00172787 1.00124 
0.00068755 0.00330504 1.00125 
0.000659064 0.00589653 1.00127 
4.58211e-05 0.00893853 1.00128 
-0.000783987 0.0123406 1.00128 
0.000780173 0.017302 1.00124 
0.00463647 0.0264039 1.00083 
0.00960435 0.0391731 1.0006 
0.0180091 0.0545668 0.999887 
0.0358999 0.0681804 0.998232 
0.0592411 0.0838711 0.995578 
0.0889145 0.0937636 0.992542 
0.0992083 0.147588 0.984719 
0.103571 0.27685 0.955958 
0.103348 0.411874 0.905013 
0.129679 0.671207 0.728463 
-0.0263786 0.603484 -0.795117 
-0.0771951 0.348174 -0.934259 
-0.118262 0.180995 -0.977135 
-0.0885013 0.117426 -0.990082 
-0.0542946 0.0811334 -0.996406 
-0.0326384 0.0589528 -0.998888 
-0.0163708 0.0440591 -1.0004 
-0.00711844 0.0314187 -1.00085 
-0.00122965 0.0196774 -1.00118 
0.000146301 0.0122082 -1.00129 
-0.000319918 0.00963269 -1.0013 
-0.00115264 0.00738071 -1.00129 
-0.00124268 0.00493889 -1.00128 
-0.000857923 0.00286281 -1.00125 
-0.000376067 0.00168442 -1.00124 
-0.000107998 0.00115164 -1.00124 
4.21806e-06 0.000863452 -1.00124 
3.07205e-05 0.000648768 -1.00124 
6.62923e-05 0.00048872 -1.00124 
0.000169472 0.000386621 -1.00124 
0.000268222 0.000313345 -1.00125 
0.000306596 0.000274542 -1.00125 
0.000309479 0.000243934 -1.00125 
0.000297648 0.000221066 -1.00126 
0.000266885 0.000209763 -1.00126 
0.000225223 0.000217652 -1.00126 
0.0001811 0.000226882 -1.00107 
0.000140275 0.000217241 -1.00127 
0.000103838 0.000204431 -1.00128 
7.91912e-05 0.000173425 -1.0013 
5.90753e-05 0.000143316 -1.00131 
4.69254e-05 9.98543e-05 -1.00133 
3.98537e-05 6.2535e-05 -1.00134 
3.77206e-05 5.32929e-05 -1.00136 
3.19838e-05 6.86838e-05 -1.00137 
2.8355e-05 9.52749e-05 -1.00139 
2.12447e-05 0.000120267 -1.00138 
8.97162e-06 0.000129998 -1.00138 
-7.60571e-06 0.000142788 -1.0007 
3.93266e-06 0.000167633 1.00069 
-8.28694e-06 0.000150003 1.00115 
-1.93719e-05 0.000135485 1.00137 
-2.69879e-05 0.000107462 1.00137 
-3.29186e-05 7.88353e-05 1.00136 
-3.79259e-05 5.74145e-05 1.00136 
-4.25252e-05 6.12624e-05 1.00134 
-4.82161e-05 9.33179e-05 1.00133 
-5.55478e-05 0.000140682 1.00131 
-6.73982e-05 0.000184703 1.00129 
-8.79892e-05 0.000224525 1.00128 
-0.000122114 0.000249199 1.00127 
-0.000163454 0.000260392 1.00126 
-0.000211651 0.000249091 1.00125 
-0.000255395 0.000228609 1.00125 
-0.000283847 0.000218907 1.00125 
-0.000294237 0.00023187 1.00125 
-0.00029964 0.000258637 1.00125 
-0.000285783 0.00029135 1.00124 
-0.000224214 0.000338116 1.00123 
-0.000108324 0.000402601 1.00123 
-3.69539e-06 0.00047569 1.00122 
5.31107e-05 0.000578821 1.00122 
0.00012902 0.000771968 1.00122 
0.000329871 0.00116653 1.00122 
0.000797746 0.00218238 1.00124 
0.00141932 0.00432611 1.00126 
0.0015778 0.00700728 1.00128 
0.000855414 0.0100219 1.00129 
0.00136782 0.0129573 1.0013 
0.00449835 0.0184851 1.00125 
0.00971809 0.0265014 1.00107 
0.0179881 0.0364217 1.00066 
0.0324761 0.0451098 0.999912 
0.0510491 0.0479833 0.999279 
0.100386 0.0674844 0.99381 
0.148014 0.18275 0.97261 
0.140028 0.287974 0.947641 
0.189429 0.586113 0.78745 
0.157375 0.948382 0.255884 
-0.0647351 0.599393 -0.7966 
-0.145297 0.331246 -0.932028 
-0.153111 0.142871 -0.978437 
-0.106628 0.0806056 -0.992152 
-0.0629499 0.0533825 -0.997955 
-0.0350345 0.0410584 -0.999858 
-0.018368 0.0327935 -1.00051 
-0.00734203 0.0222976 -1.00117 
-0.00325621 0.0158063 -1.0013 
-0.00191688 0.0104078 -1.00134 
-0.00203319 0.00864188 -1.00132 
-0.00229057 0.00662987 -1.0013 
-0.00184408 0.00437258 -1.00127 
-0.00118643 0.00262655 -1.00124 
-0.000570733 0.00160767 -1.00123 
-0.000204387 0.00108071 -1.00123 
-6.22313e-05 0.000777893 -1.00123 
-3.4319e-05 0.000562662 -1.00123 
6.83196e-06 0.000415634 -1.00123 
0.000114454 0.000325748 -1.00123 
0.000218656 0.000284919 -1.00124 
0.000281682 0.000267348 -1.00125 
0.000306717 0.00025228 -1.00125 
0.000308272 0.00024027 -1.00125 
0.000278439 0.00024047 -1.00125 
0.000226234 0.000258239 -1.00126 
0.000171578 0.000271321 -1.00126 
0.00012546 0.000263303 -1.00147 
9.26912e-05 0.000243081 -1.00128 
7.23965e-05 0.00020057 -1.0013 
5.98159e-05 0.000153546 -1.00131 
5.21204e-05 0.000106035 -1.00133 
4.41473e-05 6.69714e-05 -1.00134 
4.01593e-05 5.65506e-05 -1.00136 
3.49135e-05 7.23698e-05 -1.00137 
2.9511e-05 0.000102555 -1.00137 
2.20868e-05 0.000131379 -1.00137 
9.78573e-06 0.000148012 -1.00137 
-8.16912e-06 0.000167999 -1.00069 
1.95487e-06 0.000184452 1.00069 
-1.21522e-05 0.000160759 1.00157 
-2.2967e-05 0.000136465 1.00136 
-3.0236e-05 0.000109319 1.00135 
-3.62e-05 7.83442e-05 1.00135 
-4.2358e-05 6.24918e-05 1.00134 
-5.05742e-05 7.43913e-05 1.00133 
-6.05696e-05 0.000114461 1.00131 
-7.00682e-05 0.00016599 1.00129 
-7.95331e-05 0.00021822 1.00128 
-9.76762e-05 0.000267043 1.00126 
-0.000127661 0.000297554 1.00126 
-0.000174015 0.000308712 1.00124 
-0.000226052 0.00029607 1.00124 
-0.000271364 0.000266785 1.00124 
-0.000291515 0.000246948 1.00124 
-0.000282029 0.000243816 1.00124 
-0.000263543 0.000251054 1.00124 
-0.00023026 0.000256629 1.00123 
-0.000182358 0.000281412 1.00122 
-0.000115633 0.000323762 1.00121 
-3.40757e-05 0.0003917 1.00121 
5.07651e-05 0.000483673 1.0012 
0.000167879 0.000656313 1.0012 
0.000442205 0.00109379 1.00121 
0.00105413 0.00211085 1.00124 
0.0018513 0.0037755 1.00127 
0.00238527 0.00666865 1.00109 
0.00239501 0.00895367 1.00154 
0.00271607 0.0115925 1.00137 
0.00579781 0.0159489 1.00135 
0.0124168 0.0217272 1.00124 
0.0205548 0.0242958 1.0011 
0.0320803 0.025654 1.0005 
0.0570708 0.0255955 0.999708 
0.0998826 0.0356827 0.995552 
0.173123 0.131024 0.976798 
0.232461 0.297914 0.925637 
0.229418 0.571038 0.787495 
0.0771325 0.854535 0.508181 
-0.106815 0.603003 -0.788771 
-0.210288 0.226142 -0.951574 
-0.154733 0.0666089 -0.986539 
-0.0864954 0.0283156 -0.997206 
-0.0468589 0.0237714 -1.00023 
-0.0257281 0.0209738 -1.00099 
-0.0132288 0.0195416 -1.00153 
-0.00709183 0.0134432 -1.00142 
-0.00448051 0.0100938 -1.0014 
-0.00369376 0.00813743 -1.00136 
-0.00322167 0.00692386 -1.00131 
-0.00268036 0.0049426 -1.00128 
-0.0019052 0.0032173 -1.00125 
-0.00107338 0.0019874 -1.00122 
-0.000470523 0.00130288 -1.00122 
-0.000174152 0.000873618 -1.00122 
-6.32189e-05 0.000583998 -1.00122 
-1.64859e-05 0.000400191 -1.00122 
3.78735e-05 0.000291696 -1.00122 
0.000116038 0.000236339 -1.00123 
0.000202369 0.000234705 -1.00123 
0.000260411 0.000246151 -1.00124 
0.000300977 0.000259776 -1.00124 
0.000307952 0.000276784 -1.00124 
0.000276497 0.000291161 -1.00125 
0.000215802 0.000312155 -1.00125 
0.000155979 0.000318226 -1.00125 
0.00011605 0.000302583 -1.00107 
9.26315e-05 0.000267956 -1.00127 
7.8738e-05 0.000217438 -1.00129 
7.09745e-05 0.000165125 -1.0013 
6.21095e-05 0.000108978 -1.00131 
5.10555e-05 6.94886e-05 -1.00133 
4.46135e-05 6.33785e-05 -1.00134 
3.83896e-05 7.99801e-05 -1.00136 
3.226e-05 0.0001111 -1.00136 
2.44749e-05 0.000143644 -1.00135 
1.11946e-05 0.000164577 -1.00136 
-6.46666e-06 0.000190758 -1.00068 
-1.03969e-05 0.000196274 1.00067 
-1.6168e-05 0.000176163 1.00112 
-2.2786e-05 0.000152863 1.00134 
-2.97184e-05 0.000124758 1.00134 
-3.54782e-05 9.29449e-05 1.00133 
-4.36473e-05 7.24862e-05 1.00132 
-5.49051e-05 7.67748e-05 1.00131 
-6.78575e-05 0.00011034 1.0013 
-7.97019e-05 0.000162486 1.00128 
-8.61367e-05 0.000220361 1.00127 
-9.20558e-05 0.000277069 1.00125 
-0.00010879 0.000328905 1.00125 
-0.000143244 0.000355845 1.00123 
-0.000192406 0.000358037 1.00123 
-0.000245547 0.000336177 1.00123 
-0.000276226 0.00029963 1.00123 
-0.000265543 0.00025967 1.00123 
-0.000230366 0.000219106 1.00122 
-0.000194782 0.00019422 1.00122 
-0.000162118 0.000191975 1.00121 
-0.000126337 0.000215475 1.0012 
-6.97172e-05 0.000260855 1.00119 
2.80024e-05 0.000324507 1.00119 
0.000150125 0.000439982 1.00119 
0.000324142 0.000717793 1.00138 
0.000756135 0.00133182 1.00103 
0.00157791 0.00236487 1.00145 
0.00267958 0.00440065 1.0013 
0.00326505 0.00653378 1.00133 
0.00345596 0.0087334 1.00139 
0.00479473 0.0112661 1.00143 
0.00882265 0.0141391 1.00119 
0.0144937 0.0142212 1.00148 
0.0225143 0.0115809 1.00176 
0.0417354 0.00801577 1.00074 
0.0757887 -0.00974328 0.999171 
0.169586 0.057947 0.984783 
0.31475 0.224414 0.923393 
0.315229 0.543846 0.778886 
0.083059 0.982878 0.128639 
-0.204752 0.568581 -0.797825 
-0.272617 0.189559 -0.944758 
-0.128514 -0.00162484 -0.992411 
-0.0603853 -0.00760482 -0.999782 
-0.0318211 0.000277098 -1.00134 
-0.0202465 0.0063598 -1.00179 
-0.0109949 0.0100227 -1.00132 
-0.00731217 0.00684427 -1.00158 
-0.00598088 0.00714655 -1.0015 
-0.0047024 0.00638824 -1.00141 
-0.00363773 0.00543109 -1.00113 
-0.00275393 0.00382812 -1.0013 
-0.00176191 0.00237897 -1.00144 
-0.000974406 0.00160346 -1.00122 
-0.00044973 0.00111028 -1.00102 
-0.000213916 0.000732134 -1.00138 
-0.000108217 0.000445788 -1.0012 
-3.60092e-05 0.000271333 -1.00101 
2.01661e-05 0.000183529 -1.0012 
7.87438e-05 0.000145112 -1.00139 
0.00015489 0.000172481 -1.00103 
0.000227529 0.000208906 -1.00123 