# vtk DataFile Version 3.0 
Exported using Morpho https://github.com/Morpho-lang/morpho 
ASCII 
DATASET UNSTRUCTURED_GRID 

POINTS 1978 float 
-12 -4 -3.21459e-14 
-11.6475 -4 2.00249e-12 
-11.3219 -4 4.54122e-12 
-10.9827 -4 1.61008e-12 
-10.6628 -4 1.49902e-12 
-10.3255 -4 -1.186e-12 
-10.003 -4 6.26964e-13 
-9.6791 -4 4.60921e-13 
-9.33898 -4 3.44054e-13 
-9.00894 -4 -1.85306e-12 
-8.6935 -4 1.20659e-12 
-8.38777 -4 1.18309e-13 
-8.08284 -4 1.32589e-12 
-7.77916 -4 -1.19409e-12 
-7.48184 -4 1.00889e-12 
-7.18267 -4 -5.9094e-13 
-6.88145 -4 4.92625e-13 
-6.57894 -4 5.5775e-13 
-6.27901 -4 3.79038e-13 
-5.97374 -4 3.14572e-13 
-5.6665 -4 2.89847e-13 
-5.37583 -4 -5.97046e-13 
-5.09007 -4 -7.457e-13 
-4.791 -4 1.80918e-12 
-4.50558 -4 1.06016e-12 
-4.20787 -4 2.33813e-13 
-3.9263 -4 -5.95935e-13 
-3.61563 -4 -1.09865e-12 
-3.31631 -4 -5.00788e-12 
-3.03726 -4 1.73245e-12 
-2.7637 -4 1.47397e-12 
-2.54881 -4 -1.24824e-11 
-2.32054 -4 3.25557e-12 
-2.08395 -4 -4.64546e-11 
-1.88412 -4 8.81824e-12 
-1.65739 -4 3.55712e-11 
-1.38668 -4 4.79858e-12 
-1.08776 -4 -9.34405e-10 
-0.567941 -4 -4.86633e-09 
-0.0488705 -4 1.42837e-09 
0.435517 -4 8.24144e-10 
0.910837 -4 2.94516e-10 
1.21911 -4 3.52399e-11 
1.50508 -4 -1.06486e-11 
1.77838 -4 3.1983e-11 
2.02065 -4 1.72446e-11 
2.25553 -4 -1.52699e-11 
2.51346 -4 -9.16519e-12 
2.78793 -4 5.11181e-12 
3.05707 -4 8.3857e-12 
3.33368 -4 1.70508e-12 
3.60596 -4 3.3791e-12 
3.88535 -4 1.24645e-13 
4.20489 -4 -8.59755e-13 
4.50566 -4 1.20066e-13 
4.79749 -4 -3.09162e-13 
5.09778 -4 -2.82865e-13 
5.3923 -4 -4.47414e-13 
5.69402 -4 -5.04227e-14 
5.98102 -4 -1.78019e-13 
6.28517 -4 -4.98036e-14 
6.56173 -4 -5.88239e-13 
6.87156 -4 -2.20709e-13 
7.16592 -4 -6.30398e-13 
7.46855 -4 4.15781e-13 
7.77393 -4 -6.40962e-13 
8.07108 -4 5.64611e-13 
8.37368 -4 -8.76512e-13 
8.66942 -4 -1.2914e-12 
8.95507 -4 1.46772e-12 
9.2876 -4 -5.0229e-13 
9.61789 -4 -1.16627e-12 
9.93159 -4 1.71099e-12 
10.3031 -4 -1.97333e-12 
10.6278 -4 8.93086e-13 
10.993 -4 -1.16125e-13 
11.3221 -4 -7.33829e-12 
11.6071 -4 -2.57202e-13 
12 -4 3.29047e-13 
-12 -3.66317 -5.54298e-12 
-11.677 -3.67888 1.76953e-12 
-11.3431 -3.65184 2.03543e-13 
-11.0221 -3.66829 6.25865e-13 
-10.6952 -3.65587 7.99064e-13 
-10.3695 -3.67247 5.66735e-13 
-10.0376 -3.66293 4.02757e-13 
-9.71379 -3.66909 2.9497e-13 
-9.3858 -3.68454 2.02595e-13 
-9.05479 -3.67661 -3.45892e-15 
-8.73546 -3.67126 -7.22467e-16 
-8.4177 -3.66664 -5.22269e-16 
-8.10822 -3.66546 -6.90055e-16 
-7.79777 -3.66287 -5.60268e-16 
-7.49086 -3.65667 -4.50821e-16 
-7.18827 -3.6589 -2.80278e-16 
-6.88495 -3.66314 -1.23239e-16 
-6.57748 -3.66134 -5.66738e-17 
-6.2677 -3.67145 1.69099e-16 
-5.95467 -3.67794 4.93638e-16 
-5.6547 -3.66684 -2.08128e-13 
-5.35545 -3.66867 -3.3173e-13 
-5.04584 -3.68429 -4.72867e-13 
-4.74298 -3.67452 -8.56487e-13 
-4.43351 -3.68535 -9.71715e-13 
-4.13289 -3.66691 -1.75022e-12 
-3.81615 -3.69852 -1.81522e-12 
-3.49635 -3.69344 -2.78464e-12 
-3.19077 -3.6771 -3.01139e-12 
-2.90456 -3.67889 -4.74459e-12 
-2.64891 -3.60152 -4.58447e-12 
-2.41309 -3.64709 -2.23214e-12 
-2.16265 -3.66533 -3.03319e-12 
-1.91512 -3.60437 -7.73437e-12 
-1.673 -3.62692 1.14833e-10 
-1.3969 -3.60746 -1.0854e-10 
-1.12188 -3.50528 -1.82312e-10 
-0.818638 -3.65618 -3.41516e-10 
-0.409685 -3.56214 9.99547e-10 
-0.0217648 -3.41804 -9.82651e-10 
0.363496 -3.56563 -4.01527e-11 
0.802546 -3.62398 6.28474e-10 
1.19504 -3.52434 1.10053e-10 
1.47281 -3.58881 4.74329e-12 
1.7442 -3.64141 -9.25808e-13 
2.00569 -3.63551 -3.98915e-12 
2.24609 -3.65228 -2.52813e-12 
2.49047 -3.69547 2.21269e-12 
2.78154 -3.71062 2.46118e-12 
3.05971 -3.69397 2.94684e-12 
3.33434 -3.66817 2.64215e-12 
3.62242 -3.66988 1.99855e-12 
3.93556 -3.69648 1.46187e-12 
4.24259 -3.67677 1.43795e-12 
4.5418 -3.66907 1.02741e-12 
4.84527 -3.67775 7.14659e-13 
5.14524 -3.671 4.74855e-13 
5.45039 -3.67841 3.2119e-13 
5.74446 -3.65978 2.1134e-13 
6.04354 -3.67471 -4.54033e-16 
6.33068 -3.63948 -1.7838e-16 
6.63263 -3.67424 1.06529e-16 
6.93272 -3.65671 2.29258e-16 
7.23573 -3.66634 4.34342e-16 
7.54418 -3.67038 3.53759e-16 
7.84507 -3.6584 6.24641e-16 
8.14628 -3.66326 7.81628e-16 
8.44218 -3.65544 7.25754e-16 
8.73538 -3.6437 -1.69531e-13 
9.05615 -3.6899 -1.72454e-13 
9.38706 -3.68282 -1.97723e-13 
9.70943 -3.66061 -3.11777e-13 
10.0564 -3.70823 -4.70019e-13 
10.3818 -3.65996 -5.03433e-13 
10.7369 -3.70008 -5.70133e-13 
11.0742 -3.66575 -3.83089e-13 
11.3729 -3.61524 -3.92709e-13 
11.7158 -3.72001 -1.76606e-12 
12 -3.61755 7.49213e-12 
-12 -3.34056 -3.43961e-12 
-11.6692 -3.34522 1.82796e-12 
-11.3431 -3.30954 6.17367e-13 
-11.0186 -3.32685 5.42288e-13 
-10.6843 -3.32483 1.39253e-12 
-10.3529 -3.33819 1.05658e-12 
-10.0269 -3.32782 9.18634e-13 
-9.70988 -3.32887 8.43614e-13 
-9.39774 -3.35697 3.74369e-13 
-9.08134 -3.34804 4.17472e-13 
-8.76881 -3.3368 2.83388e-13 
-8.46298 -3.34063 2.31378e-13 
-8.15078 -3.33077 1.85835e-13 
-7.84652 -3.33053 1.55351e-13 
-7.54032 -3.32034 1.43212e-13 
-7.2362 -3.3187 1.29004e-13 
-6.93456 -3.32421 -1.83908e-16 
-6.63375 -3.33075 -4.32884e-17 
-6.32644 -3.34093 1.59574e-16 
-6.02307 -3.35518 -1.92374e-13 
-5.72076 -3.33845 -3.66e-13 
-5.42268 -3.34211 -6.47317e-13 
-5.11986 -3.36582 -9.9837e-13 
-4.81605 -3.35619 -1.5779e-12 
-4.50966 -3.36806 -2.10279e-12 
-4.20684 -3.34628 -2.90335e-12 
-3.8921 -3.3833 -3.36442e-12 
-3.58089 -3.39121 -4.00521e-12 
-3.27123 -3.37205 -3.70452e-12 
-2.96996 -3.3476 -3.08626e-12 
-2.6945 -3.27651 -4.69929e-13 
-2.41661 -3.27644 1.34119e-12 
-2.18005 -3.31908 2.94735e-12 
-1.92603 -3.26366 1.23271e-11 
-1.64026 -3.25477 -6.08665e-12 
-1.36824 -3.1678 -5.06954e-11 
-1.03862 -3.03081 -3.73313e-10 
-0.732657 -3.14253 -1.49951e-10 
-0.352517 -2.98255 -3.34676e-10 
0.0707825 -2.81003 7.63982e-10 
0.421871 -3.05796 -5.60745e-10 
0.810683 -3.19539 -8.47968e-10 
1.11516 -3.03833 2.13422e-10 
1.42031 -3.10581 3.4607e-11 
1.68132 -3.24008 3.38362e-12 
1.93435 -3.27415 3.74115e-12 
2.18657 -3.28514 -6.9705e-13 
2.42849 -3.34122 5.35454e-13 
2.69543 -3.44279 1.87044e-12 
2.99447 -3.39133 3.02134e-12 
3.27968 -3.34695 5.70809e-12 
3.57667 -3.34589 5.60944e-12 
3.88174 -3.38033 3.91687e-12 
4.19224 -3.35925 3.10633e-12 
4.50241 -3.34186 2.22151e-12 
4.80605 -3.35288 1.56793e-12 
5.10782 -3.34521 9.88953e-13 
5.41069 -3.3561 6.05372e-13 
5.71202 -3.32767 3.70088e-13 
6.01017 -3.33742 1.96293e-13 
6.30518 -3.30152 -2.58051e-16 
6.60403 -3.33774 -6.08922e-17 
6.90283 -3.32297 7.6026e-17 
7.2087 -3.33162 1.9916e-16 
7.51357 -3.34285 -1.51888e-13 
7.82267 -3.32214 -1.73067e-13 
8.12684 -3.32455 -2.00274e-13 
8.42824 -3.30858 -2.40371e-13 
8.74762 -3.32183 -3.0726e-13 
9.06891 -3.37119 -3.0617e-13 
9.39046 -3.35561 -3.59459e-13 
9.6904 -3.30744 -6.62949e-13 
9.99672 -3.38654 -8.10248e-13 
10.3166 -3.32755 -1.21709e-12 
10.6486 -3.38001 -1.52953e-12 
10.9793 -3.34491 -1.05897e-12 
11.295 -3.26478 -3.06497e-13 
11.6344 -3.37067 -1.7436e-12 
12 -3.32092 4.26159e-12 
-12 -3.00921 -2.16949e-12 
-11.6588 -3.01475 1.17134e-12 
-11.3168 -2.97315 -5.54279e-13 
-10.9768 -2.99951 4.64539e-13 
-10.6377 -2.99595 1.08635e-12 
-10.3076 -3.00367 7.01745e-13 
-9.97967 -2.99201 5.97949e-13 
-9.65832 -2.99502 5.24551e-13 
-9.34939 -3.0206 1.62483e-13 
-9.04114 -3.00778 1.41054e-13 
-8.73293 -2.99662 1.77229e-13 
-8.42263 -3.01125 1.46163e-13 
-8.11449 -2.99512 -2.7685e-16 
-7.80711 -2.99634 -8.64943e-17 
-7.49939 -2.98488 -1.52199e-16 
-7.19399 -2.98369 -5.67186e-17 
-6.89129 -2.99042 -1.20118e-16 
-6.58435 -3.00701 8.15925e-17 
-6.28237 -3.01354 2.07329e-16 
-5.98471 -3.02617 4.81343e-16 
-5.68672 -3.00997 -1.90112e-13 
-5.3944 -3.01178 -3.19852e-13 
-5.10254 -3.04432 -5.82418e-13 
-4.80132 -3.03489 -7.45926e-13 
-4.50214 -3.0408 -1.11796e-12 
-4.20009 -3.01722 -1.32867e-12 
-3.89876 -3.06809 -2.74385e-12 
-3.58462 -3.07784 -2.56951e-12 
-3.27637 -3.05829 -2.35649e-12 
-2.98252 -3.01814 -1.7038e-12 
-2.68658 -2.94997 -1.57791e-13 
-2.42979 -2.93063 2.27525e-12 
-2.16005 -2.94525 1.542e-12 
-1.86704 -2.92742 1.22241e-11 
-1.60615 -2.83908 3.2861e-11 
-1.3225 -2.73143 -1.60614e-10 
-1.02135 -2.58386 -2.1764e-09 
-0.628544 -2.54377 1.31993e-09 
-0.203851 -2.38267 2.19972e-09 
0.060813 -1.96337 -1.02429e-09 
0.393637 -2.40251 -1.27736e-10 
0.724782 -2.66788 4.70929e-10 
1.0883 -2.5833 -2.61544e-10 
1.4209 -2.6521 -7.75723e-11 
1.71224 -2.83142 -8.62678e-12 
1.97381 -2.88775 -8.1766e-12 
2.21687 -2.92768 -5.5229e-12 
2.4633 -2.99017 -4.51855e-12 
2.70264 -3.15323 3.77556e-13 
2.97002 -3.07409 6.16927e-12 
3.22692 -3.01597 1.18645e-13 
3.53 -3.02964 1.63418e-12 
3.84345 -3.05379 2.60603e-12 
4.15273 -3.04065 1.70312e-12 
4.46832 -3.02219 1.25378e-12 
4.78269 -3.02561 9.61859e-13 
5.08712 -3.01883 6.13526e-13 
5.3905 -3.03129 3.91805e-13 
5.68979 -3.00355 2.20744e-13 
5.99514 -3.00529 1.33967e-13 
6.29925 -2.97526 8.29071e-17 
6.60592 -3.00218 3.99042e-17 
6.9144 -2.99547 2.12535e-16 
7.2215 -3.00127 1.79269e-16 
7.52955 -3.01401 1.78078e-16 
7.8376 -2.98884 2.25532e-17 
8.13633 -2.9855 2.53959e-16 
8.45524 -2.98576 1.81878e-16 
8.76089 -2.9848 -1.6099e-13 
9.06937 -3.04555 -1.73658e-13 
9.37255 -3.009 -2.10656e-13 
9.68659 -2.97255 -4.55636e-13 
10.0117 -3.04242 -7.68779e-13 
10.3368 -2.98931 -5.99821e-13 
10.6568 -3.05072 -1.05421e-12 
10.9775 -2.999 -3.6227e-13 
11.3269 -2.94628 5.92366e-13 
11.6591 -3.05985 -1.32222e-12 
12 -3.00068 9.20613e-13 
-12 -2.68924 5.62317e-14 
-11.6583 -2.6912 3.6884e-13 
-11.328 -2.63739 -1.21484e-12 
-10.991 -2.67012 -5.52964e-13 
-10.6541 -2.66802 -9.70247e-17 
-10.3181 -2.67095 5.08151e-16 
-9.98939 -2.66417 -1.15152e-15 
-9.65871 -2.66451 1.63287e-13 
-9.33583 -2.67909 -1.01323e-16 
-9.02095 -2.67119 -3.83468e-16 
-8.70363 -2.66659 -2.77198e-16 
-8.39315 -2.67953 8.05908e-17 
-8.07959 -2.66475 -7.66097e-17 
-7.76815 -2.66609 1.62388e-16 
-7.45591 -2.65513 -4.16216e-17 
-7.14807 -2.6545 1.35931e-16 
-6.83915 -2.66998 4.03943e-18 
-6.53824 -2.68094 9.572e-17 
-6.23835 -2.68647 1.85605e-16 
-5.94328 -2.69767 2.48271e-16 
-5.64923 -2.67868 3.13773e-16 
[...]
POINT_DATA 1978 
VECTORS vectors float
4.6803e-05 -0.000631953 1 
0.000253459 -0.0183051 0.999832 
0.000174456 -0.0201196 0.999798 
0.00016606 -0.01458 0.999894 
0.000178606 -0.0096876 0.999953 
0.000183263 -0.00631973 0.99998 
0.000186171 -0.00427969 0.999991 
0.000186288 -0.00316061 0.999995 
0.000185839 -0.00263688 0.999997 
0.000191318 -0.00230644 0.999997 
0.000198649 -0.00214 0.999998 
0.00020096 -0.00193831 0.999998 
0.000200659 -0.00166098 0.999999 
0.000202161 -0.00136427 0.999999 
0.000203971 -0.00105601 0.999999 
0.000203205 -0.000811755 1 
0.00020294 -0.000550996 1 
0.000201601 -0.000291173 1 
0.000199771 1.7614e-05 1 
0.000198141 0.000568671 1 
0.000201198 0.00144868 0.999999 
0.000207406 0.00276646 0.999996 
0.000208046 0.00448342 0.99999 
0.000204691 0.00709141 0.999975 
0.000198029 0.010675 0.999943 
0.00018878 0.0162355 0.999868 
0.000173126 0.0238754 0.999715 
0.000154124 0.0359756 0.999353 
0.000140567 0.0527022 0.99861 
0.000127352 0.0736493 0.997284 
0.000106414 0.100244 0.994963 
6.33517e-05 0.127071 0.991894 
4.7652e-06 0.162582 0.986695 
-6.13813e-05 0.212853 0.977084 
-8.92238e-05 0.261133 0.965303 
-0.000205433 0.323553 0.94621 
-0.000253217 0.428939 0.903334 
-0.000284706 0.557158 0.830407 
-0.000304658 0.822498 0.568767 
-9.09578e-05 0.998059 0.0622714 
0.000210029 0.899202 -0.437534 
0.000294755 0.667906 -0.744245 
0.000279195 0.516182 -0.856479 
0.000223236 0.394246 -0.919005 
0.000147952 0.297883 -0.954602 
6.97194e-05 0.230654 -0.973036 
-1.203e-06 0.179751 -0.983712 
-5.67876e-05 0.138488 -0.990364 
-8.85763e-05 0.102947 -0.994687 
-0.000124403 0.0748115 -0.997198 
-0.000153849 0.0533833 -0.998574 
-0.000170189 0.0382145 -0.99927 
-0.000171432 0.0267259 -0.999643 
-0.00017467 0.0174468 -0.999848 
-0.000187353 0.0113401 -0.999936 
-0.000197884 0.00740337 -0.999973 
-0.000200859 0.00462222 -0.999989 
-0.000201963 0.00271539 -0.999996 
-0.000204156 0.00139872 -0.999999 
-0.000209409 0.000602993 -1 
-0.000209911 8.00997e-05 -1 
-0.000209018 -0.000228967 -1 
-0.000203924 -0.000478668 -1 
-0.000201896 -0.000754785 -1 
-0.000201556 -0.00105991 -0.999999 
-0.000200918 -0.00140623 -0.999999 
-0.00020226 -0.00172568 -0.999999 
-0.000208162 -0.00195515 -0.999998 
-0.000209596 -0.00213017 -0.999998 
-0.000200904 -0.00230463 -0.999997 
-0.00018868 -0.0025233 -0.999997 
-0.00018728 -0.00310899 -0.999995 
-0.000186438 -0.00401627 -0.999992 
-0.000180032 -0.00618175 -0.999981 
-0.000171816 -0.00925767 -0.999957 
-0.000167271 -0.014814 -0.99989 
-0.000182913 -0.0203594 -0.999793 
-0.000261004 -0.0188353 -0.999823 
-3.77297e-05 -0.000490143 -1 
-0.000183705 -6.38551e-05 1 
0.00587985 -0.0128389 0.9999 
0.00673775 -0.0170406 0.999832 
0.00711518 -0.0150629 0.999861 
0.00781663 -0.0107711 0.999911 
0.00788305 -0.00739132 0.999942 
0.00823405 -0.00484034 0.999954 
0.00828886 -0.00338055 0.99996 
0.00805354 -0.002727 0.999964 
0.00811865 -0.0022763 0.999964 
0.00837722 -0.00198275 0.999963 
0.0086548 -0.00176938 0.999961 
0.00857445 -0.00157085 0.999962 
0.00857982 -0.00133857 0.999962 
0.00883113 -0.00107883 0.99996 
0.00880145 -0.000811347 0.999961 
0.00872583 -0.000550133 0.999962 
0.00868777 -0.000269257 0.999962 
0.00862642 0.000124994 0.999963 
0.00858746 0.000757485 0.999963 
0.00879023 0.00170318 0.99996 
0.00872524 0.00312402 0.999957 
0.00831877 0.00523141 0.999952 
0.00836309 0.00825504 0.999931 
0.00765327 0.0128657 0.999888 
0.0075669 0.0196336 0.999779 
0.00615988 0.0293696 0.99955 
0.00525774 0.0436068 0.999035 
0.0040537 0.0630433 0.998003 
0.00255277 0.0877922 0.996136 
0.000778035 0.116954 0.993137 
-0.0013046 0.150076 0.988674 
-0.0036883 0.197497 0.980297 
-0.00673437 0.258001 0.966121 
-0.00813155 0.332017 0.943238 
-0.00881092 0.43624 0.899787 
-0.00964197 0.569001 0.822281 
-0.00806288 0.705616 0.708548 
-0.00688971 0.881948 0.471297 
-0.00258495 0.998041 0.0625083 
0.00285757 0.918433 -0.395567 
0.00499342 0.724354 -0.68941 
0.00734304 0.528021 -0.849199 
0.00714419 0.408875 -0.912562 
0.00599267 0.314725 -0.949164 
0.00483626 0.242075 -0.970245 
0.00272673 0.187531 -0.982255 
0.000307286 0.144495 -0.989506 
-0.0015654 0.106457 -0.994316 
-0.00346472 0.0768852 -0.997034 
-0.00502224 0.05554 -0.998444 
-0.00604703 0.039505 -0.999201 
-0.00638529 0.0264946 -0.999629 
-0.00754348 0.017732 -0.999814 
-0.00812163 0.0117015 -0.999899 
-0.0082678 0.0074834 -0.999938 
-0.00860449 0.00470733 -0.999952 
-0.00863104 0.0027397 -0.999959 
-0.00903644 0.00146334 -0.999958 
-0.00885579 0.000605118 -0.999961 
-0.00939298 0.000108273 -0.999956 
-0.00864761 -0.000241393 -0.999963 
-0.00901473 -0.000544776 -0.999959 
-0.00877476 -0.000839639 -0.999961 
-0.00871356 -0.0011406 -0.999961 
-0.00885904 -0.00143164 -0.99996 
-0.00876105 -0.00166658 -0.99996 
-0.00901382 -0.00183091 -0.999958 
-0.00935526 -0.00196299 -0.999954 
-0.00829528 -0.00224944 -0.999963 
-0.00817972 -0.00270196 -0.999963 
-0.00834241 -0.00336626 -0.99996 
-0.00738726 -0.00480526 -0.999961 
-0.00799298 -0.00745548 -0.99994 
-0.00698796 -0.011328 -0.999911 
-0.00714692 -0.0159006 -0.999848 
-0.00726265 -0.0167643 -0.999833 
-0.00525065 -0.0120844 -0.999913 
0.000220994 -8.40082e-05 -1 
-0.000163213 -0.000197531 1 
0.00792744 -0.010623 0.999912 
0.0102906 -0.0168134 0.999806 
0.0113146 -0.0158894 0.99981 
0.0124527 -0.011627 0.999855 
0.0129379 -0.0079309 0.999885 
0.0135612 -0.00514422 0.999895 
0.0139412 -0.00346965 0.999897 
0.0137046 -0.00270963 0.999902 
0.0139628 -0.00220391 0.9999 
0.0139929 -0.0018069 0.9999 
0.0138657 -0.00161694 0.999903 
0.0137806 -0.00151783 0.999904 
0.0136802 -0.00138439 0.999905 
0.013731 -0.00116691 0.999905 
0.013721 -0.000894172 0.999905 
0.0137425 -0.000617111 0.999905 
0.0136894 -0.000322411 0.999906 
0.0137635 9.49583e-05 0.999905 
0.0138043 0.000723986 0.999904 
0.0139454 0.00166586 0.999901 
0.0138787 0.00301209 0.999899 
0.0136673 0.00504045 0.999894 
0.0134801 0.00809709 0.999876 
0.0128026 0.0126787 0.999838 
0.0120729 0.0193428 0.99974 
0.0106765 0.028889 0.999526 
0.00893982 0.0423283 0.999064 
0.00667806 0.0610848 0.99811 
0.00399782 0.0865779 0.996237 
0.000911212 0.118746 0.992924 
-0.00269787 0.157816 0.987465 
-0.00571652 0.198746 0.980034 
-0.00926521 0.257619 0.966202 
-0.0121326 0.344319 0.938774 
-0.0129629 0.450423 0.892721 
-0.0126704 0.5768 0.816787 
-0.01089 0.735376 0.677572 
-0.00644767 0.922084 0.386937 
-0.000853965 0.998072 -0.0620635 
0.00409397 0.895951 -0.444134 
0.00810808 0.693311 -0.720593 
0.0102188 0.549881 -0.835181 
0.0104446 0.426985 -0.904198 
0.00955332 0.334657 -0.942292 
0.00781449 0.26447 -0.964362 
0.00520022 0.207546 -0.978212 
0.0020854 0.161685 -0.98684 
-0.00136935 0.121082 -0.992642 
-0.00459453 0.0870496 -0.996193 
-0.00716829 0.0622478 -0.998035 
-0.00940107 0.0439471 -0.99899 
-0.0106687 0.0302009 -0.999487 
-0.0119567 0.0205044 -0.999718 
-0.0128414 0.0135687 -0.999825 
-0.0133041 0.00872335 -0.999873 
-0.0136262 0.00551192 -0.999892 
-0.0137043 0.00331714 -0.999901 
-0.013851 0.0018467 -0.999902 
-0.0138694 0.000854581 -0.999903 
-0.0141166 0.000211466 -0.9999 
-0.0139384 -0.000244707 -0.999903 
-0.0139234 -0.000593488 -0.999903 
-0.0137696 -0.000885423 -0.999905 
-0.0137053 -0.00113951 -0.999905 
-0.0137873 -0.00136776 -0.999904 
-0.0138409 -0.00151234 -0.999903 
-0.0139335 -0.00158754 -0.999902 
-0.0140417 -0.00177138 -0.9999 
-0.0137301 -0.00219483 -0.999903 
-0.0137368 -0.00274588 -0.999902 
-0.0139804 -0.0034629 -0.999896 
-0.0131007 -0.00490565 -0.999902 
-0.0132102 -0.0075636 -0.999884 
-0.0121827 -0.0109652 -0.999866 
-0.0115239 -0.0154372 -0.999814 
-0.0107483 -0.0173105 -0.999792 
-0.00832789 -0.0115927 -0.999898 
0.000108619 -0.000197557 -1 
-9.16834e-05 -0.000111357 1 
0.00734851 -0.0109903 0.999913 
0.00954587 -0.017984 0.999793 
0.011119 -0.0163622 0.999804 
0.0120035 -0.0116579 0.99986 
0.0126418 -0.00807601 0.999887 
0.0128376 -0.00507361 0.999905 
0.012961 -0.00324218 0.999911 
0.0131332 -0.0025158 0.999911 
0.0127906 -0.00194923 0.999916 
0.012488 -0.00150224 0.999921 
0.0124794 -0.00137971 0.999921 
0.0120363 -0.0014079 0.999927 
0.0119823 -0.0013681 0.999927 
0.0117927 -0.00119791 0.99993 
0.0117909 -0.000950545 0.99993 
0.0118916 -0.000667893 0.999929 
0.0122055 -0.00030291 0.999925 
0.0123177 0.000217042 0.999924 
0.0123961 0.000948662 0.999923 
0.0121795 0.00199831 0.999924 
0.0122362 0.00349405 0.999919 
0.0123893 0.00561272 0.999907 
0.0120298 0.00900842 0.999887 
0.0116512 0.0139063 0.999835 
0.0108457 0.0210046 0.999721 
0.0102642 0.0302859 0.999489 
0.0083984 0.0441123 0.998991 
0.00605657 0.0639068 0.997937 
0.00329537 0.0894119 0.995989 
0.000101855 0.122803 0.992431 
-0.00269913 0.159614 0.987176 
-0.00577869 0.207353 0.978249 
-0.00884261 0.277747 0.960613 
-0.010152 0.361681 0.932247 
-0.00984537 0.460791 0.887454 
-0.00760423 0.60087 0.799311 
-0.00620471 0.780347 0.625316 
-0.00164361 0.954324 0.298769 
0.00049684 0.997947 -0.0640518 
0.0024413 0.896722 -0.442587 
0.00578704 0.740816 -0.671684 
0.00665916 0.567123 -0.823606 
0.00723422 0.428083 -0.90371 
0.00733158 0.330095 -0.943919 
0.00580068 0.255787 -0.966716 
0.00391709 0.201587 -0.979463 
0.00174039 0.15818 -0.987409 
-0.00116087 0.121972 -0.992533 
-0.00401254 0.0905117 -0.995887 
-0.00561603 0.0698706 -0.99754 
-0.00789969 0.049811 -0.998727 
-0.00977608 0.0339672 -0.999375 
-0.0108003 0.0231927 -0.999673 
-0.0113845 0.0152882 -0.999818 
-0.0118305 0.00968454 -0.999883 
-0.0119617 0.00606525 -0.99991 
-0.0122576 0.00368996 -0.999918 
-0.012164 0.00213465 -0.999924 
-0.0120866 0.000991417 -0.999926 
-0.0117819 0.000223214 -0.999931 
-0.0120488 -0.000297178 -0.999927 
-0.0120356 -0.000676352 -0.999927 
-0.0120825 -0.000969314 -0.999927 
-0.0122137 -0.00121975 -0.999925 
-0.011881 -0.00138565 -0.999928 
-0.0118383 -0.00141743 -0.999929 
-0.0121457 -0.00138959 -0.999925 
-0.0123631 -0.00152136 -0.999922 
-0.0131724 -0.00200451 -0.999911 
-0.0130011 -0.00257747 -0.999912 
-0.0127256 -0.00340937 -0.999913 
-0.013252 -0.00531226 -0.999898 
-0.0125294 -0.00845326 -0.999886 
-0.012347 -0.0118643 -0.999853 
-0.0111808 -0.0163467 -0.999804 
-0.00945484 -0.018012 -0.999793 
-0.00771746 -0.0109424 -0.99991 
0.00015534 -8.08326e-05 -1 
-6.46619e-05 -0.000133934 1 
0.00531379 -0.0119044 0.999915 
0.00679379 -0.0190974 0.999795 
0.0080483 -0.0173895 0.999816 
0.00863323 -0.0125306 0.999884 
0.00903771 -0.00859137 0.999922 
0.00908668 -0.00528099 0.999945 
0.00902313 -0.00313823 0.999954 
0.00900645 -0.00226536 0.999957 
0.00867251 -0.00166672 0.999961 
0.00831001 -0.00124716 0.999965 
0.00834208 -0.00123929 0.999964 
0.0080156 -0.00139109 0.999967 
0.00802718 -0.00141521 0.999967 
0.00785815 -0.00127003 0.999968 
0.00788886 -0.00102072 0.999968 
0.0080428 -0.000694631 0.999967 
0.00822558 -0.00026912 0.999966 
0.00825146 0.000332329 0.999966 
0.00835712 0.00114404 0.999964 
0.00813681 0.0022885 0.999964 
0.00823127 0.00398437 0.999958 
0.00850044 0.00641576 0.999943 
0.00817825 0.0101829 0.999915 
0.0078939 0.0156006 0.999847 
0.00722426 0.023662 0.999694 
0.00687743 0.0343588 0.999386 
0.00543159 0.0501674 0.998726 
0.00345349 0.072061 0.997394 
0.00116492 0.102138 0.99477 
-0.000901291 0.137829 0.990456 
-0.00300178 0.181334 0.983417 
-0.00545794 0.242282 0.97019 
-0.00601744 0.309583 0.950853 
-0.00597727 0.402444 0.915425 
-0.0044903 0.547337 0.8369 
-0.00202155 0.782447 0.622714 
0.000535539 0.756911 0.653518 
0.000666171 0.9315 0.36374 
0.00237951 0.945612 0.325287 
0.000600722 0.989383 -0.145328 
0.0013335 0.840736 -0.541444 
0.00325201 0.667463 -0.744636 
0.00344943 0.484455 -0.874809 
0.00421719 0.351788 -0.93607 
0.00361213 0.26689 -0.96372 
0.00242875 0.204376 -0.978889 
0.00114058 0.159327 -0.987225 
-0.000744201 0.121927 -0.992539 
-0.0022863 0.0961338 -0.995366 
-0.00408986 0.0679366 -0.997681 
-0.00564756 0.0477535 -0.998843 
-0.00696129 0.0331181 -0.999427 
-0.00762002 0.0224787 -0.999718 
-0.00784089 0.0148239 -0.999859 
-0.00801537 0.00953757 -0.999922 
-0.00812605 0.00595548 -0.999949 
-0.00835901 0.00369787 -0.999958 
-0.0082414 0.00206513 -0.999964 
-0.0081762 0.000942848 -0.999966 
-0.00783508 0.000139257 -0.999969 
-0.00812908 -0.000385414 -0.999967 
-0.00804442 -0.00077807 -0.999967 
-0.00808337 -0.00107867 -0.999967 
-0.00826902 -0.00131745 -0.999965 
-0.00776002 -0.00143795 -0.999969 
-0.00790715 -0.00137713 -0.999968 
-0.00799346 -0.00122162 -0.999967 
-0.00805095 -0.00123985 -0.999967 
-0.00916539 -0.00169943 -0.999957 
-0.00888386 -0.00229778 -0.999958 
-0.00871635 -0.00320749 -0.999957 
-0.00953138 -0.00529146 -0.999941 
-0.00901448 -0.00875228 -0.999921 
-0.00902862 -0.012672 -0.999879 
-0.00799575 -0.0175399 -0.999814 
-0.00647352 -0.0184265 -0.999809 
-0.00533797 -0.0106231 -0.999929 
7.18155e-05 -0.000109213 -1 
-1.66304e-06 -0.000127364 1 
0.00320697 -0.0105209 0.99994 
0.00433053 -0.0181133 0.999827 
0.00525872 -0.0190548 0.999805 
0.00575586 -0.0145352 0.999878 
0.00600534 -0.0100237 0.999932 
0.00589931 -0.0062431 0.999963 
0.00582213 -0.0035456 0.999977 
0.00567856 -0.00226044 0.999981 
0.00534841 -0.00155682 0.999984 
0.00494104 -0.00108271 0.999987 
0.00467738 -0.00107841 0.999988 
0.00456459 -0.00132666 0.999989 
0.00444486 -0.00149225 0.999989 
0.00439836 -0.0014431 0.999989 
0.00436535 -0.00123858 0.99999 
0.00453063 -0.000932325 0.999989 
0.00459573 -0.000544732 0.999989 
0.00470668 -2.34546e-05 0.999989 
0.00474798 0.000709098 0.999988 
0.0046987 0.00169921 0.999988 
0.00464394 0.00320963 0.999984 
0.00468341 0.00543042 0.999974 
0.00476613 0.00859379 0.999952 
0.00465585 0.013392 0.999899 
0.00451571 0.0201663 0.999786 
0.00432457 0.0304282 0.999528 
0.00382463 0.0434388 0.999049 
0.00270585 0.061935 0.998077 
0.001338 0.0877235 0.996144 
-7.07878e-05 0.119112 0.992881 
-0.00132543 0.163815 0.98649 
-0.00277057 0.214549 0.976709 
-0.00301306 0.274321 0.961634 
-0.00302497 0.352203 0.935919 
-0.00265775 0.449727 0.893162 
-0.00162752 0.622919 0.782285 
0.00220484 0.777637 0.62871 
0.00540445 0.91785 0.396891 
-0.00457281 0.984218 -0.176899 
3.27117e-05 0.961853 -0.273567 
-0.00363815 0.830362 -0.557212 
-8.62317e-05 0.817136 -0.576445 
0.00132392 0.62124 -0.783619 
0.00200809 0.412422 -0.910991 
0.00195113 0.30299 -0.952992 
0.00130372 0.226272 -0.974063 
0.000534746 0.171494 -0.985185 
-0.000389206 0.127844 -0.991794 
-0.00123141 0.102574 -0.994725 
-0.00243901 0.0773811 -0.996999 
-0.00336704 0.0531919 -0.998579 
-0.00425387 0.0358547 -0.999348 
-0.00463033 0.0244213 -0.999691 
-0.00468076 0.0162406 -0.999857 
-0.00464621 0.0103782 -0.999935 
-0.00466393 0.00646673 -0.999968 
-0.00459079 0.0038944 -0.999982 
-0.00471031 0.00224445 -0.999986 
-0.00462055 0.00102147 -0.999989 
-0.00454204 0.000181755 -0.99999 
-0.00464103 -0.000448772 -0.999989 
-0.00457396 -0.000869638 -0.999989 
-0.00440077 -0.0011799 -0.99999 
-0.00452086 -0.0013865 -0.999989 
-0.00422035 -0.00149984 -0.99999 
-0.0044021 -0.00137403 -0.999989 
-0.00423636 -0.0010951 -0.99999 
-0.00429945 -0.000984224 -0.99999 
-0.0052943 -0.00137078 -0.999985 
-0.00545777 -0.00205656 -0.999983 
-0.00544445 -0.0030153 -0.999981 
-0.00628465 -0.00514835 -0.999967 
-0.00603714 -0.00892193 -0.999942 
-0.00619453 -0.0132692 -0.999893 
-0.00545253 -0.0183583 -0.999817 
-0.00438444 -0.0192739 -0.999805 
-0.00367927 -0.0112739 -0.99993 
2.33072e-05 -0.000113239 -1 
-3.82194e-06 -0.000124449 1 
0.00227108 -0.0117171 0.999929 
0.00307659 -0.0201706 0.999792 
0.0033178 -0.018242 0.999828 
0.00347544 -0.0128801 0.999911 
0.00339632 -0.008563 0.999958 
0.00321656 -0.0048932 0.999983 
0.00301402 -0.00263863 0.999992 
0.00259702 -0.00161836 0.999995 
0.00226868 -0.00102394 0.999997 
0.00203203 -0.000831704 0.999998 
0.001699 -0.00109574 0.999998 
0.00169575 -0.00144368 0.999998 
0.00157659 -0.00158813 0.999998 
0.00159845 -0.00149548 0.999998 
0.00161074 -0.00125535 0.999998 
0.00168337 -0.00093319 0.999998 
0.00179271 -0.00049627 0.999998 
0.00193067 0.000121929 0.999998 
0.00184772 0.000956367 0.999998 
0.00191477 0.0021919 0.999996 
0.00188432 0.00406291 0.99999 
0.00186157 0.00680259 0.999975 
0.00191619 0.0107963 0.99994 
0.00192396 0.0165984 0.99986 
0.00215555 0.0253584 0.999676 
0.00191219 0.0373433 0.999301 
0.00161551 0.0532251 0.998581 
0.000973742 0.0761677 0.997095 
4.24035e-05 0.104183 0.994558 
-0.000702233 0.14655 0.989203 
-0.00125998 0.208961 0.977923 
-0.00126943 0.277152 0.960825 
-0.00127077 0.366839 0.930283 
-0.00107325 0.509196 0.86065 
0.000700919 0.620492 0.784212 
0.00308926 0.74967 0.661805 
-0.00172472 0.694681 0.719316 
0.00521218 0.7804 0.625259 
0.00823601 0.862693 0.505662 
-0.00816854 0.855334 -0.518013 
-0.00419437 0.741991 -0.670396 
-0.00163035 0.749061 -0.662499 
-0.000352626 0.626049 -0.779784 
0.000888963 0.486629 -0.873609 
0.000729844 0.344752 -0.938693 
0.000316719 0.255826 -0.966723 
-0.000118223 0.191657 -0.981462 
-0.00033573 0.137192 -0.990544 
-0.000781149 0.103224 -0.994658 
-0.00141653 0.075849 -0.997118 
-0.00193587 0.052259 -0.998632 
-0.0021987 0.0350806 -0.999382 
-0.00218343 0.0236701 -0.999717 
-0.00206216 0.0157865 -0.999873 
-0.00194257 0.0100698 -0.999947 
-0.00189482 0.00619507 -0.999979 
-0.00171273 0.00366278 -0.999992 
-0.00191617 0.00198697 -0.999996 
-0.00178316 0.000815818 -0.999998 
-0.00190264 -5.5673e-05 -0.999998 
-0.00177507 -0.000648144 -0.999998 
-0.00175157 -0.00106613 -0.999998 
-0.00157133 -0.00135586 -0.999998 
-0.00158952 -0.00152515 -0.999998 
-0.00141904 -0.00156427 -0.999998 
-0.00154685 -0.00135673 -0.999998 
-0.00132642 -0.000990991 -0.999999 
-0.00158921 -0.000784056 -0.999998 
-0.00234281 -0.00114036 -0.999997 
-0.00257165 -0.00182461 -0.999995 
-0.00289193 -0.00305152 -0.999991 
-0.00366064 -0.00557127 -0.999978 
-0.00346798 -0.00948195 -0.999949 
-0.00390111 -0.0137884 -0.999897 
-0.00341174 -0.0186745 -0.99982 
-0.00282648 -0.0197666 -0.999801 
-0.0024447 -0.0116668 -0.999929 
3.0836e-05 -0.000113666 -1 
-2.54036e-05 -0.000121894 1 
0.00140695 -0.0109627 0.999939 
0.00198621 -0.0198331 0.999801 
0.00192812 -0.0187217 0.999823 
0.0018271 -0.0134254 0.999908 
0.00163541 -0.0088577 0.999959 
0.00143445 -0.0050249 0.999986 
0.0011708 -0.00256107 0.999996 
0.000782536 -0.00137205 0.999999 
0.000457455 -0.000753499 1 
0.000322561 -0.000660807 1 
0.000103188 -0.00100901 0.999999 
7.84821e-05 -0.00145792 0.999999 
5.06515e-05 -0.00168127 0.999999 
7.32783e-05 -0.00165049 0.999999 
0.000124385 -0.00145011 0.999999 
0.0001439 -0.00114292 0.999999 
0.000222165 -0.000720366 1 
0.000327376 -0.000121198 1 
0.000299785 0.000683671 1 
0.000376802 0.00184615 0.999998 
0.000420775 0.00358174 0.999993 
0.000401089 0.00620021 0.999981 
0.000413031 0.0099571 0.99995 
0.000385359 0.015323 0.999883 
0.000598046 0.0233027 0.999728 
0.000603353 0.0343253 0.999411 
0.000597095 0.0497751 0.99876 
0.000427065 0.0712662 0.997457 
-8.72972e-05 0.10294 0.994688 
-0.000444191 0.152362 0.988325 
-0.000507653 0.208852 0.977947 
-0.000576069 0.291084 0.956697 
-0.000500871 0.40552 0.914086 
0.000400663 0.508896 0.860828 
0.00220212 0.639292 0.768961 
0.00122264 0.609338 0.792909 
0.00943718 0.975753 0.21867 
0.0100381 0.986393 0.164095 
0.00382546 0.996913 0.0784192 
-0.00388711 0.99976 -0.0215611 
-0.0164651 0.988757 -0.148619 
-0.00627182 0.793614 -0.608389 
-0.000469543 0.491486 -0.870885 
-0.00107154 0.530088 -0.847942 
5.73707e-05 0.397268 -0.917703 
-0.000269673 0.295076 -0.955474 
-0.000542739 0.219721 -0.975563 
-0.000514927 0.144777 -0.989464 
-0.000648644 0.108565 -0.994089 
-0.00079084 0.0760339 -0.997105 
-0.000951011 0.0532387 -0.998581 
-0.000881903 0.0362908 -0.999341 
-0.000694745 0.0243846 -0.999702 
-0.000541836 0.0162853 -0.999867 
-0.000458622 0.0104725 -0.999945 
-0.000407202 0.00637302 -0.99998 
-0.000299088 0.00381231 -0.999993 
-0.00039529 0.00205564 -0.999998 
-0.000274948 0.000811847 -1 
-0.000335576 -5.60303e-05 -1 
-0.000223233 -0.000695275 -1 
-0.000200739 -0.0011466 -0.999999 
-0.000120865 -0.00145245 -0.999999 
-4.70871e-05 -0.00164358 -0.999999 
2.785e-06 -0.00168013 -0.999999 