# vtk DataFile Version 3.0 
Exported using Morpho https://github.com/Morpho-lang/morpho 
ASCII 
DATASET UNSTRUCTURED_GRID 

POINTS 1978 float 
-12.0031 -4.00597 -6.98632e-06 
-11.6503 -4.01282 5.68213e-05 
-11.3677 -4.00663 8.46337e-06 
-11.0115 -4.01464 0.000113607 
-10.6772 -4.01035 -0.000101176 
-10.3205 -4.01213 1.40388e-05 
-9.99489 -4.01175 5.17217e-05 
-9.65715 -4.00813 -4.328e-05 
-9.32484 -4.01022 4.14953e-05 
-8.98795 -4.00891 4.76316e-05 
-8.67677 -4.00707 4.83352e-06 
-8.3602 -4.01002 8.51917e-05 
-8.03945 -4.00784 7.63119e-06 
-7.73717 -4.00979 5.65518e-05 
-7.47226 -4.01043 7.41863e-05 
-7.21074 -4.00974 5.6705e-05 
-6.92355 -4.01078 6.84182e-05 
-6.61215 -4.01057 7.39597e-05 
-6.3073 -4.00831 8.78288e-05 
-5.99327 -4.00752 9.53376e-05 
-5.66213 -4.00783 0.000111888 
-5.35297 -4.00473 9.79856e-05 
-5.04995 -4.00883 8.67261e-05 
-4.77357 -4.00607 0.000130643 
-4.45059 -4.0128 0.000155805 
-4.16306 -4.01152 0.00018186 
-3.88882 -4.00767 0.000181569 
-3.55479 -4.0107 0.000121845 
-3.2601 -4.01012 0.000153309 
-2.96103 -4.00714 9.68431e-05 
-2.72286 -4.01115 -8.47471e-06 
-2.4818 -4.0015 -0.00013654 
-2.25291 -4.01748 0.000205206 
-2.01538 -4.00351 0.000108346 
-1.79821 -4.01144 0.000308214 
-1.58105 -4.00586 0.000745273 
-1.36084 -3.99673 0.00311003 
-1.12955 -3.97953 0.0118238 
-0.825426 -3.94798 -0.000571836 
-0.324846 -3.74511 -0.0111067 
0.575645 -3.76419 0.00074841 
1.15923 -3.96934 -0.00821414 
1.36597 -4.00545 -0.0016029 
1.53911 -4.00427 -0.00171207 
1.75852 -3.99953 -0.000309873 
1.93858 -4.00787 -0.000177225 
2.116 -4.00527 -8.53951e-05 
2.39529 -4.0086 1.1586e-05 
2.67731 -4.01865 2.55201e-05 
3.0168 -4.0132 -8.47233e-05 
3.29323 -4.00614 -0.000114387 
3.56729 -4.00988 -0.000118491 
3.85504 -4.01146 -0.000110072 
4.1849 -4.01127 -0.000137644 
4.49459 -4.00987 -0.000166128 
4.7834 -4.00957 -0.000108299 
5.08387 -4.00897 -7.63739e-05 
5.3892 -4.00575 -9.11151e-05 
5.71479 -4.0048 -0.00012989 
6.01979 -4.00449 -0.000102612 
6.32474 -4.00654 -9.52163e-05 
6.60143 -4.00761 -7.37213e-05 
6.89865 -4.00625 -6.2012e-05 
7.17568 -4.00968 -8.79334e-05 
7.47393 -4.0056 -3.78987e-05 
7.76278 -4.00811 -2.5975e-05 
8.05342 -4.0063 2.06779e-05 
8.34313 -4.00484 -8.44764e-05 
8.63648 -4.00176 9.59066e-06 
8.92572 -4.00129 -6.90969e-05 
9.28089 -4.00206 -2.23933e-05 
9.6108 -4.00368 4.02806e-05 
9.91541 -4.00223 -6.9433e-05 
10.2837 -4.00411 5.07798e-05 
10.6126 -4.00923 2.53426e-05 
11.0017 -4.004 -3.3507e-05 
11.3292 -4.00409 -5.00872e-05 
11.6258 -4.01078 -5.35832e-05 
12.0025 -4.00764 -2.7484e-06 
-12.0116 -3.66495 -5.12086e-05 
-11.7067 -3.71163 -3.348e-05 
-11.3738 -3.6225 5.9649e-05 
-11.0829 -3.70356 -5.49883e-06 
-10.7396 -3.68378 -4.11202e-05 
-10.3956 -3.70297 5.58313e-05 
-10.0489 -3.6755 -5.84571e-05 
-9.72936 -3.69109 -3.23773e-05 
-9.39481 -3.69335 1.15015e-06 
-9.06352 -3.69843 -2.72032e-05 
-8.73783 -3.6794 -1.67899e-05 
-8.42411 -3.6855 -7.52696e-05 
-8.11017 -3.69243 -1.16237e-05 
-7.79494 -3.68009 -8.00668e-05 
-7.50362 -3.64302 -5.02237e-05 
-7.21608 -3.67635 -6.15115e-05 
-6.90888 -3.70068 -3.79671e-05 
-6.60568 -3.68545 -6.0365e-05 
-6.29519 -3.67965 -6.34154e-05 
-5.97071 -3.68488 -7.95602e-05 
-5.65893 -3.66659 -7.27522e-05 
-5.34669 -3.67015 -8.6383e-05 
-5.06005 -3.66044 -9.95511e-05 
-4.72793 -3.72118 -0.000123548 
-4.42878 -3.69878 -0.000139942 
-4.147 -3.68569 -0.000119385 
-3.81548 -3.74381 -0.000153254 
-3.50122 -3.7143 -0.000107663 
-3.18803 -3.71641 -0.000112539 
-2.89042 -3.68167 -2.74933e-05 
-2.61522 -3.64752 9.45045e-06 
-2.34994 -3.66499 2.41967e-05 
-2.09249 -3.6683 0.000152588 
-1.83793 -3.62813 -0.000351532 
-1.61535 -3.61237 -0.0009095 
-1.38052 -3.55955 -0.00117447 
-1.13701 -3.48138 -0.00563396 
-0.89205 -3.56179 -0.0103316 
-0.482163 -3.43525 0.00197515 
0.0596015 -3.34107 -0.0281601 
0.560401 -3.49109 0.030183 
0.944214 -3.53554 0.0103898 
1.19456 -3.44191 0.004925 
1.47369 -3.61824 0.00157232 
1.7088 -3.61866 0.000523652 
1.92493 -3.57756 4.54576e-05 
2.17327 -3.72525 -4.59568e-05 
2.45966 -3.7307 -0.000255248 
2.76661 -3.77778 3.0844e-05 
3.04391 -3.70176 -6.65344e-06 
3.32314 -3.67759 0.000102392 
3.6125 -3.68954 0.000124534 
3.92544 -3.72212 7.60995e-05 
4.23277 -3.69952 0.000121126 
4.5224 -3.67458 0.00011598 
4.82056 -3.68662 0.000107635 
5.11918 -3.68545 7.14423e-05 
5.43432 -3.69604 8.1804e-05 
5.73606 -3.67047 8.63024e-05 
6.04828 -3.6723 9.14333e-05 
6.33668 -3.65054 8.43907e-05 
6.64325 -3.68989 9.35066e-06 
6.93111 -3.67056 0.000127222 
7.22952 -3.69648 -4.16919e-05 
7.53654 -3.69205 8.63633e-05 
7.84117 -3.68071 -8.59218e-07 
8.14316 -3.67618 1.36413e-05 
8.44306 -3.66409 5.3546e-05 
8.7372 -3.65207 5.12227e-06 
9.0597 -3.71668 4.49755e-05 
9.39347 -3.69263 2.0784e-05 
9.70409 -3.66184 2.4213e-05 
10.0458 -3.71665 2.91894e-05 
10.3878 -3.6816 -4.25057e-05 
10.7409 -3.7289 3.92691e-05 
11.072 -3.66476 4.6248e-06 
11.3757 -3.63247 -5.14759e-05 
11.7177 -3.72239 4.84832e-05 
12.0122 -3.64515 2.52426e-05 
-12.0056 -3.37231 -1.60424e-05 
-11.6315 -3.37027 -6.53152e-05 
-11.2733 -3.27779 -1.11887e-05 
-10.9699 -3.37026 -1.67365e-05 
-10.6598 -3.31372 4.46193e-05 
-10.3751 -3.38474 -4.60709e-05 
-10.0565 -3.33674 -2.06082e-05 
-9.72455 -3.3657 1.51862e-05 
-9.39152 -3.37735 -3.49081e-05 
-9.05966 -3.37949 -2.73915e-05 
-8.76447 -3.33687 -1.37746e-05 
-8.4603 -3.3595 -1.53275e-05 
-8.15313 -3.35988 -3.63507e-07 
-7.84499 -3.36204 1.38605e-05 
-7.53654 -3.30821 -4.0184e-06 
-7.23878 -3.33657 -5.70215e-05 
-6.94637 -3.38164 -3.56054e-05 
-6.63769 -3.35941 -4.2104e-05 
-6.32527 -3.34968 -1.17588e-05 
-6.00614 -3.35808 -2.99539e-05 
-5.68667 -3.33139 -6.62587e-05 
-5.38047 -3.34199 -4.80522e-05 
-5.08073 -3.31617 -2.78535e-05 
-4.79696 -3.42157 -3.47755e-06 
-4.49195 -3.38709 -3.58203e-05 
-4.20386 -3.35652 -5.08537e-05 
-3.90939 -3.44739 -6.52642e-05 
-3.6049 -3.43047 -4.6422e-05 
-3.28801 -3.41972 -3.91505e-05 
-2.9827 -3.38148 3.93101e-05 
-2.69892 -3.31119 -3.28255e-05 
-2.43804 -3.31478 9.60237e-05 
-2.15155 -3.34763 -3.30767e-05 
-1.85392 -3.32469 2.59982e-05 
-1.5687 -3.21006 7.97059e-05 
-1.3046 -3.14898 -0.000983152 
-1.03066 -3.01445 -0.00209163 
-0.776031 -3.08972 -0.00255389 
-0.450632 -3.0559 -0.00725658 
0.028934 -2.84557 0.00144485 
0.51325 -3.04611 0.00684721 
0.844265 -3.04789 0.00500737 
1.10622 -3.00736 0.000920559 
1.39772 -3.21847 0.0008238 
1.64902 -3.23346 0.000211576 
1.87726 -3.22467 -4.99003e-05 
2.1532 -3.40906 -5.14278e-05 
2.42335 -3.4576 5.10397e-05 
2.69981 -3.47889 5.68394e-05 
2.97621 -3.41311 -6.49239e-06 
3.27102 -3.36438 2.36228e-05 
3.57583 -3.36961 2.39848e-05 
3.87638 -3.41347 6.87463e-05 
4.18317 -3.38853 3.98447e-05 
4.48896 -3.34573 2.73637e-05 
4.78921 -3.36215 1.25343e-05 
5.08988 -3.35612 -1.16546e-05 
5.38739 -3.37803 6.07937e-05 
5.69114 -3.33917 5.15125e-05 
5.99584 -3.3458 6.37779e-05 
6.30846 -3.30109 1.21301e-05 
6.60764 -3.36389 5.2422e-05 
6.90864 -3.3352 2.655e-05 
7.20249 -3.37428 7.58782e-05 
7.50307 -3.38015 -3.33706e-05 
7.81315 -3.36022 5.41022e-06 
8.12464 -3.35563 -1.19691e-05 
8.44329 -3.32488 1.82004e-05 
8.7692 -3.33312 4.13126e-05 
9.08974 -3.40521 9.82436e-06 
9.3991 -3.35758 3.13997e-06 
9.726 -3.33508 -1.58078e-05 
10.0475 -3.40633 1.38607e-05 
10.341 -3.32458 5.65597e-06 
10.6535 -3.40675 -2.86362e-05 
10.972 -3.3535 -1.19751e-05 
11.3035 -3.28144 -7.66128e-06 
11.6416 -3.38015 8.20649e-05 
12.0052 -3.35196 4.28532e-05 
-12.0045 -3.0525 -0.000105362 
-11.6459 -3.06382 8.53666e-05 
-11.3032 -2.95175 2.35328e-05 
-10.95 -3.00393 -1.3559e-05 
-10.6167 -2.98178 -4.86373e-05 
-10.2827 -3.02359 -8.24383e-05 
-9.93879 -3.02101 -3.62863e-05 
-9.62187 -3.01289 4.09627e-05 
-9.3284 -3.05977 2.05619e-06 
-9.03677 -3.01611 -4.82118e-05 
-8.72838 -2.99277 1.29815e-05 
-8.42909 -3.02595 1.81679e-05 
-8.12913 -3.01023 -2.04198e-06 
-7.83694 -3.03338 -3.09789e-06 
-7.53493 -2.97051 -4.23502e-06 
-7.23795 -3.00067 9.41736e-06 
-6.93077 -3.05622 4.49672e-06 
-6.61591 -3.02938 2.99279e-05 
-6.29331 -3.02373 3.01279e-05 
-5.97538 -3.02933 1.46491e-05 
-5.66787 -2.99984 -5.03157e-06 
-5.36832 -3.01114 1.68785e-05 
-5.08416 -2.9761 6.23823e-05 
-4.78578 -3.10781 5.14749e-05 
-4.50365 -3.05478 4.23103e-05 
-4.20826 -3.03204 3.63723e-05 
-3.90908 -3.12336 4.19471e-05 
-3.6086 -3.11599 6.25326e-05 
-3.2991 -3.11401 7.77134e-05 
-2.95989 -3.07761 -7.48663e-06 
-2.62803 -2.95616 9.34077e-05 
-2.35262 -2.96416 -5.87433e-06 
-2.10121 -3.03886 -4.82794e-05 
-1.81784 -2.98603 2.56289e-05 
-1.52436 -2.85216 0.000305204 
-1.24354 -2.75835 -0.000471598 
-0.944215 -2.56038 0.00056954 
-0.677793 -2.60365 -0.0036152 
-0.329224 -2.51104 0.00747692 
0.088195 -2.15963 -0.0059486 
0.460004 -2.53159 0.00602469 
0.73223 -2.47128 0.00405931 
1.00586 -2.54129 -0.000754449 
1.27267 -2.72616 0.00189856 
1.52615 -2.85848 -7.12931e-05 
1.79296 -2.85416 -0.000305359 
2.06279 -3.01104 0.000179807 
2.32993 -3.13241 -4.72563e-05 
2.63203 -3.17674 -1.29762e-05 
2.92796 -3.10804 2.05175e-05 
3.23475 -3.05735 -2.00873e-05 
3.55237 -3.06442 -6.04036e-05 
3.87972 -3.09627 -0.000104365 
4.19174 -3.06769 -4.90585e-07 
4.50153 -3.02162 -2.8393e-05 
4.79947 -3.0337 -7.64113e-05 
5.09253 -3.01915 -4.64904e-05 
5.38422 -3.04237 -3.81079e-05 
5.67333 -2.99711 7.48614e-06 
5.98423 -3.01071 -2.04776e-05 
6.2992 -2.96933 -2.22073e-05 
6.61657 -3.02248 -7.78243e-05 
6.93967 -3.01461 1.35836e-05 
7.25989 -3.04047 -1.01214e-05 
7.55139 -3.03394 1.18834e-05 
7.8424 -3.03397 -1.18165e-05 
8.13677 -3.00164 -2.76253e-05 
8.43166 -3.00077 -1.72252e-05 
8.72812 -2.97671 2.17044e-05 
9.04197 -3.06195 1.4808e-05 
9.36194 -3.02729 -8.12123e-06 
9.66483 -2.98308 -8.59497e-06 
9.98906 -3.05194 3.53694e-05 
10.3197 -2.99303 7.00153e-05 
10.6596 -3.05668 4.94268e-05 
10.9961 -3.01844 3.97586e-05 
11.3379 -2.95104 -2.31165e-06 
11.6641 -3.06716 -6.1906e-05 
12.0077 -3.03393 6.48364e-05 
-12.0069 -2.70502 0.000121834 
-11.6762 -2.738 3.00353e-05 
-11.3414 -2.62233 -7.36075e-05 
-11.0059 -2.65983 -5.84082e-06 
-10.6719 -2.64242 -3.31389e-05 
-10.327 -2.69693 -6.78625e-06 
[...]
POINT_DATA 1978 
VECTORS vectors float
0.0495732 -0.0758442 1.00001 
0.058497 -0.0487466 1.00361 
0.0661761 -0.0340507 1.00426 
0.0743877 -0.021527 1.00409 
0.0793199 -0.0138464 1.00396 
0.0832111 -0.00999578 1.00342 
0.0848184 -0.00641822 1.0033 
0.085255 -0.00283136 1.00323 
0.0853752 -0.000455302 1.00295 
0.0877423 0.00181147 1.00274 
0.0884109 0.00300646 1.00265 
0.0893976 0.00370974 1.0024 
0.0910997 0.00278394 1.00227 
0.0903847 0.00326615 1.00198 
0.0910449 0.00408766 1.00032 
0.0914804 0.00339666 1.00164 
0.0907908 0.00359113 1.00191 
0.0893784 0.00443773 1.00221 
0.0879652 0.00595091 1.00255 
0.0871483 0.00753296 1.00287 
0.0861478 0.010067 1.00299 
0.0839278 0.0125371 1.003 
0.0823083 0.015666 1.00279 
0.081513 0.0203469 1.0026 
0.083482 0.0249852 1.00213 
0.0820791 0.0265238 1.00208 
0.0792329 0.0282269 1.00233 
0.072449 0.0340311 1.00258 
0.0634002 0.0448163 1.0027 
0.0522808 0.0590383 1.00397 
0.0440005 0.0775887 1.00022 
0.0345369 0.0974722 1.00133 
0.0246871 0.120062 0.996191 
0.00465652 0.147006 0.994008 
-0.0233028 0.18322 0.987427 
-0.0560774 0.237494 0.97445 
-0.0877435 0.313755 0.951078 
-0.120183 0.419906 0.910065 
-0.126961 0.592939 0.792912 
-0.047314 0.868447 0.471111 
0.0976936 0.738393 -0.654279 
0.110457 0.407497 -0.915716 
0.0850816 0.318859 -0.947679 
0.062525 0.256453 -0.971019 
0.0289639 0.200863 -0.983606 
0.0084833 0.164137 -0.98981 
-0.00940666 0.135874 -0.996527 
-0.0302076 0.104394 -0.997759 
-0.0424261 0.080553 -1.00112 
-0.0553376 0.0545724 -1.00245 
-0.0650179 0.042274 -1.00276 
-0.0728316 0.0342862 -1.00264 
-0.0783833 0.0286421 -1.00257 
-0.0822434 0.0260895 -1.00248 
-0.083236 0.024551 -1.00239 
-0.0825998 0.0210627 -1.00251 
-0.0826509 0.0152585 -1.00269 
-0.0840841 0.0116519 -1.00275 
-0.0857968 0.00979711 -1.0027 
-0.0874359 0.00753494 -1.00265 
-0.0885092 0.00582914 -1.00236 
-0.0893597 0.00436583 -1.00205 
-0.0898492 0.00403027 -1.00188 
-0.0909318 0.00456814 -1.00173 
-0.0901951 0.00312819 -1.00331 
-0.0913259 0.00246913 -1.00021 
-0.0919872 0.00285176 -1.00333 
-0.0907875 0.00346727 -1.0005 
-0.0898775 0.00352765 -1.00222 
-0.0883035 0.00238052 -1.00239 
-0.0857178 0.000271374 -1.00272 
-0.0855046 -0.00265226 -1.00295 
-0.0842941 -0.00583029 -1.00307 
-0.0834103 -0.00882743 -1.00332 
-0.0804314 -0.0137346 -1.00362 
-0.0734438 -0.0213923 -1.00416 
-0.0668834 -0.0326733 -1.0043 
-0.0588489 -0.0481696 -1.00383 
-0.0500696 -0.0763351 -1.00006 
0.0340006 -0.0842248 1.00237 
0.0416641 -0.0593053 1.00773 
0.0439898 -0.0423005 1.01108 
0.0522611 -0.028905 1.0113 
0.0555092 -0.0197422 1.01269 
0.0600686 -0.0130085 1.00954 
0.0603323 -0.00828485 1.01097 
0.0622655 -0.00468634 1.01208 
0.0632888 -0.00198411 1.00892 
0.0649298 3.57249e-05 1.01009 
0.0644275 0.00160811 1.0114 
0.0655404 0.00226835 1.00857 
0.0667528 0.0022101 1.01099 
0.0665044 0.00272985 1.00972 
0.0642527 0.00366331 1.01081 
0.0666488 0.00400296 1.00929 
0.0673409 0.00448278 1.00914 
0.0648671 0.00531268 1.00974 
0.0638621 0.00668194 1.01016 
0.0640642 0.00872145 1.01031 
0.0624667 0.0107102 1.01032 
0.0612985 0.0129561 1.00999 
0.0598607 0.0157156 1.00965 
0.0625337 0.0197912 1.00891 
0.0607558 0.0237284 1.00893 
0.0584377 0.0269574 1.00894 
0.0584047 0.0315067 1.00851 
0.050394 0.0408489 1.00862 
0.0431269 0.0544255 1.00717 
0.0335676 0.0731223 1.00766 
0.0230875 0.0975206 1.00565 
0.014079 0.126288 1.00117 
0.00198479 0.160546 0.998218 
-0.0154052 0.211616 0.988139 
-0.0314033 0.270455 0.970588 
-0.0441384 0.352291 0.945008 
-0.0489916 0.461588 0.891028 
-0.0597822 0.574767 0.81297 
-0.038593 0.787932 0.585617 
0.0201826 0.927948 -0.0235116 
0.051488 0.747211 -0.632194 
0.0591626 0.552095 -0.82866 
0.0463974 0.445149 -0.900828 
0.0417399 0.322345 -0.954747 
0.0250702 0.2512 -0.976918 
0.0097902 0.203503 -0.988258 
-0.00456954 0.148913 -0.998257 
-0.0200579 0.112324 -1.00282 
-0.0333198 0.080026 -1.00704 
-0.0391053 0.062587 -1.00779 
-0.0446543 0.0485501 -1.0088 
-0.050698 0.0373063 -1.00913 
-0.057618 0.0296968 -1.00908 
-0.0593445 0.0254351 -1.00927 
-0.0590218 0.0224556 -1.00953 
-0.0604252 0.0194365 -1.00944 
-0.0610423 0.0158385 -1.00961 
-0.0630522 0.0123694 -1.00963 
-0.0631374 0.0103124 -1.01 
-0.0637582 0.00851248 -1.01003 
-0.0627392 0.00666406 -1.0099 
-0.065974 0.00512573 -1.00929 
-0.0654444 0.00464027 -1.00903 
-0.067459 0.00429887 -1.00892 
-0.0671708 0.00291386 -1.00765 
-0.0664853 0.00193438 -1.00914 
-0.0655299 0.00182409 -1.00959 
-0.0639708 0.00215105 -1.00971 
-0.0626572 0.00190647 -1.01146 
-0.0667323 0.000664028 -1.00818 
-0.0638322 -0.00167265 -1.01004 
-0.0610981 -0.00447069 -1.01195 
-0.0634004 -0.00794667 -1.00889 
-0.0592117 -0.0127784 -1.0122 
-0.0588373 -0.0193743 -1.0106 
-0.0503655 -0.0289454 -1.01131 
-0.043932 -0.0419362 -1.0112 
-0.0416803 -0.0604659 -1.00767 
-0.0323875 -0.0855112 -1.00239 
0.0227563 -0.0907504 1.00276 
0.0296213 -0.0606211 1.01076 
0.0319563 -0.0422714 1.01397 
0.0388323 -0.0292481 1.01109 
0.039842 -0.0212276 1.01279 
0.0447423 -0.0146543 1.01229 
0.0444601 -0.00966737 1.01249 
0.0469392 -0.00583068 1.01224 
0.0484959 -0.00278544 1.01188 
0.0492139 -0.000602479 1.01171 
0.0475884 0.000603708 1.01166 
0.0482288 0.00111003 1.01144 
0.0490407 0.00100294 1.01137 
0.0494974 0.00168317 1.00984 
0.047144 0.0033222 1.01259 
0.048619 0.00459528 1.00965 
0.0497236 0.00514578 1.01099 
0.047717 0.00563743 1.0113 
0.0468793 0.00753712 1.01167 
0.0474072 0.0096727 1.01174 
0.0459556 0.0110827 1.01159 
0.0451059 0.0126354 1.01129 
0.0429561 0.0152217 1.01099 
0.04708 0.0177917 1.01053 
0.0446757 0.0213594 1.01053 
0.0412155 0.0254981 1.01186 
0.0428004 0.0310214 1.01027 
0.0378696 0.0398929 1.01021 
0.0323454 0.0535542 1.00972 
0.0251828 0.0715528 1.00911 
0.0180785 0.0962179 1.00674 
0.0106263 0.124787 1.00487 
0.00142067 0.164805 0.99601 
-0.0109291 0.225225 0.984981 
-0.0197045 0.309572 0.960476 
-0.024814 0.406134 0.922001 
-0.0235932 0.52725 0.853988 
-0.0267028 0.645051 0.756792 
-0.0165776 0.798864 0.549901 
-0.00557179 0.934406 -0.00494722 
0.0300397 0.788278 -0.565277 
0.0308429 0.626269 -0.772541 
0.0259076 0.503389 -0.86884 
0.0266031 0.374468 -0.935848 
0.0178168 0.290851 -0.966711 
0.00869631 0.231184 -0.982843 
-0.00111502 0.168126 -0.996248 
-0.0125571 0.126683 -1.00207 
-0.0219599 0.0953119 -1.00608 
-0.0267305 0.0731313 -1.00673 
-0.0305421 0.0548754 -1.0108 
-0.0349045 0.0411331 -1.01035 
-0.0407461 0.0314269 -1.00925 
-0.0423551 0.025353 -1.01215 
-0.0421786 0.0208267 -1.00961 
-0.0438076 0.0182703 -1.01097 
-0.0440658 0.0152803 -1.01102 
-0.0458166 0.0123336 -1.01117 
-0.0451686 0.0109973 -1.01142 
-0.0457888 0.010442 -1.01302 
-0.0438088 0.00852145 -1.01182 
-0.0472259 0.00592845 -1.00989 
-0.0462831 0.00513071 -1.01274 
-0.048734 0.00438414 -1.00953 
-0.0488751 0.0028815 -1.01244 
-0.0476584 0.00116641 -1.01099 
-0.0468897 0.000538481 -1.01153 
-0.0449022 0.000976969 -1.01173 
-0.0446862 0.000723741 -1.01204 
-0.0481869 -0.000186229 -1.01169 
-0.0450841 -0.00238847 -1.01208 
-0.0437597 -0.00543498 -1.01246 
-0.0461366 -0.0089596 -1.01213 
-0.0412319 -0.0140009 -1.01255 
-0.0430045 -0.0202384 -1.01084 
-0.037282 -0.0292861 -1.01247 
-0.0307542 -0.0431278 -1.01379 
-0.029629 -0.0609264 -1.01066 
-0.0226251 -0.0910227 -1.00258 
0.0140586 -0.0963139 1.00262 
0.020386 -0.0662478 1.01129 
0.0220858 -0.0476813 1.01118 
0.0272479 -0.0320969 1.01474 
0.0295006 -0.0227253 1.01169 
0.0324861 -0.0142415 1.01472 
0.0334562 -0.00886809 1.01298 
0.033349 -0.00488577 1.01303 
0.0354522 -0.00218937 1.01261 
0.0339167 -0.00100141 1.01263 
0.0333819 0.000168954 1.01244 
0.034466 0.000436576 1.01215 
0.0338959 0.000111147 1.01212 
0.0347515 0.00098202 1.01199 
0.0328722 0.00291541 1.01065 
0.0337999 0.00472532 1.01335 
0.0355135 0.0053881 1.01199 
0.0342423 0.00640927 1.01235 
0.033901 0.00931176 1.01235 
0.0337394 0.0121242 1.01215 
0.0318017 0.0127958 1.01187 
0.0310293 0.0130384 1.01164 
0.0289717 0.013888 1.0115 
0.0333195 0.0165962 1.01126 
0.0300036 0.0199893 1.01137 
0.0274564 0.0245561 1.01013 
0.0286006 0.0315003 1.01138 
0.0261067 0.0412698 1.01132 
0.02282 0.0555873 1.01213 
0.0175037 0.0775032 1.00959 
0.0110676 0.108078 1.00646 
0.00526793 0.141646 1.00216 
-0.000560622 0.182023 0.9947 
-0.00618603 0.246035 0.980387 
-0.0102595 0.334539 0.952238 
-0.0121044 0.439119 0.906312 
-0.00877301 0.571755 0.821692 
-0.0100647 0.702901 0.691767 
-0.00541766 0.85765 0.423757 
0.00332473 0.919247 -0.112877 
0.00510706 0.812868 -0.515805 
0.00779986 0.685232 -0.713854 
0.0102986 0.553467 -0.836436 
0.0127692 0.436753 -0.907587 
0.0120013 0.338955 -0.951004 
0.00670814 0.260313 -0.976508 
0.00112243 0.196425 -0.992079 
-0.00602098 0.147456 -1.00046 
-0.0140776 0.10878 -1.00576 
-0.0173053 0.08137 -1.00845 
-0.0211598 0.060022 -1.00908 
-0.0243646 0.0445471 -1.01114 
-0.0276813 0.0323392 -1.01278 
-0.0287137 0.0245494 -1.01045 
-0.0291603 0.0195098 -1.01314 
-0.0305651 0.0163585 -1.01166 
-0.0300929 0.014374 -1.01187 
-0.0319276 0.0124326 -1.01182 
-0.0315067 0.0121542 -1.01202 
-0.0325364 0.0122945 -1.0109 
-0.0312327 0.00994046 -1.01242 
-0.0330517 0.00682251 -1.01377 
-0.0334717 0.00553473 -1.01094 
-0.0346538 0.00447379 -1.01357 
-0.0346151 0.00262892 -1.01191 
-0.0346253 0.000705817 -1.01216 
-0.0335139 1.33098e-05 -1.01226 
-0.0337779 -3.81884e-06 -1.01238 
-0.0322439 -8.20041e-05 -1.01262 
-0.0350581 -0.000837317 -1.01268 
-0.033527 -0.00256412 -1.01289 
-0.0320199 -0.00517196 -1.01306 
-0.0334667 -0.00898071 -1.01307 
-0.0307596 -0.015061 -1.01327 
-0.0304838 -0.0230431 -1.01302 
-0.0264635 -0.0335809 -1.01287 
-0.0215438 -0.0488355 -1.01241 
-0.0200742 -0.0668174 -1.01069 
-0.0133393 -0.0964359 -1.00234 
0.00732628 -0.103468 1.00205 
0.0131083 -0.0734879 1.0122 
0.0149881 -0.0528636 1.01275 
0.0193101 -0.0373327 1.01319 
0.0211766 -0.0261069 1.01355 
0.0240207 -0.0163601 1.01343 
0.0245036 -0.010262 1.01339 
0.0247778 -0.00580491 1.01187 
0.0256567 -0.00264339 1.01467 
0.0250367 -0.00130334 1.01306 
0.0252088 -8.83664e-05 1.01129 
0.0253717 0.000136243 1.01389 
0.025068 -9.89388e-05 1.01122 
0.0250903 0.00108246 1.01367 
0.0239027 0.00333386 1.01244 
0.0246463 0.00497918 1.01255 
0.0254105 0.00604575 1.01278 
0.0248613 0.0082113 1.01276 
0.0247098 0.0115277 1.01253 
0.0241651 0.0138736 1.01218 
0.0227436 0.0142404 1.01184 
0.0213518 0.0137967 1.0116 
0.0203703 0.014035 1.01169 
0.0218519 0.0162649 1.0118 
0.0204377 0.0198492 1.01188 
0.0189875 0.0253251 1.0121 
0.0190229 0.0330728 1.01217 
0.0176766 0.0442059 1.01214 
0.0158788 0.0614926 1.01134 
0.0119733 0.088122 1.00821 
0.00640804 0.12612 1.00664 
0.00363049 0.167842 0.997498 
5.12984e-05 0.208702 0.991138 
-0.00214063 0.281608 0.969092 
-0.00398172 0.370296 0.938946 
-0.00296619 0.47556 0.885973 
0.000669668 0.609505 0.793367 
0.00686318 0.667217 0.731526 
0.00546853 0.765461 0.591323 
0.00324716 0.838078 0.423462 
0.00704429 0.831046 -0.462585 
0.00553818 0.681266 -0.717244 
0.0021735 0.561542 -0.828576 
0.00445531 0.436389 -0.908985 
0.00363413 0.339036 -0.951373 
0.00140406 0.262957 -0.976366 
-0.00168839 0.194947 -0.99361 
-0.00636603 0.144352 -1.00211 
-0.0100072 0.10955 -1.00725 
-0.0123845 0.0825962 -1.01095 
-0.0151929 0.0595047 -1.01146 
-0.0171725 0.0436824 -1.01207 
-0.0187789 0.0318851 -1.01233 
-0.0199454 0.0237638 -1.01224 
-0.0199568 0.0188185 -1.01204 
-0.0205807 0.0157468 -1.01199 
-0.0208393 0.0142615 -1.012 
-0.0226303 0.0132725 -1.01201 
-0.0235127 0.0139477 -1.01207 
-0.0243526 0.0137971 -1.0123 
-0.0236903 0.0109884 -1.01268 
-0.0247551 0.00758021 -1.01277 
-0.0249219 0.00590755 -1.01268 
-0.0252454 0.00455688 -1.01225 
-0.0258528 0.00258687 -1.01082 
-0.0258648 0.000687787 -1.01222 
-0.0254235 -0.000236191 -1.01224 
-0.0256431 -0.00013267 -1.01252 
-0.0249276 -0.000449341 -1.0125 
-0.026791 -0.00128896 -1.0128 
-0.0262241 -0.00272964 -1.0129 
-0.0253602 -0.00557619 -1.01312 
-0.0258098 -0.00981993 -1.0133 
-0.0236838 -0.0166274 -1.01342 
-0.0233685 -0.0257998 -1.01327 
-0.0198095 -0.0375533 -1.01297 
-0.015358 -0.0539397 -1.01216 
-0.0127047 -0.0736615 -1.01017 
-0.00653222 -0.10307 -1.00175 
0.00323995 -0.110318 1.00092 
0.0077938 -0.0833275 1.00797 
0.00972064 -0.0618409 1.01174 
0.0127203 -0.0431682 1.01303 
0.0147829 -0.0306837 1.01342 
0.0170166 -0.0196952 1.01366 
0.0180466 -0.0126675 1.01345 
0.0188513 -0.00766393 1.01331 
0.0198857 -0.0040741 1.01327 
0.0198675 -0.00231789 1.01305 
0.0206426 -0.000791308 1.0127 
0.0209929 -3.98972e-05 1.01252 
0.0207039 3.20817e-05 1.01238 
0.0204466 0.00104826 1.01232 
0.0200105 0.00304057 1.01228 
0.0193834 0.00485396 1.01249 
0.0192619 0.00606041 1.01275 
0.0194955 0.00805514 1.01282 
0.0197791 0.0112938 1.01255 
0.019947 0.014216 1.01206 
0.018931 0.0155017 1.0117 
0.0171348 0.0154963 1.01132 
0.0160063 0.0149695 1.01131 
0.0144968 0.0158941 1.01147 
0.0148274 0.0176477 1.01184 
0.0145413 0.0206115 1.01227 
0.0138487 0.0267402 1.01268 
0.013542 0.036186 1.01285 
0.0126711 0.0516895 1.01258 
0.0109468 0.0741172 1.01151 
0.00765144 0.107523 1.00862 
0.0061056 0.154339 1.00179 
0.00542956 0.210811 0.990351 
0.00240443 0.262938 0.976521 
0.00190634 0.347146 0.948569 
0.00243466 0.416209 0.916695 
0.00289856 0.508341 0.866889 
0.0048673 0.581145 0.811367 
0.00662714 0.725519 0.634887 
0.00855757 0.924196 -0.0791624 
-0.0117299 0.78718 -0.564679 
-0.0182314 0.725673 -0.667112 
-0.007415 0.635068 -0.772129 
-0.00140423 0.471654 -0.886883 
-0.00158229 0.36516 -0.940866 
-0.00272944 0.288139 -0.969123 
-0.0038138 0.220466 -0.988552 
-0.00527469 0.16405 -1.00013 
-0.00780427 0.119598 -1.00704 
-0.0092392 0.0895828 -1.00863 
-0.0108098 0.0667437 -1.01173 
-0.0125652 0.045036 -1.01297 
-0.0138655 0.0318367 -1.01308 
-0.0142554 0.0235669 -1.01267 
-0.0138098 0.0191355 -1.01216 
-0.0143033 0.016569 -1.01176 
-0.0152688 0.0154624 -1.01155 
-0.01692 0.0152851 -1.01152 
-0.0184739 0.0156067 -1.01158 
-0.019933 0.0150318 -1.01184 
-0.0199454 0.0124049 -1.01226 
-0.0196439 0.00850055 -1.01261 
-0.0198061 0.00618873 -1.01264 
-0.019645 0.00484844 -1.01247 
-0.0203609 0.00328994 -1.01224 
-0.020832 0.00144106 -1.01345 
-0.0207898 0.000135939 -1.01212 
-0.0208914 -0.00048773 -1.01234 
-0.0204364 -0.000654753 -1.01245 
-0.0210061 -0.00169327 -1.01272 
-0.0207699 -0.00352349 -1.01296 
-0.0193927 -0.00680036 -1.01322 
-0.0198404 -0.0110232 -1.01331 
-0.0176502 -0.0180542 -1.01342 
-0.0171596 -0.0275821 -1.01336 
-0.0142982 -0.0406367 -1.01291 
-0.0105747 -0.0566103 -1.01209 
-0.00837603 -0.0776423 -1.01001 
-0.00357561 -0.109166 -1.00108 
0.00208633 -0.113435 1.00048 
0.0044243 -0.080515 1.00984 
0.00622208 -0.056972 1.01205 
0.00736901 -0.0411354 1.01282 
0.00953643 -0.0281179 1.01319 
0.0106463 -0.0191227 1.01458 
0.0120847 -0.0124099 1.0131 
0.0130892 -0.00743455 1.01299 
0.0140921 -0.00485378 1.01287 
0.0154328 -0.00299879 1.01261 
0.016852 -0.00125954 1.01235 
0.0175497 -0.000489285 1.01218 
0.01783 0.000201622 1.01204 
0.0176295 0.00211645 1.01198 
0.0173422 0.00426546 1.01217 
0.0166376 0.00557557 1.01239 
0.0164221 0.0070022 1.01254 
0.0169029 0.00979392 1.01243 
0.0174656 0.013395 1.01196 
0.0173246 0.0156856 1.01142 
0.0159894 0.0164937 1.01102 
0.0143234 0.0168508 1.0108 
0.0128987 0.0169632 1.01091 
0.0112309 0.0173406 1.01121 
0.0108952 0.01851 1.01183 
0.0103007 0.0215774 1.01259 
0.00919944 0.0296551 1.01337 
0.00945465 0.0429954 1.01187 
0.00885191 0.0626907 1.01464 
0.00783204 0.0910088 1.01108 
0.00675897 0.131662 1.00605 
0.00742685 0.19991 0.99331 
0.00462224 0.270561 0.974472 
0.00400162 0.334433 0.951843 
0.00581616 0.421537 0.915256 
0.00480728 0.495632 0.87343 
0.00830283 0.570756 0.821163 
0.0130356 0.633519 0.764498 
0.00924629 0.678052 0.717065 
-0.0160162 0.891622 0.300889 
-0.0280371 0.870547 -0.400973 
-0.0211303 0.705316 -0.686858 
-0.0141819 0.590859 -0.805689 
-0.00704991 0.526241 -0.854331 
-0.00595029 0.425739 -0.914054 
-0.00459548 0.336487 -0.952336 
-0.00566605 0.238551 -0.984296 
-0.00592039 0.169819 -0.999776 
-0.00729063 0.117961 -1.00844 
-0.00782934 0.0846204 -1.01313 
-0.00889064 0.0592821 -1.01135 
-0.00915542 0.0403845 -1.01506 
-0.00960203 0.0285702 -1.01309 
-0.00965373 0.0214986 -1.01224 
-0.0104955 0.0178413 -1.01153 
-0.0116958 0.0173056 -1.01101 
-0.0132308 0.0172699 -1.01084 
-0.0147474 0.0171553 -1.01089 
-0.0165549 0.016902 -1.01118 
-0.0176029 0.0155017 -1.01159 
-0.0175541 0.0122635 -1.01209 
-0.0168812 0.0087119 -1.01241 
-0.0171982 0.00630395 -1.01244 
-0.0174138 0.00510327 -1.01228 
-0.0179682 0.00365426 -1.01215 
-0.0185653 0.00161768 -1.01077 
-0.0181616 -0.00023077 -1.01195 
-0.0171069 -0.00102025 -1.01216 
-0.0157116 -0.00159202 -1.01239 
-0.0161207 -0.00290922 -1.01274 
-0.0144271 -0.00503143 -1.01299 
-0.012989 -0.00844607 -1.01323 
-0.0129641 -0.0138263 -1.01334 
-0.0107181 -0.0216586 -1.01336 
-0.0106313 -0.0309097 -1.01326 
-0.00806343 -0.043187 -1.01282 
-0.0053652 -0.0605587 -1.0118 
-0.00489381 -0.0822779 -1.00965 
-0.00185499 -0.113336 -1.00061 
0.000925425 -0.114192 1.00036 
0.00147307 -0.0846369 1.01053 
0.00252466 -0.0611435 1.01144 
0.00310344 -0.0436728 1.01223 
0.00385521 -0.0312265 1.0126 
0.00448005 -0.0215234 1.01135 
0.00509093 -0.0143713 1.01144 
0.00629131 -0.00945833 1.01277 
0.00698608 -0.00657058 1.0127 
0.00886546 -0.00449846 1.01248 
0.0105717 -0.00272535 1.01223 
0.011912 -0.00189051 1.01205 
0.0132294 -0.00039475 1.01193 
0.0135293 0.00208327 1.01182 
0.0141554 0.00458922 1.01195 
0.0134196 0.00587131 1.01216 
0.0123739 0.00714675 1.01229 
0.0130886 0.00993187 1.01221 
0.0140689 0.0136665 1.01181 
0.014216 0.0162726 1.01125 
0.0135555 0.0172175 1.01075 
0.0124172 0.0179551 1.01052 
0.0106287 0.0183544 1.01049 
0.00877208 0.0176905 1.01076 
0.0073627 0.0175478 1.01132 
0.00629558 0.0197671 1.0122 
0.00505682 0.0279048 1.01493 
0.00574453 0.044418 1.01385 
0.00598223 0.0633014 1.01206 
0.0066285 0.0882934 1.01184 
0.00693725 0.127819 1.00708 
0.0074347 0.187041 0.99634 
0.0056441 0.270855 0.97563 
0.00453685 0.355184 0.944292 
0.00504743 0.426264 0.911435 
0.00566743 0.488932 0.876952 
0.00582984 0.53843 0.840648 
0.02531 0.791393 0.608728 
0.0387463 0.833125 0.532451 
0.0377913 0.890944 0.380567 
-0.0280369 0.90204 -0.312103 
-0.0379559 0.847344 -0.510759 
-0.0162468 0.5889 -0.805973 
-0.00808583 0.475997 -0.885272 
-0.00914931 0.426613 -0.911821 
-0.00538952 0.377119 -0.936373 
-0.00525533 0.274885 -0.973257 
-0.00558812 0.200837 -0.993779 
-0.00693975 0.128889 -1.00732 
-0.00623544 0.0895006 -1.01232 
-0.00647799 0.0612954 -1.01364 
-0.00542624 0.0431456 -1.01413 
-0.00503137 0.0312689 -1.01335 
-0.00527357 0.0226842 -1.01244 
-0.00698599 0.0180532 -1.01147 
-0.0088047 0.0178403 -1.01085 
-0.0108092 0.0182533 -1.00936 
-0.0121178 0.0184479 -1.01161 
-0.0138322 0.0179912 -1.00957 
-0.0143477 0.0166584 -1.01114 
-0.0145602 0.0139146 -1.01163 
-0.0135496 0.0101769 -1.01216 
-0.0137259 0.00726575 -1.01238 
-0.0137229 0.00598586 -1.01234 
-0.0135242 0.00479446 -1.01229 
-0.0133887 0.00242756 -1.01341 
-0.013055 -0.00047259 -1.01198 
-0.0103041 -0.00223061 -1.01222 
-0.00874052 -0.00303708 -1.01235 
-0.0089437 -0.00459582 -1.01271 
-0.00750928 -0.00698492 -1.01292 
-0.00542359 -0.00990473 -1.01296 
-0.00621468 -0.0143738 -1.01322 
-0.00434122 -0.0208922 -1.01319 
-0.0048277 -0.0307076 -1.01315 
-0.00368004 -0.0432264 -1.01261 
-0.00212168 -0.0609357 -1.01144 
-0.00195344 -0.0849494 -1.00909 
-0.00120416 -0.113934 -1.00033 
0.000375357 -0.113359 1.0001 
0.000985863 -0.0841832 1.00737 
0.00159852 -0.0619705 1.01112 
0.00188377 -0.044537 1.01206 
0.00203129 -0.0308033 1.01252 
0.00191495 -0.0208175 1.0127 
0.00167185 -0.0139122 1.01412 
0.00170765 -0.00945337 1.01269 
0.0017928 -0.00682552 1.01246 
0.00283588 -0.00475375 1.01358 
0.00379749 -0.00384032 1.0107 
0.00493586 -0.00328789 1.01324 
0.00658977 -0.0012017 1.01186 
0.00747821 0.00226051 1.01188 
0.00814579 0.00503231 1.012 
0.00772057 0.00651082 1.01214 
0.00673307 0.00797072 1.01215 
0.0073473 0.0109669 1.01192 
0.0086809 0.0149501 1.01139 
0.00873342 0.0174947 1.01083 
0.00893718 0.0182691 1.0104 