# vtk DataFile Version 3.0 
Exported using Morpho https://github.com/Morpho-lang/morpho 
ASCII 
DATASET UNSTRUCTURED_GRID 

POINTS 1978 float 
-12 -4 -6.33092e-18 
-11.6475 -4 8.79482e-17 
-11.3219 -4 1.04436e-16 
-10.9827 -4 7.00226e-17 
-10.6628 -4 4.93032e-17 
-10.3255 -4 2.88586e-17 
-10.003 -4 2.34828e-17 
-9.6791 -4 1.84627e-17 
-9.33898 -4 1.59197e-17 
-9.00894 -4 7.38127e-18 
-8.6935 -4 1.47245e-17 
-8.38777 -4 1.06322e-17 
-8.08284 -4 1.23631e-17 
-7.77916 -4 3.82752e-18 
-7.48184 -4 8.13365e-18 
-7.18267 -4 2.58551e-18 
-6.88145 -4 4.19584e-18 
-6.57894 -4 3.07378e-18 
-6.27901 -4 1.06681e-18 
-5.97374 -4 -2.09775e-18 
-5.6665 -4 -6.3534e-18 
-5.37583 -4 -1.50543e-17 
-5.09007 -4 -2.40215e-17 
-4.791 -4 -2.78975e-17 
-4.50558 -4 -4.35297e-17 
-4.20787 -4 -6.19074e-17 
-3.9263 -4 -8.50223e-17 
-3.61563 -4 -1.07229e-16 
-3.31631 -4 -1.17633e-16 
-3.03726 -4 -7.92147e-17 
-2.7637 -4 -5.98134e-17 
-2.54881 -4 -4.40518e-17 
-2.32054 -4 -4.36484e-17 
-2.08395 -4 -2.14552e-16 
-1.88412 -4 -1.50576e-16 
-1.65739 -4 -7.72245e-16 
-1.38668 -4 -3.32289e-15 
-1.08776 -4 -3.04158e-14 
-0.567941 -4 -5.06339e-14 
-0.0488705 -4 1.76568e-14 
0.435517 -4 1.28624e-14 
0.910837 -4 2.02296e-14 
1.21911 -4 3.49459e-15 
1.50508 -4 1.7922e-15 
1.77838 -4 1.00407e-15 
2.02065 -4 3.27993e-16 
2.25553 -4 2.56763e-17 
2.51346 -4 -7.16186e-18 
2.78793 -4 7.62304e-17 
3.05707 -4 9.5056e-17 
3.33368 -4 9.94637e-17 
3.60596 -4 1.03766e-16 
3.88535 -4 8.87138e-17 
4.20489 -4 7.04624e-17 
4.50566 -4 4.95693e-17 
4.79749 -4 3.37011e-17 
5.09778 -4 2.20532e-17 
5.3923 -4 1.25867e-17 
5.69402 -4 7.00048e-18 
5.98102 -4 2.52421e-18 
6.28517 -4 3.21911e-19 
6.56173 -4 -3.04362e-18 
6.87156 -4 -3.02141e-18 
7.16592 -4 -5.72464e-18 
7.46855 -4 -4.57766e-18 
7.77393 -4 -9.11469e-18 
8.07108 -4 -7.55971e-18 
8.37368 -4 -1.27045e-17 
8.66942 -4 -1.42983e-17 
8.95507 -4 -8.89389e-18 
9.2876 -4 -1.59153e-17 
9.61789 -4 -1.95386e-17 
9.93159 -4 -1.84137e-17 
10.3031 -4 -3.79779e-17 
10.6278 -4 -4.52089e-17 
10.993 -4 -7.01436e-17 
11.3221 -4 -1.05896e-16 
11.6071 -4 -8.28315e-17 
12 -4 -2.83087e-18 
-12 -3.66317 -1.87129e-17 
-11.6758 -3.68165 -8.25678e-17 
-11.3388 -3.65272 2.29034e-17 
-11.0169 -3.66782 9.77778e-17 
-10.6898 -3.65643 1.26925e-16 
-10.3651 -3.67218 9.00818e-17 
-10.0344 -3.66317 6.29002e-17 
-9.71081 -3.66862 4.60759e-17 
-9.38531 -3.68376 3.29863e-17 
-9.05421 -3.67547 -4.01588e-18 
-8.73445 -3.6705 -4.11854e-18 
-8.41734 -3.66589 -4.23356e-18 
-8.10748 -3.66549 -3.36314e-18 
-7.79753 -3.66325 -2.93646e-18 
-7.49045 -3.65687 -2.72335e-18 
-7.1884 -3.65975 -2.22457e-18 
-6.88372 -3.6604 -1.18493e-18 
-6.57692 -3.66484 6.93483e-20 
-6.26761 -3.67207 1.67527e-18 
-5.95364 -3.67844 3.91123e-18 
-5.65311 -3.66701 -3.32333e-17 
-5.35332 -3.66869 -5.28393e-17 
-5.04427 -3.68291 -7.49724e-17 
-4.7412 -3.67316 4.24703e-17 
-4.43179 -3.68435 5.17479e-17 
-4.13115 -3.66739 8.61726e-17 
-3.81537 -3.69837 9.49291e-17 
-3.49478 -3.69495 1.38949e-16 
-3.18954 -3.67544 1.41596e-16 
-2.90583 -3.67769 2.09787e-16 
-2.65182 -3.60635 1.85663e-16 
-2.41637 -3.64115 1.07236e-16 
-2.17261 -3.66171 1.15866e-16 
-1.93116 -3.60951 -4.09063e-16 
-1.68766 -3.61132 -1.26042e-15 
-1.41045 -3.59487 2.16572e-15 
-1.12702 -3.51413 9.41183e-15 
-0.809617 -3.64514 1.88571e-14 
-0.386634 -3.55873 -3.54203e-14 
-0.0213408 -3.39592 4.68637e-14 
0.339596 -3.57524 -5.93699e-15 
0.79351 -3.62034 -2.82312e-14 
1.1933 -3.51702 -5.52754e-15 
1.47105 -3.58277 -3.77502e-16 
1.74584 -3.63835 -6.99053e-17 
2.01019 -3.63761 2.47864e-16 
2.25175 -3.65328 9.95667e-17 
2.4971 -3.69611 -1.01259e-16 
2.78706 -3.70828 -1.17233e-16 
3.06108 -3.69184 -1.37593e-16 
3.33602 -3.6703 -1.2783e-16 
3.62365 -3.67124 -1.04012e-16 
3.93485 -3.69448 -7.47704e-17 
4.24229 -3.67561 -7.46922e-17 
4.5421 -3.66774 -5.31084e-17 
4.84609 -3.67625 1.13796e-16 
5.14662 -3.67049 7.58861e-17 
5.45147 -3.67792 5.14557e-17 
5.74508 -3.65978 3.3992e-17 
6.04376 -3.67517 -4.00523e-18 
6.33063 -3.64085 -1.46788e-18 
6.6318 -3.67488 7.3468e-19 
6.93154 -3.65748 1.56644e-18 
7.23402 -3.66531 2.18711e-18 
7.54268 -3.67199 3.09481e-18 
7.84201 -3.65746 2.70823e-18 
8.14285 -3.66292 3.20832e-18 
8.44424 -3.65645 4.16081e-18 
8.73939 -3.64532 -2.72242e-17 
9.06152 -3.69057 -2.67111e-17 
9.39127 -3.68284 -3.11057e-17 
9.71158 -3.6592 -4.94136e-17 
10.0572 -3.7068 -7.40231e-17 
10.3827 -3.65973 -7.75733e-17 
10.7362 -3.69902 -8.49463e-17 
11.0729 -3.66564 -5.62723e-17 
11.3714 -3.61498 -5.86965e-17 
11.7146 -3.71918 8.24185e-17 
12 -3.61755 2.43312e-17 
-12 -3.34056 -6.44141e-18 
-11.6667 -3.35071 -7.47445e-17 
-11.3413 -3.30999 1.01651e-16 
-11.0162 -3.32626 8.60833e-17 
-10.683 -3.3244 -6.62091e-17 
-10.3528 -3.33749 -5.04489e-17 
-10.0279 -3.32815 -4.43728e-17 
-9.71277 -3.32728 -3.50695e-17 
-9.39971 -3.35269 6.04283e-17 
-9.08329 -3.34935 7.01019e-17 
-8.76812 -3.33664 4.55533e-17 
-8.46123 -3.33891 3.75824e-17 
-8.1493 -3.33085 3.02784e-17 
-7.84403 -3.33025 2.54107e-17 
-7.53801 -3.32107 2.34001e-17 
-7.23416 -3.31887 2.10962e-17 
-6.93413 -3.32517 -2.95261e-18 
-6.63146 -3.33219 -4.19058e-19 
-6.32648 -3.34245 2.29331e-18 
-6.02245 -3.35616 -3.13535e-17 
-5.71979 -3.33904 -5.96612e-17 
-5.42132 -3.34231 -1.05637e-16 
-5.11882 -3.36304 4.55243e-17 
-4.81591 -3.35419 7.17729e-17 
-4.50937 -3.36602 9.74688e-17 
-4.2075 -3.34573 1.3263e-16 
-3.89584 -3.38135 1.55566e-16 
-3.58609 -3.39412 1.83097e-16 
-3.27615 -3.37191 1.80426e-16 
-2.97538 -3.34488 1.50759e-16 
-2.69489 -3.28302 -1.99524e-17 
-2.41159 -3.27267 -1.03908e-17 
-2.17239 -3.30411 -1.1391e-16 
-1.91739 -3.25427 -1.66121e-16 
-1.62337 -3.24754 1.55869e-16 
-1.33887 -3.14933 2.00233e-15 
-1.00914 -3.02362 1.92754e-14 
-0.718739 -3.14893 2.31012e-15 
-0.353904 -2.94821 1.12535e-14 
0.0625093 -2.81981 5.74561e-16 
0.415196 -3.05364 2.58294e-14 
0.78257 -3.20103 3.73965e-14 
1.09009 -3.042 -9.34788e-15 
1.41091 -3.08461 -1.61204e-15 
1.67522 -3.23537 -1.7845e-16 
1.93726 -3.27675 -3.19721e-16 
2.19148 -3.28445 2.17734e-16 
2.43655 -3.34425 8.48982e-17 
2.70348 -3.43748 -1.0256e-16 
2.99952 -3.38241 -1.55204e-16 
3.27856 -3.35056 -2.61919e-16 
3.57423 -3.34888 -2.51609e-16 
3.87903 -3.37714 -1.80063e-16 
4.1891 -3.35795 -1.43027e-16 
4.50012 -3.34004 -1.02675e-16 
4.80504 -3.35092 -7.25078e-17 
5.10854 -3.34427 -4.66462e-17 
5.41191 -3.35484 9.84006e-17 
5.71299 -3.32716 6.02862e-17 
6.01049 -3.33804 3.19536e-17 
6.30538 -3.30406 -2.55218e-18 
6.6043 -3.33893 1.0322e-19 
6.90297 -3.32409 1.86981e-18 
7.20847 -3.33074 3.18516e-18 
7.51404 -3.34388 -2.47566e-17 
7.82343 -3.31995 -2.82494e-17 
8.1291 -3.32499 -3.27013e-17 
8.43254 -3.31242 -3.9031e-17 
8.7479 -3.31786 -5.046e-17 
9.06317 -3.37133 -5.0081e-17 
9.38245 -3.35455 -5.90544e-17 
9.6842 -3.30852 -1.0798e-16 
9.99429 -3.38416 -1.31139e-16 
10.3155 -3.32854 5.4784e-17 
10.6491 -3.3785 6.77173e-17 
10.9804 -3.34416 4.78698e-17 
11.296 -3.26398 -4.94652e-17 
11.6346 -3.37008 7.4727e-17 
12 -3.32092 1.01472e-17 
-12 -3.00921 -1.7694e-18 
-11.6591 -3.01559 -4.95308e-17 
-11.3189 -2.97232 -9.07528e-17 
-10.9791 -2.99768 7.64902e-17 
-10.64 -2.99514 -4.78012e-17 
-10.3108 -3.00299 1.15272e-16 
-9.98643 -2.98922 9.50185e-17 
-9.66383 -2.99375 8.64456e-17 
-9.35189 -3.01741 2.48914e-17 
-9.04093 -3.01139 2.33681e-17 
-8.73182 -2.99686 2.90065e-17 
-8.42082 -3.00885 2.38538e-17 
-8.11244 -2.99552 -1.60536e-18 
-7.80566 -2.99556 -1.19559e-18 
-7.49862 -2.98578 -1.0006e-18 
-7.19398 -2.98346 -1.05933e-18 
-6.89162 -2.99315 -1.26912e-19 
-6.58553 -3.00678 7.934e-19 
-6.28386 -3.01477 1.99568e-18 
-5.98625 -3.02703 3.62047e-18 
-5.68806 -3.01071 -3.09965e-17 
-5.39586 -3.01134 -5.21213e-17 
-5.10366 -3.04049 -9.47741e-17 
-4.80075 -3.03391 -1.20917e-16 
-4.50176 -3.03855 5.25992e-17 
-4.19951 -3.01775 6.44033e-17 
-3.89808 -3.06374 1.29194e-16 
-3.58824 -3.08069 1.21637e-16 
-3.28228 -3.05698 1.03205e-16 
-2.98317 -3.01953 8.83934e-17 
-2.69764 -2.93612 -8.59487e-17 
-2.43945 -2.94998 -1.12353e-16 
-2.16091 -2.93065 -1.11466e-16 
-1.87479 -2.9153 -7.04431e-16 
-1.61924 -2.83999 3.328e-15 
-1.34333 -2.726 4.63863e-15 
-1.00126 -2.60567 -2.91213e-15 
-0.586463 -2.53973 1.05447e-14 
-0.139152 -2.33186 -1.76924e-13 
0.0602912 -1.88871 5.8066e-13 
0.377254 -2.40602 -1.96391e-14 
0.708925 -2.65878 -2.55981e-14 
1.05919 -2.56662 1.45873e-14 
1.39988 -2.64025 3.03236e-15 
1.70812 -2.82278 5.56558e-16 
1.97205 -2.89983 5.56556e-16 
2.22792 -2.92561 5.44847e-17 
2.47428 -2.99364 1.81055e-16 
2.71439 -3.14392 7.71913e-17 
2.97419 -3.05798 -2.32264e-16 
3.23629 -3.02013 2.13622e-17 
3.5361 -3.0323 -8.90633e-17 
3.84487 -3.05226 -1.1567e-16 
4.15309 -3.03853 -7.85974e-17 
4.46691 -3.02024 -5.81107e-17 
4.78095 -3.02343 -4.43576e-17 
5.08568 -3.01876 1.0007e-16 
5.39063 -3.02953 6.39713e-17 
5.69014 -3.00287 3.6065e-17 
5.99516 -3.00547 2.19375e-17 
6.29889 -2.97838 -2.23989e-18 
6.6058 -3.00401 -8.30245e-19 
6.91305 -2.99591 2.19148e-19 
7.2201 -3.00115 1.14037e-18 
7.5262 -3.01314 1.24091e-18 
7.83275 -2.98608 1.00985e-18 
8.1413 -2.99102 1.23974e-18 
8.45461 -2.98269 3.71031e-18 
8.76104 -2.98207 -2.63889e-17 
9.0702 -3.04193 -2.81706e-17 
9.3735 -3.00769 -3.39353e-17 
9.68774 -2.97348 -7.37854e-17 
10.0113 -3.04214 -1.26473e-16 
10.3363 -2.99034 -9.75506e-17 
10.6561 -3.05023 4.94775e-17 
10.9765 -2.99884 -5.89089e-17 
11.3259 -2.94577 9.74477e-17 
11.659 -3.05854 5.23055e-17 
12 -3.00068 -7.87252e-19 
-12 -2.68924 2.90959e-18 
-11.6602 -2.69025 6.41614e-17 
-11.3299 -2.63704 5.56156e-17 
-10.9931 -2.66869 -9.00389e-17 
-10.6566 -2.66765 -1.65113e-18 
-10.3214 -2.66879 -1.08987e-18 
-9.98897 -2.6645 -3.23251e-18 
-9.65819 -2.66388 2.63061e-17 
-9.33578 -2.6783 -5.28741e-19 
-9.02174 -2.67431 -1.71316e-19 
-8.70382 -2.66635 -1.61338e-18 
-8.3921 -2.67748 -9.29072e-19 
-8.07887 -2.66486 1.03525e-18 
-7.76752 -2.66544 9.95351e-19 
-7.45606 -2.65601 8.83146e-19 
-7.14798 -2.6545 5.41408e-19 
-6.84068 -2.67112 7.68967e-19 
-6.53964 -2.68047 8.39713e-19 
-6.24037 -2.68689 7.23172e-19 
-5.94476 -2.69869 1.07475e-18 
[...]
POINT_DATA 1978 
VECTORS vectors float
-2.62639e-05 -0.00054851 1 
8.89649e-07 -0.0183051 0.999832 
-5.0119e-05 -0.0201195 0.999798 
-3.69226e-05 -0.01458 0.999894 
-3.31867e-05 -0.0096876 0.999953 
-3.60318e-05 -0.00631973 0.99998 
-3.19141e-05 -0.0042797 0.999991 
-3.83305e-05 -0.00316061 0.999995 
-4.16095e-05 -0.00263688 0.999997 
-3.33491e-05 -0.00230644 0.999997 
-2.45733e-05 -0.00214 0.999998 
-2.15301e-05 -0.00193831 0.999998 
-2.15666e-05 -0.00166098 0.999999 
-1.8647e-05 -0.00136427 0.999999 
-1.66332e-05 -0.00105601 0.999999 
-1.85638e-05 -0.000811755 1 
-1.94785e-05 -0.000550996 1 
-1.89845e-05 -0.000291172 1 
-1.99309e-05 1.76151e-05 1 
-2.32387e-05 0.000568673 1 
-1.79059e-05 0.00144868 0.999999 
-8.85321e-06 0.00276646 0.999996 
-1.23292e-05 0.00448343 0.99999 
-1.21675e-05 0.00709141 0.999975 
-1.12884e-05 0.010675 0.999943 
-8.92586e-06 0.0162355 0.999868 
-1.22747e-05 0.0238754 0.999715 
-1.78171e-05 0.0359756 0.999353 
-7.3865e-06 0.0527022 0.99861 
6.91376e-07 0.0736493 0.997284 
1.40806e-05 0.100244 0.994963 
1.48227e-05 0.127071 0.991894 
2.12201e-06 0.162582 0.986695 
-1.87968e-05 0.212853 0.977084 
-7.4477e-06 0.261133 0.965303 
-2.78133e-05 0.323553 0.94621 
6.76896e-06 0.428939 0.903334 
0.000139354 0.557158 0.830407 
0.000196885 0.822498 0.568767 
5.38355e-05 0.998059 0.0622715 
-9.21367e-05 0.899202 -0.437534 
-9.75098e-05 0.667906 -0.744245 
-1.54704e-05 0.516182 -0.856479 
-8.7532e-07 0.394246 -0.919005 
8.34261e-06 0.297883 -0.954602 
7.86847e-06 0.230654 -0.973036 
-1.5359e-06 0.179751 -0.983712 
-5.2438e-06 0.138488 -0.990364 
-5.1503e-07 0.102947 -0.994687 
-1.92504e-06 0.0748116 -0.997198 
-2.61953e-06 0.0533833 -0.998574 
-2.0581e-06 0.0382145 -0.99927 
1.55503e-05 0.0267259 -0.999643 
2.38798e-05 0.0174468 -0.999848 
1.3929e-05 0.0113401 -0.999936 
1.36995e-05 0.00740338 -0.999973 
1.58827e-05 0.00462222 -0.999989 
1.70432e-05 0.00271539 -0.999996 
1.47462e-05 0.00139872 -0.999999 
1.47065e-05 0.000602995 -1 
1.13458e-05 8.01006e-05 -1 
1.28837e-05 -0.000228967 -1 
2.05405e-05 -0.000478668 -1 
1.7403e-05 -0.000754785 -1 
2.10517e-05 -0.00105991 -0.999999 
1.94001e-05 -0.00140623 -0.999999 
1.8989e-05 -0.00172568 -0.999999 
1.7331e-05 -0.00195515 -0.999998 
1.00637e-05 -0.00213016 -0.999998 
2.37904e-05 -0.00230463 -0.999997 
4.07106e-05 -0.0025233 -0.999997 
3.19524e-05 -0.00310899 -0.999995 
4.43817e-05 -0.00401628 -0.999992 
4.75019e-05 -0.00618175 -0.999981 
4.41412e-05 -0.00925767 -0.999957 
4.78512e-05 -0.014814 -0.99989 
3.15254e-05 -0.0203594 -0.999793 
-6.17616e-06 -0.0188352 -0.999823 
4.05436e-05 -0.000414243 -1 
-0.000175368 3.22212e-06 1 
0.00587979 -0.0128388 0.9999 
0.00673774 -0.0170406 0.999832 
0.00711516 -0.0150629 0.999861 
0.00781661 -0.0107711 0.999911 
0.00788303 -0.00739132 0.999942 
0.00823403 -0.00484034 0.999954 
0.00828884 -0.00338055 0.99996 
0.00805352 -0.002727 0.999964 
0.00811864 -0.0022763 0.999964 
0.0083772 -0.00198275 0.999963 
0.00865478 -0.00176938 0.999961 
0.00857443 -0.00157084 0.999962 
0.0085798 -0.00133857 0.999962 
0.00883111 -0.00107882 0.99996 
0.00880143 -0.000811347 0.999961 
0.00872581 -0.000550132 0.999962 
0.00868775 -0.000269256 0.999962 
0.00862639 0.000124995 0.999963 
0.00858744 0.000757487 0.999963 
0.00879021 0.00170318 0.99996 
0.00872521 0.00312402 0.999957 
0.00831875 0.00523141 0.999952 
0.00836307 0.00825504 0.999931 
0.00765325 0.0128657 0.999888 
0.00756688 0.0196336 0.999779 
0.00615986 0.0293696 0.99955 
0.00525772 0.0436068 0.999035 
0.00405369 0.0630434 0.998003 
0.00255276 0.0877922 0.996136 
0.000778027 0.116954 0.993137 
-0.0013046 0.150076 0.988674 
-0.0036883 0.197497 0.980297 
-0.00673434 0.258001 0.966121 
-0.00813154 0.332017 0.943238 
-0.00881089 0.43624 0.899787 
-0.00964194 0.569 0.822281 
-0.00806285 0.705616 0.708548 
-0.00688967 0.881948 0.471296 
-0.00258493 0.998041 0.062508 
0.00285753 0.918433 -0.395567 
0.00499339 0.724354 -0.68941 
0.00734301 0.528021 -0.849199 
0.00714417 0.408875 -0.912562 
0.00599265 0.314724 -0.949164 
0.00483624 0.242075 -0.970245 
0.00272673 0.187532 -0.982255 
0.000307291 0.144495 -0.989506 
-0.00156539 0.106457 -0.994316 
-0.0034647 0.0768852 -0.997034 
-0.00502222 0.05554 -0.998444 
-0.00604701 0.039505 -0.999201 
-0.00638528 0.0264946 -0.999629 
-0.00754346 0.017732 -0.999814 
-0.0081216 0.0117015 -0.999899 
-0.00826779 0.0074834 -0.999938 
-0.00860447 0.00470733 -0.999952 
-0.00863102 0.0027397 -0.999959 
-0.00903641 0.00146334 -0.999958 
-0.00885577 0.00060512 -0.999961 
-0.00939296 0.000108274 -0.999956 
-0.00864759 -0.000241393 -0.999963 
-0.00901471 -0.000544776 -0.999959 
-0.00877474 -0.000839639 -0.999961 
-0.00871354 -0.0011406 -0.999961 
-0.00885903 -0.00143164 -0.99996 
-0.00876104 -0.00166658 -0.99996 
-0.0090138 -0.00183091 -0.999958 
-0.00935523 -0.00196299 -0.999954 
-0.00829526 -0.00224944 -0.999963 
-0.0081797 -0.00270196 -0.999963 
-0.00834239 -0.00336626 -0.99996 
-0.00738724 -0.00480527 -0.999961 
-0.00799297 -0.00745549 -0.99994 
-0.00698794 -0.011328 -0.999911 
-0.0071469 -0.0159006 -0.999848 
-0.00726262 -0.0167643 -0.999833 
-0.0052506 -0.0120844 -0.999913 
0.000211501 -1.70661e-05 -1 
-0.000154156 -0.000138844 1 
0.00792739 -0.010623 0.999912 
0.0102906 -0.0168134 0.999806 
0.0113145 -0.0158894 0.99981 
0.0124527 -0.011627 0.999855 
0.0129378 -0.0079309 0.999885 
0.0135612 -0.00514422 0.999895 
0.0139411 -0.00346966 0.999897 
0.0137046 -0.00270963 0.999902 
0.0139627 -0.00220391 0.9999 
0.0139928 -0.0018069 0.9999 
0.0138657 -0.00161693 0.999903 
0.0137805 -0.00151783 0.999904 
0.0136802 -0.00138439 0.999905 
0.0137309 -0.00116691 0.999905 
0.0137209 -0.000894171 0.999905 
0.0137425 -0.000617111 0.999905 
0.0136893 -0.00032241 0.999906 
0.0137634 9.49594e-05 0.999905 
0.0138042 0.000723987 0.999904 
0.0139454 0.00166587 0.999901 
0.0138786 0.00301209 0.999899 
0.0136672 0.00504046 0.999894 
0.01348 0.00809709 0.999876 
0.0128026 0.0126787 0.999838 
0.0120729 0.0193428 0.99974 
0.0106765 0.028889 0.999526 
0.00893979 0.0423284 0.999064 
0.00667803 0.0610848 0.99811 
0.00399781 0.0865779 0.996237 
0.000911207 0.118746 0.992924 
-0.00269787 0.157816 0.987465 
-0.00571651 0.198746 0.980034 
-0.00926519 0.257619 0.966202 
-0.0121326 0.344319 0.938774 
-0.0129628 0.450423 0.892721 
-0.0126704 0.5768 0.816787 
-0.01089 0.735376 0.677572 
-0.00644764 0.922083 0.386937 
-0.000853949 0.998072 -0.0620634 
0.00409396 0.895951 -0.444134 
0.00810804 0.693311 -0.720593 
0.0102187 0.549881 -0.83518 
0.0104445 0.426985 -0.904198 
0.00955329 0.334657 -0.942292 
0.00781447 0.26447 -0.964362 
0.00520021 0.207546 -0.978212 
0.00208539 0.161685 -0.98684 
-0.00136934 0.121082 -0.992642 
-0.00459451 0.0870496 -0.996193 
-0.00716827 0.0622478 -0.998035 
-0.00940104 0.0439471 -0.99899 
-0.0106686 0.0302009 -0.999487 
-0.0119567 0.0205045 -0.999718 
-0.0128414 0.0135688 -0.999825 
-0.0133041 0.00872336 -0.999873 
-0.0136262 0.00551192 -0.999892 
-0.0137043 0.00331714 -0.999901 
-0.013851 0.0018467 -0.999902 
-0.0138694 0.000854582 -0.999903 
-0.0141166 0.000211467 -0.9999 
-0.0139384 -0.000244707 -0.999903 
-0.0139233 -0.000593487 -0.999903 
-0.0137695 -0.000885422 -0.999905 
-0.0137053 -0.00113951 -0.999905 
-0.0137872 -0.00136776 -0.999904 
-0.0138409 -0.00151234 -0.999903 
-0.0139335 -0.00158754 -0.999902 
-0.0140417 -0.00177138 -0.9999 
-0.0137301 -0.00219483 -0.999903 
-0.0137368 -0.00274588 -0.999902 
-0.0139804 -0.00346291 -0.999896 
-0.0131007 -0.00490565 -0.999902 
-0.0132102 -0.0075636 -0.999884 
-0.0121827 -0.0109652 -0.999866 
-0.0115238 -0.0154372 -0.999814 
-0.0107482 -0.0173105 -0.999792 
-0.00832784 -0.0115926 -0.999898 
0.000101167 -0.000142834 -1 
-8.58701e-05 -6.43585e-05 1 
0.00734847 -0.0109903 0.999913 
0.00954585 -0.0179839 0.999793 
0.011119 -0.0163622 0.999804 
0.0120035 -0.0116579 0.99986 
0.0126417 -0.00807601 0.999887 
0.0128376 -0.00507361 0.999905 
0.012961 -0.00324219 0.999911 
0.0131332 -0.0025158 0.999911 
0.0127906 -0.00194923 0.999916 
0.012488 -0.00150224 0.999921 
0.0124794 -0.00137971 0.999921 
0.0120363 -0.0014079 0.999927 
0.0119823 -0.00136809 0.999927 
0.0117926 -0.00119791 0.99993 
0.0117908 -0.000950544 0.99993 
0.0118916 -0.000667892 0.999929 
0.0122055 -0.000302909 0.999925 
0.0123177 0.000217043 0.999924 
0.0123961 0.000948663 0.999923 
0.0121795 0.00199831 0.999924 
0.0122362 0.00349405 0.999919 
0.0123893 0.00561273 0.999907 
0.0120298 0.00900842 0.999887 
0.0116512 0.0139063 0.999835 
0.0108457 0.0210046 0.999721 
0.0102642 0.0302859 0.999489 
0.00839838 0.0441124 0.998991 
0.00605655 0.0639068 0.997937 
0.00329536 0.0894119 0.995989 
0.000101854 0.122803 0.992431 
-0.00269913 0.159614 0.987176 
-0.00577868 0.207353 0.978249 
-0.00884259 0.277747 0.960613 
-0.010152 0.36168 0.932247 
-0.00984535 0.460791 0.887454 
-0.00760422 0.60087 0.799311 
-0.00620467 0.780347 0.625316 
-0.00164359 0.954324 0.298768 
0.000496824 0.997946 -0.0640511 
0.00244126 0.896722 -0.442587 
0.00578702 0.740816 -0.671684 
0.00665915 0.567123 -0.823606 
0.0072342 0.428083 -0.90371 
0.00733156 0.330095 -0.943919 
0.00580067 0.255787 -0.966716 
0.00391709 0.201587 -0.979463 
0.00174038 0.15818 -0.987409 
-0.00116086 0.121972 -0.992533 
-0.00401252 0.0905117 -0.995887 
-0.00561603 0.0698706 -0.99754 
-0.00789968 0.049811 -0.998727 
-0.00977606 0.0339672 -0.999375 
-0.0108003 0.0231927 -0.999673 
-0.0113845 0.0152882 -0.999818 
-0.0118305 0.00968455 -0.999883 
-0.0119617 0.00606525 -0.99991 
-0.0122576 0.00368996 -0.999918 
-0.012164 0.00213465 -0.999924 
-0.0120866 0.000991418 -0.999926 
-0.0117819 0.000223216 -0.999931 
-0.0120488 -0.000297177 -0.999927 
-0.0120356 -0.000676351 -0.999927 
-0.0120825 -0.000969314 -0.999927 
-0.0122136 -0.00121974 -0.999925 
-0.011881 -0.00138565 -0.999928 
-0.0118382 -0.00141743 -0.999929 
-0.0121456 -0.00138959 -0.999925 
-0.0123631 -0.00152136 -0.999922 
-0.0131724 -0.00200451 -0.999911 
-0.0130011 -0.00257747 -0.999912 
-0.0127256 -0.00340937 -0.999913 
-0.013252 -0.00531226 -0.999898 
-0.0125294 -0.00845326 -0.999886 
-0.012347 -0.0118643 -0.999853 
-0.0111808 -0.0163467 -0.999804 
-0.00945482 -0.018012 -0.999793 
-0.00771742 -0.0109424 -0.99991 
0.000147399 -4.2309e-05 -1 
-6.09785e-05 -8.22349e-05 1 
0.00531377 -0.0119044 0.999915 
0.00679378 -0.0190974 0.999795 
0.0080483 -0.0173894 0.999816 
0.00863322 -0.0125306 0.999884 
0.0090377 -0.00859137 0.999922 
0.00908668 -0.00528099 0.999945 
0.00902313 -0.00313823 0.999954 
0.00900644 -0.00226536 0.999957 
0.0086725 -0.00166672 0.999961 
0.00831001 -0.00124717 0.999965 
0.00834208 -0.00123929 0.999964 
0.0080156 -0.00139109 0.999967 
0.00802717 -0.00141521 0.999967 
0.00785814 -0.00127003 0.999968 
0.00788885 -0.00102072 0.999968 
0.0080428 -0.00069463 0.999967 
0.00822557 -0.000269119 0.999966 
0.00825146 0.00033233 0.999966 
0.00835712 0.00114404 0.999964 
0.00813681 0.0022885 0.999964 
0.00823127 0.00398437 0.999958 
0.00850044 0.00641576 0.999943 
0.00817824 0.0101829 0.999915 
0.0078939 0.0156006 0.999847 
0.00722426 0.023662 0.999694 
0.00687742 0.0343588 0.999386 
0.00543159 0.0501674 0.998726 
0.00345349 0.072061 0.997394 
0.00116492 0.102138 0.99477 
-0.000901292 0.137829 0.990456 
-0.00300178 0.181334 0.983417 
-0.00545794 0.242282 0.97019 
-0.00601743 0.309584 0.950853 
-0.00597726 0.402444 0.915425 
-0.00449029 0.547338 0.8369 
-0.00202156 0.782447 0.622714 
0.000535551 0.756911 0.653518 
0.00066622 0.931501 0.363739 
0.00237941 0.945613 0.325286 
0.000600579 0.989383 -0.145329 
0.00133349 0.840737 -0.541443 
0.00325199 0.667463 -0.744636 
0.00344943 0.484455 -0.874809 
0.00421719 0.351788 -0.93607 
0.00361213 0.26689 -0.96372 
0.00242875 0.204376 -0.978889 
0.00114058 0.159327 -0.987225 
-0.000744202 0.121927 -0.992539 
-0.0022863 0.0961338 -0.995366 
-0.00408986 0.0679366 -0.997681 
-0.00564756 0.0477535 -0.998843 
-0.00696128 0.0331181 -0.999427 
-0.00762001 0.0224787 -0.999718 
-0.00784089 0.0148239 -0.999859 
-0.00801537 0.00953757 -0.999922 
-0.00812604 0.00595548 -0.999949 
-0.008359 0.00369787 -0.999958 
-0.0082414 0.00206513 -0.999964 
-0.00817619 0.000942849 -0.999966 
-0.00783508 0.000139258 -0.999969 
-0.00812907 -0.000385413 -0.999967 
-0.00804442 -0.00077807 -0.999967 
-0.00808337 -0.00107867 -0.999967 
-0.00826902 -0.00131745 -0.999965 
-0.00776002 -0.00143795 -0.999969 
-0.00790715 -0.00137713 -0.999968 
-0.00799346 -0.00122162 -0.999967 
-0.00805094 -0.00123985 -0.999967 
-0.00916539 -0.00169943 -0.999957 
-0.00888386 -0.00229778 -0.999958 
-0.00871635 -0.0032075 -0.999957 
-0.00953138 -0.00529146 -0.999941 
-0.00901448 -0.00875227 -0.999921 
-0.00902862 -0.012672 -0.999879 
-0.00799575 -0.0175399 -0.999814 
-0.00647352 -0.0184265 -0.999809 
-0.00533795 -0.010623 -0.999929 
6.70834e-05 -6.97896e-05 -1 
-7.68972e-07 -7.64942e-05 1 
0.00320695 -0.0105209 0.99994 
0.00433052 -0.0181132 0.999827 
0.00525872 -0.0190548 0.999805 
0.00575586 -0.0145352 0.999878 
0.00600534 -0.0100237 0.999932 
0.00589931 -0.0062431 0.999963 
0.00582213 -0.00354561 0.999977 
0.00567856 -0.00226044 0.999981 
0.00534841 -0.00155682 0.999984 
0.00494104 -0.00108271 0.999987 
0.00467738 -0.00107841 0.999988 
0.0045646 -0.00132666 0.999989 
0.00444486 -0.00149225 0.999989 
0.00439836 -0.0014431 0.999989 
0.00436535 -0.00123858 0.99999 
0.00453063 -0.000932324 0.999989 
0.00459573 -0.000544731 0.999989 
0.00470668 -2.34536e-05 0.999989 
0.00474798 0.000709099 0.999988 
0.0046987 0.00169922 0.999988 
0.00464394 0.00320963 0.999984 
0.00468341 0.00543043 0.999974 
0.00476613 0.00859379 0.999952 
0.00465585 0.013392 0.999899 
0.00451571 0.0201664 0.999786 
0.00432457 0.0304282 0.999528 
0.00382462 0.0434388 0.999049 
0.00270585 0.061935 0.998077 
0.001338 0.0877235 0.996144 
-7.07896e-05 0.119112 0.992881 
-0.00132543 0.163815 0.98649 
-0.00277057 0.214549 0.976709 
-0.00301306 0.274321 0.961634 
-0.00302497 0.352203 0.935919 
-0.00265776 0.449728 0.893162 
-0.00162753 0.622919 0.782285 
0.00220489 0.777638 0.628709 
0.00540447 0.91785 0.396892 
-0.00457285 0.984217 -0.176904 
3.28304e-05 0.961854 -0.273562 
-0.00363802 0.830362 -0.557212 
-8.62549e-05 0.817135 -0.576447 
0.00132393 0.62124 -0.783619 
0.00200809 0.412422 -0.910991 
0.00195113 0.30299 -0.952992 
0.00130372 0.226272 -0.974063 
0.000534748 0.171494 -0.985185 
-0.000389205 0.127844 -0.991794 
-0.00123141 0.102574 -0.994725 
-0.002439 0.0773811 -0.996999 
-0.00336704 0.053192 -0.998579 
-0.00425386 0.0358547 -0.999348 
-0.00463032 0.0244213 -0.999691 
-0.00468076 0.0162406 -0.999857 
-0.00464621 0.0103782 -0.999935 
-0.00466393 0.00646673 -0.999968 
-0.00459079 0.0038944 -0.999982 
-0.00471031 0.00224445 -0.999986 
-0.00462055 0.00102148 -0.999989 
-0.00454204 0.000181757 -0.99999 
-0.00464103 -0.000448771 -0.999989 
-0.00457396 -0.000869636 -0.999989 
-0.00440077 -0.0011799 -0.99999 
-0.00452086 -0.0013865 -0.999989 
-0.00422035 -0.00149984 -0.99999 
-0.0044021 -0.00137403 -0.999989 
-0.00423637 -0.0010951 -0.99999 
-0.00429945 -0.000984226 -0.99999 
-0.0052943 -0.00137078 -0.999985 
-0.00545777 -0.00205656 -0.999983 
-0.00544445 -0.0030153 -0.999981 
-0.00628465 -0.00514835 -0.999967 
-0.00603714 -0.00892192 -0.999942 
-0.00619452 -0.0132691 -0.999893 
-0.00545253 -0.0183583 -0.999817 
-0.00438443 -0.0192738 -0.999805 
-0.00367925 -0.0112739 -0.99993 
2.13638e-05 -7.19259e-05 -1 
-3.37628e-06 -7.81764e-05 1 
0.00227107 -0.0117171 0.999929 
0.00307659 -0.0201706 0.999792 
0.0033178 -0.0182419 0.999828 
0.00347544 -0.0128801 0.999911 
0.00339632 -0.008563 0.999958 
0.00321656 -0.0048932 0.999983 
0.00301402 -0.00263863 0.999992 
0.00259702 -0.00161836 0.999995 
0.00226868 -0.00102394 0.999997 
0.00203204 -0.000831706 0.999998 
0.001699 -0.00109574 0.999998 
0.00169575 -0.00144368 0.999998 
0.0015766 -0.00158813 0.999997 
0.00159846 -0.00149548 0.999998 
0.00161074 -0.00125535 0.999998 
0.00168337 -0.000933189 0.999998 
0.00179271 -0.000496269 0.999998 
0.00193067 0.00012193 0.999998 
0.00184772 0.000956368 0.999998 
0.00191477 0.0021919 0.999996 
0.00188432 0.00406292 0.99999 
0.00186158 0.00680259 0.999975 
0.0019162 0.0107963 0.99994 
0.00192397 0.0165984 0.99986 
0.00215555 0.0253584 0.999676 
0.00191219 0.0373433 0.999301 
0.00161551 0.0532251 0.998581 
0.000973743 0.0761676 0.997095 
4.24052e-05 0.104183 0.994558 
-0.000702232 0.14655 0.989203 
-0.00125998 0.208961 0.977923 
-0.00126943 0.277152 0.960825 
-0.00127077 0.36684 0.930283 
-0.00107325 0.509196 0.86065 
0.000700935 0.620492 0.784212 
0.00308922 0.749672 0.661802 
-0.00172468 0.69468 0.719316 
0.00521213 0.780399 0.62526 
0.00823586 0.862691 0.505664 
-0.00816849 0.855332 -0.518015 
-0.00419435 0.741991 -0.670397 
-0.00163035 0.749064 -0.662496 
-0.000352639 0.626049 -0.779784 
0.000888966 0.486629 -0.873608 
0.000729849 0.344752 -0.938693 
0.000316722 0.255826 -0.966723 
-0.000118219 0.191657 -0.981462 
-0.000335728 0.137193 -0.990544 
-0.00078115 0.103224 -0.994658 
-0.00141653 0.0758489 -0.997118 
-0.00193587 0.052259 -0.998632 
-0.00219871 0.0350806 -0.999382 
-0.00218344 0.0236701 -0.999717 
-0.00206217 0.0157865 -0.999873 
-0.00194257 0.0100698 -0.999947 
-0.00189483 0.00619507 -0.999979 
-0.00171274 0.00366279 -0.999992 
-0.00191617 0.00198697 -0.999996 
-0.00178316 0.000815819 -0.999998 
-0.00190264 -5.56716e-05 -0.999998 
-0.00177507 -0.000648143 -0.999998 
-0.00175158 -0.00106613 -0.999998 
-0.00157134 -0.00135586 -0.999998 
-0.00158952 -0.00152515 -0.999998 
-0.00141904 -0.00156427 -0.999998 
-0.00154685 -0.00135673 -0.999998 
-0.00132643 -0.000990991 -0.999999 
-0.00158921 -0.000784059 -0.999998 
-0.00234282 -0.00114036 -0.999997 
-0.00257165 -0.00182461 -0.999995 
-0.00289193 -0.00305152 -0.999991 
-0.00366064 -0.00557128 -0.999978 
-0.00346799 -0.00948194 -0.999949 
-0.00390111 -0.0137884 -0.999897 
-0.00341174 -0.0186744 -0.99982 
-0.00282648 -0.0197666 -0.999801 
-0.00244469 -0.0116668 -0.999929 
2.91282e-05 -7.26679e-05 -1 
-2.43204e-05 -7.28768e-05 1 
0.00140694 -0.0109627 0.999939 
0.00198621 -0.019833 0.999801 
0.00192812 -0.0187216 0.999823 
0.0018271 -0.0134254 0.999908 
0.00163541 -0.0088577 0.999959 
0.00143445 -0.0050249 0.999986 
0.0011708 -0.00256107 0.999996 
0.000782541 -0.00137205 0.999999 
0.000457461 -0.000753501 1 
0.000322565 -0.000660809 1 
0.000103193 -0.00100901 0.999999 
7.84864e-05 -0.00145792 0.999999 
5.06559e-05 -0.00168127 0.999999 
7.32824e-05 -0.00165049 0.999999 
0.000124389 -0.00145011 0.999999 
0.000143904 -0.00114292 0.999999 
0.000222168 -0.000720365 1 
0.00032738 -0.000121197 1 
0.000299789 0.000683672 1 
0.000376805 0.00184615 0.999998 
0.000420778 0.00358175 0.999993 
0.000401092 0.00620021 0.999981 
0.000413034 0.00995709 0.99995 
0.000385363 0.015323 0.999883 
0.000598049 0.0233027 0.999728 
0.000603356 0.0343253 0.999411 
0.000597096 0.0497751 0.99876 
0.000427065 0.0712662 0.997457 
-8.7296e-05 0.10294 0.994688 
-0.000444191 0.152362 0.988325 
-0.000507656 0.208852 0.977947 
-0.000576071 0.291084 0.956697 
-0.000500871 0.40552 0.914086 
0.000400667 0.508895 0.860828 
0.00220211 0.639292 0.768961 
0.00122262 0.60934 0.792908 
0.00943728 0.975753 0.218669 
0.010038 0.986393 0.164095 
0.00382545 0.996913 0.0784189 
-0.00388705 0.99976 -0.0215618 
-0.0164652 0.988757 -0.148619 
-0.00627192 0.793615 -0.608388 
-0.000469538 0.491486 -0.870885 
-0.00107154 0.530088 -0.847942 
5.73737e-05 0.397267 -0.917703 
-0.000269671 0.295076 -0.955474 
-0.000542737 0.219721 -0.975563 
-0.000514926 0.144777 -0.989464 
-0.000648644 0.108565 -0.994089 
-0.000790842 0.0760339 -0.997105 
-0.000951012 0.0532387 -0.998581 
-0.000881905 0.0362908 -0.999341 
-0.000694749 0.0243846 -0.999702 
-0.00054184 0.0162853 -0.999867 
-0.000458626 0.0104725 -0.999945 
-0.000407206 0.00637302 -0.99998 
-0.00029909 0.00381232 -0.999993 
-0.000395293 0.00205564 -0.999998 
-0.000274952 0.000811849 -1 
-0.00033558 -5.6029e-05 -1 
-0.000223238 -0.000695274 -1 
-0.000200743 -0.0011466 -0.999999 
-0.000120869 -0.00145245 -0.999999 
-4.7091e-05 -0.00164358 -0.999999 
2.78106e-06 -0.00168013 -0.999999 