# vtk DataFile Version 3.0 
Exported using Morpho https://github.com/Morpho-lang/morpho 
ASCII 
DATASET UNSTRUCTURED_GRID 

POINTS 1978 float 
-12 -4 -1.71315e-18 
-11.5939 -4 3.69402e-15 
-11.2909 -4 3.2049e-15 
-10.9616 -4 1.60832e-15 
-10.6603 -4 -4.58172e-17 
-10.3311 -4 -1.57259e-15 
-10.0043 -4 -2.58685e-15 
-9.66792 -4 -3.20514e-15 
-9.29496 -4 -2.91107e-15 
-8.9886 -4 -2.24392e-15 
-8.69894 -4 -2.42371e-15 
-8.38403 -4 -2.83973e-15 
-8.09257 -4 -3.12393e-15 
-7.77954 -4 -3.7634e-15 
-7.47515 -4 -3.90511e-15 
-7.19075 -4 -4.0586e-15 
-6.87864 -4 -4.89383e-15 
-6.57092 -4 -5.23722e-15 
-6.26483 -4 -5.70701e-15 
-5.96588 -4 -6.25086e-15 
-5.683 -4 -5.48065e-15 
-5.41329 -4 -5.84344e-15 
-5.1484 -4 -5.89645e-15 
-4.87164 -4 -5.90343e-15 
-4.58051 -4 -5.66412e-15 
-4.25932 -4 -4.59528e-15 
-3.95802 -4 -1.68646e-15 
-3.5913 -4 1.58505e-15 
-3.20912 -4 7.98223e-15 
-2.85427 -4 1.58759e-14 
-2.41709 -4 2.32989e-14 
-2.15613 -4 2.62255e-14 
-1.93211 -4 3.3967e-14 
-1.73838 -4 3.29798e-14 
-1.55388 -4 4.36083e-14 
-1.32365 -4 3.34707e-14 
-1.1175 -4 2.26294e-14 
-0.96355 -4 -2.22687e-13 
-0.221294 -4 2.53439e-13 
0.0025241 -4 -1.30585e-13 
0.309521 -4 -2.1319e-14 
1.04392 -4 9.12735e-14 
1.18965 -4 -1.5877e-13 
1.34267 -4 1.14058e-13 
1.58592 -4 3.33443e-14 
1.85748 -4 -7.70935e-14 
2.0341 -4 3.99388e-15 
2.27491 -4 -3.18818e-14 
2.57785 -4 -2.94477e-14 
2.85081 -4 -1.85245e-14 
3.17474 -4 -1.03257e-14 
3.54067 -4 -3.66557e-15 
3.92119 -4 1.13353e-15 
4.26968 -4 3.90844e-15 
4.59008 -4 5.08565e-15 
4.89109 -4 5.14133e-15 
5.17259 -4 6.8336e-15 
5.44476 -4 5.97902e-15 
5.71596 -4 6.03104e-15 
5.99893 -4 5.81957e-15 
6.28511 -4 4.87797e-15 
6.55012 -4 4.56779e-15 
6.84931 -4 4.83811e-15 
7.15913 -4 4.50017e-15 
7.46191 -4 4.23371e-15 
7.77414 -4 3.95713e-15 
8.08499 -4 3.18459e-15 
8.37253 -4 2.79277e-15 
8.66657 -4 2.58515e-15 
8.969 -4 2.76061e-15 
9.30377 -4 2.89603e-15 
9.6386 -4 2.70214e-15 
9.93613 -4 2.71867e-15 
10.2834 -4 1.80206e-15 
10.5859 -4 2.44132e-16 
10.9708 -4 -1.82327e-15 
11.2939 -4 -3.06276e-15 
11.5866 -4 -3.56523e-15 
12 -4 -4.03833e-17 
-12 -3.64159 -1.51396e-16 
-11.6984 -3.72115 -2.51149e-16 
-11.355 -3.63708 -8.80768e-16 
-11.0408 -3.67 -8.45144e-16 
-10.7137 -3.64127 -5.55847e-16 
-10.3997 -3.6692 -5.97356e-17 
-10.0659 -3.67125 2.99468e-16 
-9.7323 -3.67964 8.23538e-16 
-9.39623 -3.71313 3.23283e-16 
-9.05181 -3.66395 2.82295e-16 
-8.74509 -3.65197 1.86843e-16 
-8.4421 -3.68025 2.56326e-16 
-8.12369 -3.6555 2.02482e-16 
-7.81903 -3.67579 3.65851e-16 
-7.50086 -3.66744 5.33543e-16 
-7.19516 -3.6518 2.48221e-16 
-6.89567 -3.68117 4.53234e-16 
-6.5861 -3.68136 4.00788e-16 
-6.28269 -3.68821 3.37557e-16 
-5.98184 -3.68908 2.27206e-16 
-5.6833 -3.67321 7.53269e-16 
-5.39666 -3.6671 5.20189e-16 
-5.09439 -3.66981 9.84541e-16 
-4.76472 -3.6645 1.3611e-15 
-4.40357 -3.66156 1.69728e-15 
-4.04149 -3.58726 1.72793e-15 
-3.69861 -3.6067 5.35943e-16 
-3.3404 -3.63516 3.14145e-15 
-2.98971 -3.6414 -1.69308e-15 
-2.65347 -3.76373 7.7665e-15 
-2.40501 -3.68921 -5.76304e-15 
-2.15255 -3.74968 6.34746e-15 
-1.93061 -3.77972 -2.30087e-14 
-1.73213 -3.80832 7.85615e-15 
-1.49287 -3.87073 -1.02567e-14 
-1.27396 -3.86265 -1.313e-14 
-1.10385 -3.82875 4.49784e-15 
-0.940145 -3.84969 -3.28538e-14 
-0.379863 -3.96105 -3.48289e-13 
0.165037 -3.90306 -2.63494e-14 
0.420601 -3.9422 1.87354e-13 
0.900579 -3.96221 -7.91545e-14 
0.985153 -3.7878 1.22529e-13 
1.1442 -3.8307 1.94034e-13 
1.31525 -3.84548 -5.04397e-14 
1.80749 -3.80966 3.29933e-13 
2.00671 -3.73146 -2.67063e-13 
2.21269 -3.70885 5.47599e-14 
2.48262 -3.68647 2.88355e-14 
2.77993 -3.60377 -2.52114e-15 
3.08731 -3.59681 -4.47822e-15 
3.44773 -3.60435 -1.64091e-17 
3.82913 -3.62155 -5.51792e-16 
4.20806 -3.62534 -9.46025e-16 
4.55438 -3.64624 -5.13075e-16 
4.88055 -3.66317 1.90061e-15 
5.18634 -3.66764 -3.6162e-15 
5.48395 -3.6816 -1.59537e-16 
5.77953 -3.69026 -8.36226e-16 
6.06833 -3.68483 -7.05663e-16 
6.34673 -3.64669 -3.84388e-16 
6.63589 -3.66967 -1.44864e-16 
6.94014 -3.67595 -4.98269e-16 
7.241 -3.66383 -3.49757e-16 
7.54778 -3.67451 -3.55074e-16 
7.84785 -3.66854 -4.57107e-16 
8.13991 -3.64588 -9.58615e-17 
8.43627 -3.66245 -3.224e-16 
8.74119 -3.66743 -2.65244e-16 
9.0667 -3.69553 -3.86463e-16 
9.39157 -3.68534 -8.86169e-16 
9.70495 -3.64902 -6.01944e-16 
10.0387 -3.69972 -5.24902e-16 
10.3578 -3.64843 -1.27631e-17 
10.7142 -3.71613 4.10562e-16 
11.0528 -3.65811 6.97788e-16 
11.3594 -3.62063 8.03016e-16 
11.7127 -3.72877 2.45637e-16 
12 -3.60678 1.19394e-16 
-12 -3.32978 -2.15564e-17 
-11.648 -3.37684 -1.44104e-16 
-11.3096 -3.29548 -1.89504e-16 
-10.9904 -3.32845 -3.30997e-16 
-10.6661 -3.29519 -3.21409e-16 
-10.3386 -3.33989 -1.02954e-16 
-10.0068 -3.34523 1.20972e-16 
-9.68171 -3.35733 3.48614e-16 
-9.36376 -3.39158 5.03671e-16 
-9.06273 -3.31841 5.15371e-16 
-8.76453 -3.31108 5.38786e-16 
-8.46368 -3.33965 6.10953e-16 
-8.16248 -3.33409 6.8409e-16 
-7.84223 -3.3361 7.46325e-16 
-7.53665 -3.34127 8.28142e-16 
-7.22647 -3.31482 2.07524e-16 
-6.92284 -3.34735 3.3167e-16 
-6.62324 -3.35554 3.13944e-16 
-6.32849 -3.36496 3.01847e-16 
-6.03903 -3.36982 3.06119e-16 
-5.75195 -3.3593 2.37697e-16 
-5.46186 -3.33947 2.32365e-16 
-5.16449 -3.33906 1.78495e-16 
-4.8487 -3.34242 2.99173e-16 
-4.49122 -3.33922 -4.09674e-16 
-4.12834 -3.26011 -1.21156e-15 
-3.74979 -3.21707 4.01454e-15 
-3.4123 -3.25371 1.45389e-15 
-3.09851 -3.28367 4.87968e-16 
-2.76827 -3.39311 -1.62516e-14 
-2.53074 -3.36113 4.5208e-14 
-2.27307 -3.47048 -4.81881e-14 
-2.03887 -3.52469 9.3793e-14 
-1.81956 -3.59745 -2.17423e-15 
-1.59214 -3.71367 -4.74161e-14 
-1.37168 -3.7324 5.91224e-16 
-1.17228 -3.68957 1.97905e-14 
-0.768764 -3.94359 2.04087e-13 
-0.517244 -3.88604 6.62085e-14 
-0.135246 -3.87037 -2.92148e-14 
0.514653 -3.84816 -5.77536e-13 
0.768747 -3.89487 -3.11623e-14 
1.20399 -3.66658 1.6561e-13 
1.38042 -3.70763 4.39202e-13 
1.55559 -3.83305 -3.35807e-13 
1.65893 -3.65433 -4.41118e-13 
1.88024 -3.59354 1.90066e-13 
2.18019 -3.40533 -9.35772e-14 
2.40258 -3.39566 4.82541e-14 
2.70844 -3.32375 -1.31245e-14 
3.03562 -3.23008 -1.33782e-15 
3.35876 -3.2403 -2.15171e-15 
3.72334 -3.24606 -4.04892e-16 
4.09031 -3.2635 3.07272e-16 
4.45718 -3.28355 -1.29616e-15 
4.79602 -3.32077 1.00079e-15 
5.11917 -3.34397 -6.55906e-16 
5.42894 -3.3636 -5.02885e-16 
5.73124 -3.37509 -3.19159e-16 
6.02515 -3.3591 -5.4966e-16 
6.31723 -3.32191 -2.4234e-16 
6.61662 -3.33263 -2.64013e-16 
6.91447 -3.3479 -2.40367e-16 
7.21887 -3.32985 -1.80863e-16 
7.52368 -3.34482 -8.07812e-16 
7.83011 -3.32567 -7.21893e-16 
8.13181 -3.30827 -6.41515e-16 
8.43621 -3.32178 -6.38792e-16 
8.73404 -3.33729 -5.72797e-16 
9.04837 -3.37864 -6.01627e-16 
9.37124 -3.35882 -5.16918e-16 
9.67912 -3.30997 -3.27155e-16 
10.0006 -3.37462 -9.1354e-17 
10.3121 -3.30771 2.34585e-16 
10.6399 -3.39511 3.49603e-16 
10.9708 -3.34233 3.90049e-16 
11.3013 -3.26767 1.39565e-16 
11.6374 -3.38175 1.34938e-16 
12 -3.29933 6.55396e-17 
-12 -3.01024 4.24317e-17 
-11.6497 -3.04791 1.2682e-16 
-11.3017 -2.96967 2.57717e-16 
-10.9599 -2.98264 1.03571e-17 
-10.6267 -2.95498 -1.79333e-16 
-10.3095 -3.00713 -8.57776e-17 
-9.99375 -2.99882 7.48071e-18 
-9.67903 -3.01699 5.0905e-17 
-9.36559 -3.04594 1.01167e-16 
-9.06515 -2.97021 8.7907e-17 
-8.74962 -2.98014 1.10717e-16 
-8.43633 -2.99817 1.78831e-16 
-8.11555 -3.01133 2.42696e-16 
-7.80338 -2.99898 2.34036e-16 
-7.49654 -3.00283 2.41869e-16 
-7.19647 -2.96907 3.24219e-16 
-6.90464 -3.01852 2.65376e-16 
-6.60818 -3.02346 5.37171e-16 
-6.32047 -3.02963 4.33593e-16 
-6.03394 -3.03958 6.07854e-16 
-5.74452 -3.02582 4.24387e-16 
-5.44933 -3.00338 6.62688e-16 
-5.14174 -2.99611 4.09347e-16 
-4.79538 -3.01825 7.06976e-16 
-4.45204 -2.98791 -6.85695e-16 
-4.10548 -2.91906 -2.18149e-15 
-3.77037 -2.87213 1.81764e-15 
-3.44074 -2.9011 2.19724e-16 
-3.14787 -2.91927 -7.44612e-15 
-2.87571 -3.04019 3.13347e-16 
-2.63368 -3.02001 3.22315e-14 
-2.37132 -3.17599 -3.92389e-14 
-2.14527 -3.28119 7.37683e-14 
-1.8903 -3.39208 -1.50233e-13 
-1.61698 -3.54357 -1.03869e-14 
-1.43011 -3.5839 -2.86585e-14 
-1.23181 -3.55793 9.84687e-14 
-0.972239 -3.68078 4.08877e-14 
-0.322102 -3.80322 -3.31177e-14 
-0.161798 -3.70216 2.53479e-14 
0.26298 -3.75958 -7.55e-14 
0.734321 -3.77615 -2.6104e-13 
1.31174 -3.51646 -1.00053e-12 
1.48676 -3.58797 8.47926e-13 
1.64123 -3.44253 -3.86031e-14 
1.82118 -3.43485 -1.33079e-13 
2.02775 -3.36333 -1.43377e-14 
2.30721 -3.10695 -4.39942e-14 
2.54792 -3.10254 4.04373e-15 
2.83015 -3.01252 -1.50147e-14 
3.12816 -2.90392 9.55481e-15 
3.43374 -2.91184 4.2028e-15 
3.76689 -2.9029 3.78074e-15 
4.11985 -2.92 6.5972e-16 
4.47835 -2.93991 1.16151e-17 
4.82384 -2.97933 -3.83218e-17 
5.1494 -3.01539 -6.20685e-16 
5.4594 -3.03938 -5.18581e-16 
5.75 -3.04315 -6.25766e-16 
6.03607 -3.0241 -1.72569e-16 
6.33103 -2.99222 -5.37496e-16 
6.62747 -3.00068 -3.51064e-16 
6.92513 -3.0159 -4.43256e-16 
7.22496 -2.99186 -2.32705e-16 
7.52398 -3.01243 -2.77786e-16 
7.82515 -2.9853 -1.2391e-16 
8.13081 -2.97318 -2.72729e-16 
8.44102 -2.98537 -1.00239e-16 
8.74782 -2.99124 -1.39748e-16 
9.04409 -3.05359 -1.85893e-16 
9.34737 -3.01633 -1.18505e-16 
9.64903 -2.9652 -5.84369e-17 
9.97313 -3.03602 -3.4412e-17 
10.3157 -2.98667 1.06082e-16 
10.6547 -3.06202 2.82976e-16 
10.9886 -3.00431 6.9699e-17 
11.3294 -2.93892 -2.57999e-16 
11.6588 -3.06137 -9.47446e-17 
12 -2.97531 -8.48167e-18 
-12 -2.68883 5.30328e-17 
-11.647 -2.71749 2.9789e-16 
-11.3157 -2.6337 4.5662e-16 
-10.9762 -2.64954 1.9242e-16 
-10.6331 -2.62812 -1.998e-17 
-10.2931 -2.65704 -4.7132e-17 
-9.97045 -2.65535 -6.79323e-17 
-9.64876 -2.67527 -5.45571e-17 
-9.34557 -2.68673 -6.89413e-17 
-9.02111 -2.63983 -1.06074e-16 
-8.70701 -2.64802 -5.12302e-17 
-8.39063 -2.67427 -3.78546e-17 
-8.07917 -2.67594 -2.43949e-18 
-7.77144 -2.65889 3.02149e-17 
-7.47189 -2.65527 -5.71684e-17 
-7.15696 -2.6405 1.55985e-16 
-6.85639 -2.68486 -2.10285e-16 
-6.56302 -2.68729 1.18114e-16 
-6.26855 -2.69774 -1.49368e-16 
-5.97154 -2.70417 2.57967e-17 
-5.66579 -2.67948 -2.58359e-16 
[...]
POINT_DATA 1978 
VECTORS vectors float
7.09191e-05 0.000549509 1 
-0.000132444 -0.0337999 0.999429 
2.09079e-05 -0.0287502 0.999587 
5.11476e-05 -0.0132131 0.999913 
-7.01999e-06 -0.000219352 1 
-5.85013e-06 0.0104407 0.999945 
3.80547e-05 0.01598 0.999872 
7.54439e-08 0.0170867 0.999854 
-1.13744e-05 0.0157643 0.999876 
5.47554e-05 0.0155685 0.999879 
1.76461e-06 0.0167428 0.99986 
-5.54157e-07 0.0192389 0.999815 
3.67831e-05 0.0220594 0.999757 
-1.08243e-05 0.0252077 0.999682 
1.58711e-05 0.0280374 0.999607 
4.12143e-05 0.0305449 0.999533 
-6.52449e-06 0.0334375 0.999441 
8.01056e-06 0.0360082 0.999351 
2.32725e-05 0.0394477 0.999222 
5.98142e-06 0.0430665 0.999072 
1.29392e-05 0.0471056 0.99889 
3.98151e-05 0.0514323 0.998676 
3.39971e-05 0.0558697 0.998438 
3.67822e-06 0.0613278 0.998118 
-7.40723e-06 0.0679313 0.99769 
3.771e-05 0.0758255 0.997121 
2.58396e-05 0.0857499 0.996317 
-2.46764e-05 0.101919 0.994793 
6.8468e-05 0.124733 0.99219 
9.72519e-06 0.155163 0.987889 
-1.55998e-05 0.212603 0.977139 
7.14068e-05 0.265483 0.964116 
0.000108935 0.317128 0.948383 
7.16076e-05 0.373008 0.927828 
1.66861e-05 0.428993 0.903308 
-2.80832e-05 0.509894 0.860237 
-8.75119e-05 0.598753 0.800934 
-1.0244e-05 0.659177 0.751988 
-2.12472e-05 0.948756 0.31601 
-7.21293e-05 0.996453 0.0841461 
4.17836e-05 0.964382 -0.264513 
-1.76699e-05 0.615831 -0.787878 
-7.89504e-07 0.550232 -0.835012 
8.22025e-05 0.480457 -0.877018 
1.97905e-06 0.377709 -0.925924 
-7.48893e-05 0.298247 -0.954489 
-7.32315e-05 0.261927 -0.965088 
-2.40242e-05 0.22295 -0.97483 
3.67945e-05 0.182126 -0.983275 
-4.2359e-05 0.152614 -0.988286 
-4.61876e-06 0.126051 -0.992024 
-5.86173e-06 0.103859 -0.994592 
-1.81245e-05 0.0870269 -0.996206 
-9.46608e-06 0.0754699 -0.997148 
-1.72634e-05 0.0672528 -0.997736 
-2.05317e-06 0.0609422 -0.998141 
-2.19374e-05 0.0551854 -0.998476 
-4.29213e-05 0.0503993 -0.998729 
-1.04738e-05 0.0461731 -0.998933 
8.29308e-06 0.0423457 -0.999103 
-4.00265e-05 0.0390508 -0.999237 
-3.40257e-05 0.0363535 -0.999339 
1.1529e-05 0.0337038 -0.999432 
-1.66455e-05 0.0310586 -0.999518 
-2.58059e-05 0.0284583 -0.999595 
9.28445e-07 0.0257311 -0.999669 
-1.0611e-05 0.0227478 -0.999741 
-2.15349e-05 0.0199484 -0.999801 
-2.65379e-05 0.0175929 -0.999845 
-4.12533e-06 0.0162322 -0.999868 
4.67997e-06 0.016298 -0.999867 
-3.56137e-05 0.0173441 -0.99985 
9.27111e-06 0.0168337 -0.999858 
-3.63273e-05 0.0118323 -0.99993 
1.94965e-05 0.00266414 -0.999996 
-1.0247e-05 -0.0143272 -0.999897 
-8.26426e-05 -0.0294154 -0.999567 
0.000166538 -0.0337099 -0.999432 
-8.81447e-05 0.000515212 -1 
3.36583e-05 -0.000241426 1 
0.0120031 -0.0251096 0.999613 
0.0175891 -0.0273712 0.999471 
0.0192294 -0.0182664 0.999648 
0.0214686 -0.00570456 0.999753 
0.0220304 0.00468127 0.999746 
0.0231701 0.011621 0.999664 
0.0234538 0.0148495 0.999615 
0.022325 0.0156004 0.999629 
0.024213 0.0157415 0.999583 
0.0247348 0.0167654 0.999553 
0.0234582 0.0184661 0.999554 
0.0240041 0.020744 0.999497 
0.02295 0.0233474 0.999464 
0.0229636 0.0260694 0.999396 
0.0234347 0.0285127 0.999319 
0.022518 0.0313853 0.999254 
0.0227907 0.0345302 0.999144 
0.0225168 0.0379365 0.999026 
0.0220724 0.0415434 0.998893 
0.021507 0.0454822 0.998734 
0.0205335 0.0499638 0.99854 
0.0184646 0.0554067 0.998293 
0.0154867 0.062437 0.997929 
0.0114111 0.0719592 0.997342 
0.00612547 0.0851593 0.996349 
-0.000270202 0.100345 0.994953 
-0.00767167 0.121606 0.992549 
-0.0149 0.14849 0.988802 
-0.0133195 0.185349 0.982583 
-0.0273307 0.228701 0.973113 
-0.0261765 0.27857 0.960059 
-0.0282731 0.330517 0.943376 
-0.023782 0.381374 0.924115 
-0.016216 0.457169 0.889232 
-0.0173347 0.547113 0.836879 
-0.0362072 0.593221 0.804225 
-0.0207517 0.662887 0.748432 
-0.00612841 0.905784 0.423695 
-0.00630089 0.998377 -0.0565936 
-0.000738212 0.933215 -0.359319 
0.00035437 0.706478 -0.707735 
0.0140565 0.641519 -0.766979 
0.0242266 0.555892 -0.830901 
0.0175327 0.446661 -0.894531 
0.0225017 0.327853 -0.944461 
0.046479 0.28136 -0.958476 
0.0388389 0.244829 -0.968788 
0.0313983 0.20334 -0.978605 
0.0327275 0.170637 -0.98479 
0.0208618 0.140992 -0.989791 
0.00821848 0.113336 -0.993523 
-0.00141435 0.0923882 -0.995722 
-0.00850106 0.0776381 -0.996945 
-0.0133636 0.0675867 -0.997624 
-0.0165153 0.0599363 -0.998066 
-0.0190615 0.0539702 -0.998361 
-0.020525 0.0487748 -0.998599 
-0.0212949 0.0442077 -0.998795 
-0.0223456 0.0402525 -0.99894 
-0.0237 0.0364997 -0.999053 
-0.0230209 0.0337862 -0.999164 
-0.0230834 0.0311438 -0.999248 
-0.0235123 0.0285113 -0.999317 
-0.0234553 0.0260925 -0.999384 
-0.0237207 0.0236238 -0.999439 
-0.0244659 0.0210286 -0.999479 
-0.0244493 0.0189976 -0.999521 
-0.0244287 0.0173325 -0.999551 
-0.0237211 0.0163507 -0.999585 
-0.0238343 0.0159313 -0.999589 
-0.0248515 0.0149989 -0.999579 
-0.0225562 0.0128102 -0.999664 
-0.0226993 0.00581579 -0.999725 
-0.0189097 -0.00471946 -0.99981 
-0.0193198 -0.0187651 -0.999637 
-0.0178221 -0.0272343 -0.99947 
-0.0114499 -0.0246264 -0.999631 
4.07855e-05 -0.000231338 -1 
9.36634e-05 5.78195e-05 1 
0.0145863 -0.0248146 0.999586 
0.0201064 -0.0277509 0.999413 
0.0233863 -0.019172 0.999543 
0.0255778 -0.00766124 0.999643 
0.027971 0.00241827 0.999606 
0.0297088 0.00925211 0.999516 
0.030896 0.0133075 0.999434 
0.0309917 0.0151829 0.999404 
0.03094 0.0161743 0.99939 
0.0300539 0.0170876 0.999402 
0.0295329 0.0182572 0.999397 
0.029055 0.0197183 0.999383 
0.0285857 0.0218117 0.999353 
0.0283065 0.024151 0.999307 
0.028126 0.0266018 0.99925 
0.0280903 0.0297458 0.999163 
0.0277015 0.0327861 0.999078 
0.0272834 0.0362746 0.998969 
0.0265396 0.0400167 0.998846 
0.0252932 0.0441704 0.998704 
0.0233587 0.0490087 0.998525 
0.0209366 0.0547575 0.99828 
0.017353 0.061856 0.997934 
0.0116108 0.0716921 0.997359 
0.00149393 0.0864706 0.996253 
-0.0151777 0.108745 0.993954 
-0.0268915 0.129934 0.991158 
-0.0424084 0.157369 0.986629 
-0.0446911 0.184831 0.981754 
-0.0680682 0.221533 0.972774 
-0.0619956 0.262918 0.962824 
-0.0714553 0.313833 0.946786 
-0.0582537 0.367824 0.928069 
-0.0426508 0.42506 0.90416 
-0.0366414 0.496458 0.867287 
-0.0559279 0.567374 0.821559 
-0.00917421 0.758752 0.651315 
-0.015123 0.872124 0.489051 
-0.0129631 0.985416 0.169666 
-0.00289636 0.910015 -0.414564 
-9.82852e-05 0.759525 -0.650478 
0.0495501 0.55212 -0.832291 
0.0399933 0.487435 -0.872243 
0.0354963 0.38488 -0.922284 
0.0728124 0.362827 -0.929007 
0.0644994 0.319529 -0.945379 
0.103323 0.269712 -0.957382 
0.0803256 0.231462 -0.969522 
0.0750292 0.20047 -0.976823 
0.0605934 0.169504 -0.983665 
0.035067 0.135999 -0.990088 
0.0156033 0.108844 -0.993936 
0.00147874 0.0886711 -0.99606 
-0.00786389 0.0739675 -0.99723 
-0.0153102 0.0637439 -0.997849 
-0.0199139 0.0560867 -0.998227 
-0.0230446 0.0497571 -0.998495 
-0.0250464 0.0444781 -0.998696 
-0.0259902 0.0399235 -0.998865 
-0.0265996 0.0360009 -0.998998 
-0.0273748 0.0325961 -0.999094 
-0.0281369 0.0298645 -0.999158 
-0.028273 0.026945 -0.999237 
-0.028776 0.0247402 -0.99928 
-0.0286956 0.0222641 -0.99934 
-0.0289993 0.0203087 -0.999373 
-0.0296908 0.0188174 -0.999382 
-0.0302467 0.0175423 -0.999389 
-0.0309264 0.0165092 -0.999385 
-0.0311224 0.0153907 -0.999397 
-0.0308261 0.01334 -0.999436 
-0.0296163 0.00995358 -0.999512 
-0.0281302 0.00283553 -0.9996 
-0.0259618 -0.00559859 -0.999647 
-0.0236453 -0.0180933 -0.999557 
-0.0199427 -0.0275895 -0.99942 
-0.014876 -0.0253177 -0.999569 
-0.00013854 0.000103522 -1 
6.30363e-05 6.05311e-06 1 
0.0114896 -0.0258685 0.999599 
0.0153347 -0.0299185 0.999435 
0.0187497 -0.0213262 0.999597 
0.0208432 -0.0101811 0.999731 
0.0241256 -0.000391493 0.999709 
0.0256348 0.00669194 0.999649 
0.0266502 0.0117685 0.999576 
0.0272737 0.0147049 0.99952 
0.0251215 0.0165963 0.999547 
0.0246255 0.0178202 0.999538 
0.0240265 0.0184476 0.999541 
0.0237791 0.0195401 0.999526 
0.023146 0.021211 0.999507 
0.0227998 0.0234114 0.999466 
0.021646 0.0259791 0.999428 
0.0225368 0.0289715 0.999326 
0.0216247 0.032257 0.999246 
0.0207727 0.0358451 0.999141 
0.0194794 0.0400279 0.999009 
0.0174899 0.0449345 0.998837 
0.0146459 0.0507523 0.998604 
0.0116028 0.0578066 0.99826 
0.00732494 0.0673517 0.997702 
-0.000857522 0.0803221 0.996769 
-0.0152074 0.0996195 0.994909 
-0.0360434 0.126011 0.991374 
-0.0557575 0.151435 0.986893 
-0.076628 0.177607 0.981114 
-0.088302 0.200214 0.975765 
-0.117883 0.23751 0.964206 
-0.108073 0.266565 0.957739 
-0.119494 0.306736 0.944264 
-0.104204 0.35991 0.927149 
-0.0830459 0.412715 0.907066 
-0.0665911 0.472367 0.878883 
-0.081631 0.534101 0.84147 
-0.0384848 0.682035 0.730306 
-0.0184163 0.937185 0.348347 
-0.0201222 0.971127 0.237712 
-0.0076569 0.968824 -0.247631 
-0.00511132 0.812801 -0.582519 
0.0837962 0.49614 -0.864189 
0.0592498 0.438843 -0.896608 
0.106953 0.384184 -0.917041 
0.125694 0.335844 -0.933493 
0.118776 0.302846 -0.945609 
0.161702 0.277644 -0.946978 
0.132586 0.244581 -0.960521 
0.114585 0.217613 -0.969286 
0.0896112 0.188374 -0.978001 
0.0573414 0.152341 -0.986663 
0.034568 0.123738 -0.991713 
0.0157786 0.0991234 -0.99495 
0.00382065 0.0813745 -0.996676 
-0.00533303 0.0673515 -0.997715 
-0.0111905 0.0578332 -0.998264 
-0.0154574 0.0505919 -0.9986 
-0.0178353 0.0450053 -0.998828 
-0.019104 0.040126 -0.999012 
-0.0193394 0.0357848 -0.999172 
-0.0208353 0.0318222 -0.999276 
-0.0222613 0.0286613 -0.999341 
-0.0222973 0.02585 -0.999417 
-0.0231625 0.0234981 -0.999456 
-0.0228076 0.0213372 -0.999512 
-0.0228721 0.0198129 -0.999542 
-0.0239469 0.0187241 -0.999538 
-0.0248188 0.0179551 -0.999531 
-0.0270829 0.0169326 -0.99949 
-0.0266644 0.0153226 -0.999527 
-0.0255823 0.0124469 -0.999595 
-0.026343 0.00772047 -0.999623 
-0.0235703 -0.000520619 -0.999722 
-0.0227847 -0.0096399 -0.999694 
-0.0190717 -0.0219046 -0.999578 
-0.0144234 -0.0304796 -0.999431 
-0.0116401 -0.0256795 -0.999602 
-9.83715e-06 3.55578e-05 -1 
-4.33308e-05 -5.89652e-05 1 
0.00653713 -0.0273836 0.999604 
0.0084237 -0.0330732 0.999417 
0.0114715 -0.0250213 0.999621 
0.0136161 -0.0136941 0.999814 
0.0161538 -0.00318371 0.999864 
0.0173478 0.00508304 0.999837 
0.0180736 0.0113085 0.999773 
0.0181418 0.0148966 0.999724 
0.0164263 0.0173852 0.999714 
0.0158682 0.0184654 0.999704 
0.015781 0.0188343 0.999698 
0.0153509 0.0195297 0.999691 
0.0145848 0.0209877 0.999673 
0.014169 0.0231352 0.999632 
0.0131875 0.0260285 0.999574 
0.0136444 0.0289502 0.999488 
0.0124032 0.0326746 0.999389 
0.0111923 0.0368669 0.999258 
0.0094103 0.0419102 0.999077 
0.00640429 0.0481371 0.99882 
0.0025111 0.0561476 0.998419 
-0.00131681 0.066807 0.997765 
-0.0103509 0.0826143 0.996528 
-0.0250783 0.104169 0.994243 
-0.0435202 0.129787 0.990586 
-0.0688186 0.161017 0.984549 
-0.0966159 0.191395 0.976746 
-0.124871 0.221505 0.967131 
-0.147176 0.246049 0.958018 
-0.191363 0.290286 0.937611 
-0.158437 0.281071 0.946518 
-0.178161 0.317395 0.931407 
-0.158916 0.345192 0.92498 
-0.152359 0.390995 0.907695 
-0.127952 0.427266 0.895026 
-0.110846 0.464221 0.878756 
-0.0482425 0.725376 0.68666 
-0.0198357 0.81706 0.576211 
-0.0110775 0.998624 -0.0512551 
-0.0100474 0.929833 -0.367846 
0.0136897 0.723879 -0.689791 
0.100949 0.527069 -0.843805 
0.189684 0.406881 -0.89357 
0.164502 0.367758 -0.915256 
0.202735 0.340645 -0.918074 
0.189142 0.310182 -0.931672 
0.192143 0.282637 -0.939786 
0.177318 0.270249 -0.946321 
0.147507 0.243802 -0.958542 
0.119001 0.217381 -0.968806 
0.0844612 0.181366 -0.979782 
0.0622723 0.155769 -0.985829 
0.0375145 0.122672 -0.991738 
0.0203362 0.0966702 -0.995109 
0.00895395 0.0772529 -0.996971 
0.00121026 0.0635961 -0.997975 
-0.00398909 0.0539097 -0.998538 
-0.00688671 0.0467449 -0.998883 
-0.00912616 0.0410684 -0.999115 
-0.0103332 0.0360279 -0.999297 
-0.012047 0.0318433 -0.99942 
-0.0136011 0.0282229 -0.999509 
-0.0137305 0.0252404 -0.999587 
-0.0146146 0.0226781 -0.999636 
-0.0141523 0.020571 -0.999688 
-0.0145916 0.0193034 -0.999707 
-0.0154153 0.0187956 -0.999705 
-0.0159076 0.0185383 -0.999702 
-0.0183065 0.0173596 -0.999682 
-0.0174991 0.0152625 -0.99973 
-0.0171159 0.0112206 -0.999791 
-0.0186718 0.00524234 -0.999812 
-0.0159289 -0.00373628 -0.999866 
-0.015675 -0.0129785 -0.999793 
-0.0118766 -0.025117 -0.999614 
-0.00792071 -0.0330047 -0.999424 
-0.00636545 -0.0262875 -0.999634 
2.69926e-05 3.18057e-05 -1 
-8.10192e-06 -2.96159e-05 1 
0.00217957 -0.0259985 0.99966 
0.00269374 -0.0356268 0.999362 
0.0050061 -0.0311361 0.999503 
0.00695965 -0.0199734 0.999776 
0.00860521 -0.00828226 0.999929 
0.00926276 0.00132428 0.999956 
0.00988858 0.00921962 0.999909 
0.00937839 0.0144219 0.999852 
0.00871472 0.0173789 0.999811 
0.00766974 0.0187919 0.999794 
0.00764684 0.0189701 0.999791 
0.00748873 0.0192281 0.999787 
0.00690698 0.0203656 0.999769 
0.00628244 0.0224629 0.999728 
0.00621016 0.0251819 0.999664 
0.00563186 0.0286955 0.999572 
0.00475535 0.0322907 0.999467 
0.00322753 0.0367308 0.99932 
0.00138726 0.0419687 0.999118 
-0.0015505 0.0484594 0.998824 
-0.00575837 0.0570989 0.998352 
-0.00958234 0.0681683 0.997628 
-0.0173528 0.0843346 0.996286 
-0.0312536 0.108356 0.993621 
-0.0499267 0.138051 0.989166 
-0.0720866 0.167912 0.983163 
-0.102245 0.204653 0.97348 
-0.136253 0.237957 0.961671 
-0.168874 0.268319 0.948413 
-0.205574 0.299714 0.931617 
-0.251627 0.341981 0.905391 
-0.230732 0.334493 0.913716 
-0.242715 0.365675 0.898539 
-0.214244 0.37267 0.902893 
-0.200805 0.407376 0.890911 
-0.178004 0.454259 0.872905 
-0.0746141 0.648727 0.757354 
-0.0252565 0.897993 0.439285 
-0.0160826 0.993377 0.113773 
-0.0121051 0.953487 -0.301192 
0.0322728 0.635801 -0.771178 
0.268274 0.450983 -0.85126 
0.238533 0.380457 -0.893507 
0.286807 0.365251 -0.885626 
0.273481 0.345456 -0.897702 
0.24031 0.319363 -0.916656 
0.245508 0.325972 -0.912945 
0.227802 0.319497 -0.919798 
0.189777 0.291717 -0.937489 
0.154767 0.263966 -0.952034 
0.114076 0.222743 -0.96818 
0.0871204 0.19448 -0.97703 
0.0589468 0.155011 -0.986153 
0.0365014 0.119068 -0.992215 
0.0224224 0.0921109 -0.995496 
0.0126697 0.0723548 -0.997298 
0.00639451 0.0591463 -0.998229 
0.00276808 0.0498226 -0.998754 
-0.000310131 0.042789 -0.999084 
-0.00218968 0.0375947 -0.999291 
-0.0040407 0.032756 -0.999455 
-0.00573651 0.0286691 -0.999572 
-0.00598079 0.0256666 -0.999653 
-0.0067851 0.0226789 -0.99972 
-0.00640424 0.0206484 -0.999766 
-0.00707436 0.0192789 -0.999789 
-0.0071105 0.0188816 -0.999796 
-0.00712213 0.0188242 -0.999797 
-0.00910823 0.0179558 -0.999797 
-0.00921984 0.0154221 -0.999839 
-0.00895432 0.0109209 -0.9999 
-0.0109013 0.00415341 -0.999932 
-0.00896311 -0.00556414 -0.999944 
-0.00905808 -0.0158449 -0.999833 
-0.00610804 -0.0281832 -0.999584 
-0.00312275 -0.0354321 -0.999367 
-0.00258875 -0.0281925 -0.999599 
-9.37305e-06 3.76931e-05 -1 
1.13477e-05 -3.71417e-05 1 
-0.000193346 -0.0285452 0.999592 
1.82721e-05 -0.0378289 0.999284 
0.00120654 -0.0309012 0.999522 
0.00232426 -0.01831 0.99983 
0.0025442 -0.00713296 0.999971 
0.00282502 0.00313063 0.999991 
0.00283469 0.0109268 0.999936 
0.00184581 0.0159587 0.999871 
0.00133058 0.0184776 0.999828 
0.000805847 0.0191807 0.999816 
0.000726698 0.0190265 0.999819 
0.000714767 0.0194463 0.999811 
0.0004055 0.021034 0.999779 
7.5344e-05 0.0236971 0.999719 
0.000261156 0.0269139 0.999638 
-0.00108397 0.0306684 0.999529 
-0.00202402 0.0348146 0.999392 
-0.00383514 0.0400031 0.999192 
-0.00631751 0.0463924 0.998903 
-0.00985619 0.0550834 0.998433 
-0.0148964 0.0683645 0.997549 
-0.0222226 0.0861571 0.996034 
-0.035259 0.113653 0.992895 
-0.0542283 0.148979 0.987352 
-0.0809211 0.189856 0.978471 
-0.111105 0.232038 0.966341 
-0.139169 0.256288 0.95653 
-0.177054 0.299273 0.937597 
-0.21157 0.331985 0.919252 
-0.229895 0.335864 0.913424 
-0.277782 0.371428 0.885934 
-0.295126 0.384579 0.874643 
-0.303732 0.402443 0.86359 
-0.301639 0.416913 0.857437 
-0.279063 0.423206 0.861986 
-0.187901 0.510579 0.839049 
-0.227943 0.474503 0.850228 
-0.0300781 0.770629 0.636574 
-0.0105008 0.998813 -0.0475629 
0.0688042 0.597012 -0.799277 
0.115551 0.422668 -0.898888 
0.227529 0.414776 -0.881017 
0.33058 0.397557 -0.855959 
0.347998 0.390323 -0.852376 
0.304981 0.365703 -0.879345 
0.312194 0.384737 -0.868627 
0.282916 0.377374 -0.881786 
0.249903 0.362158 -0.897992 
0.213325 0.337437 -0.916858 
0.168779 0.299438 -0.939069 
0.131558 0.261966 -0.956068 
0.0993436 0.225526 -0.969159 
0.0703035 0.182448 -0.980699 
0.046077 0.137683 -0.989404 
0.0312636 0.106676 -0.993802 
0.020268 0.0803944 -0.996557 
0.0133618 0.0629149 -0.997929 
0.00931684 0.0522916 -0.998588 
0.00626414 0.0447885 -0.998977 
0.00371889 0.0386076 -0.999248 
0.00194127 0.0335996 -0.999433 
0.000569025 0.0294349 -0.999567 
-0.000114707 0.0257961 -0.999667 
-0.000520784 0.0227748 -0.99974 
-0.000168586 0.0204242 -0.999791 
-0.000581316 0.0191026 -0.999817 
-0.000228363 0.0188248 -0.999823 
-0.000400215 0.0190787 -0.999818 
-0.00185972 0.0183015 -0.999831 
-0.00192648 0.0156441 -0.999876 
-0.00205297 0.0104763 -0.999943 
-0.00392825 0.00272164 -0.999989 
-0.0029047 -0.00787377 -0.999965 
-0.00349831 -0.0187354 -0.999818 
-0.00152543 -0.0308474 -0.999523 
0.000175037 -0.0375431 -0.999295 
-2.97227e-05 -0.0291157 -0.999576 
9.34023e-06 3.1498e-05 -1 
-2.863e-05 -3.57948e-06 1 
-0.00146531 -0.030055 0.999547 
-0.0018261 -0.0392486 0.999228 
-0.00163719 -0.0329315 0.999456 
-0.00139268 -0.0202518 0.999794 
-0.00174961 -0.00831877 0.999964 
-0.00194113 0.00244695 0.999995 
-0.00234581 0.0109394 0.999937 
-0.00305529 0.0162313 0.999864 
-0.00352808 0.018742 0.999818 
-0.00362424 0.0192448 0.999808 
-0.00362388 0.018877 0.999815 
-0.00346513 0.0193592 0.999807 
-0.0034038 0.0210741 0.999772 
-0.00344326 0.023918 0.999708 
-0.00348719 0.0275001 0.999616 
-0.00446932 0.0314328 0.999496 
-0.00562069 0.0360507 0.999334 
-0.00724634 0.0413329 0.999119 
-0.00958264 0.0478823 0.998807 
-0.0127053 0.0567004 0.99831 
-0.0169454 0.0692641 0.997454 
-0.0242612 0.0896837 0.995675 
-0.0355079 0.118572 0.99231 
-0.0550853 0.16135 0.985359 
-0.08186 0.208674 0.974553 
-0.116464 0.26727 0.956558 
-0.148321 0.297134 0.943246 
-0.182609 0.336281 0.923888 
-0.223995 0.380609 0.897197 
-0.260912 0.400106 0.878544 
-0.285984 0.400529 0.870511 
-0.321463 0.404777 0.856047 
-0.368789 0.44837 0.814223 
-0.369432 0.456332 0.809494 
-0.364224 0.460614 0.80943 
-0.260014 0.448846 0.854944 
-0.114063 0.505192 0.855436 
-0.0278632 0.835437 0.54888 
-0.00821264 0.993415 -0.114274 
-0.0182956 0.816714 -0.576753 
0.129962 0.452264 -0.882364 
0.297874 0.422259 -0.856136 
0.375459 0.399964 -0.836098 
0.390271 0.43041 -0.813902 
0.374978 0.441085 -0.815375 
0.338533 0.433496 -0.835151 
0.310686 0.435128 -0.845067 
0.280388 0.42159 -0.862348 
0.232513 0.384405 -0.893404 
0.191317 0.355496 -0.914888 
0.152486 0.316104 -0.93639 
0.120655 0.282042 -0.951785 
0.088302 0.231946 -0.968712 
0.0604651 0.178061 -0.98216 
0.0409073 0.134064 -0.990128 
0.026918 0.0971907 -0.994902 
0.018435 0.0727284 -0.997181 
0.0134231 0.0579449 -0.99823 
0.010122 0.0483844 -0.998777 
0.00750191 0.041434 -0.999113 
0.00560575 0.0358873 -0.99934 
0.004327 0.0311584 -0.999505 
0.00349107 0.0273192 -0.999621 
0.00321088 0.0237223 -0.999713 
0.00333626 0.0209662 -0.999775 
0.00339882 0.0190974 -0.999812 
0.00365304 0.0186782 -0.999819 
0.00372854 0.0190398 -0.999812 
0.00312045 0.018669 -0.999821 
0.00297784 0.0161355 -0.999865 
0.00266937 0.0105913 -0.99994 
0.00123336 0.00187055 -0.999997 
0.00152523 -0.00881203 -0.99996 
0.000692003 -0.0200814 -0.999798 
0.00147304 -0.0319291 -0.999489 
0.00189881 -0.0388675 -0.999243 
0.00131688 -0.0307012 -0.999528 
1.674e-05 3.28312e-05 -1 
-2.56628e-06 6.32649e-06 1 
-0.00174664 -0.0318661 0.999491 
-0.00244201 -0.0396378 0.999211 
-0.00290264 -0.0321726 0.999478 
-0.00334732 -0.0195489 0.999803 
-0.00403181 -0.00728119 0.999965 
-0.00457925 0.00381212 0.999982 
-0.0050879 0.0119794 0.999915 
-0.00544408 0.0170689 0.999839 
-0.00560359 0.0191121 0.999802 
-0.00547174 0.0190558 0.999803 
-0.00516359 0.0185795 0.999814 
-0.00485933 0.0193576 0.999801 
-0.00459783 0.0216406 0.999755 
-0.00452704 0.0251101 0.999674 