# vtk DataFile Version 3.0 
Exported using Morpho https://github.com/Morpho-lang/morpho 
ASCII 
DATASET UNSTRUCTURED_GRID 

POINTS 1978 float 
-12 -4 -1.32762e-09 
-11.6652 -4 9.32193e-09 
-11.3418 -4 7.22729e-09 
-11.008 -4 5.88743e-09 
-10.6739 -4 3.36803e-09 
-10.3389 -4 2.25464e-09 
-10.0109 -4 2.32176e-09 
-9.68926 -4 2.04077e-09 
-9.35298 -4 1.6011e-09 
-9.01579 -4 7.94832e-10 
-8.69459 -4 7.74094e-10 
-8.38096 -4 6.21925e-10 
-8.06465 -4 3.73228e-10 
-7.76459 -4 1.25625e-10 
-7.4761 -4 -1.08158e-10 
-7.18988 -4 -1.80311e-10 
-6.8959 -4 -3.85829e-10 
-6.59631 -4 -7.02597e-10 
-6.29744 -4 -9.60756e-10 
-5.99688 -4 -1.36991e-09 
-5.69388 -4 -1.74513e-09 
-5.4008 -4 -2.19157e-09 
-5.11024 -4 -2.95306e-09 
-4.8108 -4 -4.17348e-09 
-4.49851 -4 -5.66484e-09 
-4.19015 -4 -7.26598e-09 
-3.89501 -4 -1.00106e-08 
-3.58492 -4 -1.28927e-08 
-3.30515 -4 -1.60284e-08 
-3.00719 -4 -2.01005e-08 
-2.7299 -4 -2.46182e-08 
-2.42657 -4 -2.59732e-08 
-2.18396 -4 -2.42488e-08 
-1.89652 -4 -2.53421e-08 
-1.57924 -4 -2.21157e-08 
-1.28934 -4 -1.92073e-08 
-0.985702 -4 8.9704e-09 
-0.642429 -4 -1.6101e-09 
-0.29791 -4 -9.51912e-08 
0.0310078 -4 9.07345e-08 
0.358521 -4 2.011e-08 
0.657964 -4 -8.70969e-09 
0.956821 -4 -2.58706e-08 
1.24675 -4 2.40121e-08 
1.55316 -4 1.89607e-08 
1.85877 -4 2.5123e-08 
2.14213 -4 2.85151e-08 
2.43842 -4 2.67304e-08 
2.72313 -4 2.34169e-08 
3.01054 -4 1.93639e-08 
3.29717 -4 1.61173e-08 
3.59439 -4 1.29778e-08 
3.90401 -4 9.63037e-09 
4.20031 -4 7.16049e-09 
4.50024 -4 5.54422e-09 
4.80636 -4 4.0868e-09 
5.10155 -4 2.98231e-09 
5.39918 -4 2.25198e-09 
5.69427 -4 1.67891e-09 
5.98481 -4 1.30243e-09 
6.27771 -4 9.34958e-10 
6.56906 -4 7.81029e-10 
6.86366 -4 4.52787e-10 
7.16214 -4 2.90757e-10 
7.46432 -4 4.68243e-11 
7.76377 -4 -2.1992e-10 
8.06634 -4 -3.55478e-10 
8.36252 -4 -6.29652e-10 
8.66109 -4 -7.70432e-10 
8.96478 -4 -8.6445e-10 
9.28417 -4 -1.44986e-09 
9.63375 -4 -1.99105e-09 
9.94042 -4 -1.70527e-09 
10.3181 -4 -2.00524e-09 
10.6462 -4 -2.84704e-09 
11.0104 -4 -5.46965e-09 
11.3423 -4 -6.62357e-09 
11.6273 -4 -9.77548e-09 
12 -4 1.39963e-09 
-12 -3.65903 -6.35945e-09 
-11.6764 -3.6696 2.52091e-16 
-11.3475 -3.6552 1.03678e-15 
-11.0252 -3.66596 3.63039e-16 
-10.6944 -3.66857 3.8306e-16 
-10.3627 -3.67043 2.69424e-16 
-10.0315 -3.66604 2.33709e-16 
-9.70759 -3.66266 1.55815e-16 
-9.38736 -3.67811 1.46041e-16 
-9.05497 -3.68036 1.11813e-16 
-8.72718 -3.66969 7.00108e-17 
-8.40926 -3.66664 4.55353e-17 
-8.09627 -3.67346 1.74556e-17 
-7.78074 -3.66227 -1.51368e-17 
-7.47918 -3.65402 9.16565e-18 
-7.18582 -3.65773 1.53339e-17 
-6.88884 -3.66649 -1.64201e-17 
-6.58574 -3.66967 -2.88408e-17 
-6.28042 -3.6743 -6.44773e-17 
-5.97241 -3.67799 -7.34554e-17 
-5.67448 -3.66767 -1.01702e-16 
-5.37935 -3.66514 -1.44009e-16 
-5.07591 -3.67461 -2.16526e-16 
-4.76211 -3.68733 -3.26077e-16 
-4.44719 -3.68424 -4.59205e-16 
-4.14543 -3.66985 -4.56917e-16 
-3.82913 -3.6884 -3.79693e-16 
-3.53455 -3.65823 -5.56692e-16 
-3.23141 -3.67816 5.15433e-16 
-2.93661 -3.65166 -3.68304e-15 
-2.64987 -3.66911 -6.39455e-16 
-2.39156 -3.57621 9.18591e-17 
-2.11531 -3.64184 1.32151e-16 
-1.82101 -3.65524 -4.28087e-15 
-1.52874 -3.62431 -8.89345e-16 
-1.23577 -3.62637 -1.97032e-14 
-0.919867 -3.65229 1.18009e-14 
-0.610799 -3.61352 -6.74439e-14 
-0.310286 -3.66674 1.99171e-13 
0.00421817 -3.61585 -1.92003e-13 
0.319009 -3.63689 -1.57746e-14 
0.639675 -3.5983 -1.05482e-15 
0.934821 -3.60716 -5.77075e-15 
1.22613 -3.61057 -3.57897e-15 
1.51641 -3.6502 3.53097e-15 
1.82507 -3.65994 5.2963e-15 
2.12719 -3.64045 1.94987e-15 
2.41565 -3.66126 3.53541e-16 
2.71508 -3.64846 -6.11441e-16 
3.00905 -3.6582 3.73016e-15 
3.31251 -3.67187 -9.47561e-16 
3.62514 -3.68244 1.3917e-15 
3.9269 -3.66822 9.06353e-16 
4.23302 -3.67431 6.01687e-16 
4.5434 -3.68041 2.99e-16 
4.84399 -3.66772 2.21919e-16 
5.14562 -3.67137 1.69589e-16 
5.44535 -3.6693 1.23108e-16 
5.74143 -3.66498 9.53449e-17 
6.03782 -3.66692 7.66654e-17 
6.33373 -3.6636 5.58224e-17 
6.63112 -3.66527 4.03851e-17 
6.93084 -3.667 2.60029e-17 
7.23182 -3.66803 1.10558e-17 
7.53279 -3.66245 4.89889e-14 
7.83604 -3.66292 -1.02928e-17 
8.13558 -3.65263 -1.89625e-17 
8.4353 -3.65218 -3.33868e-17 
8.7386 -3.65478 -5.2786e-17 
9.05442 -3.66855 -9.94438e-17 
9.39312 -3.69371 -1.84067e-16 
9.70918 -3.64877 -2.075e-16 
10.0606 -3.71309 -4.34059e-16 
10.4001 -3.66788 -3.97581e-16 
10.7545 -3.699 -5.33729e-16 
11.0921 -3.66694 -4.88547e-16 
11.3891 -3.61208 -2.74968e-16 
11.7234 -3.70381 -3.1808e-16 
12 -3.6039 7.43077e-09 
-12 -3.32351 -4.52292e-09 
-11.673 -3.33428 1.52364e-17 
-11.3471 -3.31554 -2.22134e-16 
-11.0212 -3.32512 2.33639e-16 
-10.6956 -3.33601 1.07212e-16 
-10.3653 -3.33944 5.56598e-17 
-10.0406 -3.33086 7.63744e-17 
-9.71827 -3.32725 6.90011e-17 
-9.39867 -3.34029 4.09851e-17 
-9.08269 -3.35652 1.82422e-17 
-8.75921 -3.34335 1.66531e-17 
-8.44256 -3.33543 1.53061e-17 
-8.13042 -3.33845 9.73434e-18 
-7.82408 -3.3368 8.75338e-18 
-7.51503 -3.31829 -2.9231e-17 
-7.21597 -3.31658 1.20168e-17 
-6.91976 -3.33356 -1.50299e-17 
-6.6211 -3.34029 -2.63823e-17 
-6.31991 -3.34923 -3.11464e-17 
-6.01696 -3.35722 -3.5619e-17 
-5.71366 -3.33879 -2.60923e-17 
-5.41689 -3.3334 -5.05441e-17 
-5.11881 -3.35021 -6.05385e-17 
-4.81171 -3.37017 -5.45627e-17 
-4.50117 -3.37192 -3.14021e-17 
-4.18948 -3.34371 -1.45474e-16 
-3.88138 -3.37415 -4.20622e-16 
-3.57313 -3.3267 -5.36203e-16 
-3.27453 -3.35058 -1.11558e-15 
-2.97641 -3.32306 1.43788e-16 
-2.67153 -3.30452 2.70386e-16 
-2.36229 -3.22696 1.16086e-14 
-2.06922 -3.28171 -9.70235e-15 
-1.77843 -3.29067 -1.38165e-15 
-1.48061 -3.24695 2.52628e-15 
-1.18299 -3.24731 1.94779e-15 
-0.886101 -3.28664 2.487e-14 
-0.56887 -3.23879 9.41201e-14 
-0.254839 -3.29641 -9.7468e-14 
0.0555857 -3.20784 1.44658e-13 
0.344385 -3.25873 -4.42876e-14 
0.624074 -3.17457 -1.57251e-14 
0.907753 -3.20432 -2.0173e-15 
1.19941 -3.21391 3.21321e-15 
1.49084 -3.27072 -3.88567e-15 
1.78472 -3.31565 -3.41079e-15 
2.08698 -3.29508 -1.5891e-16 
2.38716 -3.30563 3.23993e-16 
2.67521 -3.30957 8.86449e-16 
2.98319 -3.32294 -1.1892e-15 
3.28337 -3.34207 1.29194e-15 
3.58661 -3.36344 -2.79318e-16 
3.89628 -3.34007 1.20374e-16 
4.20138 -3.35007 -8.7722e-17 
4.50909 -3.36054 1.07628e-16 
4.81695 -3.34034 9.01648e-17 
5.12053 -3.34416 7.07181e-17 
5.42282 -3.3418 4.75946e-17 
5.72358 -3.33505 2.8849e-17 
6.02302 -3.33684 1.83083e-17 
6.32219 -3.33305 1.29774e-17 
6.62351 -3.3342 8.49273e-18 
6.92534 -3.33586 4.94839e-18 
7.22805 -3.33429 4.68558e-18 
7.53235 -3.32859 1.56432e-18 
7.83405 -3.3222 -5.71783e-18 
8.13599 -3.30872 -8.51432e-18 
8.44017 -3.30852 -1.2465e-17 
8.75692 -3.32261 -1.6558e-17 
9.09311 -3.35694 -1.88323e-17 
9.40767 -3.35263 -2.5618e-17 
9.71694 -3.29768 -3.32579e-17 
10.0204 -3.39808 -5.0402e-17 
10.3139 -3.31966 -5.76298e-17 
10.6412 -3.38051 -7.36152e-17 
10.9739 -3.34987 -7.95007e-17 
11.2886 -3.26509 -4.28929e-17 
11.6331 -3.3455 -1.58244e-17 
12 -3.30481 4.12139e-09 
-12 -2.98995 -4.41626e-09 
-11.6686 -2.99879 1.10559e-16 
-11.3375 -2.97896 -1.58167e-16 
-11.0031 -2.99154 1.84191e-16 
-10.6705 -3.00666 -2.44703e-16 
-10.3407 -3.00598 1.13842e-16 
-10.0127 -2.99799 -1.1597e-17 
-9.6882 -2.99452 6.76388e-18 
-9.36781 -3.00704 4.43126e-18 
-9.04784 -3.02874 1.5714e-17 
-8.73074 -3.01137 -4.77845e-18 
-8.41712 -3.0041 2.40983e-18 
-8.10826 -3.00397 1.67161e-18 
-7.79992 -3.00653 -3.27906e-18 
-7.49705 -2.98299 1.16208e-17 
-7.19449 -2.98692 -8.95356e-18 
-6.89548 -3.00277 -4.70219e-18 
-6.59435 -3.01392 -4.16954e-18 
-6.29391 -3.02496 -6.85599e-18 
-5.9931 -3.03304 -5.23897e-18 
-5.69651 -3.00894 -2.15321e-18 
-5.39771 -3.00658 -2.24549e-17 
-5.0967 -3.02723 -2.23289e-17 
-4.79364 -3.05112 -6.05202e-17 
-4.48613 -3.05216 9.3671e-18 
-4.17859 -3.01778 -1.51987e-16 
-3.87429 -3.05163 5.95642e-17 
-3.56301 -3.00223 -1.33607e-17 
-3.2561 -3.01732 2.56822e-16 
-2.94208 -2.99589 1.63265e-16 
-2.62567 -2.96938 -7.93261e-16 
-2.29744 -2.87961 -7.37232e-15 
-2.00233 -2.9234 -7.35463e-16 
-1.70221 -2.9165 3.20616e-15 
-1.38308 -2.87553 2.56463e-15 
-1.06414 -2.88514 4.80675e-14 
-0.765847 -2.90194 -1.30481e-13 
-0.484399 -2.76891 4.05896e-14 
-0.258752 -2.92622 3.13129e-15 
0.0105418 -2.7775 -3.20045e-14 
0.307593 -2.84427 9.41162e-16 
0.558958 -2.72689 2.36095e-14 
0.836537 -2.78046 -1.64583e-15 
1.12461 -2.81699 1.38368e-14 
1.43402 -2.88292 5.93924e-15 
1.73787 -2.94775 1.97661e-15 
2.03439 -2.9487 3.16961e-16 
2.34381 -2.95902 -3.97909e-16 
2.64253 -2.9525 -5.46099e-16 
2.94313 -3.00085 1.83076e-16 
3.26157 -3.00652 4.69074e-16 
3.56443 -3.03109 -4.14816e-17 
3.86613 -3.01931 2.62598e-16 
4.1798 -3.02193 -2.37812e-14 
4.48472 -3.03639 7.38542e-17 
4.78987 -3.01899 5.7316e-17 
5.09845 -3.01843 2.20025e-17 
5.40179 -3.01589 1.18927e-17 
5.70296 -3.00945 8.08217e-18 
6.00367 -3.01003 7.38643e-18 
6.3033 -3.00561 7.62434e-18 
6.60339 -3.00876 2.26478e-18 
6.90704 -3.0084 8.18692e-19 
7.20939 -3.00429 1.71574e-18 
7.51075 -2.99818 -1.23231e-18 
7.81533 -2.98624 -1.3538e-18 
8.11842 -2.97006 -4.42102e-18 
8.42293 -2.9673 -2.86149e-18 
8.72863 -2.99017 -4.39623e-19 
9.04775 -3.03578 -1.49603e-17 
9.37338 -3.01337 -4.73057e-18 
9.67907 -2.95735 -3.71374e-18 
10.0044 -3.03562 -1.40097e-17 
10.3332 -2.98693 -1.24362e-17 
10.6553 -3.05101 -3.04849e-17 
10.9727 -3.00308 -1.28999e-17 
11.3211 -2.94916 2.17748e-17 
11.6597 -3.03666 4.82038e-18 
12 -2.98309 4.35102e-09 
-12 -2.65861 -2.07429e-09 
-11.6733 -2.66938 -6.07162e-17 
-11.3396 -2.65366 -9.93936e-18 
-10.9985 -2.66759 -1.48127e-16 
-10.6576 -2.67797 1.73755e-16 
-10.3257 -2.6773 -1.75449e-17 
-9.99651 -2.66917 -3.49163e-18 
-9.66867 -2.6669 4.51254e-18 
-9.34498 -2.68053 -9.14703e-19 
-9.02755 -2.69878 -2.3364e-18 
-8.71017 -2.68127 -5.95034e-18 
-8.39609 -2.67466 6.4259e-18 
-8.08482 -2.67591 5.40042e-18 
-7.77893 -2.67522 4.16286e-18 
-7.47028 -2.65649 -1.67349e-18 
-7.16791 -2.65979 -4.46104e-14 
-6.86664 -2.68015 5.90288e-18 
-6.56703 -2.68952 1.65369e-19 
-6.26687 -2.70227 2.26321e-18 
-5.97288 -2.70387 4.08656e-18 
[...]
POINT_DATA 1978 
VECTORS vectors float
-0.00186064 -0.000400815 0.999998 
0.0035608 -0.020468 0.999784 
0.00140166 -0.0184348 0.999829 
0.000396582 -0.0129998 0.999916 
0.00106368 -0.0108485 0.999941 
0.00100033 -0.0101917 0.999948 
0.000928544 -0.00903507 0.999959 
0.000929394 -0.00726059 0.999973 
0.00100149 -0.00530154 0.999986 
0.00113806 -0.00366257 0.999993 
0.00129019 -0.00250266 0.999996 
0.0014861 -0.00168004 0.999998 
0.00172983 -0.00103848 0.999998 
0.00183242 -0.000487376 0.999998 
0.00189946 3.35098e-05 0.999998 
0.00196693 0.000634266 0.999998 
0.00195193 0.00137508 0.999997 
0.00181485 0.00222343 0.999996 
0.00174255 0.00318832 0.999993 
0.00185093 0.00433632 0.999989 
0.0018954 0.00580008 0.999981 
0.00184184 0.00767087 0.999969 
0.00179572 0.0101628 0.999947 
0.00179255 0.0136878 0.999905 
0.00172668 0.0188612 0.999821 
0.00154586 0.0260545 0.999659 
0.00181733 0.0355227 0.999367 
0.00175384 0.0492065 0.998787 
0.00167231 0.0658578 0.997828 
0.00163452 0.0896024 0.995976 
0.00189335 0.119491 0.992834 
0.00144963 0.1633 0.986575 
0.00090866 0.208343 0.978055 
0.00133072 0.278049 0.960566 
0.000566488 0.379855 0.925046 
0.000108815 0.495062 0.868858 
-8.1116e-05 0.642879 0.765968 
-0.000439369 0.816024 0.578018 
-0.000348389 0.95523 0.295864 
3.38706e-05 0.999165 -0.0408675 
0.000387735 0.931809 -0.362948 
0.000414968 0.803551 -0.595235 
0.000219263 0.651872 -0.758329 
-0.00015253 0.510022 -0.860161 
-0.000642933 0.384729 -0.923029 
-0.000941893 0.285626 -0.958341 
-0.00116607 0.215342 -0.976538 
-0.00150879 0.159857 -0.987139 
-0.00161534 0.118933 -0.992901 
-0.00165213 0.0887381 -0.996054 
-0.00165828 0.0657085 -0.997838 
-0.0017876 0.0478857 -0.998851 
-0.0016756 0.0346476 -0.999398 
-0.00163851 0.025447 -0.999675 
-0.00184032 0.0186612 -0.999824 
-0.00178195 0.013613 -0.999906 
-0.00177472 0.0100908 -0.999948 
-0.0019239 0.00753719 -0.99997 
-0.00189078 0.0056864 -0.999982 
-0.00192497 0.00431123 -0.999989 
-0.0019533 0.00321659 -0.999993 
-0.00188776 0.0023061 -0.999996 
-0.00186693 0.00149254 -0.999997 
-0.00184422 0.000740089 -0.999998 
-0.00176915 4.96234e-05 -0.999999 
-0.00180103 -0.000546475 -0.999998 
-0.00181362 -0.00109727 -0.999998 
-0.00179781 -0.00167456 -0.999997 
-0.00166132 -0.00240914 -0.999996 
-0.00126121 -0.00343651 -0.999993 
-0.00110822 -0.00489948 -0.999988 
-0.000494311 -0.00688741 -0.999976 
-0.000211091 -0.00857944 -0.999964 
4.07101e-05 -0.0100844 -0.99995 
-9.15917e-06 -0.0108563 -0.999941 
-0.00019135 -0.0130309 -0.999915 
-0.000718569 -0.0185499 -0.999828 
-0.0042262 -0.0204998 -0.999781 
0.00146005 -0.000794485 -0.999998 
-0.00194685 -0.00144879 0.999997 
0.00790045 -0.016733 0.999829 
0.0111079 -0.0177252 0.999781 
0.0120353 -0.0139819 0.99983 
0.0123425 -0.0111071 0.999862 
0.0125001 -0.00966707 0.999875 
0.0126075 -0.00842752 0.999885 
0.0128179 -0.0069835 0.999893 
0.0126859 -0.00541742 0.999905 
0.0127661 -0.00390132 0.999911 
0.0131046 -0.00270073 0.999911 
0.0132962 -0.00180837 0.99991 
0.0132847 -0.0011187 0.999911 
0.0135524 -0.000508544 0.999908 
0.0137225 5.7869e-05 0.999906 
0.0137617 0.000674034 0.999905 
0.0135692 0.00140683 0.999907 
0.0136353 0.00223793 0.999905 
0.013559 0.00321382 0.999903 
0.0135142 0.00441608 0.999899 
0.0136642 0.0059143 0.999889 
0.0135911 0.00788575 0.999877 
0.013267 0.0106302 0.999856 
0.0129174 0.0145738 0.99981 
0.0128378 0.0201106 0.999715 
0.0127684 0.0275682 0.999538 
0.0121449 0.0383182 0.999192 
0.0122291 0.0522383 0.99856 
0.0113998 0.0716873 0.997362 
0.0110463 0.0972462 0.995199 
0.00980853 0.131173 0.991311 
0.00963865 0.171209 0.985188 
0.00765767 0.227518 0.973744 
0.00585502 0.304617 0.952457 
0.00446589 0.400677 0.916209 
0.00268481 0.518465 0.855095 
0.00144036 0.667508 0.744601 
0.000352091 0.818682 0.574247 
0.000244167 0.945174 0.326567 
-5.05857e-05 0.999907 -0.0136586 
-7.04323e-05 0.945575 -0.325405 
-0.000842457 0.811616 -0.584191 
-0.00164968 0.66347 -0.748201 
-0.0029188 0.522659 -0.852537 
-0.00435308 0.400939 -0.916094 
-0.00606747 0.29827 -0.954462 
-0.00787125 0.221489 -0.975131 
-0.00900579 0.164838 -0.98628 
-0.0102398 0.12097 -0.992603 
-0.0108664 0.0889266 -0.995979 
-0.0115263 0.0650954 -0.997812 
-0.0119156 0.046912 -0.998828 
-0.012533 0.0342038 -0.999336 
-0.0127426 0.0248579 -0.99961 
-0.0129162 0.0180213 -0.999754 
-0.0133342 0.0132487 -0.999823 
-0.0134027 0.00976958 -0.999863 
-0.0135505 0.00726317 -0.999882 
-0.0136943 0.00544337 -0.999891 
-0.0136822 0.00406491 -0.999898 
-0.0137528 0.00298017 -0.999901 
-0.0137204 0.00207799 -0.999904 
-0.0136932 0.00128946 -0.999905 
-0.0137159 0.000583189 -0.999906 
-0.0137219 -5.27979e-05 -0.999906 
-0.0136351 -0.000638881 -0.999907 
-0.0137217 -0.00121549 -0.999905 
-0.0136016 -0.00187884 -0.999906 
-0.0134296 -0.00273454 -0.999906 
-0.0130384 -0.00389684 -0.999907 
-0.0123751 -0.005444 -0.999909 
-0.0129332 -0.00693271 -0.999892 
-0.0117454 -0.00861503 -0.999894 
-0.0123089 -0.00969635 -0.999877 
-0.0116454 -0.0114714 -0.999866 
-0.0119122 -0.0148612 -0.999819 
-0.0116002 -0.0181184 -0.999769 
-0.00711274 -0.0153753 -0.999857 
0.00229317 -0.00206427 -0.999995 
-0.00106277 -0.00262643 0.999996 
0.00824517 -0.0164711 0.99983 
0.0116595 -0.0183935 0.999763 
0.0128718 -0.0145597 0.999811 
0.013358 -0.011069 0.99985 
0.0136199 -0.00908979 0.999866 
0.0138389 -0.00792805 0.999873 
0.0139742 -0.00676615 0.99988 
0.0142347 -0.00542452 0.999884 
0.0144761 -0.00406625 0.999887 
0.0144862 -0.00286644 0.999891 
0.0145064 -0.00193505 0.999893 
0.0145805 -0.0012055 0.999893 
0.0146091 -0.0005897 0.999893 
0.0144946 1.36043e-05 0.999895 
0.0144665 0.000626394 0.999895 
0.01468 0.00131565 0.999891 
0.0147268 0.00210059 0.999889 
0.0147951 0.00303264 0.999886 
0.0148059 0.00419332 0.999882 
0.0145974 0.00569747 0.999877 
0.014451 0.00765589 0.999866 
0.0144161 0.0102759 0.999843 
0.0145228 0.0140788 0.999795 
0.0142361 0.0192553 0.999713 
0.0137036 0.0265435 0.999554 
0.0135826 0.0367662 0.999232 
0.0127908 0.0504559 0.998644 
0.012432 0.0695437 0.997501 
0.0115849 0.0950373 0.995406 
0.0105409 0.130098 0.991445 
0.0091825 0.179212 0.983768 
0.00831521 0.237109 0.971448 
0.00706189 0.315307 0.948964 
0.00562314 0.422893 0.906162 
0.00427142 0.550014 0.835144 
0.00248277 0.68711 0.726549 
0.00165632 0.845919 0.533309 
0.000225134 0.966363 0.25718 
-0.000229846 0.99771 -0.0676335 
-0.00133385 0.932497 -0.361175 
-0.0028575 0.812984 -0.582279 
-0.00387044 0.67244 -0.740141 
-0.00484595 0.533721 -0.845647 
-0.00577473 0.413202 -0.910621 
-0.00710374 0.312874 -0.949768 
-0.00843965 0.233388 -0.972347 
-0.00960855 0.172857 -0.9849 
-0.0105493 0.128244 -0.991687 
-0.0115014 0.0929746 -0.995602 
-0.0123025 0.0679865 -0.99761 
-0.013011 0.0494123 -0.998694 
-0.0133245 0.0357828 -0.999271 
-0.0137461 0.0260201 -0.999567 
-0.0141264 0.0189415 -0.999721 
-0.0142392 0.0138462 -0.999803 
-0.0144083 0.0101839 -0.999844 
-0.0145057 0.00752605 -0.999867 
-0.014532 0.00557949 -0.999879 
-0.0145876 0.00412545 -0.999885 
-0.0146007 0.00299688 -0.999889 
-0.0146327 0.00207409 -0.999891 
-0.0146648 0.00129207 -0.999892 
-0.0146268 0.000603278 -0.999893 
-0.0146023 -1.8691e-05 -0.999893 
-0.0144848 -0.000603901 -0.999895 
-0.0143294 -0.00121198 -0.999897 
-0.0142476 -0.0019281 -0.999897 
-0.0142903 -0.00287051 -0.999894 
-0.0144784 -0.00413465 -0.999887 
-0.014317 -0.0055099 -0.999882 
-0.013765 -0.0067505 -0.999883 
-0.0142587 -0.0079226 -0.999867 
-0.013682 -0.00883231 -0.999867 
-0.0138793 -0.0107303 -0.999846 
-0.0131563 -0.014 -0.999815 
-0.0115443 -0.0179104 -0.999773 
-0.00904394 -0.0171085 -0.999813 
0.00112902 -0.00204365 -0.999997 
-0.000728878 -0.00133818 0.999999 
0.00601947 -0.0168161 0.999841 
0.0083736 -0.0188445 0.999787 
0.0093179 -0.0146137 0.99985 
0.00980978 -0.0107176 0.999895 
0.0100727 -0.00853543 0.999913 
0.0101809 -0.00746428 0.99992 
0.010361 -0.00653096 0.999925 
0.0106914 -0.00531971 0.999929 
0.0110877 -0.00399832 0.999931 
0.0109402 -0.00282973 0.999936 
0.0109583 -0.00188702 0.999938 
0.0110288 -0.00114676 0.999939 
0.0111024 -0.000519286 0.999938 
0.0108282 7.34457e-05 0.999941 
0.0108925 0.000693804 0.99994 
0.0110766 0.0013676 0.999938 
0.0111826 0.00215253 0.999935 
0.0113064 0.00310227 0.999931 
0.011352 0.00429691 0.999926 
0.0109959 0.00583021 0.999923 
0.0108641 0.00788287 0.99991 
0.010968 0.0106425 0.999883 
0.0111175 0.0144046 0.999834 
0.0108723 0.0196796 0.999747 
0.0102703 0.0270176 0.999582 
0.0103126 0.037122 0.999258 
0.00953049 0.0514432 0.99863 
0.00931786 0.0705731 0.997463 
0.00873259 0.0977724 0.995171 
0.00825974 0.134837 0.990833 
0.00753886 0.185625 0.982592 
0.00735857 0.2534 0.967334 
0.00700538 0.342878 0.939354 
0.00686779 0.460908 0.887421 
0.00590837 0.608261 0.793715 
0.00385086 0.754907 0.655821 
0.00245839 0.890631 0.454719 
0.000924938 0.967524 0.252777 
-0.00132825 0.9998 -0.0199621 
-0.00317837 0.949945 -0.3124 
-0.00542847 0.847453 -0.530842 
-0.00639269 0.703413 -0.710753 
-0.00711977 0.560681 -0.828001 
-0.00706907 0.430034 -0.902785 
-0.0071268 0.325581 -0.945487 
-0.00744689 0.243509 -0.96987 
-0.00781241 0.179287 -0.983766 
-0.00807333 0.132224 -0.991187 
-0.00873898 0.0967068 -0.995275 
-0.00918412 0.0695088 -0.997539 
-0.00977537 0.0509008 -0.998656 
-0.00991459 0.0370269 -0.999265 
-0.0102447 0.0268142 -0.999588 
-0.0107389 0.0196769 -0.999749 
-0.0107283 0.0143663 -0.999839 
-0.0108803 0.0105129 -0.999886 
-0.0109637 0.00774011 -0.99991 
-0.0109681 0.00571108 -0.999924 
-0.0110293 0.00419617 -0.99993 
-0.0110259 0.00303565 -0.999935 
-0.0110968 0.00210528 -0.999936 
-0.0111235 0.00132161 -0.999937 
-0.0110989 0.000648345 -0.999938 
-0.0110141 4.29075e-05 -0.999939 
-0.0108474 -0.000546623 -0.999941 
-0.010609 -0.00116797 -0.999943 
-0.0105159 -0.00190511 -0.999943 
-0.0106877 -0.0028276 -0.999939 
-0.0112119 -0.0040325 -0.999929 
-0.0107241 -0.00535575 -0.999928 
-0.00994537 -0.00651659 -0.999929 
-0.0106365 -0.00748363 -0.999915 
-0.0098668 -0.00849734 -0.999915 
-0.0103993 -0.010652 -0.999889 
-0.00949143 -0.0142562 -0.999853 
-0.00815671 -0.0187544 -0.999791 
-0.0064787 -0.0170541 -0.999834 
0.000801459 -0.00171775 -0.999998 
-0.000446825 -0.00190825 0.999998 
0.00406237 -0.0170375 0.999847 
0.00568869 -0.0192638 0.999798 
0.00623361 -0.014514 0.999875 
0.00652669 -0.0102572 0.999926 
0.00677397 -0.008109 0.999944 
0.00697619 -0.00722743 0.99995 
0.00721833 -0.00646327 0.999953 
0.00751079 -0.00531095 0.999958 
0.00780624 -0.00400262 0.999962 
0.00777634 -0.00280523 0.999966 
0.00786889 -0.00183801 0.999967 
0.00795702 -0.00108502 0.999968 
0.00803631 -0.00045767 0.999968 
0.00793637 0.000141557 0.999969 
0.00798168 0.000754283 0.999968 
0.00814597 0.00142788 0.999966 
0.00821966 0.0022176 0.999964 
0.00830249 0.0031882 0.999961 
0.00826739 0.00439486 0.999956 
0.00804943 0.00600346 0.99995 
0.00793683 0.00813741 0.999935 
0.00794402 0.01098 0.999908 
0.00795574 0.014694 0.99986 
0.00775221 0.0200609 0.999769 
0.00738549 0.0278847 0.999584 
0.00730513 0.0381727 0.999245 
0.00683748 0.0525555 0.998595 
0.00681673 0.0725586 0.997341 
0.00670279 0.101994 0.994763 
0.00685219 0.14124 0.989952 
0.00730377 0.18727 0.982281 
0.00775984 0.248998 0.968473 
0.00851666 0.343855 0.938984 
0.00978648 0.468266 0.883533 
0.00974411 0.616132 0.787583 
0.00776469 0.774619 0.632381 
0.00781927 0.899047 0.437783 
0.0011621 0.980691 0.195559 
-0.00131786 0.999913 0.013147 
-0.0047448 0.980189 -0.198005 
-0.00974001 0.894886 -0.446188 
-0.011064 0.752226 -0.658812 
-0.0106649 0.603706 -0.797136 
-0.00949639 0.45762 -0.889097 
-0.00833744 0.339249 -0.94066 
-0.00759467 0.252687 -0.967518 
-0.00702876 0.18645 -0.982439 
-0.00659105 0.135523 -0.990752 
-0.00662316 0.0990244 -0.995063 
-0.0067514 0.071674 -0.997405 
-0.00688606 0.0511178 -0.998669 
-0.00710638 0.0371511 -0.999284 
-0.00737499 0.0269018 -0.999611 
-0.00766411 0.0194829 -0.999781 
-0.00775117 0.0141567 -0.99987 
-0.00791578 0.0104015 -0.999915 
-0.00801335 0.00763936 -0.999939 
-0.00806379 0.00559984 -0.999952 
-0.0081237 0.00408921 -0.999959 
-0.00814038 0.00292812 -0.999963 
-0.00820463 0.00199665 -0.999964 
-0.00817068 0.00123552 -0.999966 
-0.00809834 0.000591246 -0.999967 
-0.00801897 -4.34528e-06 -0.999968 
-0.00785212 -0.000592095 -0.999969 
-0.00766347 -0.00124158 -0.99997 
-0.00755706 -0.00203146 -0.999969 
-0.00761028 -0.0030209 -0.999967 
-0.00790274 -0.00417376 -0.99996 
-0.00740598 -0.0054238 -0.999958 
-0.006914 -0.00655604 -0.999955 
-0.00726908 -0.00730161 -0.999947 
-0.00658453 -0.0081177 -0.999945 
-0.0067942 -0.0102995 -0.999924 
-0.00634505 -0.0145009 -0.999875 
-0.0055177 -0.0190975 -0.999802 
-0.00439146 -0.0173357 -0.99984 
0.000495652 -0.00187841 -0.999998 
-0.000339613 -0.00200071 0.999998 
0.00273002 -0.015963 0.999869 
0.00408013 -0.0196556 0.999799 
0.0045215 -0.0156167 0.999868 
0.00475632 -0.0108893 0.999929 
0.0050181 -0.00828428 0.999953 
0.00532808 -0.0073595 0.999959 
0.00563133 -0.0067859 0.999961 
0.00589246 -0.00578562 0.999966 
0.00611412 -0.00446938 0.999971 
0.00624737 -0.00322162 0.999975 
0.00637511 -0.00214053 0.999977 
0.00649339 -0.00130788 0.999978 
0.00660079 -0.000638645 0.999978 
0.00666538 -5.00081e-05 0.999978 
0.00671971 0.000556524 0.999977 
0.00679964 0.00120397 0.999976 
0.00686881 0.00193453 0.999975 
0.00691701 0.00283755 0.999972 
0.00688703 0.00396321 0.999968 
0.00681497 0.00540533 0.999962 
0.00670538 0.00738907 0.99995 
0.00660443 0.0100108 0.999928 
0.00650711 0.0135151 0.999888 
0.00634961 0.0182002 0.999814 
0.00617146 0.0248624 0.999672 
0.00598379 0.034984 0.99937 
0.00581315 0.047183 0.998869 
0.00584495 0.0659589 0.997805 
0.0060472 0.0912166 0.995813 
0.00658526 0.126639 0.991927 
0.0078652 0.175028 0.984532 
0.00942996 0.248435 0.968603 
0.0108137 0.329176 0.944207 
0.0133956 0.432669 0.901453 
0.0155768 0.569146 0.822089 
0.0163149 0.718241 0.695604 
0.0198029 0.82921 0.558587 
0.0101115 0.954131 0.299219 
-0.00190866 0.99987 0.016036 
-0.013162 0.959187 -0.282466 
-0.0220375 0.858357 -0.51258 
-0.0215673 0.736316 -0.676294 
-0.0191782 0.586091 -0.810019 
-0.0141097 0.469153 -0.883005 
-0.0109112 0.346898 -0.937839 
-0.00906181 0.249879 -0.968235 
-0.00753875 0.183958 -0.982905 
-0.00664527 0.13482 -0.990848 
-0.00605541 0.099607 -0.995008 
-0.005812 0.0720225 -0.997386 
-0.0057818 0.0518708 -0.998637 
-0.00585665 0.0370971 -0.999295 
-0.00603428 0.0269493 -0.999619 
-0.00624053 0.0195841 -0.999789 
-0.00641371 0.0145159 -0.999874 
-0.00657493 0.0106713 -0.999921 
-0.0066933 0.00781069 -0.999947 
-0.0067761 0.00571499 -0.999961 
-0.00683953 0.00416094 -0.999968 
-0.00687097 0.00298375 -0.999972 
-0.00690232 0.00204627 -0.999974 
-0.00685678 0.00127392 -0.999976 
-0.00676871 0.000625405 -0.999977 
-0.00669931 4.83183e-05 -0.999978 
-0.00657156 -0.000533244 -0.999978 
-0.00642781 -0.00117858 -0.999979 
-0.00629575 -0.00197401 -0.999978 
-0.00618328 -0.00298157 -0.999976 
-0.006192 -0.00420028 -0.999972 
-0.00591472 -0.00554035 -0.999967 
-0.00557536 -0.00663804 -0.999962 
-0.0055131 -0.00726746 -0.999958 
-0.00504962 -0.00802827 -0.999955 
-0.0049067 -0.0102707 -0.999935 
-0.00458706 -0.0146713 -0.999882 
-0.00412534 -0.0192234 -0.999807 
-0.00317672 -0.0171921 -0.999847 
0.00029091 -0.00183638 -0.999998 
-0.000262424 -0.00143582 0.999999 
0.0025899 -0.0173066 0.999847 
0.00360711 -0.0188327 0.999816 
0.00394236 -0.0139242 0.999895 
0.00424166 -0.00976319 0.999943 
0.00460516 -0.00784159 0.999959 
0.00497094 -0.00727142 0.999961 
0.00526483 -0.00664808 0.999964 
0.00549182 -0.00548227 0.99997 
0.00564 -0.00412704 0.999976 
0.00579021 -0.00286081 0.999979 
0.00589969 -0.00184222 0.999981 
0.00600663 -0.00106166 0.999981 
0.00608842 -0.000429511 0.999981 
0.00618386 0.000160392 0.999981 
0.00624007 0.000770607 0.99998 
0.00628814 0.00142362 0.999979 
0.00635221 0.00220478 0.999977 
0.00635946 0.00315659 0.999975 
0.00632268 0.00437376 0.99997 
0.00628015 0.00600311 0.999962 
0.00618482 0.00821903 0.999947 
0.00609028 0.0111767 0.999919 
0.00596612 0.0150791 0.999869 
0.00583319 0.0205174 0.999773 
0.00573983 0.0286213 0.999574 
0.00556531 0.038642 0.999238 
0.00564921 0.0540142 0.998524 
0.00591292 0.0752189 0.99715 
0.00648444 0.103484 0.99461 
0.00754507 0.140493 0.990053 
0.00997282 0.211121 0.977409 
0.0134487 0.294466 0.955567 
0.0171711 0.389459 0.920884 
0.0218696 0.515786 0.856438 
0.0273198 0.669512 0.742299 
0.0330041 0.830184 0.556512 
0.0425624 0.919856 0.389941 
0.0185026 0.948788 0.315371 
0.00799162 0.995523 0.0941777 
-0.0198829 0.974239 -0.224641 
-0.0368619 0.862668 -0.504425 
-0.0370577 0.709322 -0.70391 
-0.029024 0.559577 -0.82827 
-0.0196446 0.422026 -0.906371 
-0.0140519 0.327423 -0.944773 
-0.0112984 0.246024 -0.969198 
-0.00868226 0.180121 -0.983606 
-0.00708443 0.127975 -0.991752 
-0.00610656 0.091309 -0.995804 
-0.00571286 0.0661057 -0.997796 
-0.00557181 0.0473136 -0.998865 
-0.00557444 0.034006 -0.999406 
-0.00568512 0.0247749 -0.999677 
-0.00582666 0.0183216 -0.999815 
-0.00596597 0.0134905 -0.999891 
-0.00611147 0.00995068 -0.999932 
-0.00621117 0.00731599 -0.999954 
-0.00628192 0.00536247 -0.999966 
-0.0063307 0.00390328 -0.999972 
-0.00636431 0.00276949 -0.999976 
-0.00637309 0.00188431 -0.999978 
-0.0063136 0.00116086 -0.999979 
-0.00622203 0.000546882 -0.999981 
-0.00615743 -1.86116e-05 -0.999981 
-0.00605042 -0.00060119 -0.999982 
-0.00593408 -0.00126568 -0.999982 
-0.00582193 -0.00209494 -0.999981 
-0.00573863 -0.00317377 -0.999979 
-0.00564073 -0.00443338 -0.999974 
-0.00541956 -0.0057503 -0.999969 
-0.00516673 -0.00688151 -0.999963 
-0.00495655 -0.00740907 -0.99996 
-0.00453714 -0.00810816 -0.999957 
-0.00423923 -0.0102681 -0.999938 
-0.00390495 -0.0146582 -0.999885 
-0.0035128 -0.0191123 -0.999811 
-0.00264829 -0.0172431 -0.999848 
0.000244544 -0.00190974 -0.999998 
-0.000244365 -0.00176911 0.999999 
0.00216381 -0.0172357 0.999849 
0.00309317 -0.0188224 0.999818 
0.00351234 -0.0141938 0.999893 
0.00387198 -0.0100273 0.999942 
0.00421556 -0.00801456 0.999959 
0.00456883 -0.00746544 0.999962 
0.0048332 -0.00687585 0.999965 
0.00503724 -0.00573378 0.999971 
0.00509948 -0.00427921 0.999978 
0.00525355 -0.00300387 0.999982 
0.00530913 -0.00195657 0.999984 
0.00536795 -0.0011489 0.999985 
0.0053979 -0.00050237 0.999985 
0.0054943 7.14101e-05 0.999985 
0.00553366 0.000646423 0.999985 
0.00550466 0.00128896 0.999984 
0.00560399 0.00203801 0.999982 
0.0055897 0.00294474 0.99998 
0.00554837 0.00409414 0.999976 
0.00556544 0.00563996 0.999969 
0.00551802 0.00765999 0.999955 
0.00545643 0.0104666 0.99993 
0.00537842 0.0141975 0.999885 
0.00531011 0.0192127 0.999801 
0.00535088 0.0263864 0.999638 
0.00519389 0.0357506 0.999347 
0.00535539 0.0498786 0.998741 
0.00572081 0.069528 0.997564 
0.00635793 0.095885 0.995372 
0.00805727 0.142029 0.98983 
0.0108841 0.200353 0.979663 
0.0154125 0.276545 0.960878 
0.0218659 0.378234 0.925452 
0.0307049 0.519508 0.853914 
0.0435613 0.690548 0.721974 
0.0624536 0.785973 0.615098 
0.117127 0.849187 0.51494 
0.0873115 0.936176 0.340515 
0.0393323 0.98771 0.151269 
-0.00964161 0.999146 -0.0401896 
-0.0702109 0.963265 -0.259211 
-0.0357865 0.956931 -0.288101 
-0.0636084 0.807585 -0.586311 
-0.0451391 0.614137 -0.787908 
-0.0273743 0.439066 -0.898038 
-0.0177029 0.318329 -0.947815 
-0.0123083 0.226579 -0.973915 
-0.0087853 0.160497 -0.986997 
-0.00671506 0.109177 -0.994 
-0.00582766 0.0781337 -0.996926 
-0.00542231 0.0552648 -0.998457 
-0.00523744 0.0393385 -0.999212 
-0.00517871 0.0278523 -0.999599 
-0.00522202 0.0202946 -0.99978 
-0.00532221 0.0149209 -0.999875 
-0.00541791 0.0108575 -0.999926 
-0.00549582 0.00795809 -0.999953 
-0.00553136 0.00578368 -0.999968 
-0.00556025 0.00417765 -0.999976 
-0.00562783 0.00297537 -0.99998 
-0.00564879 0.0020342 -0.999982 
-0.00559164 0.0012919 -0.999984 
-0.00548882 0.000663998 -0.999985 
-0.00544588 9.34708e-05 -0.999985 
-0.00538233 -0.000470242 -0.999985 
-0.00528683 -0.00111472 -0.999985 
-0.0051935 -0.00192223 -0.999985 
-0.00513423 -0.00298616 -0.999982 
-0.00508997 -0.00430411 -0.999978 