# vtk DataFile Version 3.0 
Exported using Morpho https://github.com/Morpho-lang/morpho 
ASCII 
DATASET UNSTRUCTURED_GRID 

POINTS 1978 float 
-11.9999 -3.99994 -2.90202e-08 
-11.6399 -3.99999 -1.97043e-07 
-11.349 -3.99992 -1.14367e-07 
-10.9929 -3.99999 -1.59529e-07 
-10.6658 -3.99996 -7.52399e-08 
-10.3302 -3.99996 5.7089e-09 
-9.99648 -3.99996 2.86442e-08 
-9.677 -3.99995 -2.88469e-08 
-9.34071 -3.99996 -3.52009e-08 
-9.00574 -3.99997 -6.05277e-08 
-8.69212 -3.99996 -2.00164e-08 
-8.37338 -3.99996 -9.65359e-09 
-8.07228 -3.99996 -4.58261e-09 
-7.76435 -3.99995 1.17651e-09 
-7.48566 -3.99999 1.6944e-09 
-7.20883 -3.99995 9.37983e-09 
-6.91358 -3.99996 7.91024e-09 
-6.61148 -3.99997 7.9804e-09 
-6.31161 -3.99996 1.52327e-08 
-6.01206 -3.99996 2.22342e-08 
-5.71377 -3.99997 3.76283e-08 
-5.42142 -3.99996 5.86715e-08 
-5.13315 -3.99998 7.81905e-08 
-4.85153 -3.99997 1.02933e-07 
-4.54646 -3.99997 1.49068e-07 
-4.24054 -3.99997 2.0534e-07 
-3.95086 -3.99998 2.37852e-07 
-3.64653 -3.99998 3.24417e-07 
-3.32607 -3.99999 4.35668e-07 
-3.04567 -4.00002 4.39034e-07 
-2.77979 -3.99999 3.64157e-07 
-2.51855 -4 4.86392e-07 
-2.24795 -4.00003 6.82638e-07 
-1.9648 -4 4.36964e-07 
-1.70501 -4.00002 -8.86557e-07 
-1.42095 -4.00001 5.03431e-06 
-1.13126 -3.99972 -9.03124e-06 
-0.764327 -3.99964 4.88094e-07 
-0.480103 -3.99939 -1.87751e-05 
-0.171348 -3.99905 4.08747e-06 
0.274786 -3.99884 -1.10238e-05 
0.793268 -3.99941 1.75773e-05 
1.05054 -3.99977 -4.93575e-07 
1.35878 -3.99995 1.65531e-06 
1.62688 -3.99996 2.77789e-07 
1.91369 -4.00004 -1.31304e-07 
2.19479 -3.99994 -4.44165e-07 
2.48509 -4.00008 -3.41775e-07 
2.77244 -3.99998 -4.62935e-07 
3.05606 -3.99999 -5.93282e-07 
3.3578 -3.99999 -3.62344e-07 
3.63635 -4.00001 -2.54368e-07 
3.9156 -3.99998 -2.86148e-07 
4.22232 -3.99997 -2.17872e-07 
4.51489 -3.99998 -1.4455e-07 
4.82084 -3.99997 -1.22961e-07 
5.11434 -3.99996 -8.84645e-08 
5.40897 -3.99996 -5.75419e-08 
5.70693 -3.99996 -3.8122e-08 
5.98694 -3.99997 -2.02255e-08 
6.28838 -3.99996 -2.76704e-08 
6.57403 -3.99996 6.10916e-09 
6.87257 -3.99996 -2.17279e-08 
7.16603 -3.99997 -5.65737e-10 
7.46485 -3.99995 5.2566e-11 
7.75526 -3.99997 -7.73762e-09 
8.06294 -3.99995 1.88206e-08 
8.35985 -3.99996 -9.06191e-09 
8.66429 -3.99996 2.36784e-08 
8.96521 -3.99996 4.66261e-08 
9.2799 -3.99996 4.12461e-08 
9.63356 -3.99996 2.77656e-08 
9.93231 -3.99996 -2.57626e-09 
10.3077 -3.99996 -3.3168e-08 
10.6311 -3.99995 6.65946e-08 
11.0032 -3.99996 1.84329e-07 
11.3322 -3.99995 9.12425e-08 
11.6176 -3.99999 1.96253e-07 
11.9999 -3.99994 3.02309e-08 
-12 -3.6265 2.07661e-07 
-11.7032 -3.68591 3.43598e-08 
-11.3721 -3.61205 -1.11604e-07 
-11.0704 -3.68491 1.33329e-08 
-10.7291 -3.6613 -3.27081e-08 
-10.4007 -3.6721 8.80492e-09 
-10.0641 -3.67229 1.77209e-08 
-9.73084 -3.66064 2.31509e-08 
-9.40412 -3.68119 8.36985e-09 
-9.06421 -3.6834 2.49436e-09 
-8.73093 -3.6648 5.80145e-10 
-8.41197 -3.6737 -6.07707e-09 
-8.09015 -3.6563 -3.27316e-09 
-7.78348 -3.66724 -1.12459e-08 
-7.47292 -3.63738 -1.05034e-08 
-7.17161 -3.66186 1.80288e-08 
-6.8628 -3.67299 1.49776e-09 
-6.55492 -3.67369 -6.42817e-09 
-6.24678 -3.67585 8.07648e-09 
-5.9391 -3.67592 3.82314e-09 
-5.63683 -3.67065 7.74431e-09 
-5.33785 -3.66693 1.19985e-08 
-5.04674 -3.65926 1.35342e-08 
-4.74051 -3.68575 2.81634e-08 
-4.42397 -3.68642 2.75714e-08 
-4.11818 -3.66817 3.89013e-08 
-3.80963 -3.68605 6.92574e-08 
-3.48351 -3.70266 1.03673e-07 
-3.16927 -3.65804 1.25763e-07 
-2.8876 -3.63684 1.82802e-07 
-2.60875 -3.62458 3.31082e-07 
-2.33068 -3.63591 5.72827e-07 
-2.0465 -3.64759 6.11598e-07 
-1.75487 -3.60882 4.85171e-07 
-1.4853 -3.63753 -4.67619e-06 
-1.22831 -3.5738 7.34748e-06 
-0.943206 -3.69561 2.73312e-06 
-0.636811 -3.59107 -4.17001e-06 
-0.338218 -3.60838 2.11543e-05 
0.0104985 -3.72157 -3.55768e-05 
0.358342 -3.62317 -1.27904e-05 
0.644505 -3.76201 4.2441e-05 
0.988865 -3.54628 6.77782e-06 
1.26067 -3.64311 -2.24686e-06 
1.54997 -3.60265 -2.30482e-07 
1.83056 -3.64278 -1.16089e-06 
2.11748 -3.63878 -9.08314e-07 
2.41586 -3.66592 -4.11737e-07 
2.7241 -3.67766 -2.08644e-07 
3.03257 -3.65858 -1.7938e-07 
3.32807 -3.6785 -1.13759e-07 
3.6323 -3.65352 -6.47864e-08 
3.94023 -3.68284 -6.99229e-08 
4.23865 -3.66655 -2.62324e-08 
4.54785 -3.68183 -3.39463e-08 
4.84796 -3.66799 -1.80558e-08 
5.1491 -3.66952 -1.24412e-08 
5.45392 -3.67449 -1.19742e-08 
5.74355 -3.65437 -4.97887e-09 
6.04614 -3.6792 -1.12395e-08 
6.34034 -3.65936 4.6826e-09 
6.64029 -3.67192 -8.82263e-09 
6.93912 -3.66313 7.83439e-09 
7.23707 -3.66568 -3.97628e-09 
7.53257 -3.6516 9.0891e-10 
7.83555 -3.6674 3.52121e-09 
8.13752 -3.65142 3.21987e-10 
8.43921 -3.65672 1.43427e-08 
8.74147 -3.65059 -5.54983e-10 
9.05283 -3.66384 -1.25823e-09 
9.39426 -3.69879 -3.95403e-09 
9.70575 -3.64105 -2.6541e-08 
10.052 -3.71267 -1.42421e-08 
10.3867 -3.66329 1.05761e-10 
10.7439 -3.70485 2.59163e-08 
11.0817 -3.66396 8.25128e-09 
11.3782 -3.61154 7.71442e-08 
11.7177 -3.70955 -6.73667e-09 
12 -3.6094 -1.98486e-07 
-12 -3.31507 9.0573e-08 
-11.6472 -3.33109 4.75136e-08 
-11.3056 -3.27381 -2.35023e-08 
-10.9922 -3.34678 5.47512e-09 
-10.668 -3.32423 8.98657e-11 
-10.3434 -3.34262 -3.1626e-08 
-10.0207 -3.33847 1.60418e-08 
-9.69646 -3.32844 1.4247e-08 
-9.37021 -3.3606 1.53492e-08 
-9.05208 -3.3569 -5.5909e-09 
-8.75749 -3.31072 -3.18196e-09 
-8.45804 -3.33816 5.50421e-10 
-8.15107 -3.33084 -1.11246e-09 
-7.83432 -3.32601 -7.97694e-09 
-7.53523 -3.31254 6.88878e-09 
-7.22498 -3.32191 -5.17077e-09 
-6.92571 -3.34362 8.10456e-10 
-6.62392 -3.34773 7.89179e-10 
-6.32081 -3.35358 -1.15092e-09 
-6.01589 -3.35575 3.99373e-09 
-5.71166 -3.34577 6.90978e-09 
-5.41312 -3.33989 8.55753e-09 
-5.11824 -3.32314 1.40542e-08 
-4.8203 -3.35855 1.2934e-08 
-4.51681 -3.3752 2.74627e-08 
-4.20959 -3.35121 3.71283e-08 
-3.89476 -3.36189 3.23288e-08 
-3.58301 -3.39554 5.75965e-08 
-3.2742 -3.35802 1.21756e-07 
-2.9679 -3.28332 6.48121e-08 
-2.65557 -3.2953 2.79058e-07 
-2.35342 -3.27186 9.59006e-08 
-2.05742 -3.29729 4.719e-07 
-1.77075 -3.24664 1.75406e-06 
-1.48071 -3.24306 3.03889e-07 
-1.191 -3.17407 2.10711e-06 
-0.917558 -3.31961 1.11074e-06 
-0.604105 -3.20838 4.24251e-05 
-0.28439 -3.2515 -4.30631e-05 
0.0396684 -3.3749 1.08338e-05 
0.390718 -3.26338 -8.78529e-06 
0.705519 -3.3751 -1.90372e-06 
1.00043 -3.14869 1.28486e-06 
1.2828 -3.25315 1.39047e-06 
1.55853 -3.22375 3.26376e-07 
1.84526 -3.27647 4.01163e-09 
2.10432 -3.24811 -2.71786e-07 
2.3785 -3.33885 -3.35063e-07 
2.66993 -3.3318 -1.98275e-07 
2.96597 -3.34111 -9.91376e-08 
3.28468 -3.34809 -9.32741e-08 
3.58521 -3.33476 -8.57551e-08 
3.89542 -3.3593 -3.36812e-08 
4.19837 -3.33749 -4.77014e-08 
4.5024 -3.3589 -2.52286e-08 
4.80487 -3.34081 -1.95639e-08 
5.10722 -3.34205 -1.53863e-08 
5.41057 -3.35132 -5.10446e-09 
5.71171 -3.31942 -7.34964e-09 
6.01014 -3.35244 1.63875e-09 
6.30856 -3.33014 -8.71575e-09 
6.61092 -3.34299 6.56101e-09 
6.91235 -3.3336 -5.11465e-09 
7.216 -3.32779 4.72619e-09 
7.52341 -3.32184 -9.95367e-10 
7.8326 -3.32863 7.32875e-09 
8.1407 -3.31416 3.18403e-09 
8.44802 -3.31063 4.26422e-11 
8.75908 -3.31271 1.76333e-09 
9.09865 -3.35797 -4.07271e-09 
9.40867 -3.35342 -2.02769e-08 
9.71431 -3.28795 -1.05052e-08 
10.017 -3.39395 -1.08932e-08 
10.3122 -3.31386 1.86492e-08 
10.6392 -3.38657 1.58267e-08 
10.9725 -3.34947 1.0379e-08 
11.2914 -3.25914 4.50892e-09 
11.632 -3.35494 -2.53248e-08 
11.9999 -3.30984 -9.28524e-08 
-12 -2.99851 1.80664e-07 
-11.6539 -3.0122 -1.75377e-08 
-11.3112 -2.95416 9.59481e-09 
-10.9652 -3.00494 -5.6713e-09 
-10.6398 -2.99007 7.53118e-09 
-10.3188 -3.00663 -1.39123e-08 
-9.99255 -3.00688 5.1794e-11 
-9.6646 -3.00289 2.21367e-08 
-9.35728 -3.02095 1.20562e-08 
-9.05811 -3.00256 -1.13039e-09 
-8.74298 -2.97909 1.07706e-08 
-8.42835 -2.99503 -7.32102e-09 
-8.11232 -3.00448 -2.17204e-09 
-7.80817 -2.98566 -1.82944e-09 
-7.49947 -2.98756 -2.67884e-10 
-7.19934 -2.98899 1.47171e-09 
-6.90326 -3.01352 -1.61163e-09 
-6.60191 -3.02209 -1.73638e-09 
-6.30592 -3.02363 4.5878e-09 
-6.01003 -3.0342 -4.47348e-09 
-5.71355 -3.01762 -2.08816e-10 
-5.41907 -3.00888 -1.72277e-09 
-5.11241 -3.00318 3.6615e-09 
-4.80757 -3.03164 5.81361e-09 
-4.5083 -3.05322 1.41251e-08 
-4.2104 -3.01632 -4.68779e-09 
-3.91663 -3.04778 1.80464e-08 
-3.59715 -3.07682 3.68785e-08 
-3.28952 -3.03483 1.70362e-08 
-2.96945 -2.96235 1.31128e-08 
-2.64753 -2.97994 4.99117e-08 
-2.32104 -2.92623 1.83501e-07 
-2.03709 -2.93202 3.35255e-07 
-1.7331 -2.89805 -6.24494e-08 
-1.43131 -2.87672 3.40354e-06 
-1.12895 -2.77508 6.89061e-06 
-0.872543 -2.94016 1.32476e-05 
-0.557236 -2.84863 -2.13888e-05 
-0.228309 -2.88595 7.48477e-05 
0.073531 -3.01806 -4.26437e-05 
0.410804 -2.89516 -2.75489e-05 
0.708413 -2.98437 1.11775e-05 
0.858327 -2.69219 -2.50345e-05 
1.16043 -2.83729 -9.65932e-06 
1.43635 -2.84673 -4.69021e-06 
1.75272 -2.91514 -1.17035e-06 
2.0394 -2.85326 -1.12073e-06 
2.33038 -2.97346 -3.34823e-07 
2.61608 -2.98695 -1.27816e-07 
2.9183 -3.00318 -1.0789e-07 
3.22537 -3.039 -3.65513e-08 
3.54335 -3.0123 -3.15929e-09 
3.85792 -3.03535 -1.74317e-08 
4.16677 -3.01475 -1.87265e-09 
4.47581 -3.03109 -1.44202e-08 
4.78535 -3.02046 -1.56853e-09 
5.09352 -3.01535 -4.76995e-10 
5.39555 -3.02617 -5.4011e-09 
5.69739 -2.99636 3.73577e-10 
6.0017 -3.02366 1.95324e-10 
6.29696 -3.00098 7.3868e-09 
6.59548 -3.01871 -2.40371e-09 
6.89833 -3.00683 3.03213e-09 
7.20025 -3.00058 -1.19651e-09 
7.50489 -2.99458 8.41454e-10 
7.81424 -2.99831 -2.12486e-09 
8.11376 -2.97407 4.23227e-09 
8.41671 -2.97238 -2.24142e-09 
8.72354 -2.97569 1.39036e-09 
9.04171 -3.03895 4.45416e-12 
9.36788 -3.012 -1.42831e-08 
9.6734 -2.94976 -2.18428e-08 
10.0023 -3.03271 -2.69623e-09 
10.3355 -2.98407 1.32659e-08 
10.6594 -3.05668 -6.08938e-09 
10.9798 -3.00405 -7.87667e-09 
11.3311 -2.94251 3.84207e-09 
11.6659 -3.04481 -5.58607e-09 
12 -2.98143 -1.79304e-07 
-12 -2.67684 7.56691e-08 
-11.6635 -2.69349 1.12024e-08 
-11.3425 -2.62385 2.81457e-08 
-11.0032 -2.68699 -3.97389e-09 
-10.6629 -2.65702 1.22729e-08 
[...]
POINT_DATA 1978 
VECTORS vectors float
0.0256634 -0.035628 0.999062 
0.0266041 -0.0248993 0.999392 
0.02717 -0.0181943 0.99952 
0.0278647 -0.0113726 0.999612 
0.0288099 -0.00945796 0.999604 
0.0287914 -0.00914426 0.999594 
0.028608 -0.00799459 0.999604 
0.0285808 -0.00629413 0.999614 
0.0285995 -0.00457935 0.999624 
0.0286913 -0.00323887 0.999625 
0.0288249 -0.00220071 0.999623 
0.0288882 -0.00137156 0.999621 
0.0288944 -0.000797208 0.99962 
0.0288997 -0.000267327 0.999612 
0.0289603 0.000129751 0.9996 
0.0288728 0.000548664 0.999612 
0.0288867 0.00112725 0.999617 
0.0289126 0.0017597 0.999616 
0.0288776 0.0024967 0.999615 
0.0288161 0.00341115 0.999614 
0.0287246 0.00458596 0.999612 
0.0285817 0.00610012 0.999608 
0.0284057 0.00811265 0.999598 
0.0281935 0.0108636 0.999579 
0.0279018 0.0150046 0.999535 
0.0274549 0.0206516 0.999447 
0.0268106 0.0281077 0.999284 
0.0259197 0.0390321 0.998943 
0.0246851 0.0551563 0.998217 
0.0230092 0.0745689 0.996997 
0.0209012 0.0996061 0.994859 
0.0186568 0.131775 0.991163 
0.015543 0.175107 0.984486 
0.0101675 0.235066 0.971988 
0.00412861 0.310831 0.950524 
-0.00166477 0.415012 0.909856 
-0.00886213 0.541182 0.840927 
-0.0159588 0.731589 0.681545 
-0.015151 0.874633 0.484445 
-0.00560564 0.979674 0.200202 
0.00967534 0.964918 -0.262096 
0.0144116 0.739996 -0.672463 
0.0116132 0.605819 -0.795547 
0.00524573 0.457386 -0.889329 
-0.00200108 0.350614 -0.936596 
-0.00859837 0.260502 -0.965492 
-0.0137017 0.193977 -0.980965 
-0.0180114 0.144377 -0.989396 
-0.0202183 0.104669 -0.994372 
-0.022866 0.076828 -0.996831 
-0.0246501 0.0556295 -0.998191 
-0.0258448 0.0416284 -0.998821 
-0.0265802 0.0306573 -0.999216 
-0.0272988 0.0220588 -0.999422 
-0.0277575 0.0160552 -0.999523 
-0.0281637 0.0116142 -0.999572 
-0.028417 0.00864458 -0.999595 
-0.0285585 0.00645964 -0.999607 
-0.0286806 0.00480178 -0.999612 
-0.0287511 0.00363077 -0.999615 
-0.0288361 0.00267949 -0.999615 
-0.0288536 0.00194026 -0.999616 
-0.0289038 0.0012866 -0.999616 
-0.0289288 0.000742071 -0.999616 
-0.028922 0.000211203 -0.999618 
-0.0289439 -0.000276002 -0.999618 
-0.028906 -0.000788831 -0.999619 
-0.0288913 -0.00135389 -0.99962 
-0.028858 -0.00210244 -0.999621 
-0.0287341 -0.00305186 -0.999623 
-0.0285947 -0.00431967 -0.999626 
-0.0285384 -0.00609146 -0.999616 
-0.0284199 -0.00765018 -0.999612 
-0.0286217 -0.00906446 -0.9996 
-0.0286697 -0.00944084 -0.999608 
-0.0277788 -0.0112608 -0.999618 
-0.0271429 -0.0177367 -0.999527 
-0.0265592 -0.0244839 -0.999405 
-0.0257526 -0.0357535 -0.999054 
0.0158458 -0.0363185 0.999275 
0.0190002 -0.0272667 0.999568 
0.0183685 -0.0193348 0.999807 
0.0208306 -0.0139825 0.999808 
0.020967 -0.0103679 0.999877 
0.0214495 -0.0086824 0.999875 
0.0214504 -0.00751909 0.999883 
0.0211732 -0.0062717 0.999895 
0.0217178 -0.00488488 0.999887 
0.0219016 -0.00348799 0.999886 
0.0214746 -0.00236629 0.99992 
0.0218377 -0.00153821 0.999892 
0.0215905 -0.000886774 0.999895 
0.0217633 -0.000363018 0.999891 
0.0213049 0.000138983 0.999911 
0.0217105 0.000659986 0.999888 
0.0219851 0.00123263 0.999881 
0.0219523 0.00189534 0.99988 
0.0219526 0.00269119 0.999876 
0.0219359 0.00370618 0.999874 
0.0217175 0.00501255 0.999873 
0.02153 0.00675825 0.999866 
0.0212525 0.00909467 0.999854 
0.0215313 0.0124845 0.999812 
0.0212229 0.0174183 0.999746 
0.0204613 0.0240863 0.999625 
0.0202303 0.033441 0.999361 
0.0197464 0.0474038 0.998807 
0.0180141 0.0666386 0.997744 
0.0165992 0.0906992 0.995851 
0.0150746 0.121572 0.992627 
0.0135002 0.164592 0.98639 
0.0108915 0.220206 0.975522 
0.007716 0.297347 0.954901 
0.00461717 0.393184 0.919552 
0.00267718 0.499916 0.866162 
-0.00316355 0.640948 0.767609 
-0.0013725 0.799499 0.600584 
-0.00162235 0.93148 0.363393 
0.000591663 0.999769 0.0109363 
0.00233934 0.939755 -0.341422 
0.00684345 0.818015 -0.575018 
-0.00147071 0.638193 -0.769914 
-0.00124195 0.505172 -0.863091 
-0.00516776 0.38303 -0.923885 
-0.00814067 0.289922 -0.957138 
-0.011106 0.214137 -0.976902 
-0.0139803 0.157143 -0.987606 
-0.0158552 0.112661 -0.993639 
-0.0173005 0.0807942 -0.996709 
-0.0187283 0.0587501 -0.998224 
-0.0191287 0.0423545 -0.999061 
-0.0203971 0.0305029 -0.99945 
-0.0205291 0.0221758 -0.999668 
-0.0212425 0.0159097 -0.999771 
-0.0212198 0.0115892 -0.99983 
-0.0214737 0.00852156 -0.999856 
-0.0217606 0.00627656 -0.999865 
-0.0214128 0.00470788 -0.999881 
-0.0220573 0.00346555 -0.999868 
-0.0216445 0.00253607 -0.999885 
-0.0219915 0.00178005 -0.999875 
-0.0218112 0.00114429 -0.999886 
-0.0219334 0.000596614 -0.999864 
-0.0215151 8.38632e-05 -0.999912 
-0.021904 -0.000423532 -0.999866 
-0.021429 -0.000952259 -0.999911 
-0.0216373 -0.0015996 -0.999873 
-0.0213614 -0.00240526 -0.9999 
-0.0215109 -0.00344203 -0.999896 
-0.0221367 -0.00484393 -0.999877 
-0.0207131 -0.0061312 -0.999925 
-0.0224517 -0.00756924 -0.999836 
-0.0212005 -0.00856586 -0.999907 
-0.0219662 -0.010339 -0.999854 
-0.0202949 -0.0141285 -0.999838 
-0.0184139 -0.0195773 -0.99978 
-0.0195456 -0.0276471 -0.999547 
-0.0155855 -0.0363873 -0.999277 
0.010334 -0.0371419 0.999304 
0.0124153 -0.0264468 0.999713 
0.0130451 -0.0193034 0.999863 
0.0147434 -0.0137973 0.999937 
0.0149093 -0.0101809 0.999976 
0.0154279 -0.00795702 0.999993 
0.0154144 -0.00686522 0.999994 
0.0154012 -0.00597141 0.999998 
0.0160012 -0.00476385 0.999995 
0.0160172 -0.00353593 0.999999 
0.0154829 -0.00254127 1.00001 
0.015994 -0.00170859 0.999981 
0.0159031 -0.00103778 1 
0.0159026 -0.000465836 1 
0.0156022 2.20994e-05 1.00001 
0.0157944 0.000544557 1.00002 
0.0162291 0.00110322 0.999973 
0.0162408 0.00173196 0.999991 
0.0162843 0.00248578 1 
0.0163432 0.00346334 0.999964 
0.0160783 0.0046991 0.999983 
0.015855 0.00633286 0.999978 
0.0154433 0.0085272 0.999988 
0.0159442 0.0116234 0.999926 
0.0160395 0.0159926 0.999849 
0.0153108 0.0220408 0.999785 
0.0151921 0.0308292 0.999532 
0.0153451 0.0430938 0.999061 
0.0144441 0.0598564 0.998229 
0.0131192 0.0828785 0.996628 
0.0129086 0.11653 0.993245 
0.0125638 0.160587 0.987082 
0.0118652 0.218756 0.975847 
0.0115914 0.29383 0.955922 
0.0112547 0.391557 0.920219 
0.0124967 0.515244 0.857052 
0.00768905 0.651721 0.758462 
0.00920611 0.812506 0.582786 
0.00447312 0.949854 0.312157 
0.000439154 0.999648 -0.0189412 
-0.00414893 0.927398 -0.373684 
-0.00428691 0.786649 -0.617322 
-0.0120763 0.630232 -0.776353 
-0.0101303 0.492821 -0.870184 
-0.0113569 0.379876 -0.925067 
-0.0113012 0.284645 -0.95872 
-0.0121836 0.21832 -0.975918 
-0.0124783 0.163132 -0.98668 
-0.0132873 0.120462 -0.992744 
-0.0136723 0.0875723 -0.996195 
-0.0142473 0.0621172 -0.998099 
-0.0144915 0.0450503 -0.999008 
-0.0152187 0.0324902 -0.999463 
-0.0151671 0.0233604 -0.999756 
-0.0157527 0.016927 -0.999839 
-0.0155957 0.0122752 -0.999945 
-0.0158059 0.00900649 -0.999959 
-0.0160749 0.00663476 -0.999956 
-0.0156322 0.00488863 -1.00001 
-0.0162254 0.00363115 -0.999967 
-0.0159203 0.00263623 -1.00001 
-0.0161396 0.00184294 -0.999991 
-0.0160494 0.00118572 -0.999991 
-0.0158941 0.000611583 -1.00002 
-0.0158721 7.74026e-05 -0.999982 
-0.0159184 -0.000438385 -1 
-0.0156379 -0.000991306 -1.00001 
-0.0154622 -0.00165194 -1.00003 
-0.0155038 -0.00252942 -1.00001 
-0.0161401 -0.00371893 -0.999995 
-0.0158925 -0.00494902 -0.999977 
-0.0147948 -0.00600005 -1 
-0.0162283 -0.00690724 -0.999984 
-0.0150423 -0.00774739 -0.999998 
-0.0160173 -0.00994599 -0.999946 
-0.0148383 -0.0134772 -0.999943 
-0.0127733 -0.0190306 -0.999893 
-0.0128876 -0.0260211 -0.999719 
-0.0101911 -0.0371304 -0.999306 
0.00596765 -0.0379471 0.999306 
0.00819663 -0.0273361 0.999732 
0.00869828 -0.0201116 0.999899 
0.00998121 -0.0140243 1.00002 
0.0100602 -0.00986889 1.00005 
0.0103947 -0.00730766 1.00007 
0.010533 -0.00644531 1.00006 
0.0106245 -0.00584877 1.00007 
0.011083 -0.00482093 1.00004 
0.0109264 -0.00366267 1.00007 
0.0107095 -0.00256778 1.00005 
0.0109602 -0.00167842 1.00009 
0.0111423 -0.000993837 1.00007 
0.0109438 -0.000451302 1.00007 
0.0110004 5.98965e-05 1.00007 
0.0110675 0.000574367 1.00005 
0.0113455 0.00113068 1.00008 
0.011475 0.00178385 1.00006 
0.0114742 0.00254469 1.00004 
0.0114984 0.00347427 1.00007 
0.011249 0.00470017 1.00005 
0.0110815 0.00632777 1.00005 
0.0109653 0.00865366 1.00001 
0.01123 0.0117982 0.999994 
0.0114003 0.0160984 0.999951 
0.0108748 0.0221799 0.999805 
0.0111286 0.030043 0.999617 
0.0114102 0.0419404 0.9992 
0.0110566 0.0582986 0.998374 
0.0109009 0.0822555 0.996691 
0.0117844 0.116637 0.993224 
0.0128196 0.163363 0.986649 
0.0142891 0.220203 0.975488 
0.0168751 0.300897 0.95362 
0.0194563 0.404022 0.914677 
0.024995 0.534713 0.844745 
0.0193882 0.669577 0.74253 
0.019651 0.832772 0.553115 
0.00990476 0.964322 0.263927 
-0.000928943 0.998222 -0.0562658 
-0.0127508 0.918476 -0.394951 
-0.0154736 0.779817 -0.625748 
-0.0283116 0.693237 -0.720164 
-0.022255 0.542015 -0.840158 
-0.0199251 0.419899 -0.907474 
-0.0162384 0.309196 -0.95097 
-0.0151171 0.228282 -0.973641 
-0.0129747 0.170224 -0.985432 
-0.0119468 0.1258 -0.992127 
-0.0113223 0.0906596 -0.99597 
-0.0112197 0.0658824 -0.997876 
-0.0108052 0.0469683 -0.998971 
-0.0110157 0.0335033 -0.999531 
-0.0108904 0.0241898 -0.999761 
-0.0111255 0.0173733 -0.999935 
-0.011107 0.0126399 -0.999969 
-0.0111041 0.00916739 -1.00002 
-0.0112769 0.00671238 -1.00006 
-0.0109787 0.00498504 -1.00003 
-0.0113575 0.00365786 -1.00008 
-0.0111379 0.00268459 -1.00004 
-0.0113906 0.00187157 -1.00006 
-0.0112353 0.00119751 -1.00006 
-0.0111383 0.000619233 -1.00007 
-0.0110497 8.68276e-05 -1.00007 
-0.0110308 -0.000432501 -1.00009 
-0.0107692 -0.000978305 -1.00006 
-0.0106533 -0.00162853 -1.00007 
-0.0105732 -0.0024735 -1.0001 
-0.0114184 -0.0035813 -1.00004 
-0.0108904 -0.00482397 -1.00008 
-0.0099361 -0.0058572 -1.00007 
-0.0109034 -0.00650712 -1.00006 
-0.0100758 -0.0073812 -1.00007 
-0.0109966 -0.0101312 -1.00003 
-0.00995253 -0.0143443 -0.999993 
-0.00853546 -0.0204965 -0.999893 
-0.00847563 -0.0276652 -0.999719 
-0.00581499 -0.0379528 -0.999308 
0.00416591 -0.038756 0.9993 
0.0056021 -0.0282248 0.999736 
0.00572441 -0.0212135 0.999889 
0.0064923 -0.014847 1.00001 
0.00618442 -0.00974088 1.00008 
0.00643652 -0.00700552 1.0001 
0.00674044 -0.00632837 1.0001 
0.0068885 -0.00592373 1.0001 
0.00695579 -0.00487786 1.00012 
0.0071016 -0.00365749 1.00011 
0.00707492 -0.00252286 1.00011 
0.00726891 -0.00162902 1.00011 
0.00736071 -0.000971722 1.00011 
0.00730658 -0.0004183 1.00011 
0.00734728 9.08074e-05 1.0001 
0.00738863 0.000615741 1.0001 
0.00763445 0.00119371 1.0001 
0.00768765 0.00184601 1.0001 
0.00769659 0.00263156 1.0001 
0.0077023 0.0035885 1.00009 
0.00751992 0.00484199 1.00009 
0.00754121 0.00659017 1.00008 
0.00745724 0.0090143 1.00006 
0.00758361 0.0122487 1.00003 
0.00770424 0.016711 0.999963 
0.00748531 0.0228268 0.999845 
0.00808896 0.0318197 0.999595 
0.00838067 0.0436295 0.999147 
0.00882236 0.0610706 0.998233 
0.00988988 0.0878123 0.996229 
0.0118247 0.123242 0.992425 
0.0149576 0.166841 0.986026 
0.0186353 0.229974 0.973159 
0.0244676 0.312777 0.949641 
0.0312394 0.42365 0.905377 
0.0444138 0.543901 0.838076 
0.0353584 0.680782 0.731642 
0.0580915 0.7266 0.684561 
0.0324688 0.857716 0.512926 
0.0133904 0.980275 0.196361 
-0.00823517 0.987242 -0.158046 
-0.0295487 0.86194 -0.50595 
-0.049401 0.722071 -0.690039 
-0.0386452 0.549113 -0.834935 
-0.032666 0.418603 -0.907704 
-0.0236822 0.315475 -0.948769 
-0.019569 0.228243 -0.97355 
-0.0144142 0.165069 -0.98632 
-0.0115769 0.11827 -0.993067 
-0.00987983 0.0853135 -0.996422 
-0.00890002 0.0614222 -0.998225 
-0.00813594 0.0435775 -0.999151 
-0.00786534 0.0316426 -0.999603 
-0.00758494 0.0227957 -0.999846 
-0.00765993 0.0165026 -0.999967 
-0.00758646 0.0119984 -1.00003 
-0.00753323 0.00875292 -1.00006 
-0.0076236 0.00645123 -1.00008 
-0.00748704 0.00472439 -1.00009 
-0.00761733 0.00352238 -1.00009 
-0.00754731 0.00253911 -1.0001 
-0.00769436 0.00175005 -1.0001 
-0.00756019 0.00109249 -1.0001 
-0.0074849 0.000518016 -1.0001 
-0.00739264 -1.60606e-05 -1.00011 
-0.00724259 -0.000516381 -1.00011 
-0.00702038 -0.00107757 -1.00011 
-0.00694134 -0.00176699 -1.00011 
-0.00691934 -0.00266918 -1.00009 
-0.00745503 -0.00373687 -1.0001 
-0.00692758 -0.0049245 -1.0001 
-0.00640722 -0.00595399 -1.0001 
-0.00702433 -0.00636547 -1.0001 
-0.00630303 -0.00695617 -1.00011 
-0.00679487 -0.0097485 -1.00008 
-0.00646649 -0.0148319 -1.00002 
-0.00571807 -0.021064 -0.999899 
-0.00573678 -0.0283021 -0.999723 
-0.00435282 -0.0388733 -0.999285 
0.00400827 -0.0386021 0.999305 
0.00420997 -0.0306317 0.999661 
0.00419829 -0.0230602 0.999845 
0.00428389 -0.0162267 1 
0.00419082 -0.0106862 1.00008 
0.00435018 -0.00720713 1.00012 
0.00465019 -0.0063747 1.00012 
0.00492799 -0.00619968 1.00011 
0.00509734 -0.00534436 1.00011 
0.00524097 -0.00407232 1.00012 
0.00537398 -0.00287754 1.00012 
0.00551914 -0.00188155 1.00012 
0.00562157 -0.00116179 1.00012 
0.00570095 -0.000596179 1.00012 
0.00577973 -8.23524e-05 1.00012 
0.00584634 0.000436123 1.00011 
0.0059562 0.00100589 1.00011 
0.00602668 0.00162703 1.00011 
0.00607371 0.00236888 1.00011 
0.00606681 0.00327329 1.00011 
0.0060184 0.00439671 1.0001 
0.00601676 0.00597167 1.00009 
0.00599729 0.00815132 1.00008 
0.00599351 0.0112177 1.00005 
0.0060562 0.0152326 0.999999 
0.00610722 0.0206597 0.999903 
0.00648612 0.0292821 0.999686 
0.00695687 0.0403108 0.999301 
0.00780534 0.0551929 0.998584 
0.00940769 0.0780478 0.997047 
0.0125489 0.113583 0.993611 
0.0173387 0.154678 0.987935 
0.0227997 0.210204 0.977534 
0.0309173 0.282938 0.958777 
0.0413587 0.382594 0.92311 
0.058991 0.422868 0.904375 
0.0697346 0.562099 0.824189 
0.0916586 0.746566 0.658896 
0.0465651 0.908793 0.41425 
0.00379985 0.999436 0.0260886 
-0.0302331 0.952014 -0.304111 
-0.0672255 0.830695 -0.552524 
-0.0836117 0.651921 -0.75367 
-0.0575678 0.545211 -0.83637 
-0.0475618 0.389561 -0.919889 
-0.0319068 0.297102 -0.954471 
-0.0245739 0.215609 -0.97629 
-0.0169558 0.159477 -0.987211 
-0.0129667 0.116381 -0.993239 
-0.0100452 0.0840311 -0.996553 
-0.00826216 0.0608465 -0.998231 
-0.00722326 0.044058 -0.99914 
-0.00656449 0.0315259 -0.999618 
-0.00622152 0.0229178 -0.999854 
-0.00609653 0.0166667 -0.999978 
-0.00604116 0.0121773 -1.00004 
-0.00601022 0.00885833 -1.00007 
-0.00602042 0.00649876 -1.00009 
-0.0060449 0.00483069 -1.0001 
-0.00602579 0.00353292 -1.00011 
-0.00605182 0.00259051 -1.00011 
-0.00606714 0.00178188 -1.00011 
-0.00599636 0.00111998 -1.00011 
-0.0059162 0.000541116 -1.00011 
-0.00586076 1.08889e-05 -1.00011 
-0.00571606 -0.000508736 -1.00012 
-0.00558211 -0.00104926 -1.00012 
-0.00545307 -0.00174188 -1.00012 
-0.00533183 -0.00263664 -1.00014 
-0.00538729 -0.00377765 -1.00012 
-0.00512451 -0.00506879 -1.00011 
-0.00481595 -0.00608402 -1.00011 
-0.00483142 -0.00638373 -1.00011 
-0.00439765 -0.00688636 -1.00012 
-0.00441225 -0.00971974 -1.00009 
-0.00424519 -0.0148807 -1.00003 
-0.0041012 -0.0213631 -0.9999 
-0.00435985 -0.0288761 -0.999711 
-0.0040367 -0.038911 -0.999284 
0.00352339 -0.0387256 0.999287 
0.00348676 -0.0279822 0.99976 
0.00357799 -0.0200097 0.999926 
0.00362547 -0.0137048 1.00004 
0.00383247 -0.00888718 1.0001 
0.00417624 -0.00667579 1.00012 
0.00448943 -0.006457 1.00011 
0.00473269 -0.00613461 1.00011 
0.00493113 -0.00505756 1.00011 
0.00508322 -0.00372857 1.00011 
0.00521129 -0.00253811 1.00012 
0.00532947 -0.0016444 1.00011 
0.00542934 -0.000991198 1.00011 
0.00552926 -0.000452213 1.00011 
0.0056116 5.61383e-05 1.00011 
0.00568651 0.000602959 1.00011 
0.00575352 0.00117513 1.00011 
0.00581385 0.00183533 1.00011 
0.00584212 0.00261403 1.0001 
0.00583962 0.00355809 1.0001 
0.0058366 0.00484327 1.0001 
0.00583107 0.00657928 1.00009 
0.00583952 0.00901587 1.00007 
0.00587689 0.0122953 1.00004 
0.00597709 0.0164962 0.999977 
0.00620805 0.0236161 0.999835 
0.00665842 0.0322679 0.999593 
0.00748686 0.0444208 0.999122 
0.00882239 0.0611287 0.998231 
0.0114755 0.0873121 0.996256 
0.0157233 0.119154 0.992889 
0.0229388 0.164882 0.986188 
0.0309834 0.21652 0.975926 
0.0437498 0.291938 0.955579 
0.0620707 0.326376 0.943329 
0.0887916 0.437788 0.894788 
0.1118 0.588519 0.800748 
0.173759 0.672519 0.719381 
0.106139 0.867043 0.486522 
0.029268 0.989013 0.14336 
-0.0581925 0.954845 -0.290602 
-0.128155 0.779238 -0.613382 
-0.113286 0.560685 -0.820282 
-0.0726248 0.452745 -0.888795 
-0.0719108 0.363768 -0.928825 
-0.0456307 0.296791 -0.953991 
-0.0329345 0.224854 -0.974006 
-0.0205666 0.155659 -0.987741 
-0.0150305 0.113599 -0.993556 
-0.0113256 0.0828128 -0.99664 
-0.00886466 0.0595381 -0.998342 
-0.00747132 0.0426341 -0.999197 
-0.00668074 0.0307953 -0.999638 
-0.0062033 0.0221071 -0.999869 
-0.00598229 0.0160911 -0.999984 
-0.00588344 0.0116626 -1.00004 
-0.00585319 0.00846248 -1.00007 
-0.00584758 0.00625167 -1.00009 
-0.00587159 0.00461532 -1.00008 
-0.00582435 0.00339612 -1.00012 
-0.00584652 0.00245538 -1.0001 
-0.00582428 0.00169758 -1.00011 
-0.00576312 0.0010494 -1.00011 
-0.00570143 0.000471502 -1.00011 
-0.00562308 -6.19725e-05 -1.00011 
-0.00552124 -0.00057454 -1.00011 
-0.00542474 -0.00114507 -1.00011 
-0.00530946 -0.00185305 -1.00012 
-0.00521009 -0.00281137 -1.00009 
-0.00509134 -0.0039782 -1.00011 
-0.00491017 -0.00526116 -1.00011 
-0.00468739 -0.00631174 -1.0001 
-0.004427 -0.00651874 -1.00011 
-0.00407042 -0.00695325 -1.00012 
-0.00378628 -0.00962042 -1.00009 
-0.0036011 -0.0147787 -1.00003 
-0.00351041 -0.0210065 -0.999905 
-0.00368209 -0.0284504 -0.999725 
-0.00357019 -0.0387598 -0.999287 
0.00270131 -0.0386757 0.99929 
0.00300897 -0.0287643 0.999712 
0.00322735 -0.0209603 0.999887 
0.00339122 -0.014189 1.00005 
0.00369386 -0.00939176 1.00009 
0.0040091 -0.00694613 1.00011 
0.00431716 -0.00668 1.00011 
0.00457935 -0.00640077 1.00008 
0.00471841 -0.00535248 1.00011 
0.0048171 -0.00398382 1.00011 
0.00494402 -0.00274056 1.00011 
0.00501951 -0.00181249 1.00011 
0.0050767 -0.00112805 1.00011 
0.00514837 -0.000580333 1.00011 
0.00517709 -6.78529e-05 1.00011 
0.00524162 0.000459718 1.00011 
0.00523734 0.00102845 1.00012 
0.00534348 0.00165417 1.00009 
0.00536482 0.00236642 1.0001 
0.00534884 0.0032285 1.0001 
0.00540667 0.00436074 1.0001 
0.00543947 0.00590483 1.00009 
0.00549018 0.00798492 1.00008 
0.00551427 0.0107822 1.00005 
0.00554944 0.0144986 1.00003 
0.00598234 0.0200209 0.99989 
0.00632447 0.0272688 0.99976 
0.00709339 0.0371878 0.999396 
0.00832101 0.050682 0.998838 
0.0105302 0.0705104 0.997574 
0.0139017 0.0949125 0.995529 
0.0195665 0.129352 0.991551 
0.0289148 0.169446 0.985285 
0.0409423 0.225341 0.973563 
0.0879036 0.34142 0.935921 
0.135452 0.472315 0.871026 
0.189337 0.485377 0.853614 
0.281473 0.676316 0.680807 
0.19793 0.873561 0.444749 
0.0360155 0.995835 0.0846758 
-0.13186 0.944989 -0.299343 
-0.245705 0.791523 -0.559661 
-0.179667 0.612822 -0.769539 
-0.117452 0.439211 -0.890787 
-0.0783797 0.316121 -0.945581 
-0.0511632 0.256544 -0.965332 
-0.0343742 0.194534 -0.980423 
-0.0234823 0.152343 -0.988194 
-0.0158673 0.105565 -0.994429 
-0.011793 0.0777333 -0.997045 
-0.00926522 0.057544 -0.998416 
-0.00767252 0.0421164 -0.999215 
-0.00665353 0.030467 -0.999646 
-0.00606101 0.0221128 -0.999869 
-0.00572551 0.0159756 -0.999985 
-0.00559129 0.0116963 -1.00004 
-0.00549726 0.00855986 -1.00007 
-0.00541672 0.0062637 -1.00009 
-0.0054307 0.00463551 -1.00011 
-0.00534977 0.00344795 -1.0001 
-0.00543032 0.00253406 -1.00009 
-0.00537371 0.00176145 -1.0001 
-0.00530693 0.00111336 -1.00011 
-0.00525214 0.000535774 -1.00011 
-0.00521386 -1.87262e-06 -1.00011 
-0.005095 -0.000518541 -1.00011 
-0.00502487 -0.00107725 -1.00011 
-0.00491838 -0.00177298 -1.00011 
-0.00481312 -0.00270376 -1.00013 
-0.00483084 -0.00394591 -1.00011 
-0.00469454 -0.00537932 -1.0001 
-0.00449923 -0.00648587 -1.0001 
-0.00435257 -0.00669412 -1.00011 
-0.00397596 -0.00716646 -1.00011 
-0.00369346 -0.00990039 -1.00009 
-0.00339132 -0.0147855 -1.00002 
-0.00312104 -0.0211531 -0.999901 
-0.00313332 -0.0287378 -0.999713 
-0.00285711 -0.0386439 -0.999293 
0.00192373 -0.0386507 0.999291 
0.00231707 -0.0285391 0.999718 
0.00266296 -0.0210165 0.999904 
0.0028432 -0.0146221 1.00001 