# vtk DataFile Version 3.0 
Exported using Morpho https://github.com/Morpho-lang/morpho 
ASCII 
DATASET UNSTRUCTURED_GRID 

POINTS 1978 float 
-12 -4 -5.46909e-13 
-11.5961 -4 1.75104e-12 
-11.2979 -4 4.98682e-12 
-10.9561 -4 4.87266e-12 
-10.6402 -4 3.22294e-12 
-10.2941 -4 2.34541e-12 
-9.97402 -4 1.39793e-12 
-9.6599 -4 6.06454e-13 
-9.32272 -4 1.66506e-13 
-8.99987 -4 7.4985e-14 
-8.67891 -4 -1.86042e-13 
-8.3605 -4 -2.72681e-13 
-8.05122 -4 -2.13841e-13 
-7.75998 -4 -2.31219e-13 
-7.48675 -4 -3.29897e-13 
-7.18986 -4 -4.77574e-13 
-6.89473 -4 -6.4143e-13 
-6.59745 -4 -6.84748e-13 
-6.29703 -4 -9.2744e-13 
-5.98805 -4 -1.16272e-12 
-5.68075 -4 -1.36965e-12 
-5.37656 -4 -1.73588e-12 
-5.07219 -4 -1.94055e-12 
-4.7777 -4 -2.7244e-12 
-4.44372 -4 -3.04619e-12 
-4.15165 -4 -3.22205e-12 
-3.85374 -4 -4.42308e-12 
-3.52698 -4 -4.87524e-12 
-3.23348 -4 -5.50139e-12 
-2.94177 -4 -6.11339e-12 
-2.65579 -4 -5.8713e-12 
-2.39114 -4 -5.97626e-12 
-2.12368 -4 -7.01629e-12 
-1.83266 -4 -6.61844e-12 
-1.55122 -4 -5.95985e-12 
-1.25399 -4 -5.5257e-12 
-0.950244 -4 -6.13126e-12 
-0.647184 -4 -1.04274e-11 
-0.344986 -4 -1.99567e-11 
0.0497646 -4 2.74455e-11 
0.355651 -4 9.42553e-12 
0.649809 -4 9.01847e-12 
0.921006 -4 4.54551e-12 
1.20807 -4 5.3667e-12 
1.48308 -4 3.3036e-12 
1.76269 -4 6.43764e-12 
2.04636 -4 7.88626e-12 
2.34034 -4 9.18968e-12 
2.65805 -4 8.05987e-12 
2.96058 -4 7.12581e-12 
3.28278 -4 5.46431e-12 
3.57262 -4 4.46735e-12 
3.8698 -4 4.06458e-12 
4.18393 -4 3.4624e-12 
4.48606 -4 2.76628e-12 
4.78343 -4 2.49558e-12 
5.09773 -4 2.10425e-12 
5.405 -4 1.73888e-12 
5.71889 -4 1.36676e-12 
6.01193 -4 1.07616e-12 
6.3059 -4 8.59698e-13 
6.59751 -4 7.90163e-13 
6.89697 -4 5.94331e-13 
7.17169 -4 4.34362e-13 
7.47298 -4 3.69047e-13 
7.76815 -4 3.24279e-13 
8.06478 -4 2.19423e-13 
8.35725 -4 2.64148e-13 
8.6541 -4 1.42747e-13 
8.93291 -4 -7.76924e-14 
9.27995 -4 -2.7139e-13 
9.61055 -4 -4.77347e-13 
9.90194 -4 -1.60213e-12 
10.2726 -4 -2.40452e-12 
10.5895 -4 -3.81353e-12 
10.9825 -4 -5.46851e-12 
11.2974 -4 -4.52443e-12 
11.589 -4 -1.88855e-12 
12 -4 5.49892e-13 
-12 -3.6107 1.66671e-12 
-11.7075 -3.71582 -2.16197e-12 
-11.3556 -3.6201 -1.98383e-12 
-11.0446 -3.6702 -2.65672e-12 
-10.711 -3.64401 -1.73414e-12 
-10.3938 -3.67768 -2.01345e-12 
-10.058 -3.66021 -1.3587e-12 
-9.73548 -3.65975 -8.53796e-13 
-9.40454 -3.68331 -5.52523e-13 
-9.06583 -3.66556 -2.17258e-13 
-8.74784 -3.66329 -6.22184e-14 
-8.42665 -3.66784 5.22985e-14 
-8.10964 -3.66615 1.449e-13 
-7.79878 -3.65502 1.97454e-13 
-7.50276 -3.64041 1.98146e-13 
-7.21331 -3.66687 2.55353e-13 
-6.90423 -3.66278 5.41678e-13 
-6.59707 -3.65738 2.72864e-13 
-6.28276 -3.66926 6.39346e-13 
-5.9707 -3.6661 6.61469e-13 
-5.66251 -3.66144 7.84026e-13 
-5.3563 -3.65999 9.25784e-13 
-5.06069 -3.65009 1.04006e-12 
-4.73502 -3.6932 1.74586e-12 
-4.4401 -3.65981 1.61011e-12 
-4.14468 -3.66353 1.94556e-12 
-3.82243 -3.6991 3.28036e-12 
-3.5155 -3.67855 3.29916e-12 
-3.21659 -3.67887 4.28669e-12 
-2.92342 -3.68235 5.16197e-12 
-2.64984 -3.64476 4.62588e-12 
-2.37004 -3.6557 5.89074e-12 
-2.07576 -3.69294 8.53951e-12 
-1.78664 -3.67211 4.0251e-12 
-1.48687 -3.67773 5.52321e-12 
-1.17821 -3.66098 1.65646e-12 
-0.863491 -3.64718 -6.2933e-13 
-0.562089 -3.57769 -1.47379e-12 
-0.21225 -3.69981 -2.34555e-11 
0.0556088 -3.51541 6.79724e-13 
0.318109 -3.6071 9.04609e-12 
0.61742 -3.59221 -1.41793e-13 
0.905108 -3.60674 -3.96039e-13 
1.18383 -3.66013 -3.47976e-12 
1.49046 -3.66074 -3.84377e-12 
1.78248 -3.66716 -6.21292e-12 
2.08629 -3.68607 -7.82281e-12 
2.41091 -3.71712 -7.53392e-12 
2.72648 -3.69363 -6.48811e-12 
3.03938 -3.69988 -5.2443e-12 
3.33216 -3.66413 -3.59401e-12 
3.6284 -3.67149 -3.01983e-12 
3.93518 -3.68217 -2.7507e-12 
4.23611 -3.66489 -1.89975e-12 
4.53134 -3.6563 -1.49412e-12 
4.83917 -3.67222 -1.45067e-12 
5.14724 -3.66491 -1.0943e-12 
5.46096 -3.67144 -9.80985e-13 
5.76274 -3.65133 -6.79337e-13 
6.06219 -3.65638 -6.13322e-13 
6.3584 -3.65273 -5.1415e-13 
6.66337 -3.66622 -4.50331e-13 
6.94928 -3.63664 -2.94473e-13 
7.24941 -3.66711 -3.3051e-13 
7.55003 -3.65878 -2.37761e-13 
7.85191 -3.65923 -1.82161e-13 
8.14973 -3.65182 -1.26425e-13 
8.44369 -3.65394 -3.66681e-14 
8.7313 -3.62837 8.30054e-14 
9.05303 -3.69921 2.64955e-13 
9.38661 -3.6782 5.49521e-13 
9.69266 -3.62996 7.09993e-13 
10.0285 -3.70702 1.7033e-12 
10.3584 -3.65406 1.66602e-12 
10.7234 -3.71817 3.19796e-12 
11.0542 -3.64414 2.07641e-12 
11.356 -3.61158 1.90792e-12 
11.7107 -3.72284 2.37339e-12 
12 -3.60387 -1.64551e-12 
-12 -3.30857 6.90837e-13 
-11.6298 -3.36556 5.05074e-14 
-11.2842 -3.27325 -4.55091e-13 
-10.9731 -3.32535 1.00485e-14 
-10.6558 -3.29439 -2.78698e-13 
-10.3377 -3.343 -5.13504e-13 
-10.0145 -3.3218 -6.26595e-13 
-9.69872 -3.31604 -5.55802e-13 
-9.38924 -3.36201 -3.76578e-13 
-9.08082 -3.32127 -3.4605e-13 
-8.77361 -3.31725 -1.26558e-13 
-8.46898 -3.33348 -1.63589e-14 
-8.15802 -3.3311 1.92092e-14 
-7.85148 -3.32435 4.85592e-14 
-7.54756 -3.29794 9.06121e-14 
-7.24881 -3.31784 1.29492e-13 
-6.95456 -3.33632 1.90676e-13 
-6.64544 -3.32643 1.50718e-13 
-6.33461 -3.33949 2.4629e-13 
-6.02382 -3.33545 2.41918e-13 
-5.71359 -3.32714 3.01015e-13 
-5.40598 -3.32261 3.82048e-13 
-5.10415 -3.30287 4.85121e-13 
-4.80388 -3.36948 5.17426e-13 
-4.50279 -3.32501 8.44802e-13 
-4.20494 -3.33039 1.07042e-12 
-3.90016 -3.38302 1.2004e-12 
-3.59538 -3.37139 1.57782e-12 
-3.28062 -3.3582 2.06366e-12 
-2.9794 -3.35472 2.43659e-12 
-2.68012 -3.31528 3.34327e-12 
-2.38359 -3.3205 4.09235e-12 
-2.0854 -3.37322 1.83839e-12 
-1.7772 -3.35144 3.27855e-12 
-1.46198 -3.35096 1.83062e-13 
-1.13093 -3.31816 1.94664e-12 
-0.824202 -3.26349 -5.24887e-12 
-0.524675 -3.11741 -3.58929e-12 
-0.273827 -3.3145 -5.53955e-12 
0.00237189 -3.08593 -2.11687e-11 
0.312649 -3.15824 8.79875e-12 
0.591533 -3.17934 1.09236e-11 
0.891429 -3.21026 4.47122e-12 
1.18431 -3.27925 1.32283e-12 
1.46818 -3.34114 -8.00542e-14 
1.78279 -3.33002 -1.76267e-12 
2.0756 -3.36945 -3.07692e-12 
2.38195 -3.4251 -3.44551e-12 
2.67931 -3.37696 -1.52027e-12 
2.9837 -3.38877 -2.45467e-12 
3.28509 -3.3385 -2.08456e-12 
3.58562 -3.34078 -1.73371e-12 
3.88284 -3.35697 -1.26083e-12 
4.1819 -3.33547 -1.01685e-12 
4.48039 -3.31606 -8.30416e-13 
4.77876 -3.33811 -6.09479e-13 
5.0816 -3.33407 -4.81852e-13 
5.39228 -3.34232 -3.66789e-13 
5.70014 -3.31801 -3.12159e-13 
6.0104 -3.3148 -2.8579e-13 
6.3091 -3.31005 -2.43815e-13 
6.61234 -3.33314 -2.28762e-13 
6.91208 -3.28904 -1.89411e-13 
7.2106 -3.32816 -1.29183e-13 
7.51235 -3.32253 -8.11923e-14 
7.81593 -3.3243 -5.53663e-14 
8.12217 -3.31063 -2.06104e-14 
8.42336 -3.30038 2.3431e-14 
8.74469 -3.30567 1.32604e-13 
9.06762 -3.37939 2.45994e-13 
9.38161 -3.33622 4.12697e-13 
9.69716 -3.28728 6.38179e-13 
10.0108 -3.38011 6.78781e-13 
10.3097 -3.29922 6.48945e-13 
10.6316 -3.40007 2.40619e-14 
10.9597 -3.32641 -2.05404e-13 
11.2897 -3.24892 6.65326e-13 
11.6271 -3.37105 -2.22815e-13 
12 -3.29664 -6.85958e-13 
-12 -2.98991 3.03459e-13 
-11.6511 -3.05072 -4.57865e-13 
-11.3042 -2.95583 -1.06172e-12 
-10.9556 -2.97215 -3.48744e-13 
-10.6214 -2.96316 -8.81191e-13 
-10.2954 -3.00334 -1.02924e-12 
-9.97349 -2.98205 -1.08279e-12 
-9.65138 -2.98019 -9.79502e-13 
-9.35149 -3.01339 -6.435e-13 
-9.04476 -2.97539 -3.37495e-13 
-8.73888 -2.97085 -1.29865e-13 
-8.43346 -2.99607 -2.52302e-14 
-8.12761 -2.99246 4.70263e-14 
-7.82657 -2.98612 9.37666e-14 
-7.52323 -2.96193 1.41918e-13 
-7.22566 -2.9805 1.82195e-13 
-6.92263 -3.00843 2.31739e-13 
-6.61278 -3.00026 3.37648e-13 
-6.30686 -3.00906 3.73564e-13 
-5.9995 -3.00377 4.3295e-13 
-5.69289 -2.99441 5.08437e-13 
-5.3908 -2.9853 6.14467e-13 
-5.08846 -2.97006 7.82403e-13 
-4.78986 -3.03525 9.56697e-13 
-4.49192 -2.99118 1.2796e-12 
-4.19874 -3.00233 1.53534e-12 
-3.90296 -3.06191 1.93697e-12 
-3.60036 -3.05031 2.6239e-12 
-3.29865 -3.05016 3.32635e-12 
-2.97766 -3.03129 4.06915e-12 
-2.67988 -2.97187 4.15544e-12 
-2.37473 -2.97704 3.89219e-12 
-2.08179 -3.05016 5.38817e-12 
-1.77122 -3.01913 4.01523e-12 
-1.44404 -3.02156 1.14546e-12 
-1.15341 -2.93678 -2.2282e-12 
-0.826414 -2.88735 2.97871e-11 
-0.564327 -2.67901 -8.43649e-12 
-0.241354 -2.83856 2.10938e-11 
0.0688042 -2.45802 -8.19964e-12 
0.202406 -2.72859 2.92823e-11 
0.499263 -2.73292 -3.34028e-12 
0.811664 -2.81035 2.94832e-12 
1.13999 -2.88897 7.91108e-13 
1.45368 -2.97015 -4.61919e-12 
1.74357 -3.00152 -4.17811e-12 
2.06528 -3.02453 -4.94719e-12 
2.3609 -3.10567 -5.0553e-12 
2.66104 -3.04424 -5.11104e-12 
2.95777 -3.06561 -3.96246e-12 
3.26472 -3.01907 -3.41164e-12 
3.57512 -3.0167 -2.53388e-12 
3.87835 -3.02658 -1.95956e-12 
4.17568 -3.00469 -1.58743e-12 
4.47646 -2.98799 -1.24569e-12 
4.7772 -3.00307 -9.58339e-13 
5.07483 -3.00021 -7.85304e-13 
5.37554 -3.01361 -6.18263e-13 
5.67962 -2.98654 -5.0002e-13 
5.98548 -2.98958 -4.15719e-13 
6.29769 -2.96781 -3.51975e-13 
6.59526 -2.99773 -3.09475e-13 
6.91574 -2.97231 -2.58729e-13 
7.23173 -2.99216 -1.73108e-13 
7.53109 -2.9861 -1.29949e-13 
7.83536 -2.99152 -8.67276e-14 
8.13221 -2.96945 -4.22278e-14 
8.44325 -2.97575 3.96897e-14 
8.74553 -2.96447 1.69044e-13 
9.05112 -3.04967 3.25762e-13 
9.36458 -3.00392 5.80374e-13 
9.66145 -2.9394 8.10798e-13 
9.98135 -3.02701 1.00895e-12 
10.3135 -2.97066 1.23268e-12 
10.6454 -3.06198 7.47389e-13 
10.9777 -2.98642 4.56845e-13 
11.3313 -2.92796 1.16511e-12 
11.665 -3.05377 3.1629e-13 
12 -2.95953 -3.27192e-13 
-12 -2.67227 4.10188e-13 
-11.6493 -2.72657 -2.52345e-13 
-11.3135 -2.62769 -4.81906e-13 
-10.9743 -2.65055 3.63502e-13 
-10.6338 -2.63573 -1.3616e-13 
-10.2998 -2.66794 -7.20712e-13 
-9.96992 -2.65487 -6.53806e-13 
-9.64261 -2.65686 -4.30237e-13 
-9.31674 -2.66653 -3.26045e-13 
-9.00183 -2.637 -1.99204e-13 
-8.68859 -2.63616 -8.24707e-14 
-8.38015 -2.66341 -2.67652e-14 
-8.07307 -2.65523 -1.22754e-14 
-7.76574 -2.65364 1.97436e-14 
-7.4517 -2.63496 1.06549e-14 
-7.14511 -2.65981 6.44334e-14 
-6.84196 -2.68274 1.43607e-13 
-6.53153 -2.6727 1.5793e-13 
-6.22715 -2.67856 1.77037e-13 
-5.9214 -2.6718 2.01087e-13 
[...]
POINT_DATA 1978 
VECTORS vectors float
-0.000111074 0.00175907 0.999998 
0.000686175 -0.0482019 0.998837 
0.000258304 -0.0644152 0.997923 
0.000294588 -0.0569789 0.998375 
0.000276012 -0.0414088 0.999142 
0.000318302 -0.0253763 0.999678 
0.000289019 -0.0145772 0.999894 
0.00032251 -0.00746245 0.999972 
0.000323471 -0.00262064 0.999997 
0.000320432 0.000263021 1 
0.000334621 0.00178772 0.999998 
0.000357808 0.00240698 0.999997 
0.000362712 0.0026173 0.999997 
0.000322953 0.00309779 0.999995 
0.000368105 0.00390521 0.999992 
0.000372087 0.00498387 0.999988 
0.000349926 0.00616243 0.999981 
0.000356 0.0074938 0.999972 
0.000355648 0.00913644 0.999958 
0.000356944 0.0112127 0.999937 
0.00034655 0.0138248 0.999904 
0.000348183 0.0169669 0.999856 
0.000340018 0.020557 0.999789 
0.000344202 0.0245798 0.999698 
0.00036739 0.0295966 0.999562 
0.000308829 0.0349176 0.99939 
0.000347677 0.0421238 0.999112 
0.000364018 0.0538314 0.99855 
0.000303252 0.0693709 0.997591 
0.000332109 0.0905964 0.995888 
0.00030153 0.119992 0.992775 
0.000241147 0.158018 0.987436 
0.000247432 0.209273 0.977857 
0.000222647 0.284585 0.958651 
0.000156342 0.377061 0.926188 
0.000110006 0.498389 0.866954 
4.0234e-05 0.644564 0.76455 
7.0481e-06 0.801804 0.597587 
-2.81537e-05 0.936168 0.351554 
2.57001e-05 0.998741 -0.0501635 
5.779e-06 0.932991 -0.3599 
1.64405e-05 0.804253 -0.594287 
-4.7341e-05 0.664605 -0.747195 
-9.10959e-05 0.521277 -0.853388 
-0.000136804 0.403058 -0.915175 
-0.000204867 0.301041 -0.953611 
-0.000223119 0.224403 -0.974496 
-0.000286169 0.166198 -0.986092 
-0.000299004 0.12025 -0.992744 
-0.000307914 0.0896433 -0.995974 
-0.000341676 0.0667001 -0.997773 
-0.000309176 0.0523093 -0.998631 
-0.00034996 0.0420524 -0.999115 
-0.000358897 0.0346152 -0.999401 
-0.000334551 0.0291123 -0.999576 
-0.000341697 0.0244771 -0.9997 
-0.000354612 0.0203403 -0.999793 
-0.000349934 0.0168653 -0.999858 
-0.000354443 0.0138369 -0.999904 
-0.000349087 0.0114 -0.999935 
-0.00035619 0.00930728 -0.999957 
-0.000367112 0.00775601 -0.99997 
-0.000361077 0.00624815 -0.99998 
-0.0003451 0.00491701 -0.999988 
-0.000374578 0.00403451 -0.999992 
-0.000365351 0.0032987 -0.999994 
-0.000360948 0.00261797 -0.999997 
-0.000361098 0.00234009 -0.999997 
-0.000332766 0.00172752 -0.999998 
-0.000328926 0.000271215 -1 
-0.000366602 -0.00270818 -0.999996 
-0.0002857 -0.00717733 -0.999974 
-0.00029229 -0.0135831 -0.999908 
-0.000293748 -0.0252013 -0.999682 
-0.00022688 -0.0389288 -0.999242 
-0.00029761 -0.0591371 -0.99825 
-0.000206164 -0.0643378 -0.997928 
-0.000712795 -0.0487252 -0.998812 
0.000112014 0.00176713 -0.999998 
-0.00054675 -0.000398084 1 
0.015578 -0.0404059 0.999062 
0.0206083 -0.0508186 0.998495 
0.0225577 -0.053569 0.998309 
0.0246783 -0.0438729 0.998732 
0.0253777 -0.0307327 0.999205 
0.0273186 -0.0188465 0.999449 
0.0284459 -0.0106022 0.999539 
0.0290261 -0.00489187 0.999567 
0.0300705 -0.00139403 0.999547 
0.0305975 0.000603185 0.999532 
0.0311302 0.00173274 0.999514 
0.031639 0.00242516 0.999496 
0.0323029 0.00311021 0.999473 
0.0326515 0.00393013 0.999459 
0.0317221 0.00482898 0.999485 
0.0321999 0.00589464 0.999464 
0.0318166 0.00719045 0.999468 
0.0315944 0.00891147 0.999461 
0.0315741 0.0109817 0.999441 
0.0315732 0.0134564 0.999411 
0.0313789 0.016376 0.999373 
0.0317823 0.0196434 0.999302 
0.0303242 0.0241337 0.999249 
0.0313505 0.0285382 0.999101 
0.0306502 0.0344718 0.998936 
0.0288661 0.0431072 0.998653 
0.0282333 0.0547311 0.998102 
0.0266515 0.0712983 0.997099 
0.0242473 0.0941752 0.99526 
0.0221625 0.12449 0.991973 
0.0191787 0.16702 0.985767 
0.0154836 0.227428 0.973672 
0.0118274 0.305848 0.952007 
0.00811572 0.406856 0.913456 
0.00465484 0.533513 0.845779 
0.00166935 0.680788 0.732478 
-0.000486641 0.831863 0.554981 
-0.000725381 0.965918 0.258847 
-0.00164479 0.999704 -0.0242837 
-0.000673957 0.950941 -0.309371 
-0.00189514 0.828197 -0.560433 
-0.0039639 0.67782 -0.735217 
-0.00628013 0.531636 -0.84695 
-0.00953667 0.397161 -0.917699 
-0.0131543 0.295171 -0.955354 
-0.0169209 0.216354 -0.976168 
-0.0197613 0.156237 -0.987522 
-0.023063 0.11426 -0.993183 
-0.0248385 0.0845516 -0.996109 
-0.0275442 0.064368 -0.997546 
-0.0288492 0.0503277 -0.998316 
-0.0295526 0.0400068 -0.998762 
-0.0305946 0.0326991 -0.998997 
-0.0312101 0.0271275 -0.999145 
-0.0309863 0.0224874 -0.999267 
-0.0313702 0.0186734 -0.999333 
-0.0313134 0.0154679 -0.99939 
-0.0320688 0.0127777 -0.999404 
-0.0320939 0.0105262 -0.999429 
-0.0325053 0.00863983 -0.999434 
-0.0320991 0.0071092 -0.999459 
-0.0332069 0.00583166 -0.999431 
-0.0323632 0.00471663 -0.999465 
-0.0327098 0.00386893 -0.999457 
-0.0325873 0.00308462 -0.999464 
-0.0326497 0.00231991 -0.999464 
-0.0321822 0.00153563 -0.999481 
-0.032504 0.00028331 -0.999472 
-0.0298676 -0.00158856 -0.999553 
-0.0293847 -0.00511868 -0.999555 
-0.029575 -0.0104688 -0.999508 
-0.026598 -0.0184172 -0.999477 
-0.0262433 -0.0297281 -0.999213 
-0.0233647 -0.0444677 -0.998738 
-0.0228499 -0.0531117 -0.998327 
-0.0205825 -0.0505856 -0.998508 
-0.0157579 -0.0403033 -0.999063 
0.000465369 -0.000369532 -1 
-0.00149353 0.000188768 0.999999 
0.0178747 -0.0389789 0.99908 
0.0262464 -0.0480236 0.998501 
0.0301085 -0.0509174 0.998249 
0.0333444 -0.0429172 0.998522 
0.0347697 -0.0310342 0.998913 
0.0374258 -0.0202132 0.999095 
0.0394711 -0.0118857 0.99915 
0.0398412 -0.00608435 0.999187 
0.0418457 -0.00258185 0.999121 
0.0435649 -0.00054691 0.99905 
0.0435633 0.000926322 0.99905 
0.0440449 0.00206448 0.999027 
0.0446742 0.00303011 0.998997 
0.0456603 0.00391051 0.998949 
0.0451659 0.0047387 0.998968 
0.0442825 0.00561628 0.999003 
0.0442687 0.00673404 0.998997 
0.043975 0.00822277 0.998999 
0.0438697 0.0100518 0.998987 
0.0439044 0.0122188 0.998961 
0.0437976 0.0147766 0.998931 
0.0440743 0.0177031 0.998871 
0.0423601 0.0218095 0.998864 
0.0435325 0.02612 0.99871 
0.0427311 0.0321011 0.998571 
0.0401398 0.0402698 0.998382 
0.0386183 0.0511167 0.997946 
0.0365199 0.0677031 0.997037 
0.0333245 0.0902999 0.995357 
0.0299853 0.121959 0.992082 
0.0252126 0.165861 0.985827 
0.019664 0.22648 0.973817 
0.0146166 0.308775 0.951023 
0.00946617 0.416532 0.909072 
0.00466815 0.552113 0.833756 
0.000812414 0.70328 0.710912 
-0.00184583 0.852565 0.522618 
-0.0028156 0.957371 0.288846 
-0.0035551 0.99994 -0.0104055 
-0.00379413 0.953175 -0.302396 
-0.0045389 0.837792 -0.545971 
-0.00624426 0.693485 -0.720444 
-0.00849229 0.541021 -0.840966 
-0.0117521 0.410777 -0.91166 
-0.0164374 0.302506 -0.953006 
-0.0209668 0.224689 -0.974205 
-0.0251071 0.164785 -0.98601 
-0.029429 0.120733 -0.992249 
-0.0330419 0.0895772 -0.995432 
-0.0371624 0.068298 -0.996973 
-0.0395961 0.0525219 -0.997834 
-0.0408028 0.0414788 -0.998306 
-0.0423026 0.0330926 -0.998557 
-0.0433124 0.0267116 -0.998704 
-0.043052 0.0220208 -0.99883 
-0.0433643 0.018163 -0.998894 
-0.0434593 0.0151244 -0.998941 
-0.0441922 0.0124492 -0.998945 
-0.0448385 0.0102912 -0.998941 
-0.0450902 0.0085203 -0.998947 
-0.0449965 0.00708364 -0.998962 
-0.0462087 0.00588098 -0.998914 
-0.0454055 0.00498616 -0.998956 
-0.0454592 0.00411853 -0.998958 
-0.0453598 0.00319475 -0.998966 
-0.0453647 0.00216071 -0.998968 
-0.0450685 0.000941879 -0.998983 
-0.0442254 -0.000693269 -0.999021 
-0.0410594 -0.00284185 -0.999153 
-0.041028 -0.0066151 -0.999136 
-0.0406353 -0.0124319 -0.999097 
-0.0363928 -0.0197418 -0.999143 
-0.0360554 -0.0302579 -0.998892 
-0.0312804 -0.0419668 -0.998629 
-0.0299155 -0.0506682 -0.998267 
-0.0262965 -0.047194 -0.99854 
-0.0174594 -0.0390375 -0.999085 
0.00123351 0.000274198 -0.999999 
-0.00139492 0.000502209 0.999999 
0.0191693 -0.0362029 0.999161 
0.0281251 -0.047559 0.998472 
0.0336659 -0.0519833 0.99808 
0.0376725 -0.0442902 0.998308 
0.0402914 -0.0315744 0.998689 
0.0429415 -0.0206783 0.998864 
0.0453259 -0.012499 0.998894 
0.0471799 -0.00708125 0.998861 
0.0484073 -0.00368537 0.998821 
0.0493325 -0.00133558 0.998782 
0.0499798 0.000514723 0.99875 
0.0503719 0.00196126 0.998729 
0.0507142 0.00315604 0.998708 
0.0508407 0.00417224 0.998698 
0.0505686 0.00494927 0.998708 
0.0500975 0.00568526 0.998728 
0.0501654 0.00664769 0.998719 
0.049989 0.00791659 0.998718 
0.0497502 0.00953156 0.998716 
0.049441 0.0114607 0.998711 
0.0491715 0.0137551 0.998696 
0.0491237 0.0166479 0.998654 
0.0485933 0.0205019 0.998608 
0.0485916 0.025332 0.998497 
0.0477573 0.0316479 0.998357 
0.0461646 0.039876 0.998138 
0.0445354 0.0516909 0.99767 
0.0414436 0.0675844 0.996852 
0.0371599 0.0920627 0.99506 
0.0324433 0.125901 0.991512 
0.0269501 0.173045 0.984545 
0.0217252 0.235175 0.97171 
0.0156465 0.321695 0.946714 
0.00961698 0.43584 0.899973 
0.00466668 0.565763 0.824555 
0.000203802 0.720515 0.693439 
-0.00241417 0.858846 0.512227 
-0.00253251 0.968699 0.248225 
-0.00492446 0.999165 -0.0405644 
-0.00310811 0.971729 -0.236077 
-0.00430038 0.863099 -0.505016 
-0.00548994 0.714558 -0.699554 
-0.00861356 0.562249 -0.826923 
-0.0127065 0.425338 -0.904946 
-0.0176433 0.317425 -0.948119 
-0.0237215 0.231477 -0.972551 
-0.0291331 0.170625 -0.984905 
-0.0338865 0.126393 -0.991401 
-0.0375945 0.0934473 -0.994914 
-0.0413263 0.0703091 -0.996669 
-0.043969 0.0532319 -0.997614 
-0.0458025 0.0408964 -0.998113 
-0.0474484 0.0323348 -0.99835 
-0.048512 0.0258619 -0.998488 
-0.0488332 0.0208747 -0.998589 
-0.0490854 0.0170137 -0.99865 
-0.049108 0.0140751 -0.998694 
-0.049688 0.0117519 -0.998696 
-0.0497746 0.00979507 -0.998712 
-0.0497698 0.00809495 -0.998728 
-0.0498991 0.00683172 -0.998731 
-0.0504532 0.00583854 -0.998709 
-0.0503266 0.00499328 -0.99872 
-0.0508013 0.00417408 -0.9987 
-0.0510408 0.00314978 -0.998692 
-0.0509576 0.00191135 -0.998699 
-0.0506062 0.00035324 -0.998719 
-0.0498066 -0.00158789 -0.998758 
-0.0485976 -0.00396486 -0.998811 
-0.0474164 -0.00801467 -0.998843 
-0.0455924 -0.0137959 -0.998865 
-0.0431484 -0.0214526 -0.998838 
-0.0407184 -0.0328716 -0.99863 
-0.0372576 -0.0443595 -0.998321 
-0.0337029 -0.0520349 -0.998076 
-0.0274467 -0.0463852 -0.998546 
-0.018621 -0.0360248 -0.999177 
0.00110528 0.000386321 -0.999999 
-0.000466143 0.000481754 1 
0.0175474 -0.0364202 0.999182 
0.0241437 -0.0486635 0.998523 
0.0293678 -0.054497 0.998082 
0.0327179 -0.0473564 0.998342 
0.0359933 -0.0343933 0.99876 
0.0385629 -0.023208 0.998987 
0.0404455 -0.0145762 0.999075 
0.0420676 -0.00847349 0.999079 
0.0426202 -0.00461211 0.999081 
0.043184 -0.00178631 0.999066 
0.0442919 0.000424193 0.999019 
0.0442979 0.00219954 0.999016 
0.0443586 0.0035616 0.999009 
0.0435778 0.00466952 0.999039 
0.0442015 0.00537067 0.999008 
0.0446652 0.00599879 0.998984 
0.0440417 0.00685077 0.999006 
0.0439433 0.00802353 0.999002 
0.0437104 0.00952103 0.998999 
0.0432212 0.0112939 0.999002 
0.0428189 0.0135167 0.998991 
0.0426214 0.0166975 0.998952 
0.0434477 0.0207058 0.998841 
0.0418053 0.0261747 0.998783 
0.0411515 0.0333599 0.998596 
0.0409004 0.0425026 0.998259 
0.0384342 0.0552917 0.99773 
0.0358936 0.0739493 0.996616 
0.0308894 0.0987673 0.994631 
0.0251418 0.138813 0.989999 
0.0201321 0.189159 0.98174 
0.0171704 0.249193 0.968302 
0.0113057 0.348566 0.937216 
0.00560275 0.463818 0.885913 
0.000874024 0.611142 0.79152 
-0.00213302 0.761776 0.647837 
-0.00431594 0.880575 0.473886 
-0.00442723 0.953304 0.301981 
-0.00350423 0.999083 0.0426804 
-0.00221909 0.950795 -0.309812 
-0.002389 0.875543 -0.483134 
-0.00242115 0.728812 -0.68471 
-0.00569969 0.563437 -0.826139 
-0.00958991 0.421434 -0.906808 
-0.0142305 0.313127 -0.949605 
-0.0196955 0.23512 -0.971767 
-0.0259211 0.170133 -0.98508 
-0.0287244 0.125716 -0.99165 
-0.0332219 0.0925807 -0.995151 
-0.0355957 0.0679356 -0.997055 
-0.0385755 0.0507942 -0.997964 
-0.0404199 0.0391957 -0.998414 
-0.0414132 0.0304995 -0.998676 
-0.0420014 0.0239278 -0.998831 
-0.0429485 0.0190973 -0.998895 
-0.0432114 0.0153935 -0.998947 
-0.0435763 0.0127373 -0.998969 
-0.0432981 0.0106363 -0.999006 
-0.043579 0.00896396 -0.99901 
-0.0427666 0.00759767 -0.999056 
-0.0442219 0.00654681 -0.999 
-0.0439011 0.00575408 -0.999019 
-0.0440141 0.00509161 -0.999018 
-0.0443766 0.00425266 -0.999006 
-0.0445487 0.00313774 -0.999002 
-0.0443579 0.00165896 -0.999014 
-0.0442685 -0.000225007 -0.99902 
-0.0435266 -0.0025654 -0.999049 
-0.0449415 -0.00513671 -0.998976 
-0.0422744 -0.00926379 -0.999063 
-0.0396738 -0.0157367 -0.999089 
-0.0396359 -0.0239041 -0.998928 
-0.0359682 -0.0355873 -0.998719 
-0.0348572 -0.0470269 -0.998285 
-0.0298032 -0.0545283 -0.998067 
-0.0233619 -0.048071 -0.998571 
-0.0170723 -0.0360771 -0.999203 
0.000741404 0.000339328 -1 
-0.000140324 0.000602706 1 
0.0116926 -0.0350811 0.999316 
0.0166832 -0.0467543 0.998767 
0.0207756 -0.0567075 0.998175 
0.0236188 -0.0532221 0.998303 
0.0268848 -0.040972 0.998799 
0.0293217 -0.029126 0.999146 
0.0308609 -0.0192486 0.999338 
0.0324419 -0.0120069 0.999401 
0.0330333 -0.00716808 0.999429 
0.0333617 -0.00350624 0.999437 
0.0339847 -0.00059593 0.999422 
0.034161 0.00162012 0.999415 
0.0339717 0.00336178 0.999417 
0.0337898 0.00458772 0.999418 
0.0332726 0.00543333 0.999432 
0.0338786 0.00592844 0.999408 
0.0338685 0.00650659 0.999405 
0.0333498 0.00739425 0.999416 
0.0332937 0.00852975 0.999409 
0.0330903 0.00990648 0.999403 
0.0326789 0.0116621 0.999398 
0.0326977 0.0142441 0.999364 
0.0322141 0.0178945 0.999321 
0.0328567 0.0223806 0.999209 
0.031422 0.0289548 0.999087 
0.0307941 0.0373708 0.998827 
0.0299436 0.0476803 0.998414 
0.0283377 0.0635872 0.997574 
0.0242085 0.083816 0.996187 
0.0204483 0.116139 0.993022 
0.0142269 0.16379 0.986393 
0.0105864 0.229309 0.973296 
0.00858313 0.302172 0.953215 
0.00325679 0.409767 0.912184 
-0.000489351 0.567155 0.823611 
-0.00361753 0.661892 0.749591 
-0.00453965 0.814149 0.580639 
-0.00299827 0.996573 0.0826695 
-0.00161775 0.999765 -0.0216375 
-0.00602777 0.975581 -0.219557 
-0.00530058 0.872948 -0.487785 
2.80387e-05 0.786424 -0.617688 
-0.000504715 0.624682 -0.780879 
-0.0036455 0.461708 -0.887024 
-0.00705204 0.338816 -0.940826 
-0.0111845 0.24557 -0.969314 
-0.0174911 0.183038 -0.98295 
-0.0189445 0.138886 -0.990127 
-0.0232029 0.101775 -0.994537 
-0.026188 0.0753186 -0.996816 
-0.0285545 0.0545773 -0.998101 
-0.0300872 0.0413902 -0.99869 
-0.0312902 0.0319661 -0.998999 
-0.0318128 0.0247131 -0.999188 
-0.0324942 0.0192198 -0.999287 
-0.0328154 0.0152696 -0.999345 
-0.0331051 0.0124769 -0.999374 
-0.0330814 0.0105121 -0.999397 
-0.0332185 0.00896319 -0.999408 
-0.0324908 0.00775507 -0.999442 
-0.0336813 0.00675507 -0.99941 
-0.034037 0.00607594 -0.999402 
-0.0332005 0.00550446 -0.999434 
-0.0338715 0.00476343 -0.999415 
-0.0338327 0.00360812 -0.999421 
-0.0338974 0.0020182 -0.999423 
-0.0339594 -0.000118829 -0.999423 
-0.0330752 -0.00278513 -0.999449 
-0.0349135 -0.006079 -0.999372 
-0.0330114 -0.0109458 -0.999395 
-0.0303001 -0.0178412 -0.999382 
-0.0309566 -0.0264628 -0.99917 
-0.0273757 -0.0388172 -0.998871 
-0.0271649 -0.0502215 -0.998369 
-0.0222019 -0.05733 -0.998108 
-0.0167874 -0.050898 -0.998563 
-0.0130568 -0.0374463 -0.999213 
0.000520653 0.000344654 -1 
-0.00031892 0.000459318 1 
0.00889807 -0.0390285 0.999198 
0.0127295 -0.0530475 0.998511 
0.0148904 -0.0598839 0.998094 
0.0176934 -0.0519713 0.998492 
0.0198651 -0.0391948 0.999034 
0.02182 -0.0274191 0.999386 
0.0231604 -0.0179416 0.999571 
0.0239079 -0.0114833 0.999648 
0.0247255 -0.00656798 0.999673 
0.0250681 -0.00267102 0.999682 
0.0248216 0.000307223 0.999692 
0.0249677 0.00263855 0.999685 
0.0244961 0.00432848 0.999691 
0.0245945 0.0053837 0.999683 
0.0237542 0.00599123 0.9997 
0.0238403 0.00637166 0.999695 
0.0240564 0.00692858 0.999687 
0.0235172 0.00777717 0.999693 
0.0235539 0.00882676 0.999684 
0.023433 0.0101604 0.999674 
0.0234581 0.0121866 0.999651 
0.0233225 0.0152712 0.999611 
0.0225756 0.0195623 0.999554 
0.0234883 0.0250445 0.99941 
0.0222111 0.0331833 0.999202 
0.0207854 0.0430459 0.998857 
0.0207813 0.0568339 0.998167 
0.0171714 0.0749978 0.997036 
0.0146383 0.105116 0.994352 
0.0099728 0.148372 0.988881 
0.00558901 0.228815 0.973454 
0.00250907 0.326129 0.945322 
-0.00110673 0.473001 0.881061 
-0.00301251 0.625704 0.780055 
-0.00079323 0.793759 0.608232 
0.00238225 0.897656 0.440691 
-0.000872429 0.941852 0.336027 
-0.00324245 0.943449 0.331503 
0.00035056 0.998291 0.0584402 
0.00568809 0.999842 -0.0168348 
0.000376712 0.960353 -0.278788 
-0.00251077 0.864825 -0.502067 
-0.000519283 0.666829 -0.74521 
0.000835411 0.528881 -0.848696 
-0.00116021 0.387903 -0.921699 
-0.00469912 0.27444 -0.961593 
-0.00956988 0.187557 -0.982207 
-0.0120858 0.13325 -0.991009 
-0.0157287 0.0972308 -0.995138 
-0.0190974 0.0700878 -0.997358 
-0.0200963 0.0520095 -0.998444 
-0.0213336 0.0395915 -0.998988 
-0.0224388 0.0303969 -0.999286 
-0.022925 0.0233068 -0.999465 
-0.0231336 0.0180669 -0.999569 
-0.0233043 0.0142231 -0.999627 
-0.0234054 0.0115941 -0.999659 
-0.0238086 0.00977762 -0.999669 
-0.0233862 0.00854049 -0.99969 
-0.023792 0.00748501 -0.999689 
-0.0239047 0.00675154 -0.999691 
-0.0246267 0.00619547 -0.999678 
-0.0236495 0.00577861 -0.999704 
-0.0244971 0.00501078 -0.999687 
-0.0242951 0.00378473 -0.999698 
-0.0247064 0.00187541 -0.999693 
-0.0247143 -0.00058813 -0.999694 
-0.0238744 -0.0036616 -0.999708 
-0.0261004 -0.00700632 -0.999635 
-0.0243683 -0.0121157 -0.99963 
-0.0223859 -0.0196914 -0.999555 
-0.0226255 -0.0291841 -0.999318 
-0.0195426 -0.0420814 -0.998923 
-0.0192742 -0.0537445 -0.998369 
-0.0150105 -0.0601171 -0.998078 
-0.0111336 -0.0527038 -0.998548 
-0.00904395 -0.0386774 -0.999211 
0.000338232 0.000265214 -1 
-0.000284045 0.000288669 1 
0.00572679 -0.0390187 0.999222 
0.0082631 -0.0539379 0.99851 
0.00970403 -0.0623045 0.99801 
0.0117966 -0.0563557 0.998341 
0.0133712 -0.0435481 0.998962 
0.0149653 -0.0312469 0.9994 
0.0164358 -0.0213079 0.999638 
0.0168883 -0.0138292 0.999762 
0.0177054 -0.00823683 0.999809 
0.0184137 -0.00388854 0.999823 
0.0178485 -0.000264477 0.999841 
0.017825 0.00254559 0.999838 
0.0174104 0.0045094 0.999838 
0.0173317 0.00571073 0.999833 
0.016836 0.00630327 0.999838 
0.0161574 0.00663435 0.999847 
0.0163734 0.00699643 0.999841 
0.0161662 0.007618 0.99984 
0.0160082 0.00845107 0.999836 
0.0160649 0.00951612 0.999826 
0.0163103 0.0112621 0.999804 
0.016272 0.0141703 0.999767 
0.0156254 0.0183997 0.999709 
0.0158445 0.0241566 0.999583 
0.0160166 0.031291 0.999382 
0.0139666 0.0412926 0.999049 
0.0139244 0.0546192 0.99841 
0.011128 0.0720875 0.997336 
0.00978778 0.0986715 0.995072 
0.0064189 0.141363 0.989937 
0.00351849 0.211469 0.977378 
0.000515744 0.320124 0.947376 
-0.00117273 0.436209 0.899845 
-0.000527339 0.701718 0.712455 
0.00581833 0.841564 0.540126 
0.00491016 0.961197 0.275821 
0.0117034 0.989373 0.144927 
0.0128301 0.995741 0.0912941 
0.00916722 0.999887 -0.0119423 
0.00684323 0.998292 -0.0580185 
0.00585651 0.996312 -0.0856057 
-0.00112185 0.943084 -0.332551 
-0.00140752 0.665441 -0.746449 
0.00167016 0.534321 -0.84528 
0.00113638 0.470561 -0.882366 
-0.000377255 0.329307 -0.944223 
-0.00402569 0.217391 -0.976076 
-0.00646253 0.152049 -0.988352 
-0.00895832 0.104847 -0.994448 
-0.0120305 0.0764155 -0.997003 
-0.0130876 0.056893 -0.998294 
-0.0141811 0.0426688 -0.998989 
-0.0151662 0.0327204 -0.999349 
-0.0158125 0.0252558 -0.999556 
-0.0159057 0.0194022 -0.999685 
-0.0159375 0.0149773 -0.999761 
-0.0157914 0.0118919 -0.999805 
-0.0164573 0.00999317 -0.999815 
-0.0158436 0.00869868 -0.999837 
-0.0167821 0.00784139 -0.999828 
-0.0161705 0.00712977 -0.999844 
-0.0169279 0.00665725 -0.999835 
-0.016631 0.00633695 -0.999842 
-0.0170531 0.00576548 -0.999838 
-0.0171374 0.00465811 -0.999842 
-0.0176029 0.00261586 -0.999842 
-0.0173309 -0.000186713 -0.99985 
-0.0172495 -0.00386147 -0.999844 
-0.0184839 -0.00830063 -0.999795 
-0.0175282 -0.0143241 -0.999744 
-0.0154801 -0.0221293 -0.999635 
-0.016077 -0.0310079 -0.99939 
-0.0133683 -0.0431689 -0.998978 
-0.0131879 -0.0553519 -0.99838 
-0.0100956 -0.0626829 -0.997982 
-0.0074645 -0.0547528 -0.998472 
-0.00599249 -0.0393545 -0.999207 
0.00029017 0.000335086 -1 
-0.000180543 0.000265513 1 
0.00371923 -0.0399161 0.999196 