# vtk DataFile Version 3.0 
Exported using Morpho https://github.com/Morpho-lang/morpho 
ASCII 
DATASET UNSTRUCTURED_GRID 

POINTS 1978 float 
-12 -4 -3.74613e-14 
-11.5961 -4 -5.70997e-14 
-11.2979 -4 6.86667e-14 
-10.9561 -4 6.67337e-14 
-10.6402 -4 2.67641e-14 
-10.2941 -4 2.67331e-14 
-9.97402 -4 2.07417e-14 
-9.6599 -4 8.27856e-16 
-9.32272 -4 -4.4094e-15 
-8.99987 -4 7.13276e-15 
-8.67891 -4 -1.39071e-15 
-8.3605 -4 -3.51742e-15 
-8.05122 -4 5.79176e-16 
-7.75998 -4 6.84817e-16 
-7.48675 -4 -1.48724e-15 
-7.18986 -4 -3.81597e-15 
-6.89473 -4 -7.71982e-15 
-6.59745 -4 -3.38301e-15 
-6.29703 -4 -9.10379e-15 
-5.98805 -4 -1.21861e-14 
-5.68075 -4 -1.23542e-14 
-5.37656 -4 -2.02009e-14 
-5.07219 -4 -1.78906e-14 
-4.7777 -4 -2.86288e-14 
-4.44372 -4 -3.3379e-14 
-4.15165 -4 -3.02323e-14 
-3.85374 -4 -4.84565e-14 
-3.52698 -4 -4.4693e-14 
-3.23348 -4 -5.35687e-14 
-2.94177 -4 -6.2247e-14 
-2.65579 -4 -3.73972e-14 
-2.39114 -4 -3.01794e-14 
-2.12368 -4 -4.43803e-14 
-1.83266 -4 -3.20543e-14 
-1.55122 -4 -4.39847e-14 
-1.25399 -4 -5.17069e-14 
-0.950244 -4 -1.13362e-13 
-0.647183 -4 -2.82968e-13 
-0.344986 -4 -5.05331e-13 
0.0497652 -4 6.21586e-13 
0.355651 -4 3.06234e-13 
0.649809 -4 2.08243e-13 
0.921006 -4 1.09696e-13 
1.20807 -4 7.33222e-14 
1.48308 -4 -8.784e-15 
1.76269 -4 3.44937e-14 
2.04636 -4 4.00658e-14 
2.34034 -4 7.41109e-14 
2.65805 -4 7.69069e-14 
2.96058 -4 6.76341e-14 
3.28278 -4 5.0287e-14 
3.57262 -4 4.38248e-14 
3.8698 -4 4.17289e-14 
4.18393 -4 3.7681e-14 
4.48606 -4 2.70009e-14 
4.78343 -4 2.68143e-14 
5.09773 -4 2.19066e-14 
5.405 -4 1.67052e-14 
5.71889 -4 1.30777e-14 
6.01193 -4 9.51892e-15 
6.3059 -4 6.48484e-15 
6.59751 -4 8.74468e-15 
6.89697 -4 5.91024e-15 
7.17169 -4 2.32858e-15 
7.47298 -4 1.24271e-15 
7.76815 -4 2.83271e-15 
8.06478 -4 1.77358e-16 
8.35725 -4 4.34085e-15 
8.6541 -4 -4.83198e-16 
8.93291 -4 -6.03861e-15 
9.27995 -4 -1.51663e-15 
9.61055 -4 2.88701e-15 
9.90194 -4 -2.57673e-14 
10.2726 -4 -2.80176e-14 
10.5895 -4 -3.18842e-14 
10.9825 -4 -7.48164e-14 
11.2974 -4 -5.90326e-14 
11.589 -4 5.30863e-14 
12 -4 4.08911e-14 
-12 -3.6107 1.15506e-13 
-11.7079 -3.71603 1.32586e-13 
-11.3563 -3.62002 1.23742e-13 
-11.0452 -3.66989 1.66713e-13 
-10.7113 -3.64409 1.04624e-13 
-10.3935 -3.67742 1.23976e-13 
-10.0574 -3.66174 8.73704e-14 
-9.73415 -3.66256 5.47961e-14 
-9.40311 -3.68211 3.30752e-14 
-9.06541 -3.66477 1.31303e-14 
-8.74687 -3.66396 4.18702e-15 
-8.4266 -3.66846 -3.39519e-15 
-8.10972 -3.66625 -8.81206e-15 
-7.7993 -3.65562 -1.22367e-14 
-7.5028 -3.64094 -1.20913e-14 
-7.21367 -3.66693 -1.83926e-14 
-6.90547 -3.66261 -2.4598e-14 
-6.59904 -3.65749 -2.79223e-14 
-6.28574 -3.66896 -3.33347e-14 
-5.97358 -3.66625 -4.19802e-14 
-5.66516 -3.66247 -4.86456e-14 
-5.35934 -3.66126 -5.66891e-14 
-5.0639 -3.65193 -6.40956e-14 
-4.73795 -3.69409 -1.07555e-13 
-4.44213 -3.65802 -9.96292e-14 
-4.14353 -3.66835 -1.22952e-13 
-3.82328 -3.70002 -2.02027e-13 
-3.51956 -3.68046 -2.06278e-13 
-3.2214 -3.67818 -2.6931e-13 
-2.92516 -3.67185 -2.80986e-13 
-2.65062 -3.64785 -2.98632e-13 
-2.36967 -3.65481 -3.3537e-13 
-2.07523 -3.69025 -5.02163e-13 
-1.78659 -3.66582 -2.86405e-13 
-1.48514 -3.67461 -2.88324e-13 
-1.17455 -3.65707 -8.64648e-14 
-0.858646 -3.64661 -7.10878e-15 
-0.556184 -3.57977 2.87436e-13 
-0.207418 -3.6995 1.53444e-12 
0.059672 -3.51634 -8.17252e-14 
0.320273 -3.60984 -5.43311e-13 
0.622 -3.59261 -2.556e-15 
0.910883 -3.60134 2.37019e-14 
1.18784 -3.65583 2.06305e-13 
1.49368 -3.65895 2.42724e-13 
1.78329 -3.66233 3.72287e-13 
2.08809 -3.68279 4.98717e-13 
2.41382 -3.71377 5.04508e-13 
2.71819 -3.6859 3.7674e-13 
3.03266 -3.70071 3.37837e-13 
3.3333 -3.66558 2.14524e-13 
3.63054 -3.67208 1.91574e-13 
3.93662 -3.68278 1.69426e-13 
4.23728 -3.6668 1.19614e-13 
4.53251 -3.6577 9.24317e-14 
4.83998 -3.67326 9.05563e-14 
5.14793 -3.66635 6.80954e-14 
5.46123 -3.6724 6.09799e-14 
5.76257 -3.65194 4.21635e-14 
6.06197 -3.65682 3.79628e-14 
6.35786 -3.65243 3.16481e-14 
6.66308 -3.66678 2.8022e-14 
6.94927 -3.63744 1.83322e-14 
7.24923 -3.6675 2.05691e-14 
7.54964 -3.659 1.48283e-14 
7.85142 -3.65916 1.13206e-14 
8.149 -3.65165 7.69274e-15 
8.44268 -3.65343 -1.33714e-16 
8.73028 -3.6288 -4.69351e-15 
9.05254 -3.70001 -1.61198e-14 
9.3868 -3.67924 -3.4173e-14 
9.69321 -3.63158 -4.40231e-14 
10.0297 -3.70802 -1.0662e-13 
10.3603 -3.65486 -1.05244e-13 
10.725 -3.71822 -2.02401e-13 
11.0564 -3.64447 -1.30395e-13 
11.358 -3.61182 -1.17176e-13 
11.7118 -3.72339 -1.47108e-13 
12 -3.60387 -1.12687e-13 
-12 -3.30857 4.78229e-14 
-11.6305 -3.36568 -1.25937e-14 
-11.2851 -3.27289 2.79517e-14 
-10.9732 -3.32526 -6.28365e-16 
-10.6546 -3.29512 1.86537e-14 
-10.3345 -3.34388 2.70367e-14 
-10.0093 -3.32533 2.96365e-14 
-9.69557 -3.31649 3.00454e-14 
-9.3915 -3.35951 2.50292e-14 
-9.08214 -3.31992 2.07338e-14 
-8.77403 -3.32049 7.13958e-15 
-8.46731 -3.33354 -1.40605e-16 
-8.15664 -3.33215 5.88992e-17 
-7.84977 -3.32435 2.88033e-16 
-7.54631 -3.29958 -5.98276e-15 
-7.24667 -3.31768 -8.36797e-15 
-6.95307 -3.3361 -8.79033e-15 
-6.64378 -3.3265 -1.16955e-14 
-6.33407 -3.33824 -1.25813e-14 
-6.02367 -3.33553 -1.50082e-14 
-5.71355 -3.3285 -1.84675e-14 
-5.40631 -3.32433 -2.29839e-14 
-5.10537 -3.30617 -3.01492e-14 
-4.80593 -3.37173 -3.02027e-14 
-4.50455 -3.32868 -5.40064e-14 
-4.2036 -3.33491 -6.60931e-14 
-3.899 -3.38462 -7.22628e-14 
-3.59421 -3.37035 -9.93163e-14 
-3.28537 -3.36063 -1.20649e-13 
-2.97868 -3.35482 -1.56201e-13 
-2.67237 -3.30087 -2.41463e-13 
-2.38579 -3.32034 -2.21235e-13 
-2.08345 -3.36723 -1.75624e-13 
-1.77175 -3.34243 -1.80519e-13 
-1.45224 -3.34747 -1.33327e-13 
-1.11855 -3.31526 -1.41376e-13 
-0.810788 -3.26209 7.85262e-14 
-0.51756 -3.11315 5.89093e-14 
-0.273529 -3.31457 2.19997e-13 
0.00159279 -3.09614 1.09419e-12 
0.313473 -3.15937 -4.81225e-13 
0.589062 -3.18853 -7.36396e-13 
0.892697 -3.20523 -2.76314e-13 
1.18702 -3.26762 -1.41175e-13 
1.46821 -3.33669 7.72746e-14 
1.77889 -3.31832 7.30661e-14 
2.06632 -3.36439 1.76e-13 
2.37479 -3.41838 1.7811e-13 
2.6873 -3.37061 1.1975e-13 
2.99173 -3.38715 1.31892e-13 
3.2862 -3.33944 1.23084e-13 
3.58769 -3.34236 1.06039e-13 
3.88567 -3.35718 7.27295e-14 
4.18446 -3.33834 6.1164e-14 
4.48339 -3.31913 5.05825e-14 
4.78255 -3.33922 3.54543e-14 
5.08425 -3.33674 3.01714e-14 
5.39389 -3.34429 2.19662e-14 
5.70121 -3.31883 1.86036e-14 
6.01091 -3.31567 1.75872e-14 
6.30942 -3.30954 1.40538e-14 
6.61281 -3.33406 1.35936e-14 
6.91279 -3.29037 1.16902e-14 
7.21129 -3.32871 7.60018e-15 
7.51274 -3.32269 4.6827e-15 
7.81614 -3.32425 3.30279e-15 
8.12252 -3.3101 -3.851e-16 
8.42325 -3.29958 1.83173e-16 
8.74525 -3.3069 -8.22333e-15 
9.06831 -3.38138 -1.49636e-14 
9.38201 -3.33777 -2.54692e-14 
9.69765 -3.28965 -3.94838e-14 
10.0117 -3.3823 -4.20449e-14 
10.3099 -3.30007 -3.87276e-14 
10.6321 -3.3999 4.27488e-15 
10.9603 -3.32754 1.40073e-14 
11.2903 -3.24928 -4.09867e-14 
11.6278 -3.37118 2.41392e-14 
12 -3.29663 -4.72148e-14 
-12 -2.98991 1.99608e-14 
-11.6516 -3.05053 1.47841e-14 
-11.3045 -2.95556 6.60572e-14 
-10.9546 -2.9727 1.94838e-14 
-10.6203 -2.96282 5.28523e-14 
-10.2957 -3.00605 7.20256e-14 
-9.97621 -2.98373 7.27269e-14 
-9.65892 -2.97565 6.20478e-14 
-9.3548 -3.01268 3.89549e-14 
-9.04545 -2.97541 2.18158e-14 
-8.73956 -2.97559 8.4e-15 
-8.43379 -2.99589 1.19063e-16 
-8.12707 -2.99467 1.55569e-16 
-7.82551 -2.9862 -5.90043e-15 
-7.52132 -2.96434 -8.42932e-15 
-7.22329 -2.97904 -1.14051e-14 
-6.91917 -3.00922 -1.54789e-14 
-6.61096 -2.99873 -2.02621e-14 
-6.30374 -3.00861 -2.43923e-14 
-5.99623 -3.00415 -2.74678e-14 
-5.69053 -2.9957 -3.1797e-14 
-5.38986 -2.98651 -3.81707e-14 
-5.08765 -2.97472 -4.92985e-14 
-4.7893 -3.0387 -6.07108e-14 
-4.49352 -2.99397 -7.63817e-14 
-4.20172 -3.00704 -9.48184e-14 
-3.90526 -3.06264 -1.19914e-13 
-3.60099 -3.0513 -1.6259e-13 
-3.29786 -3.04394 -2.09254e-13 
-2.98272 -3.03816 -2.2328e-13 
-2.68332 -2.96439 -2.45228e-13 
-2.37683 -2.96921 -2.78171e-13 
-2.08726 -3.04566 -2.04078e-13 
-1.77359 -3.01247 -1.24636e-13 
-1.44364 -3.02011 1.64834e-14 
-1.15545 -2.93831 2.13229e-13 
-0.827103 -2.88825 -5.6884e-13 
-0.561829 -2.68478 1.54446e-12 
-0.236228 -2.83436 -1.07919e-12 
0.0700054 -2.44952 -6.46553e-13 
0.189304 -2.73626 -7.5893e-13 
0.487798 -2.7362 3.54568e-13 
0.794952 -2.8174 -1.23447e-13 
1.13218 -2.87897 2.77885e-14 
1.45178 -2.96442 6.59792e-14 
1.74281 -2.98751 3.10021e-13 
2.06604 -3.0177 2.92621e-13 
2.35988 -3.10673 3.28379e-13 
2.65831 -3.0401 3.09517e-13 
2.95669 -3.06014 2.509e-13 
3.26538 -3.01954 2.12506e-13 
3.57703 -3.01748 1.50154e-13 
3.88019 -3.02679 1.21022e-13 
4.17808 -3.00793 9.76326e-14 
4.47923 -2.99154 7.68522e-14 
4.78114 -3.00576 5.77634e-14 
5.07823 -3.00088 4.71854e-14 
5.37659 -3.0163 3.81265e-14 
5.67985 -2.98744 3.05741e-14 
5.98525 -2.99026 2.54323e-14 
6.2967 -2.96722 2.18122e-14 
6.59454 -2.99896 1.93568e-14 
6.91445 -2.97323 1.57449e-14 
7.23046 -2.9924 1.04952e-14 
7.5299 -2.98603 8.18757e-15 
7.83512 -2.99181 5.28262e-15 
8.1316 -2.96808 2.7914e-16 
8.44419 -2.97598 1.0329e-16 
8.74572 -2.9643 -1.07328e-14 
9.04994 -3.05158 -1.87982e-14 
9.36312 -3.00551 -3.41405e-14 
9.6598 -2.94154 -4.75661e-14 
9.98004 -3.02898 -5.95815e-14 
10.3132 -2.9722 -7.48827e-14 
10.6459 -3.06179 -4.7391e-14 
10.978 -2.98722 -2.81654e-14 
11.3316 -2.92816 -7.27393e-14 
11.6652 -3.05378 -6.3873e-15 
12 -2.95953 -2.3033e-14 
-12 -2.67227 2.73152e-14 
-11.65 -2.72617 6.85109e-15 
-11.3158 -2.62645 3.18553e-14 
-10.9764 -2.65177 -2.15613e-14 
-10.6344 -2.63507 7.88043e-15 
-10.2994 -2.66835 3.31761e-14 
-9.97235 -2.65282 4.22865e-14 
-9.64307 -2.65482 2.82845e-14 
-9.31598 -2.66931 1.97434e-14 
-9.00073 -2.63669 1.17026e-14 
-8.68878 -2.64003 4.66239e-15 
-8.37912 -2.66411 -4.87742e-16 
-8.07255 -2.65772 4.11384e-17 
-7.76504 -2.65395 -2.14383e-16 
-7.4528 -2.63549 7.20946e-16 
-7.14477 -2.65866 -4.16645e-15 
-6.8428 -2.6812 -8.20802e-15 
-6.53129 -2.67277 -9.70002e-15 
-6.22758 -2.67872 -1.03516e-14 
-5.92257 -2.67229 -1.19655e-14 
-5.62087 -2.6613 -1.39952e-14 
[...]
POINT_DATA 1978 
VECTORS vectors float
-2.91897e-05 0.00134468 0.999999 
0.000104291 -0.0482017 0.998838 
-0.000112027 -0.0644147 0.997923 
-3.27612e-05 -0.0569786 0.998375 
-5.47118e-05 -0.0414087 0.999142 
-3.79949e-05 -0.0253764 0.999678 
-4.24461e-05 -0.0145772 0.999894 
-3.83458e-05 -0.0074625 0.999972 
-4.86061e-05 -0.00262068 0.999997 
-4.30307e-05 0.000262987 1 
-4.08042e-05 0.0017877 0.999998 
-3.14192e-05 0.00240697 0.999997 
-1.04652e-05 0.0026173 0.999997 
-9.45735e-06 0.00309779 0.999995 
7.5852e-06 0.00390521 0.999992 
-8.72039e-06 0.00498386 0.999988 
-1.73557e-05 0.00616242 0.999981 
-1.49065e-05 0.00749379 0.999972 
-2.35963e-05 0.00913643 0.999958 
-2.55846e-05 0.0112127 0.999937 
-2.60418e-05 0.0138247 0.999904 
-2.04614e-05 0.0169668 0.999856 
-1.80359e-05 0.0205569 0.999789 
-3.77254e-05 0.0245798 0.999698 
-2.03313e-05 0.0295966 0.999562 
-2.61333e-05 0.0349176 0.99939 
-2.83965e-05 0.0421238 0.999112 
-1.74535e-05 0.0538314 0.99855 
-2.22065e-05 0.0693709 0.997591 
6.54264e-06 0.0905964 0.995888 
1.54156e-05 0.119992 0.992775 
6.73875e-06 0.158018 0.987436 
1.09984e-05 0.209273 0.977857 
6.30462e-06 0.284585 0.958651 
-4.712e-06 0.377061 0.926188 
-1.28269e-06 0.498389 0.866954 
-8.92231e-06 0.644564 0.76455 
-1.30762e-07 0.801804 0.597587 
-1.22485e-05 0.936167 0.351555 
1.00637e-05 0.998741 -0.050163 
-5.51185e-06 0.932991 -0.359899 
1.20988e-05 0.804253 -0.594287 
-3.8184e-06 0.664605 -0.747195 
-1.58622e-06 0.521277 -0.853388 
-4.29953e-07 0.403058 -0.915175 
-1.11284e-05 0.301041 -0.953611 
9.89911e-06 0.224403 -0.974496 
1.1529e-05 0.166198 -0.986092 
2.44651e-05 0.12025 -0.992744 
3.31165e-05 0.0896434 -0.995974 
1.21639e-05 0.0667001 -0.997773 
2.04804e-05 0.0523094 -0.998631 
1.86605e-05 0.0420524 -0.999115 
2.19645e-05 0.0346152 -0.999401 
2.15072e-05 0.0291123 -0.999576 
2.47294e-05 0.0244771 -0.9997 
2.7549e-05 0.0203402 -0.999793 
3.17408e-05 0.0168652 -0.999858 
1.99361e-05 0.0138369 -0.999904 
1.12846e-05 0.0113999 -0.999935 
9.16074e-06 0.00930727 -0.999957 
9.48405e-06 0.007756 -0.99997 
-3.30672e-08 0.00624814 -0.99998 
1.01329e-05 0.00491701 -0.999988 
9.44695e-06 0.00403451 -0.999992 
1.36331e-05 0.0032987 -0.999995 
1.1681e-05 0.00261797 -0.999997 
6.04211e-06 0.00234008 -0.999997 
6.20269e-06 0.00172749 -0.999999 
3.89531e-05 0.000271185 -1 
4.44404e-05 -0.00270821 -0.999996 
4.10317e-05 -0.00717738 -0.999974 
4.44032e-05 -0.0135831 -0.999908 
4.58306e-05 -0.0252013 -0.999682 
8.18624e-05 -0.0389288 -0.999242 
3.67107e-05 -0.0591368 -0.99825 
0.00011467 -0.0643373 -0.997928 
-0.000119149 -0.048725 -0.998812 
5.45606e-05 0.00133947 -0.999999 
0.000243044 -0.000468923 1 
0.0155774 -0.0404051 0.999062 
0.020608 -0.0508184 0.998495 
0.0225573 -0.0535687 0.998309 
0.024678 -0.0438727 0.998732 
0.0253773 -0.0307327 0.999205 
0.0273182 -0.0188465 0.999449 
0.0284455 -0.0106022 0.999539 
0.0290256 -0.0048919 0.999567 
0.0300701 -0.00139405 0.999547 
0.0305971 0.000603165 0.999532 
0.0311298 0.00173273 0.999514 
0.0316386 0.00242515 0.999496 
0.0323025 0.00311021 0.999473 
0.0326512 0.00393012 0.999459 
0.0317217 0.00482897 0.999485 
0.0321995 0.00589464 0.999464 
0.0318163 0.00719044 0.999468 
0.031594 0.00891146 0.999461 
0.0315737 0.0109817 0.999441 
0.0315728 0.0134564 0.999411 
0.0313786 0.016376 0.999373 
0.031782 0.0196434 0.999302 
0.0303237 0.0241337 0.999249 
0.0313501 0.0285381 0.999101 
0.0306499 0.0344717 0.998936 
0.0288656 0.0431072 0.998653 
0.0282329 0.0547311 0.998102 
0.0266511 0.0712983 0.997099 
0.024247 0.0941752 0.99526 
0.0221622 0.12449 0.991973 
0.0191785 0.16702 0.985767 
0.0154833 0.227428 0.973672 
0.0118272 0.305848 0.952007 
0.00811558 0.406856 0.913456 
0.00465479 0.533513 0.845779 
0.00166939 0.680789 0.732478 
-0.000486557 0.831863 0.554981 
-0.00072531 0.965918 0.258845 
-0.00164486 0.999704 -0.0242849 
-0.000673942 0.950941 -0.309371 
-0.00189512 0.828197 -0.560433 
-0.00396382 0.67782 -0.735217 
-0.00628002 0.531636 -0.84695 
-0.00953653 0.397161 -0.917699 
-0.0131541 0.295171 -0.955354 
-0.0169207 0.216354 -0.976168 
-0.0197609 0.156237 -0.987522 
-0.0230627 0.11426 -0.993183 
-0.0248381 0.0845517 -0.996109 
-0.0275438 0.064368 -0.997546 
-0.0288488 0.0503277 -0.998316 
-0.0295522 0.0400068 -0.998762 
-0.0305942 0.032699 -0.998997 
-0.0312097 0.0271275 -0.999145 
-0.0309859 0.0224874 -0.999267 
-0.0313698 0.0186734 -0.999333 
-0.0313129 0.0154679 -0.99939 
-0.0320684 0.0127777 -0.999404 
-0.0320936 0.0105262 -0.999429 
-0.0325049 0.00863982 -0.999434 
-0.0320987 0.00710919 -0.999459 
-0.0332066 0.00583166 -0.999431 
-0.0323628 0.00471663 -0.999465 
-0.0327094 0.00386893 -0.999457 
-0.0325869 0.00308461 -0.999464 
-0.0326493 0.0023199 -0.999464 
-0.0321819 0.00153562 -0.999481 
-0.0325037 0.000283295 -0.999472 
-0.0298671 -0.00158858 -0.999553 
-0.0293843 -0.00511872 -0.999555 
-0.0295747 -0.0104689 -0.999508 
-0.0265975 -0.0184173 -0.999477 
-0.026243 -0.0297281 -0.999213 
-0.0233642 -0.0444676 -0.998738 
-0.0228496 -0.0531115 -0.998327 
-0.0205822 -0.0505854 -0.998508 
-0.0157572 -0.0403024 -0.999063 
-0.000215495 -0.000465204 -1 
6.23204e-05 9.06758e-05 1 
0.0178745 -0.0389784 0.99908 
0.0262463 -0.0480234 0.998501 
0.0301083 -0.0509171 0.998249 
0.0333442 -0.0429171 0.998522 
0.0347696 -0.0310342 0.998913 
0.0374257 -0.0202132 0.999095 
0.0394709 -0.0118857 0.99915 
0.039841 -0.00608438 0.999188 
0.0418456 -0.00258189 0.999121 
0.0435646 -0.000546922 0.99905 
0.0435631 0.000926316 0.99905 
0.0440447 0.00206447 0.999027 
0.044674 0.0030301 0.998997 
0.0456601 0.00391051 0.998949 
0.0451656 0.0047387 0.998968 
0.0442823 0.00561627 0.999003 
0.0442685 0.00673404 0.998997 
0.0439748 0.00822277 0.998999 
0.0438695 0.0100518 0.998987 
0.0439042 0.0122188 0.998961 
0.0437974 0.0147766 0.998931 
0.0440741 0.0177031 0.998871 
0.0423599 0.0218095 0.998864 
0.0435323 0.02612 0.998711 
0.0427309 0.032101 0.998571 
0.0401397 0.0402698 0.998382 
0.0386182 0.0511167 0.997946 
0.0365197 0.0677032 0.997037 
0.0333243 0.0902999 0.995357 
0.0299851 0.121959 0.992082 
0.0252125 0.165861 0.985827 
0.0196639 0.226481 0.973817 
0.0146165 0.308776 0.951023 
0.00946611 0.416533 0.909072 
0.00466807 0.552114 0.833756 
0.000812321 0.703281 0.710912 
-0.00184597 0.852566 0.522617 
-0.0028157 0.957371 0.288847 
-0.00355528 0.99994 -0.0104045 
-0.00379436 0.953175 -0.302397 
-0.00453904 0.837792 -0.54597 
-0.00624429 0.693484 -0.720445 
-0.00849225 0.541021 -0.840966 
-0.011752 0.410777 -0.91166 
-0.0164373 0.302506 -0.953006 
-0.0209667 0.224689 -0.974205 
-0.025107 0.164785 -0.98601 
-0.0294289 0.120733 -0.992249 
-0.0330418 0.0895772 -0.995432 
-0.0371622 0.068298 -0.996973 
-0.0395958 0.0525219 -0.997834 
-0.0408026 0.0414788 -0.998306 
-0.0423024 0.0330926 -0.998557 
-0.0433122 0.0267116 -0.998704 
-0.0430518 0.0220208 -0.99883 
-0.0433641 0.018163 -0.998894 
-0.0434591 0.0151243 -0.998941 
-0.044192 0.0124492 -0.998945 
-0.0448383 0.0102912 -0.998941 
-0.04509 0.00852029 -0.998947 
-0.0449963 0.00708364 -0.998962 
-0.0462084 0.00588098 -0.998915 
-0.0454053 0.00498615 -0.998956 
-0.0454589 0.00411852 -0.998958 
-0.0453596 0.00319474 -0.998966 
-0.0453645 0.0021607 -0.998968 
-0.0450683 0.000941872 -0.998983 
-0.0442252 -0.000693281 -0.999021 
-0.0410592 -0.00284188 -0.999153 
-0.0410279 -0.00661513 -0.999136 
-0.0406351 -0.0124319 -0.999097 
-0.0363927 -0.0197418 -0.999143 
-0.0360552 -0.0302578 -0.998892 
-0.0312803 -0.0419666 -0.998629 
-0.0299153 -0.0506679 -0.998267 
-0.0262964 -0.0471939 -0.99854 
-0.0174593 -0.0390371 -0.999085 
-9.5783e-05 0.000143443 -1 
0.000119987 0.000208373 1 
0.019169 -0.0362024 0.999161 
0.0281248 -0.0475588 0.998472 
0.0336657 -0.0519829 0.99808 
0.0376723 -0.0442901 0.998308 
0.0402912 -0.0315744 0.998689 
0.0429412 -0.0206784 0.998864 
0.0453256 -0.012499 0.998894 
0.0471796 -0.00708128 0.998861 
0.048407 -0.00368539 0.998821 
0.0493322 -0.00133559 0.998782 
0.0499795 0.000514717 0.99875 
0.0503716 0.00196125 0.998729 
0.0507139 0.00315603 0.998708 
0.0508404 0.00417223 0.998698 
0.0505683 0.00494926 0.998708 
0.0500972 0.00568525 0.998728 
0.0501651 0.00664769 0.998719 
0.0499887 0.00791659 0.998718 
0.0497499 0.00953155 0.998716 
0.0494407 0.0114607 0.998711 
0.0491712 0.0137551 0.998696 
0.0491234 0.0166479 0.998654 
0.048593 0.0205019 0.998608 
0.0485914 0.025332 0.998497 
0.0477569 0.0316479 0.998357 
0.0461643 0.039876 0.998138 
0.0445351 0.0516909 0.99767 
0.0414433 0.0675844 0.996852 
0.0371596 0.0920627 0.99506 
0.0324431 0.125901 0.991512 
0.0269499 0.173045 0.984545 
0.021725 0.235175 0.97171 
0.0156464 0.321694 0.946714 
0.00961688 0.43584 0.899973 
0.00466658 0.565762 0.824555 
0.000203688 0.720515 0.693439 
-0.00241418 0.858846 0.512229 
-0.00253245 0.968699 0.248224 
-0.00492427 0.999165 -0.0405678 
-0.00310812 0.97173 -0.236074 
-0.00430052 0.8631 -0.505016 
-0.00549009 0.714559 -0.699554 
-0.00861359 0.562248 -0.826924 
-0.0127065 0.425337 -0.904946 
-0.0176431 0.317425 -0.948119 
-0.0237213 0.231477 -0.972551 
-0.0291329 0.170625 -0.984905 
-0.0338862 0.126393 -0.991401 
-0.0375942 0.0934474 -0.994914 
-0.041326 0.0703092 -0.996669 
-0.0439688 0.0532319 -0.997614 
-0.0458022 0.0408964 -0.998113 
-0.0474481 0.0323348 -0.99835 
-0.0485117 0.0258619 -0.998488 
-0.0488329 0.0208747 -0.998589 
-0.0490851 0.0170137 -0.99865 
-0.0491077 0.0140751 -0.998694 
-0.0496877 0.0117519 -0.998696 
-0.0497743 0.00979506 -0.998712 
-0.0497695 0.00809494 -0.998728 
-0.0498988 0.00683171 -0.998731 
-0.0504529 0.00583853 -0.998709 
-0.0503263 0.00499327 -0.99872 
-0.050801 0.00417407 -0.9987 
-0.0510405 0.00314977 -0.998692 
-0.0509572 0.00191135 -0.998699 
-0.0506059 0.000353233 -0.998719 
-0.0498063 -0.0015879 -0.998758 
-0.0485973 -0.00396487 -0.998811 
-0.0474161 -0.00801468 -0.998843 
-0.0455922 -0.0137959 -0.998865 
-0.0431481 -0.0214526 -0.998838 
-0.0407181 -0.0328715 -0.99863 
-0.0372573 -0.0443594 -0.998321 
-0.0337026 -0.0520346 -0.998076 
-0.0274464 -0.046385 -0.998547 
-0.0186207 -0.0360243 -0.999177 
-0.000254993 0.000134525 -1 
0.000278716 0.00010045 1 
0.0175471 -0.0364197 0.999183 
0.0241435 -0.0486633 0.998523 
0.0293676 -0.0544967 0.998082 
0.0327177 -0.0473562 0.998342 
0.0359932 -0.0343932 0.99876 
0.0385627 -0.023208 0.998987 
0.0404454 -0.0145762 0.999075 
0.0420674 -0.0084735 0.999079 
0.0426201 -0.00461212 0.999081 
0.0431838 -0.00178631 0.999066 
0.0442917 0.000424188 0.999019 
0.0442978 0.00219952 0.999016 
0.0443585 0.00356159 0.999009 
0.0435776 0.00466951 0.999039 
0.0442014 0.00537066 0.999008 
0.0446651 0.00599878 0.998984 
0.0440416 0.00685077 0.999006 
0.0439432 0.00802352 0.999002 
0.0437103 0.00952102 0.998999 
0.043221 0.0112939 0.999002 
0.0428187 0.0135167 0.998991 
0.0426213 0.0166975 0.998952 
0.0434475 0.0207058 0.998841 
0.0418051 0.0261747 0.998783 
0.0411513 0.0333599 0.998596 
0.0409002 0.0425026 0.998259 
0.0384341 0.0552917 0.99773 
0.0358934 0.0739493 0.996616 
0.0308893 0.0987673 0.994631 
0.0251416 0.138813 0.989999 
0.0201321 0.189159 0.98174 
0.0171703 0.249193 0.968302 
0.0113056 0.348566 0.937216 
0.00560269 0.463817 0.885913 
0.000873983 0.611143 0.79152 
-0.002133 0.761776 0.647837 
-0.00431625 0.880576 0.473885 
-0.00442721 0.953304 0.30198 
-0.00350431 0.999083 0.042682 
-0.0022188 0.950796 -0.309811 
-0.00238878 0.875544 -0.483132 
-0.00242106 0.728812 -0.684709 
-0.00569963 0.563438 -0.826138 
-0.0095899 0.421434 -0.906808 
-0.0142304 0.313127 -0.949605 
-0.0196954 0.23512 -0.971767 
-0.0259209 0.170133 -0.98508 
-0.0287243 0.125716 -0.99165 
-0.0332217 0.0925807 -0.995151 
-0.0355956 0.0679356 -0.997055 
-0.0385753 0.0507942 -0.997964 
-0.0404198 0.0391957 -0.998414 
-0.041413 0.0304995 -0.998676 
-0.0420013 0.0239278 -0.998831 
-0.0429483 0.0190973 -0.998895 
-0.0432113 0.0153935 -0.998947 
-0.0435761 0.0127373 -0.998969 
-0.0432979 0.0106363 -0.999006 
-0.0435789 0.00896396 -0.99901 
-0.0427665 0.00759767 -0.999056 
-0.0442218 0.00654681 -0.999 
-0.0439009 0.00575408 -0.999019 
-0.044014 0.0050916 -0.999018 
-0.0443765 0.00425265 -0.999006 
-0.0445486 0.00313773 -0.999002 
-0.0443577 0.00165895 -0.999014 
-0.0442683 -0.000225013 -0.99902 
-0.0435264 -0.0025654 -0.999049 
-0.0449413 -0.00513672 -0.998976 
-0.0422742 -0.00926382 -0.999063 
-0.0396736 -0.0157367 -0.999089 
-0.0396357 -0.0239041 -0.998928 
-0.035968 -0.0355873 -0.998719 
-0.034857 -0.0470267 -0.998285 
-0.029803 -0.054528 -0.998067 
-0.0233617 -0.0480708 -0.998571 
-0.017072 -0.0360765 -0.999203 
-0.000217946 0.00010033 -1 
0.000170708 0.000187564 1 
0.0116924 -0.0350803 0.999316 
0.0166832 -0.0467541 0.998767 
0.0207756 -0.0567071 0.998175 
0.0236188 -0.0532219 0.998303 
0.0268848 -0.0409719 0.998799 
0.0293216 -0.029126 0.999146 
0.0308608 -0.0192486 0.999338 
0.0324419 -0.0120069 0.999402 
0.0330332 -0.00716809 0.999429 
0.0333617 -0.00350624 0.999437 
0.0339847 -0.000595936 0.999422 
0.034161 0.00162011 0.999415 
0.0339716 0.00336177 0.999417 
0.0337898 0.00458771 0.999418 
0.0332726 0.00543332 0.999432 
0.0338786 0.00592844 0.999408 
0.0338684 0.00650659 0.999405 
0.0333498 0.00739424 0.999416 
0.0332937 0.00852974 0.999409 
0.0330902 0.00990647 0.999403 
0.0326789 0.0116621 0.999398 
0.0326977 0.0142441 0.999364 
0.0322141 0.0178944 0.999321 
0.0328566 0.0223806 0.999209 
0.0314219 0.0289548 0.999087 
0.0307941 0.0373707 0.998827 
0.0299436 0.0476803 0.998414 
0.0283377 0.0635872 0.997574 
0.0242084 0.083816 0.996187 
0.0204483 0.116139 0.993022 
0.0142268 0.16379 0.986393 
0.0105864 0.229309 0.973296 
0.00858312 0.302172 0.953215 
0.00325677 0.409767 0.912184 
-0.00048931 0.567154 0.823612 
-0.00361762 0.661893 0.749589 
-0.00453955 0.814147 0.580642 
-0.00299808 0.996573 0.0826667 
-0.00161801 0.999765 -0.0216365 
-0.00602807 0.975581 -0.219559 
-0.00530104 0.872945 -0.487789 
2.83305e-05 0.786423 -0.617688 
-0.000504502 0.624683 -0.780879 
-0.00364543 0.461709 -0.887024 
-0.00705199 0.338816 -0.940826 
-0.0111845 0.24557 -0.969314 
-0.0174911 0.183038 -0.98295 
-0.0189444 0.138886 -0.990127 
-0.0232029 0.101775 -0.994537 
-0.026188 0.0753186 -0.996816 
-0.0285544 0.0545773 -0.998101 
-0.0300871 0.0413902 -0.99869 
-0.0312902 0.031966 -0.998999 
-0.0318128 0.024713 -0.999188 
-0.0324942 0.0192198 -0.999287 
-0.0328153 0.0152696 -0.999345 
-0.033105 0.0124769 -0.999374 
-0.0330813 0.0105121 -0.999397 
-0.0332185 0.00896318 -0.999408 
-0.0324908 0.00775506 -0.999442 
-0.0336813 0.00675507 -0.99941 
-0.0340369 0.00607594 -0.999402 
-0.0332005 0.00550445 -0.999434 
-0.0338715 0.00476342 -0.999415 
-0.0338327 0.0036081 -0.999421 
-0.0338973 0.00201819 -0.999423 
-0.0339594 -0.000118838 -0.999423 
-0.0330751 -0.00278513 -0.999449 
-0.0349134 -0.006079 -0.999372 
-0.0330113 -0.0109458 -0.999395 
-0.0303 -0.0178412 -0.999382 
-0.0309566 -0.0264628 -0.99917 
-0.0273757 -0.0388171 -0.998871 
-0.0271648 -0.0502213 -0.998369 
-0.0222019 -0.0573296 -0.998108 
-0.0167873 -0.0508977 -0.998563 
-0.0130567 -0.0374458 -0.999213 
-0.000128484 0.000120808 -1 
2.8965e-05 0.000156989 1 
0.00889799 -0.039028 0.999199 
0.0127295 -0.0530472 0.998511 
0.0148904 -0.0598835 0.998094 
0.0176934 -0.0519711 0.998492 
0.0198651 -0.0391948 0.999034 
0.02182 -0.0274191 0.999386 
0.0231604 -0.0179417 0.999571 
0.0239079 -0.0114833 0.999648 
0.0247255 -0.00656799 0.999673 
0.0250681 -0.00267102 0.999682 
0.0248216 0.000307211 0.999692 
0.0249677 0.00263853 0.999685 
0.0244961 0.00432846 0.999691 
0.0245945 0.00538369 0.999683 
0.0237542 0.00599121 0.9997 
0.0238402 0.00637166 0.999695 
0.0240564 0.00692857 0.999687 
0.0235172 0.00777716 0.999693 
0.0235539 0.00882675 0.999684 
0.023433 0.0101604 0.999674 
0.0234581 0.0121866 0.999651 
0.0233225 0.0152712 0.999611 
0.0225756 0.0195623 0.999554 
0.0234883 0.0250445 0.99941 
0.0222111 0.0331833 0.999202 
0.0207854 0.0430459 0.998857 
0.0207813 0.0568339 0.998167 
0.0171714 0.0749979 0.997036 
0.0146383 0.105116 0.994352 
0.00997281 0.148372 0.988881 
0.00558898 0.228816 0.973454 
0.00250904 0.326129 0.945322 
-0.00110678 0.473002 0.881061 
-0.00301243 0.625703 0.780055 
-0.000792869 0.793761 0.60823 
0.00238188 0.89766 0.440683 
-0.000872085 0.941852 0.336026 
-0.00324214 0.943448 0.331505 
0.000349372 0.998291 0.0584346 
0.00568958 0.999843 -0.0168034 
0.000375989 0.960351 -0.278792 
-0.00251112 0.864829 -0.50206 
-0.000519598 0.666826 -0.745213 
0.000835379 0.52888 -0.848696 
-0.00116024 0.387903 -0.921699 
-0.00469914 0.274439 -0.961593 
-0.00956991 0.187556 -0.982207 
-0.0120858 0.13325 -0.991009 
-0.0157287 0.0972307 -0.995138 
-0.0190973 0.0700878 -0.997358 
-0.0200963 0.0520095 -0.998444 
-0.0213335 0.0395915 -0.998988 
-0.0224388 0.0303969 -0.999286 
-0.0229249 0.0233069 -0.999465 
-0.0231336 0.0180669 -0.999569 
-0.0233043 0.0142231 -0.999627 
-0.0234054 0.0115941 -0.999659 
-0.0238086 0.00977762 -0.999669 
-0.0233861 0.00854049 -0.99969 
-0.023792 0.00748501 -0.999689 
-0.0239047 0.00675154 -0.999691 
-0.0246267 0.00619546 -0.999678 
-0.0236495 0.00577859 -0.999704 
-0.0244971 0.00501077 -0.999687 
-0.0242951 0.00378471 -0.999698 
-0.0247064 0.0018754 -0.999693 
-0.0247142 -0.000588137 -0.999694 
-0.0238745 -0.00366162 -0.999708 
-0.0261003 -0.00700634 -0.999635 
-0.0243683 -0.0121158 -0.99963 
-0.0223859 -0.0196914 -0.999555 
-0.0226255 -0.0291841 -0.999318 
-0.0195425 -0.0420813 -0.998923 
-0.0192741 -0.0537442 -0.998369 
-0.0150105 -0.0601167 -0.998078 
-0.0111336 -0.0527036 -0.998548 
-0.00904386 -0.0386768 -0.999211 
-0.000118589 6.19859e-05 -1 
6.24684e-05 6.94449e-05 1 
0.00572672 -0.0390181 0.999222 
0.0082631 -0.0539377 0.99851 
0.00970404 -0.0623041 0.99801 
0.0117966 -0.0563555 0.998341 
0.0133712 -0.043548 0.998962 
0.0149653 -0.0312469 0.9994 
0.0164358 -0.0213078 0.999638 
0.0168883 -0.0138292 0.999762 
0.0177054 -0.00823684 0.999809 
0.0184137 -0.00388854 0.999823 
0.0178484 -0.000264485 0.999841 
0.017825 0.00254557 0.999838 
0.0174104 0.00450937 0.999838 
0.0173317 0.00571071 0.999833 
0.016836 0.00630325 0.999838 
0.0161574 0.00663434 0.999847 
0.0163734 0.00699642 0.999841 
0.0161662 0.00761799 0.99984 
0.0160082 0.00845106 0.999836 
0.0160649 0.00951611 0.999826 
0.0163103 0.0112621 0.999804 
0.016272 0.0141704 0.999767 
0.0156255 0.0183997 0.999709 
0.0158445 0.0241566 0.999583 
0.0160166 0.031291 0.999382 
0.0139666 0.0412926 0.999049 
0.0139244 0.0546191 0.99841 
0.011128 0.0720874 0.997336 
0.00978777 0.0986714 0.995072 
0.00641891 0.141363 0.989937 
0.00351853 0.211468 0.977379 
0.000515794 0.320123 0.947376 
-0.00117268 0.436207 0.899846 
-0.000527393 0.701717 0.712456 
0.00581763 0.841563 0.540127 
0.00490857 0.961197 0.275819 
0.0117035 0.989373 0.144927 
0.0128306 0.995742 0.0912871 
0.00916736 0.999887 -0.0119431 
0.00684325 0.998292 -0.0580184 
0.00585649 0.996312 -0.0856059 
-0.00112164 0.943092 -0.332531 
-0.00140801 0.665447 -0.746444 
0.00167001 0.534322 -0.845279 
0.00113621 0.470562 -0.882366 
-0.000377271 0.329308 -0.944223 
-0.0040257 0.217392 -0.976076 
-0.00646252 0.152049 -0.988352 
-0.00895833 0.104847 -0.994448 
-0.0120305 0.0764156 -0.997003 
-0.0130876 0.056893 -0.998294 
-0.0141811 0.0426688 -0.998989 
-0.0151662 0.0327203 -0.999349 
-0.0158125 0.0252558 -0.999556 
-0.0159057 0.0194022 -0.999685 
-0.0159375 0.0149773 -0.999761 
-0.0157914 0.0118919 -0.999805 
-0.0164574 0.00999317 -0.999815 
-0.0158436 0.00869867 -0.999837 
-0.0167821 0.00784138 -0.999828 
-0.0161705 0.00712976 -0.999844 
-0.0169279 0.00665724 -0.999835 
-0.016631 0.00633693 -0.999842 
-0.0170531 0.00576546 -0.999838 
-0.0171374 0.00465809 -0.999842 
-0.0176029 0.00261584 -0.999842 
-0.0173309 -0.000186728 -0.99985 
-0.0172495 -0.00386146 -0.999844 
-0.0184839 -0.00830063 -0.999795 
-0.0175282 -0.014324 -0.999744 
-0.0154801 -0.0221293 -0.999635 
-0.016077 -0.0310078 -0.99939 
-0.0133683 -0.0431689 -0.998978 
-0.0131879 -0.0553516 -0.99838 
-0.0100956 -0.0626825 -0.997982 
-0.0074645 -0.0547526 -0.998472 
-0.0059924 -0.0393539 -0.999207 
-5.49783e-05 0.00013106 -1 
3.74592e-05 9.40378e-05 1 
0.00371918 -0.0399156 0.999196 
0.00533655 -0.054538 0.998497 