# vtk DataFile Version 3.0 
Exported using Morpho https://github.com/Morpho-lang/morpho 
ASCII 
DATASET UNSTRUCTURED_GRID 

POINTS 1978 float 
-8.47572 -2.82736 7.90543e-05 
-8.31479 -2.81705 -4.71741e-05 
-8.14613 -2.81018 -9.06391e-05 
-7.39041 -2.80673 0.000397288 
-7.03006 -2.8155 -0.000412121 
-6.83148 -2.81952 0.000156711 
-6.66025 -2.82131 3.22301e-05 
-6.47832 -2.81313 -7.42367e-05 
-6.32804 -2.8238 0.000450829 
-6.18742 -2.82368 0.000169812 
-6.02982 -2.81384 -0.000556225 
-5.83602 -2.82074 0.000749208 
-5.44623 -2.82081 0.000309805 
-5.2754 -2.81662 -0.000318834 
-5.08727 -2.81778 0.000783104 
-4.90458 -2.81984 -6.8294e-05 
-4.73571 -2.81634 1.89817e-05 
-4.48491 -2.81492 0.000496961 
-4.22673 -2.81811 0.000382522 
-3.99237 -2.8192 0.000263979 
-3.77224 -2.81843 0.000391135 
-3.589 -2.81902 0.000651009 
-3.39883 -2.81864 0.000921274 
-3.2132 -2.8232 0.00109663 
-3.06836 -2.82049 0.00129493 
-2.90455 -2.82326 0.00222537 
-2.72771 -2.82308 0.00247526 
-2.52629 -2.82415 0.00266452 
-2.32991 -2.82286 0.00386154 
-2.06994 -2.82367 0.00464083 
-1.80557 -2.82519 0.00580446 
-1.45489 -2.82549 0.00451931 
-1.22082 -2.82377 0.00390942 
-1.02658 -2.82316 0.00397038 
-0.786496 -2.825 0.00338305 
-0.573204 -2.83025 0.000504734 
-0.410525 -2.83303 8.67756e-05 
-0.278684 -2.83099 -1.65135e-05 
-0.137683 -2.83485 0.000405011 
-0.00359587 -2.83221 0.00245708 
0.156548 -2.83491 0.00117084 
0.345651 -2.8299 0.00236231 
0.452569 -2.83186 -0.000924735 
0.566356 -2.83214 -0.00137221 
0.738302 -2.83328 -0.00289932 
0.903303 -2.83406 -0.00453588 
1.08018 -2.83139 -0.00680503 
1.57095 -2.82931 -0.00870755 
1.81957 -2.82568 -0.00613335 
2.10114 -2.82698 -0.00587733 
2.3327 -2.82663 -0.0037717 
2.49615 -2.82251 -0.00347767 
2.74725 -2.82298 -0.00281466 
2.94235 -2.82081 -0.00206262 
3.1224 -2.82293 -0.00159737 
3.28509 -2.82156 -0.000934064 
3.43763 -2.82191 -0.000772504 
3.60397 -2.81859 -0.000396775 
3.88119 -2.81229 -0.000685427 
4.21498 -2.81422 -0.000569114 
4.40761 -2.82234 -0.000112519 
4.61914 -2.81492 -0.00020641 
4.80476 -2.81843 -0.00029211 
4.9672 -2.81742 -7.67145e-05 
5.20016 -2.81766 -8.46075e-05 
5.38183 -2.818 7.96135e-05 
5.5709 -2.81954 -0.000399845 
5.73004 -2.82113 0.00013373 
5.92519 -2.81985 -0.000183218 
6.07316 -2.8239 0.000281421 
6.21959 -2.82184 -0.00039965 
6.4315 -2.8231 -0.000468524 
6.59199 -2.81583 -0.000310009 
6.82935 -2.81363 0.000660833 
7.25416 -2.8228 0.000763039 
7.49633 -2.81383 -0.00219532 
7.64247 -2.80226 -0.000141848 
8.05014 -2.80105 -0.0007176 
8.48539 -2.82541 0.00197584 
-8.48391 -2.70138 0.000166998 
-8.22886 -2.56623 0.000482765 
-8.00805 -2.75446 -0.000128082 
-7.93201 -2.68938 -0.00141177 
-7.67312 -2.65088 4.75705e-05 
-6.84883 -2.57986 0.000323232 
-6.60907 -2.56011 -8.88467e-05 
-6.39389 -2.54582 0.000290743 
-6.20949 -2.54536 -0.000660073 
-6.41181 -2.25961 0.000298496 
-6.07366 -2.52299 0.000639795 
-5.65907 -2.71895 -0.000471127 
-5.45345 -2.6028 5.62893e-05 
-5.25898 -2.56464 0.000390179 
-5.07532 -2.57786 -0.000384218 
-4.89476 -2.56715 0.000110936 
-4.7203 -2.55719 0.000259184 
-4.55061 -2.64183 0.00026078 
-4.33329 -2.61247 4.5581e-05 
-4.10685 -2.59958 3.22799e-06 
-3.8722 -2.58798 -0.000199001 
-3.66561 -2.55187 0.000249016 
-3.47843 -2.60566 -1.32599e-05 
-3.31486 -2.60194 0.000615335 
-3.15454 -2.61413 0.000347862 
-2.98424 -2.65376 0.000678019 
-2.80544 -2.67091 0.000546278 
-2.59943 -2.6919 0.000484106 
-2.3806 -2.68354 0.00103211 
-2.13678 -2.70716 0.00042091 
-1.81395 -2.671 -0.000243423 
-1.50942 -2.68807 4.00008e-05 
-1.19082 -2.6151 4.15049e-05 
-0.955602 -2.58814 -0.000570075 
-0.798065 -2.6624 -0.00108916 
-0.632448 -2.64371 5.89298e-05 
-0.482158 -2.67914 -0.000653698 
-0.286262 -2.72574 0.00174122 
-0.120317 -2.72976 0.00169592 
0.0426116 -2.74265 0.000416046 
0.214305 -2.74282 0.00120629 
0.363021 -2.68611 0.00139185 
0.523084 -2.62829 0.0014395 
0.660685 -2.68053 0.000472224 
0.841105 -2.64855 0.00162184 
1.10311 -2.707 -0.00117866 
1.39527 -2.75625 -0.00120145 
1.71127 -2.68262 -0.00115137 
1.97501 -2.70992 -0.000473088 
2.25949 -2.70381 -0.0010194 
2.4627 -2.65472 -0.000356851 
2.66198 -2.71243 -0.000773182 
2.8909 -2.65304 -0.000581396 
3.06891 -2.6346 0.000125899 
3.23548 -2.61035 -0.000595399 
3.40847 -2.56799 -0.000157127 
3.59809 -2.59563 -0.000454305 
3.80308 -2.62442 0.000136058 
4.08768 -2.63887 0.000339403 
4.36569 -2.59257 -0.000102987 
4.58718 -2.59967 -0.000149907 
4.78126 -2.60057 -1.03911e-05 
4.96422 -2.57008 1.04942e-06 
5.12994 -2.6433 0.000310218 
5.34067 -2.58775 -0.000229145 
5.56097 -2.62055 0.000253839 
5.7676 -2.53088 -7.37367e-05 
5.94986 -2.58178 7.4883e-05 
6.17276 -2.49955 -8.86748e-05 
6.33087 -2.6179 0.00021234 
6.53136 -2.55091 -3.66811e-06 
6.73351 -2.60776 -0.000170451 
7.01479 -2.70554 -0.000666475 
7.19146 -2.55876 -0.000315838 
7.56448 -2.55463 0.000545664 
7.82903 -2.4709 -0.00209714 
8.07587 -2.37304 -0.000153654 
7.96002 -2.63779 0.00227262 
8.48345 -2.97029 0.00495425 
-8.47615 -2.54535 -5.77389e-05 
-8.2554 -2.33866 0.000343678 
-8.15376 -2.23563 2.18682e-05 
-7.91454 -2.48018 0.000253533 
-7.56411 -2.50089 -0.000250833 
-7.3037 -2.65402 0.000214837 
-7.05396 -2.54599 0.000168143 
-6.75128 -2.33755 -0.000541889 
-6.77135 -2.17034 0.000368662 
-6.5923 -2.21682 -0.00049154 
-6.23003 -2.25169 0.000352896 
-5.86799 -2.58236 -0.000481778 
-5.66342 -2.50877 0.000384263 
-5.42953 -2.3382 -0.000231319 
-5.25371 -2.31554 0.000199424 
-5.06746 -2.3268 -0.000509756 
-4.89754 -2.31027 0.000218694 
-4.7127 -2.31155 4.31306e-05 
-4.51915 -2.41412 -3.39607e-05 
-4.28188 -2.36966 -0.000135047 
-4.04287 -2.36589 0.000280448 
-3.82037 -2.34294 0.000569786 
-3.58696 -2.36179 0.000704493 
-3.418 -2.38413 0.000955865 
-3.25354 -2.40646 0.000737578 
-3.07527 -2.46126 0.00066192 
-2.90319 -2.4937 -0.00046649 
-2.69416 -2.54748 -0.000463947 
-2.47435 -2.55034 -0.000233257 
-2.22075 -2.56678 0.000382282 
-1.9531 -2.57357 -0.000428067 
-1.53973 -2.53634 0.000983339 
-1.25293 -2.4819 0.000168618 
-0.973997 -2.4146 -0.00129144 
-0.758567 -2.46725 -0.00112923 
-0.590664 -2.48363 -0.00158802 
-0.400056 -2.59411 -0.000301856 
-0.284269 -2.52803 0.00124074 
-0.177441 -2.62283 0.00200258 
-0.00114453 -2.63823 0.00383315 
0.167836 -2.63871 0.00231077 
0.338256 -2.57209 0.00124638 
0.525655 -2.48595 0.00308727 
0.704466 -2.51143 0.000462642 
0.9679 -2.54631 0.00119897 
1.20391 -2.55924 0.000392504 
1.4013 -2.6361 0.000757398 
1.57913 -2.54575 0.000612122 
1.86785 -2.57285 0.000377003 
2.13347 -2.60871 0.000401717 
2.35078 -2.53177 0.000419357 
2.63264 -2.5625 0.000235306 
2.83575 -2.53653 -0.000492365 
3.06846 -2.45448 -0.000821677 
3.24053 -2.40123 -0.000230576 
3.4073 -2.35861 -0.000403464 
3.58992 -2.3845 -0.00102977 
3.78775 -2.40376 -0.000324458 
4.01368 -2.42052 -0.000562713 
4.27102 -2.39591 4.506e-05 
4.54389 -2.3587 0.000119403 
4.7401 -2.3577 -0.000150202 
4.92245 -2.34253 -3.54812e-05 
5.10816 -2.38313 0.000107437 
5.27384 -2.39698 -8.94844e-05 
5.49594 -2.4145 0.00024879 
5.68753 -2.35496 0.000152955 
5.95176 -2.34809 3.70011e-05 
6.17408 -2.26155 3.5728e-05 
6.39288 -2.34249 8.77221e-05 
6.59968 -2.30384 9.61771e-05 
6.78573 -2.33022 0.000104153 
6.94666 -2.47852 0.000195762 
7.15336 -2.32804 0.000210975 
7.38313 -2.49699 0.000745354 
7.66797 -2.26758 -0.000516794 
7.92214 -2.17119 -0.000254913 
8.24667 -2.62113 0.000402041 
8.48352 -2.85745 -0.00375147 
-8.44573 -2.37343 0.000251982 
-8.35555 -2.08094 -6.91365e-05 
-8.25001 -1.89627 0.000164199 
-7.86832 -2.30721 -0.000283699 
-7.55055 -2.30606 0.000102868 
-7.28721 -2.44294 -0.000216355 
-7.14864 -2.2419 -0.000296535 
-6.99096 -2.1516 0.000409365 
-6.83684 -2.06544 -0.000237083 
-6.35922 -1.98501 -8.91198e-05 
-6.09451 -2.23331 -0.000374994 
-5.88307 -2.35248 -0.000307138 
-5.61243 -2.31647 -0.000390686 
-5.44778 -2.05274 -0.000308631 
-5.24131 -2.07449 1.85864e-05 
-5.05266 -2.07283 5.25712e-05 
-4.86101 -2.08083 6.11238e-05 
-4.63843 -2.10187 9.04637e-05 
-4.43833 -2.16628 8.84238e-05 
-4.19899 -2.1118 9.4435e-05 
-3.98113 -2.1214 0.000135707 
-3.7489 -2.15656 0.000574308 
-3.57136 -2.14195 0.00062229 
-3.39121 -2.19047 0.000548538 
-3.20128 -2.25937 0.000690779 
-3.0383 -2.29256 -2.57461e-05 
-2.83481 -2.36611 -0.000308685 
-2.62619 -2.40864 -0.000475248 
-2.36332 -2.43281 -0.0006674 
-2.07047 -2.44317 -0.000392079 
-1.73065 -2.45175 0.000444371 
-1.40123 -2.34727 -0.000500468 
-1.1392 -2.30846 -0.00126019 
-1.10079 -2.18946 -0.00321304 
-0.816267 -2.29907 0.000252337 
-0.54744 -2.37896 0.000301985 
-0.414735 -2.40279 0.00143553 
-0.224762 -2.39345 -0.0030483 
-0.106177 -2.51545 0.00254027 
0.0316933 -2.48378 0.00458498 
0.170576 -2.51683 0.00492681 
0.291114 -2.33997 0.00154207 
0.378871 -2.42563 0.00519213 
0.633057 -2.3438 0.00116384 
0.84472 -2.4123 0.00190326 
1.09888 -2.40457 0.00219504 
1.37699 -2.44213 0.000154289 
1.63917 -2.39504 0.0017894 
1.86539 -2.45021 0.00167952 
2.11058 -2.47331 0.000357465 
2.52469 -2.44277 6.37219e-05 
2.73889 -2.3904 0.000594836 
2.9137 -2.37593 -7.64376e-05 
3.07913 -2.26884 0.000129985 
3.24955 -2.21046 -0.000311025 
3.42938 -2.16576 -0.000903818 
3.60977 -2.18406 0.000136939 
3.78682 -2.17917 -0.000653403 
3.97808 -2.19529 -3.71223e-05 
4.24535 -2.17269 -0.000253949 
4.50159 -2.13292 7.60074e-05 
4.73538 -2.08093 -6.69168e-05 
4.92327 -2.09931 -0.000131497 
5.08158 -2.10993 0.000161265 
5.29362 -2.19532 0.000136782 
5.48939 -2.17331 -2.03021e-05 
5.76254 -2.16662 5.26665e-06 
5.98635 -2.08906 -5.66595e-05 
6.31842 -2.06932 -6.03706e-05 
6.51396 -2.06044 2.1902e-05 
6.72158 -2.05794 -9.08706e-05 
6.95281 -2.1769 0.000164481 
7.18116 -2.05004 -0.00012394 
7.38924 -2.2067 -8.65836e-05 
7.58269 -2.01951 0.000208788 
7.72859 -2.0029 7.53307e-05 
7.97265 -1.91464 -0.000416276 
8.33625 -2.31033 0.000711931 
8.46267 -2.54421 -0.00129472 
-8.45274 -1.24095 0.000327027 
-8.39952 -1.54521 -0.00014735 
-8.02836 -1.97862 0.000367084 
-7.79673 -2.1083 3.37477e-05 
-7.62964 -1.95194 -5.11513e-05 
-7.40348 -2.17005 -0.000405301 
[...]
POINT_DATA 1978 
VECTORS vectors float
0.0807104 -0.156349 0.984482 
0.0903819 -0.137689 0.986722 
0.107071 -0.104469 0.988649 
0.0978827 0.00410093 0.995025 
0.102618 0.0749485 0.992582 
0.120091 0.0767484 0.989739 
0.109382 0.0877777 0.990011 
0.107961 0.0916094 0.990106 
0.118793 0.0941252 0.988455 
0.0991823 0.10241 0.989855 
0.0955398 0.134493 0.986253 
0.122809 0.14143 0.982383 
0.122234 0.141637 0.982308 
0.125527 0.140196 0.982061 
0.122504 0.112242 0.986023 
0.122785 0.111544 0.986148 
0.12511 0.103687 0.986646 
0.112205 0.0665165 0.991208 
0.106455 0.0891898 0.990321 
0.101762 0.121105 0.987776 
0.106274 0.16468 0.980853 
0.107253 0.184265 0.977195 
0.106832 0.205978 0.972712 
0.0948908 0.219261 0.971221 
0.0783958 0.224997 0.971566 
0.0755091 0.218724 0.973045 
0.0502617 0.199506 0.978827 
0.0241675 0.217533 0.976124 
0.021324 0.233211 0.972571 
0.0163699 0.223215 0.975047 
0.014173 0.202122 0.979649 
0.00345532 0.196954 0.98105 
-0.000489482 0.233432 0.972936 
-0.00810501 0.296654 0.95536 
-0.0166728 0.418381 0.908285 
-0.0275431 0.583502 0.812225 
-0.0277772 0.75298 0.657499 
0.00576942 0.865373 0.502151 
0.028783 0.956601 0.290325 
0.0521981 0.996499 0.0697155 
0.0773556 0.975683 -0.203921 
0.0972484 0.852659 -0.513196 
0.0981795 0.766813 -0.633795 
0.0940147 0.66261 -0.742688 
0.072434 0.511618 -0.855943 
0.0489697 0.40393 -0.913189 
0.0312874 0.305174 -0.952152 
0.0053605 0.258165 -0.966186 
0.00491247 0.261587 -0.965363 
0.00014145 0.257614 -0.966601 
-0.00874219 0.246863 -0.969323 
-0.0230741 0.241038 -0.970528 
-0.0382766 0.228749 -0.97304 
-0.0601711 0.213928 -0.975274 
-0.0803361 0.197516 -0.977262 
-0.0868304 0.186638 -0.97887 
-0.0958639 0.171104 -0.980691 
-0.0998918 0.147086 -0.984462 
-0.10905 0.09947 -0.989342 
-0.113116 0.0592488 -0.991973 
-0.11791 0.0678338 -0.990631 
-0.127545 0.0861101 -0.987904 
-0.133511 0.101524 -0.985745 
-0.125905 0.125478 -0.983973 
-0.117356 0.143516 -0.982625 
-0.113463 0.133922 -0.984349 
-0.123732 0.133496 -0.983473 
-0.106261 0.126835 -0.986502 
-0.110207 0.106135 -0.988395 
-0.0996538 0.0809305 -0.991819 
-0.111919 0.0494816 -0.992741 
-0.115135 0.021744 -0.99321 
-0.131127 0.033225 -0.990699 
-0.121437 0.0848069 -0.988772 
-0.0900939 0.04499 -0.995407 
-0.095879 -0.0224239 -0.99568 
-0.112743 -0.0602389 -0.992008 
-0.133953 -0.095209 -0.98622 
-0.0244241 -0.0917841 -0.995251 
0.0614304 -0.142713 0.987735 
0.0630315 -0.1188 0.992125 
0.10286 -0.0788153 0.992134 
0.102208 -0.0576454 0.994321 
0.0896193 -0.0382535 0.996155 
0.0971513 0.0680967 0.993639 
0.100776 0.0864639 0.992105 
0.103136 0.0933873 0.991333 
0.0916862 0.107803 0.99097 
0.0641255 0.0590519 0.996964 
0.0903621 0.106784 0.990921 
0.102689 0.144755 0.984717 
0.0883981 0.129068 0.98844 
0.104027 0.132545 0.986382 
0.0926662 0.122659 0.988666 
0.09537 0.104434 0.99048 
0.096026 0.0920983 0.991728 
0.101385 0.0801887 0.992407 
0.0811759 0.0844708 0.994101 
0.0743808 0.114456 0.991565 
0.058586 0.146248 0.98864 
0.0485904 0.17865 0.98381 
0.0413865 0.199148 0.980185 
0.0225564 0.215873 0.977001 
-0.00725979 0.227416 0.974458 
-0.0245716 0.239896 0.97127 
-0.0568275 0.240555 0.969695 
-0.0911147 0.240416 0.967087 
-0.126698 0.241064 0.962862 
-0.130458 0.225227 0.966106 
-0.197513 0.205425 0.959376 
-0.176943 0.196648 0.965344 
-0.258975 0.238556 0.936845 
-0.269321 0.313972 0.911463 
-0.173054 0.405848 0.898269 
-0.154864 0.528391 0.835165 
-0.0850041 0.660815 0.746421 
0.00331957 0.845648 0.533556 
0.0650641 0.955237 0.287164 
0.126772 0.99156 0.0170362 
0.16535 0.944826 -0.281213 
0.244683 0.840584 -0.482128 
0.329404 0.70701 -0.62496 
0.274679 0.588113 -0.760198 
0.315201 0.453087 -0.833937 
0.212398 0.317883 -0.924188 
0.127386 0.267507 -0.955438 
0.221078 0.25785 -0.940999 
0.172873 0.265185 -0.948922 
0.141466 0.269655 -0.953018 
0.172878 0.271053 -0.94759 
0.0727138 0.250533 -0.966087 
0.0686442 0.243259 -0.968354 
0.0415729 0.229039 -0.97345 
0.00944629 0.214144 -0.977695 
-0.00715505 0.191661 -0.982421 
-0.049632 0.15821 -0.987205 
-0.0636114 0.121185 -0.991549 
-0.0771629 0.0832916 -0.994472 
-0.0853447 0.0737202 -0.994396 
-0.0993237 0.0843236 -0.992158 
-0.0998767 0.0980011 -0.990923 
-0.0956395 0.110331 -0.989837 
-0.096939 0.129565 -0.987433 
-0.0875294 0.119752 -0.98977 
-0.092079 0.122119 -0.988871 
-0.0770154 0.0992663 -0.992782 
-0.0865145 0.0929366 -0.992704 
-0.0746933 0.0657189 -0.996166 
-0.079086 0.0505022 -0.996336 
-0.0927466 0.0564726 -0.994857 
-0.0977385 0.0548159 -0.994622 
-0.101917 0.0604122 -0.993676 
-0.0743677 0.0371367 -0.997568 
-0.0733501 -0.0232432 -0.998297 
-0.0716485 -0.0548806 -0.997082 
-0.0906885 -0.0789292 -0.994134 
-0.10388 -0.085299 -0.992145 
-0.276928 0.00718394 -0.960957 
0.0547459 -0.133154 0.989579 
0.0493032 -0.120229 0.992388 
0.0463842 -0.0836957 0.996907 
0.0678299 -0.0571214 0.99712 
0.0686119 0.000790606 0.998732 
0.0902735 0.021917 0.996629 
0.0895535 0.042045 0.996363 
0.0763361 0.072851 0.994894 
0.0637748 0.0617745 0.997821 
0.0702825 0.0807179 0.994489 
0.0720074 0.0875052 0.994514 
0.0902147 0.130014 0.988284 
0.0914926 0.135682 0.987154 
0.0654796 0.12064 0.991151 
0.07011 0.117247 0.991323 
0.0687573 0.112265 0.991942 
0.0787594 0.108003 0.991718 
0.0680158 0.0986655 0.993475 
0.065924 0.0911723 0.994514 
0.0492602 0.103904 0.994406 
0.0463049 0.124662 0.992245 
0.0324778 0.162839 0.987234 
0.00419564 0.207289 0.979281 
-0.0275573 0.233722 0.972846 
-0.075031 0.264204 0.962391 
-0.120508 0.279423 0.953378 
-0.180443 0.28147 0.943265 
-0.213005 0.265042 0.941188 
-0.261639 0.261641 0.92983 
-0.285557 0.243699 0.927573 
-0.320554 0.216667 0.922869 
-0.365922 0.194738 0.910843 
-0.414599 0.215328 0.885089 
-0.445011 0.286856 0.849167 
-0.332449 0.412731 0.848486 
-0.241905 0.525529 0.816404 
-0.0766573 0.708259 0.702235 
-0.00759581 0.800364 0.599524 
0.0702216 0.905032 0.41954 
0.163939 0.976275 0.136154 
0.238333 0.958114 -0.155122 
0.35065 0.857903 -0.373271 
0.487296 0.701583 -0.518538 
0.478121 0.555184 -0.680074 
0.444618 0.391207 -0.805896 
0.414629 0.30566 -0.857209 
0.305732 0.268844 -0.913755 
0.426402 0.260457 -0.866623 
0.365497 0.267734 -0.891664 
0.291791 0.274993 -0.91679 
0.335824 0.293731 -0.895728 
0.235095 0.291796 -0.927967 
0.179068 0.279268 -0.944094 
0.152022 0.280391 -0.948616 
0.115751 0.263902 -0.958481 
0.0714191 0.238575 -0.969577 
0.00257558 0.185389 -0.983518 
-0.0287675 0.141054 -0.990851 
-0.0536496 0.0996176 -0.994748 
-0.0594791 0.0847604 -0.995684 
-0.0643643 0.088113 -0.994993 
-0.0807134 0.100088 -0.992293 
-0.0754751 0.10546 -0.992219 
-0.0757218 0.11392 -0.991197 
-0.0746249 0.11274 -0.991514 
-0.0681625 0.113709 -0.991885 
-0.0593919 0.100608 -0.994004 
-0.0596387 0.0788358 -0.996158 
-0.0560313 0.070874 -0.996844 
-0.0501652 0.04786 -0.998574 
-0.0651218 0.0540455 -0.997224 
-0.0644784 0.0503843 -0.997343 
-0.0768023 0.0561058 -0.996374 
-0.0665377 0.0387481 -0.997893 
-0.0742599 -0.0096218 -0.998509 
-0.0522358 -0.051607 -0.998527 
-0.0595368 -0.0633132 -0.997515 
-0.112133 -0.092083 -0.990623 
-0.183982 -0.0495586 -0.98216 
0.0412626 -0.140893 0.988628 
0.0257868 -0.126307 0.992634 
0.0288286 -0.124181 0.992775 
0.0564524 -0.0567885 0.997846 
0.0453687 0.000972292 1.00033 
0.0791106 0.0352803 0.99732 
0.0522584 0.0336107 0.999004 
0.0506389 0.0311731 0.998906 
0.05238 0.048297 0.998078 
0.0485712 0.0754892 0.996952 
0.0634266 0.100745 0.993793 
0.0687171 0.116969 0.991615 
0.0661251 0.117933 0.991595 
0.0504807 0.123074 0.991859 
0.0566497 0.11654 0.992236 
0.0559679 0.116014 0.992292 
0.0506383 0.107051 0.993609 
0.043746 0.0987132 0.99492 
0.0417508 0.103894 0.994642 
0.0231939 0.11754 0.993878 
0.00559211 0.153624 0.989258 
-0.0208915 0.207283 0.979175 
-0.0787155 0.260632 0.963216 
-0.127078 0.292463 0.948735 
-0.179808 0.312665 0.933546 
-0.25766 0.334365 0.907446 
-0.30936 0.32279 0.895347 
-0.363235 0.30158 0.882355 
-0.421239 0.275539 0.864733 
-0.462372 0.244034 0.853059 
-0.469207 0.204222 0.859897 
-0.58516 0.187368 0.78968 
-0.592591 0.21888 0.77596 
-0.699394 0.213747 0.682117 
-0.503809 0.34257 0.793729 
-0.278929 0.531516 0.799477 
-0.145286 0.62646 0.76692 
0.0359823 0.790176 0.61033 
0.137684 0.917146 0.372701 
0.259556 0.943801 0.201521 
0.328646 0.941063 -0.0670976 
0.514372 0.8535 -0.0607181 
0.501506 0.812263 -0.294067 
0.649501 0.605957 -0.457696 
0.595846 0.47016 -0.650567 
0.616292 0.343267 -0.708887 
0.566455 0.275164 -0.777405 
0.61546 0.265079 -0.742117 
0.525678 0.270035 -0.807305 
0.458099 0.290323 -0.840555 
0.395618 0.324926 -0.859768 
0.358627 0.337224 -0.871023 
0.289368 0.327539 -0.900399 
0.275224 0.346581 -0.897577 
0.212847 0.32726 -0.92162 
0.147549 0.298328 -0.94406 
0.0759184 0.238767 -0.969074 
0.018894 0.18828 -0.982818 
-0.0124979 0.13243 -0.992428 
-0.0386946 0.0949406 -0.995801 
-0.0390894 0.0851301 -0.996329 
-0.0523615 0.0967826 -0.994738 
-0.0611886 0.108604 -0.992828 
-0.0529894 0.110133 -0.993169 
-0.0537052 0.108257 -0.993399 
-0.0532159 0.100033 -0.994384 
-0.046091 0.0870024 -0.996076 
-0.0444059 0.0700536 -0.997449 
-0.0483852 0.0634987 -0.997689 
-0.0375312 0.0476728 -0.998944 
-0.053139 0.0432691 -0.998449 
-0.0509259 0.0383052 -0.999105 
-0.0351872 0.0073724 -1.00018 
-0.0501817 0.00924292 -0.9999 
-0.0369236 -0.0265395 -1.00005 
-0.0350125 -0.0531855 -0.998943 
-0.0359106 -0.0769117 -0.997612 
-0.0623148 -0.117327 -0.992609 
-0.0445837 -0.119104 -0.991677 
0.00898464 -0.152039 0.988232 
0.0188395 -0.143994 0.989584 
0.02325 -0.0795331 0.997776 
0.0359749 -0.050428 0.999498 
0.0427331 -0.0262804 0.999816 
0.0491795 0.0199693 0.999583 
0.040396 0.0178747 0.999864 
0.0400923 0.032457 0.999785 
0.0425291 0.0620914 0.998088 
0.0484776 0.0610983 0.997737 
0.0411805 0.0757491 0.997359 
0.0504418 0.0809661 0.996172 
0.0511334 0.113928 0.993183 
0.0567957 0.118242 0.992143 
0.0401691 0.120492 0.99255 
0.0395934 0.123978 0.992188 
0.0373817 0.115706 0.993214 
0.0339809 0.110579 0.993965 
0.0230129 0.107151 0.994852 
0.0148308 0.120633 0.993636 
-0.0085735 0.176067 0.985523 
-0.0458329 0.234273 0.972227 
-0.120347 0.307716 0.94494 
-0.187637 0.357264 0.915986 
-0.249355 0.374235 0.894114 
-0.328984 0.399965 0.856315 
-0.388814 0.3887 0.836193 
-0.45417 0.375367 0.808912 
-0.507394 0.341133 0.792147 
-0.563704 0.295217 0.772149 
-0.61281 0.239505 0.753815 
-0.662006 0.192791 0.725005 
-0.763211 0.161022 0.6264 
-0.841672 0.157679 0.517306 
-0.601324 0.310753 0.736227 
-0.58211 0.33827 0.738018 
-0.270696 0.535619 0.802245 
-0.326387 0.497116 0.803662 
0.151661 0.842438 0.514356 
0.277484 0.860624 0.428906 
0.423196 0.885127 0.184291 
0.735883 0.674296 -0.0332391 
0.723594 0.639098 -0.258864 
0.822773 0.485864 -0.289714 
0.740873 0.441139 -0.505433 
0.784232 0.324598 -0.528508 
0.722905 0.278078 -0.632253 
0.779565 0.275313 -0.563402 
0.684934 0.292774 -0.667327 
0.597213 0.320005 -0.736048 
0.508892 0.340436 -0.79119 
0.490381 0.394158 -0.778135 
0.417925 0.404662 -0.814252 
0.386697 0.430152 -0.816502 
0.308445 0.409392 -0.859481 
0.236428 0.383756 -0.893621 
0.14385 0.318887 -0.937844 
0.0807819 0.257195 -0.964043 
0.0232565 0.184087 -0.983765 
-0.00841912 0.122398 -0.993607 
-0.0322562 0.09731 -0.995744 
-0.0311527 0.0988217 -0.995423 
-0.0427311 0.105386 -0.994266 
-0.0436333 0.10565 -0.994154 
-0.0426283 0.105494 -0.994207 
-0.0426281 0.102964 -0.994597 
-0.0362952 0.0883262 -0.996372 
-0.0315511 0.071364 -0.997909 
-0.0421846 0.062431 -0.998076 
-0.031802 0.0479157 -0.99919 
-0.0345831 0.0404249 -0.99937 
-0.0382856 0.0346051 -0.999576 
-0.0371792 0.0155617 -1.00036 
-0.0446368 -0.00157441 -1.0001 
-0.0419848 -0.0431955 -0.998961 
-0.0201604 -0.0494651 -0.999818 
-0.0271882 -0.0811311 -0.997541 
-0.0579678 -0.11649 -0.992607 
-0.0207194 -0.143404 -0.989057 
0.027429 -0.136154 0.990328 
0.00168257 -0.100519 0.995731 
0.0162801 -0.118973 0.994169 
0.0229358 -0.0708261 0.998316 
0.0265666 -0.0429231 1.00004 
0.0422466 -0.00751597 1.00052 
0.030206 0.0266373 1.00022 
0.0239114 0.0402205 0.999924 
0.0225856 0.0507804 0.999295 
0.0390832 0.0616386 0.998498 
0.0328877 0.0803794 0.997221 
0.0488748 0.0867558 0.996162 
0.0435868 0.116663 0.992993 
0.0307621 0.117366 0.993562 
0.0143334 0.12329 0.993135 
0.0234599 0.123554 0.992737 
0.0221096 0.112979 0.994046 
0.0147808 0.10893 0.994775 
-0.000848421 0.126565 0.99296 
-0.0167817 0.161366 0.987905 
-0.0541476 0.230055 0.972772 
-0.0966719 0.292956 0.952268 
-0.165069 0.372454 0.914246 
-0.233027 0.424583 0.875881 
-0.30173 0.452618 0.840092 
-0.387235 0.483921 0.785666 
-0.45801 0.469547 0.755513 
-0.539777 0.45192 0.711038 
-0.611751 0.388024 0.689935 
-0.690641 0.318104 0.650019 
-0.769031 0.258663 0.585171 
-0.822492 0.196854 0.534113 
-0.914094 0.149271 0.377542 
-0.980163 0.130088 0.148948 
-0.859617 0.169033 0.482149 
-0.868 0.179639 0.461073 
-0.816184 0.21215 0.540124 
-0.821952 0.231153 0.517574 
-0.294074 0.501762 0.811795 
0.287576 0.793765 0.532211 
0.66886 0.717263 0.185339 
0.851094 0.482494 0.200771 
0.874938 0.480891 -0.0180583 
0.935373 0.350353 -0.0431592 
0.89433 0.343179 -0.28562 
0.923347 0.284025 -0.25732 
0.874924 0.266146 -0.404675 
0.841277 0.315535 -0.439035 
0.769371 0.357354 -0.530022 
0.672678 0.380222 -0.635344 
0.607171 0.418581 -0.676073 
0.514051 0.480101 -0.711349 
0.468288 0.518905 -0.715904 
0.387261 0.499877 -0.775448 
0.306707 0.461056 -0.833583 
0.217392 0.405506 -0.888788 
0.151642 0.351628 -0.92484 
0.0922598 0.280634 -0.956413 
0.0408312 0.193321 -0.981381 
0.0127811 0.134349 -0.991948 
-0.0020566 0.103689 -0.995553 
-0.0172154 0.100785 -0.995552 
-0.0136882 0.107323 -0.99489 
-0.0227785 0.108847 -0.994514 
-0.023718 0.106501 -0.994809 
-0.0197718 0.0975497 -0.995939 
-0.0172516 0.0777228 -0.997799 
-0.0184116 0.0601269 -0.998979 
-0.0193749 0.0473594 -0.999453 
-0.0128166 0.0446503 -0.999875 
-0.0208801 0.0351152 -1.00002 
-0.0218628 0.0237725 -1.00021 
-0.0262181 0.00407066 -1.00055 
-0.0262846 -0.00829082 -1.00064 
-0.026537 -0.0192838 -1.00058 
-0.0148728 -0.100089 -0.995907 
-0.0151538 -0.125704 -0.993149 
-0.0371913 -0.124632 -0.992387 
-0.0127208 -0.151357 -0.988209 
0.0352613 -0.146381 0.9886 
0.0201154 -0.114154 0.994177 
0.0101792 -0.0733582 0.998352 
0.0111562 -0.0529663 0.999625 
0.0301996 -0.0111456 1.00049 
0.0250767 -0.000755397 1.00076 
0.0237345 0.02112 1.00034 
0.00923765 0.0217521 1.00081 
0.0167403 0.043628 0.999706 
0.00941296 0.0598398 0.999129 
0.00970093 0.0773338 0.998058 
0.0205653 0.0957633 0.996055 
0.0160947 0.0993579 0.995836 
0.0203896 0.110471 0.994555 
0.00935451 0.120689 0.993297 
-0.00115125 0.123641 0.993033 
-0.000420204 0.117375 0.993686 
-0.00438573 0.114933 0.994194 
-0.0119958 0.12513 0.993037 
-0.0344042 0.174337 0.98517 
-0.0691347 0.257642 0.96486 
-0.120024 0.347059 0.931215 
-0.185372 0.440688 0.879436 
-0.255805 0.497416 0.830054 
-0.324878 0.521434 0.789867 
-0.405789 0.557349 0.725027 
-0.488861 0.552255 0.675925 
-0.567744 0.548435 0.614327 
-0.644198 0.485819 0.591299 
-0.729251 0.414351 0.544941 
-0.821999 0.359999 0.441266 
-0.897895 0.278002 0.34144 
-0.953506 0.201905 0.222643 
-0.977386 0.181044 -0.110119 
-0.988941 0.116027 0.0914348 
-0.994722 0.100765 -0.0175131 
-0.990284 0.122686 0.0432225 
-0.904646 0.193799 0.377399 
-0.405989 0.45421 0.789545 
0.255207 0.681971 0.681587 
0.670618 0.626896 0.391904 
0.744339 0.443272 0.496723 
0.899276 0.320263 0.293987 
0.907738 0.260389 0.328141 
0.958376 0.281259 0.0385825 
0.959557 0.282194 0.0163798 
0.923322 0.29561 -0.244839 
0.912767 0.375207 -0.161616 
0.854522 0.441632 -0.273544 
0.766228 0.448766 -0.460626 
0.697275 0.502804 -0.511233 
0.599677 0.496486 -0.628276 
0.554681 0.575114 -0.601814 
0.453786 0.60009 -0.659217 
0.361823 0.557592 -0.747696 
0.279737 0.498633 -0.821286 
0.212325 0.458967 -0.863825 
0.144696 0.38086 -0.914304 
0.0778788 0.267883 -0.961312 
0.0414052 0.192256 -0.98155 
0.017795 0.1322 -0.992077 
0.0100075 0.104825 -0.995301 
0.00770099 0.104114 -0.995285 
0.00636239 0.10818 -0.994794 
-0.00545129 0.113366 -0.99429 
-0.00794331 0.100176 -0.995823 
-0.00122095 0.0860717 -0.997276 
-0.00925066 0.0618491 -0.999065 
0.000780279 0.0487004 -0.999823 
-0.00308332 0.0355685 -0.999981 
-0.00429032 0.0312751 -1.00039 
-0.00705426 0.0292079 -1.00039 
-0.0133508 0.00610359 -1.00077 
-0.0195545 -0.0142403 -1.00073 
-0.0126079 -0.030936 -1.00033 
-0.0116315 -0.0398528 -1.00016 
-0.0107591 -0.0726092 -0.998231 
-0.0114448 -0.108835 -0.994873 
-0.0106513 -0.149606 -0.988642 
0.0316436 -0.143249 0.989214 
0.0219249 -0.0921054 0.996891 
0.0213131 -0.092029 0.996452 
0.0201175 -0.0565655 0.999125 
0.00289213 -0.0277141 1.00059 
0.0154319 -0.00953801 1.00073 
0.0109971 0.0079777 1.00082 
0.011026 0.0340389 1.00024 
0.0143736 0.0504504 0.999566 
0.00651606 0.0680867 0.998533 
-0.000593192 0.0712204 0.998284 
0.0034769 0.0792065 0.997812 
0.0027759 0.0996929 0.995935 
-0.00145446 0.121061 0.993473 
-0.0107543 0.12145 0.993371 
-0.0236784 0.114943 0.993788 
-0.0182127 0.113184 0.994167 
-0.0276847 0.119532 0.99335 
-0.0333112 0.156016 0.988184 
-0.059799 0.238092 0.970423 
-0.101403 0.352266 0.931461 
-0.148831 0.446402 0.88355 
-0.218925 0.531232 0.819596 
-0.288669 0.585644 0.758363 
-0.355614 0.613773 0.705372 
-0.439797 0.642671 0.627596 
-0.517189 0.649847 0.557215 
-0.602474 0.638817 0.478724 
-0.679007 0.605894 0.414271 
-0.75636 0.517243 0.400282 
-0.859073 0.459227 0.225395 
-0.926544 0.36917 0.0702911 
-0.950378 0.286409 -0.123031 
-0.845926 0.226551 -0.483326 
-0.944121 0.127808 -0.304306 
-0.915579 0.0843626 -0.392968 
-0.974836 0.10865 -0.191582 
-0.977593 0.160974 0.119191 
-0.607573 0.294518 0.733828 
-0.140856 0.429421 0.888867 
0.436335 0.497454 0.746736 
0.482061 0.391392 0.782184 
0.745495 0.268141 0.609063 
0.769964 0.202 0.605089 
0.899676 0.263426 0.347838 
0.833334 0.320658 0.452787 
0.935894 0.336134 0.101957 
0.878349 0.432818 0.204139 
0.859109 0.511853 0.00726985 
0.79446 0.548916 -0.260029 
0.713012 0.609867 -0.346114 
0.640199 0.591972 -0.490057 
0.528429 0.659582 -0.535078 
0.424966 0.662954 -0.616499 
0.340708 0.620912 -0.706451 
0.27203 0.571056 -0.775546 
0.19723 0.508448 -0.839222 
0.134119 0.391018 -0.911671 
0.0922457 0.305248 -0.948706 
0.0553491 0.208988 -0.977552 
0.0293975 0.136058 -0.991075 
0.022246 0.108183 -0.994825 
0.015715 0.103004 -0.995253 
0.0171558 0.10784 -0.994672 
0.0176947 0.109283 -0.994615 
0.0147889 0.100497 -0.995703 
0.00212418 0.0734317 -0.998251 
0.00386611 0.0489489 -0.999749 
0.00138611 0.0422223 -0.999884 
-0.0012898 0.0404922 -0.999875 
-0.00121344 0.0283199 -1.00025 
-0.0055656 0.0249067 -1.00046 
0.000927208 0.0125686 -1.00082 
-0.00195712 -0.00902639 -1.00066 
-0.0105597 -0.038071 -1.00002 
-0.0121006 -0.0489427 -0.999529 
-0.0139798 -0.088095 -0.99681 
-0.0118303 -0.111608 -0.994527 
-0.00820986 -0.145509 -0.98933 
0.026222 -0.138781 0.990122 
0.023355 -0.0995417 0.995086 
0.0165926 -0.0756235 0.997916 
0.0125788 -0.0492342 0.999532 
0.0108557 -0.0323513 1.00022 
0.00835002 -0.00790984 1.00073 
0.0101116 0.000744188 1.00079 
0.00509914 0.0196424 1.00071 
0.00339217 0.0560474 0.999423 
0.0019273 0.0645272 0.998712 
-0.00806891 0.0733276 0.997994 
-0.0152181 0.0873248 0.996947 
-0.0262387 0.103484 0.995084 
-0.0232583 0.115861 0.99386 
-0.0333327 0.117285 0.993095 
-0.0374706 0.110274 0.993832 
-0.0346748 0.11019 0.994213 
-0.0372598 0.137755 0.990627 
-0.0483039 0.19541 0.980464 
-0.0738293 0.3003 0.95193 
-0.107015 0.412268 0.905655 
-0.161593 0.514983 0.842732 
-0.227127 0.596379 0.770829 
-0.282255 0.662846 0.694176 
-0.3652 0.691056 0.624159 
-0.432961 0.734719 0.522728 
-0.506955 0.745854 0.432588 
-0.580235 0.74773 0.322913 
-0.680421 0.692565 0.238074 
-0.784615 0.601832 0.147534 
-0.84104 0.531649 -0.0994374 
-0.846414 0.421126 -0.324856 
-0.71459 0.333131 -0.61875 
-0.599744 0.155771 -0.787268 
-0.793239 0.122317 -0.597682 
-0.783176 0.056184 -0.619768 
-0.902856 0.135304 -0.405327 
0.399624 0.265479 0.876609 
0.519332 0.114265 0.846906 
0.711023 0.21221 0.672338 