# vtk DataFile Version 3.0 
Exported using Morpho https://github.com/Morpho-lang/morpho 
ASCII 
DATASET UNSTRUCTURED_GRID 

POINTS 1978 float 
-8.48509 -2.82819 4.14879e-07 
-8.3156 -2.82819 -2.00279e-06 
-8.14382 -2.828 3.63449e-07 
-7.37353 -2.82795 3.356e-06 
-7.04784 -2.82814 -4.23047e-06 
-6.86777 -2.82825 1.01012e-06 
-6.70907 -2.82824 -2.44097e-07 
-6.47516 -2.82819 -8.10093e-07 
-6.31568 -2.8283 4.48481e-06 
-6.17236 -2.82829 7.29059e-07 
-6.00449 -2.82819 -5.3201e-06 
-5.80276 -2.82821 6.58301e-06 
-5.45462 -2.82819 2.23619e-06 
-5.27553 -2.82819 -2.67652e-06 
-5.08573 -2.82821 5.64709e-06 
-4.90637 -2.82822 -5.44028e-08 
-4.71938 -2.82817 -8.26868e-08 
-4.46277 -2.82816 4.2316e-06 
-4.23708 -2.82819 4.52596e-06 
-3.99755 -2.82821 3.55515e-06 
-3.77133 -2.82822 6.79779e-06 
-3.58719 -2.82824 1.16698e-05 
-3.41018 -2.82825 1.74557e-05 
-3.24842 -2.8283 2.36634e-05 
-3.08248 -2.82828 3.08448e-05 
-2.91404 -2.82831 4.55775e-05 
-2.72527 -2.8283 5.41088e-05 
-2.52595 -2.82832 6.45558e-05 
-2.29296 -2.8283 8.90276e-05 
-2.02566 -2.82832 0.000101664 
-1.7596 -2.82834 0.000107514 
-1.51894 -2.82835 9.25736e-05 
-1.22623 -2.82833 8.76093e-05 
-0.977734 -2.82834 7.8309e-05 
-0.76769 -2.82841 6.06619e-05 
-0.610664 -2.82846 1.40346e-05 
-0.415285 -2.82847 3.98876e-06 
-0.246615 -2.82843 5.09735e-06 
-0.111332 -2.82853 1.05664e-05 
0.0228863 -2.82847 3.47901e-05 
0.176465 -2.8285 3.5686e-05 
0.337429 -2.82849 3.47855e-05 
0.470678 -2.82848 -7.00379e-06 
0.578049 -2.8285 -3.53869e-05 
0.747795 -2.82851 -6.75258e-05 
0.924851 -2.82851 -9.93748e-05 
1.15034 -2.8285 -0.000148738 
1.5531 -2.82839 -0.000167872 
1.81459 -2.82837 -0.000131115 
2.09112 -2.82838 -0.000126001 
2.33789 -2.82835 -8.81925e-05 
2.50104 -2.8283 -7.57966e-05 
2.75883 -2.82833 -6.4242e-05 
2.9523 -2.82828 -4.45517e-05 
3.12647 -2.82829 -3.30158e-05 
3.28447 -2.82829 -2.08053e-05 
3.43439 -2.82828 -1.67826e-05 
3.64881 -2.82822 -9.83621e-06 
3.893 -2.82812 -9.82351e-06 
4.18537 -2.82814 -6.93849e-06 
4.40578 -2.82823 -1.62216e-06 
4.61683 -2.82817 -1.8392e-06 
4.80453 -2.82821 -3.09675e-06 
4.98106 -2.8282 5.42672e-08 
5.17027 -2.8282 1.22074e-06 
5.38121 -2.82822 1.39918e-06 
5.54812 -2.82826 -3.24124e-06 
5.71894 -2.82824 1.47104e-06 
5.8971 -2.82825 -1.16261e-06 
6.09134 -2.82829 1.95421e-06 
6.23307 -2.82827 -3.68501e-06 
6.43606 -2.82826 -4.52309e-06 
6.61864 -2.8282 -2.99692e-06 
6.82566 -2.82812 6.18661e-06 
7.24601 -2.82822 6.26243e-06 
7.42792 -2.82815 -2.10498e-05 
7.71825 -2.82799 -4.63537e-06 
8.11037 -2.82796 -5.89263e-06 
8.48525 -2.82826 1.69414e-05 
-8.48519 -2.66819 2.49321e-06 
-8.18339 -2.53988 1.1628e-06 
-7.99321 -2.76032 -1.9281e-06 
-7.91623 -2.6136 2.79773e-06 
-7.63614 -2.71923 1.76404e-06 
-6.82912 -2.50133 -6.91509e-07 
-6.60814 -2.6331 -8.69087e-07 
-6.41829 -2.54536 1.0752e-07 
-6.25683 -2.495 -5.90309e-07 
-6.41467 -2.27137 6.28373e-07 
-6.08806 -2.54153 1.42764e-07 
-5.65234 -2.69829 -3.2844e-06 
-5.45307 -2.57258 -6.24813e-07 
-5.26643 -2.57949 -5.62392e-07 
-5.08958 -2.57228 7.50232e-08 
-4.90999 -2.57776 3.71977e-07 
-4.73727 -2.55239 -2.7877e-07 
-4.55375 -2.62621 -4.12545e-07 
-4.32352 -2.5915 8.96691e-08 
-4.09731 -2.59847 4.36297e-07 
-3.88069 -2.59486 1.97416e-06 
-3.68454 -2.58324 2.28262e-06 
-3.50251 -2.61477 1.67413e-06 
-3.32727 -2.63128 6.87753e-07 
-3.15875 -2.65335 -9.1614e-07 
-2.98597 -2.6654 -3.50028e-06 
-2.8056 -2.68028 -2.58641e-06 
-2.60812 -2.68385 -5.87238e-07 
-2.40009 -2.68854 -1.31517e-06 
-2.15205 -2.68841 -4.06273e-06 
-1.7953 -2.67879 2.50671e-06 
-1.46779 -2.64883 1.71349e-06 
-1.19816 -2.64453 2.1378e-06 
-1.00392 -2.60104 -3.75384e-06 
-0.830024 -2.66983 -5.01868e-06 
-0.637486 -2.65347 1.26742e-05 
-0.470628 -2.71192 4.48029e-06 
-0.274792 -2.70317 2.01172e-06 
-0.108943 -2.7059 1.37205e-05 
0.0642731 -2.72366 6.39542e-06 
0.241529 -2.71036 2.07498e-05 
0.396355 -2.67846 1.07402e-05 
0.530204 -2.59996 1.339e-05 
0.669715 -2.65884 1.89278e-05 
0.851171 -2.64125 -5.019e-06 
1.04945 -2.67327 7.21403e-06 
1.31374 -2.73438 -7.23762e-06 
1.68233 -2.68957 -3.08188e-06 
1.95908 -2.70783 -3.92083e-07 
2.2548 -2.69712 5.1484e-06 
2.47507 -2.63073 1.37854e-07 
2.65063 -2.71783 1.30061e-07 
2.87184 -2.68754 -1.30191e-06 
3.07398 -2.66166 4.59046e-06 
3.26487 -2.62788 -1.81674e-07 
3.43992 -2.5947 2.13703e-07 
3.60898 -2.62674 6.58312e-07 
3.83197 -2.624 -4.79841e-07 
4.09015 -2.6369 1.61509e-07 
4.35012 -2.57933 -2.76475e-07 
4.56906 -2.57892 1.23608e-07 
4.76967 -2.57994 6.89589e-07 
4.95999 -2.58587 1.58582e-07 
5.15065 -2.61212 -1.07222e-07 
5.36196 -2.62995 1.20049e-06 
5.58149 -2.57661 1.18894e-06 
5.77968 -2.5697 6.25317e-07 
5.97892 -2.59295 9.55946e-07 
6.14658 -2.4905 1.81594e-07 
6.32702 -2.58814 -8.95892e-08 
6.53203 -2.55931 5.54278e-07 
6.73253 -2.58376 9.01735e-07 
6.99826 -2.69805 1.69027e-06 
7.21524 -2.57631 8.9594e-07 
7.59626 -2.60656 -1.02303e-06 
7.80948 -2.42359 -1.44761e-06 
8.09839 -2.3499 -4.6028e-07 
7.91997 -2.65431 2.60953e-06 
8.48531 -2.97776 3.49006e-05 
-8.48507 -2.49872 -1.30283e-07 
-8.21831 -2.3509 -1.06677e-06 
-8.09716 -2.18819 -1.52248e-07 
-7.90966 -2.42723 2.67877e-07 
-7.58706 -2.55145 1.3611e-07 
-7.27178 -2.67055 -7.72881e-07 
-7.04424 -2.53152 -7.03792e-07 
-6.61638 -2.38474 8.7417e-07 
-6.83786 -2.2566 1.01109e-06 
-6.59496 -2.15222 1.02701e-06 
-6.22114 -2.18721 6.54473e-07 
-5.90318 -2.59678 -1.21295e-06 
-5.661 -2.49547 1.23828e-07 
-5.45338 -2.33254 2.31723e-06 
-5.25756 -2.32471 1.8068e-06 
-5.07067 -2.32528 1.89757e-06 
-4.89036 -2.30981 1.69189e-06 
-4.68396 -2.31796 2.37462e-06 
-4.48551 -2.38321 2.26044e-06 
-4.25924 -2.36309 3.78471e-06 
-4.04592 -2.3596 3.41464e-06 
-3.84066 -2.35712 4.00261e-06 
-3.63389 -2.37615 3.67576e-06 
-3.44901 -2.42233 3.49731e-06 
-3.26699 -2.45522 4.11813e-06 
-3.08996 -2.48898 1.96376e-06 
-2.91145 -2.51418 2.32028e-06 
-2.71834 -2.53908 3.4272e-06 
-2.51302 -2.54128 -7.38624e-07 
-2.26802 -2.55492 -1.0033e-06 
-1.95904 -2.58093 -7.40772e-06 
-1.54881 -2.51433 5.80748e-06 
-1.22034 -2.46793 -4.93518e-06 
-0.982898 -2.39114 2.11262e-06 
-0.774627 -2.48593 7.25374e-06 
-0.573089 -2.49153 1.50062e-06 
-0.388847 -2.6013 -4.86313e-06 
-0.276532 -2.48965 4.72899e-05 
-0.167407 -2.58958 2.01176e-05 
0.00875448 -2.61061 3.10997e-05 
0.178696 -2.5978 8.71965e-06 
0.339067 -2.52891 1.90001e-05 
0.545862 -2.4589 1.52936e-07 
0.737145 -2.4835 1.18231e-05 
0.991358 -2.50054 1.91108e-05 
1.20543 -2.56388 7.23716e-06 
1.45552 -2.62734 3.48962e-06 
1.58891 -2.5061 8.93709e-06 
1.83476 -2.57022 -2.63913e-06 
2.11532 -2.60167 4.31221e-06 
2.355 -2.52339 6.89879e-06 
2.66429 -2.55988 7.08685e-07 
2.85877 -2.55248 1.53135e-06 
3.07026 -2.51004 4.37184e-07 
3.24647 -2.44032 -3.29129e-06 
3.43359 -2.40216 -5.61523e-06 
3.62299 -2.39275 -3.16953e-06 
3.79936 -2.41919 -3.22471e-06 
4.0263 -2.43084 -3.21122e-06 
4.26427 -2.3853 -2.57555e-06 
4.51191 -2.33453 -2.894e-06 
4.71973 -2.32697 -2.0146e-06 
4.91028 -2.33875 -1.91792e-06 
5.1054 -2.36966 -1.78789e-06 
5.29561 -2.41102 -1.45644e-06 
5.4877 -2.38829 -1.13226e-06 
5.70678 -2.34618 -1.50587e-06 
5.93491 -2.33508 -7.4097e-07 
6.15618 -2.25093 -1.01967e-06 
6.37036 -2.33353 -9.49411e-07 
6.5818 -2.30911 -7.79397e-07 
6.78278 -2.31064 -3.98653e-07 
6.94905 -2.47473 4.13612e-08 
7.12755 -2.32742 -3.57563e-07 
7.42272 -2.47795 -2.16555e-07 
7.64588 -2.26769 9.47351e-07 
7.94607 -2.16736 -5.16429e-08 
8.17117 -2.60268 -1.70538e-06 
8.48504 -2.72281 -1.69448e-05 
-8.48459 -2.32527 5.18821e-06 
-8.38509 -2.09989 -2.3573e-06 
-8.27687 -1.87192 -5.53191e-07 
-7.80075 -2.28307 -1.01343e-06 
-7.56025 -2.30706 6.98017e-08 
-7.3429 -2.45956 -8.24827e-09 
-7.19937 -2.27198 -2.27948e-09 
-7.00966 -2.18846 2.59763e-07 
-6.83334 -1.97893 -1.23149e-07 
-6.367 -1.99558 6.44463e-07 
-6.02515 -2.31468 1.69843e-06 
-5.82649 -2.35604 2.14698e-06 
-5.63924 -2.23199 1.06193e-06 
-5.42936 -2.09568 4.63765e-07 
-5.24492 -2.07677 3.47306e-07 
-5.05098 -2.07361 7.74025e-07 
-4.85091 -2.07317 1.04089e-06 
-4.62808 -2.09646 2.09374e-06 
-4.41511 -2.14594 2.77603e-06 
-4.20036 -2.12834 3.73241e-06 
-3.99458 -2.13161 3.8857e-06 
-3.78237 -2.16186 4.18853e-06 
-3.59712 -2.17597 4.82001e-06 
-3.42017 -2.23655 5.52783e-06 
-3.23821 -2.27899 2.7178e-06 
-3.05768 -2.31715 1.74301e-06 
-2.8619 -2.36781 8.8362e-07 
-2.64218 -2.40106 1.14596e-06 
-2.38912 -2.42395 -4.99531e-07 
-2.08031 -2.43002 1.26014e-06 
-1.74576 -2.4544 -5.8988e-06 
-1.43986 -2.36076 -8.25566e-06 
-1.20837 -2.27367 3.02171e-06 
-1.00278 -2.18662 -1.14752e-05 
-0.798106 -2.29352 1.08394e-05 
-0.627552 -2.30643 -3.2862e-05 
-0.439655 -2.44653 -4.95261e-06 
-0.243916 -2.3319 2.13028e-05 
-0.0973451 -2.46322 3.56851e-05 
0.0572443 -2.48064 2.18983e-05 
0.207317 -2.43294 3.90578e-05 
0.326982 -2.27813 4.52188e-05 
0.430383 -2.37842 3.82381e-05 
0.681822 -2.31253 2.82195e-05 
0.871463 -2.38705 -1.70287e-06 
1.1207 -2.36759 8.13222e-06 
1.33861 -2.43792 1.08644e-05 
1.59388 -2.34839 1.16867e-05 
1.85489 -2.41678 1.3842e-05 
2.10485 -2.46547 8.38838e-06 
2.55777 -2.41022 3.27489e-06 
2.73807 -2.38703 3.30223e-06 
2.92395 -2.38552 1.48971e-06 
3.09349 -2.31954 9.07583e-07 
3.27957 -2.24307 -3.68903e-06 
3.45461 -2.20649 -3.62496e-06 
3.63008 -2.19773 -4.0737e-06 
3.83368 -2.19602 -2.99431e-06 
4.01716 -2.22253 -3.58316e-06 
4.25283 -2.17618 -3.97317e-06 
4.47471 -2.1177 -2.96531e-06 
4.70567 -2.08214 -1.71005e-06 
4.91093 -2.08197 -9.46937e-07 
5.09695 -2.13159 -1.34732e-06 
5.29888 -2.16806 -1.08635e-06 
5.51454 -2.16658 -7.09202e-07 
5.76285 -2.13889 -7.42778e-07 
5.98745 -2.08383 -2.1052e-07 
6.30124 -2.06739 -4.84373e-07 
6.5019 -2.07946 -3.56545e-07 
6.72331 -2.05444 -1.53583e-08 
6.96209 -2.1354 -5.39264e-08 
7.20941 -2.06293 -2.5292e-09 
7.3756 -2.24036 2.46208e-07 
7.51841 -2.02248 -3.81118e-08 
7.75681 -2.00494 2.66916e-07 
8.00137 -1.88936 -3.14425e-07 
8.35092 -2.32826 1.43905e-06 
8.48482 -2.51873 -1.65344e-05 
-8.48452 -1.34525 4.69134e-06 
-8.41149 -1.55926 -2.86273e-07 
-8.03308 -1.99605 5.56662e-07 
-7.77327 -2.03379 -1.87028e-07 
[...]
POINT_DATA 1978 
VECTORS vectors float
0.0194346 -0.017262 0.999617 
0.0331869 -0.0262237 0.999052 
0.0238792 -0.0772387 0.996759 
0.0295738 0.0144157 0.999519 
0.018128 0.0444082 0.998832 
0.0244159 0.0671769 0.997433 
0.0239326 0.0789778 0.996575 
0.0276355 0.0868163 0.995832 
0.0333659 0.0985836 0.994575 
0.0308319 0.110444 0.993402 
0.0292333 0.11416 0.993032 
0.0241449 0.125544 0.991796 
0.0259894 0.129063 0.991302 
0.0283986 0.122585 0.992041 
0.0267351 0.120507 0.992333 
0.0293547 0.106793 0.993836 
0.0227895 0.0959219 0.995108 
0.0152186 0.0968369 0.995158 
0.0182518 0.103551 0.994449 
0.0164971 0.130148 0.991344 
0.0185418 0.156847 0.987436 
0.0180671 0.183854 0.982775 
0.0180816 0.203277 0.978942 
0.0185678 0.21757 0.975862 
0.0164462 0.225688 0.974057 
0.0121954 0.228898 0.97337 
0.00817051 0.233235 0.972378 
0.00683091 0.227354 0.97379 
0.0062071 0.218912 0.975729 
0.00496752 0.199365 0.979918 
0.00389302 0.188799 0.982014 
0.00302315 0.191508 0.981486 
0.00717239 0.225954 0.974119 
0.00300659 0.302046 0.953295 
-0.000409372 0.430377 0.902651 
-0.00117691 0.55651 0.830847 
-0.00120193 0.722056 0.691832 
0.00359729 0.865407 0.501057 
0.00767747 0.953076 0.302625 
0.00834967 0.997066 0.0759931 
0.0143488 0.977215 -0.21171 
0.0233019 0.883594 -0.467653 
0.0245842 0.763704 -0.645113 
0.0215766 0.666567 -0.74513 
0.0147686 0.536972 -0.843461 
0.00812659 0.419917 -0.907521 
0.00606264 0.316421 -0.948602 
0.00223543 0.24023 -0.970714 
-0.00230698 0.240066 -0.97076 
-0.00357481 0.249131 -0.968469 
-0.00385865 0.253136 -0.967426 
-0.00543986 0.25338 -0.967353 
-0.00521464 0.244794 -0.969558 
-0.0104763 0.231242 -0.972838 
-0.0135739 0.216753 -0.976128 
-0.0182984 0.197262 -0.980177 
-0.0226836 0.178289 -0.983717 
-0.0184917 0.149891 -0.988527 
-0.0191742 0.118211 -0.992812 
-0.0215212 0.0917266 -0.995549 
-0.0217133 0.0832228 -0.996278 
-0.0234706 0.0900805 -0.995636 
-0.0288289 0.102472 -0.994304 
-0.0226446 0.110169 -0.99363 
-0.0175019 0.118022 -0.992828 
-0.0233523 0.124885 -0.991881 
-0.025409 0.116835 -0.992813 
-0.0248677 0.105368 -0.994109 
-0.0264835 0.0933059 -0.995278 
-0.0282764 0.0728982 -0.996936 
-0.0260695 0.0647094 -0.997553 
-0.0234083 0.0573647 -0.998058 
-0.0291014 0.0532637 -0.998148 
-0.0309377 0.0440341 -0.998549 
-0.0365069 0.00892663 -0.999297 
-0.0300057 0.000433468 -0.999551 
-0.0211037 -0.0432894 -0.998849 
-0.0476325 -0.0517704 -0.997518 
-0.00653427 -0.0635519 -0.997761 
-0.00801803 -0.0223042 0.999668 
0.00794081 -0.0436301 0.998973 
0.0255314 -0.0622479 0.997735 
0.00682088 -0.0552022 0.998381 
0.0127045 -0.0269468 0.999516 
0.0345237 0.0593136 0.997632 
0.0289711 0.0739635 0.996813 
0.0412226 0.0853393 0.99549 
0.0414506 0.0915182 0.994934 
0.0534752 0.0755622 0.995725 
0.0413033 0.100352 0.994099 
0.0228001 0.12451 0.991927 
0.0385052 0.120908 0.991927 
0.0386683 0.11578 0.992498 
0.0400769 0.110884 0.993023 
0.0390561 0.104189 0.993788 
0.0351837 0.100026 0.99436 
0.0260216 0.0986791 0.994755 
0.0231191 0.105332 0.994163 
0.0153344 0.12367 0.992202 
0.00508067 0.151134 0.98851 
-0.0138003 0.181075 0.983384 
-0.0305729 0.205602 0.978155 
-0.0516659 0.226085 0.972728 
-0.0695338 0.237519 0.968883 
-0.0906687 0.240529 0.966376 
-0.102295 0.238395 0.965756 
-0.118691 0.235237 0.964667 
-0.14015 0.226985 0.963769 
-0.165802 0.214185 0.962616 
-0.184661 0.188082 0.964647 
-0.206116 0.187905 0.960332 
-0.19266 0.225354 0.955013 
-0.220008 0.283863 0.933293 
-0.13318 0.380613 0.915114 
-0.096818 0.515711 0.851268 
-0.0304771 0.663274 0.747753 
0.0104305 0.826636 0.562612 
0.057006 0.949219 0.309397 
0.0833477 0.996417 0.0126831 
0.130437 0.941688 -0.310119 
0.188938 0.834214 -0.517987 
0.293446 0.726085 -0.621831 
0.232319 0.602355 -0.763666 
0.247944 0.462054 -0.851446 
0.219639 0.359009 -0.907126 
0.13034 0.280117 -0.951085 
0.184078 0.241454 -0.952786 
0.14998 0.247323 -0.957254 
0.155529 0.2556 -0.954192 
0.199763 0.262829 -0.943942 
0.0962111 0.25292 -0.962695 
0.0943252 0.248981 -0.963905 
0.092902 0.237797 -0.966852 
0.0740702 0.220304 -0.972611 
0.0592637 0.201835 -0.977636 
0.0294083 0.173016 -0.984462 
0.00532476 0.137741 -0.990456 
-0.0116231 0.104994 -0.994401 
-0.0242909 0.0911731 -0.995535 
-0.0298476 0.0901974 -0.995456 
-0.033796 0.0976612 -0.994632 
-0.0371865 0.105575 -0.993717 
-0.0355915 0.111353 -0.993126 
-0.0313119 0.115316 -0.992827 
-0.0327495 0.105574 -0.993853 
-0.0326714 0.0945549 -0.994989 
-0.0298123 0.0809575 -0.996251 
-0.0356925 0.0669724 -0.997124 
-0.0327775 0.0592163 -0.997699 
-0.029083 0.0497778 -0.998321 
-0.0263929 0.0443966 -0.998647 
-0.0171824 0.0320322 -0.999306 
-0.02763 0.0165082 -0.99949 
-0.0283776 -0.028992 -0.999184 
-0.0345116 -0.0471799 -0.998317 
-0.017589 -0.0339124 -0.999276 
-0.0341797 -0.0274031 -0.998995 
-0.0493391 0.016406 -0.998722 
-0.00676152 -0.0274773 0.999551 
0.0170147 -0.0321861 0.999302 
0.0277917 -0.0431532 0.998709 
0.0267441 -0.0527594 0.998288 
0.0268458 -0.021945 0.99942 
0.019979 0.0221094 0.999532 
0.0295639 0.0435773 0.998614 
0.0484731 0.0653173 0.996704 
0.0539046 0.049509 0.99733 
0.0577163 0.061632 0.996434 
0.0569091 0.0857278 0.994701 
0.0354065 0.112857 0.992976 
0.0435949 0.11532 0.992373 
0.0605177 0.115677 0.991451 
0.0591953 0.112495 0.991899 
0.0573807 0.107361 0.992572 
0.0540879 0.102516 0.993265 
0.0496259 0.0999113 0.993771 
0.0408446 0.102058 0.993956 
0.0304806 0.11757 0.992621 
0.00823717 0.146586 0.989184 
-0.0216978 0.182228 0.983038 
-0.0601691 0.21908 0.973871 
-0.0916909 0.243757 0.965508 
-0.127558 0.261521 0.956756 
-0.162328 0.270069 0.949064 
-0.193439 0.269083 0.943504 
-0.218174 0.261654 0.940192 
-0.266028 0.255909 0.929382 
-0.299657 0.23831 0.923808 
-0.309232 0.20322 0.929034 
-0.368263 0.177259 0.912677 
-0.395189 0.203063 0.895885 
-0.41939 0.261036 0.869523 
-0.260065 0.373684 0.890361 
-0.174435 0.518871 0.83686 
-0.0446405 0.71089 0.701915 
0.0079845 0.785057 0.619394 
0.068466 0.896441 0.437868 
0.150595 0.977795 0.145793 
0.218185 0.965978 -0.138756 
0.340606 0.878982 -0.333656 
0.455291 0.718037 -0.52641 
0.452164 0.564134 -0.690866 
0.443901 0.394453 -0.804583 
0.361215 0.308064 -0.880112 
0.277818 0.258292 -0.925271 
0.434645 0.251118 -0.864889 
0.3345 0.247141 -0.909408 
0.280702 0.25775 -0.924544 
0.332847 0.278415 -0.900952 
0.232323 0.277116 -0.932334 
0.199639 0.273128 -0.941043 
0.181318 0.272403 -0.944949 
0.16118 0.269162 -0.949529 
0.116449 0.246406 -0.962173 
0.0725234 0.211682 -0.974655 
0.0309912 0.170171 -0.984958 
-0.00466146 0.128804 -0.991678 
-0.0260364 0.106209 -0.99403 
-0.0435063 0.0940171 -0.994641 
-0.0507075 0.0933358 -0.994351 
-0.0551934 0.0977383 -0.993694 
-0.0568105 0.103428 -0.993023 
-0.0534643 0.106258 -0.992911 
-0.0504466 0.100311 -0.993686 
-0.0508968 0.0904762 -0.994608 
-0.0467383 0.0772679 -0.995925 
-0.048861 0.0625438 -0.996851 
-0.0504179 0.0557346 -0.997186 
-0.0507522 0.0469444 -0.997615 
-0.0486305 0.0390515 -0.998066 
-0.0372841 0.0327874 -0.998785 
-0.0462 0.0153855 -0.998819 
-0.0358578 -0.0082451 -0.999329 
-0.0474998 -0.0279619 -0.99849 
-0.0381366 -0.0480397 -0.998145 
-0.0132305 -0.0413629 -0.998963 
0.0383016 -0.0089705 -0.99901 
0.000654471 -0.0351904 0.999512 
0.0139961 -0.0232482 0.999579 
0.00986444 -0.00867761 0.999808 
0.0453413 -0.0422682 0.998086 
0.0482172 -0.0233245 0.998572 
0.035048 0.00789395 0.999355 
0.0505437 0.0227088 0.998474 
0.0538483 0.0377315 0.997846 
0.0440807 0.042374 0.998137 
0.0506672 0.0706801 0.99622 
0.0588223 0.0979098 0.993461 
0.0581481 0.106128 0.992661 
0.0585496 0.108837 0.992345 
0.051426 0.108203 0.992806 
0.0493281 0.108635 0.992862 
0.0477652 0.106026 0.993223 
0.0445096 0.104167 0.993571 
0.0402426 0.106958 0.993456 
0.0302797 0.116596 0.992734 
0.00645698 0.147886 0.989002 
-0.0292509 0.189436 0.98148 
-0.0736945 0.233383 0.969609 
-0.127538 0.278285 0.952009 
-0.17069 0.301183 0.938183 
-0.223836 0.318007 0.921289 
-0.274645 0.322861 0.905736 
-0.316659 0.314117 0.895025 
-0.361085 0.297096 0.883948 
-0.414331 0.270067 0.869144 
-0.462084 0.225874 0.857603 
-0.452313 0.184749 0.872515 
-0.543602 0.174036 0.821111 
-0.595167 0.180824 0.783 
-0.642244 0.196633 0.740834 
-0.446375 0.306458 0.840722 
-0.359793 0.395043 0.84505 
-0.135665 0.623529 0.769971 
0.0070426 0.723076 0.690637 
0.138522 0.896655 0.420478 
0.237662 0.958447 0.157725 
0.361398 0.930652 -0.0570091 
0.534789 0.840403 -0.0876044 
0.508014 0.796924 -0.326791 
0.638083 0.601742 -0.480364 
0.574279 0.473667 -0.667705 
0.61237 0.352166 -0.707796 
0.523959 0.283934 -0.803018 
0.626667 0.261504 -0.734101 
0.531921 0.259687 -0.805999 
0.44741 0.273937 -0.851346 
0.407789 0.316481 -0.856482 
0.366985 0.326535 -0.871039 
0.307732 0.323902 -0.894656 
0.287232 0.335137 -0.897327 
0.245867 0.332678 -0.910435 
0.186594 0.305257 -0.933821 
0.123256 0.260465 -0.957605 
0.066735 0.210309 -0.975373 
0.0198577 0.162394 -0.986561 
-0.0149482 0.127465 -0.991749 
-0.0332535 0.108148 -0.993591 
-0.0418384 0.0967479 -0.994439 
-0.0463284 0.0952325 -0.994382 
-0.05241 0.096833 -0.993927 
-0.0533075 0.0979668 -0.993769 
-0.0500283 0.0927974 -0.994435 
-0.0474091 0.0820689 -0.995505 
-0.0416605 0.0686621 -0.996778 
-0.0424109 0.0517358 -0.997766 
-0.045099 0.0458163 -0.99794 
-0.0424137 0.0363813 -0.998445 
-0.0471164 0.0253644 -0.998579 
-0.0436315 0.0058487 -0.99904 
-0.0478232 -0.00521199 -0.998851 
-0.0410507 -0.0214969 -0.998932 
-0.0414128 -0.0396244 -0.998367 
-0.0325925 -0.0496116 -0.998249 
-0.0153536 -0.0183597 -0.999637 
-0.00145468 -0.0178121 -0.999903 
0.00320666 -0.0450018 0.999068 
0.00872456 -0.029919 0.999549 
0.0297317 -0.0495285 0.998364 
0.0386945 -0.0389435 0.998501 
0.0355988 -0.0210353 0.999153 
0.0467599 -0.00424567 0.998902 
0.0434879 0.0249655 0.998752 
0.0327347 0.0281921 0.999074 
0.0322828 0.0413112 0.99863 
0.0443625 0.052463 0.997647 
0.0392514 0.0786337 0.996138 
0.0507337 0.0883112 0.994811 
0.0541765 0.0954148 0.993968 
0.0470795 0.101889 0.993687 
0.0339121 0.106119 0.993783 
0.0321021 0.106169 0.993834 
0.0284134 0.106261 0.993939 
0.0247439 0.111322 0.993486 
0.0106187 0.130689 0.99138 
-0.0133945 0.163132 0.986527 
-0.055517 0.213633 0.975345 
-0.0995131 0.26077 0.960271 
-0.158401 0.315766 0.935535 
-0.219755 0.356297 0.908173 
-0.275657 0.377149 0.884187 
-0.342181 0.391944 0.853996 
-0.403636 0.384906 0.830028 
-0.457949 0.35674 0.814268 
-0.518187 0.318561 0.79373 
-0.560296 0.262123 0.785716 
-0.607222 0.201633 0.768513 
-0.683618 0.171705 0.709354 
-0.743724 0.1558 0.650084 
-0.821273 0.135034 0.554296 
-0.659461 0.233624 0.714439 
-0.516634 0.318411 0.794804 
-0.200344 0.573471 0.794305 
-0.350975 0.429775 0.831925 
0.134564 0.796779 0.588965 
0.293754 0.909578 0.293331 
0.435892 0.866123 0.244487 
0.742494 0.669525 -0.0203849 
0.690594 0.673879 -0.262511 
0.809448 0.494767 -0.316211 
0.737074 0.434756 -0.517407 
0.768891 0.326021 -0.550003 
0.736584 0.285921 -0.612927 
0.759234 0.275785 -0.58948 
0.672004 0.290505 -0.681197 
0.583484 0.308101 -0.751423 
0.515299 0.323917 -0.79344 
0.496023 0.396392 -0.772561 
0.435549 0.402844 -0.805003 
0.377124 0.40516 -0.832837 
0.338554 0.415017 -0.844478 
0.265363 0.383051 -0.88481 
0.17269 0.313947 -0.933614 
0.12616 0.276712 -0.95264 
0.0732407 0.223769 -0.97189 
0.027642 0.172384 -0.984656 
0.000614473 0.137616 -0.990495 
-0.0196082 0.108689 -0.993896 
-0.0248678 0.0976541 -0.994916 
-0.0294756 0.0959549 -0.994958 
-0.0362012 0.0948298 -0.994842 
-0.0360991 0.0899152 -0.995301 
-0.036754 0.0831251 -0.995869 
-0.0318593 0.0722488 -0.996885 
-0.0301295 0.0564785 -0.997955 
-0.0270531 0.0454747 -0.998607 
-0.0302711 0.0383117 -0.998815 
-0.0327996 0.0260848 -0.999129 
-0.0340909 0.0147017 -0.99932 
-0.0348981 -0.0088172 -0.999361 
-0.0274468 -0.0370333 -0.998944 
-0.0257765 -0.0488978 -0.998489 
-0.0186628 -0.0302388 -0.999402 
-0.0178865 -0.0233598 -0.999517 
0.0026316 -0.0356914 -0.99921 
-0.00290374 -0.0198619 0.999742 
0.0122019 -0.0297752 0.999463 
0.0126526 -0.023904 0.99958 
0.0227041 -0.0485424 0.998586 
0.0240629 -0.0449405 0.998708 
0.0338958 0.00310831 0.999428 
0.0292435 0.0118212 0.99951 
0.0239306 0.0268947 0.999361 
0.0258282 0.0482666 0.998508 
0.0345639 0.0611825 0.997538 
0.0260292 0.0705173 0.997178 
0.0289849 0.085828 0.995896 
0.0375166 0.0932979 0.994938 
0.0337587 0.103458 0.994068 
0.0161675 0.104706 0.99438 
0.0159082 0.106213 0.994224 
0.0104984 0.112557 0.993597 
0.00302737 0.126513 0.991971 
-0.0177402 0.16084 0.986841 
-0.0459952 0.206317 0.977425 
-0.0901545 0.269577 0.958759 
-0.132082 0.313816 0.940267 
-0.195738 0.377931 0.904918 
-0.26109 0.421861 0.868268 
-0.331337 0.450205 0.829186 
-0.40163 0.466799 0.787911 
-0.48315 0.466011 0.741219 
-0.547621 0.431456 0.716916 
-0.61312 0.378147 0.693606 
-0.685133 0.307002 0.660571 
-0.763207 0.244226 0.598226 
-0.827602 0.193186 0.527017 
-0.895797 0.149342 0.418594 
-0.97843 0.127873 0.162253 
-0.911146 0.121874 0.39347 
-0.844687 0.155832 0.512073 
-0.827004 0.171816 0.535359 
-0.680581 0.236874 0.692859 
-0.0640471 0.602312 0.79513 
0.191746 0.710837 0.676536 
0.579923 0.77411 0.253358 
0.836688 0.510618 0.197951 
0.875665 0.478638 -0.0636947 
0.933578 0.356543 -0.0358909 
0.882619 0.360181 -0.302089 
0.908554 0.296661 -0.29411 
0.871796 0.281966 -0.400574 
0.841898 0.319023 -0.435231 
0.770373 0.349538 -0.533242 
0.683278 0.374445 -0.626848 
0.580683 0.387147 -0.716186 
0.533162 0.493048 -0.687483 
0.470077 0.495787 -0.730218 
0.429329 0.515998 -0.741204 
0.320151 0.458975 -0.828774 
0.240245 0.401835 -0.88365 
0.187445 0.363101 -0.912707 
0.129358 0.302857 -0.944232 
0.0745436 0.236963 -0.968669 
0.0385179 0.187542 -0.981521 
0.0103301 0.143445 -0.989622 
-0.00584602 0.112342 -0.993663 
-0.0105954 0.0998097 -0.994957 
-0.014942 0.0948527 -0.995385 
-0.0194415 0.0902903 -0.995735 
-0.0219715 0.0842144 -0.996212 
-0.0217655 0.0768031 -0.996816 
-0.0214289 0.0628275 -0.997802 
-0.0201624 0.0501634 -0.998544 
-0.0161821 0.0387375 -0.999127 
-0.0216625 0.0304336 -0.999309 
-0.023837 0.0192038 -0.999539 
-0.022333 0.00676997 -0.999734 
-0.0239925 -0.0126147 -0.999642 
-0.0194011 -0.0316804 -0.999316 
-0.0203606 -0.0462707 -0.998722 
-0.00643499 -0.0154297 -0.999774 
-0.018246 -0.0256865 -0.999487 
0.00603816 -0.0127232 -0.999996 
-0.00735398 -0.0288541 0.999527 
0.00251135 -0.0328071 0.999406 
0.0163977 -0.0485341 0.998722 
0.0202122 -0.0517892 0.99846 
0.0252311 -0.0245585 0.999385 
0.0242415 -0.00676657 0.999693 
0.0196633 0.0101063 0.999763 
0.0163935 0.0281373 0.999475 
0.0176433 0.0448416 0.998848 
0.0226261 0.0608823 0.997895 
0.0144148 0.0724099 0.997278 
0.0178055 0.0826838 0.996424 
0.0155512 0.0947891 0.995387 
0.0255096 0.100293 0.994638 
0.00567935 0.100859 0.994893 
0.000247793 0.105857 0.994388 
-0.000739264 0.111918 0.993724 
-0.00952824 0.130596 0.991403 
-0.0277528 0.168651 0.985301 
-0.0584332 0.231695 0.971043 
-0.0996811 0.301624 0.948211 
-0.154009 0.371678 0.915508 
-0.212884 0.433968 0.875426 
-0.283479 0.489993 0.824352 
-0.355036 0.527956 0.77151 
-0.427374 0.553447 0.714885 
-0.502357 0.562368 0.656801 
-0.579255 0.542751 0.608185 
-0.649175 0.490949 0.580992 
-0.735193 0.415997 0.535215 
-0.831294 0.357817 0.425333 
-0.908005 0.275104 0.315958 
-0.949869 0.200254 0.240077 
-0.980016 0.177147 -0.0903999 
-0.991451 0.104107 0.0785785 
-0.995448 0.0939284 0.0171179 
-0.985758 0.103521 0.132102 
-0.9238 0.134124 0.358552 
-0.459712 0.334545 0.822483 
0.377916 0.657114 0.652009 
0.689334 0.586102 0.425685 
0.739862 0.409811 0.5335 
0.892971 0.333294 0.302494 
0.916834 0.265789 0.297883 
0.95897 0.281885 0.0304349 
0.959841 0.280442 -0.00708618 
0.919336 0.296597 -0.258541 
0.915365 0.367321 -0.164852 
0.866333 0.422291 -0.266707 
0.765511 0.448212 -0.461633 
0.690382 0.477857 -0.543164 
0.611499 0.489495 -0.621666 
0.560703 0.600486 -0.570106 
0.459233 0.574236 -0.677772 
0.371008 0.556352 -0.743528 
0.292547 0.498067 -0.816302 
0.230757 0.449006 -0.863226 
0.171468 0.383693 -0.907411 
0.115039 0.308007 -0.944418 
0.0771427 0.253612 -0.964231 
0.0426087 0.192379 -0.980409 
0.017442 0.141432 -0.989813 
0.00571979 0.113153 -0.993571 
-0.00113908 0.0979573 -0.995196 
-0.00276187 0.0907818 -0.995872 
-0.00656774 0.0847268 -0.996391 
-0.0064157 0.0778365 -0.996952 
-0.0127108 0.0678354 -0.997623 
-0.0123992 0.0548927 -0.998424 
-0.00863833 0.0435407 -0.99902 
-0.0115546 0.0297892 -0.999499 
-0.0164485 0.0195475 -0.999677 
-0.0141387 0.00604749 -0.999888 
-0.0163555 -0.0109328 -0.999814 
-0.0136026 -0.0298406 -0.999469 
-0.0191063 -0.0528452 -0.998424 
-0.0147547 -0.0521868 -0.998557 
-0.00829162 -0.0350251 -0.999346 
-0.00176345 -0.0141042 -0.999809 
-0.0119553 -0.0365749 0.999243 
0.00756252 -0.0441754 0.999015 
0.010359 -0.0479468 0.998802 
0.0120059 -0.0502812 0.998673 
0.0223377 -0.032924 0.999215 
0.0186076 -0.00948182 0.999791 
0.0152809 0.00746907 0.999863 
0.00842967 0.0293484 0.999543 
0.0063982 0.0437197 0.99903 
0.0106344 0.0569966 0.998324 
0.00293528 0.0709756 0.997481 
0.00259599 0.0848749 0.996394 
0.000124224 0.0924017 0.995728 
-0.00471049 0.096482 0.995328 
-0.00994388 0.102854 0.994654 
-0.0129051 0.110559 0.993793 
-0.0163223 0.12464 0.992076 
-0.028828 0.159675 0.986766 
-0.0505358 0.219718 0.974269 
-0.0828089 0.293972 0.952233 
-0.125573 0.369645 0.92066 
-0.175338 0.436982 0.882219 
-0.239854 0.516824 0.82181 
-0.307175 0.576445 0.757205 
-0.379182 0.614858 0.691502 
-0.458491 0.648699 0.60744 
-0.533467 0.657002 0.532696 
-0.612009 0.646337 0.455743 
-0.694198 0.591314 0.410408 
-0.773422 0.517775 0.365689 
-0.862698 0.459581 0.211058 
-0.926334 0.371026 0.065063 
-0.952743 0.275539 -0.127847 
-0.850824 0.230854 -0.472029 
-0.944686 0.123828 -0.303694 
-0.91142 0.0816669 -0.403274 
-0.940292 0.0819597 -0.330119 
-0.993546 0.0794604 0.0805921 
-0.655112 0.180562 0.733684 
-0.12263 0.37713 0.917989 
0.412028 0.471436 0.779736 
0.463299 0.406408 0.787502 
0.721364 0.280725 0.633082 
0.760976 0.202767 0.616285 
0.895872 0.2634 0.357819 
0.831034 0.325433 0.451093 
0.940711 0.328166 0.0858333 
0.881121 0.425837 0.205641 
0.859627 0.510739 0.0134535 
0.80822 0.533184 -0.249975 
0.733419 0.587384 -0.342142 
0.64428 0.589157 -0.487678 
0.55816 0.674802 -0.482812 
0.465259 0.653486 -0.597043 
0.362447 0.617758 -0.69788 
0.291638 0.575603 -0.763963 
0.224852 0.502819 -0.834636 
0.162016 0.417739 -0.894021 
0.115024 0.352415 -0.928764 
0.0756559 0.274035 -0.958752 
0.0447226 0.199776 -0.978837 
0.0268323 0.151062 -0.988177 
0.0134168 0.111731 -0.993656 
0.00786022 0.0980847 -0.995154 
0.00460717 0.0908589 -0.995859 
0.00156516 0.0847208 -0.99641 
4.6351e-05 0.0756276 -0.997144 
-0.00460351 0.0658802 -0.997821 
-0.00328825 0.0538353 -0.998551 
-0.00429076 0.0327012 -0.999463 
-0.00605518 0.0212431 -0.999762 
-0.00915114 0.011611 -0.999899 
-0.00891441 0.00361904 -0.999959 
-0.0124259 -0.00652089 -0.999912 
-0.0125477 -0.0317552 -0.999425 
-0.0139759 -0.0566787 -0.998302 
-0.0103021 -0.0522967 -0.998586 
-0.00688433 -0.0360079 -0.999294 
-0.000284457 -0.0124297 -0.999819 
-0.0105987 -0.0348301 0.999303 
0.00325406 -0.0470302 0.998874 
0.0121606 -0.0570767 0.998313 
0.0130428 -0.0437195 0.998967 
0.0165106 -0.0307141 0.9994 
0.0138548 -0.011942 0.99984 
0.00971629 0.0102229 0.999907 
0.00699516 0.0224451 0.999731 
0.00268794 0.0409644 0.999161 
-0.000321741 0.0581395 0.998318 
-0.00599406 0.0766741 0.997044 
-0.00594973 0.0859133 0.996293 
-0.00920878 0.0928356 0.995646 
-0.0138192 0.0988172 0.995014 
-0.0184925 0.103869 0.994425 
-0.0208844 0.113888 0.99328 
-0.0263758 0.138449 0.990031 
-0.039124 0.191532 0.980724 
-0.0595425 0.259926 0.963807 
-0.0934659 0.348493 0.932654 
-0.139401 0.442365 0.885971 
-0.186252 0.514068 0.837294 
-0.243133 0.596522 0.764893 
-0.305354 0.666892 0.67972 
-0.365748 0.697832 0.615848 
-0.436839 0.734565 0.519222 
-0.513254 0.750157 0.416934 
-0.604388 0.744597 0.283389 
-0.69193 0.692413 0.204429 
-0.778646 0.616133 0.118669 
-0.835477 0.537565 -0.113962 
-0.85558 0.409739 -0.31637 
-0.695017 0.334824 -0.636288 