# vtk DataFile Version 3.0 
Exported using Morpho https://github.com/Morpho-lang/morpho 
ASCII 
DATASET UNSTRUCTURED_GRID 

POINTS 1978 float 
-8.48528 -2.82843 2.57556e-14 
-8.25971 -2.82843 1.20695e-13 
-8.03366 -2.82843 9.99783e-13 
-7.76519 -2.82843 9.508e-13 
-7.47285 -2.82843 7.74426e-13 
-7.23831 -2.82843 6.44038e-13 
-6.99202 -2.82843 5.4989e-13 
-6.77413 -2.82843 3.60523e-13 
-6.56231 -2.82843 3.50084e-13 
-6.3407 -2.82843 1.54082e-13 
-6.14614 -2.82843 2.2751e-13 
-5.92633 -2.82843 7.29475e-14 
-5.71395 -2.82843 6.82872e-14 
-5.51035 -2.82843 8.06986e-14 
-5.29406 -2.82843 -2.27091e-14 
-5.08268 -2.82843 5.63672e-15 
-4.86565 -2.82843 -4.31833e-14 
-4.65958 -2.82843 -3.80859e-14 
-4.44 -2.82843 -4.82499e-14 
-4.22335 -2.82843 -1.17844e-13 
-4.00515 -2.82843 -1.54516e-13 
-3.79475 -2.82843 -2.44749e-13 
-3.57898 -2.82843 -2.69979e-13 
-3.36573 -2.82843 -3.48021e-13 
-3.14454 -2.82843 -4.5884e-13 
-2.93335 -2.82843 -5.51739e-13 
-2.72223 -2.82843 -6.69979e-13 
-2.52607 -2.82843 -7.78345e-13 
-2.31396 -2.82843 -9.35264e-13 
-2.10341 -2.82843 -1.00135e-12 
-1.89601 -2.82843 -1.01568e-12 
-1.69155 -2.82843 -9.8055e-13 
-1.49012 -2.82843 -9.22118e-13 
-1.27361 -2.82843 -6.32281e-13 
-1.09728 -2.82843 -2.57866e-13 
-0.843623 -2.82843 -2.54082e-13 
-0.63042 -2.82843 3.45013e-14 
-0.445523 -2.82843 -2.58736e-13 
-0.210844 -2.82843 1.70883e-13 
0.0305562 -2.82843 4.57138e-14 
0.219378 -2.82843 8.93892e-14 
0.419045 -2.82843 5.98637e-14 
0.636188 -2.82843 -8.4459e-14 
0.860956 -2.82843 3.34944e-13 
1.06168 -2.82843 2.20885e-13 
1.25774 -2.82843 5.9703e-13 
1.44827 -2.82843 9.35553e-13 
1.69575 -2.82843 9.98225e-13 
1.88518 -2.82843 9.96319e-13 
2.09857 -2.82843 9.66646e-13 
2.32173 -2.82843 9.38179e-13 
2.51423 -2.82843 8.15858e-13 
2.73861 -2.82843 6.69973e-13 
2.95802 -2.82843 6.00652e-13 
3.17232 -2.82843 4.11046e-13 
3.37789 -2.82843 3.23802e-13 
3.60417 -2.82843 2.86115e-13 
3.80693 -2.82843 2.04383e-13 
4.02281 -2.82843 1.81998e-13 
4.24954 -2.82843 1.05631e-13 
4.44837 -2.82843 8.05779e-14 
4.66076 -2.82843 3.54307e-14 
4.86931 -2.82843 5.56257e-14 
5.07281 -2.82843 8.32698e-15 
5.28858 -2.82843 -5.78912e-14 
5.49979 -2.82843 -2.75576e-14 
5.70384 -2.82843 -8.59999e-14 
5.9228 -2.82843 -1.26226e-13 
6.14355 -2.82843 -1.90201e-13 
6.3435 -2.82843 -2.10472e-13 
6.58261 -2.82843 -3.22744e-13 
6.79225 -2.82843 -3.40928e-13 
6.99173 -2.82843 -4.81046e-13 
7.24993 -2.82843 -6.75114e-13 
7.47843 -2.82843 -8.33084e-13 
7.71788 -2.82843 -8.31267e-13 
7.98402 -2.82843 -9.7017e-13 
8.16896 -2.82843 -4.86146e-13 
8.48528 -2.82843 -4.74542e-14 
-8.48528 -2.59198 5.5381e-14 
-8.25346 -2.57841 -1.84645e-14 
-8.00607 -2.60095 -4.50557e-14 
-7.73072 -2.62202 -1.80273e-14 
-7.46989 -2.61928 1.83076e-14 
-7.21829 -2.61571 -1.46568e-14 
-6.98186 -2.5942 -1.73207e-14 
-6.77012 -2.5806 3.66885e-14 
-6.53499 -2.60217 -8.27978e-15 
-6.33142 -2.56568 -8.76204e-15 
-6.10745 -2.59983 3.85328e-14 
-5.89105 -2.58712 2.99354e-14 
-5.68236 -2.5743 2.27436e-14 
-5.46497 -2.59079 1.20824e-14 
-5.24949 -2.58518 -1.36324e-14 
-5.03114 -2.59099 -8.25872e-16 
-4.82036 -2.57927 1.00997e-14 
-4.6016 -2.59445 -1.21961e-14 
-4.38221 -2.59068 -1.97498e-14 
-4.16378 -2.59127 -2.85263e-14 
-3.95258 -2.58061 5.85255e-15 
-3.73992 -2.5866 7.07182e-15 
-3.5273 -2.58648 1.0361e-14 
-3.31026 -2.59721 1.0892e-14 
-3.09759 -2.59188 1.65798e-14 
-2.88515 -2.5963 1.75921e-14 
-2.68344 -2.58476 2.57613e-14 
-2.47371 -2.60568 2.55658e-14 
-2.25658 -2.60282 2.70157e-14 
-2.04797 -2.59792 2.91578e-14 
-1.83625 -2.59712 3.87058e-14 
-1.62242 -2.58773 3.14021e-14 
-1.41637 -2.59512 3.43668e-14 
-1.23502 -2.5214 -5.5217e-15 
-1.01342 -2.62495 7.11897e-15 
-0.785471 -2.58487 -5.71251e-15 
-0.592585 -2.50082 -1.40114e-14 
-0.384818 -2.53747 -4.00966e-14 
-0.162383 -2.53721 -4.76293e-14 
0.0216778 -2.44043 8.40037e-14 
0.204944 -2.49442 -6.98406e-14 
0.39819 -2.51231 5.23312e-14 
0.603201 -2.56976 2.16873e-14 
0.83011 -2.57813 -3.06891e-15 
1.05255 -2.56101 -8.92751e-15 
1.26319 -2.56478 -9.38521e-15 
1.51429 -2.64363 3.92624e-14 
1.72636 -2.58738 -4.87622e-14 
1.93885 -2.61053 -2.03604e-14 
2.16764 -2.62131 -1.80402e-14 
2.37744 -2.58416 -4.22525e-14 
2.58798 -2.60927 -1.41646e-14 
2.80976 -2.60229 -1.89656e-14 
3.01945 -2.59215 -1.70724e-14 
3.22663 -2.58022 -1.35462e-14 
3.44679 -2.60292 -9.05148e-15 
3.65287 -2.57453 -9.51263e-15 
3.86595 -2.58958 -5.95505e-15 
4.09202 -2.60137 2.73082e-14 
4.29955 -2.57028 2.98353e-14 
4.5134 -2.58881 1.41718e-14 
4.72694 -2.58451 -1.51028e-14 
4.9389 -2.5806 -3.55087e-15 
5.15379 -2.59394 7.5596e-15 
5.37287 -2.58923 1.70025e-14 
5.58441 -2.57963 -2.02456e-14 
5.80108 -2.59473 -2.49523e-14 
6.02591 -2.59476 -3.16005e-14 
6.23941 -2.56785 8.18186e-15 
6.45907 -2.60872 -3.97706e-14 
6.68501 -2.57648 1.12099e-14 
6.89254 -2.56134 1.61797e-14 
7.11805 -2.62203 7.87285e-15 
7.36688 -2.59203 1.71394e-14 
7.60291 -2.60053 1.54163e-14 
7.85784 -2.62156 1.36513e-14 
8.0719 -2.52759 3.47521e-14 
8.29678 -2.64553 -5.75057e-15 
8.48528 -2.52288 4.34957e-13 
-8.48528 -2.35353 -1.17185e-13 
-8.22491 -2.35354 -7.1727e-15 
-7.98837 -2.35055 -2.51773e-14 
-7.75174 -2.41701 -3.52303e-14 
-7.56871 -2.22918 -1.40905e-14 
-7.45699 -2.41436 -2.51121e-14 
-7.18516 -2.4022 -2.5561e-14 
-6.959 -2.34248 -1.68512e-14 
-6.70599 -2.37069 -1.33468e-14 
-6.49264 -2.34471 -1.02673e-14 
-6.24289 -2.35175 -7.16931e-15 
-6.02878 -2.35727 -5.95768e-15 
-5.81208 -2.33687 2.79974e-14 
-5.58362 -2.34526 2.14803e-14 
-5.3674 -2.34984 1.33777e-14 
-5.14321 -2.35306 -9.46089e-15 
-4.92848 -2.34163 5.06319e-15 
-4.70382 -2.35367 1.84743e-14 
-4.48513 -2.35878 -2.00247e-14 
-4.26262 -2.35569 -2.96827e-14 
-4.04907 -2.34126 -3.92062e-14 
-3.8329 -2.34169 7.36218e-15 
-3.62074 -2.3459 9.85455e-15 
-3.40405 -2.35878 1.27827e-14 
-3.19219 -2.3588 1.63422e-14 
-2.97715 -2.36333 2.01479e-14 
-2.77054 -2.34956 2.2878e-14 
-2.55789 -2.3672 2.9214e-14 
-2.34813 -2.38647 3.78191e-14 
-2.1289 -2.36567 3.7368e-14 
-1.91693 -2.36944 4.205e-14 
-1.69718 -2.36825 3.68015e-14 
-1.47189 -2.3399 6.30038e-15 
-1.25237 -2.27836 1.80367e-14 
-1.02164 -2.38656 8.02908e-15 
-0.815654 -2.32076 9.53468e-15 
-0.594193 -2.22782 -3.81809e-14 
-0.366554 -2.23456 -2.19303e-14 
-0.164167 -2.18899 1.763e-14 
0.0560062 -2.09381 7.91735e-14 
0.246439 -2.15953 -1.07673e-13 
0.441191 -2.17475 9.13638e-14 
0.617676 -2.28313 -7.05655e-14 
0.823074 -2.3215 3.32764e-14 
1.04896 -2.31328 1.5129e-14 
1.26021 -2.301 2.60027e-14 
1.46182 -2.42899 -4.13584e-14 
1.65879 -2.35733 -3.52848e-14 
1.86988 -2.36896 -4.63784e-14 
2.08197 -2.40695 -4.44172e-14 
2.29641 -2.37632 -3.87519e-14 
2.52917 -2.36886 -3.14468e-14 
2.73672 -2.38383 -2.72385e-14 
2.95287 -2.35334 -2.13413e-14 
3.15592 -2.34203 -1.66695e-14 
3.3761 -2.36605 -1.38932e-14 
3.58056 -2.33512 -1.00085e-14 
3.79447 -2.34344 -7.89477e-15 
4.01037 -2.36918 -6.47428e-15 
4.21913 -2.33283 2.87255e-14 
4.43967 -2.34287 2.16493e-14 
4.64967 -2.34399 1.30351e-14 
4.86267 -2.34182 -7.26707e-15 
5.08048 -2.34994 3.80466e-15 
5.29273 -2.35851 1.8085e-14 
5.5095 -2.34063 -1.74849e-14 
5.72836 -2.35194 -2.71043e-14 
5.94553 -2.36421 -3.98669e-14 
6.16171 -2.33383 6.74931e-15 
6.39418 -2.35623 8.90678e-15 
6.60288 -2.35425 1.15388e-14 
6.82651 -2.30936 1.21408e-14 
7.05527 -2.36687 1.7927e-14 
7.273 -2.38823 2.25682e-14 
7.53234 -2.3649 2.11446e-14 
7.7755 -2.39771 2.70254e-14 
7.99215 -2.30221 1.99898e-14 
8.2595 -2.36926 7.89601e-15 
8.48528 -2.27265 2.40496e-15 
-8.48528 -2.0867 -2.63874e-13 
-8.26831 -2.12201 1.55515e-14 
-8.03662 -2.09382 1.36625e-14 
-7.79978 -2.15101 -5.97524e-15 
-7.50515 -2.02195 -9.55133e-16 
-7.29524 -2.20997 -7.22817e-15 
-7.06138 -2.12614 -7.62192e-15 
-6.80189 -2.14548 -6.82392e-15 
-6.58878 -2.10864 -6.09831e-15 
-6.35357 -2.13941 3.56165e-14 
-6.12488 -2.10822 2.66249e-14 
-5.91933 -2.10578 2.14914e-14 
-5.6912 -2.11498 1.46068e-14 
-5.46961 -2.10724 -1.51174e-14 
-5.2524 -2.12016 -8.55883e-15 
-5.0381 -2.10743 1.85406e-16 
-4.81417 -2.11803 7.78173e-15 
-4.5962 -2.12149 1.65855e-14 
-4.37932 -2.12595 -1.40448e-14 
-4.16775 -2.10802 -1.8835e-14 
-3.95283 -2.10385 -2.53373e-14 
-3.74057 -2.10355 -3.43032e-14 
-3.52721 -2.11749 6.00191e-15 
-3.31852 -2.12247 7.60224e-15 
-3.10605 -2.12958 9.57456e-15 
-2.9007 -2.12192 1.16556e-14 
-2.68461 -2.12587 1.42549e-14 
-2.47393 -2.14189 1.71051e-14 
-2.26583 -2.15762 2.09815e-14 
-2.03995 -2.13222 1.83847e-14 
-1.82046 -2.14527 1.77233e-14 
-1.59988 -2.13284 1.29038e-14 
-1.37938 -2.07024 7.47493e-15 
-1.17621 -1.96023 -3.47183e-14 
-1.04279 -2.13348 3.83772e-14 
-0.812649 -2.06729 -2.92322e-14 
-0.571793 -1.95465 -1.73467e-14 
-0.356842 -1.91982 1.43924e-14 
-0.118914 -1.88137 1.96652e-13 
0.0414373 -1.52669 -4.52199e-14 
0.114539 -1.76157 -2.044e-13 
0.321086 -1.83682 1.49408e-13 
0.532617 -1.89108 -7.56074e-14 
0.737023 -2.01089 1.03939e-13 
0.949372 -2.06596 -2.5134e-14 
1.17808 -2.05682 3.21956e-14 
1.44361 -2.16945 -9.3591e-15 
1.66139 -2.11652 -1.36998e-14 
1.88429 -2.14742 -1.34666e-14 
2.11026 -2.17584 -2.51646e-14 
2.35332 -2.17048 -1.65352e-14 
2.57478 -2.13564 -1.34932e-14 
2.78118 -2.14883 -1.66563e-14 
2.98572 -2.10304 -9.30121e-15 
3.20898 -2.12321 -8.82068e-15 
3.40938 -2.11556 -6.89036e-15 
3.62504 -2.09961 3.36188e-14 
3.84239 -2.1147 2.92469e-14 
4.04472 -2.11911 2.10863e-14 
4.27195 -2.10423 1.44195e-14 
4.48272 -2.10079 -1.74875e-14 
4.69642 -2.10443 -1.01333e-14 
4.91481 -2.11079 -3.28048e-15 
5.12921 -2.11166 4.75278e-15 
5.34109 -2.12057 1.16175e-14 
5.56494 -2.1099 1.69158e-14 
5.78261 -2.11858 -1.5925e-14 
5.9934 -2.11906 -2.19333e-14 
6.23331 -2.11701 -2.60374e-14 
6.44303 -2.10351 -3.41871e-14 
6.65515 -2.10771 5.97723e-15 
6.9094 -2.09749 6.2392e-15 
7.12424 -2.12733 7.71534e-15 
7.35497 -2.17241 7.7296e-15 
7.54778 -2.07635 -1.68398e-14 
7.73354 -2.16397 8.46105e-15 
7.95187 -2.06778 -3.17882e-14 
8.20284 -2.14346 1.59962e-14 
8.48528 -2.07321 6.52844e-14 
-8.48528 -1.80525 -2.5728e-13 
-8.2855 -1.86769 1.54949e-14 
-7.88205 -1.89268 2.46931e-14 
[...]
POINT_DATA 1978 
VECTORS vectors float
0.00019916 -0.000222272 1 
-4.49494e-06 -0.0756749 0.997133 
-9.38486e-05 -0.102723 0.99471 
-0.000175278 -0.0984189 0.995145 
-0.000127727 -0.0798596 0.996806 
-5.89579e-05 -0.0644141 0.997923 
-5.34739e-05 -0.0500601 0.998746 
-2.6664e-05 -0.039778 0.999209 
-1.07738e-05 -0.0301933 0.999544 
5.23989e-07 -0.0226138 0.999744 
4.73182e-06 -0.017023 0.999855 
-1.87972e-05 -0.0117585 0.999931 
5.70336e-06 -0.00767998 0.999971 
-7.96773e-06 -0.00471592 0.999989 
-9.36929e-06 -0.00224747 0.999997 
-1.57742e-05 -0.000301348 1 
-7.32157e-06 0.00166924 0.999999 
-1.11583e-05 0.00375224 0.999993 
-2.66852e-05 0.00636039 0.99998 
-2.41164e-05 0.00958797 0.999954 
-1.44111e-05 0.0137247 0.999906 
-1.24388e-05 0.0188893 0.999822 
-1.28508e-05 0.0256437 0.999671 
-2.63851e-05 0.034245 0.999413 
-1.67417e-05 0.046062 0.998939 
-5.34383e-06 0.0609413 0.998141 
1.51329e-05 0.0806007 0.996746 
1.57902e-05 0.103966 0.994581 
-3.96155e-06 0.13623 0.990677 
3.46557e-06 0.177261 0.984164 
4.01459e-06 0.228061 0.973647 
1.61098e-05 0.289586 0.957152 
3.57023e-07 0.364422 0.931234 
1.72623e-05 0.459808 0.888018 
-6.21435e-06 0.549166 0.835713 
-1.21165e-05 0.690242 0.723579 
-1.87207e-06 0.805918 0.592027 
-3.75354e-06 0.891029 0.453947 
-1.66716e-06 0.974168 0.225825 
1.19732e-06 0.999458 -0.0329098 
4.15415e-06 0.97186 -0.235558 
3.85629e-06 0.905665 -0.423995 
9.30005e-06 0.801574 -0.597895 
-4.3253e-06 0.678524 -0.734578 
-8.0308e-07 0.566821 -0.823841 
-1.63219e-05 0.464822 -0.885404 
1.36351e-05 0.379308 -0.92527 
1.40714e-05 0.289103 -0.957298 
-2.33209e-05 0.232486 -0.9726 
2.79472e-05 0.180361 -0.983601 
-1.43796e-05 0.135747 -0.990744 
7.5612e-07 0.106456 -0.994317 
3.45032e-05 0.0795039 -0.996835 
1.72412e-05 0.0592279 -0.998244 
3.95156e-06 0.0444766 -0.99901 
1.69339e-05 0.0336298 -0.999434 
1.64646e-05 0.0246711 -0.999696 
-2.86348e-06 0.0186179 -0.999827 
4.13991e-05 0.013748 -0.999905 
7.54403e-06 0.00963166 -0.999954 
-1.27981e-05 0.00680337 -0.999977 
8.16144e-06 0.00411613 -0.999992 
-1.45681e-05 0.00174921 -0.999998 
9.82981e-07 -0.00028743 -1 
1.45332e-05 -0.00261653 -0.999997 
-3.87202e-06 -0.00517125 -0.999987 
1.73181e-06 -0.00803379 -0.999968 
3.619e-05 -0.0120206 -0.999928 
3.52366e-06 -0.0171037 -0.999854 
2.43677e-05 -0.0223692 -0.99975 
4.83916e-05 -0.030709 -0.999528 
-2.33371e-05 -0.0392985 -0.999228 
5.17201e-05 -0.0490153 -0.998798 
8.60214e-05 -0.0649003 -0.997892 
4.13809e-05 -0.0814287 -0.996679 
0.000116103 -0.099785 -0.995009 
7.89078e-05 -0.111062 -0.993813 
0.000140886 -0.096447 -0.995338 
-0.000124141 -0.000136653 -1 
0.000210124 7.59173e-05 1 
0.0181222 -0.061799 0.997924 
0.0359206 -0.0927778 0.995039 
0.0326743 -0.0942842 0.995009 
0.0296488 -0.0809598 0.996276 
0.0370184 -0.0626828 0.997347 
0.0432806 -0.0500422 0.997809 
0.0428598 -0.0395425 0.998298 
0.0434293 -0.0304321 0.998593 
0.0508529 -0.0230789 0.998439 
0.0447328 -0.0161613 0.998868 
0.0474661 -0.0114446 0.998807 
0.0509196 -0.00792382 0.998671 
0.0481856 -0.00474943 0.998827 
0.0500349 -0.00221885 0.998745 
0.0488211 1.05401e-05 0.998808 
0.0516174 0.00216912 0.998665 
0.0480522 0.00465103 0.998834 
0.0486655 0.00762922 0.998786 
0.0481426 0.0112985 0.998777 
0.0494202 0.0158328 0.998653 
0.0472842 0.0215741 0.998648 
0.0468616 0.028956 0.998482 
0.0433724 0.0386623 0.998311 
0.0436875 0.0512722 0.997729 
0.0409919 0.0675861 0.996871 
0.0411633 0.0878705 0.995281 
0.0351923 0.114115 0.992844 
0.0319037 0.149721 0.988213 
0.0286121 0.193407 0.980701 
0.024941 0.24817 0.968395 
0.0202651 0.317789 0.947945 
0.0147187 0.399107 0.916786 
0.012735 0.486136 0.87379 
0.00535034 0.604591 0.796518 
0.00318857 0.725195 0.688536 
0.00151032 0.824857 0.565339 
-0.000359122 0.919851 0.392268 
-0.000779196 0.978126 0.208014 
-0.00226275 0.999997 0.000556507 
-0.00258177 0.977335 -0.211684 
-0.0031577 0.914149 -0.405365 
-0.00408868 0.819658 -0.572839 
-0.00599766 0.697355 -0.7167 
-0.00949216 0.57215 -0.820094 
-0.0132973 0.464758 -0.885338 
-0.0137675 0.35653 -0.934182 
-0.024162 0.283386 -0.958701 
-0.024724 0.221788 -0.974781 
-0.0277653 0.168388 -0.98533 
-0.0381268 0.130826 -0.990672 
-0.03456 0.100206 -0.994366 
-0.0388583 0.0753954 -0.996396 
-0.0424779 0.057177 -0.99746 
-0.0457275 0.0436373 -0.998 
-0.04306 0.0322754 -0.998551 
-0.0493686 0.0245185 -0.99848 
-0.0471951 0.0181839 -0.99872 
-0.0453991 0.01303 -0.998884 
-0.0525499 0.00938435 -0.998574 
-0.0490758 0.00617566 -0.998776 
-0.0499909 0.0034255 -0.998744 
-0.0516823 0.000981538 -0.998663 
-0.0482205 -0.00143159 -0.998836 
-0.0494012 -0.00405553 -0.998771 
-0.0508707 -0.00688373 -0.998682 
-0.0467101 -0.0102621 -0.998856 
-0.0461667 -0.0147546 -0.998825 
-0.0506646 -0.0200883 -0.998514 
-0.0409816 -0.0266195 -0.998805 
-0.0469035 -0.0350696 -0.998284 
-0.0482431 -0.0444441 -0.997846 
-0.035352 -0.0566499 -0.997768 
-0.0404758 -0.0724732 -0.996549 
-0.0376621 -0.0880373 -0.995405 
-0.0335241 -0.100999 -0.994322 
-0.040671 -0.0912385 -0.994998 
-0.00865892 -0.052483 -0.998584 
-0.00046575 -0.000169208 -1 
0.000555092 -0.000416842 1 
0.0338542 -0.0649505 0.997314 
0.0540838 -0.0889269 0.994569 
0.0568071 -0.0888752 0.994422 
0.0637553 -0.0820595 0.994586 
0.0571524 -0.0768175 0.995406 
0.0633419 -0.0602457 0.996172 
0.0670998 -0.0478875 0.996596 
0.0673319 -0.0368278 0.997051 
0.0702205 -0.0284994 0.997124 
0.0708481 -0.0205635 0.997275 
0.0720935 -0.0151478 0.997283 
0.0738759 -0.0108917 0.997208 
0.0745014 -0.00710056 0.997196 
0.0751358 -0.00414482 0.997165 
0.0756101 -0.00149994 0.997136 
0.0764261 0.000885371 0.997075 
0.0758275 0.00356587 0.997115 
0.0752082 0.00655786 0.997146 
0.0745272 0.0102024 0.997167 
0.0739599 0.0145439 0.997155 
0.0725043 0.0199533 0.997168 
0.0709494 0.0267529 0.997121 
0.0687416 0.0357478 0.996994 
0.0668761 0.047219 0.996643 
0.0641768 0.0623324 0.99599 
0.0616128 0.081263 0.994787 
0.0573495 0.105834 0.992729 
0.052073 0.136708 0.989242 
0.046606 0.179526 0.982649 
0.0399028 0.230633 0.972222 
0.032002 0.298772 0.953788 
0.0234448 0.384872 0.922672 
0.0166119 0.477426 0.878515 
0.00987336 0.583048 0.812378 
0.00456302 0.70049 0.713648 
-0.000376268 0.824485 0.565884 
-0.0022604 0.91707 0.398721 
-0.00333884 0.980654 0.19572 
-0.00442601 0.999282 -0.0376153 
-0.00466643 0.968402 -0.249349 
-0.00510493 0.899932 -0.435999 
-0.00696644 0.802386 -0.596765 
-0.009432 0.693097 -0.720783 
-0.0137735 0.575469 -0.817708 
-0.0194971 0.471115 -0.881856 
-0.0248005 0.377936 -0.9255 
-0.0323303 0.310443 -0.950042 
-0.0392665 0.242069 -0.969464 
-0.0447167 0.189287 -0.980903 
-0.0515984 0.146412 -0.987877 
-0.0563934 0.110098 -0.99232 
-0.0596856 0.0846467 -0.994622 
-0.0639222 0.0640233 -0.995899 
-0.0670194 0.0494414 -0.996526 
-0.0681149 0.036955 -0.996993 
-0.0713159 0.0283914 -0.99705 
-0.0724785 0.0212504 -0.997144 
-0.0725257 0.0155603 -0.997245 
-0.0753423 0.0114343 -0.997092 
-0.0756295 0.00759183 -0.997107 
-0.0760198 0.00450476 -0.997096 
-0.0765285 0.00175581 -0.997066 
-0.0760965 -0.000929419 -0.9971 
-0.0753965 -0.0035419 -0.997147 
-0.0755343 -0.00648274 -0.997122 
-0.0740923 -0.0097497 -0.997204 
-0.0724187 -0.0136352 -0.997281 
-0.07275 -0.0186016 -0.997177 
-0.0701669 -0.0250429 -0.997221 
-0.068857 -0.0321157 -0.997109 
-0.0687821 -0.0416414 -0.996762 
-0.0653848 -0.0532786 -0.996437 
-0.0629382 -0.0662676 -0.995815 
-0.0614163 -0.0818807 -0.994748 
-0.0579384 -0.0927639 -0.994001 
-0.0563489 -0.0904 -0.99431 
-0.0298789 -0.0562904 -0.997967 
-0.000424136 -0.000268985 -1 
0.000833156 -0.000393792 1 
0.0270688 -0.051125 0.998325 
0.0488258 -0.083566 0.995305 
0.0583386 -0.0880725 0.994404 
0.0609961 -0.0805734 0.994881 
0.0657709 -0.0684292 0.995486 
0.0671873 -0.0543954 0.996256 
0.0695901 -0.0411598 0.996726 
0.0713142 -0.0324541 0.996926 
0.0730948 -0.0243477 0.997028 
0.074159 -0.0182629 0.997079 
0.0754314 -0.0137546 0.997056 
0.0764822 -0.00964218 0.997024 
0.0773244 -0.00634843 0.996986 
0.0783356 -0.0033981 0.996921 
0.0786501 -0.000747437 0.996902 
0.0789421 0.00215055 0.996877 
0.0787625 0.00522458 0.99688 
0.0781699 0.00877851 0.996901 
0.0768509 0.0129197 0.996959 
0.0753279 0.0179524 0.996997 
0.0736213 0.0241117 0.996995 
0.0718791 0.0320081 0.9969 
0.0698085 0.0419511 0.996678 
0.0674159 0.0549642 0.99621 
0.0644384 0.0712568 0.995374 
0.0606877 0.0930231 0.993813 
0.0563662 0.120298 0.991136 
0.0511952 0.154701 0.986634 
0.0435299 0.203354 0.978137 
0.0360409 0.263351 0.964027 
0.0275274 0.339392 0.940242 
0.0183837 0.427683 0.903742 
0.00930402 0.534863 0.844888 
0.00841266 0.580954 0.813893 
0.00199889 0.705081 0.709124 
-0.00173642 0.83182 0.555043 
-0.00292748 0.9313 0.364242 
-0.00376779 0.988855 0.148833 
-0.000650364 0.999989 0.00468189 
-0.00271948 0.985432 -0.170048 
-0.00340092 0.927474 -0.373873 
-0.00424709 0.848961 -0.528439 
-0.00679538 0.737788 -0.674998 
-0.010836 0.63003 -0.776495 
-0.0156832 0.514962 -0.85707 
-0.0242916 0.397847 -0.91713 
-0.0314618 0.3114 -0.949758 
-0.0392235 0.242385 -0.969387 
-0.0465848 0.185609 -0.981519 
-0.053054 0.139639 -0.98878 
-0.0582353 0.107042 -0.992548 
-0.0629234 0.0819194 -0.994651 
-0.064962 0.0642511 -0.995817 
-0.0686658 0.0481315 -0.996478 
-0.0708558 0.0373182 -0.996788 
-0.0726238 0.0283421 -0.996957 
-0.0747919 0.0210954 -0.996976 
-0.0762378 0.0159001 -0.996963 
-0.0773711 0.0111353 -0.99694 
-0.0781481 0.0073479 -0.996915 
-0.0787004 0.00399005 -0.99689 
-0.078933 0.000899341 -0.99688 
-0.0787492 -0.00195591 -0.996893 
-0.0783217 -0.00479324 -0.996917 
-0.0773025 -0.00806731 -0.996975 
-0.0763884 -0.0115218 -0.997012 
-0.0752258 -0.01553 -0.997046 
-0.0737964 -0.0212245 -0.997047 
-0.072153 -0.0273698 -0.997018 
-0.0706273 -0.0349138 -0.996892 
-0.0684832 -0.0464444 -0.996571 
-0.0671323 -0.0581256 -0.99605 
-0.0656997 -0.072131 -0.995229 
-0.0624079 -0.0830042 -0.994593 
-0.0616866 -0.0895066 -0.994074 
-0.0551984 -0.0893292 -0.994471 
-0.0389993 -0.0665057 -0.997024 
-0.000308099 -7.62386e-05 -1 
0.000779368 -0.000404713 1 
0.0229776 -0.0458893 0.998682 
0.051691 -0.090483 0.994556 
0.0554721 -0.0866233 0.994696 
0.0537662 -0.0766139 0.99561 
0.0625216 -0.0679334 0.995729 
0.0587858 -0.0600763 0.996461 
0.0641302 -0.0482592 0.996774 
0.063766 -0.0379942 0.997241 
0.0670935 -0.0293061 0.997316 
0.0678677 -0.022708 0.997436 
0.0673581 -0.0175201 0.997575 
0.0695027 -0.0129979 0.997497 
0.0704788 -0.009267 0.99747 
0.0712265 -0.00589331 0.997443 
0.0718075 -0.00295043 0.997414 
0.0725854 0.000244419 0.997362 
0.0726909 0.0034935 0.997348 
0.0725067 0.00707516 0.997343 
0.0712633 0.0110285 0.997397 
0.0697051 0.0157344 0.997444 
0.0679699 0.0213571 0.997459 
0.0664843 0.0283376 0.997385 
0.0646992 0.0369096 0.997222 
0.0628196 0.0479207 0.996874 
0.0600746 0.0617763 0.99628 
0.0571993 0.0798782 0.995162 
0.0533064 0.103443 0.993206 
0.0490453 0.13299 0.989903 
0.0440901 0.171015 0.984281 
0.035719 0.228094 0.972984 
0.0287884 0.292449 0.955848 
0.0199124 0.370914 0.928454 
0.0113732 0.466538 0.884428 
0.00276759 0.654005 0.756485 
-0.000763301 0.767912 0.640555 
-0.00196024 0.877853 0.478927 
-0.000916639 0.946018 0.324112 
-0.00104893 0.977144 0.212577 
-0.000914742 0.999958 -0.00912387 
-5.4827e-06 0.975987 -0.217828 
-0.000517518 0.914856 -0.403779 
-0.00193028 0.833666 -0.552265 
-0.00403395 0.725665 -0.688036 
-0.00823603 0.596587 -0.802506 
-0.0122435 0.493522 -0.869647 
-0.0202565 0.416206 -0.909045 
-0.0243306 0.345225 -0.938205 
-0.0316586 0.271195 -0.962004 
-0.0392655 0.210667 -0.976769 
-0.0458099 0.162111 -0.985709 
-0.0509679 0.123839 -0.990992 
-0.0556346 0.0920132 -0.994202 
-0.0568736 0.0743134 -0.995612 
-0.0616368 0.0556602 -0.996545 
-0.0632149 0.0427619 -0.997083 
-0.0653614 0.0329477 -0.997318 
-0.0677437 0.0245857 -0.9974 
-0.0688964 0.0186013 -0.99745 
-0.0710746 0.0135805 -0.997379 
-0.0709472 0.00911399 -0.997438 
-0.0717409 0.00526061 -0.997409 
-0.0723738 0.00174095 -0.997376 
-0.0721085 -0.00145311 -0.997396 
-0.0718047 -0.00460916 -0.997408 
-0.0715095 -0.00771857 -0.99741 
-0.070158 -0.0113696 -0.997471 
-0.0688679 -0.0152937 -0.997509 
-0.0687974 -0.0199793 -0.997431 
-0.0655485 -0.0262949 -0.997503 
-0.0641916 -0.0335059 -0.997375 
-0.0640495 -0.0425183 -0.997041 
-0.0608974 -0.055803 -0.996583 
-0.0609971 -0.0690735 -0.995745 
-0.0563085 -0.0824843 -0.995 
-0.0544549 -0.0903058 -0.994424 
-0.0453715 -0.085787 -0.99528 
-0.0307501 -0.0569485 -0.997903 
-0.000253492 -0.000157134 -1 
0.000489562 -0.000236327 1 
0.019672 -0.0500098 0.998555 
0.0391445 -0.0820387 0.99586 
0.042881 -0.0913514 0.994895 
0.0467466 -0.0876078 0.995058 
0.0480569 -0.0698749 0.996398 
0.0517404 -0.0534304 0.99723 
0.0540853 -0.0439393 0.997569 
0.0556736 -0.033209 0.997897 
0.0571051 -0.0264062 0.998019 
0.0565935 -0.0209028 0.998178 
0.0575636 -0.0156746 0.998219 
0.0593595 -0.0117562 0.998167 
0.0605395 -0.00813917 0.998133 
0.0600848 -0.00481307 0.998182 
0.0618264 -0.00142603 0.998086 
0.0619364 0.00211731 0.998078 
0.0617729 0.00592502 0.998073 
0.0604663 0.00998296 0.99812 
0.0593869 0.0145794 0.998129 
0.0579022 0.0200122 0.998122 
0.0565925 0.0266724 0.998041 
0.054896 0.0348497 0.997884 
0.0534305 0.0451331 0.997551 
0.0509759 0.058151 0.997005 
0.048465 0.0752107 0.995989 
0.0452455 0.097263 0.99423 
0.0408812 0.127162 0.991039 
0.0366902 0.165718 0.98549 
0.0310913 0.216276 0.975837 
0.021492 0.295279 0.955169 
0.0135383 0.385967 0.922413 
0.00592968 0.495885 0.868368 
0.000410739 0.618357 0.785897 
0.00389127 0.582499 0.812822 
7.85703e-05 0.695971 0.71807 
-0.00187037 0.812999 0.582262 
-0.00154568 0.879764 0.475407 
-0.00125432 0.982476 0.186383 
-0.00111845 0.999948 0.0101367 
-0.00391337 0.989218 -0.146398 
-0.00344711 0.948248 -0.317511 
-0.00104053 0.855187 -0.518318 
-0.000941094 0.734997 -0.67807 
-0.00269128 0.629376 -0.777096 
-0.00505843 0.516668 -0.856171 
-0.0132903 0.411406 -0.911356 
-0.020033 0.32099 -0.946871 
-0.0272451 0.250306 -0.967783 
-0.0344765 0.193882 -0.980419 
-0.0393108 0.150304 -0.987858 
-0.0454939 0.112605 -0.992598 
-0.0443765 0.0893242 -0.995014 
-0.0500274 0.0672726 -0.99648 
-0.052064 0.0524185 -0.997267 
-0.0531829 0.0406119 -0.997759 
-0.0563345 0.0308605 -0.997935 
-0.057206 0.0237354 -0.99808 
-0.0585996 0.0177135 -0.998124 
-0.0607781 0.012739 -0.99807 
-0.0600157 0.0081749 -0.998164 
-0.0611226 0.00406845 -0.998122 
-0.0610614 0.000447402 -0.998134 
-0.0610983 -0.00303534 -0.998127 
-0.0603501 -0.00639036 -0.998157 
-0.0607037 -0.00974118 -0.998108 
-0.0586393 -0.0134975 -0.998188 
-0.0581118 -0.0177759 -0.998152 
-0.0575436 -0.0225884 -0.998087 
-0.0538965 -0.0292856 -0.998117 
-0.0533795 -0.0372488 -0.997879 
-0.0543793 -0.0472872 -0.9974 
-0.049446 -0.0588487 -0.997042 
-0.051599 -0.0704236 -0.996182 
-0.0465295 -0.0839814 -0.99538 
-0.0460001 -0.0914972 -0.994742 
-0.0378599 -0.088204 -0.995383 
-0.0232074 -0.0524317 -0.998355 
-0.000260082 -0.000120588 -1 
0.000206453 -9.87635e-05 1 
0.0176785 -0.0613086 0.997962 
0.0324094 -0.0861846 0.995752 
0.0346162 -0.0921637 0.995142 
0.0404726 -0.0834624 0.995689 
0.0363039 -0.072687 0.996694 
0.0417083 -0.0595411 0.997354 
0.0394863 -0.0474566 0.998093 
0.0451597 -0.0386979 0.99823 
0.0438879 -0.0306857 0.998565 
0.0446033 -0.0249222 0.998694 
0.0463931 -0.0193114 0.998737 
0.0462271 -0.0149012 0.99882 
0.0484876 -0.0111243 0.998762 
0.049014 -0.00761996 0.998769 
0.0491154 -0.00389582 0.998786 
0.0504376 -0.000322875 0.998727 
0.0503373 0.00356223 0.998726 
0.0491812 0.00754923 0.998761 
0.0483186 0.0119914 0.99876 
0.0475264 0.0169452 0.998726 
0.0464786 0.0227652 0.99866 
0.0451802 0.029708 0.998537 
0.043833 0.0383591 0.998302 
0.0422714 0.0489947 0.997904 
0.040246 0.0629752 0.997203 
0.0377461 0.0809687 0.996002 
0.0348257 0.104919 0.993871 
0.0306319 0.137525 0.990024 
0.0267354 0.179604 0.983376 
0.0219578 0.239212 0.970719 
0.0134416 0.324842 0.945673 
0.00733736 0.419897 0.907542 
0.00219475 0.523836 0.851816 
-0.00217526 0.743461 0.668776 
-0.001407 0.878222 0.47825 
-0.0016958 0.950432 0.310929 
0.00126532 0.976174 0.216985 
0.000167761 0.970697 0.240308 
-0.00206871 0.9947 0.102801 
0.000274135 0.99958 -0.0289813 
-0.000293256 0.989928 -0.141571 
-0.00433185 0.941628 -0.336626 
-0.00134929 0.819317 -0.573339 
0.000143776 0.708898 -0.705311 
-0.000480377 0.589367 -0.807865 
-0.00646999 0.428526 -0.903506 
-0.0121457 0.339973 -0.940357 
-0.018533 0.261774 -0.964951 
-0.0249996 0.201539 -0.979161 
-0.0287162 0.159041 -0.986854 
-0.0346445 0.125383 -0.991503 
-0.03316 0.104837 -0.993936 
-0.0384167 0.0780218 -0.996211 
-0.0405317 0.0609621 -0.997317 
-0.0419856 0.0473286 -0.997997 
-0.0444611 0.0359806 -0.998363 
-0.0455164 0.0279565 -0.998572 
-0.0468849 0.0211622 -0.998676 
-0.0481903 0.0154325 -0.998719 
-0.049337 0.0107266 -0.998725 
-0.0492929 0.00583544 -0.998767 
-0.0492642 0.00176417 -0.998784 
-0.0495788 -0.00212234 -0.998768 
-0.0488228 -0.00578331 -0.998791 
-0.0489097 -0.00943432 -0.998759 
-0.0478606 -0.013012 -0.998769 
-0.0471064 -0.0172482 -0.998741 
-0.0455878 -0.0221387 -0.998715 
-0.0441506 -0.0276966 -0.998641 
-0.0422469 -0.0359256 -0.998461 
-0.0430798 -0.0459134 -0.998016 
-0.039508 -0.0593303 -0.997456 
-0.0398458 -0.0744485 -0.996428 
-0.0350019 -0.0870621 -0.995588 
-0.0361059 -0.0929132 -0.995019 
-0.0292803 -0.0913648 -0.995387 
-0.0216908 -0.0643904 -0.997689 
-0.000198389 -9.14987e-05 -1 
0.000120818 -6.97913e-05 1 
0.0134232 -0.0610034 0.998047 
0.0261701 -0.0912568 0.995483 
0.0248908 -0.0945678 0.995207 
0.0307445 -0.0876822 0.995674 
0.0277569 -0.0751754 0.996784 
0.0314203 -0.0587351 0.997779 
0.0299007 -0.0462286 0.998483 
0.0343034 -0.0371696 0.99872 
0.0322524 -0.0304112 0.999017 
0.0351199 -0.0240205 0.999094 
0.0363386 -0.0189455 0.99916 
0.0359814 -0.014718 0.999244 
0.0381413 -0.0109301 0.999213 
0.0392567 -0.00696653 0.999205 
0.0388031 -0.00294981 0.999243 
0.0399876 0.0010104 0.9992 
0.0387697 0.00512511 0.999235 
0.038176 0.00970264 0.999224 
0.037691 0.0147116 0.999181 
0.0370254 0.0202349 0.999109 
0.0359776 0.0267372 0.998995 
0.0349437 0.0347299 0.998786 
0.0335125 0.0447278 0.998437 
0.0321241 0.0574773 0.99783 
0.0299621 0.0744074 0.996778 
0.0274834 0.0970549 0.9949 
0.0242849 0.127262 0.991572 
0.0202846 0.170711 0.985112 
0.0168767 0.227306 0.973677 
0.0113607 0.300503 0.953713 
0.00520953 0.405918 0.913895 
0.00138138 0.519292 0.854596 
-0.000686979 0.644201 0.764856 
-0.00135316 0.635754 0.771891 
-0.00127443 0.86011 0.510108 
0.00492378 0.933923 0.357441 
0.00631589 0.999045 0.0432253 
0.00396308 0.999357 0.0356392 
0.00400217 0.99999 0.00175211 
0.00202087 0.999189 -0.0402152 
0.000653631 0.996916 -0.0784703 
-0.000674492 0.955907 -0.29367 
-0.000516755 0.81886 -0.573993 
0.00190256 0.662745 -0.748843 
0.00187825 0.561026 -0.827796 
-0.00102118 0.494413 -0.869227 
-0.00420914 0.385418 -0.922733 
-0.00955656 0.299982 -0.953897 
-0.015533 0.227678 -0.973613 
-0.019515 0.176008 -0.984195 
-0.0240695 0.134297 -0.990649 
-0.027767 0.0940757 -0.995178 
-0.0298875 0.0730112 -0.996883 
-0.0320761 0.0566498 -0.997879 
-0.0340532 0.0429739 -0.998496 
-0.0349112 0.0334944 -0.998829 
-0.0362657 0.0256919 -0.999012 
-0.0374908 0.0192704 -0.999111 
-0.0378497 0.0139467 -0.999186 
-0.0398228 0.00898565 -0.999166 
-0.0385612 0.00430166 -0.999247 
-0.0390181 -2.11244e-05 -0.999239 
-0.0385546 -0.00392665 -0.999249 
-0.0385106 -0.00787175 -0.999227 
-0.0375662 -0.0115534 -0.999227 
-0.0375314 -0.0154358 -0.999176 
-0.036076 -0.0197253 -0.999154 
-0.0341062 -0.0247074 -0.999113 
-0.0342112 -0.0311851 -0.998928 
-0.0313058 -0.0390838 -0.998745 
-0.0332955 -0.0474377 -0.998319 
-0.0291743 -0.0586173 -0.997854 
-0.0307287 -0.071988 -0.996932 
-0.026835 -0.0861146 -0.995924 
-0.0260314 -0.0947007 -0.995165 
-0.0209418 -0.0904597 -0.99568 
-0.0143455 -0.0568347 -0.998281 
-0.000145483 -0.000121719 -1 
5.73675e-05 -6.22462e-05 1 
0.00977935 -0.0613025 0.998071 
0.0184808 -0.0916236 0.995622 
0.0181129 -0.0962448 0.995193 
0.0223908 -0.0876798 0.995897 