# vtk DataFile Version 3.0 
Exported using Morpho https://github.com/Morpho-lang/morpho 
ASCII 
DATASET UNSTRUCTURED_GRID 

POINTS 1978 float 
-8.48528 -2.82843 -3.98905e-15 
-8.26024 -2.82843 2.38576e-14 
-8.03426 -2.82843 8.0098e-14 
-7.76676 -2.82843 8.35017e-14 
-7.47314 -2.82843 6.57801e-14 
-7.23453 -2.82843 4.46589e-14 
-6.99305 -2.82843 3.88794e-14 
-6.77322 -2.82843 2.86262e-14 
-6.56276 -2.82843 2.23024e-14 
-6.34025 -2.82843 1.76684e-14 
-6.14656 -2.82843 1.37792e-14 
-5.9265 -2.82843 1.02539e-14 
-5.7143 -2.82843 7.11256e-15 
-5.51092 -2.82843 4.91787e-15 
-5.29461 -2.82843 2.9311e-15 
-5.08312 -2.82843 1.48474e-15 
-4.86639 -2.82843 -6.65795e-18 
-4.65976 -2.82843 -1.84203e-15 
-4.4404 -2.82843 -3.85974e-15 
-4.22267 -2.82843 -6.67417e-15 
-4.00475 -2.82843 -9.59902e-15 
-3.79355 -2.82843 -1.37028e-14 
-3.57779 -2.82843 -1.81339e-14 
-3.36498 -2.82843 -2.38728e-14 
-3.14343 -2.82843 -3.10661e-14 
-2.93292 -2.82843 -3.84332e-14 
-2.72203 -2.82843 -4.68342e-14 
-2.52672 -2.82843 -5.51724e-14 
-2.31363 -2.82843 -6.47114e-14 
-2.10297 -2.82843 -7.0719e-14 
-1.89526 -2.82843 -7.16692e-14 
-1.69078 -2.82843 -6.69276e-14 
-1.48867 -2.82843 -5.79736e-14 
-1.27195 -2.82843 -4.54033e-14 
-1.09855 -2.82843 -1.86412e-14 
-0.844557 -2.82843 -1.89198e-14 
-0.630157 -2.82843 2.31458e-15 
-0.441794 -2.82843 -1.06088e-14 
-0.212987 -2.82843 -1.83545e-14 
0.0214031 -2.82843 4.11621e-14 
0.22302 -2.82843 7.21753e-15 
0.414248 -2.82843 -1.91016e-14 
0.64101 -2.82843 1.42872e-14 
0.862084 -2.82843 2.18882e-14 
1.06483 -2.82843 2.16231e-14 
1.26001 -2.82843 4.30151e-14 
1.44718 -2.82843 6.13904e-14 
1.69618 -2.82843 7.28473e-14 
1.88526 -2.82843 7.4053e-14 
2.10058 -2.82843 6.97054e-14 
2.31889 -2.82843 6.55897e-14 
2.51237 -2.82843 5.63077e-14 
2.73959 -2.82843 4.87313e-14 
2.95798 -2.82843 3.86704e-14 
3.1701 -2.82843 2.99417e-14 
3.3774 -2.82843 2.26981e-14 
3.60289 -2.82843 1.78107e-14 
3.80594 -2.82843 1.31424e-14 
4.02177 -2.82843 9.80983e-15 
4.24907 -2.82843 6.78931e-15 
4.44812 -2.82843 4.06779e-15 
4.66082 -2.82843 1.94851e-15 
4.86917 -2.82843 2.68082e-16 
5.07303 -2.82843 -1.61262e-15 
5.28848 -2.82843 -3.4255e-15 
5.49987 -2.82843 -5.0061e-15 
5.70384 -2.82843 -7.67735e-15 
5.92282 -2.82843 -1.06891e-14 
6.14414 -2.82843 -1.42811e-14 
6.34406 -2.82843 -1.81178e-14 
6.58309 -2.82843 -2.34906e-14 
6.79344 -2.82843 -2.86053e-14 
6.99256 -2.82843 -3.63714e-14 
7.25133 -2.82843 -4.76268e-14 
7.47985 -2.82843 -6.02648e-14 
7.719 -2.82843 -7.36159e-14 
7.98581 -2.82843 -8.62694e-14 
8.17112 -2.82843 -2.88848e-14 
8.48528 -2.82843 -5.23997e-16 
-8.48528 -2.59268 -1.47907e-15 
-8.25084 -2.57777 -9.32646e-16 
-8.00102 -2.60175 -6.488e-15 
-7.73112 -2.628 -8.82282e-15 
-7.48189 -2.60751 3.62813e-15 
-7.21763 -2.61647 -8.90741e-15 
-6.98133 -2.59573 -6.99639e-15 
-6.77071 -2.5792 -2.9912e-15 
-6.5349 -2.60306 -3.95484e-15 
-6.33191 -2.56491 -3.39032e-15 
-6.10791 -2.60012 -2.49629e-15 
-5.89127 -2.58714 -1.83128e-15 
-5.68266 -2.57409 -1.41649e-15 
-5.46508 -2.59084 -9.06928e-16 
-5.24955 -2.58521 -6.0608e-16 
-5.03129 -2.5907 1.78961e-16 
-4.82004 -2.57976 -1.48245e-16 
-4.60135 -2.59401 5.74184e-16 
-4.38146 -2.59143 9.95287e-16 
-4.16316 -2.59052 1.51672e-15 
-3.95165 -2.58141 2.18378e-15 
-3.73882 -2.58668 2.85883e-15 
-3.52659 -2.58649 4.11489e-15 
-3.30927 -2.59796 4.72314e-15 
-3.09703 -2.59166 6.72312e-15 
-2.88483 -2.59652 7.56401e-15 
-2.68345 -2.58406 1.02716e-14 
-2.4738 -2.60627 1.1047e-14 
-2.25599 -2.6025 1.22176e-14 
-2.04681 -2.59831 1.32458e-14 
-1.83529 -2.59502 1.56103e-14 
-1.62239 -2.58788 1.27892e-14 
-1.41804 -2.59679 5.23258e-15 
-1.24051 -2.51752 -2.32149e-15 
-1.01408 -2.62571 2.47072e-15 
-0.779352 -2.58099 -2.11763e-15 
-0.571498 -2.50702 -4.09904e-16 
-0.361352 -2.53019 -1.69201e-14 
-0.127165 -2.56489 -1.04982e-15 
0.0308224 -2.34073 1.70407e-14 
0.144531 -2.56685 -6.29883e-15 
0.384486 -2.47504 2.42307e-14 
0.593735 -2.57955 -6.34667e-15 
0.832551 -2.56016 1.18739e-14 
1.0527 -2.56568 -5.63293e-15 
1.25896 -2.56697 -7.60252e-15 
1.50264 -2.64021 -5.87373e-15 
1.71319 -2.59025 -8.16815e-15 
1.93936 -2.61842 -1.4063e-14 
2.16372 -2.60874 -9.32515e-15 
2.37532 -2.58376 -1.52945e-14 
2.58594 -2.61285 -8.50759e-15 
2.80634 -2.59987 -8.12684e-15 
3.01908 -2.59312 -7.1371e-15 
3.22712 -2.58506 -5.65384e-15 
3.44498 -2.60102 -3.92971e-15 
3.65145 -2.5748 -3.57575e-15 
3.86477 -2.58991 -2.42071e-15 
4.09098 -2.60184 -1.63004e-15 
4.2984 -2.57035 -1.40832e-15 
4.51267 -2.58899 -7.01639e-16 
4.72592 -2.58415 3.4467e-16 
4.93811 -2.58088 -5.58448e-17 
5.1531 -2.59369 -3.96641e-16 
5.37208 -2.58936 7.55743e-16 
5.58376 -2.57963 1.28408e-15 
5.80043 -2.59472 1.65217e-15 
6.02555 -2.59525 2.08677e-15 
6.23918 -2.5678 3.23752e-15 
6.45894 -2.6084 3.06303e-15 
6.68514 -2.57716 4.67331e-15 
6.89275 -2.56089 6.29406e-15 
7.11839 -2.62243 5.42703e-15 
7.36739 -2.59225 7.73342e-15 
7.60336 -2.60051 7.83647e-15 
7.85867 -2.62215 8.03098e-15 
8.07283 -2.52809 1.37666e-14 
8.29808 -2.64447 9.68587e-16 
8.48528 -2.52113 1.16486e-14 
-8.48528 -2.35388 7.9823e-15 
-8.2259 -2.35382 -2.71604e-15 
-7.99229 -2.34963 -8.55113e-15 
-7.75725 -2.40904 -1.04628e-14 
-7.56753 -2.23443 -4.95619e-15 
-7.45045 -2.41987 -8.34825e-15 
-7.1826 -2.40029 -8.44766e-15 
-6.95881 -2.3425 -5.88199e-15 
-6.70494 -2.37056 -4.34986e-15 
-6.49264 -2.34458 -3.5897e-15 
-6.24239 -2.35171 -2.57263e-15 
-6.02829 -2.35755 -2.09066e-15 
-5.81184 -2.33635 -1.46777e-15 
-5.58342 -2.34536 -1.16505e-15 
-5.36732 -2.34969 -7.68608e-16 
-5.14344 -2.35274 3.79056e-16 
-4.92832 -2.34217 -1.20964e-17 
-4.70381 -2.35338 -3.71853e-16 
-4.48465 -2.35921 7.95828e-16 
-4.26276 -2.35523 1.24491e-15 
-4.04868 -2.34147 1.69879e-15 
-3.83305 -2.3424 2.33622e-15 
-3.62093 -2.34568 3.16492e-15 
-3.40443 -2.35992 4.14235e-15 
-3.1929 -2.35884 5.32235e-15 
-2.97805 -2.36339 6.57444e-15 
-2.77193 -2.34949 7.63971e-15 
-2.5588 -2.36653 9.58012e-15 
-2.34909 -2.38733 1.23385e-14 
-2.12791 -2.36611 1.24092e-14 
-1.91613 -2.36826 1.36026e-14 
-1.69402 -2.36628 1.24108e-14 
-1.47062 -2.33936 3.80011e-15 
-1.25229 -2.26943 6.75192e-15 
-1.02957 -2.39004 -6.58721e-16 
-0.82232 -2.32181 -1.28085e-15 
-0.610077 -2.23085 -1.79036e-14 
-0.390386 -2.20178 3.32697e-14 
-0.192188 -2.24626 -3.61048e-14 
0.0603687 -2.07181 1.27555e-14 
0.272696 -2.25014 -1.7309e-14 
0.438485 -2.09098 2.75317e-14 
0.597964 -2.29077 -1.47804e-14 
0.811842 -2.29076 5.21758e-15 
1.04397 -2.31026 7.27473e-15 
1.2606 -2.31218 -6.02369e-16 
1.4635 -2.42249 -1.09534e-14 
1.64877 -2.34962 -8.76797e-15 
1.86628 -2.40223 -6.15541e-15 
2.08824 -2.39368 -1.43974e-14 
2.31003 -2.3656 -1.1524e-14 
2.53619 -2.36852 -9.63581e-15 
2.73531 -2.38114 -8.75042e-15 
2.95668 -2.36052 -7.20328e-15 
3.16491 -2.34697 -5.27e-15 
3.37835 -2.36301 -4.3685e-15 
3.58217 -2.3352 -3.25815e-15 
3.79626 -2.3443 -2.45534e-15 
4.01165 -2.36978 -1.96927e-15 
4.22019 -2.33241 -1.20196e-15 
4.44041 -2.34376 -8.70546e-16 
4.6506 -2.34314 4.61794e-16 
4.86334 -2.3421 7.97968e-17 
5.08124 -2.35008 -2.31929e-16 
5.29353 -2.35823 6.31589e-16 
5.51024 -2.34083 9.52933e-16 
5.72915 -2.35197 1.39022e-15 
5.9464 -2.36471 1.95898e-15 
6.16262 -2.33386 2.36893e-15 
6.395 -2.35612 3.06819e-15 
6.60407 -2.35441 3.94665e-15 
6.82724 -2.30915 4.21076e-15 
7.05619 -2.36721 5.97763e-15 
7.27379 -2.38857 7.34816e-15 
7.53291 -2.36491 6.59789e-15 
7.77609 -2.3986 8.32276e-15 
7.99145 -2.30254 6.86687e-15 
8.2586 -2.36818 1.88188e-15 
8.48528 -2.27274 -1.07424e-14 
-8.48528 -2.08728 -4.87277e-15 
-8.26844 -2.12193 1.15491e-15 
-8.03756 -2.09359 -1.95933e-15 
-7.80012 -2.15025 -2.16526e-15 
-7.50674 -2.02464 -5.21014e-16 
-7.29671 -2.20995 -2.81333e-15 
-7.06266 -2.12445 -2.72731e-15 
-6.80312 -2.14644 -2.67886e-15 
-6.58992 -2.10802 -2.29228e-15 
-6.35454 -2.13979 -1.92274e-15 
-6.1255 -2.10829 -1.42889e-15 
-5.92008 -2.10545 -1.14399e-15 
-5.69138 -2.11495 -7.91312e-16 
-5.46983 -2.10724 4.95953e-16 
-5.25247 -2.11963 2.92161e-16 
-5.03775 -2.10788 3.55687e-17 
-4.81392 -2.11805 -1.95243e-16 
-4.59532 -2.12191 -4.45431e-16 
-4.37882 -2.12529 6.91612e-16 
-4.16671 -2.10844 9.50562e-16 
-3.95172 -2.10386 1.27681e-15 
-3.73989 -2.1043 1.74214e-15 
-3.52597 -2.11808 2.23051e-15 
-3.31773 -2.12351 2.82863e-15 
-3.10476 -2.12976 3.60699e-15 
-2.89937 -2.12172 4.39162e-15 
-2.68321 -2.12629 5.33543e-15 
-2.47121 -2.1418 6.71761e-15 
-2.26279 -2.15972 8.23058e-15 
-2.03738 -2.13026 7.81284e-15 
-1.8169 -2.14634 7.67513e-15 
-1.597 -2.12807 5.52563e-15 
-1.38154 -2.06672 2.48093e-15 
-1.17348 -1.95865 -1.38275e-14 
-1.03709 -2.13364 2.85648e-15 
-0.805415 -2.05844 -6.38653e-15 
-0.560673 -1.94742 -2.59526e-15 
-0.345489 -1.88587 -2.0089e-14 
-0.136786 -1.92257 3.18206e-14 
0.0193768 -1.70076 1.63839e-14 
0.217992 -1.87615 5.84398e-15 
0.247153 -1.57478 -8.72481e-15 
0.465007 -1.83712 1.1144e-14 
0.700103 -1.98213 -1.63859e-14 
0.940387 -2.04614 2.99495e-15 
1.1726 -2.05818 2.44625e-15 
1.43065 -2.1594 -5.95311e-15 
1.66935 -2.1248 -6.9698e-15 
1.8875 -2.18106 -6.3767e-15 
2.12331 -2.17267 -6.75954e-15 
2.3598 -2.15228 -6.53645e-15 
2.56032 -2.11756 -6.88495e-15 
2.77739 -2.15807 -5.63296e-15 
2.98978 -2.12083 -3.26058e-15 
3.20555 -2.1176 -3.23453e-15 
3.40633 -2.11323 -2.69549e-15 
3.62308 -2.10124 -1.74986e-15 
3.84033 -2.11473 -1.53807e-15 
4.04292 -2.12008 -1.0731e-15 
4.27046 -2.10385 -7.38399e-16 
4.48121 -2.10197 4.8964e-16 
4.69531 -2.10341 2.70419e-16 
4.91391 -2.11143 6.57254e-17 
5.12822 -2.11158 -1.73548e-16 
5.34064 -2.12056 -3.89849e-16 
5.56447 -2.11011 5.68393e-16 
5.78242 -2.11873 8.5942e-16 
5.99333 -2.11963 1.17522e-15 
6.23326 -2.11673 1.43503e-15 
6.44335 -2.10386 1.84201e-15 
6.65533 -2.1073 2.28027e-15 
6.90963 -2.09743 2.44878e-15 
7.12441 -2.12747 2.99454e-15 
7.35504 -2.17253 3.11832e-15 
7.5471 -2.07574 1.24847e-15 
7.73255 -2.16457 2.74242e-15 
7.9509 -2.06844 2.16476e-15 
8.20204 -2.14317 9.15943e-16 
8.48528 -2.07467 -8.84438e-16 
-8.48528 -1.80477 -5.07054e-15 
-8.28564 -1.86684 5.29725e-16 
-7.88229 -1.89445 -1.31273e-15 
[...]
POINT_DATA 1978 
VECTORS vectors float
0.000174731 -0.000597282 1 
0.000207732 -0.080708 0.996738 
-8.09129e-05 -0.105244 0.994446 
-0.000152812 -0.0992943 0.995058 
-5.35772e-05 -0.079876 0.996805 
-1.00056e-05 -0.0642667 0.997933 
2.31194e-05 -0.0506609 0.998716 
8.40296e-05 -0.0404417 0.999182 
7.7092e-05 -0.0312668 0.999511 
0.000104075 -0.0237438 0.999718 
0.000121941 -0.0181863 0.999835 
7.27831e-05 -0.0130474 0.999915 
0.000108182 -0.00892508 0.99996 
0.000110437 -0.00596771 0.999982 
8.4803e-05 -0.00364262 0.999993 
8.66979e-05 -0.00177499 0.999998 
9.97289e-05 0.000140491 1 
9.40212e-05 0.00221061 0.999998 
6.91273e-05 0.00485554 0.999988 
7.0571e-05 0.0081643 0.999967 
8.56068e-05 0.0123208 0.999924 
9.1614e-05 0.0174499 0.999848 
8.45122e-05 0.0241531 0.999708 
7.15503e-05 0.0326736 0.999466 
7.0736e-05 0.0444788 0.99901 
9.46019e-05 0.0592732 0.998242 
0.000120508 0.0788291 0.996888 
0.000110533 0.101979 0.994787 
7.58615e-05 0.134272 0.990945 
7.48295e-05 0.17523 0.984528 
8.37555e-05 0.225988 0.97413 
7.52265e-05 0.28746 0.957793 
5.12432e-05 0.3626 0.931945 
5.20487e-05 0.457899 0.889004 
3.19881e-05 0.548718 0.836007 
-1.39138e-05 0.688385 0.725345 
-6.16414e-06 0.805913 0.592034 
2.86921e-06 0.890866 0.454266 
-7.78304e-06 0.973639 0.228093 
-8.80036e-07 0.999571 -0.0292714 
3.69802e-06 0.971391 -0.237485 
1.26401e-05 0.906622 -0.421944 
5.38874e-06 0.799618 -0.600509 
-9.67485e-06 0.675343 -0.737504 
-4.0004e-05 0.563999 -0.825776 
-5.01878e-05 0.462694 -0.886518 
-3.68761e-05 0.377047 -0.926194 
-4.04441e-05 0.286417 -0.958105 
-8.68778e-05 0.230225 -0.973137 
-6.48193e-05 0.177898 -0.984049 
-9.33944e-05 0.134057 -0.990974 
-8.68625e-05 0.104671 -0.994507 
-4.73784e-05 0.077721 -0.996975 
-7.67136e-05 0.0575402 -0.998343 
-9.83187e-05 0.042921 -0.999078 
-7.856e-05 0.0320654 -0.999486 
-8.47182e-05 0.0231744 -0.999731 
-0.000100602 0.0171748 -0.999852 
-6.15408e-05 0.0123316 -0.999924 
-8.45804e-05 0.00818854 -0.999966 
-0.000120342 0.00530163 -0.999986 
-0.000108627 0.00259595 -0.999997 
-0.000115439 0.000223277 -1 
-0.000102498 -0.00177852 -0.999998 
-9.33759e-05 -0.00402385 -0.999992 
-0.000112547 -0.00650583 -0.999979 
-9.37917e-05 -0.00928246 -0.999957 
-6.94608e-05 -0.013186 -0.999913 
-9.67653e-05 -0.018227 -0.999834 
-5.81763e-05 -0.0235503 -0.999723 
-5.19006e-05 -0.0317076 -0.999497 
-0.000118752 -0.0400802 -0.999196 
-4.09151e-05 -0.0494972 -0.998774 
2.53616e-05 -0.0649656 -0.997888 
-5.83216e-06 -0.0815652 -0.996668 
8.61013e-06 -0.10055 -0.994932 
4.06781e-05 -0.113721 -0.993513 
-1.01845e-05 -0.0997412 -0.995013 
-8.38391e-05 -0.000318457 -1 
8.52502e-06 0.000187605 1 
0.0214869 -0.0665055 0.997555 
0.0386657 -0.0947808 0.994747 
0.0362751 -0.0953976 0.994778 
0.0338503 -0.0816694 0.996084 
0.0415882 -0.0631363 0.997138 
0.0466896 -0.0504586 0.997634 
0.0471566 -0.0402972 0.998074 
0.0471408 -0.0311897 0.998401 
0.0540037 -0.0239885 0.998253 
0.0487175 -0.0173793 0.998661 
0.051335 -0.0127049 0.998601 
0.0543538 -0.00907963 0.99848 
0.0519362 -0.00594906 0.998633 
0.0535839 -0.00354551 0.998557 
0.0526292 -0.00141099 0.998613 
0.0549446 0.000708147 0.998489 
0.0519357 0.00318667 0.998645 
0.0521339 0.00620721 0.998621 
0.0518093 0.00993425 0.998608 
0.0526265 0.0144912 0.998509 
0.0507992 0.0201923 0.998505 
0.0503343 0.027496 0.998354 
0.046885 0.0371428 0.99821 
0.0471243 0.0497035 0.997652 
0.0443831 0.0659651 0.996834 
0.0443778 0.0861566 0.995293 
0.0382447 0.112398 0.992927 
0.0350011 0.148031 0.988363 
0.0313293 0.191749 0.980944 
0.0272188 0.246696 0.968711 
0.0221092 0.316051 0.948485 
0.0162053 0.397821 0.91732 
0.0136423 0.484835 0.874499 
0.00600251 0.602631 0.797997 
0.00327937 0.724286 0.689491 
0.00135352 0.822254 0.569119 
-0.000601961 0.917545 0.397632 
-0.00103704 0.979799 0.199982 
-0.00186802 0.999989 -0.00439113 
-0.00237309 0.976159 -0.217041 
-0.00401928 0.912044 -0.410072 
-0.00470368 0.821163 -0.570674 
-0.00671048 0.694831 -0.719141 
-0.0103812 0.567906 -0.823028 
-0.0147374 0.463483 -0.885983 
-0.0159999 0.354825 -0.934796 
-0.02601 0.282597 -0.958886 
-0.0275706 0.219258 -0.975277 
-0.0316402 0.167003 -0.985449 
-0.040362 0.129578 -0.990747 
-0.0378428 0.0985896 -0.994408 
-0.0424952 0.0738114 -0.996366 
-0.0461037 0.0556856 -0.997383 
-0.0487567 0.0420549 -0.997925 
-0.0469221 0.0308128 -0.998423 
-0.0526018 0.0231118 -0.998348 
-0.0508132 0.0168156 -0.998567 
-0.0492423 0.0116585 -0.998719 
-0.0557367 0.00799319 -0.998414 
-0.0527122 0.0047346 -0.998599 
-0.0537215 0.00196886 -0.998554 
-0.0550274 -0.000483075 -0.998485 
-0.0520915 -0.00284506 -0.998638 
-0.0529991 -0.00536148 -0.99858 
-0.0543485 -0.00810586 -0.998489 
-0.0506095 -0.0114194 -0.998653 
-0.049878 -0.0158295 -0.99863 
-0.0539398 -0.0210908 -0.998321 
-0.045286 -0.027572 -0.998593 
-0.0502512 -0.0358463 -0.998093 
-0.0515237 -0.0450174 -0.997657 
-0.0397006 -0.0569462 -0.997588 
-0.0438627 -0.0728242 -0.99638 
-0.0411094 -0.0888403 -0.995197 
-0.0368752 -0.102458 -0.994054 
-0.0434281 -0.0932624 -0.994694 
-0.0133989 -0.0589611 -0.99817 
5.53968e-06 0.000233483 -1 
5.16069e-05 3.50335e-05 1 
0.0356041 -0.0680749 0.997045 
0.0551491 -0.0903107 0.994386 
0.0582784 -0.0905768 0.994183 
0.0650227 -0.0832221 0.994407 
0.0586152 -0.0774211 0.995274 
0.0651366 -0.0607273 0.996027 
0.0690825 -0.0485487 0.996429 
0.0694541 -0.0375088 0.99688 
0.0723849 -0.0292427 0.996948 
0.0731962 -0.0214139 0.997088 
0.074299 -0.0161188 0.997106 
0.0759445 -0.0118694 0.997041 
0.0765311 -0.00815855 0.997034 
0.077114 -0.00532604 0.997008 
0.0775672 -0.00280979 0.996983 
0.078332 -0.000496389 0.996927 
0.0777565 0.00214997 0.99697 
0.077069 0.00516547 0.997012 
0.0764039 0.0088577 0.997038 
0.0758124 0.013267 0.997034 
0.0743986 0.018682 0.997054 
0.0728664 0.0254333 0.997017 
0.0705991 0.034324 0.996914 
0.0687155 0.0456952 0.996589 
0.0660504 0.060767 0.995964 
0.0635174 0.0796086 0.9948 
0.0591389 0.10414 0.992803 
0.0537412 0.134882 0.989403 
0.0480726 0.177655 0.982918 
0.0411665 0.228868 0.972587 
0.0330149 0.297013 0.954303 
0.0243614 0.381829 0.923912 
0.0171144 0.476426 0.879048 
0.0101062 0.584922 0.811026 
0.00472295 0.699544 0.714574 
-0.000314624 0.826131 0.563478 
-0.00235325 0.916738 0.399481 
-0.00318566 0.976736 0.214422 
-0.00459194 0.999908 -0.0127668 
-0.0047069 0.971774 -0.235865 
-0.00653068 0.895037 -0.445944 
-0.00770838 0.805988 -0.591881 
-0.0100812 0.694623 -0.719303 
-0.0140258 0.57679 -0.816772 
-0.0199031 0.468896 -0.883029 
-0.025546 0.377241 -0.925763 
-0.0330367 0.311586 -0.949644 
-0.0399607 0.242602 -0.969303 
-0.0462511 0.186419 -0.981381 
-0.0532284 0.143591 -0.988205 
-0.0580844 0.108187 -0.992432 
-0.0614704 0.0832759 -0.994629 
-0.0657426 0.062586 -0.995872 
-0.0688413 0.0477787 -0.996483 
-0.070138 0.035576 -0.996903 
-0.0731741 0.0270449 -0.996952 
-0.074357 0.019958 -0.997032 
-0.0744536 0.0142646 -0.997122 
-0.0772012 0.010107 -0.996964 
-0.0775554 0.00622119 -0.996969 
-0.078043 0.00309716 -0.996945 
-0.0784776 0.000330477 -0.996916 
-0.0780601 -0.00230667 -0.996946 
-0.0773883 -0.0048298 -0.996989 
-0.0775343 -0.0076559 -0.99696 
-0.0761665 -0.0108419 -0.997036 
-0.0745237 -0.0146562 -0.997112 
-0.0748172 -0.0195007 -0.997007 
-0.0723317 -0.0258759 -0.997045 
-0.0710806 -0.0329268 -0.996927 
-0.0709871 -0.0423473 -0.996578 
-0.0673355 -0.0538445 -0.996276 
-0.0646824 -0.0668071 -0.995667 
-0.0628833 -0.0829277 -0.99457 
-0.0594043 -0.0945348 -0.993748 
-0.0576737 -0.0921651 -0.994072 
-0.0319803 -0.0610258 -0.997624 
-0.000115577 -2.27168e-05 -1 
7.66527e-05 9.93068e-05 1 
0.0284477 -0.0560248 0.998024 
0.0503467 -0.0855489 0.995061 
0.0599343 -0.0902132 0.994117 
0.0627328 -0.0819279 0.994662 
0.0675835 -0.0691578 0.995314 
0.0692659 -0.0552368 0.996068 
0.071896 -0.0418572 0.996533 
0.0735962 -0.0331567 0.996737 
0.0753911 -0.0250443 0.996839 
0.0762391 -0.0189877 0.996909 
0.077338 -0.0145797 0.996898 
0.0783935 -0.0105867 0.996866 
0.0791301 -0.00741441 0.996837 
0.0801063 -0.00461058 0.996776 
0.0803739 -0.00206601 0.996763 
0.080709 0.000761905 0.996737 
0.0805433 0.00385096 0.996744 
0.0799005 0.00744578 0.996775 
0.0785648 0.0116631 0.996841 
0.0770167 0.0167483 0.996889 
0.0753291 0.0228906 0.996896 
0.0736285 0.0307489 0.996812 
0.0715617 0.0406168 0.996609 
0.0691832 0.0536128 0.996162 
0.0661492 0.0699026 0.995358 
0.0624013 0.0917218 0.993828 
0.0580412 0.11897 0.9912 
0.0527612 0.153325 0.986766 
0.044856 0.202185 0.97832 
0.0370512 0.262576 0.9642 
0.0281145 0.339082 0.940336 
0.0186821 0.427801 0.90368 
0.0092282 0.537293 0.843345 
0.00874261 0.577797 0.816134 
0.00210552 0.705582 0.708625 
-0.00194709 0.829185 0.55897 
-0.00370038 0.930135 0.367199 
-0.00566224 0.991646 0.128863 
-0.00240652 0.997789 -0.0664165 
-0.00625768 0.972089 -0.234528 
-5.01619e-05 0.953847 -0.300293 
-0.00489698 0.870896 -0.491444 
-0.00729609 0.738968 -0.673701 
-0.0109669 0.626135 -0.779638 
-0.0159515 0.514136 -0.85756 
-0.0249676 0.396393 -0.917741 
-0.0323753 0.309137 -0.950466 
-0.0404368 0.241107 -0.969656 
-0.0482874 0.184236 -0.981695 
-0.0548336 0.137361 -0.989002 
-0.0596641 0.106738 -0.992495 
-0.0644341 0.0810451 -0.994626 
-0.0670628 0.0627104 -0.995776 
-0.0702774 0.0471201 -0.996414 
-0.0726046 0.0361118 -0.996707 
-0.0743546 0.0271295 -0.996863 
-0.0765516 0.0198962 -0.996867 
-0.0779664 0.0146679 -0.996848 
-0.0790844 0.0098543 -0.996819 
-0.0798418 0.00600584 -0.996789 
-0.080403 0.00260508 -0.996759 
-0.080697 -0.000475554 -0.996739 
-0.080473 -0.00325638 -0.996751 
-0.0801201 -0.00597858 -0.996767 
-0.0791731 -0.00910528 -0.996819 
-0.0783261 -0.0124522 -0.99685 
-0.0772224 -0.0163397 -0.99688 
-0.0759167 -0.0218989 -0.996874 
-0.0743086 -0.0280065 -0.996842 
-0.0728485 -0.0355847 -0.996708 
-0.0707087 -0.0471165 -0.996384 
-0.0692302 -0.058791 -0.995867 
-0.0676572 -0.0729328 -0.995039 
-0.0642168 -0.0844325 -0.994358 
-0.0633026 -0.0915705 -0.993784 
-0.056853 -0.0916087 -0.994171 
-0.0407377 -0.0697197 -0.996734 
-0.000200327 -5.64279e-06 -1 
-5.33616e-05 8.97487e-05 1 
0.023786 -0.0520706 0.99836 
0.0527833 -0.092472 0.994315 
0.0566085 -0.088854 0.994435 
0.0548221 -0.0778992 0.995453 
0.0643283 -0.0688156 0.995553 
0.0599901 -0.0607571 0.996348 
0.065927 -0.0488475 0.996628 
0.0652247 -0.038569 0.997125 
0.0686656 -0.0298088 0.997194 
0.0692997 -0.0231922 0.997326 
0.068273 -0.018075 0.997503 
0.0705718 -0.0137268 0.997412 
0.0714704 -0.0101556 0.997391 
0.0720706 -0.00696536 0.997375 
0.0726301 -0.00417583 0.99735 
0.0734351 -0.00111198 0.997299 
0.0735913 0.00211757 0.997286 
0.0733537 0.00572867 0.99729 
0.0720853 0.0097671 0.997351 
0.0705186 0.0145323 0.997405 
0.0687361 0.0201644 0.997431 
0.0673846 0.0270858 0.997359 
0.0655919 0.0355871 0.997212 
0.0637905 0.0465237 0.996878 
0.061032 0.0602886 0.996313 
0.0581415 0.0783383 0.99523 
0.0542466 0.101747 0.99333 
0.0500157 0.131112 0.990105 
0.0451316 0.169049 0.984574 
0.0364957 0.226164 0.973405 
0.0293664 0.29001 0.956573 
0.0203108 0.368139 0.929549 
0.0114574 0.464298 0.885605 
0.00224419 0.657771 0.753215 
-0.0013214 0.775342 0.63154 
-0.00200004 0.885766 0.464128 
-4.54341e-05 0.943942 0.330112 
-0.00165911 0.977744 0.209795 
0.00212723 0.998671 0.0514857 
0.000631062 0.98601 -0.166682 
0.00152265 0.90719 -0.420719 
-0.00132544 0.834264 -0.551364 
-0.00443948 0.705143 -0.709051 
-0.008725 0.583423 -0.812121 
-0.0131377 0.486351 -0.873665 
-0.0209396 0.41416 -0.909963 
-0.0243104 0.346882 -0.937594 
-0.0321846 0.270771 -0.962106 
-0.0404083 0.211742 -0.97649 
-0.0473894 0.159342 -0.986085 
-0.0508179 0.121686 -0.991267 
-0.0566765 0.0914525 -0.994195 
-0.0589567 0.0718583 -0.995671 
-0.0621583 0.0541195 -0.996598 
-0.0640776 0.0414589 -0.997083 
-0.0662706 0.0317691 -0.997296 
-0.0686278 0.0234681 -0.997366 
-0.0697244 0.0174661 -0.997413 
-0.0719544 0.0123949 -0.997331 
-0.0717007 0.00783129 -0.997395 
-0.0724866 0.00391298 -0.997362 
-0.073186 0.000373432 -0.997318 
-0.0728898 -0.00275225 -0.997336 
-0.0726416 -0.00576667 -0.997341 
-0.0724317 -0.00871658 -0.997335 
-0.0711655 -0.0121978 -0.99739 
-0.0699448 -0.015968 -0.997423 
-0.0701098 -0.0205196 -0.997328 
-0.0668008 -0.0267362 -0.997408 
-0.0655307 -0.0340154 -0.997271 
-0.0655959 -0.0431801 -0.996912 
-0.0623237 -0.0565277 -0.996454 
-0.0625454 -0.0699095 -0.995591 
-0.0575118 -0.0840167 -0.994803 
-0.0556929 -0.0928138 -0.994125 
-0.0465354 -0.0883519 -0.995002 
-0.0320604 -0.0612677 -0.997606 
-7.28703e-05 7.02967e-05 -1 
5.02493e-05 4.00336e-05 1 
0.0201015 -0.055529 0.998255 
0.0400314 -0.0838791 0.995672 
0.0434698 -0.0939624 0.994626 
0.0472963 -0.0899541 0.994822 
0.0487152 -0.0709056 0.996293 
0.0524113 -0.0541048 0.997159 
0.0548185 -0.0444936 0.997505 
0.0563398 -0.0335591 0.997847 
0.0576488 -0.0266748 0.99798 
0.056941 -0.0212404 0.998152 
0.0577187 -0.0161819 0.998202 
0.059543 -0.0124653 0.998148 
0.0605954 -0.00906452 0.998121 
0.0600758 -0.00595203 0.998176 
0.0618216 -0.00273989 0.998083 
0.0620128 0.000728726 0.998075 
0.0617544 0.00456022 0.998081 
0.0605013 0.00871706 0.99813 
0.0593918 0.0134132 0.998145 
0.0578941 0.0188867 0.998144 
0.0566898 0.0255418 0.998065 
0.0550048 0.0336692 0.997918 
0.0536031 0.0439589 0.997594 
0.0511521 0.0569868 0.997064 
0.0486905 0.0740543 0.996065 
0.0454293 0.0962064 0.994324 
0.0410965 0.126182 0.991156 
0.0369643 0.164936 0.985611 
0.0312757 0.21579 0.975939 
0.0213165 0.296136 0.954908 
0.0131372 0.388271 0.921452 
0.00544036 0.499188 0.866477 
0.000142087 0.61967 0.784863 
0.00344677 0.581443 0.81358 
-0.000292515 0.691642 0.72224 
-0.00182203 0.808823 0.58805 
-0.00139178 0.882561 0.470195 
-0.00104767 0.994088 0.108574 
-0.000758145 0.999309 0.0371535 
-0.00240619 0.992738 -0.120273 
-0.00120473 0.936373 -0.351005 
0.000817118 0.845932 -0.533289 
0.000275388 0.752008 -0.659154 
-0.00223221 0.630748 -0.775985 
-0.00537992 0.516171 -0.856469 
-0.0135521 0.411647 -0.911243 
-0.0201186 0.320209 -0.947133 
-0.0273243 0.250634 -0.967696 
-0.0360999 0.194743 -0.98019 
-0.0395427 0.15001 -0.987893 
-0.0443061 0.109223 -0.993029 
-0.0463168 0.086428 -0.995181 
-0.0503633 0.0657617 -0.996564 
-0.0518182 0.0508014 -0.997364 
-0.0533676 0.0391265 -0.997808 
-0.0565154 0.0295596 -0.997964 
-0.0572957 0.022505 -0.998104 
-0.0586151 0.0165187 -0.998144 
-0.0608672 0.0114894 -0.99808 
-0.059947 0.00683844 -0.998178 
-0.0611281 0.00266116 -0.998126 
-0.0610109 -0.000951156 -0.998137 
-0.0610581 -0.00431125 -0.998125 
-0.0603462 -0.00746431 -0.99815 
-0.0608084 -0.0106055 -0.998093 
-0.0588124 -0.0141602 -0.998169 
-0.0583837 -0.0182494 -0.998127 
-0.0579866 -0.022914 -0.998054 
-0.0543251 -0.0295224 -0.998087 
-0.0539448 -0.0376692 -0.997833 
-0.0551741 -0.0479263 -0.997326 
-0.0500754 -0.0596302 -0.996964 
-0.0523571 -0.0714356 -0.99607 
-0.0470875 -0.0857218 -0.995206 
-0.0466519 -0.0941434 -0.994465 
-0.0384612 -0.0907464 -0.995131 
-0.0239247 -0.0574577 -0.998061 
-6.44583e-05 2.25223e-05 -1 
4.96542e-05 1.61856e-06 1 
0.0180245 -0.0655368 0.997687 
0.0329492 -0.0885788 0.995524 
0.0349058 -0.0950241 0.994863 
0.0408084 -0.0850867 0.995538 
0.036452 -0.0737546 0.99661 
0.0419831 -0.060367 0.997293 
0.0395947 -0.0479344 0.998065 
0.0453248 -0.038995 0.998211 
0.0438439 -0.0307731 0.998564 
0.0443852 -0.0250222 0.998701 
0.046208 -0.0195963 0.99874 
0.0458035 -0.015418 0.998831 
0.0480381 -0.0118902 0.998775 
0.0485398 -0.00863491 0.998784 
0.0485676 -0.00518452 0.998806 
0.0499183 -0.00174904 0.998752 
0.0498286 0.00208381 0.998756 
0.0487353 0.00615779 0.998793 
0.0478833 0.0107093 0.998796 
0.0470739 0.0157541 0.998767 
0.0461041 0.02161 0.998703 
0.0448314 0.0285068 0.998588 
0.0435409 0.0371485 0.998361 
0.0420085 0.0478112 0.997973 
0.0400193 0.0618529 0.997283 
0.0375549 0.0799446 0.996092 
0.034615 0.104038 0.993971 
0.0304749 0.136885 0.990118 
0.0265765 0.179031 0.983484 
0.0218119 0.239052 0.970762 
0.0131202 0.325379 0.945493 
0.00692421 0.421733 0.906693 
0.00200753 0.525429 0.850835 
-0.00209512 0.739891 0.672724 
-0.00247513 0.863435 0.504454 
-0.00223369 0.951413 0.307911 
0.000518673 0.954462 0.298332 
-0.00029544 0.962513 0.271236 
-0.000307724 0.996334 0.0855466 
0.000645259 0.999482 -0.0321868 
-0.000789878 0.985283 -0.17093 
-0.00154259 0.942562 -0.334026 
0.000596096 0.808121 -0.589016 
0.000736466 0.712187 -0.701989 
-0.000194005 0.592484 -0.805582 
-0.00713079 0.421375 -0.906858 
-0.0128228 0.329823 -0.943956 
-0.0196186 0.250213 -0.967992 
-0.0278565 0.191346 -0.981127 
-0.024454 0.17036 -0.985078 
-0.0338302 0.133943 -0.990411 
-0.0338719 0.103625 -0.99404 
-0.0380608 0.0782067 -0.99621 
-0.0400544 0.0607184 -0.997351 
-0.0415558 0.0465376 -0.998052 
-0.0440595 0.0350614 -0.998413 
-0.045175 0.0269752 -0.998615 
-0.0464564 0.0201302 -0.998717 
-0.0477481 0.014305 -0.998757 
-0.0488975 0.00948336 -0.998759 
-0.0488267 0.00442626 -0.998797 
-0.0487464 0.000300402 -0.998811 
-0.0490322 -0.00351266 -0.998791 
-0.0482947 -0.00696806 -0.998809 
-0.0484225 -0.0103434 -0.998773 
-0.0474351 -0.0136819 -0.998781 
-0.0467609 -0.0176762 -0.99875 
-0.0453821 -0.0223406 -0.99872 
-0.0439939 -0.0277875 -0.998645 
-0.042245 -0.0361047 -0.998455 
-0.0432881 -0.0464198 -0.997984 
-0.0397576 -0.0601156 -0.997399 
-0.0401286 -0.0756555 -0.996326 
-0.0351959 -0.0890634 -0.995404 
-0.0364354 -0.0957549 -0.994738 
-0.0295595 -0.0940519 -0.995128 
-0.0220963 -0.0682608 -0.997423 
-5.07558e-05 1.04987e-05 -1 
7.31035e-05 1.40669e-05 1 
0.0136127 -0.0657114 0.997746 
0.026546 -0.0939041 0.995227 
0.0250616 -0.0974839 0.994922 
0.0309004 -0.0897366 0.995486 
0.0277472 -0.0762238 0.996705 
0.0313475 -0.0593376 0.997746 
0.029569 -0.0464518 0.998483 
0.0339503 -0.0372159 0.99873 
0.0316313 -0.0303077 0.99904 
0.0344837 -0.0240351 0.999116 
0.0356314 -0.0192182 0.99918 
0.0350962 -0.0152612 0.999267 
0.03729 -0.0117485 0.999235 
0.0383465 -0.00813582 0.999231 
0.0378662 -0.00439066 0.999273 
0.0390244 -0.000538045 0.999238 
0.0379485 0.00362746 0.999273 
0.0373488 0.00831591 0.999268 
0.0368694 0.0134298 0.99923 
0.0363031 0.019034 0.99916 
0.0352509 0.0255284 0.999052 
0.0342835 0.033496 0.998851 
0.0328816 0.0434746 0.998513 
0.0315387 0.0562403 0.997919 
0.0294325 0.0731743 0.996885 
0.0269384 0.0959353 0.995023 
0.0238193 0.126333 0.991702 
0.0198179 0.16992 0.985258 
0.0165724 0.226835 0.973792 
0.0109676 0.30067 0.953665 
0.00479581 0.407357 0.913257 
0.00128459 0.519035 0.854752 
-0.00121069 0.648512 0.761204 
-0.00119451 0.637819 0.770185 
-0.00150534 0.86322 0.504826 
0.00499922 0.959824 0.280558 
0.00632004 0.998947 0.0454419 
0.00474784 0.999748 0.0219475 
0.00270864 0.999975 -0.00659176 
0.00311046 0.999415 -0.0340654 
0.000896102 0.997793 -0.0663981 
-0.00200085 0.955834 -0.293902 
7.9201e-05 0.825052 -0.565057 
0.00258766 0.669073 -0.743192 
0.00290311 0.565338 -0.824854 
-0.000798269 0.49636 -0.868117 
-0.00411551 0.38738 -0.921911 
-0.0095632 0.299554 -0.954032 
-0.0153392 0.228032 -0.973533 
-0.018382 0.169263 -0.985399 
-0.0251009 0.128573 -0.991382 
-0.0274451 0.0926274 -0.995323 
-0.0292664 0.0714474 -0.997015 
-0.0314526 0.0549943 -0.997991 
-0.0334573 0.0414888 -0.998579 
-0.0342117 0.0320927 -0.998899 
-0.0355858 0.0244221 -0.999068 
-0.0367668 0.0180262 -0.999161 
-0.0370335 0.0126485 -0.999234 
-0.0390622 0.00758311 -0.999208 
-0.037668 0.00279947 -0.999286 
-0.0381311 -0.00155419 -0.999272 
-0.0376366 -0.00535053 -0.999277 
-0.0375652 -0.00900541 -0.999254 
-0.0366599 -0.0123755 -0.999251 
-0.0366756 -0.015951 -0.9992 
-0.0353233 -0.0199768 -0.999176 
-0.0334369 -0.0247256 -0.999135 
-0.0336732 -0.0311108 -0.998949 
-0.030907 -0.0391539 -0.998755 
-0.0331352 -0.0478597 -0.998304 
-0.0290606 -0.0592548 -0.99782 
-0.0307989 -0.0730069 -0.996856 
-0.0268714 -0.0878614 -0.99577 
-0.0261778 -0.0975137 -0.99489 
-0.021142 -0.0933874 -0.995405 
-0.01459 -0.0616318 -0.997992 
-4.2489e-05 5.16345e-05 -1 
2.82321e-05 1.38026e-05 1 
0.00982915 -0.066164 0.99776 
0.0186887 -0.0945643 0.995343 
0.0181215 -0.0991669 0.994906 
0.0223764 -0.0894547 0.995739 