# vtk DataFile Version 3.0 
Exported using Morpho https://github.com/Morpho-lang/morpho 
ASCII 
DATASET UNSTRUCTURED_GRID 

POINTS 2054 float 
-8.48528 -2.82843 0 
-8.20636 -2.82843 0 
-7.94054 -2.82843 0 
-7.6904 -2.82843 0 
-7.45357 -2.82843 0 
-7.22694 -2.82843 0 
-7.00705 -2.82843 0 
-6.79111 -2.82843 0 
-6.57731 -2.82843 0 
-6.36453 -2.82843 0 
-6.15219 -2.82843 0 
-5.94 -2.82843 0 
-5.72786 -2.82843 0 
-5.51573 -2.82843 0 
-5.3036 -2.82843 0 
-5.09147 -2.82843 0 
-4.87933 -2.82843 0 
-4.6672 -2.82843 0 
-4.45507 -2.82843 0 
-4.24294 -2.82843 0 
-4.03081 -2.82843 0 
-3.81867 -2.82843 0 
-3.60654 -2.82843 0 
-3.39441 -2.82843 0 
-3.18228 -2.82843 0 
-2.97015 -2.82843 0 
-2.75801 -2.82843 0 
-2.54588 -2.82843 0 
-2.33375 -2.82843 0 
-2.12162 -2.82843 0 
-1.90949 -2.82843 0 
-1.69735 -2.82843 0 
-1.48522 -2.82843 0 
-1.27309 -2.82843 0 
-1.06096 -2.82843 0 
-0.848825 -2.82843 0 
-0.636693 -2.82843 0 
-0.424561 -2.82843 0 
-0.212429 -2.82843 0 
-0.000296761 -2.82843 0 
0.211835 -2.82843 0 
0.423967 -2.82843 0 
0.636099 -2.82843 0 
0.848231 -2.82843 0 
1.06036 -2.82843 0 
1.2725 -2.82843 0 
1.48463 -2.82843 0 
1.69676 -2.82843 0 
1.90889 -2.82843 0 
2.12102 -2.82843 0 
2.33316 -2.82843 0 
2.54529 -2.82843 0 
2.75742 -2.82843 0 
2.96955 -2.82843 0 
3.18168 -2.82843 0 
3.39382 -2.82843 0 
3.60595 -2.82843 0 
3.81808 -2.82843 0 
4.03021 -2.82843 0 
4.24234 -2.82843 0 
4.45448 -2.82843 0 
4.66661 -2.82843 0 
4.87874 -2.82843 0 
5.09087 -2.82843 0 
5.303 -2.82843 0 
5.51514 -2.82843 0 
5.72727 -2.82843 0 
5.93941 -2.82843 0 
6.15159 -2.82843 0 
6.36393 -2.82843 0 
6.57672 -2.82843 0 
6.79055 -2.82843 0 
7.00652 -2.82843 0 
7.22647 -2.82843 0 
7.45313 -2.82843 0 
7.69005 -2.82843 0 
7.9403 -2.82843 0 
8.20621 -2.82843 0 
8.48528 -2.82843 0 
-8.48528 -2.5495 0 
-8.30526 -2.64845 0 
-8.07062 -2.59995 0 
-7.83904 -2.59637 0 
-7.59595 -2.59733 0 
-7.36578 -2.59177 0 
-7.13796 -2.5933 0 
-6.90908 -2.59428 0 
-6.68421 -2.5916 0 
-6.46568 -2.58832 0 
-6.24926 -2.58859 0 
-6.03358 -2.58941 0 
-5.81848 -2.59013 0 
-5.60402 -2.59075 0 
-5.39005 -2.59135 0 
-5.17642 -2.59186 0 
-4.96311 -2.59223 0 
-4.75009 -2.59242 0 
-4.53736 -2.59244 0 
-4.32497 -2.59236 0 
-4.1128 -2.59242 0 
-3.90059 -2.59259 0 
-3.68835 -2.5926 0 
-3.47627 -2.59248 0 
-3.26428 -2.59251 0 
-3.05216 -2.59271 0 
-2.83986 -2.59283 0 
-2.62755 -2.59274 0 
-2.41539 -2.59253 0 
-2.20336 -2.59238 0 
-1.99135 -2.59238 0 
-1.77924 -2.59246 0 
-1.56704 -2.59244 0 
-1.35495 -2.59215 0 
-1.14319 -2.59183 0 
-0.931581 -2.59195 0 
-0.719663 -2.59256 0 
-0.507197 -2.59324 0 
-0.294425 -2.59354 0 
-0.0817689 -2.59344 0 
0.130587 -2.59325 0 
0.342804 -2.59322 0 
0.555051 -2.59322 0 
0.767233 -2.59303 0 
0.97919 -2.59278 0 
1.19107 -2.59278 0 
1.40311 -2.59289 0 
1.61524 -2.59286 0 
1.82732 -2.59279 0 
2.03943 -2.59281 0 
2.25163 -2.5928 0 
2.46381 -2.59266 0 
2.67591 -2.59254 0 
2.88801 -2.59237 0 
3.10001 -2.59226 0 
3.31203 -2.59216 0 
3.52402 -2.59207 0 
3.73601 -2.59208 0 
3.94815 -2.59221 0 
4.16052 -2.5923 0 
4.37309 -2.59232 0 
4.58593 -2.59227 0 
4.79921 -2.5922 0 
5.01319 -2.59212 0 
5.22833 -2.5921 0 
5.44534 -2.59239 0 
5.6657 -2.59346 0 
5.89185 -2.59569 0 
6.12685 -2.59429 0 
6.36853 -2.59189 0 
6.6108 -2.57787 0 
6.84491 -2.61411 0 
7.08804 -2.58476 0 
7.34858 -2.60369 0 
7.58803 -2.59327 0 
7.83059 -2.59326 0 
8.06387 -2.59199 0 
8.30038 -2.64348 0 
8.48528 -2.54936 0 
-8.48528 -2.28369 0 
-8.25701 -2.4138 0 
-8.01078 -2.35334 0 
-7.73666 -2.37963 0 
-7.49744 -2.35565 0 
-7.26898 -2.35831 0 
-7.03324 -2.36676 0 
-6.7997 -2.36275 0 
-6.5773 -2.35166 0 
-6.35808 -2.3495 0 
-6.14038 -2.35058 0 
-5.92336 -2.35185 0 
-5.70723 -2.35272 0 
-5.49199 -2.35362 0 
-5.27734 -2.35447 0 
-5.0632 -2.35505 0 
-4.84958 -2.35534 0 
-4.63641 -2.35533 0 
-4.42363 -2.35504 0 
-4.21126 -2.35485 0 
-3.99909 -2.35513 0 
-3.78684 -2.3554 0 
-3.57461 -2.35516 0 
-3.36263 -2.35498 0 
-3.15066 -2.35537 0 
-2.93843 -2.35586 0 
-2.72604 -2.35589 0 
-2.51374 -2.35551 0 
-2.30162 -2.35509 0 
-2.08964 -2.35496 0 
-1.87761 -2.35518 0 
-1.66544 -2.3554 0 
-1.45322 -2.35518 0 
-1.2412 -2.35438 0 
-1.02967 -2.35407 0 
-0.818162 -2.35505 0 
-0.606054 -2.35676 0 
-0.393243 -2.3579 0 
-0.180256 -2.35789 0 
0.0323765 -2.35727 0 
0.244686 -2.35692 0 
0.456926 -2.35692 0 
0.669206 -2.35667 0 
0.881318 -2.35598 0 
1.09315 -2.35559 0 
1.305 -2.35583 0 
1.51709 -2.35595 0 
1.72919 -2.35571 0 
1.9412 -2.35566 0 
2.15334 -2.3558 0 
2.36559 -2.3556 0 
2.57772 -2.35522 0 
2.78976 -2.35507 0 
3.0019 -2.35461 0 
3.21373 -2.35451 0 
3.42571 -2.35439 0 
3.63769 -2.35431 0 
3.84965 -2.35453 0 
4.06183 -2.35491 0 
4.27435 -2.35507 0 
4.48707 -2.35507 0 
4.70017 -2.35506 0 
4.91376 -2.35498 0 
5.12819 -2.35502 0 
5.34378 -2.35528 0 
5.56106 -2.35662 0 
5.78097 -2.35971 0 
6.00401 -2.36251 0 
6.2308 -2.3624 0 
6.45748 -2.35551 0 
6.68075 -2.33423 0 
6.88797 -2.39744 0 
7.05313 -2.27289 0 
7.24377 -2.40237 0 
7.48542 -2.36016 0 
7.73055 -2.36599 0 
7.99177 -2.33552 0 
8.24864 -2.40698 0 
8.48528 -2.28345 0 
-8.48528 -2.03355 0 
-8.25312 -2.18214 0 
-8.03669 -2.07913 0 
-7.83956 -2.18231 0 
-7.6106 -2.12852 0 
-7.38852 -2.10959 0 
-7.16268 -2.14097 0 
-6.9229 -2.1435 0 
-6.70119 -2.12055 0 
-6.48111 -2.11285 0 
-6.26282 -2.11284 0 
-6.045 -2.1151 0 
-5.82775 -2.11658 0 
-5.61153 -2.11776 0 
-5.3962 -2.1192 0 
-5.18144 -2.1203 0 
-4.96732 -2.12084 0 
-4.75387 -2.12105 0 
-4.54086 -2.12091 0 
-4.32822 -2.12045 0 
-4.11596 -2.12045 0 
-3.90382 -2.12107 0 
-3.69156 -2.12116 0 
-3.47938 -2.12058 0 
-3.26746 -2.12068 0 
-3.05542 -2.12154 0 
-2.84307 -2.12198 0 
-2.63064 -2.12162 0 
-2.41836 -2.12087 0 
-2.20626 -2.12031 0 
-1.99426 -2.12034 0 
-1.78217 -2.1207 0 
-1.56989 -2.12074 0 
-1.35755 -2.11993 0 
-1.14542 -2.11838 0 
-0.934012 -2.11859 0 
-0.722404 -2.12089 0 
-0.509943 -2.12344 0 
-0.296911 -2.12431 0 
-0.0840921 -2.12359 0 
0.128295 -2.12281 0 
0.340414 -2.12274 0 
0.552564 -2.12288 0 
0.76478 -2.12226 0 
0.976792 -2.1213 0 
1.18855 -2.12128 0 
1.40042 -2.12188 0 
1.61256 -2.12177 0 
1.82458 -2.12141 0 
2.03655 -2.12164 0 
2.24875 -2.12174 0 
2.46099 -2.12114 0 
2.67302 -2.12065 0 
2.88504 -2.12054 0 
3.09728 -2.1194 0 
3.30873 -2.11968 0 
3.52086 -2.1195 0 
3.7329 -2.11938 0 
3.94484 -2.11986 0 
4.15715 -2.12044 0 
4.36983 -2.12035 0 
4.58282 -2.1204 0 
4.79606 -2.12017 0 
5.01004 -2.12012 0 
5.22483 -2.12002 0 
5.44073 -2.12051 0 
5.6582 -2.123 0 
5.8782 -2.12696 0 
6.10217 -2.12971 0 
6.33095 -2.12707 0 
6.567 -2.11601 0 
6.82301 -2.12303 0 
7.06572 -2.04567 0 
7.29733 -2.17484 0 
7.54632 -2.11408 0 
7.79371 -2.13741 0 
8.02274 -2.07453 0 
8.25027 -2.1738 0 
8.48528 -2.0332 0 
-8.48528 -1.79671 0 
-8.25436 -1.93882 0 
-8.01299 -1.83977 0 
-7.78596 -1.953 0 
-7.5297 -1.87194 0 
-7.2756 -1.88722 0 
-7.05707 -1.93544 0 
-6.84369 -1.89677 0 
-6.62219 -1.88079 0 
-6.40169 -1.87606 0 
-6.18206 -1.87854 0 
-5.96274 -1.881 0 
-5.74458 -1.88208 0 
-5.52796 -1.88344 0 
-5.31232 -1.88506 0 
-5.09736 -1.88569 0 
-4.88338 -1.88564 0 
-4.67019 -1.88555 0 
-4.45737 -1.88507 0 
-4.24485 -1.88447 0 
-4.03271 -1.88482 0 
-3.82061 -1.88562 0 
-3.60832 -1.88529 0 
-3.39617 -1.88464 0 
-3.18427 -1.88547 0 
-2.97209 -1.88672 0 
-2.7596 -1.88684 0 
-2.54714 -1.88601 0 
-2.33483 -1.88505 0 
-2.12268 -1.8846 0 
-1.91058 -1.885 0 
-1.69824 -1.88561 0 
-1.48561 -1.88547 0 
-1.27286 -1.88413 0 
-1.06032 -1.88216 0 
-0.848858 -1.8839 0 
-0.636875 -1.88781 0 
-0.424169 -1.89034 0 
-0.211518 -1.89004 0 
0.000731944 -1.88866 0 
0.21257 -1.88788 0 
0.424308 -1.88807 0 
0.636257 -1.88793 0 
0.848362 -1.88664 0 
1.06025 -1.88556 0 
1.27191 -1.88605 0 
1.48381 -1.88664 0 
1.69595 -1.886 0 
1.90782 -1.88577 0 
2.11974 -1.88637 0 
2.33202 -1.88609 0 
2.54419 -1.88502 0 
2.75607 -1.88472 0 
2.96812 -1.88462 0 
3.18055 -1.88217 0 
3.39117 -1.88415 0 
3.60398 -1.8838 0 
3.81618 -1.88366 0 
4.02827 -1.88469 0 
4.24071 -1.88523 0 
4.4544 -1.88509 0 
4.66716 -1.88476 0 
4.88099 -1.88493 0 
5.09545 -1.88466 0 
5.31057 -1.88453 0 
5.52653 -1.88564 0 
5.7436 -1.88981 0 
5.96352 -1.89563 0 
6.18733 -1.89813 0 
6.41543 -1.89522 0 
6.65059 -1.89622 0 
6.87542 -1.86913 0 
7.11122 -1.81621 0 
7.31223 -1.94975 0 
7.53264 -1.87683 0 
7.77077 -1.89068 0 
8.01717 -1.8297 0 
8.25014 -1.93148 0 
8.48528 -1.79628 0 
-8.48528 -1.57009 0 
-8.24868 -1.70836 0 
-8.015 -1.61096 0 
-7.76734 -1.73071 0 
-7.54593 -1.61782 0 
-7.32306 -1.66278 0 
-7.05152 -1.7082 0 
-6.79786 -1.66675 0 
-6.56099 -1.64764 0 
-6.33267 -1.64541 0 
-6.10856 -1.64921 0 
-5.88638 -1.65073 0 
-5.66697 -1.65153 0 
-5.44986 -1.65353 0 
-5.23379 -1.65525 0 
-5.01882 -1.6551 0 
-4.80519 -1.6548 0 
-4.59235 -1.65478 0 
-4.37976 -1.65422 0 
-4.16737 -1.65386 0 
-3.95537 -1.65471 0 
-3.74326 -1.6554 0 
-3.5309 -1.65455 0 
-3.31876 -1.65426 0 
-3.10682 -1.65593 0 
-2.89443 -1.65705 0 
-2.68177 -1.65644 0 
-2.46924 -1.65516 0 
-2.25682 -1.65408 0 
-2.04447 -1.65386 0 
-1.83202 -1.65455 0 
-1.61911 -1.65506 0 
-1.40572 -1.65429 0 
-1.19212 -1.65207 0 
-0.97885 -1.64982 0 
-0.767325 -1.65372 0 
-0.555434 -1.6581 0 
-0.343588 -1.65935 0 
-0.132061 -1.65818 0 
0.0792288 -1.65687 0 
0.290417 -1.65682 0 
0.501823 -1.6575 0 
0.713729 -1.65709 0 
0.925861 -1.65545 0 
1.13768 -1.65488 0 
1.34929 -1.65604 0 
1.56128 -1.6563 0 
1.77337 -1.65516 0 
1.985 -1.65561 0 
2.19698 -1.65642 0 
2.40939 -1.65525 0 
2.62143 -1.65394 0 
2.83323 -1.65414 0 
3.04553 -1.65355 0 
3.25842 -1.64868 0 
3.46746 -1.65522 0 
3.68272 -1.65284 0 
3.89574 -1.65288 0 
4.10731 -1.65378 0 
4.32287 -1.65565 0 
4.53627 -1.65249 0 
4.74932 -1.65397 0 
4.96428 -1.65355 0 
5.17935 -1.65257 0 
5.3944 -1.65202 0 
5.60927 -1.65354 0 
5.82513 -1.66019 0 
6.04295 -1.66711 0 
6.26383 -1.66843 0 
6.48537 -1.66776 0 
6.70098 -1.65646 0 
6.91299 -1.6206 0 
7.11709 -1.6046 0 
7.3526 -1.69716 0 
7.60698 -1.65764 0 
7.8325 -1.64214 0 
8.05985 -1.58842 0 
8.2608 -1.69223 0 
8.48528 -1.56961 0 
-8.48528 -1.35019 0 
-8.24958 -1.48044 0 
-8.0219 -1.3751 0 
-7.79713 -1.50391 0 
-7.58956 -1.39834 0 
-7.36199 -1.38754 0 
-7.16079 -1.49923 0 
-6.93764 -1.46284 0 
[...]
POINT_DATA 2054 
VECTORS vectors float
0.0194454 -0.0282692 0.99941 
0.0217455 -0.0286304 0.999331 
0.022343 -0.032688 0.999177 
0.021683 -0.0293875 0.999319 
0.0219476 -0.0254636 0.999434 
0.0220724 -0.0223314 0.99951 
0.0221133 -0.019832 0.999563 
0.0220792 -0.0171751 0.999613 
0.0220554 -0.0141772 0.999661 
0.0220601 -0.011026 0.999701 
0.0220851 -0.00794693 0.999729 
0.0221126 -0.0050573 0.999748 
0.022131 -0.00234149 0.999757 
0.0221365 0.000294061 0.99976 
0.0221276 0.00297132 0.999756 
0.0221032 0.00582585 0.999744 
0.0220625 0.00900149 0.999721 
0.0220033 0.0126551 0.999683 
0.0219224 0.0169696 0.99962 
0.0218161 0.0221621 0.999521 
0.0216789 0.0284931 0.999364 
0.0215043 0.0362765 0.999115 
0.0212836 0.0458915 0.998725 
0.0210061 0.0578019 0.998112 
0.0206583 0.0725745 0.997154 
0.0202224 0.0909025 0.995659 
0.0196765 0.113631 0.993333 
0.0189934 0.141774 0.989722 
0.0181406 0.17654 0.984131 
0.0170797 0.219321 0.975508 
0.0157688 0.271655 0.962271 
0.0141687 0.335105 0.942079 
0.0122567 0.410964 0.911574 
0.0100503 0.499732 0.866126 
0.00763962 0.60021 0.799811 
0.00521337 0.708271 0.705925 
0.00304934 0.815656 0.578532 
0.00142535 0.909736 0.415188 
0.000454186 0.975467 0.220149 
-5.30402e-05 0.999983 0.00594371 
-0.000541086 0.977944 -0.208869 
-0.00146535 0.91409 -0.405511 
-0.00303778 0.820987 -0.570942 
-0.00516432 0.713738 -0.700397 
-0.00757262 0.605244 -0.796008 
-0.00998109 0.504043 -0.863625 
-0.012194 0.414487 -0.909978 
-0.0141162 0.337894 -0.941083 
-0.0157269 0.273819 -0.961658 
-0.0170471 0.220975 -0.975136 
-0.0181156 0.177791 -0.983907 
-0.0189742 0.142716 -0.989587 
-0.0196616 0.114337 -0.993252 
-0.0202111 0.0914326 -0.995611 
-0.0206497 0.0729725 -0.997125 
-0.0209996 0.0581015 -0.998095 
-0.0212784 0.0461191 -0.998714 
-0.0215001 0.0364514 -0.999109 
-0.0216755 0.0286299 -0.99936 
-0.0218131 0.0222709 -0.999519 
-0.0219195 0.0170578 -0.999619 
-0.0219999 0.0127286 -0.999682 
-0.0220583 0.00906411 -0.99972 
-0.0220977 0.00588033 -0.999743 
-0.0221194 0.00301847 -0.999756 
-0.0221252 0.000334607 -0.99976 
-0.0221167 -0.00230082 -0.999758 
-0.0220977 -0.00501255 -0.999748 
-0.0220698 -0.00789931 -0.99973 
-0.0220687 -0.0109946 -0.9997 
-0.0220484 -0.0140316 -0.999664 
-0.0220669 -0.0169677 -0.999617 
-0.0221461 -0.0195433 -0.999568 
-0.0220757 -0.022001 -0.999517 
-0.0219473 -0.0251724 -0.99944 
-0.0216709 -0.0291168 -0.999327 
-0.0223392 -0.0323169 -0.999191 
-0.0217311 -0.0282665 -0.999343 
-0.019437 -0.0282918 -0.99941 
0.00396986 -0.0286828 0.999591 
0.0134573 -0.0285237 0.999504 
0.0148284 -0.0290453 0.999481 
0.0172578 -0.0301562 0.999404 
0.0185925 -0.0274137 0.999459 
0.0192377 -0.0239221 0.999536 
0.0197779 -0.0208848 0.999594 
0.0201023 -0.0180682 0.999642 
0.0202737 -0.0151544 0.999687 
0.0204248 -0.0121821 0.999725 
0.0205901 -0.0091947 0.999753 
0.0207179 -0.00627331 0.999773 
0.0208079 -0.00348127 0.999785 
0.0208633 -0.000793613 0.99979 
0.0208855 0.00188639 0.999788 
0.0208731 0.00468658 0.999779 
0.0208257 0.00774776 0.999761 
0.0207419 0.0112239 0.999729 
0.0206184 0.0152882 0.999678 
0.0204507 0.0201415 0.999596 
0.0202348 0.0260263 0.999464 
0.0199632 0.0332404 0.999256 
0.0196247 0.0421385 0.998927 
0.0192093 0.0531419 0.99841 
0.0187075 0.0667763 0.9976 
0.0181046 0.0837003 0.996334 
0.0173817 0.104712 0.994359 
0.01652 0.130752 0.991285 
0.0155023 0.162933 0.986524 
0.0143122 0.202567 0.979172 
0.0129359 0.251152 0.96787 
0.0113678 0.310279 0.950586 
0.00961956 0.381378 0.924377 
0.00773383 0.465227 0.885166 
0.00579722 0.561234 0.827645 
0.0039314 0.666592 0.745421 
0.00227076 0.775068 0.631881 
0.000934746 0.875893 0.482511 
-2.23082e-05 0.954413 0.298496 
-0.000663251 0.99599 0.0894692 
-0.00116522 0.991844 -0.127463 
-0.00175129 0.942981 -0.332847 
-0.00260277 0.859538 -0.511072 
-0.00379457 0.756314 -0.654205 
-0.00528742 0.647441 -0.762106 
-0.00697521 0.543024 -0.839696 
-0.0087329 0.448765 -0.893616 
-0.0104484 0.367074 -0.930142 
-0.0120467 0.298168 -0.954446 
-0.0134893 0.241017 -0.970436 
-0.0147603 0.194132 -0.980873 
-0.0158605 0.15597 -0.987643 
-0.0168039 0.125061 -0.992015 
-0.017605 0.100093 -0.99483 
-0.0182813 0.0799673 -0.996638 
-0.0188485 0.0637499 -0.997796 
-0.0193199 0.0506847 -0.998536 
-0.0197087 0.0401475 -0.999007 
-0.0200263 0.0316251 -0.999307 
-0.0202803 0.0247032 -0.999497 
-0.0204785 0.0190445 -0.999616 
-0.0206274 0.0143668 -0.999692 
-0.0207313 0.0104339 -0.999738 
-0.0207913 0.00704575 -0.999767 
-0.0208053 0.00402792 -0.999783 
-0.0207701 0.00122104 -0.999791 
-0.0206888 -0.00153091 -0.999792 
-0.0205956 -0.00438076 -0.999785 
-0.0204834 -0.00745567 -0.999769 
-0.0203485 -0.010718 -0.999743 
-0.0200136 -0.0139673 -0.999711 
-0.0202493 -0.0171257 -0.999653 
-0.0197773 -0.0199507 -0.999614 
-0.0194809 -0.0233933 -0.999543 
-0.018418 -0.0269627 -0.999474 
-0.0171008 -0.0296722 -0.999421 
-0.0145855 -0.0286511 -0.999496 
-0.0133142 -0.0283935 -0.99951 
-0.00399959 -0.028647 -0.999592 
0.00492101 -0.0292443 0.999571 
0.00886985 -0.0276151 0.999592 
0.0132812 -0.0286877 0.999513 
0.0169294 -0.0290881 0.999442 
0.0185741 -0.0257825 0.999503 
0.0196547 -0.0223403 0.999565 
0.0203429 -0.0192282 0.999616 
0.0208373 -0.016235 0.999659 
0.0212828 -0.0133725 0.999691 
0.0216251 -0.0105358 0.999718 
0.0218795 -0.00766684 0.999738 
0.0220654 -0.00482978 0.999752 
0.0221962 -0.0020835 0.999759 
0.0222719 0.000611974 0.999759 
0.0222929 0.00336554 0.999753 
0.0222618 0.00631161 0.999739 
0.0221787 0.00959843 0.999715 
0.0220413 0.0133914 0.999674 
0.0218453 0.0178799 0.999609 
0.0215819 0.0232844 0.999503 
0.0212407 0.0298746 0.999335 
0.0208166 0.0379828 0.999069 
0.0203031 0.0480014 0.998648 
0.0196845 0.0603973 0.997988 
0.0189435 0.0757681 0.996953 
0.0180679 0.0948592 0.995334 
0.0170465 0.118549 0.99281 
0.0158656 0.147865 0.988888 
0.0145127 0.184021 0.982823 
0.0129817 0.228419 0.973485 
0.011278 0.282624 0.959173 
0.00942547 0.34817 0.937392 
0.00747336 0.426193 0.90461 
0.00550077 0.516802 0.856095 
0.00361494 0.618184 0.786033 
0.00192407 0.725891 0.687815 
0.000517578 0.831518 0.555505 
-0.000556065 0.922079 0.387008 
-0.00131235 0.982195 0.187866 
-0.00183985 0.999616 -0.0276791 
-0.00228356 0.970664 -0.240435 
-0.00280952 0.901684 -0.432393 
-0.00355655 0.805963 -0.591963 
-0.00459355 0.698459 -0.715643 
-0.00590984 0.59131 -0.806431 
-0.00743849 0.492072 -0.870531 
-0.00908477 0.404457 -0.91452 
-0.0107511 0.329641 -0.944053 
-0.0123592 0.267118 -0.963593 
-0.0138589 0.215538 -0.976405 
-0.015223 0.173382 -0.984745 
-0.01644 0.139168 -0.99014 
-0.0175088 0.1115 -0.993618 
-0.0184389 0.0891604 -0.995854 
-0.019237 0.0711774 -0.997286 
-0.0199164 0.0566767 -0.998201 
-0.0204873 0.0449871 -0.998785 
-0.0209584 0.0355487 -0.999155 
-0.0213397 0.0278963 -0.99939 
-0.0216432 0.0216565 -0.999538 
-0.0218763 0.0165279 -0.999631 
-0.0220428 0.0122522 -0.999689 
-0.0221454 0.00861507 -0.999725 
-0.0221818 0.00543007 -0.999746 
-0.0221465 0.00253458 -0.999759 
-0.0220229 -0.000222591 -0.999765 
-0.0217971 -0.00298044 -0.999766 
-0.0215069 -0.00582868 -0.99976 
-0.0212344 -0.00877814 -0.999744 
-0.0210477 -0.0117066 -0.999718 
-0.0209712 -0.0145337 -0.999681 
-0.0202622 -0.0172317 -0.999655 
-0.020566 -0.0191582 -0.999611 
-0.0193517 -0.0218341 -0.999583 
-0.0183649 -0.0253001 -0.99952 
-0.0166325 -0.0285258 -0.999464 
-0.0132317 -0.0282781 -0.999525 
-0.00884177 -0.0273454 -0.999601 
-0.00485228 -0.0292131 -0.999573 
0.00365252 -0.0290594 0.999579 
0.00831046 -0.0274486 0.9996 
0.0119686 -0.0284111 0.999536 
0.0157948 -0.0297825 0.999436 
0.0174806 -0.0274951 0.999475 
0.0186704 -0.0239691 0.999544 
0.0199439 -0.0206943 0.999592 
0.0206348 -0.0175227 0.999639 
0.0209367 -0.0146847 0.999679 
0.0212887 -0.0119877 0.999707 
0.0216303 -0.00925021 0.999729 
0.021913 -0.00642671 0.999745 
0.0221177 -0.00362343 0.999754 
0.0222506 -0.000888516 0.999757 
0.0223185 0.00184131 0.999755 
0.0223206 0.00468774 0.999745 
0.0222569 0.00779147 0.999727 
0.022127 0.0113079 0.999697 
0.0219275 0.0154155 0.999646 
0.0216541 0.0203188 0.999564 
0.0213058 0.0262568 0.999434 
0.0208744 0.0335256 0.999225 
0.020341 0.0424902 0.998895 
0.0196944 0.053577 0.998375 
0.0189336 0.0672994 0.997559 
0.0180447 0.0843258 0.996281 
0.0170051 0.105473 0.994283 
0.0158015 0.131688 0.991172 
0.0144302 0.164074 0.986349 
0.0128934 0.203929 0.978908 
0.011199 0.252721 0.967482 
0.00936129 0.31202 0.950037 
0.00741201 0.383245 0.923625 
0.00541232 0.467163 0.884162 
0.0034552 0.563131 0.826368 
0.00166512 0.667967 0.744197 
0.000132101 0.775717 0.631088 
-0.001078 0.876017 0.482286 
-0.00193486 0.954324 0.298775 
-0.00246702 0.995909 0.0903355 
-0.00277722 0.992034 -0.125945 
-0.00302844 0.943737 -0.330688 
-0.0033966 0.861056 -0.508505 
-0.0040136 0.75856 -0.651598 
-0.00493432 0.650257 -0.759706 
-0.00614298 0.546242 -0.837613 
-0.0075725 0.452118 -0.891934 
-0.00912596 0.370262 -0.92889 
-0.0107124 0.301075 -0.953548 
-0.0122659 0.243592 -0.969808 
-0.0137342 0.19633 -0.980449 
-0.015082 0.157809 -0.987361 
-0.0162991 0.126603 -0.991826 
-0.0173841 0.101376 -0.994702 
-0.0183295 0.0810071 -0.996551 
-0.0191576 0.0646426 -0.99773 
-0.0198642 0.0514099 -0.998486 
-0.0204612 0.0407391 -0.998966 
-0.0209603 0.0321132 -0.99927 
-0.021367 0.0250978 -0.999462 
-0.0216846 0.019356 -0.999583 
-0.0219282 0.014608 -0.999658 
-0.022099 0.0106202 -0.999705 
-0.0222041 0.00718492 -0.999733 
-0.0222438 0.00413055 -0.999749 
-0.0222239 0.00130069 -0.999758 
-0.0221471 -0.00144803 -0.999759 
-0.0219909 -0.00423588 -0.999755 
-0.0217454 -0.00711789 -0.999744 
-0.0214074 -0.0100319 -0.999726 
-0.0209545 -0.0129157 -0.999703 
-0.0204564 -0.0160201 -0.999669 
-0.0193187 -0.0191506 -0.999636 
-0.0194524 -0.022408 -0.999565 
-0.0175063 -0.0261686 -0.999511 
-0.0156222 -0.0290327 -0.999462 
-0.0118905 -0.0280589 -0.999547 
-0.00815624 -0.0271879 -0.999608 
-0.00363088 -0.0290371 -0.99958 
0.00273393 -0.0290463 0.999578 
0.00697834 -0.0276057 0.999605 
0.00993715 -0.028917 0.999542 
0.0140495 -0.0295771 0.999469 
0.0148595 -0.0261729 0.999554 
0.0164711 -0.0221818 0.999624 
0.0180047 -0.0191682 0.999659 
0.0179858 -0.0163086 0.999711 
0.0182828 -0.0136169 0.999746 
0.0186677 -0.0110051 0.999771 
0.0190519 -0.00825316 0.99979 
0.0193421 -0.00540353 0.999804 
0.0195287 -0.00259109 0.999811 
0.0196436 0.000165851 0.999813 
0.0196944 0.00295908 0.999807 
0.019668 0.00592267 0.999794 
0.0195683 0.00920142 0.999772 
0.0194017 0.0129607 0.999733 
0.0191599 0.0173937 0.999671 
0.0188412 0.0227198 0.99957 
0.0184528 0.0291944 0.999409 
0.0179787 0.0371418 0.999154 
0.0173883 0.0469607 0.998751 
0.0166839 0.0591079 0.998118 
0.01588 0.0741426 0.997127 
0.014951 0.092807 0.995578 
0.0138691 0.115978 0.993161 
0.012634 0.144655 0.989408 
0.0112566 0.180021 0.983605 
0.0097496 0.223437 0.974677 
0.00812818 0.276406 0.961014 
0.00640715 0.340497 0.940231 
0.00461974 0.416951 0.908925 
0.0028294 0.506083 0.862488 
0.00112809 0.606384 0.795179 
-0.000361197 0.713147 0.701022 
-0.00158238 0.81908 0.573685 
-0.00248173 0.911924 0.410358 
-0.00302964 0.976463 0.21567 
-0.00325896 0.999992 0.00253297 
-0.00328488 0.977598 -0.210464 
-0.00327776 0.914258 -0.405125 
-0.00340614 0.822287 -0.569071 
-0.00378354 0.716368 -0.69772 
-0.00445337 0.609141 -0.793057 
-0.005401 0.508856 -0.860843 
-0.00656134 0.419582 -0.907701 
-0.00784505 0.34279 -0.939387 
-0.00918494 0.278355 -0.960442 
-0.0105272 0.225008 -0.974307 
-0.0118113 0.181232 -0.983376 
-0.013004 0.145627 -0.989261 
-0.0141041 0.116809 -0.993061 
-0.0150983 0.0934995 -0.995511 
-0.0159522 0.0746693 -0.997087 
-0.0167459 0.0595951 -0.998088 
-0.0174075 0.0473163 -0.998734 
-0.0179672 0.0374298 -0.999143 
-0.018445 0.0294236 -0.999402 
-0.0188273 0.0228966 -0.999566 
-0.0191225 0.0175132 -0.999669 
-0.0193407 0.0130623 -0.999733 
-0.0194988 0.00927806 -0.999772 
-0.0195862 0.00598256 -0.999796 
-0.0196111 0.00300939 -0.999809 
-0.0195908 0.000206936 -0.999814 
-0.0195484 -0.00255688 -0.999811 
-0.0194496 -0.00538616 -0.999802 
-0.0192189 -0.00827781 -0.999787 
-0.0188242 -0.0111074 -0.999767 
-0.018344 -0.0138591 -0.999742 
-0.0174486 -0.0165932 -0.999716 
-0.0160952 -0.019748 -0.999681 
-0.0171627 -0.0226135 -0.999603 
-0.0149322 -0.0262294 -0.999549 
-0.0132017 -0.0290716 -0.999497 
-0.00964839 -0.0285165 -0.999557 
-0.00690036 -0.0273386 -0.999613 
-0.00271493 -0.0290389 -0.999578 
0.00201765 -0.0290925 0.999575 
0.00539291 -0.0276429 0.999614 
0.00767015 -0.0291925 0.999554 
0.0113696 -0.0295926 0.999503 
0.0115831 -0.0266416 0.999584 
0.0132382 -0.0229149 0.999656 
0.0148094 -0.0189352 0.999718 
0.0150227 -0.0156635 0.999771 
0.0153972 -0.0129214 0.999804 
0.0158404 -0.0102286 0.999828 
0.0162256 -0.0073722 0.999847 
0.0164798 -0.00446169 0.99986 
0.016641 -0.00162221 0.999866 
0.0167442 0.0011749 0.999865 
0.0167769 0.00405202 0.999857 
0.016722 0.00714949 0.99984 
0.016601 0.0106179 0.999811 
0.016417 0.0146354 0.999764 
0.0161559 0.0194097 0.999687 
0.0158215 0.0251753 0.999563 
0.0154195 0.0322038 0.999368 
0.014925 0.0408524 0.999059 
0.0143141 0.0515513 0.998574 
0.0136054 0.0647846 0.997812 
0.0128069 0.0811637 0.996625 
0.0118818 0.101508 0.99477 
0.0108165 0.126741 0.991883 
0.0096266 0.157915 0.987413 
0.00832612 0.196291 0.980517 
0.0069303 0.243291 0.969936 
0.00545374 0.300458 0.953787 
0.00391131 0.369331 0.929297 
0.00233805 0.450925 0.892566 
0.00079631 0.544984 0.838454 
-0.000627932 0.648899 0.760882 
-0.00182602 0.756199 0.654347 
-0.00276267 0.858208 0.513302 
-0.00337637 0.941223 0.337775 
-0.00364094 0.990789 0.135378 
-0.00360601 0.996886 -0.0787842 
-0.00340105 0.958282 -0.285809 
-0.003196 0.883006 -0.469357 
-0.00314235 0.784589 -0.620015 
-0.00333416 0.677232 -0.735769 
-0.00380376 0.572113 -0.820174 
-0.00453117 0.475811 -0.879544 
-0.00545217 0.391162 -0.920313 
-0.00649311 0.319004 -0.947739 
-0.00760812 0.25881 -0.965906 
-0.00874236 0.209059 -0.977871 
-0.00983452 0.168302 -0.985693 
-0.0108664 0.135223 -0.990762 
-0.0118362 0.108448 -0.994038 
-0.0127121 0.0867625 -0.996154 
-0.0134486 0.069233 -0.997516 
-0.0142062 0.0553058 -0.998374 
-0.0147818 0.043756 -0.998939 
-0.0152858 0.0345195 -0.999293 
-0.015706 0.0270729 -0.999516 
-0.0160644 0.0208851 -0.999658 
-0.0162829 0.0158476 -0.999747 
-0.0164893 0.0116403 -0.999802 
-0.0166102 0.00801816 -0.999835 
-0.0166641 0.00483194 -0.999855 
-0.0166628 0.00191898 -0.999865 
-0.0166259 -0.000865297 -0.999867 
-0.0165886 -0.00365214 -0.999861 
-0.0164773 -0.00650349 -0.999849 
-0.0161971 -0.00936001 -0.999831 
-0.0157774 -0.0120334 -0.999809 
-0.0151311 -0.0145059 -0.999786 
-0.0141214 -0.0171167 -0.999759 
-0.0133387 -0.0199273 -0.999717 
-0.0134877 -0.0232995 -0.999644 
-0.0116166 -0.0275802 -0.999558 
-0.00974865 -0.0298581 -0.999512 
-0.00690014 -0.0284484 -0.999583 
-0.00510801 -0.0278364 -0.999608 
-0.00200608 -0.0291165 -0.999575 
0.00157177 -0.0291384 0.999572 
0.00406172 -0.0278391 0.999615 
0.0058976 -0.0293945 0.99956 
0.00879781 -0.0300577 0.999515 
0.00917134 -0.0275806 0.999582 
0.0100688 -0.0236002 0.999678 
0.0119924 -0.0205332 0.999722 
0.012283 -0.0174422 0.999778 
0.0125523 -0.0146914 0.999819 
0.0129688 -0.0121085 0.999848 
0.0133983 -0.00937429 0.999872 
0.0137392 -0.00645186 0.99989 
0.0139379 -0.00351058 0.999902 
0.0140707 -0.00066358 0.999906 
0.014156 0.00217534 0.999903 
0.0141543 0.00513839 0.999892 
0.0140712 0.00837589 0.999871 
0.0139366 0.0120394 0.999836 
0.0137437 0.0163181 0.999778 
0.0134789 0.0214463 0.999685 
0.0131455 0.027661 0.999537 
0.0127481 0.035256 0.999303 
0.0122558 0.0446208 0.998935 
0.0116584 0.0562161 0.998356 
0.0109817 0.0705482 0.997454 
0.010219 0.0882884 0.996049 
0.00933315 0.110328 0.993858 
0.00832798 0.137633 0.990455 
0.00722591 0.171309 0.985198 
0.0060406 0.212694 0.977107 
0.00478714 0.263265 0.964719 
0.00347816 0.324569 0.945863 
0.00212719 0.398054 0.917367 
0.000770032 0.484371 0.87487 
-0.00053452 0.582475 0.812856 
-0.00170746 0.688416 0.725322 
-0.00266234 0.794114 0.607769 
-0.00335981 0.890174 0.455614 
-0.00373271 0.962585 0.270959 
-0.00377168 0.99798 0.0634255 
-0.00354724 0.988659 -0.150143 
-0.00319912 0.936468 -0.350745 
-0.00288729 0.851796 -0.523872 
-0.00274027 0.748876 -0.662712 
-0.00283207 0.64129 -0.767301 
-0.00318115 0.538801 -0.842435 
-0.00375885 0.446448 -0.89481 
-0.00450441 0.366108 -0.930569 
-0.00536314 0.298147 -0.954512 
-0.00630187 0.241722 -0.970332 
-0.00726014 0.1951 -0.980763 
-0.00818567 0.156953 -0.987579 
-0.00907614 0.126074 -0.991986 
-0.00992123 0.101059 -0.994837 
-0.0106746 0.0807296 -0.996685 
-0.0112896 0.0642592 -0.997875 
-0.0120495 0.0514257 -0.99861 
-0.0125169 0.0402382 -0.999117 
-0.0129063 0.0318121 -0.999416 
-0.0133575 0.0246028 -0.999614 
-0.0135699 0.0188812 -0.999735 
-0.0137584 0.0141395 -0.999811 
-0.013949 0.0101715 -0.999856 
-0.0140169 0.00667416 -0.999885 
-0.0140254 0.00358007 -0.999901 
-0.0139876 0.000732214 -0.999907 
-0.0139649 -0.00206391 -0.999906 
-0.0139301 -0.00486851 -0.999897 
-0.0138177 -0.00773182 -0.99988 
-0.0134888 -0.0105273 -0.999859 
-0.0129772 -0.0130712 -0.999836 
-0.0122082 -0.0156172 -0.999809 
-0.0111193 -0.0186468 -0.999771 
-0.0112881 -0.0219963 -0.999699 
-0.0102636 -0.0255012 -0.999628 
-0.00856673 -0.029205 -0.999542 
-0.00680833 -0.0301135 -0.99953 
-0.00390525 -0.0278109 -0.999616 
-0.00157133 -0.0291873 -0.999572 
0.00128002 -0.0291697 0.999571 
0.00313117 -0.028001 0.999613 
0.00465896 -0.0296462 0.999559 
0.00692157 -0.0302527 0.999524 
0.00759452 -0.0268451 0.999616 
0.00808511 -0.0228766 0.999712 
0.00984232 -0.0199227 0.999759 
0.0101022 -0.016795 0.999814 
0.0104845 -0.0140696 0.999852 
0.0109044 -0.0114228 0.999881 
0.0113145 -0.00856154 0.999905 
0.0116063 -0.0055452 0.999923 
0.0117395 -0.00258677 0.999933 
0.0118618 0.000264761 0.999935 
0.0119208 0.00313457 0.999929 
0.0118954 0.00618992 0.999916 
0.0117994 0.00957189 0.99989 
0.0116655 0.0134149 0.999847 
0.0114847 0.0179694 0.999778 
0.0112277 0.0234555 0.999667 
0.0109135 0.0301204 0.999492 
0.0105368 0.0382793 0.999217 
0.0100686 0.0483596 0.998785 
0.00951367 0.0608246 0.998109 
0.00889488 0.0762129 0.997058 
0.00818993 0.095272 0.995424 
0.007371 0.11895 0.992879 
0.00645711 0.148194 0.988944 
0.00547095 0.184134 0.982893 
0.00442402 0.228132 0.973627 
0.00333089 0.281585 0.959538 
0.00220318 0.34589 0.93828 
0.00105604 0.422253 0.906485 
-7.44652e-05 0.510799 0.859708 
-0.00113989 0.610026 0.792388 
-0.00208151 0.715679 0.698433 
-0.00283727 0.819668 0.572838 
-0.00334615 0.91171 0.410827 
-0.00354693 0.976281 0.216486 
-0.00344574 0.999992 0.00246555 
-0.00312987 0.977315 -0.211773 
-0.00274122 0.913418 -0.40702 
-0.00242091 0.821047 -0.570862 
-0.00227065 0.714979 -0.69915 
-0.00234496 0.608124 -0.793846 
-0.00264687 0.508636 -0.860985 
-0.00314086 0.420069 -0.907494 
-0.00377432 0.343667 -0.939092 
-0.00450846 0.279536 -0.960132 
-0.00531491 0.22648 -0.974008 
-0.00613204 0.182486 -0.983196 
-0.00691851 0.146581 -0.989181 
-0.00768685 0.117689 -0.993027 
-0.00841821 0.0941202 -0.995531 
-0.00905714 0.074744 -0.997168 
-0.00954163 0.0589837 -0.99822 
-0.0104325 0.0472041 -0.998836 
-0.0105003 0.0369426 -0.999269 
-0.0111107 0.0284753 -0.999538 
-0.0112827 0.022015 -0.9997 
-0.0114666 0.0166827 -0.999801 
-0.0115997 0.0122648 -0.999863 
-0.0118075 0.00854523 -0.999899 
-0.011788 0.00508175 -0.999923 
-0.0116946 0.00212284 -0.999935 
-0.0116821 -0.000736018 -0.999937 
-0.0116113 -0.00354218 -0.999932 
-0.0115664 -0.00630507 -0.999919 
-0.0114373 -0.00898258 -0.999899 
-0.0110527 -0.0115256 -0.999878 
-0.010585 -0.0139658 -0.999852 
-0.009885 -0.0165611 -0.99982 
-0.00892412 -0.0196289 -0.999773 
-0.00926878 -0.0224582 -0.99971 
-0.00790392 -0.0265852 -0.999621 
-0.00624619 -0.0298985 -0.99954 
-0.00470106 -0.0288613 -0.999584 
-0.00273582 -0.0281027 -0.999608 
-0.00124494 -0.0291049 -0.999573 
0.00105185 -0.0291819 0.99957 
0.00249652 -0.02807 0.999613 
0.00373276 -0.029882 0.999555 
0.00561422 -0.0302207 0.999533 
0.00611923 -0.0268721 0.999626 