# vtk DataFile Version 3.0 
Exported using Morpho https://github.com/Morpho-lang/morpho 
ASCII 
DATASET UNSTRUCTURED_GRID 

POINTS 1978 float 
-8.48548 -2.8286 -2.74783e-07 
-8.26737 -2.82843 -2.86326e-07 
-8.04123 -2.82832 -4.59589e-07 
-7.77269 -2.82855 1.36823e-07 
-7.49405 -2.82835 1.07499e-07 
-7.22098 -2.82845 2.23514e-07 
-7.01231 -2.82844 6.20382e-08 
-6.77438 -2.8284 -8.77049e-08 
-6.56067 -2.82847 1.22268e-07 
-6.34439 -2.82842 1.30151e-07 
-6.14358 -2.82843 -1.45444e-07 
-5.91907 -2.82845 6.9829e-08 
-5.7091 -2.82839 4.6433e-09 
-5.50689 -2.82843 7.60651e-08 
-5.29452 -2.82844 5.92092e-08 
-5.08603 -2.82842 1.52712e-08 
-4.87056 -2.82843 3.69939e-08 
-4.66355 -2.82842 4.54796e-09 
-4.44311 -2.82842 9.8383e-08 
-4.22282 -2.82842 1.30413e-08 
-4.00271 -2.82842 8.01628e-08 
-3.79261 -2.82842 7.67003e-08 
-3.57942 -2.82842 1.2511e-07 
-3.37213 -2.82843 1.53937e-07 
-3.156 -2.82845 1.62946e-07 
-2.9476 -2.82843 1.8781e-07 
-2.74259 -2.82848 1.88937e-07 
-2.54706 -2.8285 2.73327e-07 
-2.33195 -2.82845 2.2092e-07 
-2.12567 -2.82855 1.76063e-07 
-1.90172 -2.82846 1.18195e-07 
-1.71031 -2.82844 -3.19962e-07 
-1.51532 -2.82839 -7.43062e-07 
-1.31781 -2.82849 -1.72119e-06 
-1.13304 -2.82821 -3.99128e-07 
-0.897031 -2.82837 8.52687e-07 
-0.702854 -2.82811 4.20718e-05 
-0.488694 -2.82764 -2.43084e-05 
-0.257852 -2.82767 9.75187e-06 
-0.0109409 -2.8273 -1.71182e-05 
0.29852 -2.8277 1.48424e-05 
0.481789 -2.82793 -1.93842e-05 
0.702767 -2.828 2.68676e-06 
0.90992 -2.82817 -6.2667e-07 
1.11342 -2.82831 1.5665e-06 
1.3075 -2.82835 1.51757e-06 
1.50957 -2.82855 2.07657e-06 
1.70721 -2.82844 -1.31e-06 
1.90514 -2.82853 -3.67943e-07 
2.11962 -2.82849 -2.67931e-07 
2.34286 -2.82844 -2.75757e-07 
2.53644 -2.82849 -3.2406e-07 
2.75627 -2.8284 -2.42005e-07 
2.97317 -2.82852 -1.44496e-07 
3.18069 -2.82842 -1.89769e-07 
3.38326 -2.82842 -1.38574e-07 
3.60591 -2.82844 -1.20843e-07 
3.80657 -2.82842 -8.48846e-08 
4.02076 -2.82842 -7.62587e-08 
4.24846 -2.82843 -6.21963e-08 
4.44903 -2.82841 4.69811e-08 
4.66414 -2.82844 -1.38443e-07 
4.8709 -2.82841 1.72857e-08 
5.07788 -2.82844 -3.53913e-08 
5.29072 -2.82843 -4.80528e-08 
5.5029 -2.82843 -2.27167e-08 
5.70537 -2.82843 -3.68966e-08 
5.92234 -2.82843 -3.96017e-08 
6.14405 -2.82841 -9.01586e-08 
6.34376 -2.82845 6.91014e-08 
6.58284 -2.82842 -1.06234e-07 
6.79719 -2.82843 -8.11333e-08 
6.99815 -2.82844 3.43218e-08 
7.26373 -2.82841 -9.05782e-08 
7.4972 -2.82845 -2.68765e-07 
7.73983 -2.82844 -3.5836e-07 
8.013 -2.82841 5.53477e-07 
8.19711 -2.82845 2.57516e-07 
8.48545 -2.82857 2.19002e-07 
-8.48535 -2.59758 3.74705e-07 
-8.26168 -2.58889 5.12195e-17 
-8.0336 -2.58594 5.42084e-17 
-7.80195 -2.62632 -7.96373e-17 
-7.54605 -2.63503 -1.10229e-17 
-7.2536 -2.63284 -3.14838e-17 
-6.9903 -2.57684 5.51952e-18 
-6.78205 -2.60978 -1.18196e-17 
-6.5417 -2.58815 -3.61133e-17 
-6.32952 -2.576 1.14277e-17 
-6.10326 -2.60523 1.09843e-17 
-5.88784 -2.59056 -1.00126e-17 
-5.6799 -2.5802 -2.9954e-17 
-5.4637 -2.59549 -5.05833e-17 
-5.24897 -2.58998 -4.94212e-17 
-5.03159 -2.59677 -5.17865e-17 
-4.82108 -2.58562 -6.55731e-17 
-4.60049 -2.59954 -5.41932e-17 
-4.37762 -2.59816 -5.63975e-17 
-4.15629 -2.59702 -8.4369e-17 
-3.94314 -2.58582 -1.16563e-16 
-3.72993 -2.59099 -1.15308e-16 
-3.51886 -2.58852 -1.15299e-16 
-3.3037 -2.60207 -1.19792e-16 
-3.09051 -2.59867 -1.84477e-16 
-2.88017 -2.59875 -2.16707e-16 
-2.67767 -2.59245 -2.07945e-16 
-2.46691 -2.61591 -1.61431e-16 
-2.25112 -2.60504 -1.84079e-16 
-2.03346 -2.62444 -2.08571e-16 
-1.82049 -2.5858 -7.96402e-17 
-1.62148 -2.58703 2.67981e-16 
-1.41971 -2.57654 8.36338e-16 
-1.23502 -2.54823 1.30707e-15 
-1.01883 -2.61221 1.3566e-15 
-0.821029 -2.54697 4.91056e-15 
-0.633227 -2.50757 1.94968e-15 
-0.416948 -2.52923 6.63852e-15 
-0.199916 -2.52584 3.1432e-15 
-0.000562569 -2.44838 -2.87306e-15 
0.197573 -2.59605 3.52529e-16 
0.445066 -2.48206 -5.50746e-15 
0.640794 -2.54497 -3.18759e-15 
0.864326 -2.56192 -1.5664e-15 
1.07354 -2.57847 -1.95343e-15 
1.27696 -2.58306 -1.21254e-15 
1.48341 -2.60498 -3.47818e-16 
1.69318 -2.60378 -1.10002e-16 
1.91479 -2.61923 -1.86541e-17 
2.14871 -2.62693 1.85991e-16 
2.35415 -2.5916 2.02425e-16 
2.57064 -2.61303 1.34859e-16 
2.79838 -2.61297 2.02919e-16 
3.00731 -2.59659 2.24701e-16 
3.21409 -2.58678 1.43732e-16 
3.43538 -2.60788 1.09212e-16 
3.6411 -2.58067 1.08841e-16 
3.85509 -2.59391 1.24484e-16 
4.0833 -2.60736 9.18197e-17 
4.29215 -2.57629 7.82464e-17 
4.509 -2.59532 7.10895e-17 
4.72208 -2.58672 3.21379e-17 
4.93604 -2.58936 4.60773e-17 
5.15086 -2.59674 3.73851e-17 
5.36954 -2.59657 4.02219e-17 
5.58067 -2.58474 3.18675e-17 
5.79633 -2.59969 1.64139e-17 
6.02102 -2.60146 2.19221e-18 
6.23462 -2.57372 7.13708e-18 
6.45577 -2.6125 2.44383e-17 
6.68485 -2.58436 -4.09049e-18 
6.89485 -2.56445 -1.7507e-17 
7.12379 -2.62798 1.90499e-17 
7.37671 -2.59944 -4.00664e-19 
7.616 -2.60744 4.94976e-17 
7.87354 -2.63196 6.81789e-18 
8.08161 -2.53557 -6.57704e-18 
8.30326 -2.63905 -4.79089e-17 
8.48534 -2.5306 -8.19756e-07 
-8.48516 -2.35793 2.3617e-07 
-8.24648 -2.35133 -5.71771e-17 
-8.00237 -2.35121 1.00762e-17 
-7.76529 -2.40584 7.27405e-17 
-7.56687 -2.25798 -1.39971e-17 
-7.46284 -2.45755 -2.39466e-17 
-7.18841 -2.41694 -2.33174e-17 
-6.9503 -2.33052 4.43535e-17 
-6.71901 -2.39005 4.30612e-17 
-6.48722 -2.34737 2.0751e-17 
-6.24079 -2.36253 -2.34256e-17 
-6.02472 -2.36435 4.8597e-17 
-5.80713 -2.34641 5.65245e-17 
-5.57978 -2.35504 2.28943e-17 
-5.36417 -2.35894 2.1768e-17 
-5.14014 -2.36286 2.25155e-17 
-4.92709 -2.35122 3.99111e-17 
-4.70327 -2.36378 7.13649e-17 
-4.4824 -2.36998 8.95921e-17 
-4.25974 -2.36672 8.3365e-17 
-4.04525 -2.35115 5.88638e-17 
-3.82909 -2.35023 3.96396e-17 
-3.61803 -2.35212 6.97253e-17 
-3.40131 -2.36584 7.13908e-17 
-3.19095 -2.37178 5.08825e-17 
-2.97698 -2.37105 1.18892e-17 
-2.77068 -2.35978 2.40374e-17 
-2.56091 -2.38133 5.26134e-17 
-2.35503 -2.39468 5.93968e-17 
-2.12882 -2.39406 6.01191e-17 
-1.92513 -2.38795 5.34468e-17 
-1.69499 -2.3488 2.19921e-16 
-1.48452 -2.34034 7.51586e-16 
-1.28234 -2.26993 1.48487e-15 
-1.07429 -2.36737 1.48215e-15 
-0.876925 -2.27418 1.94366e-15 
-0.651274 -2.22031 5.23515e-15 
-0.430036 -2.2286 2.43981e-15 
-0.200488 -2.18622 3.59507e-15 
0.0415691 -2.10769 -2.74498e-15 
0.238761 -2.284 -3.40439e-15 
0.449528 -2.16743 -3.59269e-15 
0.663772 -2.21242 -5.45833e-15 
0.851698 -2.30009 -2.99608e-15 
1.07456 -2.32199 -2.75736e-15 
1.28828 -2.33737 -1.20853e-15 
1.48883 -2.38274 -4.35796e-16 
1.67739 -2.35422 -2.35251e-16 
1.87387 -2.4004 -3.83565e-18 
2.08832 -2.42468 2.38909e-17 
2.3039 -2.37092 -8.13889e-17 
2.52705 -2.38134 -6.97442e-17 
2.73817 -2.40396 -3.68581e-18 
2.95874 -2.36247 -6.50472e-18 
3.15852 -2.351 -5.28527e-17 
3.37418 -2.3775 -6.98611e-17 
3.57935 -2.34416 -5.55714e-17 
3.79109 -2.3533 -4.85501e-17 
4.0073 -2.37969 -6.21779e-17 
4.21655 -2.34238 -5.98718e-17 
4.43813 -2.35504 -8.5692e-17 
4.64876 -2.34979 -7.38726e-17 
4.8638 -2.35369 -5.33884e-17 
5.08043 -2.35871 -3.79397e-17 
5.29395 -2.36832 -1.71511e-17 
5.50956 -2.35137 -2.22462e-17 
5.72858 -2.36116 -5.75932e-17 
5.94514 -2.37486 -6.31975e-17 
6.16145 -2.34403 -3.60626e-17 
6.39433 -2.3655 -4.86312e-18 
6.60598 -2.36466 -2.18144e-17 
6.83112 -2.31731 -2.66016e-17 
7.06358 -2.37619 1.0955e-18 
7.28361 -2.39829 2.82436e-17 
7.54481 -2.3779 -2.06681e-17 
7.78945 -2.41292 -5.59211e-17 
8.00107 -2.31385 6.10088e-17 
8.26104 -2.3702 1.78482e-17 
8.48528 -2.28915 -4.87094e-07 
-8.48535 -2.11285 -1.51135e-07 
-8.26534 -2.1159 6.6034e-17 
-8.03477 -2.11175 -1.13266e-16 
-7.79364 -2.15636 -1.11998e-17 
-7.5228 -2.04153 -4.41105e-17 
-7.31323 -2.23323 -2.253e-17 
-7.07925 -2.14287 -1.77453e-17 
-6.79677 -2.13702 2.33467e-17 
-6.59238 -2.13674 -2.27149e-19 
-6.34439 -2.14468 -1.83514e-17 
-6.11877 -2.1188 2.0733e-17 
-5.91409 -2.11726 5.11547e-17 
-5.68825 -2.12752 2.48932e-17 
-5.46784 -2.11877 -1.10079e-17 
-5.25088 -2.13373 4.25382e-20 
-5.03864 -2.11959 9.9922e-18 
-4.81555 -2.12951 3.12441e-17 
-4.59601 -2.13638 4.18453e-17 
-4.37761 -2.13929 5.49515e-17 
-4.16532 -2.12188 3.01367e-17 
-3.94934 -2.11511 9.91696e-18 
-3.73717 -2.11314 1.42312e-17 
-3.52207 -2.12894 3.71947e-17 
-3.31204 -2.13457 5.33456e-17 
-3.10121 -2.14457 1.53546e-17 
-2.89299 -2.13441 8.2116e-18 
-2.67664 -2.1405 8.59911e-18 
-2.46969 -2.15514 2.44968e-17 
-2.25307 -2.18167 2.75783e-17 
-2.0358 -2.15142 1.12058e-16 
-1.82139 -2.16285 1.12893e-16 
-1.57732 -2.10881 1.82859e-16 
-1.37651 -2.04637 1.69038e-16 
-1.16503 -1.8986 7.49874e-16 
-1.09693 -2.10779 1.86142e-15 
-0.838154 -2.02876 -6.38665e-16 
-0.580391 -1.92817 2.74839e-15 
-0.359417 -1.91877 1.56663e-15 
-0.101011 -1.85509 -1.36021e-15 
0.0847771 -1.6583 1.50243e-15 
0.257852 -1.92489 -6.73557e-16 
0.297858 -1.58503 -2.31801e-15 
0.513309 -1.86538 -8.68275e-16 
0.759018 -1.93592 -2.95778e-15 
0.966051 -2.05864 3.27416e-16 
1.20142 -2.09226 -1.46496e-15 
1.4402 -2.13487 -5.05191e-16 
1.66632 -2.12837 -2.57998e-17 
1.89238 -2.16036 -1.5304e-16 
2.10364 -2.20046 -8.02373e-17 
2.34716 -2.15976 -5.2351e-17 
2.56677 -2.15387 -4.46653e-17 
2.78026 -2.17993 -1.31168e-17 
2.98219 -2.11129 -1.64638e-17 
3.20512 -2.13219 -3.96018e-17 
3.40621 -2.13158 -4.75983e-17 
3.62185 -2.11037 -4.47044e-17 
3.84039 -2.12846 -1.51685e-18 
4.04237 -2.13175 -2.09758e-17 
4.27095 -2.11757 -3.31988e-17 
4.48074 -2.11432 -4.26845e-17 
4.69761 -2.1153 -3.97222e-17 
4.91444 -2.12356 -2.37829e-17 
5.12977 -2.12456 -7.62345e-18 
5.34206 -2.13325 4.74539e-18 
5.56619 -2.12458 -4.03139e-18 
5.78365 -2.13075 -3.0481e-17 
5.9947 -2.13314 -2.89438e-17 
6.23537 -2.12969 7.88903e-18 
6.44681 -2.11611 1.99914e-17 
6.66004 -2.11857 -1.99854e-17 
6.92045 -2.11 -3.01432e-17 
7.13791 -2.13863 4.71804e-17 
7.37091 -2.18497 5.58436e-17 
7.56239 -2.08733 4.62467e-17 
7.74285 -2.18185 2.4822e-17 
7.9566 -2.08157 -7.95184e-18 
8.20503 -2.14787 6.05181e-17 
8.48528 -2.09356 6.46415e-07 
-8.48526 -1.81754 3.00387e-07 
-8.2977 -1.87335 3.6805e-17 
-7.89534 -1.91059 3.97326e-17 
-7.67808 -1.89973 1.82487e-17 
[...]
POINT_DATA 1978 
VECTORS vectors float
0.0235406 -0.0328955 0.999206 
0.0256561 -0.0325736 0.999157 
0.0305573 -0.0350768 0.998962 
0.0296041 -0.0457301 0.998551 
0.0265994 -0.0413256 0.99883 
0.0254282 -0.0320235 0.999198 
0.0258132 -0.0263809 0.999351 
0.0270991 -0.0214359 0.999434 
0.0275078 -0.0172982 0.999493 
0.0264069 -0.0146484 0.999576 
0.0281513 -0.0124233 0.999558 
0.0282423 -0.00957983 0.999586 
0.0279144 -0.00852963 0.999605 
0.0278303 -0.00755502 0.999615 
0.0277641 -0.00612797 0.999626 
0.0279903 -0.00509247 0.999626 
0.0276626 -0.00395798 0.99964 
0.0278064 -0.00281126 0.99964 
0.0277419 -0.00122495 0.999645 
0.0274484 0.000631688 0.999654 
0.0267968 0.00295451 0.999668 
0.0261698 0.006188 0.99967 
0.0252484 0.0110381 0.999651 
0.0243833 0.0177813 0.999575 
0.0227292 0.0276795 0.999389 
0.0207922 0.0403727 0.998998 
0.0183523 0.0570415 0.998232 
0.0157509 0.0779446 0.996861 
0.0116794 0.108291 0.994078 
0.00708461 0.146433 0.989221 
0.000867683 0.200727 0.979671 
-0.00616979 0.260033 0.965602 
-0.0125508 0.333544 0.94267 
-0.0170858 0.419285 0.907709 
-0.0221168 0.512906 0.85817 
-0.0313841 0.642702 0.76547 
-0.0326322 0.758362 0.650978 
-0.0278519 0.86823 0.495313 
-0.0161334 0.962541 0.270473 
0.000304096 0.999914 0.00436507 
0.0184094 0.946885 -0.320933 
0.0272885 0.87509 -0.483124 
0.0299294 0.756911 -0.652808 
0.0272082 0.636545 -0.770757 
0.0251252 0.523544 -0.851636 
0.0200058 0.424986 -0.904992 
0.0125843 0.336215 -0.941711 
0.00500119 0.259119 -0.965852 
-0.00127564 0.199417 -0.979938 
-0.00685403 0.14719 -0.98911 
-0.0120272 0.107016 -0.994212 
-0.0157133 0.0800893 -0.996693 
-0.0186353 0.0561565 -0.998278 
-0.0209585 0.0387948 -0.999057 
-0.0227025 0.0264946 -0.999421 
-0.0244648 0.0172697 -0.999582 
-0.0255223 0.0100729 -0.999654 
-0.0265438 0.00620821 -0.999659 
-0.0272534 0.00273303 -0.999656 
-0.0275112 0.000144651 -0.999652 
-0.0278298 -0.00121472 -0.999643 
-0.0278314 -0.002789 -0.99964 
-0.0279758 -0.00400714 -0.999631 
-0.0280996 -0.00496776 -0.999623 
-0.0280203 -0.00629849 -0.999618 
-0.0279432 -0.00750108 -0.999612 
-0.0280151 -0.00826499 -0.999604 
-0.0275837 -0.0101412 -0.999599 
-0.0271927 -0.0123174 -0.999586 
-0.0272745 -0.0142811 -0.999557 
-0.0266606 -0.0181558 -0.999511 
-0.0257456 -0.02173 -0.999465 
-0.0264623 -0.0258764 -0.999348 
-0.0255713 -0.0341264 -0.999123 
-0.0252635 -0.0412893 -0.998861 
-0.0280811 -0.0461313 -0.998573 
-0.031945 -0.0365558 -0.998853 
-0.0292796 -0.0348049 -0.998995 
-0.0249685 -0.0335624 -0.999149 
0.0170947 -0.0367416 0.999201 
0.0197924 -0.0334223 0.999314 
0.0242801 -0.0360659 0.99912 
0.0237588 -0.0398537 0.998976 
0.0220071 -0.0400721 0.999022 
0.0235417 -0.033491 0.999224 
0.0242363 -0.0265225 0.999415 
0.0245853 -0.0221739 0.999511 
0.0247508 -0.0180661 0.999598 
0.0273222 -0.0149778 0.999574 
0.0265491 -0.0117341 0.999634 
0.0269807 -0.00979348 0.999642 
0.0281319 -0.00867007 0.999622 
0.0277921 -0.00717896 0.999642 
0.0280905 -0.00579238 0.999642 
0.0279828 -0.0046173 0.999651 
0.028063 -0.00339172 0.999654 
0.0277341 -0.00197196 0.999667 
0.0274082 -0.00027807 0.999679 
0.0273018 0.00190968 0.999681 
0.0266346 0.00503704 0.999689 
0.0256424 0.00938806 0.999683 
0.0245766 0.0154466 0.999635 
0.0226729 0.023634 0.999519 
0.0207541 0.0349165 0.99923 
0.0179952 0.0497122 0.998657 
0.0152132 0.0688738 0.997566 
0.0117077 0.0942656 0.995536 
0.00729278 0.129309 0.991636 
0.00275891 0.174737 0.98467 
-0.0026041 0.233421 0.972429 
-0.00813776 0.30255 0.953151 
-0.0128394 0.386735 0.922143 
-0.0149988 0.474849 0.879965 
-0.019562 0.584332 0.81128 
-0.0199274 0.698545 0.715262 
-0.0173355 0.80078 0.598606 
-0.013831 0.903425 0.428286 
-0.00674536 0.976423 0.215183 
-0.0003949 0.99985 -0.00134424 
0.010214 0.975009 -0.221414 
0.0139299 0.887565 -0.46025 
0.0204692 0.7917 -0.61048 
0.0187648 0.669163 -0.742853 
0.0177691 0.552176 -0.833537 
0.0156318 0.444855 -0.895507 
0.011069 0.35453 -0.935021 
0.00471293 0.273582 -0.961899 
0.000625016 0.206376 -0.978529 
-0.00504101 0.149084 -0.988871 
-0.00964025 0.111682 -0.993757 
-0.0135276 0.080604 -0.996713 
-0.0167618 0.0568592 -0.998299 
-0.0198267 0.0406555 -0.999032 
-0.0219515 0.0283226 -0.999414 
-0.0236261 0.0180075 -0.999614 
-0.0255259 0.0116655 -0.999662 
-0.0265075 0.00664036 -0.999682 
-0.0267592 0.00280622 -0.999693 
-0.0276929 0.000566367 -0.999672 
-0.0278919 -0.00132398 -0.999664 
-0.0279412 -0.00287731 -0.999659 
-0.0281945 -0.00416312 -0.999647 
-0.0280087 -0.00532935 -0.999646 
-0.0280348 -0.0065557 -0.999639 
-0.0282448 -0.00784696 -0.999624 
-0.0277173 -0.00940549 -0.999626 
-0.0272631 -0.0113931 -0.999618 
-0.0269913 -0.013658 -0.999599 
-0.0259669 -0.0163622 -0.999586 
-0.0256371 -0.0201018 -0.999528 
-0.0252725 -0.0246101 -0.999439 
-0.0235245 -0.0304826 -0.99932 
-0.0229429 -0.0371622 -0.999108 
-0.022452 -0.0399837 -0.99901 
-0.0245231 -0.0382503 -0.999019 
-0.0229501 -0.0374417 -0.999111 
-0.0217004 -0.0317505 -0.999307 
-0.0150873 -0.0401058 -0.99911 
0.014699 -0.0402283 0.999134 
0.0154372 -0.0392446 0.999173 
0.0163279 -0.0323392 0.999398 
0.0188862 -0.0335365 0.999339 
0.0185622 -0.0373257 0.999185 
0.0215941 -0.0386141 0.999087 
0.0205121 -0.0326187 0.999324 
0.0206339 -0.0261441 0.999511 
0.0225577 -0.0211227 0.999587 
0.0222243 -0.0174351 0.999664 
0.0217106 -0.0140394 0.999727 
0.022988 -0.0117099 0.999729 
0.0240663 -0.00989952 0.999722 
0.0239897 -0.00797193 0.999741 
0.0240577 -0.00638411 0.99975 
0.024164 -0.0050534 0.999755 
0.0239481 -0.00383406 0.999766 
0.0238822 -0.00247215 0.999771 
0.0240528 -0.000864689 0.99977 
0.0236353 0.00134161 0.99978 
0.0228503 0.00445588 0.99979 
0.0220092 0.00879988 0.99978 
0.0206764 0.014533 0.999741 
0.0194003 0.0223254 0.999623 
0.0171912 0.0324558 0.999385 
0.0147698 0.0463958 0.998874 
0.0117985 0.064266 0.997923 
0.00888549 0.087449 0.99619 
0.00595794 0.117111 0.993162 
0.00233106 0.159587 0.987242 
-0.0014122 0.209426 0.977883 
-0.00505384 0.280982 0.959756 
-0.00787004 0.362362 0.932054 
-0.00862718 0.453526 0.89124 
-0.0115938 0.557559 0.830068 
-0.00968198 0.666925 0.745053 
-0.00791702 0.7887 0.614653 
-0.00691739 0.893296 0.449222 
-0.0038813 0.974816 0.222339 
0.000617572 0.999198 -0.0364022 
0.00429533 0.969282 -0.245396 
0.00625742 0.892508 -0.450802 
0.00849837 0.77883 -0.627092 
0.00972383 0.673812 -0.738821 
0.00910294 0.557172 -0.830373 
0.00770302 0.451506 -0.892262 
0.00777491 0.358697 -0.933467 
0.00525204 0.287274 -0.957889 
0.00219252 0.223778 -0.974697 
-0.00148292 0.168057 -0.985826 
-0.00483031 0.125869 -0.992096 
-0.00888662 0.0913016 -0.995845 
-0.0121497 0.0668621 -0.997749 
-0.0142904 0.0481729 -0.998797 
-0.0166414 0.0347891 -0.999316 
-0.0190217 0.0232667 -0.999609 
-0.0203485 0.0158467 -0.999728 
-0.0218855 0.00971774 -0.999774 
-0.0230846 0.00500264 -0.999782 
-0.0233938 0.00201468 -0.999785 
-0.0236694 -0.000460862 -0.99978 
-0.0238086 -0.00216364 -0.999774 
-0.0238582 -0.00354232 -0.999768 
-0.0241389 -0.00479019 -0.999757 
-0.0241558 -0.0059923 -0.999749 
-0.0240742 -0.00736829 -0.999743 
-0.0240471 -0.00905744 -0.99973 
-0.023749 -0.0109929 -0.999718 
-0.0230926 -0.013297 -0.999706 
-0.0225232 -0.0160775 -0.999679 
-0.0217264 -0.0191872 -0.999643 
-0.0207248 -0.023792 -0.999567 
-0.0207116 -0.0294416 -0.999417 
-0.0203613 -0.0351262 -0.999241 
-0.0197887 -0.0377361 -0.999169 
-0.0191641 -0.0338768 -0.999308 
-0.0161244 -0.0324405 -0.999406 
-0.0171308 -0.037444 -0.999208 
-0.013073 -0.0420466 -0.999072 
0.0183051 -0.0416758 0.998996 
0.0159096 -0.0332246 0.999365 
0.0142329 -0.03183 0.999471 
0.0161524 -0.0306796 0.999481 
0.0211994 -0.0383079 0.99911 
0.0187352 -0.0362836 0.999232 
0.0211911 -0.0306512 0.999386 
0.0234673 -0.0235477 0.999514 
0.0244805 -0.0195821 0.999575 
0.0252322 -0.0159934 0.999619 
0.027308 -0.0134535 0.999602 
0.0288266 -0.0113375 0.999585 
0.0288111 -0.00909376 0.999607 
0.0295395 -0.00720696 0.999601 
0.0293181 -0.00569091 0.999617 
0.0297292 -0.00439701 0.999612 
0.0291025 -0.00301193 0.999635 
0.0284069 -0.00144621 0.999658 
0.0279849 0.000590959 0.999672 
0.0280193 0.00349138 0.999665 
0.027507 0.00758945 0.999656 
0.0264503 0.012998 0.999629 
0.0244169 0.0200935 0.999563 
0.022315 0.0293906 0.999381 
0.019595 0.0415136 0.999008 
0.0170199 0.0575321 0.998261 
0.0131862 0.0786825 0.996876 
0.00900063 0.104833 0.994513 
0.00429754 0.139652 0.990255 
0.000100194 0.186941 0.982435 
-0.00393935 0.24524 0.969514 
-0.00780574 0.332149 0.94325 
-0.0103619 0.416144 0.909297 
-0.0138279 0.521876 0.852933 
-0.0102644 0.54754 0.836747 
-0.0115021 0.687604 0.725971 
-0.0112655 0.821429 0.570107 
-0.00769064 0.925592 0.378163 
-0.00271167 0.992647 0.119853 
0.00185739 0.996888 -0.0765938 
0.00563024 0.958766 -0.283629 
0.00650636 0.942551 -0.333556 
0.00973144 0.858938 -0.511839 
0.011752 0.734775 -0.678164 
0.0116132 0.616844 -0.787 
0.0103552 0.49538 -0.868656 
0.00913987 0.386961 -0.922096 
0.0063286 0.295927 -0.955249 
0.0030008 0.22483 -0.974455 
-0.00100368 0.170075 -0.985505 
-0.00593185 0.12395 -0.992335 
-0.0106426 0.0921819 -0.99575 
-0.0135896 0.0671663 -0.997713 
-0.0184419 0.0507966 -0.998603 
-0.0209681 0.0351413 -0.999225 
-0.023434 0.0247837 -0.999481 
-0.025781 0.0165893 -0.999593 
-0.0266824 0.0100628 -0.999656 
-0.0276132 0.0056294 -0.999666 
-0.0286632 0.00197073 -0.999651 
-0.0294261 -0.000425982 -0.99963 
-0.0296895 -0.00223459 -0.99962 
-0.0295977 -0.00369027 -0.999618 
-0.0297379 -0.00499682 -0.999608 
-0.0294956 -0.00632358 -0.999608 
-0.0294096 -0.00796628 -0.999599 
-0.0287745 -0.00989849 -0.999601 
-0.0279235 -0.0120383 -0.999602 
-0.0267338 -0.0147489 -0.999599 
-0.0263504 -0.0175667 -0.999565 
-0.0250999 -0.0210308 -0.999531 
-0.0238704 -0.0266779 -0.999427 
-0.0219417 -0.0323858 -0.999303 
-0.0198712 -0.0376338 -0.99915 
-0.0203755 -0.0377478 -0.999147 
-0.0174282 -0.0324469 -0.999389 
-0.0161446 -0.0281565 -0.999538 
-0.0149463 -0.036452 -0.999283 
-0.0185803 -0.0386265 -0.999124 
0.0156146 -0.0403405 0.999096 
0.0172462 -0.0296458 0.999468 
0.020365 -0.0290744 0.999423 
0.0234579 -0.0336692 0.999227 
0.026262 -0.0394155 0.998957 
0.0242232 -0.0371201 0.999074 
0.0287764 -0.0340457 0.999074 
0.0280477 -0.0279508 0.999283 
0.0308031 -0.0230024 0.999328 
0.0311796 -0.0187735 0.999403 
0.0329521 -0.0158349 0.999396 
0.034828 -0.013431 0.999368 
0.03521 -0.0109163 0.999384 
0.0357411 -0.00861907 0.999387 
0.036342 -0.00666459 0.999381 
0.0365004 -0.00520313 0.999383 
0.0364354 -0.00373017 0.999392 
0.0360725 -0.00216662 0.99941 
0.0355796 -0.000300875 0.99943 
0.0351098 0.00224496 0.999444 
0.0343031 0.00587393 0.999457 
0.0332555 0.0108152 0.999451 
0.0316681 0.0173026 0.999411 
0.0297498 0.0254964 0.999294 
0.0272837 0.0362515 0.999032 
0.0243594 0.0498825 0.998521 
0.0206371 0.068327 0.997513 
0.016202 0.0917841 0.995712 
0.0108142 0.121566 0.99259 
0.00521793 0.159452 0.987258 
-0.000611957 0.213862 0.976928 
-0.00553144 0.276693 0.960991 
-0.00988363 0.355088 0.934838 
-0.013347 0.445861 0.89505 
-0.01499 0.644406 0.764535 
-0.0137678 0.760071 0.649637 
-0.00930073 0.875798 0.482438 
-0.00559971 0.928146 0.371848 
-0.00509453 0.961445 0.2745 
-0.00137468 0.996401 0.0830433 
0.00131868 0.984569 -0.173996 
0.00626127 0.897777 -0.440183 
0.0110505 0.822601 -0.568397 
0.0141586 0.692274 -0.721476 
0.0151354 0.566879 -0.823683 
0.0144918 0.490912 -0.871127 
0.012259 0.42206 -0.906536 
0.00963026 0.336419 -0.941708 
0.00501561 0.261263 -0.965318 
-0.000417756 0.1988 -0.980105 
-0.00566122 0.151058 -0.988575 
-0.0123788 0.110592 -0.993855 
-0.017508 0.0803408 -0.996679 
-0.0216667 0.0625575 -0.997871 
-0.0254258 0.0437395 -0.998783 
-0.0285307 0.0311731 -0.99917 
-0.0307848 0.0216452 -0.999355 
-0.0325556 0.0136303 -0.99944 
-0.0339971 0.00820873 -0.999451 
-0.0346495 0.00403035 -0.999454 
-0.0358118 0.000879404 -0.999421 
-0.036242 -0.0013598 -0.999405 
-0.0364554 -0.00310256 -0.999394 
-0.0366724 -0.00453191 -0.99938 
-0.0366096 -0.0059865 -0.999375 
-0.0362075 -0.00759483 -0.999378 
-0.0358001 -0.00973918 -0.999375 
-0.0350252 -0.0120571 -0.999377 
-0.0334981 -0.0145039 -0.999398 
-0.0329642 -0.0175628 -0.999368 
-0.0318062 -0.0209149 -0.999342 
-0.0299711 -0.0252539 -0.999299 
-0.0286165 -0.0318931 -0.999161 
-0.0261622 -0.0374446 -0.999024 
-0.0256095 -0.0390133 -0.998978 
-0.0220813 -0.0308017 -0.999349 
-0.0187133 -0.0291864 -0.999463 
-0.0165162 -0.0334539 -0.999359 
-0.0168488 -0.0365146 -0.99923 
0.0112882 -0.0377554 0.999263 
0.0147511 -0.0313122 0.999454 
0.0186103 -0.0338505 0.999322 
0.0202087 -0.0283131 0.999461 
0.0235275 -0.0359969 0.999133 
0.0260133 -0.0391174 0.998965 
0.0282649 -0.0312509 0.99918 
0.0296169 -0.0264609 0.999279 
0.03096 -0.0211338 0.999364 
0.0320618 -0.0179581 0.99939 
0.032262 -0.0154104 0.999426 
0.0332654 -0.0124447 0.999434 
0.0341122 -0.00993615 0.999433 
0.0347654 -0.00767567 0.99943 
0.0345591 -0.00590674 0.999449 
0.0352728 -0.0043463 0.999432 
0.0351644 -0.00274174 0.999441 
0.0347515 -0.000857495 0.999459 
0.03397 0.001603 0.999485 
0.033039 0.00505483 0.999504 
0.0318382 0.00979103 0.999508 
0.0304712 0.0160609 0.999469 
0.0287628 0.0240771 0.999359 
0.026858 0.0343154 0.999113 
0.0242141 0.0476879 0.998632 
0.0211078 0.0647691 0.997741 
0.0169687 0.0874532 0.99609 
0.0121429 0.117773 0.993034 
0.00695928 0.155701 0.987848 
0.00137498 0.205366 0.978753 
-0.00476662 0.279606 0.960178 
-0.00906293 0.374278 0.927327 
-0.0118686 0.485001 0.874465 
-0.010332 0.581711 0.813356 
-0.0144592 0.576653 0.816895 
-0.012496 0.685051 0.72838 
-0.00885287 0.808822 0.587859 
-0.00588783 0.863958 0.503336 
-0.00274978 0.991887 0.125743 
-0.00197332 0.999281 -0.03414 
0.000871749 0.964062 -0.265103 
-0.00165349 0.976532 -0.214562 
0.003314 0.869279 -0.49414 
0.00934583 0.754781 -0.655851 
0.0132863 0.610713 -0.791762 
0.0114059 0.515295 -0.856977 
0.011415 0.400352 -0.916341 
0.0071572 0.314195 -0.949405 
0.00216373 0.240681 -0.970668 
-0.0033298 0.185297 -0.982732 
-0.00885927 0.14007 -0.990182 
-0.0146823 0.10193 -0.99475 
-0.017697 0.0806093 -0.996655 
-0.0223643 0.0581544 -0.998122 
-0.0251031 0.0426165 -0.99884 
-0.027296 0.0304181 -0.999228 
-0.0299533 0.020323 -0.999407 
-0.0312456 0.0133309 -0.999485 
-0.032447 0.00777267 -0.999506 
-0.0338889 0.00361265 -0.999482 
-0.0339307 0.000481262 -0.999487 
-0.0347515 -0.00178102 -0.999458 
-0.0347504 -0.00350251 -0.999454 
-0.0350491 -0.00506027 -0.999436 
-0.0347973 -0.00665626 -0.999436 
-0.0348646 -0.00852179 -0.999419 
-0.033941 -0.0108763 -0.999429 
-0.0334068 -0.0135424 -0.999414 
-0.0326484 -0.0161158 -0.999402 
-0.0306865 -0.0193572 -0.999408 
-0.0299013 -0.023163 -0.999352 
-0.0296043 -0.0280392 -0.999224 
-0.0272492 -0.0340007 -0.999118 
-0.0270321 -0.0387745 -0.99895 
-0.0242925 -0.0399453 -0.998975 
-0.0222489 -0.0315544 -0.999323 
-0.0180959 -0.0295149 -0.999465 
-0.0159739 -0.0327677 -0.999388 
-0.0125655 -0.0372868 -0.999267 
0.00909603 -0.0366486 0.999331 
0.0113734 -0.0349551 0.999377 
0.0164882 -0.0307676 0.999456 
0.0171226 -0.031237 0.999447 
0.021563 -0.0412389 0.998985 
0.0196971 -0.0408524 0.999039 
0.0231729 -0.0349857 0.999176 
0.0221995 -0.0288265 0.999417 
0.0257619 -0.0242964 0.999428 
0.0252458 -0.0205059 0.999537 
0.0258024 -0.0177252 0.999576 
0.0271427 -0.0146334 0.999589 
0.0271204 -0.0118163 0.999627 
0.0284172 -0.00933358 0.999616 
0.0286764 -0.00725039 0.999626 
0.0285566 -0.00538056 0.999641 
0.0293818 -0.0037572 0.999624 
0.0290895 -0.00195018 0.999638 
0.0281903 0.000253858 0.999665 
0.0275075 0.00330256 0.999679 
0.0266509 0.00744407 0.999679 
0.0255723 0.0130185 0.99965 
0.024194 0.0200555 0.999568 
0.0226667 0.0293032 0.999376 
0.0209049 0.0409731 0.999005 
0.0184852 0.0564093 0.998301 
0.0156546 0.0758279 0.997064 
0.0120997 0.102405 0.994738 
0.00807036 0.136541 0.990672 
0.00389939 0.179302 0.983857 
-0.000729309 0.238316 0.971256 
-0.00509445 0.317851 0.94819 
-0.00819845 0.433314 0.90127 
-0.007294 0.543076 0.839687 
-0.00796659 0.712499 0.701605 
-0.0040545 0.832493 0.553901 
-0.00182227 0.904271 0.42672 
0.000813463 0.956368 0.291766 
-0.00357147 0.964606 0.262988 
-0.000541408 0.993166 0.115515 
-0.00262538 0.998275 -0.0572375 
-0.00164508 0.900938 -0.4337 
0.000870121 0.898114 -0.439553 
0.00365816 0.7785 -0.627574 
0.00749783 0.691914 -0.721944 
0.00835095 0.581396 -0.813596 
0.00884476 0.416827 -0.908995 
0.0057364 0.340321 -0.940342 
0.00271062 0.262344 -0.965036 
-0.00183212 0.198955 -0.980088 
-0.0062306 0.155093 -0.987937 
-0.010504 0.119866 -0.992791 
-0.0121721 0.095245 -0.995448 
-0.016594 0.0696852 -0.997497 
-0.0192459 0.051979 -0.998527 
-0.0210577 0.0377041 -0.99913 
-0.023569 0.0256791 -0.999455 
-0.0248455 0.0174804 -0.999601 
-0.0261215 0.0109834 -0.99966 
-0.0273522 0.00576509 -0.999671 
-0.0281816 0.00214443 -0.999663 
-0.0284193 -0.000900651 -0.999659 
-0.0285737 -0.00291329 -0.999651 
-0.0287433 -0.00465711 -0.99964 
-0.0285291 -0.00631751 -0.999637 
-0.0286239 -0.00827417 -0.99962 
-0.0281214 -0.0105126 -0.999614 
-0.0276048 -0.0133561 -0.999594 
-0.0266937 -0.0162367 -0.999577 
-0.0254947 -0.0191389 -0.999558 
-0.0242885 -0.0230568 -0.999518 
-0.0244292 -0.0279689 -0.999378 
-0.0221346 -0.0349739 -0.999211 
-0.0218761 -0.0409762 -0.998989 
-0.0186631 -0.0408382 -0.999059 
-0.0183752 -0.0324136 -0.999374 
-0.0143588 -0.0291361 -0.999536 
-0.0133328 -0.0351342 -0.99935 
-0.010295 -0.0363605 -0.999329 
0.00746553 -0.0378334 0.999298 
0.00898822 -0.0347702 0.999405 
0.0126909 -0.0298036 0.999539 
0.0121515 -0.0333193 0.999439 
0.0160774 -0.0407334 0.999109 
0.0151531 -0.0420625 0.999068 
0.0173568 -0.0347131 0.999314 
0.0167289 -0.0285326 0.99952 
0.0194437 -0.0239098 0.999592 
0.018362 -0.0207482 0.999682 
0.020231 -0.0174391 0.999708 
0.0210287 -0.0144336 0.999739 
0.0207522 -0.011519 0.999792 
0.0219244 -0.00911136 0.999782 
0.0224652 -0.00694028 0.999776 
0.0221255 -0.00504343 0.999816 
0.0228862 -0.00329472 0.999785 
0.0221563 -0.0013187 0.999817 
0.0215349 0.00140499 0.999839 
0.0209565 0.00513496 0.999828 
0.0203182 0.0100202 0.999804 
0.0191414 0.0163016 0.999745 
0.0180134 0.0245272 0.999598 
0.0165817 0.0350401 0.999311 
0.0150913 0.0486636 0.998754 
0.0128961 0.0660501 0.99781 
0.0106127 0.0893651 0.995999 
0.00758819 0.120102 0.992803 
0.00424012 0.161256 0.986988 
0.00111553 0.212578 0.977202 
-0.0019397 0.278001 0.960645 
-0.00500028 0.366459 0.93048 
-0.00530499 0.456125 0.889952 
-0.00498382 0.574727 0.818357 
-0.00630823 0.678186 0.734849 
-0.00340946 0.772874 0.634458 
0.00232628 0.929664 0.367985 
0.00387306 0.995231 0.0971102 
0.00281278 0.997712 0.0677067 
0.000931568 0.999582 0.0269079 
-0.00350488 0.998698 -0.0511863 
-0.00359729 0.997894 -0.0643709 
-0.0011882 0.857139 -0.514997 
0.00209006 0.788667 -0.614766 
0.00506196 0.664941 -0.746874 
0.00540032 0.557941 -0.829897 
0.00717928 0.473976 -0.880554 
0.00500253 0.390994 -0.920437 
0.00273278 0.289666 -0.95719 
-4.41355e-05 0.223711 -0.974725 
-0.00353506 0.168947 -0.985689 
-0.00710574 0.126632 -0.992007 
-0.0101947 0.0879072 -0.996156 
-0.0129155 0.066387 -0.997765 
-0.0149934 0.0490737 -0.998747 
-0.0169868 0.0338404 -0.999346 
-0.0181523 0.0236418 -0.999618 
-0.0194262 0.015611 -0.999751 
-0.0207637 0.00935565 -0.999802 
-0.0211817 0.00469595 -0.999837 
-0.0225913 0.000975818 -0.999796 
-0.0219492 -0.00169034 -0.999831 
-0.0223196 -0.00373336 -0.999807 
-0.0219865 -0.00548208 -0.999807 
-0.0220522 -0.00734261 -0.999793 
-0.0216665 -0.00937529 -0.999785 
-0.0216221 -0.0119175 -0.999759 
-0.0208162 -0.0148555 -0.999737 
-0.0197241 -0.0178368 -0.999712 
-0.0194632 -0.0211131 -0.999653 
-0.0179437 -0.0250801 -0.99958 
-0.018735 -0.0292942 -0.999463 
-0.0162602 -0.0351346 -0.999318 
-0.0168912 -0.040983 -0.999085 
-0.014447 -0.0428667 -0.999044 
-0.0133701 -0.0340833 -0.999397 
-0.0105433 -0.0301595 -0.999552 
-0.010025 -0.034536 -0.999403 
-0.00717289 -0.0374088 -0.999318 
0.00501057 -0.0386682 0.999273 
0.00663983 -0.0338405 0.999463 
0.00905051 -0.0304681 0.999557 
0.00914724 -0.0352544 0.999403 