# vtk DataFile Version 3.0 
Exported using Morpho https://github.com/Morpho-lang/morpho 
ASCII 
DATASET UNSTRUCTURED_GRID 

POINTS 1978 float 
-11.9616 -3.95601 1.48072e-05 
-11.5932 -3.96567 -0.00217695 
-11.3081 -3.96029 -0.00191641 
-10.9753 -3.95625 -0.00183625 
-10.6493 -3.94974 -0.000658491 
-10.2953 -3.94998 -0.00066362 
-9.97932 -3.95359 -0.000210233 
-9.66807 -3.94878 0.000186648 
-9.33214 -3.95025 -0.000156256 
-9.00876 -3.94653 -0.000423413 
-8.67951 -3.9447 0.000131097 
-8.34979 -3.94758 0.000476085 
-8.02624 -3.94809 -0.000132413 
-7.73121 -3.95581 0.000339206 
-7.47435 -3.96106 0.000281151 
-7.21954 -3.95453 1.50361e-05 
-6.91937 -3.94915 0.00022693 
-6.5989 -3.94958 0.0002902 
-6.29773 -3.95191 0.000284343 
-5.99028 -3.95181 0.000344533 
-5.67965 -3.9533 0.000176628 
-5.37367 -3.95325 0.000384047 
-5.06887 -3.95335 0.000395443 
-4.7786 -3.9528 0.000338534 
-4.43497 -3.95047 0.000581526 
-4.14759 -3.9546 0.00070033 
-3.84602 -3.95011 0.000981221 
-3.50772 -3.95042 0.00122877 
-3.20412 -3.95954 0.00205706 
-2.89701 -3.96525 0.00173169 
-2.63633 -3.97474 0.00198348 
-2.37819 -3.97563 0.00267545 
-2.09685 -3.98417 0.00255218 
-1.81365 -3.98444 0.00283035 
-1.52229 -3.98961 0.00332662 
-1.23261 -3.98633 0.00109514 
-0.938115 -3.98332 -0.000213094 
-0.658323 -3.95408 -0.00121586 
-0.301665 -3.94001 -0.00219089 
0.0742249 -3.92344 -0.000120804 
0.357941 -3.94448 0.003675 
0.634264 -3.97411 0.00031848 
0.894905 -3.9755 0.000848859 
1.14509 -4.00072 -0.002114 
1.45121 -3.98373 -0.00369785 
1.73031 -3.98453 -0.00244406 
2.00428 -3.98298 -0.00306478 
2.3111 -3.97541 -0.00315173 
2.62131 -3.9665 -0.00223935 
2.94282 -3.96045 -0.00205852 
3.26536 -3.95676 -0.00151359 
3.55919 -3.95428 -0.00109708 
3.85952 -3.95225 -0.000957052 
4.17687 -3.95168 -0.000751905 
4.47901 -3.95211 -0.000578053 
4.77316 -3.95138 -0.00066572 
5.09323 -3.95085 -0.000545039 
5.39962 -3.95094 -0.000341858 
5.7163 -3.95249 -0.000373553 
6.01002 -3.9543 -0.000254878 
6.30372 -3.95412 -0.000245828 
6.5972 -3.95237 -0.00036356 
6.89661 -3.95381 -0.000218929 
7.16973 -3.95384 -0.000159062 
7.47592 -3.94876 -0.000243606 
7.77212 -3.95002 -0.000157334 
8.06596 -3.94993 0.000211151 
8.35439 -3.95096 -0.000462571 
8.64561 -3.94971 -0.00010221 
8.92756 -3.94662 -7.07147e-05 
9.27868 -3.94288 0.000467062 
9.61544 -3.94708 -0.000189932 
9.90759 -3.94883 0.000391638 
10.2749 -3.94532 0.00101145 
10.6017 -3.94361 0.000488925 
11.002 -3.94977 0.00220052 
11.3073 -3.96256 0.00172629 
11.5883 -3.9673 0.00213945 
11.9625 -3.95592 0.000220477 
-11.9654 -3.60544 0.00176844 
-11.6824 -3.69027 0.000476822 
-11.3506 -3.59955 8.84241e-05 
-11.0558 -3.64443 0.000329144 
-10.7253 -3.62889 -0.000110379 
-10.3925 -3.65716 -0.00048926 
-10.0537 -3.6295 -0.000672479 
-9.74097 -3.6211 -2.34634e-05 
-9.41968 -3.64674 -1.37428e-05 
-9.09086 -3.63555 -0.000514071 
-8.76515 -3.6387 -0.000282723 
-8.43531 -3.6465 0.000260203 
-8.10622 -3.64515 5.77314e-05 
-7.78848 -3.627 0.00019328 
-7.50092 -3.59034 8.08878e-05 
-7.19812 -3.64034 -0.000228792 
-6.88112 -3.65107 -0.000124032 
-6.57691 -3.63335 0.000119631 
-6.26843 -3.64226 0.000125089 
-5.95911 -3.64059 8.64182e-05 
-5.65414 -3.63352 0.000137893 
-5.35107 -3.63144 -0.000120203 
-5.06036 -3.61498 7.56012e-05 
-4.72635 -3.66609 0.000214066 
-4.43589 -3.61172 0.000148103 
-4.13546 -3.63435 0.000107813 
-3.80493 -3.66742 3.89526e-05 
-3.50083 -3.64378 0.000370726 
-3.1941 -3.66607 0.00022325 
-2.90421 -3.65683 0.000313851 
-2.62432 -3.64598 2.96908e-05 
-2.34287 -3.67184 0.000457234 
-2.06247 -3.69156 0.000490472 
-1.75928 -3.69772 0.000418724 
-1.4574 -3.696 -0.000388826 
-1.15226 -3.68343 -0.000381305 
-0.869149 -3.63591 -0.00117787 
-0.57664 -3.59551 -0.00240446 
-0.298298 -3.66739 -0.00201444 
-0.00803691 -3.56297 0.00180052 
0.292848 -3.55234 8.02648e-05 
0.592261 -3.63001 0.00243334 
0.882065 -3.58983 0.00178394 
1.18025 -3.71159 0.000836407 
1.49619 -3.687 0.000358552 
1.79122 -3.67957 -0.000202564 
2.08925 -3.7157 -0.000718374 
2.40286 -3.70967 -0.000657176 
2.71886 -3.69833 2.99494e-05 
3.03348 -3.68204 -0.000169228 
3.32457 -3.63996 -0.000200748 
3.6178 -3.63434 -0.00021253 
3.92835 -3.64848 -0.000164395 
4.23182 -3.63088 -2.54269e-05 
4.52867 -3.62062 3.58081e-05 
4.84104 -3.64504 -5.75631e-05 
5.14905 -3.63076 0.000149001 
5.46603 -3.64363 1.77076e-05 
5.76868 -3.62453 5.05998e-05 
6.06551 -3.62596 -0.000159609 
6.36336 -3.6281 -4.82689e-05 
6.66962 -3.63459 0.000130062 
6.95183 -3.60558 -0.000109094 
7.25116 -3.63922 -0.000162658 
7.55768 -3.62629 -0.000279221 
7.85721 -3.62565 0.000306554 
8.14999 -3.61429 7.82003e-05 
8.435 -3.62007 -4.29196e-05 
8.72022 -3.60235 0.000258534 
9.04475 -3.66524 -4.35859e-05 
9.38549 -3.64718 0.00017457 
9.68949 -3.59796 -8.86899e-05 
10.0229 -3.66902 -9.47272e-05 
10.3541 -3.62239 0.000147447 
10.7304 -3.68598 3.92685e-05 
11.0542 -3.61368 -0.000395114 
11.343 -3.59497 0.000460753 
11.6795 -3.69481 -0.000670812 
11.9622 -3.5954 -0.00185418 
-11.9593 -3.32052 0.00136902 
-11.6076 -3.35769 0.000131516 
-11.2712 -3.26626 -5.51037e-05 
-10.9648 -3.32213 -0.000471615 
-10.6533 -3.28148 -0.000321537 
-10.3632 -3.34673 0.00097853 
-10.0519 -3.29885 -1.11223e-05 
-9.71988 -3.30681 -0.000107048 
-9.39165 -3.33065 0.00042835 
-9.06012 -3.32315 -6.78401e-05 
-8.76147 -3.29458 8.25749e-05 
-8.46604 -3.3414 -1.04687e-05 
-8.16442 -3.31948 -0.000157027 
-7.85991 -3.31795 -0.000260263 
-7.55509 -3.26012 -0.000133914 
-7.25277 -3.31299 0.000273134 
-6.95282 -3.34389 0.000100713 
-6.64512 -3.31955 -1.17001e-05 
-6.33485 -3.326 -0.000176318 
-6.02862 -3.32528 1.82027e-05 
-5.71948 -3.31298 0.000155722 
-5.41097 -3.30671 -5.81501e-05 
-5.11011 -3.27902 -0.000167204 
-4.80486 -3.35551 -6.57649e-05 
-4.50674 -3.28612 0.000225157 
-4.20006 -3.30762 -0.000109036 
-3.89547 -3.36849 -3.51289e-05 
-3.59185 -3.3404 0.000143489 
-3.28342 -3.35743 0.000179671 
-2.98077 -3.35318 1.81773e-05 
-2.6889 -3.32778 0.000150635 
-2.39956 -3.34755 3.20885e-05 
-2.08493 -3.39727 -3.2904e-06 
-1.76383 -3.39763 -4.72596e-05 
-1.44826 -3.38991 0.000426912 
-1.13758 -3.34942 -2.54432e-05 
-0.839475 -3.27279 -0.000408038 
-0.549348 -3.20218 -0.000911423 
-0.269636 -3.29658 -0.000371667 
0.0229979 -3.12056 -0.000496213 
0.292802 -3.17026 0.00105444 
0.572372 -3.2389 0.000530678 
0.858899 -3.23003 0.000863578 
1.16172 -3.37413 0.000384599 
1.46893 -3.37786 -0.000404963 
1.77525 -3.37934 -0.000401731 
2.07782 -3.41452 -0.000570425 
2.37558 -3.43733 -9.04971e-05 
2.66702 -3.3979 0.000455671 
2.96652 -3.40019 -0.00013437 
3.27066 -3.33085 -0.000395451 
3.57055 -3.31419 -6.13037e-06 
3.86994 -3.33553 -0.000141299 
4.17212 -3.31463 6.09925e-05 
4.47381 -3.29307 -0.000124388 
4.77819 -3.32308 0.000297505 
5.08029 -3.31196 -3.99329e-05 
5.39264 -3.32823 3.25021e-05 
5.69919 -3.30444 1.74199e-05 
6.0056 -3.29682 -6.2883e-06 
6.30427 -3.29924 5.5164e-05 
6.60491 -3.31765 -9.46494e-05 
6.90147 -3.26854 -1.64475e-05 
7.19515 -3.31389 2.44699e-05 
7.49542 -3.31269 0.000202055 
7.80833 -3.29975 3.61566e-05 
8.12576 -3.30839 -0.000175341 
8.44352 -3.27857 -0.000130041 
8.76416 -3.29643 0.000266338 
9.0808 -3.36842 0.000337372 
9.38769 -3.31622 -0.000467692 
9.70046 -3.26674 -5.82844e-05 
10.0103 -3.35858 6.03917e-05 
10.308 -3.28096 -0.000296277 
10.6304 -3.38715 0.000314224 
10.9585 -3.31076 0.000149392 
11.2845 -3.24471 0.000487209 
11.6054 -3.36551 -0.000728567 
11.9543 -3.30203 -0.00143656 
-11.9533 -3.01627 0.00242531 
-11.6221 -3.05739 -9.95037e-05 
-11.2887 -2.95491 -0.000565138 
-10.9531 -2.97921 -0.000136691 
-10.6231 -2.95584 -0.000733074 
-10.2972 -2.99635 0.000858266 
-9.95745 -2.98499 -0.000548472 
-9.63475 -2.97649 -0.000176566 
-9.32748 -3.01626 0.000339927 
-9.02498 -2.97613 -0.000302797 
-8.72078 -2.95149 -0.000284058 
-8.4296 -3.00301 0.000188114 
-8.13509 -2.97381 0.000192919 
-7.84752 -2.99172 -0.000232187 
-7.53998 -2.93479 -0.000139971 
-7.23822 -2.98989 -4.15198e-05 
-6.93581 -3.02243 5.4794e-05 
-6.62471 -3.00307 -0.000255533 
-6.32051 -3.00108 -0.000110911 
-6.01376 -3.00341 8.84057e-05 
-5.70483 -2.99115 -1.45838e-05 
-5.40092 -2.97685 -0.000109768 
-5.08787 -2.96189 -0.000173767 
-4.79618 -3.02152 -0.000131185 
-4.48613 -2.97037 -0.000238418 
-4.18998 -2.98146 -7.86796e-05 
-3.90197 -3.05084 -0.000118304 
-3.60874 -3.03038 3.46631e-05 
-3.30894 -3.05089 -0.000258037 
-2.99028 -3.05145 -0.000392792 
-2.67022 -2.99984 -0.000107616 
-2.35376 -3.03086 2.18393e-05 
-2.03022 -3.08995 0.000588187 
-1.71028 -3.04635 0.000503193 
-1.40946 -3.05638 9.46271e-05 
-1.11463 -2.9429 -0.000368743 
-0.845276 -2.88366 -0.00189881 
-0.561591 -2.79247 -0.000409723 
-0.244131 -2.88889 0.000428075 
-0.0156484 -2.56381 3.72962e-05 
0.247438 -2.67961 -0.00122807 
0.530596 -2.78802 0.00118882 
0.825872 -2.81426 0.000499132 
1.12762 -2.97577 0.000410569 
1.43506 -3.0206 -0.000130877 
1.7492 -3.05258 -0.000452248 
2.06397 -3.08766 -0.000376538 
2.37543 -3.12036 0.000123215 
2.6816 -3.07486 0.000166783 
2.97497 -3.09053 0.000314343 
3.26686 -3.00719 0.000290779 
3.56333 -3.00149 0.000299933 
3.86799 -3.0178 0.000131079 
4.16681 -2.99416 -0.000222455 
4.46764 -2.97061 0.000340825 
4.76495 -2.99579 9.208e-05 
5.07305 -2.99528 0.000189416 
5.37777 -3.00673 -7.02171e-05 
5.67981 -2.98131 -3.92477e-05 
5.99053 -2.98286 7.60369e-05 
6.30438 -2.96954 0.00016573 
6.59939 -2.99188 0.000203419 
6.92177 -2.9652 -8.15591e-05 
7.23889 -2.99071 7.33348e-06 
7.53651 -2.98466 0.000103499 
7.83345 -2.99161 0.000145262 
8.13326 -2.98351 -7.29065e-05 
8.43737 -2.97067 -8.79273e-05 
8.74047 -2.96776 0.00024452 
9.05185 -3.04487 0.000113266 
9.36308 -2.99311 -0.000404094 
9.66573 -2.9324 0.000286776 
9.98674 -3.01651 0.0007444 
10.3167 -2.96474 -0.000720435 
10.6469 -3.06149 0.000290032 
10.9787 -2.98396 4.19493e-05 
11.3188 -2.92947 -5.1256e-05 
11.6391 -3.05607 -0.000351925 
11.9501 -2.96983 -0.00205823 
-11.9398 -2.69081 0.0013935 
-11.6231 -2.74183 -1.67838e-05 
-11.2967 -2.63415 0.000577232 
-10.9666 -2.65425 0.00114415 
-10.6437 -2.62234 0.000298323 
[...]
POINT_DATA 1978 
VECTORS vectors float
0.126113 -0.183761 0.976663 
0.133907 -0.120676 0.98912 
0.144993 -0.0792082 0.992301 
0.155094 -0.0471139 0.99225 
0.160409 -0.0304566 0.991803 
0.164178 -0.0211451 0.990771 
0.166244 -0.00901157 0.990659 
0.167127 0.000787397 0.990534 
0.169759 0.00532652 0.989631 
0.172669 0.00630059 0.989016 
0.172576 0.00495905 0.989073 
0.173299 0.00137953 0.988788 
0.171176 0.000677914 0.989325 
0.171754 0.00220705 0.989281 
0.170408 0.00825308 0.987604 
0.169605 0.0130362 0.989297 
0.171874 0.013798 0.988786 
0.171797 0.011919 0.988741 
0.170071 0.0139748 0.989184 
0.169643 0.0185072 0.989135 
0.168984 0.0232491 0.989218 
0.169319 0.0282694 0.989012 
0.169682 0.033342 0.988739 
0.169175 0.0368371 0.988795 
0.168717 0.0394229 0.988523 
0.167599 0.0452615 0.988504 
0.165578 0.0534447 0.988273 
0.163536 0.0590749 0.988311 
0.157524 0.0699824 0.988737 
0.148544 0.0939679 0.990507 
0.143107 0.125217 0.98426 
0.133035 0.16106 0.984401 
0.121683 0.215677 0.971604 
0.104975 0.283369 0.958302 
0.0829034 0.379083 0.926946 
0.0571639 0.499778 0.869427 
0.0315209 0.650032 0.763289 
0.012778 0.799254 0.605514 
0.000778662 0.948468 0.308868 
-0.00251344 0.996482 -0.073214 
-0.000610078 0.932471 -0.3548 
-0.00989646 0.81124 -0.590856 
-0.0250969 0.67051 -0.743187 
-0.047208 0.532753 -0.852405 
-0.0768261 0.397437 -0.919715 
-0.0998217 0.305376 -0.949871 
-0.116507 0.230517 -0.972578 
-0.131582 0.171286 -0.978893 
-0.143019 0.126298 -0.985702 
-0.151929 0.0934459 -0.987787 
-0.159518 0.0722315 -0.988046 
-0.16339 0.0601933 -0.988404 
-0.166047 0.0523268 -0.988304 
-0.167986 0.0452307 -0.988295 
-0.16834 0.0388539 -0.988671 
-0.169155 0.0337773 -0.988755 
-0.169211 0.0308179 -0.988814 
-0.168667 0.0274551 -0.9892 
-0.168999 0.0238447 -0.989291 
-0.16878 0.0207008 -0.989438 
-0.168446 0.0157303 -0.98963 
-0.169105 0.0124862 -0.989481 
-0.169298 0.0104108 -0.989458 
-0.169023 0.0079694 -0.989676 
-0.17023 0.00670412 -0.991213 
-0.171127 0.00905868 -0.98722 
-0.169596 0.00839862 -0.991153 
-0.169422 0.00502497 -0.98777 
-0.168625 0.00228291 -0.989834 
-0.168951 -0.000328556 -0.989594 
-0.168225 0.00206328 -0.989671 
-0.16592 -0.00145677 -0.990659 
-0.164408 -0.00981909 -0.990862 
-0.16296 -0.0211831 -0.991176 
-0.158554 -0.0285826 -0.991983 
-0.152693 -0.0472394 -0.992164 
-0.143825 -0.0754365 -0.993022 
-0.133708 -0.118239 -0.989612 
-0.124174 -0.186455 -0.976429 
0.0758002 -0.191111 0.982685 
0.0967342 -0.140079 0.999101 
0.095082 -0.0952036 1.0074 
0.107515 -0.0639034 1.00839 
0.112523 -0.0396831 1.01035 
0.12123 -0.0265727 1.00576 
0.119669 -0.0152193 1.00766 
0.120093 -0.00479321 1.00993 
0.125994 0.000400285 1.00477 
0.126635 0.00286215 1.00642 
0.128623 0.00380053 1.00786 
0.129413 0.00321612 1.0037 
0.13005 0.00358793 1.00724 
0.125881 0.00527425 1.00607 
0.119594 0.00773412 1.00845 
0.127546 0.00999361 1.00562 
0.128976 0.0120203 1.00492 
0.125928 0.0132882 1.00578 
0.126774 0.0150491 1.00534 
0.126799 0.0180536 1.00558 
0.125346 0.022074 1.00575 
0.124928 0.0261413 1.00572 
0.123536 0.030116 1.00593 
0.129192 0.0350231 1.00454 
0.121047 0.0382669 1.00574 
0.123752 0.0440144 1.00471 
0.12606 0.052962 1.00399 
0.119017 0.0631628 1.00406 
0.116798 0.0780817 1.0017 
0.107809 0.101766 1.00227 
0.0999028 0.135035 0.999623 
0.0935997 0.176205 0.991951 
0.0848648 0.231028 0.985191 
0.0706198 0.311761 0.964412 
0.0537694 0.416731 0.919909 
0.0348501 0.551982 0.849443 
0.0197301 0.696953 0.726007 
0.00793953 0.844366 0.542825 
0.00200231 0.952249 0.305283 
-0.000232101 0.996746 0.0104693 
-0.00422256 0.9542 -0.296487 
-0.0088047 0.83654 -0.554659 
-0.0179083 0.690952 -0.734078 
-0.0356823 0.533526 -0.859831 
-0.0552659 0.397351 -0.930591 
-0.0722342 0.299901 -0.965508 
-0.0883839 0.222618 -0.984845 
-0.10148 0.164298 -0.99432 
-0.109281 0.121308 -1.0016 
-0.115608 0.0917784 -1.00207 
-0.115753 0.0727853 -1.00425 
-0.119365 0.0595561 -1.00441 
-0.124236 0.0499929 -1.00446 
-0.123431 0.042609 -1.00508 
-0.123142 0.0367946 -1.00543 
-0.127158 0.0325098 -1.0049 
-0.125062 0.0281317 -1.00583 
-0.126703 0.0247471 -1.00517 
-0.124487 0.0211644 -1.00592 
-0.123918 0.0178442 -1.00614 
-0.123833 0.014929 -1.00568 
-0.12568 0.0123573 -1.00616 
-0.122144 0.0105736 -1.00614 
-0.126876 0.00885515 -1.00544 
-0.125789 0.00797654 -1.004 
-0.126168 0.00795999 -1.006 
-0.123633 0.00648157 -1.00624 
-0.124731 0.00403345 -1.00596 
-0.121766 0.00207237 -1.00849 
-0.129964 0.000600878 -1.00372 
-0.12684 -0.00180316 -1.00628 
-0.116517 -0.00654974 -1.00979 
-0.126352 -0.0139473 -1.00482 
-0.116792 -0.0251861 -1.01032 
-0.121447 -0.0402611 -1.00741 
-0.104308 -0.0641334 -1.00896 
-0.0945139 -0.0936671 -1.00751 
-0.0974625 -0.140248 -0.999118 
-0.0744997 -0.192667 -0.982419 
0.0451692 -0.199934 0.983325 
0.0619283 -0.137718 1.00477 
0.0610243 -0.0923124 1.0131 
0.0742267 -0.0627556 1.01064 
0.0736267 -0.0435752 1.01332 
0.0837319 -0.0258998 1.01153 
0.0814254 -0.0170636 1.01267 
0.0836039 -0.00774108 1.01216 
0.0882451 -0.00216603 1.01162 
0.0884549 9.77854e-05 1.01156 
0.086773 0.00249361 1.01111 
0.0914525 0.0034666 1.01071 
0.0903306 0.00367235 1.01091 
0.0903562 0.00581148 1.00879 
0.0845538 0.00790453 1.01277 
0.0892521 0.00953798 1.0087 
0.0921507 0.0111258 1.01018 
0.0896248 0.0127689 1.01015 
0.0913779 0.0139574 1.01017 
0.0902217 0.0159939 1.01031 
0.0894931 0.0191365 1.01039 
0.0885521 0.0226747 1.01038 
0.0861353 0.0264539 1.01036 
0.0942732 0.0311537 1.00953 
0.0858654 0.0353121 1.00992 
0.0871513 0.0409135 1.01138 
0.0908261 0.0491895 1.00859 
0.0861364 0.0598282 1.00852 
0.0841248 0.0748911 1.00779 
0.0777118 0.0987457 1.00641 
0.0697639 0.129101 1.00426 
0.0645813 0.170862 1.00084 
0.0595041 0.233005 0.985056 
0.0475221 0.317814 0.96435 
0.0348961 0.428428 0.919179 
0.0214254 0.567506 0.838942 
0.010104 0.718288 0.709069 
0.00324596 0.858373 0.52032 
0.000906058 0.960243 0.277441 
-0.00208479 0.99641 -0.0233287 
-0.00270583 0.954847 -0.295916 
-0.00595863 0.85039 -0.535422 
-0.0104868 0.709215 -0.718455 
-0.02293 0.555215 -0.848297 
-0.0353859 0.419553 -0.924215 
-0.0479102 0.312871 -0.964813 
-0.0605916 0.232136 -0.986895 
-0.0717215 0.172242 -0.996938 
-0.0754976 0.131208 -1.00356 
-0.0820227 0.100064 -1.00391 
-0.0805409 0.0776991 -1.00979 
-0.0837454 0.0615247 -1.0089 
-0.0880023 0.0501532 -1.00741 
-0.0877382 0.0416028 -1.01117 
-0.0870633 0.0362849 -1.00798 
-0.0907443 0.0314382 -1.01002 
-0.0892473 0.0276909 -1.0097 
-0.0909138 0.0232814 -1.0103 
-0.0896195 0.0195274 -1.01036 
-0.08786 0.0168359 -1.01207 
-0.0881269 0.0147018 -1.01067 
-0.089534 0.0132878 -1.00821 
-0.0848985 0.0109894 -1.01256 
-0.0897275 0.00933366 -1.00847 
-0.0896517 0.00810505 -1.0124 
-0.088975 0.00725818 -1.01004 
-0.0914601 0.00555786 -1.01025 
-0.0877583 0.0034031 -1.01087 
-0.0879161 0.00115076 -1.01084 
-0.0937061 -0.000923582 -1.01045 
-0.0873008 -0.00418314 -1.01124 
-0.0813277 -0.00880262 -1.01248 
-0.0898051 -0.0162368 -1.01132 
-0.0776827 -0.027564 -1.01244 
-0.0857085 -0.0398877 -1.0097 
-0.0727134 -0.0616273 -1.0128 
-0.0586729 -0.0953572 -1.01304 
-0.064015 -0.138147 -1.00461 
-0.0452397 -0.202954 -0.982646 
0.024585 -0.209876 0.981466 
0.0380876 -0.148397 1.00449 
0.0400724 -0.101382 1.00928 
0.0486386 -0.0672664 1.01584 
0.0485637 -0.0459 1.01147 
0.0553426 -0.027681 1.01607 
0.0563025 -0.0162798 1.01384 
0.0565242 -0.00846606 1.01384 
0.0609785 -0.00434956 1.01334 
0.0600089 -0.0026652 1.013 
0.0596809 0.000760698 1.01284 
0.0641886 0.00306373 1.01239 
0.063008 0.00441271 1.01211 
0.0633036 0.00656831 1.01242 
0.0586368 0.00847045 1.01091 
0.0630007 0.00934967 1.01386 
0.0650965 0.0109717 1.01194 
0.0635092 0.0127467 1.01217 
0.0634722 0.0145065 1.01195 
0.0640641 0.0155982 1.01201 
0.0633904 0.0172592 1.01202 
0.0626514 0.0206359 1.01197 
0.0618964 0.024805 1.01187 
0.0653111 0.0292484 1.0113 
0.0617339 0.0338665 1.01126 
0.0618976 0.0401863 1.0091 
0.064483 0.0480069 1.01055 
0.0606368 0.0591905 1.01024 
0.0588234 0.0753799 1.01147 
0.0549661 0.0985155 1.00903 
0.0460697 0.134151 1.00578 
0.0415328 0.183524 0.999986 
0.0372734 0.250924 0.985423 
0.0261712 0.3425 0.958442 
0.0186063 0.45241 0.909761 
0.00770972 0.585552 0.829078 
0.00212271 0.718699 0.7088 
-0.00119139 0.855882 0.525443 
-0.00207451 0.967822 0.249808 
-0.00382364 0.997078 0.0122611 
-0.00339639 0.967403 -0.252614 
-0.00220306 0.870432 -0.501002 
-0.00429226 0.73018 -0.698054 
-0.0114137 0.578974 -0.833766 
-0.0194862 0.443135 -0.915695 
-0.028756 0.329269 -0.962114 
-0.0391232 0.242081 -0.987835 
-0.0480644 0.177206 -0.999527 
-0.0508423 0.132002 -1.00575 
-0.0570791 0.100761 -1.00811 
-0.0561794 0.0782168 -1.00807 
-0.0586807 0.0624085 -1.01028 
-0.0620253 0.049479 -1.01252 
-0.062089 0.0404485 -1.00956 
-0.061824 0.033882 -1.01315 
-0.0635444 0.0299933 -1.01114 
-0.0646711 0.0254538 -1.01187 
-0.064664 0.0216462 -1.01161 
-0.0628688 0.0177253 -1.01181 
-0.0632113 0.0156542 -1.01021 
-0.0614207 0.0147475 -1.01191 
-0.0633977 0.0132712 -1.01368 
-0.0609027 0.0112759 -1.01011 
-0.0629228 0.00931773 -1.01388 
-0.0625281 0.00833351 -1.01151 
-0.0636614 0.00652046 -1.01236 
-0.0620764 0.00457239 -1.01244 
-0.0609339 0.00275954 -1.01219 
-0.0619701 0.000148654 -1.01259 
-0.0648663 -0.00254406 -1.01264 
-0.0603913 -0.00569973 -1.01315 
-0.0535943 -0.0100308 -1.01361 
-0.0589897 -0.0174586 -1.01379 
-0.0556196 -0.0291735 -1.01383 
-0.0567612 -0.0456783 -1.01306 
-0.0507518 -0.0702867 -1.01347 
-0.0411641 -0.105703 -1.01116 
-0.0401632 -0.151389 -1.0038 
-0.0276874 -0.210581 -0.981173 
0.0131766 -0.216116 0.979853 
0.0250485 -0.154493 1.00567 
0.0264337 -0.107515 1.01081 
0.0311499 -0.0724191 1.01278 
0.0337292 -0.0498238 1.01381 
0.0389682 -0.0278452 1.01419 
0.038417 -0.0192363 1.01426 
0.0383583 -0.0103555 1.012 
0.0418075 -0.00574466 1.01542 
0.0406557 -0.00386412 1.01325 
0.0396648 -0.000295289 1.01147 
0.0436539 0.00200777 1.01473 
0.042894 0.00445409 1.0115 
0.0419959 0.00725859 1.01438 
0.0409484 0.00885807 1.01268 
0.0434476 0.0103227 1.01253 
0.0453727 0.0122421 1.01264 
0.0433984 0.0142287 1.01248 
0.0441472 0.0148431 1.01251 
0.0445631 0.0145797 1.01244 
0.0434053 0.0159069 1.01254 
0.0438525 0.0196958 1.01237 
0.044058 0.0240296 1.01196 
0.0462399 0.0284863 1.01166 
0.0435781 0.0332891 1.01129 
0.0434535 0.0402776 1.01132 
0.0444577 0.0496235 1.01091 
0.0416844 0.0620347 1.01085 
0.0396713 0.0803066 1.01024 
0.0340923 0.104999 1.00767 
0.0278111 0.141945 1.00873 
0.0205407 0.194141 0.998113 
0.0199478 0.253019 0.989403 
0.0111933 0.351936 0.954117 
0.00433765 0.483319 0.895002 
-0.00136092 0.634299 0.790015 
-0.00508887 0.789761 0.629541 
-0.00849429 0.891884 0.462398 
-0.00484601 0.947405 0.324655 
-0.00528165 0.997664 -0.0266093 
-0.000520062 0.953363 -0.300391 
-0.00247901 0.855008 -0.530816 
-0.000673868 0.73158 -0.695195 
-0.00457604 0.579646 -0.837462 
-0.00835287 0.439162 -0.919559 
-0.0146017 0.330242 -0.964024 
-0.0207272 0.246813 -0.989042 
-0.0297128 0.179352 -1.00102 
-0.0321592 0.132637 -1.00762 
-0.0376645 0.0985272 -1.01157 
-0.0381648 0.0748027 -1.01088 
-0.0412931 0.058074 -1.01134 
-0.04334 0.0461654 -1.01134 
-0.0435636 0.0371471 -1.01169 
-0.0434895 0.0306281 -1.01169 
-0.0457834 0.0265826 -1.01207 
-0.0451265 0.0225135 -1.01202 
-0.0450293 0.0181349 -1.0125 
-0.0439381 0.0152491 -1.01246 
-0.0438733 0.0148375 -1.01223 
-0.0418044 0.0147217 -1.01259 
-0.0440851 0.0133679 -1.01238 
-0.0428208 0.0111176 -1.01276 
-0.0418355 0.00942275 -1.01237 
-0.0416683 0.00817397 -1.01122 
-0.0434885 0.00636428 -1.01245 
-0.0427221 0.00342378 -1.01276 
-0.0420244 0.00134889 -1.01312 
-0.0392107 -0.000432539 -1.01306 
-0.0447891 -0.00401278 -1.0132 
-0.0404248 -0.00719848 -1.01341 
-0.0378481 -0.0113613 -1.01372 
-0.0383673 -0.0199508 -1.01405 
-0.0360282 -0.0300959 -1.01386 
-0.0382787 -0.0488482 -1.01382 
-0.031168 -0.075284 -1.01274 
-0.0228321 -0.108998 -1.00984 
-0.0261964 -0.157003 -1.00317 
-0.0180682 -0.215989 -0.980202 
0.0101318 -0.221823 0.978556 
0.0145132 -0.172234 0.998396 
0.016214 -0.125965 1.0078 
0.0203069 -0.0848855 1.01272 
0.0212842 -0.0584448 1.01371 
0.0237443 -0.0368471 1.01446 
0.0255927 -0.0241357 1.0142 
0.0261374 -0.0141845 1.01403 
0.026714 -0.00772941 1.01365 
0.0274168 -0.00632624 1.0135 
0.0280273 -0.00210207 1.01338 
0.0287506 0.00095036 1.0134 
0.0285082 0.00289188 1.01308 
0.0276458 0.00606885 1.01314 
0.028331 0.00819058 1.01316 
0.0278013 0.00986186 1.01292 
0.02916 0.0123549 1.0131 
0.0295289 0.0144246 1.01294 
0.0290826 0.015012 1.01274 
0.0293662 0.0141743 1.01272 
0.0290391 0.013977 1.01276 
0.0294904 0.0158435 1.01267 
0.030798 0.0198194 1.01241 
0.0307029 0.0244567 1.01212 
0.0321484 0.0285383 1.01171 
0.0310666 0.0346628 1.01152 
0.0293143 0.0440107 1.0115 
0.0294513 0.0535864 1.01137 
0.0274442 0.0684509 1.011 
0.0232507 0.0883727 1.01115 
0.0171084 0.12074 1.00967 
0.0103183 0.168541 1.005 
0.00581262 0.238403 0.993065 
0.00445347 0.312156 0.972245 
-0.000252187 0.438314 0.923956 
-0.00252367 0.556476 0.849175 
-0.00544928 0.691273 0.744546 
-0.00744874 0.819966 0.575451 
-0.00800835 0.983527 0.180436 
-0.000825619 0.99552 -0.0139228 
-0.00257042 0.975797 -0.219673 
-3.19722e-05 0.930798 -0.375222 
-0.0021447 0.834965 -0.570406 
-0.0024321 0.624304 -0.795805 
-0.00172908 0.472894 -0.902731 
-0.00386743 0.350583 -0.958471 
-0.0060998 0.263315 -0.98716 
-0.0131147 0.195634 -1.00051 
-0.0155699 0.146563 -1.00715 
-0.0215905 0.106728 -1.00871 
-0.0244381 0.0808929 -1.01125 
-0.0273623 0.0610731 -1.01202 
-0.0286536 0.0474463 -1.01205 
-0.029733 0.037739 -1.01197 
-0.0304464 0.0303171 -1.01214 
-0.0314489 0.0254357 -1.01217 
-0.0310318 0.0214973 -1.01238 
-0.0305035 0.0173257 -1.01267 
-0.0299092 0.0142773 -1.01284 
-0.0294672 0.0136645 -1.01274 
-0.0283883 0.0148826 -1.01274 
-0.0292774 0.0149311 -1.01287 
-0.0301865 0.0126099 -1.01282 
-0.0285386 0.0100733 -1.01303 
-0.028716 0.00875537 -1.01309 
-0.0275266 0.0070718 -1.01472 
-0.0288415 0.00371375 -1.01335 
-0.0282747 0.000933815 -1.01319 
-0.0276232 -0.00142314 -1.01347 
-0.0291966 -0.00583424 -1.01361 
-0.0274329 -0.00875303 -1.01378 
-0.0255314 -0.0121009 -1.01413 
-0.0280717 -0.0222763 -1.01423 
-0.0239134 -0.0338249 -1.01419 
-0.0257534 -0.0510917 -1.01398 
-0.0230779 -0.0791628 -1.01266 
-0.0176112 -0.111449 -1.01001 
-0.0161546 -0.159143 -1.00282 
-0.00958526 -0.218017 -0.980071 
0.00566198 -0.222593 0.978613 
0.00936316 -0.160687 1.00268 
0.011384 -0.110675 1.01013 
0.0118404 -0.0780811 1.01302 
0.014314 -0.0506687 1.01397 
0.0165059 -0.0340431 1.01587 
0.0197917 -0.0222941 1.01418 
0.0192168 -0.0121419 1.01392 
0.0199044 -0.00929281 1.01336 
0.0209364 -0.00644639 1.01351 
0.0212624 -0.00112808 1.01323 
0.0208182 0.0015778 1.01312 
0.0203724 0.00458083 1.01315 
0.0201053 0.00733321 1.01293 
0.020007 0.00876411 1.01287 
0.0193422 0.0110979 1.01285 
0.0204841 0.0140537 1.01294 
0.0205614 0.0160713 1.01275 
0.0199322 0.0154253 1.01262 
0.0200505 0.0133638 1.01261 
0.0206308 0.0130832 1.01267 
0.021302 0.0158074 1.01246 
0.0222237 0.0204706 1.01224 
0.0221655 0.0252081 1.01198 
0.0234013 0.0303574 1.01161 
0.0218644 0.0384951 1.01162 
0.0200668 0.0490165 1.01154 
0.0199066 0.0606873 1.00999 
0.015028 0.079082 1.0134 
0.0111665 0.108581 1.01097 
0.00540632 0.156057 1.00738 
0.002101 0.229476 0.995627 
-0.000266809 0.349506 0.95996 
-0.00126457 0.465148 0.904483 
-0.00425818 0.664867 0.768781 
-0.00487238 0.761058 0.658465 
-0.00325671 0.906171 0.430114 
-0.00286839 0.948452 0.324899 
-0.00442059 0.954518 0.303922 
-0.00125417 0.980217 0.154683 
0.00674409 0.994998 -0.0712793 
0.00629484 0.922892 -0.379229 
0.003721 0.81313 -0.58412 
-0.00156018 0.716153 -0.715035 
-0.000324307 0.565374 -0.845602 
0.00052167 0.424941 -0.927368 
-0.001117 0.290275 -0.979932 
-0.00467389 0.200299 -1.00062 
-0.00706327 0.144618 -1.00867 
-0.0120796 0.104452 -1.01284 
-0.0173127 0.0764495 -1.01018 
-0.0194231 0.0578738 -1.01378 
-0.021047 0.045259 -1.01176 
-0.0216079 0.0361245 -1.01162 
-0.0222513 0.028556 -1.01215 
-0.0224949 0.0233005 -1.012 
-0.0221438 0.0188479 -1.01252 
-0.0207164 0.014964 -1.01271 
-0.0203084 0.0129084 -1.01269 
-0.0197725 0.0135221 -1.01269 
-0.0203908 0.0155756 -1.01266 
-0.020129 0.0157894 -1.01291 
-0.0208309 0.0130191 -1.01299 
-0.0196883 0.00987941 -1.01297 
-0.0196149 0.00837355 -1.01271 
-0.0197142 0.0064066 -1.01178 
-0.0196379 0.00330772 -1.01296 
-0.0204409 0.000429499 -1.01331 
-0.0206478 -0.0019041 -1.01334 
-0.0219074 -0.00671108 -1.01361 
-0.0208235 -0.0104435 -1.01354 
-0.0177473 -0.0129493 -1.01396 
-0.0190339 -0.0244029 -1.01432 
-0.0161436 -0.037446 -1.01412 
-0.0154085 -0.0553116 -1.01382 
-0.0119624 -0.0824693 -1.01262 
-0.00806978 -0.117495 -1.0092 
-0.0078272 -0.162623 -1.0023 
-0.00118759 -0.220832 -0.979106 
0.00169118 -0.225074 0.977747 
0.005365 -0.168578 1.0028 
0.00691521 -0.117969 1.00893 
0.00880695 -0.0818853 1.01232 
0.0112847 -0.0555383 1.01334 
0.0129298 -0.0364037 1.01188 
0.0141075 -0.0251806 1.01219 
0.0150836 -0.0144525 1.01348 
0.0167788 -0.0111941 1.013 
0.0173172 -0.00835279 1.01291 
0.0169418 -0.00187019 1.01276 
0.0165551 0.0004078 1.01241 
0.0164442 0.00398164 1.0127 
0.0161088 0.00759841 1.0125 
0.01553 0.00878685 1.01238 
0.0152936 0.0108231 1.01248 
0.0147571 0.014853 1.01248 
0.0146401 0.0171643 1.01244 
0.0147096 0.0165027 1.01226 
0.0143073 0.0133927 1.01212 
0.0145386 0.0117185 1.0123 
0.0155178 0.0137475 1.01227 
0.0163703 0.018427 1.01195 
0.0171119 0.0234083 1.01179 
0.017064 0.0291983 1.01147 
0.0170021 0.0358061 1.01117 
0.0156914 0.0459796 1.01328 
0.0138863 0.06072 1.01128 
0.00965188 0.0803011 1.00966 
0.00636146 0.10607 1.01063 
0.00249457 0.1486 1.008 
1.8714e-06 0.222086 0.997143 
-0.00187395 0.338533 0.965726 
-0.00288854 0.513351 0.880593 
-0.00449641 0.705823 0.727094 
-0.00524161 0.85793 0.516155 
-0.000827741 0.958321 0.268948 
0.00256237 0.991785 0.104463 
0.00366817 0.996018 0.0626645 
0.00548278 0.999517 0.0217553 
0.00352922 1.00211 -0.0348493 
0.00241135 0.994984 -0.0945473 
0.00530856 0.92646 -0.350144 
-0.00209925 0.686127 -0.753825 
0.00127243 0.603723 -0.814176 
0.00176455 0.494763 -0.89126 
0.00157273 0.353264 -0.956685 
0.000515106 0.234858 -0.993595 
-0.00264406 0.158899 -1.00673 
-0.00663166 0.109462 -1.01101 
-0.0110951 0.0806978 -1.01179 
-0.0130831 0.0628142 -1.01174 
-0.0152915 0.0486662 -1.01163 
-0.0163264 0.0386723 -1.01147 
-0.0168929 0.0310687 -1.01137 
-0.0169018 0.0246664 -1.0117 
-0.0167151 0.0196888 -1.01057 
-0.0157286 0.0148968 -1.01375 
-0.0151397 0.0123241 -1.01078 
-0.0142604 0.0128054 -1.01236 
-0.0149442 0.0157703 -1.01214 
-0.0147611 0.0172901 -1.01247 
-0.0151313 0.0151845 -1.01253 
-0.0151822 0.0115748 -1.0128 
-0.0154175 0.00882239 -1.01269 
-0.0161877 0.00763109 -1.01411 
-0.016092 0.00421121 -1.01262 
-0.017593 0.000563611 -1.01329 
-0.0168994 -0.00234271 -1.01265 
-0.01828 -0.0081124 -1.01345 
-0.0173555 -0.0125871 -1.0132 
-0.015328 -0.0159247 -1.01331 
-0.0153919 -0.0243798 -1.01394 
-0.0135107 -0.0367956 -1.01374 
-0.01235 -0.0547427 -1.01346 
-0.00866787 -0.0815036 -1.01237 
-0.00512009 -0.117399 -1.00886 
-0.00239509 -0.169415 -1.00051 
0.00201937 -0.225077 -0.977859 
0.00263931 -0.229362 0.976557 
0.00389507 -0.171234 0.998241 
0.00514378 -0.120121 1.00846 
0.00666525 -0.0856635 1.01176 
0.00782468 -0.0571557 1.0133 
0.0095992 -0.038336 1.01365 
0.0107075 -0.0262717 1.0152 
0.0132967 -0.017075 1.01343 
0.0159716 -0.0127256 1.01273 
0.0168714 -0.00709609 1.01454 
0.0173744 -0.00221149 1.01105 
0.0180431 0.00112326 1.01422 
0.0175534 0.0056896 1.01231 
0.016874 0.00857154 1.01231 
0.0165527 0.0100163 1.01212 
0.0158154 0.0129078 1.01224 
0.0151124 0.0170849 1.01229 
0.0149847 0.0189357 1.01208 
0.0147289 0.0166998 1.01183 
0.0145993 0.0127255 1.01186 
0.0148076 0.0114925 1.01199 
0.0157164 0.0143857 1.01186 
0.01648 0.0195175 1.0117 
0.0172107 0.0254748 1.01118 
0.017101 0.0313167 1.01133 
0.0164757 0.038942 1.00958 
0.015217 0.0480553 1.01119 
0.0138759 0.0573844 1.0118 
0.0100899 0.0730955 1.01408 
0.00545019 0.101528 1.01309 