# vtk DataFile Version 3.0 
Exported using Morpho https://github.com/Morpho-lang/morpho 
ASCII 
DATASET UNSTRUCTURED_GRID 

POINTS 1978 float 
-12 -4 -2.11343e-11 
-11.5979 -4 1.06034e-09 
-11.2915 -4 1.08514e-09 
-10.9559 -4 7.57685e-10 
-10.6461 -4 4.47312e-10 
-10.3207 -4 2.23678e-10 
-9.9993 -4 6.41607e-11 
-9.65809 -4 -1.53016e-11 
-9.30287 -4 -2.08161e-11 
-8.98841 -4 -1.73054e-11 
-8.68989 -4 -3.26257e-11 
-8.376 -4 -5.47786e-11 
-8.0775 -4 -9.8717e-11 
-7.77032 -4 -1.44185e-10 
-7.47689 -4 -1.74849e-10 
-7.19014 -4 -2.11684e-10 
-6.88649 -4 -2.5057e-10 
-6.58645 -4 -2.7458e-10 
-6.28312 -4 -3.13616e-10 
-5.97897 -4 -3.47281e-10 
-5.68012 -4 -3.82762e-10 
-5.38672 -4 -4.2596e-10 
-5.09432 -4 -4.69599e-10 
-4.81114 -4 -5.47064e-10 
-4.52013 -4 -6.67357e-10 
-4.21514 -4 -7.64089e-10 
-3.92136 -4 -9.39878e-10 
-3.59055 -4 -1.14869e-09 
-3.25867 -4 -1.29708e-09 
-2.93042 -4 -1.46404e-09 
-2.59517 -4 -1.56409e-09 
-2.28542 -4 -1.50357e-09 
-2.00705 -4 -1.71647e-09 
-1.74643 -4 -1.49419e-09 
-1.50188 -4 -9.25353e-10 
-1.29738 -4 2.08612e-09 
-1.16514 -4 -9.91246e-10 
-0.904718 -4 2.18373e-08 
-0.635895 -4 -9.90637e-09 
0.117791 -4 6.0852e-08 
0.309616 -4 -1.23797e-07 
1.07027 -4 4.80319e-08 
1.18598 -4 -1.14789e-09 
1.36488 -4 1.92957e-09 
1.56269 -4 -5.34906e-10 
1.80826 -4 1.24368e-09 
2.06766 -4 1.37553e-09 
2.36216 -4 1.55686e-09 
2.66293 -4 1.49273e-09 
2.98213 -4 1.44989e-09 
3.32131 -4 1.25163e-09 
3.61124 -4 1.0384e-09 
3.91817 -4 9.26129e-10 
4.22562 -4 8.03749e-10 
4.52894 -4 6.51601e-10 
4.8209 -4 5.84869e-10 
5.12494 -4 4.97128e-10 
5.41469 -4 4.31995e-10 
5.71372 -4 3.80268e-10 
6.00555 -4 3.38215e-10 
6.2988 -4 2.93838e-10 
6.58113 -4 2.72575e-10 
6.88076 -4 2.46922e-10 
7.17058 -4 2.20418e-10 
7.47128 -4 1.90145e-10 
7.77154 -4 1.48726e-10 
8.07262 -4 1.03289e-10 
8.3648 -4 5.95507e-11 
8.65614 -4 3.23524e-11 
8.95161 -4 1.95104e-11 
9.28277 -4 2.66618e-11 
9.61012 -4 2.49886e-11 
9.90902 -4 -5.11281e-11 
10.2705 -4 -1.96995e-10 
10.5886 -4 -4.73562e-10 
10.977 -4 -8.14833e-10 
11.2969 -4 -1.05477e-09 
11.5879 -4 -1.0395e-09 
12 -4 -1.17249e-12 
-12 -3.62594 -1.55308e-10 
-11.7008 -3.71741 3.25767e-16 
-11.35 -3.63493 3.45672e-16 
-11.0349 -3.66953 3.76245e-16 
-10.7064 -3.6448 3.57121e-16 
-10.3924 -3.66363 2.64321e-16 
-10.0622 -3.66181 1.59397e-16 
-9.733 -3.67836 7.7945e-17 
-9.39756 -3.70269 2.57297e-17 
-9.05515 -3.66807 -8.59089e-18 
-8.74232 -3.65274 -3.00098e-17 
-8.43553 -3.67336 -4.19973e-17 
-8.12043 -3.65918 -5.29946e-17 
-7.81508 -3.67046 -6.5831e-17 
-7.50438 -3.65845 -7.67017e-17 
-7.20407 -3.65559 -9.5433e-17 
-6.8991 -3.67475 -1.17597e-16 
-6.58924 -3.67189 -1.36412e-16 
-6.28035 -3.67446 -1.54387e-16 
-5.97518 -3.67344 -1.81629e-16 
-5.67346 -3.67055 -2.14041e-16 
-5.37188 -3.67114 -2.61091e-16 
-5.07326 -3.66178 -3.15542e-16 
-4.76391 -3.66932 -3.79323e-16 
-4.44183 -3.67269 -4.50444e-16 
-4.1244 -3.64578 -6.21082e-16 
-3.79148 -3.66584 -7.74194e-16 
-3.44589 -3.64635 -9.28171e-16 
-3.10827 -3.64084 -1.16082e-15 
-2.76097 -3.66134 -1.38097e-15 
-2.42333 -3.65819 -1.45194e-15 
-2.11716 -3.66121 -1.435e-15 
-1.84919 -3.70582 -5.35481e-16 
-1.61061 -3.73438 2.26397e-16 
-1.38639 -3.76529 6.18052e-15 
-1.21999 -3.71561 -6.05538e-15 
-1.06359 -3.64779 -3.11101e-15 
-1.0692 -3.86974 3.5013e-15 
-0.450572 -3.9671 -2.61469e-17 
-0.0613686 -3.94506 1.72913e-17 
0.508314 -3.95902 2.18285e-14 
1.04893 -3.92676 -4.14129e-14 
1.00072 -3.65213 7.62851e-15 
1.17743 -3.69308 -3.01149e-15 
1.33648 -3.77816 -2.36737e-15 
1.58898 -3.72611 3.7384e-16 
1.8411 -3.70797 1.05074e-15 
2.14969 -3.69227 1.61434e-15 
2.45983 -3.65477 1.48882e-15 
2.81306 -3.65736 1.36943e-15 
3.18135 -3.67474 1.09091e-15 
3.54724 -3.63061 9.74081e-16 
3.87633 -3.64994 7.20169e-16 
4.20736 -3.65785 5.7598e-16 
4.5288 -3.65502 4.52127e-16 
4.85007 -3.68402 3.68433e-16 
5.15345 -3.67344 2.92066e-16 
5.46005 -3.68206 2.47453e-16 
5.75969 -3.6698 2.07825e-16 
6.06082 -3.66818 1.86526e-16 
6.34969 -3.64939 1.48773e-16 
6.65018 -3.6695 1.35804e-16 
6.94576 -3.65629 1.14351e-16 
7.24605 -3.66732 9.73436e-17 
7.546 -3.66512 7.85555e-17 
7.84735 -3.66465 6.74898e-17 
8.14207 -3.65275 5.39176e-17 
8.43887 -3.65587 4.34757e-17 
8.74009 -3.65801 2.92124e-17 
9.05923 -3.69147 1.13819e-17 
9.3842 -3.68116 -2.20649e-17 
9.6953 -3.64544 -8.07913e-17 
10.0323 -3.70578 -1.53629e-16 
10.3628 -3.65998 -2.43278e-16 
10.7253 -3.71743 -3.24757e-16 
11.0611 -3.6525 -3.37677e-16 
11.3631 -3.61518 -3.60197e-16 
11.7149 -3.7265 -3.20632e-16 
12 -3.60476 1.52534e-10 
-12 -3.32042 -7.19547e-11 
-11.634 -3.3745 1.49803e-16 
-11.2929 -3.29155 1.89584e-16 
-10.9776 -3.32514 2.63586e-16 
-10.661 -3.29368 3.23678e-16 
-10.3372 -3.3317 2.50724e-16 
-10.0108 -3.33072 1.63737e-16 
-9.69028 -3.35104 1.06169e-16 
-9.3763 -3.38115 4.07899e-17 
-9.07623 -3.32358 3.57349e-18 
-8.77669 -3.31429 -1.82611e-17 
-8.47078 -3.33292 -3.20649e-17 
-8.16752 -3.33256 -4.63462e-17 
-7.85331 -3.33234 -5.75005e-17 
-7.55068 -3.32933 -6.77612e-17 
-7.24283 -3.31623 -8.07622e-17 
-6.93715 -3.34739 -9.54491e-17 
-6.62784 -3.34373 -1.12659e-16 
-6.32325 -3.35087 -1.29644e-16 
-6.01877 -3.34617 -1.55336e-16 
-5.72055 -3.34318 -1.88248e-16 
-5.42133 -3.34278 -2.25469e-16 
-5.12419 -3.33143 -2.79491e-16 
-4.81841 -3.34208 -3.57937e-16 
-4.50553 -3.35018 -4.60895e-16 
-4.18523 -3.3141 -5.7204e-16 
-3.85356 -3.32571 -7.08822e-16 
-3.52312 -3.31533 -9.23648e-16 
-3.17358 -3.28923 -1.15205e-15 
-2.83447 -3.32258 -1.37877e-15 
-2.49809 -3.33011 -1.4059e-15 
-2.18581 -3.32885 -1.13774e-15 
-1.89888 -3.37323 -7.1934e-16 
-1.68932 -3.42681 1.18491e-15 
-1.46053 -3.51186 3.13414e-15 
-1.27248 -3.48339 7.79497e-15 
-1.04534 -3.47497 2.40023e-15 
-0.824385 -3.88941 1.22748e-14 
-0.632766 -3.8541 -1.71796e-14 
-0.241395 -3.89166 -5.58333e-15 
0.336709 -3.85172 -1.07174e-14 
0.891941 -3.86914 -2.51016e-14 
1.07905 -3.43561 -7.31969e-15 
1.28448 -3.45272 -3.65554e-15 
1.46164 -3.54053 1.85736e-16 
1.72272 -3.42633 -4.4532e-16 
1.97365 -3.41091 1.27842e-15 
2.23427 -3.33904 1.41807e-15 
2.54572 -3.33174 1.43814e-15 
2.87707 -3.32481 1.38423e-15 
3.22461 -3.34132 1.11843e-15 
3.55728 -3.28129 9.13537e-16 
3.88858 -3.30101 6.95398e-16 
4.21006 -3.32297 5.5129e-16 
4.51842 -3.31165 4.68278e-16 
4.81603 -3.36136 3.65331e-16 
5.11682 -3.34821 2.84613e-16 
5.41448 -3.36133 2.34213e-16 
5.71311 -3.34387 1.8754e-16 
6.01417 -3.34257 1.55045e-16 
6.31448 -3.30786 1.24993e-16 
6.61255 -3.33523 1.09969e-16 
6.91211 -3.31986 9.33808e-17 
7.21466 -3.33322 8.16045e-17 
7.51826 -3.33035 6.87849e-17 
7.82143 -3.33234 5.93217e-17 
8.1287 -3.31272 4.90119e-17 
8.43361 -3.31914 3.37656e-17 
8.7421 -3.32574 1.91136e-17 
9.05936 -3.37109 1.73382e-19 
9.37997 -3.34929 -4.32639e-17 
9.69379 -3.30342 -9.73099e-17 
10.0067 -3.38419 -1.5882e-16 
10.3083 -3.31026 -2.63717e-16 
10.6318 -3.40067 -3.34263e-16 
10.962 -3.33988 -3.13097e-16 
11.2915 -3.25725 -1.60891e-16 
11.6298 -3.37532 -1.46927e-16 
12 -3.30143 7.08311e-11 
-12 -2.98484 -2.4165e-11 
-11.6646 -3.05664 4.04137e-17 
-11.3198 -2.97335 -5.11367e-17 
-10.9705 -2.97318 3.05418e-17 
-10.631 -2.96641 1.25506e-16 
-10.2984 -2.99943 1.34079e-16 
-9.97105 -2.99733 8.48314e-17 
-9.65741 -2.99998 7.08162e-17 
-9.35876 -3.03641 4.46142e-17 
-9.05387 -2.97693 2.06442e-17 
-8.74274 -2.97756 1.06244e-17 
-8.43808 -2.99507 -4.82743e-18 
-8.12374 -3.00612 -2.10562e-17 
-7.82008 -2.99361 -2.71908e-17 
-7.51344 -2.99544 -2.71476e-17 
-7.21126 -2.97889 -2.3138e-17 
-6.91248 -3.02237 -3.65186e-17 
-6.60626 -3.01447 -3.82679e-17 
-6.30388 -3.02405 -5.13552e-17 
-6.00719 -3.01391 -6.17731e-17 
-5.70686 -3.01497 -7.47958e-17 
-5.4127 -3.00843 -9.00863e-17 
-5.1145 -2.99937 -1.15331e-16 
-4.81086 -3.01386 -1.60116e-16 
-4.49671 -3.01897 -2.47975e-16 
-4.17008 -2.98627 -3.09747e-16 
-3.84794 -2.98488 -3.72153e-16 
-3.49293 -2.9919 -5.23197e-16 
-3.14384 -2.96058 -5.85898e-16 
-2.80457 -2.99398 -8.54222e-16 
-2.50915 -2.97304 -5.5749e-16 
-2.23616 -3.00314 -1.03776e-16 
-1.9493 -3.0601 2.93931e-16 
-1.70821 -3.0427 -6.46745e-16 
-1.54444 -3.22825 3.63226e-17 
-1.34102 -3.23553 3.80464e-15 
-1.14444 -3.29084 5.04022e-15 
-0.69243 -3.72123 -1.40584e-14 
-0.427762 -3.83694 -1.00185e-14 
-0.024511 -3.81793 9.72742e-15 
0.612257 -3.72404 7.91491e-15 
0.689089 -3.83387 2.71048e-15 
1.10602 -3.23766 6.59368e-15 
1.30161 -3.20919 -2.1262e-15 
1.52488 -3.29871 -1.6359e-15 
1.67974 -3.08759 -1.46478e-15 
1.89742 -3.10607 1.94239e-16 
2.13748 -3.02029 1.11304e-16 
2.43293 -3.01864 7.83231e-16 
2.76218 -2.99502 8.37648e-16 
3.1148 -3.00673 8.19157e-16 
3.45028 -2.95422 5.01385e-16 
3.80269 -2.95802 4.0395e-16 
4.14414 -2.98242 3.06295e-16 
4.4705 -2.97932 2.04875e-16 
4.79758 -3.02073 1.75178e-16 
5.10039 -3.01828 1.34658e-16 
5.40371 -3.03253 1.02198e-16 
5.69925 -3.00973 7.2419e-17 
5.99589 -3.01566 5.7635e-17 
6.30026 -2.97857 4.16642e-17 
6.60204 -3.00008 3.82024e-17 
6.91202 -2.99615 3.12253e-17 
7.22379 -3.00018 2.78974e-17 
7.52438 -2.99446 2.52345e-17 
7.83367 -3.00183 2.48517e-17 
8.1357 -2.97417 1.53673e-17 
8.43771 -2.98633 5.0733e-18 
8.74756 -2.99328 -7.10299e-18 
9.05866 -3.04512 -1.65586e-17 
9.36987 -3.01372 -4.505e-17 
9.66801 -2.95499 -6.32741e-17 
9.986 -3.03397 -9.48567e-17 
10.3189 -2.9815 -1.20857e-16 
10.6499 -3.06564 -1.89786e-16 
10.9824 -3.00002 -3.42079e-17 
11.3327 -2.93375 1.08438e-16 
11.6627 -3.05913 -5.14857e-17 
12 -2.96909 1.67465e-11 
-12 -2.66634 3.74548e-12 
-11.6493 -2.7245 -6.17307e-17 
-11.3155 -2.63814 -2.34762e-16 
-10.9815 -2.6503 -9.94685e-17 
-10.6387 -2.63969 9.65458e-18 
-10.3004 -2.66834 2.9465e-17 
-9.9713 -2.6611 1.71776e-17 
-9.64543 -2.66635 4.01608e-17 
-9.32618 -2.68265 3.61945e-17 
-9.00531 -2.64409 2.42437e-17 
-8.69465 -2.64196 2.14623e-17 
-8.3811 -2.6722 9.92351e-18 
-8.07672 -2.66793 -2.10336e-18 
-7.76599 -2.66298 -6.64017e-18 
-7.46493 -2.65552 -3.23404e-18 
-7.1518 -2.65262 -1.98365e-14 
-6.85291 -2.69485 -2.63794e-18 
-6.54658 -2.68612 -2.96975e-18 
-6.25126 -2.68871 -5.59598e-18 
-5.94598 -2.68822 -5.2124e-18 
[...]
POINT_DATA 1978 
VECTORS vectors float
0.00269813 -0.00511542 0.999982 
0.00339379 -0.0332596 0.999441 
0.00328366 -0.0328113 0.999456 
0.00311731 -0.0220479 0.999752 
0.00310858 -0.0132756 0.999907 
0.00322107 -0.00616274 0.999975 
0.00345868 -0.00187667 0.999992 
0.00368353 0.000111726 0.999993 
0.00353825 0.000329608 0.999994 
0.00320042 0.000351175 0.999994 
0.00308439 0.000742604 0.999994 
0.00311077 0.00148154 0.999993 
0.00308355 0.00248541 0.999991 
0.00299134 0.00359017 0.999988 
0.00293817 0.00447852 0.999985 
0.00293628 0.00529544 0.999981 
0.00302645 0.0060479 0.999976 
0.00309053 0.00666126 0.999972 
0.00308381 0.00747582 0.999967 
0.00304785 0.00836153 0.99996 
0.00298547 0.00940886 0.999951 
0.00290566 0.010691 0.999938 
0.00283698 0.012474 0.999917 
0.00284307 0.0150321 0.999882 
0.00283367 0.018636 0.999822 
0.00288173 0.0238767 0.99971 
0.0029917 0.0310226 0.999514 
0.00308216 0.0423992 0.999096 
0.00299046 0.0588478 0.998262 
0.00275695 0.0817942 0.996645 
0.00236142 0.115558 0.993298 
0.00185134 0.161166 0.986925 
0.00125653 0.217303 0.976103 
0.0010096 0.288059 0.957612 
0.000361256 0.368382 0.929675 
-0.000570006 0.478263 0.878217 
0.000171259 0.537099 0.843519 
-0.0010144 0.67626 0.736662 
-0.000135944 0.836638 0.547756 
-0.00110038 0.995604 -0.0936577 
0.00124106 0.941891 -0.335917 
0.000707159 0.57285 -0.819661 
0.0002282 0.512995 -0.858392 
-0.000180459 0.43235 -0.901706 
-0.000541534 0.356689 -0.934223 
-0.00095796 0.273514 -0.961867 
-0.00142743 0.208302 -0.978063 
-0.00187481 0.153155 -0.9882 
-0.00234382 0.110775 -0.993842 
-0.0027055 0.0792252 -0.996853 
-0.00276214 0.0563955 -0.998404 
-0.00274757 0.0423663 -0.999098 
-0.00284949 0.0318708 -0.999487 
-0.00294352 0.0244663 -0.999696 
-0.00293181 0.0187908 -0.999818 
-0.00293723 0.015035 -0.999882 
-0.00294884 0.0124385 -0.999918 
-0.00296459 0.0106342 -0.999938 
-0.00295052 0.00927214 -0.999952 
-0.00291543 0.00826472 -0.999961 
-0.00288759 0.00744706 -0.999967 
-0.00290538 0.00677072 -0.999972 
-0.00293774 0.00610303 -0.999976 
-0.00299053 0.00538101 -0.99998 
-0.00302312 0.00457799 -0.999984 
-0.00303516 0.00363455 -0.999988 
-0.0029729 0.00258105 -0.999992 
-0.00290827 0.00158221 -0.999994 
-0.00299106 0.000813436 -0.999994 
-0.00325897 0.000430649 -0.999994 
-0.00337604 0.000502948 -0.999994 
-0.00332705 0.000277073 -0.999994 
-0.00335799 -0.00117305 -0.999993 
-0.00350358 -0.00539065 -0.999979 
-0.00365122 -0.0118999 -0.999923 
-0.00343385 -0.0229362 -0.999731 
-0.00322922 -0.0331295 -0.999445 
-0.00331092 -0.0333114 -0.999439 
-0.00266238 -0.00508406 -0.999983 
0.00229687 -0.00394037 0.999989 
0.0109441 -0.0243343 0.999644 
0.0160936 -0.0293811 0.999439 
0.0171163 -0.024576 0.999552 
0.0187162 -0.0160486 0.999696 
0.0191171 -0.00907267 0.999776 
0.0197712 -0.00414983 0.999796 
0.0194826 -0.0011964 0.99981 
0.0194657 0.000104482 0.999811 
0.0205924 0.000559658 0.999788 
0.0212723 0.000990086 0.999773 
0.0206315 0.00154185 0.999786 
0.0210014 0.00231641 0.999777 
0.0205798 0.00318607 0.999783 
0.0209454 0.00405745 0.999773 
0.0210749 0.00480751 0.999767 
0.020446 0.00552466 0.999776 
0.0206696 0.00630263 0.999767 
0.0207086 0.00717479 0.99976 
0.0208449 0.00812333 0.99975 
0.0208986 0.00925627 0.999739 
0.0206862 0.0107307 0.999729 
0.0204642 0.0127609 0.999709 
0.0194458 0.0158148 0.999686 
0.01839 0.0204007 0.999623 
0.018039 0.0267423 0.99948 
0.0159875 0.0362305 0.999216 
0.0144752 0.0505517 0.998617 
0.012538 0.0702514 0.997451 
0.0103318 0.0993423 0.995 
0.00854828 0.14051 0.990043 
0.00740401 0.193208 0.98113 
0.00671976 0.260344 0.965493 
0.00701706 0.335878 0.94188 
0.00826368 0.44799 0.894 
0.0155338 0.528534 0.84877 
0.0240203 0.568434 0.822378 
0.00735098 0.577917 0.816063 
0.000159017 0.918897 0.394499 
-0.00283885 0.998187 0.0601086 
-0.00119472 0.88283 -0.46969 
-0.000593564 0.621052 -0.78377 
-0.00730955 0.603594 -0.797259 
-0.00494149 0.524837 -0.851188 
-0.00288573 0.456559 -0.889689 
-0.00362791 0.344165 -0.938902 
-0.00519867 0.264522 -0.964366 
-0.00687741 0.192812 -0.981212 
-0.00857404 0.140901 -0.989987 
-0.0105101 0.0975747 -0.995173 
-0.0122285 0.0666492 -0.997702 
-0.0152341 0.0462617 -0.998813 
-0.0164761 0.0339012 -0.99929 
-0.0178839 0.0251613 -0.999524 
-0.0191326 0.0191154 -0.999634 
-0.0193752 0.0150171 -0.9997 
-0.0203944 0.0123236 -0.999716 
-0.0204898 0.0103358 -0.999737 
-0.0209936 0.00889433 -0.99974 
-0.0212072 0.00781128 -0.999745 
-0.0215466 0.00695761 -0.999744 
-0.0209949 0.00623807 -0.99976 
-0.0213847 0.00550991 -0.999756 
-0.0210217 0.00478177 -0.999768 
-0.021065 0.00399128 -0.99977 
-0.0211684 0.00313057 -0.999771 
-0.0214893 0.00231335 -0.999767 
-0.0216249 0.0016079 -0.999765 
-0.0215267 0.00105865 -0.999768 
-0.0203272 0.000627496 -0.999793 
-0.0203676 0.000161138 -0.999793 
-0.0209905 -0.00105553 -0.999779 
-0.0185885 -0.00350966 -0.999821 
-0.0189437 -0.00850865 -0.999785 
-0.0164613 -0.0162841 -0.999732 
-0.0174162 -0.0253066 -0.999528 
-0.0164139 -0.0293017 -0.999436 
-0.0104695 -0.0236996 -0.999664 
-0.00223941 -0.00399516 -0.999989 
0.00268267 -0.00430051 0.999987 
0.014601 -0.0243661 0.999597 
0.0200918 -0.0292922 0.999369 
0.0223741 -0.0243785 0.999453 
0.0238674 -0.01663 0.999577 
0.0250385 -0.00974187 0.999639 
0.0261986 -0.00495447 0.999645 
0.0269492 -0.00184378 0.999635 
0.0271085 -0.000147319 0.999633 
0.0276954 0.0007003 0.999616 
0.0274508 0.00130165 0.999622 
0.0271309 0.00176367 0.999631 
0.0270651 0.00226166 0.999631 
0.0268761 0.0028753 0.999635 
0.0268433 0.00356776 0.999633 
0.0268539 0.00428856 0.99963 
0.0269697 0.00510666 0.999623 
0.0270318 0.00590619 0.999617 
0.027027 0.00678619 0.999612 
0.0270477 0.0077743 0.999604 
0.0269879 0.00897964 0.999596 
0.0267059 0.010572 0.999588 
0.0262159 0.0127073 0.999576 
0.0254885 0.0157807 0.999551 
0.0243333 0.0201877 0.9995 
0.0226259 0.0265678 0.999391 
0.020354 0.0359266 0.999147 
0.017832 0.0490296 0.998638 
0.0144461 0.0682287 0.997565 
0.0114062 0.0946482 0.995446 
0.00799423 0.132007 0.991217 
0.00557631 0.182251 0.983236 
0.00623655 0.243726 0.969824 
0.00798305 0.314343 0.949276 
0.0115941 0.383264 0.923566 
0.0194851 0.466233 0.884447 
0.0357451 0.542254 0.839454 
0.00968273 0.678735 0.734318 
0.0126282 0.813469 0.581471 
-0.00167313 0.979486 0.201505 
-0.00803917 0.944764 -0.327653 
-0.00160561 0.67535 -0.737496 
-0.010303 0.561514 -0.827403 
-0.00535607 0.461532 -0.887108 
-0.00390775 0.38895 -0.921251 
-0.0038436 0.303678 -0.952767 
-0.00526982 0.236654 -0.97158 
-0.00570302 0.18381 -0.982945 
-0.00881203 0.133892 -0.990957 
-0.0121399 0.0956896 -0.995337 
-0.015363 0.0670444 -0.997632 
-0.018205 0.0489852 -0.998634 
-0.0205095 0.0353538 -0.999165 
-0.0225701 0.0261364 -0.999404 
-0.024708 0.0203101 -0.999489 
-0.0257697 0.0160216 -0.99954 
-0.0264877 0.0129592 -0.999565 
-0.0269072 0.0107469 -0.99958 
-0.0269419 0.00905357 -0.999596 
-0.0271317 0.0078366 -0.999601 
-0.0269714 0.00677714 -0.999613 
-0.0271148 0.0059944 -0.999614 
-0.0270671 0.00517991 -0.99962 
-0.0271952 0.00446767 -0.99962 
-0.0271381 0.00371031 -0.999625 
-0.0271001 0.00299215 -0.999628 
-0.0271425 0.00235837 -0.999629 
-0.0273377 0.00188371 -0.999625 
-0.02744 0.00141141 -0.999622 
-0.0273548 0.000799325 -0.999626 
-0.0273609 -0.000112815 -0.999626 
-0.0271748 -0.00198178 -0.999629 
-0.0259175 -0.0046856 -0.999653 
-0.0255178 -0.00935135 -0.999631 
-0.0237255 -0.0154577 -0.999599 
-0.0224622 -0.023795 -0.999465 
-0.0199016 -0.0292717 -0.999374 
-0.0146851 -0.0245692 -0.99959 
-0.00267482 -0.00443192 -0.999986 
0.00196166 -0.00447283 0.999988 
0.0123568 -0.0237235 0.999642 
0.0166053 -0.0303862 0.9994 
0.0189229 -0.0255621 0.999494 
0.0205856 -0.0175734 0.999634 
0.0224016 -0.010684 0.999692 
0.023379 -0.00584293 0.99971 
0.0241639 -0.00234073 0.999705 
0.0249027 -0.000223215 0.99969 
0.0237939 0.00103703 0.999717 
0.0235135 0.00177438 0.999722 
0.0235758 0.00212472 0.99972 
0.0236089 0.00239279 0.999719 
0.0232528 0.0027863 0.999726 
0.0232242 0.00338976 0.999725 
0.0229689 0.00410693 0.999728 
0.0237096 0.00487954 0.999707 
0.0234851 0.00571519 0.999708 
0.0236166 0.00664771 0.999699 
0.0233534 0.00773367 0.999698 
0.0232185 0.00914011 0.999689 
0.022819 0.0109516 0.99968 
0.0222846 0.0134385 0.999661 
0.0217176 0.0166916 0.999625 
0.0206547 0.0212332 0.999561 
0.018414 0.0283481 0.999429 
0.0159529 0.0381288 0.999146 
0.0129391 0.0531121 0.998505 
0.00820618 0.0741613 0.997213 
0.00444347 0.102223 0.994752 
-0.000821666 0.137405 0.990515 
-0.00372647 0.179389 0.983771 
-0.00327496 0.237608 0.971356 
-0.00139114 0.293112 0.956077 
0.00672281 0.360181 0.932859 
0.0140322 0.413566 0.910366 
0.0261237 0.48851 0.872167 
0.0255241 0.803237 0.595112 
0.00600218 0.931469 0.363769 
-0.00645418 0.999655 0.0254697 
-0.00891154 0.813529 -0.581456 
-0.00317903 0.744009 -0.668162 
-0.0131848 0.540874 -0.841 
-0.0045874 0.444479 -0.895778 
-0.00194015 0.36743 -0.930049 
0.00423997 0.322156 -0.946677 
0.00269991 0.259172 -0.965828 
0.00371335 0.205269 -0.978699 
-0.000718929 0.153476 -0.988152 
-0.00480902 0.110846 -0.993826 
-0.00978754 0.0781054 -0.996897 
-0.0122361 0.0568806 -0.998306 
-0.015453 0.0406828 -0.999053 
-0.018231 0.0295854 -0.999396 
-0.0199264 0.022335 -0.999552 
-0.0218645 0.0169423 -0.999618 
-0.0226941 0.013543 -0.999651 
-0.0232801 0.0109899 -0.999669 
-0.0231754 0.00924945 -0.999689 
-0.0232569 0.00780284 -0.999699 
-0.0228288 0.0066856 -0.999717 
-0.023154 0.00572238 -0.999716 
-0.0232801 0.00489594 -0.999717 
-0.0232717 0.00408985 -0.999721 
-0.0232392 0.00339588 -0.999724 
-0.0234286 0.00280348 -0.999722 
-0.0230708 0.00241181 -0.999731 
-0.0235192 0.00213927 -0.999721 
-0.0238794 0.00175999 -0.999714 
-0.0250597 0.00102049 -0.999686 
-0.0244707 -0.000204254 -0.999701 
-0.0232327 -0.00242766 -0.999727 
-0.0238958 -0.00582415 -0.999698 
-0.0220597 -0.0110678 -0.999696 
-0.0220427 -0.0174862 -0.999604 
-0.0194133 -0.0258075 -0.999479 
-0.0158308 -0.0305432 -0.999408 
-0.0124731 -0.023774 -0.99964 
-0.00182946 -0.0044363 -0.999989 
0.00109463 -0.00476439 0.999989 
0.00884677 -0.0247581 0.999655 
0.0115104 -0.0325463 0.999404 
0.0136367 -0.0275734 0.999527 
0.014855 -0.0192058 0.999705 
0.0165163 -0.0121259 0.99979 
0.0172328 -0.00683691 0.999828 
0.0176254 -0.00264681 0.999841 
0.0179191 -4.38614e-05 0.99984 
0.017065 0.00148176 0.999853 
0.0167937 0.00221421 0.999857 
0.0171463 0.00241344 0.99985 
0.0168837 0.00249511 0.999855 
0.016709 0.00276957 0.999857 
0.0165226 0.00330716 0.999858 
0.016462 0.00404522 0.999856 
0.0172693 0.00484175 0.999839 
0.0169646 0.00574024 0.99984 
0.016914 0.00676464 0.999834 
0.016692 0.00806838 0.999828 
0.0163123 0.00969655 0.99982 
0.0158261 0.0118329 0.999805 
0.0152979 0.0148287 0.999773 
0.0147217 0.0188685 0.999714 
0.0132925 0.0244474 0.999613 
0.0106456 0.0325486 0.999414 
0.00856136 0.044221 0.998985 
0.00453176 0.0603575 0.998167 
-0.0013587 0.0835693 0.996501 
-0.00683848 0.110555 0.993847 
-0.0136259 0.144817 0.989365 
-0.0192314 0.184268 0.982688 
-0.0194722 0.229747 0.973056 
-0.0225632 0.283279 0.958772 
-0.0165007 0.341339 0.939796 
0.00133487 0.375454 0.92684 
0.0207102 0.476073 0.879162 
0.0200247 0.669637 0.742418 
0.0194359 0.900391 0.434647 
-0.00611343 0.991494 -0.130007 
-0.0154934 0.885953 -0.463516 
-0.0084784 0.740644 -0.671843 
-0.0104668 0.470506 -0.882335 
0.00273837 0.388505 -0.921443 
0.0192285 0.338815 -0.940657 
0.0162705 0.279266 -0.960076 
0.0190598 0.238316 -0.971001 
0.0136014 0.184676 -0.982705 
0.00806071 0.142543 -0.989756 
0.00251388 0.10519 -0.994449 
-0.00200588 0.0780768 -0.996946 
-0.00542581 0.0567464 -0.998374 
-0.00900528 0.0412158 -0.99911 
-0.0116983 0.0303934 -0.99947 
-0.0137402 0.0225385 -0.999652 
-0.0151552 0.0174491 -0.999733 
-0.0159135 0.0138046 -0.999778 
-0.016434 0.0112192 -0.999802 
-0.0163588 0.00924456 -0.999824 
-0.0167895 0.00767451 -0.99983 
-0.0161036 0.00643878 -0.99985 
-0.0167529 0.0054385 -0.999845 
-0.0168231 0.00454759 -0.999848 
-0.0166045 0.00377608 -0.999855 
-0.0167674 0.00309466 -0.999855 
-0.0166131 0.00263618 -0.999859 
-0.0162683 0.00243934 -0.999865 
-0.0169104 0.00236747 -0.999854 
-0.0169995 0.00213292 -0.999853 
-0.0184816 0.00132607 -0.999829 
-0.0176041 -5.52791e-05 -0.999845 
-0.0168751 -0.00283727 -0.999854 
-0.0179208 -0.00700616 -0.999815 
-0.0161029 -0.012592 -0.999791 
-0.0164265 -0.0191162 -0.999683 
-0.0139752 -0.0276977 -0.999519 
-0.0108363 -0.0319659 -0.99943 
-0.00847209 -0.02393 -0.999678 
-0.00127414 -0.00449731 -0.999989 
0.000794813 -0.00484843 0.999989 
0.0048174 -0.0228049 0.999728 
0.00692214 -0.0326655 0.999443 
0.00851077 -0.0308744 0.999487 
0.00970658 -0.0230598 0.999687 
0.0108649 -0.0152388 0.999825 
0.0115204 -0.00923403 0.999891 
0.0117437 -0.00412427 0.999923 
0.0117484 -0.000613915 0.999931 
0.0113878 0.00131797 0.999934 
0.0107932 0.00235427 0.999939 
0.0110027 0.00258251 0.999936 
0.0108798 0.00250718 0.999938 
0.010904 0.00257382 0.999937 
0.0105924 0.00297446 0.99994 
0.0108068 0.00364983 0.999935 
0.011014 0.00448878 0.999929 
0.0112085 0.00535247 0.999923 
0.0108414 0.00641752 0.999921 
0.0108928 0.00768239 0.999911 
0.0103658 0.00931163 0.999903 
0.00984259 0.0114132 0.999887 
0.00949778 0.0142672 0.999853 
0.00884766 0.0182628 0.999794 
0.00765354 0.0236081 0.999692 
0.00533829 0.031062 0.999503 
0.00320599 0.0418039 0.999121 
-0.000278614 0.0557046 0.998447 
-0.00550379 0.0751283 0.997159 
-0.0135238 0.100903 0.994804 
-0.0207925 0.129912 0.991308 
-0.0302313 0.166948 0.985502 
-0.0404734 0.208919 0.977095 
-0.0422018 0.249299 0.967507 
-0.0530826 0.302266 0.951745 
-0.0459282 0.343143 0.93816 
-0.0295439 0.40557 0.913586 
0.0350372 0.654751 0.755032 
-0.000188741 0.984483 0.175478 
-0.011403 0.978617 -0.205375 
-0.0202733 0.940918 -0.338024 
-0.0154611 0.709192 -0.704846 
0.0143918 0.403937 -0.914674 
0.0448141 0.378603 -0.924474 
0.0398171 0.322739 -0.94565 
0.0416773 0.282948 -0.95823 
0.0322988 0.228539 -0.972999 
0.0276789 0.187098 -0.981951 
0.0186858 0.1459 -0.989123 
0.0124462 0.113577 -0.993451 
0.00624034 0.0849229 -0.996368 
0.00199874 0.0637587 -0.997964 
-0.00224952 0.0464629 -0.998918 
-0.00530646 0.0340694 -0.999406 
-0.00754969 0.0252639 -0.999653 
-0.00872011 0.0191674 -0.999778 
-0.00968227 0.0149931 -0.999841 
-0.0100955 0.0119627 -0.999878 
-0.0103386 0.00977684 -0.999899 
-0.0108525 0.00799788 -0.999909 
-0.0104534 0.00666174 -0.999923 
-0.0107906 0.00549356 -0.999927 
-0.0111089 0.00457916 -0.999928 
-0.0106149 0.00373492 -0.999937 
-0.0109316 0.00304969 -0.999936 
-0.0105488 0.00256857 -0.999941 
-0.0102352 0.00243628 -0.999945 
-0.0106917 0.00254236 -0.99994 
-0.010652 0.00245496 -0.99994 
-0.0117747 0.00166845 -0.999929 
-0.0116841 -6.61504e-05 -0.999932 
-0.0109341 -0.0030185 -0.999936 
-0.0121831 -0.00755775 -0.999897 
-0.0109399 -0.0136808 -0.999847 
-0.0112007 -0.0206769 -0.999724 
-0.00922774 -0.0293263 -0.999527 
-0.00679734 -0.0333827 -0.99942 
-0.00549611 -0.0254681 -0.999661 
-0.000869774 -0.00451039 -0.999989 
0.000563083 -0.00458879 0.999989 
0.00314295 -0.0262082 0.999652 
0.00455918 -0.0346175 0.99939 
0.00535548 -0.0300024 0.999536 
0.00625141 -0.0213383 0.999753 
0.00658083 -0.0139712 0.999881 
0.00691465 -0.00780939 0.999946 
0.00679967 -0.00279296 0.999973 
0.00633478 0.000364003 0.99998 
0.00606428 0.00206654 0.99998 
0.00572658 0.00272391 0.99998 
0.00560008 0.00263886 0.999981 
0.00573317 0.00244145 0.999981 
0.00569345 0.00256312 0.999981 
0.00567898 0.00309 0.999979 
0.00602606 0.00386488 0.999975 
0.00581446 0.00471717 0.999972 
0.00602937 0.00567191 0.999966 
0.0057121 0.00687528 0.99996 
0.00565486 0.00831597 0.99995 
0.00507153 0.0102499 0.999935 
0.00460304 0.0128446 0.999907 
0.00411745 0.0164163 0.999857 
0.0031596 0.0214102 0.999766 
0.00149734 0.0282197 0.999601 
-0.00070288 0.0386424 0.999253 
-0.00413337 0.0519402 0.998642 
-0.00865575 0.0695304 0.997542 
-0.0160054 0.0929798 0.99554 
-0.0262676 0.12395 0.991941 
-0.0367818 0.15694 0.986923 
-0.051218 0.199206 0.978618 
-0.0682729 0.246962 0.966617 
-0.0699623 0.277083 0.958296 
-0.088396 0.338782 0.936703 
-0.0874122 0.377685 0.921799 
-0.00444467 0.41784 0.90851 
0.0467855 0.589217 0.806619 
0.043671 0.808541 0.586817 
-0.00769878 0.997998 -0.0627695 
-0.0207588 0.686845 -0.726507 
-0.0235636 0.636328 -0.771058 
0.0330922 0.438263 -0.898238 
0.0716657 0.377878 -0.923078 
0.0684929 0.338307 -0.93854 
0.0604305 0.287296 -0.955934 
0.0520731 0.244613 -0.968222 
0.0424898 0.201639 -0.978538 
0.030711 0.158471 -0.986886 
0.0205232 0.121149 -0.992422 
0.0126995 0.0900984 -0.995852 
0.00699712 0.0661157 -0.997788 
0.00255858 0.0482317 -0.998833 
-0.000526789 0.0352949 -0.999377 
-0.00259024 0.0261461 -0.999655 
-0.00345478 0.019986 -0.999794 
-0.004492 0.0154385 -0.999871 
-0.00482241 0.0122863 -0.999913 
-0.00544258 0.00981703 -0.999937 
-0.00564663 0.00804534 -0.999952 
-0.00582794 0.0065089 -0.999962 
-0.0057547 0.00536926 -0.999969 
-0.00611871 0.00440445 -0.999972 
-0.00560796 0.00354186 -0.999978 
-0.00582628 0.00285837 -0.999979 
-0.0052731 0.00242858 -0.999983 
-0.00513212 0.00240104 -0.999984 
-0.00531104 0.0026403 -0.999983 
-0.0053159 0.00267934 -0.999982 
-0.00649136 0.00191433 -0.999977 
-0.00629207 0.000237919 -0.99998 
-0.0062776 -0.00321507 -0.999975 
-0.00736116 -0.0084603 -0.999937 
-0.00662811 -0.0150407 -0.999865 
-0.00710909 -0.0223354 -0.999725 
-0.00556763 -0.0305503 -0.999518 
-0.00401187 -0.0344165 -0.9994 
-0.00327212 -0.025732 -0.999664 
-0.000527816 -0.00440878 -0.99999 
0.000183202 -0.00439174 0.99999 
0.00160631 -0.0260523 0.999659 
0.00238306 -0.0349762 0.999385 
0.00273968 -0.0317782 0.999491 
0.00308979 -0.0230248 0.99973 
0.00300916 -0.0150874 0.999882 
0.00305679 -0.00861331 0.999958 
0.00284327 -0.00326917 0.999991 
0.00228601 0.000335834 0.999998 
0.00198011 0.00222189 0.999996 
0.00191971 0.00283434 0.999994 
0.00159152 0.00264613 0.999995 
0.00180216 0.0023486 0.999996 
0.00178752 0.00239528 0.999996 
0.00197687 0.00287602 0.999994 
0.00219049 0.00366487 0.999991 
0.00203673 0.00455048 0.999988 
0.00208848 0.00556649 0.999983 
0.00203873 0.00674615 0.999975 
0.00175865 0.00826849 0.999964 
0.00145368 0.0101038 0.999948 
0.000976801 0.0126902 0.999919 
0.000416718 0.0162926 0.999867 
-0.000480876 0.0213647 0.999772 
-0.0020203 0.0284393 0.999594 
-0.00374518 0.0384065 0.999255 
-0.00754053 0.0531062 0.998561 
-0.0123467 0.0721805 0.997315 
-0.0202324 0.0980806 0.994973 
-0.0310495 0.130672 0.990939 
-0.0449957 0.168964 0.984595 
-0.0606629 0.208299 0.976182 
-0.0822531 0.257809 0.962688 
-0.108438 0.312544 0.943693 
-0.107058 0.332153 0.93713 
-0.133058 0.408035 0.903218 
-0.054951 0.417551 0.90699 
0.0253452 0.495459 0.868261 
0.0683916 0.687623 0.72284 
0.00750271 0.977792 0.209447 
-0.0328311 0.843103 -0.536752 
-0.023611 0.514973 -0.856881 
0.0786753 0.423688 -0.902385 
0.10896 0.40407 -0.908216 
0.0906235 0.345219 -0.934137 
0.08199 0.301243 -0.950016 
0.067137 0.255037 -0.964598 
0.0519418 0.209485 -0.976431 
0.0393602 0.170842 -0.984512 
0.027625 0.133214 -0.990703 
0.0187327 0.101563 -0.994653 
0.0119275 0.0751584 -0.9971 
0.00697538 0.0542705 -0.998502 
0.00368231 0.0395197 -0.999212 
0.00150445 0.0290396 -0.999577 
0.00052119 0.0216987 -0.999765 
-0.000503422 0.0166923 -0.999861 
-0.000924472 0.0130964 -0.999914 
-0.0016441 0.010514 -0.999944 
-0.00176601 0.00847823 -0.999963 
-0.00226731 0.00692964 -0.999974 
-0.00201894 0.00560514 -0.999982 
-0.00228508 0.00458026 -0.999987 
-0.00205277 0.00367161 -0.999991 
-0.00197924 0.002864 -0.999994 
-0.0015862 0.00236022 -0.999996 
-0.00145702 0.00228267 -0.999997 
-0.00142868 0.00261651 -0.999996 
-0.00143062 0.00281858 -0.999995 
-0.00202144 0.00218326 -0.999996 
-0.00241137 0.000207128 -0.999997 
-0.00234307 -0.00336699 -0.999992 
-0.00351813 -0.00856183 -0.999957 
-0.00301567 -0.0147555 -0.999887 
-0.00374446 -0.0223342 -0.999744 
-0.00296882 -0.0309125 -0.999518 
-0.00219643 -0.0351946 -0.999378 
-0.00179112 -0.0260214 -0.99966 
-0.000287241 -0.0044033 -0.99999 