# vtk DataFile Version 3.0 
Exported using Morpho https://github.com/Morpho-lang/morpho 
ASCII 
DATASET UNSTRUCTURED_GRID 

POINTS 1978 float 
-12 -4 3.60721e-14 
-11.5979 -4 1.11382e-12 
-11.2915 -4 1.13962e-12 
-10.9559 -4 8.29563e-13 
-10.6461 -4 4.89386e-13 
-10.3207 -4 2.48862e-13 
-9.99929 -4 7.10882e-14 
-9.65809 -4 -1.03605e-14 
-9.30287 -4 -1.71203e-14 
-8.98841 -4 -1.26829e-14 
-8.68989 -4 -3.14388e-14 
-8.376 -4 -6.23958e-14 
-8.0775 -4 -1.06697e-13 
-7.77032 -4 -1.54437e-13 
-7.47689 -4 -1.8138e-13 
-7.19014 -4 -2.22568e-13 
-6.88648 -4 -2.66019e-13 
-6.58645 -4 -2.91031e-13 
-6.28312 -4 -3.33029e-13 
-5.97897 -4 -3.69e-13 
-5.68012 -4 -4.031e-13 
-5.38672 -4 -4.47265e-13 
-5.09432 -4 -4.88798e-13 
-4.81114 -4 -5.67558e-13 
-4.52013 -4 -7.04821e-13 
-4.21514 -4 -8.19288e-13 
-3.92136 -4 -1.03534e-12 
-3.59055 -4 -1.32263e-12 
-3.25867 -4 -1.49712e-12 
-2.93042 -4 -1.71874e-12 
-2.59517 -4 -1.85795e-12 
-2.28542 -4 -1.69542e-12 
-2.00705 -4 -1.61171e-12 
-1.74642 -4 -1.5261e-12 
-1.50191 -4 -4.83882e-13 
-1.29739 -4 1.77469e-12 
-1.16512 -4 -1.70807e-12 
-0.904673 -4 1.8633e-11 
-0.635863 -4 -3.45045e-11 
0.117717 -4 5.24239e-11 
0.309771 -4 -7.87373e-11 
1.07006 -4 9.32531e-11 
1.1861 -4 -9.6667e-12 
1.3649 -4 2.61478e-12 
1.56271 -4 -1.78711e-12 
1.80825 -4 1.214e-12 
2.06766 -4 1.46449e-12 
2.36216 -4 1.70448e-12 
2.66293 -4 1.69111e-12 
2.98213 -4 1.72605e-12 
3.3213 -4 1.41593e-12 
3.61125 -4 1.1119e-12 
3.91817 -4 1.01332e-12 
4.22563 -4 8.66971e-13 
4.52893 -4 6.90916e-13 
4.82091 -4 6.14711e-13 
5.12493 -4 5.25005e-13 
5.41469 -4 4.57167e-13 
5.71372 -4 4.00333e-13 
6.00555 -4 3.54065e-13 
6.2988 -4 3.04471e-13 
6.58113 -4 2.84594e-13 
6.88076 -4 2.60686e-13 
7.17058 -4 2.29101e-13 
7.47128 -4 2.00454e-13 
7.77154 -4 1.5908e-13 
8.07262 -4 1.09539e-13 
8.36479 -4 6.43601e-14 
8.65614 -4 3.10073e-14 
8.95162 -4 1.69228e-14 
9.28277 -4 2.68886e-14 
9.61012 -4 2.13881e-14 
9.90902 -4 -5.95384e-14 
10.2705 -4 -2.26113e-13 
10.5886 -4 -5.73885e-13 
10.977 -4 -9.50068e-13 
11.2969 -4 -1.06071e-12 
11.5879 -4 -1.09312e-12 
12 -4 -7.01933e-14 
-12 -3.62594 2.96742e-15 
-11.7008 -3.71737 1.70584e-15 
-11.3499 -3.63464 1.48504e-15 
-11.0346 -3.66929 1.58973e-15 
-10.7058 -3.64454 1.29415e-15 
-10.3918 -3.66452 9.51957e-16 
-10.0614 -3.66209 5.3881e-16 
-9.73263 -3.67751 2.57771e-16 
-9.39736 -3.70164 -3.20652e-14 
-9.05641 -3.66825 1.38265e-14 
-8.74345 -3.65298 4.43806e-14 
-8.4361 -3.6733 -1.52475e-16 
-8.12039 -3.65913 -1.94269e-16 
-7.81471 -3.67036 -2.4865e-16 
-7.5041 -3.65827 -2.82927e-16 
-7.20387 -3.6561 -3.55153e-16 
-6.89934 -3.67498 -4.46684e-16 
-6.58936 -3.67168 -5.05246e-16 
-6.28062 -3.67419 -5.74745e-16 
-5.97526 -3.67332 -6.72389e-16 
-5.67317 -3.67038 -7.79571e-16 
-5.37115 -3.67093 -9.41779e-16 
-5.07217 -3.66145 -1.11332e-15 
-4.76313 -3.66895 -1.35886e-15 
-4.44157 -3.6724 -1.6592e-15 
-4.12439 -3.64605 -2.22966e-15 
-3.79154 -3.66615 -2.95502e-15 
-3.44577 -3.64653 -3.53777e-15 
-3.10707 -3.64087 -4.3742e-15 
-2.75844 -3.66196 -5.40911e-15 
-2.42066 -3.66014 -5.59609e-15 
-2.117 -3.65828 -4.92791e-15 
-1.85765 -3.71023 -2.42272e-15 
-1.61435 -3.72916 2.4927e-15 
-1.39218 -3.76375 1.22558e-14 
-1.22362 -3.71211 -1.22572e-14 
-1.06594 -3.64901 -2.74942e-15 
-1.06934 -3.87161 9.38227e-15 
-0.454572 -3.9648 2.59018e-13 
-0.0626852 -3.94594 -2.61913e-13 
0.518439 -3.96385 2.6273e-13 
1.06277 -3.8287 1.51716e-14 
1.00621 -3.61851 -1.72431e-14 
1.21167 -3.64156 -1.06537e-14 
1.33289 -3.79116 4.51937e-15 
1.58444 -3.74669 -2.38507e-15 
1.84287 -3.70632 3.64349e-15 
2.14929 -3.69179 5.98397e-15 
2.45916 -3.65583 5.61887e-15 
2.81057 -3.65814 5.39939e-15 
3.17888 -3.67423 4.36371e-15 
3.54387 -3.63185 3.6235e-15 
3.87328 -3.65003 2.64471e-15 
4.20481 -3.65782 2.14649e-15 
4.53269 -3.66299 1.59914e-15 
4.84429 -3.67899 1.35112e-15 
5.15238 -3.67297 1.06114e-15 
5.45985 -3.68211 9.10037e-16 
5.75917 -3.66971 7.49769e-16 
6.0604 -3.66862 6.776e-16 
6.3491 -3.64935 5.28448e-16 
6.64961 -3.66956 5.02122e-16 
6.94516 -3.65621 4.16301e-16 
7.24546 -3.66723 3.63744e-16 
7.54548 -3.66501 2.94821e-16 
7.84694 -3.66448 2.5058e-16 
8.14211 -3.65274 1.898e-16 
8.43913 -3.65609 1.54134e-16 
8.74043 -3.65829 -4.41938e-14 
9.05974 -3.69133 -2.00628e-14 
9.38481 -3.68116 2.71246e-14 
9.69564 -3.64531 -2.60564e-16 
10.0326 -3.70576 -5.52667e-16 
10.363 -3.66001 -8.97146e-16 
10.7254 -3.71739 -1.44148e-15 
11.0612 -3.65255 -1.46632e-15 
11.3633 -3.61515 -1.47197e-15 
11.715 -3.72649 -1.68933e-15 
12 -3.60476 -7.02486e-15 
-12 -3.32041 7.36082e-14 
-11.6339 -3.37443 5.49479e-16 
-11.2927 -3.29115 5.71531e-16 
-10.9775 -3.32491 7.88535e-16 
-10.6613 -3.29331 9.65904e-16 
-10.3384 -3.3322 7.68703e-16 
-10.0127 -3.33032 5.41978e-16 
-9.69003 -3.35087 3.11301e-16 
-9.37535 -3.3795 1.18869e-16 
-9.07453 -3.32316 -9.47042e-16 
-8.7756 -3.3146 2.32011e-14 
-8.4699 -3.333 4.1402e-14 
-8.16688 -3.33255 -1.39734e-16 
-7.85285 -3.33227 -1.73466e-16 
-7.55033 -3.329 -2.0324e-16 
-7.24244 -3.31698 -2.45495e-16 
-6.93708 -3.34689 -2.8521e-16 
-6.62857 -3.3439 -3.3887e-16 
-6.32373 -3.35043 -3.90574e-16 
-6.01922 -3.34607 -4.69076e-16 
-5.72076 -3.343 -5.67737e-16 
-5.42116 -3.3425 -6.79915e-16 
-5.12376 -3.33133 -8.41906e-16 
-4.8178 -3.34158 -1.08474e-15 
-4.50496 -3.34939 -1.37876e-15 
-4.18514 -3.31405 -1.71006e-15 
-3.8536 -3.32622 -2.11233e-15 
-3.52264 -3.3159 -2.78449e-15 
-3.1721 -3.29038 -3.53949e-15 
-2.83194 -3.32336 -4.28057e-15 
-2.49628 -3.33191 -4.32672e-15 
-2.18518 -3.32834 -2.91008e-15 
-1.89902 -3.36874 -3.69607e-15 
-1.69792 -3.43199 3.76399e-15 
-1.46142 -3.50541 1.17112e-14 
-1.27531 -3.47906 1.98396e-14 
-1.03916 -3.48212 1.00429e-14 
-0.81732 -3.89121 3.2728e-14 
-0.625768 -3.85086 -4.4017e-14 
-0.243959 -3.89137 -1.24126e-14 
0.340706 -3.86605 -6.04279e-15 
0.883867 -3.93451 -1.52397e-13 
1.06336 -3.43891 -1.28072e-15 
1.28151 -3.44782 -6.22655e-16 
1.47363 -3.55025 -9.60172e-15 
1.71768 -3.42785 -1.13096e-15 
1.97149 -3.40752 4.35687e-15 
2.2364 -3.34362 3.63012e-15 
2.54671 -3.33179 4.22563e-15 
2.87843 -3.32626 3.9692e-15 
3.22509 -3.34005 3.29196e-15 
3.55679 -3.2816 2.66982e-15 
3.88671 -3.30134 2.10314e-15 
4.20845 -3.32275 1.67262e-15 
4.51776 -3.31141 1.42541e-15 
4.81638 -3.3592 1.10389e-15 
5.11839 -3.34755 8.44331e-16 
5.41608 -3.36106 6.95792e-16 
5.71432 -3.34335 5.59512e-16 
6.01498 -3.343 4.65857e-16 
6.31497 -3.30771 3.75061e-16 
6.61276 -3.33531 3.31115e-16 
6.9122 -3.3197 2.81159e-16 
7.21465 -3.33306 2.45663e-16 
7.51821 -3.33021 2.07396e-16 
7.82151 -3.33203 1.78347e-16 
8.12899 -3.31313 1.49052e-16 
8.43411 -3.31912 -4.30081e-14 
8.7425 -3.32576 -2.3616e-14 
9.05918 -3.37094 2.94384e-16 
9.37908 -3.34889 -1.26599e-16 
9.69349 -3.30378 -2.90085e-16 
10.0068 -3.38409 -4.80128e-16 
10.3084 -3.31039 -7.9539e-16 
10.632 -3.4005 -1.00962e-15 
10.962 -3.3399 -9.45679e-16 
11.2915 -3.25728 -4.86301e-16 
11.6299 -3.3752 -5.24799e-16 
12 -3.30143 -6.75789e-14 
-12 -2.98484 8.71704e-14 
-11.6646 -3.05677 2.45174e-16 
-11.3199 -2.97295 -1.50939e-16 
-10.9707 -2.97281 -4.11255e-14 
-10.6313 -2.96608 3.81191e-16 
-10.299 -2.99886 4.18736e-16 
-9.97088 -2.99834 2.24722e-16 
-9.65786 -3.0001 2.17797e-16 
-9.35894 -3.03545 1.37745e-16 
-9.0541 -2.97637 -2.69772e-14 
-8.74291 -2.97791 -1.43184e-14 
-8.43831 -2.99484 6.37627e-15 
-8.12384 -3.00598 2.69784e-14 
-7.82015 -2.99348 3.48752e-14 
-7.51331 -2.99545 3.50597e-14 
-7.21138 -2.97953 2.86864e-14 
-6.91274 -3.02112 4.80797e-14 
-6.60656 -3.01488 4.81474e-14 
-6.30424 -3.02368 -1.55379e-16 
-6.00757 -3.01385 -1.85212e-16 
-5.70706 -3.01479 -2.2519e-16 
-5.41276 -3.00804 -2.73094e-16 
-5.11404 -2.99933 -3.47771e-16 
-4.8101 -3.01343 -4.76677e-16 
-4.49571 -3.0182 -7.76203e-16 
-4.1688 -2.98603 -9.61807e-16 
-3.8466 -2.98533 -1.13615e-15 
-3.49208 -2.99235 -1.58078e-15 
-3.14328 -2.96185 -1.72133e-15 
-2.80377 -2.99504 -2.56526e-15 
-2.5096 -2.97316 -1.61689e-15 
-2.23698 -3.00446 -6.65371e-16 
-1.94675 -3.06017 2.76427e-15 
-1.70438 -3.03815 -7.28806e-15 
-1.54642 -3.23819 5.90506e-15 
-1.33676 -3.22397 4.62636e-15 
-1.1425 -3.29974 9.89896e-15 
-0.696371 -3.72543 -2.35212e-14 
-0.423942 -3.83559 -3.27726e-14 
-0.029922 -3.81972 3.22763e-14 
0.613714 -3.74 -3.87113e-14 
0.699523 -3.86888 -4.31105e-14 
1.10834 -3.25532 -1.02348e-16 
1.30216 -3.21919 -1.141e-14 
1.51544 -3.29656 -4.25733e-15 
1.68462 -3.09425 -6.27256e-15 
1.90338 -3.10554 1.19931e-15 
2.14066 -3.0235 -3.99528e-16 
2.43238 -3.01871 2.92019e-15 
2.76011 -2.99668 2.49065e-15 
3.11238 -3.00668 2.58726e-15 
3.44887 -2.95406 1.53588e-15 
3.80151 -2.95763 1.22499e-15 
4.14293 -2.98211 9.36592e-16 
4.46973 -2.97865 6.07112e-16 
4.79678 -3.02037 5.21141e-16 
5.0995 -3.01792 4.16387e-16 
5.40312 -3.03189 3.21207e-16 
5.69907 -3.00972 2.20083e-16 
5.99613 -3.01576 1.7189e-16 
6.30018 -2.97855 1.27404e-16 
6.60225 -3.00006 -4.8952e-14 
6.91222 -2.99613 -3.98362e-14 
7.22405 -2.99995 -3.57689e-14 
7.52476 -2.9944 -3.19806e-14 
7.83412 -3.00159 -3.20081e-14 
8.1358 -2.97423 -1.91678e-14 
8.43741 -2.98608 -6.4954e-15 
8.74669 -2.99289 8.10355e-15 
9.05786 -3.04428 1.94736e-14 
9.36992 -3.01397 -1.37898e-16 
9.66805 -2.95518 -1.90914e-16 
9.98586 -3.03405 -2.84135e-16 
10.3187 -2.98158 -3.62776e-16 
10.6497 -3.06542 -5.72087e-16 
10.9822 -3.00001 4.17093e-14 
11.3326 -2.93382 3.29405e-16 
11.6627 -3.05893 -2.69057e-16 
12 -2.96909 -8.50152e-14 
-12 -2.66635 6.39908e-14 
-11.6496 -2.7248 -1.19454e-16 
-11.3158 -2.63792 -7.02035e-16 
-10.9816 -2.65016 -2.98011e-16 
-10.6384 -2.63974 -8.47078e-15 
-10.2999 -2.66794 -3.32367e-14 
-9.97204 -2.66105 -2.94361e-14 
-9.6461 -2.66721 1.21445e-16 
-9.32633 -2.68223 -4.52346e-14 
-9.00527 -2.64387 -3.10723e-14 
-8.6949 -2.64203 -2.762e-14 
-8.38123 -2.67202 -1.26471e-14 
-8.07668 -2.66777 2.78851e-15 
-7.76584 -2.66309 8.39799e-15 
-7.46459 -2.65573 4.28266e-15 
-7.15188 -2.65286 -4.80481e-16 
-6.85258 -2.69399 4.93641e-15 
-6.54659 -2.68642 3.07524e-15 
-6.25122 -2.68846 7.99889e-15 
-5.94596 -2.68828 6.37808e-15 
-5.64936 -2.67852 1.46219e-14 
[...]
POINT_DATA 1978 
VECTORS vectors float
-0.000120976 -0.00224751 0.999997 
-7.02526e-05 -0.033249 0.999447 
0.000120327 -0.0328054 0.999462 
6.2642e-05 -0.0220479 0.999757 
0.00011379 -0.0132766 0.999912 
7.03644e-05 -0.00616439 0.999981 
2.9088e-05 -0.00187831 0.999998 
-7.32873e-05 0.000110697 1 
1.73114e-05 0.00032959 1 
0.000193053 0.000351513 1 
0.00019262 0.000742872 1 
0.000218179 0.00148173 0.999999 
0.000243595 0.00248536 0.999997 
0.000239748 0.00358992 0.999994 
0.00031524 0.00447824 0.99999 
0.000268629 0.00529502 0.999986 
0.000240623 0.00604745 0.999982 
0.000253373 0.00666098 0.999978 
0.000230125 0.00747557 0.999972 
0.000244801 0.00836129 0.999965 
0.000280064 0.00940867 0.999956 
0.000292393 0.010691 0.999943 
0.000314719 0.0124741 0.999922 
0.00033413 0.0150322 0.999887 
0.000241765 0.0186362 0.999826 
0.000240276 0.0238772 0.999715 
0.000161389 0.0310234 0.999519 
4.18772e-05 0.0424004 0.999101 
4.91908e-05 0.0588493 0.998267 
3.78473e-05 0.0817962 0.996649 
7.51344e-05 0.115561 0.9933 
0.000190002 0.161168 0.986927 
0.000158166 0.217306 0.976103 
0.000251869 0.288061 0.957612 
0.000122565 0.368403 0.929666 
-0.00039451 0.47826 0.878218 
0.000267737 0.537095 0.843522 
-0.000444803 0.676215 0.736704 
0.000438172 0.836661 0.54772 
-0.000154952 0.995604 -0.0936604 
-2.37897e-05 0.941924 -0.335825 
-0.000295858 0.572868 -0.819648 
0.000134769 0.513012 -0.858381 
-7.25934e-05 0.432359 -0.901702 
-0.000142693 0.356687 -0.934224 
-0.000188967 0.273518 -0.961867 
-0.000200568 0.208304 -0.978064 
-0.000163379 0.153158 -0.988202 
-0.000149256 0.110778 -0.993845 
-6.56064e-05 0.0792277 -0.996857 
-0.000140613 0.0563968 -0.998408 
-0.000229263 0.0423672 -0.999102 
-0.000185724 0.0318714 -0.999492 
-0.000218272 0.0244664 -0.999701 
-0.000262074 0.0187911 -0.999823 
-0.00025612 0.0150354 -0.999887 
-0.000267719 0.0124385 -0.999923 
-0.000292978 0.0106341 -0.999943 
-0.000281151 0.00927195 -0.999957 
-0.000296441 0.00826444 -0.999966 
-0.000325088 0.00744676 -0.999972 
-0.000306429 0.00677041 -0.999977 
-0.000280476 0.00610265 -0.999981 
-0.000287845 0.00538067 -0.999985 
-0.000249041 0.00457766 -0.999989 
-0.000256209 0.00363428 -0.999993 
-0.000272995 0.00258094 -0.999997 
-0.000286293 0.00158234 -0.999999 
-0.000279044 0.000813785 -1 
-0.00018218 0.000431035 -1 
-5.54628e-05 0.000502768 -1 
-0.000168279 0.000276224 -1 
-1.70767e-05 -0.00117432 -0.999999 
3.87701e-05 -0.00539218 -0.999985 
0.000102994 -0.011901 -0.999929 
0.000175855 -0.0229362 -0.999737 
-0.000209416 -0.0331235 -0.999451 
5.27512e-05 -0.0333011 -0.999445 
0.000171621 -0.00211087 -0.999998 
-0.000612573 2.50121e-05 1 
0.0109329 -0.0243224 0.999644 
0.0160851 -0.0293747 0.999439 
0.0171071 -0.024573 0.999552 
0.0187078 -0.0160487 0.999696 
0.0191079 -0.00907357 0.999776 
0.019762 -0.0041507 0.999796 
0.019474 -0.00119726 0.99981 
0.0194552 0.000104007 0.999811 
0.020583 0.000559567 0.999788 
0.0212632 0.000990153 0.999773 
0.0206219 0.0015419 0.999786 
0.0209924 0.00231638 0.999777 
0.0205705 0.0031859 0.999783 
0.0209364 0.00405712 0.999773 
0.021066 0.0048072 0.999767 
0.020437 0.00552448 0.999776 
0.0206605 0.00630237 0.999767 
0.0206992 0.0071744 0.99976 
0.0208356 0.00812304 0.99975 
0.0208894 0.00925604 0.999739 
0.0206768 0.0107305 0.999729 
0.0204552 0.0127609 0.999709 
0.019437 0.0158149 0.999686 
0.0183814 0.0204007 0.999623 
0.0180304 0.0267427 0.99948 
0.0159788 0.0362309 0.999216 
0.0144673 0.0505521 0.998617 
0.0125307 0.0702523 0.997451 
0.0103249 0.0993435 0.995 
0.00854248 0.140512 0.990042 
0.00739949 0.193214 0.981129 
0.00671663 0.260344 0.965492 
0.00701545 0.33589 0.941875 
0.00826523 0.447959 0.894016 
0.0155302 0.52848 0.848804 
0.024021 0.568439 0.822375 
0.00735492 0.577941 0.816046 
0.000161656 0.918872 0.394556 
-0.00283187 0.998189 0.0600969 
-0.00120057 0.882724 -0.469891 
-0.000599493 0.620959 -0.783843 
-0.00731165 0.603667 -0.797203 
-0.00494089 0.524831 -0.851192 
-0.00288559 0.456546 -0.889695 
-0.00362664 0.344176 -0.938898 
-0.00519495 0.264525 -0.964365 
-0.00687207 0.192817 -0.981211 
-0.00856822 0.140903 -0.989986 
-0.0105032 0.097577 -0.995173 
-0.0122211 0.0666508 -0.997702 
-0.015226 0.0462633 -0.998813 
-0.016468 0.0339018 -0.999289 
-0.0178753 0.0251619 -0.999524 
-0.0191241 0.0191157 -0.999634 
-0.0193658 0.015017 -0.9997 
-0.0203854 0.0123235 -0.999716 
-0.0204805 0.0103356 -0.999737 
-0.0209845 0.00889415 -0.99974 
-0.0211977 0.00781106 -0.999745 
-0.0215379 0.00695734 -0.999744 
-0.0209855 0.00623775 -0.99976 
-0.0213757 0.00550959 -0.999756 
-0.0210126 0.00478147 -0.999768 
-0.0210559 0.00399101 -0.99977 
-0.0211591 0.00313043 -0.999771 
-0.0214804 0.00231332 -0.999767 
-0.0216154 0.00160794 -0.999765 
-0.0215173 0.00105869 -0.999768 
-0.0203175 0.000627434 -0.999793 
-0.020358 0.000160738 -0.999793 
-0.0209816 -0.00105631 -0.999779 
-0.0185786 -0.00351078 -0.999821 
-0.0189351 -0.00850968 -0.999785 
-0.0164517 -0.0162842 -0.999732 
-0.0174074 -0.0253031 -0.999528 
-0.0164052 -0.0292951 -0.999436 
-0.0104584 -0.0236874 -0.999665 
0.000658258 7.58551e-05 -1 
-0.000650951 -0.000591537 1 
0.0145943 -0.0243564 0.999597 
0.0200846 -0.0292846 0.999369 
0.0223677 -0.0243753 0.999453 
0.0238607 -0.0166296 0.999577 
0.0250321 -0.00974253 0.999639 
0.0261914 -0.00495519 0.999645 
0.0269412 -0.00184437 0.999635 
0.0271014 -0.000147709 0.999633 
0.027688 0.000700111 0.999616 
0.0274438 0.00130151 0.999623 
0.0271241 0.00176359 0.999631 
0.0270581 0.00226159 0.999631 
0.0268693 0.00287523 0.999635 
0.0268365 0.00356762 0.999633 
0.026847 0.00428838 0.99963 
0.0269629 0.00510644 0.999623 
0.0270247 0.00590592 0.999617 
0.02702 0.0067859 0.999612 
0.0270407 0.00777406 0.999604 
0.0269809 0.00897945 0.999596 
0.0266989 0.0105718 0.999588 
0.0262088 0.0127072 0.999576 
0.0254816 0.0157808 0.999551 
0.0243261 0.0201876 0.9995 
0.0226192 0.0265679 0.999391 
0.0203476 0.0359266 0.999147 
0.0178257 0.0490295 0.998638 
0.0144403 0.0682292 0.997565 
0.0114009 0.0946508 0.995445 
0.00798967 0.13201 0.991216 
0.00557288 0.182254 0.983236 
0.0062331 0.243742 0.96982 
0.00798172 0.314324 0.949282 
0.0115952 0.383288 0.923556 
0.0194856 0.466216 0.884456 
0.0357371 0.542287 0.839433 
0.00968222 0.678847 0.734216 
0.012627 0.813511 0.581413 
-0.00166967 0.979477 0.201549 
-0.00803808 0.944751 -0.327689 
-0.00160629 0.675414 -0.737437 
-0.0103047 0.561522 -0.827398 
-0.00535815 0.461543 -0.887101 
-0.00390776 0.388956 -0.921248 
-0.00384146 0.303677 -0.952767 
-0.00526581 0.236657 -0.971579 
-0.00569968 0.183806 -0.982946 
-0.00880748 0.133892 -0.990957 
-0.0121346 0.0956889 -0.995337 
-0.0153573 0.0670449 -0.997632 
-0.0181988 0.0489851 -0.998634 
-0.0205033 0.0353541 -0.999165 
-0.0225637 0.0261367 -0.999404 
-0.0247007 0.0203101 -0.999489 
-0.0257622 0.0160214 -0.99954 
-0.0264806 0.012959 -0.999565 
-0.0269001 0.0107467 -0.99958 
-0.0269349 0.00905336 -0.999596 
-0.0271247 0.00783634 -0.999601 
-0.0269648 0.00677689 -0.999613 
-0.0271079 0.00599413 -0.999615 
-0.0270603 0.00517966 -0.99962 
-0.0271883 0.00446746 -0.99962 
-0.0271312 0.00371014 -0.999625 
-0.0270933 0.00299206 -0.999628 
-0.0271356 0.00235832 -0.999629 
-0.0273308 0.00188361 -0.999625 
-0.0274331 0.00141126 -0.999623 
-0.0273474 0.000799102 -0.999626 
-0.0273535 -0.000113257 -0.999626 
-0.0271673 -0.0019823 -0.999629 
-0.0259104 -0.0046862 -0.999653 
-0.0255105 -0.00935186 -0.999631 
-0.0237186 -0.0154577 -0.999599 
-0.0224554 -0.0237922 -0.999465 
-0.0198947 -0.0292641 -0.999374 
-0.0146782 -0.0245592 -0.999591 
0.000581169 -0.000669904 -1 
-0.000677957 -0.000529291 1 
0.0123516 -0.023712 0.999643 
0.0166016 -0.0303784 0.999401 
0.0189199 -0.0255585 0.999494 
0.0205828 -0.017573 0.999634 
0.022398 -0.0106843 0.999692 
0.0233755 -0.00584304 0.99971 
0.0241599 -0.00234126 0.999705 
0.0248986 -0.000223755 0.99969 
0.0237907 0.00103661 0.999716 
0.0235106 0.00177401 0.999722 
0.0235727 0.0021245 0.99972 
0.0236058 0.00239274 0.999718 
0.0232498 0.0027863 0.999726 
0.0232212 0.00338969 0.999725 
0.0229663 0.00410676 0.999728 
0.0237061 0.0048793 0.999707 
0.0234822 0.00571496 0.999708 
0.0236134 0.0066475 0.999699 
0.0233504 0.00773347 0.999697 
0.0232155 0.0091399 0.999689 
0.022816 0.0109514 0.99968 
0.0222816 0.0134383 0.999661 
0.0217142 0.0166912 0.999625 
0.0206512 0.0212336 0.999561 
0.0184106 0.0283485 0.999429 
0.0159498 0.0381291 0.999146 
0.0129358 0.0531123 0.998505 
0.00820351 0.0741626 0.997212 
0.00444039 0.102223 0.994752 
-0.000823634 0.137406 0.990515 
-0.00372788 0.179388 0.983771 
-0.00327551 0.2376 0.971358 
-0.00139629 0.293122 0.956074 
0.0067229 0.360149 0.932871 
0.0140316 0.413572 0.910363 
0.0261258 0.488518 0.872163 
0.0255264 0.803161 0.595215 
0.00600766 0.931447 0.363828 
-0.00645049 0.999656 0.0254406 
-0.00892759 0.813544 -0.581435 
-0.00318182 0.744115 -0.668044 
-0.0131872 0.540883 -0.840995 
-0.00459121 0.444494 -0.89577 
-0.00193993 0.367431 -0.930049 
0.00423993 0.322144 -0.946681 
0.00270179 0.25917 -0.965828 
0.00371424 0.205271 -0.978698 
-0.000716184 0.153477 -0.988152 
-0.00480624 0.110848 -0.993826 
-0.00978387 0.0781067 -0.996897 
-0.0122332 0.0568813 -0.998306 
-0.0154499 0.0406831 -0.999053 
-0.0182277 0.0295855 -0.999396 
-0.0199234 0.0223348 -0.999552 
-0.0218613 0.0169423 -0.999617 
-0.0226907 0.0135429 -0.999651 
-0.0232767 0.0109897 -0.999669 
-0.0231725 0.00924925 -0.999689 
-0.023254 0.00780262 -0.999699 
-0.0228262 0.00668538 -0.999717 
-0.0231511 0.00572216 -0.999716 
-0.0232773 0.00489574 -0.999717 
-0.0232687 0.00408969 -0.999721 
-0.0232364 0.00339579 -0.999724 
-0.0234256 0.00280345 -0.999722 
-0.0230683 0.00241175 -0.999731 
-0.0235162 0.00213907 -0.999721 
-0.0238761 0.00175967 -0.999713 
-0.0250555 0.00102012 -0.999686 
-0.024467 -0.00020481 -0.999701 
-0.0232297 -0.00242817 -0.999727 
-0.0238918 -0.00582439 -0.999698 
-0.0220567 -0.011068 -0.999695 
-0.0220386 -0.0174857 -0.999604 
-0.01941 -0.0258037 -0.999479 
-0.0158277 -0.0305349 -0.999408 
-0.0124678 -0.0237628 -0.99964 
0.00079132 -0.000420554 -1 
-0.000625198 -0.000382291 1 
0.0088446 -0.0247472 0.999655 
0.0115093 -0.0325368 0.999404 
0.0136358 -0.0275694 0.999527 
0.0148544 -0.0192052 0.999705 
0.0165151 -0.0121256 0.99979 
0.0172316 -0.00683688 0.999828 
0.0176246 -0.00264743 0.999841 
0.017918 -4.44845e-05 0.999839 
0.0170642 0.00148123 0.999853 
0.016793 0.00221371 0.999857 
0.0171455 0.00241316 0.99985 
0.0168831 0.00249506 0.999854 
0.0167083 0.00276958 0.999857 
0.016522 0.0033071 0.999858 
0.0164614 0.00404507 0.999856 
0.0172685 0.00484158 0.999839 
0.016964 0.00574006 0.99984 
0.0169133 0.00676446 0.999834 
0.0166914 0.00806818 0.999828 
0.0163115 0.00969634 0.99982 
0.0158255 0.0118327 0.999805 
0.0152972 0.0148285 0.999773 
0.0147208 0.0188682 0.999714 
0.0132917 0.0244472 0.999613 
0.0106449 0.0325486 0.999413 
0.00856035 0.044221 0.998985 
0.00453077 0.0603578 0.998167 
-0.00135923 0.0835697 0.996501 
-0.00683916 0.110555 0.993847 
-0.0136264 0.144817 0.989365 
-0.0192328 0.18427 0.982687 
-0.0194712 0.229747 0.973056 
-0.0225652 0.283281 0.958771 
-0.016503 0.341331 0.939798 
0.00133436 0.375464 0.926836 
0.0207136 0.476072 0.879163 
0.0200227 0.669582 0.742468 
0.0194403 0.9004 0.434629 
-0.00611233 0.991491 -0.130034 
-0.015487 0.885979 -0.463466 
-0.00847746 0.74055 -0.671948 
-0.0104603 0.470486 -0.882345 
0.00273791 0.3885 -0.921445 
0.0192249 0.338815 -0.940657 
0.0162742 0.279269 -0.960075 
0.0190595 0.238312 -0.971002 
0.0136018 0.184679 -0.982705 
0.00806207 0.142543 -0.989756 
0.00251455 0.105191 -0.994449 
-0.00200471 0.0780777 -0.996945 
-0.00542523 0.0567467 -0.998374 
-0.0090045 0.0412159 -0.99911 
-0.0116976 0.0303933 -0.99947 
-0.0137394 0.0225385 -0.999652 
-0.0151543 0.017449 -0.999733 
-0.0159128 0.0138044 -0.999778 
-0.0164332 0.011219 -0.999802 
-0.0163582 0.00924432 -0.999823 
-0.0167888 0.00767433 -0.99983 
-0.0161032 0.00643858 -0.99985 
-0.0167522 0.00543831 -0.999845 
-0.0168224 0.00454743 -0.999848 
-0.0166039 0.00377597 -0.999855 
-0.0167668 0.00309464 -0.999855 
-0.0166126 0.0026362 -0.999859 
-0.0162678 0.00243926 -0.999865 
-0.0169097 0.00236716 -0.999854 
-0.0169988 0.0021324 -0.999853 
-0.0184805 0.00132551 -0.999828 
-0.0176031 -5.59336e-05 -0.999845 
-0.0168742 -0.00283789 -0.999854 
-0.0179195 -0.00700618 -0.999815 
-0.016102 -0.0125918 -0.999791 
-0.0164254 -0.0191155 -0.999682 
-0.0139743 -0.0276933 -0.999519 
-0.0108353 -0.0319569 -0.999431 
-0.00846981 -0.0239183 -0.999678 
0.000525529 -0.000483757 -1 
-0.000404638 -0.000413998 1 
0.00481623 -0.0227918 0.999729 
0.00692179 -0.032656 0.999443 
0.00851062 -0.0308685 0.999487 
0.00970641 -0.0230582 0.999687 
0.0108645 -0.0152383 0.999825 
0.0115199 -0.00923376 0.999891 
0.0117432 -0.00412472 0.999923 
0.011748 -0.000614679 0.999931 
0.0113874 0.00131731 0.999934 
0.010793 0.00235365 0.999939 
0.0110025 0.0025821 0.999936 
0.0108796 0.00250707 0.999938 
0.0109038 0.00257386 0.999937 
0.0105922 0.00297446 0.999939 
0.0108066 0.00364972 0.999935 
0.0110138 0.00448861 0.999929 
0.0112082 0.0053523 0.999923 
0.0108412 0.00641731 0.999921 
0.0108926 0.00768217 0.999911 
0.0103656 0.0093114 0.999903 
0.00984246 0.011413 0.999886 
0.00949749 0.014267 0.999853 
0.00884731 0.0182626 0.999794 
0.0076532 0.023608 0.999692 
0.00533807 0.031062 0.999503 
0.00320572 0.0418039 0.999121 
-0.00027913 0.0557048 0.998447 
-0.00550424 0.0751288 0.997159 
-0.0135236 0.100904 0.994804 
-0.020793 0.129913 0.991307 
-0.0302323 0.166949 0.985502 
-0.0404754 0.208922 0.977094 
-0.0421987 0.249293 0.967508 
-0.0530816 0.302258 0.951747 
-0.0459326 0.343152 0.938156 
-0.0295424 0.405579 0.913583 
0.0350533 0.654807 0.754983 
-0.000185114 0.984488 0.175449 
-0.011405 0.978611 -0.205402 
-0.0202828 0.940876 -0.338143 
-0.0154678 0.709207 -0.70483 
0.0143986 0.40393 -0.914676 
0.0448108 0.37859 -0.924479 
0.0398192 0.322744 -0.945648 
0.0416753 0.282944 -0.958231 
0.0323021 0.228544 -0.972997 
0.027678 0.187099 -0.981951 
0.0186872 0.145903 -0.989122 
0.012446 0.113576 -0.993451 
0.00624018 0.0849225 -0.996368 
0.00199884 0.0637584 -0.997963 
-0.00224925 0.046463 -0.998917 
-0.0053061 0.0340694 -0.999405 
-0.00754933 0.0252639 -0.999652 
-0.00871982 0.0191672 -0.999778 
-0.00968197 0.0149929 -0.999841 
-0.0100952 0.0119625 -0.999877 
-0.0103385 0.00977662 -0.999899 
-0.0108521 0.00799768 -0.999909 
-0.0104534 0.00666154 -0.999923 
-0.0107904 0.00549339 -0.999927 
-0.0111087 0.00457898 -0.999928 
-0.0106147 0.0037348 -0.999937 
-0.0109314 0.00304966 -0.999936 
-0.0105486 0.00256863 -0.999941 
-0.0102351 0.00243626 -0.999945 
-0.0106915 0.00254203 -0.99994 
-0.0106517 0.00245436 -0.99994 
-0.0117744 0.00166779 -0.999929 
-0.0116838 -6.68458e-05 -0.999932 
-0.0109337 -0.00301911 -0.999936 
-0.0121826 -0.00755769 -0.999897 
-0.0109395 -0.0136803 -0.999847 
-0.0112005 -0.0206759 -0.999723 
-0.00922762 -0.0293216 -0.999527 
-0.00679718 -0.0333735 -0.99942 
-0.00549515 -0.0254563 -0.999661 
0.000324745 -0.000531865 -1 
-0.000160551 -0.000563681 1 
0.00314247 -0.0261965 0.999652 
0.00455915 -0.0346077 0.999391 
0.00535541 -0.0299981 0.999536 
0.00625127 -0.0213372 0.999753 
0.00658074 -0.0139709 0.999881 
0.00691458 -0.00780936 0.999946 
0.0067997 -0.00279365 0.999973 
0.00633493 0.000363151 0.99998 
0.00606456 0.00206577 0.999979 
0.00572696 0.00272328 0.99998 
0.00560051 0.00263857 0.999981 
0.00573356 0.00244147 0.999981 
0.00569378 0.0025632 0.999981 
0.00567932 0.00308997 0.999979 
0.0060263 0.00386474 0.999974 
0.00581475 0.00471699 0.999972 
0.00602962 0.00567174 0.999966 
0.00571244 0.00687512 0.99996 
0.00565509 0.00831578 0.999949 
0.00507191 0.0102497 0.999935 
0.00460339 0.0128444 0.999907 
0.00411777 0.0164161 0.999857 
0.00315981 0.0214101 0.999766 
0.00149751 0.0282196 0.999601 
-0.000702696 0.0386421 0.999253 
-0.0041332 0.0519399 0.998642 
-0.0086559 0.0695305 0.997542 
-0.0160058 0.0929809 0.995539 
-0.0262674 0.123951 0.991941 
-0.0367825 0.156943 0.986923 
-0.0512181 0.199208 0.978618 
-0.0682757 0.246968 0.966615 
-0.0699598 0.27708 0.958296 
-0.0883972 0.338781 0.936703 
-0.0874034 0.377674 0.921804 
-0.00444346 0.417833 0.908513 
0.0467885 0.589234 0.806607 
0.0436633 0.808597 0.58674 
-0.00769317 0.998003 -0.0626954 
-0.0207634 0.686866 -0.726488 
-0.0235626 0.636207 -0.771159 
0.0330851 0.438279 -0.89823 
0.0716716 0.377882 -0.923075 
0.0684938 0.338303 -0.938541 
0.0604297 0.287293 -0.955935 
0.052072 0.244608 -0.968223 
0.0424872 0.201633 -0.978539 
0.0307108 0.158471 -0.986886 
0.0205245 0.121153 -0.992422 
0.0126996 0.0901004 -0.995852 
0.0069973 0.0661168 -0.997787 
0.00255857 0.048232 -0.998833 
-0.000526907 0.0352948 -0.999377 
-0.00259047 0.0261459 -0.999655 
-0.00345506 0.0199858 -0.999794 
-0.00449228 0.0154383 -0.999871 
-0.00482278 0.0122861 -0.999913 
-0.0054429 0.00981684 -0.999937 
-0.00564692 0.00804511 -0.999952 
-0.00582827 0.00650873 -0.999962 
-0.00575505 0.0053691 -0.999969 
-0.00611892 0.00440431 -0.999972 
-0.00560832 0.00354177 -0.999978 
-0.00582663 0.00285838 -0.999979 
-0.00527351 0.00242868 -0.999983 
-0.00513262 0.00240103 -0.999984 
-0.00531159 0.00263995 -0.999982 
-0.00531634 0.00267863 -0.999982 
-0.00649159 0.00191352 -0.999977 
-0.00629223 0.000237057 -0.99998 
-0.00627764 -0.0032158 -0.999975 
-0.00736107 -0.00846024 -0.999937 
-0.00662797 -0.0150402 -0.999865 
-0.00710891 -0.022334 -0.999725 
-0.00556757 -0.0305452 -0.999518 
-0.00401184 -0.0344069 -0.9994 
-0.00327162 -0.0257202 -0.999664 
0.000219879 -0.000445907 -1 
-0.000149413 -0.000459751 1 
0.00160616 -0.0260398 0.99966 
0.00238321 -0.0349666 0.999386 
0.0027399 -0.0317728 0.999491 
0.00309007 -0.0230234 0.99973 
0.00300957 -0.015087 0.999882 
0.00305727 -0.00861324 0.999958 
0.00284386 -0.00326986 0.999991 
0.00228675 0.000334857 0.999997 
0.00198095 0.00222099 0.999996 
0.00192057 0.00283365 0.999994 
0.00159239 0.00264586 0.999995 
0.00180298 0.00234865 0.999996 
0.00178833 0.0023954 0.999996 
0.0019776 0.00287602 0.999994 
0.00219122 0.00366474 0.999991 
0.00203741 0.00455031 0.999988 
0.00208917 0.00556633 0.999982 
0.00203944 0.00674598 0.999975 
0.00175933 0.00826829 0.999964 
0.00145444 0.0101036 0.999948 
0.000977557 0.0126901 0.999919 
0.000417514 0.0162925 0.999867 
-0.000480169 0.0213646 0.999772 
-0.00201964 0.0284392 0.999593 
-0.00374466 0.0384066 0.999255 
-0.00753998 0.0531066 0.99856 
-0.0123465 0.0721814 0.997315 
-0.0202318 0.0980804 0.994973 
-0.0310497 0.130675 0.990939 
-0.0449956 0.168965 0.984594 
-0.0606624 0.208298 0.976182 
-0.0822516 0.257807 0.962689 
-0.108436 0.312543 0.943694 
-0.107056 0.332151 0.937131 
-0.133047 0.408036 0.903219 
-0.0549544 0.417543 0.906994 
0.0253404 0.495449 0.868267 
0.0683983 0.687582 0.722878 
0.00750751 0.977788 0.209463 
-0.0328257 0.843145 -0.536684 
-0.0236183 0.515041 -0.85684 
0.0786713 0.423682 -0.902388 
0.108961 0.404072 -0.908214 
0.0906256 0.345219 -0.934137 
0.0819885 0.301242 -0.950016 
0.0671358 0.255037 -0.964598 
0.0519438 0.209492 -0.97643 
0.0393598 0.170842 -0.984512 
0.0276237 0.133212 -0.990703 
0.0187316 0.101561 -0.994653 
0.0119271 0.0751591 -0.9971 
0.0069749 0.054271 -0.998502 
0.00368168 0.0395197 -0.999212 
0.00150378 0.0290395 -0.999577 
0.000520465 0.0216987 -0.999764 
-0.000504157 0.0166922 -0.999861 
-0.000925255 0.0130962 -0.999914 
-0.00164476 0.0105138 -0.999943 
-0.00176679 0.00847803 -0.999963 
-0.00226791 0.00692945 -0.999973 
-0.00201972 0.00560498 -0.999982 
-0.00228569 0.00458009 -0.999987 
-0.00205351 0.0036715 -0.999991 
-0.00197999 0.002864 -0.999994 
-0.00158701 0.00236035 -0.999996 
-0.00145787 0.00228276 -0.999996 
-0.00142959 0.00261625 -0.999996 
-0.0014315 0.00281792 -0.999995 
-0.00202229 0.0021824 -0.999996 
-0.00241204 0.000206263 -0.999997 
-0.00234376 -0.00336766 -0.999992 
-0.00351854 -0.00856175 -0.999957 
-0.0030161 -0.0147551 -0.999887 
-0.00374465 -0.022333 -0.999744 
-0.00296901 -0.0309077 -0.999518 
-0.00219652 -0.035185 -0.999378 
-0.00179092 -0.0260095 -0.99966 
9.89238e-05 -0.000597997 -1 
-2.14831e-05 -0.00059552 1 