# vtk DataFile Version 3.0 
Exported using Morpho https://github.com/Morpho-lang/morpho 
ASCII 
DATASET UNSTRUCTURED_GRID 

POINTS 1978 float 
-12 -4 -1.36702e-12 
-11.6657 -4 3.11556e-12 
-11.3344 -4 9.04125e-12 
-10.98 -4 7.7145e-12 
-10.6635 -4 5.77117e-12 
-10.3151 -4 4.73569e-12 
-10.0048 -4 3.55845e-12 
-9.66819 -4 2.2908e-12 
-9.32971 -4 2.46546e-12 
-9.01425 -4 1.1765e-12 
-8.7055 -4 1.71583e-14 
-8.39377 -4 -2.62797e-13 
-8.08642 -4 -7.1514e-13 
-7.7768 -4 -6.13483e-13 
-7.46619 -4 -8.16496e-13 
-7.17675 -4 -5.7731e-13 
-6.89035 -4 -3.81283e-13 
-6.60839 -4 -4.74061e-13 
-6.31344 -4 -6.90669e-13 
-6.01499 -4 -9.92296e-13 
-5.71327 -4 -1.29272e-12 
-5.42267 -4 -1.79441e-12 
-5.12941 -4 -2.39654e-12 
-4.83386 -4 -3.12213e-12 
-4.52461 -4 -4.41319e-12 
-4.22311 -4 -6.05236e-12 
-3.90221 -4 -8.27743e-12 
-3.57587 -4 -1.07948e-11 
-3.25751 -4 -1.25317e-11 
-2.95981 -4 -1.36186e-11 
-2.66773 -4 -1.78192e-11 
-2.37336 -4 -1.82248e-11 
-2.11057 -4 -1.8914e-11 
-1.86473 -4 -1.8171e-11 
-1.61326 -4 -1.79898e-11 
-1.40161 -4 2.05163e-12 
-1.231 -4 -1.35402e-11 
-1.07831 -4 -3.8256e-11 
-0.453372 -4 4.61349e-10 
-0.0108434 -4 -1.65934e-10 
0.537883 -4 2.37615e-11 
0.807065 -4 -2.27645e-10 
1.0614 -4 -1.40427e-11 
1.29638 -4 1.44857e-11 
1.47189 -4 1.84782e-11 
1.72492 -4 2.22197e-11 
2.01108 -4 2.30506e-11 
2.30686 -4 2.2048e-11 
2.63531 -4 2.00897e-11 
2.95753 -4 1.57715e-11 
3.27353 -4 1.24081e-11 
3.58182 -4 9.54157e-12 
3.88425 -4 7.0404e-12 
4.18109 -4 5.58341e-12 
4.49521 -4 4.30113e-12 
4.80784 -4 3.20038e-12 
5.1109 -4 2.29748e-12 
5.41215 -4 1.80292e-12 
5.71321 -4 1.25325e-12 
6.00163 -4 9.79377e-13 
6.30419 -4 7.40831e-13 
6.58503 -4 3.54807e-13 
6.88523 -4 6.56542e-13 
7.18033 -4 7.49665e-13 
7.47296 -4 6.82577e-13 
7.77875 -4 7.7864e-13 
8.07097 -4 6.87118e-13 
8.37389 -4 3.40885e-13 
8.67551 -4 1.56437e-13 
8.95614 -4 -1.11764e-12 
9.29545 -4 -2.1165e-12 
9.61658 -4 -2.22119e-12 
9.93297 -4 -4.2029e-12 
10.2988 -4 -4.45858e-12 
10.6229 -4 -7.14906e-12 
10.9939 -4 -7.25485e-12 
11.3118 -4 -8.25216e-12 
11.6018 -4 -3.66779e-12 
12 -4 3.30773e-13 
-12 -3.63944 3.82807e-12 
-11.6888 -3.67448 1.14243e-15 
-11.3586 -3.6344 1.93681e-15 
-11.0418 -3.68555 2.30136e-15 
-10.7038 -3.64968 1.68701e-15 
-10.3847 -3.6831 1.62102e-15 
-10.0484 -3.65011 1.13703e-15 
-9.73148 -3.68042 8.8891e-16 
-9.38842 -3.68486 6.26218e-16 
-9.04853 -3.66535 3.8777e-16 
-8.73196 -3.66 2.37867e-16 
-8.4182 -3.66559 1.12438e-16 
-8.10267 -3.66224 -2.24353e-14 
-7.79262 -3.66594 -6.55456e-17 
-7.48257 -3.66966 -8.46112e-17 
-7.1692 -3.64904 -1.43765e-16 
-6.87883 -3.65306 -1.73816e-16 
-6.57688 -3.66769 -2.18734e-16 
-6.26872 -3.67224 -2.71889e-16 
-5.9572 -3.6764 -3.58729e-16 
-5.65491 -3.66179 -4.67029e-16 
-5.35357 -3.66087 -6.31926e-16 
-5.04863 -3.66001 -8.85282e-16 
-4.73317 -3.67121 -1.23027e-15 
-4.41833 -3.66079 -1.67089e-15 
-4.09257 -3.6787 -2.30987e-15 
-3.75172 -3.68005 -3.10404e-15 
-3.41026 -3.67395 -4.11119e-15 
-3.07801 -3.65785 -5.2372e-15 
-2.76138 -3.66209 -7.10081e-15 
-2.44568 -3.6691 -8.87585e-15 
-2.14788 -3.65196 -8.47141e-15 
-1.8863 -3.66084 -4.69843e-15 
-1.65628 -3.71911 -5.4534e-15 
-1.42186 -3.70598 2.31308e-14 
-1.21264 -3.69765 -6.04261e-15 
-1.04761 -3.6412 -1.29034e-14 
-0.9638 -3.93159 1.75302e-13 
-0.256193 -3.90825 9.84122e-14 
0.231663 -3.93409 -3.58893e-14 
0.444168 -3.85132 -1.93293e-14 
0.934189 -3.81661 -2.56785e-14 
1.15119 -3.79046 -2.25801e-14 
1.33564 -3.69512 2.43996e-14 
1.51645 -3.62495 9.10714e-15 
1.71136 -3.68783 -4.05061e-16 
1.96414 -3.68137 5.40127e-15 
2.25141 -3.66345 5.37282e-15 
2.56526 -3.6791 7.19155e-15 
2.90121 -3.67392 6.4216e-15 
3.23649 -3.66543 4.71791e-15 
3.56291 -3.66137 3.8764e-15 
3.88016 -3.64443 2.66326e-15 
4.2043 -3.66919 1.95969e-15 
4.52058 -3.66378 1.5351e-15 
4.83006 -3.65885 1.10251e-15 
5.13981 -3.6641 7.97641e-16 
5.44672 -3.66836 5.72158e-16 
5.74328 -3.65987 4.26739e-16 
6.0449 -3.67534 3.26713e-16 
6.33695 -3.65083 2.43306e-16 
6.63554 -3.66969 1.96119e-16 
6.93464 -3.66179 1.69628e-16 
7.23209 -3.65807 1.40512e-16 
7.53833 -3.67222 1.07135e-16 
7.83937 -3.6516 4.46158e-17 
8.14229 -3.65876 4.37622e-14 
8.44205 -3.65449 -1.08985e-16 
8.73446 -3.63165 -2.44978e-16 
9.05827 -3.69188 -4.23612e-16 
9.38764 -3.67148 -5.93111e-16 
9.7102 -3.66093 -8.33699e-16 
10.0548 -3.70218 -1.25104e-15 
10.3807 -3.65929 -1.51206e-15 
10.7383 -3.70333 -2.10206e-15 
11.0693 -3.65193 -2.00655e-15 
11.3713 -3.61445 -1.82283e-15 
11.7173 -3.71691 -1.51759e-15 
12 -3.60272 -3.82121e-12 
-12 -3.31151 3.46963e-12 
-11.6532 -3.32023 6.9504e-16 
-11.3155 -3.2875 1.30102e-15 
-10.9941 -3.34713 1.26199e-15 
-10.6638 -3.30907 1.55175e-15 
-10.3444 -3.34855 1.4357e-15 
-10.0237 -3.30554 1.0496e-15 
-9.71235 -3.33805 7.53478e-16 
-9.39987 -3.36993 4.87555e-16 
-9.09116 -3.32659 3.6672e-16 
-8.78114 -3.32341 2.74826e-16 
-8.4691 -3.32857 1.3491e-16 
-8.15932 -3.32933 4.49875e-17 
-7.84889 -3.32949 1.43617e-14 
-7.54276 -3.3314 -6.13713e-17 
-7.23825 -3.32616 -1.13213e-16 
-6.93482 -3.31174 -1.53191e-16 
-6.63918 -3.33512 -1.86418e-16 
-6.33687 -3.34401 -2.33342e-16 
-6.03299 -3.35476 -3.22502e-16 
-5.72891 -3.33512 -4.41705e-16 
-5.42343 -3.32665 -5.75119e-16 
-5.11927 -3.32747 -7.81675e-16 
-4.80542 -3.34327 -1.10449e-15 
-4.48846 -3.33242 -1.49266e-15 
-4.16234 -3.35124 -1.98704e-15 
-3.83046 -3.36641 -2.81134e-15 
-3.4828 -3.35698 -3.90085e-15 
-3.14181 -3.33685 -4.78796e-15 
-2.80612 -3.32655 -5.38999e-15 
-2.4928 -3.33809 -4.68033e-15 
-2.19219 -3.32135 -4.72909e-15 
-1.91765 -3.32244 -5.25556e-15 
-1.67571 -3.36355 -3.51122e-15 
-1.48324 -3.41871 5.5337e-15 
-1.24916 -3.43821 1.7398e-14 
-1.02286 -3.39656 3.60616e-14 
-0.834247 -3.86567 1.08295e-13 
-0.46056 -3.80412 -1.78303e-13 
0.194109 -3.79297 1.6819e-13 
0.625356 -3.69582 1.48498e-13 
0.703087 -3.84507 4.60986e-14 
1.23087 -3.44364 1.97353e-15 
1.452 -3.3633 -9.21899e-15 
1.60035 -3.12551 -2.8065e-15 
1.71998 -3.34719 5.96083e-16 
1.96464 -3.34729 4.71027e-15 
2.24841 -3.32449 7.21598e-15 
2.54018 -3.34683 5.87348e-15 
2.85853 -3.35236 5.51848e-15 
3.18863 -3.34196 4.37728e-15 
3.52614 -3.33716 3.24566e-15 
3.85128 -3.31672 2.62522e-15 
4.17582 -3.33526 1.87925e-15 
4.49665 -3.3296 1.45128e-15 
4.81287 -3.32361 1.0502e-15 
5.12513 -3.33131 7.51617e-16 
5.4318 -3.33769 5.59421e-16 
5.73395 -3.32441 4.17735e-16 
6.02991 -3.34272 3.15553e-16 
6.32175 -3.31209 2.35224e-16 
6.61583 -3.33493 1.77583e-16 
6.91216 -3.32877 1.469e-16 
7.21349 -3.32065 1.1684e-16 
7.51437 -3.33866 6.78832e-17 
7.81664 -3.31332 -2.06974e-14 
8.12023 -3.31777 -4.17441e-17 
8.42431 -3.30326 -1.20696e-16 
8.74335 -3.30417 -2.60364e-16 
9.06269 -3.36881 -3.44961e-16 
9.38392 -3.34143 -4.71325e-16 
9.69042 -3.31237 -7.33746e-16 
10.0008 -3.37747 -1.01032e-15 
10.3195 -3.32568 -1.38154e-15 
10.6505 -3.38254 -1.66327e-15 
10.9755 -3.32887 -1.41694e-15 
11.2956 -3.25916 -9.10146e-16 
11.6344 -3.36258 -7.35514e-16 
12 -3.29888 -2.9564e-12 
-12 -2.99397 3.15583e-12 
-11.649 -2.99981 3.35866e-16 
-11.3036 -2.95686 -2.26238e-16 
-10.9647 -3.00815 4.4909e-16 
-10.6313 -2.97489 7.79433e-16 
-10.3056 -3.00599 7.07712e-16 
-9.98311 -2.96372 5.18858e-16 
-9.66824 -3.00033 4.16002e-16 
-9.36145 -3.02269 2.60742e-16 
-9.04793 -2.98616 1.94205e-16 
-8.7324 -2.98939 1.74111e-16 
-8.42071 -2.99432 6.9365e-17 
-8.10884 -2.99728 2.53933e-17 
-7.80306 -2.99339 2.8465e-17 
-7.49879 -2.99756 1.55778e-14 
-7.19628 -2.99211 -4.46658e-17 
-6.89548 -2.98067 -5.65175e-17 
-6.59737 -3.00596 -8.61983e-17 
-6.2973 -3.01699 -1.29906e-16 
-6.00039 -3.02545 -1.97722e-16 
-5.69832 -3.0067 -2.49176e-16 
-5.39685 -2.99448 -3.0439e-16 
-5.08555 -3.0043 -4.18029e-16 
-4.77333 -3.01603 -6.33078e-16 
-4.45121 -3.01019 -8.52791e-16 
-4.1275 -3.02746 -1.27525e-15 
-3.78866 -3.05101 -1.95865e-15 
-3.45158 -3.03173 -2.59591e-15 
-3.11395 -3.01284 -3.0571e-15 
-2.79233 -2.9947 -3.61207e-15 
-2.47789 -3.00503 -4.77231e-15 
-2.1823 -2.9912 -3.60711e-15 
-1.91168 -2.99477 8.85385e-16 
-1.66653 -3.03404 1.88099e-15 
-1.44694 -3.03919 7.95961e-15 
-1.29732 -3.21001 1.79689e-14 
-1.06946 -3.14847 -5.70998e-15 
-0.651106 -3.82624 -1.3021e-13 
-0.335786 -3.69376 7.57493e-14 
-0.0699758 -3.86154 -2.83502e-13 
0.398387 -3.68615 -2.49378e-14 
1.06778 -3.57149 -3.35161e-14 
1.02784 -3.31301 -3.38355e-14 
1.27011 -3.18163 -3.74132e-15 
1.36813 -2.96558 -1.1953e-14 
1.67729 -2.87204 -4.2535e-15 
1.9103 -3.00951 -5.14588e-16 
2.17627 -3.01808 1.78435e-15 
2.5001 -3.00316 3.87006e-15 
2.80592 -3.0258 4.03731e-15 
3.1327 -3.01404 2.79034e-15 
3.46488 -3.02045 2.6745e-15 
3.80435 -2.99292 1.54122e-15 
4.13475 -3.00325 1.18986e-15 
4.45887 -3.0033 8.3824e-16 
4.78177 -2.99384 5.85157e-16 
5.09812 -3.00192 4.16479e-16 
5.40959 -3.0071 3.05793e-16 
5.71253 -2.99529 2.28307e-16 
6.01359 -3.00801 1.70443e-16 
6.31193 -2.98366 1.0518e-16 
6.61325 -2.99964 7.45289e-17 
6.91469 -2.99898 6.03141e-17 
7.21628 -2.99035 4.4824e-17 
7.51984 -3.00438 -1.81967e-14 
7.82353 -2.97501 -3.42176e-17 
8.12342 -2.97845 -3.89872e-17 
8.43864 -2.97583 -6.80985e-17 
8.75204 -2.97302 -1.60339e-16 
9.068 -3.04008 -2.36072e-16 
9.37945 -3.00019 -2.35741e-16 
9.68555 -2.96876 -3.6021e-16 
10.0005 -3.03471 -6.41842e-16 
10.3187 -2.98517 -7.45913e-16 
10.6392 -3.04896 -9.35216e-16 
10.9635 -2.98958 -3.36995e-16 
11.3128 -2.94171 1.00672e-16 
11.6551 -3.04601 -3.76707e-16 
12 -2.97721 -3.18442e-12 
-12 -2.68654 1.90019e-12 
-11.6437 -2.68794 5.84459e-17 
-11.3235 -2.61342 -8.20215e-16 
-10.9916 -2.67917 -1.55026e-16 
-10.6493 -2.65395 2.9498e-17 
-10.3115 -2.67049 1.9604e-16 
-9.98237 -2.63924 1.16535e-16 
-9.65269 -2.66419 8.36451e-17 
-9.3363 -2.68108 2.08271e-17 
-9.01558 -2.65666 4.25332e-17 
-8.70139 -2.65806 7.03582e-17 
-8.38752 -2.66625 -2.46814e-14 
-8.07937 -2.6648 -1.56049e-14 
-7.77277 -2.66145 3.98758e-17 
-7.46788 -2.66763 2.2029e-17 
-7.16648 -2.66221 7.45858e-15 
-6.86496 -2.65324 -1.51508e-15 
-6.56806 -2.67853 1.88471e-14 
-6.27417 -2.68605 -2.83349e-17 
-5.97835 -2.69687 -6.11582e-17 
-5.68057 -2.67625 -6.93587e-17 
[...]
POINT_DATA 1978 
VECTORS vectors float
0.000889706 -0.00183033 0.999998 
0.00114572 -0.0290137 0.999578 
0.000301896 -0.0340108 0.999421 
0.000459321 -0.0272599 0.999628 
0.000577012 -0.0203883 0.999792 
0.000633889 -0.0149011 0.999889 
0.000594467 -0.0112922 0.999936 
0.00054549 -0.00839737 0.999965 
0.000588229 -0.00569933 0.999984 
0.000713191 -0.00333806 0.999994 
0.000764015 -0.0012356 0.999999 
0.000760706 0.000379949 1 
0.000734 0.00127838 0.999999 
0.000752613 0.00164289 0.999998 
0.000853496 0.00166897 0.999998 
0.000972522 0.00159638 0.999998 
0.00101121 0.00160165 0.999998 
0.000976548 0.00172833 0.999998 
0.00088012 0.00202902 0.999998 
0.000847549 0.00270681 0.999996 
0.000877672 0.00377943 0.999992 
0.000917981 0.00523648 0.999986 
0.000881053 0.00727756 0.999973 
0.000832886 0.010063 0.999949 
0.000770466 0.0140101 0.999902 
0.000688155 0.0193929 0.999812 
0.00058236 0.0274277 0.999624 
0.000578083 0.0385128 0.999258 
0.000677468 0.0532662 0.99858 
0.000739699 0.0727073 0.997353 
0.000767836 0.0986091 0.995126 
0.000797352 0.134551 0.990906 
0.000766316 0.17692 0.984225 
0.000708618 0.23001 0.973188 
0.000487433 0.299021 0.954247 
0.000189069 0.381606 0.924325 
0.000227179 0.452082 0.891977 
1.03076e-05 0.517095 0.855928 
-0.000371243 0.854664 0.519181 
-0.000215152 0.999815 -0.0192316 
0.000102633 0.835342 -0.549731 
0.000243377 0.670929 -0.741522 
3.93451e-05 0.531374 -0.847137 
-0.000274431 0.432052 -0.901849 
-0.000343329 0.362819 -0.931859 
-0.000454381 0.274597 -0.961559 
-0.000540074 0.198184 -0.980165 
-0.000526246 0.145578 -0.989347 
-0.000473012 0.102556 -0.994727 
-0.00054583 0.0729642 -0.997334 
-0.000640108 0.0521946 -0.998637 
-0.000770465 0.0378884 -0.999282 
-0.000773228 0.0271789 -0.99963 
-0.000759334 0.0196806 -0.999806 
-0.000704986 0.0139825 -0.999902 
-0.000728461 0.00996614 -0.99995 
-0.000803438 0.00716148 -0.999974 
-0.000856656 0.00516111 -0.999986 
-0.000863616 0.00367525 -0.999993 
-0.000929771 0.0027082 -0.999996 
-0.000917166 0.00203036 -0.999998 
-0.000931289 0.00165653 -0.999998 
-0.000910635 0.0015387 -0.999998 
-0.000873248 0.00153508 -0.999998 
-0.00088597 0.00160303 -0.999998 
-0.000846207 0.00160901 -0.999998 
-0.000841484 0.00130643 -0.999999 
-0.000906683 0.000565869 -0.999999 
-0.000841004 -0.000954579 -0.999999 
-0.000753376 -0.00285396 -0.999996 
-0.000631621 -0.00529488 -0.999986 
-0.000600514 -0.00798922 -0.999968 
-0.000586472 -0.0106844 -0.999943 
-0.000456122 -0.0146225 -0.999893 
-0.00045543 -0.0196105 -0.999808 
-0.000528913 -0.0274014 -0.999624 
-0.000483146 -0.0341938 -0.999415 
-0.00104719 -0.0306105 -0.999531 
-0.000959456 -0.00161514 -0.999998 
-0.000984047 -0.000322725 0.999999 
0.00920568 -0.0226749 0.999701 
0.0135271 -0.0290879 0.999485 
0.0143074 -0.0279257 0.999508 
0.0155971 -0.0214031 0.999649 
0.0154544 -0.015983 0.999753 
0.0166748 -0.0117348 0.999792 
0.016167 -0.00872186 0.999831 
0.0163489 -0.00603944 0.999848 
0.0169685 -0.00359539 0.99985 
0.0174102 -0.00163756 0.999847 
0.0175105 -0.000168754 0.999847 
0.0178044 0.000781243 0.999841 
0.017822 0.00130404 0.99984 
0.0178367 0.00151273 0.99984 
0.0183823 0.00155542 0.99983 
0.0186683 0.00162743 0.999824 
0.0181286 0.00182128 0.999834 
0.0179773 0.00225513 0.999836 
0.0178383 0.0030408 0.999836 
0.0180991 0.00422058 0.999827 
0.017828 0.00589152 0.999824 
0.0175384 0.00821249 0.999812 
0.0167805 0.0115208 0.999793 
0.0166381 0.0162144 0.99973 
0.0155625 0.0229099 0.999616 
0.0148271 0.0325532 0.99936 
0.0142899 0.0462405 0.998828 
0.0139238 0.0651046 0.997781 
0.0131093 0.090131 0.995844 
0.01221 0.123998 0.992207 
0.0118443 0.168594 0.985614 
0.0113678 0.223425 0.974655 
0.0107032 0.287586 0.957695 
0.0122691 0.373432 0.927576 
0.0158701 0.461203 0.887153 
0.0235532 0.534256 0.844994 
0.00535955 0.580592 0.814177 
0.00463272 0.950286 0.311343 
-0.00549477 0.963517 -0.267592 
-0.0141269 0.881076 -0.472764 
-0.0143576 0.612421 -0.790402 
-0.0124007 0.499819 -0.866041 
-0.0186446 0.421448 -0.906661 
-0.0177065 0.345151 -0.93838 
-0.0130844 0.277774 -0.960557 
-0.0120159 0.211679 -0.977265 
-0.011787 0.156566 -0.987597 
-0.0119673 0.111966 -0.99364 
-0.0130714 0.0782261 -0.99685 
-0.0140576 0.0552287 -0.998375 
-0.0150083 0.0388746 -0.999131 
-0.0158367 0.0279153 -0.999485 
-0.016091 0.0198354 -0.999674 
-0.0166975 0.0140157 -0.999762 
-0.0173315 0.0100015 -0.9998 
-0.0176125 0.00716598 -0.999819 
-0.0178188 0.00513306 -0.999828 
-0.0183352 0.00371286 -0.999825 
-0.0180939 0.00272851 -0.999833 
-0.018822 0.00212396 -0.999821 
-0.0182861 0.00175043 -0.999831 
-0.0185355 0.00155833 -0.999827 
-0.0185364 0.00146816 -0.999827 
-0.01812 0.001425 -0.999835 
-0.0183648 0.00119856 -0.999831 
-0.0179883 0.000693709 -0.999838 
-0.0180053 -0.000233344 -0.999838 
-0.0184541 -0.00160264 -0.999828 
-0.0164925 -0.00357002 -0.999858 
-0.0167825 -0.00594767 -0.999841 
-0.0166473 -0.00849525 -0.999825 
-0.0153116 -0.0117769 -0.999813 
-0.0160987 -0.0159161 -0.999744 
-0.0145826 -0.0219446 -0.999653 
-0.0151642 -0.02789 -0.999496 
-0.0140216 -0.0290004 -0.999481 
-0.00835762 -0.021595 -0.999732 
0.00105403 -0.000293284 -0.999999 
-0.000441177 -0.00070099 1 
0.0125489 -0.0224481 0.999669 
0.0183859 -0.0288952 0.999413 
0.0201202 -0.026807 0.999438 
0.021401 -0.0207854 0.999555 
0.0221223 -0.0155755 0.999634 
0.0229711 -0.011612 0.999669 
0.0229482 -0.00854677 0.9997 
0.022907 -0.0061237 0.999719 
0.0236635 -0.00401487 0.999712 
0.0238061 -0.0021523 0.999714 
0.0240172 -0.000794707 0.999711 
0.0243436 0.000185938 0.999704 
0.0246046 0.000871558 0.999697 
0.0247404 0.00125981 0.999693 
0.0249169 0.00145554 0.999688 
0.0251472 0.00164116 0.999682 
0.0250313 0.00190265 0.999685 
0.0248966 0.00232198 0.999687 
0.0246941 0.00298872 0.999691 
0.0245963 0.00406685 0.999689 
0.0242908 0.00568392 0.999689 
0.0238794 0.00791392 0.999684 
0.0232222 0.0110247 0.99967 
0.0226731 0.0155221 0.999622 
0.0218238 0.0219102 0.999522 
0.0208234 0.0306603 0.999313 
0.0196979 0.0436564 0.998852 
0.0184749 0.0626628 0.997864 
0.0169406 0.089174 0.995872 
0.0157508 0.12541 0.99198 
0.0150551 0.170979 0.98516 
0.0151846 0.223775 0.974522 
0.0164232 0.282944 0.958996 
0.0183527 0.340131 0.940199 
0.0225712 0.42185 0.906385 
0.0337519 0.520083 0.853449 
0.011603 0.64763 0.761867 
0.0180415 0.838412 0.544739 
-0.0121024 0.973556 -0.228126 
-0.0325849 0.762011 -0.646744 
-0.0174821 0.726406 -0.687043 
-0.0306518 0.459462 -0.887668 
-0.0257162 0.372733 -0.927582 
-0.0202972 0.305196 -0.952073 
-0.0191014 0.277211 -0.960619 
-0.0166944 0.21236 -0.977049 
-0.0162179 0.157725 -0.98735 
-0.0165003 0.117031 -0.992991 
-0.017581 0.0839712 -0.996313 
-0.0188338 0.0598851 -0.998028 
-0.0200019 0.0422157 -0.998908 
-0.0211614 0.0299482 -0.999327 
-0.0218011 0.0212311 -0.999537 
-0.0226041 0.0149485 -0.999633 
-0.0233172 0.010633 -0.999672 
-0.0238305 0.00758924 -0.999687 
-0.0242668 0.00542877 -0.999691 
-0.0247981 0.00394686 -0.999685 
-0.0249247 0.00294117 -0.999685 
-0.0252902 0.00233459 -0.999677 
-0.0252546 0.00192098 -0.999679 
-0.0252032 0.00162697 -0.999681 
-0.0250513 0.00140476 -0.999685 
-0.0249162 0.00122313 -0.999689 
-0.0249123 0.000882165 -0.999689 
-0.0245983 0.000278819 -0.999697 
-0.0241742 -0.00064525 -0.999708 
-0.0239997 -0.00195432 -0.99971 
-0.0232697 -0.00376332 -0.999722 
-0.0232768 -0.00603201 -0.999711 
-0.0232341 -0.00839001 -0.999695 
-0.0224681 -0.011328 -0.999683 
-0.0223752 -0.0152231 -0.999634 
-0.0214215 -0.0206198 -0.999558 
-0.0206874 -0.026556 -0.999433 
-0.0184808 -0.0289254 -0.999411 
-0.0126946 -0.02244 -0.999668 
0.000305764 -0.000729061 -1 
-0.000283906 -0.000709563 1 
0.0113517 -0.0217054 0.9997 
0.0162121 -0.0294895 0.999434 
0.0191187 -0.0268012 0.999458 
0.0198686 -0.0206651 0.999589 
0.0207901 -0.0152655 0.999667 
0.0206594 -0.011117 0.999725 
0.0214101 -0.00815088 0.999738 
0.0219807 -0.00593249 0.999741 
0.0216962 -0.00386573 0.999757 
0.0218686 -0.00215279 0.999759 
0.0222096 -0.000993778 0.999753 
0.0225152 -6.74051e-05 0.999747 
0.0226629 0.000669084 0.999743 
0.0228452 0.00113814 0.999738 
0.0229381 0.00145122 0.999736 
0.0227531 0.00175998 0.99974 
0.0230244 0.00210066 0.999733 
0.0230547 0.00256416 0.999731 
0.0230176 0.00326528 0.99973 
0.0225323 0.00441569 0.999736 
0.0220575 0.00612971 0.999738 
0.0218103 0.00858616 0.999725 
0.0214969 0.0119408 0.999698 
0.0207856 0.0167709 0.999643 
0.0203527 0.0235195 0.999516 
0.019669 0.0330139 0.999261 
0.0182598 0.0465249 0.99875 
0.0166149 0.0659917 0.997682 
0.01485 0.0917078 0.995675 
0.0132449 0.125361 0.992023 
0.0117076 0.17084 0.985229 
0.011388 0.224897 0.974316 
0.0137675 0.283888 0.958758 
0.0178062 0.349864 0.936631 
0.0247478 0.407342 0.912941 
0.0367077 0.485061 0.873709 
0.0158706 0.746467 0.665234 
0.0219439 0.934496 0.355297 
0.00166017 0.996371 0.0851024 
-0.0310384 0.90238 -0.429822 
-0.0277069 0.538927 -0.841897 
-0.0419185 0.515027 -0.856149 
-0.0319804 0.416311 -0.90866 
-0.0241476 0.366056 -0.93028 
-0.0136998 0.275339 -0.96125 
-0.014137 0.223537 -0.974593 
-0.0134996 0.171484 -0.985094 
-0.0139347 0.122553 -0.992364 
-0.015631 0.0900283 -0.995817 
-0.0167463 0.0643515 -0.997787 
-0.0183792 0.0455523 -0.998793 
-0.0191137 0.0325989 -0.999286 
-0.0201671 0.0229925 -0.999532 
-0.0207586 0.0163086 -0.999651 
-0.0211835 0.0115134 -0.999709 
-0.0217615 0.00816488 -0.99973 
-0.0221964 0.00581195 -0.999737 
-0.022416 0.00422601 -0.99974 
-0.0227352 0.00316149 -0.999737 
-0.0226987 0.00253249 -0.999739 
-0.0228932 0.00206143 -0.999736 
-0.0230477 0.0017041 -0.999733 
-0.0230096 0.00138479 -0.999734 
-0.0229679 0.0010599 -0.999736 
-0.0225628 0.000588041 -0.999745 
-0.0222047 -0.000119468 -0.999753 
-0.0219732 -0.00108086 -0.999758 
-0.021736 -0.00226967 -0.999761 
-0.0223427 -0.00393051 -0.999743 
-0.0216846 -0.0060609 -0.999746 
-0.0210597 -0.00833196 -0.999744 
-0.0215489 -0.0113084 -0.999704 
-0.0206803 -0.01541 -0.999667 
-0.0207385 -0.0207734 -0.999569 
-0.0190652 -0.0269162 -0.999456 
-0.0162957 -0.0295031 -0.999432 
-0.011739 -0.0217031 -0.999696 
0.000398546 -0.000573823 -1 
-0.000446103 -0.000474818 1 
0.00922869 -0.0227267 0.999699 
0.0121475 -0.0306227 0.999457 
0.014866 -0.0276897 0.999506 
0.0152848 -0.0214332 0.999653 
0.0159226 -0.0154565 0.999754 
0.015885 -0.0112901 0.99981 
0.0164248 -0.0081437 0.999832 
0.0168004 -0.00585954 0.999842 
0.0166388 -0.00386608 0.999854 
0.0168775 -0.00229304 0.999855 
0.0172772 -0.00121843 0.99985 
0.0174478 -0.000291672 0.999848 
0.0175817 0.000529701 0.999845 
0.0177801 0.00108661 0.999841 
0.0177802 0.0014899 0.999841 
0.0175893 0.00189933 0.999843 
0.0178854 0.00229938 0.999837 
0.017852 0.00278809 0.999837 
0.0178849 0.00352389 0.999834 
0.0173334 0.00472468 0.999839 
0.0170438 0.00657672 0.999833 
0.016805 0.00917072 0.999817 
0.0165986 0.01278 0.999781 
0.0158414 0.0178112 0.999716 
0.0154875 0.024372 0.999583 
0.0149955 0.0336948 0.99932 
0.0135049 0.047178 0.998795 
0.0118256 0.0653613 0.997792 
0.00970714 0.0895443 0.995936 
0.00780027 0.120612 0.992669 
0.00550717 0.159571 0.987171 
0.00382627 0.207892 0.978144 
0.00362998 0.261527 0.965189 
0.00512622 0.314948 0.949095 
0.00930019 0.377399 0.926004 
0.0244135 0.434574 0.900305 
0.0293456 0.655208 0.754878 
0.0398289 0.928554 0.369054 
0.00421467 0.997708 0.0675277 
-0.0576437 0.891951 -0.448443 
-0.0355214 0.619964 -0.783825 
-0.0430453 0.489354 -0.871022 
-0.0321404 0.453933 -0.890456 
-0.0155678 0.34858 -0.93715 
-0.00455017 0.269903 -0.962877 
-0.00591751 0.213416 -0.976943 
-0.00813805 0.161122 -0.986901 
-0.0082702 0.119794 -0.992764 
-0.0105999 0.088234 -0.996043 
-0.0120616 0.0631731 -0.99793 
-0.0138141 0.0452616 -0.99888 
-0.0144684 0.0321616 -0.999378 
-0.0153499 0.0231019 -0.999615 
-0.0159607 0.0163184 -0.999739 
-0.0163158 0.0115236 -0.9998 
-0.0168639 0.00817585 -0.999824 
-0.0171615 0.00587539 -0.999835 
-0.0173088 0.00428762 -0.999841 
-0.0176549 0.0032771 -0.999839 
-0.0175125 0.00263147 -0.999843 
-0.0178739 0.00217714 -0.999838 
-0.0179002 0.00177055 -0.999838 
-0.0178619 0.00133823 -0.99984 
-0.0180099 0.000892783 -0.999837 
-0.0171161 0.000276303 -0.999853 
-0.0171959 -0.000560802 -0.999852 
-0.0168931 -0.00153604 -0.999856 
-0.0164234 -0.00260797 -0.999862 
-0.0174964 -0.00402406 -0.999839 
-0.0164599 -0.00596735 -0.999847 
-0.0160508 -0.00830792 -0.999837 
-0.0166343 -0.0113644 -0.999797 
-0.0157416 -0.0157241 -0.999752 
-0.0160885 -0.0214218 -0.999641 
-0.0146451 -0.0280703 -0.999499 
-0.0121635 -0.0300186 -0.999475 
-0.00898216 -0.0216106 -0.999726 
0.00034984 -0.000548966 -1 
-0.000356075 -0.000419705 1 
0.00558364 -0.0200351 0.999784 
0.00817413 -0.0296467 0.999527 
0.0103187 -0.0298287 0.999502 
0.0111013 -0.0241297 0.999647 
0.0115013 -0.0173862 0.999783 
0.011574 -0.0127284 0.999852 
0.0119826 -0.00914603 0.999886 
0.0122553 -0.00665894 0.999903 
0.0123349 -0.00466699 0.999913 
0.0124253 -0.00298682 0.999918 
0.0127691 -0.00183197 0.999917 
0.0129312 -0.000833424 0.999916 
0.0131046 0.000127086 0.999914 
0.01327 0.000861264 0.999912 
0.0132315 0.00140395 0.999911 
0.0131699 0.00189425 0.999911 
0.0132205 0.00234537 0.99991 
0.0131942 0.00277376 0.999909 
0.0131882 0.00337379 0.999907 
0.0129241 0.00436724 0.999907 
0.0127438 0.00601612 0.999901 
0.012488 0.00842674 0.999887 
0.0122316 0.0117281 0.999856 
0.0116633 0.0162033 0.999801 
0.0110307 0.0225413 0.999685 
0.0105759 0.0309524 0.999465 
0.0095326 0.0426 0.999047 
0.00774314 0.0594693 0.9982 
0.00530703 0.0816408 0.996648 
0.00266735 0.110451 0.993878 
-0.000502414 0.145566 0.989348 
-0.00377751 0.188222 0.982119 
-0.00725599 0.236789 0.971534 
-0.0109609 0.287999 0.957568 
-0.0124275 0.33911 0.940665 
-0.0105871 0.393554 0.919241 
0.045217 0.646882 0.761248 
0.0399376 0.781206 0.622994 
-0.0200927 0.972987 -0.229983 
-0.0524105 0.740343 -0.670183 
-0.0514039 0.629469 -0.775324 
-0.0192515 0.460719 -0.887337 
-0.00929646 0.382322 -0.923983 
0.00176529 0.311175 -0.950351 
0.00781464 0.247828 -0.968773 
0.00463284 0.20175 -0.979426 
-0.00102328 0.16341 -0.986558 
-0.00137716 0.128513 -0.991707 
-0.00478808 0.0950292 -0.995463 
-0.0071148 0.0694158 -0.997562 
-0.00900571 0.0493958 -0.998739 
-0.0100541 0.035719 -0.999311 
-0.0107688 0.0252977 -0.999622 
-0.0115483 0.0181288 -0.999769 
-0.0119433 0.0127914 -0.999847 
-0.0123705 0.00898268 -0.999883 
-0.0126058 0.00640828 -0.9999 
-0.0128154 0.00467072 -0.999907 
-0.0130171 0.00354762 -0.999909 
-0.0131872 0.00288298 -0.999909 
-0.0133559 0.00240006 -0.999908 
-0.013342 0.00195615 -0.999909 
-0.0133414 0.00145472 -0.99991 
-0.0133949 0.00090038 -0.99991 
-0.0128795 0.000227327 -0.999917 
-0.0128322 -0.00071002 -0.999917 
-0.0125295 -0.00172913 -0.99992 
-0.0119281 -0.00277687 -0.999925 
-0.0126103 -0.00414553 -0.999912 
-0.0121293 -0.0062199 -0.999907 
-0.011732 -0.00849381 -0.999895 
-0.0120959 -0.0114876 -0.999861 
-0.0115547 -0.0161944 -0.999802 
-0.011744 -0.0222364 -0.999684 
-0.0106362 -0.0290183 -0.999522 
-0.00869735 -0.0305439 -0.999496 
-0.00636326 -0.0217008 -0.999744 
0.000219931 -0.000551905 -1 
-0.000210097 -0.000514153 1 
0.00425918 -0.0217244 0.999755 
0.00681298 -0.0316854 0.999475 
0.0075826 -0.0288925 0.999554 
0.00840787 -0.0219765 0.999723 
0.0084054 -0.0160284 0.999836 
0.00875056 -0.0115925 0.999895 
0.00902317 -0.00848431 0.999923 
0.00911997 -0.00621745 0.999939 
0.00936377 -0.00430398 0.999947 
0.00954764 -0.00287545 0.99995 
0.009767 -0.00179294 0.999951 
0.00992065 -0.000691484 0.999951 
0.0100859 0.000310474 0.999949 
0.0101471 0.00106522 0.999948 
0.0100974 0.00169418 0.999948 
0.0101083 0.00222705 0.999946 
0.0100261 0.00264897 0.999946 
0.00998834 0.00310767 0.999945 
0.00981444 0.00385339 0.999944 
0.00972793 0.00516933 0.999939 
0.00957462 0.00727589 0.999928 
0.00924923 0.0102761 0.999904 
0.00879404 0.0143042 0.999859 
0.00831755 0.0200466 0.999764 
0.00755017 0.0282308 0.999573 
0.00652216 0.0389635 0.999219 
0.00514068 0.054075 0.998524 
0.00249632 0.0754991 0.997143 
-0.000962247 0.104213 0.994555 
-0.00534003 0.140067 0.990128 
-0.0104663 0.183193 0.983021 
-0.0168254 0.232818 0.972375 
-0.0243055 0.287455 0.957486 
-0.0324448 0.34462 0.938181 
-0.0374266 0.398113 0.916573 
0.0226153 0.465229 0.884901 
0.0612122 0.6883 0.722839 
0.0496262 0.568727 0.821028 
0.0100876 0.994452 0.10471 
-0.07734 0.718632 -0.691077 
-0.0585878 0.592958 -0.803099 
0.00733262 0.447684 -0.894162 
0.0122428 0.370645 -0.928694 
0.0184519 0.303513 -0.952649 
0.0230231 0.258599 -0.96571 
0.0156203 0.208702 -0.977855 
0.00737696 0.161099 -0.986911 
0.00244774 0.118097 -0.992999 
-0.00143601 0.0875076 -0.996163 
-0.00439584 0.0632837 -0.997986 
-0.00597352 0.0461081 -0.998919 
-0.00717617 0.0329925 -0.99943 
-0.00783075 0.0236516 -0.99969 
-0.00858998 0.0169199 -0.99982 
-0.0090077 0.0119363 -0.999888 
-0.00929494 0.00852235 -0.99992 
-0.0095248 0.00612651 -0.999936 
-0.00975165 0.00450254 -0.999942 
-0.0098455 0.0035207 -0.999945 
-0.0101674 0.00290224 -0.999944 
-0.0101681 0.00247737 -0.999945 
-0.0101803 0.00201853 -0.999946 
-0.0102438 0.00143886 -0.999946 
-0.0101651 0.000812376 -0.999948 
-0.00990756 -2.24829e-05 -0.999951 
-0.00977059 -0.00105722 -0.999952 
-0.00949244 -0.00217492 -0.999953 
-0.00915379 -0.00333141 -0.999953 
-0.00944505 -0.00467088 -0.999944 
-0.00897369 -0.00664202 -0.999938 
-0.00878881 -0.00911321 -0.99992 
-0.00902157 -0.0123888 -0.999883 
-0.00845989 -0.0171 -0.999818 
-0.00861859 -0.0229951 -0.999698 
-0.0077015 -0.0294804 -0.999536 
-0.00634605 -0.0311067 -0.999496 
-0.00465164 -0.0223455 -0.999739 
0.000133867 -0.000606201 -1 
-5.18675e-05 -0.00067503 1 
0.0031101 -0.0217033 0.99976 
0.00503413 -0.0314011 0.999494 
0.00555633 -0.0295423 0.999548 
0.00628273 -0.023196 0.999711 
0.00638984 -0.0170397 0.999834 
0.00678435 -0.0124752 0.999899 
0.00706398 -0.00919114 0.999933 
0.00718947 -0.00677921 0.999951 
0.00746368 -0.00486486 0.99996 
0.00773533 -0.00345826 0.999964 
0.00791344 -0.00226098 0.999966 
0.00805519 -0.00104136 0.999967 
0.00819854 6.79699e-05 0.999966 
0.00824708 0.000953722 0.999966 
0.00820742 0.00169533 0.999965 
0.00817164 0.00228077 0.999964 
0.00807717 0.00269086 0.999964 
0.00802717 0.00309753 0.999963 
0.00785253 0.0037678 0.999962 
0.00779017 0.00491485 0.999958 
0.00778072 0.00681019 0.999947 
0.00752893 0.00952424 0.999926 
0.00705605 0.0132658 0.999887 
0.00664588 0.0185527 0.999806 
0.00600952 0.0262089 0.999638 
0.00471296 0.0367905 0.999312 
0.00330733 0.0513079 0.998677 
0.00103152 0.0710975 0.997469 
-0.00284911 0.100424 0.994941 
-0.00834873 0.138579 0.990316 
-0.0152648 0.183616 0.98288 
-0.0238972 0.233686 0.972018 
-0.0343838 0.290335 0.956307 
-0.0470306 0.353193 0.934368 
-0.0563659 0.415612 0.907794 
-0.00100742 0.462742 0.886492 
0.062266 0.544352 0.836543 
0.0717453 0.816872 0.572339 
-0.0105721 0.995282 -0.0964449 
-0.0983481 0.819852 -0.564065 
-0.0601398 0.543647 -0.837157 
0.0368184 0.437559 -0.898436 
0.0366162 0.367035 -0.929486 
0.0407252 0.32428 -0.945084 
0.0403684 0.288371 -0.956667 
0.0277577 0.232524 -0.972194 
0.0158285 0.179624 -0.983608 
0.00821014 0.136461 -0.990611 
0.00280426 0.0996613 -0.995017 
-0.00105189 0.0731791 -0.997318 
-0.00323231 0.0530859 -0.998585 
-0.00479106 0.0378937 -0.99927 
-0.00574622 0.0270481 -0.999618 
-0.00652752 0.0190943 -0.999796 
-0.0070697 0.0135761 -0.999883 
-0.0073507 0.00961051 -0.999927 
-0.0076 0.00685823 -0.999948 
-0.00782192 0.00497405 -0.999957 
-0.00789547 0.0038113 -0.999962 
-0.00814037 0.00312642 -0.999962 
-0.00818618 0.00271618 -0.999963 
-0.00821775 0.00230599 -0.999964 
-0.00833342 0.00172284 -0.999964 
-0.00821863 0.0010036 -0.999966 
-0.00819642 0.000152355 -0.999966 
-0.00799795 -0.0010105 -0.999968 
-0.00780378 -0.00225811 -0.999967 
-0.00752682 -0.00347226 -0.999966 
-0.00747248 -0.00492219 -0.99996 
-0.00717495 -0.00703009 -0.99995 
-0.00691263 -0.00953273 -0.999931 
-0.0068945 -0.0128249 -0.999894 
-0.00637729 -0.0174074 -0.999828 
-0.0063983 -0.0233708 -0.999706 
-0.00569405 -0.0296818 -0.999543 
-0.00471858 -0.0315196 -0.999492 