# vtk DataFile Version 3.0 
Exported using Morpho https://github.com/Morpho-lang/morpho 
ASCII 
DATASET UNSTRUCTURED_GRID 

POINTS 1245 float 
-0.303845 -0.952721 0 
-0.250833 -0.96803 0 
-0.195084 -0.980787 0 
-0.146308 -0.989239 0 
-0.0940719 -0.995565 0 
-0.0475118 -0.998871 0 
-0.000246339 -1 0 
0.0470875 -0.998891 0 
0.0937543 -0.995595 0 
0.146139 -0.989264 0 
0.195062 -0.980791 0 
0.250843 -0.968028 0 
0.303953 -0.952687 0 
-0.409153 -0.912466 0 
-0.356519 -0.934288 0 
-0.308871 -0.898929 0 
-0.258282 -0.916037 0 
-0.207345 -0.934859 0 
-0.154868 -0.930629 0 
-0.104343 -0.948989 0 
-0.0520099 -0.939193 0 
-8.5762e-05 -0.954582 0 
0.0518744 -0.939288 0 
0.104354 -0.949042 0 
0.154696 -0.9306 0 
0.207366 -0.934975 0 
0.258274 -0.916081 0 
0.308979 -0.898924 0 
0.356593 -0.93426 0 
0.409236 -0.912429 0 
-0.513788 -0.857917 0 
-0.461695 -0.887039 0 
-0.411157 -0.857936 0 
-0.359855 -0.879963 0 
-0.306888 -0.847481 0 
-0.254732 -0.866979 0 
-0.201991 -0.889059 0 
-0.149956 -0.874108 0 
-0.100608 -0.900088 0 
-0.0497575 -0.880388 0 
2.4595e-05 -0.904789 0 
0.0496869 -0.8804 0 
0.100612 -0.900177 0 
0.149872 -0.874171 0 
0.202071 -0.889165 0 
0.254695 -0.867031 0 
0.306946 -0.847482 0 
0.359894 -0.879943 0 
0.411236 -0.857929 0 
0.461748 -0.887011 0 
0.513842 -0.857885 0 
-0.564741 -0.825268 0 
-0.512908 -0.802945 0 
-0.462372 -0.832348 0 
-0.410124 -0.804631 0 
-0.358606 -0.827415 0 
-0.305781 -0.795641 0 
-0.25358 -0.816639 0 
-0.200756 -0.839997 0 
-0.149043 -0.818944 0 
-0.0987265 -0.846667 0 
-0.0490473 -0.822548 0 
5.00659e-05 -0.849932 0 
0.0490834 -0.822542 0 
0.0987838 -0.846676 0 
0.148997 -0.818924 0 
0.200826 -0.840131 0 
0.253508 -0.816728 0 
0.305831 -0.795701 0 
0.358581 -0.827419 0 
0.410181 -0.804654 0 
0.462414 -0.83234 0 
0.512965 -0.802929 0 
0.564777 -0.825243 0 
-0.660798 -0.750564 0 
-0.614015 -0.789295 0 
-0.561786 -0.769772 0 
-0.510673 -0.747856 0 
-0.460836 -0.778365 0 
-0.408794 -0.751554 0 
-0.357337 -0.774971 0 
-0.304815 -0.743684 0 
-0.252907 -0.765535 0 
-0.200631 -0.789263 0 
-0.149244 -0.764328 0 
-0.0986912 -0.791935 0 
-0.0492815 -0.765764 0 
4.16586e-05 -0.79382 0 
0.0492411 -0.765708 0 
0.0987508 -0.791951 0 
0.149196 -0.764326 0 
0.200666 -0.789356 0 
0.252841 -0.765599 0 
0.304862 -0.743741 0 
0.357323 -0.775038 0 
0.408863 -0.751626 0 
0.460863 -0.778382 0 
0.510716 -0.747859 0 
0.561819 -0.769761 0 
0.614041 -0.789274 0 
0.660811 -0.750552 0 
-0.707107 -0.707107 0 
-0.654819 -0.699058 0 
-0.60813 -0.73348 0 
-0.558104 -0.71337 0 
-0.509495 -0.692659 0 
-0.45935 -0.724356 0 
-0.407328 -0.698865 0 
-0.355968 -0.722823 0 
-0.303722 -0.691387 0 
-0.252254 -0.71362 0 
-0.20067 -0.737336 0 
-0.149608 -0.710068 0 
-0.0991558 -0.737129 0 
-0.0495872 -0.709825 0 
-2.23646e-05 -0.737917 0 
0.0494408 -0.709766 0 
0.0991291 -0.737116 0 
0.149502 -0.710042 0 
0.200696 -0.73743 0 
0.252186 -0.713735 0 
0.303753 -0.691518 0 
0.355952 -0.722893 0 
0.407371 -0.698945 0 
0.459374 -0.724407 0 
0.509524 -0.692668 0 
0.558131 -0.713361 0 
0.608151 -0.733462 0 
0.654824 -0.699048 0 
0.707107 -0.707107 0 
-0.750564 -0.660798 0 
-0.699058 -0.654819 0 
-0.647692 -0.647692 0 
-0.603437 -0.675718 0 
-0.55905 -0.655305 0 
-0.508501 -0.639581 0 
-0.457509 -0.671321 0 
-0.405555 -0.646545 0 
-0.354417 -0.670703 0 
-0.302427 -0.639219 0 
-0.251503 -0.661417 0 
-0.20061 -0.684911 0 
-0.149717 -0.655943 0 
-0.0995004 -0.682466 0 
-0.0498216 -0.654561 0 
-5.02113e-05 -0.682664 0 
0.0496787 -0.654499 0 
0.0994374 -0.682501 0 
0.149603 -0.655909 0 
0.200573 -0.684972 0 
0.251388 -0.661524 0 
0.302407 -0.639359 0 
0.354397 -0.670836 0 
0.405575 -0.646641 0 
0.457525 -0.67138 0 
0.508497 -0.639623 0 
0.559063 -0.655324 0 
0.603436 -0.675715 0 
0.64769 -0.64769 0 
0.699048 -0.654824 0 
0.750552 -0.660811 0 
-0.789295 -0.614015 0 
-0.73348 -0.60813 0 
-0.675718 -0.603437 0 
-0.613088 -0.613088 0 
-0.55962 -0.604068 0 
-0.506189 -0.588854 0 
-0.455505 -0.618874 0 
-0.403019 -0.594688 0 
-0.352514 -0.618952 0 
-0.300977 -0.586897 0 
-0.250543 -0.608767 0 
-0.200257 -0.632053 0 
-0.150049 -0.601979 0 
-0.0998281 -0.628222 0 
-0.0500377 -0.599914 0 
-3.12334e-05 -0.628076 0 
0.0498927 -0.599835 0 
0.0997818 -0.628253 0 
0.149924 -0.601867 0 
0.200214 -0.632118 0 
0.250423 -0.608915 0 
0.30086 -0.587085 0 
0.352457 -0.619096 0 
0.402948 -0.594743 0 
0.455483 -0.618952 0 
0.506147 -0.588901 0 
0.55964 -0.604067 0 
0.613069 -0.613069 0 
0.675715 -0.603436 0 
0.733462 -0.608151 0 
0.789274 -0.614041 0 
-0.825268 -0.564741 0 
-0.769772 -0.561786 0 
-0.71337 -0.558104 0 
-0.655305 -0.55905 0 
-0.604068 -0.55962 0 
-0.551031 -0.551031 0 
-0.497922 -0.537596 0 
-0.451508 -0.567021 0 
-0.399773 -0.542431 0 
-0.350494 -0.567003 0 
-0.301574 -0.534146 0 
-0.250874 -0.555692 0 
-0.200542 -0.579013 0 
-0.150324 -0.548268 0 
-0.100169 -0.57443 0 
-0.0500152 -0.545912 0 
-3.29278e-05 -0.574268 0 
0.0499208 -0.545788 0 
0.100058 -0.574485 0 
0.150038 -0.548073 0 
0.200377 -0.579041 0 
0.250556 -0.55585 0 
0.301273 -0.534348 0 
0.350318 -0.567174 0 
0.399615 -0.542384 0 
0.451404 -0.5671 0 
0.497945 -0.537702 0 
0.551073 -0.551073 0 
0.604067 -0.55964 0 
0.655324 -0.559063 0 
0.713361 -0.558131 0 
0.769761 -0.561819 0 
0.825243 -0.564777 0 
-0.857917 -0.513788 0 
-0.802945 -0.512908 0 
-0.747856 -0.510673 0 
-0.692659 -0.509495 0 
-0.639581 -0.508501 0 
-0.588854 -0.506189 0 
-0.537596 -0.497922 0 
-0.486157 -0.486157 0 
-0.444928 -0.512952 0 
-0.401787 -0.486784 0 
-0.351685 -0.513639 0 
-0.299695 -0.48291 0 
-0.250032 -0.503 0 
-0.200501 -0.526165 0 
-0.149489 -0.495195 0 
-0.0999281 -0.521367 0 
-0.0499712 -0.492294 0 
4.64723e-05 -0.520999 0 
0.050147 -0.492108 0 
0.099934 -0.52133 0 
0.14957 -0.494692 0 
0.200133 -0.526255 0 
0.249839 -0.503309 0 
0.299839 -0.483005 0 
0.351514 -0.513798 0 
0.401881 -0.486608 0 
0.444935 -0.513054 0 
0.486228 -0.486228 0 
0.537702 -0.497945 0 
0.588901 -0.506147 0 
0.639623 -0.508497 0 
0.692668 -0.509524 0 
0.747859 -0.510716 0 
0.802929 -0.512965 0 
0.857885 -0.513842 0 
-0.887039 -0.461695 0 
-0.832348 -0.462372 0 
-0.778365 -0.460836 0 
-0.724356 -0.45935 0 
-0.671321 -0.457509 0 
-0.618874 -0.455505 0 
-0.567021 -0.451508 0 
-0.512952 -0.444928 0 
-0.450685 -0.450685 0 
-0.397667 -0.437543 0 
-0.348492 -0.462546 0 
-0.295416 -0.432968 0 
-0.247004 -0.450633 0 
-0.198702 -0.473818 0 
-0.150161 -0.441625 0 
-0.100085 -0.468395 0 
-0.0502271 -0.439281 0 
0.000144229 -0.468374 0 
0.0504178 -0.439106 0 
0.100428 -0.468348 0 
0.150697 -0.441105 0 
0.199103 -0.473881 0 
0.247983 -0.450921 0 
0.296569 -0.432268 0 
0.348831 -0.462562 0 
0.397506 -0.4368 0 
0.450637 -0.450637 0 
0.513054 -0.444935 0 
0.5671 -0.451404 0 
0.618952 -0.455483 0 
0.67138 -0.457525 0 
0.724407 -0.459374 0 
0.778382 -0.460863 0 
0.83234 -0.462414 0 
0.887011 -0.461748 0 
-0.912466 -0.409153 0 
-0.857936 -0.411157 0 
-0.804631 -0.410124 0 
-0.751554 -0.408794 0 
-0.698865 -0.407328 0 
-0.646545 -0.405555 0 
-0.594688 -0.403019 0 
-0.542431 -0.399773 0 
-0.486784 -0.401787 0 
-0.437543 -0.397667 0 
-0.387256 -0.387256 0 
-0.344215 -0.411459 0 
-0.30136 -0.381507 0 
-0.25021 -0.395692 0 
-0.200211 -0.419975 0 
-0.150955 -0.389014 0 
-0.100617 -0.416095 0 
-0.0503197 -0.386922 0 
-4.02994e-05 -0.416525 0 
0.05006 -0.386948 0 
0.100784 -0.416323 0 
0.150432 -0.388572 0 
0.200855 -0.420694 0 
0.25086 -0.396905 0 
0.301746 -0.379789 0 
0.344135 -0.410678 0 
0.385823 -0.385823 0 
0.4368 -0.397506 0 
0.486608 -0.401881 0 
0.542384 -0.399615 0 
0.594743 -0.402948 0 
0.646641 -0.405575 0 
0.698945 -0.407371 0 
0.751626 -0.408863 0 
0.804654 -0.410181 0 
0.857929 -0.411236 0 
0.912429 -0.409236 0 
-0.934288 -0.356519 0 
-0.879963 -0.359855 0 
-0.827415 -0.358606 0 
-0.774971 -0.357337 0 
-0.722823 -0.355968 0 
-0.670703 -0.354417 0 
-0.618952 -0.352514 0 
-0.567003 -0.350494 0 
-0.513639 -0.351685 0 
-0.462546 -0.348492 0 
-0.411459 -0.344215 0 
-0.351697 -0.351697 0 
-0.29839 -0.336232 0 
-0.249846 -0.342529 0 
-0.200971 -0.367271 0 
-0.149995 -0.337521 0 
-0.100435 -0.3646 0 
-0.0498692 -0.335025 0 
-6.88684e-05 -0.365025 0 
0.0495433 -0.334795 0 
0.0996798 -0.364834 0 
0.148162 -0.337172 0 
0.199644 -0.368939 0 
0.24763 -0.345582 0 
0.295348 -0.332889 0 
0.34978 -0.34978 0 
0.410678 -0.344135 0 
0.462562 -0.348831 0 
0.513798 -0.351514 0 
0.567174 -0.350318 0 
0.619096 -0.352457 0 
0.670836 -0.354397 0 
0.722893 -0.355952 0 
0.775038 -0.357323 0 
0.827419 -0.358581 0 
0.879943 -0.359894 0 
0.93426 -0.356593 0 
-0.952721 -0.303845 0 
-0.898929 -0.308871 0 
-0.847481 -0.306888 0 
-0.795641 -0.305781 0 
-0.743684 -0.304815 0 
-0.691387 -0.303722 0 
-0.639219 -0.302427 0 
-0.586897 -0.300977 0 
-0.534146 -0.301574 0 
-0.48291 -0.299695 0 
-0.432968 -0.295416 0 
-0.381507 -0.30136 0 
-0.336232 -0.29839 0 
-0.288184 -0.288184 0 
-0.242975 -0.290577 0 
-0.198059 -0.315051 0 
-0.148383 -0.285894 0 
-0.0994753 -0.313232 0 
-0.0507184 -0.283118 0 
-0.000202902 -0.313447 0 
0.0500077 -0.282824 0 
0.0988289 -0.312817 0 
0.148102 -0.28482 0 
0.195742 -0.317413 0 
0.240766 -0.295824 0 
0.285014 -0.285014 0 
0.332889 -0.295348 0 
0.379789 -0.301746 0 
0.432268 -0.296569 0 
0.483005 -0.299839 0 
0.534348 -0.301273 0 
0.587085 -0.30086 0 
0.639359 -0.302407 0 
0.691518 -0.303753 0 
0.743741 -0.304862 0 
0.795701 -0.305831 0 
0.847482 -0.306946 0 
0.898924 -0.308979 0 
0.952687 -0.303953 0 
-0.96803 -0.250833 0 
-0.916037 -0.258282 0 
-0.866979 -0.254732 0 
-0.816639 -0.25358 0 
-0.765535 -0.252907 0 
-0.71362 -0.252254 0 
-0.661417 -0.251503 0 
-0.608767 -0.250543 0 
-0.555692 -0.250874 0 
-0.503 -0.250032 0 
-0.450633 -0.247004 0 
-0.395692 -0.25021 0 
-0.342529 -0.249846 0 
-0.290577 -0.242975 0 
-0.239946 -0.239946 0 
-0.194478 -0.26004 0 
-0.151293 -0.23238 0 
-0.101048 -0.260904 0 
-0.0503938 -0.232537 0 
-0.000203281 -0.262984 0 
0.050638 -0.232316 0 
0.100942 -0.260855 0 
0.152412 -0.232597 0 
0.195768 -0.261421 0 
0.241873 -0.241873 0 
0.295824 -0.240766 0 
0.345582 -0.24763 0 
0.396905 -0.25086 0 
0.450921 -0.247983 0 
[...]
POINT_DATA 1245 
VECTORS vectors float
0.221136 -0.381939 0.962738 
0.313963 0.246956 0.559448 
0.178679 -0.258362 0.81925 
-0.303586 0.184953 0.947862 
-0.0954286 -0.296877 0.549984 
0.0653464 0.155475 0.55702 
-0.180081 -0.160559 0.885498 
-0.064653 -0.426688 0.860102 
-0.46514 -0.497127 0.53608 
-0.0182894 -0.35538 0.693305 
-0.270386 -0.38913 0.73942 
0.210642 0.0965308 0.849066 
-0.474642 -0.330374 0.924422 
0.153868 -0.15602 0.695583 
-0.0134878 -0.24693 0.880356 
0.131112 0.0948307 0.605967 
0.14772 -0.397506 0.756703 
0.142782 -0.464533 0.873044 
-0.132631 0.270367 0.867073 
-0.126576 0.415095 0.94263 
-0.342159 -0.372377 0.948407 
-0.112184 -0.387563 0.695382 
-0.355006 -0.424753 0.679159 
-0.363927 0.0107517 0.926527 
-0.434917 0.1119 0.977503 
0.25737 0.123118 0.71869 
0.351698 -0.0332311 0.624309 
-0.127917 0.0229054 0.573556 
0.246961 0.431663 0.898485 
-0.0180394 0.00813436 0.813109 
0.242847 -0.442563 0.679696 
0.106241 -0.142829 0.831951 
-0.351764 0.31471 0.579344 
-0.00900162 -0.321965 0.594348 
-0.0299314 0.0177896 0.863131 
0.293314 -0.395512 0.691844 
0.0376365 0.492382 0.776343 
0.147734 0.315035 0.545987 
0.336706 0.0197179 0.68608 
-0.103679 0.196148 0.71077 
0.131327 -0.368659 0.831212 
-0.371494 -0.338541 0.827704 
0.266258 -0.498042 0.57586 
-0.488545 0.177503 0.989561 
0.107375 -0.219915 0.945039 
0.185852 0.31144 0.620749 
-0.370916 -0.230582 0.642192 
0.483125 0.43354 0.849272 
-0.170426 0.42136 0.623102 
-0.450468 0.483984 0.718253 
-0.321217 0.382772 0.71846 
-0.28713 0.367391 0.556802 
-0.440011 0.00211977 0.93728 
0.310307 0.329169 0.796694 
0.174688 -0.239123 0.891544 
-0.260298 -0.251793 0.637579 
-0.263775 -0.264056 0.510723 
0.171542 0.122993 0.993809 
-0.262799 -0.351821 0.799367 
-0.336574 -0.119111 0.830223 
-0.405373 -0.43096 0.641275 
0.0590032 0.478969 0.996255 
0.412869 0.381196 0.709435 
0.431656 -0.152087 0.693212 
0.492401 0.256838 0.5474 
-0.455799 0.0328462 0.678603 
0.124027 0.367916 0.608112 
-0.326282 -0.470389 0.946688 
0.141112 0.473472 0.684867 
-0.350532 -0.079051 0.663091 
0.383587 0.103407 0.659271 
-0.265893 -0.0601197 0.518571 
0.0212438 -0.122948 0.826283 
-0.0299336 -0.347286 0.609263 
0.169768 -0.156689 0.611278 
-0.0917539 0.100219 0.91371 
-0.121559 -0.458898 0.872948 
-0.466986 0.368486 0.878943 
0.0809744 -0.122931 0.886062 
-0.0293548 0.212283 0.998745 
0.465565 -0.247258 0.676721 
-0.425084 0.0327844 0.829964 
-0.165081 0.099131 0.787274 
0.374109 -0.139855 0.909774 
-0.0432373 -0.0210715 0.61389 
0.282257 -0.067855 0.858309 
-0.392142 -0.244705 0.690487 
-0.279318 0.439506 0.728335 
-0.0569065 -0.173159 0.762789 
0.0328185 -0.0250702 0.624461 
0.44712 -0.416887 0.674335 
0.11662 -0.216188 0.603948 
-0.291216 -0.453153 0.648078 
-0.483181 0.299961 0.640951 
0.186811 -0.266514 0.585903 
0.111133 -0.177873 0.523921 
-0.340367 0.202762 0.769631 
0.473636 -0.491546 0.549936 
-0.45736 0.229643 0.833724 
0.173128 -0.116789 0.623997 
0.357233 -0.227123 0.756524 
-0.369901 -0.474474 0.866463 
0.0725021 -0.236206 0.747031 
0.018886 -0.348703 0.981283 
-0.461881 -0.354161 0.775925 
0.28267 0.380751 0.746699 
0.489294 0.26139 0.925086 
0.029278 -0.464593 0.925097 
0.00431903 0.108791 0.906744 
0.325572 -0.204478 0.602591 
-0.151991 -0.0223331 0.550495 
-0.139249 -0.317662 0.845776 
-0.0572224 0.0164929 0.622387 
-0.0911707 -0.165846 0.965593 
0.479485 -0.066144 0.920781 
-0.0447667 0.132537 0.515831 
0.00889125 0.485413 0.677084 
-0.344048 0.138024 0.596333 
-0.0707575 0.0276062 0.834015 
-0.171513 0.047521 0.99342 
-0.230213 -0.437689 0.727036 
-0.123904 0.391711 0.645273 
0.453813 -0.499782 0.768844 
0.0321085 0.232325 0.530595 
-0.0285117 -0.258769 0.836334 
0.468964 -0.229575 0.75673 
-0.176364 -0.106287 0.76896 
-0.0213556 0.364162 0.728582 
-0.45504 0.468914 0.679479 
0.282474 -0.0106435 0.585081 
-0.347472 -0.178895 0.574448 
0.135165 -0.0838665 0.724462 
0.367104 0.105787 0.550832 
-0.0778523 0.393333 0.714167 
0.364163 0.160052 0.595766 
0.264995 0.192618 0.653735 
-0.186741 -0.221771 0.594569 
-0.485748 -0.324064 0.995241 
-0.309025 -0.230253 0.6413 
-0.055071 0.406754 0.707131 
-0.215772 -0.00392826 0.717629 
-0.0812027 0.304331 0.720339 
-0.274208 -0.418422 0.570504 
0.231261 0.0558711 0.847618 
0.108856 -0.0168367 0.6252 
0.0651141 -0.355473 0.882287 
0.424921 -0.150237 0.52326 
0.201254 0.370216 0.605295 
-0.3398 -0.193116 0.824744 
-0.414276 0.34492 0.565582 
-0.0803842 -0.113165 0.519076 
-0.0192609 -0.18612 0.976177 
-0.498429 -0.232838 0.870848 
0.0830451 -0.153892 0.818324 
-0.314444 0.284896 0.690865 
0.144741 0.183128 0.653215 
0.45342 -0.0070167 0.634535 
0.0121523 0.0207905 0.859658 
0.0616523 0.288958 0.739775 
0.111242 -0.49168 0.752076 
-0.0308204 0.365137 0.876795 
-0.0107036 0.445707 0.938831 
-0.39411 0.117815 0.53766 
0.401767 0.366149 0.532855 
0.328986 0.351133 0.807484 
0.118219 0.249283 0.599144 
-0.0787311 0.0345451 0.512695 
0.107645 -0.440591 0.74035 
0.0243494 0.445698 0.676568 
0.0179883 0.359338 0.620949 
-0.000917621 0.12391 0.84317 
-0.317757 -0.244312 0.542369 
0.332189 -0.133049 0.744708 
-0.0910796 0.164074 0.544064 
0.347704 0.435532 0.644895 
-0.0534355 -0.326359 0.936586 
-0.387822 -0.112993 0.581315 
0.216412 0.20387 0.59085 
-0.177699 0.176137 0.58658 
-0.252153 -0.149697 0.925218 
-0.180531 -0.132508 0.806134 
-0.0578806 -0.0112659 0.836835 
0.379443 0.0245665 0.945769 
-0.191984 -0.401939 0.664169 
-0.280697 0.43593 0.927938 
-0.215741 -0.341725 0.892001 
0.271953 -0.026137 0.561745 
0.0182196 -0.347353 0.58737 
-0.161348 -0.38429 0.971593 
-0.409666 0.433091 0.945369 
0.199748 -0.445955 0.631891 
-0.164007 0.304053 0.755971 
-0.191498 -0.0324004 0.714257 
-0.214245 0.045943 0.928115 
0.338355 0.42488 0.888173 
-0.00984708 0.230222 0.835881 
0.0455957 -0.351051 0.649973 
-0.346991 -0.355679 0.750995 
0.463578 -0.0891474 0.948178 
-0.164163 -0.192801 0.758097 
0.0550709 -0.123921 0.810172 
0.37201 0.118718 0.796764 
0.0696115 0.364877 0.536261 
-0.0878451 -0.382993 0.560811 
-0.0945106 0.0914749 0.977836 
0.177689 0.137122 0.992635 
0.193353 -0.113187 0.895433 
0.450363 0.0117556 0.845311 
0.39808 0.396968 0.973663 
-0.29836 -0.431711 0.830641 
0.00787579 0.131549 0.633063 
0.162212 0.472838 0.943491 
0.318986 0.019861 0.534366 
-0.476211 -0.080464 0.92368 
0.245429 0.290747 0.614947 
0.271813 0.0231749 0.902972 
0.0702792 0.0635087 0.77513 
0.0155612 -0.411903 0.524156 
-0.0503439 0.366874 0.96421 
0.428122 0.420409 0.525893 
0.431314 -0.0696739 0.711808 
-0.0571054 -0.321524 0.683249 
-0.273038 -0.189847 0.673802 
0.315319 0.256393 0.793398 
-0.394006 -0.203513 0.910297 
-0.428106 -0.214068 0.917999 
0.4158 0.166288 0.96126 
0.162431 -0.385971 0.662336 
0.346049 -0.130149 0.604818 
0.199889 -0.430598 0.849994 
-0.437807 0.196816 0.529649 
0.0584916 0.28407 0.68646 
0.452036 -0.486879 0.975544 
-0.0605632 -0.168992 0.730736 
-0.381227 -0.16412 0.600524 
0.112883 0.238398 0.662096 
-0.343938 -0.383823 0.983325 
0.244101 -0.0538263 0.686337 
-0.486733 -0.386321 0.980935 
0.098838 0.184163 0.813189 
-0.0772654 0.112903 0.547797 
0.436406 0.387631 0.591069 
0.0862663 -0.288979 0.627869 
0.325224 -0.206858 0.913441 
0.496464 0.244214 0.966883 
-0.145989 -0.443047 0.717877 
0.478777 0.022587 0.746971 
-0.150519 0.342286 0.591104 
-0.395014 0.498287 0.956002 
-0.407264 0.0600256 0.78999 
0.0764081 0.0529439 0.960854 
-0.0234907 -0.113621 0.647734 
-0.437074 0.105992 0.657427 
0.210509 -0.257863 0.985274 
-0.289025 0.0427215 0.536765 
0.0445188 0.449215 0.758778 
-0.114635 0.417972 0.648563 
0.138541 -0.253538 0.674749 
0.282945 0.0243821 0.853984 
0.111567 0.17754 0.904181 
-0.195158 0.124159 0.747173 
0.343541 -0.0887408 0.778913 
-0.13591 0.0458501 0.905009 
0.356461 0.137171 0.949281 
-0.273722 -0.0972555 0.985047 
-0.190007 0.0453974 0.939358 
-0.30381 0.0405125 0.56675 
0.348911 0.178403 0.754004 
-0.265375 -0.0956257 0.512267 
0.192983 -0.427507 0.649773 
-0.187585 0.0134239 0.67107 
0.0852283 -0.394402 0.570596 
-0.422612 0.19944 0.809974 
0.316493 -0.149333 0.971711 
0.4605 -0.0553276 0.923416 
0.326578 0.164617 0.902372 
0.0678114 -0.130755 0.685621 
-0.14764 0.349359 0.781357 
0.255878 0.348328 0.510849 
0.21346 0.19963 0.868836 
-0.277381 -0.130526 0.552089 
0.235347 0.289931 0.968075 
0.348761 0.142821 0.585176 
0.258931 -0.384854 0.93701 
-0.372401 0.295704 0.967798 
0.422542 0.301852 0.719992 
0.282483 -0.0296304 0.536413 
-0.390869 0.428864 0.950442 
0.144605 -0.193129 0.845833 
-0.00705875 -0.0612761 0.991455 
-0.156871 0.282188 0.942836 
0.019915 -0.443172 0.801896 
0.0804873 0.400307 0.900656 
0.478213 -0.140481 0.660765 
0.287054 -0.449251 0.822623 
-0.212251 0.428771 0.748759 
-0.0396832 0.293402 0.772232 
-0.421857 0.452393 0.691697 
-0.169751 -0.318146 0.9825 
0.447561 -0.0736613 0.909622 
-0.457116 0.118479 0.66849 
0.427104 0.479687 0.67866 
-0.412925 0.0498039 0.84007 
-0.460155 0.330366 0.786043 
0.352547 0.394106 0.613165 
-0.0770839 -0.283913 0.688241 
0.234273 0.327091 0.882999 
0.0204859 -0.217669 0.527635 
-0.20221 -0.382451 0.810092 
0.389193 0.00203436 0.956312 
-0.0785341 0.4211 0.504072 
0.442528 -0.0413287 0.794904 
-0.227087 -0.386331 0.542855 
0.122079 0.298018 0.729216 
-0.122544 0.141138 0.692816 
0.223478 0.228297 0.913454 
-0.177698 -0.410773 0.655551 
-0.392536 -0.273269 0.788297 
0.493697 0.259824 0.746307 
-0.234052 0.424136 0.928819 
0.417898 -0.307408 0.537293 
0.0395782 -0.402967 0.885964 
0.0242961 0.390509 0.685305 
0.370035 -0.291525 0.929201 
-0.381419 -0.136152 0.834132 
0.262256 0.0432573 0.537541 
0.443793 0.448023 0.570231 
-0.483892 0.407605 0.712338 
0.422322 0.261678 0.843852 
0.286657 -0.0940396 0.791906 
0.205352 0.469166 0.757094 
-0.074664 0.141696 0.771873 
-0.2607 0.456282 0.648017 
-0.220291 -0.472138 0.865381 
-0.0942922 0.351501 0.757675 
0.160033 0.461927 0.603499 
-0.0239162 0.140458 0.799485 
-0.418886 0.276851 0.531793 
-0.414823 -0.137794 0.727691 
-0.256307 -0.19153 0.587257 
-0.230666 0.453025 0.692177 
-0.157848 -0.09479 0.559034 
-0.477234 -0.1061 0.953671 
-0.254884 -0.039221 0.533079 
0.376806 -0.109802 0.975475 
0.202371 0.265681 0.723388 
0.150915 -0.104609 0.777263 
0.222064 -0.487615 0.989266 
-0.486149 -0.132898 0.884004 
0.399917 -0.377102 0.758495 
-0.418095 -0.278709 0.730405 
-0.454557 0.225022 0.882429 
0.490562 -0.422573 0.64847 
-0.0241295 0.459794 0.663434 
-0.476279 -0.216022 0.516836 
0.376535 0.063507 0.834473 
0.405132 0.157305 0.699786 
0.490195 0.4088 0.769824 
0.276533 0.497347 0.561225 
-0.300015 0.143221 0.717448 
-0.402956 -0.124922 0.866582 
0.283686 -0.480702 0.935009 
0.0159689 -0.0779203 0.918724 
0.34889 -0.123531 0.819829 
-0.188697 -0.130095 0.586438 
0.384783 0.0257165 0.501994 
0.442099 0.234344 0.56104 
-0.458868 -0.133938 0.555607 
0.0671245 -0.443369 0.839954 
0.053914 -0.231025 0.704291 
-0.167501 0.378053 0.56704 
-0.154682 -0.315166 0.983784 
-0.196258 -0.199425 0.991816 
0.476645 0.291072 0.609846 
0.0990598 -0.455341 0.736584 
-0.0827134 -0.268922 0.971276 
0.0301516 -0.0528492 0.816189 
0.18002 0.323058 0.636445 
0.303728 0.440732 0.975511 
0.177989 0.196339 0.765993 
0.336233 -0.3776 0.775917 
0.287678 0.255891 0.538415 
-0.452636 0.0918711 0.967479 
-0.24004 0.23676 0.606126 
0.436958 -0.142621 0.998518 
-0.240031 -0.439036 0.974878 
0.0966733 -0.418997 0.669153 
-0.311535 -0.426714 0.569192 
0.413904 -0.136596 0.7443 
-0.038023 -0.272539 0.845231 
-0.474038 -0.181858 0.826581 
0.280469 -0.200489 0.767928 
-0.0617236 -0.405973 0.511143 
-0.397108 0.474344 0.880792 
-0.22051 -0.061399 0.963206 
0.0817618 0.00392768 0.705162 
0.126244 -0.222665 0.740174 
-0.0373824 -0.241033 0.659888 
0.380367 -0.375769 0.829408 
0.188862 0.361755 0.61096 
-0.484586 0.0307262 0.540812 
0.0838952 0.186093 0.866104 
-0.275732 0.05365 0.805614 
-0.228217 0.0172834 0.712205 
-0.307502 0.217508 0.621276 
0.283993 0.00477265 0.641425 
-0.263409 0.311231 0.969136 
-0.451114 -0.259941 0.868067 
0.45915 0.309976 0.954424 
-0.401711 -0.157659 0.731523 
0.112726 -0.172479 0.610949 
0.109416 0.15273 0.610416 
-0.224196 -0.00249794 0.956427 
0.355406 -0.274162 0.801188 
-0.0461589 0.00799337 0.891405 
0.0559782 -0.0033566 0.92079 
0.411217 -0.125898 0.730081 
-0.494083 -0.0964586 0.760544 
-0.0942695 -0.137675 0.71134 
-0.249472 -0.335193 0.88518 
0.380011 0.490147 0.865924 
0.209065 -0.227563 0.916359 
0.314998 -0.19828 0.995901 
0.227666 0.403917 0.847139 
0.458136 -0.117478 0.64213 
0.209986 -0.194314 0.997484 
-0.0616979 0.122993 0.876783 
0.30464 0.458356 0.804229 
0.435622 0.205496 0.847925 
-0.06937 -0.383227 0.885542 
0.166753 -0.236185 0.81667 
-0.37713 0.319013 0.926819 
-0.156997 0.0977296 0.898916 
-0.174914 0.115344 0.505189 
-0.107498 -0.0169429 0.665004 
-0.0976088 0.338362 0.955954 
0.309452 0.1371 0.772245 
0.30939 -0.365126 0.700991 
-0.330306 -0.369414 0.553335 
0.120434 0.467911 0.500164 
0.372331 0.12177 0.574284 
-0.210984 0.37346 0.892657 
-0.359143 0.0113351 0.902687 
0.276552 -0.177731 0.741058 
0.375666 0.16385 0.662187 
0.232818 0.228987 0.687012 
-0.0320356 -0.309301 0.740722 
0.198466 0.236424 0.851051 
-0.333373 0.498291 0.8432 
0.138857 -0.330458 0.514543 
-0.0331264 0.16463 0.673718 
0.415457 0.231922 0.688238 
-0.181089 0.149282 0.895574 
-0.286397 0.208512 0.977374 
0.424371 0.012928 0.564297 
-0.305251 0.214027 0.688471 
-0.183812 0.359418 0.866053 
0.0108682 -0.209617 0.734709 
-0.109302 -0.487416 0.959518 
-0.481172 0.341474 0.970654 
0.34575 -0.0873347 0.824243 
0.488993 0.39135 0.945011 
0.0081958 -0.429464 0.871604 
-0.166711 -0.0974134 0.926018 
-0.169033 -0.182005 0.53422 
0.445194 0.460201 0.93179 
-0.165632 -0.432921 0.794256 
0.353443 -0.293432 0.870813 
0.349191 -0.482601 0.983266 
-0.309672 0.462372 0.617303 
0.155221 0.468882 0.904482 
-0.153503 0.0299365 0.520755 
0.462251 -0.0346408 0.683664 
-0.120478 0.196607 0.813799 
-0.237799 -0.213923 0.687458 
-0.353184 -0.0425719 0.666978 
0.389874 0.312011 0.635107 
-0.289872 -0.270556 0.668318 
0.258665 0.211063 0.992923 
0.11685 0.237031 0.64613 
0.0120884 0.269127 0.905646 
-0.417036 -0.0299359 0.72394 
0.426359 -0.102086 0.917607 
0.42152 0.273924 0.72077 
-0.11332 0.279848 0.88564 
-0.481721 0.00696128 0.827437 
-0.254681 0.396464 0.692146 
0.185969 -0.353675 0.673028 
-0.195869 -0.462743 0.630601 
0.118011 -0.336206 0.732551 
0.203962 0.0796623 0.955942 
0.0334195 0.0676746 0.773545 
0.224381 0.40995 0.700953 
-0.346803 0.220694 0.701134 
-0.364251 0.463638 0.838248 
0.37582 0.426813 0.919307 
0.127126 0.0416996 0.894459 
0.400009 0.236706 0.53069 
0.113759 -0.082324 0.789053 
-0.231023 -0.198752 0.845458 
0.230803 0.0213515 0.611085 
0.385855 -0.270044 0.533249 
-0.233646 0.279434 0.944674 
0.226194 -0.0207642 0.624938 
-0.0485302 0.483802 0.555563 
0.456103 0.47145 0.866993 
-0.281306 0.471572 0.743092 
-0.460243 -0.268844 0.979405 
-0.042221 -0.250687 0.938984 
-0.275896 0.0402103 0.688741 
-0.102453 -0.458868 0.837542 
0.276877 -0.327585 0.637637 
-0.142786 0.156412 0.561033 
-0.435061 0.050307 0.510065 
-0.0309031 -0.458367 0.679971 
-0.463115 -0.498739 0.731555 
0.120101 0.439893 0.86486 
-0.451374 -0.292212 0.785595 
0.346939 -0.0988376 0.917287 
0.283791 -0.0945481 0.97007 
0.235497 0.328551 0.513558 
0.292113 -0.396627 0.63818 
-0.133649 -0.128355 0.540258 
0.270429 -0.396584 0.851966 
-0.495688 -0.386377 0.990568 
0.36974 0.0173723 0.86873 
-0.467884 0.213536 0.904774 
0.249906 -0.149798 0.947675 
0.173798 0.34169 0.877933 
-0.307582 -0.366292 0.539528 
0.347145 -0.0601416 0.785138 
0.098282 -0.00706617 0.528501 
0.130235 -0.444017 0.961285 
-0.111681 -0.498074 0.827912 
0.367737 -0.0254086 0.832633 
-0.454064 0.243656 0.745589 
-0.354481 0.1807 0.948979 
0.0484666 -0.338904 0.987764 
-0.266499 0.410887 0.762641 
-0.0203446 -0.31346 0.759862 
0.398239 -0.257883 0.958496 
0.036957 0.176311 0.565522 
0.152882 0.127528 0.98309 
0.0577421 -0.471445 0.509486 
-0.0278064 -0.222457 0.611439 
-0.292514 0.100051 0.969202 
0.181636 0.319342 0.511817 
0.382782 -0.263631 0.877213 
0.303372 0.23029 0.929461 
0.082237 0.23301 0.972816 
0.189889 -0.486324 0.576164 
-0.184971 0.1965 0.562565 
0.320672 -0.333212 0.684284 
0.487562 -0.355667 0.557894 
-0.0352632 0.418989 0.503092 
0.392191 0.159223 0.629748 
-0.272911 -0.127255 0.632677 
0.285313 -0.218931 0.985021 
0.167146 -0.323528 0.56562 
0.127941 0.2932 0.805168 
0.496258 0.183326 0.954784 
-0.333164 -0.393051 0.912966 
0.156029 -0.0551504 0.905724 
0.465711 0.327105 0.782937 
0.306085 -0.117055 0.666839 
-0.0303322 -0.331066 0.973242 
0.0168465 0.104617 0.974723 
-0.424902 0.0722537 0.556181 
-0.107575 0.477157 0.904063 
-0.332656 -0.175181 0.654198 
0.241936 -0.0833463 0.770018 
0.200273 -0.401925 0.735166 
0.0791995 0.478605 0.80113 
-0.427549 0.470705 0.608386 
-0.448623 -0.215545 0.77436 
0.301919 0.125021 0.533416 
0.177778 -0.0353988 0.544782 
-0.323688 0.0374855 0.98537 
0.370664 -0.232036 0.813556 
0.0403568 0.411143 0.999726 
-0.369384 -0.294318 0.768442 
0.0750148 -0.428362 0.709171 
-0.0159647 -0.458579 0.9317 
-0.282728 0.154385 0.548484 
-0.116883 -0.00399431 0.698722 
-0.283651 -0.392232 0.945221 
-0.448414 0.360882 0.885768 
0.129241 -0.018131 0.531773 
-0.425135 -0.33086 0.802359 
-0.0652356 -0.446722 0.68636 
0.170749 -0.473241 0.999065 
-0.438543 -0.224577 0.957662 
0.422684 0.143767 0.977867 
0.196256 -0.441457 0.650937 
-0.162269 -0.382529 0.522265 
0.145819 0.0512309 0.861213 
0.395996 -0.468264 0.995056 
0.194939 -0.0156242 0.691779 
-0.0111697 0.15223 0.836783 
-0.332016 -0.264467 0.888954 
-0.0447471 0.453092 0.892401 
-0.121232 -0.163663 0.683208 
0.0669993 -0.170089 0.639582 
0.266452 0.180488 0.962154 
-0.421966 -0.260214 0.990117 
0.333899 0.416881 0.878451 
-0.402069 -0.264119 0.962798 
-0.0594626 0.0853155 0.906687 
-0.0182238 -0.0495546 0.745057 
-0.0682684 0.463291 0.587857 
0.370252 -0.246038 0.685763 
0.20357 0.0100199 0.857003 
-0.179909 0.165271 0.552872 
-0.435008 0.0351274 0.624117 
0.206925 -0.476096 0.571002 
-0.21853 -0.0146968 0.78268 
-0.311507 0.0763685 0.585105 
-0.142459 -0.0351381 0.762237 
0.395609 -0.262024 0.711352 
0.493759 -0.210952 0.972313 
0.448982 -0.142575 0.504825 
0.441752 -0.195717 0.622288 
-0.0290372 -0.2462 0.781553 
-0.399455 -0.0955764 0.569105 
0.0261847 -0.155342 0.779009 
-0.332099 0.0374308 0.905328 
-0.400081 0.0286299 0.860675 
-0.381366 -0.12485 0.681095 
0.246824 -0.470757 0.811633 
-0.1944 -0.233249 0.65224 
0.164627 -0.181507 0.97373 
-0.0850461 0.223897 0.664672 
-0.269308 -0.254447 0.841639 
0.372779 -0.450878 0.855 
0.298487 -0.478245 0.782451 
-0.297801 0.0646756 0.602326 
0.10506 -0.332192 0.908084 
0.144231 -0.0767965 0.888049 
0.213475 -0.482787 0.60515 
0.292247 -0.0548234 0.535538 
0.315836 0.0300337 0.806714 
-0.0682532 -0.272512 0.708336 
0.476349 -0.404919 0.841772 
0.413168 0.183937 0.904901 
0.413675 -0.1222 0.714054 
-0.0622987 0.106713 0.828123 
0.151673 -0.427802 0.611065 
0.301141 0.314172 0.880949 
-0.13999 -0.0980144 0.71772 
0.39406 0.349239 0.784907 
-0.437708 -0.358273 0.599598 
0.349922 -0.348172 0.916842 
0.140225 -0.00563873 0.645183 
0.17506 0.415643 0.588645 
-0.152784 0.48508 0.516782 
-0.233079 0.227533 0.841329 
0.483707 -0.403585 0.611914 
0.236924 0.341521 0.98758 
-0.273057 0.338248 0.717526 
-0.0902435 0.440992 0.982011 
0.459196 -0.0230287 0.725024 
0.323001 0.45354 0.616121 
-0.336784 -0.0303977 0.809097 
0.0142166 -0.220867 0.738022 
-0.140776 0.0594345 0.865478 
-0.369591 0.348196 0.55942 
0.368236 -0.0164235 0.985577 
-0.0393736 -0.00654476 0.548624 
0.159916 0.454911 0.756297 
-0.290391 0.29535 0.983685 
0.229524 0.453831 0.648257 
0.470713 0.199354 0.506663 
0.071692 0.216903 0.802589 
-0.00573304 0.380242 0.987649 
-0.280708 -0.416118 0.622639 
0.262909 0.262737 0.639928 
-0.113973 -0.262133 0.583614 
0.403817 -0.452561 0.698271 
-0.390511 -0.289792 0.794442 
-0.227271 -0.0119217 0.5591 
-0.436394 0.0479684 0.983412 
0.45045 0.217098 0.761192 
-0.0692915 0.0171062 0.991506 
0.20564 0.271809 0.858431 
0.172856 0.0850047 0.598144 
-0.166353 0.211807 0.783098 