# vtk DataFile Version 3.0 
Exported using Morpho https://github.com/Morpho-lang/morpho 
ASCII 
DATASET UNSTRUCTURED_GRID 

POINTS 1245 float 
-0.303845 -0.952721 0 
-0.250833 -0.96803 0 
-0.195084 -0.980787 0 
-0.146308 -0.989239 0 
-0.0940719 -0.995565 0 
-0.0475118 -0.998871 0 
-0.000246339 -1 0 
0.0470875 -0.998891 0 
0.0937543 -0.995595 0 
0.146139 -0.989264 0 
0.195062 -0.980791 0 
0.250843 -0.968028 0 
0.303953 -0.952687 0 
-0.409153 -0.912466 0 
-0.356519 -0.934288 0 
-0.308871 -0.898929 0 
-0.258282 -0.916037 0 
-0.207345 -0.934859 0 
-0.154868 -0.930629 0 
-0.104343 -0.948989 0 
-0.0520099 -0.939193 0 
-8.5762e-05 -0.954582 0 
0.0518744 -0.939288 0 
0.104354 -0.949042 0 
0.154696 -0.9306 0 
0.207366 -0.934975 0 
0.258274 -0.916081 0 
0.308979 -0.898924 0 
0.356593 -0.93426 0 
0.409236 -0.912429 0 
-0.513788 -0.857917 0 
-0.461695 -0.887039 0 
-0.411157 -0.857936 0 
-0.359855 -0.879963 0 
-0.306888 -0.847481 0 
-0.254732 -0.866979 0 
-0.201991 -0.889059 0 
-0.149956 -0.874108 0 
-0.100608 -0.900088 0 
-0.0497575 -0.880388 0 
2.4595e-05 -0.904789 0 
0.0496869 -0.8804 0 
0.100612 -0.900177 0 
0.149872 -0.874171 0 
0.202071 -0.889165 0 
0.254695 -0.867031 0 
0.306946 -0.847482 0 
0.359894 -0.879943 0 
0.411236 -0.857929 0 
0.461748 -0.887011 0 
0.513842 -0.857885 0 
-0.564741 -0.825268 0 
-0.512908 -0.802945 0 
-0.462372 -0.832348 0 
-0.410124 -0.804631 0 
-0.358606 -0.827415 0 
-0.305781 -0.795641 0 
-0.25358 -0.816639 0 
-0.200756 -0.839997 0 
-0.149043 -0.818944 0 
-0.0987265 -0.846667 0 
-0.0490473 -0.822548 0 
5.00659e-05 -0.849932 0 
0.0490834 -0.822542 0 
0.0987838 -0.846676 0 
0.148997 -0.818924 0 
0.200826 -0.840131 0 
0.253508 -0.816728 0 
0.305831 -0.795701 0 
0.358581 -0.827419 0 
0.410181 -0.804654 0 
0.462414 -0.83234 0 
0.512965 -0.802929 0 
0.564777 -0.825243 0 
-0.660798 -0.750564 0 
-0.614015 -0.789295 0 
-0.561786 -0.769772 0 
-0.510673 -0.747856 0 
-0.460836 -0.778365 0 
-0.408794 -0.751554 0 
-0.357337 -0.774971 0 
-0.304815 -0.743684 0 
-0.252907 -0.765535 0 
-0.200631 -0.789263 0 
-0.149244 -0.764328 0 
-0.0986912 -0.791935 0 
-0.0492815 -0.765764 0 
4.16586e-05 -0.79382 0 
0.0492411 -0.765708 0 
0.0987508 -0.791951 0 
0.149196 -0.764326 0 
0.200666 -0.789356 0 
0.252841 -0.765599 0 
0.304862 -0.743741 0 
0.357323 -0.775038 0 
0.408863 -0.751626 0 
0.460863 -0.778382 0 
0.510716 -0.747859 0 
0.561819 -0.769761 0 
0.614041 -0.789274 0 
0.660811 -0.750552 0 
-0.707107 -0.707107 0 
-0.654819 -0.699058 0 
-0.60813 -0.73348 0 
-0.558104 -0.71337 0 
-0.509495 -0.692659 0 
-0.45935 -0.724356 0 
-0.407328 -0.698865 0 
-0.355968 -0.722823 0 
-0.303722 -0.691387 0 
-0.252254 -0.71362 0 
-0.20067 -0.737336 0 
-0.149608 -0.710068 0 
-0.0991558 -0.737129 0 
-0.0495872 -0.709825 0 
-2.23646e-05 -0.737917 0 
0.0494408 -0.709766 0 
0.0991291 -0.737116 0 
0.149502 -0.710042 0 
0.200696 -0.73743 0 
0.252186 -0.713735 0 
0.303753 -0.691518 0 
0.355952 -0.722893 0 
0.407371 -0.698945 0 
0.459374 -0.724407 0 
0.509524 -0.692668 0 
0.558131 -0.713361 0 
0.608151 -0.733462 0 
0.654824 -0.699048 0 
0.707107 -0.707107 0 
-0.750564 -0.660798 0 
-0.699058 -0.654819 0 
-0.647692 -0.647692 0 
-0.603437 -0.675718 0 
-0.55905 -0.655305 0 
-0.508501 -0.639581 0 
-0.457509 -0.671321 0 
-0.405555 -0.646545 0 
-0.354417 -0.670703 0 
-0.302427 -0.639219 0 
-0.251503 -0.661417 0 
-0.20061 -0.684911 0 
-0.149717 -0.655943 0 
-0.0995004 -0.682466 0 
-0.0498216 -0.654561 0 
-5.02113e-05 -0.682664 0 
0.0496787 -0.654499 0 
0.0994374 -0.682501 0 
0.149603 -0.655909 0 
0.200573 -0.684972 0 
0.251388 -0.661524 0 
0.302407 -0.639359 0 
0.354397 -0.670836 0 
0.405575 -0.646641 0 
0.457525 -0.67138 0 
0.508497 -0.639623 0 
0.559063 -0.655324 0 
0.603436 -0.675715 0 
0.64769 -0.64769 0 
0.699048 -0.654824 0 
0.750552 -0.660811 0 
-0.789295 -0.614015 0 
-0.73348 -0.60813 0 
-0.675718 -0.603437 0 
-0.613088 -0.613088 0 
-0.55962 -0.604068 0 
-0.506189 -0.588854 0 
-0.455505 -0.618874 0 
-0.403019 -0.594688 0 
-0.352514 -0.618952 0 
-0.300977 -0.586897 0 
-0.250543 -0.608767 0 
-0.200257 -0.632053 0 
-0.150049 -0.601979 0 
-0.0998281 -0.628222 0 
-0.0500377 -0.599914 0 
-3.12334e-05 -0.628076 0 
0.0498927 -0.599835 0 
0.0997818 -0.628253 0 
0.149924 -0.601867 0 
0.200214 -0.632118 0 
0.250423 -0.608915 0 
0.30086 -0.587085 0 
0.352457 -0.619096 0 
0.402948 -0.594743 0 
0.455483 -0.618952 0 
0.506147 -0.588901 0 
0.55964 -0.604067 0 
0.613069 -0.613069 0 
0.675715 -0.603436 0 
0.733462 -0.608151 0 
0.789274 -0.614041 0 
-0.825268 -0.564741 0 
-0.769772 -0.561786 0 
-0.71337 -0.558104 0 
-0.655305 -0.55905 0 
-0.604068 -0.55962 0 
-0.551031 -0.551031 0 
-0.497922 -0.537596 0 
-0.451508 -0.567021 0 
-0.399773 -0.542431 0 
-0.350494 -0.567003 0 
-0.301574 -0.534146 0 
-0.250874 -0.555692 0 
-0.200542 -0.579013 0 
-0.150324 -0.548268 0 
-0.100169 -0.57443 0 
-0.0500152 -0.545912 0 
-3.29278e-05 -0.574268 0 
0.0499208 -0.545788 0 
0.100058 -0.574485 0 
0.150038 -0.548073 0 
0.200377 -0.579041 0 
0.250556 -0.55585 0 
0.301273 -0.534348 0 
0.350318 -0.567174 0 
0.399615 -0.542384 0 
0.451404 -0.5671 0 
0.497945 -0.537702 0 
0.551073 -0.551073 0 
0.604067 -0.55964 0 
0.655324 -0.559063 0 
0.713361 -0.558131 0 
0.769761 -0.561819 0 
0.825243 -0.564777 0 
-0.857917 -0.513788 0 
-0.802945 -0.512908 0 
-0.747856 -0.510673 0 
-0.692659 -0.509495 0 
-0.639581 -0.508501 0 
-0.588854 -0.506189 0 
-0.537596 -0.497922 0 
-0.486157 -0.486157 0 
-0.444928 -0.512952 0 
-0.401787 -0.486784 0 
-0.351685 -0.513639 0 
-0.299695 -0.48291 0 
-0.250032 -0.503 0 
-0.200501 -0.526165 0 
-0.149489 -0.495195 0 
-0.0999281 -0.521367 0 
-0.0499712 -0.492294 0 
4.64723e-05 -0.520999 0 
0.050147 -0.492108 0 
0.099934 -0.52133 0 
0.14957 -0.494692 0 
0.200133 -0.526255 0 
0.249839 -0.503309 0 
0.299839 -0.483005 0 
0.351514 -0.513798 0 
0.401881 -0.486608 0 
0.444935 -0.513054 0 
0.486228 -0.486228 0 
0.537702 -0.497945 0 
0.588901 -0.506147 0 
0.639623 -0.508497 0 
0.692668 -0.509524 0 
0.747859 -0.510716 0 
0.802929 -0.512965 0 
0.857885 -0.513842 0 
-0.887039 -0.461695 0 
-0.832348 -0.462372 0 
-0.778365 -0.460836 0 
-0.724356 -0.45935 0 
-0.671321 -0.457509 0 
-0.618874 -0.455505 0 
-0.567021 -0.451508 0 
-0.512952 -0.444928 0 
-0.450685 -0.450685 0 
-0.397667 -0.437543 0 
-0.348492 -0.462546 0 
-0.295416 -0.432968 0 
-0.247004 -0.450633 0 
-0.198702 -0.473818 0 
-0.150161 -0.441625 0 
-0.100085 -0.468395 0 
-0.0502271 -0.439281 0 
0.000144229 -0.468374 0 
0.0504178 -0.439106 0 
0.100428 -0.468348 0 
0.150697 -0.441105 0 
0.199103 -0.473881 0 
0.247983 -0.450921 0 
0.296569 -0.432268 0 
0.348831 -0.462562 0 
0.397506 -0.4368 0 
0.450637 -0.450637 0 
0.513054 -0.444935 0 
0.5671 -0.451404 0 
0.618952 -0.455483 0 
0.67138 -0.457525 0 
0.724407 -0.459374 0 
0.778382 -0.460863 0 
0.83234 -0.462414 0 
0.887011 -0.461748 0 
-0.912466 -0.409153 0 
-0.857936 -0.411157 0 
-0.804631 -0.410124 0 
-0.751554 -0.408794 0 
-0.698865 -0.407328 0 
-0.646545 -0.405555 0 
-0.594688 -0.403019 0 
-0.542431 -0.399773 0 
-0.486784 -0.401787 0 
-0.437543 -0.397667 0 
-0.387256 -0.387256 0 
-0.344215 -0.411459 0 
-0.30136 -0.381507 0 
-0.25021 -0.395692 0 
-0.200211 -0.419975 0 
-0.150955 -0.389014 0 
-0.100617 -0.416095 0 
-0.0503197 -0.386922 0 
-4.02994e-05 -0.416525 0 
0.05006 -0.386948 0 
0.100784 -0.416323 0 
0.150432 -0.388572 0 
0.200855 -0.420694 0 
0.25086 -0.396905 0 
0.301746 -0.379789 0 
0.344135 -0.410678 0 
0.385823 -0.385823 0 
0.4368 -0.397506 0 
0.486608 -0.401881 0 
0.542384 -0.399615 0 
0.594743 -0.402948 0 
0.646641 -0.405575 0 
0.698945 -0.407371 0 
0.751626 -0.408863 0 
0.804654 -0.410181 0 
0.857929 -0.411236 0 
0.912429 -0.409236 0 
-0.934288 -0.356519 0 
-0.879963 -0.359855 0 
-0.827415 -0.358606 0 
-0.774971 -0.357337 0 
-0.722823 -0.355968 0 
-0.670703 -0.354417 0 
-0.618952 -0.352514 0 
-0.567003 -0.350494 0 
-0.513639 -0.351685 0 
-0.462546 -0.348492 0 
-0.411459 -0.344215 0 
-0.351697 -0.351697 0 
-0.29839 -0.336232 0 
-0.249846 -0.342529 0 
-0.200971 -0.367271 0 
-0.149995 -0.337521 0 
-0.100435 -0.3646 0 
-0.0498692 -0.335025 0 
-6.88684e-05 -0.365025 0 
0.0495433 -0.334795 0 
0.0996798 -0.364834 0 
0.148162 -0.337172 0 
0.199644 -0.368939 0 
0.24763 -0.345582 0 
0.295348 -0.332889 0 
0.34978 -0.34978 0 
0.410678 -0.344135 0 
0.462562 -0.348831 0 
0.513798 -0.351514 0 
0.567174 -0.350318 0 
0.619096 -0.352457 0 
0.670836 -0.354397 0 
0.722893 -0.355952 0 
0.775038 -0.357323 0 
0.827419 -0.358581 0 
0.879943 -0.359894 0 
0.93426 -0.356593 0 
-0.952721 -0.303845 0 
-0.898929 -0.308871 0 
-0.847481 -0.306888 0 
-0.795641 -0.305781 0 
-0.743684 -0.304815 0 
-0.691387 -0.303722 0 
-0.639219 -0.302427 0 
-0.586897 -0.300977 0 
-0.534146 -0.301574 0 
-0.48291 -0.299695 0 
-0.432968 -0.295416 0 
-0.381507 -0.30136 0 
-0.336232 -0.29839 0 
-0.288184 -0.288184 0 
-0.242975 -0.290577 0 
-0.198059 -0.315051 0 
-0.148383 -0.285894 0 
-0.0994753 -0.313232 0 
-0.0507184 -0.283118 0 
-0.000202902 -0.313447 0 
0.0500077 -0.282824 0 
0.0988289 -0.312817 0 
0.148102 -0.28482 0 
0.195742 -0.317413 0 
0.240766 -0.295824 0 
0.285014 -0.285014 0 
0.332889 -0.295348 0 
0.379789 -0.301746 0 
0.432268 -0.296569 0 
0.483005 -0.299839 0 
0.534348 -0.301273 0 
0.587085 -0.30086 0 
0.639359 -0.302407 0 
0.691518 -0.303753 0 
0.743741 -0.304862 0 
0.795701 -0.305831 0 
0.847482 -0.306946 0 
0.898924 -0.308979 0 
0.952687 -0.303953 0 
-0.96803 -0.250833 0 
-0.916037 -0.258282 0 
-0.866979 -0.254732 0 
-0.816639 -0.25358 0 
-0.765535 -0.252907 0 
-0.71362 -0.252254 0 
-0.661417 -0.251503 0 
-0.608767 -0.250543 0 
-0.555692 -0.250874 0 
-0.503 -0.250032 0 
-0.450633 -0.247004 0 
-0.395692 -0.25021 0 
-0.342529 -0.249846 0 
-0.290577 -0.242975 0 
-0.239946 -0.239946 0 
-0.194478 -0.26004 0 
-0.151293 -0.23238 0 
-0.101048 -0.260904 0 
-0.0503938 -0.232537 0 
-0.000203281 -0.262984 0 
0.050638 -0.232316 0 
0.100942 -0.260855 0 
0.152412 -0.232597 0 
0.195768 -0.261421 0 
0.241873 -0.241873 0 
0.295824 -0.240766 0 
0.345582 -0.24763 0 
0.396905 -0.25086 0 
0.450921 -0.247983 0 
[...]
POINT_DATA 1245 
VECTORS vectors float
0.624526 -0.202301 0.754348 
0.633549 -0.173207 0.754066 
0.638482 -0.14183 0.756455 
0.640364 -0.113544 0.759633 
0.640471 -0.0812374 0.763674 
0.639837 -0.0523541 0.766726 
0.63873 -0.0239201 0.769059 
0.630027 0.00682797 0.776543 
0.622043 0.041043 0.781907 
0.613932 0.0829829 0.784985 
0.607161 0.122076 0.785145 
0.600126 0.166498 0.782386 
0.592471 0.206599 0.778649 
0.597048 -0.263507 0.757692 
0.612223 -0.232288 0.755794 
0.508235 -0.176848 0.842866 
0.519469 -0.152671 0.84074 
0.53855 -0.130578 0.832414 
0.508233 -0.0983769 0.855582 
0.534964 -0.0756758 0.841479 
0.500915 -0.0449179 0.86433 
0.529011 -0.0186067 0.848411 
0.491799 0.012142 0.870624 
0.516542 0.0455155 0.855051 
0.484354 0.077025 0.871475 
0.509995 0.116811 0.852209 
0.490577 0.148328 0.858681 
0.481613 0.180391 0.857617 
0.584254 0.244842 0.773757 
0.574933 0.281003 0.768433 
0.558977 -0.328997 0.761121 
0.579213 -0.295859 0.759592 
0.485447 -0.229412 0.84363 
0.49769 -0.202423 0.843404 
0.408556 -0.149702 0.900373 
0.420509 -0.1288 0.8981 
0.441237 -0.109104 0.890733 
0.396543 -0.0784959 0.914654 
0.432035 -0.0619182 0.899729 
0.386247 -0.0343981 0.921754 
0.425501 -0.0140973 0.904848 
0.379178 0.0110687 0.925258 
0.4173 0.0386478 0.907947 
0.378151 0.0624661 0.923634 
0.417524 0.0979934 0.903366 
0.397202 0.124918 0.90919 
0.387137 0.151918 0.90942 
0.474939 0.211765 0.85416 
0.468003 0.242393 0.849835 
0.563596 0.314897 0.763675 
0.549309 0.34687 0.760224 
0.536889 -0.362185 0.761953 
0.454687 -0.285714 0.84358 
0.471195 -0.257401 0.843635 
0.389617 -0.196042 0.89987 
0.399241 -0.172377 0.900496 
0.325059 -0.126473 0.937199 
0.336078 -0.108217 0.935596 
0.354656 -0.0918475 0.930475 
0.308573 -0.0640144 0.949044 
0.339188 -0.0497822 0.9394 
0.29627 -0.0269418 0.954724 
0.331649 -0.0101276 0.943349 
0.291081 0.0103124 0.956643 
0.327776 0.0327119 0.944189 
0.294675 0.0525038 0.954154 
0.336024 0.0830453 0.938185 
0.317833 0.10528 0.942284 
0.309033 0.128169 0.942375 
0.381557 0.179143 0.90682 
0.376185 0.205681 0.903427 
0.45917 0.271631 0.845801 
0.447286 0.299449 0.842773 
0.531641 0.377427 0.758226 
0.489592 -0.424573 0.761602 
0.513546 -0.394493 0.762001 
0.435861 -0.313221 0.843752 
0.363969 -0.244408 0.898772 
0.378027 -0.220263 0.899211 
0.309985 -0.166608 0.93603 
0.317771 -0.145882 0.936878 
0.257041 -0.106329 0.960533 
0.26656 -0.0912241 0.959492 
0.281314 -0.0766968 0.956546 
0.239667 -0.0526476 0.969427 
0.263235 -0.040364 0.963887 
0.227204 -0.0212518 0.973615 
0.255509 -0.00719226 0.96678 
0.223351 0.00950547 0.974692 
0.254746 0.0281515 0.966598 
0.229424 0.0442935 0.972318 
0.267067 0.0704857 0.961097 
0.252988 0.0889261 0.963374 
0.244831 0.107563 0.963581 
0.304236 0.150855 0.940576 
0.300043 0.17386 0.937948 
0.368803 0.23101 0.900344 
0.358368 0.255092 0.898054 
0.431672 0.325585 0.841222 
0.510718 0.407119 0.757246 
0.48749 0.435738 0.756628 
0.462971 -0.45304 0.761848 
0.403284 -0.370151 0.836869 
0.415462 -0.338923 0.84411 
0.347335 -0.266887 0.89896 
0.289588 -0.208958 0.934064 
0.300796 -0.187592 0.935057 
0.246035 -0.141475 0.95888 
0.251767 -0.12348 0.959878 
0.202592 -0.0897882 0.975138 
0.209664 -0.0762257 0.974798 
0.22124 -0.0642303 0.973102 
0.185783 -0.0433544 0.981634 
0.203569 -0.0329751 0.978505 
0.174395 -0.016949 0.98453 
0.196451 -0.00516317 0.9805 
0.171612 0.00862552 0.985127 
0.197368 0.0241846 0.980031 
0.178337 0.0375188 0.983254 
0.210732 0.0595413 0.975729 
0.199615 0.0748121 0.977014 
0.193977 0.0907615 0.976798 
0.241986 0.12731 0.961891 
0.238554 0.147072 0.959928 
0.293986 0.195889 0.935521 
0.28539 0.217595 0.933384 
0.344179 0.277035 0.897102 
0.413106 0.350088 0.840703 
0.401682 0.381123 0.832705 
0.460811 0.464425 0.756282 
0.434024 -0.478447 0.763355 
0.378695 -0.393544 0.837683 
0.327573 -0.319529 0.889155 
0.329526 -0.288205 0.899083 
0.275418 -0.229942 0.933419 
0.23109 -0.179767 0.95618 
0.238835 -0.15996 0.957795 
0.194634 -0.12034 0.973466 
0.198743 -0.104356 0.97448 
0.159005 -0.0754872 0.984388 
0.164547 -0.0642622 0.984274 
0.17322 -0.0536446 0.983421 
0.14391 -0.0360282 0.988935 
0.157227 -0.0269874 0.987194 
0.134119 -0.0136949 0.990871 
0.151218 -0.00366743 0.988494 
0.13214 0.00766722 0.991201 
0.152801 0.0207229 0.98804 
0.138592 0.0316918 0.989842 
0.165563 0.0503597 0.984913 
0.157373 0.0630488 0.985524 
0.152648 0.0763797 0.985325 
0.191441 0.107285 0.975623 
0.18945 0.124697 0.97394 
0.233942 0.166482 0.957891 
0.228341 0.186796 0.955493 
0.273425 0.238667 0.931814 
0.327871 0.298108 0.896455 
0.327043 0.329875 0.885565 
0.377842 0.405274 0.832459 
0.432242 0.491491 0.756044 
0.403435 -0.500324 0.766105 
0.34634 -0.404231 0.846549 
0.294907 -0.3206 0.900136 
0.262541 -0.255659 0.930436 
0.223004 -0.201336 0.953799 
0.185331 -0.155485 0.970297 
0.189726 -0.136721 0.972271 
0.153861 -0.102477 0.982764 
0.157031 -0.088738 0.983599 
0.124828 -0.0641646 0.990101 
0.12861 -0.0539697 0.990226 
0.134995 -0.0448237 0.989832 
0.111449 -0.0300068 0.993317 
0.121412 -0.0222234 0.992353 
0.103316 -0.0111257 0.994586 
0.11654 -0.00263563 0.993182 
0.101903 0.00683161 0.994771 
0.118274 0.0177579 0.992822 
0.107649 0.0269842 0.993823 
0.129544 0.0424915 0.990663 
0.123476 0.0532576 0.990917 
0.120493 0.0647376 0.990601 
0.151993 0.0910192 0.984182 
0.150021 0.10593 0.982992 
0.186163 0.142069 0.972193 
0.183585 0.161505 0.969646 
0.221987 0.208853 0.952419 
0.262189 0.264798 0.927976 
0.295605 0.331412 0.895982 
0.347144 0.417083 0.83996 
0.403524 0.515344 0.756035 
0.369683 -0.521043 0.769317 
0.319282 -0.422562 0.848234 
0.272104 -0.336705 0.901437 
0.23495 -0.266813 0.934671 
0.206452 -0.216612 0.954179 
0.17483 -0.170054 0.969802 
0.145933 -0.13139 0.980531 
0.149652 -0.116658 0.981832 
0.121007 -0.0874467 0.988792 
0.123351 -0.0753632 0.989497 
0.0978233 -0.055012 0.993682 
0.1003 -0.0458792 0.993899 
0.105168 -0.0379753 0.993729 
0.0862002 -0.0252343 0.995958 
0.0939313 -0.0185795 0.995405 
0.0796371 -0.00914854 0.996782 
0.0901115 -0.00195238 0.99593 
0.0786434 0.0059144 0.996885 
0.0917245 0.0152092 0.995668 
0.0835122 0.0229155 0.996243 
0.101285 0.0361263 0.994201 
0.0967915 0.0453428 0.994271 
0.0947191 0.0554895 0.993956 
0.119758 0.0771435 0.989801 
0.11848 0.0900557 0.988864 
0.14757 0.12075 0.981653 
0.144998 0.136309 0.979998 
0.174811 0.176448 0.968663 
0.207213 0.224514 0.952185 
0.236613 0.27634 0.931477 
0.274902 0.348309 0.896164 
0.322761 0.436627 0.839751 
0.373619 0.537309 0.756114 
0.333467 -0.540784 0.772239 
0.289396 -0.439304 0.850448 
0.247672 -0.351436 0.902858 
0.212273 -0.279564 0.936368 
0.183092 -0.223554 0.957341 
0.158919 -0.179145 0.970903 
0.134931 -0.141394 0.980715 
0.113189 -0.11043 0.987418 
0.116513 -0.0983197 0.988311 
0.0942984 -0.0761552 0.992627 
0.0970337 -0.0654052 0.99313 
0.0767523 -0.0472053 0.995932 
0.0781968 -0.0392677 0.996164 
0.0818511 -0.0321243 0.996127 
0.066795 -0.0213492 0.997538 
0.0727634 -0.0155 0.997229 
0.0614931 -0.00763028 0.998078 
0.0697243 -0.00142393 0.997565 
0.0607777 0.00524428 0.998138 
0.071201 0.0130993 0.997376 
0.0648533 0.0195405 0.997703 
0.0791704 0.0308513 0.996384 
0.0757859 0.0387369 0.996371 
0.0748769 0.0476893 0.996052 
0.0947444 0.0668649 0.993254 
0.0929718 0.078182 0.992594 
0.11504 0.101837 0.988127 
0.11338 0.114016 0.986988 
0.135429 0.146548 0.979889 
0.160295 0.185626 0.969458 
0.185771 0.231481 0.954937 
0.216199 0.289359 0.932486 
0.253314 0.363391 0.896537 
0.296887 0.453501 0.840354 
0.342983 0.556609 0.75667 
0.295621 -0.559827 0.774081 
0.257563 -0.454302 0.852802 
0.220895 -0.364008 0.904822 
0.188641 -0.289702 0.938343 
0.161411 -0.230014 0.959708 
0.138685 -0.182762 0.973326 
0.11856 -0.14474 0.982341 
0.100863 -0.112302 0.988542 
0.0890943 -0.0865151 0.992259 
0.0748306 -0.0662095 0.994996 
0.0760688 -0.0562758 0.995513 
0.0602068 -0.0406598 0.997357 
0.0606622 -0.0332532 0.997604 
0.0635132 -0.0272876 0.997608 
0.0515474 -0.0182562 0.998504 
0.0562252 -0.0131817 0.998331 
0.0474265 -0.0064687 0.998854 
0.0539579 -0.00115211 0.998543 
0.0469321 0.00458257 0.998888 
0.0551839 0.0112044 0.998413 
0.0502263 0.017052 0.998592 
0.0617634 0.0262752 0.997745 
0.059242 0.0331459 0.997693 
0.0587393 0.0408694 0.997436 
0.0745399 0.0573317 0.995569 
0.0738663 0.0677109 0.994967 
0.0886902 0.0890628 0.992069 
0.101378 0.116105 0.98805 
0.120531 0.14937 0.981408 
0.141657 0.188861 0.971733 
0.166015 0.237564 0.95708 
0.195292 0.298912 0.934084 
0.229934 0.375124 0.898004 
0.26973 0.46702 0.842104 
0.311582 0.573039 0.757986 
0.257488 -0.578135 0.774248 
0.225308 -0.468245 0.85439 
0.193382 -0.375148 0.906569 
0.165037 -0.298153 0.940142 
0.141046 -0.236558 0.961325 
0.120385 -0.187407 0.974877 
0.10341 -0.148023 0.983563 
0.08846 -0.116718 0.989218 
0.0775396 -0.0914617 0.992785 
0.0679012 -0.0723547 0.995065 
0.0577898 -0.0564505 0.996732 
0.0594527 -0.048586 0.997048 
0.0474659 -0.0368154 0.998194 
0.0467785 -0.0294272 0.998472 
0.0490586 -0.0237866 0.998513 
0.0397458 -0.0159753 0.999082 
0.0435661 -0.0114002 0.998986 
0.0365485 -0.00561965 0.999316 
0.0418665 -0.000884641 0.999123 
0.0362725 0.00385306 0.999335 
0.0428837 0.00988984 0.999031 
0.0388934 0.014505 0.999138 
0.0480737 0.0229372 0.99858 
0.0460936 0.0291742 0.998511 
0.0463881 0.0367435 0.998247 
0.0584421 0.0492426 0.997076 
0.0569068 0.0565846 0.996775 
0.0677827 0.0738995 0.994959 
0.0785364 0.0936765 0.9925 
0.0903076 0.119807 0.988681 
0.106231 0.152199 0.982624 
0.125134 0.192585 0.973269 
0.14754 0.242938 0.958756 
0.174252 0.305874 0.93599 
0.205913 0.383834 0.900151 
0.242003 0.477677 0.844547 
0.279535 0.586674 0.760049 
0.220434 -0.595515 0.772509 
0.193906 -0.481746 0.854588 
0.166027 -0.385254 0.907752 
0.141862 -0.306228 0.941329 
0.120564 -0.242424 0.96265 
0.103079 -0.19131 0.976102 
0.0878876 -0.1511 0.984604 
0.0754923 -0.119014 0.990019 
0.0660405 -0.0933282 0.993443 
0.0569932 -0.0736585 0.995654 
0.0497494 -0.0574457 0.997108 
0.0452584 -0.0440175 0.998005 
0.0379609 -0.0329376 0.998736 
0.0358116 -0.0258425 0.999024 
0.0378804 -0.0208045 0.999066 
0.0306869 -0.0139561 0.999432 
0.0336424 -0.00989681 0.999385 
0.0281181 -0.00480267 0.999593 
0.0323125 -0.000811258 0.999477 
0.0278478 0.00355592 0.999606 
0.0331799 0.00845101 0.999414 
0.030031 0.0128018 0.999467 
0.0373413 0.020035 0.999102 
0.0357673 0.0252062 0.999042 
0.0365532 0.0318645 0.998824 
0.0443773 0.0438012 0.998054 
0.0498812 0.0582064 0.997058 
0.0580173 0.0749236 0.9955 
0.0674037 0.0954205 0.993152 
0.0781986 0.121418 0.989516 
0.09198 0.154221 0.983746 
0.108767 0.195041 0.974745 
0.128864 0.246756 0.960472 
0.152985 0.310928 0.93804 
0.181244 0.390278 0.902682 
0.21409 0.486102 0.847272 
0.247037 0.597821 0.762616 
0.185423 -0.611423 0.769272 
0.164068 -0.494703 0.853435 
0.140519 -0.396469 0.90723 
0.119424 -0.31465 0.941665 
0.101853 -0.248473 0.963269 
0.0864546 -0.195568 0.976872 
0.0737619 -0.153599 0.985376 
0.0631231 -0.120296 0.990729 
0.0545526 -0.0945243 0.994027 
0.047561 -0.0740985 0.996116 
0.0408615 -0.05819 0.997469 
0.0375584 -0.0461477 0.998228 
0.033565 -0.0367667 0.99876 
0.029049 -0.0283013 0.999177 
0.0272091 -0.0223456 0.99938 
0.0288699 -0.0181749 0.999418 
0.023308 -0.0122889 0.999653 
0.0257729 -0.00867763 0.99963 
0.0212951 -0.00448033 0.999763 
0.0247875 -0.000779599 0.999692 
0.0211884 0.00282259 0.999772 
0.0254511 0.00722543 0.99965 
0.022899 0.0110712 0.999676 
0.0287274 0.0169624 0.999443 
0.0275104 0.0216782 0.999386 
0.02826 0.0273077 0.999228 
0.0328032 0.0357645 0.998822 
0.0375847 0.0458763 0.99824 
0.0417955 0.0586144 0.997405 
0.0487315 0.0750312 0.99599 
0.0568047 0.0956649 0.993791 
0.0661248 0.121784 0.990352 
0.0784995 0.15524 0.984753 
0.0930779 0.197289 0.975917 
0.110929 0.250014 0.961867 
0.131988 0.315794 0.939603 
0.157205 0.396406 0.904516 
0.186289 0.493353 0.849647 
0.214298 0.606583 0.765593 
0.152696 -0.624892 0.765633 
0.137075 -0.509469 0.849501 
0.116407 -0.411189 0.904087 
0.0992983 -0.32767 0.93956 
0.0845079 -0.259415 0.962061 
0.0717427 -0.203689 0.976403 
0.0611203 -0.159586 0.98529 
0.0519261 -0.124657 0.99084 
0.0449557 -0.0971384 0.994255 
0.0385494 -0.0756235 0.996391 
0.033298 -0.0587779 0.997716 
0.0296134 -0.0452281 0.998538 
0.0263023 -0.0348048 0.999048 
0.0227748 -0.0264561 0.999391 
0.0205235 -0.0200333 0.999589 
0.0214807 -0.0159191 0.999643 
0.0173558 -0.0113441 0.999785 
0.0195717 -0.00791516 0.999777 
0.0161369 -0.00389494 0.999862 
0.0188973 -0.000572121 0.999821 
0.0159852 0.00288134 0.999868 
0.0192864 0.00685602 0.99979 
0.0172863 0.0102825 0.999798 
0.0213953 0.0152667 0.999655 
0.0206875 0.0194759 0.999596 
0.0227341 0.0264642 0.999391 
0.0263053 0.0349955 0.999041 
0.0303291 0.0455178 0.998503 
0.0344029 0.0589865 0.997666 
0.0401646 0.0759634 0.996301 
0.0471185 0.0973954 0.99413 
0.0555579 0.124873 0.990616 
0.0658739 0.159353 0.985021 
0.078691 0.203014 0.976009 
0.0938427 0.257452 0.961723 
0.112013 0.324371 0.939274 
0.13328 0.405704 0.904235 
0.15924 0.501542 0.850352 
0.181004 0.612721 0.769292 
0.119496 -0.634834 0.763352 
0.112363 -0.532886 0.838694 
0.0947569 -0.435315 0.895278 
0.0808052 -0.349232 0.933546 
0.0685579 -0.276123 0.958674 
0.0583153 -0.216728 0.974489 
0.0494453 -0.169286 0.984326 
0.042144 -0.131729 0.990389 
0.0360297 -0.102368 0.994094 
0.0310992 -0.0795992 0.996342 
0.026718 -0.0616874 0.997738 
0.023521 -0.0475957 0.99859 
0.0208751 -0.0367558 0.999106 
0.0183586 -0.0280345 0.999438 
0.0162061 -0.0208796 0.999651 
0.0153143 -0.0150063 0.99977 
0.0130022 -0.0102713 0.999863 
0.0143654 -0.0070556 0.999872 
0.0117502 -0.00357826 0.999925 
0.0141323 -0.000774408 0.9999 
0.0117675 0.00209635 0.999929 
0.0144347 0.00573063 0.999879 
0.0128615 0.00934564 0.999874 
0.015512 0.0142412 0.999778 
0.0163518 0.020276 0.999661 
0.0183572 0.0277081 0.999447 
0.0211467 0.0364443 0.999112 
0.0243514 0.0474448 0.998577 
0.0278239 0.0613502 0.997728 
0.0327366 0.0791421 0.996326 
0.0384177 0.101602 0.994083 
0.0454665 0.130429 0.990415 
0.0542994 0.167141 0.984437 
0.0647902 0.213069 0.974887 
0.07751 0.27068 0.959544 
0.092623 0.340857 0.935541 
0.110554 0.423955 0.89891 
0.132823 0.518488 0.844706 
0.143764 0.615464 0.774942 
0.09109 -0.640982 0.762131 
0.0810361 -0.506576 0.858379 
0.0654859 -0.394442 0.916584 
0.0544038 -0.306041 0.950463 
0.0456362 -0.237098 0.970413 
0.0384583 -0.183269 0.98231 
0.032478 -0.141575 0.989395 
0.0276646 -0.109344 0.993619 
0.023742 -0.0843956 0.996149 
0.0203245 -0.0652005 0.997665 
0.017762 -0.0502367 0.998579 
0.0157343 -0.0386845 0.999128 
0.0139013 -0.0298108 0.999459 
0.0123226 -0.0226782 0.999667 
0.0115029 -0.0169287 0.999791 
0.0104788 -0.0126364 0.999865 
0.00863329 -0.00866453 0.999925 
0.0105711 -0.00632375 0.999924 
0.0079988 -0.00343696 0.999962 
0.0100246 -0.000456818 0.99995 
0.00804303 0.00230628 0.999965 
0.010412 0.00524481 0.999932 
0.00896825 0.00746371 0.999932 
0.0105145 0.0115675 0.999878 
0.0116127 0.0160116 0.999804 
0.0124229 0.0216627 0.999688 
0.013932 0.0289018 0.999485 
0.0160971 0.0379054 0.999152 
0.0184912 0.0493991 0.998608 
0.0214189 0.064188 0.997708 
0.0251005 0.0830735 0.996227 
0.0298139 0.107521 0.993756 
0.0353851 0.138671 0.989706 
0.0423996 0.178876 0.982958 
0.0511048 0.230372 0.97176 
0.0617823 0.296013 0.953184 
0.0755886 0.380525 0.921676 
0.0952296 0.487451 0.867942 
0.109114 0.616527 0.779736 
0.0599655 -0.645366 0.761517 
0.0578513 -0.537634 0.841191 
0.0480942 -0.433804 0.899723 
0.0393324 -0.339824 0.939666 
0.0327271 -0.26309 0.964216 
0.0273895 -0.202808 0.978835 
0.0230161 -0.156142 0.987466 
0.0195218 -0.120222 0.992555 
0.0166345 -0.0926614 0.995559 
0.0142411 -0.0715649 0.997334 
0.0123904 -0.0551533 0.998401 
0.0108895 -0.042581 0.999034 
0.00959556 -0.0328082 0.999416 
0.00855578 -0.0251407 0.999647 
0.00792599 -0.0189889 0.999788 
0.00694063 -0.0140851 0.999877 
0.00649848 -0.0102351 0.999927 
0.00645005 -0.00632039 0.999959 
0.00517753 -0.00339632 0.999981 
0.00705014 -0.000799988 0.999975 
0.00528367 0.00197969 0.999984 
0.00638145 0.00509254 0.999967 
0.00634829 0.00912174 0.999938 
0.00722388 0.0130357 0.999889 
0.00794185 0.0179723 0.999807 
0.00869817 0.0241216 0.999671 
0.00979668 0.031965 0.999441 
0.0114028 0.0416966 0.999065 
0.0130019 0.0540864 0.998452 
0.0151165 0.0702353 0.997416 
0.0178149 0.0907324 0.995716 
0.0209552 0.117376 0.992866 
0.0250495 0.151881 0.988081 
0.0299993 0.196221 0.980101 
0.0361402 0.25347 0.966668 
0.0439685 0.326028 0.944337 
0.0542816 0.414763 0.908309 
0.0667584 0.514437 0.854926 
0.0687795 0.617043 0.783918 
0.033011 -0.64807 0.760865 
0.030169 -0.507115 0.86135 
0.0233058 -0.39059 0.92027 
0.0189668 -0.298978 0.954071 
0.0154296 -0.228545 0.973411 
0.0128601 -0.174902 0.984502 
0.0107377 -0.133969 0.990927 
0.00906739 -0.102805 0.99466 
0.00776126 -0.0789686 0.996847 
0.00666851 -0.060695 0.998134 
0.00580012 -0.0466449 0.998895 
0.00519837 -0.0358445 0.999344 
0.00459545 -0.0274605 0.999612 
0.00414156 -0.0207657 0.999776 
0.00394937 -0.0157759 0.999868 
0.00333691 -0.0113574 0.99993 
0.00337938 -0.0080513 0.999962 
0.00321244 -0.00507387 0.999982 
0.00269267 -0.00214452 0.999994 
0.0037555 -0.000625368 0.999993 
0.00258443 0.00114593 0.999996 
0.00319135 0.00393044 0.999987 
0.00362762 0.00663744 0.999971 
0.00342834 0.0103494 0.999941 
0.0040147 0.0145295 0.999886 
0.00425295 0.0197391 0.999796 
0.00475624 0.0264446 0.999639 
0.00543131 0.0347911 0.99938 
0.00611203 0.0455894 0.998942 
0.00715257 0.059305 0.998214 
0.00810955 0.0771502 0.996987 
0.00957159 0.100313 0.99491 
0.0112397 0.130168 0.991428 
0.0132238 0.169225 0.985489 
0.0158682 0.22016 0.975335 
0.0191898 0.286436 0.957907 
0.0235788 0.373225 0.927441 
0.0304415 0.483121 0.875024 
0.0325209 0.618686 0.784965 
0.00743899 -0.650106 0.759808 
0.00502697 -0.539186 0.842172 
0.00394454 -0.433495 0.901147 
0.00250036 -0.337401 0.941358 
0.00165433 -0.259323 0.965789 
0.00120746 -0.198696 0.98006 
0.000816154 -0.15234 0.988328 
0.000666215 -0.116973 0.993135 
0.000533676 -0.090008 0.995941 
0.000417315 -0.0693342 0.997593 
0.000413223 -0.0534487 0.998571 
0.000450684 -0.0412538 0.999149 
0.000350098 -0.0317259 0.999497 
0.000473402 -0.0242711 0.999705 
0.000450935 -0.0184336 0.99983 
0.000390866 -0.0137758 0.999905 
0.000445008 -0.00996231 0.99995 
0.000588903 -0.00660238 0.999978 
0.000122138 -0.00441657 0.99999 
-3.46595e-05 -0.00103914 0.999999 
0.000439566 0.00256511 0.999997 
0.000508729 0.00562351 0.999984 
0.000602064 0.00854324 0.999963 
0.000506839 0.0126156 0.99992 
0.000581487 0.0174055 0.999848 
0.00058312 0.0231394 0.999732 
0.000477839 0.0307861 0.999526 
0.000659433 0.0401848 0.999192 
0.000488838 0.0522402 0.998634 
0.000477736 0.0679255 0.99769 
0.000393197 0.0879867 0.996122 
9.64257e-05 0.114072 0.993472 
-0.000108796 0.148112 0.988971 
-0.000495908 0.192205 0.981355 
-0.00106103 0.249752 0.968309 
-0.00162242 0.323501 0.946226 
-0.00213854 0.414037 0.910258 
-0.00304279 0.514822 0.857292 
-0.00325757 0.621524 0.783389 
-0.0196318 -0.644252 0.764561 
-0.0209262 -0.503864 0.863529 
-0.0178394 -0.388467 0.92129 
-0.0149128 -0.297395 0.954638 
-0.0128553 -0.227509 0.973691 
-0.0109228 -0.174166 0.984656 
-0.00932241 -0.133496 0.991006 
-0.00799225 -0.102438 0.994707 
-0.00678745 -0.0787319 0.996873 
-0.00579666 -0.0604626 0.998154 
-0.00511111 -0.0465126 0.998905 
-0.00429582 -0.0357428 0.999352 
-0.00372038 -0.0273382 0.999619 
-0.00335833 -0.0207206 0.99978 
-0.00300596 -0.0156436 0.999873 
-0.00249208 -0.0113811 0.999932 
-0.00264156 -0.00808697 0.999964 
-0.00228184 -0.00512465 0.999984 
-0.000891582 -0.00204376 0.999998 
-0.00327149 -0.000875585 0.999994 
-0.00101798 0.0012309 0.999999 
-0.00224194 0.00384933 0.99999 
-0.0025013 0.00653305 0.999976 
-0.00241347 0.0102733 0.999944 
-0.00275579 0.0144766 0.999891 
-0.00334869 0.0196601 0.999801 
-0.00353318 0.0264352 0.999644 
-0.00425579 0.0347176 0.999388 
-0.005091 0.0456039 0.998947 
-0.00588716 0.0594175 0.998216 