# vtk DataFile Version 3.0 
Exported using Morpho https://github.com/Morpho-lang/morpho 
ASCII 
DATASET UNSTRUCTURED_GRID 

POINTS 1245 float 
-0.303845 -0.952721 0 
-0.250833 -0.96803 0 
-0.195084 -0.980787 0 
-0.146308 -0.989239 0 
-0.0940719 -0.995565 0 
-0.0475118 -0.998871 0 
-0.000246339 -1 0 
0.0470875 -0.998891 0 
0.0937543 -0.995595 0 
0.146139 -0.989264 0 
0.195062 -0.980791 0 
0.250843 -0.968028 0 
0.303953 -0.952687 0 
-0.409153 -0.912466 0 
-0.356519 -0.934288 0 
-0.308871 -0.898929 0 
-0.258282 -0.916037 0 
-0.207345 -0.934859 0 
-0.154868 -0.930629 0 
-0.104343 -0.948989 0 
-0.0520099 -0.939193 0 
-8.5762e-05 -0.954582 0 
0.0518744 -0.939288 0 
0.104354 -0.949042 0 
0.154696 -0.9306 0 
0.207366 -0.934975 0 
0.258274 -0.916081 0 
0.308979 -0.898924 0 
0.356593 -0.93426 0 
0.409236 -0.912429 0 
-0.513788 -0.857917 0 
-0.461695 -0.887039 0 
-0.411157 -0.857936 0 
-0.359855 -0.879963 0 
-0.306888 -0.847481 0 
-0.254732 -0.866979 0 
-0.201991 -0.889059 0 
-0.149956 -0.874108 0 
-0.100608 -0.900088 0 
-0.0497575 -0.880388 0 
2.4595e-05 -0.904789 0 
0.0496869 -0.8804 0 
0.100612 -0.900177 0 
0.149872 -0.874171 0 
0.202071 -0.889165 0 
0.254695 -0.867031 0 
0.306946 -0.847482 0 
0.359894 -0.879943 0 
0.411236 -0.857929 0 
0.461748 -0.887011 0 
0.513842 -0.857885 0 
-0.564741 -0.825268 0 
-0.512908 -0.802945 0 
-0.462372 -0.832348 0 
-0.410124 -0.804631 0 
-0.358606 -0.827415 0 
-0.305781 -0.795641 0 
-0.25358 -0.816639 0 
-0.200756 -0.839997 0 
-0.149043 -0.818944 0 
-0.0987265 -0.846667 0 
-0.0490473 -0.822548 0 
5.00659e-05 -0.849932 0 
0.0490834 -0.822542 0 
0.0987838 -0.846676 0 
0.148997 -0.818924 0 
0.200826 -0.840131 0 
0.253508 -0.816728 0 
0.305831 -0.795701 0 
0.358581 -0.827419 0 
0.410181 -0.804654 0 
0.462414 -0.83234 0 
0.512965 -0.802929 0 
0.564777 -0.825243 0 
-0.660798 -0.750564 0 
-0.614015 -0.789295 0 
-0.561786 -0.769772 0 
-0.510673 -0.747856 0 
-0.460836 -0.778365 0 
-0.408794 -0.751554 0 
-0.357337 -0.774971 0 
-0.304815 -0.743684 0 
-0.252907 -0.765535 0 
-0.200631 -0.789263 0 
-0.149244 -0.764328 0 
-0.0986912 -0.791935 0 
-0.0492815 -0.765764 0 
4.16586e-05 -0.79382 0 
0.0492411 -0.765708 0 
0.0987508 -0.791951 0 
0.149196 -0.764326 0 
0.200666 -0.789356 0 
0.252841 -0.765599 0 
0.304862 -0.743741 0 
0.357323 -0.775038 0 
0.408863 -0.751626 0 
0.460863 -0.778382 0 
0.510716 -0.747859 0 
0.561819 -0.769761 0 
0.614041 -0.789274 0 
0.660811 -0.750552 0 
-0.707107 -0.707107 0 
-0.654819 -0.699058 0 
-0.60813 -0.73348 0 
-0.558104 -0.71337 0 
-0.509495 -0.692659 0 
-0.45935 -0.724356 0 
-0.407328 -0.698865 0 
-0.355968 -0.722823 0 
-0.303722 -0.691387 0 
-0.252254 -0.71362 0 
-0.20067 -0.737336 0 
-0.149608 -0.710068 0 
-0.0991558 -0.737129 0 
-0.0495872 -0.709825 0 
-2.23646e-05 -0.737917 0 
0.0494408 -0.709766 0 
0.0991291 -0.737116 0 
0.149502 -0.710042 0 
0.200696 -0.73743 0 
0.252186 -0.713735 0 
0.303753 -0.691518 0 
0.355952 -0.722893 0 
0.407371 -0.698945 0 
0.459374 -0.724407 0 
0.509524 -0.692668 0 
0.558131 -0.713361 0 
0.608151 -0.733462 0 
0.654824 -0.699048 0 
0.707107 -0.707107 0 
-0.750564 -0.660798 0 
-0.699058 -0.654819 0 
-0.647692 -0.647692 0 
-0.603437 -0.675718 0 
-0.55905 -0.655305 0 
-0.508501 -0.639581 0 
-0.457509 -0.671321 0 
-0.405555 -0.646545 0 
-0.354417 -0.670703 0 
-0.302427 -0.639219 0 
-0.251503 -0.661417 0 
-0.20061 -0.684911 0 
-0.149717 -0.655943 0 
-0.0995004 -0.682466 0 
-0.0498216 -0.654561 0 
-5.02113e-05 -0.682664 0 
0.0496787 -0.654499 0 
0.0994374 -0.682501 0 
0.149603 -0.655909 0 
0.200573 -0.684972 0 
0.251388 -0.661524 0 
0.302407 -0.639359 0 
0.354397 -0.670836 0 
0.405575 -0.646641 0 
0.457525 -0.67138 0 
0.508497 -0.639623 0 
0.559063 -0.655324 0 
0.603436 -0.675715 0 
0.64769 -0.64769 0 
0.699048 -0.654824 0 
0.750552 -0.660811 0 
-0.789295 -0.614015 0 
-0.73348 -0.60813 0 
-0.675718 -0.603437 0 
-0.613088 -0.613088 0 
-0.55962 -0.604068 0 
-0.506189 -0.588854 0 
-0.455505 -0.618874 0 
-0.403019 -0.594688 0 
-0.352514 -0.618952 0 
-0.300977 -0.586897 0 
-0.250543 -0.608767 0 
-0.200257 -0.632053 0 
-0.150049 -0.601979 0 
-0.0998281 -0.628222 0 
-0.0500377 -0.599914 0 
-3.12334e-05 -0.628076 0 
0.0498927 -0.599835 0 
0.0997818 -0.628253 0 
0.149924 -0.601867 0 
0.200214 -0.632118 0 
0.250423 -0.608915 0 
0.30086 -0.587085 0 
0.352457 -0.619096 0 
0.402948 -0.594743 0 
0.455483 -0.618952 0 
0.506147 -0.588901 0 
0.55964 -0.604067 0 
0.613069 -0.613069 0 
0.675715 -0.603436 0 
0.733462 -0.608151 0 
0.789274 -0.614041 0 
-0.825268 -0.564741 0 
-0.769772 -0.561786 0 
-0.71337 -0.558104 0 
-0.655305 -0.55905 0 
-0.604068 -0.55962 0 
-0.551031 -0.551031 0 
-0.497922 -0.537596 0 
-0.451508 -0.567021 0 
-0.399773 -0.542431 0 
-0.350494 -0.567003 0 
-0.301574 -0.534146 0 
-0.250874 -0.555692 0 
-0.200542 -0.579013 0 
-0.150324 -0.548268 0 
-0.100169 -0.57443 0 
-0.0500152 -0.545912 0 
-3.29278e-05 -0.574268 0 
0.0499208 -0.545788 0 
0.100058 -0.574485 0 
0.150038 -0.548073 0 
0.200377 -0.579041 0 
0.250556 -0.55585 0 
0.301273 -0.534348 0 
0.350318 -0.567174 0 
0.399615 -0.542384 0 
0.451404 -0.5671 0 
0.497945 -0.537702 0 
0.551073 -0.551073 0 
0.604067 -0.55964 0 
0.655324 -0.559063 0 
0.713361 -0.558131 0 
0.769761 -0.561819 0 
0.825243 -0.564777 0 
-0.857917 -0.513788 0 
-0.802945 -0.512908 0 
-0.747856 -0.510673 0 
-0.692659 -0.509495 0 
-0.639581 -0.508501 0 
-0.588854 -0.506189 0 
-0.537596 -0.497922 0 
-0.486157 -0.486157 0 
-0.444928 -0.512952 0 
-0.401787 -0.486784 0 
-0.351685 -0.513639 0 
-0.299695 -0.48291 0 
-0.250032 -0.503 0 
-0.200501 -0.526165 0 
-0.149489 -0.495195 0 
-0.0999281 -0.521367 0 
-0.0499712 -0.492294 0 
4.64723e-05 -0.520999 0 
0.050147 -0.492108 0 
0.099934 -0.52133 0 
0.14957 -0.494692 0 
0.200133 -0.526255 0 
0.249839 -0.503309 0 
0.299839 -0.483005 0 
0.351514 -0.513798 0 
0.401881 -0.486608 0 
0.444935 -0.513054 0 
0.486228 -0.486228 0 
0.537702 -0.497945 0 
0.588901 -0.506147 0 
0.639623 -0.508497 0 
0.692668 -0.509524 0 
0.747859 -0.510716 0 
0.802929 -0.512965 0 
0.857885 -0.513842 0 
-0.887039 -0.461695 0 
-0.832348 -0.462372 0 
-0.778365 -0.460836 0 
-0.724356 -0.45935 0 
-0.671321 -0.457509 0 
-0.618874 -0.455505 0 
-0.567021 -0.451508 0 
-0.512952 -0.444928 0 
-0.450685 -0.450685 0 
-0.397667 -0.437543 0 
-0.348492 -0.462546 0 
-0.295416 -0.432968 0 
-0.247004 -0.450633 0 
-0.198702 -0.473818 0 
-0.150161 -0.441625 0 
-0.100085 -0.468395 0 
-0.0502271 -0.439281 0 
0.000144229 -0.468374 0 
0.0504178 -0.439106 0 
0.100428 -0.468348 0 
0.150697 -0.441105 0 
0.199103 -0.473881 0 
0.247983 -0.450921 0 
0.296569 -0.432268 0 
0.348831 -0.462562 0 
0.397506 -0.4368 0 
0.450637 -0.450637 0 
0.513054 -0.444935 0 
0.5671 -0.451404 0 
0.618952 -0.455483 0 
0.67138 -0.457525 0 
0.724407 -0.459374 0 
0.778382 -0.460863 0 
0.83234 -0.462414 0 
0.887011 -0.461748 0 
-0.912466 -0.409153 0 
-0.857936 -0.411157 0 
-0.804631 -0.410124 0 
-0.751554 -0.408794 0 
-0.698865 -0.407328 0 
-0.646545 -0.405555 0 
-0.594688 -0.403019 0 
-0.542431 -0.399773 0 
-0.486784 -0.401787 0 
-0.437543 -0.397667 0 
-0.387256 -0.387256 0 
-0.344215 -0.411459 0 
-0.30136 -0.381507 0 
-0.25021 -0.395692 0 
-0.200211 -0.419975 0 
-0.150955 -0.389014 0 
-0.100617 -0.416095 0 
-0.0503197 -0.386922 0 
-4.02994e-05 -0.416525 0 
0.05006 -0.386948 0 
0.100784 -0.416323 0 
0.150432 -0.388572 0 
0.200855 -0.420694 0 
0.25086 -0.396905 0 
0.301746 -0.379789 0 
0.344135 -0.410678 0 
0.385823 -0.385823 0 
0.4368 -0.397506 0 
0.486608 -0.401881 0 
0.542384 -0.399615 0 
0.594743 -0.402948 0 
0.646641 -0.405575 0 
0.698945 -0.407371 0 
0.751626 -0.408863 0 
0.804654 -0.410181 0 
0.857929 -0.411236 0 
0.912429 -0.409236 0 
-0.934288 -0.356519 0 
-0.879963 -0.359855 0 
-0.827415 -0.358606 0 
-0.774971 -0.357337 0 
-0.722823 -0.355968 0 
-0.670703 -0.354417 0 
-0.618952 -0.352514 0 
-0.567003 -0.350494 0 
-0.513639 -0.351685 0 
-0.462546 -0.348492 0 
-0.411459 -0.344215 0 
-0.351697 -0.351697 0 
-0.29839 -0.336232 0 
-0.249846 -0.342529 0 
-0.200971 -0.367271 0 
-0.149995 -0.337521 0 
-0.100435 -0.3646 0 
-0.0498692 -0.335025 0 
-6.88684e-05 -0.365025 0 
0.0495433 -0.334795 0 
0.0996798 -0.364834 0 
0.148162 -0.337172 0 
0.199644 -0.368939 0 
0.24763 -0.345582 0 
0.295348 -0.332889 0 
0.34978 -0.34978 0 
0.410678 -0.344135 0 
0.462562 -0.348831 0 
0.513798 -0.351514 0 
0.567174 -0.350318 0 
0.619096 -0.352457 0 
0.670836 -0.354397 0 
0.722893 -0.355952 0 
0.775038 -0.357323 0 
0.827419 -0.358581 0 
0.879943 -0.359894 0 
0.93426 -0.356593 0 
-0.952721 -0.303845 0 
-0.898929 -0.308871 0 
-0.847481 -0.306888 0 
-0.795641 -0.305781 0 
-0.743684 -0.304815 0 
-0.691387 -0.303722 0 
-0.639219 -0.302427 0 
-0.586897 -0.300977 0 
-0.534146 -0.301574 0 
-0.48291 -0.299695 0 
-0.432968 -0.295416 0 
-0.381507 -0.30136 0 
-0.336232 -0.29839 0 
-0.288184 -0.288184 0 
-0.242975 -0.290577 0 
-0.198059 -0.315051 0 
-0.148383 -0.285894 0 
-0.0994753 -0.313232 0 
-0.0507184 -0.283118 0 
-0.000202902 -0.313447 0 
0.0500077 -0.282824 0 
0.0988289 -0.312817 0 
0.148102 -0.28482 0 
0.195742 -0.317413 0 
0.240766 -0.295824 0 
0.285014 -0.285014 0 
0.332889 -0.295348 0 
0.379789 -0.301746 0 
0.432268 -0.296569 0 
0.483005 -0.299839 0 
0.534348 -0.301273 0 
0.587085 -0.30086 0 
0.639359 -0.302407 0 
0.691518 -0.303753 0 
0.743741 -0.304862 0 
0.795701 -0.305831 0 
0.847482 -0.306946 0 
0.898924 -0.308979 0 
0.952687 -0.303953 0 
-0.96803 -0.250833 0 
-0.916037 -0.258282 0 
-0.866979 -0.254732 0 
-0.816639 -0.25358 0 
-0.765535 -0.252907 0 
-0.71362 -0.252254 0 
-0.661417 -0.251503 0 
-0.608767 -0.250543 0 
-0.555692 -0.250874 0 
-0.503 -0.250032 0 
-0.450633 -0.247004 0 
-0.395692 -0.25021 0 
-0.342529 -0.249846 0 
-0.290577 -0.242975 0 
-0.239946 -0.239946 0 
-0.194478 -0.26004 0 
-0.151293 -0.23238 0 
-0.101048 -0.260904 0 
-0.0503938 -0.232537 0 
-0.000203281 -0.262984 0 
0.050638 -0.232316 0 
0.100942 -0.260855 0 
0.152412 -0.232597 0 
0.195768 -0.261421 0 
0.241873 -0.241873 0 
0.295824 -0.240766 0 
0.345582 -0.24763 0 
0.396905 -0.25086 0 
0.450921 -0.247983 0 
[...]
POINT_DATA 1245 
VECTORS vectors float
0.571682 -0.198409 0.796124 
0.58149 -0.174638 0.794589 
0.580851 -0.150888 0.799903 
0.580711 -0.122564 0.804831 
0.577891 -0.099603 0.810013 
0.571946 -0.080944 0.816288 
0.562466 -0.0595177 0.824675 
0.546993 -0.0316177 0.83654 
0.530522 0.00225709 0.847668 
0.512938 0.048774 0.857039 
0.501615 0.0993377 0.859368 
0.499842 0.153737 0.852363 
0.496226 0.200848 0.844642 
0.554294 -0.238227 0.7975 
0.565528 -0.22343 0.793887 
0.453412 -0.166393 0.875632 
0.461535 -0.151958 0.874011 
0.478976 -0.128358 0.868393 
0.443959 -0.104561 0.889926 
0.468985 -0.0897894 0.87863 
0.427257 -0.0637916 0.901877 
0.453938 -0.0486708 0.889703 
0.40634 -0.0171142 0.913561 
0.424964 0.0163186 0.905063 
0.387012 0.0518837 0.920614 
0.406666 0.0959457 0.908525 
0.396785 0.136659 0.907682 
0.391239 0.169604 0.904526 
0.499201 0.250002 0.829637 
0.502908 0.281823 0.817104 
0.516463 -0.292593 0.80477 
0.533069 -0.26355 0.803977 
0.435245 -0.202417 0.877262 
0.444411 -0.18589 0.876324 
0.350834 -0.140584 0.925825 
0.361409 -0.117287 0.925001 
0.38023 -0.112934 0.917971 
0.332233 -0.0794944 0.939841 
0.363049 -0.0711271 0.929051 
0.317297 -0.0509582 0.946956 
0.348018 -0.0358072 0.936804 
0.303261 -0.0110856 0.952843 
0.330561 0.0141586 0.943679 
0.289464 0.0428235 0.956231 
0.327022 0.0807697 0.941559 
0.30378 0.105796 0.94685 
0.309002 0.141177 0.940525 
0.395813 0.206267 0.894866 
0.398054 0.234842 0.886793 
0.496723 0.312567 0.809672 
0.495915 0.338437 0.799705 
0.488878 -0.319701 0.811659 
0.405367 -0.246827 0.880201 
0.422312 -0.22337 0.878498 
0.336601 -0.168501 0.926449 
0.346306 -0.151802 0.925758 
0.269252 -0.10842 0.956948 
0.279245 -0.103209 0.954657 
0.292864 -0.0841557 0.952443 
0.24601 -0.0654392 0.967056 
0.271805 -0.0572124 0.96065 
0.228667 -0.0367517 0.972811 
0.260867 -0.0266618 0.965006 
0.22012 -0.00480835 0.975461 
0.249062 0.0147659 0.968375 
0.216042 0.0352656 0.975747 
0.247522 0.0647577 0.966716 
0.241752 0.0895202 0.9662 
0.231114 0.107598 0.966958 
0.307953 0.165091 0.936968 
0.310576 0.190547 0.931254 
0.396223 0.259183 0.880813 
0.392887 0.277341 0.876768 
0.487025 0.350988 0.799759 
0.44515 -0.387083 0.80747 
0.463439 -0.35961 0.809879 
0.385209 -0.272274 0.881749 
0.314768 -0.204172 0.926949 
0.327336 -0.185608 0.926499 
0.260621 -0.138286 0.955486 
0.26398 -0.126816 0.956155 
0.206678 -0.0922916 0.974046 
0.210221 -0.0760385 0.974692 
0.223696 -0.0722387 0.971978 
0.1802 -0.0492058 0.982398 
0.200111 -0.0448662 0.978745 
0.164518 -0.0281288 0.985973 
0.190476 -0.0189469 0.981509 
0.157925 -0.00123887 0.98745 
0.184047 0.0135836 0.982824 
0.156558 0.0279253 0.987274 
0.189924 0.0512019 0.980463 
0.175945 0.0668153 0.98213 
0.184215 0.0893023 0.978821 
0.240798 0.134084 0.961269 
0.240668 0.152896 0.958489 
0.311153 0.20996 0.926877 
0.306366 0.226371 0.924606 
0.383536 0.293896 0.875514 
0.46708 0.376325 0.800135 
0.448906 0.398968 0.799567 
0.420111 -0.412203 0.808452 
0.358587 -0.325374 0.874955 
0.366834 -0.296502 0.881771 
0.298991 -0.224527 0.927465 
0.2393 -0.168739 0.956171 
0.249985 -0.153178 0.956056 
0.194793 -0.112826 0.974334 
0.20077 -0.0984304 0.974681 
0.151403 -0.0662563 0.986249 
0.160184 -0.064717 0.984963 
0.166539 -0.0551773 0.98449 
0.132195 -0.0411362 0.99037 
0.145259 -0.0342505 0.988801 
0.117978 -0.0214498 0.992784 
0.135722 -0.0125674 0.990667 
0.112824 -0.000461314 0.993615 
0.13282 0.0124325 0.991062 
0.115954 0.0217883 0.993016 
0.141642 0.0411526 0.989062 
0.138027 0.0535461 0.98898 
0.129982 0.066181 0.989305 
0.178419 0.102959 0.978553 
0.183231 0.12212 0.975455 
0.23921 0.169881 0.955991 
0.237259 0.18458 0.95375 
0.297167 0.243938 0.923139 
0.367405 0.312892 0.875849 
0.357369 0.341276 0.869378 
0.414274 0.425585 0.804521 
0.402061 -0.431591 0.807512 
0.339211 -0.344359 0.875416 
0.285332 -0.267403 0.92037 
0.28473 -0.242379 0.927459 
0.228936 -0.181983 0.95628 
0.185831 -0.141159 0.972389 
0.191362 -0.125041 0.973522 
0.147975 -0.0897606 0.984909 
0.15262 -0.0806456 0.984989 
0.115856 -0.0552369 0.991729 
0.116365 -0.0466791 0.992109 
0.122245 -0.0435996 0.991542 
0.0951166 -0.030939 0.994985 
0.10427 -0.0267078 0.99419 
0.0833537 -0.0167858 0.996379 
0.0956507 -0.0101368 0.995363 
0.0791657 -0.00119487 0.996861 
0.094864 0.00884851 0.995451 
0.0845769 0.0172421 0.996268 
0.104828 0.0313576 0.993996 
0.101301 0.0425532 0.993945 
0.104343 0.0561109 0.992957 
0.14048 0.084439 0.986476 
0.135419 0.0976797 0.985962 
0.183472 0.136599 0.973488 
0.184019 0.155524 0.970541 
0.228284 0.198401 0.953165 
0.284915 0.262163 0.922005 
0.280212 0.291002 0.914767 
0.332987 0.366595 0.868751 
0.388049 0.459782 0.798761 
0.37758 -0.438907 0.815349 
0.312243 -0.34686 0.884416 
0.259082 -0.262676 0.92945 
0.222148 -0.205295 0.953155 
0.179033 -0.157453 0.971162 
0.140195 -0.114986 0.983424 
0.140693 -0.103516 0.984627 
0.109548 -0.0735966 0.991253 
0.11003 -0.0592679 0.99216 
0.0813919 -0.0390122 0.995918 
0.0848054 -0.0375879 0.995688 
0.0897916 -0.0361998 0.995302 
0.0682894 -0.0257002 0.997334 
0.0761469 -0.0221791 0.99685 
0.0596069 -0.0140373 0.998123 
0.0681284 -0.00976061 0.997629 
0.0550621 -0.00414224 0.998474 
0.0688455 0.00522241 0.997614 
0.061511 0.0117263 0.998038 
0.0802269 0.0255368 0.996449 
0.0772293 0.0343779 0.99642 
0.0724999 0.0432767 0.996429 
0.097289 0.0647212 0.99315 
0.102865 0.0774018 0.991679 
0.138726 0.109807 0.984224 
0.141553 0.123539 0.982192 
0.182189 0.173839 0.967774 
0.220796 0.224537 0.949122 
0.254168 0.288653 0.923081 
0.306588 0.378457 0.873369 
0.370859 0.480193 0.794908 
0.343658 -0.45331 0.822441 
0.288953 -0.356292 0.888573 
0.241365 -0.273979 0.930956 
0.198525 -0.214372 0.956364 
0.167539 -0.163842 0.972156 
0.134894 -0.125387 0.982895 
0.103479 -0.0948737 0.990097 
0.110608 -0.0833304 0.990365 
0.0826228 -0.0579814 0.994893 
0.0855688 -0.05053 0.99505 
0.0618855 -0.0331194 0.997534 
0.0612645 -0.0312998 0.997631 
0.0637455 -0.0269778 0.997601 
0.0497479 -0.0199629 0.998562 
0.0545947 -0.0162494 0.998376 
0.0436357 -0.010479 0.998993 
0.047828 -0.00851423 0.998819 
0.0394469 -0.00326305 0.999216 
0.0484269 0.00234273 0.998824 
0.0452342 0.00812141 0.998943 
0.0593216 0.0199775 0.998039 
0.0569332 0.0282976 0.997977 
0.0571735 0.0360523 0.997713 
0.0769957 0.0541007 0.995563 
0.0734121 0.0611182 0.995427 
0.103178 0.0895285 0.990626 
0.10624 0.101283 0.989169 
0.136657 0.137571 0.981019 
0.169204 0.181902 0.968649 
0.196438 0.236896 0.951468 
0.238764 0.303874 0.922308 
0.291935 0.394643 0.871224 
0.350169 0.501411 0.791181 
0.307746 -0.46557 0.829781 
0.260299 -0.366522 0.893256 
0.218176 -0.285595 0.933185 
0.179551 -0.220298 0.958765 
0.150279 -0.167313 0.974383 
0.119667 -0.132856 0.983885 
0.0953806 -0.0964559 0.990757 
0.0840596 -0.0686945 0.99409 
0.0764576 -0.0671348 0.99481 
0.0657828 -0.0474423 0.996705 
0.0597437 -0.0399576 0.997414 
0.043475 -0.0289852 0.998634 
0.0432003 -0.0220607 0.998823 
0.046054 -0.0231096 0.998672 
0.0359119 -0.0135919 0.999263 
0.0395654 -0.0123298 0.999141 
0.0299325 -0.00585136 0.999535 
0.0344057 -0.00591295 0.99939 
0.0279627 -0.00230781 0.999606 
0.0344917 -0.000245715 0.999405 
0.0313445 0.005265 0.999495 
0.042629 0.014459 0.998986 
0.0427188 0.0209118 0.998868 
0.0402458 0.0252596 0.99887 
0.0538882 0.0400915 0.997742 
0.0572514 0.0495457 0.99713 
0.0751066 0.0666444 0.994946 
0.0759887 0.0783696 0.994024 
0.101024 0.105937 0.989228 
0.125793 0.146123 0.981236 
0.151767 0.185614 0.970832 
0.183212 0.243408 0.952463 
0.22617 0.317524 0.920883 
0.278072 0.407496 0.869841 
0.338223 0.514243 0.788137 
0.262585 -0.480147 0.836964 
0.226447 -0.377323 0.897969 
0.190102 -0.293478 0.936874 
0.15951 -0.223252 0.961621 
0.129098 -0.174349 0.976185 
0.101334 -0.130287 0.986284 
0.0860517 -0.0930971 0.991931 
0.0636279 -0.0702899 0.995495 
0.0587508 -0.0504003 0.997 
0.0452889 -0.0381006 0.998247 
0.0476303 -0.0330352 0.998319 
0.0304893 -0.0198455 0.999338 
0.0320768 -0.0213483 0.999257 
0.0332484 -0.015938 0.99932 
0.0248939 -0.0109344 0.99963 
0.0286369 -0.00793872 0.999558 
0.0207131 -0.00390254 0.999778 
0.025184 -0.0020368 0.999681 
0.0203207 0.000560102 0.999793 
0.0248371 0.00217846 0.999689 
0.0217147 0.000344074 0.999764 
0.0308188 0.00905413 0.999484 
0.0300162 0.0130105 0.999465 
0.0333294 0.017413 0.999293 
0.0456466 0.0326903 0.998423 
0.0422636 0.0345139 0.99851 
0.0576575 0.0550978 0.996815 
0.071634 0.0775742 0.99441 
0.0905617 0.10742 0.990081 
0.112889 0.143396 0.983206 
0.138845 0.191323 0.971657 
0.171082 0.247507 0.953662 
0.212699 0.323976 0.921845 
0.261084 0.413773 0.872139 
0.312934 0.515798 0.797511 
0.220401 -0.501293 0.836737 
0.190082 -0.390191 0.900899 
0.161257 -0.297586 0.940977 
0.13601 -0.230649 0.963485 
0.107286 -0.175042 0.978698 
0.089995 -0.129665 0.987465 
0.0669649 -0.0986316 0.992868 
0.0603018 -0.0656733 0.996017 
0.0543056 -0.0459784 0.997465 
0.0417005 -0.0386849 0.998381 
0.0370294 -0.0257869 0.998981 
0.028993 -0.0259418 0.999243 
0.0268546 -0.0214511 0.999409 
0.0197126 -0.0105408 0.99975 
0.0249392 -0.0124301 0.999612 
0.0185657 -0.00903084 0.999787 
0.01824 -0.00675131 0.999811 
0.0130601 -0.00513811 0.999902 
0.0165209 -0.00166296 0.999862 
0.014573 0.00188313 0.999892 
0.0175422 -0.00054637 0.999846 
0.0136013 0.00273394 0.999904 
0.0203199 0.00547037 0.999779 
0.0210678 0.00491561 0.999766 
0.0247434 0.0144341 0.99959 
0.0317236 0.0186351 0.999323 
0.0381144 0.0286309 0.998863 
0.0422263 0.0391337 0.998341 
0.0510495 0.0562775 0.997109 
0.0654967 0.0772023 0.994862 
0.0826112 0.107967 0.990716 
0.102793 0.142216 0.984484 
0.125781 0.190233 0.973648 
0.15818 0.250645 0.955069 
0.193897 0.325207 0.925551 
0.236202 0.416496 0.877918 
0.27961 0.523021 0.80515 
0.182746 -0.519044 0.834983 
0.156274 -0.401734 0.902324 
0.136637 -0.310295 0.940769 
0.107652 -0.233268 0.966435 
0.0949534 -0.175581 0.979875 
0.0687878 -0.135669 0.988363 
0.0600486 -0.0976938 0.993403 
0.0486583 -0.0689153 0.996435 
0.0407385 -0.0518714 0.997822 
0.0389494 -0.0319592 0.99873 
0.0264577 -0.0304292 0.999187 
0.0209976 -0.0212266 0.999554 
0.0111037 -0.00471735 0.999927 
0.0201223 -0.0129136 0.999714 
0.0175806 -0.00814713 0.999812 
0.0131054 -0.0090678 0.999873 
0.0119832 -0.00931936 0.999885 
0.00767266 -0.00951317 0.999925 
0.0115998 -0.00224905 0.99993 
0.0111007 -0.00424091 0.999929 
0.013121 -0.00112301 0.999913 
0.00924393 -0.00508705 0.999944 
0.0132222 -0.0038165 0.999905 
0.0114643 0.00815944 0.999901 
0.018321 0.00316046 0.999827 
0.0241714 0.0153359 0.99959 
0.0279139 0.0234679 0.999335 
0.0377758 0.0387655 0.998534 
0.0466734 0.0555275 0.997366 
0.056934 0.077486 0.995366 
0.073835 0.103362 0.9919 
0.0896905 0.143249 0.985614 
0.113781 0.185405 0.976053 
0.137491 0.250154 0.958394 
0.174254 0.324404 0.92973 
0.207716 0.416705 0.884992 
0.247815 0.523644 0.815098 
0.146492 -0.539697 0.829016 
0.133039 -0.420013 0.897714 
0.103119 -0.321046 0.941433 
0.0966107 -0.241226 0.965648 
0.071868 -0.18286 0.980509 
0.0628611 -0.134345 0.988939 
0.0485217 -0.100801 0.993723 
0.039829 -0.074789 0.996404 
0.0389281 -0.0487699 0.998051 
0.0271459 -0.037525 0.998927 
0.0265513 -0.0276198 0.999266 
0.0150955 -0.0156668 0.999763 
0.0198015 -0.0171803 0.999656 
0.0117052 -0.0112288 0.999868 
0.0125779 0.000651824 0.999921 
0.0143006 -0.00671699 0.999875 
0.0111529 -0.00880056 0.999899 
0.00909077 -0.011068 0.999897 
0.00818927 -0.00805638 0.999934 
0.00907154 -0.00486338 0.999947 
0.0106031 -0.000827132 0.999943 
0.00979981 -0.00113778 0.999951 
0.00759237 -0.001974 0.999969 
0.00646593 0.00220705 0.999977 
0.010192 -0.00407985 0.99994 
0.00876728 0.0128149 0.999879 
0.0169084 0.00889243 0.999817 
0.0218274 0.0176062 0.999607 
0.0251642 0.0240055 0.999395 
0.0293943 0.0359929 0.99892 
0.0381727 0.052453 0.997894 
0.0502605 0.0758074 0.995855 
0.06001 0.102835 0.992887 
0.0784263 0.136462 0.987536 
0.0934881 0.188863 0.977543 
0.12351 0.244615 0.961722 
0.144893 0.327856 0.93355 
0.182761 0.41596 0.890829 
0.2076 0.528062 0.82344 
0.120064 -0.561376 0.818805 
0.100525 -0.440633 0.892041 
0.0946423 -0.338954 0.93603 
0.0706088 -0.261129 0.962718 
0.0635668 -0.189412 0.979838 
0.0512107 -0.141881 0.988558 
0.0405816 -0.104831 0.993662 
0.0364388 -0.0751124 0.996509 
0.0267396 -0.0545371 0.998154 
0.0264112 -0.0383144 0.998917 
0.0170371 -0.0248879 0.999545 
0.0169673 -0.0220716 0.999612 
0.00756306 -0.00946309 0.999927 
0.0131577 -0.00319064 0.999908 
0.0111142 -0.00555245 0.999923 
0.0116116 -0.00417405 0.999924 
0.00939489 -0.00582851 0.999939 
0.00608435 -0.00926305 0.999939 
0.00620598 -0.00815639 0.999947 
0.00822775 -0.00769907 0.999937 
0.0100124 -0.00776285 0.99992 
0.00941606 -0.00730905 0.999929 
0.00660262 -0.00246565 0.999975 
0.00602714 -0.00301335 0.999977 
0.00644756 0.00445245 0.999969 
0.0123399 0.00198348 0.999922 
0.0118097 0.0116688 0.999862 
0.0146013 0.0133855 0.999804 
0.0172362 0.0213795 0.999623 
0.0246406 0.0353453 0.999071 
0.0316268 0.0531656 0.998085 
0.0400129 0.0738324 0.996468 
0.0520494 0.104596 0.993152 
0.0627722 0.140276 0.988121 
0.0835033 0.187313 0.978745 
0.0991133 0.25607 0.961564 
0.132732 0.324078 0.936673 
0.149751 0.426536 0.891987 
0.176221 0.53821 0.824182 
0.0929907 -0.575331 0.812617 
0.0926029 -0.462725 0.881652 
0.0672544 -0.375663 0.924313 
0.0613227 -0.279201 0.958273 
0.0512733 -0.21157 0.976017 
0.0405633 -0.151747 0.987587 
0.0359151 -0.109322 0.993357 
0.0271698 -0.0797976 0.996441 
0.0239907 -0.0570903 0.998081 
0.0179092 -0.0377238 0.999128 
0.0153097 -0.0273761 0.999508 
0.0119903 -0.0175879 0.999773 
0.0114566 -0.0120866 0.999861 
0.00950908 -0.00946221 0.99991 
0.00909223 -0.00385668 0.999951 
0.0103625 -0.00278702 0.999942 
0.00532308 -0.00228917 0.999983 
0.00949452 -0.00479423 0.999943 
0.00709487 0.000128977 0.999975 
0.00928429 -0.0021278 0.999955 
0.00833377 -0.00220676 0.999963 
0.00927036 -0.00174754 0.999956 
0.0071338 -0.00658159 0.999953 
0.00716295 -0.00166909 0.999973 
0.00879208 0.0012459 0.999961 
0.00927217 0.00561378 0.999941 
0.0111508 0.00774245 0.999908 
0.0107186 0.0133338 0.999854 
0.0156471 0.0224681 0.999625 
0.0201344 0.0354491 0.999169 
0.0281924 0.0545552 0.998113 
0.0343172 0.078021 0.996361 
0.0421435 0.105476 0.993528 
0.0535899 0.148475 0.987463 
0.0694527 0.198826 0.977571 
0.0899718 0.260234 0.961345 
0.104463 0.351252 0.930435 
0.137556 0.429782 0.892393 
0.146894 0.538692 0.829598 
0.0734816 -0.584032 0.808398 
0.0598346 -0.444167 0.893944 
0.055736 -0.32806 0.943011 
0.0366773 -0.243075 0.969314 
0.0328198 -0.170273 0.98485 
0.0265104 -0.12139 0.992251 
0.022679 -0.0857771 0.996056 
0.0176056 -0.060049 0.99804 
0.0131754 -0.0411234 0.999067 
0.0106898 -0.0257083 0.999612 
0.0103898 -0.0159899 0.999818 
0.00982016 -0.012265 0.999877 
0.00901828 -0.00840712 0.999924 
0.00958724 -0.00750657 0.999926 
0.0077619 -0.00541983 0.999955 
0.00484685 -0.00249343 0.999985 
0.00951137 -0.00183636 0.999953 
0.00174912 5.06363e-05 0.999998 
0.00669122 -0.00319932 0.999972 
0.00666066 -0.00648201 0.999957 
0.00654461 -0.00578816 0.999962 
0.00611297 -0.00920474 0.999939 
0.00520344 -0.00283246 0.999982 
0.00606279 -0.00474815 0.99997 
0.00834505 -0.00373935 0.999958 
0.00948654 -0.00134958 0.999954 
0.00900119 0.000977253 0.999959 
0.00670824 0.00647079 0.999957 
0.00924894 0.0111299 0.999895 
0.0130197 0.0226787 0.999658 
0.020034 0.0383724 0.999063 
0.0226451 0.0553276 0.998211 
0.0280197 0.0822512 0.996218 
0.035152 0.115501 0.992685 
0.0456788 0.158457 0.986309 
0.0579926 0.223799 0.972908 
0.0807711 0.291421 0.953179 
0.0961784 0.408275 0.907778 
0.118445 0.53544 0.836227 
0.0561802 -0.588439 0.806587 
0.0605633 -0.475082 0.877855 
0.0335962 -0.368411 0.929056 
0.0306639 -0.274533 0.961089 
0.0232723 -0.197308 0.980065 
0.0180219 -0.139855 0.990008 
0.0175329 -0.0974984 0.995081 
0.0141692 -0.0693377 0.997493 
0.0107233 -0.0470677 0.998834 
0.0075406 -0.0294137 0.999539 
0.00673447 -0.0179705 0.999816 
0.0079515 -0.0106336 0.999912 
0.00856423 -0.00896684 0.999923 
0.00718896 -0.00821878 0.99994 
0.00501431 -0.00704994 0.999963 
0.00819708 -0.00620022 0.999947 
0.000499432 -0.00218186 0.999997 
0.00195065 -0.000686957 0.999998 
0.00354572 -0.0012002 0.999993 
0.00319447 0.000185187 0.999995 
0.000217929 -0.00642278 0.999979 
0.00327911 -0.00717652 0.999969 
0.0039582 -0.00882727 0.999953 
0.00530652 -0.00559021 0.99997 
0.00655843 -0.00722197 0.999952 
0.00585901 -0.00477875 0.999971 
0.00669927 -0.000719528 0.999977 
0.00596155 0.00533221 0.999968 
0.00952652 0.0146354 0.999848 
0.0133267 0.0250527 0.999597 
0.0161323 0.0422887 0.998975 
0.0192255 0.0623309 0.99787 
0.0205291 0.0897205 0.995755 
0.0256839 0.130462 0.991121 
0.0356625 0.177812 0.983418 
0.0451633 0.24368 0.968804 
0.0561602 0.334546 0.940705 
0.0813399 0.41827 0.904673 
0.0853062 0.53262 0.842044 
0.0425214 -0.586573 0.808779 
0.0252197 -0.439047 0.89811 
0.029031 -0.322695 0.946058 
0.0119076 -0.231849 0.972679 
0.0116948 -0.164725 0.98627 
0.0105303 -0.115003 0.993309 
0.0106383 -0.081389 0.996626 
0.00890246 -0.0559087 0.998396 
0.00494089 -0.037553 0.999282 
0.00426842 -0.0223316 0.999742 
0.00598378 -0.0130502 0.999897 
0.00645555 -0.00806484 0.999947 
0.00578301 -0.00609596 0.999965 
0.00680301 -0.00825254 0.999943 
0.00339576 -0.00523982 0.999981 
0.00507943 -0.00746657 0.999959 
0.00640603 -0.00226911 0.999977 
0.00395995 -0.00655334 0.999971 
0.00184072 -0.00603733 0.99998 
0.0041022 -0.0102427 0.999939 
0.00260702 -0.00486644 0.999985 
0.00244292 -0.00824335 0.999963 
-0.000159171 -0.00457906 0.99999 
0.00367767 -0.00581022 0.999976 
0.00202259 -0.00791312 0.999967 
0.00400592 -0.00710252 0.999967 
0.0020182 -0.00629239 0.999978 
0.00169313 0.00140699 0.999998 
0.00478588 0.00710432 0.999963 
0.00590583 0.0179402 0.999822 
0.0097619 0.0306138 0.999484 
0.00914214 0.0462 0.99889 
0.00889836 0.072551 0.997325 
0.0120249 0.104456 0.994457 
0.0149077 0.147437 0.988959 
0.0181168 0.208939 0.977761 
0.0304802 0.279692 0.959606 
0.034131 0.393818 0.918555 
0.0524454 0.520204 0.852431 
0.018294 -0.585608 0.810388 
0.0254894 -0.468808 0.882932 
0.00578718 -0.361376 0.932402 
0.00639498 -0.267424 0.963558 
0.00443078 -0.193301 0.981129 
0.00212409 -0.137382 0.990516 
0.00556106 -0.0965177 0.995316 
0.00512665 -0.0676931 0.997693 
0.00319692 -0.0470852 0.998886 
0.00246419 -0.03169 0.999495 
0.00251811 -0.0198 0.999801 
0.00442808 -0.0109406 0.99993 
0.00601794 -0.00539027 0.999967 
0.00380636 -0.00313369 0.999988 
0.00371323 -0.0048004 0.999982 
0.00528628 -0.00570942 0.99997 
0.00622562 -0.0031456 0.999976 
0.00482311 -0.00800463 0.999956 
0.00876044 -0.00271534 0.999958 
0.00350286 -0.00805236 0.999961 
-0.00154314 -0.00773311 0.999969 
0.00444457 -0.0055877 0.999975 
0.000512302 -0.00505523 0.999987 
0.00315668 -0.00397585 0.999987 
0.00013224 -0.00800774 0.999968 
-0.000917939 -0.00391972 0.999992 
0.000670927 -0.000938415 0.999999 
-0.00139201 0.00645409 0.999978 
0.00222012 0.0146301 0.999891 
0.00212965 0.0226575 0.999741 
-6.50234e-06 0.0382808 0.999267 
0.000207337 0.0580125 0.998316 
-0.00131549 0.0851085 0.996371 
-0.00118172 0.124429 0.992228 
0.000660439 0.171315 0.985216 
-0.00172727 0.236341 0.971669 
-0.00501179 0.321639 0.946849 
0.00774171 0.406924 0.913429 
0.00501646 0.514457 0.857502 
0.00235222 -0.574733 0.818337 
-0.0116845 -0.429596 0.902945 
-0.000513548 -0.312664 0.949864 
-0.00900332 -0.22822 0.973568 
-0.00569309 -0.1631 0.986593 
-0.00377671 -0.11518 0.993337 
-0.00139558 -0.0795611 0.996829 
-0.000430289 -0.0548136 0.998497 
-0.00127812 -0.038258 0.999267 
-0.000612518 -0.026844 0.999639 
0.00414714 -0.0158839 0.999865 
0.00334463 -0.00700625 0.99997 
0.00266642 -0.00152481 0.999995 
0.00212358 -0.00126947 0.999997 
0.00317954 -0.00285881 0.999991 
0.0046257 -0.00545509 0.999974 
0.00782347 -0.001624 0.999968 
0.00547639 -0.00450635 0.999975 
0.0049378 -0.00872569 0.99995 
0.00331687 -0.00445202 0.999985 
0.00627156 -0.00752806 0.999952 
0.00405001 -0.00663252 0.99997 