# vtk DataFile Version 3.0 
Exported using Morpho https://github.com/Morpho-lang/morpho 
ASCII 
DATASET UNSTRUCTURED_GRID 

POINTS 1245 float 
-0.303845 -0.952721 0 
-0.250833 -0.96803 0 
-0.195084 -0.980787 0 
-0.146308 -0.989239 0 
-0.0940719 -0.995565 0 
-0.0475118 -0.998871 0 
-0.000246339 -1 0 
0.0470875 -0.998891 0 
0.0937543 -0.995595 0 
0.146139 -0.989264 0 
0.195062 -0.980791 0 
0.250843 -0.968028 0 
0.303953 -0.952687 0 
-0.409153 -0.912466 0 
-0.356519 -0.934288 0 
-0.308871 -0.898929 0 
-0.258282 -0.916037 0 
-0.207345 -0.934859 0 
-0.154868 -0.930629 0 
-0.104343 -0.948989 0 
-0.0520099 -0.939193 0 
-8.5762e-05 -0.954582 0 
0.0518744 -0.939288 0 
0.104354 -0.949042 0 
0.154696 -0.9306 0 
0.207366 -0.934975 0 
0.258274 -0.916081 0 
0.308979 -0.898924 0 
0.356593 -0.93426 0 
0.409236 -0.912429 0 
-0.513788 -0.857917 0 
-0.461695 -0.887039 0 
-0.411157 -0.857936 0 
-0.359855 -0.879963 0 
-0.306888 -0.847481 0 
-0.254732 -0.866979 0 
-0.201991 -0.889059 0 
-0.149956 -0.874108 0 
-0.100608 -0.900088 0 
-0.0497575 -0.880388 0 
2.4595e-05 -0.904789 0 
0.0496869 -0.8804 0 
0.100612 -0.900177 0 
0.149872 -0.874171 0 
0.202071 -0.889165 0 
0.254695 -0.867031 0 
0.306946 -0.847482 0 
0.359894 -0.879943 0 
0.411236 -0.857929 0 
0.461748 -0.887011 0 
0.513842 -0.857885 0 
-0.564741 -0.825268 0 
-0.512908 -0.802945 0 
-0.462372 -0.832348 0 
-0.410124 -0.804631 0 
-0.358606 -0.827415 0 
-0.305781 -0.795641 0 
-0.25358 -0.816639 0 
-0.200756 -0.839997 0 
-0.149043 -0.818944 0 
-0.0987265 -0.846667 0 
-0.0490473 -0.822548 0 
5.00659e-05 -0.849932 0 
0.0490834 -0.822542 0 
0.0987838 -0.846676 0 
0.148997 -0.818924 0 
0.200826 -0.840131 0 
0.253508 -0.816728 0 
0.305831 -0.795701 0 
0.358581 -0.827419 0 
0.410181 -0.804654 0 
0.462414 -0.83234 0 
0.512965 -0.802929 0 
0.564777 -0.825243 0 
-0.660798 -0.750564 0 
-0.614015 -0.789295 0 
-0.561786 -0.769772 0 
-0.510673 -0.747856 0 
-0.460836 -0.778365 0 
-0.408794 -0.751554 0 
-0.357337 -0.774971 0 
-0.304815 -0.743684 0 
-0.252907 -0.765535 0 
-0.200631 -0.789263 0 
-0.149244 -0.764328 0 
-0.0986912 -0.791935 0 
-0.0492815 -0.765764 0 
4.16586e-05 -0.79382 0 
0.0492411 -0.765708 0 
0.0987508 -0.791951 0 
0.149196 -0.764326 0 
0.200666 -0.789356 0 
0.252841 -0.765599 0 
0.304862 -0.743741 0 
0.357323 -0.775038 0 
0.408863 -0.751626 0 
0.460863 -0.778382 0 
0.510716 -0.747859 0 
0.561819 -0.769761 0 
0.614041 -0.789274 0 
0.660811 -0.750552 0 
-0.707107 -0.707107 0 
-0.654819 -0.699058 0 
-0.60813 -0.73348 0 
-0.558104 -0.71337 0 
-0.509495 -0.692659 0 
-0.45935 -0.724356 0 
-0.407328 -0.698865 0 
-0.355968 -0.722823 0 
-0.303722 -0.691387 0 
-0.252254 -0.71362 0 
-0.20067 -0.737336 0 
-0.149608 -0.710068 0 
-0.0991558 -0.737129 0 
-0.0495872 -0.709825 0 
-2.23646e-05 -0.737917 0 
0.0494408 -0.709766 0 
0.0991291 -0.737116 0 
0.149502 -0.710042 0 
0.200696 -0.73743 0 
0.252186 -0.713735 0 
0.303753 -0.691518 0 
0.355952 -0.722893 0 
0.407371 -0.698945 0 
0.459374 -0.724407 0 
0.509524 -0.692668 0 
0.558131 -0.713361 0 
0.608151 -0.733462 0 
0.654824 -0.699048 0 
0.707107 -0.707107 0 
-0.750564 -0.660798 0 
-0.699058 -0.654819 0 
-0.647692 -0.647692 0 
-0.603437 -0.675718 0 
-0.55905 -0.655305 0 
-0.508501 -0.639581 0 
-0.457509 -0.671321 0 
-0.405555 -0.646545 0 
-0.354417 -0.670703 0 
-0.302427 -0.639219 0 
-0.251503 -0.661417 0 
-0.20061 -0.684911 0 
-0.149717 -0.655943 0 
-0.0995004 -0.682466 0 
-0.0498216 -0.654561 0 
-5.02113e-05 -0.682664 0 
0.0496787 -0.654499 0 
0.0994374 -0.682501 0 
0.149603 -0.655909 0 
0.200573 -0.684972 0 
0.251388 -0.661524 0 
0.302407 -0.639359 0 
0.354397 -0.670836 0 
0.405575 -0.646641 0 
0.457525 -0.67138 0 
0.508497 -0.639623 0 
0.559063 -0.655324 0 
0.603436 -0.675715 0 
0.64769 -0.64769 0 
0.699048 -0.654824 0 
0.750552 -0.660811 0 
-0.789295 -0.614015 0 
-0.73348 -0.60813 0 
-0.675718 -0.603437 0 
-0.613088 -0.613088 0 
-0.55962 -0.604068 0 
-0.506189 -0.588854 0 
-0.455505 -0.618874 0 
-0.403019 -0.594688 0 
-0.352514 -0.618952 0 
-0.300977 -0.586897 0 
-0.250543 -0.608767 0 
-0.200257 -0.632053 0 
-0.150049 -0.601979 0 
-0.0998281 -0.628222 0 
-0.0500377 -0.599914 0 
-3.12334e-05 -0.628076 0 
0.0498927 -0.599835 0 
0.0997818 -0.628253 0 
0.149924 -0.601867 0 
0.200214 -0.632118 0 
0.250423 -0.608915 0 
0.30086 -0.587085 0 
0.352457 -0.619096 0 
0.402948 -0.594743 0 
0.455483 -0.618952 0 
0.506147 -0.588901 0 
0.55964 -0.604067 0 
0.613069 -0.613069 0 
0.675715 -0.603436 0 
0.733462 -0.608151 0 
0.789274 -0.614041 0 
-0.825268 -0.564741 0 
-0.769772 -0.561786 0 
-0.71337 -0.558104 0 
-0.655305 -0.55905 0 
-0.604068 -0.55962 0 
-0.551031 -0.551031 0 
-0.497922 -0.537596 0 
-0.451508 -0.567021 0 
-0.399773 -0.542431 0 
-0.350494 -0.567003 0 
-0.301574 -0.534146 0 
-0.250874 -0.555692 0 
-0.200542 -0.579013 0 
-0.150324 -0.548268 0 
-0.100169 -0.57443 0 
-0.0500152 -0.545912 0 
-3.29278e-05 -0.574268 0 
0.0499208 -0.545788 0 
0.100058 -0.574485 0 
0.150038 -0.548073 0 
0.200377 -0.579041 0 
0.250556 -0.55585 0 
0.301273 -0.534348 0 
0.350318 -0.567174 0 
0.399615 -0.542384 0 
0.451404 -0.5671 0 
0.497945 -0.537702 0 
0.551073 -0.551073 0 
0.604067 -0.55964 0 
0.655324 -0.559063 0 
0.713361 -0.558131 0 
0.769761 -0.561819 0 
0.825243 -0.564777 0 
-0.857917 -0.513788 0 
-0.802945 -0.512908 0 
-0.747856 -0.510673 0 
-0.692659 -0.509495 0 
-0.639581 -0.508501 0 
-0.588854 -0.506189 0 
-0.537596 -0.497922 0 
-0.486157 -0.486157 0 
-0.444928 -0.512952 0 
-0.401787 -0.486784 0 
-0.351685 -0.513639 0 
-0.299695 -0.48291 0 
-0.250032 -0.503 0 
-0.200501 -0.526165 0 
-0.149489 -0.495195 0 
-0.0999281 -0.521367 0 
-0.0499712 -0.492294 0 
4.64723e-05 -0.520999 0 
0.050147 -0.492108 0 
0.099934 -0.52133 0 
0.14957 -0.494692 0 
0.200133 -0.526255 0 
0.249839 -0.503309 0 
0.299839 -0.483005 0 
0.351514 -0.513798 0 
0.401881 -0.486608 0 
0.444935 -0.513054 0 
0.486228 -0.486228 0 
0.537702 -0.497945 0 
0.588901 -0.506147 0 
0.639623 -0.508497 0 
0.692668 -0.509524 0 
0.747859 -0.510716 0 
0.802929 -0.512965 0 
0.857885 -0.513842 0 
-0.887039 -0.461695 0 
-0.832348 -0.462372 0 
-0.778365 -0.460836 0 
-0.724356 -0.45935 0 
-0.671321 -0.457509 0 
-0.618874 -0.455505 0 
-0.567021 -0.451508 0 
-0.512952 -0.444928 0 
-0.450685 -0.450685 0 
-0.397667 -0.437543 0 
-0.348492 -0.462546 0 
-0.295416 -0.432968 0 
-0.247004 -0.450633 0 
-0.198702 -0.473818 0 
-0.150161 -0.441625 0 
-0.100085 -0.468395 0 
-0.0502271 -0.439281 0 
0.000144229 -0.468374 0 
0.0504178 -0.439106 0 
0.100428 -0.468348 0 
0.150697 -0.441105 0 
0.199103 -0.473881 0 
0.247983 -0.450921 0 
0.296569 -0.432268 0 
0.348831 -0.462562 0 
0.397506 -0.4368 0 
0.450637 -0.450637 0 
0.513054 -0.444935 0 
0.5671 -0.451404 0 
0.618952 -0.455483 0 
0.67138 -0.457525 0 
0.724407 -0.459374 0 
0.778382 -0.460863 0 
0.83234 -0.462414 0 
0.887011 -0.461748 0 
-0.912466 -0.409153 0 
-0.857936 -0.411157 0 
-0.804631 -0.410124 0 
-0.751554 -0.408794 0 
-0.698865 -0.407328 0 
-0.646545 -0.405555 0 
-0.594688 -0.403019 0 
-0.542431 -0.399773 0 
-0.486784 -0.401787 0 
-0.437543 -0.397667 0 
-0.387256 -0.387256 0 
-0.344215 -0.411459 0 
-0.30136 -0.381507 0 
-0.25021 -0.395692 0 
-0.200211 -0.419975 0 
-0.150955 -0.389014 0 
-0.100617 -0.416095 0 
-0.0503197 -0.386922 0 
-4.02994e-05 -0.416525 0 
0.05006 -0.386948 0 
0.100784 -0.416323 0 
0.150432 -0.388572 0 
0.200855 -0.420694 0 
0.25086 -0.396905 0 
0.301746 -0.379789 0 
0.344135 -0.410678 0 
0.385823 -0.385823 0 
0.4368 -0.397506 0 
0.486608 -0.401881 0 
0.542384 -0.399615 0 
0.594743 -0.402948 0 
0.646641 -0.405575 0 
0.698945 -0.407371 0 
0.751626 -0.408863 0 
0.804654 -0.410181 0 
0.857929 -0.411236 0 
0.912429 -0.409236 0 
-0.934288 -0.356519 0 
-0.879963 -0.359855 0 
-0.827415 -0.358606 0 
-0.774971 -0.357337 0 
-0.722823 -0.355968 0 
-0.670703 -0.354417 0 
-0.618952 -0.352514 0 
-0.567003 -0.350494 0 
-0.513639 -0.351685 0 
-0.462546 -0.348492 0 
-0.411459 -0.344215 0 
-0.351697 -0.351697 0 
-0.29839 -0.336232 0 
-0.249846 -0.342529 0 
-0.200971 -0.367271 0 
-0.149995 -0.337521 0 
-0.100435 -0.3646 0 
-0.0498692 -0.335025 0 
-6.88684e-05 -0.365025 0 
0.0495433 -0.334795 0 
0.0996798 -0.364834 0 
0.148162 -0.337172 0 
0.199644 -0.368939 0 
0.24763 -0.345582 0 
0.295348 -0.332889 0 
0.34978 -0.34978 0 
0.410678 -0.344135 0 
0.462562 -0.348831 0 
0.513798 -0.351514 0 
0.567174 -0.350318 0 
0.619096 -0.352457 0 
0.670836 -0.354397 0 
0.722893 -0.355952 0 
0.775038 -0.357323 0 
0.827419 -0.358581 0 
0.879943 -0.359894 0 
0.93426 -0.356593 0 
-0.952721 -0.303845 0 
-0.898929 -0.308871 0 
-0.847481 -0.306888 0 
-0.795641 -0.305781 0 
-0.743684 -0.304815 0 
-0.691387 -0.303722 0 
-0.639219 -0.302427 0 
-0.586897 -0.300977 0 
-0.534146 -0.301574 0 
-0.48291 -0.299695 0 
-0.432968 -0.295416 0 
-0.381507 -0.30136 0 
-0.336232 -0.29839 0 
-0.288184 -0.288184 0 
-0.242975 -0.290577 0 
-0.198059 -0.315051 0 
-0.148383 -0.285894 0 
-0.0994753 -0.313232 0 
-0.0507184 -0.283118 0 
-0.000202902 -0.313447 0 
0.0500077 -0.282824 0 
0.0988289 -0.312817 0 
0.148102 -0.28482 0 
0.195742 -0.317413 0 
0.240766 -0.295824 0 
0.285014 -0.285014 0 
0.332889 -0.295348 0 
0.379789 -0.301746 0 
0.432268 -0.296569 0 
0.483005 -0.299839 0 
0.534348 -0.301273 0 
0.587085 -0.30086 0 
0.639359 -0.302407 0 
0.691518 -0.303753 0 
0.743741 -0.304862 0 
0.795701 -0.305831 0 
0.847482 -0.306946 0 
0.898924 -0.308979 0 
0.952687 -0.303953 0 
-0.96803 -0.250833 0 
-0.916037 -0.258282 0 
-0.866979 -0.254732 0 
-0.816639 -0.25358 0 
-0.765535 -0.252907 0 
-0.71362 -0.252254 0 
-0.661417 -0.251503 0 
-0.608767 -0.250543 0 
-0.555692 -0.250874 0 
-0.503 -0.250032 0 
-0.450633 -0.247004 0 
-0.395692 -0.25021 0 
-0.342529 -0.249846 0 
-0.290577 -0.242975 0 
-0.239946 -0.239946 0 
-0.194478 -0.26004 0 
-0.151293 -0.23238 0 
-0.101048 -0.260904 0 
-0.0503938 -0.232537 0 
-0.000203281 -0.262984 0 
0.050638 -0.232316 0 
0.100942 -0.260855 0 
0.152412 -0.232597 0 
0.195768 -0.261421 0 
0.241873 -0.241873 0 
0.295824 -0.240766 0 
0.345582 -0.24763 0 
0.396905 -0.25086 0 
0.450921 -0.247983 0 
[...]
POINT_DATA 1245 
VECTORS vectors float
0.629425 -0.201556 0.750466 
0.639147 -0.170335 0.749985 
0.64514 -0.136672 0.751741 
0.648265 -0.106334 0.753953 
0.65016 -0.0720022 0.756378 
0.651449 -0.0419052 0.757534 
0.652616 -0.0126475 0.757583 
0.646398 0.0177811 0.762793 
0.640634 0.0506854 0.766172 
0.634598 0.0900285 0.767581 
0.628864 0.125918 0.767252 
0.621608 0.166318 0.765468 
0.61234 0.203328 0.764001 
0.601473 -0.266524 0.753124 
0.616752 -0.233538 0.751716 
0.51418 -0.177159 0.839186 
0.52588 -0.151304 0.836993 
0.545777 -0.127036 0.828244 
0.516874 -0.093472 0.850943 
0.545116 -0.0690685 0.835511 
0.513014 -0.0372683 0.857571 
0.543591 -0.00992306 0.839292 
0.508294 0.01996 0.860952 
0.535613 0.0530382 0.842796 
0.504213 0.0819476 0.859683 
0.530857 0.119643 0.838974 
0.510544 0.148696 0.846897 
0.499682 0.178713 0.847573 
0.601479 0.23974 0.762068 
0.588933 0.275585 0.759744 
0.5638 -0.334455 0.755162 
0.583762 -0.300315 0.754343 
0.490926 -0.232945 0.839481 
0.503158 -0.204467 0.839658 
0.414992 -0.150821 0.897237 
0.427561 -0.12805 0.894871 
0.449183 -0.106833 0.88703 
0.405658 -0.0752398 0.910923 
0.442516 -0.0565992 0.894973 
0.39835 -0.0292771 0.916766 
0.439473 -0.00740873 0.898225 
0.394646 0.0168076 0.918679 
0.434746 0.0442458 0.899465 
0.395957 0.066694 0.915844 
0.436629 0.100638 0.893995 
0.414925 0.125803 0.901116 
0.403341 0.151923 0.90235 
0.490524 0.209212 0.845941 
0.480884 0.239886 0.84333 
0.574397 0.310597 0.757362 
0.557473 0.344642 0.755279 
0.541923 -0.368244 0.755457 
0.460278 -0.291439 0.838575 
0.476737 -0.262167 0.839041 
0.395556 -0.199915 0.89642 
0.405544 -0.174873 0.897192 
0.331834 -0.127966 0.934618 
0.343499 -0.108575 0.932856 
0.362665 -0.090247 0.927539 
0.317649 -0.0619427 0.946183 
0.349476 -0.0462079 0.935805 
0.307544 -0.0231914 0.951251 
0.344731 -0.00536539 0.938686 
0.304744 0.0144384 0.952325 
0.343392 0.037152 0.938457 
0.310119 0.0557419 0.949062 
0.352718 0.0856789 0.931799 
0.333671 0.106904 0.936608 
0.322851 0.128816 0.937643 
0.395502 0.178409 0.900971 
0.387792 0.205214 0.898613 
0.469412 0.270098 0.840654 
0.455478 0.29949 0.838359 
0.538058 0.377537 0.753631 
0.494089 -0.431452 0.754802 
0.518505 -0.400946 0.755245 
0.441407 -0.319632 0.838448 
0.369945 -0.250282 0.894707 
0.384004 -0.225238 0.895438 
0.316383 -0.170701 0.933147 
0.324153 -0.148847 0.934221 
0.264004 -0.108551 0.958394 
0.273749 -0.091817 0.957409 
0.289401 -0.0763034 0.954162 
0.248237 -0.0514861 0.96733 
0.273044 -0.038048 0.961249 
0.237497 -0.0187873 0.971207 
0.26741 -0.00381522 0.963575 
0.235385 0.0125919 0.971821 
0.268494 0.0315625 0.962764 
0.24267 0.0471385 0.968963 
0.281727 0.0728703 0.956724 
0.266226 0.0906972 0.959634 
0.257341 0.109353 0.960113 
0.316633 0.151643 0.936348 
0.310581 0.174894 0.934319 
0.378466 0.231409 0.896222 
0.366389 0.256733 0.894342 
0.438587 0.327269 0.836981 
0.516318 0.409184 0.752319 
0.492866 0.438976 0.751254 
0.466611 -0.460679 0.755016 
0.408001 -0.377861 0.831117 
0.420742 -0.345877 0.838657 
0.353107 -0.273625 0.894676 
0.295394 -0.215059 0.930856 
0.306858 -0.192788 0.932025 
0.25215 -0.145802 0.956641 
0.258228 -0.126641 0.957748 
0.209074 -0.0920189 0.973561 
0.216889 -0.0777499 0.973095 
0.22902 -0.0642838 0.971297 
0.193936 -0.0430821 0.980068 
0.212658 -0.0315007 0.976619 
0.183767 -0.0153424 0.98285 
0.20704 -0.00268552 0.978329 
0.18223 0.010955 0.983195 
0.209271 0.0269257 0.977487 
0.189847 0.03997 0.981 
0.223296 0.0619646 0.972779 
0.211419 0.0769785 0.974359 
0.204193 0.0927472 0.974527 
0.252569 0.12883 0.958964 
0.247952 0.149119 0.957227 
0.302813 0.197687 0.932322 
0.292962 0.220277 0.930404 
0.351122 0.279983 0.893489 
0.419242 0.353061 0.836411 
0.407436 0.38486 0.828178 
0.466001 0.468041 0.750854 
0.43667 -0.487353 0.756178 
0.382661 -0.402339 0.831681 
0.332394 -0.327778 0.884351 
0.334912 -0.295805 0.894614 
0.280907 -0.2368 0.930063 
0.236944 -0.186156 0.953522 
0.244959 -0.165231 0.95535 
0.200739 -0.12483 0.971659 
0.205208 -0.107935 0.972748 
0.165528 -0.0784172 0.983083 
0.171333 -0.0658299 0.983011 
0.180518 -0.0543217 0.98207 
0.151413 -0.0361121 0.987811 
0.165495 -0.0262192 0.985862 
0.142495 -0.0126066 0.989715 
0.160584 -0.00189989 0.98702 
0.141387 0.00957462 0.989908 
0.163084 0.0230044 0.986344 
0.148468 0.0340162 0.988332 
0.176316 0.0526639 0.982924 
0.167324 0.0654546 0.983727 
0.16208 0.079045 0.983607 
0.201208 0.109784 0.973377 
0.197708 0.127522 0.971931 
0.242063 0.16922 0.95539 
0.235341 0.190545 0.953051 
0.279832 0.242142 0.929011 
0.334148 0.302044 0.892813 
0.3324 0.33428 0.881911 
0.382967 0.409442 0.828066 
0.436781 0.49504 0.751104 
0.405382 -0.510851 0.758088 
0.349763 -0.414286 0.840258 
0.29942 -0.329729 0.895336 
0.267577 -0.263829 0.926713 
0.228399 -0.208725 0.95093 
0.190757 -0.161819 0.968208 
0.19532 -0.142212 0.970374 
0.159625 -0.107146 0.981346 
0.16291 -0.0922681 0.982317 
0.130759 -0.066961 0.98915 
0.134942 -0.0560312 0.989268 
0.141929 -0.0460103 0.988807 
0.118264 -0.0306083 0.99251 
0.129016 -0.0220158 0.991398 
0.110765 -0.0104975 0.993791 
0.124914 -0.0013326 0.992167 
0.10997 0.00834965 0.9939 
0.127294 0.0197604 0.991668 
0.116133 0.0291177 0.992807 
0.138918 0.0448989 0.989286 
0.132152 0.0557904 0.989658 
0.128298 0.0675723 0.989431 
0.160025 0.0937597 0.98265 
0.157526 0.109287 0.981449 
0.193417 0.145423 0.970279 
0.189859 0.165434 0.967773 
0.227969 0.213397 0.949996 
0.267746 0.269281 0.925094 
0.300416 0.336096 0.892631 
0.351119 0.421635 0.836026 
0.406701 0.519004 0.751817 
0.371544 -0.533296 0.759967 
0.322451 -0.434031 0.841215 
0.276259 -0.347062 0.896231 
0.239481 -0.276301 0.930756 
0.211458 -0.224747 0.951196 
0.180027 -0.177405 0.967532 
0.151015 -0.137964 0.978857 
0.155354 -0.122172 0.980275 
0.126347 -0.092146 0.987697 
0.12919 -0.0793385 0.988441 
0.103356 -0.058202 0.99294 
0.106253 -0.0482442 0.993168 
0.1115 -0.039289 0.992988 
0.0924875 -0.0261465 0.99537 
0.10072 -0.0186114 0.994741 
0.0863487 -0.00880121 0.996226 
0.0974509 -0.000927438 0.99524 
0.0857684 0.00732372 0.996288 
0.0995141 0.0170732 0.99489 
0.0909393 0.0251062 0.99554 
0.10935 0.038581 0.993254 
0.104261 0.048139 0.993384 
0.101727 0.0586732 0.993081 
0.12723 0.0805394 0.988598 
0.124894 0.0938166 0.987725 
0.154057 0.124815 0.980147 
0.150696 0.140958 0.978479 
0.180148 0.181272 0.966792 
0.212142 0.229473 0.949915 
0.240897 0.281839 0.928728 
0.278466 0.353576 0.892995 
0.325311 0.441579 0.83617 
0.374828 0.541638 0.752418 
0.33606 -0.554389 0.761391 
0.292868 -0.452053 0.842542 
0.251725 -0.363145 0.897084 
0.216605 -0.289999 0.932192 
0.187882 -0.232634 0.954244 
0.163634 -0.187561 0.968527 
0.139714 -0.148633 0.978973 
0.118433 -0.116625 0.986089 
0.121338 -0.103998 0.987148 
0.0994727 -0.0810695 0.991732 
0.102186 -0.0693623 0.992344 
0.0818621 -0.0505605 0.99536 
0.0835619 -0.0416191 0.995633 
0.0875725 -0.03385 0.995583 
0.0723488 -0.0223491 0.997129 
0.0788252 -0.0158683 0.996762 
0.067322 -0.00745753 0.997703 
0.0761821 -0.000652977 0.997094 
0.066908 0.00643417 0.997738 
0.0779623 0.0147588 0.996847 
0.0712086 0.0216938 0.997226 
0.0860905 0.0333021 0.995731 
0.0823143 0.0416728 0.995735 
0.0807333 0.051063 0.995427 
0.100892 0.0703752 0.992405 
0.0986303 0.0825396 0.991695 
0.12076 0.106041 0.987002 
0.118344 0.119048 0.98581 
0.1402 0.151698 0.978433 
0.164675 0.191329 0.967613 
0.189645 0.2372 0.95277 
0.219302 0.295396 0.929864 
0.25546 0.369536 0.893411 
0.297707 0.459381 0.836863 
0.342057 0.562215 0.752935 
0.29964 -0.574012 0.762053 
0.261809 -0.46801 0.844051 
0.225194 -0.376678 0.898555 
0.193122 -0.300869 0.933907 
0.165894 -0.24025 0.95643 
0.143094 -0.191702 0.970966 
0.123299 -0.152505 0.980581 
0.105065 -0.119463 0.987264 
0.0935918 -0.0923355 0.99132 
0.0792655 -0.0711347 0.994312 
0.0808956 -0.0603997 0.994891 
0.0647931 -0.0439092 0.996932 
0.0654885 -0.0359382 0.997206 
0.0687662 -0.0291175 0.997208 
0.0564542 -0.0195663 0.998213 
0.0616802 -0.0137046 0.998002 
0.0525689 -0.00645894 0.998596 
0.0596696 -0.00043402 0.998218 
0.052283 0.00573331 0.998616 
0.0610861 0.0130255 0.998048 
0.0556912 0.0191004 0.998265 
0.0678029 0.0289096 0.99728 
0.0647687 0.0361576 0.997245 
0.0639965 0.0444612 0.996959 
0.080183 0.0613244 0.994892 
0.0785733 0.0720382 0.994302 
0.0934883 0.0939304 0.99118 
0.105707 0.1216 0.986934 
0.124367 0.155314 0.980005 
0.145024 0.195132 0.969996 
0.168779 0.244397 0.954874 
0.197132 0.30583 0.931454 
0.230655 0.382375 0.894756 
0.268926 0.474342 0.838259 
0.308766 0.580374 0.753544 
0.263157 -0.592041 0.761732 
0.230487 -0.482218 0.845187 
0.198209 -0.388043 0.900076 
0.169712 -0.310231 0.93539 
0.145324 -0.247226 0.957998 
0.124867 -0.196811 0.972458 
0.107426 -0.156662 0.981793 
0.0927414 -0.124089 0.987928 
0.0818578 -0.0977512 0.991839 
0.0719548 -0.0781546 0.994341 
0.0620099 -0.0611992 0.996197 
0.0637272 -0.0527861 0.99657 
0.0515798 -0.0403931 0.997852 
0.0510161 -0.032161 0.99818 
0.0536482 -0.0256903 0.998229 
0.0441104 -0.0173144 0.998877 
0.0482531 -0.0120227 0.998763 
0.0410081 -0.00564436 0.999143 
0.0467509 -0.000363798 0.998907 
0.040838 0.00510291 0.999153 
0.0479194 0.0114772 0.998785 
0.0435546 0.0169755 0.998907 
0.0532165 0.0256843 0.998253 
0.0508097 0.0324349 0.998182 
0.050782 0.0405874 0.997885 
0.0629927 0.0532465 0.996593 
0.0612963 0.0614451 0.996227 
0.0719202 0.0789664 0.99428 
0.0823072 0.0992522 0.991652 
0.093734 0.125906 0.987604 
0.109272 0.158985 0.981215 
0.127545 0.199706 0.971519 
0.14923 0.250641 0.956509 
0.17505 0.314159 0.933092 
0.205333 0.392424 0.896572 
0.23988 0.486706 0.839985 
0.27533 0.59592 0.754369 
0.227354 -0.608342 0.760415 
0.199804 -0.495031 0.84559 
0.171492 -0.39847 0.901006 
0.146395 -0.318177 0.93666 
0.125127 -0.253392 0.959237 
0.106964 -0.201338 0.973664 
0.0919192 -0.159926 0.98284 
0.0792454 -0.126799 0.988758 
0.0696043 -0.100499 0.992499 
0.0608158 -0.0795788 0.994972 
0.0532409 -0.0628189 0.996604 
0.0489471 -0.0483755 0.997629 
0.041479 -0.0364611 0.998474 
0.0395223 -0.0286618 0.998808 
0.0418243 -0.0229559 0.998861 
0.0343198 -0.0153721 0.999293 
0.0377209 -0.0106414 0.999232 
0.0318316 -0.00498659 0.999481 
0.0365469 -0.000255803 0.999332 
0.0316999 0.00444779 0.999488 
0.037493 0.01014 0.999245 
0.0339512 0.0148055 0.999314 
0.0417072 0.0226383 0.998873 
0.0397295 0.0285686 0.998802 
0.0403187 0.0357837 0.998546 
0.048147 0.0481266 0.99768 
0.0532802 0.063202 0.996578 
0.061363 0.0805943 0.994856 
0.0705764 0.101677 0.992311 
0.0807419 0.12829 0.988444 
0.0942248 0.16164 0.982341 
0.110352 0.203353 0.972867 
0.129699 0.255538 0.95806 
0.152717 0.320524 0.934849 
0.17987 0.400587 0.89843 
0.210913 0.496866 0.841807 
0.241888 0.608925 0.755447 
0.192775 -0.622673 0.758364 
0.170533 -0.50733 0.84471 
0.145691 -0.408762 0.900937 
0.124303 -0.326564 0.936966 
0.105893 -0.259601 0.959893 
0.0903408 -0.205559 0.974466 
0.0772695 -0.162657 0.983652 
0.0664032 -0.128594 0.989472 
0.0580158 -0.101622 0.99313 
0.0505298 -0.0805509 0.995469 
0.044143 -0.0638401 0.996983 
0.0406815 -0.0508715 0.997876 
0.0368155 -0.0409791 0.998482 
0.0321005 -0.031774 0.998979 
0.0302603 -0.0251473 0.999226 
0.0323062 -0.0202691 0.999272 
0.0264175 -0.0137672 0.999556 
0.0292539 -0.00945188 0.999527 
0.0244666 -0.00452626 0.99969 
0.0283068 -0.000207994 0.999599 
0.0243442 0.00420032 0.999695 
0.0290081 0.00908543 0.999538 
0.0261043 0.0134931 0.999568 
0.0323522 0.0200081 0.999276 
0.030831 0.0250042 0.999212 
0.0313729 0.0311866 0.999021 
0.0359075 0.0402475 0.998544 
0.0407521 0.0508706 0.997873 
0.0446937 0.0642122 0.996935 
0.0513621 0.0812275 0.995371 
0.0590719 0.102405 0.992987 
0.0682635 0.129454 0.989233 
0.0798693 0.163562 0.983295 
0.0940394 0.206414 0.973935 
0.110994 0.260219 0.959149 
0.131166 0.326797 0.935948 
0.154881 0.408354 0.899588 
0.18263 0.505928 0.84302 
0.208506 0.61943 0.756857 
0.159488 -0.634588 0.756215 
0.142888 -0.520725 0.841682 
0.121526 -0.422801 0.898037 
0.103648 -0.339296 0.934952 
0.0882617 -0.270133 0.958769 
0.0751813 -0.213893 0.97396 
0.0641495 -0.168893 0.983545 
0.0549535 -0.132988 0.989593 
0.0475539 -0.104671 0.993369 
0.0413837 -0.0823714 0.995742 
0.0358041 -0.0645578 0.997271 
0.0322459 -0.0503263 0.998212 
0.0288391 -0.0390432 0.998821 
0.0253404 -0.0299306 0.999231 
0.0230459 -0.0228342 0.999474 
0.0241732 -0.0180207 0.999545 
0.0198146 -0.0128875 0.999721 
0.0222597 -0.00872433 0.999714 
0.0185286 -0.00418292 0.99982 
0.0217602 -0.000228462 0.999763 
0.0184836 0.00380208 0.999822 
0.0221864 0.00835875 0.999719 
0.0197564 0.0127973 0.999723 
0.0242872 0.0179958 0.999543 
0.0232619 0.0230499 0.999464 
0.0252651 0.0306821 0.99921 
0.0288276 0.0396479 0.998798 
0.032715 0.0508536 0.99817 
0.0365528 0.0649816 0.997217 
0.0422178 0.0827023 0.99568 
0.048864 0.104935 0.993278 
0.0567884 0.133083 0.989477 
0.0668969 0.168771 0.983382 
0.0788981 0.213287 0.973799 
0.0933891 0.268904 0.958629 
0.110497 0.337059 0.934977 
0.130667 0.419347 0.898373 
0.154871 0.515898 0.842534 
0.174773 0.627345 0.758876 
0.124469 -0.643235 0.755484 
0.117169 -0.542777 0.831663 
0.0990561 -0.446373 0.889347 
0.0842492 -0.359889 0.929184 
0.0718382 -0.28696 0.955245 
0.0610899 -0.226819 0.972019 
0.0520741 -0.17867 0.98253 
0.0444275 -0.140342 0.989106 
0.038344 -0.110219 0.993167 
0.0332283 -0.0865205 0.995696 
0.0287783 -0.0679177 0.997276 
0.0255976 -0.0530095 0.998266 
0.022944 -0.0413268 0.998882 
0.0203486 -0.0319421 0.999283 
0.0181369 -0.0239449 0.999549 
0.017414 -0.0172694 0.999699 
0.0147345 -0.0117304 0.999823 
0.0167213 -0.00790907 0.999829 
0.0136184 -0.00355254 0.999901 
0.0164055 -8.88299e-05 0.999865 
0.0136126 0.00338652 0.999902 
0.0166567 0.00776911 0.999831 
0.0148113 0.0115866 0.999823 
0.0176135 0.0173463 0.999694 
0.0183331 0.024043 0.999543 
0.020244 0.0321632 0.999278 
0.023053 0.0416352 0.998867 
0.0260986 0.053221 0.998242 
0.0294827 0.067937 0.997254 
0.0340429 0.0863688 0.995681 
0.0396161 0.109845 0.993159 
0.0463085 0.139639 0.989119 
0.0545964 0.177342 0.982634 
0.0646472 0.224748 0.97227 
0.0765794 0.283584 0.955885 
0.090658 0.355191 0.930387 
0.107412 0.439648 0.891724 
0.128164 0.534535 0.835372 
0.137318 0.632089 0.762632 
0.0937654 -0.648737 0.755214 
0.0839145 -0.516219 0.852336 
0.0680561 -0.404812 0.911864 
0.0567211 -0.31664 0.946848 
0.0476875 -0.247142 0.967805 
0.0403404 -0.192859 0.980397 
0.0342636 -0.15041 0.98803 
0.0293309 -0.117371 0.992655 
0.0252897 -0.0916775 0.995468 
0.0218681 -0.0716997 0.997187 
0.0192619 -0.0558978 0.998251 
0.0171744 -0.0436546 0.998899 
0.015343 -0.0339818 0.999305 
0.0137917 -0.0261583 0.999563 
0.0129381 -0.0196204 0.999724 
0.0118027 -0.0146361 0.999823 
0.0102197 -0.0101267 0.999896 
0.0119127 -0.00702849 0.999904 
0.00934545 -0.00379257 0.999949 
0.011602 -0.000214312 0.999933 
0.00934803 0.00348304 0.99995 
0.0119992 0.00681086 0.999905 
0.0102064 0.00993073 0.999899 
0.0119315 0.0145225 0.999823 
0.0130784 0.0194789 0.999725 
0.0137951 0.0258575 0.99957 
0.0152593 0.033757 0.999314 
0.0173358 0.0433949 0.998908 
0.0197008 0.0556079 0.998258 
0.0223852 0.0712084 0.99721 
0.026069 0.0910286 0.995507 
0.0303911 0.11631 0.992748 
0.0357721 0.1488 0.98822 
0.0424323 0.190273 0.980814 
0.0505016 0.243254 0.968647 
0.0605377 0.310858 0.948527 
0.0732652 0.396763 0.914992 
0.0912067 0.505376 0.858066 
0.102943 0.635 0.765622 
0.0599197 -0.653174 0.754833 
0.0591116 -0.547031 0.835023 
0.0489089 -0.443811 0.894785 
0.0404725 -0.350264 0.935776 
0.0338222 -0.273308 0.961332 
0.0285055 -0.212591 0.976725 
0.0240971 -0.165223 0.985962 
0.0205044 -0.128606 0.991484 
0.0176309 -0.100289 0.994802 
0.0152058 -0.0783911 0.996807 
0.0132679 -0.061259 0.998034 
0.0117843 -0.0478963 0.998783 
0.0105149 -0.0374178 0.999244 
0.00937696 -0.0289901 0.999536 
0.0087118 -0.0220831 0.999718 
0.00794795 -0.0165729 0.999831 
0.00701761 -0.011841 0.999905 
0.00718062 -0.00714955 0.999949 
0.00581152 -0.00341498 0.999977 
0.00794276 -5.2925e-05 0.999968 
0.00583427 0.00321376 0.999978 
0.00724274 0.00692881 0.99995 
0.00717041 0.011682 0.999906 
0.00801765 0.0163344 0.999834 
0.00877276 0.0218899 0.999722 
0.00940314 0.0287274 0.999543 
0.0106006 0.037216 0.999251 
0.0120161 0.0476954 0.99879 
0.0136635 0.0608739 0.998052 
0.0156323 0.0777449 0.996851 
0.018171 0.0993435 0.994887 
0.0212954 0.127071 0.991665 
0.0250475 0.162797 0.986342 
0.0297705 0.208887 0.977487 
0.0355279 0.267842 0.962808 
0.0426586 0.342408 0.938583 
0.0519465 0.43345 0.899679 
0.0632437 0.533785 0.843252 
0.0637799 0.637663 0.767671 
0.030957 -0.656542 0.753654 
0.0289299 -0.516918 0.855546 
0.0232064 -0.401257 0.915671 
0.0188094 -0.309436 0.950734 
0.0156672 -0.238667 0.970975 
0.0130917 -0.18435 0.982773 
0.0110687 -0.142734 0.989699 
0.00943375 -0.110769 0.993801 
0.00806017 -0.0861948 0.996246 
0.00698065 -0.0671195 0.997721 
0.00616752 -0.0523331 0.998611 
0.00543829 -0.0407639 0.999154 
0.00485931 -0.0316238 0.999488 
0.00450959 -0.0242957 0.999695 
0.00408708 -0.0183655 0.999823 
0.0035908 -0.0135515 0.999902 
0.00375865 -0.0092455 0.99995 
0.00342363 -0.0058319 0.999977 
0.00238046 -0.00220328 0.999995 
0.00441519 -0.000225938 0.99999 
0.00240806 0.00208497 0.999995 
0.00352163 0.00553431 0.999978 
0.0037696 0.00902855 0.999952 
0.00366447 0.0132556 0.999905 
0.00417622 0.0181657 0.999826 
0.00450648 0.0239907 0.999702 
0.00491498 0.0313444 0.999497 
0.00553368 0.0405109 0.999164 
0.00635024 0.0518873 0.998633 
0.00714133 0.0665351 0.997759 
0.00826926 0.0853135 0.99632 
0.00957634 0.109389 0.993953 
0.0111855 0.140664 0.989994 
0.0131986 0.181175 0.983362 
0.0156386 0.233857 0.972145 
0.0187023 0.302577 0.952942 
0.022847 0.391378 0.919946 
0.0285282 0.504061 0.863197 
0.0295688 0.640614 0.767294 
0.00341122 -0.659587 0.751621 
0.00260926 -0.549793 0.835297 
0.00174325 -0.444502 0.895776 
0.00122907 -0.348426 0.937335 
0.000833696 -0.269921 0.962882 
0.000581221 -0.208658 0.977989 
0.000434476 -0.161567 0.986862 
0.000287256 -0.125416 0.992104 
0.000223032 -0.0976775 0.995218 
0.000179041 -0.0762189 0.997091 
0.000118118 -0.0595762 0.998224 
0.000112404 -0.0466159 0.998913 
0.000150219 -0.0363872 0.999338 
0.000101346 -0.0281412 0.999604 
0.000120443 -0.0216217 0.999766 
9.16723e-05 -0.0162958 0.999867 
7.36638e-05 -0.0114986 0.999934 
0.000113198 -0.00791257 0.999969 
1.23625e-05 -0.00448264 0.99999 
-8.43534e-05 -0.000287069 1 
3.16678e-05 0.00413984 0.999991 
0.000190162 0.00758127 0.999971 
0.000122765 0.0112817 0.999936 
0.000188232 0.0160333 0.999871 
0.000138706 0.0213516 0.999772 
0.000137673 0.0279367 0.99961 
0.000212458 0.0360828 0.999349 
0.000125413 0.0463028 0.998927 
0.00020185 0.0591463 0.998249 
0.000123992 0.0755423 0.997143 
1.32958e-05 0.0967012 0.995313 
-5.67488e-05 0.123902 0.992294 
-0.000280757 0.159188 0.987248 
-0.000535149 0.205109 0.978739 
-0.000853618 0.264601 0.964358 
-0.00133159 0.340731 0.94016 
-0.00195628 0.434041 0.900891 
-0.00255631 0.536502 0.843895 
-0.00335294 0.64449 0.764605 
-0.0245529 -0.654933 0.755288 
-0.0247654 -0.515729 0.856393 
-0.0202385 -0.400193 0.916207 
-0.0169159 -0.308754 0.950992 
-0.01429 -0.238103 0.971135 
-0.0121596 -0.183975 0.982856 
-0.0103781 -0.142458 0.989746 
-0.00890343 -0.110585 0.993827 
-0.00768798 -0.0860306 0.996263 
-0.00672251 -0.0670058 0.99773 
-0.00588318 -0.0522336 0.998618 
-0.00522093 -0.0407385 0.999156 
-0.00461455 -0.0315601 0.999491 
-0.00420258 -0.0242154 0.999698 
-0.00394684 -0.0183541 0.999824 
-0.00341801 -0.0135468 0.999902 
-0.00357779 -0.0092404 0.999951 
-0.00330309 -0.00586806 0.999977 
-0.00192844 -0.00221151 0.999996 
-0.0043537 -0.000264563 0.99999 
-0.00189689 0.00206617 0.999996 
-0.00319472 0.005461 0.99998 
-0.0034969 0.00900863 0.999953 
-0.00329965 0.0132038 0.999907 
-0.00388137 0.0181443 0.999828 
-0.00417661 0.0240196 0.999703 
-0.00461782 0.0313415 0.999498 
-0.00522014 0.0405042 0.999166 
-0.00590651 0.0519495 0.998632 
-0.00689692 0.0666398 0.997753 
-0.00801845 0.0854909 0.996307 