# vtk DataFile Version 3.0 
Exported using Morpho https://github.com/Morpho-lang/morpho 
ASCII 
DATASET UNSTRUCTURED_GRID 

POINTS 1245 float 
-0.303845 -0.952721 0 
-0.250833 -0.96803 0 
-0.195084 -0.980787 0 
-0.146308 -0.989239 0 
-0.0940719 -0.995565 0 
-0.0475118 -0.998871 0 
-0.000246339 -1 0 
0.0470875 -0.998891 0 
0.0937543 -0.995595 0 
0.146139 -0.989264 0 
0.195062 -0.980791 0 
0.250843 -0.968028 0 
0.303953 -0.952687 0 
-0.409153 -0.912466 0 
-0.356519 -0.934288 0 
-0.308871 -0.898929 0 
-0.258282 -0.916037 0 
-0.207345 -0.934859 0 
-0.154868 -0.930629 0 
-0.104343 -0.948989 0 
-0.0520099 -0.939193 0 
-8.5762e-05 -0.954582 0 
0.0518744 -0.939288 0 
0.104354 -0.949042 0 
0.154696 -0.9306 0 
0.207366 -0.934975 0 
0.258274 -0.916081 0 
0.308979 -0.898924 0 
0.356593 -0.93426 0 
0.409236 -0.912429 0 
-0.513788 -0.857917 0 
-0.461695 -0.887039 0 
-0.411157 -0.857936 0 
-0.359855 -0.879963 0 
-0.306888 -0.847481 0 
-0.254732 -0.866979 0 
-0.201991 -0.889059 0 
-0.149956 -0.874108 0 
-0.100608 -0.900088 0 
-0.0497575 -0.880388 0 
2.4595e-05 -0.904789 0 
0.0496869 -0.8804 0 
0.100612 -0.900177 0 
0.149872 -0.874171 0 
0.202071 -0.889165 0 
0.254695 -0.867031 0 
0.306946 -0.847482 0 
0.359894 -0.879943 0 
0.411236 -0.857929 0 
0.461748 -0.887011 0 
0.513842 -0.857885 0 
-0.564741 -0.825268 0 
-0.512908 -0.802945 0 
-0.462372 -0.832348 0 
-0.410124 -0.804631 0 
-0.358606 -0.827415 0 
-0.305781 -0.795641 0 
-0.25358 -0.816639 0 
-0.200756 -0.839997 0 
-0.149043 -0.818944 0 
-0.0987265 -0.846667 0 
-0.0490473 -0.822548 0 
5.00659e-05 -0.849932 0 
0.0490834 -0.822542 0 
0.0987838 -0.846676 0 
0.148997 -0.818924 0 
0.200826 -0.840131 0 
0.253508 -0.816728 0 
0.305831 -0.795701 0 
0.358581 -0.827419 0 
0.410181 -0.804654 0 
0.462414 -0.83234 0 
0.512965 -0.802929 0 
0.564777 -0.825243 0 
-0.660798 -0.750564 0 
-0.614015 -0.789295 0 
-0.561786 -0.769772 0 
-0.510673 -0.747856 0 
-0.460836 -0.778365 0 
-0.408794 -0.751554 0 
-0.357337 -0.774971 0 
-0.304815 -0.743684 0 
-0.252907 -0.765535 0 
-0.200631 -0.789263 0 
-0.149244 -0.764328 0 
-0.0986912 -0.791935 0 
-0.0492815 -0.765764 0 
4.16586e-05 -0.79382 0 
0.0492411 -0.765708 0 
0.0987508 -0.791951 0 
0.149196 -0.764326 0 
0.200666 -0.789356 0 
0.252841 -0.765599 0 
0.304862 -0.743741 0 
0.357323 -0.775038 0 
0.408863 -0.751626 0 
0.460863 -0.778382 0 
0.510716 -0.747859 0 
0.561819 -0.769761 0 
0.614041 -0.789274 0 
0.660811 -0.750552 0 
-0.707107 -0.707107 0 
-0.654819 -0.699058 0 
-0.60813 -0.73348 0 
-0.558104 -0.71337 0 
-0.509495 -0.692659 0 
-0.45935 -0.724356 0 
-0.407328 -0.698865 0 
-0.355968 -0.722823 0 
-0.303722 -0.691387 0 
-0.252254 -0.71362 0 
-0.20067 -0.737336 0 
-0.149608 -0.710068 0 
-0.0991558 -0.737129 0 
-0.0495872 -0.709825 0 
-2.23646e-05 -0.737917 0 
0.0494408 -0.709766 0 
0.0991291 -0.737116 0 
0.149502 -0.710042 0 
0.200696 -0.73743 0 
0.252186 -0.713735 0 
0.303753 -0.691518 0 
0.355952 -0.722893 0 
0.407371 -0.698945 0 
0.459374 -0.724407 0 
0.509524 -0.692668 0 
0.558131 -0.713361 0 
0.608151 -0.733462 0 
0.654824 -0.699048 0 
0.707107 -0.707107 0 
-0.750564 -0.660798 0 
-0.699058 -0.654819 0 
-0.647692 -0.647692 0 
-0.603437 -0.675718 0 
-0.55905 -0.655305 0 
-0.508501 -0.639581 0 
-0.457509 -0.671321 0 
-0.405555 -0.646545 0 
-0.354417 -0.670703 0 
-0.302427 -0.639219 0 
-0.251503 -0.661417 0 
-0.20061 -0.684911 0 
-0.149717 -0.655943 0 
-0.0995004 -0.682466 0 
-0.0498216 -0.654561 0 
-5.02113e-05 -0.682664 0 
0.0496787 -0.654499 0 
0.0994374 -0.682501 0 
0.149603 -0.655909 0 
0.200573 -0.684972 0 
0.251388 -0.661524 0 
0.302407 -0.639359 0 
0.354397 -0.670836 0 
0.405575 -0.646641 0 
0.457525 -0.67138 0 
0.508497 -0.639623 0 
0.559063 -0.655324 0 
0.603436 -0.675715 0 
0.64769 -0.64769 0 
0.699048 -0.654824 0 
0.750552 -0.660811 0 
-0.789295 -0.614015 0 
-0.73348 -0.60813 0 
-0.675718 -0.603437 0 
-0.613088 -0.613088 0 
-0.55962 -0.604068 0 
-0.506189 -0.588854 0 
-0.455505 -0.618874 0 
-0.403019 -0.594688 0 
-0.352514 -0.618952 0 
-0.300977 -0.586897 0 
-0.250543 -0.608767 0 
-0.200257 -0.632053 0 
-0.150049 -0.601979 0 
-0.0998281 -0.628222 0 
-0.0500377 -0.599914 0 
-3.12334e-05 -0.628076 0 
0.0498927 -0.599835 0 
0.0997818 -0.628253 0 
0.149924 -0.601867 0 
0.200214 -0.632118 0 
0.250423 -0.608915 0 
0.30086 -0.587085 0 
0.352457 -0.619096 0 
0.402948 -0.594743 0 
0.455483 -0.618952 0 
0.506147 -0.588901 0 
0.55964 -0.604067 0 
0.613069 -0.613069 0 
0.675715 -0.603436 0 
0.733462 -0.608151 0 
0.789274 -0.614041 0 
-0.825268 -0.564741 0 
-0.769772 -0.561786 0 
-0.71337 -0.558104 0 
-0.655305 -0.55905 0 
-0.604068 -0.55962 0 
-0.551031 -0.551031 0 
-0.497922 -0.537596 0 
-0.451508 -0.567021 0 
-0.399773 -0.542431 0 
-0.350494 -0.567003 0 
-0.301574 -0.534146 0 
-0.250874 -0.555692 0 
-0.200542 -0.579013 0 
-0.150324 -0.548268 0 
-0.100169 -0.57443 0 
-0.0500152 -0.545912 0 
-3.29278e-05 -0.574268 0 
0.0499208 -0.545788 0 
0.100058 -0.574485 0 
0.150038 -0.548073 0 
0.200377 -0.579041 0 
0.250556 -0.55585 0 
0.301273 -0.534348 0 
0.350318 -0.567174 0 
0.399615 -0.542384 0 
0.451404 -0.5671 0 
0.497945 -0.537702 0 
0.551073 -0.551073 0 
0.604067 -0.55964 0 
0.655324 -0.559063 0 
0.713361 -0.558131 0 
0.769761 -0.561819 0 
0.825243 -0.564777 0 
-0.857917 -0.513788 0 
-0.802945 -0.512908 0 
-0.747856 -0.510673 0 
-0.692659 -0.509495 0 
-0.639581 -0.508501 0 
-0.588854 -0.506189 0 
-0.537596 -0.497922 0 
-0.486157 -0.486157 0 
-0.444928 -0.512952 0 
-0.401787 -0.486784 0 
-0.351685 -0.513639 0 
-0.299695 -0.48291 0 
-0.250032 -0.503 0 
-0.200501 -0.526165 0 
-0.149489 -0.495195 0 
-0.0999281 -0.521367 0 
-0.0499712 -0.492294 0 
4.64723e-05 -0.520999 0 
0.050147 -0.492108 0 
0.099934 -0.52133 0 
0.14957 -0.494692 0 
0.200133 -0.526255 0 
0.249839 -0.503309 0 
0.299839 -0.483005 0 
0.351514 -0.513798 0 
0.401881 -0.486608 0 
0.444935 -0.513054 0 
0.486228 -0.486228 0 
0.537702 -0.497945 0 
0.588901 -0.506147 0 
0.639623 -0.508497 0 
0.692668 -0.509524 0 
0.747859 -0.510716 0 
0.802929 -0.512965 0 
0.857885 -0.513842 0 
-0.887039 -0.461695 0 
-0.832348 -0.462372 0 
-0.778365 -0.460836 0 
-0.724356 -0.45935 0 
-0.671321 -0.457509 0 
-0.618874 -0.455505 0 
-0.567021 -0.451508 0 
-0.512952 -0.444928 0 
-0.450685 -0.450685 0 
-0.397667 -0.437543 0 
-0.348492 -0.462546 0 
-0.295416 -0.432968 0 
-0.247004 -0.450633 0 
-0.198702 -0.473818 0 
-0.150161 -0.441625 0 
-0.100085 -0.468395 0 
-0.0502271 -0.439281 0 
0.000144229 -0.468374 0 
0.0504178 -0.439106 0 
0.100428 -0.468348 0 
0.150697 -0.441105 0 
0.199103 -0.473881 0 
0.247983 -0.450921 0 
0.296569 -0.432268 0 
0.348831 -0.462562 0 
0.397506 -0.4368 0 
0.450637 -0.450637 0 
0.513054 -0.444935 0 
0.5671 -0.451404 0 
0.618952 -0.455483 0 
0.67138 -0.457525 0 
0.724407 -0.459374 0 
0.778382 -0.460863 0 
0.83234 -0.462414 0 
0.887011 -0.461748 0 
-0.912466 -0.409153 0 
-0.857936 -0.411157 0 
-0.804631 -0.410124 0 
-0.751554 -0.408794 0 
-0.698865 -0.407328 0 
-0.646545 -0.405555 0 
-0.594688 -0.403019 0 
-0.542431 -0.399773 0 
-0.486784 -0.401787 0 
-0.437543 -0.397667 0 
-0.387256 -0.387256 0 
-0.344215 -0.411459 0 
-0.30136 -0.381507 0 
-0.25021 -0.395692 0 
-0.200211 -0.419975 0 
-0.150955 -0.389014 0 
-0.100617 -0.416095 0 
-0.0503197 -0.386922 0 
-4.02994e-05 -0.416525 0 
0.05006 -0.386948 0 
0.100784 -0.416323 0 
0.150432 -0.388572 0 
0.200855 -0.420694 0 
0.25086 -0.396905 0 
0.301746 -0.379789 0 
0.344135 -0.410678 0 
0.385823 -0.385823 0 
0.4368 -0.397506 0 
0.486608 -0.401881 0 
0.542384 -0.399615 0 
0.594743 -0.402948 0 
0.646641 -0.405575 0 
0.698945 -0.407371 0 
0.751626 -0.408863 0 
0.804654 -0.410181 0 
0.857929 -0.411236 0 
0.912429 -0.409236 0 
-0.934288 -0.356519 0 
-0.879963 -0.359855 0 
-0.827415 -0.358606 0 
-0.774971 -0.357337 0 
-0.722823 -0.355968 0 
-0.670703 -0.354417 0 
-0.618952 -0.352514 0 
-0.567003 -0.350494 0 
-0.513639 -0.351685 0 
-0.462546 -0.348492 0 
-0.411459 -0.344215 0 
-0.351697 -0.351697 0 
-0.29839 -0.336232 0 
-0.249846 -0.342529 0 
-0.200971 -0.367271 0 
-0.149995 -0.337521 0 
-0.100435 -0.3646 0 
-0.0498692 -0.335025 0 
-6.88684e-05 -0.365025 0 
0.0495433 -0.334795 0 
0.0996798 -0.364834 0 
0.148162 -0.337172 0 
0.199644 -0.368939 0 
0.24763 -0.345582 0 
0.295348 -0.332889 0 
0.34978 -0.34978 0 
0.410678 -0.344135 0 
0.462562 -0.348831 0 
0.513798 -0.351514 0 
0.567174 -0.350318 0 
0.619096 -0.352457 0 
0.670836 -0.354397 0 
0.722893 -0.355952 0 
0.775038 -0.357323 0 
0.827419 -0.358581 0 
0.879943 -0.359894 0 
0.93426 -0.356593 0 
-0.952721 -0.303845 0 
-0.898929 -0.308871 0 
-0.847481 -0.306888 0 
-0.795641 -0.305781 0 
-0.743684 -0.304815 0 
-0.691387 -0.303722 0 
-0.639219 -0.302427 0 
-0.586897 -0.300977 0 
-0.534146 -0.301574 0 
-0.48291 -0.299695 0 
-0.432968 -0.295416 0 
-0.381507 -0.30136 0 
-0.336232 -0.29839 0 
-0.288184 -0.288184 0 
-0.242975 -0.290577 0 
-0.198059 -0.315051 0 
-0.148383 -0.285894 0 
-0.0994753 -0.313232 0 
-0.0507184 -0.283118 0 
-0.000202902 -0.313447 0 
0.0500077 -0.282824 0 
0.0988289 -0.312817 0 
0.148102 -0.28482 0 
0.195742 -0.317413 0 
0.240766 -0.295824 0 
0.285014 -0.285014 0 
0.332889 -0.295348 0 
0.379789 -0.301746 0 
0.432268 -0.296569 0 
0.483005 -0.299839 0 
0.534348 -0.301273 0 
0.587085 -0.30086 0 
0.639359 -0.302407 0 
0.691518 -0.303753 0 
0.743741 -0.304862 0 
0.795701 -0.305831 0 
0.847482 -0.306946 0 
0.898924 -0.308979 0 
0.952687 -0.303953 0 
-0.96803 -0.250833 0 
-0.916037 -0.258282 0 
-0.866979 -0.254732 0 
-0.816639 -0.25358 0 
-0.765535 -0.252907 0 
-0.71362 -0.252254 0 
-0.661417 -0.251503 0 
-0.608767 -0.250543 0 
-0.555692 -0.250874 0 
-0.503 -0.250032 0 
-0.450633 -0.247004 0 
-0.395692 -0.25021 0 
-0.342529 -0.249846 0 
-0.290577 -0.242975 0 
-0.239946 -0.239946 0 
-0.194478 -0.26004 0 
-0.151293 -0.23238 0 
-0.101048 -0.260904 0 
-0.0503938 -0.232537 0 
-0.000203281 -0.262984 0 
0.050638 -0.232316 0 
0.100942 -0.260855 0 
0.152412 -0.232597 0 
0.195768 -0.261421 0 
0.241873 -0.241873 0 
0.295824 -0.240766 0 
0.345582 -0.24763 0 
0.396905 -0.25086 0 
0.450921 -0.247983 0 
[...]
POINT_DATA 1245 
VECTORS vectors float
0.628362 -0.202051 0.751224 
0.637833 -0.171622 0.750809 
0.64342 -0.138815 0.752822 
0.646052 -0.109237 0.755437 
0.647243 -0.0756338 0.758522 
0.647794 -0.0458704 0.760434 
0.648116 -0.016845 0.761355 
0.64098 0.0138002 0.767434 
0.634441 0.0473129 0.771522 
0.627676 0.087652 0.773525 
0.621601 0.124753 0.773336 
0.614435 0.166625 0.771172 
0.605727 0.204749 0.768877 
0.600514 -0.26569 0.754183 
0.615789 -0.233313 0.752575 
0.51273 -0.177299 0.840044 
0.524315 -0.152046 0.83784 
0.543904 -0.128578 0.829238 
0.514444 -0.0955298 0.852186 
0.542099 -0.071584 0.83726 
0.50926 -0.040256 0.859671 
0.538849 -0.0131175 0.8423 
0.502925 0.0171656 0.86416 
0.529232 0.0503235 0.846984 
0.497643 0.0803794 0.86365 
0.523883 0.118772 0.843469 
0.503925 0.148784 0.850836 
0.493714 0.179613 0.850873 
0.595778 0.241848 0.765871 
0.58435 0.277865 0.762447 
0.562669 -0.332825 0.756724 
0.58274 -0.299005 0.755652 
0.489612 -0.231973 0.840517 
0.501914 -0.203997 0.840517 
0.413408 -0.150677 0.897992 
0.425736 -0.128583 0.895665 
0.447011 -0.107868 0.888001 
0.40306 -0.0765808 0.911964 
0.439373 -0.0587817 0.896379 
0.39458 -0.0311831 0.918332 
0.435033 -0.00992163 0.90036 
0.389592 0.0147188 0.92087 
0.429038 0.0423692 0.902292 
0.390058 0.0652395 0.918476 
0.430317 0.0999368 0.897128 
0.409108 0.125755 0.903779 
0.398041 0.152163 0.90466 
0.485448 0.21045 0.848558 
0.476728 0.241156 0.845325 
0.570933 0.312548 0.759177 
0.554945 0.345924 0.756553 
0.540714 -0.366414 0.757211 
0.458912 -0.289734 0.839913 
0.475383 -0.260786 0.840239 
0.394118 -0.198831 0.897294 
0.403914 -0.174262 0.898046 
0.330066 -0.127701 0.93528 
0.34148 -0.10865 0.933588 
0.360489 -0.0910962 0.928305 
0.314998 -0.0628832 0.947007 
0.34641 -0.0476417 0.936873 
0.304065 -0.024674 0.952332 
0.340595 -0.00712779 0.940183 
0.300376 0.0129759 0.953733 
0.338324 0.035613 0.940355 
0.305096 0.0547476 0.950747 
0.347273 0.0848898 0.933914 
0.328457 0.106527 0.938493 
0.318452 0.128937 0.939129 
0.390993 0.179022 0.902815 
0.384152 0.205789 0.900043 
0.466208 0.271088 0.842117 
0.453021 0.299983 0.839513 
0.536181 0.378042 0.754715 
0.493038 -0.429303 0.756711 
0.517318 -0.398964 0.757106 
0.440048 -0.317694 0.839898 
0.3684 -0.24855 0.895826 
0.3825 -0.223798 0.896442 
0.314664 -0.169555 0.933937 
0.322536 -0.148069 0.934904 
0.262076 -0.107981 0.958987 
0.271829 -0.0918895 0.957949 
0.287116 -0.0765887 0.954829 
0.245769 -0.0520795 0.967928 
0.270096 -0.0389891 0.962044 
0.234357 -0.0197427 0.97195 
0.263661 -0.00505066 0.964602 
0.231588 0.0115046 0.972746 
0.26405 0.030412 0.96403 
0.238431 0.0462345 0.970058 
0.276949 0.0722219 0.958167 
0.262041 0.0903257 0.96082 
0.253255 0.108938 0.961246 
0.312672 0.151677 0.937673 
0.30728 0.17491 0.935407 
0.375482 0.231723 0.897395 
0.364023 0.256643 0.895333 
0.436597 0.327229 0.838036 
0.514778 0.409019 0.753463 
0.491461 0.438378 0.752523 
0.465802 -0.458261 0.756984 
0.406872 -0.375448 0.832763 
0.419445 -0.343768 0.840172 
0.351611 -0.27158 0.895887 
0.293925 -0.213238 0.931739 
0.305309 -0.191257 0.932849 
0.250576 -0.144567 0.957242 
0.256521 -0.125793 0.958318 
0.207364 -0.0915159 0.973974 
0.214848 -0.0773495 0.97358 
0.226796 -0.0644908 0.971805 
0.191533 -0.0432844 0.980531 
0.20993 -0.0321563 0.977187 
0.180892 -0.0159608 0.983374 
0.203743 -0.00360685 0.979018 
0.178879 0.0101664 0.983819 
0.205483 0.0260222 0.978315 
0.186167 0.0392385 0.981734 
0.219267 0.0612592 0.97374 
0.207608 0.0764384 0.975221 
0.201093 0.0923771 0.975207 
0.249317 0.128671 0.959836 
0.245065 0.148791 0.958021 
0.300167 0.197494 0.933218 
0.290747 0.219839 0.931202 
0.349159 0.279441 0.894428 
0.417591 0.352582 0.837439 
0.405907 0.384108 0.829277 
0.464702 0.467262 0.752142 
0.436131 -0.484506 0.758316 
0.381728 -0.399547 0.833454 
0.331157 -0.325265 0.885741 
0.333515 -0.293445 0.895912 
0.279521 -0.234767 0.930995 
0.235336 -0.184215 0.954296 
0.243282 -0.1637 0.956042 
0.199072 -0.123523 0.972169 
0.20339 -0.106915 0.973243 
0.163663 -0.0775385 0.983464 
0.16941 -0.0655286 0.983365 
0.178456 -0.0542486 0.982451 
0.149205 -0.0362413 0.988142 
0.163044 -0.0265935 0.98626 
0.139952 -0.0130557 0.990072 
0.15771 -0.0025375 0.987482 
0.138514 0.00892304 0.99032 
0.159868 0.0222785 0.986887 
0.145359 0.033308 0.988818 
0.172935 0.0520485 0.983557 
0.164217 0.0648125 0.984293 
0.159061 0.0783452 0.984155 
0.198086 0.109178 0.974085 
0.195231 0.12689 0.972514 
0.239627 0.168668 0.956102 
0.233311 0.189625 0.953734 
0.278083 0.241485 0.929707 
0.332398 0.301161 0.893764 
0.331084 0.333228 0.882803 
0.381653 0.408495 0.829139 
0.435689 0.494242 0.752264 
0.405009 -0.507479 0.760548 
0.348949 -0.4111 0.842159 
0.298243 -0.326897 0.896766 
0.266297 -0.26128 0.927803 
0.226928 -0.206459 0.951776 
0.189317 -0.159942 0.968802 
0.193879 -0.140576 0.970901 
0.158026 -0.105777 0.981753 
0.161355 -0.0913097 0.982663 
0.129092 -0.0662452 0.989417 
0.133169 -0.0554681 0.98954 
0.139903 -0.0457173 0.989109 
0.116286 -0.0305016 0.992747 
0.12672 -0.0221466 0.991691 
0.108528 -0.0107539 0.994035 
0.122322 -0.00178798 0.992489 
0.107495 0.00787458 0.994174 
0.12446 0.0191393 0.99204 
0.113514 0.0285177 0.993127 
0.135965 0.0442128 0.989727 
0.129456 0.0551457 0.990051 
0.12595 0.0668469 0.989782 
0.157662 0.0931569 0.983089 
0.155235 0.108457 0.981906 
0.191286 0.14468 0.970813 
0.188074 0.164541 0.968274 
0.226307 0.212222 0.950656 
0.266234 0.268242 0.925833 
0.299176 0.334998 0.89346 
0.350217 0.420508 0.836971 
0.406019 0.518147 0.752776 
0.371139 -0.529382 0.762896 
0.321664 -0.430395 0.843381 
0.275143 -0.343838 0.897815 
0.238311 -0.273306 0.93194 
0.210084 -0.2223 0.952075 
0.178605 -0.175171 0.968202 
0.149648 -0.135948 0.979349 
0.153707 -0.120545 0.980736 
0.12489 -0.0907682 0.98801 
0.127508 -0.0781365 0.988755 
0.101805 -0.0572623 0.993155 
0.104515 -0.047565 0.993385 
0.109655 -0.0390082 0.993204 
0.0905988 -0.0259072 0.99555 
0.0986997 -0.0186957 0.994942 
0.0842954 -0.00894473 0.996401 
0.0952188 -0.00128846 0.995456 
0.0835614 0.00685791 0.996479 
0.0971098 0.0164956 0.995137 
0.0886226 0.0244486 0.995765 
0.10684 0.0378862 0.993554 
0.101968 0.0473519 0.99366 
0.0995575 0.0578197 0.99335 
0.124897 0.079609 0.988971 
0.123017 0.0928483 0.988052 
0.152157 0.123729 0.980581 
0.149067 0.139723 0.978906 
0.178679 0.180037 0.967295 
0.210848 0.228242 0.950499 
0.239857 0.280365 0.929443 
0.277649 0.35225 0.893774 
0.324834 0.440342 0.837008 
0.374762 0.540566 0.753221 
0.335367 -0.550068 0.764823 
0.291915 -0.448049 0.845008 
0.250608 -0.359446 0.898885 
0.215445 -0.28674 0.933469 
0.18652 -0.22988 0.955178 
0.162365 -0.184926 0.969247 
0.13841 -0.146445 0.979488 
0.116845 -0.114826 0.98649 
0.120084 -0.102274 0.987482 
0.0979372 -0.0796046 0.992004 
0.100743 -0.0682412 0.992569 
0.0803695 -0.0495701 0.995532 
0.0820092 -0.0409965 0.995788 
0.085934 -0.033359 0.995742 
0.0707211 -0.0221255 0.997251 
0.0770291 -0.0157898 0.996904 
0.0655849 -0.00754405 0.997818 
0.0742266 -0.000900359 0.997241 
0.0650517 0.00609344 0.997863 
0.075896 0.0142992 0.997013 
0.0692674 0.0210707 0.997376 
0.0839866 0.0326399 0.995932 
0.0802956 0.0408564 0.995933 
0.0790092 0.0501237 0.995613 
0.0990992 0.0694734 0.992649 
0.0969313 0.0812839 0.991966 
0.119103 0.104991 0.987315 
0.116956 0.117644 0.986145 
0.138894 0.150349 0.978828 
0.163518 0.189755 0.968119 
0.188676 0.235713 0.953331 
0.218625 0.293798 0.93053 
0.255101 0.367884 0.894195 
0.297792 0.457854 0.837669 
0.342686 0.560758 0.753735 
0.298434 -0.56955 0.765865 
0.260551 -0.463693 0.846819 
0.223974 -0.372679 0.900525 
0.191827 -0.297458 0.935265 
0.164628 -0.237024 0.957453 
0.141887 -0.188963 0.971679 
0.121899 -0.150184 0.981114 
0.103981 -0.117205 0.987649 
0.0923559 -0.0905711 0.991598 
0.0780214 -0.069685 0.994513 
0.0795382 -0.0591582 0.995075 
0.0634643 -0.0429842 0.997058 
0.0641065 -0.0351212 0.997325 
0.0671924 -0.0285912 0.99733 
0.055013 -0.0191632 0.998302 
0.0600225 -0.0135684 0.998105 
0.0510144 -0.00647224 0.998677 
0.0579186 -0.000683438 0.998321 
0.0506472 0.00539222 0.998702 
0.0592674 0.0124328 0.998165 
0.0540293 0.0185715 0.998367 
0.0659426 0.0281339 0.997427 
0.0631177 0.035335 0.99738 
0.0623843 0.0434449 0.997106 
0.0784465 0.0601898 0.9951 
0.0772511 0.0708924 0.994488 
0.0921033 0.0925813 0.991436 
0.104482 0.120077 0.987251 
0.12337 0.153659 0.980392 
0.144207 0.193427 0.970459 
0.168161 0.242454 0.955478 
0.196875 0.303963 0.932119 
0.230764 0.380374 0.89558 
0.269552 0.472339 0.839189 
0.31006 0.578379 0.754546 
0.26137 -0.587694 0.765703 
0.228899 -0.477821 0.848111 
0.196771 -0.384101 0.90208 
0.168306 -0.306404 0.936904 
0.144129 -0.243945 0.959019 
0.123517 -0.193967 0.973201 
0.106349 -0.153958 0.982337 
0.0914746 -0.121881 0.988321 
0.0805867 -0.09592 0.992122 
0.070808 -0.0763607 0.994563 
0.0607784 -0.0597986 0.996358 
0.062483 -0.0515287 0.996715 
0.0503983 -0.0393253 0.997955 
0.0497546 -0.031351 0.998269 
0.0522999 -0.0251794 0.998314 
0.0427843 -0.0169375 0.998941 
0.0468658 -0.0118661 0.998831 
0.0396572 -0.00565331 0.999197 
0.0452856 -0.000497007 0.998974 
0.0394556 0.00468854 0.99921 
0.0463934 0.0110648 0.998862 
0.042134 0.0161478 0.998981 
0.0516524 0.0248802 0.998355 
0.0493821 0.0314816 0.998284 
0.0494775 0.0394898 0.997994 
0.0616871 0.0521472 0.996732 
0.0599685 0.0599798 0.996397 
0.070712 0.0775376 0.994479 
0.0813004 0.0976664 0.991893 
0.0928342 0.124203 0.987905 
0.108495 0.157007 0.98162 
0.127043 0.197713 0.971993 
0.14898 0.248454 0.957118 
0.1751 0.311762 0.933887 
0.205921 0.39001 0.89749 
0.240979 0.484129 0.841159 
0.27717 0.593281 0.755774 
0.225134 -0.604377 0.764227 
0.197983 -0.490987 0.848372 
0.169744 -0.394269 0.903183 
0.145091 -0.314557 0.938085 
0.123704 -0.250016 0.960307 
0.105892 -0.198229 0.974419 
0.0906937 -0.157235 0.983388 
0.0781834 -0.124479 0.989137 
0.0686206 -0.0982413 0.992794 
0.0596746 -0.0778406 0.995178 
0.0522659 -0.0611905 0.996757 
0.0478731 -0.0470661 0.997744 
0.0404474 -0.0353984 0.998554 
0.0384278 -0.027849 0.998873 
0.0406769 -0.0222851 0.998924 
0.0332563 -0.0149585 0.999335 
0.036497 -0.0104158 0.999279 
0.0307203 -0.00490443 0.999516 
0.0352541 -0.000433804 0.999378 
0.0305231 0.00428172 0.999525 
0.0361763 0.00964872 0.999299 
0.032763 0.0143446 0.99936 
0.040389 0.0219691 0.998942 
0.0385479 0.0276058 0.998875 
0.039184 0.034628 0.998632 
0.0470483 0.0469211 0.99779 
0.0523407 0.0618091 0.996715 
0.0604473 0.0789552 0.995044 
0.0696624 0.0998475 0.992561 
0.080161 0.126296 0.988748 
0.0937014 0.159517 0.982738 
0.110088 0.200866 0.973413 
0.12973 0.252993 0.958731 
0.153171 0.317709 0.935735 
0.180686 0.397516 0.89963 
0.212461 0.493694 0.843283 
0.244153 0.605604 0.757386 
0.190397 -0.619266 0.761747 
0.168415 -0.503382 0.847492 
0.144126 -0.40509 0.902845 
0.122758 -0.322875 0.938447 
0.104699 -0.256174 0.960944 
0.0891534 -0.202523 0.975211 
0.0762584 -0.159926 0.984179 
0.0654633 -0.126012 0.989866 
0.0569472 -0.0995223 0.993404 
0.0497446 -0.0785985 0.995664 
0.0431343 -0.0621178 0.997136 
0.0397874 -0.0494606 0.997983 
0.0358521 -0.0397321 0.998567 
0.0311969 -0.0307281 0.999041 
0.0293705 -0.024289 0.999273 
0.0312582 -0.0196604 0.999318 
0.0254753 -0.013312 0.999587 
0.0281923 -0.00921884 0.99956 
0.0234902 -0.00454576 0.999714 
0.0272465 -0.000396245 0.999629 
0.0233901 0.00370327 0.99972 
0.0279361 0.00847696 0.999574 
0.0251332 0.0127435 0.999603 
0.0312561 0.01902 0.99933 
0.029838 0.0240645 0.999265 
0.0304462 0.0300828 0.999084 
0.035015 0.0389408 0.998628 
0.0398185 0.0493859 0.997986 
0.0438577 0.0625745 0.997076 
0.0506424 0.0794002 0.995556 
0.0585487 0.100469 0.993216 
0.067675 0.127134 0.989574 
0.0796953 0.161104 0.983715 
0.0939558 0.203701 0.974514 
0.111268 0.257121 0.959952 
0.131777 0.323449 0.937025 
0.156108 0.40473 0.901013 
0.184322 0.502031 0.844979 
0.211078 0.615405 0.759422 
0.157248 -0.631696 0.759101 
0.141022 -0.517368 0.844064 
0.119923 -0.419277 0.899903 
0.102247 -0.335718 0.936397 
0.0871463 -0.266939 0.959765 
0.0741291 -0.210765 0.974722 
0.0632669 -0.166055 0.984085 
0.0540187 -0.13048 0.989978 
0.0468593 -0.102402 0.993639 
0.0404992 -0.0802968 0.995948 
0.0351052 -0.0628502 0.997405 
0.0314737 -0.0487916 0.998313 
0.0280996 -0.037745 0.998892 
0.0245761 -0.028908 0.99928 
0.0222846 -0.0219919 0.99951 
0.0233859 -0.0173967 0.999575 
0.0190591 -0.0124142 0.999741 
0.0214762 -0.00848756 0.999733 
0.0178209 -0.00404132 0.999833 
0.0208855 -0.000263237 0.999782 
0.0177211 0.00362132 0.999836 
0.0212906 0.00803144 0.999741 
0.0190254 0.0120163 0.999747 
0.0234067 0.017283 0.999577 
0.0224949 0.0219698 0.999506 
0.0245156 0.0294224 0.999266 
0.0280888 0.0383038 0.998871 
0.0320404 0.0492926 0.99827 
0.0359887 0.0632198 0.997351 
0.0416546 0.0806965 0.995868 
0.0484242 0.102656 0.993538 
0.0566141 0.130675 0.989808 
0.066697 0.16585 0.983893 
0.0790991 0.210176 0.974458 
0.093821 0.265343 0.959578 
0.111328 0.333119 0.93629 
0.131951 0.414993 0.900205 
0.156861 0.51134 0.844942 
0.177488 0.622569 0.762172 
0.122813 -0.64079 0.757829 
0.115701 -0.539911 0.833732 
0.0975635 -0.442972 0.891211 
0.0832623 -0.356807 0.93046 
0.0707866 -0.283622 0.95632 
0.0602581 -0.223792 0.972772 
0.0512681 -0.175833 0.983084 
0.043788 -0.137751 0.989499 
0.0376324 -0.107819 0.993458 
0.0326124 -0.0844596 0.995893 
0.0281843 -0.0660323 0.997419 
0.0249754 -0.0513574 0.998368 
0.0223242 -0.0399753 0.998951 
0.019767 -0.0307519 0.999332 
0.0175613 -0.02302 0.999581 
0.0167654 -0.0165745 0.999722 
0.014245 -0.0113046 0.999835 
0.0159567 -0.00763115 0.999844 
0.0130379 -0.00360201 0.999909 
0.0157074 -0.000350782 0.999877 
0.0130501 0.00295984 0.99991 
0.0159908 0.00708751 0.999847 
0.0141936 0.0110041 0.999839 
0.016985 0.01643 0.999721 
0.017744 0.0229447 0.999579 
0.0197023 0.0308773 0.999329 
0.0224938 0.0400775 0.998943 
0.0256249 0.0515142 0.998343 
0.0290038 0.0659513 0.997401 
0.0337699 0.0842358 0.995873 
0.0393276 0.10732 0.993446 
0.0461635 0.136811 0.989521 
0.0547124 0.17423 0.983184 
0.0648733 0.221052 0.973102 
0.0771333 0.279527 0.957035 
0.0916582 0.350559 0.932045 
0.108778 0.434574 0.894043 
0.130231 0.529215 0.838434 
0.139997 0.626494 0.76675 
0.092902 -0.646545 0.757198 
0.0829791 -0.51342 0.854116 
0.0672915 -0.40175 0.913273 
0.055966 -0.313441 0.947957 
0.047085 -0.244162 0.968591 
0.0397898 -0.189958 0.980986 
0.0337203 -0.147743 0.988451 
0.0288374 -0.11496 0.992951 
0.0248544 -0.0894816 0.995678 
0.0214019 -0.0697286 0.997336 
0.018812 -0.0542119 0.998352 
0.0167675 -0.0421447 0.998971 
0.0149052 -0.0327315 0.999353 
0.0133357 -0.025101 0.999596 
0.0125139 -0.0188153 0.999745 
0.0114146 -0.0140373 0.999836 
0.00964056 -0.00962741 0.999907 
0.0115633 -0.00683098 0.99991 
0.00889146 -0.00361405 0.999954 
0.0111239 -0.000176546 0.999938 
0.00892746 0.00316578 0.999955 
0.0115101 0.00640396 0.999913 
0.00985363 0.00918903 0.999909 
0.0115101 0.0136168 0.999841 
0.0126322 0.0184804 0.999749 
0.0133903 0.0246191 0.999607 
0.0148724 0.032301 0.999368 
0.0170013 0.0417749 0.998982 
0.0193564 0.0537587 0.998366 
0.0221762 0.0690923 0.997364 
0.0257961 0.0885872 0.995734 
0.0303395 0.113662 0.993056 
0.0357548 0.145623 0.988694 
0.0425393 0.186699 0.981496 
0.0509023 0.239165 0.969644 
0.0611113 0.306033 0.950057 
0.0743131 0.391449 0.917194 
0.0928518 0.499359 0.861406 
0.105361 0.628678 0.770496 
0.0599699 -0.651006 0.7567 
0.0586572 -0.544237 0.836878 
0.0487215 -0.440943 0.896212 
0.0401176 -0.347155 0.936949 
0.0335306 -0.270265 0.962202 
0.0281672 -0.209647 0.977371 
0.0237772 -0.162499 0.986422 
0.0202407 -0.126082 0.991813 
0.0173321 -0.0979835 0.995037 
0.0149109 -0.0763444 0.99697 
0.0130294 -0.0594122 0.998148 
0.0115152 -0.0462993 0.998861 
0.0102168 -0.0360199 0.999299 
0.00914845 -0.0278364 0.999571 
0.00848115 -0.0211535 0.99974 
0.00758662 -0.0157834 0.999847 
0.0069232 -0.0113934 0.999911 
0.00697651 -0.00690402 0.999952 
0.00561836 -0.00343299 0.999978 
0.00767874 -0.000349749 0.99997 
0.00568805 0.00284915 0.99998 
0.00696753 0.00639463 0.999955 
0.00688888 0.0109282 0.999917 
0.00779293 0.0153948 0.999851 
0.00851736 0.0207128 0.999749 
0.00922305 0.0273641 0.999583 
0.0103393 0.0356684 0.99931 
0.0118875 0.0458881 0.998876 
0.013472 0.058812 0.998178 
0.015517 0.0755047 0.997025 
0.0181385 0.0966761 0.995151 
0.0212157 0.124059 0.992048 
0.0251541 0.159406 0.986893 
0.0299305 0.204825 0.978341 
0.0358256 0.263204 0.964075 
0.0432218 0.337057 0.940492 
0.0528548 0.427144 0.902637 
0.0645643 0.52733 0.847204 
0.0655596 0.630582 0.773349 
0.031656 -0.654132 0.755718 
0.0294528 -0.514136 0.857203 
0.023223 -0.398053 0.917068 
0.0189344 -0.306355 0.951729 
0.0155951 -0.235619 0.97172 
0.0130711 -0.181522 0.9833 
0.0109767 -0.140087 0.990078 
0.00932065 -0.108377 0.994066 
0.00799527 -0.0840117 0.996433 
0.00689354 -0.0651899 0.997849 
0.00602704 -0.0506101 0.9987 
0.00539662 -0.0392882 0.999213 
0.00476763 -0.030372 0.999527 
0.00436096 -0.0231971 0.999721 
0.00407938 -0.0176371 0.999836 
0.00347603 -0.0128171 0.999912 
0.00360536 -0.00890511 0.999954 
0.00334676 -0.00555498 0.999979 
0.00249164 -0.00215996 0.999995 
0.00417316 -0.000272029 0.999991 
0.00245309 0.00181175 0.999995 
0.0033814 0.00508959 0.999981 
0.00375441 0.00830584 0.999958 
0.00358182 0.0124369 0.999916 
0.00413739 0.0170553 0.999846 
0.00441682 0.0227531 0.999731 
0.00487569 0.0298919 0.999541 
0.00554377 0.0387685 0.999233 
0.00624476 0.0500344 0.998728 
0.00721998 0.0643276 0.997903 
0.0082031 0.0827985 0.996533 
0.0096143 0.106632 0.994252 
0.0112492 0.137356 0.990458 
0.0132107 0.177387 0.984053 
0.0157511 0.229494 0.973183 
0.0188952 0.297254 0.954611 
0.0230669 0.385437 0.922446 
0.0291729 0.496953 0.867287 
0.0304485 0.63317 0.773414 
0.00484341 -0.656865 0.753992 
0.00338571 -0.546668 0.837343 
0.0025747 -0.441271 0.89737 
0.00167806 -0.345133 0.938552 
0.00113795 -0.266742 0.963767 
0.000816782 -0.205662 0.978623 
0.000551136 -0.158783 0.987313 
0.000436032 -0.122872 0.992422 
0.000328411 -0.0953632 0.995442 
0.000232753 -0.0741418 0.997248 
0.000214536 -0.0577283 0.998332 
0.000234327 -0.0450057 0.998987 
0.00015588 -0.0349668 0.999388 
0.000238804 -0.026988 0.999636 
0.000204726 -0.0206493 0.999787 
0.000153885 -0.0155145 0.99988 
0.000192586 -0.0110952 0.999938 
0.000247231 -0.00742977 0.999972 
7.38392e-06 -0.00452347 0.99999 
-9.64454e-05 -0.000504869 1 
0.000177589 0.00364158 0.999993 
0.000257579 0.00706211 0.999975 
0.000279437 0.0104397 0.999945 
0.000261898 0.0150255 0.999887 
0.000283888 0.0202126 0.999796 
0.000300159 0.026464 0.99965 
0.000233857 0.0345435 0.999403 
0.000358722 0.0444523 0.999011 
0.000253623 0.0570409 0.998372 
0.000233843 0.0732661 0.997312 
0.000164417 0.0940063 0.995572 
-5.5713e-05 0.120838 0.992672 
-0.000227635 0.155753 0.987796 
-0.00054204 0.200974 0.979597 
-0.000989702 0.25981 0.965659 
-0.0015156 0.335117 0.942175 
-0.00210656 0.427357 0.90408 
-0.00296782 0.529321 0.848417 
-0.003586 0.636754 0.771058 
-0.0228291 -0.65181 0.758038 
-0.0233968 -0.512164 0.858569 
-0.0194124 -0.396707 0.91774 
-0.0162116 -0.305311 0.952115 
-0.0138218 -0.234909 0.971919 
-0.0117336 -0.181004 0.983412 
-0.0100372 -0.139752 0.990136 
-0.00863462 -0.108114 0.994101 
-0.00740829 -0.0838365 0.996452 
-0.00642053 -0.0650212 0.997863 
-0.00570273 -0.0505138 0.998707 
-0.00492357 -0.0392261 0.999218 
-0.00434886 -0.0302898 0.999532 
-0.00398903 -0.023154 0.999724 
-0.00366151 -0.0175515 0.999839 
-0.00315682 -0.0128425 0.999913 
-0.00331013 -0.00894517 0.999955 
-0.00299716 -0.0055894 0.99998 
-0.00160898 -0.00212891 0.999996 
-0.0040391 -0.000394941 0.999992 
-0.00165636 0.00183328 0.999997 
-0.00292575 0.00504442 0.999983 
-0.00320958 0.00821508 0.999961 
-0.00305446 0.0123829 0.999919 
-0.00350314 0.0170387 0.999849 
-0.00399239 0.0227203 0.999734 
-0.00425104 0.0299123 0.999543 
-0.00492055 0.0387353 0.999237 
-0.00571809 0.0500761 0.998729 
-0.00652619 0.0644528 0.997899 
-0.00789498 0.0829864 0.996519 