# vtk DataFile Version 3.0 
Exported using Morpho https://github.com/Morpho-lang/morpho 
ASCII 
DATASET UNSTRUCTURED_GRID 

POINTS 1245 float 
-0.303845 -0.952721 0 
-0.250833 -0.96803 0 
-0.195084 -0.980787 0 
-0.146308 -0.989239 0 
-0.0940719 -0.995565 0 
-0.0475118 -0.998871 0 
-0.000246339 -1 0 
0.0470875 -0.998891 0 
0.0937543 -0.995595 0 
0.146139 -0.989264 0 
0.195062 -0.980791 0 
0.250843 -0.968028 0 
0.303953 -0.952687 0 
-0.409153 -0.912466 0 
-0.356519 -0.934288 0 
-0.308871 -0.898929 0 
-0.258282 -0.916037 0 
-0.207345 -0.934859 0 
-0.154868 -0.930629 0 
-0.104343 -0.948989 0 
-0.0520099 -0.939193 0 
-8.5762e-05 -0.954582 0 
0.0518744 -0.939288 0 
0.104354 -0.949042 0 
0.154696 -0.9306 0 
0.207366 -0.934975 0 
0.258274 -0.916081 0 
0.308979 -0.898924 0 
0.356593 -0.93426 0 
0.409236 -0.912429 0 
-0.513788 -0.857917 0 
-0.461695 -0.887039 0 
-0.411157 -0.857936 0 
-0.359855 -0.879963 0 
-0.306888 -0.847481 0 
-0.254732 -0.866979 0 
-0.201991 -0.889059 0 
-0.149956 -0.874108 0 
-0.100608 -0.900088 0 
-0.0497575 -0.880388 0 
2.4595e-05 -0.904789 0 
0.0496869 -0.8804 0 
0.100612 -0.900177 0 
0.149872 -0.874171 0 
0.202071 -0.889165 0 
0.254695 -0.867031 0 
0.306946 -0.847482 0 
0.359894 -0.879943 0 
0.411236 -0.857929 0 
0.461748 -0.887011 0 
0.513842 -0.857885 0 
-0.564741 -0.825268 0 
-0.512908 -0.802945 0 
-0.462372 -0.832348 0 
-0.410124 -0.804631 0 
-0.358606 -0.827415 0 
-0.305781 -0.795641 0 
-0.25358 -0.816639 0 
-0.200756 -0.839997 0 
-0.149043 -0.818944 0 
-0.0987265 -0.846667 0 
-0.0490473 -0.822548 0 
5.00659e-05 -0.849932 0 
0.0490834 -0.822542 0 
0.0987838 -0.846676 0 
0.148997 -0.818924 0 
0.200826 -0.840131 0 
0.253508 -0.816728 0 
0.305831 -0.795701 0 
0.358581 -0.827419 0 
0.410181 -0.804654 0 
0.462414 -0.83234 0 
0.512965 -0.802929 0 
0.564777 -0.825243 0 
-0.660798 -0.750564 0 
-0.614015 -0.789295 0 
-0.561786 -0.769772 0 
-0.510673 -0.747856 0 
-0.460836 -0.778365 0 
-0.408794 -0.751554 0 
-0.357337 -0.774971 0 
-0.304815 -0.743684 0 
-0.252907 -0.765535 0 
-0.200631 -0.789263 0 
-0.149244 -0.764328 0 
-0.0986912 -0.791935 0 
-0.0492815 -0.765764 0 
4.16586e-05 -0.79382 0 
0.0492411 -0.765708 0 
0.0987508 -0.791951 0 
0.149196 -0.764326 0 
0.200666 -0.789356 0 
0.252841 -0.765599 0 
0.304862 -0.743741 0 
0.357323 -0.775038 0 
0.408863 -0.751626 0 
0.460863 -0.778382 0 
0.510716 -0.747859 0 
0.561819 -0.769761 0 
0.614041 -0.789274 0 
0.660811 -0.750552 0 
-0.707107 -0.707107 0 
-0.654819 -0.699058 0 
-0.60813 -0.73348 0 
-0.558104 -0.71337 0 
-0.509495 -0.692659 0 
-0.45935 -0.724356 0 
-0.407328 -0.698865 0 
-0.355968 -0.722823 0 
-0.303722 -0.691387 0 
-0.252254 -0.71362 0 
-0.20067 -0.737336 0 
-0.149608 -0.710068 0 
-0.0991558 -0.737129 0 
-0.0495872 -0.709825 0 
-2.23646e-05 -0.737917 0 
0.0494408 -0.709766 0 
0.0991291 -0.737116 0 
0.149502 -0.710042 0 
0.200696 -0.73743 0 
0.252186 -0.713735 0 
0.303753 -0.691518 0 
0.355952 -0.722893 0 
0.407371 -0.698945 0 
0.459374 -0.724407 0 
0.509524 -0.692668 0 
0.558131 -0.713361 0 
0.608151 -0.733462 0 
0.654824 -0.699048 0 
0.707107 -0.707107 0 
-0.750564 -0.660798 0 
-0.699058 -0.654819 0 
-0.647692 -0.647692 0 
-0.603437 -0.675718 0 
-0.55905 -0.655305 0 
-0.508501 -0.639581 0 
-0.457509 -0.671321 0 
-0.405555 -0.646545 0 
-0.354417 -0.670703 0 
-0.302427 -0.639219 0 
-0.251503 -0.661417 0 
-0.20061 -0.684911 0 
-0.149717 -0.655943 0 
-0.0995004 -0.682466 0 
-0.0498216 -0.654561 0 
-5.02113e-05 -0.682664 0 
0.0496787 -0.654499 0 
0.0994374 -0.682501 0 
0.149603 -0.655909 0 
0.200573 -0.684972 0 
0.251388 -0.661524 0 
0.302407 -0.639359 0 
0.354397 -0.670836 0 
0.405575 -0.646641 0 
0.457525 -0.67138 0 
0.508497 -0.639623 0 
0.559063 -0.655324 0 
0.603436 -0.675715 0 
0.64769 -0.64769 0 
0.699048 -0.654824 0 
0.750552 -0.660811 0 
-0.789295 -0.614015 0 
-0.73348 -0.60813 0 
-0.675718 -0.603437 0 
-0.613088 -0.613088 0 
-0.55962 -0.604068 0 
-0.506189 -0.588854 0 
-0.455505 -0.618874 0 
-0.403019 -0.594688 0 
-0.352514 -0.618952 0 
-0.300977 -0.586897 0 
-0.250543 -0.608767 0 
-0.200257 -0.632053 0 
-0.150049 -0.601979 0 
-0.0998281 -0.628222 0 
-0.0500377 -0.599914 0 
-3.12334e-05 -0.628076 0 
0.0498927 -0.599835 0 
0.0997818 -0.628253 0 
0.149924 -0.601867 0 
0.200214 -0.632118 0 
0.250423 -0.608915 0 
0.30086 -0.587085 0 
0.352457 -0.619096 0 
0.402948 -0.594743 0 
0.455483 -0.618952 0 
0.506147 -0.588901 0 
0.55964 -0.604067 0 
0.613069 -0.613069 0 
0.675715 -0.603436 0 
0.733462 -0.608151 0 
0.789274 -0.614041 0 
-0.825268 -0.564741 0 
-0.769772 -0.561786 0 
-0.71337 -0.558104 0 
-0.655305 -0.55905 0 
-0.604068 -0.55962 0 
-0.551031 -0.551031 0 
-0.497922 -0.537596 0 
-0.451508 -0.567021 0 
-0.399773 -0.542431 0 
-0.350494 -0.567003 0 
-0.301574 -0.534146 0 
-0.250874 -0.555692 0 
-0.200542 -0.579013 0 
-0.150324 -0.548268 0 
-0.100169 -0.57443 0 
-0.0500152 -0.545912 0 
-3.29278e-05 -0.574268 0 
0.0499208 -0.545788 0 
0.100058 -0.574485 0 
0.150038 -0.548073 0 
0.200377 -0.579041 0 
0.250556 -0.55585 0 
0.301273 -0.534348 0 
0.350318 -0.567174 0 
0.399615 -0.542384 0 
0.451404 -0.5671 0 
0.497945 -0.537702 0 
0.551073 -0.551073 0 
0.604067 -0.55964 0 
0.655324 -0.559063 0 
0.713361 -0.558131 0 
0.769761 -0.561819 0 
0.825243 -0.564777 0 
-0.857917 -0.513788 0 
-0.802945 -0.512908 0 
-0.747856 -0.510673 0 
-0.692659 -0.509495 0 
-0.639581 -0.508501 0 
-0.588854 -0.506189 0 
-0.537596 -0.497922 0 
-0.486157 -0.486157 0 
-0.444928 -0.512952 0 
-0.401787 -0.486784 0 
-0.351685 -0.513639 0 
-0.299695 -0.48291 0 
-0.250032 -0.503 0 
-0.200501 -0.526165 0 
-0.149489 -0.495195 0 
-0.0999281 -0.521367 0 
-0.0499712 -0.492294 0 
4.64723e-05 -0.520999 0 
0.050147 -0.492108 0 
0.099934 -0.52133 0 
0.14957 -0.494692 0 
0.200133 -0.526255 0 
0.249839 -0.503309 0 
0.299839 -0.483005 0 
0.351514 -0.513798 0 
0.401881 -0.486608 0 
0.444935 -0.513054 0 
0.486228 -0.486228 0 
0.537702 -0.497945 0 
0.588901 -0.506147 0 
0.639623 -0.508497 0 
0.692668 -0.509524 0 
0.747859 -0.510716 0 
0.802929 -0.512965 0 
0.857885 -0.513842 0 
-0.887039 -0.461695 0 
-0.832348 -0.462372 0 
-0.778365 -0.460836 0 
-0.724356 -0.45935 0 
-0.671321 -0.457509 0 
-0.618874 -0.455505 0 
-0.567021 -0.451508 0 
-0.512952 -0.444928 0 
-0.450685 -0.450685 0 
-0.397667 -0.437543 0 
-0.348492 -0.462546 0 
-0.295416 -0.432968 0 
-0.247004 -0.450633 0 
-0.198702 -0.473818 0 
-0.150161 -0.441625 0 
-0.100085 -0.468395 0 
-0.0502271 -0.439281 0 
0.000144229 -0.468374 0 
0.0504178 -0.439106 0 
0.100428 -0.468348 0 
0.150697 -0.441105 0 
0.199103 -0.473881 0 
0.247983 -0.450921 0 
0.296569 -0.432268 0 
0.348831 -0.462562 0 
0.397506 -0.4368 0 
0.450637 -0.450637 0 
0.513054 -0.444935 0 
0.5671 -0.451404 0 
0.618952 -0.455483 0 
0.67138 -0.457525 0 
0.724407 -0.459374 0 
0.778382 -0.460863 0 
0.83234 -0.462414 0 
0.887011 -0.461748 0 
-0.912466 -0.409153 0 
-0.857936 -0.411157 0 
-0.804631 -0.410124 0 
-0.751554 -0.408794 0 
-0.698865 -0.407328 0 
-0.646545 -0.405555 0 
-0.594688 -0.403019 0 
-0.542431 -0.399773 0 
-0.486784 -0.401787 0 
-0.437543 -0.397667 0 
-0.387256 -0.387256 0 
-0.344215 -0.411459 0 
-0.30136 -0.381507 0 
-0.25021 -0.395692 0 
-0.200211 -0.419975 0 
-0.150955 -0.389014 0 
-0.100617 -0.416095 0 
-0.0503197 -0.386922 0 
-4.02994e-05 -0.416525 0 
0.05006 -0.386948 0 
0.100784 -0.416323 0 
0.150432 -0.388572 0 
0.200855 -0.420694 0 
0.25086 -0.396905 0 
0.301746 -0.379789 0 
0.344135 -0.410678 0 
0.385823 -0.385823 0 
0.4368 -0.397506 0 
0.486608 -0.401881 0 
0.542384 -0.399615 0 
0.594743 -0.402948 0 
0.646641 -0.405575 0 
0.698945 -0.407371 0 
0.751626 -0.408863 0 
0.804654 -0.410181 0 
0.857929 -0.411236 0 
0.912429 -0.409236 0 
-0.934288 -0.356519 0 
-0.879963 -0.359855 0 
-0.827415 -0.358606 0 
-0.774971 -0.357337 0 
-0.722823 -0.355968 0 
-0.670703 -0.354417 0 
-0.618952 -0.352514 0 
-0.567003 -0.350494 0 
-0.513639 -0.351685 0 
-0.462546 -0.348492 0 
-0.411459 -0.344215 0 
-0.351697 -0.351697 0 
-0.29839 -0.336232 0 
-0.249846 -0.342529 0 
-0.200971 -0.367271 0 
-0.149995 -0.337521 0 
-0.100435 -0.3646 0 
-0.0498692 -0.335025 0 
-6.88684e-05 -0.365025 0 
0.0495433 -0.334795 0 
0.0996798 -0.364834 0 
0.148162 -0.337172 0 
0.199644 -0.368939 0 
0.24763 -0.345582 0 
0.295348 -0.332889 0 
0.34978 -0.34978 0 
0.410678 -0.344135 0 
0.462562 -0.348831 0 
0.513798 -0.351514 0 
0.567174 -0.350318 0 
0.619096 -0.352457 0 
0.670836 -0.354397 0 
0.722893 -0.355952 0 
0.775038 -0.357323 0 
0.827419 -0.358581 0 
0.879943 -0.359894 0 
0.93426 -0.356593 0 
-0.952721 -0.303845 0 
-0.898929 -0.308871 0 
-0.847481 -0.306888 0 
-0.795641 -0.305781 0 
-0.743684 -0.304815 0 
-0.691387 -0.303722 0 
-0.639219 -0.302427 0 
-0.586897 -0.300977 0 
-0.534146 -0.301574 0 
-0.48291 -0.299695 0 
-0.432968 -0.295416 0 
-0.381507 -0.30136 0 
-0.336232 -0.29839 0 
-0.288184 -0.288184 0 
-0.242975 -0.290577 0 
-0.198059 -0.315051 0 
-0.148383 -0.285894 0 
-0.0994753 -0.313232 0 
-0.0507184 -0.283118 0 
-0.000202902 -0.313447 0 
0.0500077 -0.282824 0 
0.0988289 -0.312817 0 
0.148102 -0.28482 0 
0.195742 -0.317413 0 
0.240766 -0.295824 0 
0.285014 -0.285014 0 
0.332889 -0.295348 0 
0.379789 -0.301746 0 
0.432268 -0.296569 0 
0.483005 -0.299839 0 
0.534348 -0.301273 0 
0.587085 -0.30086 0 
0.639359 -0.302407 0 
0.691518 -0.303753 0 
0.743741 -0.304862 0 
0.795701 -0.305831 0 
0.847482 -0.306946 0 
0.898924 -0.308979 0 
0.952687 -0.303953 0 
-0.96803 -0.250833 0 
-0.916037 -0.258282 0 
-0.866979 -0.254732 0 
-0.816639 -0.25358 0 
-0.765535 -0.252907 0 
-0.71362 -0.252254 0 
-0.661417 -0.251503 0 
-0.608767 -0.250543 0 
-0.555692 -0.250874 0 
-0.503 -0.250032 0 
-0.450633 -0.247004 0 
-0.395692 -0.25021 0 
-0.342529 -0.249846 0 
-0.290577 -0.242975 0 
-0.239946 -0.239946 0 
-0.194478 -0.26004 0 
-0.151293 -0.23238 0 
-0.101048 -0.260904 0 
-0.0503938 -0.232537 0 
-0.000203281 -0.262984 0 
0.050638 -0.232316 0 
0.100942 -0.260855 0 
0.152412 -0.232597 0 
0.195768 -0.261421 0 
0.241873 -0.241873 0 
0.295824 -0.240766 0 
0.345582 -0.24763 0 
0.396905 -0.25086 0 
0.450921 -0.247983 0 
[...]
POINT_DATA 1245 
VECTORS vectors float
0.590304 -0.199495 0.78214 
0.590921 -0.175129 0.787491 
0.596798 -0.145725 0.789047 
0.597293 -0.128062 0.791733 
0.595014 -0.0997402 0.797502 
0.592119 -0.0749104 0.802361 
0.585949 -0.0514608 0.808712 
0.569209 -0.0236129 0.821854 
0.553574 0.0107862 0.83273 
0.540026 0.060149 0.839497 
0.530501 0.104186 0.841257 
0.519641 0.16044 0.839185 
0.520504 0.210551 0.827492 
0.564677 -0.252442 0.785756 
0.579263 -0.22024 0.784824 
0.470063 -0.169173 0.866269 
0.477192 -0.147578 0.866319 
0.492589 -0.136474 0.859494 
0.461703 -0.104973 0.880801 
0.485299 -0.0893926 0.869767 
0.449519 -0.0602208 0.891238 
0.470228 -0.0381824 0.881719 
0.427935 -0.0091396 0.903763 
0.445577 0.0226382 0.894958 
0.411345 0.0570316 0.909694 
0.436876 0.103722 0.893522 
0.41491 0.138517 0.899257 
0.414299 0.175987 0.892964 
0.51966 0.244978 0.818498 
0.518132 0.285195 0.806352 
0.522915 -0.300574 0.797631 
0.551199 -0.275252 0.787665 
0.450447 -0.211796 0.867318 
0.462108 -0.188206 0.866622 
0.369663 -0.135462 0.919238 
0.377798 -0.127014 0.917135 
0.395139 -0.106304 0.91245 
0.348976 -0.0844806 0.933316 
0.38324 -0.0705825 0.920948 
0.332256 -0.0433911 0.942191 
0.367396 -0.028361 0.929632 
0.314927 -0.00377393 0.949108 
0.349339 0.0193753 0.936796 
0.312384 0.0455939 0.948861 
0.34527 0.0811588 0.934988 
0.333696 0.115861 0.935534 
0.321671 0.140202 0.936414 
0.412542 0.205481 0.887461 
0.415056 0.2354 0.878815 
0.524012 0.31338 0.791963 
0.514347 0.33618 0.788943 
0.502417 -0.335555 0.796856 
0.416535 -0.25843 0.871615 
0.434844 -0.233933 0.86959 
0.352346 -0.174784 0.919403 
0.361062 -0.156018 0.919398 
0.285402 -0.114799 0.951508 
0.293306 -0.0975826 0.951025 
0.310221 -0.0928018 0.946124 
0.263832 -0.0639984 0.962443 
0.291524 -0.054704 0.954998 
0.246599 -0.0330968 0.968552 
0.274672 -0.0201982 0.961326 
0.232592 -0.00275159 0.97257 
0.264783 0.0163274 0.96417 
0.234977 0.0367659 0.971305 
0.275976 0.0693888 0.958657 
0.255921 0.0922107 0.96229 
0.255163 0.11829 0.959635 
0.323983 0.168637 0.930912 
0.325325 0.192283 0.925846 
0.41632 0.260659 0.871054 
0.409413 0.285571 0.866505 
0.500149 0.367546 0.784067 
0.456763 -0.392681 0.798229 
0.480907 -0.359332 0.799755 
0.399186 -0.282584 0.872236 
0.32547 -0.217047 0.920304 
0.339664 -0.195547 0.919995 
0.271132 -0.144116 0.951692 
0.279402 -0.125374 0.951954 
0.216517 -0.0897597 0.972144 
0.226201 -0.0844537 0.970413 
0.237966 -0.0725365 0.968561 
0.197913 -0.0524175 0.978817 
0.218408 -0.0428729 0.974915 
0.181865 -0.0259188 0.982982 
0.203257 -0.0159009 0.978996 
0.171972 -0.00262536 0.985098 
0.198886 0.013847 0.979925 
0.179274 0.0313889 0.983298 
0.212902 0.058465 0.975323 
0.203924 0.0793067 0.975769 
0.191436 0.0940856 0.976985 
0.249206 0.136129 0.958835 
0.252398 0.157663 0.954693 
0.324564 0.215407 0.921009 
0.318702 0.236804 0.917798 
0.396867 0.307177 0.86495 
0.483517 0.3837 0.786757 
0.452455 0.408051 0.792956 
0.441831 -0.418959 0.793258 
0.37189 -0.336359 0.865194 
0.380033 -0.306026 0.872882 
0.310018 -0.236463 0.920855 
0.254144 -0.181009 0.950077 
0.26366 -0.161884 0.950935 
0.210669 -0.118273 0.970376 
0.213753 -0.106052 0.971114 
0.166098 -0.0789977 0.98294 
0.169536 -0.0658703 0.98332 
0.180865 -0.0592235 0.981723 
0.146563 -0.0399437 0.988395 
0.162456 -0.0338065 0.986136 
0.133476 -0.0205243 0.99084 
0.15091 -0.0133814 0.988457 
0.127313 -0.0018188 0.991861 
0.14898 0.0109387 0.98878 
0.133098 0.0257159 0.990769 
0.163454 0.0484802 0.985359 
0.152233 0.0636306 0.986294 
0.152182 0.0784553 0.985234 
0.196808 0.113279 0.973876 
0.195924 0.128941 0.972105 
0.251961 0.176852 0.951441 
0.245847 0.195902 0.949306 
0.306146 0.253109 0.91772 
0.378252 0.324818 0.866844 
0.367296 0.352605 0.860676 
0.430979 0.438132 0.788858 
0.415469 -0.438312 0.797037 
0.353036 -0.355717 0.86535 
0.29585 -0.28556 0.911553 
0.294166 -0.2558 0.920887 
0.24077 -0.20115 0.94951 
0.197925 -0.149442 0.968758 
0.204176 -0.133818 0.969745 
0.161302 -0.0983269 0.981995 
0.162595 -0.086032 0.982935 
0.123496 -0.0630742 0.990338 
0.129308 -0.0559033 0.990027 
0.136075 -0.0475494 0.989557 
0.108355 -0.0315719 0.993611 
0.119396 -0.0265347 0.992492 
0.0974209 -0.015508 0.995122 
0.111642 -0.0097435 0.993701 
0.0942812 0.00014096 0.995546 
0.110955 0.00973411 0.993778 
0.097865 0.0204408 0.99499 
0.122772 0.0393221 0.991656 
0.115743 0.0501629 0.992012 
0.111425 0.0596214 0.991983 
0.148519 0.0900702 0.984799 
0.154286 0.105263 0.982403 
0.195221 0.145873 0.96985 
0.190426 0.161178 0.96838 
0.236374 0.214155 0.947768 
0.291141 0.268816 0.918137 
0.295539 0.29898 0.907341 
0.347813 0.375205 0.859213 
0.4031 0.463367 0.789178 
0.388479 -0.459366 0.798791 
0.323054 -0.362522 0.874193 
0.263852 -0.284059 0.921788 
0.22911 -0.22205 0.947735 
0.192194 -0.167964 0.966876 
0.156368 -0.124576 0.979811 
0.160356 -0.108512 0.981076 
0.123984 -0.078937 0.989139 
0.125739 -0.0744074 0.989269 
0.095327 -0.053507 0.994007 
0.0967965 -0.0445151 0.994308 
0.101369 -0.0360122 0.994197 
0.0790252 -0.0232618 0.996601 
0.0862829 -0.0197758 0.996074 
0.0700437 -0.0111009 0.997482 
0.0816814 -0.00572509 0.996642 
0.069403 0.00300268 0.997584 
0.081221 0.00953483 0.996651 
0.0711701 0.0169656 0.99732 
0.0888998 0.0296954 0.995598 
0.0846888 0.0372472 0.995711 
0.0870905 0.0463536 0.995121 
0.119473 0.0732406 0.990132 
0.118794 0.0853562 0.989243 
0.152145 0.120097 0.981034 
0.150107 0.137596 0.979048 
0.186465 0.179429 0.965938 
0.22976 0.234813 0.944496 
0.267701 0.301197 0.915214 
0.321098 0.38843 0.863724 
0.376393 0.495896 0.78257 
0.357656 -0.469004 0.807538 
0.297905 -0.375394 0.877685 
0.242795 -0.293768 0.924527 
0.204503 -0.225168 0.952616 
0.176752 -0.181054 0.96746 
0.146621 -0.135492 0.979869 
0.120321 -0.0981032 0.987876 
0.119399 -0.0877805 0.988958 
0.0916753 -0.0637958 0.993743 
0.0920484 -0.0579456 0.994067 
0.069557 -0.0414991 0.996714 
0.0724981 -0.0339597 0.99679 
0.0758426 -0.029067 0.996696 
0.0567919 -0.0187006 0.998211 
0.061782 -0.0158708 0.997963 
0.0491837 -0.0096341 0.998743 
0.0593565 -0.00347117 0.998231 
0.0499144 0.00244417 0.998751 
0.0598641 0.00902494 0.998166 
0.0515758 0.0134902 0.998578 
0.0649984 0.0222242 0.997638 
0.0627897 0.0274626 0.997649 
0.0636213 0.0343824 0.997382 
0.0887553 0.0559621 0.99448 
0.0930906 0.0683342 0.99331 
0.118847 0.09725 0.988139 
0.116188 0.109774 0.987142 
0.144615 0.148045 0.97835 
0.178209 0.194766 0.964525 
0.212297 0.242768 0.946569 
0.252635 0.317825 0.913872 
0.302542 0.409345 0.860758 
0.360333 0.513934 0.778481 
0.315892 -0.483485 0.816367 
0.267192 -0.385366 0.883234 
0.219885 -0.301106 0.927893 
0.183163 -0.232844 0.95511 
0.154174 -0.182337 0.971073 
0.134505 -0.139598 0.98103 
0.111724 -0.108352 0.987815 
0.0839921 -0.0822523 0.993066 
0.0907131 -0.0688688 0.993493 
0.0646923 -0.0514633 0.996577 
0.071056 -0.046232 0.9964 
0.0534523 -0.0300096 0.998119 
0.054204 -0.0278858 0.99814 
0.0551058 -0.0213381 0.998252 
0.0403542 -0.0159697 0.999058 
0.0438632 -0.0138031 0.998942 
0.0352787 -0.0103122 0.999324 
0.0422153 -0.00415842 0.9991 
0.0354136 -0.00041148 0.999373 
0.0435156 0.00747941 0.999025 
0.0383199 0.00979968 0.999217 
0.0481338 0.0169408 0.998697 
0.0460979 0.0210167 0.998716 
0.048507 0.0288306 0.998407 
0.0694989 0.0467794 0.996485 
0.0691618 0.0553914 0.996066 
0.0905713 0.0789738 0.992754 
0.0906928 0.0873111 0.992044 
0.109682 0.118285 0.986903 
0.135315 0.153118 0.9789 
0.163108 0.199331 0.966262 
0.196732 0.255302 0.946635 
0.235609 0.329428 0.914312 
0.282371 0.420913 0.862032 
0.333212 0.524806 0.783293 
0.277177 -0.500735 0.820023 
0.234217 -0.396591 0.887613 
0.194572 -0.309592 0.930749 
0.160421 -0.239846 0.957465 
0.135941 -0.182345 0.973792 
0.117939 -0.141537 0.982882 
0.0959519 -0.111937 0.989072 
0.0803439 -0.0831106 0.993296 
0.0632239 -0.0610521 0.99613 
0.0512724 -0.0416584 0.997815 
0.0499609 -0.0352368 0.998129 
0.040976 -0.0254886 0.998835 
0.038317 -0.0185187 0.999094 
0.0403513 -0.0187613 0.999009 
0.0293894 -0.0137247 0.999474 
0.0315998 -0.0130037 0.999416 
0.0266161 -0.00991883 0.999597 
0.0298269 -0.0073848 0.999528 
0.0246036 -0.00415792 0.999689 
0.031001 0.0027113 0.999516 
0.0282279 0.00902188 0.999561 
0.0358476 0.0142872 0.999255 
0.0347082 0.0173764 0.999246 
0.0335223 0.0232348 0.999168 
0.0479918 0.0355668 0.998214 
0.0521173 0.0465072 0.997557 
0.0663807 0.0639614 0.995742 
0.0794302 0.087245 0.993015 
0.0982915 0.117995 0.988138 
0.120486 0.155086 0.980526 
0.147128 0.20098 0.968484 
0.178534 0.261651 0.948506 
0.215576 0.335421 0.917071 
0.260005 0.42726 0.865937 
0.312026 0.535693 0.784648 
0.234076 -0.517051 0.823327 
0.201863 -0.409058 0.8899 
0.168242 -0.320748 0.932103 
0.138826 -0.246164 0.959235 
0.119929 -0.187982 0.974823 
0.0998922 -0.144478 0.984453 
0.0876056 -0.110244 0.990036 
0.0676426 -0.0888912 0.993742 
0.052585 -0.0684817 0.996266 
0.0459971 -0.0477311 0.997801 
0.0354144 -0.0351501 0.998754 
0.0427153 -0.0282011 0.998689 
0.0277184 -0.0155078 0.999495 
0.0313371 -0.0212284 0.999283 
0.0275505 -0.014317 0.999518 
0.0213871 -0.00964491 0.999725 
0.0248121 -0.00972963 0.999645 
0.0214683 -0.00650952 0.999748 
0.0226985 -0.00777287 0.999712 
0.0176735 -0.00642079 0.999823 
0.0224296 0.000787672 0.999748 
0.0225635 0.00408723 0.999737 
0.028545 0.0104436 0.999538 
0.0262581 0.0190399 0.999474 
0.02568 0.0164878 0.999534 
0.0357208 0.0323088 0.998839 
0.0324102 0.0331543 0.998925 
0.0474467 0.0493775 0.997653 
0.0592084 0.065695 0.996082 
0.0700621 0.088858 0.993577 
0.0863097 0.11765 0.989297 
0.105987 0.157039 0.981889 
0.131612 0.203871 0.970111 
0.159482 0.263519 0.95138 
0.195344 0.337993 0.920653 
0.238244 0.429087 0.871277 
0.286446 0.535027 0.794792 
0.191256 -0.541365 0.818746 
0.169451 -0.424904 0.889237 
0.139746 -0.330335 0.933461 
0.121344 -0.255385 0.959195 
0.0973585 -0.19525 0.975909 
0.0882514 -0.144459 0.985567 
0.0711385 -0.110834 0.99129 
0.0579204 -0.0858218 0.994625 
0.0470245 -0.0644059 0.996815 
0.034894 -0.0508549 0.998096 
0.0329965 -0.0310945 0.998972 
0.0317393 -0.0218682 0.999257 
0.029374 -0.0278259 0.999181 
0.0176394 -0.0100537 0.999794 
0.0201989 -0.0146514 0.999689 
0.0158801 -0.00578382 0.999857 
0.0200032 -0.00420597 0.999791 
0.0179561 -0.000554579 0.999839 
0.0173947 -0.00587836 0.999831 
0.0124866 -0.00297456 0.999918 
0.0161219 -0.000780288 0.99987 
0.017271 0.0056095 0.999835 
0.0223521 0.0136084 0.999658 
0.024342 0.00499403 0.999691 
0.0187519 0.0206457 0.999611 
0.025553 0.0225988 0.999418 
0.0323177 0.0361083 0.998825 
0.0396945 0.0473762 0.998088 
0.0501749 0.0650916 0.996617 
0.0612604 0.087313 0.994296 
0.0741206 0.118821 0.990145 
0.0945602 0.155367 0.983321 
0.114635 0.206914 0.97162 
0.143972 0.263141 0.953954 
0.172247 0.339302 0.924773 
0.212216 0.431358 0.876867 
0.248459 0.544198 0.801322 
0.157623 -0.562314 0.811763 
0.136241 -0.440094 0.887556 
0.121585 -0.341257 0.932073 
0.093735 -0.264889 0.959712 
0.0850677 -0.199661 0.976165 
0.0680172 -0.150692 0.986238 
0.0585998 -0.109884 0.992215 
0.0476023 -0.080631 0.995607 
0.0347844 -0.0632617 0.997391 
0.0314937 -0.0445131 0.998512 
0.0238808 -0.0310112 0.999234 
0.0287059 -0.0257275 0.999257 
0.0181151 -0.0175185 0.999682 
0.0197538 -0.0078716 0.999774 
0.0137226 -0.0237139 0.999625 
0.0138052 -0.00919562 0.999862 
0.0108553 -0.00339846 0.999935 
0.015214 0.000707245 0.999884 
0.0117354 7.47865e-05 0.999931 
0.0127408 -0.00300556 0.999914 
0.00717042 -0.00447154 0.999964 
0.0114029 -0.00208183 0.999933 
0.0124676 0.0015307 0.999921 
0.020374 0.0028321 0.999788 
0.0152599 0.0150164 0.999771 
0.0207085 -0.00399684 0.999778 
0.016971 0.0178807 0.999696 
0.0221684 0.0207916 0.999538 
0.0277142 0.0331457 0.999066 
0.0362757 0.0468166 0.998245 
0.0433079 0.063046 0.997071 
0.0522246 0.0851257 0.995001 
0.0668294 0.116076 0.990989 
0.0816843 0.157919 0.984068 
0.104746 0.203142 0.97353 
0.122037 0.268136 0.95562 
0.154566 0.338329 0.928247 
0.182592 0.438017 0.880228 
0.218631 0.552583 0.804271 
0.125525 -0.578868 0.805702 
0.117489 -0.454897 0.88276 
0.0896281 -0.3574 0.929641 
0.0833812 -0.272661 0.95849 
0.0645189 -0.213052 0.974908 
0.0551483 -0.158543 0.985811 
0.0465866 -0.115962 0.99216 
0.0361003 -0.0844723 0.995772 
0.0314797 -0.0603991 0.997678 
0.0230174 -0.0438073 0.998775 
0.022782 -0.0316639 0.999239 
0.0177061 -0.0187334 0.999668 
0.0217597 -0.0166201 0.999625 
0.0107744 -0.0205974 0.99973 
0.0101486 -0.00738098 0.999921 
0.0086804 -0.00932746 0.999919 
0.00793091 -0.00445944 0.999959 
0.0117241 0.000199841 0.999931 
0.0088285 -0.00117823 0.99996 
0.00820681 -0.00104191 0.999966 
0.0038722 -0.00110768 0.999992 
0.00708551 0.000285759 0.999975 
0.00881983 -0.000971229 0.999961 
0.0138186 0.00203136 0.999902 
0.0133828 -0.00204273 0.999908 
0.00938435 0.0113227 0.999892 
0.0171309 0.00614395 0.999834 
0.0203563 0.0224785 0.99954 
0.0263865 0.0323924 0.999127 
0.0308156 0.0452357 0.998501 
0.0375609 0.0616216 0.997393 
0.0462284 0.0861351 0.99521 
0.0579969 0.117351 0.991396 
0.0738287 0.158293 0.984628 
0.0874519 0.210599 0.973653 
0.109804 0.266491 0.957562 
0.124102 0.352554 0.927526 
0.161174 0.439401 0.883713 
0.183882 0.554446 0.811651 
0.101457 -0.595183 0.79716 
0.0863022 -0.486061 0.869653 
0.0825841 -0.376657 0.922664 
0.0627291 -0.296467 0.952981 
0.0532271 -0.225967 0.97268 
0.045279 -0.172788 0.983918 
0.0353423 -0.128717 0.991051 
0.0306915 -0.0916671 0.995317 
0.0247932 -0.0654396 0.997548 
0.0221015 -0.0481355 0.998596 
0.01782 -0.0331925 0.99929 
0.0162306 -0.0235041 0.999592 
0.0127204 -0.0165668 0.999782 
0.0111703 -0.00949264 0.999893 
0.00849516 -0.0108355 0.999905 
0.0059902 -0.00906694 0.999941 
0.00813213 -0.00681683 0.999944 
0.00611901 -0.00425258 0.999972 
0.00533626 -0.00824341 0.999952 
0.00388277 -0.00557768 0.999977 
0.00292249 -0.00532841 0.999982 
0.00371417 -0.00373987 0.999986 
0.00550072 -0.000553234 0.999985 
0.00739261 -0.000648143 0.999972 
0.00684877 0.00017888 0.999977 
0.00966905 0.00169583 0.999952 
0.0127097 0.0133263 0.99983 
0.0193393 0.0207941 0.999597 
0.0219103 0.032769 0.999223 
0.0255228 0.045903 0.99862 
0.0299602 0.0632793 0.997546 
0.0387839 0.0886205 0.99531 
0.049551 0.123495 0.991107 
0.0616943 0.16385 0.984554 
0.0733704 0.217585 0.97328 
0.085837 0.286739 0.954156 
0.11129 0.35784 0.927127 
0.127442 0.465295 0.875934 
0.147918 0.558654 0.816104 
0.0826341 -0.602242 0.794025 
0.0726392 -0.456371 0.88682 
0.0494705 -0.341949 0.938415 
0.0478268 -0.253124 0.966251 
0.0360448 -0.192999 0.980537 
0.0295598 -0.142557 0.989345 
0.0234107 -0.102905 0.994416 
0.0202506 -0.0730746 0.997121 
0.0185897 -0.0521044 0.998469 
0.0161322 -0.0389902 0.999109 
0.0123502 -0.0276535 0.999541 
0.00973215 -0.0173153 0.999803 
0.00828698 -0.0115841 0.999899 
0.00621055 -0.00653427 0.999959 
0.00638112 -0.00517498 0.999966 
0.00790905 -0.00669266 0.999946 
0.00439545 -0.00772106 0.999961 
0.0091404 -0.00883198 0.999919 
0.00465414 -0.00687681 0.999966 
0.00403321 -0.00404033 0.999984 
0.00360981 -0.00331709 0.999988 
0.00436377 -0.00025793 0.99999 
0.00477191 -0.00434984 0.999979 
0.00459314 -0.001116 0.999989 
0.00358748 -0.000143513 0.999994 
0.00301143 0.00289194 0.999991 
0.00598488 0.00778886 0.999952 
0.0116554 0.0128869 0.999849 
0.014132 0.0232434 0.99963 
0.0154679 0.0332343 0.999328 
0.0165897 0.0471312 0.998751 
0.0222976 0.06829 0.997416 
0.0301005 0.0950327 0.995019 
0.039031 0.130828 0.990636 
0.0472772 0.179188 0.982678 
0.0597005 0.235317 0.970083 
0.0690007 0.324639 0.943318 
0.0995546 0.421431 0.90138 
0.120156 0.556937 0.821818 
0.05865 -0.604681 0.794306 
0.0455578 -0.491369 0.869759 
0.047263 -0.381839 0.92302 
0.035181 -0.288189 0.956927 
0.0290978 -0.215872 0.975988 
0.0243041 -0.159986 0.98682 
0.0168904 -0.116623 0.993033 
0.0139123 -0.0818943 0.996544 
0.0135416 -0.0583558 0.998204 
0.0131534 -0.0433722 0.998972 
0.0108263 -0.0320321 0.999428 
0.00757199 -0.022715 0.999713 
0.00539797 -0.0133431 0.999896 
0.00537743 -0.00627574 0.999966 
0.00691683 -0.00316699 0.999971 
0.00466092 -0.00290572 0.999985 
0.00923267 -0.00551495 0.999942 
0.00790784 -0.00767591 0.999939 
0.00581158 -0.00697939 0.999959 
0.00597265 -0.00795377 0.999951 
0.00788295 -0.00291387 0.999965 
0.00608032 -0.00219258 0.999979 
0.0051574 -0.000508663 0.999987 
0.00339216 -0.00111242 0.999994 
0.00240877 0.00422481 0.999988 
0.0037869 0.00686952 0.999969 
0.00578545 0.0113275 0.999919 
0.00873048 0.0171159 0.999815 
0.0082584 0.0249228 0.999655 
0.00783719 0.0372933 0.999274 
0.0101913 0.0531554 0.998534 
0.0149904 0.0757956 0.997011 
0.0217532 0.106083 0.994119 
0.0281287 0.143243 0.989288 
0.0328519 0.197273 0.979798 
0.0422027 0.264403 0.963488 
0.058246 0.344171 0.937098 
0.0687871 0.451036 0.889851 
0.082882 0.545492 0.834008 
0.037369 -0.606972 0.793844 
0.0358674 -0.458522 0.887959 
0.0182666 -0.339864 0.940297 
0.0221805 -0.249004 0.968248 
0.0160299 -0.182361 0.983101 
0.0107395 -0.132149 0.991172 
0.00675109 -0.09307 0.995637 
0.00615218 -0.064915 0.997872 
0.00833876 -0.0458105 0.998915 
0.00825517 -0.0337759 0.999395 
0.00551119 -0.0246189 0.999682 
0.00383843 -0.016681 0.999853 
0.004342 -0.00992246 0.999941 
0.00397219 -0.00353737 0.999986 
0.00591356 -0.00231541 0.99998 
0.00485199 -0.000998049 0.999988 
0.00357142 -0.00481935 0.999982 
0.00499119 -0.0024244 0.999985 
0.00521029 -0.00272311 0.999983 
0.00528243 9.88896e-05 0.999986 
0.00488495 -0.00428574 0.999979 
0.00594538 -0.00233544 0.99998 
0.00719203 -0.00519029 0.999961 
0.00381443 -0.00366421 0.999986 
0.00473078 0.00151489 0.999988 
0.00342001 0.00492314 0.999982 
0.0052699 0.00957325 0.99994 
0.00607939 0.0115993 0.999914 
0.00489978 0.0181831 0.999823 
0.00406421 0.02744 0.999615 
0.00303292 0.0414864 0.999134 
0.00603949 0.0614468 0.998092 
0.00995332 0.0854484 0.996293 
0.0121444 0.119049 0.992814 
0.0150496 0.16462 0.986242 
0.0202031 0.223277 0.974546 
0.0226899 0.308646 0.950906 
0.0396849 0.406247 0.912901 
0.0439619 0.543394 0.838326 
0.0230138 -0.601405 0.798613 
0.00544485 -0.488365 0.872622 
0.011761 -0.381409 0.924332 
0.00584922 -0.286017 0.958207 
0.0040807 -0.209923 0.97771 
0.00381761 -0.152173 0.988346 
-0.000471413 -0.109164 0.994024 
-0.000985522 -0.0766071 0.997061 
0.00162073 -0.0526606 0.998611 
0.00363064 -0.0362097 0.999338 
0.00328251 -0.0254711 0.99967 
0.00184423 -0.0194065 0.99981 
0.00129475 -0.0150259 0.999886 
0.00334723 -0.010074 0.999944 
0.00418965 -0.00496059 0.999979 
0.00276002 -0.00189586 0.999994 
0.00165782 -0.0031139 0.999994 
0.00251133 -0.000760719 0.999997 
-0.000168365 -0.00404358 0.999992 
0.00429404 -0.000921524 0.99999 
0.00736938 -0.0025888 0.999969 
0.00223466 -0.00629674 0.999978 
0.00457807 -0.00597957 0.999972 
0.00225588 -0.00474134 0.999986 
0.00432286 0.00155157 0.999989 
0.00494321 0.00408198 0.999979 
0.00448792 0.00746593 0.999962 
0.00449235 0.0114569 0.999924 
0.00137507 0.0195706 0.999808 
0.000688216 0.0333879 0.999442 
0.00188854 0.0501393 0.99874 
0.00239646 0.0721762 0.997389 
0.0021676 0.101109 0.994873 
0.000665668 0.138854 0.990313 
-0.00139501 0.192034 0.981387 
0.000750634 0.258589 0.965987 
0.00484353 0.339399 0.94063 
-0.000618653 0.439035 0.89847 
0.00813956 0.539477 0.841961 
-0.00743765 -0.590024 0.807351 
-0.00784282 -0.448125 0.893936 
-0.0167805 -0.335532 0.941879 
-0.0078831 -0.245163 0.96945 
-0.00793741 -0.177906 0.984015 
-0.00775526 -0.128851 0.991634 
-0.00721855 -0.0928163 0.995657 
-0.00507035 -0.065214 0.997858 
-0.00151578 -0.0434089 0.999056 
-0.000429724 -0.0276531 0.999617 
-0.00228184 -0.0201643 0.999794 
-0.00121284 -0.0170963 0.999853 
0.00157318 -0.0149723 0.999887 
0.00341995 -0.010242 0.999942 
0.00276322 -0.00530307 0.999982 
0.00126169 -0.00245167 0.999996 
-0.00170737 -0.00506559 0.999986 
0.000180742 -0.0040008 0.999992 
0.000834907 -0.00123003 0.999999 
0.00219824 -0.00520617 0.999984 
8.15432e-05 -0.00307644 0.999995 
0.000867375 -0.0053011 0.999986 
-0.000501311 -0.00761292 0.999971 
-0.00165704 -0.00771009 0.999969 