# vtk DataFile Version 3.0 
Exported using Morpho https://github.com/Morpho-lang/morpho 
ASCII 
DATASET UNSTRUCTURED_GRID 

POINTS 1245 float 
-0.303845 -0.952721 0 
-0.250833 -0.96803 0 
-0.195084 -0.980787 0 
-0.146308 -0.989239 0 
-0.0940719 -0.995565 0 
-0.0475118 -0.998871 0 
-0.000246339 -1 0 
0.0470875 -0.998891 0 
0.0937543 -0.995595 0 
0.146139 -0.989264 0 
0.195062 -0.980791 0 
0.250843 -0.968028 0 
0.303953 -0.952687 0 
-0.409153 -0.912466 0 
-0.356519 -0.934288 0 
-0.308871 -0.898929 0 
-0.258282 -0.916037 0 
-0.207345 -0.934859 0 
-0.154868 -0.930629 0 
-0.104343 -0.948989 0 
-0.0520099 -0.939193 0 
-8.5762e-05 -0.954582 0 
0.0518744 -0.939288 0 
0.104354 -0.949042 0 
0.154696 -0.9306 0 
0.207366 -0.934975 0 
0.258274 -0.916081 0 
0.308979 -0.898924 0 
0.356593 -0.93426 0 
0.409236 -0.912429 0 
-0.513788 -0.857917 0 
-0.461695 -0.887039 0 
-0.411157 -0.857936 0 
-0.359855 -0.879963 0 
-0.306888 -0.847481 0 
-0.254732 -0.866979 0 
-0.201991 -0.889059 0 
-0.149956 -0.874108 0 
-0.100608 -0.900088 0 
-0.0497575 -0.880388 0 
2.4595e-05 -0.904789 0 
0.0496869 -0.8804 0 
0.100612 -0.900177 0 
0.149872 -0.874171 0 
0.202071 -0.889165 0 
0.254695 -0.867031 0 
0.306946 -0.847482 0 
0.359894 -0.879943 0 
0.411236 -0.857929 0 
0.461748 -0.887011 0 
0.513842 -0.857885 0 
-0.564741 -0.825268 0 
-0.512908 -0.802945 0 
-0.462372 -0.832348 0 
-0.410124 -0.804631 0 
-0.358606 -0.827415 0 
-0.305781 -0.795641 0 
-0.25358 -0.816639 0 
-0.200756 -0.839997 0 
-0.149043 -0.818944 0 
-0.0987265 -0.846667 0 
-0.0490473 -0.822548 0 
5.00659e-05 -0.849932 0 
0.0490834 -0.822542 0 
0.0987838 -0.846676 0 
0.148997 -0.818924 0 
0.200826 -0.840131 0 
0.253508 -0.816728 0 
0.305831 -0.795701 0 
0.358581 -0.827419 0 
0.410181 -0.804654 0 
0.462414 -0.83234 0 
0.512965 -0.802929 0 
0.564777 -0.825243 0 
-0.660798 -0.750564 0 
-0.614015 -0.789295 0 
-0.561786 -0.769772 0 
-0.510673 -0.747856 0 
-0.460836 -0.778365 0 
-0.408794 -0.751554 0 
-0.357337 -0.774971 0 
-0.304815 -0.743684 0 
-0.252907 -0.765535 0 
-0.200631 -0.789263 0 
-0.149244 -0.764328 0 
-0.0986912 -0.791935 0 
-0.0492815 -0.765764 0 
4.16586e-05 -0.79382 0 
0.0492411 -0.765708 0 
0.0987508 -0.791951 0 
0.149196 -0.764326 0 
0.200666 -0.789356 0 
0.252841 -0.765599 0 
0.304862 -0.743741 0 
0.357323 -0.775038 0 
0.408863 -0.751626 0 
0.460863 -0.778382 0 
0.510716 -0.747859 0 
0.561819 -0.769761 0 
0.614041 -0.789274 0 
0.660811 -0.750552 0 
-0.707107 -0.707107 0 
-0.654819 -0.699058 0 
-0.60813 -0.73348 0 
-0.558104 -0.71337 0 
-0.509495 -0.692659 0 
-0.45935 -0.724356 0 
-0.407328 -0.698865 0 
-0.355968 -0.722823 0 
-0.303722 -0.691387 0 
-0.252254 -0.71362 0 
-0.20067 -0.737336 0 
-0.149608 -0.710068 0 
-0.0991558 -0.737129 0 
-0.0495872 -0.709825 0 
-2.23646e-05 -0.737917 0 
0.0494408 -0.709766 0 
0.0991291 -0.737116 0 
0.149502 -0.710042 0 
0.200696 -0.73743 0 
0.252186 -0.713735 0 
0.303753 -0.691518 0 
0.355952 -0.722893 0 
0.407371 -0.698945 0 
0.459374 -0.724407 0 
0.509524 -0.692668 0 
0.558131 -0.713361 0 
0.608151 -0.733462 0 
0.654824 -0.699048 0 
0.707107 -0.707107 0 
-0.750564 -0.660798 0 
-0.699058 -0.654819 0 
-0.647692 -0.647692 0 
-0.603437 -0.675718 0 
-0.55905 -0.655305 0 
-0.508501 -0.639581 0 
-0.457509 -0.671321 0 
-0.405555 -0.646545 0 
-0.354417 -0.670703 0 
-0.302427 -0.639219 0 
-0.251503 -0.661417 0 
-0.20061 -0.684911 0 
-0.149717 -0.655943 0 
-0.0995004 -0.682466 0 
-0.0498216 -0.654561 0 
-5.02113e-05 -0.682664 0 
0.0496787 -0.654499 0 
0.0994374 -0.682501 0 
0.149603 -0.655909 0 
0.200573 -0.684972 0 
0.251388 -0.661524 0 
0.302407 -0.639359 0 
0.354397 -0.670836 0 
0.405575 -0.646641 0 
0.457525 -0.67138 0 
0.508497 -0.639623 0 
0.559063 -0.655324 0 
0.603436 -0.675715 0 
0.64769 -0.64769 0 
0.699048 -0.654824 0 
0.750552 -0.660811 0 
-0.789295 -0.614015 0 
-0.73348 -0.60813 0 
-0.675718 -0.603437 0 
-0.613088 -0.613088 0 
-0.55962 -0.604068 0 
-0.506189 -0.588854 0 
-0.455505 -0.618874 0 
-0.403019 -0.594688 0 
-0.352514 -0.618952 0 
-0.300977 -0.586897 0 
-0.250543 -0.608767 0 
-0.200257 -0.632053 0 
-0.150049 -0.601979 0 
-0.0998281 -0.628222 0 
-0.0500377 -0.599914 0 
-3.12334e-05 -0.628076 0 
0.0498927 -0.599835 0 
0.0997818 -0.628253 0 
0.149924 -0.601867 0 
0.200214 -0.632118 0 
0.250423 -0.608915 0 
0.30086 -0.587085 0 
0.352457 -0.619096 0 
0.402948 -0.594743 0 
0.455483 -0.618952 0 
0.506147 -0.588901 0 
0.55964 -0.604067 0 
0.613069 -0.613069 0 
0.675715 -0.603436 0 
0.733462 -0.608151 0 
0.789274 -0.614041 0 
-0.825268 -0.564741 0 
-0.769772 -0.561786 0 
-0.71337 -0.558104 0 
-0.655305 -0.55905 0 
-0.604068 -0.55962 0 
-0.551031 -0.551031 0 
-0.497922 -0.537596 0 
-0.451508 -0.567021 0 
-0.399773 -0.542431 0 
-0.350494 -0.567003 0 
-0.301574 -0.534146 0 
-0.250874 -0.555692 0 
-0.200542 -0.579013 0 
-0.150324 -0.548268 0 
-0.100169 -0.57443 0 
-0.0500152 -0.545912 0 
-3.29278e-05 -0.574268 0 
0.0499208 -0.545788 0 
0.100058 -0.574485 0 
0.150038 -0.548073 0 
0.200377 -0.579041 0 
0.250556 -0.55585 0 
0.301273 -0.534348 0 
0.350318 -0.567174 0 
0.399615 -0.542384 0 
0.451404 -0.5671 0 
0.497945 -0.537702 0 
0.551073 -0.551073 0 
0.604067 -0.55964 0 
0.655324 -0.559063 0 
0.713361 -0.558131 0 
0.769761 -0.561819 0 
0.825243 -0.564777 0 
-0.857917 -0.513788 0 
-0.802945 -0.512908 0 
-0.747856 -0.510673 0 
-0.692659 -0.509495 0 
-0.639581 -0.508501 0 
-0.588854 -0.506189 0 
-0.537596 -0.497922 0 
-0.486157 -0.486157 0 
-0.444928 -0.512952 0 
-0.401787 -0.486784 0 
-0.351685 -0.513639 0 
-0.299695 -0.48291 0 
-0.250032 -0.503 0 
-0.200501 -0.526165 0 
-0.149489 -0.495195 0 
-0.0999281 -0.521367 0 
-0.0499712 -0.492294 0 
4.64723e-05 -0.520999 0 
0.050147 -0.492108 0 
0.099934 -0.52133 0 
0.14957 -0.494692 0 
0.200133 -0.526255 0 
0.249839 -0.503309 0 
0.299839 -0.483005 0 
0.351514 -0.513798 0 
0.401881 -0.486608 0 
0.444935 -0.513054 0 
0.486228 -0.486228 0 
0.537702 -0.497945 0 
0.588901 -0.506147 0 
0.639623 -0.508497 0 
0.692668 -0.509524 0 
0.747859 -0.510716 0 
0.802929 -0.512965 0 
0.857885 -0.513842 0 
-0.887039 -0.461695 0 
-0.832348 -0.462372 0 
-0.778365 -0.460836 0 
-0.724356 -0.45935 0 
-0.671321 -0.457509 0 
-0.618874 -0.455505 0 
-0.567021 -0.451508 0 
-0.512952 -0.444928 0 
-0.450685 -0.450685 0 
-0.397667 -0.437543 0 
-0.348492 -0.462546 0 
-0.295416 -0.432968 0 
-0.247004 -0.450633 0 
-0.198702 -0.473818 0 
-0.150161 -0.441625 0 
-0.100085 -0.468395 0 
-0.0502271 -0.439281 0 
0.000144229 -0.468374 0 
0.0504178 -0.439106 0 
0.100428 -0.468348 0 
0.150697 -0.441105 0 
0.199103 -0.473881 0 
0.247983 -0.450921 0 
0.296569 -0.432268 0 
0.348831 -0.462562 0 
0.397506 -0.4368 0 
0.450637 -0.450637 0 
0.513054 -0.444935 0 
0.5671 -0.451404 0 
0.618952 -0.455483 0 
0.67138 -0.457525 0 
0.724407 -0.459374 0 
0.778382 -0.460863 0 
0.83234 -0.462414 0 
0.887011 -0.461748 0 
-0.912466 -0.409153 0 
-0.857936 -0.411157 0 
-0.804631 -0.410124 0 
-0.751554 -0.408794 0 
-0.698865 -0.407328 0 
-0.646545 -0.405555 0 
-0.594688 -0.403019 0 
-0.542431 -0.399773 0 
-0.486784 -0.401787 0 
-0.437543 -0.397667 0 
-0.387256 -0.387256 0 
-0.344215 -0.411459 0 
-0.30136 -0.381507 0 
-0.25021 -0.395692 0 
-0.200211 -0.419975 0 
-0.150955 -0.389014 0 
-0.100617 -0.416095 0 
-0.0503197 -0.386922 0 
-4.02994e-05 -0.416525 0 
0.05006 -0.386948 0 
0.100784 -0.416323 0 
0.150432 -0.388572 0 
0.200855 -0.420694 0 
0.25086 -0.396905 0 
0.301746 -0.379789 0 
0.344135 -0.410678 0 
0.385823 -0.385823 0 
0.4368 -0.397506 0 
0.486608 -0.401881 0 
0.542384 -0.399615 0 
0.594743 -0.402948 0 
0.646641 -0.405575 0 
0.698945 -0.407371 0 
0.751626 -0.408863 0 
0.804654 -0.410181 0 
0.857929 -0.411236 0 
0.912429 -0.409236 0 
-0.934288 -0.356519 0 
-0.879963 -0.359855 0 
-0.827415 -0.358606 0 
-0.774971 -0.357337 0 
-0.722823 -0.355968 0 
-0.670703 -0.354417 0 
-0.618952 -0.352514 0 
-0.567003 -0.350494 0 
-0.513639 -0.351685 0 
-0.462546 -0.348492 0 
-0.411459 -0.344215 0 
-0.351697 -0.351697 0 
-0.29839 -0.336232 0 
-0.249846 -0.342529 0 
-0.200971 -0.367271 0 
-0.149995 -0.337521 0 
-0.100435 -0.3646 0 
-0.0498692 -0.335025 0 
-6.88684e-05 -0.365025 0 
0.0495433 -0.334795 0 
0.0996798 -0.364834 0 
0.148162 -0.337172 0 
0.199644 -0.368939 0 
0.24763 -0.345582 0 
0.295348 -0.332889 0 
0.34978 -0.34978 0 
0.410678 -0.344135 0 
0.462562 -0.348831 0 
0.513798 -0.351514 0 
0.567174 -0.350318 0 
0.619096 -0.352457 0 
0.670836 -0.354397 0 
0.722893 -0.355952 0 
0.775038 -0.357323 0 
0.827419 -0.358581 0 
0.879943 -0.359894 0 
0.93426 -0.356593 0 
-0.952721 -0.303845 0 
-0.898929 -0.308871 0 
-0.847481 -0.306888 0 
-0.795641 -0.305781 0 
-0.743684 -0.304815 0 
-0.691387 -0.303722 0 
-0.639219 -0.302427 0 
-0.586897 -0.300977 0 
-0.534146 -0.301574 0 
-0.48291 -0.299695 0 
-0.432968 -0.295416 0 
-0.381507 -0.30136 0 
-0.336232 -0.29839 0 
-0.288184 -0.288184 0 
-0.242975 -0.290577 0 
-0.198059 -0.315051 0 
-0.148383 -0.285894 0 
-0.0994753 -0.313232 0 
-0.0507184 -0.283118 0 
-0.000202902 -0.313447 0 
0.0500077 -0.282824 0 
0.0988289 -0.312817 0 
0.148102 -0.28482 0 
0.195742 -0.317413 0 
0.240766 -0.295824 0 
0.285014 -0.285014 0 
0.332889 -0.295348 0 
0.379789 -0.301746 0 
0.432268 -0.296569 0 
0.483005 -0.299839 0 
0.534348 -0.301273 0 
0.587085 -0.30086 0 
0.639359 -0.302407 0 
0.691518 -0.303753 0 
0.743741 -0.304862 0 
0.795701 -0.305831 0 
0.847482 -0.306946 0 
0.898924 -0.308979 0 
0.952687 -0.303953 0 
-0.96803 -0.250833 0 
-0.916037 -0.258282 0 
-0.866979 -0.254732 0 
-0.816639 -0.25358 0 
-0.765535 -0.252907 0 
-0.71362 -0.252254 0 
-0.661417 -0.251503 0 
-0.608767 -0.250543 0 
-0.555692 -0.250874 0 
-0.503 -0.250032 0 
-0.450633 -0.247004 0 
-0.395692 -0.25021 0 
-0.342529 -0.249846 0 
-0.290577 -0.242975 0 
-0.239946 -0.239946 0 
-0.194478 -0.26004 0 
-0.151293 -0.23238 0 
-0.101048 -0.260904 0 
-0.0503938 -0.232537 0 
-0.000203281 -0.262984 0 
0.050638 -0.232316 0 
0.100942 -0.260855 0 
0.152412 -0.232597 0 
0.195768 -0.261421 0 
0.241873 -0.241873 0 
0.295824 -0.240766 0 
0.345582 -0.24763 0 
0.396905 -0.25086 0 
0.450921 -0.247983 0 
[...]
POINT_DATA 1245 
VECTORS vectors float
0.622077 -0.202223 0.75639 
0.630879 -0.173706 0.756187 
0.635533 -0.142932 0.758728 
0.63712 -0.115213 0.762105 
0.636797 -0.0835083 0.766496 
0.635674 -0.0550941 0.769989 
0.633949 -0.0270124 0.772903 
0.624547 0.00367982 0.780979 
0.61589 0.0381049 0.78691 
0.60714 0.08069 0.790487 
0.60002 0.120633 0.790837 
0.593035 0.16619 0.787839 
0.585878 0.207177 0.783469 
0.594852 -0.262268 0.759846 
0.60994 -0.23162 0.757843 
0.505474 -0.176415 0.844615 
0.516521 -0.152721 0.842545 
0.535372 -0.131256 0.834355 
0.504705 -0.0994203 0.857548 
0.531062 -0.0773328 0.843797 
0.49651 -0.0468587 0.866765 
0.523982 -0.0210124 0.85147 
0.486182 0.00985251 0.873802 
0.510234 0.0432617 0.858947 
0.477738 0.0753279 0.875267 
0.503111 0.11572 0.856439 
0.483921 0.147867 0.862529 
0.475549 0.180454 0.860982 
0.578486 0.245913 0.777741 
0.570164 0.282096 0.771579 
0.556696 -0.326895 0.763694 
0.577011 -0.294119 0.76194 
0.482894 -0.227949 0.84549 
0.495074 -0.201452 0.845174 
0.405636 -0.149005 0.901807 
0.417406 -0.128673 0.899564 
0.437892 -0.109435 0.892342 
0.392886 -0.0791835 0.916172 
0.428042 -0.0631415 0.90155 
0.381843 -0.0357548 0.923535 
0.420579 -0.0159191 0.907116 
0.373885 0.00940751 0.927427 
0.411396 0.0368605 0.910711 
0.372189 0.061081 0.926145 
0.411127 0.0968873 0.906415 
0.391226 0.124285 0.911864 
0.381619 0.151517 0.911816 
0.469613 0.212036 0.857032 
0.463518 0.242581 0.852236 
0.559806 0.315574 0.766179 
0.54631 0.346841 0.762395 
0.534532 -0.359882 0.764696 
0.452121 -0.283505 0.845702 
0.468645 -0.255516 0.845626 
0.3869 -0.194455 0.901386 
0.39644 -0.171242 0.901949 
0.322109 -0.125664 0.938325 
0.33294 -0.107794 0.936767 
0.351304 -0.0919756 0.931733 
0.305005 -0.0643507 0.950174 
0.335262 -0.0506102 0.940764 
0.292131 -0.0278764 0.955972 
0.326999 -0.0114462 0.944955 
0.286298 0.00907743 0.958098 
0.322425 0.0313165 0.946077 
0.28939 0.051332 0.955834 
0.330354 0.0820177 0.940287 
0.312458 0.104465 0.94417 
0.304204 0.127509 0.944034 
0.376726 0.178853 0.908895 
0.372026 0.205235 0.905249 
0.455466 0.271446 0.847861 
0.444176 0.298715 0.844676 
0.529132 0.376625 0.760377 
0.487431 -0.422079 0.764369 
0.511209 -0.392095 0.764805 
0.433314 -0.310792 0.845959 
0.361321 -0.242134 0.900455 
0.375343 -0.218295 0.900813 
0.307228 -0.164942 0.937233 
0.314944 -0.144597 0.938031 
0.254133 -0.105328 0.961417 
0.263517 -0.0906928 0.960382 
0.27803 -0.0765642 0.957516 
0.236283 -0.052755 0.970251 
0.259512 -0.0408742 0.964874 
0.223387 -0.0218735 0.974484 
0.251246 -0.0081428 0.967889 
0.219074 0.00856274 0.975671 
0.249987 0.0270399 0.967872 
0.224809 0.0432728 0.973442 
0.262046 0.0694952 0.96255 
0.248337 0.0880374 0.964665 
0.240497 0.106649 0.964773 
0.299868 0.150137 0.942093 
0.29623 0.172985 0.939321 
0.365243 0.230237 0.901991 
0.355268 0.25389 0.899625 
0.428917 0.324296 0.843127 
0.508393 0.405689 0.759574 
0.485154 0.43397 0.759142 
0.461158 -0.450326 0.764552 
0.401075 -0.367352 0.839161 
0.413031 -0.336321 0.846341 
0.344778 -0.26435 0.900692 
0.287009 -0.206621 0.935379 
0.298119 -0.185566 0.936317 
0.243367 -0.139743 0.959815 
0.248991 -0.122141 0.960773 
0.199837 -0.0887466 0.975802 
0.206723 -0.0755158 0.975481 
0.218119 -0.0639239 0.973826 
0.182619 -0.043259 0.982232 
0.200119 -0.0332427 0.979208 
0.170924 -0.0173526 0.985131 
0.19261 -0.00585889 0.981258 
0.167816 0.00787747 0.985787 
0.193171 0.0232565 0.980889 
0.174293 0.0365884 0.984014 
0.206347 0.058567 0.976725 
0.195494 0.073825 0.977922 
0.190236 0.0897204 0.97763 
0.238132 0.126335 0.962981 
0.235084 0.145892 0.960964 
0.290648 0.19471 0.936809 
0.282429 0.216076 0.934636 
0.341374 0.275411 0.898673 
0.410519 0.348383 0.842676 
0.399199 0.379196 0.834776 
0.458471 0.46261 0.758812 
0.43263 -0.475321 0.766095 
0.376809 -0.390408 0.839998 
0.325407 -0.316483 0.891038 
0.327138 -0.285409 0.900845 
0.272975 -0.227328 0.934776 
0.228615 -0.177359 0.957225 
0.236243 -0.157898 0.958779 
0.192071 -0.118573 0.974192 
0.196076 -0.102911 0.975174 
0.156372 -0.0743271 0.984898 
0.161803 -0.0634719 0.98478 
0.170289 -0.0532038 0.983957 
0.141001 -0.035804 0.989362 
0.154065 -0.0270806 0.987689 
0.130992 -0.0139465 0.991285 
0.147778 -0.00418493 0.989012 
0.128785 0.00704395 0.991648 
0.149115 0.0199168 0.988619 
0.135064 0.0308105 0.990358 
0.161734 0.0493909 0.985598 
0.153794 0.0620037 0.986156 
0.149291 0.0751988 0.98593 
0.18795 0.10609 0.976432 
0.186337 0.123312 0.974717 
0.230854 0.165049 0.958888 
0.22558 0.185041 0.95649 
0.270773 0.236849 0.933051 
0.32527 0.296173 0.898043 
0.32464 0.327798 0.887219 
0.375551 0.403271 0.834466 
0.430122 0.489775 0.758364 
0.402365 -0.496635 0.769062 
0.344718 -0.400654 0.848909 
0.292911 -0.317276 0.901964 
0.260309 -0.252671 0.931878 
0.220709 -0.19859 0.954908 
0.183011 -0.153063 0.971122 
0.1873 -0.134613 0.973035 
0.151474 -0.10066 0.983323 
0.154543 -0.0872836 0.984123 
0.12242 -0.0629738 0.990478 
0.12605 -0.0530979 0.990602 
0.132275 -0.0442644 0.990224 
0.108796 -0.0296718 0.993621 
0.11854 -0.0221885 0.992701 
0.100517 -0.0112692 0.994872 
0.113472 -0.00303524 0.993537 
0.0989444 0.00629286 0.995073 
0.115033 0.0170253 0.993216 
0.104565 0.0261308 0.994175 
0.12619 0.0415131 0.991137 
0.12033 0.0521505 0.991363 
0.117584 0.0634874 0.991031 
0.148948 0.0896999 0.984768 
0.147209 0.1044 0.98358 
0.183354 0.140445 0.972963 
0.181073 0.159645 0.970426 
0.219527 0.206823 0.953432 
0.259836 0.262688 0.929237 
0.293462 0.329228 0.89749 
0.345227 0.415015 0.841772 
0.401914 0.513635 0.758053 
0.368723 -0.516735 0.772676 
0.317825 -0.418488 0.850797 
0.270305 -0.332959 0.903368 
0.232962 -0.263395 0.936137 
0.204337 -0.213568 0.955319 
0.172648 -0.167306 0.970671 
0.14379 -0.128937 0.981173 
0.147346 -0.114537 0.982431 
0.118794 -0.0856243 0.98922 
0.121009 -0.0738386 0.989901 
0.0955904 -0.0537648 0.993968 
0.0979619 -0.0449269 0.994176 
0.102689 -0.0373493 0.994012 
0.0838078 -0.0248285 0.996173 
0.0913482 -0.0184568 0.995648 
0.0771443 -0.00922351 0.996977 
0.0873903 -0.00227378 0.996172 
0.0760413 0.00542199 0.99709 
0.088884 0.0145173 0.995936 
0.0808205 0.0220677 0.996484 
0.0983608 0.0351289 0.994531 
0.0940487 0.0441898 0.994586 
0.0921442 0.0541418 0.994273 
0.117018 0.0756982 0.990241 
0.116003 0.0884109 0.989306 
0.145045 0.118984 0.982245 
0.142718 0.134307 0.980609 
0.172599 0.174322 0.969444 
0.205084 0.222288 0.953168 
0.234654 0.273977 0.93267 
0.273182 0.345969 0.897595 
0.321378 0.434419 0.841425 
0.372735 0.535368 0.757924 
0.332326 -0.535971 0.776076 
0.28792 -0.434749 0.853285 
0.245964 -0.347248 0.904942 
0.210428 -0.275785 0.937903 
0.181127 -0.220184 0.958495 
0.156929 -0.176075 0.971788 
0.132934 -0.138678 0.981375 
0.111146 -0.10804 0.987914 
0.114456 -0.0961795 0.988761 
0.0922685 -0.0742788 0.99296 
0.0949429 -0.0638397 0.993434 
0.0747496 -0.0459073 0.996145 
0.0760888 -0.0382939 0.996365 
0.0796012 -0.0314224 0.996331 
0.0646581 -0.020893 0.997689 
0.0704571 -0.0153128 0.997397 
0.0592978 -0.00765602 0.998211 
0.067324 -0.00169089 0.99773 
0.0585074 0.00478241 0.998276 
0.068716 0.0124356 0.997559 
0.0625157 0.0186883 0.997869 
0.076618 0.0298341 0.996614 
0.0733916 0.0375318 0.996597 
0.0726513 0.0462999 0.996282 
0.0923818 0.0653437 0.993577 
0.0908123 0.0764138 0.992932 
0.112795 0.0999855 0.988575 
0.111366 0.111936 0.987455 
0.133446 0.144337 0.980489 
0.158407 0.183246 0.970221 
0.184019 0.229014 0.955871 
0.214663 0.286782 0.933636 
0.252091 0.360786 0.897933 
0.296113 0.45096 0.841993 
0.342849 0.554181 0.75851 
0.294062 -0.554762 0.77831 
0.255892 -0.449405 0.855894 
0.219154 -0.359473 0.907056 
0.186839 -0.285605 0.939958 
0.159582 -0.226316 0.960893 
0.136855 -0.179461 0.974199 
0.116682 -0.141815 0.982992 
0.099072 -0.109688 0.989016 
0.0872472 -0.0843264 0.992611 
0.0730408 -0.0643199 0.995253 
0.0741282 -0.0547057 0.995747 
0.0584112 -0.0393856 0.997515 
0.0587661 -0.0322312 0.997751 
0.0615115 -0.0265623 0.997753 
0.0496719 -0.0177588 0.998608 
0.0541875 -0.0129549 0.998447 
0.0455117 -0.00646118 0.998943 
0.0518538 -0.00139388 0.998654 
0.044964 0.00413741 0.99898 
0.0530243 0.0105392 0.998538 
0.0482102 0.0161925 0.998706 
0.0595481 0.0252364 0.997906 
0.0571697 0.0319052 0.997855 
0.0567868 0.0394194 0.997608 
0.0724368 0.0557116 0.995816 
0.0719958 0.0658934 0.995226 
0.0867928 0.0870591 0.992415 
0.0996154 0.113847 0.988492 
0.118865 0.146931 0.981979 
0.140112 0.186255 0.97246 
0.164654 0.234794 0.957998 
0.194186 0.296025 0.935233 
0.229198 0.37213 0.899438 
0.269495 0.463974 0.843861 
0.312034 0.569968 0.760113 
0.255432 -0.573126 0.77864 
0.223371 -0.463235 0.857624 
0.191527 -0.370431 0.908899 
0.163233 -0.29382 0.94182 
0.139315 -0.232644 0.962532 
0.118643 -0.183908 0.975757 
0.10174 -0.144867 0.984207 
0.0867774 -0.113941 0.98969 
0.0758442 -0.0890452 0.993136 
0.0662747 -0.0702037 0.995329 
0.0561394 -0.0546344 0.996927 
0.057781 -0.046994 0.997223 
0.0458491 -0.0354467 0.998319 
0.0451662 -0.0283877 0.998576 
0.0472953 -0.0230123 0.998616 
0.0381191 -0.0154484 0.999154 
0.0417941 -0.0111386 0.999064 
0.0348976 -0.00559925 0.999375 
0.0400477 -0.00110133 0.999197 
0.0345881 0.00340173 0.999396 
0.0410241 0.00922859 0.999116 
0.0371769 0.0136152 0.999216 
0.0461715 0.0218544 0.998694 
0.0443361 0.0278893 0.998627 
0.0447223 0.035208 0.998379 
0.0566703 0.0476012 0.997258 
0.0552375 0.0547012 0.996974 
0.066156 0.0718558 0.995219 
0.0769589 0.0914363 0.992833 
0.0888324 0.117336 0.989111 
0.104871 0.149514 0.983182 
0.123915 0.189709 0.97399 
0.146536 0.23985 0.959687 
0.173519 0.302588 0.937193 
0.205565 0.380367 0.901701 
0.242152 0.474055 0.846543 
0.28032 0.582957 0.762615 
0.218005 -0.590831 0.776784 
0.191756 -0.476859 0.857809 
0.164054 -0.38052 0.910105 
0.140101 -0.301807 0.943019 
0.118856 -0.238396 0.963868 
0.101508 -0.187635 0.97698 
0.0863378 -0.147819 0.985239 
0.0739907 -0.116076 0.990481 
0.0645903 -0.0907056 0.993781 
0.0555172 -0.0713977 0.995902 
0.0483486 -0.0554266 0.997291 
0.0438228 -0.0423722 0.99814 
0.0366195 -0.0316236 0.998829 
0.0343889 -0.0247461 0.999102 
0.0363697 -0.0200112 0.999138 
0.0293093 -0.0134167 0.99948 
0.0321216 -0.00962025 0.999438 
0.0267385 -0.0047624 0.999631 
0.0307583 -0.00102129 0.999526 
0.0264388 0.00312913 0.999646 
0.0315979 0.00778571 0.99947 
0.028586 0.0119208 0.99952 
0.0357209 0.0189429 0.999182 
0.0342789 0.0238706 0.999127 
0.0351382 0.0303381 0.998922 
0.0429189 0.042058 0.998193 
0.0485087 0.0561947 0.997241 
0.0566416 0.0726857 0.995745 
0.0661095 0.092969 0.993472 
0.077011 0.118718 0.989937 
0.0908989 0.151292 0.984301 
0.107861 0.191842 0.975481 
0.128143 0.243325 0.961443 
0.15257 0.307202 0.939335 
0.181156 0.386318 0.904401 
0.214466 0.481935 0.849554 
0.247955 0.593567 0.765634 
0.182886 -0.607222 0.773197 
0.161825 -0.490101 0.856512 
0.138618 -0.391865 0.90952 
0.11765 -0.310283 0.943336 
0.100312 -0.244375 0.964478 
0.0849834 -0.191849 0.977738 
0.0723857 -0.150209 0.986001 
0.0618227 -0.117241 0.991177 
0.0532446 -0.0918284 0.99435 
0.0463379 -0.0716793 0.996351 
0.0396243 -0.0560774 0.99764 
0.0363439 -0.0443702 0.998354 
0.0323153 -0.0351559 0.998859 
0.0278919 -0.0269984 0.999246 
0.0260509 -0.0213102 0.999433 
0.0275986 -0.0173752 0.999468 
0.0221639 -0.011749 0.999685 
0.0244963 -0.00839347 0.999665 
0.0201471 -0.00444916 0.999787 
0.0234927 -0.000992705 0.999724 
0.0200329 0.002352 0.999797 
0.0241407 0.00654511 0.999687 
0.0217207 0.0101558 0.999712 
0.0273852 0.0158442 0.999499 
0.0262678 0.020355 0.999448 
0.0270838 0.0257716 0.999301 
0.0315966 0.0340103 0.998922 
0.0363591 0.0439465 0.998372 
0.0406426 0.0564344 0.997579 
0.0476361 0.0726309 0.996221 
0.0557606 0.0930205 0.994102 
0.0651822 0.11887 0.990768 
0.0776833 0.152043 0.985316 
0.0924 0.193813 0.976677 
0.110486 0.246179 0.962906 
0.131756 0.311688 0.941005 
0.157351 0.391941 0.906434 
0.186778 0.488738 0.852203 
0.215275 0.601931 0.768983 
0.150401 -0.621191 0.769091 
0.13506 -0.505205 0.852366 
0.114563 -0.406851 0.906282 
0.0977613 -0.323365 0.941211 
0.0830844 -0.255372 0.963266 
0.0704574 -0.199904 0.977279 
0.0599425 -0.156118 0.985918 
0.0507883 -0.121526 0.991288 
0.0438947 -0.0943078 0.994575 
0.0374914 -0.0731154 0.996619 
0.0323052 -0.0565827 0.997875 
0.0285979 -0.0433063 0.998652 
0.0253382 -0.0332384 0.999126 
0.0218091 -0.0251353 0.999446 
0.0195922 -0.0189881 0.999628 
0.0204652 -0.0151301 0.999676 
0.0164669 -0.0107827 0.999806 
0.0185637 -0.00761769 0.999799 
0.0152561 -0.00384227 0.999876 
0.0178579 -0.000768537 0.99984 
0.0150826 0.00244503 0.999883 
0.0182384 0.00617825 0.999815 
0.0163695 0.00933472 0.999822 
0.0203317 0.0141367 0.999693 
0.0197233 0.0181117 0.999641 
0.0217739 0.0248435 0.999454 
0.0253317 0.0331773 0.999128 
0.0293769 0.0434464 0.998624 
0.0334963 0.0566708 0.997831 
0.0392976 0.0733855 0.996529 
0.046326 0.0945455 0.994442 
0.0548526 0.121729 0.991047 
0.0652831 0.155879 0.985617 
0.0782556 0.199187 0.976832 
0.0935785 0.253284 0.962855 
0.112035 0.319766 0.94085 
0.133522 0.400884 0.906346 
0.159912 0.496468 0.853198 
0.182097 0.607726 0.772987 
0.117834 -0.631534 0.766342 
0.110623 -0.529039 0.841356 
0.0933474 -0.431174 0.897427 
0.0794881 -0.345115 0.935188 
0.0673826 -0.272095 0.959908 
0.0572676 -0.212921 0.97539 
0.0484587 -0.165763 0.984974 
0.0412392 -0.128488 0.990853 
0.0351586 -0.0994387 0.994422 
0.0302712 -0.0769786 0.996573 
0.0259175 -0.0593503 0.997901 
0.0227391 -0.0455799 0.998702 
0.0200976 -0.0350219 0.999184 
0.0176087 -0.0265826 0.999492 
0.0154911 -0.0197396 0.999685 
0.0145593 -0.0141783 0.999793 
0.0123496 -0.00972783 0.999876 
0.0135521 -0.00676555 0.999885 
0.0110878 -0.00357503 0.999932 
0.0133164 -0.00100655 0.999911 
0.0111028 0.0016218 0.999937 
0.0136217 0.0049997 0.999895 
0.0121709 0.00841434 0.999891 
0.0147329 0.0130405 0.999806 
0.0156074 0.0188105 0.999701 
0.0176249 0.0259706 0.999507 
0.0204059 0.034464 0.999198 
0.023631 0.0452276 0.998697 
0.0271474 0.058857 0.997897 
0.0321037 0.0763819 0.996562 
0.0378426 0.0985342 0.994414 
0.0449778 0.127025 0.990879 
0.0539142 0.163381 0.985089 
0.0645529 0.208889 0.975807 
0.0774524 0.266081 0.960834 
0.0927856 0.335889 0.93732 
0.11108 0.418553 0.901374 
0.133607 0.513128 0.847849 
0.145078 0.610054 0.778965 
0.0901689 -0.637856 0.764859 
0.0800442 -0.502799 0.860689 
0.0645146 -0.390454 0.918359 
0.0535852 -0.30203 0.951791 
0.0448465 -0.233271 0.971377 
0.0377329 -0.179662 0.983005 
0.031802 -0.13825 0.989887 
0.027024 -0.106315 0.993965 
0.0231322 -0.0816565 0.996392 
0.0197438 -0.0627663 0.997833 
0.0171984 -0.0480956 0.998695 
0.0151816 -0.0368308 0.999206 
0.0133733 -0.028247 0.999512 
0.0117982 -0.0213881 0.999702 
0.0109789 -0.0159268 0.999813 
0.00999488 -0.0118976 0.999879 
0.00814663 -0.00817794 0.999933 
0.010049 -0.00606453 0.999931 
0.00756153 -0.00337491 0.999966 
0.00946957 -0.000645189 0.999955 
0.00760063 0.00182061 0.999969 
0.00984755 0.0045856 0.999941 
0.00850639 0.00652337 0.999943 
0.00999272 0.0104474 0.999895 
0.011074 0.0146557 0.999831 
0.0119029 0.0200489 0.999728 
0.0134176 0.0270516 0.999544 
0.0155884 0.0358006 0.999237 
0.0179975 0.0470347 0.998731 
0.0209598 0.0615431 0.997884 
0.0246752 0.0801208 0.99648 
0.0294437 0.104241 0.994116 
0.0350853 0.135007 0.990223 
0.0421965 0.174785 0.983702 
0.0510311 0.22583 0.972829 
0.0619282 0.290907 0.954745 
0.0759569 0.375046 0.923889 
0.0960906 0.481573 0.871122 
0.110597 0.610671 0.784123 
0.0599381 -0.642176 0.76421 
0.0574146 -0.533983 0.843544 
0.0477383 -0.429864 0.901631 
0.0388968 -0.335828 0.94112 
0.0322717 -0.259194 0.965286 
0.0269605 -0.199109 0.979606 
0.0225942 -0.152706 0.988013 
0.0191219 -0.117061 0.992941 
0.016255 -0.0897941 0.995828 
0.0138812 -0.0689889 0.997521 
0.0120463 -0.0528648 0.998529 
0.0105612 -0.0405844 0.99912 
0.00927801 -0.0310899 0.999474 
0.00825107 -0.0237012 0.999685 
0.00764358 -0.0178376 0.999812 
0.00663211 -0.0131979 0.999891 
0.0062769 -0.00962212 0.999934 
0.00618418 -0.00602664 0.999963 
0.00497085 -0.00338696 0.999982 
0.00671066 -0.00106165 0.999977 
0.00508773 0.0014955 0.999986 
0.00608598 0.00436622 0.999972 
0.00607844 0.00812398 0.999949 
0.00692407 0.0117416 0.999907 
0.00763711 0.0164774 0.999835 
0.00840698 0.0223566 0.999715 
0.00950012 0.0299504 0.999506 
0.0111153 0.039429 0.999161 
0.0127251 0.0515421 0.99859 
0.0148623 0.0674007 0.997615 
0.0175868 0.087571 0.996003 
0.0207616 0.113847 0.993281 
0.0249101 0.147939 0.988683 
0.0299426 0.191779 0.980981 
0.0361889 0.248508 0.967954 
0.0442125 0.320482 0.946222 
0.0548516 0.408647 0.911043 
0.0676687 0.508139 0.858613 
0.070255 0.610529 0.788872 
0.0336446 -0.644666 0.763724 
0.0304711 -0.503216 0.863623 
0.023304 -0.386518 0.921987 
0.0189371 -0.29496 0.955322 
0.015316 -0.224717 0.974304 
0.0127202 -0.171323 0.985133 
0.0105973 -0.130669 0.991369 
0.00892639 -0.0997995 0.994968 
0.00763082 -0.0762538 0.997059 
0.00655102 -0.0582759 0.998279 
0.00569247 -0.0445166 0.998992 
0.0050997 -0.0339989 0.999409 
0.00452009 -0.0259035 0.999654 
0.0040522 -0.0194807 0.999802 
0.00389239 -0.0147791 0.999883 
0.00329075 -0.0106091 0.999938 
0.00329431 -0.00760557 0.999966 
0.00317088 -0.00484339 0.999983 
0.00270453 -0.00223639 0.999994 
0.00363855 -0.000802779 0.999993 
0.00256058 0.000691346 0.999996 
0.00311932 0.0032821 0.99999 
0.00356837 0.00572748 0.999977 
0.00335526 0.00919536 0.999952 
0.00395081 0.0131562 0.999906 
0.00416826 0.0180935 0.999828 
0.00468511 0.024569 0.999687 
0.00535406 0.0326429 0.999453 
0.00603367 0.0431812 0.999049 
0.00708424 0.0566091 0.998371 
0.00804213 0.0741374 0.997216 
0.0095159 0.0969545 0.995243 
0.0111983 0.1264 0.991916 
0.0131999 0.164989 0.986207 
0.01589 0.21537 0.976403 
0.0193074 0.28098 0.959519 
0.0238167 0.367136 0.929862 
0.0310791 0.476345 0.878709 
0.0336414 0.611655 0.790409 
0.0086567 -0.646341 0.762999 
0.00578847 -0.535072 0.844786 
0.00456562 -0.429243 0.903178 
0.00286943 -0.333203 0.942851 
0.00187855 -0.255311 0.966857 
0.00138112 -0.194937 0.980815 
0.000941395 -0.148866 0.988857 
0.00077534 -0.113794 0.993504 
0.000640211 -0.0871248 0.996197 
0.000524159 -0.0667474 0.99777 
0.000527261 -0.0511496 0.998691 
0.000575553 -0.0392399 0.99923 
0.000480359 -0.0299946 0.99955 
0.000612521 -0.0228202 0.999739 
0.000604804 -0.0172585 0.999851 
0.000543596 -0.0128649 0.999917 
0.000606429 -0.0093534 0.999956 
0.000768537 -0.00621422 0.99998 
0.000286845 -0.00431538 0.999991 
0.000193896 -0.00123317 0.999999 
0.000661433 0.00202249 0.999998 
0.000636203 0.00479864 0.999988 
0.000784613 0.00751391 0.999971 
0.000646236 0.0112972 0.999936 
0.000737517 0.0158675 0.999874 
0.00072701 0.0213408 0.999772 
0.000614489 0.0287389 0.999587 
0.000799239 0.0378793 0.999282 
0.000613684 0.0496579 0.998766 
0.000598992 0.0650546 0.997882 
0.0005025 0.0847851 0.996399 
0.000184074 0.110502 0.993876 
-4.19295e-05 0.144109 0.989562 
-0.000452676 0.187679 0.98223 
-0.00105523 0.244619 0.969619 
-0.001606 0.317646 0.948208 
-0.00204391 0.407413 0.913242 
-0.00289525 0.50765 0.861558 
-0.00282789 0.61403 0.789278 
-0.0181422 -0.640097 0.76808 
-0.0197747 -0.499361 0.866168 
-0.0171093 -0.38401 0.92317 
-0.0142976 -0.293135 0.955964 
-0.0123838 -0.223527 0.974619 
-0.0105219 -0.17049 0.985303 
-0.00895497 -0.130131 0.991456 
-0.00764947 -0.0993867 0.995019 
-0.00645173 -0.0759856 0.997088 
-0.00545743 -0.0580149 0.998301 
-0.00477045 -0.044364 0.999004 
-0.00394725 -0.033878 0.999418 
-0.00336484 -0.0257602 0.999662 
-0.00299405 -0.019428 0.999807 
-0.00263515 -0.0146291 0.99989 
-0.00211669 -0.0106263 0.999941 
-0.00226008 -0.00763051 0.999968 
-0.00187863 -0.00490362 0.999986 
-0.000607407 -0.00210174 0.999998 
-0.00277338 -0.00111462 0.999996 
-0.000768854 0.000808795 0.999999 
-0.00185959 0.00317672 0.999993 
-0.00211032 0.00562339 0.999982 
-0.00206432 0.00910544 0.999956 
-0.0023645 0.0130809 0.999912 
-0.00299107 0.0179938 0.999834 
-0.00316107 0.0245369 0.999694 
-0.00390382 0.0325469 0.999463 
-0.00474732 0.043178 0.999056 