# vtk DataFile Version 3.0 
Exported using Morpho https://github.com/Morpho-lang/morpho 
ASCII 
DATASET UNSTRUCTURED_GRID 

POINTS 1245 float 
-0.303845 -0.952721 0 
-0.250833 -0.96803 0 
-0.195084 -0.980787 0 
-0.146308 -0.989239 0 
-0.0940719 -0.995565 0 
-0.0475118 -0.998871 0 
-0.000246339 -1 0 
0.0470875 -0.998891 0 
0.0937543 -0.995595 0 
0.146139 -0.989264 0 
0.195062 -0.980791 0 
0.250843 -0.968028 0 
0.303953 -0.952687 0 
-0.409153 -0.912466 0 
-0.356519 -0.934288 0 
-0.308871 -0.898929 0 
-0.258282 -0.916037 0 
-0.207345 -0.934859 0 
-0.154868 -0.930629 0 
-0.104343 -0.948989 0 
-0.0520099 -0.939193 0 
-8.5762e-05 -0.954582 0 
0.0518744 -0.939288 0 
0.104354 -0.949042 0 
0.154696 -0.9306 0 
0.207366 -0.934975 0 
0.258274 -0.916081 0 
0.308979 -0.898924 0 
0.356593 -0.93426 0 
0.409236 -0.912429 0 
-0.513788 -0.857917 0 
-0.461695 -0.887039 0 
-0.411157 -0.857936 0 
-0.359855 -0.879963 0 
-0.306888 -0.847481 0 
-0.254732 -0.866979 0 
-0.201991 -0.889059 0 
-0.149956 -0.874108 0 
-0.100608 -0.900088 0 
-0.0497575 -0.880388 0 
2.4595e-05 -0.904789 0 
0.0496869 -0.8804 0 
0.100612 -0.900177 0 
0.149872 -0.874171 0 
0.202071 -0.889165 0 
0.254695 -0.867031 0 
0.306946 -0.847482 0 
0.359894 -0.879943 0 
0.411236 -0.857929 0 
0.461748 -0.887011 0 
0.513842 -0.857885 0 
-0.564741 -0.825268 0 
-0.512908 -0.802945 0 
-0.462372 -0.832348 0 
-0.410124 -0.804631 0 
-0.358606 -0.827415 0 
-0.305781 -0.795641 0 
-0.25358 -0.816639 0 
-0.200756 -0.839997 0 
-0.149043 -0.818944 0 
-0.0987265 -0.846667 0 
-0.0490473 -0.822548 0 
5.00659e-05 -0.849932 0 
0.0490834 -0.822542 0 
0.0987838 -0.846676 0 
0.148997 -0.818924 0 
0.200826 -0.840131 0 
0.253508 -0.816728 0 
0.305831 -0.795701 0 
0.358581 -0.827419 0 
0.410181 -0.804654 0 
0.462414 -0.83234 0 
0.512965 -0.802929 0 
0.564777 -0.825243 0 
-0.660798 -0.750564 0 
-0.614015 -0.789295 0 
-0.561786 -0.769772 0 
-0.510673 -0.747856 0 
-0.460836 -0.778365 0 
-0.408794 -0.751554 0 
-0.357337 -0.774971 0 
-0.304815 -0.743684 0 
-0.252907 -0.765535 0 
-0.200631 -0.789263 0 
-0.149244 -0.764328 0 
-0.0986912 -0.791935 0 
-0.0492815 -0.765764 0 
4.16586e-05 -0.79382 0 
0.0492411 -0.765708 0 
0.0987508 -0.791951 0 
0.149196 -0.764326 0 
0.200666 -0.789356 0 
0.252841 -0.765599 0 
0.304862 -0.743741 0 
0.357323 -0.775038 0 
0.408863 -0.751626 0 
0.460863 -0.778382 0 
0.510716 -0.747859 0 
0.561819 -0.769761 0 
0.614041 -0.789274 0 
0.660811 -0.750552 0 
-0.707107 -0.707107 0 
-0.654819 -0.699058 0 
-0.60813 -0.73348 0 
-0.558104 -0.71337 0 
-0.509495 -0.692659 0 
-0.45935 -0.724356 0 
-0.407328 -0.698865 0 
-0.355968 -0.722823 0 
-0.303722 -0.691387 0 
-0.252254 -0.71362 0 
-0.20067 -0.737336 0 
-0.149608 -0.710068 0 
-0.0991558 -0.737129 0 
-0.0495872 -0.709825 0 
-2.23646e-05 -0.737917 0 
0.0494408 -0.709766 0 
0.0991291 -0.737116 0 
0.149502 -0.710042 0 
0.200696 -0.73743 0 
0.252186 -0.713735 0 
0.303753 -0.691518 0 
0.355952 -0.722893 0 
0.407371 -0.698945 0 
0.459374 -0.724407 0 
0.509524 -0.692668 0 
0.558131 -0.713361 0 
0.608151 -0.733462 0 
0.654824 -0.699048 0 
0.707107 -0.707107 0 
-0.750564 -0.660798 0 
-0.699058 -0.654819 0 
-0.647692 -0.647692 0 
-0.603437 -0.675718 0 
-0.55905 -0.655305 0 
-0.508501 -0.639581 0 
-0.457509 -0.671321 0 
-0.405555 -0.646545 0 
-0.354417 -0.670703 0 
-0.302427 -0.639219 0 
-0.251503 -0.661417 0 
-0.20061 -0.684911 0 
-0.149717 -0.655943 0 
-0.0995004 -0.682466 0 
-0.0498216 -0.654561 0 
-5.02113e-05 -0.682664 0 
0.0496787 -0.654499 0 
0.0994374 -0.682501 0 
0.149603 -0.655909 0 
0.200573 -0.684972 0 
0.251388 -0.661524 0 
0.302407 -0.639359 0 
0.354397 -0.670836 0 
0.405575 -0.646641 0 
0.457525 -0.67138 0 
0.508497 -0.639623 0 
0.559063 -0.655324 0 
0.603436 -0.675715 0 
0.64769 -0.64769 0 
0.699048 -0.654824 0 
0.750552 -0.660811 0 
-0.789295 -0.614015 0 
-0.73348 -0.60813 0 
-0.675718 -0.603437 0 
-0.613088 -0.613088 0 
-0.55962 -0.604068 0 
-0.506189 -0.588854 0 
-0.455505 -0.618874 0 
-0.403019 -0.594688 0 
-0.352514 -0.618952 0 
-0.300977 -0.586897 0 
-0.250543 -0.608767 0 
-0.200257 -0.632053 0 
-0.150049 -0.601979 0 
-0.0998281 -0.628222 0 
-0.0500377 -0.599914 0 
-3.12334e-05 -0.628076 0 
0.0498927 -0.599835 0 
0.0997818 -0.628253 0 
0.149924 -0.601867 0 
0.200214 -0.632118 0 
0.250423 -0.608915 0 
0.30086 -0.587085 0 
0.352457 -0.619096 0 
0.402948 -0.594743 0 
0.455483 -0.618952 0 
0.506147 -0.588901 0 
0.55964 -0.604067 0 
0.613069 -0.613069 0 
0.675715 -0.603436 0 
0.733462 -0.608151 0 
0.789274 -0.614041 0 
-0.825268 -0.564741 0 
-0.769772 -0.561786 0 
-0.71337 -0.558104 0 
-0.655305 -0.55905 0 
-0.604068 -0.55962 0 
-0.551031 -0.551031 0 
-0.497922 -0.537596 0 
-0.451508 -0.567021 0 
-0.399773 -0.542431 0 
-0.350494 -0.567003 0 
-0.301574 -0.534146 0 
-0.250874 -0.555692 0 
-0.200542 -0.579013 0 
-0.150324 -0.548268 0 
-0.100169 -0.57443 0 
-0.0500152 -0.545912 0 
-3.29278e-05 -0.574268 0 
0.0499208 -0.545788 0 
0.100058 -0.574485 0 
0.150038 -0.548073 0 
0.200377 -0.579041 0 
0.250556 -0.55585 0 
0.301273 -0.534348 0 
0.350318 -0.567174 0 
0.399615 -0.542384 0 
0.451404 -0.5671 0 
0.497945 -0.537702 0 
0.551073 -0.551073 0 
0.604067 -0.55964 0 
0.655324 -0.559063 0 
0.713361 -0.558131 0 
0.769761 -0.561819 0 
0.825243 -0.564777 0 
-0.857917 -0.513788 0 
-0.802945 -0.512908 0 
-0.747856 -0.510673 0 
-0.692659 -0.509495 0 
-0.639581 -0.508501 0 
-0.588854 -0.506189 0 
-0.537596 -0.497922 0 
-0.486157 -0.486157 0 
-0.444928 -0.512952 0 
-0.401787 -0.486784 0 
-0.351685 -0.513639 0 
-0.299695 -0.48291 0 
-0.250032 -0.503 0 
-0.200501 -0.526165 0 
-0.149489 -0.495195 0 
-0.0999281 -0.521367 0 
-0.0499712 -0.492294 0 
4.64723e-05 -0.520999 0 
0.050147 -0.492108 0 
0.099934 -0.52133 0 
0.14957 -0.494692 0 
0.200133 -0.526255 0 
0.249839 -0.503309 0 
0.299839 -0.483005 0 
0.351514 -0.513798 0 
0.401881 -0.486608 0 
0.444935 -0.513054 0 
0.486228 -0.486228 0 
0.537702 -0.497945 0 
0.588901 -0.506147 0 
0.639623 -0.508497 0 
0.692668 -0.509524 0 
0.747859 -0.510716 0 
0.802929 -0.512965 0 
0.857885 -0.513842 0 
-0.887039 -0.461695 0 
-0.832348 -0.462372 0 
-0.778365 -0.460836 0 
-0.724356 -0.45935 0 
-0.671321 -0.457509 0 
-0.618874 -0.455505 0 
-0.567021 -0.451508 0 
-0.512952 -0.444928 0 
-0.450685 -0.450685 0 
-0.397667 -0.437543 0 
-0.348492 -0.462546 0 
-0.295416 -0.432968 0 
-0.247004 -0.450633 0 
-0.198702 -0.473818 0 
-0.150161 -0.441625 0 
-0.100085 -0.468395 0 
-0.0502271 -0.439281 0 
0.000144229 -0.468374 0 
0.0504178 -0.439106 0 
0.100428 -0.468348 0 
0.150697 -0.441105 0 
0.199103 -0.473881 0 
0.247983 -0.450921 0 
0.296569 -0.432268 0 
0.348831 -0.462562 0 
0.397506 -0.4368 0 
0.450637 -0.450637 0 
0.513054 -0.444935 0 
0.5671 -0.451404 0 
0.618952 -0.455483 0 
0.67138 -0.457525 0 
0.724407 -0.459374 0 
0.778382 -0.460863 0 
0.83234 -0.462414 0 
0.887011 -0.461748 0 
-0.912466 -0.409153 0 
-0.857936 -0.411157 0 
-0.804631 -0.410124 0 
-0.751554 -0.408794 0 
-0.698865 -0.407328 0 
-0.646545 -0.405555 0 
-0.594688 -0.403019 0 
-0.542431 -0.399773 0 
-0.486784 -0.401787 0 
-0.437543 -0.397667 0 
-0.387256 -0.387256 0 
-0.344215 -0.411459 0 
-0.30136 -0.381507 0 
-0.25021 -0.395692 0 
-0.200211 -0.419975 0 
-0.150955 -0.389014 0 
-0.100617 -0.416095 0 
-0.0503197 -0.386922 0 
-4.02994e-05 -0.416525 0 
0.05006 -0.386948 0 
0.100784 -0.416323 0 
0.150432 -0.388572 0 
0.200855 -0.420694 0 
0.25086 -0.396905 0 
0.301746 -0.379789 0 
0.344135 -0.410678 0 
0.385823 -0.385823 0 
0.4368 -0.397506 0 
0.486608 -0.401881 0 
0.542384 -0.399615 0 
0.594743 -0.402948 0 
0.646641 -0.405575 0 
0.698945 -0.407371 0 
0.751626 -0.408863 0 
0.804654 -0.410181 0 
0.857929 -0.411236 0 
0.912429 -0.409236 0 
-0.934288 -0.356519 0 
-0.879963 -0.359855 0 
-0.827415 -0.358606 0 
-0.774971 -0.357337 0 
-0.722823 -0.355968 0 
-0.670703 -0.354417 0 
-0.618952 -0.352514 0 
-0.567003 -0.350494 0 
-0.513639 -0.351685 0 
-0.462546 -0.348492 0 
-0.411459 -0.344215 0 
-0.351697 -0.351697 0 
-0.29839 -0.336232 0 
-0.249846 -0.342529 0 
-0.200971 -0.367271 0 
-0.149995 -0.337521 0 
-0.100435 -0.3646 0 
-0.0498692 -0.335025 0 
-6.88684e-05 -0.365025 0 
0.0495433 -0.334795 0 
0.0996798 -0.364834 0 
0.148162 -0.337172 0 
0.199644 -0.368939 0 
0.24763 -0.345582 0 
0.295348 -0.332889 0 
0.34978 -0.34978 0 
0.410678 -0.344135 0 
0.462562 -0.348831 0 
0.513798 -0.351514 0 
0.567174 -0.350318 0 
0.619096 -0.352457 0 
0.670836 -0.354397 0 
0.722893 -0.355952 0 
0.775038 -0.357323 0 
0.827419 -0.358581 0 
0.879943 -0.359894 0 
0.93426 -0.356593 0 
-0.952721 -0.303845 0 
-0.898929 -0.308871 0 
-0.847481 -0.306888 0 
-0.795641 -0.305781 0 
-0.743684 -0.304815 0 
-0.691387 -0.303722 0 
-0.639219 -0.302427 0 
-0.586897 -0.300977 0 
-0.534146 -0.301574 0 
-0.48291 -0.299695 0 
-0.432968 -0.295416 0 
-0.381507 -0.30136 0 
-0.336232 -0.29839 0 
-0.288184 -0.288184 0 
-0.242975 -0.290577 0 
-0.198059 -0.315051 0 
-0.148383 -0.285894 0 
-0.0994753 -0.313232 0 
-0.0507184 -0.283118 0 
-0.000202902 -0.313447 0 
0.0500077 -0.282824 0 
0.0988289 -0.312817 0 
0.148102 -0.28482 0 
0.195742 -0.317413 0 
0.240766 -0.295824 0 
0.285014 -0.285014 0 
0.332889 -0.295348 0 
0.379789 -0.301746 0 
0.432268 -0.296569 0 
0.483005 -0.299839 0 
0.534348 -0.301273 0 
0.587085 -0.30086 0 
0.639359 -0.302407 0 
0.691518 -0.303753 0 
0.743741 -0.304862 0 
0.795701 -0.305831 0 
0.847482 -0.306946 0 
0.898924 -0.308979 0 
0.952687 -0.303953 0 
-0.96803 -0.250833 0 
-0.916037 -0.258282 0 
-0.866979 -0.254732 0 
-0.816639 -0.25358 0 
-0.765535 -0.252907 0 
-0.71362 -0.252254 0 
-0.661417 -0.251503 0 
-0.608767 -0.250543 0 
-0.555692 -0.250874 0 
-0.503 -0.250032 0 
-0.450633 -0.247004 0 
-0.395692 -0.25021 0 
-0.342529 -0.249846 0 
-0.290577 -0.242975 0 
-0.239946 -0.239946 0 
-0.194478 -0.26004 0 
-0.151293 -0.23238 0 
-0.101048 -0.260904 0 
-0.0503938 -0.232537 0 
-0.000203281 -0.262984 0 
0.050638 -0.232316 0 
0.100942 -0.260855 0 
0.152412 -0.232597 0 
0.195768 -0.261421 0 
0.241873 -0.241873 0 
0.295824 -0.240766 0 
0.345582 -0.24763 0 
0.396905 -0.25086 0 
0.450921 -0.247983 0 
[...]
POINT_DATA 1245 
VECTORS vectors float
0.627963 -0.202125 0.751537 
0.637392 -0.171888 0.751123 
0.642884 -0.13931 0.753189 
0.6454 -0.109871 0.755901 
0.646421 -0.0763891 0.759147 
0.646806 -0.0468426 0.761215 
0.646892 -0.0178143 0.762374 
0.639581 0.0128615 0.768616 
0.6328 0.0464042 0.772924 
0.625887 0.0870395 0.775042 
0.619724 0.12441 0.774896 
0.612574 0.166625 0.772651 
0.604012 0.205059 0.770143 
0.600166 -0.265439 0.754548 
0.615435 -0.233216 0.752894 
0.512327 -0.177257 0.840298 
0.523764 -0.15224 0.838149 
0.543286 -0.128836 0.829603 
0.513723 -0.0958908 0.852581 
0.541269 -0.0724453 0.837723 
0.508165 -0.04077 0.860294 
0.537739 -0.0139962 0.842995 
0.501383 0.0164155 0.86507 
0.527734 0.049883 0.847944 
0.495848 0.0798241 0.864733 
0.522099 0.118654 0.844591 
0.502232 0.148849 0.851826 
0.492147 0.179693 0.851764 
0.594299 0.242325 0.766869 
0.583143 0.278358 0.763191 
0.56228 -0.332363 0.757216 
0.582366 -0.298635 0.756087 
0.489199 -0.231678 0.840839 
0.501395 -0.20384 0.840864 
0.41281 -0.150653 0.898271 
0.42515 -0.128549 0.895948 
0.446425 -0.108212 0.888254 
0.402279 -0.0769629 0.912276 
0.438494 -0.0590717 0.896791 
0.393617 -0.0318174 0.918724 
0.433747 -0.0104355 0.900974 
0.38839 0.0142691 0.921385 
0.427444 0.0417148 0.903079 
0.388603 0.0650374 0.919107 
0.428706 0.0995942 0.897938 
0.407474 0.125573 0.904542 
0.396728 0.152338 0.905207 
0.484078 0.210706 0.849277 
0.475664 0.241417 0.84585 
0.570006 0.312947 0.759709 
0.554257 0.346147 0.756955 
0.540318 -0.365898 0.757743 
0.458438 -0.28927 0.840332 
0.474962 -0.260382 0.840602 
0.393538 -0.198523 0.897617 
0.403526 -0.174036 0.898264 
0.32949 -0.127494 0.935512 
0.340958 -0.108793 0.933762 
0.359737 -0.0910791 0.928598 
0.314292 -0.0630597 0.94723 
0.345507 -0.0479904 0.937188 
0.303101 -0.0249118 0.952633 
0.339459 -0.00756222 0.94059 
0.299173 0.0125958 0.954116 
0.336951 0.0352637 0.940861 
0.303769 0.0543763 0.951193 
0.345739 0.0847427 0.934496 
0.327298 0.106517 0.938898 
0.317064 0.128702 0.939631 
0.389808 0.179054 0.903321 
0.383094 0.205833 0.900484 
0.465331 0.271255 0.842549 
0.452314 0.300011 0.839884 
0.535642 0.378067 0.755085 
0.492683 -0.428723 0.757272 
0.516927 -0.398425 0.757657 
0.439565 -0.317164 0.840351 
0.36797 -0.248026 0.896148 
0.382004 -0.223375 0.896759 
0.314278 -0.169197 0.934131 
0.321931 -0.147859 0.935146 
0.261632 -0.107935 0.959113 
0.271107 -0.0916502 0.958176 
0.286492 -0.0767972 0.955 
0.244983 -0.0521341 0.968125 
0.269294 -0.0392521 0.962258 
0.233449 -0.0199774 0.972164 
0.262686 -0.00538299 0.964866 
0.230524 0.0112466 0.973002 
0.262923 0.0301176 0.964347 
0.237235 0.0460344 0.970361 
0.275766 0.071971 0.958526 
0.260671 0.0901058 0.961213 
0.252493 0.108994 0.96144 
0.311696 0.151728 0.93799 
0.306431 0.174861 0.935694 
0.374702 0.231705 0.897725 
0.363345 0.25654 0.895638 
0.43604 0.327089 0.838381 
0.51432 0.408883 0.75385 
0.491018 0.438149 0.752946 
0.46552 -0.457593 0.757562 
0.406472 -0.374816 0.833243 
0.418997 -0.343126 0.840658 
0.351196 -0.271051 0.89621 
0.29335 -0.212724 0.932038 
0.304764 -0.190857 0.933109 
0.249956 -0.144209 0.957458 
0.255959 -0.125484 0.958508 
0.20665 -0.0911481 0.97416 
0.214335 -0.0774347 0.973686 
0.226168 -0.0643999 0.971957 
0.190896 -0.0434167 0.98065 
0.209178 -0.0322501 0.977346 
0.180136 -0.0161424 0.983509 
0.202842 -0.0037907 0.979204 
0.178019 0.00993778 0.983977 
0.204465 0.0257923 0.978534 
0.185236 0.0390018 0.98192 
0.218196 0.0611162 0.973989 
0.206771 0.0762821 0.975411 
0.199898 0.092064 0.975482 
0.248213 0.128428 0.960154 
0.244284 0.148617 0.958248 
0.29937 0.197376 0.933499 
0.290125 0.219555 0.931463 
0.348585 0.279306 0.894694 
0.417032 0.352301 0.837835 
0.405489 0.383752 0.829647 
0.464253 0.466991 0.752588 
0.435936 -0.483728 0.758925 
0.381392 -0.398856 0.833939 
0.330772 -0.324476 0.886174 
0.333131 -0.292898 0.896233 
0.278975 -0.234039 0.931342 
0.234978 -0.183764 0.954472 
0.242895 -0.16321 0.956224 
0.198618 -0.12315 0.972309 
0.20299 -0.106705 0.973349 
0.163256 -0.0775027 0.983535 
0.168841 -0.0652515 0.983481 
0.177779 -0.0541966 0.982577 
0.148579 -0.0361536 0.98824 
0.162297 -0.0266537 0.986382 
0.139239 -0.0131157 0.990172 
0.156874 -0.00269991 0.987615 
0.137719 0.00879313 0.990432 
0.158944 0.0220765 0.987041 
0.144518 0.0331518 0.988947 
0.171956 0.0518037 0.983742 
0.163298 0.0646472 0.984456 
0.158512 0.0782292 0.984253 
0.197534 0.109121 0.974204 
0.194455 0.126682 0.972697 
0.238976 0.168464 0.9563 
0.232765 0.189518 0.953889 
0.277445 0.240969 0.930031 
0.331989 0.300966 0.893981 
0.330472 0.332947 0.883139 
0.381302 0.408149 0.829472 
0.435318 0.493947 0.752672 
0.404872 -0.506571 0.761225 
0.348638 -0.410278 0.842688 
0.297935 -0.326041 0.89718 
0.265833 -0.260662 0.92811 
0.226531 -0.205919 0.951988 
0.188814 -0.159312 0.969004 
0.193242 -0.14014 0.971091 
0.157563 -0.10541 0.981867 
0.160698 -0.0908804 0.982811 
0.12855 -0.0658597 0.989514 
0.132582 -0.0553403 0.989626 
0.13938 -0.045709 0.989183 
0.115657 -0.0304816 0.992821 
0.126133 -0.0222283 0.991764 
0.107859 -0.0108212 0.994107 
0.12166 -0.00191655 0.99257 
0.106777 0.00770308 0.994253 
0.123741 0.0189663 0.992133 
0.112742 0.0282858 0.993222 
0.135212 0.0440408 0.989837 
0.128725 0.0548829 0.99016 
0.125137 0.0665698 0.989904 
0.156712 0.0927993 0.983275 
0.154712 0.108186 0.982018 
0.190652 0.144335 0.970989 
0.187523 0.164041 0.968465 
0.225838 0.212047 0.950807 
0.265843 0.267809 0.92607 
0.29887 0.334503 0.893748 
0.349842 0.420204 0.837281 
0.40578 0.517841 0.753116 
0.370996 -0.528343 0.763686 
0.321383 -0.429426 0.843983 
0.27487 -0.342883 0.898264 
0.237835 -0.272685 0.932243 
0.209722 -0.221454 0.952352 
0.178222 -0.174536 0.968387 
0.149129 -0.135498 0.97949 
0.153449 -0.120039 0.980838 
0.124382 -0.0903356 0.988114 
0.127157 -0.0779359 0.988816 
0.101315 -0.0570345 0.993218 
0.104078 -0.04744 0.993437 
0.109125 -0.0387932 0.993271 
0.0901406 -0.0258776 0.995593 
0.0981091 -0.0186345 0.995001 
0.0837875 -0.00898626 0.996443 
0.0945772 -0.00135831 0.995517 
0.0830047 0.0067924 0.996526 
0.0964352 0.0163678 0.995205 
0.0880429 0.0243138 0.99582 
0.106166 0.0377002 0.993633 
0.101318 0.0471608 0.993736 
0.0990676 0.0575659 0.993414 
0.124454 0.0794478 0.98904 
0.122396 0.0925106 0.98816 
0.151608 0.123518 0.980693 
0.148625 0.139408 0.979018 
0.178225 0.17963 0.967455 
0.210435 0.227728 0.950714 
0.23944 0.2801 0.92963 
0.277388 0.35177 0.894044 
0.324637 0.439922 0.837305 
0.374679 0.540221 0.75351 
0.335145 -0.548915 0.765748 
0.291645 -0.446903 0.845707 
0.250286 -0.358508 0.899349 
0.215011 -0.285882 0.933832 
0.186252 -0.228949 0.955454 
0.161894 -0.184385 0.969429 
0.137944 -0.145796 0.97965 
0.116757 -0.114116 0.986583 
0.119425 -0.101873 0.987603 
0.0977162 -0.0791928 0.992058 
0.100234 -0.0678313 0.992649 
0.0799857 -0.0493408 0.995574 
0.081548 -0.0406829 0.995839 
0.0853954 -0.0332743 0.995791 
0.0702189 -0.0219629 0.99729 
0.0764848 -0.0157913 0.996946 
0.065046 -0.00754636 0.997854 
0.0736589 -0.000995022 0.997283 
0.0644961 0.00594539 0.9979 
0.0752986 0.0140802 0.997062 
0.0687091 0.020899 0.997418 
0.0833496 0.0323754 0.995994 
0.0798011 0.0406221 0.995983 
0.078392 0.0498377 0.995676 
0.0984381 0.0690703 0.992743 
0.0965358 0.0810815 0.992021 
0.118625 0.104482 0.987427 
0.116479 0.117317 0.98624 
0.138503 0.149826 0.978963 
0.163164 0.189421 0.968244 
0.188391 0.235126 0.953533 
0.21836 0.293288 0.930753 
0.254948 0.367434 0.894424 
0.297731 0.45734 0.837972 
0.342782 0.560302 0.754031 
0.298095 -0.568324 0.766907 
0.260226 -0.462538 0.84755 
0.223565 -0.37167 0.901044 
0.191504 -0.296346 0.935684 
0.164258 -0.236301 0.957696 
0.141426 -0.188194 0.971896 
0.121701 -0.149391 0.98126 
0.103345 -0.116842 0.987759 
0.0918951 -0.0901111 0.991683 
0.077575 -0.0692373 0.994579 
0.0791279 -0.0588394 0.995126 
0.0630757 -0.0426198 0.997098 
0.0636686 -0.0349928 0.997357 
0.0668131 -0.0284524 0.99736 
0.054567 -0.0191272 0.998327 
0.0596218 -0.0135338 0.998129 
0.0505872 -0.00648906 0.998699 
0.0574767 -0.000692923 0.998347 
0.0502089 0.00528139 0.998725 
0.0587977 0.0124088 0.998193 
0.0535577 0.0182635 0.998398 
0.0654607 0.0279697 0.997463 
0.0626004 0.0350287 0.997424 
0.0620244 0.0431669 0.997141 
0.0781326 0.0599449 0.995139 
0.076713 0.0703868 0.994566 
0.0917464 0.0921823 0.991506 
0.1042 0.119614 0.987337 
0.123022 0.153179 0.980511 
0.143916 0.192842 0.970618 
0.167977 0.24201 0.955623 
0.196702 0.303295 0.932374 
0.230735 0.379797 0.895832 
0.26965 0.471741 0.839493 
0.310317 0.577767 0.75491 
0.260904 -0.586517 0.766764 
0.228453 -0.476702 0.848861 
0.196338 -0.382823 0.902717 
0.167989 -0.305551 0.93724 
0.143644 -0.243007 0.95933 
0.123318 -0.193045 0.97341 
0.105829 -0.153396 0.982482 
0.0912391 -0.121167 0.98843 
0.0803648 -0.0952081 0.992208 
0.0704043 -0.0760107 0.994618 
0.0605344 -0.059301 0.996403 
0.0621019 -0.0512199 0.996755 
0.0500714 -0.0390494 0.997982 
0.0494099 -0.0311185 0.998294 
0.0519092 -0.0249358 0.99834 
0.0424772 -0.0167999 0.998956 
0.0464305 -0.0117862 0.998852 
0.0393008 -0.00561708 0.999212 
0.0448347 -0.000602112 0.998994 
0.0390594 0.00470241 0.999226 
0.045947 0.0108247 0.998885 
0.0417417 0.016193 0.998997 
0.051221 0.0247013 0.998382 
0.048985 0.0312427 0.998311 
0.0491162 0.0391908 0.998024 
0.0611704 0.0517199 0.996786 
0.059763 0.0597751 0.996421 
0.0704083 0.0770957 0.994535 
0.080893 0.0972156 0.99197 
0.0925413 0.12363 0.988004 
0.108295 0.156545 0.981716 
0.126816 0.197041 0.972159 
0.14884 0.247795 0.957311 
0.175108 0.311149 0.93409 
0.205932 0.389224 0.897829 
0.241208 0.4834 0.841512 
0.277563 0.59251 0.756234 
0.224539 -0.603297 0.765255 
0.197389 -0.4897 0.849254 
0.169448 -0.393386 0.903623 
0.144515 -0.313395 0.938562 
0.123513 -0.249059 0.96058 
0.105385 -0.197484 0.974625 
0.0904913 -0.156453 0.983531 
0.077843 -0.123717 0.98926 
0.0681844 -0.0978585 0.992862 
0.0594907 -0.0771942 0.99524 
0.051857 -0.0608144 0.996801 
0.0475519 -0.0467207 0.997776 
0.0401118 -0.0350872 0.998579 
0.0381434 -0.0275821 0.998892 
0.0403014 -0.0221743 0.998941 
0.0328918 -0.0148274 0.999349 
0.0361521 -0.0103705 0.999292 
0.0303631 -0.00496042 0.999527 
0.0349175 -0.000453749 0.99939 
0.0302032 0.00398576 0.999536 
0.0358244 0.00950753 0.999313 
0.0324303 0.0139171 0.999377 
0.0400214 0.0215757 0.998966 
0.0381918 0.027331 0.998897 
0.0388991 0.0343335 0.998653 
0.0466968 0.0464742 0.997827 
0.051943 0.061281 0.996768 
0.0601591 0.0784962 0.995098 
0.0695217 0.0993665 0.992619 
0.0798407 0.12572 0.988848 
0.0935747 0.158808 0.982865 
0.109968 0.200302 0.973543 
0.129685 0.252172 0.958953 
0.153148 0.316896 0.936014 
0.180933 0.396701 0.89994 
0.212691 0.492757 0.843773 
0.244631 0.604672 0.757976 
0.189745 -0.618286 0.762705 
0.16802 -0.502483 0.848104 
0.143489 -0.403857 0.903499 
0.122498 -0.321914 0.938811 
0.10425 -0.25531 0.961222 
0.0889096 -0.201608 0.975423 
0.0759311 -0.159111 0.984336 
0.0651213 -0.125455 0.98996 
0.0568415 -0.0987823 0.993484 
0.0492893 -0.0780893 0.995727 
0.04301 -0.0616799 0.997169 
0.0394795 -0.0489914 0.998019 
0.0356408 -0.0393899 0.998588 
0.0309397 -0.0304492 0.999057 
0.0290767 -0.0240759 0.999287 
0.0310218 -0.0194537 0.999329 
0.0252444 -0.0132099 0.999594 
0.0279356 -0.00915425 0.999568 
0.0232821 -0.00443803 0.999719 
0.0269373 -0.000377503 0.999637 
0.0231184 0.00383615 0.999725 
0.0276154 0.00848044 0.999583 
0.0248641 0.012653 0.999611 
0.030945 0.0189969 0.999341 
0.0295626 0.0237281 0.999281 
0.0301816 0.0297038 0.999103 
0.03471 0.0385965 0.998652 
0.0396156 0.0490274 0.998011 
0.0436681 0.0621208 0.997113 
0.0504194 0.0789021 0.995607 
0.0582541 0.0998064 0.9933 
0.0676761 0.126597 0.989643 
0.0794518 0.160371 0.983854 
0.0939482 0.202873 0.974688 
0.111255 0.256336 0.960163 
0.131932 0.322494 0.937332 
0.156215 0.403693 0.901459 
0.184775 0.500992 0.845497 
0.211607 0.61431 0.760162 
0.156705 -0.630902 0.759872 
0.140449 -0.516368 0.844771 
0.119515 -0.418272 0.900425 
0.101924 -0.33488 0.936732 
0.0867662 -0.265861 0.960099 
0.0738837 -0.209976 0.974911 
0.0629482 -0.165299 0.984233 
0.0538876 -0.129718 0.990086 
0.0464752 -0.101763 0.993722 
0.040409 -0.0797988 0.995992 
0.0348062 -0.0622764 0.997452 
0.031265 -0.0483983 0.998339 
0.0278421 -0.0374042 0.998912 
0.0243825 -0.0285727 0.999294 
0.0220898 -0.0217646 0.999519 
0.0231058 -0.0171995 0.999585 
0.0188831 -0.0122954 0.999746 
0.0211514 -0.00839607 0.999741 
0.0175477 -0.00413613 0.999837 
0.020636 -0.000439832 0.999787 
0.0175068 0.00332794 0.999841 
0.0210692 0.00764986 0.999749 
0.0187768 0.0119118 0.999753 
0.0231812 0.0168738 0.999589 
0.0222658 0.0217536 0.999515 
0.0243135 0.0291328 0.99928 
0.0278901 0.0378524 0.998894 
0.0318189 0.0488423 0.9983 
0.0357552 0.0626893 0.997392 
0.0415399 0.0801463 0.995917 
0.048315 0.102079 0.993602 
0.0563887 0.129842 0.98993 
0.066765 0.165191 0.983999 
0.0790128 0.209237 0.974668 
0.0938961 0.264376 0.959838 
0.111464 0.332047 0.936654 
0.132271 0.413835 0.900691 
0.157189 0.510101 0.845629 
0.178087 0.621319 0.763051 
0.122418 -0.64013 0.758451 
0.115162 -0.538916 0.83445 
0.0974029 -0.442315 0.891555 
0.0827745 -0.355627 0.930955 
0.070613 -0.282871 0.956555 
0.0599795 -0.222902 0.972994 
0.0511035 -0.175024 0.983237 
0.0435088 -0.137013 0.989613 
0.0375102 -0.107212 0.993528 
0.0324116 -0.0838081 0.995955 
0.0279932 -0.065535 0.997458 
0.0248248 -0.0509326 0.998394 
0.0221712 -0.0395371 0.998972 
0.0195819 -0.0304597 0.999344 
0.0173733 -0.02275 0.99959 
0.0166401 -0.0164066 0.999727 
0.0139841 -0.0111365 0.99984 
0.0159153 -0.0075901 0.999845 
0.0129031 -0.0034593 0.999911 
0.0155385 -0.00022717 0.999879 
0.0128788 0.00301089 0.999913 
0.015787 0.00716069 0.99985 
0.0140812 0.0106428 0.999844 
0.0168004 0.0162042 0.999728 
0.0175791 0.0225982 0.99959 
0.0195165 0.0304539 0.999346 
0.0223657 0.0396965 0.998961 
0.025456 0.0510079 0.998374 
0.02894 0.0654457 0.997436 
0.0335639 0.0835385 0.995939 
0.0392871 0.106684 0.993516 
0.0461369 0.136061 0.989626 
0.0546118 0.173263 0.98336 
0.0649588 0.220164 0.973298 
0.0772426 0.278362 0.957365 
0.0917757 0.349337 0.932492 
0.109136 0.433275 0.89463 
0.130646 0.527775 0.839277 
0.1406 0.625055 0.767813 
0.0926325 -0.645887 0.757793 
0.0827061 -0.512593 0.854639 
0.0670523 -0.400837 0.913692 
0.0558324 -0.312644 0.948228 
0.04688 -0.243223 0.968837 
0.0396115 -0.189189 0.981141 
0.0335988 -0.147004 0.988565 
0.0287057 -0.114255 0.993037 
0.0246861 -0.088877 0.995737 
0.0212984 -0.069199 0.997375 
0.018698 -0.0536917 0.998382 
0.0166084 -0.0417573 0.99899 
0.0147839 -0.0323561 0.999367 
0.013255 -0.0248247 0.999604 
0.0123739 -0.0185736 0.999751 
0.0112328 -0.0138374 0.999841 
0.00980127 -0.00962588 0.999906 
0.0112434 -0.00670671 0.999914 
0.00889295 -0.00374456 0.999953 
0.0109664 -0.000457416 0.99994 
0.00887923 0.00303115 0.999956 
0.0113708 0.00611225 0.999917 
0.00969565 0.00911349 0.999911 
0.011375 0.0134277 0.999845 
0.012521 0.01815 0.999757 
0.0132781 0.0242843 0.999617 
0.0147713 0.0319171 0.999381 
0.0168676 0.0412931 0.999005 
0.0192937 0.0532182 0.998397 
0.0220261 0.0685005 0.997408 
0.0258185 0.0879762 0.995788 
0.0302116 0.11281 0.993157 
0.0357463 0.144843 0.988809 
0.0425936 0.18572 0.981679 
0.0508908 0.238001 0.969931 
0.0612892 0.304877 0.950417 
0.0745199 0.389885 0.917843 
0.0931987 0.497934 0.862192 
0.105916 0.627086 0.771716 
0.0599052 -0.650305 0.757307 
0.0588188 -0.543626 0.837264 
0.0484796 -0.439986 0.896695 
0.0400741 -0.346305 0.937266 
0.0334037 -0.269386 0.962453 
0.0280964 -0.208847 0.977545 
0.0237034 -0.16171 0.986554 
0.0201179 -0.125379 0.991905 
0.0172658 -0.0973539 0.9951 
0.0148552 -0.0757437 0.997017 
0.0129162 -0.0589168 0.998179 
0.0114405 -0.0458362 0.998883 
0.0101847 -0.0356471 0.999313 
0.0090421 -0.0274965 0.999581 
0.00835441 -0.0208688 0.999747 
0.00766325 -0.0156541 0.999848 
0.00665369 -0.0111542 0.999916 
0.00682248 -0.00679281 0.999954 
0.00554307 -0.00331679 0.999979 
0.00755007 -0.00016291 0.999971 
0.00554459 0.00277832 0.999981 
0.00691383 0.00622807 0.999957 
0.00687919 0.0106556 0.99992 
0.00769658 0.0151063 0.999856 
0.00846796 0.0203952 0.999756 
0.00911061 0.0269824 0.999594 
0.0103518 0.0351942 0.999327 
0.0117626 0.0454014 0.9989 
0.0134697 0.0582816 0.998209 
0.015473 0.0747811 0.99708 
0.0180575 0.0960074 0.995217 
0.0212775 0.123256 0.992147 
0.0250979 0.158392 0.987057 
0.029963 0.203827 0.978548 
0.0359171 0.261936 0.964417 
0.0433167 0.335577 0.941016 
0.0530249 0.425787 0.903268 
0.0649767 0.525332 0.848413 
0.0659742 0.628865 0.77471 
0.0318978 -0.653451 0.756296 
0.0292971 -0.513188 0.857776 
0.02347 -0.397278 0.917398 
0.0188369 -0.305408 0.952035 
0.0156444 -0.234797 0.971919 
0.0130026 -0.180703 0.983452 
0.0109629 -0.139366 0.99018 
0.00932103 -0.107686 0.994141 
0.0079337 -0.0834167 0.996483 
0.0068581 -0.0646332 0.997886 
0.00605736 -0.0501439 0.998724 
0.00531269 -0.0388627 0.99923 
0.00474053 -0.0299995 0.999539 
0.00441858 -0.0229784 0.999726 
0.00394947 -0.0172756 0.999843 
0.00351319 -0.0127947 0.999912 
0.00367451 -0.00871261 0.999955 
0.0033176 -0.00560269 0.999979 
0.00244159 -0.00214285 0.999995 
0.00419593 -0.000513515 0.999991 
0.00251023 0.0018286 0.999995 
0.00344546 0.00488963 0.999982 
0.00364098 0.00819426 0.99996 
0.00360807 0.0121315 0.99992 
0.00407827 0.0168018 0.999851 
0.00444898 0.0223762 0.99974 
0.00485163 0.0294494 0.999554 
0.0054759 0.0383639 0.999249 
0.00633271 0.0494141 0.998758 
0.0071009 0.0637528 0.99794 
0.00828418 0.0821575 0.996585 
0.00958657 0.105763 0.994345 
0.0112164 0.136533 0.990572 
0.0132773 0.176375 0.984233 
0.0157491 0.228233 0.973479 
0.0188927 0.296025 0.954993 
0.023252 0.383626 0.923196 
0.0292127 0.495361 0.868196 
0.0307103 0.631223 0.774993 
0.00507464 -0.656059 0.754692 
0.00394981 -0.545833 0.837885 
0.0025565 -0.440302 0.897846 
0.00181185 -0.344214 0.93889 
0.00123077 -0.265848 0.964014 
0.00083863 -0.204818 0.9788 
0.000635826 -0.158007 0.987438 
0.00043086 -0.122154 0.992511 
0.000344601 -0.0947191 0.995504 
0.000298171 -0.0735581 0.997291 
0.000221799 -0.0572136 0.998362 
0.000206338 -0.0445382 0.999008 
0.000272586 -0.0346 0.999401 
0.000198901 -0.026629 0.999645 
0.000228402 -0.0203889 0.999792 
0.000222028 -0.0153431 0.999882 
0.000182346 -0.0107897 0.999942 
0.000247745 -0.00752065 0.999972 
0.000105032 -0.00431925 0.999991 
-0.000114286 -0.000588668 1 
5.81326e-05 0.00356614 0.999994 
0.000384839 0.00680139 0.999977 
0.000232567 0.010263 0.999947 
0.000355086 0.0147617 0.999891 
0.00028027 0.0198007 0.999804 
0.000286812 0.0261683 0.999658 
0.000393882 0.034009 0.999421 
0.000256363 0.0439647 0.999033 
0.000371233 0.0565078 0.998402 
0.000264416 0.0725329 0.997366 
0.000122334 0.0933165 0.995636 
4.68785e-05 0.120038 0.992769 
-0.000249526 0.154719 0.987958 
-0.000572462 0.199944 0.979807 
-0.000957327 0.25852 0.966005 
-0.00153957 0.333581 0.94272 
-0.00227229 0.425796 0.904816 
-0.00281423 0.527229 0.849719 
-0.00365033 0.634828 0.772645 
-0.0223628 -0.650887 0.758845 
-0.0232249 -0.511235 0.859127 
-0.0190555 -0.395645 0.918206 
-0.0161088 -0.304392 0.952411 
-0.0136486 -0.233996 0.972142 
-0.0116575 -0.180182 0.983564 
-0.0099554 -0.138987 0.990244 
-0.00852083 -0.10744 0.994175 
-0.00734248 -0.0831981 0.996506 
-0.00640132 -0.0644917 0.997898 
-0.00554007 -0.050012 0.998733 
-0.00490748 -0.0388169 0.999234 
-0.00429408 -0.0299235 0.999543 
-0.00386222 -0.0228698 0.999731 
-0.00361053 -0.0172717 0.999844 
-0.00308975 -0.0127696 0.999914 
-0.00321197 -0.00868812 0.999957 
-0.0029702 -0.0056234 0.99998 
-0.00154672 -0.00217891 0.999996 
-0.00400243 -0.00049648 0.999992 
-0.00147132 0.00177401 0.999997 
-0.00282949 0.00481263 0.999984 
-0.00311211 0.00816652 0.999962 
-0.00291525 0.0120615 0.999923 
-0.00352952 0.0167564 0.999853 
-0.00375801 0.0223899 0.999742 
-0.0042666 0.0294155 0.999558 
-0.00485001 0.0383441 0.999253 
-0.00553629 0.0494649 0.998761 
-0.00659922 0.0638555 0.997937 
-0.00771553 0.0823554 0.996573 