# vtk DataFile Version 3.0 
Exported using Morpho https://github.com/Morpho-lang/morpho 
ASCII 
DATASET UNSTRUCTURED_GRID 

POINTS 1245 float 
-0.303845 -0.952721 0 
-0.250833 -0.96803 0 
-0.195084 -0.980787 0 
-0.146308 -0.989239 0 
-0.0940719 -0.995565 0 
-0.0475118 -0.998871 0 
-0.000246339 -1 0 
0.0470875 -0.998891 0 
0.0937543 -0.995595 0 
0.146139 -0.989264 0 
0.195062 -0.980791 0 
0.250843 -0.968028 0 
0.303953 -0.952687 0 
-0.409153 -0.912466 0 
-0.356519 -0.934288 0 
-0.308871 -0.898929 0 
-0.258282 -0.916037 0 
-0.207345 -0.934859 0 
-0.154868 -0.930629 0 
-0.104343 -0.948989 0 
-0.0520099 -0.939193 0 
-8.5762e-05 -0.954582 0 
0.0518744 -0.939288 0 
0.104354 -0.949042 0 
0.154696 -0.9306 0 
0.207366 -0.934975 0 
0.258274 -0.916081 0 
0.308979 -0.898924 0 
0.356593 -0.93426 0 
0.409236 -0.912429 0 
-0.513788 -0.857917 0 
-0.461695 -0.887039 0 
-0.411157 -0.857936 0 
-0.359855 -0.879963 0 
-0.306888 -0.847481 0 
-0.254732 -0.866979 0 
-0.201991 -0.889059 0 
-0.149956 -0.874108 0 
-0.100608 -0.900088 0 
-0.0497575 -0.880388 0 
2.4595e-05 -0.904789 0 
0.0496869 -0.8804 0 
0.100612 -0.900177 0 
0.149872 -0.874171 0 
0.202071 -0.889165 0 
0.254695 -0.867031 0 
0.306946 -0.847482 0 
0.359894 -0.879943 0 
0.411236 -0.857929 0 
0.461748 -0.887011 0 
0.513842 -0.857885 0 
-0.564741 -0.825268 0 
-0.512908 -0.802945 0 
-0.462372 -0.832348 0 
-0.410124 -0.804631 0 
-0.358606 -0.827415 0 
-0.305781 -0.795641 0 
-0.25358 -0.816639 0 
-0.200756 -0.839997 0 
-0.149043 -0.818944 0 
-0.0987265 -0.846667 0 
-0.0490473 -0.822548 0 
5.00659e-05 -0.849932 0 
0.0490834 -0.822542 0 
0.0987838 -0.846676 0 
0.148997 -0.818924 0 
0.200826 -0.840131 0 
0.253508 -0.816728 0 
0.305831 -0.795701 0 
0.358581 -0.827419 0 
0.410181 -0.804654 0 
0.462414 -0.83234 0 
0.512965 -0.802929 0 
0.564777 -0.825243 0 
-0.660798 -0.750564 0 
-0.614015 -0.789295 0 
-0.561786 -0.769772 0 
-0.510673 -0.747856 0 
-0.460836 -0.778365 0 
-0.408794 -0.751554 0 
-0.357337 -0.774971 0 
-0.304815 -0.743684 0 
-0.252907 -0.765535 0 
-0.200631 -0.789263 0 
-0.149244 -0.764328 0 
-0.0986912 -0.791935 0 
-0.0492815 -0.765764 0 
4.16586e-05 -0.79382 0 
0.0492411 -0.765708 0 
0.0987508 -0.791951 0 
0.149196 -0.764326 0 
0.200666 -0.789356 0 
0.252841 -0.765599 0 
0.304862 -0.743741 0 
0.357323 -0.775038 0 
0.408863 -0.751626 0 
0.460863 -0.778382 0 
0.510716 -0.747859 0 
0.561819 -0.769761 0 
0.614041 -0.789274 0 
0.660811 -0.750552 0 
-0.707107 -0.707107 0 
-0.654819 -0.699058 0 
-0.60813 -0.73348 0 
-0.558104 -0.71337 0 
-0.509495 -0.692659 0 
-0.45935 -0.724356 0 
-0.407328 -0.698865 0 
-0.355968 -0.722823 0 
-0.303722 -0.691387 0 
-0.252254 -0.71362 0 
-0.20067 -0.737336 0 
-0.149608 -0.710068 0 
-0.0991558 -0.737129 0 
-0.0495872 -0.709825 0 
-2.23646e-05 -0.737917 0 
0.0494408 -0.709766 0 
0.0991291 -0.737116 0 
0.149502 -0.710042 0 
0.200696 -0.73743 0 
0.252186 -0.713735 0 
0.303753 -0.691518 0 
0.355952 -0.722893 0 
0.407371 -0.698945 0 
0.459374 -0.724407 0 
0.509524 -0.692668 0 
0.558131 -0.713361 0 
0.608151 -0.733462 0 
0.654824 -0.699048 0 
0.707107 -0.707107 0 
-0.750564 -0.660798 0 
-0.699058 -0.654819 0 
-0.647692 -0.647692 0 
-0.603437 -0.675718 0 
-0.55905 -0.655305 0 
-0.508501 -0.639581 0 
-0.457509 -0.671321 0 
-0.405555 -0.646545 0 
-0.354417 -0.670703 0 
-0.302427 -0.639219 0 
-0.251503 -0.661417 0 
-0.20061 -0.684911 0 
-0.149717 -0.655943 0 
-0.0995004 -0.682466 0 
-0.0498216 -0.654561 0 
-5.02113e-05 -0.682664 0 
0.0496787 -0.654499 0 
0.0994374 -0.682501 0 
0.149603 -0.655909 0 
0.200573 -0.684972 0 
0.251388 -0.661524 0 
0.302407 -0.639359 0 
0.354397 -0.670836 0 
0.405575 -0.646641 0 
0.457525 -0.67138 0 
0.508497 -0.639623 0 
0.559063 -0.655324 0 
0.603436 -0.675715 0 
0.64769 -0.64769 0 
0.699048 -0.654824 0 
0.750552 -0.660811 0 
-0.789295 -0.614015 0 
-0.73348 -0.60813 0 
-0.675718 -0.603437 0 
-0.613088 -0.613088 0 
-0.55962 -0.604068 0 
-0.506189 -0.588854 0 
-0.455505 -0.618874 0 
-0.403019 -0.594688 0 
-0.352514 -0.618952 0 
-0.300977 -0.586897 0 
-0.250543 -0.608767 0 
-0.200257 -0.632053 0 
-0.150049 -0.601979 0 
-0.0998281 -0.628222 0 
-0.0500377 -0.599914 0 
-3.12334e-05 -0.628076 0 
0.0498927 -0.599835 0 
0.0997818 -0.628253 0 
0.149924 -0.601867 0 
0.200214 -0.632118 0 
0.250423 -0.608915 0 
0.30086 -0.587085 0 
0.352457 -0.619096 0 
0.402948 -0.594743 0 
0.455483 -0.618952 0 
0.506147 -0.588901 0 
0.55964 -0.604067 0 
0.613069 -0.613069 0 
0.675715 -0.603436 0 
0.733462 -0.608151 0 
0.789274 -0.614041 0 
-0.825268 -0.564741 0 
-0.769772 -0.561786 0 
-0.71337 -0.558104 0 
-0.655305 -0.55905 0 
-0.604068 -0.55962 0 
-0.551031 -0.551031 0 
-0.497922 -0.537596 0 
-0.451508 -0.567021 0 
-0.399773 -0.542431 0 
-0.350494 -0.567003 0 
-0.301574 -0.534146 0 
-0.250874 -0.555692 0 
-0.200542 -0.579013 0 
-0.150324 -0.548268 0 
-0.100169 -0.57443 0 
-0.0500152 -0.545912 0 
-3.29278e-05 -0.574268 0 
0.0499208 -0.545788 0 
0.100058 -0.574485 0 
0.150038 -0.548073 0 
0.200377 -0.579041 0 
0.250556 -0.55585 0 
0.301273 -0.534348 0 
0.350318 -0.567174 0 
0.399615 -0.542384 0 
0.451404 -0.5671 0 
0.497945 -0.537702 0 
0.551073 -0.551073 0 
0.604067 -0.55964 0 
0.655324 -0.559063 0 
0.713361 -0.558131 0 
0.769761 -0.561819 0 
0.825243 -0.564777 0 
-0.857917 -0.513788 0 
-0.802945 -0.512908 0 
-0.747856 -0.510673 0 
-0.692659 -0.509495 0 
-0.639581 -0.508501 0 
-0.588854 -0.506189 0 
-0.537596 -0.497922 0 
-0.486157 -0.486157 0 
-0.444928 -0.512952 0 
-0.401787 -0.486784 0 
-0.351685 -0.513639 0 
-0.299695 -0.48291 0 
-0.250032 -0.503 0 
-0.200501 -0.526165 0 
-0.149489 -0.495195 0 
-0.0999281 -0.521367 0 
-0.0499712 -0.492294 0 
4.64723e-05 -0.520999 0 
0.050147 -0.492108 0 
0.099934 -0.52133 0 
0.14957 -0.494692 0 
0.200133 -0.526255 0 
0.249839 -0.503309 0 
0.299839 -0.483005 0 
0.351514 -0.513798 0 
0.401881 -0.486608 0 
0.444935 -0.513054 0 
0.486228 -0.486228 0 
0.537702 -0.497945 0 
0.588901 -0.506147 0 
0.639623 -0.508497 0 
0.692668 -0.509524 0 
0.747859 -0.510716 0 
0.802929 -0.512965 0 
0.857885 -0.513842 0 
-0.887039 -0.461695 0 
-0.832348 -0.462372 0 
-0.778365 -0.460836 0 
-0.724356 -0.45935 0 
-0.671321 -0.457509 0 
-0.618874 -0.455505 0 
-0.567021 -0.451508 0 
-0.512952 -0.444928 0 
-0.450685 -0.450685 0 
-0.397667 -0.437543 0 
-0.348492 -0.462546 0 
-0.295416 -0.432968 0 
-0.247004 -0.450633 0 
-0.198702 -0.473818 0 
-0.150161 -0.441625 0 
-0.100085 -0.468395 0 
-0.0502271 -0.439281 0 
0.000144229 -0.468374 0 
0.0504178 -0.439106 0 
0.100428 -0.468348 0 
0.150697 -0.441105 0 
0.199103 -0.473881 0 
0.247983 -0.450921 0 
0.296569 -0.432268 0 
0.348831 -0.462562 0 
0.397506 -0.4368 0 
0.450637 -0.450637 0 
0.513054 -0.444935 0 
0.5671 -0.451404 0 
0.618952 -0.455483 0 
0.67138 -0.457525 0 
0.724407 -0.459374 0 
0.778382 -0.460863 0 
0.83234 -0.462414 0 
0.887011 -0.461748 0 
-0.912466 -0.409153 0 
-0.857936 -0.411157 0 
-0.804631 -0.410124 0 
-0.751554 -0.408794 0 
-0.698865 -0.407328 0 
-0.646545 -0.405555 0 
-0.594688 -0.403019 0 
-0.542431 -0.399773 0 
-0.486784 -0.401787 0 
-0.437543 -0.397667 0 
-0.387256 -0.387256 0 
-0.344215 -0.411459 0 
-0.30136 -0.381507 0 
-0.25021 -0.395692 0 
-0.200211 -0.419975 0 
-0.150955 -0.389014 0 
-0.100617 -0.416095 0 
-0.0503197 -0.386922 0 
-4.02994e-05 -0.416525 0 
0.05006 -0.386948 0 
0.100784 -0.416323 0 
0.150432 -0.388572 0 
0.200855 -0.420694 0 
0.25086 -0.396905 0 
0.301746 -0.379789 0 
0.344135 -0.410678 0 
0.385823 -0.385823 0 
0.4368 -0.397506 0 
0.486608 -0.401881 0 
0.542384 -0.399615 0 
0.594743 -0.402948 0 
0.646641 -0.405575 0 
0.698945 -0.407371 0 
0.751626 -0.408863 0 
0.804654 -0.410181 0 
0.857929 -0.411236 0 
0.912429 -0.409236 0 
-0.934288 -0.356519 0 
-0.879963 -0.359855 0 
-0.827415 -0.358606 0 
-0.774971 -0.357337 0 
-0.722823 -0.355968 0 
-0.670703 -0.354417 0 
-0.618952 -0.352514 0 
-0.567003 -0.350494 0 
-0.513639 -0.351685 0 
-0.462546 -0.348492 0 
-0.411459 -0.344215 0 
-0.351697 -0.351697 0 
-0.29839 -0.336232 0 
-0.249846 -0.342529 0 
-0.200971 -0.367271 0 
-0.149995 -0.337521 0 
-0.100435 -0.3646 0 
-0.0498692 -0.335025 0 
-6.88684e-05 -0.365025 0 
0.0495433 -0.334795 0 
0.0996798 -0.364834 0 
0.148162 -0.337172 0 
0.199644 -0.368939 0 
0.24763 -0.345582 0 
0.295348 -0.332889 0 
0.34978 -0.34978 0 
0.410678 -0.344135 0 
0.462562 -0.348831 0 
0.513798 -0.351514 0 
0.567174 -0.350318 0 
0.619096 -0.352457 0 
0.670836 -0.354397 0 
0.722893 -0.355952 0 
0.775038 -0.357323 0 
0.827419 -0.358581 0 
0.879943 -0.359894 0 
0.93426 -0.356593 0 
-0.952721 -0.303845 0 
-0.898929 -0.308871 0 
-0.847481 -0.306888 0 
-0.795641 -0.305781 0 
-0.743684 -0.304815 0 
-0.691387 -0.303722 0 
-0.639219 -0.302427 0 
-0.586897 -0.300977 0 
-0.534146 -0.301574 0 
-0.48291 -0.299695 0 
-0.432968 -0.295416 0 
-0.381507 -0.30136 0 
-0.336232 -0.29839 0 
-0.288184 -0.288184 0 
-0.242975 -0.290577 0 
-0.198059 -0.315051 0 
-0.148383 -0.285894 0 
-0.0994753 -0.313232 0 
-0.0507184 -0.283118 0 
-0.000202902 -0.313447 0 
0.0500077 -0.282824 0 
0.0988289 -0.312817 0 
0.148102 -0.28482 0 
0.195742 -0.317413 0 
0.240766 -0.295824 0 
0.285014 -0.285014 0 
0.332889 -0.295348 0 
0.379789 -0.301746 0 
0.432268 -0.296569 0 
0.483005 -0.299839 0 
0.534348 -0.301273 0 
0.587085 -0.30086 0 
0.639359 -0.302407 0 
0.691518 -0.303753 0 
0.743741 -0.304862 0 
0.795701 -0.305831 0 
0.847482 -0.306946 0 
0.898924 -0.308979 0 
0.952687 -0.303953 0 
-0.96803 -0.250833 0 
-0.916037 -0.258282 0 
-0.866979 -0.254732 0 
-0.816639 -0.25358 0 
-0.765535 -0.252907 0 
-0.71362 -0.252254 0 
-0.661417 -0.251503 0 
-0.608767 -0.250543 0 
-0.555692 -0.250874 0 
-0.503 -0.250032 0 
-0.450633 -0.247004 0 
-0.395692 -0.25021 0 
-0.342529 -0.249846 0 
-0.290577 -0.242975 0 
-0.239946 -0.239946 0 
-0.194478 -0.26004 0 
-0.151293 -0.23238 0 
-0.101048 -0.260904 0 
-0.0503938 -0.232537 0 
-0.000203281 -0.262984 0 
0.050638 -0.232316 0 
0.100942 -0.260855 0 
0.152412 -0.232597 0 
0.195768 -0.261421 0 
0.241873 -0.241873 0 
0.295824 -0.240766 0 
0.345582 -0.24763 0 
0.396905 -0.25086 0 
0.450921 -0.247983 0 
[...]
POINT_DATA 1245 
VECTORS vectors float
0.514592 -0.204756 0.832628 
0.502204 -0.171522 0.847568 
0.501462 -0.121766 0.856568 
0.507182 -0.136914 0.850894 
0.516419 -0.108538 0.84943 
0.497205 -0.0978774 0.862095 
0.478287 -0.0850921 0.874071 
0.450812 -0.0775218 0.889246 
0.426327 -0.0432057 0.903536 
0.419021 0.0101847 0.907919 
0.402266 0.0847378 0.911593 
0.380959 0.135403 0.914623 
0.411755 0.198591 0.889393 
0.494635 -0.220788 0.840588 
0.500623 -0.205825 0.84084 
0.382966 -0.152832 0.911032 
0.380311 -0.139815 0.914229 
0.395554 -0.134086 0.908602 
0.361984 -0.119853 0.924447 
0.388258 -0.0996984 0.916142 
0.354483 -0.079849 0.931647 
0.383414 -0.0703725 0.920892 
0.326884 -0.0321767 0.944516 
0.320895 -0.000687025 0.947115 
0.283321 0.0246235 0.958709 
0.30236 0.0694348 0.950662 
0.281993 0.122078 0.951618 
0.298084 0.156819 0.94157 
0.408267 0.223647 0.885042 
0.417435 0.267221 0.868528 
0.434938 -0.234549 0.869377 
0.479039 -0.227045 0.847922 
0.392823 -0.183917 0.901036 
0.394977 -0.167714 0.903252 
0.283548 -0.110225 0.952602 
0.279529 -0.105714 0.9543 
0.300148 -0.113051 0.94717 
0.256624 -0.0852624 0.962743 
0.275198 -0.0730483 0.958608 
0.223947 -0.0604152 0.972727 
0.271132 -0.0616505 0.960566 
0.191409 -0.0211297 0.981283 
0.21939 0.00879775 0.975598 
0.20297 -0.00610069 0.979166 
0.232048 0.0343042 0.972099 
0.210926 0.0998135 0.972393 
0.219826 0.106562 0.969701 
0.312048 0.181049 0.932656 
0.326906 0.201709 0.92328 
0.433346 0.298599 0.850324 
0.429839 0.309346 0.848259 
0.420127 -0.295491 0.858009 
0.337563 -0.205004 0.918708 
0.362857 -0.19228 0.911791 
0.272008 -0.138814 0.95223 
0.289674 -0.126099 0.948783 
0.203753 -0.0882459 0.975037 
0.207851 -0.076769 0.975143 
0.22108 -0.0843332 0.971603 
0.178236 -0.0558444 0.982402 
0.201275 -0.0450472 0.978498 
0.153305 -0.0446765 0.987168 
0.155113 -0.0523069 0.986511 
0.111554 -0.0296667 0.993315 
0.145206 -0.0152859 0.989283 
0.147695 -0.0091507 0.988991 
0.178858 0.035019 0.983251 
0.153817 0.0800469 0.984852 
0.164714 0.0637981 0.984276 
0.225759 0.135665 0.964691 
0.229826 0.154293 0.960923 
0.341161 0.221692 0.913489 
0.340939 0.261701 0.902925 
0.434101 0.339304 0.834524 
0.379838 -0.328645 0.864705 
0.392992 -0.303702 0.867942 
0.325513 -0.219246 0.919768 
0.24485 -0.157509 0.956682 
0.246774 -0.151622 0.957138 
0.17261 -0.0991548 0.979987 
0.191155 -0.0893011 0.977489 
0.138814 -0.0731161 0.987616 
0.149154 -0.0693975 0.986376 
0.153345 -0.0639592 0.986101 
0.109908 -0.0522406 0.992568 
0.137331 -0.0435578 0.989567 
0.104713 -0.0367303 0.993824 
0.109544 -0.033804 0.993407 
0.0944684 -0.018346 0.995359 
0.109773 -0.0197144 0.993761 
0.0893279 0.0109811 0.995942 
0.112677 0.0547177 0.992124 
0.114031 0.0547335 0.991968 
0.116653 0.041492 0.992306 
0.141048 0.11734 0.983024 
0.144435 0.13044 0.980879 
0.24517 0.17058 0.954355 
0.234995 0.213127 0.948343 
0.328729 0.27865 0.902381 
0.43677 0.331722 0.836177 
0.38635 0.355017 0.851291 
0.37808 -0.360755 0.852591 
0.301781 -0.278048 0.91193 
0.305148 -0.238601 0.92193 
0.239572 -0.169599 0.955951 
0.17712 -0.125978 0.976093 
0.173039 -0.114985 0.97818 
0.141777 -0.0785743 0.986775 
0.137316 -0.0724476 0.987874 
0.0892851 -0.0597169 0.994214 
0.0926786 -0.0583907 0.993982 
0.105554 -0.0549149 0.992896 
0.076807 -0.0294379 0.996611 
0.079592 -0.0416191 0.995958 
0.0596708 -0.026947 0.997854 
0.0806988 -0.0189432 0.996559 
0.0569219 -0.0144386 0.998274 
0.0762926 -0.0110623 0.997024 
0.0542525 0.00188354 0.998525 
0.0665172 0.0413233 0.996929 
0.0810057 0.0254986 0.996387 
0.0828872 0.036205 0.995901 
0.0969051 0.111906 0.988983 
0.118909 0.0920612 0.988628 
0.164132 0.119817 0.979135 
0.155018 0.15736 0.975298 
0.223428 0.2135 0.951051 
0.315409 0.260754 0.912428 
0.303866 0.275433 0.912032 
0.360452 0.38207 0.850939 
0.366378 -0.361886 0.857208 
0.300328 -0.294021 0.907389 
0.229807 -0.224686 0.946945 
0.219497 -0.198375 0.955232 
0.163629 -0.144782 0.97584 
0.124029 -0.097793 0.987448 
0.138804 -0.0857154 0.986603 
0.110185 -0.0555296 0.992359 
0.102267 -0.0560574 0.993176 
0.0558891 -0.0418383 0.99756 
0.0564396 -0.0446749 0.997406 
0.0735828 -0.0378129 0.996572 
0.0503943 -0.00973555 0.998682 
0.0508012 -0.0180708 0.998545 
0.0384482 -0.0195849 0.999069 
0.0430685 -0.0164201 0.998937 
0.0204298 -0.0143189 0.999689 
0.0381576 -0.015503 0.999151 
0.0392454 -0.00803569 0.999197 
0.0519515 0.0142676 0.998548 
0.0479069 0.0192807 0.998666 
0.0398386 0.0255221 0.99888 
0.0774406 0.075786 0.994112 
0.108857 0.053374 0.992623 
0.131546 0.0789062 0.988165 
0.1184 0.121593 0.985493 
0.164345 0.164308 0.972622 
0.23091 0.193499 0.95354 
0.233952 0.22508 0.945836 
0.277747 0.314502 0.907714 
0.334128 0.401314 0.852822 
0.351195 -0.376384 0.85732 
0.278199 -0.296668 0.913561 
0.1948 -0.217033 0.95653 
0.156696 -0.1445 0.977019 
0.124333 -0.101354 0.987051 
0.0917193 -0.0666983 0.993549 
0.0986775 -0.0512276 0.9938 
0.0647697 -0.0360178 0.99725 
0.0640209 -0.0454824 0.996912 
0.0376614 -0.035404 0.998663 
0.0403994 -0.0269111 0.998821 
0.0429727 -0.0240422 0.998787 
0.0203333 -0.0169449 0.99965 
0.0275907 -0.018403 0.99945 
0.0284216 -0.0197709 0.9994 
0.0306995 -0.00904541 0.999488 
0.0165085 -0.00205868 0.999862 
0.0148912 -0.0108626 0.99983 
0.0164293 -0.00299706 0.999861 
0.0309304 0.0110701 0.99946 
0.0139403 0.0222154 0.999656 
0.0215133 0.0141946 0.999668 
0.0524683 0.0355357 0.99799 
0.0657369 0.0447056 0.996835 
0.100504 0.0758125 0.992044 
0.0858659 0.0909406 0.992148 
0.113167 0.129573 0.985091 
0.163123 0.178149 0.970388 
0.212162 0.243469 0.94642 
0.260185 0.334331 0.905829 
0.314923 0.449769 0.835782 
0.319308 -0.363535 0.875148 
0.252839 -0.291044 0.922695 
0.181712 -0.223239 0.957677 
0.12554 -0.145347 0.981384 
0.112782 -0.0962394 0.988948 
0.100272 -0.0709573 0.992427 
0.064485 -0.0459983 0.996858 
0.0604768 -0.031078 0.997686 
0.0412196 -0.0238265 0.998866 
0.0315194 -0.0391795 0.998735 
0.0186288 -0.0226497 0.99957 
0.0279833 -0.0115584 0.999542 
0.0233146 -0.0173904 0.999577 
0.0100986 -0.0154627 0.999829 
0.0130537 -0.0250899 0.9996 
0.00786605 -0.010494 0.999914 
0.0241256 -0.000245697 0.999709 
0.0146716 -0.00553641 0.999877 
0.00880912 -0.00443666 0.999951 
-0.00148653 -0.00546067 0.999984 
0.00166395 0.00481012 0.999987 
0.00182813 0.00389287 0.999991 
0.028124 0.000836116 0.999604 
0.0302897 0.0117952 0.999472 
0.0384013 0.0337842 0.998691 
0.064435 0.0730177 0.995247 
0.07431 0.0546299 0.995738 
0.0840644 0.0779641 0.993406 
0.113374 0.138061 0.983913 
0.159109 0.18447 0.969874 
0.199772 0.251473 0.947023 
0.251487 0.354231 0.900708 
0.32761 0.470171 0.819519 
0.268301 -0.373194 0.888111 
0.210829 -0.284027 0.93535 
0.157098 -0.204466 0.966185 
0.120388 -0.14397 0.982232 
0.101221 -0.106279 0.989171 
0.099336 -0.0771085 0.992062 
0.0718296 -0.052803 0.996018 
0.0327669 -0.0337961 0.998891 
0.0438702 -0.0184655 0.998867 
0.0299622 0.00435441 0.999542 
0.0214671 -0.0148271 0.99966 
0.0147745 -0.00713098 0.999865 
0.0195779 -0.00434488 0.999799 
0.016102 -0.0100836 0.99982 
0.00362372 -0.00703257 0.999969 
0.00102616 -0.00685971 0.999976 
-0.00824706 -0.0134027 0.999876 
0.00315258 -0.0123552 0.999919 
0.00787163 -0.0248643 0.99966 
0.00888052 -0.00683544 0.999937 
0.00259809 -0.00120525 0.999996 
-0.0119949 -0.0097174 0.999881 
-0.00321294 -0.011318 0.999931 
0.0237425 0.00334154 0.999713 
0.0377145 0.00527014 0.999275 
0.03127 0.013624 0.999418 
0.0504668 0.0460472 0.997664 
0.0647225 0.0383163 0.997167 
0.0829282 0.0531495 0.995137 
0.0899081 0.0919232 0.991699 
0.114843 0.131287 0.98467 
0.147488 0.179947 0.972557 
0.182356 0.266693 0.946373 
0.241899 0.362993 0.899845 
0.315918 0.467624 0.825544 
0.215334 -0.3973 0.892067 
0.179559 -0.298819 0.937265 
0.128889 -0.210423 0.969077 
0.0985415 -0.128542 0.986796 
0.0825942 -0.0904042 0.992474 
0.064979 -0.0800404 0.994671 
0.0472991 -0.0496316 0.997647 
0.0292197 -0.0259898 0.999235 
0.0125729 -0.0228927 0.999659 
0.00986158 0.00800846 0.999919 
0.0141372 0.00706377 0.999875 
0.0143273 -0.00986094 0.999849 
0.0131306 0.00128584 0.999913 
0.00893979 -0.00746378 0.999932 
0.00548835 -0.0124565 0.999907 
-0.00168194 -0.00469374 0.999988 
0.0114885 -0.0213344 0.999706 
0.00317511 -0.0363398 0.999334 
0.00278742 -0.025192 0.999679 
0.00242703 -0.00955499 0.999951 
0.0159541 0.000138201 0.999873 
-0.00235618 -0.00343763 0.999991 
-0.0094406 -0.00677652 0.999932 
-0.00546942 0.00756429 0.999956 
0.0279435 0.0156542 0.999487 
0.0155029 0.0123642 0.999803 
0.0264078 0.0152181 0.999535 
0.052913 0.0449062 0.997589 
0.0627568 0.0677045 0.99573 
0.0715764 0.0857144 0.993745 
0.107612 0.121691 0.986717 
0.141971 0.195144 0.970445 
0.17036 0.265668 0.948893 
0.230823 0.349467 0.908071 
0.309476 0.460688 0.83186 
0.180213 -0.413026 0.892711 
0.162712 -0.299373 0.94016 
0.122885 -0.22641 0.966249 
0.085011 -0.151995 0.984719 
0.0746519 -0.0902339 0.993119 
0.0509778 -0.0744329 0.995922 
0.0297598 -0.0508818 0.998261 
0.0265344 -0.0180181 0.999486 
0.0139389 -0.0306299 0.999434 
5.67175e-05 -0.0274336 0.999624 
0.00106225 -0.000731979 0.999999 
0.0102814 -0.00294835 0.999943 
0.0157364 -0.011691 0.999808 
0.00760606 0.00561284 0.999955 
0.00238569 -0.000944105 0.999997 
0.0133947 -0.0152596 0.999794 
0.0191226 -0.0119644 0.999746 
0.0222221 -0.0013661 0.999752 
0.0215799 -0.0256625 0.999438 
0.00534599 -0.00226466 0.999983 
-0.00874321 -0.0109657 0.999902 
0.0264727 -0.0174039 0.999498 
0.0229428 0.00762868 0.999708 
-0.00449653 0.000704571 0.99999 
-0.00887401 -0.00773269 0.999931 
0.00344108 0.027411 0.999618 
0.00580903 0.0170401 0.999838 
0.00873773 0.00384043 0.999954 
0.0221656 0.020766 0.999539 
0.0298414 0.0500238 0.998302 
0.0279178 0.0596826 0.997827 
0.0585001 0.0777141 0.995258 
0.111345 0.128219 0.985476 
0.129427 0.180553 0.975013 
0.156183 0.238305 0.95855 
0.225102 0.333304 0.915553 
0.285636 0.425746 0.858576 
0.144368 -0.448943 0.881821 
0.126608 -0.307705 0.943021 
0.0961143 -0.216069 0.971636 
0.0620888 -0.167651 0.983889 
0.0565472 -0.108756 0.992459 
0.0674944 -0.0633145 0.995709 
0.0475312 -0.0464984 0.997787 
0.0336655 -0.0183144 0.999265 
0.0290579 -0.0104107 0.999524 
0.0111035 -0.0193912 0.99975 
0.00647123 0.0067146 0.999957 
0.016829 -0.00147712 0.999857 
0.0249413 -0.0122462 0.999614 
0.0140455 0.00931268 0.999858 
0.00359594 0.00353842 0.999987 
0.0122717 -0.00753389 0.999896 
0.0208625 0.00104108 0.999782 
0.00037416 0.0109485 0.99994 
0.0176006 -0.00229589 0.999842 
0.0225012 0.000141301 0.999747 
0.00385051 -0.0134174 0.999903 
0.0235261 -0.0163551 0.999589 
0.0321375 0.0172601 0.999334 
0.0136356 0.00154553 0.999906 
0.0130356 -0.0224424 0.999663 
0.00798824 0.00184183 0.999966 
0.016379 -0.00204042 0.999864 
0.0183087 -0.00354226 0.999826 
0.02674 0.0175638 0.999488 
0.0310876 0.0332287 0.998964 
0.0327268 0.050189 0.998203 
0.0647492 0.0882033 0.993996 
0.0943313 0.13554 0.986271 
0.103748 0.168764 0.980181 
0.147527 0.237612 0.960092 
0.212808 0.334684 0.917987 
0.225465 0.430239 0.874105 
0.106625 -0.457191 0.882954 
0.0894005 -0.340084 0.936136 
0.0711631 -0.232489 0.969992 
0.0377585 -0.169618 0.984786 
0.0286565 -0.117012 0.992717 
0.0378558 -0.0575706 0.997623 
0.0333327 -0.0274895 0.999066 
0.0126563 -0.0133318 0.999831 
0.00101636 -0.00794939 0.999968 
-0.00284065 -0.00457421 0.999986 
-0.00351387 0.014374 0.999891 
0.0099752 0.0123635 0.999874 
0.0130736 -0.00410908 0.999906 
0.0177276 -0.00717036 0.999817 
0.0187434 -0.0126378 0.999744 
0.0106192 -0.00502237 0.999931 
0.0122227 0.00122218 0.999925 
0.00933398 0.0167995 0.999815 
0.00256947 0.00576649 0.99998 
0.00389569 -0.0176484 0.999837 
0.0182023 -0.0154107 0.999716 
0.0244976 -0.00867748 0.999662 
0.00350195 -0.00593327 0.999976 
0.0194528 0.016807 0.99967 
0.0263615 0.00274884 0.999649 
0.0308009 -0.0277629 0.99914 
0.0161972 -0.0134059 0.999779 
0.0127489 -0.00584357 0.999902 
0.00844778 -0.00524572 0.999951 
0.0120512 0.000920659 0.999927 
0.0346071 0.0086311 0.999364 
0.0517421 0.011046 0.998599 
0.0488974 0.0356359 0.998168 
0.061128 0.0891388 0.994142 
0.0842621 0.132421 0.987605 
0.0944484 0.170803 0.980768 
0.1316 0.235839 0.96284 
0.174387 0.331065 0.927354 
0.199564 0.447996 0.871478 
0.077264 -0.473861 0.877204 
0.0798686 -0.362758 0.928455 
0.0641256 -0.254843 0.964854 
0.0565654 -0.172641 0.983359 
0.0434711 -0.123865 0.991346 
0.0297341 -0.0680435 0.997239 
0.0148594 -0.0263985 0.999541 
-0.000467744 -0.0114799 0.999934 
-0.00332114 -0.00491024 0.999982 
-0.000843368 -5.23716e-05 1 
0.00783132 0.0114385 0.999904 
0.0108037 0.00971292 0.999894 
0.011039 -0.00794258 0.999908 
0.00796403 -0.0145069 0.999863 
0.0149188 -0.0214647 0.999658 
0.0131378 -0.0194084 0.999725 
0.0116971 0.00031666 0.999932 
0.0229589 0.0203872 0.999529 
0.0212625 0.00810348 0.999741 
0.00160924 -0.0249715 0.999687 
-0.00301621 0.000798962 0.999995 
0.00309355 0.00509991 0.999982 
-0.00682225 -0.0139197 0.99988 
0.00949388 -0.00333813 0.999949 
0.0292993 -0.0213973 0.999342 
0.00369363 -0.0122036 0.999919 
-0.00772247 -0.00531074 0.999956 
0.00383886 -0.00592963 0.999975 
0.00144965 -0.00482814 0.999987 
-0.00670104 -0.00230502 0.999975 
0.0220961 0.00196755 0.999754 
0.0342547 0.0127209 0.999332 
0.022394 0.0330605 0.999202 
0.0515697 0.0777232 0.99564 
0.0893966 0.128328 0.987694 
0.0933139 0.173721 0.980364 
0.0920488 0.235397 0.96753 
0.129665 0.325648 0.936558 
0.16332 0.463246 0.871051 
0.0589419 -0.51633 0.854359 
0.0576694 -0.385431 0.920933 
0.0428352 -0.268278 0.962389 
0.0316989 -0.189665 0.981337 
0.0375663 -0.136349 0.989948 
0.0282298 -0.0925263 0.99531 
0.00852156 -0.0539589 0.998507 
0.0106078 -0.0276998 0.99956 
0.018454 -0.00518476 0.999816 
0.0210335 0.00745368 0.999751 
0.0203064 0.0134424 0.999703 
0.0221881 0.00783691 0.999723 
0.0221921 0.00197367 0.999752 
0.0170993 0.00803941 0.999821 
0.0156362 -0.00187573 0.999876 
0.0105764 -0.0120362 0.999872 
0.00603128 -0.00584209 0.999965 
0.0241151 0.00111091 0.999709 
0.012671 -0.0150294 0.999807 
0.000364552 -0.00564577 0.999984 
0.00281378 0.000535024 0.999996 
-0.0058556 0.00564891 0.999967 
0.00734772 -0.0196693 0.99978 
0.0214729 -0.0306428 0.9993 
0.00548971 -0.0101687 0.999933 
-0.0192506 -0.00766748 0.999785 
0.00733261 -0.0309764 0.999493 
0.0356713 -0.0207288 0.999149 
0.0113144 -0.00515263 0.999923 
-0.00262214 -0.01413 0.999897 
0.0208101 0.0123731 0.999707 
0.0267101 0.0399364 0.998845 
0.0275391 0.0387983 0.998868 
0.0624275 0.0654041 0.995904 
0.087065 0.135576 0.986934 
0.080255 0.2005 0.976401 
0.0876763 0.25295 0.963498 
0.114041 0.351003 0.929404 
0.138858 0.470989 0.871142 
0.0599514 -0.524974 0.849004 
0.0482848 -0.354802 0.933694 
0.0207122 -0.234943 0.971789 
0.0206204 -0.161787 0.98661 
0.017334 -0.105697 0.994247 
-0.00132265 -0.0677937 0.997698 
0.00583785 -0.0450302 0.998969 
0.0241107 -0.0125386 0.999631 
0.0183021 0.0110039 0.999772 
0.00994162 0.0127874 0.999869 
0.00693442 0.00433859 0.999967 
0.0103608 -0.00161185 0.999945 
0.0168964 0.00668946 0.999835 
0.0171671 0.0143183 0.99975 
0.0123955 0.00759701 0.999894 
0.00753922 -0.000758251 0.999971 
0.0111056 -0.0189284 0.999759 
0.0137632 -0.0329098 0.999364 
0.00519414 -0.0333236 0.999431 
0.000681412 -0.0118064 0.99993 
0.0149243 -0.0260973 0.999548 
0.0141451 -0.00197483 0.999898 
0.0120312 -0.00893994 0.999888 
0.0122742 -0.0203153 0.999718 
0.00282222 -0.0101687 0.999944 
-0.0062911 0.00601097 0.999962 
0.00900874 -0.0245194 0.999659 
0.0335651 -0.0389131 0.998679 
0.0323734 0.0060883 0.999457 
0.0108745 -0.00993593 0.999892 
0.00738629 -0.0410895 0.999128 
0.0273104 0.0143532 0.999524 
0.0382145 0.0405435 0.998447 
0.0330955 0.0241958 0.999159 
0.0275893 0.0730147 0.996949 
0.0346369 0.15736 0.986934 
0.0573027 0.2273 0.972137 
0.0925082 0.320641 0.942673 
0.126924 0.466589 0.87532 
0.0547249 -0.533147 0.844251 
0.0427292 -0.399951 0.91554 
0.0361002 -0.285832 0.9576 
0.0265026 -0.197692 0.979906 
0.0251167 -0.122427 0.99216 
0.00981867 -0.0703104 0.997477 
0.00405322 -0.0464786 0.998911 
0.0157685 -0.0142818 0.999774 
0.00589735 0.00897118 0.999942 
0.00387212 0.00334367 0.999987 
0.0176718 0.00101905 0.999843 
0.0102194 0.00112697 0.999947 
0.00376808 -0.00525751 0.999979 
0.0107785 7.17102e-05 0.999942 
0.0132305 0.0066514 0.99989 
0.0127342 -0.00168053 0.999918 
0.0251868 -0.0100245 0.999632 
0.0248242 -0.0142867 0.99959 
0.0137253 -0.00694559 0.999882 
0.00596599 -0.0278338 0.999595 
0.0196913 -0.0294107 0.999373 
0.00235754 -0.0163869 0.999863 
0.000156993 -0.00353375 0.999994 
-0.00337949 -0.0145149 0.999889 
-0.00321073 -0.00256145 0.999992 
0.0153509 -0.00431143 0.999873 
0.00556862 -0.0261315 0.999643 
-0.0167708 0.00163156 0.999858 
-0.0141895 0.0158273 0.999774 
-0.00706974 -0.0399069 0.999178 
-0.0152777 -0.0399893 0.999083 
-0.00237276 0.0193095 0.999811 
0.0221851 0.0307774 0.99928 
0.0160235 0.0466621 0.998782 
0.00978443 0.106523 0.994262 
0.0353583 0.157027 0.986961 
0.0644604 0.229238 0.971234 
0.0771625 0.337147 0.938284 
0.0833454 0.421158 0.90315 
0.038569 -0.518247 0.854361 
0.0349183 -0.360372 0.932155 
0.0260223 -0.246023 0.968915 
0.0299577 -0.158194 0.986953 
0.0228402 -0.0930794 0.995397 
0.0109119 -0.0603799 0.998116 
0.0106536 -0.0205035 0.999733 
-0.000886912 0.0123052 0.999924 
-0.00124294 -0.00421854 0.99999 
0.0326349 -0.01458 0.999361 
0.0330478 0.0134303 0.999364 
0.00639409 0.0120197 0.999907 
0.00743718 -0.00479315 0.999961 
0.0146619 0.00503346 0.99988 
0.0124155 0.00232084 0.99992 
0.0148365 -0.00714682 0.999864 
0.0269862 0.00123523 0.999635 
0.0193341 0.0122158 0.999738 
0.0103524 -0.000522819 0.999946 
0.0271726 -0.00171696 0.999629 
0.0403292 -0.0108146 0.999128 
0.00916136 -0.0129362 0.999874 
-0.000570466 -0.00947681 0.999955 
0.0151896 -0.0190236 0.999704 
0.00739861 -0.0195179 0.999782 
0.00663234 -0.00490923 0.999966 
0.0162375 -0.00463025 0.999857 
-0.00586822 -0.0185128 0.999811 
-0.0164021 -0.00694103 0.999841 
0.00662954 -0.00412988 0.999969 
0.00218589 -0.0139417 0.9999 
-0.0193289 0.0035719 0.999807 
-0.00499596 0.0215489 0.999755 
0.0198238 0.0416272 0.998937 
0.0246592 0.0893788 0.995692 
0.0291208 0.116034 0.992818 
0.0336171 0.168224 0.985175 
0.0508099 0.288838 0.956029 
0.0694399 0.413441 0.907879 
0.0504252 -0.505187 0.861536 
0.0219054 -0.379846 0.92479 
0.0139776 -0.277339 0.96067 
0.0115595 -0.189347 0.981842 
0.0103407 -0.112785 0.993566 
-0.00152991 -0.0746279 0.99721 
-0.00591705 -0.0493359 0.998765 
-0.00119489 -0.000187245 0.999999 
-8.15562e-05 0.0135766 0.999908 
0.0202526 -0.0144723 0.99969 
0.0278733 -0.000520731 0.999611 
0.00340305 0.0229603 0.999731 
0.0049931 -0.00321208 0.999982 
0.0269352 -0.0129058 0.999554 
0.0159061 0.0125433 0.999795 
-0.00491841 0.0110972 0.999926 
-0.0037422 -0.0089571 0.999953 
0.000783825 -0.00876888 0.999961 
-0.00625636 -0.0107331 0.999923 
0.0263991 -0.0159344 0.999524 
0.0354379 -0.00333907 0.999366 
0.0156071 -0.0158481 0.999753 
0.0248789 -0.0326438 0.999157 
0.0187513 -0.026723 0.999467 
0.00332269 -0.0131686 0.999908 
0.00988106 -0.00931508 0.999908 
0.0172941 -0.0175589 0.999696 
0.0129584 -0.0402219 0.999107 
0.0106382 -0.0349305 0.999333 
0.0134741 -0.00249112 0.999906 
0.0104216 0.0102341 0.999893 
0.00298586 0.00733886 0.999969 
0.00429258 0.0124594 0.999913 
0.00928908 0.0507839 0.998666 
0.00855691 0.104881 0.994448 
-0.00161337 0.141038 0.990003 
-0.0031136 0.216777 0.976216 
0.00906694 0.31888 0.947752 
0.0289923 0.403078 0.914706 
0.00645472 -0.494126 0.869366 
-0.0065657 -0.334979 0.942203 
-0.0150838 -0.241918 0.970179 
-0.00696374 -0.150097 0.988647 
-0.0110268 -0.0709146 0.997421 
-0.0139584 -0.0593933 0.998137 
0.000100335 -0.0392614 0.999229 
0.0129825 0.0149021 0.999805 
0.022726 0.0185052 0.99957 
0.0166962 0.00659098 0.999839 
-0.0124004 0.0157274 0.999799 
-0.00443131 -0.0119818 0.999918 
0.0270839 -0.0354071 0.999006 
0.0179211 -0.00381712 0.999832 
-0.00385951 0.016208 0.999861 
-0.0017956 -0.00271737 0.999995 
0.0133423 -0.0191791 0.999727 
0.00863737 -0.00957083 0.999917 