# vtk DataFile Version 3.0 
Exported using Morpho https://github.com/Morpho-lang/morpho 
ASCII 
DATASET UNSTRUCTURED_GRID 

POINTS 1245 float 
-0.303845 -0.952721 0 
-0.250833 -0.96803 0 
-0.195084 -0.980787 0 
-0.146308 -0.989239 0 
-0.0940719 -0.995565 0 
-0.0475118 -0.998871 0 
-0.000246339 -1 0 
0.0470875 -0.998891 0 
0.0937543 -0.995595 0 
0.146139 -0.989264 0 
0.195062 -0.980791 0 
0.250843 -0.968028 0 
0.303953 -0.952687 0 
-0.409153 -0.912466 0 
-0.356519 -0.934288 0 
-0.308871 -0.898929 0 
-0.258282 -0.916037 0 
-0.207345 -0.934859 0 
-0.154868 -0.930629 0 
-0.104343 -0.948989 0 
-0.0520099 -0.939193 0 
-8.5762e-05 -0.954582 0 
0.0518744 -0.939288 0 
0.104354 -0.949042 0 
0.154696 -0.9306 0 
0.207366 -0.934975 0 
0.258274 -0.916081 0 
0.308979 -0.898924 0 
0.356593 -0.93426 0 
0.409236 -0.912429 0 
-0.513788 -0.857917 0 
-0.461695 -0.887039 0 
-0.411157 -0.857936 0 
-0.359855 -0.879963 0 
-0.306888 -0.847481 0 
-0.254732 -0.866979 0 
-0.201991 -0.889059 0 
-0.149956 -0.874108 0 
-0.100608 -0.900088 0 
-0.0497575 -0.880388 0 
2.4595e-05 -0.904789 0 
0.0496869 -0.8804 0 
0.100612 -0.900177 0 
0.149872 -0.874171 0 
0.202071 -0.889165 0 
0.254695 -0.867031 0 
0.306946 -0.847482 0 
0.359894 -0.879943 0 
0.411236 -0.857929 0 
0.461748 -0.887011 0 
0.513842 -0.857885 0 
-0.564741 -0.825268 0 
-0.512908 -0.802945 0 
-0.462372 -0.832348 0 
-0.410124 -0.804631 0 
-0.358606 -0.827415 0 
-0.305781 -0.795641 0 
-0.25358 -0.816639 0 
-0.200756 -0.839997 0 
-0.149043 -0.818944 0 
-0.0987265 -0.846667 0 
-0.0490473 -0.822548 0 
5.00659e-05 -0.849932 0 
0.0490834 -0.822542 0 
0.0987838 -0.846676 0 
0.148997 -0.818924 0 
0.200826 -0.840131 0 
0.253508 -0.816728 0 
0.305831 -0.795701 0 
0.358581 -0.827419 0 
0.410181 -0.804654 0 
0.462414 -0.83234 0 
0.512965 -0.802929 0 
0.564777 -0.825243 0 
-0.660798 -0.750564 0 
-0.614015 -0.789295 0 
-0.561786 -0.769772 0 
-0.510673 -0.747856 0 
-0.460836 -0.778365 0 
-0.408794 -0.751554 0 
-0.357337 -0.774971 0 
-0.304815 -0.743684 0 
-0.252907 -0.765535 0 
-0.200631 -0.789263 0 
-0.149244 -0.764328 0 
-0.0986912 -0.791935 0 
-0.0492815 -0.765764 0 
4.16586e-05 -0.79382 0 
0.0492411 -0.765708 0 
0.0987508 -0.791951 0 
0.149196 -0.764326 0 
0.200666 -0.789356 0 
0.252841 -0.765599 0 
0.304862 -0.743741 0 
0.357323 -0.775038 0 
0.408863 -0.751626 0 
0.460863 -0.778382 0 
0.510716 -0.747859 0 
0.561819 -0.769761 0 
0.614041 -0.789274 0 
0.660811 -0.750552 0 
-0.707107 -0.707107 0 
-0.654819 -0.699058 0 
-0.60813 -0.73348 0 
-0.558104 -0.71337 0 
-0.509495 -0.692659 0 
-0.45935 -0.724356 0 
-0.407328 -0.698865 0 
-0.355968 -0.722823 0 
-0.303722 -0.691387 0 
-0.252254 -0.71362 0 
-0.20067 -0.737336 0 
-0.149608 -0.710068 0 
-0.0991558 -0.737129 0 
-0.0495872 -0.709825 0 
-2.23646e-05 -0.737917 0 
0.0494408 -0.709766 0 
0.0991291 -0.737116 0 
0.149502 -0.710042 0 
0.200696 -0.73743 0 
0.252186 -0.713735 0 
0.303753 -0.691518 0 
0.355952 -0.722893 0 
0.407371 -0.698945 0 
0.459374 -0.724407 0 
0.509524 -0.692668 0 
0.558131 -0.713361 0 
0.608151 -0.733462 0 
0.654824 -0.699048 0 
0.707107 -0.707107 0 
-0.750564 -0.660798 0 
-0.699058 -0.654819 0 
-0.647692 -0.647692 0 
-0.603437 -0.675718 0 
-0.55905 -0.655305 0 
-0.508501 -0.639581 0 
-0.457509 -0.671321 0 
-0.405555 -0.646545 0 
-0.354417 -0.670703 0 
-0.302427 -0.639219 0 
-0.251503 -0.661417 0 
-0.20061 -0.684911 0 
-0.149717 -0.655943 0 
-0.0995004 -0.682466 0 
-0.0498216 -0.654561 0 
-5.02113e-05 -0.682664 0 
0.0496787 -0.654499 0 
0.0994374 -0.682501 0 
0.149603 -0.655909 0 
0.200573 -0.684972 0 
0.251388 -0.661524 0 
0.302407 -0.639359 0 
0.354397 -0.670836 0 
0.405575 -0.646641 0 
0.457525 -0.67138 0 
0.508497 -0.639623 0 
0.559063 -0.655324 0 
0.603436 -0.675715 0 
0.64769 -0.64769 0 
0.699048 -0.654824 0 
0.750552 -0.660811 0 
-0.789295 -0.614015 0 
-0.73348 -0.60813 0 
-0.675718 -0.603437 0 
-0.613088 -0.613088 0 
-0.55962 -0.604068 0 
-0.506189 -0.588854 0 
-0.455505 -0.618874 0 
-0.403019 -0.594688 0 
-0.352514 -0.618952 0 
-0.300977 -0.586897 0 
-0.250543 -0.608767 0 
-0.200257 -0.632053 0 
-0.150049 -0.601979 0 
-0.0998281 -0.628222 0 
-0.0500377 -0.599914 0 
-3.12334e-05 -0.628076 0 
0.0498927 -0.599835 0 
0.0997818 -0.628253 0 
0.149924 -0.601867 0 
0.200214 -0.632118 0 
0.250423 -0.608915 0 
0.30086 -0.587085 0 
0.352457 -0.619096 0 
0.402948 -0.594743 0 
0.455483 -0.618952 0 
0.506147 -0.588901 0 
0.55964 -0.604067 0 
0.613069 -0.613069 0 
0.675715 -0.603436 0 
0.733462 -0.608151 0 
0.789274 -0.614041 0 
-0.825268 -0.564741 0 
-0.769772 -0.561786 0 
-0.71337 -0.558104 0 
-0.655305 -0.55905 0 
-0.604068 -0.55962 0 
-0.551031 -0.551031 0 
-0.497922 -0.537596 0 
-0.451508 -0.567021 0 
-0.399773 -0.542431 0 
-0.350494 -0.567003 0 
-0.301574 -0.534146 0 
-0.250874 -0.555692 0 
-0.200542 -0.579013 0 
-0.150324 -0.548268 0 
-0.100169 -0.57443 0 
-0.0500152 -0.545912 0 
-3.29278e-05 -0.574268 0 
0.0499208 -0.545788 0 
0.100058 -0.574485 0 
0.150038 -0.548073 0 
0.200377 -0.579041 0 
0.250556 -0.55585 0 
0.301273 -0.534348 0 
0.350318 -0.567174 0 
0.399615 -0.542384 0 
0.451404 -0.5671 0 
0.497945 -0.537702 0 
0.551073 -0.551073 0 
0.604067 -0.55964 0 
0.655324 -0.559063 0 
0.713361 -0.558131 0 
0.769761 -0.561819 0 
0.825243 -0.564777 0 
-0.857917 -0.513788 0 
-0.802945 -0.512908 0 
-0.747856 -0.510673 0 
-0.692659 -0.509495 0 
-0.639581 -0.508501 0 
-0.588854 -0.506189 0 
-0.537596 -0.497922 0 
-0.486157 -0.486157 0 
-0.444928 -0.512952 0 
-0.401787 -0.486784 0 
-0.351685 -0.513639 0 
-0.299695 -0.48291 0 
-0.250032 -0.503 0 
-0.200501 -0.526165 0 
-0.149489 -0.495195 0 
-0.0999281 -0.521367 0 
-0.0499712 -0.492294 0 
4.64723e-05 -0.520999 0 
0.050147 -0.492108 0 
0.099934 -0.52133 0 
0.14957 -0.494692 0 
0.200133 -0.526255 0 
0.249839 -0.503309 0 
0.299839 -0.483005 0 
0.351514 -0.513798 0 
0.401881 -0.486608 0 
0.444935 -0.513054 0 
0.486228 -0.486228 0 
0.537702 -0.497945 0 
0.588901 -0.506147 0 
0.639623 -0.508497 0 
0.692668 -0.509524 0 
0.747859 -0.510716 0 
0.802929 -0.512965 0 
0.857885 -0.513842 0 
-0.887039 -0.461695 0 
-0.832348 -0.462372 0 
-0.778365 -0.460836 0 
-0.724356 -0.45935 0 
-0.671321 -0.457509 0 
-0.618874 -0.455505 0 
-0.567021 -0.451508 0 
-0.512952 -0.444928 0 
-0.450685 -0.450685 0 
-0.397667 -0.437543 0 
-0.348492 -0.462546 0 
-0.295416 -0.432968 0 
-0.247004 -0.450633 0 
-0.198702 -0.473818 0 
-0.150161 -0.441625 0 
-0.100085 -0.468395 0 
-0.0502271 -0.439281 0 
0.000144229 -0.468374 0 
0.0504178 -0.439106 0 
0.100428 -0.468348 0 
0.150697 -0.441105 0 
0.199103 -0.473881 0 
0.247983 -0.450921 0 
0.296569 -0.432268 0 
0.348831 -0.462562 0 
0.397506 -0.4368 0 
0.450637 -0.450637 0 
0.513054 -0.444935 0 
0.5671 -0.451404 0 
0.618952 -0.455483 0 
0.67138 -0.457525 0 
0.724407 -0.459374 0 
0.778382 -0.460863 0 
0.83234 -0.462414 0 
0.887011 -0.461748 0 
-0.912466 -0.409153 0 
-0.857936 -0.411157 0 
-0.804631 -0.410124 0 
-0.751554 -0.408794 0 
-0.698865 -0.407328 0 
-0.646545 -0.405555 0 
-0.594688 -0.403019 0 
-0.542431 -0.399773 0 
-0.486784 -0.401787 0 
-0.437543 -0.397667 0 
-0.387256 -0.387256 0 
-0.344215 -0.411459 0 
-0.30136 -0.381507 0 
-0.25021 -0.395692 0 
-0.200211 -0.419975 0 
-0.150955 -0.389014 0 
-0.100617 -0.416095 0 
-0.0503197 -0.386922 0 
-4.02994e-05 -0.416525 0 
0.05006 -0.386948 0 
0.100784 -0.416323 0 
0.150432 -0.388572 0 
0.200855 -0.420694 0 
0.25086 -0.396905 0 
0.301746 -0.379789 0 
0.344135 -0.410678 0 
0.385823 -0.385823 0 
0.4368 -0.397506 0 
0.486608 -0.401881 0 
0.542384 -0.399615 0 
0.594743 -0.402948 0 
0.646641 -0.405575 0 
0.698945 -0.407371 0 
0.751626 -0.408863 0 
0.804654 -0.410181 0 
0.857929 -0.411236 0 
0.912429 -0.409236 0 
-0.934288 -0.356519 0 
-0.879963 -0.359855 0 
-0.827415 -0.358606 0 
-0.774971 -0.357337 0 
-0.722823 -0.355968 0 
-0.670703 -0.354417 0 
-0.618952 -0.352514 0 
-0.567003 -0.350494 0 
-0.513639 -0.351685 0 
-0.462546 -0.348492 0 
-0.411459 -0.344215 0 
-0.351697 -0.351697 0 
-0.29839 -0.336232 0 
-0.249846 -0.342529 0 
-0.200971 -0.367271 0 
-0.149995 -0.337521 0 
-0.100435 -0.3646 0 
-0.0498692 -0.335025 0 
-6.88684e-05 -0.365025 0 
0.0495433 -0.334795 0 
0.0996798 -0.364834 0 
0.148162 -0.337172 0 
0.199644 -0.368939 0 
0.24763 -0.345582 0 
0.295348 -0.332889 0 
0.34978 -0.34978 0 
0.410678 -0.344135 0 
0.462562 -0.348831 0 
0.513798 -0.351514 0 
0.567174 -0.350318 0 
0.619096 -0.352457 0 
0.670836 -0.354397 0 
0.722893 -0.355952 0 
0.775038 -0.357323 0 
0.827419 -0.358581 0 
0.879943 -0.359894 0 
0.93426 -0.356593 0 
-0.952721 -0.303845 0 
-0.898929 -0.308871 0 
-0.847481 -0.306888 0 
-0.795641 -0.305781 0 
-0.743684 -0.304815 0 
-0.691387 -0.303722 0 
-0.639219 -0.302427 0 
-0.586897 -0.300977 0 
-0.534146 -0.301574 0 
-0.48291 -0.299695 0 
-0.432968 -0.295416 0 
-0.381507 -0.30136 0 
-0.336232 -0.29839 0 
-0.288184 -0.288184 0 
-0.242975 -0.290577 0 
-0.198059 -0.315051 0 
-0.148383 -0.285894 0 
-0.0994753 -0.313232 0 
-0.0507184 -0.283118 0 
-0.000202902 -0.313447 0 
0.0500077 -0.282824 0 
0.0988289 -0.312817 0 
0.148102 -0.28482 0 
0.195742 -0.317413 0 
0.240766 -0.295824 0 
0.285014 -0.285014 0 
0.332889 -0.295348 0 
0.379789 -0.301746 0 
0.432268 -0.296569 0 
0.483005 -0.299839 0 
0.534348 -0.301273 0 
0.587085 -0.30086 0 
0.639359 -0.302407 0 
0.691518 -0.303753 0 
0.743741 -0.304862 0 
0.795701 -0.305831 0 
0.847482 -0.306946 0 
0.898924 -0.308979 0 
0.952687 -0.303953 0 
-0.96803 -0.250833 0 
-0.916037 -0.258282 0 
-0.866979 -0.254732 0 
-0.816639 -0.25358 0 
-0.765535 -0.252907 0 
-0.71362 -0.252254 0 
-0.661417 -0.251503 0 
-0.608767 -0.250543 0 
-0.555692 -0.250874 0 
-0.503 -0.250032 0 
-0.450633 -0.247004 0 
-0.395692 -0.25021 0 
-0.342529 -0.249846 0 
-0.290577 -0.242975 0 
-0.239946 -0.239946 0 
-0.194478 -0.26004 0 
-0.151293 -0.23238 0 
-0.101048 -0.260904 0 
-0.0503938 -0.232537 0 
-0.000203281 -0.262984 0 
0.050638 -0.232316 0 
0.100942 -0.260855 0 
0.152412 -0.232597 0 
0.195768 -0.261421 0 
0.241873 -0.241873 0 
0.295824 -0.240766 0 
0.345582 -0.24763 0 
0.396905 -0.25086 0 
0.450921 -0.247983 0 
[...]
POINT_DATA 1245 
VECTORS vectors float
0.610669 -0.20135 0.76586 
0.61858 -0.174729 0.766047 
0.622322 -0.145952 0.769034 
0.623091 -0.119895 0.772905 
0.621478 -0.0903428 0.778205 
0.618946 -0.0639391 0.782827 
0.615021 -0.0373349 0.787627 
0.603348 -0.00728865 0.797445 
0.592165 0.0274355 0.805349 
0.581108 0.0719644 0.810639 
0.572778 0.114741 0.81164 
0.56587 0.164041 0.808011 
0.560555 0.20805 0.801557 
0.584805 -0.257006 0.769384 
0.599377 -0.228655 0.767114 
0.493081 -0.173875 0.852431 
0.503164 -0.152568 0.850617 
0.521255 -0.132161 0.843105 
0.48942 -0.102266 0.866031 
0.514987 -0.0825267 0.853216 
0.47839 -0.0528062 0.876558 
0.504535 -0.0293029 0.862894 
0.464017 0.00182087 0.885824 
0.48621 0.035168 0.873134 
0.452317 0.0687134 0.889207 
0.476364 0.110905 0.872225 
0.458716 0.145539 0.876583 
0.451884 0.179179 0.873897 
0.556186 0.248383 0.793072 
0.551422 0.284497 0.784216 
0.546337 -0.317996 0.774851 
0.566995 -0.28676 0.772195 
0.471435 -0.221695 0.853581 
0.483091 -0.19719 0.853076 
0.392515 -0.146106 0.908066 
0.403608 -0.12672 0.906114 
0.423365 -0.110496 0.899195 
0.377387 -0.0807101 0.922532 
0.411295 -0.0665693 0.909068 
0.364233 -0.0402999 0.930436 
0.400757 -0.0218977 0.915923 
0.353412 0.00353759 0.935461 
0.38836 0.0301404 0.921015 
0.349087 0.0557068 0.935433 
0.386985 0.0922828 0.917457 
0.367434 0.120569 0.922202 
0.360596 0.149331 0.92069 
0.448791 0.21168 0.868204 
0.445764 0.241745 0.861889 
0.544599 0.316417 0.776719 
0.533982 0.345071 0.771874 
0.523777 -0.350217 0.776534 
0.440528 -0.274243 0.854825 
0.457239 -0.2475 0.854211 
0.374627 -0.187677 0.907982 
0.384169 -0.166058 0.908206 
0.309057 -0.121371 0.943267 
0.319453 -0.106168 0.941636 
0.336612 -0.091167 0.93722 
0.289977 -0.0650817 0.954818 
0.318925 -0.0530087 0.946296 
0.275202 -0.0307111 0.960896 
0.308394 -0.0159245 0.951125 
0.267282 0.00464145 0.963607 
0.301491 0.026161 0.95311 
0.268907 0.0466138 0.962038 
0.307959 0.0776059 0.948229 
0.292262 0.100967 0.950993 
0.284451 0.123497 0.950703 
0.357507 0.176245 0.917129 
0.355223 0.202125 0.912668 
0.44041 0.269145 0.856504 
0.431237 0.294344 0.852875 
0.518571 0.371934 0.769902 
0.477403 -0.412032 0.77609 
0.500464 -0.382239 0.776807 
0.42174 -0.300691 0.855406 
0.349603 -0.232554 0.907577 
0.363348 -0.209975 0.907683 
0.295315 -0.157783 0.942281 
0.302319 -0.139255 0.94298 
0.241781 -0.101426 0.965015 
0.25002 -0.0874555 0.964283 
0.264114 -0.0756855 0.961517 
0.221941 -0.0524191 0.97365 
0.244167 -0.0422703 0.968811 
0.207786 -0.0238561 0.977883 
0.234229 -0.011453 0.972114 
0.202007 0.00511308 0.979371 
0.231316 0.022762 0.972612 
0.206493 0.0391465 0.977665 
0.242598 0.0651609 0.967936 
0.229358 0.0836933 0.969737 
0.224172 0.102684 0.969125 
0.282832 0.146505 0.947915 
0.280829 0.168331 0.944881 
0.350738 0.225796 0.908845 
0.342329 0.247781 0.90632 
0.417267 0.317733 0.851431 
0.498435 0.398601 0.769857 
0.474955 0.425608 0.770244 
0.452647 -0.439478 0.775867 
0.391056 -0.355971 0.84874 
0.401934 -0.325507 0.855859 
0.33344 -0.253979 0.907916 
0.275358 -0.196878 0.940966 
0.286212 -0.177117 0.941654 
0.231408 -0.132486 0.963793 
0.236824 -0.11605 0.964597 
0.18752 -0.0836377 0.978693 
0.194401 -0.0726804 0.978226 
0.204826 -0.0621096 0.976826 
0.169485 -0.0426324 0.98461 
0.185856 -0.0338006 0.981995 
0.156829 -0.0186539 0.98745 
0.177112 -0.00823999 0.984156 
0.152697 0.00501518 0.98826 
0.176548 0.0196474 0.984096 
0.158393 0.0327005 0.986835 
0.189063 0.0544531 0.980454 
0.179612 0.0694747 0.981281 
0.174432 0.084576 0.98103 
0.222046 0.121263 0.967466 
0.221042 0.140241 0.965129 
0.276801 0.188944 0.942168 
0.269998 0.208755 0.939959 
0.329494 0.267919 0.905347 
0.399271 0.340092 0.851422 
0.38841 0.370122 0.843888 
0.448009 0.454177 0.770072 
0.425998 -0.462818 0.777384 
0.368202 -0.377893 0.849485 
0.31546 -0.304051 0.898909 
0.316504 -0.274225 0.908089 
0.262029 -0.216091 0.940556 
0.217981 -0.167653 0.961445 
0.225095 -0.149167 0.962851 
0.181122 -0.111064 0.977169 
0.184776 -0.0971375 0.977968 
0.145526 -0.0698245 0.986887 
0.149996 -0.0597205 0.986881 
0.157826 -0.0509816 0.98615 
0.128868 -0.034446 0.991063 
0.140966 -0.0270946 0.989644 
0.118243 -0.0146747 0.992876 
0.13384 -0.00605966 0.990984 
0.115319 0.00467847 0.993317 
0.134352 0.0166715 0.990793 
0.121001 0.027192 0.99228 
0.146413 0.0451402 0.988193 
0.139303 0.057373 0.988586 
0.136435 0.0701671 0.988161 
0.174563 0.100844 0.979468 
0.173359 0.116994 0.977885 
0.218132 0.158277 0.962999 
0.214072 0.177544 0.960547 
0.259199 0.227827 0.938568 
0.314256 0.287632 0.904716 
0.31378 0.318466 0.894495 
0.36542 0.3942 0.843252 
0.420456 0.481921 0.768745 
0.397172 -0.48189 0.781049 
0.337132 -0.386449 0.858487 
0.284131 -0.303489 0.909485 
0.250503 -0.240549 0.937755 
0.210494 -0.187648 0.959417 
0.172835 -0.142757 0.97455 
0.176315 -0.125915 0.976247 
0.141106 -0.0932354 0.985594 
0.143474 -0.0807467 0.986354 
0.11192 -0.0576858 0.992042 
0.115258 -0.0493378 0.99211 
0.120988 -0.0419336 0.991768 
0.0977783 -0.028181 0.994809 
0.106825 -0.0218972 0.994037 
0.0890972 -0.0117346 0.995954 
0.101158 -0.00452769 0.99486 
0.0870372 0.00407728 0.996197 
0.102163 0.0140353 0.994669 
0.0922008 0.0224716 0.995487 
0.112918 0.0373433 0.992902 
0.107778 0.0473091 0.993049 
0.105447 0.0578421 0.992741 
0.135913 0.0835219 0.987194 
0.135947 0.097568 0.9859 
0.171658 0.133018 0.976135 
0.170373 0.15088 0.97376 
0.209107 0.198274 0.957581 
0.249646 0.253134 0.934666 
0.284104 0.319176 0.904108 
0.336349 0.405978 0.849736 
0.394351 0.506036 0.767082 
0.364026 -0.499554 0.786086 
0.311083 -0.402169 0.861097 
0.262429 -0.317643 0.911172 
0.223884 -0.250135 0.941971 
0.195056 -0.200701 0.960038 
0.16341 -0.155971 0.974151 
0.134174 -0.119134 0.983771 
0.137965 -0.10563 0.984788 
0.109285 -0.0779168 0.990952 
0.111446 -0.0677623 0.991458 
0.0863774 -0.0485184 0.99508 
0.0882595 -0.0411212 0.995248 
0.0923197 -0.0344035 0.995135 
0.0740624 -0.0230828 0.996986 
0.0807749 -0.0177339 0.996575 
0.0671624 -0.00944455 0.997697 
0.0764133 -0.00347499 0.99707 
0.065707 0.0035056 0.997833 
0.0775126 0.0117184 0.996923 
0.0701522 0.0185665 0.997364 
0.0866575 0.0309103 0.995759 
0.0830001 0.0392334 0.995777 
0.0820213 0.0484755 0.995451 
0.106329 0.06962 0.991891 
0.105623 0.0812265 0.991083 
0.134478 0.111423 0.984632 
0.133227 0.125785 0.983071 
0.16302 0.164981 0.972731 
0.195848 0.212134 0.957415 
0.225749 0.264163 0.937686 
0.265366 0.335556 0.903871 
0.31479 0.42476 0.848815 
0.368196 0.52696 0.765993 
0.326999 -0.516777 0.79121 
0.281313 -0.416411 0.864561 
0.238436 -0.330524 0.913183 
0.202112 -0.260589 0.944057 
0.172911 -0.206011 0.963152 
0.148079 -0.164015 0.97528 
0.124067 -0.127436 0.984057 
0.103429 -0.097773 0.98982 
0.104886 -0.0875848 0.99062 
0.0842683 -0.066499 0.994222 
0.0856635 -0.0572941 0.994675 
0.066369 -0.0407992 0.996961 
0.0672793 -0.0339314 0.997157 
0.0703316 -0.0286252 0.997113 
0.0559552 -0.0189042 0.998254 
0.0610666 -0.014539 0.998028 
0.0504396 -0.00772719 0.998697 
0.0576798 -0.00281703 0.998331 
0.0494248 0.00282473 0.998774 
0.0587907 0.00955022 0.998225 
0.053188 0.0151548 0.99847 
0.0663722 0.0254467 0.99747 
0.0638818 0.0324644 0.997429 
0.0633479 0.0402614 0.997179 
0.0823827 0.0584977 0.994882 
0.082048 0.0691294 0.994228 
0.103511 0.0916453 0.990397 
0.102618 0.103152 0.989358 
0.125024 0.134546 0.982989 
0.150137 0.173358 0.973348 
0.176297 0.21798 0.959898 
0.207578 0.275665 0.938573 
0.24623 0.349642 0.903948 
0.29201 0.439941 0.849224 
0.341404 0.543722 0.766688 
0.28728 -0.534506 0.794842 
0.24872 -0.42983 0.867977 
0.211487 -0.341367 0.915828 
0.179167 -0.268783 0.946391 
0.151702 -0.211598 0.965512 
0.128658 -0.166036 0.977691 
0.109228 -0.129519 0.985543 
0.0905605 -0.0995654 0.990901 
0.0792585 -0.0753511 0.994002 
0.0651984 -0.0566428 0.996263 
0.0663752 -0.0481703 0.996631 
0.0509674 -0.0338416 0.998127 
0.0511478 -0.0283457 0.998289 
0.0533301 -0.0235039 0.9983 
0.0420785 -0.015811 0.998989 
0.046095 -0.0119942 0.998865 
0.0379147 -0.00648399 0.99926 
0.0435647 -0.00228862 0.999048 
0.0372234 0.00222306 0.999304 
0.0445091 0.00796178 0.998977 
0.0402377 0.012391 0.999113 
0.0507366 0.0209134 0.998493 
0.0488439 0.0266259 0.998451 
0.04911 0.0334039 0.998235 
0.0643568 0.0491211 0.996717 
0.0639198 0.0578979 0.996274 
0.0790712 0.0785672 0.993768 
0.0922609 0.104245 0.990263 
0.111545 0.136529 0.984336 
0.13322 0.175044 0.975506 
0.158429 0.223203 0.961811 
0.188819 0.283521 0.940193 
0.225244 0.359406 0.90559 
0.26755 0.450944 0.851508 
0.31283 0.556741 0.769531 
0.246986 -0.553053 0.795695 
0.215231 -0.443256 0.870172 
0.183643 -0.351202 0.918114 
0.155787 -0.276586 0.948278 
0.131547 -0.216779 0.967317 
0.111724 -0.169372 0.979199 
0.0941172 -0.132392 0.986719 
0.0799428 -0.102348 0.991531 
0.0692051 -0.0787642 0.994488 
0.0591031 -0.0617845 0.996338 
0.0499955 -0.0467306 0.997656 
0.0503873 -0.0406624 0.997902 
0.0399199 -0.0302576 0.998745 
0.0382725 -0.0239229 0.998981 
0.0402852 -0.019832 0.998991 
0.0317552 -0.0133163 0.999407 
0.0347051 -0.0100887 0.999347 
0.0285012 -0.00546874 0.999579 
0.0328239 -0.00211965 0.999459 
0.0280111 0.00175247 0.999606 
0.0336804 0.00632891 0.999413 
0.0304184 0.0102797 0.999484 
0.0386491 0.0174499 0.9991 
0.0372412 0.0224824 0.999053 
0.03821 0.0289806 0.998849 
0.0489961 0.0404047 0.997981 
0.0490236 0.0472719 0.997678 
0.0593306 0.0631937 0.996236 
0.070104 0.082024 0.994162 
0.0824948 0.106818 0.99085 
0.0988389 0.138384 0.985434 
0.118349 0.177401 0.976997 
0.141591 0.226852 0.963582 
0.169746 0.288829 0.942212 
0.202985 0.365619 0.908361 
0.241527 0.458748 0.855111 
0.282103 0.567073 0.773852 
0.208268 -0.57192 0.793431 
0.182803 -0.456963 0.870499 
0.156423 -0.361685 0.919084 
0.132122 -0.283838 0.949726 
0.112335 -0.221849 0.968589 
0.0943397 -0.173016 0.98039 
0.0801082 -0.134264 0.987702 
0.0677075 -0.103922 0.992278 
0.0580186 -0.0805373 0.995062 
0.0498659 -0.0616336 0.996852 
0.0421827 -0.0477312 0.997969 
0.0378376 -0.0357864 0.998643 
0.0305872 -0.0257525 0.9992 
0.029167 -0.0206974 0.99936 
0.0302776 -0.0168364 0.9994 
0.0238307 -0.0113029 0.999652 
0.0261719 -0.00855512 0.999621 
0.0212581 -0.00484372 0.999762 
0.0247594 -0.00190517 0.999692 
0.0209747 0.000902776 0.99978 
0.0254688 0.00501016 0.999663 
0.0229696 0.00789767 0.999705 
0.0293741 0.0141771 0.999468 
0.0283926 0.0183754 0.999428 
0.0294838 0.0240038 0.999277 
0.0368513 0.0346116 0.998721 
0.0423955 0.0476359 0.997965 
0.051067 0.0634139 0.99668 
0.0606443 0.0827709 0.994722 
0.0716003 0.107485 0.991625 
0.0861352 0.138864 0.986558 
0.103349 0.178846 0.978434 
0.124601 0.228722 0.965485 
0.14955 0.29188 0.944691 
0.179839 0.369746 0.911562 
0.214282 0.464513 0.85925 
0.249671 0.575752 0.778572 
0.172927 -0.589981 0.788682 
0.153434 -0.471502 0.868415 
0.13009 -0.373125 0.918615 
0.111167 -0.292355 0.949827 
0.0933641 -0.228055 0.969162 
0.0791532 -0.176412 0.981129 
0.0666066 -0.136371 0.988416 
0.0561192 -0.105049 0.992882 
0.0483485 -0.0804216 0.995588 
0.0407084 -0.0620463 0.997243 
0.0350345 -0.0475543 0.998254 
0.0310992 -0.0364603 0.998851 
0.0279349 -0.0293623 0.999178 
0.023296 -0.0217699 0.999492 
0.0213754 -0.0170522 0.999626 
0.0226704 -0.0141797 0.999642 
0.0178851 -0.00967439 0.999793 
0.0196745 -0.00732986 0.99978 
0.0160208 -0.00417015 0.999863 
0.0185477 -0.00178262 0.999826 
0.0156937 0.000915226 0.999876 
0.0190797 0.00398027 0.99981 
0.0172136 0.00661314 0.99983 
0.0221154 0.0115 0.999689 
0.0213924 0.0150093 0.999658 
0.0224784 0.0190438 0.999566 
0.026607 0.0271959 0.999276 
0.0316198 0.0358902 0.998855 
0.0359989 0.0474973 0.998222 
0.0428364 0.0626884 0.997113 
0.0511698 0.0819556 0.995322 
0.0611436 0.106942 0.992383 
0.0735841 0.138879 0.987572 
0.0891808 0.179218 0.979759 
0.10748 0.23086 0.967032 
0.130158 0.29438 0.946784 
0.155935 0.374066 0.914199 
0.187253 0.469656 0.862763 
0.216741 0.582965 0.783055 
0.141518 -0.605854 0.782888 
0.126405 -0.487862 0.86372 
0.108043 -0.388679 0.915016 
0.0910085 -0.306284 0.94758 
0.0774151 -0.238399 0.968077 
0.065219 -0.184607 0.980646 
0.0548296 -0.14202 0.988344 
0.0464156 -0.108519 0.99301 
0.0391108 -0.0828662 0.995793 
0.0335342 -0.0629637 0.997452 
0.027992 -0.0474095 0.998483 
0.024763 -0.0360168 0.999044 
0.0211005 -0.0264858 0.999426 
0.0182843 -0.0199871 0.999633 
0.016035 -0.0149216 0.99976 
0.0164994 -0.0120357 0.999791 
0.0131803 -0.00864526 0.999876 
0.0144657 -0.00649796 0.999874 
0.0117499 -0.00402567 0.999923 
0.0138601 -0.00196902 0.999902 
0.0116829 5.35581e-05 0.999932 
0.0142503 0.00286587 0.999894 
0.0128261 0.00557691 0.999902 
0.0162587 0.00920407 0.999825 
0.0159403 0.0125817 0.999794 
0.0179632 0.0186183 0.999665 
0.0214976 0.0252844 0.999449 
0.0253299 0.0351151 0.999062 
0.029634 0.0470408 0.998453 
0.0356841 0.0628357 0.997386 
0.042781 0.0829174 0.995638 
0.0514483 0.108626 0.99275 
0.0625008 0.141868 0.98791 
0.075612 0.183631 0.980083 
0.0918305 0.23608 0.967385 
0.110442 0.301872 0.94693 
0.13366 0.3808 0.914946 
0.160007 0.476814 0.864318 
0.183813 0.588197 0.787551 
0.111222 -0.617756 0.778464 
0.104525 -0.512397 0.852364 
0.0871126 -0.414847 0.905712 
0.0742313 -0.327531 0.94192 
0.0627959 -0.255803 0.964687 
0.0527398 -0.197308 0.978922 
0.0445908 -0.151185 0.987499 
0.0373156 -0.11529 0.992631 
0.0317255 -0.0875146 0.995658 
0.0268244 -0.0661393 0.99745 
0.0227318 -0.0500245 0.998489 
0.0196232 -0.0373258 0.99911 
0.0171673 -0.028049 0.999459 
0.0147401 -0.0209106 0.999673 
0.0126636 -0.0151377 0.999805 
0.0119294 -0.010999 0.999868 
0.00966601 -0.00762162 0.999924 
0.0110615 -0.00576962 0.999922 
0.00876249 -0.00332142 0.999956 
0.0104335 -0.0016343 0.999944 
0.00861268 5.68245e-05 0.999963 
0.0106482 0.00260238 0.99994 
0.00963598 0.00421703 0.999945 
0.0117578 0.00829772 0.999896 
0.0127327 0.0126809 0.999839 
0.0146629 0.0187579 0.999717 
0.0174491 0.0265582 0.999495 
0.0206451 0.0360313 0.999137 
0.0243314 0.0487808 0.998513 
0.0291903 0.0649397 0.997462 
0.0352881 0.0861013 0.995661 
0.0426036 0.113269 0.992651 
0.0517661 0.147951 0.987639 
0.0629011 0.192344 0.97931 
0.0763434 0.247741 0.965814 
0.0924605 0.315782 0.944316 
0.111026 0.398624 0.910369 
0.135486 0.491299 0.860389 
0.147811 0.589807 0.793901 
0.0864549 -0.624531 0.7762 
0.0754347 -0.487122 0.87007 
0.0612955 -0.373567 0.925576 
0.0498817 -0.285779 0.956996 
0.0416858 -0.217252 0.975225 
0.0347093 -0.164943 0.985692 
0.0290298 -0.124606 0.991782 
0.0244233 -0.0938342 0.995288 
0.0206305 -0.0705569 0.997294 
0.0174537 -0.0528327 0.998451 
0.0150133 -0.0394061 0.99911 
0.0130468 -0.0294625 0.999481 
0.0113142 -0.0219254 0.999696 
0.0100243 -0.0163483 0.999816 
0.00910483 -0.0120563 0.999886 
0.0080087 -0.00897823 0.999928 
0.00737291 -0.00658844 0.999951 
0.00756821 -0.00503408 0.999959 
0.00641405 -0.00368518 0.999973 
0.00744841 -0.00218257 0.99997 
0.0063089 -0.000259911 0.99998 
0.00769234 0.00125292 0.99997 
0.00682048 0.00334759 0.999971 
0.0080174 0.00577856 0.999951 
0.00901493 0.00909322 0.999918 
0.00988444 0.0136129 0.999858 
0.0113811 0.0194762 0.999746 
0.013444 0.0271966 0.99954 
0.0159619 0.0373897 0.999173 
0.0188673 0.0507211 0.998535 
0.0228667 0.0682229 0.997408 
0.0275568 0.0907667 0.995491 
0.0335183 0.120349 0.992166 
0.040949 0.158463 0.986515 
0.0501365 0.207513 0.976947 
0.0614754 0.271607 0.960443 
0.0769463 0.352832 0.932518 
0.0976365 0.459979 0.882546 
0.114781 0.588929 0.799992 
0.0593291 -0.628568 0.775488 
0.0568715 -0.518676 0.853078 
0.0452818 -0.413402 0.909422 
0.0371115 -0.31924 0.946947 
0.0304698 -0.243041 0.969537 
0.0250631 -0.183944 0.982617 
0.0208921 -0.138507 0.990141 
0.0174406 -0.104141 0.99441 
0.014738 -0.0780791 0.996838 
0.0125002 -0.058461 0.998211 
0.0107068 -0.0436527 0.998989 
0.00932387 -0.0325015 0.999428 
0.00821036 -0.0242571 0.999672 
0.00721071 -0.0180061 0.999812 
0.00643044 -0.0132673 0.999891 
0.00612939 -0.00991156 0.999932 
0.0049341 -0.00718115 0.999962 
0.00503219 -0.00492477 0.999975 
0.00436156 -0.00313823 0.999986 
0.00532166 -0.00159072 0.999985 
0.00416404 -0.000470645 0.999991 
0.00509239 0.00124628 0.999986 
0.00515806 0.00354486 0.99998 
0.00580879 0.00678763 0.99996 
0.00649768 0.0102102 0.999927 
0.00716247 0.0152295 0.999858 
0.00840799 0.02173 0.999729 
0.0097844 0.030182 0.999497 
0.0115815 0.0412639 0.999081 
0.0136834 0.055753 0.998351 
0.0164067 0.0748293 0.997061 
0.0198567 0.0996695 0.994822 
0.0239986 0.131988 0.990961 
0.0292895 0.174417 0.984236 
0.0360976 0.228858 0.97279 
0.0446143 0.2989 0.953241 
0.0559462 0.386292 0.920678 
0.0712187 0.483282 0.872563 
0.0752002 0.586674 0.806324 
0.0360933 -0.630238 0.775563 
0.0302861 -0.486773 0.873003 
0.024148 -0.369654 0.928856 
0.0182106 -0.2783 0.960322 
0.0148504 -0.208947 0.977814 
0.0120783 -0.156575 0.987592 
0.00997562 -0.117162 0.993063 
0.00841474 -0.08746 0.996132 
0.00710962 -0.0652231 0.997845 
0.00612957 -0.0484404 0.998807 
0.00543417 -0.0359386 0.999339 
0.00480226 -0.0266303 0.999634 
0.00426793 -0.0196564 0.999798 
0.00411928 -0.0146024 0.999885 
0.00358887 -0.0106507 0.999937 
0.00335299 -0.00811454 0.999961 
0.00356338 -0.00568659 0.999977 
0.00311909 -0.00444078 0.999985 
0.00238099 -0.00275265 0.999993 
0.00375925 -0.00231558 0.99999 
0.00262402 -0.000853802 0.999996 
0.00325174 0.000350661 0.999995 
0.00314571 0.0023128 0.999992 
0.0033705 0.00450976 0.999984 
0.00353226 0.00743164 0.999966 
0.00400926 0.0115589 0.999925 
0.00431586 0.0167801 0.99985 
0.00493655 0.0240418 0.999699 
0.00578812 0.0332569 0.99943 
0.00654614 0.0456726 0.998935 
0.0077893 0.0619942 0.998046 
0.00911889 0.0832381 0.996488 
0.0108161 0.111391 0.993718 
0.0130543 0.148118 0.988884 
0.0157782 0.196378 0.980401 
0.0193712 0.260216 0.965356 
0.0252121 0.342985 0.939003 
0.0328651 0.451481 0.891675 
0.0383189 0.585162 0.81001 
0.0125484 -0.630481 0.776103 
0.00998161 -0.51788 0.855395 
0.00578371 -0.411585 0.911353 
0.00408308 -0.315878 0.948791 
0.00283888 -0.238772 0.971072 
0.00183305 -0.179496 0.983757 
0.00148147 -0.134613 0.990897 
0.001184 -0.100778 0.994908 
0.00107371 -0.0753744 0.997155 
0.00108518 -0.0562129 0.998418 
0.00107502 -0.0418662 0.999123 
0.00110788 -0.0311361 0.999515 
0.00127038 -0.0231133 0.999732 
0.00126519 -0.0170604 0.999854 
0.00131185 -0.012665 0.999919 
0.00142297 -0.00946199 0.999954 
0.00143502 -0.0066847 0.999977 
0.00129588 -0.00536076 0.999985 
0.00168165 -0.00342869 0.999993 
0.0013935 -0.0020575 0.999997 
0.0011282 -0.000320498 0.999999 
0.00161383 0.00134166 0.999998 
0.00116565 0.00314912 0.999994 
0.00143383 0.0061064 0.99998 
0.00121853 0.00938361 0.999955 
0.00123273 0.0141913 0.999899 
0.00130895 0.0202953 0.999793 
0.00108512 0.0284883 0.999594 
0.00119663 0.0392274 0.99923 
0.00100872 0.0532433 0.998581 
0.000783849 0.0718777 0.997413 
0.00062015 0.0961394 0.995368 
0.000166371 0.127967 0.991778 
-0.000351947 0.169878 0.985465 
-0.000756256 0.22439 0.974499 
-0.00139229 0.294931 0.955518 
-0.00189411 0.382507 0.923951 
-0.00084101 0.47962 0.877476 
-0.000496238 0.58571 0.81052 
-0.01263 -0.622697 0.782361 
-0.0166479 -0.480888 0.876624 
-0.0135953 -0.365545 0.930694 
-0.0124541 -0.275719 0.961157 
-0.0105375 -0.207191 0.978244 
-0.0089648 -0.155437 0.987805 
-0.00753857 -0.11638 0.993176 
-0.00617578 -0.0869359 0.996195 
-0.00503765 -0.0647824 0.997887 
-0.00409211 -0.0481492 0.998832 
-0.00315701 -0.0356487 0.999359 
-0.00249064 -0.0264405 0.999647 
-0.00184609 -0.0195025 0.999808 
-0.00134095 -0.0143627 0.999896 
-0.000996344 -0.0105943 0.999943 
-0.000630704 -0.00798691 0.999968 
-0.000448771 -0.00561432 0.999984 
-0.000438444 -0.00429709 0.999991 
0.000339799 -0.00301593 0.999995 
-0.000917087 -0.00185956 0.999998 
0.00061889 -0.00115963 0.999999 
-0.000281179 0.000357927 1 
-0.00053857 0.00212177 0.999998 
-0.000436566 0.00433694 0.999991 
-0.00115994 0.00725206 0.999973 
-0.0012418 0.0113882 0.999934 
-0.00196727 0.0165698 0.999861 
-0.00250569 0.0238645 0.999712 
-0.00328784 0.0331387 0.999445 