# vtk DataFile Version 3.0 
Exported using Morpho https://github.com/Morpho-lang/morpho 
ASCII 
DATASET UNSTRUCTURED_GRID 

POINTS 1245 float 
-0.303845 -0.952721 0 
-0.250833 -0.96803 0 
-0.195084 -0.980787 0 
-0.146308 -0.989239 0 
-0.0940719 -0.995565 0 
-0.0475118 -0.998871 0 
-0.000246339 -1 0 
0.0470875 -0.998891 0 
0.0937543 -0.995595 0 
0.146139 -0.989264 0 
0.195062 -0.980791 0 
0.250843 -0.968028 0 
0.303953 -0.952687 0 
-0.409153 -0.912466 0 
-0.356519 -0.934288 0 
-0.308871 -0.898929 0 
-0.258282 -0.916037 0 
-0.207345 -0.934859 0 
-0.154868 -0.930629 0 
-0.104343 -0.948989 0 
-0.0520099 -0.939193 0 
-8.5762e-05 -0.954582 0 
0.0518744 -0.939288 0 
0.104354 -0.949042 0 
0.154696 -0.9306 0 
0.207366 -0.934975 0 
0.258274 -0.916081 0 
0.308979 -0.898924 0 
0.356593 -0.93426 0 
0.409236 -0.912429 0 
-0.513788 -0.857917 0 
-0.461695 -0.887039 0 
-0.411157 -0.857936 0 
-0.359855 -0.879963 0 
-0.306888 -0.847481 0 
-0.254732 -0.866979 0 
-0.201991 -0.889059 0 
-0.149956 -0.874108 0 
-0.100608 -0.900088 0 
-0.0497575 -0.880388 0 
2.4595e-05 -0.904789 0 
0.0496869 -0.8804 0 
0.100612 -0.900177 0 
0.149872 -0.874171 0 
0.202071 -0.889165 0 
0.254695 -0.867031 0 
0.306946 -0.847482 0 
0.359894 -0.879943 0 
0.411236 -0.857929 0 
0.461748 -0.887011 0 
0.513842 -0.857885 0 
-0.564741 -0.825268 0 
-0.512908 -0.802945 0 
-0.462372 -0.832348 0 
-0.410124 -0.804631 0 
-0.358606 -0.827415 0 
-0.305781 -0.795641 0 
-0.25358 -0.816639 0 
-0.200756 -0.839997 0 
-0.149043 -0.818944 0 
-0.0987265 -0.846667 0 
-0.0490473 -0.822548 0 
5.00659e-05 -0.849932 0 
0.0490834 -0.822542 0 
0.0987838 -0.846676 0 
0.148997 -0.818924 0 
0.200826 -0.840131 0 
0.253508 -0.816728 0 
0.305831 -0.795701 0 
0.358581 -0.827419 0 
0.410181 -0.804654 0 
0.462414 -0.83234 0 
0.512965 -0.802929 0 
0.564777 -0.825243 0 
-0.660798 -0.750564 0 
-0.614015 -0.789295 0 
-0.561786 -0.769772 0 
-0.510673 -0.747856 0 
-0.460836 -0.778365 0 
-0.408794 -0.751554 0 
-0.357337 -0.774971 0 
-0.304815 -0.743684 0 
-0.252907 -0.765535 0 
-0.200631 -0.789263 0 
-0.149244 -0.764328 0 
-0.0986912 -0.791935 0 
-0.0492815 -0.765764 0 
4.16586e-05 -0.79382 0 
0.0492411 -0.765708 0 
0.0987508 -0.791951 0 
0.149196 -0.764326 0 
0.200666 -0.789356 0 
0.252841 -0.765599 0 
0.304862 -0.743741 0 
0.357323 -0.775038 0 
0.408863 -0.751626 0 
0.460863 -0.778382 0 
0.510716 -0.747859 0 
0.561819 -0.769761 0 
0.614041 -0.789274 0 
0.660811 -0.750552 0 
-0.707107 -0.707107 0 
-0.654819 -0.699058 0 
-0.60813 -0.73348 0 
-0.558104 -0.71337 0 
-0.509495 -0.692659 0 
-0.45935 -0.724356 0 
-0.407328 -0.698865 0 
-0.355968 -0.722823 0 
-0.303722 -0.691387 0 
-0.252254 -0.71362 0 
-0.20067 -0.737336 0 
-0.149608 -0.710068 0 
-0.0991558 -0.737129 0 
-0.0495872 -0.709825 0 
-2.23646e-05 -0.737917 0 
0.0494408 -0.709766 0 
0.0991291 -0.737116 0 
0.149502 -0.710042 0 
0.200696 -0.73743 0 
0.252186 -0.713735 0 
0.303753 -0.691518 0 
0.355952 -0.722893 0 
0.407371 -0.698945 0 
0.459374 -0.724407 0 
0.509524 -0.692668 0 
0.558131 -0.713361 0 
0.608151 -0.733462 0 
0.654824 -0.699048 0 
0.707107 -0.707107 0 
-0.750564 -0.660798 0 
-0.699058 -0.654819 0 
-0.647692 -0.647692 0 
-0.603437 -0.675718 0 
-0.55905 -0.655305 0 
-0.508501 -0.639581 0 
-0.457509 -0.671321 0 
-0.405555 -0.646545 0 
-0.354417 -0.670703 0 
-0.302427 -0.639219 0 
-0.251503 -0.661417 0 
-0.20061 -0.684911 0 
-0.149717 -0.655943 0 
-0.0995004 -0.682466 0 
-0.0498216 -0.654561 0 
-5.02113e-05 -0.682664 0 
0.0496787 -0.654499 0 
0.0994374 -0.682501 0 
0.149603 -0.655909 0 
0.200573 -0.684972 0 
0.251388 -0.661524 0 
0.302407 -0.639359 0 
0.354397 -0.670836 0 
0.405575 -0.646641 0 
0.457525 -0.67138 0 
0.508497 -0.639623 0 
0.559063 -0.655324 0 
0.603436 -0.675715 0 
0.64769 -0.64769 0 
0.699048 -0.654824 0 
0.750552 -0.660811 0 
-0.789295 -0.614015 0 
-0.73348 -0.60813 0 
-0.675718 -0.603437 0 
-0.613088 -0.613088 0 
-0.55962 -0.604068 0 
-0.506189 -0.588854 0 
-0.455505 -0.618874 0 
-0.403019 -0.594688 0 
-0.352514 -0.618952 0 
-0.300977 -0.586897 0 
-0.250543 -0.608767 0 
-0.200257 -0.632053 0 
-0.150049 -0.601979 0 
-0.0998281 -0.628222 0 
-0.0500377 -0.599914 0 
-3.12334e-05 -0.628076 0 
0.0498927 -0.599835 0 
0.0997818 -0.628253 0 
0.149924 -0.601867 0 
0.200214 -0.632118 0 
0.250423 -0.608915 0 
0.30086 -0.587085 0 
0.352457 -0.619096 0 
0.402948 -0.594743 0 
0.455483 -0.618952 0 
0.506147 -0.588901 0 
0.55964 -0.604067 0 
0.613069 -0.613069 0 
0.675715 -0.603436 0 
0.733462 -0.608151 0 
0.789274 -0.614041 0 
-0.825268 -0.564741 0 
-0.769772 -0.561786 0 
-0.71337 -0.558104 0 
-0.655305 -0.55905 0 
-0.604068 -0.55962 0 
-0.551031 -0.551031 0 
-0.497922 -0.537596 0 
-0.451508 -0.567021 0 
-0.399773 -0.542431 0 
-0.350494 -0.567003 0 
-0.301574 -0.534146 0 
-0.250874 -0.555692 0 
-0.200542 -0.579013 0 
-0.150324 -0.548268 0 
-0.100169 -0.57443 0 
-0.0500152 -0.545912 0 
-3.29278e-05 -0.574268 0 
0.0499208 -0.545788 0 
0.100058 -0.574485 0 
0.150038 -0.548073 0 
0.200377 -0.579041 0 
0.250556 -0.55585 0 
0.301273 -0.534348 0 
0.350318 -0.567174 0 
0.399615 -0.542384 0 
0.451404 -0.5671 0 
0.497945 -0.537702 0 
0.551073 -0.551073 0 
0.604067 -0.55964 0 
0.655324 -0.559063 0 
0.713361 -0.558131 0 
0.769761 -0.561819 0 
0.825243 -0.564777 0 
-0.857917 -0.513788 0 
-0.802945 -0.512908 0 
-0.747856 -0.510673 0 
-0.692659 -0.509495 0 
-0.639581 -0.508501 0 
-0.588854 -0.506189 0 
-0.537596 -0.497922 0 
-0.486157 -0.486157 0 
-0.444928 -0.512952 0 
-0.401787 -0.486784 0 
-0.351685 -0.513639 0 
-0.299695 -0.48291 0 
-0.250032 -0.503 0 
-0.200501 -0.526165 0 
-0.149489 -0.495195 0 
-0.0999281 -0.521367 0 
-0.0499712 -0.492294 0 
4.64723e-05 -0.520999 0 
0.050147 -0.492108 0 
0.099934 -0.52133 0 
0.14957 -0.494692 0 
0.200133 -0.526255 0 
0.249839 -0.503309 0 
0.299839 -0.483005 0 
0.351514 -0.513798 0 
0.401881 -0.486608 0 
0.444935 -0.513054 0 
0.486228 -0.486228 0 
0.537702 -0.497945 0 
0.588901 -0.506147 0 
0.639623 -0.508497 0 
0.692668 -0.509524 0 
0.747859 -0.510716 0 
0.802929 -0.512965 0 
0.857885 -0.513842 0 
-0.887039 -0.461695 0 
-0.832348 -0.462372 0 
-0.778365 -0.460836 0 
-0.724356 -0.45935 0 
-0.671321 -0.457509 0 
-0.618874 -0.455505 0 
-0.567021 -0.451508 0 
-0.512952 -0.444928 0 
-0.450685 -0.450685 0 
-0.397667 -0.437543 0 
-0.348492 -0.462546 0 
-0.295416 -0.432968 0 
-0.247004 -0.450633 0 
-0.198702 -0.473818 0 
-0.150161 -0.441625 0 
-0.100085 -0.468395 0 
-0.0502271 -0.439281 0 
0.000144229 -0.468374 0 
0.0504178 -0.439106 0 
0.100428 -0.468348 0 
0.150697 -0.441105 0 
0.199103 -0.473881 0 
0.247983 -0.450921 0 
0.296569 -0.432268 0 
0.348831 -0.462562 0 
0.397506 -0.4368 0 
0.450637 -0.450637 0 
0.513054 -0.444935 0 
0.5671 -0.451404 0 
0.618952 -0.455483 0 
0.67138 -0.457525 0 
0.724407 -0.459374 0 
0.778382 -0.460863 0 
0.83234 -0.462414 0 
0.887011 -0.461748 0 
-0.912466 -0.409153 0 
-0.857936 -0.411157 0 
-0.804631 -0.410124 0 
-0.751554 -0.408794 0 
-0.698865 -0.407328 0 
-0.646545 -0.405555 0 
-0.594688 -0.403019 0 
-0.542431 -0.399773 0 
-0.486784 -0.401787 0 
-0.437543 -0.397667 0 
-0.387256 -0.387256 0 
-0.344215 -0.411459 0 
-0.30136 -0.381507 0 
-0.25021 -0.395692 0 
-0.200211 -0.419975 0 
-0.150955 -0.389014 0 
-0.100617 -0.416095 0 
-0.0503197 -0.386922 0 
-4.02994e-05 -0.416525 0 
0.05006 -0.386948 0 
0.100784 -0.416323 0 
0.150432 -0.388572 0 
0.200855 -0.420694 0 
0.25086 -0.396905 0 
0.301746 -0.379789 0 
0.344135 -0.410678 0 
0.385823 -0.385823 0 
0.4368 -0.397506 0 
0.486608 -0.401881 0 
0.542384 -0.399615 0 
0.594743 -0.402948 0 
0.646641 -0.405575 0 
0.698945 -0.407371 0 
0.751626 -0.408863 0 
0.804654 -0.410181 0 
0.857929 -0.411236 0 
0.912429 -0.409236 0 
-0.934288 -0.356519 0 
-0.879963 -0.359855 0 
-0.827415 -0.358606 0 
-0.774971 -0.357337 0 
-0.722823 -0.355968 0 
-0.670703 -0.354417 0 
-0.618952 -0.352514 0 
-0.567003 -0.350494 0 
-0.513639 -0.351685 0 
-0.462546 -0.348492 0 
-0.411459 -0.344215 0 
-0.351697 -0.351697 0 
-0.29839 -0.336232 0 
-0.249846 -0.342529 0 
-0.200971 -0.367271 0 
-0.149995 -0.337521 0 
-0.100435 -0.3646 0 
-0.0498692 -0.335025 0 
-6.88684e-05 -0.365025 0 
0.0495433 -0.334795 0 
0.0996798 -0.364834 0 
0.148162 -0.337172 0 
0.199644 -0.368939 0 
0.24763 -0.345582 0 
0.295348 -0.332889 0 
0.34978 -0.34978 0 
0.410678 -0.344135 0 
0.462562 -0.348831 0 
0.513798 -0.351514 0 
0.567174 -0.350318 0 
0.619096 -0.352457 0 
0.670836 -0.354397 0 
0.722893 -0.355952 0 
0.775038 -0.357323 0 
0.827419 -0.358581 0 
0.879943 -0.359894 0 
0.93426 -0.356593 0 
-0.952721 -0.303845 0 
-0.898929 -0.308871 0 
-0.847481 -0.306888 0 
-0.795641 -0.305781 0 
-0.743684 -0.304815 0 
-0.691387 -0.303722 0 
-0.639219 -0.302427 0 
-0.586897 -0.300977 0 
-0.534146 -0.301574 0 
-0.48291 -0.299695 0 
-0.432968 -0.295416 0 
-0.381507 -0.30136 0 
-0.336232 -0.29839 0 
-0.288184 -0.288184 0 
-0.242975 -0.290577 0 
-0.198059 -0.315051 0 
-0.148383 -0.285894 0 
-0.0994753 -0.313232 0 
-0.0507184 -0.283118 0 
-0.000202902 -0.313447 0 
0.0500077 -0.282824 0 
0.0988289 -0.312817 0 
0.148102 -0.28482 0 
0.195742 -0.317413 0 
0.240766 -0.295824 0 
0.285014 -0.285014 0 
0.332889 -0.295348 0 
0.379789 -0.301746 0 
0.432268 -0.296569 0 
0.483005 -0.299839 0 
0.534348 -0.301273 0 
0.587085 -0.30086 0 
0.639359 -0.302407 0 
0.691518 -0.303753 0 
0.743741 -0.304862 0 
0.795701 -0.305831 0 
0.847482 -0.306946 0 
0.898924 -0.308979 0 
0.952687 -0.303953 0 
-0.96803 -0.250833 0 
-0.916037 -0.258282 0 
-0.866979 -0.254732 0 
-0.816639 -0.25358 0 
-0.765535 -0.252907 0 
-0.71362 -0.252254 0 
-0.661417 -0.251503 0 
-0.608767 -0.250543 0 
-0.555692 -0.250874 0 
-0.503 -0.250032 0 
-0.450633 -0.247004 0 
-0.395692 -0.25021 0 
-0.342529 -0.249846 0 
-0.290577 -0.242975 0 
-0.239946 -0.239946 0 
-0.194478 -0.26004 0 
-0.151293 -0.23238 0 
-0.101048 -0.260904 0 
-0.0503938 -0.232537 0 
-0.000203281 -0.262984 0 
0.050638 -0.232316 0 
0.100942 -0.260855 0 
0.152412 -0.232597 0 
0.195768 -0.261421 0 
0.241873 -0.241873 0 
0.295824 -0.240766 0 
0.345582 -0.24763 0 
0.396905 -0.25086 0 
0.450921 -0.247983 0 
[...]
POINT_DATA 1245 
VECTORS vectors float
0.298142 -0.127472 0.945972 
0.268084 -0.183272 0.945803 
0.262773 -0.161078 0.951317 
0.230906 -0.180576 0.956072 
0.244563 -0.0887872 0.96556 
0.304549 -0.126159 0.944105 
0.268935 -0.210991 0.939764 
0.19376 -0.243884 0.950251 
0.0958789 -0.217491 0.971342 
0.0247429 -0.0593102 0.997933 
0.0890664 0.0522182 0.994656 
0.0935623 0.0804025 0.992362 
0.171116 0.143615 0.974728 
0.304743 -0.200202 0.931156 
0.272816 -0.140464 0.951757 
0.165902 -0.0907357 0.981959 
0.147814 -0.12147 0.981528 
0.146373 -0.150819 0.977665 
0.104767 -0.142984 0.984164 
0.121095 -0.114442 0.986022 
0.106172 -0.108827 0.988374 
0.13198 -0.143567 0.980801 
0.0599283 -0.120764 0.990871 
0.0253823 -0.113139 0.993255 
-0.00160301 -0.0662915 0.997799 
0.0219441 -0.0138019 0.999664 
0.0272541 0.0306391 0.999159 
0.0408097 0.0659756 0.996986 
0.120751 0.0867229 0.988887 
0.120618 0.166426 0.978649 
0.213802 -0.0214119 0.976642 
0.326911 -0.16037 0.931349 
0.181626 -0.143579 0.972829 
0.181487 -0.114624 0.97669 
0.0847629 -0.0622565 0.994454 
0.0706126 -0.0838124 0.993977 
0.0663607 -0.121128 0.990416 
0.0339138 -0.0942086 0.994975 
0.0392791 -0.0932685 0.994866 
0.00933075 -0.0825418 0.996544 
0.0261462 -0.0987958 0.994764 
-0.0319117 -0.0730973 0.996814 
-0.0261866 -0.0756691 0.996789 
-0.0372537 -0.0824142 0.995902 
-0.0187924 -0.0643745 0.997749 
-0.0170086 -0.00420643 0.999846 
-0.0100295 0.0274453 0.999573 
0.0341276 0.0750242 0.996598 
0.0652094 0.0917561 0.993644 
0.226983 0.177005 0.957678 
0.24771 0.202483 0.947439 
0.16257 -0.0948805 0.982125 
0.112995 -0.0548091 0.992083 
0.144368 -0.101207 0.984335 
0.056846 -0.0946365 0.993888 
0.0825519 -0.0812244 0.993271 
0.0237825 -0.04716 0.998604 
0.0285752 -0.0601151 0.997782 
0.0264791 -0.0783528 0.996574 
0.0134374 -0.0390537 0.999147 
0.0168789 -0.0468515 0.998759 
0.00547286 -0.049251 0.998771 
-0.0279119 -0.0827035 0.996183 
-0.0517874 -0.0695441 0.996234 
-0.0599286 -0.0644598 0.996119 
-0.0468868 -0.0382392 0.998168 
-0.0351755 -0.0418941 0.998503 
-0.0299808 0.00274122 0.999547 
-0.0324583 0.00202392 0.999471 
-0.0188588 0.0481371 0.998663 
-0.0122801 0.0578547 0.998249 
0.11796 0.110933 0.986802 
0.137775 0.156927 0.977953 
0.257618 0.248639 0.933709 
0.166273 -0.24031 0.956349 
0.110159 -0.147088 0.98297 
0.0965078 -0.0730195 0.99265 
0.06111 -0.0473106 0.997009 
0.0462028 -0.0704835 0.996442 
-0.0118693 -0.0357297 0.999291 
0.00149533 -0.0416349 0.999132 
-0.0110742 -0.0439513 0.998972 
0.0011459 -0.0607151 0.998154 
0.00437296 -0.0554285 0.998453 
-0.00382494 -0.0194396 0.999804 
0.0162577 -0.00913566 0.999826 
0.020618 -0.0125089 0.999709 
-0.0056295 -0.0565057 0.998386 
-0.0105857 -0.041171 0.999096 
-0.0451007 -0.0369307 0.9983 
-0.035864 0.0165423 0.99922 
-0.0365769 0.0180572 0.999168 
-0.0229297 0.0127737 0.999655 
-0.037803 -0.0099507 0.999236 
-0.0644183 0.0290198 0.997501 
-0.0601382 0.0293757 0.997758 
0.0208716 0.072111 0.997178 
0.0406939 0.0889075 0.995208 
0.13185 0.143582 0.980816 
0.23954 0.172276 0.95548 
0.23188 0.167654 0.958188 
0.288636 -0.174403 0.941421 
0.110604 -0.128057 0.98558 
0.0774047 -0.10993 0.990921 
0.0479226 -0.0604948 0.997017 
0.0212906 -0.028545 0.999366 
0.00990234 -0.0249806 0.999639 
-0.00786717 -0.00112152 0.999968 
-0.0199042 -0.0184397 0.999632 
-0.0201215 -0.0488044 0.998606 
-0.0137333 -0.0621364 0.997973 
-0.00726569 -0.0539693 0.998516 
-0.00764393 -0.0163915 0.999836 
0.00204867 0.00330817 0.999992 
0.0166581 0.0143028 0.999759 
0.0207282 -0.0118318 0.999715 
0.00976458 -0.00816385 0.999919 
-0.0150484 -0.0110957 0.999825 
-0.00968835 0.0155036 0.999833 
-0.0196446 0.0388183 0.999053 
-0.0119857 0.00969287 0.999881 
-0.0338296 -0.00583627 0.999411 
-0.066595 0.0151017 0.997666 
-0.0310286 -0.00575367 0.999502 
-0.0174551 0.0174985 0.999695 
0.00698196 0.0197434 0.999781 
0.0579748 0.052424 0.996941 
0.14171 0.0845415 0.986291 
0.168937 0.0765236 0.982652 
0.241884 0.171803 0.954974 
0.2872 -0.102977 0.952319 
0.160449 -0.0913846 0.982805 
0.0330414 -0.0814527 0.996129 
0.0138441 -0.0829845 0.996455 
-0.00913394 -0.0492945 0.998743 
-0.010748 -0.00940187 0.999898 
0.00519703 0.00483134 0.999975 
0.00519521 -0.00732692 0.99996 
-0.0101152 -0.0307187 0.999477 
-0.0202042 -0.0625927 0.997835 
-0.011588 -0.0444496 0.998944 
-0.00260224 -0.0390421 0.999234 
0.00808113 -0.0112196 0.999904 
0.0017278 0.00174926 0.999997 
0.0264458 0.0220867 0.999406 
0.0260798 0.0257037 0.999329 
0.0224226 0.0210892 0.999526 
0.0021612 -0.00940785 0.999953 
0.00552538 -0.00278495 0.999981 
-0.00167754 0.0226345 0.999742 
-0.021368 0.0167943 0.999631 
-0.0381219 0.0113446 0.999209 
-0.0336111 0.00503153 0.999422 
0.0198739 -0.0171371 0.999656 
0.00962994 -0.0207589 0.999738 
0.00127798 8.40013e-05 0.999999 
0.0229501 0.00722694 0.99971 
0.0889923 0.0137854 0.995937 
0.110841 0.0349513 0.993223 
0.146136 0.108958 0.983246 
0.174898 0.178673 0.968239 
0.193695 -0.157983 0.968258 
0.126326 -0.0848474 0.988353 
0.0257169 -0.0507816 0.998379 
-0.0104975 -0.0362069 0.999289 
-0.0113484 -0.00954235 0.99989 
-0.00990204 0.0238943 0.999665 
-0.0030351 0.0170589 0.99985 
-0.00523204 -0.0296691 0.999546 
-0.0126408 -0.0698043 0.997481 
-0.0232165 -0.0747397 0.996933 
-0.000643323 -0.0165344 0.999863 
0.0139208 -0.00529358 0.999889 
0.0316511 -0.00949815 0.999454 
0.0211684 -0.0151182 0.999662 
0.0498601 0.0145104 0.998651 
0.049558 0.0514531 0.997445 
0.0529602 0.0490952 0.997389 
0.0168128 0.00324669 0.999853 
0.00138356 0.01017 0.999947 
-0.011002 0.0206879 0.999725 
-0.0396498 0.0303524 0.998753 
-0.0286792 0.0193407 0.999402 
-0.0103139 0.00950019 0.999902 
0.0325187 0.00584615 0.999454 
0.028449 -0.00823017 0.999561 
-0.00542754 0.00996191 0.999936 
-0.00949227 0.0134847 0.999864 
0.0441287 0.0218013 0.998788 
0.0960626 0.0670819 0.993112 
0.110694 0.135378 0.984591 
0.115808 0.234497 0.965194 
0.142858 -0.186971 0.971922 
0.0699004 -0.0860315 0.993837 
0.00542991 -0.0202795 0.99978 
-0.0100764 0.0118689 0.999879 
0.00865967 0.0224382 0.999711 
0.0192954 0.0334136 0.999255 
-0.00554014 0.0508955 0.998689 
-0.011888 0.0293083 0.9995 
-0.0170098 -0.0250577 0.999541 
-0.0250946 -0.0916453 0.995475 
-0.0187319 -0.0600534 0.998019 
0.00977426 0.00227918 0.99995 
0.0334885 0.0214824 0.999208 
0.0435081 -0.0113561 0.998989 
0.0387653 -0.0289855 0.998828 
0.0515576 0.00197928 0.998668 
0.0718271 0.0539571 0.995957 
0.0647463 0.042809 0.996983 
0.0325322 0.0284935 0.999064 
0.00233743 0.0318279 0.999491 
-0.0262002 0.0271963 0.999287 
-0.0274912 0.0164836 0.999486 
0.011261 0.00573845 0.99992 
0.00858541 0.0161586 0.999833 
0.0355445 0.0251457 0.999052 
0.0296956 0.0198991 0.999361 
0.0197677 0.0160301 0.999676 
-0.00684852 0.0126749 0.999896 
0.0181296 0.0251457 0.999519 
0.0682077 0.0470461 0.996561 
0.098118 0.0967547 0.99046 
0.128066 0.183878 0.974571 
0.219893 0.352748 0.909514 
0.160224 -0.159814 0.974057 
0.0467939 -0.0619242 0.996983 
-0.0241189 0.0168046 0.999568 
-0.0322744 0.0572156 0.99784 
0.005703 0.0548634 0.998478 
0.0350458 0.0387363 0.998635 
0.0129285 0.0363473 0.999256 
-0.0270051 0.0450985 0.998617 
-0.0209792 0.0433149 0.998841 
-0.0132949 0.0195264 0.999721 
-0.0182716 -0.0538238 0.998383 
0.00382276 -0.0228044 0.999733 
0.0215277 0.00479533 0.999757 
0.0411951 0.0167958 0.99901 
0.0341479 -0.0310811 0.998933 
0.0328174 -0.0314706 0.998966 
0.0397561 -0.0203229 0.999003 
0.0617446 0.0181106 0.997928 
0.0497192 -0.00511004 0.99875 
0.0367936 0.0311873 0.998836 
0.0218215 0.0416946 0.998892 
-0.0106408 0.0239192 0.999657 
0.00771509 2.03184e-05 0.99997 
0.0353354 0.00970775 0.999328 
0.0388471 0.021619 0.999011 
0.0448657 0.0358849 0.998348 
0.0456457 0.0286118 0.998548 
0.0588011 0.0220197 0.998027 
0.0400459 0.0168056 0.999057 
0.0310799 0.0150256 0.999404 
0.0581082 0.0206475 0.998097 
0.0857398 0.0542195 0.994841 
0.101066 0.121348 0.987451 
0.157125 0.20567 0.965925 
0.272545 0.302684 0.913292 
0.140973 -0.0893831 0.98597 
0.0546019 -0.0382566 0.997775 
-0.0180586 0.0228492 0.999576 
-0.0408779 0.0716579 0.996591 
-0.0161017 0.0713864 0.997319 
0.0084152 0.0334341 0.999405 
-0.00317705 0.00747483 0.999967 
-0.0360842 0.00552715 0.999333 
-0.0332754 0.0230505 0.99918 
-0.0110066 0.0222502 0.999692 
0.000661249 -0.00500223 0.999987 
0.0226414 -0.00181795 0.999742 
0.031238 -0.00545189 0.999497 
0.036493 -0.0166413 0.999195 
0.0375608 -0.0637326 0.99726 
0.0319249 -0.0429765 0.998566 
0.059263 -0.0336866 0.997674 
0.0517461 -0.0328799 0.998119 
0.0393201 -0.0515823 0.997894 
0.0326206 0.00830267 0.999433 
0.0452411 0.0413646 0.998119 
0.0260301 0.0328136 0.999122 
0.0255099 0.0149261 0.999563 
0.0158371 0.0332232 0.999322 
0.0399101 0.0458587 0.99815 
0.034506 0.0495829 0.998174 
0.0552347 0.0258248 0.998139 
0.0667167 0.039801 0.996978 
0.0411866 0.0392212 0.998381 
0.0324532 0.0189119 0.999294 
0.0571396 0.0247963 0.998058 
0.0710353 0.0720804 0.994866 
0.0798957 0.114294 0.990229 
0.156011 0.158969 0.974879 
0.301504 0.241904 0.922268 
0.01227 -0.0542565 0.998452 
0.0317832 -0.0170161 0.99935 
-0.000339794 0.00502448 0.999987 
-0.0220124 0.0331771 0.999207 
-0.00603962 0.0569099 0.998361 
0.00548801 0.0425311 0.99908 
-0.0124759 0.0107538 0.999864 
-0.0358787 -0.00971766 0.999309 
-0.0418595 -0.0221763 0.998877 
-0.0294062 -0.0113651 0.999503 
-0.0080646 0.0103923 0.999913 
0.0100365 0.00967834 0.999903 
0.0311396 -0.00489186 0.999503 
0.0384209 -0.0245233 0.998961 
0.0382544 -0.0528554 0.997869 
0.0580293 -0.075204 0.995478 
0.0620059 -0.0444514 0.997085 
0.0889646 -0.0150347 0.995921 
0.0674569 -0.0548516 0.996213 
0.0379228 -0.0667375 0.99705 
0.0258165 -0.0166376 0.999528 
0.0482285 0.0273139 0.998463 
0.0530247 0.0510895 0.997285 
0.020912 0.0358563 0.999138 
-0.00597589 0.0415244 0.99912 
0.00726668 0.0666727 0.997748 
0.0114114 0.0520182 0.998581 
0.0395693 0.0255867 0.998889 
0.0598103 0.036864 0.997529 
0.0433367 0.0715091 0.996498 
0.00915297 0.0612607 0.99808 
0.0135609 0.0398645 0.999113 
0.0456219 0.0566224 0.997353 
0.0478562 0.0736299 0.996137 
0.0612197 0.0647801 0.99602 
0.152421 0.080607 0.985023 
0.267562 0.0948323 0.958863 
-0.0688284 -0.198404 0.977701 
-0.0127953 -0.0407526 0.999087 
-0.011877 0.0023186 0.999927 
-0.0268789 0.00430401 0.999629 
-0.00761993 0.0322837 0.99945 
0.0202305 0.0665898 0.997575 
0.0069936 0.0625451 0.998018 
-0.0209904 0.0327639 0.999243 
-0.0276702 -0.00125559 0.999616 
-0.0208254 -0.00698706 0.999759 
-0.0119788 0.0150879 0.999814 
0.010336 0.006477 0.999926 
0.0464379 -0.0247366 0.998615 
0.0606679 -0.0482285 0.996992 
0.0545264 -0.0716794 0.995936 
0.0743716 -0.0563141 0.995639 
0.0862521 -0.0192899 0.996087 
0.084468 -0.00249854 0.996423 
0.0738206 -0.0492833 0.996053 
0.0295242 -0.062081 0.997634 
0.0168187 -0.0321134 0.999343 
0.0239217 0.00725225 0.999688 
0.050784 0.0528287 0.997311 
0.0234683 0.0292215 0.999297 
0.00593144 0.0170732 0.999837 
1.85721e-05 0.0390804 0.999236 
0.0157339 0.0137793 0.999781 
0.0334729 0.0149528 0.999328 
0.0435466 0.0519852 0.997698 
0.0267987 0.0735317 0.996933 
0.00528565 0.0637589 0.997951 
0.0228112 0.0678368 0.997436 
0.0531002 0.0843774 0.995018 
0.0512637 0.0634705 0.996666 
0.0619213 0.0335988 0.997515 
0.117961 0.0656403 0.990846 
0.133205 0.18315 0.974019 
-0.00863187 -0.282781 0.959146 
-0.011384 -0.0881615 0.996041 
-0.0143661 -0.00013971 0.999897 
-0.0357174 0.00641059 0.999341 
-0.0335284 0.0210789 0.999215 
-0.00611901 0.0748215 0.997178 
-0.00426785 0.103393 0.994631 
-0.0262284 0.0806793 0.996395 
-0.0317853 0.0448555 0.998488 
-0.0211165 0.0364656 0.999112 
-0.0122031 0.0513465 0.998606 
-0.000778422 0.0287552 0.999586 
0.0268412 -0.0126226 0.99956 
0.0658422 -0.0533871 0.996401 
0.0791676 -0.0696944 0.994422 
0.0739117 -0.0724289 0.994631 
0.0756879 -0.0314636 0.996635 
0.0865601 -0.000210407 0.996247 
0.0669888 -0.0248038 0.997445 
0.0503938 -0.0533723 0.997302 
-0.000229349 -0.0447613 0.998998 
0.000498614 -0.0256917 0.99967 
-0.00608384 -0.00519603 0.999968 
0.0280765 0.0252165 0.999288 
0.0277733 -0.000336541 0.999614 
0.0200666 -0.0111229 0.999737 
0.0149689 0.00209192 0.999886 
0.012864 0.00402492 0.999909 
0.00542054 0.00341612 0.999979 
0.00896474 0.0211098 0.999737 
0.028647 0.0431925 0.998656 
0.0337823 0.0410762 0.998585 
0.0274423 0.0397962 0.998831 
0.0538051 0.065511 0.9964 
0.085598 0.0785362 0.99323 
0.0705944 0.0471312 0.996391 
0.0432266 0.0249525 0.998754 
0.0586862 0.0826618 0.994848 
0.105486 0.212392 0.971474 
0.0710511 -0.284182 0.956134 
0.0257212 -0.10387 0.994258 
0.00734815 0.00793334 0.999942 
-0.0132404 0.0235753 0.999634 
-0.0237625 0.00995292 0.999668 
-0.0174604 0.0363727 0.999186 
-0.0152538 0.0741968 0.997127 
-0.0261968 0.0725349 0.997022 
-0.0282511 0.052226 0.998236 
-0.0154109 0.0553268 0.998349 
-0.00351861 0.074355 0.997226 
0.0076528 0.0493615 0.998752 
0.034961 -0.0103799 0.999335 
0.0663331 -0.0481646 0.996634 
0.0720203 -0.0547703 0.995898 
0.0700138 -0.0534885 0.996111 
0.0642923 -0.0354013 0.997303 
0.079791 -0.02059 0.996599 
0.0506452 -0.0720919 0.996111 
0.0190366 -0.0639592 0.997771 
-0.0289079 -0.0202678 0.999377 
-0.0260328 -0.000997533 0.999661 
-0.0138732 -0.0209653 0.999684 
0.00916326 -0.0188522 0.99978 
0.0113962 -0.0327816 0.999398 
0.00116567 -0.0234816 0.999724 
0.0132647 -0.0151729 0.999797 
0.0218245 -0.00855128 0.999725 
0.00439384 0.00662722 0.999968 
-0.00333651 0.0131672 0.999908 
0.0229676 0.0106589 0.999679 
0.0312719 0.00291233 0.999507 
0.0303777 0.0104889 0.999483 
0.0690545 0.0357616 0.996972 
0.0969407 0.0458273 0.994235 
0.055224 0.0299174 0.998026 
-0.00451092 0.0249329 0.999679 
-9.24169e-05 0.0848942 0.99639 
0.0316347 0.209429 0.977312 
0.0453442 -0.221978 0.973997 
0.0272136 -0.102395 0.994371 
0.00222007 0.0140466 0.999899 
-0.0112073 0.0430965 0.999008 
-0.0104252 0.00985124 0.999897 
-0.00589219 -0.00855532 0.999946 
-0.00340056 0.00941555 0.99995 
-0.00301335 0.0258164 0.999662 
-0.00458314 0.0245863 0.999687 
-0.00300897 0.0331568 0.999446 
-0.00195874 0.0579789 0.998316 
0.00331945 0.0579292 0.998315 
0.0266827 0.0182677 0.999477 
0.0553026 -0.013512 0.998378 
0.0635857 -0.0172406 0.997827 
0.0575283 -0.0280597 0.997949 
0.0668099 -0.0541742 0.996294 
0.0718586 -0.0754441 0.994557 
0.0365025 -0.115701 0.992613 
-0.00489449 -0.0729565 0.997323 
-0.0314637 -0.0287677 0.999091 
-0.0317821 0.0057517 0.999478 
-0.0195784 -0.031518 0.999311 
-0.00888547 -0.0427676 0.999046 
-0.0333078 -0.029639 0.999006 
-0.0221313 -0.0394133 0.998978 
0.0286176 -0.0507073 0.998303 
0.0466052 -0.0252113 0.998595 
0.019072 -0.0120266 0.999746 
0.0134877 -0.0334853 0.999348 
0.0365776 -0.0275007 0.998952 
0.0337686 -0.00728507 0.999403 
0.0327782 -0.00295243 0.999458 
0.0644983 0.000732097 0.997918 
0.0703815 0.0171052 0.997373 
0.0241095 0.0277639 0.999324 
-0.0104874 0.0424968 0.999042 
0.00602488 0.10765 0.994171 
0.0524985 0.237888 0.969873 
-0.0387931 -0.237574 0.970594 
-0.00879719 -0.0719836 0.997367 
-0.00884841 0.0259717 0.999624 
0.00137557 0.0231072 0.999732 
0.0126649 -0.00655592 0.999898 
0.0102385 -0.00931665 0.999904 
0.0077541 0.0140063 0.999872 
0.00531204 0.0260608 0.999646 
-0.000410127 0.0188815 0.999822 
-0.00737307 0.0228975 0.999711 
-0.0162093 0.0348679 0.99926 
-0.00413013 0.0251397 0.999675 
0.0322304 0.00827355 0.999446 
0.0591236 0.0071962 0.998225 
0.0639604 0.000781981 0.997952 
0.0732129 -0.0270878 0.996948 
0.0989828 -0.0735799 0.992365 
0.0777932 -0.112724 0.990576 
0.0504373 -0.0925587 0.994429 
-0.00800787 -0.0840611 0.996428 
-0.0170057 -0.04977 0.998616 
-0.0290634 -0.0167015 0.999438 
-0.0432694 -0.0359417 0.998417 
-0.0478745 -0.0359193 0.998207 
-0.0633936 -0.0221064 0.997744 
-0.0627306 -0.0243917 0.997732 
-0.0151614 -0.066264 0.997687 
0.0359555 -0.0691384 0.996959 
0.040799 -0.0281132 0.998772 
0.0268312 -0.0508752 0.998345 
0.0384925 -0.0869601 0.995468 
0.0529773 -0.0417639 0.997722 
0.0403237 -0.00656268 0.999165 
0.0299709 -0.0276794 0.999167 
0.0362785 -0.0340296 0.998762 
0.033662 -0.0063118 0.999413 
0.0237844 0.0226755 0.99946 
0.0405914 0.099882 0.994171 
0.102526 0.272128 0.956784 
-0.0540148 -0.313305 0.948115 
-0.018245 -0.148318 0.988771 
0.0092786 -0.0434965 0.99901 
0.0278204 0.00211442 0.999611 
0.0408833 0.00561211 0.999148 
0.0315181 0.00507707 0.99949 
0.00540423 0.0309699 0.999506 
-0.013108 0.0620911 0.997984 
-0.0148913 0.0471569 0.998776 
-0.000875002 0.00938161 0.999956 
0.00216397 0.00810752 0.999965 
-0.0100834 0.0264875 0.999598 
0.0073462 0.022408 0.999722 
0.0498932 0.0144577 0.99865 
0.0748354 0.00971616 0.997149 
0.0890064 -0.0127389 0.99595 
0.110211 -0.0416255 0.993036 
0.101495 -0.0496018 0.993599 
0.0597428 -0.0168189 0.998072 
0.0129411 -0.0603908 0.998091 
0.00638252 -0.0453086 0.998953 
-0.0382929 -0.0456827 0.998222 
-0.0691812 -0.0312292 0.997115 
-0.0756417 -0.0129953 0.99705 
-0.0659247 -0.00146825 0.997824 
-0.0289109 -0.0307224 0.99911 
-0.0035423 -0.0645677 0.997907 
-0.00175868 -0.0447139 0.998998 
0.00171735 -0.0417628 0.999126 
0.0203164 -0.0939166 0.995373 
0.0350914 -0.0889285 0.99542 
0.0394771 -0.0308836 0.998743 
0.037105 -0.0308893 0.998834 
0.0344174 -0.0653188 0.997271 
0.0403248 -0.0670371 0.996935 
0.0483839 -0.0463813 0.997751 
0.0527318 0.00498817 0.998596 
0.0685969 0.102949 0.992319 
0.108234 0.204247 0.972918 
0.0130398 -0.373153 0.927678 
0.0296814 -0.155632 0.987369 
0.045018 -0.052861 0.997587 
0.0537107 -0.00670604 0.998534 
0.0482272 0.00895433 0.998796 
0.0120481 0.0225632 0.999673 
-0.0271926 0.0622199 0.997692 
-0.0338026 0.0739609 0.996688 
0.00199079 0.0264554 0.999648 
0.0360403 -0.000617321 0.99935 
0.0197323 0.029084 0.999382 
0.00450902 0.0369318 0.999308 
0.0373212 0.0191189 0.99912 
0.068069 0.019601 0.997488 
0.074819 0.0104491 0.997142 
0.0831545 -0.0139676 0.996439 
0.0966614 -0.0131438 0.995231 
0.0743417 0.0106606 0.997176 
0.0414552 0.0141441 0.99904 
0.0417025 -0.00714589 0.999105 
0.0414912 -0.00959701 0.999093 
-0.00857194 -0.0326495 0.99943 
-0.0457694 -0.0339517 0.998375 
-0.0427953 -0.0272857 0.998711 
-0.0282744 -0.00575883 0.999584 
-0.000668916 0.00362397 0.999993 
0.0245849 -0.0246805 0.999393 
0.0198427 -0.0566315 0.998198 
0.00922912 -0.059677 0.998175 
0.0171324 -0.0705258 0.997363 
0.0273629 -0.0822725 0.996234 
0.0303934 -0.0644119 0.99746 
0.0391293 -0.0630665 0.997242 
0.0493941 -0.0935771 0.994386 
0.0530986 -0.101644 0.993403 
0.0510915 -0.0903236 0.994601 
0.0380386 -0.0664386 0.997065 
0.0362745 0.00830226 0.999307 
0.0810149 0.104921 0.991175 
0.159581 -0.331131 0.929992 
0.0938535 -0.178026 0.97954 
0.0583377 -0.0847363 0.994694 
0.0416209 -0.0211165 0.99891 
0.0374706 0.0219769 0.999056 
0.0173187 0.0229368 0.999587 
-0.0196714 0.0208435 0.999589 
-0.0350871 0.0444858 0.998394 
-0.00498752 0.0418533 0.999111 
0.0374495 0.013391 0.999209 
0.0286313 0.0241939 0.999297 
-0.00848082 0.0373023 0.999268 
0.0066169 0.00412183 0.99997 
0.0518197 -0.00380521 0.998649 
0.0567196 0.0289456 0.99797 
0.0424248 0.0305623 0.998632 
0.0487358 -0.00459966 0.998801 
0.0539821 -0.0135274 0.99845 
0.0353583 -0.00614393 0.999356 
0.0286552 -0.00933367 0.999546 
0.0115442 -0.00468156 0.999922 
-0.0204613 -0.0160122 0.999662 
-0.0234527 -0.0367475 0.999049 
-0.00506596 -0.0319616 0.999476 
0.0140624 -0.00883831 0.999862 
0.0423322 -0.0118245 0.999034 
0.0640431 -0.052338 0.996574 
0.0652026 -0.0941787 0.993418 
0.0475485 -0.100781 0.993772 
0.0320782 -0.0819711 0.996118 
0.0356299 -0.076856 0.996405 
0.0460037 -0.100081 0.993915 
0.0501156 -0.136733 0.989339 
0.0451738 -0.13772 0.98944 
0.0361491 -0.0976075 0.994568 
0.0175347 -0.0751174 0.997021 
-0.00377727 -0.0575935 0.998333 
-0.0116695 -0.0227845 0.999672 
-0.00887565 0.0133327 0.999872 
0.15826 -0.200935 0.966736 
0.0774973 -0.0855467 0.993316 
0.0306839 -0.0307169 0.999057 
0.0163974 0.0299946 0.999416 
0.0190163 0.0650527 0.997701 
0.0057332 0.0292801 0.999555 
-0.0111106 0.000884938 0.999938 
0.00143363 0.014992 0.999887 
0.0296483 0.0244863 0.99926 