# vtk DataFile Version 3.0 
Exported using Morpho https://github.com/Morpho-lang/morpho 
ASCII 
DATASET UNSTRUCTURED_GRID 

POINTS 1245 float 
-0.303845 -0.952721 0 
-0.250833 -0.96803 0 
-0.195084 -0.980787 0 
-0.146308 -0.989239 0 
-0.0940719 -0.995565 0 
-0.0475118 -0.998871 0 
-0.000246339 -1 0 
0.0470875 -0.998891 0 
0.0937543 -0.995595 0 
0.146139 -0.989264 0 
0.195062 -0.980791 0 
0.250843 -0.968028 0 
0.303953 -0.952687 0 
-0.409153 -0.912466 0 
-0.356519 -0.934288 0 
-0.308871 -0.898929 0 
-0.258282 -0.916037 0 
-0.207345 -0.934859 0 
-0.154868 -0.930629 0 
-0.104343 -0.948989 0 
-0.0520099 -0.939193 0 
-8.5762e-05 -0.954582 0 
0.0518744 -0.939288 0 
0.104354 -0.949042 0 
0.154696 -0.9306 0 
0.207366 -0.934975 0 
0.258274 -0.916081 0 
0.308979 -0.898924 0 
0.356593 -0.93426 0 
0.409236 -0.912429 0 
-0.513788 -0.857917 0 
-0.461695 -0.887039 0 
-0.411157 -0.857936 0 
-0.359855 -0.879963 0 
-0.306888 -0.847481 0 
-0.254732 -0.866979 0 
-0.201991 -0.889059 0 
-0.149956 -0.874108 0 
-0.100608 -0.900088 0 
-0.0497575 -0.880388 0 
2.4595e-05 -0.904789 0 
0.0496869 -0.8804 0 
0.100612 -0.900177 0 
0.149872 -0.874171 0 
0.202071 -0.889165 0 
0.254695 -0.867031 0 
0.306946 -0.847482 0 
0.359894 -0.879943 0 
0.411236 -0.857929 0 
0.461748 -0.887011 0 
0.513842 -0.857885 0 
-0.564741 -0.825268 0 
-0.512908 -0.802945 0 
-0.462372 -0.832348 0 
-0.410124 -0.804631 0 
-0.358606 -0.827415 0 
-0.305781 -0.795641 0 
-0.25358 -0.816639 0 
-0.200756 -0.839997 0 
-0.149043 -0.818944 0 
-0.0987265 -0.846667 0 
-0.0490473 -0.822548 0 
5.00659e-05 -0.849932 0 
0.0490834 -0.822542 0 
0.0987838 -0.846676 0 
0.148997 -0.818924 0 
0.200826 -0.840131 0 
0.253508 -0.816728 0 
0.305831 -0.795701 0 
0.358581 -0.827419 0 
0.410181 -0.804654 0 
0.462414 -0.83234 0 
0.512965 -0.802929 0 
0.564777 -0.825243 0 
-0.660798 -0.750564 0 
-0.614015 -0.789295 0 
-0.561786 -0.769772 0 
-0.510673 -0.747856 0 
-0.460836 -0.778365 0 
-0.408794 -0.751554 0 
-0.357337 -0.774971 0 
-0.304815 -0.743684 0 
-0.252907 -0.765535 0 
-0.200631 -0.789263 0 
-0.149244 -0.764328 0 
-0.0986912 -0.791935 0 
-0.0492815 -0.765764 0 
4.16586e-05 -0.79382 0 
0.0492411 -0.765708 0 
0.0987508 -0.791951 0 
0.149196 -0.764326 0 
0.200666 -0.789356 0 
0.252841 -0.765599 0 
0.304862 -0.743741 0 
0.357323 -0.775038 0 
0.408863 -0.751626 0 
0.460863 -0.778382 0 
0.510716 -0.747859 0 
0.561819 -0.769761 0 
0.614041 -0.789274 0 
0.660811 -0.750552 0 
-0.707107 -0.707107 0 
-0.654819 -0.699058 0 
-0.60813 -0.73348 0 
-0.558104 -0.71337 0 
-0.509495 -0.692659 0 
-0.45935 -0.724356 0 
-0.407328 -0.698865 0 
-0.355968 -0.722823 0 
-0.303722 -0.691387 0 
-0.252254 -0.71362 0 
-0.20067 -0.737336 0 
-0.149608 -0.710068 0 
-0.0991558 -0.737129 0 
-0.0495872 -0.709825 0 
-2.23646e-05 -0.737917 0 
0.0494408 -0.709766 0 
0.0991291 -0.737116 0 
0.149502 -0.710042 0 
0.200696 -0.73743 0 
0.252186 -0.713735 0 
0.303753 -0.691518 0 
0.355952 -0.722893 0 
0.407371 -0.698945 0 
0.459374 -0.724407 0 
0.509524 -0.692668 0 
0.558131 -0.713361 0 
0.608151 -0.733462 0 
0.654824 -0.699048 0 
0.707107 -0.707107 0 
-0.750564 -0.660798 0 
-0.699058 -0.654819 0 
-0.647692 -0.647692 0 
-0.603437 -0.675718 0 
-0.55905 -0.655305 0 
-0.508501 -0.639581 0 
-0.457509 -0.671321 0 
-0.405555 -0.646545 0 
-0.354417 -0.670703 0 
-0.302427 -0.639219 0 
-0.251503 -0.661417 0 
-0.20061 -0.684911 0 
-0.149717 -0.655943 0 
-0.0995004 -0.682466 0 
-0.0498216 -0.654561 0 
-5.02113e-05 -0.682664 0 
0.0496787 -0.654499 0 
0.0994374 -0.682501 0 
0.149603 -0.655909 0 
0.200573 -0.684972 0 
0.251388 -0.661524 0 
0.302407 -0.639359 0 
0.354397 -0.670836 0 
0.405575 -0.646641 0 
0.457525 -0.67138 0 
0.508497 -0.639623 0 
0.559063 -0.655324 0 
0.603436 -0.675715 0 
0.64769 -0.64769 0 
0.699048 -0.654824 0 
0.750552 -0.660811 0 
-0.789295 -0.614015 0 
-0.73348 -0.60813 0 
-0.675718 -0.603437 0 
-0.613088 -0.613088 0 
-0.55962 -0.604068 0 
-0.506189 -0.588854 0 
-0.455505 -0.618874 0 
-0.403019 -0.594688 0 
-0.352514 -0.618952 0 
-0.300977 -0.586897 0 
-0.250543 -0.608767 0 
-0.200257 -0.632053 0 
-0.150049 -0.601979 0 
-0.0998281 -0.628222 0 
-0.0500377 -0.599914 0 
-3.12334e-05 -0.628076 0 
0.0498927 -0.599835 0 
0.0997818 -0.628253 0 
0.149924 -0.601867 0 
0.200214 -0.632118 0 
0.250423 -0.608915 0 
0.30086 -0.587085 0 
0.352457 -0.619096 0 
0.402948 -0.594743 0 
0.455483 -0.618952 0 
0.506147 -0.588901 0 
0.55964 -0.604067 0 
0.613069 -0.613069 0 
0.675715 -0.603436 0 
0.733462 -0.608151 0 
0.789274 -0.614041 0 
-0.825268 -0.564741 0 
-0.769772 -0.561786 0 
-0.71337 -0.558104 0 
-0.655305 -0.55905 0 
-0.604068 -0.55962 0 
-0.551031 -0.551031 0 
-0.497922 -0.537596 0 
-0.451508 -0.567021 0 
-0.399773 -0.542431 0 
-0.350494 -0.567003 0 
-0.301574 -0.534146 0 
-0.250874 -0.555692 0 
-0.200542 -0.579013 0 
-0.150324 -0.548268 0 
-0.100169 -0.57443 0 
-0.0500152 -0.545912 0 
-3.29278e-05 -0.574268 0 
0.0499208 -0.545788 0 
0.100058 -0.574485 0 
0.150038 -0.548073 0 
0.200377 -0.579041 0 
0.250556 -0.55585 0 
0.301273 -0.534348 0 
0.350318 -0.567174 0 
0.399615 -0.542384 0 
0.451404 -0.5671 0 
0.497945 -0.537702 0 
0.551073 -0.551073 0 
0.604067 -0.55964 0 
0.655324 -0.559063 0 
0.713361 -0.558131 0 
0.769761 -0.561819 0 
0.825243 -0.564777 0 
-0.857917 -0.513788 0 
-0.802945 -0.512908 0 
-0.747856 -0.510673 0 
-0.692659 -0.509495 0 
-0.639581 -0.508501 0 
-0.588854 -0.506189 0 
-0.537596 -0.497922 0 
-0.486157 -0.486157 0 
-0.444928 -0.512952 0 
-0.401787 -0.486784 0 
-0.351685 -0.513639 0 
-0.299695 -0.48291 0 
-0.250032 -0.503 0 
-0.200501 -0.526165 0 
-0.149489 -0.495195 0 
-0.0999281 -0.521367 0 
-0.0499712 -0.492294 0 
4.64723e-05 -0.520999 0 
0.050147 -0.492108 0 
0.099934 -0.52133 0 
0.14957 -0.494692 0 
0.200133 -0.526255 0 
0.249839 -0.503309 0 
0.299839 -0.483005 0 
0.351514 -0.513798 0 
0.401881 -0.486608 0 
0.444935 -0.513054 0 
0.486228 -0.486228 0 
0.537702 -0.497945 0 
0.588901 -0.506147 0 
0.639623 -0.508497 0 
0.692668 -0.509524 0 
0.747859 -0.510716 0 
0.802929 -0.512965 0 
0.857885 -0.513842 0 
-0.887039 -0.461695 0 
-0.832348 -0.462372 0 
-0.778365 -0.460836 0 
-0.724356 -0.45935 0 
-0.671321 -0.457509 0 
-0.618874 -0.455505 0 
-0.567021 -0.451508 0 
-0.512952 -0.444928 0 
-0.450685 -0.450685 0 
-0.397667 -0.437543 0 
-0.348492 -0.462546 0 
-0.295416 -0.432968 0 
-0.247004 -0.450633 0 
-0.198702 -0.473818 0 
-0.150161 -0.441625 0 
-0.100085 -0.468395 0 
-0.0502271 -0.439281 0 
0.000144229 -0.468374 0 
0.0504178 -0.439106 0 
0.100428 -0.468348 0 
0.150697 -0.441105 0 
0.199103 -0.473881 0 
0.247983 -0.450921 0 
0.296569 -0.432268 0 
0.348831 -0.462562 0 
0.397506 -0.4368 0 
0.450637 -0.450637 0 
0.513054 -0.444935 0 
0.5671 -0.451404 0 
0.618952 -0.455483 0 
0.67138 -0.457525 0 
0.724407 -0.459374 0 
0.778382 -0.460863 0 
0.83234 -0.462414 0 
0.887011 -0.461748 0 
-0.912466 -0.409153 0 
-0.857936 -0.411157 0 
-0.804631 -0.410124 0 
-0.751554 -0.408794 0 
-0.698865 -0.407328 0 
-0.646545 -0.405555 0 
-0.594688 -0.403019 0 
-0.542431 -0.399773 0 
-0.486784 -0.401787 0 
-0.437543 -0.397667 0 
-0.387256 -0.387256 0 
-0.344215 -0.411459 0 
-0.30136 -0.381507 0 
-0.25021 -0.395692 0 
-0.200211 -0.419975 0 
-0.150955 -0.389014 0 
-0.100617 -0.416095 0 
-0.0503197 -0.386922 0 
-4.02994e-05 -0.416525 0 
0.05006 -0.386948 0 
0.100784 -0.416323 0 
0.150432 -0.388572 0 
0.200855 -0.420694 0 
0.25086 -0.396905 0 
0.301746 -0.379789 0 
0.344135 -0.410678 0 
0.385823 -0.385823 0 
0.4368 -0.397506 0 
0.486608 -0.401881 0 
0.542384 -0.399615 0 
0.594743 -0.402948 0 
0.646641 -0.405575 0 
0.698945 -0.407371 0 
0.751626 -0.408863 0 
0.804654 -0.410181 0 
0.857929 -0.411236 0 
0.912429 -0.409236 0 
-0.934288 -0.356519 0 
-0.879963 -0.359855 0 
-0.827415 -0.358606 0 
-0.774971 -0.357337 0 
-0.722823 -0.355968 0 
-0.670703 -0.354417 0 
-0.618952 -0.352514 0 
-0.567003 -0.350494 0 
-0.513639 -0.351685 0 
-0.462546 -0.348492 0 
-0.411459 -0.344215 0 
-0.351697 -0.351697 0 
-0.29839 -0.336232 0 
-0.249846 -0.342529 0 
-0.200971 -0.367271 0 
-0.149995 -0.337521 0 
-0.100435 -0.3646 0 
-0.0498692 -0.335025 0 
-6.88684e-05 -0.365025 0 
0.0495433 -0.334795 0 
0.0996798 -0.364834 0 
0.148162 -0.337172 0 
0.199644 -0.368939 0 
0.24763 -0.345582 0 
0.295348 -0.332889 0 
0.34978 -0.34978 0 
0.410678 -0.344135 0 
0.462562 -0.348831 0 
0.513798 -0.351514 0 
0.567174 -0.350318 0 
0.619096 -0.352457 0 
0.670836 -0.354397 0 
0.722893 -0.355952 0 
0.775038 -0.357323 0 
0.827419 -0.358581 0 
0.879943 -0.359894 0 
0.93426 -0.356593 0 
-0.952721 -0.303845 0 
-0.898929 -0.308871 0 
-0.847481 -0.306888 0 
-0.795641 -0.305781 0 
-0.743684 -0.304815 0 
-0.691387 -0.303722 0 
-0.639219 -0.302427 0 
-0.586897 -0.300977 0 
-0.534146 -0.301574 0 
-0.48291 -0.299695 0 
-0.432968 -0.295416 0 
-0.381507 -0.30136 0 
-0.336232 -0.29839 0 
-0.288184 -0.288184 0 
-0.242975 -0.290577 0 
-0.198059 -0.315051 0 
-0.148383 -0.285894 0 
-0.0994753 -0.313232 0 
-0.0507184 -0.283118 0 
-0.000202902 -0.313447 0 
0.0500077 -0.282824 0 
0.0988289 -0.312817 0 
0.148102 -0.28482 0 
0.195742 -0.317413 0 
0.240766 -0.295824 0 
0.285014 -0.285014 0 
0.332889 -0.295348 0 
0.379789 -0.301746 0 
0.432268 -0.296569 0 
0.483005 -0.299839 0 
0.534348 -0.301273 0 
0.587085 -0.30086 0 
0.639359 -0.302407 0 
0.691518 -0.303753 0 
0.743741 -0.304862 0 
0.795701 -0.305831 0 
0.847482 -0.306946 0 
0.898924 -0.308979 0 
0.952687 -0.303953 0 
-0.96803 -0.250833 0 
-0.916037 -0.258282 0 
-0.866979 -0.254732 0 
-0.816639 -0.25358 0 
-0.765535 -0.252907 0 
-0.71362 -0.252254 0 
-0.661417 -0.251503 0 
-0.608767 -0.250543 0 
-0.555692 -0.250874 0 
-0.503 -0.250032 0 
-0.450633 -0.247004 0 
-0.395692 -0.25021 0 
-0.342529 -0.249846 0 
-0.290577 -0.242975 0 
-0.239946 -0.239946 0 
-0.194478 -0.26004 0 
-0.151293 -0.23238 0 
-0.101048 -0.260904 0 
-0.0503938 -0.232537 0 
-0.000203281 -0.262984 0 
0.050638 -0.232316 0 
0.100942 -0.260855 0 
0.152412 -0.232597 0 
0.195768 -0.261421 0 
0.241873 -0.241873 0 
0.295824 -0.240766 0 
0.345582 -0.24763 0 
0.396905 -0.25086 0 
0.450921 -0.247983 0 
[...]
POINT_DATA 1245 
VECTORS vectors float
0.626266 -0.202283 0.752909 
0.635467 -0.172687 0.75257 
0.640643 -0.140778 0.754823 
0.642796 -0.112001 0.757805 
0.643295 -0.0791905 0.761512 
0.643098 -0.0499447 0.764153 
0.642528 -0.0212508 0.765968 
0.634421 0.00949679 0.772929 
0.626997 0.0434824 0.777807 
0.619414 0.0848398 0.780467 
0.612923 0.123188 0.78048 
0.605842 0.166639 0.777938 
0.597775 0.205986 0.774748 
0.598618 -0.26444 0.756127 
0.613846 -0.232762 0.754331 
0.510235 -0.17711 0.841601 
0.521612 -0.152525 0.839439 
0.540886 -0.1299 0.831004 
0.510883 -0.0973796 0.854117 
0.537953 -0.0741872 0.839704 
0.504349 -0.0431937 0.862419 
0.533001 -0.0165355 0.845953 
0.496281 0.0140718 0.868048 
0.521621 0.0473904 0.85186 
0.489673 0.0783759 0.868376 
0.515545 0.11764 0.848749 
0.495926 0.148599 0.855556 
0.486472 0.180199 0.854911 
0.588879 0.2438 0.770574 
0.578732 0.279923 0.765972 
0.560624 -0.330601 0.759212 
0.580798 -0.297184 0.757863 
0.487299 -0.23051 0.842262 
0.499577 -0.203127 0.842118 
0.410689 -0.150176 0.899323 
0.422791 -0.128803 0.897027 
0.443728 -0.108722 0.889542 
0.399307 -0.0778332 0.913507 
0.435101 -0.0607892 0.898327 
0.389681 -0.0332072 0.920351 
0.429383 -0.0125224 0.903036 
0.383391 0.0124712 0.923502 
0.422021 0.04011 0.905698 
0.382933 0.0635801 0.921585 
0.422659 0.0988215 0.900885 
0.401985 0.125332 0.907028 
0.391539 0.152124 0.9075 
0.47918 0.211383 0.851882 
0.471549 0.24206 0.847967 
0.566582 0.314145 0.761773 
0.551636 0.346684 0.758622 
0.538591 -0.36395 0.759908 
0.456555 -0.287401 0.841997 
0.47305 -0.258832 0.842158 
0.3916 -0.197235 0.898748 
0.401295 -0.173207 0.899423 
0.327238 -0.12704 0.936363 
0.338413 -0.108475 0.934725 
0.357159 -0.0916395 0.929537 
0.311286 -0.063649 0.948182 
0.342204 -0.0490171 0.938346 
0.299489 -0.026107 0.953742 
0.335305 -0.00899381 0.942067 
0.294861 0.0113435 0.955473 
0.332037 0.0338549 0.942659 
0.298885 0.0534209 0.952793 
0.340553 0.0838257 0.936481 
0.322123 0.105854 0.940761 
0.312853 0.128578 0.941058 
0.385384 0.179226 0.905183 
0.379446 0.205874 0.902018 
0.462062 0.271588 0.844239 
0.449678 0.299844 0.841358 
0.533552 0.377866 0.756663 
0.491139 -0.426519 0.759516 
0.515228 -0.396347 0.759901 
0.437711 -0.315088 0.842098 
0.365911 -0.246145 0.897508 
0.379991 -0.221756 0.898015 
0.312023 -0.167864 0.935128 
0.319851 -0.146834 0.936021 
0.259212 -0.107062 0.959868 
0.268827 -0.0915647 0.958826 
0.283788 -0.0767285 0.955812 
0.242241 -0.0524873 0.968795 
0.266099 -0.0398817 0.96312 
0.230165 -0.020698 0.972932 
0.258851 -0.00638003 0.965896 
0.226716 0.0102855 0.973907 
0.258521 0.0290508 0.965569 
0.23308 0.0450914 0.971412 
0.271064 0.0712274 0.959922 
0.256664 0.0895575 0.962343 
0.248263 0.108203 0.962631 
0.307679 0.151303 0.939383 
0.303021 0.174415 0.936887 
0.371567 0.231456 0.899092 
0.36074 0.255879 0.896879 
0.433759 0.326426 0.839821 
0.51246 0.408067 0.755557 
0.489218 0.436969 0.7548 
0.464256 -0.455173 0.759792 
0.40488 -0.372333 0.835129 
0.417225 -0.340933 0.84243 
0.349209 -0.268842 0.897651 
0.291482 -0.210749 0.933072 
0.302765 -0.189136 0.93411 
0.248006 -0.142787 0.958178 
0.253826 -0.124476 0.959207 
0.204645 -0.0905466 0.974639 
0.211878 -0.0767374 0.974279 
0.2236 -0.0644018 0.972551 
0.188202 -0.0433787 0.981172 
0.206224 -0.032701 0.977958 
0.177087 -0.0165885 0.984055 
0.199451 -0.00457037 0.979897 
0.174591 0.00923417 0.984598 
0.200677 0.0249249 0.97934 
0.18153 0.0382346 0.982642 
0.214202 0.0602747 0.974928 
0.202873 0.0755307 0.976288 
0.196897 0.0914959 0.976145 
0.244996 0.127966 0.961042 
0.241248 0.147884 0.95913 
0.296559 0.196678 0.934543 
0.287647 0.218646 0.932445 
0.346297 0.278164 0.895937 
0.415036 0.351263 0.839261 
0.40352 0.382487 0.831189 
0.462522 0.465715 0.754443 
0.434998 -0.480914 0.761248 
0.38005 -0.396004 0.835909 
0.329151 -0.321896 0.887718 
0.331276 -0.290375 0.897741 
0.27721 -0.231951 0.932391 
0.232929 -0.181623 0.955383 
0.240761 -0.161533 0.957048 
0.196546 -0.121684 0.972915 
0.20074 -0.105448 0.973953 
0.160993 -0.0763657 0.983997 
0.166617 -0.0648288 0.983888 
0.175439 -0.0539408 0.983011 
0.146135 -0.0361583 0.988604 
0.159657 -0.0268697 0.986807 
0.136541 -0.0134647 0.990543 
0.153897 -0.00323307 0.988082 
0.134762 0.00816917 0.990844 
0.155696 0.0213571 0.987574 
0.141363 0.0323682 0.989429 
0.168575 0.0510835 0.984364 
0.160179 0.0638187 0.985023 
0.155284 0.0772455 0.984845 
0.194176 0.108141 0.974988 
0.191853 0.125688 0.973342 
0.236317 0.16749 0.957132 
0.230442 0.188065 0.95474 
0.275416 0.239951 0.930897 
0.329819 0.299493 0.895278 
0.328808 0.331375 0.884351 
0.379518 0.406717 0.830992 
0.433775 0.492726 0.754361 
0.404172 -0.503235 0.763806 
0.347505 -0.407041 0.844724 
0.296369 -0.323191 0.898729 
0.264181 -0.257982 0.92933 
0.224704 -0.203463 0.952948 
0.187053 -0.157344 0.969667 
0.191522 -0.138337 0.97169 
0.155648 -0.103865 0.982337 
0.158888 -0.0898321 0.983201 
0.126643 -0.0650553 0.989813 
0.130546 -0.0546192 0.989937 
0.137067 -0.0452275 0.989529 
0.11348 -0.0302402 0.99308 
0.123627 -0.0222224 0.99208 
0.105482 -0.0109938 0.99436 
0.118929 -0.00230571 0.9929 
0.10421 0.00725546 0.994529 
0.120815 0.0183276 0.992506 
0.110061 0.0276314 0.993541 
0.132177 0.0432271 0.990283 
0.125936 0.0540767 0.990563 
0.12275 0.0656576 0.990263 
0.154344 0.0919705 0.983727 
0.152193 0.107046 0.982537 
0.188312 0.143238 0.971608 
0.185489 0.16285 0.969058 
0.223836 0.210342 0.951658 
0.263939 0.266328 0.927041 
0.297175 0.332999 0.894874 
0.348521 0.418596 0.838636 
0.404662 0.516589 0.754576 
0.370351 -0.52444 0.766683 
0.320336 -0.425764 0.846233 
0.273429 -0.339634 0.899937 
0.236412 -0.269487 0.933534 
0.208021 -0.218967 0.9533 
0.176457 -0.172179 0.969132 
0.14753 -0.133287 0.980035 
0.151389 -0.118285 0.981372 
0.122668 -0.0888405 0.988463 
0.125122 -0.0765313 0.989185 
0.0995144 -0.0559627 0.993461 
0.102081 -0.0465997 0.993684 
0.107059 -0.038431 0.99351 
0.0880417 -0.0255325 0.99579 
0.095922 -0.0186508 0.995214 
0.0815719 -0.00907802 0.996626 
0.0922264 -0.00169051 0.995737 
0.0806745 0.00630116 0.996721 
0.0939436 0.015744 0.995453 
0.0856177 0.0235622 0.996049 
0.103572 0.0368774 0.993938 
0.098929 0.0462061 0.994021 
0.0967233 0.056495 0.993707 
0.121889 0.0782161 0.989457 
0.120379 0.0912713 0.988523 
0.149499 0.122053 0.9812 
0.146725 0.137794 0.979533 
0.17647 0.178015 0.968075 
0.208791 0.226147 0.951454 
0.238043 0.278094 0.930591 
0.276137 0.350032 0.895112 
0.323725 0.438254 0.838532 
0.374197 0.53874 0.754809 
0.334296 -0.544574 0.769211 
0.290486 -0.442881 0.848218 
0.248938 -0.35472 0.901224 
0.213641 -0.282516 0.93517 
0.184564 -0.226167 0.956444 
0.160401 -0.181536 0.970215 
0.136423 -0.143492 0.980203 
0.114745 -0.112263 0.987031 
0.118044 -0.0999701 0.987963 
0.0958433 -0.0775976 0.992367 
0.098611 -0.0665991 0.992895 
0.0782798 -0.0482005 0.995766 
0.0798051 -0.0400024 0.996008 
0.0835701 -0.032654 0.995967 
0.0684388 -0.0216867 0.99742 
0.0745433 -0.015634 0.997095 
0.0631944 -0.00760302 0.997972 
0.0715903 -0.00121303 0.997433 
0.0625463 0.00559812 0.998026 
0.0731398 0.0136036 0.997229 
0.0666769 0.0201879 0.99757 
0.0811597 0.031615 0.9962 
0.0776517 0.0396434 0.996192 
0.0765958 0.0487319 0.995871 
0.0965613 0.0679929 0.993002 
0.0946317 0.0795128 0.992332 
0.116753 0.103206 0.987784 
0.114901 0.115576 0.986631 
0.136916 0.14819 0.979435 
0.161695 0.187407 0.968883 
0.187052 0.233313 0.954241 
0.217295 0.291279 0.931633 
0.254157 0.365334 0.895508 
0.297374 0.455389 0.83916 
0.342974 0.558413 0.755344 
0.296803 -0.563807 0.770734 
0.258825 -0.458148 0.850359 
0.222203 -0.367564 0.903063 
0.189997 -0.292894 0.937077 
0.162784 -0.232902 0.958779 
0.140054 -0.185327 0.972645 
0.119982 -0.146999 0.981833 
0.102197 -0.114336 0.988172 
0.0904844 -0.0882046 0.991984 
0.0761845 -0.0676625 0.994795 
0.0775412 -0.0574823 0.995331 
0.0615798 -0.0416351 0.997233 
0.0621127 -0.034039 0.997489 
0.0650548 -0.0278404 0.997493 
0.0529955 -0.0186395 0.998421 
0.0578061 -0.0133508 0.998239 
0.0489162 -0.00647359 0.998782 
0.0555985 -0.000961087 0.998453 
0.048469 0.00492217 0.998813 
0.0568712 0.0117185 0.998313 
0.0517994 0.0176979 0.998501 
0.0634914 0.0270638 0.997615 
0.0608506 0.0340798 0.997565 
0.0602553 0.041966 0.9973 
0.0761694 0.0585539 0.995374 
0.0752915 0.0690724 0.994766 
0.0901348 0.0905688 0.991803 
0.102706 0.117804 0.987711 
0.121764 0.151205 0.980974 
0.142783 0.190816 0.971186 
0.166987 0.239654 0.95639 
0.196047 0.301077 0.93323 
0.230392 0.377374 0.896944 
0.269785 0.469303 0.840815 
0.311094 0.575336 0.756445 
0.259086 -0.582059 0.770767 
0.226799 -0.472175 0.851829 
0.1948 -0.37883 0.904732 
0.166412 -0.301546 0.938817 
0.142352 -0.239606 0.960377 
0.121711 -0.19012 0.974187 
0.104661 -0.150479 0.983057 
0.0897383 -0.118862 0.988847 
0.0788311 -0.0933193 0.992511 
0.069133 -0.0740218 0.994857 
0.059053 -0.057847 0.996577 
0.0607294 -0.0498154 0.99691 
0.0487031 -0.037867 0.998095 
0.0480235 -0.0302308 0.998389 
0.0504167 -0.0243752 0.998431 
0.041011 -0.0163801 0.999024 
0.04494 -0.0115989 0.998922 
0.0378376 -0.00563491 0.999268 
0.0432837 -0.000721921 0.999063 
0.0375895 0.00420274 0.999284 
0.0443356 0.0103879 0.998963 
0.0402343 0.0151944 0.999075 
0.0495561 0.0237607 0.998489 
0.0474593 0.0301512 0.998418 
0.0476772 0.0379091 0.998143 
0.0598008 0.0504794 0.996933 
0.0581934 0.0580222 0.996618 
0.0690218 0.0754457 0.994758 
0.0797197 0.0953721 0.992244 
0.0914029 0.121675 0.988353 
0.107228 0.154238 0.982198 
0.126001 0.194762 0.972724 
0.148227 0.245278 0.958054 
0.174712 0.308369 0.935085 
0.206048 0.386456 0.898997 
0.241734 0.480417 0.843068 
0.278742 0.58948 0.758166 
0.222348 -0.599169 0.769128 
0.195581 -0.485555 0.852047 
0.167563 -0.388962 0.905887 
0.143209 -0.309666 0.939999 
0.121879 -0.245558 0.961689 
0.104266 -0.194171 0.975411 
0.0890709 -0.153642 0.984104 
0.0766315 -0.121284 0.989655 
0.0671344 -0.095367 0.993176 
0.0581248 -0.0753995 0.995458 
0.0508125 -0.059007 0.996964 
0.0463585 -0.0452888 0.997898 
0.0389992 -0.0339593 0.998662 
0.0369087 -0.0266841 0.998962 
0.0390489 -0.0214216 0.999008 
0.0317567 -0.0143744 0.999392 
0.0348281 -0.0101133 0.999342 
0.0291961 -0.0048418 0.999562 
0.0335296 -0.000652027 0.999438 
0.0289532 0.00386771 0.999573 
0.0344188 0.00895705 0.999367 
0.0311616 0.0134593 0.999424 
0.0386049 0.020857 0.999037 
0.0369235 0.0262222 0.998974 
0.0376503 0.03303 0.998745 
0.0454975 0.0451229 0.997945 
0.0509221 0.0597315 0.996915 
0.0590554 0.0766274 0.995309 
0.0683755 0.097289 0.992905 
0.0790639 0.123476 0.989193 
0.0927561 0.156453 0.98332 
0.109392 0.19749 0.974182 
0.129322 0.249377 0.959733 
0.153183 0.313777 0.937059 
0.181163 0.393312 0.90138 
0.213605 0.489287 0.84556 
0.246081 0.601077 0.760362 
0.187437 -0.614677 0.766185 
0.16584 -0.498288 0.851003 
0.141999 -0.400039 0.905431 
0.120804 -0.318048 0.940347 
0.103038 -0.25166 0.962315 
0.0875844 -0.198449 0.97619 
0.0748119 -0.156223 0.984885 
0.0641102 -0.122667 0.990375 
0.0555598 -0.0966028 0.993771 
0.0484848 -0.0759706 0.995931 
0.0418163 -0.0598243 0.997333 
0.0384936 -0.047524 0.998128 
0.0345266 -0.038007 0.998681 
0.0299461 -0.0293115 0.999122 
0.0281098 -0.0231523 0.999337 
0.0298628 -0.0187944 0.999377 
0.0242062 -0.0127126 0.999626 
0.0267748 -0.00890156 0.999602 
0.0222014 -0.00450553 0.999743 
0.025804 -0.000617234 0.999667 
0.0220976 0.00319138 0.999751 
0.0264784 0.00775108 0.999619 
0.0238231 0.0117749 0.999647 
0.0297755 0.0178264 0.999398 
0.0284782 0.0226857 0.999337 
0.0291717 0.0284785 0.999169 
0.033731 0.0371044 0.998742 
0.0385259 0.0473535 0.998135 
0.0426719 0.0602813 0.997269 
0.0495525 0.0768678 0.995809 
0.0575696 0.0976845 0.993551 
0.0668136 0.124024 0.990027 
0.0790611 0.157694 0.984318 
0.0935224 0.199965 0.97533 
0.11117 0.252974 0.961065 
0.132033 0.31897 0.938523 
0.156917 0.39986 0.903044 
0.185689 0.496938 0.847686 
0.213246 0.61021 0.763 
0.15453 -0.627736 0.762933 
0.138673 -0.512758 0.84726 
0.117851 -0.414546 0.902365 
0.100505 -0.331009 0.93826 
0.0856046 -0.262539 0.961117 
0.0727359 -0.206624 0.975713 
0.06202 -0.162272 0.984795 
0.0528031 -0.127077 0.990486 
0.0457592 -0.0993273 0.994002 
0.0393672 -0.0775657 0.99621 
0.0340579 -0.0604729 0.997589 
0.0303947 -0.0467136 0.998446 
0.0270514 -0.0360239 0.998985 
0.0235263 -0.0274777 0.999346 
0.021254 -0.0208471 0.999557 
0.0222725 -0.016533 0.999615 
0.0180587 -0.011786 0.999767 
0.02036 -0.00815056 0.999759 
0.016831 -0.0039491 0.999851 
0.0197169 -0.000435383 0.999806 
0.0166997 0.0031996 0.999855 
0.0201128 0.0073581 0.999771 
0.0180055 0.0110114 0.999777 
0.0222285 0.0161206 0.999623 
0.0214388 0.0205239 0.999559 
0.0234785 0.0277078 0.99934 
0.0270546 0.0363861 0.998972 
0.0310539 0.047104 0.998407 
0.0350831 0.0607618 0.997536 
0.0408108 0.0779445 0.996122 
0.0476966 0.0995914 0.993885 
0.0560478 0.127292 0.99028 
0.0662746 0.162048 0.984555 
0.0789417 0.205981 0.975367 
0.0939389 0.260703 0.960838 
0.111859 0.32797 0.938042 
0.132908 0.409496 0.902579 
0.158479 0.505538 0.848125 
0.179842 0.616697 0.766382 
0.120828 -0.637348 0.761044 
0.113726 -0.53583 0.836632 
0.0958882 -0.438511 0.893596 
0.0818212 -0.352393 0.932268 
0.0694767 -0.279241 0.957704 
0.0591228 -0.219667 0.973782 
0.0502063 -0.172008 0.983815 
0.0428343 -0.134234 0.990024 
0.0367012 -0.104634 0.993833 
0.0317346 -0.0816221 0.996158 
0.0273335 -0.0634955 0.997608 
0.0241284 -0.0491589 0.998499 
0.0214799 -0.0380964 0.999043 
0.0189443 -0.0291636 0.999395 
0.0167674 -0.0217675 0.999622 
0.0159132 -0.0156552 0.999751 
0.0135148 -0.0106979 0.999851 
0.0150186 -0.00728977 0.999861 
0.0122782 -0.00358384 0.999918 
0.01478 -0.000594656 0.999891 
0.0122942 0.00246132 0.999921 
0.0150766 0.00629989 0.999866 
0.0134096 0.0100478 0.99986 
0.0161225 0.015162 0.999755 
0.0169315 0.0213977 0.999628 
0.0189214 0.0290391 0.999399 
0.0217151 0.0379668 0.999043 
0.0248954 0.0491483 0.998481 
0.0283322 0.0632718 0.997594 
0.0331946 0.0812669 0.996139 
0.0388296 0.103977 0.993821 
0.0458 0.133072 0.990048 
0.0545317 0.170067 0.983923 
0.0648984 0.216346 0.974157 
0.0774519 0.274296 0.958521 
0.0923552 0.344793 0.934124 
0.109978 0.428253 0.896942 
0.131975 0.522788 0.842185 
0.142464 0.61985 0.77168 
0.0918208 -0.643346 0.760049 
0.0818222 -0.509458 0.856597 
0.0662355 -0.397502 0.915208 
0.0550454 -0.309131 0.949425 
0.0462416 -0.240044 0.96966 
0.0390151 -0.186054 0.981765 
0.0329981 -0.144142 0.989007 
0.0281566 -0.111682 0.993345 
0.0242094 -0.0865124 0.995957 
0.0207748 -0.067084 0.997531 
0.0182001 -0.0518916 0.998487 
0.0161648 -0.0401229 0.999064 
0.0143169 -0.0310245 0.999416 
0.0127402 -0.0236835 0.999638 
0.0119191 -0.0177108 0.999772 
0.0108627 -0.0132154 0.999854 
0.00904117 -0.00905714 0.999918 
0.0109791 -0.0065304 0.999918 
0.00836048 -0.00350184 0.999959 
0.0104735 -0.000330081 0.999945 
0.00840355 0.00267236 0.999961 
0.0108618 0.00573701 0.999925 
0.00933336 0.00818995 0.999923 
0.0109256 0.0124276 0.999863 
0.0120354 0.0170494 0.999782 
0.0128269 0.0229028 0.999655 
0.0143279 0.0303248 0.999437 
0.0164821 0.0395242 0.999083 
0.0188629 0.0512198 0.998509 
0.0217527 0.0662304 0.997567 
0.0254107 0.0853621 0.996026 
0.0300644 0.110064 0.99347 
0.035577 0.141534 0.989294 
0.0425064 0.182083 0.982364 
0.0510881 0.233955 0.970904 
0.0615847 0.300073 0.951926 
0.0751773 0.384912 0.919886 
0.0943969 0.492203 0.865347 
0.107754 0.621321 0.776112 
0.0599742 -0.647769 0.759472 
0.0581909 -0.54042 0.839381 
0.0483582 -0.436809 0.898254 
0.0396639 -0.342893 0.938537 
0.0330692 -0.266086 0.963382 
0.027717 -0.20566 0.978231 
0.0233377 -0.158791 0.987036 
0.0198257 -0.122662 0.99225 
0.0169273 -0.0948766 0.995345 
0.014521 -0.0735546 0.997185 
0.0126574 -0.056925 0.998298 
0.0111486 -0.0441274 0.998964 
0.00985058 -0.0341426 0.999368 
0.00879937 -0.0262601 0.999616 
0.00815217 -0.0198864 0.999769 
0.00720095 -0.0147853 0.999865 
0.00667117 -0.0107139 0.99992 
0.00666294 -0.00655743 0.999956 
0.00535338 -0.0034062 0.99998 
0.0073077 -0.000606363 0.999973 
0.00544563 0.00234854 0.999982 
0.00661968 0.00564292 0.999962 
0.00656782 0.00988133 0.99993 
0.00745957 0.0140281 0.999874 
0.0081809 0.0191205 0.999784 
0.00891996 0.0254794 0.999636 
0.0100259 0.0335142 0.999388 
0.0116139 0.0434454 0.998988 
0.0132073 0.0560536 0.99834 
0.0152975 0.0724254 0.997257 
0.0179688 0.0931909 0.995486 
0.0210845 0.12013 0.992534 
0.025123 0.154967 0.9876 
0.0300054 0.199728 0.979392 
0.0360546 0.257413 0.965629 
0.043716 0.330465 0.942805 
0.0537608 0.419708 0.906065 
0.0659485 0.51955 0.851891 
0.0675363 0.622382 0.779795 
0.0324836 -0.650646 0.758686 
0.0298971 -0.510079 0.859608 
0.0232923 -0.393716 0.918937 
0.0189688 -0.302063 0.953099 
0.0155085 -0.231496 0.972712 
0.0129573 -0.177661 0.984006 
0.0108421 -0.136517 0.990578 
0.00917563 -0.105125 0.994417 
0.00786083 -0.0810673 0.996678 
0.00676201 -0.0625655 0.998018 
0.00589143 -0.0482939 0.998816 
0.00527907 -0.0372761 0.999291 
0.00466228 -0.0286699 0.999578 
0.00422591 -0.0217723 0.999754 
0.0039991 -0.0165486 0.999855 
0.00338652 -0.0119563 0.999923 
0.00346496 -0.00840144 0.999959 
0.00326013 -0.00526645 0.999981 
0.00261649 -0.00213356 0.999994 
0.00391209 -0.000475263 0.999992 
0.00253836 0.00144109 0.999996 
0.00326365 0.00442133 0.999985 
0.00367729 0.00733878 0.999966 
0.00349001 0.011229 0.999931 
0.00406484 0.0155867 0.99987 
0.00432123 0.0210031 0.99977 
0.00480837 0.0278864 0.9996 
0.00548359 0.0364505 0.99932 
0.00617105 0.0474436 0.998855 
0.00719071 0.061392 0.998088 
0.00815565 0.0794898 0.996802 
0.00960061 0.102923 0.994643 
0.011256 0.13312 0.991036 
0.01323 0.172559 0.98491 
0.0158335 0.223951 0.974472 
0.0190807 0.290798 0.956594 
0.0233806 0.378116 0.925463 
0.0299274 0.488623 0.871981 
0.0316569 0.624418 0.780449 
0.00642462 -0.652965 0.757361 
0.00439618 -0.542332 0.840153 
0.00341423 -0.436754 0.899574 
0.00218589 -0.34063 0.940195 
0.00146015 -0.262416 0.964954 
0.00105823 -0.201597 0.979468 
0.000713493 -0.155021 0.987911 
0.000576152 -0.119428 0.992843 
0.000450406 -0.0922362 0.995737 
0.000339371 -0.0713345 0.997452 
0.000328909 -0.0552287 0.998474 
0.000358161 -0.042814 0.999083 
0.000262491 -0.0330717 0.999453 
0.000371755 -0.0253992 0.999677 
0.000341941 -0.0193515 0.999813 
0.000284845 -0.0144934 0.999895 
0.000333574 -0.0104316 0.999946 
0.0004422 -0.00693503 0.999976 
5.85606e-05 -0.00446284 0.99999 
-8.8281e-05 -0.000823618 1 
0.000317094 0.00301206 0.999995 
0.000403402 0.00623569 0.99998 
0.000464764 0.00933741 0.999956 
0.000403019 0.0136275 0.999907 
0.000458186 0.0185828 0.999827 
0.000467525 0.0245284 0.999699 
0.000375629 0.032358 0.999476 
0.000539933 0.0419641 0.999119 
0.000392161 0.0542375 0.998528 
0.000379141 0.0701442 0.997537 
0.000301316 0.0904762 0.995899 
3.11996e-05 0.116859 0.993148 
-0.000160926 0.151246 0.988496 
-0.000523858 0.195779 0.980648 
-0.00104871 0.253827 0.967249 
-0.0016076 0.328181 0.944614 
-0.0021718 0.419371 0.907812 
-0.00308057 0.520607 0.853791 
-0.00349151 0.627589 0.778537 
-0.0208736 -0.647428 0.761841 
-0.0218904 -0.507331 0.861473 
-0.018447 -0.391902 0.919822 
-0.0154231 -0.300688 0.953598 
-0.0132382 -0.230586 0.972962 
-0.0112467 -0.177008 0.984145 
-0.00961294 -0.136097 0.990649 
-0.00825726 -0.104798 0.994459 
-0.00704561 -0.080855 0.996701 
-0.00605744 -0.062358 0.998035 
-0.00536324 -0.0481764 0.998824 
-0.00456085 -0.0371902 0.999298 
-0.00398757 -0.0285643 0.999584 
-0.00362845 -0.0217293 0.999757 
-0.00328455 -0.0164343 0.99986 
-0.00277559 -0.0119818 0.999924 
-0.00292595 -0.00844119 0.99996 
-0.00258591 -0.00530953 0.999983 
-0.00118119 -0.00206294 0.999997 
-0.00360507 -0.000671089 0.999993 
-0.00127428 0.00149832 0.999998 
-0.00253059 0.00435716 0.999987 
-0.00279929 0.00723749 0.99997 
-0.00268176 0.0111623 0.999934 
-0.00306551 0.0155495 0.999874 
-0.00361909 0.020942 0.999774 
-0.00382936 0.0278909 0.999604 
-0.00453133 0.036394 0.999327 
-0.00535401 0.0474703 0.998858 
-0.00615098 0.0615124 0.998087 