# vtk DataFile Version 3.0 
Exported using Morpho https://github.com/Morpho-lang/morpho 
ASCII 
DATASET UNSTRUCTURED_GRID 

POINTS 1245 float 
-0.303845 -0.952721 0 
-0.250833 -0.96803 0 
-0.195084 -0.980787 0 
-0.146308 -0.989239 0 
-0.0940719 -0.995565 0 
-0.0475118 -0.998871 0 
-0.000246339 -1 0 
0.0470875 -0.998891 0 
0.0937543 -0.995595 0 
0.146139 -0.989264 0 
0.195062 -0.980791 0 
0.250843 -0.968028 0 
0.303953 -0.952687 0 
-0.409153 -0.912466 0 
-0.356519 -0.934288 0 
-0.308871 -0.898929 0 
-0.258282 -0.916037 0 
-0.207345 -0.934859 0 
-0.154868 -0.930629 0 
-0.104343 -0.948989 0 
-0.0520099 -0.939193 0 
-8.5762e-05 -0.954582 0 
0.0518744 -0.939288 0 
0.104354 -0.949042 0 
0.154696 -0.9306 0 
0.207366 -0.934975 0 
0.258274 -0.916081 0 
0.308979 -0.898924 0 
0.356593 -0.93426 0 
0.409236 -0.912429 0 
-0.513788 -0.857917 0 
-0.461695 -0.887039 0 
-0.411157 -0.857936 0 
-0.359855 -0.879963 0 
-0.306888 -0.847481 0 
-0.254732 -0.866979 0 
-0.201991 -0.889059 0 
-0.149956 -0.874108 0 
-0.100608 -0.900088 0 
-0.0497575 -0.880388 0 
2.4595e-05 -0.904789 0 
0.0496869 -0.8804 0 
0.100612 -0.900177 0 
0.149872 -0.874171 0 
0.202071 -0.889165 0 
0.254695 -0.867031 0 
0.306946 -0.847482 0 
0.359894 -0.879943 0 
0.411236 -0.857929 0 
0.461748 -0.887011 0 
0.513842 -0.857885 0 
-0.564741 -0.825268 0 
-0.512908 -0.802945 0 
-0.462372 -0.832348 0 
-0.410124 -0.804631 0 
-0.358606 -0.827415 0 
-0.305781 -0.795641 0 
-0.25358 -0.816639 0 
-0.200756 -0.839997 0 
-0.149043 -0.818944 0 
-0.0987265 -0.846667 0 
-0.0490473 -0.822548 0 
5.00659e-05 -0.849932 0 
0.0490834 -0.822542 0 
0.0987838 -0.846676 0 
0.148997 -0.818924 0 
0.200826 -0.840131 0 
0.253508 -0.816728 0 
0.305831 -0.795701 0 
0.358581 -0.827419 0 
0.410181 -0.804654 0 
0.462414 -0.83234 0 
0.512965 -0.802929 0 
0.564777 -0.825243 0 
-0.660798 -0.750564 0 
-0.614015 -0.789295 0 
-0.561786 -0.769772 0 
-0.510673 -0.747856 0 
-0.460836 -0.778365 0 
-0.408794 -0.751554 0 
-0.357337 -0.774971 0 
-0.304815 -0.743684 0 
-0.252907 -0.765535 0 
-0.200631 -0.789263 0 
-0.149244 -0.764328 0 
-0.0986912 -0.791935 0 
-0.0492815 -0.765764 0 
4.16586e-05 -0.79382 0 
0.0492411 -0.765708 0 
0.0987508 -0.791951 0 
0.149196 -0.764326 0 
0.200666 -0.789356 0 
0.252841 -0.765599 0 
0.304862 -0.743741 0 
0.357323 -0.775038 0 
0.408863 -0.751626 0 
0.460863 -0.778382 0 
0.510716 -0.747859 0 
0.561819 -0.769761 0 
0.614041 -0.789274 0 
0.660811 -0.750552 0 
-0.707107 -0.707107 0 
-0.654819 -0.699058 0 
-0.60813 -0.73348 0 
-0.558104 -0.71337 0 
-0.509495 -0.692659 0 
-0.45935 -0.724356 0 
-0.407328 -0.698865 0 
-0.355968 -0.722823 0 
-0.303722 -0.691387 0 
-0.252254 -0.71362 0 
-0.20067 -0.737336 0 
-0.149608 -0.710068 0 
-0.0991558 -0.737129 0 
-0.0495872 -0.709825 0 
-2.23646e-05 -0.737917 0 
0.0494408 -0.709766 0 
0.0991291 -0.737116 0 
0.149502 -0.710042 0 
0.200696 -0.73743 0 
0.252186 -0.713735 0 
0.303753 -0.691518 0 
0.355952 -0.722893 0 
0.407371 -0.698945 0 
0.459374 -0.724407 0 
0.509524 -0.692668 0 
0.558131 -0.713361 0 
0.608151 -0.733462 0 
0.654824 -0.699048 0 
0.707107 -0.707107 0 
-0.750564 -0.660798 0 
-0.699058 -0.654819 0 
-0.647692 -0.647692 0 
-0.603437 -0.675718 0 
-0.55905 -0.655305 0 
-0.508501 -0.639581 0 
-0.457509 -0.671321 0 
-0.405555 -0.646545 0 
-0.354417 -0.670703 0 
-0.302427 -0.639219 0 
-0.251503 -0.661417 0 
-0.20061 -0.684911 0 
-0.149717 -0.655943 0 
-0.0995004 -0.682466 0 
-0.0498216 -0.654561 0 
-5.02113e-05 -0.682664 0 
0.0496787 -0.654499 0 
0.0994374 -0.682501 0 
0.149603 -0.655909 0 
0.200573 -0.684972 0 
0.251388 -0.661524 0 
0.302407 -0.639359 0 
0.354397 -0.670836 0 
0.405575 -0.646641 0 
0.457525 -0.67138 0 
0.508497 -0.639623 0 
0.559063 -0.655324 0 
0.603436 -0.675715 0 
0.64769 -0.64769 0 
0.699048 -0.654824 0 
0.750552 -0.660811 0 
-0.789295 -0.614015 0 
-0.73348 -0.60813 0 
-0.675718 -0.603437 0 
-0.613088 -0.613088 0 
-0.55962 -0.604068 0 
-0.506189 -0.588854 0 
-0.455505 -0.618874 0 
-0.403019 -0.594688 0 
-0.352514 -0.618952 0 
-0.300977 -0.586897 0 
-0.250543 -0.608767 0 
-0.200257 -0.632053 0 
-0.150049 -0.601979 0 
-0.0998281 -0.628222 0 
-0.0500377 -0.599914 0 
-3.12334e-05 -0.628076 0 
0.0498927 -0.599835 0 
0.0997818 -0.628253 0 
0.149924 -0.601867 0 
0.200214 -0.632118 0 
0.250423 -0.608915 0 
0.30086 -0.587085 0 
0.352457 -0.619096 0 
0.402948 -0.594743 0 
0.455483 -0.618952 0 
0.506147 -0.588901 0 
0.55964 -0.604067 0 
0.613069 -0.613069 0 
0.675715 -0.603436 0 
0.733462 -0.608151 0 
0.789274 -0.614041 0 
-0.825268 -0.564741 0 
-0.769772 -0.561786 0 
-0.71337 -0.558104 0 
-0.655305 -0.55905 0 
-0.604068 -0.55962 0 
-0.551031 -0.551031 0 
-0.497922 -0.537596 0 
-0.451508 -0.567021 0 
-0.399773 -0.542431 0 
-0.350494 -0.567003 0 
-0.301574 -0.534146 0 
-0.250874 -0.555692 0 
-0.200542 -0.579013 0 
-0.150324 -0.548268 0 
-0.100169 -0.57443 0 
-0.0500152 -0.545912 0 
-3.29278e-05 -0.574268 0 
0.0499208 -0.545788 0 
0.100058 -0.574485 0 
0.150038 -0.548073 0 
0.200377 -0.579041 0 
0.250556 -0.55585 0 
0.301273 -0.534348 0 
0.350318 -0.567174 0 
0.399615 -0.542384 0 
0.451404 -0.5671 0 
0.497945 -0.537702 0 
0.551073 -0.551073 0 
0.604067 -0.55964 0 
0.655324 -0.559063 0 
0.713361 -0.558131 0 
0.769761 -0.561819 0 
0.825243 -0.564777 0 
-0.857917 -0.513788 0 
-0.802945 -0.512908 0 
-0.747856 -0.510673 0 
-0.692659 -0.509495 0 
-0.639581 -0.508501 0 
-0.588854 -0.506189 0 
-0.537596 -0.497922 0 
-0.486157 -0.486157 0 
-0.444928 -0.512952 0 
-0.401787 -0.486784 0 
-0.351685 -0.513639 0 
-0.299695 -0.48291 0 
-0.250032 -0.503 0 
-0.200501 -0.526165 0 
-0.149489 -0.495195 0 
-0.0999281 -0.521367 0 
-0.0499712 -0.492294 0 
4.64723e-05 -0.520999 0 
0.050147 -0.492108 0 
0.099934 -0.52133 0 
0.14957 -0.494692 0 
0.200133 -0.526255 0 
0.249839 -0.503309 0 
0.299839 -0.483005 0 
0.351514 -0.513798 0 
0.401881 -0.486608 0 
0.444935 -0.513054 0 
0.486228 -0.486228 0 
0.537702 -0.497945 0 
0.588901 -0.506147 0 
0.639623 -0.508497 0 
0.692668 -0.509524 0 
0.747859 -0.510716 0 
0.802929 -0.512965 0 
0.857885 -0.513842 0 
-0.887039 -0.461695 0 
-0.832348 -0.462372 0 
-0.778365 -0.460836 0 
-0.724356 -0.45935 0 
-0.671321 -0.457509 0 
-0.618874 -0.455505 0 
-0.567021 -0.451508 0 
-0.512952 -0.444928 0 
-0.450685 -0.450685 0 
-0.397667 -0.437543 0 
-0.348492 -0.462546 0 
-0.295416 -0.432968 0 
-0.247004 -0.450633 0 
-0.198702 -0.473818 0 
-0.150161 -0.441625 0 
-0.100085 -0.468395 0 
-0.0502271 -0.439281 0 
0.000144229 -0.468374 0 
0.0504178 -0.439106 0 
0.100428 -0.468348 0 
0.150697 -0.441105 0 
0.199103 -0.473881 0 
0.247983 -0.450921 0 
0.296569 -0.432268 0 
0.348831 -0.462562 0 
0.397506 -0.4368 0 
0.450637 -0.450637 0 
0.513054 -0.444935 0 
0.5671 -0.451404 0 
0.618952 -0.455483 0 
0.67138 -0.457525 0 
0.724407 -0.459374 0 
0.778382 -0.460863 0 
0.83234 -0.462414 0 
0.887011 -0.461748 0 
-0.912466 -0.409153 0 
-0.857936 -0.411157 0 
-0.804631 -0.410124 0 
-0.751554 -0.408794 0 
-0.698865 -0.407328 0 
-0.646545 -0.405555 0 
-0.594688 -0.403019 0 
-0.542431 -0.399773 0 
-0.486784 -0.401787 0 
-0.437543 -0.397667 0 
-0.387256 -0.387256 0 
-0.344215 -0.411459 0 
-0.30136 -0.381507 0 
-0.25021 -0.395692 0 
-0.200211 -0.419975 0 
-0.150955 -0.389014 0 
-0.100617 -0.416095 0 
-0.0503197 -0.386922 0 
-4.02994e-05 -0.416525 0 
0.05006 -0.386948 0 
0.100784 -0.416323 0 
0.150432 -0.388572 0 
0.200855 -0.420694 0 
0.25086 -0.396905 0 
0.301746 -0.379789 0 
0.344135 -0.410678 0 
0.385823 -0.385823 0 
0.4368 -0.397506 0 
0.486608 -0.401881 0 
0.542384 -0.399615 0 
0.594743 -0.402948 0 
0.646641 -0.405575 0 
0.698945 -0.407371 0 
0.751626 -0.408863 0 
0.804654 -0.410181 0 
0.857929 -0.411236 0 
0.912429 -0.409236 0 
-0.934288 -0.356519 0 
-0.879963 -0.359855 0 
-0.827415 -0.358606 0 
-0.774971 -0.357337 0 
-0.722823 -0.355968 0 
-0.670703 -0.354417 0 
-0.618952 -0.352514 0 
-0.567003 -0.350494 0 
-0.513639 -0.351685 0 
-0.462546 -0.348492 0 
-0.411459 -0.344215 0 
-0.351697 -0.351697 0 
-0.29839 -0.336232 0 
-0.249846 -0.342529 0 
-0.200971 -0.367271 0 
-0.149995 -0.337521 0 
-0.100435 -0.3646 0 
-0.0498692 -0.335025 0 
-6.88684e-05 -0.365025 0 
0.0495433 -0.334795 0 
0.0996798 -0.364834 0 
0.148162 -0.337172 0 
0.199644 -0.368939 0 
0.24763 -0.345582 0 
0.295348 -0.332889 0 
0.34978 -0.34978 0 
0.410678 -0.344135 0 
0.462562 -0.348831 0 
0.513798 -0.351514 0 
0.567174 -0.350318 0 
0.619096 -0.352457 0 
0.670836 -0.354397 0 
0.722893 -0.355952 0 
0.775038 -0.357323 0 
0.827419 -0.358581 0 
0.879943 -0.359894 0 
0.93426 -0.356593 0 
-0.952721 -0.303845 0 
-0.898929 -0.308871 0 
-0.847481 -0.306888 0 
-0.795641 -0.305781 0 
-0.743684 -0.304815 0 
-0.691387 -0.303722 0 
-0.639219 -0.302427 0 
-0.586897 -0.300977 0 
-0.534146 -0.301574 0 
-0.48291 -0.299695 0 
-0.432968 -0.295416 0 
-0.381507 -0.30136 0 
-0.336232 -0.29839 0 
-0.288184 -0.288184 0 
-0.242975 -0.290577 0 
-0.198059 -0.315051 0 
-0.148383 -0.285894 0 
-0.0994753 -0.313232 0 
-0.0507184 -0.283118 0 
-0.000202902 -0.313447 0 
0.0500077 -0.282824 0 
0.0988289 -0.312817 0 
0.148102 -0.28482 0 
0.195742 -0.317413 0 
0.240766 -0.295824 0 
0.285014 -0.285014 0 
0.332889 -0.295348 0 
0.379789 -0.301746 0 
0.432268 -0.296569 0 
0.483005 -0.299839 0 
0.534348 -0.301273 0 
0.587085 -0.30086 0 
0.639359 -0.302407 0 
0.691518 -0.303753 0 
0.743741 -0.304862 0 
0.795701 -0.305831 0 
0.847482 -0.306946 0 
0.898924 -0.308979 0 
0.952687 -0.303953 0 
-0.96803 -0.250833 0 
-0.916037 -0.258282 0 
-0.866979 -0.254732 0 
-0.816639 -0.25358 0 
-0.765535 -0.252907 0 
-0.71362 -0.252254 0 
-0.661417 -0.251503 0 
-0.608767 -0.250543 0 
-0.555692 -0.250874 0 
-0.503 -0.250032 0 
-0.450633 -0.247004 0 
-0.395692 -0.25021 0 
-0.342529 -0.249846 0 
-0.290577 -0.242975 0 
-0.239946 -0.239946 0 
-0.194478 -0.26004 0 
-0.151293 -0.23238 0 
-0.101048 -0.260904 0 
-0.0503938 -0.232537 0 
-0.000203281 -0.262984 0 
0.050638 -0.232316 0 
0.100942 -0.260855 0 
0.152412 -0.232597 0 
0.195768 -0.261421 0 
0.241873 -0.241873 0 
0.295824 -0.240766 0 
0.345582 -0.24763 0 
0.396905 -0.25086 0 
0.450921 -0.247983 0 
[...]
POINT_DATA 1245 
VECTORS vectors float
0.626927 -0.202242 0.75237 
0.636224 -0.172422 0.75199 
0.641511 -0.140301 0.754174 
0.643788 -0.111248 0.757074 
0.644459 -0.0781542 0.760634 
0.644476 -0.0488828 0.763061 
0.644105 -0.0200052 0.764676 
0.636323 0.0107199 0.771348 
0.62909 0.044488 0.776059 
0.621776 0.085639 0.778499 
0.615411 0.123633 0.77845 
0.608298 0.16663 0.77602 
0.600058 0.205681 0.773063 
0.599231 -0.264819 0.755509 
0.614477 -0.232945 0.75376 
0.511107 -0.177153 0.841063 
0.522423 -0.152509 0.838937 
0.541788 -0.129466 0.830484 
0.511954 -0.096809 0.85354 
0.539228 -0.0737865 0.838921 
0.505705 -0.0422076 0.861674 
0.53487 -0.0157232 0.844788 
0.498051 0.0148682 0.86702 
0.52398 0.0484512 0.850351 
0.491874 0.0788123 0.867092 
0.517937 0.118101 0.847227 
0.498276 0.148785 0.854157 
0.488534 0.179967 0.853783 
0.59087 0.243303 0.769205 
0.580349 0.279388 0.764943 
0.561269 -0.33126 0.758448 
0.581405 -0.297732 0.757182 
0.48806 -0.230954 0.841699 
0.500227 -0.203413 0.841662 
0.411455 -0.150435 0.89893 
0.423688 -0.128618 0.89663 
0.444815 -0.108684 0.889004 
0.40042 -0.0775934 0.913041 
0.436368 -0.0600463 0.897763 
0.391206 -0.0328572 0.919716 
0.430915 -0.0117174 0.902316 
0.385337 0.0131543 0.922682 
0.423935 0.0405668 0.904784 
0.385068 0.0642325 0.92065 
0.424924 0.0990316 0.899796 
0.403888 0.125334 0.906182 
0.39353 0.15236 0.906598 
0.48096 0.211182 0.850929 
0.473097 0.241876 0.847157 
0.567843 0.313748 0.760997 
0.552616 0.346532 0.757979 
0.539271 -0.364675 0.759078 
0.457268 -0.288116 0.841365 
0.473814 -0.259412 0.84155 
0.392276 -0.197734 0.898343 
0.402252 -0.173504 0.898938 
0.328083 -0.127132 0.936055 
0.339462 -0.108758 0.934311 
0.358067 -0.091314 0.92922 
0.31246 -0.0634483 0.94781 
0.343415 -0.0486821 0.937921 
0.300823 -0.0256114 0.953336 
0.336828 -0.0084945 0.941528 
0.296423 0.0117804 0.954984 
0.333822 0.0343954 0.942008 
0.300686 0.0537043 0.95221 
0.342369 0.0842238 0.935783 
0.324208 0.106213 0.940004 
0.314224 0.128484 0.940614 
0.387014 0.179144 0.904504 
0.380746 0.205881 0.901469 
0.46327 0.271511 0.843601 
0.450652 0.299951 0.840799 
0.534339 0.377987 0.756048 
0.491745 -0.427343 0.75866 
0.515897 -0.397129 0.759039 
0.438404 -0.315872 0.841443 
0.36675 -0.246828 0.896979 
0.380761 -0.222362 0.897539 
0.312997 -0.168356 0.934714 
0.320587 -0.147264 0.935702 
0.260242 -0.107523 0.959538 
0.269589 -0.0914436 0.958624 
0.284856 -0.0768978 0.955481 
0.243221 -0.0523267 0.968559 
0.267316 -0.0397056 0.96279 
0.231363 -0.0204572 0.972652 
0.260306 -0.00605124 0.965507 
0.228099 0.0106413 0.97358 
0.260184 0.0294399 0.96511 
0.234563 0.0454735 0.971037 
0.272859 0.0714704 0.959396 
0.257942 0.0897086 0.961987 
0.250087 0.108671 0.962106 
0.309242 0.151571 0.938827 
0.304322 0.174618 0.936428 
0.372765 0.231576 0.898565 
0.361718 0.256165 0.896404 
0.434635 0.326693 0.839264 
0.513173 0.408419 0.754882 
0.489907 0.43746 0.754069 
0.464757 -0.456057 0.758955 
0.405491 -0.373268 0.834415 
0.417894 -0.341706 0.841785 
0.35002 -0.269705 0.897076 
0.292121 -0.211487 0.932705 
0.303499 -0.189812 0.933734 
0.248659 -0.14333 0.957928 
0.254621 -0.12481 0.958953 
0.205263 -0.0906212 0.974502 
0.212888 -0.0771737 0.974024 
0.224584 -0.0643451 0.972328 
0.189254 -0.0434829 0.980965 
0.207341 -0.0325172 0.977728 
0.178254 -0.0164606 0.983847 
0.200709 -0.00426554 0.979642 
0.175896 0.00947025 0.984363 
0.202076 0.0252476 0.979044 
0.182942 0.0384987 0.98237 
0.215678 0.0606368 0.97458 
0.20446 0.0758408 0.975932 
0.197739 0.0915977 0.975966 
0.246017 0.128054 0.960769 
0.242395 0.148171 0.958796 
0.29757 0.196983 0.934157 
0.288587 0.218953 0.932082 
0.34717 0.278699 0.895433 
0.415757 0.351637 0.838748 
0.404316 0.382939 0.830594 
0.46317 0.46623 0.753726 
0.435379 -0.481938 0.760382 
0.380565 -0.397107 0.83515 
0.329766 -0.322796 0.887163 
0.332034 -0.291399 0.897129 
0.277818 -0.232599 0.932049 
0.233811 -0.182502 0.955 
0.241669 -0.162126 0.956719 
0.197384 -0.122233 0.972676 
0.201703 -0.106008 0.973693 
0.16197 -0.0769657 0.98379 
0.167446 -0.0648801 0.983744 
0.176274 -0.0540415 0.982857 
0.147053 -0.0360988 0.98847 
0.160609 -0.0267912 0.986655 
0.137544 -0.0133143 0.990406 
0.154975 -0.00304828 0.987914 
0.135854 0.00842354 0.990693 
0.156864 0.0216178 0.987384 
0.142532 0.0326919 0.98925 
0.16978 0.0513187 0.984145 
0.161272 0.0641558 0.984822 
0.156696 0.0777083 0.984585 
0.195657 0.108636 0.974637 
0.19276 0.126092 0.973111 
0.237341 0.167878 0.95681 
0.231353 0.188795 0.954375 
0.276101 0.240149 0.930643 
0.330733 0.300176 0.894712 
0.329315 0.332041 0.883912 
0.380257 0.407272 0.830382 
0.434372 0.493194 0.753711 
0.404464 -0.50446 0.762843 
0.347913 -0.408275 0.84396 
0.297025 -0.324171 0.898159 
0.264791 -0.259033 0.928864 
0.225426 -0.204461 0.952564 
0.187685 -0.157996 0.969439 
0.192037 -0.139035 0.971489 
0.15638 -0.104474 0.982156 
0.15944 -0.0901126 0.983086 
0.127314 -0.0652435 0.989714 
0.131278 -0.0549233 0.989823 
0.137985 -0.0454846 0.989389 
0.114259 -0.0303592 0.992987 
0.124607 -0.022275 0.991956 
0.106342 -0.010944 0.994269 
0.119983 -0.00217572 0.992774 
0.105141 0.00738847 0.99443 
0.121939 0.0185627 0.992364 
0.111021 0.0278382 0.993428 
0.133341 0.0435552 0.990113 
0.126982 0.0543502 0.990415 
0.123511 0.0659665 0.990148 
0.155004 0.092187 0.983603 
0.153229 0.107487 0.982328 
0.189173 0.143611 0.971385 
0.186234 0.16316 0.968863 
0.224624 0.211165 0.95129 
0.264715 0.266852 0.926669 
0.297897 0.333485 0.894452 
0.348993 0.419274 0.838101 
0.405113 0.517068 0.754005 
0.370609 -0.525889 0.765565 
0.320721 -0.427126 0.8454 
0.274038 -0.340776 0.899319 
0.236868 -0.270843 0.933026 
0.208706 -0.21976 0.952968 
0.177179 -0.173046 0.968846 
0.148051 -0.134205 0.979832 
0.152353 -0.118907 0.981147 
0.123273 -0.0893663 0.988341 
0.126011 -0.0771679 0.989023 
0.100187 -0.0563897 0.993369 
0.102881 -0.0469792 0.993584 
0.107833 -0.0384869 0.993424 
0.0888816 -0.0256964 0.995711 
0.0967274 -0.0186038 0.995137 
0.0824447 -0.00905247 0.996555 
0.0930887 -0.00155507 0.995657 
0.0815785 0.00652463 0.996646 
0.0948604 0.0160002 0.995362 
0.086558 0.0238809 0.995961 
0.104542 0.0372041 0.993824 
0.0998056 0.0465948 0.993915 
0.0976855 0.0569205 0.993588 
0.123005 0.0787824 0.989274 
0.121069 0.0917272 0.988397 
0.150286 0.122711 0.980998 
0.147474 0.138472 0.979325 
0.177124 0.178627 0.967843 
0.209419 0.226658 0.951194 
0.238527 0.279027 0.930187 
0.276647 0.350658 0.89471 
0.32409 0.438887 0.838059 
0.374403 0.539318 0.754293 
0.334614 -0.546187 0.767928 
0.290941 -0.444327 0.847306 
0.249461 -0.356172 0.900506 
0.214099 -0.283791 0.934679 
0.185316 -0.227062 0.956086 
0.160903 -0.182746 0.969904 
0.136939 -0.144321 0.98001 
0.115807 -0.112802 0.986846 
0.118346 -0.10075 0.987848 
0.0967313 -0.078195 0.992234 
0.0991443 -0.0670087 0.992814 
0.0789512 -0.04868 0.995689 
0.0804483 -0.0401648 0.995949 
0.084219 -0.0329378 0.995903 
0.0690817 -0.0217354 0.997374 
0.0752466 -0.0157206 0.997041 
0.0638525 -0.00757442 0.997931 
0.0723467 -0.00115668 0.997379 
0.0632466 0.00569376 0.997982 
0.0739273 0.0137218 0.997169 
0.0674197 0.0204643 0.997515 
0.0819407 0.0318586 0.996128 
0.0784976 0.0400259 0.99611 
0.0771667 0.0491383 0.995807 
0.097146 0.0683105 0.992923 
0.0954087 0.0802333 0.992199 
0.117464 0.103566 0.987662 
0.115439 0.116309 0.986482 
0.137529 0.148733 0.979267 
0.16226 0.188294 0.968616 
0.187595 0.233906 0.95399 
0.2177 0.292041 0.931299 
0.254485 0.366182 0.895069 
0.297527 0.456114 0.838712 
0.342929 0.559141 0.754825 
0.297286 -0.565469 0.769329 
0.259376 -0.459787 0.849306 
0.222677 -0.36914 0.902303 
0.190609 -0.294052 0.936591 
0.163345 -0.234281 0.958348 
0.140492 -0.18639 0.972379 
0.120802 -0.147779 0.981615 
0.102385 -0.115472 0.98802 
0.0909497 -0.0889401 0.991876 
0.0766377 -0.0682352 0.994721 
0.0781551 -0.058003 0.995252 
0.0621379 -0.0419273 0.997187 
0.0626834 -0.034477 0.997438 
0.065758 -0.0280791 0.99744 
0.0535612 -0.0188778 0.998386 
0.0585313 -0.0134247 0.998195 
0.049546 -0.00649412 0.998751 
0.0563321 -0.000820844 0.998412 
0.0491298 0.00504251 0.99878 
0.0576122 0.0120746 0.998266 
0.052451 0.0178079 0.998465 
0.0642464 0.0274453 0.997557 
0.0614701 0.034399 0.997516 
0.0609842 0.0424414 0.997236 
0.0770435 0.0591587 0.995271 
0.0757084 0.0694566 0.994708 
0.0907862 0.0911871 0.991687 
0.103336 0.118488 0.987564 
0.122219 0.151964 0.9808 
0.143211 0.191538 0.970981 
0.167402 0.240646 0.956068 
0.196292 0.301847 0.93293 
0.230555 0.378316 0.896505 
0.269773 0.470239 0.840296 
0.310834 0.576258 0.755849 
0.259773 -0.583719 0.769279 
0.227408 -0.473908 0.850704 
0.195356 -0.380178 0.904047 
0.167066 -0.303166 0.938179 
0.142732 -0.24085 0.96001 
0.122465 -0.191108 0.973899 
0.104949 -0.151705 0.982838 
0.090405 -0.119648 0.988692 
0.079537 -0.09388 0.992401 
0.0695465 -0.0748831 0.994764 
0.0597275 -0.0582964 0.996511 
0.0612062 -0.0503879 0.996852 
0.0492577 -0.0383363 0.99805 
0.0485382 -0.0305568 0.998354 
0.0509764 -0.0245267 0.998399 
0.041607 -0.0165201 0.998997 
0.0454675 -0.0116514 0.998898 
0.0384041 -0.00559867 0.999247 
0.0438339 -0.000723426 0.999039 
0.0381326 0.00448514 0.999263 
0.044922 0.0104735 0.998936 
0.0407966 0.0157591 0.999043 
0.0501809 0.0241578 0.998448 
0.0480255 0.0305803 0.998378 
0.0482336 0.0384201 0.998097 
0.0601967 0.0508674 0.99689 
0.0589317 0.0588454 0.996526 
0.0695698 0.076054 0.994674 
0.0800922 0.0960805 0.992146 
0.0918337 0.122368 0.988227 
0.107673 0.155189 0.981999 
0.126299 0.195564 0.972524 
0.148466 0.246219 0.957776 
0.17493 0.309479 0.934678 
0.205992 0.387451 0.898582 
0.241592 0.481565 0.842454 
0.278352 0.590626 0.757417 
0.223153 -0.600713 0.767689 
0.196179 -0.48698 0.851096 
0.168403 -0.390783 0.904947 
0.143534 -0.310951 0.939525 
0.122657 -0.246832 0.961265 
0.104537 -0.195498 0.975117 
0.0897123 -0.154655 0.983887 
0.0770766 -0.122116 0.989519 
0.0674048 -0.0964784 0.99305 
0.0587636 -0.0759436 0.995379 
0.0510998 -0.0597628 0.996904 
0.0467908 -0.0458464 0.997852 
0.0393685 -0.0343543 0.998634 
0.0374055 -0.027012 0.998935 
0.0394875 -0.0217523 0.998983 
0.0321355 -0.0145363 0.999378 
0.035324 -0.010222 0.999324 
0.0295924 -0.00494568 0.99955 
0.034065 -0.000559706 0.999419 
0.0294216 0.00373862 0.99956 
0.0349547 0.00916341 0.999347 
0.0316357 0.0134378 0.999409 
0.0391396 0.020996 0.999013 
0.0373811 0.026654 0.998946 
0.0381425 0.0335361 0.998709 
0.0459147 0.0455676 0.997906 
0.0512055 0.06023 0.99687 
0.0594807 0.0773475 0.995228 
0.0688975 0.0981025 0.992789 
0.0792812 0.124323 0.989069 
0.0931189 0.157273 0.983155 
0.10962 0.198653 0.97392 
0.129495 0.250359 0.959454 
0.153141 0.314952 0.936671 
0.181196 0.394618 0.900802 
0.213254 0.490567 0.844906 
0.245597 0.602429 0.759449 
0.188271 -0.616003 0.764914 
0.166779 -0.499973 0.84983 
0.142379 -0.401332 0.904799 
0.121577 -0.319511 0.939751 
0.10339 -0.253096 0.961901 
0.0881509 -0.199563 0.975912 
0.0752135 -0.157272 0.984687 
0.0644266 -0.123819 0.990211 
0.0562008 -0.0973005 0.993667 
0.0486148 -0.076802 0.99586 
0.0423923 -0.0605449 0.997265 
0.0388262 -0.0479973 0.998093 
0.0350093 -0.0385576 0.998643 
0.0303157 -0.0297497 0.999098 
0.0284444 -0.0235067 0.999319 
0.0303361 -0.0190216 0.999359 
0.0246247 -0.0129151 0.999613 
0.0272409 -0.00899667 0.999588 
0.0226622 -0.00439569 0.999734 
0.0262219 -0.000472092 0.999656 
0.0224797 0.00363278 0.999741 
0.0268889 0.00814726 0.999605 
0.0242154 0.0121935 0.999632 
0.0302058 0.0184396 0.999374 
0.0288929 0.0230338 0.999317 
0.0295456 0.0288989 0.999146 
0.0340647 0.0377006 0.998708 
0.0389935 0.0480237 0.998085 
0.043092 0.0609894 0.997208 
0.0498709 0.0776465 0.995733 
0.0577593 0.0984128 0.993468 
0.0672735 0.125068 0.989865 
0.0791183 0.158677 0.984155 
0.0937504 0.201003 0.975094 
0.111197 0.254303 0.960711 
0.132088 0.320249 0.93808 
0.156591 0.401289 0.902467 
0.185486 0.498459 0.846838 
0.212695 0.611728 0.761938 
0.15536 -0.628942 0.761771 
0.139247 -0.514085 0.846361 
0.118522 -0.415902 0.901653 
0.101044 -0.332581 0.937646 
0.0859993 -0.26364 0.96078 
0.0732032 -0.207937 0.975399 
0.0623099 -0.163428 0.984586 
0.0533145 -0.128013 0.990338 
0.0458943 -0.100246 0.993904 
0.0398789 -0.07845 0.99612 
0.0342662 -0.0610801 0.997545 
0.0307361 -0.0473885 0.998404 
0.0273035 -0.0365369 0.998959 
0.0238718 -0.0278596 0.999327 
0.0215808 -0.0212022 0.999542 
0.0225413 -0.0167673 0.999605 
0.0183924 -0.0119854 0.999759 
0.0205696 -0.00822574 0.999755 
0.0170354 -0.00411564 0.999846 
0.0200485 -0.000555538 0.999799 
0.0169975 0.00307007 0.999851 
0.0204849 0.00726786 0.999764 
0.0182644 0.0114283 0.999768 
0.0225991 0.0162683 0.999612 
0.0217374 0.02105 0.999542 
0.0238034 0.0282957 0.999316 
0.0273798 0.0368836 0.998944 
0.0313208 0.047762 0.998368 
0.0352997 0.0614628 0.997485 
0.041132 0.0787854 0.996043 
0.0479572 0.100567 0.993774 
0.0560934 0.128143 0.990168 
0.0665771 0.163324 0.984324 
0.0789245 0.207149 0.975121 
0.0939695 0.262058 0.960466 
0.111713 0.329519 0.937516 
0.132788 0.41107 0.901881 
0.157972 0.507242 0.847202 
0.179271 0.618404 0.76514 
0.12143 -0.638434 0.760038 
0.114195 -0.536849 0.835914 
0.0965705 -0.440161 0.892711 
0.0820383 -0.353385 0.931874 
0.0699842 -0.280723 0.957234 
0.0594007 -0.220854 0.973496 
0.0505913 -0.173116 0.983601 
0.0430197 -0.135273 0.989874 
0.0370607 -0.105637 0.993714 
0.0319709 -0.0823879 0.996087 
0.0275701 -0.0642859 0.997551 
0.0244077 -0.04984 0.998459 
0.0217569 -0.0385982 0.999018 
0.0191733 -0.0296807 0.999376 
0.0169682 -0.0221217 0.999611 
0.0162325 -0.0159539 0.999741 
0.0135923 -0.0108286 0.999849 
0.0154944 -0.00742581 0.999852 
0.0125316 -0.0034181 0.999916 
0.0150881 -0.000309908 0.999886 
0.0124977 0.00280212 0.999918 
0.0153351 0.00682639 0.999859 
0.013698 0.0101338 0.999855 
0.0163722 0.0155871 0.999744 
0.0171771 0.0218199 0.999614 
0.0191226 0.0295377 0.999381 
0.0219857 0.0386587 0.999011 
0.0250924 0.0498289 0.998443 
0.0286164 0.064126 0.997531 
0.0332655 0.0820511 0.996073 
0.0390493 0.105034 0.993702 
0.0459626 0.134211 0.989886 
0.0545144 0.171177 0.983731 
0.0649799 0.217846 0.973818 
0.0774072 0.275757 0.958105 
0.0921272 0.346448 0.933534 
0.109718 0.430193 0.896044 
0.131548 0.524521 0.841173 
0.141832 0.62176 0.770259 
0.0920885 -0.644298 0.75921 
0.0821035 -0.510632 0.85587 
0.066554 -0.398712 0.914658 
0.0553691 -0.310529 0.94895 
0.0464603 -0.241159 0.969373 
0.0392261 -0.187262 0.981526 
0.0332427 -0.145218 0.988841 
0.0283695 -0.112622 0.993233 
0.0243614 -0.0874089 0.995875 
0.0209907 -0.0678861 0.997472 
0.0183947 -0.0525348 0.99845 
0.0163068 -0.0407608 0.999036 
0.0144859 -0.0315024 0.999399 
0.0129718 -0.0241249 0.999625 
0.0120787 -0.0180264 0.999765 
0.0109351 -0.0134211 0.99985 
0.00958574 -0.00936543 0.99991 
0.0108961 -0.00654424 0.999919 
0.00866077 -0.00372585 0.999956 
0.0106382 -0.000592297 0.999943 
0.00863903 0.00278361 0.999959 
0.0110432 0.00573133 0.999923 
0.00943214 0.00867328 0.999918 
0.0110829 0.0128339 0.999856 
0.0122249 0.0174364 0.999773 
0.0129999 0.0234422 0.999641 
0.0145035 0.0309338 0.999416 
0.0166046 0.0401768 0.999055 
0.0190548 0.0519558 0.998468 
0.0218068 0.0670789 0.997509 
0.0256424 0.0863861 0.995932 
0.0300644 0.111008 0.993365 
0.0356618 0.142823 0.989105 
0.0425859 0.183429 0.98211 
0.0509792 0.235392 0.970563 
0.0615231 0.301959 0.951334 
0.074976 0.386569 0.919208 
0.0939494 0.494423 0.864129 
0.107112 0.623426 0.774511 
0.0598864 -0.648696 0.758688 
0.0586703 -0.541753 0.838488 
0.0482451 -0.437925 0.897716 
0.0398565 -0.344193 0.938053 
0.0331784 -0.26731 0.963039 
0.0278714 -0.206874 0.97797 
0.0234882 -0.159864 0.98686 
0.0199079 -0.123685 0.992122 
0.0170665 -0.0958132 0.995253 
0.0146645 -0.0743549 0.997124 
0.012728 -0.0576874 0.998254 
0.0112569 -0.0447548 0.998935 
0.0100092 -0.0347176 0.999347 
0.00886824 -0.0267137 0.999604 
0.00816793 -0.0202332 0.999762 
0.00751751 -0.0151731 0.999857 
0.00646791 -0.0108004 0.999921 
0.00663961 -0.00661252 0.999956 
0.00540944 -0.00327339 0.99998 
0.00734784 -0.000232305 0.999973 
0.00539766 0.00253814 0.999982 
0.00674445 0.00584634 0.99996 
0.0067263 0.0100986 0.999926 
0.00752863 0.0144506 0.999867 
0.00830404 0.0195927 0.999774 
0.00895115 0.0260526 0.99962 
0.010209 0.0341221 0.999366 
0.0116158 0.0441894 0.998956 
0.0133468 0.056921 0.998289 
0.0153636 0.0732397 0.997196 
0.0179666 0.0942854 0.995383 
0.0212258 0.121309 0.992388 
0.0250755 0.156173 0.987411 
0.03 0.201313 0.979067 
0.0360421 0.259044 0.965193 
0.0435606 0.332287 0.942172 
0.0534521 0.422158 0.904945 
0.0657113 0.521373 0.850795 
0.0669483 0.624805 0.777905 
0.0323262 -0.651726 0.757765 
0.029441 -0.511161 0.858981 
0.0235764 -0.395141 0.918318 
0.0188238 -0.303272 0.952718 
0.0156116 -0.232753 0.972411 
0.0129429 -0.178785 0.983803 
0.0108959 -0.137598 0.990428 
0.00925357 -0.106068 0.994316 
0.00786292 -0.0819589 0.996605 
0.00679095 -0.0633288 0.99797 
0.00599715 -0.0489946 0.998781 
0.00524947 -0.0378655 0.999269 
0.00467971 -0.0291478 0.999564 
0.00437432 -0.0222875 0.999742 
0.00388366 -0.0167083 0.999853 
0.00347688 -0.0123997 0.999917 
0.00363819 -0.00843837 0.999958 
0.0032685 -0.00548955 0.99998 
0.0024741 -0.00212246 0.999995 
0.00409115 -0.000673316 0.999991 
0.00256571 0.00168241 0.999995 
0.00341065 0.00453878 0.999984 
0.00357737 0.00774338 0.999964 
0.00358117 0.0115301 0.999927 
0.00402579 0.0160678 0.999863 
0.00441622 0.0215178 0.999759 
0.00481301 0.0284421 0.999584 
0.00543927 0.037228 0.999292 
0.00631097 0.0481159 0.998822 
0.00706933 0.0622997 0.998032 
0.00827506 0.0805233 0.996718 
0.00957538 0.103907 0.994541 
0.0112144 0.13444 0.990858 
0.0132976 0.173976 0.98466 
0.015787 0.225465 0.974123 
0.0189714 0.29285 0.95597 
0.023447 0.379924 0.924721 
0.0295477 0.491274 0.870503 
0.0313148 0.626856 0.778506 
0.00582624 -0.654124 0.756365 
0.00456307 -0.543688 0.839275 
0.00290881 -0.438057 0.898942 
0.00206541 -0.34198 0.939705 
0.00140509 -0.263701 0.964603 
0.000948801 -0.202801 0.979219 
0.000724319 -0.15614 0.987735 
0.000496777 -0.120445 0.99272 
0.000402555 -0.0931685 0.99565 
0.000357349 -0.072163 0.997393 
0.000276969 -0.0559745 0.998432 
0.000259044 -0.0434488 0.999056 
0.000338818 -0.0336621 0.999433 
0.00025741 -0.0258373 0.999666 
0.000290996 -0.0197437 0.999805 
0.000297256 -0.0148459 0.99989 
0.000249372 -0.0104242 0.999946 
0.000322757 -0.00732043 0.999973 
0.000167414 -0.00423971 0.999991 
-0.000115413 -0.000751769 1 
7.93604e-05 0.00325186 0.999995 
0.000492006 0.0063822 0.99998 
0.000292433 0.00971093 0.999953 
0.000444328 0.014082 0.999901 
0.000354707 0.0189734 0.99982 
0.000365066 0.0252261 0.999682 
0.000483851 0.0329131 0.999458 
0.000324546 0.042732 0.999087 
0.00045483 0.0551254 0.998479 
0.000335185 0.07097 0.997478 
0.000180473 0.0915715 0.995798 
0.000103114 0.118066 0.993006 
-0.00022169 0.152469 0.988308 
-0.000570574 0.197376 0.980328 
-0.000973872 0.255539 0.966798 
-0.00158811 0.330127 0.943935 
-0.00234553 0.421862 0.906657 
-0.00281212 0.52284 0.852426 
-0.00362408 0.630284 0.776356 
-0.0213754 -0.64871 0.760735 
-0.022541 -0.508848 0.860561 
-0.0185124 -0.393249 0.919246 
-0.0157431 -0.302104 0.953145 
-0.0133499 -0.231848 0.97266 
-0.0114167 -0.178199 0.983928 
-0.00974804 -0.137173 0.990499 
-0.00832797 -0.105794 0.994353 
-0.00716317 -0.0817161 0.99663 
-0.00623045 -0.0631744 0.997983 
-0.00535793 -0.0488474 0.998792 
-0.00473566 -0.037809 0.999274 
-0.00411832 -0.029066 0.999569 
-0.00367674 -0.0221647 0.999748 
-0.0034238 -0.0167069 0.999855 
-0.00290999 -0.012364 0.999919 
-0.00300942 -0.00840522 0.99996 
-0.00278767 -0.00549918 0.999981 
-0.0013441 -0.00217639 0.999997 
-0.00380855 -0.000619616 0.999993 
-0.0012443 0.001606 0.999998 
-0.00263204 0.00446443 0.999987 
-0.00290591 0.00770908 0.999966 
-0.00270965 0.0114518 0.999931 
-0.00334184 0.0160117 0.999866 
-0.00353856 0.0215225 0.999762 
-0.00408007 0.0283936 0.999588 
-0.00465371 0.0372005 0.999297 
-0.00534207 0.0481588 0.998825 
-0.00643475 0.0623989 0.998031 
-0.00754918 0.080726 0.996708 