# vtk DataFile Version 3.0 
Exported using Morpho https://github.com/Morpho-lang/morpho 
ASCII 
DATASET UNSTRUCTURED_GRID 

POINTS 1245 float 
-0.303845 -0.952721 0 
-0.250833 -0.96803 0 
-0.195084 -0.980787 0 
-0.146308 -0.989239 0 
-0.0940719 -0.995565 0 
-0.0475118 -0.998871 0 
-0.000246339 -1 0 
0.0470875 -0.998891 0 
0.0937543 -0.995595 0 
0.146139 -0.989264 0 
0.195062 -0.980791 0 
0.250843 -0.968028 0 
0.303953 -0.952687 0 
-0.409153 -0.912466 0 
-0.356519 -0.934288 0 
-0.308871 -0.898929 0 
-0.258282 -0.916037 0 
-0.207345 -0.934859 0 
-0.154868 -0.930629 0 
-0.104343 -0.948989 0 
-0.0520099 -0.939193 0 
-8.5762e-05 -0.954582 0 
0.0518744 -0.939288 0 
0.104354 -0.949042 0 
0.154696 -0.9306 0 
0.207366 -0.934975 0 
0.258274 -0.916081 0 
0.308979 -0.898924 0 
0.356593 -0.93426 0 
0.409236 -0.912429 0 
-0.513788 -0.857917 0 
-0.461695 -0.887039 0 
-0.411157 -0.857936 0 
-0.359855 -0.879963 0 
-0.306888 -0.847481 0 
-0.254732 -0.866979 0 
-0.201991 -0.889059 0 
-0.149956 -0.874108 0 
-0.100608 -0.900088 0 
-0.0497575 -0.880388 0 
2.4595e-05 -0.904789 0 
0.0496869 -0.8804 0 
0.100612 -0.900177 0 
0.149872 -0.874171 0 
0.202071 -0.889165 0 
0.254695 -0.867031 0 
0.306946 -0.847482 0 
0.359894 -0.879943 0 
0.411236 -0.857929 0 
0.461748 -0.887011 0 
0.513842 -0.857885 0 
-0.564741 -0.825268 0 
-0.512908 -0.802945 0 
-0.462372 -0.832348 0 
-0.410124 -0.804631 0 
-0.358606 -0.827415 0 
-0.305781 -0.795641 0 
-0.25358 -0.816639 0 
-0.200756 -0.839997 0 
-0.149043 -0.818944 0 
-0.0987265 -0.846667 0 
-0.0490473 -0.822548 0 
5.00659e-05 -0.849932 0 
0.0490834 -0.822542 0 
0.0987838 -0.846676 0 
0.148997 -0.818924 0 
0.200826 -0.840131 0 
0.253508 -0.816728 0 
0.305831 -0.795701 0 
0.358581 -0.827419 0 
0.410181 -0.804654 0 
0.462414 -0.83234 0 
0.512965 -0.802929 0 
0.564777 -0.825243 0 
-0.660798 -0.750564 0 
-0.614015 -0.789295 0 
-0.561786 -0.769772 0 
-0.510673 -0.747856 0 
-0.460836 -0.778365 0 
-0.408794 -0.751554 0 
-0.357337 -0.774971 0 
-0.304815 -0.743684 0 
-0.252907 -0.765535 0 
-0.200631 -0.789263 0 
-0.149244 -0.764328 0 
-0.0986912 -0.791935 0 
-0.0492815 -0.765764 0 
4.16586e-05 -0.79382 0 
0.0492411 -0.765708 0 
0.0987508 -0.791951 0 
0.149196 -0.764326 0 
0.200666 -0.789356 0 
0.252841 -0.765599 0 
0.304862 -0.743741 0 
0.357323 -0.775038 0 
0.408863 -0.751626 0 
0.460863 -0.778382 0 
0.510716 -0.747859 0 
0.561819 -0.769761 0 
0.614041 -0.789274 0 
0.660811 -0.750552 0 
-0.707107 -0.707107 0 
-0.654819 -0.699058 0 
-0.60813 -0.73348 0 
-0.558104 -0.71337 0 
-0.509495 -0.692659 0 
-0.45935 -0.724356 0 
-0.407328 -0.698865 0 
-0.355968 -0.722823 0 
-0.303722 -0.691387 0 
-0.252254 -0.71362 0 
-0.20067 -0.737336 0 
-0.149608 -0.710068 0 
-0.0991558 -0.737129 0 
-0.0495872 -0.709825 0 
-2.23646e-05 -0.737917 0 
0.0494408 -0.709766 0 
0.0991291 -0.737116 0 
0.149502 -0.710042 0 
0.200696 -0.73743 0 
0.252186 -0.713735 0 
0.303753 -0.691518 0 
0.355952 -0.722893 0 
0.407371 -0.698945 0 
0.459374 -0.724407 0 
0.509524 -0.692668 0 
0.558131 -0.713361 0 
0.608151 -0.733462 0 
0.654824 -0.699048 0 
0.707107 -0.707107 0 
-0.750564 -0.660798 0 
-0.699058 -0.654819 0 
-0.647692 -0.647692 0 
-0.603437 -0.675718 0 
-0.55905 -0.655305 0 
-0.508501 -0.639581 0 
-0.457509 -0.671321 0 
-0.405555 -0.646545 0 
-0.354417 -0.670703 0 
-0.302427 -0.639219 0 
-0.251503 -0.661417 0 
-0.20061 -0.684911 0 
-0.149717 -0.655943 0 
-0.0995004 -0.682466 0 
-0.0498216 -0.654561 0 
-5.02113e-05 -0.682664 0 
0.0496787 -0.654499 0 
0.0994374 -0.682501 0 
0.149603 -0.655909 0 
0.200573 -0.684972 0 
0.251388 -0.661524 0 
0.302407 -0.639359 0 
0.354397 -0.670836 0 
0.405575 -0.646641 0 
0.457525 -0.67138 0 
0.508497 -0.639623 0 
0.559063 -0.655324 0 
0.603436 -0.675715 0 
0.64769 -0.64769 0 
0.699048 -0.654824 0 
0.750552 -0.660811 0 
-0.789295 -0.614015 0 
-0.73348 -0.60813 0 
-0.675718 -0.603437 0 
-0.613088 -0.613088 0 
-0.55962 -0.604068 0 
-0.506189 -0.588854 0 
-0.455505 -0.618874 0 
-0.403019 -0.594688 0 
-0.352514 -0.618952 0 
-0.300977 -0.586897 0 
-0.250543 -0.608767 0 
-0.200257 -0.632053 0 
-0.150049 -0.601979 0 
-0.0998281 -0.628222 0 
-0.0500377 -0.599914 0 
-3.12334e-05 -0.628076 0 
0.0498927 -0.599835 0 
0.0997818 -0.628253 0 
0.149924 -0.601867 0 
0.200214 -0.632118 0 
0.250423 -0.608915 0 
0.30086 -0.587085 0 
0.352457 -0.619096 0 
0.402948 -0.594743 0 
0.455483 -0.618952 0 
0.506147 -0.588901 0 
0.55964 -0.604067 0 
0.613069 -0.613069 0 
0.675715 -0.603436 0 
0.733462 -0.608151 0 
0.789274 -0.614041 0 
-0.825268 -0.564741 0 
-0.769772 -0.561786 0 
-0.71337 -0.558104 0 
-0.655305 -0.55905 0 
-0.604068 -0.55962 0 
-0.551031 -0.551031 0 
-0.497922 -0.537596 0 
-0.451508 -0.567021 0 
-0.399773 -0.542431 0 
-0.350494 -0.567003 0 
-0.301574 -0.534146 0 
-0.250874 -0.555692 0 
-0.200542 -0.579013 0 
-0.150324 -0.548268 0 
-0.100169 -0.57443 0 
-0.0500152 -0.545912 0 
-3.29278e-05 -0.574268 0 
0.0499208 -0.545788 0 
0.100058 -0.574485 0 
0.150038 -0.548073 0 
0.200377 -0.579041 0 
0.250556 -0.55585 0 
0.301273 -0.534348 0 
0.350318 -0.567174 0 
0.399615 -0.542384 0 
0.451404 -0.5671 0 
0.497945 -0.537702 0 
0.551073 -0.551073 0 
0.604067 -0.55964 0 
0.655324 -0.559063 0 
0.713361 -0.558131 0 
0.769761 -0.561819 0 
0.825243 -0.564777 0 
-0.857917 -0.513788 0 
-0.802945 -0.512908 0 
-0.747856 -0.510673 0 
-0.692659 -0.509495 0 
-0.639581 -0.508501 0 
-0.588854 -0.506189 0 
-0.537596 -0.497922 0 
-0.486157 -0.486157 0 
-0.444928 -0.512952 0 
-0.401787 -0.486784 0 
-0.351685 -0.513639 0 
-0.299695 -0.48291 0 
-0.250032 -0.503 0 
-0.200501 -0.526165 0 
-0.149489 -0.495195 0 
-0.0999281 -0.521367 0 
-0.0499712 -0.492294 0 
4.64723e-05 -0.520999 0 
0.050147 -0.492108 0 
0.099934 -0.52133 0 
0.14957 -0.494692 0 
0.200133 -0.526255 0 
0.249839 -0.503309 0 
0.299839 -0.483005 0 
0.351514 -0.513798 0 
0.401881 -0.486608 0 
0.444935 -0.513054 0 
0.486228 -0.486228 0 
0.537702 -0.497945 0 
0.588901 -0.506147 0 
0.639623 -0.508497 0 
0.692668 -0.509524 0 
0.747859 -0.510716 0 
0.802929 -0.512965 0 
0.857885 -0.513842 0 
-0.887039 -0.461695 0 
-0.832348 -0.462372 0 
-0.778365 -0.460836 0 
-0.724356 -0.45935 0 
-0.671321 -0.457509 0 
-0.618874 -0.455505 0 
-0.567021 -0.451508 0 
-0.512952 -0.444928 0 
-0.450685 -0.450685 0 
-0.397667 -0.437543 0 
-0.348492 -0.462546 0 
-0.295416 -0.432968 0 
-0.247004 -0.450633 0 
-0.198702 -0.473818 0 
-0.150161 -0.441625 0 
-0.100085 -0.468395 0 
-0.0502271 -0.439281 0 
0.000144229 -0.468374 0 
0.0504178 -0.439106 0 
0.100428 -0.468348 0 
0.150697 -0.441105 0 
0.199103 -0.473881 0 
0.247983 -0.450921 0 
0.296569 -0.432268 0 
0.348831 -0.462562 0 
0.397506 -0.4368 0 
0.450637 -0.450637 0 
0.513054 -0.444935 0 
0.5671 -0.451404 0 
0.618952 -0.455483 0 
0.67138 -0.457525 0 
0.724407 -0.459374 0 
0.778382 -0.460863 0 
0.83234 -0.462414 0 
0.887011 -0.461748 0 
-0.912466 -0.409153 0 
-0.857936 -0.411157 0 
-0.804631 -0.410124 0 
-0.751554 -0.408794 0 
-0.698865 -0.407328 0 
-0.646545 -0.405555 0 
-0.594688 -0.403019 0 
-0.542431 -0.399773 0 
-0.486784 -0.401787 0 
-0.437543 -0.397667 0 
-0.387256 -0.387256 0 
-0.344215 -0.411459 0 
-0.30136 -0.381507 0 
-0.25021 -0.395692 0 
-0.200211 -0.419975 0 
-0.150955 -0.389014 0 
-0.100617 -0.416095 0 
-0.0503197 -0.386922 0 
-4.02994e-05 -0.416525 0 
0.05006 -0.386948 0 
0.100784 -0.416323 0 
0.150432 -0.388572 0 
0.200855 -0.420694 0 
0.25086 -0.396905 0 
0.301746 -0.379789 0 
0.344135 -0.410678 0 
0.385823 -0.385823 0 
0.4368 -0.397506 0 
0.486608 -0.401881 0 
0.542384 -0.399615 0 
0.594743 -0.402948 0 
0.646641 -0.405575 0 
0.698945 -0.407371 0 
0.751626 -0.408863 0 
0.804654 -0.410181 0 
0.857929 -0.411236 0 
0.912429 -0.409236 0 
-0.934288 -0.356519 0 
-0.879963 -0.359855 0 
-0.827415 -0.358606 0 
-0.774971 -0.357337 0 
-0.722823 -0.355968 0 
-0.670703 -0.354417 0 
-0.618952 -0.352514 0 
-0.567003 -0.350494 0 
-0.513639 -0.351685 0 
-0.462546 -0.348492 0 
-0.411459 -0.344215 0 
-0.351697 -0.351697 0 
-0.29839 -0.336232 0 
-0.249846 -0.342529 0 
-0.200971 -0.367271 0 
-0.149995 -0.337521 0 
-0.100435 -0.3646 0 
-0.0498692 -0.335025 0 
-6.88684e-05 -0.365025 0 
0.0495433 -0.334795 0 
0.0996798 -0.364834 0 
0.148162 -0.337172 0 
0.199644 -0.368939 0 
0.24763 -0.345582 0 
0.295348 -0.332889 0 
0.34978 -0.34978 0 
0.410678 -0.344135 0 
0.462562 -0.348831 0 
0.513798 -0.351514 0 
0.567174 -0.350318 0 
0.619096 -0.352457 0 
0.670836 -0.354397 0 
0.722893 -0.355952 0 
0.775038 -0.357323 0 
0.827419 -0.358581 0 
0.879943 -0.359894 0 
0.93426 -0.356593 0 
-0.952721 -0.303845 0 
-0.898929 -0.308871 0 
-0.847481 -0.306888 0 
-0.795641 -0.305781 0 
-0.743684 -0.304815 0 
-0.691387 -0.303722 0 
-0.639219 -0.302427 0 
-0.586897 -0.300977 0 
-0.534146 -0.301574 0 
-0.48291 -0.299695 0 
-0.432968 -0.295416 0 
-0.381507 -0.30136 0 
-0.336232 -0.29839 0 
-0.288184 -0.288184 0 
-0.242975 -0.290577 0 
-0.198059 -0.315051 0 
-0.148383 -0.285894 0 
-0.0994753 -0.313232 0 
-0.0507184 -0.283118 0 
-0.000202902 -0.313447 0 
0.0500077 -0.282824 0 
0.0988289 -0.312817 0 
0.148102 -0.28482 0 
0.195742 -0.317413 0 
0.240766 -0.295824 0 
0.285014 -0.285014 0 
0.332889 -0.295348 0 
0.379789 -0.301746 0 
0.432268 -0.296569 0 
0.483005 -0.299839 0 
0.534348 -0.301273 0 
0.587085 -0.30086 0 
0.639359 -0.302407 0 
0.691518 -0.303753 0 
0.743741 -0.304862 0 
0.795701 -0.305831 0 
0.847482 -0.306946 0 
0.898924 -0.308979 0 
0.952687 -0.303953 0 
-0.96803 -0.250833 0 
-0.916037 -0.258282 0 
-0.866979 -0.254732 0 
-0.816639 -0.25358 0 
-0.765535 -0.252907 0 
-0.71362 -0.252254 0 
-0.661417 -0.251503 0 
-0.608767 -0.250543 0 
-0.555692 -0.250874 0 
-0.503 -0.250032 0 
-0.450633 -0.247004 0 
-0.395692 -0.25021 0 
-0.342529 -0.249846 0 
-0.290577 -0.242975 0 
-0.239946 -0.239946 0 
-0.194478 -0.26004 0 
-0.151293 -0.23238 0 
-0.101048 -0.260904 0 
-0.0503938 -0.232537 0 
-0.000203281 -0.262984 0 
0.050638 -0.232316 0 
0.100942 -0.260855 0 
0.152412 -0.232597 0 
0.195768 -0.261421 0 
0.241873 -0.241873 0 
0.295824 -0.240766 0 
0.345582 -0.24763 0 
0.396905 -0.25086 0 
0.450921 -0.247983 0 
[...]
POINT_DATA 1245 
VECTORS vectors float
0.629308 -0.201666 0.750535 
0.638978 -0.170583 0.750072 
0.644899 -0.137064 0.751877 
0.647934 -0.106876 0.754161 
0.649703 -0.0726945 0.756704 
0.650861 -0.0425975 0.758001 
0.651888 -0.0134028 0.758197 
0.645493 0.0170725 0.763575 
0.639614 0.0501362 0.767059 
0.63344 0.0896292 0.768584 
0.627652 0.125743 0.768272 
0.620411 0.166405 0.76642 
0.611237 0.203595 0.764813 
0.601363 -0.266402 0.753254 
0.616644 -0.233521 0.75181 
0.513957 -0.177213 0.839311 
0.52569 -0.151443 0.837087 
0.545527 -0.127349 0.828361 
0.516511 -0.0938974 0.851117 
0.544647 -0.0694052 0.835789 
0.512435 -0.0378809 0.85789 
0.542763 -0.0104425 0.839821 
0.507455 0.0195051 0.861457 
0.53449 0.0524677 0.843544 
0.503157 0.0817524 0.86032 
0.529672 0.119448 0.83975 
0.509443 0.148703 0.847559 
0.498687 0.178925 0.848114 
0.600529 0.240127 0.762695 
0.588177 0.276013 0.760174 
0.563659 -0.334201 0.755379 
0.583646 -0.300111 0.754514 
0.490745 -0.232805 0.839626 
0.503042 -0.204407 0.839742 
0.414816 -0.150807 0.897321 
0.427307 -0.1282 0.894971 
0.448841 -0.10699 0.887184 
0.405279 -0.0754487 0.911074 
0.442017 -0.0570858 0.895188 
0.397727 -0.0295403 0.917028 
0.438785 -0.00788838 0.898558 
0.393767 0.0164157 0.919064 
0.433838 0.044005 0.899915 
0.394941 0.0663744 0.916306 
0.43558 0.100595 0.894511 
0.41399 0.125861 0.901538 
0.402448 0.151928 0.902748 
0.489705 0.209455 0.846356 
0.480187 0.240132 0.843657 
0.573833 0.310976 0.757634 
0.557067 0.344911 0.755455 
0.541763 -0.367958 0.755711 
0.460109 -0.291167 0.838762 
0.47655 -0.261959 0.839213 
0.395412 -0.199747 0.896521 
0.405265 -0.1748 0.897332 
0.331594 -0.127968 0.934703 
0.343175 -0.108554 0.932977 
0.362383 -0.0904879 0.927626 
0.31722 -0.0621353 0.946314 
0.349016 -0.0464607 0.935964 
0.30699 -0.0235039 0.951422 
0.344071 -0.00567106 0.938927 
0.304044 0.0141935 0.952552 
0.342575 0.036874 0.938766 
0.309295 0.0556249 0.949338 
0.351854 0.0855233 0.93214 
0.332738 0.106811 0.936951 
0.322207 0.128945 0.937846 
0.394752 0.178562 0.901269 
0.387236 0.205364 0.898818 
0.4689 0.270307 0.840873 
0.455101 0.299624 0.838515 
0.537771 0.377675 0.753767 
0.493953 -0.431107 0.755087 
0.518349 -0.400628 0.755521 
0.441242 -0.319322 0.838653 
0.369706 -0.250027 0.894876 
0.383804 -0.225021 0.895578 
0.31608 -0.170538 0.933279 
0.323969 -0.148731 0.934304 
0.26367 -0.108433 0.958499 
0.273521 -0.0919307 0.957463 
0.289045 -0.0762975 0.95427 
0.247891 -0.0516287 0.967411 
0.272574 -0.0381987 0.961376 
0.237019 -0.0189549 0.97132 
0.266791 -0.00401759 0.963746 
0.23479 0.0123995 0.971967 
0.267745 0.0313688 0.962979 
0.242005 0.0469746 0.969137 
0.280912 0.0727998 0.956968 
0.265636 0.090687 0.959799 
0.256554 0.109223 0.960339 
0.315963 0.151642 0.936575 
0.310029 0.174919 0.934497 
0.377973 0.23151 0.896404 
0.366027 0.256754 0.894484 
0.438275 0.327326 0.837121 
0.516091 0.409205 0.752463 
0.492671 0.438916 0.751417 
0.466509 -0.460296 0.755313 
0.40787 -0.377458 0.831365 
0.420577 -0.345566 0.838868 
0.352876 -0.27329 0.894869 
0.295234 -0.214773 0.930972 
0.306668 -0.192538 0.932139 
0.251979 -0.145617 0.956714 
0.258001 -0.126529 0.957824 
0.2089 -0.0920242 0.973598 
0.216557 -0.0776111 0.97318 
0.228673 -0.064385 0.971372 
0.193548 -0.043084 0.980144 
0.212225 -0.0316453 0.976708 
0.183295 -0.0154365 0.982937 
0.206511 -0.00286445 0.97844 
0.181669 0.0108344 0.9833 
0.208656 0.0267722 0.977623 
0.189228 0.0398688 0.981124 
0.222635 0.0618295 0.972939 
0.210733 0.0769017 0.974514 
0.203827 0.0927764 0.974601 
0.252128 0.128889 0.959072 
0.24749 0.149111 0.957348 
0.302422 0.197694 0.932447 
0.292614 0.220283 0.930512 
0.35083 0.279903 0.893629 
0.419027 0.353049 0.836524 
0.407196 0.384809 0.82832 
0.465837 0.467946 0.751014 
0.436608 -0.486896 0.756509 
0.382555 -0.401861 0.831961 
0.332205 -0.327427 0.884551 
0.334695 -0.295393 0.894831 
0.280761 -0.236534 0.930175 
0.23666 -0.185822 0.953657 
0.244666 -0.165016 0.955462 
0.200483 -0.124625 0.971738 
0.204881 -0.107758 0.972837 
0.165201 -0.0782001 0.983155 
0.171039 -0.0658662 0.98306 
0.18024 -0.0543234 0.982121 
0.151069 -0.036187 0.987861 
0.165138 -0.0263003 0.98592 
0.142097 -0.0127074 0.989771 
0.160148 -0.00200908 0.987091 
0.140932 0.00944832 0.989974 
0.16259 0.02289 0.986428 
0.147964 0.0338869 0.988412 
0.175799 0.0526018 0.98302 
0.166849 0.0653441 0.983815 
0.161495 0.0789093 0.983714 
0.200596 0.109647 0.973519 
0.19735 0.12744 0.972014 
0.24167 0.169153 0.955501 
0.23502 0.190354 0.953169 
0.279619 0.242164 0.929069 
0.333845 0.301902 0.892974 
0.332301 0.334112 0.882012 
0.382758 0.409338 0.828214 
0.436642 0.49495 0.751245 
0.405341 -0.510303 0.758478 
0.349668 -0.413763 0.840555 
0.299238 -0.329296 0.895556 
0.267435 -0.263384 0.92688 
0.228155 -0.208345 0.951072 
0.190578 -0.161558 0.968287 
0.195188 -0.141948 0.970439 
0.159377 -0.106932 0.981409 
0.162757 -0.0921756 0.982351 
0.130519 -0.0669278 0.989184 
0.13471 -0.0559288 0.989305 
0.141596 -0.0459365 0.988858 
0.11799 -0.0305909 0.992543 
0.128633 -0.0220162 0.991448 
0.110434 -0.0105423 0.993828 
0.124479 -0.00140335 0.992221 
0.109594 0.00829101 0.993942 
0.126816 0.0196623 0.991731 
0.115741 0.029052 0.992854 
0.138424 0.0447817 0.98936 
0.131722 0.0557315 0.989719 
0.127986 0.067485 0.989477 
0.159763 0.0937454 0.982694 
0.157124 0.109175 0.981526 
0.1931 0.145372 0.97035 
0.189599 0.165391 0.967832 
0.227717 0.213166 0.950108 
0.267496 0.269186 0.925195 
0.300211 0.335999 0.892736 
0.351033 0.421463 0.836149 
0.40662 0.518902 0.751931 
0.371494 -0.532656 0.76044 
0.322355 -0.433439 0.841557 
0.276074 -0.346572 0.896477 
0.239352 -0.275761 0.930949 
0.211233 -0.224419 0.951324 
0.179811 -0.177056 0.967636 
0.150849 -0.137608 0.978932 
0.155026 -0.121937 0.980356 
0.126165 -0.0919444 0.987739 
0.128888 -0.0790987 0.988499 
0.103148 -0.0580349 0.992972 
0.105962 -0.0481154 0.993205 
0.111213 -0.0393027 0.993019 
0.0921605 -0.0260904 0.995402 
0.100415 -0.0186633 0.994771 
0.0859977 -0.0088215 0.996256 
0.097109 -0.000998059 0.995273 
0.0853953 0.00722215 0.996321 
0.0991374 0.0169683 0.994929 
0.0905451 0.0249812 0.995579 
0.108941 0.0384701 0.993304 
0.103905 0.0479991 0.993428 
0.101344 0.0585559 0.993127 
0.126786 0.0803573 0.98867 
0.124637 0.0936975 0.987768 
0.153766 0.12461 0.980219 
0.150441 0.140762 0.978547 
0.179934 0.181109 0.966863 
0.211968 0.229341 0.949985 
0.240789 0.281568 0.928838 
0.278357 0.353414 0.893093 
0.325268 0.441423 0.836269 
0.374851 0.541494 0.75251 
0.335963 -0.553685 0.761946 
0.292721 -0.451434 0.842924 
0.251555 -0.362523 0.897384 
0.216466 -0.289466 0.93239 
0.187634 -0.232256 0.954385 
0.16348 -0.187077 0.968647 
0.139547 -0.148302 0.979047 
0.118062 -0.116422 0.986158 
0.121254 -0.103699 0.98719 
0.0991602 -0.0808397 0.991782 
0.10199 -0.0692324 0.992373 
0.0816123 -0.0503932 0.995389 
0.0833262 -0.041578 0.995655 
0.0873565 -0.0337541 0.995605 
0.0721148 -0.022361 0.997146 
0.0785633 -0.0158482 0.996783 
0.0670736 -0.00748187 0.99772 
0.0758848 -0.000683138 0.997116 
0.0666332 0.00640557 0.997757 
0.0776477 0.0147255 0.996872 
0.0709109 0.0215967 0.997249 
0.0857844 0.0332337 0.995759 
0.0819665 0.041552 0.995769 
0.0805156 0.0509187 0.995452 
0.100672 0.0702933 0.992433 
0.0983311 0.0822834 0.991746 
0.120512 0.105967 0.98704 
0.118156 0.118805 0.985862 
0.140013 0.151544 0.978484 
0.164508 0.191054 0.967696 
0.189504 0.237031 0.95284 
0.219232 0.295181 0.929949 
0.255431 0.369277 0.893526 
0.297763 0.459182 0.836952 
0.342196 0.562012 0.753023 
0.299451 -0.573302 0.762663 
0.2616 -0.467309 0.844504 
0.22503 -0.376001 0.89888 
0.192906 -0.300401 0.934102 
0.165704 -0.239669 0.956609 
0.14295 -0.191277 0.971071 
0.123015 -0.152195 0.980665 
0.105014 -0.119007 0.987324 
0.0934449 -0.0920438 0.991361 
0.0791028 -0.0709309 0.99434 
0.0807104 -0.0601849 0.994919 
0.0645905 -0.0438046 0.99695 
0.0653023 -0.0357705 0.997224 
0.0684908 -0.0290293 0.997229 
0.0562486 -0.0194691 0.998227 
0.0613935 -0.0136792 0.99802 
0.0523216 -0.00645798 0.998609 
0.059375 -0.000497812 0.998236 
0.0520184 0.00568251 0.99863 
0.0607834 0.0128702 0.998068 
0.0554355 0.0190874 0.99828 
0.0674926 0.0287635 0.997305 
0.0645374 0.0360629 0.997263 
0.0637067 0.0443043 0.996985 
0.0798491 0.0611252 0.994931 
0.0784319 0.0719364 0.994321 
0.0932665 0.0937306 0.991219 
0.105494 0.12138 0.986984 
0.12424 0.155064 0.980061 
0.144928 0.194914 0.970054 
0.168688 0.244054 0.954977 
0.197141 0.305602 0.931527 
0.230702 0.382073 0.894872 
0.269064 0.474047 0.838382 
0.309022 0.580088 0.75366 
0.262861 -0.591342 0.762377 
0.230236 -0.481479 0.845677 
0.197997 -0.387502 0.900355 
0.169461 -0.309535 0.935666 
0.145194 -0.246721 0.958148 
0.124591 -0.196415 0.972573 
0.107341 -0.156161 0.981882 
0.0924981 -0.123779 0.987989 
0.0816198 -0.097543 0.991879 
0.0717979 -0.0778166 0.994379 
0.0617988 -0.0610096 0.996222 
0.0635322 -0.0525811 0.996594 
0.0514093 -0.0402172 0.997868 
0.050807 -0.0320355 0.998195 
0.0534439 -0.0256569 0.998241 
0.043876 -0.0172701 0.998888 
0.0480559 -0.0120166 0.998772 
0.0407908 -0.00565842 0.999152 
0.0465386 -0.000355022 0.998916 
0.040627 0.00498627 0.999162 
0.0476889 0.011469 0.998796 
0.043328 0.0167235 0.998921 
0.0529688 0.0255411 0.998269 
0.050581 0.0322682 0.998199 
0.0505844 0.0404189 0.997902 
0.0628414 0.053119 0.996609 
0.0610352 0.0611335 0.996262 
0.0717114 0.0787613 0.994311 
0.0822031 0.0990079 0.991685 
0.0936148 0.125685 0.987643 
0.109143 0.158636 0.981286 
0.127509 0.199446 0.971577 
0.149224 0.250321 0.956594 
0.175064 0.313761 0.933224 
0.205499 0.392096 0.896678 
0.240092 0.486309 0.840154 
0.27568 0.595522 0.754556 
0.226992 -0.607708 0.761029 
0.199552 -0.494467 0.845979 
0.171139 -0.397679 0.901423 
0.14627 -0.317679 0.936848 
0.124827 -0.252861 0.959416 
0.106876 -0.200806 0.973784 
0.0916691 -0.159508 0.982931 
0.0791055 -0.126488 0.988809 
0.0695023 -0.100045 0.992552 
0.0605956 -0.0793648 0.995002 
0.0531328 -0.0625435 0.996627 
0.0487822 -0.0481648 0.997647 
0.0413292 -0.0362931 0.998486 
0.0393471 -0.0285587 0.998817 
0.0416705 -0.022814 0.998871 
0.0341797 -0.015315 0.999298 
0.0375312 -0.0105979 0.999239 
0.0316714 -0.00494482 0.999486 
0.036334 -0.000299683 0.99934 
0.031509 0.00452438 0.999493 
0.0372804 0.0100633 0.999254 
0.0337663 0.0148654 0.999319 
0.0415036 0.0226246 0.998882 
0.0395551 0.0284258 0.998813 
0.0401266 0.0355837 0.998561 
0.0479887 0.0479858 0.997695 
0.0531803 0.0630426 0.996593 
0.0612447 0.0803411 0.994884 
0.0703796 0.101376 0.992356 
0.0807231 0.127987 0.988485 
0.0941379 0.16136 0.982396 
0.11033 0.202906 0.972963 
0.129736 0.255186 0.958149 
0.152855 0.320098 0.934972 
0.179998 0.400085 0.898628 
0.211253 0.496392 0.842002 
0.24232 0.608406 0.755727 
0.192395 -0.622152 0.758889 
0.170121 -0.506616 0.845221 
0.145516 -0.408287 0.901181 
0.124002 -0.325945 0.937221 
0.105744 -0.259034 0.960062 
0.09012 -0.2051 0.974583 
0.0771363 -0.162259 0.983729 
0.0662785 -0.128118 0.989542 
0.0577804 -0.101351 0.993171 
0.0504958 -0.0802381 0.995496 
0.0439262 -0.0635478 0.997012 
0.0405667 -0.0506699 0.997891 
0.0366487 -0.0407931 0.998495 
0.0319588 -0.0316054 0.998989 
0.0301418 -0.0249957 0.999233 
0.0321173 -0.0201923 0.99928 
0.0262614 -0.0136844 0.999561 
0.0290737 -0.00941474 0.999533 
0.0242953 -0.00457356 0.999694 
0.0281495 -0.000263702 0.999604 
0.0242004 0.00401326 0.999699 
0.0288501 0.00891573 0.999544 
0.0259524 0.0133262 0.999574 
0.03218 0.0197402 0.999287 
0.0306786 0.0248892 0.999219 
0.031228 0.0310445 0.99903 
0.0357915 0.0400408 0.998557 
0.0405884 0.0506097 0.997893 
0.0445463 0.0639571 0.996958 
0.0512546 0.0809335 0.995401 
0.0590614 0.102158 0.993013 
0.0680967 0.12904 0.989298 
0.0799311 0.163199 0.98335 
0.0940247 0.206017 0.974021 
0.111074 0.259704 0.959279 
0.131281 0.32627 0.936116 
0.155177 0.407806 0.899786 
0.182915 0.505288 0.843342 
0.209003 0.618782 0.757249 
0.159098 -0.634129 0.756682 
0.142602 -0.520236 0.842033 
0.121275 -0.422245 0.898333 
0.103384 -0.338675 0.935206 
0.08812 -0.269705 0.958903 
0.0749998 -0.213371 0.974088 
0.0640337 -0.168432 0.983631 
0.0547594 -0.132615 0.989654 
0.0475208 -0.104326 0.993407 
0.0411833 -0.0820054 0.995781 
0.0357355 -0.0643316 0.997289 
0.0321241 -0.0500799 0.998228 
0.0287396 -0.0388212 0.998833 
0.025216 -0.0297937 0.999238 
0.0229203 -0.0227025 0.999479 
0.0240721 -0.0179324 0.999549 
0.0196828 -0.0128076 0.999724 
0.0221722 -0.00869939 0.999716 
0.0184426 -0.00410744 0.999821 
0.02162 -0.0001682 0.999766 
0.0183642 0.00386746 0.999824 
0.0220312 0.0084278 0.999722 
0.0196622 0.0126234 0.999727 
0.0241402 0.0179759 0.999547 
0.0231469 0.0228437 0.999471 
0.025147 0.0304592 0.99922 
0.0287095 0.0394657 0.998808 
0.03262 0.0506197 0.998185 
0.0365005 0.06472 0.997236 
0.042112 0.0823851 0.99571 
0.0487886 0.10455 0.993322 
0.0568434 0.132777 0.989515 
0.0668105 0.168242 0.983479 
0.0789954 0.212834 0.97389 
0.0934845 0.268323 0.958782 
0.110665 0.336445 0.935178 
0.130904 0.418612 0.898681 
0.155281 0.51518 0.842898 
0.175277 0.626556 0.759411 
0.124175 -0.642845 0.755864 
0.117012 -0.542406 0.831928 
0.0986926 -0.445722 0.889714 
0.0841898 -0.359542 0.929323 
0.0716256 -0.286358 0.955442 
0.0609727 -0.226367 0.972132 
0.0519253 -0.178226 0.982619 
0.04437 -0.139949 0.989164 
0.0381996 -0.109811 0.993218 
0.0331433 -0.0862298 0.995724 
0.0286979 -0.0676132 0.997299 
0.0254905 -0.0527299 0.998283 
0.0228382 -0.0411427 0.998892 
0.0202709 -0.0317405 0.999291 
0.0180524 -0.0238014 0.999554 
0.017295 -0.0171493 0.999703 
0.0147021 -0.0116855 0.999824 
0.0165448 -0.00785021 0.999832 
0.0135175 -0.0036216 0.999902 
0.0162907 -0.000207466 0.999867 
0.0135276 0.00325627 0.999903 
0.0165633 0.00756246 0.999834 
0.0146866 0.0115761 0.999825 
0.0175199 0.0171951 0.999699 
0.0182421 0.0238827 0.999548 
0.0201729 0.0319939 0.999284 
0.0229543 0.0413666 0.99888 
0.0260423 0.0529653 0.998257 
0.0293755 0.0676056 0.99728 
0.0340598 0.0860787 0.995706 
0.0395535 0.109417 0.993209 
0.0462805 0.139179 0.989185 
0.0546772 0.176895 0.98271 
0.0646728 0.224105 0.972417 
0.0766899 0.282962 0.95606 
0.0908966 0.354412 0.930661 
0.107624 0.438832 0.892101 
0.128586 0.533642 0.835878 
0.137806 0.631156 0.763316 
0.0936409 -0.648415 0.755506 
0.0837586 -0.515805 0.852601 
0.0679634 -0.404352 0.912075 
0.0565603 -0.316102 0.947038 
0.0476096 -0.246717 0.967917 
0.0402677 -0.19239 0.980492 
0.0341629 -0.149988 0.988097 
0.0292509 -0.117006 0.9927 
0.0252438 -0.0913329 0.9955 
0.0217829 -0.0713786 0.997211 
0.0191845 -0.055656 0.998266 
0.0171347 -0.0434045 0.998911 
0.0152687 -0.0337953 0.999312 
0.0137052 -0.0259853 0.999568 
0.0128844 -0.0195047 0.999727 
0.0117629 -0.0145532 0.999825 
0.0100206 -0.00999242 0.9999 
0.0119332 -0.00702454 0.999904 
0.00923064 -0.00369602 0.999951 
0.0115368 -9.57242e-05 0.999933 
0.0092599 0.00345613 0.999951 
0.0119213 0.00680296 0.999906 
0.0101786 0.00978783 0.9999 
0.0118746 0.0143403 0.999827 
0.013001 0.0193475 0.999728 
0.0137323 0.0256642 0.999576 
0.0151963 0.0335123 0.999323 
0.017301 0.0431577 0.998918 
0.0196323 0.0553281 0.998275 
0.0223943 0.0708755 0.997234 
0.0259824 0.0906149 0.995547 
0.030435 0.115944 0.992789 
0.0357717 0.148253 0.988302 
0.0424392 0.189705 0.980924 
0.0506237 0.242612 0.968802 
0.0606139 0.310031 0.948792 
0.0734859 0.395932 0.915335 
0.0915058 0.504333 0.858647 
0.103381 0.633923 0.766456 
0.0599556 -0.65288 0.755085 
0.0589397 -0.546515 0.835373 
0.0489459 -0.443437 0.894968 
0.0403908 -0.349767 0.935966 
0.033803 -0.272845 0.961464 
0.0284386 -0.212121 0.97683 
0.0240396 -0.164807 0.986033 
0.0204873 -0.128212 0.991535 
0.0175754 -0.0999203 0.99484 
0.0151468 -0.0780822 0.996832 
0.013254 -0.0609622 0.998052 
0.0117404 -0.0476525 0.998795 
0.0104451 -0.0371903 0.999254 
0.00936529 -0.0288192 0.999541 
0.00869074 -0.0219454 0.999721 
0.00783246 -0.0164119 0.999835 
0.00708678 -0.01182 0.999905 
0.00718024 -0.00712809 0.999949 
0.00579179 -0.00346077 0.999977 
0.00791744 -0.000202473 0.999969 
0.00584763 0.00314587 0.999978 
0.0071905 0.00684601 0.999951 
0.00709445 0.0115656 0.999908 
0.00799868 0.0162199 0.999836 
0.00872337 0.0216873 0.999727 
0.00940183 0.0285184 0.999549 
0.0105224 0.0369933 0.99926 
0.0120356 0.0474012 0.998803 
0.0136114 0.0605318 0.998073 
0.0156191 0.0774374 0.996875 
0.018199 0.0988893 0.994932 
0.0212457 0.126582 0.991729 
0.0251036 0.162292 0.986423 
0.0298003 0.208191 0.977634 
0.0355749 0.267094 0.963014 
0.0427756 0.341556 0.938888 
0.0521148 0.432298 0.900223 
0.0634534 0.532822 0.843845 
0.064093 0.636435 0.768663 
0.0310515 -0.65617 0.753974 
0.029119 -0.516561 0.855755 
0.0231277 -0.4007 0.915917 
0.0188788 -0.308994 0.950877 
0.0156243 -0.238174 0.971097 
0.0131202 -0.183921 0.982853 
0.0110471 -0.142311 0.98976 
0.00940145 -0.110403 0.993842 
0.0080711 -0.0858472 0.996276 
0.0069716 -0.0668252 0.99774 
0.00611264 -0.0520542 0.998626 
0.0054689 -0.040542 0.999163 
0.00483849 -0.0314338 0.999494 
0.00445155 -0.0240891 0.9997 
0.00413497 -0.0183163 0.999824 
0.00354274 -0.0133624 0.999904 
0.00370104 -0.00922705 0.999951 
0.00341169 -0.00574466 0.999978 
0.00241901 -0.00219485 0.999995 
0.00434874 -0.000154846 0.999991 
0.00240057 0.00201919 0.999995 
0.003462 0.00548937 0.999979 
0.00380719 0.00888972 0.999953 
0.00364003 0.0131661 0.999907 
0.00418331 0.0179558 0.99983 
0.004473 0.0238211 0.999706 
0.00491129 0.0311263 0.999503 
0.00556898 0.0402031 0.999176 
0.00627991 0.0516434 0.998646 
0.00721747 0.0661684 0.997782 
0.0082149 0.0848918 0.996356 
0.00959871 0.109001 0.993995 
0.0112187 0.140099 0.990074 
0.0131729 0.180557 0.983476 
0.0156709 0.233189 0.972305 
0.0187532 0.301631 0.95324 
0.0228405 0.390489 0.920324 
0.0286765 0.502782 0.863937 
0.0297012 0.639375 0.768321 
0.0036987 -0.659183 0.751974 
0.00262222 -0.549287 0.83563 
0.00195933 -0.444027 0.896011 
0.00129408 -0.34791 0.937527 
0.000886734 -0.269426 0.963021 
0.000634091 -0.208192 0.978088 
0.000429272 -0.161129 0.986933 
0.000333639 -0.125022 0.992154 
0.000244583 -0.0973144 0.995254 
0.000164506 -0.0758931 0.997116 
0.0001432 -0.059287 0.998241 
0.000159308 -0.0463719 0.998924 
9.83414e-05 -0.0361498 0.999346 
0.000161209 -0.027979 0.999608 
0.000129295 -0.0214616 0.99977 
8.30506e-05 -0.0161564 0.999869 
0.000113435 -0.0115123 0.999934 
0.00013843 -0.00775006 0.99997 
-1.25548e-05 -0.004568 0.99999 
-8.05876e-05 -0.000312666 1 
0.000105701 0.00402611 0.999992 
0.00016956 0.00755352 0.999971 
0.000170733 0.011114 0.999938 
0.000176133 0.0158755 0.999874 
0.000175445 0.0212091 0.999775 
0.000192306 0.0276559 0.999617 
0.00014578 0.0358895 0.999356 
0.000237115 0.0459974 0.998942 
0.00016468 0.0587926 0.99827 
0.000139428 0.0752286 0.997166 
7.59362e-05 0.09625 0.995357 
-0.000102915 0.123395 0.992358 
-0.000256554 0.158683 0.98733 
-0.000525144 0.204403 0.978887 
-0.000903477 0.263821 0.964571 
-0.00137633 0.339834 0.940485 
-0.00193925 0.432861 0.901458 
-0.00272155 0.53539 0.844601 
-0.003399 0.643169 0.765717 
-0.0242671 -0.654468 0.7557 
-0.0244891 -0.515141 0.856755 
-0.0201317 -0.399688 0.91643 
-0.0167757 -0.308195 0.951175 
-0.0142344 -0.237612 0.971256 
-0.0120704 -0.183505 0.982945 
-0.0103202 -0.14204 0.989807 
-0.00887859 -0.110189 0.993871 
-0.00763768 -0.085699 0.996292 
-0.00664612 -0.0666843 0.997752 
-0.00590586 -0.0519722 0.998631 
-0.00514327 -0.0404964 0.999166 
-0.00456422 -0.0313659 0.999498 
-0.00420045 -0.0240449 0.999702 
-0.00388611 -0.0182502 0.999826 
-0.00338034 -0.0133866 0.999905 
-0.00353893 -0.00926381 0.999951 
-0.0032399 -0.0057763 0.999978 
-0.00187123 -0.00218311 0.999996 
-0.00429254 -0.000239978 0.999991 
-0.00189462 0.00202408 0.999996 
-0.00316358 0.00545201 0.99998 
-0.00345793 0.00881144 0.999955 
-0.00328305 0.0131206 0.999909 
-0.0037737 0.0179519 0.999832 
-0.00422045 0.0238089 0.999708 
-0.00451424 0.0311551 0.999504 
-0.00516267 0.0401843 0.999179 
-0.0059385 0.051693 0.998645 
-0.00675799 0.0662913 0.997777 
-0.00806447 0.0850665 0.996343 