# vtk DataFile Version 3.0 
Exported using Morpho https://github.com/Morpho-lang/morpho 
ASCII 
DATASET UNSTRUCTURED_GRID 

POINTS 1245 float 
-0.303845 -0.952721 0 
-0.250833 -0.96803 0 
-0.195084 -0.980787 0 
-0.146308 -0.989239 0 
-0.0940719 -0.995565 0 
-0.0475118 -0.998871 0 
-0.000246339 -1 0 
0.0470875 -0.998891 0 
0.0937543 -0.995595 0 
0.146139 -0.989264 0 
0.195062 -0.980791 0 
0.250843 -0.968028 0 
0.303953 -0.952687 0 
-0.409153 -0.912466 0 
-0.356519 -0.934288 0 
-0.308871 -0.898929 0 
-0.258282 -0.916037 0 
-0.207345 -0.934859 0 
-0.154868 -0.930629 0 
-0.104343 -0.948989 0 
-0.0520099 -0.939193 0 
-8.5762e-05 -0.954582 0 
0.0518744 -0.939288 0 
0.104354 -0.949042 0 
0.154696 -0.9306 0 
0.207366 -0.934975 0 
0.258274 -0.916081 0 
0.308979 -0.898924 0 
0.356593 -0.93426 0 
0.409236 -0.912429 0 
-0.513788 -0.857917 0 
-0.461695 -0.887039 0 
-0.411157 -0.857936 0 
-0.359855 -0.879963 0 
-0.306888 -0.847481 0 
-0.254732 -0.866979 0 
-0.201991 -0.889059 0 
-0.149956 -0.874108 0 
-0.100608 -0.900088 0 
-0.0497575 -0.880388 0 
2.4595e-05 -0.904789 0 
0.0496869 -0.8804 0 
0.100612 -0.900177 0 
0.149872 -0.874171 0 
0.202071 -0.889165 0 
0.254695 -0.867031 0 
0.306946 -0.847482 0 
0.359894 -0.879943 0 
0.411236 -0.857929 0 
0.461748 -0.887011 0 
0.513842 -0.857885 0 
-0.564741 -0.825268 0 
-0.512908 -0.802945 0 
-0.462372 -0.832348 0 
-0.410124 -0.804631 0 
-0.358606 -0.827415 0 
-0.305781 -0.795641 0 
-0.25358 -0.816639 0 
-0.200756 -0.839997 0 
-0.149043 -0.818944 0 
-0.0987265 -0.846667 0 
-0.0490473 -0.822548 0 
5.00659e-05 -0.849932 0 
0.0490834 -0.822542 0 
0.0987838 -0.846676 0 
0.148997 -0.818924 0 
0.200826 -0.840131 0 
0.253508 -0.816728 0 
0.305831 -0.795701 0 
0.358581 -0.827419 0 
0.410181 -0.804654 0 
0.462414 -0.83234 0 
0.512965 -0.802929 0 
0.564777 -0.825243 0 
-0.660798 -0.750564 0 
-0.614015 -0.789295 0 
-0.561786 -0.769772 0 
-0.510673 -0.747856 0 
-0.460836 -0.778365 0 
-0.408794 -0.751554 0 
-0.357337 -0.774971 0 
-0.304815 -0.743684 0 
-0.252907 -0.765535 0 
-0.200631 -0.789263 0 
-0.149244 -0.764328 0 
-0.0986912 -0.791935 0 
-0.0492815 -0.765764 0 
4.16586e-05 -0.79382 0 
0.0492411 -0.765708 0 
0.0987508 -0.791951 0 
0.149196 -0.764326 0 
0.200666 -0.789356 0 
0.252841 -0.765599 0 
0.304862 -0.743741 0 
0.357323 -0.775038 0 
0.408863 -0.751626 0 
0.460863 -0.778382 0 
0.510716 -0.747859 0 
0.561819 -0.769761 0 
0.614041 -0.789274 0 
0.660811 -0.750552 0 
-0.707107 -0.707107 0 
-0.654819 -0.699058 0 
-0.60813 -0.73348 0 
-0.558104 -0.71337 0 
-0.509495 -0.692659 0 
-0.45935 -0.724356 0 
-0.407328 -0.698865 0 
-0.355968 -0.722823 0 
-0.303722 -0.691387 0 
-0.252254 -0.71362 0 
-0.20067 -0.737336 0 
-0.149608 -0.710068 0 
-0.0991558 -0.737129 0 
-0.0495872 -0.709825 0 
-2.23646e-05 -0.737917 0 
0.0494408 -0.709766 0 
0.0991291 -0.737116 0 
0.149502 -0.710042 0 
0.200696 -0.73743 0 
0.252186 -0.713735 0 
0.303753 -0.691518 0 
0.355952 -0.722893 0 
0.407371 -0.698945 0 
0.459374 -0.724407 0 
0.509524 -0.692668 0 
0.558131 -0.713361 0 
0.608151 -0.733462 0 
0.654824 -0.699048 0 
0.707107 -0.707107 0 
-0.750564 -0.660798 0 
-0.699058 -0.654819 0 
-0.647692 -0.647692 0 
-0.603437 -0.675718 0 
-0.55905 -0.655305 0 
-0.508501 -0.639581 0 
-0.457509 -0.671321 0 
-0.405555 -0.646545 0 
-0.354417 -0.670703 0 
-0.302427 -0.639219 0 
-0.251503 -0.661417 0 
-0.20061 -0.684911 0 
-0.149717 -0.655943 0 
-0.0995004 -0.682466 0 
-0.0498216 -0.654561 0 
-5.02113e-05 -0.682664 0 
0.0496787 -0.654499 0 
0.0994374 -0.682501 0 
0.149603 -0.655909 0 
0.200573 -0.684972 0 
0.251388 -0.661524 0 
0.302407 -0.639359 0 
0.354397 -0.670836 0 
0.405575 -0.646641 0 
0.457525 -0.67138 0 
0.508497 -0.639623 0 
0.559063 -0.655324 0 
0.603436 -0.675715 0 
0.64769 -0.64769 0 
0.699048 -0.654824 0 
0.750552 -0.660811 0 
-0.789295 -0.614015 0 
-0.73348 -0.60813 0 
-0.675718 -0.603437 0 
-0.613088 -0.613088 0 
-0.55962 -0.604068 0 
-0.506189 -0.588854 0 
-0.455505 -0.618874 0 
-0.403019 -0.594688 0 
-0.352514 -0.618952 0 
-0.300977 -0.586897 0 
-0.250543 -0.608767 0 
-0.200257 -0.632053 0 
-0.150049 -0.601979 0 
-0.0998281 -0.628222 0 
-0.0500377 -0.599914 0 
-3.12334e-05 -0.628076 0 
0.0498927 -0.599835 0 
0.0997818 -0.628253 0 
0.149924 -0.601867 0 
0.200214 -0.632118 0 
0.250423 -0.608915 0 
0.30086 -0.587085 0 
0.352457 -0.619096 0 
0.402948 -0.594743 0 
0.455483 -0.618952 0 
0.506147 -0.588901 0 
0.55964 -0.604067 0 
0.613069 -0.613069 0 
0.675715 -0.603436 0 
0.733462 -0.608151 0 
0.789274 -0.614041 0 
-0.825268 -0.564741 0 
-0.769772 -0.561786 0 
-0.71337 -0.558104 0 
-0.655305 -0.55905 0 
-0.604068 -0.55962 0 
-0.551031 -0.551031 0 
-0.497922 -0.537596 0 
-0.451508 -0.567021 0 
-0.399773 -0.542431 0 
-0.350494 -0.567003 0 
-0.301574 -0.534146 0 
-0.250874 -0.555692 0 
-0.200542 -0.579013 0 
-0.150324 -0.548268 0 
-0.100169 -0.57443 0 
-0.0500152 -0.545912 0 
-3.29278e-05 -0.574268 0 
0.0499208 -0.545788 0 
0.100058 -0.574485 0 
0.150038 -0.548073 0 
0.200377 -0.579041 0 
0.250556 -0.55585 0 
0.301273 -0.534348 0 
0.350318 -0.567174 0 
0.399615 -0.542384 0 
0.451404 -0.5671 0 
0.497945 -0.537702 0 
0.551073 -0.551073 0 
0.604067 -0.55964 0 
0.655324 -0.559063 0 
0.713361 -0.558131 0 
0.769761 -0.561819 0 
0.825243 -0.564777 0 
-0.857917 -0.513788 0 
-0.802945 -0.512908 0 
-0.747856 -0.510673 0 
-0.692659 -0.509495 0 
-0.639581 -0.508501 0 
-0.588854 -0.506189 0 
-0.537596 -0.497922 0 
-0.486157 -0.486157 0 
-0.444928 -0.512952 0 
-0.401787 -0.486784 0 
-0.351685 -0.513639 0 
-0.299695 -0.48291 0 
-0.250032 -0.503 0 
-0.200501 -0.526165 0 
-0.149489 -0.495195 0 
-0.0999281 -0.521367 0 
-0.0499712 -0.492294 0 
4.64723e-05 -0.520999 0 
0.050147 -0.492108 0 
0.099934 -0.52133 0 
0.14957 -0.494692 0 
0.200133 -0.526255 0 
0.249839 -0.503309 0 
0.299839 -0.483005 0 
0.351514 -0.513798 0 
0.401881 -0.486608 0 
0.444935 -0.513054 0 
0.486228 -0.486228 0 
0.537702 -0.497945 0 
0.588901 -0.506147 0 
0.639623 -0.508497 0 
0.692668 -0.509524 0 
0.747859 -0.510716 0 
0.802929 -0.512965 0 
0.857885 -0.513842 0 
-0.887039 -0.461695 0 
-0.832348 -0.462372 0 
-0.778365 -0.460836 0 
-0.724356 -0.45935 0 
-0.671321 -0.457509 0 
-0.618874 -0.455505 0 
-0.567021 -0.451508 0 
-0.512952 -0.444928 0 
-0.450685 -0.450685 0 
-0.397667 -0.437543 0 
-0.348492 -0.462546 0 
-0.295416 -0.432968 0 
-0.247004 -0.450633 0 
-0.198702 -0.473818 0 
-0.150161 -0.441625 0 
-0.100085 -0.468395 0 
-0.0502271 -0.439281 0 
0.000144229 -0.468374 0 
0.0504178 -0.439106 0 
0.100428 -0.468348 0 
0.150697 -0.441105 0 
0.199103 -0.473881 0 
0.247983 -0.450921 0 
0.296569 -0.432268 0 
0.348831 -0.462562 0 
0.397506 -0.4368 0 
0.450637 -0.450637 0 
0.513054 -0.444935 0 
0.5671 -0.451404 0 
0.618952 -0.455483 0 
0.67138 -0.457525 0 
0.724407 -0.459374 0 
0.778382 -0.460863 0 
0.83234 -0.462414 0 
0.887011 -0.461748 0 
-0.912466 -0.409153 0 
-0.857936 -0.411157 0 
-0.804631 -0.410124 0 
-0.751554 -0.408794 0 
-0.698865 -0.407328 0 
-0.646545 -0.405555 0 
-0.594688 -0.403019 0 
-0.542431 -0.399773 0 
-0.486784 -0.401787 0 
-0.437543 -0.397667 0 
-0.387256 -0.387256 0 
-0.344215 -0.411459 0 
-0.30136 -0.381507 0 
-0.25021 -0.395692 0 
-0.200211 -0.419975 0 
-0.150955 -0.389014 0 
-0.100617 -0.416095 0 
-0.0503197 -0.386922 0 
-4.02994e-05 -0.416525 0 
0.05006 -0.386948 0 
0.100784 -0.416323 0 
0.150432 -0.388572 0 
0.200855 -0.420694 0 
0.25086 -0.396905 0 
0.301746 -0.379789 0 
0.344135 -0.410678 0 
0.385823 -0.385823 0 
0.4368 -0.397506 0 
0.486608 -0.401881 0 
0.542384 -0.399615 0 
0.594743 -0.402948 0 
0.646641 -0.405575 0 
0.698945 -0.407371 0 
0.751626 -0.408863 0 
0.804654 -0.410181 0 
0.857929 -0.411236 0 
0.912429 -0.409236 0 
-0.934288 -0.356519 0 
-0.879963 -0.359855 0 
-0.827415 -0.358606 0 
-0.774971 -0.357337 0 
-0.722823 -0.355968 0 
-0.670703 -0.354417 0 
-0.618952 -0.352514 0 
-0.567003 -0.350494 0 
-0.513639 -0.351685 0 
-0.462546 -0.348492 0 
-0.411459 -0.344215 0 
-0.351697 -0.351697 0 
-0.29839 -0.336232 0 
-0.249846 -0.342529 0 
-0.200971 -0.367271 0 
-0.149995 -0.337521 0 
-0.100435 -0.3646 0 
-0.0498692 -0.335025 0 
-6.88684e-05 -0.365025 0 
0.0495433 -0.334795 0 
0.0996798 -0.364834 0 
0.148162 -0.337172 0 
0.199644 -0.368939 0 
0.24763 -0.345582 0 
0.295348 -0.332889 0 
0.34978 -0.34978 0 
0.410678 -0.344135 0 
0.462562 -0.348831 0 
0.513798 -0.351514 0 
0.567174 -0.350318 0 
0.619096 -0.352457 0 
0.670836 -0.354397 0 
0.722893 -0.355952 0 
0.775038 -0.357323 0 
0.827419 -0.358581 0 
0.879943 -0.359894 0 
0.93426 -0.356593 0 
-0.952721 -0.303845 0 
-0.898929 -0.308871 0 
-0.847481 -0.306888 0 
-0.795641 -0.305781 0 
-0.743684 -0.304815 0 
-0.691387 -0.303722 0 
-0.639219 -0.302427 0 
-0.586897 -0.300977 0 
-0.534146 -0.301574 0 
-0.48291 -0.299695 0 
-0.432968 -0.295416 0 
-0.381507 -0.30136 0 
-0.336232 -0.29839 0 
-0.288184 -0.288184 0 
-0.242975 -0.290577 0 
-0.198059 -0.315051 0 
-0.148383 -0.285894 0 
-0.0994753 -0.313232 0 
-0.0507184 -0.283118 0 
-0.000202902 -0.313447 0 
0.0500077 -0.282824 0 
0.0988289 -0.312817 0 
0.148102 -0.28482 0 
0.195742 -0.317413 0 
0.240766 -0.295824 0 
0.285014 -0.285014 0 
0.332889 -0.295348 0 
0.379789 -0.301746 0 
0.432268 -0.296569 0 
0.483005 -0.299839 0 
0.534348 -0.301273 0 
0.587085 -0.30086 0 
0.639359 -0.302407 0 
0.691518 -0.303753 0 
0.743741 -0.304862 0 
0.795701 -0.305831 0 
0.847482 -0.306946 0 
0.898924 -0.308979 0 
0.952687 -0.303953 0 
-0.96803 -0.250833 0 
-0.916037 -0.258282 0 
-0.866979 -0.254732 0 
-0.816639 -0.25358 0 
-0.765535 -0.252907 0 
-0.71362 -0.252254 0 
-0.661417 -0.251503 0 
-0.608767 -0.250543 0 
-0.555692 -0.250874 0 
-0.503 -0.250032 0 
-0.450633 -0.247004 0 
-0.395692 -0.25021 0 
-0.342529 -0.249846 0 
-0.290577 -0.242975 0 
-0.239946 -0.239946 0 
-0.194478 -0.26004 0 
-0.151293 -0.23238 0 
-0.101048 -0.260904 0 
-0.0503938 -0.232537 0 
-0.000203281 -0.262984 0 
0.050638 -0.232316 0 
0.100942 -0.260855 0 
0.152412 -0.232597 0 
0.195768 -0.261421 0 
0.241873 -0.241873 0 
0.295824 -0.240766 0 
0.345582 -0.24763 0 
0.396905 -0.25086 0 
0.450921 -0.247983 0 
[...]
POINT_DATA 1245 
VECTORS vectors float
0.5654 -0.199249 0.800389 
0.557383 -0.17564 0.811465 
0.565574 -0.139248 0.812857 
0.56466 -0.136265 0.813997 
0.563626 -0.104916 0.81934 
0.560304 -0.0865281 0.823755 
0.552661 -0.0643173 0.830921 
0.530806 -0.0447248 0.846312 
0.50784 -0.00653265 0.861426 
0.494629 0.0444 0.867969 
0.485489 0.098312 0.868698 
0.465389 0.154016 0.871603 
0.478803 0.2117 0.852015 
0.540269 -0.245426 0.804908 
0.550797 -0.210958 0.807539 
0.442344 -0.161214 0.882237 
0.44419 -0.147635 0.883685 
0.456862 -0.133404 0.879477 
0.425289 -0.111178 0.898203 
0.453591 -0.0954769 0.886081 
0.416847 -0.0678058 0.906444 
0.435991 -0.046358 0.898756 
0.385964 -0.0160277 0.922375 
0.401427 0.011186 0.915823 
0.368485 0.0441564 0.928584 
0.387597 0.0918677 0.91724 
0.367959 0.132741 0.920319 
0.370735 0.168997 0.913233 
0.476138 0.234909 0.847414 
0.479391 0.282226 0.830983 
0.491246 -0.274524 0.826628 
0.530731 -0.263172 0.805646 
0.427891 -0.202931 0.880755 
0.437705 -0.178862 0.881149 
0.341637 -0.124549 0.931542 
0.344786 -0.118367 0.931188 
0.358359 -0.109866 0.927097 
0.313926 -0.085772 0.945565 
0.348914 -0.0760186 0.934066 
0.296866 -0.0486944 0.953677 
0.32726 -0.0333616 0.944345 
0.267499 -0.00998386 0.963506 
0.303701 0.0101941 0.952713 
0.270137 0.0279645 0.962416 
0.303142 0.0674504 0.950555 
0.288182 0.106216 0.951667 
0.2841 0.131887 0.949681 
0.373556 0.195472 0.906778 
0.382057 0.223764 0.89664 
0.499195 0.307676 0.810025 
0.492203 0.32249 0.80854 
0.47607 -0.321533 0.818519 
0.387188 -0.238978 0.890492 
0.407621 -0.218965 0.88651 
0.324208 -0.163047 0.931829 
0.336619 -0.142893 0.930736 
0.255381 -0.099413 0.961716 
0.26229 -0.0910082 0.960688 
0.277188 -0.0894081 0.956647 
0.233348 -0.062591 0.970377 
0.258939 -0.0550288 0.964325 
0.211184 -0.0367887 0.976754 
0.230438 -0.0279486 0.972686 
0.187335 -0.0143942 0.982191 
0.219961 0.00284518 0.975504 
0.199734 0.0243363 0.979548 
0.236791 0.0571384 0.969879 
0.221398 0.0864185 0.971347 
0.216544 0.10542 0.970565 
0.285785 0.155828 0.945539 
0.289101 0.178346 0.940539 
0.388626 0.247249 0.887603 
0.38347 0.275452 0.88152 
0.478322 0.363727 0.799319 
0.43041 -0.3686 0.823942 
0.450609 -0.333009 0.828285 
0.372217 -0.261249 0.89062 
0.297104 -0.197534 0.934189 
0.307949 -0.179909 0.934238 
0.238413 -0.127694 0.962732 
0.249181 -0.111097 0.962064 
0.186568 -0.0816317 0.979045 
0.195558 -0.0779464 0.97759 
0.209499 -0.0706935 0.97525 
0.169814 -0.0493195 0.984241 
0.189272 -0.040529 0.981088 
0.152626 -0.0278387 0.987892 
0.166884 -0.0236316 0.985693 
0.140889 -0.0126023 0.989945 
0.163283 0.00115594 0.986579 
0.148714 0.0256874 0.988547 
0.181289 0.0542851 0.98193 
0.171898 0.0719744 0.982482 
0.160331 0.0828563 0.98358 
0.210036 0.125791 0.969568 
0.214263 0.145411 0.965892 
0.291713 0.201377 0.935067 
0.288199 0.224789 0.930812 
0.372532 0.29699 0.879214 
0.46688 0.363675 0.806079 
0.423977 0.386206 0.8192 
0.42776 -0.395446 0.8128 
0.348351 -0.313318 0.88345 
0.353621 -0.28121 0.892117 
0.285262 -0.215432 0.933924 
0.226303 -0.16183 0.96052 
0.232165 -0.143883 0.961976 
0.182889 -0.100673 0.977965 
0.18449 -0.0905111 0.978658 
0.137962 -0.0722376 0.9878 
0.142119 -0.0644031 0.987752 
0.153829 -0.0585358 0.986362 
0.119612 -0.0366516 0.992144 
0.134252 -0.0329702 0.990399 
0.108198 -0.0222327 0.993881 
0.124313 -0.0175306 0.992088 
0.10158 -0.00864128 0.99479 
0.121409 0.00176834 0.992601 
0.105914 0.0188976 0.994196 
0.135848 0.0457193 0.989674 
0.127793 0.0552451 0.990261 
0.123573 0.066461 0.990107 
0.159639 0.104634 0.981615 
0.168186 0.116434 0.978855 
0.21996 0.161101 0.962114 
0.214389 0.179266 0.960157 
0.277754 0.238979 0.930453 
0.354952 0.305872 0.883432 
0.345908 0.327561 0.879234 
0.408717 0.419158 0.810714 
0.404415 -0.404478 0.820272 
0.334175 -0.33224 0.882011 
0.268409 -0.266685 0.925654 
0.267245 -0.235923 0.934302 
0.213034 -0.18 0.960321 
0.171106 -0.130529 0.976568 
0.178868 -0.114541 0.977183 
0.143234 -0.0816437 0.986316 
0.13976 -0.0761059 0.987256 
0.0989821 -0.0611417 0.993209 
0.103405 -0.0514923 0.993306 
0.111088 -0.0427674 0.99289 
0.0845515 -0.0257651 0.996086 
0.0937632 -0.0262674 0.995248 
0.0756866 -0.0164089 0.996997 
0.0876889 -0.0112888 0.996084 
0.068405 -0.00383464 0.99765 
0.0834925 -0.000618234 0.996508 
0.0723337 0.00990872 0.997331 
0.0981794 0.0322256 0.994647 
0.0911353 0.0402809 0.995024 
0.0872208 0.0480364 0.99503 
0.123992 0.0817381 0.988911 
0.136171 0.0900361 0.986585 
0.171551 0.12652 0.977017 
0.160338 0.144345 0.976451 
0.203557 0.194488 0.959551 
0.267057 0.246205 0.931699 
0.275994 0.270698 0.922253 
0.32787 0.350266 0.877391 
0.380295 0.439721 0.813647 
0.378935 -0.432253 0.81827 
0.304935 -0.338779 0.890081 
0.237882 -0.263985 0.934732 
0.202397 -0.199582 0.958751 
0.166607 -0.144743 0.975342 
0.134543 -0.102262 0.985617 
0.139515 -0.0891689 0.986197 
0.107082 -0.0636349 0.992212 
0.104924 -0.0664565 0.992257 
0.0705199 -0.0513763 0.996186 
0.0748724 -0.0380806 0.996466 
0.0803544 -0.0277309 0.996381 
0.0592262 -0.0185446 0.998072 
0.0642257 -0.0200632 0.997734 
0.0512614 -0.0105231 0.99863 
0.0614518 -0.00341818 0.998104 
0.0506442 0.00364605 0.99871 
0.0567324 0.0011812 0.998389 
0.0481987 0.00982844 0.998789 
0.0643487 0.0219686 0.997686 
0.0572529 0.0276822 0.997976 
0.062028 0.0308977 0.997596 
0.0969739 0.0605526 0.993443 
0.102922 0.0698427 0.992234 
0.132501 0.102266 0.985893 
0.124115 0.12131 0.984825 
0.15447 0.162499 0.974543 
0.204116 0.210847 0.955971 
0.250183 0.277487 0.927582 
0.300591 0.369018 0.879472 
0.35416 0.481159 0.801908 
0.347306 -0.431946 0.832347 
0.280244 -0.346596 0.895173 
0.21751 -0.267912 0.938569 
0.178346 -0.199909 0.963446 
0.155979 -0.15196 0.976001 
0.13115 -0.110062 0.985234 
0.102713 -0.0772304 0.991708 
0.101898 -0.0663316 0.992581 
0.071701 -0.0444754 0.996434 
0.0711705 -0.0506217 0.996179 
0.050426 -0.0360203 0.998078 
0.0554462 -0.0279077 0.998072 
0.0593901 -0.0201352 0.998032 
0.0369987 -0.0144705 0.999211 
0.0396419 -0.0158276 0.999089 
0.0303736 -0.00990495 0.99949 
0.0447397 -0.000446761 0.998999 
0.0365926 0.00215446 0.999328 
0.0420217 0.00664979 0.999095 
0.0314819 0.0101787 0.999452 
0.0387451 0.0161684 0.999118 
0.0365854 0.0142488 0.999229 
0.0475233 0.0161975 0.998739 
0.0712876 0.0403169 0.996641 
0.0770284 0.0533856 0.995599 
0.101049 0.0828918 0.991422 
0.101675 0.0937577 0.99039 
0.122919 0.12866 0.984041 
0.155862 0.171895 0.972707 
0.19456 0.222179 0.955397 
0.235974 0.298961 0.924629 
0.285821 0.392124 0.874382 
0.3533 0.499211 0.791181 
0.300605 -0.445096 0.843521 
0.249567 -0.349588 0.903053 
0.195273 -0.266757 0.943774 
0.15582 -0.198179 0.967701 
0.133772 -0.149174 0.97972 
0.120514 -0.114087 0.986134 
0.0983689 -0.0886901 0.99119 
0.0678694 -0.0634767 0.995673 
0.0688947 -0.0467341 0.996529 
0.0452171 -0.0286787 0.998565 
0.0500364 -0.0320903 0.998232 
0.0398181 -0.0210758 0.998985 
0.0412465 -0.01927 0.998963 
0.0414135 -0.0150309 0.999029 
0.0213364 -0.0131767 0.999686 
0.0206035 -0.0134031 0.999698 
0.0187457 -0.0148484 0.999714 
0.0278426 -0.00781223 0.999582 
0.0196231 -0.00799546 0.999775 
0.0281567 0.00448531 0.999593 
0.0220608 0.00507899 0.999744 
0.0249944 0.00925388 0.999645 
0.0263031 0.0062703 0.999634 
0.036035 0.013452 0.99926 
0.0575187 0.0301341 0.99789 
0.0551319 0.0421885 0.997587 
0.0769633 0.0634512 0.995013 
0.0807806 0.0679962 0.99441 
0.0993633 0.0955108 0.990457 
0.119569 0.127915 0.984551 
0.148363 0.172479 0.973776 
0.183434 0.231916 0.955284 
0.219233 0.307588 0.925919 
0.267667 0.399825 0.876638 
0.324812 0.503356 0.800706 
0.259969 -0.463388 0.847164 
0.218015 -0.359475 0.90733 
0.173286 -0.27205 0.946552 
0.135505 -0.200669 0.970242 
0.113961 -0.147581 0.982463 
0.101101 -0.115123 0.988193 
0.0831018 -0.0932899 0.992165 
0.0615728 -0.0700387 0.995642 
0.0433185 -0.0439881 0.998092 
0.0329536 -0.0243497 0.99916 
0.0369419 -0.0196071 0.999125 
0.031263 -0.0135813 0.999419 
0.0276864 -0.010027 0.999566 
0.0258458 -0.0117844 0.999596 
0.0169463 -0.0125156 0.999778 
0.0159758 -0.0146268 0.999765 
0.0191679 -0.014662 0.999709 
0.0158869 -0.0161268 0.999744 
0.0102977 -0.0148893 0.999836 
0.0163938 -0.0043322 0.999856 
0.0198882 0.00329022 0.999797 
0.0191731 0.00569287 0.9998 
0.016758 0.00787399 0.999829 
0.0162016 0.0155963 0.999747 
0.0377259 0.0270504 0.998922 
0.0359766 0.0346523 0.998752 
0.0534462 0.0455688 0.99753 
0.0682641 0.0691978 0.995265 
0.0813281 0.0977963 0.991878 
0.101267 0.129156 0.98644 
0.134204 0.172439 0.975835 
0.166965 0.23322 0.957983 
0.19849 0.307477 0.930623 
0.24694 0.399512 0.882842 
0.311684 0.510655 0.801302 
0.218956 -0.474733 0.852459 
0.187496 -0.369321 0.910191 
0.15048 -0.283867 0.946982 
0.118735 -0.211239 0.970196 
0.102705 -0.155592 0.982468 
0.0900328 -0.11694 0.98905 
0.0756178 -0.0892351 0.993136 
0.0538734 -0.0718234 0.995961 
0.0364885 -0.0555625 0.997788 
0.0279499 -0.0366599 0.998937 
0.0241484 -0.0220111 0.999466 
0.0306842 -0.0158207 0.999404 
0.0251367 -0.00973525 0.999637 
0.0193018 -0.00838238 0.999779 
0.0155999 -0.00911568 0.999837 
0.0136245 -0.0092632 0.999864 
0.0202209 -0.0118039 0.999726 
0.0201201 -0.00519818 0.999784 
0.014751 -0.0145079 0.999786 
0.0103923 -0.0143276 0.999843 
0.0132982 -0.00631021 0.999892 
0.0218144 0.00344939 0.999756 
0.0194625 0.00878445 0.999772 
0.0125905 0.0103497 0.999867 
0.00804469 0.0109885 0.999907 
0.0175187 0.0253995 0.999524 
0.0185384 0.024007 0.99954 
0.0327052 0.03183 0.998958 
0.0460622 0.0480632 0.997782 
0.0543134 0.0755616 0.995661 
0.0648307 0.10084 0.992788 
0.0890147 0.131576 0.987301 
0.122342 0.175988 0.97676 
0.149072 0.233392 0.960888 
0.180305 0.303166 0.935724 
0.231463 0.392026 0.89036 
0.294621 0.494794 0.817544 
0.172442 -0.509269 0.843154 
0.15383 -0.385682 0.909717 
0.123005 -0.292987 0.948171 
0.0984221 -0.223602 0.969699 
0.0847245 -0.164907 0.982663 
0.0819779 -0.11543 0.989927 
0.0674547 -0.0824227 0.994312 
0.048542 -0.0623449 0.996874 
0.0334363 -0.0490312 0.998237 
0.0227655 -0.0365122 0.999074 
0.0207798 -0.0182245 0.999618 
0.0238424 -0.0120282 0.999643 
0.0239645 -0.013298 0.999624 
0.0140827 -0.0104364 0.999846 
0.0100257 -0.00833891 0.999915 
0.00966001 -0.00164414 0.999952 
0.0173909 -0.00051185 0.999849 
0.0135809 0.00587714 0.999891 
0.0139398 -0.00868442 0.999865 
0.00907543 -0.0115111 0.999893 
0.0125925 -0.00629518 0.999901 
0.0174758 0.00330356 0.999842 
0.0235068 0.0118412 0.999654 
0.0204446 0.00373361 0.999784 
0.0136609 0.00154854 0.999905 
0.0127378 0.0120849 0.999846 
0.0210164 0.02007 0.999578 
0.0292701 0.0295325 0.999135 
0.0400585 0.0466656 0.998107 
0.0501761 0.0673944 0.996464 
0.0605934 0.0937435 0.993751 
0.0813336 0.129968 0.988177 
0.107144 0.181391 0.977557 
0.132478 0.234852 0.962961 
0.16205 0.299447 0.940251 
0.206789 0.389691 0.897429 
0.245009 0.510923 0.823971 
0.138191 -0.530629 0.836263 
0.121564 -0.402591 0.907272 
0.10223 -0.304996 0.946851 
0.0774735 -0.232307 0.969552 
0.0669547 -0.170476 0.983084 
0.0600685 -0.116232 0.991404 
0.0506015 -0.0756418 0.99585 
0.0349652 -0.0526648 0.998 
0.0218679 -0.0423789 0.998862 
0.0176228 -0.0284294 0.99944 
0.0140459 -0.0124815 0.999823 
0.0175696 -0.00706655 0.999821 
0.017813 -0.0078725 0.99981 
0.0167285 -0.0162282 0.999728 
0.0101598 -0.0193492 0.999761 
0.00703065 -0.0100525 0.999925 
0.00793946 0.00443094 0.999959 
0.0115248 0.0116902 0.999865 
0.0081635 0.00902434 0.999926 
0.00863994 -0.00520365 0.999949 
0.00311414 -0.00898113 0.999955 
0.00642772 -0.00660526 0.999958 
0.00651856 -0.00314018 0.999974 
0.0230256 0.00377032 0.999728 
0.0233732 -0.00165412 0.999725 
0.017417 -0.00810868 0.999815 
0.0134556 -0.00217629 0.999907 
0.0151563 0.00761723 0.999856 
0.0179909 0.0194839 0.999648 
0.0255434 0.0283783 0.999271 
0.0379379 0.0398043 0.998487 
0.0481234 0.0573511 0.997194 
0.0574203 0.0870799 0.994545 
0.0722099 0.130838 0.988771 
0.0968443 0.181265 0.978654 
0.118592 0.235613 0.964584 
0.145078 0.298125 0.943437 
0.177676 0.394114 0.901723 
0.218023 0.519585 0.826134 
0.107111 -0.546265 0.830735 
0.100114 -0.41757 0.903113 
0.0825364 -0.316027 0.945153 
0.069969 -0.239673 0.968329 
0.0551669 -0.181196 0.981899 
0.044229 -0.126794 0.990943 
0.0342073 -0.0833132 0.995936 
0.0230691 -0.0555344 0.99819 
0.017327 -0.0387779 0.999098 
0.0132675 -0.0248457 0.999603 
0.0142299 -0.0110672 0.999837 
0.0143921 -0.00263661 0.999893 
0.0169927 -0.00780202 0.999825 
0.011748 -0.0144134 0.999827 
0.00459917 -0.015417 0.999871 
0.00439882 -0.0106753 0.999933 
0.00657044 -0.00068619 0.999978 
0.0113972 0.0127586 0.999854 
0.0070663 0.00119398 0.999974 
0.00396054 -0.00387829 0.999985 
-0.0013075 -0.00115089 0.999998 
-0.00151114 -0.000966352 0.999998 
0.00308876 -0.00878664 0.999957 
0.013566 -0.00585124 0.999891 
0.0131147 -0.00993453 0.999865 
0.00473723 -0.00814124 0.999956 
0.00731874 -0.00472219 0.999962 
0.0149638 0.00775591 0.999858 
0.0184134 0.0204906 0.99962 
0.021685 0.0269475 0.999402 
0.032552 0.0390688 0.998706 
0.0422842 0.0616389 0.997202 
0.0506624 0.0899829 0.994654 
0.0681545 0.129247 0.989268 
0.0880206 0.179566 0.9798 
0.105453 0.236023 0.966009 
0.119202 0.307622 0.944013 
0.15068 0.399534 0.90425 
0.179886 0.51819 0.836134 
0.0877757 -0.570536 0.816568 
0.0774321 -0.447736 0.890807 
0.0657014 -0.335935 0.939591 
0.0546382 -0.254926 0.965416 
0.0449274 -0.192609 0.980247 
0.0346969 -0.145046 0.988816 
0.0253665 -0.103642 0.994291 
0.0220587 -0.0688631 0.997382 
0.0195882 -0.0429508 0.998885 
0.0183065 -0.0262083 0.999489 
0.0165051 -0.0140229 0.999765 
0.0148953 -0.00839053 0.999854 
0.0136843 -0.00613628 0.999888 
0.0114096 -0.00392255 0.999927 
0.00487196 -0.00275093 0.999984 
0.00108359 -0.00742055 0.999972 
0.00691211 -0.00895686 0.999936 
0.00958067 -0.00162412 0.999953 
0.00359229 -0.0162739 0.999861 
5.3e-05 -0.00925717 0.999957 
-0.00192569 -0.00445127 0.999988 
-0.00176938 -3.65344e-05 0.999998 
0.00380054 -0.0102917 0.99994 
0.00777198 -0.0135361 0.999878 
0.00015247 -0.00838513 0.999965 
-0.00211493 -0.00964814 0.999951 
0.0119604 -0.00667106 0.999906 
0.0232454 0.00801683 0.999698 
0.0192996 0.0174347 0.999662 
0.018011 0.0227431 0.999579 
0.0255601 0.0412892 0.99882 
0.0357897 0.0674251 0.997082 
0.0470977 0.0929237 0.994559 
0.06089 0.127027 0.990029 
0.0723911 0.183808 0.980293 
0.0806656 0.253397 0.963993 
0.0976379 0.326827 0.940027 
0.12405 0.422537 0.897817 
0.145255 0.526588 0.837619 
0.0774958 -0.575233 0.81431 
0.0588144 -0.420732 0.905276 
0.0424911 -0.299983 0.952998 
0.0377273 -0.217023 0.975437 
0.0293278 -0.162579 0.98626 
0.0216913 -0.120508 0.992475 
0.0190512 -0.0820234 0.996448 
0.0200112 -0.0489689 0.9986 
0.0194531 -0.0290618 0.999388 
0.0172464 -0.0201093 0.999649 
0.011907 -0.0149035 0.999818 
0.00672625 -0.00957873 0.999932 
0.0058183 -0.00270225 0.999979 
0.00563019 0.00555887 0.999969 
0.00383647 0.00408295 0.999984 
0.00568384 -0.00581697 0.999967 
0.00986864 -0.0153615 0.999833 
0.0102233 -0.0174958 0.999795 
0.0053401 -0.0163116 0.999853 
-0.00075443 -0.0155362 0.999879 
0.0035385 -0.00746087 0.999966 
0.00113407 -0.000447241 0.999999 
0.00319036 -0.00891478 0.999955 
0.00442837 -0.0118188 0.99992 
-0.000183845 -0.00630324 0.99998 
-0.00533553 -0.00341302 0.99998 
0.0024391 -0.00938255 0.999953 
0.0183682 -0.00405052 0.999823 
0.0207163 0.0121401 0.999712 
0.0115188 0.0132171 0.999846 
0.00929454 0.0160725 0.999828 
0.0182383 0.0423514 0.998936 
0.0279473 0.0706786 0.997108 
0.0362097 0.0958094 0.994741 
0.042395 0.139408 0.989327 
0.0495652 0.205561 0.977388 
0.0634669 0.28737 0.955715 
0.0935855 0.387032 0.917305 
0.125484 0.526345 0.84096 
0.0540411 -0.578422 0.813946 
0.0452463 -0.457557 0.888029 
0.0406054 -0.346265 0.937258 
0.0348383 -0.252311 0.967019 
0.0304348 -0.182497 0.982735 
0.0216761 -0.133288 0.99084 
0.0131352 -0.0924609 0.99563 
0.010222 -0.0542678 0.998474 
0.0104107 -0.0331534 0.999396 
0.0129627 -0.028232 0.999517 
0.011812 -0.0216957 0.999695 
0.00422957 -0.0115536 0.999924 
0.000874533 -0.00439756 0.99999 
0.00521687 0.0018404 0.999985 
0.00845647 0.00718709 0.999938 
0.00864889 0.0021893 0.99996 
0.0145855 -0.00833305 0.999859 
0.0133816 -0.0103875 0.999857 
0.0103037 -0.00527848 0.999933 
0.00668011 -0.0154732 0.999858 
0.0149217 -0.00754538 0.99986 
0.00627832 -0.00580727 0.999963 
0.00196914 -0.00702525 0.999973 
0.000695415 -0.00306524 0.999995 
-0.00168164 0.0043041 0.999989 
-0.000135664 0.00135246 0.999999 
0.00363128 -0.00158677 0.999992 
0.00542537 0.00958474 0.999939 
0.00093797 0.0157511 0.999876 
-0.00200524 0.0113599 0.999933 
0.00105419 0.0217956 0.999762 
0.00846314 0.0518038 0.998621 
0.0181587 0.0793035 0.996685 
0.0237898 0.109266 0.993728 
0.0271045 0.160576 0.986651 
0.037315 0.225767 0.973466 
0.0552656 0.301896 0.951738 
0.0732594 0.401964 0.91272 
0.0839589 0.501592 0.861021 
0.0366712 -0.579433 0.814195 
0.0318263 -0.423262 0.905448 
0.0249241 -0.304505 0.952185 
0.026933 -0.2146 0.976331 
0.0200623 -0.149855 0.988504 
0.00914786 -0.106513 0.994269 
0.000784668 -0.0651806 0.997873 
0.00073889 -0.0352595 0.999378 
0.00847372 -0.0289498 0.999545 
0.013696 -0.0265639 0.999553 
0.00850815 -0.0120298 0.999891 
0.00342275 -0.00314556 0.999989 
0.00680381 -0.0024732 0.999974 
0.00871043 0.00467479 0.999951 
0.00776874 0.00702962 0.999945 
0.00798998 0.00181446 0.999966 
0.0111684 -0.00228938 0.999935 
0.00919433 0.00251894 0.999955 
0.00817426 -0.000315124 0.999967 
0.0155636 -0.00423585 0.99987 
0.0183855 -0.00621449 0.999812 
0.0147369 -0.00483019 0.99988 
0.00797451 -0.00829711 0.999934 
0.00413541 -0.011931 0.99992 
0.00512126 -0.00374077 0.99998 
0.00598835 0.00470372 0.999971 
0.00644594 0.00360589 0.999973 
0.00340441 0.00136464 0.999993 
-0.000306124 0.00861788 0.999963 
-0.000691564 0.01259 0.999921 
-0.00098623 0.0185838 0.999827 
0.000803138 0.0378956 0.999281 
0.00656329 0.0615747 0.998081 
0.0128029 0.0881353 0.996026 
0.015119 0.129374 0.991481 
0.0183857 0.186234 0.982333 
0.0265842 0.259396 0.965405 
0.0430151 0.357378 0.932969 
0.0529382 0.497394 0.865908 
0.0322925 -0.568075 0.822343 
0.0141101 -0.450117 0.892858 
0.00968433 -0.346184 0.938117 
0.00705567 -0.252356 0.967609 
0.00758947 -0.172802 0.984927 
0.0038152 -0.122142 0.992505 
-0.00403366 -0.0864193 0.996251 
-0.00480735 -0.0479273 0.998839 
0.00376454 -0.0243617 0.999696 
0.0126188 -0.0199169 0.999722 
0.0108791 -0.0123379 0.999865 
0.00355593 -0.00411491 0.999985 
0.00492426 -0.00869084 0.99995 
0.0104048 -0.0086172 0.999909 
0.00642301 0.00461377 0.999969 
2.98884e-06 0.00823007 0.999966 
0.000141775 -0.00110599 0.999999 
0.00104009 -0.00189587 0.999998 
-0.0022977 -0.00185369 0.999996 
0.00592291 -0.00527355 0.999969 
0.0138915 -0.00511321 0.99989 
0.00820127 -0.00905721 0.999925 
0.00661906 -0.0185813 0.999805 
0.00633898 -0.0194028 0.999792 
0.0093574 -0.0066308 0.999934 
0.0121759 -0.00158189 0.999925 
0.0110773 -0.00684517 0.999915 
0.00962641 -0.0105073 0.999898 
0.00649213 -0.00265376 0.999975 
0.00432038 0.0130172 0.999906 
0.00317748 0.0294332 0.999562 
0.00290091 0.047341 0.998875 
0.0046853 0.0681526 0.997664 
0.00346339 0.1015 0.994829 
0.000436284 0.155974 0.987761 
0.00144816 0.220376 0.975414 
0.00610723 0.29461 0.955598 
0.00833366 0.387527 0.921821 
0.0167893 0.491897 0.870491 
-0.00406027 -0.552303 0.833634 
-0.00885909 -0.409724 0.912167 
-0.0150229 -0.304209 0.952487 
-0.0105619 -0.210623 0.97751 
-0.00590525 -0.139879 0.990151 
-0.00525583 -0.102648 0.994704 
-0.00688126 -0.0709726 0.997455 
-0.00237222 -0.0354379 0.999369 
0.00557125 -0.0157002 0.999861 
0.0043465 -0.00665383 0.999968 
-0.00530366 -0.00212909 0.999984 
-0.00399622 -0.0128328 0.99991 
0.00586985 -0.0218229 0.999745 
0.00917856 -0.00812109 0.999925 
0.0042874 0.00470303 0.99998 
0.000455098 4.97204e-05 1 
5.70885e-05 -0.00867796 0.999962 
-0.00141036 -0.0057981 0.999982 
-0.0034734 -0.00470439 0.999983 
-0.00130066 -0.00680047 0.999976 
0.00174267 -0.00643275 0.999978 
0.000508456 -0.00609952 0.999981 