# vtk DataFile Version 3.0 
Exported using Morpho https://github.com/Morpho-lang/morpho 
ASCII 
DATASET UNSTRUCTURED_GRID 

POINTS 1245 float 
-0.303845 -0.952721 0 
-0.250833 -0.96803 0 
-0.195084 -0.980787 0 
-0.146308 -0.989239 0 
-0.0940719 -0.995565 0 
-0.0475118 -0.998871 0 
-0.000246339 -1 0 
0.0470875 -0.998891 0 
0.0937543 -0.995595 0 
0.146139 -0.989264 0 
0.195062 -0.980791 0 
0.250843 -0.968028 0 
0.303953 -0.952687 0 
-0.409153 -0.912466 0 
-0.356519 -0.934288 0 
-0.308871 -0.898929 0 
-0.258282 -0.916037 0 
-0.207345 -0.934859 0 
-0.154868 -0.930629 0 
-0.104343 -0.948989 0 
-0.0520099 -0.939193 0 
-8.5762e-05 -0.954582 0 
0.0518744 -0.939288 0 
0.104354 -0.949042 0 
0.154696 -0.9306 0 
0.207366 -0.934975 0 
0.258274 -0.916081 0 
0.308979 -0.898924 0 
0.356593 -0.93426 0 
0.409236 -0.912429 0 
-0.513788 -0.857917 0 
-0.461695 -0.887039 0 
-0.411157 -0.857936 0 
-0.359855 -0.879963 0 
-0.306888 -0.847481 0 
-0.254732 -0.866979 0 
-0.201991 -0.889059 0 
-0.149956 -0.874108 0 
-0.100608 -0.900088 0 
-0.0497575 -0.880388 0 
2.4595e-05 -0.904789 0 
0.0496869 -0.8804 0 
0.100612 -0.900177 0 
0.149872 -0.874171 0 
0.202071 -0.889165 0 
0.254695 -0.867031 0 
0.306946 -0.847482 0 
0.359894 -0.879943 0 
0.411236 -0.857929 0 
0.461748 -0.887011 0 
0.513842 -0.857885 0 
-0.564741 -0.825268 0 
-0.512908 -0.802945 0 
-0.462372 -0.832348 0 
-0.410124 -0.804631 0 
-0.358606 -0.827415 0 
-0.305781 -0.795641 0 
-0.25358 -0.816639 0 
-0.200756 -0.839997 0 
-0.149043 -0.818944 0 
-0.0987265 -0.846667 0 
-0.0490473 -0.822548 0 
5.00659e-05 -0.849932 0 
0.0490834 -0.822542 0 
0.0987838 -0.846676 0 
0.148997 -0.818924 0 
0.200826 -0.840131 0 
0.253508 -0.816728 0 
0.305831 -0.795701 0 
0.358581 -0.827419 0 
0.410181 -0.804654 0 
0.462414 -0.83234 0 
0.512965 -0.802929 0 
0.564777 -0.825243 0 
-0.660798 -0.750564 0 
-0.614015 -0.789295 0 
-0.561786 -0.769772 0 
-0.510673 -0.747856 0 
-0.460836 -0.778365 0 
-0.408794 -0.751554 0 
-0.357337 -0.774971 0 
-0.304815 -0.743684 0 
-0.252907 -0.765535 0 
-0.200631 -0.789263 0 
-0.149244 -0.764328 0 
-0.0986912 -0.791935 0 
-0.0492815 -0.765764 0 
4.16586e-05 -0.79382 0 
0.0492411 -0.765708 0 
0.0987508 -0.791951 0 
0.149196 -0.764326 0 
0.200666 -0.789356 0 
0.252841 -0.765599 0 
0.304862 -0.743741 0 
0.357323 -0.775038 0 
0.408863 -0.751626 0 
0.460863 -0.778382 0 
0.510716 -0.747859 0 
0.561819 -0.769761 0 
0.614041 -0.789274 0 
0.660811 -0.750552 0 
-0.707107 -0.707107 0 
-0.654819 -0.699058 0 
-0.60813 -0.73348 0 
-0.558104 -0.71337 0 
-0.509495 -0.692659 0 
-0.45935 -0.724356 0 
-0.407328 -0.698865 0 
-0.355968 -0.722823 0 
-0.303722 -0.691387 0 
-0.252254 -0.71362 0 
-0.20067 -0.737336 0 
-0.149608 -0.710068 0 
-0.0991558 -0.737129 0 
-0.0495872 -0.709825 0 
-2.23646e-05 -0.737917 0 
0.0494408 -0.709766 0 
0.0991291 -0.737116 0 
0.149502 -0.710042 0 
0.200696 -0.73743 0 
0.252186 -0.713735 0 
0.303753 -0.691518 0 
0.355952 -0.722893 0 
0.407371 -0.698945 0 
0.459374 -0.724407 0 
0.509524 -0.692668 0 
0.558131 -0.713361 0 
0.608151 -0.733462 0 
0.654824 -0.699048 0 
0.707107 -0.707107 0 
-0.750564 -0.660798 0 
-0.699058 -0.654819 0 
-0.647692 -0.647692 0 
-0.603437 -0.675718 0 
-0.55905 -0.655305 0 
-0.508501 -0.639581 0 
-0.457509 -0.671321 0 
-0.405555 -0.646545 0 
-0.354417 -0.670703 0 
-0.302427 -0.639219 0 
-0.251503 -0.661417 0 
-0.20061 -0.684911 0 
-0.149717 -0.655943 0 
-0.0995004 -0.682466 0 
-0.0498216 -0.654561 0 
-5.02113e-05 -0.682664 0 
0.0496787 -0.654499 0 
0.0994374 -0.682501 0 
0.149603 -0.655909 0 
0.200573 -0.684972 0 
0.251388 -0.661524 0 
0.302407 -0.639359 0 
0.354397 -0.670836 0 
0.405575 -0.646641 0 
0.457525 -0.67138 0 
0.508497 -0.639623 0 
0.559063 -0.655324 0 
0.603436 -0.675715 0 
0.64769 -0.64769 0 
0.699048 -0.654824 0 
0.750552 -0.660811 0 
-0.789295 -0.614015 0 
-0.73348 -0.60813 0 
-0.675718 -0.603437 0 
-0.613088 -0.613088 0 
-0.55962 -0.604068 0 
-0.506189 -0.588854 0 
-0.455505 -0.618874 0 
-0.403019 -0.594688 0 
-0.352514 -0.618952 0 
-0.300977 -0.586897 0 
-0.250543 -0.608767 0 
-0.200257 -0.632053 0 
-0.150049 -0.601979 0 
-0.0998281 -0.628222 0 
-0.0500377 -0.599914 0 
-3.12334e-05 -0.628076 0 
0.0498927 -0.599835 0 
0.0997818 -0.628253 0 
0.149924 -0.601867 0 
0.200214 -0.632118 0 
0.250423 -0.608915 0 
0.30086 -0.587085 0 
0.352457 -0.619096 0 
0.402948 -0.594743 0 
0.455483 -0.618952 0 
0.506147 -0.588901 0 
0.55964 -0.604067 0 
0.613069 -0.613069 0 
0.675715 -0.603436 0 
0.733462 -0.608151 0 
0.789274 -0.614041 0 
-0.825268 -0.564741 0 
-0.769772 -0.561786 0 
-0.71337 -0.558104 0 
-0.655305 -0.55905 0 
-0.604068 -0.55962 0 
-0.551031 -0.551031 0 
-0.497922 -0.537596 0 
-0.451508 -0.567021 0 
-0.399773 -0.542431 0 
-0.350494 -0.567003 0 
-0.301574 -0.534146 0 
-0.250874 -0.555692 0 
-0.200542 -0.579013 0 
-0.150324 -0.548268 0 
-0.100169 -0.57443 0 
-0.0500152 -0.545912 0 
-3.29278e-05 -0.574268 0 
0.0499208 -0.545788 0 
0.100058 -0.574485 0 
0.150038 -0.548073 0 
0.200377 -0.579041 0 
0.250556 -0.55585 0 
0.301273 -0.534348 0 
0.350318 -0.567174 0 
0.399615 -0.542384 0 
0.451404 -0.5671 0 
0.497945 -0.537702 0 
0.551073 -0.551073 0 
0.604067 -0.55964 0 
0.655324 -0.559063 0 
0.713361 -0.558131 0 
0.769761 -0.561819 0 
0.825243 -0.564777 0 
-0.857917 -0.513788 0 
-0.802945 -0.512908 0 
-0.747856 -0.510673 0 
-0.692659 -0.509495 0 
-0.639581 -0.508501 0 
-0.588854 -0.506189 0 
-0.537596 -0.497922 0 
-0.486157 -0.486157 0 
-0.444928 -0.512952 0 
-0.401787 -0.486784 0 
-0.351685 -0.513639 0 
-0.299695 -0.48291 0 
-0.250032 -0.503 0 
-0.200501 -0.526165 0 
-0.149489 -0.495195 0 
-0.0999281 -0.521367 0 
-0.0499712 -0.492294 0 
4.64723e-05 -0.520999 0 
0.050147 -0.492108 0 
0.099934 -0.52133 0 
0.14957 -0.494692 0 
0.200133 -0.526255 0 
0.249839 -0.503309 0 
0.299839 -0.483005 0 
0.351514 -0.513798 0 
0.401881 -0.486608 0 
0.444935 -0.513054 0 
0.486228 -0.486228 0 
0.537702 -0.497945 0 
0.588901 -0.506147 0 
0.639623 -0.508497 0 
0.692668 -0.509524 0 
0.747859 -0.510716 0 
0.802929 -0.512965 0 
0.857885 -0.513842 0 
-0.887039 -0.461695 0 
-0.832348 -0.462372 0 
-0.778365 -0.460836 0 
-0.724356 -0.45935 0 
-0.671321 -0.457509 0 
-0.618874 -0.455505 0 
-0.567021 -0.451508 0 
-0.512952 -0.444928 0 
-0.450685 -0.450685 0 
-0.397667 -0.437543 0 
-0.348492 -0.462546 0 
-0.295416 -0.432968 0 
-0.247004 -0.450633 0 
-0.198702 -0.473818 0 
-0.150161 -0.441625 0 
-0.100085 -0.468395 0 
-0.0502271 -0.439281 0 
0.000144229 -0.468374 0 
0.0504178 -0.439106 0 
0.100428 -0.468348 0 
0.150697 -0.441105 0 
0.199103 -0.473881 0 
0.247983 -0.450921 0 
0.296569 -0.432268 0 
0.348831 -0.462562 0 
0.397506 -0.4368 0 
0.450637 -0.450637 0 
0.513054 -0.444935 0 
0.5671 -0.451404 0 
0.618952 -0.455483 0 
0.67138 -0.457525 0 
0.724407 -0.459374 0 
0.778382 -0.460863 0 
0.83234 -0.462414 0 
0.887011 -0.461748 0 
-0.912466 -0.409153 0 
-0.857936 -0.411157 0 
-0.804631 -0.410124 0 
-0.751554 -0.408794 0 
-0.698865 -0.407328 0 
-0.646545 -0.405555 0 
-0.594688 -0.403019 0 
-0.542431 -0.399773 0 
-0.486784 -0.401787 0 
-0.437543 -0.397667 0 
-0.387256 -0.387256 0 
-0.344215 -0.411459 0 
-0.30136 -0.381507 0 
-0.25021 -0.395692 0 
-0.200211 -0.419975 0 
-0.150955 -0.389014 0 
-0.100617 -0.416095 0 
-0.0503197 -0.386922 0 
-4.02994e-05 -0.416525 0 
0.05006 -0.386948 0 
0.100784 -0.416323 0 
0.150432 -0.388572 0 
0.200855 -0.420694 0 
0.25086 -0.396905 0 
0.301746 -0.379789 0 
0.344135 -0.410678 0 
0.385823 -0.385823 0 
0.4368 -0.397506 0 
0.486608 -0.401881 0 
0.542384 -0.399615 0 
0.594743 -0.402948 0 
0.646641 -0.405575 0 
0.698945 -0.407371 0 
0.751626 -0.408863 0 
0.804654 -0.410181 0 
0.857929 -0.411236 0 
0.912429 -0.409236 0 
-0.934288 -0.356519 0 
-0.879963 -0.359855 0 
-0.827415 -0.358606 0 
-0.774971 -0.357337 0 
-0.722823 -0.355968 0 
-0.670703 -0.354417 0 
-0.618952 -0.352514 0 
-0.567003 -0.350494 0 
-0.513639 -0.351685 0 
-0.462546 -0.348492 0 
-0.411459 -0.344215 0 
-0.351697 -0.351697 0 
-0.29839 -0.336232 0 
-0.249846 -0.342529 0 
-0.200971 -0.367271 0 
-0.149995 -0.337521 0 
-0.100435 -0.3646 0 
-0.0498692 -0.335025 0 
-6.88684e-05 -0.365025 0 
0.0495433 -0.334795 0 
0.0996798 -0.364834 0 
0.148162 -0.337172 0 
0.199644 -0.368939 0 
0.24763 -0.345582 0 
0.295348 -0.332889 0 
0.34978 -0.34978 0 
0.410678 -0.344135 0 
0.462562 -0.348831 0 
0.513798 -0.351514 0 
0.567174 -0.350318 0 
0.619096 -0.352457 0 
0.670836 -0.354397 0 
0.722893 -0.355952 0 
0.775038 -0.357323 0 
0.827419 -0.358581 0 
0.879943 -0.359894 0 
0.93426 -0.356593 0 
-0.952721 -0.303845 0 
-0.898929 -0.308871 0 
-0.847481 -0.306888 0 
-0.795641 -0.305781 0 
-0.743684 -0.304815 0 
-0.691387 -0.303722 0 
-0.639219 -0.302427 0 
-0.586897 -0.300977 0 
-0.534146 -0.301574 0 
-0.48291 -0.299695 0 
-0.432968 -0.295416 0 
-0.381507 -0.30136 0 
-0.336232 -0.29839 0 
-0.288184 -0.288184 0 
-0.242975 -0.290577 0 
-0.198059 -0.315051 0 
-0.148383 -0.285894 0 
-0.0994753 -0.313232 0 
-0.0507184 -0.283118 0 
-0.000202902 -0.313447 0 
0.0500077 -0.282824 0 
0.0988289 -0.312817 0 
0.148102 -0.28482 0 
0.195742 -0.317413 0 
0.240766 -0.295824 0 
0.285014 -0.285014 0 
0.332889 -0.295348 0 
0.379789 -0.301746 0 
0.432268 -0.296569 0 
0.483005 -0.299839 0 
0.534348 -0.301273 0 
0.587085 -0.30086 0 
0.639359 -0.302407 0 
0.691518 -0.303753 0 
0.743741 -0.304862 0 
0.795701 -0.305831 0 
0.847482 -0.306946 0 
0.898924 -0.308979 0 
0.952687 -0.303953 0 
-0.96803 -0.250833 0 
-0.916037 -0.258282 0 
-0.866979 -0.254732 0 
-0.816639 -0.25358 0 
-0.765535 -0.252907 0 
-0.71362 -0.252254 0 
-0.661417 -0.251503 0 
-0.608767 -0.250543 0 
-0.555692 -0.250874 0 
-0.503 -0.250032 0 
-0.450633 -0.247004 0 
-0.395692 -0.25021 0 
-0.342529 -0.249846 0 
-0.290577 -0.242975 0 
-0.239946 -0.239946 0 
-0.194478 -0.26004 0 
-0.151293 -0.23238 0 
-0.101048 -0.260904 0 
-0.0503938 -0.232537 0 
-0.000203281 -0.262984 0 
0.050638 -0.232316 0 
0.100942 -0.260855 0 
0.152412 -0.232597 0 
0.195768 -0.261421 0 
0.241873 -0.241873 0 
0.295824 -0.240766 0 
0.345582 -0.24763 0 
0.396905 -0.25086 0 
0.450921 -0.247983 0 
[...]
POINT_DATA 1245 
VECTORS vectors float
0.623393 -0.20227 0.755294 
0.632336 -0.17346 0.755025 
0.637135 -0.142433 0.757477 
0.63887 -0.114326 0.760773 
0.638741 -0.082241 0.765014 
0.637901 -0.0537302 0.768242 
0.636422 -0.0253527 0.770925 
0.627473 0.00535804 0.77862 
0.619088 0.0395685 0.784324 
0.610724 0.0818917 0.787597 
0.603815 0.121391 0.787827 
0.596776 0.166324 0.784981 
0.589367 0.206903 0.780921 
0.596051 -0.26293 0.758677 
0.611189 -0.231988 0.756723 
0.507079 -0.176568 0.84362 
0.518074 -0.152885 0.841562 
0.537053 -0.130708 0.83336 
0.506575 -0.0988131 0.856515 
0.533238 -0.0768322 0.842469 
0.498714 -0.0456151 0.865565 
0.526914 -0.0199316 0.849685 
0.488948 0.0109871 0.872244 
0.513808 0.0447139 0.856739 
0.481143 0.0760753 0.873335 
0.506687 0.116407 0.854235 
0.48757 0.148297 0.860397 
0.478695 0.180282 0.859273 
0.581552 0.245388 0.775617 
0.572686 0.281541 0.769913 
0.55793 -0.328016 0.762312 
0.578191 -0.295055 0.760682 
0.484317 -0.228738 0.844462 
0.496377 -0.201998 0.844279 
0.407113 -0.149559 0.90105 
0.419053 -0.128465 0.898828 
0.439802 -0.109579 0.891384 
0.394841 -0.078895 0.915356 
0.430146 -0.0622673 0.900609 
0.384332 -0.0352992 0.92252 
0.423025 -0.0148494 0.905996 
0.376909 0.0103347 0.926193 
0.414379 0.037591 0.909328 
0.375426 0.0620036 0.924776 
0.414672 0.097369 0.904747 
0.394108 0.124398 0.910606 
0.384758 0.152028 0.910411 
0.472408 0.211952 0.855516 
0.46596 0.242532 0.850917 
0.561816 0.315243 0.764843 
0.547917 0.346884 0.761221 
0.535824 -0.361105 0.763214 
0.453479 -0.284713 0.844568 
0.470067 -0.256517 0.844533 
0.388228 -0.195324 0.900626 
0.398136 -0.171789 0.901097 
0.323656 -0.125874 0.937765 
0.334788 -0.10837 0.936041 
0.352958 -0.0916241 0.931142 
0.306987 -0.0642056 0.949545 
0.337312 -0.0502221 0.940052 
0.294306 -0.0272582 0.955322 
0.329445 -0.0107752 0.944113 
0.288774 0.00970503 0.957348 
0.325224 0.0321065 0.945092 
0.29222 0.0518405 0.954945 
0.333158 0.0826496 0.939242 
0.315715 0.105123 0.943013 
0.306364 0.127548 0.943331 
0.379263 0.178919 0.907826 
0.374145 0.20548 0.904319 
0.45743 0.271578 0.84676 
0.445815 0.299142 0.843661 
0.530477 0.377082 0.759213 
0.488606 -0.423421 0.762875 
0.51249 -0.393389 0.763282 
0.434643 -0.312102 0.844794 
0.362839 -0.243303 0.899529 
0.376775 -0.219342 0.899961 
0.308924 -0.165806 0.936523 
0.316344 -0.145389 0.937437 
0.255914 -0.106155 0.960853 
0.264931 -0.0906308 0.959999 
0.279888 -0.0768839 0.956949 
0.237994 -0.0526089 0.969841 
0.261546 -0.0406794 0.964333 
0.225377 -0.0215737 0.974033 
0.253582 -0.00769416 0.967283 
0.221303 0.00907427 0.975163 
0.252585 0.0276231 0.96718 
0.227158 0.0438714 0.972869 
0.26484 0.0699566 0.961751 
0.250386 0.0883824 0.964103 
0.243347 0.107458 0.963968 
0.302372 0.150714 0.941199 
0.29832 0.173475 0.938569 
0.367199 0.230656 0.90109 
0.356927 0.254556 0.89878 
0.430417 0.324975 0.8421 
0.509653 0.406496 0.758297 
0.486409 0.434972 0.757764 
0.462142 -0.45175 0.763116 
0.402274 -0.368853 0.837928 
0.414308 -0.337618 0.8452 
0.346246 -0.265785 0.899707 
0.28824 -0.207863 0.934725 
0.299499 -0.186706 0.93565 
0.244613 -0.140692 0.959359 
0.250448 -0.122727 0.96032 
0.20102 -0.0889698 0.975538 
0.208473 -0.076226 0.975053 
0.219806 -0.0639739 0.973444 
0.18439 -0.0434652 0.981892 
0.201977 -0.0330571 0.978832 
0.17283 -0.0171915 0.984802 
0.194649 -0.00544718 0.980858 
0.169897 0.00823717 0.985427 
0.1954 0.0237584 0.980436 
0.176526 0.037044 0.983599 
0.208679 0.0591695 0.976193 
0.197986 0.0744051 0.977377 
0.19167 0.0900389 0.977321 
0.239818 0.126659 0.96252 
0.236975 0.146526 0.960402 
0.292355 0.195396 0.936135 
0.284022 0.21679 0.933988 
0.342897 0.276456 0.897772 
0.41183 0.349212 0.841693 
0.400615 0.380147 0.833664 
0.459695 0.463619 0.757455 
0.433405 -0.476951 0.764642 
0.377828 -0.392164 0.838721 
0.326522 -0.31801 0.890086 
0.328509 -0.287074 0.899817 
0.274167 -0.228438 0.934157 
0.230143 -0.178813 0.956588 
0.237818 -0.158926 0.95822 
0.193556 -0.119497 0.973785 
0.197714 -0.103882 0.97474 
0.15804 -0.0752872 0.984558 
0.163229 -0.0636831 0.984531 
0.17177 -0.053424 0.983687 
0.14255 -0.0358023 0.98914 
0.155687 -0.0270212 0.987437 
0.132653 -0.0137659 0.991067 
0.149559 -0.00392629 0.988745 
0.130558 0.00742198 0.991413 
0.151011 0.0203352 0.988323 
0.136935 0.0313371 0.990084 
0.163679 0.0498418 0.985254 
0.155564 0.0625921 0.985841 
0.151514 0.0760067 0.985528 
0.190288 0.106956 0.975885 
0.187859 0.12409 0.974326 
0.232558 0.165815 0.958343 
0.227134 0.186329 0.955872 
0.272023 0.237396 0.932549 
0.326841 0.297451 0.89705 
0.325682 0.329015 0.886386 
0.376882 0.404356 0.83334 
0.431265 0.490684 0.757126 
0.402974 -0.49858 0.767483 
0.345522 -0.402642 0.84764 
0.294105 -0.318865 0.901015 
0.261499 -0.254355 0.931086 
0.221958 -0.200243 0.954273 
0.18419 -0.15417 0.970724 
0.188315 -0.135785 0.972677 
0.152747 -0.101703 0.983018 
0.155605 -0.0878145 0.983908 
0.123579 -0.0633909 0.990308 
0.127366 -0.0536092 0.990406 
0.133822 -0.0447058 0.989997 
0.110148 -0.0298999 0.993465 
0.12015 -0.0222881 0.992506 
0.101959 -0.0112153 0.994725 
0.115172 -0.00284174 0.993341 
0.100477 0.00651918 0.994918 
0.116827 0.0174113 0.993 
0.106143 0.0265151 0.993997 
0.12805 0.0420716 0.990875 
0.12203 0.052692 0.991127 
0.118869 0.0640658 0.990841 
0.150114 0.0902053 0.984545 
0.148902 0.10522 0.983238 
0.184823 0.141225 0.972572 
0.182366 0.160327 0.970071 
0.220912 0.208265 0.952798 
0.261185 0.263733 0.928562 
0.294757 0.3302 0.896709 
0.346179 0.416247 0.840773 
0.402809 0.514541 0.756963 
0.369252 -0.519039 0.770877 
0.318573 -0.420667 0.849441 
0.271394 -0.33482 0.902353 
0.233846 -0.265584 0.935297 
0.20553 -0.214909 0.954763 
0.173948 -0.168742 0.97019 
0.144745 -0.130439 0.980834 
0.148965 -0.115596 0.982063 
0.119904 -0.0865163 0.989009 
0.122517 -0.0748691 0.989638 
0.096805 -0.054457 0.993812 
0.0992969 -0.0455673 0.994014 
0.103997 -0.0375192 0.99387 
0.0851767 -0.025097 0.99605 
0.0927015 -0.018441 0.995523 
0.0785555 -0.00919106 0.996867 
0.0888148 -0.00207635 0.996046 
0.0774927 0.00576047 0.996976 
0.0903769 0.0149311 0.995796 
0.0823224 0.0225845 0.99635 
0.0999229 0.0356929 0.994355 
0.0954839 0.0448451 0.99442 
0.0936995 0.0549193 0.994085 
0.118801 0.0766633 0.989954 
0.117191 0.089265 0.989089 
0.146376 0.120118 0.981909 
0.144011 0.135514 0.980253 
0.17375 0.175451 0.969035 
0.206237 0.223269 0.952689 
0.235595 0.275601 0.931954 
0.274156 0.347133 0.896848 
0.322132 0.435592 0.84053 
0.373226 0.536427 0.756934 
0.332928 -0.538544 0.774034 
0.28874 -0.437089 0.851811 
0.246903 -0.34957 0.903792 
0.211286 -0.277851 0.9371 
0.182418 -0.221682 0.957904 
0.15786 -0.178024 0.971281 
0.133868 -0.140059 0.981052 
0.112884 -0.109003 0.987611 
0.115083 -0.0974658 0.988563 
0.0937362 -0.0752729 0.992747 
0.0958583 -0.0645878 0.993297 
0.0758543 -0.0467227 0.996024 
0.0771809 -0.0386188 0.996269 
0.0807481 -0.0318981 0.996224 
0.0657565 -0.0210379 0.997614 
0.0716447 -0.015462 0.99731 
0.0604062 -0.00762732 0.998145 
0.0685742 -0.00159581 0.997645 
0.0596674 0.00496939 0.998206 
0.0700108 0.0126765 0.997466 
0.0637338 0.0191646 0.997783 
0.0779189 0.0302992 0.996499 
0.0747501 0.0382054 0.99647 
0.0736309 0.0469983 0.996178 
0.0933995 0.0659648 0.993441 
0.0920836 0.0776018 0.992723 
0.114019 0.100728 0.988359 
0.112309 0.113188 0.987206 
0.134539 0.145353 0.98019 
0.159421 0.184781 0.969763 
0.185019 0.230122 0.955412 
0.215469 0.288165 0.933024 
0.252773 0.362273 0.897142 
0.296531 0.452282 0.841136 
0.342935 0.555495 0.757509 
0.294894 -0.557435 0.776082 
0.256837 -0.452032 0.854226 
0.220005 -0.361985 0.90585 
0.187891 -0.28755 0.939155 
0.160572 -0.228508 0.960209 
0.137657 -0.181219 0.973761 
0.118055 -0.143143 0.982636 
0.0994994 -0.111491 0.988772 
0.0881021 -0.08553 0.992433 
0.0738266 -0.0653165 0.99513 
0.0752494 -0.0555429 0.995617 
0.0593541 -0.039895 0.997439 
0.0597786 -0.0329446 0.997668 
0.0626439 -0.0269532 0.997672 
0.0506288 -0.0181207 0.998553 
0.0553577 -0.0130776 0.998381 
0.0465395 -0.00649376 0.998895 
0.0530358 -0.00118573 0.998592 
0.0460336 0.00434169 0.99893 
0.0542152 0.0110735 0.998468 
0.0492801 0.0164574 0.998649 
0.0607615 0.0258571 0.997817 
0.0582177 0.0325003 0.997775 
0.0579613 0.0402435 0.997507 
0.0738552 0.0567507 0.995653 
0.0727509 0.0666412 0.995121 
0.0879112 0.0881483 0.99222 
0.100684 0.115055 0.988243 
0.119706 0.148254 0.981678 
0.140929 0.187566 0.97209 
0.165437 0.236468 0.957452 
0.194752 0.297432 0.934669 
0.22962 0.373778 0.898646 
0.269655 0.465622 0.842901 
0.311806 0.571611 0.758972 
0.256554 -0.575802 0.776294 
0.224386 -0.466001 0.855859 
0.19248 -0.372695 0.907772 
0.164328 -0.296368 0.940831 
0.140015 -0.234697 0.961932 
0.119891 -0.185567 0.97529 
0.102312 -0.14683 0.983856 
0.0878828 -0.115267 0.989439 
0.077037 -0.0900454 0.992954 
0.0669772 -0.071597 0.995182 
0.0573216 -0.0553719 0.996819 
0.0585306 -0.0479522 0.997133 
0.0468698 -0.0362625 0.998243 
0.045962 -0.0289007 0.998525 
0.0482473 -0.0233269 0.998563 
0.0390724 -0.0156986 0.999113 
0.0426815 -0.011249 0.999025 
0.0358205 -0.00554718 0.999343 
0.0409605 -0.00107186 0.99916 
0.0354771 0.00382889 0.999363 
0.0419866 0.00943865 0.999074 
0.038085 0.0144398 0.99917 
0.0471912 0.0225227 0.998632 
0.0452522 0.028583 0.998567 
0.0456668 0.0361099 0.998304 
0.0573536 0.0482985 0.997185 
0.0564662 0.0560344 0.996831 
0.0670525 0.072915 0.995082 
0.0776627 0.0926572 0.992665 
0.0896253 0.118573 0.988892 
0.105657 0.151103 0.982855 
0.124544 0.191132 0.973631 
0.147055 0.241491 0.959196 
0.174012 0.304457 0.936497 
0.205688 0.38213 0.900927 
0.242122 0.476037 0.845438 
0.279939 0.58495 0.761227 
0.219286 -0.593343 0.774505 
0.192755 -0.479254 0.856248 
0.165396 -0.38335 0.908673 
0.14069 -0.303995 0.942228 
0.120128 -0.240461 0.963197 
0.10203 -0.189794 0.976508 
0.0873792 -0.149482 0.984896 
0.0747878 -0.117505 0.990252 
0.0650829 -0.0924711 0.993586 
0.056585 -0.0723218 0.995775 
0.0488572 -0.0567119 0.997194 
0.0445382 -0.043301 0.998069 
0.0371704 -0.0322037 0.99879 
0.0352582 -0.0253665 0.999056 
0.0371165 -0.0205086 0.9991 
0.0299536 -0.0136918 0.999458 
0.0329334 -0.00978649 0.99941 
0.0273831 -0.00490504 0.999613 
0.0316186 -0.000878822 0.9995 
0.0271847 0.00301884 0.999626 
0.0324627 0.00813731 0.99944 
0.0293575 0.0120319 0.999497 
0.0366031 0.0192774 0.999144 
0.0350381 0.0246365 0.999082 
0.0359364 0.0311486 0.998869 
0.0436163 0.0428644 0.998128 
0.0490096 0.0571028 0.997165 
0.0574266 0.0739204 0.995609 
0.0669464 0.0943319 0.993287 
0.0774967 0.120171 0.989724 
0.0915745 0.152727 0.984017 
0.108325 0.193766 0.975049 
0.128598 0.245007 0.960955 
0.152676 0.309228 0.938652 
0.181398 0.388477 0.903427 
0.214188 0.484128 0.848377 
0.247498 0.595852 0.764006 
0.184206 -0.609425 0.771148 
0.163307 -0.492755 0.854706 
0.139234 -0.39412 0.908451 
0.118938 -0.312611 0.942406 
0.100893 -0.246737 0.963816 
0.0859227 -0.193685 0.977294 
0.0730941 -0.151977 0.985678 
0.0623691 -0.119086 0.990923 
0.0542824 -0.0930214 0.994183 
0.0466264 -0.0730727 0.996236 
0.0405552 -0.0572505 0.997536 
0.0368944 -0.0451001 0.998301 
0.033166 -0.0361601 0.998796 
0.0284949 -0.0277196 0.99921 
0.0266081 -0.0218487 0.999407 
0.0283419 -0.0177704 0.99944 
0.0228401 -0.0120642 0.999666 
0.0252419 -0.00854637 0.999645 
0.0208884 -0.00429494 0.999773 
0.0241774 -0.000768604 0.999707 
0.0206596 0.00299986 0.999782 
0.0248133 0.0071382 0.999667 
0.0223582 0.0108159 0.999692 
0.0280789 0.0167583 0.999465 
0.0269578 0.0209735 0.999417 
0.0276943 0.0265145 0.999265 
0.0321735 0.0350439 0.998868 
0.0371442 0.0450364 0.998295 
0.0413507 0.0576384 0.997481 
0.0481795 0.073932 0.996099 
0.0562041 0.0943125 0.993955 
0.0659156 0.120566 0.990514 
0.0779352 0.153727 0.985035 
0.0928857 0.19555 0.976285 
0.110647 0.248405 0.962316 
0.132065 0.313747 0.940277 
0.157057 0.394385 0.905424 
0.186739 0.491184 0.850803 
0.214791 0.604399 0.767181 
0.151673 -0.623205 0.76721 
0.135899 -0.50748 0.85088 
0.115759 -0.409044 0.905142 
0.0985187 -0.325943 0.940242 
0.0838068 -0.257243 0.962706 
0.0712181 -0.20205 0.976782 
0.0604419 -0.158022 0.985584 
0.0516153 -0.123085 0.991053 
0.0441889 -0.0958547 0.994414 
0.0383018 -0.074536 0.996482 
0.0326786 -0.0576152 0.997804 
0.0291892 -0.0444696 0.998584 
0.025723 -0.0340077 0.99909 
0.0223949 -0.0258038 0.999416 
0.0201099 -0.019579 0.999606 
0.0209222 -0.0155236 0.999661 
0.0169874 -0.0110982 0.999794 
0.0189135 -0.00774693 0.999791 
0.0155844 -0.00406731 0.99987 
0.0183755 -0.00089995 0.999831 
0.0155514 0.00231071 0.999876 
0.0188152 0.0061495 0.999804 
0.016803 0.00998204 0.999809 
0.0209245 0.0144866 0.999676 
0.0202105 0.018959 0.999616 
0.022315 0.0258178 0.999418 
0.0258736 0.0340225 0.999086 
0.0298307 0.0445795 0.99856 
0.0339136 0.0578578 0.997749 
0.0398477 0.0747951 0.996402 
0.0467827 0.0961459 0.994267 
0.0550764 0.123219 0.99085 
0.0657928 0.157917 0.985258 
0.0783805 0.201162 0.976417 
0.0938064 0.255433 0.962265 
0.111925 0.322379 0.93997 
0.133647 0.403267 0.90527 
0.159382 0.49928 0.851655 
0.181587 0.610396 0.771002 
0.118725 -0.633382 0.764677 
0.111566 -0.530784 0.840131 
0.0941953 -0.43386 0.896043 
0.0799835 -0.346883 0.934492 
0.0681743 -0.274479 0.959173 
0.0577252 -0.214922 0.974924 
0.0490936 -0.167592 0.984633 
0.0415889 -0.130235 0.99061 
0.0357313 -0.101068 0.994238 
0.0306741 -0.0782756 0.99646 
0.0263306 -0.060666 0.997811 
0.0231834 -0.0466671 0.998641 
0.0205528 -0.0358858 0.999145 
0.017994 -0.0274265 0.999462 
0.0158069 -0.0203084 0.999669 
0.0150666 -0.0146516 0.999779 
0.0124901 -0.00995779 0.999872 
0.0142926 -0.00696472 0.999874 
0.0114832 -0.00333235 0.999929 
0.0138121 -0.000587862 0.999904 
0.0114218 0.00215766 0.999932 
0.0140554 0.00580952 0.999884 
0.0126021 0.00863712 0.999883 
0.0151439 0.0137587 0.999791 
0.0160114 0.0195244 0.999681 
0.0179679 0.0268436 0.999478 
0.0208519 0.0356057 0.999148 
0.0239925 0.0463726 0.998636 
0.0276016 0.0602678 0.997801 
0.032314 0.0777314 0.996451 
0.0382299 0.100254 0.994227 
0.0452883 0.128891 0.990624 
0.0540278 0.165229 0.984774 
0.0647544 0.211279 0.975278 
0.0775186 0.268458 0.960167 
0.0926836 0.338408 0.936424 
0.110752 0.421754 0.899921 
0.133364 0.515637 0.846364 
0.144404 0.612961 0.776805 
0.0906022 -0.639514 0.763422 
0.0804048 -0.504835 0.859463 
0.0651658 -0.392474 0.917452 
0.0540173 -0.304351 0.951027 
0.0452496 -0.235162 0.970902 
0.0380993 -0.181662 0.982623 
0.0321935 -0.140033 0.989623 
0.0273793 -0.107885 0.993786 
0.0234107 -0.0831512 0.996262 
0.0200867 -0.064076 0.997743 
0.0175111 -0.0491867 0.998636 
0.0154376 -0.0378738 0.999163 
0.0136295 -0.0290354 0.999485 
0.0121632 -0.0221063 0.999682 
0.0112453 -0.0164567 0.999801 
0.0101004 -0.0122344 0.999874 
0.00897215 -0.00862049 0.999923 
0.00993232 -0.00610123 0.999932 
0.00801343 -0.00368532 0.999961 
0.00972468 -0.000989465 0.999952 
0.00797091 0.00204078 0.999966 
0.0101161 0.00460431 0.999938 
0.00869629 0.00736106 0.999935 
0.0102503 0.0110708 0.999886 
0.0113712 0.0153351 0.999818 
0.0121888 0.0209651 0.999706 
0.0137101 0.0280454 0.999513 
0.0158143 0.0369113 0.999193 
0.0183137 0.0482752 0.998666 
0.0211141 0.0629491 0.997793 
0.025038 0.0817875 0.996335 
0.0295352 0.105841 0.993944 
0.0352727 0.137067 0.989934 
0.0423746 0.176966 0.983304 
0.0510057 0.228103 0.9723 
0.0618703 0.29391 0.953829 
0.0758923 0.37752 0.922886 
0.0955246 0.484997 0.869283 
0.109834 0.613771 0.781807 
0.0598027 -0.643829 0.762828 
0.0582347 -0.536141 0.842118 
0.0475424 -0.431852 0.900691 
0.0392007 -0.337994 0.940331 
0.0325115 -0.26125 0.964724 
0.0271935 -0.20113 0.979187 
0.0228469 -0.154499 0.987729 
0.0192876 -0.118767 0.992735 
0.0164766 -0.0913406 0.995683 
0.0141044 -0.0703286 0.997424 
0.012186 -0.0541224 0.99846 
0.0107296 -0.0416239 0.999076 
0.00950795 -0.0320292 0.999442 
0.00838478 -0.0244566 0.999666 
0.00765126 -0.0184076 0.999801 
0.00711048 -0.0137894 0.99988 
0.00597229 -0.00980663 0.999934 
0.00614285 -0.00611936 0.999962 
0.00505833 -0.00317899 0.999982 
0.00677678 -0.000488331 0.999977 
0.00500508 0.00181148 0.999986 
0.00627133 0.00470743 0.999969 
0.00629122 0.00844988 0.999945 
0.00705395 0.0125227 0.999897 
0.00782729 0.0172295 0.999821 
0.008485 0.0233259 0.999692 
0.00977051 0.03099 0.999472 
0.011168 0.0406536 0.999111 
0.0129457 0.0529664 0.998512 
0.0149941 0.0687936 0.997518 
0.0176402 0.0893355 0.995845 
0.0209838 0.115761 0.993055 
0.0249117 0.149911 0.988386 
0.0299722 0.194285 0.980487 
0.0362387 0.251054 0.967294 
0.0440574 0.323314 0.945266 
0.0544021 0.412384 0.909385 
0.0674804 0.510835 0.857026 
0.0694113 0.614114 0.786159 
0.0334308 -0.646523 0.762162 
0.0297644 -0.50515 0.862518 
0.0238082 -0.388841 0.920997 
0.0187316 -0.297034 0.954683 
0.0154701 -0.226797 0.973819 
0.0127456 -0.173209 0.984803 
0.0106795 -0.132459 0.991131 
0.00904397 -0.101375 0.994807 
0.00765607 -0.0777289 0.996945 
0.00659873 -0.0595482 0.998204 
0.0058253 -0.045665 0.99894 
0.00508539 -0.0349822 0.999375 
0.00452087 -0.026691 0.999634 
0.00426165 -0.0202925 0.999785 
0.00372826 -0.0150934 0.999879 
0.00339103 -0.011265 0.999931 
0.00355919 -0.00767114 0.999964 
0.00315815 -0.00517996 0.999982 
0.00252065 -0.00214135 0.999995 
0.00386197 -0.00112271 0.999992 
0.00267165 0.00117678 0.999996 
0.00332852 0.00349669 0.999988 
0.00341687 0.0064006 0.999974 
0.00351074 0.00976206 0.999946 
0.00387991 0.0139 0.999896 
0.00431577 0.0190037 0.99981 
0.00469251 0.0254952 0.999664 
0.00532281 0.0339073 0.999411 
0.00621673 0.044349 0.998997 
0.00695977 0.0580907 0.998287 
0.00820636 0.0758162 0.997088 
0.0095065 0.0986103 0.995081 
0.0111675 0.128505 0.991646 
0.0133044 0.167245 0.985826 
0.015849 0.217791 0.975867 
0.0191466 0.284141 0.958591 
0.0239615 0.369904 0.928761 
0.0304625 0.480342 0.876552 
0.0330753 0.615282 0.787613 
0.00776692 -0.648345 0.761307 
0.00614288 -0.537336 0.843346 
0.00378686 -0.43147 0.902119 
0.00269213 -0.335459 0.942051 
0.00184003 -0.257453 0.966289 
0.0012196 -0.196945 0.980414 
0.000945948 -0.150723 0.988576 
0.000673897 -0.115487 0.993309 
0.000564291 -0.0886723 0.996061 
0.000526716 -0.0681195 0.997677 
0.000447209 -0.0523848 0.998627 
0.000430302 -0.0402971 0.999188 
0.000540868 -0.0309493 0.999521 
0.000455811 -0.0235572 0.999722 
0.000496672 -0.0178891 0.99984 
0.000537089 -0.0134212 0.99991 
0.000481779 -0.00939714 0.999956 
0.000547882 -0.00676307 0.999977 
0.000424108 -0.00401478 0.999992 
2.20666e-05 -0.00117466 0.999999 
0.000214842 0.00233386 0.999997 
0.000796317 0.00513709 0.999986 
0.000483832 0.00807269 0.999967 
0.000702581 0.0120808 0.999927 
0.00057339 0.0165495 0.999863 
0.000592148 0.0224572 0.999748 
0.000725447 0.02972 0.999558 
0.000523844 0.0391393 0.999234 
0.000677585 0.0511109 0.998693 
0.000529487 0.0664648 0.997789 
0.000347444 0.0865598 0.996247 
0.000258296 0.112447 0.993658 
-0.000125255 0.146122 0.989267 
-0.000531942 0.190193 0.981747 
-0.000961479 0.247296 0.968939 
-0.00162368 0.320688 0.947183 
-0.00238473 0.411207 0.911539 
-0.00255395 0.511043 0.859551 
-0.00319031 0.618104 0.78609 
-0.0188383 -0.642287 0.766233 
-0.0208023 -0.501871 0.864693 
-0.0171007 -0.38629 0.922219 
-0.0147963 -0.295466 0.955239 
-0.0125616 -0.225631 0.974132 
-0.0107607 -0.172459 0.984958 
-0.00917238 -0.131923 0.991218 
-0.0077818 -0.101028 0.994853 
-0.00664149 -0.0774253 0.996976 
-0.00572108 -0.059358 0.99822 
-0.00482277 -0.0454773 0.998954 
-0.00421212 -0.0348935 0.999382 
-0.00358468 -0.0265921 0.99964 
-0.00311952 -0.0201327 0.999792 
-0.00285277 -0.0150907 0.999882 
-0.00236705 -0.0112012 0.999934 
-0.00239487 -0.00761914 0.999968 
-0.00223095 -0.00515264 0.999984 
-0.000811937 -0.00224987 0.999997 
-0.00317836 -0.000957799 0.999994 
-0.000647711 0.00103689 0.999999 
-0.00204492 0.00343903 0.999992 
-0.0023006 0.00633894 0.999977 
-0.00211368 0.00966173 0.999951 
-0.00278769 0.0138158 0.999901 
-0.00291652 0.018977 0.999816 
-0.00353438 0.0254079 0.999671 
-0.00408675 0.0338533 0.999418 
-0.00478993 0.0443634 0.999004 