# vtk DataFile Version 3.0 
Exported using Morpho https://github.com/Morpho-lang/morpho 
ASCII 
DATASET UNSTRUCTURED_GRID 

POINTS 1245 float 
-0.303845 -0.952721 0 
-0.250833 -0.96803 0 
-0.195084 -0.980787 0 
-0.146308 -0.989239 0 
-0.0940719 -0.995565 0 
-0.0475118 -0.998871 0 
-0.000246339 -1 0 
0.0470875 -0.998891 0 
0.0937543 -0.995595 0 
0.146139 -0.989264 0 
0.195062 -0.980791 0 
0.250843 -0.968028 0 
0.303953 -0.952687 0 
-0.409153 -0.912466 0 
-0.356519 -0.934288 0 
-0.308871 -0.898929 0 
-0.258282 -0.916037 0 
-0.207345 -0.934859 0 
-0.154868 -0.930629 0 
-0.104343 -0.948989 0 
-0.0520099 -0.939193 0 
-8.5762e-05 -0.954582 0 
0.0518744 -0.939288 0 
0.104354 -0.949042 0 
0.154696 -0.9306 0 
0.207366 -0.934975 0 
0.258274 -0.916081 0 
0.308979 -0.898924 0 
0.356593 -0.93426 0 
0.409236 -0.912429 0 
-0.513788 -0.857917 0 
-0.461695 -0.887039 0 
-0.411157 -0.857936 0 
-0.359855 -0.879963 0 
-0.306888 -0.847481 0 
-0.254732 -0.866979 0 
-0.201991 -0.889059 0 
-0.149956 -0.874108 0 
-0.100608 -0.900088 0 
-0.0497575 -0.880388 0 
2.4595e-05 -0.904789 0 
0.0496869 -0.8804 0 
0.100612 -0.900177 0 
0.149872 -0.874171 0 
0.202071 -0.889165 0 
0.254695 -0.867031 0 
0.306946 -0.847482 0 
0.359894 -0.879943 0 
0.411236 -0.857929 0 
0.461748 -0.887011 0 
0.513842 -0.857885 0 
-0.564741 -0.825268 0 
-0.512908 -0.802945 0 
-0.462372 -0.832348 0 
-0.410124 -0.804631 0 
-0.358606 -0.827415 0 
-0.305781 -0.795641 0 
-0.25358 -0.816639 0 
-0.200756 -0.839997 0 
-0.149043 -0.818944 0 
-0.0987265 -0.846667 0 
-0.0490473 -0.822548 0 
5.00659e-05 -0.849932 0 
0.0490834 -0.822542 0 
0.0987838 -0.846676 0 
0.148997 -0.818924 0 
0.200826 -0.840131 0 
0.253508 -0.816728 0 
0.305831 -0.795701 0 
0.358581 -0.827419 0 
0.410181 -0.804654 0 
0.462414 -0.83234 0 
0.512965 -0.802929 0 
0.564777 -0.825243 0 
-0.660798 -0.750564 0 
-0.614015 -0.789295 0 
-0.561786 -0.769772 0 
-0.510673 -0.747856 0 
-0.460836 -0.778365 0 
-0.408794 -0.751554 0 
-0.357337 -0.774971 0 
-0.304815 -0.743684 0 
-0.252907 -0.765535 0 
-0.200631 -0.789263 0 
-0.149244 -0.764328 0 
-0.0986912 -0.791935 0 
-0.0492815 -0.765764 0 
4.16586e-05 -0.79382 0 
0.0492411 -0.765708 0 
0.0987508 -0.791951 0 
0.149196 -0.764326 0 
0.200666 -0.789356 0 
0.252841 -0.765599 0 
0.304862 -0.743741 0 
0.357323 -0.775038 0 
0.408863 -0.751626 0 
0.460863 -0.778382 0 
0.510716 -0.747859 0 
0.561819 -0.769761 0 
0.614041 -0.789274 0 
0.660811 -0.750552 0 
-0.707107 -0.707107 0 
-0.654819 -0.699058 0 
-0.60813 -0.73348 0 
-0.558104 -0.71337 0 
-0.509495 -0.692659 0 
-0.45935 -0.724356 0 
-0.407328 -0.698865 0 
-0.355968 -0.722823 0 
-0.303722 -0.691387 0 
-0.252254 -0.71362 0 
-0.20067 -0.737336 0 
-0.149608 -0.710068 0 
-0.0991558 -0.737129 0 
-0.0495872 -0.709825 0 
-2.23646e-05 -0.737917 0 
0.0494408 -0.709766 0 
0.0991291 -0.737116 0 
0.149502 -0.710042 0 
0.200696 -0.73743 0 
0.252186 -0.713735 0 
0.303753 -0.691518 0 
0.355952 -0.722893 0 
0.407371 -0.698945 0 
0.459374 -0.724407 0 
0.509524 -0.692668 0 
0.558131 -0.713361 0 
0.608151 -0.733462 0 
0.654824 -0.699048 0 
0.707107 -0.707107 0 
-0.750564 -0.660798 0 
-0.699058 -0.654819 0 
-0.647692 -0.647692 0 
-0.603437 -0.675718 0 
-0.55905 -0.655305 0 
-0.508501 -0.639581 0 
-0.457509 -0.671321 0 
-0.405555 -0.646545 0 
-0.354417 -0.670703 0 
-0.302427 -0.639219 0 
-0.251503 -0.661417 0 
-0.20061 -0.684911 0 
-0.149717 -0.655943 0 
-0.0995004 -0.682466 0 
-0.0498216 -0.654561 0 
-5.02113e-05 -0.682664 0 
0.0496787 -0.654499 0 
0.0994374 -0.682501 0 
0.149603 -0.655909 0 
0.200573 -0.684972 0 
0.251388 -0.661524 0 
0.302407 -0.639359 0 
0.354397 -0.670836 0 
0.405575 -0.646641 0 
0.457525 -0.67138 0 
0.508497 -0.639623 0 
0.559063 -0.655324 0 
0.603436 -0.675715 0 
0.64769 -0.64769 0 
0.699048 -0.654824 0 
0.750552 -0.660811 0 
-0.789295 -0.614015 0 
-0.73348 -0.60813 0 
-0.675718 -0.603437 0 
-0.613088 -0.613088 0 
-0.55962 -0.604068 0 
-0.506189 -0.588854 0 
-0.455505 -0.618874 0 
-0.403019 -0.594688 0 
-0.352514 -0.618952 0 
-0.300977 -0.586897 0 
-0.250543 -0.608767 0 
-0.200257 -0.632053 0 
-0.150049 -0.601979 0 
-0.0998281 -0.628222 0 
-0.0500377 -0.599914 0 
-3.12334e-05 -0.628076 0 
0.0498927 -0.599835 0 
0.0997818 -0.628253 0 
0.149924 -0.601867 0 
0.200214 -0.632118 0 
0.250423 -0.608915 0 
0.30086 -0.587085 0 
0.352457 -0.619096 0 
0.402948 -0.594743 0 
0.455483 -0.618952 0 
0.506147 -0.588901 0 
0.55964 -0.604067 0 
0.613069 -0.613069 0 
0.675715 -0.603436 0 
0.733462 -0.608151 0 
0.789274 -0.614041 0 
-0.825268 -0.564741 0 
-0.769772 -0.561786 0 
-0.71337 -0.558104 0 
-0.655305 -0.55905 0 
-0.604068 -0.55962 0 
-0.551031 -0.551031 0 
-0.497922 -0.537596 0 
-0.451508 -0.567021 0 
-0.399773 -0.542431 0 
-0.350494 -0.567003 0 
-0.301574 -0.534146 0 
-0.250874 -0.555692 0 
-0.200542 -0.579013 0 
-0.150324 -0.548268 0 
-0.100169 -0.57443 0 
-0.0500152 -0.545912 0 
-3.29278e-05 -0.574268 0 
0.0499208 -0.545788 0 
0.100058 -0.574485 0 
0.150038 -0.548073 0 
0.200377 -0.579041 0 
0.250556 -0.55585 0 
0.301273 -0.534348 0 
0.350318 -0.567174 0 
0.399615 -0.542384 0 
0.451404 -0.5671 0 
0.497945 -0.537702 0 
0.551073 -0.551073 0 
0.604067 -0.55964 0 
0.655324 -0.559063 0 
0.713361 -0.558131 0 
0.769761 -0.561819 0 
0.825243 -0.564777 0 
-0.857917 -0.513788 0 
-0.802945 -0.512908 0 
-0.747856 -0.510673 0 
-0.692659 -0.509495 0 
-0.639581 -0.508501 0 
-0.588854 -0.506189 0 
-0.537596 -0.497922 0 
-0.486157 -0.486157 0 
-0.444928 -0.512952 0 
-0.401787 -0.486784 0 
-0.351685 -0.513639 0 
-0.299695 -0.48291 0 
-0.250032 -0.503 0 
-0.200501 -0.526165 0 
-0.149489 -0.495195 0 
-0.0999281 -0.521367 0 
-0.0499712 -0.492294 0 
4.64723e-05 -0.520999 0 
0.050147 -0.492108 0 
0.099934 -0.52133 0 
0.14957 -0.494692 0 
0.200133 -0.526255 0 
0.249839 -0.503309 0 
0.299839 -0.483005 0 
0.351514 -0.513798 0 
0.401881 -0.486608 0 
0.444935 -0.513054 0 
0.486228 -0.486228 0 
0.537702 -0.497945 0 
0.588901 -0.506147 0 
0.639623 -0.508497 0 
0.692668 -0.509524 0 
0.747859 -0.510716 0 
0.802929 -0.512965 0 
0.857885 -0.513842 0 
-0.887039 -0.461695 0 
-0.832348 -0.462372 0 
-0.778365 -0.460836 0 
-0.724356 -0.45935 0 
-0.671321 -0.457509 0 
-0.618874 -0.455505 0 
-0.567021 -0.451508 0 
-0.512952 -0.444928 0 
-0.450685 -0.450685 0 
-0.397667 -0.437543 0 
-0.348492 -0.462546 0 
-0.295416 -0.432968 0 
-0.247004 -0.450633 0 
-0.198702 -0.473818 0 
-0.150161 -0.441625 0 
-0.100085 -0.468395 0 
-0.0502271 -0.439281 0 
0.000144229 -0.468374 0 
0.0504178 -0.439106 0 
0.100428 -0.468348 0 
0.150697 -0.441105 0 
0.199103 -0.473881 0 
0.247983 -0.450921 0 
0.296569 -0.432268 0 
0.348831 -0.462562 0 
0.397506 -0.4368 0 
0.450637 -0.450637 0 
0.513054 -0.444935 0 
0.5671 -0.451404 0 
0.618952 -0.455483 0 
0.67138 -0.457525 0 
0.724407 -0.459374 0 
0.778382 -0.460863 0 
0.83234 -0.462414 0 
0.887011 -0.461748 0 
-0.912466 -0.409153 0 
-0.857936 -0.411157 0 
-0.804631 -0.410124 0 
-0.751554 -0.408794 0 
-0.698865 -0.407328 0 
-0.646545 -0.405555 0 
-0.594688 -0.403019 0 
-0.542431 -0.399773 0 
-0.486784 -0.401787 0 
-0.437543 -0.397667 0 
-0.387256 -0.387256 0 
-0.344215 -0.411459 0 
-0.30136 -0.381507 0 
-0.25021 -0.395692 0 
-0.200211 -0.419975 0 
-0.150955 -0.389014 0 
-0.100617 -0.416095 0 
-0.0503197 -0.386922 0 
-4.02994e-05 -0.416525 0 
0.05006 -0.386948 0 
0.100784 -0.416323 0 
0.150432 -0.388572 0 
0.200855 -0.420694 0 
0.25086 -0.396905 0 
0.301746 -0.379789 0 
0.344135 -0.410678 0 
0.385823 -0.385823 0 
0.4368 -0.397506 0 
0.486608 -0.401881 0 
0.542384 -0.399615 0 
0.594743 -0.402948 0 
0.646641 -0.405575 0 
0.698945 -0.407371 0 
0.751626 -0.408863 0 
0.804654 -0.410181 0 
0.857929 -0.411236 0 
0.912429 -0.409236 0 
-0.934288 -0.356519 0 
-0.879963 -0.359855 0 
-0.827415 -0.358606 0 
-0.774971 -0.357337 0 
-0.722823 -0.355968 0 
-0.670703 -0.354417 0 
-0.618952 -0.352514 0 
-0.567003 -0.350494 0 
-0.513639 -0.351685 0 
-0.462546 -0.348492 0 
-0.411459 -0.344215 0 
-0.351697 -0.351697 0 
-0.29839 -0.336232 0 
-0.249846 -0.342529 0 
-0.200971 -0.367271 0 
-0.149995 -0.337521 0 
-0.100435 -0.3646 0 
-0.0498692 -0.335025 0 
-6.88684e-05 -0.365025 0 
0.0495433 -0.334795 0 
0.0996798 -0.364834 0 
0.148162 -0.337172 0 
0.199644 -0.368939 0 
0.24763 -0.345582 0 
0.295348 -0.332889 0 
0.34978 -0.34978 0 
0.410678 -0.344135 0 
0.462562 -0.348831 0 
0.513798 -0.351514 0 
0.567174 -0.350318 0 
0.619096 -0.352457 0 
0.670836 -0.354397 0 
0.722893 -0.355952 0 
0.775038 -0.357323 0 
0.827419 -0.358581 0 
0.879943 -0.359894 0 
0.93426 -0.356593 0 
-0.952721 -0.303845 0 
-0.898929 -0.308871 0 
-0.847481 -0.306888 0 
-0.795641 -0.305781 0 
-0.743684 -0.304815 0 
-0.691387 -0.303722 0 
-0.639219 -0.302427 0 
-0.586897 -0.300977 0 
-0.534146 -0.301574 0 
-0.48291 -0.299695 0 
-0.432968 -0.295416 0 
-0.381507 -0.30136 0 
-0.336232 -0.29839 0 
-0.288184 -0.288184 0 
-0.242975 -0.290577 0 
-0.198059 -0.315051 0 
-0.148383 -0.285894 0 
-0.0994753 -0.313232 0 
-0.0507184 -0.283118 0 
-0.000202902 -0.313447 0 
0.0500077 -0.282824 0 
0.0988289 -0.312817 0 
0.148102 -0.28482 0 
0.195742 -0.317413 0 
0.240766 -0.295824 0 
0.285014 -0.285014 0 
0.332889 -0.295348 0 
0.379789 -0.301746 0 
0.432268 -0.296569 0 
0.483005 -0.299839 0 
0.534348 -0.301273 0 
0.587085 -0.30086 0 
0.639359 -0.302407 0 
0.691518 -0.303753 0 
0.743741 -0.304862 0 
0.795701 -0.305831 0 
0.847482 -0.306946 0 
0.898924 -0.308979 0 
0.952687 -0.303953 0 
-0.96803 -0.250833 0 
-0.916037 -0.258282 0 
-0.866979 -0.254732 0 
-0.816639 -0.25358 0 
-0.765535 -0.252907 0 
-0.71362 -0.252254 0 
-0.661417 -0.251503 0 
-0.608767 -0.250543 0 
-0.555692 -0.250874 0 
-0.503 -0.250032 0 
-0.450633 -0.247004 0 
-0.395692 -0.25021 0 
-0.342529 -0.249846 0 
-0.290577 -0.242975 0 
-0.239946 -0.239946 0 
-0.194478 -0.26004 0 
-0.151293 -0.23238 0 
-0.101048 -0.260904 0 
-0.0503938 -0.232537 0 
-0.000203281 -0.262984 0 
0.050638 -0.232316 0 
0.100942 -0.260855 0 
0.152412 -0.232597 0 
0.195768 -0.261421 0 
0.241873 -0.241873 0 
0.295824 -0.240766 0 
0.345582 -0.24763 0 
0.396905 -0.25086 0 
0.450921 -0.247983 0 
[...]
POINT_DATA 1245 
VECTORS vectors float
0.38933 -0.185289 0.902269 
0.383336 -0.181534 0.905593 
0.38416 -0.167114 0.908017 
0.389114 -0.124733 0.912706 
0.388803 -0.119112 0.913589 
0.394846 -0.128326 0.909741 
0.381475 -0.14463 0.912995 
0.336084 -0.128775 0.932987 
0.277938 -0.0951701 0.955873 
0.223981 -0.0215194 0.974356 
0.219352 0.0378687 0.974911 
0.256375 0.114531 0.959768 
0.265638 0.145765 0.95299 
0.419248 -0.19229 0.887274 
0.413515 -0.196185 0.88911 
0.279843 -0.151022 0.948093 
0.278133 -0.134305 0.951107 
0.280384 -0.127547 0.951376 
0.244076 -0.0953463 0.965057 
0.269958 -0.106546 0.956959 
0.234898 -0.101002 0.966758 
0.234339 -0.0994532 0.967054 
0.173884 -0.0839369 0.981182 
0.180214 -0.0658698 0.981419 
0.145046 -0.0283823 0.989018 
0.162361 0.0411621 0.985872 
0.160346 0.0773444 0.984026 
0.178519 0.0993478 0.978908 
0.284671 0.181598 0.941268 
0.290029 0.207815 0.934182 
0.365727 -0.181088 0.912935 
0.40158 -0.181866 0.897585 
0.252418 -0.123293 0.959731 
0.262347 -0.139995 0.954765 
0.18214 -0.110046 0.977095 
0.185066 -0.10348 0.977263 
0.189331 -0.0983397 0.976976 
0.146033 -0.0754586 0.986398 
0.187696 -0.0877486 0.9783 
0.153146 -0.0726275 0.985531 
0.132933 -0.0687053 0.988741 
0.108004 -0.0784441 0.991051 
0.121786 -0.0614653 0.990651 
0.0675915 0.00834048 0.997678 
0.0955333 0.0423072 0.994527 
0.0956775 0.0298633 0.994964 
0.100037 0.0765554 0.992034 
0.184344 0.128905 0.974372 
0.194618 0.168677 0.966267 
0.306423 0.235121 0.922401 
0.341609 0.274999 0.89871 
0.30739 -0.189839 0.932455 
0.226102 -0.142057 0.96369 
0.249525 -0.124039 0.960391 
0.176653 -0.0936617 0.979807 
0.176513 -0.0970277 0.979504 
0.107491 -0.0600762 0.992389 
0.107446 -0.0812051 0.990889 
0.116915 -0.0733512 0.990429 
0.0829768 -0.0655237 0.994395 
0.0862232 -0.082064 0.99289 
0.0608715 -0.053583 0.996706 
0.0955412 -0.0349158 0.994813 
0.0676958 -0.0341424 0.997122 
0.0663066 -0.0280669 0.997404 
0.0127723 0.00245604 0.999915 
0.0352514 0.0182313 0.999212 
0.0616564 0.00741245 0.99807 
0.0447473 0.0853976 0.995342 
0.100524 0.0796269 0.991743 
0.133718 0.111823 0.98469 
0.198878 0.194075 0.960616 
0.205297 0.169668 0.963881 
0.350878 0.281255 0.893185 
0.291003 -0.298759 0.908879 
0.28626 -0.255747 0.92339 
0.201415 -0.162028 0.966012 
0.151801 -0.103643 0.982962 
0.169277 -0.0858333 0.981824 
0.122049 -0.080316 0.989269 
0.120093 -0.0796515 0.989562 
0.0549704 -0.0383057 0.997753 
0.0600077 -0.0543287 0.996718 
0.071432 -0.0571943 0.995804 
0.0607397 -0.0398356 0.997358 
0.0392241 -0.0497179 0.997993 
0.0273503 -0.0367181 0.998951 
0.0395812 -0.0407497 0.998385 
0.00268858 -0.0297142 0.999555 
0.020158 -0.0131519 0.99971 
0.0189009 -0.0140971 0.999722 
0.0224406 -0.0105515 0.999692 
0.0160857 0.00337275 0.999865 
0.01416 0.0644035 0.997823 
0.0800476 0.0429917 0.995863 
0.0952791 0.0741497 0.992685 
0.142061 0.131286 0.981113 
0.164938 0.111838 0.979943 
0.247416 0.184423 0.951196 
0.341093 0.273737 0.899291 
0.343553 0.25091 0.904995 
0.308668 -0.293449 0.904772 
0.216187 -0.20414 0.954772 
0.192514 -0.191374 0.962452 
0.120705 -0.126324 0.984618 
0.0845246 -0.072101 0.993809 
0.101519 -0.0614647 0.992933 
0.0421472 -0.036007 0.998462 
0.049875 -0.0420527 0.99787 
0.0388808 -0.0307314 0.998771 
0.046721 -0.0386059 0.998162 
0.0333567 -0.0309757 0.998963 
0.0148912 -0.043996 0.998921 
0.0381423 -0.0180289 0.99911 
0.0165703 -0.0263656 0.999515 
0.0117899 -0.0360052 0.999282 
0.00686277 -0.0130318 0.999892 
-0.00370509 -0.0108662 0.999934 
0.000865664 -0.00450385 0.999989 
0.0185063 -0.000479944 0.999829 
-0.0016029 0.00972285 0.999951 
-0.00448333 0.034842 0.999383 
0.0567857 -0.00426333 0.998377 
0.0346144 0.0562777 0.997815 
0.0984588 0.100107 0.990093 
0.115243 0.0815896 0.989981 
0.172835 0.135722 0.975555 
0.237128 0.192884 0.952138 
0.220897 0.216587 0.950944 
0.296556 0.267327 0.916837 
0.307956 -0.280704 0.909048 
0.195844 -0.197708 0.960498 
0.141143 -0.127585 0.981734 
0.139139 -0.114979 0.983575 
0.0875356 -0.0670436 0.993903 
0.0557269 -0.0349283 0.997835 
0.0416252 -0.0459633 0.998076 
0.0198499 -0.0209674 0.999583 
0.0289751 -0.0249949 0.999268 
0.0193585 -0.0233178 0.999541 
0.0248901 -0.0197393 0.999495 
0.00899272 -0.0181789 0.999794 
0.00599606 -0.046878 0.998883 
0.0102095 -0.0285243 0.999541 
0.00443588 -0.0245481 0.999689 
0.00847097 -0.0153751 0.999846 
0.0175125 -0.00535306 0.999832 
0.0006079 -0.00963007 0.999953 
-0.0106499 0.0083194 0.999909 
-0.00681301 0.0121449 0.999903 
0.00767087 0.00712558 0.999945 
0.0120199 0.0300899 0.999475 
0.0294404 0.00491613 0.999554 
0.00200445 0.0557177 0.998445 
0.0527311 0.069021 0.996221 
0.0663809 0.0539167 0.996337 
0.100222 0.0825277 0.991537 
0.153985 0.153687 0.976048 
0.154619 0.165994 0.97393 
0.21029 0.20411 0.956095 
0.243702 0.326939 0.913083 
0.274346 -0.267569 0.923656 
0.17611 -0.172675 0.969107 
0.134372 -0.110138 0.984791 
0.0859608 -0.0912127 0.992114 
0.0419474 -0.053192 0.997703 
0.0185941 -0.0232926 0.999556 
0.0182743 -0.0403103 0.99902 
0.0123458 -0.017402 0.999772 
0.0127767 -0.0245548 0.999617 
0.00319844 0.00111254 0.999994 
0.0047664 -0.0187393 0.999813 
0.0219751 -0.012202 0.999684 
0.0223641 -0.0215261 0.999518 
0.0223709 -0.0151983 0.999634 
0.013003 -0.0118621 0.999845 
0.000976465 -0.0145231 0.999894 
0.00553195 -0.0111618 0.999922 
0.0127402 -0.00527329 0.999905 
0.00698594 0.00318974 0.999971 
-0.00513674 0.00251476 0.999984 
0.0160076 -0.00324684 0.999867 
0.00129017 0.0159297 0.999872 
0.0102532 0.0228727 0.999686 
0.0103371 0.0280191 0.999554 
0.039616 0.0336089 0.99865 
0.0450669 0.052782 0.997589 
0.074285 0.0647651 0.995132 
0.112619 0.0961384 0.988976 
0.132018 0.155111 0.979036 
0.18379 0.225715 0.956699 
0.236452 0.37009 0.898401 
0.240827 -0.268782 0.932608 
0.169451 -0.163882 0.971817 
0.125837 -0.0985556 0.987143 
0.0990328 -0.0733214 0.992379 
0.0489823 -0.0485802 0.997618 
0.0125816 -0.0144176 0.999817 
0.00704464 -0.010062 0.999925 
0.00797997 -0.0209456 0.999749 
0.00114368 0.000366243 0.999999 
0.00940907 -0.0079369 0.999924 
0.0215541 -0.00450676 0.999758 
0.00668919 -0.0347399 0.999374 
0.0207643 -0.0174201 0.999633 
0.0104145 -0.0179316 0.999785 
0.0195076 0.00278639 0.999806 
0.0169202 -0.0117191 0.999788 
0.00769281 -0.0189188 0.999791 
0.0133866 -0.00388312 0.999903 
0.00877656 0.00126887 0.999961 
0.0191285 0.00135856 0.999816 
0.0106828 0.00474312 0.999932 
0.0118108 0.0157653 0.999806 
-0.00250218 0.0152828 0.99988 
0.015176 0.0221059 0.99964 
0.01644 0.0178574 0.999705 
0.0247499 0.005947 0.999676 
0.0199956 0.0412134 0.99895 
0.0599414 0.071673 0.995625 
0.0830695 0.0668594 0.994298 
0.0854524 0.119373 0.989165 
0.135548 0.182923 0.973738 
0.18042 0.272852 0.944987 
0.256525 0.403469 0.878298 
0.209469 -0.259993 0.942617 
0.152465 -0.172544 0.973131 
0.107168 -0.107236 0.988441 
0.0621251 -0.0577797 0.996394 
0.0314904 -0.026255 0.999159 
-1.14303e-05 -0.00598267 0.999982 
0.00121863 -0.000885967 0.999999 
0.00651889 0.00595862 0.999961 
-0.00324315 -0.000991365 0.999994 
-0.00795718 -0.0184381 0.999798 
0.00842573 -0.008339 0.99993 
0.0142336 -0.0105802 0.999843 
0.0146258 -0.0177391 0.999736 
0.0176413 -0.00964599 0.999798 
0.0296322 -0.0223016 0.999312 
0.0237353 -0.0259813 0.999381 
0.0285403 -0.0105091 0.999537 
0.0280546 -0.00815184 0.999573 
0.020772 0.00384508 0.999777 
0.0143539 0.00241493 0.999894 
0.0188581 -0.0022267 0.99982 
0.0159921 0.0208418 0.999655 
0.0205618 0.0157437 0.999665 
-0.00260765 0.00346557 0.999991 
0.0084256 0.0279928 0.999573 
0.00687897 0.0317067 0.999474 
0.00437982 0.00832401 0.999956 
0.0115678 0.0195898 0.999741 
0.0194231 0.0425652 0.998905 
0.0486871 0.044026 0.997843 
0.0638434 0.0734636 0.995252 
0.100306 0.130617 0.986346 
0.151537 0.188423 0.970326 
0.202673 0.276395 0.93943 
0.294874 0.399011 0.868239 
0.166504 -0.256101 0.952202 
0.120688 -0.160912 0.979562 
0.0971197 -0.102419 0.989989 
0.0579237 -0.0636628 0.996289 
0.0268798 -0.025906 0.999303 
0.00558649 0.00333984 0.999979 
-0.00195541 0.00884443 0.999959 
-0.00706848 0.00341837 0.999969 
-0.00173604 0.012365 0.999922 
0.00435183 -0.017258 0.999842 
0.00779563 -0.0154065 0.999851 
0.00757669 -0.00911139 0.99993 
0.0116898 -0.0234167 0.999657 
0.0293592 -0.00777702 0.999539 
0.0278706 -0.0154955 0.999491 
0.0387679 -0.0227295 0.99899 
0.0323383 0.000536142 0.999477 
0.0348353 -0.0015158 0.999392 
0.01514 0.00692158 0.999861 
0.0142863 0.00125801 0.999897 
0.00988327 -0.00504069 0.999938 
0.0185961 0.0076827 0.999798 
0.0265488 0.0137303 0.999553 
0.0166642 0.00764019 0.999832 
-0.000259584 0.0087735 0.999961 
0.0133977 0.0100322 0.99986 
0.025236 0.0257931 0.999349 
0.0212988 0.0176954 0.999617 
0.0232551 0.0306398 0.99926 
0.0596531 0.0540579 0.996754 
0.0758856 0.0880602 0.99322 
0.0995755 0.101792 0.98981 
0.15882 0.177576 0.971207 
0.207512 0.268179 0.940754 
0.301936 0.35281 0.885641 
0.10913 -0.278441 0.954233 
0.0704319 -0.1795 0.981233 
0.0576611 -0.0807861 0.995062 
0.0367838 -0.0471602 0.99821 
0.0141949 -0.0277063 0.999515 
0.0200115 0.0129705 0.999716 
0.015628 0.0224087 0.999627 
-0.00341193 0.00734699 0.999967 
0.00218841 0.0241457 0.999706 
0.0200758 0.0300759 0.999346 
0.0192227 -0.00266683 0.999812 
0.0170896 0.000489119 0.999854 
0.0211868 0.00296102 0.999771 
0.0349243 -0.020089 0.999188 
0.0270223 -0.0242151 0.999341 
0.0292219 -0.0104624 0.999518 
0.0236487 -0.0127227 0.999639 
0.0216019 -0.0281254 0.999371 
0.0144835 -0.000862382 0.999895 
0.0289399 -0.012987 0.999497 
0.0392032 -0.0111654 0.999169 
0.000657198 0.0234647 0.999724 
0.00119625 -0.0131005 0.999913 
0.0208622 0.0194529 0.999593 
0.0234728 0.0111666 0.999662 
0.013267 -0.010431 0.999858 
0.0184636 0.00350937 0.999823 
0.0226256 0.0144863 0.999639 
0.0223186 0.0147124 0.999643 
0.0313656 0.0089373 0.999468 
0.0471025 0.0223398 0.99864 
0.0602266 0.0587066 0.996457 
0.0473527 0.0717306 0.996299 
0.0924281 0.105678 0.990096 
0.159698 0.187096 0.969274 
0.19008 0.23413 0.953442 
0.268629 0.320978 0.908191 
0.0703802 -0.313826 0.946868 
0.052455 -0.20978 0.97634 
0.0355241 -0.124993 0.991521 
0.0291613 -0.0416595 0.998706 
0.00756012 -0.00824109 0.999937 
-0.0273034 0.00192833 0.999625 
-0.0148018 0.029938 0.999442 
-0.0191379 0.0206087 0.999604 
-0.0205051 0.00611331 0.999771 
-0.00425844 0.0293561 0.99956 
-0.00225525 -0.00745203 0.99997 
0.00520567 -0.0022139 0.999984 
0.0102443 -0.0031288 0.999943 
0.0273142 -0.0255537 0.9993 
0.0345535 -0.0262475 0.999058 
0.0382998 -0.0123163 0.99919 
0.0232621 -0.0300322 0.999278 
0.0505791 -0.0353822 0.998093 
0.0186747 -0.018124 0.999661 
0.0120853 -0.0305437 0.99946 
0.0443436 -0.0141711 0.998916 
0.00276111 0.0258384 0.999662 
-0.00747789 -0.0326068 0.99944 
0.00835717 0.00149472 0.999964 
0.0057721 0.0120625 0.999911 
0.0122409 -0.0052949 0.999911 
0.00856143 0.0193091 0.999777 
0.0110467 0.00845507 0.999903 
0.0223525 0.0135786 0.999658 
0.0351053 0.0156476 0.999261 
0.0503693 0.0134168 0.998641 
0.0617005 0.0350618 0.997479 
0.065319 0.0519069 0.996513 
0.102856 0.0974593 0.98991 
0.129309 0.150434 0.980127 
0.129305 0.192394 0.972762 
0.2084 0.305009 0.929268 
0.0663539 -0.362541 0.929603 
0.0578669 -0.203495 0.977364 
0.0254471 -0.122196 0.99218 
0.0272182 -0.0526432 0.998242 
0.0284615 -0.00567999 0.999579 
-0.00136264 0.00134137 0.999998 
-0.0101542 0.0143433 0.999846 
-0.00416367 0.0240975 0.999701 
0.00888605 0.0203362 0.999754 
0.0148788 0.0251899 0.999572 
0.0185265 -8.10248e-05 0.999828 
0.0154793 -0.00631523 0.99986 
0.0221392 0.00255735 0.999752 
0.0242572 -0.0131299 0.99962 
0.0229577 -0.0127197 0.999656 
0.0305272 -0.0166355 0.999395 
0.0395247 -0.0323765 0.998694 
0.0334983 -0.0270807 0.999072 
0.0392633 -0.0282595 0.998829 
0.0415158 -0.00822752 0.999104 
0.0112999 -0.0063772 0.999916 
-0.00294562 -0.0242975 0.9997 
0.0129522 4.46061e-05 0.999916 
0.0173016 -0.0360742 0.999199 
0.0046047 -0.0125309 0.999911 
-0.00812642 0.0145156 0.999862 
0.00319141 0.00114555 0.999994 
0.0143535 0.01019 0.999845 
0.022418 0.00194833 0.999747 
0.0269727 0.000294485 0.999636 
0.0196839 0.00646724 0.999785 
0.0146542 0.0149611 0.999781 
0.0220858 0.0117967 0.999686 
0.0359425 0.0110221 0.999293 
0.0500854 0.0418629 0.997867 
0.0781939 0.0830095 0.993476 
0.0941301 0.143373 0.985182 
0.104487 0.201306 0.97394 
0.121964 0.317097 0.940518 
0.0688374 -0.378762 0.922931 
0.0272804 -0.219207 0.975297 
0.0176144 -0.147145 0.988958 
-0.00263162 -0.0751435 0.997169 
-0.00896802 -0.020283 0.999754 
-0.0127455 0.0027015 0.999915 
-0.00441435 0.012558 0.999911 
0.00739956 0.023428 0.999698 
0.00167965 0.0218939 0.999759 
0.00400054 0.0208844 0.999774 
0.00651341 0.0101977 0.999927 
0.0193624 0.00309656 0.999808 
0.0249975 0.0134783 0.999597 
0.0381643 -0.00382521 0.999264 
0.0339395 0.00248695 0.999421 
0.0368684 -0.00623912 0.999301 
0.0417878 -0.0291031 0.998703 
0.0232066 -0.0358233 0.999089 
0.022905 -0.0430389 0.998811 
0.0310833 -0.0012798 0.999516 
0.0348681 -0.0233744 0.999119 
0.018627 -0.0365798 0.999157 
0.0239333 -0.00944057 0.999669 
0.0153107 -0.0294477 0.999449 
-0.0155125 0.0068059 0.999857 
0.00620426 -0.00386709 0.999973 
0.0179998 -0.0195376 0.999647 
0.0146022 -0.00979229 0.999845 
0.0177146 -0.0106021 0.999787 
0.0317009 -0.000652886 0.999497 
0.0175257 -0.0148343 0.999736 
0.0270273 0.0106821 0.999578 
0.0513137 0.0215123 0.998451 
0.0430946 0.0069985 0.999046 
0.044681 0.0351916 0.998381 
0.0588498 0.0756132 0.995399 
0.100117 0.147773 0.983941 
0.0994085 0.228548 0.968444 
0.0925761 0.349418 0.932382 
0.0491288 -0.37337 0.926381 
0.0233856 -0.24693 0.968751 
0.0275113 -0.186367 0.982095 
0.0249548 -0.0950093 0.995164 
-0.000501124 -0.031278 0.999511 
-0.00404237 0.00118841 0.999991 
0.0017105 0.0218067 0.999761 
-0.00596466 0.0264295 0.999633 
-0.00604918 0.0254565 0.999658 
-0.00772763 0.019951 0.999771 
-0.00222222 0.00892716 0.999958 
0.00366647 0.0069685 0.999969 
0.00633053 0.00357694 0.999974 
0.0236318 -0.0135186 0.999629 
0.0333691 -0.0149241 0.999332 
0.0308265 -0.00807719 0.999492 
0.0438408 -0.022422 0.998787 
0.0325792 -0.0186498 0.999295 
0.0289908 -0.0233029 0.999308 
0.0291474 -0.0315991 0.999076 
0.0213036 -0.0294987 0.999338 
0.0292323 -0.0300847 0.99912 
0.00186831 -0.00851219 0.999962 
-0.0116452 -0.00912911 0.999891 
0.00186691 -0.00750738 0.99997 
0.0328174 -0.0312649 0.998972 
0.016301 0.00542615 0.999852 
-0.000292283 0.00325271 0.999995 
0.029561 -0.00940508 0.999519 
0.0472149 0.00323339 0.99888 
0.0256174 -0.0345517 0.999075 
0.036837 -0.0203165 0.999115 
0.0424914 -0.0144699 0.998992 
0.0163406 0.0106503 0.99981 
0.0106143 0.0327652 0.999407 
0.0384723 0.0643026 0.997189 
0.0659922 0.166142 0.983891 
0.0786173 0.255228 0.96368 
0.111674 0.370451 0.922114 
0.0202578 -0.392293 0.919617 
0.0209314 -0.248995 0.968278 
0.027004 -0.144862 0.989083 
0.00474857 -0.0445789 0.998995 
-0.0024347 -0.0191802 0.999813 
0.0151827 0.0166861 0.999745 
-0.00154991 0.0312333 0.999511 
-0.0134289 0.0247947 0.999602 
0.000461179 0.0184281 0.99983 
0.0109763 0.0137781 0.999845 
0.0237784 0.0152412 0.999601 
0.0284794 0.00912161 0.999553 
0.0278449 -0.00289494 0.999608 
0.036806 -0.0101408 0.999271 
0.035108 -0.0141969 0.999283 
0.0412774 -0.0217636 0.998911 
0.0469658 -0.0205172 0.998686 
0.0324276 -0.00254737 0.999471 
0.0325312 -0.00536016 0.999456 
0.0314155 -0.0286654 0.999095 
0.000516384 -0.00961078 0.999954 
-0.00390752 -0.0301071 0.999539 
-0.00219615 -0.0257286 0.999667 
-0.00249829 -0.0170838 0.999851 
0.00822247 -0.0243609 0.999669 
0.00472511 -0.035416 0.999361 
-0.00161717 -0.012592 0.999919 
-0.0207641 0.0129817 0.9997 
-0.0125073 -0.0523704 0.998549 
0.00798482 -0.0385472 0.999225 
0.019939 0.00606789 0.999783 
0.000856773 -0.0456664 0.998956 
0.00800704 -0.0319074 0.999459 
0.0283746 0.00489866 0.999585 
0.0484159 0.0243541 0.99853 
0.055541 0.0240181 0.998167 
0.0632745 0.0991469 0.993059 
0.0743055 0.214796 0.973828 
0.126983 0.356268 0.925715 
0.0220817 -0.418719 0.907847 
0.0291729 -0.289541 0.956721 
0.00502496 -0.182127 0.983262 
0.012865 -0.0844807 0.996342 
0.00204481 -0.0453681 0.998968 
0.00565786 -0.00760444 0.999955 
0.0103312 0.0235983 0.999668 
-0.00118656 0.0243487 0.999703 
0.00791159 0.01819 0.999803 
0.0123327 0.0173846 0.999773 
0.00623887 0.0193779 0.999793 
0.0216943 0.0134607 0.999674 
0.0278116 0.0119246 0.999542 
0.0250774 0.00266245 0.999682 
0.0403797 -0.00574226 0.999168 
0.0427724 -0.00790338 0.999054 
0.035936 -0.0145512 0.999248 
0.0185866 -0.0102265 0.999775 
0.0298766 -0.023578 0.999275 
0.0241234 -0.0125514 0.99963 
0.00208868 -0.0117153 0.999929 
0.0178696 -0.0210457 0.999619 
-0.000762279 -0.0356094 0.999365 
-1.87718e-06 -0.0241066 0.999709 
-0.0034241 -0.0260598 0.999655 
-0.0160108 -0.0376227 0.999164 
0.00948612 -0.0182871 0.999788 
0.0462241 -0.0349246 0.99832 
0.0393171 -0.054435 0.997743 
0.0283685 0.00123092 0.999597 
0.0509786 -0.00537405 0.998685 
0.0410293 -0.0477073 0.998018 
0.0131754 -0.0275491 0.999534 
0.0269663 -0.0135944 0.999544 
0.0376627 0.0039808 0.999283 
0.0277533 0.056665 0.998007 
0.0458302 0.129267 0.99055 
0.0819676 0.198487 0.97667 
0.128735 0.321705 0.938047 
0.056358 -0.441703 0.895389 
0.0366134 -0.253437 0.966659 
0.0208399 -0.134828 0.99065 
0.017708 -0.0595353 0.998069 
0.00339989 -0.0160766 0.999865 
0.00454209 0.0168585 0.999848 
-0.00214164 0.0136229 0.999905 
0.00360766 0.0155329 0.999873 
0.0195684 0.0201247 0.999606 
-0.000743229 0.0319557 0.999489 
-0.000253191 0.00343129 0.999994 
0.0339018 0.00628658 0.999405 
0.0362597 0.0127403 0.999261 
0.0441836 -0.0155805 0.998902 
0.038178 -0.00958283 0.999225 
0.0364731 -0.00311919 0.99933 
0.0210415 -0.0189675 0.999599 
0.0228027 -0.036103 0.999088 
0.0198507 -0.0262396 0.999459 
0.0106322 -0.030819 0.999468 
-0.0135972 -0.0250326 0.999594 
0.00591625 -0.0235513 0.999705 
-0.00014278 -0.0287914 0.999585 
-0.0199984 -0.0257166 0.999469 
-0.0064681 -0.0127687 0.999898 
0.000927619 -0.0259305 0.999663 
-0.0175241 -0.0437248 0.99889 
0.00597007 -0.0313397 0.999491 
0.0164989 -0.03893 0.999106 
0.00151732 -0.0468721 0.9989 
0.0148213 -0.0478293 0.998746 
0.0439122 -0.0547662 0.997533 
0.0312729 -0.0437265 0.998554 
0.0115599 -0.0407691 0.999102 
0.012511 -0.0301129 0.999468 
0.00658086 0.0281654 0.999582 
0.0157805 0.0979232 0.995069 
0.0336313 0.150355 0.98806 
0.0728188 0.268398 0.960552 
0.0731802 -0.417245 0.905843 
0.0538746 -0.288284 0.956028 
0.0282321 -0.176096 0.983968 
0.0194168 -0.0895506 0.995793 
0.00364534 -0.0361647 0.999339 
0.0110987 0.00660122 0.999917 
0.0144001 0.0187958 0.99972 
0.0100269 0.0121744 0.999876 
0.019601 0.00887259 0.999769 
0.0137051 0.0360985 0.999254 
0.000176797 0.0251813 0.999683 
0.0317317 -0.00989967 0.999447 
0.0397788 0.0159327 0.999081 
0.0276694 0.0141719 0.999517 
0.0349766 -0.00460385 0.999378 
0.0429176 -0.00568581 0.999062 
0.0516463 -0.00623852 0.998646 
0.045846 -0.0152366 0.998832 
0.0379646 -0.010155 0.999227 
-0.00163314 -0.0177175 0.999842 
-0.0200215 -0.0296074 0.999361 
-0.0100241 -0.0236477 0.99967 
-0.0261898 -0.0208589 0.999439 
-0.0307671 -0.0352493 0.998905 
-0.00665098 -0.0490719 0.998773 
-0.016145 -0.0423692 0.998972 
-0.00383827 -0.038652 0.999245 
-0.00543182 -0.0266697 0.99963 
0.00569835 -0.0301125 0.99953 
0.0166006 -0.0660286 0.99768 
0.0016794 -0.0568163 0.998383 
0.0150595 -0.0427508 0.998972 
0.0146103 -0.035653 0.999257 
0.00602197 -0.0212339 0.999756 
0.000249985 -0.0215403 0.999768 
0.00511723 0.0426818 0.999076 
0.0113901 0.0996668 0.994956 
0.00558289 0.148634 0.988876 
-0.000235208 0.241308 0.970449 
0.0839595 -0.359476 0.92937 
0.0439789 -0.231376 0.97187 
0.0341345 -0.120009 0.992186 
0.019739 -0.063105 0.997812 
0.0228811 -0.0321092 0.999222 
0.0279439 0.0061862 0.99959 
0.0162303 0.0219138 0.999628 
0.00736228 0.0117713 0.999904 
0.000460037 0.00453329 0.99999 
0.00891837 0.0248398 0.999652 
0.0455646 0.00197875 0.998959 
0.030645 0.0226771 0.999273 
0.0148826 0.0237632 0.999607 
0.0308979 0.000959579 0.999522 