# vtk DataFile Version 3.0 
Exported using Morpho https://github.com/Morpho-lang/morpho 
ASCII 
DATASET UNSTRUCTURED_GRID 

POINTS 1245 float 
-0.303845 -0.952721 0 
-0.250833 -0.96803 0 
-0.195084 -0.980787 0 
-0.146308 -0.989239 0 
-0.0940719 -0.995565 0 
-0.0475118 -0.998871 0 
-0.000246339 -1 0 
0.0470875 -0.998891 0 
0.0937543 -0.995595 0 
0.146139 -0.989264 0 
0.195062 -0.980791 0 
0.250843 -0.968028 0 
0.303953 -0.952687 0 
-0.409153 -0.912466 0 
-0.356519 -0.934288 0 
-0.308871 -0.898929 0 
-0.258282 -0.916037 0 
-0.207345 -0.934859 0 
-0.154868 -0.930629 0 
-0.104343 -0.948989 0 
-0.0520099 -0.939193 0 
-8.5762e-05 -0.954582 0 
0.0518744 -0.939288 0 
0.104354 -0.949042 0 
0.154696 -0.9306 0 
0.207366 -0.934975 0 
0.258274 -0.916081 0 
0.308979 -0.898924 0 
0.356593 -0.93426 0 
0.409236 -0.912429 0 
-0.513788 -0.857917 0 
-0.461695 -0.887039 0 
-0.411157 -0.857936 0 
-0.359855 -0.879963 0 
-0.306888 -0.847481 0 
-0.254732 -0.866979 0 
-0.201991 -0.889059 0 
-0.149956 -0.874108 0 
-0.100608 -0.900088 0 
-0.0497575 -0.880388 0 
2.4595e-05 -0.904789 0 
0.0496869 -0.8804 0 
0.100612 -0.900177 0 
0.149872 -0.874171 0 
0.202071 -0.889165 0 
0.254695 -0.867031 0 
0.306946 -0.847482 0 
0.359894 -0.879943 0 
0.411236 -0.857929 0 
0.461748 -0.887011 0 
0.513842 -0.857885 0 
-0.564741 -0.825268 0 
-0.512908 -0.802945 0 
-0.462372 -0.832348 0 
-0.410124 -0.804631 0 
-0.358606 -0.827415 0 
-0.305781 -0.795641 0 
-0.25358 -0.816639 0 
-0.200756 -0.839997 0 
-0.149043 -0.818944 0 
-0.0987265 -0.846667 0 
-0.0490473 -0.822548 0 
5.00659e-05 -0.849932 0 
0.0490834 -0.822542 0 
0.0987838 -0.846676 0 
0.148997 -0.818924 0 
0.200826 -0.840131 0 
0.253508 -0.816728 0 
0.305831 -0.795701 0 
0.358581 -0.827419 0 
0.410181 -0.804654 0 
0.462414 -0.83234 0 
0.512965 -0.802929 0 
0.564777 -0.825243 0 
-0.660798 -0.750564 0 
-0.614015 -0.789295 0 
-0.561786 -0.769772 0 
-0.510673 -0.747856 0 
-0.460836 -0.778365 0 
-0.408794 -0.751554 0 
-0.357337 -0.774971 0 
-0.304815 -0.743684 0 
-0.252907 -0.765535 0 
-0.200631 -0.789263 0 
-0.149244 -0.764328 0 
-0.0986912 -0.791935 0 
-0.0492815 -0.765764 0 
4.16586e-05 -0.79382 0 
0.0492411 -0.765708 0 
0.0987508 -0.791951 0 
0.149196 -0.764326 0 
0.200666 -0.789356 0 
0.252841 -0.765599 0 
0.304862 -0.743741 0 
0.357323 -0.775038 0 
0.408863 -0.751626 0 
0.460863 -0.778382 0 
0.510716 -0.747859 0 
0.561819 -0.769761 0 
0.614041 -0.789274 0 
0.660811 -0.750552 0 
-0.707107 -0.707107 0 
-0.654819 -0.699058 0 
-0.60813 -0.73348 0 
-0.558104 -0.71337 0 
-0.509495 -0.692659 0 
-0.45935 -0.724356 0 
-0.407328 -0.698865 0 
-0.355968 -0.722823 0 
-0.303722 -0.691387 0 
-0.252254 -0.71362 0 
-0.20067 -0.737336 0 
-0.149608 -0.710068 0 
-0.0991558 -0.737129 0 
-0.0495872 -0.709825 0 
-2.23646e-05 -0.737917 0 
0.0494408 -0.709766 0 
0.0991291 -0.737116 0 
0.149502 -0.710042 0 
0.200696 -0.73743 0 
0.252186 -0.713735 0 
0.303753 -0.691518 0 
0.355952 -0.722893 0 
0.407371 -0.698945 0 
0.459374 -0.724407 0 
0.509524 -0.692668 0 
0.558131 -0.713361 0 
0.608151 -0.733462 0 
0.654824 -0.699048 0 
0.707107 -0.707107 0 
-0.750564 -0.660798 0 
-0.699058 -0.654819 0 
-0.647692 -0.647692 0 
-0.603437 -0.675718 0 
-0.55905 -0.655305 0 
-0.508501 -0.639581 0 
-0.457509 -0.671321 0 
-0.405555 -0.646545 0 
-0.354417 -0.670703 0 
-0.302427 -0.639219 0 
-0.251503 -0.661417 0 
-0.20061 -0.684911 0 
-0.149717 -0.655943 0 
-0.0995004 -0.682466 0 
-0.0498216 -0.654561 0 
-5.02113e-05 -0.682664 0 
0.0496787 -0.654499 0 
0.0994374 -0.682501 0 
0.149603 -0.655909 0 
0.200573 -0.684972 0 
0.251388 -0.661524 0 
0.302407 -0.639359 0 
0.354397 -0.670836 0 
0.405575 -0.646641 0 
0.457525 -0.67138 0 
0.508497 -0.639623 0 
0.559063 -0.655324 0 
0.603436 -0.675715 0 
0.64769 -0.64769 0 
0.699048 -0.654824 0 
0.750552 -0.660811 0 
-0.789295 -0.614015 0 
-0.73348 -0.60813 0 
-0.675718 -0.603437 0 
-0.613088 -0.613088 0 
-0.55962 -0.604068 0 
-0.506189 -0.588854 0 
-0.455505 -0.618874 0 
-0.403019 -0.594688 0 
-0.352514 -0.618952 0 
-0.300977 -0.586897 0 
-0.250543 -0.608767 0 
-0.200257 -0.632053 0 
-0.150049 -0.601979 0 
-0.0998281 -0.628222 0 
-0.0500377 -0.599914 0 
-3.12334e-05 -0.628076 0 
0.0498927 -0.599835 0 
0.0997818 -0.628253 0 
0.149924 -0.601867 0 
0.200214 -0.632118 0 
0.250423 -0.608915 0 
0.30086 -0.587085 0 
0.352457 -0.619096 0 
0.402948 -0.594743 0 
0.455483 -0.618952 0 
0.506147 -0.588901 0 
0.55964 -0.604067 0 
0.613069 -0.613069 0 
0.675715 -0.603436 0 
0.733462 -0.608151 0 
0.789274 -0.614041 0 
-0.825268 -0.564741 0 
-0.769772 -0.561786 0 
-0.71337 -0.558104 0 
-0.655305 -0.55905 0 
-0.604068 -0.55962 0 
-0.551031 -0.551031 0 
-0.497922 -0.537596 0 
-0.451508 -0.567021 0 
-0.399773 -0.542431 0 
-0.350494 -0.567003 0 
-0.301574 -0.534146 0 
-0.250874 -0.555692 0 
-0.200542 -0.579013 0 
-0.150324 -0.548268 0 
-0.100169 -0.57443 0 
-0.0500152 -0.545912 0 
-3.29278e-05 -0.574268 0 
0.0499208 -0.545788 0 
0.100058 -0.574485 0 
0.150038 -0.548073 0 
0.200377 -0.579041 0 
0.250556 -0.55585 0 
0.301273 -0.534348 0 
0.350318 -0.567174 0 
0.399615 -0.542384 0 
0.451404 -0.5671 0 
0.497945 -0.537702 0 
0.551073 -0.551073 0 
0.604067 -0.55964 0 
0.655324 -0.559063 0 
0.713361 -0.558131 0 
0.769761 -0.561819 0 
0.825243 -0.564777 0 
-0.857917 -0.513788 0 
-0.802945 -0.512908 0 
-0.747856 -0.510673 0 
-0.692659 -0.509495 0 
-0.639581 -0.508501 0 
-0.588854 -0.506189 0 
-0.537596 -0.497922 0 
-0.486157 -0.486157 0 
-0.444928 -0.512952 0 
-0.401787 -0.486784 0 
-0.351685 -0.513639 0 
-0.299695 -0.48291 0 
-0.250032 -0.503 0 
-0.200501 -0.526165 0 
-0.149489 -0.495195 0 
-0.0999281 -0.521367 0 
-0.0499712 -0.492294 0 
4.64723e-05 -0.520999 0 
0.050147 -0.492108 0 
0.099934 -0.52133 0 
0.14957 -0.494692 0 
0.200133 -0.526255 0 
0.249839 -0.503309 0 
0.299839 -0.483005 0 
0.351514 -0.513798 0 
0.401881 -0.486608 0 
0.444935 -0.513054 0 
0.486228 -0.486228 0 
0.537702 -0.497945 0 
0.588901 -0.506147 0 
0.639623 -0.508497 0 
0.692668 -0.509524 0 
0.747859 -0.510716 0 
0.802929 -0.512965 0 
0.857885 -0.513842 0 
-0.887039 -0.461695 0 
-0.832348 -0.462372 0 
-0.778365 -0.460836 0 
-0.724356 -0.45935 0 
-0.671321 -0.457509 0 
-0.618874 -0.455505 0 
-0.567021 -0.451508 0 
-0.512952 -0.444928 0 
-0.450685 -0.450685 0 
-0.397667 -0.437543 0 
-0.348492 -0.462546 0 
-0.295416 -0.432968 0 
-0.247004 -0.450633 0 
-0.198702 -0.473818 0 
-0.150161 -0.441625 0 
-0.100085 -0.468395 0 
-0.0502271 -0.439281 0 
0.000144229 -0.468374 0 
0.0504178 -0.439106 0 
0.100428 -0.468348 0 
0.150697 -0.441105 0 
0.199103 -0.473881 0 
0.247983 -0.450921 0 
0.296569 -0.432268 0 
0.348831 -0.462562 0 
0.397506 -0.4368 0 
0.450637 -0.450637 0 
0.513054 -0.444935 0 
0.5671 -0.451404 0 
0.618952 -0.455483 0 
0.67138 -0.457525 0 
0.724407 -0.459374 0 
0.778382 -0.460863 0 
0.83234 -0.462414 0 
0.887011 -0.461748 0 
-0.912466 -0.409153 0 
-0.857936 -0.411157 0 
-0.804631 -0.410124 0 
-0.751554 -0.408794 0 
-0.698865 -0.407328 0 
-0.646545 -0.405555 0 
-0.594688 -0.403019 0 
-0.542431 -0.399773 0 
-0.486784 -0.401787 0 
-0.437543 -0.397667 0 
-0.387256 -0.387256 0 
-0.344215 -0.411459 0 
-0.30136 -0.381507 0 
-0.25021 -0.395692 0 
-0.200211 -0.419975 0 
-0.150955 -0.389014 0 
-0.100617 -0.416095 0 
-0.0503197 -0.386922 0 
-4.02994e-05 -0.416525 0 
0.05006 -0.386948 0 
0.100784 -0.416323 0 
0.150432 -0.388572 0 
0.200855 -0.420694 0 
0.25086 -0.396905 0 
0.301746 -0.379789 0 
0.344135 -0.410678 0 
0.385823 -0.385823 0 
0.4368 -0.397506 0 
0.486608 -0.401881 0 
0.542384 -0.399615 0 
0.594743 -0.402948 0 
0.646641 -0.405575 0 
0.698945 -0.407371 0 
0.751626 -0.408863 0 
0.804654 -0.410181 0 
0.857929 -0.411236 0 
0.912429 -0.409236 0 
-0.934288 -0.356519 0 
-0.879963 -0.359855 0 
-0.827415 -0.358606 0 
-0.774971 -0.357337 0 
-0.722823 -0.355968 0 
-0.670703 -0.354417 0 
-0.618952 -0.352514 0 
-0.567003 -0.350494 0 
-0.513639 -0.351685 0 
-0.462546 -0.348492 0 
-0.411459 -0.344215 0 
-0.351697 -0.351697 0 
-0.29839 -0.336232 0 
-0.249846 -0.342529 0 
-0.200971 -0.367271 0 
-0.149995 -0.337521 0 
-0.100435 -0.3646 0 
-0.0498692 -0.335025 0 
-6.88684e-05 -0.365025 0 
0.0495433 -0.334795 0 
0.0996798 -0.364834 0 
0.148162 -0.337172 0 
0.199644 -0.368939 0 
0.24763 -0.345582 0 
0.295348 -0.332889 0 
0.34978 -0.34978 0 
0.410678 -0.344135 0 
0.462562 -0.348831 0 
0.513798 -0.351514 0 
0.567174 -0.350318 0 
0.619096 -0.352457 0 
0.670836 -0.354397 0 
0.722893 -0.355952 0 
0.775038 -0.357323 0 
0.827419 -0.358581 0 
0.879943 -0.359894 0 
0.93426 -0.356593 0 
-0.952721 -0.303845 0 
-0.898929 -0.308871 0 
-0.847481 -0.306888 0 
-0.795641 -0.305781 0 
-0.743684 -0.304815 0 
-0.691387 -0.303722 0 
-0.639219 -0.302427 0 
-0.586897 -0.300977 0 
-0.534146 -0.301574 0 
-0.48291 -0.299695 0 
-0.432968 -0.295416 0 
-0.381507 -0.30136 0 
-0.336232 -0.29839 0 
-0.288184 -0.288184 0 
-0.242975 -0.290577 0 
-0.198059 -0.315051 0 
-0.148383 -0.285894 0 
-0.0994753 -0.313232 0 
-0.0507184 -0.283118 0 
-0.000202902 -0.313447 0 
0.0500077 -0.282824 0 
0.0988289 -0.312817 0 
0.148102 -0.28482 0 
0.195742 -0.317413 0 
0.240766 -0.295824 0 
0.285014 -0.285014 0 
0.332889 -0.295348 0 
0.379789 -0.301746 0 
0.432268 -0.296569 0 
0.483005 -0.299839 0 
0.534348 -0.301273 0 
0.587085 -0.30086 0 
0.639359 -0.302407 0 
0.691518 -0.303753 0 
0.743741 -0.304862 0 
0.795701 -0.305831 0 
0.847482 -0.306946 0 
0.898924 -0.308979 0 
0.952687 -0.303953 0 
-0.96803 -0.250833 0 
-0.916037 -0.258282 0 
-0.866979 -0.254732 0 
-0.816639 -0.25358 0 
-0.765535 -0.252907 0 
-0.71362 -0.252254 0 
-0.661417 -0.251503 0 
-0.608767 -0.250543 0 
-0.555692 -0.250874 0 
-0.503 -0.250032 0 
-0.450633 -0.247004 0 
-0.395692 -0.25021 0 
-0.342529 -0.249846 0 
-0.290577 -0.242975 0 
-0.239946 -0.239946 0 
-0.194478 -0.26004 0 
-0.151293 -0.23238 0 
-0.101048 -0.260904 0 
-0.0503938 -0.232537 0 
-0.000203281 -0.262984 0 
0.050638 -0.232316 0 
0.100942 -0.260855 0 
0.152412 -0.232597 0 
0.195768 -0.261421 0 
0.241873 -0.241873 0 
0.295824 -0.240766 0 
0.345582 -0.24763 0 
0.396905 -0.25086 0 
0.450921 -0.247983 0 
[...]
POINT_DATA 1245 
VECTORS vectors float
0.198326 -0.145386 0.969293 
0.391027 -0.0687405 0.917809 
0.196227 -0.250725 0.947962 
-0.0108342 -0.0383937 0.999204 
-0.0400181 -0.0389107 0.998441 
0.00750695 -0.0872255 0.99616 
0.0704557 -0.305325 0.949638 
-0.100816 -0.460538 0.881896 
-0.242524 -0.395099 0.886047 
-0.179785 -0.23115 0.956163 
-0.0687739 -0.0934688 0.993244 
0.192383 -0.00407939 0.981312 
-0.0428963 -0.0285293 0.998672 
0.119417 -0.148472 0.98168 
0.167629 -0.244972 0.954929 
0.0811697 -0.218043 0.972558 
0.197658 -0.0820756 0.976829 
0.182516 -0.0513672 0.98186 
0.0304579 0.047759 0.998394 
-0.0558016 0.0244691 0.998142 
-0.0690035 -0.0756402 0.994745 
-0.0932362 -0.223002 0.970349 
-0.116697 -0.334874 0.935009 
-0.17831 -0.343816 0.921952 
-0.0691055 -0.17339 0.982426 
0.00493426 -0.0339258 0.999412 
0.0401868 0.0144887 0.999087 
0.0129959 0.0763219 0.996999 
0.0833626 0.304233 0.948943 
0.0504622 0.177715 0.982787 
0.262901 -0.101936 0.959423 
0.127515 -0.0967549 0.987106 
-0.0309749 -0.0350092 0.998907 
-0.00624907 -0.159635 0.987156 
2.09966e-05 -0.218005 0.975948 
0.068038 -0.130286 0.989139 
0.0773318 0.0187834 0.996828 
-0.00621902 0.039804 0.999188 
-0.0157686 0.036362 0.999214 
0.00484807 0.0140948 0.999889 
-0.068033 -0.135494 0.98844 
0.0259511 -0.181592 0.983032 
-0.0279387 -0.253522 0.966926 
-0.00467199 -0.017861 0.99983 
0.00370538 0.0609917 0.998131 
0.00342464 0.0343181 0.999405 
-0.0634792 0.0492528 0.996767 
0.0130328 0.171234 0.985144 
-0.10226 0.189301 0.97658 
-0.268982 0.283133 0.920589 
-0.0488153 0.299606 0.952813 
-0.119071 0.129508 0.984403 
-0.0327407 0.0200313 0.999263 
0.0445498 0.00616906 0.998988 
0.0326952 -0.0212828 0.999239 
-0.0283319 -0.147273 0.98869 
-0.0365839 -0.16983 0.984794 
-0.033655 -0.143323 0.989104 
-0.00323089 -0.0614483 0.998105 
-0.0422752 -0.0517372 0.997766 
-0.0845479 -0.0299383 0.99597 
-0.0331358 0.0327504 0.998914 
0.059061 0.0461461 0.997187 
0.119514 0.034061 0.992248 
0.103228 -0.0448421 0.993646 
-0.0222024 -0.0218331 0.999515 
-0.026045 0.0215098 0.999429 
-0.0754808 -0.0520518 0.995788 
-0.0698435 0.084663 0.993959 
-0.0718841 0.0571221 0.995776 
-0.00615227 0.0533726 0.998556 
-0.161142 0.175073 0.971279 
-0.094842 -0.0266883 0.995135 
0.0699906 -0.0295783 0.997109 
0.0582074 -0.256834 0.964701 
-0.160117 -0.235683 0.958549 
-0.158159 0.0053416 0.987399 
-0.0773923 0.0477603 0.995856 
0.00930729 0.062799 0.997983 
0.0766821 -0.0958139 0.992441 
0.0297445 -0.157826 0.987019 
-0.0598143 -0.112661 0.991832 
-0.0674657 -0.12138 0.990311 
-0.0639109 -0.0783761 0.994873 
-0.0398969 -0.107906 0.99336 
-0.0870291 -0.0635174 0.994179 
-0.0441368 0.00535822 0.999011 
0.021639 0.108557 0.993855 
0.0278901 0.118104 0.992609 
0.0546158 0.0461323 0.997441 
0.00108241 -0.0565211 0.998401 
-0.0789206 -0.0980236 0.99205 
-0.161014 -0.0783322 0.983839 
-0.174376 0.0111405 0.984616 
0.0160895 -0.0511434 0.998562 
0.0627345 -0.0428361 0.997111 
-0.02177 -0.0088312 0.999724 
0.0722594 -0.143312 0.987036 
0.0281361 -0.0782576 0.996536 
0.0548487 0.120527 0.991194 
0.179505 0.152177 0.971916 
0.00773121 -0.212512 0.977128 
0.0593182 -0.0701122 0.995774 
-0.0515874 -0.0745303 0.995884 
-0.0642042 0.032876 0.997395 
0.0187759 0.0489843 0.998623 
0.0224109 -0.0100526 0.999698 
-0.00723779 -0.0701835 0.997508 
-0.0151483 -0.129026 0.991526 
-0.0453402 -0.0412722 0.998119 
-0.0754769 -0.0443703 0.99616 
-0.074662 -0.0440927 0.996234 
-0.0293392 -0.0968528 0.994866 
0.0106036 -0.0544087 0.998462 
0.0337748 -0.0245894 0.999127 
0.00671344 0.0477593 0.998836 
0.0293965 0.113518 0.993101 
-0.0129065 0.0741087 0.997167 
-0.111397 0.00697008 0.993752 
-0.15386 -0.112433 0.981675 
-0.229816 -0.0725262 0.970528 
-0.152173 -0.0235972 0.988072 
0.0304577 -0.141189 0.989514 
0.00177685 -0.0581602 0.998306 
0.0767813 -0.0510658 0.995739 
0.120095 -0.0870507 0.988938 
0.0952983 -0.0506392 0.99416 
0.0568757 0.0364988 0.997714 
0.0061316 0.0988743 0.995081 
0.133659 0.0132159 0.990939 
-0.033359 -0.158219 0.98684 
-0.0168113 -0.0195002 0.999669 
0.129999 0.0953424 0.98692 
0.124134 0.105657 0.986624 
0.132495 0.113571 0.984656 
0.103939 0.0526471 0.993189 
0.014476 -0.0432022 0.998961 
-0.0353749 -0.0297025 0.998933 
-0.0503556 -0.0168417 0.998589 
-0.0752344 0.0552218 0.995636 
-0.0847458 -0.0284209 0.995997 
-0.0974991 -0.0529828 0.993824 
-0.0246459 -0.0908793 0.995557 
0.0413017 -0.0531581 0.997732 
0.0851231 -0.0343629 0.995778 
0.0650925 0.0248478 0.99757 
0.0860563 0.0670263 0.994033 
-0.00434607 0.124954 0.992153 
-0.100777 0.104255 0.989432 
-0.201224 -0.0164748 0.979407 
-0.178773 -0.0431671 0.982943 
-0.0985087 -0.0382929 0.994399 
-0.0796468 -0.109294 0.990813 
-0.115941 -0.0229004 0.992992 
0.0296071 -0.0365317 0.998894 
0.139352 -0.0853369 0.986559 
0.140707 -0.0408425 0.989208 
0.040625 0.0512209 0.997861 
0.00122853 0.0306815 0.999528 
0.0129638 -0.0531265 0.998504 
0.0605142 0.0239704 0.997879 
-0.0527493 0.0808366 0.995331 
-0.0335732 0.0800942 0.996222 
0.133543 0.114097 0.984453 
0.168931 0.0958305 0.980958 
0.138529 0.0659327 0.988161 
0.0990486 -0.0326022 0.994548 
0.0411738 -0.0635912 0.997126 
-0.0187227 0.0328572 0.999285 
-0.0415492 0.0909206 0.994991 
-0.0346853 0.121525 0.991982 
-0.088465 -0.0422322 0.995184 
-0.0689462 -0.0689631 0.995234 
0.028118 -0.0252043 0.999287 
0.100118 0.0340527 0.994393 
0.136131 0.0291492 0.990262 
0.0694685 -0.0217497 0.997347 
0.0646032 0.00516363 0.997898 
0.0231109 0.121045 0.992378 
-0.00525813 0.089982 0.99593 
-0.121712 0.0156037 0.992443 
-0.0437297 -0.0291837 0.998617 
-0.0457794 0.019927 0.998753 
-0.0759114 -0.0497232 0.995874 
-0.085301 -0.023773 0.996072 
0.0105995 -0.0437461 0.998986 
0.144102 -0.0267545 0.989201 
0.180366 -0.0536684 0.982134 
0.0767906 -0.0152683 0.99693 
-0.0397588 -0.0171673 0.999062 
0.0110185 -0.0439124 0.998975 
0.0976937 0.124834 0.987356 
-0.128489 -0.00594384 0.991693 
-0.00686847 0.0900086 0.995917 
0.110975 0.0725441 0.991172 
0.153207 0.0440183 0.987213 
0.0816727 0.0310439 0.996176 
-0.00956954 -0.00737919 0.999927 
0.00772155 -0.0878557 0.996103 
0.023539 -0.0910214 0.995571 
-0.0129663 0.0213801 0.999687 
-0.0249278 0.168863 0.985324 
-0.00615677 0.06914 0.997588 
-0.0720854 -0.0996125 0.992412 
-0.0588323 -0.119971 0.991033 
0.0323576 0.0110751 0.999415 
0.126641 0.112385 0.985562 
0.16463 0.0677354 0.984027 
0.114412 -0.0299127 0.992983 
0.093217 0.00715309 0.99562 
0.0652945 0.0623432 0.995917 
0.0851321 0.0369095 0.995686 
0.0140441 0.0401238 0.999096 
0.0357845 0.0863064 0.995626 
-0.031874 0.129356 0.991086 
-0.0534374 0.0263533 0.998223 
-0.0327399 0.0130468 0.999379 
0.00777974 -0.0717429 0.997393 
0.0597259 0.00455269 0.998204 
0.170901 0.0357475 0.984639 
0.105248 0.00231556 0.994443 
-0.0333819 0.00740798 0.999415 
-0.0283682 -0.0162201 0.999466 
0.0147674 0.0136339 0.999798 
0.0323718 0.112513 0.993123 
-0.0160213 -0.153753 0.987979 
-0.0113149 -0.014528 0.99983 
0.106368 -0.00140784 0.994326 
0.107925 -0.0214348 0.993928 
0.00905954 -0.00965622 0.999912 
-0.112209 0.038505 0.992938 
-0.0714547 0.00455254 0.997433 
-0.0304504 -0.074613 0.996748 
-4.41075e-05 -0.124273 0.992248 
-0.0564032 -0.121829 0.990947 
-0.0197754 0.0335035 0.999243 
-0.0263812 -0.0524851 0.998273 
-0.0248583 -0.101776 0.994497 
-0.0153407 -0.0813657 0.996566 
0.134826 0.0351759 0.990245 
0.21446 0.0913256 0.972454 
0.22546 0.090851 0.970007 
0.172608 0.0468807 0.983874 
0.138027 0.0789226 0.987279 
0.0905861 0.0213469 0.99566 
0.0727041 -0.0332855 0.996798 
0.0789211 0.0789324 0.993751 
0.0593043 0.15935 0.985439 
0.0214337 0.159867 0.986906 
-0.00808581 0.118018 0.992978 
0.0191241 0.0733306 0.997124 
-0.00994672 0.0230032 0.999686 
-0.0246871 0.0425839 0.998788 
-0.00427926 0.0704635 0.997505 
0.0300158 0.0720619 0.996948 
-0.0284058 0.0939143 0.995175 
-0.04069 0.0881935 0.995272 
0.055431 0.0185934 0.998289 
0.140277 0.0445698 0.989109 
0.31169 0.211536 0.926338 
0.0736719 0.0481285 0.996121 
-0.0358869 0.0538512 0.997904 
0.0720977 0.0198283 0.9972 
0.0701793 -0.0568138 0.995915 
0.0131636 -0.0114314 0.999848 
-0.119001 0.0877181 0.989012 
-0.126484 0.121847 0.984457 
-0.0539275 0.100469 0.993478 
-0.0448887 -0.0314249 0.998498 
-0.0513323 -0.132117 0.989904 
-0.0472825 -0.0949644 0.994357 
-0.0238911 -0.134155 0.990672 
-0.011204 -0.113682 0.993454 
0.0531226 -0.0341624 0.998003 
0.12338 0.0702161 0.989872 
0.199917 0.0774436 0.976748 
0.128976 0.0452596 0.990614 
0.168927 0.0946231 0.981076 
0.092332 0.0869534 0.991924 
0.0895884 0.00495505 0.995967 
-0.00643469 -0.083239 0.996509 
0.0351621 0.0296083 0.998943 
0.0710366 0.123576 0.989789 
0.139632 0.121192 0.982759 
0.0581856 0.0904831 0.994197 
0.129281 0.0639356 0.989545 
0.0332954 0.0846517 0.995854 
-0.0454807 0.0158605 0.998839 
-0.0193405 0.0520681 0.998456 
0.0276952 0.155111 0.987509 
0.00612554 0.172076 0.985065 
0.0554003 0.0770009 0.995491 
0.20986 0.0331026 0.977171 
0.260367 0.0545546 0.963967 
0.327085 -0.0446248 0.943941 
-0.126129 0.212516 0.968983 
-0.132741 0.146552 0.980256 
-0.0585656 0.155631 0.986078 
-0.00552395 0.0927206 0.995677 
-0.0500978 0.0399909 0.997943 
-0.121628 0.0786001 0.989459 
-0.0941141 0.193671 0.976542 
-0.113167 0.182405 0.976689 
-0.0775012 0.15691 0.984567 
-0.0119629 0.0892296 0.995939 
-0.0199556 -0.0753357 0.996959 
-0.00951561 -0.113319 0.993513 
0.0232316 -0.0915774 0.995527 
0.0664219 -0.0846709 0.994193 
0.0794475 -0.0148136 0.996729 
0.0784736 0.0210447 0.996694 
0.0916465 -0.00826661 0.995757 
-0.0106255 -0.14933 0.98873 
0.0482776 0.0455523 0.997795 
0.0338131 0.0250711 0.999114 
0.0495604 -0.0182289 0.998605 
-0.0853781 -0.115332 0.989651 
-0.0468103 -0.0788592 0.995786 
0.0885731 0.0699807 0.993608 
0.204261 0.0940073 0.974392 
0.215827 0.049057 0.975198 
0.211643 0.0499385 0.97607 
0.119551 0.0832057 0.989335 
0.00269978 0.0379322 0.999277 
-0.00282307 -0.0480628 0.99884 
0.0477976 0.0286498 0.998446 
0.0763574 0.156935 0.984653 
0.0200666 0.151539 0.988248 
0.133437 0.0917935 0.986797 
0.258012 0.149664 0.954479 
0.178087 0.0493509 0.982776 
0.0471333 0.0389057 0.998131 
-0.32981 0.124445 0.935809 
-0.20756 0.102708 0.972815 
-0.100605 0.140886 0.984901 
0.0128843 0.171818 0.985045 
-0.0295414 0.0960476 0.994938 
-0.133411 0.0318881 0.990548 
-0.171245 0.0454271 0.984181 
-0.139644 0.126982 0.982026 
-0.124422 0.180404 0.975691 
-0.0951697 0.136173 0.986103 
-0.0233829 -8.94666e-05 0.999727 
0.0341102 -0.0611953 0.997543 
0.0509497 -0.0366335 0.998029 
0.0666886 -0.0260097 0.997435 
0.0821783 -0.0100773 0.996567 
0.0607493 -0.0941341 0.993704 
-0.00315381 -0.186599 0.982431 
-0.0123269 -0.272353 0.962118 
-0.0477657 -0.0900845 0.994788 
-0.0113461 -0.0698445 0.997493 
0.047596 -0.0936752 0.994464 
-0.0894087 -0.0264161 0.995645 
-0.110964 -0.120518 0.98649 
0.00485006 0.0368156 0.99931 
0.105635 0.134634 0.985249 
0.210146 0.0736048 0.974895 
0.173382 0.120877 0.977409 
0.0655804 0.0377621 0.997133 
-0.00991155 -0.0333376 0.999395 
0.0031492 -0.0396363 0.999209 
0.0613929 0.0622917 0.996168 
0.0572588 0.118274 0.991329 
0.0379004 0.0938539 0.994864 
0.124285 0.103138 0.986872 
0.143313 0.139707 0.979767 
-0.0154559 0.00442153 0.999871 
-0.0667904 -0.134338 0.988682 
-0.119638 -0.205335 0.971352 
-0.155378 0.048612 0.986658 
-0.0838948 0.0530702 0.99506 
0.0539906 0.113635 0.992054 
0.117504 0.104787 0.987529 
0.0131882 -0.0388441 0.999158 
-0.035008 -0.0665057 0.997172 
-0.0489594 0.0142838 0.998699 
-0.0646196 0.0886996 0.99396 
-0.0446169 0.0907799 0.994871 
-0.0120146 -0.0146274 0.999821 
0.074092 -0.0517627 0.995907 
0.0866638 0.0342239 0.99565 
0.0916702 0.0602435 0.993965 
0.0987564 0.0384789 0.994367 
0.0802439 -0.0194839 0.996585 
0.100296 -0.193681 0.975924 
0.00249097 -0.275799 0.961212 
0.00341583 -0.248234 0.968694 
0.0103769 -0.132417 0.99114 
0.0374692 -0.104304 0.993839 
-0.0291251 -0.132051 0.990815 
-0.0369534 -0.072018 0.996719 
-0.0734714 -0.136146 0.987961 
-0.0861393 0.0937468 0.991863 
-0.0310012 0.123021 0.99192 
0.0649813 0.128693 0.989553 
0.112137 0.0896737 0.989638 
0.118046 0.0297073 0.992564 
0.0849402 -0.0358183 0.995742 
-0.0040397 -0.0276235 0.99961 
-0.0719017 0.0335769 0.996846 
-0.0127842 0.124163 0.99218 
-0.0327839 0.116034 0.992704 
-0.0471277 0.0897479 0.994849 
-0.0053833 0.11898 0.992882 
0.0731824 0.111091 0.991112 
-0.0208128 0.00811 0.99975 
-0.201072 -0.0419721 0.978677 
0.183832 0.0254656 0.982628 
-0.0516729 -0.00882745 0.998625 
-0.0631649 -0.0452875 0.996975 
0.0339221 -0.019867 0.999227 
0.115719 0.0509157 0.991976 
0.104574 0.0108489 0.994458 
0.0878733 -0.054739 0.994627 
0.048379 -0.00224404 0.998827 
-0.00322446 0.0740806 0.997247 
-0.0659753 0.0631947 0.995818 
-0.0339716 -0.026954 0.999059 
0.0429786 -0.0255803 0.998748 
0.106877 0.0697654 0.991822 
0.130608 0.0866939 0.987636 
0.161756 0.0343902 0.986231 
0.15376 -0.0541846 0.986621 
0.152298 -0.161183 0.975103 
0.021807 -0.250937 0.967758 
0.0534925 -0.08788 0.994694 
0.0753176 -0.0590247 0.995411 
0.112999 -0.101707 0.988376 
0.0448566 -0.14007 0.989125 
-0.0420493 0.00433802 0.999106 
-0.0922099 0.0204953 0.995529 
-0.135661 0.118938 0.98359 
-0.0390621 0.0978309 0.994436 
-0.00756908 0.0406309 0.999146 
0.00310239 -0.0125412 0.999917 
0.0330202 -0.0905733 0.995342 
0.0389043 -0.0762909 0.996326 
-0.0425197 -0.0437955 0.998135 
-0.0063806 0.152286 0.988316 
0.0247273 0.186262 0.982189 
-0.0133979 0.147212 0.989014 
-0.0543084 0.108949 0.992563 
0.0583249 0.0778334 0.995259 
0.115282 0.070348 0.990839 
0.0645974 0.0235926 0.997632 
-0.040292 0.00356895 0.999182 
0.00943597 0.281732 0.959447 
-0.016844 0.0967035 0.995171 
0.0292297 -0.130569 0.991008 
0.0640666 -0.121784 0.990487 
0.0900973 -0.00977701 0.995885 
0.128659 0.0548388 0.990171 
0.120716 0.0658062 0.990503 
0.0691534 0.0731275 0.994922 
-0.00965528 0.122958 0.992365 
-0.0664855 0.114433 0.991204 
-0.0669712 0.032796 0.997216 
-0.00854725 0.00420611 0.999955 
0.0311518 0.0385884 0.998769 
0.102188 0.0452867 0.993734 
0.176014 -0.0338036 0.983807 
0.209871 -0.0821832 0.974269 
0.173584 -0.090055 0.980693 
0.0872614 -0.0579689 0.994497 
0.0834276 0.0823283 0.993107 
0.0982655 -0.0345792 0.994559 
0.0805286 -0.0251744 0.996434 
0.0515795 -0.111706 0.992402 
-0.0847745 0.0609082 0.994537 
-0.115809 0.0692685 0.990853 
-0.0258481 0.0167955 0.999525 
-0.00515051 -0.0165342 0.99985 
-0.108921 0.00694282 0.994026 
-0.129849 -0.0842952 0.987944 
-0.0325693 -0.139992 0.989617 
0.036626 0.0134681 0.999238 
-0.0433206 0.0020448 0.999059 
0.0311949 0.0832664 0.996039 
0.0944508 0.124326 0.987736 
0.0412481 0.128781 0.990815 
0.0155922 0.0449334 0.998868 
0.113267 -0.0203485 0.993356 
0.133718 -0.0237163 0.990736 
-0.00538614 -0.0135104 0.999894 
-0.180064 -0.0126373 0.983574 
-0.13488 0.0854798 0.987168 
-0.003429 -0.02674 0.999637 
0.0175721 -0.137113 0.9904 
0.0328601 -0.0857006 0.995779 
0.0409978 -0.00107874 0.999159 
0.0995921 0.0623098 0.993075 
0.0595392 0.066929 0.99598 
0.00311599 0.0818635 0.996639 
-0.045705 0.126512 0.990912 
-0.0554037 0.124591 0.99066 
-0.0127869 0.0719566 0.997326 
0.062193 0.068085 0.995739 
0.073823 0.0340192 0.996691 
0.122704 -0.0268665 0.99208 
0.183457 -0.110307 0.976819 
0.186418 -0.102781 0.977079 
0.0834445 -0.022367 0.996261 
0.062188 0.0812676 0.99475 
0.027187 0.0892797 0.995635 
0.102268 0.0933645 0.990366 
-0.0383895 0.0851982 0.995624 
-0.0467576 -0.00298416 0.998902 
-0.0658442 0.0533846 0.996401 
-0.0463505 0.0321578 0.998407 
-0.00494145 -0.0409357 0.99915 
0.0141877 -0.109127 0.993927 
-0.0579492 -0.0627189 0.996347 
-0.159909 -0.0738258 0.984367 
-0.136038 -0.207545 0.96872 
-0.0510226 -0.157215 0.986246 
-0.0281155 0.067938 0.997293 
-0.0296732 -0.023188 0.999291 
0.0646775 -0.0269251 0.997543 
0.157367 0.0615471 0.98562 
0.196679 0.0771759 0.977426 
0.182743 -0.0768818 0.98015 
0.131694 -0.0797642 0.988076 
-0.014203 -0.0599988 0.998097 
-0.191004 0.0912468 0.977339 
0.00940351 -0.161322 0.986857 
-0.0185186 -0.0344256 0.999236 
-0.0346643 -0.078298 0.996327 
-0.0587162 -0.0750905 0.995447 
-0.086999 -0.0718303 0.993615 
-0.0223792 -1.78106e-05 0.99975 
0.062894 -0.00335655 0.998015 
0.0765167 -0.0323888 0.996542 
0.0218904 0.0279413 0.99937 
-0.0725325 0.13054 0.988786 
-0.0989755 0.138847 0.985356 
-0.0288857 0.0696924 0.99715 
0.0181402 0.0466596 0.998746 
0.0171342 0.0131416 0.999767 
0.0880768 -0.0566331 0.994502 
0.103219 -0.0699737 0.992194 
0.0906219 -0.0667906 0.993643 
0.0180095 -0.0592505 0.998081 
0.0277958 -0.140449 0.989698 
-0.00408907 0.0437735 0.999033 
-0.139281 0.0604684 0.988405 
-0.0632189 0.0898043 0.993951 
-0.0466988 0.0157302 0.998785 
-0.00351011 -0.0856272 0.996321 
0.0221505 -0.193231 0.980903 
-0.0201397 -0.21098 0.977283 
-0.0228501 -0.130324 0.991208 
0.0551857 -0.217177 0.974571 
0.0861005 -0.222081 0.971219 
0.0518237 -0.00526484 0.998642 
0.0836904 -0.014306 0.996389 
0.0893135 -0.140215 0.986085 
0.123656 -0.118269 0.985252 
0.180088 -0.0331583 0.983091 
0.173029 -0.0454339 0.983868 
0.110479 -0.0691189 0.991472 
0.061378 -0.0964488 0.993444 
0.0397486 -0.038267 0.998477 
0.174377 0.140283 0.974635 
0.164362 -0.152035 0.974613 
0.0664229 -0.013063 0.997706 
-0.0673256 -0.00765229 0.997702 
-0.106235 -0.0113236 0.994277 
-0.115403 -0.00214277 0.993316 
-0.00112117 0.015641 0.999877 
0.0787326 -0.0531965 0.995475 
0.0850131 -0.0561655 0.994796 
-0.0539203 0.0510322 0.99724 
-0.180225 0.118962 0.976405 
-0.149771 0.0281877 0.988319 
-0.0333742 0.0119961 0.999371 
-0.0460763 0.0441455 0.997962 
0.00558616 -0.0232948 0.999713 
0.0869634 -0.059829 0.994413 
0.140473 -0.0505934 0.988791 
0.0822414 -0.128373 0.98831 
0.0845119 -0.20395 0.975327 
0.0473156 -0.195069 0.979648 
-0.10957 -0.100534 0.988882 
-0.195713 -0.0983662 0.975715 
-0.184455 0.0346735 0.982229 
-0.120251 0.0250081 0.992428 
-0.126119 -0.012477 0.991937 
-0.081107 -0.12546 0.988778 
-0.0545185 -0.223553 0.973166 
-0.0678759 -0.218707 0.973427 
0.0412134 -0.164744 0.985475 
0.0956225 -0.152634 0.983646 
0.102328 -0.140574 0.984768 
0.0861623 -0.13195 0.987505 
0.102698 -0.189635 0.976469 
0.0985263 -0.195711 0.9757 
0.0831187 -0.142208 0.986341 
0.1053 -0.121957 0.986934 
0.0834011 -0.109699 0.99046 
0.0694594 -0.067187 0.99532 
0.0874092 -0.115006 0.989512 
0.228714 -0.0931934 0.969023 
0.144457 -0.164469 0.975747 
0.107898 -0.0479686 0.993004 
0.0527114 0.0361573 0.997955 
-0.029958 0.030102 0.999098 
-0.104086 -0.00801638 0.994536 
-0.0449775 0.0562189 0.997405 
0.052868 0.0870001 0.994804 
0.0892915 0.0123126 0.995929 
0.00277073 -0.0114286 0.999931 
-0.118273 0.035059 0.992362 
-0.143208 -0.00137834 0.989692 
-0.00694993 -0.0709783 0.997454 
-0.0185084 0.0852356 0.996189 
-0.0620991 0.106704 0.99235 
0.0195481 0.0052851 0.999795 
0.159815 -0.0372126 0.986445 
0.25292 -0.0308251 0.966996 
0.247931 -0.0707193 0.966193 
0.191357 -0.137146 0.971892 
-0.0382353 -0.106735 0.993552 
-0.196969 -0.0734974 0.977651 
-0.199737 -0.00640349 0.979829 
-0.170582 0.0339432 0.984759 
-0.149678 -0.0185861 0.98856 
-0.0675109 -0.128096 0.989461 
-0.045247 -0.161276 0.985872 
0.0105737 -0.0706048 0.997448 
0.0350446 0.0319758 0.998874 
0.096528 0.00328475 0.995325 
0.112344 -0.114647 0.987033 
0.0602863 -0.184927 0.980901 
0.0216005 -0.189598 0.981624 
0.0141846 -0.141138 0.989888 
0.0304587 -0.130444 0.990988 
0.0549783 -0.228714 0.97194 
0.0719175 -0.197811 0.977598 
0.0585665 -0.144087 0.98783 
-0.00468937 -0.132551 0.991165 
-0.0456921 -0.170661 0.98427 
0.349759 -0.162199 0.922692 
0.188595 -0.0125176 0.981975 
0.106498 0.0637331 0.992268 
0.0359411 0.00181772 0.999352 
-0.0324592 -0.0279161 0.999083 
0.0015876 0.100926 0.994893 
0.0480937 0.171751 0.983966 
0.0143853 0.0795899 0.996724 
-0.0704061 -0.0417165 0.996646 
-0.0110383 -0.0899016 0.995889 
0.118873 -0.116019 0.986108 
0.0720194 0.0821345 0.994016 
-0.0735451 0.203971 0.97621 
-0.0655899 0.130322 0.9893 
0.110459 -0.0120937 0.993807 
0.210158 0.0170105 0.977519 
0.199438 0.0690304 0.977476 
0.191384 0.0188344 0.981335 