# vtk DataFile Version 3.0 
Exported using Morpho https://github.com/Morpho-lang/morpho 
ASCII 
DATASET UNSTRUCTURED_GRID 

POINTS 2054 float 
-8.48528 -2.82843 0 
-8.20636 -2.82843 0 
-7.94054 -2.82843 0 
-7.6904 -2.82843 0 
-7.45357 -2.82843 0 
-7.22694 -2.82843 0 
-7.00705 -2.82843 0 
-6.79111 -2.82843 0 
-6.57731 -2.82843 0 
-6.36453 -2.82843 0 
-6.15219 -2.82843 0 
-5.94 -2.82843 0 
-5.72786 -2.82843 0 
-5.51573 -2.82843 0 
-5.3036 -2.82843 0 
-5.09147 -2.82843 0 
-4.87933 -2.82843 0 
-4.6672 -2.82843 0 
-4.45507 -2.82843 0 
-4.24294 -2.82843 0 
-4.03081 -2.82843 0 
-3.81867 -2.82843 0 
-3.60654 -2.82843 0 
-3.39441 -2.82843 0 
-3.18228 -2.82843 0 
-2.97015 -2.82843 0 
-2.75801 -2.82843 0 
-2.54588 -2.82843 0 
-2.33375 -2.82843 0 
-2.12162 -2.82843 0 
-1.90949 -2.82843 0 
-1.69735 -2.82843 0 
-1.48522 -2.82843 0 
-1.27309 -2.82843 0 
-1.06096 -2.82843 0 
-0.848825 -2.82843 0 
-0.636693 -2.82843 0 
-0.424561 -2.82843 0 
-0.212429 -2.82843 0 
-0.000296761 -2.82843 0 
0.211835 -2.82843 0 
0.423967 -2.82843 0 
0.636099 -2.82843 0 
0.848231 -2.82843 0 
1.06036 -2.82843 0 
1.2725 -2.82843 0 
1.48463 -2.82843 0 
1.69676 -2.82843 0 
1.90889 -2.82843 0 
2.12102 -2.82843 0 
2.33316 -2.82843 0 
2.54529 -2.82843 0 
2.75742 -2.82843 0 
2.96955 -2.82843 0 
3.18168 -2.82843 0 
3.39382 -2.82843 0 
3.60595 -2.82843 0 
3.81808 -2.82843 0 
4.03021 -2.82843 0 
4.24234 -2.82843 0 
4.45448 -2.82843 0 
4.66661 -2.82843 0 
4.87874 -2.82843 0 
5.09087 -2.82843 0 
5.303 -2.82843 0 
5.51514 -2.82843 0 
5.72727 -2.82843 0 
5.93941 -2.82843 0 
6.15159 -2.82843 0 
6.36393 -2.82843 0 
6.57672 -2.82843 0 
6.79055 -2.82843 0 
7.00652 -2.82843 0 
7.22647 -2.82843 0 
7.45313 -2.82843 0 
7.69005 -2.82843 0 
7.9403 -2.82843 0 
8.20621 -2.82843 0 
8.48528 -2.82843 0 
-8.48528 -2.5495 0 
-8.30526 -2.64845 0 
-8.07062 -2.59995 0 
-7.83904 -2.59637 0 
-7.59595 -2.59733 0 
-7.36578 -2.59177 0 
-7.13796 -2.5933 0 
-6.90908 -2.59428 0 
-6.68421 -2.5916 0 
-6.46568 -2.58832 0 
-6.24926 -2.58859 0 
-6.03358 -2.58941 0 
-5.81848 -2.59013 0 
-5.60402 -2.59075 0 
-5.39005 -2.59135 0 
-5.17642 -2.59186 0 
-4.96311 -2.59223 0 
-4.75009 -2.59242 0 
-4.53736 -2.59244 0 
-4.32497 -2.59236 0 
-4.1128 -2.59242 0 
-3.90059 -2.59259 0 
-3.68835 -2.5926 0 
-3.47627 -2.59248 0 
-3.26428 -2.59251 0 
-3.05216 -2.59271 0 
-2.83986 -2.59283 0 
-2.62755 -2.59274 0 
-2.41539 -2.59253 0 
-2.20336 -2.59238 0 
-1.99135 -2.59238 0 
-1.77924 -2.59246 0 
-1.56704 -2.59244 0 
-1.35495 -2.59215 0 
-1.14319 -2.59183 0 
-0.931581 -2.59195 0 
-0.719663 -2.59256 0 
-0.507197 -2.59324 0 
-0.294425 -2.59354 0 
-0.0817689 -2.59344 0 
0.130587 -2.59325 0 
0.342804 -2.59322 0 
0.555051 -2.59322 0 
0.767233 -2.59303 0 
0.97919 -2.59278 0 
1.19107 -2.59278 0 
1.40311 -2.59289 0 
1.61524 -2.59286 0 
1.82732 -2.59279 0 
2.03943 -2.59281 0 
2.25163 -2.5928 0 
2.46381 -2.59266 0 
2.67591 -2.59254 0 
2.88801 -2.59237 0 
3.10001 -2.59226 0 
3.31203 -2.59216 0 
3.52402 -2.59207 0 
3.73601 -2.59208 0 
3.94815 -2.59221 0 
4.16052 -2.5923 0 
4.37309 -2.59232 0 
4.58593 -2.59227 0 
4.79921 -2.5922 0 
5.01319 -2.59212 0 
5.22833 -2.5921 0 
5.44534 -2.59239 0 
5.6657 -2.59346 0 
5.89185 -2.59569 0 
6.12685 -2.59429 0 
6.36853 -2.59189 0 
6.6108 -2.57787 0 
6.84491 -2.61411 0 
7.08804 -2.58476 0 
7.34858 -2.60369 0 
7.58803 -2.59327 0 
7.83059 -2.59326 0 
8.06387 -2.59199 0 
8.30038 -2.64348 0 
8.48528 -2.54936 0 
-8.48528 -2.28369 0 
-8.25701 -2.4138 0 
-8.01078 -2.35334 0 
-7.73666 -2.37963 0 
-7.49744 -2.35565 0 
-7.26898 -2.35831 0 
-7.03324 -2.36676 0 
-6.7997 -2.36275 0 
-6.5773 -2.35166 0 
-6.35808 -2.3495 0 
-6.14038 -2.35058 0 
-5.92336 -2.35185 0 
-5.70723 -2.35272 0 
-5.49199 -2.35362 0 
-5.27734 -2.35447 0 
-5.0632 -2.35505 0 
-4.84958 -2.35534 0 
-4.63641 -2.35533 0 
-4.42363 -2.35504 0 
-4.21126 -2.35485 0 
-3.99909 -2.35513 0 
-3.78684 -2.3554 0 
-3.57461 -2.35516 0 
-3.36263 -2.35498 0 
-3.15066 -2.35537 0 
-2.93843 -2.35586 0 
-2.72604 -2.35589 0 
-2.51374 -2.35551 0 
-2.30162 -2.35509 0 
-2.08964 -2.35496 0 
-1.87761 -2.35518 0 
-1.66544 -2.3554 0 
-1.45322 -2.35518 0 
-1.2412 -2.35438 0 
-1.02967 -2.35407 0 
-0.818162 -2.35505 0 
-0.606054 -2.35676 0 
-0.393243 -2.3579 0 
-0.180256 -2.35789 0 
0.0323765 -2.35727 0 
0.244686 -2.35692 0 
0.456926 -2.35692 0 
0.669206 -2.35667 0 
0.881318 -2.35598 0 
1.09315 -2.35559 0 
1.305 -2.35583 0 
1.51709 -2.35595 0 
1.72919 -2.35571 0 
1.9412 -2.35566 0 
2.15334 -2.3558 0 
2.36559 -2.3556 0 
2.57772 -2.35522 0 
2.78976 -2.35507 0 
3.0019 -2.35461 0 
3.21373 -2.35451 0 
3.42571 -2.35439 0 
3.63769 -2.35431 0 
3.84965 -2.35453 0 
4.06183 -2.35491 0 
4.27435 -2.35507 0 
4.48707 -2.35507 0 
4.70017 -2.35506 0 
4.91376 -2.35498 0 
5.12819 -2.35502 0 
5.34378 -2.35528 0 
5.56106 -2.35662 0 
5.78097 -2.35971 0 
6.00401 -2.36251 0 
6.2308 -2.3624 0 
6.45748 -2.35551 0 
6.68075 -2.33423 0 
6.88797 -2.39744 0 
7.05313 -2.27289 0 
7.24377 -2.40237 0 
7.48542 -2.36016 0 
7.73055 -2.36599 0 
7.99177 -2.33552 0 
8.24864 -2.40698 0 
8.48528 -2.28345 0 
-8.48528 -2.03355 0 
-8.25312 -2.18214 0 
-8.03669 -2.07913 0 
-7.83956 -2.18231 0 
-7.6106 -2.12852 0 
-7.38852 -2.10959 0 
-7.16268 -2.14097 0 
-6.9229 -2.1435 0 
-6.70119 -2.12055 0 
-6.48111 -2.11285 0 
-6.26282 -2.11284 0 
-6.045 -2.1151 0 
-5.82775 -2.11658 0 
-5.61153 -2.11776 0 
-5.3962 -2.1192 0 
-5.18144 -2.1203 0 
-4.96732 -2.12084 0 
-4.75387 -2.12105 0 
-4.54086 -2.12091 0 
-4.32822 -2.12045 0 
-4.11596 -2.12045 0 
-3.90382 -2.12107 0 
-3.69156 -2.12116 0 
-3.47938 -2.12058 0 
-3.26746 -2.12068 0 
-3.05542 -2.12154 0 
-2.84307 -2.12198 0 
-2.63064 -2.12162 0 
-2.41836 -2.12087 0 
-2.20626 -2.12031 0 
-1.99426 -2.12034 0 
-1.78217 -2.1207 0 
-1.56989 -2.12074 0 
-1.35755 -2.11993 0 
-1.14542 -2.11838 0 
-0.934012 -2.11859 0 
-0.722404 -2.12089 0 
-0.509943 -2.12344 0 
-0.296911 -2.12431 0 
-0.0840921 -2.12359 0 
0.128295 -2.12281 0 
0.340414 -2.12274 0 
0.552564 -2.12288 0 
0.76478 -2.12226 0 
0.976792 -2.1213 0 
1.18855 -2.12128 0 
1.40042 -2.12188 0 
1.61256 -2.12177 0 
1.82458 -2.12141 0 
2.03655 -2.12164 0 
2.24875 -2.12174 0 
2.46099 -2.12114 0 
2.67302 -2.12065 0 
2.88504 -2.12054 0 
3.09728 -2.1194 0 
3.30873 -2.11968 0 
3.52086 -2.1195 0 
3.7329 -2.11938 0 
3.94484 -2.11986 0 
4.15715 -2.12044 0 
4.36983 -2.12035 0 
4.58282 -2.1204 0 
4.79606 -2.12017 0 
5.01004 -2.12012 0 
5.22483 -2.12002 0 
5.44073 -2.12051 0 
5.6582 -2.123 0 
5.8782 -2.12696 0 
6.10217 -2.12971 0 
6.33095 -2.12707 0 
6.567 -2.11601 0 
6.82301 -2.12303 0 
7.06572 -2.04567 0 
7.29733 -2.17484 0 
7.54632 -2.11408 0 
7.79371 -2.13741 0 
8.02274 -2.07453 0 
8.25027 -2.1738 0 
8.48528 -2.0332 0 
-8.48528 -1.79671 0 
-8.25436 -1.93882 0 
-8.01299 -1.83977 0 
-7.78596 -1.953 0 
-7.5297 -1.87194 0 
-7.2756 -1.88722 0 
-7.05707 -1.93544 0 
-6.84369 -1.89677 0 
-6.62219 -1.88079 0 
-6.40169 -1.87606 0 
-6.18206 -1.87854 0 
-5.96274 -1.881 0 
-5.74458 -1.88208 0 
-5.52796 -1.88344 0 
-5.31232 -1.88506 0 
-5.09736 -1.88569 0 
-4.88338 -1.88564 0 
-4.67019 -1.88555 0 
-4.45737 -1.88507 0 
-4.24485 -1.88447 0 
-4.03271 -1.88482 0 
-3.82061 -1.88562 0 
-3.60832 -1.88529 0 
-3.39617 -1.88464 0 
-3.18427 -1.88547 0 
-2.97209 -1.88672 0 
-2.7596 -1.88684 0 
-2.54714 -1.88601 0 
-2.33483 -1.88505 0 
-2.12268 -1.8846 0 
-1.91058 -1.885 0 
-1.69824 -1.88561 0 
-1.48561 -1.88547 0 
-1.27286 -1.88413 0 
-1.06032 -1.88216 0 
-0.848858 -1.8839 0 
-0.636875 -1.88781 0 
-0.424169 -1.89034 0 
-0.211518 -1.89004 0 
0.000731944 -1.88866 0 
0.21257 -1.88788 0 
0.424308 -1.88807 0 
0.636257 -1.88793 0 
0.848362 -1.88664 0 
1.06025 -1.88556 0 
1.27191 -1.88605 0 
1.48381 -1.88664 0 
1.69595 -1.886 0 
1.90782 -1.88577 0 
2.11974 -1.88637 0 
2.33202 -1.88609 0 
2.54419 -1.88502 0 
2.75607 -1.88472 0 
2.96812 -1.88462 0 
3.18055 -1.88217 0 
3.39117 -1.88415 0 
3.60398 -1.8838 0 
3.81618 -1.88366 0 
4.02827 -1.88469 0 
4.24071 -1.88523 0 
4.4544 -1.88509 0 
4.66716 -1.88476 0 
4.88099 -1.88493 0 
5.09545 -1.88466 0 
5.31057 -1.88453 0 
5.52653 -1.88564 0 
5.7436 -1.88981 0 
5.96352 -1.89563 0 
6.18733 -1.89813 0 
6.41543 -1.89522 0 
6.65059 -1.89622 0 
6.87542 -1.86913 0 
7.11122 -1.81621 0 
7.31223 -1.94975 0 
7.53264 -1.87683 0 
7.77077 -1.89068 0 
8.01717 -1.8297 0 
8.25014 -1.93148 0 
8.48528 -1.79628 0 
-8.48528 -1.57009 0 
-8.24868 -1.70836 0 
-8.015 -1.61096 0 
-7.76734 -1.73071 0 
-7.54593 -1.61782 0 
-7.32306 -1.66278 0 
-7.05152 -1.7082 0 
-6.79786 -1.66675 0 
-6.56099 -1.64764 0 
-6.33267 -1.64541 0 
-6.10856 -1.64921 0 
-5.88638 -1.65073 0 
-5.66697 -1.65153 0 
-5.44986 -1.65353 0 
-5.23379 -1.65525 0 
-5.01882 -1.6551 0 
-4.80519 -1.6548 0 
-4.59235 -1.65478 0 
-4.37976 -1.65422 0 
-4.16737 -1.65386 0 
-3.95537 -1.65471 0 
-3.74326 -1.6554 0 
-3.5309 -1.65455 0 
-3.31876 -1.65426 0 
-3.10682 -1.65593 0 
-2.89443 -1.65705 0 
-2.68177 -1.65644 0 
-2.46924 -1.65516 0 
-2.25682 -1.65408 0 
-2.04447 -1.65386 0 
-1.83202 -1.65455 0 
-1.61911 -1.65506 0 
-1.40572 -1.65429 0 
-1.19212 -1.65207 0 
-0.97885 -1.64982 0 
-0.767325 -1.65372 0 
-0.555434 -1.6581 0 
-0.343588 -1.65935 0 
-0.132061 -1.65818 0 
0.0792288 -1.65687 0 
0.290417 -1.65682 0 
0.501823 -1.6575 0 
0.713729 -1.65709 0 
0.925861 -1.65545 0 
1.13768 -1.65488 0 
1.34929 -1.65604 0 
1.56128 -1.6563 0 
1.77337 -1.65516 0 
1.985 -1.65561 0 
2.19698 -1.65642 0 
2.40939 -1.65525 0 
2.62143 -1.65394 0 
2.83323 -1.65414 0 
3.04553 -1.65355 0 
3.25842 -1.64868 0 
3.46746 -1.65522 0 
3.68272 -1.65284 0 
3.89574 -1.65288 0 
4.10731 -1.65378 0 
4.32287 -1.65565 0 
4.53627 -1.65249 0 
4.74932 -1.65397 0 
4.96428 -1.65355 0 
5.17935 -1.65257 0 
5.3944 -1.65202 0 
5.60927 -1.65354 0 
5.82513 -1.66019 0 
6.04295 -1.66711 0 
6.26383 -1.66843 0 
6.48537 -1.66776 0 
6.70098 -1.65646 0 
6.91299 -1.6206 0 
7.11709 -1.6046 0 
7.3526 -1.69716 0 
7.60698 -1.65764 0 
7.8325 -1.64214 0 
8.05985 -1.58842 0 
8.2608 -1.69223 0 
8.48528 -1.56961 0 
-8.48528 -1.35019 0 
-8.24958 -1.48044 0 
-8.0219 -1.3751 0 
-7.79713 -1.50391 0 
-7.58956 -1.39834 0 
-7.36199 -1.38754 0 
-7.16079 -1.49923 0 
-6.93764 -1.46284 0 
[...]
POINT_DATA 2054 
VECTORS vectors float
5.69284e-05 -0.00119709 0.999999 
-0.000260825 -0.0109879 0.99994 
-0.000186754 -0.0126568 0.99992 
-0.00016394 -0.0122272 0.999925 
-0.000141689 -0.0112428 0.999937 
-0.000116868 -0.00970818 0.999953 
-0.000105473 -0.00806551 0.999967 
-9.81678e-05 -0.00648454 0.999979 
-9.46695e-05 -0.00496247 0.999988 
-9.31299e-05 -0.00344832 0.999994 
-9.24182e-05 -0.00191514 0.999998 
-9.20905e-05 -0.000339409 1 
-9.18258e-05 0.00131208 0.999999 
-9.14512e-05 0.00308492 0.999995 
-9.08833e-05 0.00504382 0.999987 
-9.00953e-05 0.00727626 0.999974 
-8.89762e-05 0.00989294 0.999951 
-8.74577e-05 0.0130287 0.999915 
-8.55156e-05 0.0168475 0.999858 
-8.29981e-05 0.0215495 0.999768 
-7.98299e-05 0.0273815 0.999625 
-7.58029e-05 0.0346491 0.9994 
-7.07263e-05 0.0437316 0.999043 
-6.44109e-05 0.0551011 0.998481 
-5.65246e-05 0.0693415 0.997593 
-4.67569e-05 0.0871723 0.996193 
-3.46854e-05 0.109476 0.993989 
-1.98781e-05 0.137319 0.990527 
-1.92166e-06 0.171976 0.985101 
1.95265e-05 0.214927 0.97663 
4.45132e-05 0.267802 0.963474 
7.24265e-05 0.33224 0.943195 
0.000101589 0.409539 0.912292 
0.000128716 0.500073 0.865983 
0.000148582 0.602333 0.798245 
0.000154758 0.711717 0.702466 
0.000141925 0.819474 0.573116 
0.000108753 0.912781 0.408448 
5.89531e-05 0.976978 0.21334 
7.53275e-08 1 0.000341341 
-5.88073e-05 0.977118 -0.212696 
-0.000108647 0.913025 -0.407904 
-0.000141907 0.819769 -0.572694 
-0.000154777 0.712023 -0.702156 
-0.000148689 0.602629 -0.798022 
-0.000128861 0.50034 -0.865829 
-0.000101688 0.409778 -0.912185 
-7.25138e-05 0.332451 -0.943121 
-4.4584e-05 0.26799 -0.963422 
-1.95981e-05 0.215091 -0.976594 
1.86477e-06 0.172117 -0.985077 
1.98266e-05 0.137441 -0.99051 
3.46345e-05 0.10958 -0.993978 
4.67005e-05 0.0872619 -0.996185 
5.64969e-05 0.0694173 -0.997588 
6.4381e-05 0.0551645 -0.998477 
7.06916e-05 0.043785 -0.999041 
7.57574e-05 0.0346941 -0.999398 
7.97761e-05 0.0274201 -0.999624 
8.29848e-05 0.0215834 -0.999767 
8.54912e-05 0.0168777 -0.999858 
8.74148e-05 0.0130565 -0.999915 
8.89128e-05 0.00991892 -0.999951 
9.00103e-05 0.007301 -0.999973 
9.08403e-05 0.00506847 -0.999987 
9.13857e-05 0.00311127 -0.999995 
9.16713e-05 0.00134231 -0.999999 
9.20614e-05 -0.000305067 -1 
9.14549e-05 -0.00187455 -0.999998 
9.45998e-05 -0.00339903 -0.999994 
9.21796e-05 -0.00490675 -0.999988 
0.000100459 -0.00642375 -0.999979 
0.000103647 -0.00796149 -0.999968 
0.000117833 -0.00957433 -0.999954 
0.000141246 -0.0110695 -0.999939 
0.000164063 -0.0119967 -0.999928 
0.000185775 -0.0124277 -0.999923 
0.0002615 -0.0107804 -0.999942 
-5.98135e-05 -0.0011906 -0.999999 
4.23904e-05 0.00026067 1 
0.00345346 -0.00903848 0.999953 
0.00471304 -0.0112911 0.999925 
0.00525663 -0.012053 0.999914 
0.00553254 -0.0114426 0.999919 
0.0057293 -0.010295 0.999931 
0.00586013 -0.00885253 0.999944 
0.00596124 -0.00723841 0.999956 
0.00606516 -0.00562552 0.999966 
0.00615188 -0.00407752 0.999973 
0.0061918 -0.00254285 0.999978 
0.00620875 -0.000977249 0.99998 
0.00621132 0.000653635 0.99998 
0.00619783 0.00239315 0.999978 
0.00616316 0.00430177 0.999972 
0.00610307 0.00645811 0.999961 
0.00601388 0.00896177 0.999942 
0.0058917 0.0119376 0.999911 
0.00573143 0.0155379 0.999863 
0.00552622 0.0199474 0.999786 
0.00526675 0.0253951 0.999664 
0.00494437 0.0321705 0.99947 
0.0045504 0.0406269 0.999164 
0.00407255 0.051192 0.998681 
0.00349581 0.0644038 0.997918 
0.0028055 0.0809414 0.996715 
0.00198746 0.101633 0.99482 
0.00102839 0.127462 0.991843 
-8.11093e-05 0.159588 0.987184 
-0.00134162 0.199385 0.97992 
-0.00273795 0.248412 0.968651 
-0.00422961 0.308306 0.951278 
-0.00573707 0.3805 0.924763 
-0.00712517 0.465685 0.884922 
-0.00819149 0.563064 0.826373 
-0.00867928 0.669522 0.742741 
-0.00832215 0.778489 0.627603 
-0.00692724 0.87897 0.476827 
-0.00449518 0.956383 0.292081 
-0.00130789 0.996526 0.0832738 
0.00210871 0.99116 -0.132653 
0.00515391 0.941575 -0.336763 
0.00735529 0.857794 -0.513941 
0.00850002 0.754319 -0.656453 
0.00864 0.645067 -0.764077 
0.00799381 0.540112 -0.841555 
0.00683258 0.445253 -0.895379 
0.00540298 0.363034 -0.93176 
0.00388962 0.29377 -0.955868 
0.00241283 0.236471 -0.971636 
0.00104365 0.18964 -0.981853 
-0.000182963 0.151699 -0.988427 
-0.00125693 0.121132 -0.992636 
-0.002182 0.0965873 -0.995322 
-0.00296873 0.0769327 -0.997032 
-0.00363146 0.0612088 -0.998118 
-0.0041847 0.0486416 -0.998808 
-0.00464224 0.0385943 -0.999244 
-0.00501704 0.0305485 -0.999521 
-0.0053215 0.0240903 -0.999696 
-0.00556558 0.0188886 -0.999806 
-0.00575738 0.0146727 -0.999876 
-0.00590291 0.0112218 -0.99992 
-0.0060072 0.0083557 -0.999947 
-0.00607361 0.00592575 -0.999964 
-0.00610179 0.0038094 -0.999974 
-0.00608689 0.00190233 -0.99998 
-0.00603091 0.000115107 -0.999982 
-0.00598227 -0.00162236 -0.999981 
-0.00595017 -0.00333221 -0.999977 
-0.00597465 -0.00503096 -0.999969 
-0.0057329 -0.00671888 -0.999961 
-0.00582968 -0.0083738 -0.999948 
-0.00557935 -0.0100604 -0.999934 
-0.00544602 -0.011195 -0.999923 
-0.00517715 -0.0118058 -0.999917 
-0.00464055 -0.0110653 -0.999928 
-0.00342975 -0.00897781 -0.999954 
-3.32203e-05 0.000259594 -1 
0.000114338 -0.000170213 1 
0.00353549 -0.00908099 0.999953 
0.00537971 -0.0112733 0.999922 
0.0062287 -0.0116749 0.999912 
0.00677724 -0.0107159 0.99992 
0.00713065 -0.00955457 0.999929 
0.00736039 -0.00807881 0.99994 
0.00755571 -0.00641607 0.999951 
0.00771691 -0.00481601 0.999959 
0.00780518 -0.0032633 0.999964 
0.00785472 -0.00170619 0.999968 
0.0078807 -9.72471e-05 0.999969 
0.00788378 0.00160547 0.999968 
0.00785643 0.00345835 0.999963 
0.0077927 0.00553286 0.999954 
0.00768817 0.00791632 0.999939 
0.00753755 0.0107197 0.999914 
0.00733483 0.0140831 0.999874 
0.00707302 0.0181782 0.99981 
0.00674248 0.0232126 0.999708 
0.00633182 0.0294465 0.999546 
0.00583062 0.0372095 0.99929 
0.00522725 0.0468982 0.998886 
0.00450686 0.0589874 0.998249 
0.00365389 0.0740872 0.997245 
0.0026546 0.0929647 0.995666 
0.00149828 0.116529 0.993186 
0.000180452 0.145841 0.989308 
-0.0012924 0.182151 0.98327 
-0.00289641 0.226895 0.973915 
-0.00458315 0.281663 0.959503 
-0.00626823 0.347989 0.937478 
-0.00781898 0.426958 0.904238 
-0.00904748 0.518552 0.854999 
-0.00971811 0.620762 0.783939 
-0.00958432 0.728928 0.684523 
-0.00843883 0.834466 0.550995 
-0.0062058 0.924327 0.381551 
-0.00305213 0.983286 0.182039 
0.0005863 0.99945 -0.0331647 
0.00412503 0.969507 -0.245029 
0.00701936 0.899968 -0.435899 
0.00892223 0.804036 -0.594514 
0.00974413 0.69646 -0.717529 
0.00960641 0.589213 -0.807921 
0.00873703 0.489785 -0.8718 
0.00738595 0.401921 -0.915644 
0.00577634 0.326872 -0.945051 
0.00407758 0.26419 -0.964462 
0.00240574 0.212557 -0.977146 
0.000836136 0.170463 -0.985364 
-0.000590018 0.136412 -0.990652 
-0.00185686 0.108984 -0.994042 
-0.00296362 0.0869424 -0.996209 
-0.00391565 0.0692944 -0.997589 
-0.00472684 0.055152 -0.998467 
-0.00541053 0.0438318 -0.999024 
-0.00598007 0.0347663 -0.999378 
-0.00644938 0.0274886 -0.999601 
-0.00683191 0.0216285 -0.999743 
-0.00713801 0.0168908 -0.999832 
-0.00737626 0.0130289 -0.999888 
-0.00755418 0.00984399 -0.999923 
-0.00767795 0.00717156 -0.999945 
-0.00775363 0.00488001 -0.999958 
-0.00778232 0.00286311 -0.999966 
-0.00776221 0.00103377 -0.999969 
-0.00770604 -0.000675334 -0.99997 
-0.00763843 -0.00231866 -0.999968 
-0.00759615 -0.00391657 -0.999963 
-0.0076498 -0.00550263 -0.999956 
-0.00716548 -0.00697924 -0.99995 
-0.00753297 -0.00811196 -0.999939 
-0.00685136 -0.00932649 -0.999933 
-0.00666025 -0.0104899 -0.999923 
-0.00612471 -0.0114028 -0.999916 
-0.00532129 -0.0111055 -0.999924 
-0.00349004 -0.00900777 -0.999953 
-0.000112848 -0.000168983 -1 
9.09977e-05 -0.000130279 1 
0.00337552 -0.00902891 0.999954 
0.00492066 -0.0110804 0.999927 
0.00605388 -0.0117874 0.999912 
0.00651666 -0.0110588 0.999918 
0.00697432 -0.0100839 0.999925 
0.00742986 -0.00891591 0.999933 
0.00769847 -0.00731247 0.999944 
0.00781969 -0.00569258 0.999953 
0.00791642 -0.00410922 0.99996 
0.00799573 -0.00255427 0.999965 
0.00805246 -0.000968196 0.999967 
0.00807975 0.000694094 0.999967 
0.00807343 0.00248425 0.999964 
0.00802845 0.00446753 0.999958 
0.00793827 0.00672116 0.999946 
0.00779724 0.00933961 0.999926 
0.00760014 0.012445 0.999894 
0.00734037 0.0161944 0.999842 
0.00701039 0.0207779 0.99976 
0.00660254 0.0264242 0.999629 
0.00610636 0.0334236 0.999423 
0.00550802 0.0421425 0.999096 
0.00479602 0.0530128 0.998582 
0.00396211 0.0665533 0.997775 
0.00299471 0.0834438 0.996508 
0.00188307 0.104522 0.994521 
0.000626175 0.130754 0.991415 
-0.000764958 0.163264 0.986582 
-0.00226561 0.203367 0.9791 
-0.00383233 0.252539 0.967579 
-0.005396 0.312347 0.949953 
-0.00685117 0.384182 0.923232 
-0.00805043 0.468738 0.883301 
-0.00881324 0.565261 0.824865 
-0.0089597 0.670442 0.741908 
-0.00832016 0.778225 0.627931 
-0.00676828 0.878171 0.478299 
-0.00432872 0.955737 0.294191 
-0.00126471 0.99633 0.085586 
0.00198086 0.991467 -0.130345 
0.00492752 0.942445 -0.334324 
0.00718993 0.859423 -0.511214 
0.00855969 0.756903 -0.653471 
0.00902949 0.648723 -0.760971 
0.00873491 0.544821 -0.838507 
0.00785857 0.450728 -0.892627 
0.0065871 0.368828 -0.929474 
0.0050968 0.299566 -0.954062 
0.00352326 0.242016 -0.970266 
0.00196148 0.194731 -0.980855 
0.000479591 0.156247 -0.987718 
-0.000882093 0.125134 -0.992139 
-0.00210643 0.100051 -0.99498 
-0.00318657 0.079872 -0.9968 
-0.00412525 0.0637249 -0.997959 
-0.00493331 0.0507369 -0.9987 
-0.00561894 0.040329 -0.999171 
-0.00619461 0.0319797 -0.999469 
-0.00667192 0.0252563 -0.999659 
-0.00706016 0.0198263 -0.999779 
-0.00737039 0.0154158 -0.999854 
-0.00760989 0.0118031 -0.999901 
-0.00778676 0.00879813 -0.999931 
-0.00790737 0.00625406 -0.999949 
-0.0079801 0.00405186 -0.99996 
-0.00801392 0.00209885 -0.999966 
-0.00801206 0.000317423 -0.999968 
-0.00797168 -0.00136502 -0.999967 
-0.007898 -0.00300702 -0.999964 
-0.00777881 -0.00467663 -0.999959 
-0.00760391 -0.00650196 -0.99995 
-0.0072757 -0.00822703 -0.99994 
-0.00715788 -0.00953683 -0.999929 
-0.00651816 -0.0106014 -0.999923 
-0.00594323 -0.0114671 -0.999917 
-0.00485366 -0.0109386 -0.999928 
-0.00328029 -0.00889328 -0.999955 
-8.40582e-05 -0.000129739 -1 
0.000112386 -0.000167044 1 
0.00291868 -0.00897779 0.999955 
0.0044303 -0.0112719 0.999927 
0.00558679 -0.0115841 0.999917 
0.00605225 -0.0106569 0.999925 
0.00667227 -0.00956655 0.999932 
0.00715303 -0.00830078 0.99994 
0.0072541 -0.00675729 0.999951 
0.00736999 -0.00512419 0.99996 
0.00747605 -0.00353739 0.999966 
0.00756748 -0.00195413 0.999969 
0.00762695 -0.000318339 0.999971 
0.00764919 0.00141824 0.99997 
0.00763348 0.00331609 0.999965 
0.00757389 0.00544618 0.999956 
0.00746228 0.00789082 0.999941 
0.00729511 0.0107507 0.999916 
0.00706866 0.0141616 0.999875 
0.00677542 0.018298 0.99981 
0.00640869 0.0233675 0.999706 
0.00596286 0.0296171 0.999544 
0.00542686 0.0373671 0.999287 
0.00478731 0.0470193 0.998883 
0.00403863 0.0590328 0.998248 
0.00317748 0.0739684 0.997256 
0.00219402 0.0925777 0.995703 
0.00108533 0.115751 0.993278 
-0.000137626 0.144496 0.989505 
-0.00145302 0.179999 0.983666 
-0.00282552 0.223621 0.974672 
-0.00420206 0.276861 0.960901 
-0.00550593 0.341274 0.939948 
-0.0066291 0.418066 0.908392 
-0.00743645 0.507501 0.861619 
-0.00778226 0.608005 0.793895 
-0.00755094 0.714828 0.69926 
-0.00662623 0.820649 0.571394 
-0.00495269 0.913169 0.40755 
-0.002639 0.977163 0.212477 
3.27389e-05 1 -0.000780479 
0.00269175 0.976929 -0.213547 
0.00498506 0.913116 -0.407669 
0.00665656 0.820967 -0.570937 
0.00759241 0.715122 -0.698959 
0.00782431 0.608091 -0.793829 
0.00746846 0.507998 -0.861326 
0.00665732 0.418854 -0.908029 
0.00553112 0.342124 -0.939639 
0.0042283 0.277704 -0.960657 
0.00285097 0.224352 -0.974504 
0.00147452 0.180581 -0.983559 
0.000159452 0.145006 -0.989431 
-0.00105928 0.116244 -0.99322 
-0.00216578 0.0930218 -0.995662 
-0.0031487 0.074316 -0.99723 
-0.00401109 0.0593806 -0.998227 
-0.00476026 0.0472727 -0.998871 
-0.00539768 0.0375782 -0.999279 
-0.0059362 0.029784 -0.999539 
-0.00638222 0.023494 -0.999704 
-0.0067458 0.0183783 -0.999808 
-0.00703276 0.0142304 -0.999874 
-0.00725413 0.0107994 -0.999915 
-0.00741279 0.00792693 -0.999941 
-0.00751568 0.00547572 -0.999957 
-0.00757143 0.00333881 -0.999966 
-0.00759132 0.00143553 -0.99997 
-0.00757766 -0.00031287 -0.999971 
-0.00752032 -0.00197644 -0.99997 
-0.00741846 -0.00361363 -0.999966 
-0.00728407 -0.00529863 -0.999959 
-0.00704859 -0.0069523 -0.999951 
-0.00668672 -0.00862815 -0.99994 
-0.00667763 -0.00963673 -0.999931 
-0.00600572 -0.0106045 -0.999926 
-0.00534965 -0.0113675 -0.999921 
-0.00428746 -0.0110733 -0.999929 
-0.00285021 -0.00884998 -0.999957 
-0.000108282 -0.000166914 -1 
0.000107265 -0.000195354 1 
0.00263298 -0.00900815 0.999956 
0.00388614 -0.0113502 0.999928 
0.00505477 -0.0115567 0.99992 
0.00536528 -0.0108564 0.999927 
0.00597811 -0.00989107 0.999933 
0.00651131 -0.00827731 0.999945 
0.00663661 -0.00643994 0.999957 
0.00674282 -0.00469633 0.999966 
0.00685675 -0.00304758 0.999972 
0.00695274 -0.00140578 0.999975 
0.0070057 0.000301771 0.999975 
0.00701917 0.00213245 0.999973 
0.00699433 0.00415404 0.999967 
0.00692109 0.00644407 0.999955 
0.00679085 0.00908816 0.999936 
0.00660629 0.0121958 0.999904 
0.00636366 0.0159189 0.999853 
0.00605402 0.0204495 0.999773 
0.00567334 0.0260116 0.999646 
0.00521769 0.0328694 0.999446 
0.0046742 0.0413778 0.999133 
0.00403239 0.0519684 0.998641 
0.00329407 0.0651229 0.997872 
0.00245745 0.0814509 0.996674 
0.00151351 0.101778 0.994806 
0.00046814 0.127032 0.991899 
-0.000659711 0.158258 0.987398 
-0.00184432 0.196712 0.98046 
-0.00304787 0.243806 0.969819 
-0.00421651 0.30107 0.953593 
-0.00527372 0.370031 0.929004 
-0.00611671 0.451683 0.892158 
-0.00662735 0.54575 0.837922 
-0.00669276 0.649626 0.760225 
-0.00624579 0.756868 0.653538 
-0.00518891 0.858803 0.51228 
-0.00352729 0.941684 0.33648 
-0.00141524 0.991007 0.1338 
0.000881337 0.99675 -0.0805511 
0.00305722 0.957761 -0.287551 
0.00484626 0.882208 -0.470835 
0.00607292 0.783713 -0.621093 
0.00668181 0.676464 -0.736445 
0.00672919 0.57155 -0.82054 
0.00631665 0.475459 -0.879715 
0.00554563 0.390978 -0.920383 
0.00453215 0.318932 -0.947767 
0.00338976 0.2588 -0.965925 
0.00218939 0.209079 -0.977896 
0.000991494 0.168344 -0.985728 
-0.000151692 0.135288 -0.990806 
-0.00121526 0.108544 -0.994091 
-0.00218589 0.0869106 -0.996214 
-0.00304822 0.0694639 -0.99758 
-0.00381708 0.0556175 -0.998445 
-0.00448489 0.0441929 -0.999013 
-0.00505508 0.0351004 -0.999371 
-0.0055337 0.0278226 -0.999598 
-0.00594178 0.021837 -0.999744 
-0.00625494 0.017041 -0.999835 
-0.00651506 0.013116 -0.999893 
-0.0067085 0.00984084 -0.999929 
-0.00684377 0.00708471 -0.999951 
-0.00692886 0.00471948 -0.999965 
-0.00697393 0.00265052 -0.999972 
-0.00699414 0.000796563 -0.999975 
-0.0069777 -0.000911772 -0.999975 
-0.00690936 -0.00254649 -0.999973 
-0.00680467 -0.00414625 -0.999968 
-0.00664371 -0.00572472 -0.999962 
-0.00638135 -0.00733394 -0.999953 
-0.006144 -0.00882585 -0.999942 
-0.00596141 -0.00993231 -0.999933 
-0.00525239 -0.0109566 -0.999926 
-0.00456086 -0.0115998 -0.999922 
-0.00356973 -0.0108476 -0.999935 
-0.00243094 -0.00874905 -0.999959 
-0.000111638 -0.0001937 -1 
9.38762e-05 -0.000212629 1 
0.00228401 -0.0090324 0.999957 
0.00325886 -0.0114317 0.999929 
0.00436646 -0.0117509 0.999921 
0.00457225 -0.011194 0.999927 
0.00494409 -0.0102124 0.999936 
0.00570175 -0.00911141 0.999942 
0.00577032 -0.00753896 0.999955 
0.00578413 -0.00582477 0.999966 
0.00586222 -0.00414722 0.999974 
0.00597122 -0.00250814 0.999979 
0.00605935 -0.000833395 0.999981 
0.00609159 0.00094513 0.999981 
0.00609112 0.00287 0.999977 
0.00605742 0.00501887 0.999969 
0.00596893 0.00746699 0.999954 
0.00582499 0.0103103 0.99993 
0.00563539 0.0136646 0.999891 
0.0053935 0.0176964 0.999829 
0.00508956 0.0226259 0.999731 
0.00472213 0.0286815 0.999577 
0.00428909 0.0361499 0.999337 
0.0037753 0.0454184 0.998961 
0.00317611 0.0569455 0.998372 
0.00250027 0.0712302 0.997457 
0.00174455 0.0889401 0.996035 
0.000902337 0.110967 0.993824 
-1.20864e-05 0.138269 0.990395 
-0.000976393 0.171937 0.985107 
-0.00196542 0.213294 0.976986 
-0.0029448 0.2638 0.964573 
-0.00386639 0.324994 0.945708 
-0.00465977 0.398316 0.917236 
-0.00523522 0.484422 0.874819 
-0.00549841 0.582295 0.812959 
-0.00537734 0.688052 0.725641 
-0.00484608 0.7937 0.60829 
-0.00381236 0.889853 0.456232 
-0.00232615 0.962442 0.271479 
-0.000542834 0.997973 0.063635 
0.00131092 0.988635 -0.150328 
0.0029969 0.936292 -0.351209 
0.00432088 0.851465 -0.524393 
0.0051656 0.748503 -0.663112 
0.00551802 0.641013 -0.76751 
0.0054489 0.538706 -0.842476 
0.00503714 0.446556 -0.894742 
0.00435501 0.366394 -0.93045 
0.00350022 0.298567 -0.954382 
0.00255891 0.242226 -0.970216 
0.00156966 0.195651 -0.980672 
0.000583053 0.157532 -0.987514 
-0.00035735 0.126668 -0.991945 
-0.00123882 0.101664 -0.994818 
-0.00204756 0.0813611 -0.996683 
-0.00276067 0.0649451 -0.997885 
-0.00343551 0.0521437 -0.998634 
-0.00400229 0.0410561 -0.999149 
-0.0044592 0.0327423 -0.999454 
-0.00490955 0.0256719 -0.999658 
-0.00521934 0.0201371 -0.999784 
-0.00548201 0.0156219 -0.999863 
-0.0057114 0.0119289 -0.999913 
-0.00586414 0.00879011 -0.999944 
-0.00596567 0.00615134 -0.999963 
-0.00602414 0.00389371 -0.999974 
-0.00607169 0.00188759 -0.99998 
-0.00610237 9.72885e-05 -0.999981 
-0.00609874 -0.00156861 -0.99998 
-0.00601676 -0.00317578 -0.999977 
-0.00587937 -0.00475594 -0.999971 
-0.00565948 -0.00642483 -0.999963 
-0.00530731 -0.00822727 -0.999952 
-0.00545827 -0.00971449 -0.999938 
-0.00499827 -0.0105891 -0.999931 
-0.00427039 -0.0114242 -0.999926 
-0.00359081 -0.0117678 -0.999924 
-0.00218396 -0.00897203 -0.999957 
-7.88516e-05 -0.000215192 -1 
7.62893e-05 -0.000223777 1 
0.00187691 -0.0090775 0.999957 
0.00261028 -0.0115766 0.99993 
0.00359487 -0.011875 0.999923 
0.00381883 -0.0111261 0.999931 
0.00394274 -0.01011 0.999941 
0.00475071 -0.00889011 0.999949 
0.00471529 -0.00715868 0.999963 
0.00474258 -0.00537563 0.999974 
0.00482719 -0.00367826 0.999982 
0.00494376 -0.00200738 0.999986 
0.00502024 -0.000267016 0.999987 
0.00502397 0.00159197 0.999986 
0.00502167 0.00361299 0.999981 
0.00498038 0.00587511 0.99997 
0.00488556 0.0084773 0.999952 
0.00474201 0.0115149 0.999922 
0.00456408 0.0150924 0.999876 
0.0043429 0.0194373 0.999802 
0.00406262 0.0247607 0.999685 
0.00373044 0.0313008 0.999503 
0.00334183 0.0393661 0.999219 
0.00288308 0.0493801 0.998776 
0.00235792 0.0617996 0.998086 
0.00177621 0.0771527 0.997018 
0.00113165 0.0961807 0.995363 
0.000424153 0.119824 0.992795 
-0.000325388 0.149014 0.988835 
-0.00109591 0.184857 0.982765 
-0.00186589 0.228697 0.973496 
-0.00260662 0.281912 0.959437 
-0.0032785 0.345893 0.938268 
-0.00382478 0.421852 0.906656 
-0.00417951 0.509946 0.860196 
-0.00428252 0.60875 0.793351 
-0.00409832 0.714143 0.699987 
-0.00359716 0.818168 0.574969 
-0.00269373 0.910574 0.413337 
-0.00145719 0.975732 0.218962 
-2.96888e-05 0.99999 0.00445124 
0.00139731 0.97759 -0.210514 
0.00264235 0.913691 -0.4064 
0.00357153 0.821209 -0.570616 
0.00411611 0.715082 -0.699028 
0.00429641 0.608286 -0.793707 
0.00418077 0.508945 -0.860789 
0.00381744 0.420559 -0.907257 
0.0032579 0.344331 -0.938843 
0.00258384 0.280341 -0.959897 
0.00184972 0.227376 -0.973805 
0.00106839 0.183437 -0.983031 
0.000289329 0.147559 -0.989053 
-0.000452634 0.118672 -0.992933 
-0.00116015 0.0950995 -0.995467 
-0.00181582 0.0757332 -0.997126 
-0.00238014 0.0600104 -0.998195 
-0.00301872 0.0482186 -0.998832 
-0.00334121 0.0380627 -0.99927 
-0.00384859 0.0296731 -0.999552 
-0.00412373 0.0233543 -0.999719 
-0.00437422 0.0181998 -0.999825 
-0.00457415 0.0140096 -0.999891 
-0.00478637 0.0105718 -0.999933 
-0.00487778 0.00751152 -0.99996 
-0.00491121 0.00505342 -0.999975 
-0.00496983 0.00287274 -0.999984 
-0.00498956 0.000962851 -0.999987 
-0.00501973 -0.000715889 -0.999987 
-0.0050108 -0.00223559 -0.999985 
-0.00489341 -0.00372126 -0.999981 