# vtk DataFile Version 3.0 
Exported using Morpho https://github.com/Morpho-lang/morpho 
ASCII 
DATASET UNSTRUCTURED_GRID 

POINTS 1978 float 
-8.48524 -2.82837 -3.26301e-07 
-8.25355 -2.82836 -1.21104e-07 
-8.02122 -2.82834 5.65582e-07 
-7.7525 -2.82837 7.31525e-07 
-7.45986 -2.82836 7.19745e-07 
-7.22094 -2.82838 3.47315e-07 
-6.98335 -2.82837 1.76132e-07 
-6.76418 -2.82838 1.97817e-07 
-6.55479 -2.82837 1.42033e-07 
-6.33854 -2.82837 1.2389e-07 
-6.13215 -2.82838 9.64236e-08 
-5.92369 -2.82838 9.00399e-08 
-5.71218 -2.82837 6.98904e-08 
-5.51011 -2.82838 4.71208e-08 
-5.29429 -2.82837 2.96124e-08 
-5.08076 -2.82837 1.52262e-08 
-4.86472 -2.82837 1.6e-09 
-4.65289 -2.82837 -2.14489e-08 
-4.43137 -2.82837 -5.39711e-08 
-4.20344 -2.82837 -8.19406e-08 
-3.98588 -2.82838 -1.03552e-07 
-3.77596 -2.82838 -1.37457e-07 
-3.56466 -2.82838 -1.77288e-07 
-3.35491 -2.82838 -2.38807e-07 
-3.14053 -2.82838 -2.97885e-07 
-2.92997 -2.82838 -3.05954e-07 
-2.72938 -2.82839 -2.79733e-07 
-2.53451 -2.82839 -3.65192e-07 
-2.31807 -2.82839 -4.16433e-07 
-2.10892 -2.8284 -4.43381e-07 
-1.88925 -2.8284 -3.0773e-07 
-1.68821 -2.8284 -2.63796e-07 
-1.48307 -2.82841 -1.57602e-07 
-1.27599 -2.82841 1.60447e-07 
-1.09894 -2.8284 -6.92868e-07 
-0.837658 -2.82841 -4.77171e-07 
-0.634766 -2.82839 -3.15158e-07 
-0.448376 -2.82836 2.21863e-07 
-0.211282 -2.82839 -1.05724e-06 
0.0285172 -2.82836 4.62941e-07 
0.228062 -2.82839 -2.47883e-07 
0.423185 -2.82837 3.13402e-07 
0.660151 -2.82839 1.14104e-06 
0.877527 -2.8284 1.01218e-06 
1.06645 -2.82841 -1.70322e-08 
1.25727 -2.82842 -1.7382e-08 
1.4468 -2.82841 5.679e-07 
1.68749 -2.8284 3.2232e-07 
1.87926 -2.8284 1.98712e-07 
2.09343 -2.8284 5.34159e-07 
2.32609 -2.82839 4.02719e-07 
2.51169 -2.82839 3.38624e-07 
2.73692 -2.82838 4.20375e-07 
2.95227 -2.82839 3.32505e-07 
3.16207 -2.82838 2.36245e-07 
3.35962 -2.82838 2.31534e-07 
3.58259 -2.82838 1.87586e-07 
3.78495 -2.82838 1.30794e-07 
4.00181 -2.82837 1.23217e-07 
4.23126 -2.82837 8.11487e-08 
4.43451 -2.82837 3.86048e-08 
4.653 -2.82838 1.9631e-08 
4.85856 -2.82837 -3.84692e-09 
5.07222 -2.82838 -2.29421e-08 
5.28566 -2.82837 -3.83536e-08 
5.50085 -2.82837 -5.00774e-08 
5.70847 -2.82837 -7.66589e-08 
5.92738 -2.82837 -1.03174e-07 
6.15164 -2.82837 -1.02486e-07 
6.35583 -2.82837 -1.44167e-07 
6.58908 -2.82837 -1.64655e-07 
6.80288 -2.82838 -1.23474e-07 
6.99922 -2.82838 -3.08255e-07 
7.2586 -2.82837 -4.7297e-07 
7.49104 -2.82837 -5.23223e-07 
7.72485 -2.82837 -6.3341e-07 
7.99055 -2.82837 -5.81493e-07 
8.17912 -2.82835 -8.90031e-08 
8.48522 -2.82835 2.66086e-07 
-8.48523 -2.59172 3.25938e-07 
-8.24708 -2.58324 2.10362e-07 
-8.00938 -2.57728 -5.66596e-08 
-7.7736 -2.62029 -4.96227e-08 
-7.51212 -2.64166 -1.05415e-07 
-7.2183 -2.60166 2.17483e-08 
-6.98583 -2.58081 -1.30947e-08 
-6.77417 -2.58176 -7.23926e-08 
-6.54832 -2.58819 -3.68094e-08 
-6.33398 -2.57602 -4.111e-08 
-6.1168 -2.58125 -2.38051e-08 
-5.89966 -2.58425 -6.14182e-09 
-5.68999 -2.57081 -1.37793e-08 
-5.47124 -2.58699 -4.26989e-09 
-5.25349 -2.58292 -1.5485e-09 
-5.03475 -2.58494 4.14925e-09 
-4.82076 -2.57878 1.34891e-08 
-4.60017 -2.58894 2.07004e-08 
-4.37292 -2.5955 2.51157e-08 
-4.15225 -2.58543 3.86897e-08 
-3.94058 -2.5782 5.18719e-08 
-3.72911 -2.58209 5.85718e-08 
-3.51794 -2.58417 7.6046e-08 
-3.30357 -2.59358 7.07668e-08 
-3.08998 -2.59405 9.53567e-08 
-2.88382 -2.5867 1.3628e-07 
-2.68559 -2.58304 1.593e-07 
-2.47466 -2.60662 2.74008e-08 
-2.25793 -2.59534 1.70648e-07 
-2.04039 -2.60243 5.88042e-08 
-1.82866 -2.57498 2.59442e-07 
-1.61886 -2.57563 7.66732e-08 
-1.41473 -2.57694 3.33504e-07 
-1.22745 -2.51921 -1.45793e-07 
-1.00117 -2.62609 -1.27498e-07 
-0.788839 -2.55407 6.44413e-07 
-0.596419 -2.50453 -5.03601e-07 
-0.391661 -2.4847 -2.08346e-06 
-0.201435 -2.56788 -6.09085e-07 
0.0197967 -2.51719 1.1823e-06 
0.241288 -2.50092 1.33297e-06 
0.451844 -2.37115 5.15559e-07 
0.522746 -2.59464 -5.32148e-07 
0.804054 -2.58479 4.8119e-07 
1.05071 -2.54876 -9.01839e-07 
1.25929 -2.55401 1.96902e-07 
1.50292 -2.62452 1.14671e-07 
1.7184 -2.57203 -2.51329e-07 
1.93265 -2.60205 2.07847e-08 
2.16817 -2.6224 -4.13349e-08 
2.37196 -2.56759 -2.84142e-07 
2.58286 -2.61061 1.68674e-08 
2.80904 -2.59942 -1.52798e-07 
3.01795 -2.59133 -1.12218e-07 
3.22018 -2.57189 -1.20554e-07 
3.43518 -2.59931 -4.5887e-08 
3.64235 -2.57327 -7.72873e-08 
3.85503 -2.58802 -3.89141e-08 
4.08121 -2.59994 -3.07195e-08 
4.2922 -2.56959 -4.14249e-08 
4.50818 -2.58819 -1.94072e-08 
4.71928 -2.57362 -1.70732e-08 
4.93452 -2.58467 -8.48881e-09 
5.1504 -2.58534 -3.5828e-09 
5.36934 -2.58732 4.42857e-10 
5.58365 -2.57764 1.11284e-08 
5.80118 -2.58895 1.16767e-08 
6.02705 -2.5924 1.67086e-08 
6.24304 -2.56702 5.44407e-08 
6.46421 -2.59917 2.34746e-08 
6.68957 -2.5775 5.60643e-08 
6.89686 -2.5544 9.62668e-08 
7.12118 -2.62079 -3.87883e-08 
7.37165 -2.59395 6.2886e-08 
7.60608 -2.59388 3.97832e-08 
7.85712 -2.6207 -1.40927e-07 
8.07038 -2.53065 2.10681e-07 
8.30041 -2.63738 -4.11619e-07 
8.48522 -2.51443 -8.27627e-08 
-8.4852 -2.35071 2.28549e-07 
-8.22811 -2.34985 -1.9405e-07 
-7.98811 -2.33365 -4.67521e-07 
-7.74572 -2.39792 -3.2356e-07 
-7.55893 -2.24413 -3.97649e-07 
-7.44825 -2.45366 -3.24866e-07 
-7.16845 -2.38018 -3.01121e-07 
-6.94371 -2.31977 -2.93297e-07 
-6.71331 -2.35723 -2.25817e-07 
-6.48638 -2.34509 -2.16808e-07 
-6.2521 -2.33999 -1.72142e-07 
-6.0309 -2.34155 -1.32571e-07 
-5.81665 -2.33263 -9.50663e-08 
-5.58595 -2.34176 -6.82131e-08 
-5.3667 -2.34615 -3.63709e-08 
-5.14261 -2.34579 -8.9528e-09 
-4.92553 -2.3366 1.95274e-08 
-4.70369 -2.34621 5.04888e-08 
-4.48022 -2.36081 8.40462e-08 
-4.26014 -2.35247 1.22984e-07 
-4.04465 -2.33499 1.65958e-07 
-3.83219 -2.33557 2.15995e-07 
-3.62166 -2.34141 2.82931e-07 
-3.40797 -2.35409 3.64509e-07 
-3.19584 -2.36197 4.57698e-07 
-2.9859 -2.3546 5.58086e-07 
-2.7806 -2.34081 6.73844e-07 
-2.57112 -2.36631 8.40711e-07 
-2.36126 -2.37971 9.66251e-07 
-2.13148 -2.36955 1.02139e-06 
-1.91766 -2.35214 1.09286e-06 
-1.68505 -2.33311 8.48541e-07 
-1.4683 -2.31116 2.83894e-07 
-1.26482 -2.25154 7.64796e-07 
-1.03453 -2.3754 -4.97417e-08 
-0.840658 -2.2733 -1.79763e-07 
-0.597494 -2.2391 1.30116e-07 
-0.373037 -2.16778 -2.92874e-07 
-0.170607 -2.25872 -1.86634e-07 
0.0151472 -2.13142 -7.86812e-07 
0.200543 -2.18948 -2.39456e-07 
0.422554 -2.08817 9.4052e-08 
0.648259 -2.17247 2.10705e-06 
0.770806 -2.35339 -6.88801e-07 
1.02573 -2.30642 4.64551e-07 
1.2531 -2.29767 -4.39056e-07 
1.47081 -2.39668 -7.85192e-07 
1.66648 -2.32434 -1.0518e-06 
1.88332 -2.3568 -1.07796e-06 
2.09373 -2.40543 -9.84945e-07 
2.30146 -2.34864 -1.05592e-06 
2.53478 -2.36289 -8.15623e-07 
2.74084 -2.38802 -7.01351e-07 
2.96689 -2.35047 -5.72041e-07 
3.16551 -2.33061 -4.76642e-07 
3.38185 -2.35835 -3.66669e-07 
3.58619 -2.33271 -3.04059e-07 
3.79862 -2.3417 -2.33683e-07 
4.01271 -2.36637 -1.71032e-07 
4.22347 -2.33137 -1.32363e-07 
4.44415 -2.34157 -8.77476e-08 
4.65201 -2.32974 -5.54146e-08 
4.86817 -2.34077 -2.54326e-08 
5.08242 -2.34311 1.70887e-09 
5.29782 -2.35035 2.89498e-08 
5.51412 -2.3384 5.69252e-08 
5.73428 -2.34512 8.7267e-08 
5.95351 -2.35815 1.19128e-07 
6.17126 -2.33001 1.63407e-07 
6.40243 -2.34854 2.02463e-07 
6.61552 -2.34703 2.42437e-07 
6.83436 -2.30292 2.72786e-07 
7.06409 -2.36297 3.21634e-07 
7.2803 -2.3889 3.72101e-07 
7.53503 -2.3589 4.39044e-07 
7.77806 -2.39265 3.29295e-07 
7.99073 -2.30131 4.55391e-07 
8.25369 -2.36196 1.07973e-07 
8.48522 -2.26632 -1.16304e-07 
-8.48522 -2.08347 1.42132e-07 
-8.27126 -2.1177 6.32641e-08 
-8.04341 -2.08471 -2.18466e-07 
-7.79825 -2.14587 -1.51751e-07 
-7.53275 -2.02536 -5.92817e-08 
-7.30945 -2.21993 -2.92892e-07 
-7.07211 -2.11434 -1.31192e-07 
-6.80482 -2.10884 -1.02668e-07 
-6.59378 -2.12077 -1.20305e-07 
-6.35709 -2.12079 -1.02218e-07 
-6.12776 -2.09992 -7.29368e-08 
-5.91888 -2.09099 -4.89727e-08 
-5.69554 -2.112 -3.66052e-08 
-5.4724 -2.10613 -1.82776e-08 
-5.25413 -2.11421 -6.24729e-09 
-5.03758 -2.10242 7.01461e-09 
-4.81547 -2.10699 2.0947e-08 
-4.5941 -2.12126 3.77858e-08 
-4.37918 -2.12209 5.53696e-08 
-4.16592 -2.10586 7.04084e-08 
-3.95075 -2.09471 8.78631e-08 
-3.7392 -2.09908 1.14921e-07 
-3.52633 -2.11357 1.55209e-07 
-3.31486 -2.12519 2.03685e-07 
-3.10577 -2.12721 2.52483e-07 
-2.89753 -2.1135 2.8111e-07 
-2.67996 -2.11949 3.42271e-07 
-2.47168 -2.14026 4.52375e-07 
-2.25442 -2.16029 5.88973e-07 
-2.02798 -2.1219 4.93987e-07 
-1.79929 -2.12309 5.10557e-07 
-1.56678 -2.07615 2.77307e-07 
-1.36168 -2.01282 -2.83122e-07 
-1.14779 -1.90004 1.78629e-07 
-1.07615 -2.11146 -2.80811e-07 
-0.810407 -2.03557 3.29497e-07 
-0.548789 -1.98404 8.04003e-07 
-0.368011 -1.7878 1.9745e-07 
-0.181494 -1.92879 3.62498e-07 
0.0229406 -1.75465 8.40486e-07 
0.238461 -1.87452 -2.4357e-06 
0.287427 -1.60339 -4.12163e-07 
0.49623 -1.83003 1.20704e-06 
0.732706 -1.95616 -1.69574e-06 
0.946579 -2.08641 8.29225e-09 
1.20213 -2.04369 -3.84739e-08 
1.43647 -2.13901 -4.469e-07 
1.64899 -2.0858 -2.33843e-07 
1.87693 -2.12269 -4.60267e-07 
2.10168 -2.16554 -6.13375e-07 
2.35198 -2.14359 -4.98144e-07 
2.5735 -2.12685 -4.09168e-07 
2.78866 -2.16434 -4.32665e-07 
2.98839 -2.09401 -2.41027e-07 
3.21211 -2.11 -2.08704e-07 
3.41396 -2.11166 -1.73433e-07 
3.62834 -2.09749 -1.27637e-07 
3.84353 -2.11107 -1.07193e-07 
4.04708 -2.11901 -8.67716e-08 
4.27319 -2.10242 -5.7709e-08 
4.47949 -2.09395 -4.06421e-08 
4.69823 -2.09567 -2.72115e-08 
4.91174 -2.10383 -1.57391e-08 
5.12735 -2.10644 -2.65021e-09 
5.34105 -2.11249 1.14503e-08 
5.56351 -2.10675 2.54313e-08 
5.78378 -2.11216 4.33925e-08 
5.99623 -2.11376 6.54786e-08 
6.23373 -2.10839 8.57334e-08 
6.44731 -2.10033 1.01849e-07 
6.65843 -2.09665 1.09776e-07 
6.90993 -2.09131 9.06918e-08 
7.12345 -2.12214 1.27891e-07 
7.35072 -2.16915 2.37164e-07 
7.53894 -2.07088 1.18217e-07 
7.72711 -2.15942 2.10309e-07 
7.94799 -2.07138 3.85083e-08 
8.20239 -2.13631 2.85005e-07 
8.48523 -2.06578 -3.31953e-07 
-8.48521 -1.78385 2.99794e-08 
-8.29366 -1.86243 2.77056e-07 
-7.89108 -1.89781 8.45309e-08 
-7.67591 -1.8812 3.0667e-08 
[...]
POINT_DATA 1978 
VECTORS vectors float
0.0215363 -0.0227983 0.999505 
0.024048 -0.0610218 0.99786 
0.0190535 -0.0795409 0.996649 
0.0161819 -0.0742632 0.997086 
0.0156745 -0.0640864 0.997803 
0.0196665 -0.0543751 0.998327 
0.0219823 -0.0430209 0.998837 
0.0210785 -0.0347001 0.999177 
0.0215367 -0.0275842 0.99939 
0.0221288 -0.02211 0.999514 
0.022825 -0.0178414 0.999583 
0.0228439 -0.0143164 0.999639 
0.0228562 -0.01088 0.999682 
0.0225327 -0.00770529 0.999719 
0.0222418 -0.00461909 0.999744 
0.0220768 -0.00172089 0.999757 
0.0221422 0.00132124 0.999756 
0.0216992 0.00479016 0.999755 
0.0209125 0.00897752 0.999742 
0.021064 0.0140411 0.999681 
0.0217754 0.0200637 0.999564 
0.0219189 0.0271949 0.999393 
0.021741 0.0359672 0.99912 
0.021207 0.0467451 0.998685 
0.0208839 0.0603108 0.997965 
0.0210914 0.0769622 0.996815 
0.0210507 0.0970348 0.995064 
0.0196915 0.121258 0.992431 
0.0181292 0.154854 0.987777 
0.0165367 0.195908 0.98049 
0.0153886 0.250219 0.968074 
0.0137501 0.311983 0.949996 
0.0119534 0.387182 0.921933 
0.00967329 0.477398 0.878641 
0.00643449 0.565876 0.824471 
0.00340117 0.704495 0.709706 
0.00221154 0.809224 0.587501 
0.00103261 0.89404 0.447992 
-0.000345325 0.97538 0.22053 
-0.000483437 0.999359 -0.0358281 
-0.000191572 0.972154 -0.234335 
-0.000620956 0.90641 -0.422406 
-0.00185415 0.799174 -0.601101 
-0.00437679 0.682693 -0.730697 
-0.00766528 0.581575 -0.813463 
-0.00938422 0.487067 -0.873319 
-0.0101534 0.402576 -0.915338 
-0.0133883 0.312588 -0.949802 
-0.0154828 0.253023 -0.967344 
-0.016228 0.200607 -0.979545 
-0.0181579 0.154805 -0.987785 
-0.0190294 0.124665 -0.992022 
-0.0193525 0.0964696 -0.995153 
-0.0204821 0.0755522 -0.996936 
-0.0215871 0.0591985 -0.998017 
-0.0214019 0.0468365 -0.998677 
-0.0217163 0.0357912 -0.999127 
-0.0217336 0.0272504 -0.999396 
-0.020961 0.0200021 -0.999582 
-0.021571 0.0138078 -0.999674 
-0.0222373 0.00892009 -0.999716 
-0.0224218 0.00463713 -0.99974 
-0.022477 0.00107057 -0.999749 
-0.0222517 -0.00221321 -0.999752 
-0.0221863 -0.00509354 -0.999743 
-0.0225045 -0.00803679 -0.999717 
-0.0221293 -0.0111918 -0.999695 
-0.0215596 -0.0144704 -0.999664 
-0.0218652 -0.0183481 -0.999595 
-0.0211109 -0.0228972 -0.999517 
-0.021024 -0.0289011 -0.999363 
-0.0221803 -0.036688 -0.999085 
-0.0198934 -0.0458884 -0.998751 
-0.018282 -0.0588996 -0.998096 
-0.0189446 -0.0704119 -0.997339 
-0.01853 -0.0788873 -0.996708 
-0.0198814 -0.0849715 -0.996187 
-0.0203351 -0.0722578 -0.997191 
-0.0228229 -0.0216714 -0.999501 
0.00988094 -0.0312739 0.999453 
0.0206819 -0.0543818 0.998303 
0.0297192 -0.0708904 0.997052 
0.0304371 -0.0727294 0.996889 
0.0301734 -0.0645018 0.997462 
0.0333458 -0.0522792 0.99808 
0.0360611 -0.04303 0.998435 
0.0372226 -0.0351122 0.99869 
0.0373162 -0.0277512 0.998923 
0.0388204 -0.0220487 0.999008 
0.0389358 -0.0174499 0.999095 
0.0390192 -0.0136799 0.99915 
0.0403486 -0.0102265 0.999139 
0.038956 -0.00692626 0.999221 
0.03923 -0.00384802 0.999228 
0.0390473 -0.000812055 0.999242 
0.0394171 0.00232391 0.999225 
0.0383071 0.00598043 0.999252 
0.0375843 0.0104936 0.999242 
0.0384171 0.0158099 0.999142 
0.038773 0.0219422 0.999013 
0.0381023 0.029376 0.998847 
0.0375382 0.0385474 0.998557 
0.0361517 0.0501584 0.998092 
0.0354491 0.0646736 0.997282 
0.0349954 0.0822192 0.996006 
0.0336694 0.103206 0.994097 
0.0297875 0.131069 0.990931 
0.0280235 0.1676 0.985464 
0.0244458 0.213905 0.976556 
0.0224077 0.270823 0.962379 
0.018569 0.339289 0.94051 
0.0149543 0.419036 0.907856 
0.0124709 0.503591 0.863865 
0.00722264 0.61879 0.785532 
0.00571608 0.731658 0.681661 
0.0036819 0.828861 0.559445 
0.00160542 0.919364 0.393407 
-3.06777e-05 0.977545 0.210722 
-0.000953317 0.99982 -0.0185189 
-0.00256093 0.969035 -0.246953 
-0.00567381 0.898113 -0.439738 
-0.00390742 0.861953 -0.50698 
-0.00677247 0.718586 -0.695409 
-0.0107924 0.588139 -0.808702 
-0.0136449 0.485694 -0.874037 
-0.0156726 0.381549 -0.924223 
-0.0209473 0.304619 -0.952256 
-0.0230441 0.241239 -0.9702 
-0.0255057 0.185959 -0.982232 
-0.031117 0.148255 -0.988469 
-0.0301014 0.116289 -0.992764 
-0.0333011 0.0896983 -0.995418 
-0.0350635 0.0704989 -0.996901 
-0.0374 0.0557825 -0.997749 
-0.0360232 0.0431852 -0.998422 
-0.0385142 0.0334092 -0.998706 
-0.0376321 0.0251732 -0.998979 
-0.0370805 0.0179912 -0.999154 
-0.0398243 0.0125054 -0.999135 
-0.0385288 0.00774068 -0.999232 
-0.0398912 0.00381391 -0.999202 
-0.0391285 0.000274778 -0.999239 
-0.0391386 -0.00291097 -0.999234 
-0.0391183 -0.00596736 -0.999221 
-0.0398765 -0.00895057 -0.99917 
-0.0386269 -0.012216 -0.999183 
-0.0381474 -0.01601 -0.999148 
-0.0398738 -0.020294 -0.999005 
-0.0364977 -0.0257553 -0.999005 
-0.0379639 -0.0329108 -0.998743 
-0.03893 -0.0409224 -0.998412 
-0.0326216 -0.0508479 -0.998176 
-0.0347892 -0.062129 -0.997467 
-0.0341088 -0.0717475 -0.996845 
-0.0308772 -0.0788622 -0.996409 
-0.0320035 -0.0695339 -0.997086 
-0.0166668 -0.0486011 -0.998667 
-0.0134041 -0.0277328 -0.99951 
0.0105506 -0.0276711 0.999559 
0.0263887 -0.0511288 0.998354 
0.0416499 -0.0694982 0.996729 
0.0434471 -0.0700178 0.996613 
0.0486791 -0.0635579 0.996799 
0.0426901 -0.0605649 0.997267 
0.0474776 -0.0498964 0.997637 
0.0510497 -0.0417877 0.997827 
0.0508098 -0.0333815 0.998166 
0.0527173 -0.0262489 0.998275 
0.0538332 -0.0201978 0.998356 
0.0544583 -0.0156014 0.998405 
0.0548015 -0.0117764 0.998438 
0.0547752 -0.00819995 0.998475 
0.0546866 -0.00509968 0.998501 
0.0546262 -0.00199951 0.998515 
0.054754 0.00111601 0.998509 
0.0542197 0.00458273 0.998529 
0.0534576 0.00864196 0.998543 
0.0534539 0.0134489 0.99849 
0.0535778 0.0191188 0.998391 
0.0530748 0.0258784 0.998265 
0.0524124 0.0341046 0.998053 
0.051351 0.0444832 0.9977 
0.0501015 0.0574126 0.997103 
0.0488857 0.0735422 0.996104 
0.047274 0.0933039 0.994525 
0.0441111 0.118379 0.991999 
0.0403518 0.150199 0.987844 
0.0359841 0.194839 0.980187 
0.0315865 0.247574 0.968367 
0.0258976 0.319348 0.947296 
0.0205916 0.399431 0.916546 
0.0164363 0.488238 0.872567 
0.0112615 0.599539 0.800278 
0.00866744 0.701552 0.712575 
0.00500182 0.8276 0.56131 
0.00133315 0.925672 0.378334 
-0.00120749 0.982998 0.183622 
-0.00427853 0.999913 -0.0126596 
-0.005662 0.978609 -0.205634 
-0.00839417 0.908567 -0.417658 
-0.00927398 0.804834 -0.593438 
-0.00960444 0.735918 -0.677017 
-0.0139884 0.600558 -0.799468 
-0.0182041 0.489708 -0.871709 
-0.0218919 0.395964 -0.918018 
-0.0274305 0.324205 -0.945602 
-0.0316723 0.256835 -0.965948 
-0.0349647 0.2036 -0.978441 
-0.0403919 0.161632 -0.986035 
-0.0432515 0.123977 -0.991353 
-0.0452809 0.0977181 -0.994195 
-0.0484557 0.0753323 -0.995991 
-0.050548 0.0597948 -0.99694 
-0.050828 0.0462606 -0.997646 
-0.0525839 0.0360503 -0.997976 
-0.0528753 0.0274163 -0.998235 
-0.0524656 0.0202853 -0.998427 
-0.0541681 0.0145578 -0.998436 
-0.0540829 0.0094902 -0.998501 
-0.0548112 0.00545087 -0.998492 
-0.054741 0.00175811 -0.998509 
-0.0549256 -0.00150141 -0.998499 
-0.0548435 -0.00455857 -0.998495 
-0.0552791 -0.00754757 -0.998452 
-0.054895 -0.0107894 -0.998444 
-0.0540701 -0.0144168 -0.998444 
-0.0546531 -0.0186366 -0.998342 
-0.0531675 -0.0242475 -0.998302 
-0.052349 -0.0306935 -0.998168 
-0.052541 -0.0387056 -0.997878 
-0.0498859 -0.0477685 -0.997623 
-0.0481031 -0.0566004 -0.997249 
-0.0478168 -0.0661565 -0.996675 
-0.0450992 -0.0743723 -0.996223 
-0.0440929 -0.0715819 -0.996475 
-0.0259771 -0.0494654 -0.998441 
-0.0123506 -0.028226 -0.999524 
0.0101871 -0.0238448 0.999635 
0.0219878 -0.0461819 0.998692 
0.0374108 -0.0651587 0.99719 
0.0449138 -0.0697668 0.996564 
0.0447463 -0.0621915 0.99707 
0.0497879 -0.0548122 0.997264 
0.0497805 -0.0466399 0.997681 
0.0513067 -0.0371984 0.997999 
0.0528937 -0.0298733 0.998162 
0.0540072 -0.0228508 0.998288 
0.0543862 -0.0173452 0.998378 
0.0544816 -0.0131833 0.998436 
0.055088 -0.00948173 0.998445 
0.0550225 -0.00618555 0.998474 
0.0550395 -0.00314779 0.998488 
0.0546277 -8.93061e-05 0.998515 
0.0544651 0.00322677 0.998519 
0.0544202 0.00694862 0.998502 
0.0540682 0.0112032 0.998483 
0.053363 0.0162552 0.998451 
0.0526559 0.0223978 0.99837 
0.0521649 0.0297609 0.998203 
0.0516893 0.0389201 0.997913 
0.0508595 0.0503165 0.997446 
0.0495001 0.064528 0.996696 
0.0473755 0.0824336 0.995479 
0.0449114 0.106003 0.993361 
0.0421499 0.134291 0.990055 
0.0385092 0.171566 0.98443 
0.0330974 0.221834 0.974534 
0.0278911 0.28508 0.95811 
0.0217931 0.364313 0.931034 
0.0168412 0.447142 0.894319 
0.0121439 0.54826 0.83623 
0.0123698 0.578931 0.815295 
0.00815026 0.71926 0.694703 
0.0038745 0.853514 0.521064 
-1.86697e-05 0.929912 0.367794 
-0.00269716 0.982271 0.187443 
-0.00551401 0.99958 -0.0282614 
-0.00764842 0.967743 -0.251848 
-0.00724625 0.952373 -0.304831 
-0.00954388 0.873728 -0.486333 
-0.0105992 0.758217 -0.651924 
-0.0128411 0.643248 -0.765561 
-0.0165209 0.516452 -0.85617 
-0.0215977 0.412141 -0.910879 
-0.0255226 0.333679 -0.942352 
-0.0307045 0.26132 -0.964776 
-0.0358787 0.203439 -0.978443 
-0.0403916 0.153563 -0.987324 
-0.0435716 0.11946 -0.991892 
-0.0469851 0.0931886 -0.994549 
-0.0477596 0.0743005 -0.996101 
-0.0498281 0.0571841 -0.997128 
-0.0509738 0.0449891 -0.997695 
-0.051708 0.0345984 -0.998071 
-0.0526707 0.0261819 -0.998277 
-0.0532965 0.0196958 -0.998393 
-0.0535386 0.013781 -0.998479 
-0.0537247 0.00925095 -0.998521 
-0.0541263 0.00509933 -0.998529 
-0.0545811 0.00154935 -0.998516 
-0.0548982 -0.0016596 -0.998499 
-0.0552117 -0.00467085 -0.998472 
-0.0552387 -0.00780381 -0.998451 
-0.0552534 -0.0111792 -0.998418 
-0.0550355 -0.0149128 -0.998382 
-0.0545158 -0.019995 -0.998321 
-0.0535937 -0.0257273 -0.99824 
-0.0526 -0.0326139 -0.998092 
-0.0512872 -0.0420267 -0.997808 
-0.0505209 -0.0500742 -0.997476 
-0.0501064 -0.0583634 -0.997045 
-0.0472615 -0.0644129 -0.996813 
-0.04763 -0.0709869 -0.996349 
-0.0428465 -0.0719738 -0.996497 
-0.0309765 -0.053611 -0.998092 
-0.00774862 -0.0303461 -0.999507 
0.0100217 -0.0230183 0.999655 
0.0163646 -0.0440436 0.998893 
0.0378426 -0.0708151 0.99678 
0.0399212 -0.0667435 0.99698 
0.0395121 -0.0592159 0.997473 
0.0457759 -0.0548531 0.997453 
0.0435217 -0.0504736 0.997786 
0.0467315 -0.0427752 0.998 
0.046941 -0.034337 0.998316 
0.049145 -0.0268713 0.998439 
0.0495879 -0.0204741 0.998568 
0.0490843 -0.0153929 0.998684 
0.0498763 -0.0111796 0.998701 
0.0502602 -0.00770113 0.998715 
0.049942 -0.0044521 0.99875 
0.0496557 -0.00151251 0.998773 
0.0493888 0.00165644 0.998786 
0.049276 0.00512893 0.99878 
0.0490161 0.00896343 0.998766 
0.0484965 0.0133678 0.998742 
0.0478311 0.0187154 0.998688 
0.0472149 0.0252237 0.998574 
0.0469151 0.0330942 0.998359 
0.0464876 0.0427593 0.998012 
0.0456249 0.0547652 0.997465 
0.0441237 0.0697911 0.996594 
0.0420222 0.089781 0.995084 
0.0393265 0.114709 0.99263 
0.0366661 0.145737 0.988654 
0.0330494 0.186468 0.981916 
0.0275245 0.24553 0.96901 
0.0227939 0.312735 0.949577 
0.0176997 0.388018 0.921495 
0.0134091 0.479752 0.877314 
0.0081244 0.668469 0.743707 
0.00399492 0.811009 0.58503 
0.00168588 0.885265 0.465095 
0.000411506 0.965655 0.259825 
-0.00202468 0.982443 0.186555 
-0.0043306 0.997061 -0.0765331 
-0.00225471 0.989699 -0.143173 
-0.006763 0.923877 -0.382655 
-0.00963133 0.836744 -0.547518 
-0.0109066 0.724151 -0.68956 
-0.0131491 0.602437 -0.798072 
-0.0142284 0.529603 -0.848135 
-0.0174992 0.452104 -0.891807 
-0.0204215 0.374167 -0.927148 
-0.0250867 0.290543 -0.956545 
-0.0302078 0.224922 -0.97392 
-0.0346282 0.176368 -0.983726 
-0.0377581 0.13644 -0.989939 
-0.0412279 0.103023 -0.993834 
-0.042302 0.0832454 -0.99564 
-0.0444889 0.0634699 -0.997 
-0.0453938 0.0493909 -0.997756 
-0.0464027 0.038622 -0.998184 
-0.0472486 0.0292845 -0.998462 
-0.0476802 0.0221528 -0.998625 
-0.0485197 0.0163199 -0.998697 
-0.0480691 0.0112369 -0.998789 
-0.0487636 0.00696932 -0.998794 
-0.0491114 0.0031596 -0.998796 
-0.0496001 -0.0001141 -0.998777 
-0.0499287 -0.00321539 -0.998756 
-0.0502927 -0.00625351 -0.998723 
-0.0503144 -0.0096575 -0.998695 
-0.0500453 -0.0134279 -0.998665 
-0.050231 -0.0180366 -0.998583 
-0.0488626 -0.0240188 -0.998525 
-0.0477843 -0.030972 -0.998386 
-0.0474901 -0.0391269 -0.998114 
-0.0455376 -0.0484676 -0.997796 
-0.0453759 -0.0559858 -0.997409 
-0.0420293 -0.0633289 -0.997116 
-0.0410786 -0.0707066 -0.99666 
-0.0350528 -0.0685809 -0.997044 
-0.024284 -0.0502895 -0.998443 
-0.00775448 -0.0293912 -0.99954 
0.008087 -0.0278196 0.999582 
0.0152752 -0.0460484 0.998822 
0.0281194 -0.0612364 0.997746 
0.0318363 -0.0711428 0.996968 
0.0348178 -0.0666217 0.997179 
0.0375878 -0.0555673 0.997756 
0.0402357 -0.0471089 0.998088 
0.0421511 -0.0396302 0.998334 
0.043272 -0.029796 0.998628 
0.0443857 -0.0232188 0.998753 
0.0439517 -0.0174982 0.998889 
0.0442408 -0.0123145 0.998953 
0.0447081 -0.0085311 0.998972 
0.044744 -0.00522483 0.998993 
0.0440374 -0.00207242 0.999036 
0.0440244 0.000917119 0.999038 
0.0438064 0.00430015 0.999039 
0.0433495 0.00807589 0.999036 
0.0427958 0.0122781 0.999016 
0.042356 0.0171683 0.998963 
0.0418757 0.023195 0.998862 
0.0415183 0.0306345 0.998676 
0.041259 0.0396247 0.998371 
0.0406871 0.0507597 0.99789 
0.039542 0.0646984 0.99713 
0.0380238 0.0827885 0.995851 
0.0355669 0.106378 0.993699 
0.0328577 0.136964 0.990041 
0.0300632 0.174235 0.984256 
0.0261933 0.224167 0.974211 
0.0208751 0.295509 0.955126 
0.0161242 0.37705 0.926065 
0.0120447 0.478482 0.878027 
0.008042 0.58094 0.813918 
0.00850893 0.600067 0.799916 
0.00436915 0.74885 0.662729 
0.00263375 0.826873 0.562383 
0.00239616 0.897097 0.441869 
0.00100604 0.990944 0.134266 
0.00348679 0.999852 0.0161411 
0.000458354 0.996917 -0.0785159 
-0.00202165 0.939426 -0.342755 
-0.00590978 0.876235 -0.481829 
-0.00972797 0.783125 -0.621799 
-0.0115453 0.653027 -0.757263 
-0.0122669 0.544966 -0.838381 
-0.0154963 0.432959 -0.901295 
-0.0193569 0.343793 -0.938858 
-0.0236981 0.26478 -0.964029 
-0.0277076 0.207644 -0.977824 
-0.0313633 0.164329 -0.985918 
-0.0354512 0.12292 -0.991791 
-0.0356806 0.098147 -0.994543 
-0.0387275 0.0756161 -0.996394 
-0.0397727 0.0590038 -0.997474 
-0.0402511 0.0461594 -0.998131 
-0.0415233 0.0356448 -0.99851 
-0.0417706 0.0274074 -0.998759 
-0.042172 0.0206678 -0.998905 
-0.0428804 0.0152247 -0.998972 
-0.04244 0.0103398 -0.999054 
-0.0433427 0.00623663 -0.999049 
-0.0434589 0.00269934 -0.99906 
-0.0441528 -0.000532613 -0.999033 
-0.0443705 -0.00355269 -0.999017 
-0.0449829 -0.00673751 -0.998973 
-0.0447931 -0.010212 -0.998952 
-0.0447165 -0.0144431 -0.998904 
-0.0447573 -0.0194376 -0.998817 
-0.0431852 -0.0258603 -0.998741 
-0.0424934 -0.0338307 -0.998533 
-0.0424615 -0.04259 -0.998198 
-0.0398771 -0.0507395 -0.997924 
-0.040085 -0.0570432 -0.997576 
-0.0365754 -0.0641767 -0.997277 
-0.0357041 -0.070548 -0.996878 
-0.0301676 -0.0690853 -0.997167 
-0.0187304 -0.0474689 -0.998698 
-0.00764848 -0.0292055 -0.999548 
0.00578349 -0.0310456 0.999505 
0.014517 -0.0507305 0.998612 
0.0247888 -0.0662366 0.99751 
0.0278356 -0.0706548 0.997123 
0.0325502 -0.0629654 0.997494 
0.031261 -0.0580733 0.997831 
0.0347038 -0.0510229 0.998102 
0.0349841 -0.0422661 0.998503 
0.0381577 -0.0344217 0.998686 
0.0371619 -0.02612 0.998976 
0.0375357 -0.0202388 0.999099 
0.0381949 -0.0144842 0.999174 
0.0377309 -0.00988083 0.999247 
0.0381258 -0.00638511 0.999261 
0.0379143 -0.00325082 0.999284 
0.0372306 -0.000123969 0.999315 
0.0374962 0.00289839 0.999301 
0.0370128 0.00633514 0.999303 
0.0361719 0.0101757 0.999302 
0.0355725 0.0145419 0.999269 
0.0354422 0.0197851 0.999184 
0.0351785 0.0262284 0.999045 
0.0348397 0.0341331 0.998818 
0.0346082 0.0438415 0.998447 
0.0339786 0.0560211 0.99786 
0.0330144 0.0719908 0.996868 
0.0314222 0.0926505 0.995212 
0.0291255 0.120853 0.992254 
0.0264373 0.157559 0.987167 
0.0238662 0.20312 0.978875 
0.02013 0.266528 0.96363 
0.0149216 0.354419 0.934981 
0.0106103 0.463858 0.885861 
0.00823462 0.571667 0.820457 
0.00539888 0.692864 0.721067 
0.0050169 0.830157 0.557544 
0.00460456 0.91434 0.404921 
0.00536595 0.962566 0.270973 
0.00329914 0.981589 0.191012 
0.00548344 0.994916 0.100561 
0.000445082 0.993852 -0.11072 
-0.00189965 0.979564 -0.201151 
-0.00352701 0.924888 -0.38022 
-0.00529726 0.791302 -0.611422 
-0.00946854 0.690837 -0.72296 
-0.0106883 0.53737 -0.843289 
-0.0133761 0.426483 -0.90441 
-0.0165637 0.343702 -0.938945 
-0.0200402 0.273997 -0.961534 
-0.0232519 0.214009 -0.976566 
-0.0261013 0.167808 -0.985485 
-0.0301082 0.134 -0.990534 
-0.0292429 0.111355 -0.99336 
-0.032229 0.085035 -0.995866 
-0.0334809 0.0667689 -0.997215 
-0.0337571 0.0520766 -0.998081 
-0.0346927 0.0400842 -0.998602 
-0.0351009 0.031177 -0.998905 
-0.0353639 0.023743 -0.9991 
-0.0356845 0.0177057 -0.999214 
-0.0361739 0.012852 -0.999271 
-0.0361893 0.00817639 -0.999319 
-0.0366129 0.00455783 -0.999327 
-0.0371251 0.00111848 -0.999318 
-0.0374691 -0.00192739 -0.999304 
-0.0381473 -0.00513573 -0.999267 
-0.038289 -0.00848801 -0.999239 
-0.0383772 -0.0126189 -0.999192 
-0.0382026 -0.0177442 -0.999121 
-0.0374175 -0.0236568 -0.999028 
-0.0365897 -0.0318349 -0.998833 
-0.0365687 -0.0413515 -0.998484 
-0.0345853 -0.0512681 -0.998095 
-0.0339113 -0.0594084 -0.997667 
-0.0302773 -0.0662503 -0.997352 
-0.0301746 -0.0713873 -0.997001 
-0.0250664 -0.0709319 -0.997178 
-0.0182641 -0.0520595 -0.998484 
-0.00581451 -0.0300728 -0.999535 
0.00425069 -0.0315564 0.999496 
0.0117464 -0.0521263 0.998577 
0.0217297 -0.0706425 0.997277 
0.0217717 -0.0720016 0.997176 
0.0265316 -0.0662161 0.997461 
0.0257635 -0.0592926 0.997917 
0.0283027 -0.0498607 0.998365 
0.0279741 -0.0407145 0.998787 
0.031046 -0.0325814 0.998995 
0.0284048 -0.0255943 0.999277 
0.0304608 -0.0186824 0.99937 
0.0308829 -0.0130629 0.999446 
0.0298043 -0.008594 0.999528 
0.0303229 -0.00509411 0.999535 
0.0303577 -0.00186216 0.999544 
0.0294049 0.00134252 0.999576 
0.0297123 0.0044739 0.999555 
0.028901 0.00800844 0.999558 
0.0279918 0.012026 0.999543 
0.0277524 0.0167589 0.999483 
0.0278382 0.0224446 0.999371 
0.027572 0.0292893 0.999195 
0.0273045 0.0379248 0.998915 
0.0270608 0.0485501 0.998462 
0.0266641 0.0623006 0.99771 
0.025723 0.08014 0.996461 
0.0244101 0.103803 0.994308 
0.0224043 0.135495 0.990536 
0.0201258 0.176877 0.984039 
0.0183692 0.228628 0.973351 
0.015286 0.295029 0.955379 
0.0111025 0.395476 0.918424 
0.00866663 0.497737 0.867298 
0.00710494 0.627775 0.778396 
0.00555467 0.696918 0.717147 
0.00891092 0.864897 0.501897 
0.00897923 0.92369 0.383009 
0.00971397 0.996739 0.0801064 
0.0085068 0.999154 0.0403225 
0.00671298 0.999974 0.00341478 
0.00354447 0.998759 -0.0495235 
0.00156099 0.996357 -0.0856535 
-0.003479 0.940916 -0.338708 
-0.00449907 0.86032 -0.509739 
-0.00758401 0.630459 -0.776199 
-0.0059046 0.588698 -0.808345 
-0.00897981 0.485334 -0.874296 
-0.0113406 0.38578 -0.922536 
-0.0146332 0.30713 -0.951566 
-0.0176665 0.240596 -0.970478 
-0.0200225 0.184273 -0.982683 
-0.0228956 0.140319 -0.989854 
-0.0243174 0.10241 -0.994459 
-0.0257012 0.080242 -0.996448 
-0.0267918 0.0622877 -0.997707 
-0.0272028 0.0476601 -0.998502 
-0.0273222 0.0371388 -0.998945 
-0.0278036 0.0286787 -0.99921 
-0.0279422 0.0218338 -0.999379 
-0.0278924 0.0163313 -0.999486 
-0.029206 0.0114881 -0.999514 
-0.0282763 0.00741418 -0.999581 
-0.0293124 0.00377099 -0.999571 
-0.0292563 0.000609083 -0.99958 
-0.0300186 -0.00255628 -0.999554 
-0.0302061 -0.00571792 -0.999535 
-0.0307351 -0.00942314 -0.999491 
-0.0308375 -0.013929 -0.999436 
-0.0300175 -0.0192419 -0.999373 
-0.0302586 -0.0263912 -0.999202 
-0.0289999 -0.0347209 -0.998984 
-0.0300538 -0.0429144 -0.998635 
-0.0272904 -0.0513355 -0.998317 
-0.0282344 -0.0586757 -0.997887 
-0.0248016 -0.0657483 -0.997537 
-0.023644 -0.0723001 -0.997112 
-0.0191506 -0.0701836 -0.997363 
-0.0129578 -0.0486581 -0.998732 
-0.00522009 -0.030298 -0.999532 
0.0034137 -0.0315346 0.999499 
0.00839808 -0.0512754 0.998651 
0.0162202 -0.0711856 0.997344 
0.0167143 -0.0729458 0.997204 
0.0210036 -0.0658723 0.997616 
0.0186114 -0.0608812 0.99798 
0.0219756 -0.0535326 0.998332 
0.0211247 -0.0438022 0.998827 
0.022436 -0.0331389 0.999208 
0.0214764 -0.0239138 0.999493 