# vtk DataFile Version 3.0 
Exported using Morpho https://github.com/Morpho-lang/morpho 
ASCII 
DATASET UNSTRUCTURED_GRID 

POINTS 1978 float 
-8.48528 -2.82843 -1.80376e-13 
-8.35603 -2.82843 -1.08317e-12 
-8.22545 -2.82843 5.31673e-12 
-8.07269 -2.82843 9.45397e-12 
-7.15029 -2.82843 2.70569e-12 
-6.77512 -2.82843 -1.62046e-12 
-6.48701 -2.82843 -1.21162e-12 
-6.20522 -2.82843 -8.51438e-13 
-5.94636 -2.82843 8.01913e-12 
-6.31425 -2.82843 1.11517e-11 
-5.8808 -2.82843 -2.29061e-11 
-6.14161 -2.82843 -4.26307e-12 
-5.71466 -2.82843 4.24181e-12 
-5.30492 -2.82843 -3.52024e-12 
-5.09086 -2.82843 4.27879e-12 
-4.85403 -2.82843 -1.193e-11 
-4.58527 -2.82843 -3.8656e-12 
-4.36247 -2.82843 -4.75368e-12 
-4.19275 -2.82843 -1.84668e-11 
-4.04447 -2.82843 -2.0713e-11 
-3.86555 -2.82843 -2.76179e-11 
-3.75503 -2.82843 -3.92114e-11 
-3.56959 -2.82843 -5.07086e-11 
-3.38131 -2.82843 -5.15573e-11 
-3.21856 -2.82843 -4.72053e-11 
-3.03199 -2.82843 -5.22842e-11 
-2.7758 -2.82843 -6.17905e-11 
-2.44125 -2.82843 -3.0523e-11 
-2.09373 -2.82843 -6.36975e-12 
-1.81287 -2.82843 2.74149e-12 
-1.54533 -2.82843 -1.20039e-12 
-1.29929 -2.82843 -4.26875e-12 
-0.983937 -2.82843 -8.90745e-12 
-0.8438 -2.82843 -4.64483e-12 
-0.70583 -2.82843 -8.65679e-12 
-0.578602 -2.82843 2.10284e-12 
-0.435373 -2.82843 -2.62396e-12 
-0.3 -2.82843 9.25279e-12 
-0.122153 -2.82843 3.34627e-12 
0.0250907 -2.82843 2.18359e-13 
0.149011 -2.82843 6.05897e-12 
0.285738 -2.82843 -1.32133e-12 
0.384176 -2.82843 1.83651e-12 
0.534036 -2.82843 -4.91906e-12 
0.662069 -2.82843 5.25336e-12 
0.800899 -2.82843 -3.09992e-12 
0.940985 -2.82843 -2.72392e-12 
1.24251 -2.82843 -2.83378e-12 
1.58891 -2.82843 -6.70062e-12 
1.8272 -2.82843 -5.88357e-12 
2.2894 -2.82843 1.93873e-11 
2.53837 -2.82843 3.56697e-11 
2.74527 -2.82843 5.14304e-11 
2.95774 -2.82843 7.75405e-11 
3.23923 -2.82843 7.07356e-11 
3.41724 -2.82843 5.17656e-11 
3.57258 -2.82843 5.5254e-11 
3.78869 -2.82843 2.78087e-11 
3.98262 -2.82843 2.97577e-11 
4.1559 -2.82843 1.55853e-11 
4.32649 -2.82843 1.26603e-11 
4.52295 -2.82843 1.14514e-11 
4.73729 -2.82843 5.39628e-12 
4.92238 -2.82843 3.02935e-12 
5.08511 -2.82843 2.25625e-12 
5.24067 -2.82843 1.31527e-12 
5.43468 -2.82843 2.24743e-12 
5.64433 -2.82843 -5.61802e-13 
5.85786 -2.82843 -1.56303e-12 
6.06008 -2.82843 -2.9416e-12 
6.27344 -2.82843 -3.84163e-12 
6.46811 -2.82843 -3.2146e-12 
6.63696 -2.82843 1.14179e-12 
6.7988 -2.82843 1.89842e-12 
7.03907 -2.82843 -8.34143e-13 
7.95821 -2.82843 -8.18133e-12 
8.11955 -2.82843 -7.07636e-12 
8.30382 -2.82843 1.10663e-12 
8.48528 -2.82843 4.21305e-12 
-8.48528 -2.52438 -2.16929e-12 
-8.28651 -2.49312 1.14687e-13 
-8.11406 -2.26903 -2.74451e-13 
-8.10539 -2.54274 4.38307e-11 
-7.86764 -2.75402 1.00527e-10 
-7.029 -2.61311 -3.58272e-13 
-6.70301 -2.56838 2.70029e-11 
-6.47836 -2.40264 -4.36796e-11 
-6.24109 -2.44757 -3.93443e-11 
-6.15689 -2.04836 1.49878e-11 
-5.98408 -2.48007 -1.80405e-11 
-6.30032 -2.61718 -9.10717e-13 
-5.33826 -2.44799 -2.50371e-13 
-5.41792 -2.68114 -8.13669e-14 
-5.12816 -2.57464 -3.08618e-13 
-4.92388 -2.62836 3.28595e-11 
-4.71922 -2.68561 -3.57377e-13 
-4.48652 -2.6853 -3.76805e-13 
-4.29736 -2.67486 2.1419e-11 
-4.13959 -2.6748 2.49707e-11 
-3.96367 -2.71332 1.07301e-13 
-3.83329 -2.6346 1.2003e-10 
-3.68552 -2.72486 -1.05753e-13 
-3.48245 -2.7198 -5.26772e-11 
-3.30302 -2.69316 3.79488e-11 
-3.1181 -2.7001 -2.64159e-11 
-2.91495 -2.72276 -6.59478e-11 
-2.66391 -2.73494 -2.88824e-11 
-2.31289 -2.72879 -3.79779e-11 
-1.92777 -2.69745 2.16245e-11 
-1.64912 -2.70459 2.81394e-11 
-1.39776 -2.70066 -1.52249e-13 
-1.1418 -2.73432 2.86414e-11 
-0.976354 -2.6549 1.47675e-11 
-0.800383 -2.67938 9.28344e-13 
-0.633902 -2.68399 -7.35761e-13 
-0.470003 -2.68848 -2.86006e-13 
-0.313305 -2.68383 1.38149e-12 
-0.152092 -2.72472 -3.18641e-11 
0.0560091 -2.68011 -3.67127e-11 
0.215433 -2.69458 1.35713e-11 
0.338967 -2.6233 6.34985e-13 
0.464219 -2.68419 1.13184e-13 
0.625533 -2.65767 -1.43717e-11 
0.788681 -2.64275 2.1102e-11 
0.962957 -2.6427 2.11261e-11 
1.1234 -2.72084 -1.63959e-13 
1.38442 -2.72407 5.4436e-15 
1.61139 -2.66729 1.21617e-13 
2.13517 -2.75668 -5.73945e-15 
2.39964 -2.69436 -3.96461e-13 
2.64196 -2.68488 -9.78271e-11 
2.86107 -2.70793 5.98483e-11 
3.10617 -2.74584 2.87857e-11 
3.34498 -2.70309 5.94337e-11 
3.5076 -2.68256 3.95039e-11 
3.67594 -2.72233 1.74388e-11 
4.02456 -2.6887 -7.06961e-11 
4.19174 -2.68113 -5.77059e-11 
4.37815 -2.68638 -5.19867e-11 
4.57824 -2.68402 5.29893e-13 
4.77595 -2.65956 -2.22703e-11 
4.94175 -2.59499 -2.90523e-11 
5.09165 -2.56794 -1.50176e-11 
5.25551 -2.55162 -3.29451e-11 
5.4335 -2.57812 -2.66003e-11 
5.64373 -2.5794 -2.54993e-11 
6.12482 -2.61426 -2.30475e-11 
6.35618 -2.58423 1.78754e-13 
6.56413 -2.57586 1.39188e-13 
6.39785 -2.33243 2.40248e-13 
6.62944 -2.34388 -7.92851e-15 
6.77728 -2.57705 1.23303e-13 
7.07283 -2.62068 6.01739e-14 
7.3452 -2.75741 -4.52414e-11 
7.87683 -2.55827 -3.47571e-13 
8.2357 -2.20332 -9.60845e-14 
8.30778 -2.48938 -9.08332e-14 
8.48528 -3.07476 3.03357e-12 
-8.48528 -2.15101 -2.42324e-12 
-8.32152 -2.23804 -8.73062e-14 
-7.97384 -2.11504 -7.02151e-15 
-7.89382 -2.44589 9.67676e-13 
-7.66099 -2.57003 -1.59263e-12 
-7.40856 -2.69902 3.04517e-11 
-7.08823 -2.33858 -1.36293e-13 
-6.83 -2.33725 -3.09791e-14 
-6.6433 -2.13779 -2.10167e-13 
-6.38144 -2.05125 2.24948e-13 
-6.08913 -1.68128 -1.72509e-13 
-5.7928 -2.30442 4.33545e-11 
-5.8902 -2.67733 -2.80274e-11 
-5.32207 -2.19868 1.46968e-11 
-5.14582 -2.32163 -1.00593e-13 
-4.96192 -2.39706 2.25231e-11 
-4.78352 -2.46565 3.89496e-13 
-4.61736 -2.53982 1.60501e-11 
-4.45872 -2.48849 2.20374e-13 
-4.315 -2.52657 -1.05281e-14 
-4.14827 -2.51402 3.3594e-11 
-4.00482 -2.5748 -2.06465e-11 
-3.91093 -2.47653 -5.0463e-14 
-3.63155 -2.61889 1.65258e-13 
-3.46114 -2.58945 6.00812e-11 
-3.19355 -2.57099 4.45107e-13 
-2.99463 -2.58787 -5.30103e-13 
-2.80622 -2.6074 3.36658e-11 
-2.53796 -2.65003 -3.70655e-11 
-2.16808 -2.63976 2.29733e-11 
-1.74434 -2.56853 3.28912e-14 
-1.49454 -2.56995 2.1054e-14 
-1.2329 -2.5899 1.35649e-11 
-1.06453 -2.51633 4.27474e-11 
-0.861951 -2.52862 -1.24799e-10 
-0.686308 -2.54089 -1.68771e-11 
-0.523139 -2.54864 4.32459e-11 
-0.360282 -2.53552 1.21557e-12 
-0.200103 -2.57829 -3.31778e-11 
-0.0475781 -2.5949 6.20588e-11 
0.144629 -2.55836 3.0902e-11 
0.323378 -2.50272 -1.81092e-12 
0.528709 -2.5238 2.2766e-13 
0.707393 -2.4945 -3.99081e-11 
0.894207 -2.47594 2.19632e-13 
1.1131 -2.50031 1.96314e-11 
1.27329 -2.55571 -1.01848e-14 
1.50175 -2.54239 -1.3656e-11 
1.79508 -2.63725 -3.04303e-13 
1.96625 -2.69684 4.5046e-13 
2.58764 -2.54261 4.50577e-11 
2.81899 -2.56427 8.40211e-11 
3.01832 -2.62455 1.48419e-11 
3.21699 -2.63227 5.45382e-11 
3.39637 -2.55281 8.26012e-11 
3.69752 -2.59403 -6.59947e-11 
3.85952 -2.70617 4.5808e-11 
4.02363 -2.54319 -3.75402e-14 
4.21122 -2.5431 1.89007e-11 
4.40567 -2.54061 -3.11309e-11 
4.60785 -2.52525 1.89825e-11 
4.79088 -2.46382 3.96271e-13 
4.93113 -2.33882 2.2585e-13 
5.09662 -2.32159 -7.18455e-13 
5.27423 -2.31387 9.18784e-13 
5.46527 -2.32959 -1.36337e-11 
5.68631 -2.35456 2.2201e-13 
5.87405 -2.58975 -3.41525e-11 
5.94524 -2.39424 -2.87432e-14 
6.1739 -2.37879 7.54612e-14 
6.63817 -2.1175 -2.38886e-15 
6.87999 -2.18297 -2.07608e-14 
6.89812 -2.40066 6.74503e-14 
7.16159 -2.36734 -1.99462e-14 
7.36016 -2.53185 2.533e-15 
7.65813 -2.68182 -4.68915e-11 
7.81243 -2.29884 -2.96476e-13 
8.09233 -2.51678 4.75095e-13 
8.48528 -2.71426 -9.48775e-13 
-8.48528 -1.6199 3.64812e-13 
-8.36421 -1.85593 -6.90769e-15 
-8.18474 -1.96737 9.61317e-15 
-7.74929 -2.20629 1.26308e-13 
-7.54442 -2.33556 2.8147e-13 
-7.32715 -2.47043 -2.79901e-13 
-7.20582 -2.13069 -6.87643e-14 
-6.91024 -2.06457 -1.47887e-13 
-6.55197 -1.83762 -6.82269e-14 
-6.30971 -1.70687 -7.02353e-15 
-5.96126 -2.0239 -2.64684e-13 
-5.59865 -2.53935 -2.04805e-13 
-5.54524 -2.27385 -5.32589e-16 
-5.36161 -1.91507 -3.38016e-13 
-5.20098 -2.03251 -2.70263e-13 
-5.03975 -2.14763 2.00802e-13 
-4.86448 -2.22791 -1.07471e-13 
-4.7087 -2.2525 -2.79543e-13 
-4.58868 -2.34813 -2.75348e-11 
-4.39677 -2.32361 1.38441e-11 
-4.24344 -2.36748 2.27067e-11 
-4.0596 -2.38611 3.33705e-13 
-3.80141 -2.36552 1.90503e-10 
-3.74223 -2.51818 -1.58593e-10 
-3.56512 -2.47866 -1.47372e-10 
-3.34493 -2.51877 -1.22137e-10 
-3.08922 -2.45046 8.06563e-11 
-2.68833 -2.50186 3.33754e-11 
-2.43501 -2.53351 6.30267e-11 
-2.05977 -2.50213 1.68537e-13 
-1.88577 -2.44886 2.76438e-13 
-1.53253 -2.41678 2.43155e-11 
-1.31505 -2.44925 3.62516e-13 
-1.13669 -2.36017 -1.13994e-12 
-0.917616 -2.38608 -1.35749e-10 
-0.715828 -2.40001 7.95142e-11 
-0.526289 -2.39768 1.86035e-11 
-0.345696 -2.39433 3.27655e-11 
-0.178675 -2.43831 2.72808e-11 
-0.00438137 -2.46896 -1.46046e-11 
0.177671 -2.42022 -3.08895e-11 
0.318549 -2.31363 -3.7209e-11 
0.452756 -2.39406 -4.03598e-11 
0.634943 -2.35426 -1.91763e-11 
0.817607 -2.32425 -3.57857e-11 
1.03397 -2.3387 -2.39135e-11 
1.3913 -2.36702 -9.39138e-11 
1.7715 -2.4661 -2.83734e-11 
2.00954 -2.52845 -1.431e-11 
2.21337 -2.59646 -2.60976e-11 
2.82546 -2.42174 -3.83209e-11 
3.04669 -2.493 3.68705e-11 
3.23533 -2.48774 -1.36862e-12 
3.40038 -2.39105 2.69711e-11 
3.55504 -2.53265 -2.32864e-11 
3.85651 -2.56187 1.82262e-11 
3.98009 -2.39494 1.31175e-11 
4.14524 -2.40135 -6.54929e-13 
4.32083 -2.39576 -1.71875e-13 
4.51063 -2.38232 -9.32037e-13 
4.68133 -2.32387 9.25429e-13 
4.80547 -2.19598 -5.74605e-13 
4.98399 -2.11975 -8.37631e-14 
5.14743 -2.08506 4.0795e-13 
5.32751 -2.08229 -2.10035e-14 
5.52937 -2.11324 -1.60749e-11 
5.71775 -2.09093 -3.41906e-14 
5.90266 -2.19028 1.12349e-13 
6.15096 -2.14051 -7.3992e-14 
6.39276 -2.1031 -2.38783e-14 
6.58495 -1.89172 2.62127e-14 
6.85058 -1.9407 2.93077e-14 
7.10821 -2.11292 -6.43834e-14 
7.38757 -2.21324 -5.70729e-14 
7.64077 -2.11617 -5.7213e-15 
7.57625 -2.41546 -2.85127e-15 
8.01392 -2.191 2.70827e-13 
8.40093 -1.95829 9.76049e-14 
8.48528 -2.23727 -3.01725e-12 
-8.48528 -1.29778 7.22705e-13 
-8.25122 -1.52519 6.86566e-15 
[...]
POINT_DATA 1978 
VECTORS vectors float
-1.09624e-05 2.80295e-05 1 
0.00011811 0.0907365 0.995875 
-3.26418e-05 0.164198 0.986427 
1.02892e-05 0.186942 0.982371 
3.99153e-06 -0.0204408 0.999791 
1.39157e-05 0.0825662 0.996586 
-2.69844e-05 0.255139 0.966904 
3.73769e-05 0.487356 0.873204 
-3.27377e-05 0.694419 0.719571 
2.59365e-05 -0.328025 0.944669 
-2.33557e-05 0.167897 0.985804 
1.98039e-05 -0.389358 0.921087 
-1.20006e-05 -0.0997991 0.995008 
1.1951e-05 0.039084 0.999236 
-4.71951e-06 0.0783509 0.996926 
4.82631e-07 0.076961 0.997034 
3.32886e-06 0.117513 0.993071 
-1.32004e-05 0.224658 0.974438 
2.7806e-05 0.294422 0.955675 
-1.38803e-05 0.343714 0.939074 
-4.06571e-06 0.386973 0.922091 
4.99442e-05 0.377612 0.925964 
-3.88209e-05 0.362777 0.931876 
2.20692e-05 0.3216 0.946876 
-3.08596e-06 0.287139 0.957889 
-3.90989e-06 0.277529 0.960717 
2.87091e-06 0.19832 0.980137 
-8.54287e-07 0.0780243 0.996951 
-5.53166e-07 0.00506895 0.999987 
1.7997e-06 -0.00725482 0.999974 
-7.07387e-07 0.00371207 0.999993 
-3.02626e-06 0.0406841 0.999172 
7.84968e-06 0.157345 0.987544 
-1.93658e-05 0.263152 0.964754 
1.35913e-05 0.383649 0.923479 
4.5124e-08 0.509561 0.860434 
-2.38372e-05 0.680662 0.732597 
2.04917e-05 0.825635 0.564205 
-1.97762e-05 0.969966 0.243239 
-4.90976e-06 0.995895 -0.0905117 
3.71295e-05 0.947885 -0.318612 
-4.26381e-05 0.829483 -0.558532 
6.16228e-05 0.718845 -0.69517 
-2.20107e-05 0.515543 -0.856864 
-1.06408e-05 0.361743 -0.932278 
2.22328e-05 0.188549 -0.982064 
-1.18997e-05 0.0611861 -0.998126 
5.29616e-06 -0.0186862 -0.999825 
-2.10822e-06 -0.0618329 -0.998087 
-8.51418e-07 -0.0431545 -0.999068 
1.20032e-06 0.0672327 -0.997737 
-4.66455e-07 0.160796 -0.986988 
-5.0654e-06 0.220185 -0.975458 
1.10476e-05 0.269566 -0.962982 
-1.97424e-05 0.329163 -0.944273 
3.96417e-05 0.34416 -0.938911 
-3.61328e-05 0.342592 -0.939484 
2.87415e-05 0.333625 -0.942706 
-1.94455e-05 0.321217 -0.947006 
5.72933e-06 0.292223 -0.95635 
-7.65731e-06 0.254825 -0.966987 
4.19525e-06 0.217537 -0.976052 
1.47946e-06 0.176639 -0.984276 
-1.93575e-06 0.114687 -0.993402 
-1.22583e-05 0.0835549 -0.996503 
-1.09977e-05 0.0712852 -0.997456 
8.57073e-06 0.0840521 -0.996461 
-3.52438e-06 0.124829 -0.992178 
8.4354e-07 0.140063 -0.990143 
1.13765e-06 0.139118 -0.990276 
-9.87768e-06 0.125469 -0.992098 
2.57585e-05 0.0623233 -0.998056 
-3.77766e-05 -0.00497732 -0.999988 
1.9431e-06 -0.0227238 -0.999742 
-2.06863e-06 -0.0233027 -0.999728 
-8.20918e-06 0.157673 -0.987491 
3.0081e-05 0.160335 -0.987063 
-4.7769e-05 0.0616686 -0.998097 
5.02291e-06 -5.05359e-05 -1 
-2.15642e-05 4.79363e-05 1 
0.0224894 -0.003174 0.999742 
0.0432261 0.016826 0.998924 
0.0717992 0.0945686 0.992926 
0.0798071 0.116185 0.990016 
0.101681 0.0170532 0.994671 
0.0735185 0.0698115 0.994847 
0.0887491 0.165365 0.982231 
0.146327 0.178322 0.973031 
0.128697 0.0759457 0.988772 
0.116886 0.0106811 0.993088 
0.0849427 -0.274815 0.957738 
0.069677 0.0173577 0.997419 
0.0676555 0.0118023 0.997639 
0.0481669 0.0759949 0.995944 
0.02711 0.111757 0.993366 
-0.0164605 0.153919 0.987946 
-0.0663188 0.256004 0.964398 
-0.0921762 0.326662 0.940636 
-0.0991311 0.359923 0.927701 
-0.0993524 0.38749 0.916504 
-0.168388 0.395328 0.902973 
-0.127582 0.377031 0.917371 
-0.16732 0.346211 0.923115 
-0.194575 0.302094 0.933209 
-0.185858 0.275057 0.943293 
-0.162491 0.228496 0.959889 
-0.14025 0.134645 0.980918 
-0.144441 0.0309492 0.989029 
-0.146944 -0.0137713 0.989049 
-0.129253 -0.0153363 0.991493 
-0.104924 0.0125674 0.994401 
-0.0510154 0.100133 0.993665 
-0.11646 0.190362 0.974782 
-0.0977906 0.313868 0.944417 
-0.0821818 0.449289 0.889598 
-0.0575819 0.621852 0.781015 
-0.054071 0.803707 0.592563 
-0.0408849 0.953324 0.299168 
-0.0230736 0.995897 -0.0875049 
0.00869686 0.903382 -0.428749 
0.0284239 0.766269 -0.641891 
0.0344131 0.606773 -0.79413 
0.0502593 0.383398 -0.922215 
0.0626446 0.189755 -0.979831 
0.131601 0.0513176 -0.989974 
0.049569 0.0152985 -0.998654 
0.0807623 -0.0466083 -0.995643 
0.159001 -0.0728209 -0.984589 
0.111647 0.0226834 -0.993489 
0.210907 0.11764 -0.970402 
0.195287 0.185009 -0.963138 
0.194286 0.247713 -0.949153 
0.139976 0.302141 -0.94293 
0.216081 0.331773 -0.918279 
0.220649 0.342641 -0.913187 
0.134712 0.345859 -0.928566 
0.0927308 0.345078 -0.933982 
0.07482 0.326922 -0.942085 
0.0584587 0.294648 -0.953816 
0.04915 0.254881 -0.965723 
0.0253886 0.216824 -0.97588 
-0.00518399 0.169835 -0.985459 
-0.0291378 0.146056 -0.988847 
-0.071437 0.112509 -0.991079 
-0.0892123 0.10354 -0.990616 
-0.0970666 0.113145 -0.988826 
-0.0864734 0.116741 -0.989391 
-0.0828538 0.088529 -0.992622 
-0.0807587 0.0364766 -0.996066 
-0.0718161 0.0505113 -0.996138 
-0.0654789 0.0309066 -0.997375 
-0.0827056 -0.00128941 -0.996573 
-0.0928032 0.00589364 -0.995667 
-0.0801024 0.0229265 -0.996523 
-0.0821564 0.119083 -0.989479 
-0.0296212 0.00129626 -0.99956 
-0.0136226 0.0295207 -0.999471 
3.38095e-07 -0.000133451 -1 
1.11915e-05 -4.5844e-05 1 
0.0102507 -0.0536783 0.998506 
0.0283018 -0.0171115 0.999453 
0.0678024 0.0519012 0.996348 
0.120371 0.0713212 0.990164 
0.112062 0.0342552 0.993111 
0.0929872 0.0177303 0.995509 
0.0827 0.0512996 0.995253 
0.0754056 0.0462695 0.996079 
0.0932533 0.0865235 0.991876 
0.0855581 0.0923971 0.99204 
0.105934 -0.0431089 0.993438 
0.0686545 -0.0604317 0.995808 
0.0453776 0.0618735 0.997052 
0.034047 0.0868865 0.995636 
-0.010068 0.145338 0.989331 
-0.0667843 0.213301 0.974701 
-0.102239 0.247191 0.963558 
-0.176381 0.333779 0.926003 
-0.185912 0.367729 0.91116 
-0.22697 0.40903 0.883844 
-0.211511 0.41118 0.886676 
-0.312285 0.436177 0.843936 
-0.279082 0.392142 0.876549 
-0.332505 0.346084 0.877306 
-0.368262 0.292692 0.882448 
-0.333676 0.244467 0.910438 
-0.334843 0.179872 0.924946 
-0.283505 0.0821924 0.955442 
-0.286411 -0.00341974 0.958101 
-0.305847 -0.0445704 0.951037 
-0.260813 -0.0382729 0.96463 
-0.180477 0.0344145 0.982977 
-0.200655 0.0896949 0.975547 
-0.217285 0.193677 0.956701 
-0.152926 0.383263 0.910891 
-0.112462 0.621304 0.775457 
-0.097017 0.805907 0.584038 
-0.0683421 0.937072 0.342383 
-0.0436647 0.998869 0.018807 
-0.00579141 0.93556 -0.353119 
0.0299708 0.786973 -0.616259 
0.0540152 0.545757 -0.836201 
0.10109 0.301808 -0.947994 
0.163529 0.12303 -0.978837 
0.279139 -0.0611924 -0.958299 
0.165569 -0.0463504 -0.985108 
0.299958 -0.104592 -0.948201 
0.315989 -0.0898842 -0.944496 
0.168732 -0.0437763 -0.984689 
0.400597 0.129645 -0.907036 
0.397889 0.209436 -0.893208 
0.355583 0.267664 -0.895498 
0.321685 0.307345 -0.895577 
0.420063 0.337883 -0.842248 
0.293912 0.360293 -0.885327 
0.228411 0.369507 -0.900718 
0.232616 0.386821 -0.892334 
0.201608 0.379114 -0.903121 
0.14845 0.348744 -0.925386 
0.131973 0.314439 -0.940059 
0.117443 0.298703 -0.947092 
0.0724008 0.244249 -0.967006 
0.0334896 0.206415 -0.977891 
-0.0234453 0.148091 -0.988696 
-0.0686816 0.12212 -0.990136 
-0.0832118 0.117634 -0.989565 
-0.0953914 0.119751 -0.988211 
-0.0814431 0.112941 -0.990258 
-0.0747258 0.0864448 -0.99345 
-0.0442221 0.029611 -0.998583 
-0.0576583 0.0212577 -0.99811 
-0.0775967 0.0101562 -0.996933 
-0.0755554 0.0199359 -0.996942 
-0.0971886 0.0309585 -0.994784 
-0.116475 0.0592433 -0.991425 
-0.078573 0.0661364 -0.994712 
-0.0257324 0.00981887 -0.999621 
-4.17844e-06 2.20425e-05 -1 
1.47288e-05 3.26462e-05 1 
0.0127516 -0.0525868 0.998535 
0.0184214 -0.0401422 0.999024 
0.0629769 0.0341244 0.997431 
0.100351 0.0407857 0.994116 
0.113056 0.0219075 0.993347 
0.079012 0.00677742 0.996851 
0.0696307 0.00762506 0.997544 
0.0540803 0.0336744 0.997969 
0.0701685 0.0669774 0.995284 
0.0950778 0.0320686 0.994953 
0.0881842 -0.053488 0.994667 
0.0698155 0.00852716 0.997523 
0.00921852 0.142409 0.989765 
-0.0129776 0.160773 0.986906 
-0.05611 0.216121 0.974753 
-0.127225 0.306249 0.943411 
-0.178076 0.347829 0.920491 
-0.235979 0.408781 0.881596 
-0.289161 0.450442 0.844682 
-0.303647 0.450716 0.839436 
-0.378667 0.478656 0.792149 
-0.415949 0.464616 0.78174 
-0.375611 0.420588 0.825846 
-0.465075 0.388227 0.795604 
-0.492011 0.320457 0.809465 
-0.483749 0.246659 0.83973 
-0.485447 0.135803 0.863654 
-0.43724 0.0509291 0.897902 
-0.440448 -0.0327478 0.89718 
-0.486929 -0.0689258 0.870718 
-0.429697 -0.0812842 0.899307 
-0.367457 -0.0370584 0.929302 
-0.404791 -0.0100981 0.914353 
-0.320566 0.0786065 0.943959 
-0.235114 0.29253 0.926902 
-0.161623 0.552815 0.81748 
-0.130831 0.806341 0.576799 
-0.089325 0.948009 0.30545 
-0.0440012 0.996568 -0.0701139 
-0.0101583 0.927088 -0.374706 
0.0218478 0.780757 -0.624452 
0.0524848 0.640992 -0.765751 
0.108825 0.402376 -0.908983 
0.216051 0.150516 -0.964711 
0.30433 -0.0283062 -0.952146 
0.405485 -0.138517 -0.903546 
0.495793 -0.138813 -0.857275 
0.384614 -0.0488381 -0.921785 
0.305506 0.0318347 -0.951658 
0.561701 0.165492 -0.81062 
0.568664 0.249997 -0.78366 
0.50827 0.302285 -0.806403 
0.585645 0.341307 -0.735207 
0.449843 0.379109 -0.808652 
0.372153 0.402604 -0.836309 
0.378794 0.448853 -0.809349 
0.346235 0.45545 -0.820175 
0.293517 0.436163 -0.850652 
0.217853 0.385404 -0.896663 
0.205216 0.391739 -0.896898 
0.174359 0.371198 -0.912037 
0.113082 0.307956 -0.944656 
0.057916 0.244371 -0.967951 
-0.00206929 0.172071 -0.985082 
-0.0480263 0.133783 -0.989846 
-0.0532756 0.127744 -0.990375 
-0.0669924 0.115244 -0.991076 
-0.0517411 0.0871475 -0.994851 
-0.0451621 0.0545698 -0.997488 
-0.0232295 0.0230105 -0.999465 
-0.0323953 0.00848061 -0.999439 
-0.0443903 0.0180663 -0.998851 
-0.0653311 0.0248126 -0.997555 
-0.0511765 0.0125384 -0.998611 
-0.075187 0.0327857 -0.99663 
-0.0394326 -0.00508559 -0.999209 
0.00276476 -0.0577871 -0.998325 
1.28587e-06 -0.000131614 -1 
-9.0665e-05 -2.22658e-06 1 
0.0140353 -0.0853942 0.996248 
0.0295958 -0.0129268 0.999478 
0.0561547 0.0194454 0.998233 
0.0435586 -0.00517364 0.999037 
0.0752462 0.0115823 0.997098 
0.0565895 6.74792e-05 0.998398 
0.0606141 -0.00491975 0.998149 
0.0544096 0.0106713 0.998462 
0.0424721 0.0738252 0.996366 
0.0487821 0.116929 0.991941 
0.0608745 0.0811639 0.99484 
0.0781496 0.0155452 0.99682 
0.0486672 0.0717425 0.996235 
-0.043126 0.234323 0.971202 
-0.0629843 0.257341 0.964266 
-0.118117 0.332792 0.935573 
-0.173231 0.403741 0.898323 
-0.23073 0.450247 0.862578 
-0.307116 0.51949 0.797377 
-0.34405 0.513941 0.785808 
-0.422606 0.554047 0.717242 
-0.44678 0.52911 0.721408 
-0.507707 0.49874 0.70249 
-0.531963 0.453805 0.714896 
-0.601818 0.389492 0.697217 
-0.624275 0.300393 0.721141 
-0.59355 0.204225 0.778454 
-0.657908 0.102096 0.746145 
-0.586548 0.011614 0.809831 
-0.662234 -0.0469848 0.747822 
-0.597768 -0.117433 0.793022 
-0.648232 -0.155263 0.745445 
-0.610337 -0.14333 0.779067 
-0.405828 0.0563982 0.912208 
-0.290064 0.27804 0.915727 
-0.197989 0.553965 0.808655 
-0.168603 0.765551 0.62089 
-0.116519 0.94675 0.300145 
-0.0744121 0.997185 -0.0091743 
-0.0271012 0.923778 -0.381969 
0.0557285 0.578389 -0.813855 
0.123703 0.416036 -0.900895 
0.26416 0.130559 -0.955601 
0.404091 -0.0795754 -0.911251 
0.577263 -0.226825 -0.784422 
0.501137 -0.176883 -0.847098 
0.594799 -0.198809 -0.778902 
0.61817 -0.10677 -0.778759 
0.555352 -0.014217 -0.831494 
0.534026 0.069483 -0.842608 
0.734041 0.212636 -0.644957 
0.716821 0.30165 -0.62863 
0.63042 0.398771 -0.665997 
0.559997 0.431472 -0.707273 
0.497793 0.470446 -0.728617 
0.484014 0.531119 -0.695445 
0.426035 0.534073 -0.730246 
0.384228 0.541559 -0.747719 
0.306555 0.471831 -0.82668 
0.270148 0.472437 -0.838941 
0.231026 0.46066 -0.856983 
0.170282 0.406049 -0.897847 
0.114802 0.332825 -0.935974 
0.0541652 0.246742 -0.967566 
0.00148321 0.171348 -0.985209 
-0.0187729 0.142323 -0.989642 
-0.0333097 0.12324 -0.991818 
-0.0381923 0.103519 -0.993894 
-0.0230739 0.0593993 -0.997968 
-0.00374954 0.0288192 -0.999578 
-0.00782856 -0.00110704 -0.999969 
-0.0192294 -0.000500061 -0.999815 
-0.0376488 0.0110868 -0.99923 
-0.0286043 -0.00348648 -0.999585 
-0.0234083 -0.0360125 -0.999077 
-0.00665783 -0.0836873 -0.99647 
-0.00536782 -0.0774383 -0.996983 
-1.29679e-05 -0.000178147 -1 
9.87036e-05 -2.89887e-05 1 
-0.00885206 -0.0804574 0.996719 
0.0166618 -0.0702775 0.997388 
0.0131493 -0.0499511 0.998665 
0.0271787 -0.0162969 0.999498 
0.0443881 -0.0141286 0.998914 
0.0437685 -0.00733034 0.999015 
0.0367605 0.0117262 0.999255 
0.0355722 0.0297238 0.998925 
0.0328661 0.0979357 0.99465 
0.0241206 0.141582 0.989633 
0.0332209 0.123147 0.991832 
0.0425134 0.0880088 0.995212 
0.00481182 0.16085 0.986967 
-0.0469094 0.253547 0.966185 
-0.0925681 0.334568 0.937814 
-0.134958 0.403467 0.904987 
-0.196117 0.489857 0.849457 
-0.250863 0.525236 0.813139 
-0.335836 0.587005 0.73664 
-0.409355 0.636151 0.654018 
-0.454509 0.610769 0.648369 
-0.534287 0.583991 0.61114 
-0.581705 0.549419 0.599798 
-0.645965 0.512327 0.565907 
-0.685779 0.449075 0.572747 
-0.74206 0.360753 0.564981 
-0.762212 0.259341 0.593106 
-0.782546 0.165008 0.600329 
-0.809981 0.0289536 0.585741 
-0.775021 -0.10062 0.623873 
-0.828878 -0.165771 0.534305 
-0.873042 -0.227155 0.431506 
-0.872815 -0.276669 0.402055 
-0.626409 -0.150178 0.764891 
-0.551373 -0.0668139 0.831579 
-0.390934 0.15881 0.906615 
-0.263246 0.451278 0.852672 
-0.130558 0.959784 0.248536 
-0.0777476 0.98975 -0.11979 
-0.00172449 0.785136 -0.619321 
0.137063 0.387798 -0.911497 
0.246692 0.200667 -0.948091 
0.538028 -0.222334 -0.813076 
0.712387 -0.33293 -0.617788 
0.780216 -0.327582 -0.532872 
0.716161 -0.267922 -0.644462 
0.760271 -0.188518 -0.62165 
0.792082 -0.0591706 -0.60754 
0.792034 0.0406255 -0.609124 
0.738761 0.113867 -0.664278 
0.831135 0.342205 -0.438303 
0.751666 0.401484 -0.523267 
0.672017 0.506568 -0.540169 
0.574024 0.539741 -0.615773 
0.538054 0.617218 -0.574055 
0.473974 0.611839 -0.633247 
0.408889 0.62605 -0.663981 
0.344573 0.558285 -0.75471 
0.307933 0.559433 -0.769553 
0.257963 0.532489 -0.80617 
0.205779 0.479647 -0.852991 
0.145829 0.393156 -0.907834 
0.0965575 0.314557 -0.944315 
0.0454831 0.218789 -0.974711 
0.0218982 0.167914 -0.985558 
0.00560849 0.136912 -0.990567 
-0.00677437 0.116692 -0.993145 
-0.00905911 0.0795034 -0.996793 
0.013061 0.0533125 -0.998492 
0.0126212 0.00910013 -0.999879 
-0.00132354 -0.0150156 -0.999886 
-0.00219095 -0.0210727 -0.999776 
-0.0124172 -0.00902531 -0.999882 
-0.0146239 -0.0358096 -0.999252 
-0.0170487 -0.0564126 -0.998262 
-0.0158045 -0.0863619 -0.996138 
-0.0188247 -0.105201 -0.994273 
2.6601e-05 0.000133705 -1 
-3.92605e-05 3.32643e-05 1 
-0.0255265 -0.0910929 0.995515 
0.00709677 -0.0742765 0.997212 
0.0240054 -0.0423688 0.998814 
0.0373311 -0.031458 0.998808 
0.0403635 -0.0199424 0.998986 
0.0283627 0.0070155 0.999573 
0.0128078 0.0345214 0.999322 
0.0245674 0.0441997 0.998721 
0.00487476 0.0993757 0.995038 
0.001385 0.123043 0.9924 
0.00199673 0.168434 0.985711 
-0.0249976 0.217752 0.975684 
0.00599503 0.162896 0.986625 
-0.0379823 0.252348 0.966891 
-0.0922537 0.358681 0.92889 
-0.136351 0.440392 0.887391 
-0.184065 0.513491 0.838121 
-0.248482 0.580337 0.775542 
-0.309511 0.619293 0.721581 
-0.350404 0.684403 0.639383 
-0.427202 0.693473 0.580167 
-0.518574 0.676451 0.522967 
-0.576952 0.653904 0.489424 
-0.654559 0.62645 0.423218 
-0.717862 0.585672 0.376382 
-0.78248 0.486494 0.388649 
-0.847741 0.386903 0.362824 
-0.898152 0.26784 0.348689 
-0.916533 0.12804 0.378911 
-0.929696 -0.0275591 0.367295 
-0.961897 -0.108375 0.251015 
-0.976478 -0.19263 0.0968693 
-0.960798 -0.274372 -0.0398514 
-0.914303 -0.342741 0.215819 
-0.763188 -0.250558 0.595621 
-0.659298 -0.1565 0.735414 
-0.454534 0.139948 0.879666 
-0.202881 0.735337 0.646621 
-0.0571159 0.930479 -0.361866 
0.0531259 0.672167 -0.738491 
0.661136 -0.40682 -0.630394 
0.647053 -0.355837 -0.674316 
0.842995 -0.448351 -0.297222 
0.889212 -0.394208 -0.232168 
0.934317 -0.326042 -0.144043 
0.891474 -0.259418 -0.371451 
0.928303 -0.153089 -0.338846 
0.978419 -0.0464457 -0.201341 
0.967515 0.072704 -0.242132 
0.924908 0.165944 -0.342064 
0.870172 0.243629 -0.428305 
0.784965 0.488925 -0.380503 
0.705302 0.59234 -0.389463 
0.618047 0.629119 -0.47141 
0.575368 0.712459 -0.401689 
0.506713 0.69346 -0.512207 
0.457389 0.702305 -0.545493 
0.384113 0.672287 -0.632841 
0.336057 0.637648 -0.693159 
0.285864 0.610868 -0.738324 
0.222698 0.536775 -0.813805 
0.171726 0.456297 -0.873099 
0.125784 0.374698 -0.918575 
0.0803461 0.275383 -0.957971 
0.061499 0.223672 -0.972722 
0.0379855 0.164094 -0.985713 
0.0277653 0.130923 -0.991004 
0.0154305 0.100156 -0.994852 
0.0338154 0.0782669 -0.996359 
0.028215 0.0312429 -0.999114 
0.00990359 -0.00955261 -0.999905 
0.00219757 -0.0149469 -0.999886 
-0.00615154 -0.0382697 -0.999249 
-0.00504894 -0.0548367 -0.998483 
-0.0125552 -0.0722558 -0.997307 
-0.0166808 -0.100737 -0.994773 
-0.0211231 -0.126939 -0.991686 
-5.27343e-06 0.000166406 -1 
-0.000164717 -3.71421e-06 1 
-0.0242622 -0.072355 0.997084 
-0.00877234 -0.0823677 0.996563 
0.00752876 -0.056967 0.998348 
0.025572 -0.036746 0.998997 
0.0276829 -0.0253589 0.999295 
0.0114181 0.0172889 0.999785 
-0.00560959 0.0448101 0.99898 
-0.0048453 0.0702396 0.997518 
-0.00186079 0.0874844 0.996164 
-0.0292371 0.114094 0.99304 
-0.0139479 0.140475 0.989986 
-0.0291912 0.200321 0.979295 
-0.0677319 0.307346 0.949184 
-0.0786857 0.350251 0.933345 
-0.116951 0.448951 0.88587 
-0.133936 0.465126 0.875053 
-0.194164 0.567431 0.800202 
-0.231036 0.608243 0.759383 
-0.285232 0.659466 0.69552 
-0.352803 0.741857 0.570244 
-0.41233 0.768716 0.488937 
-0.45311 0.767706 0.453121 
-0.524831 0.741048 0.418809 
-0.600695 0.741504 0.298892 
-0.664142 0.712195 0.227363 
-0.761523 0.628917 0.156673 
-0.839708 0.524834 0.139427 
-0.916489 0.396379 0.0541406 
-0.968186 0.247378 0.0376812 
-0.995307 0.0878118 0.0406678 
-0.987925 -0.020964 -0.153507 
-0.946915 -0.121868 -0.297491 
-0.886311 -0.211645 -0.411898 
-0.923006 -0.329725 -0.198348 
-0.902428 -0.375044 -0.212049 
-0.8753 -0.382701 0.295619 
-0.831977 -0.44398 0.33271 
-0.269863 0.386941 0.881732 
-0.100275 0.993578 0.0524207 
0.00997041 0.574745 -0.818272 
0.708004 -0.530759 -0.46586 
0.88317 -0.467471 0.0384879 
0.898595 -0.403974 0.171265 
0.925971 -0.303293 0.224923 
0.873089 -0.180735 0.452824 
0.979537 -0.196998 0.0412134 
0.96831 -0.0582472 0.242864 
0.980738 0.100094 0.16773 
0.970768 0.234153 0.0527418 
0.937226 0.327676 -0.119314 
0.884283 0.421543 -0.20086 
0.746935 0.63443 -0.198964 
0.648699 0.6976 -0.30421 
0.563046 0.789587 -0.243992 
0.512782 0.806725 -0.293682 
0.465708 0.764718 -0.445333 
0.406314 0.745541 -0.528278 
0.353684 0.732963 -0.581097 
0.303933 0.686064 -0.661015 
0.247978 0.620081 -0.744316 
0.201071 0.56437 -0.800661 
0.157272 0.477611 -0.86438 
0.114636 0.373951 -0.920337 
0.0925953 0.318363 -0.943436 
0.0733222 0.244335 -0.966915 
0.0532411 0.176521 -0.982856 
0.0467845 0.131443 -0.990219 
0.0494194 0.11124 -0.992564 
0.0466115 0.0716242 -0.996342 
0.0288931 0.0370039 -0.998897 
0.0154761 0.00810761 -0.999847 
0.00406241 0.00283762 -0.999988 
-0.00555868 -0.0326429 -0.999452 
-0.00968982 -0.0425028 -0.999049 
-0.0130622 -0.0721418 -0.997309 
-0.0232217 -0.09019 -0.995654 
-0.0232739 -0.114606 -0.993138 
-5.29129e-05 0.000122473 -1 
1.66576e-06 -6.57804e-05 1 
-0.0360156 -0.081152 0.996051 
-0.00970544 -0.0890974 0.995976 
0.00617419 -0.0674158 0.997706 
0.0186975 -0.0487555 0.998636 
0.0147852 -0.0279012 0.999501 
0.00944345 0.00162641 0.999954 
-0.0224416 0.0678002 0.997446 
-0.0306434 0.0962022 0.99489 
-0.0551949 0.107187 0.992706 
-0.0480833 0.124042 0.991111 
-0.036659 0.150622 0.987912 
-0.0520598 0.190404 0.980324 
-0.0669841 0.271255 0.960174 
-0.104324 0.416518 0.903122 
-0.147161 0.542357 0.82716 
-0.170209 0.556503 0.813224 
-0.203665 0.640009 0.740884 
-0.24624 0.685269 0.685399 
-0.299874 0.727262 0.617387 
-0.317028 0.798065 0.51243 
-0.356949 0.816385 0.453985 
-0.3938 0.838157 0.377379 
-0.44616 0.841824 0.303766 
-0.512084 0.813166 0.276642 
-0.538237 0.834886 0.115176 
-0.640931 0.766788 0.0352782 
-0.740499 0.66445 -0.100837 
-0.819529 0.52639 -0.226465 
-0.874669 0.361862 -0.322507 
-0.915609 0.210562 -0.342526 