# vtk DataFile Version 3.0 
Exported using Morpho https://github.com/Morpho-lang/morpho 
ASCII 
DATASET UNSTRUCTURED_GRID 

POINTS 1978 float 
-8.48528 -2.82843 1.16026e-10 
-8.35604 -2.82843 5.62316e-10 
-8.22544 -2.82843 -3.04723e-09 
-8.07277 -2.82843 -3.96948e-09 
-7.15028 -2.82843 -8.15335e-10 
-6.77509 -2.82843 6.64468e-10 
-6.48703 -2.82843 4.25485e-10 
-6.20523 -2.82843 2.72084e-10 
-5.94631 -2.82843 -2.6165e-09 
-6.31425 -2.82843 -7.6742e-09 
-5.88074 -2.82843 1.12709e-08 
-6.14157 -2.82843 9.53031e-09 
-5.71465 -2.82843 -1.05321e-09 
-5.30493 -2.82843 1.51471e-09 
-5.09086 -2.82843 -2.12696e-09 
-4.85402 -2.82843 6.1668e-09 
-4.58526 -2.82843 2.24899e-09 
-4.36244 -2.82843 3.04919e-09 
-4.19274 -2.82843 1.00467e-08 
-4.04446 -2.82843 1.15482e-08 
-3.86556 -2.82843 1.54165e-08 
-3.75502 -2.82843 2.27366e-08 
-3.56959 -2.82843 2.93262e-08 
-3.38131 -2.82843 2.94085e-08 
-3.21856 -2.82843 2.63949e-08 
-3.03199 -2.82843 2.91852e-08 
-2.77579 -2.82843 3.47113e-08 
-2.44125 -2.82843 1.63115e-08 
-2.09373 -2.82843 3.30038e-09 
-1.81287 -2.82843 2.89313e-10 
-1.54533 -2.82843 6.32344e-10 
-1.2993 -2.82843 2.35711e-09 
-0.983919 -2.82843 4.78979e-09 
-0.843784 -2.82843 2.34481e-09 
-0.705829 -2.82843 4.86082e-09 
-0.578611 -2.82843 -5.95899e-10 
-0.43537 -2.82843 1.68726e-09 
-0.300027 -2.82843 -4.50352e-09 
-0.12214 -2.82843 -2.01043e-09 
0.0250759 -2.82843 -1.77289e-09 
0.148995 -2.82843 -3.55207e-09 
0.285744 -2.82843 4.03653e-10 
0.384161 -2.82843 -1.07025e-09 
0.534029 -2.82843 3.03329e-09 
0.662069 -2.82843 -2.39793e-09 
0.800894 -2.82843 1.32612e-09 
0.940969 -2.82843 7.99966e-10 
1.24251 -2.82843 1.65451e-09 
1.5889 -2.82843 3.8306e-09 
1.82721 -2.82843 3.31589e-09 
2.28938 -2.82843 -1.06686e-08 
2.53837 -2.82843 -1.99764e-08 
2.74527 -2.82843 -2.78045e-08 
2.95774 -2.82843 -4.10154e-08 
3.23923 -2.82843 -3.97452e-08 
3.41722 -2.82843 -2.78686e-08 
3.57258 -2.82843 -2.89722e-08 
3.78869 -2.82843 -2.5241e-08 
3.98263 -2.82843 -2.03479e-08 
4.1559 -2.82843 -8.47772e-09 
4.32649 -2.82843 -7.27889e-09 
4.52295 -2.82843 -6.30467e-09 
4.7373 -2.82843 -2.90312e-09 
4.92237 -2.82843 -1.56116e-09 
5.08512 -2.82843 -1.36373e-09 
5.24066 -2.82843 -5.98821e-10 
5.43468 -2.82843 -9.88729e-10 
5.64432 -2.82843 1.02909e-09 
5.85786 -2.82843 9.07564e-10 
6.06009 -2.82843 1.80767e-09 
6.27344 -2.82843 2.22356e-09 
6.46812 -2.82843 1.74034e-09 
6.63697 -2.82843 -6.27656e-10 
6.79875 -2.82843 -1.03325e-09 
7.03907 -2.82843 1.31208e-09 
7.95826 -2.82843 5.633e-09 
8.11953 -2.82843 3.72929e-09 
8.30381 -2.82843 -6.48326e-10 
8.48528 -2.82843 -2.18001e-09 
-8.48528 -2.52438 1.11075e-09 
-8.29984 -2.49537 -2.80764e-10 
-8.13148 -2.41981 2.53799e-09 
-7.94853 -2.61178 -3.68674e-09 
-7.7315 -2.75207 1.85628e-09 
-7.06814 -2.61914 -1.03324e-09 
-6.74272 -2.57336 2.72472e-09 
-6.50429 -2.40953 1.03303e-10 
-6.25188 -2.37929 -1.08493e-08 
-6.18955 -1.95492 -1.17608e-08 
-6.01605 -2.42885 9.46026e-09 
-6.20353 -2.60178 -4.3837e-09 
-5.36584 -2.41927 3.44347e-09 
-5.32425 -2.63745 2.27153e-09 
-5.10082 -2.5835 -5.81607e-09 
-4.8986 -2.61004 -8.00808e-09 
-4.68662 -2.6648 8.07301e-09 
-4.47313 -2.66279 5.24972e-09 
-4.28334 -2.67202 1.43949e-08 
-4.12554 -2.67384 -8.60695e-09 
-3.95392 -2.72259 3.66844e-09 
-3.81988 -2.64587 6.43826e-08 
-3.67884 -2.72588 -3.12317e-09 
-3.48147 -2.72291 -6.30795e-09 
-3.30516 -2.6985 -2.41657e-08 
-3.11793 -2.71422 7.36344e-08 
-2.9039 -2.73966 3.61958e-08 
-2.67031 -2.74559 -2.61641e-09 
-2.30556 -2.73843 -7.07686e-09 
-1.92564 -2.70267 4.27169e-09 
-1.65487 -2.70842 -3.61728e-09 
-1.39621 -2.70219 -3.60178e-10 
-1.13703 -2.74142 -2.85635e-09 
-0.971883 -2.66057 -2.86281e-08 
-0.796816 -2.68533 4.77509e-08 
-0.637477 -2.67557 -2.5529e-08 
-0.479184 -2.70058 1.10377e-09 
-0.323486 -2.69993 1.74638e-09 
-0.156212 -2.73517 5.09234e-09 
0.0486192 -2.70569 2.20278e-08 
0.215794 -2.71004 -6.95863e-09 
0.348557 -2.64446 -3.72664e-09 
0.476098 -2.70293 -9.14537e-09 
0.64468 -2.67399 5.79005e-09 
0.806371 -2.64527 -2.81881e-08 
0.957083 -2.62643 2.84462e-09 
1.10038 -2.72141 -7.24894e-10 
1.38492 -2.7257 1.89399e-09 
1.61967 -2.67306 1.15563e-08 
2.12302 -2.76255 -1.79161e-09 
2.42941 -2.70106 8.92178e-09 
2.6745 -2.69672 -4.42351e-10 
2.89174 -2.7224 7.10884e-09 
3.11819 -2.7553 -2.91386e-08 
3.36387 -2.71837 -8.47419e-08 
3.53003 -2.69228 6.95902e-08 
3.68983 -2.729 3.3947e-08 
3.96479 -2.71254 1.58714e-08 
4.15537 -2.67677 -1.98649e-08 
4.34304 -2.68542 1.6981e-08 
4.55079 -2.67472 -5.42092e-09 
4.75985 -2.63435 -3.13976e-09 
4.9235 -2.56933 9.91688e-09 
5.08294 -2.52782 -3.84733e-09 
5.25513 -2.52443 2.33745e-09 
5.43004 -2.57177 1.21973e-09 
5.63302 -2.58717 -1.61057e-09 
6.12378 -2.62244 -5.39826e-10 
6.35799 -2.59731 -2.403e-10 
6.57083 -2.59039 -2.27253e-11 
6.40547 -2.35414 5.16075e-10 
6.62481 -2.3621 -1.52571e-11 
6.79211 -2.58738 7.01114e-10 
7.09616 -2.60371 -6.22854e-10 
7.34537 -2.75762 7.29092e-10 
7.92521 -2.62652 -1.19337e-09 
8.19387 -2.25698 -5.27274e-10 
8.32083 -2.46709 -3.12739e-09 
8.48528 -3.0748 -1.55801e-09 
-8.48528 -2.15101 1.24585e-09 
-8.30622 -2.18962 1.63921e-10 
-8.04494 -2.16456 -5.94442e-10 
-7.86277 -2.36359 -5.73406e-10 
-7.64377 -2.50604 6.42696e-10 
-7.42515 -2.66845 8.72679e-10 
-7.0845 -2.32277 7.77867e-10 
-6.84575 -2.33338 8.05488e-10 
-6.68063 -2.11825 -1.02592e-09 
-6.42388 -2.02597 6.48686e-09 
-6.07878 -1.65087 1.2478e-09 
-5.79156 -2.24056 -5.31558e-09 
-5.78335 -2.66987 5.01595e-09 
-5.30317 -2.19632 3.21079e-09 
-5.15089 -2.34504 4.13585e-09 
-4.96512 -2.36204 -4.59731e-09 
-4.78753 -2.42693 1.76077e-08 
-4.62114 -2.48558 -2.22774e-08 
-4.4638 -2.4593 2.09085e-09 
-4.31492 -2.52096 -9.69076e-09 
-4.14558 -2.51439 4.1231e-08 
-3.99151 -2.5923 -3.18483e-08 
-3.91632 -2.49118 -4.71897e-08 
-3.62027 -2.62007 1.13995e-08 
-3.45949 -2.59454 -1.63945e-09 
-3.19206 -2.58846 -5.13993e-08 
-2.99159 -2.6167 -5.04688e-08 
-2.81256 -2.61156 2.58897e-09 
-2.54031 -2.66879 4.71116e-09 
-2.15951 -2.64701 -4.37531e-09 
-1.7273 -2.56875 3.63879e-10 
-1.49241 -2.58195 -1.49183e-10 
-1.24188 -2.60989 -5.97773e-09 
-1.08291 -2.54259 1.24502e-08 
-0.856351 -2.54332 4.28398e-08 
-0.6875 -2.54004 -7.49826e-08 
-0.503268 -2.56299 1.94255e-09 
-0.346689 -2.56138 6.37404e-09 
-0.192335 -2.61096 -1.40009e-08 
-0.0370143 -2.6233 5.13189e-09 
0.155959 -2.59191 -8.61398e-09 
0.320796 -2.52946 1.69635e-08 
0.528133 -2.56342 2.73418e-09 
0.703105 -2.52057 4.07367e-08 
0.8658 -2.46045 -3.4614e-09 
1.10922 -2.48598 -1.7213e-09 
1.24946 -2.59384 1.15142e-09 
1.47666 -2.541 -1.1481e-08 
1.79671 -2.6048 -3.63596e-08 
1.95667 -2.70051 -5.43484e-09 
2.6041 -2.56182 -2.15425e-09 
2.86888 -2.59672 1.45621e-08 
3.06463 -2.63846 1.62081e-08 
3.24635 -2.65661 7.40327e-09 
3.41971 -2.58244 -1.06207e-07 
3.66724 -2.59118 6.73802e-08 
3.83465 -2.66491 -1.89293e-08 
4.00818 -2.57032 -5.22739e-08 
4.18356 -2.52893 2.0187e-08 
4.36729 -2.53348 1.38407e-08 
4.58617 -2.51481 -7.69891e-09 
4.74969 -2.40429 -1.77677e-09 
4.91364 -2.32103 -6.71725e-09 
5.09475 -2.27515 6.94046e-09 
5.28412 -2.28064 -3.81279e-09 
5.49055 -2.3143 3.16613e-10 
5.71214 -2.36213 4.75775e-12 
5.86549 -2.58277 3.71463e-09 
5.97188 -2.40057 -4.15372e-11 
6.19068 -2.39207 4.97581e-10 
6.62322 -2.12841 -1.27341e-10 
6.84328 -2.1894 -5.36728e-11 
6.88818 -2.40195 -9.50939e-11 
7.12299 -2.32379 2.62883e-11 
7.37267 -2.46558 -5.78656e-10 
7.59024 -2.67821 5.89712e-09 
7.84526 -2.42904 -6.30881e-09 
8.1163 -2.50766 1.02729e-09 
8.48528 -2.71428 4.87019e-10 
-8.48528 -1.61991 -1.88995e-10 
-8.35642 -1.86969 -2.86927e-10 
-8.14923 -1.94269 7.03997e-10 
-7.75986 -2.14147 3.01859e-10 
-7.53509 -2.28601 -7.34665e-10 
-7.31525 -2.43699 -3.09466e-10 
-7.19432 -2.09946 -8.35607e-11 
-6.94304 -2.04734 -4.90605e-10 
-6.58823 -1.81567 2.24976e-10 
-6.33089 -1.682 -1.4383e-09 
-5.95986 -1.96584 2.22371e-08 
-5.64564 -2.4999 -3.18021e-09 
-5.53024 -2.24661 -2.67895e-09 
-5.33645 -1.9212 3.85265e-09 
-5.18125 -2.01666 -1.35687e-08 
-5.04918 -2.13001 4.89363e-09 
-4.85132 -2.18764 -1.26129e-09 
-4.69192 -2.2106 -2.96073e-09 
-4.58032 -2.28808 1.92075e-08 
-4.39244 -2.30842 1.29028e-08 
-4.24432 -2.36764 -2.75901e-08 
-4.05206 -2.4025 2.66217e-08 
-3.82828 -2.38547 -1.09786e-07 
-3.74729 -2.53093 5.83471e-08 
-3.57834 -2.47933 -4.98408e-08 
-3.34383 -2.52753 2.75116e-08 
-3.0841 -2.48569 -8.33553e-10 
-2.68921 -2.52528 -2.40209e-09 
-2.44021 -2.5534 -3.27993e-08 
-2.05857 -2.50456 4.93541e-09 
-1.88658 -2.47011 1.73126e-09 
-1.50935 -2.41966 8.12456e-10 
-1.31706 -2.4484 1.36876e-08 
-1.16205 -2.37069 -2.39799e-08 
-0.96072 -2.42554 1.85979e-08 
-0.763328 -2.3998 3.69658e-08 
-0.554687 -2.43947 2.45699e-08 
-0.352451 -2.41233 -6.25315e-09 
-0.185313 -2.47661 1.46724e-08 
0.00199036 -2.51097 -3.35425e-08 
0.173958 -2.45399 5.17517e-09 
0.313976 -2.33804 1.67716e-08 
0.447321 -2.43057 9.63985e-09 
0.620412 -2.39757 1.43713e-08 
0.783654 -2.31659 1.04864e-08 
1.0117 -2.3631 -7.38053e-10 
1.35154 -2.40614 9.13387e-09 
1.71563 -2.4575 3.96822e-08 
2.03408 -2.5506 1.69162e-08 
2.23944 -2.63982 8.07869e-09 
2.79307 -2.48271 1.50572e-08 
3.04052 -2.50747 -5.02486e-08 
3.23682 -2.53207 -5.22235e-09 
3.38729 -2.43557 8.1621e-08 
3.55186 -2.51673 8.587e-08 
3.82499 -2.53608 -8.01151e-08 
3.96618 -2.43029 6.62636e-08 
4.11416 -2.39737 -2.66824e-08 
4.28795 -2.37235 -1.08143e-08 
4.47146 -2.386 -3.14169e-09 
4.62337 -2.29141 1.64619e-09 
4.78824 -2.16816 1.60556e-09 
4.96536 -2.10126 2.55695e-09 
5.13288 -2.04251 -5.10861e-10 
5.32828 -2.06193 -4.20212e-10 
5.54019 -2.10462 1.97871e-09 
5.73507 -2.11009 -2.06073e-10 
5.93254 -2.19371 4.43061e-10 
6.17227 -2.15428 -3.13829e-10 
6.39879 -2.11906 2.37881e-11 
6.59174 -1.90249 -4.79933e-12 
6.84451 -1.95033 -6.29887e-11 
7.0781 -2.09777 -3.50831e-11 
7.37035 -2.19997 9.3643e-11 
7.63133 -2.08807 3.44471e-10 
7.64126 -2.34129 1.41048e-09 
7.96873 -2.18374 8.19275e-10 
8.40091 -2.00814 -1.57218e-10 
8.48528 -2.23727 1.53517e-09 
-8.48528 -1.29778 -3.86338e-10 
-8.26326 -1.56735 5.31509e-10 
-7.86155 -1.91672 5.01454e-10 
[...]
POINT_DATA 1978 
VECTORS vectors float
0.000199909 -0.000541366 1 
0.00134346 0.0907548 0.995872 
0.000794501 0.164228 0.986422 
0.00396152 0.186966 0.982358 
0.0046176 -0.0204613 0.99978 
0.00171697 0.0825617 0.996584 
0.000513077 0.255141 0.966904 
0.00130866 0.487388 0.873185 
-0.000370525 0.694411 0.719578 
0.00133622 -0.32807 0.944652 
-0.000481229 0.167878 0.985808 
0.00200235 -0.389422 0.921057 
0.00123059 -0.0998362 0.995003 
0.00164714 0.0390901 0.999234 
0.00128852 0.0783549 0.996925 
0.00113943 0.076943 0.997035 
0.000638093 0.117478 0.993075 
0.000305184 0.224638 0.974442 
0.000513432 0.294412 0.955678 
0.000228302 0.343709 0.939076 
0.000275706 0.386978 0.922089 
0.000538966 0.377613 0.925963 
-6.50399e-05 0.362782 0.931874 
0.000149313 0.321602 0.946875 
3.92852e-05 0.287139 0.957889 
-7.10342e-05 0.277541 0.960714 
0.000211257 0.198339 0.980133 
0.000150741 0.0780379 0.99695 
0.000236846 0.00507365 0.999987 
0.000516458 -0.00725107 0.999974 
0.000407951 0.00371597 0.999993 
0.000489366 0.0406821 0.999172 
0.000373976 0.157333 0.987546 
-9.20477e-05 0.263147 0.964756 
-2.36299e-05 0.383647 0.92348 
-0.00019078 0.509559 0.860436 
-0.000387667 0.680665 0.732594 
-0.000287352 0.825635 0.564205 
-0.000484169 0.969967 0.243238 
-0.000100726 0.995894 -0.0905291 
0.000266013 0.947885 -0.318613 
7.1661e-05 0.829482 -0.558533 
0.000494572 0.718845 -0.695171 
0.000126941 0.515536 -0.856868 
-2.24833e-05 0.361746 -0.932277 
7.0332e-05 0.188541 -0.982065 
-0.000515768 0.0611725 -0.998127 
-0.000757249 -0.0186858 -0.999825 
-0.000611607 -0.0618321 -0.998086 
-0.000421771 -0.0431434 -0.999069 
-0.000123244 0.0672359 -0.997737 
-0.000249556 0.160802 -0.986987 
-0.000235416 0.220193 -0.975456 
6.96231e-05 0.269573 -0.96298 
0.000123743 0.329172 -0.94427 
0.000507669 0.344166 -0.938909 
-1.8777e-06 0.342593 -0.939484 
0.000151571 0.333617 -0.942709 
-0.000428503 0.321211 -0.947007 
-0.000546544 0.292216 -0.956352 
-0.000608892 0.254813 -0.96699 
-0.000500623 0.217525 -0.976055 
-0.000625014 0.176631 -0.984277 
-0.000940112 0.114674 -0.993403 
-0.00119861 0.0835433 -0.996503 
-0.00135211 0.0712746 -0.997456 
-0.00122643 0.0840449 -0.996461 
-0.00120731 0.124834 -0.992177 
-0.00115986 0.140069 -0.990141 
-0.00117113 0.139124 -0.990274 
-0.00104576 0.12548 -0.992096 
-0.000840644 0.0623254 -0.998056 
-0.00150078 -0.0049896 -0.999986 
-0.00166722 -0.022731 -0.99974 
-0.00388824 -0.0232975 -0.999721 
-0.00351201 0.157698 -0.987481 
-0.000929917 0.160374 -0.987056 
-0.00146742 0.0616672 -0.998096 
0.000408462 -0.00339499 -0.999994 
0.000270061 -0.00188049 0.999998 
0.0224883 -0.00320921 0.999742 
0.0432296 0.016829 0.998923 
0.0718341 0.0945792 0.992922 
0.0798801 0.116207 0.990008 
0.101726 0.017048 0.994666 
0.0735338 0.0697802 0.994848 
0.0887427 0.165406 0.982225 
0.1463 0.178422 0.973017 
0.12873 0.0759527 0.988767 
0.11696 0.0106059 0.99308 
0.0849184 -0.274698 0.957773 
0.0696877 0.0173466 0.997418 
0.0676866 0.0118031 0.997637 
0.0481852 0.0759911 0.995944 
0.0271376 0.111749 0.993366 
-0.0164474 0.153914 0.987947 
-0.0663151 0.256022 0.964394 
-0.092174 0.326677 0.940631 
-0.0991176 0.359927 0.9277 
-0.0993564 0.3875 0.9165 
-0.168355 0.395329 0.902979 
-0.127584 0.37703 0.917372 
-0.167333 0.346215 0.923112 
-0.194566 0.302094 0.933211 
-0.185861 0.27506 0.943291 
-0.162512 0.2285 0.959884 
-0.140251 0.134634 0.98092 
-0.144427 0.0309424 0.989032 
-0.146925 -0.0137664 0.989052 
-0.129244 -0.0153317 0.991494 
-0.104914 0.0125716 0.994402 
-0.0510029 0.100139 0.993665 
-0.11646 0.190387 0.974777 
-0.0977957 0.313888 0.94441 
-0.0821866 0.449281 0.889602 
-0.0575814 0.621835 0.781029 
-0.0540753 0.803692 0.592583 
-0.0408919 0.953319 0.299184 
-0.0230799 0.995899 -0.0874754 
0.00870367 0.903384 -0.428744 
0.0284285 0.766275 -0.641883 
0.0344199 0.606774 -0.794129 
0.0502654 0.383386 -0.922219 
0.0626278 0.189744 -0.979834 
0.131625 0.0513 -0.989971 
0.0495452 0.0153079 -0.998655 
0.0807533 -0.0466052 -0.995644 
0.158968 -0.0728122 -0.984595 
0.111663 0.0226913 -0.993487 
0.210911 0.117659 -0.970398 
0.195275 0.185023 -0.963138 
0.194286 0.247725 -0.94915 
0.13998 0.302151 -0.942926 
0.216097 0.331777 -0.918274 
0.220645 0.342642 -0.913188 
0.134701 0.345861 -0.928567 
0.0926932 0.345075 -0.933987 
0.0747978 0.326923 -0.942086 
0.0584464 0.29465 -0.953816 
0.0491397 0.254878 -0.965724 
0.0253757 0.216828 -0.97588 
-0.00520494 0.169823 -0.985461 
-0.0291509 0.146052 -0.988847 
-0.0714669 0.1125 -0.991078 
-0.0892367 0.103535 -0.990615 
-0.0970942 0.113144 -0.988823 
-0.0865009 0.116746 -0.989388 
-0.0828747 0.08854 -0.992619 
-0.0807788 0.0364765 -0.996064 
-0.0718227 0.0505023 -0.996138 
-0.0654782 0.0309073 -0.997375 
-0.082728 -0.00129854 -0.996571 
-0.0928359 0.00589561 -0.995664 
-0.08019 0.0229063 -0.996516 
-0.0821863 0.119124 -0.989472 
-0.0296314 0.0013079 -0.99956 
-0.013629 0.0294608 -0.999473 
-0.000772518 0.00307558 -0.999995 
-0.000310152 -0.00126319 0.999999 
0.010246 -0.0537239 0.998503 
0.0282943 -0.0171251 0.999453 
0.0677918 0.0519061 0.996348 
0.120408 0.0713212 0.990159 
0.11211 0.0342538 0.993105 
0.0929899 0.0177253 0.995509 
0.0827034 0.0513053 0.995253 
0.0754045 0.0462552 0.99608 
0.093252 0.0865339 0.991875 
0.0855772 0.0924099 0.992037 
0.105947 -0.0431539 0.993435 
0.0686725 -0.0603573 0.995812 
0.0453931 0.0618503 0.997053 
0.0340623 0.0868717 0.995637 
-0.0100477 0.145313 0.989335 
-0.0667817 0.213302 0.974701 
-0.102229 0.247176 0.963563 
-0.176379 0.333772 0.926006 
-0.185913 0.367735 0.911157 
-0.22696 0.40903 0.883846 
-0.211514 0.411189 0.886671 
-0.312274 0.436178 0.84394 
-0.279086 0.392156 0.876541 
-0.332482 0.346085 0.877315 
-0.368257 0.292707 0.882445 
-0.333674 0.244478 0.910435 
-0.334819 0.179874 0.924955 
-0.283518 0.0821839 0.955439 
-0.286419 -0.00342167 0.958098 
-0.305835 -0.0445655 0.951041 
-0.260816 -0.0382791 0.964629 
-0.180463 0.0344159 0.982979 
-0.20063 0.0897038 0.975552 
-0.217309 0.193655 0.9567 
-0.152926 0.383264 0.910891 
-0.11246 0.621314 0.77545 
-0.097019 0.805922 0.584018 
-0.068339 0.937072 0.342383 
-0.0436657 0.998869 0.0188091 
-0.00578581 0.935548 -0.353152 
0.0299789 0.786961 -0.616273 
0.0540127 0.545764 -0.836196 
0.101095 0.301795 -0.947998 
0.163514 0.123039 -0.978838 
0.279199 -0.0612348 -0.958279 
0.16552 -0.0463348 -0.985117 
0.299962 -0.104591 -0.9482 
0.316019 -0.0898929 -0.944485 
0.168716 -0.0437867 -0.984692 
0.400567 0.129641 -0.90705 
0.397896 0.209445 -0.893203 
0.355587 0.267668 -0.895495 
0.321698 0.307348 -0.895571 
0.420078 0.337886 -0.842239 
0.293861 0.360279 -0.88535 
0.228478 0.369523 -0.900695 
0.232593 0.386816 -0.892342 
0.201606 0.379116 -0.90312 
0.148436 0.348747 -0.925388 
0.131985 0.314452 -0.940053 
0.117449 0.298713 -0.947088 
0.0723905 0.244233 -0.967011 
0.0334947 0.20642 -0.97789 
-0.0234502 0.14808 -0.988697 
-0.0686931 0.122117 -0.990136 
-0.0832193 0.117635 -0.989564 
-0.0954173 0.119751 -0.988208 
-0.0814456 0.112945 -0.990258 
-0.0747279 0.0864425 -0.99345 
-0.0442207 0.0296106 -0.998583 
-0.0576625 0.0212614 -0.99811 
-0.0776015 0.010153 -0.996933 
-0.0755575 0.0199381 -0.996942 
-0.0972023 0.0309622 -0.994783 
-0.116535 0.0592284 -0.991419 
-0.0785897 0.0661602 -0.994709 
-0.0257202 0.00976218 -0.999622 
-0.000179671 -0.000338998 -1 
0.000310339 -0.00144467 0.999999 
0.0127581 -0.0526199 0.998533 
0.0184216 -0.0401397 0.999024 
0.0629824 0.0341379 0.997431 
0.10036 0.0407934 0.994115 
0.113069 0.0219011 0.993346 
0.079015 0.00677466 0.99685 
0.0696304 0.00761417 0.997544 
0.0540724 0.0336637 0.997969 
0.0701712 0.0669764 0.995284 
0.0950721 0.0320567 0.994954 
0.0882058 -0.0535116 0.994664 
0.0698134 0.00852611 0.997524 
0.00922699 0.142404 0.989766 
-0.0129619 0.160747 0.98691 
-0.0561132 0.216126 0.974752 
-0.127235 0.30627 0.943403 
-0.178058 0.347798 0.920506 
-0.236005 0.408821 0.881571 
-0.289157 0.450449 0.84468 
-0.303636 0.450715 0.839441 
-0.378679 0.478672 0.792133 
-0.415896 0.464617 0.781768 
-0.375649 0.420593 0.825826 
-0.465087 0.388219 0.795601 
-0.492053 0.320452 0.809441 
-0.483694 0.246651 0.839764 
-0.485449 0.135813 0.863652 
-0.437221 0.0509303 0.897911 
-0.440437 -0.0327433 0.897186 
-0.486927 -0.0689293 0.870719 
-0.429672 -0.0812796 0.899319 
-0.367457 -0.037055 0.929302 
-0.404798 -0.0100946 0.91435 
-0.320596 0.0785606 0.943952 
-0.235123 0.292504 0.926908 
-0.161626 0.552801 0.817489 
-0.130834 0.806352 0.576783 
-0.0893266 0.948017 0.305424 
-0.0439951 0.996566 -0.0701539 
-0.0101604 0.927096 -0.374685 
0.0218539 0.780766 -0.624441 
0.0524841 0.641005 -0.76574 
0.108817 0.402405 -0.908972 
0.216046 0.150524 -0.964711 
0.304299 -0.0282795 -0.952157 
0.405463 -0.138509 -0.903557 
0.495793 -0.138814 -0.857275 
0.384592 -0.0488367 -0.921794 
0.305492 0.0318386 -0.951662 
0.561656 0.16549 -0.810652 
0.568689 0.25 -0.783641 
0.508266 0.302283 -0.806406 
0.585615 0.341301 -0.735234 
0.44985 0.379126 -0.80864 
0.372195 0.402614 -0.836285 
0.378765 0.448845 -0.809367 
0.346245 0.455461 -0.820165 
0.293521 0.436166 -0.850649 
0.217854 0.385402 -0.896663 
0.205221 0.391748 -0.896893 
0.174362 0.371201 -0.912035 
0.113082 0.307954 -0.944657 
0.057911 0.244365 -0.967953 
-0.00207621 0.172062 -0.985084 
-0.0480373 0.133777 -0.989846 
-0.053277 0.127747 -0.990375 
-0.066999 0.115249 -0.991075 
-0.0517398 0.08715 -0.994851 
-0.045162 0.0545714 -0.997488 
-0.0232294 0.0230058 -0.999465 
-0.0323987 0.00847774 -0.999439 
-0.044387 0.0180701 -0.998851 
-0.0653363 0.0248177 -0.997555 
-0.0511793 0.0125418 -0.998611 
-0.0751833 0.0327798 -0.996631 
-0.0394303 -0.0050976 -0.999209 
0.00277546 -0.0578439 -0.998322 
0.000426979 0.00425 -0.999991 
0.0011509 -0.000837424 0.999999 
0.0140419 -0.0854296 0.996245 
0.029594 -0.0129227 0.999478 
0.0561542 0.0194538 0.998233 
0.0435587 -0.00516989 0.999037 
0.075247 0.0115779 0.997098 
0.0565911 6.97854e-05 0.998397 
0.0606166 -0.00492603 0.998149 
0.0544106 0.010667 0.998462 
0.042479 0.0738317 0.996366 
0.0487948 0.116932 0.991941 
0.0608749 0.0811594 0.99484 
0.0781571 0.0155215 0.99682 
0.0486722 0.0717438 0.996235 
-0.0431288 0.234328 0.971201 
-0.062973 0.257322 0.964272 
-0.118112 0.332784 0.935577 
-0.173239 0.403767 0.89831 
-0.230718 0.450238 0.862586 
-0.307104 0.519489 0.797382 
-0.344059 0.513947 0.785801 
-0.422614 0.554066 0.717223 
-0.446778 0.529119 0.721403 
-0.507723 0.498741 0.702478 
-0.531955 0.453818 0.714894 
-0.601813 0.389506 0.697213 
-0.624282 0.300388 0.721137 
-0.593553 0.204234 0.778449 
-0.657878 0.102107 0.746171 
-0.586595 0.0116247 0.809797 
-0.662158 -0.0469838 0.74789 
-0.59778 -0.117433 0.793012 
-0.648164 -0.155237 0.74551 
-0.610366 -0.143347 0.779041 
-0.405801 0.056438 0.912217 
-0.290043 0.278084 0.915721 
-0.197981 0.554014 0.808623 
-0.168612 0.765542 0.6209 
-0.116525 0.946737 0.300186 
-0.0744231 0.997185 -0.0091264 
-0.0270928 0.923775 -0.381976 
0.0557407 0.578423 -0.813831 
0.123711 0.416019 -0.900902 
0.264158 0.130553 -0.955603 
0.404083 -0.0795667 -0.911255 
0.577264 -0.226826 -0.784421 
0.501148 -0.176884 -0.847091 
0.594832 -0.19882 -0.778875 
0.618156 -0.106765 -0.778771 
0.555322 -0.0142034 -0.831514 
0.534051 0.0694897 -0.842592 
0.734038 0.212636 -0.64496 
0.716832 0.301665 -0.62861 
0.630422 0.398764 -0.666 
0.560042 0.431482 -0.707232 
0.497785 0.470451 -0.72862 
0.484011 0.531124 -0.695443 
0.426044 0.534088 -0.730231 
0.384218 0.541548 -0.747731 
0.306542 0.471828 -0.826686 
0.270145 0.472445 -0.838939 
0.231025 0.460665 -0.856981 
0.170275 0.406046 -0.897849 
0.114792 0.332811 -0.935981 
0.0541597 0.246737 -0.967568 
0.00147664 0.171341 -0.985211 
-0.0187794 0.142321 -0.989642 
-0.0333137 0.123243 -0.991817 
-0.0381959 0.103525 -0.993893 
-0.0230714 0.0593963 -0.997968 
-0.00374876 0.028816 -0.999578 
-0.00782772 -0.00111193 -0.999969 
-0.0192255 -0.000502486 -0.999815 
-0.0376495 0.0110903 -0.999229 
-0.0286063 -0.00347727 -0.999585 
-0.0234046 -0.0360215 -0.999077 
-0.00666094 -0.0837255 -0.996467 
-0.00536053 -0.0774648 -0.996981 
-8.90637e-05 0.00343211 -0.999994 
-0.0033526 -0.000880862 0.999994 
-0.0088604 -0.0804935 0.996716 
0.0166618 -0.0702957 0.997387 
0.0131451 -0.0499497 0.998665 
0.0271744 -0.0162953 0.999498 
0.0443904 -0.0141306 0.998914 
0.0437682 -0.00733646 0.999015 
0.0367626 0.0117227 0.999255 
0.0355668 0.0297178 0.998925 
0.0328607 0.097936 0.99465 
0.0241325 0.141581 0.989633 
0.0332243 0.123145 0.991832 
0.0425187 0.0879988 0.995213 
0.00481463 0.160852 0.986967 
-0.0469126 0.25355 0.966184 
-0.0925608 0.334555 0.937819 
-0.134953 0.403467 0.904987 
-0.196115 0.489869 0.849451 
-0.250866 0.525244 0.813133 
-0.335841 0.587009 0.736635 
-0.409346 0.636165 0.654011 
-0.454509 0.610781 0.648359 
-0.534283 0.583982 0.611151 
-0.581705 0.54941 0.599807 
-0.645981 0.512324 0.565891 
-0.68578 0.449076 0.572745 
-0.742051 0.360753 0.564994 
-0.762217 0.259336 0.593102 
-0.782557 0.165002 0.600316 
-0.809983 0.0289496 0.585739 
-0.775008 -0.100623 0.623889 
-0.828919 -0.165778 0.534239 
-0.873017 -0.227152 0.431559 
-0.87284 -0.27668 0.401994 
-0.626405 -0.150175 0.764895 
-0.551411 -0.0668525 0.831551 
-0.390959 0.158754 0.906613 
-0.263266 0.451231 0.852691 
-0.130554 0.959801 0.248471 
-0.0777413 0.989748 -0.119815 
-0.00174094 0.785164 -0.619286 
0.136954 0.387901 -0.91147 
0.246661 0.200713 -0.948089 
0.538048 -0.222357 -0.813057 
0.712384 -0.332925 -0.617795 
0.780237 -0.327606 -0.532828 
0.716112 -0.267923 -0.644516 
0.760277 -0.188511 -0.621645 
0.792062 -0.0591826 -0.607565 
0.792032 0.0406266 -0.609127 
0.738755 0.11387 -0.664285 
0.831152 0.34221 -0.438267 
0.751643 0.401484 -0.5233 
0.672022 0.506579 -0.540152 
0.574009 0.539737 -0.615791 
0.53806 0.617226 -0.574042 
0.47397 0.611835 -0.633253 
0.408885 0.62605 -0.663984 
0.344588 0.558303 -0.75469 
0.307921 0.559419 -0.769568 
0.257962 0.532497 -0.806165 
0.205775 0.479645 -0.852993 
0.145834 0.393165 -0.907829 
0.0965493 0.314546 -0.944319 
0.0454763 0.218775 -0.974715 
0.0218908 0.1679 -0.985561 
0.00561002 0.136911 -0.990567 
-0.00677797 0.116699 -0.993144 
-0.00906024 0.0795044 -0.996793 
0.0130638 0.053307 -0.998493 
0.0126248 0.0090943 -0.999879 
-0.00131947 -0.0150214 -0.999886 
-0.00218977 -0.0210713 -0.999776 
-0.0124135 -0.00902249 -0.999882 
-0.0146226 -0.0358093 -0.999252 
-0.0170506 -0.05641 -0.998262 
-0.0158071 -0.086366 -0.996138 
-0.0188324 -0.105242 -0.994268 
-0.000722376 -0.00187123 -0.999998 
0.00206674 -0.00134755 0.999997 
-0.0255392 -0.0911414 0.99551 
0.00709846 -0.0742824 0.997212 
0.0240074 -0.0423715 0.998813 
0.0373334 -0.0314657 0.998807 
0.0403717 -0.0199419 0.998986 
0.028363 0.00701846 0.999573 
0.012802 0.0345253 0.999322 
0.0245724 0.0441884 0.998721 
0.00487075 0.0993824 0.995037 
0.00138536 0.123049 0.9924 
0.00199862 0.16843 0.985712 
-0.0249833 0.217723 0.975691 
0.0060063 0.162874 0.986629 
-0.0379766 0.252338 0.966894 
-0.0922551 0.358688 0.928887 
-0.136335 0.440369 0.887405 
-0.184062 0.513499 0.838117 
-0.248479 0.580341 0.77554 
-0.30949 0.619277 0.721603 
-0.350403 0.684392 0.639395 
-0.427207 0.693479 0.580156 
-0.518561 0.676447 0.522985 
-0.576943 0.653897 0.489443 
-0.654545 0.626448 0.423242 
-0.717857 0.585694 0.376355 
-0.782473 0.486498 0.388659 
-0.847728 0.386913 0.362844 
-0.898151 0.267855 0.34868 
-0.916521 0.128038 0.37894 
-0.929694 -0.027559 0.3673 
-0.961888 -0.108378 0.251048 
-0.976479 -0.192644 0.0968356 
-0.960799 -0.274359 -0.0398954 
-0.914302 -0.342737 0.215833 
-0.763215 -0.250573 0.595581 
-0.659279 -0.156477 0.735436 
-0.454445 0.140045 0.879697 
-0.202879 0.735313 0.646649 
-0.057119 0.930481 -0.361859 
0.0531283 0.672125 -0.738529 
0.661226 -0.407025 -0.630167 
0.646989 -0.355805 -0.674394 
0.843003 -0.448344 -0.297208 
0.889226 -0.394202 -0.232127 
0.934326 -0.326024 -0.144022 
0.891455 -0.25941 -0.371504 
0.928326 -0.153094 -0.33878 
0.978418 -0.0464562 -0.201344 
0.967505 0.0727107 -0.242172 
0.924918 0.165952 -0.342032 
0.870149 0.243618 -0.428358 
0.78497 0.48893 -0.380486 
0.705295 0.592347 -0.389467 
0.618048 0.629124 -0.471403 
0.575354 0.712471 -0.401688 
0.506716 0.693463 -0.512198 
0.457382 0.702286 -0.545524 
0.38411 0.672301 -0.632828 
0.336064 0.637648 -0.693157 
0.285863 0.610871 -0.738322 
0.2227 0.536781 -0.8138 
0.171724 0.456287 -0.873105 
0.125783 0.374694 -0.918577 
0.0803488 0.275386 -0.95797 
0.0614929 0.223656 -0.972726 
0.0379865 0.16409 -0.985714 
0.0277669 0.130922 -0.991004 
0.015425 0.100157 -0.994852 
0.0338169 0.0782707 -0.996358 
0.0282206 0.0312381 -0.999114 
0.00990813 -0.00955745 -0.999905 
0.00219711 -0.0149495 -0.999886 
-0.00614981 -0.0382765 -0.999248 
-0.00504413 -0.0548361 -0.998483 
-0.0125545 -0.072254 -0.997307 
-0.0166811 -0.100746 -0.994772 
-0.0211263 -0.126964 -0.991682 
0.000386755 -0.00222844 -0.999997 
0.0067993 -0.000927234 0.999976 
-0.0242985 -0.0724627 0.997075 
-0.00877185 -0.0823716 0.996563 
0.00752756 -0.0569619 0.998348 
0.0255738 -0.0367415 0.998998 
0.0276881 -0.0253674 0.999295 
0.011415 0.0172933 0.999785 
-0.00561607 0.0448199 0.998979 
-0.00484981 0.0702525 0.997517 
-0.00185686 0.0874887 0.996164 
-0.0292404 0.114097 0.993039 
-0.0139488 0.140471 0.989987 
-0.0291917 0.200331 0.979293 
-0.0677332 0.307349 0.949183 
-0.078676 0.350235 0.933352 
-0.116956 0.44897 0.88586 
-0.133937 0.465139 0.875047 
-0.194163 0.567427 0.800205 
-0.231034 0.608246 0.759381 
-0.28523 0.659475 0.695512 
-0.352804 0.741852 0.57025 
-0.412338 0.768696 0.488962 
-0.453126 0.767719 0.453084 
-0.524846 0.741059 0.41877 
-0.600701 0.741489 0.298919 
-0.664137 0.712206 0.227342 
-0.761513 0.628926 0.156686 
-0.839702 0.524836 0.139456 
-0.916493 0.39637 0.0541428 
-0.96819 0.247364 0.0376825 
-0.995308 0.0878065 0.0406535 
-0.987921 -0.0209635 -0.153532 
-0.946923 -0.121877 -0.297462 
-0.886272 -0.211641 -0.411983 
-0.92301 -0.329716 -0.198344 
-0.902437 -0.375046 -0.21201 
-0.875296 -0.382706 0.295623 
-0.831981 -0.444009 0.332663 
-0.269896 0.386928 0.881727 
-0.100286 0.993577 0.0524253 
0.00999732 0.574699 -0.818304 
0.708015 -0.530722 -0.465886 
0.883166 -0.467482 0.0384576 
0.898598 -0.403983 0.171227 
0.925958 -0.303305 0.224964 
0.8731 -0.180744 0.4528 
0.979534 -0.197008 0.0412499 
0.968308 -0.0582458 0.242874 
0.980741 0.100095 0.167714 
0.970762 0.234179 0.052749 
0.937225 0.327672 -0.119328 
0.884278 0.421539 -0.20089 
0.746939 0.634404 -0.19903 
0.648669 0.69762 -0.304229 
0.563043 0.78961 -0.243923 
0.512766 0.806707 -0.293758 
0.465696 0.764706 -0.445367 
0.406315 0.745555 -0.528257 
0.353656 0.732944 -0.581137 
0.303924 0.686067 -0.661016 
0.247967 0.620068 -0.744331 
0.201064 0.564369 -0.800663 
0.157268 0.477606 -0.864384 
0.114641 0.373967 -0.920329 
0.0925825 0.31833 -0.943448 
0.0733171 0.244327 -0.966917 
0.0532386 0.176518 -0.982857 
0.0467823 0.131441 -0.99022 
0.0494194 0.111244 -0.992564 
0.0466151 0.0716267 -0.996342 
0.0288924 0.0370003 -0.998897 
0.0154758 0.00810396 -0.999847 
0.00405887 0.00283546 -0.999988 
-0.00555886 -0.0326482 -0.999451 
-0.00969094 -0.0424984 -0.99905 
-0.0130609 -0.0721424 -0.997309 
-0.0232208 -0.0901918 -0.995654 
-0.0232802 -0.114643 -0.993134 
0.00146071 -0.00178995 -0.999997 
0.00364174 0.00248698 0.99999 
-0.0360498 -0.0811526 0.99605 
-0.0097033 -0.0891101 0.995975 
0.00617429 -0.0674227 0.997705 
0.0186988 -0.0487621 0.998635 
0.0147859 -0.0279022 0.999501 
0.00944535 0.00162487 0.999954 
-0.0224439 0.067798 0.997447 
-0.0306433 0.0962037 0.99489 
-0.0551972 0.107192 0.992705 
-0.0480903 0.124043 0.991111 
-0.0366554 0.150618 0.987912 
-0.0520567 0.190374 0.98033 
-0.0669831 0.271239 0.960178 
-0.104317 0.416494 0.903134 
-0.147151 0.542335 0.827175 
-0.170214 0.556513 0.813216 
-0.203658 0.639981 0.74091 
-0.246242 0.685274 0.685394 
-0.299878 0.727274 0.61737 
-0.317029 0.798057 0.512442 
-0.356939 0.816386 0.453992 
-0.393781 0.838143 0.37743 
-0.446143 0.841816 0.303813 
-0.512088 0.813177 0.276602 
-0.538221 0.834894 0.115193 
-0.640931 0.766786 0.0352972 
-0.740505 0.66444 -0.100854 
-0.819537 0.526387 -0.226443 