# vtk DataFile Version 3.0 
Exported using Morpho https://github.com/Morpho-lang/morpho 
ASCII 
DATASET UNSTRUCTURED_GRID 

POINTS 1978 float 
-8.48191 -2.8271 -9.40861e-06 
-8.36375 -2.83211 0.000137864 
-8.2571 -2.82507 -0.000668756 
-8.09273 -2.80922 0.0002895 
-7.14173 -2.80557 0.000315561 
-6.73778 -2.82444 0.00034478 
-6.50642 -2.82403 0.000141525 
-6.19858 -2.8246 -0.00062215 
-5.9279 -2.81681 -0.00154346 
-6.30846 -2.8169 -8.52921e-05 
-5.88034 -2.8287 -0.00268387 
-6.12002 -2.82365 0.002187 
-5.7138 -2.82206 -0.000563849 
-5.30996 -2.81757 0.00056804 
-5.09712 -2.82279 -0.00065935 
-4.84611 -2.81873 0.00164507 
-4.57038 -2.82364 0.000337568 
-4.36207 -2.82668 0.000307815 
-4.17659 -2.82816 0.00174511 
-4.03935 -2.82919 0.00153199 
-3.88065 -2.82709 0.00219595 
-3.74839 -2.82621 0.0033385 
-3.56884 -2.82682 0.00369438 
-3.37666 -2.82677 0.00364977 
-3.22255 -2.82918 0.00341249 
-3.02724 -2.8284 0.00404102 
-2.77937 -2.8282 0.00425916 
-2.44096 -2.82718 0.00184418 
-2.09892 -2.82641 0.000454332 
-1.80711 -2.82667 0.000187559 
-1.55737 -2.82748 0.000115096 
-1.30209 -2.82765 0.00032066 
-0.980328 -2.82806 0.00071365 
-0.83501 -2.82833 0.000349496 
-0.70516 -2.82802 0.000865536 
-0.580124 -2.82818 -0.000324172 
-0.43623 -2.82914 0.000395216 
-0.302096 -2.82797 -0.000655882 
-0.123661 -2.82887 -1.22888e-05 
0.0376371 -2.82646 -0.000201997 
0.151253 -2.83115 -0.000710232 
0.28069 -2.8245 -7.53251e-05 
0.382199 -2.83004 -0.00019356 
0.532354 -2.83192 0.000607587 
0.659589 -2.8313 -0.000579534 
0.798349 -2.83142 0.000414051 
0.946065 -2.82576 0.000267154 
1.24295 -2.82219 0.0002561 
1.59105 -2.82652 0.000442491 
1.83437 -2.82545 0.000278049 
2.27839 -2.82729 -0.00123973 
2.54412 -2.82703 -0.00248744 
2.74227 -2.82942 -0.00352809 
2.94329 -2.82937 -0.0047567 
3.24037 -2.82879 -0.00516165 
3.41283 -2.8286 -0.00366022 
3.58708 -2.82694 -0.00310164 
3.75573 -2.82645 -0.00289135 
3.97587 -2.82609 -0.00358756 
4.17158 -2.82692 -0.00131365 
4.30864 -2.82621 -0.00116772 
4.51675 -2.8221 -0.0011625 
4.7374 -2.82265 -0.000522129 
4.92312 -2.82389 -0.000371142 
5.07582 -2.82267 -0.000331269 
5.23257 -2.82082 -0.00019571 
5.43094 -2.8193 -0.000461445 
5.64555 -2.82043 -0.000101797 
5.86148 -2.82186 -0.000156711 
6.06794 -2.82208 6.71922e-05 
6.27787 -2.82311 0.000243066 
6.47266 -2.82501 0.000339987 
6.66012 -2.82542 -0.000126379 
6.75937 -2.82466 -0.000184423 
7.03683 -2.7996 -0.00023687 
7.99245 -2.80759 0.00013505 
8.11426 -2.82699 0.000948323 
8.30732 -2.8262 -0.000159895 
8.48567 -2.82911 -0.000527096 
-8.47573 -2.53728 0.000255913 
-8.33207 -2.52073 3.65471e-08 
-8.18467 -2.46212 -1.03702e-08 
-7.97209 -2.56043 -3.01872e-06 
-7.78956 -2.72267 4.63529e-07 
-7.08691 -2.55772 -9.486e-07 
-6.77772 -2.60303 4.42848e-06 
-6.54857 -2.35316 -2.4042e-06 
-6.26372 -2.30106 -4.51018e-05 
-6.17154 -1.87185 3.72737e-06 
-6.0308 -2.25329 -0.00043209 
-5.92707 -2.66111 0.00157568 
-5.399 -2.43228 8.69568e-07 
-5.38913 -2.66067 -1.22041e-07 
-5.12381 -2.5213 1.10538e-06 
-4.90389 -2.58771 9.17083e-07 
-4.65021 -2.63993 2.22063e-06 
-4.41896 -2.63859 2.54687e-06 
-4.23385 -2.63459 2.70493e-06 
-4.08957 -2.67796 5.77833e-06 
-3.93279 -2.72069 1.76483e-06 
-3.78438 -2.66113 8.07491e-06 
-3.62977 -2.71941 1.3632e-06 
-3.45706 -2.72511 1.43255e-05 
-3.30439 -2.7128 2.2024e-06 
-3.13122 -2.72254 -8.13544e-07 
-2.91074 -2.7431 6.00755e-07 
-2.63082 -2.7552 7.35599e-06 
-2.2631 -2.74111 3.26446e-06 
-1.93477 -2.70739 7.66608e-07 
-1.63043 -2.72323 1.89458e-06 
-1.39853 -2.70979 1.44055e-06 
-1.12545 -2.74425 1.67298e-06 
-0.929085 -2.66899 -1.4678e-06 
-0.7826 -2.66286 5.68011e-07 
-0.630064 -2.6769 3.66304e-07 
-0.486811 -2.71404 2.8995e-06 
-0.331203 -2.71348 -3.52691e-06 
-0.158052 -2.74267 -4.20162e-06 
0.036356 -2.72255 -2.47327e-06 
0.198727 -2.73354 2.54308e-06 
0.341564 -2.66953 1.78461e-06 
0.471009 -2.71565 -1.38666e-06 
0.633382 -2.68066 2.97102e-06 
0.795175 -2.6643 -2.79972e-07 
0.989084 -2.59162 -1.08645e-06 
1.02572 -2.72354 1.51485e-06 
1.34997 -2.72268 -2.47143e-07 
1.59442 -2.693 -1.63627e-06 
2.12808 -2.75093 -1.08012e-06 
2.4355 -2.72611 -2.68969e-06 
2.68959 -2.70721 3.14827e-06 
2.91077 -2.73069 -8.70567e-06 
3.12086 -2.75659 -1.23665e-05 
3.35096 -2.71215 -2.69311e-06 
3.52461 -2.71724 -4.43161e-07 
3.73203 -2.72322 -3.33941e-06 
3.9508 -2.71935 -1.10948e-05 
4.13277 -2.70119 -1.51447e-06 
4.34541 -2.63685 -1.78776e-06 
4.54314 -2.62801 -2.43168e-06 
4.74252 -2.55996 -4.37032e-07 
4.92988 -2.53984 -1.78609e-06 
5.08682 -2.46383 -7.25627e-07 
5.25009 -2.49976 -4.27025e-06 
5.44941 -2.54988 -1.46115e-06 
5.64466 -2.56582 -6.96067e-07 
6.0945 -2.61606 3.80742e-07 
6.33508 -2.60873 1.42589e-06 
6.54806 -2.57438 -1.02407e-06 
6.42264 -2.37019 -1.81525e-06 
6.62153 -2.36877 8.61402e-07 
6.79152 -2.64373 -1.74821e-07 
7.10736 -2.53922 -7.33881e-07 
7.27995 -2.71366 -3.76602e-06 
7.87552 -2.68906 -1.32257e-06 
8.10529 -2.35354 6.45971e-07 
8.3365 -2.56239 5.45025e-06 
8.48553 -3.10471 -0.000386973 
-8.46975 -2.15691 0.000315081 
-8.33045 -2.24468 1.69915e-06 
-8.04935 -2.17858 4.87184e-07 
-7.89261 -2.33543 -1.16705e-06 
-7.63325 -2.51356 -1.61872e-07 
-7.39646 -2.65637 4.23437e-08 
-7.07178 -2.29845 1.06555e-06 
-6.84127 -2.35018 7.02608e-08 
-6.76798 -2.1115 9.0921e-07 
-6.48688 -2.00765 3.9653e-06 
-6.02589 -1.60184 3.77597e-06 
-5.85304 -2.31002 -7.94234e-07 
-5.59343 -2.55462 1.21322e-06 
-5.33337 -2.19774 2.45755e-06 
-5.16859 -2.31222 1.73887e-06 
-4.96762 -2.33839 2.23224e-06 
-4.79446 -2.37196 2.86528e-06 
-4.63522 -2.46077 -3.28224e-06 
-4.46868 -2.41274 -3.37317e-06 
-4.31853 -2.49954 1.73607e-06 
-4.10584 -2.50697 4.9484e-06 
-3.9683 -2.60572 -9.45279e-08 
-3.94437 -2.50176 -1.13273e-06 
-3.69739 -2.60322 -4.03814e-06 
-3.49604 -2.60937 -1.0786e-05 
-3.26923 -2.61706 -1.06935e-05 
-3.01608 -2.64651 4.09342e-06 
-2.75832 -2.65039 3.55852e-06 
-2.46513 -2.68252 -1.68922e-06 
-2.14064 -2.655 -1.96559e-06 
-1.75204 -2.61646 2.65304e-06 
-1.52584 -2.58411 6.24915e-06 
-1.23519 -2.61655 2.69059e-06 
-1.07154 -2.58284 -8.88603e-07 
-0.911791 -2.50609 1.53404e-06 
-0.703361 -2.55811 -2.52301e-06 
-0.490801 -2.58 7.5615e-07 
-0.336639 -2.59168 -2.10548e-06 
-0.179833 -2.63398 -2.89137e-06 
-0.0240122 -2.63443 -1.31305e-06 
0.15486 -2.63431 5.30672e-06 
0.304944 -2.56131 4.35148e-06 
0.515772 -2.57646 -3.00508e-06 
0.692713 -2.52721 2.63927e-06 
0.851771 -2.48807 -8.17238e-07 
1.14428 -2.48 2.0141e-06 
1.23741 -2.62148 -1.67572e-06 
1.48563 -2.54561 -3.7784e-06 
1.73121 -2.60522 -6.80956e-06 
1.925 -2.70712 -5.44823e-06 
2.60009 -2.59601 -3.18367e-06 
2.85573 -2.63204 -1.63082e-06 
3.04502 -2.64108 6.94748e-06 
3.23177 -2.65255 1.56035e-06 
3.42788 -2.58259 4.10101e-06 
3.62919 -2.63251 -1.34056e-06 
3.84473 -2.62115 5.83799e-07 
3.99531 -2.55626 5.58434e-07 
4.13142 -2.55301 3.28421e-07 
4.28528 -2.53505 -6.29741e-06 
4.54406 -2.44517 1.13367e-06 
4.72258 -2.35096 1.71134e-07 
4.90034 -2.30243 7.03064e-07 
5.08703 -2.21627 6.27096e-07 
5.28813 -2.24031 -1.35081e-06 
5.49935 -2.30879 -6.99797e-07 
5.75006 -2.37358 -8.10519e-07 
5.86115 -2.59129 -7.71581e-07 
6.0272 -2.42066 1.62509e-06 
6.22847 -2.38617 1.15673e-07 
6.59474 -2.11055 -4.00649e-07 
6.83394 -2.21729 6.20909e-07 
6.8394 -2.43646 -7.77047e-07 
7.10476 -2.31885 4.51678e-07 
7.40012 -2.42646 -6.78297e-07 
7.55854 -2.59336 1.1025e-06 
7.84409 -2.45994 3.04648e-06 
8.22583 -2.42465 -6.48087e-08 
8.47715 -2.72479 0.00013651 
-8.47216 -1.61324 -4.76249e-05 
-8.26661 -2.00082 -6.34248e-07 
-8.05896 -1.88192 2.29217e-07 
-7.72668 -2.15094 -9.26787e-07 
-7.48345 -2.3114 -1.38304e-06 
-7.28572 -2.39923 1.77866e-06 
-7.18524 -2.09412 1.06057e-07 
-6.95285 -2.03898 1.4842e-06 
-6.63976 -1.81078 1.57187e-08 
-6.35526 -1.71196 -1.10312e-06 
-5.89135 -1.9437 6.49207e-07 
-5.71235 -2.40215 -2.91552e-07 
-5.54052 -2.22908 3.73959e-07 
-5.3339 -1.8925 2.90906e-06 
-5.1788 -2.05908 1.06779e-06 
-4.99568 -2.11695 2.64422e-06 
-4.85452 -2.10796 -1.65583e-06 
-4.6909 -2.21 -3.69743e-06 
-4.55424 -2.24833 2.63056e-06 
-4.34338 -2.29489 5.89594e-06 
-4.2202 -2.39356 3.04357e-06 
-4.07582 -2.34511 2.28819e-06 
-3.88801 -2.41594 -2.4728e-06 
-3.71129 -2.50147 -1.04478e-06 
-3.51146 -2.50751 -4.66013e-06 
-3.29135 -2.52112 -2.90976e-06 
-3.03356 -2.55136 -4.42051e-06 
-2.70137 -2.54749 -1.97002e-06 
-2.41416 -2.57674 6.25909e-06 
-2.05847 -2.55156 8.79325e-06 
-1.86365 -2.46683 -3.1557e-06 
-1.50645 -2.4326 -4.39541e-06 
-1.30447 -2.47986 4.13544e-07 
-1.14672 -2.3969 3.57618e-07 
-1.00336 -2.38258 2.35622e-06 
-0.746638 -2.4352 -3.9504e-07 
-0.538894 -2.46837 5.44287e-06 
-0.333957 -2.44656 1.2727e-06 
-0.177622 -2.51121 -5.63453e-07 
0.0123349 -2.52873 1.499e-06 
0.170395 -2.50109 -1.02332e-05 
0.312337 -2.36367 1.5859e-07 
0.431395 -2.44865 -5.24163e-06 
0.601875 -2.42318 -9.56671e-06 
0.776382 -2.32943 5.94728e-06 
0.999781 -2.37228 -1.91563e-06 
1.36714 -2.43164 -1.41947e-06 
1.72408 -2.45402 1.16648e-06 
2.0066 -2.58018 -1.76021e-06 
2.28435 -2.64421 -3.85991e-06 
2.79423 -2.53276 1.31659e-05 
3.03815 -2.5148 5.92613e-06 
3.21272 -2.54232 2.05668e-06 
3.37348 -2.46255 1.0337e-05 
3.61793 -2.52445 8.93296e-06 
3.80921 -2.52267 9.56747e-06 
3.987 -2.41255 -1.09176e-06 
4.13118 -2.3826 7.07209e-08 
4.26353 -2.37355 -6.7232e-07 
4.41291 -2.38944 3.51819e-06 
4.58181 -2.25419 -6.36621e-07 
4.77159 -2.14535 2.50513e-06 
4.94198 -2.07795 3.20709e-07 
5.13236 -2.01241 -1.95745e-07 
5.31919 -2.04096 -2.15954e-06 
5.55382 -2.11569 -2.19137e-06 
5.7634 -2.10744 5.05668e-07 
5.94582 -2.22284 -2.89379e-07 
6.18617 -2.16229 3.32392e-07 
6.39002 -2.14047 2.21551e-07 
6.59497 -1.89394 -2.38404e-07 
6.81857 -1.97054 -4.42303e-07 
7.04997 -2.09074 6.70067e-07 
7.36196 -2.19644 7.1541e-07 
7.64694 -2.07562 4.97748e-07 
7.69619 -2.29481 -1.03703e-06 
7.99175 -2.15006 8.77336e-07 
8.37583 -1.99923 -3.48591e-06 
8.4662 -2.25211 0.000377402 
-8.47932 -1.30267 -5.97458e-05 
-8.26046 -1.64165 -9.33046e-07 
-7.82946 -1.89952 2.55273e-07 
-7.57252 -1.97745 -1.30978e-06 
-7.47826 -1.741 9.16655e-08 
[...]
POINT_DATA 1978 
VECTORS vectors float
0.0069418 -0.0237159 0.999715 
0.0392016 0.0995238 0.995105 
0.072417 0.185677 0.979567 
0.130362 0.202719 0.967919 
0.138589 -0.0323429 0.98703 
0.0702208 0.0807537 0.99392 
0.0722973 0.251853 0.964516 
0.0574741 0.497206 0.864504 
0.0492574 0.691981 0.719475 
0.0307984 -0.365818 0.930627 
0.0211301 0.154456 0.986905 
0.0826533 -0.409959 0.907395 
0.0858558 -0.10212 0.989663 
0.10421 0.0425987 0.992556 
0.118431 0.0809932 0.988541 
0.112341 0.0668457 0.990299 
0.0624489 0.0998684 0.992421 
0.0387773 0.215989 0.975145 
0.0305384 0.289045 0.956085 
0.0215522 0.340554 0.9395 
0.0240371 0.388865 0.920249 
0.0288184 0.377669 0.925541 
0.010076 0.365095 0.930648 
0.00260433 0.323416 0.946149 
-0.0198315 0.287395 0.957254 
-0.0127308 0.286771 0.95786 
0.00144973 0.210848 0.977373 
0.00605854 0.0883511 0.995462 
0.00605642 0.00967682 0.99902 
0.00892885 -0.00441545 0.999213 
0.0230422 0.0060219 0.9991 
0.0288733 0.0403899 0.998165 
0.0257216 0.152097 0.987337 
-0.00565949 0.260584 0.965036 
-0.0127845 0.383375 0.923375 
-0.0153155 0.508209 0.860902 
-0.0215698 0.681657 0.731478 
-0.0293091 0.823808 0.566006 
-0.0352187 0.968597 0.24634 
-0.0137572 0.995089 -0.0957345 
0.0106267 0.94862 -0.316479 
0.0151865 0.82874 -0.559384 
0.0217671 0.719174 -0.694496 
0.0174574 0.511515 -0.858653 
0.000554552 0.363864 -0.931188 
-0.00950617 0.182891 -0.982768 
-0.0291468 0.0528145 -0.99741 
-0.0351711 -0.0154725 -0.998559 
-0.0226002 -0.061433 -0.996998 
-0.0124489 -0.0383114 -0.998327 
-0.0116257 0.0702874 -0.996831 
0.00870758 0.16508 -0.985961 
0.00278076 0.225333 -0.974131 
0.0072552 0.272973 -0.961731 
0.0202698 0.333975 -0.942377 
0.0289227 0.347323 -0.937321 
0.0211031 0.344596 -0.938516 
-0.000405889 0.332931 -0.942876 
-0.0386818 0.317884 -0.946785 
-0.0379232 0.287801 -0.956376 
-0.0603551 0.246106 -0.966893 
-0.0814494 0.209663 -0.973793 
-0.0825955 0.174237 -0.979997 
-0.0960713 0.1074 -0.98826 
-0.112517 0.0765067 -0.989583 
-0.123524 0.0647748 -0.989098 
-0.146818 0.0781588 -0.984963 
-0.140613 0.127129 -0.980873 
-0.134291 0.142417 -0.979782 
-0.130384 0.140973 -0.980455 
-0.112687 0.131157 -0.983968 
-0.102397 0.0641826 -0.99222 
-0.106177 -0.0100028 -0.993703 
-0.123453 -0.0278178 -0.991411 
-0.131087 -0.0242513 -0.988572 
-0.13413 0.164314 -0.975242 
-0.0932121 0.185362 -0.977626 
-0.0515576 0.0613134 -0.996205 
-0.00275237 -0.109726 -0.993648 
0.00438653 -0.0907365 0.995463 
0.02474 -0.0323362 0.998563 
0.047395 0.0227235 0.998188 
0.0773967 0.0974177 0.991422 
0.142899 0.122717 0.981989 
0.124821 0.0183969 0.991543 
0.0877906 0.0429226 0.994571 
0.0908928 0.184114 0.977152 
0.10279 0.287608 0.951289 
0.153945 0.0784388 0.984782 
0.131452 -0.0460976 0.989212 
0.0826344 -0.207138 0.974024 
0.0750515 0.00973802 0.996364 
0.0901858 0.00997687 0.994964 
0.0562451 0.0749144 0.994612 
0.0446115 0.109568 0.992195 
-0.00270056 0.143914 0.988839 
-0.0595499 0.26214 0.96234 
-0.0843585 0.328339 0.940249 
-0.0913667 0.362324 0.927053 
-0.103255 0.391622 0.913781 
-0.148752 0.397224 0.905242 
-0.12814 0.375662 0.917358 
-0.178926 0.348842 0.919852 
-0.188056 0.300295 0.935018 
-0.187875 0.275619 0.942586 
-0.174281 0.225653 0.958343 
-0.138994 0.126184 0.981807 
-0.142554 0.0237437 0.98871 
-0.14102 -0.0124359 0.989095 
-0.130208 -0.0128689 0.990536 
-0.0861924 0.0194856 0.995189 
-0.0422323 0.103803 0.992812 
-0.115457 0.198306 0.972634 
-0.0993142 0.322787 0.940841 
-0.0846521 0.44297 0.891929 
-0.0579288 0.615707 0.785523 
-0.0563638 0.800282 0.597189 
-0.0476887 0.95391 0.296857 
-0.0257541 0.996612 -0.0798605 
0.0135112 0.902228 -0.431418 
0.0313493 0.767581 -0.640157 
0.0397475 0.60905 -0.791909 
0.0535739 0.379751 -0.923363 
0.0567263 0.190762 -0.979127 
0.135474 0.0445784 -0.989041 
0.0371319 0.0130834 -0.998026 
0.0650956 -0.0412356 -0.99616 
0.150142 -0.0709591 -0.985268 
0.112602 0.0317381 -0.992524 
0.214367 0.128436 -0.968281 
0.190774 0.193343 -0.962269 
0.198483 0.256939 -0.94564 
0.140104 0.308952 -0.940379 
0.22107 0.336251 -0.915276 
0.225784 0.344066 -0.911244 
0.129655 0.343405 -0.930126 
0.0744868 0.345197 -0.935377 
0.0618049 0.329373 -0.941634 
0.0541274 0.29935 -0.951874 
0.0427773 0.25364 -0.965441 
0.014766 0.215398 -0.97504 
-0.0152022 0.166587 -0.984599 
-0.0326954 0.143521 -0.987896 
-0.0918173 0.104186 -0.989552 
-0.103284 0.103072 -0.988602 
-0.113585 0.111832 -0.986729 
-0.103276 0.118082 -0.987164 
-0.0959198 0.0935161 -0.990292 
-0.0935303 0.0345059 -0.994086 
-0.0758623 0.0445725 -0.995974 
-0.062488 0.0324167 -0.996826 
-0.10103 -0.00389901 -0.994316 
-0.102524 0.00396075 -0.994188 
-0.153148 0.0176845 -0.987984 
-0.135536 0.123265 -0.982554 
-0.0319656 0.00853027 -0.998801 
-0.0181264 -0.00624726 -0.998645 
-0.0654886 0.0219987 -0.99855 
0.00277656 -0.112803 0.992297 
0.00496371 -0.0830673 0.995572 
0.0240765 -0.0228806 0.998592 
0.0659614 0.0569703 0.995537 
0.133945 0.0783587 0.987657 
0.140845 0.0313267 0.989298 
0.0953385 0.0137836 0.994497 
0.0804577 0.0516901 0.994606 
0.0755268 0.038986 0.995448 
0.0948454 0.0788373 0.991733 
0.0962432 0.0992267 0.989683 
0.114327 -0.0648032 0.990357 
0.0796329 -0.0513846 0.994696 
0.0527203 0.0493723 0.996685 
0.0400607 0.082801 0.995118 
0.00280175 0.127692 0.991062 
-0.0640443 0.212101 0.974221 
-0.105519 0.248676 0.961736 
-0.172064 0.324561 0.92879 
-0.191012 0.375775 0.905948 
-0.207047 0.402895 0.890742 
-0.223504 0.418473 0.879546 
-0.316278 0.441267 0.83898 
-0.270584 0.40164 0.874669 
-0.330536 0.347547 0.877462 
-0.366487 0.300912 0.880331 
-0.331448 0.254802 0.908032 
-0.329749 0.180587 0.926477 
-0.292897 0.0784659 0.952467 
-0.291569 -0.00488192 0.955795 
-0.293877 -0.0411864 0.954232 
-0.26645 -0.0423377 0.961981 
-0.17471 0.0303815 0.98317 
-0.198688 0.0932763 0.974629 
-0.220079 0.174585 0.959312 
-0.156324 0.375488 0.91305 
-0.112537 0.623186 0.773533 
-0.099508 0.810186 0.577767 
-0.0680811 0.936547 0.344187 
-0.0452199 0.999414 0.0124111 
-0.00679038 0.934173 -0.356849 
0.0354795 0.781722 -0.623049 
0.0532843 0.544077 -0.837263 
0.10351 0.296027 -0.948689 
0.157892 0.121271 -0.979346 
0.28401 -0.0659384 -0.955542 
0.165934 -0.0473414 -0.98395 
0.298096 -0.103048 -0.947822 
0.323584 -0.0868805 -0.941466 
0.155541 -0.0488 -0.985901 
0.385572 0.125598 -0.913764 
0.39644 0.207814 -0.893938 
0.364165 0.268641 -0.891488 
0.318537 0.30557 -0.897118 
0.42563 0.334714 -0.840628 
0.298099 0.360335 -0.883744 
0.238526 0.373473 -0.89619 
0.231379 0.388223 -0.891636 
0.196146 0.377632 -0.904141 
0.136951 0.347458 -0.926781 
0.133974 0.316462 -0.938017 
0.118638 0.301067 -0.945021 
0.0679655 0.23492 -0.968441 
0.0358487 0.20811 -0.976354 
-0.0252152 0.141726 -0.988544 
-0.0736349 0.121189 -0.989245 
-0.0855416 0.118025 -0.98866 
-0.112124 0.11835 -0.986136 
-0.0804778 0.11652 -0.989229 
-0.0747671 0.08653 -0.992968 
-0.0430522 0.028031 -0.997807 
-0.0599722 0.0239881 -0.99719 
-0.0777044 0.00740901 -0.996421 
-0.0781043 0.0222845 -0.99618 
-0.100057 0.0303228 -0.993712 
-0.128333 0.0625249 -0.989036 
-0.0756309 0.0736197 -0.993471 
-0.0201004 -0.00892267 -0.99915 
-0.017783 -0.0668196 -0.996988 
0.00976804 -0.125891 0.990512 
0.0166433 -0.0667909 0.996798 
0.016829 -0.0359596 0.998678 
0.0668752 0.0424913 0.996018 
0.100616 0.0439003 0.993586 
0.119456 0.0185168 0.992346 
0.0795371 0.00569311 0.996061 
0.0674475 0.00129234 0.996946 
0.0472155 0.0254219 0.997573 
0.0675275 0.0659735 0.994772 
0.0945928 0.0217684 0.994754 
0.0897889 -0.0581545 0.993714 
0.0682675 0.00843869 0.997155 
0.017855 0.133203 0.990238 
-0.010685 0.159034 0.986254 
-0.0549674 0.214914 0.974284 
-0.126675 0.307157 0.942097 
-0.176565 0.339537 0.922737 
-0.24244 0.423657 0.871635 
-0.279688 0.45089 0.846763 
-0.306854 0.4562 0.834542 
-0.377248 0.486083 0.787824 
-0.406792 0.465269 0.785865 
-0.385189 0.417861 0.822753 
-0.469207 0.38377 0.795189 
-0.50335 0.314205 0.804787 
-0.468621 0.238375 0.850507 
-0.48877 0.140741 0.860756 
-0.432942 0.0537054 0.899138 
-0.43975 -0.0262218 0.89699 
-0.478487 -0.0703796 0.874417 
-0.41331 -0.0785048 0.906219 
-0.382342 -0.0396358 0.922196 
-0.387321 0.00313824 0.921507 
-0.340803 0.06898 0.936533 
-0.231053 0.309409 0.92196 
-0.165392 0.559243 0.812183 
-0.134636 0.806183 0.576218 
-0.0899703 0.949153 0.302351 
-0.0391813 0.997195 -0.066892 
-0.010313 0.931162 -0.364711 
0.0263824 0.785694 -0.619374 
0.0521114 0.645673 -0.761388 
0.107562 0.407791 -0.906355 
0.218075 0.147635 -0.964 
0.300172 -0.022226 -0.95277 
0.404638 -0.139528 -0.902486 
0.499615 -0.140697 -0.853686 
0.3811 -0.0464585 -0.922938 
0.303438 0.0272695 -0.952099 
0.566404 0.163811 -0.807578 
0.570347 0.250195 -0.782282 
0.512119 0.304547 -0.803157 
0.57974 0.34102 -0.739673 
0.451537 0.383709 -0.805564 
0.367242 0.400789 -0.839121 
0.378169 0.453903 -0.806737 
0.347886 0.458437 -0.817208 
0.291516 0.434565 -0.851493 
0.221398 0.385877 -0.894723 
0.202365 0.391812 -0.896622 
0.174869 0.370978 -0.910836 
0.11229 0.306113 -0.944339 
0.0547254 0.240431 -0.968056 
-0.00422793 0.168714 -0.984741 
-0.0551568 0.130854 -0.989132 
-0.0515186 0.131319 -0.989337 
-0.0718199 0.118018 -0.989728 
-0.0501349 0.0879718 -0.994278 
-0.0453335 0.0557566 -0.99681 
-0.0246331 0.0211037 -0.998762 
-0.0335193 0.00471524 -0.998792 
-0.0421534 0.0216709 -0.998153 
-0.065554 0.0281129 -0.996762 
-0.054226 0.0166815 -0.997666 
-0.0785939 0.0314198 -0.995602 
-0.0416679 -0.0036872 -0.99854 
0.0175243 -0.105409 -0.993462 
0.0220087 -0.104621 -0.992748 
-0.0112247 -0.143422 0.987524 
0.0191073 -0.117388 0.992078 
0.026704 -0.0159576 0.998961 
0.0556017 0.0267312 0.997617 
0.0434098 -0.00491765 0.998557 
0.0778577 0.00716834 0.996652 
0.0555721 0.00263821 0.997628 
0.0640709 -0.00998756 0.996865 
0.0554151 0.00857809 0.997238 
0.0462171 0.0820854 0.994884 
0.0570516 0.117612 0.990663 
0.0607477 0.0764998 0.994654 
0.0779387 0.0125734 0.996078 
0.051678 0.0728948 0.995212 
-0.0445478 0.234247 0.970385 
-0.060885 0.255216 0.964157 
-0.117196 0.330928 0.935354 
-0.171138 0.403315 0.897664 
-0.226585 0.451501 0.861723 
-0.295648 0.513558 0.804257 
-0.35171 0.520598 0.777134 
-0.409968 0.555904 0.722431 
-0.458522 0.53624 0.70839 
-0.498808 0.496984 0.7098 
-0.530907 0.46225 0.709881 
-0.597153 0.396125 0.697285 
-0.624808 0.302121 0.719558 
-0.599006 0.214039 0.771642 
-0.649949 0.114229 0.751211 
-0.594627 0.0218192 0.803422 
-0.641103 -0.0555547 0.764918 
-0.614881 -0.119527 0.778845 
-0.625686 -0.146927 0.765169 
-0.616269 -0.148796 0.772542 
-0.403806 0.0652367 0.911877 
-0.295064 0.272197 0.915558 
-0.198545 0.548884 0.811708 
-0.169938 0.765066 0.622009 
-0.117386 0.946971 0.300472 
-0.0784009 0.996903 -0.0110928 
-0.0217565 0.921504 -0.388206 
0.0642524 0.616426 -0.784822 
0.124652 0.411389 -0.902609 
0.255502 0.131109 -0.957171 
0.406426 -0.0766638 -0.909857 
0.580122 -0.228052 -0.781429 
0.502593 -0.173166 -0.845887 
0.587589 -0.200205 -0.78261 
0.613656 -0.106774 -0.781561 
0.553934 -0.00936355 -0.83256 
0.534546 0.0774884 -0.841562 
0.732621 0.220069 -0.644237 
0.720431 0.308834 -0.620946 
0.634599 0.395601 -0.663801 
0.562519 0.433199 -0.704008 
0.491344 0.472157 -0.73154 
0.475771 0.526597 -0.70396 
0.43049 0.545581 -0.718458 
0.377192 0.535074 -0.755302 
0.302873 0.474469 -0.825629 
0.267172 0.473414 -0.838164 
0.228457 0.460831 -0.856271 
0.166144 0.406085 -0.897263 
0.108928 0.323716 -0.938695 
0.0513246 0.245624 -0.966926 
-0.00320953 0.166663 -0.985102 
-0.0211203 0.141903 -0.988673 
-0.0371779 0.123741 -0.990818 
-0.0397904 0.108059 -0.992792 
-0.0206833 0.0578364 -0.997439 
-0.00341712 0.025589 -0.998912 
-0.00728702 -0.00343008 -0.999066 
-0.0177977 -0.00192842 -0.999336 
-0.0373175 0.0119627 -0.998856 
-0.0291208 0.0018376 -0.998895 
-0.0214513 -0.0370758 -0.998137 
-0.0118375 -0.101382 -0.993926 
-0.00135945 -0.0912332 -0.995212 
-0.0124694 -0.148395 -0.9864 
-0.000124883 -0.147001 0.987829 
-0.0140149 -0.104027 0.994 
0.018844 -0.0763113 0.996287 
0.0087407 -0.0492947 0.998203 
0.0246567 -0.0128984 0.999109 
0.0449858 -0.0126245 0.998224 
0.0438277 -0.011421 0.998186 
0.0375376 0.010914 0.998607 
0.0332695 0.0285659 0.998153 
0.0261427 0.0972856 0.994111 
0.0266021 0.145624 0.988134 
0.0356279 0.123409 0.990834 
0.0451318 0.0808549 0.995016 
0.00674853 0.164113 0.98561 
-0.0476797 0.251974 0.965731 
-0.0864392 0.323325 0.941245 
-0.133989 0.407866 0.901926 
-0.191172 0.488594 0.849768 
-0.250572 0.530535 0.808265 
-0.339722 0.589882 0.73128 
-0.396051 0.636849 0.66038 
-0.466435 0.618862 0.631173 
-0.526241 0.581184 0.620113 
-0.587284 0.546174 0.596544 
-0.645983 0.512147 0.565302 
-0.68928 0.448775 0.567933 
-0.739438 0.363744 0.566311 
-0.763951 0.258896 0.591012 
-0.786306 0.154608 0.598368 
-0.801272 0.0155969 0.598216 
-0.774372 -0.0976583 0.624816 
-0.831167 -0.169064 0.529139 
-0.871724 -0.228888 0.433122 
-0.880032 -0.278225 0.384603 
-0.636088 -0.154192 0.75495 
-0.550658 -0.0708396 0.830988 
-0.394602 0.149969 0.905638 
-0.272695 0.446472 0.852321 
-0.133794 0.961977 0.239436 
-0.0779302 0.991084 -0.11763 
-0.0185193 0.787144 -0.616179 
0.12044 0.397607 -0.911662 
0.242246 0.213819 -0.947139 
0.550851 -0.240303 -0.798659 
0.703293 -0.325666 -0.631557 
0.781417 -0.32991 -0.528676 
0.716524 -0.270705 -0.641987 
0.760008 -0.190199 -0.621014 
0.784683 -0.0609309 -0.617183 
0.791544 0.0409159 -0.610314 
0.73292 0.115023 -0.670367 
0.833286 0.343932 -0.432598 
0.742616 0.406895 -0.531572 
0.676482 0.502815 -0.53729 
0.576325 0.541351 -0.61165 
0.538928 0.612213 -0.577569 
0.475289 0.612437 -0.631081 
0.407315 0.623517 -0.66658 
0.348401 0.56835 -0.744278 
0.302716 0.554705 -0.7737 
0.257282 0.536168 -0.802362 
0.202983 0.477826 -0.852887 
0.146528 0.394029 -0.905881 
0.092725 0.310354 -0.944984 
0.0414299 0.209475 -0.975885 
0.0193175 0.161659 -0.985784 
0.00625287 0.135925 -0.989933 
-0.00840611 0.12161 -0.991649 
-0.00936308 0.0793835 -0.996033 
0.0138869 0.051151 -0.997706 
0.0155651 0.00588024 -0.998914 
6.02675e-05 -0.0185643 -0.99934 
-0.000931046 -0.0188201 -0.999397 
-0.00883534 -0.00908064 -0.999598 
-0.0142738 -0.0350298 -0.99873 
-0.0173911 -0.0585745 -0.997799 
-0.0162559 -0.0852322 -0.995726 
-0.0255837 -0.132473 -0.99025 
-0.0188508 -0.148727 -0.987471 
-0.0604177 -0.106449 0.991829 
-0.0329877 -0.113861 0.992354 
0.0105683 -0.0716521 0.996915 
0.0268448 -0.0450092 0.998149 
0.0396523 -0.036902 0.998205 
0.0483464 -0.0228755 0.997906 
0.0267163 0.0104159 0.998955 
0.00857237 0.0370138 0.998302 
0.0265664 0.0314425 0.99853 
0.00452192 0.101539 0.994021 
0.00254178 0.126866 0.991302 
0.00645109 0.163645 0.985778 
-0.0197584 0.204847 0.977578 
0.0110927 0.150547 0.987702 
-0.0348294 0.248664 0.967224 
-0.0931267 0.361211 0.926579 
-0.12999 0.431689 0.891168 
-0.180015 0.516347 0.835786 
-0.242539 0.575234 0.779947 
-0.300549 0.619095 0.724571 
-0.353079 0.681874 0.639801 
-0.434186 0.693323 0.57416 
-0.512562 0.672708 0.53235 
-0.579678 0.655341 0.482849 
-0.649963 0.620053 0.438081 
-0.717889 0.597041 0.356452 
-0.774652 0.488458 0.40128 
-0.847312 0.385552 0.364857 
-0.896627 0.27175 0.349471 
-0.915582 0.129227 0.381537 
-0.930255 -0.0230936 0.366981 
-0.960937 -0.111452 0.254376 
-0.97592 -0.196086 0.098109 
-0.960022 -0.275581 -0.0514096 
-0.912876 -0.339658 0.224241 
-0.763782 -0.249956 0.59549 
-0.656319 -0.152779 0.739228 
-0.443064 0.150948 0.884354 
-0.201118 0.736125 0.649723 
-0.0566351 0.932997 -0.361079 
0.0602253 0.641505 -0.763957 
0.676832 -0.443214 -0.586643 
0.639012 -0.352151 -0.68389 
0.845852 -0.451534 -0.282373 
0.888494 -0.393575 -0.234961 
0.938066 -0.321324 -0.131318 
0.887105 -0.260874 -0.380035 
0.931396 -0.153546 -0.32985 
0.979385 -0.0467628 -0.199308 
0.966568 0.0773098 -0.246081 
0.928073 0.166206 -0.333849 
0.867251 0.233172 -0.439878 
0.787488 0.494714 -0.366853 
0.694914 0.599192 -0.396315 
0.615369 0.637394 -0.461835 
0.565514 0.711853 -0.415929 
0.511098 0.697368 -0.501357 
0.447702 0.685607 -0.573321 
0.379323 0.682709 -0.623206 
0.340571 0.639646 -0.687873 
0.283479 0.605178 -0.742618 
0.220582 0.53895 -0.811568 
0.171302 0.451219 -0.874531 
0.121701 0.365477 -0.921409 
0.0795861 0.273425 -0.957501 
0.0598031 0.215745 -0.973557 
0.0377115 0.159789 -0.985477 
0.028335 0.129729 -0.990249 
0.0136045 0.102287 -0.993631 
0.0345031 0.0799932 -0.99551 
0.0321392 0.0287957 -0.998083 
0.0122429 -0.0138245 -0.999129 
0.0026439 -0.014103 -0.99946 
-0.00628431 -0.0417758 -0.998773 
-0.000799557 -0.055208 -0.998263 
-0.012244 -0.0720491 -0.996561 
-0.0165934 -0.104831 -0.993965 
-0.0216916 -0.139245 -0.98955 
-0.0281088 -0.168325 -0.984328 
-0.132578 -0.08234 0.986663 
-0.0567237 -0.109786 0.99162 
-0.0119016 -0.0828667 0.995917 
0.00591627 -0.054268 0.997942 
0.0243713 -0.0325286 0.998508 
0.0291431 -0.0297367 0.998313 
0.0116006 0.0172032 0.999058 
-0.008371 0.0471483 0.998165 
-0.00796135 0.0794225 0.996247 
-0.000870883 0.0931625 0.995007 
-0.0307431 0.116518 0.991984 
-0.0140218 0.140423 0.989268 
-0.0278042 0.201593 0.97814 
-0.0673741 0.305497 0.948179 
-0.0745535 0.343949 0.934603 
-0.11496 0.449352 0.88404 
-0.131162 0.468913 0.871912 
-0.190143 0.557477 0.806662 
-0.232046 0.612892 0.754142 
-0.282277 0.661317 0.69397 
-0.354904 0.738455 0.572165 
-0.414553 0.759539 0.499626 
-0.45408 0.776269 0.435447 
-0.528477 0.744629 0.405855 
-0.59882 0.734501 0.316055 
-0.65327 0.723087 0.220985 
-0.756441 0.631309 0.16758 
-0.840165 0.521642 0.147624 
-0.91604 0.396798 0.054828 
-0.968488 0.246168 0.0366186 
-0.995492 0.089031 0.0417737 
-0.987092 -0.0226044 -0.158082 
-0.946632 -0.12189 -0.297651 
-0.879293 -0.205769 -0.428506 
-0.920264 -0.327858 -0.213477 
-0.904419 -0.374432 -0.203255 
-0.877208 -0.386695 0.283187 
-0.832276 -0.449644 0.322143 
-0.271703 0.38574 0.882201 
-0.104886 0.993435 0.0544396 
0.0111749 0.564513 -0.825205 
0.710287 -0.522839 -0.47119 
0.881945 -0.468695 0.0286879 
0.900109 -0.404069 0.162828 
0.921039 -0.307626 0.237265 
0.875239 -0.178142 0.448573 
0.97859 -0.201482 0.0451058 
0.965468 -0.0636784 0.250525 
0.981029 0.0991249 0.166455 
0.968776 0.242262 0.0516427 
0.93574 0.32748 -0.132056 
0.883879 0.418807 -0.208711 
0.752902 0.617255 -0.226773 
0.639726 0.710017 -0.292906 
0.555949 0.802875 -0.211419 
0.509303 0.791688 -0.335137 
0.463915 0.768651 -0.439059 
0.407671 0.745209 -0.525992 
0.343138 0.73366 -0.584676 
0.303869 0.684319 -0.661159 
0.250197 0.624909 -0.737988 
0.194962 0.560012 -0.803648 
0.153212 0.467357 -0.869238 
0.11515 0.380702 -0.915877 
0.0884158 0.31122 -0.944918 
0.0719397 0.241151 -0.966483 
0.0491415 0.171112 -0.98304 
0.045854 0.131248 -0.989377 
0.0494298 0.11448 -0.991341 
0.0493509 0.0744826 -0.995208 
0.0278782 0.0332145 -0.998415 
0.0150926 0.00682911 -0.999136 
0.00139597 0.00127789 -0.999224 
-0.00626374 -0.0376568 -0.998731 
-0.00985906 -0.0386713 -0.998743 
-0.0135143 -0.0705895 -0.997083 
-0.0226362 -0.0925171 -0.995138 
-0.0283367 -0.138842 -0.989276 
-0.0647373 -0.155738 -0.984732 
-0.246947 -0.0372608 0.967827 
-0.0704268 -0.0747901 0.99392 
-0.00410339 -0.0966194 0.99469 
0.00744393 -0.0692205 0.996894 
0.0207292 -0.051513 0.998 
0.0148549 -0.0263031 0.998935 
0.00953231 0.00262125 0.999238 
-0.0210958 0.0628875 0.997189 
-0.0325771 0.0998875 0.993794 
-0.0567863 0.110184 0.991715 
-0.0526253 0.123253 0.990441 
-0.0357587 0.147004 0.987791 
-0.0504971 0.176827 0.982049 
-0.0671277 0.262618 0.961353 
-0.102737 0.411921 0.903477 
-0.143406 0.533324 0.83123 
-0.170937 0.560766 0.808452 
-0.205809 0.633947 0.743841 
-0.245716 0.687616 0.681596 
-0.301732 0.730518 0.611085 
-0.325444 0.789616 0.518762 
-0.359384 0.817775 0.447678 
-0.383121 0.842122 0.377232 
-0.44542 0.832935 0.325572 
-0.508679 0.818763 0.263015 
-0.542375 0.829855 0.123836 
-0.643863 0.7639 0.0292213 
-0.745801 0.658085 -0.0969541 
-0.818177 0.526516 -0.229025 
-0.873868 0.358713 -0.32658 
-0.913378 0.213617 -0.346371 
-0.872767 0.0896352 -0.478751 
-0.772084 -0.0317374 -0.633104 
-0.69745 -0.171834 -0.694666 
-0.783336 -0.291688 -0.548034 