# vtk DataFile Version 3.0 
Exported using Morpho https://github.com/Morpho-lang/morpho 
ASCII 
DATASET UNSTRUCTURED_GRID 

POINTS 2054 float 
-8.48528 -2.82843 0 
-8.20636 -2.82843 0 
-7.94054 -2.82843 0 
-7.6904 -2.82843 0 
-7.45357 -2.82843 0 
-7.22694 -2.82843 0 
-7.00705 -2.82843 0 
-6.79111 -2.82843 0 
-6.57731 -2.82843 0 
-6.36453 -2.82843 0 
-6.15219 -2.82843 0 
-5.94 -2.82843 0 
-5.72786 -2.82843 0 
-5.51573 -2.82843 0 
-5.3036 -2.82843 0 
-5.09147 -2.82843 0 
-4.87933 -2.82843 0 
-4.6672 -2.82843 0 
-4.45507 -2.82843 0 
-4.24294 -2.82843 0 
-4.03081 -2.82843 0 
-3.81867 -2.82843 0 
-3.60654 -2.82843 0 
-3.39441 -2.82843 0 
-3.18228 -2.82843 0 
-2.97015 -2.82843 0 
-2.75801 -2.82843 0 
-2.54588 -2.82843 0 
-2.33375 -2.82843 0 
-2.12162 -2.82843 0 
-1.90949 -2.82843 0 
-1.69735 -2.82843 0 
-1.48522 -2.82843 0 
-1.27309 -2.82843 0 
-1.06096 -2.82843 0 
-0.848825 -2.82843 0 
-0.636693 -2.82843 0 
-0.424561 -2.82843 0 
-0.212429 -2.82843 0 
-0.000296761 -2.82843 0 
0.211835 -2.82843 0 
0.423967 -2.82843 0 
0.636099 -2.82843 0 
0.848231 -2.82843 0 
1.06036 -2.82843 0 
1.2725 -2.82843 0 
1.48463 -2.82843 0 
1.69676 -2.82843 0 
1.90889 -2.82843 0 
2.12102 -2.82843 0 
2.33316 -2.82843 0 
2.54529 -2.82843 0 
2.75742 -2.82843 0 
2.96955 -2.82843 0 
3.18168 -2.82843 0 
3.39382 -2.82843 0 
3.60595 -2.82843 0 
3.81808 -2.82843 0 
4.03021 -2.82843 0 
4.24234 -2.82843 0 
4.45448 -2.82843 0 
4.66661 -2.82843 0 
4.87874 -2.82843 0 
5.09087 -2.82843 0 
5.303 -2.82843 0 
5.51514 -2.82843 0 
5.72727 -2.82843 0 
5.93941 -2.82843 0 
6.15159 -2.82843 0 
6.36393 -2.82843 0 
6.57672 -2.82843 0 
6.79055 -2.82843 0 
7.00652 -2.82843 0 
7.22647 -2.82843 0 
7.45313 -2.82843 0 
7.69005 -2.82843 0 
7.9403 -2.82843 0 
8.20621 -2.82843 0 
8.48528 -2.82843 0 
-8.48528 -2.5495 0 
-8.30526 -2.64845 0 
-8.07062 -2.59995 0 
-7.83904 -2.59637 0 
-7.59595 -2.59733 0 
-7.36578 -2.59177 0 
-7.13796 -2.5933 0 
-6.90908 -2.59428 0 
-6.68421 -2.5916 0 
-6.46568 -2.58832 0 
-6.24926 -2.58859 0 
-6.03358 -2.58941 0 
-5.81848 -2.59013 0 
-5.60402 -2.59075 0 
-5.39005 -2.59135 0 
-5.17642 -2.59186 0 
-4.96311 -2.59223 0 
-4.75009 -2.59242 0 
-4.53736 -2.59244 0 
-4.32497 -2.59236 0 
-4.1128 -2.59242 0 
-3.90059 -2.59259 0 
-3.68835 -2.5926 0 
-3.47627 -2.59248 0 
-3.26428 -2.59251 0 
-3.05216 -2.59271 0 
-2.83986 -2.59283 0 
-2.62755 -2.59274 0 
-2.41539 -2.59253 0 
-2.20336 -2.59238 0 
-1.99135 -2.59238 0 
-1.77924 -2.59246 0 
-1.56704 -2.59244 0 
-1.35495 -2.59215 0 
-1.14319 -2.59183 0 
-0.931581 -2.59195 0 
-0.719663 -2.59256 0 
-0.507197 -2.59324 0 
-0.294425 -2.59354 0 
-0.0817689 -2.59344 0 
0.130587 -2.59325 0 
0.342804 -2.59322 0 
0.555051 -2.59322 0 
0.767233 -2.59303 0 
0.97919 -2.59278 0 
1.19107 -2.59278 0 
1.40311 -2.59289 0 
1.61524 -2.59286 0 
1.82732 -2.59279 0 
2.03943 -2.59281 0 
2.25163 -2.5928 0 
2.46381 -2.59266 0 
2.67591 -2.59254 0 
2.88801 -2.59237 0 
3.10001 -2.59226 0 
3.31203 -2.59216 0 
3.52402 -2.59207 0 
3.73601 -2.59208 0 
3.94815 -2.59221 0 
4.16052 -2.5923 0 
4.37309 -2.59232 0 
4.58593 -2.59227 0 
4.79921 -2.5922 0 
5.01319 -2.59212 0 
5.22833 -2.5921 0 
5.44534 -2.59239 0 
5.6657 -2.59346 0 
5.89185 -2.59569 0 
6.12685 -2.59429 0 
6.36853 -2.59189 0 
6.6108 -2.57787 0 
6.84491 -2.61411 0 
7.08804 -2.58476 0 
7.34858 -2.60369 0 
7.58803 -2.59327 0 
7.83059 -2.59326 0 
8.06387 -2.59199 0 
8.30038 -2.64348 0 
8.48528 -2.54936 0 
-8.48528 -2.28369 0 
-8.25701 -2.4138 0 
-8.01078 -2.35334 0 
-7.73666 -2.37963 0 
-7.49744 -2.35565 0 
-7.26898 -2.35831 0 
-7.03324 -2.36676 0 
-6.7997 -2.36275 0 
-6.5773 -2.35166 0 
-6.35808 -2.3495 0 
-6.14038 -2.35058 0 
-5.92336 -2.35185 0 
-5.70723 -2.35272 0 
-5.49199 -2.35362 0 
-5.27734 -2.35447 0 
-5.0632 -2.35505 0 
-4.84958 -2.35534 0 
-4.63641 -2.35533 0 
-4.42363 -2.35504 0 
-4.21126 -2.35485 0 
-3.99909 -2.35513 0 
-3.78684 -2.3554 0 
-3.57461 -2.35516 0 
-3.36263 -2.35498 0 
-3.15066 -2.35537 0 
-2.93843 -2.35586 0 
-2.72604 -2.35589 0 
-2.51374 -2.35551 0 
-2.30162 -2.35509 0 
-2.08964 -2.35496 0 
-1.87761 -2.35518 0 
-1.66544 -2.3554 0 
-1.45322 -2.35518 0 
-1.2412 -2.35438 0 
-1.02967 -2.35407 0 
-0.818162 -2.35505 0 
-0.606054 -2.35676 0 
-0.393243 -2.3579 0 
-0.180256 -2.35789 0 
0.0323765 -2.35727 0 
0.244686 -2.35692 0 
0.456926 -2.35692 0 
0.669206 -2.35667 0 
0.881318 -2.35598 0 
1.09315 -2.35559 0 
1.305 -2.35583 0 
1.51709 -2.35595 0 
1.72919 -2.35571 0 
1.9412 -2.35566 0 
2.15334 -2.3558 0 
2.36559 -2.3556 0 
2.57772 -2.35522 0 
2.78976 -2.35507 0 
3.0019 -2.35461 0 
3.21373 -2.35451 0 
3.42571 -2.35439 0 
3.63769 -2.35431 0 
3.84965 -2.35453 0 
4.06183 -2.35491 0 
4.27435 -2.35507 0 
4.48707 -2.35507 0 
4.70017 -2.35506 0 
4.91376 -2.35498 0 
5.12819 -2.35502 0 
5.34378 -2.35528 0 
5.56106 -2.35662 0 
5.78097 -2.35971 0 
6.00401 -2.36251 0 
6.2308 -2.3624 0 
6.45748 -2.35551 0 
6.68075 -2.33423 0 
6.88797 -2.39744 0 
7.05313 -2.27289 0 
7.24377 -2.40237 0 
7.48542 -2.36016 0 
7.73055 -2.36599 0 
7.99177 -2.33552 0 
8.24864 -2.40698 0 
8.48528 -2.28345 0 
-8.48528 -2.03355 0 
-8.25312 -2.18214 0 
-8.03669 -2.07913 0 
-7.83956 -2.18231 0 
-7.6106 -2.12852 0 
-7.38852 -2.10959 0 
-7.16268 -2.14097 0 
-6.9229 -2.1435 0 
-6.70119 -2.12055 0 
-6.48111 -2.11285 0 
-6.26282 -2.11284 0 
-6.045 -2.1151 0 
-5.82775 -2.11658 0 
-5.61153 -2.11776 0 
-5.3962 -2.1192 0 
-5.18144 -2.1203 0 
-4.96732 -2.12084 0 
-4.75387 -2.12105 0 
-4.54086 -2.12091 0 
-4.32822 -2.12045 0 
-4.11596 -2.12045 0 
-3.90382 -2.12107 0 
-3.69156 -2.12116 0 
-3.47938 -2.12058 0 
-3.26746 -2.12068 0 
-3.05542 -2.12154 0 
-2.84307 -2.12198 0 
-2.63064 -2.12162 0 
-2.41836 -2.12087 0 
-2.20626 -2.12031 0 
-1.99426 -2.12034 0 
-1.78217 -2.1207 0 
-1.56989 -2.12074 0 
-1.35755 -2.11993 0 
-1.14542 -2.11838 0 
-0.934012 -2.11859 0 
-0.722404 -2.12089 0 
-0.509943 -2.12344 0 
-0.296911 -2.12431 0 
-0.0840921 -2.12359 0 
0.128295 -2.12281 0 
0.340414 -2.12274 0 
0.552564 -2.12288 0 
0.76478 -2.12226 0 
0.976792 -2.1213 0 
1.18855 -2.12128 0 
1.40042 -2.12188 0 
1.61256 -2.12177 0 
1.82458 -2.12141 0 
2.03655 -2.12164 0 
2.24875 -2.12174 0 
2.46099 -2.12114 0 
2.67302 -2.12065 0 
2.88504 -2.12054 0 
3.09728 -2.1194 0 
3.30873 -2.11968 0 
3.52086 -2.1195 0 
3.7329 -2.11938 0 
3.94484 -2.11986 0 
4.15715 -2.12044 0 
4.36983 -2.12035 0 
4.58282 -2.1204 0 
4.79606 -2.12017 0 
5.01004 -2.12012 0 
5.22483 -2.12002 0 
5.44073 -2.12051 0 
5.6582 -2.123 0 
5.8782 -2.12696 0 
6.10217 -2.12971 0 
6.33095 -2.12707 0 
6.567 -2.11601 0 
6.82301 -2.12303 0 
7.06572 -2.04567 0 
7.29733 -2.17484 0 
7.54632 -2.11408 0 
7.79371 -2.13741 0 
8.02274 -2.07453 0 
8.25027 -2.1738 0 
8.48528 -2.0332 0 
-8.48528 -1.79671 0 
-8.25436 -1.93882 0 
-8.01299 -1.83977 0 
-7.78596 -1.953 0 
-7.5297 -1.87194 0 
-7.2756 -1.88722 0 
-7.05707 -1.93544 0 
-6.84369 -1.89677 0 
-6.62219 -1.88079 0 
-6.40169 -1.87606 0 
-6.18206 -1.87854 0 
-5.96274 -1.881 0 
-5.74458 -1.88208 0 
-5.52796 -1.88344 0 
-5.31232 -1.88506 0 
-5.09736 -1.88569 0 
-4.88338 -1.88564 0 
-4.67019 -1.88555 0 
-4.45737 -1.88507 0 
-4.24485 -1.88447 0 
-4.03271 -1.88482 0 
-3.82061 -1.88562 0 
-3.60832 -1.88529 0 
-3.39617 -1.88464 0 
-3.18427 -1.88547 0 
-2.97209 -1.88672 0 
-2.7596 -1.88684 0 
-2.54714 -1.88601 0 
-2.33483 -1.88505 0 
-2.12268 -1.8846 0 
-1.91058 -1.885 0 
-1.69824 -1.88561 0 
-1.48561 -1.88547 0 
-1.27286 -1.88413 0 
-1.06032 -1.88216 0 
-0.848858 -1.8839 0 
-0.636875 -1.88781 0 
-0.424169 -1.89034 0 
-0.211518 -1.89004 0 
0.000731944 -1.88866 0 
0.21257 -1.88788 0 
0.424308 -1.88807 0 
0.636257 -1.88793 0 
0.848362 -1.88664 0 
1.06025 -1.88556 0 
1.27191 -1.88605 0 
1.48381 -1.88664 0 
1.69595 -1.886 0 
1.90782 -1.88577 0 
2.11974 -1.88637 0 
2.33202 -1.88609 0 
2.54419 -1.88502 0 
2.75607 -1.88472 0 
2.96812 -1.88462 0 
3.18055 -1.88217 0 
3.39117 -1.88415 0 
3.60398 -1.8838 0 
3.81618 -1.88366 0 
4.02827 -1.88469 0 
4.24071 -1.88523 0 
4.4544 -1.88509 0 
4.66716 -1.88476 0 
4.88099 -1.88493 0 
5.09545 -1.88466 0 
5.31057 -1.88453 0 
5.52653 -1.88564 0 
5.7436 -1.88981 0 
5.96352 -1.89563 0 
6.18733 -1.89813 0 
6.41543 -1.89522 0 
6.65059 -1.89622 0 
6.87542 -1.86913 0 
7.11122 -1.81621 0 
7.31223 -1.94975 0 
7.53264 -1.87683 0 
7.77077 -1.89068 0 
8.01717 -1.8297 0 
8.25014 -1.93148 0 
8.48528 -1.79628 0 
-8.48528 -1.57009 0 
-8.24868 -1.70836 0 
-8.015 -1.61096 0 
-7.76734 -1.73071 0 
-7.54593 -1.61782 0 
-7.32306 -1.66278 0 
-7.05152 -1.7082 0 
-6.79786 -1.66675 0 
-6.56099 -1.64764 0 
-6.33267 -1.64541 0 
-6.10856 -1.64921 0 
-5.88638 -1.65073 0 
-5.66697 -1.65153 0 
-5.44986 -1.65353 0 
-5.23379 -1.65525 0 
-5.01882 -1.6551 0 
-4.80519 -1.6548 0 
-4.59235 -1.65478 0 
-4.37976 -1.65422 0 
-4.16737 -1.65386 0 
-3.95537 -1.65471 0 
-3.74326 -1.6554 0 
-3.5309 -1.65455 0 
-3.31876 -1.65426 0 
-3.10682 -1.65593 0 
-2.89443 -1.65705 0 
-2.68177 -1.65644 0 
-2.46924 -1.65516 0 
-2.25682 -1.65408 0 
-2.04447 -1.65386 0 
-1.83202 -1.65455 0 
-1.61911 -1.65506 0 
-1.40572 -1.65429 0 
-1.19212 -1.65207 0 
-0.97885 -1.64982 0 
-0.767325 -1.65372 0 
-0.555434 -1.6581 0 
-0.343588 -1.65935 0 
-0.132061 -1.65818 0 
0.0792288 -1.65687 0 
0.290417 -1.65682 0 
0.501823 -1.6575 0 
0.713729 -1.65709 0 
0.925861 -1.65545 0 
1.13768 -1.65488 0 
1.34929 -1.65604 0 
1.56128 -1.6563 0 
1.77337 -1.65516 0 
1.985 -1.65561 0 
2.19698 -1.65642 0 
2.40939 -1.65525 0 
2.62143 -1.65394 0 
2.83323 -1.65414 0 
3.04553 -1.65355 0 
3.25842 -1.64868 0 
3.46746 -1.65522 0 
3.68272 -1.65284 0 
3.89574 -1.65288 0 
4.10731 -1.65378 0 
4.32287 -1.65565 0 
4.53627 -1.65249 0 
4.74932 -1.65397 0 
4.96428 -1.65355 0 
5.17935 -1.65257 0 
5.3944 -1.65202 0 
5.60927 -1.65354 0 
5.82513 -1.66019 0 
6.04295 -1.66711 0 
6.26383 -1.66843 0 
6.48537 -1.66776 0 
6.70098 -1.65646 0 
6.91299 -1.6206 0 
7.11709 -1.6046 0 
7.3526 -1.69716 0 
7.60698 -1.65764 0 
7.8325 -1.64214 0 
8.05985 -1.58842 0 
8.2608 -1.69223 0 
8.48528 -1.56961 0 
-8.48528 -1.35019 0 
-8.24958 -1.48044 0 
-8.0219 -1.3751 0 
-7.79713 -1.50391 0 
-7.58956 -1.39834 0 
-7.36199 -1.38754 0 
-7.16079 -1.49923 0 
-6.93764 -1.46284 0 
[...]
POINT_DATA 2054 
VECTORS vectors float
0.026953 -0.0377944 0.998948 
0.0303706 -0.0283397 0.99927 
0.0325232 -0.0220489 0.999292 
0.0338404 -0.0182404 0.999307 
0.0345019 -0.0168853 0.999298 
0.0342128 -0.0159831 0.999317 
0.0337449 -0.0139285 0.999362 
0.0336043 -0.0113093 0.999398 
0.0336496 -0.0085729 0.999422 
0.0337502 -0.00601257 0.999437 
0.0338539 -0.00370684 0.999444 
0.033929 -0.00159294 0.999447 
0.0339528 0.000436283 0.999447 
0.033927 0.00248804 0.999445 
0.0338569 0.00465994 0.99944 
0.033736 0.00705278 0.999431 
0.0335521 0.00978699 0.999414 
0.0332938 0.0130114 0.999387 
0.0329514 0.0168988 0.999341 
0.0325112 0.0216507 0.999265 
0.0319532 0.0275124 0.999139 
0.0312491 0.0347847 0.998936 
0.0303636 0.0438374 0.998608 
0.029254 0.0551308 0.998083 
0.0278671 0.0692358 0.997245 
0.0261361 0.0868604 0.995914 
0.0239808 0.108879 0.993803 
0.0213111 0.136353 0.990469 
0.01803 0.170552 0.985222 
0.0140388 0.21295 0.977 
0.00925475 0.265195 0.964186 
0.00365465 0.328994 0.944358 
-0.00263663 0.405822 0.913978 
-0.00920655 0.496319 0.868116 
-0.0152078 0.599185 0.800484 
-0.0193529 0.709714 0.704233 
-0.0202297 0.818653 0.573925 
-0.016934 0.912641 0.408377 
-0.00969329 0.976959 0.213096 
-4.23773e-05 0.999972 0.000640965 
0.00962012 0.977224 -0.211881 
0.0168909 0.913107 -0.407336 
0.0202215 0.819227 -0.573108 
0.0193704 0.710311 -0.703631 
0.0152367 0.599755 -0.800057 
0.00923639 0.496828 -0.867825 
0.00266369 0.406266 -0.913781 
-0.00363089 0.329374 -0.944226 
-0.00923422 0.265517 -0.964098 
-0.0140214 0.213219 -0.976942 
-0.0180148 0.170772 -0.985184 
-0.0212962 0.136534 -0.990445 
-0.0239657 0.109028 -0.993787 
-0.026122 0.0869828 -0.995903 
-0.0278549 0.0693357 -0.997239 
-0.0292434 0.0552124 -0.998079 
-0.0303541 0.0439054 -0.998606 
-0.0312413 0.0348419 -0.998934 
-0.031948 0.0275616 -0.999138 
-0.0325083 0.0216938 -0.999264 
-0.0329488 0.0169377 -0.99934 
-0.0332911 0.0130484 -0.999387 
-0.0335522 0.00982315 -0.999414 
-0.0337456 0.0070888 -0.99943 
-0.0338857 0.00469782 -0.999439 
-0.0339845 0.00252438 -0.999444 
-0.03405 0.00044871 -0.999445 
-0.0340729 -0.00160217 -0.999444 
-0.0339914 -0.00372958 -0.999441 
-0.0339705 -0.00601146 -0.999421 
-0.0337341 -0.00849448 -0.99942 
-0.0337838 -0.0112122 -0.999397 
-0.0337886 -0.0137405 -0.999364 
-0.0341599 -0.0156862 -0.999326 
-0.0344763 -0.016551 -0.999306 
-0.0338981 -0.0179529 -0.99931 
-0.0325433 -0.0218609 -0.999295 
-0.0303601 -0.0282312 -0.999272 
-0.0269153 -0.0377344 -0.99895 
0.015297 -0.0405552 0.999136 
0.0224431 -0.0328756 0.999274 
0.0231658 -0.0263909 0.999466 
0.0249937 -0.021724 0.999526 
0.025915 -0.0178931 0.999577 
0.0262547 -0.0162518 0.999597 
0.0264762 -0.014348 0.999621 
0.0265816 -0.0122044 0.999647 
0.0267408 -0.00983702 0.999669 
0.0269111 -0.0073196 0.999687 
0.0270998 -0.00487043 0.999697 
0.0272258 -0.0025938 0.999701 
0.0272999 -0.000451086 0.999702 
0.0273197 0.00165534 0.9997 
0.0272881 0.00383506 0.999695 
0.0272017 0.00619882 0.999685 
0.0270529 0.00886567 0.999669 
0.0268331 0.0119742 0.999642 
0.026533 0.0156873 0.999599 
0.026141 0.0201947 0.999528 
0.0256455 0.0257282 0.999413 
0.0250256 0.0325778 0.999229 
0.024252 0.0410936 0.998934 
0.0232947 0.0516967 0.998464 
0.0221213 0.0649186 0.997718 
0.0206879 0.0814331 0.996536 
0.0189408 0.102066 0.994669 
0.0168268 0.127796 0.991728 
0.014296 0.159782 0.987118 
0.0113053 0.199387 0.979924 
0.00782949 0.248164 0.968752 
0.00388825 0.307764 0.951517 
-0.000405173 0.379675 0.925177 
-0.00477685 0.464693 0.885508 
-0.00874456 0.562125 0.827042 
-0.0116476 0.668862 0.743311 
-0.0127556 0.778188 0.627882 
-0.0114994 0.878895 0.476798 
-0.00781096 0.956326 0.291994 
-0.00234639 0.996434 0.083481 
0.00365191 0.991166 -0.132039 
0.00878458 0.941761 -0.336003 
0.0119499 0.858009 -0.513433 
0.0126576 0.754296 -0.656402 
0.011094 0.644674 -0.764398 
0.00788836 0.539449 -0.842021 
0.0037778 0.444546 -0.8958 
-0.000603545 0.362482 -0.932049 
-0.00482586 0.293467 -0.956021 
-0.00866498 0.236414 -0.97168 
-0.0120314 0.189789 -0.98182 
-0.0149108 0.152003 -0.988337 
-0.0173365 0.121549 -0.992505 
-0.0193566 0.0970784 -0.99516 
-0.0210259 0.0774636 -0.996846 
-0.0223971 0.0617465 -0.997913 
-0.0235168 0.0491565 -0.998587 
-0.0244275 0.0390623 -0.999011 
-0.0251654 0.0309508 -0.999277 
-0.0257568 0.0244134 -0.999444 
-0.026225 0.0191217 -0.999547 
-0.0265897 0.0148044 -0.999611 
-0.0268685 0.0112372 -0.99965 
-0.0270732 0.00823109 -0.999674 
-0.027213 0.0056226 -0.999689 
-0.0272928 0.00327272 -0.999698 
-0.0273088 0.00105514 -0.999703 
-0.0272816 -0.00116325 -0.999704 
-0.0270962 -0.00355985 -0.999705 
-0.0268225 -0.00618374 -0.999711 
-0.026267 -0.0088976 -0.999705 
-0.0271603 -0.0114667 -0.999631 
-0.026228 -0.0136596 -0.999649 
-0.0266429 -0.0158942 -0.999592 
-0.0257584 -0.0176646 -0.999587 
-0.0249395 -0.0214818 -0.999535 
-0.0229485 -0.0261201 -0.999482 
-0.0222947 -0.0327471 -0.999283 
-0.0153083 -0.0404366 -0.999141 
0.00969146 -0.0429391 0.999064 
0.015829 -0.0323675 0.999451 
0.0175707 -0.0272119 0.999585 
0.0199644 -0.0199227 0.999688 
0.0203734 -0.0173345 0.999727 
0.0206651 -0.0150804 0.999753 
0.0210239 -0.0127717 0.999777 
0.0212058 -0.0108834 0.999795 
0.0211793 -0.00869531 0.999816 
0.0212969 -0.00622518 0.999831 
0.0214669 -0.00380699 0.999839 
0.0215971 -0.00154108 0.999842 
0.0216572 0.000634924 0.999842 
0.0216649 0.00282914 0.999837 
0.0216213 0.0051562 0.999829 
0.021515 0.00773597 0.999814 
0.0213382 0.0106992 0.99979 
0.021083 0.0141985 0.999752 
0.0207422 0.0184134 0.99969 
0.0203159 0.0235555 0.99959 
0.0197984 0.0298881 0.999431 
0.0191586 0.0377419 0.999178 
0.0183635 0.0475112 0.998775 
0.0174057 0.0596675 0.99814 
0.0162714 0.0748179 0.997137 
0.0149198 0.0937281 0.995558 
0.01331 0.117307 0.993078 
0.0114215 0.146615 0.989198 
0.0092467 0.182895 0.983158 
0.00678666 0.227574 0.973804 
0.0040603 0.28223 0.959402 
0.00113491 0.348403 0.937404 
-0.00183041 0.427207 0.904205 
-0.00456014 0.518675 0.855002 
-0.00669299 0.620829 0.783943 
-0.00784816 0.728988 0.68448 
-0.007678 0.834507 0.550898 
-0.00601684 0.924299 0.381489 
-0.00308244 0.983191 0.182177 
0.000508479 0.99939 -0.0327249 
0.00396274 0.969611 -0.244355 
0.00655419 0.900268 -0.435186 
0.00779794 0.804449 -0.593939 
0.00757028 0.69689 -0.717147 
0.00609071 0.58963 -0.807682 
0.00373949 0.490233 -0.871629 
0.000909563 0.402461 -0.915492 
-0.00205625 0.327527 -0.9449 
-0.00492633 0.264944 -0.964316 
-0.00757753 0.213372 -0.977009 
-0.00994604 0.171303 -0.985237 
-0.0120152 0.137252 -0.990534 
-0.0138026 0.109806 -0.993929 
-0.0153225 0.087732 -0.996099 
-0.0166104 0.0700367 -0.997479 
-0.0176894 0.0558318 -0.998357 
-0.018587 0.0444355 -0.998913 
-0.0193336 0.0352827 -0.999264 
-0.0199487 0.0279095 -0.999486 
-0.0204418 0.0219469 -0.999625 
-0.0208296 0.017098 -0.999712 
-0.0211326 0.0131128 -0.999766 
-0.0213643 0.00978787 -0.9998 
-0.0215389 0.00694616 -0.99982 
-0.0216669 0.0044347 -0.999832 
-0.0217716 0.00212116 -0.999838 
-0.0218741 -0.000108064 -0.99984 
-0.0219206 -0.00236279 -0.999837 
-0.0217541 -0.00477705 -0.999833 
-0.0214131 -0.00731164 -0.999824 
-0.0207703 -0.00966825 -0.999808 
-0.0217184 -0.0115192 -0.999778 
-0.0187676 -0.0126243 -0.999822 
-0.0218143 -0.0147502 -0.999725 
-0.0205675 -0.0169941 -0.999732 
-0.0197703 -0.0198264 -0.999697 
-0.0173517 -0.0267694 -0.999605 
-0.0157566 -0.0320974 -0.999463 
-0.00968064 -0.0429232 -0.999065 
0.00654885 -0.0436327 0.999054 
0.011346 -0.0339068 0.99946 
0.0113937 -0.0284453 0.999624 
0.0147093 -0.0229053 0.999694 
0.0145609 -0.0186504 0.9998 
0.0145895 -0.0162167 0.999838 
0.0154712 -0.0135365 0.99986 
0.0159866 -0.0116851 0.999874 
0.0160059 -0.0100353 0.999893 
0.0162607 -0.00777438 0.999909 
0.0165252 -0.00528093 0.999921 
0.0167175 -0.00287981 0.999927 
0.0168235 -0.000608593 0.999929 
0.0168758 0.00161844 0.999927 
0.0168846 0.00391288 0.99992 
0.0168325 0.00639739 0.999908 
0.0167122 0.00919838 0.999888 
0.0165246 0.0124549 0.999855 
0.0162621 0.0163342 0.999804 
0.0159161 0.0210319 0.999721 
0.0154897 0.0267811 0.999591 
0.0149742 0.033876 0.999383 
0.0143385 0.0426833 0.999055 
0.0135676 0.0536327 0.998538 
0.0126693 0.0672413 0.997725 
0.0116295 0.0841881 0.996451 
0.0104201 0.105311 0.994453 
0.00903341 0.131578 0.991332 
0.00747748 0.164113 0.98648 
0.00576664 0.204224 0.978973 
0.00392381 0.253373 0.967425 
0.00198739 0.313116 0.949774 
3.37856e-05 0.384842 0.923039 
-0.00180125 0.46926 0.883106 
-0.00332463 0.565642 0.824679 
-0.00433888 0.670696 0.741733 
-0.00466419 0.778363 0.627777 
-0.00415538 0.878194 0.478206 
-0.00281962 0.955664 0.29424 
-0.000906884 0.996234 0.0858525 
0.00117258 0.991459 -0.129861 
0.00298873 0.942609 -0.333716 
0.00418656 0.859768 -0.510602 
0.00455874 0.757389 -0.652935 
0.00410408 0.649313 -0.760528 
0.00297986 0.545507 -0.838139 
0.00138651 0.451512 -0.892314 
-0.000473463 0.369702 -0.929207 
-0.00241853 0.300499 -0.953841 
-0.00433436 0.242971 -0.970088 
-0.00615044 0.195674 -0.980716 
-0.00781748 0.157157 -0.98761 
-0.00932122 0.126 -0.992054 
-0.0106623 0.100867 -0.994911 
-0.0118242 0.0806314 -0.996743 
-0.0128428 0.0644193 -0.997909 
-0.013709 0.0513556 -0.998655 
-0.0144384 0.0408628 -0.99913 
-0.0150533 0.0324213 -0.99943 
-0.0155602 0.0255997 -0.99962 
-0.0159587 0.0200639 -0.999741 
-0.0162726 0.0155358 -0.999816 
-0.0165064 0.0117909 -0.999864 
-0.0166813 0.00863316 -0.999894 
-0.0167996 0.00590173 -0.999912 
-0.0168655 0.00345246 -0.999923 
-0.0168889 0.00115319 -0.999928 
-0.0168867 -0.00111852 -0.999928 
-0.0168375 -0.00347995 -0.999924 
-0.0165473 -0.00602021 -0.999918 
-0.0161095 -0.00862887 -0.999906 
-0.0157899 -0.0108167 -0.999902 
-0.0140065 -0.0124487 -0.999898 
-0.0161439 -0.0149554 -0.999832 
-0.0143871 -0.0178011 -0.999831 
-0.0139062 -0.0214939 -0.999744 
-0.0114557 -0.0281467 -0.999636 
-0.0112925 -0.033784 -0.999468 
-0.00650617 -0.0436974 -0.999052 
0.00533935 -0.0443754 0.999023 
0.00819649 -0.03461 0.999464 
0.00887257 -0.0285005 0.999647 
0.0112181 -0.021743 0.999781 
0.0111513 -0.0178623 0.999871 
0.0117829 -0.0144777 0.999899 
0.0128362 -0.0124251 0.999899 
0.0129155 -0.0112133 0.999922 
0.0131651 -0.0094427 0.999937 
0.0134264 -0.00702359 0.999954 
0.0136633 -0.00448544 0.999964 
0.0138268 -0.0020724 0.99997 
0.0139226 0.0002326 0.99997 
0.0139681 0.0025283 0.999966 
0.013959 0.00493819 0.999957 
0.013882 0.00759268 0.999941 
0.0137388 0.0106196 0.999915 
0.0135315 0.0141693 0.999874 
0.0132511 0.0184242 0.999808 
0.012894 0.0235956 0.999704 
0.0124637 0.0299363 0.99954 
0.0119457 0.0377706 0.999281 
0.0113156 0.0474988 0.998873 
0.0105743 0.0595779 0.998234 
0.00973219 0.0745681 0.997234 
0.00877381 0.0932213 0.995673 
0.00768865 0.11643 0.993235 
0.00648948 0.145205 0.989446 
0.00519824 0.180736 0.983583 
0.00384034 0.224378 0.974559 
0.00244562 0.277618 0.96075 
0.00105231 0.341998 0.939759 
-0.000275184 0.418714 0.908171 
-0.00143957 0.508034 0.861379 
-0.0023221 0.6084 0.793654 
-0.00282574 0.715079 0.699039 
-0.00285458 0.820759 0.571227 
-0.00234253 0.913156 0.407486 
-0.00135545 0.977077 0.21257 
-0.000102366 0.999926 -0.000506243 
0.0011471 0.976957 -0.213123 
0.0021388 0.913299 -0.407166 
0.00268279 0.821315 -0.570428 
0.00269565 0.715618 -0.698488 
0.00221729 0.608714 -0.793413 
0.00135268 0.508728 -0.860969 
0.000210053 0.419663 -0.907732 
-0.0010982 0.342976 -0.939402 
-0.00247507 0.278562 -0.960477 
-0.00386213 0.225188 -0.974372 
-0.00521016 0.181378 -0.983465 
-0.006481 0.14576 -0.989365 
-0.00766189 0.116955 -0.993174 
-0.00873946 0.0936894 -0.995629 
-0.00968469 0.0749324 -0.997208 
-0.0105452 0.0599397 -0.998212 
-0.0112782 0.0477621 -0.998861 
-0.0119018 0.0379892 -0.999273 
-0.0124338 0.0301099 -0.999535 
-0.0128669 0.0237279 -0.999702 
-0.0132105 0.0185089 -0.999807 
-0.01347 0.0142418 -0.999874 
-0.0136652 0.0106722 -0.999916 
-0.0138007 0.00763468 -0.999942 
-0.0138961 0.00497643 -0.999958 
-0.0139641 0.00256177 -0.999967 
-0.0140027 0.000259174 -0.99997 
-0.013995 -0.00206742 -0.999969 
-0.0139074 -0.00452707 -0.999963 
-0.0136539 -0.00714432 -0.999951 
-0.0133367 -0.00962915 -0.999936 
-0.0126416 -0.0113007 -0.999928 
-0.0114586 -0.0126624 -0.999922 
-0.0123743 -0.0150375 -0.999885 
-0.0112182 -0.0178873 -0.999846 
-0.0105489 -0.0212086 -0.999812 
-0.00869462 -0.0286211 -0.999649 
-0.00820128 -0.0342645 -0.999477 
-0.005236 -0.0443695 -0.999024 
0.00496222 -0.0443969 0.999023 
0.006779 -0.0350717 0.999461 
0.00709455 -0.0284853 0.999659 
0.00905282 -0.0214133 0.999809 
0.00847662 -0.0179711 0.999879 
0.00930286 -0.0148181 0.999918 
0.010447 -0.0123068 0.999948 
0.0106781 -0.0110547 0.99995 
0.0109008 -0.0089793 0.999967 
0.011164 -0.00635377 0.999983 
0.0114001 -0.00375057 0.999992 
0.0115512 -0.00130247 0.999996 
0.0116334 0.00105025 0.999995 
0.0116678 0.00342635 0.999989 
0.0116465 0.0059665 0.999977 
0.0115559 0.00880011 0.999957 
0.0114059 0.0120593 0.999924 
0.0111958 0.0159081 0.999873 
0.0109146 0.0205431 0.999792 
0.0105621 0.026193 0.999663 
0.0101401 0.0331289 0.999462 
0.0096316 0.0417077 0.999146 
0.00902107 0.0523582 0.998651 
0.0083206 0.0655603 0.997877 
0.00753936 0.0819236 0.996674 
0.006664 0.102273 0.994798 
0.00569965 0.127543 0.991881 
0.00467347 0.158783 0.987367 
0.00361541 0.197253 0.98041 
0.00255693 0.244364 0.969743 
0.00152831 0.301636 0.953482 
0.000562041 0.370581 0.928856 
-0.000295715 0.452181 0.891975 
-0.000986217 0.54616 0.837718 
-0.00145195 0.649918 0.760021 
-0.00166788 0.757033 0.653362 
-0.00158639 0.858846 0.512167 
-0.00119523 0.941636 0.336465 
-0.000571786 0.990924 0.133902 
0.000146838 0.996696 -0.0803374 
0.000811463 0.957792 -0.287254 
0.00129145 0.882358 -0.470493 
0.00149321 0.783996 -0.620741 
0.0013864 0.676872 -0.73611 
0.00100348 0.572063 -0.820242 
0.000392853 0.476048 -0.879465 
-0.000399752 0.391608 -0.920187 
-0.0013184 0.319568 -0.947622 
-0.00231676 0.259419 -0.965824 
-0.00336023 0.209672 -0.977829 
-0.00440464 0.168908 -0.985686 
-0.00541895 0.135827 -0.990782 
-0.00638735 0.109062 -0.994078 
-0.00728201 0.0874037 -0.99621 
-0.0080668 0.0699195 -0.997584 
-0.00882125 0.0560304 -0.998453 
-0.00944405 0.044545 -0.999026 
-0.00997481 0.0353836 -0.999387 
-0.0104226 0.0280297 -0.999616 
-0.0108047 0.0219582 -0.999763 
-0.0110644 0.0170607 -0.999856 
-0.0112862 0.0130152 -0.999914 
-0.0114283 0.0095943 -0.999951 
-0.0115055 0.0066597 -0.999975 
-0.0115404 0.00406495 -0.999988 
-0.0115576 0.00168006 -0.999995 
-0.0115795 -0.000635385 -0.999996 
-0.0115547 -0.00300693 -0.999993 
-0.0114267 -0.00553499 -0.999984 
-0.0111931 -0.00814353 -0.999969 
-0.0107473 -0.0103542 -0.999953 
-0.00997242 -0.0117014 -0.999945 
-0.0093315 -0.012629 -0.999928 
-0.00966267 -0.0154034 -0.999912 
-0.00876859 -0.0187427 -0.999865 
-0.00789553 -0.0230505 -0.99978 
-0.00672514 -0.0297784 -0.999619 
-0.00649389 -0.035432 -0.999454 
-0.00482417 -0.0443647 -0.999026 
0.00440992 -0.0441513 0.999036 
0.005666 -0.0353767 0.99946 
0.00577909 -0.0284017 0.99967 
0.00704392 -0.0219535 0.999809 
0.00703446 -0.0184626 0.999868 
0.00758324 -0.0151829 0.999935 
0.00860822 -0.0130447 0.999933 
0.00909758 -0.0119504 0.999953 
0.00950982 -0.0106007 0.999964 
0.00986059 -0.00825772 0.999982 
0.0101531 -0.00556858 0.999996 
0.0103706 -0.0029699 1 
0.010502 -0.000507186 1.00001 
0.0105784 0.00188068 1 
0.0106069 0.0043412 0.999995 
0.0105733 0.00701247 0.999981 
0.0104773 0.0100269 0.999956 
0.0103259 0.0135192 0.999916 
0.0101135 0.0176637 0.999854 
0.00983198 0.0226841 0.999755 
0.00948096 0.0288161 0.999601 
0.00905838 0.0363527 0.999359 
0.00855114 0.0456809 0.998981 
0.00795508 0.0572562 0.99839 
0.00727882 0.0715761 0.997471 
0.0065221 0.0893077 0.996045 
0.00568176 0.111345 0.993829 
0.00477534 0.138654 0.990393 
0.00383017 0.172333 0.985094 
0.00287485 0.213713 0.976955 
0.00194228 0.264252 0.964513 
0.00106666 0.325482 0.945606 
0.000282461 0.39883 0.917078 
-0.000372976 0.484937 0.874594 
-0.000862743 0.582773 0.812665 
-0.00115639 0.688448 0.725294 
-0.00123879 0.793968 0.607932 
-0.0010998 0.889974 0.455922 
-0.000760373 0.962436 0.271286 
-0.000285703 0.997903 0.0636157 
0.000225891 0.988593 -0.150161 
0.000668592 0.936358 -0.350895 
0.000955336 0.851679 -0.524005 
0.0010331 0.748862 -0.662715 
0.000889046 0.641484 -0.767155 
0.000539315 0.539239 -0.84219 
7.71002e-06 0.447104 -0.894531 
-0.000678008 0.366926 -0.930306 
-0.00148127 0.299062 -0.954292 
-0.00236536 0.242683 -0.970165 
-0.00329782 0.196076 -0.980646 
-0.00423841 0.157934 -0.987504 
-0.00515326 0.127058 -0.991945 
-0.00602148 0.102044 -0.994825 
-0.00682171 0.0817255 -0.996695 
-0.00753268 0.0652781 -0.997902 
-0.0082104 0.0524419 -0.998652 
-0.00876472 0.0412954 -0.999171 
-0.00920589 0.0329178 -0.999478 
-0.00962718 0.0257755 -0.999683 
-0.00991866 0.0201554 -0.999809 
-0.0101513 0.015537 -0.999889 
-0.0103344 0.0117188 -0.999939 
-0.0104337 0.00842292 -0.999972 
-0.0104691 0.00558789 -0.999991 
-0.0104569 0.00307192 -1 
-0.0104221 0.000695927 -1.00001 
-0.0103608 -0.00163242 -1.00001 
-0.0102487 -0.00405948 -1 
-0.0100327 -0.00665464 -0.99999 
-0.00972172 -0.00922752 -0.999973 
-0.00923667 -0.0112785 -0.999958 
-0.00851173 -0.0123621 -0.99996 
-0.00805778 -0.0138964 -0.999922 
-0.00751008 -0.0170002 -0.999897 
-0.00673485 -0.0198989 -0.999858 
-0.00600596 -0.02596 -0.999727 
-0.0053646 -0.0349828 -0.999486 
-0.00432971 -0.0441841 -0.999034 
0.00368449 -0.0440301 0.999044 
0.00483636 -0.0353081 0.999467 
0.00509376 -0.0281888 0.999678 
0.0061015 -0.0218519 0.999818 
0.0066005 -0.017849 0.999891 
0.00710533 -0.0146104 0.999937 
0.00807426 -0.01291 0.999951 
0.00856177 -0.0119612 0.999959 
0.00892453 -0.0102079 0.999973 
0.00921471 -0.0075785 0.999993 
0.0094682 -0.00482107 1.00001 
0.0096399 -0.00219866 1.00001 
0.0097166 0.000278308 1.00001 
0.00977566 0.00270486 1.00001 
0.00978142 0.00524183 0.999999 
0.00972063 0.00804584 0.999981 
0.00960196 0.0112408 0.999951 
0.00944112 0.0149453 0.999904 
0.00922876 0.0193926 0.999829 
0.00894902 0.0247984 0.999713 
0.00861091 0.03141 0.99953 
0.00820805 0.0395402 0.999245 
0.00772344 0.0496107 0.9988 
0.00716132 0.0620759 0.998107 
0.00653284 0.0774621 0.997035 
0.00582698 0.0965112 0.995377 
0.00503918 0.120169 0.992803 
0.00419387 0.149377 0.988834 
0.00331747 0.185251 0.982748 
0.00243498 0.22914 0.973452 
0.00157783 0.282425 0.959348 
0.000779255 0.346488 0.938111 
7.37294e-05 0.42253 0.9064 
-0.000501721 0.510684 0.859809 
-0.000915464 0.609498 0.792812 
-0.00114248 0.714818 0.699311 
-0.00116649 0.818671 0.574222 
-0.000981486 0.910843 0.412641 
-0.000617177 0.975776 0.218477 
-0.000144323 0.99992 0.00430671 
0.000335969 0.977571 -0.210298 
0.000722594 0.913855 -0.405925 
0.000941325 0.821594 -0.570033 
0.000954351 0.715645 -0.698464 
0.000758558 0.608944 -0.793239 
0.000371986 0.509616 -0.860443 
-0.000182352 0.421188 -0.907025 
-0.000873526 0.344892 -0.938699 
-0.0016605 0.280829 -0.959816 
-0.00250759 0.227802 -0.973766 
-0.00338454 0.183819 -0.983017 
-0.00424777 0.147915 -0.989054 
-0.00507265 0.119012 -0.992942 
-0.00584895 0.095426 -0.995482 
-0.0065519 0.0760382 -0.997146 
-0.00714633 0.0602782 -0.998226 
-0.0078921 0.0484473 -0.998845 
-0.00815956 0.0382265 -0.999306 
-0.00871245 0.0297702 -0.999579 
-0.00898167 0.0233746 -0.999748 
-0.00922422 0.0181308 -0.999854 
-0.00940824 0.0138289 -0.999921 
-0.00960202 0.0102564 -0.999962 
-0.0096509 0.00701456 -0.99999 
-0.00963536 0.00433353 -1.00001 
-0.00965132 0.00184132 -1.00001 
-0.00962711 -0.000519704 -1.00001 
-0.0096052 -0.00282702 -1.00001 
-0.00951993 -0.0051645 -0.999991 
-0.00927025 -0.0076377 -0.999989 
-0.00896353 -0.0101074 -0.999971 
-0.00850595 -0.0119387 -0.999956 
-0.00783903 -0.012924 -0.999948 
-0.0075215 -0.014246 -0.999934 
-0.00667249 -0.017859 -0.999893 
-0.00573975 -0.0216108 -0.999838 
-0.00513921 -0.0289215 -0.999659 
-0.00444186 -0.0360361 -0.99944 
-0.00359454 -0.0442666 -0.999033 
0.00283506 -0.0440144 0.999047 
0.00403371 -0.0352684 0.999472 
0.00424338 -0.0279317 0.999688 
0.00548949 -0.0215432 0.999829 