# vtk DataFile Version 3.0 
Exported using Morpho https://github.com/Morpho-lang/morpho 
ASCII 
DATASET UNSTRUCTURED_GRID 

POINTS 2054 float 
-8.48528 -2.82843 0 
-8.20636 -2.82843 0 
-7.94054 -2.82843 0 
-7.6904 -2.82843 0 
-7.45357 -2.82843 0 
-7.22694 -2.82843 0 
-7.00705 -2.82843 0 
-6.79111 -2.82843 0 
-6.57731 -2.82843 0 
-6.36453 -2.82843 0 
-6.15219 -2.82843 0 
-5.94 -2.82843 0 
-5.72786 -2.82843 0 
-5.51573 -2.82843 0 
-5.3036 -2.82843 0 
-5.09147 -2.82843 0 
-4.87933 -2.82843 0 
-4.6672 -2.82843 0 
-4.45507 -2.82843 0 
-4.24294 -2.82843 0 
-4.03081 -2.82843 0 
-3.81867 -2.82843 0 
-3.60654 -2.82843 0 
-3.39441 -2.82843 0 
-3.18228 -2.82843 0 
-2.97015 -2.82843 0 
-2.75801 -2.82843 0 
-2.54588 -2.82843 0 
-2.33375 -2.82843 0 
-2.12162 -2.82843 0 
-1.90949 -2.82843 0 
-1.69735 -2.82843 0 
-1.48522 -2.82843 0 
-1.27309 -2.82843 0 
-1.06096 -2.82843 0 
-0.848825 -2.82843 0 
-0.636693 -2.82843 0 
-0.424561 -2.82843 0 
-0.212429 -2.82843 0 
-0.000296761 -2.82843 0 
0.211835 -2.82843 0 
0.423967 -2.82843 0 
0.636099 -2.82843 0 
0.848231 -2.82843 0 
1.06036 -2.82843 0 
1.2725 -2.82843 0 
1.48463 -2.82843 0 
1.69676 -2.82843 0 
1.90889 -2.82843 0 
2.12102 -2.82843 0 
2.33316 -2.82843 0 
2.54529 -2.82843 0 
2.75742 -2.82843 0 
2.96955 -2.82843 0 
3.18168 -2.82843 0 
3.39382 -2.82843 0 
3.60595 -2.82843 0 
3.81808 -2.82843 0 
4.03021 -2.82843 0 
4.24234 -2.82843 0 
4.45448 -2.82843 0 
4.66661 -2.82843 0 
4.87874 -2.82843 0 
5.09087 -2.82843 0 
5.303 -2.82843 0 
5.51514 -2.82843 0 
5.72727 -2.82843 0 
5.93941 -2.82843 0 
6.15159 -2.82843 0 
6.36393 -2.82843 0 
6.57672 -2.82843 0 
6.79055 -2.82843 0 
7.00652 -2.82843 0 
7.22647 -2.82843 0 
7.45313 -2.82843 0 
7.69005 -2.82843 0 
7.9403 -2.82843 0 
8.20621 -2.82843 0 
8.48528 -2.82843 0 
-8.48528 -2.5495 0 
-8.30526 -2.64845 0 
-8.07062 -2.59995 0 
-7.83904 -2.59637 0 
-7.59595 -2.59733 0 
-7.36578 -2.59177 0 
-7.13796 -2.5933 0 
-6.90908 -2.59428 0 
-6.68421 -2.5916 0 
-6.46568 -2.58832 0 
-6.24926 -2.58859 0 
-6.03358 -2.58941 0 
-5.81848 -2.59013 0 
-5.60402 -2.59075 0 
-5.39005 -2.59135 0 
-5.17642 -2.59186 0 
-4.96311 -2.59223 0 
-4.75009 -2.59242 0 
-4.53736 -2.59244 0 
-4.32497 -2.59236 0 
-4.1128 -2.59242 0 
-3.90059 -2.59259 0 
-3.68835 -2.5926 0 
-3.47627 -2.59248 0 
-3.26428 -2.59251 0 
-3.05216 -2.59271 0 
-2.83986 -2.59283 0 
-2.62755 -2.59274 0 
-2.41539 -2.59253 0 
-2.20336 -2.59238 0 
-1.99135 -2.59238 0 
-1.77924 -2.59246 0 
-1.56704 -2.59244 0 
-1.35495 -2.59215 0 
-1.14319 -2.59183 0 
-0.931581 -2.59195 0 
-0.719663 -2.59256 0 
-0.507197 -2.59324 0 
-0.294425 -2.59354 0 
-0.0817689 -2.59344 0 
0.130587 -2.59325 0 
0.342804 -2.59322 0 
0.555051 -2.59322 0 
0.767233 -2.59303 0 
0.97919 -2.59278 0 
1.19107 -2.59278 0 
1.40311 -2.59289 0 
1.61524 -2.59286 0 
1.82732 -2.59279 0 
2.03943 -2.59281 0 
2.25163 -2.5928 0 
2.46381 -2.59266 0 
2.67591 -2.59254 0 
2.88801 -2.59237 0 
3.10001 -2.59226 0 
3.31203 -2.59216 0 
3.52402 -2.59207 0 
3.73601 -2.59208 0 
3.94815 -2.59221 0 
4.16052 -2.5923 0 
4.37309 -2.59232 0 
4.58593 -2.59227 0 
4.79921 -2.5922 0 
5.01319 -2.59212 0 
5.22833 -2.5921 0 
5.44534 -2.59239 0 
5.6657 -2.59346 0 
5.89185 -2.59569 0 
6.12685 -2.59429 0 
6.36853 -2.59189 0 
6.6108 -2.57787 0 
6.84491 -2.61411 0 
7.08804 -2.58476 0 
7.34858 -2.60369 0 
7.58803 -2.59327 0 
7.83059 -2.59326 0 
8.06387 -2.59199 0 
8.30038 -2.64348 0 
8.48528 -2.54936 0 
-8.48528 -2.28369 0 
-8.25701 -2.4138 0 
-8.01078 -2.35334 0 
-7.73666 -2.37963 0 
-7.49744 -2.35565 0 
-7.26898 -2.35831 0 
-7.03324 -2.36676 0 
-6.7997 -2.36275 0 
-6.5773 -2.35166 0 
-6.35808 -2.3495 0 
-6.14038 -2.35058 0 
-5.92336 -2.35185 0 
-5.70723 -2.35272 0 
-5.49199 -2.35362 0 
-5.27734 -2.35447 0 
-5.0632 -2.35505 0 
-4.84958 -2.35534 0 
-4.63641 -2.35533 0 
-4.42363 -2.35504 0 
-4.21126 -2.35485 0 
-3.99909 -2.35513 0 
-3.78684 -2.3554 0 
-3.57461 -2.35516 0 
-3.36263 -2.35498 0 
-3.15066 -2.35537 0 
-2.93843 -2.35586 0 
-2.72604 -2.35589 0 
-2.51374 -2.35551 0 
-2.30162 -2.35509 0 
-2.08964 -2.35496 0 
-1.87761 -2.35518 0 
-1.66544 -2.3554 0 
-1.45322 -2.35518 0 
-1.2412 -2.35438 0 
-1.02967 -2.35407 0 
-0.818162 -2.35505 0 
-0.606054 -2.35676 0 
-0.393243 -2.3579 0 
-0.180256 -2.35789 0 
0.0323765 -2.35727 0 
0.244686 -2.35692 0 
0.456926 -2.35692 0 
0.669206 -2.35667 0 
0.881318 -2.35598 0 
1.09315 -2.35559 0 
1.305 -2.35583 0 
1.51709 -2.35595 0 
1.72919 -2.35571 0 
1.9412 -2.35566 0 
2.15334 -2.3558 0 
2.36559 -2.3556 0 
2.57772 -2.35522 0 
2.78976 -2.35507 0 
3.0019 -2.35461 0 
3.21373 -2.35451 0 
3.42571 -2.35439 0 
3.63769 -2.35431 0 
3.84965 -2.35453 0 
4.06183 -2.35491 0 
4.27435 -2.35507 0 
4.48707 -2.35507 0 
4.70017 -2.35506 0 
4.91376 -2.35498 0 
5.12819 -2.35502 0 
5.34378 -2.35528 0 
5.56106 -2.35662 0 
5.78097 -2.35971 0 
6.00401 -2.36251 0 
6.2308 -2.3624 0 
6.45748 -2.35551 0 
6.68075 -2.33423 0 
6.88797 -2.39744 0 
7.05313 -2.27289 0 
7.24377 -2.40237 0 
7.48542 -2.36016 0 
7.73055 -2.36599 0 
7.99177 -2.33552 0 
8.24864 -2.40698 0 
8.48528 -2.28345 0 
-8.48528 -2.03355 0 
-8.25312 -2.18214 0 
-8.03669 -2.07913 0 
-7.83956 -2.18231 0 
-7.6106 -2.12852 0 
-7.38852 -2.10959 0 
-7.16268 -2.14097 0 
-6.9229 -2.1435 0 
-6.70119 -2.12055 0 
-6.48111 -2.11285 0 
-6.26282 -2.11284 0 
-6.045 -2.1151 0 
-5.82775 -2.11658 0 
-5.61153 -2.11776 0 
-5.3962 -2.1192 0 
-5.18144 -2.1203 0 
-4.96732 -2.12084 0 
-4.75387 -2.12105 0 
-4.54086 -2.12091 0 
-4.32822 -2.12045 0 
-4.11596 -2.12045 0 
-3.90382 -2.12107 0 
-3.69156 -2.12116 0 
-3.47938 -2.12058 0 
-3.26746 -2.12068 0 
-3.05542 -2.12154 0 
-2.84307 -2.12198 0 
-2.63064 -2.12162 0 
-2.41836 -2.12087 0 
-2.20626 -2.12031 0 
-1.99426 -2.12034 0 
-1.78217 -2.1207 0 
-1.56989 -2.12074 0 
-1.35755 -2.11993 0 
-1.14542 -2.11838 0 
-0.934012 -2.11859 0 
-0.722404 -2.12089 0 
-0.509943 -2.12344 0 
-0.296911 -2.12431 0 
-0.0840921 -2.12359 0 
0.128295 -2.12281 0 
0.340414 -2.12274 0 
0.552564 -2.12288 0 
0.76478 -2.12226 0 
0.976792 -2.1213 0 
1.18855 -2.12128 0 
1.40042 -2.12188 0 
1.61256 -2.12177 0 
1.82458 -2.12141 0 
2.03655 -2.12164 0 
2.24875 -2.12174 0 
2.46099 -2.12114 0 
2.67302 -2.12065 0 
2.88504 -2.12054 0 
3.09728 -2.1194 0 
3.30873 -2.11968 0 
3.52086 -2.1195 0 
3.7329 -2.11938 0 
3.94484 -2.11986 0 
4.15715 -2.12044 0 
4.36983 -2.12035 0 
4.58282 -2.1204 0 
4.79606 -2.12017 0 
5.01004 -2.12012 0 
5.22483 -2.12002 0 
5.44073 -2.12051 0 
5.6582 -2.123 0 
5.8782 -2.12696 0 
6.10217 -2.12971 0 
6.33095 -2.12707 0 
6.567 -2.11601 0 
6.82301 -2.12303 0 
7.06572 -2.04567 0 
7.29733 -2.17484 0 
7.54632 -2.11408 0 
7.79371 -2.13741 0 
8.02274 -2.07453 0 
8.25027 -2.1738 0 
8.48528 -2.0332 0 
-8.48528 -1.79671 0 
-8.25436 -1.93882 0 
-8.01299 -1.83977 0 
-7.78596 -1.953 0 
-7.5297 -1.87194 0 
-7.2756 -1.88722 0 
-7.05707 -1.93544 0 
-6.84369 -1.89677 0 
-6.62219 -1.88079 0 
-6.40169 -1.87606 0 
-6.18206 -1.87854 0 
-5.96274 -1.881 0 
-5.74458 -1.88208 0 
-5.52796 -1.88344 0 
-5.31232 -1.88506 0 
-5.09736 -1.88569 0 
-4.88338 -1.88564 0 
-4.67019 -1.88555 0 
-4.45737 -1.88507 0 
-4.24485 -1.88447 0 
-4.03271 -1.88482 0 
-3.82061 -1.88562 0 
-3.60832 -1.88529 0 
-3.39617 -1.88464 0 
-3.18427 -1.88547 0 
-2.97209 -1.88672 0 
-2.7596 -1.88684 0 
-2.54714 -1.88601 0 
-2.33483 -1.88505 0 
-2.12268 -1.8846 0 
-1.91058 -1.885 0 
-1.69824 -1.88561 0 
-1.48561 -1.88547 0 
-1.27286 -1.88413 0 
-1.06032 -1.88216 0 
-0.848858 -1.8839 0 
-0.636875 -1.88781 0 
-0.424169 -1.89034 0 
-0.211518 -1.89004 0 
0.000731944 -1.88866 0 
0.21257 -1.88788 0 
0.424308 -1.88807 0 
0.636257 -1.88793 0 
0.848362 -1.88664 0 
1.06025 -1.88556 0 
1.27191 -1.88605 0 
1.48381 -1.88664 0 
1.69595 -1.886 0 
1.90782 -1.88577 0 
2.11974 -1.88637 0 
2.33202 -1.88609 0 
2.54419 -1.88502 0 
2.75607 -1.88472 0 
2.96812 -1.88462 0 
3.18055 -1.88217 0 
3.39117 -1.88415 0 
3.60398 -1.8838 0 
3.81618 -1.88366 0 
4.02827 -1.88469 0 
4.24071 -1.88523 0 
4.4544 -1.88509 0 
4.66716 -1.88476 0 
4.88099 -1.88493 0 
5.09545 -1.88466 0 
5.31057 -1.88453 0 
5.52653 -1.88564 0 
5.7436 -1.88981 0 
5.96352 -1.89563 0 
6.18733 -1.89813 0 
6.41543 -1.89522 0 
6.65059 -1.89622 0 
6.87542 -1.86913 0 
7.11122 -1.81621 0 
7.31223 -1.94975 0 
7.53264 -1.87683 0 
7.77077 -1.89068 0 
8.01717 -1.8297 0 
8.25014 -1.93148 0 
8.48528 -1.79628 0 
-8.48528 -1.57009 0 
-8.24868 -1.70836 0 
-8.015 -1.61096 0 
-7.76734 -1.73071 0 
-7.54593 -1.61782 0 
-7.32306 -1.66278 0 
-7.05152 -1.7082 0 
-6.79786 -1.66675 0 
-6.56099 -1.64764 0 
-6.33267 -1.64541 0 
-6.10856 -1.64921 0 
-5.88638 -1.65073 0 
-5.66697 -1.65153 0 
-5.44986 -1.65353 0 
-5.23379 -1.65525 0 
-5.01882 -1.6551 0 
-4.80519 -1.6548 0 
-4.59235 -1.65478 0 
-4.37976 -1.65422 0 
-4.16737 -1.65386 0 
-3.95537 -1.65471 0 
-3.74326 -1.6554 0 
-3.5309 -1.65455 0 
-3.31876 -1.65426 0 
-3.10682 -1.65593 0 
-2.89443 -1.65705 0 
-2.68177 -1.65644 0 
-2.46924 -1.65516 0 
-2.25682 -1.65408 0 
-2.04447 -1.65386 0 
-1.83202 -1.65455 0 
-1.61911 -1.65506 0 
-1.40572 -1.65429 0 
-1.19212 -1.65207 0 
-0.97885 -1.64982 0 
-0.767325 -1.65372 0 
-0.555434 -1.6581 0 
-0.343588 -1.65935 0 
-0.132061 -1.65818 0 
0.0792288 -1.65687 0 
0.290417 -1.65682 0 
0.501823 -1.6575 0 
0.713729 -1.65709 0 
0.925861 -1.65545 0 
1.13768 -1.65488 0 
1.34929 -1.65604 0 
1.56128 -1.6563 0 
1.77337 -1.65516 0 
1.985 -1.65561 0 
2.19698 -1.65642 0 
2.40939 -1.65525 0 
2.62143 -1.65394 0 
2.83323 -1.65414 0 
3.04553 -1.65355 0 
3.25842 -1.64868 0 
3.46746 -1.65522 0 
3.68272 -1.65284 0 
3.89574 -1.65288 0 
4.10731 -1.65378 0 
4.32287 -1.65565 0 
4.53627 -1.65249 0 
4.74932 -1.65397 0 
4.96428 -1.65355 0 
5.17935 -1.65257 0 
5.3944 -1.65202 0 
5.60927 -1.65354 0 
5.82513 -1.66019 0 
6.04295 -1.66711 0 
6.26383 -1.66843 0 
6.48537 -1.66776 0 
6.70098 -1.65646 0 
6.91299 -1.6206 0 
7.11709 -1.6046 0 
7.3526 -1.69716 0 
7.60698 -1.65764 0 
7.8325 -1.64214 0 
8.05985 -1.58842 0 
8.2608 -1.69223 0 
8.48528 -1.56961 0 
-8.48528 -1.35019 0 
-8.24958 -1.48044 0 
-8.0219 -1.3751 0 
-7.79713 -1.50391 0 
-7.58956 -1.39834 0 
-7.36199 -1.38754 0 
-7.16079 -1.49923 0 
-6.93764 -1.46284 0 
[...]
POINT_DATA 2054 
VECTORS vectors float
0.0852032 -0.125774 0.989792 
0.0985263 -0.0900366 0.994013 
0.109943 -0.0648543 0.995182 
0.118727 -0.0477118 0.995088 
0.125306 -0.0358271 0.994623 
0.130113 -0.0273111 0.994182 
0.133695 -0.0209643 0.993778 
0.136409 -0.0160886 0.993442 
0.138483 -0.0122528 0.993181 
0.140041 -0.00916726 0.992981 
0.141193 -0.00663232 0.992814 
0.142004 -0.00449772 0.992687 
0.142522 -0.0026228 0.992601 
0.142763 -0.000898273 0.992556 
0.142743 0.00079164 0.992549 
0.142472 0.00254059 0.992579 
0.14193 0.00446094 0.992649 
0.141093 0.00665723 0.99276 
0.139916 0.00925858 0.992914 
0.138359 0.0124186 0.99311 
0.136343 0.0162841 0.993348 
0.133726 0.021072 0.993633 
0.130356 0.0270903 0.993958 
0.126044 0.0347202 0.994304 
0.120532 0.0444559 0.994627 
0.113486 0.0569589 0.994844 
0.104493 0.0731143 0.994791 
0.0930381 0.0941185 0.994162 
0.0785214 0.121609 0.992392 
0.0603557 0.157791 0.988454 
0.0381902 0.205494 0.980548 
0.0123188 0.267973 0.965666 
-0.0157737 0.348161 0.939171 
-0.0430141 0.447221 0.894702 
-0.064944 0.562615 0.824874 
-0.076825 0.686691 0.723003 
-0.0753241 0.806882 0.585462 
-0.0599117 0.907976 0.413648 
-0.0331895 0.975579 0.214689 
-0.000172215 0.999463 0.000670208 
0.032887 0.975906 -0.213414 
0.0597212 0.908554 -0.412549 
0.0752751 0.807589 -0.584599 
0.0768957 0.687404 -0.722385 
0.0650776 0.56325 -0.824466 
0.0431512 0.44774 -0.894453 
0.0158883 0.348585 -0.93902 
-0.012225 0.268324 -0.965574 
-0.0381109 0.20579 -0.98049 
-0.0602891 0.158038 -0.988417 
-0.0784652 0.121813 -0.99237 
-0.0929882 0.0942863 -0.994152 
-0.104448 0.0732493 -0.994789 
-0.113445 0.0570647 -0.994847 
-0.120496 0.0445375 -0.994632 
-0.126015 0.0347818 -0.99431 
-0.130333 0.0271359 -0.993965 
-0.13371 0.0211087 -0.993639 
-0.136328 0.0163154 -0.993354 
-0.138348 0.0124432 -0.993115 
-0.13991 0.00928177 -0.992919 
-0.14109 0.00668378 -0.992766 
-0.141928 0.00449211 -0.992658 
-0.142464 0.0025803 -0.992592 
-0.142719 0.000830115 -0.992567 
-0.142716 -0.000878108 -0.992582 
-0.142455 -0.00265649 -0.992636 
-0.141975 -0.00462297 -0.992744 
-0.141374 -0.00680269 -0.992841 
-0.140622 -0.00913288 -0.992053 
-0.138659 -0.0119709 -0.993379 
-0.136424 -0.0158677 -0.99339 
-0.133595 -0.0207768 -0.993847 
-0.129947 -0.0272645 -0.994372 
-0.125231 -0.0357848 -0.994648 
-0.118701 -0.0476741 -0.99516 
-0.109909 -0.0648472 -0.995294 
-0.0985265 -0.0900858 -0.994116 
-0.085274 -0.125833 -0.989838 
0.0582447 -0.138406 0.991464 
0.0753367 -0.109525 0.996207 
0.0798533 -0.0848948 1.00013 
0.0871027 -0.0646539 1.00128 
0.0939139 -0.0484564 1.00135 
0.0983362 -0.0369848 1.0013 
0.102411 -0.0281936 1.00105 
0.105582 -0.0213944 1.00078 
0.10759 -0.0162111 1.0006 
0.108926 -0.0121986 1.0005 
0.110226 -0.0089434 1.00035 
0.111233 -0.00623958 1.00022 
0.111925 -0.00391804 1.00011 
0.112333 -0.00183195 1.00004 
0.112483 0.000150094 1.00001 
0.112379 0.00214817 0.999997 
0.112008 0.00428246 1.00002 
0.111347 0.00667732 1.00008 
0.110366 0.00946631 1.00016 
0.109034 0.0128045 1.00028 
0.107317 0.016874 1.00041 
0.105112 0.0219069 1.00056 
0.102272 0.0282066 1.00071 
0.0986603 0.0361571 1.00084 
0.094125 0.0462557 1.00088 
0.0884368 0.0591625 1.00074 
0.0812975 0.0757447 1.00024 
0.0723979 0.0971176 0.99907 
0.0614495 0.124711 0.9967 
0.0482235 0.160346 0.992222 
0.0326576 0.206242 0.984131 
0.015052 0.26488 0.970024 
-0.00366571 0.338511 0.946267 
-0.0217542 0.428223 0.907821 
-0.0367998 0.532714 0.848484 
-0.0462705 0.647372 0.761566 
-0.0481412 0.763641 0.641243 
-0.04154 0.868983 0.484889 
-0.0273152 0.948595 0.295795 
-0.0080468 0.989323 0.0843762 
0.0126549 0.98398 -0.133522 
0.0310043 0.933688 -0.340653 
0.0436742 0.847262 -0.522649 
0.048434 0.738337 -0.670933 
0.0447531 0.621382 -0.783552 
0.0337951 0.508248 -0.863874 
0.0177953 0.406721 -0.918003 
-0.000631667 0.320644 -0.952642 
-0.0192007 0.250576 -0.973842 
-0.0363997 0.194995 -0.986341 
-0.0514535 0.151573 -0.993462 
-0.064127 0.117921 -0.99737 
-0.0745483 0.0918886 -0.999414 
-0.0829897 0.0717194 -1.0004 
-0.0897703 0.0560504 -1.0008 
-0.0951828 0.0438267 -1.0009 
-0.0994835 0.0342501 -1.00083 
-0.102899 0.0267043 -1.0007 
-0.105605 0.0207124 -1.00054 
-0.107721 0.0159082 -1.00039 
-0.109357 0.0120127 -1.00026 
-0.110599 0.00880994 -1.00015 
-0.111506 0.00611957 -1.00008 
-0.112118 0.00378843 -1.00004 
-0.112471 0.0016788 -1.00004 
-0.11261 -0.000344661 -1.00007 
-0.112591 -0.00241988 -1.00013 
-0.112443 -0.00469927 -1.00024 
-0.111559 -0.00736297 -1.0005 
-0.110074 -0.0105698 -1.00148 
-0.106707 -0.0147284 -1.00182 
-0.108712 -0.0194614 -0.999693 
-0.102096 -0.0266028 -1.00206 
-0.0999658 -0.0359477 -1.00118 
-0.0936562 -0.0480491 -1.00157 
-0.0870394 -0.0640779 -1.00154 
-0.0793412 -0.0845215 -1.00048 
-0.0751075 -0.109126 -0.99643 
-0.0583268 -0.138387 -0.991572 
0.0400524 -0.149443 0.99118 
0.0574517 -0.112061 0.998962 
0.0607892 -0.0863017 1.00276 
0.0701124 -0.0624711 1.00289 
0.0731682 -0.0477837 1.00348 
0.0772476 -0.0365572 1.00347 
0.0811821 -0.0275949 1.00331 
0.0832915 -0.0208496 1.0032 
0.0840923 -0.0158221 1.0032 
0.085247 -0.0117639 1.00311 
0.0863381 -0.00842793 1.003 
0.0871482 -0.00561064 1.00291 
0.0876568 -0.00313978 1.00284 
0.0879241 -0.000858421 1.00279 
0.087956 0.00137325 1.00276 
0.0877353 0.00368659 1.00275 
0.0872501 0.0062171 1.00277 
0.0864789 0.00910833 1.00281 
0.0853932 0.0125195 1.00287 
0.0839824 0.0166362 1.00293 
0.0822132 0.0216885 1.00299 
0.0799552 0.0279747 1.00304 
0.0770632 0.0358707 1.00303 
0.0734696 0.0458366 1.00291 
0.069067 0.0584775 1.00259 
0.063641 0.0745956 1.00189 
0.0569762 0.0952029 1.00055 
0.0489329 0.121539 0.998097 
0.0394471 0.155117 0.993782 
0.0285611 0.197734 0.9864 
0.0164979 0.251415 0.97407 
0.00379089 0.318138 0.953951 
-0.00859978 0.399254 0.922004 
-0.0193229 0.494598 0.872954 
-0.0269339 0.601467 0.800655 
-0.0302465 0.714217 0.698596 
-0.0284894 0.823355 0.561458 
-0.0216492 0.915382 0.388164 
-0.0108316 0.975282 0.185136 
0.00192574 0.991686 -0.0332567 
0.0142772 0.961475 -0.248418 
0.0240333 0.890792 -0.443022 
0.0294728 0.792317 -0.605616 
0.0297361 0.680764 -0.732164 
0.0250316 0.568757 -0.824927 
0.0163173 0.464802 -0.889679 
0.00492841 0.373596 -0.933007 
-0.00766555 0.296903 -0.960921 
-0.0202453 0.234262 -0.978364 
-0.0320085 0.184034 -0.988993 
-0.042474 0.144285 -0.995312 
-0.0514644 0.113073 -0.998976 
-0.0590347 0.0886226 -1.00104 
-0.0652786 0.0694779 -1.00216 
-0.0703999 0.0544802 -1.00272 
-0.0745524 0.0426874 -1.00298 
-0.0778975 0.0333871 -1.00305 
-0.0805976 0.0260103 -1.00304 
-0.0827599 0.0201119 -1.00299 
-0.0844466 0.0153519 -1.00292 
-0.0857394 0.0114626 -1.00286 
-0.0867111 0.00822162 -1.00282 
-0.0873953 0.00544962 -1.00279 
-0.0878378 0.00298967 -1.00279 
-0.0880658 0.000696951 -1.00282 
-0.0881634 -0.00156723 -1.00286 
-0.0881814 -0.00394051 -1.00293 
-0.0879043 -0.00657392 -1.00304 
-0.0870344 -0.0096641 -1.00321 
-0.0852025 -0.0134301 -1.00335 
-0.0817933 -0.0181409 -1.00282 
-0.0856436 -0.0227498 -1.00305 
-0.0728929 -0.0292516 -1.00404 
-0.0816292 -0.0348062 -1.00232 
-0.0737509 -0.046955 -1.00365 
-0.0691165 -0.0623048 -1.00344 
-0.0600242 -0.0849158 -1.00344 
-0.0573002 -0.111231 -0.999343 
-0.0400795 -0.149379 -0.991297 
0.0282389 -0.157947 0.99023 
0.0426297 -0.118821 0.999153 
0.0428119 -0.095889 1.00177 
0.0533901 -0.0748424 1.00201 
0.05443 -0.0586626 1.00404 
0.0567346 -0.045728 1.00464 
0.0618131 -0.0348646 1.00437 
0.0645316 -0.0262836 1.00436 
0.0647079 -0.0202105 1.00456 
0.0655481 -0.0152555 1.00456 
0.0665918 -0.0112009 1.00449 
0.0675161 -0.00781302 1.00442 
0.0681352 -0.00490251 1.00435 
0.0685047 -0.00229239 1.0043 
0.0686806 0.000178624 1.00426 
0.0686263 0.00265523 1.00423 
0.0683231 0.00527985 1.00423 
0.0677769 0.00820287 1.00424 
0.0669665 0.0115873 1.00426 
0.065863 0.015618 1.00428 
0.0644781 0.0205124 1.00429 
0.0627624 0.0265442 1.00427 
0.0605625 0.0340692 1.0042 
0.057791 0.0435191 1.00401 
0.0544498 0.0554137 1.00363 
0.0504326 0.0704521 1.00292 
0.0455582 0.0895406 1.00164 
0.0397318 0.113763 0.999422 
0.0329508 0.144399 0.995662 
0.025284 0.182959 0.989418 
0.0168947 0.231142 0.979243 
0.00808117 0.290754 0.962942 
-0.000640436 0.363366 0.937309 
-0.00851329 0.449677 0.897951 
-0.0146527 0.548672 0.839311 
-0.0183231 0.656533 0.755255 
-0.0190116 0.766751 0.639294 
-0.0164343 0.868562 0.486928 
-0.0108616 0.947305 0.299562 
-0.00330914 0.988454 0.0873915 
0.00479258 0.983606 -0.132219 
0.0119971 0.93403 -0.339778 
0.0170488 0.849771 -0.519939 
0.0190672 0.745269 -0.664927 
0.0177937 0.634532 -0.774367 
0.0135599 0.527903 -0.852903 
0.00698789 0.431422 -0.907106 
-0.00112234 0.347928 -0.943291 
-0.00989906 0.27806 -0.96675 
-0.0186661 0.220834 -0.981632 
-0.0269415 0.174645 -0.990899 
-0.0343934 0.137802 -0.996559 
-0.0409112 0.108608 -0.999953 
-0.0465085 0.0855261 -1.00195 
-0.0511619 0.0673097 -1.00311 
-0.0550835 0.0529471 -1.00373 
-0.0582898 0.0415595 -1.00407 
-0.0608993 0.032526 -1.00423 
-0.0630414 0.0253155 -1.00429 
-0.0647657 0.0195104 -1.00429 
-0.0660826 0.0147948 -1.00429 
-0.0671041 0.0109014 -1.00427 
-0.0678393 0.00761793 -1.00426 
-0.068352 0.00475833 -1.00426 
-0.0686432 0.0021646 -1.00428 
-0.0687703 -0.000316419 -1.00431 
-0.0688349 -0.00282618 -1.00436 
-0.0687836 -0.00551633 -1.00442 
-0.0683914 -0.00858634 -1.00452 
-0.0673142 -0.0122921 -1.00467 
-0.0652718 -0.0170055 -1.00482 
-0.0638733 -0.0233915 -1.00572 
-0.0564627 -0.0320308 -1.00506 
-0.0624587 -0.0402588 -1.00444 
-0.0545346 -0.0546023 -1.0054 
-0.0515337 -0.0719405 -1.00313 
-0.0428715 -0.0944708 -1.00238 
-0.0422553 -0.11866 -0.999403 
-0.0282388 -0.157883 -0.990304 
0.020434 -0.164302 0.989241 
0.0310321 -0.125455 0.998535 
0.0321909 -0.0981662 1.00195 
0.0414776 -0.0745949 1.0036 
0.0413117 -0.0570327 1.00588 
0.0451873 -0.0426252 1.00528 
0.0500671 -0.0327541 1.00417 
0.0495945 -0.0257209 1.00521 
0.0501075 -0.0196609 1.00536 
0.0509264 -0.0147113 1.00535 
0.051881 -0.0106179 1.0053 
0.0526026 -0.00716375 1.00524 
0.0530325 -0.00415444 1.00519 
0.0532839 -0.00140366 1.00514 
0.0533684 0.00125522 1.0051 
0.0532152 0.00397519 1.00508 
0.0528376 0.00690994 1.00508 
0.0522623 0.0102235 1.00507 
0.0514501 0.0140985 1.00506 
0.0503874 0.0187453 1.00505 
0.0490959 0.0244083 1.005 
0.0474973 0.0314019 1.0049 
0.0454492 0.040132 1.0047 
0.0429417 0.0510671 1.00434 
0.0400051 0.0647747 1.00368 
0.0365136 0.0820432 1.00257 
0.0323496 0.103841 1.0007 
0.0275207 0.131274 0.997603 
0.0220991 0.165636 0.992547 
0.0162029 0.208404 0.984424 
0.0100157 0.261192 0.971558 
0.00380708 0.325664 0.951446 
-0.00200998 0.403072 0.920518 
-0.00690574 0.493599 0.873988 
-0.0103511 0.595466 0.805977 
-0.0120286 0.703661 0.710453 
-0.0116995 0.810751 0.580989 
-0.00927783 0.904344 0.41474 
-0.00514248 0.969103 0.21647 
-9.94605e-05 0.99226 -0.000523528 
0.00491564 0.968981 -0.217048 
0.00902837 0.904485 -0.414424 
0.0115161 0.811302 -0.580185 
0.011946 0.704175 -0.709911 
0.0103033 0.595729 -0.805753 
0.00686045 0.494253 -0.87358 
0.00199351 0.403992 -0.920081 
-0.00379425 0.326628 -0.951092 
-0.00997911 0.262108 -0.971292 
-0.0161793 0.209161 -0.984249 
-0.0220698 0.16624 -0.99244 
-0.0274248 0.131825 -0.997532 
-0.0321945 0.104373 -1.00066 
-0.0363507 0.0825094 -1.00256 
-0.0397912 0.0651483 -1.0037 
-0.0428487 0.0514002 -1.00432 
-0.0453179 0.0403837 -1.00471 
-0.0473459 0.031613 -1.00491 
-0.0490521 0.0245676 -1.00501 
-0.0504022 0.0188648 -1.00506 
-0.0514361 0.0141798 -1.00509 
-0.052205 0.0102963 -1.00509 
-0.0527879 0.00696419 -1.0051 
-0.0531473 0.00401657 -1.00512 
-0.0533282 0.00128671 -1.00515 
-0.0534001 -0.00138212 -1.00518 
-0.0534647 -0.00413265 -1.00521 
-0.0534235 -0.00714333 -1.00525 
-0.0529575 -0.0106415 -1.00533 
-0.051905 -0.0148951 -1.0054 
-0.0507186 -0.0202655 -1.00554 
-0.0477105 -0.0268906 -1.00561 
-0.0430832 -0.0358797 -1.00523 
-0.0480526 -0.0437334 -1.00503 
-0.0414801 -0.0571509 -1.00402 
-0.0385701 -0.0742766 -1.00488 
-0.0316135 -0.0987669 -1.00208 
-0.0307998 -0.125005 -0.998772 
-0.0204155 -0.164156 -0.989277 
0.0150766 -0.168875 0.988487 
0.0230829 -0.12949 0.998131 
0.0240594 -0.102053 1.00163 
0.0318496 -0.0763972 1.00387 
0.0302582 -0.0610618 1.0049 
0.034261 -0.0472142 1.00558 
0.0385863 -0.0343105 1.00637 
0.0384356 -0.0256827 1.00599 
0.0387761 -0.0192213 1.00595 
0.0395476 -0.0141181 1.00585 
0.0403565 -0.00995071 1.00578 
0.0408636 -0.00642765 1.00573 
0.0411559 -0.00332617 1.00567 
0.0413396 -0.000444951 1.00561 
0.041356 0.00239313 1.00558 
0.0411295 0.00535007 1.00556 
0.0407355 0.00858887 1.00554 
0.0401837 0.0122852 1.00552 
0.0394181 0.016643 1.00549 
0.0384471 0.0218963 1.00543 
0.0372849 0.0283117 1.00533 
0.0358323 0.0362455 1.00515 
0.0339919 0.0461427 1.00483 
0.0318171 0.0584946 1.00427 
0.0293209 0.0739212 1.00335 
0.0263683 0.0932947 1.00183 
0.0229201 0.117613 0.999361 
0.0190489 0.147984 0.99537 
0.0148433 0.185728 0.989006 
0.0104245 0.232311 0.978984 
0.00595151 0.289313 0.963378 
0.00164089 0.358302 0.93934 
-0.00219904 0.440257 0.902872 
-0.0052164 0.534825 0.848731 
-0.00711552 0.63929 0.770747 
-0.0077961 0.74715 0.663291 
-0.00711493 0.849785 0.52055 
-0.0051206 0.933386 0.342339 
-0.002192 0.983244 0.136333 
0.00110466 0.989085 -0.0818149 
0.00417311 0.949712 -0.292342 
0.00647653 0.873498 -0.478332 
0.00759299 0.774294 -0.630359 
0.00732377 0.666383 -0.746706 
0.00573555 0.560855 -0.831225 
0.00301381 0.464219 -0.890417 
-0.00060649 0.379364 -0.930796 
-0.00478912 0.307208 -0.957682 
-0.00922473 0.247226 -0.975242 
-0.0136847 0.197929 -0.986602 
-0.0179241 0.157876 -0.993852 
-0.0218142 0.125662 -0.998405 
-0.0253407 0.0998328 -1.00124 
-0.0284242 0.0791464 -1.00301 
-0.0309237 0.0626398 -1.0041 
-0.0334069 0.04956 -1.00467 
-0.0352399 0.0388955 -1.00511 
-0.036818 0.0304108 -1.00531 
-0.0381273 0.0236028 -1.00545 
-0.0392504 0.0179641 -1.00551 
-0.0399045 0.013385 -1.00556 
-0.0405689 0.00952245 -1.00557 
-0.0409719 0.00615688 -1.00561 
-0.0411836 0.0031327 -1.00563 
-0.0412578 0.000279223 -1.00565 
-0.0412727 -0.00255883 -1.00567 
-0.041367 -0.00553704 -1.00567 
-0.0412968 -0.00884067 -1.00568 
-0.040763 -0.0127116 -1.00571 
-0.0399151 -0.0173499 -1.00574 
-0.0383877 -0.0228993 -1.00573 
-0.0356179 -0.0297871 -1.00554 
-0.0336036 -0.0378231 -1.00432 
-0.0353303 -0.0484313 -1.00579 
-0.0310236 -0.0647985 -1.00456 
-0.0275863 -0.0833056 -1.00334 
-0.0226281 -0.107554 -1.00019 
-0.0222838 -0.131441 -0.99788 
-0.0150003 -0.168601 -0.988694 
0.0112077 -0.172206 0.987887 
0.0171061 -0.13331 0.99763 
0.0176561 -0.105819 1.00124 
0.0236536 -0.0818019 1.00328 
0.0226655 -0.0662508 1.00355 
0.0241757 -0.0516389 1.0061 
0.0293642 -0.0405044 1.00487 
0.0294542 -0.0315474 1.00598 
0.0293299 -0.024162 1.00617 
0.0297685 -0.0181184 1.00615 
0.0304938 -0.0131991 1.00607 
0.0311323 -0.00909818 1.00602 
0.0314294 -0.00556497 1.00598 
0.0316161 -0.00241036 1.00591 
0.0317436 0.000579724 1.00586 
0.0316641 0.00357969 1.00583 
0.0313836 0.00676561 1.00581 
0.0310008 0.0102976 1.00578 
0.0304908 0.0143623 1.00574 
0.0298036 0.0191972 1.00569 
0.0289472 0.0250454 1.0056 
0.0279347 0.0321956 1.00544 
0.0266583 0.041044 1.00518 
0.0250796 0.0520657 1.00473 
0.0232783 0.065766 1.00398 
0.0212277 0.0828262 1.00278 
0.0188132 0.104186 1.00085 
0.0160619 0.130852 0.997763 
0.013066 0.163949 0.99286 
0.00990562 0.204827 0.98516 
0.00668354 0.254961 0.973189 
0.00352231 0.315906 0.954757 
0.000583243 0.389108 0.926657 
-0.00191532 0.475196 0.884477 
-0.00375184 0.573112 0.822643 
-0.00478091 0.678969 0.735046 
-0.00499123 0.784844 0.616953 
-0.00428746 0.881432 0.463362 
-0.00278655 0.95455 0.276059 
-0.000780769 0.990419 0.0647739 
0.00134604 0.980982 -0.152883 
0.0032044 0.928177 -0.356896 
0.00445456 0.842833 -0.532215 
0.00485033 0.739524 -0.672126 
0.00431903 0.631878 -0.777059 
0.00294388 0.529506 -0.852153 
0.000840695 0.437335 -0.904299 
-0.00183258 0.357238 -0.939717 
-0.00485096 0.289583 -0.963249 
-0.0080444 0.23351 -0.978645 
-0.0112551 0.18735 -0.988678 
-0.0142983 0.149785 -0.995121 
-0.0171287 0.119537 -0.999184 
-0.0197357 0.0951794 -1.00176 
-0.0219957 0.075547 -1.00341 
-0.023756 0.0597924 -1.00445 
-0.0259492 0.0474316 -1.00487 
-0.0272146 0.036903 -1.00536 
-0.0282764 0.0289551 -1.00563 
-0.0295798 0.0221426 -1.00571 
-0.0301301 0.0167772 -1.00581 
-0.0306484 0.0122965 -1.00585 
-0.0312294 0.00849474 -1.00586 
-0.0314469 0.00509464 -1.00592 
-0.0315184 0.00200287 -1.00592 
-0.0314819 -0.000950394 -1.00595 
-0.0315475 -0.00397204 -1.00594 
-0.0316409 -0.00716971 -1.0059 
-0.0315764 -0.0107725 -1.00582 
-0.03097 -0.0150208 -1.00588 
-0.0299789 -0.0201171 -1.00596 
-0.028349 -0.0265877 -1.00602 
-0.0258589 -0.0353588 -1.00636 
-0.0274053 -0.0453334 -1.00421 
-0.0254594 -0.0577211 -1.00483 
-0.0219114 -0.0748553 -1.00411 
-0.0191401 -0.0957839 -1.00233 
-0.0160205 -0.132758 -0.998629 
-0.0109296 -0.17204 -0.987965 
0.00830005 -0.174659 0.987429 
0.012572 -0.136296 0.997183 
0.0129124 -0.10773 1.001 
0.0173686 -0.0840655 1.00314 
0.0174082 -0.0647421 1.00457 
0.0175977 -0.0503427 1.0057 
0.0222664 -0.0398808 1.00597 
0.0219946 -0.0305594 1.00635 
0.0221397 -0.0230537 1.00634 
0.0226104 -0.0170935 1.00627 
0.0232823 -0.0122565 1.00618 
0.0237553 -0.00817927 1.00613 
0.0238517 -0.00464976 1.00609 
0.0240201 -0.00145852 1.006 
0.0240814 0.00160921 1.00596 
0.0239537 0.00476199 1.00595 
0.0236706 0.00816372 1.00591 
0.0233325 0.0119523 1.00588 
0.0229116 0.0163767 1.00584 
0.0223099 0.0216713 1.00576 
0.0215866 0.0280853 1.00563 
0.0207269 0.0359304 1.00542 
0.019641 0.0456451 1.00507 
0.0183429 0.0577029 1.00449 
0.0169037 0.0726335 1.00356 
0.0152591 0.0911954 1.00209 
0.0133365 0.11437 0.999753 
0.0112065 0.143115 0.996055 
0.0089537 0.178549 0.990274 
0.00664017 0.222017 0.981316 
0.00434501 0.274895 0.967574 
0.00215451 0.33857 0.946712 
0.000179406 0.41425 0.915356 
-0.00143822 0.502069 0.869048 
-0.002577 0.600605 0.802189 
-0.00317758 0.705804 0.708545 
-0.00322392 0.809827 0.582745 
-0.00264267 0.902506 0.419471 
-0.00155139 0.96806 0.222392 
-0.000171281 0.992505 0.00437591 
0.00121742 0.969888 -0.214094 
0.00234606 0.905557 -0.412683 
0.00299652 0.812773 -0.578532 
0.00303199 0.706639 -0.707715 
0.002449 0.600059 -0.802642 
0.00131889 0.501006 -0.8697 
-0.000290562 0.412914 -0.916001 
-0.00226263 0.336993 -0.947323 
-0.00445024 0.273312 -0.968053 
-0.00676804 0.220663 -0.981638 
-0.00908952 0.177118 -0.990568 
-0.0112744 0.141696 -0.996297 
-0.0133469 0.113261 -0.999904 
-0.0152843 0.0901589 -1.00225 
-0.0169283 0.071283 -1.00382 
-0.0180916 0.0560486 -1.00521 
-0.0204558 0.0444042 -1.00434 
-0.0204454 0.0347322 -1.00613 
-0.0220929 0.0264777 -1.00569 
-0.0224771 0.0202903 -1.00588 
-0.022935 0.0151388 -1.00597 
-0.0232701 0.0108275 -1.00601 
-0.0238849 0.00713035 -1.00598 
-0.0238577 0.00363553 -1.00608 
-0.0236706 0.000529856 -1.00614 
-0.0237589 -0.00258949 -1.00609 
-0.0237089 -0.00579326 -1.00604 
-0.0238042 -0.0091611 -1.0059 
-0.0236828 -0.0128336 -1.00518 
-0.022979 -0.0171715 -1.00592 
-0.0221906 -0.0226036 -1.00601 
-0.0209154 -0.0297142 -1.00601 
-0.0189767 -0.0390531 -1.00561 
-0.0211289 -0.0480538 -1.00515 
-0.0184076 -0.0635344 -1.00487 
-0.0152214 -0.0837718 -1.00438 
-0.0140763 -0.111283 -1.00064 
-0.0110994 -0.140096 -0.995853 
-0.00795796 -0.174679 -0.987364 
0.00602982 -0.176457 0.987097 
0.0091443 -0.138095 0.996908 
0.00933379 -0.108417 1.00094 
0.0129107 -0.0840802 1.00324 
0.0127698 -0.0658068 1.00449 
0.0126398 -0.0518466 1.00529 
0.0162806 -0.0384615 1.00684 
0.0162037 -0.0288168 1.00647 
0.0163507 -0.0215323 1.00643 
0.0168177 -0.0157782 1.00633 
0.0174353 -0.011055 1.00621 
0.0176337 -0.00709844 1.00618 
0.0176165 -0.00358116 1.00609 
0.0177242 -0.000433191 1.00602 
0.0177722 0.00272469 1.00603 
0.017601 0.0060649 1.006 
0.0172856 0.00964696 1.00598 
0.0170684 0.0137361 1.00594 
0.016697 0.0185637 1.00589 
0.0161888 0.0243561 1.00578 
0.0155992 0.0313664 1.00561 
0.0148955 0.0399621 1.00534 
0.0140097 0.0505815 1.00489 
0.0130015 0.0637075 1.00416 
0.011899 0.0799385 1.00303 