# vtk DataFile Version 3.0 
Exported using Morpho https://github.com/Morpho-lang/morpho 
ASCII 
DATASET UNSTRUCTURED_GRID 

POINTS 1978 float 
-8.48558 -2.82873 -2.71159e-09 
-8.24904 -2.82913 -1.04707e-08 
-8.0115 -2.82839 -6.23431e-09 
-7.77645 -2.82934 2.04475e-09 
-7.48253 -2.82909 -1.62687e-08 
-7.16911 -2.82917 -1.06126e-08 
-6.97415 -2.82884 -2.72665e-09 
-6.73191 -2.82925 -1.6763e-08 
-6.55614 -2.82902 1.02696e-08 
-6.37889 -2.82858 -1.86243e-09 
-6.17124 -2.8291 -4.1249e-08 
-5.96557 -2.82872 -2.47783e-09 
-5.75695 -2.82903 -3.56673e-08 
-5.54908 -2.82901 -3.82808e-08 
-5.32328 -2.82898 -1.58669e-08 
-5.10983 -2.82891 -2.34547e-08 
-4.89937 -2.82907 -2.04322e-08 
-4.68769 -2.82885 -5.35552e-08 
-4.47997 -2.82892 -4.6121e-08 
-4.27175 -2.82903 -5.66205e-08 
-4.06202 -2.82898 -7.73961e-08 
-3.85539 -2.82891 1.97334e-08 
-3.65316 -2.82884 -3.21957e-08 
-3.44379 -2.82892 -4.06331e-08 
-3.23353 -2.82931 -1.40324e-07 
-3.0223 -2.8288 2.92873e-07 
-2.82597 -2.8289 2.83435e-07 
-2.59184 -2.82916 6.73261e-07 
-2.35591 -2.8287 3.21402e-06 
-2.15551 -2.82837 5.93659e-06 
-2.01379 -2.82883 7.17861e-06 
-1.87146 -2.82861 2.11124e-05 
-1.65829 -2.8284 3.84961e-05 
-1.53655 -2.82794 7.07221e-05 
-1.34325 -2.82708 0.000251862 
-1.07741 -2.82524 0.000668904 
-0.916417 -2.82578 0.00110588 
-0.76399 -2.81745 0.00144215 
-0.280511 -2.80412 0.00366123 
0.12377 -2.80329 -0.0030733 
0.710616 -2.8388 -0.0124094 
0.727505 -2.805 0.00928633 
0.907826 -2.82103 -0.000896103 
1.09008 -2.8281 -0.000528963 
1.27141 -2.82778 -0.000131231 
1.36972 -2.82749 -0.000158439 
1.54985 -2.82791 -9.87398e-05 
1.74864 -2.82808 -4.40721e-05 
1.98983 -2.82888 -1.46524e-05 
2.21155 -2.82867 -5.82975e-06 
2.44388 -2.82931 -1.89914e-06 
2.65568 -2.8281 -7.61805e-07 
2.86163 -2.82985 -6.16061e-07 
3.06431 -2.8286 4.58408e-07 
3.27259 -2.82876 -1.84587e-08 
3.45278 -2.82944 -6.52609e-08 
3.63283 -2.82868 1.70947e-07 
3.83303 -2.82892 5.14341e-08 
4.04852 -2.82894 2.48167e-08 
4.25906 -2.82901 -5.8369e-09 
4.4703 -2.82895 1.1193e-07 
4.6788 -2.82903 1.18851e-08 
4.89089 -2.82894 6.76901e-08 
5.09621 -2.82887 9.58735e-09 
5.30283 -2.82895 2.3369e-08 
5.51201 -2.82896 3.15991e-08 
5.72787 -2.82896 3.09418e-08 
5.94202 -2.82897 2.15306e-08 
6.16874 -2.82884 1.54689e-08 
6.38384 -2.82904 7.03563e-09 
6.60831 -2.82894 -2.90168e-10 
6.83439 -2.82899 4.93327e-09 
7.04472 -2.82911 8.32588e-09 
7.30636 -2.82878 6.25577e-09 
7.54195 -2.82917 1.42552e-08 
7.76243 -2.82907 -2.01072e-09 
8.03476 -2.82881 1.21859e-08 
8.22806 -2.82933 6.71349e-09 
8.48532 -2.8285 -1.44665e-09 
-8.48589 -2.60365 8.3091e-09 
-8.24399 -2.59894 -2.43143e-10 
-8.01525 -2.58552 7.08588e-09 
-7.78492 -2.59644 -1.66146e-08 
-7.55042 -2.64572 1.35571e-08 
-7.24927 -2.65739 1.53408e-08 
-6.98701 -2.55401 2.83344e-09 
-6.78944 -2.60991 1.65755e-08 
-6.57101 -2.52856 -7.27661e-09 
-6.33778 -2.61186 -2.61849e-09 
-6.08405 -2.57455 7.67215e-09 
-5.87011 -2.58246 1.43968e-08 
-5.65758 -2.58621 5.27792e-08 
-5.43535 -2.60905 3.68061e-08 
-5.20924 -2.59729 1.08369e-08 
-4.99097 -2.59682 -6.26145e-09 
-4.77486 -2.59967 4.41996e-09 
-4.55758 -2.59726 4.34616e-08 
-4.3418 -2.59822 6.97243e-08 
-4.12613 -2.59895 3.79113e-08 
-3.91109 -2.59635 -4.72309e-08 
-3.69852 -2.59042 -5.3573e-08 
-3.4892 -2.59881 7.4767e-08 
-3.2733 -2.60284 2.9136e-08 
-3.05612 -2.60057 -1.41104e-07 
-2.83801 -2.57847 3.46113e-07 
-2.63316 -2.61869 2.6231e-08 
-2.39117 -2.61701 -1.2054e-06 
-2.15513 -2.57771 -4.1124e-06 
-1.95242 -2.47599 -4.08105e-06 
-1.78223 -2.59395 -5.61608e-06 
-1.66325 -2.41439 -3.24858e-05 
-1.49612 -2.56477 -3.24245e-05 
-1.26389 -2.63399 -0.000118182 
-1.12229 -2.51057 -0.000456588 
-0.784119 -2.43844 0.000177408 
-0.862669 -2.59511 0.000253768 
-0.604133 -2.70821 -0.00108608 
-0.361484 -2.62625 0.00119676 
-0.0822019 -2.68355 -0.00045084 
0.246559 -2.67662 -0.000643706 
0.560139 -2.73403 0.0013131 
0.738677 -2.57677 0.00050485 
0.927196 -2.54431 0.000122023 
1.1087 -2.5861 0.000120741 
1.14398 -2.34704 9.85873e-05 
1.34649 -2.55514 0.000100636 
1.55368 -2.57545 3.50351e-05 
1.79839 -2.62093 1.49118e-05 
2.03478 -2.60573 1.92433e-06 
2.28123 -2.62078 1.18223e-06 
2.50738 -2.60059 -4.29169e-07 
2.73174 -2.5943 -1.03419e-07 
2.96532 -2.61162 2.58797e-07 
3.18999 -2.59839 1.09707e-07 
3.39487 -2.56351 -2.76995e-07 
3.60346 -2.587 3.33584e-08 
3.8251 -2.60343 -2.17589e-08 
4.0427 -2.59844 -8.88896e-08 
4.26189 -2.59996 8.16754e-08 
4.479 -2.59733 -1.14076e-07 
4.69758 -2.60077 6.25578e-08 
4.91052 -2.59231 -1.82127e-08 
5.12421 -2.59263 -1.02524e-08 
5.33833 -2.59342 -2.34392e-08 
5.55868 -2.59904 -4.27728e-08 
5.77858 -2.59406 -3.02997e-08 
6.00627 -2.60344 -7.33431e-09 
6.22981 -2.58796 -5.08487e-09 
6.4541 -2.59603 1.1841e-08 
6.68405 -2.59509 3.03171e-09 
6.90191 -2.57486 -1.07012e-08 
7.14178 -2.62282 -1.1177e-08 
7.39009 -2.59841 -1.07364e-08 
7.61499 -2.5838 -2.79576e-09 
7.86433 -2.62996 1.93513e-09 
8.07054 -2.54833 -5.27999e-09 
8.29644 -2.61576 1.49489e-09 
8.48646 -2.54018 -2.56807e-09 
-8.48548 -2.37801 1.09077e-08 
-8.25123 -2.36367 -6.23927e-09 
-8.0254 -2.33881 -5.90729e-09 
-7.79939 -2.35995 6.36126e-09 
-7.56975 -2.26067 -7.32488e-09 
-7.51057 -2.47022 -3.83025e-09 
-7.24525 -2.4527 2.70702e-09 
-7.01027 -2.33718 1.98833e-10 
-6.76107 -2.35147 -4.35595e-09 
-6.47959 -2.33273 -1.19025e-09 
-6.26068 -2.38803 3.94823e-09 
-6.03116 -2.33325 -2.64866e-09 
-5.816 -2.34116 7.03232e-10 
-5.59081 -2.36468 -2.63612e-09 
-5.37276 -2.38165 -1.97955e-09 
-5.14896 -2.36824 -3.37884e-10 
-4.92985 -2.36945 1.49778e-09 
-4.71078 -2.37338 4.19571e-09 
-4.49052 -2.37062 5.50322e-10 
-4.27208 -2.37123 -5.20491e-09 
-4.05452 -2.36903 -1.6639e-08 
-3.83869 -2.36471 -1.54003e-08 
-3.62361 -2.36073 -9.40001e-09 
-3.40742 -2.37529 -6.1743e-08 
-3.19138 -2.37463 -1.23785e-07 
-2.97456 -2.36732 -1.74774e-07 
-2.74517 -2.35207 -1.15398e-07 
-2.53037 -2.40768 -3.56983e-07 
-2.29759 -2.3892 -1.07736e-06 
-2.09492 -2.29893 -2.76808e-06 
-1.84113 -2.25886 -8.03696e-06 
-1.54016 -2.2394 -9.21865e-06 
-1.35462 -2.39116 -5.21749e-05 
-1.20529 -2.22767 -8.08676e-05 
-1.00084 -2.33977 -0.000299187 
-0.834634 -2.19199 -0.000117875 
-0.586907 -2.45691 -0.000111772 
-0.393438 -2.4475 -0.000541362 
-0.189982 -2.44649 0.00195535 
0.0347966 -2.52457 -0.00166223 
0.287643 -2.48041 0.000537279 
0.49709 -2.57817 0.00101504 
0.689225 -2.35615 -0.000288028 
0.879901 -2.29883 0.000209571 
1.06954 -2.1757 6.58445e-06 
1.29851 -2.12227 1.41388e-05 
1.37628 -2.33735 4.79713e-05 
1.61377 -2.3297 1.52749e-05 
1.80735 -2.40996 1.34322e-05 
2.05336 -2.38529 1.717e-06 
2.28323 -2.41509 1.96492e-06 
2.53033 -2.37237 6.63373e-07 
2.74567 -2.37663 8.2498e-07 
2.94982 -2.36971 -3.64359e-07 
3.15536 -2.38098 -4.87662e-07 
3.37448 -2.33079 6.09888e-07 
3.58611 -2.34986 4.44215e-08 
3.79678 -2.37865 1.28517e-09 
4.01596 -2.37152 1.0839e-07 
4.23145 -2.36966 -6.67628e-08 
4.4479 -2.36913 4.4065e-08 
4.66089 -2.36874 -5.2926e-08 
4.87342 -2.3613 -1.37277e-08 
5.08772 -2.36061 4.09348e-09 
5.30254 -2.35949 2.78093e-09 
5.51817 -2.36966 4.328e-09 
5.73783 -2.36384 -7.82086e-10 
5.96228 -2.37514 -1.45727e-09 
6.18592 -2.35866 4.8212e-10 
6.41456 -2.35815 4.04745e-10 
6.63587 -2.36432 -2.78383e-10 
6.86062 -2.33168 1.18265e-09 
7.09031 -2.38498 -4.99484e-10 
7.31682 -2.38753 -2.31608e-09 
7.55972 -2.34332 2.51244e-09 
7.79333 -2.39718 -5.60922e-09 
8.00717 -2.31885 3.70849e-09 
8.25089 -2.35688 2.59004e-09 
8.48567 -2.31025 -1.10097e-08 
-8.4863 -2.14585 1.15712e-08 
-8.25265 -2.13047 1.23367e-09 
-8.02046 -2.09729 -2.88422e-10 
-7.78709 -2.11938 1.19984e-08 
-7.51641 -2.04929 1.67011e-09 
-7.31526 -2.25354 6.30358e-09 
-7.08661 -2.14269 -3.40186e-09 
-6.81943 -2.12922 7.07862e-09 
-6.58115 -2.14654 -5.74065e-09 
-6.31145 -2.13198 1.11084e-09 
-6.11063 -2.12044 -1.56299e-09 
-5.88214 -2.09674 -1.4971e-09 
-5.66472 -2.12899 -3.80655e-09 
-5.44746 -2.14239 -4.13605e-09 
-5.23827 -2.14805 -4.3136e-09 
-5.01908 -2.14038 -4.47995e-09 
-4.80561 -2.14481 -1.50142e-10 
-4.59266 -2.14612 -3.65184e-09 
-4.37799 -2.14234 -1.06966e-08 
-4.16707 -2.14065 -6.26241e-09 
-3.95465 -2.13648 -1.29372e-08 
-3.74322 -2.13233 -3.2401e-08 
-3.52761 -2.13971 -5.16848e-08 
-3.3212 -2.14465 -6.12399e-08 
-3.10775 -2.14335 -1.10063e-07 
-2.88789 -2.14104 -1.72713e-07 
-2.65497 -2.13555 -1.81597e-07 
-2.44773 -2.18086 -4.76819e-07 
-2.25023 -2.11666 -8.96298e-07 
-2.0013 -2.08172 -2.72692e-06 
-1.7239 -2.07927 -6.49374e-06 
-1.48004 -2.01701 1.99846e-07 
-1.33575 -2.04061 -3.4001e-05 
-1.27668 -1.87792 -4.30306e-05 
-1.038 -2.08105 -5.7532e-06 
-0.865694 -1.93614 0.000645195 
-0.646659 -2.20401 -0.000629526 
-0.454182 -2.20642 0.000913115 
-0.165619 -2.28857 -0.000249192 
0.14544 -2.32615 0.000151438 
0.486405 -2.35853 -0.000694593 
0.466775 -2.15246 -0.000672634 
0.685174 -2.11293 -0.000141457 
0.868191 -2.01801 -0.000140097 
1.03554 -1.95734 5.25682e-05 
1.25405 -1.90233 2.36104e-05 
1.50937 -2.06586 -1.11011e-05 
1.68158 -2.10611 2.33683e-05 
1.89223 -2.17575 5.13555e-06 
2.11316 -2.16962 7.16214e-06 
2.34108 -2.20058 9.32625e-07 
2.56254 -2.13752 8.94835e-07 
2.76508 -2.12948 -3.31202e-07 
2.97275 -2.13085 4.61763e-07 
3.18682 -2.15222 3.23208e-07 
3.40747 -2.10232 -4.48723e-07 
3.62165 -2.12156 1.23447e-08 
3.83505 -2.15137 7.42419e-08 
4.05137 -2.14094 -7.11388e-08 
4.26877 -2.14024 7.30659e-08 
4.48202 -2.13563 -4.71095e-08 
4.6941 -2.13611 1.97394e-08 
4.90823 -2.13095 1.2975e-09 
5.12228 -2.13011 5.35264e-09 
5.3363 -2.12839 3.41721e-09 
5.55134 -2.13854 1.80304e-09 
5.77523 -2.13816 2.06573e-09 
5.9929 -2.14139 9.41436e-10 
6.22103 -2.13108 5.52027e-10 
6.43984 -2.11934 5.72773e-10 
6.65885 -2.12458 3.18428e-10 
6.89759 -2.10617 7.06781e-09 
7.11732 -2.14624 3.45721e-09 
7.35126 -2.16024 -2.0632e-10 
7.55944 -2.08593 4.45367e-09 
7.76802 -2.15723 -2.25689e-09 
7.98946 -2.08323 1.55373e-09 
8.22094 -2.13231 3.18867e-09 
8.48574 -2.10691 -9.09998e-09 
-8.48592 -1.8337 2.21029e-08 
-8.31448 -1.90606 -2.40024e-08 
-7.90583 -1.88329 -2.07701e-09 
[...]
POINT_DATA 1978 
VECTORS vectors float
-1.81551e-05 0.000313885 1.00023 
-0.000109334 0.000422619 1.00023 
-0.000165113 0.000551503 1.00045 
-0.000207122 0.00069078 1.00034 
-0.000242874 0.00087661 1.00034 
-0.000240346 0.00108546 1.00033 
-0.000222555 0.0012011 1.00033 
-0.000192722 0.00133068 1.00033 
-0.000173073 0.00142679 1.00023 
-0.000177485 0.00151141 1.00043 
-0.000212915 0.00165583 1.00022 
-0.000265129 0.00183282 1.00033 
-0.000350715 0.00206413 1.00032 
-0.000477641 0.00239471 1.00031 
-0.000618705 0.00286744 1.00031 
-0.000815841 0.00341827 1.0003 
-0.00119091 0.00416449 1.0003 
-0.00183675 0.00531222 1.00029 
-0.00270324 0.00701601 1.00027 
-0.00372982 0.00922784 1.00025 
-0.00506872 0.0119268 1.00022 
-0.00671171 0.0157998 1.00015 
-0.00787349 0.0213253 1.00004 
-0.00887637 0.0275506 0.99988 
-0.0127921 0.0341174 0.999633 
-0.0175631 0.0459249 0.999089 
-0.0175198 0.0589932 0.998408 
-0.0210895 0.0719308 0.997491 
-0.0296986 0.0922605 0.99558 
-0.0380422 0.116027 0.992792 
-0.0441384 0.139111 0.989456 
-0.0512495 0.166013 0.985034 
-0.0680008 0.215678 0.974306 
-0.0779434 0.251911 0.964816 
-0.0965998 0.324631 0.941073 
-0.121502 0.466165 0.876307 
-0.127131 0.564589 0.81531 
-0.126119 0.65945 0.742017 
-0.0725439 0.9453 0.31977 
0.0407276 0.984001 -0.179342 
0.127714 0.700703 -0.702126 
0.105964 0.688605 -0.719107 
0.119828 0.566513 -0.815393 
0.112192 0.457871 -0.8819 
0.0979907 0.367472 -0.924924 
0.0918261 0.32201 -0.94252 
0.078297 0.252225 -0.964682 
0.0609745 0.191457 -0.979833 
0.0442637 0.141168 -0.989266 
0.0331322 0.107882 -0.993895 
0.0254928 0.0827664 -0.996528 
0.0207749 0.065974 -0.997903 
0.0174864 0.0527248 -0.998654 
0.0142621 0.0415596 -0.999429 
0.0105453 0.0336607 -0.999676 
0.00985006 0.0272169 -0.999786 
0.00852365 0.0210968 -1.00004 
0.0065822 0.016573 -1.00015 
0.00494449 0.0129033 -1.00021 
0.00380487 0.00987598 -1.00025 
0.00285649 0.00737124 -1.00027 
0.00198259 0.00548794 -1.00029 
0.00122512 0.00423907 -1.00029 
0.000770045 0.00354282 -1.0003 
0.000572538 0.00307255 -1.0003 
0.000487646 0.00265942 -1.00031 
0.000423221 0.00225656 -1.00031 
0.000332228 0.00192351 -1.00032 
0.000245155 0.00167898 -1.00032 
0.000197991 0.00152704 -1.00032 
0.000190505 0.00141174 -1.00033 
0.000208256 0.00129654 -1.00033 
0.000230483 0.00117587 -1.00033 
0.000249932 0.00100673 -1.00034 
0.000241728 0.00085071 -1.00034 
0.000220698 0.00070041 -1.00034 
0.000170323 0.000522008 -1.00034 
0.000114486 0.000411708 -1.00033 
1.49574e-05 0.000294827 -1.00023 
4.52884e-05 0.000418936 1.00023 
-5.50668e-05 0.000498739 1.00078 
-0.000131407 0.000604446 1.00067 
-0.000189807 0.000716759 1.00057 
-0.000233073 0.000840968 1.00066 
-0.00024903 0.00101054 1.00066 
-0.000240326 0.00112623 1.00076 
-0.000218386 0.00124646 1.00055 
-0.000204302 0.00135891 1.00076 
-0.000183537 0.00153454 1.00055 
-0.000206756 0.00174633 1.00075 
-0.000257366 0.00199595 1.00064 
-0.000341138 0.00230926 1.00062 
-0.000474913 0.00273927 1.00062 
-0.000628321 0.00335921 1.00061 
-0.000866673 0.00423561 1.0006 
-0.00128356 0.00549261 1.00059 
-0.00197289 0.0072618 1.00058 
-0.00298792 0.00958175 1.00055 
-0.0042541 0.0125112 1.00052 
-0.00537877 0.0162197 1.00046 
-0.0061715 0.0213214 1.00035 
-0.00746016 0.027758 1.00019 
-0.0101927 0.0354461 0.999916 
-0.013339 0.0458715 0.999458 
-0.0147076 0.059532 0.998723 
-0.0176528 0.0729237 0.997787 
-0.0227361 0.0938088 0.995928 
-0.0270404 0.122715 0.992649 
-0.0282357 0.158388 0.987627 
-0.0407783 0.193373 0.98072 
-0.0309923 0.227387 0.973907 
-0.0528139 0.27791 0.959503 
-0.0728884 0.373076 0.925299 
-0.0551507 0.440893 0.896132 
-0.0381675 0.641961 0.765289 
-0.0743946 0.601291 0.795046 
-0.0862993 0.767638 0.632652 
-0.0493187 0.906089 0.417201 
-0.0148193 0.994501 0.0806869 
0.0386798 0.947975 -0.311073 
0.0810567 0.794053 -0.598772 
0.0595141 0.673604 -0.736153 
0.0564635 0.551322 -0.832242 
0.0640866 0.447755 -0.891906 
0.026122 0.423455 -0.905909 
0.05251 0.334796 -0.941185 
0.0480925 0.259772 -0.964962 
0.0412426 0.188347 -0.981789 
0.0313689 0.141477 -0.990027 
0.0241611 0.105454 -0.994724 
0.0190991 0.0812834 -0.997102 
0.0157175 0.0630517 -0.998487 
0.0132513 0.049053 -0.999305 
0.0104891 0.03879 -0.999795 
0.00843449 0.0308152 -1.00018 
0.00730376 0.0237296 -1.0003 
0.00588683 0.0182673 -1.00042 
0.0044343 0.0143252 -1.0004 
0.00325238 0.010937 -1.00064 
0.00232342 0.00830676 -1.00048 
0.0015674 0.00621683 -1.00068 
0.000995408 0.00478945 -1.0006 
0.00065599 0.00378658 -1.0006 
0.000486008 0.00310433 -1.00061 
0.000387637 0.0026085 -1.00062 
0.000312958 0.0022155 -1.00063 
0.000255752 0.00189886 -1.00063 
0.000221631 0.00166507 -1.00064 
0.000211507 0.00147375 -1.00065 
0.000219498 0.00132231 -1.00065 
0.00023609 0.00119641 -1.00066 
0.000245583 0.00107649 -1.00066 
0.000245136 0.000934163 -1.00067 
0.000219525 0.000806012 -1.00067 
0.000180423 0.000664532 -1.00056 
0.000108553 0.000571982 -1.00077 
4.24719e-05 0.000460315 -1.00055 
-5.83719e-05 0.000437606 -1.00033 
8.85804e-05 0.000519803 1.00044 
-1.60295e-05 0.000577329 1.00067 
-0.000100039 0.000652923 1.00057 
-0.000174005 0.000732658 1.00078 
-0.000225247 0.000836258 1.00056 
-0.000234476 0.000861746 1.00066 
-0.000255053 0.00098295 1.00066 
-0.000254888 0.00106683 1.00056 
-0.000236389 0.00119628 1.00076 
-0.000201522 0.00138725 1.00065 
-0.000179567 0.00158313 1.00065 
-0.00017027 0.0018273 1.00064 
-0.000204182 0.00211425 1.00063 
-0.000285878 0.00248777 1.00062 
-0.000398596 0.00299213 1.00062 
-0.000535647 0.00379234 1.00061 
-0.000761653 0.00496002 1.0006 
-0.00113049 0.00654637 1.00059 
-0.0017916 0.008706 1.00057 
-0.00286736 0.0114723 1.00054 
-0.00399683 0.0148271 1.00049 
-0.00465701 0.0189574 1.00042 
-0.00524349 0.0245539 1.00029 
-0.00695427 0.031828 1.00007 
-0.00917078 0.0402629 0.999751 
-0.0107947 0.0512829 0.999233 
-0.0123893 0.0664209 0.998327 
-0.0155235 0.0828927 0.997048 
-0.0179225 0.106552 0.994749 
-0.0164233 0.134042 0.991428 
-0.0172921 0.18184 0.983822 
-0.0184398 0.25857 0.966227 
-0.034524 0.329692 0.943934 
-0.0130395 0.387443 0.922095 
-0.0249081 0.503157 0.863905 
0.00562581 0.579991 0.814239 
-0.0336619 0.770024 0.635893 
-0.0253263 0.88344 0.465317 
-0.0122796 0.970789 0.231436 
0.000556945 0.996147 -0.0607283 
0.0163138 0.931025 -0.360791 
0.0441839 0.826983 -0.559355 
0.015507 0.689675 -0.723023 
0.00900298 0.566473 -0.823824 
-0.00151536 0.448716 -0.893762 
0.00156439 0.336937 -0.941888 
0.0254616 0.319364 -0.947727 
0.0241907 0.240176 -0.970932 
0.0267464 0.189208 -0.982142 
0.0205914 0.141318 -0.990239 
0.0178523 0.107383 -0.994655 
0.013366 0.0805475 -0.997265 
0.0114849 0.0635726 -0.998609 
0.0105904 0.0514684 -0.999129 
0.00950022 0.0413309 -0.999788 
0.00734533 0.032585 -0.999949 
0.00601058 0.0253964 -1.00026 
0.00510182 0.0200565 -1.00039 
0.00386185 0.0158181 -1.00057 
0.00277457 0.0123255 -1.00044 
0.00190945 0.00939974 -1.00066 
0.00127208 0.00717918 -1.00049 
0.000820396 0.00547441 -1.00059 
0.000548795 0.00420384 -1.0006 
0.000396693 0.00332593 -1.00061 
0.000304124 0.00273537 -1.00061 
0.000229622 0.00230913 -1.00062 
0.000201674 0.00197947 -1.00063 
0.00019948 0.00171925 -1.00064 
0.000216525 0.00149303 -1.00064 
0.000237619 0.00131362 -1.00065 
0.000255628 0.00116833 -1.00066 
0.000256995 0.00106129 -1.00066 
0.000249442 0.000955528 -1.00066 
0.00021758 0.000838294 -1.00077 
0.00017145 0.000728279 -1.00066 
0.000104109 0.000654339 -1.00066 
1.56224e-05 0.000565988 -1.00066 
-9.28213e-05 0.000537498 -1.00034 
0.000113501 0.000616765 1.00034 
1.07477e-05 0.000658874 1.00056 
-8.15434e-05 0.000711904 1.00078 
-0.000165122 0.000770781 1.00078 
-0.000233728 0.000845534 1.00066 
-0.000256622 0.000927378 1.00066 
-0.000264907 0.000993821 1.00076 
-0.000253225 0.00111406 1.00066 
-0.000222601 0.00127647 1.00065 
-0.000165831 0.00151482 1.00064 
-0.00013261 0.00173077 1.00064 
-0.0001173 0.00202888 1.00063 
-0.000165257 0.0023774 1.00062 
-0.000238736 0.00285414 1.00061 
-0.000332184 0.00355098 1.0006 
-0.000475892 0.00466329 1.00059 
-0.00067944 0.00615753 1.00058 
-0.00102147 0.00811459 1.00057 
-0.0016984 0.0107002 1.00054 
-0.00273973 0.0138742 1.00051 
-0.0036012 0.0175325 1.00044 
-0.00383397 0.0218945 1.00036 
-0.00458238 0.0280699 1.00019 
-0.00627749 0.0355452 0.99995 
-0.00762498 0.0443204 0.999593 
-0.00828045 0.0560814 0.999003 
-0.00952699 0.0722177 0.997957 
-0.0113601 0.0904227 0.996449 
-0.00959249 0.111268 0.994352 
-0.0077002 0.14624 0.989811 
-0.00671834 0.202105 0.979891 
0.00250466 0.264377 0.964906 
0.00518651 0.315033 0.949444 
0.0231555 0.317027 0.948562 
0.0142653 0.447713 0.894255 
0.046703 0.515861 0.855123 
0.0139142 0.703309 0.710054 
0.0163693 0.828123 0.557934 
0.00205426 0.975545 0.211258 
-0.00585073 0.975921 -0.208115 
0.00692784 0.817485 -0.573904 
-0.0325974 0.809979 -0.583741 
-0.0309136 0.663967 -0.74646 
-0.0388715 0.532734 -0.845164 
-0.0340298 0.430765 -0.902102 
-0.024721 0.327795 -0.944829 
0.00258028 0.260055 -0.966065 
0.008103 0.213479 -0.977476 
0.0128525 0.168705 -0.986157 
0.0109222 0.129444 -0.992231 
0.0109679 0.0997521 -0.99556 
0.00784264 0.0770447 -0.997603 
0.00729281 0.0625527 -0.998625 
0.00774709 0.0506244 -0.999289 
0.00755328 0.0401735 -0.999677 
0.00560607 0.0313339 -1.00019 
0.00466691 0.024973 -1.00029 
0.00395793 0.0200946 -1.0004 
0.00283011 0.0159679 -1.00048 
0.00188029 0.0124476 -1.00053 
0.00124451 0.00959308 -1.00056 
0.000818022 0.00729124 -1.00058 
0.000514402 0.00547526 -1.00059 
0.000348343 0.00417501 -1.0006 
0.000247624 0.00329314 -1.00061 
0.000179314 0.00269686 -1.00062 
0.000133937 0.00225924 -1.00062 
0.000137479 0.00193895 -1.00063 
0.000175039 0.00167076 -1.00064 
0.000219969 0.00145272 -1.00064 
0.000253056 0.00126851 -1.00065 
0.0002715 0.00110534 -1.00066 
0.000268086 0.00100698 -1.00066 
0.00024854 0.000917406 -1.00055 
0.000213962 0.000841065 -1.00066 
0.000163034 0.000768293 -1.00066 
8.51277e-05 0.000713102 -1.00055 
-6.28748e-07 0.000646583 -1.00076 
-0.000116823 0.000622457 -1.00034 
0.00014369 0.000746759 1.00034 
5.87557e-05 0.000722039 1.00066 
-0.00011492 0.000776552 1.00055 
-0.000195059 0.000810815 1.00066 
-0.000249049 0.000842443 1.00076 
-0.00026392 0.000906516 1.00056 
-0.000276341 0.000905718 1.00066 
-0.000270191 0.000999784 1.00066 
-0.00024768 0.0011318 1.00065 
-0.000199158 0.00132615 1.00065 
-0.000133667 0.00152496 1.00064 
-7.48394e-05 0.00178595 1.00063 
-5.24279e-05 0.00212022 1.00062 
-8.08581e-05 0.00252895 1.00061 
-0.000117643 0.0031084 1.00061 
-0.000194969 0.00398115 1.0006 
-0.000301614 0.00530936 1.00059 
-0.000458539 0.00703787 1.00058 
-0.000696452 0.00926727 1.00056 
-0.00126069 0.0122353 1.00053 
-0.00222646 0.0158271 1.00048 
-0.00289615 0.0196025 1.00041 
-0.00296996 0.0241512 1.00031 
-0.00366617 0.0305132 1.00013 
-0.0051849 0.038697 0.999841 
-0.00549965 0.0480317 0.999441 
-0.00533468 0.0605978 0.998766 
-0.00566538 0.0767571 0.997651 
-0.00476642 0.0932283 0.99625 
-0.00161576 0.119411 0.993457 
0.00132212 0.160938 0.987562 
0.00894145 0.206649 0.978842 
0.0256023 0.218915 0.976104 
0.0435662 0.276204 0.960474 
0.0444045 0.388811 0.920433 
0.0898088 0.456264 0.885492 
0.0633804 0.644341 0.760912 
0.108161 0.782299 0.611074 
0.0506805 0.83486 0.545143 
0.0104473 0.987338 0.143144 
-0.0213134 0.942561 -0.327967 
-0.0805029 0.77752 -0.621931 
-0.0846505 0.619292 -0.780037 
-0.0940223 0.489115 -0.867009 
-0.065547 0.383878 -0.92126 
-0.053151 0.295795 -0.954223 
-0.022032 0.257463 -0.966451 
-0.0128927 0.20546 -0.979131 
-0.000767488 0.172838 -0.985534 
0.00278125 0.138339 -0.990985 
0.00537734 0.106863 -0.994873 
0.00427045 0.084655 -0.997017 
0.00311446 0.0656452 -0.998453 
0.00464802 0.0526686 -0.999216 
0.00570919 0.0420921 -0.999706 
0.00477283 0.0339684 -1.00002 
0.00365435 0.0267566 -1.00024 
0.00295574 0.021595 -1.00037 
0.00204778 0.0174182 -1.00046 
0.00127742 0.0136639 -1.00052 
0.000768985 0.0105523 -1.00055 
0.000479331 0.00801961 -1.00057 
0.00029687 0.00603751 -1.00058 
0.000190625 0.00454428 -1.00059 
0.000118116 0.00351375 -1.0006 
6.47506e-05 0.00282847 -1.00061 
4.51045e-05 0.00236687 -1.00061 
6.72889e-05 0.00200731 -1.00062 
0.000127902 0.00172611 -1.00063 
0.000191017 0.0014842 -1.00064 
0.000240167 0.00128301 -1.00064 
0.000268159 0.00111608 -1.00065 
0.000274781 0.000979964 -1.00076 
0.000261408 0.000910705 -1.00066 
0.000220043 0.000840635 -1.00066 
0.000145341 0.000783449 -1.00066 
5.03138e-05 0.00075189 -1.00076 
-4.24443e-05 0.000713635 -1.00055 
-0.000141113 0.00073368 -1.00033 
0.000141284 0.000860053 1.00033 
5.00486e-05 0.000828428 1.00066 
-1.82464e-05 0.000762654 1.00067 
-0.00010665 0.000803506 1.00065 
-0.000190432 0.000811406 1.00056 
-0.000272143 0.000841751 1.00065 
-0.000278299 0.000918849 1.00065 
-0.000258711 0.00102232 1.00065 
-0.000211881 0.00120376 1.00064 
-0.000143015 0.00137257 1.00063 
-5.42402e-05 0.00162726 1.00063 
2.26091e-06 0.00193134 1.00062 
2.97132e-05 0.00233105 1.00061 
2.60257e-05 0.00281034 1.0006 
1.11296e-05 0.00355091 1.0006 
-4.61328e-05 0.00463466 1.00059 
-0.000115674 0.00619254 1.00058 
-0.000203165 0.0081462 1.00056 
-0.000349744 0.0106678 1.00054 
-0.000796657 0.0139649 1.0005 
-0.00155982 0.0176529 1.00044 
-0.00210717 0.0216029 1.00037 
-0.00221676 0.0263747 1.00025 
-0.00299812 0.0335027 1.00004 
-0.00385271 0.0420969 0.999714 
-0.0029817 0.0521917 0.999251 
-0.00179317 0.0652102 0.998495 
0.000398659 0.0779022 0.997585 
0.00207637 0.0978026 0.995828 
0.00638558 0.127974 0.992376 
0.0138302 0.162094 0.987373 
0.0367159 0.195198 0.980549 
0.0696163 0.247724 0.966827 
0.106193 0.29562 0.949754 
0.074286 0.338017 0.938531 
0.123352 0.407917 0.904352 
0.120614 0.588977 0.798953 
0.187366 0.607585 0.770734 
0.0434664 0.955948 0.28223 
-0.0295066 0.98152 -0.172321 
-0.0779554 0.886989 -0.450841 
-0.177341 0.729894 -0.657859 
-0.147089 0.608285 -0.779107 
-0.160374 0.428223 -0.889234 
-0.10689 0.356294 -0.928519 
-0.0805798 0.268619 -0.960325 
-0.0415432 0.224384 -0.974261 
-0.0275505 0.181899 -0.983515 
-0.0121486 0.156138 -0.988265 
-0.00426356 0.125793 -0.992664 
-0.000776968 0.10101 -0.995503 
3.26629e-05 0.0796242 -0.997441 
0.000147788 0.0623227 -0.998671 
0.00271608 0.0502223 -0.999348 
0.00389584 0.0407703 -0.999774 
0.0033009 0.0320009 -1.0001 
0.00231532 0.0256209 -1.00028 
0.00152414 0.0210065 -1.00039 
0.00086129 0.0168465 -1.00047 
0.000443899 0.0132114 -1.00052 
0.000197733 0.0101815 -1.00055 
8.95814e-05 0.00769702 -1.00057 
3.966e-05 0.00570482 -1.00058 
5.25181e-07 0.00428675 -1.00059 
-3.92793e-05 0.00334221 -1.0006 
-5.71118e-05 0.00271873 -1.00061 
-3.23058e-05 0.00226893 -1.00061 
3.01687e-05 0.00191429 -1.00062 
0.00011269 0.00163346 -1.00063 
0.000183377 0.00138443 -1.00063 
0.00023148 0.00119381 -1.00064 
0.000265496 0.00104023 -1.00054 
0.000271977 0.000920058 -1.00065 
0.000255715 0.000856013 -1.00065 
0.000212681 0.00081421 -1.00065 
0.000150216 0.000801115 -1.00066 
6.64932e-05 0.000797845 -1.00065 
-3.39906e-05 0.000792106 -1.00065 
-0.000146501 0.000823307 -1.00033 
0.000119115 0.000951039 1.00032 
2.50832e-05 0.000902563 1.00064 
-3.8012e-05 0.000833487 1.00066 
-0.000149068 0.00081172 1.00076 
-0.000237443 0.000807433 1.00065 
-0.000263512 0.00079 1.00064 
-0.000275894 0.000852226 1.00054 
-0.000251063 0.000942657 1.00074 
-0.000220051 0.00108498 1.00054 
-0.000140419 0.00123208 1.00063 
-5.07583e-05 0.0014617 1.00062 
4.68812e-05 0.0017792 1.00061 
0.000103287 0.00212452 1.00061 
0.000149149 0.00255731 1.0006 
0.000170393 0.00317132 1.00059 
0.000171712 0.00407836 1.00059 
0.000145365 0.00536386 1.00058 
0.000128805 0.0070881 1.00056 
0.000132553 0.00919564 1.00055 
6.66141e-05 0.0119923 1.00052 
-0.000255045 0.0156365 1.00048 
-0.00101248 0.0198904 1.0004 
-0.00144996 0.0239327 1.00032 
-0.00180676 0.0290656 1.00018 
-0.00236189 0.0369019 0.999928 
-0.002419 0.0462255 0.999547 
-0.000522596 0.0563316 0.99904 
0.00187457 0.065924 0.998456 
0.00485503 0.0818046 0.997271 
0.0087233 0.104483 0.995124 
0.016014 0.130549 0.991935 
0.0293602 0.156798 0.9878 
0.061423 0.191082 0.980201 
0.103678 0.210218 0.972608 
0.161509 0.290128 0.943998 
0.253902 0.366196 0.895062 
0.180728 0.438535 0.879701 
0.29229 0.570642 0.766343 
0.162819 0.819812 0.54431 
0.0376899 0.988068 0.130455 
-0.0835028 0.94684 -0.300816 
-0.288481 0.612082 -0.734656 
-0.228267 0.455534 -0.860318 
-0.194906 0.303907 -0.932472 
-0.130117 0.274404 -0.953257 
-0.0939632 0.209255 -0.973852 
-0.0593935 0.20196 -0.97816 
-0.0372159 0.155412 -0.987758 
-0.0201447 0.137824 -0.990875 
-0.0106831 0.118879 -0.993481 
-0.00613041 0.0963427 -0.995955 
-0.00305446 0.0794601 -0.997357 
-0.00135119 0.0618831 -0.998707 
0.00118716 0.0501835 -0.999359 
0.00247278 0.0408965 -0.999779 
0.00251249 0.0330775 -1.00007 
0.00151893 0.0265283 -1.00026 
0.000480244 0.0214257 -1.00039 
4.98419e-06 0.0173415 -1.00046 
-0.000182155 0.0137068 -1.00052 
-0.000236147 0.0105917 -1.00054 
-0.000211374 0.00795407 -1.00057 
-0.000171169 0.00589527 -1.00058 
-0.000165869 0.00441424 -1.00059 
-0.000184873 0.00344759 -1.00059 
-0.000179333 0.00278478 -1.0006 
-0.00012685 0.00231582 -1.00061 
-4.68206e-05 0.00195214 -1.00061 
4.76236e-05 0.00163484 -1.00062 
0.000130653 0.00137635 -1.00063 
0.000193644 0.00115378 -1.00063 
0.000240361 0.00100681 -1.00074 
0.00025802 0.000887846 -1.00064 
0.000252527 0.000824009 -1.00064 
0.000210512 0.000794139 -1.00064 
0.000136746 0.000808975 -1.00065 
4.87351e-05 0.00084388 -1.00064 
-4.10557e-05 0.000857275 -1.00065 
-0.000133043 0.000914639 -1.00033 
9.02761e-05 0.0010282 1.00033 
1.7381e-05 0.000953776 1.00064 
-7.10306e-05 0.000856525 1.00066 
-0.000153031 0.00081136 1.00064 
-0.00021539 0.000785241 1.00064 
-0.000254064 0.000752149 1.00064 
-0.000260701 0.000809828 1.00073 
-0.000227654 0.000885669 1.00054 
-0.000181414 0.00103539 1.00063 
-8.96137e-05 0.00122363 1.00063 
1.25723e-05 0.00151728 1.00062 
0.000114148 0.0018615 1.00061 
0.000175636 0.002225 1.0006 
0.0002308 0.00269857 1.00059 
0.000264454 0.00336806 1.00059 
0.000273011 0.004353 1.00058 
0.000270188 0.00571409 1.00057 
0.000309177 0.0074403 1.00056 
0.000410841 0.00959721 1.00054 
0.000484791 0.0123706 1.00052 
0.000272404 0.0163554 1.00047 
-0.000320446 0.0206806 1.00039 
-0.00099729 0.0252655 1.00029 
-0.00130125 0.0305841 1.00015 
-0.00126964 0.0380863 0.999897 
-0.00100382 0.0471046 0.999521 
0.000580768 0.054331 0.999161 
0.00335876 0.0644573 0.998562 
0.0076637 0.0801162 0.997404 
0.0139445 0.101851 0.995344 
0.0242833 0.121954 0.992877 
0.0432185 0.148237 0.988626 
0.0713576 0.153334 0.986291 
0.112945 0.149741 0.982685 
0.161741 0.209557 0.964858 
0.22634 0.201721 0.953048 
0.342892 0.284555 0.895049 
0.442428 0.49231 0.751139 
0.299195 0.828651 0.474202 
0.0150899 0.998733 0.0286306 
-0.271098 0.858899 -0.435552 
-0.440494 0.535067 -0.722374 
-0.317127 0.351884 -0.88034 
-0.243013 0.219046 -0.945219 
-0.144352 0.190983 -0.971457 
-0.0936645 0.151143 -0.984535 
-0.0629802 0.155864 -0.986256 
-0.0405652 0.129899 -0.991328 
-0.0225802 0.116362 -0.993598 
-0.0124739 0.101991 -0.995346 
-0.00633925 0.0822959 -0.997227 
-0.00290444 0.0687037 -0.998371 
-0.000790362 0.0547527 -0.999232 
0.000789123 0.0458502 -0.999472 
0.00152003 0.0372528 -0.999924 
0.00136098 0.0305065 -1.00015 
0.000279689 0.0248337 -1.00031 
-0.000543929 0.0201888 -1.00041 
-0.000735564 0.0161859 -1.00048 
-0.000678362 0.0127814 -1.00061 
-0.000519504 0.00983479 -1.00045 
-0.000352806 0.00729443 -1.00065 
-0.000260941 0.00540857 -1.00048 
-0.000255241 0.0041044 -1.00068 
-0.000267493 0.00325943 -1.00059 
-0.000235455 0.00268131 -1.0006 
-0.0001608 0.00225452 -1.0006 
-7.2783e-05 0.00188716 -1.00061 
1.03525e-05 0.00156491 -1.00062 
0.000100163 0.00128498 -1.00062 
0.000170973 0.00105706 -1.00063 
0.000220252 0.000925245 -1.00053 
0.000240196 0.00082007 -1.00064 
0.000242512 0.000780813 -1.00064 
0.000204519 0.000771658 -1.00064 
0.000138577 0.000811429 -1.00064 
5.54224e-05 0.000872096 -1.00064 
-3.49706e-05 0.0009247 -1.00064 