# vtk DataFile Version 3.0 
Exported using Morpho https://github.com/Morpho-lang/morpho 
ASCII 
DATASET UNSTRUCTURED_GRID 

POINTS 1978 float 
-8.48528 -2.82843 6.68346e-14 
-8.25413 -2.82843 1.19081e-13 
-8.03106 -2.82843 1.09273e-13 
-7.76264 -2.82843 1.77164e-13 
-7.46815 -2.82843 1.86382e-13 
-7.21767 -2.82843 8.74633e-14 
-7.00297 -2.82843 8.00695e-14 
-6.78062 -2.82843 5.56123e-14 
-6.56432 -2.82843 6.66473e-14 
-6.33682 -2.82843 2.67316e-14 
-6.14268 -2.82843 1.95194e-14 
-5.92986 -2.82843 1.2509e-14 
-5.71717 -2.82843 9.85999e-15 
-5.51242 -2.82843 7.46976e-15 
-5.29473 -2.82843 -2.17443e-15 
-5.08322 -2.82843 -2.47487e-15 
-4.86568 -2.82843 -4.5424e-15 
-4.66062 -2.82843 -5.44098e-15 
-4.44195 -2.82843 -7.53166e-15 
-4.22673 -2.82843 -1.68116e-14 
-4.00962 -2.82843 -2.39535e-14 
-3.7996 -2.82843 -3.44435e-14 
-3.58284 -2.82843 -4.02173e-14 
-3.36985 -2.82843 -5.5059e-14 
-3.14647 -2.82843 -6.95244e-14 
-2.93555 -2.82843 -8.49901e-14 
-2.7236 -2.82843 -9.75681e-14 
-2.52771 -2.82843 -1.22783e-13 
-2.31691 -2.82843 -1.61291e-13 
-2.1063 -2.82843 -1.64147e-13 
-1.89825 -2.82843 -1.63287e-13 
-1.69351 -2.82843 -1.32943e-13 
-1.49429 -2.82843 -1.21948e-13 
-1.27693 -2.82843 -1.19315e-13 
-1.09851 -2.82843 4.62209e-14 
-0.848796 -2.82843 1.61362e-16 
-0.627771 -2.82843 -1.3445e-13 
-0.429986 -2.82843 2.12506e-13 
-0.222829 -2.82843 -6.0526e-15 
0.0191231 -2.82843 4.48949e-14 
0.222651 -2.82843 -1.27986e-13 
0.419767 -2.82843 5.87491e-14 
0.638955 -2.82843 -5.48468e-14 
0.863162 -2.82843 -4.50801e-15 
1.06713 -2.82843 -7.27451e-15 
1.26452 -2.82843 5.75486e-14 
1.45324 -2.82843 2.6836e-13 
1.69991 -2.82843 1.40948e-13 
1.88275 -2.82843 1.59056e-13 
2.0998 -2.82843 2.10201e-13 
2.32614 -2.82843 1.37464e-13 
2.51503 -2.82843 1.34087e-13 
2.74173 -2.82843 1.23779e-13 
2.96183 -2.82843 8.73785e-14 
3.17312 -2.82843 5.5937e-14 
3.3819 -2.82843 5.32587e-14 
3.60832 -2.82843 4.21779e-14 
3.8118 -2.82843 3.0291e-14 
4.02673 -2.82843 2.84185e-14 
4.25229 -2.82843 1.78699e-14 
4.45045 -2.82843 9.72975e-15 
4.66192 -2.82843 6.00461e-15 
4.87049 -2.82843 7.83807e-15 
5.07317 -2.82843 2.86883e-15 
5.28887 -2.82843 -5.3186e-15 
5.49974 -2.82843 -5.14338e-15 
5.70381 -2.82843 -1.17867e-14 
5.92251 -2.82843 -1.90845e-14 
6.14296 -2.82843 -1.95966e-14 
6.3425 -2.82843 -3.41504e-14 
6.58132 -2.82843 -5.24071e-14 
6.79116 -2.82843 -3.83676e-14 
6.99174 -2.82843 -8.15596e-14 
7.24979 -2.82843 -1.16345e-13 
7.47961 -2.82843 -1.13557e-13 
7.72106 -2.82843 -1.59646e-13 
7.9859 -2.82843 -7.79098e-14 
8.17082 -2.82843 -2.07648e-13 
8.48528 -2.82843 -1.2412e-13 
-8.48528 -2.58816 6.99149e-15 
-8.25284 -2.58125 2.20454e-14 
-8.01286 -2.59039 -4.99251e-13 
-7.76358 -2.61094 -2.69654e-13 
-7.50874 -2.64674 -3.90305e-13 
-7.22942 -2.59324 -1.73834e-13 
-6.98486 -2.59981 -2.76568e-13 
-6.772 -2.58294 -1.10753e-13 
-6.53264 -2.60726 -1.44059e-13 
-6.32875 -2.56707 -8.40314e-14 
-6.10916 -2.595 -8.28371e-14 
-5.89306 -2.58932 -4.84964e-14 
-5.68325 -2.57666 -4.16845e-14 
-5.46538 -2.5923 -2.37976e-14 
-5.24948 -2.586 -5.72878e-15 
-5.03065 -2.59262 2.21543e-16 
-4.82013 -2.57988 5.95623e-15 
-4.60157 -2.59546 2.90384e-14 
-4.38267 -2.59101 4.24765e-14 
-4.16454 -2.59164 5.90664e-14 
-3.95319 -2.58107 7.80438e-14 
-3.7399 -2.58756 1.05509e-13 
-3.52708 -2.58597 1.39897e-13 
-3.30901 -2.59892 1.75641e-13 
-3.09616 -2.59177 2.22374e-13 
-2.88355 -2.59788 2.71251e-13 
-2.68135 -2.58597 3.18749e-13 
-2.47278 -2.60566 3.91763e-13 
-2.25687 -2.60392 4.22301e-13 
-2.04834 -2.6031 4.52699e-13 
-1.83465 -2.5984 4.90909e-13 
-1.62567 -2.58548 4.22817e-13 
-1.41966 -2.60014 5.40336e-13 
-1.23932 -2.52109 -2.49392e-13 
-1.01572 -2.62748 1.73647e-13 
-0.786861 -2.58167 -7.90643e-14 
-0.581985 -2.53035 -6.08412e-13 
-0.37697 -2.49623 -5.57153e-13 
-0.170228 -2.53687 -6.11317e-14 
0.0127074 -2.46084 1.76542e-13 
0.193093 -2.54743 -2.6193e-13 
0.41615 -2.48429 7.00151e-14 
0.615474 -2.58159 8.44486e-14 
0.841679 -2.56894 1.11179e-13 
1.06712 -2.56888 5.51003e-14 
1.26857 -2.56986 -1.04776e-13 
1.51458 -2.64553 -4.43769e-13 
1.72067 -2.58549 -4.2118e-13 
1.9367 -2.61831 -4.43775e-13 
2.16728 -2.62348 -4.64678e-13 
2.36899 -2.5761 -3.82691e-13 
2.58259 -2.61912 -3.4654e-13 
2.80564 -2.60422 -2.94369e-13 
3.01484 -2.59201 -2.33157e-13 
3.22271 -2.58403 -1.85751e-13 
3.44424 -2.60222 -1.56891e-13 
3.65136 -2.57588 -1.16385e-13 
3.86544 -2.58962 -8.7811e-14 
4.0918 -2.60153 -7.06354e-14 
4.29943 -2.57112 -5.23512e-14 
4.51351 -2.58948 -3.24481e-14 
4.72717 -2.58594 -9.89409e-15 
4.93916 -2.58114 -2.89604e-15 
5.15388 -2.59517 3.59313e-15 
5.37282 -2.58995 8.93885e-15 
5.58428 -2.58076 3.33925e-14 
5.80088 -2.59556 5.12157e-14 
6.02554 -2.59552 6.67071e-14 
6.23895 -2.56837 8.67714e-14 
6.45841 -2.60946 1.20263e-13 
6.68466 -2.57697 1.39238e-13 
6.89278 -2.56248 1.73292e-13 
7.11854 -2.62187 2.50738e-13 
7.36779 -2.59331 2.65948e-13 
7.60475 -2.60285 3.06266e-13 
7.85989 -2.62171 3.47718e-13 
8.07369 -2.52906 4.60467e-13 
8.29847 -2.64527 5.30509e-14 
8.48528 -2.522 1.60615e-14 
-8.48528 -2.35311 -5.2676e-15 
-8.23255 -2.34894 -6.73193e-14 
-7.99275 -2.34414 -3.65897e-13 
-7.75593 -2.40224 -1.40054e-13 
-7.5612 -2.23952 -1.77719e-13 
-7.46848 -2.44195 -2.26455e-13 
-7.17202 -2.38696 -1.95106e-13 
-6.95141 -2.3434 -1.89991e-13 
-6.69811 -2.377 -1.13827e-13 
-6.48563 -2.34949 -1.17506e-13 
-6.24003 -2.34838 -8.29811e-14 
-6.02517 -2.35604 -6.17505e-14 
-5.80948 -2.34084 -4.97555e-14 
-5.58156 -2.34767 -3.45444e-14 
-5.36576 -2.35164 -8.58371e-15 
-5.14153 -2.35526 -2.81959e-15 
-4.92762 -2.3433 3.78542e-15 
-4.70311 -2.35561 9.77316e-15 
-4.48495 -2.36002 3.45335e-14 
-4.26255 -2.35678 5.00514e-14 
-4.04889 -2.34234 6.76616e-14 
-3.8323 -2.34316 8.78494e-14 
-3.61998 -2.34597 1.1502e-13 
-3.40219 -2.36031 1.43768e-13 
-3.19066 -2.3595 1.85612e-13 
-2.97527 -2.36457 2.29814e-13 
-2.76895 -2.3528 2.78206e-13 
-2.55615 -2.36786 3.38076e-13 
-2.34666 -2.38687 3.96536e-13 
-2.12741 -2.37051 3.9675e-13 
-1.91737 -2.37979 4.40897e-13 
-1.69453 -2.36142 4.07936e-13 
-1.47106 -2.34717 4.9774e-14 
-1.25399 -2.27311 5.08639e-13 
-1.02741 -2.39466 -2.22999e-14 
-0.827228 -2.31572 -1.46989e-13 
-0.616719 -2.24751 6.96437e-14 
-0.406401 -2.18986 -1.11657e-12 
-0.186158 -2.18995 3.92758e-14 
0.0519022 -2.17809 6.42647e-13 
0.275244 -2.2431 1.24791e-12 
0.439558 -2.08989 -1.81115e-13 
0.594428 -2.29613 -1.64039e-13 
0.809662 -2.29979 5.41223e-13 
1.03424 -2.32501 1.81239e-13 
1.26028 -2.31061 -1.0119e-13 
1.46394 -2.43148 -3.30601e-13 
1.65281 -2.3548 -4.5824e-13 
1.87228 -2.3885 -4.6058e-13 
2.0883 -2.41603 -4.21434e-13 
2.29811 -2.3593 -4.10338e-13 
2.53056 -2.3793 -3.6017e-13 
2.73267 -2.39255 -2.96874e-13 
2.95313 -2.35441 -2.45646e-13 
3.15508 -2.34415 -1.93688e-13 
3.37266 -2.36696 -1.50451e-13 
3.57854 -2.33685 -1.20588e-13 
3.79247 -2.34461 -9.22679e-14 
4.00901 -2.36974 -7.11036e-14 
4.21793 -2.33452 -5.17766e-14 
4.43898 -2.34464 -3.72301e-14 
4.64925 -2.34599 -2.2628e-14 
4.862 -2.34386 -5.24456e-15 
5.08035 -2.35166 3.04008e-16 
5.29206 -2.36022 6.78514e-15 
5.50893 -2.34248 2.53394e-14 
5.72762 -2.35369 4.07155e-14 
5.94473 -2.3657 5.70317e-14 
6.16082 -2.33533 7.53719e-14 
6.39378 -2.35747 9.38924e-14 
6.60236 -2.35569 1.22548e-13 
6.82697 -2.31104 1.46554e-13 
7.05589 -2.36734 1.86599e-13 
7.27408 -2.38943 2.21789e-13 
7.53374 -2.36812 2.06898e-13 
7.77628 -2.39937 1.94991e-13 
7.99208 -2.30439 2.75818e-13 
8.25853 -2.36958 -1.03677e-13 
8.48528 -2.27558 -2.66062e-16 
-8.48528 -2.09256 2.86674e-14 
-8.26473 -2.11611 7.5061e-14 
-8.03132 -2.0975 -1.77423e-13 
-7.79241 -2.14466 -1.0212e-13 
-7.50767 -2.02635 -9.28609e-14 
-7.30266 -2.22482 -1.83405e-13 
-7.0615 -2.11806 -1.15499e-13 
-6.8035 -2.15022 -1.00274e-13 
-6.59075 -2.1163 -8.6964e-14 
-6.35556 -2.13864 -6.06729e-14 
-6.12452 -2.10841 -5.09171e-14 
-5.91756 -2.10731 -3.44252e-14 
-5.69121 -2.11808 -2.4323e-14 
-5.46949 -2.10934 -6.14681e-15 
-5.25218 -2.12283 -3.64126e-15 
-5.03837 -2.1094 5.6105e-16 
-4.81453 -2.1206 4.41157e-15 
-4.59693 -2.12357 8.92169e-15 
-4.37982 -2.12781 2.62235e-14 
-4.16798 -2.10977 3.62828e-14 
-3.95251 -2.10556 4.65327e-14 
-3.74002 -2.10462 6.15356e-14 
-3.52521 -2.11909 7.83842e-14 
-3.31644 -2.12351 9.93931e-14 
-3.10349 -2.13089 1.28175e-13 
-2.89776 -2.12412 1.52913e-13 
-2.68267 -2.12922 1.911e-13 
-2.4712 -2.14297 2.37525e-13 
-2.26231 -2.15971 3.25015e-13 
-2.03982 -2.1367 3.33374e-13 
-1.82639 -2.15542 2.76768e-13 
-1.59641 -2.12958 2.80043e-13 
-1.38524 -2.07428 -2.56463e-13 
-1.17172 -1.94806 1.13765e-13 
-1.05412 -2.13893 -4.49766e-13 
-0.819268 -2.05378 -2.68773e-13 
-0.583858 -1.96077 -3.20223e-13 
-0.332619 -1.89356 2.71074e-13 
-0.0868646 -1.89365 -2.58169e-13 
0.0707108 -1.60981 -6.09798e-13 
0.17092 -1.91618 3.70866e-13 
0.289101 -1.60789 4.64147e-13 
0.447194 -1.84263 7.68926e-13 
0.710014 -2.01427 -2.21221e-13 
0.947196 -2.05548 2.85598e-13 
1.17512 -2.06876 1.72753e-13 
1.44133 -2.17206 -5.84047e-14 
1.67569 -2.13047 -2.73063e-13 
1.89779 -2.16499 -3.16989e-13 
2.11005 -2.18166 -2.97202e-13 
2.36428 -2.16336 -2.98877e-13 
2.57742 -2.13939 -1.92305e-13 
2.78186 -2.16132 -2.00986e-13 
2.98616 -2.10174 -1.33081e-13 
3.20696 -2.12176 -1.10828e-13 
3.40855 -2.11722 -9.11558e-14 
3.62446 -2.10148 -6.25972e-14 
3.84172 -2.11617 -5.59328e-14 
4.04431 -2.12004 -4.1044e-14 
4.27212 -2.10706 -2.84167e-14 
4.483 -2.1032 -9.56948e-15 
4.6966 -2.10664 -5.52751e-15 
4.91527 -2.1141 -2.54423e-15 
5.1293 -2.11332 1.65602e-15 
5.34115 -2.12315 5.49058e-15 
5.56508 -2.11234 8.75022e-15 
5.78267 -2.1209 2.77776e-14 
5.99343 -2.12097 3.97408e-14 
6.23412 -2.11965 5.32457e-14 
6.44383 -2.10471 6.39262e-14 
6.65647 -2.11014 8.09993e-14 
6.91152 -2.09933 9.56846e-14 
7.12709 -2.12873 1.28005e-13 
7.35796 -2.17464 1.66409e-13 
7.55037 -2.07891 8.7294e-14 
7.73492 -2.16594 1.08496e-13 
7.95307 -2.07014 9.62866e-14 
8.20294 -2.14508 1.07999e-13 
8.48528 -2.07735 -1.52679e-14 
-8.48528 -1.80683 1.71275e-14 
-8.28992 -1.8679 9.04629e-14 
-7.88475 -1.89404 6.1987e-16 
[...]
POINT_DATA 1978 
VECTORS vectors float
0.00058097 -0.00121674 0.999999 
-0.000337028 -0.0824606 0.996594 
-0.000170901 -0.111124 0.993807 
-9.0222e-05 -0.0983021 0.995157 
-0.00018173 -0.074962 0.997186 
-5.73798e-05 -0.0587255 0.998274 
-6.20493e-05 -0.047211 0.998885 
-0.000118323 -0.0371506 0.99931 
-0.00011812 -0.0280085 0.999608 
-9.99549e-05 -0.020628 0.999787 
4.00902e-05 -0.014827 0.99989 
-0.000169293 -0.0103413 0.999947 
-3.85772e-05 -0.00632787 0.99998 
-8.15256e-05 -0.00343477 0.999994 
-0.000101191 -0.00134936 0.999999 
-0.000108649 0.000399366 1 
-6.72836e-05 0.00223835 0.999997 
-6.95337e-05 0.00413132 0.999991 
-0.000119108 0.00644697 0.999979 
-0.000100835 0.0093681 0.999956 
-7.69812e-05 0.013258 0.999912 
-8.76627e-05 0.0180983 0.999836 
-7.98231e-05 0.0245647 0.999698 
-0.000106573 0.0327911 0.999462 
-0.000100402 0.04421 0.999022 
-8.42792e-05 0.0585613 0.998284 
-3.12678e-05 0.0777685 0.996971 
-1.89583e-05 0.100878 0.994899 
-9.4248e-05 0.132705 0.991156 
-5.57606e-05 0.17318 0.98489 
-4.11239e-05 0.22316 0.974782 
-4.29929e-06 0.284055 0.958808 
-5.13637e-05 0.356537 0.934281 
-1.83052e-06 0.453408 0.891303 
-4.26529e-06 0.544684 0.838642 
-2.0849e-05 0.680246 0.732984 
9.66394e-06 0.796122 0.605136 
-3.12166e-05 0.898662 0.438642 
2.57561e-05 0.970929 0.239367 
-1.12123e-05 0.999592 -0.0285602 
9.77451e-06 0.970353 -0.241691 
-2.03331e-06 0.904975 -0.425465 
-6.98094e-06 0.800552 -0.599264 
1.71809e-05 0.669558 -0.74276 
3.40616e-05 0.556826 -0.830629 
-8.16173e-05 0.454536 -0.890728 
9.87879e-05 0.374634 -0.927173 
6.91214e-05 0.28388 -0.95886 
-9.59122e-05 0.227875 -0.97369 
0.000203089 0.176066 -0.984378 
-2.59098e-06 0.131839 -0.991271 
-1.20333e-06 0.102942 -0.994687 
0.000177453 0.0763669 -0.99708 
7.72267e-05 0.0566095 -0.998396 
1.61691e-05 0.0423375 -0.999103 
0.000140078 0.0319836 -0.999488 
0.000104025 0.0236243 -0.999721 
-5.17031e-06 0.0176244 -0.999845 
0.000187122 0.013024 -0.999915 
7.24247e-05 0.00944074 -0.999955 
7.19228e-06 0.00674374 -0.999977 
0.000136737 0.00450818 -0.99999 
2.88625e-05 0.00248076 -0.999997 
7.1273e-05 0.00044041 -1 
0.000139725 -0.00154797 -0.999999 
2.55035e-05 -0.0038027 -0.999993 
6.2425e-05 -0.00668284 -0.999978 
0.000187059 -0.0102366 -0.999948 
-1.12648e-05 -0.0150013 -0.999887 
0.000100105 -0.0205841 -0.999788 
0.00022752 -0.0285078 -0.999594 
-0.00012561 -0.0368071 -0.999322 
0.000159731 -0.0460797 -0.998938 
0.000189669 -0.0598582 -0.998207 
-2.32765e-05 -0.0759563 -0.997111 
0.000334916 -0.0965382 -0.995329 
-0.000255206 -0.116685 -0.993169 
0.000786946 -0.0989503 -0.995092 
-0.000530566 -0.000444596 -1 
-0.000237177 0.000552438 1 
0.0200056 -0.0719939 0.997204 
0.0394854 -0.0963619 0.994563 
0.0398955 -0.0956732 0.994613 
0.0405927 -0.0789717 0.99605 
0.0457123 -0.0597211 0.997168 
0.0511183 -0.0466186 0.997604 
0.0512329 -0.0369863 0.998002 
0.0510117 -0.0278969 0.998308 
0.056023 -0.0207895 0.998213 
0.0548719 -0.0150605 0.99838 
0.0552367 -0.0104865 0.998418 
0.0579909 -0.00672639 0.998294 
0.0563518 -0.00377928 0.998404 
0.058108 -0.001521 0.998309 
0.0572417 0.000660059 0.99836 
0.059624 0.00271332 0.998217 
0.0567984 0.00500162 0.998373 
0.057209 0.00779222 0.998332 
0.0563852 0.0113001 0.998345 
0.056969 0.0156081 0.998254 
0.0548762 0.0210336 0.998272 
0.0541953 0.0281361 0.998134 
0.0508319 0.0375957 0.997999 
0.0506209 0.0499245 0.997469 
0.0478381 0.0659182 0.996678 
0.0471611 0.0859546 0.995182 
0.0415477 0.111863 0.992855 
0.0377824 0.147154 0.988392 
0.0335191 0.190707 0.981074 
0.0289205 0.245535 0.968956 
0.0236147 0.312538 0.949612 
0.0167708 0.393472 0.919184 
0.0129869 0.482646 0.875719 
0.00560688 0.601544 0.79882 
0.00207339 0.725856 0.687843 
-0.000181162 0.82861 0.559826 
-0.00121445 0.906375 0.422472 
-0.000769439 0.980954 0.194238 
-0.000580405 0.999929 -0.0119279 
-0.000574665 0.975114 -0.221704 
-0.00148949 0.909915 -0.414792 
-0.00239269 0.820786 -0.571231 
-0.0045181 0.692001 -0.721883 
-0.0085827 0.563239 -0.82625 
-0.0139227 0.459714 -0.887958 
-0.0170965 0.35297 -0.935478 
-0.0268725 0.281679 -0.959132 
-0.0293894 0.219138 -0.975251 
-0.0340539 0.165108 -0.985687 
-0.0429144 0.129767 -0.990615 
-0.0411601 0.0982662 -0.994309 
-0.045634 0.0733571 -0.996261 
-0.0494506 0.0555806 -0.997229 
-0.0521126 0.0421754 -0.99775 
-0.0511932 0.0312092 -0.998201 
-0.0561509 0.0237941 -0.998139 
-0.0551165 0.0176818 -0.998323 
-0.0543975 0.0127147 -0.998438 
-0.0600196 0.00933157 -0.998154 
-0.0575619 0.00640143 -0.998321 
-0.0584419 0.00392513 -0.998283 
-0.0596113 0.00162482 -0.99822 
-0.0568005 -0.000656058 -0.998385 
-0.0575672 -0.00311019 -0.998337 
-0.058286 -0.00574872 -0.998283 
-0.0550185 -0.00889697 -0.998446 
-0.0541969 -0.0131347 -0.998444 
-0.0573035 -0.018277 -0.998189 
-0.0500343 -0.0246167 -0.998444 
-0.054077 -0.03279 -0.997998 
-0.0546631 -0.0414891 -0.997643 
-0.0450767 -0.0526417 -0.997596 
-0.0475264 -0.0682637 -0.996535 
-0.0446075 -0.0857234 -0.99532 
-0.040426 -0.102363 -0.993925 
-0.0432068 -0.093012 -0.994727 
-0.0132991 -0.0631964 -0.997912 
0.000531622 0.000460491 -1 
-0.000283731 0.000140973 1 
0.0335743 -0.0702855 0.996962 
0.0590146 -0.0945219 0.993772 
0.0606932 -0.0933404 0.993783 
0.0697216 -0.0823825 0.994159 
0.0602115 -0.074043 0.995436 
0.0690456 -0.0567519 0.995998 
0.0744241 -0.044824 0.996219 
0.0735625 -0.034217 0.996703 
0.07699 -0.0259756 0.996693 
0.0791773 -0.0189799 0.99668 
0.0799408 -0.0139196 0.996702 
0.0812972 -0.00975038 0.996642 
0.0823891 -0.00630184 0.99658 
0.0831362 -0.00363104 0.996532 
0.0838004 -0.00103753 0.996482 
0.0850284 0.00136515 0.996378 
0.0842997 0.00405862 0.996432 
0.0836837 0.00695216 0.996468 
0.0827359 0.0104535 0.996517 
0.0821037 0.014664 0.996516 
0.0802465 0.019906 0.996576 
0.0783186 0.0264857 0.996576 
0.0755068 0.0351898 0.996524 
0.0734696 0.0463252 0.996221 
0.0707256 0.0612034 0.995616 
0.0682713 0.079984 0.994455 
0.0637568 0.104503 0.992479 
0.0577696 0.135117 0.989144 
0.0515603 0.177443 0.982779 
0.0441494 0.228616 0.972515 
0.0354778 0.29575 0.954606 
0.025499 0.379322 0.924913 
0.017694 0.472139 0.881347 
0.00936136 0.579977 0.814579 
0.00336649 0.69453 0.719456 
-0.00160182 0.81627 0.577668 
-0.0044656 0.921262 0.388916 
-0.00342146 0.972386 0.233351 
-0.00387473 0.999985 -0.00391229 
-0.00285787 0.970685 -0.240339 
-0.00313212 0.893099 -0.44985 
-0.00434116 0.80098 -0.598675 
-0.00689299 0.69239 -0.72149 
-0.0119052 0.572016 -0.820156 
-0.0193682 0.466535 -0.884291 
-0.0257525 0.37412 -0.927023 
-0.0351253 0.308728 -0.950502 
-0.0424833 0.240899 -0.96962 
-0.0486217 0.185455 -0.981449 
-0.0575357 0.144674 -0.987805 
-0.0619465 0.10851 -0.992163 
-0.0655547 0.0829452 -0.994396 
-0.070685 0.0629147 -0.995513 
-0.0738227 0.0484225 -0.996095 
-0.0750083 0.0363573 -0.99652 
-0.0786982 0.0280496 -0.996504 
-0.0801083 0.0211364 -0.996562 
-0.0803059 0.0155615 -0.996649 
-0.083726 0.0116218 -0.996421 
-0.0843723 0.00797016 -0.996402 
-0.0847801 0.00499216 -0.996387 
-0.0852835 0.00225075 -0.996354 
-0.084591 -0.00043012 -0.996416 
-0.0835162 -0.00297367 -0.996502 
-0.0835467 -0.00580566 -0.996487 
-0.0817892 -0.00881755 -0.996611 
-0.0797719 -0.0124137 -0.996736 
-0.0801556 -0.0170871 -0.996636 
-0.0773511 -0.0231717 -0.996735 
-0.076192 -0.0299802 -0.996642 
-0.0764306 -0.0390297 -0.996311 
-0.0721107 -0.0498823 -0.996148 
-0.0688864 -0.062689 -0.995653 
-0.0665046 -0.0805883 -0.994526 
-0.0625935 -0.0961773 -0.993394 
-0.0603872 -0.095236 -0.993621 
-0.0278567 -0.0645675 -0.997524 
-0.000268459 0.000157104 -1 
-0.000191109 0.000123927 1 
0.0276639 -0.0614761 0.997725 
0.054029 -0.0897245 0.9945 
0.0650814 -0.0948974 0.993357 
0.0664904 -0.0805557 0.99453 
0.0729871 -0.0656297 0.995171 
0.0736929 -0.0516526 0.995942 
0.0764894 -0.0385802 0.996324 
0.0780482 -0.0303016 0.996489 
0.0793795 -0.0226674 0.996587 
0.0803223 -0.0170002 0.996624 
0.0810479 -0.0128687 0.996627 
0.0826297 -0.00916513 0.996538 
0.0833421 -0.00614198 0.996502 
0.0849127 -0.00318045 0.996383 
0.0850378 -0.000424934 0.996378 
0.0859135 0.00264573 0.996299 
0.0858907 0.00580278 0.996288 
0.0852345 0.00932027 0.996317 
0.0834558 0.0133496 0.996422 
0.0814264 0.0182459 0.996512 
0.079316 0.0242219 0.996555 
0.0774861 0.0319202 0.996482 
0.0751908 0.0416119 0.996301 
0.0728223 0.0543962 0.99586 
0.0696506 0.0705805 0.995071 
0.0660352 0.0922103 0.993547 
0.0617789 0.119297 0.990935 
0.0566431 0.153237 0.986565 
0.0481755 0.201177 0.97837 
0.0397984 0.260582 0.964631 
0.0294922 0.338543 0.940489 
0.0188391 0.426906 0.9041 
0.00828525 0.533112 0.846004 
0.00813189 0.575344 0.817871 
0.000546014 0.700895 0.713265 
-0.0041127 0.822515 0.568728 
-0.00544899 0.926935 0.375182 
-0.00566416 0.993603 0.112792 
-0.00108994 0.99727 -0.0738341 
-0.00362181 0.974652 -0.223697 
0.000982882 0.947133 -0.320841 
-0.00157447 0.872139 -0.489256 
-0.00374838 0.734531 -0.678565 
-0.00791997 0.628575 -0.777709 
-0.0138271 0.515036 -0.857057 
-0.0249434 0.395996 -0.917913 
-0.0337715 0.30857 -0.950602 
-0.0432914 0.239078 -0.970035 
-0.0514207 0.186039 -0.981196 
-0.0589482 0.136862 -0.988835 
-0.0638899 0.105688 -0.992345 
-0.068517 0.0811376 -0.994345 
-0.0705141 0.0630433 -0.995517 
-0.0741511 0.0475413 -0.996113 
-0.0764436 0.0369158 -0.99639 
-0.0781548 0.0282757 -0.99654 
-0.0810165 0.0212503 -0.996486 
-0.0826895 0.0162052 -0.996444 
-0.0840078 0.0115981 -0.996398 
-0.0847718 0.00792 -0.996369 
-0.0853647 0.00455214 -0.996339 
-0.0857543 0.00132219 -0.996315 
-0.0851459 -0.00164562 -0.996367 
-0.0847605 -0.00449409 -0.996391 
-0.0833683 -0.00767168 -0.996489 
-0.0823738 -0.0108558 -0.996542 
-0.0810898 -0.0144853 -0.996602 
-0.07993 -0.0196877 -0.996606 
-0.0779638 -0.0254518 -0.996631 
-0.0767638 -0.0326526 -0.996514 
-0.0747033 -0.0436045 -0.996252 
-0.073678 -0.0549228 -0.995769 
-0.0726812 -0.0696137 -0.994923 
-0.0681463 -0.0837257 -0.994156 
-0.0676199 -0.0943834 -0.993237 
-0.0601825 -0.097535 -0.993411 
-0.0408556 -0.0720364 -0.996565 
0.000358729 -5.94356e-05 -1 
-0.000482161 0.000184797 1 
0.0221653 -0.059826 0.997963 
0.0545417 -0.0986886 0.993623 
0.0579689 -0.0919142 0.994078 
0.0546793 -0.0758794 0.995617 
0.0671368 -0.0650653 0.99562 
0.0595545 -0.0567127 0.996613 
0.0671787 -0.0451357 0.99672 
0.0651487 -0.0354315 0.997246 
0.0689569 -0.0274444 0.997242 
0.0692461 -0.0211801 0.997375 
0.0675651 -0.0166414 0.997576 
0.0702819 -0.0126277 0.997447 
0.0715366 -0.00925199 0.997395 
0.0721945 -0.00597899 0.997373 
0.072936 -0.00290016 0.997332 
0.0741036 0.000630015 0.99725 
0.0743321 0.00414995 0.997225 
0.0743284 0.0078284 0.997203 
0.0726809 0.0117562 0.997286 
0.0708726 0.0163076 0.997352 
0.0687405 0.0217617 0.997397 
0.0673806 0.0285046 0.99732 
0.0654944 0.0368018 0.997174 
0.0636906 0.0475271 0.996837 
0.0610187 0.0611527 0.996262 
0.058226 0.0791454 0.995161 
0.0544397 0.10238 0.993255 
0.0503837 0.131716 0.990006 
0.0458788 0.169533 0.984456 
0.0367673 0.225988 0.973436 
0.0292413 0.289549 0.956716 
0.0197584 0.365442 0.930624 
0.00941872 0.464472 0.885538 
-1.51282e-05 0.657539 0.75342 
-0.00400172 0.772458 0.635053 
-0.00472609 0.884011 0.467442 
-0.00245439 0.940082 0.340939 
-0.00286658 0.974277 0.225336 
9.97763e-05 0.997483 0.0709046 
0.00115771 0.982294 -0.187345 
0.00311279 0.900597 -0.434644 
0.00159954 0.828822 -0.55951 
-0.000893858 0.708484 -0.705727 
-0.00560363 0.581861 -0.813269 
-0.0102525 0.486077 -0.873856 
-0.0190185 0.416406 -0.90898 
-0.0225843 0.349245 -0.936759 
-0.0315161 0.271978 -0.961787 
-0.0403384 0.211332 -0.976581 
-0.0487539 0.160424 -0.985843 
-0.052131 0.120182 -0.991382 
-0.0568848 0.0918676 -0.994145 
-0.0587186 0.0723538 -0.995649 
-0.0625476 0.0543757 -0.99656 
-0.063995 0.0420632 -0.997063 
-0.066082 0.0328047 -0.997275 
-0.0688131 0.024801 -0.997321 
-0.0699175 0.0190494 -0.997371 
-0.0727685 0.0141654 -0.997248 
-0.0721671 0.00982285 -0.997344 
-0.0729704 0.00594055 -0.997316 
-0.0739067 0.00222342 -0.997263 
-0.0732616 -0.00124152 -0.997312 
-0.0728669 -0.00459578 -0.997331 
-0.0725649 -0.0076805 -0.997334 
-0.070931 -0.0111353 -0.997419 
-0.0694821 -0.0146516 -0.997476 
-0.0701411 -0.0187656 -0.997361 
-0.0660915 -0.0245241 -0.997512 
-0.0650598 -0.0312601 -0.997392 
-0.0658982 -0.0398555 -0.99703 
-0.0626333 -0.0526238 -0.996648 
-0.0639961 -0.0663548 -0.995742 
-0.0581567 -0.083176 -0.994836 
-0.05674 -0.0976781 -0.993599 
-0.0467827 -0.094358 -0.994439 
-0.0306795 -0.0660128 -0.997347 
0.0001987 0.000341616 -1 
-0.000230644 0.000145074 1 
0.0183938 -0.0621128 0.9979 
0.0398614 -0.0860187 0.995496 
0.0430938 -0.101249 0.993927 
0.0461616 -0.0925033 0.994642 
0.0470853 -0.067346 0.996618 
0.0502117 -0.0499312 0.99749 
0.0528144 -0.0409235 0.997765 
0.0538827 -0.0308832 0.99807 
0.0555688 -0.0246713 0.99815 
0.0546909 -0.0198667 0.998306 
0.0553518 -0.0153535 0.998349 
0.0575997 -0.0118638 0.998269 
0.0589792 -0.00840642 0.998224 
0.0583888 -0.00495133 0.998282 
0.0605666 -0.00120534 0.998163 
0.0606864 0.0027339 0.998153 
0.0605989 0.00678932 0.998139 
0.0592103 0.0108546 0.998187 
0.0579321 0.0153425 0.998203 
0.0563883 0.0205553 0.998197 
0.0551371 0.0269658 0.998115 
0.0534289 0.0348353 0.997964 
0.052012 0.0448074 0.997641 
0.0497152 0.0576552 0.997098 
0.0473906 0.0745848 0.996088 
0.04418 0.0965994 0.994342 
0.0400069 0.126122 0.991208 
0.0358717 0.164476 0.985729 
0.0302447 0.214682 0.976216 
0.0199997 0.294326 0.955496 
0.0110832 0.388476 0.921392 
0.00246594 0.503957 0.863725 
-0.00312325 0.625345 0.780342 
0.000692613 0.582087 0.813126 
-0.00352887 0.691387 0.722476 
-0.00493648 0.811022 0.584995 
-0.00365791 0.878412 0.477891 
-0.00160491 0.991918 0.126868 
-0.00275752 0.999996 -0.000123855 
-0.00245055 0.994584 -0.103909 
-0.000770366 0.934028 -0.357198 
0.00294649 0.836801 -0.5475 
0.0037571 0.747955 -0.663739 
0.00120189 0.632515 -0.774547 
-0.00226914 0.517462 -0.855703 
-0.0108324 0.411427 -0.911378 
-0.0173421 0.323592 -0.946038 
-0.0248632 0.254127 -0.966851 
-0.0338373 0.195467 -0.980126 
-0.039811 0.149262 -0.987996 
-0.0424146 0.112097 -0.992792 
-0.0442855 0.0887616 -0.995068 
-0.0490016 0.0667582 -0.996565 
-0.0506073 0.0516339 -0.997383 
-0.0516597 0.0402189 -0.997855 
-0.0549084 0.0308741 -0.998014 
-0.0556469 0.0241382 -0.998159 
-0.0571579 0.0183639 -0.998196 
-0.0596159 0.0135413 -0.99813 
-0.058692 0.00906107 -0.998235 
-0.0598419 0.00483211 -0.998196 
-0.0597364 0.000914129 -0.998214 
-0.0596453 -0.00298975 -0.998215 
-0.0586786 -0.00659077 -0.998255 
-0.0590078 -0.00989955 -0.998208 
-0.0566713 -0.0134081 -0.998303 
-0.0561558 -0.0171416 -0.998275 
-0.0556508 -0.0212888 -0.998223 
-0.0519515 -0.0273041 -0.998276 
-0.0516195 -0.0346894 -0.998064 
-0.0533645 -0.0442811 -0.997593 
-0.0480685 -0.0555126 -0.9973 
-0.0510323 -0.0677275 -0.996398 
-0.0457121 -0.0848835 -0.995342 
-0.0456564 -0.0991677 -0.994023 
-0.0375586 -0.0976287 -0.994514 
-0.0217533 -0.0632676 -0.997759 
0.000108745 9.19572e-05 -1 
-0.000170134 8.2293e-05 1 
0.0163444 -0.0698663 0.997422 
0.0322711 -0.0948661 0.994967 
0.0336605 -0.100782 0.994339 
0.0390878 -0.083833 0.995713 
0.0345906 -0.069958 0.99695 
0.0399163 -0.0562655 0.997618 
0.0375847 -0.0442676 0.998312 
0.0429728 -0.0360305 0.998426 
0.0416644 -0.0285974 0.998722 
0.0425338 -0.0235322 0.998818 
0.044291 -0.0187599 0.998843 
0.0441916 -0.015011 0.99891 
0.0466142 -0.0115336 0.998846 
0.0472796 -0.00801986 0.998849 
0.0474866 -0.00390523 0.998864 
0.0489057 0.000132473 0.998803 
0.0487975 0.00441652 0.998799 
0.0476666 0.00854162 0.998827 
0.0467936 0.0129067 0.998821 
0.0458857 0.0176927 0.99879 
0.0449288 0.0232211 0.99872 
0.0437019 0.0297915 0.9986 
0.0423947 0.0380856 0.998375 
0.0409694 0.0484686 0.997984 
0.0390609 0.0622852 0.997294 
0.0366493 0.0802103 0.996104 
0.0336449 0.104166 0.993991 
0.029557 0.136596 0.990186 
0.0253357 0.17833 0.983645 
0.0203765 0.237325 0.971216 
0.0114481 0.323753 0.946072 
0.00449002 0.42281 0.906207 
-0.000766895 0.526898 0.849928 
-0.00531225 0.746025 0.665897 
-0.00374252 0.860382 0.509636 
-0.00361893 0.944409 0.328753 
-0.000577949 0.973525 0.228579 
-0.00168848 0.958209 0.286063 
-0.00371486 0.991371 0.131032 
-0.000901212 0.998605 -0.0527922 
-0.00187331 0.985837 -0.167693 
-0.00232372 0.939816 -0.341672 
0.00198515 0.815764 -0.578382 
0.0043237 0.710519 -0.703665 
0.00367747 0.598285 -0.801275 
-0.00447849 0.421093 -0.907006 
-0.0100358 0.331632 -0.943356 
-0.0168442 0.255585 -0.96664 
-0.0248135 0.196691 -0.980151 
-0.0253846 0.16581 -0.985831 
-0.0320771 0.133314 -0.990555 
-0.0321798 0.104165 -0.994039 
-0.0372544 0.0784184 -0.996224 
-0.0394144 0.060488 -0.99739 
-0.0406054 0.0468303 -0.998077 
-0.0430297 0.0357843 -0.998433 
-0.0439113 0.0281665 -0.998638 
-0.0453156 0.0217446 -0.998736 
-0.0466214 0.0162971 -0.99878 
-0.047884 0.0117435 -0.998784 
-0.0478801 0.00680033 -0.99883 
-0.0477801 0.00245031 -0.998855 
-0.0480413 -0.0019069 -0.998844 
-0.0471795 -0.00601853 -0.998868 
-0.0471051 -0.00987984 -0.998841 
-0.0458889 -0.0133157 -0.998858 
-0.0449339 -0.0170528 -0.998844 
-0.0433578 -0.0211946 -0.998835 
-0.0419774 -0.0260096 -0.99878 
-0.0401607 -0.033454 -0.998633 
-0.0412112 -0.0428405 -0.998232 
-0.0377581 -0.0558972 -0.997722 
-0.0383709 -0.0721244 -0.996657 
-0.0336873 -0.0887557 -0.995484 
-0.03503 -0.100995 -0.99427 
-0.0284863 -0.101526 -0.994425 
-0.0203502 -0.0727497 -0.997143 
0.000255646 8.49066e-05 -1 
-0.00011146 0.000194529 1 
0.0122827 -0.0706423 0.997426 
0.0257421 -0.100993 0.994554 
0.0241384 -0.102693 0.99442 
0.0294941 -0.0898227 0.995521 
0.0264363 -0.0723724 0.997027 
0.0299146 -0.0550496 0.998035 
0.0283921 -0.0430514 0.998669 
0.0325389 -0.0345144 0.998874 
0.0307203 -0.028462 0.999123 
0.0335876 -0.0231189 0.999168 
0.0350249 -0.0188525 0.999209 
0.0349136 -0.0151918 0.999275 
0.0370896 -0.0115192 0.999246 
0.03837 -0.00731449 0.999237 
0.0380087 -0.00275582 0.999274 
0.0392118 0.00174104 0.999229 
0.0380146 0.00618882 0.999258 
0.0374244 0.0107986 0.999241 
0.0368896 0.0155987 0.999198 
0.0361931 0.0208476 0.999127 
0.0352755 0.0269557 0.999014 
0.034284 0.0345407 0.998815 
0.0330136 0.0441718 0.998478 
0.0316737 0.0567283 0.997887 
0.0295165 0.0735376 0.996856 
0.0268756 0.0962393 0.994995 
0.0234814 0.126815 0.991648 
0.0191461 0.169829 0.985288 
0.0152583 0.226853 0.973809 
0.00930763 0.301897 0.953295 
0.00255724 0.409986 0.912088 
-0.00132936 0.523521 0.852012 
-0.00302556 0.641962 0.76673 
-0.00382497 0.642068 0.766638 
-0.00328235 0.853809 0.520576 
0.00498471 0.9341 0.356978 
0.00619996 0.998297 0.0580051 
0.00564791 0.999733 0.0224248 
0.00294142 0.999975 -0.00644577 
0.00126651 0.99871 -0.0507686 
-0.00105455 0.99558 -0.0939141 
-0.00211737 0.95335 -0.301859 
0.000539428 0.828569 -0.559886 
0.00564743 0.672557 -0.740024 
0.00573919 0.565154 -0.824965 
0.00196967 0.495009 -0.868885 
-0.00141907 0.393813 -0.919189 
-0.00685867 0.305626 -0.952127 
-0.0132474 0.232949 -0.972399 
-0.0184932 0.173796 -0.984608 
-0.023578 0.12886 -0.991383 
-0.0271069 0.0922226 -0.995369 
-0.0297475 0.0712368 -0.997016 
-0.0315606 0.0550749 -0.997983 
-0.0335579 0.0419278 -0.998557 
-0.0342447 0.0330617 -0.998866 
-0.0355069 0.0257768 -0.999037 
-0.0366562 0.0198619 -0.999131 
-0.0370281 0.0148903 -0.999203 
-0.0390283 0.0101344 -0.999187 
-0.0378642 0.00541561 -0.999268 
-0.0382987 0.000656444 -0.999266 
-0.0378928 -0.00384636 -0.999274 
-0.0376448 -0.0083085 -0.999257 
-0.0366017 -0.0121591 -0.999256 
-0.0363441 -0.015812 -0.999214 
-0.0347006 -0.0195143 -0.999207 
-0.0326436 -0.0237162 -0.999186 
-0.0326035 -0.0292207 -0.999041 
-0.029767 -0.0363749 -0.998895 
-0.0316649 -0.0441982 -0.998521 
-0.0277585 -0.0550073 -0.9981 
-0.0294103 -0.0690143 -0.997182 
-0.0256674 -0.0865831 -0.995914 
-0.0251323 -0.102456 -0.99442 
-0.0202331 -0.1005 -0.994731 
-0.0131761 -0.0677679 -0.997614 
6.9446e-05 0.000280235 -1 
7.68907e-06 0.000132923 1 
0.00924048 -0.0723269 0.997338 
0.0179825 -0.101548 0.994668 
0.0172648 -0.104273 0.994399 
0.0213041 -0.0883667 0.99586 
0.0185066 -0.0715818 0.997263 