# vtk DataFile Version 3.0 
Exported using Morpho https://github.com/Morpho-lang/morpho 
ASCII 
DATASET UNSTRUCTURED_GRID 

POINTS 1978 float 
-8.48528 -2.82843 1.11405e-13 
-8.17817 -2.82843 -3.18963e-12 
-7.91904 -2.82843 2.5304e-12 
-7.66999 -2.82843 1.70129e-11 
-7.17226 -2.82843 -9.67475e-12 
-6.95291 -2.82843 2.99596e-12 
-6.76623 -2.82843 2.40892e-12 
-6.55078 -2.82843 2.9275e-12 
-6.34943 -2.82843 6.80204e-12 
-6.15192 -2.82843 4.90819e-12 
-5.9474 -2.82843 -2.19822e-12 
-5.74829 -2.82843 -2.31797e-12 
-5.54129 -2.82843 -5.23723e-14 
-5.33781 -2.82843 5.64448e-12 
-5.1289 -2.82843 -2.95932e-12 
-4.92706 -2.82843 2.23861e-13 
-4.67626 -2.82843 4.8762e-12 
-4.45797 -2.82843 -1.93128e-12 
-4.24218 -2.82843 -9.93277e-13 
-4.06166 -2.82843 7.62311e-13 
-3.89541 -2.82843 1.17414e-12 
-3.73161 -2.82843 8.57866e-12 
-3.53914 -2.82843 1.2043e-11 
-3.37154 -2.82843 1.5743e-11 
-3.19776 -2.82843 2.89515e-11 
-2.96584 -2.82843 6.24835e-11 
-2.6414 -2.82843 1.00638e-10 
-2.32481 -2.82843 1.10623e-10 
-2.08053 -2.82843 1.01837e-10 
-1.77389 -2.82843 1.05556e-10 
-1.56252 -2.82843 5.00655e-11 
-1.42207 -2.82843 7.68488e-11 
-1.13497 -2.82843 6.2866e-11 
-0.944225 -2.82843 2.91912e-11 
-0.829201 -2.82843 1.34907e-11 
-0.719852 -2.82843 2.09579e-11 
-0.502633 -2.82843 4.58159e-12 
-0.339508 -2.82843 2.86214e-12 
-0.227691 -2.82843 -1.99306e-11 
0.0027283 -2.82843 9.40989e-12 
0.213587 -2.82843 -8.86268e-12 
0.337405 -2.82843 1.44129e-11 
0.450553 -2.82843 -1.86758e-11 
0.581484 -2.82843 -6.11241e-12 
0.768576 -2.82843 -1.42353e-11 
0.959624 -2.82843 -4.07528e-11 
1.14663 -2.82843 -5.95681e-11 
1.31186 -2.82843 -6.87275e-11 
1.50972 -2.82843 -9.15284e-11 
1.74094 -2.82843 -1.51242e-10 
2.22054 -2.82843 -1.34521e-10 
2.43088 -2.82843 -7.7381e-11 
2.69969 -2.82843 -6.82834e-11 
2.95687 -2.82843 -5.60838e-11 
3.17604 -2.82843 -3.43309e-11 
3.37049 -2.82843 -1.85836e-11 
3.5512 -2.82843 -1.36999e-11 
3.73237 -2.82843 -8.7132e-12 
3.93945 -2.82843 -2.91708e-12 
4.21282 -2.82843 -1.30263e-12 
4.42411 -2.82843 1.56264e-12 
4.60507 -2.82843 1.29748e-12 
4.81168 -2.82843 8.00611e-13 
5.03675 -2.82843 -2.43881e-12 
5.25489 -2.82843 -2.66845e-13 
5.42935 -2.82843 8.81716e-13 
5.62904 -2.82843 -2.01512e-12 
5.79864 -2.82843 1.40557e-13 
5.98245 -2.82843 5.78575e-15 
6.15371 -2.82843 -2.58166e-12 
6.32199 -2.82843 -3.44387e-12 
6.49115 -2.82843 -1.81991e-12 
6.71687 -2.82843 -2.19512e-12 
6.9498 -2.82843 -4.94736e-12 
7.16211 -2.82843 5.95362e-13 
7.71391 -2.82843 -5.55439e-12 
8.10436 -2.82843 -3.14725e-11 
8.30091 -2.82843 3.79021e-11 
8.48528 -2.82843 -3.26042e-11 
-8.48528 -2.44485 4.01199e-12 
-8.24416 -2.5549 -8.66806e-15 
-7.96253 -2.59012 1.95712e-14 
-7.9529 -2.33714 8.03812e-15 
-7.69972 -2.62161 2.45893e-14 
-7.04387 -2.58563 1.47684e-14 
-6.80376 -2.54194 1.4085e-14 
-6.56991 -2.58078 2.02841e-15 
-6.32502 -2.59024 8.21044e-15 
-6.17074 -2.38371 1.45501e-14 
-6.0858 -2.61174 1.32433e-14 
-5.84394 -2.62472 6.12329e-15 
-5.51017 -2.43118 9.98082e-16 
-5.37784 -2.59429 7.59177e-15 
-5.17623 -2.56975 1.66374e-15 
-4.97217 -2.55139 -2.18033e-15 
-4.7619 -2.60503 -3.62086e-15 
-4.53079 -2.58825 -3.93749e-15 
-4.31959 -2.60734 -5.34884e-15 
-4.12408 -2.60451 -2.85938e-15 
-3.94412 -2.61727 -5.70447e-16 
-3.77208 -2.62777 -1.13532e-14 
-3.59509 -2.65776 -1.26949e-14 
-3.40288 -2.63665 -3.91902e-15 
-3.22331 -2.64961 -8.21499e-15 
-3.03144 -2.68697 -5.01296e-15 
-2.78991 -2.73131 6.85086e-14 
-2.47301 -2.72799 1.43533e-14 
-2.18453 -2.70203 -6.85475e-14 
-1.9266 -2.73807 7.86993e-15 
-1.63266 -2.69721 -1.37292e-13 
-1.31649 -2.75378 -4.0003e-14 
-1.17742 -2.6994 -6.5088e-14 
-1.01286 -2.73674 -4.92928e-14 
-0.866749 -2.69444 -7.35659e-14 
-0.759658 -2.70975 -3.41071e-14 
-0.631564 -2.77142 -4.60215e-14 
-0.436201 -2.74971 -2.53905e-14 
-0.213285 -2.73086 2.5333e-14 
-0.09892 -2.77455 -2.7911e-14 
0.143603 -2.76549 3.32267e-15 
0.283892 -2.7164 -6.3283e-16 
0.505712 -2.71893 3.83951e-14 
0.651088 -2.74777 7.44441e-14 
0.819525 -2.74591 5.82489e-14 
1.11106 -2.70107 3.59161e-13 
1.25045 -2.71641 -3.07506e-13 
1.41941 -2.73143 6.60269e-14 
1.63259 -2.73674 -1.29593e-13 
2.0782 -2.77243 -9.41054e-14 
2.39869 -2.68184 -9.08617e-15 
2.62522 -2.70313 1.92002e-14 
2.879 -2.70231 -5.08307e-14 
3.13196 -2.6774 -1.3458e-14 
3.35127 -2.66589 3.2587e-14 
3.56366 -2.65195 -1.72355e-14 
3.7197 -2.59754 2.00482e-14 
3.87416 -2.64429 1.42892e-14 
4.09293 -2.6749 1.06205e-14 
4.31351 -2.61801 6.22078e-15 
4.50022 -2.55149 2.81453e-15 
4.69159 -2.56599 7.88394e-16 
4.90935 -2.58118 -5.73401e-16 
5.14016 -2.57944 -3.5313e-15 
5.34909 -2.53679 -3.93967e-15 
5.54818 -2.59169 -7.8427e-15 
5.7458 -2.56873 -4.77516e-15 
5.94516 -2.61378 -1.16002e-14 
6.15165 -2.58364 -1.35335e-15 
6.35108 -2.57425 -4.57468e-15 
6.53042 -2.41272 -5.94689e-15 
6.58948 -2.62874 6.76079e-16 
6.85449 -2.59813 3.33351e-14 
7.07207 -2.55034 -3.83329e-15 
7.71442 -2.64188 -2.89817e-14 
7.87695 -2.45795 -2.33567e-15 
8.10303 -2.61216 7.50415e-15 
8.27224 -2.39712 -2.66537e-14 
8.48528 -3.00335 1.1301e-11 
-8.48528 -2.13364 -2.54266e-13 
-8.22592 -2.26068 -1.21941e-14 
-7.7915 -2.06376 5.45302e-15 
-7.71165 -2.37361 5.90484e-15 
-7.46121 -2.50394 3.81179e-15 
-7.35802 -2.70076 7.19454e-15 
-6.90596 -2.09953 4.05189e-15 
-6.93077 -2.31533 -6.09313e-15 
-6.65651 -2.32075 -1.89289e-15 
-6.40241 -2.36783 3.73121e-15 
-6.17855 -2.12437 3.30471e-15 
-5.94004 -2.41937 5.14286e-15 
-5.61701 -2.63548 1.14357e-14 
-5.51404 -2.20863 2.8264e-15 
-5.30586 -2.32529 2.35662e-15 
-5.10631 -2.29795 -5.55547e-16 
-4.88005 -2.31606 -4.16473e-15 
-4.6741 -2.36666 -6.63997e-15 
-4.4563 -2.35921 -6.69191e-15 
-4.26402 -2.37698 -4.56432e-15 
-4.09176 -2.37556 -4.85948e-14 
-3.91893 -2.41 -3.64397e-15 
-3.73589 -2.44004 -1.44428e-14 
-3.54124 -2.48978 -1.09103e-14 
-3.31424 -2.47086 -3.38362e-14 
-3.10101 -2.51051 2.57721e-14 
-2.87838 -2.58685 4.30101e-14 
-2.62843 -2.63463 8.45692e-15 
-2.3359 -2.61817 1.00707e-13 
-2.03558 -2.61747 4.86265e-14 
-1.78282 -2.64754 6.8077e-14 
-1.4693 -2.6543 4.6082e-14 
-1.31293 -2.60716 1.09394e-13 
-1.07364 -2.62045 6.35059e-14 
-0.927924 -2.60224 -1.73097e-13 
-0.779682 -2.57211 1.91184e-13 
-0.549621 -2.71274 3.83096e-14 
-0.325827 -2.71047 -5.0384e-14 
-0.223302 -2.62635 -4.66859e-14 
-0.110401 -2.67556 5.3587e-14 
0.119815 -2.6495 1.02947e-13 
0.390637 -2.701 4.62764e-14 
0.562933 -2.62904 6.23102e-14 
0.702566 -2.65662 7.3559e-14 
0.981482 -2.73073 -1.16309e-13 
1.20985 -2.58676 -3.64812e-13 
1.35706 -2.6187 -5.32635e-14 
1.54061 -2.64981 2.14102e-14 
1.78491 -2.65852 -7.14067e-14 
1.91794 -2.72419 9.882e-14 
2.2457 -2.63149 -1.01861e-13 
2.60939 -2.566 -5.8304e-15 
2.8706 -2.5724 -1.31179e-14 
3.10571 -2.53768 -3.81949e-14 
3.34807 -2.50666 3.06944e-14 
3.52797 -2.46821 3.05101e-14 
3.72569 -2.41095 -9.56594e-15 
3.91681 -2.41267 6.35911e-15 
4.06591 -2.48979 1.25251e-14 
4.23942 -2.4063 9.29981e-16 
4.43188 -2.33598 5.97657e-15 
4.64605 -2.29795 2.67009e-15 
4.85013 -2.32442 2.24182e-15 
5.07385 -2.3381 -1.27884e-15 
5.29826 -2.29139 -4.08505e-15 
5.53323 -2.33552 -6.04968e-15 
5.73705 -2.32312 -7.03631e-15 
5.93854 -2.39304 -1.74527e-15 
6.16065 -2.36931 -9.00456e-15 
6.34976 -2.30909 -3.25104e-15 
6.62599 -2.19957 -7.21881e-16 
6.82047 -2.10127 -2.11547e-15 
6.76594 -2.40203 -1.25031e-15 
6.98471 -2.27759 -1.15709e-15 
7.35357 -2.70146 4.06997e-14 
7.61789 -2.3681 5.23377e-15 
7.88328 -2.12652 1.44081e-15 
8.05594 -2.2864 -8.08226e-15 
8.48528 -2.66983 -2.42975e-12 
-8.48528 -1.77842 3.35458e-12 
-8.03165 -2.08501 4.65706e-15 
-8.11213 -1.84102 4.21588e-15 
-7.58505 -2.17546 4.98099e-15 
-7.37329 -2.27709 -3.14937e-15 
-7.17117 -2.41647 -8.38748e-16 
-7.04911 -1.89568 3.63814e-15 
-6.7251 -1.9459 1.48562e-15 
-6.60122 -2.12533 4.11644e-15 
-6.37073 -2.13764 8.45839e-15 
-5.96868 -2.20434 -4.5504e-16 
-5.72093 -2.41951 8.5176e-15 
-5.73589 -2.19828 2.37275e-15 
-5.50633 -1.96992 6.51053e-16 
-5.29905 -2.07047 2.8552e-14 
-5.05247 -2.07439 -2.22444e-14 
-4.83313 -2.07498 7.9746e-16 
-4.62171 -2.13093 3.06031e-14 
-4.41964 -2.12645 6.37882e-15 
-4.24689 -2.13483 1.5263e-14 
-4.07522 -2.1553 1.58706e-14 
-3.90653 -2.20408 1.67655e-14 
-3.72704 -2.24186 6.57704e-15 
-3.55704 -2.3159 2.26347e-14 
-3.35309 -2.32511 6.27677e-14 
-3.1111 -2.34949 3.88553e-14 
-2.90553 -2.42923 5.19632e-14 
-2.7054 -2.48777 5.87533e-14 
-2.49368 -2.51673 6.08054e-14 
-2.20178 -2.50861 9.50632e-14 
-1.89647 -2.5337 2.90415e-14 
-1.61149 -2.53334 -1.2485e-13 
-1.45228 -2.50809 1.34974e-13 
-1.20514 -2.52807 1.19096e-13 
-1.05442 -2.5019 -3.51279e-13 
-0.909463 -2.48964 3.39659e-13 
-0.673683 -2.65254 1.20621e-14 
-0.425616 -2.63807 -5.13576e-14 
-0.21719 -2.51832 5.55554e-14 
0.0267754 -2.73331 1.19476e-14 
0.222516 -2.63782 2.92689e-14 
0.323258 -2.57829 2.34718e-13 
0.597087 -2.51291 -5.22161e-14 
0.850173 -2.64535 -5.12848e-14 
1.06334 -2.5846 4.38674e-13 
1.32617 -2.49793 -4.14647e-15 
1.49664 -2.54294 2.50843e-14 
1.69404 -2.57015 -1.42156e-13 
1.96128 -2.57205 -2.11988e-14 
2.10713 -2.58806 -3.41618e-16 
2.41983 -2.50763 -5.73669e-14 
2.75687 -2.43767 -3.14678e-14 
2.96304 -2.40935 -1.81084e-13 
3.19391 -2.38561 -3.25781e-14 
3.38403 -2.3149 4.94206e-15 
3.57317 -2.28219 -3.29617e-14 
3.75985 -2.21503 -1.72713e-14 
3.92737 -2.19468 -1.16339e-14 
4.10013 -2.2349 -3.30362e-15 
4.28157 -2.1594 -9.7822e-15 
4.48445 -2.10234 -8.6935e-15 
4.68699 -2.04974 -6.30661e-15 
4.89896 -2.07859 -2.72749e-15 
5.11702 -2.08023 2.3852e-14 
5.37993 -2.07847 -5.80619e-16 
5.58928 -2.08195 4.40589e-16 
5.82039 -2.10482 3.47674e-15 
6.00436 -2.18342 -8.66364e-16 
6.20727 -2.12178 -4.75088e-16 
6.43917 -2.09068 -9.85465e-16 
6.61698 -1.93983 -1.85658e-15 
7.009 -1.95397 -2.6769e-15 
7.19684 -2.07537 -3.0138e-15 
7.21784 -2.34646 -8.59573e-15 
7.41516 -2.49523 -7.94855e-15 
7.69642 -2.14988 -5.59789e-15 
8.00889 -1.89913 -3.73971e-15 
8.37293 -1.93239 2.17588e-14 
8.48528 -2.27222 1.98205e-11 
-8.48528 -1.40282 -2.52896e-12 
-8.29699 -1.95827 -1.45064e-15 
-7.86184 -1.8045 9.40923e-16 
[...]
POINT_DATA 1978 
VECTORS vectors float
0.000202251 0.000141541 1 
-6.00058e-05 -0.125981 0.992033 
0.000183895 -0.175543 0.984472 
-0.000605852 -0.107259 0.994231 
-0.00054112 0.0385137 0.999258 
0.000422965 0.0451896 0.998978 
0.000254625 0.0217359 0.999764 
0.000323551 -0.0479093 0.998852 
0.000370303 -0.101021 0.994884 
0.000293777 -0.136847 0.990592 
0.000330937 -0.151941 0.988389 
0.000195651 -0.125143 0.992139 
0.000265791 -0.0739137 0.997265 
0.000190909 -0.0239244 0.999714 
0.000304643 0.0139681 0.999902 
0.000163562 0.0307576 0.999527 
0.000148852 0.0369723 0.999316 
0.00021879 0.0411985 0.999151 
0.000234841 0.0525498 0.998618 
0.00033116 0.0728168 0.997345 
0.000333306 0.111994 0.993709 
0.000239592 0.153807 0.988101 
0.00012909 0.205561 0.978644 
0.000329504 0.240214 0.97072 
9.63456e-05 0.262684 0.964882 
2.26249e-05 0.282839 0.959167 
-4.69999e-05 0.296653 0.954985 
-6.81208e-06 0.295829 0.955241 
1.912e-05 0.286061 0.958211 
-5.29376e-05 0.269912 0.962885 
9.30878e-05 0.264032 0.964514 
-5.85233e-05 0.262509 0.96493 
2.40013e-05 0.296775 0.954947 
-1.26207e-05 0.388488 0.921454 
5.89391e-06 0.462675 0.886528 
-0.000104281 0.550553 0.8348 
0.000132312 0.744138 0.668026 
-0.000306259 0.880955 0.473201 
0.000153624 0.954192 0.299194 
-8.21183e-05 0.995722 -0.092397 
-5.66725e-05 0.908854 -0.417115 
0.000145879 0.801979 -0.597353 
-0.00035153 0.694891 -0.719115 
1.48402e-06 0.600631 -0.799526 
1.89728e-05 0.432769 -0.901505 
0.000132756 0.311734 -0.950169 
-0.000172273 0.272875 -0.962049 
0.00023004 0.251178 -0.967941 
-3.37185e-05 0.245832 -0.969312 
1.73411e-05 0.248073 -0.968741 
-2.12342e-05 0.266266 -0.9639 
-5.97138e-05 0.278487 -0.96044 
4.44791e-06 0.286478 -0.958087 
-8.48531e-05 0.28657 -0.958059 
-8.5778e-05 0.279346 -0.960191 
-0.000234899 0.259896 -0.965637 
-0.000187569 0.236024 -0.971747 
-0.000246218 0.19469 -0.980865 
-7.77726e-05 0.149928 -0.988697 
-6.40506e-05 0.0803028 -0.996771 
-0.000315454 0.0340396 -0.99942 
-0.000279346 0.00898343 -0.99996 
-0.000209429 -0.0105818 -0.999944 
-0.000152723 -0.0311732 -0.999514 
-0.00033418 -0.0477237 -0.998861 
-0.00033588 -0.0630757 -0.998009 
-0.000317181 -0.0815261 -0.996671 
-0.000499086 -0.0859646 -0.996298 
-0.000342739 -0.0713836 -0.997449 
-0.000630894 -0.0467819 -0.998905 
-0.000472972 -0.0211738 -0.999776 
-0.000437645 0.00434942 -0.99999 
-4.88219e-05 0.0451775 -0.998979 
-0.000242152 0.0553569 -0.998467 
0.00107784 0.0282718 -0.9996 
0.00143695 -0.0952229 -0.995455 
0.000904771 -0.149115 -0.988819 
-0.00264952 -0.103099 -0.994668 
0.0048143 -0.0102367 -0.999936 
-0.000546123 -0.000403059 1 
0.00515632 -0.100233 0.994951 
0.0270633 -0.13739 0.990147 
0.0308064 -0.0956115 0.994942 
0.03413 -0.0961775 0.994779 
0.044497 0.0684322 0.996663 
0.044548 0.0405515 0.998184 
0.0293616 -0.024384 0.999271 
0.0336171 -0.0897716 0.995395 
0.0455807 -0.075843 0.996077 
0.0330297 -0.121867 0.991997 
0.0291306 -0.119913 0.992357 
0.0333001 -0.0559873 0.997876 
0.027144 -0.0304047 0.999169 
0.0229171 0.000153746 0.999737 
0.0136445 0.0202238 0.999702 
0.00426465 0.0350788 0.999375 
-0.00726194 0.0494082 0.998752 
-0.0174494 0.0667772 0.997615 
-0.0327253 0.0931807 0.995111 
-0.0466703 0.128005 0.990675 
-0.0593445 0.169044 0.98382 
-0.0634665 0.205115 0.976678 
-0.097688 0.246968 0.964087 
-0.113784 0.273901 0.955003 
-0.113791 0.288467 0.950704 
-0.106653 0.297255 0.948823 
-0.129509 0.303046 0.944135 
-0.175629 0.296633 0.938703 
-0.142658 0.279825 0.949393 
-0.190421 0.263672 0.94563 
-0.110247 0.26717 0.957322 
-0.171533 0.279998 0.944551 
-0.0944533 0.345805 0.93354 
-0.102348 0.433435 0.895354 
-0.0713211 0.518705 0.851973 
-0.0223976 0.6338 0.773173 
-0.0161978 0.796834 0.60398 
-0.0125836 0.957225 0.289071 
-0.00455096 0.992007 0.126102 
-0.00640622 0.946876 -0.321536 
-0.00210133 0.824651 -0.565637 
0.0232947 0.639052 -0.768811 
0.0383789 0.531781 -0.846012 
0.0742141 0.396443 -0.915055 
0.137289 0.265489 -0.954289 
0.229313 0.250393 -0.940595 
0.160381 0.247642 -0.955485 
0.180856 0.247011 -0.951986 
0.0919901 0.261287 -0.960868 
0.194666 0.289437 -0.937193 
0.137669 0.289991 -0.947076 
0.121854 0.297066 -0.94705 
0.111081 0.293041 -0.949625 
0.0859171 0.271483 -0.958601 
0.0701164 0.237499 -0.968854 
0.0740121 0.213913 -0.974045 
0.0433478 0.173662 -0.983851 
0.0212171 0.116298 -0.992988 
0.0184349 0.0751597 -0.997001 
0.0145375 0.0491409 -0.998686 
0.00329343 0.0188742 -0.999816 
-0.0104895 -0.00886823 -0.999906 
-0.020682 -0.0324133 -0.999261 
-0.02865 -0.0486276 -0.998406 
-0.0307493 -0.0640404 -0.997473 
-0.0350772 -0.0688382 -0.997011 
-0.0368056 -0.0655861 -0.997168 
-0.0410054 -0.0469523 -0.998055 
-0.0433359 -0.0160296 -0.998932 
-0.0489647 0.00786789 -0.99877 
-0.0322287 0.0183757 -0.999312 
-0.0344006 0.0405925 -0.998583 
-0.0338271 0.0279972 -0.999035 
-0.0332051 -0.0825131 -0.996037 
-0.041359 -0.100366 -0.994091 
-0.0221728 -0.126417 -0.991729 
-0.0304144 -0.0507096 -0.99825 
-0.000775589 0.00305201 -0.999995 
0.000105911 0.000300347 1 
0.00376086 -0.0607741 0.998144 
0.0314049 -0.0575559 0.997848 
0.0382129 -0.0709984 0.996744 
0.0343436 -0.0272621 0.999038 
0.0211199 0.00178946 0.999775 
0.0346095 0.00904467 0.99936 
0.0395067 0.011187 0.999157 
0.0429096 -0.0129592 0.998995 
0.0450394 -0.0510627 0.997679 
0.0411314 -0.0556015 0.997605 
0.0428115 -0.098982 0.994168 
0.0262292 -0.0765633 0.99672 
0.0286127 -0.0470303 0.998484 
0.024577 -0.0222706 0.99945 
0.0119359 0.00272384 0.999925 
0.000693746 0.029367 0.999568 
-0.01189 0.0506483 0.998646 
-0.0355636 0.0795545 0.996196 
-0.0575605 0.107122 0.992578 
-0.0833691 0.139378 0.986724 
-0.101713 0.16993 0.980193 
-0.124023 0.210016 0.9698 
-0.149114 0.250456 0.956576 
-0.204315 0.296415 0.932949 
-0.241584 0.319131 0.916402 
-0.234059 0.320971 0.917711 
-0.22111 0.316717 0.922389 
-0.29443 0.31433 0.902501 
-0.320867 0.295243 0.899931 
-0.295275 0.273839 0.915328 
-0.283655 0.250686 0.925579 
-0.354979 0.239218 0.903751 
-0.249146 0.288132 0.924612 
-0.205277 0.361471 0.909505 
-0.18576 0.457124 0.869788 
-0.038587 0.692946 0.719957 
-0.0156159 0.888975 0.45769 
-0.023975 0.959555 0.280497 
-0.0146273 0.992381 0.122334 
-0.01537 0.949575 -0.313163 
0.00745716 0.732963 -0.680227 
0.0762307 0.587899 -0.805335 
0.114876 0.479933 -0.869752 
0.130393 0.296704 -0.946026 
0.427075 0.227649 -0.87509 
0.361842 0.240061 -0.9008 
0.301704 0.244522 -0.921512 
0.307181 0.25464 -0.91695 
0.169413 0.258543 -0.951028 
0.294443 0.290091 -0.910577 
0.289796 0.317506 -0.902889 
0.246102 0.323846 -0.913541 
0.226143 0.324341 -0.918511 
0.172086 0.298302 -0.93883 
0.155167 0.274735 -0.948917 
0.147468 0.252026 -0.956418 
0.107198 0.201156 -0.973676 
0.0625011 0.148476 -0.986939 
0.0620203 0.124251 -0.990311 
0.0466744 0.0896134 -0.994882 
0.026485 0.0511533 -0.99834 
0.00197896 0.0142435 -0.999897 
-0.0159955 -0.0132083 -0.999785 
-0.0295583 -0.0357367 -0.998924 
-0.040285 -0.0542394 -0.997715 
-0.0444896 -0.0587597 -0.99728 
-0.047598 -0.0583048 -0.997163 
-0.0558446 -0.0392551 -0.997667 
-0.0549739 -0.0177387 -0.99833 
-0.0481721 0.00585968 -0.998822 
-0.0408543 0.0122084 -0.999091 
-0.048809 0.0253433 -0.998487 
-0.0451133 0.0186857 -0.998807 
-0.0204151 -0.0193069 -0.999605 
-0.0481667 -0.0724458 -0.996209 
-0.0426344 -0.0779711 -0.996044 
-0.0374883 -0.0740757 -0.996548 
0.00342122 -0.00115916 -0.999993 
-0.000184453 0.000386485 1 
0.02364 -0.0697865 0.997282 
0.0145126 -0.054155 0.998427 
0.0368037 -0.0382282 0.998591 
0.0382628 -0.0176044 0.999113 
0.0374019 0.0163292 0.999167 
0.0234646 0.0127634 0.999643 
0.034188 -0.00446067 0.999405 
0.04333 -0.0154873 0.998941 
0.0473274 -0.0413277 0.998024 
0.0389122 -0.0747675 0.996441 
0.0404116 -0.0834673 0.995691 
0.0342921 -0.0663609 0.997206 
0.0165797 -0.0415462 0.998999 
0.0095879 -0.0210343 0.999733 
-0.00998394 0.0139808 0.999852 
-0.0298791 0.0467182 0.998461 
-0.0486244 0.0792904 0.995665 
-0.0814345 0.120062 0.989421 
-0.112102 0.158305 0.981006 
-0.142076 0.197103 0.970033 
-0.170824 0.233635 0.957201 
-0.203732 0.272674 0.940288 
-0.231822 0.300452 0.925196 
-0.297951 0.349505 0.888297 
-0.361756 0.377359 0.852486 
-0.369144 0.367448 0.853648 
-0.369258 0.351022 0.860484 
-0.389541 0.341803 0.855236 
-0.461028 0.326813 0.825013 
-0.460923 0.294845 0.837028 
-0.449024 0.26057 0.854682 
-0.52238 0.241768 0.817721 
-0.430054 0.227946 0.873552 
-0.361219 0.266351 0.893632 
-0.334602 0.30376 0.89206 
-0.0857366 0.57761 0.811798 
-0.0341825 0.79845 0.60109 
-0.0318508 0.948648 0.314726 
-0.00904852 0.992766 -0.119727 
-0.0106699 0.870577 -0.491916 
-0.00155244 0.797654 -0.603114 
0.165102 0.541713 -0.82419 
0.19919 0.349615 -0.915474 
0.284377 0.2599 -0.922812 
0.523992 0.233214 -0.819172 
0.463169 0.241532 -0.852723 
0.459352 0.250988 -0.852056 
0.403371 0.276516 -0.872256 
0.373244 0.288605 -0.881701 
0.412355 0.325873 -0.850747 
0.403886 0.367056 -0.837941 
0.390409 0.383428 -0.836997 
0.300652 0.359028 -0.883576 
0.271775 0.347564 -0.897406 
0.24067 0.326221 -0.914143 
0.210076 0.296838 -0.931534 
0.169397 0.250173 -0.953267 
0.120429 0.189003 -0.974564 
0.102573 0.155045 -0.982568 
0.0777839 0.112399 -0.990614 
0.0543792 0.0723621 -0.995895 
0.0265091 0.0299737 -0.999199 
0.00294686 -0.00296185 -0.999991 
-0.0178913 -0.0324793 -0.999312 
-0.0267879 -0.047718 -0.998502 
-0.0328057 -0.0536157 -0.998023 
-0.0432129 -0.0508531 -0.997771 
-0.040167 -0.0337594 -0.998623 
-0.0391591 -0.0138539 -0.999137 
-0.0290683 -0.00373365 -0.99957 
-0.0282022 0.00978753 -0.999554 
-0.0342316 0.00390152 -0.999406 
-0.0432919 0.00925233 -0.99902 
-0.0402339 -0.0251908 -0.998873 
-0.0458315 -0.0634873 -0.99693 
-0.0296081 -0.0661399 -0.997371 
-0.0113345 -0.0291386 -0.999511 
-0.000315037 -9.26833e-05 -1 
0.000337547 -0.000182682 1 
0.00776483 -0.0435614 0.999021 
0.0141377 -0.0502417 0.998637 
0.0156506 -0.0265768 0.999524 
0.0291169 -0.00638994 0.999556 
0.0323785 0.00668859 0.999453 
0.0191832 0.010574 0.99976 
0.0239897 0.00358143 0.999706 
0.0237925 -0.0204532 0.999508 
0.0307805 -0.0311287 0.999041 
0.0262293 -0.0424995 0.998752 
0.0231612 -0.0497367 0.998494 
0.0258317 -0.0568457 0.998049 
0.0207429 -0.0534303 0.998356 
-0.00538992 -0.0108858 0.999926 
-0.0176103 0.0113535 0.99978 
-0.0445339 0.0512972 0.99769 
-0.070604 0.0932835 0.993133 
-0.0997475 0.138553 0.985319 
-0.133046 0.190492 0.972631 
-0.166376 0.238683 0.956739 
-0.205066 0.287692 0.935511 
-0.242859 0.325539 0.913808 
-0.294121 0.369513 0.88145 
-0.329877 0.386488 0.861283 
-0.411714 0.429151 0.803941 
-0.494679 0.439487 0.749763 
-0.530424 0.425551 0.733183 
-0.540461 0.398241 0.741151 
-0.535455 0.362374 0.762872 
-0.568892 0.329856 0.753364 
-0.667879 0.327329 0.668426 
-0.578269 0.281331 0.765805 
-0.59636 0.215872 0.773146 
-0.703643 0.187909 0.685257 
-0.53603 0.194043 0.821595 
-0.113488 0.603631 0.789145 
-0.056787 0.703813 0.708112 
-0.0312833 0.879865 0.474192 
-0.0159065 0.992455 -0.121574 
-0.0208553 0.937331 -0.347814 
0.0393509 0.701239 -0.711839 
0.215191 0.446503 -0.86852 
0.323377 0.272227 -0.906267 
0.530499 0.214857 -0.820004 
0.621339 0.240792 -0.745625 
0.612609 0.254014 -0.748457 
0.563937 0.281645 -0.776306 
0.608469 0.320567 -0.725949 
0.569309 0.340219 -0.748424 
0.505285 0.375484 -0.776981 
0.564379 0.441319 -0.697649 
0.4721 0.443426 -0.761902 
0.399965 0.428488 -0.810201 
0.365085 0.428473 -0.826513 
0.30517 0.392883 -0.867476 
0.271759 0.376052 -0.885851 
0.224889 0.325555 -0.918389 
0.171569 0.251909 -0.952421 
0.140196 0.206373 -0.968378 
0.112784 0.164944 -0.979833 
0.0887481 0.127761 -0.987826 
0.0561348 0.0704236 -0.995936 
0.0290398 0.0260535 -0.999239 
0.00537555 -0.00936952 -0.999942 
-0.00738885 -0.031693 -0.99947 
-0.0192801 -0.0479592 -0.998663 
-0.0218127 -0.049994 -0.998511 
-0.028735 -0.0463669 -0.998511 
-0.0263734 -0.0322491 -0.999132 
-0.0189901 -0.0220383 -0.999577 
-0.0197495 0.00281491 -0.999801 
-0.013872 0.00347214 -0.999898 
-0.0404998 -0.023546 -0.998902 
-0.0287981 -0.0305489 -0.999118 
-0.0241127 -0.0480865 -0.998552 
-0.0110119 -0.0431999 -0.999006 
-0.0230838 -0.0565216 -0.998134 
-2.81495e-05 -3.30924e-05 -1 
-0.000210941 -0.00065339 1 
0.00488932 -0.0258391 0.999654 
0.00282776 -0.0305443 0.999529 
0.000868313 -0.0488082 0.998808 
-0.00392742 -0.0315564 0.999494 
0.00162014 0.00154312 0.999997 
0.0124084 0.00587163 0.999906 
0.0139958 -0.00272247 0.999898 
0.0179841 -0.0219607 0.999597 
0.0202444 -0.0346726 0.999194 
0.0195157 -0.0420774 0.998924 
0.0182598 -0.0487002 0.998647 
0.0165078 -0.0485695 0.998683 
0.00481207 -0.0295321 0.999552 
-0.0191498 0.00593901 0.999799 
-0.0354312 0.0330725 0.998825 
-0.0652776 0.0850512 0.994236 
-0.0915437 0.132562 0.986938 
-0.119761 0.183682 0.975663 
-0.150885 0.241478 0.958604 
-0.184348 0.296685 0.937013 
-0.224079 0.349901 0.909592 
-0.271497 0.398285 0.876161 
-0.325248 0.445196 0.834275 
-0.394685 0.490326 0.777048 
-0.425292 0.478656 0.768124 
-0.528891 0.493995 0.690104 
-0.631019 0.518846 0.576727 
-0.671031 0.488344 0.557887 
-0.66397 0.43117 0.61093 
-0.673043 0.384729 0.631661 
-0.745317 0.378649 0.548751 
-0.754305 0.3175 0.574645 
-0.69905 0.252835 0.668882 
-0.766882 0.229717 0.599268 
-0.813333 0.192021 0.549197 
-0.250996 0.451331 0.85633 
-0.0576431 0.741112 0.668902 
-0.0519762 0.859264 0.508885 
-0.0217133 0.999401 -0.0269548 
-0.0117792 0.858362 -0.51291 
0.41347 0.339017 -0.84505 
0.336046 0.31375 -0.888051 
0.655343 0.220863 -0.722319 
0.651112 0.230248 -0.723214 
0.700451 0.287333 -0.653306 
0.736578 0.331137 -0.589746 
0.740593 0.381615 -0.553075 
0.641397 0.397412 -0.656257 
0.677535 0.46637 -0.568723 
0.667825 0.534932 -0.51755 
0.569054 0.513772 -0.64204 
0.488456 0.517857 -0.702307 
0.447039 0.53533 -0.716643 
0.37454 0.491774 -0.786052 
0.327785 0.477913 -0.814958 
0.276951 0.430426 -0.859088 
0.221346 0.350024 -0.910214 
0.180118 0.28694 -0.940863 
0.148799 0.244112 -0.958263 
0.118201 0.197614 -0.973128 
0.0826595 0.12796 -0.988329 
0.0532592 0.0700407 -0.996121 
0.0276211 0.0231965 -0.999349 
0.00980252 -0.00728107 -0.999925 
-0.00682812 -0.0353598 -0.999351 
-0.0141395 -0.0467323 -0.998807 
-0.0174277 -0.0481363 -0.998689 
-0.0208576 -0.0429505 -0.998859 
-0.0164908 -0.0361642 -0.99921 
-0.0130745 -0.0158687 -0.999789 
-0.00868516 0.00419672 -0.999953 
0.00168632 0.00293672 -0.999994 
-0.0196642 -0.00524035 -0.999793 
-0.00668123 -0.0189735 -0.999798 
-0.00687193 -0.0493918 -0.998756 
0.00178753 -0.042119 -0.999111 
-0.00672179 -0.0285599 -0.999569 
-8.72707e-06 -0.000467716 -1 
3.25931e-05 -0.000312076 1 
-0.0066622 -0.0209894 0.999758 
-0.010334 -0.038404 0.999209 
-0.0146983 -0.0112581 0.999829 
0.00094355 -0.0062662 0.99998 
-0.00710721 -0.000606102 0.999975 
0.00221497 0.00189359 0.999996 
0.00971478 -0.0112959 0.999889 
0.0176211 -0.0274117 0.999469 
0.0200944 -0.036432 0.999134 
0.0207457 -0.0421116 0.998898 
0.0165132 -0.0422301 0.998971 
0.00948183 -0.0356394 0.99932 
0.00354252 -0.029181 0.999568 
-0.00999239 -0.00724774 0.999924 
-0.0389203 0.0484966 0.998065 
-0.0594533 0.0860095 0.994519 
-0.0853485 0.147865 0.985318 
-0.111408 0.2025 0.972924 
-0.140446 0.263744 0.954313 
-0.17601 0.332907 0.926387 
-0.21752 0.402357 0.889266 
-0.263539 0.460974 0.847378 
-0.318033 0.513852 0.796751 
-0.382934 0.558814 0.735587 
-0.459366 0.632769 0.623367 
-0.501956 0.599626 0.623288 
-0.515043 0.539425 0.666146 
-0.644367 0.588409 0.488432 
-0.741614 0.572399 0.349811 
-0.761258 0.501784 0.41073 
-0.771379 0.449985 0.449986 
-0.830644 0.430749 0.352824 
-0.789914 0.363929 0.49355 
-0.775755 0.285675 0.562667 
-0.873403 0.275032 0.401901 
-0.732661 0.136401 0.666785 
-0.586438 0.201839 0.784443 
-0.175486 0.579529 0.795834 
-0.0233387 0.999727 -0.000772851 
0.102527 0.642677 -0.759246 
0.492957 0.218433 -0.842188 
0.777721 0.235991 -0.58263 
0.755296 0.244624 -0.608019 
0.747809 0.266695 -0.607992 
0.843034 0.338599 -0.417905 
0.837247 0.392594 -0.380641 
0.7616 0.432673 -0.482451 
0.773679 0.507464 -0.379344 
0.74904 0.586412 -0.308318 
0.662378 0.611915 -0.432221 
0.581448 0.594121 -0.555822 
0.533214 0.634521 -0.559523 
0.459982 0.624463 -0.631239 
0.394867 0.592664 -0.702018 
0.339329 0.570734 -0.747743 
0.279269 0.498142 -0.820892 
0.231481 0.425889 -0.874663 
0.191299 0.356673 -0.914434 
0.156774 0.30287 -0.940049 
0.125777 0.246949 -0.960831 
0.0964169 0.178301 -0.979241 
0.0684871 0.117754 -0.990678 
0.0439748 0.0638286 -0.996992 
0.0239766 0.0258505 -0.999378 
0.00513185 -0.0126502 -0.999907 
-0.00648692 -0.0323138 -0.999457 
-0.0129452 -0.0445047 -0.998925 
-0.0162923 -0.0460578 -0.998806 
-0.0178493 -0.0435877 -0.99889 
-0.0129734 -0.0323154 -0.999394 
-0.00556738 -0.0135558 -0.999893 
0.00293713 -0.0022835 -0.999993 
0.000351361 -0.00459639 -0.999989 
0.0131628 -0.0118107 -0.999844 
0.00289176 -0.0309906 -0.999515 
0.0127215 -0.033933 -0.999343 
-1.81081e-05 -0.0300813 -0.999547 
4.99906e-05 -0.0005606 -1 
6.79926e-05 9.83698e-05 1 
-0.0183285 -0.0240838 0.999542 
-0.0094882 -0.0270489 0.999589 
-0.0198354 -0.0233292 0.999531 
-0.0145047 -0.00139974 0.999894 
-0.00994566 -0.00011348 0.999951 
-0.00235043 -0.0025106 0.999994 
0.00689732 -0.0135029 0.999885 
0.0186288 -0.0292394 0.999399 
0.022377 -0.038353 0.999014 
0.0236354 -0.0418827 0.998843 
0.0183804 -0.0392358 0.999061 
0.0106313 -0.0297535 0.999501 
-0.00116924 -0.0116903 0.999931 
-0.0229098 0.0254337 0.999414 
-0.0431624 0.0863933 0.995326 
-0.0640473 0.127013 0.989831 
-0.0855198 0.191835 0.977694 
-0.108855 0.245557 0.963251 
-0.136786 0.317772 0.938249 
-0.167904 0.380875 0.909254 
-0.208581 0.460364 0.862878 
-0.256017 0.540882 0.801188 
-0.306609 0.600284 0.738681 
-0.361149 0.642504 0.67584 
-0.421045 0.696129 0.581486 
-0.504144 0.751377 0.425759 
-0.565127 0.695959 0.443026 
-0.608573 0.6322 0.479544 
-0.710551 0.653554 0.26074 
-0.75858 0.645377 0.0896931 
-0.81019 0.561168 0.169356 
-0.837475 0.5029 0.213839 
-0.880572 0.412289 0.233691 
-0.85163 0.356087 0.384614 
-0.860758 0.320748 0.395243 
-0.907583 0.165222 0.385999 
-0.480067 0.173939 0.859814 
-0.0807542 0.697867 0.71166 
-0.0249024 0.998505 0.0486614 
0.00974353 0.730318 -0.683038 
0.562765 0.181427 -0.806461 
0.854917 0.254978 -0.451778 
0.82694 0.291251 -0.480982 
0.911319 0.337524 -0.235746 
0.891204 0.415976 -0.180885 
0.845116 0.443931 -0.297831 
0.83121 0.510898 -0.219254 
0.76461 0.640308 -0.0733291 
0.703923 0.663784 -0.25275 
0.622301 0.684865 -0.379081 
0.563295 0.726199 -0.394124 
0.496412 0.723131 -0.480268 
0.422505 0.700505 -0.575137 
0.357951 0.686059 -0.633399 
0.303368 0.620552 -0.723106 
0.252517 0.539679 -0.803108 
0.208303 0.45909 -0.863624 
0.171535 0.39471 -0.902652 
0.139205 0.329733 -0.933755 
0.109575 0.255707 -0.960525 
0.0850616 0.189397 -0.978209 
0.0598228 0.127497 -0.990033 
0.0388787 0.0762418 -0.996331 
0.0155455 0.021053 -0.999657 
5.89681e-05 -0.00985338 -0.999951 
-0.0120983 -0.0313318 -0.999436 
-0.0170585 -0.0436121 -0.998903 
-0.0210117 -0.0448759 -0.998772 
-0.0204447 -0.0429979 -0.998866 
-0.0134145 -0.033444 -0.999351 
-0.00420805 -0.020134 -0.999788 
0.00739888 -0.00679679 -0.99995 
0.0130536 0.000165106 -0.999915 
0.0226181 -0.00272003 -0.99974 
0.0244445 -0.0123993 -0.999624 
0.0221108 -0.0299913 -0.999306 
0.00841711 -0.0257568 -0.999633 
0.000139368 -0.000503301 -1 
-0.000209361 0.000252855 1 
-0.0132737 -0.0280145 0.999519 
-0.0215571 -0.0283873 0.999365 
-0.0236559 -0.0222255 0.999473 
-0.0211817 -0.0102264 0.999723 
-0.00627752 -0.00621876 0.999961 
0.00369232 -0.0117288 0.999924 
0.0178482 -0.0262033 0.999497 
0.0267451 -0.0368434 0.998963 
0.0289353 -0.0395815 0.998797 
0.025658 -0.0388836 0.998914 
0.0204295 -0.0320114 0.999279 
0.0107969 -0.0186912 0.999767 
-0.00138039 0.00491062 0.999987 
-0.017414 0.0321925 0.99933 
-0.0298512 0.0813914 0.996235 
-0.0527856 0.146027 0.987871 
-0.071874 0.200547 0.977044 
-0.0938547 0.270499 0.958134 
-0.116825 0.330419 0.936576 
-0.147098 0.416259 0.897269 
-0.18125 0.488262 0.853668 
-0.21966 0.565566 0.794911 