# vtk DataFile Version 3.0 
Exported using Morpho https://github.com/Morpho-lang/morpho 
ASCII 
DATASET UNSTRUCTURED_GRID 

POINTS 1978 float 
-8.48528 -2.82843 -3.8121e-09 
-8.25126 -2.82843 -5.50619e-09 
-8.05619 -2.82843 -3.38586e-09 
-7.59694 -2.82843 -3.7503e-09 
-7.24537 -2.82843 -1.31676e-09 
-7.05256 -2.82843 -7.21028e-10 
-6.85093 -2.82843 -2.34228e-09 
-6.65204 -2.82843 -3.79558e-09 
-6.46416 -2.82843 -5.18499e-09 
-6.27333 -2.82843 -4.85775e-09 
-6.08097 -2.82843 -3.90771e-09 
-5.82589 -2.82843 -1.54332e-09 
-5.62847 -2.82843 -1.45369e-09 
-5.41176 -2.82843 -1.64516e-09 
-5.22458 -2.82843 -1.22322e-09 
-5.03545 -2.82843 -1.10424e-09 
-4.82521 -2.82843 -6.85671e-10 
-4.59924 -2.82843 -2.80165e-10 
-4.38461 -2.82843 1.35337e-10 
-4.16997 -2.82843 5.86515e-10 
-3.95739 -2.82843 1.64574e-09 
-3.75605 -2.82843 2.49596e-09 
-3.55571 -2.82843 2.95348e-09 
-3.34879 -2.82843 3.31005e-09 
-3.13626 -2.82843 4.04957e-09 
-2.92758 -2.82843 4.74635e-09 
-2.717 -2.82843 3.49758e-09 
-2.50276 -2.82843 1.74961e-09 
-2.25598 -2.82843 -1.63933e-09 
-2.02105 -2.82843 -4.03293e-09 
-1.80975 -2.82843 -7.59786e-09 
-1.61184 -2.82843 -1.35729e-08 
-1.21277 -2.82843 -2.61794e-08 
-1.03364 -2.82843 -2.76984e-08 
-0.857928 -2.82843 -1.7864e-08 
-0.706215 -2.82843 -1.50983e-08 
-0.594001 -2.82843 -1.34205e-08 
-0.457194 -2.82843 5.72087e-10 
-0.184067 -2.82843 -7.97689e-09 
-0.0245382 -2.82843 4.80092e-09 
0.137709 -2.82842 -1.81573e-11 
0.470272 -2.82843 -1.30263e-08 
0.60286 -2.82843 5.67633e-08 
0.732186 -2.82843 2.60901e-09 
0.879494 -2.82843 3.48623e-08 
1.1227 -2.82843 2.24057e-08 
1.26536 -2.82843 8.05902e-09 
1.482 -2.82843 3.21964e-09 
1.64783 -2.82843 8.69929e-09 
1.96063 -2.82843 1.32023e-08 
2.21892 -2.82843 8.13596e-09 
2.52644 -2.82843 3.97904e-09 
2.73398 -2.82843 -4.01633e-09 
2.99549 -2.82843 -4.1193e-09 
3.16639 -2.82843 -4.62885e-09 
3.38155 -2.82843 -4.52074e-09 
3.56651 -2.82843 -3.75732e-09 
3.75734 -2.82843 -2.66663e-09 
3.97893 -2.82843 -1.29369e-09 
4.20256 -2.82843 -5.15649e-10 
4.41377 -2.82843 6.12918e-11 
4.6431 -2.82843 4.01919e-10 
4.85759 -2.82843 7.11697e-10 
5.06158 -2.82843 1.14953e-09 
5.26968 -2.82843 1.73509e-09 
5.46576 -2.82843 1.98182e-09 
5.65745 -2.82843 2.10874e-09 
5.87839 -2.82843 1.92463e-09 
6.09648 -2.82843 2.19447e-09 
6.31639 -2.82843 3.0894e-09 
6.50702 -2.82843 4.11175e-09 
6.70599 -2.82843 3.85848e-09 
6.88508 -2.82843 1.52785e-09 
7.17713 -2.82843 1.99714e-09 
7.47624 -2.82843 3.72466e-09 
7.7065 -2.82843 2.9192e-09 
8.10365 -2.82843 8.40053e-10 
8.29384 -2.82843 4.1041e-09 
8.48528 -2.82843 7.99842e-10 
-8.48528 -2.58029 -4.48026e-10 
-8.21979 -2.52168 3.63583e-10 
-7.92898 -2.69817 -2.19817e-10 
-7.94985 -2.48183 -2.09973e-10 
-7.65687 -2.61995 -5.72698e-11 
-7.15432 -2.5671 -7.92401e-11 
-6.94967 -2.57838 -8.50401e-11 
-6.73027 -2.59183 -9.85535e-11 
-6.50321 -2.57149 -1.69024e-10 
-6.31745 -2.37147 -6.80479e-12 
-6.26982 -2.57605 -8.64999e-11 
-5.9938 -2.64915 -1.21906e-10 
-5.73808 -2.59183 1.18491e-11 
-5.50583 -2.60559 -6.63345e-11 
-5.28333 -2.57286 -4.82186e-11 
-5.07482 -2.56872 -2.83985e-11 
-4.86224 -2.58316 -2.08831e-11 
-4.62883 -2.5915 -8.25578e-12 
-4.38985 -2.58065 1.23066e-11 
-4.16765 -2.58183 3.04931e-11 
-3.95541 -2.58081 5.46314e-11 
-3.74885 -2.58612 7.66894e-11 
-3.54155 -2.5965 7.60316e-11 
-3.32747 -2.60455 4.94176e-11 
-3.1176 -2.60777 -3.31907e-11 
-2.90386 -2.6195 -8.94256e-11 
-2.68243 -2.63184 1.05659e-10 
-2.44213 -2.66154 -1.12883e-12 
-2.19658 -2.66553 -1.78323e-10 
-1.97347 -2.65651 -1.70488e-10 
-1.7512 -2.67009 1.27703e-09 
-1.46635 -2.7675 -2.65538e-09 
-1.3299 -2.70916 2.2277e-09 
-1.14347 -2.72906 1.89186e-09 
-0.961976 -2.73414 2.27677e-09 
-0.776927 -2.73878 5.77934e-09 
-0.508426 -2.74509 4.7304e-09 
-0.330345 -2.78471 -1.02275e-10 
-0.113614 -2.75071 1.51746e-10 
0.021995 -2.75437 -1.86082e-10 
0.138734 -2.72567 2.81783e-10 
0.366938 -2.79177 -2.11905e-10 
0.539754 -2.7374 -1.82941e-09 
0.831346 -2.71982 -2.28724e-09 
0.985457 -2.76235 3.02495e-09 
1.22534 -2.69825 3.66703e-10 
1.40046 -2.71469 1.79038e-09 
1.56692 -2.65709 -2.59143e-11 
1.76645 -2.71704 1.78496e-10 
2.08211 -2.68478 -1.54912e-09 
2.35873 -2.70264 1.30908e-09 
2.60639 -2.63762 -7.44695e-11 
2.84808 -2.67057 -7.1647e-11 
3.04578 -2.57705 9.46777e-11 
3.25108 -2.62724 -5.83026e-11 
3.45082 -2.58767 -3.77119e-11 
3.64306 -2.57987 -1.06558e-10 
3.84896 -2.60083 -5.8623e-11 
4.07595 -2.59135 -4.02458e-11 
4.29301 -2.56796 -2.69418e-11 
4.51541 -2.5863 -2.26683e-12 
4.7396 -2.57546 1.46141e-11 
4.95713 -2.57655 3.11509e-11 
5.17149 -2.59497 3.34881e-11 
5.38671 -2.58459 5.40616e-11 
5.58872 -2.57196 6.30746e-11 
5.7974 -2.59465 4.16971e-11 
6.02287 -2.58326 6.94842e-11 
6.24508 -2.58548 8.201e-11 
6.45651 -2.5526 1.09529e-10 
6.65574 -2.56821 8.6302e-11 
6.85972 -2.53606 8.07451e-11 
7.05067 -2.65618 1.20969e-10 
7.3763 -2.647 1.63626e-10 
7.64502 -2.58231 1.50482e-10 
7.88702 -2.53702 2.7447e-11 
7.9936 -2.68386 1.69779e-10 
8.25575 -2.52 -9.58998e-11 
8.48528 -2.57925 5.12734e-10 
-8.48528 -2.29453 -3.83398e-09 
-8.26402 -2.29608 2.09895e-10 
-7.91281 -2.21484 -2.33784e-10 
-7.72924 -2.38909 -1.44463e-10 
-7.51605 -2.35428 -7.87385e-11 
-7.41217 -2.65181 -1.26715e-10 
-7.12399 -2.29363 -8.39392e-11 
-6.89834 -2.34319 -8.97936e-11 
-6.66583 -2.36326 -9.53225e-11 
-6.47847 -2.24127 -6.54744e-11 
-6.11015 -2.25358 -6.2191e-11 
-6.02627 -2.45101 -8.99486e-11 
-5.80195 -2.37348 -1.14466e-10 
-5.5692 -2.37073 -3.41619e-11 
-5.35786 -2.34601 -4.55139e-11 
-5.14294 -2.321 -1.80797e-11 
-4.92875 -2.32476 -1.03702e-11 
-4.71011 -2.35185 4.34355e-12 
-4.47871 -2.3519 2.47653e-11 
-4.25109 -2.33794 4.26335e-11 
-4.04062 -2.33722 4.76245e-11 
-3.83787 -2.34174 3.85813e-11 
-3.63971 -2.35375 4.29204e-11 
-3.43967 -2.37651 -2.89254e-12 
-3.23391 -2.38099 -1.66614e-10 
-3.03093 -2.40315 -1.08673e-10 
-2.81828 -2.43382 -3.70365e-10 
-2.59646 -2.46741 -4.13958e-10 
-2.37002 -2.501 -1.20004e-09 
-2.14835 -2.50224 -3.70795e-10 
-1.89792 -2.51928 -1.14442e-09 
-1.58888 -2.63654 -6.71876e-09 
-1.44383 -2.59917 7.12402e-09 
-1.21 -2.61449 -2.50619e-09 
-1.06825 -2.63373 -2.37973e-09 
-0.875988 -2.65872 -6.47922e-09 
-0.631035 -2.72154 -3.68863e-09 
-0.378769 -2.6997 -5.67209e-11 
-0.244739 -2.71864 2.36745e-10 
0.0209588 -2.66426 -4.62326e-10 
0.251967 -2.75959 -5.63794e-10 
0.429815 -2.7063 -2.59538e-09 
0.650374 -2.70966 -2.52118e-09 
0.732222 -2.65703 4.4491e-09 
1.08487 -2.69317 1.62928e-09 
1.16824 -2.57281 1.08557e-09 
1.3378 -2.5943 -6.93011e-10 
1.67475 -2.53576 6.89189e-10 
1.88433 -2.60975 -8.46195e-10 
2.13827 -2.54246 2.04594e-09 
2.34656 -2.54224 -1.21998e-10 
2.55493 -2.47698 4.16094e-10 
2.80576 -2.48556 2.49629e-10 
2.99252 -2.37437 3.2619e-10 
3.21407 -2.40728 8.45248e-11 
3.41745 -2.37002 3.04101e-12 
3.61229 -2.33796 2.90107e-11 
3.80569 -2.35252 -7.77852e-11 
4.0018 -2.36673 -6.16283e-11 
4.21573 -2.3252 -4.7916e-11 
4.43505 -2.32796 -2.99552e-11 
4.64585 -2.33025 -1.27149e-11 
4.86771 -2.32909 5.23911e-12 
5.0878 -2.344 2.16317e-11 
5.29616 -2.35706 2.91512e-11 
5.50561 -2.32727 2.82172e-11 
5.71703 -2.34045 3.07872e-11 
5.92751 -2.35423 4.39062e-11 
6.16016 -2.34339 2.43077e-11 
6.37463 -2.31321 3.3937e-11 
6.59668 -2.30284 5.79234e-11 
6.80167 -2.29101 4.24613e-11 
7.0479 -2.37094 9.072e-11 
7.24407 -2.49259 5.20596e-11 
7.54049 -2.39468 8.76654e-11 
7.83019 -2.33721 2.01767e-10 
8.03305 -2.16742 1.1913e-10 
8.13964 -2.37112 8.9606e-11 
8.48528 -2.3205 -4.32138e-10 
-8.48528 -2.02222 -4.6521e-09 
-8.13113 -2.19094 -1.38271e-10 
-8.14446 -1.91851 -6.93449e-12 
-7.70227 -2.11289 -8.39462e-11 
-7.54373 -1.98604 -3.02999e-11 
-7.31699 -2.39279 -7.75891e-11 
-7.1167 -2.05346 -9.30952e-11 
-6.87584 -2.10392 -3.8418e-11 
-6.65385 -2.10289 -1.02176e-11 
-6.28042 -2.09464 1.83002e-11 
-6.06198 -2.00954 5.46858e-11 
-5.8848 -2.16018 2.09605e-11 
-5.65878 -2.13681 1.49939e-11 
-5.45082 -2.10849 -1.42593e-12 
-5.24346 -2.08957 3.2073e-12 
-5.02602 -2.07748 1.10692e-12 
-4.80147 -2.09192 8.8061e-12 
-4.58578 -2.1138 2.27968e-11 
-4.36956 -2.10484 2.80383e-11 
-4.16309 -2.09183 2.60964e-11 
-3.96857 -2.09507 1.41286e-11 
-3.77974 -2.10357 -7.57355e-12 
-3.58771 -2.12378 -3.53771e-11 
-3.39092 -2.15706 -8.16652e-11 
-3.18816 -2.16754 -1.6717e-10 
-2.99102 -2.20586 -4.71399e-10 
-2.79516 -2.24866 -3.34076e-10 
-2.60119 -2.28893 -5.59902e-10 
-2.40666 -2.32635 -3.47466e-09 
-2.21109 -2.34557 3.12686e-09 
-2.01165 -2.38134 -8.32266e-10 
-1.71719 -2.4857 1.83498e-09 
-1.57222 -2.45613 -6.4345e-09 
-1.3057 -2.53021 -2.66548e-10 
-1.11678 -2.5049 2.04986e-09 
-0.980568 -2.56629 3.72341e-09 
-0.720804 -2.64046 -8.03786e-10 
-0.476277 -2.64649 -2.11728e-09 
-0.259005 -2.62168 -1.39047e-09 
-0.0300625 -2.58188 4.57361e-10 
0.297453 -2.67017 -1.49947e-09 
0.528694 -2.62772 -1.23765e-09 
0.616548 -2.56374 1.03614e-08 
0.925198 -2.6442 -1.50902e-09 
1.03118 -2.56552 -3.88838e-09 
1.32022 -2.47416 2.59326e-09 
1.49381 -2.52286 1.72751e-09 
1.84847 -2.45993 3.26866e-09 
2.04346 -2.43141 -1.44694e-09 
2.24889 -2.36238 5.56633e-10 
2.41528 -2.3488 7.04915e-10 
2.68103 -2.32431 3.90434e-10 
2.8433 -2.24163 4.74246e-10 
3.09494 -2.19357 3.19598e-10 
3.28597 -2.18563 2.06316e-10 
3.47446 -2.12844 6.76838e-11 
3.66454 -2.10534 4.56918e-11 
3.85261 -2.10815 -1.61626e-11 
4.04644 -2.12204 -2.64257e-11 
4.26343 -2.08444 -1.58409e-11 
4.47006 -2.06945 -2.74636e-11 
4.69259 -2.08674 -1.43063e-11 
4.92165 -2.09402 -5.43297e-12 
5.14155 -2.10125 -1.00259e-12 
5.34856 -2.1095 -2.60734e-12 
5.56974 -2.09047 -4.81733e-12 
5.77896 -2.09796 -6.52204e-14 
5.99902 -2.12343 8.34751e-12 
6.21597 -2.08465 -1.05921e-11 
6.43362 -2.06694 -5.14823e-12 
6.64096 -2.04146 -1.49152e-12 
6.8943 -2.09672 1.04939e-11 
7.12626 -2.1496 6.19391e-11 
7.34642 -2.27112 1.28354e-10 
7.50407 -2.04263 -4.55834e-12 
7.6678 -2.16879 8.83659e-11 
7.86853 -2.03973 5.03407e-11 
8.28285 -2.18061 1.50063e-11 
8.48528 -2.05634 -7.51078e-10 
-8.48528 -1.56284 -2.76371e-09 
-8.36148 -1.91712 5.46576e-11 
-7.93257 -1.9412 -1.26544e-11 
[...]
POINT_DATA 1978 
VECTORS vectors float
0.00143846 -0.00195213 0.999997 
0.00109792 -0.0833128 0.996523 
0.00162505 -0.12874 0.991677 
0.0020113 -0.0515728 0.998667 
0.00130607 -0.00975418 0.999952 
0.000980487 -0.00210351 0.999997 
0.000961763 -0.0164921 0.999863 
0.00103349 -0.0447591 0.998997 
0.0010229 -0.0733417 0.997306 
0.000974373 -0.0983135 0.995155 
0.00085824 -0.102892 0.994692 
0.000735756 -0.0797312 0.996816 
0.000751046 -0.0478093 0.998856 
0.000817074 -0.0161045 0.99987 
0.000931597 -0.00474048 0.999988 
0.000924423 -0.00278685 0.999996 
0.000908817 -0.0106718 0.999943 
0.000852023 -0.0157643 0.999875 
0.000829979 -0.013101 0.999914 
0.000830229 -0.00303021 0.999995 
0.000803906 0.0134574 0.999909 
0.000741652 0.0348798 0.999391 
0.000662214 0.0617945 0.998089 
0.000599932 0.0955475 0.995425 
0.000560873 0.133648 0.991029 
0.000516189 0.17174 0.985142 
0.000459014 0.208836 0.97795 
0.000413836 0.244385 0.969678 
0.000336185 0.281468 0.959571 
0.000268544 0.311273 0.95032 
0.000189396 0.33502 0.942211 
6.52749e-05 0.355612 0.934634 
-3.08055e-05 0.430136 0.902764 
-0.000236338 0.485129 0.874443 
-5.56667e-05 0.553957 0.832545 
-0.000282987 0.654582 0.755991 
-0.000351092 0.720742 0.693204 
3.40293e-05 0.824972 0.565173 
-8.65329e-05 0.96254 0.271141 
-8.96651e-06 0.999359 0.035789 
8.8081e-05 0.971328 -0.237743 
-0.000127254 0.802277 -0.596952 
0.000338367 0.728619 -0.684919 
0.000302821 0.604905 -0.796297 
5.40038e-05 0.539276 -0.842129 
0.000123306 0.450098 -0.892979 
-2.06235e-05 0.40998 -0.912095 
-0.000101698 0.371472 -0.928444 
-0.00018236 0.346468 -0.938062 
-0.000317533 0.304767 -0.952427 
-0.000422094 0.278836 -0.960339 
-0.00046571 0.232142 -0.972682 
-0.000506352 0.198857 -0.980028 
-0.000515184 0.156352 -0.987701 
-0.000626388 0.128727 -0.99168 
-0.000609184 0.0954685 -0.995432 
-0.000721656 0.0685553 -0.997647 
-0.00071695 0.0428019 -0.999083 
-0.000762692 0.0186074 -0.999827 
-0.000812682 0.000563562 -0.999999 
-0.000866515 -0.00905746 -0.999959 
-0.000879645 -0.0136088 -0.999907 
-0.00088458 -0.015233 -0.999884 
-0.000879708 -0.015935 -0.999873 
-0.000872898 -0.0192002 -0.999815 
-0.000893923 -0.0276576 -0.999617 
-0.000861502 -0.0387314 -0.999249 
-0.000835254 -0.0528377 -0.998603 
-0.000821694 -0.0616928 -0.998095 
-0.000905546 -0.0597842 -0.998211 
-0.000962817 -0.0545485 -0.998511 
-0.00100943 -0.0458728 -0.998947 
-0.00109138 -0.0418121 -0.999125 
-0.00130792 -0.0424238 -0.999099 
-0.0014455 -0.0518791 -0.998652 
-0.00164308 -0.0599086 -0.998203 
-0.00140643 -0.0749649 -0.997185 
-0.00117503 -0.0470452 -0.998892 
-0.000825301 -0.00249748 -0.999996 
0.000491889 -0.000709273 0.999999 
0.00389181 -0.0715075 0.997432 
0.0231566 -0.109953 0.993667 
0.0416297 -0.0822335 0.995743 
0.0316474 -0.0662131 0.997303 
0.0359812 -0.0140804 0.999253 
0.0323168 -0.015276 0.999361 
0.0332872 -0.0335435 0.998883 
0.0360212 -0.0600595 0.997545 
0.0373092 -0.0684465 0.996957 
0.0287238 -0.0787353 0.996482 
0.0229708 -0.0883361 0.995826 
0.020755 -0.0584189 0.998076 
0.0217906 -0.0308017 0.999288 
0.0260379 -0.0164819 0.999525 
0.0265597 -0.0111801 0.999585 
0.0246841 -0.0102804 0.999642 
0.0223579 -0.0109305 0.99969 
0.0180719 -0.00536255 0.999822 
0.0112714 0.00800162 0.999904 
0.00134029 0.0275034 0.999621 
-0.0113993 0.0518318 0.998591 
-0.0272815 0.0821876 0.996243 
-0.0452036 0.117022 0.9921 
-0.0645036 0.153465 0.986046 
-0.0818165 0.190385 0.978294 
-0.0977222 0.226126 0.969184 
-0.098488 0.260834 0.960347 
-0.118094 0.296782 0.947615 
-0.145613 0.326795 0.93381 
-0.161086 0.352757 0.921745 
-0.0710171 0.382048 0.92141 
-0.127851 0.411177 0.902545 
-0.131542 0.456084 0.880161 
-0.109765 0.51156 0.852208 
-0.0857129 0.592394 0.801076 
-0.0406213 0.774135 0.631716 
-0.0073937 0.899902 0.436029 
-0.00649043 0.987916 0.154857 
-0.000138884 0.999807 -0.019655 
0.00363102 0.976905 -0.213641 
0.00432498 0.867 -0.498289 
0.0466629 0.705982 -0.706691 
0.108937 0.558205 -0.822521 
0.0771431 0.502964 -0.860858 
0.151567 0.423 -0.893363 
0.128511 0.385951 -0.913524 
0.18429 0.362965 -0.913397 
0.109388 0.334717 -0.935948 
0.123251 0.30333 -0.944881 
0.0888273 0.264044 -0.960412 
0.110542 0.233292 -0.966103 
0.0653902 0.192296 -0.979156 
0.0864988 0.172918 -0.981131 
0.0485526 0.132096 -0.990047 
0.0385917 0.103883 -0.99384 
0.0208976 0.0738817 -0.997048 
0.00532071 0.0441945 -0.999009 
-0.00612497 0.0212449 -0.999756 
-0.0164512 0.00517038 -0.999851 
-0.021329 -0.0069172 -0.999749 
-0.0249972 -0.0129469 -0.999604 
-0.0261399 -0.0160102 -0.99953 
-0.0241413 -0.0190181 -0.999528 
-0.0256965 -0.0251653 -0.999353 
-0.0262282 -0.034115 -0.999074 
-0.0235637 -0.0447628 -0.99872 
-0.0256074 -0.0530565 -0.998263 
-0.027242 -0.0554154 -0.998092 
-0.0326318 -0.052213 -0.998103 
-0.032231 -0.0471505 -0.998368 
-0.0359209 -0.0423043 -0.998459 
-0.0288779 -0.0399453 -0.998784 
-0.0339811 -0.0451893 -0.9984 
-0.0414085 -0.0534086 -0.997714 
-0.0439135 -0.0636576 -0.997005 
-0.0270801 -0.0690731 -0.997244 
-0.0161122 -0.0457077 -0.998825 
-0.000823646 -0.000276437 -0.999999 
0.0029582 -0.00107535 0.999995 
0.0106436 -0.0496178 0.998712 
0.050067 -0.0577538 0.997075 
0.0463609 -0.0517968 0.997581 
0.0477152 -0.036734 0.998185 
0.0271566 -0.0260046 0.999293 
0.0473227 -0.0216741 0.998644 
0.0455791 -0.0258333 0.998627 
0.0451348 -0.0425976 0.998072 
0.0414068 -0.0540874 0.997677 
0.0346607 -0.0638875 0.997355 
0.0341828 -0.0742072 0.996657 
0.0329192 -0.0556439 0.997908 
0.0287337 -0.037554 0.998881 
0.0294858 -0.0240932 0.999275 
0.0288068 -0.0172038 0.999437 
0.0293936 -0.0131796 0.999481 
0.0288454 -0.00986141 0.999535 
0.0241926 -0.00225082 0.999705 
0.0118755 0.0147781 0.99982 
-0.00563099 0.0378249 0.999269 
-0.0278205 0.0657896 0.997446 
-0.052549 0.096869 0.993909 
-0.081439 0.131435 0.987974 
-0.116871 0.170171 0.978459 
-0.148103 0.204521 0.967593 
-0.178795 0.239091 0.954394 
-0.19733 0.267488 0.943139 
-0.211771 0.29617 0.931362 
-0.249577 0.330329 0.910271 
-0.277056 0.36028 0.890752 
-0.212809 0.375347 0.902124 
-0.26897 0.405851 0.873464 
-0.263434 0.439382 0.858805 
-0.260165 0.475072 0.840607 
-0.1848 0.543557 0.818776 
-0.0968235 0.685842 0.72128 
-0.0320663 0.866749 0.497712 
-0.0164978 0.938203 0.345693 
-0.000402486 0.999933 -0.0115868 
0.00547709 0.92672 -0.375714 
0.0436736 0.809076 -0.586078 
0.105239 0.652591 -0.750366 
0.154305 0.60382 -0.782043 
0.153218 0.463159 -0.872931 
0.287342 0.445836 -0.847741 
0.275416 0.403692 -0.872456 
0.319755 0.372958 -0.87101 
0.206114 0.332667 -0.920244 
0.245307 0.320966 -0.91477 
0.19067 0.285143 -0.939329 
0.214277 0.274127 -0.937518 
0.157787 0.227465 -0.960918 
0.171465 0.222463 -0.959745 
0.115004 0.173096 -0.978167 
0.0886669 0.142847 -0.985765 
0.0628563 0.111937 -0.991725 
0.0315726 0.0761673 -0.996595 
0.00858911 0.0464316 -0.998885 
-0.00704392 0.0243925 -0.999678 
-0.0198619 0.00487331 -0.999791 
-0.0268654 -0.00708989 -0.999614 
-0.0299981 -0.0141699 -0.99945 
-0.0306986 -0.018741 -0.999353 
-0.0301693 -0.0232641 -0.999274 
-0.0295107 -0.0297376 -0.999122 
-0.0296413 -0.0372285 -0.998867 
-0.0307354 -0.0443861 -0.998542 
-0.0316467 -0.0491798 -0.998288 
-0.0346843 -0.048884 -0.998202 
-0.0383923 -0.0460089 -0.998203 
-0.0411773 -0.0430633 -0.998223 
-0.0466886 -0.0404203 -0.998091 
-0.0422717 -0.0412597 -0.998254 
-0.0507149 -0.0438512 -0.99775 
-0.0592003 -0.0549878 -0.99673 
-0.0505564 -0.0496135 -0.997488 
-0.0369822 -0.0481653 -0.998154 
-0.00124979 -0.00100649 -0.999999 
0.00414052 -0.00131939 0.99999 
0.0328921 -0.0555816 0.997912 
0.0192723 -0.0450432 0.998799 
0.0386814 -0.0381483 0.998523 
0.0309854 -0.0303165 0.99906 
0.0465586 -0.0251492 0.998599 
0.039325 -0.0238184 0.998943 
0.0410064 -0.0326011 0.998627 
0.0380563 -0.0436721 0.998321 
0.0326856 -0.0574119 0.997815 
0.0246808 -0.0548146 0.998191 
0.0270261 -0.0531821 0.998219 
0.0227814 -0.0409118 0.998903 
0.0222631 -0.0305858 0.999284 
0.0226035 -0.0233592 0.999472 
0.0244086 -0.017316 0.999552 
0.0247467 -0.010345 0.99964 
0.0206697 -0.000330756 0.999786 
0.00814359 0.0176753 0.999811 
-0.0106306 0.043049 0.999016 
-0.0346946 0.0738131 0.996668 
-0.0650304 0.11076 0.991717 
-0.0998827 0.149533 0.983699 
-0.138231 0.188068 0.97238 
-0.186555 0.232374 0.954568 
-0.228908 0.266728 0.936193 
-0.26616 0.29568 0.91746 
-0.302378 0.323686 0.896546 
-0.321217 0.341073 0.883453 
-0.358891 0.367701 0.8579 
-0.372215 0.385137 0.844468 
-0.349275 0.392091 0.851042 
-0.403321 0.414717 0.815685 
-0.380053 0.436224 0.815639 
-0.403875 0.476135 0.78114 
-0.29751 0.496395 0.815524 
-0.186705 0.628205 0.755314 
-0.0830314 0.812119 0.577554 
-0.0341675 0.921925 0.385858 
-0.00403655 0.997954 0.0638031 
0.0198121 0.90127 -0.432804 
0.104834 0.742067 -0.662078 
0.209072 0.67515 -0.707432 
0.195732 0.509139 -0.838133 
0.317504 0.482814 -0.816138 
0.424833 0.431123 -0.796021 
0.36104 0.397424 -0.843626 
0.362759 0.371519 -0.854623 
0.351494 0.360126 -0.864153 
0.345857 0.347629 -0.871514 
0.321013 0.331552 -0.887143 
0.267409 0.295595 -0.917124 
0.258576 0.289375 -0.921629 
0.208206 0.252928 -0.944816 
0.161972 0.213561 -0.963409 
0.12551 0.181352 -0.975376 
0.0890606 0.143167 -0.985683 
0.0532764 0.101387 -0.993419 
0.0234946 0.0631166 -0.99773 
0.00367713 0.0353157 -0.999369 
-0.0117244 0.0133432 -0.999842 
-0.0220355 -0.00397027 -0.999749 
-0.0248025 -0.0144051 -0.999589 
-0.0247972 -0.0206738 -0.999479 
-0.0238219 -0.0255188 -0.99939 
-0.0228739 -0.0308685 -0.999262 
-0.0240236 -0.0361654 -0.999057 
-0.0266 -0.0419147 -0.998767 
-0.0271555 -0.0450288 -0.998617 
-0.029888 -0.0457932 -0.998504 
-0.0319999 -0.0442572 -0.998508 
-0.0373518 -0.0401044 -0.998497 
-0.0449261 -0.0372211 -0.998297 
-0.0519115 -0.0387878 -0.997898 
-0.0434768 -0.0377462 -0.998341 
-0.0528338 -0.0451522 -0.997582 
-0.048593 -0.0482669 -0.997652 
-0.0237828 -0.0298404 -0.999272 
-0.00124445 -0.000791697 -0.999999 
0.00352656 -0.00125938 0.999993 
0.00333364 -0.0278005 0.999608 
0.0279354 -0.0468159 0.998513 
0.0206049 -0.0387095 0.999038 
0.0236745 -0.027898 0.99933 
0.0371141 -0.0279431 0.99892 
0.027537 -0.0305523 0.999154 
0.0305106 -0.0395981 0.99875 
0.0304007 -0.0484523 0.998363 
0.0338872 -0.053984 0.997967 
0.0251617 -0.0512574 0.998368 
0.0193008 -0.0457031 0.998769 
0.0186918 -0.0440293 0.998855 
0.0159256 -0.0358097 0.999232 
0.0166803 -0.029214 0.999434 
0.0180098 -0.0227223 0.99958 
0.0191852 -0.013835 0.99972 
0.0150007 -6.37921e-05 0.999887 
0.00450058 0.0195259 0.999799 
-0.0134957 0.0481398 0.998749 
-0.0371368 0.0832662 0.995835 
-0.0677008 0.124864 0.989861 
-0.105807 0.171332 0.979515 
-0.152267 0.219976 0.963548 
-0.200726 0.264716 0.943204 
-0.259188 0.314451 0.913204 
-0.30514 0.343219 0.888308 
-0.348156 0.369273 0.861641 
-0.397981 0.400077 0.82556 
-0.424385 0.407942 0.808381 
-0.462656 0.429534 0.775532 
-0.491416 0.446673 0.747659 
-0.450273 0.425441 0.785019 
-0.539264 0.468862 0.699545 
-0.491433 0.452108 0.744373 
-0.51512 0.498137 0.697503 
-0.290539 0.63063 0.719648 
-0.145713 0.719886 0.678625 
-0.0601762 0.869646 0.489995 
-0.0135345 0.979091 0.20297 
0.0107252 0.96618 -0.257644 
0.109924 0.799644 -0.590327 
0.234499 0.574758 -0.784005 
0.4742 0.484668 -0.735004 
0.470229 0.458644 -0.75401 
0.514508 0.426721 -0.743768 
0.477216 0.410861 -0.776826 
0.476302 0.411211 -0.777201 
0.456066 0.405759 -0.792063 
0.460258 0.417297 -0.783598 
0.357637 0.356544 -0.863118 
0.373269 0.38322 -0.844874 
0.296514 0.333561 -0.894883 
0.274857 0.335488 -0.901056 
0.213536 0.279805 -0.936008 
0.169959 0.24777 -0.953795 
0.124316 0.196433 -0.972605 
0.0830868 0.147936 -0.985501 
0.0474359 0.100723 -0.993783 
0.0229266 0.0647874 -0.997636 
0.00417159 0.0360812 -0.99934 
-0.0104108 0.00933559 -0.999902 
-0.0171081 -0.00799705 -0.999822 
-0.0186292 -0.0181661 -0.999661 
-0.01763 -0.0243282 -0.999549 
-0.0170529 -0.0286159 -0.999445 
-0.0170052 -0.0325176 -0.999326 
-0.0188531 -0.0364485 -0.999158 
-0.0199467 -0.0398515 -0.999006 
-0.0223957 -0.0424482 -0.998848 
-0.0236202 -0.0434059 -0.998778 
-0.0276323 -0.0422605 -0.998724 
-0.0311915 -0.0369393 -0.998831 
-0.0384298 -0.0339455 -0.998685 
-0.0291419 -0.0314985 -0.999079 
-0.0353293 -0.0390627 -0.998612 
-0.0294462 -0.0491389 -0.998358 
-0.021602 -0.0370258 -0.999081 
-0.00180053 -0.000681705 -0.999998 
0.000498215 -0.00134784 0.999999 
0.00443867 -0.0317198 0.999487 
0.00629785 -0.0297183 0.999538 
0.00889814 -0.0426871 0.999049 
0.0162585 -0.0302084 0.999411 
0.0163696 -0.0296209 0.999427 
0.0226636 -0.0379564 0.999022 
0.0251018 -0.043918 0.99872 
0.0257811 -0.0467646 0.998573 
0.0241091 -0.0462854 0.998637 
0.0202506 -0.0437059 0.998839 
0.0177882 -0.0386319 0.999095 
0.0155019 -0.0374653 0.999178 
0.0152428 -0.0322676 0.999363 
0.0165005 -0.0264706 0.999513 
0.0174275 -0.0184321 0.999678 
0.0155138 -0.00459432 0.999869 
0.00751997 0.0176027 0.999817 
-0.00645766 0.045815 0.998929 
-0.0269844 0.0832193 0.996166 
-0.0547677 0.128147 0.990242 
-0.0904766 0.178419 0.979786 
-0.131494 0.231584 0.963887 
-0.173894 0.274022 0.945871 
-0.232158 0.334066 0.913511 
-0.288448 0.381734 0.87811 
-0.348798 0.421557 0.837036 
-0.399958 0.445892 0.800758 
-0.441788 0.455041 0.77315 
-0.512859 0.506894 0.692845 
-0.508622 0.475681 0.717657 
-0.553214 0.496687 0.668773 
-0.570251 0.488365 0.66054 
-0.648514 0.535793 0.540698 
-0.556109 0.470465 0.685132 
-0.514456 0.477686 0.712145 
-0.258752 0.564598 0.783758 
-0.237091 0.714702 0.658019 
-0.0226672 0.965611 0.259 
0.013052 0.98763 -0.156257 
0.0159807 0.94635 -0.322747 
0.29467 0.63816 -0.711282 
0.467716 0.504033 -0.726081 
0.639133 0.47439 -0.605362 
0.554065 0.440109 -0.706623 
0.598042 0.456568 -0.658704 
0.570794 0.453972 -0.684181 
0.557462 0.464937 -0.687801 
0.554992 0.487355 -0.674144 
0.448917 0.433845 -0.781186 
0.473084 0.494467 -0.729173 
0.380021 0.423186 -0.822495 
0.347863 0.434522 -0.830772 
0.278355 0.381932 -0.881275 
0.226407 0.335745 -0.914339 
0.171743 0.284798 -0.943077 
0.127586 0.230364 -0.964704 
0.0845862 0.171745 -0.981503 
0.0503229 0.121725 -0.991287 
0.0244725 0.0796522 -0.996522 
0.00347406 0.0417703 -0.999121 
-0.00977344 0.0111411 -0.99989 
-0.0161009 -0.00820221 -0.999837 
-0.0173507 -0.0195205 -0.999659 
-0.0168339 -0.0256894 -0.999528 
-0.0158104 -0.0293695 -0.999444 
-0.0157024 -0.0320372 -0.999363 
-0.0167363 -0.0345422 -0.999263 
-0.018324 -0.037334 -0.999135 
-0.0196845 -0.0391269 -0.99904 
-0.021183 -0.0418884 -0.998898 
-0.0228304 -0.0409684 -0.9989 
-0.0225457 -0.0366267 -0.999075 
-0.0275341 -0.0321642 -0.999103 
-0.0190046 -0.0312901 -0.99933 
-0.0221249 -0.0415336 -0.998892 
-0.0145223 -0.0414722 -0.999034 
-0.0100221 -0.0245281 -0.999649 
-0.0020291 -0.00066844 -0.999997 
-0.000179734 -0.00108941 0.999999 
1.10376e-05 -0.0270457 0.999634 
0.00535794 -0.0397839 0.999194 
0.00103046 -0.0381451 0.999272 
0.0106852 -0.0287817 0.999529 
0.0157543 -0.0343942 0.999284 
0.0214998 -0.0401023 0.998964 
0.0253395 -0.0452638 0.998654 
0.0258094 -0.0461641 0.9986 
0.0241887 -0.0440622 0.998736 
0.0214104 -0.0412035 0.998921 
0.0192644 -0.03721 0.999122 
0.0177203 -0.0343385 0.999253 
0.0175763 -0.032961 0.999302 
0.0191415 -0.0285639 0.999409 
0.0197477 -0.0209554 0.999585 
0.0185961 -0.00837103 0.999792 
0.0127181 0.014358 0.999816 
-0.000282256 0.0479109 0.998852 
-0.0184503 0.0868051 0.996054 
-0.0444529 0.137708 0.989475 
-0.0796854 0.196058 0.977349 
-0.120504 0.256103 0.959109 
-0.168681 0.314464 0.934162 
-0.220407 0.366512 0.90393 
-0.287737 0.443995 0.848573 
-0.353089 0.484089 0.800616 
-0.417689 0.56201 0.713919 
-0.448543 0.545425 0.70804 
-0.494867 0.537879 0.68249 
-0.572476 0.589624 0.56975 
-0.570135 0.536382 0.622286 
-0.611116 0.529965 0.587941 
-0.674264 0.552381 0.490146 
-0.656649 0.505252 0.55994 
-0.625054 0.486027 0.610807 
-0.625763 0.493766 0.603835 
-0.389612 0.497046 0.775337 
-0.153312 0.783097 0.602706 
-0.00964369 0.994252 0.106631 
0.0497645 0.852361 -0.520581 
0.34003 0.513796 -0.78765 
0.60925 0.498463 -0.616724 
0.636901 0.4563 -0.621408 
0.717356 0.490578 -0.494706 
0.65747 0.496557 -0.566714 
0.643274 0.517047 -0.564678 
0.632561 0.550856 -0.544448 
0.541537 0.516675 -0.663163 
0.519671 0.585724 -0.621988 
0.431564 0.509722 -0.744269 
0.415185 0.560098 -0.716876 
0.340602 0.483671 -0.806258 
0.288618 0.46177 -0.83873 
0.232497 0.394976 -0.888785 
0.182034 0.344716 -0.920888 
0.136482 0.284453 -0.948925 
0.0922439 0.213679 -0.972539 
0.0609874 0.167927 -0.983911 
0.0327504 0.116157 -0.992691 
0.0105456 0.0705919 -0.99745 
-0.00704417 0.0286896 -0.999564 
-0.0163534 0.00122481 -0.999866 
-0.0192882 -0.01562 -0.999692 
-0.0194924 -0.024261 -0.999516 
-0.0182733 -0.0284904 -0.999427 
-0.0171846 -0.0303864 -0.99939 
-0.0171434 -0.0318784 -0.999345 
-0.0178448 -0.0337744 -0.99927 
-0.0192329 -0.0360962 -0.999163 
-0.0204955 -0.0398628 -0.998995 
-0.0209253 -0.0402439 -0.998971 
-0.0188417 -0.0358174 -0.999181 
-0.0175392 -0.0308078 -0.999371 
-0.0108063 -0.0292414 -0.999514 
-0.0102811 -0.0370992 -0.999259 
-0.00565272 -0.0409945 -0.999143 
-0.00700271 -0.0273517 -0.999601 
-0.00104919 -0.00103533 -0.999999 
0.000116442 -0.00130356 0.999999 
0.00102731 -0.0378218 0.999284 
-0.00614829 -0.0466377 0.998893 
-0.00207429 -0.0417899 0.999124 
0.00674544 -0.0323347 0.999454 
0.0148777 -0.0351636 0.999271 
0.0210528 -0.0417946 0.998904 
0.0227571 -0.0437638 0.998783 
0.0235181 -0.0430294 0.998797 
0.0216426 -0.0398364 0.998972 
0.0195104 -0.0371864 0.999118 
0.018019 -0.0346743 0.999236 
0.0164917 -0.0327497 0.999328 
0.0184946 -0.0307143 0.999357 
0.0203134 -0.0259696 0.999456 
0.0199713 -0.0153289 0.999683 
0.0169735 0.00301281 0.999851 
0.00853102 0.0335321 0.999401 
-0.00672039 0.0758318 0.997098 
-0.0279097 0.125503 0.991701 
-0.0588897 0.190662 0.979888 
-0.0975713 0.260708 0.960474 
-0.144578 0.330067 0.93282 
-0.195288 0.399534 0.895676 
-0.241175 0.444525 0.862689 
-0.295569 0.553428 0.778689 
-0.325055 0.530629 0.782797 
-0.379996 0.600311 0.703726 
-0.447739 0.659757 0.603532 
-0.510681 0.640813 0.573204 
-0.576085 0.629915 0.520896 
-0.624446 0.603421 0.495935 
-0.621863 0.574191 0.532532 
-0.644655 0.578161 0.500149 
-0.753337 0.607835 0.251038 
-0.69817 0.566559 0.437685 
-0.737615 0.508203 0.444584 
-0.420054 0.512521 0.748917 
-0.0601502 0.872843 0.48428 
0.0138872 0.994848 -0.100425 
0.0225605 0.874193 -0.485055 
0.414073 0.519747 -0.747266 
0.693931 0.459021 -0.55476 
0.763196 0.519475 -0.384289 
0.737255 0.545015 -0.399267 
0.706577 0.554408 -0.43975 
0.68263 0.594655 -0.424736 
0.590997 0.580726 -0.559893 
0.578581 0.659751 -0.479555 
0.47911 0.617417 -0.623899 
0.421634 0.658196 -0.6237 
0.364552 0.574184 -0.733086 
0.310751 0.552896 -0.773136 
0.246756 0.480593 -0.841512 
0.206151 0.448443 -0.869713 
0.166151 0.38223 -0.909007 
0.120027 0.294839 -0.947979 
0.0847906 0.243615 -0.966158 
0.0512256 0.178505 -0.982605 
0.0254602 0.121442 -0.992272 
0.00405727 0.0678114 -0.99769 
-0.00947138 0.0282179 -0.999557 
-0.0175547 -0.000815548 -0.999846 
-0.0195925 -0.0174039 -0.999657 
-0.0192988 -0.0266457 -0.999459 
-0.0177131 -0.0297583 -0.9994 
-0.0165132 -0.0305218 -0.999398 
-0.0154671 -0.0310058 -0.9994 
-0.0153429 -0.0320869 -0.999367 
-0.0169601 -0.0349459 -0.999245 
-0.0178642 -0.0383331 -0.999105 
-0.0186335 -0.0391121 -0.999061 
-0.0160176 -0.0360694 -0.999221 
-0.0140073 -0.0314378 -0.999408 
-0.0078198 -0.0292708 -0.999541 
-0.00554835 -0.0353052 -0.999361 
0.00126744 -0.0408167 -0.999166 
-0.00455253 -0.0330874 -0.999442 
-0.000125006 -0.00112034 -0.999999 
3.22842e-05 -0.0011488 0.999999 
0.00413147 -0.0380781 0.999266 
-0.00549307 -0.0459486 0.998929 
0.00472468 -0.0389313 0.999231 
0.00811115 -0.0337215 0.999398 
0.0123397 -0.0339362 0.999348 
0.0171926 -0.0395447 0.99907 
0.0176025 -0.0416023 0.998979 
0.0168264 -0.0392687 0.999087 
0.01467 -0.0356211 0.999258 
0.0138434 -0.0335374 0.999342 
0.0142737 -0.0326632 0.999364 
0.013238 -0.0324854 0.999385 
0.0159718 -0.0314115 0.999379 
0.0176057 -0.026872 0.999484 
0.0173048 -0.0154994 0.99973 