# vtk DataFile Version 3.0 
Exported using Morpho https://github.com/Morpho-lang/morpho 
ASCII 
DATASET UNSTRUCTURED_GRID 

POINTS 1978 float 
-8.48397 -2.82657 -6.49953e-06 
-8.26853 -2.82811 -3.83768e-05 
-8.05156 -2.8262 -3.40489e-06 
-7.76135 -2.82941 -5.84283e-06 
-7.48547 -2.82634 -7.15253e-06 
-7.21391 -2.82777 -4.9958e-06 
-7.01152 -2.82803 -2.17422e-05 
-6.77503 -2.82761 -1.17994e-05 
-6.55671 -2.82882 -5.49259e-06 
-6.34218 -2.82704 -7.35225e-06 
-6.14518 -2.82766 -8.51483e-06 
-5.92566 -2.82825 -5.53006e-06 
-5.71249 -2.82763 -6.02376e-06 
-5.5108 -2.82793 -5.78051e-06 
-5.29509 -2.82767 -5.1989e-06 
-5.08649 -2.82779 -2.53789e-06 
-4.87096 -2.82791 -1.67986e-06 
-4.66483 -2.82769 -3.71888e-07 
-4.44609 -2.82779 1.33528e-06 
-4.22694 -2.82768 3.22313e-06 
-4.00781 -2.82777 4.50733e-06 
-3.79606 -2.82775 5.95893e-06 
-3.57938 -2.82777 1.02224e-05 
-3.3697 -2.82785 1.30655e-05 
-3.14823 -2.82801 1.92206e-05 
-2.94018 -2.82807 2.33327e-05 
-2.7314 -2.82828 2.95077e-05 
-2.53775 -2.82852 3.22645e-05 
-2.3235 -2.82839 4.43236e-05 
-2.11557 -2.82919 5.09141e-05 
-1.89452 -2.82839 5.75571e-05 
-1.69244 -2.82893 5.3642e-05 
-1.49504 -2.82817 2.80711e-05 
-1.28751 -2.82882 -3.17224e-05 
-1.10239 -2.82719 -2.87425e-05 
-0.85454 -2.82794 2.48461e-05 
-0.636904 -2.82406 8.60511e-05 
-0.466367 -2.8235 6.12639e-05 
-0.242158 -2.82202 8.6246e-05 
0.0250495 -2.82015 0.000132933 
0.254899 -2.82324 -8.70253e-05 
0.436102 -2.82321 -0.000136456 
0.654648 -2.82454 -8.53817e-05 
0.878214 -2.82689 -7.40241e-06 
1.09369 -2.82792 2.04532e-05 
1.26811 -2.82847 1.15629e-05 
1.43881 -2.82888 -4.33056e-05 
1.70167 -2.82827 -3.47496e-05 
1.88621 -2.82866 -5.51928e-05 
2.10156 -2.82932 -5.25077e-05 
2.33497 -2.82813 -4.41607e-05 
2.52301 -2.82875 -3.38685e-05 
2.74751 -2.82811 -2.8318e-05 
2.96775 -2.82828 -2.19381e-05 
3.17512 -2.82801 -2.00941e-05 
3.38063 -2.82785 -1.32415e-05 
3.60702 -2.82791 -8.43404e-06 
3.809 -2.82778 -7.20012e-06 
4.02437 -2.82769 -3.84168e-06 
4.2526 -2.82775 -5.22437e-07 
4.45188 -2.82771 -2.41528e-06 
4.66499 -2.82796 9.98584e-07 
4.87275 -2.82769 1.30501e-06 
5.0765 -2.82798 1.81662e-06 
5.2892 -2.82767 4.12738e-06 
5.50085 -2.82781 5.4562e-06 
5.70283 -2.82782 4.16975e-06 
5.92095 -2.82773 7.46807e-06 
6.14332 -2.82771 9.77047e-06 
6.34189 -2.82777 5.13343e-06 
6.58124 -2.82776 1.21313e-05 
6.79431 -2.82781 1.47884e-05 
6.9951 -2.82774 9.44388e-06 
7.25842 -2.82764 1.92122e-05 
7.48996 -2.8279 2.49835e-05 
7.73493 -2.82791 1.70556e-05 
8.00554 -2.82775 2.8085e-06 
8.19162 -2.82764 2.55014e-05 
8.4834 -2.82605 1.49163e-06 
-8.48549 -2.59706 4.64487e-05 
-8.25145 -2.57789 -1.26643e-06 
-8.02871 -2.56576 4.17283e-05 
-7.8194 -2.63838 -2.59964e-05 
-7.55674 -2.63256 -5.50809e-05 
-7.25675 -2.62979 -3.54875e-05 
-6.99375 -2.56984 1.58066e-05 
-6.78821 -2.60975 -9.07233e-06 
-6.54414 -2.5962 -1.04861e-05 
-6.33419 -2.5687 5.73979e-06 
-6.10998 -2.59966 4.20328e-06 
-5.89123 -2.59473 1.23352e-06 
-5.68086 -2.57914 -2.17163e-06 
-5.46361 -2.59623 -6.31643e-06 
-5.24775 -2.58905 -3.10795e-06 
-5.03047 -2.59721 -5.23821e-06 
-4.82042 -2.58607 -3.66457e-06 
-4.60196 -2.59876 -3.76133e-06 
-4.38156 -2.59737 -3.47173e-06 
-4.16098 -2.59483 -9.02443e-06 
-3.94702 -2.58485 -1.12453e-05 
-3.73162 -2.58975 -1.02044e-05 
-3.51963 -2.58404 -9.93279e-06 
-3.30133 -2.602 -7.53022e-06 
-3.08939 -2.59376 -1.83703e-05 
-2.87776 -2.60183 -1.63412e-05 
-2.67823 -2.59065 -2.45142e-05 
-2.47094 -2.61718 -7.94789e-06 
-2.25564 -2.61279 -1.17074e-05 
-2.04062 -2.62454 -9.60952e-06 
-1.82805 -2.59719 -1.85844e-05 
-1.63028 -2.58429 -1.67564e-05 
-1.41935 -2.59203 1.91478e-05 
-1.22972 -2.5549 -9.28285e-06 
-1.00032 -2.62258 -5.67122e-05 
-0.78967 -2.57382 5.90598e-05 
-0.61155 -2.46784 -3.60013e-05 
-0.417463 -2.51448 -0.000161858 
-0.18977 -2.54467 -0.000127814 
0.0108024 -2.46261 4.35446e-05 
0.211591 -2.52221 0.000179724 
0.423808 -2.45901 3.87468e-05 
0.604757 -2.55484 -2.5561e-05 
0.835763 -2.58571 5.90449e-05 
1.06126 -2.59449 -1.17584e-06 
1.27353 -2.55319 6.24502e-06 
1.51251 -2.65961 -2.28654e-05 
1.71249 -2.58644 2.45168e-05 
1.92984 -2.62465 -2.27315e-06 
2.16144 -2.63957 -4.67187e-06 
2.3616 -2.58434 3.25612e-05 
2.57518 -2.62123 8.52474e-06 
2.79809 -2.61199 1.43054e-05 
3.00631 -2.59555 1.79691e-05 
3.21359 -2.58768 1.43631e-05 
3.43625 -2.60585 5.43303e-06 
3.64253 -2.57734 1.21498e-05 
3.8579 -2.59164 1.22173e-05 
4.08754 -2.60558 7.53416e-06 
4.29729 -2.57446 5.39168e-06 
4.51301 -2.59353 6.73845e-06 
4.72713 -2.58947 3.09163e-06 
4.93972 -2.58652 2.83076e-06 
5.15363 -2.59806 4.02481e-06 
5.37209 -2.59544 2.9144e-06 
5.58283 -2.58308 2.12104e-06 
5.79791 -2.59902 2.08693e-06 
6.02317 -2.60072 -6.3885e-07 
6.23652 -2.57046 -2.94373e-06 
6.45606 -2.61248 5.96702e-06 
6.68419 -2.58228 -2.25909e-06 
6.8937 -2.56361 -7.94204e-06 
7.12112 -2.62523 1.58372e-05 
7.37194 -2.59602 -1.31489e-06 
7.61214 -2.60731 6.48057e-06 
7.86976 -2.62714 1.15333e-06 
8.08031 -2.53381 -1.81685e-05 
8.30242 -2.63703 2.76896e-05 
8.48485 -2.52525 -4.75395e-05 
-8.48281 -2.36714 3.00524e-05 
-8.22514 -2.34878 -3.49685e-05 
-7.97619 -2.32881 1.55797e-05 
-7.7544 -2.41439 4.71542e-05 
-7.57355 -2.26348 -1.53722e-05 
-7.44965 -2.45976 4.60951e-05 
-7.17744 -2.40451 4.92191e-06 
-6.94031 -2.32159 -4.37562e-06 
-6.71143 -2.39636 4.70431e-06 
-6.48399 -2.35079 -3.63998e-06 
-6.23067 -2.3544 -6.7212e-06 
-6.01567 -2.36362 7.29945e-07 
-5.80015 -2.34987 -4.68998e-07 
-5.57146 -2.3525 -3.65357e-06 
-5.35887 -2.35818 -1.88615e-06 
-5.13687 -2.36146 -1.479e-06 
-4.92707 -2.35216 1.90927e-07 
-4.70541 -2.36415 1.20463e-06 
-4.48594 -2.36866 5.2782e-06 
-4.2642 -2.36537 4.69281e-06 
-4.04768 -2.34926 4.89441e-06 
-3.82975 -2.34867 3.40028e-06 
-3.61733 -2.34558 7.57417e-06 
-3.39656 -2.36354 1.02452e-05 
-3.18651 -2.36446 1.29892e-05 
-2.97059 -2.37209 1.31656e-05 
-2.76633 -2.36035 1.63046e-05 
-2.55593 -2.38222 1.93684e-05 
-2.35114 -2.40357 1.76263e-05 
-2.12733 -2.40144 1.4619e-05 
-1.91856 -2.39393 1.73599e-05 
-1.69596 -2.34438 9.6071e-06 
-1.48097 -2.35883 3.25743e-07 
-1.27331 -2.28236 5.16679e-05 
-1.05936 -2.38435 1.48969e-05 
-0.850423 -2.31642 -0.000145925 
-0.638747 -2.20202 -1.92333e-05 
-0.412124 -2.17469 -0.000122489 
-0.21623 -2.21014 -3.10097e-05 
0.00471575 -2.1169 0.000313986 
0.226952 -2.20799 -0.000113163 
0.450827 -2.12108 -0.00013935 
0.657466 -2.23449 0.000184177 
0.837443 -2.33784 -2.4719e-05 
1.05803 -2.3491 4.51076e-05 
1.27754 -2.31903 5.92474e-05 
1.47924 -2.44312 1.73074e-05 
1.65865 -2.35308 -1.90616e-05 
1.87276 -2.40135 -8.74593e-06 
2.08865 -2.43106 -1.38129e-05 
2.3019 -2.3745 -2.41222e-05 
2.53047 -2.38698 -1.91933e-05 
2.73239 -2.4011 -1.12159e-05 
2.95037 -2.36404 -1.27736e-05 
3.15204 -2.35105 -1.66395e-05 
3.36799 -2.37466 -9.41208e-06 
3.574 -2.33927 -8.40803e-06 
3.78742 -2.34903 -5.66071e-06 
4.00607 -2.37701 -3.79419e-06 
4.21696 -2.34134 -3.56539e-06 
4.44014 -2.35132 -4.82283e-06 
4.65101 -2.35305 -2.11499e-06 
4.86442 -2.35245 -1.63435e-06 
5.08233 -2.359 1.10149e-06 
5.29374 -2.36853 1.58303e-06 
5.50948 -2.34951 2.44428e-06 
5.7281 -2.35917 -1.72169e-07 
5.94392 -2.37435 -2.75485e-06 
6.15928 -2.34134 8.94009e-07 
6.39377 -2.36369 3.79002e-06 
6.60331 -2.36351 2.09973e-06 
6.82877 -2.3156 7.43664e-06 
7.06018 -2.37274 -1.99031e-07 
7.27942 -2.39402 -4.81528e-06 
7.54173 -2.37682 -7.09553e-06 
7.78529 -2.40792 -3.57063e-05 
7.99969 -2.3119 3.62191e-06 
8.26065 -2.36719 1.95528e-06 
8.48487 -2.28256 -1.26992e-05 
-8.48584 -2.10071 4.90195e-05 
-8.27511 -2.13056 -2.0418e-05 
-8.04246 -2.10043 -3.4287e-05 
-7.78689 -2.14304 -8.81791e-06 
-7.52119 -2.04398 -1.96432e-05 
-7.32086 -2.23279 -1.92662e-05 
-7.08198 -2.13486 -8.9757e-06 
-6.79641 -2.13538 -9.83883e-06 
-6.59487 -2.13828 -6.27195e-06 
-6.34804 -2.14846 -8.17032e-06 
-6.11676 -2.11185 -5.54646e-07 
-5.9151 -2.11735 3.84423e-06 
-5.69039 -2.12665 1.40819e-06 
-5.46907 -2.11308 -8.8795e-07 
-5.25374 -2.13224 1.89087e-06 
-5.04208 -2.11682 2.94538e-06 
-4.82066 -2.13004 5.79565e-06 
-4.6021 -2.13633 7.26425e-06 
-4.38306 -2.13686 9.85678e-06 
-4.16923 -2.12113 1.00924e-05 
-3.95054 -2.11219 1.14704e-05 
-3.73806 -2.10695 1.25066e-05 
-3.51791 -2.12433 1.65387e-05 
-3.30784 -2.12716 2.04289e-05 
-3.09411 -2.14116 2.2098e-05 
-2.88898 -2.13428 2.18254e-05 
-2.67483 -2.14266 2.307e-05 
-2.47003 -2.15852 2.52746e-05 
-2.26125 -2.18942 3.06919e-05 
-2.04352 -2.16364 3.48756e-05 
-1.82998 -2.15858 2.41369e-05 
-1.57842 -2.11726 -6.38445e-06 
-1.37452 -2.06867 -8.48085e-05 
-1.16604 -1.92725 2.22684e-05 
-1.06962 -2.13197 -7.85981e-05 
-0.842711 -2.05276 -7.03192e-05 
-0.58831 -1.92687 5.61321e-05 
-0.375811 -1.83384 0.000106587 
-0.124705 -1.88625 -0.000116423 
0.0740156 -1.63148 -3.86539e-05 
0.216537 -1.90827 3.58923e-05 
0.312062 -1.63274 -4.28363e-05 
0.529067 -1.85645 0.000301699 
0.75635 -1.97662 -0.000284723 
0.969915 -2.08007 6.87349e-05 
1.18785 -2.09738 -8.4679e-06 
1.45462 -2.18331 1.14036e-05 
1.67607 -2.12574 -7.48247e-06 
1.8912 -2.17959 -3.98013e-05 
2.10949 -2.20283 -2.99907e-05 
2.35946 -2.16734 -3.43713e-05 
2.57061 -2.1496 -2.54522e-05 
2.78189 -2.17613 -2.09396e-05 
2.98373 -2.11437 -2.38304e-05 
3.20435 -2.12969 -2.24343e-05 
3.40482 -2.12589 -1.92899e-05 
3.62047 -2.10364 -1.51074e-05 
3.83926 -2.12394 -1.18029e-05 
4.04212 -2.12848 -9.79893e-06 
4.27191 -2.11599 -9.41881e-06 
4.48381 -2.11121 -8.0334e-06 
4.69798 -2.11581 -6.93231e-06 
4.91668 -2.12431 -4.90827e-06 
5.12979 -2.12222 -2.24556e-06 
5.34117 -2.13333 -5.39628e-07 
5.56532 -2.12173 2.94142e-07 
5.78223 -2.12767 -2.13059e-06 
5.99176 -2.13041 -1.0113e-06 
6.2349 -2.12889 3.89247e-06 
6.44564 -2.11276 7.0929e-06 
6.6587 -2.11818 7.412e-06 
6.91917 -2.10715 7.09658e-06 
7.13572 -2.1351 1.20403e-05 
7.36885 -2.18255 2.11309e-05 
7.56188 -2.08785 1.58803e-05 
7.74339 -2.17695 8.897e-06 
7.95724 -2.07856 7.56967e-07 
8.20428 -2.14563 4.75923e-05 
8.48451 -2.08749 -3.93819e-05 
-8.48405 -1.81161 3.26341e-05 
-8.2958 -1.88425 1.43597e-05 
-7.8985 -1.91017 1.79093e-05 
[...]
POINT_DATA 1978 
VECTORS vectors float
0.0752014 -0.101119 0.992068 
0.0739783 -0.0926735 0.993075 
0.068104 -0.0903911 0.993966 
0.0632172 -0.0724884 0.995628 
0.0653204 -0.0567477 0.996524 
0.07091 -0.0452439 0.996679 
0.0750889 -0.0363255 0.996716 
0.0747743 -0.0288218 0.99699 
0.0755188 -0.0243293 0.996913 
0.0773018 -0.0189958 0.997007 
0.076797 -0.0147845 0.99712 
0.0782819 -0.0124708 0.997026 
0.0796485 -0.00976646 0.996943 
0.0799425 -0.00731826 0.996938 
0.0805812 -0.005947 0.996891 
0.0805271 -0.00490569 0.996896 
0.0808832 -0.00358963 0.99687 
0.0804248 -0.00201763 0.996916 
0.0799206 -0.000388146 0.996965 
0.0793604 0.00154685 0.997013 
0.0788837 0.00442457 0.997047 
0.0778353 0.00800377 0.997115 
0.0765658 0.0130326 0.997164 
0.0740766 0.0196606 0.997253 
0.0715976 0.0293152 0.997197 
0.0682167 0.0419573 0.996988 
0.0642325 0.0591853 0.996383 
0.0588494 0.0801503 0.995257 
0.0523906 0.109472 0.992837 
0.0442223 0.146447 0.988467 
0.0339266 0.196613 0.980147 
0.0227079 0.255181 0.966882 
0.00903404 0.327318 0.945106 
-0.00720196 0.423031 0.906283 
-0.0171162 0.52074 0.853701 
-0.0266192 0.65735 0.753114 
-0.0326182 0.789803 0.612248 
-0.0295172 0.877557 0.478128 
-0.017685 0.96531 0.259256 
0.000952816 0.99885 -0.0375281 
0.0179722 0.961807 -0.27215 
0.0263058 0.892452 -0.449818 
0.0307657 0.780558 -0.624206 
0.0288664 0.651065 -0.758505 
0.0183672 0.522837 -0.852358 
0.00675015 0.430146 -0.902805 
-0.00500437 0.350194 -0.936883 
-0.0230279 0.252952 -0.967434 
-0.032958 0.199144 -0.979667 
-0.043158 0.150042 -0.98797 
-0.0527071 0.108565 -0.99292 
-0.0580473 0.0815476 -0.995203 
-0.0636562 0.057828 -0.996508 
-0.0684744 0.0404111 -0.997031 
-0.0722523 0.0274638 -0.9972 
-0.0741443 0.0187527 -0.997262 
-0.0767425 0.0124693 -0.997153 
-0.0780095 0.00745068 -0.9971 
-0.0782665 0.00415671 -0.9971 
-0.0796561 0.00188363 -0.996986 
-0.0800562 -0.000557982 -0.99695 
-0.0803426 -0.00220228 -0.99692 
-0.080694 -0.00351021 -0.996884 
-0.0804464 -0.00507526 -0.996899 
-0.0803193 -0.00602211 -0.996908 
-0.080236 -0.00735067 -0.996908 
-0.0795219 -0.00958575 -0.996953 
-0.0785803 -0.0114692 -0.997015 
-0.0780844 -0.0148114 -0.997014 
-0.0766719 -0.0193448 -0.997057 
-0.0758086 -0.0238686 -0.997034 
-0.0763038 -0.0300066 -0.996829 
-0.0732236 -0.0371213 -0.996841 
-0.071553 -0.0454379 -0.996634 
-0.0697678 -0.0566966 -0.996185 
-0.0656679 -0.0719653 -0.995496 
-0.0683341 -0.0909402 -0.993761 
-0.0709558 -0.0912663 -0.993562 
-0.0732132 -0.099655 -0.992352 
0.0603337 -0.100228 0.99313 
0.0624969 -0.0897534 0.99485 
0.0562608 -0.0808449 0.995877 
0.0644843 -0.0762407 0.995619 
0.0698584 -0.0618673 0.99637 
0.0697247 -0.0467304 0.997203 
0.0650946 -0.0369252 0.997914 
0.0700239 -0.0298862 0.997802 
0.0707547 -0.0235264 0.99801 
0.0668768 -0.0192372 0.998254 
0.0720554 -0.0159158 0.997937 
0.0725268 -0.012755 0.997947 
0.0714874 -0.00986007 0.998054 
0.0737447 -0.00764553 0.997902 
0.0735049 -0.00602907 0.997926 
0.0744329 -0.00452307 0.99786 
0.0735591 -0.00303874 0.997932 
0.0744197 -0.00128613 0.997875 
0.073784 0.000915687 0.99793 
0.0725753 0.00368089 0.99802 
0.0708937 0.00705305 0.99813 
0.0699792 0.011344 0.998159 
0.067659 0.0172686 0.998234 
0.0667261 0.0255238 0.998114 
0.0627502 0.0369547 0.998007 
0.0597588 0.0519516 0.997514 
0.054353 0.0708723 0.996651 
0.0505416 0.0951866 0.994823 
0.0432942 0.129177 0.991333 
0.0349999 0.172307 0.985082 
0.0239469 0.228594 0.973899 
0.0132457 0.291758 0.95706 
0.00244653 0.374826 0.927706 
-0.00697087 0.467446 0.884491 
-0.0174279 0.587035 0.809702 
-0.0204248 0.707956 0.705908 
-0.01747 0.806995 0.589882 
-0.0165705 0.901057 0.431654 
-0.00953651 0.978468 0.201129 
0.000191319 0.998764 -0.0146163 
0.00789156 0.972713 -0.228228 
0.0129435 0.901711 -0.430459 
0.0182645 0.813177 -0.581214 
0.019937 0.68282 -0.730263 
0.0138899 0.554023 -0.832757 
0.00439484 0.444586 -0.896452 
-0.00934193 0.331613 -0.943858 
-0.0173745 0.263741 -0.965191 
-0.0306532 0.198973 -0.980176 
-0.0415151 0.146447 -0.988894 
-0.0449249 0.113009 -0.99336 
-0.0538118 0.0822651 -0.99582 
-0.058712 0.0585527 -0.997221 
-0.0613216 0.042118 -0.997892 
-0.0642819 0.0296971 -0.998159 
-0.0687948 0.019761 -0.998104 
-0.0683378 0.0136266 -0.998239 
-0.0709508 0.00859657 -0.998112 
-0.0735614 0.00466998 -0.997945 
-0.0718931 0.00200057 -0.998072 
-0.0737484 -0.000419039 -0.99793 
-0.0739308 -0.00227547 -0.997908 
-0.0736047 -0.00390443 -0.997923 
-0.074436 -0.00545874 -0.997851 
-0.0739082 -0.00705397 -0.997884 
-0.072327 -0.00887064 -0.997991 
-0.0729058 -0.0110175 -0.997934 
-0.0720756 -0.0139389 -0.997967 
-0.0689698 -0.0176225 -0.99814 
-0.0712576 -0.0219998 -0.997899 
-0.0678389 -0.0276698 -0.998011 
-0.0655364 -0.03373 -0.997991 
-0.0696245 -0.0412329 -0.99744 
-0.0647145 -0.0524286 -0.997261 
-0.0633965 -0.0655849 -0.996571 
-0.0626103 -0.0794671 -0.995485 
-0.0560051 -0.0801583 -0.996053 
-0.0676189 -0.0946747 -0.993809 
-0.0566572 -0.0982955 -0.99366 
0.0529496 -0.0973208 0.994086 
0.0525527 -0.0786879 0.996245 
0.0538737 -0.0796668 0.996013 
0.0548293 -0.0746601 0.996587 
0.0581978 -0.0660906 0.996743 
0.0566275 -0.0572765 0.997497 
0.0616589 -0.0448918 0.997841 
0.0647686 -0.03635 0.99798 
0.0651247 -0.0287319 0.99818 
0.0675095 -0.0231504 0.998156 
0.0700929 -0.0183107 0.998076 
0.0704234 -0.014954 0.998097 
0.0714594 -0.011971 0.998059 
0.0725771 -0.00940536 0.998006 
0.0733687 -0.00739307 0.997956 
0.0737925 -0.00550591 0.99793 
0.0743382 -0.00379831 0.997898 
0.0740136 -0.00182553 0.997928 
0.0731876 0.000496562 0.997995 
0.0723771 0.0033563 0.998054 
0.0714443 0.00681022 0.998112 
0.0699244 0.01109 0.998184 
0.0682118 0.0166799 0.998225 
0.0655751 0.0244805 0.998238 
0.0630344 0.0349594 0.998084 
0.0596051 0.0493293 0.997681 
0.0557561 0.0677801 0.996817 
0.050235 0.0914111 0.995223 
0.0434465 0.120791 0.99241 
0.0346137 0.163222 0.986681 
0.0255358 0.213199 0.977373 
0.0149547 0.281505 0.960139 
0.00481064 0.36036 0.933457 
-0.004178 0.457985 0.889512 
-0.0116047 0.564555 0.825611 
-0.0155981 0.681037 0.732286 
-0.0159619 0.802478 0.595999 
-0.0132238 0.909554 0.413846 
-0.00857305 0.971904 0.230896 
-0.00159448 0.998858 -0.00655332 
0.00543773 0.969566 -0.240871 
0.0101881 0.889524 -0.455422 
0.0135664 0.786731 -0.616879 
0.0142799 0.68597 -0.727595 
0.0106244 0.561695 -0.827676 
0.00385615 0.453758 -0.891555 
-0.00503956 0.357693 -0.934438 
-0.0133877 0.295101 -0.956042 
-0.0234245 0.225317 -0.974572 
-0.0331894 0.169412 -0.985792 
-0.0414964 0.131013 -0.9911 
-0.0487901 0.0951203 -0.994963 
-0.0539881 0.0703592 -0.996744 
-0.0591437 0.0512064 -0.997619 
-0.0627998 0.037128 -0.998022 
-0.0654022 0.0254857 -0.998219 
-0.0681484 0.0180586 -0.998199 
-0.0698682 0.0120408 -0.99817 
-0.0708484 0.00740248 -0.998144 
-0.0726704 0.00421454 -0.998033 
-0.0735567 0.00117507 -0.99797 
-0.074201 -0.00121483 -0.99792 
-0.0745534 -0.00327285 -0.997883 
-0.0742462 -0.00513611 -0.997896 
-0.0737246 -0.00690972 -0.997922 
-0.0732792 -0.00893171 -0.997943 
-0.0720782 -0.0111741 -0.998012 
-0.0706955 -0.0137598 -0.998085 
-0.0698959 -0.0170915 -0.998099 
-0.0682447 -0.0213847 -0.998141 
-0.0671103 -0.0262789 -0.998112 
-0.0662774 -0.0327203 -0.997991 
-0.0635188 -0.0403955 -0.997897 
-0.061082 -0.0496252 -0.997636 
-0.0578576 -0.0634261 -0.997174 
-0.0554018 -0.0761141 -0.996307 
-0.0540221 -0.0794276 -0.996104 
-0.0528554 -0.0834081 -0.99583 
-0.0522863 -0.094451 -0.994273 
0.041026 -0.0959416 0.994629 
0.0474413 -0.0836665 0.995974 
0.0508503 -0.0779813 0.996529 
0.0550387 -0.0771328 0.996378 
0.0556483 -0.0646802 0.997118 
0.0616808 -0.0526229 0.997458 
0.0623632 -0.0425081 0.998022 
0.0647751 -0.0323233 0.99811 
0.0659962 -0.0266987 0.998184 
0.0678151 -0.0210235 0.998186 
0.0677261 -0.0171793 0.998265 
0.0683951 -0.0142758 0.998258 
0.069881 -0.011477 0.998188 
0.0704024 -0.00913414 0.998171 
0.0717365 -0.00694864 0.998086 
0.0717691 -0.00497394 0.998095 
0.0724185 -0.00279213 0.998059 
0.0724644 -0.000338812 0.99806 
0.0717141 0.00259016 0.998116 
0.0701382 0.00596604 0.998217 
0.0683973 0.0100791 0.998308 
0.066509 0.0152443 0.998368 
0.0648112 0.0223326 0.998345 
0.0622466 0.0317229 0.99825 
0.0593927 0.0444672 0.997935 
0.0553194 0.0610671 0.997289 
0.0505589 0.0834298 0.995927 
0.0450691 0.110446 0.993565 
0.0385388 0.144513 0.989472 
0.0292083 0.191257 0.981843 
0.0197921 0.248468 0.969166 
0.00778716 0.335251 0.942806 
-0.00104074 0.423194 0.906825 
-0.00748141 0.525282 0.851275 
-0.0109077 0.569964 0.822124 
-0.0143303 0.695999 0.717995 
-0.0136831 0.829923 0.557183 
-0.0101621 0.9244 0.37928 
-0.00525237 0.990149 0.131891 
0.000197043 0.994739 -0.0896217 
0.00335885 0.970947 -0.234971 
0.00411007 0.944233 -0.326721 
0.00901892 0.853934 -0.51949 
0.0122237 0.741348 -0.670889 
0.0113454 0.618775 -0.785796 
0.00669132 0.506686 -0.862763 
-0.00314642 0.38197 -0.9248 
-0.0121559 0.301695 -0.954042 
-0.0229018 0.230201 -0.973721 
-0.0326033 0.175079 -0.984749 
-0.0418123 0.127553 -0.991678 
-0.0475892 0.0965888 -0.994906 
-0.0538976 0.0709535 -0.996724 
-0.0566672 0.0532204 -0.99768 
-0.0610481 0.037347 -0.998133 
-0.0636691 0.0268655 -0.998304 
-0.0655416 0.0187205 -0.998368 
-0.0681595 0.0124988 -0.998288 
-0.0695972 0.008238 -0.998235 
-0.0706365 0.00442352 -0.998186 
-0.0712418 0.00135716 -0.998151 
-0.0718433 -0.0013807 -0.998106 
-0.0722676 -0.0037645 -0.998064 
-0.071871 -0.00584694 -0.998083 
-0.0716575 -0.00787054 -0.998082 
-0.0705698 -0.0102322 -0.998142 
-0.069765 -0.0126651 -0.998176 
-0.0687228 -0.0153311 -0.998217 
-0.0676604 -0.0190616 -0.998235 
-0.0658958 -0.0232218 -0.998277 
-0.0649591 -0.0284581 -0.998212 
-0.0631607 -0.0364718 -0.998078 
-0.0622791 -0.0447593 -0.997799 
-0.0612221 -0.0556729 -0.997203 
-0.0568788 -0.0670938 -0.996882 
-0.0564403 -0.0761298 -0.996254 
-0.051587 -0.0817446 -0.996067 
-0.0492945 -0.0784789 -0.996418 
-0.0411287 -0.0953717 -0.994694 
0.0309334 -0.0969071 0.994917 
0.0373974 -0.0899805 0.995971 
0.0454325 -0.0819299 0.996238 
0.047293 -0.0753223 0.996807 
0.045168 -0.0618742 0.997946 
0.0561804 -0.0525701 0.997686 
0.0491083 -0.0465588 0.998464 
0.0563001 -0.0377378 0.998449 
0.0539526 -0.0306469 0.998808 
0.0578898 -0.024716 0.998743 
0.0579209 -0.0201963 0.998831 
0.0553967 -0.0169773 0.999035 
0.058569 -0.0139625 0.998892 
0.0595147 -0.0113461 0.998862 
0.0599149 -0.00886455 0.998859 
0.0606023 -0.00665768 0.998832 
0.0613829 -0.0042127 0.9988 
0.0618032 -0.00160204 0.998784 
0.0617281 0.00138962 0.998788 
0.0602466 0.00473332 0.998871 
0.0588159 0.00860106 0.998928 
0.0567822 0.0132373 0.998991 
0.0556233 0.0193237 0.998955 
0.0536257 0.027263 0.998877 
0.0515309 0.0381086 0.998633 
0.0484684 0.0520858 0.998158 
0.0447854 0.0708886 0.997182 
0.0400132 0.0946914 0.995423 
0.0352029 0.124619 0.992319 
0.029375 0.162961 0.986953 
0.0201383 0.218579 0.976388 
0.0121444 0.284442 0.959239 
0.00357525 0.361574 0.933061 
-0.00346502 0.45962 0.888735 
-0.0116465 0.653488 0.757137 
-0.0122137 0.770848 0.636846 
-0.00878448 0.87083 0.490322 
-0.00488925 0.939889 0.339464 
-0.00491833 0.974267 0.221064 
-0.00154798 0.997612 0.0495299 
0.00237698 0.963809 -0.262121 
0.0054086 0.891165 -0.452444 
0.00756024 0.802844 -0.595666 
0.00849694 0.685041 -0.72862 
0.00799505 0.585191 -0.811326 
0.00476093 0.49753 -0.868085 
0.000754926 0.421775 -0.90738 
-0.00523523 0.348191 -0.938009 
-0.0139368 0.267356 -0.964256 
-0.0231613 0.204759 -0.979302 
-0.0317116 0.154156 -0.988303 
-0.0364312 0.115536 -0.993386 
-0.043181 0.0839057 -0.996266 
-0.0454564 0.0645055 -0.997603 
-0.0500847 0.0453151 -0.998422 
-0.0521118 0.0325608 -0.998808 
-0.054424 0.0233098 -0.99894 
-0.0569634 0.01584 -0.998941 
-0.0579669 0.010797 -0.998953 
-0.0603629 0.00665632 -0.99885 
-0.0597547 0.00301002 -0.998907 
-0.0605176 -0.000175459 -0.998865 
-0.0611931 -0.00303829 -0.998819 
-0.0607309 -0.00550541 -0.998834 
-0.0605202 -0.00784059 -0.998829 
-0.0604149 -0.010108 -0.998815 
-0.0590322 -0.0127409 -0.998871 
-0.0578421 -0.0154596 -0.998907 
-0.0585474 -0.018458 -0.998824 
-0.055031 -0.0226261 -0.998949 
-0.0540584 -0.0276565 -0.998886 
-0.0550135 -0.0339637 -0.998647 
-0.0519941 -0.0433862 -0.99857 
-0.0532915 -0.0536986 -0.997891 
-0.0478597 -0.0672094 -0.997355 
-0.0467754 -0.0801455 -0.996445 
-0.0413132 -0.0822835 -0.9965 
-0.0409251 -0.0832768 -0.996409 
-0.0320129 -0.0987402 -0.994686 
0.0236108 -0.100127 0.994772 
0.0268257 -0.0887984 0.996415 
0.0379128 -0.0773986 0.997015 
0.0352881 -0.0845236 0.996555 
0.0371799 -0.0760151 0.997073 
0.0387644 -0.0550252 0.998486 
0.0410626 -0.0416698 0.999027 
0.043569 -0.0348538 0.999177 
0.0444363 -0.0273538 0.999364 
0.045775 -0.0227629 0.999411 
0.0449596 -0.0193182 0.999511 
0.0453818 -0.0158522 0.999548 
0.0475092 -0.0131942 0.999478 
0.0485201 -0.0105796 0.999455 
0.0479532 -0.00812156 0.999506 
0.0496966 -0.00556382 0.999439 
0.0498939 -0.00272482 0.999443 
0.0498503 0.000459848 0.99945 
0.048743 0.00385429 0.999496 
0.0478026 0.00764361 0.999517 
0.0462721 0.0120239 0.999539 
0.0452205 0.0177996 0.999499 
0.0434388 0.0253552 0.999413 
0.0418132 0.0355282 0.999177 
0.0391239 0.0489591 0.998725 
0.0363911 0.0666677 0.997817 
0.0321401 0.0900647 0.996145 
0.0276458 0.120441 0.993095 
0.0230082 0.158209 0.987924 
0.0169338 0.206981 0.979007 
0.00865629 0.284626 0.959546 
0.000730468 0.380854 0.925372 
-0.00488352 0.496329 0.868589 
-0.00689253 0.604868 0.796727 
-0.00835128 0.582776 0.813056 
-0.00956366 0.691402 0.723216 
-0.00842729 0.782589 0.621866 
-0.00618523 0.870396 0.491359 
-0.00276969 0.980065 0.19353 
-0.000847574 0.997145 -0.0563398 
-0.00020941 0.996924 -0.0631024 
0.000364019 0.960203 -0.276128 
0.00433992 0.882382 -0.469526 
0.00684332 0.773787 -0.633269 
0.00680433 0.631149 -0.776155 
0.00477439 0.512559 -0.859228 
0.000592456 0.410697 -0.912475 
-0.00462287 0.327139 -0.94588 
-0.0114796 0.253067 -0.968166 
-0.0191523 0.193653 -0.981545 
-0.0252592 0.146937 -0.989723 
-0.030975 0.105023 -0.994735 
-0.0323953 0.0834383 -0.996723 
-0.0379068 0.0595513 -0.998218 
-0.0402454 0.0431495 -0.998955 
-0.0417577 0.0310972 -0.999329 
-0.0449707 0.0215688 -0.999436 
-0.0458048 0.015226 -0.999514 
-0.0470492 0.010216 -0.999523 
-0.0490731 0.00614677 -0.999465 
-0.048268 0.00235397 -0.999525 
-0.049225 -0.00109662 -0.99948 
-0.0489856 -0.00404248 -0.999487 
-0.0489219 -0.00673235 -0.999471 
-0.048235 -0.00921035 -0.999484 
-0.0485436 -0.011657 -0.999442 
-0.046741 -0.0143838 -0.999495 
-0.046188 -0.0172463 -0.999482 
-0.0459304 -0.0202939 -0.999447 
-0.0428098 -0.0246824 -0.999498 
-0.0424603 -0.0302073 -0.999372 
-0.0439449 -0.0373088 -0.99896 
-0.0395504 -0.0458672 -0.99891 
-0.0419282 -0.0553135 -0.998348 
-0.0374764 -0.069416 -0.997649 
-0.0373691 -0.0820442 -0.99669 
-0.0323552 -0.0846315 -0.996633 
-0.030928 -0.0863115 -0.996505 
-0.0245272 -0.0997601 -0.994791 
0.0164335 -0.102282 0.99468 
0.0197849 -0.085827 0.996825 
0.0283595 -0.0837192 0.996846 
0.0271442 -0.0838788 0.996999 
0.0319964 -0.0681215 0.99793 
0.0280028 -0.0574064 0.9987 
0.0324792 -0.0469149 0.998993 
0.0305941 -0.0376542 0.999664 
0.035214 -0.0313313 0.999505 
0.0340485 -0.0257344 0.999804 
0.0345002 -0.0220261 0.99987 
0.0364485 -0.0184213 0.999861 
0.0360129 -0.0154893 0.999918 
0.0381785 -0.0127738 0.99987 
0.0385649 -0.0102409 0.999881 
0.0387291 -0.00749046 0.999903 
0.0400188 -0.00470215 0.999869 
0.0399643 -0.00147548 0.999881 
0.0391231 0.00193001 0.999914 
0.0385076 0.00564915 0.99992 
0.0376111 0.00966764 0.999915 
0.0369215 0.0145667 0.999876 
0.0355919 0.0208822 0.99981 
0.0341516 0.0294793 0.999646 
0.0323146 0.0407418 0.999322 
0.0299707 0.0561496 0.998665 
0.0271208 0.0759555 0.997462 
0.0232564 0.103264 0.995137 
0.0189878 0.13865 0.990959 
0.0146286 0.181961 0.984023 
0.00948614 0.243956 0.97058 
0.0026852 0.330593 0.944585 
-0.00293854 0.452283 0.892697 
-0.00483781 0.560459 0.82868 
-0.00761244 0.720661 0.693077 
-0.00410257 0.86081 0.508969 
-0.00114851 0.932062 0.361024 
0.00202964 0.977729 0.203864 
-0.00298083 0.94457 0.32636 
-0.000662057 0.983741 0.174345 
-0.000798099 0.998793 -0.00656616 
-0.00117595 0.959364 -0.280294 
0.00235779 0.879074 -0.474268 
0.00518197 0.763574 -0.646521 
0.00685017 0.727609 -0.686104 
0.00712627 0.595471 -0.803832 
0.00216476 0.41944 -0.908534 
-0.00167878 0.338685 -0.941555 
-0.00678173 0.26686 -0.964514 
-0.0128206 0.201945 -0.980244 
-0.0169549 0.159233 -0.987742 
-0.0223228 0.123805 -0.992695 
-0.022436 0.0989212 -0.995591 
-0.0279592 0.0719708 -0.997733 
-0.0306143 0.0527714 -0.998835 
-0.0322969 0.0381231 -0.999432 
-0.034993 0.0264824 -0.999705 
-0.0360372 0.0189057 -0.999838 
-0.0373204 0.0129978 -0.999885 
-0.0384041 0.00831295 -0.999903 
-0.0393902 0.00446407 -0.999895 
-0.0393197 0.000325478 -0.999913 
-0.0390506 -0.0030794 -0.999922 
-0.0392291 -0.0062013 -0.999899 
-0.0385285 -0.00894505 -0.999904 
-0.0384545 -0.0115922 -0.999879 
-0.0375134 -0.0142175 -0.999882 
-0.0366895 -0.0171556 -0.99987 
-0.0355089 -0.0203466 -0.999862 
-0.0342277 -0.0239235 -0.999836 
-0.0327949 -0.0294629 -0.999863 
-0.033673 -0.0366449 -0.999498 
-0.0309227 -0.0464971 -0.999184 
-0.0313904 -0.0590311 -0.998519 
-0.0275454 -0.072835 -0.997723 
-0.0285973 -0.0838901 -0.996822 
-0.0242164 -0.0874044 -0.996621 
-0.0238027 -0.0848188 -0.99683 
-0.0179476 -0.102029 -0.994691 
0.0107377 -0.103098 0.994673 
0.0139344 -0.0886627 0.996666 
0.02149 -0.0871065 0.996722 
0.0192994 -0.0855705 0.996894 
0.0238397 -0.0740228 0.997731 
0.0213321 -0.0592455 0.998758 
0.0241971 -0.0456461 0.999397 
0.0227152 -0.0367245 0.999791 
0.0264045 -0.0303305 0.99991 
0.0246668 -0.0258583 1.00007 
0.0271145 -0.0217072 1.00009 
0.028434 -0.0184849 1.00011 
0.0281238 -0.0155707 1.00027 
0.0299498 -0.0128066 1.00014 
0.0310516 -0.00992387 1.00004 
0.0307004 -0.00695721 1.00028 
0.0319718 -0.00379142 1.00006 
0.0311291 -0.000277088 1.00019 
0.0306319 0.00357155 1.0002 
0.0301179 0.00752119 1.00028 
0.0296618 0.0120548 1.00014 
0.0288509 0.0175784 1.00008 
0.0276811 0.0250612 0.999956 
0.0261431 0.0351142 0.999703 
0.0244285 0.0486535 0.999198 
0.0219209 0.0668456 0.99823 
0.0191776 0.0909615 0.99641 
0.0155183 0.1233 0.993032 
0.011557 0.164916 0.987067 
0.00821865 0.218246 0.976558 
0.00391543 0.286006 0.959042 
-0.000823089 0.386017 0.92327 
-0.00318585 0.483868 0.875795 
-0.00407311 0.613824 0.789828 
-0.00608395 0.702702 0.71154 
-0.00272285 0.851413 0.524104 
0.00162981 0.926887 0.372745 
0.0021312 0.998493 0.0534311 
0.00294598 0.998648 0.0456183 
-1.31128e-05 0.999764 0.0240862 
-0.00021894 0.999693 -0.00597459 
-0.00584455 0.993035 -0.114221 
-0.00367643 0.950021 -0.308269 
0.00247983 0.84416 -0.534759 
0.00682034 0.647677 -0.762071 
0.00643114 0.551963 -0.834612 
0.00527272 0.493095 -0.870626 
0.00220661 0.390497 -0.92139 
-0.00235333 0.295007 -0.956314 
-0.00683393 0.228212 -0.974421 
-0.0109158 0.171826 -0.985872 
-0.0148998 0.130294 -0.992276 
-0.0188211 0.0892275 -0.996689 
-0.0221397 0.0664549 -0.998143 
-0.0243253 0.0479318 -0.999239 
-0.0267624 0.0332664 -0.999757 
-0.0277927 0.0238559 -0.999985 
-0.0290695 0.0166624 -1.00009 
-0.0302018 0.0112201 -1.00014 
-0.0304136 0.00698832 -1.00027 
-0.0319829 0.0030055 -1.00006 
-0.0307968 -0.00084768 -1.00031 
-0.0311568 -0.00455422 -1.00018 
-0.0306622 -0.00770009 -1.00018 
-0.0304205 -0.0105716 -1.00016 
-0.0295872 -0.013259 -1.00015 
-0.0293043 -0.0160705 -1.00012 
-0.0281028 -0.0190197 -1.00011 
-0.0264083 -0.0222445 -1.00009 
-0.0263069 -0.0263521 -0.999902 
-0.024091 -0.0317588 -0.999918 
-0.0257182 -0.0377855 -0.999685 
-0.0225877 -0.0460449 -0.999419 
-0.0239443 -0.0567739 -0.998851 
-0.0209015 -0.0709498 -0.998011 
-0.0205755 -0.0852298 -0.996897 
-0.017657 -0.0882806 -0.996669 
-0.0172092 -0.08901 -0.996587 
-0.0129817 -0.103071 -0.994645 
0.00832582 -0.103291 0.994544 
0.00975371 -0.0914549 0.996552 
0.0149419 -0.0887235 0.996674 
0.0139414 -0.0869066 0.996856 
0.0172496 -0.0721191 0.997996 
0.0145691 -0.058958 0.998882 
0.0177252 -0.0481266 0.99941 
0.016338 -0.0389775 0.999818 