# vtk DataFile Version 3.0 
Exported using Morpho https://github.com/Morpho-lang/morpho 
ASCII 
DATASET UNSTRUCTURED_GRID 

POINTS 1978 float 
-8.4853 -2.82844 -4.17142e-08 
-8.19942 -2.82843 2.84001e-08 
-7.97325 -2.82843 4.44312e-08 
-7.7164 -2.82843 3.9821e-08 
-7.3979 -2.82843 -1.36833e-07 
-7.16419 -2.82843 1.64084e-07 
-6.93705 -2.82843 -7.58763e-08 
-6.72708 -2.82843 1.30192e-08 
-6.52359 -2.82843 2.07045e-08 
-6.32825 -2.82843 -9.69253e-09 
-6.13054 -2.82843 5.32052e-08 
-5.91737 -2.82843 -4.25423e-09 
-5.69737 -2.82843 1.65477e-08 
-5.47626 -2.82843 1.49534e-08 
-5.26469 -2.82843 -3.40315e-09 
-5.05411 -2.82843 1.14077e-08 
-4.84456 -2.82843 -1.56557e-08 
-4.63902 -2.82843 -1.89599e-08 
-4.42525 -2.82843 -4.19652e-08 
-4.21488 -2.82843 -4.63014e-08 
-4.01059 -2.82843 -6.66843e-08 
-3.81759 -2.82843 -9.38854e-08 
-3.62069 -2.82843 -1.17891e-07 
-3.421 -2.82843 -1.66624e-07 
-3.19049 -2.82843 -2.51515e-07 
-2.9849 -2.82843 -3.04851e-07 
-2.73346 -2.82843 -4.45592e-07 
-2.52514 -2.82843 -5.55672e-07 
-2.21077 -2.82843 -6.35836e-07 
-2.01472 -2.82843 -6.81584e-07 
-1.77776 -2.82843 -7.11495e-07 
-1.60017 -2.82843 -7.39263e-07 
-1.38622 -2.82843 -7.94756e-07 
-1.16295 -2.82843 -7.24444e-07 
-1.03624 -2.82843 -2.57116e-07 
-0.851156 -2.82842 -3.91175e-07 
-0.652534 -2.82843 -1.15038e-07 
-0.424445 -2.82844 -5.09811e-08 
-0.202041 -2.82843 2.18395e-07 
-0.023065 -2.82843 1.57546e-07 
0.275732 -2.82843 -9.31331e-08 
0.476643 -2.82843 -9.94546e-08 
0.644755 -2.82844 -2.90354e-08 
0.833693 -2.82842 2.24885e-07 
1.01682 -2.82843 3.5774e-07 
1.18996 -2.82843 7.39143e-07 
1.39096 -2.82843 6.58956e-07 
1.55616 -2.82842 6.50178e-07 
1.73619 -2.82843 6.78718e-07 
1.95179 -2.82843 7.66401e-07 
2.2282 -2.82843 7.1616e-07 
2.49503 -2.82843 6.25192e-07 
2.74048 -2.82843 4.58635e-07 
2.9801 -2.82843 3.39954e-07 
3.21674 -2.82843 2.43816e-07 
3.42594 -2.82843 1.68188e-07 
3.62653 -2.82843 1.21371e-07 
3.81987 -2.82843 9.71692e-08 
4.03178 -2.82843 5.99493e-08 
4.23773 -2.82843 5.32991e-08 
4.43716 -2.82843 3.90884e-08 
4.64041 -2.82843 5.04028e-09 
4.8479 -2.82843 2.07285e-08 
5.04925 -2.82843 -6.10287e-09 
5.27209 -2.82843 -9.93448e-09 
5.48792 -2.82843 -2.78515e-09 
5.70542 -2.82843 -2.77707e-08 
5.92578 -2.82843 -1.70319e-08 
6.13886 -2.82843 -2.45526e-08 
6.36182 -2.82843 -2.93065e-08 
6.58819 -2.82843 -8.03728e-10 
6.79191 -2.82843 1.13925e-08 
6.99593 -2.82843 3.94955e-08 
7.28047 -2.82843 -4.70161e-08 
7.50172 -2.82843 9.85269e-08 
7.74361 -2.82843 -1.26238e-08 
8.00254 -2.82843 -5.06225e-08 
8.19067 -2.82843 -5.67198e-08 
8.4853 -2.82844 2.35706e-08 
-8.48528 -2.56577 3.62177e-08 
-8.27646 -2.62727 -1.90207e-10 
-8.0335 -2.57826 -1.98676e-10 
-7.80412 -2.60895 9.28092e-11 
-7.53207 -2.6512 2.4776e-10 
-7.26029 -2.5944 1.33951e-09 
-7.02531 -2.59335 6.9746e-10 
-6.80882 -2.58159 1.81304e-10 
-6.58506 -2.57598 -6.08198e-10 
-6.36675 -2.57043 -9.05411e-10 
-6.15322 -2.57746 -1.36468e-09 
-5.94178 -2.59181 -1.05581e-09 
-5.71253 -2.59235 -1.022e-09 
-5.49225 -2.58914 -1.01873e-09 
-5.26886 -2.58556 -3.32783e-10 
-5.04553 -2.58857 4.43162e-10 
-4.83076 -2.58634 1.06624e-09 
-4.60677 -2.59755 1.94319e-09 
-4.38071 -2.59705 2.91406e-09 
-4.15952 -2.59249 4.48607e-09 
-3.94564 -2.57944 5.57137e-09 
-3.73337 -2.58124 6.3111e-09 
-3.50928 -2.57739 5.80587e-09 
-3.2799 -2.60173 7.97474e-09 
-3.03119 -2.55329 9.38253e-09 
-2.80957 -2.59977 9.75145e-09 
-2.56778 -2.56253 1.75203e-08 
-2.33732 -2.66769 9.52788e-09 
-2.07897 -2.59021 5.7994e-09 
-1.86852 -2.6637 1.52516e-08 
-1.66082 -2.64346 2.37465e-08 
-1.47129 -2.69688 8.25997e-09 
-1.26085 -2.7137 7.89468e-09 
-1.10074 -2.64544 3.43039e-08 
-0.936102 -2.72584 5.48611e-08 
-0.800524 -2.64052 -5.24173e-07 
-0.733666 -2.743 1.70941e-07 
-0.512216 -2.74972 -1.26242e-07 
-0.286594 -2.75752 2.38788e-08 
-0.062438 -2.7409 2.58668e-10 
0.114455 -2.77354 -7.4615e-09 
0.38884 -2.73213 3.01739e-08 
0.685321 -2.73286 3.04197e-07 
0.861095 -2.72262 1.92608e-07 
1.03252 -2.70795 1.15113e-07 
1.20017 -2.67379 -2.28011e-07 
1.36924 -2.69351 2.59824e-07 
1.53702 -2.63523 -3.9937e-07 
1.72316 -2.64788 -3.32465e-08 
1.94316 -2.65436 2.96888e-08 
2.20292 -2.6306 5.15031e-08 
2.45197 -2.61582 -7.38024e-08 
2.70746 -2.58532 -2.2496e-09 
2.95073 -2.58092 -7.58044e-09 
3.1912 -2.58079 -1.0262e-08 
3.42485 -2.56285 -7.6177e-09 
3.63413 -2.56746 -5.27229e-09 
3.85786 -2.60132 -5.8349e-09 
4.07838 -2.5959 -4.38051e-09 
4.28869 -2.58484 -3.47481e-09 
4.4992 -2.58508 -2.46146e-09 
4.71223 -2.58512 -1.56332e-09 
4.92107 -2.57415 -7.67388e-10 
5.14102 -2.59687 -5.88252e-11 
5.3662 -2.58834 4.61043e-10 
5.58714 -2.58765 9.64216e-10 
5.81113 -2.58938 1.26673e-09 
6.03247 -2.58355 1.39943e-09 
6.25267 -2.59665 1.55972e-09 
6.48019 -2.60053 1.26655e-09 
6.7004 -2.57158 7.27287e-10 
6.9091 -2.56689 -2.33129e-10 
7.13796 -2.63788 -1.04177e-09 
7.38531 -2.58205 -1.56511e-09 
7.61457 -2.60733 -9.95398e-10 
7.86467 -2.62434 -9.62901e-10 
8.07437 -2.5468 -7.59594e-10 
8.30138 -2.65028 -2.45019e-10 
8.48528 -2.54311 5.68987e-08 
-8.48528 -2.34531 -1.06976e-07 
-8.23856 -2.382 2.11995e-10 
-8.00246 -2.33484 4.37655e-10 
-7.7341 -2.41933 -1.36788e-09 
-7.60616 -2.23336 2.81287e-09 
-7.4571 -2.44196 -7.63407e-10 
-7.1229 -2.36879 3.16735e-10 
-6.89835 -2.32873 1.7889e-10 
-6.68236 -2.34288 -2.84532e-10 
-6.45234 -2.3307 -8.52046e-10 
-6.22441 -2.3331 -1.23753e-09 
-6.01162 -2.3374 -1.22843e-09 
-5.79648 -2.36692 -1.04541e-09 
-5.57581 -2.34433 -9.61639e-10 
-5.35787 -2.35213 -3.65621e-10 
-5.13289 -2.35894 2.47972e-10 
-4.91243 -2.3447 1.02104e-09 
-4.69786 -2.36213 1.84718e-09 
-4.48066 -2.37 3.02929e-09 
-4.26297 -2.36178 4.12501e-09 
-4.05261 -2.34615 5.48955e-09 
-3.84326 -2.3322 6.83158e-09 
-3.6295 -2.3443 6.94909e-09 
-3.40685 -2.34037 9.23347e-09 
-3.19021 -2.36063 5.40282e-09 
-2.94447 -2.30765 1.05014e-08 
-2.73565 -2.35408 3.14516e-09 
-2.49442 -2.34044 1.79221e-08 
-2.29622 -2.46273 -4.9563e-09 
-2.07178 -2.38606 2.64307e-07 
-1.86541 -2.47811 -2.82621e-08 
-1.65741 -2.48296 6.55866e-08 
-1.45975 -2.54156 -1.61453e-08 
-1.28785 -2.57568 5.59577e-08 
-0.963055 -2.58972 1.09769e-07 
-0.863681 -2.50236 -3.68643e-07 
-0.618765 -2.66752 3.90857e-07 
-0.36288 -2.65933 1.04829e-07 
-0.135735 -2.66225 9.36718e-08 
-0.00468454 -2.65132 2.08255e-08 
0.260599 -2.71887 -1.06849e-08 
0.528446 -2.70093 -3.43507e-07 
0.698424 -2.63178 -1.03312e-07 
0.845786 -2.59483 -1.4474e-07 
1.00294 -2.58696 -5.00897e-08 
1.1911 -2.54298 1.41361e-07 
1.38021 -2.53408 9.7441e-08 
1.59315 -2.45694 -7.04134e-09 
1.77512 -2.47204 -5.07571e-08 
1.99736 -2.48607 3.24382e-09 
2.21882 -2.42103 -1.12136e-07 
2.43432 -2.39893 4.62222e-08 
2.6821 -2.36726 -1.22464e-08 
2.92757 -2.34329 -3.04068e-09 
3.15715 -2.33976 -4.75555e-09 
3.38883 -2.32589 -8.99477e-09 
3.61478 -2.31194 -6.58574e-09 
3.82368 -2.36466 -7.29899e-09 
4.0352 -2.36745 -5.69506e-09 
4.24977 -2.34637 -3.95402e-09 
4.45834 -2.34419 -2.88207e-09 
4.66677 -2.34424 -1.93944e-09 
4.87458 -2.32801 -1.19828e-09 
5.08768 -2.35356 -4.46652e-10 
5.3019 -2.35688 1.72226e-10 
5.52318 -2.34681 6.48367e-10 
5.74117 -2.3514 1.0284e-09 
5.96111 -2.34642 1.34787e-09 
6.18201 -2.35202 1.34586e-09 
6.39633 -2.36705 1.24243e-09 
6.6107 -2.34579 9.28916e-10 
6.83325 -2.31465 3.43219e-10 
7.06485 -2.37627 -5.40504e-10 
7.27622 -2.38915 -1.38355e-09 
7.54797 -2.36154 -9.24132e-10 
7.77985 -2.40308 -8.97894e-10 
7.99603 -2.32241 -5.10881e-11 
8.25644 -2.39295 -2.89784e-10 
8.48528 -2.30863 8.72546e-08 
-8.48529 -2.09007 -6.84433e-09 
-8.26551 -2.14873 -1.76117e-10 
-8.09286 -2.04933 1.26947e-09 
-7.85068 -2.16496 -1.70814e-09 
-7.5119 -2.04796 -1.70224e-09 
-7.30844 -2.26758 -3.8947e-10 
-7.05289 -2.11384 -1.72489e-10 
-6.81651 -2.08012 -1.51335e-10 
-6.59639 -2.11085 -1.00982e-10 
-6.35006 -2.10836 7.00182e-11 
-6.13178 -2.08791 1.54827e-10 
-5.91094 -2.11276 6.53827e-11 
-5.70898 -2.11734 4.43045e-11 
-5.48419 -2.10774 3.02118e-11 
-5.26571 -2.12459 7.39247e-11 
-5.04838 -2.12314 8.24273e-11 
-4.82385 -2.11225 8.88459e-11 
-4.61122 -2.13179 2.65726e-10 
-4.39637 -2.13545 3.38728e-10 
-4.18208 -2.11666 1.50271e-10 
-3.97144 -2.09717 -4.43797e-10 
-3.74809 -2.09928 1.92796e-10 
-3.53366 -2.10409 -3.66904e-10 
-3.30897 -2.10118 -1.02681e-09 
-3.0983 -2.12548 -1.65908e-09 
-2.85735 -2.07158 -1.28358e-09 
-2.6534 -2.13853 -1.5482e-09 
-2.43927 -2.11769 1.13767e-08 
-2.25985 -2.24689 -1.58415e-07 
-1.98471 -2.2368 -1.92878e-07 
-1.7889 -2.31999 2.55932e-08 
-1.55754 -2.36759 6.17854e-08 
-1.38683 -2.39447 5.60626e-09 
-1.25959 -2.32835 -1.32994e-07 
-1.19768 -2.4762 -3.84682e-08 
-1.05922 -2.47351 9.21148e-08 
-0.737468 -2.52982 8.18002e-07 
-0.463389 -2.60598 -7.50415e-08 
-0.25331 -2.62746 -1.96837e-07 
0.144973 -2.67026 -2.52042e-08 
0.285891 -2.59998 -1.71804e-07 
0.570125 -2.57429 -4.06501e-07 
0.727015 -2.51086 2.26699e-07 
0.931259 -2.46655 -3.28683e-07 
1.08712 -2.44778 1.96352e-07 
1.31407 -2.39815 1.54936e-08 
1.49183 -2.36102 -4.75452e-08 
1.71492 -2.27495 4.85907e-08 
1.89211 -2.31547 -6.2036e-09 
2.08112 -2.27634 3.6075e-08 
2.27855 -2.18385 -1.16668e-08 
2.49027 -2.19592 5.33477e-09 
2.72688 -2.1542 -6.85982e-09 
2.93594 -2.10828 1.55085e-09 
3.16617 -2.11146 -6.54839e-09 
3.38825 -2.09084 4.43757e-09 
3.6093 -2.07735 2.9519e-10 
3.83418 -2.12069 -1.97688e-10 
4.05185 -2.13248 -7.08991e-10 
4.26701 -2.10774 7.62021e-11 
4.47888 -2.1052 1.7781e-10 
4.68867 -2.10093 8.02341e-11 
4.90715 -2.0933 6.09215e-11 
5.12192 -2.11534 -7.31812e-11 
5.33991 -2.1202 -4.0893e-11 
5.55969 -2.10762 -4.08702e-12 
5.78028 -2.11459 3.64159e-11 
6.00163 -2.11181 1.07678e-10 
6.21493 -2.11013 -3.6081e-11 
6.42509 -2.12086 3.99308e-11 
6.64584 -2.10666 3.93864e-11 
6.8946 -2.09967 1.84572e-10 
7.10271 -2.11842 1.74066e-10 
7.34377 -2.17967 -1.46359e-11 
7.55083 -2.0933 3.82771e-10 
7.75863 -2.16105 -8.98346e-11 
7.97168 -2.07653 -3.88325e-10 
8.21009 -2.17084 -4.16946e-10 
8.48528 -2.10587 1.5728e-08 
-8.48528 -1.70558 5.16796e-08 
-8.3395 -1.87242 -4.12702e-10 
-7.91405 -1.89327 1.59854e-09 
[...]
POINT_DATA 1978 
VECTORS vectors float
0.00474626 -0.0064505 0.99997 
0.00467082 -0.0232494 0.999719 
0.00503131 -0.00267599 0.999983 
0.0061519 0.0250209 0.999668 
0.00615181 0.0314174 0.999487 
0.00563896 0.0221425 0.999739 
0.00509785 0.00539283 0.999973 
0.00488671 -0.00627633 0.99997 
0.00475025 -0.0129213 0.999907 
0.00468558 -0.0181863 0.999826 
0.00468954 -0.0215179 0.999759 
0.00480085 -0.0231818 0.999721 
0.00475179 -0.0224615 0.999737 
0.00477142 -0.0186846 0.999815 
0.00451159 -0.0119209 0.99992 
0.00441542 -0.00334564 0.999986 
0.0043456 0.00782813 0.999961 
0.00430534 0.020973 0.999772 
0.00418084 0.0366863 0.999319 
0.00405718 0.0545599 0.998503 
0.00391749 0.0741964 0.997237 
0.00376523 0.0944872 0.995521 
0.00372271 0.116863 0.993142 
0.00357585 0.139839 0.990168 
0.00367221 0.165998 0.98612 
0.0035242 0.1896 0.981855 
0.00360298 0.216932 0.97618 
0.0037265 0.239496 0.97089 
0.0033034 0.274654 0.961537 
0.00276886 0.301209 0.953554 
0.00225937 0.336712 0.941605 
0.0020645 0.369624 0.929179 
0.00153484 0.417322 0.908758 
0.000790965 0.495143 0.868811 
0.000353145 0.547774 0.836626 
-0.000125981 0.642587 0.766213 
-0.000628172 0.747372 0.664406 
-0.000331578 0.88015 0.474695 
-0.000439355 0.971011 0.239033 
0.000153123 0.999951 0.00986767 
-0.000128296 0.944743 -0.327813 
0.000558633 0.848341 -0.529451 
0.000441726 0.73393 -0.679226 
-0.000149947 0.62344 -0.781871 
-0.000681366 0.54138 -0.840778 
-0.000687417 0.480122 -0.877202 
-0.0015415 0.411718 -0.91131 
-0.00177065 0.375906 -0.926657 
-0.00192665 0.340097 -0.940389 
-0.00289366 0.307601 -0.951511 
-0.00328115 0.268831 -0.963181 
-0.00369817 0.242283 -0.970198 
-0.00362512 0.21749 -0.976056 
-0.00363752 0.191512 -0.981483 
-0.00361067 0.164938 -0.986298 
-0.00355695 0.139884 -0.990162 
-0.00368494 0.114728 -0.993391 
-0.00380507 0.0920498 -0.995748 
-0.00387074 0.069894 -0.997548 
-0.00406062 0.0501496 -0.998735 
-0.00414682 0.0331216 -0.999444 
-0.00417971 0.0185929 -0.99982 
-0.00439902 0.00670945 -0.999969 
-0.00450774 -0.00184156 -0.999989 
-0.00460662 -0.00880443 -0.999951 
-0.00475359 -0.0141713 -0.999889 
-0.00473096 -0.0186835 -0.999815 
-0.00480167 -0.022177 -0.999743 
-0.00492044 -0.0244529 -0.999689 
-0.00484556 -0.0256733 -0.999659 
-0.00482894 -0.024241 -0.999695 
-0.00537336 -0.0176194 -0.999832 
-0.00576606 -0.00146662 -0.999982 
-0.00606741 0.0354811 -0.999351 
-0.0057658 0.0554949 -0.998442 
-0.00491326 0.0583596 -0.998283 
-0.00462576 0.0303766 -0.999528 
-0.00397609 0.00758999 -0.999964 
-0.00425052 -0.00659137 -0.999971 
0.00374417 -0.00639835 0.999974 
0.0117647 -0.0193571 0.999744 
0.0172496 -0.0112368 0.999788 
0.0202726 0.00888675 0.999755 
0.019983 0.0257138 0.99947 
0.0255231 0.020879 0.999456 
0.0249492 0.0110401 0.999628 
0.0261966 0.00046475 0.999657 
0.0266656 -0.00843176 0.999609 
0.0259756 -0.0147945 0.999553 
0.0255857 -0.0189907 0.999492 
0.0236315 -0.0209927 0.9995 
0.0225376 -0.01983 0.999549 
0.0218362 -0.0156276 0.99964 
0.0199255 -0.00906254 0.99976 
0.0188196 -0.000249711 0.999823 
0.0171564 0.0109659 0.999793 
0.0150496 0.025102 0.999572 
0.0128457 0.042106 0.999031 
0.010377 0.0612116 0.998071 
0.00624129 0.0823231 0.996586 
0.000991288 0.105341 0.994436 
-0.00622892 0.131404 0.991309 
-0.0118165 0.157772 0.987405 
-0.0255436 0.187339 0.981963 
-0.0273813 0.210338 0.977245 
-0.0422076 0.237399 0.970495 
-0.0288382 0.261482 0.964778 
-0.0552082 0.295323 0.953801 
-0.038568 0.324219 0.945196 
-0.0509109 0.359954 0.93158 
-0.0375429 0.39876 0.916287 
-0.0331217 0.46163 0.886454 
-0.0655885 0.524144 0.8491 
-0.0339538 0.593739 0.803941 
-0.0493497 0.664741 0.745442 
-0.0241854 0.718307 0.695306 
-0.0111403 0.839422 0.543367 
-0.00401508 0.938286 0.345836 
-0.00229429 0.998089 0.0617521 
-0.000543508 0.989028 -0.147729 
0.00405867 0.898425 -0.439108 
0.0160362 0.732251 -0.680848 
0.0274978 0.613922 -0.788887 
0.0427454 0.533377 -0.844797 
0.0530225 0.473026 -0.879451 
0.0406878 0.424162 -0.904672 
0.0684595 0.380295 -0.922328 
0.0593408 0.344336 -0.936969 
0.0441796 0.307369 -0.950564 
0.0489776 0.276605 -0.959735 
0.0417991 0.250733 -0.967153 
0.0365852 0.223421 -0.974035 
0.0290539 0.197415 -0.979889 
0.0187364 0.169622 -0.985331 
0.0112176 0.141937 -0.989812 
0.00357083 0.116653 -0.993166 
-0.00389587 0.0903615 -0.995901 
-0.0083959 0.0673482 -0.997694 
-0.0117809 0.0480472 -0.998776 
-0.0144084 0.0310742 -0.999413 
-0.0165525 0.016857 -0.999721 
-0.0183369 0.00620485 -0.999813 
-0.0191548 -0.00261051 -0.999813 
-0.0208438 -0.00913937 -0.999741 
-0.0223036 -0.0143877 -0.999648 
-0.0232604 -0.0186972 -0.999555 
-0.0242897 -0.0215882 -0.999472 
-0.0246045 -0.0231254 -0.99943 
-0.0249483 -0.0219374 -0.999448 
-0.0266209 -0.0154368 -0.999527 
-0.0265928 -0.00414589 -0.999638 
-0.0212728 0.0148737 -0.999663 
-0.0231169 0.034513 -0.999137 
-0.0192263 0.045129 -0.998796 
-0.0159626 0.0347071 -0.99927 
-0.01128 0.0106729 -0.999879 
-0.00658119 -0.000763065 -0.999978 
-0.00242332 -0.00585952 -0.999982 
0.00365194 -0.00722408 0.999968 
0.0121384 -0.019848 0.999729 
0.0176762 -0.0179243 0.999683 
0.0238391 0.00473321 0.999705 
0.0218387 0.0054123 0.999747 
0.0263305 0.0187413 0.999478 
0.0295613 0.0129061 0.99948 
0.0294984 0.00423578 0.999556 
0.0301596 -0.0039446 0.999537 
0.0295916 -0.0112597 0.999499 
0.0293427 -0.0161658 0.999439 
0.0279186 -0.0181156 0.999446 
0.0261678 -0.0175377 0.999504 
0.0236772 -0.0135802 0.999627 
0.0213559 -0.00849589 0.999736 
0.019341 -0.000824295 0.999813 
0.0159906 0.00971191 0.999825 
0.0137167 0.0220656 0.999662 
0.0106707 0.0374563 0.999241 
0.00579585 0.0558599 0.998422 
-0.000668599 0.0761435 0.997097 
-0.0095478 0.0990102 0.99504 
-0.018436 0.123673 0.992152 
-0.0318429 0.151574 0.987933 
-0.0433194 0.177488 0.983169 
-0.0693786 0.211286 0.974959 
-0.0766304 0.232589 0.969552 
-0.0982192 0.262812 0.959835 
-0.0798852 0.276763 0.957612 
-0.121712 0.31253 0.942078 
-0.0999208 0.332348 0.937849 
-0.110148 0.370302 0.922358 
-0.0957441 0.408564 0.907694 
-0.0820519 0.456752 0.885802 
-0.0845162 0.587412 0.804863 
-0.103901 0.635029 0.765469 
-0.0342038 0.772267 0.634377 
-0.0125956 0.917919 0.396567 
-0.00435683 0.990329 0.138661 
-0.00287051 0.999988 0.00402214 
0.000896358 0.949122 -0.314908 
0.0148541 0.812667 -0.582539 
0.0333014 0.705418 -0.708009 
0.0627454 0.636775 -0.768493 
0.0750624 0.559392 -0.825498 
0.106914 0.478991 -0.871284 
0.107592 0.419813 -0.901211 
0.145045 0.378188 -0.914295 
0.124739 0.346668 -0.929657 
0.102815 0.310566 -0.944975 
0.106672 0.28924 -0.951294 
0.0966461 0.264748 -0.959462 
0.0842233 0.240733 -0.96693 
0.0703651 0.214458 -0.974195 
0.0531285 0.185602 -0.981187 
0.0377431 0.156386 -0.986975 
0.0246253 0.127265 -0.991563 
0.00859785 0.0998802 -0.994962 
0.000456461 0.076239 -0.997089 
-0.00408064 0.055873 -0.998429 
-0.00870398 0.0381899 -0.999232 
-0.0126402 0.0233129 -0.999648 
-0.0151352 0.0118539 -0.999815 
-0.0190377 0.00229329 -0.999816 
-0.0214975 -0.00474321 -0.999758 
-0.0233759 -0.0104086 -0.999672 
-0.0255444 -0.0152077 -0.999558 
-0.0273324 -0.0188434 -0.999449 
-0.0287571 -0.0209388 -0.999367 
-0.0298707 -0.0202807 -0.999348 
-0.0292998 -0.0152752 -0.999454 
-0.0276467 -0.00600951 -0.9996 
-0.029186 0.00635521 -0.999554 
-0.0281479 0.0194596 -0.999414 
-0.0222438 0.0256551 -0.999423 
-0.0179801 0.0229021 -0.999576 
-0.00943031 0.00110226 -0.999955 
-0.00581683 -0.00570603 -0.999967 
-0.00240111 -0.00637036 -0.999978 
0.00171553 -0.00911898 0.999962 
0.00649274 -0.0246454 0.999675 
0.00412599 -0.0319277 0.999482 
0.013514 -0.0164727 0.999773 
0.00975448 0.00217157 0.99995 
0.0258897 0.0143793 0.999561 
0.0165588 0.00719752 0.999837 
0.0141234 0.000264495 0.9999 
0.0172034 -0.0068514 0.999828 
0.0168448 -0.0138139 0.999763 
0.0141617 -0.016305 0.999767 
0.0136275 -0.015821 0.999782 
0.0115342 -0.0131661 0.999847 
0.00795451 -0.00838299 0.999933 
0.00604447 -0.00231777 0.999979 
0.00274741 0.00644208 0.999975 
-0.00205916 0.0184672 0.999827 
-0.00458708 0.0320752 0.999475 
-0.00949673 0.0490884 0.998749 
-0.0179503 0.0696485 0.99741 
-0.0283289 0.0931781 0.995246 
-0.0403269 0.121113 0.991819 
-0.0546965 0.149938 0.987181 
-0.0743255 0.18216 0.980456 
-0.0904016 0.209209 0.973683 
-0.126702 0.249786 0.959976 
-0.136082 0.268498 0.95362 
-0.169408 0.301376 0.938335 
-0.147277 0.304263 0.941134 
-0.18567 0.34442 0.920273 
-0.176577 0.365532 0.913896 
-0.169611 0.402694 0.899483 
-0.165018 0.440356 0.882528 
-0.21447 0.478873 0.851283 
-0.132899 0.494636 0.858879 
-0.138257 0.546746 0.825805 
-0.0821372 0.70169 0.707732 
-0.0256334 0.856076 0.516214 
-0.00719233 0.959745 0.280781 
-0.00164775 0.983197 -0.182542 
0.00306764 0.940351 -0.340192 
0.0360866 0.792322 -0.609036 
0.0594768 0.691431 -0.71999 
0.121829 0.580958 -0.804764 
0.14403 0.51785 -0.84326 
0.182155 0.443915 -0.877359 
0.199919 0.404216 -0.892548 
0.227589 0.375362 -0.898502 
0.177942 0.342357 -0.922566 
0.176618 0.323342 -0.929654 
0.183019 0.313216 -0.931879 
0.151186 0.285526 -0.946371 
0.132398 0.261296 -0.956135 
0.114835 0.236931 -0.964716 
0.0914476 0.20605 -0.974259 
0.0718048 0.174298 -0.982071 
0.0551813 0.143202 -0.988154 
0.0344041 0.109006 -0.993445 
0.022427 0.0826388 -0.996327 
0.0168042 0.0609689 -0.997998 
0.0106659 0.0420797 -0.999057 
0.00584161 0.0267203 -0.999626 
0.00203994 0.0140982 -0.999898 
-0.00339459 0.00439866 -0.999984 
-0.00725384 -0.00284556 -0.99997 
-0.00937402 -0.00856225 -0.999919 
-0.0127139 -0.0137298 -0.999825 
-0.0150977 -0.0176955 -0.999729 
-0.0163636 -0.0195039 -0.999676 
-0.0175705 -0.0181683 -0.99968 
-0.0160835 -0.0125721 -0.999791 
-0.0141356 -0.00348921 -0.999894 
-0.0145259 0.00450022 -0.999884 
-0.0173682 0.0143632 -0.999746 
-0.00705697 0.00924967 -0.999932 
-0.00695654 0.00334509 -0.99997 
0.00294442 -0.015839 -0.99987 
0.000220727 -0.0148376 -0.99989 
-0.0014733 -0.00668579 -0.999977 
-0.000879511 -0.00924615 0.999962 
0.000152329 -0.0203095 0.999793 
-0.00272731 -0.03224 0.999476 
0.00088385 -0.0132042 0.999912 
-0.0055099 -0.0027997 0.999981 
0.00947215 0.00807969 0.999922 
-0.00151311 0.00516689 0.999985 
-0.000395767 0.00276068 0.999996 
-0.000835849 -0.00381169 0.999992 
0.004199 -0.0106599 0.999934 
0.00172721 -0.0151211 0.999884 
-0.00011545 -0.0151747 0.999885 
-0.0026628 -0.0124457 0.999919 
-0.00385892 -0.00845337 0.999957 
-0.00862445 -0.00204548 0.999961 
-0.0117827 0.00539035 0.999916 
-0.0155858 0.0155098 0.999758 
-0.0211534 0.0295969 0.999338 
-0.0254567 0.0450651 0.99866 
-0.0324145 0.0645391 0.997388 
-0.0429399 0.0886766 0.995134 
-0.0553307 0.117643 0.991513 
-0.0728849 0.151138 0.985822 
-0.0916788 0.184665 0.978516 
-0.117595 0.222341 0.967851 
-0.137521 0.249979 0.958435 
-0.180063 0.296881 0.937784 
-0.200106 0.316876 0.927118 
-0.238817 0.350601 0.905564 
-0.224333 0.345602 0.911172 
-0.266085 0.378693 0.886448 
-0.263525 0.392838 0.881041 
-0.244086 0.405264 0.881012 
-0.257438 0.435832 0.862425 
-0.225231 0.536947 0.812994 
-0.163012 0.598114 0.784657 
-0.144285 0.661046 0.736343 
-0.0528585 0.788405 0.612881 
-0.0191813 0.916373 0.399866 
-0.0074584 0.997524 0.0699343 
-0.00670713 0.965878 -0.25891 
0.0136116 0.879793 -0.475162 
0.128046 0.631131 -0.765035 
0.201353 0.552188 -0.80904 
0.224307 0.479026 -0.848658 
0.28582 0.429804 -0.85649 
0.290251 0.408962 -0.865161 
0.304777 0.395524 -0.866413 
0.261633 0.369018 -0.891838 
0.259491 0.359173 -0.89647 
0.250517 0.350419 -0.902467 
0.202877 0.31549 -0.926988 
0.191236 0.306182 -0.932567 
0.166691 0.281479 -0.944978 
0.13458 0.244743 -0.960203 
0.11117 0.212367 -0.970846 
0.0899913 0.178098 -0.979889 
0.0661491 0.137213 -0.98833 
0.0498748 0.104856 -0.993236 
0.0395862 0.0791512 -0.996076 
0.0315691 0.0561404 -0.997924 
0.0252467 0.0376223 -0.998973 
0.0195961 0.0227665 -0.999549 
0.014295 0.0109765 -0.999837 
0.00982191 0.00259485 -0.999948 
0.00639894 -0.00382168 -0.999972 
0.00257293 -0.00992476 -0.999947 
-0.000284864 -0.0150304 -0.999887 
-0.00195605 -0.0181359 -0.999834 
-0.00284822 -0.017956 -0.999835 
-0.00191927 -0.0136195 -0.999905 
-0.000821573 -0.00655858 -0.999978 
0.00247326 -0.000643058 -0.999997 
-0.000562098 0.00471702 -0.999989 
0.00646852 -0.000723193 -0.999979 
0.00828212 -0.0132335 -0.999878 
0.0122455 -0.0296043 -0.999487 
0.00621024 -0.0218311 -0.999743 
0.000568505 -0.00685015 -0.999978 
-0.00266284 -0.00757637 0.999968 
-0.00570556 -0.0350402 0.99937 
-0.0056172 -0.0389419 0.999226 
-0.0102227 -0.0387695 0.999196 
-0.00972695 -0.0197117 0.999758 
-0.0107945 0.00164908 0.99994 
-0.0102913 0.00209062 0.999945 
-0.00813953 -0.00206584 0.999965 
-0.00530094 -0.00981695 0.999938 
-0.00471625 -0.0141101 0.999889 
-0.00563823 -0.0146691 0.999876 
-0.00740157 -0.0110031 0.999912 
-0.00993851 -0.00656787 0.999929 
-0.0134686 -0.000939969 0.999909 
-0.0172964 0.00677444 0.999827 
-0.0212586 0.0157736 0.99965 
-0.0262208 0.0281973 0.999258 
-0.032411 0.0456651 0.998431 
-0.0389548 0.0646759 0.997146 
-0.0482491 0.0890907 0.994854 
-0.0611063 0.119881 0.990906 
-0.0791407 0.157825 0.984291 
-0.101047 0.1972 0.975142 
-0.126737 0.237199 0.963158 
-0.157179 0.278295 0.947548 
-0.182699 0.304384 0.934864 
-0.233462 0.3592 0.903588 
-0.255086 0.368368 0.894 
-0.307534 0.41023 0.858565 
-0.304643 0.399533 0.864619 
-0.368659 0.444277 0.816522 
-0.338172 0.425005 0.839649 
-0.33881 0.436821 0.833304 
-0.354043 0.450446 0.819605 
-0.307516 0.468706 0.8281 
-0.291549 0.509843 0.809358 
-0.22471 0.601761 0.766414 
-0.0846665 0.765564 0.637765 
-0.0090394 0.972764 0.231621 
-0.00535048 0.993514 -0.113583 
0.0241676 0.894168 -0.447078 
0.0514766 0.808512 -0.586224 
0.207166 0.598491 -0.77388 
0.295326 0.510852 -0.807349 
0.323452 0.459141 -0.827386 
0.387429 0.440945 -0.809609 
0.376241 0.428836 -0.821305 
0.354662 0.41452 -0.838086 
0.326583 0.400144 -0.856287 
0.327612 0.412015 -0.850244 
0.26925 0.371827 -0.888397 
0.245708 0.359762 -0.90011 
0.217421 0.341367 -0.914438 
0.175632 0.297269 -0.938501 
0.146763 0.264449 -0.953167 
0.119832 0.227917 -0.966278 
0.092879 0.181505 -0.978994 
0.0726943 0.142051 -0.987186 
0.0580942 0.10955 -0.992282 
0.0464743 0.0809572 -0.995633 
0.0379275 0.0582761 -0.99758 
0.0309211 0.0395656 -0.998738 
0.0248787 0.0242292 -0.999397 
0.020077 0.0133233 -0.99971 
0.0159504 0.00537458 -0.999858 
0.0118076 -0.00169821 -0.999929 
0.00825798 -0.00799952 -0.999934 
0.00562353 -0.0134014 -0.999894 
0.00380257 -0.0170663 -0.999847 
0.00320868 -0.0171029 -0.999849 
0.00440942 -0.0128107 -0.999908 
0.00686267 -0.00640586 -0.999956 
0.00997881 -0.0023954 -0.999947 
0.0100943 -0.00120193 -0.999948 
0.0125719 -0.00958828 -0.999875 
0.0142266 -0.024546 -0.999597 
0.0143713 -0.0386321 -0.99915 
0.010234 -0.0278491 -0.99956 
0.00346115 -0.00736061 -0.999969 
-0.00218993 -0.00666045 0.999976 
-0.00628323 -0.0333323 0.999425 
-0.00949533 -0.0426525 0.999045 
-0.0120677 -0.027757 0.999542 
-0.0127592 -0.00950276 0.999873 
-0.0132797 -0.000781074 0.999912 
-0.011812 0.00126099 0.999929 
-0.00845664 -0.0033476 0.999958 
-0.00630882 -0.00894955 0.99994 
-0.00418992 -0.0135998 0.999899 
-0.00483825 -0.0141078 0.999889 
-0.00529758 -0.0102413 0.999933 
-0.00814175 -0.00428837 0.999958 
-0.0114962 0.00177839 0.999932 
-0.0151997 0.00871129 0.999846 
-0.0192145 0.0178371 0.999656 
-0.0239712 0.0290041 0.999292 
-0.0293471 0.0443423 0.998585 
-0.0362109 0.0652688 0.99721 
-0.044046 0.0882337 0.995125 
-0.0561099 0.118409 0.991378 
-0.0719596 0.156782 0.985008 
-0.0943503 0.204011 0.974411 
-0.12103 0.249547 0.96077 
-0.151511 0.294796 0.943472 
-0.186918 0.336634 0.922897 
-0.219391 0.362413 0.905828 
-0.277005 0.426738 0.860908 
-0.303701 0.428926 0.850758 
-0.356809 0.475717 0.803978 
-0.379962 0.468537 0.79756 
-0.446608 0.508795 0.735982 
-0.420792 0.47868 0.770584 
-0.416508 0.47788 0.773403 
-0.47892 0.506466 0.717027 
-0.403246 0.480611 0.778721 
-0.306815 0.579245 0.755208 
-0.10719 0.767092 0.632519 
-0.0409243 0.845876 0.531808 
-0.0119035 0.998586 -0.0518057 
0.053203 0.842535 -0.536002 
0.0786548 0.718027 -0.691557 
0.342684 0.546391 -0.764215 
0.414133 0.471016 -0.77887 
0.401484 0.454248 -0.79528 
0.436449 0.461324 -0.772459 
0.436334 0.465496 -0.770017 
0.401941 0.453187 -0.795654 
0.398073 0.467879 -0.789067 
0.365866 0.481253 -0.796579 
0.321335 0.429774 -0.843824 
0.287307 0.423655 -0.859053 
0.226277 0.370401 -0.900889 
0.200973 0.359129 -0.911393 
0.167494 0.314857 -0.934243 
0.134259 0.272661 -0.952696 
0.105861 0.222792 -0.969101 
0.0816083 0.17556 -0.98108 
0.0637667 0.135767 -0.988686 
0.0505916 0.101214 -0.993577 
0.0403448 0.0742316 -0.996424 
0.0320263 0.0520922 -0.998129 
0.025833 0.0343169 -0.999077 
0.0203865 0.0214381 -0.999562 
0.0157334 0.0121637 -0.999802 
0.0118026 0.0041649 -0.999922 
0.00817176 -0.00300763 -0.999962 
0.00521201 -0.00954151 -0.999941 
0.00331878 -0.0146663 -0.999887 
0.00231888 -0.0161355 -0.999867 
0.00347212 -0.0129242 -0.99991 
0.00636171 -0.00704446 -0.999955 
0.00932382 -0.00289471 -0.999952 
0.0118449 -0.00411748 -0.999921 
0.0121779 -0.0137818 -0.999831 
0.0129474 -0.030564 -0.999449 
0.0106142 -0.0433703 -0.999003 
0.00866719 -0.0315156 -0.999466 
0.00278135 -0.00712832 -0.999972 
-0.00111508 -0.00689813 0.999975 
-0.00517151 -0.0404438 0.999169 
-0.0089219 -0.0444142 0.998973 
-0.010216 -0.0292095 0.999521 
-0.0126568 -0.0112026 0.999857 
-0.00959717 -0.00129846 0.999953 
-0.00754988 1.37439e-05 0.999971 
-0.00322547 -0.00487508 0.999983 
-0.00236255 -0.0104163 0.999943 
0.00120541 -0.012918 0.999916 
0.000371175 -0.0121149 0.999926 
-0.000565943 -0.00610157 0.999981 
-0.00270585 0.00123927 0.999995 
-0.00625564 0.00859716 0.999943 
-0.0105015 0.0171305 0.999798 
-0.0147739 0.028328 0.999489 
-0.0199999 0.0421602 0.998911 
-0.0259978 0.0608645 0.997807 
-0.0315691 0.0852574 0.995859 
-0.0423758 0.112626 0.992733 
-0.0556103 0.147748 0.98746 
-0.0738528 0.19275 0.978465 
-0.096896 0.245871 0.964447 
-0.124411 0.294607 0.947485 
-0.159932 0.346547 0.924298 
-0.197014 0.387735 0.90047 
-0.239217 0.419377 0.875727 
-0.280742 0.485184 0.828118 
-0.329814 0.491647 0.805919 
-0.374007 0.541764 0.752736 
-0.411707 0.543401 0.731583 
-0.430949 0.525427 0.733627 
-0.486881 0.530671 0.693784 
-0.496141 0.529091 0.688409 
-0.452514 0.49902 0.73906 
-0.526894 0.547072 0.650457 
-0.377637 0.510911 0.772244 
-0.191471 0.647445 0.737668 
-0.0240769 0.883622 0.467582 
-0.00993245 0.973166 0.229888 
-0.0154644 0.964291 -0.264389 
0.126843 0.659735 -0.740716 
0.479328 0.478357 -0.735812 
0.525917 0.510143 -0.680563 
0.470372 0.475883 -0.743159 
0.515621 0.50956 -0.688827 
0.501149 0.508891 -0.699914 
0.478429 0.511017 -0.71412 
0.433401 0.522626 -0.734184 
0.383277 0.550984 -0.741293 
0.329724 0.501738 -0.799713 
0.266989 0.437265 -0.858787 
0.237214 0.441363 -0.865406 
0.194078 0.402591 -0.894569 
0.156937 0.342366 -0.926367 
0.124073 0.301333 -0.945412 
0.0963084 0.239231 -0.966175 
0.0725385 0.18992 -0.979116 
0.0547265 0.146217 -0.987738 
0.0423505 0.10933 -0.993103 
0.0322898 0.0801082 -0.996263 
0.0244468 0.0574057 -0.998051 
0.0188553 0.0392487 -0.999051 
0.0134124 0.0262372 -0.999566 
0.00894231 0.0165208 -0.999823 
0.00569457 0.00803866 -0.999951 
0.00273543 0.000231765 -0.999996 
-0.00012026 -0.00685932 -0.999976 
-0.00171311 -0.0126519 -0.999918 
-0.00232651 -0.0146449 -0.99989 
-0.00129101 -0.011851 -0.999929 
0.00188993 -0.00614296 -0.999979 
0.00430475 -0.0025137 -0.999987 
0.00810101 -0.0048541 -0.999955 
0.00752704 -0.0145124 -0.999866 
0.0085588 -0.0318039 -0.999457 
0.00541569 -0.0454596 -0.998952 
0.00450744 -0.0360527 -0.99934 
0.00158124 -0.00694104 -0.999975 
5.91237e-05 -0.0063641 0.99998 
-0.00249213 -0.03766 0.999288 
-0.00537831 -0.043735 0.999029 
-0.0057721 -0.0277623 0.999598 
-0.00859451 -0.0114579 0.999897 
-0.00416988 -0.00264239 0.999988 
-0.0027621 0.000238589 0.999996 
0.00169716 -0.00267117 0.999995 
0.00477027 -0.00938617 0.999944 
0.00745697 -0.0114757 0.999906 
0.00601131 -0.00913544 0.99994 
0.00634882 -0.00239431 0.999977 
0.0041138 0.00466995 0.999981 