# vtk DataFile Version 3.0 
Exported using Morpho https://github.com/Morpho-lang/morpho 
ASCII 
DATASET UNSTRUCTURED_GRID 

POINTS 1978 float 
-8.48528 -2.82843 -5.85663e-10 
-8.25952 -2.82843 -3.89496e-09 
-8.03158 -2.82843 7.83139e-09 
-7.77583 -2.82843 -1.0821e-08 
-7.49079 -2.82843 -2.19718e-08 
-7.22839 -2.82843 -1.23753e-08 
-7.00648 -2.82843 -8.66563e-09 
-6.77394 -2.82843 -5.46897e-10 
-6.55942 -2.82843 -3.90164e-09 
-6.34622 -2.82843 4.15287e-09 
-6.14112 -2.82843 -3.68884e-10 
-5.9151 -2.82843 -2.41837e-09 
-5.70888 -2.82843 1.14878e-09 
-5.51035 -2.82843 3.1926e-09 
-5.29405 -2.82843 -4.33106e-10 
-5.08497 -2.82843 5.88832e-09 
-4.8706 -2.82843 3.36385e-09 
-4.65842 -2.82843 2.86927e-09 
-4.43873 -2.82843 3.59206e-09 
-4.21356 -2.82843 2.161e-09 
-3.99904 -2.82843 7.97237e-09 
-3.79096 -2.82843 3.01057e-09 
-3.58363 -2.82843 7.71597e-09 
-3.37963 -2.82843 8.2198e-09 
-3.16784 -2.82843 1.05108e-08 
-2.96021 -2.82843 1.36946e-08 
-2.76331 -2.82843 1.10286e-08 
-2.57159 -2.82843 1.47672e-08 
-2.34863 -2.82843 1.27953e-08 
-2.15019 -2.82843 1.30411e-08 
-1.91854 -2.82843 1.38577e-08 
-1.73278 -2.82843 2.65849e-09 
-1.52387 -2.82843 -7.85349e-09 
-1.33096 -2.82843 2.37755e-08 
-1.14733 -2.82843 2.68524e-08 
-0.893632 -2.82843 1.82033e-08 
-0.691386 -2.82843 -4.29641e-07 
-0.482685 -2.82843 5.05082e-07 
-0.220046 -2.82843 -1.49752e-07 
-0.00830267 -2.82843 1.8515e-07 
0.273892 -2.82843 -4.5404e-08 
0.47729 -2.82843 -9.05509e-08 
0.682513 -2.82843 -7.44857e-08 
0.923001 -2.82843 -6.28153e-08 
1.11252 -2.82843 -7.94013e-09 
1.31663 -2.82843 1.48171e-08 
1.53183 -2.82843 -3.19021e-08 
1.73803 -2.82843 1.22788e-08 
1.92567 -2.82843 -1.32811e-08 
2.12274 -2.82843 -1.73268e-08 
2.35257 -2.82843 -1.48289e-08 
2.55177 -2.82843 -1.52026e-08 
2.76064 -2.82843 -1.41917e-08 
2.98591 -2.82843 -9.94267e-09 
3.18374 -2.82843 -1.0963e-08 
3.38245 -2.82843 -8.35442e-09 
3.60413 -2.82843 -7.88164e-09 
3.80302 -2.82843 -6.89156e-09 
4.01415 -2.82843 -3.85193e-09 
4.24101 -2.82843 -7.09073e-09 
4.44188 -2.82843 -3.17434e-09 
4.65958 -2.82843 -1.57832e-09 
4.86357 -2.82843 -4.30105e-10 
5.07785 -2.82843 -2.40363e-09 
5.28742 -2.82843 -4.02421e-09 
5.50333 -2.82843 1.35667e-09 
5.70932 -2.82843 -5.99201e-09 
5.92543 -2.82843 3.01052e-09 
6.14952 -2.82843 1.53011e-09 
6.35371 -2.82843 -7.62448e-10 
6.58452 -2.82843 4.60002e-09 
6.80507 -2.82843 -4.58856e-09 
7.00568 -2.82843 1.4285e-08 
7.27004 -2.82843 1.91926e-08 
7.50819 -2.82843 2.13279e-08 
7.74382 -2.82843 1.19826e-08 
8.01991 -2.82843 -3.34135e-09 
8.20578 -2.82843 3.86523e-09 
8.48528 -2.82843 7.27693e-10 
-8.48528 -2.58591 8.70469e-09 
-8.257 -2.59149 2.63288e-15 
-8.02486 -2.58805 1.0497e-15 
-7.7845 -2.61481 2.08949e-16 
-7.52999 -2.6393 -1.36664e-15 
-7.23651 -2.60929 8.61731e-17 
-6.98926 -2.60449 2.06287e-15 
-6.77283 -2.58753 4.5253e-16 
-6.54289 -2.59486 1.59977e-15 
-6.32832 -2.57992 1.18433e-15 
-6.0991 -2.60506 1.01305e-15 
-5.88708 -2.58282 9.61061e-16 
-5.68008 -2.57513 9.25496e-16 
-5.46142 -2.59697 8.48766e-16 
-5.24617 -2.58701 6.99926e-16 
-5.02891 -2.59222 6.15529e-16 
-4.81308 -2.58821 4.93479e-16 
-4.59348 -2.59533 3.45647e-16 
-4.36841 -2.60113 1.96325e-16 
-4.14863 -2.59254 2.87374e-17 
-3.9372 -2.58747 -2.19557e-16 
-3.72703 -2.58979 -5.3816e-16 
-3.51877 -2.59051 -9.25569e-16 
-3.30608 -2.60215 -1.38065e-15 
-3.09266 -2.60119 -1.85267e-15 
-2.88632 -2.59081 -2.34115e-15 
-2.68843 -2.58749 -2.76321e-15 
-2.47619 -2.61958 -3.18495e-15 
-2.26076 -2.59175 -2.45705e-15 
-2.04618 -2.62575 -2.42161e-15 
-1.83661 -2.56342 -9.87005e-16 
-1.6376 -2.5854 -1.13549e-15 
-1.44425 -2.57041 -2.04666e-15 
-1.26243 -2.5185 2.33923e-15 
-1.04271 -2.62103 -2.6225e-15 
-0.834419 -2.51797 3.15364e-14 
-0.621653 -2.52266 -5.0545e-14 
-0.394094 -2.54351 -6.44748e-15 
-0.18604 -2.44929 2.42207e-14 
0.0206017 -2.48044 -1.99206e-14 
0.236685 -2.53435 2.42522e-14 
0.444683 -2.47773 -1.17245e-14 
0.633642 -2.51793 2.57552e-14 
0.856438 -2.58341 -1.19043e-15 
1.08093 -2.53427 7.48346e-15 
1.27628 -2.58195 1.70163e-15 
1.50088 -2.61513 4.01437e-16 
1.72961 -2.59296 1.50719e-15 
1.92865 -2.60428 1.14744e-15 
2.142 -2.60839 3.33458e-15 
2.35805 -2.59903 2.72929e-15 
2.57472 -2.60373 2.89716e-15 
2.80877 -2.61468 2.32611e-15 
3.0126 -2.58662 1.9382e-15 
3.21548 -2.58471 1.50036e-15 
3.43535 -2.60855 1.0731e-15 
3.64076 -2.58086 6.50718e-16 
3.85208 -2.59329 3.20445e-16 
4.07621 -2.60737 7.50033e-17 
4.28371 -2.57728 -1.34377e-16 
4.50035 -2.5967 -3.40335e-16 
4.71033 -2.58049 -4.59919e-16 
4.92644 -2.5937 -5.98046e-16 
5.14075 -2.58847 -6.74176e-16 
5.36006 -2.5971 -7.69345e-16 
5.57438 -2.58573 -8.44198e-16 
5.79112 -2.59565 -9.35669e-16 
6.01702 -2.60175 -9.79526e-16 
6.23272 -2.57626 -1.0823e-15 
6.45368 -2.60253 -1.21548e-15 
6.68129 -2.58857 -1.279e-15 
6.8931 -2.56376 -1.34134e-15 
7.12305 -2.62621 -8.30743e-16 
7.37734 -2.60087 -7.58976e-16 
7.61297 -2.59941 -1.24871e-15 
7.87052 -2.63209 -1.03472e-15 
8.0778 -2.53621 -1.05905e-15 
8.30224 -2.6302 -3.55624e-15 
8.48528 -2.52842 -1.88369e-08 
-8.48528 -2.3427 -1.6748e-11 
-8.25361 -2.35411 2.23663e-15 
-8.01281 -2.34952 2.99558e-16 
-7.77163 -2.39263 7.38956e-16 
-7.56299 -2.24867 -2.09886e-16 
-7.47577 -2.45516 1.22771e-15 
-7.18683 -2.40306 6.54171e-16 
-6.96078 -2.35169 -5.65905e-17 
-6.71789 -2.36788 2.65954e-16 
-6.49317 -2.35232 2.4704e-16 
-6.24826 -2.36425 2.82203e-16 
-6.03633 -2.35615 2.62365e-16 
-5.81849 -2.33711 1.42864e-16 
-5.58825 -2.3534 1.65635e-16 
-5.37241 -2.35797 1.50135e-16 
-5.14649 -2.3564 1.22425e-16 
-4.92764 -2.35435 9.74549e-17 
-4.70432 -2.35855 5.97355e-17 
-4.48081 -2.37038 2.86337e-17 
-4.26076 -2.3651 -2.72667e-17 
-4.0451 -2.35049 -8.2743e-17 
-3.83319 -2.35102 -1.4438e-16 
-3.62414 -2.35321 -2.08106e-16 
-3.41182 -2.36724 -2.98182e-16 
-3.20158 -2.37542 -4.19338e-16 
-2.99276 -2.36559 -4.50737e-16 
-2.78794 -2.34817 -3.87899e-16 
-2.57773 -2.37884 -6.20558e-16 
-2.37346 -2.38745 -7.89223e-16 
-2.13748 -2.38369 -6.25765e-16 
-1.93897 -2.3725 -2.86167e-16 
-1.68734 -2.33338 2.50033e-16 
-1.48497 -2.30522 1.74749e-15 
-1.28497 -2.2405 -4.23721e-15 
-1.07702 -2.36703 3.86863e-15 
-0.883094 -2.24629 -2.38245e-14 
-0.653777 -2.22602 2.92547e-14 
-0.427401 -2.21639 2.19763e-14 
-0.203383 -2.10923 1.04322e-14 
0.0301521 -2.12885 -2.69511e-15 
0.247926 -2.19419 -4.12929e-14 
0.462403 -2.13193 8.16646e-15 
0.681875 -2.15921 -6.57341e-15 
0.840408 -2.31474 8.52653e-15 
1.05364 -2.26681 -1.03937e-14 
1.27646 -2.30278 -1.08248e-15 
1.47249 -2.38407 5.75004e-16 
1.68585 -2.3724 -1.07576e-15 
1.89924 -2.36103 3.32917e-16 
2.10563 -2.3954 7.87365e-16 
2.32449 -2.381 4.55199e-16 
2.54679 -2.37321 3.39517e-16 
2.75564 -2.40099 9.5468e-16 
2.96881 -2.34958 4.68332e-16 
3.17231 -2.34584 3.8693e-16 
3.38511 -2.37843 4.25519e-16 
3.59032 -2.34493 2.01121e-16 
3.80128 -2.35454 1.5669e-16 
4.01532 -2.37874 1.0349e-16 
4.22443 -2.34167 4.93323e-17 
4.44304 -2.35759 -1.12478e-17 
4.65179 -2.34185 -3.2602e-17 
4.86838 -2.3552 -8.70948e-17 
5.08105 -2.35166 -1.00151e-16 
5.29842 -2.36401 -1.54817e-16 
5.51356 -2.35257 -1.33709e-16 
5.73329 -2.35809 -1.68256e-16 
5.9524 -2.37342 -2.66338e-16 
6.17034 -2.34395 -1.71959e-16 
6.39926 -2.35875 -2.81989e-16 
6.61475 -2.36016 -3.48142e-16 
6.83632 -2.31903 -3.49026e-17 
7.06803 -2.37622 -2.54434e-16 
7.2885 -2.39853 -4.51036e-16 
7.54463 -2.36495 -3.83294e-16 
7.78553 -2.40896 -8.6969e-16 
7.99612 -2.31341 7.86607e-17 
8.25502 -2.36151 -2.38221e-15 
8.48528 -2.28976 -5.05114e-09 
-8.48528 -2.0998 8.23523e-09 
-8.25396 -2.10387 2.19269e-15 
-8.04492 -2.1096 -2.19687e-16 
-7.80033 -2.15085 -1.8425e-16 
-7.52239 -2.03392 -2.76602e-16 
-7.30767 -2.23281 -2.21597e-16 
-7.06782 -2.13442 -4.22028e-16 
-6.80926 -2.13886 -3.16452e-16 
-6.58999 -2.12398 -1.995e-16 
-6.34733 -2.14594 -1.09001e-16 
-6.12319 -2.11094 -1.51267e-16 
-5.9145 -2.10684 -1.69752e-16 
-5.68511 -2.12327 -1.32776e-16 
-5.46435 -2.11731 -1.33099e-16 
-5.24805 -2.12965 -1.21479e-16 
-5.02785 -2.12069 -1.1174e-16 
-4.80802 -2.12602 -1.01473e-16 
-4.58578 -2.13446 -9.33825e-17 
-4.37034 -2.13544 -8.88933e-17 
-4.15779 -2.12245 -8.20425e-17 
-3.94338 -2.11385 -6.14591e-17 
-3.73413 -2.11575 -3.54326e-17 
-3.52132 -2.12917 -4.33601e-18 
-3.31145 -2.14053 4.29807e-17 
-3.10357 -2.14073 1.07088e-16 
-2.89581 -2.1241 1.93808e-16 
-2.67444 -2.13407 2.26822e-16 
-2.4677 -2.14888 2.89782e-16 
-2.24903 -2.17824 3.16815e-17 
-2.02878 -2.12757 3.86395e-16 
-1.81258 -2.1598 -3.97457e-16 
-1.57801 -2.06274 -1.25663e-16 
-1.37878 -2.00651 4.22479e-15 
-1.15998 -1.87863 -3.24468e-15 
-1.08846 -2.09408 4.24385e-15 
-0.818217 -1.98842 7.88343e-15 
-0.576219 -1.93631 -4.01855e-14 
-0.346333 -1.8622 5.48491e-14 
-0.0461394 -1.81219 1.40237e-14 
0.0810191 -1.52255 6.82651e-15 
0.21117 -1.84929 1.00334e-14 
0.294672 -1.51173 -8.42396e-15 
0.455328 -1.82507 -9.04359e-15 
0.711008 -1.85662 -1.92262e-14 
0.936997 -2.00841 3.07668e-15 
1.20204 -2.05121 4.76818e-16 
1.4607 -2.12286 5.944e-17 
1.66466 -2.1265 2.64691e-16 
1.87748 -2.12336 -2.99983e-16 
2.10117 -2.17602 -3.61609e-16 
2.33647 -2.16952 -4.62626e-16 
2.56301 -2.14573 -3.01145e-16 
2.77286 -2.16829 -6.3758e-17 
2.98215 -2.10939 -1.90022e-16 
3.20412 -2.12378 -1.09272e-16 
3.40647 -2.13504 -5.91753e-17 
3.6228 -2.11274 1.45746e-17 
3.83925 -2.12782 4.74652e-17 
4.04271 -2.13424 6.49662e-17 
4.26858 -2.11528 8.08852e-17 
4.47564 -2.11376 9.22693e-17 
4.69645 -2.11122 1.02558e-16 
4.9081 -2.11695 1.08188e-16 
5.12805 -2.12137 1.1354e-16 
5.34126 -2.12746 1.1922e-16 
5.56362 -2.12324 1.30729e-16 
5.78496 -2.12889 1.43519e-16 
5.99689 -2.13173 1.38568e-16 
6.23317 -2.1215 1.25207e-16 
6.44765 -2.11438 1.85063e-16 
6.66208 -2.11353 2.40061e-16 
6.91371 -2.10702 3.73269e-16 
7.12934 -2.13699 4.33129e-16 
7.35875 -2.17771 3.01455e-16 
7.55244 -2.0831 2.45413e-16 
7.74605 -2.17187 2.12449e-16 
7.96489 -2.07624 1.87894e-16 
8.20125 -2.13905 -4.14281e-16 
8.48528 -2.09488 1.28137e-09 
-8.48528 -1.81408 2.12446e-08 
-8.29976 -1.8617 4.49174e-15 
-7.88642 -1.90947 -1.58054e-16 
[...]
POINT_DATA 1978 
VECTORS vectors float
0.0038254 -0.0122782 0.999918 
0.00371052 -0.0313622 0.999502 
0.00397687 -0.0292792 0.999564 
0.00450248 -0.0363098 0.999331 
0.00416167 -0.0452611 0.998967 
0.00398063 -0.0429664 0.999069 
0.0038267 -0.0378974 0.999275 
0.00356485 -0.0314934 0.999498 
0.0038347 -0.0269565 0.99963 
0.00396028 -0.0231271 0.999725 
0.00379906 -0.0202744 0.999788 
0.00373733 -0.0183272 0.999825 
0.00413837 -0.0167968 0.999851 
0.0039431 -0.015688 0.99987 
0.00384314 -0.0142944 0.999891 
0.00395783 -0.012735 0.999911 
0.0039043 -0.0113333 0.999928 
0.00396097 -0.00962777 0.999946 
0.00382353 -0.00749742 0.999965 
0.00380516 -0.00467652 0.999982 
0.0038378 -0.000704203 0.999993 
0.00369258 0.00454334 0.999983 
0.00368532 0.0114954 0.999927 
0.00354275 0.020311 0.999788 
0.00333917 0.0319619 0.999484 
0.00321965 0.0467929 0.9989 
0.00323154 0.0650394 0.997878 
0.00265869 0.0876425 0.996149 
0.00236412 0.121625 0.992573 
0.00194614 0.160786 0.986987 
0.001301 0.217959 0.975957 
0.000951285 0.274975 0.961451 
0.000268012 0.350566 0.936538 
-0.000602916 0.430823 0.902436 
-0.00119018 0.524236 0.851572 
-0.00176891 0.661176 0.750229 
-0.00225468 0.775878 0.630879 
-0.00157368 0.880313 0.47439 
-0.00109228 0.973403 0.229099 
0.00019612 0.999802 0.0198901 
0.00114335 0.955656 -0.294484 
0.00199975 0.882106 -0.471046 
0.00203444 0.775441 -0.631416 
0.00172285 0.640507 -0.767951 
0.00119704 0.539158 -0.842204 
0.000304246 0.439722 -0.898134 
-7.9033e-05 0.349475 -0.936946 
-0.00077609 0.271144 -0.962538 
-0.00164038 0.214533 -0.976716 
-0.00184086 0.167337 -0.985898 
-0.00225054 0.120168 -0.992751 
-0.00292574 0.0898666 -0.99595 
-0.00291768 0.0652385 -0.997866 
-0.00316451 0.0450804 -0.998979 
-0.00366925 0.0311454 -0.999508 
-0.00342009 0.0202863 -0.999789 
-0.00356537 0.0108001 -0.999936 
-0.00396739 0.00400665 -0.999984 
-0.00361831 -0.000944458 -0.999993 
-0.00386492 -0.0049428 -0.999981 
-0.00396683 -0.0076729 -0.999963 
-0.00383417 -0.00977033 -0.999945 
-0.00397688 -0.0114682 -0.999927 
-0.00391399 -0.0128763 -0.99991 
-0.00390038 -0.0141593 -0.999892 
-0.00393556 -0.0154912 -0.999873 
-0.0040331 -0.0169846 -0.999848 
-0.00372388 -0.018631 -0.99982 
-0.00398056 -0.0207436 -0.999777 
-0.00391957 -0.0234018 -0.999719 
-0.0034804 -0.0270842 -0.999627 
-0.00407487 -0.0322521 -0.999472 
-0.00374062 -0.0378415 -0.999277 
-0.00364839 -0.0443458 -0.99901 
-0.00435256 -0.046386 -0.998914 
-0.00413399 -0.0388584 -0.999237 
-0.00430034 -0.0302584 -0.999533 
-0.00397266 -0.0312522 -0.999504 
-0.00306776 -0.011123 -0.999934 
0.00349473 -0.0029927 0.999991 
0.021277 -0.0340992 0.999192 
0.0237561 -0.0331838 0.999167 
0.0261441 -0.0352318 0.999037 
0.0253253 -0.0403932 0.998863 
0.0248271 -0.0409885 0.998851 
0.0243068 -0.0364305 0.99904 
0.0257411 -0.0314 0.999175 
0.0255934 -0.0263518 0.999325 
0.0244203 -0.0228601 0.99944 
0.0260176 -0.0203218 0.999455 
0.026608 -0.0183124 0.999478 
0.026159 -0.0163985 0.999523 
0.0268046 -0.0150528 0.999527 
0.0266308 -0.0136774 0.999552 
0.0267729 -0.0120883 0.999568 
0.0267017 -0.010459 0.999589 
0.0266765 -0.00848867 0.999608 
0.026812 -0.00584774 0.999623 
0.0258933 -0.00228157 0.999662 
0.0251619 0.00229537 0.999681 
0.0244738 0.0082394 0.999666 
0.0232471 0.0159563 0.999602 
0.0225556 0.0261051 0.999405 
0.020941 0.0395313 0.998999 
0.0189813 0.0563296 0.998232 
0.0169074 0.0768447 0.9969 
0.0155436 0.104525 0.994401 
0.0123176 0.143101 0.989631 
0.00951071 0.190653 0.981611 
0.00553811 0.250537 0.968091 
0.00265693 0.31657 0.948565 
-0.000505276 0.396318 0.918113 
-0.00375073 0.478796 0.877918 
-0.00804063 0.589178 0.807963 
-0.00813058 0.697817 0.71623 
-0.00693126 0.803474 0.5953 
-0.00659848 0.90899 0.416766 
-0.00228364 0.975342 0.220689 
0.00155593 0.999981 -0.00596072 
0.00517293 0.972289 -0.233725 
0.00725203 0.886248 -0.463154 
0.00869078 0.797275 -0.603554 
0.00926484 0.678716 -0.734343 
0.00581981 0.561151 -0.827693 
0.00258048 0.465057 -0.885277 
-0.000327115 0.368241 -0.92973 
-0.00350741 0.286851 -0.957969 
-0.00753611 0.220132 -0.975441 
-0.0115082 0.162333 -0.986669 
-0.0132317 0.122747 -0.99235 
-0.016475 0.0902005 -0.995787 
-0.0191283 0.0632692 -0.997813 
-0.0200342 0.0455135 -0.998763 
-0.0213512 0.0315893 -0.999273 
-0.0233561 0.0197104 -0.999533 
-0.0237122 0.0113914 -0.999654 
-0.0248872 0.00447775 -0.99968 
-0.0262158 -0.000957768 -0.999656 
-0.0259616 -0.00461541 -0.999652 
-0.0265215 -0.00758463 -0.999619 
-0.0265273 -0.0096041 -0.999602 
-0.0267428 -0.0113862 -0.999577 
-0.0268257 -0.0129014 -0.999557 
-0.0268784 -0.0143798 -0.999535 
-0.0263868 -0.0158276 -0.999526 
-0.0265443 -0.0174383 -0.999495 
-0.0264962 -0.019439 -0.99946 
-0.0254366 -0.0218729 -0.999437 
-0.0260456 -0.0250539 -0.999347 
-0.0250474 -0.0295364 -0.99925 
-0.0238364 -0.034389 -0.999124 
-0.0254754 -0.0392563 -0.998904 
-0.0249589 -0.0411732 -0.99884 
-0.0261821 -0.039068 -0.998893 
-0.0267229 -0.0346798 -0.999041 
-0.0222791 -0.0346136 -0.999152 
-0.0209451 -0.0355573 -0.999148 
-0.00286413 -0.00256275 -0.999994 
0.00157577 -0.00550476 0.999985 
0.0169444 -0.0351999 0.999236 
0.0193557 -0.0337219 0.999244 
0.0212167 -0.0356099 0.99914 
0.0169615 -0.033945 0.99928 
0.0223836 -0.0373622 0.999051 
0.0214898 -0.0382137 0.999038 
0.0205374 -0.0357422 0.99915 
0.0221638 -0.0306842 0.999283 
0.0223102 -0.0258346 0.999417 
0.0235282 -0.0221209 0.999478 
0.024017 -0.0196703 0.999518 
0.0235701 -0.0175356 0.999568 
0.0243864 -0.0158464 0.999577 
0.0246722 -0.0143863 0.999592 
0.0246862 -0.0126621 0.999615 
0.0246997 -0.0109236 0.999635 
0.0245646 -0.00893483 0.999658 
0.024275 -0.00646064 0.999684 
0.0239295 -0.00319057 0.999708 
0.0231666 0.00112275 0.999731 
0.0223952 0.00662468 0.999727 
0.0214932 0.0137108 0.999675 
0.0202426 0.0229803 0.999531 
0.0189175 0.034876 0.999213 
0.0170205 0.0503309 0.998587 
0.0149664 0.0696982 0.997456 
0.0131264 0.0945243 0.995436 
0.0108682 0.125682 0.992011 
0.00796135 0.172957 0.984897 
0.00550733 0.222231 0.974978 
0.00240578 0.299618 0.954056 
0.000386256 0.374899 0.927065 
-0.00141861 0.465619 0.884984 
-0.00386619 0.563122 0.826365 
-0.00376732 0.669485 0.742816 
-0.0031215 0.789736 0.613439 
-0.00221546 0.898714 0.43853 
0.000259752 0.973771 0.22753 
0.00189613 0.99939 -0.0348918 
0.00358852 0.96424 -0.265005 
0.00394301 0.885693 -0.464254 
0.00386253 0.775252 -0.631641 
0.00553222 0.694264 -0.7197 
0.00367356 0.577742 -0.816211 
0.00194586 0.467344 -0.884073 
-0.000442275 0.379398 -0.925233 
-0.00253846 0.301097 -0.95359 
-0.00479801 0.235823 -0.971784 
-0.00809163 0.179049 -0.983807 
-0.00972534 0.136025 -0.990658 
-0.0122684 0.0992043 -0.994991 
-0.0152544 0.071908 -0.997294 
-0.0166479 0.0521035 -0.998503 
-0.0181719 0.0369529 -0.999152 
-0.020309 0.024184 -0.999501 
-0.0210914 0.0150716 -0.999664 
-0.0221953 0.00756997 -0.999725 
-0.0234602 0.00165897 -0.999723 
-0.0235531 -0.00251299 -0.999719 
-0.0244289 -0.0059863 -0.999684 
-0.0244747 -0.00840932 -0.999665 
-0.0248318 -0.0105055 -0.999636 
-0.0246985 -0.0122132 -0.99962 
-0.0248413 -0.0138301 -0.999596 
-0.0244647 -0.015404 -0.999582 
-0.0241122 -0.0170574 -0.999564 
-0.024125 -0.0189555 -0.999529 
-0.0232222 -0.0212885 -0.999504 
-0.0229547 -0.0244418 -0.999438 
-0.0226567 -0.028479 -0.999337 
-0.0213733 -0.033312 -0.999216 
-0.021394 -0.0374833 -0.999068 
-0.0211487 -0.0386556 -0.999029 
-0.0198254 -0.0359158 -0.999158 
-0.0213562 -0.0357549 -0.999132 
-0.018357 -0.0352177 -0.999211 
-0.0163424 -0.036043 -0.999216 
-0.00230184 -0.00625368 -0.999979 
0.00110344 -0.00549436 0.999985 
0.013798 -0.0385217 0.999162 
0.0160865 -0.0349783 0.999258 
0.0158453 -0.0333125 0.999319 
0.0151269 -0.0317045 0.999383 
0.0187521 -0.0365714 0.999155 
0.018586 -0.0367207 0.999153 
0.0189944 -0.0325954 0.999288 
0.0195452 -0.0282053 0.999411 
0.0205063 -0.0237021 0.999509 
0.0203631 -0.0207888 0.999576 
0.0205194 -0.0186781 0.999615 
0.0215568 -0.0167836 0.999627 
0.0216708 -0.015129 0.999651 
0.0218116 -0.0134048 0.999672 
0.0218766 -0.0116032 0.999693 
0.0218978 -0.00961696 0.999714 
0.0218685 -0.00720461 0.999735 
0.0214687 -0.00422579 0.99976 
0.0208811 -0.000362749 0.999782 
0.020038 0.00474754 0.999788 
0.0191334 0.0111793 0.999754 
0.01808 0.0195973 0.999644 
0.0166717 0.0302769 0.999402 
0.0148968 0.0438309 0.998928 
0.0128581 0.0614671 0.998026 
0.0107843 0.0852992 0.996297 
0.00885806 0.113737 0.993471 
0.00708864 0.151673 0.988405 
0.00444112 0.202469 0.979279 
0.00273553 0.262108 0.965035 
0.000813202 0.345488 0.938423 
-0.000331876 0.426355 0.904556 
-0.000863977 0.535375 0.844614 
-0.00172591 0.563842 0.825881 
-0.001337 0.702226 0.711953 
-0.000411231 0.833845 0.551999 
0.000206186 0.928693 0.370851 
0.000719399 0.998654 0.0518675 
0.000403397 0.997267 -0.0738847 
0.0012735 0.970888 -0.239529 
0.00101675 0.954272 -0.298937 
0.00149113 0.888042 -0.45976 
0.00177892 0.758043 -0.652202 
0.00175976 0.631242 -0.775584 
0.00104608 0.50373 -0.86386 
-8.42591e-05 0.388827 -0.921311 
-0.00171599 0.311847 -0.950131 
-0.0032159 0.244466 -0.969652 
-0.0053708 0.185421 -0.982644 
-0.00764562 0.136069 -0.99067 
-0.00964264 0.0998656 -0.994954 
-0.0120429 0.0732588 -0.99724 
-0.0136253 0.0540332 -0.998446 
-0.0155301 0.0370087 -0.999194 
-0.0169574 0.0251553 -0.99954 
-0.0185389 0.0153849 -0.99971 
-0.0196831 0.00766921 -0.999777 
-0.0205029 0.00217435 -0.999787 
-0.0212791 -0.00244356 -0.99977 
-0.021545 -0.00572511 -0.999751 
-0.021803 -0.0084661 -0.999726 
-0.0219702 -0.0105816 -0.999703 
-0.0219417 -0.0124243 -0.999682 
-0.0218282 -0.0141066 -0.999662 
-0.0216367 -0.0158669 -0.99964 
-0.0212355 -0.0176296 -0.999619 
-0.0209337 -0.0195517 -0.99959 
-0.0206244 -0.0222506 -0.99954 
-0.0197999 -0.0255422 -0.999478 
-0.0193948 -0.0297327 -0.99937 
-0.0187482 -0.0350507 -0.99921 
-0.0181134 -0.0375285 -0.999131 
-0.0174752 -0.0360143 -0.999198 
-0.0151526 -0.0321031 -0.99937 
-0.0157419 -0.0334472 -0.999316 
-0.0151877 -0.0345875 -0.999286 
-0.0151852 -0.0365485 -0.999216 
-0.00206453 -0.00566962 -0.999983 
0.00185545 -0.00546045 0.999984 
0.0131074 -0.0367459 0.999238 
0.013215 -0.0307042 0.999441 
0.0134584 -0.030519 0.999443 
0.0174466 -0.0327443 0.999311 
0.0168266 -0.0357435 0.999219 
0.0185128 -0.0373487 0.999131 
0.0181886 -0.0356282 0.999199 
0.0201889 -0.0312047 0.999309 
0.0201623 -0.0264512 0.999447 
0.0210773 -0.0228426 0.999517 
0.0225666 -0.0202757 0.99954 
0.0227278 -0.0181221 0.999577 
0.0232725 -0.0163538 0.999595 
0.0234763 -0.0145398 0.999619 
0.0234581 -0.0127307 0.999644 
0.0234479 -0.0107753 0.999667 
0.0232128 -0.00851718 0.999694 
0.0229964 -0.00579639 0.999719 
0.022719 -0.0024399 0.999739 
0.0223901 0.00196709 0.999747 
0.0218879 0.00761523 0.999731 
0.0208086 0.014803 0.999674 
0.0194922 0.0239319 0.999523 
0.0178597 0.0355053 0.99921 
0.0159675 0.0502927 0.998607 
0.013466 0.070512 0.99742 
0.0109817 0.0955584 0.995363 
0.00819363 0.126727 0.991904 
0.00584696 0.166748 0.985982 
0.00348354 0.226627 0.973975 
0.00157987 0.29033 0.956925 
0.000351495 0.365535 0.930797 
-0.000697451 0.455485 0.890243 
-0.000869021 0.65371 0.756744 
-0.00109549 0.782767 0.622314 
-0.00111069 0.894546 0.446974 
-0.000545515 0.942533 0.334113 
-0.000342832 0.971469 0.237168 
-0.00021007 0.995879 0.0906982 
0.000189585 0.9852 -0.171407 
0.00094717 0.906105 -0.423052 
0.00151486 0.840587 -0.541674 
0.0017324 0.706943 -0.707268 
0.00113008 0.593746 -0.804652 
0.00108792 0.501235 -0.86531 
0.000173109 0.424014 -0.905655 
-0.000579372 0.342432 -0.939542 
-0.00195153 0.272482 -0.962159 
-0.00377221 0.205819 -0.978583 
-0.00565517 0.158021 -0.987419 
-0.00851549 0.115768 -0.99324 
-0.0114371 0.0844615 -0.996361 
-0.0138834 0.0645354 -0.997819 
-0.0163711 0.0443005 -0.998884 
-0.0184792 0.030476 -0.999365 
-0.019807 0.0200851 -0.999602 
-0.020965 0.0111434 -0.999718 
-0.022096 0.0047682 -0.999744 
-0.022569 -0.000170757 -0.999745 
-0.0235365 -0.00415988 -0.999714 
-0.0236358 -0.00721004 -0.999695 
-0.0239555 -0.00973175 -0.999666 
-0.0237649 -0.0117618 -0.999648 
-0.0236301 -0.0136247 -0.999628 
-0.0232403 -0.0153758 -0.999612 
-0.0228824 -0.0172135 -0.99959 
-0.0225365 -0.0191253 -0.999563 
-0.0217386 -0.0214121 -0.999534 
-0.02158 -0.0246677 -0.999463 
-0.0210887 -0.0287535 -0.999364 
-0.0196627 -0.0334888 -0.999246 
-0.018828 -0.0371396 -0.999133 
-0.01712 -0.0361104 -0.999201 
-0.0154 -0.0310796 -0.999398 
-0.0133439 -0.0309121 -0.999433 
-0.0136539 -0.0339509 -0.99933 
-0.0136599 -0.0364055 -0.999244 
-0.00227217 -0.00464018 -0.999988 
0.00204126 -0.00545407 0.999984 
0.0134684 -0.035724 0.999271 
0.0133441 -0.0347781 0.999306 
0.0153211 -0.0302877 0.999424 
0.0169872 -0.0295089 0.99942 
0.0215218 -0.0360042 0.99912 
0.023294 -0.0372875 0.999033 
0.0239249 -0.0340473 0.999134 
0.0247057 -0.0282143 0.999296 
0.025383 -0.024402 0.99938 
0.026636 -0.0214657 0.999415 
0.0271789 -0.0189665 0.999451 
0.0275194 -0.0170984 0.999475 
0.0276511 -0.015254 0.999501 
0.0279303 -0.0133097 0.999521 
0.0277586 -0.0114058 0.999549 
0.0275269 -0.0091314 0.999579 
0.0272856 -0.00641921 0.999607 
0.0270542 -0.00308383 0.999629 
0.0266496 0.00107795 0.999644 
0.0261046 0.00645634 0.999638 
0.0252654 0.0134356 0.99959 
0.0241001 0.0221899 0.999463 
0.0225649 0.0334049 0.999187 
0.0206529 0.0476303 0.998651 
0.0180403 0.0663586 0.997633 
0.0151739 0.0913011 0.995708 
0.0117168 0.123698 0.992251 
0.00826776 0.163535 0.986503 
0.00516417 0.217113 0.976133 
0.00221224 0.293683 0.9559 
-0.000232266 0.391837 0.920034 
-0.00156337 0.482777 0.875742 
-0.00210814 0.588011 0.80885 
-0.00159004 0.561672 0.827358 
-0.00190938 0.683129 0.730295 
-0.00174603 0.81941 0.573206 
-0.000703138 0.883292 0.468822 
-0.000251219 0.994761 0.102229 
-0.00127948 0.998875 -0.0474013 
-0.00145945 0.967806 -0.251694 
-0.00340688 0.982184 -0.187891 
-0.000135159 0.87326 -0.487254 
0.00190209 0.772543 -0.63496 
0.00232629 0.620174 -0.784461 
0.00221168 0.52048 -0.853871 
0.000809995 0.412269 -0.911062 
-0.000674536 0.331422 -0.943482 
-0.00320846 0.251936 -0.967738 
-0.00589923 0.19429 -0.980926 
-0.00862303 0.14628 -0.989206 
-0.0126354 0.107172 -0.99416 
-0.0159037 0.0836308 -0.99637 
-0.0182755 0.0595324 -0.998059 
-0.0210454 0.0422356 -0.998886 
-0.0230971 0.029359 -0.999302 
-0.0242033 0.018394 -0.999538 
-0.0254844 0.0103908 -0.999621 
-0.0264281 0.00416228 -0.999642 
-0.0267738 -0.000708758 -0.999641 
-0.0276211 -0.0046266 -0.999608 
-0.02778 -0.0076909 -0.999584 
-0.028151 -0.0101765 -0.999552 
-0.0280393 -0.0122426 -0.999532 
-0.0280425 -0.0141172 -0.999507 
-0.0275834 -0.015958 -0.999492 
-0.0274401 -0.0178152 -0.999465 
-0.0269381 -0.0198362 -0.99944 
-0.0260895 -0.0223052 -0.999411 
-0.0259911 -0.0257672 -0.99933 
-0.0252181 -0.0303473 -0.999221 
-0.02371 -0.0352515 -0.999097 
-0.0233429 -0.0379969 -0.999005 
-0.0207558 -0.0359208 -0.999139 
-0.0188802 -0.0304741 -0.999357 
-0.0155105 -0.0295646 -0.999442 
-0.0149412 -0.0318442 -0.999381 
-0.0138467 -0.0356597 -0.999268 
-0.00252334 -0.00531581 -0.999984 
0.00211496 -0.00526646 0.999985 
0.0122648 -0.0339997 0.999346 
0.0146209 -0.03189 0.999384 
0.0168591 -0.0301944 0.999402 
0.020254 -0.030721 0.999323 
0.0219213 -0.0368261 0.999081 
0.0241524 -0.0385377 0.998965 
0.0245839 -0.0352827 0.999075 
0.0259343 -0.0310236 0.999182 
0.0261301 -0.0263802 0.99931 
0.0266206 -0.0231691 0.999377 
0.027268 -0.0203031 0.999422 
0.0274728 -0.018151 0.999458 
0.0278159 -0.0162913 0.99948 
0.0279569 -0.0144073 0.999505 
0.0278394 -0.0124592 0.999535 
0.0278972 -0.0104011 0.999557 
0.0275733 -0.0079154 0.999588 
0.0271103 -0.00490797 0.99962 
0.0265214 -0.00109394 0.999648 
0.0260021 0.00364859 0.999655 
0.0253545 0.00992894 0.999629 
0.0244848 0.0178729 0.99954 
0.0234067 0.0280197 0.999333 
0.021805 0.0409196 0.998924 
0.0197979 0.0578649 0.998128 
0.0172723 0.0793506 0.996697 
0.0141792 0.108926 0.993949 
0.010804 0.146516 0.989149 
0.00749073 0.192464 0.981275 
0.00398259 0.257355 0.966309 
0.00111382 0.335527 0.94203 
-0.000569015 0.44102 0.897497 
-0.00124631 0.543908 0.839144 
-0.00219974 0.720661 0.693285 
-0.000782621 0.793251 0.608895 
0.00236474 0.886247 0.463205 
0.00417973 0.942411 0.334433 
0.000860461 0.962522 0.271203 
0.00173017 0.991839 0.127487 
-0.00121733 0.999888 -0.0149312 
-0.00646482 0.902679 -0.430267 
-0.00342568 0.921411 -0.388576 
-0.000803596 0.795164 -0.606394 
0.00142255 0.702878 -0.711309 
0.00172514 0.58283 -0.812592 
0.00141501 0.426547 -0.904464 
-0.000234004 0.345255 -0.938509 
-0.00284258 0.271776 -0.962356 
-0.00616178 0.208148 -0.978078 
-0.0094175 0.161284 -0.986863 
-0.0124912 0.124289 -0.992167 
-0.0147047 0.0978309 -0.995094 
-0.0180435 0.0703174 -0.997361 
-0.0204545 0.051259 -0.998476 
-0.0220993 0.0360885 -0.999104 
-0.0238899 0.0233902 -0.999441 
-0.0249091 0.0143804 -0.999586 
-0.0257231 0.00716768 -0.999643 
-0.0264823 0.00144112 -0.999648 
-0.027024 -0.00280017 -0.999631 
-0.0273194 -0.00654241 -0.999605 
-0.0276194 -0.00921887 -0.999576 
-0.0278598 -0.0115962 -0.999544 
-0.0279243 -0.0135396 -0.999518 
-0.0280029 -0.0154734 -0.999488 
-0.0278306 -0.0173473 -0.999462 
-0.0274545 -0.0193556 -0.999436 
-0.026982 -0.0218107 -0.999398 
-0.0264034 -0.0248544 -0.999342 
-0.0256044 -0.0294494 -0.999238 
-0.0250686 -0.0348142 -0.999079 
-0.0239535 -0.0385447 -0.99897 
-0.0221141 -0.0355741 -0.999122 
-0.019463 -0.0304498 -0.999347 
-0.0172391 -0.0298138 -0.999407 
-0.0152499 -0.0316082 -0.999384 
-0.0136112 -0.0336591 -0.999341 
-0.00215136 -0.00511686 -0.999986 
0.00159026 -0.00494793 0.999987 
0.00960185 -0.0346477 0.999353 
0.0146554 -0.0309019 0.999415 
0.0144261 -0.0297775 0.999452 
0.018111 -0.0303259 0.999376 
0.0185293 -0.0372962 0.999132 
0.0210078 -0.039032 0.999017 
0.0204598 -0.0350432 0.999176 
0.0226461 -0.0300355 0.999292 
0.021443 -0.0259949 0.999432 
0.0231111 -0.0224647 0.99948 
0.0235791 -0.0198852 0.999524 
0.0231671 -0.0177901 0.999573 
0.0237531 -0.0158853 0.999592 
0.0238572 -0.0139393 0.999618 
0.0233869 -0.011892 0.999656 
0.0236684 -0.00973204 0.999672 
0.0230486 -0.00708411 0.999709 
0.0225041 -0.00378364 0.999739 
0.0218547 0.000421084 0.999761 
0.0216041 0.0058405 0.999749 
0.0209117 0.0128108 0.999699 
0.0201734 0.0218603 0.999557 
0.0191037 0.0332814 0.999263 
0.0177271 0.0482212 0.998679 
0.0158142 0.0671158 0.99762 
0.0137051 0.0921268 0.995653 
0.0109642 0.124455 0.992164 
0.0080152 0.166117 0.986073 
0.00530903 0.221043 0.97525 
0.00256058 0.287718 0.957712 
0.00057389 0.366672 0.93035 
-0.000356355 0.46579 0.884895 
-0.000349705 0.589921 0.807461 
-0.0011807 0.669482 0.742828 
0.00314675 0.82883 0.559492 
0.00669477 0.945055 0.326841 
0.00691504 0.994459 0.104903 
0.00417286 0.998473 0.0550907 
-0.000264471 0.999991 -0.00433457 
-0.00331169 0.999369 -0.0353575 
-0.00623694 0.997015 -0.0769438 
-0.00854147 0.907175 -0.420666 
-0.00302617 0.812474 -0.58299 
0.000397775 0.665412 -0.746476 
0.0010685 0.554646 -0.832086 
0.00164315 0.484904 -0.874566 
0.000686883 0.392043 -0.919947 
-0.00163545 0.291637 -0.956528 
-0.00430027 0.229295 -0.973348 
-0.00750526 0.172646 -0.984955 
-0.0103429 0.131908 -0.991208 
-0.0130392 0.0910501 -0.995761 
-0.0155613 0.0674873 -0.997599 
-0.017625 0.0487576 -0.998655 
-0.0192023 0.0324784 -0.999288 
-0.0202045 0.0213493 -0.999568 
-0.0210972 0.0124493 -0.9997 
-0.0218914 0.00534962 -0.999746 
-0.0221643 0.000161773 -0.999754 
-0.0231768 -0.00416266 -0.999723 
-0.0227634 -0.00745956 -0.999713 
-0.0235225 -0.0101371 -0.999672 
-0.0232902 -0.0122905 -0.999653 
-0.0237841 -0.0142897 -0.999615 
-0.0236588 -0.0162051 -0.999589 
-0.0236627 -0.0182002 -0.999554 
-0.0234182 -0.0203504 -0.999518 
-0.0226705 -0.0228811 -0.999481 
-0.0224963 -0.0265311 -0.999395 
-0.0214706 -0.0312744 -0.99928 
-0.0219556 -0.0360138 -0.99911 
-0.020116 -0.0394063 -0.999021 
-0.020231 -0.037988 -0.999073 
-0.0171797 -0.0323188 -0.99933 
-0.0150878 -0.0297094 -0.999445 
-0.0123776 -0.0328504 -0.999384 
-0.0108555 -0.0347282 -0.999338 
-0.00139997 -0.00479939 -0.999988 
0.00109327 -0.00505061 0.999987 