# vtk DataFile Version 3.0 
Exported using Morpho https://github.com/Morpho-lang/morpho 
ASCII 
DATASET UNSTRUCTURED_GRID 

POINTS 1978 float 
-12 -4 -7.82304e-11 
-11.6608 -4 1.11731e-11 
-11.3395 -4 -2.04647e-11 
-11.0114 -4 -9.42056e-11 
-10.7413 -4 -1.81267e-10 
-10.3422 -4 -6.14666e-11 
-10.0449 -4 3.09558e-11 
-9.74668 -4 2.0984e-11 
-9.41759 -4 1.0642e-11 
-9.08707 -4 -1.7303e-11 
-8.65228 -4 4.3087e-11 
-8.35125 -4 -6.63823e-11 
-8.03031 -4 -4.63998e-12 
-7.75178 -4 3.34947e-11 
-7.42266 -4 -1.98187e-11 
-7.12766 -4 5.26021e-12 
-6.78813 -4 2.41138e-11 
-6.47285 -4 7.39999e-11 
-6.18661 -4 4.75829e-11 
-5.90559 -4 8.13407e-11 
-5.63883 -4 6.73986e-11 
-5.37131 -4 1.05402e-10 
-5.05606 -4 1.13856e-10 
-4.77332 -4 1.88297e-10 
-4.48214 -4 2.21042e-10 
-4.16527 -4 2.15205e-10 
-3.78948 -4 3.32933e-10 
-3.41349 -4 4.51226e-10 
-3.06609 -4 4.24147e-10 
-2.72889 -4 4.05077e-10 
-2.45349 -4 3.54674e-10 
-2.22079 -4 5.14679e-10 
-1.97421 -4 5.6289e-10 
-1.50517 -4 6.46172e-10 
-1.23169 -4 3.66483e-10 
-1.0008 -4 1.51902e-10 
-0.700658 -4 2.46328e-10 
-0.453121 -4 -6.29488e-12 
-0.157257 -4 3.44554e-10 
0.0193879 -4 -8.02145e-10 
0.225452 -4 -2.4779e-10 
0.377707 -4 5.05587e-10 
0.708848 -4 -4.46435e-10 
1.08415 -4 -2.37716e-10 
1.32242 -4 -4.43722e-10 
1.54132 -4 -4.34151e-10 
1.86329 -4 -4.90636e-10 
2.12558 -4 -3.91851e-10 
2.39752 -4 -4.07845e-10 
2.67664 -4 -4.90717e-10 
3.14913 -4 -5.40263e-10 
3.55431 -4 -3.56412e-10 
3.87878 -4 -2.73898e-10 
4.20677 -4 -2.21527e-10 
4.50465 -4 -1.76977e-10 
4.80105 -4 -1.64345e-10 
5.08033 -4 -1.20515e-10 
5.35317 -4 -1.18082e-10 
5.63287 -4 -9.50869e-11 
5.9264 -4 -5.59834e-11 
6.27065 -4 -4.44979e-11 
6.55037 -4 -3.03126e-11 
6.87365 -4 -2.04836e-11 
7.12569 -4 -1.57418e-11 
7.41755 -4 -9.91695e-12 
7.72666 -4 -6.58825e-12 
7.99347 -4 2.41781e-11 
8.29917 -4 -4.08187e-11 
8.59873 -4 -5.94512e-12 
8.92879 -4 2.76909e-11 
9.23525 -4 2.20058e-11 
9.56096 -4 -2.53476e-11 
9.85378 -4 3.22932e-12 
10.1764 -4 3.95971e-11 
10.5146 -4 7.38746e-11 
11.0469 -4 1.56229e-10 
11.3691 -4 8.23441e-11 
11.7046 -4 4.62312e-11 
12 -4 4.09291e-11 
-12 -3.72997 8.73827e-11 
-11.5804 -3.6609 1.52759e-12 
-11.3252 -3.52048 -2.66297e-11 
-11.0876 -3.67621 -3.20621e-11 
-10.7559 -3.63256 -1.53337e-11 
-10.4574 -3.74845 -2.58131e-11 
-10.0462 -3.64539 -1.25498e-11 
-9.71853 -3.66841 -8.62571e-12 
-9.3799 -3.67679 -1.32557e-11 
-9.08507 -3.63858 -6.96479e-12 
-8.80802 -3.76087 -9.40931e-12 
-8.3282 -3.69962 -9.84519e-13 
-8.02101 -3.65122 2.13845e-12 
-7.73723 -3.65824 7.72972e-12 
-7.52284 -3.53821 7.01323e-12 
-7.26826 -3.62645 1.55244e-11 
-6.94831 -3.69662 1.41207e-11 
-6.61091 -3.68968 1.30979e-11 
-6.29249 -3.67315 2.64717e-11 
-6.00007 -3.67436 2.86705e-11 
-5.70786 -3.65433 3.23536e-11 
-5.43073 -3.653 2.84217e-11 
-5.12552 -3.69215 2.16518e-11 
-4.7886 -3.63846 1.98813e-11 
-4.45824 -3.64463 3.16644e-11 
-4.10445 -3.6663 -1.27092e-11 
-3.71683 -3.65553 -1.04648e-10 
-3.35155 -3.66349 -7.98171e-11 
-3.03751 -3.66706 -7.98501e-11 
-2.70471 -3.70422 -5.64039e-11 
-2.428 -3.71754 6.6581e-11 
-2.14323 -3.7675 1.11434e-10 
-1.77228 -3.88346 1.21187e-10 
-1.51644 -3.81498 -4.33077e-11 
-1.25597 -3.81902 5.21873e-11 
-1.01962 -3.8006 2.41187e-11 
-0.790596 -3.86508 2.76916e-11 
-0.521649 -3.84883 2.5528e-10 
-0.2746 -3.87834 1.25311e-10 
0.0936992 -3.82827 3.31949e-10 
0.24424 -3.7751 -6.63669e-10 
0.482265 -3.88403 -9.01169e-10 
0.909337 -3.88398 -2.55691e-11 
1.1441 -3.81205 -2.53298e-10 
1.36517 -3.79225 -1.5751e-10 
1.6569 -3.84274 -2.50627e-10 
1.88869 -3.78324 -1.28544e-10 
2.19809 -3.75555 3.71731e-10 
2.44083 -3.67869 8.45013e-12 
2.80267 -3.76387 -2.79451e-11 
3.13753 -3.65733 2.74957e-10 
3.49389 -3.67376 2.65168e-10 
3.8812 -3.60855 1.40796e-10 
4.21684 -3.62479 -4.89288e-11 
4.55628 -3.6593 -3.69656e-11 
4.8751 -3.67036 -2.19098e-11 
5.17824 -3.67427 -2.60665e-11 
5.47937 -3.67591 -2.88136e-11 
5.76896 -3.66415 -2.90767e-11 
6.07942 -3.68698 -2.81811e-11 
6.37284 -3.61796 -2.11273e-11 
6.67808 -3.67954 -1.98462e-11 
6.95568 -3.61237 -1.58659e-11 
7.24269 -3.67982 -9.85238e-12 
7.55669 -3.69943 -4.56519e-12 
7.85684 -3.6431 -2.6724e-12 
8.15105 -3.66764 5.63751e-13 
8.45611 -3.64473 1.55252e-12 
8.77899 -3.68213 1.82741e-12 
9.10956 -3.67279 4.30454e-12 
9.4309 -3.6904 6.15586e-12 
9.74765 -3.65484 6.69094e-12 
10.0631 -3.68586 8.99293e-12 
10.374 -3.68681 1.37112e-11 
10.7533 -3.80075 2.41304e-11 
11.0554 -3.6516 1.18624e-11 
11.3658 -3.6677 1.69014e-11 
11.6774 -3.62809 -3.47231e-13 
12 -3.66375 -1.35909e-10 
-12 -3.46731 5.73356e-11 
-11.6823 -3.32523 -3.49324e-12 
-11.2905 -3.21917 -1.73284e-11 
-10.9461 -3.32319 -2.84675e-11 
-10.6161 -3.30818 -3.64411e-11 
-10.3252 -3.44852 -2.22891e-11 
-9.9999 -3.29955 -1.78506e-11 
-9.67458 -3.33509 -9.40389e-12 
-9.37828 -3.30995 -9.56774e-12 
-9.06939 -3.29477 -1.07769e-11 
-8.77927 -3.3858 -7.55052e-12 
-8.52197 -3.54457 -1.57028e-12 
-8.1754 -3.35823 -1.05722e-12 
-7.88558 -3.25802 3.48663e-12 
-7.57994 -3.21107 8.6794e-12 
-7.24209 -3.21411 1.61125e-11 
-6.98642 -3.36199 2.41475e-11 
-6.67131 -3.38128 2.86703e-11 
-6.34908 -3.36532 3.84186e-11 
-6.03906 -3.33992 3.63557e-11 
-5.75814 -3.33229 3.42761e-11 
-5.46187 -3.29329 2.47615e-11 
-5.18029 -3.35545 3.06719e-11 
-4.87432 -3.33053 4.95534e-11 
-4.53593 -3.30345 3.29162e-11 
-4.20189 -3.31836 -5.60291e-11 
-3.86377 -3.36343 3.19332e-12 
-3.47824 -3.35375 -2.15481e-10 
-3.16857 -3.32493 -2.24e-10 
-2.85444 -3.43989 -1.64621e-10 
-2.55233 -3.44572 3.01872e-11 
-2.2629 -3.52261 -7.78944e-11 
-1.90533 -3.70602 8.14125e-11 
-1.61915 -3.65312 2.12933e-10 
-1.32165 -3.64464 7.55561e-11 
-1.06027 -3.60254 9.10076e-10 
-0.817014 -3.68246 4.49812e-10 
-0.592759 -3.7062 4.15934e-10 
-0.330439 -3.72928 -1.45971e-11 
-0.0888976 -3.75797 1.21847e-10 
0.247029 -3.59152 9.30339e-11 
0.424135 -3.69839 2.75721e-11 
0.682069 -3.80857 5.87879e-10 
0.997601 -3.67223 2.35543e-10 
1.22797 -3.60517 -4.49485e-10 
1.52266 -3.66034 -3.9135e-11 
2.02198 -3.60722 -3.8241e-10 
2.2465 -3.42436 -2.26714e-10 
2.56152 -3.46243 1.32935e-10 
2.8529 -3.46426 1.7669e-10 
3.18728 -3.35947 2.50847e-10 
3.50646 -3.365 2.77556e-10 
3.85499 -3.30436 5.93329e-13 
4.21538 -3.27998 9.47805e-11 
4.525 -3.31543 -3.7856e-11 
4.83376 -3.33394 -2.91507e-11 
5.12801 -3.3478 -3.71534e-11 
5.42517 -3.36156 -4.18941e-11 
5.72176 -3.32093 -3.31249e-11 
6.00735 -3.3453 -3.13862e-11 
6.29003 -3.27228 -3.1119e-11 
6.60659 -3.32368 -2.5837e-11 
6.92276 -3.2921 -2.12745e-11 
7.24084 -3.33349 -1.40321e-11 
7.52405 -3.38316 -7.74235e-12 
7.82047 -3.32303 -4.35384e-12 
8.13937 -3.32212 -7.29992e-13 
8.43211 -3.284 1.26567e-12 
8.74222 -3.34962 4.51784e-12 
9.07252 -3.3564 7.2057e-12 
9.40197 -3.36457 5.74046e-12 
9.71409 -3.31885 5.73818e-12 
10.0354 -3.36412 1.22145e-11 
10.3568 -3.33821 2.04389e-11 
10.6609 -3.49477 1.92417e-11 
10.9442 -3.33978 2.53622e-11 
11.2921 -3.32161 2.06477e-11 
11.6173 -3.3084 4.47546e-12 
12 -3.33162 8.75886e-12 
-12 -3.14627 6.09944e-11 
-11.5947 -3.03138 9.93482e-14 
-11.3172 -2.85424 9.51039e-12 
-10.9974 -2.99685 -1.05721e-11 
-10.6595 -2.98266 -1.32532e-11 
-10.287 -3.08667 -1.7704e-11 
-9.91383 -2.96067 -5.98982e-12 
-9.59902 -2.95767 -2.16728e-12 
-9.27545 -2.96854 -2.12377e-12 
-8.95286 -2.97179 -4.60912e-13 
-8.67206 -3.02449 -4.10092e-13 
-8.43908 -3.1951 -1.07123e-12 
-8.16275 -3.01149 2.16044e-13 
-7.86529 -2.89806 3.59737e-13 
-7.51306 -2.90598 2.90035e-12 
-7.16372 -2.90736 3.77111e-12 
-6.85529 -3.03598 1.57644e-11 
-6.54956 -3.05695 1.57826e-11 
-6.24647 -3.03657 1.46619e-11 
-5.96707 -2.99042 -1.00889e-11 
-5.68252 -2.98779 -4.28966e-12 
-5.39188 -2.93842 -4.12516e-11 
-5.11033 -3.00586 -2.33195e-11 
-4.79414 -2.98879 -7.11622e-11 
-4.45982 -2.97666 -1.20751e-10 
-4.16008 -2.99139 -1.3536e-10 
-3.87598 -3.06618 -1.76705e-10 
-3.5728 -3.1084 -1.39689e-10 
-3.27689 -3.04321 1.03848e-10 
-2.97049 -3.14886 -1.72836e-10 
-2.73783 -3.20812 1.76423e-10 
-2.47737 -3.23175 -9.20663e-11 
-1.99676 -3.51073 -2.0762e-10 
-1.69034 -3.49402 5.17674e-11 
-1.36389 -3.4774 9.93691e-10 
-0.975497 -3.4512 3.67901e-10 
-0.762052 -3.51411 5.17455e-10 
-0.498198 -3.57741 -2.76209e-10 
-0.239213 -3.59962 -2.10247e-10 
0.0351779 -3.611 -7.44213e-10 
0.241839 -3.40969 -8.56847e-10 
0.572411 -3.60066 -1.9295e-09 
0.794711 -3.66938 3.08038e-10 
0.976311 -3.48304 4.55402e-10 
1.42288 -3.489 -9.74181e-11 
1.72161 -3.56878 -1.9969e-10 
1.95466 -3.43037 -4.86184e-11 
2.36221 -3.2345 6.91775e-10 
2.64161 -3.22982 5.82979e-11 
2.91114 -3.22055 7.01216e-11 
3.31334 -3.08897 4.8688e-10 
3.57917 -3.08163 6.71176e-11 
3.91209 -3.03886 1.1278e-10 
4.20265 -2.97635 4.42432e-11 
4.5095 -2.9694 1.78872e-10 
4.81039 -2.98421 7.36037e-11 
5.10935 -2.99532 4.7161e-11 
5.39742 -3.03588 9.22203e-12 
5.69069 -2.99233 5.68356e-12 
5.99897 -2.98231 8.77526e-13 
6.30283 -2.93078 -5.15053e-12 
6.60551 -2.99419 -1.1369e-11 
6.92297 -2.96385 -8.22945e-12 
7.23441 -3.01074 -7.41028e-12 
7.54952 -3.03438 -3.53183e-12 
7.8703 -3.005 -8.65097e-13 
8.16368 -2.95783 2.14093e-14 
8.44233 -2.89061 -5.20446e-13 
8.71654 -3.00019 2.14865e-13 
9.03534 -3.0309 4.64016e-13 
9.35962 -3.02937 1.55946e-12 
9.67471 -2.97413 2.19303e-12 
10.0049 -3.03403 4.71492e-12 
10.3143 -2.97835 1.04758e-11 
10.6347 -3.12096 1.84508e-11 
10.9925 -3.01774 2.31907e-12 
11.3214 -2.97725 -1.05816e-13 
11.6484 -2.98612 -3.50186e-12 
12 -3.05323 -1.24773e-10 
-12 -2.89765 7.7607e-11 
-11.721 -2.73401 1.31207e-12 
-11.4356 -2.5578 6.78643e-12 
-11.0209 -2.65795 5.17602e-13 
-10.68 -2.64757 9.681e-13 
-10.3212 -2.77265 -2.84533e-12 
-9.98885 -2.6413 -1.11007e-12 
-9.62124 -2.59367 4.97517e-13 
-9.30157 -2.62224 1.47831e-12 
-8.99534 -2.63429 3.2665e-12 
-8.6886 -2.65374 2.0847e-12 
-8.39793 -2.76946 1.56256e-12 
-8.13471 -2.64486 3.39167e-13 
-7.76842 -2.59741 -1.09402e-12 
-7.4297 -2.60283 -3.60929e-12 
-7.11977 -2.56655 -6.23373e-12 
-6.83678 -2.70215 -4.26729e-12 
-6.54024 -2.72685 -7.86799e-12 
-6.25969 -2.68851 -1.69496e-11 
-5.97769 -2.65115 -2.99629e-11 
[...]
POINT_DATA 1978 
VECTORS vectors float
0.000740838 -0.00311035 0.999995 
0.000545015 -0.0374853 0.999297 
0.000720412 -0.0439133 0.999035 
0.000352985 -0.031019 0.999519 
0.000581202 -0.0252366 0.999681 
0.000531438 -0.0224756 0.999747 
0.000510719 -0.0252209 0.999682 
0.000647431 -0.0254284 0.999676 
0.000531459 -0.0225255 0.999746 
0.000386856 -0.0164549 0.999865 
0.000541739 -0.0079918 0.999968 
0.000515022 -0.00347212 0.999994 
0.000582982 0.00476921 0.999988 
0.000671081 0.00995897 0.99995 
0.000529904 0.0185744 0.999827 
0.000484326 0.0236749 0.99972 
0.000561981 0.0240397 0.999711 
0.000619517 0.0227015 0.999742 
0.000592032 0.0234259 0.999725 
0.000620911 0.0280286 0.999607 
0.000568318 0.0354674 0.999371 
0.000571585 0.045345 0.998971 
0.000596881 0.0559267 0.998435 
0.000434925 0.066529 0.997784 
0.000458532 0.0763516 0.997081 
0.000399284 0.0869124 0.996216 
0.000257087 0.0969407 0.99529 
0.000235078 0.102196 0.994764 
0.000294913 0.101144 0.994872 
0.000318849 0.101265 0.994859 
0.000214965 0.105139 0.994458 
0.000221134 0.112032 0.993705 
0.00021306 0.126279 0.991995 
0.000181442 0.212064 0.977256 
1.24728e-05 0.319788 0.947489 
6.68332e-05 0.453171 0.891424 
-1.04416e-05 0.651164 0.758937 
-8.02365e-05 0.829834 0.558011 
-9.83694e-05 0.976676 0.21472 
0.000142129 0.999101 -0.042404 
-5.92511e-06 0.951814 -0.306676 
0.000135202 0.872823 -0.488037 
-8.92638e-06 0.632192 -0.774812 
-4.15663e-05 0.399596 -0.916691 
-0.00020029 0.277112 -0.960838 
-0.000186558 0.202981 -0.979183 
-0.000296203 0.13479 -0.990874 
-0.000258822 0.109706 -0.993964 
-0.000184821 0.0984263 -0.995144 
-0.000308805 0.0974201 -0.995243 
-0.000240214 0.101378 -0.994848 
-0.000260842 0.101873 -0.994797 
-0.000382519 0.0953611 -0.995443 
-0.000405261 0.0854763 -0.99634 
-0.000487823 0.0737517 -0.997277 
-0.000529185 0.0617622 -0.998091 
-0.000568479 0.0515482 -0.99867 
-0.000560472 0.0437829 -0.999041 
-0.00054378 0.037237 -0.999306 
-0.000561021 0.0316348 -0.999499 
-0.000521096 0.0249049 -0.99969 
-0.000621023 0.0191863 -0.999816 
-0.000571653 0.0144629 -0.999895 
-0.000616515 0.0116878 -0.999932 
-0.000702083 0.0108996 -0.99994 
-0.00062618 0.00927935 -0.999957 
-0.000557104 0.00471667 -0.999989 
-0.0006206 -0.00178699 -0.999998 
-0.000561274 -0.00817005 -0.999966 
-0.000534046 -0.0114284 -0.999935 
-0.000539466 -0.0115982 -0.999933 
-0.000630015 -0.0098126 -0.999952 
-0.000643436 -0.00979379 -0.999952 
-0.000608745 -0.0118803 -0.999929 
-0.000715694 -0.0182849 -0.999833 
-0.000542782 -0.0324964 -0.999472 
-0.000785434 -0.0434505 -0.999055 
-0.000631691 -0.0323534 -0.999476 
-0.00061048 -0.00313519 -0.999995 
-0.00191085 -0.00075779 0.999998 
0.013243 -0.0360899 0.999261 
0.0266158 -0.0384658 0.998905 
0.0248464 -0.0364571 0.999026 
0.0254998 -0.0261912 0.999332 
0.02148 -0.0219828 0.999528 
0.0243442 -0.0205944 0.999491 
0.0213473 -0.0205498 0.999561 
0.0204763 -0.0175253 0.999637 
0.020351 -0.0135105 0.999702 
0.0164587 -0.0107459 0.999807 
0.0174418 -0.00299841 0.999843 
0.0196588 0.00332527 0.999801 
0.0201753 0.00968028 0.99975 
0.0214846 0.013047 0.999684 
0.0186075 0.0181797 0.999662 
0.0139041 0.0225825 0.999648 
0.0105754 0.0249175 0.999634 
0.00833512 0.0277963 0.999579 
0.00259231 0.0333517 0.99944 
-0.00596631 0.0428734 0.999063 
-0.016606 0.0543096 0.998386 
-0.0253326 0.0644973 0.997596 
-0.0463901 0.0814999 0.995593 
-0.0643937 0.0954143 0.993353 
-0.0870443 0.107824 0.990352 
-0.122883 0.118756 0.98529 
-0.146689 0.120448 0.981822 
-0.17045 0.119162 0.978135 
-0.158383 0.112748 0.980919 
-0.155707 0.111862 0.981449 
-0.125543 0.117772 0.985073 
-0.0550204 0.160406 0.985516 
-0.0811214 0.212983 0.973682 
-0.0641615 0.30152 0.951299 
-0.0549239 0.431435 0.90047 
-0.0264925 0.595242 0.80311 
-0.0168179 0.794208 0.607413 
-0.0085409 0.931229 0.364336 
0.00247604 0.990243 -0.139331 
0.00860861 0.94719 -0.320556 
0.0101957 0.799948 -0.599982 
0.0303304 0.488456 -0.872061 
0.0630718 0.362157 -0.929981 
0.0841473 0.261965 -0.961402 
0.0690355 0.169775 -0.983062 
0.109113 0.127875 -0.98577 
0.156476 0.105832 -0.981995 
0.193704 0.106719 -0.975238 
0.131683 0.106438 -0.985561 
0.186536 0.121466 -0.97491 
0.151329 0.124235 -0.980645 
0.134367 0.124469 -0.983084 
0.0906241 0.107871 -0.990026 
0.0573196 0.0895504 -0.994332 
0.0380331 0.0740605 -0.996528 
0.0239832 0.0614094 -0.997824 
0.0129706 0.0508685 -0.998621 
0.00483734 0.0423188 -0.999092 
-0.00309081 0.033278 -0.999441 
-0.008156 0.0272352 -0.999596 
-0.0134044 0.0195651 -0.999719 
-0.0180977 0.0150817 -0.999722 
-0.0176737 0.0112068 -0.999781 
-0.0180915 0.0089203 -0.999797 
-0.0207716 0.00486727 -0.999772 
-0.0196154 0.000244779 -0.999808 
-0.0185635 -0.00486983 -0.999816 
-0.0173059 -0.00858506 -0.999813 
-0.0190315 -0.00894988 -0.999779 
-0.0198124 -0.00817178 -0.99977 
-0.0230473 -0.00784771 -0.999704 
-0.0235964 -0.0098714 -0.999673 
-0.0241004 -0.0143232 -0.999607 
-0.0182059 -0.0236812 -0.999554 
-0.0234529 -0.0323937 -0.9992 
-0.0188838 -0.0364852 -0.999156 
-0.0119919 -0.0284409 -0.999524 
0.000692774 -0.000704845 -1 
0.000525645 -0.00141578 0.999999 
0.015612 -0.0275146 0.999499 
0.0318864 -0.0406347 0.998665 
0.0358432 -0.032046 0.998843 
0.0372813 -0.0211478 0.999081 
0.0337515 -0.0180561 0.999267 
0.0322305 -0.0135782 0.999388 
0.0282779 -0.0139311 0.999503 
0.0264142 -0.0122903 0.999576 
0.024837 -0.0102952 0.999639 
0.0245764 -0.00922435 0.999655 
0.0209801 -0.00627897 0.99976 
0.0228382 -0.00126664 0.999738 
0.0209026 0.00354092 0.999775 
0.0203589 0.00975939 0.999745 
0.0183698 0.0168068 0.99969 
0.0186699 0.0219251 0.999585 
0.013348 0.0276833 0.999528 
0.00546201 0.0347578 0.999381 
-0.00789929 0.0453191 0.998941 
-0.0229862 0.0583247 0.998033 
-0.0454472 0.0771874 0.99598 
-0.0597804 0.088314 0.994297 
-0.0872149 0.107836 0.990336 
-0.1309 0.133455 0.982372 
-0.177323 0.153518 0.972105 
-0.214895 0.160338 0.963386 
-0.288464 0.171434 0.942019 
-0.347899 0.171189 0.92177 
-0.313286 0.144218 0.938644 
-0.324199 0.133009 0.936591 
-0.29101 0.122973 0.948784 
-0.159502 0.13846 0.97744 
-0.164355 0.182414 0.969388 
-0.146424 0.27571 0.950023 
-0.13009 0.398944 0.907701 
-0.071642 0.572041 0.81709 
-0.0422115 0.733853 0.677996 
-0.0228835 0.906734 0.421082 
-0.00464169 0.991238 0.132007 
0.0205685 0.938332 -0.345122 
0.0295443 0.809264 -0.586702 
0.04062 0.646461 -0.761865 
0.109249 0.429529 -0.89642 
0.152629 0.297323 -0.942499 
0.161195 0.195388 -0.967388 
0.227287 0.120545 -0.966338 
0.366403 0.11812 -0.922928 
0.336314 0.127615 -0.933063 
0.32588 0.142605 -0.934594 
0.347157 0.169171 -0.922422 
0.298753 0.174245 -0.938288 
0.25503 0.180791 -0.949881 
0.194705 0.164722 -0.966932 
0.131975 0.133586 -0.98221 
0.0926 0.110655 -0.989536 
0.0634648 0.0910221 -0.993825 
0.0402371 0.0735089 -0.996483 
0.0263909 0.0615781 -0.997753 
0.0109589 0.0478846 -0.998793 
0.00279424 0.0394115 -0.999219 
-0.00996181 0.0267393 -0.999593 
-0.0170751 0.0186409 -0.99968 
-0.0227031 0.012116 -0.999669 
-0.0252073 0.0081586 -0.999649 
-0.025117 0.00343184 -0.999679 
-0.0229224 -0.00134567 -0.999736 
-0.0212606 -0.00488647 -0.999762 
-0.0228426 -0.00650913 -0.999718 
-0.0252909 -0.00632699 -0.99966 
-0.0271054 -0.00545401 -0.999618 
-0.0296419 -0.00468966 -0.99955 
-0.0327256 -0.00630795 -0.999444 
-0.0347019 -0.0106955 -0.99934 
-0.0335538 -0.0210196 -0.999216 
-0.0363762 -0.0300922 -0.998885 
-0.0304288 -0.0357993 -0.998896 
-0.0199679 -0.0296515 -0.999361 
-0.0014838 -0.0015944 -0.999998 
0.0017665 -0.00149982 0.999997 
0.0193168 -0.0345603 0.999216 
0.022021 -0.0424916 0.998854 
0.0297625 -0.0335239 0.998995 
0.0280842 -0.0196517 0.999412 
0.0299391 -0.0117019 0.999483 
0.0199363 -0.00624779 0.999782 
0.0148497 -0.00634524 0.99987 
0.0125407 -0.00748805 0.999893 
0.0100106 -0.0082217 0.999916 
0.0120655 -0.00838082 0.999892 
0.0192117 -0.00638928 0.999795 
0.0120865 -0.0034476 0.999921 
0.00541304 0.00148161 0.999984 
0.00653499 0.00956628 0.999933 
0.00323323 0.0192984 0.999809 
0.00421943 0.0274998 0.999613 
-0.00407176 0.0374626 0.99929 
-0.0182627 0.0501141 0.998577 
-0.0396066 0.0688061 0.996844 
-0.0605769 0.0887705 0.994208 
-0.0945986 0.11938 0.988332 
-0.116995 0.135514 0.983844 
-0.166197 0.170502 0.97124 
-0.231291 0.207607 0.950475 
-0.301576 0.237118 0.923486 
-0.344306 0.236418 0.908603 
-0.39121 0.230662 0.890927 
-0.498106 0.244896 0.831815 
-0.489495 0.205777 0.847379 
-0.465343 0.175141 0.86763 
-0.500157 0.159594 0.851101 
-0.29445 0.128808 0.946947 
-0.272127 0.161033 0.948691 
-0.239669 0.252513 0.937441 
-0.188342 0.416146 0.889578 
-0.115721 0.578786 0.807227 
-0.0606245 0.782469 0.619731 
-0.0275184 0.940053 0.339916 
-0.00318217 0.999835 -0.0178624 
0.0273692 0.939738 -0.340798 
0.0569439 0.764195 -0.642466 
0.0843881 0.557091 -0.826153 
0.178459 0.422314 -0.888709 
0.250066 0.207199 -0.945799 
0.240453 0.14944 -0.959088 
0.355077 0.124077 -0.926566 
0.531511 0.140816 -0.835265 
0.499227 0.165237 -0.85057 
0.487232 0.193413 -0.851584 
0.485875 0.240519 -0.840283 
0.420508 0.247055 -0.873004 
0.3596 0.252245 -0.898365 
0.301241 0.244447 -0.921683 
0.227097 0.209459 -0.951081 
0.166152 0.171866 -0.971008 
0.119862 0.138453 -0.983089 
0.0810029 0.106903 -0.990964 
0.0602543 0.0893508 -0.994176 
0.038707 0.068591 -0.996894 
0.0240035 0.0529379 -0.998309 
0.00614403 0.0350144 -0.999368 
-0.00228973 0.0229566 -0.999734 
-0.0104437 0.0132023 -0.999858 
-0.0135962 0.0066852 -0.999885 
-0.0125582 0.00120594 -0.99992 
-0.00955219 -0.00319043 -0.999949 
-0.00560178 -0.00610776 -0.999966 
-0.0106421 -0.00634686 -0.999923 
-0.0132088 -0.00498215 -0.9999 
-0.0160268 -0.0025301 -0.999868 
-0.0172026 -0.000536324 -0.999852 
-0.0240175 -0.00230164 -0.999709 
-0.0257131 -0.00597269 -0.999652 
-0.0332287 -0.017212 -0.9993 
-0.030833 -0.0315134 -0.999028 
-0.0258902 -0.0368514 -0.998985 
-0.0169025 -0.0286346 -0.999447 
-0.000843589 -0.00120828 -0.999999 
-0.000324344 -0.00194369 0.999998 
0.00811089 -0.0241966 0.999674 
0.0103911 -0.0396031 0.999161 
0.0151048 -0.0308038 0.999411 
0.0120593 -0.0160933 0.999798 
0.0153784 -0.00720793 0.999856 
0.0044142 0.000511661 0.99999 
-0.0037401 0.000794131 0.999993 
-0.00525392 -0.00329354 0.999981 
-0.00734832 -0.00672068 0.99995 
-0.00632846 -0.00878857 0.999941 
-0.000517132 -0.00753638 0.999971 
-0.00489477 -0.00529327 0.999974 
-0.00700805 0.00183529 0.999974 
-0.0081325 0.0111786 0.999904 
-0.0132977 0.022678 0.999654 
-0.0144814 0.0332941 0.999341 
-0.024303 0.0472121 0.998589 
-0.0416584 0.0669488 0.996886 
-0.0647083 0.093207 0.993542 
-0.0944705 0.125025 0.987646 
-0.13757 0.170556 0.975697 
-0.183083 0.20801 0.960839 
-0.252 0.259067 0.932406 
-0.339883 0.312304 0.8871 
-0.425604 0.349388 0.834739 
-0.45883 0.32418 0.827274 
-0.51423 0.308148 0.800383 
-0.61767 0.31894 0.718861 
-0.612871 0.260653 0.745955 
-0.630112 0.205986 0.748685 
-0.618613 0.161092 0.769004 
-0.454845 0.136631 0.880027 
-0.410465 0.137494 0.901451 
-0.367287 0.184204 0.911685 
-0.297345 0.279447 0.91296 
-0.299423 0.335933 0.893026 
-0.203651 0.516936 0.831447 
-0.10419 0.712452 0.693942 
-0.012715 0.995501 0.0938961 
0.061498 0.804425 -0.590862 
0.115102 0.601555 -0.790495 
0.190693 0.512989 -0.836946 
0.251736 0.275885 -0.92764 
0.375268 0.156151 -0.913669 
0.450644 0.12611 -0.883751 
0.513047 0.121644 -0.849697 
0.640436 0.170422 -0.748865 
0.635631 0.224043 -0.738768 
0.552763 0.236956 -0.79894 
0.579787 0.33506 -0.742686 
0.494689 0.323938 -0.806441 
0.458052 0.348873 -0.817604 
0.397137 0.347623 -0.849377 
0.315069 0.308342 -0.897584 
0.236926 0.25573 -0.937266 
0.174524 0.204213 -0.963244 
0.122386 0.15293 -0.980629 
0.0875778 0.118572 -0.989076 
0.0620404 0.0907622 -0.993938 
0.0421701 0.0665845 -0.996889 
0.023317 0.0431533 -0.998796 
0.0135887 0.0274196 -0.999532 
0.00539094 0.0144536 -0.999881 
0.00171687 0.00576344 -0.999982 
0.0040758 -0.000599429 -0.999992 
0.00781951 -0.00547365 -0.999954 
0.0113763 -0.00805871 -0.999903 
0.00873257 -0.00692482 -0.999938 
0.00489416 -0.00408677 -0.99998 
0.00262519 0.000586853 -0.999996 
0.00265374 0.00447977 -0.999986 
-0.00652122 0.00287849 -0.999975 
-0.0117439 -0.00237576 -0.999928 
-0.0208419 -0.0166974 -0.999643 
-0.0184359 -0.0315229 -0.999333 
-0.0159822 -0.036021 -0.999223 
-0.00999464 -0.0253629 -0.999628 
-0.001014 -0.00138764 -0.999999 
-0.000504535 -0.00225154 0.999997 
0.00257867 -0.0161422 0.999866 
0.00192026 -0.0307425 0.999525 
0.00381316 -0.0358793 0.999349 
0.00105415 -0.0204657 0.99979 
-0.000688924 -0.00400282 0.999992 
-0.00512665 0.00497662 0.999974 
-0.0117894 0.00778794 0.9999 
-0.0168555 0.00316411 0.999853 
-0.0185848 -0.00293854 0.999823 
-0.0182673 -0.00817516 0.9998 
-0.0150154 -0.00999694 0.999837 
-0.0160484 -0.00907782 0.99983 
-0.0140506 -0.00346499 0.999895 
-0.0154653 0.00616781 0.999861 
-0.0181836 0.0183468 0.999666 
-0.025366 0.0368587 0.998999 
-0.0347271 0.0535492 0.997961 
-0.0507752 0.0773755 0.995708 
-0.0734831 0.110241 0.991185 
-0.100894 0.145961 0.984132 
-0.143069 0.20094 0.9691 
-0.197064 0.261426 0.944893 
-0.262038 0.317434 0.911357 
-0.34955 0.382048 0.855485 
-0.445694 0.446347 0.775971 
-0.522255 0.457095 0.71994 
-0.568368 0.419276 0.70793 
-0.619875 0.386726 0.682787 
-0.714234 0.365155 0.597103 
-0.711158 0.313935 0.629046 
-0.649234 0.242333 0.720951 
-0.702228 0.200344 0.683183 
-0.569672 0.139295 0.809982 
-0.513164 0.144712 0.846003 
-0.435055 0.213046 0.874836 
-0.435256 0.255492 0.863294 
-0.279461 0.472662 0.835758 
-0.0402578 0.903251 0.427219 
-0.00071571 0.996019 -0.0891336 
0.0458078 0.880564 -0.471709 
0.207932 0.581384 -0.786611 
0.291449 0.331479 -0.897318 
0.389008 0.190979 -0.901221 
0.553206 0.127982 -0.823155 
0.669756 0.115293 -0.733577 
0.647969 0.134182 -0.749754 
0.679046 0.208289 -0.703927 
0.667766 0.288087 -0.686363 
0.644378 0.330823 -0.689444 
0.678201 0.442017 -0.587081 
0.597871 0.428951 -0.677164 
0.553677 0.46347 -0.691837 
0.472592 0.453153 -0.75585 
0.380274 0.413467 -0.827307 
0.293549 0.353552 -0.888161 
0.218802 0.28947 -0.931844 
0.157082 0.214578 -0.963992 
0.113681 0.161779 -0.980257 
0.0828874 0.124028 -0.988811 
0.0585028 0.090648 -0.994163 
0.0374274 0.0583021 -0.997597 
0.0252998 0.0369905 -0.998995 
0.0171124 0.0192859 -0.999668 
0.0130535 0.00682432 -0.999892 
0.0138762 -0.0014083 -0.999903 
0.01644 -0.00749406 -0.999837 
0.018643 -0.0100448 -0.999776 
0.0188719 -0.00746891 -0.999794 
0.0169811 -0.00220917 -0.999853 
0.0167003 0.00384939 -0.999853 
0.0132903 0.00929388 -0.999868 
0.00466703 0.00789662 -0.999958 
-3.70947e-05 0.00308307 -0.999995 
-0.00894577 -0.0123934 -0.999883 
-0.00807925 -0.0264406 -0.999618 
-0.007699 -0.0348107 -0.999364 
-0.00535114 -0.0270376 -0.99962 
-0.00040034 -0.0013568 -0.999999 
-0.000794443 -0.00133921 0.999999 
-0.00257116 -0.024673 0.999692 
-0.00303055 -0.0341665 0.999412 
-0.00622642 -0.0193207 0.999794 
-0.00804679 -0.00269934 0.999964 
-0.0140051 0.0118983 0.999831 
-0.0168953 0.015029 0.999744 
-0.0200728 0.0111549 0.999736 
-0.0218061 0.00292952 0.999758 
-0.0218742 -0.00518619 0.999747 
-0.0211597 -0.0109861 0.999716 
-0.0194502 -0.01225 0.999736 
-0.0178844 -0.00916665 0.999798 
-0.0169229 -0.00181698 0.999855 
-0.0173828 0.00932995 0.999805 
-0.0223771 0.0280373 0.999356 
-0.0315197 0.0507726 0.998213 
-0.044327 0.0742075 0.996257 
-0.0630562 0.108196 0.992128 
-0.089845 0.155478 0.983745 
-0.123933 0.206789 0.970505 
-0.176913 0.286618 0.941569 
-0.241833 0.363638 0.899602 
-0.325023 0.434588 0.839936 
-0.416785 0.518351 0.746728 
-0.511289 0.564421 0.648084 
-0.591721 0.546981 0.59218 
-0.63784 0.502821 0.583379 
-0.701862 0.572788 0.423442 
-0.699887 0.488506 0.521076 
-0.804342 0.365373 0.468547 
-0.764853 0.296912 0.571702 
-0.786519 0.26256 0.558972 
-0.733607 0.169578 0.658076 
-0.67305 0.133979 0.72736 
-0.556478 0.171108 0.813052 
-0.542821 0.211675 0.812735 
-0.407426 0.275778 0.870604 
-0.102351 0.76652 0.634012 
-0.0166868 0.966309 0.256843 
0.116727 0.679745 -0.724101 
0.312829 0.393247 -0.864578 
0.417836 0.215349 -0.882631 
0.553949 0.146407 -0.819576 
0.786185 0.114142 -0.607359 
0.757746 0.156579 -0.633485 
0.811069 0.243989 -0.531636 
0.748609 0.305079 -0.588652 
0.728903 0.387332 -0.564512 
0.741391 0.497566 -0.450297 
0.664262 0.537404 -0.519569 
0.5991 0.566846 -0.565478 
0.522222 0.553996 -0.648362 
0.448181 0.5421 -0.710817 
0.366525 0.480763 -0.796572 
0.284033 0.416851 -0.863459 
0.212096 0.339562 -0.916359 
0.158467 0.259209 -0.952732 
0.116066 0.193569 -0.974197 
0.0844078 0.146722 -0.98557 
0.0583782 0.102296 -0.99304 
0.0401868 0.0693629 -0.996782 
0.0272141 0.041307 -0.998776 
0.0200461 0.0205001 -0.999589 
0.0170769 0.00692802 -0.99983 
0.016895 -0.00333868 -0.999852 
0.017972 -0.00991959 -0.999789 
0.0191286 -0.0123559 -0.999741 
0.0212769 -0.00966215 -0.999727 
0.0218946 -0.00310826 -0.999755 
0.020799 0.00527121 -0.99977 
0.0176723 0.0133499 -0.999755 
0.0120001 0.0142394 -0.999827 
0.00699035 0.00993289 -0.999926 
-0.000335672 -0.00651195 -0.999979 
-0.00182199 -0.0220305 -0.999756 
-0.00325504 -0.0325009 -0.999466 
-0.00119103 -0.0237069 -0.999718 
5.06369e-05 -0.00125933 -0.999999 
-0.00107007 -0.00127252 0.999999 
-0.00592975 -0.0247209 0.999677 
-0.00805336 -0.0288582 0.999551 
-0.0111744 -0.0135569 0.999846 
-0.0126123 0.00219402 0.999918 
-0.0165245 0.0178366 0.999704 
-0.0186252 0.0213186 0.999599 
-0.0196239 0.0160063 0.999679 
-0.0189745 0.0053904 0.999805 
-0.0177122 -0.00519624 0.99983 
-0.017614 -0.011624 0.999777 
-0.0149159 -0.0138828 0.999792 
-0.0141978 -0.0108918 0.99984 
-0.0144522 -0.00366925 0.999889 
-0.0141059 0.00823133 0.999867 
-0.0188734 0.0265233 0.99947 
-0.0263335 0.0538656 0.998201 
-0.0399238 0.0864919 0.995452 
-0.0574354 0.124802 0.990518 
-0.0821072 0.17735 0.980717 
-0.118868 0.247006 0.961696 
-0.164623 0.324377 0.931493 
-0.226746 0.428396 0.874679 
-0.294653 0.491956 0.819243 
-0.370093 0.575781 0.729046 
-0.435192 0.664306 0.607705 
-0.494136 0.647634 0.58 
-0.580964 0.642526 0.499641 
-0.635677 0.649727 0.416857 
-0.676196 0.624659 0.39059 
-0.763608 0.558647 0.323754 
-0.711206 0.426957 0.558474 
-0.850351 0.349318 0.393548 
-0.817048 0.230593 0.52845 
-0.71371 0.138339 0.686645 
-0.685612 0.157929 0.71063 
-0.557562 0.225988 0.798783 
-0.385346 0.288024 0.87667 
-0.0192232 0.881005 0.472716 
-0.00247722 0.990933 -0.134333 
0.0735785 0.748604 -0.658922 
0.484134 0.177558 -0.856789 
0.579449 0.157462 -0.799653 
0.734775 0.117386 -0.668077 
0.797987 0.197344 -0.569449 
0.872237 0.298057 -0.387769 
0.763047 0.264086 -0.589931 
0.787328 0.384284 -0.482121 
0.785059 0.575133 -0.230008 
0.732045 0.570871 -0.371775 
0.666695 0.643705 -0.375716 
0.60089 0.661139 -0.449251 
0.525005 0.650854 -0.548415 
0.457762 0.659687 -0.596043 
0.376626 0.580583 -0.721856 
0.298663 0.519883 -0.800326 
0.226622 0.433842 -0.872023 
0.163135 0.332459 -0.928902 
0.121043 0.248405 -0.961064 
0.0869052 0.186888 -0.97853 
0.0604773 0.131046 -0.98953 
0.0400523 0.0887129 -0.995252 
0.0259392 0.0531221 -0.998251 
0.017549 0.0256731 -0.999516 
0.01426 0.00805343 -0.999866 
0.0138869 -0.00354242 -0.999897 
0.0135462 -0.0106962 -0.999851 
0.0144369 -0.0137246 -0.999802 
0.0172948 -0.0104201 -0.999796 
0.019218 -0.00340376 -0.99981 
0.0182819 0.00654901 -0.999811 
0.0161192 0.0154976 -0.99975 
0.0132173 0.0193085 -0.999726 
0.00866879 0.0156947 -0.999839 
0.00387485 -0.000720766 -0.999992 
0.00156535 -0.0173844 -0.999848 
-0.000151325 -0.0284027 -0.999597 
0.00114404 -0.0213861 -0.999771 
0.000217239 -0.00139726 -0.999999 
0.000249388 -0.00141254 0.999999 
-0.00462872 -0.0202314 0.999785 
-0.0103048 -0.0240364 0.999658 
-0.0126642 -0.00719552 0.999894 
-0.0142522 0.0105194 0.999843 
-0.0142354 0.0234502 0.999624 
-0.014159 0.0252143 0.999582 
-0.0140264 0.0184656 0.999731 
-0.0124089 0.00782295 0.999892 
-0.0106548 -0.00391835 0.999936 
-0.0097356 -0.0122402 0.999878 
-0.00737409 -0.0144619 0.999868 
-0.00669227 -0.0107194 0.99992 
-0.00788118 -0.00283821 0.999965 
-0.00856187 0.0114094 0.999898 