# vtk DataFile Version 3.0 
Exported using Morpho https://github.com/Morpho-lang/morpho 
ASCII 
DATASET UNSTRUCTURED_GRID 

POINTS 1978 float 
-12 -4 4.7449e-13 
-11.6608 -4 -3.44708e-14 
-11.3395 -4 1.85695e-13 
-11.0114 -4 6.30644e-13 
-10.7413 -4 1.1645e-12 
-10.3422 -4 4.24603e-13 
-10.0449 -4 -1.56776e-13 
-9.74668 -4 -9.5967e-14 
-9.41759 -4 -3.46825e-14 
-9.08707 -4 1.31673e-13 
-8.65228 -4 -2.53109e-13 
-8.35125 -4 4.15925e-13 
-8.03031 -4 2.3414e-14 
-7.75178 -4 -2.19301e-13 
-7.42266 -4 1.02687e-13 
-7.12766 -4 -5.71366e-14 
-6.78813 -4 -1.70839e-13 
-6.47285 -4 -4.72601e-13 
-6.18661 -4 -3.03127e-13 
-5.90559 -4 -5.0502e-13 
-5.63883 -4 -4.03224e-13 
-5.37131 -4 -6.03014e-13 
-5.05606 -4 -6.15247e-13 
-4.77332 -4 -1.00699e-12 
-4.48214 -4 -1.09451e-12 
-4.16527 -4 -8.32126e-13 
-3.78948 -4 -1.24717e-12 
-3.41349 -4 -1.75449e-12 
-3.06609 -4 -1.46121e-12 
-2.72889 -4 -1.33921e-12 
-2.45349 -4 -1.20607e-12 
-2.22079 -4 -2.19627e-12 
-1.97421 -4 -1.99742e-12 
-1.50517 -4 -2.33016e-12 
-1.23169 -4 -1.22956e-12 
-1.0008 -4 -3.9905e-13 
-0.700659 -4 -1.40709e-12 
-0.453122 -4 -4.33252e-13 
-0.157254 -4 -1.89754e-12 
0.0193858 -4 5.03908e-12 
0.225451 -4 1.89941e-12 
0.377708 -4 -3.32351e-12 
0.708847 -4 2.70374e-12 
1.08415 -4 4.54542e-13 
1.32242 -4 1.8092e-12 
1.54132 -4 1.54608e-12 
1.86329 -4 1.88779e-12 
2.12558 -4 1.20299e-12 
2.39752 -4 1.32982e-12 
2.67664 -4 1.70004e-12 
3.14913 -4 1.6629e-12 
3.55431 -4 1.02466e-12 
3.87878 -4 1.0067e-12 
4.20677 -4 9.46884e-13 
4.50465 -4 8.63003e-13 
4.80105 -4 8.75611e-13 
5.08033 -4 6.67214e-13 
5.35317 -4 6.89242e-13 
5.63287 -4 5.70265e-13 
5.9264 -4 3.46231e-13 
6.27065 -4 2.83775e-13 
6.55037 -4 2.01554e-13 
6.87365 -4 1.39308e-13 
7.12569 -4 1.08542e-13 
7.41755 -4 7.41759e-14 
7.72666 -4 5.20836e-14 
7.99347 -4 -1.44855e-13 
8.29917 -4 2.51298e-13 
8.59873 -4 2.71948e-14 
8.92879 -4 -1.85591e-13 
9.23525 -4 -1.51649e-13 
9.56096 -4 1.44273e-13 
9.85378 -4 -3.38349e-14 
10.1764 -4 -2.65186e-13 
10.5146 -4 -5.06907e-13 
11.0469 -4 -1.03418e-12 
11.3691 -4 -5.65161e-13 
11.7046 -4 -3.10982e-13 
12 -4 -2.47373e-13 
-12 -3.72997 -5.3776e-13 
-11.5764 -3.66403 1.86633e-15 
-11.3212 -3.52191 -1.67642e-15 
-11.0871 -3.67981 -1.60668e-15 
-10.7581 -3.62814 -6.13126e-16 
-10.4506 -3.74732 -1.71764e-15 
-10.0464 -3.64335 -7.94641e-16 
-9.72071 -3.66525 -6.12209e-16 
-9.38368 -3.67551 -7.69484e-16 
-9.08733 -3.63844 -3.52646e-16 
-8.80674 -3.75986 -5.70796e-16 
-8.3289 -3.70011 -1.28279e-15 
-8.02523 -3.65206 2.52506e-15 
-7.73907 -3.65685 5.03875e-16 
-7.5186 -3.54101 2.64397e-16 
-7.2629 -3.6288 8.20246e-16 
-6.94548 -3.69856 8.0911e-16 
-6.61005 -3.68806 8.02693e-16 
-6.29419 -3.67266 1.48721e-15 
-5.99979 -3.67328 1.55719e-15 
-5.7072 -3.65235 1.84757e-15 
-5.42788 -3.65026 1.61637e-15 
-5.12132 -3.68831 1.34627e-15 
-4.78398 -3.63071 7.37121e-16 
-4.45696 -3.64009 1.39904e-15 
-4.10098 -3.66063 1.57459e-15 
-3.71691 -3.66132 -1.37094e-15 
-3.35333 -3.66621 -3.2712e-15 
-3.03831 -3.66938 -7.13341e-15 
-2.70346 -3.70727 1.88407e-15 
-2.42918 -3.7159 9.12924e-15 
-2.14292 -3.76321 -2.13456e-14 
-1.75829 -3.88409 2.46824e-15 
-1.4955 -3.80019 -1.06562e-14 
-1.25679 -3.82261 -2.22978e-14 
-1.02506 -3.80436 1.59633e-14 
-0.794174 -3.8606 -6.63914e-15 
-0.534233 -3.84711 -4.77406e-14 
-0.272355 -3.87972 3.09689e-15 
0.0952748 -3.82312 -6.888e-14 
0.250598 -3.77688 1.06685e-13 
0.477125 -3.88024 1.86505e-13 
0.892858 -3.88556 -2.99173e-14 
1.14067 -3.82176 4.22635e-15 
1.3569 -3.78693 -2.31657e-14 
1.6464 -3.84375 -2.03479e-14 
1.88223 -3.77344 4.96746e-15 
2.19893 -3.77264 -9.63385e-14 
2.43528 -3.67647 1.90335e-14 
2.80123 -3.77191 -2.48727e-15 
3.14476 -3.66673 -4.92837e-14 
3.49517 -3.68573 -5.48429e-14 
3.87698 -3.61375 6.98731e-15 
4.21026 -3.6226 -1.27723e-15 
4.54623 -3.6521 -5.06373e-16 
4.86673 -3.66461 -1.26967e-15 
5.17285 -3.6701 -1.3787e-15 
5.47614 -3.67512 -1.68983e-15 
5.76715 -3.66314 -1.54961e-15 
6.07864 -3.68736 -1.55675e-15 
6.37353 -3.61998 -1.16099e-15 
6.67823 -3.67941 -1.13538e-15 
6.95565 -3.61233 -8.8459e-16 
7.24274 -3.67705 -5.97064e-16 
7.55655 -3.697 -5.66136e-15 
7.85728 -3.64411 -3.38163e-15 
8.15205 -3.66646 7.15924e-16 
8.45662 -3.64303 1.92903e-15 
8.77779 -3.68239 2.37611e-15 
9.10814 -3.67408 5.49583e-15 
9.42942 -3.68733 3.8803e-16 
9.74514 -3.65115 4.12907e-16 
10.0595 -3.68496 5.06516e-16 
10.3725 -3.68326 8.87918e-16 
10.7518 -3.79996 1.54724e-15 
11.0556 -3.65058 7.87656e-16 
11.3658 -3.66707 1.11388e-15 
11.6779 -3.62952 -1.17561e-15 
12 -3.66376 8.42299e-13 
-12 -3.46731 -3.5534e-13 
-11.6862 -3.33111 -3.22038e-15 
-11.2956 -3.22229 -7.08083e-16 
-10.9448 -3.32189 -1.64681e-15 
-10.6064 -3.30347 -2.24414e-15 
-10.331 -3.44546 -1.05559e-15 
-10.0025 -3.29742 -9.09006e-16 
-9.67617 -3.33101 -5.19225e-16 
-9.37757 -3.31011 -4.92784e-16 
-9.07003 -3.29225 -5.73684e-16 
-8.77905 -3.38708 -3.87994e-16 
-8.51852 -3.54232 -1.80633e-15 
-8.17258 -3.3529 -1.24623e-15 
-7.88193 -3.26346 4.39817e-15 
-7.57852 -3.21026 4.68255e-16 
-7.24373 -3.21686 9.42621e-16 
-6.98623 -3.36151 1.29248e-15 
-6.67416 -3.38051 1.61131e-15 
-6.35124 -3.36219 1.93786e-15 
-6.04262 -3.3418 2.34513e-15 
-5.7568 -3.32715 1.53863e-15 
-5.46137 -3.29042 1.66274e-15 
-5.17607 -3.3507 1.67555e-15 
-4.8675 -3.32171 1.86091e-15 
-4.52821 -3.29258 -2.87732e-15 
-4.198 -3.3219 -3.79967e-15 
-3.85205 -3.36179 -1.18603e-14 
-3.47876 -3.36321 -9.81218e-15 
-3.16779 -3.33438 -9.89885e-15 
-2.85057 -3.44727 -8.16088e-15 
-2.55296 -3.44561 1.42075e-14 
-2.26411 -3.52793 -1.8304e-14 
-1.90151 -3.71854 -4.10699e-15 
-1.61449 -3.65441 -1.15012e-15 
-1.29069 -3.62134 5.23546e-15 
-1.07362 -3.60511 -2.35535e-13 
-0.838045 -3.6784 -1.8549e-13 
-0.606209 -3.69774 -1.46812e-13 
-0.340513 -3.73706 2.38502e-14 
-0.0800083 -3.75774 2.24389e-14 
0.236387 -3.58068 3.68563e-15 
0.416326 -3.68952 -6.80707e-15 
0.663184 -3.80789 -1.65352e-13 
1.0136 -3.67881 -5.84515e-14 
1.2295 -3.61003 1.11727e-13 
1.5352 -3.65403 1.00197e-13 
2.0431 -3.60516 9.58045e-14 
2.25269 -3.4322 -2.69445e-14 
2.56616 -3.46637 1.61578e-14 
2.8589 -3.48537 -1.08195e-14 
3.19134 -3.37307 1.56601e-14 
3.51031 -3.38087 -5.28227e-14 
3.8476 -3.31214 8.06334e-15 
4.20789 -3.28102 9.81981e-15 
4.51904 -3.30569 6.7629e-16 
4.82651 -3.32541 5.73315e-16 
5.12471 -3.3408 -2.51895e-15 
5.42606 -3.35765 -2.50098e-15 
5.72492 -3.31905 -1.93034e-15 
6.01226 -3.34725 -2.02601e-15 
6.29324 -3.27203 -1.68823e-15 
6.60575 -3.32392 -1.40976e-15 
6.91978 -3.29119 -1.07646e-15 
7.23822 -3.3294 -7.03329e-16 
7.52312 -3.37882 -4.06795e-16 
7.82163 -3.32345 -5.29059e-15 
8.14044 -3.32062 -8.88669e-16 
8.43435 -3.28298 1.56973e-15 
8.74315 -3.34826 5.46683e-15 
9.07098 -3.35716 3.78721e-16 
9.39822 -3.36008 3.22754e-16 
9.71146 -3.31593 3.00771e-16 
10.0345 -3.36071 6.67138e-16 
10.3561 -3.33624 1.10452e-15 
10.6637 -3.49243 9.62552e-16 
10.9499 -3.33697 1.16473e-15 
11.298 -3.3188 1.05527e-15 
11.6215 -3.30888 4.38935e-15 
12 -3.33162 -5.25829e-14 
-12 -3.14627 -3.81983e-13 
-11.5981 -3.03669 1.7997e-15 
-11.3168 -2.85677 3.77051e-16 
-10.9984 -2.99653 -4.43472e-16 
-10.6578 -2.98283 -7.33848e-16 
-10.2818 -3.07815 -1.06721e-15 
-9.91409 -2.95885 -3.28271e-16 
-9.59993 -2.95801 -2.68177e-15 
-9.27998 -2.96503 -2.61811e-15 
-8.9543 -2.97171 -5.66456e-16 
-8.67292 -3.02354 -5.03945e-16 
-8.43849 -3.19199 -1.32722e-15 
-8.16088 -3.00538 1.75402e-16 
-7.86457 -2.90375 4.19615e-16 
-7.51276 -2.90272 3.73056e-15 
-7.16559 -2.90939 4.41253e-15 
-6.85805 -3.03309 7.29858e-16 
-6.55304 -3.05678 1.08089e-15 
-6.24922 -3.03294 5.19135e-16 
-5.96556 -2.99388 4.63671e-17 
-5.68148 -2.98018 -3.1701e-15 
-5.38612 -2.93637 -1.89213e-15 
-5.10591 -3.0027 -8.54857e-16 
-4.79087 -2.98115 -3.71725e-15 
-4.45956 -2.96903 -6.25718e-15 
-4.16445 -2.99943 -7.76377e-15 
-3.88319 -3.0738 -8.28702e-15 
-3.57196 -3.11627 -3.11864e-14 
-3.27877 -3.05858 -4.40482e-15 
-2.97268 -3.16173 -6.82681e-15 
-2.7398 -3.21352 1.3703e-14 
-2.47577 -3.24062 -1.35564e-14 
-1.99779 -3.51201 5.86242e-14 
-1.72985 -3.49814 -4.85927e-14 
-1.4278 -3.48217 -3.26506e-13 
-0.964313 -3.45508 -3.28482e-14 
-0.752116 -3.52087 -6.47743e-15 
-0.484182 -3.57692 1.62308e-13 
-0.246095 -3.60566 7.24222e-15 
0.0540007 -3.60408 1.95911e-13 
0.237194 -3.40783 9.30612e-14 
0.58825 -3.6179 3.94836e-13 
0.812285 -3.6797 2.6503e-14 
0.978422 -3.48646 -7.37535e-14 
1.41801 -3.50315 -1.14566e-13 
1.73333 -3.57261 -1.07008e-14 
1.94192 -3.43638 -1.25887e-14 
2.36849 -3.24364 -1.37117e-13 
2.64989 -3.24046 -1.93171e-14 
2.90977 -3.24186 1.09086e-14 
3.3236 -3.10651 -9.84207e-14 
3.58492 -3.08697 2.28569e-15 
3.91806 -3.0492 3.96037e-15 
4.20256 -2.97805 9.36808e-16 
4.50537 -2.96782 1.92165e-14 
4.80492 -2.97752 6.06968e-16 
5.10167 -2.98873 4.70728e-15 
5.39457 -3.02938 3.2705e-16 
5.6908 -2.98882 3.12531e-16 
6.00023 -2.98529 2.0216e-15 
6.30442 -2.93137 -3.32259e-16 
6.60709 -2.99232 -5.49627e-16 
6.92267 -2.96193 -4.35452e-16 
7.23319 -3.00738 -3.77235e-16 
7.54961 -3.03134 -4.31628e-15 
7.87071 -3.00391 -1.06176e-15 
8.16508 -2.95871 -1.15045e-16 
8.44244 -2.8907 -6.23459e-16 
8.71746 -2.99816 3.04847e-16 
9.03483 -3.03133 5.39127e-16 
9.35997 -3.02451 1.90051e-15 
9.67754 -2.97265 2.67483e-15 
10.0064 -3.03099 5.76109e-15 
10.3144 -2.97621 5.36778e-16 
10.635 -3.12116 9.54273e-16 
10.9923 -3.01423 2.90425e-15 
11.3211 -2.97372 -2.17549e-17 
11.6499 -2.98784 -5.2484e-15 
12 -3.05323 7.75226e-13 
-12 -2.89765 -4.80476e-13 
-11.7161 -2.73771 3.23361e-15 
-11.4293 -2.55725 3.70546e-16 
-11.0193 -2.65437 2.92352e-16 
-10.6795 -2.64942 1.27438e-15 
-10.3203 -2.76723 -3.44634e-15 
-9.98875 -2.64038 -1.3338e-15 
-9.62668 -2.59732 6.1152e-16 
-9.30808 -2.61792 1.67111e-15 
-9.00174 -2.63783 4.10209e-15 
-8.69117 -2.65367 2.50943e-15 
-8.39782 -2.76617 1.91262e-15 
-8.13298 -2.63821 3.28486e-16 
-7.77295 -2.6014 -1.32042e-15 
-7.42987 -2.60145 -4.32545e-15 
-7.12176 -2.56936 -2.54619e-16 
-6.83783 -2.70064 -5.06484e-15 
-6.53922 -2.72653 -3.95287e-16 
-6.25581 -2.68654 -9.91325e-16 
[...]
POINT_DATA 1978 
VECTORS vectors float
0.00034158 -0.00177273 0.999998 
-0.000212782 -0.0374848 0.999297 
-5.2384e-05 -0.0439129 0.999035 
-0.000142602 -0.0310191 0.999519 
-8.93955e-05 -0.0252367 0.999682 
-0.000154235 -0.0224756 0.999747 
-8.73843e-05 -0.0252208 0.999682 
-7.31866e-05 -0.0254283 0.999677 
-0.000107908 -0.0225254 0.999746 
-0.000192976 -0.0164548 0.999865 
-0.000131751 -0.00799181 0.999968 
-9.97943e-05 -0.00347208 0.999994 
-8.14851e-05 0.00476915 0.999989 
-6.26304e-05 0.00995897 0.99995 
-0.000109148 0.0185742 0.999827 
-0.00010798 0.0236748 0.99972 
-0.000118265 0.0240396 0.999711 
-7.28478e-05 0.0227015 0.999742 
-6.42322e-05 0.0234261 0.999726 
-2.74348e-05 0.0280288 0.999607 
-3.14335e-05 0.0354675 0.999371 
-7.21283e-05 0.0453452 0.998971 
-5.37203e-05 0.0559269 0.998435 
-7.1951e-05 0.0665293 0.997784 
-5.34377e-05 0.0763518 0.997081 
-8.80999e-05 0.0869127 0.996216 
-0.000107468 0.096941 0.99529 
-8.16149e-05 0.102196 0.994764 
-6.89452e-05 0.101144 0.994872 
-3.05832e-05 0.101265 0.994859 
-1.67765e-05 0.105139 0.994458 
1.51036e-05 0.112032 0.993705 
-5.96617e-05 0.126279 0.991995 
-4.35213e-05 0.212065 0.977256 
-3.08958e-05 0.319788 0.947489 
1.83198e-05 0.453171 0.891423 
-3.4324e-06 0.651165 0.758937 
4.82024e-07 0.829834 0.55801 
-3.45163e-05 0.976676 0.21472 
7.48753e-05 0.999101 -0.0424035 
-3.58632e-05 0.951814 -0.306676 
4.56359e-05 0.872823 -0.488038 
-1.9618e-05 0.632191 -0.774813 
2.38164e-05 0.399596 -0.916692 
-4.14264e-05 0.277112 -0.960838 
3.31748e-05 0.20298 -0.979183 
1.20372e-05 0.13479 -0.990874 
4.49614e-06 0.109706 -0.993964 
3.95732e-05 0.0984264 -0.995144 
6.66247e-05 0.0974202 -0.995243 
0.000135394 0.101378 -0.994848 
9.0524e-05 0.101874 -0.994797 
6.16516e-05 0.0953614 -0.995443 
8.06708e-05 0.0854766 -0.99634 
5.68623e-05 0.0737519 -0.997277 
5.60531e-05 0.0617625 -0.998091 
3.27026e-05 0.0515485 -0.99867 
3.82929e-05 0.0437831 -0.999041 
5.88755e-05 0.0372371 -0.999306 
9.8968e-05 0.0316349 -0.999499 
0.00011218 0.024905 -0.99969 
6.50168e-05 0.0191864 -0.999816 
7.49784e-05 0.014463 -0.999895 
3.99915e-05 0.0116878 -0.999932 
7.76557e-05 0.0108995 -0.999941 
6.77235e-05 0.00927925 -0.999957 
7.49435e-05 0.00471661 -0.999989 
7.0823e-05 -0.00178701 -0.999998 
0.000106416 -0.00816996 -0.999967 
0.000104952 -0.0114283 -0.999935 
0.000113101 -0.0115981 -0.999933 
8.94725e-05 -0.00981257 -0.999952 
9.16064e-05 -0.00979378 -0.999952 
0.000148316 -0.0118803 -0.999929 
0.000271673 -0.0182848 -0.999833 
0.000321844 -0.0324964 -0.999472 
9.04134e-05 -0.0434501 -0.999056 
0.000153479 -0.032353 -0.999476 
-0.000165254 -0.00155753 -0.999999 
-0.000957466 0.000383491 0.999999 
0.0132428 -0.0360893 0.999261 
0.0266154 -0.0384656 0.998905 
0.0248459 -0.0364569 0.999026 
0.0254996 -0.0261912 0.999332 
0.0214795 -0.0219828 0.999528 
0.0243438 -0.0205943 0.999491 
0.0213469 -0.0205496 0.999561 
0.0204759 -0.0175252 0.999637 
0.0203507 -0.0135105 0.999702 
0.0164583 -0.0107458 0.999807 
0.0174414 -0.00299838 0.999843 
0.0196585 0.00332526 0.999801 
0.0201749 0.0096802 0.99975 
0.0214843 0.013047 0.999684 
0.0186071 0.0181796 0.999662 
0.0139038 0.0225825 0.999648 
0.0105752 0.0249176 0.999634 
0.00833475 0.0277964 0.999579 
0.00259195 0.0333518 0.99944 
-0.00596666 0.0428736 0.999063 
-0.0166063 0.0543098 0.998386 
-0.0253328 0.0644974 0.997596 
-0.0463903 0.0815001 0.995593 
-0.0643941 0.0954146 0.993353 
-0.0870447 0.107824 0.990352 
-0.122883 0.118756 0.98529 
-0.146689 0.120449 0.981822 
-0.17045 0.119162 0.978135 
-0.158384 0.112748 0.980919 
-0.155708 0.111862 0.981449 
-0.125543 0.117772 0.985073 
-0.0550208 0.160406 0.985516 
-0.0811217 0.212983 0.973682 
-0.0641614 0.301521 0.951298 
-0.0549242 0.431436 0.90047 
-0.0264927 0.595241 0.80311 
-0.0168182 0.794207 0.607414 
-0.00854091 0.931229 0.364335 
0.00247612 0.990243 -0.139329 
0.00860875 0.947189 -0.320559 
0.010196 0.799948 -0.599983 
0.0303306 0.488457 -0.87206 
0.0630721 0.362157 -0.929981 
0.0841475 0.261965 -0.961402 
0.0690361 0.169775 -0.983062 
0.109114 0.127876 -0.98577 
0.156474 0.105832 -0.981996 
0.193705 0.106719 -0.975238 
0.131683 0.106438 -0.985561 
0.186536 0.121467 -0.97491 
0.151329 0.124235 -0.980645 
0.134367 0.124469 -0.983083 
0.0906247 0.107872 -0.990026 
0.05732 0.0895507 -0.994331 
0.0380334 0.0740608 -0.996528 
0.0239835 0.0614096 -0.997824 
0.0129709 0.0508686 -0.998621 
0.00483764 0.0423189 -0.999092 
-0.00309046 0.0332782 -0.999441 
-0.00815568 0.0272353 -0.999596 
-0.0134041 0.0195652 -0.999719 
-0.0180973 0.0150817 -0.999722 
-0.0176734 0.0112068 -0.999781 
-0.0180912 0.00892026 -0.999797 
-0.0207712 0.00486723 -0.999772 
-0.019615 0.000244763 -0.999808 
-0.0185632 -0.00486978 -0.999816 
-0.0173057 -0.00858496 -0.999813 
-0.0190312 -0.00894982 -0.999779 
-0.019812 -0.00817178 -0.99977 
-0.023047 -0.0078477 -0.999704 
-0.023596 -0.0098714 -0.999673 
-0.0241001 -0.0143232 -0.999607 
-0.0182055 -0.0236812 -0.999554 
-0.0234526 -0.0323935 -0.9992 
-0.0188834 -0.036485 -0.999156 
-0.0119916 -0.0284404 -0.999524 
0.000528774 0.0005589 -1 
0.000164766 -0.000154552 1 
0.0156117 -0.0275142 0.999499 
0.0318858 -0.0406342 0.998665 
0.0358426 -0.0320459 0.998844 
0.0372806 -0.0211479 0.999081 
0.033751 -0.0180561 0.999267 
0.0322299 -0.0135782 0.999388 
0.0282775 -0.013931 0.999503 
0.0264138 -0.0122902 0.999576 
0.0248366 -0.0102952 0.999639 
0.024576 -0.00922429 0.999655 
0.02098 -0.00627895 0.99976 
0.0228378 -0.00126663 0.999738 
0.0209023 0.00354093 0.999775 
0.0203585 0.00975937 0.999745 
0.0183694 0.0168068 0.99969 
0.0186694 0.0219251 0.999585 
0.0133476 0.0276833 0.999528 
0.00546155 0.0347579 0.999381 
-0.00789965 0.0453192 0.998941 
-0.0229865 0.0583248 0.998033 
-0.0454474 0.0771874 0.99598 
-0.0597806 0.088314 0.994297 
-0.0872154 0.107836 0.990336 
-0.1309 0.133456 0.982372 
-0.177323 0.153518 0.972105 
-0.214895 0.160339 0.963385 
-0.288464 0.171433 0.942019 
-0.347899 0.171189 0.92177 
-0.313286 0.144218 0.938644 
-0.3242 0.13301 0.936591 
-0.29101 0.122973 0.948784 
-0.159502 0.13846 0.977439 
-0.164356 0.182415 0.969387 
-0.146425 0.275711 0.950023 
-0.130091 0.398942 0.907701 
-0.0716425 0.572039 0.817092 
-0.0422118 0.733852 0.677997 
-0.0228834 0.906733 0.421084 
-0.00464196 0.991238 0.132006 
0.0205682 0.938333 -0.345121 
0.0295443 0.809267 -0.586698 
0.0406197 0.646463 -0.761864 
0.109248 0.429529 -0.89642 
0.152629 0.297324 -0.942498 
0.161196 0.195389 -0.967388 
0.227288 0.120545 -0.966338 
0.366404 0.11812 -0.922928 
0.336315 0.127615 -0.933063 
0.325879 0.142605 -0.934594 
0.347158 0.169171 -0.922422 
0.298753 0.174246 -0.938288 
0.25503 0.180791 -0.949881 
0.194706 0.164722 -0.966931 
0.131976 0.133586 -0.98221 
0.0926003 0.110655 -0.989536 
0.0634651 0.0910223 -0.993824 
0.0402374 0.0735089 -0.996483 
0.0263912 0.0615782 -0.997753 
0.0109592 0.0478847 -0.998793 
0.0027946 0.0394116 -0.999219 
-0.00996142 0.0267394 -0.999593 
-0.0170746 0.018641 -0.99968 
-0.0227026 0.012116 -0.999669 
-0.0252068 0.00815857 -0.999649 
-0.0251165 0.00343185 -0.999679 
-0.022922 -0.00134563 -0.999736 
-0.0212603 -0.00488642 -0.999762 
-0.0228422 -0.0065091 -0.999718 
-0.0252904 -0.00632698 -0.99966 
-0.027105 -0.00545401 -0.999618 
-0.0296414 -0.00468966 -0.99955 
-0.032725 -0.006308 -0.999444 
-0.0347015 -0.0106956 -0.99934 
-0.0335533 -0.0210195 -0.999216 
-0.0363756 -0.0300919 -0.998885 
-0.0304283 -0.035799 -0.998896 
-0.0199675 -0.029651 -0.999361 
-0.00051285 -0.000251691 -1 
0.000621577 -0.000169487 1 
0.0193165 -0.0345597 0.999216 
0.0220207 -0.0424909 0.998854 
0.0297621 -0.0335236 0.998995 
0.0280839 -0.0196517 0.999412 
0.0299387 -0.011702 0.999483 
0.0199361 -0.00624783 0.999782 
0.0148496 -0.00634525 0.99987 
0.0125406 -0.00748803 0.999893 
0.0100106 -0.00822168 0.999916 
0.0120654 -0.00838075 0.999892 
0.0192114 -0.0063892 0.999795 
0.0120863 -0.00344754 0.999921 
0.00541311 0.00148164 0.999984 
0.00653487 0.0095663 0.999933 
0.00323315 0.0192984 0.999809 
0.00421919 0.0274999 0.999613 
-0.00407194 0.0374626 0.99929 
-0.0182628 0.0501142 0.998577 
-0.0396066 0.0688061 0.996844 
-0.0605769 0.0887706 0.994208 
-0.0945986 0.11938 0.988332 
-0.116995 0.135514 0.983844 
-0.166197 0.170502 0.97124 
-0.231292 0.207608 0.950475 
-0.301576 0.237118 0.923486 
-0.344306 0.236418 0.908603 
-0.39121 0.230662 0.890926 
-0.498106 0.244896 0.831815 
-0.489494 0.205777 0.847379 
-0.465344 0.175141 0.867629 
-0.500156 0.159593 0.851102 
-0.29445 0.128808 0.946947 
-0.272128 0.161033 0.948691 
-0.239671 0.252511 0.937441 
-0.188342 0.416146 0.889578 
-0.115721 0.578787 0.807227 
-0.060624 0.782471 0.619729 
-0.0275181 0.940055 0.339912 
-0.0031819 0.999835 -0.0178679 
0.0273691 0.939738 -0.340798 
0.0569445 0.764191 -0.642471 
0.0843879 0.557092 -0.826152 
0.178459 0.422314 -0.888709 
0.250066 0.2072 -0.945799 
0.240452 0.14944 -0.959088 
0.355077 0.124077 -0.926566 
0.531509 0.140816 -0.835266 
0.499228 0.165237 -0.850569 
0.487232 0.193413 -0.851585 
0.485875 0.24052 -0.840283 
0.420509 0.247056 -0.873004 
0.3596 0.252245 -0.898366 
0.301242 0.244448 -0.921683 
0.227097 0.209459 -0.95108 
0.166152 0.171866 -0.971008 
0.119862 0.138453 -0.983089 
0.0810029 0.106903 -0.990964 
0.0602544 0.0893509 -0.994176 
0.038707 0.0685909 -0.996894 
0.0240035 0.0529379 -0.998309 
0.00614419 0.0350144 -0.999368 
-0.00228959 0.0229567 -0.999734 
-0.0104435 0.0132024 -0.999858 
-0.013596 0.00668522 -0.999885 
-0.0125581 0.00120596 -0.99992 
-0.00955209 -0.00319039 -0.999949 
-0.00560175 -0.00610769 -0.999966 
-0.010642 -0.00634679 -0.999923 
-0.0132087 -0.00498212 -0.9999 
-0.0160266 -0.00253011 -0.999868 
-0.0172025 -0.000536371 -0.999852 
-0.0240173 -0.00230171 -0.999709 
-0.0257129 -0.00597279 -0.999652 
-0.0332283 -0.0172121 -0.9993 
-0.0308326 -0.031513 -0.999028 
-0.0258899 -0.0368509 -0.998985 
-0.0169023 -0.0286341 -0.999447 
2.50022e-05 -2.10077e-05 -1 
-6.01783e-05 4.356e-06 1 
0.00811087 -0.0241964 0.999674 
0.010391 -0.0396025 0.999161 
0.0151047 -0.0308036 0.999411 
0.0120593 -0.0160933 0.999798 
0.0153784 -0.00720799 0.999856 
0.00441426 0.000511535 0.99999 
-0.0037399 0.000794032 0.999993 
-0.00525379 -0.00329354 0.999981 
-0.00734809 -0.00672065 0.99995 
-0.00632831 -0.00878849 0.999941 
-0.000517043 -0.0075363 0.999971 
-0.00489467 -0.00529318 0.999974 
-0.00700793 0.00183534 0.999974 
-0.00813238 0.0111787 0.999904 
-0.0132976 0.0226781 0.999654 
-0.0144813 0.0332941 0.999341 
-0.024303 0.0472122 0.998589 
-0.0416584 0.0669489 0.996886 
-0.0647083 0.093207 0.993542 
-0.0944703 0.125025 0.987646 
-0.13757 0.170556 0.975697 
-0.183083 0.20801 0.960839 
-0.252 0.259067 0.932406 
-0.339883 0.312304 0.887099 
-0.425604 0.349387 0.834739 
-0.45883 0.32418 0.827274 
-0.51423 0.308148 0.800382 
-0.61767 0.318939 0.718861 
-0.612871 0.260653 0.745955 
-0.630111 0.205986 0.748685 
-0.618611 0.161092 0.769005 
-0.454845 0.136631 0.880027 
-0.410467 0.137494 0.90145 
-0.367289 0.184204 0.911684 
-0.297344 0.279448 0.91296 
-0.299424 0.335933 0.893025 
-0.203651 0.516936 0.831447 
-0.10419 0.712452 0.693943 
-0.0127153 0.9955 0.0939033 
0.0614976 0.804427 -0.59086 
0.115102 0.601555 -0.790495 
0.190693 0.512989 -0.836946 
0.251737 0.275885 -0.92764 
0.375267 0.156151 -0.913669 
0.450646 0.12611 -0.88375 
0.513048 0.121644 -0.849697 
0.640438 0.170422 -0.748863 
0.635631 0.224043 -0.738768 
0.552763 0.236956 -0.79894 
0.579787 0.33506 -0.742685 
0.494689 0.323939 -0.806441 
0.458052 0.348873 -0.817604 
0.397136 0.347622 -0.849377 
0.315069 0.308342 -0.897584 
0.236926 0.25573 -0.937266 
0.174524 0.204213 -0.963244 
0.122386 0.15293 -0.980629 
0.0875776 0.118572 -0.989076 
0.0620402 0.0907623 -0.993938 
0.0421699 0.0665846 -0.996889 
0.023317 0.0431534 -0.998796 
0.0135887 0.0274196 -0.999532 
0.00539091 0.0144536 -0.999881 
0.00171683 0.0057635 -0.999982 
0.00407567 -0.000599376 -0.999992 
0.00781935 -0.00547357 -0.999954 
0.0113761 -0.00805862 -0.999903 
0.00873235 -0.00692474 -0.999938 
0.00489397 -0.00408673 -0.99998 
0.00262504 0.000586793 -0.999996 
0.00265356 0.00447965 -0.999986 
-0.00652129 0.00287841 -0.999975 
-0.011744 -0.00237585 -0.999928 
-0.0208417 -0.0166974 -0.999643 
-0.0184358 -0.0315225 -0.999333 
-0.0159821 -0.0360204 -0.999223 
-0.00999453 -0.0253625 -0.999628 
-0.000150616 -5.61018e-05 -1 
0.000249608 -2.72223e-05 1 
0.00257861 -0.0161417 0.999866 
0.00192025 -0.0307421 0.999526 
0.00381318 -0.0358788 0.999349 
0.00105425 -0.0204656 0.99979 
-0.000688813 -0.00400291 0.999992 
-0.00512652 0.00497642 0.999974 
-0.0117892 0.00778779 0.9999 
-0.0168552 0.00316407 0.999853 
-0.0185845 -0.00293854 0.999823 
-0.018267 -0.00817508 0.9998 
-0.0150152 -0.00999681 0.999837 
-0.0160482 -0.00907771 0.99983 
-0.0140504 -0.0034649 0.999895 
-0.0154651 0.00616787 0.999861 
-0.0181836 0.0183469 0.999666 
-0.0253659 0.0368587 0.998999 
-0.034727 0.0535493 0.997961 
-0.050775 0.0773756 0.995708 
-0.073483 0.110241 0.991185 
-0.100894 0.145961 0.984132 
-0.143069 0.20094 0.9691 
-0.197063 0.261425 0.944893 
-0.262038 0.317435 0.911357 
-0.34955 0.382048 0.855485 
-0.445695 0.446347 0.775971 
-0.522255 0.457093 0.719941 
-0.568369 0.419276 0.707929 
-0.619874 0.386726 0.682787 
-0.714234 0.365155 0.597103 
-0.711158 0.313935 0.629046 
-0.649234 0.242333 0.720951 
-0.702228 0.200344 0.683182 
-0.569672 0.139295 0.809982 
-0.513163 0.144712 0.846004 
-0.435054 0.213047 0.874837 
-0.435255 0.255492 0.863294 
-0.27946 0.472665 0.835757 
-0.040258 0.90325 0.427222 
-0.000715569 0.996019 -0.089133 
0.045808 0.880562 -0.471712 
0.207931 0.581384 -0.786611 
0.291449 0.331479 -0.897318 
0.389008 0.190979 -0.901221 
0.553204 0.127982 -0.823156 
0.669754 0.115293 -0.733578 
0.647969 0.134182 -0.749754 
0.679045 0.208288 -0.703927 
0.667766 0.288088 -0.686362 
0.644377 0.330821 -0.689446 
0.678201 0.442016 -0.587082 
0.597872 0.428951 -0.677163 
0.553676 0.46347 -0.691837 
0.472592 0.453153 -0.75585 
0.380274 0.413467 -0.827307 
0.293549 0.353552 -0.888161 
0.218802 0.28947 -0.931844 
0.157081 0.214578 -0.963992 
0.113681 0.161779 -0.980257 
0.0828871 0.124028 -0.988811 
0.0585027 0.0906481 -0.994163 
0.0374273 0.0583022 -0.997597 
0.0252998 0.0369905 -0.998995 
0.0171123 0.019286 -0.999668 
0.0130534 0.00682439 -0.999892 
0.0138761 -0.00140821 -0.999903 
0.0164398 -0.00749396 -0.999837 
0.0186428 -0.0100447 -0.999776 
0.0188717 -0.00746883 -0.999794 
0.0169809 -0.00220916 -0.999853 
0.0167 0.00384931 -0.999853 
0.0132901 0.00929374 -0.999868 
0.0046669 0.00789649 -0.999958 
-3.71861e-05 0.00308289 -0.999995 
-0.00894581 -0.0123934 -0.999883 
-0.00807927 -0.0264403 -0.999618 
-0.00769896 -0.0348101 -0.999364 
-0.00535112 -0.0270371 -0.99962 
3.90955e-05 -1.50365e-05 -1 
-5.45757e-05 -0.000117283 1 
-0.00257109 -0.0246726 0.999692 
-0.0030305 -0.0341659 0.999412 
-0.00622635 -0.0193205 0.999794 
-0.0080467 -0.00269943 0.999964 
-0.014005 0.011898 0.999831 
-0.0168951 0.0150287 0.999744 
-0.0200726 0.0111548 0.999736 
-0.0218059 0.00292946 0.999758 
-0.021874 -0.00518615 0.999747 
-0.0211594 -0.0109859 0.999716 
-0.01945 -0.0122499 0.999736 
-0.0178842 -0.00916652 0.999798 
-0.0169228 -0.00181687 0.999855 
-0.0173827 0.00933007 0.999805 
-0.0223771 0.0280375 0.999356 
-0.0315196 0.0507726 0.998213 
-0.0443268 0.0742075 0.996257 
-0.0630561 0.108196 0.992128 
-0.0898449 0.155479 0.983745 
-0.123932 0.206789 0.970505 
-0.176913 0.286618 0.941569 
-0.241833 0.363639 0.899602 
-0.325023 0.434589 0.839936 
-0.416785 0.518351 0.746728 
-0.51129 0.56442 0.648084 
-0.591721 0.546981 0.59218 
-0.637839 0.502822 0.583379 
-0.701862 0.572788 0.423442 
-0.699887 0.488506 0.521076 
-0.804342 0.365372 0.468548 
-0.764854 0.296912 0.571701 
-0.786519 0.26256 0.558973 
-0.733607 0.169579 0.658076 
-0.67305 0.13398 0.727361 
-0.556479 0.171109 0.813052 
-0.542821 0.211676 0.812735 
-0.407425 0.275777 0.870604 
-0.102351 0.76652 0.634013 
-0.0166863 0.96631 0.256839 
0.116726 0.679746 -0.7241 
0.31283 0.393245 -0.864578 
0.417836 0.215349 -0.882631 
0.553951 0.146407 -0.819575 
0.786185 0.114143 -0.607359 
0.757745 0.156579 -0.633487 
0.811069 0.243989 -0.531636 
0.748609 0.305079 -0.588652 
0.728903 0.387333 -0.564512 
0.741391 0.497565 -0.450297 
0.664263 0.537405 -0.519568 
0.5991 0.566846 -0.565478 
0.522221 0.553996 -0.648362 
0.448181 0.542101 -0.710817 
0.366525 0.480762 -0.796572 
0.284033 0.416851 -0.863458 
0.212096 0.339562 -0.916359 
0.158467 0.25921 -0.952732 
0.116066 0.193569 -0.974197 
0.0844077 0.146722 -0.98557 
0.0583781 0.102296 -0.99304 
0.0401867 0.0693629 -0.996782 
0.0272141 0.0413071 -0.998776 
0.020046 0.0205002 -0.999589 
0.0170768 0.00692813 -0.99983 
0.0168949 -0.00333858 -0.999852 
0.0179718 -0.00991945 -0.999789 
0.0191284 -0.0123557 -0.999741 
0.0212766 -0.00966202 -0.999727 
0.0218944 -0.00310821 -0.999755 
0.0207987 0.00527118 -0.99977 
0.0176721 0.0133497 -0.999755 
0.0119999 0.0142391 -0.999827 
0.00699023 0.00993265 -0.999926 
-0.000335722 -0.006512 -0.999979 
-0.00182201 -0.0220302 -0.999756 
-0.00325496 -0.0325003 -0.999466 
-0.00119108 -0.0237065 -0.999718 
3.35872e-05 1.6008e-05 -1 
-0.000279406 -2.98194e-05 1 
-0.00592963 -0.0247204 0.999677 
-0.00805325 -0.0288577 0.999551 
-0.0111742 -0.0135569 0.999846 
-0.0126122 0.00219387 0.999918 
-0.0165243 0.0178363 0.999704 
-0.018625 0.0213182 0.999599 
-0.0196237 0.0160061 0.999679 
-0.0189744 0.00539042 0.999805 
-0.0177121 -0.00519613 0.99983 
-0.0176138 -0.0116239 0.999777 
-0.0149158 -0.0138826 0.999792 
-0.0141977 -0.0108916 0.99984 
-0.0144522 -0.00366912 0.999889 
-0.0141059 0.00823146 0.999867 
-0.0188734 0.0265234 0.99947 
-0.0263335 0.0538658 0.998201 
-0.0399238 0.0864919 0.995452 
-0.0574354 0.124802 0.990518 
-0.0821071 0.17735 0.980717 
-0.118868 0.247006 0.961696 
-0.164623 0.324377 0.931493 
-0.226746 0.428396 0.874679 
-0.294654 0.491957 0.819242 
-0.370093 0.575781 0.729046 
-0.435192 0.664307 0.607704 
-0.494136 0.647633 0.580001 
-0.580964 0.642526 0.499641 
-0.635676 0.649728 0.416856 
-0.676196 0.624659 0.39059 
-0.763609 0.558645 0.323755 
-0.711206 0.426956 0.558476 
-0.850351 0.349318 0.393548 
-0.817048 0.230593 0.528449 
-0.71371 0.13834 0.686644 
-0.685612 0.157929 0.710629 
-0.557564 0.225986 0.798782 
-0.385345 0.288022 0.876671 
-0.0192232 0.881004 0.472717 
-0.00247721 0.990933 -0.134332 
0.0735788 0.748603 -0.658923 
0.484135 0.177558 -0.856789 
0.579447 0.157462 -0.799655 
0.734777 0.117386 -0.668075 
0.797988 0.197344 -0.569447 
0.872237 0.298058 -0.387769 
0.763046 0.264086 -0.589931 
0.787327 0.384283 -0.482124 
0.785059 0.575132 -0.230011 
0.732045 0.570872 -0.371774 
0.666694 0.643705 -0.375717 
0.60089 0.661139 -0.44925 
0.525006 0.650854 -0.548414 
0.457762 0.659687 -0.596043 
0.376626 0.580583 -0.721856 
0.298663 0.519884 -0.800326 
0.226622 0.433842 -0.872023 
0.163135 0.332459 -0.928902 
0.121043 0.248405 -0.961064 
0.0869051 0.186888 -0.97853 
0.0604772 0.131046 -0.98953 
0.0400523 0.0887129 -0.995252 
0.0259392 0.0531222 -0.998251 
0.017549 0.0256733 -0.999516 
0.0142599 0.00805356 -0.999866 
0.0138868 -0.00354229 -0.999897 
0.0135461 -0.0106961 -0.999851 
0.0144368 -0.0137244 -0.999802 
0.0172946 -0.01042 -0.999796 
0.0192178 -0.00340369 -0.99981 
0.0182817 0.00654896 -0.999811 
0.0161191 0.0154975 -0.99975 
0.0132171 0.0193083 -0.999726 
0.0086687 0.0156944 -0.999839 
0.00387479 -0.00072089 -0.999992 
0.00156533 -0.0173841 -0.999848 
-0.000151299 -0.0284023 -0.999597 
0.00114394 -0.0213857 -0.999771 
2.91311e-05 2.93031e-05 -1 
0.000194226 1.14715e-05 1 
-0.00462871 -0.020231 0.999785 
-0.0103047 -0.024036 0.999658 
-0.0126641 -0.00719545 0.999894 
-0.0142521 0.0105192 0.999843 
-0.0142352 0.0234499 0.999624 
-0.0141589 0.025214 0.999582 
-0.0140263 0.0184654 0.999731 
-0.0124088 0.00782287 0.999892 
-0.0106548 -0.00391828 0.999936 
-0.00973558 -0.01224 0.999878 
-0.00737409 -0.0144617 0.999868 
-0.00669229 -0.0107193 0.99992 
-0.00788116 -0.00283807 0.999965 
-0.00856189 0.0114095 0.999898 
-0.0134713 0.0318166 0.999403 
-0.0197119 0.0623327 0.997861 
-0.0325749 0.101083 0.994345 