# vtk DataFile Version 3.0 
Exported using Morpho https://github.com/Morpho-lang/morpho 
ASCII 
DATASET UNSTRUCTURED_GRID 

POINTS 1978 float 
-12.0004 -4.00039 2.83307e-09 
-11.6362 -3.99997 8.47421e-07 
-11.2796 -4.00001 1.00753e-06 
-10.9977 -3.99999 2.71541e-07 
-10.698 -3.99999 1.89986e-07 
-10.3803 -3.99999 6.42194e-07 
-10.0386 -4 1.65705e-07 
-9.70575 -4 -2.4102e-07 
-9.35938 -3.99999 -1.14893e-07 
-9.01324 -3.99999 1.15535e-07 
-8.67409 -3.99999 2.64853e-07 
-8.34215 -4 1.66971e-07 
-8.04957 -3.99999 2.13332e-08 
-7.74669 -3.99999 1.86569e-07 
-7.45721 -4 1.37609e-07 
-7.15804 -4 6.97376e-08 
-6.85098 -4 1.91578e-09 
-6.54949 -3.99999 -7.7139e-08 
-6.24776 -4 -5.99511e-08 
-5.9885 -4 -1.19091e-07 
-5.7154 -3.99999 -2.01556e-07 
-5.44244 -4 -2.71737e-07 
-5.16327 -3.99999 -3.74651e-07 
-4.85009 -3.99999 -4.71401e-07 
-4.52232 -4 -5.18022e-07 
-4.17722 -3.99999 -7.68348e-07 
-3.82745 -4.00001 -1.38749e-06 
-3.47939 -3.99997 -6.03959e-07 
-3.10291 -3.99999 -7.40775e-07 
-2.86786 -4.00001 -1.30226e-06 
-2.55665 -3.99999 -1.08753e-06 
-2.23076 -4 -3.23344e-06 
-1.87385 -3.99996 -1.05361e-06 
-1.63895 -3.99999 6.56548e-07 
-1.42222 -4 -7.89326e-07 
-1.10909 -4 -4.21799e-06 
-0.869354 -3.99997 1.40936e-06 
-0.657687 -4.00004 7.90956e-07 
-0.452168 -3.99998 -8.27747e-06 
0.0711551 -3.99999 4.75555e-06 
0.362887 -4.00001 1.22982e-06 
0.594443 -4.00005 -3.65093e-06 
0.832812 -3.99996 1.16865e-06 
1.0845 -4.00003 6.24137e-07 
1.33606 -3.99996 1.39678e-06 
1.62463 -3.99999 -4.69548e-07 
1.89105 -4.00001 1.4037e-06 
2.19053 -3.99999 8.19712e-07 
2.42401 -4 1.2605e-06 
2.83399 -3.99999 1.49826e-06 
3.12691 -3.99999 1.0049e-06 
3.51544 -3.99999 1.05301e-06 
3.8506 -3.99999 9.22623e-07 
4.23101 -3.99999 3.86495e-07 
4.55078 -4.00001 5.58853e-07 
4.85403 -3.99999 5.24979e-07 
5.14733 -4 4.0102e-07 
5.41166 -4 3.45049e-07 
5.68137 -4 1.33751e-07 
5.95531 -3.99999 1.37977e-07 
6.23744 -3.99999 1.12827e-07 
6.51874 -4 8.56022e-08 
6.8272 -4 2.61532e-08 
7.10673 -4 -2.30567e-08 
7.42363 -4 -1.29048e-07 
7.75976 -4 -1.90535e-07 
8.0583 -4 -1.13898e-07 
8.39887 -4 -2.18223e-07 
8.69274 -3.99999 -1.53734e-07 
8.98765 -3.99999 -9.42875e-08 
9.2993 -4 2.29131e-07 
9.63074 -4 2.12908e-07 
9.94881 -4 -3.58962e-09 
10.3046 -3.99999 -5.37926e-07 
10.6224 -3.99999 -3.61604e-07 
10.9744 -3.99999 -2.13664e-07 
11.2884 -3.99999 -9.30851e-07 
11.6434 -3.99998 -9.68562e-07 
12.0004 -4.00041 1.82218e-07 
-12 -3.72753 -8.56553e-07 
-11.6236 -3.69089 6.94167e-16 
-11.3249 -3.66251 -9.23018e-17 
-11.0296 -3.62145 8.19035e-17 
-10.7273 -3.63867 1.63818e-16 
-10.4136 -3.65684 2.24071e-16 
-10.0856 -3.68242 3.53245e-16 
-9.73916 -3.67088 5.68353e-17 
-9.40874 -3.6803 -1.21783e-16 
-9.08376 -3.69122 -8.77158e-17 
-8.75259 -3.69118 -1.28424e-16 
-8.42178 -3.68667 -8.44061e-17 
-8.1038 -3.64702 -4.79082e-17 
-7.80036 -3.65455 1.51156e-17 
-7.49201 -3.62861 3.13318e-17 
-7.19745 -3.64043 1.88241e-17 
-6.89954 -3.65732 -3.55413e-17 
-6.59894 -3.67291 -7.31585e-17 
-6.29991 -3.69686 -2.09778e-17 
-6.00875 -3.66656 -8.62351e-17 
-5.73186 -3.68131 -9.68686e-17 
-5.42809 -3.66453 -1.99253e-17 
-5.10581 -3.67044 1.81404e-16 
-4.76005 -3.63978 6.37743e-17 
-4.40141 -3.61401 2.59348e-16 
-4.00774 -3.5949 -9.56916e-16 
-3.65509 -3.59697 -1.14315e-15 
-3.26219 -3.6424 -4.5877e-16 
-2.93811 -3.53875 6.0331e-15 
-2.68472 -3.66261 -1.08532e-14 
-2.40222 -3.70492 -8.20443e-15 
-2.02465 -3.81736 -1.27204e-15 
-1.89269 -3.60073 -2.04284e-14 
-1.69754 -3.74203 7.59253e-15 
-1.30957 -3.84891 -1.42819e-15 
-1.0511 -3.83719 3.85193e-15 
-0.790919 -3.83213 -8.52184e-15 
-0.562531 -3.84257 -9.5831e-16 
-0.265249 -3.93213 1.78157e-14 
-0.056376 -3.87804 -2.80906e-14 
0.280497 -3.88546 -2.1868e-14 
0.620176 -3.84038 -1.31654e-14 
0.883827 -3.8305 -1.28086e-15 
1.13292 -3.81737 -2.02105e-15 
1.43167 -3.82906 -3.8869e-15 
1.70737 -3.80685 3.44761e-15 
1.98895 -3.78398 -5.6763e-16 
2.20892 -3.65125 3.41283e-15 
2.50454 -3.75106 2.82975e-15 
2.78616 -3.65609 -4.90163e-16 
3.1055 -3.56502 1.85529e-15 
3.44125 -3.59819 7.96317e-16 
3.818 -3.55877 2.33384e-16 
4.18604 -3.63645 -7.01918e-16 
4.57038 -3.62614 2.37394e-16 
4.91707 -3.65662 2.11591e-16 
5.22389 -3.65291 2.08539e-17 
5.5163 -3.67487 -1.06388e-16 
5.80557 -3.6771 3.67215e-17 
6.0932 -3.67143 1.21365e-16 
6.37908 -3.65897 1.20697e-16 
6.66347 -3.6775 8.89785e-17 
6.94067 -3.63257 1.93834e-17 
7.22919 -3.66937 -4.17144e-17 
7.53308 -3.68652 -1.36522e-17 
7.82895 -3.64819 -2.88625e-17 
8.13433 -3.6882 1.53554e-17 
8.42936 -3.64841 6.73462e-17 
8.72877 -3.65923 1.07843e-16 
9.04476 -3.68541 6.78247e-17 
9.36955 -3.69645 8.02031e-17 
9.69404 -3.6731 -6.80664e-17 
10.0405 -3.70725 -3.26976e-16 
10.3755 -3.67155 -3.31078e-16 
10.7063 -3.69397 -3.26341e-16 
11.0237 -3.64648 2.05767e-18 
11.3538 -3.68302 1.11983e-16 
11.6858 -3.69079 4.50816e-16 
12 -3.68355 1.05028e-06 
-12 -3.44443 -3.74287e-07 
-11.7295 -3.34236 -5.89487e-18 
-11.3894 -3.31417 5.63721e-16 
-11.0268 -3.29265 4.48689e-16 
-10.6799 -3.30439 4.61354e-16 
-10.3331 -3.33145 2.76208e-16 
-9.99804 -3.36136 7.921e-17 
-9.66896 -3.34007 -5.47642e-17 
-9.35841 -3.34358 2.38748e-17 
-9.05327 -3.36628 9.00169e-17 
-8.76437 -3.33404 1.82292e-16 
-8.47481 -3.36623 2.03746e-16 
-8.16525 -3.32331 2.07739e-16 
-7.84891 -3.31216 1.88351e-16 
-7.53975 -3.29002 1.58637e-16 
-7.22291 -3.28104 6.58656e-17 
-6.92713 -3.30511 -2.5351e-17 
-6.63289 -3.33635 -1.95087e-16 
-6.3415 -3.37459 -3.4245e-16 
-6.05923 -3.34944 -5.68763e-16 
-5.77787 -3.34791 -7.23484e-16 
-5.49683 -3.35348 -9.18524e-16 
-5.18115 -3.3394 -1.35728e-15 
-4.85605 -3.3026 -1.65893e-15 
-4.49708 -3.24374 -2.58217e-15 
-4.1356 -3.26113 -3.14618e-15 
-3.76833 -3.18278 -2.01677e-15 
-3.45582 -3.28309 -4.46773e-15 
-3.13977 -3.25852 -9.46222e-15 
-2.82735 -3.22721 -1.39686e-14 
-2.56236 -3.34818 4.12357e-15 
-2.20702 -3.60394 -4.08011e-15 
-2.06332 -3.3984 5.0689e-16 
-1.65389 -3.46789 -1.39548e-14 
-1.50422 -3.70037 -1.46243e-14 
-1.20536 -3.68209 4.28486e-15 
-0.911345 -3.70108 -1.19143e-15 
-0.617865 -3.66889 -1.74432e-15 
-0.359974 -3.78209 5.60769e-15 
0.135896 -3.77385 1.82714e-14 
0.4074 -3.74998 2.11119e-14 
0.657102 -3.68127 6.47375e-17 
0.87562 -3.64164 -6.9057e-15 
1.21344 -3.67645 3.62587e-15 
1.51243 -3.63998 4.30779e-15 
1.78252 -3.59639 8.21036e-15 
2.00374 -3.47757 3.6925e-15 
2.25499 -3.33635 1.00821e-14 
2.48022 -3.43687 7.36315e-15 
2.78615 -3.34355 5.85217e-15 
3.09774 -3.21517 4.83962e-15 
3.42393 -3.21867 4.47668e-15 
3.77315 -3.1773 4.52171e-15 
4.12735 -3.23707 3.85425e-15 
4.47784 -3.28189 2.79975e-15 
4.83476 -3.31451 1.89296e-15 
5.15437 -3.31372 1.32698e-15 
5.45468 -3.33754 8.42403e-16 
5.73925 -3.35017 7.47549e-16 
6.02461 -3.34441 4.78549e-16 
6.3169 -3.33236 3.22185e-16 
6.61286 -3.33195 1.77148e-16 
6.92221 -3.31614 1.99794e-17 
7.24137 -3.32607 -1.13843e-16 
7.541 -3.34566 -1.84161e-16 
7.84163 -3.30184 -2.35842e-16 
8.13482 -3.3427 -1.85945e-16 
8.43376 -3.30765 -1.86364e-16 
8.74648 -3.3227 -1.12902e-16 
9.05625 -3.37118 -7.17151e-17 
9.37887 -3.37667 5.63692e-17 
9.68659 -3.32848 1.37064e-16 
10.0044 -3.394 -3.71217e-17 
10.3409 -3.36183 -2.71555e-16 
10.6942 -3.36516 -2.69149e-16 
11.0384 -3.31805 -4.45033e-16 
11.3719 -3.35416 -6.36781e-16 
11.6844 -3.35082 -4.84446e-16 
12 -3.35842 4.46044e-07 
-12 -2.99478 -5.59868e-07 
-11.6562 -3.01421 7.73808e-18 
-11.3035 -2.99514 -2.27836e-16 
-10.9714 -2.9604 1.50177e-18 
-10.6301 -2.96843 1.741e-16 
-10.3021 -3.00313 1.58426e-16 
-9.96967 -3.02909 1.30568e-16 
-9.64975 -2.99616 -1.90903e-17 
-9.33794 -2.99459 -1.32831e-17 
-9.0364 -3.0167 7.7176e-17 
-8.73573 -2.98287 2.47788e-17 
-8.44057 -3.01759 2.7028e-17 
-8.13212 -2.98703 5.1965e-17 
-7.81709 -2.97489 6.23988e-17 
-7.48969 -2.96388 4.35972e-17 
-7.18137 -2.93999 -9.72855e-18 
-6.87904 -2.97706 -7.41897e-17 
-6.58252 -3.01519 -1.1031e-16 
-6.30455 -3.03977 -1.59905e-16 
-6.02519 -3.01355 -7.77742e-17 
-5.74973 -3.00578 -1.12062e-16 
-5.44751 -3.02129 -2.25534e-16 
-5.14034 -2.97724 -3.81781e-16 
-4.78759 -2.95095 -7.68076e-16 
-4.41545 -2.88956 -1.4079e-15 
-4.07582 -2.92702 -2.09286e-15 
-3.73591 -2.85141 -1.64324e-15 
-3.44804 -2.93963 -3.78624e-15 
-3.1752 -2.96621 -4.8322e-15 
-2.93248 -2.93245 -2.34364e-15 
-2.6462 -3.04007 -5.68529e-15 
-2.31666 -3.31392 -9.49246e-15 
-2.09786 -3.16435 -5.82123e-16 
-1.8342 -3.33215 -7.48136e-15 
-1.45798 -3.41112 -9.26846e-15 
-1.29604 -3.52667 -8.74324e-15 
-0.947302 -3.54584 -1.26141e-14 
-0.734817 -3.54607 -3.2995e-14 
-0.426016 -3.64119 -1.8162e-14 
-0.120806 -3.74426 -6.44754e-15 
0.229848 -3.62059 4.75982e-15 
0.567455 -3.54324 6.74391e-15 
0.767944 -3.47042 -9.91027e-15 
1.1074 -3.53312 -2.90691e-16 
1.39049 -3.49203 1.26851e-14 
1.70979 -3.39047 -1.52044e-15 
1.9821 -3.25922 1.01421e-14 
2.29121 -3.11709 7.38231e-15 
2.56648 -3.14014 9.24998e-15 
2.85093 -3.04741 2.86584e-15 
3.17169 -2.90937 5.06018e-15 
3.48366 -2.91296 4.14688e-15 
3.77804 -2.8281 1.93682e-15 
4.08602 -2.87097 3.12601e-15 
4.42492 -2.90789 2.03468e-15 
4.76998 -2.96932 8.74788e-16 
5.1119 -2.97211 3.26037e-16 
5.42622 -2.99791 6.77624e-17 
5.72777 -3.00494 1.13864e-16 
6.03172 -3.01412 1.52545e-16 
6.32428 -3.00248 1.29665e-16 
6.61896 -3.00687 7.12667e-17 
6.91682 -2.98614 2.86531e-17 
7.21661 -3.00759 -1.35953e-17 
7.52935 -3.00545 -4.81532e-17 
7.83817 -2.96305 -4.47861e-17 
8.14155 -2.98337 -1.48763e-17 
8.44481 -2.95446 9.08321e-18 
8.74572 -2.99386 -1.74574e-17 
9.07604 -3.04384 -4.98349e-17 
9.37972 -3.02602 1.6372e-17 
9.69482 -2.98723 3.24351e-17 
10.0245 -3.05961 -1.38513e-16 
10.3545 -3.02299 -2.31135e-16 
10.6804 -3.05367 -1.17609e-16 
10.9959 -2.96863 -1.22886e-16 
11.3342 -3.01959 4.39251e-19 
11.676 -3.00548 -6.25961e-17 
12 -3.02543 5.50702e-07 
-12 -2.66283 -6.90004e-08 
-11.6567 -2.69714 5.59278e-17 
-11.3363 -2.65102 -3.50708e-16 
-10.9898 -2.63277 -1.1066e-16 
-10.6497 -2.64239 5.65455e-17 
-10.2953 -2.65537 1.23648e-16 
-9.97402 -2.68781 1.0307e-16 
-9.647 -2.65724 1.84189e-17 
-9.33378 -2.64961 4.95968e-17 
-9.02625 -2.66887 2.17436e-17 
[...]
POINT_DATA 1978 
VECTORS vectors float
0.019006 -0.0148028 0.999747 
0.0182683 -0.0314488 0.999302 
0.0168917 -0.029345 0.99941 
0.0189531 -0.0121535 0.999743 
0.0184553 0.00244709 0.999816 
0.0180571 0.00882489 0.999775 
0.0189314 0.00975394 0.999752 
0.0195892 0.00396394 0.999775 
0.019105 -0.00468622 0.999777 
0.019167 -0.0103668 0.999736 
0.018349 -0.012523 0.999727 
0.0184997 -0.01206 0.99974 
0.0188977 -0.0103253 0.999761 
0.0188135 -0.00809201 0.999786 
0.0189383 -0.00611152 0.999798 
0.0183604 -0.00443239 0.999812 
0.0182076 -0.00295234 0.999819 
0.017863 -0.00115366 0.999827 
0.0184924 0.00128327 0.999825 
0.0198194 0.00523542 0.999797 
0.018904 0.0110058 0.999765 
0.0175299 0.0192334 0.999655 
0.0169361 0.0294091 0.999416 
0.0165717 0.0415428 0.998987 
0.0166362 0.0546296 0.998353 
0.0159021 0.0686705 0.99749 
0.0147781 0.0841229 0.996318 
0.0147897 0.0995597 0.99491 
0.0137819 0.114914 0.993277 
0.0131144 0.127686 0.991729 
0.0128705 0.14677 0.989085 
0.00870462 0.176566 0.984234 
0.00808194 0.234974 0.971967 
0.00931367 0.300079 0.953877 
0.00497647 0.358121 0.93367 
0.00185332 0.504939 0.86316 
0.000149203 0.636112 0.771602 
-0.00211016 0.765894 0.642967 
0.00101341 0.879054 0.476745 
-0.00174475 0.995245 -0.0974745 
0.00280795 0.905924 -0.423432 
0.00305638 0.782428 -0.622738 
0.000839633 0.637942 -0.770088 
-0.00171115 0.500238 -0.865892 
-0.00547155 0.387272 -0.921956 
-0.00676592 0.297459 -0.954715 
-0.00762432 0.235186 -0.971919 
-0.0103837 0.185917 -0.982513 
-0.0114363 0.160514 -0.986961 
-0.0118997 0.131518 -0.991229 
-0.0140345 0.116262 -0.993107 
-0.0142754 0.0972866 -0.995133 
-0.015589 0.0806303 -0.996603 
-0.01605 0.0646854 -0.997759 
-0.0157957 0.0519058 -0.998504 
-0.0170558 0.0395943 -0.999064 
-0.0184668 0.0287777 -0.99942 
-0.0187534 0.019967 -0.999631 
-0.0183953 0.0122482 -0.999758 
-0.0184068 0.00616531 -0.999811 
-0.0188002 0.00106498 -0.999823 
-0.0183185 -0.00239128 -0.999822 
-0.0185886 -0.00494192 -0.999807 
-0.0188699 -0.00643967 -0.999792 
-0.0178458 -0.0072826 -0.999792 
-0.0185482 -0.00843575 -0.999775 
-0.0180694 -0.00975234 -0.999769 
-0.0181214 -0.0110178 -0.999756 
-0.0194244 -0.0116029 -0.999737 
-0.0194745 -0.0101238 -0.999751 
-0.0187134 -0.00502061 -0.999792 
-0.0190672 0.00348173 -0.99979 
-0.0188762 0.0107623 -0.999741 
-0.0185657 0.0117763 -0.999735 
-0.0184207 0.00577574 -0.999793 
-0.0182443 -0.0106876 -0.999756 
-0.0163406 -0.0298296 -0.999394 
-0.0190463 -0.0324745 -0.999262 
-0.0196239 -0.0161892 -0.999712 
-0.000460192 -0.0297227 0.999606 
0.0110392 -0.0259172 0.999629 
0.0168404 -0.0261115 0.999528 
0.0199326 -0.0167302 0.999678 
0.0206588 -0.00461329 0.999792 
0.0207982 0.00411775 0.999792 
0.019502 0.00729236 0.999801 
0.0200835 0.00366489 0.999809 
0.0192308 -0.00215064 0.999829 
0.0185674 -0.00700893 0.99982 
0.0173182 -0.00990519 0.999818 
0.0168169 -0.01079 0.999817 
0.0173107 -0.00999523 0.999816 
0.0170346 -0.00818959 0.999838 
0.0168949 -0.00593745 0.999855 
0.0163567 -0.00388923 0.999874 
0.0154342 -0.00184032 0.999896 
0.0140206 0.000478655 0.999918 
0.0123532 0.00334945 0.999935 
0.0110772 0.00837784 0.999919 
0.00889119 0.014299 0.999874 
0.00477321 0.0234397 0.999733 
0.000704194 0.0352001 0.999398 
-0.00568471 0.0497421 0.998766 
-0.0153163 0.0665328 0.997686 
-0.0273122 0.0845881 0.996062 
-0.0417979 0.101679 0.993961 
-0.0535134 0.118875 0.991488 
-0.0936902 0.142467 0.985377 
-0.0667849 0.148663 0.986644 
-0.0661389 0.167958 0.983587 
-0.0438982 0.21026 0.976673 
-0.0999428 0.229922 0.968078 
-0.0611682 0.270136 0.960896 
-0.0276658 0.404765 0.914012 
-0.0231601 0.522206 0.852511 
-0.0132271 0.674082 0.738553 
-0.00654747 0.818412 0.57462 
5.38391e-05 0.963407 0.267972 
0.00114979 0.996127 0.0878482 
0.00569255 0.938346 -0.34565 
0.0186868 0.762065 -0.647238 
0.0270003 0.602282 -0.797834 
0.0375304 0.468822 -0.882507 
0.0387513 0.353116 -0.934788 
0.0450699 0.280397 -0.958838 
0.0529859 0.219009 -0.974296 
0.0872752 0.191292 -0.977664 
0.052499 0.161351 -0.985513 
0.0697329 0.146842 -0.986713 
0.0742737 0.131562 -0.988545 
0.0521216 0.113408 -0.992199 
0.0390428 0.0943392 -0.994801 
0.0189721 0.0732101 -0.99716 
0.0087101 0.0557598 -0.998428 
0.000320102 0.0405607 -0.999194 
-0.00330727 0.0297181 -0.999568 
-0.00625813 0.0205717 -0.999786 
-0.00891531 0.0129776 -0.999892 
-0.0114608 0.00666113 -0.999929 
-0.0139096 0.00185375 -0.999917 
-0.0153948 -0.00179093 -0.999894 
-0.0163203 -0.00374616 -0.999877 
-0.0164377 -0.00564391 -0.999866 
-0.0168914 -0.00722954 -0.999845 
-0.0173831 -0.00841721 -0.999831 
-0.0169905 -0.00955849 -0.999824 
-0.0180219 -0.00977459 -0.999807 
-0.0188394 -0.00901731 -0.999796 
-0.0193754 -0.00653164 -0.999805 
-0.0192549 -0.00180137 -0.99983 
-0.0196307 0.00439089 -0.999817 
-0.0197313 0.00939883 -0.999779 
-0.0213471 0.00727105 -0.999761 
-0.0204566 -0.00149125 -0.999803 
-0.0191228 -0.015307 -0.999719 
-0.0162037 -0.0274677 -0.999506 
-0.00938628 -0.0249896 -0.999669 
-0.00221667 -0.0272285 -0.999678 
0.00440444 -0.0224266 0.999761 
0.00796049 -0.0193235 0.999804 
0.0189539 -0.0269444 0.999474 
0.0236248 -0.0193127 0.999548 
0.0254544 -0.00669597 0.999671 
0.0270577 0.00231032 0.999645 
0.0278488 0.00538869 0.999609 
0.0275894 0.003361 0.999627 
0.0259901 -0.000322773 0.999678 
0.0247868 -0.00432547 0.999693 
0.0231445 -0.00687713 0.99972 
0.0215348 -0.00903722 0.999741 
0.0201219 -0.0093436 0.999766 
0.0189035 -0.00809997 0.999802 
0.017458 -0.00572892 0.999845 
0.0159157 -0.00293481 0.999883 
0.0147669 -0.000181186 0.999903 
0.0139419 0.0027967 0.999912 
0.0123033 0.00661892 0.999915 
0.00898872 0.012537 0.999893 
0.00464372 0.0196038 0.99981 
-0.000223653 0.0281724 0.999616 
-0.00742889 0.0407062 0.999158 
-0.0183681 0.0565689 0.998246 
-0.0355548 0.0778286 0.99635 
-0.054216 0.0980395 0.993722 
-0.0940531 0.12903 0.987193 
-0.103322 0.137334 0.985138 
-0.140906 0.160024 0.977018 
-0.187696 0.181954 0.965243 
-0.180716 0.181053 0.96675 
-0.10514 0.189056 0.97634 
-0.187162 0.216127 0.958268 
-0.147361 0.279003 0.948931 
-0.0640895 0.328734 0.942257 
-0.0607367 0.442489 0.894725 
-0.0333279 0.594552 0.803376 
-0.01815 0.785908 0.618082 
-0.0017933 0.924518 0.381151 
0.00723317 0.981304 -0.192531 
0.020115 0.877118 -0.479885 
0.0420771 0.736156 -0.675504 
0.0630004 0.607408 -0.791901 
0.0722947 0.437145 -0.896493 
0.0905555 0.327463 -0.940526 
0.105983 0.259257 -0.959985 
0.150155 0.224109 -0.962941 
0.192354 0.20568 -0.959541 
0.142129 0.17991 -0.973377 
0.149312 0.167839 -0.974457 
0.156757 0.166667 -0.973485 
0.119552 0.145655 -0.982106 
0.0928057 0.12789 -0.987453 
0.0540212 0.0964433 -0.993891 
0.0306894 0.0733477 -0.996852 
0.0155309 0.0543136 -0.998419 
0.00762098 0.040778 -0.999153 
0.00151573 0.0298627 -0.999566 
-0.00381176 0.021094 -0.999781 
-0.00721646 0.0136374 -0.999894 
-0.0103389 0.00740924 -0.999932 
-0.0133439 0.00234554 -0.999923 
-0.015769 -0.00127132 -0.999888 
-0.0177309 -0.00431079 -0.999847 
-0.0190666 -0.00656791 -0.99981 
-0.0193881 -0.0081605 -0.999792 
-0.020119 -0.00898343 -0.99977 
-0.0207638 -0.00830064 -0.999763 
-0.0221459 -0.00629845 -0.999748 
-0.0244236 -0.00334983 -0.999709 
-0.0261005 0.000742103 -0.999672 
-0.0275813 0.00488081 -0.999622 
-0.0279093 0.00728443 -0.999596 
-0.0277583 0.00429394 -0.999622 
-0.0263885 -0.00583785 -0.999649 
-0.0249174 -0.0182466 -0.999537 
-0.0218213 -0.0267431 -0.99942 
-0.0117782 -0.0213146 -0.999725 
-0.00433482 -0.0225424 -0.999765 
0.00410262 -0.0242306 0.999727 
0.00958738 -0.0234019 0.999697 
0.0161596 -0.0298268 0.999438 
0.0179715 -0.0209171 0.999636 
0.020333 -0.00864264 0.999768 
0.0220362 0.000738862 0.999771 
0.0227806 0.00518208 0.999741 
0.0205798 0.00473071 0.999791 
0.0183309 0.00237206 0.999843 
0.0168815 -0.000859402 0.99987 
0.013617 -0.00451063 0.999913 
0.013082 -0.00764231 0.999896 
0.0107795 -0.00855917 0.999919 
0.00909623 -0.00750651 0.999944 
0.00693442 -0.00466111 0.999979 
0.00357809 -0.00101486 1.00001 
0.00275018 0.0028149 1.00001 
0.000643839 0.00743948 0.999985 
-0.00209855 0.0130839 0.999923 
-0.0082196 0.0210157 0.999759 
-0.0135747 0.0297633 0.999479 
-0.0192854 0.0408493 0.998994 
-0.0307076 0.0574592 0.997891 
-0.0467696 0.0796135 0.995745 
-0.0743705 0.109928 0.991172 
-0.101225 0.134828 0.985701 
-0.158206 0.177908 0.97126 
-0.184751 0.189107 0.964435 
-0.224288 0.206118 0.95249 
-0.289431 0.233986 0.928171 
-0.289022 0.221191 0.931434 
-0.208359 0.199683 0.957462 
-0.30227 0.227456 0.925698 
-0.213138 0.243465 0.946214 
-0.16131 0.331 0.92975 
-0.10828 0.40158 0.909412 
-0.0610431 0.581701 0.81112 
-0.0345793 0.698081 0.715193 
-0.0078903 0.877585 0.479476 
0.00229384 0.990632 0.13683 
0.0192632 0.959774 -0.28031 
0.0528667 0.792012 -0.608236 
0.0900967 0.662778 -0.74339 
0.106109 0.480403 -0.870619 
0.13356 0.364343 -0.921648 
0.185963 0.277429 -0.94259 
0.238393 0.236704 -0.941893 
0.290139 0.223355 -0.930565 
0.242592 0.202687 -0.948734 
0.244019 0.204907 -0.947889 
0.23958 0.212513 -0.947346 
0.181447 0.185637 -0.965735 
0.155046 0.174761 -0.972341 
0.105533 0.136603 -0.985006 
0.0681489 0.1024 -0.992424 
0.043413 0.0758062 -0.996194 
0.0304557 0.0570762 -0.997921 
0.0208223 0.0416386 -0.998928 
0.0141599 0.0301861 -0.99946 
0.00812942 0.0205785 -0.999769 
0.00392266 0.0130645 -0.99992 
-0.000155757 0.00663405 -0.999991 
-0.00286301 0.00178163 -1.00001 
-0.00672597 -0.00245599 -0.999988 
-0.00863527 -0.00572139 -0.99996 
-0.00840329 -0.00779498 -0.999948 
-0.00985838 -0.0083917 -0.99993 
-0.0100057 -0.00687279 -0.99994 
-0.0132226 -0.00383939 -0.999918 
-0.017483 0.000157783 -0.999863 
-0.0192747 0.00367644 -0.999821 
-0.020218 0.00624437 -0.999788 
-0.0236054 0.0065234 -0.999717 
-0.0231469 0.00157447 -0.999743 
-0.0228961 -0.0084439 -0.999717 
-0.0193555 -0.0195568 -0.999636 
-0.0176779 -0.02776 -0.999472 
-0.00951075 -0.021285 -0.99975 
-0.00329697 -0.0225521 -0.999769 
0.000806038 -0.024604 0.999723 
0.00584901 -0.024301 0.99971 
0.0078315 -0.0317955 0.999478 
0.00947686 -0.0239174 0.999681 
0.0108988 -0.0107437 0.999898 
0.0107912 0.00093722 0.999956 
0.0110189 0.00629689 0.999936 
0.00795959 0.00724367 0.999956 
0.00496538 0.00598627 0.999981 
0.00328749 0.00221708 1.00001 
-0.000345727 -0.00274444 1.00001 
-0.00152063 -0.00678066 0.999991 
-0.00337754 -0.00820069 0.999974 
-0.00482985 -0.00683217 0.999979 
-0.00798866 -0.00353657 0.999975 
-0.0116597 0.00107762 0.999943 
-0.0133919 0.0062718 0.999902 
-0.0162271 0.012408 0.999804 
-0.0210432 0.0201818 0.99959 
-0.0287202 0.0306365 0.999132 
-0.034715 0.0431448 0.998481 
-0.0457258 0.0617232 0.997062 
-0.0621255 0.088292 0.994173 
-0.0900038 0.124759 0.988113 
-0.134252 0.17124 0.976056 
-0.165527 0.193699 0.96701 
-0.240035 0.248471 0.938438 
-0.267943 0.252478 0.929775 
-0.31786 0.269384 0.909076 
-0.386579 0.293831 0.874207 
-0.376663 0.264619 0.88776 
-0.318901 0.2279 0.919992 
-0.390807 0.243122 0.887794 
-0.334527 0.248359 0.909079 
-0.266393 0.277085 0.923189 
-0.180278 0.390399 0.902834 
-0.10364 0.506996 0.855707 
-0.0183278 0.826566 0.562556 
0.0057965 0.985982 0.167134 
0.0131086 0.998476 -0.0536923 
0.0353491 0.876676 -0.479837 
0.0924442 0.749719 -0.655277 
0.136893 0.534545 -0.833987 
0.178365 0.401034 -0.89854 
0.212974 0.310303 -0.926484 
0.311665 0.256657 -0.914885 
0.365351 0.244271 -0.898256 
0.365355 0.24557 -0.8979 
0.346441 0.247448 -0.904856 
0.326658 0.252944 -0.910678 
0.313544 0.267351 -0.911171 
0.258565 0.245606 -0.934261 
0.214966 0.230092 -0.949139 
0.165815 0.194871 -0.966726 
0.116366 0.149065 -0.981976 
0.0773622 0.106928 -0.99127 
0.0551492 0.0776508 -0.995471 
0.0420308 0.0556051 -0.997586 
0.0326329 0.0394177 -0.998704 
0.0270704 0.0282658 -0.999248 
0.0216284 0.0187437 -0.999604 
0.0161546 0.0104937 -0.999825 
0.0135124 0.00449111 -0.999912 
0.00855446 -0.000706723 -0.999976 
0.00590789 -0.00471045 -0.999985 
0.00619332 -0.00723709 -0.999966 
0.00472189 -0.00781365 -0.999975 
0.00514667 -0.0057613 -0.999983 
0.00152044 -0.00181809 -1.00001 
-0.00415839 0.00248019 -1 
-0.0053041 0.00665838 -0.999978 
-0.0066914 0.00846638 -0.999958 
-0.0120442 0.00759561 -0.99991 
-0.0123812 0.00269576 -0.999935 
-0.0132524 -0.00929601 -0.999887 
-0.00996466 -0.0220788 -0.999721 
-0.00960653 -0.0308262 -0.999491 
-0.00610635 -0.0236324 -0.999722 
-0.00340327 -0.0241259 -0.999738 
0.00351933 -0.0224664 0.999769 
0.00302422 -0.021433 0.99979 
0.000918146 -0.0321508 0.999497 
0.00111734 -0.0302607 0.999556 
0.00102372 -0.0164354 0.999879 
0.00126677 -0.00300705 1.00001 
-0.000298394 0.00673229 0.999992 
-0.002228 0.0100634 0.999961 
-0.0061889 0.0102867 0.999942 
-0.00904143 0.00708512 0.999947 
-0.0111636 0.00134245 0.99995 
-0.0129879 -0.00485369 0.999917 
-0.0149119 -0.00771744 0.999872 
-0.0164559 -0.00724988 0.999852 
-0.0197223 -0.00396636 0.999811 
-0.0229707 0.00106202 0.999749 
-0.0265962 0.00779566 0.999628 
-0.0300331 0.0155861 0.999441 
-0.0350478 0.0249875 0.999086 
-0.0425173 0.0374172 0.998409 
-0.0490324 0.0526234 0.997425 
-0.0622225 0.0780086 0.995025 
-0.0781577 0.106182 0.991287 
-0.107173 0.1497 0.982922 
-0.14745 0.198252 0.969013 
-0.204901 0.254915 0.945021 
-0.233789 0.265151 0.935446 
-0.314663 0.333774 0.888593 
-0.346851 0.329353 0.8782 
-0.399489 0.34165 0.850706 
-0.468788 0.34189 0.814466 
-0.472244 0.30952 0.825345 
-0.422834 0.26695 0.866005 
-0.449055 0.252064 0.85722 
-0.403054 0.267805 0.875124 
-0.283667 0.31608 0.905341 
-0.149918 0.500537 0.852642 
-0.0585995 0.666047 0.743617 
-0.00285895 0.931205 0.364473 
0.0248514 0.977356 -0.210281 
0.0379189 0.893442 -0.447576 
0.15393 0.60449 -0.781598 
0.229688 0.418886 -0.878515 
0.27672 0.33048 -0.902343 
0.33068 0.288649 -0.898525 
0.428316 0.261953 -0.864834 
0.45461 0.27116 -0.84842 
0.458919 0.298614 -0.836803 
0.432386 0.309918 -0.846762 
0.397237 0.314881 -0.862019 
0.375478 0.333835 -0.864632 
0.302597 0.29909 -0.904984 
0.261522 0.291344 -0.920189 
0.201552 0.246707 -0.947912 
0.151931 0.200664 -0.967823 
0.108569 0.147172 -0.983152 
0.0792385 0.106578 -0.991156 
0.0612756 0.0766487 -0.995189 
0.0498569 0.0542468 -0.997298 
0.0430992 0.0390271 -0.998322 
0.0370473 0.0266158 -0.998975 
0.0309952 0.0161932 -0.999402 
0.0271609 0.00825265 -0.999608 
0.0224092 0.00145122 -0.999761 
0.0189578 -0.00340866 -0.99983 
0.0181091 -0.00681571 -0.999826 
0.016909 -0.00746375 -0.999842 
0.0162199 -0.00488444 -0.999871 
0.0139435 0.00089253 -0.999915 
0.00881284 0.00622056 -0.999955 
0.00811221 0.0108386 -0.999922 
0.00502484 0.0118852 -0.999932 
-0.000435763 0.00911301 -0.999972 
-0.00176483 0.00196241 -1.00001 
-0.00297724 -0.0113411 -0.999946 
-0.00107847 -0.0249709 -0.999702 
-0.00194197 -0.0319929 -0.999503 
-0.00292832 -0.0240966 -0.999728 
-0.00402154 -0.0242206 -0.999733 
0.00170539 -0.0242597 0.999744 
-0.000194379 -0.0233689 0.999753 
-0.00256281 -0.0345419 0.999414 
-0.00340711 -0.0236247 0.999729 
-0.00452708 -0.00759138 0.999975 
-0.00636852 0.00509236 0.999981 
-0.00949571 0.0133324 0.99988 
-0.0122635 0.0150768 0.999825 
-0.015367 0.0128294 0.999813 
-0.0178945 0.0069313 0.999829 
-0.0189765 -0.000634188 0.999833 
-0.0206136 -0.00617399 0.999782 
-0.0219766 -0.00795006 0.99974 
-0.0237203 -0.00632174 0.999711 
-0.0267555 -0.0016892 0.999653 
-0.030142 0.00485622 0.999547 
-0.0343851 0.0129619 0.999338 
-0.0389653 0.0224408 0.999 
-0.0441755 0.0342385 0.99845 
-0.0511541 0.0510345 0.997401 
-0.0603924 0.0729598 0.99552 
-0.076658 0.109623 0.991032 
-0.0985165 0.148982 0.983935 
-0.132722 0.204721 0.969798 
-0.181588 0.265932 0.946745 
-0.235833 0.327954 0.914794 
-0.276506 0.336419 0.900214 
-0.339769 0.40614 0.848306 
-0.389653 0.411244 0.824052 
-0.434469 0.416368 0.798677 
-0.470928 0.380892 0.795711 
-0.543604 0.380285 0.748254 
-0.556064 0.330384 0.762658 
-0.515762 0.286935 0.807258 
-0.532154 0.263805 0.804503 
-0.431291 0.288327 0.854908 
-0.265069 0.36038 0.89437 
-0.182902 0.520208 0.834211 
-0.0106369 0.890903 0.454047 
0.0154314 0.999745 0.0165657 
0.180337 0.649907 -0.738373 
0.260537 0.452875 -0.85266 
0.3339 0.349049 -0.875607 
0.413556 0.311824 -0.855422 
0.445593 0.280844 -0.85005 
0.517924 0.281269 -0.807869 
0.537448 0.316256 -0.781753 
0.526431 0.361549 -0.769526 
0.484301 0.369481 -0.793062 
0.455466 0.385277 -0.802571 
0.362678 0.368235 -0.856086 
0.349757 0.388886 -0.852318 
0.278633 0.347055 -0.895512 
0.21841 0.295688 -0.929993 
0.172808 0.256276 -0.951042 
0.125986 0.190433 -0.973597 
0.0915911 0.136624 -0.986399 
0.0699709 0.0953876 -0.992994 
0.0579157 0.0681607 -0.996007 
0.0501357 0.0480863 -0.997599 
0.0440456 0.0327331 -0.998505 
0.0379956 0.0201714 -0.99909 
0.0333643 0.0101933 -0.999404 
0.0295082 0.00287241 -0.999573 
0.025925 -0.00296916 -0.999673 
0.0245045 -0.00676428 -0.999688 
0.0229914 -0.00766046 -0.999722 
0.0221049 -0.00480927 -0.999755 
0.0204044 0.0014561 -0.999804 
0.0175426 0.00888297 -0.99982 
0.0158262 0.0149001 -0.99978 
0.0122696 0.0158959 -0.99981 
0.00733313 0.0113162 -0.999923 
0.00535831 0.00224805 -0.999998 
0.00385288 -0.0118027 -0.999938 
0.00390436 -0.025736 -0.999675 
0.0025378 -0.0336986 -0.999441 
0.000198507 -0.0236818 -0.999745 
-0.00221898 -0.0243936 -0.999737 
-0.00134304 -0.0240731 0.999751 
-0.00203399 -0.0234832 0.99975 
-0.00319715 -0.0339988 0.99943 
-0.00457627 -0.0241383 0.999712 
-0.00672975 -0.00765328 0.999962 
-0.00988368 0.00746863 0.999938 
-0.0130281 0.0168147 0.999788 
-0.0162905 0.0198357 0.999685 
-0.0186809 0.0169338 0.999695 
-0.020581 0.00943044 0.999756 
-0.0218861 0.000762825 0.999771 
-0.022575 -0.00578654 0.999741 
-0.0233074 -0.00838673 0.999708 
-0.0249953 -0.00676992 0.999676 
-0.0273548 -0.00198617 0.999639 
-0.0308806 0.00549774 0.999519 
-0.0349654 0.0153963 0.999282 
-0.0394945 0.0271923 0.998867 
-0.0454889 0.0422334 0.998084 
-0.0523907 0.0629809 0.996656 
-0.0635915 0.0916452 0.993773 
-0.0793722 0.135325 0.98763 
-0.104699 0.189343 0.976332 
-0.14644 0.26122 0.95412 
-0.201885 0.339562 0.918676 
-0.253054 0.410083 0.876248 
-0.287863 0.398194 0.870972 
-0.375651 0.475543 0.795495 
-0.4352 0.492088 0.753975 
-0.4806 0.498775 0.721289 
-0.499711 0.454296 0.737504 
-0.550372 0.427824 0.716984 
-0.583375 0.382031 0.716755 
-0.632204 0.338947 0.696734 
-0.55706 0.276336 0.783154 
-0.584909 0.277485 0.762152 
-0.440147 0.308471 0.843254 
-0.343521 0.325499 0.880936 
-0.0288632 0.715363 0.69816 
0.00752236 0.985144 0.171692 
0.0393081 0.850665 -0.524256 
0.341625 0.382211 -0.858616 
0.424322 0.354842 -0.833072 
0.515968 0.32031 -0.794459 
0.56178 0.28321 -0.777306 
0.609689 0.325643 -0.722664 
0.579733 0.361534 -0.730212 
0.567612 0.414768 -0.711194 
0.539829 0.447973 -0.712684 
0.445218 0.420225 -0.790699 
0.450193 0.468511 -0.76017 
0.360288 0.451143 -0.816505 
0.305317 0.458817 -0.834434 
0.271725 0.385933 -0.881611 
0.213077 0.349699 -0.912321 
0.151129 0.266805 -0.95184 
0.106294 0.190124 -0.976008 
0.0782994 0.131076 -0.988289 
0.0612316 0.0901579 -0.994062 
0.0518692 0.06132 -0.996784 
0.0451766 0.0407025 -0.998163 
0.0398973 0.0257029 -0.998886 
0.0352898 0.0142401 -0.999287 
0.0309503 0.00522368 -0.999522 
0.0281579 -0.00166574 -0.999613 
0.02572 -0.00621707 -0.999665 
0.0245225 -0.00825887 -0.999675 
0.0234173 -0.0059163 -0.999721 
0.0221094 0.00128123 -0.999769 
0.0210645 0.01013 -0.99974 
0.0192381 0.0181541 -0.999661 
0.016011 0.0201804 -0.999685 
0.0120261 0.0154679 -0.999823 
0.00935044 0.00539337 -0.999958 
0.00719705 -0.00929095 -0.999942 
0.0050668 -0.0252701 -0.999681 
0.00343522 -0.0334825 -0.99945 
0.00147587 -0.0228932 -0.999762 
0.000747874 -0.0214068 -0.9998 
-0.00238394 -0.0244176 0.999745 
-0.00190767 -0.02333 0.999751 
-0.00252032 -0.0329456 0.999465 
-0.00452204 -0.0238722 0.999718 
-0.00739601 -0.00599583 0.999969 
-0.0107877 0.0107387 0.999898 
-0.0137046 0.0207902 0.999703 
-0.0162484 0.0238206 0.999598 
-0.0178844 0.0200657 0.999652 
-0.0188614 0.0111873 0.999773 
-0.0199363 0.00086254 0.999813 
-0.0205684 -0.00652484 0.999779 
-0.0208399 -0.009091 0.999751 
-0.0218725 -0.00667874 0.999753 