# vtk DataFile Version 3.0 
Exported using Morpho https://github.com/Morpho-lang/morpho 
ASCII 
DATASET UNSTRUCTURED_GRID 

POINTS 1978 float 
-12 -4 -2.24355e-12 
-11.6365 -4 1.77051e-12 
-11.2803 -4 5.38939e-12 
-10.9977 -4 3.67778e-12 
-10.6978 -4 -5.10587e-12 
-10.3802 -4 -1.62224e-11 
-10.0382 -4 -1.06231e-11 
-9.70501 -4 -1.10923e-13 
-9.35983 -4 5.3715e-12 
-9.01344 -4 6.67392e-12 
-8.67419 -4 5.48531e-12 
-8.34257 -4 5.64038e-12 
-8.04961 -4 5.73428e-12 
-7.74628 -4 1.97531e-12 
-7.45705 -4 1.27455e-12 
-7.15782 -4 1.35079e-12 
-6.85141 -4 1.50967e-12 
-6.54987 -4 1.62566e-12 
-6.2487 -4 3.274e-13 
-5.98795 -4 -3.18142e-14 
-5.71605 -4 2.75716e-13 
-5.44312 -4 1.59591e-12 
-5.16293 -4 5.99924e-12 
-4.84968 -4 1.63941e-11 
-4.52204 -4 3.74317e-11 
-4.1768 -4 7.49959e-11 
-3.82727 -4 1.37124e-10 
-3.47856 -4 2.20081e-10 
-3.10568 -4 2.55879e-10 
-2.86462 -4 3.44125e-10 
-2.5546 -4 4.50792e-10 
-2.2355 -4 6.20124e-10 
-1.87413 -4 6.26301e-10 
-1.62935 -4 4.84024e-10 
-1.43179 -4 4.25038e-10 
-1.11082 -4 4.63103e-10 
-0.869126 -4 4.21213e-11 
-0.658405 -4 -6.4475e-11 
-0.453147 -4 -1.01336e-09 
0.075246 -4 8.21565e-10 
0.362319 -4 3.53546e-10 
0.591456 -4 9.05066e-11 
0.831977 -4 -1.37839e-10 
1.08492 -4 -3.96657e-10 
1.33476 -4 -6.32067e-10 
1.62436 -4 -6.26461e-10 
1.89309 -4 -5.93396e-10 
2.19096 -4 -4.99744e-10 
2.42415 -4 -4.70712e-10 
2.82894 -4 -4.48931e-10 
3.13135 -4 -3.08078e-10 
3.51308 -4 -2.20296e-10 
3.85072 -4 -1.20586e-10 
4.23042 -4 -6.26374e-11 
4.55079 -4 -2.80169e-11 
4.85325 -4 -1.12411e-11 
5.14727 -4 -5.07722e-12 
5.412 -4 -2.2497e-12 
5.68197 -4 7.05378e-13 
5.95624 -4 -1.01545e-13 
6.23784 -4 -1.24013e-12 
6.51925 -4 -2.45988e-12 
6.82753 -4 -3.00182e-12 
7.10674 -4 -3.32181e-12 
7.42353 -4 -2.94447e-12 
7.75955 -4 -2.69669e-12 
8.05841 -4 -4.92661e-12 
8.39815 -4 -4.18626e-12 
8.69239 -4 -5.66357e-12 
8.98731 -4 -6.27368e-12 
9.29959 -4 -7.05928e-12 
9.63094 -4 -3.69591e-14 
9.9486 -4 9.7755e-12 
10.3044 -4 1.7987e-11 
10.6228 -4 9.79057e-12 
10.9746 -4 -4.42985e-12 
11.289 -4 -7.92141e-12 
11.6434 -4 -7.56755e-13 
12 -4 -1.23077e-12 
-12 -3.72657 1.26064e-11 
-11.6272 -3.6951 -2.33253e-15 
-11.3221 -3.64886 -6.616e-15 
-11.0223 -3.63972 -5.81864e-15 
-10.7229 -3.63823 -3.73234e-15 
-10.4096 -3.65773 -1.56919e-15 
-10.0821 -3.68246 -6.54883e-16 
-9.73831 -3.67067 6.98647e-16 
-9.40891 -3.67785 4.65137e-16 
-9.08368 -3.69095 -1.26956e-15 
-8.75241 -3.68832 -2.18164e-15 
-8.42251 -3.68613 -3.01672e-15 
-8.10401 -3.64839 -2.92964e-15 
-7.79948 -3.65455 -2.99354e-15 
-7.49061 -3.62991 -2.14939e-15 
-7.19704 -3.64278 -1.33435e-15 
-6.89943 -3.65933 -2.52226e-16 
-6.60007 -3.67528 9.93746e-16 
-6.30013 -3.69407 2.43594e-15 
-6.00738 -3.66636 4.48944e-15 
-5.72654 -3.6728 7.32187e-15 
-5.42629 -3.66844 8.06026e-15 
-5.10101 -3.66844 1.19309e-14 
-4.7531 -3.63433 1.74369e-14 
-4.39408 -3.61812 1.9024e-14 
-4.0012 -3.59773 3.1667e-14 
-3.64775 -3.59432 4.13258e-14 
-3.26509 -3.64852 3.17439e-14 
-2.9501 -3.54039 -1.20669e-15 
-2.69729 -3.66752 1.08209e-13 
-2.41058 -3.69682 1.71672e-13 
-2.02362 -3.81345 8.52473e-14 
-1.88328 -3.59067 2.71381e-13 
-1.71268 -3.75563 -2.88114e-14 
-1.30093 -3.84186 1.13972e-13 
-1.03161 -3.8435 -1.21897e-13 
-0.788706 -3.82547 1.05979e-13 
-0.548043 -3.8497 -2.60137e-15 
-0.275753 -3.9359 -4.01598e-13 
-0.0520273 -3.88722 5.49408e-13 
0.230894 -3.85871 2.00163e-13 
0.622131 -3.82761 -7.30015e-14 
0.865087 -3.82531 7.38067e-14 
1.10086 -3.80959 5.04986e-14 
1.41185 -3.83709 1.26642e-13 
1.69969 -3.80723 -5.98246e-14 
1.9909 -3.7784 -6.82156e-14 
2.21496 -3.64746 -7.72566e-14 
2.51206 -3.7467 -9.07339e-14 
2.80645 -3.6556 -3.24257e-14 
3.10814 -3.58355 -1.01737e-14 
3.44426 -3.60812 -3.55945e-14 
3.8162 -3.56167 -2.65623e-14 
4.17604 -3.63528 -2.10687e-14 
4.56241 -3.61501 -2.08344e-14 
4.90906 -3.65588 -1.71074e-14 
5.21925 -3.65288 -1.11751e-14 
5.51354 -3.67085 -7.70684e-15 
5.80241 -3.67364 -5.58112e-15 
6.08996 -3.67238 -3.89999e-15 
6.37531 -3.65924 -2.27632e-15 
6.66126 -3.67721 -4.19413e-16 
6.93994 -3.63396 6.67642e-16 
7.2287 -3.66997 1.92714e-15 
7.53387 -3.68563 2.85507e-15 
7.83145 -3.6481 2.89728e-15 
8.13646 -3.68458 3.34842e-15 
8.43135 -3.64661 2.62768e-15 
8.73084 -3.65828 2.29878e-15 
9.04719 -3.68529 1.41476e-15 
9.37226 -3.69474 -5.99536e-16 
9.69489 -3.6708 -1.14187e-15 
10.0403 -3.70607 -6.07573e-16 
10.3736 -3.67106 1.49812e-15 
10.7064 -3.69522 4.21367e-15 
11.0226 -3.64521 4.50592e-15 
11.352 -3.68301 6.18131e-15 
11.6825 -3.68953 2.87595e-16 
12 -3.68266 -1.41756e-11 
-12 -3.44277 5.18319e-12 
-11.7231 -3.34607 2.36642e-15 
-11.3821 -3.32006 -3.07539e-15 
-11.032 -3.28509 -4.86107e-15 
-10.687 -3.29984 -4.95328e-15 
-10.3435 -3.33109 -3.2418e-15 
-10.0058 -3.36086 -9.76878e-16 
-9.67421 -3.33934 3.73351e-16 
-9.35911 -3.34315 4.00564e-14 
-9.05218 -3.36483 -9.46926e-16 
-8.76056 -3.33106 -1.89105e-15 
-8.47086 -3.36323 -2.07143e-15 
-8.16365 -3.32357 -2.03688e-15 
-7.84767 -3.31177 -1.983e-15 
-7.5391 -3.29218 -1.5414e-15 
-7.22341 -3.283 -6.71255e-16 
-6.92923 -3.30927 4.1579e-16 
-6.63662 -3.3402 1.95512e-15 
-6.34486 -3.37172 3.55959e-15 
-6.06078 -3.3489 5.78155e-15 
-5.77791 -3.34321 7.39179e-15 
-5.49405 -3.3466 9.91635e-15 
-5.17796 -3.33418 1.3775e-14 
-4.85171 -3.29894 1.72558e-14 
-4.48991 -3.24348 2.73628e-14 
-4.13526 -3.26514 3.05375e-14 
-3.77044 -3.1942 1.96871e-14 
-3.4424 -3.28903 6.5405e-14 
-3.1414 -3.26608 7.20213e-14 
-2.83679 -3.23113 1.25792e-13 
-2.56706 -3.36309 -3.59906e-14 
-2.19541 -3.61654 -2.59417e-14 
-2.0571 -3.40593 1.40229e-14 
-1.64499 -3.48182 -5.54721e-14 
-1.50109 -3.70372 1.39198e-13 
-1.15217 -3.68305 -3.31213e-13 
-0.913325 -3.67651 2.92284e-13 
-0.618395 -3.69156 9.35926e-15 
-0.348952 -3.77056 1.41555e-13 
0.0943768 -3.75392 -1.96284e-13 
0.398348 -3.80445 1.89685e-13 
0.66205 -3.66498 -9.00798e-14 
0.893895 -3.63643 -7.39379e-14 
1.27336 -3.67422 -3.425e-13 
1.53761 -3.63369 -1.26634e-13 
1.78679 -3.59553 -1.11026e-13 
1.995 -3.4783 -2.55387e-14 
2.24267 -3.35611 1.49329e-14 
2.49856 -3.43939 -9.31986e-14 
2.79143 -3.33932 -8.16804e-14 
3.10069 -3.2321 -4.5049e-14 
3.43006 -3.23439 -3.9976e-14 
3.77279 -3.18501 -4.47269e-14 
4.12035 -3.23262 -4.30074e-14 
4.46456 -3.27586 -3.01986e-14 
4.83165 -3.30591 -2.02663e-14 
5.15095 -3.31455 -1.30579e-14 
5.4534 -3.33468 -8.8816e-15 
5.744 -3.3452 -7.87068e-15 
6.03076 -3.34542 -4.74385e-15 
6.31824 -3.3304 -3.35998e-15 
6.6156 -3.33314 -1.82754e-15 
6.92364 -3.31603 -2.53316e-16 
7.23964 -3.32687 1.09104e-15 
7.53832 -3.34708 1.90815e-15 
7.83824 -3.30134 2.23869e-15 
8.13298 -3.33802 2.07407e-15 
8.43391 -3.30646 1.87148e-15 
8.74654 -3.32178 1.12106e-15 
9.05669 -3.37058 7.10877e-16 
9.37797 -3.37259 -6.03658e-16 
9.68656 -3.32822 -1.14465e-15 
10.0056 -3.39202 5.5092e-16 
10.3413 -3.35737 2.92804e-15 
10.6904 -3.36601 2.64776e-15 
11.034 -3.31644 4.11876e-15 
11.3679 -3.35413 4.9492e-15 
11.6841 -3.35017 -1.2137e-15 
12 -3.35837 -5.60557e-12 
-12 -2.99626 8.09917e-12 
-11.6545 -3.01505 1.49614e-15 
-11.3099 -2.98679 9.84763e-16 
-10.9676 -2.96046 3.09899e-16 
-10.6284 -2.97085 -1.71903e-15 
-10.2978 -2.99994 -1.57279e-15 
-9.97131 -3.02629 -1.27036e-15 
-9.65068 -2.9969 1.13691e-16 
-9.33944 -2.99412 1.00494e-16 
-9.03916 -3.01626 -6.55145e-16 
-8.73849 -2.98437 -2.00967e-16 
-8.43751 -3.01175 -4.37905e-16 
-8.12607 -2.98805 -5.72561e-16 
-7.81323 -2.97324 -6.9315e-16 
-7.4894 -2.96405 -4.74461e-16 
-7.18285 -2.94237 -2.99716e-14 
-6.88298 -2.97874 7.80639e-16 
-6.58991 -3.01738 1.1447e-15 
-6.30762 -3.03897 1.65362e-15 
-6.02778 -3.01283 1.0902e-15 
-5.75167 -2.99873 1.93306e-15 
-5.44528 -3.01544 2.85168e-15 
-5.13295 -2.97296 4.78647e-15 
-4.77788 -2.94898 8.36156e-15 
-4.40795 -2.88831 1.78555e-14 
-4.06954 -2.9271 2.66027e-14 
-3.74107 -2.8542 2.14226e-14 
-3.4591 -2.94922 3.53486e-14 
-3.19206 -2.97299 2.11164e-14 
-2.93069 -2.95507 3.73926e-14 
-2.62912 -3.05851 7.82139e-14 
-2.32487 -3.31759 1.18995e-13 
-2.0987 -3.17935 -3.81642e-14 
-1.82016 -3.32491 2.03447e-13 
-1.45866 -3.38947 3.14595e-13 
-1.33275 -3.56256 -1.19436e-14 
-0.920418 -3.47333 3.9486e-13 
-0.734589 -3.55447 1.4014e-13 
-0.424621 -3.63152 1.17888e-13 
-0.142854 -3.76223 -1.40581e-13 
0.232415 -3.60633 -3.6458e-13 
0.576068 -3.49316 -4.56629e-13 
0.79794 -3.48754 -2.50734e-14 
1.09236 -3.56842 6.51308e-13 
1.38839 -3.48978 -1.87753e-13 
1.71974 -3.38452 -1.26347e-13 
1.99476 -3.2587 -2.12804e-13 
2.31248 -3.12552 -2.89574e-14 
2.55959 -3.14964 -1.11638e-13 
2.85013 -3.04807 -4.40225e-14 
3.17895 -2.93232 -1.25264e-14 
3.48538 -2.92137 -5.94754e-14 
3.77423 -2.83921 -3.32393e-14 
4.08053 -2.87085 -3.31662e-14 
4.41791 -2.90292 -2.37527e-14 
4.76172 -2.96589 -9.85635e-15 
5.11161 -2.96693 -4.27528e-15 
5.4291 -2.9927 -1.28753e-15 
5.73082 -3.01078 -7.41962e-16 
6.0281 -3.00882 -2.18582e-15 
6.32436 -3.00022 -1.53257e-15 
6.6191 -3.00899 -7.62674e-16 
6.91712 -2.98659 -3.51871e-16 
7.21983 -3.00584 9.48056e-17 
7.53178 -3.00711 4.4937e-16 
7.83876 -2.96192 5.74382e-16 
8.14344 -2.98205 2.50066e-16 
8.44705 -2.95342 2.45538e-14 
8.74639 -2.99131 2.1893e-16 
9.07292 -3.04227 5.00231e-16 
9.37649 -3.02283 -1.70005e-16 
9.69234 -2.98816 -2.52614e-16 
10.0218 -3.05825 1.29273e-15 
10.354 -3.02137 2.32315e-15 
10.6822 -3.04976 1.66013e-15 
10.9995 -2.96792 1.36731e-15 
11.3358 -3.01937 -9.7164e-17 
11.6755 -3.00568 -2.37064e-15 
12 -3.02476 -7.32281e-12 
-12 -2.66396 1.93421e-12 
-11.6611 -2.69237 9.85317e-16 
-11.3353 -2.64885 3.58218e-15 
-10.9934 -2.63396 1.27452e-15 
-10.6502 -2.64192 -5.31988e-16 
-10.2986 -2.65699 -1.32958e-15 
-9.97375 -2.68436 -9.11071e-16 
-9.64825 -2.65688 -2.39771e-16 
-9.33437 -2.6517 -4.67779e-16 
-9.0251 -2.6677 -2.1284e-16 
-8.7102 -2.64403 -2.32853e-14 
-8.40077 -2.67163 3.57852e-16 
-8.08736 -2.65355 3.75406e-14 
-7.76412 -2.65267 -2.05826e-16 
-7.45794 -2.6307 -2.53988e-16 
-7.15551 -2.6136 -5.56104e-16 
-6.86286 -2.65568 -8.83882e-16 
-6.56933 -2.6908 -1.51251e-15 
-6.28462 -2.70086 -2.69872e-15 
-6.00289 -2.6599 -6.29507e-15 
[...]
POINT_DATA 1978 
VECTORS vectors float
0.000466996 -0.00212859 0.999998 
0.000396563 -0.029901 0.999553 
0.000220932 -0.0279195 0.99961 
0.000429602 -0.0124913 0.999922 
0.000446661 0.0015005 0.999999 
0.000301034 0.0081567 0.999967 
0.000358303 0.00919041 0.999958 
0.000404038 0.00376497 0.999993 
0.000387266 -0.00439457 0.99999 
0.000361709 -0.00994407 0.99995 
0.000343593 -0.0121397 0.999926 
0.000373903 -0.0117857 0.99993 
0.000404652 -0.0101997 0.999948 
0.000416166 -0.00803824 0.999968 
0.000392746 -0.00608122 0.999981 
0.000373026 -0.00437335 0.99999 
0.000321514 -0.00280788 0.999996 
0.000332151 -0.000926259 1 
0.000453981 0.00164938 0.999999 
0.000521973 0.00556532 0.999984 
0.000517354 0.0113534 0.999935 
0.000425914 0.0195004 0.99981 
0.000348994 0.0295654 0.999563 
0.000308333 0.0416722 0.999131 
0.000313945 0.0547879 0.998498 
0.00032444 0.0688648 0.997626 
0.000287636 0.0842289 0.996446 
0.000233546 0.0996466 0.995023 
0.000329729 0.115307 0.99333 
0.000377534 0.127865 0.991791 
0.000243924 0.147172 0.989111 
7.63664e-05 0.17702 0.984207 
0.00022265 0.235463 0.971883 
0.00023174 0.29846 0.954422 
0.000232995 0.358435 0.933555 
-4.86346e-06 0.50298 0.864298 
-1.60884e-05 0.635167 0.772375 
-8.02747e-05 0.765211 0.643779 
4.87951e-05 0.88135 0.472465 
-7.36276e-05 0.995499 -0.094776 
0.000112171 0.904598 -0.426266 
0.000120698 0.780871 -0.624692 
6.24264e-05 0.636847 -0.770991 
-8.58097e-05 0.498408 -0.866942 
-0.000126326 0.387071 -0.92205 
-0.000164523 0.297517 -0.954717 
-0.000220686 0.235361 -0.971908 
-0.000245384 0.186248 -0.982503 
-0.000253716 0.161061 -0.986944 
-0.000199354 0.132119 -0.991234 
-0.000290711 0.116186 -0.993227 
-0.000302587 0.0975195 -0.995234 
-0.000302756 0.0809874 -0.996715 
-0.000303599 0.0648485 -0.997895 
-0.000307808 0.0520145 -0.998646 
-0.000359367 0.0396859 -0.999212 
-0.000458418 0.0289257 -0.999581 
-0.000499557 0.0202244 -0.999795 
-0.000470608 0.0125898 -0.999921 
-0.000445913 0.00645879 -0.999979 
-0.000408865 0.00138548 -0.999999 
-0.000384922 -0.00212807 -0.999998 
-0.000403957 -0.00474318 -0.999989 
-0.000383856 -0.00622565 -0.999981 
-0.000334514 -0.00718861 -0.999974 
-0.000336683 -0.00840027 -0.999965 
-0.000336604 -0.00964678 -0.999953 
-0.00034148 -0.0108841 -0.999941 
-0.000439238 -0.011291 -0.999936 
-0.000425588 -0.00964737 -0.999953 
-0.000351691 -0.00468403 -0.999989 
-0.000357467 0.00342351 -0.999994 
-0.000373604 0.0102542 -0.999947 
-0.00033859 0.0111058 -0.999938 
-0.000425449 0.00496619 -0.999988 
-0.000351384 -0.0110374 -0.999939 
-0.000179059 -0.0285543 -0.999592 
-0.00049578 -0.0308744 -0.999523 
-0.000475994 -0.00161977 -0.999999 
-0.000277133 -0.000965286 0.999999 
0.00974094 -0.0245104 0.999652 
0.01556 -0.0252358 0.99956 
0.0187852 -0.0163639 0.99969 
0.0194794 -0.00481333 0.999799 
0.0195603 0.00361461 0.999802 
0.0185482 0.00675451 0.999805 
0.019009 0.00352674 0.999813 
0.0182036 -0.0019782 0.999832 
0.01744 -0.00673724 0.999825 
0.016312 -0.00961202 0.999821 
0.015844 -0.0105496 0.999819 
0.0163321 -0.00978085 0.999819 
0.0159245 -0.00806815 0.999841 
0.0158487 -0.00586757 0.999857 
0.0152034 -0.00381724 0.999877 
0.0142818 -0.00174729 0.999896 
0.0130005 0.000611506 0.999915 
0.0114548 0.00358055 0.999928 
0.0101819 0.00864316 0.999911 
0.00788102 0.0146135 0.999862 
0.00409754 0.0237354 0.99971 
-5.68983e-05 0.0354106 0.999373 
-0.00657348 0.0499662 0.998729 
-0.016055 0.0665983 0.997651 
-0.0285438 0.0849644 0.995975 
-0.0430256 0.102138 0.993839 
-0.0545331 0.119166 0.991376 
-0.0930258 0.142371 0.985432 
-0.0700117 0.149035 0.98635 
-0.0687159 0.167329 0.983504 
-0.0446307 0.209583 0.976772 
-0.103768 0.230764 0.967461 
-0.0609721 0.270373 0.960823 
-0.0280542 0.404843 0.913956 
-0.0229539 0.524325 0.851209 
-0.0133689 0.675769 0.736992 
-0.00645309 0.818694 0.574194 
0.000401366 0.960241 0.279174 
0.0012091 0.997522 0.0703459 
0.00628675 0.940535 -0.339639 
0.0188347 0.765869 -0.642721 
0.0271679 0.604947 -0.795802 
0.0378591 0.474734 -0.879315 
0.0387169 0.35487 -0.934114 
0.0459647 0.278718 -0.959272 
0.0536471 0.219064 -0.974235 
0.0882577 0.191397 -0.977536 
0.0539034 0.161095 -0.985466 
0.070149 0.146022 -0.986791 
0.0750516 0.132039 -0.988399 
0.0529839 0.113348 -0.992142 
0.0400817 0.094628 -0.994705 
0.0196497 0.0733398 -0.997113 
0.00953743 0.0559409 -0.998389 
0.00136578 0.0409107 -0.999162 
-0.00249602 0.0300046 -0.999547 
-0.00551844 0.0207813 -0.999769 
-0.00809992 0.0131916 -0.99988 
-0.0104991 0.00693049 -0.999921 
-0.0127647 0.00212884 -0.999916 
-0.0141312 -0.00155093 -0.999899 
-0.0152939 -0.003587 -0.999877 
-0.0153575 -0.0055479 -0.999867 
-0.0156787 -0.00713544 -0.999852 
-0.0163699 -0.00830773 -0.999831 
-0.015897 -0.00941427 -0.999829 
-0.0170361 -0.00955105 -0.999809 
-0.0177714 -0.00875205 -0.999804 
-0.0181923 -0.00628682 -0.999815 
-0.0181457 -0.00160749 -0.999834 
-0.0187675 0.0042936 -0.999815 
-0.0185576 0.00884157 -0.999789 
-0.0200702 0.00658013 -0.999777 
-0.0189636 -0.00193823 -0.999818 
-0.0181708 -0.0150677 -0.999721 
-0.0149657 -0.0262715 -0.999543 
-0.00873507 -0.0234244 -0.999687 
-2.94527e-05 -0.000353482 -1 
0.000758488 -0.000299216 1 
0.00830696 -0.0183145 0.999798 
0.0175776 -0.0256149 0.999517 
0.0222642 -0.0187759 0.999576 
0.0242275 -0.00693537 0.999682 
0.0256635 0.00187529 0.999669 
0.0262822 0.00501339 0.999642 
0.0260064 0.00321216 0.999657 
0.0245935 -0.000320545 0.999697 
0.0234529 -0.00418854 0.999716 
0.021822 -0.00672176 0.999739 
0.0204148 -0.00883274 0.999753 
0.0189602 -0.00909778 0.999779 
0.0177698 -0.00791271 0.999811 
0.0163664 -0.00563268 0.99985 
0.0148223 -0.002853 0.999886 
0.0137557 -8.70298e-05 0.999905 
0.01271 0.0029839 0.999915 
0.0111102 0.00684281 0.999915 
0.00774154 0.0127297 0.999889 
0.00358543 0.0197922 0.999798 
-0.00125713 0.0284071 0.999596 
-0.00850896 0.0409074 0.999127 
-0.0193528 0.0567694 0.9982 
-0.0367549 0.0780817 0.996269 
-0.0553779 0.0982603 0.993619 
-0.094716 0.12895 0.987117 
-0.105334 0.137935 0.984824 
-0.143018 0.160253 0.97666 
-0.190811 0.182566 0.9645 
-0.179472 0.180997 0.966969 
-0.105322 0.189883 0.976141 
-0.186889 0.215537 0.958445 
-0.148453 0.278699 0.948835 
-0.0659957 0.329095 0.941988 
-0.0609265 0.445301 0.893306 
-0.0341022 0.595217 0.802841 
-0.0177826 0.782949 0.621831 
-0.00184817 0.924313 0.38163 
0.00725898 0.982797 -0.184549 
0.0197918 0.875127 -0.483489 
0.042211 0.735839 -0.675839 
0.0646 0.602597 -0.795427 
0.0742483 0.429744 -0.899893 
0.091131 0.326911 -0.940651 
0.107926 0.260122 -0.959525 
0.150409 0.224188 -0.962869 
0.193467 0.2053 -0.959386 
0.143319 0.179667 -0.973231 
0.150979 0.168179 -0.974126 
0.158036 0.16671 -0.973259 
0.120624 0.145556 -0.981969 
0.0940431 0.127881 -0.987321 
0.0557296 0.0970691 -0.993716 
0.0320548 0.0736529 -0.996769 
0.0167158 0.0545363 -0.998372 
0.00867988 0.0410316 -0.99912 
0.00237977 0.0299515 -0.999549 
-0.00267091 0.0211689 -0.999772 
-0.00626386 0.0137443 -0.999886 
-0.00929415 0.00759204 -0.999928 
-0.0122205 0.00253756 -0.999922 
-0.0145015 -0.00112889 -0.999894 
-0.0164956 -0.00419418 -0.999855 
-0.0178723 -0.00644294 -0.99982 
-0.0181432 -0.00798544 -0.999804 
-0.0190046 -0.00876156 -0.999781 
-0.0195543 -0.00808454 -0.999776 
-0.0210002 -0.00611836 -0.999761 
-0.0231167 -0.00325491 -0.999727 
-0.0246907 0.000759385 -0.999695 
-0.0260048 0.00472809 -0.999651 
-0.0264483 0.00687195 -0.999627 
-0.0263155 0.00379941 -0.999646 
-0.0251587 -0.00582674 -0.999666 
-0.0234973 -0.0177749 -0.999566 
-0.0200192 -0.0253385 -0.999478 
-0.0114197 -0.0202252 -0.99973 
-0.00103807 -0.000101555 -0.999999 
0.000399855 0.000479245 1 
0.00926965 -0.0221015 0.999713 
0.0153656 -0.0280532 0.999488 
0.0174532 -0.02031 0.999641 
0.0196322 -0.00859765 0.99977 
0.021215 0.000499631 0.999775 
0.0219028 0.00479627 0.999749 
0.0198079 0.00457697 0.999793 
0.017684 0.00232345 0.999841 
0.0162779 -0.000962894 0.999867 
0.0132017 -0.0044049 0.999903 
0.0124965 -0.00737633 0.999895 
0.010283 -0.00830243 0.999913 
0.0085758 -0.00728379 0.999937 
0.00645145 -0.00452925 0.999969 
0.00324472 -0.000922656 0.999994 
0.00221265 0.0029605 0.999993 
0.000282283 0.00757273 0.999971 
-0.00247937 0.0131651 0.99991 
-0.00835999 0.0210103 0.999744 
-0.0138052 0.0298482 0.999459 
-0.0195853 0.0410168 0.998966 
-0.0311446 0.0577015 0.997848 
-0.0472826 0.0798205 0.995687 
-0.0754633 0.110692 0.990986 
-0.102218 0.135246 0.985525 
-0.159104 0.178181 0.97105 
-0.185299 0.189011 0.964333 
-0.225522 0.206518 0.952098 
-0.287639 0.231955 0.929226 
-0.291173 0.221591 0.930653 
-0.210726 0.199676 0.956935 
-0.300741 0.226852 0.926333 
-0.215467 0.243764 0.945597 
-0.161869 0.330666 0.929762 
-0.108222 0.399706 0.910232 
-0.0631544 0.581484 0.811103 
-0.0347107 0.701465 0.711858 
-0.00758814 0.880627 0.473749 
0.0023988 0.990744 0.135724 
0.0202097 0.95874 -0.283566 
0.054278 0.790496 -0.610057 
0.0900872 0.663452 -0.742776 
0.103749 0.486143 -0.867699 
0.135107 0.365431 -0.920981 
0.186472 0.276411 -0.942775 
0.240641 0.236798 -0.941286 
0.289418 0.223086 -0.930844 
0.244819 0.203192 -0.948038 
0.244593 0.204855 -0.947739 
0.239669 0.212068 -0.94741 
0.183113 0.186295 -0.965279 
0.155968 0.174863 -0.972161 
0.107054 0.137515 -0.984697 
0.0695945 0.103375 -0.992205 
0.0439616 0.0759805 -0.99614 
0.030752 0.0571339 -0.997893 
0.0209858 0.0417852 -0.998906 
0.0142504 0.0302078 -0.999442 
0.00844472 0.0206472 -0.999751 
0.00428132 0.0131554 -0.999904 
0.000155291 0.00672453 -0.999977 
-0.00248254 0.00188966 -0.999995 
-0.00621223 -0.00233472 -0.999978 
-0.00812793 -0.00553743 -0.999952 
-0.00793359 -0.00754672 -0.99994 
-0.00948044 -0.0081038 -0.999922 
-0.00969225 -0.00662573 -0.999931 
-0.0127845 -0.00373643 -0.999911 
-0.0167982 6.76751e-05 -0.999859 
-0.0185425 0.00355929 -0.999822 
-0.0195311 0.00606995 -0.999791 
-0.0226476 0.00607304 -0.999725 
-0.0222858 0.00122381 -0.999751 
-0.02208 -0.00831681 -0.999722 
-0.0187224 -0.019122 -0.999642 
-0.0167607 -0.0262943 -0.999514 
-0.00935344 -0.0202312 -0.999752 
-0.000391008 0.000547544 -1 
-0.000262087 1.89501e-05 1 
0.00569764 -0.0229835 0.99972 
0.0077525 -0.0300639 0.999518 
0.00932023 -0.0231599 0.999688 
0.0106138 -0.0106414 0.999887 
0.0106692 0.000547753 0.999943 
0.0108003 0.00585987 0.999925 
0.0078381 0.00703121 0.999945 
0.00499278 0.00570281 0.999971 
0.00326102 0.00203587 0.999993 
-0.000178296 -0.00264434 0.999996 
-0.00127034 -0.00648719 0.999978 
-0.00322129 -0.00786734 0.999964 
-0.00473591 -0.00657575 0.999967 
-0.00785068 -0.00336149 0.999964 
-0.0115022 0.00121138 0.999933 
-0.0132247 0.00636436 0.999892 
-0.0159922 0.0124922 0.999794 
-0.0206762 0.0202304 0.999582 
-0.0282327 0.0307225 0.999129 
-0.0343716 0.0433808 0.998467 
-0.0452581 0.0618649 0.997058 
-0.0618923 0.088452 0.994156 
-0.0900418 0.124959 0.988068 
-0.134561 0.171416 0.975966 
-0.166749 0.194681 0.966589 
-0.240023 0.248367 0.938458 
-0.268389 0.252644 0.92959 
-0.319822 0.270725 0.907977 
-0.384847 0.29343 0.875095 
-0.378302 0.265508 0.886788 
-0.317338 0.22674 0.920807 
-0.394377 0.243987 0.885967 
-0.334403 0.247955 0.909226 
-0.267226 0.278226 0.922595 
-0.181733 0.390891 0.902318 
-0.104209 0.497697 0.861068 
-0.0186644 0.823638 0.566808 
0.00528537 0.98454 0.175079 
0.0127485 0.998543 -0.0524254 
0.0341611 0.878436 -0.476637 
0.0912969 0.750727 -0.654274 
0.137677 0.531846 -0.835574 
0.178689 0.400042 -0.898908 
0.212802 0.310344 -0.9265 
0.311407 0.257591 -0.914698 
0.365761 0.244115 -0.898124 
0.366847 0.245505 -0.897302 
0.347967 0.247839 -0.904154 
0.327664 0.253255 -0.910219 
0.312791 0.266562 -0.91165 
0.259944 0.246503 -0.93363 
0.215697 0.230381 -0.948894 
0.165434 0.194542 -0.966843 
0.116612 0.149732 -0.981826 
0.077532 0.107358 -0.991193 
0.0549803 0.0778142 -0.995451 
0.0416282 0.0557085 -0.997579 
0.032202 0.0394935 -0.998701 
0.0265084 0.0282191 -0.99925 
0.0212451 0.0187588 -0.999598 
0.0159078 0.0106026 -0.999817 
0.013277 0.00461884 -0.999901 
0.00838958 -0.000559774 -0.999965 
0.00583762 -0.00451552 -0.999973 
0.00596978 -0.00697765 -0.999958 
0.00450314 -0.00747122 -0.999962 
0.00482626 -0.00548667 -0.999973 
0.00131931 -0.00172507 -0.999998 
-0.00417724 0.00233324 -0.999989 
-0.00525454 0.00639606 -0.999966 
-0.00665999 0.00823413 -0.999944 
-0.011783 0.00718266 -0.999905 
-0.0121477 0.00219795 -0.999924 
-0.0129073 -0.00910551 -0.999875 
-0.00983724 -0.0213956 -0.999723 
-0.00942288 -0.0289558 -0.999536 
-0.00606858 -0.0222242 -0.999735 
-0.000320537 6.10098e-05 -1 
0.000544618 6.64771e-05 1 
0.00274227 -0.0200458 0.999795 
0.0013304 -0.0304252 0.999536 
0.00143299 -0.0287369 0.999586 
0.00130318 -0.0161431 0.999869 
0.00150763 -0.00315409 0.999994 
-0.00013173 0.0062938 0.99998 
-0.0019828 0.00974838 0.999951 
-0.00577311 0.00996824 0.999934 
-0.00851062 0.00672027 0.999941 
-0.010617 0.00125705 0.999943 
-0.0124586 -0.00459686 0.999912 
-0.0143372 -0.0073632 0.99987 
-0.0158469 -0.0069391 0.99985 
-0.0190723 -0.00375405 0.999811 
-0.022341 0.0012283 0.99975 
-0.0258756 0.00792944 0.999634 
-0.0293133 0.0156266 0.999448 
-0.0342355 0.0249775 0.999102 
-0.0415991 0.037443 0.998433 
-0.0481595 0.0527331 0.997447 
-0.0613596 0.0779883 0.995064 
-0.0772931 0.106151 0.991341 
-0.106582 0.149719 0.982967 
-0.147585 0.198736 0.968877 
-0.203957 0.254956 0.945198 
-0.234934 0.266563 0.934746 
-0.313901 0.332805 0.889217 
-0.347024 0.32974 0.877978 
-0.4004 0.342716 0.849839 
-0.467475 0.339572 0.816185 
-0.474315 0.310702 0.823705 
-0.424651 0.267133 0.86505 
-0.448358 0.252242 0.857525 
-0.404551 0.26741 0.874546 
-0.283904 0.315912 0.905316 
-0.145917 0.505846 0.850193 
-0.0599752 0.663122 0.746105 
-0.00278928 0.933777 0.357844 
0.0244075 0.977569 -0.209198 
0.0375002 0.891632 -0.451206 
0.155618 0.600399 -0.784413 
0.232487 0.415316 -0.879467 
0.277291 0.330018 -0.902329 
0.330853 0.287825 -0.898718 
0.428225 0.261883 -0.864893 
0.453003 0.270624 -0.849441 
0.459525 0.298343 -0.836557 
0.431475 0.309033 -0.847542 
0.397104 0.314556 -0.862185 
0.3746 0.333262 -0.865223 
0.302391 0.299344 -0.90496 
0.261394 0.291261 -0.920239 
0.202098 0.247561 -0.94756 
0.151918 0.201122 -0.967714 
0.108321 0.147919 -0.98305 
0.078756 0.106978 -0.991137 
0.0604839 0.0767148 -0.995217 
0.048941 0.0541965 -0.99733 
0.0421392 0.0389421 -0.998353 
0.0362092 0.0266283 -0.998989 
0.0302415 0.0162359 -0.999411 
0.026476 0.00836619 -0.999614 
0.0218147 0.00159443 -0.999761 
0.0184309 -0.00321838 -0.999825 
0.0174537 -0.00651367 -0.999826 
0.0163869 -0.00712221 -0.99984 
0.015591 -0.0045964 -0.999868 
0.0133444 0.000881116 -0.999911 
0.00835884 0.00588321 -0.999948 
0.007646 0.0103941 -0.999917 
0.00466676 0.0115516 -0.999922 
-0.000604145 0.00870942 -0.999962 
-0.00201879 0.00154049 -0.999997 
-0.00313609 -0.0110803 -0.999934 
-0.00129725 -0.0239757 -0.999712 
-0.00230384 -0.0302635 -0.999539 
-0.00282963 -0.0228547 -0.999735 
-0.000487223 -0.000380672 -1 
0.000178549 -0.000319939 1 
-0.000216604 -0.022529 0.999746 
-0.00216037 -0.0323831 0.999473 
-0.00312065 -0.0229263 0.999732 
-0.00425979 -0.0075713 0.999962 
-0.00608027 0.0047596 0.99997 
-0.00913998 0.0127659 0.999877 
-0.0117977 0.014543 0.999825 
-0.0148563 0.0123425 0.999813 
-0.017282 0.00669963 0.999828 
-0.0183872 -0.000499976 0.999831 
-0.0200353 -0.00581986 0.999782 
-0.0214195 -0.00757939 0.999742 
-0.0231579 -0.00601418 0.999714 
-0.0261516 -0.00150447 0.999657 
-0.0295369 0.0050061 0.999551 
-0.0337061 0.0130999 0.999346 
-0.0381748 0.0224849 0.999018 
-0.0433483 0.0342355 0.998473 
-0.0502634 0.0510638 0.99743 
-0.0596439 0.0731159 0.995538 
-0.0757738 0.109317 0.991115 
-0.0978246 0.149314 0.983939 
-0.132583 0.205046 0.969731 
-0.181105 0.266636 0.946629 
-0.234994 0.326756 0.915428 
-0.276754 0.33745 0.899742 
-0.342358 0.405873 0.847383 
-0.391301 0.41475 0.821502 
-0.432364 0.414932 0.800558 
-0.471075 0.381132 0.795504 
-0.543022 0.382033 0.747782 
-0.55666 0.330004 0.762382 
-0.513652 0.285809 0.808996 
-0.530943 0.263725 0.805325 
-0.431402 0.288232 0.854877 
-0.268274 0.358488 0.894156 
-0.182549 0.519816 0.834546 
-0.010854 0.887559 0.460566 
0.015275 0.999834 0.00994237 
0.179213 0.650835 -0.737764 
0.254819 0.463449 -0.848695 
0.331529 0.351966 -0.875334 
0.412246 0.312212 -0.855907 
0.445173 0.280747 -0.850295 
0.517368 0.281193 -0.808246 
0.537846 0.315953 -0.781598 
0.526315 0.360474 -0.770098 
0.485842 0.369635 -0.79204 
0.456007 0.385098 -0.802345 
0.365806 0.369977 -0.853992 
0.348779 0.387992 -0.853121 
0.280583 0.348593 -0.894291 
0.218204 0.296174 -0.929875 
0.172233 0.255896 -0.951238 
0.125704 0.190968 -0.973514 
0.0909881 0.136793 -0.986412 
0.0692564 0.0955384 -0.993014 
0.0570792 0.0682193 -0.996036 
0.0492128 0.0480367 -0.997632 
0.0430756 0.0326074 -0.99854 
0.0372633 0.0202047 -0.999101 
0.0326709 0.0103238 -0.999413 
0.0288635 0.00305031 -0.999579 
0.0254021 -0.00275892 -0.999674 
0.023831 -0.00639956 -0.999696 
0.0224592 -0.00726724 -0.999721 
0.0215093 -0.00448133 -0.999759 
0.0198324 0.00154129 -0.999802 
0.0169604 0.0085697 -0.999819 
0.0152427 0.0143093 -0.999781 
0.0117902 0.0153671 -0.999812 
0.00704719 0.010842 -0.999916 
0.00506387 0.00190735 -0.999985 
0.0035834 -0.0115574 -0.999927 
0.00359796 -0.0248213 -0.999685 
0.00210541 -0.0315404 -0.9995 
0.000110395 -0.0226788 -0.999743 
-0.00020991 -7.04311e-05 -1 
-0.000317333 -0.000510496 1 
-0.00188154 -0.022471 0.999746 
-0.00302861 -0.0319018 0.999486 
-0.00447934 -0.0233038 0.999718 
-0.00658349 -0.00755253 0.99995 
-0.00956512 0.00702675 0.99993 
-0.0126071 0.0161196 0.999791 
-0.0157463 0.019116 0.999693 
-0.0180796 0.0162969 0.999704 
-0.01997 0.00919313 0.999758 
-0.0212437 0.000897368 0.999774 
-0.0220016 -0.00539756 0.999743 
-0.0227945 -0.00794777 0.999709 
-0.0244762 -0.00641096 0.99968 
-0.0267714 -0.0017448 0.99964 
-0.0302705 0.00565828 0.999526 
-0.0342558 0.0154768 0.999293 
-0.0387174 0.0272081 0.99888 
-0.0446971 0.0422558 0.998107 
-0.0516343 0.063181 0.996665 
-0.062577 0.0913566 0.99385 
-0.0786391 0.135534 0.987647 
-0.105025 0.190672 0.976019 
-0.146238 0.261887 0.953955 
-0.201738 0.339786 0.918612 
-0.25239 0.408477 0.87718 
-0.28926 0.399707 0.869806 
-0.369197 0.468993 0.802334 
-0.437151 0.49532 0.750704 
-0.483749 0.500382 0.718057 
-0.499034 0.452259 0.739207 
-0.550775 0.428845 0.716058 
-0.582313 0.380422 0.718464 
-0.631668 0.33845 0.697458 
-0.55685 0.276204 0.783345 
-0.583797 0.278092 0.762788 
-0.432008 0.309607 0.847061 
-0.345883 0.326515 0.879633 
-0.0287557 0.71719 0.696284 
0.00763379 0.984895 0.172987 
0.0410811 0.849031 -0.526744 
0.34287 0.378675 -0.859677 
0.425573 0.353685 -0.832943 
0.514823 0.320576 -0.795103 
0.561316 0.283011 -0.777708 
0.610687 0.325904 -0.721698 
0.579125 0.361308 -0.730801 
0.569463 0.417967 -0.707824 
0.53947 0.448324 -0.712726 
0.446458 0.420647 -0.789766 
0.446933 0.468021 -0.762369 
0.358367 0.449212 -0.818402 
0.307633 0.460618 -0.832583 
0.269994 0.385516 -0.882315 
0.211464 0.34861 -0.913101 
0.15168 0.268713 -0.951203 
0.106709 0.191518 -0.975671 
0.0774995 0.130898 -0.988362 
0.0605959 0.0904096 -0.994059 
0.0510321 0.0613719 -0.99681 
0.0443402 0.0407339 -0.998186 
0.0391 0.0257225 -0.998904 
0.0345886 0.0143345 -0.999299 
0.0303241 0.00539137 -0.999526 
0.0275262 -0.00142493 -0.99962 
0.0252408 -0.00591677 -0.999664 
0.0238819 -0.00781132 -0.999684 
0.0228122 -0.00549854 -0.999725 
0.0215135 0.00142604 -0.999768 
0.0204177 0.00986092 -0.999743 
0.0185882 0.0174953 -0.999674 
0.0154959 0.019503 -0.99969 
0.0116915 0.0148717 -0.999821 
0.00906547 0.00512152 -0.999946 
0.0069137 -0.0091939 -0.999934 
0.00492432 -0.0242139 -0.999695 
0.00321356 -0.0314434 -0.9995 
0.00145228 -0.0217518 -0.999762 
0.000177477 0.000633942 -1 
-0.000379032 -0.000508235 1 
-0.00183833 -0.0221973 0.999752 
-0.00257954 -0.0308558 0.999521 
-0.00443406 -0.0228491 0.999729 
-0.00717648 -0.00604082 0.999956 
-0.010389 0.0101788 0.999894 
-0.0132192 0.0200004 0.999713 
-0.0156864 0.0230175 0.999612 
-0.0173369 0.0193869 0.999662 
-0.0183145 0.010957 0.999772 