# vtk DataFile Version 3.0 
Exported using Morpho https://github.com/Morpho-lang/morpho 
ASCII 
DATASET UNSTRUCTURED_GRID 

POINTS 3402 float 
-1.58244 -6.89173 8.11853e-10 
-1.37896 -6.93531 -5.91667e-10 
-1.17602 -6.97259 3.37967e-10 
-0.97133 -7.00404 3.86668e-10 
-0.732757 -7.033 -9.53053e-10 
-0.525978 -7.05148 1.09519e-09 
-0.301534 -7.06464 -7.68165e-10 
-0.0954494 -7.07042 7.531e-10 
0.109206 -7.07022 -2.58235e-10 
0.329646 -7.06338 -4.09485e-10 
0.5316 -7.05106 6.1902e-10 
0.740598 -7.03218 -9.84303e-10 
0.945651 -7.00755 7.50268e-10 
1.17498 -6.97276 -3.6772e-10 
1.38128 -6.93485 5.3908e-10 
1.61073 -6.88517 -3.02277e-10 
-2.42543 -6.64208 -6.78479e-10 
-2.2182 -6.71413 3.86071e-10 
-2.01089 -6.77911 2.93113e-10 
-1.80712 -6.83625 -8.32748e-10 
-1.57854 -6.67573 -1.53872e-16 
-1.34894 -6.70417 -2.84375e-16 
-1.13594 -6.73485 -2.2604e-16 
-0.907917 -6.80242 -1.63631e-16 
-0.685433 -6.79978 -2.9466e-17 
-0.464997 -6.83084 3.82714e-17 
-0.254856 -6.8199 1.38985e-16 
-0.0472657 -6.82257 1.80424e-16 
0.169271 -6.83821 1.36452e-16 
0.379201 -6.81162 -4.12716e-16 
0.586454 -6.80131 -2.72206e-16 
0.793232 -6.77978 -1.47166e-15 
1.01342 -6.7773 4.31118e-16 
1.22845 -6.72077 6.56356e-16 
1.44885 -6.70389 5.01919e-16 
1.6882 -6.6632 5.07154e-17 
1.85585 -6.82318 1.37904e-10 
2.04433 -6.7691 -4.35408e-10 
2.27916 -6.69369 3.88783e-10 
-2.85358 -6.46971 -6.13828e-10 
-2.65665 -6.55303 6.37961e-10 
-2.44795 -6.42762 -1.91864e-16 
-2.21348 -6.48174 -3.08355e-16 
-2.00023 -6.54601 -3.46907e-16 
-1.78739 -6.60084 -3.03105e-16 
-1.54362 -6.45145 3.89715e-16 
-1.3308 -6.48883 7.22474e-16 
-1.10745 -6.50512 6.41047e-16 
-0.902239 -6.58086 5.34444e-16 
-0.699071 -6.55582 -5.48693e-17 
-0.490234 -6.59767 -3.70528e-16 
-0.276252 -6.57887 -5.86899e-16 
-0.0663368 -6.57798 -2.19155e-16 
0.144492 -6.59956 -4.7972e-16 
0.355561 -6.57421 3.20891e-16 
0.56671 -6.55676 9.86979e-16 
0.787473 -6.55309 2.37104e-15 
1.01048 -6.54586 -2.55792e-15 
1.2297 -6.49192 -1.19121e-15 
1.46309 -6.49222 -5.2095e-16 
1.67465 -6.42848 -2.37824e-16 
1.88918 -6.55379 -5.06586e-16 
2.11083 -6.53995 -5.50168e-17 
2.33349 -6.45728 -3.23598e-17 
2.50222 -6.61354 -2.03894e-10 
2.678 -6.54434 -5.64669e-10 
2.91078 -6.44417 6.83893e-10 
-3.2823 -6.26311 -1.57285e-10 
-3.09662 -6.35696 3.3148e-10 
-2.88878 -6.25301 9.28928e-17 
-2.65042 -6.30862 2.10397e-17 
-2.40049 -6.21446 5.54001e-16 
-2.18957 -6.27452 6.32666e-16 
-1.96284 -6.32394 7.87085e-16 
-1.75103 -6.3756 5.93196e-16 
-1.55594 -6.21415 -6.47339e-16 
-1.34611 -6.25732 -7.86143e-16 
-1.13326 -6.28116 -5.67741e-16 
-0.908886 -6.33709 -4.66749e-16 
-0.691124 -6.32473 2.06594e-16 
-0.479742 -6.36092 4.93009e-16 
-0.274459 -6.33496 7.23783e-16 
-0.0689475 -6.33709 7.91318e-17 
0.139902 -6.35977 3.76468e-16 
0.348371 -6.33567 -1.24766e-17 
0.557735 -6.31909 -5.85526e-16 
0.770031 -6.32443 -2.68993e-16 
0.986062 -6.32284 1.66668e-15 
1.19814 -6.26514 6.6651e-16 
1.41767 -6.27583 3.99615e-16 
1.63522 -6.21322 4.88082e-16 
1.88246 -6.31832 2.64507e-16 
2.09207 -6.32295 6.47184e-17 
2.28622 -6.22797 4.44991e-16 
2.51677 -6.33282 3.84493e-16 
2.73397 -6.31287 9.15684e-17 
2.98032 -6.22092 1.21659e-16 
3.16341 -6.32399 3.81198e-10 
3.37689 -6.21262 -8.48643e-10 
-3.71349 -6.01748 -1.00413e-10 
-3.5264 -6.12899 -1.0734e-10 
-3.31171 -6.04722 3.76594e-17 
-3.07493 -6.10399 1.77929e-16 
-2.83165 -6.03338 -2.42499e-16 
-2.62841 -6.10449 2.62754e-16 
-2.4323 -5.98994 -5.9186e-16 
-2.21125 -6.03716 -8.55763e-16 
-1.99994 -6.0998 -8.49735e-16 
-1.77436 -6.13976 -4.66678e-16 
-1.55039 -5.99554 3.08952e-16 
-1.3289 -6.02967 2.86785e-16 
-1.11862 -6.05177 1.59459e-16 
-0.911413 -6.11424 3.2575e-16 
-0.703553 -6.08965 -5.15047e-17 
-0.493114 -6.12229 -4.32274e-17 
-0.284297 -6.09956 -6.24944e-17 
-0.0741725 -6.09613 -2.16535e-16 
0.134121 -6.11994 -5.54447e-16 
0.342895 -6.09873 -1.05502e-16 
0.558042 -6.08824 1.31228e-15 
0.771489 -6.09308 -1.58245e-15 
0.986304 -6.0921 2.76772e-16 
1.19922 -6.0342 8.56548e-17 
1.41098 -6.05204 -5.41333e-16 
1.62282 -5.98564 3.27719e-16 
1.84134 -6.10033 8.57936e-16 
2.06245 -6.08728 7.22164e-16 
2.27884 -6.00763 -2.05531e-16 
2.50003 -6.11177 -2.89097e-16 
2.74004 -6.11176 1.95684e-16 
2.96388 -6.01286 7.94986e-17 
3.20234 -6.0782 7.65242e-17 
3.40981 -5.95748 -6.34254e-17 
3.58029 -6.09766 3.76584e-10 
-3.9445 -5.86864 -1.8172e-10 
-3.72563 -5.79945 -4.32325e-17 
-3.49815 -5.88377 2.27492e-16 
-3.26541 -5.82735 -1.49047e-16 
-3.05688 -5.89721 -1.92922e-16 
-2.85995 -5.80113 -1.07795e-15 
-2.64229 -5.85925 -1.75053e-16 
-2.41476 -5.77297 7.77493e-16 
-2.19932 -5.81743 2.88441e-16 
-1.98493 -5.8725 3.24781e-16 
-1.77509 -5.92264 1.30323e-16 
-1.56122 -5.77974 -1.84529e-16 
-1.33676 -5.81352 1.40824e-16 
-1.11447 -5.8221 -2.69288e-16 
-0.906079 -5.88002 -4.38205e-16 
-0.703548 -5.84911 -7.39163e-17 
-0.502021 -5.88775 2.66271e-16 
-0.293776 -5.86611 2.26451e-16 
-0.0842243 -5.86248 3.07571e-16 
0.126731 -5.88292 -5.34858e-17 
0.34187 -5.87162 -2.82208e-14 
0.553811 -5.85833 -5.56466e-16 
0.766071 -5.86333 2.73334e-15 
0.975706 -5.86609 -1.72127e-15 
1.19479 -5.81592 -4.77597e-16 
1.41694 -5.82287 3.19338e-16 
1.63683 -5.76393 2.85289e-16 
1.84612 -5.87983 -7.82341e-16 
2.0609 -5.86393 -6.84299e-16 
2.26768 -5.78443 -2.63545e-16 
2.48934 -5.88845 -3.1904e-16 
2.7087 -5.90892 -7.7796e-16 
2.92378 -5.80615 -1.76313e-16 
3.16668 -5.86483 7.53547e-17 
3.39836 -5.7536 3.01872e-16 
3.6427 -5.86221 -8.07622e-17 
3.82281 -5.94863 1.90841e-10 
3.99822 -5.83217 4.53274e-10 
-4.38589 -5.54653 4.07798e-12 
-4.13866 -5.73337 4.26379e-12 
-3.92013 -5.63809 1.36546e-16 
-3.6926 -5.57789 -7.54447e-17 
-3.4883 -5.67017 -4.70745e-17 
-3.2928 -5.5912 4.39557e-16 
-3.07972 -5.65648 1.12393e-14 
-2.84984 -5.58827 -1.61292e-14 
-2.62534 -5.63885 1.94359e-16 
-2.40793 -5.55317 -2.25395e-16 
-2.19527 -5.59402 -1.33904e-16 
-1.98306 -5.64622 -6.71059e-17 
-1.77194 -5.6935 2.19418e-16 
-1.57417 -5.55047 -2.96837e-15 
-1.36386 -5.59825 9.69101e-17 
-1.14383 -5.60636 1.77653e-16 
-0.918009 -5.64468 2.018e-16 
-0.694725 -5.63271 -2.92029e-14 
-0.474489 -5.65217 -1.92776e-16 
-0.262898 -5.63462 -5.83233e-17 
-0.0493186 -5.63558 -3.83633e-16 
0.16095 -5.65557 1.21603e-16 
0.372825 -5.64289 -5.27343e-16 
0.589842 -5.63366 -5.87976e-16 
0.796177 -5.63292 -2.70042e-16 
1.00535 -5.64062 1.42768e-16 
1.2381 -5.60426 2.19801e-17 
1.44791 -5.59738 -7.0611e-16 
1.65837 -5.53417 1.0719e-16 
1.85363 -5.65514 -4.30336e-16 
2.05403 -5.63183 -3.24585e-16 
2.26452 -5.56322 -7.12453e-16 
2.48017 -5.66804 5.27389e-16 
2.69966 -5.68811 -1.83188e-17 
2.93075 -5.59695 2.1842e-17 
3.15843 -5.66213 -2.03428e-17 
3.35734 -5.5345 -9.70203e-17 
3.5958 -5.6428 3.29617e-16 
3.82078 -5.67394 -1.17444e-16 
4.03638 -5.59388 -1.277e-16 
4.22818 -5.66767 -2.9821e-10 
-4.5733 -5.39304 -8.06136e-11 
-4.33925 -5.32325 2.97812e-16 
-4.16124 -5.51919 -8.22651e-17 
-3.93629 -5.42972 -4.79329e-16 
-3.72926 -5.35709 -6.29632e-16 
-3.50244 -5.42469 -7.09056e-17 
-3.27104 -5.38061 3.44323e-16 
-3.04835 -5.43714 1.2591e-15 
-2.84104 -5.35453 5.9149e-16 
-2.64031 -5.42225 -2.3887e-16 
-2.42832 -5.34124 5.44679e-16 
-2.20638 -5.36681 -3.22879e-16 
-1.99747 -5.41698 -9.73354e-17 
-1.78742 -5.46271 1.82979e-17 
-1.54955 -5.34245 7.74564e-17 
-1.32695 -5.38472 -2.41873e-16 
-1.12088 -5.37559 3.07669e-16 
-0.92426 -5.43236 -1.53549e-16 
-0.730941 -5.39395 6.60887e-15 
-0.52792 -5.42889 2.54149e-16 
-0.318693 -5.41293 2.27761e-16 
-0.10349 -5.41081 5.68202e-17 
0.112606 -5.42322 5.42896e-17 
0.317739 -5.42051 2.41293e-16 
0.530676 -5.41944 3.85217e-16 
0.748477 -5.40192 -3.41797e-16 
0.954777 -5.41211 1.59191e-16 
1.16122 -5.41705 3.90021e-16 
1.39555 -5.37603 5.2159e-16 
1.59653 -5.33094 7.64542e-17 
1.85281 -5.41539 5.42196e-16 
2.06005 -5.40581 8.05972e-16 
2.28277 -5.3509 8.51777e-16 
2.49231 -5.45626 -5.51198e-16 
2.71596 -5.47383 1.64601e-16 
2.91486 -5.3686 1.17572e-16 
3.12684 -5.44239 1.40974e-16 
3.33315 -5.31859 2.29751e-14 
3.57016 -5.42971 -1.87154e-16 
3.79923 -5.45513 1.86754e-16 
4.02746 -5.38294 2.07351e-16 
4.25793 -5.42317 -1.64359e-16 
4.44919 -5.49588 3.33357e-11 
-4.79357 -5.19824 -1.25381e-10 
-4.56356 -5.18311 1.33794e-16 
-4.34916 -5.10038 -3.94332e-16 
-4.12279 -5.28745 3.15791e-16 
-3.91186 -5.19029 4.56438e-16 
-3.6854 -5.1346 7.77088e-16 
-3.48892 -5.21472 9.93395e-16 
-3.28403 -5.15184 -4.30224e-16 
-3.07577 -5.21658 -1.46979e-15 
-2.85515 -5.14832 -6.57866e-16 
-2.62242 -5.19141 1.8855e-16 
-2.39336 -5.13377 -7.21811e-16 
-2.17487 -5.15406 2.56722e-16 
-1.96256 -5.19912 2.5557e-17 
-1.75453 -5.24573 2.91604e-16 
-1.55829 -5.11315 -1.50525e-14 
-1.35202 -5.17184 2.06204e-16 
-1.13586 -5.15084 -4.70732e-17 
-0.925405 -5.19075 5.36643e-17 
-0.710563 -5.17268 -8.72e-17 
-0.501887 -5.2001 -2.04381e-16 
-0.286134 -5.1928 -1.82227e-16 
-0.0673298 -5.19397 -4.83666e-17 
0.138778 -5.19285 -3.05757e-16 
0.350368 -5.1988 1.41985e-16 
0.566359 -5.20232 -1.78641e-17 
0.778218 -5.17575 -4.95535e-17 
0.984904 -5.18733 -2.94778e-16 
1.20547 -5.21257 -2.4728e-16 
1.40861 -5.14238 1.10612e-14 
1.69063 -5.17972 -4.14737e-16 
1.8954 -5.18849 -1.63527e-16 
2.10671 -5.18588 -1.24743e-16 
2.29268 -5.0984 -3.90001e-16 
2.46746 -5.22028 6.47896e-16 
2.66836 -5.26201 -5.34046e-16 
2.87359 -5.16539 -5.31241e-16 
3.1167 -5.21734 -1.61647e-16 
3.34625 -5.10608 2.21897e-16 
3.5641 -5.22619 2.89815e-16 
3.80145 -5.24227 2.44615e-16 
4.0144 -5.16129 2.10045e-16 
4.23551 -5.20629 1.94259e-16 
4.46464 -5.24625 -1.01123e-16 
4.65664 -5.32125 -1.3903e-10 
4.79541 -5.19654 -8.62048e-11 
-4.99423 -5.00577 1.37853e-10 
-4.76391 -4.98771 2.24895e-16 
-4.54882 -4.95567 -6.99705e-17 
-4.32878 -4.87186 5.21734e-17 
-4.13667 -5.06386 -8.46266e-16 
-3.91291 -4.97988 4.53735e-16 
-3.6917 -4.92353 -7.69712e-16 
-3.46877 -4.97794 -6.79747e-16 
-3.25315 -4.92909 -8.86619e-16 
-3.05198 -4.99695 -7.30346e-17 
-2.85019 -4.9171 9.65518e-16 
-2.65018 -4.98981 7.83899e-16 
-2.43606 -4.93215 -4.76784e-17 
-2.2042 -4.94041 8.56163e-17 
-1.9813 -4.97444 -2.91708e-16 
[...]
POINT_DATA 3402 
VECTORS vectors float
8.3917e-05 -6.06079e-05 1 
0.000234871 -7.95962e-05 1 
0.000270103 -9.17963e-05 1 
2.5425e-05 -4.17311e-05 1 
-4.33723e-06 1.29801e-06 1 
0.000235515 -5.10702e-05 1 
-6.51392e-06 9.90936e-07 1 
0.000356952 -1.82609e-06 1 
8.77135e-05 -1.34212e-05 1 
0.000124184 2.99468e-05 1 
0.000256677 3.67399e-05 1 
0.000216567 4.19088e-05 1 
6.30778e-05 2.42919e-05 1 
4.31117e-05 6.35163e-05 1 
0.000268163 7.7659e-05 1 
-0.000275783 -4.22036e-05 1 
-6.66398e-05 -4.2296e-05 1 
0.000144585 -9.73155e-05 1 
0.000207163 -0.000131126 1 
-6.6641e-07 -5.49791e-05 1 
0.0540049 -0.0127124 0.99846 
0.0571276 -0.0113957 0.998302 
0.0574139 -0.00969846 0.998303 
0.0542047 -0.00725617 0.998503 
0.0580099 -0.00592095 0.998298 
0.0559467 -0.00389804 0.998426 
0.0582899 -0.00218754 0.998297 
0.0585341 -0.000436518 0.998285 
0.0564991 0.00134537 0.998402 
0.0584927 0.00322821 0.998283 
0.0574577 0.00491805 0.998336 
0.0575236 0.00670822 0.998322 
0.0549331 0.00824501 0.998456 
0.0570317 0.0104907 0.998317 
0.0538783 0.0116552 0.998479 
0.0516345 0.0131417 0.99858 
0.000181585 0.00013925 1 
0.000277162 0.000105155 1 
-0.000345264 -6.36506e-05 1 
-5.31215e-05 -2.98032e-05 1 
9.62392e-05 -0.000112966 1 
0.0500812 -0.0189932 0.998565 
0.053599 -0.0182103 0.998396 
0.0546972 -0.0166357 0.998364 
0.0559831 -0.0151183 0.998317 
0.0683459 -0.0164069 0.997527 
0.0691896 -0.0143067 0.997501 
0.0700854 -0.0120606 0.997468 
0.0690845 -0.00961972 0.997564 
0.0705535 -0.00763847 0.997479 
0.0698451 -0.00524027 0.997544 
0.0703048 -0.00296213 0.997521 
0.0705628 -0.000698059 0.997507 
0.0699267 0.00154625 0.997551 
0.0702675 0.00378399 0.997521 
0.069704 0.00604722 0.997549 
0.0697421 0.00837803 0.99753 
0.0687813 0.0105905 0.997576 
0.0690711 0.0131032 0.997526 
0.0678684 0.0153482 0.997576 
0.0676894 0.0176391 0.997551 
0.0577118 0.0166551 0.998194 
0.0513592 0.0165172 0.998544 
0.0516112 0.0186147 0.998494 
0.000369438 0.00025347 1 
0.000264937 0.000148573 1 
-0.000280977 -7.29192e-05 1 
2.42812e-05 -7.03491e-05 1 
1.20218e-05 -9.90242e-05 1 
0.0467637 -0.0215541 0.998673 
0.0526938 -0.0220436 0.998367 
0.065001 -0.0249797 0.997572 
0.0662534 -0.0230253 0.997537 
0.0674996 -0.0208877 0.997501 
0.0685371 -0.0187858 0.997472 
0.0731609 -0.0182094 0.997154 
0.0737818 -0.0158397 0.997149 
0.0740554 -0.0133915 0.997164 
0.0741788 -0.010707 0.997187 
0.0744833 -0.00825649 0.997188 
0.0745438 -0.00574829 0.997201 
0.0746338 -0.00334805 0.997205 
0.0745554 -0.000891812 0.997216 
0.0744611 0.00159197 0.997223 
0.0745281 0.00410305 0.99721 
0.0742594 0.00657955 0.997217 
0.073812 0.00898165 0.997232 
0.0734568 0.0113527 0.997234 
0.0732002 0.0139297 0.99722 
0.072488 0.0163689 0.997235 
0.0719764 0.0189533 0.997226 
0.0684262 0.020433 0.997447 
0.0659075 0.0217597 0.997588 
0.0660879 0.0240758 0.997523 
0.0565462 0.0223943 0.998149 
0.0484376 0.0208517 0.998609 
0.0448827 0.0214596 0.998762 
-8.6223e-05 3.43912e-05 1 
0.000210554 0.000187569 1 
4.67304e-05 -0.000107199 1 
-9.84326e-05 -3.35261e-05 1 
0.0443456 -0.0242576 0.998722 
0.05178 -0.0260585 0.998318 
0.0627989 -0.0293908 0.997593 
0.0644554 -0.0276308 0.997538 
0.0687834 -0.0277282 0.997246 
0.0702706 -0.0255052 0.997202 
0.0712966 -0.023167 0.997186 
0.0723956 -0.0207682 0.99716 
0.0718901 -0.0185445 0.99724 
0.0719234 -0.0158883 0.997284 
0.0717397 -0.0133266 0.997334 
0.072658 -0.010935 0.997297 
0.0712704 -0.00835227 0.997422 
0.0716928 -0.00586383 0.99741 
0.0706034 -0.00339537 0.997499 
0.0702515 -0.000971466 0.997529 
0.0708636 0.00152871 0.997485 
0.0703536 0.00399902 0.997514 
0.0704661 0.00651919 0.997493 
0.0711395 0.0091059 0.997425 
0.0717355 0.0116833 0.997355 
0.0711246 0.0141894 0.997367 
0.0721209 0.0168341 0.997254 
0.0714035 0.0193607 0.99726 
0.0720212 0.0217299 0.997166 
0.0707311 0.0238851 0.997209 
0.0697803 0.0263061 0.997215 
0.0660691 0.0269268 0.997452 
0.0627443 0.0281696 0.997632 
0.0619062 0.0304244 0.997618 
0.0478189 0.0252299 0.998537 
0.0474185 0.027088 0.998508 
-0.000240407 -9.32291e-05 1 
-6.42655e-05 -3.97746e-05 1 
0.0427659 -0.0274403 0.998708 
0.0486862 -0.0289454 0.998395 
0.0600988 -0.0336555 0.997625 
0.0622612 -0.032213 0.99754 
0.0661482 -0.0324568 0.997282 
0.0678573 -0.0304291 0.997231 
0.0692273 -0.0288672 0.997183 
0.0699446 -0.0263097 0.997204 
0.070405 -0.0236616 0.997238 
0.0707643 -0.0211094 0.99727 
0.0640273 -0.0172036 0.9978 
0.0633864 -0.0145727 0.997883 
0.0620393 -0.0119111 0.998003 
0.0631554 -0.00978105 0.997956 
0.0602227 -0.00731739 0.998158 
0.0614942 -0.00535739 0.998093 
0.0597164 -0.00311997 0.998211 
0.0591738 -0.000961425 0.998247 
0.0601869 0.00121799 0.998186 
0.0597824 0.00349219 0.998205 
0.0601883 0.00577517 0.99817 
0.0611943 0.00810636 0.998093 
0.0625379 0.0105441 0.997987 
0.0620832 0.0128325 0.997988 
0.0641677 0.0156098 0.997817 
0.0639107 0.0181566 0.99779 
0.0697946 0.0219495 0.99732 
0.0701876 0.0246463 0.997229 
0.0693427 0.0272122 0.997222 
0.0688663 0.0290461 0.997203 
0.0671051 0.0307142 0.997273 
0.0658487 0.0330882 0.997281 
0.0615314 0.0331747 0.997554 
0.0596307 0.0351964 0.9976 
0.0420853 0.026181 0.998771 
6.42487e-05 0.000155439 1 
5.60844e-05 0.000108452 1 
-0.000113734 1.16891e-05 1 
-5.57568e-05 -1.20267e-05 1 
0.0444187 -0.0308644 0.998536 
0.0574095 -0.0380328 0.997626 
0.0593712 -0.0365295 0.997567 
0.0631115 -0.0371561 0.997315 
0.0649315 -0.0353132 0.997265 
0.0666069 -0.0339366 0.997202 
0.0674249 -0.0312912 0.997234 
0.0632552 -0.0272833 0.997624 
0.0628582 -0.0244891 0.997722 
0.0624164 -0.0217662 0.997813 
0.0620456 -0.0192031 0.997889 
0.0528937 -0.0149242 0.998489 
0.0529029 -0.0128857 0.998517 
0.051447 -0.0105534 0.99862 
0.0515606 -0.00847406 0.998634 
0.0494913 -0.00619347 0.998755 
0.0493418 -0.00420136 0.998773 
0.047974 -0.00228685 0.998846 
0.0479227 -0.000429479 0.998851 
0.0489737 0.00141816 0.998799 
0.0487115 0.00332798 0.998807 
0.0488535 0.00520388 0.998792 
0.0501396 0.0072354 0.998716 
0.051523 0.00931097 0.998628 
0.0514792 0.0114162 0.998609 
0.0537676 0.0139228 0.998456 
0.0528595 0.0158105 0.998477 
0.0610052 0.0199694 0.997938 
0.0629402 0.0229955 0.997752 
0.062275 0.0253393 0.997737 
0.067498 0.0295343 0.997282 
0.068039 0.032174 0.997164 
0.0666207 0.0347963 0.997171 
0.0644217 0.0359035 0.997277 
0.0631456 0.0382535 0.997271 
0.0580812 0.0370027 0.997626 
0.0475512 0.0320936 0.998353 
0.0402499 0.0289942 0.998769 
-0.000112824 -2.04685e-05 1 
4.4424e-05 -0.000101177 1 
0.0412696 -0.0336688 0.998581 
0.0376284 -0.0283497 0.99889 
0.0554425 -0.0402885 0.997649 
0.0598918 -0.0416991 0.997334 
0.0622553 -0.0401757 0.997251 
0.0639129 -0.0389006 0.997197 
0.0648454 -0.0364373 0.99723 
0.0616423 -0.0326691 0.997564 
0.0614549 -0.0298204 0.997664 
0.0543442 -0.0245883 0.998219 
0.0521708 -0.0212573 0.998412 
0.0516371 -0.0188908 0.998487 
0.0508296 -0.0165086 0.998571 
0.0432216 -0.0124765 0.998988 
0.0428742 -0.0105569 0.999025 
0.0413699 -0.00864234 0.999107 
0.0424159 -0.00727374 0.999074 
0.0397362 -0.00543527 0.999195 
0.0403163 -0.00397001 0.999179 
0.0389356 -0.00231181 0.999239 
0.0387313 -0.000734553 0.999249 
0.0391442 0.000837523 0.999233 
0.0395332 0.00234733 0.999216 
0.0394168 0.00390613 0.999215 
0.0403317 0.0055995 0.999171 
0.0411975 0.00728686 0.999124 
0.0425459 0.00911091 0.999053 
0.0431012 0.011159 0.999008 
0.0429989 0.01281 0.998993 
0.0493132 0.0167909 0.998642 
0.0520483 0.0196162 0.998452 
0.052551 0.0222236 0.998371 
0.0603476 0.0275402 0.997797 
0.0638137 0.0316037 0.997461 
0.0626389 0.0339438 0.997459 
0.0650622 0.0373129 0.997183 
0.0635814 0.039801 0.997183 
0.0612823 0.0402488 0.997309 
0.0574561 0.040109 0.997542 
0.0541492 0.0405494 0.997709 
0.0385954 0.030261 0.998797 
-0.000235331 -0.000133671 1 
-0.000113848 4.68605e-05 1 
0.0362782 -0.0318964 0.998833 
0.0521044 -0.044414 0.997654 
0.0539237 -0.0420381 0.99766 
0.0587944 -0.0443424 0.997285 
0.0610237 -0.0439229 0.997169 
0.0622392 -0.0417865 0.997186 
0.0602064 -0.0383651 0.997448 
0.0592451 -0.0348424 0.997635 
0.0529158 -0.0292106 0.998172 
0.0510965 -0.0257248 0.998362 
0.0445481 -0.0205999 0.998795 
0.0423871 -0.0177425 0.998944 
0.0416001 -0.015597 0.999013 
0.0411488 -0.0137023 0.999059 
0.034771 -0.0106017 0.999339 
0.0351627 -0.00921484 0.999339 
0.0331491 -0.0073172 0.999424 
0.0333832 -0.00596114 0.999425 
0.0315497 -0.00433085 0.999493 
0.0317922 -0.00306192 0.99949 
0.0308672 -0.00166642 0.999522 
0.030808 -0.000343977 0.999525 
0.0307267 0.000889461 0.999527 
0.0313968 0.00216314 0.999505 
0.0317479 0.00354011 0.99949 
0.0321891 0.00484803 0.99947 
0.0331128 0.00630153 0.999432 
0.0354579 0.00821875 0.999337 
0.034248 0.00937583 0.999369 
0.0381509 0.0124169 0.999195 
0.0401348 0.0146382 0.999087 
0.0431882 0.017421 0.998915 
0.0417777 0.0187135 0.998952 
0.0494134 0.0232073 0.998509 
0.0544927 0.0276165 0.998132 
0.0540696 0.0300752 0.998084 
0.0601939 0.035925 0.99754 
0.0597277 0.0390943 0.997449 
0.0619553 0.0422109 0.997186 
0.0596134 0.0432069 0.997286 
0.0573557 0.0445798 0.997358 
0.0527632 0.0426768 0.997695 
0.0386752 0.0331058 0.998703 
0.000263441 0.000371622 1 
0.000136486 0.000199792 1 
-1.12013e-06 -4.75503e-05 1 
0.0355374 -0.0339525 0.998791 
0.0499009 -0.0458575 0.997701 
0.0549869 -0.0487928 0.997294 
0.0565273 -0.0460839 0.997337 
0.0589838 -0.0463853 0.997181 
0.0582174 -0.0436233 0.99735 
0.0569581 -0.0396562 0.997589 
0.0511809 -0.0337871 0.998118 
0.0502649 -0.0307277 0.998263 
0.0432163 -0.0251228 0.99875 
0.0424452 -0.0226238 0.998843 
0.038418 -0.0189415 0.999082 
0.0348625 -0.0155218 0.999272 
0.0334893 -0.0133344 0.99935 
0.0329552 -0.0116541 0.999389 
0.0273564 -0.00866446 0.999588 
0.0272472 -0.00731354 0.999602 
0.0250867 -0.00567347 0.999669 
0.0253407 -0.00461771 0.999668 
0.0229404 -0.00327023 0.999731 
0.0233062 -0.00236734 0.999726 
0.0229373 -0.00138718 0.999736 
0.0227589 -0.000380057 0.999741 
0.0222505 0.000603905 0.999752 
0.0229055 0.00156668 0.999736 
0.0240124 0.00260681 0.999708 
0.0237394 0.0036421 0.999712 
0.0249344 0.00481789 0.999677 
0.0275227 0.00644497 0.9996 
0.0266707 0.00750405 0.999616 
0.0311986 0.0100203 0.999463 
0.0318799 0.0118444 0.999422 
0.0344237 0.0141971 0.999306 
0.0339611 0.0156334 0.999301 
0.0392438 0.0195983 0.999037 
0.044661 0.0235024 0.998726 
0.0450464 0.0261129 0.998644 
0.0521778 0.0321232 0.998121 
0.0508179 0.0339763 0.99813 
0.0588086 0.0416296 0.997401 
0.0601178 0.0447891 0.997186 
0.0586192 0.0465927 0.997193 
0.0565164 0.0471468 0.997288 
0.0527877 0.0459079 0.99755 
0.0446791 0.0407778 0.998169 
0.034046 0.0326845 0.998886 
-0.000226406 -0.000199438 1 
-9.1727e-05 7.27843e-05 1 
0.0323235 -0.0335983 0.998913 
0.0474187 -0.0474765 0.997746 
0.0527258 -0.0505235 0.99733 
0.0552329 -0.0511252 0.997164 
0.0570914 -0.0484186 0.997194 
0.0561198 -0.0457317 0.997376 
0.050685 -0.0398261 0.99792 
0.0494739 -0.0362696 0.998117 
0.0432259 -0.030065 0.998613 
0.0406146 -0.0260697 0.998835 
0.0351186 -0.0212493 0.999157 
0.0341469 -0.0189114 0.999238 
0.0313615 -0.0158293 0.999383 
0.0279076 -0.0128192 0.999528 
0.0260044 -0.0107969 0.999604 
0.0253574 -0.00933307 0.999635 
0.0194656 -0.00649506 0.999789 
0.0197015 -0.00563195 0.99979 
0.01736 -0.0041799 0.999841 
0.0168381 -0.00325719 0.999853 
0.015004 -0.0022159 0.999885 
0.0146331 -0.00147972 0.999892 
0.014879 -0.000835673 0.999889 
0.0146925 -0.000168352 0.999892 
0.014082 0.000457469 0.999901 
0.0146743 0.00110884 0.999892 
0.0161315 0.00191438 0.999868 
0.0153885 0.00248855 0.999878 
0.0171764 0.00353491 0.999846 
0.0197271 0.00488567 0.999793 
0.0199544 0.00603841 0.999783 
0.0246068 0.00843835 0.999662 
0.0250746 0.00988401 0.999637 
0.0268782 0.0117312 0.99957 
0.0297698 0.0147888 0.999447 
0.0323503 0.0173623 0.999326 
0.0369495 0.020937 0.999098 
0.0353527 0.0218788 0.999135 
0.0420836 0.0267645 0.998756 
0.0408123 0.0282782 0.998767 
0.0499155 0.036066 0.998102 
0.054441 0.0418169 0.997641 
0.055131 0.0454696 0.997443 
0.0564002 0.0489528 0.997207 
0.0543468 0.0493017 0.997304 
0.0510472 0.0486672 0.99751 
0.0464617 0.046916 0.997818 
0.0308404 0.0325351 0.998995 
-5.13508e-05 -1.80236e-06 1 
-4.09839e-05 -2.60896e-05 1 
0.031344 -0.0356603 0.998872 
0.0452019 -0.0490772 0.997772 
0.0505238 -0.052781 0.997327 
0.0528658 -0.0528423 0.997203 
0.0531317 -0.0513423 0.997267 
0.055023 -0.0485264 0.997305 
0.0493265 -0.0423251 0.997886 
0.0424754 -0.0347911 0.998492 
0.0400024 -0.0304688 0.998735 
0.035305 -0.0250427 0.999063 
0.0324513 -0.0215587 0.999241 
0.0281686 -0.017486 0.99945 
0.0273497 -0.0155469 0.999505 
0.0245748 -0.0127852 0.999616 
0.0206179 -0.00991808 0.999738 
0.0182738 -0.00799067 0.999801 
0.0177354 -0.00690067 0.999819 
0.0123819 -0.00435133 0.999914 
0.0121844 -0.00362671 0.999919 
0.0103589 -0.0025601 0.999943 
0.009714 -0.00191082 0.999951 
0.00832432 -0.00123492 0.999965 
0.00792204 -0.000790343 0.999968 
0.00817952 -0.000421352 0.999966 
0.00794016 -4.47064e-05 0.999968 
0.00753818 0.000303866 0.999972 
0.00820159 0.000712538 0.999966 
0.00892281 0.00116826 0.99996 
0.00903545 0.00162362 0.999958 
0.0105162 0.00237669 0.999942 
0.0133065 0.00360728 0.999905 
0.0115534 0.00368139 0.999926 
0.016448 0.00580243 0.999848 
0.018036 0.00718111 0.999812 
0.0190406 0.00865089 0.999781 
0.0236739 0.0116905 0.999651 
0.0246275 0.0136649 0.999603 
0.0288346 0.0171436 0.999437 
0.0283371 0.0184805 0.999428 
0.0333863 0.0228013 0.999182 
0.040577 0.030573 0.998709 
0.0457872 0.0363445 0.99829 
0.0470597 0.0400942 0.998087 
0.0523137 0.0467836 0.997534 
0.0543829 0.0510176 0.997216 
0.0526448 0.0516824 0.997275 
0.0506492 0.0522779 0.997347 
0.0459701 0.0496717 0.997707 
0.0347841 0.0397134 0.998605 
0.000155765 0.000318531 1 
2.46026e-05 -0.000136788 1 
0.0327662 -0.0402689 0.998651 
0.0442515 -0.0519648 0.997668 
0.0484829 -0.0546598 0.997327 
0.051053 -0.0551659 0.997171 
0.0517402 -0.053564 0.997223 
0.0460124 -0.0464711 0.997859 
0.0495541 -0.0461667 0.997704 
0.0421374 -0.0390332 0.998349 
0.0386277 -0.0339511 0.998677 
0.0337776 -0.0277374 0.999044 
0.0316829 -0.0242624 0.999203 
0.0274426 -0.0198314 0.999427 
0.0249323 -0.0168215 0.999548 
0.0212021 -0.0131293 0.999689 
0.0198145 -0.0112705 0.99974 
0.015814 -0.0083453 0.99984 
0.0122964 -0.00593174 0.999907 
0.0107005 -0.00459959 0.999932 
0.00843198 -0.00329079 0.999959 
0.00669932 -0.00219244 0.999975 
0.00571958 -0.0015832 0.999982 
0.00483463 -0.00107368 0.999988 
0.00414404 -0.000711682 0.999991 
0.00359397 -0.000428815 0.999993 
0.0036246 -0.00024503 0.999993 
0.00354421 -6.79876e-05 0.999994 
0.00340046 9.74019e-05 0.999994 
0.00362774 0.00028568 0.999993 
0.0038993 0.000496858 0.999992 
0.0044785 0.000776325 0.99999 
0.005119 0.00116574 0.999986 
0.00682548 0.00187662 0.999975 
0.00617929 0.00206624 0.999979 
0.00958493 0.00363434 0.999947 
0.0119737 0.0051359 0.999915 
0.0130137 0.00633759 0.999895 
0.0178099 0.0093721 0.999797 
0.0174529 0.010161 0.999796 
0.0221117 0.013675 0.999662 
0.0223747 0.0152215 0.999634 
0.0268691 0.0194402 0.99945 
0.032929 0.0246024 0.999155 
0.0351405 0.0286187 0.998973 
0.0379046 0.0326204 0.998749 
0.0428643 0.0393672 0.998305 
0.0494361 0.0474651 0.997649 
0.0517726 0.0523622 0.997285 
0.0511245 0.0543538 0.997212 
0.0491148 0.0546541 0.997297 
0.0451358 0.0528978 0.997579 
0.0351428 0.042894 0.998461 
-5.10049e-05 -2.18238e-05 1 
-2.83373e-05 -5.82244e-05 1 
0.0318218 -0.0420958 0.998607 
0.042793 -0.0544407 0.9976 
0.0466095 -0.0569564 0.997288 
0.0489401 -0.0570792 0.997169 
0.0490369 -0.0547075 0.997298 
0.0447278 -0.0482011 0.997836 
0.0383534 -0.0380444 0.99854 
0.0325507 -0.0308196 0.998995 
0.0306633 -0.0271138 0.999162 
0.0266651 -0.022066 0.999401 
0.0239851 -0.0187236 0.999537 
0.0200719 -0.0147012 0.99969 
0.0179669 -0.0121393 0.999765 
0.0137857 -0.00861611 0.999868 
0.0116914 -0.00677364 0.999909 
0.00842842 -0.00449077 0.999954 
0.00635074 -0.00304049 0.999975 
0.00420074 -0.00184545 0.999989 
0.00415011 -0.00157093 0.99999 
0.00268667 -0.000885768 0.999996 
0.0022709 -0.000620909 0.999997 
0.0016786 -0.000368839 0.999999 
0.00135627 -0.000223464 0.999999 
0.00113359 -0.000122129 0.999999 
0.00103591 -5.56042e-05 0.999999 
0.000982208 -1.61344e-06 1 
0.00108922 5.60085e-05 0.999999 
0.00114634 0.000119281 0.999999 
0.00128888 0.000198809 0.999999 
0.00196693 0.000399778 0.999998 
0.00182265 0.000460929 0.999998 
0.00310402 0.000909889 0.999995 
0.00269437 0.000956234 0.999996 
0.00491226 0.00196635 0.999986 
0.00676538 0.00306343 0.999972 
0.00695501 0.00355244 0.99997 
0.0108849 0.00599486 0.999923 
0.0114683 0.00703171 0.99991 
0.0158947 0.0104124 0.999819 
0.018539 0.0135176 0.999737 
0.0224947 0.0174456 0.999595 
0.0281928 0.0225123 0.999349 
0.0282021 0.0243708 0.999305 
0.0328816 0.0299247 0.999011 
0.0370776 0.0359039 0.998667 
0.0437019 0.0441904 0.998067 
0.0466915 0.0497808 0.997668 
0.0489422 0.0548396 0.997295 
0.0484068 0.0566909 0.997218 
0.0463068 0.0571567 0.997291 
0.042192 0.0541239 0.997642 
0.0282131 0.037317 0.998905 
-0.00017656 -0.000123812 1 
-9.56091e-05 4.90645e-05 1 
0.0291254 -0.0417432 0.998704 
0.0403514 -0.055815 0.997625 
0.0441287 -0.0587127 0.997299 
0.0463605 -0.0591423 0.997172 
0.0465952 -0.0566084 0.997309 
0.0429126 -0.0502273 0.997815 
0.0364969 -0.0415615 0.998469 
0.0358071 -0.0382132 0.998628 
0.0301374 -0.0307641 0.999072 
0.0259632 -0.0249751 0.999351 
0.0242199 -0.021719 0.999471 
0.0197209 -0.0168709 0.999663 
0.0171817 -0.0137394 0.999758 
0.0134118 -0.00996824 0.99986 
0.0110531 -0.00758413 0.99991 
0.00714305 -0.00459802 0.999964 
0.00577787 -0.0034084 0.999977 
0.00383318 -0.0020505 0.999991 
0.00222753 -0.00110772 0.999997 
0.0016637 -0.000721565 0.999998 
0.00117948 -0.000454811 0.999999 
0.00060567 -0.000207486 1 
0.000276916 -8.6138e-05 1 
-8.72426e-05 5.09451e-06 1 
-0.00027141 3.07004e-05 1 
-0.000547404 4.26488e-05 1 
-0.000672347 2.06802e-05 1 
-0.00053212 -9.92195e-06 1 
-0.000449716 -3.05585e-05 1 
-0.000386738 -4.38505e-05 1 
0.00017729 4.45084e-05 1 
0.000281197 8.47077e-05 1 
0.000920381 0.000304037 1 
0.00058275 0.000233317 1 
0.00184332 0.000777383 0.999998 
0.00295245 0.00139291 0.999995 
0.00340331 0.00183179 0.999993 
0.00609843 0.00356126 0.999975 
0.00617216 0.00399966 0.999973 
0.0098375 0.0067435 0.999929 
0.0131539 0.00964817 0.999867 
0.0163147 0.0132143 0.99978 
0.0220564 0.0186846 0.999582 
0.0244936 0.0225881 0.999445 
0.0287313 0.0278432 0.999199 
0.0297735 0.0307434 0.999084 
0.0357246 0.0374901 0.998658 
0.038964 0.0433223 0.998301 
0.0432805 0.0504417 0.997789 
0.0462016 0.0563989 0.997339 
0.045998 0.0590645 0.997194 
0.0440268 0.0585777 0.997312 
0.0401221 0.0552193 0.997668 
0.0305133 0.043806 0.998574 
0.000166646 0.000385346 1 
1.4099e-05 -0.000174102 1 
0.0278643 -0.0434447 0.998667 
0.0381989 -0.0571904 0.997632 
0.0417598 -0.0603348 0.997304 
0.0438923 -0.0609002 0.997178 
0.0434147 -0.0576728 0.997391 
0.0402863 -0.0513063 0.99787 
0.0346479 -0.0427147 0.998486 
0.029092 -0.034143 0.998993 
0.0279705 -0.0307711 0.999135 
0.0237554 -0.0246597 0.999414 
0.0198264 -0.0192529 0.999618 
0.0165826 -0.0153109 0.999745 
0.0125595 -0.0108533 0.999862 
0.0100788 -0.00809584 0.999916 
0.00704295 -0.00523044 0.999962 
0.00449575 -0.00313579 0.999985 
0.00273307 -0.0017512 0.999995 
0.00211775 -0.00123776 0.999997 
0.000778647 -0.000433973 1 
0.000534497 -0.000271763 1 
-8.56808e-05 1.49789e-05 1 
-0.000364549 0.000107954 1 
-0.000932643 0.000259412 1 
-0.00135256 0.000308975 0.999999 
-0.00176142 0.000301449 0.999998 
-0.00221478 0.000257174 0.999998 
-0.00274427 0.000163825 0.999996 
-0.00269375 7.66969e-06 0.999996 
-0.00244646 -0.000130122 0.999997 
-0.00227433 -0.000250722 0.999997 
-0.00207393 -0.000346076 0.999998 
-0.00116326 -0.00023585 0.999999 
-0.00138579 -0.000357749 0.999999 
-0.000423504 -0.000117676 1 
-0.000513368 -0.000182644 1 
0.00039704 0.000195606 1 
0.00107712 0.000561196 0.999999 
0.00111573 0.000652684 0.999999 
0.0027325 0.00167129 0.999995 
0.00328917 0.00225581 0.999992 