# vtk DataFile Version 3.0 
Exported using Morpho https://github.com/Morpho-lang/morpho 
ASCII 
DATASET UNSTRUCTURED_GRID 

POINTS 3402 float 
-1.58244 -6.89173 8.12602e-10 
-1.37896 -6.93531 -5.92213e-10 
-1.17602 -6.97259 3.38278e-10 
-0.97133 -7.00404 3.87024e-10 
-0.732757 -7.033 -9.53932e-10 
-0.525978 -7.05148 1.0962e-09 
-0.301534 -7.06464 -7.68874e-10 
-0.0954494 -7.07042 7.53795e-10 
0.109206 -7.07022 -2.58474e-10 
0.329646 -7.06338 -4.09863e-10 
0.5316 -7.05106 6.19591e-10 
0.740598 -7.03218 -9.85211e-10 
0.945651 -7.00755 7.50961e-10 
1.17498 -6.97276 -3.6806e-10 
1.38128 -6.93485 5.39577e-10 
1.61073 -6.88517 -3.02556e-10 
-2.42543 -6.64208 -6.79105e-10 
-2.2182 -6.71413 3.86427e-10 
-2.01089 -6.77911 2.93383e-10 
-1.80712 -6.83625 -8.33516e-10 
-1.57822 -6.67575 3.65895e-13 
-1.34869 -6.70422 6.76013e-13 
-1.13574 -6.73489 5.38121e-13 
-0.907819 -6.8024 3.88682e-13 
-0.685542 -6.79965 6.85349e-14 
-0.465114 -6.83072 -9.13227e-14 
-0.254866 -6.81966 -3.32364e-13 
-0.0471636 -6.82262 -4.29774e-13 
0.169403 -6.83872 -3.24669e-13 
0.378765 -6.81084 9.81664e-13 
0.586002 -6.80217 6.48184e-13 
0.792042 -6.78025 3.50377e-12 
1.01449 -6.77768 -1.02618e-12 
1.22929 -6.72039 -1.56292e-12 
1.44994 -6.70389 -1.19324e-12 
1.68833 -6.66348 -1.21354e-13 
1.85585 -6.82318 1.38032e-10 
2.04433 -6.7691 -4.35809e-10 
2.27916 -6.69369 3.89141e-10 
-2.85358 -6.46971 -6.14394e-10 
-2.65665 -6.55303 6.3855e-10 
-2.44785 -6.42755 4.56419e-13 
-2.21332 -6.48191 7.33427e-13 
-1.99992 -6.54616 8.25628e-13 
-1.78699 -6.60088 7.22722e-13 
-1.5438 -6.4512 -9.2656e-13 
-1.33129 -6.48877 -1.71813e-12 
-1.10808 -6.50504 -1.52535e-12 
-0.902683 -6.58062 -1.27123e-12 
-0.699175 -6.55597 1.30636e-13 
-0.490085 -6.59752 8.81506e-13 
-0.27602 -6.5787 1.39644e-12 
-0.0660094 -6.57774 5.2115e-13 
0.14479 -6.59974 1.1414e-12 
0.356154 -6.57405 -7.63582e-13 
0.567719 -6.55684 -2.34996e-12 
0.788522 -6.55242 -5.64419e-12 
1.00898 -6.54662 6.08924e-12 
1.22873 -6.4923 2.83551e-12 
1.46277 -6.49188 1.23931e-12 
1.67479 -6.42867 5.66773e-13 
1.88861 -6.55402 1.20586e-12 
2.11032 -6.53975 1.32251e-13 
2.33319 -6.45725 7.62067e-14 
2.50222 -6.61354 -2.04082e-10 
2.678 -6.54434 -5.6519e-10 
2.91078 -6.44417 6.84524e-10 
-3.2823 -6.26311 -1.5743e-10 
-3.09662 -6.35696 3.31786e-10 
-2.88859 -6.25292 -2.21609e-13 
-2.65039 -6.30873 -5.02519e-14 
-2.40051 -6.2142 -1.31866e-12 
-2.18971 -6.2746 -1.5054e-12 
-1.96306 -6.32403 -1.87295e-12 
-1.75123 -6.37549 -1.41184e-12 
-1.5554 -6.21428 1.53991e-12 
-1.34543 -6.25714 1.87056e-12 
-1.13289 -6.28105 1.35096e-12 
-0.908841 -6.33728 1.11048e-12 
-0.691371 -6.32448 -4.9176e-13 
-0.480097 -6.36075 -1.17311e-12 
-0.274707 -6.33476 -1.72249e-12 
-0.0694156 -6.33695 -1.88271e-13 
0.139532 -6.35991 -8.95762e-13 
0.348262 -6.33572 2.96309e-14 
0.557147 -6.3182 1.39373e-12 
0.769571 -6.32371 6.40341e-13 
0.986304 -6.32223 -3.96572e-12 
1.19807 -6.26492 -1.58543e-12 
1.41711 -6.276 -9.51101e-13 
1.63465 -6.21327 -1.162e-12 
1.88254 -6.31772 -6.30417e-13 
2.09151 -6.32291 -1.54449e-13 
2.2855 -6.22794 -1.05784e-12 
2.5163 -6.33276 -9.14777e-13 
2.73369 -6.31286 -2.1453e-13 
2.98008 -6.22097 -2.89291e-13 
3.16341 -6.32399 3.8155e-10 
3.37689 -6.21262 -8.49426e-10 
-3.71349 -6.01748 -1.00506e-10 
-3.5264 -6.12899 -1.07439e-10 
-3.31173 -6.04714 -9.05413e-14 
-3.07508 -6.10414 -4.23385e-13 
-2.83172 -6.03358 5.77604e-13 
-2.62802 -6.10442 -6.25164e-13 
-2.43146 -5.98959 1.40812e-12 
-2.21065 -6.03725 2.03608e-12 
-1.99943 -6.09993 2.02178e-12 
-1.77397 -6.1399 1.11029e-12 
-1.55049 -5.99569 -7.35075e-13 
-1.32892 -6.02946 -6.82047e-13 
-1.11858 -6.05133 -3.79475e-13 
-0.911571 -6.11415 -7.75028e-13 
-0.703674 -6.08921 1.2284e-13 
-0.493122 -6.12205 1.02457e-13 
-0.284338 -6.09928 1.48555e-13 
-0.0743713 -6.09577 5.15982e-13 
0.133712 -6.11978 1.31946e-12 
0.34229 -6.09824 2.50583e-13 
0.558097 -6.08773 -3.12376e-12 
0.771833 -6.09311 3.76647e-12 
0.986726 -6.09147 -6.59298e-13 
1.19936 -6.03395 -2.04067e-13 
1.41076 -6.05174 1.28844e-12 
1.62242 -5.98527 -7.79953e-13 
1.84085 -6.09984 -2.04224e-12 
2.06199 -6.08699 -1.71886e-12 
2.27902 -6.00793 4.90645e-13 
2.5001 -6.11194 6.88537e-13 
2.73999 -6.11159 -4.67974e-13 
2.96381 -6.01276 -1.88225e-13 
3.20215 -6.07832 -1.83257e-13 
3.40958 -5.95752 1.53256e-13 
3.58029 -6.09766 3.76932e-10 
-3.9445 -5.86864 -1.81887e-10 
-3.72588 -5.79931 1.01727e-13 
-3.4983 -5.88366 -5.41387e-13 
-3.26553 -5.82748 3.54869e-13 
-3.05663 -5.89729 4.5946e-13 
-2.85923 -5.80133 2.56499e-12 
-2.64181 -5.85942 4.16217e-13 
-2.41478 -5.7727 -1.84967e-12 
-2.1993 -5.81724 -6.86121e-13 
-1.98495 -5.87255 -7.72871e-13 
-1.77518 -5.92243 -3.09913e-13 
-1.56119 -5.77992 4.38776e-13 
-1.3367 -5.81322 -3.35296e-13 
-1.11461 -5.82165 6.40856e-13 
-0.905951 -5.88004 1.04273e-12 
-0.703313 -5.84855 1.75705e-13 
-0.502034 -5.8875 2.66429e-16 
-0.293798 -5.86578 -5.38563e-13 
-0.0842898 -5.86226 -7.31693e-13 
0.126806 -5.88253 -5.3807e-17 
0.342022 -5.87139 -2.8247e-14 
0.553945 -5.85834 1.32449e-12 
0.766109 -5.86334 -6.50669e-12 
0.975472 -5.86578 4.09693e-12 
1.1945 -5.81583 1.13666e-12 
1.41686 -5.82223 -7.59498e-13 
1.63747 -5.76394 -6.79217e-13 
1.84642 -5.87956 1.86161e-12 
2.06138 -5.86412 1.62923e-12 
2.26837 -5.78461 6.26224e-13 
2.48968 -5.88857 7.59661e-13 
2.70911 -5.90858 1.85189e-12 
2.92398 -5.80568 4.19607e-13 
3.16642 -5.86485 -1.79282e-13 
3.39802 -5.75366 -7.19021e-13 
3.64261 -5.86226 1.9193e-13 
3.82281 -5.94863 1.91017e-10 
3.99822 -5.83217 4.53693e-10 
-4.38589 -5.54653 4.08174e-12 
-4.13866 -5.73337 4.26772e-12 
-3.9201 -5.63778 -3.26498e-13 
-3.69234 -5.57758 1.79851e-13 
-3.48856 -5.67011 1.12307e-13 
-3.29311 -5.59118 -1.04672e-12 
-3.08001 -5.6568 1.12497e-14 
-2.85032 -5.58876 -1.61444e-14 
-2.62504 -5.63823 -4.62418e-13 
-2.40758 -5.55301 5.36341e-13 
-2.19511 -5.59387 3.18473e-13 
-1.98301 -5.6464 1.59507e-13 
-1.77173 -5.69329 -5.22166e-13 
-1.57418 -5.55062 -2.97108e-15 
-1.36405 -5.59794 -2.30561e-13 
-1.14416 -5.60578 -4.22578e-13 
-0.918236 -5.64504 -4.80126e-13 
-0.694726 -5.63247 -2.92299e-14 
-0.474285 -5.65181 4.58764e-13 
-0.262723 -5.63431 1.3877e-13 
-0.0488426 -5.63561 9.12998e-13 
0.161569 -5.65536 -2.8958e-13 
0.373457 -5.6424 1.25452e-12 
0.589897 -5.63348 1.39976e-12 
0.797159 -5.6334 6.42061e-13 
1.00607 -5.64014 -3.40362e-13 
1.23838 -5.60394 -5.23642e-14 
1.44823 -5.59741 1.68081e-12 
1.65831 -5.53432 -2.55346e-13 
1.8541 -5.65476 1.02489e-12 
2.05452 -5.63214 7.71344e-13 
2.26435 -5.56316 1.69527e-12 
2.48043 -5.66768 -1.25618e-12 
2.69962 -5.68775 4.45765e-14 
2.93045 -5.59645 -5.17227e-14 
3.15828 -5.66187 4.79526e-14 
3.35722 -5.53445 2.31112e-13 
3.5956 -5.64296 -7.84286e-13 
3.82074 -5.67384 2.80121e-13 
4.03642 -5.5938 3.06402e-13 
4.22818 -5.66767 -2.98485e-10 
-4.5733 -5.39304 -8.06879e-11 
-4.33937 -5.32305 -7.08265e-13 
-4.16148 -5.51913 1.95114e-13 
-3.93613 -5.42955 1.14268e-12 
-3.7288 -5.35693 1.49807e-12 
-3.50205 -5.42421 1.6784e-13 
-3.2714 -5.38019 -8.19225e-13 
-3.04885 -5.43725 -2.99558e-12 
-2.84141 -5.35475 -1.40769e-12 
-2.6411 -5.42176 5.68243e-13 
-2.42859 -5.34209 -1.29615e-12 
-2.20594 -5.36641 7.68094e-13 
-1.9974 -5.41662 2.31605e-13 
-1.78744 -5.46252 -4.38616e-14 
-1.54968 -5.34261 -1.84591e-13 
-1.32738 -5.38446 5.75758e-13 
-1.1209 -5.37555 -7.3248e-13 
-0.924947 -5.43272 3.65563e-13 
-0.731558 -5.39409 6.61492e-15 
-0.528 -5.42871 -6.04934e-13 
-0.318718 -5.41261 -5.42138e-13 
-0.103659 -5.41092 -1.35184e-13 
0.112383 -5.42303 -1.29189e-13 
0.317549 -5.42014 -5.74179e-13 
0.530635 -5.41823 -9.1694e-13 
0.74828 -5.40329 8.14166e-13 
0.954548 -5.41159 -3.78846e-13 
1.16122 -5.41633 -9.28091e-13 
1.39551 -5.37598 -1.24151e-12 
1.59637 -5.33087 -1.8151e-13 
1.85212 -5.41514 -1.29079e-12 
2.05912 -5.40589 -1.91686e-12 
2.28207 -5.35121 -2.02662e-12 
2.49226 -5.45589 1.31143e-12 
2.71585 -5.47314 -3.91882e-13 
2.91473 -5.36814 -2.79575e-13 
3.12672 -5.44213 -3.35373e-13 
3.33323 -5.31847 2.29963e-14 
3.57005 -5.42979 4.46092e-13 
3.79909 -5.45508 -4.45989e-13 
4.02733 -5.38288 -4.94454e-13 
4.25801 -5.42303 3.91502e-13 
4.44919 -5.49588 3.33665e-11 
-4.79357 -5.19824 -1.25496e-10 
-4.56386 -5.18301 -3.19913e-13 
-4.349 -5.10045 9.39107e-13 
-4.12262 -5.2876 -7.52213e-13 
-3.9118 -5.19013 -1.08665e-12 
-3.68598 -5.13417 -1.84876e-12 
-3.48903 -5.21381 -2.36297e-12 
-3.28314 -5.15163 1.02369e-12 
-3.07545 -5.21657 3.49772e-12 
-2.8548 -5.14859 1.56475e-12 
-2.62208 -5.19058 -4.48935e-13 
-2.3933 -5.13471 1.71724e-12 
-2.17481 -5.15345 -6.1136e-13 
-1.96268 -5.19843 -6.10141e-14 
-1.75456 -5.2454 -6.9407e-13 
-1.5577 -5.11312 -1.50664e-14 
-1.35162 -5.17121 -4.9064e-13 
-1.13617 -5.15135 1.1209e-13 
-0.925243 -5.19066 -1.27777e-13 
-0.710477 -5.17308 2.07467e-13 
-0.501963 -5.19948 4.8649e-13 
-0.285808 -5.1926 4.33599e-13 
-0.0670719 -5.1942 1.14952e-13 
0.138942 -5.19253 7.2761e-13 
0.350993 -5.19868 -3.38019e-13 
0.56748 -5.20168 4.20801e-14 
0.7784 -5.17621 1.1807e-13 
0.98508 -5.18706 7.01572e-13 
1.20582 -5.21202 5.8846e-13 
1.40895 -5.14229 1.10715e-14 
1.69082 -5.17959 9.87384e-13 
1.89555 -5.18817 3.88958e-13 
2.10689 -5.18603 2.9737e-13 
2.29259 -5.09824 9.28235e-13 
2.46667 -5.22043 -1.54159e-12 
2.66822 -5.26132 1.27032e-12 
2.8737 -5.165 1.26369e-12 
3.11676 -5.21714 3.84685e-13 
3.34618 -5.10593 -5.27745e-13 
3.56413 -5.22609 -6.89524e-13 
3.80128 -5.24215 -5.81556e-13 
4.01437 -5.16121 -4.99798e-13 
4.23546 -5.20627 -4.59281e-13 
4.46485 -5.24608 2.37732e-13 
4.65664 -5.32125 -1.39158e-10 
4.79541 -5.19654 -8.62843e-11 
-4.99423 -5.00577 1.3798e-10 
-4.76414 -4.98748 -5.35953e-13 
-4.54863 -4.95593 1.67217e-13 
-4.32871 -4.87169 -1.24772e-13 
-4.13655 -5.06387 2.01344e-12 
-3.91304 -4.97927 -1.07948e-12 
-3.69097 -4.9236 1.8313e-12 
-3.46798 -4.9781 1.6172e-12 
-3.2527 -4.92876 2.11068e-12 
-3.05127 -4.9965 1.74451e-13 
-2.85083 -4.91609 -2.29786e-12 
-2.6517 -4.98892 -1.86513e-12 
-2.43625 -4.9338 1.13485e-13 
-2.20375 -4.94008 -2.0396e-13 
-1.9809 -4.97345 6.94429e-13 
-1.77097 -5.01679 5.1346e-13 
[...]
POINT_DATA 3402 
VECTORS vectors float
8.3917e-05 -6.06079e-05 1 
0.000234871 -7.95962e-05 1 
0.000270103 -9.17963e-05 1 
2.5425e-05 -4.17311e-05 1 
-4.33723e-06 1.29801e-06 1 
0.000235515 -5.10702e-05 1 
-6.51392e-06 9.90936e-07 1 
0.000356952 -1.82609e-06 1 
8.77135e-05 -1.34212e-05 1 
0.000124184 2.99468e-05 1 
0.000256677 3.67399e-05 1 
0.000216567 4.19088e-05 1 
6.30778e-05 2.42919e-05 1 
4.31117e-05 6.35163e-05 1 
0.000268163 7.7659e-05 1 
-0.000275783 -4.22036e-05 1 
-6.66398e-05 -4.2296e-05 1 
0.000144585 -9.73155e-05 1 
0.000207163 -0.000131126 1 
-6.6641e-07 -5.49791e-05 1 
0.0540049 -0.0127124 0.99846 
0.0571276 -0.0113957 0.998302 
0.0574139 -0.00969846 0.998303 
0.0542047 -0.00725617 0.998503 
0.0580099 -0.00592095 0.998298 
0.0559467 -0.00389804 0.998426 
0.0582899 -0.00218754 0.998297 
0.0585341 -0.000436518 0.998285 
0.0564991 0.00134537 0.998402 
0.0584927 0.00322821 0.998283 
0.0574577 0.00491805 0.998336 
0.0575236 0.00670822 0.998322 
0.0549331 0.00824501 0.998456 
0.0570317 0.0104907 0.998317 
0.0538783 0.0116552 0.998479 
0.0516345 0.0131417 0.99858 
0.000181585 0.00013925 1 
0.000277162 0.000105155 1 
-0.000345264 -6.36506e-05 1 
-5.31215e-05 -2.98032e-05 1 
9.62392e-05 -0.000112966 1 
0.0500812 -0.0189932 0.998565 
0.053599 -0.0182103 0.998396 
0.0546972 -0.0166357 0.998364 
0.0559831 -0.0151183 0.998317 
0.0683459 -0.0164069 0.997527 
0.0691896 -0.0143067 0.997501 
0.0700854 -0.0120606 0.997468 
0.0690845 -0.00961972 0.997564 
0.0705535 -0.00763847 0.997479 
0.0698451 -0.00524027 0.997544 
0.0703048 -0.00296213 0.997521 
0.0705628 -0.000698059 0.997507 
0.0699267 0.00154625 0.997551 
0.0702675 0.00378399 0.997521 
0.069704 0.00604722 0.997549 
0.0697421 0.00837803 0.99753 
0.0687813 0.0105905 0.997576 
0.0690711 0.0131032 0.997526 
0.0678684 0.0153482 0.997576 
0.0676894 0.0176391 0.997551 
0.0577118 0.0166551 0.998194 
0.0513592 0.0165172 0.998544 
0.0516112 0.0186147 0.998494 
0.000369438 0.00025347 1 
0.000264937 0.000148573 1 
-0.000280977 -7.29192e-05 1 
2.42812e-05 -7.03491e-05 1 
1.20218e-05 -9.90242e-05 1 
0.0467637 -0.0215541 0.998673 
0.0526938 -0.0220436 0.998367 
0.065001 -0.0249797 0.997572 
0.0662534 -0.0230253 0.997537 
0.0674996 -0.0208877 0.997501 
0.0685371 -0.0187858 0.997472 
0.0731609 -0.0182094 0.997154 
0.0737818 -0.0158397 0.997149 
0.0740554 -0.0133915 0.997164 
0.0741788 -0.010707 0.997187 
0.0744833 -0.00825649 0.997188 
0.0745438 -0.00574829 0.997201 
0.0746338 -0.00334805 0.997205 
0.0745554 -0.000891812 0.997216 
0.0744611 0.00159197 0.997223 
0.0745281 0.00410305 0.99721 
0.0742594 0.00657955 0.997217 
0.073812 0.00898165 0.997232 
0.0734568 0.0113527 0.997234 
0.0732002 0.0139297 0.99722 
0.072488 0.0163689 0.997235 
0.0719764 0.0189533 0.997226 
0.0684262 0.020433 0.997447 
0.0659075 0.0217597 0.997588 
0.0660879 0.0240758 0.997523 
0.0565462 0.0223943 0.998149 
0.0484376 0.0208517 0.998609 
0.0448827 0.0214596 0.998762 
-8.6223e-05 3.43912e-05 1 
0.000210554 0.000187569 1 
4.67304e-05 -0.000107199 1 
-9.84326e-05 -3.35261e-05 1 
0.0443456 -0.0242576 0.998722 
0.05178 -0.0260585 0.998318 
0.0627989 -0.0293908 0.997593 
0.0644554 -0.0276308 0.997538 
0.0687834 -0.0277282 0.997246 
0.0702706 -0.0255052 0.997202 
0.0712966 -0.023167 0.997186 
0.0723956 -0.0207682 0.99716 
0.0718901 -0.0185445 0.99724 
0.0719234 -0.0158883 0.997284 
0.0717397 -0.0133266 0.997334 
0.072658 -0.010935 0.997297 
0.0712704 -0.00835227 0.997422 
0.0716928 -0.00586383 0.99741 
0.0706034 -0.00339537 0.997499 
0.0702515 -0.000971466 0.997529 
0.0708636 0.00152871 0.997485 
0.0703536 0.00399902 0.997514 
0.0704661 0.00651919 0.997493 
0.0711395 0.0091059 0.997425 
0.0717355 0.0116833 0.997355 
0.0711246 0.0141894 0.997367 
0.0721209 0.0168341 0.997254 
0.0714035 0.0193607 0.99726 
0.0720212 0.0217299 0.997166 
0.0707311 0.0238851 0.997209 
0.0697803 0.0263061 0.997215 
0.0660691 0.0269268 0.997452 
0.0627443 0.0281696 0.997632 
0.0619062 0.0304244 0.997618 
0.0478189 0.0252299 0.998537 
0.0474185 0.027088 0.998508 
-0.000240407 -9.32291e-05 1 
-6.42655e-05 -3.97746e-05 1 
0.0427659 -0.0274403 0.998708 
0.0486862 -0.0289454 0.998395 
0.0600988 -0.0336555 0.997625 
0.0622612 -0.032213 0.99754 
0.0661482 -0.0324568 0.997282 
0.0678573 -0.0304291 0.997231 
0.0692273 -0.0288672 0.997183 
0.0699446 -0.0263097 0.997204 
0.070405 -0.0236616 0.997238 
0.0707643 -0.0211094 0.99727 
0.0640273 -0.0172036 0.9978 
0.0633864 -0.0145727 0.997883 
0.0620393 -0.0119111 0.998003 
0.0631554 -0.00978105 0.997956 
0.0602227 -0.00731739 0.998158 
0.0614942 -0.00535739 0.998093 
0.0597164 -0.00311997 0.998211 
0.0591738 -0.000961425 0.998247 
0.0601869 0.00121799 0.998186 
0.0597824 0.00349219 0.998205 
0.0601883 0.00577517 0.99817 
0.0611943 0.00810636 0.998093 
0.0625379 0.0105441 0.997987 
0.0620832 0.0128325 0.997988 
0.0641677 0.0156098 0.997817 
0.0639107 0.0181566 0.99779 
0.0697946 0.0219495 0.99732 
0.0701876 0.0246463 0.997229 
0.0693427 0.0272122 0.997222 
0.0688663 0.0290461 0.997203 
0.0671051 0.0307142 0.997273 
0.0658487 0.0330882 0.997281 
0.0615314 0.0331747 0.997554 
0.0596307 0.0351964 0.9976 
0.0420853 0.026181 0.998771 
6.42487e-05 0.000155439 1 
5.60844e-05 0.000108452 1 
-0.000113734 1.16891e-05 1 
-5.57568e-05 -1.20267e-05 1 
0.0444187 -0.0308644 0.998536 
0.0574095 -0.0380328 0.997626 
0.0593712 -0.0365295 0.997567 
0.0631115 -0.0371561 0.997315 
0.0649315 -0.0353132 0.997265 
0.0666069 -0.0339366 0.997202 
0.0674249 -0.0312912 0.997234 
0.0632552 -0.0272833 0.997624 
0.0628582 -0.0244891 0.997722 
0.0624164 -0.0217662 0.997813 
0.0620456 -0.0192031 0.997889 
0.0528937 -0.0149242 0.998489 
0.0529029 -0.0128857 0.998517 
0.051447 -0.0105534 0.99862 
0.0515606 -0.00847406 0.998634 
0.0494913 -0.00619347 0.998755 
0.0493418 -0.00420136 0.998773 
0.047974 -0.00228685 0.998846 
0.0479227 -0.000429479 0.998851 
0.0489737 0.00141816 0.998799 
0.0487115 0.00332798 0.998807 
0.0488535 0.00520388 0.998792 
0.0501396 0.0072354 0.998716 
0.051523 0.00931097 0.998628 
0.0514792 0.0114162 0.998609 
0.0537676 0.0139228 0.998456 
0.0528595 0.0158105 0.998477 
0.0610052 0.0199694 0.997938 
0.0629402 0.0229955 0.997752 
0.062275 0.0253393 0.997737 
0.067498 0.0295343 0.997282 
0.068039 0.032174 0.997164 
0.0666207 0.0347963 0.997171 
0.0644217 0.0359035 0.997277 
0.0631456 0.0382535 0.997271 
0.0580812 0.0370027 0.997626 
0.0475512 0.0320936 0.998353 
0.0402499 0.0289942 0.998769 
-0.000112824 -2.04685e-05 1 
4.4424e-05 -0.000101177 1 
0.0412696 -0.0336688 0.998581 
0.0376284 -0.0283497 0.99889 
0.0554425 -0.0402885 0.997649 
0.0598918 -0.0416991 0.997334 
0.0622553 -0.0401757 0.997251 
0.0639129 -0.0389006 0.997197 
0.0648454 -0.0364373 0.99723 
0.0616423 -0.0326691 0.997564 
0.0614549 -0.0298204 0.997664 
0.0543442 -0.0245883 0.998219 
0.0521708 -0.0212573 0.998412 
0.0516371 -0.0188908 0.998487 
0.0508296 -0.0165086 0.998571 
0.0432216 -0.0124765 0.998988 
0.0428742 -0.0105569 0.999025 
0.0413699 -0.00864234 0.999107 
0.0424159 -0.00727374 0.999074 
0.0397362 -0.00543527 0.999195 
0.0403163 -0.00397001 0.999179 
0.0389356 -0.00231181 0.999239 
0.0387313 -0.000734553 0.999249 
0.0391442 0.000837523 0.999233 
0.0395332 0.00234733 0.999216 
0.0394168 0.00390613 0.999215 
0.0403317 0.0055995 0.999171 
0.0411975 0.00728686 0.999124 
0.0425459 0.00911091 0.999053 
0.0431012 0.011159 0.999008 
0.0429989 0.01281 0.998993 
0.0493132 0.0167909 0.998642 
0.0520483 0.0196162 0.998452 
0.052551 0.0222236 0.998371 
0.0603476 0.0275402 0.997797 
0.0638137 0.0316037 0.997461 
0.0626389 0.0339438 0.997459 
0.0650622 0.0373129 0.997183 
0.0635814 0.039801 0.997183 
0.0612823 0.0402488 0.997309 
0.0574561 0.040109 0.997542 
0.0541492 0.0405494 0.997709 
0.0385954 0.030261 0.998797 
-0.000235331 -0.000133671 1 
-0.000113848 4.68605e-05 1 
0.0362782 -0.0318964 0.998833 
0.0521044 -0.044414 0.997654 
0.0539237 -0.0420381 0.99766 
0.0587944 -0.0443424 0.997285 
0.0610237 -0.0439229 0.997169 
0.0622392 -0.0417865 0.997186 
0.0602064 -0.0383651 0.997448 
0.0592451 -0.0348424 0.997635 
0.0529158 -0.0292106 0.998172 
0.0510965 -0.0257248 0.998362 
0.0445481 -0.0205999 0.998795 
0.0423871 -0.0177425 0.998944 
0.0416001 -0.015597 0.999013 
0.0411488 -0.0137023 0.999059 
0.034771 -0.0106017 0.999339 
0.0351627 -0.00921484 0.999339 
0.0331491 -0.0073172 0.999424 
0.0333832 -0.00596114 0.999425 
0.0315497 -0.00433085 0.999493 
0.0317922 -0.00306192 0.99949 
0.0308672 -0.00166642 0.999522 
0.030808 -0.000343977 0.999525 
0.0307267 0.000889461 0.999527 
0.0313968 0.00216314 0.999505 
0.0317479 0.00354011 0.99949 
0.0321891 0.00484803 0.99947 
0.0331128 0.00630153 0.999432 
0.0354579 0.00821875 0.999337 
0.034248 0.00937583 0.999369 
0.0381509 0.0124169 0.999195 
0.0401348 0.0146382 0.999087 
0.0431882 0.017421 0.998915 
0.0417777 0.0187135 0.998952 
0.0494134 0.0232073 0.998509 
0.0544927 0.0276165 0.998132 
0.0540696 0.0300752 0.998084 
0.0601939 0.035925 0.99754 
0.0597277 0.0390943 0.997449 
0.0619553 0.0422109 0.997186 
0.0596134 0.0432069 0.997286 
0.0573557 0.0445798 0.997358 
0.0527632 0.0426768 0.997695 
0.0386752 0.0331058 0.998703 
0.000263441 0.000371622 1 
0.000136486 0.000199792 1 
-1.12013e-06 -4.75503e-05 1 
0.0355374 -0.0339525 0.998791 
0.0499009 -0.0458575 0.997701 
0.0549869 -0.0487928 0.997294 
0.0565273 -0.0460839 0.997337 
0.0589838 -0.0463853 0.997181 
0.0582174 -0.0436233 0.99735 
0.0569581 -0.0396562 0.997589 
0.0511809 -0.0337871 0.998118 
0.0502649 -0.0307277 0.998263 
0.0432163 -0.0251228 0.99875 
0.0424452 -0.0226238 0.998843 
0.038418 -0.0189415 0.999082 
0.0348625 -0.0155218 0.999272 
0.0334893 -0.0133344 0.99935 
0.0329552 -0.0116541 0.999389 
0.0273564 -0.00866446 0.999588 
0.0272472 -0.00731354 0.999602 
0.0250867 -0.00567347 0.999669 
0.0253407 -0.00461771 0.999668 
0.0229404 -0.00327023 0.999731 
0.0233062 -0.00236734 0.999726 
0.0229373 -0.00138718 0.999736 
0.0227589 -0.000380057 0.999741 
0.0222505 0.000603905 0.999752 
0.0229055 0.00156668 0.999736 
0.0240124 0.00260681 0.999708 
0.0237394 0.0036421 0.999712 
0.0249344 0.00481789 0.999677 
0.0275227 0.00644497 0.9996 
0.0266707 0.00750405 0.999616 
0.0311986 0.0100203 0.999463 
0.0318799 0.0118444 0.999422 
0.0344237 0.0141971 0.999306 
0.0339611 0.0156334 0.999301 
0.0392438 0.0195983 0.999037 
0.044661 0.0235024 0.998726 
0.0450464 0.0261129 0.998644 
0.0521778 0.0321232 0.998121 
0.0508179 0.0339763 0.99813 
0.0588086 0.0416296 0.997401 
0.0601178 0.0447891 0.997186 
0.0586192 0.0465927 0.997193 
0.0565164 0.0471468 0.997288 
0.0527877 0.0459079 0.99755 
0.0446791 0.0407778 0.998169 
0.034046 0.0326845 0.998886 
-0.000226406 -0.000199438 1 
-9.1727e-05 7.27843e-05 1 
0.0323235 -0.0335983 0.998913 
0.0474187 -0.0474765 0.997746 
0.0527258 -0.0505235 0.99733 
0.0552329 -0.0511252 0.997164 
0.0570914 -0.0484186 0.997194 
0.0561198 -0.0457317 0.997376 
0.050685 -0.0398261 0.99792 
0.0494739 -0.0362696 0.998117 
0.0432259 -0.030065 0.998613 
0.0406146 -0.0260697 0.998835 
0.0351186 -0.0212493 0.999157 
0.0341469 -0.0189114 0.999238 
0.0313615 -0.0158293 0.999383 
0.0279076 -0.0128192 0.999528 
0.0260044 -0.0107969 0.999604 
0.0253574 -0.00933307 0.999635 
0.0194656 -0.00649506 0.999789 
0.0197015 -0.00563195 0.99979 
0.01736 -0.0041799 0.999841 
0.0168381 -0.00325719 0.999853 
0.015004 -0.0022159 0.999885 
0.0146331 -0.00147972 0.999892 
0.014879 -0.000835673 0.999889 
0.0146925 -0.000168352 0.999892 
0.014082 0.000457469 0.999901 
0.0146743 0.00110884 0.999892 
0.0161315 0.00191438 0.999868 
0.0153885 0.00248855 0.999878 
0.0171764 0.00353491 0.999846 
0.0197271 0.00488567 0.999793 
0.0199544 0.00603841 0.999783 
0.0246068 0.00843835 0.999662 
0.0250746 0.00988401 0.999637 
0.0268782 0.0117312 0.99957 
0.0297698 0.0147888 0.999447 
0.0323503 0.0173623 0.999326 
0.0369495 0.020937 0.999098 
0.0353527 0.0218788 0.999135 
0.0420836 0.0267645 0.998756 
0.0408123 0.0282782 0.998767 
0.0499155 0.036066 0.998102 
0.054441 0.0418169 0.997641 
0.055131 0.0454696 0.997443 
0.0564002 0.0489528 0.997207 
0.0543468 0.0493017 0.997304 
0.0510472 0.0486672 0.99751 
0.0464617 0.046916 0.997818 
0.0308404 0.0325351 0.998995 
-5.13508e-05 -1.80236e-06 1 
-4.09839e-05 -2.60896e-05 1 
0.031344 -0.0356603 0.998872 
0.0452019 -0.0490772 0.997772 
0.0505238 -0.052781 0.997327 
0.0528658 -0.0528423 0.997203 
0.0531317 -0.0513423 0.997267 
0.055023 -0.0485264 0.997305 
0.0493265 -0.0423251 0.997886 
0.0424754 -0.0347911 0.998492 
0.0400024 -0.0304688 0.998735 
0.035305 -0.0250427 0.999063 
0.0324513 -0.0215587 0.999241 
0.0281686 -0.017486 0.99945 
0.0273497 -0.0155469 0.999505 
0.0245748 -0.0127852 0.999616 
0.0206179 -0.00991808 0.999738 
0.0182738 -0.00799067 0.999801 
0.0177354 -0.00690067 0.999819 
0.0123819 -0.00435133 0.999914 
0.0121844 -0.00362671 0.999919 
0.0103589 -0.0025601 0.999943 
0.009714 -0.00191082 0.999951 
0.00832432 -0.00123492 0.999965 
0.00792204 -0.000790343 0.999968 
0.00817952 -0.000421352 0.999966 
0.00794016 -4.47064e-05 0.999968 
0.00753818 0.000303866 0.999972 
0.00820159 0.000712538 0.999966 
0.00892281 0.00116826 0.99996 
0.00903545 0.00162362 0.999958 
0.0105162 0.00237669 0.999942 
0.0133065 0.00360728 0.999905 
0.0115534 0.00368139 0.999926 
0.016448 0.00580243 0.999848 
0.018036 0.00718111 0.999812 
0.0190406 0.00865089 0.999781 
0.0236739 0.0116905 0.999651 
0.0246275 0.0136649 0.999603 
0.0288346 0.0171436 0.999437 
0.0283371 0.0184805 0.999428 
0.0333863 0.0228013 0.999182 
0.040577 0.030573 0.998709 
0.0457872 0.0363445 0.99829 
0.0470597 0.0400942 0.998087 
0.0523137 0.0467836 0.997534 
0.0543829 0.0510176 0.997216 
0.0526448 0.0516824 0.997275 
0.0506492 0.0522779 0.997347 
0.0459701 0.0496717 0.997707 
0.0347841 0.0397134 0.998605 
0.000155765 0.000318531 1 
2.46026e-05 -0.000136788 1 
0.0327662 -0.0402689 0.998651 
0.0442515 -0.0519648 0.997668 
0.0484829 -0.0546598 0.997327 
0.051053 -0.0551659 0.997171 
0.0517402 -0.053564 0.997223 
0.0460124 -0.0464711 0.997859 
0.0495541 -0.0461667 0.997704 
0.0421374 -0.0390332 0.998349 
0.0386277 -0.0339511 0.998677 
0.0337776 -0.0277374 0.999044 
0.0316829 -0.0242624 0.999203 
0.0274426 -0.0198314 0.999427 
0.0249323 -0.0168215 0.999548 
0.0212021 -0.0131293 0.999689 
0.0198145 -0.0112705 0.99974 
0.015814 -0.0083453 0.99984 
0.0122964 -0.00593174 0.999907 
0.0107005 -0.00459959 0.999932 
0.00843198 -0.00329079 0.999959 
0.00669932 -0.00219244 0.999975 
0.00571958 -0.0015832 0.999982 
0.00483463 -0.00107368 0.999988 
0.00414404 -0.000711682 0.999991 
0.00359397 -0.000428815 0.999993 
0.0036246 -0.00024503 0.999993 
0.00354421 -6.79876e-05 0.999994 
0.00340046 9.74019e-05 0.999994 
0.00362774 0.00028568 0.999993 
0.0038993 0.000496858 0.999992 
0.0044785 0.000776325 0.99999 
0.005119 0.00116574 0.999986 
0.00682548 0.00187662 0.999975 
0.00617929 0.00206624 0.999979 
0.00958493 0.00363434 0.999947 
0.0119737 0.0051359 0.999915 
0.0130137 0.00633759 0.999895 
0.0178099 0.0093721 0.999797 
0.0174529 0.010161 0.999796 
0.0221117 0.013675 0.999662 
0.0223747 0.0152215 0.999634 
0.0268691 0.0194402 0.99945 
0.032929 0.0246024 0.999155 
0.0351405 0.0286187 0.998973 
0.0379046 0.0326204 0.998749 
0.0428643 0.0393672 0.998305 
0.0494361 0.0474651 0.997649 
0.0517726 0.0523622 0.997285 
0.0511245 0.0543538 0.997212 
0.0491148 0.0546541 0.997297 
0.0451358 0.0528978 0.997579 
0.0351428 0.042894 0.998461 
-5.10049e-05 -2.18238e-05 1 
-2.83373e-05 -5.82244e-05 1 
0.0318218 -0.0420958 0.998607 
0.042793 -0.0544407 0.9976 
0.0466095 -0.0569564 0.997288 
0.0489401 -0.0570792 0.997169 
0.0490369 -0.0547075 0.997298 
0.0447278 -0.0482011 0.997836 
0.0383534 -0.0380444 0.99854 
0.0325507 -0.0308196 0.998995 
0.0306633 -0.0271138 0.999162 
0.0266651 -0.022066 0.999401 
0.0239851 -0.0187236 0.999537 
0.0200719 -0.0147012 0.99969 
0.0179669 -0.0121393 0.999765 
0.0137857 -0.00861611 0.999868 
0.0116914 -0.00677364 0.999909 
0.00842842 -0.00449077 0.999954 
0.00635074 -0.00304049 0.999975 
0.00420074 -0.00184545 0.999989 
0.00415011 -0.00157093 0.99999 
0.00268667 -0.000885768 0.999996 
0.0022709 -0.000620909 0.999997 
0.0016786 -0.000368839 0.999999 
0.00135627 -0.000223464 0.999999 
0.00113359 -0.000122129 0.999999 
0.00103591 -5.56042e-05 0.999999 
0.000982208 -1.61344e-06 1 
0.00108922 5.60085e-05 0.999999 
0.00114634 0.000119281 0.999999 
0.00128888 0.000198809 0.999999 
0.00196693 0.000399778 0.999998 
0.00182265 0.000460929 0.999998 
0.00310402 0.000909889 0.999995 
0.00269437 0.000956234 0.999996 
0.00491226 0.00196635 0.999986 
0.00676538 0.00306343 0.999972 
0.00695501 0.00355244 0.99997 
0.0108849 0.00599486 0.999923 
0.0114683 0.00703171 0.99991 
0.0158947 0.0104124 0.999819 
0.018539 0.0135176 0.999737 
0.0224947 0.0174456 0.999595 
0.0281928 0.0225123 0.999349 
0.0282021 0.0243708 0.999305 
0.0328816 0.0299247 0.999011 
0.0370776 0.0359039 0.998667 
0.0437019 0.0441904 0.998067 
0.0466915 0.0497808 0.997668 
0.0489422 0.0548396 0.997295 
0.0484068 0.0566909 0.997218 
0.0463068 0.0571567 0.997291 
0.042192 0.0541239 0.997642 
0.0282131 0.037317 0.998905 
-0.00017656 -0.000123812 1 
-9.56091e-05 4.90645e-05 1 
0.0291254 -0.0417432 0.998704 
0.0403514 -0.055815 0.997625 
0.0441287 -0.0587127 0.997299 
0.0463605 -0.0591423 0.997172 
0.0465952 -0.0566084 0.997309 
0.0429126 -0.0502273 0.997815 
0.0364969 -0.0415615 0.998469 
0.0358071 -0.0382132 0.998628 
0.0301374 -0.0307641 0.999072 
0.0259632 -0.0249751 0.999351 
0.0242199 -0.021719 0.999471 
0.0197209 -0.0168709 0.999663 
0.0171817 -0.0137394 0.999758 
0.0134118 -0.00996824 0.99986 
0.0110531 -0.00758413 0.99991 
0.00714305 -0.00459802 0.999964 
0.00577787 -0.0034084 0.999977 
0.00383318 -0.0020505 0.999991 
0.00222753 -0.00110772 0.999997 
0.0016637 -0.000721565 0.999998 
0.00117948 -0.000454811 0.999999 
0.00060567 -0.000207486 1 
0.000276916 -8.6138e-05 1 
-8.72426e-05 5.09451e-06 1 
-0.00027141 3.07004e-05 1 
-0.000547404 4.26488e-05 1 
-0.000672347 2.06802e-05 1 
-0.00053212 -9.92195e-06 1 
-0.000449716 -3.05585e-05 1 
-0.000386738 -4.38505e-05 1 
0.00017729 4.45084e-05 1 
0.000281197 8.47077e-05 1 
0.000920381 0.000304037 1 
0.00058275 0.000233317 1 
0.00184332 0.000777383 0.999998 
0.00295245 0.00139291 0.999995 
0.00340331 0.00183179 0.999993 
0.00609843 0.00356126 0.999975 
0.00617216 0.00399966 0.999973 
0.0098375 0.0067435 0.999929 
0.0131539 0.00964817 0.999867 
0.0163147 0.0132143 0.99978 
0.0220564 0.0186846 0.999582 
0.0244936 0.0225881 0.999445 
0.0287313 0.0278432 0.999199 
0.0297735 0.0307434 0.999084 
0.0357246 0.0374901 0.998658 
0.038964 0.0433223 0.998301 
0.0432805 0.0504417 0.997789 
0.0462016 0.0563989 0.997339 
0.045998 0.0590645 0.997194 
0.0440268 0.0585777 0.997312 
0.0401221 0.0552193 0.997668 
0.0305133 0.043806 0.998574 
0.000166646 0.000385346 1 
1.4099e-05 -0.000174102 1 
0.0278643 -0.0434447 0.998667 
0.0381989 -0.0571904 0.997632 
0.0417598 -0.0603348 0.997304 
0.0438923 -0.0609002 0.997178 
0.0434147 -0.0576728 0.997391 
0.0402863 -0.0513063 0.99787 
0.0346479 -0.0427147 0.998486 
0.029092 -0.034143 0.998993 
0.0279705 -0.0307711 0.999135 
0.0237554 -0.0246597 0.999414 
0.0198264 -0.0192529 0.999618 
0.0165826 -0.0153109 0.999745 
0.0125595 -0.0108533 0.999862 
0.0100788 -0.00809584 0.999916 
0.00704295 -0.00523044 0.999962 
0.00449575 -0.00313579 0.999985 
0.00273307 -0.0017512 0.999995 
0.00211775 -0.00123776 0.999997 
0.000778647 -0.000433973 1 
0.000534497 -0.000271763 1 
-8.56808e-05 1.49789e-05 1 
-0.000364549 0.000107954 1 
-0.000932643 0.000259412 1 
-0.00135256 0.000308975 0.999999 
-0.00176142 0.000301449 0.999998 
-0.00221478 0.000257174 0.999998 
-0.00274427 0.000163825 0.999996 
-0.00269375 7.66969e-06 0.999996 
-0.00244646 -0.000130122 0.999997 
-0.00227433 -0.000250722 0.999997 
-0.00207393 -0.000346076 0.999998 
-0.00116326 -0.00023585 0.999999 
-0.00138579 -0.000357749 0.999999 
-0.000423504 -0.000117676 1 
-0.000513368 -0.000182644 1 
0.00039704 0.000195606 1 
0.00107712 0.000561196 0.999999 
0.00111573 0.000652684 0.999999 
0.0027325 0.00167129 0.999995 
0.00328917 0.00225581 0.999992 