# vtk DataFile Version 3.0 
Exported using Morpho https://github.com/Morpho-lang/morpho 
ASCII 
DATASET UNSTRUCTURED_GRID 

POINTS 3402 float 
-1.58244 -6.89173 1.43538e-12 
-1.37896 -6.93531 -1.04605e-12 
-1.17602 -6.97259 5.97503e-13 
-0.97133 -7.00404 6.8356e-13 
-0.732757 -7.033 -1.68496e-12 
-0.525978 -7.05148 1.93623e-12 
-0.301534 -7.06464 -1.35807e-12 
-0.0954494 -7.07042 1.33144e-12 
0.109206 -7.07022 -4.5655e-13 
0.329646 -7.06338 -7.23943e-13 
0.5316 -7.05106 1.09439e-12 
0.740598 -7.03218 -1.74018e-12 
0.945651 -7.00755 1.32643e-12 
1.17498 -6.97276 -6.50109e-13 
1.38128 -6.93485 9.5306e-13 
1.61073 -6.88517 -5.34407e-13 
-2.42543 -6.64208 -1.19951e-12 
-2.2182 -6.71413 6.82551e-13 
-2.01089 -6.77911 5.18214e-13 
-1.80712 -6.83625 -1.47224e-12 
-1.57998 -6.6743 -6.68568e-17 
-1.35353 -6.70678 -4.33626e-16 
-1.1339 -6.73675 3.62855e-16 
-0.906417 -6.80224 7.73799e-17 
-0.684659 -6.79925 2.24256e-17 
-0.464867 -6.83102 -3.01937e-17 
-0.255202 -6.81993 -3.14779e-17 
-0.0473155 -6.82307 1.44421e-17 
0.169078 -6.83807 1.59096e-17 
0.378386 -6.81132 -4.1083e-18 
0.585364 -6.80206 -1.14779e-17 
0.791825 -6.78068 -1.50675e-17 
1.01416 -6.77802 7.39038e-18 
1.22897 -6.72054 5.92822e-18 
1.44936 -6.70395 1.01971e-17 
1.68835 -6.6632 -9.06907e-19 
1.85585 -6.82318 2.43808e-13 
2.04433 -6.7691 -7.69776e-13 
2.27916 -6.69369 6.87342e-13 
-2.85358 -6.46971 -1.08521e-12 
-2.65665 -6.55303 1.12787e-12 
-2.44811 -6.42748 3.14272e-18 
-2.21398 -6.4815 -8.28821e-18 
-2.0013 -6.54542 -5.52953e-17 
-1.78891 -6.60044 -1.08635e-16 
-1.54136 -6.45184 1.72024e-16 
-1.3258 -6.48968 8.42612e-16 
-1.11036 -6.50736 -8.27442e-16 
-0.902146 -6.57998 -7.74691e-17 
-0.697711 -6.5559 2.9783e-16 
-0.489732 -6.59846 9.61457e-17 
-0.27626 -6.57828 4.48386e-17 
-0.0675347 -6.57897 -1.71169e-16 
0.143499 -6.59937 -5.57957e-17 
0.355584 -6.575 2.31054e-17 
0.567467 -6.55708 2.35865e-17 
0.788698 -6.55345 1.63633e-17 
1.00922 -6.54732 -4.58057e-17 
1.22839 -6.49217 -3.25074e-17 
1.46264 -6.49248 -2.38583e-17 
1.67504 -6.42876 -9.7914e-18 
1.88954 -6.55432 -4.88018e-18 
2.1113 -6.53975 -2.60136e-18 
2.33431 -6.45709 -5.35039e-19 
2.50222 -6.61354 -3.60472e-13 
2.678 -6.54434 -9.983e-13 
2.91078 -6.44417 1.20908e-12 
-3.2823 -6.26311 -2.78072e-13 
-3.09662 -6.35696 5.86037e-13 
-2.88893 -6.25289 2.60811e-18 
-2.65064 -6.30908 2.19633e-18 
-2.40052 -6.21439 2.03899e-17 
-2.18932 -6.2745 2.07444e-17 
-1.96187 -6.32396 1.03305e-16 
-1.7497 -6.37641 1.54258e-16 
-1.55767 -6.21403 -2.03169e-16 
-1.34754 -6.25893 -1.7805e-16 
-1.1326 -6.27864 3.20121e-16 
-0.911057 -6.33786 -1.87028e-16 
-0.693299 -6.32568 -3.98128e-16 
-0.479971 -6.36092 -1.41663e-16 
-0.272875 -6.33644 1.02573e-16 
-0.0665461 -6.33646 3.01796e-16 
0.140403 -6.36059 -4.74222e-17 
0.348449 -6.33654 -8.43838e-17 
0.558111 -6.31962 -1.24778e-17 
0.770793 -6.32502 4.29336e-17 
0.987301 -6.3229 4.88666e-17 
1.1993 -6.26512 4.34011e-17 
1.41866 -6.27651 2.57204e-17 
1.63631 -6.21336 2.61469e-17 
1.88351 -6.31929 -1.00183e-17 
2.09323 -6.3229 9.69112e-18 
2.28757 -6.2279 2.92493e-17 
2.51796 -6.33285 1.84143e-17 
2.73468 -6.31269 -3.07889e-19 
2.98091 -6.22086 2.40823e-18 
3.16341 -6.32399 6.73932e-13 
3.37689 -6.21262 -1.50035e-12 
-3.71349 -6.01748 -1.77528e-13 
-3.5264 -6.12899 -1.8977e-13 
-3.31152 -6.04738 2.55689e-18 
-3.07485 -6.10416 1.28845e-17 
-2.83199 -6.033 5.92261e-18 
-2.62912 -6.10542 1.76092e-17 
-2.43402 -5.98971 -6.0337e-17 
-2.21288 -6.03689 -5.20859e-17 
-2.00148 -6.0993 -8.43178e-17 
-1.77574 -6.13953 -9.42015e-17 
-1.55007 -5.99535 6.19303e-17 
-1.32883 -6.03022 1.76114e-17 
-1.11904 -6.05209 -1.46347e-16 
-0.910205 -6.11425 2.37901e-16 
-0.702721 -6.08999 1.22267e-16 
-0.492544 -6.12373 7.04768e-17 
-0.283905 -6.10031 -1.80304e-17 
-0.0742377 -6.09686 -1.26735e-16 
0.13485 -6.11978 3.38008e-17 
0.344117 -6.10002 1.13522e-16 
0.558365 -6.08795 1.62635e-17 
0.770641 -6.09423 -6.91929e-17 
0.985914 -6.09266 -1.64389e-17 
1.19894 -6.03479 -1.69146e-17 
1.41111 -6.05266 -1.41897e-17 
1.62338 -5.98628 2.02239e-17 
1.84284 -6.10129 5.26085e-17 
2.06361 -6.08765 2.97838e-17 
2.27865 -6.00703 8.20046e-18 
2.50005 -6.1116 -3.2097e-18 
2.74035 -6.11195 1.25495e-17 
2.96408 -6.0131 3.96466e-18 
3.20275 -6.07807 4.12297e-18 
3.41019 -5.95735 -2.04045e-18 
3.58029 -6.09766 6.65778e-13 
-3.9445 -5.86864 -3.21272e-13 
-3.72504 -5.7999 7.78952e-18 
-3.49736 -5.88414 2.01112e-17 
-3.26505 -5.82679 -1.23454e-18 
-3.05776 -5.89738 -1.44101e-17 
-2.86146 -5.80079 -7.01243e-17 
-2.64349 -5.8598 -2.07036e-17 
-2.41479 -5.77314 2.76322e-17 
-2.19932 -5.81793 4.77768e-17 
-1.9848 -5.87265 3.67422e-17 
-1.77485 -5.92272 3.8524e-17 
-1.56128 -5.77942 -1.38651e-17 
-1.33669 -5.81364 -9.7913e-18 
-1.11456 -5.82267 1.1348e-17 
-0.906612 -5.88057 -6.25288e-17 
-0.703894 -5.84985 -2.22384e-17 
-0.501937 -5.88851 -7.86315e-18 
-0.2934 -5.86718 1.88894e-17 
-0.0838461 -5.86291 2.6282e-17 
0.12669 -5.88384 1.87554e-17 
0.341028 -5.87217 -1.33365e-16 
0.553714 -5.85932 1.2171e-17 
0.766685 -5.86304 5.40864e-17 
0.975035 -5.86709 -1.93752e-17 
1.19442 -5.81693 -3.67246e-18 
1.41703 -5.82397 2.02494e-17 
1.63588 -5.76371 -2.67011e-17 
1.84507 -5.88065 -5.32992e-17 
2.05955 -5.86406 -3.66632e-17 
2.26596 -5.78397 -4.26481e-17 
2.48841 -5.88843 -1.8072e-17 
2.7079 -5.90957 -3.35373e-17 
2.92366 -5.80716 -2.3047e-17 
3.1671 -5.86496 5.45789e-18 
3.39914 -5.75355 1.51406e-17 
3.64299 -5.86213 -3.52413e-18 
3.82281 -5.94863 3.37394e-13 
3.99822 -5.83217 8.01362e-13 
-4.38589 -5.54653 7.20924e-15 
-4.13866 -5.73337 7.53652e-15 
-3.91985 -5.63875 1.93185e-17 
-3.69302 -5.5782 -2.01982e-17 
-3.48837 -5.67051 -1.42096e-17 
-3.2925 -5.59131 -4.09822e-18 
-3.07913 -5.6556 1.94579e-17 
-2.84877 -5.58786 8.35905e-18 
-2.62541 -5.64054 3.3218e-17 
-2.40864 -5.55292 -4.5297e-17 
-2.19622 -5.59462 -2.37197e-17 
-1.9837 -5.64667 -1.07313e-17 
-1.7721 -5.69369 -3.74354e-18 
-1.57381 -5.55027 -3.85809e-18 
-1.36325 -5.59872 9.35829e-18 
-1.14288 -5.60679 1.96565e-17 
-0.917661 -5.64493 7.62777e-18 
-0.694869 -5.63307 -6.29965e-17 
-0.475111 -5.65339 -2.08859e-17 
-0.263573 -5.63563 -1.22619e-17 
-0.0503523 -5.63558 -7.46753e-18 
0.1592 -5.65574 -4.68571e-17 
0.371689 -5.64427 7.1714e-19 
0.588611 -5.63495 -2.1418e-17 
0.794853 -5.63168 -1.459e-17 
1.00429 -5.64214 -1.9884e-17 
1.23762 -5.60576 -2.2954e-18 
1.44705 -5.59797 -3.33404e-17 
1.65858 -5.53431 4.14628e-17 
1.85275 -5.65564 -8.4816e-18 
2.05297 -5.63152 -4.71082e-17 
2.26438 -5.56319 -8.81247e-20 
2.47976 -5.66903 -2.08035e-17 
2.69996 -5.68907 2.96861e-17 
2.93139 -5.59814 1.99991e-17 
3.15899 -5.66277 5.22507e-18 
3.35765 -5.53466 -1.05821e-19 
3.5963 -5.64249 1.04661e-17 
3.82094 -5.67407 -4.89328e-18 
4.03632 -5.59407 -6.76645e-18 
4.22818 -5.66767 -5.27215e-13 
-4.5733 -5.39304 -1.42522e-13 
-4.33875 -5.32374 2.1562e-17 
-4.16115 -5.51963 5.43824e-18 
-3.93717 -5.43026 -2.24078e-17 
-3.72989 -5.35778 -1.58575e-17 
-3.50274 -5.42574 -3.57394e-18 
-3.27079 -5.38151 2.63287e-17 
-3.04725 -5.43682 2.38176e-17 
-2.84006 -5.35447 1.18688e-17 
-2.6391 -5.42327 5.73482e-17 
-2.42761 -5.33993 1.39904e-17 
-2.20671 -5.36743 -1.03333e-19 
-1.99801 -5.41773 -7.08118e-18 
-1.78764 -5.46365 3.51447e-18 
-1.54899 -5.34254 4.18755e-18 
-1.32602 -5.38542 1.21588e-17 
-1.12012 -5.37566 1.34563e-18 
-0.923453 -5.43202 4.56898e-18 
-0.729996 -5.39416 2.24311e-17 
-0.526965 -5.42953 1.59262e-17 
-0.318018 -5.41387 1.59789e-17 
-0.103097 -5.41066 7.71478e-18 
0.112791 -5.4227 3.76284e-18 
0.31798 -5.42221 2.397e-17 
0.53121 -5.42005 1.53515e-17 
0.748267 -5.40104 1.17248e-17 
0.955133 -5.41341 1.50802e-17 
1.16148 -5.41871 -8.97876e-18 
1.39591 -5.37554 1.42321e-17 
1.59711 -5.33244 2.94188e-17 
1.85384 -5.41516 1.25195e-17 
2.06279 -5.4061 1.23731e-16 
2.2843 -5.35031 -1.00945e-17 
2.49248 -5.45742 -1.84007e-17 
2.71612 -5.47525 -1.48335e-17 
2.91485 -5.36989 -2.19802e-17 
3.12705 -5.44312 2.29239e-18 
3.33306 -5.3189 3.70386e-17 
3.57038 -5.42958 7.36432e-18 
3.79962 -5.45523 5.56546e-18 
4.0278 -5.38307 1.01969e-17 
4.25773 -5.42354 -7.01414e-18 
4.44919 -5.49588 5.89364e-14 
-4.79357 -5.19824 -2.21667e-13 
-4.56323 -5.18346 1.27574e-17 
-4.34982 -5.1005 -2.04129e-17 
-4.12298 -5.28724 -1.87273e-17 
-3.91182 -5.191 5.52282e-18 
-3.68503 -5.13551 3.95473e-17 
-3.48874 -5.21637 5.85022e-17 
-3.28486 -5.15211 -1.72261e-17 
-3.07675 -5.21706 -2.59671e-17 
-2.85601 -5.14868 -4.77341e-17 
-2.62292 -5.19257 -2.68732e-17 
-2.39409 -5.13163 -4.97057e-17 
-2.17527 -5.15551 1.27474e-17 
-1.96238 -5.19996 9.6584e-18 
-1.7544 -5.24714 9.25617e-18 
-1.55857 -5.11303 -3.28719e-17 
-1.35206 -5.17248 6.37571e-19 
-1.13589 -5.1506 5.55451e-20 
-0.925406 -5.19018 -8.40538e-19 
-0.71091 -5.17256 -7.25614e-18 
-0.502221 -5.2005 -9.64759e-18 
-0.286907 -5.19332 -8.5192e-18 
-0.0683259 -5.19352 -6.9453e-18 
0.138135 -5.19246 -8.94971e-18 
0.349682 -5.20054 -4.26337e-18 
0.565167 -5.20173 -1.03502e-17 
0.777064 -5.17551 -1.76019e-17 
0.983627 -5.18785 -1.56702e-17 
1.20465 -5.21278 -1.43124e-17 
1.409 -5.14253 3.6427e-17 
1.68723 -5.17876 -1.94897e-16 
1.89638 -5.19331 6.88326e-19 
2.10685 -5.1849 4.75889e-17 
2.2925 -5.09825 -4.44523e-17 
2.46938 -5.22021 4.61634e-17 
2.66879 -5.26318 -2.54001e-17 
2.87371 -5.16638 -3.24809e-17 
3.11647 -5.21817 -1.98936e-17 
3.34621 -5.10653 1.20685e-17 
3.56406 -5.22638 1.27146e-17 
3.80183 -5.24268 2.56852e-17 
4.01447 -5.16148 1.78442e-17 
4.2356 -5.20637 8.12028e-18 
4.46418 -5.24667 -2.25269e-18 
4.65664 -5.32125 -2.45796e-13 
4.79541 -5.19654 -1.52402e-13 
-4.99423 -5.00577 2.43712e-13 
-4.76343 -4.98816 1.82045e-17 
-4.5491 -4.95518 -2.07043e-17 
-4.32881 -4.87224 5.20057e-18 
-4.13705 -5.06408 -1.94582e-17 
-3.91254 -4.9811 6.53533e-17 
-3.69283 -4.92321 -6.16434e-17 
-3.4709 -4.97874 -5.7764e-17 
-3.25502 -4.93 -4.6335e-17 
-3.05252 -4.99744 -2.09628e-17 
-2.84805 -4.91927 6.69475e-17 
-2.64755 -4.99112 8.02716e-17 
-2.43547 -4.9282 -2.22483e-17 
-2.20487 -4.94191 8.13904e-18 
-1.98192 -4.97562 -1.91831e-18 
-1.77105 -5.01833 6.20961e-18 
[...]
POINT_DATA 3402 
VECTORS vectors float
4.04611e-05 1.94111e-05 1 
0.000139821 1.49231e-05 1 
0.000171789 6.05873e-06 1 
-2.11574e-06 1.25824e-05 1 
-2.24634e-05 2.01653e-05 1 
0.000164081 -8.73973e-06 1 
-4.94157e-05 1.16558e-05 1 
0.000246985 2.09205e-06 1 
2.56097e-05 -8.39803e-06 1 
6.16277e-05 1.06411e-06 1 
0.000156551 -7.00937e-06 1 
0.000128837 -4.24947e-06 1 
2.40389e-05 -1.90207e-05 1 
4.4559e-06 -1.21125e-05 1 
0.000203336 7.43608e-06 1 
-0.000218955 -5.4103e-05 1 
-6.42472e-05 4.38223e-05 1 
8.90043e-05 2.16525e-05 1 
0.000133016 9.64858e-06 1 
-2.28936e-05 3.2725e-05 1 
0.0540049 -0.0127124 0.99846 
0.0571276 -0.0113957 0.998302 
0.0574139 -0.00969845 0.998303 
0.0542047 -0.00725617 0.998503 
0.0580099 -0.00592095 0.998298 
0.0559467 -0.00389804 0.998426 
0.0582899 -0.00218754 0.998297 
0.0585341 -0.000436518 0.998285 
0.0564991 0.00134537 0.998402 
0.0584927 0.00322821 0.998283 
0.0574577 0.00491805 0.998336 
0.0575236 0.00670822 0.998322 
0.0549331 0.00824501 0.998456 
0.0570317 0.0104907 0.998317 
0.0538782 0.0116552 0.998479 
0.0516345 0.0131417 0.99858 
0.000129198 8.43769e-06 1 
0.000207665 3.66778e-06 1 
-0.000282055 -8.73358e-05 1 
-4.33876e-05 4.71465e-05 1 
7.46134e-05 4.44115e-06 1 
0.0500812 -0.0189932 0.998565 
0.053599 -0.0182103 0.998396 
0.0546972 -0.0166357 0.998364 
0.0559831 -0.0151183 0.998317 
0.0683459 -0.0164069 0.997527 
0.0691896 -0.0143067 0.997501 
0.0700854 -0.0120606 0.997468 
0.0690845 -0.00961972 0.997564 
0.0705535 -0.00763847 0.997479 
0.0698451 -0.00524027 0.997544 
0.0703048 -0.00296213 0.997521 
0.0705628 -0.000698059 0.997507 
0.0699267 0.00154625 0.997551 
0.0702675 0.00378399 0.997521 
0.069704 0.00604722 0.997549 
0.0697421 0.00837803 0.99753 
0.0687813 0.0105905 0.997576 
0.0690711 0.0131032 0.997526 
0.0678684 0.0153482 0.997576 
0.0676894 0.0176391 0.997551 
0.0577118 0.0166551 0.998194 
0.0513592 0.0165172 0.998544 
0.0516112 0.0186147 0.998494 
0.000269044 3.16227e-05 1 
0.000182275 -7.30534e-06 1 
-0.000189892 -4.33649e-05 1 
2.47528e-05 2.50109e-05 1 
1.12338e-05 1.42551e-05 1 
0.0467637 -0.0215541 0.998673 
0.0526938 -0.0220436 0.998367 
0.065001 -0.0249797 0.997572 
0.0662534 -0.0230253 0.997537 
0.0674996 -0.0208877 0.997501 
0.0685371 -0.0187858 0.997472 
0.0731609 -0.0182094 0.997154 
0.0737818 -0.0158397 0.997149 
0.0740554 -0.0133915 0.997164 
0.0741788 -0.010707 0.997187 
0.0744832 -0.00825649 0.997188 
0.0745438 -0.00574829 0.997201 
0.0746338 -0.00334805 0.997205 
0.0745554 -0.000891812 0.997216 
0.0744611 0.00159197 0.997223 
0.0745281 0.00410305 0.99721 
0.0742594 0.00657955 0.997217 
0.073812 0.00898165 0.997232 
0.0734568 0.0113527 0.997234 
0.0732002 0.0139297 0.99722 
0.072488 0.0163689 0.997235 
0.0719764 0.0189533 0.997226 
0.0684262 0.020433 0.997447 
0.0659075 0.0217597 0.997588 
0.0660879 0.0240758 0.997523 
0.0565462 0.0223943 0.998149 
0.0484376 0.0208517 0.998609 
0.0448827 0.0214596 0.998762 
-4.44445e-05 -2.43041e-05 1 
0.000166968 2.81673e-05 1 
4.42822e-05 1.28256e-05 1 
-6.97529e-05 4.03393e-05 1 
0.0443456 -0.0242576 0.998722 
0.0517799 -0.0260585 0.998318 
0.0627989 -0.0293908 0.997593 
0.0644554 -0.0276308 0.997538 
0.0687834 -0.0277282 0.997246 
0.0702706 -0.0255052 0.997202 
0.0712966 -0.023167 0.997186 
0.0723956 -0.0207682 0.99716 
0.0718901 -0.0185445 0.99724 
0.0719234 -0.0158883 0.997284 
0.0717397 -0.0133266 0.997334 
0.072658 -0.010935 0.997297 
0.0712704 -0.00835227 0.997422 
0.0716928 -0.00586383 0.99741 
0.0706034 -0.00339537 0.997499 
0.0702515 -0.000971466 0.997529 
0.0708636 0.00152871 0.997485 
0.0703536 0.00399902 0.997514 
0.0704661 0.00651919 0.997493 
0.0711395 0.0091059 0.997425 
0.0717355 0.0116833 0.997355 
0.0711246 0.0141894 0.997367 
0.0721209 0.0168341 0.997254 
0.0714035 0.0193607 0.99726 
0.0720212 0.0217299 0.997166 
0.0707311 0.0238851 0.997209 
0.0697803 0.0263061 0.997215 
0.0660691 0.0269268 0.997452 
0.0627443 0.0281696 0.997632 
0.0619062 0.0304244 0.997618 
0.0478189 0.0252299 0.998537 
0.0474185 0.027088 0.998508 
-0.0001759 -8.49133e-05 1 
-4.07961e-05 3.09571e-05 1 
0.0427659 -0.0274403 0.998708 
0.0486862 -0.0289454 0.998395 
0.0600988 -0.0336555 0.997625 
0.0622612 -0.032213 0.99754 
0.0661482 -0.0324568 0.997282 
0.0678573 -0.0304291 0.997231 
0.0692273 -0.0288672 0.997183 
0.0699446 -0.0263097 0.997204 
0.070405 -0.0236616 0.997238 
0.0707643 -0.0211094 0.99727 
0.0640273 -0.0172036 0.9978 
0.0633864 -0.0145727 0.997883 
0.0620393 -0.0119111 0.998003 
0.0631554 -0.00978105 0.997956 
0.0602227 -0.00731739 0.998158 
0.0614942 -0.00535739 0.998093 
0.0597164 -0.00311997 0.998211 
0.0591738 -0.000961425 0.998247 
0.0601869 0.00121799 0.998186 
0.0597824 0.00349219 0.998205 
0.0601883 0.00577517 0.99817 
0.0611943 0.00810636 0.998093 
0.0625379 0.0105441 0.997987 
0.0620832 0.0128325 0.997988 
0.0641677 0.0156098 0.997817 
0.0639107 0.0181566 0.99779 
0.0697946 0.0219495 0.99732 
0.0701876 0.0246463 0.997229 
0.0693427 0.0272122 0.997222 
0.0688663 0.0290461 0.997203 
0.0671051 0.0307142 0.997273 
0.0658487 0.0330882 0.997281 
0.0615314 0.0331747 0.997554 
0.0596307 0.0351964 0.9976 
0.0420853 0.026181 0.998771 
6.17761e-05 9.83066e-06 1 
4.29817e-05 -2.13522e-05 1 
-6.68323e-05 2.65334e-05 1 
-1.62064e-05 6.31352e-06 1 
0.0444187 -0.0308644 0.998536 
0.0574095 -0.0380328 0.997626 
0.0593712 -0.0365295 0.997567 
0.0631115 -0.0371561 0.997315 
0.0649315 -0.0353132 0.997265 
0.0666069 -0.0339366 0.997202 
0.0674249 -0.0312912 0.997234 
0.0632552 -0.0272833 0.997624 
0.0628582 -0.0244891 0.997722 
0.0624164 -0.0217662 0.997813 
0.0620456 -0.0192031 0.997889 
0.0528937 -0.0149242 0.998489 
0.0529029 -0.0128857 0.998517 
0.051447 -0.0105534 0.99862 
0.0515606 -0.00847406 0.998634 
0.0494913 -0.00619347 0.998755 
0.0493418 -0.00420136 0.998773 
0.047974 -0.00228685 0.998846 
0.0479227 -0.000429479 0.998851 
0.0489737 0.00141816 0.998799 
0.0487115 0.00332798 0.998807 
0.0488535 0.00520388 0.998792 
0.0501396 0.0072354 0.998716 
0.051523 0.00931097 0.998628 
0.0514792 0.0114162 0.998609 
0.0537676 0.0139228 0.998456 
0.0528595 0.0158105 0.998477 
0.0610052 0.0199694 0.997938 
0.0629402 0.0229955 0.997752 
0.062275 0.0253393 0.997737 
0.067498 0.0295343 0.997282 
0.068039 0.032174 0.997164 
0.0666207 0.0347963 0.997171 
0.0644217 0.0359035 0.997277 
0.0631456 0.0382535 0.997271 
0.0580812 0.0370027 0.997626 
0.0475512 0.0320936 0.998353 
0.0402499 0.0289942 0.998769 
-4.99974e-05 8.41408e-06 1 
4.91871e-05 -1.21101e-05 1 
0.0412696 -0.0336688 0.998581 
0.0376284 -0.0283497 0.99889 
0.0554425 -0.0402885 0.997649 
0.0598918 -0.0416991 0.997334 
0.0622553 -0.0401757 0.997251 
0.0639129 -0.0389006 0.997197 
0.0648454 -0.0364373 0.99723 
0.0616423 -0.0326691 0.997564 
0.0614549 -0.0298204 0.997664 
0.0543442 -0.0245883 0.998219 
0.0521708 -0.0212573 0.998412 
0.0516371 -0.0188908 0.998487 
0.0508296 -0.0165086 0.998571 
0.0432216 -0.0124765 0.998988 
0.0428742 -0.0105569 0.999025 
0.0413699 -0.00864234 0.999107 
0.0424159 -0.00727374 0.999074 
0.0397362 -0.00543527 0.999195 
0.0403163 -0.00397001 0.999179 
0.0389356 -0.00231181 0.999239 
0.0387313 -0.000734553 0.999249 
0.0391442 0.000837523 0.999233 
0.0395332 0.00234733 0.999216 
0.0394168 0.00390613 0.999215 
0.0403317 0.0055995 0.999171 
0.0411975 0.00728686 0.999124 
0.0425459 0.00911091 0.999053 
0.0431012 0.011159 0.999008 
0.0429989 0.01281 0.998993 
0.0493132 0.0167909 0.998642 
0.0520483 0.0196162 0.998452 
0.052551 0.0222236 0.998371 
0.0603476 0.0275402 0.997797 
0.0638137 0.0316037 0.997461 
0.0626389 0.0339438 0.997459 
0.0650622 0.0373129 0.997183 
0.0635814 0.039801 0.997183 
0.0612823 0.0402488 0.997309 
0.0574561 0.040109 0.997542 
0.0541492 0.0405493 0.997709 
0.0385954 0.030261 0.998797 
-0.000157407 -8.29806e-05 1 
-7.21276e-05 3.65288e-05 1 
0.0362782 -0.0318964 0.998833 
0.0521044 -0.044414 0.997654 
0.0539237 -0.0420381 0.99766 
0.0587944 -0.0443424 0.997285 
0.0610237 -0.0439229 0.997169 
0.0622392 -0.0417865 0.997186 
0.0602064 -0.0383651 0.997448 
0.0592451 -0.0348424 0.997635 
0.0529158 -0.0292106 0.998172 
0.0510965 -0.0257248 0.998362 
0.0445481 -0.0205999 0.998795 
0.0423871 -0.0177425 0.998944 
0.0416001 -0.015597 0.999013 
0.0411488 -0.0137023 0.999059 
0.034771 -0.0106017 0.999339 
0.0351627 -0.00921484 0.999339 
0.0331491 -0.0073172 0.999424 
0.0333832 -0.00596114 0.999425 
0.0315497 -0.00433085 0.999493 
0.0317922 -0.00306192 0.99949 
0.0308672 -0.00166642 0.999522 
0.030808 -0.000343977 0.999525 
0.0307267 0.000889461 0.999527 
0.0313968 0.00216314 0.999505 
0.0317479 0.00354011 0.99949 
0.0321891 0.00484803 0.99947 
0.0331128 0.00630153 0.999432 
0.0354579 0.00821875 0.999337 
0.034248 0.00937583 0.999369 
0.0381509 0.0124169 0.999195 
0.0401348 0.0146382 0.999087 
0.0431882 0.017421 0.998915 
0.0417777 0.0187135 0.998952 
0.0494134 0.0232073 0.998509 
0.0544927 0.0276165 0.998132 
0.0540696 0.0300752 0.998084 
0.0601939 0.035925 0.99754 
0.0597277 0.0390943 0.997449 
0.0619553 0.0422109 0.997186 
0.0596134 0.0432069 0.997286 
0.0573557 0.0445798 0.997358 
0.0527632 0.0426768 0.997695 
0.0386752 0.0331058 0.998703 
0.000191472 4.09021e-05 1 
9.58741e-05 4.03016e-07 1 
2.052e-05 -2.79694e-05 1 
0.0355374 -0.0339525 0.998791 
0.0499009 -0.0458575 0.997701 
0.0549869 -0.0487928 0.997294 
0.0565273 -0.0460839 0.997337 
0.0589838 -0.0463853 0.997181 
0.0582174 -0.0436233 0.99735 
0.0569581 -0.0396562 0.997589 
0.0511809 -0.0337871 0.998118 
0.0502649 -0.0307277 0.998263 
0.0432163 -0.0251228 0.99875 
0.0424452 -0.0226238 0.998843 
0.038418 -0.0189415 0.999082 
0.0348625 -0.0155218 0.999272 
0.0334893 -0.0133344 0.99935 
0.0329552 -0.0116541 0.999389 
0.0273564 -0.00866446 0.999588 
0.0272472 -0.00731354 0.999602 
0.0250867 -0.00567347 0.999669 
0.0253407 -0.00461771 0.999668 
0.0229404 -0.00327023 0.999731 
0.0233062 -0.00236734 0.999726 
0.0229373 -0.00138718 0.999736 
0.0227589 -0.000380057 0.999741 
0.0222505 0.000603905 0.999752 
0.0229055 0.00156668 0.999736 
0.0240124 0.00260681 0.999708 
0.0237394 0.0036421 0.999712 
0.0249344 0.00481789 0.999677 
0.0275227 0.00644497 0.9996 
0.0266707 0.00750405 0.999616 
0.0311986 0.0100203 0.999463 
0.0318799 0.0118444 0.999422 
0.0344237 0.0141971 0.999306 
0.0339611 0.0156334 0.999301 
0.0392438 0.0195983 0.999037 
0.044661 0.0235024 0.998726 
0.0450464 0.0261129 0.998644 
0.0521778 0.0321232 0.998121 
0.0508179 0.0339763 0.99813 
0.0588086 0.0416296 0.997401 
0.0601178 0.0447891 0.997186 
0.0586192 0.0465927 0.997193 
0.0565164 0.0471468 0.997288 
0.0527877 0.0459079 0.99755 
0.0446791 0.0407778 0.998169 
0.034046 0.0326845 0.998886 
-0.000133499 -1.34801e-05 1 
-4.80256e-05 9.32682e-06 1 
0.0323235 -0.0335982 0.998913 
0.0474186 -0.0474765 0.997746 
0.0527258 -0.0505235 0.99733 
0.0552329 -0.0511252 0.997164 
0.0570914 -0.0484186 0.997194 
0.0561198 -0.0457317 0.997376 
0.050685 -0.0398261 0.99792 
0.0494739 -0.0362696 0.998117 
0.0432259 -0.030065 0.998613 
0.0406146 -0.0260697 0.998835 
0.0351186 -0.0212493 0.999157 
0.0341469 -0.0189114 0.999238 
0.0313615 -0.0158293 0.999383 
0.0279076 -0.0128192 0.999528 
0.0260044 -0.0107969 0.999604 
0.0253574 -0.00933307 0.999635 
0.0194656 -0.00649506 0.999789 
0.0197015 -0.00563195 0.99979 
0.01736 -0.0041799 0.999841 
0.0168381 -0.00325719 0.999853 
0.015004 -0.0022159 0.999885 
0.0146331 -0.00147972 0.999892 
0.014879 -0.000835673 0.999889 
0.0146925 -0.000168352 0.999892 
0.014082 0.000457469 0.999901 
0.0146743 0.00110884 0.999892 
0.0161315 0.00191438 0.999868 
0.0153885 0.00248855 0.999878 
0.0171764 0.00353491 0.999846 
0.0197271 0.00488567 0.999793 
0.0199544 0.00603841 0.999783 
0.0246068 0.00843835 0.999662 
0.0250746 0.00988401 0.999637 
0.0268782 0.0117312 0.99957 
0.0297698 0.0147888 0.999447 
0.0323503 0.0173623 0.999326 
0.0369495 0.020937 0.999098 
0.0353527 0.0218788 0.999135 
0.0420836 0.0267645 0.998756 
0.0408123 0.0282782 0.998767 
0.0499154 0.036066 0.998102 
0.054441 0.0418169 0.997641 
0.055131 0.0454696 0.997443 
0.0564002 0.0489528 0.997207 
0.0543468 0.0493017 0.997304 
0.0510472 0.0486672 0.99751 
0.0464617 0.046916 0.997818 
0.0308404 0.0325351 0.998995 
-1.80699e-05 -1.43389e-05 1 
-1.73764e-05 1.51283e-05 1 
0.031344 -0.0356602 0.998872 
0.0452019 -0.0490772 0.997772 
0.0505238 -0.052781 0.997327 
0.0528658 -0.0528423 0.997203 
0.0531317 -0.0513423 0.997267 
0.055023 -0.0485264 0.997305 
0.0493265 -0.0423251 0.997886 
0.0424754 -0.0347911 0.998492 
0.0400024 -0.0304688 0.998735 
0.035305 -0.0250427 0.999063 
0.0324513 -0.0215587 0.999241 
0.0281686 -0.017486 0.99945 
0.0273497 -0.0155469 0.999505 
0.0245748 -0.0127852 0.999616 
0.0206179 -0.00991808 0.999738 
0.0182738 -0.00799067 0.999801 
0.0177354 -0.00690067 0.999819 
0.0123819 -0.00435133 0.999914 
0.0121844 -0.00362671 0.999919 
0.0103589 -0.0025601 0.999943 
0.009714 -0.00191082 0.999951 
0.00832432 -0.00123492 0.999965 
0.00792204 -0.000790343 0.999968 
0.00817952 -0.000421352 0.999966 
0.00794016 -4.47064e-05 0.999968 
0.00753818 0.000303866 0.999972 
0.00820159 0.000712538 0.999966 
0.00892281 0.00116826 0.99996 
0.00903545 0.00162362 0.999958 
0.0105162 0.00237669 0.999942 
0.0133065 0.00360728 0.999905 
0.0115534 0.00368139 0.999926 
0.016448 0.00580243 0.999848 
0.018036 0.00718111 0.999812 
0.0190406 0.00865089 0.999781 
0.0236739 0.0116905 0.999651 
0.0246275 0.0136649 0.999603 
0.0288346 0.0171436 0.999437 
0.0283371 0.0184805 0.999428 
0.0333863 0.0228013 0.999182 
0.040577 0.030573 0.998709 
0.0457872 0.0363445 0.99829 
0.0470597 0.0400942 0.998087 
0.0523137 0.0467836 0.997534 
0.0543829 0.0510176 0.997216 
0.0526448 0.0516824 0.997275 
0.0506492 0.0522779 0.997347 
0.0459701 0.0496717 0.997707 
0.0347841 0.0397134 0.998605 
0.000111517 2.80407e-05 1 
2.19937e-05 1.91512e-05 1 
0.0327662 -0.0402689 0.998651 
0.0442515 -0.0519648 0.997668 
0.0484829 -0.0546598 0.997327 
0.051053 -0.0551659 0.997171 
0.0517402 -0.053564 0.997223 
0.0460124 -0.0464711 0.997859 
0.0495541 -0.0461667 0.997704 
0.0421374 -0.0390332 0.998349 
0.0386277 -0.0339511 0.998677 
0.0337776 -0.0277374 0.999044 
0.0316829 -0.0242624 0.999203 
0.0274426 -0.0198314 0.999427 
0.0249323 -0.0168215 0.999548 
0.0212021 -0.0131293 0.999689 
0.0198145 -0.0112705 0.99974 
0.015814 -0.0083453 0.99984 
0.0122964 -0.00593174 0.999907 
0.0107005 -0.00459959 0.999932 
0.00843198 -0.00329079 0.999959 
0.00669932 -0.00219244 0.999975 
0.00571958 -0.0015832 0.999982 
0.00483463 -0.00107368 0.999988 
0.00414404 -0.000711682 0.999991 
0.00359397 -0.000428815 0.999993 
0.0036246 -0.00024503 0.999993 
0.00354421 -6.79876e-05 0.999994 
0.00340046 9.74019e-05 0.999994 
0.00362774 0.00028568 0.999993 
0.0038993 0.000496858 0.999992 
0.0044785 0.000776325 0.99999 
0.005119 0.00116574 0.999986 
0.00682548 0.00187662 0.999975 
0.00617929 0.00206624 0.999979 
0.00958493 0.00363434 0.999947 
0.0119737 0.0051359 0.999915 
0.0130137 0.00633759 0.999895 
0.0178099 0.0093721 0.999797 
0.0174529 0.010161 0.999796 
0.0221117 0.013675 0.999662 
0.0223747 0.0152215 0.999634 
0.0268691 0.0194402 0.99945 
0.032929 0.0246024 0.999155 
0.0351405 0.0286187 0.998973 
0.0379046 0.0326204 0.998749 
0.0428643 0.0393672 0.998305 
0.0494361 0.0474651 0.997649 
0.0517726 0.0523622 0.997285 
0.0511245 0.0543538 0.997212 
0.0491148 0.0546541 0.997297 
0.0451358 0.0528978 0.997579 
0.0351428 0.042894 0.998461 
-2.44189e-05 -3.1829e-05 1 
-1.0866e-05 2.13157e-05 1 
0.0318218 -0.0420958 0.998607 
0.042793 -0.0544407 0.9976 
0.0466095 -0.0569564 0.997288 
0.0489401 -0.0570792 0.997169 
0.0490369 -0.0547075 0.997298 
0.0447278 -0.0482011 0.997836 
0.0383534 -0.0380444 0.99854 
0.0325507 -0.0308196 0.998995 
0.0306633 -0.0271138 0.999162 
0.0266651 -0.022066 0.999401 
0.0239851 -0.0187236 0.999537 
0.0200719 -0.0147012 0.99969 
0.0179669 -0.0121393 0.999765 
0.0137857 -0.00861611 0.999868 
0.0116914 -0.00677364 0.999909 
0.00842842 -0.00449077 0.999954 
0.00635074 -0.00304049 0.999975 
0.00420074 -0.00184545 0.999989 
0.00415011 -0.00157093 0.99999 
0.00268667 -0.000885768 0.999996 
0.0022709 -0.000620909 0.999997 
0.0016786 -0.000368839 0.999999 
0.00135627 -0.000223464 0.999999 
0.00113359 -0.000122129 0.999999 
0.00103591 -5.56042e-05 0.999999 
0.000982208 -1.61344e-06 1 
0.00108922 5.60085e-05 0.999999 
0.00114634 0.000119281 0.999999 
0.00128888 0.000198809 0.999999 
0.00196693 0.000399778 0.999998 
0.00182265 0.000460929 0.999998 
0.00310402 0.000909889 0.999995 
0.00269437 0.000956234 0.999996 
0.00491226 0.00196635 0.999986 
0.00676538 0.00306343 0.999972 
0.00695501 0.00355244 0.99997 
0.0108849 0.00599486 0.999923 
0.0114683 0.00703171 0.99991 
0.0158947 0.0104124 0.999819 
0.018539 0.0135176 0.999737 
0.0224947 0.0174456 0.999595 
0.0281928 0.0225123 0.999349 
0.0282021 0.0243708 0.999305 
0.0328816 0.0299247 0.999011 
0.0370776 0.0359039 0.998667 
0.0437019 0.0441904 0.998067 
0.0466915 0.0497808 0.997668 
0.0489422 0.0548396 0.997295 
0.0484068 0.0566909 0.997218 
0.0463068 0.0571567 0.997291 
0.042192 0.0541239 0.997642 
0.0282131 0.037317 0.998905 
-0.000115508 -7.47217e-05 1 
-5.79712e-05 5.8047e-05 1 
0.0291254 -0.0417432 0.998704 
0.0403514 -0.055815 0.997625 
0.0441287 -0.0587127 0.997299 
0.0463605 -0.0591423 0.997172 
0.0465952 -0.0566084 0.997309 
0.0429126 -0.0502273 0.997815 
0.0364969 -0.0415615 0.998469 
0.0358071 -0.0382132 0.998628 
0.0301374 -0.0307641 0.999072 
0.0259632 -0.0249751 0.999351 
0.0242199 -0.021719 0.999471 
0.0197209 -0.0168709 0.999663 
0.0171817 -0.0137394 0.999758 
0.0134118 -0.00996824 0.99986 
0.0110531 -0.00758413 0.99991 
0.00714305 -0.00459802 0.999964 
0.00577787 -0.0034084 0.999977 
0.00383318 -0.0020505 0.999991 
0.00222753 -0.00110772 0.999997 
0.0016637 -0.000721565 0.999998 
0.00117948 -0.000454811 0.999999 
0.00060567 -0.000207486 1 
0.000276916 -8.6138e-05 1 
-8.72426e-05 5.09451e-06 1 
-0.00027141 3.07004e-05 1 
-0.000547404 4.26488e-05 1 
-0.000672347 2.06802e-05 1 
-0.00053212 -9.92195e-06 1 
-0.000449716 -3.05585e-05 1 
-0.000386738 -4.38505e-05 1 
0.00017729 4.45084e-05 1 
0.000281197 8.47077e-05 1 
0.000920381 0.000304037 1 
0.00058275 0.000233317 1 
0.00184332 0.000777383 0.999998 
0.00295245 0.00139291 0.999995 
0.00340331 0.00183179 0.999993 
0.00609843 0.00356126 0.999975 
0.00617216 0.00399966 0.999973 
0.0098375 0.0067435 0.999929 
0.0131539 0.00964817 0.999867 
0.0163147 0.0132143 0.99978 
0.0220564 0.0186846 0.999582 
0.0244936 0.0225881 0.999445 
0.0287313 0.0278432 0.999199 
0.0297735 0.0307434 0.999084 
0.0357246 0.0374901 0.998658 
0.038964 0.0433223 0.998301 
0.0432805 0.0504417 0.997789 
0.0462016 0.0563989 0.997339 
0.045998 0.0590645 0.997194 
0.0440268 0.0585777 0.997312 
0.0401221 0.0552193 0.997668 
0.0305133 0.043806 0.998574 
0.000134977 8.66612e-05 1 
1.46325e-05 2.52311e-05 1 
0.0278643 -0.0434447 0.998667 
0.0381989 -0.0571904 0.997632 
0.0417598 -0.0603348 0.997304 
0.0438923 -0.0609002 0.997178 
0.0434147 -0.0576728 0.997391 
0.0402863 -0.0513063 0.99787 
0.0346479 -0.0427147 0.998486 
0.029092 -0.034143 0.998993 
0.0279705 -0.0307711 0.999135 
0.0237554 -0.0246597 0.999414 
0.0198264 -0.0192529 0.999618 
0.0165826 -0.0153109 0.999745 
0.0125595 -0.0108533 0.999862 
0.0100788 -0.00809584 0.999916 
0.00704295 -0.00523044 0.999962 
0.00449575 -0.00313579 0.999985 
0.00273307 -0.0017512 0.999995 
0.00211775 -0.00123776 0.999997 
0.000778647 -0.000433973 1 
0.000534497 -0.000271763 1 
-8.56809e-05 1.49789e-05 1 
-0.000364549 0.000107954 1 
-0.000932643 0.000259412 1 
-0.00135256 0.000308975 0.999999 
-0.00176142 0.000301449 0.999998 
-0.00221478 0.000257174 0.999998 
-0.00274427 0.000163825 0.999996 
-0.00269375 7.66969e-06 0.999996 
-0.00244646 -0.000130122 0.999997 
-0.00227433 -0.000250722 0.999997 
-0.00207393 -0.000346076 0.999998 
-0.00116326 -0.00023585 0.999999 
-0.00138579 -0.000357749 0.999999 
-0.000423504 -0.000117676 1 
-0.000513368 -0.000182644 1 
0.00039704 0.000195606 1 
0.00107712 0.000561196 0.999999 
0.00111573 0.000652685 0.999999 
0.0027325 0.00167129 0.999995 
0.00328917 0.00225581 0.999992 