# vtk DataFile Version 3.0 
Exported using Morpho https://github.com/Morpho-lang/morpho 
ASCII 
DATASET UNSTRUCTURED_GRID 

POINTS 3402 float 
-1.58244 -6.89173 -5.81471e-11 
-1.37896 -6.93531 4.23768e-11 
-1.17602 -6.97259 -2.42061e-11 
-0.97133 -7.00404 -2.76942e-11 
-0.732757 -7.033 6.82603e-11 
-0.525978 -7.05148 -7.84403e-11 
-0.301534 -7.06464 5.50181e-11 
-0.0954494 -7.07042 -5.3939e-11 
0.109206 -7.07022 1.84955e-11 
0.329646 -7.06338 2.93285e-11 
0.5316 -7.05106 -4.43359e-11 
0.740598 -7.03218 7.04985e-11 
0.945651 -7.00755 -5.37363e-11 
1.17498 -6.97276 2.63372e-11 
1.38128 -6.93485 -3.86104e-11 
1.61073 -6.88517 2.16499e-11 
-2.42543 -6.64208 4.85945e-11 
-2.2182 -6.71413 -2.76515e-11 
-2.01089 -6.77911 -2.09936e-11 
-1.80712 -6.83625 5.96436e-11 
-1.57873 -6.67565 -9.92054e-18 
-1.3491 -6.7041 -2.83928e-17 
-1.13607 -6.73481 1.54483e-17 
-0.908026 -6.8024 -3.09239e-17 
-0.685452 -6.80001 -7.64201e-17 
-0.465015 -6.83094 -1.29485e-17 
-0.254809 -6.81988 -8.27708e-17 
-0.0471601 -6.82269 -2.52654e-17 
0.169393 -6.83838 -7.8656e-19 
0.378806 -6.8113 -1.04753e-17 
0.585757 -6.80213 2.76545e-17 
0.791857 -6.78045 1.209e-16 
1.01433 -6.77771 -1.93115e-17 
1.22906 -6.72031 -6.71666e-17 
1.4496 -6.70396 4.31273e-17 
1.68823 -6.66337 -3.47038e-17 
1.85585 -6.82318 -9.87701e-12 
2.04433 -6.7691 3.1185e-11 
2.27916 -6.69369 -2.78457e-11 
-2.85358 -6.46971 4.39641e-11 
-2.65665 -6.55303 -4.56926e-11 
-2.44805 -6.42757 -2.42673e-18 
-2.21365 -6.48166 -9.67862e-18 
-2.00048 -6.54588 1.37274e-17 
-1.78768 -6.60085 7.69487e-17 
-1.54349 -6.4516 3.20614e-17 
-1.33041 -6.48891 3.91764e-17 
-1.10693 -6.50523 -6.52387e-18 
-0.901861 -6.58097 1.60601e-17 
-0.698993 -6.55581 4.00711e-18 
-0.490388 -6.59782 -2.52725e-18 
-0.276491 -6.57901 4.8526e-18 
-0.0665593 -6.57798 -1.4153e-17 
0.14417 -6.59959 2.36634e-18 
0.35571 -6.57453 -8.63917e-18 
0.56737 -6.55686 -9.05592e-17 
0.788486 -6.55298 -1.57469e-16 
1.00913 -6.54683 1.75232e-16 
1.22884 -6.49212 7.14064e-17 
1.46293 -6.49225 -4.69713e-18 
1.67497 -6.42851 4.78815e-17 
1.88893 -6.55425 3.03636e-17 
2.11078 -6.53975 6.62587e-17 
2.33382 -6.45719 -3.83635e-17 
2.50222 -6.61354 1.46035e-11 
2.678 -6.54434 4.0443e-11 
2.91078 -6.44417 -4.89823e-11 
-3.2823 -6.26311 1.12653e-11 
-3.09662 -6.35696 -2.37416e-11 
-2.8888 -6.25287 -2.96687e-17 
-2.65054 -6.30881 -9.53775e-18 
-2.40049 -6.21447 -2.8798e-17 
-2.18942 -6.27451 -8.37598e-18 
-1.96263 -6.32385 -1.65922e-17 
-1.75087 -6.37577 -2.44146e-17 
-1.55635 -6.214 -1.20539e-17 
-1.34665 -6.25757 6.59844e-18 
-1.13359 -6.28139 8.56486e-18 
-0.909008 -6.33686 -1.55759e-18 
-0.69099 -6.32496 -1.13057e-17 
-0.479438 -6.36097 -7.46972e-18 
-0.27404 -6.33519 -2.40358e-17 
-0.0686395 -6.33716 3.06388e-18 
0.140009 -6.35987 -4.56632e-18 
0.348525 -6.3361 -3.13789e-18 
0.557729 -6.31886 3.53231e-17 
0.770245 -6.3244 2.09995e-17 
0.986727 -6.32267 -2.23392e-17 
1.19858 -6.2651 1.61142e-17 
1.41787 -6.27624 -1.74949e-17 
1.63553 -6.21315 -3.79675e-17 
1.88312 -6.31854 -5.5274e-17 
2.09244 -6.32295 -2.27707e-17 
2.28667 -6.22797 4.32835e-17 
2.51723 -6.33278 -3.83209e-20 
2.73424 -6.31278 1.62539e-16 
2.98053 -6.2209 7.54088e-18 
3.16341 -6.32399 -2.73024e-11 
3.37689 -6.21262 6.07821e-11 
-3.71349 -6.01748 7.19196e-12 
-3.5264 -6.12899 7.6879e-12 
-3.31164 -6.04728 -4.61476e-17 
-3.07493 -6.10409 -2.77951e-18 
-2.83178 -6.03312 3.42932e-17 
-2.62865 -6.10483 -1.59971e-18 
-2.43285 -5.98983 -3.56269e-18 
-2.21184 -6.03708 2.13546e-18 
-2.00043 -6.09963 4.90487e-18 
-1.77478 -6.13969 -2.71347e-18 
-1.55033 -5.99548 -4.00078e-19 
-1.32881 -6.02986 1.43684e-17 
-1.11864 -6.0522 -4.47737e-18 
-0.911319 -6.11426 -1.78681e-19 
-0.703445 -6.08984 1.54491e-17 
-0.492926 -6.12256 -1.87545e-17 
-0.284166 -6.09974 -6.78269e-18 
-0.074194 -6.09641 3.86049e-17 
0.13423 -6.11978 2.00049e-17 
0.343131 -6.09914 -1.66361e-17 
0.558283 -6.08792 -8.38118e-17 
0.771207 -6.09368 7.62006e-17 
0.986211 -6.09216 -4.30903e-17 
1.19906 -6.03447 -1.66332e-17 
1.41093 -6.05217 2.68355e-17 
1.62303 -5.98579 -1.12236e-17 
1.84198 -6.10062 -5.15733e-17 
2.06292 -6.08738 -3.45987e-17 
2.27874 -6.00744 8.18096e-17 
2.49999 -6.11169 3.61543e-17 
2.74015 -6.11184 -1.17694e-16 
2.96395 -6.01294 4.48943e-17 
3.20249 -6.07815 -5.81448e-17 
3.40992 -5.95741 1.15426e-16 
3.58029 -6.09766 -2.69721e-11 
-3.9445 -5.86864 1.30152e-11 
-3.72545 -5.79958 -5.46171e-17 
-3.49786 -5.88389 -6.79591e-18 
-3.26529 -5.82715 1.31374e-17 
-3.05721 -5.89728 2.23572e-17 
-2.86045 -5.80093 1.61396e-17 
-2.64265 -5.85946 -1.36028e-17 
-2.41475 -5.77306 5.95657e-18 
-2.19928 -5.81754 8.75313e-18 
-1.9849 -5.87259 -6.98355e-18 
-1.77504 -5.92265 9.54232e-18 
-1.56125 -5.77967 -1.25595e-17 
-1.33673 -5.8136 -1.38337e-17 
-1.11454 -5.82237 9.63427e-18 
-0.906177 -5.88013 8.31673e-18 
-0.703639 -5.84932 -8.44594e-18 
-0.502042 -5.88811 -8.98385e-18 
-0.293636 -5.86643 9.769e-18 
-0.0840672 -5.86272 4.03695e-18 
0.126715 -5.8831 3.5447e-17 
0.341681 -5.87197 2.03964e-15 
0.553812 -5.85881 3.01105e-17 
0.766481 -5.86313 -1.82277e-16 
0.97534 -5.86653 9.17322e-17 
1.1946 -5.81637 2.16461e-17 
1.41698 -5.82325 1.23317e-17 
1.63662 -5.76384 -2.62208e-17 
1.84577 -5.88014 1.37831e-17 
2.06039 -5.86403 5.67434e-17 
2.26708 -5.78428 -4.17582e-17 
2.48893 -5.88844 2.98881e-17 
2.7084 -5.90919 4.83429e-17 
2.92374 -5.80649 4.32644e-18 
3.16679 -5.86487 4.81951e-19 
3.39863 -5.75357 -3.98084e-17 
3.64282 -5.86218 -1.06022e-17 
3.82281 -5.94863 -1.36685e-11 
3.99822 -5.83217 -3.24649e-11 
-4.38589 -5.54653 -2.92164e-13 
-4.13866 -5.73337 -3.05262e-13 
-3.92002 -5.63827 -7.9135e-17 
-3.6927 -5.57797 1.63821e-17 
-3.48829 -5.67029 1.51044e-17 
-3.29263 -5.59124 -4.71903e-17 
-3.07952 -5.65616 -8.14702e-16 
-2.84952 -5.58809 1.18769e-15 
-2.62536 -5.63942 2.80936e-19 
-2.40818 -5.55316 1.31886e-18 
-2.19562 -5.59426 -5.96755e-18 
-1.98326 -5.6464 -7.76829e-18 
-1.77194 -5.69352 -7.7249e-18 
-1.57405 -5.55043 2.09639e-16 
-1.36367 -5.5984 5.48337e-20 
-1.14351 -5.60643 5.11189e-18 
-0.917914 -5.64478 -1.40926e-18 
-0.69474 -5.63281 2.09884e-15 
-0.474675 -5.65267 5.13375e-18 
-0.2631 -5.63492 8.64357e-20 
-0.0497625 -5.63562 1.25093e-17 
0.160476 -5.65577 -1.58098e-17 
0.372381 -5.64327 -5.51725e-18 
0.589242 -5.63431 4.39555e-17 
0.795781 -5.63238 -2.19169e-17 
1.00505 -5.64122 -3.6996e-17 
1.23797 -5.60472 -3.95552e-18 
1.44761 -5.59757 4.33272e-17 
1.65832 -5.5341 -1.53382e-17 
1.85332 -5.65532 5.05147e-17 
2.05365 -5.63179 -4.46939e-17 
2.2644 -5.56322 1.41395e-17 
2.4801 -5.66833 -7.34536e-17 
2.69977 -5.68851 5.06627e-17 
2.93095 -5.59734 1.37348e-17 
3.15861 -5.66234 -2.17924e-17 
3.35744 -5.53456 1.4237e-17 
3.59599 -5.64269 -3.8483e-18 
3.82085 -5.67397 3.4372e-17 
4.03635 -5.59395 1.26258e-16 
4.22818 -5.66767 2.13586e-11 
-4.5733 -5.39304 5.77384e-12 
-4.33901 -5.32339 1.44262e-17 
-4.16131 -5.51936 -2.89383e-17 
-3.93668 -5.42991 1.11381e-16 
-3.72949 -5.35737 3.27412e-18 
-3.50252 -5.42508 -4.30686e-17 
-3.27102 -5.38097 8.68102e-19 
-3.04789 -5.43695 -1.19255e-18 
-2.84062 -5.35441 -2.2669e-17 
-2.63996 -5.42256 3.95727e-18 
-2.42804 -5.34096 -1.40952e-17 
-2.20644 -5.36701 -3.68549e-18 
-1.9977 -5.41722 1.41047e-18 
-1.78752 -5.46301 -1.59115e-17 
-1.54932 -5.34249 -1.49734e-17 
-1.32665 -5.385 1.74119e-17 
-1.12059 -5.37559 -2.54515e-17 
-0.924072 -5.43228 1.34058e-17 
-0.730667 -5.39412 -4.66902e-16 
-0.527538 -5.4291 -1.33985e-17 
-0.318443 -5.41323 -1.26922e-17 
-0.103346 -5.41066 1.13587e-18 
0.112656 -5.42345 -4.17894e-19 
0.317879 -5.42081 -4.52848e-18 
0.530833 -5.41949 -2.18174e-17 
0.748267 -5.40181 5.02989e-17 
0.954893 -5.41241 -4.40426e-18 
1.1614 -5.41743 -8.73791e-18 
1.39576 -5.37584 -2.76217e-17 
1.59677 -5.33115 1.97104e-17 
1.85326 -5.41555 -3.93471e-17 
2.06072 -5.40573 3.47179e-17 
2.28348 -5.35063 -4.36525e-18 
2.49238 -5.45666 1.88225e-18 
2.71606 -5.47432 -1.48911e-17 
2.91488 -5.36903 6.12525e-18 
3.12692 -5.44263 1.13241e-18 
3.33312 -5.31868 -1.64798e-15 
3.57021 -5.42967 4.13378e-17 
3.79937 -5.45514 -8.18906e-17 
4.02758 -5.38298 -5.53206e-17 
4.25784 -5.42331 2.27521e-17 
4.44919 -5.49588 -2.3876e-12 
-4.79357 -5.19824 8.9801e-12 
-4.5635 -5.18325 -7.71272e-17 
-4.34946 -5.10044 4.46506e-17 
-4.12275 -5.28735 -4.6601e-17 
-3.91174 -5.1905 -3.61281e-17 
-3.6853 -5.13487 5.03292e-18 
-3.4889 -5.21531 2.57437e-17 
-3.28431 -5.1519 3.4678e-18 
-3.07625 -5.2168 4.44214e-17 
-2.8555 -5.14852 -2.32965e-17 
-2.62246 -5.19171 -1.98781e-17 
-2.39365 -5.13306 -4.58587e-18 
-2.17501 -5.15456 -2.77204e-17 
-1.96256 -5.19928 -9.6408e-18 
-1.75449 -5.24621 -1.49892e-17 
-1.55831 -5.11304 1.08209e-15 
-1.352 -5.17204 -3.57832e-18 
-1.13592 -5.15089 5.30952e-18 
-0.925379 -5.19046 -5.53826e-18 
-0.710718 -5.17267 -2.20248e-19 
-0.502044 -5.20016 1.18601e-17 
-0.286388 -5.19297 2.23768e-18 
-0.0675293 -5.19381 -6.34876e-18 
0.138389 -5.19307 8.38314e-18 
0.350121 -5.19905 -1.18336e-17 
0.566056 -5.2021 -2.20922e-17 
0.777825 -5.17562 8.26921e-18 
0.984455 -5.18759 1.22991e-17 
1.20504 -5.21278 6.4024e-18 
1.40838 -5.14241 -7.93762e-16 
1.69032 -5.17982 3.24419e-17 
1.89534 -5.18886 -5.44354e-18 
2.10671 -5.18572 2.7846e-17 
2.29273 -5.09846 1.71765e-17 
2.4681 -5.22017 -5.29258e-18 
2.66848 -5.26242 -1.36296e-17 
2.87363 -5.16573 -1.19046e-17 
3.11662 -5.21761 4.49098e-18 
3.34623 -5.10622 9.86795e-18 
3.5641 -5.22625 -6.9852e-19 
3.80158 -5.24241 2.20236e-17 
4.01443 -5.16135 -2.49769e-18 
4.23554 -5.20631 1.417e-16 
4.46447 -5.24641 -1.39513e-16 
4.65664 -5.32125 9.9578e-12 
4.79541 -5.19654 6.17403e-12 
-4.99423 -5.00577 -9.87335e-12 
-4.76374 -4.98786 -4.25534e-17 
-4.54889 -4.9555 3.43993e-17 
-4.32876 -4.87195 -3.08907e-17 
-4.13685 -5.06394 2.82619e-18 
-3.91279 -4.98025 5.58714e-18 
-3.69204 -4.92339 -1.83217e-18 
-3.46956 -4.9783 -4.5557e-18 
-3.25389 -4.92937 6.19332e-17 
-3.05212 -4.99712 3.17902e-17 
-2.84941 -4.91786 -3.37371e-17 
-2.64933 -4.99021 1.50565e-19 
-2.43583 -4.93076 3.447e-19 
-2.20441 -4.94099 -1.29059e-17 
-1.9815 -4.9746 2.09067e-17 
[...]
POINT_DATA 3402 
VECTORS vectors float
8.3917e-05 -6.06078e-05 1 
0.000234871 -7.95961e-05 1 
0.000270103 -9.17962e-05 1 
2.5425e-05 -4.1731e-05 1 
-4.33725e-06 1.29803e-06 1 
0.000235515 -5.10702e-05 1 
-6.51396e-06 9.90945e-07 1 
0.000356952 -1.82609e-06 1 
8.77134e-05 -1.34212e-05 1 
0.000124184 2.99468e-05 1 
0.000256677 3.67398e-05 1 
0.000216567 4.19087e-05 1 
6.30777e-05 2.42919e-05 1 
4.31116e-05 6.35163e-05 1 
0.000268163 7.76589e-05 1 
-0.000275783 -4.22036e-05 1 
-6.66398e-05 -4.2296e-05 1 
0.000144585 -9.73154e-05 1 
0.000207163 -0.000131126 1 
-6.66429e-07 -5.4979e-05 1 
0.0540049 -0.0127124 0.99846 
0.0571276 -0.0113957 0.998302 
0.0574139 -0.00969846 0.998303 
0.0542047 -0.00725617 0.998503 
0.0580099 -0.00592095 0.998298 
0.0559467 -0.00389804 0.998426 
0.0582899 -0.00218754 0.998297 
0.0585341 -0.000436518 0.998285 
0.0564991 0.00134537 0.998402 
0.0584927 0.00322821 0.998283 
0.0574577 0.00491805 0.998336 
0.0575236 0.00670822 0.998322 
0.0549331 0.00824501 0.998456 
0.0570317 0.0104907 0.998317 
0.0538783 0.0116552 0.998479 
0.0516345 0.0131417 0.99858 
0.000181585 0.00013925 1 
0.000277162 0.000105154 1 
-0.000345264 -6.36507e-05 1 
-5.31215e-05 -2.98031e-05 1 
9.62392e-05 -0.000112966 1 
0.0500812 -0.0189932 0.998565 
0.053599 -0.0182103 0.998396 
0.0546972 -0.0166357 0.998364 
0.0559831 -0.0151183 0.998317 
0.0683459 -0.0164069 0.997527 
0.0691896 -0.0143067 0.997501 
0.0700854 -0.0120606 0.997468 
0.0690845 -0.00961972 0.997564 
0.0705535 -0.00763847 0.997479 
0.0698451 -0.00524027 0.997544 
0.0703048 -0.00296213 0.997521 
0.0705628 -0.000698059 0.997507 
0.0699267 0.00154625 0.997551 
0.0702675 0.00378399 0.997521 
0.069704 0.00604722 0.997549 
0.0697421 0.00837803 0.99753 
0.0687813 0.0105905 0.997576 
0.0690711 0.0131032 0.997526 
0.0678684 0.0153482 0.997576 
0.0676894 0.0176391 0.997551 
0.0577118 0.0166551 0.998194 
0.0513592 0.0165172 0.998544 
0.0516112 0.0186147 0.998494 
0.000369438 0.00025347 1 
0.000264937 0.000148573 1 
-0.000280977 -7.29192e-05 1 
2.42812e-05 -7.0349e-05 1 
1.20218e-05 -9.90241e-05 1 
0.0467637 -0.0215541 0.998673 
0.0526938 -0.0220436 0.998367 
0.065001 -0.0249797 0.997572 
0.0662534 -0.0230253 0.997537 
0.0674996 -0.0208877 0.997501 
0.0685371 -0.0187858 0.997472 
0.0731609 -0.0182094 0.997154 
0.0737818 -0.0158397 0.997149 
0.0740554 -0.0133915 0.997164 
0.0741788 -0.010707 0.997187 
0.0744833 -0.00825649 0.997188 
0.0745438 -0.00574829 0.997201 
0.0746338 -0.00334805 0.997205 
0.0745554 -0.000891812 0.997216 
0.0744611 0.00159197 0.997223 
0.0745281 0.00410305 0.99721 
0.0742594 0.00657955 0.997217 
0.073812 0.00898165 0.997232 
0.0734568 0.0113527 0.997234 
0.0732002 0.0139297 0.99722 
0.072488 0.0163689 0.997235 
0.0719764 0.0189533 0.997226 
0.0684262 0.020433 0.997447 
0.0659075 0.0217597 0.997588 
0.0660879 0.0240758 0.997523 
0.0565462 0.0223943 0.998149 
0.0484376 0.0208517 0.998609 
0.0448827 0.0214596 0.998762 
-8.62229e-05 3.43911e-05 1 
0.000210554 0.000187569 1 
4.67304e-05 -0.000107199 1 
-9.84326e-05 -3.35261e-05 1 
0.0443456 -0.0242576 0.998722 
0.05178 -0.0260585 0.998318 
0.0627989 -0.0293908 0.997593 
0.0644554 -0.0276308 0.997538 
0.0687834 -0.0277282 0.997246 
0.0702706 -0.0255052 0.997202 
0.0712966 -0.023167 0.997186 
0.0723956 -0.0207682 0.99716 
0.0718901 -0.0185445 0.99724 
0.0719234 -0.0158883 0.997284 
0.0717397 -0.0133266 0.997334 
0.072658 -0.010935 0.997297 
0.0712704 -0.00835227 0.997422 
0.0716928 -0.00586383 0.99741 
0.0706034 -0.00339537 0.997499 
0.0702515 -0.000971466 0.997529 
0.0708636 0.00152871 0.997485 
0.0703536 0.00399902 0.997514 
0.0704661 0.00651919 0.997493 
0.0711395 0.0091059 0.997425 
0.0717355 0.0116833 0.997355 
0.0711246 0.0141894 0.997367 
0.0721209 0.0168341 0.997254 
0.0714035 0.0193607 0.99726 
0.0720212 0.0217299 0.997166 
0.0707311 0.0238851 0.997209 
0.0697803 0.0263061 0.997215 
0.0660691 0.0269268 0.997452 
0.0627443 0.0281696 0.997632 
0.0619062 0.0304244 0.997618 
0.0478189 0.0252299 0.998537 
0.0474185 0.027088 0.998508 
-0.000240407 -9.32291e-05 1 
-6.42654e-05 -3.97745e-05 1 
0.0427659 -0.0274403 0.998708 
0.0486862 -0.0289454 0.998395 
0.0600988 -0.0336555 0.997625 
0.0622612 -0.032213 0.99754 
0.0661482 -0.0324568 0.997282 
0.0678573 -0.0304291 0.997231 
0.0692273 -0.0288672 0.997183 
0.0699446 -0.0263097 0.997204 
0.070405 -0.0236616 0.997238 
0.0707643 -0.0211094 0.99727 
0.0640273 -0.0172036 0.9978 
0.0633864 -0.0145727 0.997883 
0.0620393 -0.0119111 0.998003 
0.0631554 -0.00978105 0.997956 
0.0602227 -0.00731739 0.998158 
0.0614942 -0.00535739 0.998093 
0.0597164 -0.00311997 0.998211 
0.0591738 -0.000961425 0.998247 
0.0601869 0.00121799 0.998186 
0.0597824 0.00349219 0.998205 
0.0601883 0.00577517 0.99817 
0.0611943 0.00810636 0.998093 
0.0625379 0.0105441 0.997987 
0.0620832 0.0128325 0.997988 
0.0641677 0.0156098 0.997817 
0.0639107 0.0181566 0.99779 
0.0697946 0.0219495 0.99732 
0.0701876 0.0246463 0.997229 
0.0693427 0.0272122 0.997222 
0.0688663 0.0290461 0.997203 
0.0671051 0.0307142 0.997273 
0.0658487 0.0330882 0.997281 
0.0615314 0.0331747 0.997554 
0.0596307 0.0351964 0.9976 
0.0420853 0.026181 0.998771 
6.42487e-05 0.000155439 1 
5.60844e-05 0.000108452 1 
-0.000113734 1.16891e-05 1 
-5.57567e-05 -1.20267e-05 1 
0.0444187 -0.0308644 0.998536 
0.0574095 -0.0380328 0.997626 
0.0593712 -0.0365295 0.997567 
0.0631115 -0.0371561 0.997315 
0.0649315 -0.0353132 0.997265 
0.0666069 -0.0339366 0.997202 
0.0674249 -0.0312912 0.997234 
0.0632552 -0.0272833 0.997624 
0.0628582 -0.0244891 0.997722 
0.0624164 -0.0217662 0.997813 
0.0620456 -0.0192031 0.997889 
0.0528937 -0.0149242 0.998489 
0.0529029 -0.0128857 0.998517 
0.051447 -0.0105534 0.99862 
0.0515606 -0.00847406 0.998634 
0.0494913 -0.00619347 0.998755 
0.0493418 -0.00420136 0.998773 
0.047974 -0.00228685 0.998846 
0.0479227 -0.000429479 0.998851 
0.0489737 0.00141816 0.998799 
0.0487115 0.00332798 0.998807 
0.0488535 0.00520388 0.998792 
0.0501396 0.0072354 0.998716 
0.051523 0.00931097 0.998628 
0.0514792 0.0114162 0.998609 
0.0537676 0.0139228 0.998456 
0.0528595 0.0158105 0.998477 
0.0610052 0.0199694 0.997938 
0.0629402 0.0229955 0.997752 
0.062275 0.0253393 0.997737 
0.067498 0.0295343 0.997282 
0.068039 0.032174 0.997164 
0.0666207 0.0347963 0.997171 
0.0644217 0.0359035 0.997277 
0.0631456 0.0382535 0.997271 
0.0580812 0.0370027 0.997626 
0.0475512 0.0320936 0.998353 
0.0402499 0.0289942 0.998769 
-0.000112824 -2.04684e-05 1 
4.4424e-05 -0.000101177 1 
0.0412696 -0.0336688 0.998581 
0.0376284 -0.0283497 0.99889 
0.0554425 -0.0402885 0.997649 
0.0598918 -0.0416991 0.997334 
0.0622553 -0.0401757 0.997251 
0.0639129 -0.0389006 0.997197 
0.0648454 -0.0364373 0.99723 
0.0616423 -0.0326691 0.997564 
0.0614549 -0.0298204 0.997664 
0.0543442 -0.0245883 0.998219 
0.0521708 -0.0212573 0.998412 
0.0516371 -0.0188908 0.998487 
0.0508296 -0.0165086 0.998571 
0.0432216 -0.0124765 0.998988 
0.0428742 -0.0105569 0.999025 
0.0413699 -0.00864234 0.999107 
0.0424159 -0.00727374 0.999074 
0.0397362 -0.00543527 0.999195 
0.0403163 -0.00397001 0.999179 
0.0389356 -0.00231181 0.999239 
0.0387313 -0.000734553 0.999249 
0.0391442 0.000837523 0.999233 
0.0395332 0.00234733 0.999216 
0.0394168 0.00390613 0.999215 
0.0403317 0.0055995 0.999171 
0.0411975 0.00728686 0.999124 
0.0425459 0.00911091 0.999053 
0.0431012 0.011159 0.999008 
0.0429989 0.01281 0.998993 
0.0493132 0.0167909 0.998642 
0.0520483 0.0196162 0.998452 
0.052551 0.0222236 0.998371 
0.0603476 0.0275402 0.997797 
0.0638137 0.0316037 0.997461 
0.0626389 0.0339438 0.997459 
0.0650622 0.0373129 0.997183 
0.0635814 0.039801 0.997183 
0.0612823 0.0402488 0.997309 
0.0574561 0.040109 0.997542 
0.0541492 0.0405494 0.997709 
0.0385954 0.030261 0.998797 
-0.000235331 -0.000133671 1 
-0.000113848 4.68605e-05 1 
0.0362782 -0.0318964 0.998833 
0.0521044 -0.044414 0.997654 
0.0539237 -0.0420381 0.99766 
0.0587944 -0.0443424 0.997285 
0.0610237 -0.0439229 0.997169 
0.0622392 -0.0417865 0.997186 
0.0602064 -0.0383651 0.997448 
0.0592451 -0.0348424 0.997635 
0.0529158 -0.0292106 0.998172 
0.0510965 -0.0257248 0.998362 
0.0445481 -0.0205999 0.998795 
0.0423871 -0.0177425 0.998944 
0.0416001 -0.015597 0.999013 
0.0411488 -0.0137023 0.999059 
0.034771 -0.0106017 0.999339 
0.0351627 -0.00921484 0.999339 
0.0331491 -0.0073172 0.999424 
0.0333832 -0.00596114 0.999425 
0.0315497 -0.00433085 0.999493 
0.0317922 -0.00306192 0.99949 
0.0308672 -0.00166642 0.999522 
0.030808 -0.000343977 0.999525 
0.0307267 0.000889461 0.999527 
0.0313968 0.00216314 0.999505 
0.0317479 0.00354011 0.99949 
0.0321891 0.00484803 0.99947 
0.0331128 0.00630153 0.999432 
0.0354579 0.00821875 0.999337 
0.034248 0.00937583 0.999369 
0.0381509 0.0124169 0.999195 
0.0401348 0.0146382 0.999087 
0.0431882 0.017421 0.998915 
0.0417777 0.0187135 0.998952 
0.0494134 0.0232073 0.998509 
0.0544927 0.0276165 0.998132 
0.0540696 0.0300752 0.998084 
0.0601939 0.035925 0.99754 
0.0597277 0.0390943 0.997449 
0.0619553 0.0422109 0.997186 
0.0596134 0.0432069 0.997286 
0.0573557 0.0445798 0.997358 
0.0527632 0.0426768 0.997695 
0.0386752 0.0331058 0.998703 
0.000263441 0.000371622 1 
0.000136486 0.000199792 1 
-1.12011e-06 -4.75503e-05 1 
0.0355374 -0.0339525 0.998791 
0.0499009 -0.0458575 0.997701 
0.0549869 -0.0487928 0.997294 
0.0565273 -0.0460839 0.997337 
0.0589838 -0.0463853 0.997181 
0.0582174 -0.0436233 0.99735 
0.0569581 -0.0396562 0.997589 
0.0511809 -0.0337871 0.998118 
0.0502649 -0.0307277 0.998263 
0.0432163 -0.0251228 0.99875 
0.0424452 -0.0226238 0.998843 
0.038418 -0.0189415 0.999082 
0.0348625 -0.0155218 0.999272 
0.0334893 -0.0133344 0.99935 
0.0329552 -0.0116541 0.999389 
0.0273564 -0.00866446 0.999588 
0.0272472 -0.00731354 0.999602 
0.0250867 -0.00567347 0.999669 
0.0253407 -0.00461771 0.999668 
0.0229404 -0.00327023 0.999731 
0.0233062 -0.00236734 0.999726 
0.0229373 -0.00138718 0.999736 
0.0227589 -0.000380057 0.999741 
0.0222505 0.000603905 0.999752 
0.0229055 0.00156668 0.999736 
0.0240124 0.00260681 0.999708 
0.0237394 0.0036421 0.999712 
0.0249344 0.00481789 0.999677 
0.0275227 0.00644497 0.9996 
0.0266707 0.00750405 0.999616 
0.0311986 0.0100203 0.999463 
0.0318799 0.0118444 0.999422 
0.0344237 0.0141971 0.999306 
0.0339611 0.0156334 0.999301 
0.0392438 0.0195983 0.999037 
0.044661 0.0235024 0.998726 
0.0450464 0.0261129 0.998644 
0.0521778 0.0321232 0.998121 
0.0508179 0.0339763 0.99813 
0.0588086 0.0416296 0.997401 
0.0601178 0.0447891 0.997186 
0.0586192 0.0465927 0.997193 
0.0565164 0.0471468 0.997288 
0.0527877 0.0459079 0.99755 
0.0446791 0.0407778 0.998169 
0.034046 0.0326845 0.998886 
-0.000226406 -0.000199438 1 
-9.17269e-05 7.27842e-05 1 
0.0323235 -0.0335983 0.998913 
0.0474187 -0.0474765 0.997746 
0.0527258 -0.0505235 0.99733 
0.0552329 -0.0511252 0.997164 
0.0570914 -0.0484186 0.997194 
0.0561198 -0.0457317 0.997376 
0.050685 -0.0398261 0.99792 
0.0494739 -0.0362696 0.998117 
0.0432259 -0.030065 0.998613 
0.0406146 -0.0260697 0.998835 
0.0351186 -0.0212493 0.999157 
0.0341469 -0.0189114 0.999238 
0.0313615 -0.0158293 0.999383 
0.0279076 -0.0128192 0.999528 
0.0260044 -0.0107969 0.999604 
0.0253574 -0.00933307 0.999635 
0.0194656 -0.00649506 0.999789 
0.0197015 -0.00563195 0.99979 
0.01736 -0.0041799 0.999841 
0.0168381 -0.00325719 0.999853 
0.015004 -0.0022159 0.999885 
0.0146331 -0.00147972 0.999892 
0.014879 -0.000835673 0.999889 
0.0146925 -0.000168352 0.999892 
0.014082 0.000457469 0.999901 
0.0146743 0.00110884 0.999892 
0.0161315 0.00191438 0.999868 
0.0153885 0.00248855 0.999878 
0.0171764 0.00353491 0.999846 
0.0197271 0.00488567 0.999793 
0.0199544 0.00603841 0.999783 
0.0246068 0.00843835 0.999662 
0.0250746 0.00988401 0.999637 
0.0268782 0.0117312 0.99957 
0.0297698 0.0147888 0.999447 
0.0323503 0.0173623 0.999326 
0.0369495 0.020937 0.999098 
0.0353527 0.0218788 0.999135 
0.0420836 0.0267645 0.998756 
0.0408123 0.0282782 0.998767 
0.0499155 0.036066 0.998102 
0.054441 0.0418169 0.997641 
0.055131 0.0454696 0.997443 
0.0564002 0.0489528 0.997207 
0.0543468 0.0493017 0.997304 
0.0510472 0.0486672 0.99751 
0.0464617 0.046916 0.997818 
0.0308404 0.0325351 0.998995 
-5.13508e-05 -1.80237e-06 1 
-4.09839e-05 -2.60896e-05 1 
0.031344 -0.0356603 0.998872 
0.0452019 -0.0490772 0.997772 
0.0505238 -0.052781 0.997327 
0.0528658 -0.0528423 0.997203 
0.0531317 -0.0513423 0.997267 
0.055023 -0.0485264 0.997305 
0.0493265 -0.0423251 0.997886 
0.0424754 -0.0347911 0.998492 
0.0400024 -0.0304688 0.998735 
0.035305 -0.0250427 0.999063 
0.0324513 -0.0215587 0.999241 
0.0281686 -0.017486 0.99945 
0.0273497 -0.0155469 0.999505 
0.0245748 -0.0127852 0.999616 
0.0206179 -0.00991808 0.999738 
0.0182738 -0.00799067 0.999801 
0.0177354 -0.00690067 0.999819 
0.0123819 -0.00435133 0.999914 
0.0121844 -0.00362671 0.999919 
0.0103589 -0.0025601 0.999943 
0.009714 -0.00191082 0.999951 
0.00832432 -0.00123492 0.999965 
0.00792204 -0.000790343 0.999968 
0.00817952 -0.000421352 0.999966 
0.00794016 -4.47064e-05 0.999968 
0.00753818 0.000303866 0.999972 
0.00820159 0.000712538 0.999966 
0.00892281 0.00116826 0.99996 
0.00903545 0.00162362 0.999958 
0.0105162 0.00237669 0.999942 
0.0133065 0.00360728 0.999905 
0.0115534 0.00368139 0.999926 
0.016448 0.00580243 0.999848 
0.018036 0.00718111 0.999812 
0.0190406 0.00865089 0.999781 
0.0236739 0.0116905 0.999651 
0.0246275 0.0136649 0.999603 
0.0288346 0.0171436 0.999437 
0.0283371 0.0184805 0.999428 
0.0333863 0.0228013 0.999182 
0.040577 0.030573 0.998709 
0.0457872 0.0363445 0.99829 
0.0470597 0.0400942 0.998087 
0.0523137 0.0467836 0.997534 
0.0543829 0.0510176 0.997216 
0.0526448 0.0516824 0.997275 
0.0506492 0.0522779 0.997347 
0.0459701 0.0496717 0.997707 
0.0347841 0.0397134 0.998605 
0.000155765 0.00031853 1 
2.46026e-05 -0.000136788 1 
0.0327662 -0.0402689 0.998651 
0.0442515 -0.0519648 0.997668 
0.0484829 -0.0546598 0.997327 
0.051053 -0.0551659 0.997171 
0.0517402 -0.053564 0.997223 
0.0460124 -0.0464711 0.997859 
0.0495541 -0.0461667 0.997704 
0.0421374 -0.0390332 0.998349 
0.0386277 -0.0339511 0.998677 
0.0337776 -0.0277374 0.999044 
0.0316829 -0.0242624 0.999203 
0.0274426 -0.0198314 0.999427 
0.0249323 -0.0168215 0.999548 
0.0212021 -0.0131293 0.999689 
0.0198145 -0.0112705 0.99974 
0.015814 -0.0083453 0.99984 
0.0122964 -0.00593174 0.999907 
0.0107005 -0.00459959 0.999932 
0.00843198 -0.00329079 0.999959 
0.00669932 -0.00219244 0.999975 
0.00571958 -0.0015832 0.999982 
0.00483463 -0.00107368 0.999988 
0.00414404 -0.000711682 0.999991 
0.00359397 -0.000428815 0.999993 
0.0036246 -0.00024503 0.999993 
0.00354421 -6.79876e-05 0.999994 
0.00340046 9.74019e-05 0.999994 
0.00362774 0.00028568 0.999993 
0.0038993 0.000496858 0.999992 
0.0044785 0.000776325 0.99999 
0.005119 0.00116574 0.999986 
0.00682548 0.00187662 0.999975 
0.00617929 0.00206624 0.999979 
0.00958493 0.00363434 0.999947 
0.0119737 0.0051359 0.999915 
0.0130137 0.00633759 0.999895 
0.0178099 0.0093721 0.999797 
0.0174529 0.010161 0.999796 
0.0221117 0.013675 0.999662 
0.0223747 0.0152215 0.999634 
0.0268691 0.0194402 0.99945 
0.032929 0.0246024 0.999155 
0.0351405 0.0286187 0.998973 
0.0379046 0.0326204 0.998749 
0.0428643 0.0393672 0.998305 
0.0494361 0.0474651 0.997649 
0.0517726 0.0523622 0.997285 
0.0511245 0.0543538 0.997212 
0.0491148 0.0546541 0.997297 
0.0451358 0.0528978 0.997579 
0.0351428 0.042894 0.998461 
-5.10049e-05 -2.18238e-05 1 
-2.83373e-05 -5.82243e-05 1 
0.0318218 -0.0420958 0.998607 
0.042793 -0.0544407 0.9976 
0.0466095 -0.0569564 0.997288 
0.0489401 -0.0570792 0.997169 
0.0490369 -0.0547075 0.997298 
0.0447278 -0.0482011 0.997836 
0.0383534 -0.0380444 0.99854 
0.0325507 -0.0308196 0.998995 
0.0306633 -0.0271138 0.999162 
0.0266651 -0.022066 0.999401 
0.0239851 -0.0187236 0.999537 
0.0200719 -0.0147012 0.99969 
0.0179669 -0.0121393 0.999765 
0.0137857 -0.00861611 0.999868 
0.0116914 -0.00677364 0.999909 
0.00842842 -0.00449077 0.999954 
0.00635074 -0.00304049 0.999975 
0.00420074 -0.00184545 0.999989 
0.00415011 -0.00157093 0.99999 
0.00268667 -0.000885768 0.999996 
0.0022709 -0.000620909 0.999997 
0.0016786 -0.000368839 0.999999 
0.00135627 -0.000223464 0.999999 
0.00113359 -0.000122129 0.999999 
0.00103591 -5.56042e-05 0.999999 
0.000982208 -1.61344e-06 1 
0.00108922 5.60085e-05 0.999999 
0.00114634 0.000119281 0.999999 
0.00128888 0.000198809 0.999999 
0.00196693 0.000399778 0.999998 
0.00182265 0.000460929 0.999998 
0.00310402 0.000909889 0.999995 
0.00269437 0.000956234 0.999996 
0.00491226 0.00196635 0.999986 
0.00676538 0.00306343 0.999972 
0.00695501 0.00355244 0.99997 
0.0108849 0.00599486 0.999923 
0.0114683 0.00703171 0.99991 
0.0158947 0.0104124 0.999819 
0.018539 0.0135176 0.999737 
0.0224947 0.0174456 0.999595 
0.0281928 0.0225123 0.999349 
0.0282021 0.0243708 0.999305 
0.0328816 0.0299247 0.999011 
0.0370776 0.0359039 0.998667 
0.0437019 0.0441904 0.998067 
0.0466915 0.0497808 0.997668 
0.0489422 0.0548396 0.997295 
0.0484068 0.0566909 0.997218 
0.0463068 0.0571567 0.997291 
0.042192 0.0541239 0.997642 
0.0282131 0.037317 0.998905 
-0.000176559 -0.000123812 1 
-9.5609e-05 4.90645e-05 1 
0.0291254 -0.0417432 0.998704 
0.0403514 -0.055815 0.997625 
0.0441287 -0.0587127 0.997299 
0.0463605 -0.0591423 0.997172 
0.0465952 -0.0566084 0.997309 
0.0429126 -0.0502273 0.997815 
0.0364969 -0.0415615 0.998469 
0.0358071 -0.0382132 0.998628 
0.0301374 -0.0307641 0.999072 
0.0259632 -0.0249751 0.999351 
0.0242199 -0.021719 0.999471 
0.0197209 -0.0168709 0.999663 
0.0171817 -0.0137394 0.999758 
0.0134118 -0.00996824 0.99986 
0.0110531 -0.00758413 0.99991 
0.00714305 -0.00459802 0.999964 
0.00577787 -0.0034084 0.999977 
0.00383318 -0.0020505 0.999991 
0.00222753 -0.00110772 0.999997 
0.0016637 -0.000721565 0.999998 
0.00117948 -0.000454811 0.999999 
0.00060567 -0.000207486 1 
0.000276916 -8.6138e-05 1 
-8.72426e-05 5.09451e-06 1 
-0.00027141 3.07004e-05 1 
-0.000547404 4.26488e-05 1 
-0.000672347 2.06802e-05 1 
-0.00053212 -9.92195e-06 1 
-0.000449716 -3.05585e-05 1 
-0.000386738 -4.38505e-05 1 
0.00017729 4.45084e-05 1 
0.000281197 8.47077e-05 1 
0.000920381 0.000304037 1 
0.00058275 0.000233317 1 
0.00184332 0.000777383 0.999998 
0.00295245 0.00139291 0.999995 
0.00340331 0.00183179 0.999993 
0.00609843 0.00356126 0.999975 
0.00617216 0.00399966 0.999973 
0.0098375 0.0067435 0.999929 
0.0131539 0.00964817 0.999867 
0.0163147 0.0132143 0.99978 
0.0220564 0.0186846 0.999582 
0.0244936 0.0225881 0.999445 
0.0287313 0.0278432 0.999199 
0.0297735 0.0307434 0.999084 
0.0357246 0.0374901 0.998658 
0.038964 0.0433223 0.998301 
0.0432805 0.0504417 0.997789 
0.0462016 0.0563989 0.997339 
0.045998 0.0590645 0.997194 
0.0440268 0.0585777 0.997312 
0.0401221 0.0552193 0.997668 
0.0305133 0.043806 0.998574 
0.000166646 0.000385346 1 
1.4099e-05 -0.000174102 1 
0.0278643 -0.0434447 0.998667 
0.0381989 -0.0571904 0.997632 
0.0417598 -0.0603348 0.997304 
0.0438923 -0.0609002 0.997178 
0.0434147 -0.0576728 0.997391 
0.0402863 -0.0513063 0.99787 
0.0346479 -0.0427147 0.998486 
0.029092 -0.034143 0.998993 
0.0279705 -0.0307711 0.999135 
0.0237554 -0.0246597 0.999414 
0.0198264 -0.0192529 0.999618 
0.0165826 -0.0153109 0.999745 
0.0125595 -0.0108533 0.999862 
0.0100788 -0.00809584 0.999916 
0.00704295 -0.00523044 0.999962 
0.00449575 -0.00313579 0.999985 
0.00273307 -0.0017512 0.999995 
0.00211775 -0.00123776 0.999997 
0.000778647 -0.000433973 1 
0.000534497 -0.000271763 1 
-8.56808e-05 1.49789e-05 1 
-0.000364549 0.000107954 1 
-0.000932643 0.000259412 1 
-0.00135256 0.000308975 0.999999 
-0.00176142 0.000301449 0.999998 
-0.00221478 0.000257174 0.999998 
-0.00274427 0.000163825 0.999996 
-0.00269375 7.66969e-06 0.999996 
-0.00244646 -0.000130122 0.999997 
-0.00227433 -0.000250722 0.999997 
-0.00207393 -0.000346076 0.999998 
-0.00116326 -0.00023585 0.999999 
-0.00138579 -0.000357749 0.999999 
-0.000423504 -0.000117676 1 
-0.000513368 -0.000182644 1 
0.00039704 0.000195606 1 
0.00107712 0.000561196 0.999999 
0.00111573 0.000652684 0.999999 
0.0027325 0.00167129 0.999995 
0.00328917 0.00225581 0.999992 