# vtk DataFile Version 3.0 
Exported using Morpho https://github.com/Morpho-lang/morpho 
ASCII 
DATASET UNSTRUCTURED_GRID 

POINTS 3402 float 
-1.58243 -6.89173 -4.50773e-06 
-1.37899 -6.9353 3.2905e-06 
-1.17602 -6.97259 -1.87605e-06 
-0.971316 -7.00404 -2.14666e-06 
-0.732727 -7.033 5.28743e-06 
-0.526015 -7.05148 -6.08133e-06 
-0.301528 -7.06464 4.27048e-06 
-0.095448 -7.07042 -4.18426e-06 
0.10921 -7.07022 1.43362e-06 
0.329657 -7.06338 2.27273e-06 
0.531575 -7.05106 -3.44526e-06 
0.740605 -7.03218 5.46516e-06 
0.945655 -7.00755 -4.16771e-06 
1.17497 -6.97276 2.04938e-06 
1.38128 -6.93484 -2.99124e-06 
1.61073 -6.88517 1.68067e-06 
-2.42544 -6.64208 3.76273e-06 
-2.21821 -6.71413 -2.14128e-06 
-2.01088 -6.77911 -1.62845e-06 
-1.80712 -6.83625 4.62357e-06 
-1.57521 -6.67656 5.62145e-09 
-1.34563 -6.70357 -9.5666e-09 
-1.13404 -6.73592 3.8568e-09 
-0.906543 -6.80246 -4.52718e-09 
-0.686485 -6.79626 -1.35692e-08 
-0.466342 -6.83004 1.629e-08 
-0.255987 -6.81874 -3.08121e-09 
-0.0479736 -6.82141 1.26442e-08 
0.169047 -6.83818 -8.42888e-09 
0.378901 -6.81033 -1.71383e-09 
0.587375 -6.80335 8.4024e-10 
0.794473 -6.77811 -1.0751e-08 
1.01464 -6.77665 4.32417e-09 
1.22924 -6.71987 -2.69157e-09 
1.44949 -6.70336 4.52057e-09 
1.6889 -6.66233 4.15044e-10 
1.85586 -6.82318 -7.72628e-07 
2.04434 -6.7691 2.4193e-06 
2.27913 -6.6937 -2.15735e-06 
-2.85357 -6.46971 3.40281e-06 
-2.65664 -6.55303 -3.54153e-06 
-2.44556 -6.42647 4.56792e-09 
-2.21091 -6.48345 5.48222e-09 
-1.99636 -6.54756 6.58528e-09 
-1.78301 -6.60134 -1.13832e-08 
-1.54517 -6.44984 3.68226e-10 
-1.33537 -6.4877 4.18187e-10 
-1.11314 -6.5047 -4.82743e-11 
-0.9073 -6.57891 2.16651e-10 
-0.70114 -6.55542 -3.34196e-12 
-0.489457 -6.59645 -1.0604e-10 
-0.2747 -6.57743 -1.58092e-10 
-0.0643624 -6.57695 -1.42919e-10 
0.147272 -6.59955 -1.35923e-10 
0.35841 -6.57218 3.0021e-10 
0.569849 -6.56006 -4.61099e-11 
0.787763 -6.54842 6.39085e-11 
1.00955 -6.54541 9.91171e-11 
1.22864 -6.49137 -5.43157e-12 
1.46338 -6.4926 -2.96361e-10 
1.67384 -6.42652 3.39984e-10 
1.88828 -6.55088 -1.0138e-09 
2.11015 -6.53891 -1.05854e-08 
2.33308 -6.4562 -7.52542e-09 
2.50221 -6.61354 1.12698e-06 
2.67802 -6.54433 3.13552e-06 
2.91076 -6.44418 -3.78424e-06 
-3.28229 -6.26311 8.69272e-07 
-3.09662 -6.35696 -1.83814e-06 
-2.8878 -6.25283 -1.0213e-09 
-2.64953 -6.30899 8.11096e-09 
-2.4011 -6.21185 -1.98982e-10 
-2.19053 -6.27557 1.50988e-10 
-1.96503 -6.3253 2.43774e-11 
-1.75274 -6.37481 -1.65587e-10 
-1.55184 -6.21563 -2.26881e-10 
-1.34083 -6.25483 2.09978e-12 
-1.13052 -6.28083 -5.98164e-12 
-0.908865 -6.33816 -1.04455e-10 
-0.693596 -6.32191 -8.98858e-11 
-0.483605 -6.36075 2.4415e-11 
-0.277669 -6.33433 5.19764e-11 
-0.0706153 -6.33548 4.46483e-13 
0.138718 -6.35971 1.06086e-10 
0.347423 -6.33332 -1.44894e-10 
0.556651 -6.32123 -2.24143e-10 
0.767544 -6.31754 4.88107e-11 
0.982678 -6.32199 6.08616e-10 
1.19395 -6.2644 3.23495e-10 
1.41322 -6.27706 -1.27202e-10 
1.63179 -6.21283 -1.41634e-10 
1.88174 -6.31445 -2.19248e-10 
2.09097 -6.32157 -1.74491e-10 
2.28375 -6.22677 6.71785e-10 
2.51267 -6.3269 -9.96679e-11 
2.73611 -6.31637 -9.28181e-09 
2.97942 -6.22064 1.2936e-08 
3.1634 -6.32399 -2.11334e-06 
3.37691 -6.21261 4.70854e-06 
-3.71348 -6.01748 5.5049e-07 
-3.52639 -6.12899 5.9544e-07 
-3.31135 -6.04611 -5.04597e-09 
-3.07521 -6.10316 2.7695e-09 
-2.83179 -6.03481 5.54465e-11 
-2.626 -6.10391 2.00302e-10 
-2.42683 -5.98589 -1.74305e-10 
-2.20641 -6.0401 -1.73899e-10 
-1.99473 -6.10135 -1.09838e-10 
-1.7709 -6.14133 -7.85733e-11 
-1.55137 -5.99675 -1.51895e-11 
-1.32952 -6.02751 1.14373e-10 
-1.11824 -6.04939 2.10052e-11 
-0.912353 -6.11286 7.61762e-11 
-0.704233 -6.08681 1.12228e-10 
-0.493773 -6.12127 -1.29524e-10 
-0.285177 -6.09782 -5.15263e-11 
-0.0751911 -6.09544 2.47546e-10 
0.134575 -6.11954 -8.66443e-11 
0.343928 -6.09539 -4.95678e-11 
0.557506 -6.08713 -4.64775e-11 
0.772076 -6.08744 -1.90117e-10 
0.986199 -6.09061 -1.73779e-10 
1.19885 -6.03309 2.05583e-11 
1.40931 -6.05369 -8.61517e-11 
1.62 -5.98413 5.51844e-11 
1.83719 -6.09778 -1.57199e-10 
2.05982 -6.08457 1.03035e-10 
2.27463 -6.00505 2.44351e-10 
2.49927 -6.11146 3.06321e-10 
2.73427 -6.11032 -1.5641e-09 
2.9641 -6.01405 5.01595e-10 
3.20285 -6.07728 -8.15336e-09 
3.40991 -5.95658 -2.64689e-09 
3.58029 -6.09766 -2.08695e-06 
-3.9445 -5.86864 1.00766e-06 
-3.72649 -5.79843 -3.64722e-09 
-3.49871 -5.88292 -7.34859e-10 
-3.26527 -5.82758 7.66524e-11 
-3.05439 -5.89597 1.7646e-10 
-2.85615 -5.80189 -2.51656e-10 
-2.63987 -5.8622 -5.81082e-11 
-2.41516 -5.76665 1.40622e-10 
-2.19953 -5.81871 1.77741e-10 
-1.98518 -5.87289 -6.14196e-11 
-1.77468 -5.92163 4.62118e-11 
-1.55988 -5.78043 -6.48449e-11 
-1.33691 -5.81217 -2.85738e-11 
-1.11363 -5.82141 2.62826e-11 
-0.903737 -5.87865 7.75429e-12 
-0.702115 -5.84451 -6.79019e-11 
-0.502613 -5.88632 5.90401e-11 
-0.295333 -5.86301 1.85352e-10 
-0.0864785 -5.861 9.72866e-11 
0.125043 -5.88306 2.31863e-10 
0.339877 -5.86662 -4.93652e-11 
0.554277 -5.85827 -5.02102e-11 
0.766137 -5.86054 -1.29396e-10 
0.979953 -5.86401 -1.01948e-10 
1.19603 -5.8119 -1.38094e-10 
1.41464 -5.82407 8.75407e-11 
1.63648 -5.76442 -4.66313e-11 
1.8463 -5.87873 -2.48319e-10 
2.06002 -5.85934 -1.91557e-11 
2.27631 -5.78561 -7.5371e-11 
2.49346 -5.88646 2.85188e-10 
2.71303 -5.90992 3.31749e-10 
2.92461 -5.80524 9.34716e-11 
3.16525 -5.86446 4.09169e-12 
3.39513 -5.75329 -3.03751e-10 
3.64222 -5.86108 8.61739e-09 
3.82279 -5.94864 -1.05254e-06 
3.99822 -5.83217 -2.50679e-06 
-4.38588 -5.54654 -2.19065e-08 
-4.13863 -5.73339 -3.00489e-08 
-3.9195 -5.63628 -5.81808e-10 
-3.69106 -5.57659 1.92873e-10 
-3.48925 -5.66993 1.12029e-10 
-3.29516 -5.59075 -2.36274e-10 
-3.08108 -5.65733 -2.25143e-11 
-2.85275 -5.59023 1.63585e-10 
-2.62452 -5.63935 2.19863e-10 
-2.40543 -5.54488 -1.43049e-10 
-2.19472 -5.59558 -1.09852e-10 
-1.98176 -5.64606 -3.08353e-11 
-1.77148 -5.69289 6.64797e-11 
-1.57569 -5.55105 -6.87382e-11 
-1.36583 -5.59508 -4.39562e-12 
-1.14776 -5.60665 1.70337e-11 
-0.920538 -5.64389 2.44732e-11 
-0.695397 -5.63031 7.18352e-11 
-0.473059 -5.64903 3.39727e-11 
-0.261653 -5.63057 8.15038e-12 
-0.0470407 -5.63499 -4.39897e-12 
0.162464 -5.65417 -5.58409e-11 
0.379163 -5.6409 -9.16998e-11 
0.591897 -5.62998 -7.97891e-11 
0.804686 -5.63718 -7.96134e-11 
1.01146 -5.63525 -1.00662e-10 
1.24266 -5.59874 1.30002e-10 
1.45142 -5.5997 4.88652e-11 
1.65945 -5.53201 1.49828e-11 
1.85405 -5.65102 2.90712e-10 
2.06004 -5.63761 -4.68098e-10 
2.26923 -5.56209 -6.53257e-12 
2.48386 -5.66194 -1.33582e-10 
2.69926 -5.68899 1.59777e-10 
2.92732 -5.59513 -4.92068e-11 
3.15508 -5.66006 -2.83031e-10 
3.35478 -5.53444 3.12065e-12 
3.59393 -5.64348 1.17299e-10 
3.82061 -5.6727 -1.39223e-10 
4.03679 -5.59234 3.49342e-09 
4.22818 -5.66767 1.65641e-06 
-4.5733 -5.39304 4.42947e-07 
-4.34126 -5.32203 1.16768e-10 
-4.16127 -5.51874 5.70452e-11 
-3.9353 -5.42855 7.91153e-10 
-3.72742 -5.35643 -1.61617e-10 
-3.50018 -5.42157 -1.97304e-10 
-3.27227 -5.37518 -4.53862e-11 
-3.05626 -5.43783 2.40679e-10 
-2.84685 -5.36045 -5.15945e-11 
-2.64181 -5.4259 4.9605e-11 
-2.42876 -5.33488 -4.88896e-11 
-2.20279 -5.36548 -1.02192e-10 
-1.99729 -5.41663 -1.11348e-10 
-1.78727 -5.46001 -1.72504e-10 
-1.55038 -5.34263 -6.90379e-11 
-1.32845 -5.38074 -3.65133e-11 
-1.12241 -5.37666 -1.4902e-11 
-0.926504 -5.4338 3.19769e-11 
-0.733403 -5.39278 2.15674e-11 
-0.529995 -5.42761 -8.11681e-12 
-0.320178 -5.40913 -2.34996e-11 
-0.104021 -5.4103 -4.63016e-13 
0.111995 -5.42042 -2.07171e-11 
0.317369 -5.424 1.33798e-11 
0.531658 -5.40899 3.84376e-11 
0.748774 -5.41207 5.99488e-11 
0.955464 -5.40704 3.96703e-11 
1.16177 -5.41183 7.83118e-11 
1.39695 -5.37615 4.76297e-11 
1.59453 -5.33054 1.17617e-10 
1.84989 -5.41358 -1.11771e-10 
2.05179 -5.41114 4.41511e-10 
2.2731 -5.35453 3.08659e-11 
2.49398 -5.44786 7.15581e-11 
2.71502 -5.47157 -1.47969e-10 
2.91285 -5.36566 2.90686e-11 
3.12405 -5.44012 3.40945e-11 
3.33373 -5.31897 2.65533e-11 
3.5693 -5.43071 2.35928e-10 
3.79846 -5.45472 -6.89648e-10 
4.02685 -5.38223 -4.53471e-10 
4.25908 -5.42159 -2.30415e-09 
4.44919 -5.49588 -1.86273e-07 
-4.79355 -5.19826 6.944e-07 
-4.56448 -5.18162 -1.43486e-09 
-4.34758 -5.10001 2.09932e-10 
-4.12405 -5.28923 -2.42354e-10 
-3.91244 -5.19 -2.72566e-12 
-3.68972 -5.13132 1.22343e-11 
-3.49286 -5.20909 2.38668e-10 
-3.28086 -5.1525 8.17189e-11 
-3.06713 -5.2131 -9.46341e-12 
-2.84774 -5.14641 -1.57657e-10 
-2.62846 -5.19826 -1.53611e-10 
-2.38724 -5.1333 -1.50933e-10 
-2.17056 -5.15099 -1.13237e-10 
-1.95975 -5.19567 -3.8301e-11 
-1.75504 -5.24244 -1.80083e-11 
-1.55935 -5.11378 2.26826e-11 
-1.35318 -5.16814 6.60326e-11 
-1.13659 -5.15238 1.13899e-11 
-0.926028 -5.19245 -9.27681e-12 
-0.710381 -5.17228 -2.92631e-11 
-0.502305 -5.19958 -1.40748e-11 
-0.284362 -5.1912 -3.87301e-11 
-0.0655042 -5.19386 -6.22018e-11 
0.142291 -5.19124 -4.52963e-11 
0.35146 -5.20049 -2.81942e-11 
0.574438 -5.19467 -3.96884e-11 
0.779981 -5.1836 -3.26009e-12 
0.988407 -5.18319 -1.46623e-14 
1.20966 -5.20962 -1.73569e-11 
1.41029 -5.1403 -7.33494e-12 
1.69154 -5.18118 3.84904e-11 
1.8942 -5.17985 -1.16536e-11 
2.10242 -5.19305 5.45046e-11 
2.28868 -5.09959 -3.69011e-11 
2.45979 -5.22094 5.31228e-11 
2.6697 -5.25683 -9.58744e-11 
2.87699 -5.16173 -1.75448e-11 
3.11818 -5.21546 5.59046e-11 
3.34606 -5.10563 4.37982e-11 
3.56435 -5.2258 1.59941e-10 
3.80014 -5.24149 1.70283e-10 
4.01405 -5.16064 -1.54113e-11 
4.23528 -5.20679 1.46254e-09 
4.46654 -5.24409 -5.43919e-09 
4.65663 -5.32126 7.67063e-07 
4.79538 -5.19657 4.82042e-07 
-4.99421 -5.00578 -7.68539e-07 
-4.7658 -4.98504 -2.99271e-10 
-4.54942 -4.95774 3.49364e-10 
-4.32861 -4.87243 -2.74715e-10 
-4.13407 -5.06538 -2.31382e-10 
-3.91237 -4.97585 6.57173e-11 
-3.68602 -4.92293 1.57468e-11 
-3.46226 -4.97664 -3.82465e-12 
-3.24962 -4.9257 4.62261e-11 
-3.05239 -4.99486 1.14333e-10 
-2.85618 -4.91247 4.17008e-11 
-2.65604 -4.97914 4.93257e-11 
-2.44619 -4.9537 -3.84938e-12 
-2.19926 -4.93565 1.40563e-11 
-1.97843 -4.96973 -1.23465e-11 
[...]
POINT_DATA 3402 
VECTORS vectors float
0.00829207 -0.00183576 0.999965 
0.00838627 -0.00158584 0.999965 
0.00843126 -0.00145374 0.999964 
0.00837108 -0.00118452 0.999965 
0.00823 -0.000802101 0.999967 
0.00858685 -0.000656195 0.999964 
0.00812902 -0.00031585 0.999968 
0.00855112 -9.75411e-05 0.999964 
0.00824402 7.12292e-05 0.999967 
0.00819362 0.00041395 0.999967 
0.0084172 0.000643023 0.999965 
0.00834769 0.000821725 0.999966 
0.00825116 0.00107587 0.999966 
0.00830793 0.00143813 0.999965 
0.00875773 0.0016506 0.999961 
0.0081659 0.00185948 0.999966 
0.008146 -0.00293457 0.999963 
0.00822905 -0.0026065 0.999964 
0.00828773 -0.00245795 0.999964 
0.00798181 -0.00209935 0.999967 
0.0541299 -0.0127419 0.998453 
0.0572539 -0.0114201 0.998295 
0.0575277 -0.00971763 0.998297 
0.0543321 -0.00727262 0.998497 
0.0581367 -0.00593415 0.998292 
0.0560639 -0.0039064 0.99842 
0.0584043 -0.00219163 0.998291 
0.0586498 -0.000437408 0.998279 
0.0566172 0.00134807 0.998396 
0.0586102 0.00323471 0.998277 
0.0575701 0.00492752 0.99833 
0.0576348 0.00672111 0.998316 
0.0550571 0.00826366 0.99845 
0.057147 0.0105125 0.998311 
0.0540006 0.0116816 0.998473 
0.0517608 0.0131739 0.998573 
0.00862572 0.0024159 0.999961 
0.00862455 0.00244473 0.999961 
0.00774694 0.00260841 0.999967 
0.00823713 -0.00356445 0.99996 
0.00825645 -0.00328044 0.999961 
0.0502091 -0.019042 0.998558 
0.0537168 -0.0182507 0.99839 
0.0548142 -0.0166715 0.998358 
0.0561003 -0.0151502 0.998311 
0.0683861 -0.0164172 0.997525 
0.0692284 -0.0143155 0.997499 
0.0701205 -0.0120667 0.997466 
0.0691305 -0.00962666 0.997562 
0.070588 -0.0076422 0.997477 
0.0698848 -0.00524292 0.997542 
0.0703382 -0.00296321 0.99752 
0.0705967 -0.000698105 0.997506 
0.0699654 0.0015474 0.997549 
0.0702998 0.00378547 0.997519 
0.0697375 0.00605037 0.997548 
0.0697793 0.00838246 0.997528 
0.0688216 0.0105965 0.997574 
0.0691084 0.0131101 0.997524 
0.067919 0.0153599 0.997573 
0.0677337 0.0176502 0.997548 
0.0578282 0.0166891 0.998188 
0.0514834 0.016557 0.998537 
0.0517304 0.0186573 0.998488 
0.00854144 0.00329785 0.999959 
0.0087296 0.00336534 0.999957 
0.00866627 0.0038236 0.999956 
0.00828597 -0.00426054 0.999957 
0.00815028 -0.00391533 0.99996 
0.0468855 -0.0216104 0.998667 
0.0528052 -0.0220906 0.998361 
0.0650481 -0.0249977 0.99757 
0.0662969 -0.0230406 0.997535 
0.0675375 -0.0208996 0.997499 
0.0685741 -0.0187959 0.99747 
0.0731925 -0.0182168 0.997152 
0.0738146 -0.0158465 0.997147 
0.0740871 -0.0133971 0.997163 
0.074211 -0.0107114 0.997186 
0.0745162 -0.00826013 0.997186 
0.0745776 -0.00575101 0.9972 
0.0746692 -0.00334978 0.997204 
0.0745904 -0.000892193 0.997215 
0.0744956 0.00159253 0.997221 
0.0745652 0.00410517 0.997209 
0.0742955 0.00658277 0.997215 
0.0738415 0.00898515 0.99723 
0.0734906 0.0113571 0.997233 
0.0732306 0.0139351 0.997219 
0.0725167 0.0163753 0.997234 
0.0720033 0.0189605 0.997225 
0.0684567 0.0204424 0.997445 
0.0659556 0.021776 0.997586 
0.0661257 0.0240894 0.997521 
0.056646 0.0224347 0.998142 
0.0485589 0.0209036 0.998603 
0.044996 0.0215136 0.998756 
0.0088977 0.00448651 0.999951 
0.00870564 0.00460666 0.999952 
0.00830924 -0.00508076 0.999953 
0.00803521 -0.00454345 0.999958 
0.0444629 -0.0243219 0.998716 
0.0518859 -0.0261123 0.998312 
0.0628489 -0.0294144 0.99759 
0.0644976 -0.0276489 0.997536 
0.0688074 -0.0277375 0.997245 
0.0702975 -0.0255146 0.997201 
0.0713251 -0.0231759 0.997185 
0.0724259 -0.0207767 0.997158 
0.0719254 -0.0185537 0.997238 
0.0719574 -0.0158962 0.997282 
0.0717734 -0.0133329 0.997333 
0.0726928 -0.0109403 0.997295 
0.0713024 -0.00835615 0.997421 
0.0717252 -0.00586619 0.997408 
0.0706339 -0.00339678 0.997497 
0.0702823 -0.000972275 0.997528 
0.0708939 0.00152956 0.997484 
0.0703834 0.00400088 0.997513 
0.0704966 0.00652229 0.997492 
0.0711745 0.00911076 0.997424 
0.0717679 0.0116888 0.997353 
0.0711593 0.0141962 0.997365 
0.0721553 0.0168424 0.997252 
0.0714391 0.0193703 0.997258 
0.0720505 0.0217388 0.997165 
0.0707602 0.0238955 0.997208 
0.0698073 0.0263147 0.997214 
0.0661064 0.0269409 0.99745 
0.0628002 0.0281966 0.997628 
0.0619703 0.0304561 0.997614 
0.0479284 0.0252885 0.998531 
0.0475245 0.0271483 0.998502 
0.00809665 0.00465067 0.999957 
0.00838286 -0.00548979 0.99995 
0.0428766 -0.0275113 0.998702 
0.0487861 -0.0290051 0.998389 
0.0601521 -0.0336856 0.997621 
0.0623008 -0.0322335 0.997538 
0.0661702 -0.0324671 0.997281 
0.067882 -0.03044 0.99723 
0.069261 -0.0288817 0.997181 
0.0699796 -0.0263232 0.997202 
0.0704394 -0.0236732 0.997236 
0.0707979 -0.0211195 0.997268 
0.0640468 -0.0172086 0.997799 
0.0634026 -0.0145764 0.997882 
0.0620544 -0.011914 0.998003 
0.0631708 -0.00978327 0.997956 
0.0602324 -0.00731843 0.998158 
0.0615083 -0.00535875 0.998093 
0.0597259 -0.00312075 0.998211 
0.0591833 -0.000961807 0.998248 
0.0601993 0.00121776 0.998187 
0.0597922 0.00349272 0.998206 
0.0602002 0.00577631 0.99817 
0.0612064 0.00810826 0.998093 
0.0625533 0.010547 0.997987 
0.0620994 0.012836 0.997988 
0.0641871 0.015614 0.997817 
0.0639316 0.0181623 0.99779 
0.0698295 0.021961 0.997318 
0.0702196 0.0246568 0.997228 
0.069377 0.0272267 0.99722 
0.0688904 0.0290564 0.997202 
0.0671291 0.0307246 0.997272 
0.0658711 0.0330986 0.99728 
0.0615812 0.0332017 0.997551 
0.0596805 0.0352262 0.997597 
0.0421992 0.0262522 0.998765 
0.00837557 0.00536587 0.999951 
0.00839268 0.00565031 0.999949 
0.00886667 -0.00692227 0.999937 
0.0089923 -0.00641356 0.99994 
0.0445147 -0.030931 0.998531 
0.0574625 -0.0380683 0.997622 
0.0594149 -0.0365563 0.997565 
0.0631313 -0.0371673 0.997314 
0.0649537 -0.0353253 0.997264 
0.0666378 -0.0339528 0.9972 
0.0674578 -0.0313069 0.997232 
0.0632791 -0.0272934 0.997623 
0.0628802 -0.0244975 0.997721 
0.0624353 -0.0217726 0.997812 
0.062062 -0.0192082 0.997888 
0.0528986 -0.0149255 0.998489 
0.0529056 -0.0128863 0.998517 
0.05145 -0.0105541 0.998621 
0.0515631 -0.0084746 0.998635 
0.0494919 -0.00619366 0.998756 
0.0493428 -0.00420145 0.998774 
0.0479741 -0.00228689 0.998847 
0.0479229 -0.000429429 0.998852 
0.0489761 0.00141829 0.9988 
0.0487124 0.00332839 0.998808 
0.0488547 0.00520414 0.998793 
0.0501399 0.0072357 0.998717 
0.0515264 0.00931187 0.998629 
0.0514794 0.0114162 0.99861 
0.053773 0.0139243 0.998457 
0.0528643 0.0158122 0.998477 
0.0610186 0.019973 0.997939 
0.0629639 0.0230052 0.99775 
0.0622963 0.0253484 0.997737 
0.067529 0.0295485 0.997281 
0.0680722 0.0321891 0.997162 
0.0666494 0.0348116 0.99717 
0.0644421 0.0359151 0.997276 
0.0631664 0.038266 0.99727 
0.058135 0.0370371 0.997622 
0.0476449 0.0321577 0.998347 
0.0403482 0.0290649 0.998764 
0.00889309 0.00649838 0.99994 
0.00892496 -0.00749476 0.999933 
0.041353 -0.0337374 0.998576 
0.0377244 -0.028422 0.998885 
0.0554999 -0.0403312 0.997645 
0.0599109 -0.0417121 0.997333 
0.0622777 -0.0401897 0.99725 
0.0639415 -0.038918 0.997195 
0.0648766 -0.0364553 0.997228 
0.0616686 -0.032683 0.997562 
0.0614778 -0.0298316 0.997663 
0.0543527 -0.0245921 0.99822 
0.0521767 -0.0212595 0.998413 
0.0516416 -0.0188923 0.998488 
0.0508307 -0.0165086 0.998572 
0.0432219 -0.0124763 0.998988 
0.0428743 -0.010557 0.999026 
0.0413714 -0.00864258 0.999107 
0.0424176 -0.00727414 0.999074 
0.0397378 -0.00543557 0.999196 
0.040318 -0.00397014 0.99918 
0.0389366 -0.0023118 0.99924 
0.0387335 -0.000734575 0.99925 
0.0391457 0.000837615 0.999234 
0.0395359 0.00234744 0.999216 
0.0394175 0.00390613 0.999216 
0.0403329 0.00559941 0.999171 
0.0411989 0.00728703 0.999125 
0.0425448 0.00911039 0.999054 
0.0431028 0.0111593 0.999009 
0.0429981 0.0128093 0.998994 
0.0493139 0.0167915 0.998642 
0.0520551 0.0196173 0.998453 
0.0525545 0.0222242 0.998372 
0.0603651 0.0275487 0.997797 
0.0638413 0.031617 0.99746 
0.0626664 0.0339586 0.997457 
0.0650927 0.0373304 0.997182 
0.0636112 0.0398196 0.997181 
0.0613021 0.0402614 0.997308 
0.0574958 0.0401376 0.997539 
0.0542134 0.0405984 0.997705 
0.038684 0.0303306 0.998792 
0.00799152 0.0064855 0.999948 
0.00921052 -0.00836532 0.999924 
0.0363658 -0.0319731 0.998828 
0.0521569 -0.0444587 0.99765 
0.0539809 -0.0420827 0.997656 
0.0588149 -0.0443578 0.997284 
0.0610498 -0.0439421 0.997168 
0.0622686 -0.0418069 0.997184 
0.060235 -0.0383835 0.997447 
0.0592671 -0.0348551 0.997634 
0.0529253 -0.0292154 0.998172 
0.0511011 -0.0257269 0.998363 
0.0445481 -0.0205994 0.998796 
0.0423866 -0.0177419 0.998944 
0.0416009 -0.0155972 0.999013 
0.0411488 -0.0137023 0.99906 
0.0347745 -0.0106029 0.99934 
0.035165 -0.00921561 0.99934 
0.0331542 -0.00731836 0.999424 
0.0333872 -0.00596178 0.999426 
0.0315535 -0.00433128 0.999494 
0.0317978 -0.00306248 0.999491 
0.0308705 -0.00166644 0.999523 
0.0308129 -0.000343913 0.999526 
0.0307305 0.000889778 0.999528 
0.0314017 0.00216346 0.999505 
0.0317513 0.00354062 0.99949 
0.0321948 0.00484896 0.999471 
0.0331157 0.00630209 0.999432 
0.0354616 0.00821974 0.999338 
0.0342501 0.00937652 0.99937 
0.0381543 0.012418 0.999196 
0.0401304 0.0146369 0.999088 
0.0431913 0.0174217 0.998916 
0.0417777 0.0187137 0.998953 
0.0494175 0.0232086 0.998509 
0.0545025 0.0276222 0.998132 
0.0540801 0.0300815 0.998084 
0.0602193 0.0359401 0.997539 
0.059755 0.039112 0.997447 
0.061981 0.0422283 0.997184 
0.0596329 0.0432206 0.997285 
0.057376 0.0445955 0.997357 
0.0528221 0.0427217 0.997691 
0.0387735 0.0331918 0.998697 
0.00778633 0.00673465 0.999948 
0.00836292 0.00750363 0.999937 
0.00960172 -0.00953771 0.99991 
0.0356126 -0.0340241 0.998787 
0.0499609 -0.0459135 0.997696 
0.0550071 -0.0488102 0.997293 
0.0565476 -0.0460999 0.997336 
0.0590075 -0.0464042 0.997179 
0.0582457 -0.0436442 0.997349 
0.0569809 -0.0396717 0.997588 
0.0511899 -0.0337932 0.998118 
0.0502737 -0.0307335 0.998263 
0.0432191 -0.0251247 0.998751 
0.042444 -0.0226234 0.998843 
0.038419 -0.018942 0.999083 
0.0348641 -0.0155226 0.999272 
0.033491 -0.0133351 0.999351 
0.0329577 -0.0116552 0.99939 
0.027361 -0.00866607 0.999589 
0.0272501 -0.00731432 0.999603 
0.0250908 -0.00567446 0.99967 
0.0253446 -0.00461833 0.999669 
0.0229425 -0.00327046 0.999732 
0.0233084 -0.00236751 0.999726 
0.0229401 -0.00138741 0.999737 
0.0227606 -0.000380014 0.999742 
0.0222529 0.000603907 0.999753 
0.0229071 0.00156692 0.999737 
0.0240157 0.002607 0.999709 
0.0237434 0.00364282 0.999712 
0.024937 0.0048183 0.999678 
0.0275265 0.00644575 0.999601 
0.0266747 0.00750514 0.999617 
0.0312018 0.0100215 0.999464 
0.0318822 0.011845 0.999422 
0.0344279 0.0141994 0.999307 
0.0339624 0.0156342 0.999302 
0.0392422 0.0195978 0.999039 
0.0446616 0.0235019 0.998727 
0.0450473 0.0261128 0.998644 
0.0521874 0.0321292 0.998121 
0.0508279 0.0339831 0.99813 
0.0588375 0.04165 0.997399 
0.0601456 0.0448102 0.997184 
0.0586446 0.0466136 0.997191 
0.0565344 0.0471621 0.997287 
0.0528253 0.0459404 0.997547 
0.0447545 0.0408479 0.998163 
0.0341253 0.032759 0.998881 
0.00967595 0.00964539 0.999909 
0.0092616 -0.0100125 0.999909 
0.0323906 -0.0336681 0.998909 
0.0474774 -0.0475364 0.997741 
0.0527484 -0.0505451 0.997329 
0.0552546 -0.0511449 0.997162 
0.0571119 -0.0484358 0.997193 
0.0561465 -0.0457534 0.997374 
0.050699 -0.0398373 0.99792 
0.0494832 -0.0362766 0.998117 
0.0432271 -0.0300655 0.998613 
0.0406126 -0.0260682 0.998836 
0.0351173 -0.0212483 0.999158 
0.034148 -0.0189122 0.999239 
0.0313645 -0.0158312 0.999383 
0.0279124 -0.0128216 0.999529 
0.0260075 -0.0107985 0.999604 
0.02536 -0.00933431 0.999636 
0.019467 -0.00649555 0.99979 
0.0197014 -0.00563214 0.999791 
0.0173595 -0.00417977 0.999841 
0.0168364 -0.00325686 0.999854 
0.015001 -0.00221544 0.999886 
0.014629 -0.00147927 0.999893 
0.0148773 -0.000835487 0.99989 
0.0146884 -0.000168282 0.999893 
0.0140799 0.000457487 0.999902 
0.014669 0.0011084 0.999893 
0.0161318 0.00191452 0.999869 
0.0153846 0.0024877 0.999879 
0.017176 0.00353469 0.999847 
0.0197273 0.00488582 0.999794 
0.0199558 0.00603892 0.999783 
0.024609 0.00843913 0.999662 
0.025081 0.00988672 0.999637 
0.0268807 0.0117324 0.999571 
0.0297726 0.0147903 0.999448 
0.0323515 0.017363 0.999326 
0.0369496 0.0209372 0.999099 
0.0353521 0.0218786 0.999136 
0.0420845 0.0267645 0.998756 
0.0408131 0.0282783 0.998767 
0.0499262 0.0360741 0.998102 
0.0544627 0.0418337 0.99764 
0.0551552 0.0454897 0.997442 
0.0564261 0.0489752 0.997206 
0.0543631 0.0493161 0.997303 
0.0510844 0.0487045 0.997507 
0.0465224 0.0469792 0.997813 
0.0309027 0.0326021 0.998992 
0.0085302 0.00944926 0.99992 
0.00774052 -0.00918295 0.999929 
0.0314117 -0.0357392 0.998868 
0.0452651 -0.0491449 0.997766 
0.0505484 -0.0528069 0.997325 
0.0528805 -0.0528568 0.997202 
0.0531577 -0.051367 0.997265 
0.0550497 -0.0485495 0.997303 
0.0493406 -0.0423376 0.997885 
0.0424778 -0.0347931 0.998492 
0.0400032 -0.0304693 0.998736 
0.0353046 -0.0250427 0.999064 
0.0324521 -0.0215591 0.999242 
0.0281717 -0.0174881 0.999451 
0.0273509 -0.0155478 0.999506 
0.0245783 -0.0127871 0.999617 
0.0206191 -0.0099188 0.999739 
0.0182743 -0.0079911 0.999802 
0.017735 -0.00690074 0.99982 
0.0123794 -0.00435055 0.999915 
0.0121792 -0.00362522 0.99992 
0.0103536 -0.0025588 0.999944 
0.00970815 -0.0019096 0.999952 
0.00831759 -0.00123386 0.999965 
0.00791499 -0.000789588 0.999969 
0.00817363 -0.000421009 0.999967 
0.00793338 -4.46062e-05 0.999969 
0.00753134 0.000303579 0.999972 
0.00819608 0.000712188 0.999967 
0.008915 0.00116722 0.99996 
0.00903021 0.00162263 0.999959 
0.0105127 0.00237601 0.999943 
0.0133014 0.00360595 0.999906 
0.0115501 0.00368032 0.999927 
0.016446 0.00580198 0.999849 
0.0180381 0.00718209 0.999812 
0.0190407 0.00865124 0.999782 
0.0236768 0.0116922 0.999652 
0.0246303 0.0136667 0.999604 
0.0288374 0.0171454 0.999438 
0.0283395 0.0184822 0.999428 
0.033387 0.022802 0.999183 
0.0405771 0.0305728 0.998709 
0.0457924 0.0363485 0.99829 
0.047068 0.0401014 0.998087 
0.0523362 0.0468036 0.997533 
0.054409 0.0510417 0.997214 
0.0526597 0.0516964 0.997274 
0.0506736 0.0523019 0.997346 
0.0460252 0.049727 0.997703 
0.0348599 0.0398018 0.9986 
0.00691343 0.00814692 0.999943 
0.00656897 -0.00834297 0.999944 
0.0328409 -0.0403618 0.998646 
0.0443005 -0.0520201 0.997664 
0.0485017 -0.0546809 0.997326 
0.0510702 -0.0551847 0.99717 
0.051767 -0.0535913 0.997221 
0.0460253 -0.0464841 0.997859 
0.0495716 -0.0461833 0.997703 
0.0421418 -0.0390374 0.99835 
0.0386268 -0.0339503 0.998678 
0.0337771 -0.0277371 0.999045 
0.0316829 -0.0242627 0.999204 
0.0274463 -0.0198337 0.999427 
0.0249342 -0.016823 0.999548 
0.0212058 -0.0131317 0.99969 
0.0198159 -0.0112715 0.999741 
0.015814 -0.00834542 0.999841 
0.0122927 -0.00593007 0.999908 
0.0106957 -0.00459765 0.999933 
0.00842528 -0.00328824 0.99996 
0.00669341 -0.00219067 0.999976 
0.00571284 -0.00158142 0.999983 
0.00482832 -0.00107233 0.999989 
0.00413777 -0.000710645 0.999992 
0.00358775 -0.000428116 0.999994 
0.0036184 -0.00024464 0.999994 
0.00353889 -6.79176e-05 0.999995 
0.00339433 9.72182e-05 0.999995 
0.00362308 0.000285308 0.999994 
0.0038915 0.000495944 0.999993 
0.00447206 0.000775196 0.999991 
0.00511457 0.0011647 0.999987 
0.00681757 0.00187454 0.999976 
0.00617187 0.00206368 0.99998 
0.0095774 0.00363136 0.999949 
0.0119695 0.00513376 0.999916 
0.0130111 0.00633626 0.999896 
0.0178099 0.00937234 0.999798 
0.0174537 0.0101616 0.999797 
0.0221154 0.0136774 0.999663 
0.0223779 0.0152239 0.999634 
0.0268714 0.0194419 0.999451 
0.0329285 0.0246023 0.999156 
0.0351403 0.0286187 0.998973 
0.0379049 0.0326211 0.99875 
0.0428704 0.0393733 0.998306 
0.0494565 0.0474847 0.997648 
0.0517963 0.0523871 0.997284 
0.0511445 0.0543754 0.997211 
0.0491327 0.0546741 0.997295 
0.0451709 0.0529376 0.997577 
0.0352169 0.0429842 0.998456 
0.00672692 0.00829949 0.999944 
0.00609845 -0.00824371 0.999948 
0.0318922 -0.0421893 0.998601 
0.0428317 -0.0544895 0.997596 
0.0466247 -0.0569758 0.997287 
0.0489581 -0.0571013 0.997168 
0.0490608 -0.0547346 0.997296 
0.0447444 -0.0482184 0.997835 
0.038355 -0.0380466 0.99854 
0.0325518 -0.0308204 0.998996 
0.0306619 -0.0271125 0.999163 
0.0266664 -0.0220674 0.999402 
0.0239895 -0.0187267 0.999538 
0.0200747 -0.0147034 0.999691 
0.0179682 -0.0121402 0.999766 
0.0137851 -0.00861585 0.999869 
0.011688 -0.00677184 0.99991 
0.00842355 -0.00448829 0.999955 
0.00634454 -0.00303764 0.999976 
0.00419489 -0.00184293 0.99999 
0.0041428 -0.00156825 0.999991 
0.00268201 -0.000884288 0.999997 
0.00226561 -0.00061951 0.999998 
0.00167473 -0.000368 0.999999 
0.00135257 -0.000222863 1 
0.00113057 -0.000121812 1 
0.00103277 -5.54373e-05 1 
0.000979838 -1.61032e-06 1 
0.00108654 5.58794e-05 1 
0.00114353 0.000119035 1 
0.00128481 0.000198233 1 
0.00196315 0.000399066 0.999999 
0.00181715 0.000459573 0.999999 
0.00309665 0.000907608 0.999996 
0.00269053 0.000954835 0.999997 
0.00490627 0.00196406 0.999987 
0.00676101 0.00306184 0.999973 
0.0069471 0.00354869 0.99997 
0.0108808 0.00599252 0.999924 
0.011465 0.00702964 0.99991 
0.0158951 0.0104126 0.99982 
0.0185406 0.0135187 0.999738 
0.0224977 0.0174478 0.999595 
0.0281942 0.0225137 0.99935 
0.0282043 0.0243728 0.999306 
0.0328807 0.0299242 0.999012 
0.037078 0.0359041 0.998668 
0.0437128 0.0442014 0.998067 
0.0467076 0.0497985 0.997667 
0.0489665 0.054866 0.997293 
0.0484243 0.0567123 0.997217 
0.0463226 0.0571774 0.99729 
0.0422338 0.0541795 0.997638 
0.0282825 0.0374096 0.998901 
0.00611527 0.00856151 0.999945 
0.00561819 -0.00829511 0.99995 
0.0291964 -0.0418456 0.998698 
0.0403912 -0.0558704 0.997622 
0.0441433 -0.0587322 0.997298 
0.0463795 -0.0591665 0.997171 
0.0466179 -0.0566355 0.997307 
0.042925 -0.0502414 0.997815 
0.0364978 -0.0415612 0.99847 
0.0358078 -0.038215 0.998629 
0.0301369 -0.0307629 0.999073 
0.0259659 -0.0249776 0.999352 
0.0242204 -0.0217196 0.999471 
0.0197234 -0.0168727 0.999664 
0.0171835 -0.0137409 0.999759 
0.0134112 -0.00996774 0.999861 
0.0110489 -0.00758129 0.999911 
0.00713787 -0.00459468 0.999965 
0.00577151 -0.00340465 0.999978 
0.00382709 -0.00204728 0.999991 
0.0022229 -0.00110545 0.999998 
0.00165947 -0.0007198 0.999999 
0.00117574 -0.000453465 1 
0.000603856 -0.000206982 1 
0.000275855 -8.59057e-05 1 
-8.74454e-05 5.09514e-06 1 
-0.000271184 3.06461e-05 1 
-0.000546307 4.25535e-05 1 
-0.000671555 2.06787e-05 1 
-0.000531166 -9.87316e-06 1 
-0.000448927 -3.04585e-05 1 
-0.000386258 -4.37284e-05 1 
0.000176231 4.42957e-05 1 
0.000280431 8.45539e-05 1 
0.000917729 0.000303301 1 
0.000580051 0.000232346 1 
0.00183815 0.000775187 0.999999 
0.00294638 0.00138992 0.999996 
0.00339781 0.00182881 0.999993 
0.00609253 0.00355804 0.999976 
0.00616564 0.00399558 0.999974 
0.00983424 0.00674115 0.99993 
0.0131525 0.00964713 0.999868 
0.0163163 0.0132155 0.99978 
0.0220595 0.0186873 0.999583 
0.0244959 0.0225899 0.999446 
0.0287303 0.0278424 0.9992 
0.0297741 0.030744 0.999085 
0.0357262 0.0374912 0.998659 
0.0389671 0.0433262 0.998302 
0.0432977 0.0504616 0.997788 
0.0462243 0.0564266 0.997337 
0.0460182 0.0590908 0.997192 
0.0440413 0.058597 0.997311 
0.0401643 0.0552764 0.997664 
0.0305811 0.0439049 0.998568 
0.00568189 0.0084065 0.999949 
0.00510991 -0.00825337 0.999953 
0.0279299 -0.0435482 0.998662 
0.0382374 -0.0572475 0.997628 
0.0417728 -0.0603543 0.997303 
0.0439105 -0.0609258 0.997177 
0.0434351 -0.0577002 0.997389 
0.0402986 -0.051322 0.99787 
0.0346508 -0.0427173 0.998487 
0.0290876 -0.0341404 0.998994 
0.0279742 -0.0307739 0.999136 
0.023757 -0.0246614 0.999414 
0.019829 -0.0192558 0.999619 
0.0165849 -0.0153128 0.999746 
0.0125576 -0.0108517 0.999863 
0.0100764 -0.00809384 0.999917 
0.00703825 -0.00522696 0.999962 
0.00448942 -0.0031314 0.999986 
0.00272789 -0.00174794 0.999996 
0.00211325 -0.00123518 0.999998 
0.000776513 -0.000432845 1 
0.000532625 -0.000270921 1 
-8.56697e-05 1.49599e-05 1 
-0.000364528 0.000107897 1 
-0.000930161 0.000258634 1 
-0.00135018 0.000308386 1 
-0.00175799 0.000300821 0.999999 
-0.00221171 0.000256781 0.999998 
-0.00273955 0.000163534 0.999997 
-0.00269012 7.65922e-06 0.999997 
-0.00244202 -0.000129872 0.999998 
-0.00226904 -0.000250063 0.999998 
-0.00207186 -0.000345763 0.999999 
-0.00115885 -0.00023481 1 
-0.00138369 -0.000357018 1 
-0.000423491 -0.00011767 1 