# vtk DataFile Version 3.0 
Exported using Morpho https://github.com/Morpho-lang/morpho 
ASCII 
DATASET UNSTRUCTURED_GRID 

POINTS 3402 float 
-1.58103 -6.89205 -2.14208e-05 
-1.38012 -6.93507 1.58122e-05 
-1.17755 -6.97232 -8.95106e-06 
-0.9711 -7.00406 -1.03118e-05 
-0.730851 -7.03318 2.58394e-05 
-0.527623 -7.05134 -2.9326e-05 
-0.300198 -7.06469 2.05347e-05 
-0.0946566 -7.07042 -1.99559e-05 
0.107955 -7.07025 6.47001e-06 
0.331088 -7.06332 1.11333e-05 
0.530436 -7.05116 -1.64921e-05 
0.73926 -7.03233 2.59569e-05 
0.946499 -7.00745 -1.98873e-05 
1.17508 -6.97275 9.98492e-06 
1.3817 -6.93476 -1.47647e-05 
1.61075 -6.88517 8.36574e-06 
-2.4258 -6.64195 1.72764e-05 
-2.21976 -6.71361 -9.81326e-06 
-2.01105 -6.77906 -7.37247e-06 
-1.80742 -6.83616 2.15483e-05 
-1.57322 -6.67766 2.33734e-05 
-1.34114 -6.702 -7.17477e-06 
-1.13009 -6.74141 -9.83452e-06 
-0.902528 -6.80442 3.88001e-06 
-0.692344 -6.78921 -1.83104e-06 
-0.469284 -6.8319 2.63012e-06 
-0.2568 -6.81864 -2.41023e-06 
-0.0463388 -6.81984 -3.46534e-06 
0.170457 -6.83959 2.75705e-05 
0.377523 -6.80437 -2.37361e-05 
0.587012 -6.80345 5.24807e-07 
0.796863 -6.78232 -8.80007e-06 
1.01576 -6.77775 -9.66712e-06 
1.23057 -6.72134 7.5934e-06 
1.45012 -6.70156 2.05555e-05 
1.69062 -6.66175 -5.68526e-05 
1.85722 -6.82283 -2.653e-06 
2.04294 -6.76954 1.02512e-05 
2.28059 -6.69322 -1.00097e-05 
-2.85283 -6.47003 1.60763e-05 
-2.6558 -6.55336 -1.67775e-05 
-2.4439 -6.42517 1.83416e-05 
-2.20979 -6.48338 1.70514e-05 
-1.99567 -6.55022 -3.8745e-05 
-1.78049 -6.60196 2.22337e-05 
-1.54289 -6.447 -6.70625e-06 
-1.33858 -6.48561 -5.26039e-06 
-1.11991 -6.50781 4.02033e-06 
-0.912453 -6.57617 1.29102e-05 
-0.69905 -6.55054 8.64905e-06 
-0.490273 -6.59727 2.28574e-05 
-0.277766 -6.57718 5.32621e-06 
-0.0672119 -6.57638 5.9014e-06 
0.147263 -6.59763 -8.5655e-06 
0.362301 -6.56668 -1.39381e-05 
0.575524 -6.56167 -9.76051e-07 
0.78929 -6.54841 6.63557e-07 
1.00807 -6.54835 -2.22858e-05 
1.22412 -6.49185 -1.14006e-05 
1.46204 -6.49076 8.6137e-06 
1.67286 -6.42406 9.08926e-06 
1.8869 -6.5459 1.11121e-05 
2.10889 -6.54315 5.91706e-05 
2.33117 -6.45778 -8.54505e-05 
2.50262 -6.61339 6.85141e-06 
2.67687 -6.5448 1.35482e-05 
2.91109 -6.44403 -1.80524e-05 
-3.28112 -6.26372 4.357e-06 
-3.09813 -6.35621 -8.86503e-06 
-2.88875 -6.25505 1.88521e-06 
-2.65005 -6.309 -8.30113e-07 
-2.40143 -6.21026 -1.55899e-05 
-2.18862 -6.27467 1.55961e-05 
-1.96465 -6.32696 6.96708e-06 
-1.75234 -6.37704 -2.71062e-06 
-1.55038 -6.21652 -9.80725e-06 
-1.33597 -6.24984 -1.13464e-05 
-1.12958 -6.28075 3.45826e-06 
-0.91178 -6.34022 3.6581e-06 
-0.696715 -6.32 -2.88666e-06 
-0.485581 -6.35931 7.26018e-06 
-0.277986 -6.33429 -4.66781e-06 
-0.0715271 -6.33509 -6.84345e-06 
0.138344 -6.36077 -6.01952e-06 
0.346431 -6.32851 8.31415e-06 
0.557796 -6.32554 1.24842e-05 
0.767529 -6.3124 9.98692e-06 
0.97901 -6.32086 9.80025e-06 
1.19029 -6.26752 1.08852e-06 
1.41228 -6.2763 1.13752e-05 
1.63253 -6.21116 4.46824e-06 
1.8812 -6.30736 1.15039e-06 
2.08941 -6.32549 1.98788e-06 
2.28103 -6.22669 -2.18587e-06 
2.5115 -6.32952 -5.31848e-06 
2.73026 -6.31486 5.13156e-05 
2.97816 -6.22112 -2.02972e-05 
3.16397 -6.32369 -9.32563e-06 
3.3771 -6.21248 2.18665e-05 
-3.71334 -6.01755 2.48767e-06 
-3.52697 -6.12864 2.98688e-06 
-3.31227 -6.04824 -1.29073e-05 
-3.07382 -6.10128 1.73494e-06 
-2.82969 -6.0368 -5.10134e-06 
-2.62356 -6.10252 -2.4711e-06 
-2.42345 -5.98391 -1.83217e-05 
-2.20226 -6.04269 -1.272e-05 
-1.98925 -6.10105 -7.04467e-06 
-1.76849 -6.14396 -1.7515e-05 
-1.55286 -5.99762 -6.83779e-08 
-1.33052 -6.02664 -5.11137e-07 
-1.11626 -6.04735 2.71201e-06 
-0.911731 -6.1135 -3.27521e-06 
-0.70291 -6.08592 -5.31261e-06 
-0.492795 -6.12146 -1.13691e-05 
-0.285447 -6.09805 2.16184e-07 
-0.0749674 -6.09499 -1.424e-06 
0.135106 -6.12011 -3.53106e-06 
0.345896 -6.0931 -1.03383e-06 
0.558468 -6.08983 1.68676e-06 
0.770835 -6.08105 1.85703e-06 
0.985429 -6.08834 5.43066e-06 
1.19894 -6.03371 1.33739e-06 
1.40665 -6.0558 7.25636e-06 
1.61573 -5.98248 5.39351e-08 
1.83342 -6.08983 1.81278e-06 
2.05816 -6.08571 5.03944e-06 
2.27483 -6.00707 1.02917e-05 
2.49708 -6.10766 -1.86806e-05 
2.73808 -6.11312 -6.04895e-06 
2.96434 -6.01278 -2.20021e-05 
3.20157 -6.0781 1.40777e-06 
3.40859 -5.95839 1.14414e-05 
3.5806 -6.09747 -9.87657e-06 
-3.94503 -5.86827 4.69267e-06 
-3.72815 -5.79803 -7.10926e-07 
-3.50014 -5.88274 -7.47217e-06 
-3.26513 -5.83016 1.12386e-06 
-3.0523 -5.89452 1.31788e-05 
-2.85566 -5.80195 -1.75361e-06 
-2.63952 -5.86074 -5.52188e-06 
-2.41631 -5.76475 3.57654e-06 
-2.20031 -5.8213 -7.05344e-06 
-1.98525 -5.87261 -3.83207e-06 
-1.77508 -5.92186 -4.05755e-07 
-1.55938 -5.78092 -5.24552e-08 
-1.33822 -5.81295 4.67567e-06 
-1.11346 -5.82198 -3.27125e-07 
-0.901722 -5.87884 2.19391e-06 
-0.701567 -5.84242 9.97707e-07 
-0.503205 -5.88578 5.30028e-07 
-0.29653 -5.86085 -4.62207e-06 
-0.089244 -5.86141 -1.81542e-06 
0.121533 -5.88433 3.44666e-06 
0.337848 -5.86653 -1.7451e-07 
0.554895 -5.85867 -5.91195e-06 
0.768006 -5.85415 1.56646e-06 
0.982247 -5.86274 -5.46428e-06 
1.19691 -5.81153 2.92615e-06 
1.41527 -5.82385 -5.45564e-06 
1.63852 -5.76543 -7.37082e-07 
1.84962 -5.87399 -3.32152e-06 
2.0638 -5.86063 9.62241e-06 
2.27826 -5.78647 6.16612e-06 
2.4927 -5.88709 1.83453e-05 
2.71496 -5.90855 -2.02958e-05 
2.92565 -5.80116 1.31957e-05 
3.16477 -5.86328 1.43002e-05 
3.39206 -5.75424 1.36725e-05 
3.64133 -5.86134 -9.82858e-07 
3.82292 -5.94854 -4.55051e-06 
3.99769 -5.83252 -1.21414e-05 
-4.38527 -5.547 -7.73647e-08 
-4.13722 -5.73439 -1.11352e-07 
-3.91898 -5.63516 2.02419e-06 
-3.68984 -5.57533 -2.49278e-06 
-3.48868 -5.67021 1.34419e-05 
-3.29624 -5.58998 -1.29501e-06 
-3.08354 -5.65563 -3.8088e-06 
-2.85468 -5.59047 -3.2357e-06 
-2.62573 -5.63627 -3.12435e-06 
-2.40566 -5.54411 2.38731e-06 
-2.19446 -5.59932 4.95504e-06 
-1.98129 -5.647 1.20129e-05 
-1.76969 -5.69362 4.84087e-06 
-1.57555 -5.55007 -5.22566e-07 
-1.36698 -5.59372 3.78966e-06 
-1.15086 -5.60694 -7.24229e-07 
-0.924016 -5.64279 2.29669e-06 
-0.698619 -5.62968 2.94427e-06 
-0.4726 -5.64683 6.9661e-06 
-0.261034 -5.62701 -2.22956e-06 
-0.0464496 -5.63511 -2.94874e-06 
0.163783 -5.65474 5.1526e-06 
0.382847 -5.64206 -5.26252e-06 
0.59676 -5.63029 3.15717e-06 
0.811882 -5.6348 -4.93931e-06 
1.017 -5.63208 -1.06468e-06 
1.24548 -5.59795 -1.23008e-06 
1.45259 -5.59875 -9.34876e-06 
1.65942 -5.53536 6.61058e-06 
1.8548 -5.65104 -2.92149e-06 
2.06498 -5.63714 -7.09172e-06 
2.26968 -5.56243 -1.87603e-06 
2.48193 -5.65963 2.5544e-06 
2.69547 -5.68905 7.60918e-06 
2.92336 -5.59133 9.63086e-06 
3.15137 -5.65654 1.6494e-05 
3.35451 -5.53558 -6.21578e-07 
3.59322 -5.64392 -3.70873e-06 
3.82054 -5.67272 -1.12948e-06 
4.03602 -5.59266 2.20403e-05 
4.22708 -5.66848 7.51138e-06 
-4.57424 -5.39222 2.01771e-06 
-4.34431 -5.32476 -1.56691e-05 
-4.16069 -5.5208 -8.28527e-06 
-3.93437 -5.42752 2.5665e-07 
-3.72621 -5.35484 7.88225e-06 
-3.49936 -5.42038 1.26361e-06 
-3.27334 -5.3723 -3.71409e-07 
-3.05857 -5.43578 -9.93975e-06 
-2.84772 -5.3626 1.98693e-08 
-2.64185 -5.42259 9.64998e-06 
-2.42719 -5.33491 -9.51913e-07 
-2.20103 -5.36816 1.03773e-05 
-1.99726 -5.41707 -1.33203e-06 
-1.78886 -5.46045 1.23225e-06 
-1.55315 -5.34203 5.27702e-06 
-1.3304 -5.37745 -1.61273e-06 
-1.12517 -5.37758 6.30472e-07 
-0.926919 -5.43112 -9.42619e-06 
-0.731254 -5.393 8.8301e-06 
-0.529688 -5.42739 -1.17759e-05 
-0.320219 -5.40578 4.9106e-06 
-0.103251 -5.40766 -1.12332e-07 
0.111737 -5.41994 1.44457e-06 
0.317126 -5.42491 4.64276e-08 
0.530873 -5.40804 4.6026e-07 
0.74627 -5.41276 1.44503e-06 
0.954106 -5.4054 1.2668e-06 
1.16212 -5.4096 -1.40373e-06 
1.39679 -5.37327 2.47413e-06 
1.59437 -5.33067 -2.32806e-06 
1.84659 -5.41043 -3.78117e-06 
2.04607 -5.41461 -9.15574e-06 
2.27158 -5.35608 -2.0048e-06 
2.49452 -5.44418 -4.45842e-06 
2.71274 -5.47037 -2.2219e-06 
2.91226 -5.36455 -4.82268e-06 
3.12421 -5.43768 4.76338e-06 
3.33324 -5.31992 -6.33185e-06 
3.56826 -5.43008 -2.27534e-06 
3.79777 -5.45435 -4.39872e-06 
4.02732 -5.38202 1.91838e-05 
4.25977 -5.4232 -1.22356e-05 
4.44955 -5.49558 -2.53467e-07 
-4.79315 -5.19859 3.03331e-06 
-4.56657 -5.17996 8.3774e-06 
-4.3494 -5.10212 5.26315e-07 
-4.12658 -5.29197 -7.19468e-06 
-3.91332 -5.19077 6.27339e-06 
-3.6914 -5.12796 1.5921e-06 
-3.49587 -5.20713 -1.3856e-05 
-3.28214 -5.15264 -9.75684e-07 
-3.06545 -5.21165 2.19647e-06 
-2.84514 -5.14906 8.35518e-06 
-2.62649 -5.19588 9.20813e-07 
-2.38296 -5.13419 1.17217e-06 
-2.16794 -5.15134 -1.699e-06 
-1.95795 -5.19473 3.23721e-07 
-1.75455 -5.23927 -1.54574e-06 
-1.55767 -5.11342 -7.82842e-06 
-1.35217 -5.16494 -1.48615e-06 
-1.13654 -5.15199 7.3933e-08 
-0.92741 -5.19264 6.1632e-06 
-0.711647 -5.17304 -8.93082e-06 
-0.502842 -5.19865 9.26624e-07 
-0.284107 -5.18929 1.75767e-07 
-0.0644894 -5.19138 4.06569e-08 
0.142571 -5.18965 1.47109e-07 
0.351896 -5.20026 -2.26491e-07 
0.575092 -5.1924 1.37057e-06 
0.782741 -5.18613 2.59273e-06 
0.991457 -5.18335 -3.42052e-06 
1.21462 -5.20753 2.73925e-06 
1.41717 -5.13595 -6.63481e-08 
1.68967 -5.1764 4.43847e-07 
1.89448 -5.18293 5.35781e-06 
2.10169 -5.1935 1.1597e-05 
2.28876 -5.10089 -6.65445e-06 
2.45908 -5.22034 4.25729e-06 
2.67177 -5.25439 -7.52594e-06 
2.87805 -5.16057 -1.73937e-06 
3.11816 -5.21377 -3.094e-06 
3.34708 -5.10738 -5.34561e-06 
3.56489 -5.22503 -3.2563e-06 
3.79998 -5.24157 -7.08161e-06 
4.01446 -5.16068 1.09347e-05 
4.23833 -5.20805 -1.70662e-05 
4.47052 -5.24271 -2.84803e-05 
4.65755 -5.32044 4.15056e-06 
4.79408 -5.19775 1.42303e-06 
-4.99359 -5.00637 -3.68849e-06 
-4.76775 -4.98257 7.4524e-06 
-4.55163 -4.95546 4.79007e-06 
-4.32801 -4.8754 1.48644e-05 
-4.1346 -5.06824 1.43614e-05 
-3.91203 -4.97479 -1.39983e-05 
-3.68365 -4.92072 -5.42173e-06 
-3.45981 -4.97619 -1.80592e-07 
-3.24815 -4.92329 2.30385e-06 
-3.05548 -4.99627 2.5387e-06 
-2.8609 -4.91649 1.09644e-06 
-2.65825 -4.97492 -5.41716e-06 
-2.4485 -4.95721 1.07167e-06 
-2.19948 -4.93374 3.08558e-07 
-1.97877 -4.96776 7.68683e-07 
-1.76912 -5.00638 5.41334e-06 
[...]
POINT_DATA 3402 
VECTORS vectors float
0.0854633 -0.0202077 0.996299 
0.0869009 -0.0174171 0.996115 
0.0874502 -0.0139383 0.996236 
0.0871955 -0.0116314 0.996284 
0.088871 -0.0100504 0.996153 
0.0883748 -0.00691315 0.996233 
0.089195 -0.00398379 0.996177 
0.0894901 -0.00111696 0.996164 
0.0892193 0.00145321 0.996185 
0.0895055 0.00344426 0.996154 
0.0888286 0.00666616 0.9962 
0.0888512 0.00998664 0.996168 
0.0881151 0.0123584 0.996199 
0.0876357 0.0151849 0.996199 
0.0862712 0.0186049 0.996254 
0.0854446 0.0196489 0.996301 
0.0820966 -0.029912 0.996329 
0.0836964 -0.0283839 0.996243 
0.0843474 -0.0251951 0.996278 
0.0860024 -0.0228097 0.996194 
0.0656599 -0.0156208 0.998337 
0.064617 -0.0131224 0.998589 
0.0660529 -0.0107651 0.99839 
0.0677271 -0.00905261 0.998265 
0.0651749 -0.00686903 0.998517 
0.0658611 -0.00456593 0.998473 
0.0643682 -0.0024395 0.998615 
0.0646877 -0.000272777 0.998581 
0.0657554 0.0015998 0.998396 
0.0635285 0.00325583 0.998774 
0.0641848 0.00548387 0.998505 
0.064019 0.0075039 0.99859 
0.0658267 0.00976715 0.998425 
0.0652379 0.0120768 0.99844 
0.0679457 0.0151145 0.998169 
0.0689076 0.0170545 0.998044 
0.0847265 0.0218667 0.996327 
0.0838358 0.0267111 0.996279 
0.0834719 0.0278814 0.996265 
0.0791253 -0.0352185 0.996389 
0.0817286 -0.0333483 0.996247 
0.0656997 -0.024833 0.998104 
0.0649204 -0.022161 0.998251 
0.0647813 -0.0198009 0.998332 
0.0645047 -0.0172713 0.998406 
0.0683789 -0.0162673 0.998201 
0.0682941 -0.0141897 0.998235 
0.0700381 -0.0121686 0.998132 
0.0684624 -0.00951435 0.99821 
0.0705994 -0.00753945 0.998233 
0.0701871 -0.00508137 0.998106 
0.0718131 -0.00304393 0.998175 
0.0721986 -0.000741938 0.998058 
0.0710675 0.00160937 0.998158 
0.0720544 0.00405268 0.997951 
0.0714046 0.00622532 0.998199 
0.0697864 0.00821597 0.998296 
0.0682378 0.0101886 0.998307 
0.0677346 0.012604 0.998313 
0.0656256 0.0148183 0.998358 
0.0658641 0.0173061 0.998373 
0.062355 0.018115 0.998674 
0.0668591 0.0218892 0.997986 
0.0657929 0.0229765 0.998144 
0.0823518 0.0298727 0.996313 
0.0802465 0.0349386 0.996313 
0.0786086 0.0367375 0.996341 
0.076229 -0.0404387 0.996414 
0.0782808 -0.0379512 0.996356 
0.0665677 -0.0307856 0.997822 
0.062947 -0.0264438 0.998296 
0.0629049 -0.0242121 0.998425 
0.0639742 -0.0221507 0.998402 
0.0665067 -0.0205206 0.998255 
0.0679563 -0.0185593 0.998188 
0.0820042 -0.0204064 0.997013 
0.0828394 -0.0177413 0.996998 
0.0834345 -0.0151159 0.996994 
0.0828715 -0.012054 0.997078 
0.0840253 -0.00937084 0.997031 
0.0836117 -0.00639996 0.997078 
0.0839141 -0.00379269 0.997092 
0.0838262 -0.00107344 0.997098 
0.083387 0.00178305 0.997128 
0.0834075 0.00456123 0.997233 
0.0834727 0.00735927 0.996987 
0.0835328 0.0102329 0.99707 
0.0826808 0.0128922 0.996986 
0.0821125 0.0156152 0.997205 
0.0801435 0.0181089 0.997204 
0.0802113 0.0212449 0.997144 
0.068106 0.0203625 0.99812 
0.0644978 0.0212522 0.9984 
0.0647379 0.0235055 0.998303 
0.0607443 0.0241486 0.998552 
0.0651113 0.029207 0.997963 
0.0683371 0.0324451 0.997586 
0.0773512 0.0371844 0.996429 
0.0763173 0.0419914 0.996334 
0.0734807 -0.0451726 0.996411 
0.0750706 -0.0433513 0.996376 
0.0646343 -0.0356403 0.997769 
0.0605983 -0.0305513 0.998335 
0.0602176 -0.0280449 0.998504 
0.0613524 -0.0261653 0.998477 
0.0753013 -0.0303726 0.997284 
0.0781295 -0.028346 0.997126 
0.0794906 -0.0257845 0.997093 
0.0813792 -0.0233287 0.997001 
0.0790418 -0.0204919 0.997286 
0.0785619 -0.0173933 0.997384 
0.0777153 -0.0144366 0.997506 
0.0796024 -0.0119513 0.997389 
0.0769029 -0.00890992 0.997646 
0.0779597 -0.00637184 0.997581 
0.075946 -0.00368311 0.997744 
0.0753187 -0.00101413 0.997824 
0.076598 0.00162679 0.997714 
0.0755096 0.00432584 0.997791 
0.0762053 0.00710077 0.997716 
0.0766397 0.0098408 0.997656 
0.0784979 0.0128239 0.997468 
0.0774865 0.0154993 0.99751 
0.080089 0.0186595 0.997238 
0.0786661 0.0213214 0.9973 
0.0814883 0.0245897 0.996867 
0.0783216 0.026418 0.997263 
0.0776458 0.0292873 0.997131 
0.0645419 0.0260595 0.99832 
0.0608061 0.0268834 0.998422 
0.0584254 0.0286429 0.998604 
0.0634343 0.0331321 0.997982 
0.0615854 0.0356138 0.998024 
0.0745481 0.0438708 0.99638 
0.0713065 -0.0482796 0.996413 
0.0623862 -0.0404049 0.997729 
0.0591399 -0.0351266 0.998236 
0.0572066 -0.0318869 0.998574 
0.0594299 -0.0306445 0.998462 
0.0718092 -0.0353121 0.997384 
0.0753178 -0.0338477 0.997172 
0.0776871 -0.0323786 0.997065 
0.0777061 -0.0291935 0.997169 
0.0774136 -0.0261114 0.997283 
0.0775117 -0.0231673 0.997353 
0.0660945 -0.0177449 0.998296 
0.0656978 -0.0151159 0.998364 
0.0633074 -0.0121536 0.998564 
0.0649253 -0.0100348 0.998489 
0.0608666 -0.00742463 0.998765 
0.0624443 -0.00545663 0.998689 
0.0604554 -0.00320218 0.99872 
0.0599016 -0.00106333 0.998856 
0.0610372 0.00120996 0.998891 
0.0606985 0.00355148 0.998706 
0.0611226 0.00589372 0.998861 
0.0620944 0.00825285 0.998585 
0.0645431 0.0109026 0.998593 
0.0633254 0.0130686 0.998452 
0.066757 0.0162117 0.998374 
0.0665343 0.0189288 0.998242 
0.0762112 0.0240416 0.99743 
0.0776003 0.0273045 0.997227 
0.0772958 0.0303309 0.997158 
0.0777108 0.0327735 0.997024 
0.0707483 0.0322903 0.997558 
0.0695228 0.0351029 0.997548 
0.0586167 0.0317652 0.998482 
0.056088 0.0331965 0.998593 
0.063628 0.0392465 0.997677 
0.0720383 0.0455411 0.9965 
0.0711845 0.0499758 0.996338 
0.0667698 -0.0524327 0.996468 
0.0686466 -0.0499062 0.99648 
0.0574897 -0.0404595 0.998067 
0.0550649 -0.0363314 0.998538 
0.0566369 -0.0346234 0.998504 
0.0672516 -0.0395611 0.997541 
0.0711465 -0.0387686 0.997297 
0.0753195 -0.0384659 0.997028 
0.074861 -0.0347977 0.997207 
0.0667581 -0.0288133 0.997987 
0.0658351 -0.0256652 0.998139 
0.0646018 -0.022515 0.998301 
0.0637467 -0.0196433 0.998419 
0.0521852 -0.0146485 0.999158 
0.0525115 -0.0127123 0.999062 
0.0511858 -0.0105029 0.999365 
0.0510096 -0.00844359 0.999298 
0.0489708 -0.0061837 0.999407 
0.0485206 -0.00414949 0.999546 
0.047241 -0.00226193 0.999515 
0.0474151 -0.00044015 0.999511 
0.0481906 0.0014121 0.999475 
0.048033 0.00329976 0.999473 
0.0481324 0.00516174 0.999459 
0.049565 0.00719954 0.999366 
0.0508992 0.00921381 0.999282 
0.0513852 0.0114172 0.999233 
0.0532682 0.0137384 0.999111 
0.052908 0.0157044 0.999002 
0.0625652 0.0205252 0.99857 
0.0653436 0.0239175 0.998102 
0.0645077 0.0262766 0.998199 
0.0744659 0.0325516 0.997312 
0.076681 0.0363033 0.996993 
0.0757376 0.0395589 0.996939 
0.0696088 0.038797 0.997399 
0.0680163 0.041208 0.997412 
0.0546513 0.0347316 0.998624 
0.0567745 0.0385728 0.998253 
0.0596459 0.0441818 0.997678 
0.067516 0.0512828 0.996473 
0.065166 -0.0551154 0.996441 
0.05559 -0.0452311 0.997923 
0.06198 -0.0470577 0.99734 
0.052951 -0.038309 0.998578 
0.0616533 -0.0428144 0.997772 
0.0679386 -0.0438067 0.997306 
0.0723308 -0.0440785 0.997008 
0.0724655 -0.0407711 0.997147 
0.0654431 -0.034668 0.997885 
0.0642939 -0.0311858 0.99808 
0.0549105 -0.0247623 0.998715 
0.0522265 -0.0212172 0.999146 
0.0513631 -0.0187337 0.999125 
0.0507846 -0.01649 0.999204 
0.0429448 -0.0124001 0.999607 
0.0426231 -0.0104933 0.999747 
0.0415344 -0.00867539 0.999601 
0.0420801 -0.00717971 0.999699 
0.0399408 -0.00543051 0.999802 
0.0404274 -0.00398298 0.999681 
0.0393321 -0.00232516 0.999834 
0.0391497 -0.000718063 0.999846 
0.0394741 0.000855714 0.999834 
0.0398142 0.0023706 0.999818 
0.039621 0.00392521 0.999818 
0.0403768 0.00556372 0.999774 
0.0408909 0.00717086 0.999741 
0.042543 0.00906162 0.999655 
0.0421959 0.0108441 0.999656 
0.0424742 0.0126362 0.999622 
0.0490035 0.0165925 0.999263 
0.0519094 0.0195189 0.999189 
0.0527327 0.0223034 0.998977 
0.0622018 0.0284608 0.998285 
0.0684867 0.0338769 0.997702 
0.0671131 0.0363541 0.997705 
0.0732627 0.0420293 0.997027 
0.0718465 0.0449721 0.997 
0.0648289 0.0425481 0.997574 
0.0554437 0.0384067 0.99842 
0.0524136 0.039234 0.998561 
0.0595251 0.045963 0.997567 
0.0679422 0.0524776 0.996394 
0.06219 -0.0573606 0.996462 
0.0569105 -0.0505078 0.997488 
0.0506022 -0.0429297 0.998507 
0.0518901 -0.0404406 0.998547 
0.0617576 -0.0465456 0.997589 
0.0692823 -0.0499593 0.996934 
0.070271 -0.0472704 0.997006 
0.0647869 -0.0412851 0.997671 
0.0622534 -0.0365939 0.99802 
0.0535301 -0.0295127 0.998757 
0.0512348 -0.0257591 0.999077 
0.0441793 -0.020333 0.999429 
0.0418262 -0.0174683 0.999478 
0.0408326 -0.0152534 0.999661 
0.0408431 -0.0135389 0.999695 
0.0356164 -0.010865 0.999902 
0.0358886 -0.00942057 0.999805 
0.0342171 -0.00756038 1.00008 
0.034757 -0.00622097 0.999978 
0.0330294 -0.00454002 1.00003 
0.0328662 -0.00315081 1.00016 
0.0322953 -0.00171427 1.00008 
0.0319834 -0.000327408 1.0001 
0.0320857 0.000956048 1.0001 
0.032775 0.00227888 1.00007 
0.0330396 0.00368408 1.00005 
0.0333774 0.00502832 1.00003 
0.0342425 0.00652964 0.999989 
0.0360711 0.00836497 0.999803 
0.0351883 0.00968907 1.00002 
0.0380268 0.0124069 0.99979 
0.0403826 0.0146652 0.999682 
0.0424409 0.0171327 0.999456 
0.041266 0.0183984 0.999577 
0.0488888 0.0229459 0.999156 
0.0551986 0.0279754 0.998707 
0.0548642 0.030497 0.99865 
0.0637711 0.0380563 0.997866 
0.0643153 0.0420488 0.99767 
0.0707212 0.0482431 0.996923 
0.063793 0.0461585 0.99748 
0.057287 0.0446349 0.997973 
0.0505891 0.0411514 0.998589 
0.0563824 0.0464972 0.997818 
0.0642259 0.0556678 0.996525 
0.0625783 0.0601429 0.996324 
0.0603017 -0.0601797 0.996344 
0.0533061 -0.0515693 0.997592 
0.0488586 -0.0448387 0.998495 
0.0561389 -0.0496353 0.997786 
0.0564711 -0.045983 0.997952 
0.067066 -0.0528296 0.996931 
0.0635177 -0.0476384 0.997459 
0.0603283 -0.0419944 0.997923 
0.051851 -0.0342206 0.998696 
0.0506178 -0.0309356 0.998866 
0.0428134 -0.0248938 0.999393 
0.0416022 -0.0221905 0.999396 
0.0380831 -0.0187509 0.999702 
0.0349405 -0.0155721 0.999863 
0.034415 -0.013746 1.00001 
0.0337943 -0.0119907 0.999945 
0.0286468 -0.00912895 1.00014 
0.0283195 -0.00767008 1.00017 
0.0261036 -0.00591199 1.00024 
0.0262975 -0.00477872 1.00024 
0.0234979 -0.00333025 1.00032 
0.023992 -0.00242749 1.00022 
0.0236495 -0.00143319 1.00032 
0.0233227 -0.000388296 1.00033 
0.0227126 0.000625837 1.00035 
0.0235564 0.00161452 1.00033 
0.0247489 0.00269095 1.0003 
0.0246966 0.00378388 1.0003 
0.0257724 0.00499826 1.00035 
0.0288927 0.00673993 1.00016 
0.0279027 0.00784794 1.00017 
0.032339 0.0104551 0.999907 
0.032787 0.0122117 0.999971 
0.034685 0.0143296 0.999968 
0.0344777 0.0158755 0.999772 
0.038805 0.0193311 0.999745 
0.0440419 0.0231716 0.999374 
0.0447142 0.0258517 0.999275 
0.0527777 0.0324533 0.998705 
0.0517065 0.0345404 0.998695 
0.0635763 0.0449799 0.99759 
0.0679744 0.050689 0.996999 
0.0663109 0.0527612 0.996998 
0.0607851 0.0507246 0.997443 
0.0501062 0.0436306 0.998494 
0.0493601 0.0459639 0.998377 
0.0516034 0.0524657 0.997547 
0.0595109 0.0608936 0.996215 
0.0572166 -0.0625007 0.996358 
0.0522893 -0.0545257 0.997358 
0.0481178 -0.0482472 0.998344 
0.051754 -0.049418 0.998048 
0.0621077 -0.0574619 0.996992 
0.0648953 -0.0550625 0.99695 
0.0610758 -0.0497785 0.997506 
0.0517091 -0.0406536 0.998455 
0.0501821 -0.0367726 0.99869 
0.0429363 -0.029864 0.999152 
0.040055 -0.0257027 0.999568 
0.0348759 -0.0210818 0.999661 
0.0339878 -0.0188779 0.999937 
0.0319036 -0.0161568 0.999952 
0.0287653 -0.0132977 1.00009 
0.0274437 -0.0114496 1.00014 
0.0263189 -0.00973222 1.00022 
0.0196652 -0.00658494 1.00037 
0.019793 -0.00566887 1.00038 
0.017082 -0.0041163 1.00033 
0.0165232 -0.00319805 1.00055 
0.0142393 -0.00209769 1.00039 
0.0137815 -0.00138311 1.0007 
0.014175 -0.000780959 1.0004 
0.0139365 -0.000151246 1.0005 
0.0131507 0.000430567 1.00051 
0.0139469 0.00105539 1.0005 
0.0155862 0.00185396 1.00047 
0.0150019 0.00243026 1.00048 
0.0166394 0.00342868 1.00035 
0.0199033 0.00493132 1.00048 
0.0201445 0.00608226 1.00037 
0.0256132 0.00879196 1.00033 
0.0261673 0.0103418 1.00019 
0.0280469 0.0123036 1.00012 
0.0307501 0.0153333 0.999988 
0.0327688 0.0176456 0.999807 
0.0364541 0.0206724 0.999716 
0.0349766 0.021633 0.999753 
0.0416005 0.0263551 0.999401 
0.0403788 0.0279129 0.99942 
0.0506373 0.0366003 0.99867 
0.0573877 0.0440883 0.997993 
0.0594365 0.0490154 0.997662 
0.0639162 0.0555011 0.997013 
0.058921 0.0532295 0.997426 
0.0488395 0.0461011 0.998513 
0.0481651 0.0484456 0.998214 
0.0537256 0.055247 0.997164 
0.0585919 0.0621707 0.996345 
0.0553398 -0.0650145 0.996416 
0.050153 -0.0559148 0.99748 
0.0456967 -0.0497377 0.998368 
0.0485889 -0.0508308 0.998137 
0.0596879 -0.0596329 0.996995 
0.0588694 -0.056889 0.997247 
0.0609628 -0.0537523 0.997302 
0.0505726 -0.0434304 0.99849 
0.0421887 -0.0345614 0.999027 
0.0394979 -0.0301066 0.999465 
0.034868 -0.0246915 0.999679 
0.0323273 -0.0214649 0.999835 
0.0290154 -0.01805 1 
0.0282748 -0.0160966 1.00006 
0.0256674 -0.013415 1.00017 
0.0211879 -0.0102384 1.00031 
0.0184554 -0.0081084 1.0003 
0.0176081 -0.00689589 1.0005 
0.0116122 -0.00409681 1.00042 
0.0110542 -0.00328985 1.0006 
0.00906716 -0.00223533 1.00055 
0.00838351 -0.0016363 1.00054 
0.00692045 -0.00102139 1.00057 
0.00647829 -0.000646357 1.00046 
0.00677273 -0.000337316 1.00066 
0.0065995 -3.09513e-05 1.00057 
0.00612373 0.000245886 1.00057 
0.00685627 0.000596519 1.00056 
0.00759656 0.00099452 1.00056 
0.00775007 0.00139249 1.00055 
0.00934033 0.00211472 1.00054 
0.0122561 0.00332415 1.0004 
0.0104335 0.00332193 1.00052 
0.0161455 0.00571017 1.00034 
0.0183482 0.00731667 1.0004 
0.019358 0.00882558 1.00045 
0.0246814 0.0122391 1.00012 
0.0257333 0.014309 1.00025 
0.0295386 0.0176331 0.999998 
0.0290092 0.0189588 0.999987 
0.0331116 0.0225845 0.999784 
0.0400461 0.0301337 0.999252 
0.0461055 0.0366836 0.998991 
0.0474955 0.0404921 0.998572 
0.0554376 0.0495638 0.997857 
0.0616199 0.0579641 0.99702 
0.0584195 0.0572242 0.997228 
0.0489956 0.0504829 0.998154 
0.0447631 0.0483359 0.998528 
0.0476752 0.0526644 0.997991 
0.0559702 0.0666923 0.996334 
0.0530302 -0.0675886 0.996424 
0.0467733 -0.0563964 0.997797 
0.0428247 -0.0504782 0.998511 
0.0478034 -0.0541357 0.997993 
0.0576766 -0.0623724 0.99695 
0.0577611 -0.0597008 0.997144 
0.0473538 -0.0477692 0.99846 
0.0514017 -0.0478643 0.998058 
0.0417643 -0.0388195 0.998983 
0.0384464 -0.0337702 0.999289 
0.0331891 -0.0272916 0.999666 
0.0314788 -0.0240626 0.999799 
0.0280748 -0.0202779 0.999978 
0.0258907 -0.0174853 1.0001 
0.0221652 -0.0137502 1.00026 
0.0204937 -0.0116881 1.00032 
0.0157205 -0.0083194 1.00044 
0.0115597 -0.0055909 1.0005 
0.00942345 -0.00406689 1.00053 
0.00712881 -0.00278181 1.00055 
0.00543265 -0.00179929 1.00055 
0.00433681 -0.00120438 1.00056 
0.00358515 -0.000800765 1.00056 
0.0029312 -0.00050175 1.00057 
0.00246361 -0.000300459 1.00057 
0.00252023 -0.000172446 1.00057 
0.00247129 -4.83362e-05 1.00057 
0.00233997 6.64086e-05 1.00057 
0.00253925 0.000199826 1.00057 
0.00268785 0.000344316 1.00057 
0.00326684 0.000562934 1.00057 
0.00389543 0.00088572 1.00065 
0.00542984 0.00149719 1.00056 
0.00469899 0.00156478 1.00056 
0.00823401 0.00311605 1.00054 
0.0110313 0.0047314 1.00051 
0.0121747 0.00594372 1.0005 
0.0179101 0.00943967 1.00039 
0.0177689 0.0103543 1.00038 
0.0230913 0.0143072 1.00022 
0.0233359 0.0158918 1.0001 
0.0276085 0.0199642 1.00011 
0.0323655 0.0242451 0.999781 
0.0348754 0.0283801 0.999593 
0.0370074 0.0319446 0.999412 
0.0433635 0.0398417 0.998995 
0.0519249 0.0499424 0.997924 
0.0579935 0.0588323 0.997188 
0.0574307 0.0610912 0.997084 
0.0508752 0.0566515 0.997694 
0.0439355 0.051592 0.998499 
0.0433183 0.0537803 0.998189 
0.0508092 0.0670439 0.99654 
0.050023 -0.0697012 0.996432 
0.0439161 -0.0582712 0.997846 
0.0406143 -0.051846 0.998546 
0.0483829 -0.0592137 0.997661 
0.055409 -0.0646449 0.996946 
0.0539486 -0.0601232 0.997344 
0.046043 -0.0495979 0.998316 
0.0381796 -0.037907 0.999051 
0.0319245 -0.0301024 0.999624 
0.0301418 -0.0266458 0.99977 
0.0272732 -0.0225705 0.999946 
0.0250298 -0.0195642 1.00007 
0.0209785 -0.0154124 1.00024 
0.018426 -0.0124838 1.00035 
0.0134404 -0.0084072 1.00047 
0.0109874 -0.00636897 1.0005 
0.00716107 -0.0038215 1.00055 
0.00506553 -0.00243074 1.00055 
0.00296818 -0.00131221 1.00056 
0.00288118 -0.00110267 1.00056 
0.00177953 -0.000598722 1.00056 
0.00140359 -0.000392372 1.00056 
0.00100305 -0.000227765 1.00056 
0.000752163 -0.00013113 1.00057 
0.000648851 -7.63735e-05 1.00057 
0.000574382 -3.46231e-05 1.00057 
0.000559626 -1.67326e-06 1.00057 
0.000630676 3.55315e-05 1.00057 
0.000652324 7.23396e-05 1.00057 
0.000726485 0.000126243 1.00057 
0.00124567 0.000259032 1.00048 
0.00101022 0.000261807 1.00056 
0.00202275 0.000595691 1.00057 
0.0017381 0.000620901 1.00057 
0.00359747 0.00143977 1.00066 
0.0054344 0.00247516 1.00046 
0.00556057 0.00285372 1.00056 
0.00989232 0.00546005 1.00052 
0.0107495 0.00659735 1.0005 
0.0160645 0.0105379 1.00049 
0.0191936 0.0140081 1.00031 
0.0235767 0.0182912 1.00005 
0.0284288 0.0227566 0.999938 
0.0285779 0.0246818 0.999864 
0.0326645 0.0298273 0.999628 
0.0366321 0.0355252 0.999294 
0.0442421 0.0446275 0.998769 
0.0490817 0.0523011 0.998057 
0.0545856 0.0611756 0.997245 
0.0547473 0.0643287 0.997016 
0.0490727 0.0605596 0.997443 
0.0399151 0.0512153 0.998611 
0.046625 0.0624273 0.997318 
0.0503614 0.0684147 0.996463 
0.0479736 -0.0709119 0.996439 
0.0423956 -0.0609955 0.997711 
0.0383055 -0.0530989 0.998574 
0.0458857 -0.0611026 0.997663 
0.052583 -0.0670205 0.996952 
0.0512394 -0.0622501 0.997359 
0.0442556 -0.0517154 0.998302 
0.0363404 -0.041363 0.9991 
0.0356011 -0.0380233 0.99925 
0.0304148 -0.0309567 0.999639 
0.0260941 -0.0251328 0.999915 
0.0248653 -0.0223007 1.00002 
0.0207161 -0.0176967 1.00021 
0.0176896 -0.0141538 1.00033 
0.0131278 -0.00974403 1.00045 
0.0101533 -0.00695503 1.00051 
0.00583295 -0.00375294 1.00055 
0.00453076 -0.00267424 1.00056 
0.00271058 -0.00145573 1.00056 
0.00139579 -0.000704063 1.00056 
0.000932815 -0.000421114 1.00056 
0.000636813 -0.000262639 1.00056 
0.000304519 -0.00012225 1.00056 
9.63843e-05 -5.07103e-05 1.00056 
-0.000106285 4.75875e-06 1.00057 
-0.000216076 1.72794e-05 1.00057 
-0.000389456 2.54005e-05 1.00057 
-0.000466283 1.21103e-05 1.00057 
-0.00036482 -4.84618e-06 1.00057 
-0.000332158 -1.93154e-05 1.00057 
-0.000289184 -2.75137e-05 1.00066 
6.22885e-05 3.16557e-05 1.00057 
8.64233e-05 4.12954e-05 1.00057 
0.000488648 0.00017271 1.00056 
0.000272322 0.000119596 1.00057 
0.00107516 0.000457581 1.00047 
0.00193327 0.000919355 1.00067 
0.00229732 0.00124621 1.00057 
0.00481012 0.00281704 1.00056 
0.00493207 0.00319855 1.00055 
0.00888946 0.00608095 1.00043 
0.0126951 0.00929846 1.00046 
0.0166488 0.0134539 1.00045 
0.0229119 0.0193976 1.00014 
0.0254595 0.0234646 1.00009 
0.0284912 0.0276207 0.999699 
0.0290211 0.0299826 0.999722 
0.0355255 0.0372552 0.999176 
0.0388044 0.0432188 0.998936 
0.0446778 0.051961 0.998283 
0.0510609 0.0621724 0.99739 
0.0521537 0.0670687 0.996981 
0.0462661 0.0618919 0.99759 
0.0379267 0.0522185 0.998639 
0.040932 0.057522 0.998035 
0.0489029 0.0725218 0.996297 
0.0461194 -0.0730555 0.996395 
0.0403579 -0.0618722 0.997757 
0.0359416 -0.0540902 0.998613 
0.0434559 -0.0628609 0.997665 
0.0500703 -0.0694035 0.996918 
0.0471245 -0.0626615 0.997545 
0.0414735 -0.0527532 0.998371 
0.0344387 -0.0424041 0.999114 
0.0286104 -0.0336841 0.999513 
0.0271053 -0.0298919 0.999879 
0.0250838 -0.0260827 0.999922 
0.0206317 -0.0200543 1.00017 
0.017103 -0.0157451 1.00032 
0.0121514 -0.0105054 1.00045 
0.0093387 -0.0075097 1.00051 
0.00597967 -0.0044441 1.00055 
0.0033803 -0.00236036 1.00056 
0.00177877 -0.0011463 1.00056 
0.00134889 -0.000796615 1.00056 
0.000431428 -0.00025203 1.00056 
0.000245933 -0.000139063 1.00055 
-9.04505e-05 6.67069e-06 1.00056 
-0.000268402 7.16916e-05 1.00056 
-0.000596431 0.0001491 1.00057 
-0.000906947 0.000197471 1.00055 
-0.00116886 0.000194337 1.00057 
-0.00154977 0.000176776 1.00057 
-0.0019287 0.000116873 1.00057 
-0.00191851 5.7945e-06 1.00057 
-0.00169377 -7.9414e-05 1.00057 
-0.00156781 -0.000169357 1.00058 
-0.00148471 -0.00024554 1.00047 
-0.000707608 -0.000130001 1.00057 
-0.000906252 -0.000220735 1.00057 
-0.000307505 -7.59845e-05 1.00057 
-0.000343218 -0.000112842 1.00057 
0.000176491 9.61544e-05 1.00066 
0.000582356 0.000315059 1.00047 