# vtk DataFile Version 3.0 
Exported using Morpho https://github.com/Morpho-lang/morpho 
ASCII 
DATASET UNSTRUCTURED_GRID 

POINTS 3402 float 
-1.58215 -6.89179 7.08729e-05 
-1.37961 -6.93518 -5.07767e-05 
-1.17592 -6.9726 3.01121e-05 
-0.971234 -7.00405 3.41936e-05 
-0.73208 -7.03307 -8.35415e-05 
-0.526594 -7.05143 9.58643e-05 
-0.301387 -7.06464 -6.5286e-05 
-0.0954047 -7.07042 6.56577e-05 
0.109211 -7.07022 -2.24803e-05 
0.329909 -7.06337 -3.63333e-05 
0.531284 -7.05108 5.25794e-05 
0.740453 -7.03219 -8.5766e-05 
0.945708 -7.00754 6.49934e-05 
1.17498 -6.97276 -3.03956e-05 
1.3812 -6.93486 4.77268e-05 
1.61066 -6.88518 -2.63428e-05 
-2.42549 -6.64206 -6.01598e-05 
-2.21828 -6.71411 3.43332e-05 
-2.01087 -6.77912 2.55443e-05 
-1.80707 -6.83626 -7.34999e-05 
-1.5716 -6.67749 -3.32557e-05 
-1.34198 -6.70354 8.08078e-06 
-1.13158 -6.73788 1.41716e-05 
-0.906026 -6.80297 -5.17892e-06 
-0.688083 -6.79227 -6.4031e-07 
-0.468108 -6.83067 -2.75091e-06 
-0.257871 -6.81873 2.41668e-06 
-0.0490809 -6.8209 3.3832e-06 
0.168862 -6.83844 -3.73742e-05 
0.378026 -6.80695 3.21751e-05 
0.587389 -6.80436 2.6473e-06 
0.795603 -6.78013 1.28017e-05 
1.01574 -6.7772 1.63645e-05 
1.23025 -6.72042 -1.10805e-05 
1.45027 -6.70287 -2.81015e-05 
1.68942 -6.66221 8.09356e-05 
1.85615 -6.8231 1.06979e-05 
2.04404 -6.76919 -3.85201e-05 
2.27931 -6.69363 3.43927e-05 
-2.85338 -6.46979 -5.42029e-05 
-2.65654 -6.55307 5.54831e-05 
-2.44517 -6.42598 -2.78394e-05 
-2.21056 -6.48389 -2.29212e-05 
-1.99544 -6.54898 5.1135e-05 
-1.78055 -6.60228 -3.11515e-05 
-1.54638 -6.44858 9.30509e-06 
-1.33838 -6.48576 8.83057e-06 
-1.11777 -6.50617 -5.95077e-06 
-0.910602 -6.57777 -2.00658e-05 
-0.702931 -6.55302 -1.54878e-05 
-0.488963 -6.59563 -3.51324e-05 
-0.274176 -6.57703 -9.82155e-06 
-0.064133 -6.57638 -7.68799e-06 
0.147636 -6.59919 1.20383e-05 
0.360583 -6.56951 2.12247e-05 
0.572847 -6.56096 2.19217e-06 
0.788623 -6.54894 1.5358e-06 
1.0087 -6.54585 3.36181e-05 
1.22784 -6.49148 1.74283e-05 
1.46215 -6.49156 -1.29225e-05 
1.67254 -6.4258 -1.2482e-05 
1.88746 -6.5481 -1.75631e-05 
2.10945 -6.54039 -8.34635e-05 
2.33218 -6.45655 0.000123309 
2.50225 -6.61353 -1.94215e-05 
2.67751 -6.54453 -5.05929e-05 
2.91074 -6.44419 6.26771e-05 
-3.2822 -6.26316 -1.37464e-05 
-3.09672 -6.35691 2.86813e-05 
-2.88881 -6.25305 -2.66685e-06 
-2.64963 -6.30835 6.77887e-07 
-2.39974 -6.21135 2.31292e-05 
-2.18906 -6.27522 -2.37769e-05 
-1.96538 -6.32651 -8.49023e-06 
-1.75394 -6.37509 3.87177e-06 
-1.55058 -6.21672 1.66104e-05 
-1.33788 -6.25195 1.72514e-05 
-1.12874 -6.28173 -4.46675e-06 
-0.909256 -6.33946 -5.59364e-06 
-0.694807 -6.31924 3.69969e-06 
-0.485291 -6.36121 -1.07367e-05 
-0.278473 -6.33483 6.62567e-06 
-0.0704046 -6.33481 1.0813e-05 
0.139115 -6.35937 9.21573e-06 
0.346879 -6.33079 -1.18042e-05 
0.5574 -6.32258 -1.9432e-05 
0.767491 -6.31466 -1.65212e-05 
0.980162 -6.32288 -1.45988e-05 
1.19028 -6.26588 -2.85351e-06 
1.41156 -6.27582 -1.76676e-05 
1.6322 -6.21267 -8.25041e-06 
1.88124 -6.31102 -3.18747e-06 
2.09058 -6.32287 -4.35805e-06 
2.28254 -6.22624 6.58569e-06 
2.51336 -6.32993 1.05258e-05 
2.73107 -6.31359 -7.44727e-05 
2.97883 -6.22054 3.03266e-05 
3.16358 -6.3239 3.45947e-05 
3.37692 -6.2126 -7.63294e-05 
-3.71345 -6.0175 -9.86629e-06 
-3.52636 -6.12901 -1.05075e-05 
-3.31144 -6.04652 1.90301e-05 
-3.07503 -6.10156 -2.16755e-06 
-2.8306 -6.0354 7.15963e-06 
-2.62483 -6.10345 5.20568e-06 
-2.42579 -5.98574 2.88509e-05 
-2.20444 -6.04063 2.05421e-05 
-1.99207 -6.10171 1.18838e-05 
-1.76963 -6.14234 2.64706e-05 
-1.55164 -5.99793 1.201e-06 
-1.32969 -6.02605 1.03668e-06 
-1.11762 -6.04919 -3.90678e-06 
-0.9128 -6.11333 4.57416e-06 
-0.704462 -6.08503 8.52922e-06 
-0.493288 -6.12143 1.65733e-05 
-0.284793 -6.09762 1.23677e-06 
-0.0757009 -6.09561 2.67958e-06 
0.134512 -6.11965 5.52688e-06 
0.34457 -6.09401 1.19059e-06 
0.558154 -6.08814 -3.1362e-06 
0.772303 -6.08403 -4.01856e-06 
0.986057 -6.08873 -8.41099e-06 
1.19955 -6.03366 -3.01903e-06 
1.40837 -6.05452 -1.10672e-05 
1.6178 -5.98374 -4.27399e-07 
1.83556 -6.0936 -3.07708e-06 
2.05877 -6.08536 -8.60806e-06 
2.27551 -6.00604 -1.64138e-05 
2.49637 -6.10795 2.79646e-05 
2.73741 -6.11294 9.88209e-06 
2.96359 -6.01274 3.37505e-05 
3.20188 -6.07705 -2.37407e-06 
3.40895 -5.95709 -1.90522e-05 
3.5803 -6.09766 3.3143e-05 
-3.94441 -5.8687 -1.7065e-05 
-3.72668 -5.79835 1.55488e-06 
-3.49882 -5.88299 1.04623e-05 
-3.26505 -5.82816 -2.16739e-06 
-3.05326 -5.89447 -1.90979e-05 
-2.85514 -5.80263 2.88349e-06 
-2.63915 -5.86131 9.54738e-06 
-2.4161 -5.7657 -4.29657e-06 
-2.20043 -5.81959 1.06492e-05 
-1.98531 -5.87325 5.9496e-06 
-1.77411 -5.92144 1.84152e-06 
-1.55942 -5.78104 -3.55031e-07 
-1.33719 -5.8113 -7.06894e-06 
-1.11352 -5.82182 -1.28294e-08 
-0.902835 -5.87882 -3.22296e-06 
-0.701429 -5.84239 -1.56603e-06 
-0.502833 -5.88662 -1.61271e-07 
-0.296626 -5.86198 6.93088e-06 
-0.0884098 -5.86035 3.23158e-06 
0.123469 -5.88373 -4.93501e-06 
0.339038 -5.86618 4.68563e-07 
0.555045 -5.85968 8.21603e-06 
0.766839 -5.8565 -1.59626e-06 
0.981392 -5.86271 7.63248e-06 
1.19731 -5.81189 -3.69716e-06 
1.41443 -5.82337 8.08485e-06 
1.63798 -5.76498 1.43114e-06 
1.84715 -5.8758 4.17327e-06 
2.06143 -5.8607 -1.42858e-05 
2.27771 -5.78634 -1.05136e-05 
2.49416 -5.88669 -2.5733e-05 
2.71341 -5.91005 2.87184e-05 
2.92416 -5.80364 -1.95273e-05 
3.16443 -5.86313 -2.29405e-05 
3.39414 -5.7533 -2.17927e-05 
3.64165 -5.86113 1.65153e-06 
3.82273 -5.94867 1.95497e-05 
3.99809 -5.83226 4.16924e-05 
-4.38574 -5.54664 1.31219e-07 
-4.1383 -5.73363 5.06289e-08 
-3.9186 -5.63551 -1.89371e-06 
-3.68993 -5.57575 2.14868e-06 
-3.48922 -5.66989 -1.93288e-05 
-3.29601 -5.59086 1.33706e-06 
-3.08214 -5.65671 6.10839e-06 
-2.85436 -5.59122 5.44742e-06 
-2.62554 -5.6373 4.19119e-06 
-2.40528 -5.54437 -4.16412e-06 
-2.19432 -5.59685 -8.05078e-06 
-1.98114 -5.647 -1.7648e-05 
-1.7712 -5.69291 -7.78169e-06 
-1.57633 -5.55113 -6.68353e-08 
-1.36683 -5.59363 -5.86287e-06 
-1.14927 -5.6068 8.5168e-07 
-0.922066 -5.64375 -2.82163e-06 
-0.696134 -5.62932 -4.91702e-06 
-0.472502 -5.64809 -9.57947e-06 
-0.261079 -5.62868 3.09626e-06 
-0.0465391 -5.6343 4.2346e-06 
0.163059 -5.65563 -7.52053e-06 
0.38111 -5.64104 7.52873e-06 
0.592768 -5.62998 -3.83822e-06 
0.807798 -5.63475 7.15008e-06 
1.01446 -5.63432 1.96409e-06 
1.24375 -5.5969 2.18223e-06 
1.45253 -5.60009 1.40019e-05 
1.66021 -5.53317 -8.91072e-06 
1.85306 -5.65111 4.64218e-06 
2.06418 -5.63755 1.04415e-05 
2.26943 -5.56228 3.02976e-06 
2.48352 -5.66062 -4.89788e-06 
2.69787 -5.68859 -1.14276e-05 
2.92524 -5.59383 -1.57393e-05 
3.1538 -5.65865 -2.63916e-05 
3.35441 -5.53485 -2.44389e-07 
3.59315 -5.64308 5.28977e-06 
3.82006 -5.67277 8.75096e-07 
4.03657 -5.59212 -3.46946e-05 
4.22794 -5.66785 -2.6786e-05 
-4.57343 -5.39293 -7.64155e-06 
-4.34264 -5.32274 2.33468e-05 
-4.16075 -5.51946 1.40077e-05 
-3.93475 -5.42726 -7.73866e-07 
-3.7269 -5.35605 -1.20961e-05 
-3.49942 -5.42041 -1.6811e-06 
-3.27268 -5.37409 1.38546e-06 
-3.05769 -5.43706 1.48158e-05 
-2.84705 -5.36225 -3.9987e-07 
-2.64182 -5.4243 -1.38476e-05 
-2.42836 -5.33391 2.28302e-07 
-2.2022 -5.36676 -1.54686e-05 
-1.99667 -5.41755 5.14911e-07 
-1.78691 -5.459 -2.34749e-06 
-1.55084 -5.34185 -7.28899e-06 
-1.32971 -5.37892 1.90624e-06 
-1.12362 -5.37706 -4.07947e-07 
-0.92743 -5.43377 1.26601e-05 
-0.733815 -5.3926 -1.14406e-05 
-0.530083 -5.42775 1.6025e-05 
-0.32004 -5.40712 -6.67087e-06 
-0.103811 -5.40923 3.98796e-08 
0.112385 -5.42077 -2.33694e-06 
0.316857 -5.42501 3.92319e-08 
0.530916 -5.40803 -9.31979e-07 
0.748051 -5.41201 -2.19505e-06 
0.956154 -5.40658 -1.5078e-06 
1.16214 -5.4094 2.00997e-06 
1.39764 -5.3759 -2.82991e-06 
1.59438 -5.33096 2.83486e-06 
1.85009 -5.40963 6.08008e-06 
2.04711 -5.41478 1.3649e-05 
2.27107 -5.35481 3.0608e-06 
2.49323 -5.44604 6.2311e-06 
2.71378 -5.47041 3.38508e-06 
2.91273 -5.36484 7.02587e-06 
3.12339 -5.43961 -7.4762e-06 
3.33352 -5.31955 9.79504e-06 
3.56904 -5.43055 4.29736e-06 
3.79808 -5.45447 6.38384e-06 
4.02682 -5.38154 -2.89793e-05 
4.2598 -5.42165 1.90051e-05 
4.44939 -5.49572 2.18949e-06 
-4.79336 -5.19843 -1.15718e-05 
-4.56544 -5.18031 -1.18272e-05 
-4.34811 -5.10059 -2.07598e-06 
-4.12531 -5.29002 1.08924e-05 
-3.91303 -5.18991 -9.46086e-06 
-3.6913 -5.12986 -1.23666e-06 
-3.49502 -5.20749 2.00261e-05 
-3.28188 -5.15292 1.98845e-06 
-3.066 -5.21262 -3.15668e-06 
-2.84634 -5.14782 -1.25684e-05 
-2.62736 -5.19637 -2.03645e-06 
-2.38485 -5.13309 -1.81111e-06 
-2.16874 -5.15131 1.56614e-06 
-1.95932 -5.19592 -5.23186e-07 
-1.75474 -5.24053 1.89249e-06 
-1.55965 -5.11279 1.1073e-05 
-1.35379 -5.16667 2.62459e-06 
-1.13667 -5.15271 -3.92181e-07 
-0.926423 -5.19305 -7.96899e-06 
-0.710203 -5.17251 1.21022e-05 
-0.502733 -5.19993 -1.80464e-07 
-0.284078 -5.18965 -6.03707e-07 
-0.0648274 -5.19325 -1.1977e-07 
0.142362 -5.19051 -3.18925e-07 
0.351515 -5.20079 2.07963e-07 
0.575392 -5.19422 -2.20945e-06 
0.781635 -5.18479 -3.70721e-06 
0.990167 -5.1828 4.43786e-06 
1.21229 -5.20803 -3.7672e-06 
1.41224 -5.13871 -1.42564e-07 
1.6901 -5.17974 -6.71406e-07 
1.89431 -5.18019 -7.85503e-06 
2.10246 -5.19291 -1.5905e-05 
2.28951 -5.09999 9.10505e-06 
2.4592 -5.22123 -5.25349e-06 
2.67107 -5.25534 1.18464e-05 
2.87807 -5.16029 3.62873e-06 
3.11832 -5.21498 5.172e-06 
3.34609 -5.10621 9.0709e-06 
3.56446 -5.22563 5.50606e-06 
3.80018 -5.24142 8.86141e-06 
4.01465 -5.16049 -1.61897e-05 
4.23606 -5.20684 2.56058e-05 
4.46788 -5.24364 4.42918e-05 
4.65669 -5.32121 -1.28696e-05 
4.795 -5.19692 -8.52847e-06 
-4.99407 -5.00592 1.24672e-05 
-4.76639 -4.98376 -1.0124e-05 
-4.54939 -4.95558 -8.79093e-06 
-4.328 -4.87434 -2.28507e-05 
-4.13398 -5.06714 -2.1105e-05 
-3.9126 -4.97531 2.11373e-05 
-3.68448 -4.92232 8.68259e-06 
-3.4603 -4.97576 7.39511e-07 
-3.24866 -4.92301 -3.47911e-06 
-3.05544 -4.99583 -3.88581e-06 
-2.85973 -4.91358 -2.41517e-06 
-2.65769 -4.97794 7.76557e-06 
-2.4469 -4.95568 -1.4051e-06 
-2.19927 -4.93561 -6.12272e-07 
-1.97782 -4.96823 -1.03645e-06 
[...]
POINT_DATA 3402 
VECTORS vectors float
0.0386028 -0.00858774 0.999248 
0.0377745 -0.00728391 0.999289 
0.0381545 -0.00684749 0.999275 
0.0395055 -0.00571908 0.999233 
0.0385535 -0.00385032 0.999281 
0.0386044 -0.00277256 0.999283 
0.0381479 -0.00139027 0.999305 
0.0379105 -0.000424393 0.999317 
0.0383545 0.00047461 0.999298 
0.0379012 0.00193409 0.999314 
0.0377734 0.00287272 0.999317 
0.0378205 0.00363448 0.999312 
0.0383906 0.00495347 0.999283 
0.0383057 0.00637229 0.999277 
0.0390053 0.00732007 0.999243 
0.0399431 0.00939088 0.999186 
0.038283 -0.0138518 0.999199 
0.0376256 -0.0120777 0.999249 
0.0375425 -0.0112055 0.999263 
0.0377427 -0.0100065 0.999268 
0.0566993 -0.0133544 0.998365 
0.0597494 -0.0119053 0.998206 
0.0597859 -0.0100871 0.998228 
0.0569607 -0.00760192 0.998404 
0.060703 -0.00620888 0.998206 
0.0584448 -0.00407959 0.998346 
0.0606841 -0.00227601 0.998218 
0.0609306 -0.00045515 0.998205 
0.058958 0.00140059 0.998313 
0.0609364 0.00336217 0.998209 
0.0598036 0.00511791 0.99825 
0.0598367 0.00698274 0.998254 
0.0575927 0.00864639 0.998359 
0.0595335 0.0109716 0.998228 
0.0565839 0.0122435 0.998387 
0.0544917 0.0138511 0.998485 
0.0386079 0.010934 0.999225 
0.0382312 0.0111938 0.999236 
0.0386586 0.013323 0.999191 
0.0382769 -0.0168215 0.999153 
0.037428 -0.0149328 0.999217 
0.0529505 -0.020087 0.99846 
0.0561544 -0.0190934 0.998302 
0.057189 -0.0173946 0.998274 
0.0584784 -0.0157953 0.998225 
0.0690968 -0.0166019 0.997535 
0.069907 -0.0144716 0.997512 
0.0707404 -0.0121712 0.997484 
0.069984 -0.00975577 0.997561 
0.071177 -0.00770516 0.997502 
0.070606 -0.00529131 0.997545 
0.0709163 -0.00298038 0.997554 
0.0711939 -0.000698926 0.997528 
0.0706836 0.00157082 0.997563 
0.07083 0.00380221 0.997545 
0.0703488 0.00610634 0.997579 
0.0704338 0.00845629 0.997541 
0.0695506 0.0107077 0.997585 
0.0697584 0.0132303 0.997549 
0.0688689 0.0155828 0.997558 
0.0685353 0.0178475 0.997553 
0.0601986 0.0173814 0.998106 
0.0540458 0.0173833 0.998442 
0.0543367 0.0195713 0.998394 
0.0369577 0.014386 0.999244 
0.0376279 0.0145157 0.999216 
0.0404319 0.0177154 0.999054 
0.0373895 -0.0195371 0.999137 
0.0372413 -0.0180579 0.999171 
0.0495785 -0.0228481 0.998578 
0.0551918 -0.0230968 0.998271 
0.065916 -0.0253247 0.997566 
0.0670894 -0.023318 0.997538 
0.0682194 -0.0211123 0.99751 
0.0692359 -0.0189703 0.997483 
0.0738348 -0.0183681 0.997167 
0.0744892 -0.0159894 0.99716 
0.0747345 -0.0135128 0.997178 
0.0748614 -0.0108007 0.997202 
0.0752019 -0.00833359 0.997201 
0.0752781 -0.00580652 0.997213 
0.0754203 -0.00338656 0.997215 
0.0753279 -0.000899545 0.997227 
0.0752068 0.00160247 0.997235 
0.0753616 0.00415436 0.997211 
0.0750056 0.00665251 0.997226 
0.0745332 0.0090746 0.997253 
0.0741451 0.0114304 0.997246 
0.0738475 0.0140413 0.99724 
0.0730721 0.0165047 0.997256 
0.0725234 0.0191028 0.99725 
0.0689651 0.0206019 0.997471 
0.0668394 0.0220737 0.997583 
0.0668475 0.0243266 0.99753 
0.0588175 0.0233177 0.998057 
0.0510939 0.0220089 0.998518 
0.0478073 0.0228333 0.99867 
0.0394046 0.0202254 0.999047 
0.0366822 0.0198677 0.999157 
0.0362286 -0.0225126 0.999117 
0.0367134 -0.0209623 0.999134 
0.0471431 -0.0257862 0.998627 
0.0541881 -0.0272787 0.99822 
0.0638039 -0.0298671 0.997579 
0.0652514 -0.0279734 0.99754 
0.0692484 -0.0279097 0.997274 
0.070823 -0.0256995 0.997223 
0.0718914 -0.0233548 0.997205 
0.0730411 -0.02095 0.997175 
0.0726859 -0.0187515 0.997245 
0.0726893 -0.0160638 0.997292 
0.0725008 -0.0134676 0.997345 
0.073437 -0.0110541 0.997306 
0.0719925 -0.0084416 0.997438 
0.0724088 -0.00591577 0.997426 
0.0712864 -0.00342582 0.997519 
0.0709408 -0.000990856 0.997549 
0.0715318 0.00154764 0.997507 
0.071029 0.00403981 0.997535 
0.0711843 0.00658613 0.99751 
0.0718515 0.00919877 0.997441 
0.0724906 0.0118186 0.997367 
0.0719046 0.0143456 0.997376 
0.0728996 0.0170174 0.997261 
0.0722199 0.0195801 0.997263 
0.0726649 0.0219276 0.997172 
0.0713484 0.0240909 0.997236 
0.0703044 0.0264946 0.997239 
0.0666222 0.0271451 0.997482 
0.0639857 0.0287795 0.997588 
0.0632819 0.0310839 0.997574 
0.050492 0.0266434 0.998434 
0.0499317 0.0285209 0.99841 
0.0373738 0.0218717 0.99909 
0.0360547 -0.0238831 0.999092 
0.0455138 -0.0291943 0.998607 
0.0510163 -0.0303314 0.9983 
0.0611903 -0.034275 0.997601 
0.0629989 -0.0325945 0.997545 
0.0665643 -0.0326505 0.997313 
0.068356 -0.0306494 0.997256 
0.0699953 -0.0291955 0.997186 
0.0707404 -0.0266175 0.997206 
0.0711834 -0.0239213 0.997243 
0.0715234 -0.0213377 0.997278 
0.0644516 -0.0173137 0.997838 
0.0637254 -0.0146492 0.997927 
0.062363 -0.0119739 0.99805 
0.0634777 -0.00982946 0.998003 
0.060425 -0.00733887 0.998214 
0.0617956 -0.00538634 0.998143 
0.0599054 -0.0031369 0.998257 
0.0593653 -0.000967561 0.998305 
0.0604474 0.00121352 0.998251 
0.0599872 0.00350497 0.998259 
0.0604142 0.00579939 0.998228 
0.0614752 0.00815116 0.998133 
0.0628518 0.0105985 0.998045 
0.0624453 0.0129113 0.998022 
0.0645751 0.015706 0.997867 
0.0643675 0.0182867 0.997826 
0.0705413 0.0221905 0.997329 
0.0709637 0.0249211 0.997234 
0.0701273 0.0275268 0.997224 
0.0693723 0.0292483 0.997228 
0.0675729 0.0309142 0.997299 
0.0662256 0.0332758 0.997314 
0.0624873 0.0336899 0.99754 
0.0606245 0.0357905 0.997582 
0.0449062 0.0279191 0.998674 
0.0365152 0.0236658 0.99908 
0.0350793 0.0237078 0.999131 
0.036302 -0.0287236 0.99896 
0.0373022 -0.0269435 0.998972 
0.0468643 -0.0325611 0.998435 
0.0584746 -0.0387545 0.997599 
0.0602257 -0.0370535 0.99756 
0.0634616 -0.0373535 0.99735 
0.0653702 -0.0355497 0.997293 
0.0673059 -0.0343015 0.997209 
0.0681773 -0.0316499 0.997238 
0.0637898 -0.0275092 0.997651 
0.0633314 -0.0246679 0.997755 
0.0628271 -0.0219079 0.997852 
0.0623912 -0.0193131 0.997933 
0.0529864 -0.0149485 0.99855 
0.052953 -0.012897 0.99857 
0.0514886 -0.0105632 0.998695 
0.0516048 -0.00848266 0.998699 
0.0494873 -0.00619605 0.998823 
0.0493529 -0.00420388 0.998851 
0.0479744 -0.00228773 0.998914 
0.0479117 -0.000429181 0.99892 
0.0490112 0.00142022 0.998865 
0.0487229 0.0033341 0.998874 
0.0488606 0.00520788 0.99886 
0.0501273 0.00723681 0.998783 
0.0515946 0.00932867 0.998691 
0.0514632 0.0114061 0.998676 
0.0538885 0.0139501 0.998516 
0.0529327 0.0158314 0.998528 
0.0613005 0.0200669 0.997995 
0.0634314 0.0231804 0.997773 
0.0627411 0.0255316 0.997769 
0.0682475 0.0298703 0.997287 
0.0687316 0.0324937 0.997172 
0.0672719 0.035139 0.997181 
0.0647881 0.0361188 0.99731 
0.0635384 0.0384909 0.997301 
0.0591694 0.0376973 0.997599 
0.0497658 0.0336092 0.998257 
0.0429259 0.030937 0.998673 
0.0374922 0.0275004 0.998952 
0.0347033 -0.0295983 0.998989 
0.0435788 -0.0355483 0.998484 
0.040452 -0.0304637 0.998799 
0.0566128 -0.0411674 0.997609 
0.0602116 -0.0419116 0.997369 
0.0626936 -0.0404477 0.997278 
0.0645551 -0.0392911 0.997206 
0.0655564 -0.0368464 0.997235 
0.062226 -0.0329777 0.997584 
0.061962 -0.0300669 0.997692 
0.0545145 -0.0246637 0.998264 
0.0522885 -0.0213012 0.998482 
0.0517156 -0.0189145 0.99855 
0.0508384 -0.0165025 0.998638 
0.0432123 -0.012469 0.999054 
0.0428814 -0.0105581 0.9991 
0.0413897 -0.0086453 0.999161 
0.0424519 -0.00728234 0.999138 
0.0397692 -0.00544125 0.999259 
0.0403446 -0.00397144 0.999234 
0.0389642 -0.00231135 0.999304 
0.0387755 -0.000735219 0.999314 
0.0391852 0.000840518 0.999298 
0.0395765 0.00234971 0.99928 
0.0394415 0.00390665 0.99928 
0.040351 0.00559819 0.999236 
0.0412334 0.00729199 0.999188 
0.0425101 0.00909915 0.999119 
0.0431189 0.011162 0.999073 
0.0429877 0.0128003 0.999059 
0.0493473 0.0167965 0.998706 
0.0521147 0.0196334 0.998525 
0.0526161 0.0222455 0.998433 
0.0607478 0.0277197 0.997834 
0.064432 0.0319135 0.997478 
0.0632722 0.0342864 0.997473 
0.0657569 0.0377095 0.997188 
0.0642529 0.0402212 0.997189 
0.0616313 0.0404676 0.997342 
0.0582282 0.0406715 0.997537 
0.0554886 0.0415773 0.997655 
0.0411263 0.0322186 0.998711 
0.034973 0.0292013 0.998993 
0.0348994 -0.0320417 0.998912 
0.0389634 -0.0342422 0.998731 
0.0531581 -0.0453161 0.997619 
0.055109 -0.0429624 0.997617 
0.05917 -0.044624 0.997313 
0.0615999 -0.0443424 0.997181 
0.0629068 -0.0422451 0.997191 
0.0608473 -0.0387777 0.99746 
0.059735 -0.0351272 0.997662 
0.0531102 -0.0293082 0.998225 
0.051183 -0.0257625 0.998434 
0.0445334 -0.0205843 0.998861 
0.0423693 -0.0177275 0.999 
0.0416215 -0.0156022 0.999077 
0.0411452 -0.0137006 0.999125 
0.034841 -0.0106254 0.999401 
0.0352247 -0.00923506 0.999391 
0.033261 -0.00734315 0.999494 
0.0334739 -0.00597642 0.999487 
0.0316404 -0.00434119 0.999555 
0.0319233 -0.00307484 0.999561 
0.0309438 -0.00166808 0.999585 
0.0309254 -0.000342085 0.999587 
0.0308196 0.000894836 0.99959 
0.0315027 0.00217166 0.999567 
0.0318364 0.00355207 0.999552 
0.0323087 0.00486593 0.999531 
0.0331823 0.00631438 0.999494 
0.0355477 0.00824069 0.999388 
0.0342979 0.00939123 0.999441 
0.0381951 0.0124289 0.999257 
0.0401147 0.0146344 0.999152 
0.0432013 0.017419 0.998969 
0.0417671 0.0187136 0.999016 
0.0494818 0.0232352 0.99857 
0.0546894 0.027723 0.998184 
0.0542919 0.0302018 0.998134 
0.0607608 0.0362609 0.99756 
0.0603485 0.0394971 0.997462 
0.0625307 0.0425978 0.9972 
0.0599707 0.0434542 0.997318 
0.0576986 0.0448498 0.99739 
0.053991 0.043595 0.997652 
0.0411404 0.035215 0.998603 
0.0316386 0.0279517 0.999136 
0.0322273 0.028938 0.999089 
0.0342184 -0.0341804 0.998868 
0.0380576 -0.0363472 0.998689 
0.0511367 -0.0470209 0.997644 
0.0553595 -0.0491067 0.997321 
0.0568812 -0.0463616 0.997367 
0.0595042 -0.0467982 0.997196 
0.0588693 -0.0441113 0.997356 
0.0574644 -0.0400055 0.997612 
0.0513729 -0.0339168 0.99817 
0.0504366 -0.0308401 0.998318 
0.0432552 -0.0251494 0.998813 
0.0424124 -0.0226093 0.998899 
0.038419 -0.0189414 0.999147 
0.0349032 -0.0155409 0.999334 
0.0335204 -0.0133465 0.999424 
0.0330279 -0.0116838 0.999451 
0.0274593 -0.00870209 0.999649 
0.0273168 -0.00733181 0.999671 
0.0251788 -0.00569583 0.999723 
0.0254345 -0.00463187 0.99973 
0.0229924 -0.00327608 0.999794 
0.0233587 -0.00237124 0.999779 
0.0229978 -0.00139157 0.999799 
0.0228123 -0.000379439 0.999804 
0.0222896 0.000605675 0.999816 
0.0229634 0.00157094 0.9998 
0.0240875 0.00261361 0.999771 
0.0238084 0.003654 0.999775 
0.0250214 0.00483235 0.999749 
0.027606 0.00646577 0.999662 
0.0267562 0.00752808 0.999677 
0.0312605 0.0100421 0.999514 
0.0319722 0.0118749 0.999481 
0.0344888 0.0142288 0.999377 
0.0340009 0.0156517 0.999352 
0.0392049 0.019583 0.999114 
0.0446622 0.0234891 0.998791 
0.0450482 0.0261042 0.998709 
0.0523795 0.0322477 0.998172 
0.0510202 0.0341116 0.998181 
0.0594614 0.0420916 0.997409 
0.0607498 0.0452658 0.997192 
0.0591821 0.0470493 0.997204 
0.0568473 0.0474326 0.99732 
0.0535324 0.0465519 0.997544 
0.0463677 0.0423579 0.998086 
0.0366986 0.0352402 0.998783 
0.0360639 0.0358198 0.998759 
0.0334806 -0.0363449 0.998822 
0.034904 -0.0362826 0.998814 
0.0485884 -0.0486729 0.997691 
0.0531452 -0.0509303 0.99735 
0.0557014 -0.0515513 0.997181 
0.0575261 -0.0487807 0.997217 
0.0567285 -0.0462299 0.997384 
0.0509815 -0.0400615 0.997961 
0.0496678 -0.0364141 0.998168 
0.0432338 -0.0300635 0.998667 
0.0405754 -0.0260376 0.998912 
0.035081 -0.021225 0.99922 
0.0341794 -0.0189353 0.999303 
0.0314229 -0.0158684 0.999444 
0.0280096 -0.0128722 0.999588 
0.0260866 -0.0108394 0.999665 
0.0254259 -0.00936533 0.999697 
0.019491 -0.00650322 0.999852 
0.0197154 -0.00564111 0.999845 
0.0173443 -0.00417598 0.999901 
0.0167993 -0.00325048 0.999927 
0.014945 -0.00220671 0.999939 
0.0145398 -0.00146992 0.999969 
0.0148364 -0.00083174 0.999951 
0.0146132 -0.000166921 0.999957 
0.0140029 0.000455518 0.999966 
0.0146018 0.00110405 0.999957 
0.0161127 0.00191309 0.999932 
0.0153117 0.00247593 0.999943 
0.0171619 0.00353086 0.9999 
0.0197326 0.00488589 0.999866 
0.0199985 0.00605323 0.999845 
0.0246606 0.0084618 0.999733 
0.0252102 0.00994238 0.999696 
0.0269387 0.0117625 0.999631 
0.0298449 0.0148284 0.999507 
0.0323788 0.0173805 0.999378 
0.0369545 0.0209412 0.999162 
0.0353378 0.0218702 0.999201 
0.0420878 0.0267563 0.998821 
0.0408147 0.0282703 0.998832 
0.0501378 0.0362301 0.998151 
0.0549206 0.0421888 0.997665 
0.0556837 0.0459288 0.997457 
0.0569853 0.0494588 0.997215 
0.0546328 0.0495507 0.997341 
0.0517762 0.0494096 0.997509 
0.0476825 0.0482099 0.997748 
0.0333767 0.0351854 0.998912 
0.0314533 0.0357029 0.998905 
0.0297689 -0.0355587 0.998956 
0.0337138 -0.0383762 0.998773 
0.0465016 -0.0504626 0.997701 
0.0509953 -0.0532762 0.997339 
0.0531408 -0.0531178 0.997237 
0.0537323 -0.0519109 0.99727 
0.0556337 -0.0490598 0.997311 
0.0496453 -0.0426006 0.997934 
0.0425097 -0.0348262 0.998543 
0.040009 -0.030472 0.99881 
0.0352923 -0.0250368 0.999127 
0.0324726 -0.0215687 0.999303 
0.0282364 -0.0175315 0.999503 
0.0273877 -0.0155709 0.999574 
0.0246529 -0.0128269 0.999677 
0.0206553 -0.00994024 0.9998 
0.0182811 -0.00799818 0.999854 
0.0177359 -0.0069046 0.999892 
0.0123144 -0.00433068 0.999967 
0.0120707 -0.00359422 0.999993 
0.010238 -0.00252993 1.00001 
0.00958361 -0.00188374 1.00001 
0.00817642 -0.00121213 1.00003 
0.00776811 -0.00077342 1.00003 
0.00804488 -0.000413508 1.00003 
0.00778936 -4.21859e-05 1.00003 
0.00739513 0.000298328 1.00004 
0.00804663 0.000700825 1.00003 
0.0087979 0.00115032 1.00002 
0.00889843 0.00159907 1.00002 
0.0104071 0.00235332 1.00001 
0.0132159 0.00358113 0.999959 
0.0114565 0.00365115 0.99999 
0.0164051 0.00578904 0.999901 
0.018072 0.00719647 0.999873 
0.019055 0.0086625 0.999853 
0.02375 0.0117341 0.999702 
0.0246961 0.0137078 0.999674 
0.028898 0.0171834 0.999499 
0.0283912 0.0185181 0.999489 
0.0333952 0.0228091 0.999246 
0.0405689 0.0305648 0.998764 
0.0458927 0.0364242 0.998359 
0.0472346 0.0402474 0.998128 
0.0528215 0.0472381 0.997552 
0.0549852 0.0515763 0.99722 
0.0529048 0.051921 0.997314 
0.0511287 0.0527463 0.997362 
0.0471123 0.0507954 0.997659 
0.0368904 0.0421177 0.998498 
0.0268 0.0317349 0.999164 
0.0269305 -0.034402 0.999073 
0.0348072 -0.0427799 0.998546 
0.0452438 -0.0530738 0.997626 
0.048809 -0.0550325 0.997353 
0.0514119 -0.0555548 0.997195 
0.0523511 -0.0541859 0.997222 
0.046287 -0.0467481 0.997909 
0.0499365 -0.0465319 0.997723 
0.0422351 -0.0391142 0.998406 
0.0385661 -0.0339032 0.998745 
0.0337649 -0.027725 0.999109 
0.0316816 -0.024267 0.999267 
0.0275249 -0.0198862 0.999486 
0.02498 -0.0168617 0.999609 
0.0212919 -0.0131859 0.999749 
0.0198516 -0.0112953 0.999802 
0.0158158 -0.00835011 0.999903 
0.0122116 -0.00589422 0.99997 
0.0106025 -0.00456005 0.999996 
0.00828245 -0.00323386 1.00002 
0.00656521 -0.00215139 1.00004 
0.00556971 -0.00154316 1.00004 
0.00469271 -0.00104264 1.00005 
0.00400091 -0.000687725 1.00005 
0.00346433 -0.000413993 1.00006 
0.00348539 -0.000235963 1.00006 
0.00342249 -6.59175e-05 1.00006 
0.00326391 9.34118e-05 1.00006 
0.00351589 0.000275674 1.00006 
0.00372422 0.000476027 1.00006 
0.00436286 0.000754978 1.00005 
0.0050037 0.00113971 1.00006 
0.00666955 0.00183794 1.00004 
0.00600671 0.00200685 1.00004 
0.00944706 0.00358166 1.00002 
0.0118976 0.00510285 0.999971 
0.0129376 0.00630088 0.999959 
0.0178163 0.0093786 0.99986 
0.0174798 0.0101789 0.999858 
0.0221924 0.0137296 0.999722 
0.0224519 0.0152765 0.999684 
0.0269181 0.0194797 0.999521 
0.0329228 0.0245989 0.99922 
0.0351141 0.0286027 0.999039 
0.0379109 0.0326336 0.998813 
0.0429728 0.0394793 0.998373 
0.0498845 0.0478961 0.997662 
0.0523279 0.0529401 0.997292 
0.051546 0.0548101 0.997239 
0.0494438 0.055029 0.997317 
0.0458244 0.0536686 0.99758 
0.0369717 0.0451311 0.99836 
0.0288514 0.0357734 0.998975 
0.0262021 -0.0356454 0.999049 
0.0336536 -0.0445237 0.998509 
0.0435924 -0.0554393 0.997572 
0.0468882 -0.0573104 0.997318 
0.0493325 -0.0575482 0.997188 
0.0495768 -0.0553238 0.997302 
0.0450895 -0.0485831 0.997866 
0.0383762 -0.0380702 0.998592 
0.0325479 -0.0308202 0.999058 
0.0306399 -0.0270898 0.999226 
0.026702 -0.0221006 0.999461 
0.0240726 -0.0187873 0.999596 
0.0201342 -0.0147505 0.999751 
0.0179996 -0.0121619 0.999827 
0.0137728 -0.00861002 0.999931 
0.0116133 -0.00673097 0.999972 
0.00832222 -0.00443581 1.00002 
0.00620803 -0.00297434 1.00004 
0.00406924 -0.0017886 1.00005 
0.00399426 -0.00151345 1.00005 
0.00258216 -0.000852697 1.00006 
0.0021568 -0.000590884 1.00006 
0.00159237 -0.000350509 1.00006 
0.0012751 -0.00021069 1.00006 
0.00106801 -0.000115613 1.00006 
0.000971385 -5.2539e-05 1.00006 
0.000931397 -1.36658e-06 1.00006 
0.0010219 5.27701e-05 1.00006 
0.0010992 0.000115315 1.00006 
0.00119927 0.000186815 1.00006 
0.00188357 0.000384525 1.00005 
0.00169661 0.000429172 1.00006 
0.00294796 0.000860678 1.00006 
0.0026005 0.000922894 1.00006 
0.00476784 0.00190974 1.00005 
0.00662778 0.00300347 1.00003 
0.00680529 0.00347943 1.00003 
0.01079 0.00594277 0.999986 
0.0114002 0.00699031 0.999973 
0.0158986 0.0104137 0.999892 
0.0185814 0.0135466 0.999798 
0.0225641 0.0174971 0.999646 
0.0282273 0.0225448 0.999411 
0.0282483 0.0244165 0.999367 
0.0328584 0.0299119 0.999077 
0.0370788 0.0359028 0.998732 
0.0439386 0.0444317 0.998122 
0.0470441 0.0501707 0.997698 
0.0495012 0.0554454 0.997293 
0.0487796 0.0571478 0.997247 
0.0465964 0.0575414 0.997309 
0.0430405 0.0552689 0.997606 
0.0301987 0.03996 0.998828 
0.0265552 0.0376166 0.998972 
0.0247894 -0.0372522 0.999028 
0.0309466 -0.0443603 0.998607 
0.0411524 -0.056938 0.997591 
0.0443768 -0.0590524 0.997331 
0.0467741 -0.0596741 0.997187 
0.0471241 -0.057238 0.997313 
0.0431725 -0.0505282 0.997854 
0.0364811 -0.0415162 0.998536 
0.0358449 -0.0382746 0.998689 
0.0301187 -0.0307415 0.999136 
0.0260349 -0.0250418 0.999409 
0.0242455 -0.0217451 0.999532 
0.019781 -0.0169165 0.999723 
0.0172215 -0.013773 0.999819 
0.0133981 -0.00995823 0.999923 
0.0109631 -0.00752356 0.999974 
0.00703121 -0.00452593 1.00003 
0.00563648 -0.00332464 1.00004 
0.00369899 -0.00197962 1.00005 
0.00212428 -0.00105728 1.00006 
0.00157214 -0.000683494 1.00006 
0.00109902 -0.000425883 1.00006 
0.000566141 -0.000196455 1.00006 
0.000252971 -8.07833e-05 1.00006 
-9.27428e-05 5.28848e-06 1.00006 
-0.000268284 2.96363e-05 1.00006 
-0.000529255 4.06264e-05 1.00006 
-0.000644152 1.9607e-05 1.00006 
-0.000514984 -8.8761e-06 1.00006 
-0.000438421 -2.89192e-05 1.00006 
-0.000364435 -3.90537e-05 1.00007 
0.000137279 3.63385e-05 1.00006 
0.00026772 8.22373e-05 1.00006 
0.000871209 0.000290517 1.00006 
0.000531476 0.00021458 1.00006 
0.00173828 0.000733581 1.00005 
0.00283014 0.00133532 1.00007 
0.00327472 0.00176314 1.00005 
0.00597022 0.00348987 1.00004 
0.00603279 0.00391155 1.00004 
0.00975562 0.006686 0.999982 
0.0131267 0.00962855 0.99993 
0.0163509 0.0132427 0.999851 
0.0221308 0.0187471 0.999643 
0.0245509 0.0226349 0.999516 
0.0287112 0.0278281 0.999254 
0.0297866 0.030761 0.999146 
0.0357325 0.0374864 0.998713 
0.039012 0.0433843 0.998362 
0.043667 0.0508852 0.997816 
0.0467137 0.0570241 0.997346 
0.046454 0.0596471 0.997204 
0.0442814 0.0589155 0.997344 
0.0409949 0.0563948 0.99763 
0.0322581 0.0463047 0.998472 
0.0230944 0.0346656 0.999159 
0.0221036 -0.0363616 0.999121 
0.0295377 -0.0460406 0.998572 
0.0390016 -0.0583734 0.997595 
0.0419898 -0.06068 0.997337 
0.0442939 -0.0614675 0.997191 
0.0438875 -0.0583053 0.9974 
0.0405617 -0.0516671 0.997906 
0.0347106 -0.0427754 0.998546 
0.0289974 -0.0340809 0.999052 
0.0280381 -0.0308154 0.999206 
0.023776 -0.0246793 0.999475 
0.0198867 -0.0193173 0.999677 
0.0166339 -0.0153546 0.999806 
0.0125257 -0.0108251 0.999925 
0.0100135 -0.00804279 0.99998 
0.0069375 -0.00515167 1.00002 
0.00435146 -0.00303619 1.00005 
0.00262389 -0.00168228 1.00006 
0.00201633 -0.0011795 1.00006 
0.000731435 -0.000409017 1.00006 
0.000493258 -0.000253349 1.00006 
-8.47514e-05 1.43328e-05 1.00006 
-0.0003625 0.000106061 1.00006 
-0.000880515 0.000243138 1.00006 
-0.00129849 0.000295706 1.00006 
-0.00168568 0.000287845 1.00006 
-0.00213404 0.00024776 1.00006 
-0.00265178 0.000158375 1.00006 
-0.00259364 8.41523e-06 1.00006 
-0.00235718 -0.000125776 1.00006 
-0.00218079 -0.000240294 1.00006 
-0.00202553 -0.0003389 1.00005 
-0.00106272 -0.00021213 1.00006 
-0.00133389 -0.000339759 1.00006 