# vtk DataFile Version 3.0 
Exported using Morpho https://github.com/Morpho-lang/morpho 
ASCII 
DATASET UNSTRUCTURED_GRID 

POINTS 3402 float 
-1.58244 -6.89173 3.11954e-09 
-1.37896 -6.93531 -2.27317e-09 
-1.17602 -6.97259 1.29848e-09 
-0.971328 -7.00404 1.48583e-09 
-0.732757 -7.033 -3.66131e-09 
-0.525979 -7.05148 4.20752e-09 
-0.301534 -7.06464 -2.95145e-09 
-0.0954498 -7.07042 2.89354e-09 
0.109207 -7.07022 -9.91992e-10 
0.329646 -7.06338 -1.57431e-09 
0.531599 -7.05106 2.38001e-09 
0.740599 -7.03218 -3.78067e-09 
0.945652 -7.00755 2.88248e-09 
1.17498 -6.97276 -1.41409e-09 
1.38128 -6.93485 2.07096e-09 
1.61073 -6.88517 -1.16181e-09 
-2.42543 -6.64208 -2.60674e-09 
-2.2182 -6.71413 1.48377e-09 
-2.01089 -6.77911 1.12672e-09 
-1.80712 -6.83625 -3.19942e-09 
-1.57787 -6.67591 -2.38956e-14 
-1.34838 -6.70419 3.2551e-15 
-1.13556 -6.73502 -7.86011e-16 
-0.907677 -6.80236 3.97187e-15 
-0.685554 -6.79931 6.71816e-15 
-0.465163 -6.83059 -1.82533e-14 
-0.254996 -6.81967 6.10221e-15 
-0.0473345 -6.82239 6.9539e-16 
0.169398 -6.83823 2.1813e-14 
0.379554 -6.81167 4.2981e-15 
0.586932 -6.80148 6.15965e-15 
0.793536 -6.77925 -1.12322e-15 
1.01349 -6.77685 -6.05978e-15 
1.22845 -6.72071 2.72386e-15 
1.44899 -6.70372 -6.33002e-15 
1.68823 -6.66343 3.27627e-15 
1.85585 -6.82318 5.30292e-10 
2.04433 -6.7691 -1.67347e-09 
2.27916 -6.69369 1.4939e-09 
-2.85358 -6.46971 -2.35778e-09 
-2.65665 -6.55303 2.45115e-09 
-2.44744 -6.42746 -1.51378e-15 
-2.21288 -6.48216 -4.28476e-15 
-1.99926 -6.54636 -1.21273e-15 
-1.78637 -6.60088 -5.97446e-15 
-1.54403 -6.45092 -4.86236e-15 
-1.33189 -6.48864 -7.50866e-15 
-1.10882 -6.50496 -2.2727e-15 
-0.903332 -6.58034 -4.58204e-15 
-0.699398 -6.55605 1.44074e-14 
-0.489855 -6.59727 2.53272e-15 
-0.275617 -6.57845 2.68328e-15 
-0.0657185 -6.57774 2.51558e-15 
0.145125 -6.59982 2.47574e-15 
0.355824 -6.5737 -3.18748e-15 
0.566749 -6.55724 8.31039e-16 
0.787617 -6.5522 -2.52373e-15 
1.01066 -6.54518 2.84489e-15 
1.22983 -6.49181 7.56858e-16 
1.46321 -6.49199 3.80393e-15 
1.6748 -6.42873 -2.58406e-15 
1.88889 -6.55343 1.44717e-15 
2.11037 -6.53997 -2.19582e-15 
2.33267 -6.45723 5.29604e-15 
2.50222 -6.61354 -7.83551e-10 
2.678 -6.54433 -2.17003e-09 
2.91078 -6.44417 2.62741e-09 
-3.2823 -6.26311 -6.04234e-10 
-3.09662 -6.35696 1.27307e-09 
-2.88873 -6.25353 -4.33869e-16 
-2.65019 -6.30855 -1.38861e-15 
-2.40061 -6.21381 5.5635e-16 
-2.19006 -6.27458 -2.62111e-15 
-1.96361 -6.32424 -2.76102e-15 
-1.75154 -6.37522 -6.9458e-16 
-1.55475 -6.21453 4.37548e-15 
-1.34463 -6.25676 3.25717e-15 
-1.13243 -6.28099 2.09186e-15 
-0.908748 -6.33738 2.52427e-15 
-0.691731 -6.32417 1.03027e-14 
-0.48078 -6.3607 -2.03812e-15 
-0.275435 -6.33457 -1.81786e-15 
-0.0696486 -6.33665 2.51607e-14 
0.139298 -6.35988 -1.26993e-15 
0.348051 -6.33465 2.42848e-15 
0.557217 -6.31938 -8.06388e-16 
0.769367 -6.32315 1.5603e-15 
0.985302 -6.32218 -1.09653e-14 
1.19758 -6.26524 -4.7869e-15 
1.41661 -6.2758 -6.12074e-16 
1.63395 -6.21366 4.88623e-16 
1.88166 -6.31706 2.55174e-15 
2.09082 -6.32288 1.98959e-15 
2.28463 -6.22767 -6.31561e-15 
2.51545 -6.33276 -1.19104e-15 
2.7333 -6.31306 -1.0313e-14 
2.97961 -6.22107 2.80903e-16 
3.16341 -6.32399 1.46426e-09 
3.37689 -6.21262 -3.26081e-09 
-3.71349 -6.01748 -3.85968e-10 
-3.5264 -6.12899 -4.12348e-10 
-3.31174 -6.04684 1.18304e-15 
-3.07511 -6.10382 -2.30365e-15 
-2.83157 -6.03467 -8.29068e-16 
-2.62767 -6.1041 -2.42677e-15 
-2.43065 -5.9893 3.50296e-15 
-2.20972 -6.03741 4.24353e-15 
-1.99864 -6.10036 4.23812e-15 
-1.77339 -6.14005 2.33417e-15 
-1.55056 -5.99577 -1.63339e-15 
-1.32897 -6.02918 -2.67939e-15 
-1.11854 -6.05089 -4.32404e-16 
-0.911702 -6.11386 -1.68302e-15 
-0.703793 -6.08896 -9.11063e-16 
-0.493367 -6.12175 1.89703e-15 
-0.284546 -6.09895 5.98808e-16 
-0.0742244 -6.09562 -2.40899e-15 
0.134121 -6.12014 1.8334e-15 
0.342216 -6.09697 6.09757e-17 
0.557388 -6.08912 2.76584e-15 
0.772049 -6.09131 1.88189e-15 
0.986771 -6.09151 1.47905e-15 
1.19954 -6.03423 -9.22869e-16 
1.41085 -6.0513 1.16526e-15 
1.62202 -5.98536 3.64813e-16 
1.83957 -6.09913 1.06068e-15 
2.06108 -6.08675 -1.48784e-15 
2.27938 -6.00822 -7.15068e-15 
2.50047 -6.11228 -8.66225e-16 
2.73984 -6.11133 9.83421e-15 
2.96367 -6.01267 -4.00815e-15 
3.20188 -6.07844 6.93515e-15 
3.40949 -5.95769 -6.95822e-15 
3.58029 -6.09766 1.44697e-09 
-3.9445 -5.86864 -6.98409e-10 
-3.72606 -5.79933 2.15758e-15 
-3.4987 -5.88349 -2.78133e-15 
-3.26559 -5.8276 -5.2009e-16 
-3.05599 -5.897 -9.43624e-16 
-2.85846 -5.80223 2.59507e-15 
-2.64133 -5.85952 1.79902e-15 
-2.41478 -5.77182 -4.74242e-15 
-2.19928 -5.81723 -2.36045e-15 
-1.9849 -5.87251 -1.42661e-15 
-1.7751 -5.92237 -1.04387e-15 
-1.56117 -5.77997 2.25178e-15 
-1.33689 -5.81314 -2.11094e-14 
-1.11443 -5.82154 7.69393e-16 
-0.90556 -5.87972 1.64142e-15 
-0.703178 -5.84793 9.42533e-16 
-0.502131 -5.88714 -8.35034e-16 
-0.294133 -5.8653 -2.05204e-15 
-0.0844827 -5.86198 -1.9271e-15 
0.12694 -5.88257 -3.1723e-15 
0.342212 -5.87012 -8.00698e-16 
0.553979 -5.85716 -4.37284e-16 
0.764336 -5.86425 1.07098e-15 
0.976731 -5.86522 2.20561e-15 
1.19526 -5.81507 2.15659e-15 
1.41674 -5.82142 -3.60349e-15 
1.63757 -5.76444 -2.13818e-15 
1.8469 -5.87892 3.96658e-15 
2.06228 -5.86415 -6.21585e-16 
2.26924 -5.78494 4.0606e-15 
2.4905 -5.88889 -1.04181e-15 
2.70973 -5.9078 1.02522e-15 
2.92401 -5.80507 -1.94975e-15 
3.16623 -5.8649 -3.74651e-15 
3.39752 -5.75376 1.8692e-15 
3.64247 -5.86225 3.71466e-15 
3.82281 -5.94863 7.33287e-10 
3.99822 -5.83217 1.74153e-09 
-4.38589 -5.54653 1.61169e-11 
-4.13865 -5.73337 1.63554e-11 
-3.92021 -5.6376 3.80155e-15 
-3.69233 -5.57761 -1.07425e-15 
-3.48881 -5.67 -5.35355e-16 
-3.29383 -5.59116 2.3318e-15 
-3.08037 -5.65712 1.81137e-15 
-2.85074 -5.58946 -2.45678e-15 
-2.625 -5.63785 -1.24107e-15 
-2.4071 -5.55199 -7.59197e-16 
-2.19479 -5.59377 2.05547e-15 
-1.98279 -5.6461 1.66709e-15 
-1.7719 -5.69318 -5.71156e-16 
-1.57444 -5.55074 -1.7932e-14 
-1.3643 -5.5976 -3.31831e-16 
-1.14462 -5.6058 -1.36454e-15 
-0.918536 -5.64477 -1.0585e-15 
-0.694857 -5.63202 -7.33497e-16 
-0.474154 -5.65121 4.75873e-16 
-0.262587 -5.6337 -1.89133e-14 
-0.0482036 -5.63551 7.33957e-16 
0.161848 -5.65505 7.64227e-16 
0.374548 -5.64236 2.47964e-15 
0.591048 -5.63083 2.86399e-16 
0.797967 -5.63584 2.7792e-15 
1.0062 -5.63899 2.37038e-15 
1.23855 -5.60297 1.84319e-14 
1.44892 -5.59652 2.69396e-15 
1.65841 -5.53469 2.79207e-16 
1.85471 -5.65464 -3.31699e-15 
2.05525 -5.63234 5.4152e-15 
2.26493 -5.56312 6.39827e-15 
2.48039 -5.6676 1.60468e-15 
2.69943 -5.6867 -4.64296e-15 
2.93027 -5.59586 8.06166e-16 
3.15808 -5.66163 1.65919e-15 
3.35706 -5.53431 -6.20071e-16 
3.59518 -5.64317 -1.86596e-15 
3.82066 -5.67373 4.45676e-16 
4.03653 -5.59361 -7.54839e-15 
4.22819 -5.66767 -1.14553e-09 
-4.5733 -5.39304 -3.10341e-10 
-4.34001 -5.32293 -5.02254e-15 
-4.16105 -5.51895 -7.35972e-15 
-3.93525 -5.42914 -7.45493e-15 
-3.72808 -5.35647 1.91217e-15 
-3.50192 -5.42351 2.64732e-15 
-3.27138 -5.37933 8.08915e-16 
-3.05018 -5.43774 -9.99928e-15 
-2.84252 -5.35568 -5.39652e-15 
-2.64143 -5.42194 8.99858e-15 
-2.42888 -5.34154 -4.2712e-15 
-2.20538 -5.36604 1.14757e-15 
-1.9971 -5.41648 5.12368e-16 
-1.78744 -5.46209 7.35325e-16 
-1.55009 -5.34274 1.07164e-15 
-1.32729 -5.38381 3.25017e-15 
-1.12144 -5.37493 4.6239e-16 
-0.925086 -5.43308 2.2581e-14 
-0.731726 -5.39372 -4.81066e-16 
-0.52858 -5.42831 1.45401e-14 
-0.319241 -5.41208 6.42381e-15 
-0.103642 -5.41114 1.16184e-14 
0.112435 -5.42234 1.54609e-14 
0.317266 -5.4205 -7.32084e-16 
0.530247 -5.41744 2.44878e-14 
0.749591 -5.40377 -1.60005e-15 
0.954488 -5.41092 -7.65307e-16 
1.1606 -5.41584 -2.14148e-15 
1.39487 -5.37652 -1.93904e-15 
1.59602 -5.33018 -9.68337e-16 
1.85124 -5.41504 4.68205e-16 
2.05794 -5.40627 -7.46894e-15 
2.28078 -5.3515 -5.35132e-15 
2.49219 -5.45516 3.24062e-15 
2.71549 -5.47227 8.35259e-15 
2.91452 -5.36758 -1.0957e-15 
3.12651 -5.44183 -1.08183e-15 
3.33325 -5.31841 -6.5698e-16 
3.57006 -5.42985 -1.70538e-15 
3.79882 -5.45509 6.54241e-15 
4.02706 -5.38281 3.95907e-15 
4.25822 -5.42273 1.38573e-15 
4.44919 -5.49588 1.28308e-10 
-4.79357 -5.19824 -4.81769e-10 
-4.56383 -5.18274 2.913e-15 
-4.34829 -5.10024 -2.01376e-15 
-4.12319 -5.28796 2.28847e-15 
-3.91235 -5.19012 3.81467e-16 
-3.68651 -5.13384 -2.71583e-15 
-3.48907 -5.21259 -6.5073e-15 
-3.28243 -5.15165 -8.836e-16 
-3.07379 -5.21608 7.52237e-15 
-2.85389 -5.14781 7.13707e-15 
-2.62287 -5.19093 -1.67475e-15 
-2.39292 -5.1357 5.96697e-15 
-2.17443 -5.15263 2.22558e-15 
-1.96252 -5.19814 9.63005e-16 
-1.75487 -5.24472 -1.49965e-14 
-1.55789 -5.11338 -8.60938e-16 
-1.3521 -5.17125 -1.01005e-15 
-1.13589 -5.15001 5.01045e-15 
-0.925532 -5.1918 -1.79074e-14 
-0.710187 -5.17299 4.46218e-16 
-0.501467 -5.19981 -1.44776e-15 
-0.285323 -5.19242 7.32553e-16 
-0.0668135 -5.19432 7.00111e-16 
0.139939 -5.19205 8.72512e-16 
0.350664 -5.19863 -1.06517e-14 
0.567721 -5.20228 4.71388e-16 
0.77902 -5.17623 3.73299e-16 
0.986089 -5.18642 8.77643e-16 
1.20647 -5.21185 9.70762e-16 
1.40916 -5.14247 -3.19878e-15 
1.6915 -5.179 6.55462e-15 
1.89565 -5.18763 1.14221e-15 
2.10684 -5.1864 -2.84871e-15 
2.29254 -5.09798 -1.41907e-14 
2.46559 -5.22065 -1.46122e-15 
2.66804 -5.26051 3.38688e-15 
2.87382 -5.16453 3.47057e-15 
3.11692 -5.21688 7.71583e-16 
3.34619 -5.10574 -1.33345e-15 
3.56408 -5.22608 -2.55405e-15 
3.80107 -5.2419 -3.02928e-15 
4.01435 -5.16114 -9.49805e-16 
4.23543 -5.20627 -1.45937e-14 
4.46519 -5.24575 1.5758e-14 
4.65664 -5.32125 -5.33908e-10 
4.79541 -5.19654 -3.31264e-10 
-4.99423 -5.00577 5.29232e-10 
-4.76447 -4.98728 6.67326e-15 
-4.54869 -4.95623 -3.27041e-15 
-4.32883 -4.87173 2.60645e-15 
-4.13585 -5.06379 4.47828e-15 
-3.91301 -4.9787 -2.0324e-15 
-3.69037 -4.92374 3.08065e-15 
-3.46672 -4.97754 2.86023e-15 
-3.25136 -4.92841 -4.43762e-16 
-3.05105 -4.99628 -4.222e-15 
-2.85201 -4.91432 -1.87882e-15 
-2.6529 -4.98812 -2.96757e-15 
-2.43728 -4.93672 -1.66023e-15 
-2.20291 -4.93896 1.16532e-15 
-1.98024 -4.97363 -3.25328e-16 
[...]
POINT_DATA 3402 
VECTORS vectors float
0.00127559 -0.000253885 0.999999 
0.00155617 -0.000265398 0.999999 
0.00158996 -0.000268255 0.999999 
0.00118532 -0.000168273 0.999999 
0.00110512 -7.30917e-05 0.999999 
0.00148855 -0.00012486 0.999999 
0.00120219 -3.17754e-05 0.999999 
0.00171333 -1.2341e-05 0.999999 
0.00135534 -9.30351e-06 0.999999 
0.00138006 8.09753e-05 0.999999 
0.00160511 0.000116644 0.999999 
0.00152172 0.000135642 0.999999 
0.00124138 0.000136342 0.999999 
0.00119976 0.000218276 0.999999 
0.00144329 0.000233839 0.999999 
0.000604728 9.68755e-05 1 
0.000932325 -0.000304061 1 
0.00130333 -0.000365315 0.999999 
0.00142851 -0.000406069 0.999999 
0.00110221 -0.000274134 0.999999 
0.0540068 -0.0127129 0.99846 
0.0571294 -0.011396 0.998302 
0.0574156 -0.00969874 0.998303 
0.0542066 -0.00725642 0.998503 
0.0580117 -0.00592114 0.998298 
0.0559485 -0.00389816 0.998426 
0.0582916 -0.0021876 0.998297 
0.0585358 -0.00043653 0.998285 
0.0565008 0.00134541 0.998402 
0.0584945 0.0032283 0.998283 
0.0574593 0.00491818 0.998336 
0.0575251 0.00670839 0.998322 
0.054935 0.00824529 0.998456 
0.0570335 0.0104911 0.998317 
0.0538801 0.0116556 0.998479 
0.0516365 0.0131422 0.998579 
0.00131174 0.000387126 0.999999 
0.00144028 0.000336693 0.999999 
0.000514905 0.000145055 1 
0.000854112 -0.000306185 1 
0.00109074 -0.000401998 0.999999 
0.0500832 -0.018994 0.998564 
0.0536008 -0.0182109 0.998396 
0.0546989 -0.0166363 0.998364 
0.0559848 -0.0151188 0.998317 
0.0683464 -0.016407 0.997527 
0.0691901 -0.0143068 0.997501 
0.0700858 -0.0120606 0.997468 
0.0690851 -0.00961981 0.997564 
0.070554 -0.00763852 0.997479 
0.0698456 -0.0052403 0.997544 
0.0703053 -0.00296214 0.997521 
0.0705633 -0.00069806 0.997507 
0.0699272 0.00154627 0.997551 
0.0702679 0.00378401 0.997521 
0.0697043 0.00604727 0.997549 
0.0697427 0.00837812 0.99753 
0.0687817 0.0105905 0.997576 
0.0690716 0.0131032 0.997526 
0.067869 0.0153483 0.997576 
0.06769 0.0176393 0.99755 
0.0577135 0.0166556 0.998194 
0.0513611 0.0165178 0.998544 
0.0516131 0.0186153 0.998494 
0.00159369 0.000621606 0.999999 
0.00140757 0.000455237 0.999999 
0.000330903 8.90105e-05 1 
0.000884941 -0.000376941 1 
0.000900066 -0.000409078 1 
0.0467657 -0.021555 0.998673 
0.0526954 -0.0220443 0.998367 
0.0650016 -0.0249799 0.997572 
0.066254 -0.0230255 0.997537 
0.0675 -0.0208879 0.997501 
0.0685375 -0.018786 0.997472 
0.0731614 -0.0182095 0.997154 
0.0737822 -0.0158398 0.997149 
0.0740558 -0.0133916 0.997164 
0.0741792 -0.010707 0.997187 
0.0744837 -0.00825654 0.997188 
0.0745441 -0.00574833 0.997201 
0.0746342 -0.00334808 0.997205 
0.0745558 -0.000891817 0.997216 
0.0744615 0.00159198 0.997223 
0.0745286 0.00410308 0.99721 
0.0742599 0.00657959 0.997217 
0.0738124 0.00898169 0.997232 
0.0734572 0.0113528 0.997234 
0.0732006 0.0139297 0.99722 
0.0724883 0.016369 0.997235 
0.0719767 0.0189534 0.997226 
0.0684266 0.0204331 0.997447 
0.0659082 0.02176 0.997588 
0.0660884 0.024076 0.997523 
0.0565477 0.0223949 0.998149 
0.0484394 0.0208525 0.998608 
0.0448846 0.0214605 0.998762 
0.000608639 0.000287523 1 
0.00112432 0.000526432 0.999999 
0.000838176 -0.000443208 1 
0.000655506 -0.000332362 1 
0.0443475 -0.0242586 0.998722 
0.0517815 -0.0260593 0.998318 
0.0627995 -0.0293911 0.997593 
0.0644559 -0.027631 0.997538 
0.0687838 -0.0277284 0.997246 
0.0702709 -0.0255053 0.997202 
0.0712969 -0.0231671 0.997186 
0.0723959 -0.0207683 0.99716 
0.0718905 -0.0185446 0.99724 
0.0719239 -0.0158884 0.997284 
0.0717402 -0.0133267 0.997334 
0.0726585 -0.0109351 0.997297 
0.0712709 -0.00835232 0.997422 
0.0716932 -0.00586386 0.997409 
0.0706037 -0.00339539 0.997499 
0.0702519 -0.000971478 0.997529 
0.070864 0.00152872 0.997485 
0.070354 0.00399905 0.997514 
0.0704664 0.00651923 0.997493 
0.07114 0.00910595 0.997425 
0.0717359 0.0116834 0.997355 
0.071125 0.0141894 0.997366 
0.0721213 0.0168342 0.997254 
0.071404 0.0193608 0.99726 
0.0720216 0.02173 0.997166 
0.0707315 0.0238852 0.997209 
0.0697807 0.0263062 0.997215 
0.0660695 0.0269269 0.997452 
0.0627451 0.0281699 0.997632 
0.061907 0.0304248 0.997618 
0.0478207 0.0252309 0.998537 
0.0474202 0.027089 0.998508 
0.000396138 0.000137991 1 
0.000596817 -0.000320301 1 
0.0427678 -0.0274414 0.998708 
0.0486877 -0.0289463 0.998395 
0.0600994 -0.0336559 0.997625 
0.0622617 -0.0322132 0.99754 
0.0661485 -0.032457 0.997282 
0.0678575 -0.0304292 0.997231 
0.0692277 -0.0288674 0.997183 
0.069945 -0.0263099 0.997204 
0.0704055 -0.0236617 0.997238 
0.0707648 -0.0211095 0.99727 
0.0640276 -0.0172036 0.9978 
0.0633866 -0.0145727 0.997883 
0.0620395 -0.0119112 0.998003 
0.0631557 -0.00978108 0.997956 
0.0602229 -0.0073174 0.998158 
0.0614943 -0.00535741 0.998093 
0.0597165 -0.00311998 0.998211 
0.0591739 -0.00096143 0.998247 
0.0601871 0.00121798 0.998186 
0.0597825 0.0034922 0.998205 
0.0601885 0.00577519 0.99817 
0.0611945 0.00810639 0.998093 
0.0625381 0.0105442 0.997987 
0.0620834 0.0128325 0.997988 
0.064168 0.0156099 0.997817 
0.063911 0.0181566 0.99779 
0.0697951 0.0219497 0.99732 
0.070188 0.0246465 0.997229 
0.0693432 0.0272124 0.997222 
0.0688666 0.0290463 0.997203 
0.0671055 0.0307144 0.997273 
0.065849 0.0330883 0.997281 
0.061532 0.033175 0.997554 
0.0596313 0.0351968 0.9976 
0.0420872 0.0261822 0.998771 
0.000844644 0.000518198 1 
0.000796467 0.000435565 1 
0.000310018 -0.000179998 1 
0.000452916 -0.000216112 1 
0.0444203 -0.0308655 0.998536 
0.0574102 -0.0380333 0.997626 
0.0593717 -0.0365299 0.997567 
0.0631118 -0.0371562 0.997315 
0.0649318 -0.0353134 0.997265 
0.0666073 -0.0339368 0.997202 
0.0674254 -0.0312914 0.997234 
0.0632555 -0.0272834 0.997624 
0.0628585 -0.0244892 0.997722 
0.0624167 -0.0217663 0.997813 
0.0620458 -0.0192032 0.997889 
0.0528937 -0.0149242 0.998489 
0.0529029 -0.0128857 0.998517 
0.051447 -0.0105534 0.99862 
0.0515606 -0.00847407 0.998634 
0.0494913 -0.00619347 0.998755 
0.0493418 -0.00420136 0.998773 
0.047974 -0.00228686 0.998846 
0.0479227 -0.00042948 0.998851 
0.0489738 0.00141817 0.998799 
0.0487115 0.00332799 0.998807 
0.0488535 0.00520388 0.998792 
0.0501396 0.0072354 0.998716 
0.0515231 0.00931099 0.998628 
0.0514792 0.0114162 0.998609 
0.0537678 0.0139228 0.998456 
0.0528595 0.0158105 0.998477 
0.0610054 0.0199695 0.997938 
0.0629405 0.0229956 0.997752 
0.0622753 0.0253394 0.997737 
0.0674984 0.0295345 0.997282 
0.0680394 0.0321742 0.997164 
0.0666211 0.0347965 0.997171 
0.0644219 0.0359037 0.997277 
0.0631459 0.0382537 0.997271 
0.0580818 0.0370031 0.997626 
0.0475526 0.0320946 0.998353 
0.0402516 0.0289955 0.998769 
0.00034009 0.000152787 1 
0.000532667 -0.000333856 1 
0.0412711 -0.0336701 0.998581 
0.0376301 -0.028351 0.998889 
0.0554432 -0.040289 0.997649 
0.059892 -0.0416993 0.997334 
0.0622556 -0.0401759 0.997251 
0.0639133 -0.0389008 0.997197 
0.0648458 -0.0364375 0.99723 
0.0616427 -0.0326693 0.997563 
0.0614553 -0.0298206 0.997664 
0.0543443 -0.0245883 0.998219 
0.0521709 -0.0212574 0.998412 
0.0516372 -0.0188908 0.998487 
0.0508296 -0.0165086 0.998571 
0.0432216 -0.0124765 0.998988 
0.0428742 -0.0105569 0.999025 
0.04137 -0.00864233 0.999107 
0.0424159 -0.00727374 0.999074 
0.0397362 -0.00543527 0.999195 
0.0403164 -0.00397001 0.999179 
0.0389356 -0.0023118 0.999239 
0.0387313 -0.000734553 0.999249 
0.0391443 0.000837524 0.999233 
0.0395332 0.00234733 0.999216 
0.0394167 0.00390613 0.999215 
0.0403318 0.0055995 0.999171 
0.0411975 0.00728686 0.999124 
0.0425459 0.0091109 0.999053 
0.0431012 0.011159 0.999008 
0.0429989 0.01281 0.998993 
0.0493132 0.0167909 0.998642 
0.0520484 0.0196162 0.998452 
0.0525511 0.0222236 0.998371 
0.0603478 0.0275403 0.997797 
0.063814 0.0316038 0.997461 
0.0626393 0.033944 0.997459 
0.0650626 0.0373131 0.997183 
0.0635818 0.0398012 0.997183 
0.0612826 0.0402489 0.997309 
0.0574566 0.0401094 0.997542 
0.0541499 0.04055 0.997709 
0.0385971 0.0302622 0.998797 
0.000163145 6.8278e-05 1 
0.000190704 -5.78842e-05 1 
0.0362798 -0.0318979 0.998832 
0.0521051 -0.0444145 0.997653 
0.0539244 -0.0420386 0.99766 
0.0587946 -0.0443426 0.997285 
0.061024 -0.0439232 0.997169 
0.0622396 -0.0417868 0.997186 
0.0602067 -0.0383654 0.997448 
0.0592454 -0.0348426 0.997635 
0.0529159 -0.0292107 0.998172 
0.0510966 -0.0257249 0.998362 
0.0445481 -0.0205999 0.998795 
0.042387 -0.0177424 0.998944 
0.0416001 -0.015597 0.999013 
0.0411489 -0.0137023 0.999059 
0.0347711 -0.0106017 0.999339 
0.0351627 -0.00921485 0.999339 
0.0331492 -0.00731722 0.999424 
0.0333833 -0.00596114 0.999425 
0.0315497 -0.00433085 0.999493 
0.0317923 -0.00306193 0.99949 
0.0308673 -0.00166642 0.999522 
0.030808 -0.000343976 0.999525 
0.0307267 0.000889463 0.999527 
0.0313969 0.00216315 0.999505 
0.0317479 0.00354011 0.99949 
0.0321892 0.00484805 0.99947 
0.0331128 0.00630153 0.999432 
0.035458 0.00821876 0.999337 
0.034248 0.00937584 0.999369 
0.0381509 0.0124169 0.999195 
0.0401348 0.0146382 0.999087 
0.0431882 0.017421 0.998915 
0.0417777 0.0187135 0.998952 
0.0494134 0.0232073 0.998509 
0.0544928 0.0276166 0.998132 
0.0540697 0.0300753 0.998084 
0.0601942 0.0359252 0.99754 
0.059728 0.0390946 0.997449 
0.0619556 0.0422111 0.997186 
0.0596136 0.0432071 0.997286 
0.057356 0.04458 0.997358 
0.0527639 0.0426773 0.997695 
0.0386769 0.0331073 0.998703 
0.00110904 0.000910221 0.999999 
0.000793139 0.000544611 1 
0.000243361 -0.000112759 1 
0.0355389 -0.0339539 0.998791 
0.0499017 -0.0458582 0.997701 
0.0549871 -0.048793 0.997294 
0.0565275 -0.0460841 0.997337 
0.058984 -0.0463855 0.997181 
0.0582177 -0.0436235 0.99735 
0.0569584 -0.0396564 0.997589 
0.051181 -0.0337872 0.998118 
0.050265 -0.0307278 0.998263 
0.0432164 -0.0251228 0.99875 
0.0424452 -0.0226238 0.998843 
0.0384181 -0.0189416 0.999082 
0.0348626 -0.0155218 0.999272 
0.0334893 -0.0133344 0.99935 
0.0329553 -0.0116542 0.999389 
0.0273565 -0.00866448 0.999588 
0.0272473 -0.00731355 0.999602 
0.0250868 -0.00567349 0.999669 
0.0253407 -0.00461771 0.999668 
0.0229404 -0.00327023 0.999731 
0.0233062 -0.00236734 0.999726 
0.0229374 -0.00138719 0.999736 
0.0227589 -0.000380054 0.999741 
0.0222506 0.000603905 0.999752 
0.0229055 0.00156668 0.999736 
0.0240124 0.00260681 0.999708 
0.0237394 0.00364211 0.999712 
0.0249345 0.00481789 0.999677 
0.0275228 0.00644498 0.9996 
0.0266708 0.00750406 0.999616 
0.0311986 0.0100203 0.999463 
0.0318799 0.0118444 0.999422 
0.0344237 0.0141972 0.999306 
0.0339611 0.0156334 0.999301 
0.0392438 0.0195983 0.999037 
0.044661 0.0235024 0.998726 
0.0450464 0.0261129 0.998644 
0.0521779 0.0321233 0.998121 
0.050818 0.0339764 0.99813 
0.058809 0.0416299 0.997401 
0.0601182 0.0447894 0.997186 
0.0586195 0.046593 0.997192 
0.0565166 0.047147 0.997288 
0.0527881 0.0459083 0.99755 
0.0446802 0.0407789 0.998169 
0.0340476 0.0326861 0.998886 
-0.000171723 -0.000306803 1 
6.66213e-05 6.66506e-05 1 
0.032325 -0.0335998 0.998912 
0.0474194 -0.0474773 0.997746 
0.0527261 -0.0505238 0.99733 
0.0552331 -0.0511254 0.997164 
0.0570917 -0.0484188 0.997194 
0.0561202 -0.045732 0.997376 
0.0506852 -0.0398262 0.99792 
0.049474 -0.0362697 0.998117 
0.0432259 -0.030065 0.998613 
0.0406145 -0.0260697 0.998835 
0.0351186 -0.0212493 0.999157 
0.0341469 -0.0189114 0.999238 
0.0313616 -0.0158294 0.999383 
0.0279076 -0.0128192 0.999528 
0.0260045 -0.0107969 0.999604 
0.0253575 -0.00933307 0.999635 
0.0194657 -0.00649507 0.999789 
0.0197014 -0.00563194 0.99979 
0.0173599 -0.00417989 0.999841 
0.0168381 -0.00325719 0.999853 
0.0150039 -0.0022159 0.999885 
0.014633 -0.00147972 0.999892 
0.014879 -0.00083567 0.999889 
0.0146925 -0.000168353 0.999892 
0.014082 0.000457469 0.999901 
0.0146742 0.00110884 0.999892 
0.0161316 0.00191438 0.999868 
0.0153884 0.00248853 0.999878 
0.0171765 0.00353492 0.999846 
0.0197271 0.00488567 0.999793 
0.0199544 0.00603841 0.999783 
0.0246069 0.00843836 0.999662 
0.0250747 0.00988405 0.999637 
0.0268782 0.0117312 0.99957 
0.0297698 0.0147888 0.999447 
0.0323504 0.0173623 0.999326 
0.0369495 0.020937 0.999098 
0.0353527 0.0218788 0.999135 
0.0420836 0.0267645 0.998756 
0.0408123 0.0282783 0.998767 
0.0499156 0.0360661 0.998102 
0.0544413 0.0418171 0.997641 
0.0551313 0.0454699 0.997443 
0.0564005 0.0489531 0.997207 
0.054347 0.0493019 0.997304 
0.0510477 0.0486677 0.99751 
0.0464625 0.0469168 0.997818 
0.0308418 0.0325366 0.998995 
0.000189677 0.000144103 1 
0.000270138 -0.000237462 1 
0.0313454 -0.0356619 0.998872 
0.0452027 -0.0490781 0.997772 
0.0505241 -0.0527814 0.997327 
0.052866 -0.0528425 0.997203 
0.0531321 -0.0513426 0.997267 
0.0550234 -0.0485267 0.997305 
0.0493267 -0.0423253 0.997885 
0.0424755 -0.0347912 0.998492 
0.0400024 -0.0304688 0.998735 
0.035305 -0.0250427 0.999063 
0.0324513 -0.0215587 0.999241 
0.0281687 -0.017486 0.99945 
0.0273497 -0.0155469 0.999505 
0.0245748 -0.0127853 0.999616 
0.0206179 -0.00991808 0.999738 
0.0182738 -0.00799069 0.999801 
0.0177354 -0.00690067 0.999819 
0.0123819 -0.00435132 0.999914 
0.0121844 -0.0036267 0.999919 
0.0103588 -0.00256009 0.999943 
0.00971392 -0.0019108 0.999951 
0.00832425 -0.00123491 0.999965 
0.00792194 -0.000790333 0.999968 
0.00817944 -0.000421348 0.999966 
0.00794008 -4.47048e-05 0.999968 
0.00753811 0.000303864 0.999972 
0.00820149 0.000712532 0.999966 
0.00892272 0.00116825 0.99996 
0.0090354 0.00162361 0.999958 
0.0105161 0.00237668 0.999942 
0.0133064 0.00360726 0.999905 
0.0115534 0.00368138 0.999926 
0.016448 0.00580243 0.999848 
0.018036 0.00718112 0.999812 
0.0190406 0.0086509 0.999781 
0.0236739 0.0116905 0.999651 
0.0246275 0.0136649 0.999603 
0.0288347 0.0171436 0.999437 
0.0283371 0.0184806 0.999428 
0.0333863 0.0228013 0.999182 
0.040577 0.030573 0.998709 
0.0457873 0.0363446 0.99829 
0.0470598 0.0400943 0.998087 
0.052314 0.0467838 0.997534 
0.0543833 0.0510179 0.997216 
0.052645 0.0516826 0.997275 
0.0506495 0.0522782 0.997347 
0.0459708 0.0496724 0.997707 
0.0347854 0.0397149 0.998605 
0.000752751 0.000808557 0.999999 
0.000506049 -0.000543188 1 
0.0327675 -0.0402705 0.998651 
0.0442521 -0.0519655 0.997668 
0.0484831 -0.0546601 0.997327 
0.0510533 -0.0551661 0.997171 
0.0517405 -0.0535644 0.997223 
0.0460126 -0.0464712 0.997859 
0.0495543 -0.0461669 0.997704 
0.0421374 -0.0390333 0.998349 
0.0386277 -0.0339511 0.998677 
0.0337776 -0.0277374 0.999044 
0.0316829 -0.0242624 0.999203 
0.0274427 -0.0198314 0.999427 
0.0249323 -0.0168215 0.999548 
0.0212022 -0.0131294 0.999689 
0.0198145 -0.0112705 0.99974 
0.0158141 -0.00834531 0.99984 
0.0122964 -0.00593171 0.999907 
0.0107004 -0.00459956 0.999932 
0.0084319 -0.00329076 0.999959 
0.00669924 -0.00219242 0.999975 
0.00571947 -0.00158317 0.999982 
0.00483459 -0.00107367 0.999988 
0.00414394 -0.000711666 0.999991 
0.00359389 -0.000428807 0.999993 
0.00362452 -0.000245025 0.999993 
0.00354413 -6.79864e-05 0.999994 
0.00340039 9.73991e-05 0.999994 
0.00362767 0.000285675 0.999993 
0.0038992 0.000496847 0.999992 
0.00447842 0.000776313 0.99999 
0.00511895 0.00116572 0.999986 
0.00682538 0.00187659 0.999975 
0.0061792 0.00206621 0.999979 
0.00958484 0.00363431 0.999947 
0.0119736 0.00513587 0.999915 
0.0130136 0.00633757 0.999895 
0.0178099 0.00937211 0.999797 
0.0174529 0.010161 0.999796 
0.0221117 0.013675 0.999662 
0.0223747 0.0152216 0.999634 
0.0268692 0.0194402 0.99945 
0.0329289 0.0246024 0.999155 
0.0351405 0.0286187 0.998973 
0.0379046 0.0326204 0.998749 
0.0428644 0.0393672 0.998305 
0.0494363 0.0474654 0.997649 
0.0517729 0.0523625 0.997285 
0.0511247 0.054354 0.997212 
0.049115 0.0546544 0.997297 
0.0451362 0.0528983 0.997579 
0.035144 0.0428954 0.998461 
0.00037386 0.00026038 1 
0.000415392 -0.000434836 1 
0.0318229 -0.0420973 0.998607 
0.0427935 -0.0544413 0.9976 
0.0466097 -0.0569567 0.997288 
0.0489403 -0.0570795 0.997169 
0.0490372 -0.0547079 0.997298 
0.0447281 -0.0482014 0.997836 
0.0383534 -0.0380445 0.99854 
0.0325507 -0.0308196 0.998995 
0.0306633 -0.0271138 0.999162 
0.0266651 -0.022066 0.999401 
0.0239852 -0.0187236 0.999537 
0.020072 -0.0147012 0.99969 
0.017967 -0.0121394 0.999765 
0.0137857 -0.0086161 0.999868 
0.0116913 -0.00677363 0.999909 
0.00842832 -0.00449073 0.999954 
0.00635067 -0.00304046 0.999975 
0.00420066 -0.00184542 0.999989 
0.00415002 -0.0015709 0.99999 
0.0026866 -0.000885747 0.999996 
0.00227084 -0.000620892 0.999997 
0.00167856 -0.000368829 0.999999 
0.00135622 -0.000223456 0.999999 
0.00113356 -0.000122126 0.999999 
0.00103588 -5.56023e-05 0.999999 
0.000982173 -1.61348e-06 1 
0.00108919 5.60071e-05 0.999999 
0.00114631 0.000119278 0.999999 
0.00128883 0.000198803 0.999999 
0.00196687 0.000399767 0.999998 
0.00182259 0.000460914 0.999998 
0.00310393 0.000909859 0.999995 
0.00269432 0.000956216 0.999996 
0.00491218 0.00196632 0.999986 
0.00676532 0.00306341 0.999972 
0.00695491 0.0035524 0.99997 
0.0108848 0.00599483 0.999923 
0.0114683 0.00703168 0.99991 
0.0158947 0.0104124 0.999819 
0.018539 0.0135176 0.999737 
0.0224948 0.0174456 0.999595 
0.0281928 0.0225124 0.999349 
0.0282022 0.0243708 0.999305 
0.0328816 0.0299247 0.999011 
0.0370776 0.0359039 0.998667 
0.043702 0.0441905 0.998067 
0.0466917 0.049781 0.997668 
0.0489425 0.05484 0.997295 
0.048407 0.0566912 0.997218 
0.0463071 0.057157 0.997291 
0.0421925 0.0541246 0.997642 
0.0282144 0.0373187 0.998905 
0.000110191 0.000133319 1 
0.000278917 -0.000304075 1 
0.0291266 -0.0417449 0.998704 
0.0403519 -0.0558157 0.997625 
0.0441289 -0.0587129 0.997299 
0.0463607 -0.0591426 0.997172 
0.0465955 -0.0566087 0.997309 
0.0429127 -0.0502275 0.997815 
0.036497 -0.0415615 0.998469 
0.0358071 -0.0382133 0.998628 
0.0301374 -0.0307641 0.999072 
0.0259632 -0.0249751 0.999351 
0.0242199 -0.021719 0.999471 
0.0197209 -0.016871 0.999663 
0.0171817 -0.0137394 0.999758 
0.0134118 -0.00996823 0.99986 
0.0110531 -0.0075841 0.99991 
0.00714298 -0.00459798 0.999964 
0.00577778 -0.00340835 0.999978 
0.0038331 -0.00205046 0.999991 
0.00222748 -0.00110769 0.999997 
0.00166364 -0.000721542 0.999998 
0.00117943 -0.000454791 0.999999 
0.000605652 -0.000207482 1 
0.000276899 -8.61342e-05 1 
-8.72426e-05 5.09408e-06 1 
-0.000271406 3.06995e-05 1 
-0.000547392 4.26477e-05 1 
-0.000672337 2.06801e-05 1 
-0.000532107 -9.92129e-06 1 
-0.000449707 -3.05572e-05 1 
-0.000386727 -4.38482e-05 1 
0.00017727 4.45043e-05 1 
0.000281188 8.4706e-05 1 
0.000920349 0.000304028 1 
0.000582717 0.000233305 1 
0.00184326 0.000777355 0.999998 
0.00295237 0.00139288 0.999995 
0.00340324 0.00183175 0.999993 
0.00609836 0.00356122 0.999975 
0.00617208 0.0039996 0.999973 
0.00983746 0.00674347 0.999929 
0.0131539 0.00964815 0.999867 
0.0163147 0.0132143 0.99978 
0.0220564 0.0186846 0.999582 
0.0244936 0.0225881 0.999445 
0.0287313 0.0278432 0.999199 
0.0297735 0.0307434 0.999084 
0.0357247 0.0374901 0.998658 
0.0389641 0.0433223 0.998301 
0.0432807 0.050442 0.997789 
0.0462019 0.0563993 0.997339 
0.0459982 0.0590648 0.997194 
0.044027 0.058578 0.997312 
0.0401226 0.05522 0.997668 
0.0305144 0.0438076 0.998574 
0.000716246 0.000960698 0.999999 
0.000486906 -0.000722734 1 
0.0278654 -0.0434465 0.998667 
0.0381994 -0.0571911 0.997632 
0.04176 -0.0603351 0.997304 
0.0438926 -0.0609005 0.997178 
0.043415 -0.0576731 0.997391 
0.0402864 -0.0513065 0.99787 
0.0346479 -0.0427148 0.998486 
0.029092 -0.034143 0.998993 
0.0279706 -0.0307711 0.999135 
0.0237554 -0.0246597 0.999414 
0.0198265 -0.0192529 0.999618 
0.0165826 -0.0153109 0.999745 
0.0125595 -0.0108533 0.999862 
0.0100787 -0.0080958 0.999916 
0.00704289 -0.0052304 0.999962 
0.00449569 -0.00313574 0.999985 
0.002733 -0.00175116 0.999995 
0.0021177 -0.00123773 0.999997 
0.000778617 -0.000433957 1 
0.000534482 -0.000271756 1 
-8.5687e-05 1.49813e-05 1 
-0.000364547 0.000107952 1 
-0.000932615 0.000259403 1 
-0.00135253 0.000308968 0.999999 
-0.00176137 0.000301441 0.999998 
-0.00221474 0.000257169 0.999998 
-0.00274421 0.000163821 0.999996 
-0.0026937 7.66927e-06 0.999996 
-0.0024464 -0.00013012 0.999997 
-0.00227426 -0.000250714 0.999997 
-0.00207391 -0.000346071 0.999998 
-0.00116321 -0.000235837 0.999999 
-0.00138576 -0.000357739 0.999999 
-0.000423506 -0.000117676 1 
-0.000513354 -0.000182639 1 
0.000397023 0.000195599 1 