# vtk DataFile Version 3.0 
Exported using Morpho https://github.com/Morpho-lang/morpho 
ASCII 
DATASET UNSTRUCTURED_GRID 

POINTS 3402 float 
-1.58244 -6.89173 3.17155e-09 
-1.37896 -6.93531 -2.31107e-09 
-1.17602 -6.97259 1.32013e-09 
-0.971328 -7.00404 1.5106e-09 
-0.732757 -7.033 -3.72236e-09 
-0.525979 -7.05148 4.27767e-09 
-0.301534 -7.06464 -3.00066e-09 
-0.0954498 -7.07042 2.94179e-09 
0.109207 -7.07022 -1.00853e-09 
0.329646 -7.06338 -1.60056e-09 
0.531599 -7.05106 2.4197e-09 
0.740599 -7.03218 -3.84371e-09 
0.945652 -7.00755 2.93054e-09 
1.17498 -6.97276 -1.43767e-09 
1.38128 -6.93485 2.10549e-09 
1.61073 -6.88517 -1.18118e-09 
-2.42543 -6.64208 -2.65021e-09 
-2.2182 -6.71413 1.50851e-09 
-2.01089 -6.77911 1.1455e-09 
-1.80712 -6.83625 -3.25277e-09 
-1.57746 -6.67595 -2.42966e-14 
-1.34816 -6.70434 -3.25192e-13 
-1.13534 -6.73506 8.20929e-14 
-0.907615 -6.80233 -3.94505e-13 
-0.685681 -6.79921 -6.83812e-13 
-0.465247 -6.83035 -1.84366e-14 
-0.254979 -6.81944 -6.3004e-13 
-0.0472415 -6.8224 -8.16461e-14 
0.169521 -6.83851 2.20932e-14 
0.378995 -6.81111 -4.32964e-13 
0.586565 -6.80295 6.21194e-15 
0.793103 -6.77966 -1.33699e-15 
1.01427 -6.77675 -6.09487e-15 
1.22893 -6.72029 -2.82425e-13 
1.44972 -6.70372 6.35566e-13 
1.68837 -6.66417 -3.41454e-13 
1.85585 -6.82318 5.39133e-10 
2.04433 -6.7691 -1.70137e-09 
2.27916 -6.69369 1.51881e-09 
-2.85358 -6.46971 -2.39709e-09 
-2.65665 -6.55303 2.49202e-09 
-2.44703 -6.42674 1.4731e-13 
-2.21259 -6.48272 -4.30187e-15 
-1.99876 -6.54656 1.23756e-13 
-1.78589 -6.60104 6.21014e-13 
-1.54422 -6.45072 4.98342e-13 
-1.33245 -6.48854 7.63628e-13 
-1.1096 -6.50495 2.31065e-13 
-0.90384 -6.58004 4.6339e-13 
-0.69957 -6.55613 1.46103e-14 
-0.489812 -6.59709 -2.53721e-13 
-0.275449 -6.57822 -2.74056e-13 
-0.0654757 -6.57753 -2.53005e-13 
0.145499 -6.59985 -2.52416e-13 
0.356947 -6.57363 3.08989e-13 
0.568338 -6.55883 -9.77611e-14 
0.78757 -6.54996 2.3396e-13 
1.00884 -6.54565 -2.51144e-13 
1.22935 -6.49246 -7.41601e-14 
1.46335 -6.49168 -3.83993e-13 
1.67528 -6.42946 2.77013e-13 
1.8886 -6.55308 -1.49484e-13 
2.11002 -6.53974 2.40343e-13 
2.33202 -6.45698 -5.314e-13 
2.50222 -6.61354 -7.96617e-10 
2.678 -6.54433 -2.20621e-09 
2.91078 -6.44417 2.67122e-09 
-3.2823 -6.26311 -6.1431e-10 
-3.09662 -6.35696 1.2943e-09 
-2.88856 -6.25298 4.45703e-14 
-2.65039 -6.30976 1.37391e-13 
-2.40093 -6.21219 -5.55592e-14 
-2.19039 -6.27503 2.67014e-13 
-1.96379 -6.32433 2.78789e-13 
-1.75172 -6.37512 6.85818e-14 
-1.55416 -6.21469 -4.45981e-13 
-1.34391 -6.25644 -3.28282e-13 
-1.13206 -6.28086 -2.10748e-13 
-0.908739 -6.33748 -2.55766e-13 
-0.691998 -6.32382 1.04901e-14 
-0.481222 -6.36062 2.04862e-13 
-0.275815 -6.3344 1.83972e-13 
-0.07001 -6.33638 2.55575e-14 
0.138966 -6.35992 1.33922e-13 
0.347579 -6.33467 -2.25492e-13 
0.557331 -6.3205 6.49258e-14 
0.768538 -6.32029 -1.46069e-13 
0.985571 -6.32178 1.08878e-12 
1.1971 -6.26511 4.93998e-13 
1.41589 -6.27552 5.75586e-14 
1.63342 -6.21445 -6.08015e-14 
1.88168 -6.31579 -2.66564e-13 
2.09006 -6.32258 -2.05667e-13 
2.28349 -6.22751 6.41901e-13 
2.51476 -6.33307 1.07387e-13 
2.73297 -6.31282 1.07816e-12 
2.97939 -6.22096 -3.38854e-14 
3.16341 -6.32399 1.48868e-09 
3.37689 -6.21262 -3.31518e-09 
-3.71349 -6.01748 -3.92404e-10 
-3.5264 -6.12899 -4.19222e-10 
-3.31173 -6.04659 -1.16962e-13 
-3.07557 -6.10393 2.36742e-13 
-2.83221 -6.03514 8.76333e-14 
-2.62707 -6.10556 2.42129e-13 
-2.42941 -5.98659 -3.55781e-13 
-2.20926 -6.03829 -4.3035e-13 
-1.998 -6.10033 -4.28681e-13 
-1.77285 -6.14028 -2.3888e-13 
-1.55069 -5.99607 1.63954e-13 
-1.32909 -6.02879 2.723e-13 
-1.11851 -6.05054 4.3712e-14 
-0.911867 -6.11361 1.70414e-13 
-0.703952 -6.08859 9.49145e-14 
-0.493418 -6.12153 -1.94753e-13 
-0.284499 -6.09871 -6.37156e-14 
-0.0744143 -6.09555 2.49105e-13 
0.134046 -6.11968 -1.85059e-13 
0.342906 -6.09721 -3.36321e-14 
0.556271 -6.08691 -2.55966e-13 
0.771981 -6.09187 -1.90324e-13 
0.987045 -6.09096 -1.5806e-13 
1.20005 -6.03378 -9.02269e-16 
1.41057 -6.05099 -1.11886e-13 
1.62112 -5.98528 -3.20466e-14 
1.8384 -6.09849 -1.03425e-13 
2.06027 -6.08601 1.3778e-13 
2.28025 -6.00867 7.31064e-13 
2.50086 -6.11302 1.02223e-13 
2.73987 -6.11078 -1.01154e-12 
2.96335 -6.01245 4.17768e-13 
3.20169 -6.07862 -7.11458e-13 
3.40908 -5.95764 7.20387e-13 
3.58029 -6.09766 1.4711e-09 
-3.9445 -5.86864 -7.10053e-10 
-3.72645 -5.79942 -2.19356e-13 
-3.49842 -5.88363 2.82754e-13 
-3.26551 -5.82748 5.29797e-14 
-3.05605 -5.89742 9.98196e-14 
-2.85745 -5.80242 -2.79644e-13 
-2.64086 -5.86154 -1.81642e-13 
-2.41444 -5.76982 4.77537e-13 
-2.19905 -5.81759 2.41601e-13 
-1.98483 -5.87261 1.39983e-13 
-1.77504 -5.92196 1.07855e-13 
-1.56101 -5.78001 -2.2764e-13 
-1.33682 -5.81296 -2.14221e-14 
-1.11427 -5.82147 -7.6942e-14 
-0.905228 -5.87948 -1.65208e-13 
-0.70295 -5.84742 -9.70865e-14 
-0.50223 -5.887 8.62536e-14 
-0.294359 -5.86486 2.11293e-13 
-0.0848682 -5.86175 1.96974e-13 
0.126562 -5.8827 3.22611e-13 
0.341455 -5.86857 9.0437e-14 
0.55437 -5.8571 3.62314e-14 
0.765121 -5.8645 -1.14324e-13 
0.977361 -5.86563 -2.17569e-13 
1.19469 -5.8149 -2.13955e-13 
1.4169 -5.8205 3.63593e-13 
1.63866 -5.76441 1.91359e-13 
1.84687 -5.87876 -3.93722e-13 
2.06296 -5.86478 8.0192e-14 
2.27003 -5.78513 -4.25723e-13 
2.49093 -5.88899 1.05531e-13 
2.71022 -5.90704 -8.1373e-14 
2.92474 -5.80444 1.77211e-13 
3.16556 -5.86514 -3.79393e-15 
3.39699 -5.7541 -1.98735e-13 
3.64255 -5.86227 -3.84053e-13 
3.82281 -5.94863 7.45511e-10 
3.99822 -5.83217 1.77057e-09 
-4.38589 -5.54653 1.63873e-11 
-4.13865 -5.73337 1.66268e-11 
-3.92003 -5.63741 -3.9068e-13 
-3.6919 -5.57713 1.12333e-13 
-3.48987 -5.67057 5.91344e-14 
-3.29474 -5.59083 -2.36315e-13 
-3.08057 -5.6572 -1.71586e-13 
-2.85125 -5.59023 2.54012e-13 
-2.62405 -5.63813 1.36273e-13 
-2.40661 -5.55047 5.66547e-14 
-2.19506 -5.59362 -2.03961e-13 
-1.98324 -5.64641 -1.64523e-13 
-1.77192 -5.69303 5.95204e-14 
-1.5746 -5.55089 -1.81887e-14 
-1.36477 -5.59708 3.47914e-14 
-1.14531 -5.60597 1.37068e-13 
-0.918955 -5.64456 1.07395e-13 
-0.69491 -5.63182 7.56519e-14 
-0.473951 -5.65069 -4.79421e-14 
-0.262313 -5.63325 -1.91971e-14 
-0.0479765 -5.6354 -7.50002e-14 
0.161966 -5.65477 -7.52129e-14 
0.376342 -5.64123 -2.56618e-13 
0.58986 -5.62971 -2.99873e-14 
0.799776 -5.63855 -2.82371e-13 
1.00694 -5.63783 -2.38789e-13 
1.23892 -5.603 1.87576e-14 
1.44932 -5.59645 -2.37079e-13 
1.65834 -5.53484 -4.11787e-14 
1.85575 -5.65428 3.37978e-13 
2.05598 -5.63309 -5.60144e-13 
2.26447 -5.56272 -6.10189e-13 
2.48059 -5.66725 -1.91476e-13 
2.69956 -5.68609 4.73264e-13 
2.92989 -5.59536 -5.85441e-14 
3.15833 -5.66139 -1.7203e-13 
3.35693 -5.53421 6.65485e-14 
3.59464 -5.64341 1.82612e-13 
3.82063 -5.67338 -3.35858e-14 
4.03676 -5.5934 7.68878e-13 
4.22819 -5.66767 -1.16463e-09 
-4.5733 -5.39304 -3.15516e-10 
-4.34023 -5.32274 5.15659e-13 
-4.1614 -5.51897 -7.49638e-15 
-3.9354 -5.42905 7.66777e-13 
-3.72714 -5.35679 -2.01538e-13 
-3.50056 -5.42315 -2.78194e-13 
-3.2726 -5.37768 -6.88968e-14 
-3.05138 -5.43777 9.76091e-13 
-2.84272 -5.35662 5.01223e-13 
-2.64313 -5.42209 -8.39695e-13 
-2.42927 -5.34263 4.06292e-13 
-2.20398 -5.36517 -1.24002e-13 
-1.99716 -5.41651 -5.33367e-14 
-1.78702 -5.462 -8.25186e-14 
-1.55 -5.34264 -1.08411e-13 
-1.32733 -5.38336 3.30887e-15 
-1.12152 -5.37525 -4.61456e-14 
-0.925208 -5.43321 2.29194e-14 
-0.731996 -5.39352 4.86019e-14 
-0.528941 -5.42797 1.47636e-14 
-0.319495 -5.41162 6.52747e-15 
-0.104008 -5.41112 1.17896e-14 
0.112479 -5.42197 1.57024e-14 
0.317687 -5.42229 7.42722e-14 
0.531164 -5.41054 2.48418e-14 
0.748727 -5.41034 1.67574e-13 
0.95397 -5.40915 7.42622e-14 
1.1609 -5.41527 2.10459e-13 
1.39511 -5.37613 1.76047e-13 
1.59608 -5.32959 1.17752e-13 
1.84985 -5.41469 -6.08484e-14 
2.05668 -5.40681 7.6039e-13 
2.28001 -5.35176 5.30097e-13 
2.49208 -5.45505 -3.25841e-13 
2.71505 -5.47126 8.54416e-15 
2.91408 -5.36747 1.10872e-13 
3.12629 -5.44165 1.075e-13 
3.33326 -5.31813 5.8601e-14 
3.56977 -5.42993 1.87766e-13 
3.79863 -5.45499 -6.73412e-13 
4.027 -5.38267 -4.08746e-13 
4.25846 -5.42245 -1.41686e-13 
4.44919 -5.49588 1.30447e-10 
-4.79357 -5.19824 -4.89801e-10 
-4.56397 -5.18269 -2.97415e-13 
-4.34803 -5.10018 2.08877e-13 
-4.12327 -5.28802 -2.34765e-13 
-3.91226 -5.19032 -3.87986e-14 
-3.68804 -5.13312 2.82629e-13 
-3.48971 -5.21102 6.64015e-13 
-3.27966 -5.15136 7.84242e-14 
-3.07265 -5.21631 -7.21302e-13 
-2.85369 -5.14952 -7.01364e-13 
-2.62209 -5.18939 1.47316e-13 
-2.3938 -5.13708 -5.89674e-13 
-2.17501 -5.15213 -2.19423e-13 
-1.96199 -5.19679 -9.73234e-14 
-1.75537 -5.24435 -1.52497e-14 
-1.55769 -5.1137 8.47761e-14 
-1.35236 -5.17074 1.02409e-13 
-1.1363 -5.15038 5.08425e-15 
-0.925769 -5.19183 -1.81789e-14 
-0.710256 -5.17296 -4.53951e-14 
-0.501458 -5.19949 -1.46465e-15 
-0.285127 -5.19218 -7.49062e-14 
-0.0660555 -5.19478 -7.16725e-14 
0.140736 -5.1922 -8.90409e-14 
0.351389 -5.19974 -1.08042e-14 
0.572734 -5.19609 -5.5336e-14 
0.777189 -5.18011 -3.33978e-14 
0.985171 -5.18562 -8.45726e-14 
1.20561 -5.21124 -9.81221e-14 
1.40907 -5.14296 -3.23472e-15 
1.69183 -5.17822 6.52918e-15 
1.89624 -5.1879 -1.17841e-13 
2.10728 -5.18672 2.84486e-13 
2.29234 -5.09744 -1.4377e-14 
2.4646 -5.22115 1.63887e-13 
2.66806 -5.25909 -3.50746e-13 
2.87445 -5.16406 -3.54839e-13 
3.11687 -5.21691 -7.60375e-14 
3.34606 -5.10551 1.43955e-13 
3.56408 -5.22599 2.48069e-13 
3.80083 -5.24181 3.10391e-13 
4.01431 -5.16105 9.42858e-14 
4.23543 -5.20623 1.49447e-12 
4.46555 -5.24554 -1.61455e-12 
4.65664 -5.32125 -5.42812e-10 
4.79541 -5.19654 -3.36786e-10 
-4.99423 -5.00577 5.38056e-10 
-4.7648 -4.98713 6.75393e-15 
-4.54867 -4.95658 3.36018e-13 
-4.3288 -4.8717 -2.6928e-13 
-4.13538 -5.06385 -4.56098e-13 
-3.91298 -4.97781 2.07903e-13 
-3.68905 -4.92353 -3.15364e-13 
-3.46577 -4.97847 -2.93189e-13 
-3.25154 -4.92852 4.707e-14 
-3.04958 -4.99495 4.16976e-13 
-2.85227 -4.91306 1.89919e-13 
-2.65516 -4.98633 2.98103e-13 
-2.43769 -4.93959 1.53373e-13 
-2.20174 -4.93848 -1.09574e-13 
-1.97953 -4.97296 3.24383e-14 
[...]
POINT_DATA 3402 
VECTORS vectors float
0.00127559 -0.000253885 0.999999 
0.00155617 -0.000265398 0.999999 
0.00158996 -0.000268255 0.999999 
0.00118532 -0.000168273 0.999999 
0.00110512 -7.30917e-05 0.999999 
0.00148855 -0.00012486 0.999999 
0.00120219 -3.17754e-05 0.999999 
0.00171333 -1.2341e-05 0.999999 
0.00135534 -9.30351e-06 0.999999 
0.00138006 8.09753e-05 0.999999 
0.00160511 0.000116644 0.999999 
0.00152172 0.000135642 0.999999 
0.00124138 0.000136342 0.999999 
0.00119976 0.000218276 0.999999 
0.00144329 0.000233839 0.999999 
0.000604729 9.68755e-05 1 
0.000932325 -0.000304061 1 
0.00130333 -0.000365316 0.999999 
0.00142851 -0.000406069 0.999999 
0.00110221 -0.000274134 0.999999 
0.0540068 -0.0127129 0.99846 
0.0571294 -0.011396 0.998302 
0.0574156 -0.00969874 0.998303 
0.0542066 -0.00725642 0.998503 
0.0580117 -0.00592114 0.998298 
0.0559485 -0.00389816 0.998426 
0.0582916 -0.0021876 0.998297 
0.0585358 -0.00043653 0.998285 
0.0565008 0.00134541 0.998402 
0.0584945 0.0032283 0.998283 
0.0574593 0.00491818 0.998336 
0.0575251 0.00670839 0.998322 
0.054935 0.00824529 0.998456 
0.0570335 0.0104911 0.998317 
0.0538801 0.0116556 0.998479 
0.0516365 0.0131422 0.998579 
0.00131174 0.000387126 0.999999 
0.00144028 0.000336693 0.999999 
0.000514906 0.000145055 1 
0.000854112 -0.000306185 1 
0.00109074 -0.000401998 0.999999 
0.0500832 -0.018994 0.998564 
0.0536008 -0.0182109 0.998396 
0.0546989 -0.0166363 0.998364 
0.0559848 -0.0151188 0.998317 
0.0683464 -0.016407 0.997527 
0.0691901 -0.0143068 0.997501 
0.0700858 -0.0120606 0.997468 
0.0690851 -0.00961981 0.997564 
0.070554 -0.00763852 0.997479 
0.0698456 -0.0052403 0.997544 
0.0703053 -0.00296214 0.997521 
0.0705633 -0.00069806 0.997507 
0.0699272 0.00154627 0.997551 
0.0702679 0.00378401 0.997521 
0.0697043 0.00604727 0.997549 
0.0697427 0.00837812 0.99753 
0.0687817 0.0105905 0.997576 
0.0690716 0.0131032 0.997526 
0.067869 0.0153483 0.997576 
0.06769 0.0176393 0.99755 
0.0577135 0.0166556 0.998194 
0.0513611 0.0165178 0.998544 
0.0516131 0.0186153 0.998494 
0.00159369 0.000621606 0.999999 
0.00140757 0.000455237 0.999999 
0.000330903 8.90105e-05 1 
0.000884941 -0.000376941 1 
0.000900066 -0.000409078 1 
0.0467657 -0.021555 0.998673 
0.0526954 -0.0220443 0.998367 
0.0650016 -0.0249799 0.997572 
0.066254 -0.0230255 0.997537 
0.0675 -0.0208879 0.997501 
0.0685375 -0.018786 0.997472 
0.0731614 -0.0182095 0.997154 
0.0737822 -0.0158398 0.997149 
0.0740558 -0.0133916 0.997164 
0.0741792 -0.010707 0.997187 
0.0744837 -0.00825654 0.997188 
0.0745441 -0.00574833 0.997201 
0.0746342 -0.00334808 0.997205 
0.0745558 -0.000891817 0.997216 
0.0744615 0.00159198 0.997223 
0.0745286 0.00410308 0.99721 
0.0742599 0.00657959 0.997217 
0.0738124 0.00898169 0.997232 
0.0734572 0.0113528 0.997234 
0.0732006 0.0139297 0.99722 
0.0724883 0.016369 0.997235 
0.0719767 0.0189534 0.997226 
0.0684266 0.0204331 0.997447 
0.0659082 0.02176 0.997588 
0.0660884 0.024076 0.997523 
0.0565477 0.0223949 0.998149 
0.0484394 0.0208525 0.998608 
0.0448846 0.0214605 0.998762 
0.000608639 0.000287523 1 
0.00112432 0.000526432 0.999999 
0.000838176 -0.000443208 1 
0.000655506 -0.000332362 1 
0.0443475 -0.0242586 0.998722 
0.0517815 -0.0260593 0.998318 
0.0627995 -0.0293911 0.997593 
0.0644559 -0.027631 0.997538 
0.0687838 -0.0277284 0.997246 
0.0702709 -0.0255053 0.997202 
0.0712969 -0.0231671 0.997186 
0.0723959 -0.0207683 0.99716 
0.0718905 -0.0185446 0.99724 
0.0719239 -0.0158884 0.997284 
0.0717402 -0.0133267 0.997334 
0.0726585 -0.0109351 0.997297 
0.0712709 -0.00835232 0.997422 
0.0716932 -0.00586386 0.997409 
0.0706037 -0.00339539 0.997499 
0.0702519 -0.000971478 0.997529 
0.070864 0.00152872 0.997485 
0.070354 0.00399905 0.997514 
0.0704664 0.00651923 0.997493 
0.07114 0.00910595 0.997425 
0.0717359 0.0116834 0.997355 
0.071125 0.0141894 0.997366 
0.0721213 0.0168342 0.997254 
0.071404 0.0193608 0.99726 
0.0720216 0.02173 0.997166 
0.0707315 0.0238852 0.997209 
0.0697807 0.0263062 0.997215 
0.0660695 0.0269269 0.997452 
0.0627451 0.0281699 0.997632 
0.061907 0.0304248 0.997618 
0.0478207 0.0252309 0.998537 
0.0474202 0.027089 0.998508 
0.000396139 0.000137991 1 
0.000596817 -0.000320301 1 
0.0427678 -0.0274414 0.998708 
0.0486877 -0.0289463 0.998395 
0.0600994 -0.0336559 0.997625 
0.0622617 -0.0322132 0.99754 
0.0661485 -0.032457 0.997282 
0.0678575 -0.0304292 0.997231 
0.0692277 -0.0288674 0.997183 
0.069945 -0.0263099 0.997204 
0.0704055 -0.0236617 0.997238 
0.0707648 -0.0211095 0.99727 
0.0640276 -0.0172036 0.9978 
0.0633866 -0.0145727 0.997883 
0.0620395 -0.0119112 0.998003 
0.0631557 -0.00978108 0.997956 
0.0602229 -0.0073174 0.998158 
0.0614943 -0.00535741 0.998093 
0.0597165 -0.00311998 0.998211 
0.0591739 -0.00096143 0.998247 
0.0601871 0.00121798 0.998186 
0.0597825 0.0034922 0.998205 
0.0601885 0.00577519 0.99817 
0.0611945 0.00810639 0.998093 
0.0625381 0.0105442 0.997987 
0.0620834 0.0128325 0.997988 
0.064168 0.0156099 0.997817 
0.063911 0.0181566 0.99779 
0.0697951 0.0219497 0.99732 
0.070188 0.0246465 0.997229 
0.0693432 0.0272124 0.997222 
0.0688666 0.0290463 0.997203 
0.0671055 0.0307144 0.997273 
0.065849 0.0330883 0.997281 
0.061532 0.033175 0.997554 
0.0596313 0.0351968 0.9976 
0.0420872 0.0261822 0.998771 
0.000844644 0.000518199 1 
0.000796467 0.000435565 1 
0.000310018 -0.000179998 1 
0.000452916 -0.000216112 1 
0.0444203 -0.0308655 0.998536 
0.0574102 -0.0380333 0.997626 
0.0593717 -0.0365299 0.997567 
0.0631118 -0.0371562 0.997315 
0.0649318 -0.0353134 0.997265 
0.0666073 -0.0339368 0.997202 
0.0674254 -0.0312914 0.997234 
0.0632555 -0.0272834 0.997624 
0.0628585 -0.0244892 0.997722 
0.0624167 -0.0217663 0.997813 
0.0620458 -0.0192032 0.997889 
0.0528937 -0.0149242 0.998489 
0.0529029 -0.0128857 0.998517 
0.051447 -0.0105534 0.99862 
0.0515606 -0.00847407 0.998634 
0.0494913 -0.00619347 0.998755 
0.0493418 -0.00420136 0.998773 
0.047974 -0.00228686 0.998846 
0.0479227 -0.00042948 0.998851 
0.0489738 0.00141817 0.998799 
0.0487115 0.00332799 0.998807 
0.0488535 0.00520388 0.998792 
0.0501396 0.0072354 0.998716 
0.0515231 0.00931099 0.998628 
0.0514792 0.0114162 0.998609 
0.0537678 0.0139228 0.998456 
0.0528595 0.0158105 0.998477 
0.0610054 0.0199695 0.997938 
0.0629405 0.0229956 0.997752 
0.0622753 0.0253394 0.997737 
0.0674984 0.0295345 0.997282 
0.0680394 0.0321742 0.997164 
0.0666211 0.0347965 0.997171 
0.0644219 0.0359037 0.997277 
0.0631459 0.0382537 0.997271 
0.0580818 0.0370031 0.997626 
0.0475526 0.0320946 0.998353 
0.0402516 0.0289955 0.998769 
0.00034009 0.000152787 1 
0.000532667 -0.000333856 1 
0.0412711 -0.0336701 0.998581 
0.0376301 -0.028351 0.998889 
0.0554432 -0.040289 0.997649 
0.059892 -0.0416993 0.997334 
0.0622556 -0.0401759 0.997251 
0.0639133 -0.0389008 0.997197 
0.0648458 -0.0364375 0.99723 
0.0616427 -0.0326693 0.997563 
0.0614553 -0.0298206 0.997664 
0.0543443 -0.0245883 0.998219 
0.0521709 -0.0212574 0.998412 
0.0516372 -0.0188908 0.998487 
0.0508296 -0.0165086 0.998571 
0.0432216 -0.0124765 0.998988 
0.0428742 -0.0105569 0.999025 
0.04137 -0.00864233 0.999107 
0.0424159 -0.00727374 0.999074 
0.0397362 -0.00543527 0.999195 
0.0403164 -0.00397001 0.999179 
0.0389356 -0.0023118 0.999239 
0.0387313 -0.000734553 0.999249 
0.0391443 0.000837524 0.999233 
0.0395332 0.00234733 0.999216 
0.0394167 0.00390613 0.999215 
0.0403318 0.0055995 0.999171 
0.0411975 0.00728686 0.999124 
0.0425459 0.0091109 0.999053 
0.0431012 0.011159 0.999008 
0.0429989 0.01281 0.998993 
0.0493132 0.0167909 0.998642 
0.0520484 0.0196162 0.998452 
0.0525511 0.0222236 0.998371 
0.0603478 0.0275403 0.997797 
0.063814 0.0316038 0.997461 
0.0626393 0.033944 0.997459 
0.0650626 0.0373131 0.997183 
0.0635818 0.0398012 0.997183 
0.0612826 0.0402489 0.997309 
0.0574566 0.0401094 0.997542 
0.0541499 0.04055 0.997709 
0.0385971 0.0302622 0.998797 
0.000163145 6.8278e-05 1 
0.000190704 -5.78842e-05 1 
0.0362798 -0.0318979 0.998832 
0.0521051 -0.0444145 0.997653 
0.0539244 -0.0420386 0.99766 
0.0587946 -0.0443426 0.997285 
0.061024 -0.0439232 0.997169 
0.0622396 -0.0417868 0.997186 
0.0602067 -0.0383654 0.997448 
0.0592454 -0.0348426 0.997635 
0.0529159 -0.0292107 0.998172 
0.0510966 -0.0257249 0.998362 
0.0445481 -0.0205999 0.998795 
0.042387 -0.0177424 0.998944 
0.0416001 -0.015597 0.999013 
0.0411489 -0.0137023 0.999059 
0.0347711 -0.0106017 0.999339 
0.0351627 -0.00921485 0.999339 
0.0331492 -0.00731722 0.999424 
0.0333833 -0.00596114 0.999425 
0.0315497 -0.00433085 0.999493 
0.0317923 -0.00306193 0.99949 
0.0308673 -0.00166642 0.999522 
0.030808 -0.000343976 0.999525 
0.0307267 0.000889463 0.999527 
0.0313969 0.00216315 0.999505 
0.0317479 0.00354011 0.99949 
0.0321892 0.00484805 0.99947 
0.0331128 0.00630153 0.999432 
0.035458 0.00821876 0.999337 
0.034248 0.00937584 0.999369 
0.0381509 0.0124169 0.999195 
0.0401348 0.0146382 0.999087 
0.0431882 0.017421 0.998915 
0.0417777 0.0187135 0.998952 
0.0494134 0.0232073 0.998509 
0.0544928 0.0276166 0.998132 
0.0540697 0.0300753 0.998084 
0.0601942 0.0359252 0.99754 
0.059728 0.0390946 0.997449 
0.0619556 0.0422111 0.997186 
0.0596136 0.0432071 0.997286 
0.057356 0.04458 0.997358 
0.0527639 0.0426773 0.997695 
0.0386769 0.0331073 0.998703 
0.00110904 0.000910221 0.999999 
0.000793139 0.000544611 1 
0.000243361 -0.000112759 1 
0.0355389 -0.0339539 0.998791 
0.0499017 -0.0458582 0.997701 
0.0549871 -0.048793 0.997294 
0.0565275 -0.0460841 0.997337 
0.058984 -0.0463855 0.997181 
0.0582177 -0.0436235 0.99735 
0.0569584 -0.0396564 0.997589 
0.051181 -0.0337872 0.998118 
0.050265 -0.0307278 0.998263 
0.0432164 -0.0251228 0.99875 
0.0424452 -0.0226238 0.998843 
0.0384181 -0.0189416 0.999082 
0.0348626 -0.0155218 0.999272 
0.0334893 -0.0133344 0.99935 
0.0329553 -0.0116542 0.999389 
0.0273565 -0.00866448 0.999588 
0.0272473 -0.00731355 0.999602 
0.0250868 -0.00567349 0.999669 
0.0253407 -0.00461771 0.999668 
0.0229404 -0.00327023 0.999731 
0.0233062 -0.00236734 0.999726 
0.0229374 -0.00138719 0.999736 
0.0227589 -0.000380054 0.999741 
0.0222506 0.000603905 0.999752 
0.0229055 0.00156668 0.999736 
0.0240124 0.00260681 0.999708 
0.0237394 0.00364211 0.999712 
0.0249345 0.00481789 0.999677 
0.0275228 0.00644498 0.9996 
0.0266708 0.00750406 0.999616 
0.0311986 0.0100203 0.999463 
0.0318799 0.0118444 0.999422 
0.0344237 0.0141972 0.999306 
0.0339611 0.0156334 0.999301 
0.0392438 0.0195983 0.999037 
0.044661 0.0235024 0.998726 
0.0450464 0.0261129 0.998644 
0.0521779 0.0321233 0.998121 
0.050818 0.0339764 0.99813 
0.058809 0.0416299 0.997401 
0.0601182 0.0447894 0.997186 
0.0586195 0.046593 0.997192 
0.0565166 0.047147 0.997288 
0.0527881 0.0459083 0.99755 
0.0446802 0.0407789 0.998169 
0.0340476 0.0326861 0.998886 
-0.000171723 -0.000306803 1 
6.66213e-05 6.66506e-05 1 
0.032325 -0.0335998 0.998912 
0.0474194 -0.0474773 0.997746 
0.0527261 -0.0505238 0.99733 
0.0552331 -0.0511254 0.997164 
0.0570917 -0.0484188 0.997194 
0.0561202 -0.045732 0.997376 
0.0506852 -0.0398262 0.99792 
0.049474 -0.0362697 0.998117 
0.0432259 -0.030065 0.998613 
0.0406145 -0.0260697 0.998835 
0.0351186 -0.0212493 0.999157 
0.0341469 -0.0189114 0.999238 
0.0313616 -0.0158294 0.999383 
0.0279076 -0.0128192 0.999528 
0.0260045 -0.0107969 0.999604 
0.0253575 -0.00933307 0.999635 
0.0194657 -0.00649507 0.999789 
0.0197014 -0.00563194 0.99979 
0.0173599 -0.00417989 0.999841 
0.0168381 -0.00325719 0.999853 
0.0150039 -0.0022159 0.999885 
0.014633 -0.00147972 0.999892 
0.014879 -0.00083567 0.999889 
0.0146925 -0.000168353 0.999892 
0.014082 0.000457469 0.999901 
0.0146742 0.00110884 0.999892 
0.0161316 0.00191438 0.999868 
0.0153884 0.00248853 0.999878 
0.0171765 0.00353492 0.999846 
0.0197271 0.00488567 0.999793 
0.0199544 0.00603841 0.999783 
0.0246069 0.00843836 0.999662 
0.0250747 0.00988405 0.999637 
0.0268782 0.0117312 0.99957 
0.0297698 0.0147888 0.999447 
0.0323504 0.0173623 0.999326 
0.0369495 0.020937 0.999098 
0.0353527 0.0218788 0.999135 
0.0420836 0.0267645 0.998756 
0.0408123 0.0282783 0.998767 
0.0499156 0.0360661 0.998102 
0.0544413 0.0418171 0.997641 
0.0551313 0.0454699 0.997443 
0.0564005 0.0489531 0.997207 
0.054347 0.0493019 0.997304 
0.0510477 0.0486677 0.99751 
0.0464625 0.0469168 0.997818 
0.0308418 0.0325366 0.998995 
0.000189677 0.000144103 1 
0.000270139 -0.000237462 1 
0.0313454 -0.0356619 0.998872 
0.0452027 -0.0490781 0.997772 
0.0505241 -0.0527814 0.997327 
0.052866 -0.0528425 0.997203 
0.0531321 -0.0513426 0.997267 
0.0550234 -0.0485267 0.997305 
0.0493267 -0.0423253 0.997885 
0.0424755 -0.0347912 0.998492 
0.0400024 -0.0304688 0.998735 
0.035305 -0.0250427 0.999063 
0.0324513 -0.0215587 0.999241 
0.0281687 -0.017486 0.99945 
0.0273497 -0.0155469 0.999505 
0.0245748 -0.0127853 0.999616 
0.0206179 -0.00991808 0.999738 
0.0182738 -0.00799069 0.999801 
0.0177354 -0.00690067 0.999819 
0.0123819 -0.00435132 0.999914 
0.0121844 -0.0036267 0.999919 
0.0103588 -0.00256009 0.999943 
0.00971392 -0.0019108 0.999951 
0.00832425 -0.00123491 0.999965 
0.00792194 -0.000790333 0.999968 
0.00817944 -0.000421348 0.999966 
0.00794008 -4.47048e-05 0.999968 
0.00753811 0.000303864 0.999972 
0.00820149 0.000712532 0.999966 
0.00892272 0.00116825 0.99996 
0.0090354 0.00162361 0.999958 
0.0105161 0.00237668 0.999942 
0.0133064 0.00360726 0.999905 
0.0115534 0.00368138 0.999926 
0.016448 0.00580243 0.999848 
0.018036 0.00718112 0.999812 
0.0190406 0.0086509 0.999781 
0.0236739 0.0116905 0.999651 
0.0246275 0.0136649 0.999603 
0.0288347 0.0171436 0.999437 
0.0283371 0.0184806 0.999428 
0.0333863 0.0228013 0.999182 
0.040577 0.030573 0.998709 
0.0457873 0.0363446 0.99829 
0.0470598 0.0400943 0.998087 
0.052314 0.0467838 0.997534 
0.0543833 0.0510179 0.997216 
0.052645 0.0516826 0.997275 
0.0506495 0.0522782 0.997347 
0.0459708 0.0496724 0.997707 
0.0347854 0.0397149 0.998605 
0.000752751 0.000808557 0.999999 
0.000506049 -0.000543188 1 
0.0327675 -0.0402705 0.998651 
0.0442521 -0.0519655 0.997668 
0.0484831 -0.0546601 0.997327 
0.0510533 -0.0551661 0.997171 
0.0517405 -0.0535644 0.997223 
0.0460126 -0.0464712 0.997859 
0.0495543 -0.0461669 0.997704 
0.0421374 -0.0390333 0.998349 
0.0386277 -0.0339511 0.998677 
0.0337776 -0.0277374 0.999044 
0.0316829 -0.0242624 0.999203 
0.0274427 -0.0198314 0.999427 
0.0249323 -0.0168215 0.999548 
0.0212022 -0.0131294 0.999689 
0.0198145 -0.0112705 0.99974 
0.0158141 -0.00834531 0.99984 
0.0122964 -0.00593171 0.999907 
0.0107004 -0.00459956 0.999932 
0.0084319 -0.00329076 0.999959 
0.00669924 -0.00219242 0.999975 
0.00571947 -0.00158317 0.999982 
0.00483459 -0.00107367 0.999988 
0.00414394 -0.000711666 0.999991 
0.00359389 -0.000428807 0.999993 
0.00362452 -0.000245025 0.999993 
0.00354413 -6.79864e-05 0.999994 
0.00340039 9.73991e-05 0.999994 
0.00362767 0.000285675 0.999993 
0.0038992 0.000496847 0.999992 
0.00447842 0.000776313 0.99999 
0.00511895 0.00116572 0.999986 
0.00682538 0.00187659 0.999975 
0.0061792 0.00206621 0.999979 
0.00958484 0.00363431 0.999947 
0.0119736 0.00513587 0.999915 
0.0130136 0.00633757 0.999895 
0.0178099 0.00937211 0.999797 
0.0174529 0.010161 0.999796 
0.0221117 0.013675 0.999662 
0.0223747 0.0152216 0.999634 
0.0268692 0.0194402 0.99945 
0.0329289 0.0246024 0.999155 
0.0351405 0.0286187 0.998973 
0.0379046 0.0326204 0.998749 
0.0428644 0.0393672 0.998305 
0.0494363 0.0474654 0.997649 
0.0517729 0.0523625 0.997285 
0.0511247 0.054354 0.997212 
0.049115 0.0546544 0.997297 
0.0451362 0.0528983 0.997579 
0.035144 0.0428954 0.998461 
0.00037386 0.00026038 1 
0.000415392 -0.000434836 1 
0.0318229 -0.0420973 0.998607 
0.0427935 -0.0544413 0.9976 
0.0466097 -0.0569567 0.997288 
0.0489403 -0.0570795 0.997169 
0.0490372 -0.0547079 0.997298 
0.0447281 -0.0482014 0.997836 
0.0383534 -0.0380445 0.99854 
0.0325507 -0.0308196 0.998995 
0.0306633 -0.0271138 0.999162 
0.0266651 -0.022066 0.999401 
0.0239852 -0.0187236 0.999537 
0.020072 -0.0147012 0.99969 
0.017967 -0.0121394 0.999765 
0.0137857 -0.0086161 0.999868 
0.0116913 -0.00677363 0.999909 
0.00842832 -0.00449073 0.999954 
0.00635067 -0.00304046 0.999975 
0.00420066 -0.00184542 0.999989 
0.00415002 -0.0015709 0.99999 
0.0026866 -0.000885747 0.999996 
0.00227084 -0.000620892 0.999997 
0.00167856 -0.000368829 0.999999 
0.00135622 -0.000223456 0.999999 
0.00113356 -0.000122126 0.999999 
0.00103588 -5.56023e-05 0.999999 
0.000982173 -1.61348e-06 1 
0.00108919 5.60071e-05 0.999999 
0.00114631 0.000119278 0.999999 
0.00128883 0.000198803 0.999999 
0.00196687 0.000399767 0.999998 
0.00182259 0.000460914 0.999998 
0.00310393 0.000909859 0.999995 
0.00269432 0.000956216 0.999996 
0.00491218 0.00196632 0.999986 
0.00676532 0.00306341 0.999972 
0.00695491 0.0035524 0.99997 
0.0108848 0.00599483 0.999923 
0.0114683 0.00703168 0.99991 
0.0158947 0.0104124 0.999819 
0.018539 0.0135176 0.999737 
0.0224948 0.0174456 0.999595 
0.0281928 0.0225124 0.999349 
0.0282022 0.0243708 0.999305 
0.0328816 0.0299247 0.999011 
0.0370776 0.0359039 0.998667 
0.043702 0.0441905 0.998067 
0.0466917 0.049781 0.997668 
0.0489425 0.05484 0.997295 
0.048407 0.0566912 0.997218 
0.0463071 0.057157 0.997291 
0.0421925 0.0541246 0.997642 
0.0282144 0.0373187 0.998905 
0.000110191 0.000133319 1 
0.000278917 -0.000304075 1 
0.0291266 -0.0417449 0.998704 
0.0403519 -0.0558157 0.997625 
0.0441289 -0.0587129 0.997299 
0.0463607 -0.0591426 0.997172 
0.0465955 -0.0566087 0.997309 
0.0429127 -0.0502275 0.997815 
0.036497 -0.0415615 0.998469 
0.0358071 -0.0382133 0.998628 
0.0301374 -0.0307641 0.999072 
0.0259632 -0.0249751 0.999351 
0.0242199 -0.021719 0.999471 
0.0197209 -0.016871 0.999663 
0.0171817 -0.0137394 0.999758 
0.0134118 -0.00996823 0.99986 
0.0110531 -0.0075841 0.99991 
0.00714298 -0.00459798 0.999964 
0.00577778 -0.00340835 0.999978 
0.0038331 -0.00205046 0.999991 
0.00222748 -0.00110769 0.999997 
0.00166364 -0.000721542 0.999998 
0.00117943 -0.000454791 0.999999 
0.000605652 -0.000207482 1 
0.000276899 -8.61342e-05 1 
-8.72426e-05 5.09408e-06 1 
-0.000271406 3.06995e-05 1 
-0.000547392 4.26477e-05 1 
-0.000672337 2.06801e-05 1 
-0.000532107 -9.92129e-06 1 
-0.000449707 -3.05572e-05 1 
-0.000386727 -4.38482e-05 1 
0.00017727 4.45043e-05 1 
0.000281188 8.4706e-05 1 
0.000920349 0.000304028 1 
0.000582717 0.000233305 1 
0.00184326 0.000777355 0.999998 
0.00295237 0.00139288 0.999995 
0.00340324 0.00183175 0.999993 
0.00609836 0.00356122 0.999975 
0.00617208 0.0039996 0.999973 
0.00983746 0.00674347 0.999929 
0.0131539 0.00964815 0.999867 
0.0163147 0.0132143 0.99978 
0.0220564 0.0186846 0.999582 
0.0244936 0.0225881 0.999445 
0.0287313 0.0278432 0.999199 
0.0297735 0.0307434 0.999084 
0.0357247 0.0374901 0.998658 
0.0389641 0.0433223 0.998301 
0.0432807 0.050442 0.997789 
0.0462019 0.0563993 0.997339 
0.0459982 0.0590648 0.997194 
0.044027 0.058578 0.997312 
0.0401226 0.05522 0.997668 
0.0305144 0.0438076 0.998574 
0.000716246 0.000960698 0.999999 
0.000486906 -0.000722735 1 
0.0278654 -0.0434465 0.998667 
0.0381994 -0.0571911 0.997632 
0.04176 -0.0603351 0.997304 
0.0438926 -0.0609005 0.997178 
0.043415 -0.0576731 0.997391 
0.0402864 -0.0513065 0.99787 
0.0346479 -0.0427148 0.998486 
0.029092 -0.034143 0.998993 
0.0279706 -0.0307711 0.999135 
0.0237554 -0.0246597 0.999414 
0.0198265 -0.0192529 0.999618 
0.0165826 -0.0153109 0.999745 
0.0125595 -0.0108533 0.999862 
0.0100787 -0.0080958 0.999916 
0.00704289 -0.0052304 0.999962 
0.00449569 -0.00313574 0.999985 
0.002733 -0.00175116 0.999995 
0.0021177 -0.00123773 0.999997 
0.000778617 -0.000433957 1 
0.000534482 -0.000271756 1 
-8.5687e-05 1.49813e-05 1 
-0.000364547 0.000107952 1 
-0.000932615 0.000259403 1 
-0.00135253 0.000308968 0.999999 
-0.00176137 0.000301441 0.999998 
-0.00221474 0.000257169 0.999998 
-0.00274421 0.000163821 0.999996 
-0.0026937 7.66927e-06 0.999996 
-0.0024464 -0.00013012 0.999997 
-0.00227426 -0.000250714 0.999997 
-0.00207391 -0.000346071 0.999998 
-0.00116321 -0.000235837 0.999999 
-0.00138576 -0.000357739 0.999999 
-0.000423506 -0.000117676 1 
-0.000513354 -0.000182639 1 
0.000397023 0.000195599 1 