# vtk DataFile Version 3.0 
Exported using Morpho https://github.com/Morpho-lang/morpho 
ASCII 
DATASET UNSTRUCTURED_GRID 

POINTS 3402 float 
-1.58737 -6.89066 -7.89781e-05 
-1.3863 -6.93394 4.97783e-05 
-1.1824 -6.97154 -2.17204e-05 
-0.968332 -7.00452 -2.76843e-05 
-0.729452 -7.03334 7.5866e-05 
-0.530741 -7.05111 -0.000103265 
-0.305662 -7.06452 6.32164e-05 
-0.101334 -7.07037 -7.05474e-05 
0.111453 -7.0703 2.76186e-05 
0.334063 -7.06326 2.78426e-05 
0.530224 -7.0513 -4.78439e-05 
0.74288 -7.03205 0.000101622 
0.946333 -7.00757 -6.30946e-05 
1.1706 -6.9736 2.54661e-05 
1.37948 -6.93526 -3.19063e-05 
1.61586 -6.8841 1.5626e-05 
-2.43056 -6.64029 7.16835e-05 
-2.22009 -6.71352 -4.66404e-05 
-2.00821 -6.77999 -2.71562e-05 
-1.80454 -6.83698 7.95965e-05 
-1.57044 -6.6739 6.58281e-05 
-1.34376 -6.70513 -2.27859e-05 
-1.12282 -6.75228 -2.37258e-05 
-0.893214 -6.80739 9.69903e-06 
-0.682031 -6.78697 -4.85383e-06 
-0.46522 -6.83126 1.39328e-05 
-0.256924 -6.81933 -7.98788e-06 
-0.0413012 -6.82969 -2.95703e-06 
0.175769 -6.83928 7.69347e-05 
0.381307 -6.8003 -6.90337e-05 
0.588649 -6.80789 -6.28814e-06 
0.793451 -6.77732 -2.62973e-05 
1.00918 -6.77384 -3.93942e-05 
1.22431 -6.72363 2.03975e-05 
1.45531 -6.71009 6.24782e-05 
1.69473 -6.6625 -0.00016814 
1.86103 -6.82195 -2.58119e-05 
2.04368 -6.76944 6.63454e-05 
2.28187 -6.69295 -4.4004e-05 
-2.84887 -6.4718 6.0996e-05 
-2.65471 -6.5538 -6.18251e-05 
-2.45038 -6.41965 5.59916e-05 
-2.22356 -6.48516 4.83772e-05 
-2.00236 -6.55571 -0.000105301 
-1.7792 -6.60692 6.80637e-05 
-1.54514 -6.44857 -1.61343e-05 
-1.33483 -6.48944 -1.6175e-05 
-1.12835 -6.5088 6.70771e-06 
-0.922584 -6.57966 3.8529e-05 
-0.707829 -6.55445 3.36863e-05 
-0.488707 -6.59427 7.07308e-05 
-0.271157 -6.58267 2.06294e-05 
-0.0725909 -6.5766 1.35835e-05 
0.133243 -6.60191 -2.19881e-05 
0.34449 -6.56691 -3.81037e-05 
0.565328 -6.56298 -4.9013e-06 
0.792604 -6.55608 -7.63493e-06 
1.02093 -6.5396 -6.78671e-05 
1.24585 -6.49562 -3.93188e-05 
1.46565 -6.49657 2.45767e-05 
1.66614 -6.42339 2.97152e-05 
1.88328 -6.54155 3.57114e-05 
2.10554 -6.54422 0.00017568 
2.32889 -6.45711 -0.000256715 
2.50486 -6.61259 -1.74818e-06 
2.6782 -6.54427 8.5802e-05 
2.91389 -6.44287 -6.12089e-05 
-3.27832 -6.26518 1.76284e-05 
-3.09717 -6.3567 -3.19014e-05 
-2.89568 -6.2562 4.10295e-06 
-2.65153 -6.30387 -1.91389e-06 
-2.38631 -6.21294 -4.24481e-05 
-2.1708 -6.27817 4.5756e-05 
-1.95797 -6.34657 1.48136e-05 
-1.75183 -6.37562 -6.44686e-06 
-1.55768 -6.21361 -3.03895e-05 
-1.3437 -6.25511 -3.63424e-05 
-1.12455 -6.28331 1.04442e-05 
-0.904503 -6.34386 9.39309e-06 
-0.691949 -6.31651 -6.97036e-06 
-0.487563 -6.36529 2.18775e-05 
-0.286532 -6.32937 -1.23808e-05 
-0.0728534 -6.34046 -2.20802e-05 
0.144092 -6.35734 -1.83256e-05 
0.354464 -6.32646 2.01142e-05 
0.562826 -6.33619 3.86863e-05 
0.767899 -6.3145 3.40396e-05 
0.976647 -6.32439 2.87823e-05 
1.18539 -6.27078 5.88827e-06 
1.40915 -6.27114 3.59521e-05 
1.63146 -6.21185 1.65097e-05 
1.87853 -6.30914 7.31286e-06 
2.08885 -6.32595 7.06217e-06 
2.27777 -6.22286 -1.31874e-05 
2.50697 -6.32699 -2.31238e-05 
2.728 -6.31883 0.000162514 
2.97568 -6.22094 -6.71034e-05 
3.16492 -6.32316 -5.71669e-05 
3.37853 -6.21167 9.48419e-05 
-3.71345 -6.01747 2.64413e-05 
-3.52526 -6.12961 3.96314e-06 
-3.31545 -6.048 -4.17818e-05 
-3.07727 -6.09739 5.10419e-06 
-2.82813 -6.04108 -1.12546e-05 
-2.62207 -6.10662 -8.20583e-06 
-2.42929 -5.9896 -5.81811e-05 
-2.20257 -6.04098 -4.05514e-05 
-1.98722 -6.10422 -2.38604e-05 
-1.77387 -6.14129 -5.20779e-05 
-1.53749 -5.99525 -4.9891e-06 
-1.32237 -6.03629 -2.85393e-06 
-1.11544 -6.04052 6.71465e-06 
-0.91773 -6.11272 -8.13588e-06 
-0.711639 -6.08033 -1.52231e-05 
-0.494215 -6.11645 -3.25653e-05 
-0.277784 -6.09983 -3.60171e-06 
-0.0704517 -6.09496 -4.69456e-06 
0.136785 -6.12068 -1.11402e-05 
0.345671 -6.0902 -2.2975e-06 
0.558777 -6.09213 7.78353e-06 
0.771688 -6.08244 8.60423e-06 
0.985977 -6.08576 1.76477e-05 
1.19731 -6.03401 6.61816e-06 
1.40433 -6.05112 2.31099e-05 
1.61202 -5.9836 1.52348e-06 
1.83243 -6.0904 7.40438e-06 
2.05352 -6.08754 1.57456e-05 
2.27735 -6.00722 3.08264e-05 
2.4985 -6.10719 -5.80276e-05 
2.7371 -6.11664 -3.00865e-05 
2.96102 -6.01209 -6.49268e-05 
3.19835 -6.07877 -2.16163e-06 
3.4077 -5.96004 4.76021e-05 
3.58386 -6.09557 -3.95984e-05 
-3.94423 -5.86879 1.48254e-05 
-3.73246 -5.79558 -7.16161e-06 
-3.50504 -5.88003 -1.72524e-05 
-3.26645 -5.83342 6.91136e-06 
-3.04879 -5.8936 3.83748e-05 
-2.85178 -5.80525 -6.7225e-06 
-2.64041 -5.85977 -2.06582e-05 
-2.4234 -5.76401 8.35531e-06 
-2.21026 -5.82165 -2.0533e-05 
-1.98699 -5.87364 -1.42243e-05 
-1.76365 -5.92546 -4.65324e-06 
-1.56352 -5.77723 1.12398e-06 
-1.33772 -5.80672 1.23319e-05 
-1.11553 -5.81991 1.189e-06 
-0.897734 -5.87054 6.19279e-06 
-0.695733 -5.83517 1.88354e-06 
-0.501595 -5.89052 2.71708e-07 
-0.296954 -5.8588 -1.4767e-05 
-0.0915372 -5.85304 -7.09311e-06 
0.117087 -5.88223 9.78018e-06 
0.336241 -5.86292 -3.99836e-07 
0.553141 -5.85838 -1.61252e-05 
0.763834 -5.85145 3.68275e-06 
0.9804 -5.85606 -1.49294e-05 
1.19828 -5.80804 7.57219e-06 
1.41222 -5.81808 -1.6842e-05 
1.63999 -5.76685 -2.1035e-06 
1.84361 -5.87582 -8.14758e-06 
2.06685 -5.86631 3.06689e-05 
2.28598 -5.78555 1.94614e-05 
2.49612 -5.88619 5.20993e-05 
2.7162 -5.91096 -5.72124e-05 
2.92457 -5.79967 3.97544e-05 
3.16373 -5.86343 4.82296e-05 
3.39158 -5.75632 4.43734e-05 
3.64047 -5.85935 -9.05432e-06 
3.82254 -5.94875 -3.37921e-05 
3.99587 -5.83371 -4.50174e-05 
-4.38483 -5.54729 -3.94037e-06 
-4.13484 -5.73604 1.22659e-05 
-3.91945 -5.63261 -3.40632e-06 
-3.68728 -5.57435 -3.07959e-07 
-3.48802 -5.66975 4.17952e-05 
-3.29699 -5.59233 -3.1618e-06 
-3.08622 -5.65917 -1.28149e-05 
-2.86068 -5.59349 -1.19668e-05 
-2.62998 -5.62899 -9.66962e-06 
-2.40466 -5.54496 7.12741e-06 
-2.1905 -5.59647 1.54836e-05 
-1.9813 -5.65481 3.528e-05 
-1.77361 -5.68926 1.64384e-05 
-1.57899 -5.54642 4.50867e-07 
-1.37157 -5.59104 1.31179e-05 
-1.15691 -5.59661 -1.54139e-06 
-0.932952 -5.63769 5.40783e-06 
-0.703208 -5.6254 9.10811e-06 
-0.47046 -5.64834 1.7895e-05 
-0.262869 -5.61987 -6.55924e-06 
-0.0449895 -5.62666 -8.00416e-06 
0.165952 -5.65365 1.42461e-05 
0.384564 -5.63743 -1.44281e-05 
0.595615 -5.6231 7.11336e-06 
0.814713 -5.63262 -1.31759e-05 
1.02627 -5.62641 -4.8722e-06 
1.25142 -5.58533 -3.01766e-06 
1.46563 -5.60028 -2.90012e-05 
1.67216 -5.52879 1.63992e-05 
1.85341 -5.64716 -9.49692e-06 
2.06055 -5.65128 -1.95872e-05 
2.26221 -5.5634 -3.85913e-06 
2.48474 -5.65409 7.94752e-06 
2.69544 -5.68887 2.46689e-05 
2.91983 -5.58926 3.08285e-05 
3.15093 -5.65607 5.21419e-05 
3.35698 -5.53771 1.07423e-06 
3.59176 -5.64206 -1.24636e-05 
3.81856 -5.67262 -3.5333e-06 
4.03506 -5.59638 8.59482e-05 
4.22622 -5.66912 3.84896e-05 
-4.57309 -5.39311 2.28734e-05 
-4.34484 -5.32551 -4.19386e-05 
-4.16258 -5.52354 -3.22227e-05 
-3.93608 -5.42648 5.77536e-06 
-3.72721 -5.35724 2.43096e-05 
-3.49779 -5.41867 3.24998e-06 
-3.27244 -5.37361 -2.4832e-06 
-3.05943 -5.43632 -3.01033e-05 
-2.84743 -5.36459 6.96993e-07 
-2.64138 -5.41684 2.88816e-05 
-2.42498 -5.3344 5.92021e-07 
-2.19572 -5.36979 3.33916e-05 
-1.98195 -5.42243 -1.65754e-06 
-1.78133 -5.44868 5.16838e-06 
-1.54688 -5.33539 1.52534e-05 
-1.32943 -5.37487 -3.50865e-06 
-1.12165 -5.36775 9.15205e-07 
-0.928828 -5.42711 -2.57082e-05 
-0.735612 -5.38836 2.73956e-05 
-0.528439 -5.4346 -3.53233e-05 
-0.321034 -5.39605 1.3708e-05 
-0.103811 -5.40211 6.83576e-08 
0.114227 -5.41751 4.62482e-06 
0.317733 -5.42116 1.7314e-07 
0.530687 -5.39862 1.6021e-06 
0.748408 -5.41173 4.15376e-06 
0.958285 -5.4037 2.92539e-06 
1.16672 -5.39227 -4.60897e-06 
1.40316 -5.37763 4.88779e-06 
1.59817 -5.33082 -6.34944e-06 
1.85347 -5.38632 -9.6695e-06 
2.03383 -5.42393 -2.99746e-05 
2.25462 -5.35438 -6.62008e-06 
2.48373 -5.44205 -1.1796e-05 
2.71149 -5.46542 -6.37928e-06 
2.91577 -5.36074 -1.32966e-05 
3.12411 -5.43968 1.5099e-05 
3.33284 -5.32363 -1.95957e-05 
3.56928 -5.42691 -7.33913e-06 
3.79498 -5.45426 -1.81218e-05 
4.02647 -5.38756 5.46663e-05 
4.26249 -5.42518 -4.12371e-05 
4.45202 -5.49358 -2.3273e-05 
-4.79145 -5.20002 2.04024e-05 
-4.56624 -5.17973 1.29572e-05 
-4.3512 -5.10141 7.09913e-06 
-4.12852 -5.29346 -2.23314e-05 
-3.91485 -5.19249 1.68682e-05 
-3.69491 -5.12826 2.31117e-06 
-3.49883 -5.205 -4.14395e-05 
-3.2835 -5.15425 -3.60997e-06 
-3.06463 -5.20959 5.83807e-06 
-2.84422 -5.14893 2.54324e-05 
-2.62512 -5.1881 3.606e-06 
-2.38121 -5.13375 4.65614e-06 
-2.16144 -5.15733 -3.74177e-06 
-1.95846 -5.19034 2.58319e-06 
-1.75371 -5.22897 -2.76848e-06 
-1.5664 -5.10833 -2.25027e-05 
-1.35991 -5.15612 -5.41157e-06 
-1.14131 -5.15929 5.77355e-07 
-0.920605 -5.18506 1.67088e-05 
-0.700031 -5.17571 -2.79662e-05 
-0.505153 -5.20063 4.02949e-06 
-0.283612 -5.18294 1.09226e-06 
-0.062793 -5.19158 2.90027e-07 
0.141771 -5.18795 7.32107e-07 
0.350205 -5.1971 -3.99189e-07 
0.574642 -5.18789 4.22191e-06 
0.778911 -5.1859 6.96352e-06 
0.987599 -5.18328 -8.94724e-06 
1.21762 -5.19606 8.55767e-06 
1.41256 -5.14196 -5.01515e-07 
1.67347 -5.16623 1.73968e-06 
1.89319 -5.17848 1.22454e-05 
2.11346 -5.18342 3.27942e-05 
2.30367 -5.08995 -1.89295e-05 
2.45233 -5.22308 1.02598e-05 
2.6705 -5.25426 -2.40862e-05 
2.8793 -5.15659 -6.82347e-06 
3.12048 -5.21141 -1.02816e-05 
3.34803 -5.10912 -1.78803e-05 
3.56603 -5.22478 -1.00567e-05 
3.80442 -5.2406 -1.742e-05 
4.02092 -5.16515 3.31771e-05 
4.24042 -5.21213 -4.39609e-05 
4.47192 -5.24238 -0.00011365 
4.65672 -5.32116 1.44664e-05 
4.79272 -5.19885 2.53044e-05 
-4.9931 -5.00667 -6.77326e-06 
-4.76785 -4.98506 1.02035e-05 
-4.55359 -4.95056 2.0267e-05 
-4.32974 -4.88114 4.58503e-05 
-4.13482 -5.07413 4.12649e-05 
-3.91422 -4.97416 -4.22558e-05 
-3.68422 -4.92172 -1.79258e-05 
-3.45919 -4.97475 -1.57556e-06 
-3.24857 -4.92021 6.33335e-06 
-3.05836 -4.99253 8.31278e-06 
-2.86142 -4.91626 6.4791e-06 
-2.65667 -4.9668 -1.60826e-05 
-2.44563 -4.95302 3.71737e-06 
-2.19585 -4.94122 6.09902e-07 
-1.97651 -4.95912 5.94724e-06 
-1.77376 -4.99574 1.16947e-05 
[...]
POINT_DATA 3402 
VECTORS vectors float
0.167677 -0.0382819 0.986651 
0.169043 -0.0341866 0.985802 
0.169297 -0.0288262 0.986677 
0.169827 -0.0240118 0.986754 
0.170303 -0.0188218 0.986831 
0.170228 -0.013082 0.986978 
0.17065 -0.00833022 0.987026 
0.170378 -0.00248864 0.987055 
0.170575 0.00278121 0.987098 
0.170424 0.00796479 0.987118 
0.170761 0.0134389 0.98694 
0.170303 0.0178658 0.98689 
0.168766 0.0237771 0.987026 
0.169504 0.0291601 0.986739 
0.167605 0.0337005 0.986904 
0.165755 0.0389712 0.987089 
0.160296 -0.0587885 0.986859 
0.162499 -0.0530825 0.986884 
0.164736 -0.0482423 0.986721 
0.166101 -0.0437618 0.986683 
0.142114 -0.0332417 0.994444 
0.141357 -0.0284554 0.994819 
0.142709 -0.0239085 0.995586 
0.145666 -0.019729 0.993521 
0.140543 -0.0149165 0.996241 
0.143657 -0.0103407 0.994062 
0.139803 -0.00577517 0.995611 
0.140819 -0.00103263 0.996261 
0.142431 0.00366908 0.994434 
0.138609 0.00789542 0.996624 
0.141603 0.0127543 0.994518 
0.139465 0.0167933 0.996264 
0.143089 0.0217334 0.993956 
0.140689 0.0258832 0.995849 
0.144408 0.0315171 0.993431 
0.144127 0.036237 0.993907 
0.165303 0.0445617 0.986787 
0.163564 0.0492369 0.986881 
0.160662 0.054835 0.987214 
0.155353 -0.0682225 0.98711 
0.158787 -0.0636716 0.986879 
0.138847 -0.0525456 0.993898 
0.138743 -0.0468515 0.99435 
0.140147 -0.0422306 0.993573 
0.139701 -0.0372869 0.99546 
0.118302 -0.0280711 0.998926 
0.117855 -0.0243537 0.999109 
0.117714 -0.0204555 0.999483 
0.120515 -0.0173264 0.998927 
0.116185 -0.0132554 0.999903 
0.118027 -0.00928851 0.999544 
0.116545 -0.00533667 0.99984 
0.11537 -0.00149507 1.00016 
0.117637 0.00232616 0.999627 
0.115607 0.00633178 1.00012 
0.115112 0.0103852 0.999919 
0.117298 0.0145772 0.999801 
0.117257 0.0184715 0.999334 
0.116109 0.0220558 0.999672 
0.120146 0.0271316 0.998732 
0.117399 0.0301682 0.999002 
0.134401 0.0384594 0.996351 
0.141473 0.0456447 0.993156 
0.138938 0.0498985 0.994043 
0.159926 0.0607954 0.986853 
0.158569 0.0651276 0.986719 
0.154772 0.070188 0.987031 
0.15069 -0.0786923 0.987059 
0.153338 -0.0742744 0.987002 
0.137129 -0.06304 0.993407 
0.132713 -0.0553976 0.994796 
0.114804 -0.0436604 0.998634 
0.11555 -0.039097 0.998928 
0.116658 -0.0352868 0.998824 
0.115296 -0.0312681 0.999374 
0.101529 -0.025058 1.00103 
0.102427 -0.0218182 1.00114 
0.101294 -0.0180651 1.00131 
0.103216 -0.0151154 1.00128 
0.0988853 -0.0115 1.00167 
0.101073 -0.00822698 1.00151 
0.0975954 -0.00479773 1.00209 
0.0981972 -0.0011587 1.00188 
0.0990572 0.00229206 1.00193 
0.097916 0.00571532 1.0019 
0.0992132 0.00890838 1.00177 
0.0996488 0.0122131 1.00165 
0.101834 0.0158376 1.00135 
0.0999812 0.0187215 1.00145 
0.103152 0.0229369 1.00108 
0.101824 0.0264243 1.00098 
0.110483 0.0324014 0.999912 
0.117803 0.0387945 0.998534 
0.113139 0.0415993 0.999034 
0.129842 0.0517046 0.995514 
0.136549 0.0592436 0.993721 
0.136881 0.0653122 0.993418 
0.152997 0.076403 0.986737 
0.150703 0.0809278 0.986844 
0.144483 -0.0893166 0.987082 
0.147443 -0.0846019 0.987081 
0.132755 -0.0726006 0.993385 
0.127729 -0.06398 0.994944 
0.112304 -0.0519581 0.998481 
0.111405 -0.0471906 0.999013 
0.099981 -0.0399006 1.00072 
0.0993051 -0.0355914 1.00098 
0.100614 -0.0319841 1.00109 
0.0998844 -0.028223 1.00116 
0.0892117 -0.0225322 1.00229 
0.089976 -0.0193816 1.00232 
0.0883429 -0.0162502 1.00245 
0.0910014 -0.0138358 1.00234 
0.0885114 -0.0105317 1.00254 
0.0889602 -0.00737879 1.00273 
0.0870743 -0.00387403 1.0035 
0.0868541 -0.000806893 1.00215 
0.088368 0.00215263 1.00283 
0.0871427 0.00499031 1.00272 
0.0880713 0.00796838 1.00287 
0.0869843 0.010848 1.00264 
0.0887255 0.0141786 1.00272 
0.0874226 0.0170542 1.00251 
0.0897278 0.0204299 1.0024 
0.0885891 0.0235696 1.00226 
0.0970459 0.0287684 1.00134 
0.0998562 0.033454 1.00107 
0.0977609 0.0372651 1.00097 
0.108162 0.0443102 1.00021 
0.11681 0.0518925 0.99714 
0.114325 0.0558181 0.997909 
0.131336 0.0683355 0.994009 
0.128069 0.0724866 0.994139 
0.146402 0.0853848 0.987091 
0.141015 -0.0950315 0.98701 
0.127056 -0.0820973 0.993302 
0.124112 -0.0739838 0.994629 
0.109468 -0.0610421 0.998162 
0.10666 -0.0547354 0.999097 
0.0960206 -0.0467574 1.00082 
0.0959345 -0.0426199 1.00105 
0.0870706 -0.0360436 1.00208 
0.0872935 -0.0325719 1.00216 
0.088363 -0.0292681 1.00227 
0.0882151 -0.0257198 1.00229 
0.0841494 -0.0226537 1.00251 
0.0845755 -0.0193933 1.0025 
0.0839075 -0.0161008 1.00268 
0.085705 -0.0130605 1.00264 
0.0841967 -0.00986384 1.00277 
0.0855283 -0.00708484 1.00267 
0.083678 -0.00399486 1.00219 
0.0827147 -0.00110399 1.003 
0.0837958 0.00188306 1.00366 
0.0836792 0.00489879 1.00215 
0.0842717 0.00795926 1.00345 
0.0834048 0.0107774 1.00212 
0.0842815 0.0139627 1.00338 
0.0827773 0.0169321 1.00204 
0.0832748 0.0199917 1.00326 
0.081645 0.0231224 1.00265 
0.0858531 0.0266067 1.00239 
0.0877193 0.0306375 1.00216 
0.0874152 0.0344282 1.00196 
0.0948968 0.0402165 1.00114 
0.100222 0.0456384 1.00045 
0.0966026 0.04844 1.00057 
0.108352 0.0578253 0.998523 
0.108469 0.0630818 0.998071 
0.129016 0.0795349 0.993305 
0.142899 0.0914813 0.987053 
0.140629 0.0964415 0.986934 
0.133586 -0.105107 0.986934 
0.138047 -0.0996415 0.986889 
0.120066 -0.0837212 0.994192 
0.10483 -0.0693963 0.997938 
0.104293 -0.0641026 0.998603 
0.0934622 -0.0549855 1.00062 
0.0927877 -0.0504358 1.00099 
0.085807 -0.0437391 1.00178 
0.0831945 -0.0386173 1.00231 
0.078014 -0.0338686 1.0028 
0.0791261 -0.0310295 1.0028 
0.0817524 -0.028682 1.00263 
0.0823871 -0.0257197 1.00253 
0.0762559 -0.0219654 1.0031 
0.0764019 -0.0188926 1.00307 
0.0736444 -0.0153352 1.0035 
0.0736571 -0.0121701 1.00367 
0.0711308 -0.00873805 1.00389 
0.0711313 -0.00568443 1.00474 
0.0667771 -0.0028836 1.0044 
0.06718 -0.000339612 1.00442 
0.0698118 0.00222537 1.00414 
0.0697358 0.00485836 1.00404 
0.0696473 0.00745223 1.00416 
0.0729023 0.0105667 1.00363 
0.074323 0.0135994 1.00354 
0.0741335 0.0166854 1.00332 
0.0768382 0.020249 1.00295 
0.0751964 0.0229048 1.00231 
0.0793956 0.0260492 1.00272 
0.0799945 0.0290852 1.00264 
0.078351 0.0318323 1.00268 
0.0832917 0.0364776 1.0023 
0.0873992 0.0411429 1.00179 
0.0870671 0.0450207 1.00152 
0.0944272 0.0519428 1.0006 
0.0921513 0.0551818 1.00073 
0.10581 0.0667243 0.998082 
0.119502 0.0801718 0.994721 
0.1222 0.0881408 0.993464 
0.136328 0.101305 0.986999 
0.129338 -0.110138 0.986999 
0.114204 -0.0932348 0.994085 
0.122516 -0.0923252 0.992951 
0.103811 -0.0751415 0.997584 
0.090209 -0.062594 1.00045 
0.0883376 -0.0570354 1.00096 
0.0823492 -0.0500963 1.00173 
0.0811698 -0.0455692 1.00217 
0.0752531 -0.0400108 1.00274 
0.0756332 -0.0370405 1.00283 
0.0734273 -0.0339241 1.00223 
0.0726657 -0.0303407 1.00315 
0.0737786 -0.0275167 1.00388 
0.0732297 -0.024427 1.00334 
0.0563958 -0.0166736 1.00473 
0.0547931 -0.0136552 1.00485 
0.048922 -0.0102336 1.00521 
0.0520404 -0.00885252 1.00515 
0.0447759 -0.0059923 1.00478 
0.047331 -0.00448189 1.00536 
0.041151 -0.00226363 1.00568 
0.0410278 -0.000651214 1.00574 
0.0428981 0.000988838 1.00564 
0.0443557 0.00264137 1.0056 
0.0431978 0.00429118 1.00568 
0.0481646 0.00669964 1.00541 
0.0507915 0.00904924 1.00511 
0.0533805 0.0116433 1.00497 
0.0574782 0.0151199 1.00458 
0.0570323 0.017261 1.0046 
0.0689451 0.0239359 1.00421 
0.0742981 0.0280962 1.003 
0.0734359 0.0312481 1.00289 
0.07659 0.0350344 1.00271 
0.0780975 0.0385407 1.00263 
0.0764189 0.0413074 1.00259 
0.0832818 0.0473483 1.00183 
0.0815364 0.0508186 1.00181 
0.0901747 0.058927 1.00068 
0.0997423 0.0689223 0.998702 
0.105045 0.0784694 0.997207 
0.117906 0.0929077 0.993595 
0.131569 0.107191 0.987041 
0.124866 -0.115384 0.986887 
0.113706 -0.100619 0.993317 
0.0984913 -0.0841233 0.997277 
0.102326 -0.079711 0.997311 
0.086657 -0.0650322 1.00059 
0.0793618 -0.0569319 1.00161 
0.0787798 -0.0529164 1.0019 
0.0724768 -0.0461261 1.00266 
0.0725419 -0.0426811 1.0028 
0.0708942 -0.0395513 1.00278 
0.0708888 -0.036447 1.00371 
0.0627886 -0.029795 1.00394 
0.0573695 -0.024757 1.00452 
0.0536555 -0.0207947 1.00479 
0.0512939 -0.0175796 1.00428 
0.0313305 -0.009806 1.00579 
0.030645 -0.00823084 1.00578 
0.0261122 -0.00575165 1.00574 
0.0248938 -0.00437031 1.00598 
0.0210794 -0.00278798 1.00665 
0.0217102 -0.00196704 1.00599 
0.0190258 -0.000945808 1.00602 
0.0190912 -0.000164196 1.00604 
0.019165 0.000570468 1.00603 
0.0206997 0.00143175 1.00604 
0.0212812 0.00237432 1.00604 
0.023453 0.00355016 1.0059 
0.0261793 0.0050274 1.00586 
0.0316718 0.00749497 1.00568 
0.0306025 0.00841807 1.00572 
0.0406447 0.0132691 1.0054 
0.0500694 0.0185025 1.00424 
0.0581539 0.0240511 1.0043 
0.0564746 0.0259066 1.00433 
0.070676 0.0335633 1.00304 
0.0734503 0.0375359 1.00265 
0.0712551 0.0399874 1.00276 
0.0734079 0.0439879 1.00267 
0.071806 0.0471039 1.00272 
0.0809506 0.0551477 1.00152 
0.0860538 0.0622339 1.00083 
0.0877144 0.0684987 1.00035 
0.100536 0.0824487 0.997335 
0.113634 0.0970629 0.993523 
0.127764 0.112324 0.987044 
0.125335 0.115479 0.986918 
0.120823 -0.120128 0.986829 
0.108583 -0.103909 0.993651 
0.0967703 -0.089195 0.996897 
0.0823239 -0.0729877 1.00034 
0.0863664 -0.0702345 1.00018 
0.0775756 -0.0608536 1.0014 
0.0703653 -0.0523483 1.00246 
0.069221 -0.0480068 1.0028 
0.067087 -0.044505 1.00287 
0.0681763 -0.0420492 1.00295 
0.0623216 -0.0367122 1.00286 
0.0591724 -0.0322493 1.00397 
0.0496783 -0.0250349 1.00488 
0.0370414 -0.0168805 1.00557 
0.0300561 -0.0123364 1.00589 
0.0262392 -0.0095401 1.00653 
0.0135629 -0.00434059 1.00583 
0.0125503 -0.00339771 1.0058 
0.00962135 -0.00217386 1.00574 
0.00940913 -0.00169449 1.00584 
0.00661802 -0.000914489 1.00584 
0.0066725 -0.000646813 1.00523 
0.00682774 -0.000408947 1.00591 
0.00678536 -0.000113103 1.00596 
0.00610795 0.000169018 1.00593 
0.00683648 0.000463427 1.00592 
0.00783852 0.000843536 1.00592 
0.00804668 0.00123955 1.00585 
0.00959438 0.00190261 1.00651 
0.0140255 0.00329125 1.00515 
0.0115017 0.00327204 1.00574 
0.0194426 0.00624092 1.00569 
0.0250124 0.00925183 1.00574 
0.0329917 0.0137272 1.00631 
0.0329744 0.0153433 1.00492 
0.0507348 0.0258675 1.0054 
0.0641088 0.0341004 1.00355 
0.0643581 0.037708 1.00337 
0.0685795 0.0427679 1.00289 
0.0669608 0.0453301 1.00289 
0.0695403 0.0493368 1.00269 
0.0758912 0.0565516 1.00195 
0.0759261 0.0603872 1.00178 
0.0815018 0.0683761 1.00097 
0.0913168 0.0799646 0.998522 
0.102715 0.0939833 0.995444 
0.10888 0.105523 0.993271 
0.119815 0.120609 0.986899 
0.115134 -0.125091 0.986896 
0.10568 -0.109645 0.993279 
0.0938518 -0.0937714 0.996761 
0.0815891 -0.0782053 0.999919 
0.0726144 -0.0672149 1.00146 
0.0769244 -0.0652147 1.00117 
0.068332 -0.0552624 1.00243 
0.0642423 -0.0501931 1.00274 
0.0650948 -0.04767 1.00282 
0.0615566 -0.0431486 1.00252 
0.0566099 -0.0367295 1.00473 
0.0426384 -0.0260219 1.00521 
0.0373644 -0.020994 1.00547 
0.0283736 -0.0144949 1.00579 
0.0176418 -0.00826303 1.00602 
0.0123864 -0.00528615 1.00648 
0.010124 -0.00374972 1.00527 
0.00412354 -0.00140177 1.00567 
0.003985 -0.00115802 1.00576 
0.00244934 -0.00061545 1.00561 
0.00238792 -0.000489106 1.00577 
0.00162916 -0.000258772 1.00568 
0.00143267 -0.000156782 1.00584 
0.00182104 -0.000100319 1.0058 
0.00164909 -1.53758e-05 1.00576 
0.001355 5.32534e-05 1.00574 
0.00161806 0.000135119 1.00581 
0.00217589 0.000275769 1.00578 
0.00189066 0.000339277 1.00572 
0.00267497 0.000597759 1.00575 
0.00452757 0.00114721 1.00574 
0.00370992 0.00114082 1.00635 
0.00850331 0.00295803 1.00572 
0.0110158 0.00434063 1.00577 
0.0137092 0.00604588 1.00585 
0.0218375 0.0109134 1.00574 
0.0298387 0.0162337 1.00505 
0.0462257 0.0265746 1.0049 
0.0440399 0.0275802 1.00503 
0.0599875 0.0385797 1.0036 
0.0586664 0.0409534 1.0029 
0.0651171 0.047438 1.00282 
0.0659356 0.0507662 1.0035 
0.066355 0.0546584 1.00202 
0.0724959 0.0628375 1.00186 
0.0783097 0.0711497 1.00083 
0.0865281 0.082152 0.99975 
0.095985 0.0970104 0.995687 
0.105353 0.111669 0.993018 
0.113703 0.126952 0.986782 
0.109622 -0.129708 0.986966 
0.100283 -0.113413 0.993351 
0.0910203 -0.0986249 0.9965 
0.0793107 -0.08259 0.999724 
0.071944 -0.072054 1.00108 
0.0657985 -0.0633948 1.00213 
0.0685206 -0.0600978 1.00219 
0.0621502 -0.0528559 1.00347 
0.0601683 -0.0493287 1.00224 
0.0570606 -0.0437206 1.0043 
0.0460076 -0.0328734 1.00467 
0.035622 -0.0238275 1.00541 
0.0214512 -0.0134071 1.00581 
0.0178933 -0.0101926 1.00583 
0.0114603 -0.00599264 1.00583 
0.00582865 -0.00284434 1.00571 
0.00331908 -0.00151009 1.00514 
0.00303147 -0.00122454 1.00642 
0.000941438 -0.000377731 1.00503 
0.000800248 -0.000288082 1.00626 
0.000385073 -0.000149363 1.00506 
0.000309438 -0.00010896 1.00634 
0.000166346 -7.07076e-05 1.00509 
0.000124175 -5.01842e-05 1.00634 
0.000230682 -7.05673e-06 1.0057 
0.000186186 6.06245e-06 1.00566 
0.000127473 1.81141e-05 1.0057 
0.00021995 3.92185e-05 1.00572 
0.000303484 7.46433e-05 1.0057 
0.00030206 0.000103203 1.00571 
0.000482108 0.000147899 1.00499 
0.00109175 0.000313099 1.00565 
0.000566388 0.000221965 1.00567 
0.00194453 0.000737442 1.00563 
0.00330971 0.00132358 1.0051 
0.0039513 0.00179465 1.00632 
0.00877073 0.00434204 1.00515 
0.0118642 0.00658893 1.00649 
0.0225411 0.0135082 1.00586 
0.0232544 0.01526 1.00572 
0.0394557 0.0271375 1.0059 
0.0584648 0.0440271 1.00337 
0.0617623 0.0491529 1.003 
0.0613881 0.0522532 1.00283 
0.0633299 0.0565975 1.00279 
0.0704501 0.0662647 1.00167 
0.0737506 0.0727516 1.00103 
0.079413 0.0821465 0.999957 
0.0877043 0.0962106 0.997458 
0.0970563 0.111056 0.993979 
0.109971 0.130461 0.986938 
0.104942 -0.133966 0.986975 
0.0944187 -0.1155 0.993736 
0.083875 -0.0987297 0.997281 
0.0739843 -0.0833498 1.00019 
0.0680467 -0.0734827 1.00124 
0.0628579 -0.06516 1.00218 
0.0569731 -0.0572501 1.00287 
0.0606659 -0.0560469 1.00213 
0.0577296 -0.0532732 1.0028 
0.0554978 -0.0488219 1.00327 
0.0442392 -0.0365208 1.00464 
0.0366644 -0.0282072 1.00526 
0.0218994 -0.0158606 1.00575 
0.0141199 -0.0095453 1.00579 
0.00749166 -0.00467667 1.00575 
0.00523561 -0.00300052 1.00567 
0.00229921 -0.0012396 1.00569 
0.000968058 -0.000495981 1.00559 
0.000524838 -0.000288275 1.00571 
0.000172469 -0.000110597 1.00564 
3.18471e-05 -7.72748e-05 1.0056 
-4.84208e-05 -3.22394e-05 1.00559 
-8.73621e-05 -4.69604e-05 1.00573 
-0.000102884 -2.87544e-05 1.00572 
-0.000113947 -4.25373e-05 1.00575 
-0.000110641 -1.00762e-05 1.00574 
-9.37634e-05 -1.09955e-06 1.00575 
-9.06217e-05 1.7032e-06 1.00574 
-7.72993e-05 1.049e-05 1.00569 
-7.35634e-05 2.89169e-05 1.00571 
-7.30827e-05 3.43416e-05 1.00572 
-4.17419e-05 2.83808e-05 1.00637 
5.51505e-05 5.63829e-05 1.00569 
-2.00957e-05 4.02915e-05 1.0057 
0.000304721 0.000148768 1.00571 
0.000777725 0.000344762 1.00568 
0.00101647 0.00050377 1.00571 
0.00326434 0.00172376 1.00563 
0.00343176 0.00200637 1.00563 
0.00868908 0.00539534 1.00576 
0.0102056 0.00696029 1.00505 
0.0214172 0.0155419 1.00576 
0.0406925 0.0305675 1.00505 
0.0482293 0.0391456 1.00443 
0.0529122 0.0455121 1.00378 
0.0592099 0.0543544 1.00299 
0.0607306 0.0582683 1.00278 
0.0650636 0.0658528 1.00282 
0.0685772 0.0729948 1.00065 
0.0727964 0.081193 1.00115 
0.0789877 0.0929922 0.998518 
0.092493 0.112521 0.994292 
0.105803 0.132845 0.986964 
0.100055 -0.137688 0.986975 
0.0897259 -0.118796 0.993784 
0.0779509 -0.0994167 0.997762 
0.0691603 -0.0847603 1.00043 
0.0651567 -0.0761564 1.00126 
0.0590104 -0.0663985 1.00234 
0.0540867 -0.0588415 1.00358 
0.0542254 -0.0537683 1.00295 
0.0433377 -0.0412926 1.00437 
0.0370344 -0.0330044 1.00508 
0.0226477 -0.0188891 1.00568 
0.0147945 -0.0116088 1.00576 
0.00712381 -0.00525468 1.00571 
0.00422392 -0.00289837 1.00573 
0.00171861 -0.00111689 1.00563 
0.000845129 -0.000525562 1.00562 
0.000247003 -0.000164436 1.0056 
3.95182e-05 -5.78493e-05 1.0056 
-6.72789e-05 -1.28962e-05 1.00562 
-9.25543e-05 -1.44263e-05 1.00562 
-0.000108447 -1.92846e-05 1.00554 
-0.000106476 -2.58244e-05 1.00557 
-9.61564e-05 -3.16398e-05 1.00558 
-8.92983e-05 -3.46183e-05 1.00566 
-8.95411e-05 -2.8481e-05 1.00565 
-7.91043e-05 -1.74517e-05 1.00568 
-7.54326e-05 -8.05207e-06 1.00571 
-7.57433e-05 -4.81806e-07 1.00571 
-6.93371e-05 9.45728e-06 1.00566 
-6.50959e-05 4.70903e-05 1.00567 
-9.24484e-05 2.40446e-05 1.00503 
-8.89856e-05 1.19534e-05 1.00567 
-0.000100554 1.90919e-05 1.00573 
-0.00010211 1.10395e-05 1.00567 
-5.91251e-05 5.63374e-06 1.00577 
6.79541e-05 4.95833e-05 1.00572 
6.36278e-05 5.06373e-05 1.0057 
0.000623798 0.000359106 1.00568 
0.000846795 0.000542082 1.00566 
0.00302435 0.0020103 1.00631 
0.00517035 0.00375912 1.00582 
0.0113559 0.00880392 1.00583 
0.0266682 0.0212074 1.00495 
0.0277309 0.0237678 1.00637 
0.0437576 0.0398339 1.00397 
0.0539594 0.0523927 1.00394 
0.0567097 0.0572957 1.00221 
0.0582856 0.0621877 1.00277 
0.0614709 0.0686574 1.00212 
0.0642365 0.0751134 1.00154 
0.0682718 0.0833401 1.00068 
0.0793026 0.10048 0.997657 
0.0932839 0.122128 0.992903 
0.0993814 0.137838 0.986958 
0.094912 -0.140879 0.987012 
0.085837 -0.122962 0.993613 
0.0748332 -0.103317 0.997633 
0.0650037 -0.08661 1.00059 
0.0606096 -0.0774312 1.00152 
0.0567895 -0.0695054 1.00227 
0.052814 -0.0624889 1.00277 
0.051274 -0.0583983 1.00218 
0.0514662 -0.0545928 1.00308 
0.0373971 -0.0383659 1.00476 
0.023183 -0.022318 1.00563 
0.0166293 -0.0149736 1.00571 
0.00734648 -0.00629255 1.00566 
0.00400342 -0.00321425 1.00565 
0.00168331 -0.00127901 1.00562 
0.000747559 -0.000551498 1.0056 
0.000142751 -0.000125389 1.00559 
1.31776e-05 -3.85055e-05 1.00562 
-6.43724e-05 1.3687e-06 1.00563 
-7.39207e-05 1.13404e-06 1.00552 
-6.87071e-05 -4.04267e-06 1.00554 
-6.57298e-05 -1.5063e-05 1.00555 
-6.06584e-05 -2.79654e-05 1.00554 
-4.5207e-05 -4.97691e-05 1.00549 
-2.80265e-05 -3.65359e-05 1.0055 
-3.17679e-05 -3.69489e-05 1.00557 
-2.06279e-05 -2.93478e-05 1.00557 
-1.29581e-05 -1.67472e-05 1.00558 
-1.92191e-05 -2.13285e-06 1.00564 
-3.02401e-05 1.088e-05 1.00563 
-3.4745e-05 2.10391e-05 1.00622 
-2.18952e-05 4.67408e-05 1.00552 
-3.45323e-05 3.46758e-05 1.00555 
-6.51224e-05 2.32763e-05 1.00561 
-5.02899e-05 2.00783e-05 1.00553 
-9.02099e-05 -4.72006e-06 1.00566 
-8.36354e-05 -1.80753e-05 1.00573 
-7.83881e-05 -2.60553e-05 1.00568 
4.07492e-05 3.4795e-05 1.00573 
5.49293e-05 3.73963e-05 1.00562 
0.000525017 0.000366626 1.005 
0.00145323 0.00107733 1.00563 
0.00367673 0.00296606 1.00635 
0.0105765 0.00895063 1.00589 
0.0184655 0.0170341 1.00591 
0.0332276 0.032077 1.00526 
0.0394585 0.0406139 1.00475 
0.0527498 0.0555739 1.00308 
0.0535052 0.0596209 1.00283 
0.0536794 0.0625528 1.00298 
0.0566798 0.069215 1.00171 
0.0590428 0.0757263 1.00187 
0.065571 0.0858489 1.00073 
0.07597 0.103802 0.997543 
0.0846575 0.120119 0.994152 
0.0946172 0.14162 0.987044 
0.0893578 -0.144758 0.986994 
0.0811765 -0.126179 0.993535 
0.0708343 -0.106235 0.997674 
0.0622789 -0.0900404 1.00045 
0.0578255 -0.0802712 1.00147 
0.0525225 -0.070088 1.0025 
0.0501241 -0.0642446 1.00282 
0.0489387 -0.0602689 1.00295 
0.040214 -0.0467903 1.00428 
0.0350278 -0.0385945 1.00489 
0.0179369 -0.0186146 1.00569 
0.00861141 -0.00837349 1.00569 
0.0042995 -0.00397663 1.00563 
0.00152876 -0.00134202 1.00556 
0.000689895 -0.000581899 1.0056 
0.000189331 -0.000172307 1.00554 
-1.71519e-05 -1.67403e-05 1.0056 
-5.51816e-05 1.22005e-05 1.00559 
-6.42654e-05 1.1004e-05 1.0056 
-3.27954e-05 -1.23504e-05 1.00548 
-2.25077e-05 -1.21505e-05 1.00543 
1.54145e-06 -4.20273e-05 1.00545 
1.7186e-05 -1.78121e-05 1.00549 
1.23475e-05 -4.62561e-05 1.00482 
-1.95211e-06 -4.71249e-05 1.00612 
-7.69645e-06 -4.05372e-05 1.00551 
-5.29196e-06 -3.55361e-05 1.00559 
-1.48897e-05 -2.59699e-05 1.00559 
-1.2147e-05 -1.45302e-05 1.00556 
-6.35667e-06 2.17712e-05 1.00558 
-1.35549e-05 1.84161e-05 1.00495 
-1.61569e-05 2.30855e-05 1.00562 
-2.46395e-06 4.54907e-05 1.00547 
-1.24842e-06 4.48784e-05 1.00548 
-1.21765e-05 4.3671e-05 1.00549 
-2.75544e-06 3.52608e-05 1.00548 
-3.55691e-05 6.43399e-06 1.0055 
-6.30507e-05 -1.56985e-05 1.00559 
-5.38297e-05 -2.3447e-05 1.00559 
-6.50179e-05 -3.65386e-05 1.00569 
-6.23214e-05 -4.32227e-05 1.00567 
0.000105831 9.17867e-05 1.00624 
0.000641149 0.000533062 1.00502 
0.00144918 0.00126868 1.00568 
0.00534168 0.0048296 1.00574 