# vtk DataFile Version 3.0 
Exported using Morpho https://github.com/Morpho-lang/morpho 
ASCII 
DATASET UNSTRUCTURED_GRID 

POINTS 3402 float 
-1.58244 -6.89173 -7.05057e-08 
-1.37896 -6.93531 5.13793e-08 
-1.17602 -6.97259 -2.93387e-08 
-0.971324 -7.00404 -3.35718e-08 
-0.732757 -7.033 8.2754e-08 
-0.525981 -7.05148 -9.50883e-08 
-0.301535 -7.06464 6.6744e-08 
-0.0954507 -7.07042 -6.53967e-08 
0.10921 -7.07022 2.24241e-08 
0.329645 -7.06338 3.55818e-08 
0.531596 -7.05106 -5.38193e-08 
0.740602 -7.03218 8.54579e-08 
0.945653 -7.00755 -6.51562e-08 
1.17498 -6.97276 3.19922e-08 
1.38128 -6.93484 -4.67999e-08 
1.61074 -6.88517 2.62527e-08 
-2.42543 -6.64208 5.89031e-08 
-2.2182 -6.71413 -3.35306e-08 
-2.01089 -6.77911 -2.54685e-08 
-1.80712 -6.83625 7.22818e-08 
-1.57728 -6.67612 1.4484e-15 
-1.3477 -6.70401 -2.44978e-15 
-1.13524 -6.73524 9.87873e-16 
-0.907438 -6.80233 -1.14857e-15 
-0.685836 -6.79853 -3.46186e-15 
-0.465481 -6.8305 4.20877e-15 
-0.255154 -6.81919 -7.54033e-16 
-0.047334 -6.82203 3.27113e-15 
0.169619 -6.83811 -2.17654e-15 
0.379784 -6.81154 -4.20682e-16 
0.587411 -6.80196 2.13588e-16 
0.79408 -6.77937 -2.78529e-15 
1.01375 -6.7764 1.11452e-15 
1.22827 -6.71982 -6.79888e-16 
1.44856 -6.70394 1.13079e-15 
1.68836 -6.66346 1.20225e-16 
1.85584 -6.82319 -1.1991e-08 
2.04434 -6.7691 3.78026e-08 
2.27915 -6.69369 -3.37506e-08 
-2.85358 -6.46971 5.32883e-08 
-2.65665 -6.55303 -5.54111e-08 
-2.4467 -6.42671 1.18244e-15 
-2.21222 -6.48283 1.41977e-15 
-1.99833 -6.54671 1.6937e-15 
-1.78538 -6.60093 -2.97263e-15 
-1.5443 -6.45057 6.97955e-17 
-1.333 -6.4884 7.38006e-17 
-1.11017 -6.50487 -1.52685e-17 
-0.904563 -6.57982 3.6552e-17 
-0.699742 -6.5562 -2.28077e-18 
-0.489497 -6.59701 -1.75676e-17 
-0.275219 -6.57804 -2.96593e-17 
-0.0649866 -6.57725 -2.62557e-17 
0.145547 -6.59989 -2.39263e-17 
0.356063 -6.57351 6.26213e-17 
0.567282 -6.55789 -3.91345e-18 
0.78731 -6.5519 1.35057e-17 
1.01061 -6.54469 2.04232e-17 
1.22937 -6.49081 -2.0267e-18 
1.46428 -6.49339 -5.74425e-17 
1.67609 -6.42887 6.49842e-17 
1.88865 -6.55318 -2.53042e-16 
2.11008 -6.5399 -2.75925e-15 
2.33196 -6.45704 -1.9348e-15 
2.50221 -6.61354 1.76932e-08 
2.67801 -6.54433 4.90078e-08 
2.91079 -6.44417 -5.93399e-08 
-3.2823 -6.26311 1.36726e-08 
-3.09662 -6.35696 -2.8794e-08 
-2.88838 -6.25294 -2.54297e-16 
-2.65025 -6.30952 2.09403e-15 
-2.40105 -6.21225 -4.22401e-17 
-2.19041 -6.27526 2.73727e-17 
-1.96405 -6.32448 -6.11882e-19 
-1.75186 -6.375 -3.84075e-17 
-1.55373 -6.21487 -4.01796e-17 
-1.34324 -6.25624 7.15387e-18 
-1.13168 -6.28087 2.42036e-18 
-0.908742 -6.33761 -1.76777e-17 
-0.69243 -6.32367 -2.00228e-17 
-0.48177 -6.36053 1.61101e-18 
-0.276203 -6.33429 9.0582e-18 
-0.0701094 -6.3364 6.73785e-19 
0.139323 -6.3594 2.03586e-17 
0.348351 -6.33478 -3.13411e-17 
0.556677 -6.31884 -5.51678e-17 
0.768358 -6.32176 1.07818e-17 
0.983712 -6.32194 1.16301e-16 
1.1966 -6.26483 6.53697e-17 
1.41573 -6.27725 -3.0869e-17 
1.63266 -6.21462 -3.42156e-17 
1.88114 -6.31488 -4.44827e-17 
2.08933 -6.32275 -2.81102e-17 
2.28229 -6.22699 1.5474e-16 
2.51355 -6.33234 -2.66842e-17 
2.73288 -6.31251 -2.49053e-15 
2.97881 -6.22142 3.3156e-15 
3.1634 -6.32399 -3.30644e-08 
3.37689 -6.21261 7.36636e-08 
-3.71349 -6.01748 8.72109e-09 
-3.5264 -6.12899 9.28198e-09 
-3.31171 -6.04652 -1.28225e-15 
-3.0755 -6.10378 7.09245e-16 
-2.83204 -6.0345 1.10361e-17 
-2.62692 -6.10506 3.91795e-17 
-2.42906 -5.98622 -3.0138e-17 
-2.2087 -6.03885 -2.94441e-17 
-1.99736 -6.10061 -1.4795e-17 
-1.77252 -6.14046 -1.10094e-17 
-1.55083 -5.9961 -6.37816e-18 
-1.32923 -6.02867 1.88808e-17 
-1.11847 -6.05027 4.48864e-18 
-0.911994 -6.11337 1.35757e-17 
-0.70404 -6.08838 2.28669e-17 
-0.493627 -6.12138 -2.35956e-17 
-0.284717 -6.0984 -1.03908e-17 
-0.0744159 -6.09559 4.79859e-17 
0.134011 -6.12014 -1.50052e-17 
0.341925 -6.09611 -8.64126e-18 
0.557399 -6.08907 -2.88795e-18 
0.771782 -6.08914 -3.3084e-17 
0.986624 -6.0908 -3.52303e-17 
1.20026 -6.03409 9.98007e-19 
1.41081 -6.05074 -8.60933e-18 
1.62109 -5.9859 1.28709e-17 
1.83768 -6.09663 -3.45799e-17 
2.05894 -6.08542 4.3666e-17 
2.28055 -6.00941 9.56989e-18 
2.50217 -6.11372 4.44562e-17 
2.73986 -6.10954 -3.14516e-16 
2.96351 -6.01251 1.23794e-16 
3.20124 -6.079 -2.07993e-15 
3.40935 -5.95769 -7.46474e-16 
3.58029 -6.09766 -3.27117e-08 
-3.9445 -5.86864 1.5752e-08 
-3.72653 -5.79918 -9.10756e-16 
-3.49851 -5.88335 -1.92943e-16 
-3.26522 -5.82724 1.57624e-17 
-3.05544 -5.89678 3.55534e-17 
-2.85764 -5.8018 -4.47738e-17 
-2.64079 -5.86278 -9.88215e-18 
-2.41429 -5.76744 2.24974e-17 
-2.19917 -5.81806 3.25739e-17 
-1.98491 -5.87249 -1.53244e-17 
-1.77497 -5.92206 7.44623e-18 
-1.56075 -5.7801 -9.79001e-18 
-1.33683 -5.81285 -5.83866e-18 
-1.1141 -5.82138 6.7484e-18 
-0.904886 -5.87922 4.83669e-18 
-0.70282 -5.84682 -1.28607e-17 
-0.502235 -5.88669 1.06709e-17 
-0.294399 -5.86434 3.61047e-17 
-0.0850169 -5.86171 1.68819e-17 
0.126318 -5.88245 4.20749e-17 
0.341635 -5.86875 -1.22692e-17 
0.554163 -5.85857 -1.10262e-17 
0.7648 -5.86205 -2.44081e-17 
0.97847 -5.86486 -1.9022e-17 
1.19554 -5.8153 -2.96895e-17 
1.41662 -5.81906 4.45558e-18 
1.63755 -5.76649 -1.70683e-17 
1.84723 -5.87749 -4.28145e-17 
2.06406 -5.86444 -2.82879e-17 
2.27043 -5.78549 1.07634e-17 
2.49196 -5.89074 7.0319e-17 
2.71121 -5.90497 6.33629e-17 
2.9233 -5.80324 -5.10111e-18 
3.16509 -5.86579 5.72743e-18 
3.39595 -5.75409 -5.77094e-17 
3.64257 -5.86153 2.22529e-15 
3.8228 -5.94863 -1.65109e-08 
3.99823 -5.83217 -3.93501e-08 
-4.38589 -5.54653 -3.90587e-10 
-4.13865 -5.73337 -3.56692e-10 
-3.92001 -5.63711 -1.09194e-16 
-3.69185 -5.57719 3.97171e-17 
-3.48957 -5.67034 2.2307e-17 
-3.29489 -5.59117 -4.73801e-17 
-3.0803 -5.65746 -5.83882e-18 
-2.85125 -5.58991 2.9024e-17 
-2.62419 -5.64159 3.95185e-17 
-2.4064 -5.54548 -2.65458e-17 
-2.19526 -5.59442 -2.02356e-17 
-1.98266 -5.64573 -4.36799e-18 
-1.77179 -5.69297 1.31571e-17 
-1.57488 -5.55089 -1.4131e-17 
-1.36494 -5.59662 -1.78453e-18 
-1.1459 -5.60598 1.43293e-18 
-0.919248 -5.64423 3.30935e-18 
-0.694946 -5.63149 1.37252e-17 
-0.473823 -5.65032 8.40963e-18 
-0.262192 -5.63269 1.72167e-18 
-0.0477898 -5.63534 7.23765e-19 
0.162424 -5.65466 -1.08392e-17 
0.37681 -5.64068 -1.43739e-17 
0.589347 -5.62974 -1.63724e-17 
0.800997 -5.63856 -1.30871e-17 
1.00808 -5.63692 -1.63675e-17 
1.23902 -5.60271 3.08857e-17 
1.45201 -5.59334 1.86657e-17 
1.65775 -5.53581 8.79351e-18 
1.85556 -5.65472 5.21923e-17 
2.05631 -5.63351 -8.5725e-17 
2.26757 -5.56268 1.22852e-17 
2.48048 -5.66981 -1.2267e-17 
2.69808 -5.68321 1.95017e-17 
2.93124 -5.59541 6.82539e-19 
3.15841 -5.66176 -6.28132e-17 
3.35654 -5.53377 2.51715e-19 
3.59382 -5.64358 2.32568e-17 
3.82082 -5.67259 -4.97072e-17 
4.03727 -5.593 8.3674e-16 
4.22819 -5.66766 2.58767e-08 
-4.5733 -5.39304 7.01433e-09 
-4.34036 -5.32247 2.16549e-17 
-4.16142 -5.51874 3.92758e-17 
-3.9354 -5.42897 1.55181e-16 
-3.72731 -5.35678 -3.05015e-17 
-3.50047 -5.42287 -3.66593e-17 
-3.27171 -5.37632 -9.70265e-18 
-3.0553 -5.43872 4.56945e-17 
-2.84656 -5.35991 -8.09458e-18 
-2.64134 -5.42728 8.326e-18 
-2.42885 -5.33488 -1.11536e-17 
-2.20403 -5.36515 -1.85321e-17 
-1.99734 -5.41665 -2.23595e-17 
-1.78743 -5.46132 -3.44833e-17 
-1.5501 -5.34289 -1.33902e-17 
-1.32746 -5.38269 -7.89133e-18 
-1.12154 -5.3756 -2.8089e-18 
-0.925402 -5.43334 6.0483e-18 
-0.732355 -5.39339 3.68406e-18 
-0.529282 -5.42786 -1.8549e-18 
-0.319758 -5.41129 -4.77406e-18 
-0.104084 -5.41116 -2.42543e-19 
0.112382 -5.42135 -4.43319e-18 
0.317757 -5.42234 1.39075e-18 
0.531954 -5.40979 7.45895e-18 
0.749142 -5.41121 9.38277e-18 
0.953467 -5.40851 7.09663e-18 
1.15925 -5.41529 1.24639e-17 
1.3931 -5.378 8.00554e-18 
1.59764 -5.32635 2.15796e-17 
1.84796 -5.41602 -2.16253e-17 
2.05523 -5.40794 7.43166e-17 
2.27766 -5.35059 -1.29215e-17 
2.49164 -5.45278 3.0241e-17 
2.71544 -5.47227 -4.27298e-17 
2.91378 -5.36713 2.3306e-14 
3.12582 -5.44123 1.14472e-17 
3.33279 -5.31825 4.67536e-18 
3.57024 -5.43002 4.69293e-17 
3.79858 -5.45502 -1.35258e-16 
4.02683 -5.38265 -8.99096e-17 
4.25872 -5.42208 -6.09394e-16 
4.44919 -5.49588 -2.90573e-09 
-4.79357 -5.19824 1.08696e-08 
-4.56395 -5.18235 -3.23576e-16 
-4.3477 -5.10019 4.03944e-17 
-4.12331 -5.28811 -4.82772e-17 
-3.91218 -5.1903 -4.99662e-20 
-3.6884 -5.13283 -4.71196e-18 
-3.49048 -5.21077 3.90956e-17 
-3.27972 -5.15226 1.59685e-17 
-3.06741 -5.21406 -2.92228e-19 
-2.84824 -5.14571 -2.74555e-17 
-2.62917 -5.19986 -2.98448e-17 
-2.38978 -5.13167 -2.50694e-17 
-2.1724 -5.15132 -2.16335e-17 
-1.96117 -5.19712 -6.00233e-18 
-1.75514 -5.24405 -4.53602e-18 
-1.55837 -5.11356 4.20514e-18 
-1.35273 -5.17033 1.28174e-17 
-1.13642 -5.15113 2.69762e-18 
-0.925918 -5.19201 -1.38544e-18 
-0.71035 -5.17291 -5.43391e-18 
-0.501655 -5.19938 -3.09649e-18 
-0.285066 -5.19221 -6.70919e-18 
-0.0658553 -5.19496 -1.24065e-17 
0.141092 -5.19148 -7.64296e-18 
0.351586 -5.20026 -6.31859e-18 
0.573773 -5.19633 -6.97891e-18 
0.778205 -5.18024 6.92086e-19 
0.986355 -5.18501 3.77383e-19 
1.2054 -5.21076 -1.85275e-18 
1.40953 -5.14549 -1.27441e-19 
1.69398 -5.1754 9.57144e-18 
1.89607 -5.18771 3.56437e-18 
2.10564 -5.18718 4.73593e-18 
2.29174 -5.09777 -4.93103e-18 
2.46498 -5.21969 -7.64142e-19 
2.66856 -5.25969 -6.24417e-18 
2.87465 -5.16392 4.82555e-18 
3.11687 -5.21651 9.28709e-18 
3.34667 -5.10553 5.75306e-18 
3.5636 -5.2264 3.06758e-17 
3.80055 -5.24163 3.15777e-17 
4.01419 -5.16109 -4.65908e-18 
4.23531 -5.2063 2.87055e-16 
4.46567 -5.24527 -1.32773e-15 
4.65664 -5.32125 1.20785e-08 
4.79542 -5.19653 7.44595e-09 
-4.99423 -5.00577 -1.19539e-08 
-4.76484 -4.98671 -4.41636e-17 
-4.54863 -4.95677 6.76518e-17 
-4.32896 -4.87182 -5.36186e-17 
-4.13497 -5.06392 -4.08769e-17 
-3.91293 -4.9774 1.01615e-17 
-3.68863 -4.92339 9.64129e-18 
-3.46505 -4.97792 6.46592e-18 
-3.25107 -4.92778 9.47178e-18 
-3.05058 -4.99514 1.86768e-17 
-2.85311 -4.91141 5.4571e-18 
-2.65434 -4.98039 6.16592e-18 
-2.44565 -4.95106 -2.24869e-19 
-2.19851 -4.93633 9.06952e-19 
-1.97834 -4.97197 -2.7615e-18 
-1.76866 -5.01404 1.07354e-17 
[...]
POINT_DATA 3402 
VECTORS vectors float
0.00441501 -0.000999791 0.99999 
0.00466603 -0.000897758 0.999989 
0.00469968 -0.000837055 0.999989 
0.00437731 -0.000646392 0.99999 
0.00425378 -0.000411173 0.999991 
0.00467253 -0.000377298 0.999989 
0.00431828 -0.000165756 0.999991 
0.00483796 -5.2698e-05 0.999988 
0.00448117 2.76146e-05 0.99999 
0.00447316 0.000241488 0.99999 
0.00472207 0.000370675 0.999989 
0.00462643 0.00046336 0.999989 
0.00437248 0.000578123 0.99999 
0.00434935 0.000791478 0.99999 
0.00465485 0.000888201 0.999989 
0.00381532 0.000889685 0.999992 
0.00405079 -0.00150805 0.999991 
0.00437557 -0.00141296 0.999989 
0.0045041 -0.00137768 0.999989 
0.004157 -0.00113139 0.999991 
0.0540147 -0.0127147 0.998459 
0.0571372 -0.0113975 0.998301 
0.0574226 -0.00969992 0.998303 
0.0542147 -0.00725747 0.998503 
0.0580195 -0.00592195 0.998298 
0.0559559 -0.00389869 0.998426 
0.0582986 -0.00218785 0.998297 
0.0585429 -0.000436586 0.998285 
0.0565082 0.00134558 0.998401 
0.0585017 0.0032287 0.998282 
0.0574662 0.00491876 0.998335 
0.057532 0.00670919 0.998321 
0.0549427 0.00824645 0.998455 
0.0570406 0.0104924 0.998317 
0.0538878 0.0116572 0.998479 
0.0516447 0.0131443 0.998579 
0.004502 0.00132882 0.999989 
0.00459428 0.00130946 0.999989 
0.00360323 0.00126152 0.999993 
0.00397106 -0.00176356 0.999991 
0.00416862 -0.00171196 0.99999 
0.0500914 -0.018997 0.998564 
0.0536082 -0.0182134 0.998396 
0.0547062 -0.0166385 0.998364 
0.0559921 -0.0151207 0.998317 
0.0683487 -0.0164076 0.997527 
0.0691923 -0.0143073 0.997501 
0.0700878 -0.012061 0.997468 
0.0690878 -0.00962021 0.997564 
0.070556 -0.00763873 0.997479 
0.0698479 -0.00524046 0.997544 
0.0703072 -0.0029622 0.997521 
0.0705652 -0.000698061 0.997507 
0.0699294 0.00154634 0.997551 
0.0702698 0.0037841 0.997521 
0.0697063 0.00604744 0.997549 
0.0697449 0.00837838 0.99753 
0.068784 0.0105909 0.997575 
0.0690737 0.0131037 0.997526 
0.0678719 0.015349 0.997576 
0.0676925 0.0176399 0.99755 
0.0577205 0.0166576 0.998194 
0.0513688 0.0165203 0.998543 
0.0516209 0.0186181 0.998493 
0.00467065 0.00187829 0.999987 
0.00456201 0.00177321 0.999988 
0.00363086 0.00166197 0.999992 
0.00396143 -0.0020885 0.99999 
0.00394761 -0.00197518 0.99999 
0.0467736 -0.0215586 0.998673 
0.0527024 -0.0220472 0.998367 
0.0650043 -0.0249809 0.997572 
0.0662565 -0.0230264 0.997537 
0.0675022 -0.0208886 0.9975 
0.0685397 -0.0187865 0.997472 
0.0731632 -0.0182099 0.997154 
0.073784 -0.0158401 0.997148 
0.0740576 -0.0133919 0.997164 
0.074181 -0.0107073 0.997187 
0.0744855 -0.00825675 0.997188 
0.0745461 -0.00574849 0.997201 
0.0746363 -0.00334818 0.997205 
0.0745578 -0.00089184 0.997216 
0.0744635 0.00159201 0.997223 
0.0745307 0.0041032 0.99721 
0.074262 0.00657978 0.997217 
0.0738141 0.0089819 0.997232 
0.0734591 0.011353 0.997234 
0.0732024 0.01393 0.99722 
0.07249 0.0163694 0.997235 
0.0719783 0.0189538 0.997226 
0.0684283 0.0204337 0.997447 
0.0659109 0.0217609 0.997588 
0.0660907 0.0240767 0.997523 
0.0565541 0.0223974 0.998148 
0.0484469 0.0208557 0.998608 
0.0448924 0.0214642 0.998761 
0.00389791 0.00207423 0.99999 
0.00424292 0.00230745 0.999988 
0.00387138 -0.00244557 0.99999 
0.00367394 -0.00216627 0.999991 
0.0443553 -0.0242629 0.998721 
0.0517881 -0.0260626 0.998318 
0.0628024 -0.0293924 0.997593 
0.0644583 -0.027632 0.997538 
0.0687851 -0.0277289 0.997246 
0.0702725 -0.0255059 0.997202 
0.0712985 -0.0231676 0.997186 
0.0723977 -0.0207688 0.99716 
0.0718925 -0.0185451 0.99724 
0.0719258 -0.0158889 0.997283 
0.0717421 -0.013327 0.997334 
0.0726605 -0.0109354 0.997297 
0.0712727 -0.00835254 0.997422 
0.0716951 -0.00586399 0.997409 
0.0706055 -0.00339547 0.997499 
0.0702537 -0.000971524 0.997529 
0.0708657 0.00152877 0.997485 
0.0703558 0.00399917 0.997514 
0.0704682 0.0065194 0.997493 
0.071142 0.00910622 0.997425 
0.0717377 0.0116837 0.997355 
0.071127 0.0141898 0.997366 
0.0721233 0.0168347 0.997254 
0.071406 0.0193613 0.997259 
0.0720233 0.0217305 0.997166 
0.0707332 0.0238858 0.997209 
0.0697822 0.0263067 0.997215 
0.0660715 0.0269277 0.997452 
0.0627484 0.0281715 0.997632 
0.0619107 0.0304266 0.997618 
0.047828 0.0252348 0.998537 
0.047427 0.0270929 0.998507 
0.00346702 0.00205306 0.999992 
0.00365404 -0.00248246 0.99999 
0.0427752 -0.0274462 0.998708 
0.0486941 -0.0289501 0.998394 
0.0601025 -0.0336576 0.997625 
0.062264 -0.0322144 0.99754 
0.0661498 -0.0324576 0.997282 
0.067859 -0.0304299 0.997231 
0.0692296 -0.0288682 0.997183 
0.069947 -0.0263107 0.997204 
0.0704074 -0.0236624 0.997238 
0.0707667 -0.0211101 0.99727 
0.0640287 -0.0172039 0.9978 
0.0633875 -0.0145729 0.997883 
0.0620403 -0.0119113 0.998003 
0.0631565 -0.00978121 0.997956 
0.0602234 -0.00731746 0.998158 
0.0614952 -0.00535749 0.998093 
0.0597171 -0.00312002 0.998211 
0.0591745 -0.000961456 0.998247 
0.0601878 0.00121797 0.998186 
0.059783 0.00349222 0.998205 
0.0601892 0.00577526 0.99817 
0.0611952 0.0081065 0.998093 
0.062539 0.0105443 0.997987 
0.0620842 0.0128327 0.997988 
0.0641692 0.0156102 0.997817 
0.0639121 0.018157 0.99779 
0.069797 0.0219503 0.99732 
0.0701898 0.0246471 0.997229 
0.0693451 0.0272132 0.997222 
0.068868 0.0290469 0.997203 
0.0671069 0.030715 0.997273 
0.0658502 0.0330889 0.997281 
0.0615348 0.0331765 0.997553 
0.0596342 0.0351985 0.9976 
0.0420949 0.026187 0.99877 
0.00388975 0.00261135 0.999989 
0.00380684 0.00263005 0.999989 
0.00343778 -0.00283164 0.99999 
0.00364513 -0.00269285 0.99999 
0.0444268 -0.03087 0.998536 
0.0574132 -0.0380353 0.997626 
0.0593743 -0.0365314 0.997567 
0.0631129 -0.0371568 0.997315 
0.0649331 -0.0353141 0.997265 
0.066609 -0.0339377 0.997202 
0.0674272 -0.0312923 0.997233 
0.0632569 -0.027284 0.997624 
0.0628598 -0.0244897 0.997722 
0.0624178 -0.0217666 0.997813 
0.0620468 -0.0192035 0.997889 
0.052894 -0.0149243 0.998489 
0.0529031 -0.0128857 0.998517 
0.0514472 -0.0105535 0.99862 
0.0515607 -0.0084741 0.998634 
0.0494914 -0.00619349 0.998755 
0.0493419 -0.00420136 0.998773 
0.047974 -0.00228686 0.998846 
0.0479227 -0.000429474 0.998851 
0.0489739 0.00141817 0.998799 
0.0487116 0.00332802 0.998807 
0.0488536 0.0052039 0.998792 
0.0501396 0.00723543 0.998716 
0.0515233 0.00931105 0.998628 
0.0514791 0.0114162 0.998609 
0.0537683 0.013923 0.998456 
0.0528597 0.0158106 0.998477 
0.0610061 0.0199697 0.997938 
0.0629419 0.0229962 0.997752 
0.0622765 0.0253399 0.997737 
0.0675003 0.0295354 0.997282 
0.0680413 0.032175 0.997164 
0.0666227 0.0347973 0.997171 
0.0644231 0.0359043 0.997277 
0.0631471 0.0382544 0.997271 
0.0580849 0.0370051 0.997626 
0.0475586 0.0320987 0.998353 
0.0402585 0.0290004 0.998768 
0.00353575 0.00268752 0.99999 
0.0035878 -0.003127 0.999989 
0.041277 -0.0336748 0.99858 
0.0376372 -0.0283563 0.998889 
0.0554465 -0.0402915 0.997648 
0.0598931 -0.0417 0.997333 
0.0622569 -0.0401767 0.997251 
0.0639149 -0.0389018 0.997197 
0.0648475 -0.0364386 0.99723 
0.0616442 -0.0326701 0.997563 
0.0614566 -0.0298212 0.997664 
0.0543446 -0.0245885 0.99822 
0.0521713 -0.0212575 0.998412 
0.0516374 -0.0188909 0.998487 
0.0508297 -0.0165086 0.998571 
0.0432216 -0.0124765 0.998988 
0.0428742 -0.0105569 0.999025 
0.0413701 -0.00864235 0.999107 
0.042416 -0.00727377 0.999074 
0.0397363 -0.00543529 0.999195 
0.0403165 -0.00397002 0.999179 
0.0389356 -0.00231181 0.999239 
0.0387315 -0.000734555 0.999249 
0.0391443 0.000837527 0.999233 
0.0395334 0.00234734 0.999216 
0.0394168 0.00390613 0.999215 
0.0403319 0.0055995 0.999171 
0.0411976 0.00728687 0.999125 
0.0425458 0.00911086 0.999053 
0.0431012 0.011159 0.999009 
0.042999 0.01281 0.998993 
0.0493133 0.016791 0.998642 
0.0520487 0.0196163 0.998452 
0.0525514 0.0222237 0.998371 
0.0603488 0.0275407 0.997797 
0.0638156 0.0316046 0.997461 
0.0626409 0.0339448 0.997459 
0.0650643 0.0373141 0.997183 
0.0635835 0.0398023 0.997183 
0.0612837 0.0402497 0.997309 
0.0574588 0.040111 0.997542 
0.0541536 0.0405528 0.997709 
0.0386034 0.0302672 0.998796 
0.0030972 0.00265991 0.999992 
0.00332232 -0.00316051 0.999989 
0.0362864 -0.0319036 0.998832 
0.0521081 -0.0444171 0.997653 
0.0539277 -0.0420412 0.997659 
0.0587958 -0.0443435 0.997285 
0.0610255 -0.0439243 0.997169 
0.0622413 -0.041788 0.997186 
0.0602084 -0.0383664 0.997448 
0.0592466 -0.0348432 0.997635 
0.0529163 -0.0292109 0.998172 
0.0510971 -0.0257251 0.998362 
0.044548 -0.0205998 0.998795 
0.042387 -0.0177424 0.998944 
0.0416002 -0.015597 0.999013 
0.0411488 -0.0137023 0.999059 
0.0347713 -0.0106018 0.999339 
0.0351628 -0.00921489 0.999339 
0.0331495 -0.00731729 0.999424 
0.0333835 -0.00596118 0.999425 
0.0315499 -0.00433088 0.999493 
0.0317926 -0.00306196 0.99949 
0.0308675 -0.00166642 0.999522 
0.0308083 -0.000343971 0.999525 
0.030727 0.000889482 0.999527 
0.0313971 0.00216317 0.999505 
0.031748 0.00354014 0.99949 
0.0321896 0.00484811 0.99947 
0.033113 0.00630157 0.999432 
0.0354582 0.00821883 0.999337 
0.034248 0.00937585 0.999369 
0.0381512 0.012417 0.999195 
0.0401345 0.0146381 0.999087 
0.0431884 0.017421 0.998915 
0.0417777 0.0187135 0.998952 
0.0494136 0.0232074 0.998509 
0.0544933 0.0276169 0.998132 
0.0540704 0.0300757 0.998084 
0.0601956 0.0359261 0.99754 
0.0597296 0.0390956 0.997449 
0.0619571 0.0422121 0.997186 
0.0596148 0.0432078 0.997286 
0.0573572 0.0445809 0.997358 
0.0527673 0.0426799 0.997694 
0.0386836 0.033113 0.998703 
0.0038201 0.00343068 0.999987 
0.00364672 0.00331956 0.999988 
0.00339622 -0.00354179 0.999988 
0.0355448 -0.0339595 0.998791 
0.0499051 -0.0458614 0.997701 
0.0549883 -0.048794 0.997294 
0.0565287 -0.046085 0.997337 
0.0589854 -0.0463866 0.997181 
0.0582194 -0.0436247 0.99735 
0.0569597 -0.0396573 0.997589 
0.0511815 -0.0337876 0.998118 
0.0502656 -0.0307282 0.998263 
0.0432166 -0.025123 0.99875 
0.042445 -0.0226237 0.998843 
0.0384183 -0.0189417 0.999082 
0.0348626 -0.0155218 0.999272 
0.0334893 -0.0133344 0.99935 
0.0329554 -0.0116542 0.999389 
0.0273568 -0.00866458 0.999588 
0.0272474 -0.00731359 0.999602 
0.025087 -0.00567355 0.999669 
0.0253409 -0.00461774 0.999668 
0.0229405 -0.00327024 0.999732 
0.0233063 -0.00236735 0.999726 
0.0229375 -0.0013872 0.999736 
0.022759 -0.000380052 0.999741 
0.0222507 0.000603905 0.999752 
0.0229056 0.0015667 0.999736 
0.0240126 0.00260682 0.999708 
0.0237396 0.00364215 0.999712 
0.0249346 0.00481791 0.999678 
0.027523 0.00644501 0.9996 
0.026671 0.00750413 0.999616 
0.0311988 0.0100204 0.999463 
0.0318801 0.0118444 0.999422 
0.0344239 0.0141973 0.999307 
0.0339612 0.0156335 0.999301 
0.0392437 0.0195982 0.999038 
0.044661 0.0235024 0.998726 
0.0450465 0.0261129 0.998644 
0.0521785 0.0321236 0.998121 
0.0508186 0.0339768 0.99813 
0.0588107 0.0416311 0.997401 
0.0601198 0.0447906 0.997186 
0.058621 0.0465942 0.997192 
0.0565177 0.0471479 0.997288 
0.0527903 0.0459101 0.99755 
0.0446849 0.0407832 0.998168 
0.0340538 0.0326919 0.998885 
0.00308572 0.00325096 0.99999 
0.00313007 -0.00357625 0.999989 
0.0323308 -0.0336058 0.998912 
0.0474228 -0.0474807 0.997746 
0.0527274 -0.050525 0.99733 
0.0552344 -0.0511265 0.997164 
0.0570928 -0.0484198 0.997194 
0.0561217 -0.0457332 0.997376 
0.050686 -0.0398269 0.99792 
0.0494745 -0.0362701 0.998117 
0.043226 -0.030065 0.998613 
0.0406144 -0.0260696 0.998835 
0.0351185 -0.0212493 0.999157 
0.0341469 -0.0189114 0.999238 
0.0313619 -0.0158295 0.999383 
0.0279078 -0.0128193 0.999528 
0.0260047 -0.010797 0.999604 
0.0253575 -0.00933311 0.999635 
0.0194657 -0.00649509 0.999789 
0.0197014 -0.00563195 0.99979 
0.0173599 -0.00417989 0.999841 
0.016838 -0.00325717 0.999853 
0.0150038 -0.00221587 0.999885 
0.0146328 -0.00147969 0.999892 
0.0148789 -0.000835659 0.999889 
0.0146922 -0.00016835 0.999892 
0.0140819 0.000457469 0.999901 
0.0146739 0.00110881 0.999892 
0.0161316 0.00191439 0.999868 
0.0153882 0.00248848 0.999879 
0.0171764 0.00353491 0.999846 
0.0197271 0.00488569 0.999794 
0.0199544 0.00603843 0.999783 
0.024607 0.00843841 0.999662 
0.0250751 0.00988419 0.999637 
0.0268784 0.0117313 0.99957 
0.0297699 0.0147889 0.999447 
0.0323504 0.0173623 0.999326 
0.0369495 0.020937 0.999098 
0.0353526 0.0218788 0.999135 
0.0420837 0.0267645 0.998756 
0.0408123 0.0282783 0.998767 
0.0499162 0.0360666 0.998102 
0.0544425 0.041818 0.997641 
0.0551327 0.045471 0.997443 
0.056402 0.0489543 0.997207 
0.0543479 0.0493027 0.997304 
0.0510499 0.0486699 0.99751 
0.046466 0.0469204 0.997817 
0.0308473 0.0325424 0.998994 
0.00305632 0.003633 0.999989 
0.00290927 -0.00366236 0.999989 
0.0313509 -0.0356682 0.998872 
0.0452063 -0.049082 0.997771 
0.0505255 -0.0527829 0.997327 
0.0528669 -0.0528434 0.997202 
0.0531335 -0.051344 0.997267 
0.0550249 -0.048528 0.997305 
0.0493275 -0.042326 0.997885 
0.0424756 -0.0347913 0.998492 
0.0400025 -0.0304688 0.998735 
0.0353049 -0.0250427 0.999063 
0.0324513 -0.0215587 0.999241 
0.0281689 -0.0174862 0.99945 
0.0273496 -0.0155469 0.999505 
0.024575 -0.0127854 0.999616 
0.0206179 -0.0099181 0.999738 
0.0182738 -0.00799072 0.999801 
0.0177354 -0.00690069 0.999819 
0.0123818 -0.00435129 0.999914 
0.012184 -0.00362661 0.999919 
0.0103585 -0.00256002 0.999943 
0.00971358 -0.00191073 0.999951 
0.00832387 -0.00123485 0.999965 
0.00792153 -0.000790287 0.999968 
0.0081791 -0.00042133 0.999967 
0.00793971 -4.46987e-05 0.999969 
0.00753773 0.000303851 0.999972 
0.00820116 0.00071251 0.999966 
0.00892228 0.00116819 0.99996 
0.0090351 0.00162355 0.999958 
0.0105159 0.00237664 0.999942 
0.0133061 0.00360718 0.999905 
0.0115532 0.00368132 0.999927 
0.0164478 0.0058024 0.999848 
0.0180361 0.00718118 0.999812 
0.0190406 0.00865092 0.999781 
0.0236741 0.0116906 0.999651 
0.0246277 0.013665 0.999603 
0.0288348 0.0171437 0.999437 
0.0283373 0.0184807 0.999428 
0.0333863 0.0228014 0.999182 
0.040577 0.0305729 0.998709 
0.0457876 0.0363448 0.99829 
0.0470603 0.0400947 0.998087 
0.0523153 0.046785 0.997534 
0.0543848 0.0510192 0.997216 
0.0526459 0.0516834 0.997275 
0.0506509 0.0522795 0.997347 
0.045974 0.0496755 0.997707 
0.0347907 0.039721 0.998605 
0.0031288 0.00383759 0.999988 
0.00281955 -0.00373167 0.999989 
0.0327727 -0.0402769 0.998651 
0.0442549 -0.0519687 0.997668 
0.0484842 -0.0546613 0.997327 
0.0510542 -0.0551672 0.997171 
0.051742 -0.053566 0.997223 
0.0460133 -0.046472 0.997859 
0.0495553 -0.0461679 0.997704 
0.0421376 -0.0390335 0.998349 
0.0386277 -0.0339511 0.998677 
0.0337775 -0.0277374 0.999044 
0.0316829 -0.0242624 0.999204 
0.0274429 -0.0198315 0.999427 
0.0249324 -0.0168215 0.999548 
0.0212024 -0.0131295 0.999689 
0.0198145 -0.0112705 0.99974 
0.0158141 -0.00834535 0.99984 
0.0122961 -0.00593159 0.999907 
0.0107002 -0.00459945 0.999932 
0.00843151 -0.00329061 0.999959 
0.00669892 -0.00219233 0.999975 
0.00571908 -0.00158307 0.999982 
0.00483424 -0.0010736 0.999988 
0.00414358 -0.000711606 0.999991 
0.00359356 -0.000428769 0.999994 
0.00362414 -0.000245 0.999993 
0.00354383 -6.79832e-05 0.999994 
0.00340006 9.73879e-05 0.999994 
0.00362738 0.000285651 0.999993 
0.00389876 0.000496794 0.999992 
0.00447806 0.000776248 0.99999 
0.00511871 0.00116567 0.999986 
0.00682494 0.00187648 0.999975 
0.00617877 0.00206606 0.999979 
0.00958436 0.00363412 0.999948 
0.0119734 0.00513577 0.999915 
0.0130134 0.00633748 0.999895 
0.0178098 0.00937212 0.999798 
0.017453 0.010161 0.999796 
0.0221119 0.0136752 0.999662 
0.0223749 0.0152217 0.999634 
0.0268693 0.0194403 0.99945 
0.0329289 0.0246024 0.999155 
0.0351405 0.0286187 0.998973 
0.0379046 0.0326204 0.998749 
0.0428648 0.0393676 0.998305 
0.0494375 0.0474665 0.997649 
0.0517743 0.0523639 0.997285 
0.0511259 0.0543553 0.997212 
0.049116 0.0546555 0.997297 
0.0451382 0.0529006 0.997579 
0.0351489 0.0429013 0.998461 
0.00277912 0.00349836 0.99999 
0.00261659 -0.00366065 0.99999 
0.0318277 -0.0421037 0.998606 
0.0427957 -0.0544441 0.997599 
0.0466106 -0.0569578 0.997288 
0.0489414 -0.0570808 0.997169 
0.0490386 -0.0547094 0.997297 
0.044729 -0.0482024 0.997836 
0.0383535 -0.0380446 0.99854 
0.0325508 -0.0308197 0.998995 
0.0306632 -0.0271137 0.999162 
0.0266652 -0.0220661 0.999401 
0.0239854 -0.0187238 0.999537 
0.0200722 -0.0147014 0.999691 
0.017967 -0.0121394 0.999765 
0.0137857 -0.00861609 0.999868 
0.0116912 -0.00677353 0.999909 
0.00842804 -0.00449059 0.999954 
0.0063503 -0.00304029 0.999975 
0.00420034 -0.00184528 0.99999 
0.00414958 -0.00157074 0.99999 
0.00268634 -0.000885665 0.999996 
0.00227053 -0.000620808 0.999997 
0.00167834 -0.000368781 0.999999 
0.001356 -0.00022342 0.999999 
0.00113339 -0.000122108 0.999999 
0.00103569 -5.55925e-05 1 
0.000982033 -1.6133e-06 1 
0.00108904 5.6e-05 0.999999 
0.00114616 0.000119266 0.999999 
0.00128859 0.000198769 0.999999 
0.00196666 0.000399727 0.999998 
0.00182228 0.000460835 0.999998 
0.00310349 0.000909724 0.999995 
0.00269412 0.000956144 0.999996 
0.00491184 0.00196619 0.999986 
0.00676511 0.00306334 0.999972 
0.00695442 0.00355217 0.99997 
0.0108846 0.0059947 0.999923 
0.011468 0.00703154 0.99991 
0.0158947 0.0104124 0.99982 
0.0185391 0.0135176 0.999737 
0.0224949 0.0174457 0.999595 
0.0281929 0.0225124 0.999349 
0.0282023 0.0243709 0.999305 
0.0328815 0.0299246 0.999011 
0.0370777 0.0359039 0.998667 
0.0437026 0.0441911 0.998067 
0.0466926 0.049782 0.997668 
0.0489439 0.0548415 0.997295 
0.048408 0.0566924 0.997218 
0.046308 0.0571582 0.997291 
0.0421949 0.0541278 0.997642 
0.0282195 0.0373255 0.998905 
0.00234969 0.00352494 0.999991 
0.00234848 -0.00361817 0.999991 
0.0291315 -0.0417519 0.998703 
0.0403541 -0.0558189 0.997625 
0.0441298 -0.058714 0.997299 
0.0463618 -0.059144 0.997172 
0.0465968 -0.0566102 0.997308 
0.0429135 -0.0502283 0.997815 
0.036497 -0.0415615 0.998469 
0.0358071 -0.0382133 0.998628 
0.0301374 -0.030764 0.999072 
0.0259634 -0.0249752 0.999351 
0.0242199 -0.021719 0.999471 
0.0197211 -0.016871 0.999663 
0.0171818 -0.0137395 0.999758 
0.0134118 -0.00996821 0.99986 
0.0110528 -0.00758393 0.99991 
0.00714269 -0.00459779 0.999964 
0.0057774 -0.00340813 0.999978 
0.00383276 -0.00205027 0.999991 
0.00222722 -0.00110757 0.999997 
0.0016634 -0.000721442 0.999998 
0.00117922 -0.000454715 0.999999 
0.000605552 -0.000207455 1 
0.000276847 -8.61232e-05 1 
-8.72545e-05 5.09428e-06 1 
-0.000271394 3.06965e-05 1 
-0.000547329 4.26425e-05 1 
-0.00067229 2.068e-05 1 
-0.000532059 -9.91863e-06 1 
-0.000449657 -3.05507e-05 1 
-0.000386703 -4.38416e-05 1 
0.00017721 4.44917e-05 1 
0.000281147 8.46977e-05 1 
0.000920207 0.000303989 1 
0.000582549 0.000233244 1 
0.00184294 0.000777219 0.999998 
0.00295203 0.0013927 0.999995 
0.00340293 0.00183158 0.999993 
0.00609804 0.00356105 0.999975 
0.00617169 0.00399937 0.999973 
0.00983731 0.00674336 0.999929 
0.0131538 0.00964809 0.999867 
0.0163148 0.0132144 0.99978 
0.0220566 0.0186847 0.999582 
0.0244938 0.0225882 0.999445 
0.0287312 0.0278431 0.999199 
0.0297735 0.0307434 0.999084 
0.0357248 0.0374902 0.998658 
0.0389642 0.0433225 0.998301 
0.0432817 0.0504431 0.997789 
0.0462032 0.0564008 0.997339 
0.0459994 0.0590663 0.997194 
0.0440278 0.0585791 0.997311 
0.040125 0.0552233 0.997668 
0.0305189 0.0438142 0.998573 
0.00271586 0.00415487 0.999988 
0.00235535 -0.00397226 0.999989 
0.0278699 -0.0434535 0.998667 
0.0382017 -0.0571944 0.997632 
0.0417608 -0.0603362 0.997304 
0.0438936 -0.060902 0.997178 
0.0434161 -0.0576747 0.997391 
0.0402871 -0.0513074 0.99787 
0.0346481 -0.0427149 0.998486 
0.0290917 -0.0341428 0.998994 
0.0279708 -0.0307713 0.999135 
0.0237555 -0.0246598 0.999414 
0.0198266 -0.0192531 0.999618 
0.0165828 -0.0153111 0.999745 
0.0125594 -0.0108532 0.999862 
0.0100786 -0.0080957 0.999916 
0.00704262 -0.0052302 0.999962 
0.00449533 -0.0031355 0.999985 
0.0027327 -0.00175097 0.999995 
0.00211745 -0.00123758 0.999997 
0.000778496 -0.000433893 1 
0.00053437 -0.000271706 1 
-8.56814e-05 1.49783e-05 1 
-0.000364559 0.000107954 1 
-0.000932466 0.000259356 1 
-0.0013524 0.000308935 0.999999 
-0.00176118 0.000301405 0.999998 
-0.00221456 0.000257147 0.999998 
-0.00274394 0.000163805 0.999996 
-0.00269349 7.66918e-06 0.999996 
-0.00244615 -0.000130106 0.999997 
-0.00227396 -0.000250677 0.999997 
-0.00207379 -0.000346054 0.999998 
-0.00116294 -0.000235774 0.999999 
-0.00138565 -0.000357696 0.999999 