# vtk DataFile Version 3.0 
Exported using Morpho https://github.com/Morpho-lang/morpho 
ASCII 
DATASET UNSTRUCTURED_GRID 

POINTS 1978 float 
-8.48528 -2.82843 -6.36949e-14 
-8.26359 -2.82843 3.15851e-13 
-8.03935 -2.82843 3.53727e-13 
-7.78289 -2.82843 5.49796e-13 
-7.50116 -2.82843 6.52329e-13 
-7.23588 -2.82843 5.04157e-13 
-6.99895 -2.82843 4.03125e-13 
-6.77056 -2.82843 3.43647e-13 
-6.55181 -2.82843 2.94332e-13 
-6.33874 -2.82843 2.70047e-13 
-6.12801 -2.82843 2.49994e-13 
-5.92407 -2.82843 2.43692e-13 
-5.70677 -2.82843 2.20641e-13 
-5.50796 -2.82843 2.3169e-13 
-5.29007 -2.82843 2.30272e-13 
-5.08082 -2.82843 2.23961e-13 
-4.86213 -2.82843 2.11174e-13 
-4.6587 -2.82843 2.15398e-13 
-4.43682 -2.82843 2.18047e-13 
-4.22105 -2.82843 2.00436e-13 
-4.00711 -2.82843 1.73526e-13 
-3.80879 -2.82843 1.47091e-13 
-3.60385 -2.82843 1.16437e-13 
-3.39772 -2.82843 6.37114e-14 
-3.18558 -2.82843 -7.2823e-15 
-2.9739 -2.82843 -9.38383e-14 
-2.75587 -2.82843 -1.96144e-13 
-2.52937 -2.82843 -2.95916e-13 
-2.29974 -2.82843 -3.63825e-13 
-2.0611 -2.82843 -2.90045e-13 
-1.82115 -2.82843 2.20559e-13 
-1.60288 -2.82843 1.69129e-12 
-1.3794 -2.82843 5.22358e-12 
-1.20028 -2.82843 1.29717e-11 
-0.975822 -2.82843 3.59921e-11 
-0.851266 -2.82843 5.76867e-11 
-0.719055 -2.82843 8.40485e-11 
-0.624197 -2.82843 1.89422e-10 
-0.314419 -2.82843 5.01565e-10 
0.154627 -2.82843 -9.61336e-12 
0.274935 -2.82843 -3.30779e-10 
0.589661 -2.82843 -1.31788e-10 
0.702329 -2.82843 -5.81219e-11 
0.827537 -2.82843 -6.45714e-11 
1.0222 -2.82843 -2.63185e-11 
1.18638 -2.82843 -1.11748e-11 
1.37816 -2.82843 -5.3076e-12 
1.6027 -2.82843 -1.76662e-12 
1.84066 -2.82843 -1.80648e-13 
2.08688 -2.82843 2.91664e-13 
2.31787 -2.82843 3.09772e-13 
2.53216 -2.82843 2.66479e-13 
2.75168 -2.82843 1.92714e-13 
2.97619 -2.82843 8.88392e-14 
3.20052 -2.82843 1.54674e-16 
3.41151 -2.82843 -7.27306e-14 
3.62685 -2.82843 -1.17027e-13 
3.81977 -2.82843 -1.5373e-13 
4.03308 -2.82843 -1.88332e-13 
4.24946 -2.82843 -1.91884e-13 
4.4461 -2.82843 -1.97516e-13 
4.65813 -2.82843 -2.0549e-13 
4.86255 -2.82843 -2.12657e-13 
5.0713 -2.82843 -2.18162e-13 
5.28245 -2.82843 -2.35758e-13 
5.50198 -2.82843 -2.28686e-13 
5.70065 -2.82843 -2.29997e-13 
5.91885 -2.82843 -2.59084e-13 
6.14194 -2.82843 -2.52466e-13 
6.34225 -2.82843 -2.81624e-13 
6.58108 -2.82843 -3.19824e-13 
6.79575 -2.82843 -2.96745e-13 
6.99661 -2.82843 -4.14472e-13 
7.2692 -2.82843 -5.13879e-13 
7.49819 -2.82843 -5.29954e-13 
7.74508 -2.82843 -5.63493e-13 
8.02007 -2.82843 -3.71964e-13 
8.20666 -2.82843 -3.34546e-13 
8.48528 -2.82843 -1.30624e-14 
-8.48528 -2.59411 -2.17508e-14 
-8.26105 -2.58949 1.96792e-17 
-8.03314 -2.58665 3.44064e-17 
-7.79976 -2.61887 4.74004e-17 
-7.54678 -2.63868 4.69241e-17 
-7.26031 -2.62401 3.518e-17 
-6.99728 -2.5944 3.32756e-17 
-6.77861 -2.59971 3.05304e-17 
-6.55015 -2.59633 2.85079e-17 
-6.32532 -2.5932 2.52701e-17 
-6.10917 -2.58858 2.34897e-17 
-5.8892 -2.5997 2.34485e-17 
-5.68203 -2.57592 1.95649e-17 
-5.46324 -2.59993 2.10054e-17 
-5.2481 -2.5894 1.88891e-17 
-5.02871 -2.5999 1.94055e-17 
-4.81868 -2.58355 1.73087e-17 
-4.59861 -2.60493 1.83657e-17 
-4.3761 -2.60121 1.67624e-17 
-4.15709 -2.60132 1.52829e-17 
-3.95019 -2.58366 1.16131e-17 
-3.74158 -2.59107 8.75021e-18 
-3.52908 -2.59085 -4.34058e-14 
-3.3118 -2.59488 2.6039e-14 
-3.0911 -2.58949 -1.00427e-17 
-2.86681 -2.5904 -1.80714e-17 
-2.63396 -2.5923 -2.58111e-17 
-2.39383 -2.58809 -2.90594e-17 
-2.15249 -2.59642 -2.67896e-17 
-1.90435 -2.60404 -1.53048e-17 
-1.66423 -2.59378 2.88523e-17 
-1.44496 -2.62323 -2.92752e-17 
-1.23938 -2.61254 -1.39724e-16 
-1.07009 -2.68896 -9.13882e-16 
-0.91314 -2.62142 -9.20669e-16 
-0.795313 -2.50227 2.55204e-15 
-0.785542 -2.67888 -3.21553e-15 
-0.550283 -2.77958 -3.88169e-15 
-0.247838 -2.77472 1.25962e-14 
0.0861027 -2.76147 -1.04268e-14 
0.331329 -2.64353 5.72808e-15 
0.493308 -2.77944 3.16703e-15 
0.676321 -2.67212 4.10901e-15 
0.784567 -2.62952 2.28341e-15 
0.93897 -2.69061 1.15471e-15 
1.12936 -2.62347 5.86367e-16 
1.32745 -2.61887 2.46683e-16 
1.54074 -2.61517 -3.9874e-17 
1.77931 -2.61167 2.19341e-17 
2.03168 -2.60821 2.06601e-17 
2.28542 -2.59031 2.32033e-17 
2.52038 -2.58473 2.66765e-17 
2.75604 -2.58962 2.10315e-17 
2.9923 -2.59677 1.42854e-17 
3.21632 -2.58879 5.57336e-18 
3.4426 -2.59895 1.91107e-14 
3.64561 -2.57591 -6.27278e-18 
3.86398 -2.60262 -1.20344e-17 
4.08751 -2.60521 -1.47948e-17 
4.29551 -2.58132 -1.45912e-17 
4.50834 -2.5984 -1.76305e-17 
4.72022 -2.58813 -1.73793e-17 
4.93312 -2.59318 -1.84512e-17 
5.14756 -2.59482 -1.94411e-17 
5.36961 -2.60417 -2.08428e-17 
5.58067 -2.58016 -1.93485e-17 
5.79508 -2.60127 -2.27482e-17 
6.02159 -2.60381 -2.39817e-17 
6.23703 -2.57464 -2.23992e-17 
6.45738 -2.61296 -2.95064e-17 
6.68656 -2.58479 -2.73358e-17 
6.89596 -2.56501 -2.58994e-17 
7.12726 -2.63332 -3.92569e-17 
7.37852 -2.593 -3.53945e-17 
7.61478 -2.61099 -4.76281e-17 
7.87611 -2.63233 -5.08601e-17 
8.08504 -2.53868 -2.54818e-17 
8.30694 -2.63127 -2.15543e-17 
8.48528 -2.5246 2.72095e-14 
-8.48528 -2.35517 -1.41569e-14 
-8.24826 -2.35532 1.56198e-14 
-8.00556 -2.3536 5.45231e-18 
-7.76435 -2.39931 1.33541e-17 
-7.55911 -2.25193 5.29043e-15 
-7.47129 -2.45679 2.04489e-17 
-7.18973 -2.41378 1.00152e-17 
-6.95186 -2.35336 -3.36036e-15 
-6.71717 -2.38061 6.09329e-18 
-6.47764 -2.36656 6.60755e-18 
-6.24874 -2.35911 5.6423e-18 
-6.02237 -2.36262 4.63713e-18 
-5.81217 -2.34907 -4.39233e-14 
-5.57739 -2.35684 -4.51953e-14 
-5.36422 -2.36171 -4.05888e-14 
-5.13723 -2.36486 -4.14068e-14 
-4.92605 -2.35292 -3.2717e-14 
-4.69938 -2.36718 -3.74582e-14 
-4.48165 -2.37933 -3.68979e-14 
-4.2584 -2.37459 -2.78336e-14 
-4.04954 -2.35331 -1.163e-14 
-3.83446 -2.35136 -7.6252e-16 
-3.62293 -2.3573 8.43852e-15 
-3.40433 -2.36146 2.24819e-14 
-3.18486 -2.35964 4.28422e-14 
-2.95811 -2.35505 -5.9997e-18 
-2.72847 -2.35849 -8.08443e-18 
-2.49205 -2.35811 -1.06464e-17 
-2.24783 -2.3558 -1.38307e-17 
-2.00858 -2.37315 -1.81828e-17 
-1.7725 -2.37396 -2.85925e-17 
-1.53227 -2.38424 -9.78883e-18 
-1.33042 -2.4104 -1.62965e-14 
-1.12594 -2.45192 -1.0767e-17 
-0.9895 -2.47959 4.74539e-16 
-0.682848 -2.35988 -2.32404e-15 
-0.674556 -2.64382 -8.30367e-16 
-0.457733 -2.73879 -2.04635e-15 
-0.157592 -2.72726 3.0943e-15 
-0.0542392 -2.80009 1.97034e-15 
0.232361 -2.71692 -9.9321e-16 
0.387191 -2.73631 8.90732e-15 
0.618749 -2.51353 2.39268e-16 
0.753029 -2.46949 1.31288e-15 
0.94461 -2.51817 6.54841e-16 
1.14189 -2.43976 2.83779e-16 
1.29479 -2.38915 -7.63671e-17 
1.49099 -2.39939 1.76502e-17 
1.71608 -2.39768 -5.58855e-18 
1.95883 -2.39402 2.03518e-17 
2.20937 -2.3745 9.15294e-18 
2.45922 -2.3454 8.37424e-18 
2.6954 -2.36198 9.62241e-18 
2.93435 -2.36545 7.61681e-18 
3.15999 -2.35422 -4.99e-14 
3.38346 -2.36762 -2.51885e-14 
3.59249 -2.33173 -1.38345e-14 
3.80344 -2.36678 3.89894e-15 
4.01625 -2.38105 2.04643e-14 
4.22645 -2.35099 1.48848e-14 
4.44485 -2.35868 2.751e-14 
4.65058 -2.35563 2.97003e-14 
4.86625 -2.35682 3.11813e-14 
5.07827 -2.35961 3.32954e-14 
5.29602 -2.37566 4.72369e-14 
5.50781 -2.35067 3.57109e-14 
5.73011 -2.36017 4.58968e-14 
5.945 -2.37898 -5.89716e-18 
6.16218 -2.34805 4.72597e-14 
6.39682 -2.36609 -6.34558e-18 
6.60744 -2.36603 -6.81252e-18 
6.83173 -2.31676 1.94521e-14 
7.06421 -2.38342 -4.97846e-18 
7.28274 -2.39472 -6.71463e-18 
7.5465 -2.37355 -9.23718e-18 
7.78232 -2.4167 -1.57269e-17 
7.99485 -2.32253 2.42377e-14 
8.25674 -2.36127 -3.54129e-14 
8.48528 -2.28825 6.01735e-15 
-8.48528 -2.11914 9.07441e-15 
-8.25644 -2.10483 -5.7717e-18 
-8.04592 -2.1156 3.50135e-14 
-7.79638 -2.15755 3.09931e-14 
-7.51402 -2.03713 3.39369e-14 
-7.30497 -2.23393 3.37125e-14 
-7.06517 -2.15129 -7.80372e-18 
-6.80005 -2.13803 -6.4061e-18 
-6.58438 -2.15198 4.85088e-14 
-6.34991 -2.13532 4.71497e-14 
-6.12412 -2.12899 -4.82152e-18 
-5.91553 -2.10946 -4.73155e-18 
-5.69147 -2.13562 4.1285e-14 
-5.46936 -2.11759 4.84992e-14 
-5.25423 -2.13785 4.68346e-14 
-5.04216 -2.11752 4.85437e-14 
-4.82141 -2.13469 4.35432e-14 
-4.60321 -2.14046 4.22264e-14 
-4.39028 -2.15167 4.12726e-14 
-4.18493 -2.12611 4.43791e-14 
-3.97225 -2.1201 4.62597e-14 
-3.76025 -2.11722 4.45615e-14 
-3.54611 -2.1279 3.87857e-14 
-3.32944 -2.12724 3.42367e-14 
-3.10726 -2.12752 3.26905e-14 
-2.87886 -2.12209 2.92545e-14 
-2.64777 -2.12618 2.34191e-14 
-2.40903 -2.12793 3.59517e-14 
-2.16628 -2.12483 4.87219e-14 
-1.93726 -2.13884 -1.26933e-17 
-1.69822 -2.16081 -2.04603e-17 
-1.48834 -2.13661 2.89545e-17 
-1.30405 -2.18705 3.19661e-17 
-1.12772 -2.25558 2.64052e-17 
-0.955287 -2.25163 5.24002e-16 
-0.850801 -2.36541 1.12025e-15 
-0.651947 -2.4996 -9.72003e-16 
-0.37241 -2.69626 -5.63604e-15 
-0.264901 -2.66266 -7.385e-15 
0.0975379 -2.66608 -6.54504e-15 
0.466147 -2.61515 8.51353e-15 
0.565388 -2.6617 7.26107e-15 
0.628966 -2.3497 -3.23003e-15 
0.854646 -2.3486 -6.60338e-16 
1.01569 -2.32012 -1.32506e-16 
1.13727 -2.17588 -3.32523e-16 
1.31806 -2.17079 -2.9105e-17 
1.52636 -2.17868 4.94006e-17 
1.75199 -2.17674 7.57325e-18 
1.99039 -2.17128 1.3292e-17 
2.23867 -2.14745 7.07072e-18 
2.48826 -2.1146 -4.85242e-14 
2.72652 -2.13752 -2.47742e-14 
2.95495 -2.12938 -2.91152e-14 
3.18343 -2.12402 -3.27033e-14 
3.39329 -2.12266 -3.63889e-14 
3.61725 -2.10528 -4.25699e-14 
3.83664 -2.13585 -4.38721e-14 
4.04402 -2.14092 -4.42016e-14 
4.26946 -2.12667 -4.25738e-14 
4.47579 -2.1151 -4.54421e-14 
4.69251 -2.12517 -4.66397e-14 
4.90573 -2.12084 -4.7239e-14 
5.12608 -2.13277 -4.7647e-14 
5.33513 -2.13447 -4.60902e-14 
5.56276 -2.12674 -4.57775e-14 
5.78127 -2.12898 -4.64711e-14 
5.99214 -2.13802 -4.34351e-14 
6.23427 -2.13431 -4.06893e-14 
6.44626 -2.11639 4.80947e-18 
6.65834 -2.11922 5.43426e-18 
6.92205 -2.11283 8.60326e-18 
7.13449 -2.14135 9.53795e-18 
7.37085 -2.18287 4.85517e-18 
7.56953 -2.09206 -2.88e-14 
7.7565 -2.17861 -1.76271e-14 
7.96451 -2.07553 5.75337e-18 
8.19077 -2.1438 6.29158e-18 
8.48528 -2.10327 -1.39081e-15 
-8.48528 -1.81488 -2.96391e-15 
-8.30935 -1.86286 1.43666e-14 
-7.89555 -1.91647 4.65927e-14 
[...]
POINT_DATA 1978 
VECTORS vectors float
0.000403603 -0.00101921 0.999999 
0.000190963 -0.0228441 0.999739 
6.28199e-05 -0.0227237 0.999742 
0.00013921 -0.0261859 0.999657 
4.62482e-05 -0.0303692 0.999539 
0.000115304 -0.0296912 0.999559 
0.000168031 -0.0272121 0.99963 
0.000202408 -0.0238918 0.999715 
0.000235641 -0.0209164 0.999781 
0.000266094 -0.0188476 0.999822 
0.000274198 -0.0173727 0.999849 
0.00028036 -0.0160308 0.999871 
0.000275103 -0.0151479 0.999885 
0.000288205 -0.0149386 0.999888 
0.000255129 -0.0145327 0.999894 
0.000260106 -0.0139813 0.999902 
0.000266825 -0.0136125 0.999907 
0.000264825 -0.0133828 0.99991 
0.000233105 -0.0130547 0.999915 
0.000252968 -0.0124444 0.999923 
0.000291342 -0.0116879 0.999932 
0.000308868 -0.0104298 0.999946 
0.000286128 -0.00815214 0.999967 
0.000257374 -0.00435531 0.99999 
0.00023332 0.00142179 0.999999 
0.000204226 0.00963898 0.999954 
0.000167041 0.0212627 0.999774 
0.000129973 0.0374437 0.999299 
9.63252e-05 0.0596619 0.998219 
8.04373e-05 0.0910221 0.995849 
4.51315e-05 0.134264 0.990946 
-3.75574e-05 0.18953 0.981875 
-1.37098e-05 0.264145 0.964483 
-0.000140267 0.331956 0.943295 
-0.000615609 0.455809 0.890078 
-0.000556399 0.54572 0.837967 
-0.000543613 0.636226 0.771503 
-0.000859045 0.711662 0.702522 
0.000503192 0.914968 0.403526 
-0.000463762 0.984539 -0.175162 
0.000196744 0.931628 -0.363413 
0.00060253 0.718196 -0.695841 
0.000602075 0.636188 -0.771534 
0.000589606 0.549742 -0.835334 
0.000507937 0.427516 -0.904007 
0.000123471 0.343158 -0.939278 
7.64832e-05 0.268176 -0.96337 
3.04424e-05 0.192489 -0.981299 
-5.6771e-05 0.134585 -0.990902 
-6.89701e-05 0.090139 -0.995929 
-0.00012653 0.0590744 -0.998254 
-0.000168663 0.0385118 -0.999258 
-0.000152235 0.0223869 -0.999749 
-0.000166549 0.00925412 -0.999957 
-0.000202775 0.000688091 -1 
-0.000255526 -0.0048511 -0.999988 
-0.000284513 -0.00855456 -0.999963 
-0.00029642 -0.0104909 -0.999945 
-0.000266447 -0.0118129 -0.99993 
-0.000278902 -0.0127895 -0.999918 
-0.000305788 -0.013049 -0.999915 
-0.000292514 -0.0133796 -0.99991 
-0.000290545 -0.0137821 -0.999905 
-0.000271408 -0.0139252 -0.999903 
-0.000259797 -0.0143465 -0.999897 
-0.000277699 -0.014847 -0.99989 
-0.000272873 -0.0151267 -0.999886 
-0.000243045 -0.0159818 -0.999872 
-0.000244913 -0.0173402 -0.99985 
-0.000216438 -0.0187534 -0.999824 
-0.000209999 -0.0214258 -0.99977 
-0.00023944 -0.0242022 -0.999707 
-0.000163745 -0.0267942 -0.999641 
-9.92369e-05 -0.030432 -0.999537 
-0.000134055 -0.031101 -0.999516 
-0.000169647 -0.0274644 -0.999623 
-0.000123611 -0.0231097 -0.999733 
-8.42366e-05 -0.0229412 -0.999737 
-9.98037e-05 -0.000553248 -1 
0.000748769 -8.90734e-05 1 
0.0119303 -0.0215687 0.999696 
0.0149395 -0.0247119 0.999583 
0.0152632 -0.0255903 0.999556 
0.0141866 -0.0277741 0.999514 
0.0137474 -0.0285184 0.999499 
0.0150275 -0.0267732 0.999529 
0.0153541 -0.024156 0.99959 
0.0160992 -0.021116 0.999647 
0.0164631 -0.0189144 0.999686 
0.0170024 -0.0172262 0.999707 
0.0169471 -0.0158164 0.999731 
0.017537 -0.0149429 0.999735 
0.0171037 -0.0145255 0.999748 
0.017449 -0.0140711 0.999749 
0.0172206 -0.0135776 0.99976 
0.0176352 -0.0131542 0.999758 
0.0170354 -0.0128172 0.999773 
0.0170746 -0.0123017 0.999779 
0.016962 -0.0115437 0.999789 
0.0172055 -0.0103849 0.999798 
0.0168107 -0.00858542 0.999822 
0.01658 -0.0055245 0.999847 
0.0161048 -0.000713924 0.99987 
0.0157186 0.0064326 0.999856 
0.0151394 0.0165479 0.999748 
0.0147207 0.0309105 0.999414 
0.0148587 0.0511582 0.99858 
0.0151569 0.0793097 0.996735 
0.0160408 0.119474 0.992708 
0.0188345 0.172063 0.984906 
0.0203729 0.237685 0.971129 
0.0266667 0.312702 0.949477 
0.0194749 0.401698 0.915565 
0.0416464 0.501447 0.864185 
0.0927535 0.543753 0.834104 
0.0395203 0.598067 0.800471 
0.0117152 0.768017 0.640322 
0.0201853 0.938747 0.344015 
-0.0105331 0.994482 -0.104378 
-0.0313186 0.914526 -0.403313 
-0.00725484 0.78614 -0.618006 
-0.0345778 0.652034 -0.757401 
-0.0451704 0.564716 -0.824048 
-0.0218216 0.472279 -0.881179 
-0.0275952 0.361208 -0.932077 
-0.0231208 0.277823 -0.960354 
-0.0184569 0.209153 -0.977709 
-0.0168086 0.148199 -0.988815 
-0.0152244 0.101098 -0.99476 
-0.014726 0.0657432 -0.997728 
-0.0146244 0.0415572 -0.999029 
-0.0143963 0.0232378 -0.999626 
-0.0150938 0.0103568 -0.999832 
-0.0159673 0.00192635 -0.999871 
-0.0162281 -0.00400985 -0.99986 
-0.0170477 -0.00735874 -0.999828 
-0.0166215 -0.00982828 -0.999814 
-0.0167948 -0.0113088 -0.999795 
-0.017491 -0.0120625 -0.999774 
-0.0172468 -0.0126173 -0.999772 
-0.0175825 -0.0130368 -0.99976 
-0.0174566 -0.013439 -0.999757 
-0.0174281 -0.0138019 -0.999753 
-0.0171649 -0.0142868 -0.999751 
-0.0176364 -0.0147641 -0.999735 
-0.0169869 -0.0154466 -0.999736 
-0.0166508 -0.0165938 -0.999724 
-0.0169394 -0.0181077 -0.999693 
-0.015734 -0.0201349 -0.999673 
-0.0158438 -0.0229258 -0.999612 
-0.0156547 -0.0255768 -0.99955 
-0.0139419 -0.0279544 -0.999512 
-0.0149207 -0.0284599 -0.999484 
-0.015352 -0.0272681 -0.99951 
-0.0149919 -0.0253972 -0.999565 
-0.0151888 -0.025329 -0.999564 
-0.0106662 -0.0202691 -0.999738 
-0.000660164 -6.73803e-05 -1 
0.000525182 -0.000299335 1 
0.0121675 -0.0230181 0.999661 
0.0147358 -0.0253702 0.99957 
0.0157452 -0.0249023 0.999566 
0.0134483 -0.0240766 0.99962 
0.0162213 -0.0262653 0.999523 
0.0157488 -0.0273169 0.999503 
0.0153438 -0.0262529 0.999538 
0.016443 -0.0236644 0.999585 
0.0170597 -0.0206571 0.999641 
0.0174259 -0.0183744 0.999679 
0.0176646 -0.016605 0.999706 
0.0178249 -0.0154116 0.999722 
0.0182262 -0.014611 0.999727 
0.0183509 -0.0140793 0.999732 
0.018445 -0.0135133 0.999739 
0.0183613 -0.0130002 0.999747 
0.018452 -0.0125121 0.999751 
0.0183654 -0.0119874 0.999759 
0.0181301 -0.0112424 0.999772 
0.0177968 -0.0101909 0.99979 
0.0176236 -0.00856917 0.999808 
0.0175891 -0.0060221 0.999827 
0.0176123 -0.00193336 0.999843 
0.0176009 0.00410079 0.999837 
0.0176489 0.0129053 0.999761 
0.0180755 0.0252468 0.999518 
0.0193092 0.0425152 0.998909 
0.0217973 0.0666277 0.99754 
0.0252764 0.0989272 0.994774 
0.03136 0.141101 0.989498 
0.0392957 0.198089 0.979396 
0.048716 0.261602 0.963946 
0.0591066 0.346205 0.936295 
0.0679674 0.423213 0.903477 
0.150967 0.552156 0.819959 
0.0604891 0.672791 0.737355 
0.0312986 0.821225 0.569746 
0.0365461 0.950051 0.309946 
0.00293906 0.995201 0.097809 
-0.0342143 0.951175 -0.30675 
-0.0187089 0.851426 -0.524141 
-0.0955924 0.655583 -0.749048 
-0.105237 0.560085 -0.821724 
-0.060909 0.450156 -0.89087 
-0.0614998 0.344578 -0.936741 
-0.0532819 0.274471 -0.960118 
-0.0408234 0.210226 -0.9768 
-0.032124 0.156509 -0.987154 
-0.0258861 0.109954 -0.9936 
-0.0216146 0.073684 -0.997047 
-0.019314 0.0465401 -0.99873 
-0.0177642 0.0276544 -0.99946 
-0.0175193 0.0140038 -0.999748 
-0.0175032 0.00483757 -0.999835 
-0.0176493 -0.00156288 -0.999843 
-0.0174218 -0.00548573 -0.999833 
-0.0177363 -0.00833545 -0.999808 
-0.0179477 -0.0100924 -0.999788 
-0.0178495 -0.0110515 -0.99978 
-0.0181602 -0.01182 -0.999765 
-0.0183098 -0.0123878 -0.999756 
-0.0183744 -0.0129139 -0.999748 
-0.0183773 -0.0133759 -0.999742 
-0.0185174 -0.0138875 -0.999732 
-0.0182536 -0.0144149 -0.999729 
-0.0181939 -0.0151734 -0.999719 
-0.018155 -0.0162093 -0.999704 
-0.0175768 -0.0176544 -0.99969 
-0.0173447 -0.0197646 -0.999654 
-0.0169105 -0.0222258 -0.99961 
-0.0158164 -0.0251695 -0.999558 
-0.0157243 -0.0272289 -0.999506 
-0.0154412 -0.0274054 -0.999505 
-0.0151769 -0.0253448 -0.999564 
-0.0160771 -0.0251318 -0.999555 
-0.0143101 -0.0257083 -0.999567 
-0.0117022 -0.0229931 -0.999667 
-0.000655936 -0.000353725 -1 
5.20786e-06 3.61696e-05 1 
0.0104085 -0.024042 0.999657 
0.011847 -0.0252133 0.999612 
0.0121662 -0.0235152 0.999649 
0.0116282 -0.0232138 0.999663 
0.0137983 -0.0261874 0.999562 
0.0135988 -0.0268814 0.999546 
0.0143242 -0.0249585 0.999586 
0.0149727 -0.0222432 0.99964 
0.01535 -0.0194986 0.999692 
0.0155833 -0.0174393 0.999726 
0.0159307 -0.0160424 0.999744 
0.0164433 -0.0149866 0.999752 
0.0165719 -0.0142184 0.999762 
0.0166353 -0.0135877 0.999769 
0.0166597 -0.0129861 0.999777 
0.0166982 -0.012406 0.999784 
0.0165791 -0.0117817 0.999793 
0.0163829 -0.0111093 0.999804 
0.0161344 -0.0101951 0.999818 
0.0159341 -0.00894868 0.999833 
0.0158379 -0.00704255 0.99985 
0.0159473 -0.00412602 0.999864 
0.0162437 0.000273466 0.999868 
0.0167314 0.00672806 0.999837 
0.017641 0.0160798 0.999715 
0.0194158 0.0292311 0.999384 
0.0226862 0.0475155 0.998613 
0.0280742 0.072171 0.996997 
0.0352711 0.102949 0.994061 
0.0460733 0.146842 0.988086 
0.0615445 0.192744 0.979317 
0.0755629 0.248644 0.965643 
0.0909328 0.317308 0.943953 
0.120689 0.390774 0.91254 
0.12414 0.469048 0.874404 
0.121657 0.628072 0.768586 
0.0549862 0.861891 0.504104 
0.0666888 0.919967 0.386281 
-0.0200014 0.993556 -0.111563 
-0.0679676 0.81873 -0.570142 
-0.0515579 0.738206 -0.672602 
-0.162065 0.631693 -0.758089 
-0.123157 0.477473 -0.869972 
-0.100111 0.39177 -0.9146 
-0.0997124 0.308735 -0.945907 
-0.0758134 0.244552 -0.966668 
-0.0572481 0.18726 -0.980641 
-0.0426732 0.139491 -0.989303 
-0.0322631 0.0979463 -0.994669 
-0.0253103 0.065316 -0.997544 
-0.0210229 0.0408033 -0.998946 
-0.0184361 0.0246613 -0.999526 
-0.0172388 0.0128677 -0.999769 
-0.0164721 0.00426992 -0.999855 
-0.01611 -0.00124157 -0.999869 
-0.0159491 -0.00526221 -0.999859 
-0.0159002 -0.00791305 -0.999842 
-0.0160396 -0.00949096 -0.999826 
-0.0162217 -0.0105572 -0.999813 
-0.0164021 -0.0112931 -0.999802 
-0.0165792 -0.0120212 -0.99979 
-0.0166969 -0.0126285 -0.999781 
-0.0166853 -0.013216 -0.999773 
-0.016692 -0.0137781 -0.999766 
-0.0165972 -0.0144847 -0.999757 
-0.0164037 -0.0153726 -0.999747 
-0.0162361 -0.0165394 -0.999731 
-0.0158727 -0.0183889 -0.999705 
-0.015353 -0.0205842 -0.99967 
-0.0149058 -0.0232501 -0.999619 
-0.0140184 -0.0264885 -0.999551 
-0.01339 -0.0274082 -0.999535 
-0.0130257 -0.0258027 -0.999582 
-0.0117366 -0.0230463 -0.999666 
-0.0123722 -0.0234402 -0.999649 
-0.0113205 -0.0248485 -0.999627 
-0.0111805 -0.0252166 -0.999619 
-0.000487268 -0.000228841 -1 
3.74834e-05 -6.92937e-05 1 
0.00871485 -0.0210478 0.99974 
0.0104232 -0.0231024 0.999679 
0.0108613 -0.022055 0.999698 
0.0129901 -0.0243528 0.999619 
0.0125736 -0.0263281 0.999574 
0.0140749 -0.0278527 0.999513 
0.0141033 -0.0270257 0.999535 
0.015788 -0.0245707 0.999573 
0.016021 -0.0215165 0.99964 
0.0169732 -0.0188596 0.999678 
0.0179301 -0.0170498 0.999694 
0.0181465 -0.0156006 0.999714 
0.0183753 -0.014628 0.999724 
0.0187778 -0.0137856 0.999729 
0.0188983 -0.0131034 0.999736 
0.0187332 -0.0123625 0.999748 
0.0185053 -0.0116186 0.999761 
0.0182701 -0.0108107 0.999775 
0.0183036 -0.00992172 0.999783 
0.0181426 -0.0087959 0.999797 
0.0179577 -0.00721517 0.999813 
0.0177278 -0.00485027 0.999831 
0.0177146 -0.001408 0.999842 
0.0179867 0.00363865 0.999832 
0.0187159 0.0107884 0.999767 
0.0203712 0.0210136 0.999572 
0.0233768 0.0348635 0.999119 
0.0284482 0.0532989 0.998173 
0.036366 0.0764297 0.996412 
0.0464938 0.107959 0.993068 
0.0614316 0.143293 0.987772 
0.0833865 0.190017 0.978233 
0.105343 0.248945 0.962772 
0.130756 0.311126 0.941331 
0.166463 0.382241 0.908946 
0.206494 0.6381 0.741747 
0.0856473 0.730463 0.67756 
0.10562 0.791887 0.601464 
0.00681846 0.994793 0.101691 
-0.0616069 0.944674 -0.322172 
-0.129103 0.734273 -0.666465 
-0.173649 0.515148 -0.839326 
-0.146247 0.392688 -0.907969 
-0.140872 0.318196 -0.9375 
-0.112431 0.248505 -0.962083 
-0.0869352 0.202927 -0.975327 
-0.0666521 0.159364 -0.984967 
-0.0504498 0.122577 -0.991176 
-0.0387673 0.089526 -0.99523 
-0.0300314 0.0623185 -0.997604 
-0.0244558 0.0410088 -0.998859 
-0.0208054 0.0250415 -0.99947 
-0.0190795 0.0144539 -0.999713 
-0.0181088 0.00610256 -0.999817 
-0.0179156 0.000267867 -0.999839 
-0.0177865 -0.00363143 -0.999835 
-0.0176781 -0.00658739 -0.999822 
-0.0179106 -0.00832373 -0.999805 
-0.0179907 -0.0095529 -0.999793 
-0.0188173 -0.0103993 -0.999769 
-0.0188067 -0.0112879 -0.999759 
-0.0190509 -0.0120508 -0.999746 
-0.0188584 -0.0127987 -0.99974 
-0.0189362 -0.0134811 -0.99973 
-0.0185434 -0.0142026 -0.999727 
-0.0184838 -0.0151273 -0.999715 
-0.0181557 -0.0163122 -0.999702 
-0.017271 -0.017907 -0.99969 
-0.0172811 -0.0202709 -0.999645 
-0.0166326 -0.0230809 -0.999595 
-0.0151884 -0.0259744 -0.999547 
-0.0143209 -0.027916 -0.999508 
-0.0127548 -0.0264587 -0.999569 
-0.0119018 -0.0230211 -0.999664 
-0.0108571 -0.0221849 -0.999695 
-0.010536 -0.0246314 -0.999641 
-0.00945895 -0.0227186 -0.999697 
-0.000501129 -0.000202292 -1 
0.000288935 -0.000134559 1 
0.00911901 -0.0220981 0.999714 
0.0103513 -0.0249272 0.999636 
0.011506 -0.0230258 0.999669 
0.0126795 -0.022132 0.999675 
0.0154594 -0.0273799 0.999506 
0.0173294 -0.0287482 0.999436 
0.018006 -0.0268645 0.999477 
0.0192996 -0.0233057 0.999542 
0.0198592 -0.0204852 0.999593 
0.0211162 -0.018287 0.99961 
0.0216565 -0.0164228 0.999631 
0.0220455 -0.01519 0.999642 
0.022179 -0.0142185 0.999653 
0.0228413 -0.0133527 0.99965 
0.0225683 -0.0125287 0.999667 
0.0225066 -0.0116182 0.999679 
0.0222574 -0.0107006 0.999695 
0.022268 -0.00972545 0.999705 
0.0219128 -0.00870294 0.999722 
0.0215681 -0.00741081 0.99974 
0.021159 -0.00563354 0.99976 
0.0209022 -0.00311549 0.999777 
0.0207622 0.000465764 0.999784 
0.021014 0.00551453 0.999764 
0.0218548 0.0127482 0.99968 
0.023968 0.0228719 0.999451 
0.0277872 0.0366366 0.998942 
0.0341447 0.0541911 0.997947 
0.0437775 0.0761924 0.996132 
0.0551579 0.101036 0.993353 
0.0731976 0.136022 0.987998 
0.0960199 0.164094 0.98176 
0.11947 0.212538 0.969822 
0.153146 0.268064 0.951151 
0.188699 0.328061 0.925618 
0.180615 0.478835 0.859124 
0.157317 0.711697 0.684645 
0.0763298 0.944563 0.319335 
0.020178 0.988583 0.149317 
-0.101772 0.90048 -0.422823 
-0.217322 0.713066 -0.666564 
-0.195315 0.407601 -0.892028 
-0.186656 0.314176 -0.930835 
-0.148797 0.257112 -0.954858 
-0.117684 0.198366 -0.973037 
-0.0913105 0.165876 -0.98191 
-0.0700681 0.131403 -0.98885 
-0.0537662 0.101779 -0.993353 
-0.0414665 0.0751368 -0.996311 
-0.0323734 0.0522632 -0.998108 
-0.0261114 0.0332402 -0.999106 
-0.0233166 0.0208179 -0.999511 
-0.0214982 0.0114541 -0.999703 
-0.020898 0.00459418 -0.999771 
-0.0209269 -0.000133979 -0.999781 
-0.0207704 -0.00386359 -0.999777 
-0.0211678 -0.00615236 -0.999757 
-0.0215277 -0.00777592 -0.999738 
-0.0217588 -0.00897552 -0.999723 
-0.0224921 -0.00996503 -0.999697 
-0.022676 -0.0109457 -0.999683 
-0.0228382 -0.0119124 -0.999668 
-0.0227855 -0.0127839 -0.999659 
-0.0227974 -0.0136178 -0.999647 
-0.0222764 -0.0144815 -0.999647 
-0.0221697 -0.0155551 -0.999633 
-0.0215882 -0.0169546 -0.999623 
-0.0207122 -0.0187329 -0.99961 
-0.0204107 -0.0214453 -0.999562 
-0.0193757 -0.0246642 -0.999508 
-0.0177066 -0.027603 -0.999462 
-0.0170973 -0.0291728 -0.999428 
-0.0150216 -0.0270432 -0.999521 
-0.0137667 -0.0232109 -0.999636 
-0.0120224 -0.0218992 -0.999688 
-0.0112714 -0.0239638 -0.999649 
-0.00947037 -0.0224277 -0.999704 
-0.000450336 -0.000190684 -1 
0.000423842 -0.000247741 1 
0.00862594 -0.0224167 0.999712 
0.010996 -0.0244037 0.999642 
0.0125071 -0.0228938 0.99966 
0.0145325 -0.0240388 0.999605 
0.015701 -0.0285744 0.999468 
0.0175453 -0.0301259 0.999392 
0.0184826 -0.0288638 0.999412 
0.0198611 -0.0258998 0.999467 
0.0205674 -0.0225247 0.999535 
0.0212946 -0.0200006 0.999573 
0.0220108 -0.0176195 0.999602 
0.0224928 -0.0160132 0.999619 
0.0229953 -0.0148185 0.999626 
0.0232579 -0.0138367 0.999634 
0.0233021 -0.0127641 0.999647 
0.023467 -0.0117731 0.999655 
0.0232714 -0.0106557 0.999672 
0.0228669 -0.00957662 0.999693 
0.0224597 -0.00847744 0.999712 
0.0220161 -0.00726703 0.999731 
0.0215868 -0.00569916 0.999751 
0.0212465 -0.0035581 0.999768 
0.0211619 -0.000613903 0.999776 
0.0213497 0.00336997 0.999766 
0.0220977 0.00892514 0.999716 
0.0237605 0.0164961 0.999582 
0.0269725 0.026941 0.999273 
0.0321883 0.0402476 0.998671 
0.0401891 0.0567214 0.997581 
0.0507154 0.0740865 0.995961 
0.0646155 0.0993824 0.992949 
0.0831258 0.121268 0.989133 
0.109799 0.146012 0.983171 
0.135364 0.185791 0.97322 
0.170531 0.224029 0.959547 
0.239234 0.366885 0.898978 
0.221533 0.42993 0.875262 
0.123026 0.848607 0.514519 
-0.0179096 0.997822 -0.0634824 
-0.146609 0.696175 -0.702742 
-0.212083 0.590547 -0.778637 
-0.237791 0.376026 -0.895578 
-0.177734 0.224697 -0.958082 
-0.141889 0.193365 -0.970813 
-0.111735 0.148932 -0.982514 
-0.0894564 0.131972 -0.987209 
-0.0689689 0.105416 -0.992034 
-0.0539963 0.082525 -0.995125 
-0.0426741 0.0632029 -0.997088 
-0.0346932 0.0459413 -0.998342 
-0.0289785 0.0337987 -0.999008 
-0.0248904 0.0209132 -0.999471 
-0.0226449 0.0122452 -0.999669 
-0.0215508 0.00580586 -0.999751 
-0.0210022 0.00109888 -0.999779 
-0.0212678 -0.00247802 -0.999771 
-0.0214739 -0.00492101 -0.999757 
-0.0218974 -0.00666064 -0.999738 
-0.0223293 -0.00798544 -0.999719 
-0.0227991 -0.00909039 -0.999699 
-0.0230247 -0.0102413 -0.999682 
-0.0233567 -0.0113551 -0.999663 
-0.0234294 -0.0124454 -0.999648 
-0.0233846 -0.0134161 -0.999637 
-0.0232405 -0.0144328 -0.999626 
-0.0229226 -0.0155273 -0.999617 
-0.0224042 -0.016998 -0.999604 
-0.0217453 -0.0189354 -0.999584 
-0.0209716 -0.0213819 -0.999551 
-0.0198654 -0.0248643 -0.999493 
-0.0189624 -0.0283136 -0.999419 
-0.0174797 -0.0302584 -0.999389 
-0.0159848 -0.0274552 -0.999495 
-0.0142602 -0.0240181 -0.99961 
-0.0128979 -0.0225022 -0.999664 
-0.0112315 -0.0242945 -0.999642 
-0.00949301 -0.0228731 -0.999693 
-0.000430589 -0.000215288 -1 
0.000368647 -0.000249621 1 
0.00728212 -0.023244 0.999703 
0.0108298 -0.0241668 0.999649 
0.0107397 -0.0233589 0.999669 
0.0131812 -0.024141 0.999622 
0.0134663 -0.0294654 0.999475 
0.0156293 -0.0313697 0.999386 
0.015794 -0.0292582 0.999447 
0.0178384 -0.0257103 0.99951 
0.0173098 -0.0228483 0.999589 
0.0189134 -0.0199201 0.999623 
0.0194223 -0.0177157 0.999654 
0.0195757 -0.0161023 0.999679 
0.0202036 -0.0148481 0.999686 
0.0207654 -0.0136693 0.999691 
0.0203677 -0.0124373 0.999715 
0.0209095 -0.0113044 0.999717 
0.0201828 -0.010075 0.999746 
0.0197927 -0.00888283 0.999765 
0.0193922 -0.00772201 0.999782 
0.0190637 -0.00643403 0.999798 
0.0187043 -0.00480383 0.999814 
0.0185473 -0.00258433 0.999825 
0.0186622 0.000340622 0.999826 
0.0192812 0.00434466 0.999805 
0.0205194 0.00964607 0.999743 
0.0229877 0.0170373 0.999591 
0.0270488 0.0266334 0.999279 
0.0334207 0.0387273 0.998691 
0.0417257 0.0515169 0.9978 
0.0543097 0.0687693 0.996153 
0.0690118 0.0871249 0.993804 
0.0898044 0.107417 0.99015 
0.116693 0.125794 0.985169 
0.148554 0.159378 0.975977 
0.18814 0.191304 0.963331 
0.2098 0.273136 0.938819 
0.261805 0.524748 0.809998 
0.188034 0.804629 0.563219 
0.0203383 0.992276 0.122371 
-0.143999 0.82005 -0.553879 
-0.263608 0.479966 -0.836746 
-0.213517 0.267777 -0.939524 
-0.189635 0.192279 -0.962844 
-0.147122 0.16122 -0.975891 
-0.111299 0.122002 -0.98627 
-0.0861934 0.103173 -0.990922 
-0.0689571 0.0878371 -0.993745 
-0.0529842 0.0674264 -0.996316 
-0.041461 0.0516496 -0.997804 
-0.032496 0.0372236 -0.998778 
-0.0268572 0.0262624 -0.999294 
-0.0224703 0.0159518 -0.99962 
-0.0203332 0.00921772 -0.999751 
-0.019043 0.00409043 -0.99981 
-0.0184593 -5.51287e-05 -0.99983 
-0.0188096 -0.00284704 -0.999819 
-0.0187391 -0.00494387 -0.999812 
-0.0192517 -0.00652629 -0.999793 
-0.0194848 -0.00774187 -0.99978 
-0.0203026 -0.00899864 -0.999753 
-0.0199828 -0.0101595 -0.999749 
-0.0205941 -0.0114549 -0.999722 
-0.0203497 -0.0126435 -0.999713 
-0.0205179 -0.0138135 -0.999694 
-0.0202222 -0.0149423 -0.999684 
-0.0200701 -0.0162707 -0.999666 
-0.0194473 -0.0179406 -0.99965 
-0.0185396 -0.020062 -0.999627 
-0.0180976 -0.0230544 -0.99957 
-0.0168755 -0.0266776 -0.999502 
-0.0170243 -0.0295203 -0.999419 
-0.0150064 -0.0315916 -0.999388 
-0.0147375 -0.0297955 -0.999447 
-0.0125359 -0.0257182 -0.999591 
-0.0113164 -0.0232819 -0.999665 
-0.00937148 -0.0250359 -0.999643 
-0.0078066 -0.0224104 -0.999718 
-0.000370233 -0.000233856 -1 
0.000286572 -0.000299183 1 
0.00526897 -0.023493 0.99971 
0.00865005 -0.0247466 0.999656 
0.00818674 -0.0237069 0.999685 
0.0106798 -0.0257952 0.99961 