# vtk DataFile Version 3.0 
Exported using Morpho https://github.com/Morpho-lang/morpho 
ASCII 
DATASET UNSTRUCTURED_GRID 

POINTS 1978 float 
-8.48529 -2.82126 5.83704e-09 
-8.26941 -2.82844 6.4622e-10 
-8.04828 -2.82843 8.59325e-10 
-7.76491 -2.82845 6.99391e-10 
-7.49711 -2.82842 -2.73449e-09 
-7.25576 -2.82844 -5.64115e-10 
-7.00448 -2.82844 -7.08005e-10 
-6.78813 -2.82844 -1.40608e-09 
-6.56107 -2.82844 -7.62078e-10 
-6.34856 -2.82844 -7.63756e-10 
-6.13327 -2.82844 -1.54413e-09 
-5.92801 -2.82844 -1.02483e-09 
-5.70892 -2.82843 -1.1149e-09 
-5.50414 -2.82844 -8.48263e-10 
-5.28803 -2.82843 -9.39301e-10 
-5.07724 -2.82844 -1.34862e-09 
-4.85794 -2.82844 -1.51038e-09 
-4.65697 -2.82844 -1.41876e-09 
-4.4303 -2.82844 -2.18596e-09 
-4.22182 -2.82844 -2.44874e-09 
-3.99852 -2.82844 -3.20964e-09 
-3.79775 -2.82844 -4.35091e-09 
-3.58939 -2.82844 -7.06989e-09 
-3.38211 -2.82844 -1.07988e-08 
-3.17295 -2.82844 -1.49522e-08 
-2.96229 -2.82844 -1.82838e-08 
-2.74972 -2.82844 -1.87222e-08 
-2.53062 -2.82844 -1.81514e-08 
-2.30292 -2.82843 -4.25455e-08 
-2.06466 -2.82843 -7.63922e-08 
-1.82253 -2.82843 2.43515e-09 
-1.59917 -2.82843 3.02054e-07 
-1.32335 -2.82842 1.05958e-06 
-1.11868 -2.8284 2.32979e-06 
-0.93728 -2.82842 6.06162e-06 
-0.758687 -2.82841 1.68708e-05 
-0.604608 -2.82841 2.05497e-05 
-0.53829 -2.82827 0.0001094 
-0.212824 -2.82863 0.000475358 
0.107124 -2.82908 -0.000487241 
0.255446 -2.82873 -0.000293972 
0.529395 -2.82837 -9.84721e-05 
0.594413 -2.82839 -1.76903e-05 
0.733137 -2.82843 -1.50308e-05 
0.944079 -2.82841 -8.33296e-06 
1.14442 -2.82842 -2.1e-06 
1.36392 -2.82842 -6.78804e-07 
1.59638 -2.82843 -4.22113e-07 
1.85526 -2.82843 -1.02789e-07 
2.10509 -2.82843 9.03682e-08 
2.30655 -2.82843 5.1166e-08 
2.53106 -2.82844 2.33967e-08 
2.74243 -2.82843 1.72556e-08 
2.96722 -2.82844 1.51213e-08 
3.19398 -2.82844 1.39424e-08 
3.40159 -2.82844 1.05374e-08 
3.61353 -2.82844 7.17154e-09 
3.80966 -2.82844 4.7931e-09 
4.02276 -2.82844 3.45566e-09 
4.2455 -2.82844 2.03794e-09 
4.44291 -2.82843 2.35217e-09 
4.65991 -2.82844 1.60705e-09 
4.8685 -2.82843 1.30111e-09 
5.07109 -2.82844 1.12181e-09 
5.29229 -2.82843 7.51525e-10 
5.50177 -2.82844 7.71748e-10 
5.70316 -2.82844 7.17576e-10 
5.92327 -2.82844 9.19557e-10 
6.14062 -2.82843 8.56008e-10 
6.3369 -2.82844 9.24457e-10 
6.58623 -2.82844 7.42992e-10 
6.78996 -2.82843 1.42517e-09 
6.99348 -2.82844 1.4284e-09 
7.25814 -2.82844 4.17631e-10 
7.48804 -2.82844 9.30113e-10 
7.7315 -2.82844 -5.64804e-11 
8.01118 -2.82844 -4.19363e-10 
8.19178 -2.82844 1.99063e-09 
8.48529 -2.82132 -1.10676e-08 
-8.4853 -2.59997 1.57006e-08 
-8.25316 -2.58359 -3.45317e-19 
-8.04099 -2.57077 -1.84358e-20 
-7.82131 -2.63829 9.5413e-20 
-7.54356 -2.62564 -1.34272e-19 
-7.25257 -2.61523 -2.79e-19 
-7.01538 -2.59508 -1.22388e-20 
-6.79268 -2.5951 -6.00603e-20 
-6.55755 -2.59568 -1.63142e-19 
-6.33194 -2.59445 -1.70096e-19 
-6.11491 -2.58653 -8.79383e-20 
-5.89374 -2.59825 -8.2276e-20 
-5.68071 -2.57933 -1.02416e-19 
-5.46499 -2.59424 -8.73368e-20 
-5.2486 -2.58887 -1.32617e-19 
-5.02806 -2.59995 -1.30567e-19 
-4.82024 -2.57839 -1.86058e-19 
-4.59672 -2.6072 -1.46228e-19 
-4.37905 -2.58885 -2.59313e-19 
-4.1565 -2.60597 -2.4498e-19 
-3.94566 -2.58182 -3.42124e-19 
-3.73436 -2.59211 -3.92347e-19 
-3.51913 -2.59066 -5.81815e-19 
-3.30232 -2.59197 -1.17161e-18 
-3.08231 -2.59075 -1.88524e-18 
-2.85862 -2.58716 -2.13873e-18 
-2.6297 -2.58662 -1.65557e-18 
-2.39315 -2.58703 -1.12656e-18 
-2.14842 -2.58932 1.48015e-19 
-1.89967 -2.58977 4.80478e-18 
-1.65911 -2.58663 2.00847e-17 
-1.4276 -2.6576 4.28628e-17 
-1.1857 -2.63132 2.29541e-17 
-0.988383 -2.67464 -8.91441e-17 
-0.81995 -2.7121 2.54245e-16 
-0.661693 -2.73992 1.38868e-17 
-0.585665 -2.66245 -1.60286e-16 
-0.495508 -2.81095 -2.26674e-15 
-0.160029 -2.80854 6.18147e-15 
0.111884 -2.78335 -3.08975e-14 
0.239048 -2.75788 1.49708e-14 
0.472241 -2.8044 -2.07397e-15 
0.55658 -2.69017 -7.62573e-17 
0.66345 -2.74007 4.41832e-16 
0.855177 -2.72693 -2.22096e-16 
1.06973 -2.66272 -4.28309e-17 
1.27541 -2.63525 -3.77669e-18 
1.51104 -2.60828 -3.24949e-17 
1.76399 -2.61728 -2.05107e-17 
2.0307 -2.6039 -1.2017e-18 
2.27944 -2.56251 1.11406e-18 
2.50542 -2.58908 1.1654e-18 
2.75046 -2.59351 1.9284e-18 
2.99545 -2.60114 1.79437e-18 
3.21894 -2.58668 1.46768e-18 
3.44268 -2.59667 7.79451e-19 
3.64933 -2.5787 5.29819e-19 
3.86511 -2.59728 3.53816e-19 
4.09192 -2.60547 2.74866e-19 
4.29989 -2.57449 2.87719e-19 
4.51585 -2.59838 1.90949e-19 
4.73219 -2.58945 1.64517e-19 
4.9434 -2.5836 1.58831e-19 
5.16019 -2.60469 1.10291e-19 
5.38036 -2.59147 9.29296e-20 
5.58905 -2.58069 9.41249e-20 
5.80521 -2.60076 6.64378e-20 
6.02914 -2.59602 7.12958e-20 
6.24074 -2.56835 1.31622e-19 
6.46124 -2.62199 8.27512e-20 
6.68795 -2.5704 6.64471e-20 
6.89571 -2.56658 9.03723e-20 
7.12562 -2.62598 5.55168e-20 
7.37705 -2.59414 2.56282e-20 
7.61453 -2.60797 1.50689e-19 
7.87333 -2.63676 -1.06545e-19 
8.07863 -2.5309 1.78436e-20 
8.29709 -2.64005 8.61161e-19 
8.4853 -2.5346 -1.34524e-08 
-8.48529 -2.37019 -2.11317e-08 
-8.25746 -2.33684 -6.77741e-19 
-8.0013 -2.35146 -7.90715e-20 
-7.75599 -2.42346 5.97684e-20 
-7.57205 -2.25263 6.4193e-20 
-7.44795 -2.44367 2.27567e-20 
-7.17989 -2.39332 -2.8779e-21 
-6.93933 -2.33972 7.51951e-20 
-6.70528 -2.37916 -2.6752e-21 
-6.46834 -2.36616 3.16058e-20 
-6.2423 -2.35655 -2.04355e-20 
-6.0155 -2.36019 5.0939e-21 
-5.80251 -2.35355 9.86027e-21 
-5.57321 -2.34987 8.11147e-21 
-5.35937 -2.36031 9.16562e-21 
-5.13219 -2.36526 1.43785e-20 
-4.92505 -2.34699 2.77641e-20 
-4.69615 -2.36848 3.27644e-20 
-4.48534 -2.36673 3.23905e-20 
-4.25752 -2.37096 3.94683e-20 
-4.05237 -2.35592 7.39099e-20 
-3.83456 -2.34955 1.28849e-19 
-3.62443 -2.35917 1.51278e-19 
-3.40557 -2.35891 1.61856e-19 
-3.18583 -2.35959 2.39152e-19 
-2.96139 -2.35637 4.17301e-19 
-2.72996 -2.35298 6.91957e-19 
-2.49145 -2.35339 1.19439e-18 
-2.24373 -2.35592 1.54923e-18 
-1.9891 -2.35651 1.19002e-18 
-1.73436 -2.35575 6.27744e-19 
-1.47422 -2.4162 3.23989e-18 
-1.2723 -2.45499 -1.40978e-17 
-1.02433 -2.50352 -1.35641e-17 
-0.846793 -2.55854 -2.89136e-17 
-0.706262 -2.61996 -7.65007e-17 
-0.558154 -2.58078 -1.24463e-15 
-0.459595 -2.79346 5.48986e-15 
-0.149799 -2.78213 -7.03652e-15 
0.0396293 -2.84085 4.60724e-14 
0.189906 -2.80282 -5.46745e-15 
0.413544 -2.78327 -1.98183e-15 
0.580306 -2.61191 1.02282e-15 
0.71867 -2.64127 2.87315e-16 
0.910334 -2.59167 6.75501e-18 
1.03005 -2.46411 5.38783e-17 
1.2242 -2.44806 2.02302e-17 
1.44264 -2.40875 -1.01771e-17 
1.69251 -2.4004 -8.86658e-18 
1.94009 -2.39049 -6.2109e-19 
2.18871 -2.34531 -1.12002e-18 
2.4584 -2.35135 -9.5473e-19 
2.69077 -2.36504 -6.82154e-19 
2.93025 -2.37082 -4.61519e-19 
3.15088 -2.35384 -3.20581e-19 
3.37281 -2.36417 -1.90732e-19 
3.57984 -2.33905 -2.0489e-19 
3.79119 -2.35732 -1.35884e-19 
4.00503 -2.37957 -8.24113e-20 
4.21161 -2.34327 -6.60956e-20 
4.43404 -2.35503 -3.62599e-20 
4.64125 -2.35854 -3.83496e-20 
4.85544 -2.34902 -2.07682e-20 
5.0742 -2.36301 -2.44011e-20 
5.28379 -2.37098 -1.43877e-20 
5.50019 -2.34421 -1.00929e-20 
5.71978 -2.35989 -5.21595e-21 
5.93501 -2.37132 -8.10555e-21 
6.15083 -2.33976 -4.31276e-21 
6.38936 -2.36909 2.52045e-21 
6.59336 -2.36166 8.89852e-21 
6.82706 -2.31269 9.2694e-21 
7.05684 -2.37435 6.92766e-21 
7.27937 -2.39382 1.05712e-19 
7.54452 -2.3761 -1.32322e-19 
7.78959 -2.41835 3.75763e-20 
8.00588 -2.31319 2.90436e-20 
8.26898 -2.37351 -4.18523e-19 
8.48529 -2.28016 1.97298e-08 
-8.48529 -2.12084 -1.9398e-08 
-8.25397 -2.08823 -1.53569e-20 
-8.04696 -2.1168 8.23459e-20 
-7.80388 -2.17188 -1.06634e-19 
-7.51572 -2.03167 -3.35419e-20 
-7.32481 -2.21884 -2.70943e-20 
-7.08181 -2.14879 -2.99105e-21 
-6.79763 -2.13392 -4.58187e-20 
-6.58249 -2.15355 -2.51945e-21 
-6.34895 -2.13134 9.61187e-21 
-6.12216 -2.12938 5.52248e-21 
-5.90914 -2.11526 1.01552e-20 
-5.6897 -2.13139 8.26917e-21 
-5.46385 -2.11576 3.03799e-21 
-5.24959 -2.14023 9.53152e-21 
-5.04142 -2.11216 1.94028e-20 
-4.818 -2.13749 2.33724e-20 
-4.60659 -2.12974 2.42013e-20 
-4.39015 -2.14774 8.0662e-21 
-4.18588 -2.12082 4.40915e-20 
-3.97556 -2.12437 5.21539e-20 
-3.7634 -2.11432 8.72955e-20 
-3.55359 -2.1293 9.04314e-20 
-3.33945 -2.12589 9.90339e-20 
-3.12478 -2.12597 1.38358e-19 
-2.90354 -2.12386 1.54402e-19 
-2.67366 -2.12193 3.67811e-19 
-2.4342 -2.12482 6.31194e-19 
-2.1869 -2.12726 5.05095e-19 
-1.93653 -2.12717 -1.45261e-18 
-1.68048 -2.15161 -4.69609e-19 
-1.45292 -2.17385 8.13463e-18 
-1.24818 -2.20848 3.00727e-18 
-1.09588 -2.32885 4.32701e-17 
-0.902407 -2.36911 3.193e-17 
-0.728447 -2.46438 4.75843e-17 
-0.586461 -2.4959 8.49842e-16 
-0.470662 -2.7314 1.89198e-15 
-0.217456 -2.7702 1.85831e-14 
-0.0509365 -2.82407 -5.15878e-15 
0.127491 -2.74548 -2.45145e-14 
0.453593 -2.70739 7.96148e-16 
0.644276 -2.49899 -1.67558e-15 
0.788262 -2.49696 1.26623e-17 
0.874581 -2.35429 -5.69764e-17 
1.06945 -2.26424 -4.25683e-17 
1.25911 -2.22236 -1.18795e-17 
1.50564 -2.20418 -5.24377e-18 
1.7586 -2.1767 1.34795e-18 
1.99994 -2.1497 -4.25669e-19 
2.27637 -2.14026 -8.48117e-19 
2.51172 -2.11753 -5.20892e-19 
2.75049 -2.14242 -3.25896e-19 
2.97262 -2.12728 -1.58832e-19 
3.20106 -2.12733 -7.7781e-20 
3.40832 -2.11875 -8.68495e-20 
3.62728 -2.1087 -8.61863e-20 
3.8431 -2.1321 -7.38742e-20 
4.04388 -2.1313 -3.86551e-20 
4.2745 -2.12292 -2.53082e-20 
4.48261 -2.11355 -2.14392e-20 
4.69502 -2.12368 -1.7313e-20 
4.91643 -2.125 -1.41255e-20 
5.12885 -2.12675 -2.05074e-20 
5.33717 -2.13443 -7.60213e-22 
5.56585 -2.12095 -3.4689e-21 
5.78162 -2.1291 -5.50135e-22 
5.99208 -2.12927 3.88866e-21 
6.24003 -2.13618 -1.21773e-20 
6.44599 -2.11042 -4.88042e-21 
6.66108 -2.12245 1.74722e-20 
6.92737 -2.1071 -4.74296e-20 
7.14606 -2.14106 -3.16985e-20 
7.3821 -2.18386 3.05445e-20 
7.57955 -2.08593 1.48354e-20 
7.75369 -2.18905 -1.05525e-20 
7.96263 -2.07795 2.31424e-20 
8.2056 -2.15132 2.6743e-19 
8.48529 -2.08826 8.10418e-09 
-8.4853 -1.82067 -1.05433e-08 
-8.3101 -1.85092 -8.40458e-19 
-7.89794 -1.91564 -5.9313e-21 
[...]
POINT_DATA 1978 
VECTORS vectors float
0.00799451 0.0164159 0.999436 
0.00139275 0.00222941 0.999998 
0.000283328 0.000908942 1 
0.000335997 0.000118434 1 
0.000311576 -0.000545409 1 
0.000257104 -0.00124819 1 
0.00021521 -0.00196527 1 
0.000244164 -0.00269383 0.999997 
0.000204984 -0.00342118 0.999997 
0.000203873 -0.00410693 0.999993 
0.000158513 -0.00479117 0.999991 
0.000133292 -0.00539971 0.999987 
9.37309e-05 -0.00599361 0.999984 
3.37935e-05 -0.00649526 0.999981 
-2.2499e-05 -0.0069999 0.999978 
-7.47817e-05 -0.00746722 0.999974 
-6.87273e-05 -0.00796847 0.99997 
-0.000119064 -0.0084542 0.999966 
-7.18158e-05 -0.00901946 0.999961 
-0.000110129 -0.00950753 0.999957 
-0.000157575 -0.00984277 0.999954 
-0.000246223 -0.00984625 0.999954 
-0.000382586 -0.00936579 0.999958 
-0.000482882 -0.00843065 0.999966 
-0.00060065 -0.00702799 0.999977 
-0.000808722 -0.00465051 0.999991 
-0.00111907 -0.00019062 1 
-0.00168075 0.00732053 0.999974 
-0.00248606 0.0183446 0.999831 
-0.00350411 0.0333795 0.999439 
-0.00471219 0.0537819 0.998544 
-0.0100734 0.080288 0.99672 
-0.0154527 0.131106 0.991248 
-0.0156033 0.187958 0.982062 
-0.0264923 0.259679 0.965335 
-0.0308468 0.359515 0.932634 
-0.0226482 0.470784 0.881963 
-0.0203819 0.521835 0.852805 
-0.0117113 0.893681 0.448477 
-0.00103967 0.983719 -0.17994 
0.0346524 0.82732 -0.560612 
0.0363331 0.509853 -0.859496 
0.0202015 0.453892 -0.890829 
0.0205663 0.366952 -0.930012 
0.0262285 0.260928 -0.965003 
0.0191879 0.179832 -0.98351 
0.0118398 0.122122 -0.992446 
0.00775068 0.0821281 -0.996594 
0.00594245 0.0513063 -0.998666 
0.00324653 0.0312523 -0.999509 
0.00166739 0.0189022 -0.999823 
0.00206356 0.0075145 -0.999971 
0.00153499 -0.000469355 -1 
0.000763525 -0.00533552 -0.999988 
0.000419055 -0.00748025 -0.999974 
0.000359004 -0.00843336 -0.999966 
0.000316997 -0.00914408 -0.99996 
0.000283281 -0.00965153 -0.999955 
0.000183174 -0.00975287 -0.999954 
6.48636e-05 -0.00943484 -0.999958 
5.78831e-05 -0.00898375 -0.999962 
9.6054e-05 -0.00845299 -0.999966 
9.47242e-05 -0.00797611 -0.99997 
6.45204e-05 -0.00754362 -0.999974 
2.10147e-05 -0.00705493 -0.999977 
-4.05154e-05 -0.00655748 -0.999981 
-0.000105144 -0.00602084 -0.999984 
-0.000151078 -0.00540297 -0.999987 
-0.000154136 -0.00474378 -0.999991 
-0.000226311 -0.00411048 -0.999994 
-0.000236161 -0.00331048 -0.999997 
-0.000170026 -0.00263639 -0.999999 
-0.000253222 -0.00196584 -1 
-0.000261809 -0.00120395 -1 
-0.000212892 -0.000568076 -1 
-0.000279189 5.93181e-05 -1 
-0.000247465 0.000758525 -1 
-0.00120256 0.00129361 -1 
-0.0107277 0.0208499 -0.999202 
0.0143905 0.0431289 0.998144 
0.0015397 0.00501596 0.999991 
0.000577636 0.00107275 1 
0.000308434 0.00028361 1 
0.000359979 -0.000443311 1 
0.000383223 -0.00124588 1 
0.000561539 -0.00189777 1 
0.000454634 -0.00257837 1 
0.000456389 -0.00328108 0.999998 
0.000390426 -0.00396075 0.999997 
0.00030636 -0.00456172 0.999993 
0.000130318 -0.00517066 0.999991 
-3.24836e-05 -0.00563838 0.999988 
-0.00026293 -0.00611717 0.999985 
-0.000568964 -0.00654562 0.999983 
-0.000880322 -0.00704896 0.999979 
-0.00132745 -0.00747989 0.999975 
-0.0014448 -0.00816658 0.99997 
-0.00177985 -0.00875148 0.999964 
-0.00161998 -0.00934829 0.999959 
-0.00166606 -0.00964405 0.999956 
-0.00131547 -0.00952359 0.999958 
-0.00101605 -0.0088098 0.999965 
-0.000873389 -0.00739695 0.999976 
-0.00100174 -0.00503173 0.999991 
-0.00131501 -0.00101742 1 
-0.00149927 0.00552839 0.999988 
-0.00142839 0.0152515 0.999887 
-0.000968154 0.0287156 0.999591 
-0.000165264 0.0473536 0.998882 
0.00106544 0.0727706 0.997351 
0.0025611 0.108273 0.994117 
0.00233029 0.165438 0.986216 
0.00491726 0.236553 0.971603 
0.00650357 0.323625 0.946155 
0.0140784 0.420635 0.907116 
0.0568581 0.464783 0.883596 
-0.00147288 0.567376 0.823456 
0.0165629 0.943889 0.329819 
-0.0275172 0.972968 -0.22919 
-0.0549412 0.844754 -0.532342 
0.00675533 0.574375 -0.818552 
-0.0521306 0.471835 -0.880144 
-0.0220805 0.39679 -0.917643 
-0.0125219 0.292111 -0.956295 
-0.0109928 0.202352 -0.979248 
-0.00495791 0.141124 -0.989979 
-0.00234942 0.094244 -0.995549 
-0.00120798 0.0610084 -0.99814 
0.000247812 0.0376431 -0.999295 
0.00220444 0.0215655 -0.999769 
0.00173019 0.0103893 -0.99995 
0.00157221 0.00123061 -1 
0.00109313 -0.0041985 -0.999995 
0.000870065 -0.00681403 -0.999981 
0.000826196 -0.00831358 -0.999969 
0.00115316 -0.0091513 -0.999962 
0.00138451 -0.00954561 -0.999958 
0.00155551 -0.00943205 -0.999958 
0.00188257 -0.00893429 -0.999962 
0.00158831 -0.00837151 -0.999968 
0.00140207 -0.00775245 -0.999973 
0.00110577 -0.00721915 -0.999977 
0.000670245 -0.00681654 -0.999981 
0.000370944 -0.00632924 -0.999984 
0.000115319 -0.0058616 -0.999987 
-8.53366e-05 -0.00539241 -0.99999 
-0.000244998 -0.0047994 -0.999993 
-0.000399669 -0.00417224 -0.999995 
-0.000352898 -0.00356862 -0.999998 
-0.000532793 -0.0028478 -1 
-0.000564778 -0.0022266 -1 
-0.000395514 -0.00156655 -1 
-0.000501681 -0.000869415 -1 
-0.000446161 -0.0002491 -1 
-0.000344421 0.000419447 -1 
-0.000692559 0.0012714 -1 
-0.00224182 0.00674734 -0.999978 
-0.0188692 0.0585202 -0.997099 
0.00124589 0.0371964 0.99844 
0.000468583 0.00451768 0.999995 
0.000582555 0.000741044 1 
0.000674441 5.0554e-05 1.00001 
0.000570444 -0.000396622 1 
0.000731751 -0.000695484 1 
0.000677312 -0.00140449 1 
0.000595477 -0.0020727 1 
0.000593358 -0.00270935 1 
0.000478707 -0.00334671 0.999999 
0.000330918 -0.00395324 0.999996 
0.000156128 -0.00450944 0.999994 
-7.35826e-05 -0.0049408 0.999992 
-0.000395998 -0.00536196 0.99999 
-0.000756228 -0.00575176 0.999987 
-0.00122952 -0.00615832 0.999984 
-0.00175159 -0.00655258 0.999981 
-0.00225443 -0.00726316 0.999975 
-0.00262952 -0.00798911 0.999969 
-0.00275215 -0.00883645 0.999961 
-0.00258986 -0.00945831 0.999956 
-0.00211242 -0.00974226 0.999954 
-0.00145747 -0.00940379 0.999959 
-0.000763438 -0.00821782 0.99997 
-0.000297611 -0.00598336 0.999986 
-0.000147895 -0.00234225 1 
-7.47016e-05 0.00329343 0.999999 
0.000391416 0.0115004 0.999938 
0.00166645 0.0228357 0.999742 
0.00429683 0.0380559 0.999271 
0.00884169 0.0593406 0.998203 
0.0114555 0.0939692 0.995514 
0.0170336 0.131217 0.99121 
0.0272885 0.208351 0.977675 
0.0455198 0.293039 0.955016 
0.0441906 0.375441 0.925792 
0.105269 0.444583 0.889527 
0.0194417 0.613352 0.78957 
0.0528983 0.925419 0.37519 
-0.00974014 0.999469 -0.0305557 
-0.000332522 0.927658 -0.3734 
-0.0123159 0.642357 -0.766284 
-0.110493 0.417493 -0.901937 
-0.0451927 0.347728 -0.936503 
-0.0333308 0.252098 -0.967129 
-0.0380605 0.192313 -0.980596 
-0.02376 0.137355 -0.99024 
-0.0150231 0.0973441 -0.995141 
-0.00737561 0.0656884 -0.997817 
-0.00332551 0.0428592 -0.99908 
-0.00233963 0.0261157 -0.999661 
3.44049e-05 0.0127957 -0.999923 
0.000705129 0.00439689 -0.999994 
0.000525978 -0.00186451 -1 
0.000246912 -0.00563504 -0.999988 
0.000587289 -0.00795166 -0.999972 
0.0011792 -0.00918391 -0.999961 
0.0018798 -0.00965108 -0.999956 
0.00239443 -0.0095111 -0.999956 
0.00270042 -0.00895352 -0.99996 
0.00266141 -0.00815407 -0.999967 
0.002376 -0.00742435 -0.999974 
0.00193715 -0.00675336 -0.999979 
0.00138032 -0.00628494 -0.999983 
0.000895501 -0.00592089 -0.999986 
0.000518856 -0.00549116 -0.999989 
0.000159327 -0.00513209 -0.999991 
-0.000104753 -0.00470003 -0.999993 
-0.000260155 -0.00414268 -0.999996 
-0.00045409 -0.00355978 -0.999998 
-0.000534334 -0.00299748 -1 
-0.000539865 -0.00232707 -1 
-0.000644039 -0.00171861 -1 
-0.000673165 -0.00112106 -1 
-0.000660818 -0.000437774 -1 
-0.000673905 0.000171947 -1 
-0.000563533 0.000790558 -1 
-0.00115188 0.00537334 -0.999989 
0.000162762 0.0334851 -0.99862 
-0.00347907 0.0324335 0.998478 
3.3912e-05 0.0032752 0.999998 
0.000341364 0.000740841 1 
0.000461226 0.000119503 1.00001 
0.000345396 -0.000506778 1 
0.000517755 -0.000974636 1 
0.000405529 -0.00161392 1 
0.000316471 -0.00234604 1 
0.000273813 -0.00289687 1 
0.000113933 -0.00345952 0.999998 
-5.44789e-05 -0.00395731 0.999996 
-0.000275761 -0.00435192 0.999995 
-0.000530523 -0.00475117 0.999993 
-0.00090677 -0.00503403 0.999991 
-0.00127924 -0.00538127 0.999989 
-0.00175155 -0.00568973 0.999986 
-0.00223731 -0.00633763 0.999981 
-0.00266149 -0.00708797 0.999975 
-0.00290327 -0.00805554 0.999967 
-0.00288744 -0.00892668 0.99996 
-0.00255631 -0.00965229 0.999954 
-0.00193323 -0.0099307 0.999953 
-0.00110227 -0.00947334 0.999959 
-0.000115819 -0.00810287 0.999971 
0.000893579 -0.00561217 0.999988 
0.001983 -0.00168827 1 
0.00341586 0.00416993 0.99999 
0.00575321 0.0123686 0.999911 
0.00962103 0.0229646 0.999695 
0.0156862 0.0366153 0.999211 
0.0240295 0.0563621 0.998125 
0.0348704 0.0808074 0.996123 
0.0485214 0.113004 0.992413 
0.0511352 0.159751 0.985834 
0.0758124 0.222791 0.971916 
0.0946927 0.31358 0.944828 
0.129347 0.375829 0.917621 
0.0575276 0.55882 0.827279 
0.0669887 0.867247 0.493157 
0.00899864 0.991886 0.126633 
-0.0465674 0.953566 -0.29748 
-0.0619043 0.567084 -0.821318 
-0.129714 0.307999 -0.942503 
-0.0768274 0.279946 -0.95693 
-0.0914251 0.221076 -0.970964 
-0.0665745 0.145622 -0.9871 
-0.0485404 0.110066 -0.992742 
-0.0298952 0.0747793 -0.996757 
-0.0184643 0.0508609 -0.998539 
-0.0123072 0.0335694 -0.999365 
-0.00714557 0.0190415 -0.999798 
-0.00444995 0.00945109 -0.99995 
-0.00229473 0.00210302 -0.999999 
-0.00143243 -0.00310079 -0.999998 
-0.000538902 -0.00670248 -0.999982 
0.000359943 -0.0086832 -0.999966 
0.00129878 -0.00974423 -0.999956 
0.00208074 -0.0098834 -0.999953 
0.00258442 -0.00944976 -0.999956 
0.00285392 -0.00854422 -0.999963 
0.00279798 -0.00759386 -0.999971 
0.00250028 -0.00673376 -0.999978 
0.00203762 -0.00603096 -0.999984 
0.00156557 -0.00555599 -0.999987 
0.00111579 -0.00524602 -0.99999 
0.000723146 -0.00490762 -0.999992 
0.000403653 -0.00460109 -0.999993 
0.000164605 -0.00422146 -0.999995 
-5.67747e-05 -0.00370309 -0.999997 
-0.00015586 -0.00319647 -0.999999 
-0.000267567 -0.00267357 -1 
-0.000325438 -0.00198677 -1 
-0.00039712 -0.00142939 -1 
-0.000462312 -0.000833706 -1 
-0.0003722 -0.000348939 -1 
-0.000468841 5.54625e-05 -1 
-0.000336406 0.000542638 -1 
-0.000278147 0.0024873 -1 
0.00173506 0.0247321 -0.998907 
0.00436383 0.0233798 0.998751 
0.00072843 0.0038566 0.999995 
0.000296959 0.000289656 1 
0.000294136 -0.000124015 1 
0.000213702 -0.000668391 1 
0.000287817 -0.00109372 1 
0.000169574 -0.00136416 1 
0.000209891 -0.00184569 1 
8.49471e-05 -0.00242911 1 
2.64553e-06 -0.00296227 1 
-0.000166987 -0.00344191 0.999998 
-0.000363266 -0.00381789 0.999997 
-0.000602753 -0.00417055 0.999995 
-0.000887631 -0.00446456 0.999994 
-0.00126478 -0.00469985 0.999992 
-0.00163492 -0.00498676 0.99999 
-0.00209726 -0.00554227 0.999986 
-0.00249272 -0.00628449 0.999981 
-0.00279537 -0.00732282 0.999973 
-0.00288009 -0.00833528 0.999965 
-0.00270898 -0.0093371 0.999957 
-0.00223366 -0.00999723 0.999952 
-0.00141392 -0.0100896 0.999952 
-0.000365233 -0.00933844 0.99996 
0.00100823 -0.00750883 0.999975 
0.0027223 -0.0044562 0.999991 
0.00502228 0.000171564 0.999992 
0.00828899 0.00669948 0.999948 
0.0131644 0.0151689 0.999803 
0.0203145 0.0252528 0.999479 
0.0304048 0.0385168 0.998801 
0.0444704 0.056819 0.997396 
0.0658893 0.074874 0.995019 
0.0885015 0.106601 0.990358 
0.0968498 0.155411 0.983093 
0.119705 0.232506 0.965202 
0.162049 0.317249 0.934393 
0.0993036 0.551251 0.828409 
0.0261244 0.731843 0.680942 
-0.0170694 0.992324 0.122928 
-0.0371632 0.714462 -0.698695 
-0.132618 0.555991 -0.820534 
-0.149677 0.262047 -0.953378 
-0.132872 0.187639 -0.97321 
-0.105577 0.141436 -0.984304 
-0.0869795 0.0981959 -0.991362 
-0.0617021 0.0769596 -0.995126 
-0.0439092 0.057558 -0.997379 
-0.0305241 0.0426235 -0.998629 
-0.0209172 0.0290262 -0.999364 
-0.0132493 0.0185294 -0.999745 
-0.00920356 0.00884374 -0.999923 
-0.00549791 0.00206534 -0.999987 
-0.00334068 -0.00302426 -0.999994 
-0.00151603 -0.00664027 -0.999981 
-0.000153853 -0.00891987 -0.999964 
0.000941343 -0.00996211 -0.999954 
0.00186509 -0.0101364 -0.999951 
0.0024494 -0.00967214 -0.999954 
0.00276936 -0.00879774 -0.999961 
0.00279075 -0.00765006 -0.999971 
0.00260435 -0.006616 -0.999979 
0.00226071 -0.005785 -0.999985 
0.00184498 -0.00517333 -0.999989 
0.00142861 -0.00479961 -0.999991 
0.00104982 -0.00458081 -0.999993 
0.000713051 -0.00429359 -0.999995 
0.000458162 -0.00399355 -0.999996 
0.000218363 -0.00365667 -0.999997 
9.96389e-05 -0.00315005 -0.999999 
-2.32241e-05 -0.00267639 -1 
-0.000132643 -0.00217658 -1 
-0.000182259 -0.00151745 -1 
-0.000247035 -0.000971962 -1 
-0.000225924 -0.000422519 -1 
-0.00025087 0.000124233 -1 
-0.000219797 0.00074461 -1 
-0.000123805 0.00316954 -0.999999 
-0.000232237 0.0262643 -0.998734 
0.0115781 0.0205073 0.998848 
0.00156882 0.00283721 1 
0.000307272 0.000819103 1.00001 
0.000272092 0.000275944 1 
0.000230154 -0.000167356 1 
0.00017088 -0.00095476 1 
9.64074e-05 -0.00164599 1 
4.65111e-05 -0.00207247 1 
-6.86864e-05 -0.00261442 1 
-0.000191849 -0.00304127 1 
-0.000371313 -0.00338493 0.999998 
-0.000592475 -0.00370444 0.999997 
-0.000848363 -0.00396685 0.999996 
-0.00115365 -0.00419608 0.999995 
-0.00151116 -0.00437483 0.999993 
-0.00188103 -0.00484429 0.999991 
-0.00224157 -0.00549098 0.999986 
-0.00254387 -0.00645864 0.99998 
-0.0026938 -0.0074971 0.999972 
-0.00271855 -0.00862501 0.999963 
-0.00250707 -0.00957862 0.999955 
-0.00201834 -0.0102034 0.99995 
-0.00122185 -0.0102936 0.99995 
-0.00010245 -0.00963384 0.999958 
0.0014109 -0.00809963 0.99997 
0.00356005 -0.00544236 0.999983 
0.00659491 -0.00151338 0.999981 
0.0107539 0.00381821 0.999939 
0.0165983 0.0103862 0.999813 
0.0254396 0.018545 0.999509 
0.0372015 0.0271336 0.998943 
0.0520665 0.0392696 0.997877 
0.0751436 0.0494408 0.995949 
0.107135 0.0723619 0.991612 
0.139677 0.0971077 0.985427 
0.143018 0.169931 0.975025 
0.190809 0.252423 0.948611 
0.1316 0.62173 0.772021 
0.040308 0.827814 0.559584 
-0.0108807 0.998858 -0.0453607 
-0.0602558 0.896315 -0.438909 
-0.186341 0.438081 -0.879409 
-0.1857 0.241739 -0.952405 
-0.158156 0.134765 -0.978175 
-0.127488 0.0903894 -0.987717 
-0.0963116 0.0604819 -0.993516 
-0.0662251 0.0495725 -0.996576 
-0.0475551 0.0363675 -0.998212 
-0.0335949 0.0273997 -0.999064 
-0.0219969 0.0179172 -0.999602 
-0.0152147 0.0102697 -0.999836 
-0.00954434 0.00285713 -0.999955 
-0.00598557 -0.00219097 -0.999984 
-0.00309836 -0.00596757 -0.999982 
-0.00114499 -0.0084857 -0.999967 
0.000284235 -0.00994558 -0.999955 
0.00134191 -0.010405 -0.999949 
0.00204626 -0.0101705 -0.99995 
0.00249414 -0.0093986 -0.999957 
0.0026808 -0.00837968 -0.999965 
0.00260889 -0.00710361 -0.999975 
0.002416 -0.00603029 -0.999983 
0.00211494 -0.00519475 -0.999988 
0.00175056 -0.00461706 -0.999992 
0.00138269 -0.00427489 -0.999994 
0.0010374 -0.00410868 -0.999995 
0.000743678 -0.00385445 -0.999996 
0.000482403 -0.00360376 -0.999997 
0.000297195 -0.00329063 -0.999999 
0.00014329 -0.00282148 -1 
2.17507e-05 -0.00237414 -1 
-6.88956e-05 -0.0018947 -1 
-0.00011134 -0.00138974 -1 
-0.000154258 -0.000953182 -1 
-0.000177537 -0.000400223 -1 
-0.000200072 0.000111078 -1 
-0.000245697 0.000641333 -1 
-0.000561805 0.003293 -0.999999 
-0.00521599 0.0201916 -0.998933 
0.0144954 0.0217748 0.998828 
0.00166368 0.00262554 0.999999 
0.000426136 0.000712251 1 
0.000304659 0.000121677 1.00001 
0.000226872 -0.000409632 1 
0.000223629 -0.000808193 1 
0.000147363 -0.00132749 1 
8.46898e-05 -0.00181362 1 
-1.18448e-05 -0.00224862 1 
-0.000128702 -0.00264733 1 
-0.000269994 -0.0029774 1 
-0.000476287 -0.00329696 0.999999 
-0.000716143 -0.00352395 0.999998 
-0.000989121 -0.00373112 0.999997 
-0.00128045 -0.00391578 0.999996 
-0.00163449 -0.00426289 0.999994 
-0.00195178 -0.00483626 0.99999 
-0.00222483 -0.00574775 0.999985 
-0.00236722 -0.00678421 0.999978 
-0.00243414 -0.00800109 0.999969 
-0.00234651 -0.00910121 0.99996 
-0.00207209 -0.00998708 0.999952 
-0.00153591 -0.0104553 0.999948 
-0.000647801 -0.0104189 0.99995 
0.000581839 -0.00973365 0.999957 
0.00246097 -0.00820069 0.999967 
0.00518786 -0.00567757 0.999975 
0.00906017 -0.00212511 0.999961 
0.0144793 0.00214966 0.999897 
0.0223393 0.00743946 0.999727 
0.032996 0.0122831 0.999384 
0.04732 0.0178092 0.998725 
0.0649361 0.0231783 0.997624 
0.0924977 0.0279069 0.995327 
0.124471 0.0436542 0.991265 
0.175253 0.0639314 0.982449 
0.219053 0.206812 0.953537 
0.183359 0.494754 0.849458 
-0.00088413 0.762856 0.64653 
0.110488 0.768972 0.629727 
-0.0377624 0.78328 -0.620499 
-0.0890699 0.419957 -0.903142 
-0.208168 0.183447 -0.960723 
-0.159004 0.0503542 -0.985995 
-0.117653 0.0423631 -0.992154 
-0.0871044 0.0226651 -0.995945 
-0.0678601 0.0271614 -0.997329 
-0.0512914 0.0178803 -0.998526 
-0.0361212 0.0145756 -0.999246 
-0.0250234 0.0110395 -0.999631 
-0.0170748 0.00456854 -0.999848 
-0.0115041 0.000624318 -0.999938 
-0.00689935 -0.00429156 -0.999971 
-0.00368014 -0.00700908 -0.999973 
-0.0014514 -0.00917006 -0.999961 
1.99757e-05 -0.0102946 -0.999951 
0.00109537 -0.0106123 -0.999947 
0.00175356 -0.0103742 -0.999949 
0.00217933 -0.00964143 -0.999955 
0.00237103 -0.00857083 -0.999964 
0.00240639 -0.00743377 -0.999973 
0.0022518 -0.00610988 -0.999983 
0.00205036 -0.00513613 -0.999989 
0.0017617 -0.00443892 -0.999993 
0.00143694 -0.00400641 -0.999995 
0.00111747 -0.00379089 -0.999996 
0.000838154 -0.00361789 -0.999997 
0.000566361 -0.00341252 -0.999998 
0.000353972 -0.00312295 -0.999999 
0.000196267 -0.00281018 -1 
4.05394e-05 -0.00234324 -1 
-5.67561e-05 -0.00189323 -1 
-0.000139274 -0.00133812 -1 
-0.000179321 -0.000785226 -1 
-0.000231681 -0.000291451 -1 
-0.000235819 0.000106221 -1 
-0.000322322 0.000533492 -1 
-0.000784835 0.00199946 -1 
-0.00899364 0.0187327 -0.998993 
0.0149235 0.0252147 0.99879 
0.0017337 0.00300491 0.999998 
0.000450609 0.000599013 1 
0.000381945 0.000198725 1 
0.000309012 -0.000241905 1 
0.000277501 -0.000779755 1 
0.000194825 -0.00134702 1 
0.000130046 -0.00180004 1 
1.25301e-05 -0.00222657 1 
-8.93742e-05 -0.0025367 1 
-0.000265844 -0.00288592 1 
-0.000470776 -0.00314712 0.999999 
-0.000692341 -0.00330842 0.999999 
-0.000947485 -0.00348879 0.999998 
-0.0012617 -0.00376488 0.999995 
-0.00149859 -0.00416413 0.999995 
-0.00179086 -0.00489676 0.99999 
-0.00189756 -0.00582616 0.999985 
-0.00197154 -0.00704246 0.999977 
-0.00192996 -0.0082822 0.999968 
-0.00178141 -0.00942895 0.999958 
-0.00144466 -0.0102566 0.99995 
-0.000899226 -0.0107434 0.999946 
-4.78158e-06 -0.0108439 0.999945 
0.001259 -0.0103825 0.999949 
0.00316216 -0.00930766 0.999956 
0.00596396 -0.0075025 0.999958 
0.00996474 -0.00520579 0.999942 
0.0158628 -0.00239965 0.999875 
0.0239579 0.000101946 0.999718 
0.0345935 0.00134937 0.999405 
0.048687 0.00105205 0.998819 
0.068634 0.00445518 0.997635 
0.0916634 -0.00126801 0.995793 
0.122256 0.00772971 0.992473 
0.164871 0.0205488 0.986102 
0.158954 0.128131 0.978926 
0.243004 0.388994 0.888628 
0.144888 0.728595 0.669481 
-0.00264498 0.98078 0.195297 
-0.0993661 0.768629 -0.632145 
-0.215318 0.36347 -0.906398 
-0.182642 0.094585 -0.97862 
-0.162529 0.0174373 -0.986552 
-0.119219 0.00991912 -0.992822 
-0.0843292 -0.00403042 -0.996435 
-0.0615142 0.00143879 -0.998109 
-0.0438543 0.00138323 -0.999043 
-0.0310649 0.00134295 -0.999521 
-0.0218925 0.000761513 -0.999763 
-0.0149938 -0.00269789 -0.999888 
-0.010064 -0.00480546 -0.999942 
-0.00584946 -0.00778141 -0.999956 
-0.00316255 -0.00935318 -0.999956 
-0.00135124 -0.0105351 -0.999948 
3.35403e-05 -0.0109491 -0.999944 
0.000871745 -0.0108554 -0.999945 
0.00143669 -0.0102968 -0.99995 
0.00179305 -0.00935836 -0.999959 
0.00189447 -0.00820346 -0.999969 
0.00200504 -0.00693171 -0.999977 
0.00184279 -0.00564824 -0.999987 
0.00169305 -0.00468891 -0.999992 
0.0014521 -0.00403771 -0.999995 
0.00117217 -0.0036445 -0.999997 
0.000906228 -0.00343278 -0.999998 
0.000662427 -0.00330243 -0.999998 
0.000433103 -0.00309681 -0.999999 
0.000241746 -0.00283728 -1 
9.35548e-05 -0.00253415 -1 
-4.18792e-05 -0.00213233 -1 
-0.000107302 -0.00178883 -1 
-0.00019382 -0.00134011 -1 
-0.000229203 -0.000866513 -1 
-0.00028741 -0.000355078 -1 
-0.00032052 0.000148067 -1 
-0.000456015 0.000706618 -1 