# vtk DataFile Version 3.0 
Exported using Morpho https://github.com/Morpho-lang/morpho 
ASCII 
DATASET UNSTRUCTURED_GRID 

POINTS 1978 float 
-8.48528 -2.82845 -2.9852e-12 
-8.26042 -2.82843 1.07059e-12 
-8.03162 -2.82843 -1.17299e-14 
-7.79436 -2.82843 1.56246e-15 
-7.51457 -2.82843 5.18378e-14 
-7.25681 -2.82843 1.06265e-13 
-7.00965 -2.82843 9.70237e-14 
-6.79523 -2.82843 4.88547e-14 
-6.5736 -2.82843 6.44198e-14 
-6.36877 -2.82843 7.86352e-14 
-6.14974 -2.82843 -4.39558e-14 
-5.92242 -2.82843 -5.00908e-14 
-5.70798 -2.82843 -6.71001e-14 
-5.5092 -2.82843 -1.70558e-13 
-5.28218 -2.82843 -1.95678e-13 
-5.08095 -2.82843 -2.46732e-13 
-4.86359 -2.82843 -1.95621e-13 
-4.66295 -2.82843 -4.29453e-13 
-4.44746 -2.82843 -6.26169e-13 
-4.23948 -2.82843 -7.14843e-13 
-4.02634 -2.82843 -5.26222e-13 
-3.82658 -2.82843 -7.28105e-13 
-3.61495 -2.82843 -1.14818e-12 
-3.40378 -2.82843 -2.03619e-12 
-3.17998 -2.82843 -3.10327e-12 
-2.95727 -2.82843 -7.07709e-12 
-2.73031 -2.82843 -1.32511e-11 
-2.50352 -2.82843 -2.03967e-11 
-2.2831 -2.82843 -3.12081e-11 
-2.08208 -2.82843 -8.44496e-11 
-1.88934 -2.82843 -1.2603e-10 
-1.70067 -2.82843 -1.85188e-10 
-1.53371 -2.82843 -4.51048e-11 
-1.37283 -2.82843 3.12378e-10 
-1.23449 -2.82843 2.15349e-09 
-1.10498 -2.82843 1.74074e-09 
-0.966737 -2.82843 8.38536e-09 
-0.804416 -2.82843 2.70576e-08 
-0.636809 -2.82843 8.73067e-08 
-0.455475 -2.82842 -1.24604e-06 
0.681107 -2.82843 -8.67106e-07 
0.806372 -2.82843 -4.7412e-08 
0.950454 -2.82843 -2.54068e-08 
1.07336 -2.82843 -1.14036e-08 
1.23179 -2.82843 -2.48935e-09 
1.36424 -2.82843 -1.22026e-09 
1.54019 -2.82843 2.84486e-10 
1.70183 -2.82843 2.52372e-10 
1.87352 -2.82843 1.58761e-10 
2.07838 -2.82843 8.35299e-11 
2.27075 -2.82843 3.79789e-11 
2.47833 -2.82843 2.41112e-11 
2.68776 -2.82843 1.59732e-11 
2.9322 -2.82843 8.54048e-12 
3.16824 -2.82843 4.38867e-12 
3.39829 -2.82843 2.56438e-12 
3.62196 -2.82843 1.09227e-12 
3.82983 -2.82843 5.20695e-13 
4.04316 -2.82843 6.58823e-13 
4.2634 -2.82843 8.22264e-13 
4.45838 -2.82843 6.14785e-13 
4.67125 -2.82843 4.3887e-13 
4.87038 -2.82843 1.80018e-13 
5.07971 -2.82843 1.58271e-13 
5.28498 -2.82843 1.94157e-13 
5.50272 -2.82843 1.9652e-13 
5.70633 -2.82843 9.3412e-14 
5.92587 -2.82843 4.80846e-14 
6.14849 -2.82843 2.04707e-14 
6.35043 -2.82843 -3.49579e-14 
6.58715 -2.82843 -4.36985e-14 
6.80124 -2.82843 -5.94042e-14 
7.00322 -2.82843 -1.28668e-13 
7.26999 -2.82843 -8.09792e-14 
7.50196 -2.82843 -4.62863e-14 
7.73969 -2.82843 2.37681e-14 
8.02021 -2.82843 4.56493e-14 
8.20511 -2.82843 -1.88692e-12 
8.48528 -2.82843 -1.14593e-10 
-8.48528 -2.59073 6.1918e-11 
-8.25593 -2.59135 4.51353e-09 
-8.02641 -2.58922 9.45079e-15 
-7.77459 -2.60452 -5.87598e-17 
-7.52131 -2.63791 1.62653e-15 
-7.24836 -2.6246 -1.3631e-15 
-6.99334 -2.59941 -2.2731e-15 
-6.76308 -2.6034 5.25974e-16 
-6.53783 -2.58279 1.15425e-15 
-6.31399 -2.59395 -4.439e-16 
-6.08289 -2.60285 -5.96802e-16 
-5.86302 -2.59034 -3.43572e-17 
-5.65598 -2.57176 1.79574e-17 
-5.43529 -2.60658 6.59916e-16 
-5.22469 -2.57927 9.18939e-16 
-5.00819 -2.6007 1.37514e-15 
-4.79863 -2.58323 2.06124e-15 
-4.58284 -2.6021 5.00068e-15 
-4.36575 -2.59361 -8.00265e-13 
-4.14869 -2.59906 -1.77711e-12 
-3.93725 -2.58133 -3.71828e-12 
-3.72391 -2.59167 -7.70825e-12 
-3.50314 -2.58566 -1.74653e-11 
-3.27476 -2.59427 -4.19434e-11 
-3.03875 -2.58976 -1.10556e-10 
-2.8004 -2.59498 -3.2817e-10 
-2.5571 -2.60035 -1.07445e-09 
-2.31411 -2.60279 -3.48756e-09 
-2.0838 -2.59487 -1.10463e-08 
-1.86859 -2.60948 -2.81571e-08 
-1.66604 -2.60858 -7.32583e-08 
-1.48293 -2.6256 -1.67536e-07 
-1.31347 -2.62277 -3.62799e-07 
-1.1656 -2.63626 -7.47101e-07 
-1.00646 -2.68289 -1.19083e-06 
-0.97504 -2.54358 -6.19767e-07 
-0.829806 -2.69713 -2.49293e-06 
-0.610604 -2.6967 -1.70712e-06 
-0.3342 -2.69664 -2.19182e-07 
-0.236631 -2.78105 9.27435e-06 
0.540278 -2.76591 3.35342e-06 
0.691817 -2.62445 2.09733e-06 
0.846349 -2.66262 1.96988e-06 
0.993765 -2.62248 1.56048e-06 
1.14794 -2.66211 9.46449e-07 
1.30078 -2.60241 4.98196e-07 
1.45998 -2.63463 2.39094e-07 
1.64032 -2.59897 1.02341e-07 
1.81858 -2.5994 4.32045e-08 
2.03004 -2.62387 1.52155e-08 
2.26464 -2.58844 5.58076e-09 
2.48156 -2.58175 1.79279e-09 
2.72423 -2.60621 5.4473e-10 
2.96715 -2.59639 1.71673e-10 
3.20144 -2.59413 6.28621e-11 
3.43131 -2.59232 2.3509e-11 
3.64656 -2.58121 1.03968e-11 
3.86445 -2.59181 5.01729e-12 
4.0894 -2.60312 2.36117e-12 
4.29395 -2.57686 1.08486e-12 
4.50896 -2.60007 -7.5757e-15 
4.7166 -2.58373 -2.20338e-15 
4.92907 -2.59494 -2.54076e-15 
5.14133 -2.58918 -1.23296e-15 
5.36143 -2.60166 -4.73529e-16 
5.57515 -2.58357 1.21654e-16 
5.79402 -2.59943 -7.61693e-16 
6.02161 -2.6005 1.11941e-16 
6.23803 -2.57441 -1.86653e-17 
6.46003 -2.60996 1.66559e-17 
6.68826 -2.58408 1.46487e-16 
6.89933 -2.56667 8.70521e-17 
7.12922 -2.6294 2.52153e-16 
7.38051 -2.59755 5.25944e-16 
7.61534 -2.60398 -8.32546e-17 
7.87366 -2.63701 5.44687e-17 
8.07975 -2.53755 -1.4577e-14 
8.30037 -2.63248 -1.83947e-08 
8.48528 -2.5325 -2.60361e-10 
-8.48528 -2.34811 -2.19471e-10 
-8.25205 -2.35355 2.76493e-09 
-8.01202 -2.35502 4.63336e-16 
-7.76935 -2.39187 -3.58163e-17 
-7.56018 -2.23157 -8.3277e-18 
-7.49191 -2.43674 -1.44655e-17 
-7.21151 -2.42063 -5.31841e-18 
-6.9787 -2.36191 8.50656e-18 
-6.74355 -2.37521 2.89774e-18 
-6.50796 -2.35064 3.34918e-18 
-6.27088 -2.3714 4.79937e-18 
-6.04786 -2.36535 5.77139e-17 
-5.83165 -2.34373 2.20651e-17 
-5.59282 -2.35362 4.77714e-17 
-5.38308 -2.36131 1.08345e-16 
-5.14924 -2.3573 2.77595e-16 
-4.93934 -2.35763 6.34321e-16 
-4.71142 -2.36261 1.57738e-15 
-4.49593 -2.37167 3.58332e-15 
-4.27161 -2.36736 -6.2603e-13 
-4.06194 -2.35484 -1.22622e-12 
-3.8428 -2.34724 -2.70845e-12 
-3.63 -2.35299 -6.5472e-12 
-3.40252 -2.35534 -1.73302e-11 
-3.17627 -2.359 -4.55884e-11 
-2.94142 -2.35758 -1.27287e-10 
-2.70516 -2.36807 -3.79906e-10 
-2.4672 -2.377 -1.09539e-09 
-2.23443 -2.3785 -2.77565e-09 
-2.00973 -2.38108 -6.17563e-09 
-1.80023 -2.40311 -1.29545e-08 
-1.60368 -2.3989 -1.93984e-08 
-1.42971 -2.42799 -5.10544e-08 
-1.26973 -2.4183 -1.70061e-08 
-1.12138 -2.46519 -2.76043e-08 
-0.846785 -2.45791 -2.2342e-07 
-0.76712 -2.59142 -9.93018e-07 
-0.589572 -2.53113 -1.36286e-06 
-0.453235 -2.62264 -7.67733e-07 
-0.123278 -2.68085 4.43672e-07 
0.269009 -2.8572 2.18943e-08 
0.463484 -2.65336 6.52341e-07 
0.803584 -2.48582 8.52935e-07 
0.9486 -2.4596 1.28268e-07 
1.13413 -2.47701 1.96984e-07 
1.26218 -2.3867 -1.44642e-08 
1.41794 -2.41686 6.18241e-08 
1.58095 -2.40303 2.03263e-08 
1.76964 -2.36321 6.15381e-09 
1.96525 -2.41074 9.73546e-09 
2.18241 -2.39562 3.77087e-09 
2.41761 -2.34634 1.23191e-09 
2.65352 -2.37257 4.88547e-10 
2.88801 -2.37181 1.97478e-10 
3.12924 -2.35903 6.4762e-11 
3.35703 -2.3591 2.39567e-11 
3.57915 -2.34063 9.12843e-12 
3.79739 -2.3523 3.84806e-12 
4.01666 -2.37423 1.78119e-12 
4.22607 -2.34116 7.6816e-13 
4.44453 -2.36242 -3.98955e-15 
4.65004 -2.34986 -1.81644e-15 
4.86498 -2.35757 -7.81558e-16 
5.07459 -2.35526 -3.75553e-16 
5.29302 -2.36964 -1.62924e-16 
5.50512 -2.35206 -1.18697e-16 
5.72718 -2.36122 -5.41477e-17 
5.9457 -2.37376 -2.87494e-17 
6.16428 -2.34486 -1.12746e-17 
6.39817 -2.36353 -3.5267e-17 
6.61015 -2.36262 3.14583e-18 
6.83544 -2.32066 -2.20299e-18 
7.06857 -2.37966 -3.00315e-18 
7.28819 -2.39708 8.25958e-18 
7.54692 -2.37028 1.22233e-17 
7.78838 -2.4171 2.8823e-17 
7.99944 -2.3194 1.23193e-14 
8.26189 -2.36408 2.15207e-08 
8.48528 -2.28026 4.43707e-10 
-8.48528 -2.10869 3.63022e-10 
-8.25313 -2.10718 1.58765e-08 
-8.04115 -2.11452 2.59937e-14 
-7.80301 -2.15338 9.20067e-18 
-7.49703 -2.02959 -1.71103e-18 
-7.29674 -2.23157 -1.65701e-17 
-7.05861 -2.14797 -3.9988e-18 
-6.80424 -2.14242 -6.52354e-18 
-6.58415 -2.13151 -4.7317e-19 
-6.34024 -2.13944 -3.07433e-17 
-6.12059 -2.12785 -1.84481e-18 
-5.90978 -2.10919 -2.30949e-17 
-5.6849 -2.13338 -6.35459e-18 
-5.46288 -2.1124 -4.69877e-17 
-5.25244 -2.13925 -3.20353e-17 
-5.0357 -2.11489 -4.33342e-17 
-4.82199 -2.1376 -1.18544e-17 
-4.60531 -2.13381 -2.88332e-17 
-4.39336 -2.14579 -1.28582e-16 
-4.18506 -2.12138 -9.03022e-16 
-3.97494 -2.11993 -2.61095e-15 
-3.76245 -2.10732 -6.1129e-15 
-3.54586 -2.12374 1.14462e-12 
-3.32387 -2.11911 2.9894e-12 
-3.09841 -2.12473 9.39742e-12 
-2.86508 -2.12691 3.3367e-11 
-2.63178 -2.14052 1.10378e-10 
-2.39821 -2.15068 3.34145e-10 
-2.16916 -2.15625 9.22176e-10 
-1.94936 -2.16632 2.11855e-09 
-1.75292 -2.18881 2.71324e-09 
-1.58968 -2.13914 1.08761e-08 
-1.44001 -2.21555 1.99982e-08 
-1.29714 -2.18262 1.54668e-08 
-1.1516 -2.2499 3.88697e-08 
-0.998661 -2.36477 -1.07279e-07 
-0.677455 -2.43298 -5.29614e-07 
-0.512527 -2.32173 7.16624e-08 
-0.262976 -2.553 -1.27159e-06 
0.0656855 -2.76378 8.63422e-07 
0.441745 -2.50087 2.12478e-06 
0.634977 -2.49263 4.75624e-07 
0.765353 -2.31868 1.61335e-07 
0.983681 -2.32379 -3.9247e-08 
1.11164 -2.25453 -4.70212e-08 
1.26379 -2.17464 -3.03963e-08 
1.42683 -2.1987 -4.04228e-08 
1.59981 -2.18413 -1.56198e-08 
1.80571 -2.15095 -7.37335e-10 
2.01197 -2.1936 -3.25792e-09 
2.22931 -2.16769 -1.77458e-10 
2.47901 -2.12786 -1.43997e-10 
2.70837 -2.13698 -3.22131e-11 
2.94593 -2.14193 -1.25974e-11 
3.17441 -2.11965 -4.5295e-12 
3.3967 -2.11923 -1.86176e-12 
3.61949 -2.10585 -9.84136e-13 
3.841 -2.12541 3.55247e-15 
4.04737 -2.13028 1.50523e-15 
4.27547 -2.11934 9.26818e-16 
4.47985 -2.11919 2.90638e-16 
4.69729 -2.12119 1.13643e-16 
4.90755 -2.11994 4.81094e-17 
5.12773 -2.12984 1.09577e-17 
5.33669 -2.12859 1.12662e-17 
5.56155 -2.12572 5.4316e-19 
5.78155 -2.13017 6.52165e-18 
5.99514 -2.13203 -4.56419e-18 
6.23691 -2.12939 1.38418e-17 
6.45019 -2.11426 -4.69463e-18 
6.66509 -2.11812 1.52467e-17 
6.92492 -2.11463 -1.02258e-17 
7.14126 -2.1406 2.05004e-18 
7.37195 -2.17985 4.9467e-18 
7.56432 -2.08266 2.15186e-18 
7.74862 -2.18234 6.21725e-19 
7.96446 -2.08283 -1.40827e-16 
8.19695 -2.1445 -7.55316e-11 
8.48528 -2.09888 8.04122e-11 
-8.48528 -1.80254 -2.40678e-11 
-8.30982 -1.86437 -1.32355e-08 
-7.89608 -1.90688 6.69017e-18 
-7.6744 -1.92061 2.28118e-17 
[...]
POINT_DATA 1978 
VECTORS vectors float
-0.00297431 -0.0117899 0.999928 
0.000787776 -0.000722284 0.999999 
-0.000211465 -0.000453865 1 
7.11191e-05 -0.00033925 1 
2.60305e-05 -0.000222907 1 
2.1755e-05 -9.12932e-05 1 
1.13654e-05 3.32918e-05 1 
5.21803e-06 0.000157076 1 
3.25889e-06 0.000280912 1 
2.68487e-06 0.000397818 1 
3.56625e-06 0.000508227 1 
3.74717e-06 0.000611204 1 
4.04179e-06 0.000713834 1 
5.65704e-06 0.000842237 1 
7.73637e-06 0.00107196 0.999999 
8.32565e-06 0.00140154 0.999999 
1.16416e-05 0.00187518 0.999998 
1.55e-05 0.00240812 0.999997 
2.1358e-05 0.0031471 0.999995 
2.34965e-05 0.00415705 0.999991 
2.61747e-05 0.00554369 0.999985 
3.60363e-05 0.00716709 0.999974 
6.37091e-05 0.00929391 0.999957 
0.000115023 0.0120228 0.999928 
0.000199577 0.0156565 0.999877 
0.000314994 0.0202918 0.999794 
0.000434811 0.0274806 0.999622 
0.000470848 0.0390452 0.999237 
0.000349124 0.0558372 0.99844 
0.000121834 0.0786818 0.9969 
-7.96155e-05 0.108038 0.994147 
-0.000467274 0.146103 0.989269 
-0.000913765 0.194725 0.980858 
-0.00122615 0.256197 0.966624 
-0.00166633 0.32327 0.946305 
-0.0019501 0.397925 0.917416 
-0.00207481 0.487473 0.873136 
-0.00227016 0.619334 0.785125 
-0.000665126 0.768311 0.640078 
0.00949616 0.924211 0.381758 
-0.0013788 0.831553 -0.555444 
0.00252847 0.706186 -0.708022 
0.00186919 0.578869 -0.815419 
0.00252642 0.475336 -0.879801 
0.00190353 0.35477 -0.934952 
0.0014892 0.279628 -0.960108 
0.000920203 0.201675 -0.979452 
0.000608784 0.151931 -0.988391 
0.000131193 0.114923 -0.993374 
-4.68413e-05 0.0841359 -0.996454 
-0.000177281 0.0606357 -0.99816 
-0.000294893 0.0433901 -0.999058 
-0.000418644 0.0314934 -0.999504 
-0.000469058 0.0225357 -0.999746 
-0.000324911 0.016528 -0.999863 
-0.000190107 0.0121813 -0.999926 
-9.76867e-05 0.00926013 -0.999957 
-5.31504e-05 0.00719547 -0.999974 
-3.9538e-05 0.00543611 -0.999985 
-2.50803e-05 0.00396772 -0.999992 
-1.53514e-05 0.00300945 -0.999996 
-1.21116e-05 0.00231988 -0.999997 
-8.52013e-06 0.00185314 -0.999998 
-6.87403e-06 0.00143998 -0.999999 
-6.02045e-06 0.00109369 -0.999999 
-5.19125e-06 0.00083674 -1 
-4.38264e-06 0.000698329 -1 
-3.93069e-06 0.000605871 -1 
-3.02869e-06 0.000512691 -1 
-3.36128e-06 0.000410417 -1 
-4.06354e-06 0.000280377 -1 
-4.94192e-06 0.000158177 -1 
-1.09574e-05 4.2616e-05 -1 
-1.63944e-05 -9.91829e-05 -1 
-1.26214e-05 -0.000217793 -1 
-7.62517e-05 -0.000331313 -1 
0.000220205 -0.000470178 -1 
-0.00087143 -0.000614394 -0.999999 
0.00255697 -0.0176148 -0.99984 
-0.0666027 -0.0618149 0.995867 
-0.0028939 -0.00290118 0.999992 
-0.000409464 -0.00047599 1 
-0.00032391 -0.000334859 1 
-0.000272983 -0.000243125 1 
-0.000223841 -0.000125767 1 
-0.000182912 -1.41203e-05 1 
-0.000114237 0.000121925 1 
-7.32766e-05 0.000253587 1 
-5.10572e-05 0.000396018 1 
-6.42046e-05 0.000531266 1 
-0.000107735 0.000657721 1 
-0.000173684 0.000798306 1 
-0.000238286 0.000986781 1 
-0.000357923 0.00128148 0.999999 
-0.000465333 0.00168197 0.999999 
-0.000646914 0.00222052 0.999997 
-0.000808083 0.00289333 0.999996 
-0.00106005 0.00382418 0.999992 
-0.00130148 0.00504679 0.999986 
-0.00164509 0.00664354 0.999977 
-0.00195182 0.00866537 0.999961 
-0.00252919 0.0114853 0.999931 
-0.00338619 0.0152978 0.999877 
-0.00494658 0.0206303 0.999775 
-0.00706097 0.0282368 0.999576 
-0.00990816 0.0400892 0.999147 
-0.0135029 0.0581493 0.998217 
-0.0175438 0.0837818 0.99633 
-0.0212035 0.117694 0.992824 
-0.0255004 0.16265 0.986354 
-0.0293961 0.218685 0.975353 
-0.0330549 0.285985 0.957664 
-0.0337234 0.363371 0.931034 
-0.0313193 0.455096 0.889892 
-0.0020316 0.475705 0.879603 
-0.024629 0.584727 0.810856 
-0.00428724 0.757248 0.653114 
0.0175103 0.922082 0.386599 
-0.0021622 0.977058 0.212933 
0.00833451 0.889302 -0.457246 
-0.0152013 0.750222 -0.661011 
0.0136918 0.634708 -0.772631 
0.0258729 0.512579 -0.85825 
0.0355946 0.408412 -0.912103 
0.0355137 0.316362 -0.947974 
0.0326861 0.243178 -0.969431 
0.0292217 0.180971 -0.983054 
0.0247717 0.135757 -0.990432 
0.0181328 0.0961159 -0.995205 
0.0144193 0.0660682 -0.997711 
0.0115467 0.0476432 -0.998798 
0.00771488 0.0329584 -0.999427 
0.00560112 0.0238714 -0.999699 
0.00393513 0.0175698 -0.999838 
0.00283933 0.0129194 -0.999913 
0.00228151 0.00978277 -0.99995 
0.00180931 0.00736729 -0.999971 
0.00143953 0.00547078 -0.999984 
0.00125545 0.00420448 -0.99999 
0.00092149 0.00313459 -0.999995 
0.000730635 0.00243472 -0.999997 
0.000527817 0.00187155 -0.999998 
0.000394117 0.00143638 -0.999999 
0.000271871 0.00108182 -0.999999 
0.000195326 0.000853266 -1 
0.00012006 0.000689382 -1 
7.40586e-05 0.000563061 -1 
5.79452e-05 0.000439287 -1 
6.32687e-05 0.000311321 -1 
0.000107367 0.000161568 -1 
0.000169502 3.09402e-05 -1 
0.000195463 -6.74125e-05 -1 
0.000280406 -0.000188591 -1 
0.000308298 -0.000281454 -1 
0.000292432 -0.000381839 -1 
0.00048839 -0.00054037 -1 
0.00374203 -0.00418424 -0.999984 
0.0916933 -0.0890961 -0.991791 
-0.0729769 -0.0668988 0.995092 
-0.0032528 -0.0030117 0.99999 
-0.000539827 -0.000453374 1 
-0.000454716 -0.000335232 1 
-0.00043121 -0.000301563 1 
-0.000399125 -0.00025422 1 
-0.000320208 -0.000164776 1 
-0.00022543 -8.92457e-05 1 
-0.000128245 5.17646e-05 1 
-5.02362e-05 0.000205909 1 
-2.73358e-05 0.000382737 1 
-4.80371e-05 0.000538708 1 
-0.000102871 0.000694451 1 
-0.000203464 0.000896733 1 
-0.000307541 0.0011383 0.999999 
-0.000448781 0.0015249 0.999999 
-0.000605255 0.00200307 0.999998 
-0.000819476 0.00268099 0.999996 
-0.00105769 0.00350794 0.999993 
-0.00132277 0.0046436 0.999988 
-0.00157025 0.00603576 0.999981 
-0.00187076 0.00793875 0.999967 
-0.00230021 0.0104144 0.999943 
-0.00303867 0.0140705 0.999896 
-0.00425197 0.0189738 0.999811 
-0.00609175 0.0258601 0.999647 
-0.00858358 0.0353651 0.999338 
-0.0114802 0.0491216 0.998727 
-0.0141234 0.0689573 0.99752 
-0.0156157 0.0957578 0.995282 
-0.0163112 0.130651 0.991294 
-0.0131802 0.175482 0.984394 
-0.0122056 0.230355 0.97303 
0.00050282 0.288107 0.957598 
0.00168294 0.358635 0.933476 
0.0502413 0.548296 0.834774 
0.00506661 0.625781 0.779982 
0.0422109 0.76376 0.644119 
0.0384009 0.866271 0.498097 
0.0181526 0.985432 0.169098 
0.00367976 0.96896 -0.247153 
-0.0212507 0.886132 -0.462946 
-0.0448877 0.627782 -0.777094 
-0.0267367 0.514868 -0.856852 
0.00343296 0.398017 -0.917372 
-0.00545009 0.31246 -0.949915 
0.011256 0.249498 -0.96831 
0.0144393 0.193121 -0.981069 
0.0131853 0.144462 -0.989422 
0.0175254 0.109041 -0.993883 
0.0150131 0.0778878 -0.996849 
0.0111175 0.055459 -0.998399 
0.00905453 0.0394946 -0.999179 
0.00661732 0.0289381 -0.999559 
0.00446774 0.0211901 -0.999765 
0.00326397 0.0155631 -0.999874 
0.00249813 0.0115156 -0.999931 
0.00210138 0.00855732 -0.999961 
0.00178482 0.00641067 -0.999978 
0.00144739 0.00494795 -0.999987 
0.00116933 0.00372403 -0.999992 
0.00090538 0.00288122 -0.999996 
0.000678199 0.00219301 -0.999997 
0.000498479 0.00168142 -0.999999 
0.000354132 0.00126912 -0.999999 
0.000236603 0.000986947 -1 
0.000142051 0.000770664 -1 
7.48507e-05 0.000607914 -1 
3.14526e-05 0.000455979 -1 
4.206e-05 0.000291908 -1 
8.67022e-05 0.000139528 -1 
0.000162864 -2.36847e-05 -1 
0.00026637 -0.000121713 -1 
0.000349628 -0.000201706 -1 
0.000418585 -0.000281129 -1 
0.000445645 -0.000344001 -1 
0.000522526 -0.000439224 -1 
0.00331367 -0.0032903 -0.999989 
0.0528699 -0.0543704 -0.997118 
-0.0975824 -0.0904227 0.991117 
-0.00393178 -0.00364995 0.999986 
-0.000570361 -0.000481879 1 
-0.000459089 -0.000346988 1 
-0.000387366 -0.000321742 1 
-0.000353062 -0.000247162 1 
-0.000240811 -0.000201654 1 
-0.000117034 -7.17592e-05 1 
-2.49953e-05 7.43234e-05 1 
3.08156e-05 0.000272004 1 
3.54498e-05 0.000449059 1 
-2.44514e-06 0.000621629 1 
-9.41829e-05 0.000828548 1 
-0.000187173 0.0010836 0.999999 
-0.000302487 0.0014036 0.999999 
-0.000410764 0.0018644 0.999998 
-0.000565076 0.00244815 0.999997 
-0.00072329 0.00321747 0.999995 
-0.00090511 0.0041608 0.999991 
-0.00101784 0.00535226 0.999985 
-0.00115661 0.00688532 0.999976 
-0.00127526 0.00894877 0.999959 
-0.00157637 0.011872 0.999928 
-0.00196902 0.0160506 0.999869 
-0.00271465 0.0217582 0.99976 
-0.0036765 0.0294737 0.999559 
-0.00483079 0.0397125 0.999199 
-0.00558974 0.0538897 0.998531 
-0.00486779 0.073092 0.997313 
-0.00221549 0.0990347 0.995081 
0.00277934 0.131465 0.991317 
0.0177396 0.157646 0.987336 
0.0203152 0.204895 0.978573 
0.0411339 0.245081 0.96863 
0.0556847 0.314165 0.947734 
0.0415603 0.415023 0.908861 
0.0768149 0.675168 0.733653 
0.148143 0.749229 0.645531 
0.0511317 0.941552 0.332964 
0.00449432 0.998484 -0.054842 
-0.0644834 0.874151 -0.481355 
-0.0689395 0.74928 -0.658655 
-0.116862 0.567834 -0.814805 
-0.0663583 0.439461 -0.895807 
-0.0599454 0.350173 -0.934765 
-0.0501653 0.266845 -0.962433 
-0.0251702 0.218233 -0.975572 
-0.0127415 0.170163 -0.985334 
-0.0042172 0.126828 -0.991916 
0.00480421 0.0969246 -0.99528 
0.00549159 0.0712807 -0.997441 
0.00457789 0.050197 -0.998729 
0.00393814 0.03712 -0.999303 
0.00302493 0.0276063 -0.999614 
0.0020702 0.0206346 -0.999785 
0.00173888 0.0152735 -0.999882 
0.0015113 0.0111946 -0.999936 
0.00142775 0.00830209 -0.999965 
0.00126505 0.00639106 -0.999979 
0.00104474 0.00482391 -0.999988 
0.000861841 0.00374688 -0.999993 
0.000673554 0.00285419 -0.999996 
0.000506293 0.00218873 -0.999998 
0.000362831 0.00164683 -0.999999 
0.000243522 0.00126211 -0.999999 
0.000134424 0.000956703 -1 
4.86302e-05 0.000733542 -1 
-1.01279e-05 0.000552764 -1 
-3.33416e-05 0.000355144 -1 
-8.39416e-06 0.000174605 -1 
6.04373e-05 1.01708e-05 -1 
0.000175018 -0.000152569 -1 
0.000277795 -0.000231293 -1 
0.000370946 -0.000278756 -1 
0.000407419 -0.000320952 -1 
0.000451808 -0.000337978 -1 
0.000486679 -0.000401172 -1 
0.00166279 -0.0015635 -0.999998 
0.0558793 -0.0523938 -0.99706 
-0.0831053 -0.0956542 0.991945 
-0.00566523 -0.00616739 0.999965 
-0.000431508 -0.000370614 1 
-0.000402684 -0.000344164 1 
-0.000325301 -0.000353193 1 
-0.000312226 -0.000306768 1 
-0.000240244 -0.000325969 1 
-0.000158163 -0.000225502 1 
-4.30213e-05 -0.000120051 1 
4.74069e-05 7.27595e-05 1 
0.000100157 0.000259858 1 
0.000101273 0.000452968 1 
3.9868e-05 0.000685723 1 
-4.67772e-05 0.000929237 1 
-0.000140091 0.00125723 0.999999 
-0.000227817 0.00164201 0.999999 
-0.000318902 0.00221344 0.999998 
-0.000420973 0.00289059 0.999996 
-0.000515703 0.00377408 0.999993 
-0.000570344 0.00479548 0.999988 
-0.000588223 0.00614137 0.999981 
-0.000567916 0.00784624 0.999969 
-0.000537502 0.0103862 0.999946 
-0.000488326 0.0138888 0.999903 
-0.000425146 0.0189551 0.99982 
-0.00038562 0.0256357 0.999671 
-0.000114723 0.0343131 0.999411 
0.000690666 0.0455016 0.998964 
0.00317133 0.0604217 0.998168 
0.00806792 0.0802908 0.996739 
0.0167258 0.104121 0.994424 
0.033571 0.124899 0.991601 
0.0484642 0.162119 0.985581 
0.0744244 0.194484 0.978078 
0.0937033 0.25292 0.962939 
0.0920443 0.391773 0.915446 
0.109681 0.534541 0.837995 
0.172408 0.615006 0.769443 
0.0917439 0.845682 0.525742 
0.0300059 0.989187 0.14356 
-0.0274544 0.961261 -0.274267 
-0.136526 0.738104 -0.660728 
-0.146014 0.45244 -0.87976 
-0.132029 0.350612 -0.927167 
-0.102914 0.273779 -0.956271 
-0.0858377 0.204884 -0.975015 
-0.0553501 0.185713 -0.981044 
-0.0387954 0.148579 -0.988139 
-0.0226482 0.121018 -0.992392 
-0.00909202 0.0917819 -0.995738 
-0.00445608 0.0699152 -0.997543 
-0.00176116 0.0523261 -0.998629 
-0.00116233 0.0378736 -0.999282 
-0.000420475 0.02886 -0.999583 
-0.000262546 0.0218338 -0.999762 
0.000208251 0.0162037 -0.999869 
0.000532309 0.0120014 -0.999928 
0.000742383 0.00889107 -0.99996 
0.00073386 0.00681045 -0.999977 
0.000709879 0.00531581 -0.999986 
0.000568395 0.00408867 -0.999992 
0.000486173 0.00317957 -0.999995 
0.000367975 0.00243866 -0.999997 
0.000274549 0.00185103 -0.999998 
0.00016916 0.00140502 -0.999999 
8.10009e-05 0.00106535 -0.999999 
-1.1236e-05 0.000789656 -1 
-7.63076e-05 0.00056665 -1 
-9.33453e-05 0.000363958 -1 
-7.55609e-05 0.000139516 -1 
-4.80258e-06 -4.61138e-05 -1 
0.000100073 -0.000178992 -1 
0.000214613 -0.000291139 -1 
0.00031016 -0.000320494 -1 
0.000362837 -0.000343762 -1 
0.000414474 -0.000351619 -1 
0.000511014 -0.000468429 -1 
0.00347235 -0.00338442 -0.999988 
0.0748095 -0.0743923 -0.994417 
-0.0478879 -0.0725366 0.99622 
-0.00253983 -0.00356639 0.99999 
-0.000596522 -0.000592302 1 
-0.000368279 -0.000367566 1 
-0.00034859 -0.000352951 1 
-0.000263494 -0.000378966 1 
-0.000166292 -0.000350441 1 
-8.20215e-05 -0.000272299 1 
3.39584e-05 -0.000113518 1 
0.000110368 6.10952e-05 1 
0.000150067 0.000259439 1 
0.000131647 0.000513505 1 
7.11801e-05 0.000773234 1 
-1.18689e-05 0.00107391 0.999999 
-7.48316e-05 0.00145192 0.999999 
-0.000141055 0.00190947 0.999998 
-0.000175779 0.00251768 0.999997 
-0.000222615 0.00323724 0.999995 
-0.0002259 0.00407747 0.999992 
-0.000219707 0.00511526 0.999987 
-0.000137972 0.0063791 0.99998 
-1.5778e-05 0.00813465 0.999967 
0.000258193 0.0104914 0.999945 
0.000659397 0.0139549 0.999902 
0.00131882 0.0187352 0.999824 
0.00217081 0.0249932 0.999685 
0.00356648 0.0326082 0.999462 
0.00583326 0.0420663 0.999098 
0.00995429 0.0540237 0.99849 
0.0169438 0.0689628 0.997475 
0.0278543 0.0861037 0.995897 
0.0462408 0.099916 0.993921 
0.0675606 0.127448 0.989542 
0.0988442 0.146604 0.984244 
0.129459 0.195594 0.972103 
0.128994 0.309771 0.942021 
0.152204 0.440822 0.884596 
0.246004 0.54414 0.802118 
0.110005 0.908859 0.402335 
-0.00402101 0.997768 -0.0666444 
-0.0881992 0.918861 -0.384598 
-0.213098 0.615466 -0.758809 
-0.209824 0.327345 -0.921314 
-0.164127 0.25033 -0.954147 
-0.129579 0.187987 -0.973586 
-0.0994324 0.139858 -0.985167 
-0.0705994 0.135247 -0.988294 
-0.0493962 0.111605 -0.992524 
-0.0272785 0.0946879 -0.995133 
-0.0172628 0.0734327 -0.997151 
-0.0106514 0.0566227 -0.998339 
-0.00641984 0.0430157 -0.999054 
-0.00467155 0.0318488 -0.999482 
-0.0031153 0.0249011 -0.999685 
-0.00178193 0.0188417 -0.999821 
-0.000760139 0.0141078 -0.9999 
-7.69906e-05 0.0104401 -0.999946 
0.000207465 0.00796385 -0.999968 
0.000299231 0.00619106 -0.999981 
0.000329751 0.00489842 -0.999988 
0.000262092 0.00380209 -0.999993 
0.000236463 0.00297914 -0.999996 
0.000182952 0.00228059 -0.999997 
0.000128219 0.00174881 -0.999999 
5.26925e-05 0.00131407 -0.999999 
-2.11562e-05 0.000972737 -1 
-9.82146e-05 0.000687523 -1 
-0.000140981 0.000433765 -1 
-0.000136038 0.000217782 -1 
-8.58772e-05 -1.8442e-05 -1 
6.07453e-06 -0.000191753 -1 
0.000113067 -0.000296872 -1 
0.000200148 -0.000370253 -1 
0.00027807 -0.000367003 -1 
0.00032222 -0.000360662 -1 
0.000368685 -0.000354981 -1 
0.00042999 -0.000451002 -1 
0.00307038 -0.00349638 -0.999989 
0.0533729 -0.0679837 -0.996256 
-0.0300804 -0.0662785 0.997351 
-0.00136503 -0.00287685 0.999995 
-0.000410058 -0.000486248 1 
-0.000291508 -0.000344657 1 
-0.000290322 -0.000364821 1 
-0.000239026 -0.000400548 1 
-0.000189937 -0.000411984 1 
-0.000100577 -0.000388202 1 
-1.38803e-05 -0.000277118 1 
7.8978e-05 -0.000138875 1 
0.00014351 4.48708e-05 1 
0.000170957 0.000308612 1 
0.000146931 0.000586674 1 
8.93357e-05 0.000902522 1 
3.01648e-05 0.00125542 0.999999 
-1.13998e-05 0.00172827 0.999999 
-3.09648e-05 0.00224671 0.999998 
-2.5052e-05 0.0029236 0.999996 
-4.15168e-06 0.00366326 0.999993 
2.85444e-05 0.00456392 0.99999 
0.000110031 0.00562116 0.999984 
0.000266576 0.007052 0.999975 
0.000594462 0.00890556 0.99996 
0.00117001 0.0116305 0.999932 
0.00207393 0.0154542 0.999878 
0.00342404 0.020716 0.99978 
0.00529418 0.0270902 0.999619 
0.00815083 0.0347301 0.999364 
0.0127335 0.0437339 0.998962 
0.0202341 0.0545527 0.998306 
0.0320672 0.0655857 0.997332 
0.0499692 0.0756776 0.995879 
0.0776274 0.0920813 0.992721 
0.115789 0.0999738 0.98823 
0.159833 0.137795 0.977479 
0.179552 0.256457 0.949732 
0.204175 0.394577 0.895892 
0.191176 0.673258 0.714266 
0.19134 0.806696 0.559134 
0.0642908 0.981229 0.181804 
-0.183751 0.840817 -0.509177 
-0.2359 0.453012 -0.859727 
-0.299734 0.289559 -0.909019 
-0.181072 0.152526 -0.97157 
-0.137271 0.113061 -0.98406 
-0.100834 0.0884151 -0.990967 
-0.0732882 0.0901576 -0.993227 
-0.0519552 0.0767448 -0.995696 
-0.0373095 0.0785343 -0.996213 
-0.0259081 0.0627088 -0.997696 
-0.0173555 0.0504976 -0.998573 
-0.0115184 0.0406633 -0.999107 
-0.00809181 0.0314362 -0.999473 
-0.00554411 0.0238851 -0.999699 
-0.00340993 0.0188636 -0.999816 
-0.00179057 0.0140995 -0.999899 
-0.000755106 0.0106764 -0.999943 
-0.000249727 0.00813363 -0.999967 
-3.81252e-05 0.00640391 -0.99998 
3.77232e-05 0.00507168 -0.999987 
5.37151e-05 0.00407373 -0.999992 
5.25658e-05 0.00316064 -0.999995 
5.86064e-05 0.00248011 -0.999997 
3.5861e-05 0.00189445 -0.999998 
-4.27605e-06 0.00143415 -0.999999 
-6.58648e-05 0.00103225 -1 
-0.000127602 0.000709982 -1 
-0.000164885 0.00041297 -1 
-0.000156842 0.000147548 -1 
-0.000107632 -6.77353e-05 -1 
-1.28493e-05 -0.000258294 -1 
9.01772e-05 -0.000362612 -1 
0.00018462 -0.000415191 -1 
0.000256525 -0.000393424 -1 
0.000276162 -0.000360225 -1 
0.000312148 -0.000349189 -1 
0.000324127 -0.000410116 -1 
0.00162363 -0.00245752 -0.999996 
0.0412221 -0.0713678 -0.996596 
-0.0109849 -0.0630055 0.997956 
-0.000498061 -0.00287791 0.999996 
-0.000288064 -0.000409598 1 
-0.000218605 -0.000316611 1 
-0.000243957 -0.000352117 1 
-0.000208728 -0.000405914 1 
-0.000171345 -0.00044741 1 
-9.66601e-05 -0.000445817 1 
-5.18975e-06 -0.000342038 1 
7.24773e-05 -0.00022023 1 
0.000147033 1.19736e-05 1 
0.000174938 0.000279121 1 
0.000163113 0.00059269 1 
0.000125465 0.000944813 1 
7.85291e-05 0.00137848 0.999999 
6.71475e-05 0.00185589 0.999998 
6.90906e-05 0.00241059 0.999997 
0.000102168 0.00303036 0.999995 
0.000139804 0.00376677 0.999993 
0.00019524 0.00460838 0.999989 
0.00030437 0.00566864 0.999984 
0.000522285 0.00692697 0.999976 
0.000951037 0.00863145 0.999962 
0.00169569 0.0110098 0.999938 
0.00288365 0.0144508 0.999891 
0.0045926 0.0188822 0.999811 
0.00690388 0.0243306 0.99968 
0.0101274 0.0301987 0.999493 
0.0150391 0.0369482 0.999204 
0.0225358 0.0439165 0.998781 
0.0334117 0.0489232 0.998244 
0.0515599 0.0557617 0.997112 
0.0757128 0.0591772 0.995372 
0.103051 0.0496002 0.993439 
0.151389 0.06052 0.98662 
0.218636 0.145358 0.964919 
0.258402 0.283249 0.923579 
0.354866 0.427002 0.831709 
0.26069 0.704558 0.660032 
-0.0140121 0.997461 -0.0698406 
-0.302476 0.698723 -0.648302 
-0.365565 0.426261 -0.827444 
-0.23598 0.202861 -0.950348 
-0.225838 0.0906439 -0.969939 
-0.160302 0.0625102 -0.985087 
-0.11024 0.0492872 -0.992682 
-0.075133 0.0555483 -0.995625 
-0.0541688 0.054281 -0.997055 
-0.0355731 0.0532558 -0.997947 
-0.0242994 0.0449204 -0.998695 
-0.0167664 0.0373421 -0.999162 
-0.0119186 0.0309022 -0.999451 
-0.00831379 0.0245793 -0.999663 
-0.00537553 0.0190217 -0.999805 
-0.00315989 0.0151441 -0.99988 
-0.00163345 0.0114377 -0.999933 
-0.000775652 0.00893147 -0.99996 
-0.00036705 0.00702496 -0.999975 
-0.000189166 0.0056603 -0.999984 
-0.000129663 0.00460032 -0.999989 
-8.40088e-05 0.00370714 -0.999993 
-6.41754e-05 0.00292747 -0.999996 
-3.98044e-05 0.00230191 -0.999997 
-4.82195e-05 0.00176458 -0.999999 
-7.73941e-05 0.00129146 -0.999999 
-0.00012577 0.000892371 -1 
-0.000164643 0.000533504 -1 
-0.000170348 0.000226128 -1 
-0.000132592 -4.05672e-05 -1 
-6.40105e-05 -0.000240341 -1 
2.46996e-05 -0.000388652 -1 
0.000100058 -0.000435557 -1 
0.00016218 -0.000458611 -1 
0.00021442 -0.000416567 -1 
0.000228008 -0.00035958 -1 
0.000239382 -0.000327986 -1 
0.000230882 -0.000429768 -1 
0.00139138 -0.00369645 -0.999992 
0.0178149 -0.0753523 -0.996996 
0.0100777 -0.0527122 0.998562 
0.000397676 -0.00212451 0.999998 
-0.000174396 -0.00038675 1 
-0.00015056 -0.000272501 1 
-0.000192306 -0.000334221 1 
-0.00017443 -0.000406451 1 
-0.000158939 -0.000471516 1 
-0.000109685 -0.000500647 1 
-3.5836e-05 -0.000436709 1 
3.92589e-05 -0.000323367 1 
0.000116931 -0.000103544 1 
0.000157855 0.000155601 1 
0.000170522 0.000488335 1 
0.000156783 0.000870642 1 
0.000129134 0.00131108 0.999999 
0.000120328 0.00178919 0.999998 
0.000124089 0.0023439 0.999997 
0.000150103 0.00296739 0.999996 