# vtk DataFile Version 3.0 
Exported using Morpho https://github.com/Morpho-lang/morpho 
ASCII 
DATASET UNSTRUCTURED_GRID 

POINTS 1978 float 
-8.48528 -2.82843 -5.42779e-16 
-8.26891 -2.82843 -1.90697e-17 
-8.04698 -2.82843 1.90359e-18 
-7.76497 -2.82843 1.38592e-18 
-7.49825 -2.82843 -5.78557e-18 
-7.25074 -2.82843 -1.14733e-18 
-7.00825 -2.82843 -1.48584e-18 
-6.78681 -2.82843 -2.94279e-18 
-6.56182 -2.82843 -1.61357e-18 
-6.34796 -2.82843 -1.48562e-18 
-6.13406 -2.82843 -3.22775e-18 
-5.92841 -2.82843 -2.07774e-18 
-5.70913 -2.82843 -2.30737e-18 
-5.504 -2.82843 -1.77167e-18 
-5.2877 -2.82843 -1.97129e-18 
-5.07746 -2.82843 -2.8514e-18 
-4.8581 -2.82843 -3.21672e-18 
-4.6568 -2.82843 -3.10486e-18 
-4.43036 -2.82843 -4.74251e-18 
-4.22187 -2.82843 -5.30112e-18 
-3.99843 -2.82843 -6.80551e-18 
-3.79766 -2.82843 -9.11057e-18 
-3.58951 -2.82843 -1.47914e-17 
-3.38248 -2.82843 -2.26223e-17 
-3.17319 -2.82843 -3.11766e-17 
-2.9626 -2.82843 -3.7803e-17 
-2.75022 -2.82843 -3.94175e-17 
-2.53137 -2.82843 -4.35749e-17 
-2.30316 -2.82843 -1.09416e-16 
-2.06452 -2.82843 -2.10448e-16 
-1.82236 -2.82843 -9.18994e-17 
-1.59735 -2.82843 1.83993e-16 
-1.31914 -2.82843 1.09709e-15 
-1.11769 -2.82843 3.33036e-15 
-0.937913 -2.82843 7.37641e-15 
-0.757188 -2.82843 3.53213e-14 
-0.60581 -2.82843 6.11462e-14 
-0.53577 -2.82843 1.16634e-12 
-0.195914 -2.82843 2.83574e-12 
0.107685 -2.82843 -2.87498e-12 
0.277746 -2.82843 -1.3089e-12 
0.532593 -2.82843 -6.5796e-14 
0.59813 -2.82843 -7.56812e-14 
0.732413 -2.82843 -6.22884e-14 
0.942171 -2.82843 -1.84766e-14 
1.14288 -2.82843 -4.11907e-15 
1.36335 -2.82843 -1.01979e-15 
1.59413 -2.82843 -6.91256e-16 
1.85544 -2.82843 -9.71764e-17 
2.108 -2.82843 2.33677e-16 
2.30867 -2.82843 1.2386e-16 
2.52674 -2.82843 5.55726e-17 
2.74296 -2.82843 3.7055e-17 
2.96734 -2.82843 3.06483e-17 
3.19427 -2.82843 2.91366e-17 
3.40184 -2.82843 2.22114e-17 
3.61363 -2.82843 1.50364e-17 
3.80956 -2.82843 1.00106e-17 
4.0225 -2.82843 7.28694e-18 
4.2453 -2.82843 4.42536e-18 
4.44295 -2.82843 5.08082e-18 
4.65994 -2.82843 3.48247e-18 
4.86861 -2.82843 2.79317e-18 
5.07115 -2.82843 2.36167e-18 
5.2923 -2.82843 1.58123e-18 
5.50165 -2.82843 1.61005e-18 
5.70324 -2.82843 1.47411e-18 
5.92327 -2.82843 1.89153e-18 
6.14073 -2.82843 1.76373e-18 
6.33705 -2.82843 1.87809e-18 
6.58612 -2.82843 1.53366e-18 
6.78994 -2.82843 2.97647e-18 
6.99355 -2.82843 2.97098e-18 
7.25815 -2.82843 8.76732e-19 
7.48814 -2.82843 1.94906e-18 
7.73152 -2.82843 -9.55998e-20 
8.01114 -2.82843 -8.84026e-19 
8.19214 -2.82843 5.35915e-17 
8.48528 -2.82843 1.8968e-15 
-8.48528 -2.60157 4.95335e-15 
-8.2555 -2.58515 -4.10914e-18 
-8.04071 -2.57107 -4.18725e-20 
-7.81908 -2.63723 3.66348e-21 
-7.54364 -2.62721 -3.57735e-21 
-7.25584 -2.61545 -1.12929e-20 
-7.01449 -2.59179 -2.10111e-20 
-6.7925 -2.59581 -3.06744e-20 
-6.55706 -2.59427 -3.7177e-20 
-6.33178 -2.59431 -4.06053e-20 
-6.11469 -2.58673 -3.99937e-20 
-5.89337 -2.5984 -3.51141e-20 
-5.68087 -2.57949 -2.63482e-20 
-5.46463 -2.59445 -2.06322e-20 
-5.24808 -2.58897 -1.18408e-20 
-5.02767 -2.59995 2.20971e-22 
-4.81979 -2.57863 3.44512e-20 
-4.59647 -2.6072 7.41786e-20 
-4.37868 -2.5893 1.23517e-19 
-4.15616 -2.60594 1.00508e-19 
-3.94537 -2.58197 1.22264e-20 
-3.73418 -2.59223 -1.33691e-19 
-3.51901 -2.59064 -2.52802e-19 
-3.30207 -2.59219 -4.27209e-19 
-3.08194 -2.5908 -7.28934e-19 
-2.85842 -2.58746 -8.52196e-20 
-2.62972 -2.58658 6.4957e-18 
-2.39302 -2.58721 2.69662e-17 
-2.14785 -2.58914 8.58295e-17 
-1.89891 -2.59064 2.40706e-16 
-1.65598 -2.58697 6.51204e-16 
-1.42576 -2.6567 2.49554e-15 
-1.18726 -2.63381 8.43211e-15 
-0.989171 -2.6763 2.3619e-14 
-0.819362 -2.71046 4.65328e-14 
-0.671112 -2.7426 1.28799e-13 
-0.586126 -2.67202 -2.66917e-13 
-0.541331 -2.75543 2.68361e-13 
-0.168269 -2.78971 -3.60793e-13 
0.0784878 -2.80083 -1.01028e-12 
0.226109 -2.774 3.52583e-13 
0.472262 -2.80251 -4.07641e-13 
0.525117 -2.68593 -1.18287e-13 
0.644733 -2.72852 -6.25265e-14 
0.847867 -2.7263 -2.54975e-14 
1.07205 -2.66288 -1.15471e-14 
1.2804 -2.63566 -4.42549e-15 
1.51098 -2.60972 -1.43122e-15 
1.76407 -2.61729 -4.19394e-16 
2.03005 -2.60469 -1.34805e-16 
2.27799 -2.56162 -5.20931e-17 
2.50668 -2.5949 -1.64343e-17 
2.75083 -2.58802 -2.67304e-18 
2.99337 -2.60116 1.06122e-18 
3.21779 -2.58695 4.65992e-19 
3.44227 -2.59678 2.34459e-19 
3.64905 -2.57887 1.91869e-19 
3.86482 -2.59734 8.36331e-20 
4.09158 -2.60571 -5.90263e-20 
4.2995 -2.57474 -1.21444e-19 
4.51551 -2.59868 -9.49911e-20 
4.73176 -2.58947 -5.32578e-20 
4.94316 -2.58401 -1.65173e-20 
5.15986 -2.6044 8.36507e-21 
5.38012 -2.59182 1.72743e-20 
5.58888 -2.58086 2.53809e-20 
5.80498 -2.60085 3.34712e-20 
6.02903 -2.59616 3.91193e-20 
6.24078 -2.56856 3.97974e-20 
6.46121 -2.62178 3.71905e-20 
6.68803 -2.57074 3.20466e-20 
6.89591 -2.56671 2.46159e-20 
7.12573 -2.62589 1.57209e-20 
7.37706 -2.5942 8.65059e-21 
7.61454 -2.60782 2.09646e-21 
7.87321 -2.63665 -4.97692e-21 
8.07847 -2.53026 2.37257e-19 
8.29757 -2.64081 -4.09483e-15 
8.48528 -2.53571 -1.88564e-15 
-8.48528 -2.36796 -3.60028e-15 
-8.258 -2.33777 -2.41866e-16 
-8.00316 -2.35208 4.89956e-20 
-7.7533 -2.42313 -6.02737e-22 
-7.57497 -2.25204 1.54252e-22 
-7.44886 -2.44268 -4.91526e-21 
-7.18007 -2.39448 -7.55659e-21 
-6.93992 -2.34131 -7.23235e-21 
-6.70551 -2.37895 -1.0036e-20 
-6.46803 -2.36636 -9.46904e-21 
-6.24273 -2.35707 -7.79975e-21 
-6.0161 -2.36058 -4.47371e-21 
-5.80298 -2.35354 -2.0024e-21 
-5.57343 -2.35031 2.51769e-21 
-5.35961 -2.36044 5.49937e-21 
-5.13281 -2.36534 1.23959e-20 
-4.92543 -2.34733 3.19472e-20 
-4.69631 -2.36843 5.87595e-20 
-4.48535 -2.36717 9.77572e-20 
-4.25785 -2.37111 9.61207e-20 
-4.05245 -2.35605 5.27845e-20 
-3.8344 -2.34978 -2.4021e-20 
-3.62423 -2.35927 -7.62421e-20 
-3.40527 -2.35903 -1.02695e-19 
-3.18556 -2.35966 -1.05208e-19 
-2.96093 -2.35639 1.06709e-19 
-2.72951 -2.35311 1.65734e-18 
-2.49049 -2.35357 8.26615e-18 
-2.24201 -2.35615 2.6393e-17 
-1.98673 -2.35696 7.4476e-17 
-1.73286 -2.35778 2.57929e-16 
-1.47282 -2.41584 7.65689e-16 
-1.26959 -2.45492 1.49127e-15 
-1.0272 -2.5045 3.04772e-15 
-0.849567 -2.55512 4.66805e-15 
-0.706096 -2.61877 1.35841e-14 
-0.548528 -2.58225 5.26579e-14 
-0.430541 -2.77665 1.0844e-12 
-0.134505 -2.75568 -6.3851e-13 
0.00845927 -2.84131 1.91178e-12 
0.176948 -2.80489 8.80325e-13 
0.385121 -2.78166 -1.37817e-13 
0.590155 -2.60656 -6.65782e-14 
0.734432 -2.64258 -3.76885e-14 
0.909559 -2.583 -5.17327e-15 
1.03032 -2.46332 -4.13518e-15 
1.21965 -2.45134 -7.79275e-16 
1.43836 -2.40748 -5.07309e-16 
1.68838 -2.40328 -2.45505e-16 
1.94158 -2.3911 -9.89242e-17 
2.1887 -2.34645 -3.06194e-17 
2.45777 -2.35072 -7.88739e-18 
2.68802 -2.36422 -2.04264e-18 
2.92965 -2.37088 -1.36244e-19 
3.15069 -2.35421 1.26734e-19 
3.37287 -2.3643 1.25425e-19 
3.5802 -2.33919 7.02375e-20 
3.79162 -2.35754 4.47372e-20 
4.00559 -2.37975 -2.4485e-20 
4.21212 -2.34341 -7.56834e-20 
4.43432 -2.3555 -9.12109e-20 
4.64128 -2.35849 -6.61936e-20 
4.85564 -2.34942 -3.79704e-20 
5.07413 -2.36284 -1.74877e-20 
5.2841 -2.37108 -7.56963e-21 
5.5003 -2.34455 -4.43696e-21 
5.71989 -2.36002 1.49306e-21 
5.93508 -2.37158 5.17917e-21 
6.15102 -2.34002 5.39212e-21 
6.38949 -2.36892 1.0517e-20 
6.59366 -2.36178 8.13004e-21 
6.82723 -2.31294 5.42029e-21 
7.05701 -2.37439 6.88206e-21 
7.27951 -2.39378 5.40627e-21 
7.54441 -2.37595 2.03031e-21 
7.78934 -2.41807 -5.66856e-22 
8.00607 -2.3132 1.58036e-19 
8.27085 -2.37262 5.42528e-15 
8.48528 -2.27613 -1.76987e-15 
-8.48528 -2.12049 -4.71215e-15 
-8.25849 -2.08548 -2.77933e-17 
-8.04756 -2.11617 -1.63199e-19 
-7.80326 -2.17249 -1.01455e-21 
-7.51508 -2.03283 1.06627e-21 
-7.32281 -2.21814 9.01038e-22 
-7.07954 -2.14808 2.70686e-21 
-6.79929 -2.13629 4.01966e-21 
-6.58147 -2.15252 4.81509e-21 
-6.34873 -2.13218 5.88294e-21 
-6.1221 -2.12915 6.68764e-21 
-5.90923 -2.11548 6.60934e-21 
-5.68952 -2.13126 6.66461e-21 
-5.4639 -2.11583 7.58878e-21 
-5.2499 -2.14034 9.51199e-21 
-5.04141 -2.11258 1.68706e-20 
-4.81805 -2.13739 3.03363e-20 
-4.60648 -2.12997 4.21237e-20 
-4.39037 -2.14773 3.61881e-20 
-4.18604 -2.12103 1.23062e-20 
-3.97571 -2.12449 -3.19746e-21 
-3.76382 -2.11434 1.07622e-20 
-3.554 -2.12946 5.48405e-20 
-3.33963 -2.12585 1.56504e-19 
-3.12444 -2.12606 3.65053e-19 
-2.90287 -2.1238 6.04535e-19 
-2.67277 -2.12212 6.42636e-19 
-2.43312 -2.12488 1.28585e-19 
-2.18617 -2.12788 -2.57019e-18 
-1.93617 -2.12758 -6.69788e-18 
-1.67807 -2.15313 -8.44984e-17 
-1.45162 -2.17722 2.95376e-17 
-1.25699 -2.2156 2.26826e-16 
-1.09368 -2.32844 -3.10698e-16 
-0.900787 -2.37048 -5.53758e-15 
-0.735148 -2.4633 -1.24739e-14 
-0.598278 -2.49934 -9.89069e-15 
-0.464632 -2.70553 1.66398e-13 
-0.241735 -2.73716 2.77727e-12 
-0.0039767 -2.78988 -3.38553e-13 
0.20536 -2.708 2.07895e-13 
0.439778 -2.71267 -1.07473e-13 
0.6408 -2.50674 1.77147e-13 
0.780494 -2.49113 8.80738e-15 
0.870214 -2.35825 3.85918e-15 
1.07068 -2.26442 -4.44483e-17 
1.26221 -2.22455 -2.58301e-16 
1.5078 -2.19746 -9.88448e-17 
1.75365 -2.18515 -5.57381e-17 
1.99713 -2.15111 -7.63719e-18 
2.27399 -2.14079 -4.85649e-20 
2.5117 -2.11552 -7.53126e-20 
2.74986 -2.14326 -6.79974e-19 
2.97211 -2.12784 -5.01704e-19 
3.20079 -2.12729 -2.88978e-19 
3.40834 -2.11894 -1.21317e-19 
3.62735 -2.1087 -4.75888e-20 
3.84319 -2.13225 -3.64167e-21 
4.04402 -2.13145 3.47036e-21 
4.27458 -2.12307 -2.1122e-20 
4.48243 -2.11362 -3.97962e-20 
4.69503 -2.12386 -3.51922e-20 
4.91615 -2.12475 -2.26935e-20 
5.12886 -2.12703 -1.32491e-20 
5.33729 -2.1343 -9.04165e-21 
5.56583 -2.12124 -7.31461e-21 
5.78164 -2.12921 -6.87804e-21 
5.9921 -2.12949 -6.71319e-21 
6.23993 -2.13612 -6.1618e-21 
6.44611 -2.1105 -5.44242e-21 
6.66125 -2.1225 -4.63307e-21 
6.92737 -2.10732 -3.61406e-21 
7.14597 -2.14118 -2.28261e-21 
7.38194 -2.18375 -1.07675e-21 
7.57933 -2.08588 -4.5835e-22 
7.75343 -2.18902 6.79274e-22 
7.96184 -2.07794 -2.41137e-20 
8.20393 -2.15102 3.56757e-16 
8.48528 -2.08792 5.65238e-17 
-8.48528 -1.82296 2.30694e-15 
-8.30256 -1.83951 -6.4773e-16 
-7.89817 -1.91753 -4.40648e-22 
[...]
POINT_DATA 1978 
VECTORS vectors float
0.000301873 0.0276935 0.999616 
-0.000128146 0.00222196 0.999998 
5.39005e-05 0.000894371 1 
-3.69819e-05 0.000128566 1 
-7.40015e-06 -0.000535268 1 
-1.34397e-05 -0.00121774 0.999999 
2.91257e-06 -0.00190556 0.999998 
-8.55431e-08 -0.00263801 0.999997 
8.72837e-07 -0.00334754 0.999994 
1.0828e-06 -0.00403268 0.999992 
1.06344e-06 -0.00470724 0.999989 
9.84525e-07 -0.00531465 0.999986 
7.74087e-07 -0.00589458 0.999983 
4.62508e-07 -0.00638911 0.99998 
1.28068e-07 -0.00688799 0.999976 
-2.83801e-07 -0.00734826 0.999973 
-6.3514e-07 -0.00783345 0.999969 
-1.12079e-06 -0.00830019 0.999966 
-1.49184e-06 -0.00884768 0.999961 
-1.77977e-06 -0.00931346 0.999957 
-1.73139e-06 -0.00963144 0.999954 
-1.48241e-06 -0.00961286 0.999954 
-1.29887e-06 -0.00909483 0.999959 
-1.3317e-06 -0.00811193 0.999967 
-1.64006e-06 -0.00675882 0.999977 
-1.95615e-06 -0.00457996 0.99999 
-2.19323e-06 -0.000256193 1 
1.85528e-06 0.0072833 0.999973 
1.89888e-05 0.0182618 0.999833 
4.82173e-05 0.0331271 0.999451 
6.25786e-05 0.0532424 0.998582 
4.38115e-05 0.0791291 0.996864 
-2.93594e-05 0.129931 0.991523 
-9.24575e-06 0.187211 0.98232 
-9.78878e-05 0.257343 0.96632 
6.93964e-05 0.359852 0.93301 
-0.000174306 0.46841 0.883511 
0.000108589 0.518334 0.855179 
0.000242023 0.893183 0.449693 
0.000187816 0.976419 -0.215885 
0.00015922 0.806477 -0.591266 
3.18101e-05 0.499544 -0.866289 
0.000226453 0.44894 -0.893562 
-5.48545e-05 0.37038 -0.92888 
0.000138214 0.260026 -0.965602 
5.00423e-05 0.178245 -0.983986 
4.44124e-05 0.121443 -0.992598 
-5.01234e-05 0.0814369 -0.996678 
-7.53612e-05 0.0502874 -0.998735 
-4.14916e-05 0.0310663 -0.999517 
-6.53491e-06 0.0189436 -0.999821 
5.88295e-06 0.00782838 -0.999969 
6.54316e-06 -0.000688374 -1 
2.67255e-06 -0.00544696 -0.999985 
-6.27635e-07 -0.00728421 -0.999973 
-8.29996e-07 -0.00806567 -0.999967 
2.49955e-07 -0.00881665 -0.999961 
1.48483e-06 -0.00939991 -0.999956 
2.15669e-06 -0.00955441 -0.999954 
1.92603e-06 -0.00924717 -0.999957 
1.52585e-06 -0.00880349 -0.999961 
1.23401e-06 -0.00829431 -0.999966 
7.99603e-07 -0.00783616 -0.999969 
3.78532e-07 -0.00742692 -0.999972 
-6.41209e-08 -0.00695271 -0.999976 
-4.51111e-07 -0.00645553 -0.999979 
-7.53074e-07 -0.00592375 -0.999982 
-9.65484e-07 -0.00531541 -0.999986 
-9.6454e-07 -0.00466354 -0.999989 
-1.08626e-06 -0.00403454 -0.999992 
-9.62403e-07 -0.00323725 -0.999995 
3.53366e-07 -0.00257042 -0.999997 
-5.04779e-06 -0.00191397 -0.999998 
1.37172e-05 -0.00116274 -0.999999 
1.29432e-05 -0.000545003 -1 
3.56881e-05 5.91803e-05 -1 
-3.24521e-05 0.000767018 -1 
2.42629e-05 0.00130186 -0.999999 
-0.000124108 0.0377389 -0.999288 
0.0354013 0.105092 0.993832 
0.00188972 0.00577267 0.999982 
0.000700831 0.00102306 0.999999 
0.000542703 0.00026894 1 
0.000575374 -0.000434719 1 
0.000605988 -0.00119179 0.999999 
0.000707055 -0.0018534 0.999998 
0.000646074 -0.00251657 0.999997 
0.000625026 -0.00320819 0.999995 
0.00054983 -0.00387345 0.999992 
0.000444333 -0.00446513 0.99999 
0.000266656 -0.00505708 0.999987 
5.96446e-05 -0.00550999 0.999985 
-0.000188274 -0.0059791 0.999982 
-0.000525447 -0.00637552 0.99998 
-0.000904473 -0.00683956 0.999976 
-0.00141636 -0.00724276 0.999973 
-0.0016784 -0.00793187 0.999967 
-0.00204337 -0.00855045 0.999961 
-0.00192161 -0.00918815 0.999956 
-0.0018003 -0.00952535 0.999953 
-0.0013173 -0.00941 0.999955 
-0.000881716 -0.00864073 0.999962 
-0.000692498 -0.00710098 0.999975 
-0.000972948 -0.00458683 0.999989 
-0.00173101 -0.000483746 0.999998 
-0.00258058 0.00605124 0.999978 
-0.00308379 0.0157115 0.999872 
-0.00305276 0.0290698 0.999573 
-0.0026871 0.0473414 0.998875 
-0.00213818 0.0721735 0.99739 
-0.00372335 0.107753 0.994171 
-0.00266734 0.164766 0.986329 
-0.00257131 0.236584 0.971608 
-0.00182119 0.319294 0.947654 
0.00664482 0.418637 0.908129 
0.0553295 0.465407 0.883366 
-0.00136675 0.561137 0.827722 
0.0178559 0.93412 0.356512 
-0.00253205 0.990777 -0.135478 
-0.0435863 0.876904 -0.478685 
0.00577078 0.562733 -0.826619 
-0.0513102 0.479097 -0.876261 
-0.0190964 0.398292 -0.91706 
-0.00358656 0.294743 -0.95557 
-0.00325468 0.201328 -0.979519 
0.000104506 0.139917 -0.990163 
0.00101636 0.0936243 -0.995607 
0.00192048 0.0607189 -0.998153 
0.00263438 0.0376413 -0.999288 
0.0034869 0.0221748 -0.999748 
0.00349047 0.0108325 -0.999935 
0.00247904 0.00177047 -0.999995 
0.00127645 -0.00376 -0.999992 
0.00065574 -0.00646105 -0.999979 
0.000641379 -0.00807955 -0.999967 
0.00106938 -0.00901673 -0.999959 
0.00150084 -0.00941933 -0.999955 
0.00181928 -0.00928084 -0.999955 
0.00211592 -0.00875233 -0.999959 
0.00183543 -0.00815059 -0.999965 
0.00155108 -0.00751731 -0.999971 
0.00115667 -0.00699928 -0.999975 
0.000656967 -0.0066382 -0.999978 
0.00030363 -0.00618099 -0.999981 
2.23674e-05 -0.00573284 -0.999984 
-0.000210998 -0.00527786 -0.999986 
-0.000388746 -0.00469748 -0.999989 
-0.000532539 -0.00407922 -0.999992 
-0.00055701 -0.00348684 -0.999994 
-0.000681573 -0.00277867 -0.999996 
-0.000708295 -0.00216829 -0.999997 
-0.000607816 -0.0015215 -0.999999 
-0.000667423 -0.000841919 -0.999999 
-0.000631282 -0.000239704 -1 
-0.000563722 0.000407706 -1 
-0.000765804 0.00120368 -0.999999 
-0.00272961 0.00789438 -0.999965 
-0.0492793 0.150505 -0.98738 
0.00287916 0.0936881 0.995597 
0.000459964 0.0052274 0.999986 
0.000600742 0.000726932 1 
0.000717135 4.87037e-05 1 
0.000562477 -0.000385142 1 
0.000761855 -0.000695394 0.999999 
0.000718526 -0.00136586 0.999999 
0.000619295 -0.00201766 0.999998 
0.000626278 -0.00264887 0.999996 
0.000520899 -0.00328516 0.999994 
0.000386078 -0.00385954 0.999992 
0.000204311 -0.00440208 0.99999 
-3.14367e-05 -0.00483496 0.999988 
-0.000345494 -0.0052353 0.999986 
-0.000695661 -0.00558875 0.999984 
-0.00117261 -0.00595723 0.999982 
-0.00171096 -0.0063223 0.999979 
-0.0022455 -0.00703019 0.999973 
-0.0026325 -0.00779824 0.999966 
-0.00273876 -0.00871332 0.999958 
-0.00249554 -0.00939571 0.999953 
-0.00187817 -0.00972498 0.999951 
-0.00109205 -0.00937671 0.999955 
-0.000305929 -0.00811399 0.999967 
0.000193305 -0.00573 0.999984 
0.00032905 -0.00191107 0.999998 
0.000340665 0.00384604 0.999993 
0.000715326 0.0121082 0.999926 
0.00200997 0.0234399 0.999723 
0.00471051 0.0384589 0.999249 
0.00917982 0.058933 0.99822 
0.0113015 0.0925783 0.995641 
0.0155638 0.130793 0.991288 
0.0261395 0.208361 0.977703 
0.0433813 0.295176 0.954458 
0.0428281 0.375602 0.925791 
0.103487 0.441344 0.891351 
0.0228313 0.609089 0.792773 
0.0507894 0.921064 0.386084 
-0.0124385 0.99967 -0.0224891 
-0.0234591 0.919811 -0.39166 
-0.0110386 0.662416 -0.749055 
-0.101856 0.413005 -0.905015 
-0.0425543 0.340358 -0.939333 
-0.030558 0.250392 -0.967662 
-0.0370319 0.189153 -0.981249 
-0.0228018 0.137271 -0.990271 
-0.0149123 0.0971984 -0.995153 
-0.00764211 0.0654725 -0.997825 
-0.00360995 0.0429652 -0.99907 
-0.00272149 0.0265841 -0.999643 
-8.51037e-05 0.0133694 -0.999911 
0.000381865 0.00492819 -0.999988 
7.63035e-05 -0.00142734 -0.999999 
-0.00025976 -0.00532702 -0.999986 
0.000122657 -0.00780051 -0.99997 
0.000765361 -0.00915607 -0.999958 
0.00160757 -0.00963125 -0.999952 
0.00227856 -0.00944656 -0.999953 
0.00265271 -0.00884982 -0.999957 
0.00265606 -0.00798492 -0.999965 
0.00236691 -0.00720419 -0.999971 
0.00190139 -0.00652246 -0.999977 
0.00133583 -0.00607754 -0.999981 
0.000839059 -0.00575366 -0.999983 
0.000460684 -0.00535671 -0.999986 
0.000104379 -0.005017 -0.999987 
-0.000159589 -0.00459693 -0.999989 
-0.000307147 -0.00405291 -0.999992 
-0.000498612 -0.00348024 -0.999994 
-0.000574867 -0.00293076 -0.999996 
-0.000566401 -0.00227831 -0.999997 
-0.000673797 -0.00167837 -0.999998 
-0.000704571 -0.00109257 -0.999999 
-0.000683902 -0.000425577 -1 
-0.000710792 0.000165668 -1 
-0.00057141 0.000752186 -1 
-0.00132368 0.00621373 -0.99998 
0.000960823 0.0770478 -0.997027 
-0.0102091 0.0866379 0.996188 
-9.66432e-05 0.0038976 0.999992 
0.000327257 0.000699264 1 
0.000449892 0.000110018 1 
0.000322583 -0.000511487 1 
0.000509909 -0.0009729 0.999999 
0.000406671 -0.00158588 0.999999 
0.00032747 -0.00230188 0.999997 
0.000290873 -0.00284726 0.999996 
0.000150653 -0.00339274 0.999994 
-8.63366e-06 -0.00387853 0.999992 
-0.000223214 -0.00426669 0.999991 
-0.000465791 -0.0046426 0.999989 
-0.000820027 -0.00490252 0.999988 
-0.0011871 -0.00521666 0.999986 
-0.00165831 -0.00549047 0.999984 
-0.00214825 -0.00612215 0.999979 
-0.00256173 -0.00690844 0.999973 
-0.00279093 -0.00794883 0.999965 
-0.00271995 -0.00891397 0.999957 
-0.00230494 -0.00970681 0.99995 
-0.00154446 -0.0100208 0.999949 
-0.000550284 -0.00955618 0.999954 
0.000586751 -0.00814056 0.999967 
0.00172689 -0.00553585 0.999983 
0.00294615 -0.00146166 0.999995 
0.00453479 0.00448472 0.99998 
0.00697211 0.0127388 0.999895 
0.010954 0.0234931 0.999664 
0.0172344 0.0371441 0.999161 
0.0257518 0.0562415 0.998085 
0.0360581 0.0806195 0.996093 
0.049119 0.110347 0.992679 
0.0510253 0.158233 0.986082 
0.0742609 0.220734 0.972503 
0.0965573 0.313312 0.944729 
0.128944 0.378135 0.916727 
0.0555682 0.568699 0.820667 
0.0584125 0.871773 0.486415 
0.00693797 0.993881 0.110239 
-0.0886722 0.906634 -0.412494 
-0.0577003 0.562842 -0.824548 
-0.129472 0.321027 -0.938178 
-0.0800188 0.282047 -0.956058 
-0.0900102 0.220472 -0.971231 
-0.0668962 0.145795 -0.987051 
-0.0485652 0.106706 -0.993104 
-0.0302523 0.0740171 -0.996798 
-0.0196882 0.051004 -0.998504 
-0.0135759 0.0340078 -0.999329 
-0.00826069 0.0195377 -0.999775 
-0.00561484 0.00988628 -0.999935 
-0.00332633 0.00245364 -0.999991 
-0.00235611 -0.00290524 -0.999993 
-0.00131042 -0.00665054 -0.999977 
-0.000300108 -0.00875127 -0.999962 
0.000792993 -0.00984954 -0.999951 
0.00173357 -0.0099564 -0.999949 
0.00236047 -0.00947873 -0.999952 
0.00271674 -0.00849361 -0.99996 
0.00269042 -0.00746504 -0.999969 
0.00240674 -0.00654258 -0.999976 
0.00195293 -0.00581561 -0.999981 
0.00147615 -0.00536736 -0.999985 
0.00103314 -0.00509301 -0.999986 
0.000647086 -0.00479029 -0.999988 
0.000337147 -0.00450375 -0.99999 
0.000107983 -0.00413695 -0.999991 
-9.8393e-05 -0.00363061 -0.999993 
-0.000188119 -0.00313885 -0.999995 
-0.000287547 -0.00262821 -0.999997 
-0.000327836 -0.00195897 -0.999998 
-0.000389507 -0.00141089 -0.999999 
-0.000449589 -0.000823553 -1 
-0.000344703 -0.000347188 -1 
-0.000451504 5.31302e-05 -1 
-0.000310986 0.000521452 -1 
-0.000240782 0.00261023 -0.999997 
0.00420316 0.055113 -0.998471 
0.0120141 0.0605184 0.998095 
0.000874239 0.00447661 0.99999 
0.000267161 0.000279962 1 
0.000264201 -0.000128352 1 
0.000216123 -0.000666195 1 
0.000275328 -0.00108187 0.999999 
0.00018026 -0.00136204 0.999999 
0.000215934 -0.00183435 0.999998 
0.000111768 -0.00240597 0.999997 
4.08816e-05 -0.0029163 0.999996 
-0.000111112 -0.00338171 0.999994 
-0.000298082 -0.0037465 0.999993 
-0.000524795 -0.0040835 0.999992 
-0.000796326 -0.0043561 0.99999 
-0.00116847 -0.00455692 0.999989 
-0.00153517 -0.00480857 0.999987 
-0.00199226 -0.00534092 0.999984 
-0.00237996 -0.00610544 0.999979 
-0.00266378 -0.00721981 0.99997 
-0.00271915 -0.00833465 0.999962 
-0.00250759 -0.00943043 0.999952 
-0.0019768 -0.0101289 0.999947 
-0.00105434 -0.0102263 0.999947 
0.000145067 -0.00949186 0.999955 
0.00167525 -0.00767326 0.999969 
0.00353511 -0.00454485 0.999983 
0.00599627 0.000248453 0.999982 
0.00948486 0.006986 0.999931 
0.0145437 0.0155787 0.999773 
0.0217797 0.0257528 0.999431 
0.031999 0.0388141 0.998734 
0.0457882 0.0564679 0.997354 
0.0662872 0.0738869 0.995061 
0.0879348 0.106331 0.990435 
0.0962006 0.151477 0.983768 
0.119208 0.231415 0.965524 
0.159434 0.319664 0.934021 
0.0998052 0.548017 0.830492 
0.030496 0.722799 0.690385 
-0.019953 0.99173 0.126784 
-0.0516827 0.69665 -0.715547 
-0.130465 0.5365 -0.833755 
-0.146453 0.262568 -0.953734 
-0.133623 0.183995 -0.973802 
-0.105981 0.140294 -0.984421 
-0.0877874 0.0977235 -0.991334 
-0.062989 0.0765583 -0.995073 
-0.0451789 0.0574897 -0.997323 
-0.0316414 0.0427647 -0.998584 
-0.0223028 0.0292957 -0.999322 
-0.0147962 0.0189459 -0.999711 
-0.0105 0.00920261 -0.999903 
-0.00656945 0.00223736 -0.999976 
-0.00419947 -0.00304485 -0.999987 
-0.00222366 -0.00676719 -0.999975 
-0.000696756 -0.00908879 -0.999958 
0.000523656 -0.0101281 -0.999949 
0.00155485 -0.010283 -0.999946 
0.0022183 -0.00978218 -0.99995 
0.00259047 -0.00883241 -0.999958 
0.00265261 -0.00758931 -0.999968 
0.00249125 -0.00646742 -0.999976 
0.00216079 -0.00558632 -0.999982 
0.00174636 -0.00497975 -0.999986 
0.00133243 -0.00463818 -0.999988 
0.000959066 -0.0044562 -0.99999 
0.000631309 -0.00419925 -0.999991 
0.000384455 -0.00391727 -0.999992 
0.000158202 -0.00359199 -0.999994 
4.56947e-05 -0.0031016 -0.999995 
-6.38731e-05 -0.00264379 -0.999997 
-0.000153535 -0.00215616 -0.999998 
-0.000188981 -0.00151122 -0.999999 
-0.000232689 -0.000970686 -1 
-0.000207049 -0.000428353 -1 
-0.000225378 0.00011885 -1 
-0.000199119 0.000709126 -1 
-8.64144e-05 0.00350543 -0.999994 
-0.000378275 0.0626706 -0.998034 
0.0306101 0.0498487 0.998288 
0.00190731 0.00316779 0.999993 
0.000290016 0.000771039 1 
0.000281327 0.000262221 1 
0.000243808 -0.000171326 1 
0.000203358 -0.000965001 1 
0.00013999 -0.00165235 0.999999 
9.40382e-05 -0.00206928 0.999998 
-4.44357e-06 -0.00258687 0.999997 
-0.000119543 -0.00299444 0.999996 
-0.000288373 -0.00332543 0.999994 
-0.000503677 -0.00362844 0.999993 
-0.000754949 -0.00386693 0.999992 
-0.00105411 -0.00406991 0.999991 
-0.00140715 -0.00420816 0.99999 
-0.00177463 -0.00465254 0.999988 
-0.00213139 -0.00530792 0.999984 
-0.00242246 -0.00633115 0.999977 
-0.0025505 -0.00747046 0.999969 
-0.0025466 -0.00870328 0.999959 
-0.00232017 -0.00971547 0.99995 
-0.0018208 -0.0103388 0.999945 
-0.00099868 -0.0104101 0.999945 
0.000201964 -0.00977312 0.999952 
0.00180042 -0.00828388 0.999964 
0.00399515 -0.00560252 0.999976 
0.00705885 -0.0015084 0.999974 
0.0113439 0.00405127 0.999927 
0.0173033 0.0107633 0.999792 
0.0260343 0.0190065 0.99948 
0.0377442 0.0276601 0.998905 
0.0525505 0.0393583 0.997842 
0.0751184 0.0492326 0.995959 
0.105004 0.07122 0.991918 
0.137888 0.0989031 0.985497 
0.143701 0.169822 0.974941 
0.187201 0.258166 0.94779 
0.132604 0.605363 0.784826 
0.047865 0.823337 0.565531 
-0.00571181 0.999774 -0.0205 
-0.0413867 0.893466 -0.447221 
-0.188065 0.424707 -0.885582 
-0.181679 0.238935 -0.953888 
-0.158755 0.13233 -0.97841 
-0.127415 0.0899761 -0.98776 
-0.0959187 0.0599687 -0.993581 
-0.0675471 0.0499426 -0.996465 
-0.0475865 0.0366806 -0.998193 
-0.0335493 0.0277126 -0.999053 
-0.0227686 0.0184082 -0.999571 
-0.0160657 0.0106979 -0.999814 
-0.0101878 0.00307463 -0.999943 
-0.00644967 -0.00218936 -0.999977 
-0.00351827 -0.00613972 -0.999975 
-0.00150379 -0.00867862 -0.999961 
9.93621e-06 -0.0100947 -0.999949 
0.00111354 -0.0105452 -0.999944 
0.00184214 -0.0103138 -0.999945 
0.00230246 -0.0095191 -0.999952 
0.00251369 -0.00842617 -0.999961 
0.00247354 -0.00704671 -0.999972 
0.00230561 -0.00588287 -0.99998 
0.00201191 -0.00500116 -0.999985 
0.00164725 -0.00442944 -0.999989 
0.00128184 -0.00412106 -0.999991 
0.000940307 -0.00399283 -0.999992 
0.000650591 -0.00376757 -0.999993 
0.000398498 -0.00353519 -0.999994 
0.000220321 -0.0032363 -0.999995 
6.98819e-05 -0.00278743 -0.999996 
-4.11443e-05 -0.00235608 -0.999997 
-0.000115067 -0.00188946 -0.999998 
-0.000158807 -0.00139714 -0.999999 
-0.000175824 -0.000963318 -1 
-0.00019783 -0.000415073 -1 
-0.000205711 9.9094e-05 -1 
-0.000252776 0.00060619 -1 
-0.000632708 0.00363359 -0.999993 
-0.012621 0.0455077 -0.998884 
0.0374094 0.0518083 0.997956 
0.00197231 0.00284711 0.999994 
0.000437494 0.000666379 1 
0.000340456 9.98225e-05 1 
0.000270483 -0.000423838 1 
0.000278038 -0.000835552 1 
0.000205539 -0.00134112 0.999999 
0.000153411 -0.00181515 0.999998 
6.37941e-05 -0.00223183 0.999998 
-4.77256e-05 -0.00261445 0.999997 
-0.000185638 -0.00293399 0.999996 
-0.000385048 -0.00323335 0.999995 
-0.000622207 -0.00344323 0.999994 
-0.000888637 -0.00361968 0.999993 
-0.00117564 -0.00377051 0.999992 
-0.0015253 -0.00408391 0.99999 
-0.00183654 -0.00465206 0.999987 
-0.0021008 -0.00560938 0.999982 
-0.00222523 -0.00673538 0.999975 
-0.00226301 -0.008059 0.999965 
-0.00215117 -0.00923239 0.999955 
-0.00187097 -0.0101207 0.999947 
-0.00133811 -0.0105463 0.999943 
-0.000450411 -0.0104789 0.999945 
0.00081139 -0.00981761 0.999951 
0.00270242 -0.00831313 0.999962 
0.00539628 -0.00572678 0.999969 
0.0092828 -0.00197929 0.999955 
0.0147384 0.0025305 0.999888 
0.0224917 0.00801786 0.999715 
0.0329981 0.0130009 0.999371 
0.046996 0.0182361 0.998729 
0.064326 0.0236282 0.997649 
0.0914124 0.0280782 0.995417 
0.124279 0.0438916 0.991276 
0.171217 0.0629667 0.983219 
0.213363 0.204889 0.955247 
0.184077 0.489401 0.85241 
0.0109711 0.762868 0.646462 
0.100422 0.786579 0.609269 
-0.026863 0.802924 -0.595476 
-0.100846 0.405641 -0.908452 
-0.205626 0.182107 -0.961538 
-0.157724 0.05128 -0.986151 
-0.117375 0.0417687 -0.992209 
-0.0864699 0.0225044 -0.996 
-0.0680262 0.0277318 -0.997298 
-0.050196 0.0189239 -0.99856 
-0.0354737 0.0152708 -0.999254 
-0.0251978 0.0115883 -0.999615 
-0.0174341 0.00505724 -0.999835 
-0.0117901 0.000922706 -0.99993 
-0.00709143 -0.00423423 -0.999966 
-0.00391815 -0.00710579 -0.999967 
-0.00168862 -0.00928798 -0.999955 
-0.000187381 -0.0103865 -0.999946 
0.000903023 -0.0107013 -0.999942 
0.00155095 -0.0104907 -0.999944 
0.00197234 -0.00977972 -0.99995 
0.00218112 -0.00866312 -0.99996 
0.00224593 -0.00743802 -0.99997 
0.00212367 -0.00600907 -0.99998 
0.00193646 -0.00497056 -0.999986 
0.00165355 -0.00425402 -0.99999 
0.00133045 -0.00384058 -0.999992 
0.00101317 -0.00366131 -0.999993 
0.000738464 -0.00352116 -0.999994 
0.0004726 -0.00334076 -0.999994 
0.000266164 -0.00306904 -0.999995 
0.00011199 -0.00277161 -0.999996 
-3.70318e-05 -0.00232469 -0.999997 
-0.000126465 -0.00189104 -0.999998 
-0.000203602 -0.00135136 -0.999999 
-0.000229324 -0.000805206 -1 
-0.000276594 -0.000315928 -1 
-0.0002681 8.50289e-05 -1 
-0.000349592 0.00049695 -1 
-0.000887433 0.00206195 -0.999997 
-0.0213008 0.0403939 -0.998957 
0.0373035 0.0581803 0.997609 
0.00201135 0.0031996 0.999993 
0.000478842 0.000555545 1 
0.000420409 0.000168724 1 
0.000355295 -0.000269063 1 
0.000331603 -0.000811603 1 
0.000256871 -0.001368 0.999999 
0.000197804 -0.00180316 0.999998 
8.6729e-05 -0.0022113 0.999998 
-1.34623e-05 -0.00250698 0.999997 
-0.000183939 -0.00283979 0.999996 
-0.00038412 -0.00308302 0.999995 
-0.000603057 -0.00322271 0.999995 
-0.000853146 -0.00337262 0.999994 
-0.00116159 -0.00361251 0.999993 
-0.00139479 -0.00399512 0.999991 
-0.00167915 -0.00474187 0.999987 
-0.00177418 -0.00573788 0.999982 
-0.00182789 -0.00704404 0.999974 
-0.0017592 -0.00837325 0.999963 
-0.00158204 -0.00956229 0.999953 
-0.00123137 -0.0103664 0.999946 
-0.000685818 -0.0107982 0.999941 
0.000192594 -0.0108472 0.999941 
0.00146483 -0.0103827 0.999945 
0.00338235 -0.00932543 0.999951 
0.0061613 -0.00746878 0.999953 
0.0101471 -0.00500203 0.999936 
0.0159979 -0.00199865 0.99987 
0.0239187 0.000730626 0.999714 
0.0344561 0.00214369 0.999404 
0.0481608 0.0019264 0.998838 
0.0675562 0.00469467 0.997704 
0.0911114 -0.000574367 0.995841 
0.122158 0.00818271 0.992477 
0.162879 0.0189306 0.986464 
0.169226 0.121512 0.978058 
0.241582 0.396201 0.885812 
0.146151 0.724577 0.67352 
-0.00389678 0.984234 0.17683 
-0.0686166 0.799903 -0.596193 
-0.206041 0.363503 -0.908522 
-0.185811 0.0911213 -0.978351 
-0.161258 0.0151752 -0.986796 
-0.118141 0.00996463 -0.992947 
-0.0844035 -0.00278309 -0.996428 
-0.0607452 0.002305 -0.998151 
-0.0426591 0.00220532 -0.999087 
-0.0305561 0.00194226 -0.999531 
-0.0220811 0.00132113 -0.999755 
-0.0152122 -0.00227998 -0.999882 
-0.0102346 -0.00457973 -0.999937 
-0.00604077 -0.00772142 -0.999952 
-0.00339812 -0.00935481 -0.99995 
-0.00156349 -0.0105411 -0.999943 
-0.00015989 -0.0109805 -0.99994 
0.000671604 -0.010922 -0.99994 
0.00122143 -0.0104131 -0.999945 
0.00158993 -0.00949204 -0.999954 
0.00172135 -0.00829187 -0.999964 
0.00186202 -0.00692386 -0.999974 
0.00172435 -0.00555223 -0.999983 