# vtk DataFile Version 3.0 
Exported using Morpho https://github.com/Morpho-lang/morpho 
ASCII 
DATASET UNSTRUCTURED_GRID 

POINTS 1978 float 
-8.48528 -2.82847 6.84634e-10 
-8.26947 -2.82843 -3.56163e-11 
-8.04828 -2.82843 -8.67965e-12 
-7.76492 -2.82843 -7.07955e-12 
-7.49729 -2.82843 2.76738e-11 
-7.25551 -2.82843 5.71534e-12 
-7.00478 -2.82843 7.17857e-12 
-6.78779 -2.82843 1.42464e-11 
-6.56136 -2.82843 7.73209e-12 
-6.34844 -2.82843 7.74667e-12 
-6.13332 -2.82843 1.56409e-11 
-5.92794 -2.82843 1.0375e-11 
-5.7089 -2.82843 1.12753e-11 
-5.50416 -2.82843 8.56093e-12 
-5.28803 -2.82843 9.45934e-12 
-5.07726 -2.82843 1.35711e-11 
-4.85794 -2.82843 1.51686e-11 
-4.65696 -2.82843 1.42015e-11 
-4.43031 -2.82843 2.19304e-11 
-4.22182 -2.82843 2.46335e-11 
-3.99854 -2.82843 3.24193e-11 
-3.79777 -2.82843 4.41049e-11 
-3.58941 -2.82843 7.16943e-11 
-3.38213 -2.82843 1.0946e-10 
-3.17297 -2.82843 1.51523e-10 
-2.9623 -2.82843 1.8519e-10 
-2.74971 -2.82843 1.88876e-10 
-2.53059 -2.82843 1.80738e-10 
-2.30286 -2.82843 4.24123e-10 
-2.06456 -2.82843 7.66485e-10 
-1.8225 -2.82843 -1.36108e-11 
-1.59903 -2.82843 -2.93421e-09 
-1.32305 -2.82843 -9.89296e-09 
-1.1186 -2.82843 -2.11207e-08 
-0.936368 -2.82843 -5.01373e-08 
-0.759314 -2.82843 -1.31671e-07 
-0.602663 -2.82843 -1.34964e-07 
-0.538528 -2.82843 -2.8966e-07 
-0.207726 -2.82842 -2.61792e-06 
0.110303 -2.82842 3.03634e-06 
0.257908 -2.82843 1.43965e-06 
0.527383 -2.82843 7.22547e-07 
0.594216 -2.82843 1.184e-07 
0.734218 -2.82843 1.04057e-07 
0.944053 -2.82843 6.55004e-08 
1.14389 -2.82843 1.66048e-08 
1.3637 -2.82843 6.05056e-09 
1.59622 -2.82843 4.10759e-09 
1.85521 -2.82843 1.0111e-09 
2.10481 -2.82843 -9.06824e-10 
2.3067 -2.82843 -5.09868e-10 
2.53088 -2.82843 -2.33503e-10 
2.74277 -2.82843 -1.73651e-10 
2.9671 -2.82843 -1.53506e-10 
3.19398 -2.82843 -1.41315e-10 
3.4016 -2.82843 -1.06776e-10 
3.61355 -2.82843 -7.27027e-11 
3.80969 -2.82843 -4.85794e-11 
4.02278 -2.82843 -3.4932e-11 
4.24551 -2.82843 -2.04895e-11 
4.4429 -2.82843 -2.36282e-11 
4.65991 -2.82843 -1.61114e-11 
4.86849 -2.82843 -1.30568e-11 
5.0711 -2.82843 -1.12744e-11 
5.29229 -2.82843 -7.55633e-12 
5.50177 -2.82843 -7.78519e-12 
5.70316 -2.82843 -7.25362e-12 
5.92327 -2.82843 -9.31145e-12 
6.14062 -2.82843 -8.67699e-12 
6.33691 -2.82843 -9.37325e-12 
6.58623 -2.82843 -7.53803e-12 
6.78997 -2.82843 -1.44379e-11 
6.99349 -2.82843 -1.44669e-11 
7.25815 -2.82843 -4.23421e-12 
7.48805 -2.82843 -9.41587e-12 
7.7315 -2.82843 5.72502e-13 
8.01118 -2.82843 4.31982e-12 
8.19202 -2.82843 5.67682e-11 
8.48528 -2.82843 9.89573e-10 
-8.48528 -2.60285 1.2165e-09 
-8.25313 -2.58396 1.98506e-12 
-8.04072 -2.57068 -1.43318e-13 
-7.82093 -2.63816 1.38724e-15 
-7.54347 -2.62624 1.12515e-15 
-7.25332 -2.61528 -2.14043e-15 
-7.01487 -2.59424 -1.17062e-14 
-6.7928 -2.59503 -1.37389e-14 
-6.55749 -2.59539 -1.87455e-14 
-6.33201 -2.59445 -2.05632e-14 
-6.11495 -2.58653 -2.24901e-14 
-5.89369 -2.5983 -1.79468e-14 
-5.68083 -2.5794 -1.66916e-14 
-5.46497 -2.59427 -1.41213e-14 
-5.24851 -2.58892 -1.02631e-14 
-5.02799 -2.59997 -7.61028e-15 
-4.82017 -2.57843 1.14445e-14 
-4.59669 -2.60724 1.8571e-14 
-4.37901 -2.58892 5.53235e-14 
-4.15647 -2.60597 3.96561e-14 
-3.94565 -2.58186 1.19917e-14 
-3.73438 -2.59213 -8.39538e-14 
-3.51914 -2.59068 -1.74577e-13 
-3.30231 -2.592 -3.26798e-13 
-3.08227 -2.59079 -5.30619e-13 
-2.8586 -2.58723 -1.74328e-13 
-2.62972 -2.58666 2.78421e-12 
-2.39317 -2.58706 1.27132e-11 
-2.1484 -2.58929 4.0935e-11 
-1.89971 -2.58982 1.34564e-10 
-1.65869 -2.58669 3.45503e-10 
-1.42749 -2.65745 8.02803e-10 
-1.18603 -2.63205 4.51479e-09 
-0.989064 -2.67555 9.99352e-09 
-0.820116 -2.71218 1.80993e-08 
-0.663706 -2.73712 1.01651e-08 
-0.577359 -2.66873 2.04461e-08 
-0.502614 -2.79382 2.72502e-07 
-0.151459 -2.80646 -1.97425e-08 
0.11504 -2.7909 4.69738e-07 
0.242913 -2.76284 2.4072e-07 
0.475195 -2.80723 -1.61796e-07 
0.541522 -2.68718 -5.59156e-08 
0.661993 -2.73914 -3.46032e-08 
0.855153 -2.72728 -3.68795e-09 
1.07093 -2.66286 -1.75642e-09 
1.27627 -2.63527 -2.15558e-09 
1.51086 -2.60863 -8.01648e-10 
1.76401 -2.61732 -1.65947e-10 
2.03074 -2.60383 -5.62154e-11 
2.2788 -2.56238 -3.3579e-11 
2.50634 -2.59052 -7.09133e-12 
2.75038 -2.59233 -1.07936e-12 
2.99494 -2.60116 7.69364e-13 
3.21885 -2.58674 4.0054e-13 
3.44264 -2.5967 1.77944e-13 
3.64927 -2.57873 1.28481e-13 
3.86507 -2.5973 4.68197e-14 
4.09189 -2.60551 -1.88061e-14 
4.29985 -2.57451 -6.08519e-14 
4.51582 -2.59845 -3.92593e-14 
4.73215 -2.58947 -1.55327e-14 
4.94338 -2.58367 -1.79101e-15 
5.16016 -2.60468 9.36933e-15 
5.38035 -2.59154 1.23717e-14 
5.58905 -2.58072 1.56643e-14 
5.80519 -2.6008 1.76216e-14 
6.02914 -2.59605 2.08073e-14 
6.24076 -2.5684 2.23892e-14 
6.46125 -2.622 1.52811e-14 
6.68796 -2.57046 1.75941e-14 
6.89573 -2.56662 1.41936e-14 
7.12561 -2.62598 5.53757e-15 
7.37702 -2.59415 3.58289e-15 
7.61453 -2.60797 7.61867e-16 
7.87334 -2.63674 -1.25536e-15 
8.07855 -2.53084 1.35807e-13 
8.29635 -2.64029 -3.50559e-09 
8.48528 -2.53588 -3.39036e-09 
-8.48528 -2.36896 -8.27714e-10 
-8.25699 -2.33703 -1.83246e-10 
-8.00174 -2.3515 8.78179e-14 
-7.75546 -2.42333 3.00855e-16 
-7.57288 -2.25254 -1.50879e-16 
-7.44826 -2.44371 -6.42164e-15 
-7.17964 -2.39339 -9.59631e-15 
-6.93961 -2.34017 -9.97708e-15 
-6.70532 -2.3792 -1.45167e-14 
-6.46818 -2.36627 -1.39978e-14 
-6.2424 -2.35657 -1.24584e-14 
-6.01552 -2.36031 -9.40517e-15 
-5.80255 -2.35361 -7.41696e-15 
-5.5732 -2.34995 -2.21658e-15 
-5.35936 -2.36034 1.32237e-15 
-5.13227 -2.36527 8.9464e-15 
-4.92511 -2.34705 2.77718e-14 
-4.69615 -2.36849 5.79848e-14 
-4.48535 -2.36679 1.0076e-13 
-4.25758 -2.37099 1.07033e-13 
-4.05238 -2.35595 6.23749e-14 
-3.83452 -2.34958 -1.82603e-14 
-3.62436 -2.35918 -8.54158e-14 
-3.4055 -2.35893 -1.17984e-13 
-3.18579 -2.35962 -1.49689e-13 
-2.96136 -2.35638 -4.30783e-15 
-2.72996 -2.35302 1.76874e-12 
-2.49145 -2.35343 9.85615e-12 
-2.24357 -2.35595 3.58521e-11 
-1.98879 -2.35658 1.09337e-10 
-1.73438 -2.35615 3.58574e-10 
-1.47396 -2.41572 1.04586e-09 
-1.27244 -2.45515 2.02065e-09 
-1.02512 -2.50348 5.88896e-09 
-0.84754 -2.5567 3.98702e-09 
-0.70654 -2.61813 1.92809e-08 
-0.547461 -2.57807 1.76803e-08 
-0.430174 -2.76775 4.30512e-07 
-0.144048 -2.76818 -2.83177e-07 
0.0407517 -2.84026 1.45694e-06 
0.181868 -2.8035 -6.78175e-07 
0.409255 -2.78782 4.47396e-08 
0.591193 -2.60551 -4.70711e-08 
0.721574 -2.63989 -3.33364e-08 
0.909377 -2.59069 -8.06279e-09 
1.0303 -2.46436 -5.98071e-09 
1.2232 -2.44828 -1.38633e-09 
1.44184 -2.40914 -7.91067e-10 
1.69257 -2.40045 -3.90903e-10 
1.94052 -2.39056 -1.39178e-10 
2.18897 -2.34585 -3.5879e-11 
2.45804 -2.35078 -1.12779e-11 
2.69067 -2.36508 -2.34424e-12 
2.93006 -2.37104 -2.44747e-14 
3.15087 -2.35388 1.64519e-13 
3.3728 -2.36418 1.20478e-13 
3.57986 -2.33906 7.81696e-14 
3.79123 -2.35736 4.41482e-14 
4.0051 -2.37959 -3.42585e-14 
4.21167 -2.34329 -8.85269e-14 
4.43407 -2.35509 -9.73268e-14 
4.64125 -2.35855 -6.67776e-14 
4.85545 -2.34908 -3.37191e-14 
5.0742 -2.36302 -1.35329e-14 
5.28382 -2.37101 -3.17913e-15 
5.5002 -2.34426 -1.75293e-16 
5.71979 -2.35992 6.26143e-15 
5.935 -2.37137 1.03155e-14 
6.15084 -2.33981 1.01164e-14 
6.38938 -2.36909 1.59005e-14 
6.59339 -2.36169 1.20879e-14 
6.82707 -2.31271 8.21973e-15 
7.05685 -2.37437 9.36023e-15 
7.27938 -2.39381 6.63895e-15 
7.54454 -2.3761 2.73613e-15 
7.7896 -2.41832 -1.94704e-15 
8.00589 -2.31318 2.89204e-13 
8.26886 -2.37352 4.77902e-09 
8.48528 -2.2753 2.5243e-09 
-8.48528 -2.11972 -1.45931e-09 
-8.25465 -2.08809 -4.66452e-11 
-8.04681 -2.11666 -2.67326e-13 
-7.80358 -2.17189 -8.42438e-16 
-7.51566 -2.03202 7.97106e-16 
-7.32439 -2.21881 1.96352e-16 
-7.08134 -2.14867 1.6832e-15 
-6.79802 -2.13452 2.36194e-15 
-6.5822 -2.1533 2.80566e-15 
-6.34898 -2.13151 4.30219e-15 
-6.12209 -2.12929 5.26243e-15 
-5.90917 -2.11535 5.33374e-15 
-5.68967 -2.13135 6.10523e-15 
-5.46385 -2.11574 8.71055e-15 
-5.24964 -2.14024 1.08379e-14 
-5.04142 -2.11221 1.7676e-14 
-4.81801 -2.13748 3.07898e-14 
-4.60658 -2.12975 4.53391e-14 
-4.39018 -2.14776 4.56127e-14 
-4.18589 -2.12086 3.08836e-14 
-3.97557 -2.12439 9.38729e-15 
-3.76346 -2.11432 -6.11125e-15 
-3.55365 -2.12931 -1.77936e-14 
-3.33947 -2.12589 1.22682e-14 
-3.12473 -2.12596 1.42799e-13 
-2.90343 -2.12386 4.14638e-13 
-2.67352 -2.12195 9.41702e-13 
-2.43403 -2.12484 1.81722e-12 
-2.18683 -2.12735 3.41747e-12 
-1.93675 -2.12726 5.56419e-12 
-1.68025 -2.15166 -5.35768e-11 
-1.45242 -2.17444 1.76993e-10 
-1.24947 -2.209 1.03507e-09 
-1.09531 -2.32828 2.59743e-10 
-0.900964 -2.36889 -3.44046e-09 
-0.728483 -2.46538 -3.51834e-09 
-0.591987 -2.49349 -2.11258e-08 
-0.48381 -2.73189 -1.49972e-07 
-0.216498 -2.76301 4.3258e-06 
-0.0235789 -2.81994 7.8708e-07 
0.125232 -2.75154 -1.40592e-08 
0.457982 -2.71657 -7.668e-08 
0.643126 -2.49957 1.53077e-07 
0.788547 -2.49522 7.0573e-09 
0.873477 -2.35562 3.38321e-09 
1.07005 -2.26423 6.32579e-11 
1.25954 -2.22258 -4.22816e-10 
1.50681 -2.2016 -1.18406e-10 
1.75656 -2.17891 -4.21774e-11 
1.99983 -2.15 -1.19983e-11 
2.27602 -2.14036 -2.42608e-12 
2.51188 -2.1172 -1.5505e-12 
2.75042 -2.14255 -7.71044e-13 
2.97255 -2.12733 -2.71805e-13 
3.20104 -2.12732 -9.03157e-14 
3.40831 -2.11877 -1.37e-15 
3.62729 -2.10869 6.62654e-15 
3.84311 -2.13212 -4.47314e-16 
4.04389 -2.1313 -1.39343e-14 
4.27452 -2.12295 -3.48859e-14 
4.48259 -2.11355 -4.55412e-14 
4.69501 -2.12369 -3.75011e-14 
4.91641 -2.12499 -2.36526e-14 
5.12884 -2.12678 -1.42349e-14 
5.33718 -2.13442 -9.33312e-15 
5.56585 -2.12098 -7.09699e-15 
5.78162 -2.12912 -6.21931e-15 
5.99208 -2.12929 -5.68033e-15 
6.24002 -2.13618 -4.6785e-15 
6.44601 -2.11042 -3.84503e-15 
6.6611 -2.12245 -2.9577e-15 
6.92739 -2.10713 -2.12e-15 
7.14605 -2.14109 -1.21448e-15 
7.38211 -2.18388 -5.59402e-16 
7.57954 -2.08594 -2.44693e-16 
7.75367 -2.18904 9.34456e-16 
7.96258 -2.07798 -5.18794e-14 
8.20543 -2.15132 3.56703e-10 
8.48528 -2.08772 -1.77006e-09 
-8.48528 -1.82032 7.52586e-10 
-8.30765 -1.84857 -6.83166e-10 
-7.89835 -1.91589 -4.1782e-16 
[...]
POINT_DATA 1978 
VECTORS vectors float
0.00990313 0.0281285 0.99956 
-0.00104382 0.00245814 0.999996 
-9.14447e-06 0.000924487 1 
3.33379e-05 0.00012003 1 
3.42067e-05 -0.000546903 1 
3.3325e-05 -0.00124789 0.999999 
3.24301e-05 -0.00196422 0.999998 
5.57398e-05 -0.00269002 0.999996 
3.88029e-05 -0.00341727 0.999994 
5.0086e-05 -0.00410117 0.999992 
3.6056e-05 -0.00478357 0.999989 
3.25732e-05 -0.00539055 0.999985 
2.38803e-05 -0.00598312 0.999982 
9.72426e-06 -0.0064837 0.999979 
-2.7197e-06 -0.00698685 0.999976 
-2.06805e-05 -0.0074535 0.999972 
-1.27974e-05 -0.00795492 0.999968 
-4.05743e-05 -0.00844099 0.999964 
-1.67539e-05 -0.00900644 0.999959 
-3.32179e-05 -0.00949513 0.999955 
-4.0732e-05 -0.00983022 0.999952 
-5.88789e-05 -0.00983268 0.999952 
-9.01487e-05 -0.00935205 0.999956 
-0.000104476 -0.00841373 0.999965 
-0.00012502 -0.00699851 0.999976 
-0.000181522 -0.00459962 0.999989 
-0.000245205 -0.000127004 1 
-0.000344762 0.0073798 0.999973 
-0.000436364 0.0183893 0.999831 
-0.000560718 0.0334223 0.999441 
-0.000473048 0.0538179 0.998551 
-0.000892216 0.0803183 0.996769 
-0.00252147 0.131176 0.991356 
-0.00299148 0.188043 0.982157 
-0.00785645 0.25986 0.965615 
-0.0106056 0.359763 0.932984 
-0.0110032 0.470809 0.882167 
-0.00686754 0.52224 0.852772 
0.00250869 0.893254 0.449547 
-0.00155822 0.984131 -0.177439 
0.00750437 0.828258 -0.560299 
0.0117812 0.509922 -0.860141 
0.0105621 0.453885 -0.890998 
0.00510199 0.36671 -0.930322 
0.00635084 0.260738 -0.965389 
0.00379373 0.179887 -0.98368 
0.00165472 0.122165 -0.992509 
0.000793628 0.0821575 -0.996619 
0.000726735 0.0513524 -0.99868 
0.000496658 0.0312776 -0.999511 
0.000285965 0.0189353 -0.999821 
0.000547986 0.00757605 -0.999971 
0.000349727 -0.000402128 -1 
0.000112183 -0.00527855 -0.999986 
6.66902e-05 -0.00744877 -0.999972 
7.95249e-05 -0.00841984 -0.999965 
7.5432e-05 -0.00913536 -0.999958 
7.76153e-05 -0.00963918 -0.999954 
4.72804e-05 -0.00973992 -0.999953 
1.69634e-05 -0.00942254 -0.999956 
2.09988e-05 -0.00897067 -0.99996 
3.09302e-05 -0.0084395 -0.999964 
2.71595e-05 -0.00796258 -0.999968 
1.5141e-05 -0.00752952 -0.999972 
3.78535e-06 -0.00704141 -0.999975 
-1.18432e-05 -0.00654549 -0.999979 
-2.6044e-05 -0.00601076 -0.999982 
-3.60688e-05 -0.00539362 -0.999985 
-3.31131e-05 -0.00473642 -0.999989 
-4.82577e-05 -0.00410516 -0.999992 
-5.03718e-05 -0.00330515 -0.999995 
-3.34501e-05 -0.0026335 -0.999997 
-4.80687e-05 -0.00196576 -0.999998 
-3.92101e-05 -0.00120294 -0.999999 
-2.45005e-05 -0.000568415 -1 
-3.90297e-05 5.89805e-05 -1 
-7.79384e-05 0.000768537 -1 
0.00274091 0.00135624 -0.999995 
-0.0123421 0.0380224 -0.999202 
0.0349087 0.103493 0.994025 
0.0020852 0.00685779 0.999974 
0.000590283 0.00115285 0.999999 
0.000316805 0.000286317 1 
0.000364809 -0.000443319 1 
0.000387437 -0.00124357 0.999999 
0.000549192 -0.00189737 0.999998 
0.000452941 -0.00257479 0.999997 
0.000449293 -0.00327655 0.999995 
0.000384428 -0.0039547 0.999992 
0.000299148 -0.00455573 0.99999 
0.000127479 -0.00516245 0.999987 
-3.66472e-05 -0.00562956 0.999984 
-0.000264231 -0.00610901 0.999981 
-0.000567055 -0.00653746 0.999979 
-0.000875122 -0.00704006 0.999975 
-0.00131424 -0.00747201 0.999971 
-0.0014333 -0.00815661 0.999966 
-0.00175896 -0.00874114 0.99996 
-0.00160628 -0.00933542 0.999955 
-0.00164587 -0.00962822 0.999952 
-0.00130199 -0.00950716 0.999954 
-0.00100587 -0.00879305 0.999961 
-0.000860393 -0.00737803 0.999972 
-0.00097761 -0.00500378 0.999987 
-0.00127332 -0.000980398 0.999999 
-0.00144742 0.00556219 0.999984 
-0.00136775 0.0152744 0.999882 
-0.000901018 0.0287361 0.999587 
-7.58195e-05 0.0473705 0.998877 
0.00119495 0.0727766 0.997348 
0.00243082 0.108389 0.994106 
0.00269576 0.165472 0.986211 
0.00515163 0.236607 0.971592 
0.00673081 0.323415 0.946233 
0.0140986 0.420436 0.907212 
0.0572903 0.464741 0.883591 
-0.000389468 0.566117 0.824325 
0.0163424 0.941862 0.335603 
-0.0269434 0.972866 -0.229797 
-0.0543897 0.844936 -0.532095 
0.00673857 0.573476 -0.819194 
-0.0535647 0.472572 -0.879663 
-0.0219158 0.396875 -0.917611 
-0.0122519 0.292221 -0.956272 
-0.010967 0.202167 -0.97929 
-0.00511054 0.141053 -0.989989 
-0.0024837 0.0942674 -0.995544 
-0.00119971 0.0610555 -0.998134 
0.000233873 0.0376396 -0.999291 
0.00205069 0.0215888 -0.999765 
0.00169345 0.0104081 -0.999944 
0.00153107 0.00128908 -0.999998 
0.00106783 -0.00415744 -0.999991 
0.000850587 -0.00679041 -0.999977 
0.000818645 -0.0082995 -0.999965 
0.00114041 -0.00913725 -0.999958 
0.0013709 -0.00952998 -0.999954 
0.0015417 -0.00941775 -0.999955 
0.00185828 -0.00892305 -0.999959 
0.0015731 -0.0083619 -0.999964 
0.00138903 -0.00774398 -0.999969 
0.00109644 -0.00721106 -0.999973 
0.000667172 -0.00680747 -0.999977 
0.000371248 -0.00632043 -0.99998 
0.000118806 -0.00585305 -0.999983 
-8.18585e-05 -0.00538426 -0.999986 
-0.000240343 -0.00479241 -0.999989 
-0.00039037 -0.00416647 -0.999991 
-0.000352338 -0.00356385 -0.999994 
-0.000523558 -0.00284451 -0.999996 
-0.000554974 -0.00222406 -0.999997 
-0.000396586 -0.00156511 -0.999999 
-0.000495926 -0.000869024 -1 
-0.000443648 -0.000249171 -1 
-0.000350725 0.000424834 -1 
-0.000710835 0.00139339 -0.999999 
-0.00313501 0.00946165 -0.99995 
-0.0479798 0.148217 -0.98779 
0.00316861 0.0938599 0.995589 
0.000502624 0.00627355 0.99998 
0.000576635 0.000795051 1 
0.000658703 5.34703e-05 1 
0.000567642 -0.000396022 1 
0.000712797 -0.000695412 1 
0.000665306 -0.00140326 0.999999 
0.000588286 -0.00206853 0.999998 
0.000582193 -0.00270696 0.999996 
0.000470571 -0.00334364 0.999994 
0.000324433 -0.00394767 0.999992 
0.000150218 -0.00450289 0.99999 
-7.84423e-05 -0.00493527 0.999988 
-0.000398832 -0.00535627 0.999986 
-0.000756421 -0.00574627 0.999983 
-0.00122553 -0.00615491 0.99998 
-0.00174268 -0.00655091 0.999977 
-0.00223736 -0.00726035 0.999971 
-0.00260602 -0.0079838 0.999965 
-0.00272531 -0.00882547 0.999957 
-0.00256699 -0.0094407 0.999952 
-0.00209576 -0.00971968 0.999951 
-0.00144842 -0.00937888 0.999955 
-0.000763361 -0.00819417 0.999966 
-0.000298038 -0.00596367 0.999982 
-0.000132682 -0.00232709 0.999997 
-3.01747e-05 0.00330265 0.999995 
0.000468471 0.0114983 0.999934 
0.00177948 0.0228211 0.999738 
0.00444219 0.038058 0.999266 
0.00900913 0.059348 0.998197 
0.0117882 0.0938944 0.995512 
0.0173523 0.131346 0.991185 
0.0278186 0.208185 0.977694 
0.0454703 0.292458 0.955197 
0.0447698 0.3749 0.925984 
0.105894 0.444532 0.889482 
0.0209572 0.614748 0.788445 
0.0527236 0.926595 0.372347 
-0.0082962 0.999532 -0.0294157 
-0.00130779 0.926434 -0.376454 
-0.0119417 0.644722 -0.764323 
-0.109543 0.416009 -0.902739 
-0.0460189 0.347412 -0.936583 
-0.0335905 0.25206 -0.967128 
-0.0385672 0.192212 -0.980595 
-0.0240479 0.137575 -0.990199 
-0.0152991 0.0972966 -0.995138 
-0.00761265 0.065628 -0.997815 
-0.00351764 0.0428456 -0.999076 
-0.0024182 0.0260938 -0.999657 
-6.16676e-05 0.0128025 -0.999918 
0.000639431 0.00440138 -0.99999 
0.000496951 -0.00185032 -0.999998 
0.000248826 -0.00561461 -0.999984 
0.000590753 -0.00792944 -0.999968 
0.00117519 -0.00916058 -0.999957 
0.0018647 -0.00962844 -0.999952 
0.00236996 -0.00949249 -0.999952 
0.00267756 -0.00894083 -0.999956 
0.0026382 -0.00814771 -0.999963 
0.00235747 -0.00742092 -0.99997 
0.00192531 -0.00675149 -0.999975 
0.00137494 -0.00628204 -0.999979 
0.000894514 -0.00591647 -0.999982 
0.000520773 -0.00548555 -0.999985 
0.000163721 -0.0051257 -0.999987 
-9.86081e-05 -0.0046939 -0.999989 
-0.000254432 -0.00413753 -0.999991 
-0.000445423 -0.00355538 -0.999994 
-0.000525962 -0.00299394 -0.999995 
-0.000534316 -0.00232454 -0.999997 
-0.000634018 -0.00171678 -0.999998 
-0.000661828 -0.00112004 -0.999999 
-0.000650369 -0.000437441 -1 
-0.000660322 0.000174633 -1 
-0.000565493 0.000843194 -1 
-0.00150538 0.00752386 -0.999971 
0.00103705 0.0772736 -0.99701 
-0.00963037 0.0887171 0.99602 
-0.000111338 0.00478208 0.999989 
0.00033828 0.000808412 1 
0.00046086 0.000122716 1 
0.000347395 -0.000507498 1 
0.000516622 -0.000975833 0.999999 
0.000405654 -0.00161193 0.999999 
0.000317624 -0.00234284 0.999997 
0.000273295 -0.0028937 0.999996 
0.000114532 -0.00345473 0.999994 
-5.39625e-05 -0.00395242 0.999992 
-0.000275095 -0.00434673 0.999991 
-0.000529568 -0.00474513 0.999989 
-0.000904657 -0.00502956 0.999987 
-0.00127651 -0.00537932 0.999985 
-0.00174726 -0.00568983 0.999982 
-0.0022299 -0.00633782 0.999977 
-0.00265043 -0.00708619 0.999971 
-0.00288978 -0.00804855 0.999963 
-0.00287367 -0.00891334 0.999956 
-0.00254478 -0.00963169 0.99995 
-0.0019256 -0.00990407 0.999949 
-0.00109963 -0.00944422 0.999955 
-0.000120076 -0.00807453 0.999967 
0.000884202 -0.00558692 0.999984 
0.00197304 -0.00166727 0.999997 
0.00341178 0.00417787 0.999986 
0.00574743 0.0123568 0.999907 
0.00960665 0.0229495 0.999691 
0.0156651 0.0365941 0.999207 
0.0240053 0.0563358 0.998123 
0.0348584 0.0808472 0.996117 
0.0485997 0.112895 0.992418 
0.0512223 0.159768 0.985825 
0.0758662 0.222614 0.97195 
0.0947106 0.313366 0.944898 
0.129589 0.376126 0.917462 
0.0565616 0.560144 0.826462 
0.0680193 0.867625 0.492544 
0.00713857 0.992639 0.1209 
-0.0477889 0.953422 -0.29783 
-0.0612461 0.566821 -0.821561 
-0.129786 0.309314 -0.942062 
-0.0772136 0.279284 -0.957099 
-0.0911554 0.220179 -0.971191 
-0.0666347 0.1458 -0.987068 
-0.0485218 0.109885 -0.992759 
-0.0298996 0.0748345 -0.996748 
-0.0184868 0.0508611 -0.998535 
-0.0122943 0.0335545 -0.999361 
-0.00713104 0.0190348 -0.999793 
-0.00444758 0.00944178 -0.999946 
-0.0022913 0.00211313 -0.999995 
-0.00142331 -0.00307977 -0.999994 
-0.000529217 -0.00667483 -0.999978 
0.000361904 -0.00865524 -0.999963 
0.00129485 -0.00971556 -0.999952 
0.00207217 -0.00985807 -0.999949 
0.0025727 -0.00943133 -0.999952 
0.00284089 -0.00853369 -0.99996 
0.0027856 -0.00758935 -0.999967 
0.0024903 -0.00673335 -0.999974 
0.00203165 -0.00603103 -0.99998 
0.00156143 -0.00555528 -0.999983 
0.00111372 -0.0052429 -0.999986 
0.000721818 -0.00490262 -0.999988 
0.000402778 -0.00459526 -0.999989 
0.000164009 -0.00421585 -0.999991 
-5.71425e-05 -0.00369826 -0.999993 
-0.000156448 -0.00319248 -0.999995 
-0.000267929 -0.00267019 -0.999996 
-0.000326076 -0.00198431 -0.999998 
-0.000397428 -0.00142796 -0.999999 
-0.000462049 -0.000833363 -1 
-0.000373318 -0.000349091 -1 
-0.000467969 5.68617e-05 -1 
-0.000337247 0.000567314 -1 
-0.000260787 0.00317661 -0.999995 
0.00393817 0.055867 -0.99843 
0.0114317 0.0624134 0.997995 
0.0010119 0.00566122 0.999984 
0.00029863 0.000294792 1 
0.000295135 -0.000124718 1 
0.000215493 -0.000668046 1 
0.000289671 -0.001092 0.999999 
0.000171287 -0.00136215 0.999999 
0.000211426 -0.00184447 0.999998 
8.6443e-05 -0.00242592 0.999997 
4.24244e-06 -0.00295786 0.999996 
-0.000165309 -0.00343732 0.999994 
-0.000361961 -0.00381248 0.999993 
-0.0006008 -0.00416518 0.999991 
-0.000885394 -0.00446007 0.99999 
-0.00126258 -0.00469775 0.999988 
-0.00163187 -0.00498698 0.999986 
-0.00209216 -0.00554384 0.999982 
-0.00248564 -0.00628481 0.999977 
-0.00278607 -0.00731848 0.999969 
-0.00286936 -0.00832471 0.999961 
-0.00269797 -0.00931961 0.999953 
-0.00222475 -0.00997284 0.999948 
-0.00140859 -0.010059 0.999948 
-0.000363674 -0.00930555 0.999957 
0.00100463 -0.00747811 0.999972 
0.00271302 -0.004429 0.999987 
0.00500739 0.000189982 0.999987 
0.00826901 0.00670216 0.999943 
0.0131326 0.0151452 0.999799 
0.0202754 0.0252255 0.999476 
0.0303565 0.038529 0.998796 
0.044435 0.0567453 0.997399 
0.0659115 0.0748801 0.995012 
0.0883215 0.106754 0.990355 
0.09702 0.155266 0.983097 
0.12009 0.232561 0.965139 
0.162238 0.316535 0.934604 
0.0992628 0.55001 0.829238 
0.0242896 0.730925 0.682025 
-0.0165674 0.99221 0.12347 
-0.0397286 0.712453 -0.700594 
-0.133144 0.55554 -0.82076 
-0.149792 0.262192 -0.953319 
-0.133019 0.187866 -0.973146 
-0.105553 0.141279 -0.984327 
-0.0869414 0.0981664 -0.991365 
-0.061603 0.0770013 -0.995126 
-0.04386 0.0574723 -0.997383 
-0.0304806 0.0426003 -0.998627 
-0.0208998 0.0289953 -0.999361 
-0.0132362 0.0185145 -0.999741 
-0.00918151 0.00884337 -0.999919 
-0.00547988 0.00207794 -0.999983 
-0.00332777 -0.00300153 -0.99999 
-0.0015095 -0.00660983 -0.999977 
-0.000153484 -0.00888652 -0.999961 
0.000938093 -0.00993013 -0.99995 
0.00185806 -0.0101094 -0.999947 
0.00243956 -0.00965144 -0.99995 
0.00275854 -0.00878424 -0.999958 
0.00278094 -0.0076436 -0.999967 
0.00259616 -0.00661496 -0.999975 
0.00225467 -0.00578623 -0.999981 
0.00184065 -0.00517462 -0.999985 
0.00142561 -0.00479858 -0.999988 
0.00104767 -0.00457735 -0.999989 
0.000711432 -0.00428855 -0.999991 
0.000456569 -0.00398818 -0.999992 
0.000216832 -0.00365163 -0.999993 
9.80454e-05 -0.00314558 -0.999995 
-2.48449e-05 -0.00267278 -0.999996 
-0.000134251 -0.00217368 -0.999998 
-0.000184014 -0.00151549 -0.999999 
-0.000248887 -0.000971146 -1 
-0.000227581 -0.000422733 -1 
-0.000252444 0.000126075 -1 
-0.000222927 0.000801358 -1 
-0.00010435 0.00430132 -0.999991 
-0.000514205 0.0640737 -0.997946 
0.0290729 0.0517297 0.998247 
0.00218272 0.00393105 0.99999 
0.000324942 0.000906916 1 
0.000275563 0.000279199 1 
0.000232073 -0.00016775 1 
0.0001722 -0.00095327 1 
9.7747e-05 -0.00164396 0.999999 
4.8137e-05 -0.00206965 0.999998 
-6.74098e-05 -0.0026109 0.999997 
-0.000190453 -0.00303689 0.999995 
-0.000369767 -0.00338022 0.999994 
-0.000590931 -0.00369965 0.999993 
-0.000846588 -0.00396245 0.999992 
-0.00115141 -0.00419378 0.999991 
-0.0015079 -0.0043753 0.999989 
-0.00187649 -0.00484651 0.999987 
-0.00223567 -0.00549328 0.999982 
-0.00253654 -0.00645736 0.999976 
-0.00268497 -0.00749069 0.999968 
-0.00270741 -0.00861248 0.999959 
-0.0024947 -0.00956032 0.999951 
-0.00200621 -0.0101794 0.999946 
-0.00121147 -0.0102646 0.999947 
-9.43923e-05 -0.00960101 0.999954 
0.00141849 -0.00806733 0.999967 
0.00356123 -0.00541389 0.999979 
0.00658496 -0.00148994 0.999977 
0.0107376 0.00383085 0.999935 
0.0165811 0.0103779 0.999809 
0.0253988 0.0185211 0.999506 
0.0371543 0.0271232 0.998941 
0.0520193 0.03924 0.997875 
0.0752327 0.0494817 0.995938 
0.107079 0.072182 0.991627 
0.138652 0.0973024 0.98555 
0.142459 0.170039 0.975086 
0.190983 0.252792 0.948484 
0.130816 0.623501 0.770801 
0.0408155 0.82761 0.559818 
-0.0122321 0.998937 -0.0444224 
-0.0602737 0.897965 -0.43592 
-0.186069 0.439106 -0.878957 
-0.185753 0.241003 -0.952582 
-0.157828 0.135027 -0.978191 
-0.127394 0.0903027 -0.987733 
-0.0961016 0.0604867 -0.993532 
-0.066294 0.049554 -0.996569 
-0.0474971 0.0363229 -0.998211 
-0.0335363 0.0273628 -0.999063 
-0.0219751 0.0179004 -0.999598 
-0.0151843 0.0102669 -0.999832 
-0.00952598 0.00286674 -0.999951 
-0.00597558 -0.00216594 -0.99998 
-0.00309882 -0.00593857 -0.999978 
-0.00115247 -0.00845224 -0.999964 
0.000274706 -0.00991234 -0.999951 
0.00133217 -0.0103758 -0.999945 
0.00203459 -0.0101474 -0.999946 
0.00248269 -0.00938156 -0.999953 
0.00267044 -0.00836863 -0.999961 
0.00260037 -0.00709958 -0.999971 
0.00240913 -0.0060309 -0.999979 
0.0021093 -0.00519725 -0.999984 
0.00174618 -0.00461894 -0.999988 
0.00137975 -0.00427455 -0.99999 
0.00103521 -0.0041057 -0.999991 
0.000741885 -0.00385005 -0.999992 
0.000481049 -0.00359872 -0.999993 
0.000295881 -0.00328594 -0.999995 
0.000142143 -0.00281763 -0.999996 
2.06122e-05 -0.00237078 -0.999997 
-7.04257e-05 -0.00189211 -0.999998 
-0.000112676 -0.00138789 -0.999999 
-0.000155929 -0.000952189 -1 
-0.000179211 -0.000400474 -1 
-0.000202216 0.000112015 -1 
-0.00025566 0.000679656 -1 
-0.000733169 0.00452593 -0.99999 
-0.012046 0.0471305 -0.998817 
0.0356045 0.0534455 0.997944 
0.00225415 0.00352517 0.999991 
0.000456 0.000761332 1 
0.000306046 0.000121801 1 
0.000227904 -0.000409779 1 
0.000223434 -0.000808244 1 
0.000147715 -0.00132561 0.999999 
8.46635e-05 -0.00181103 0.999998 
-1.10417e-05 -0.0022451 0.999998 
-0.000128207 -0.00264349 0.999997 
-0.000269393 -0.00297365 0.999996 
-0.000475021 -0.00329256 0.999995 
-0.000714581 -0.0035203 0.999994 
-0.000986727 -0.00372867 0.999993 
-0.00127733 -0.00391571 0.999992 
-0.00163016 -0.00426569 0.99999 
-0.00194607 -0.0048395 0.999986 
-0.00221814 -0.00574883 0.999981 
-0.00235948 -0.00678105 0.999974 
-0.00242487 -0.00799185 0.999965 
-0.00233509 -0.00908737 0.999956 
-0.00205837 -0.00996911 0.999948 
-0.00152011 -0.010434 0.999944 
-0.000631444 -0.0103936 0.999946 
0.000600383 -0.0097052 0.999953 
0.00247995 -0.00817096 0.999964 
0.005202 -0.00565071 0.999971 
0.00906934 -0.00210663 0.999957 
0.0144824 0.0021582 0.999893 
0.0223335 0.00743232 0.999723 
0.0329755 0.012271 0.999381 
0.0472975 0.0177627 0.998723 
0.064912 0.0231729 0.997622 
0.0923975 0.0279407 0.99533 
0.124695 0.0437431 0.99123 
0.174592 0.0639007 0.982565 
0.218033 0.205649 0.954028 
0.183521 0.4957 0.848883 
-0.00107971 0.762966 0.646438 
0.107991 0.76973 0.629169 
-0.0353388 0.782685 -0.621415 
-0.0889686 0.419158 -0.903544 
-0.207397 0.184077 -0.960782 
-0.158631 0.050647 -0.986038 
-0.117635 0.0422083 -0.99216 
-0.0870205 0.0226068 -0.99595 
-0.0678744 0.0271194 -0.997325 
-0.051217 0.0178969 -0.998527 
-0.0361263 0.0145535 -0.999241 
-0.0250461 0.0110298 -0.999626 
-0.0170688 0.00457895 -0.999844 
-0.0114981 0.000636535 -0.999934 
-0.00690721 -0.00426843 -0.999967 
-0.00369685 -0.00698181 -0.999969 
-0.00147094 -0.00914042 -0.999957 
1.62621e-06 -0.010267 -0.999947 
0.00107974 -0.0105869 -0.999943 
0.00173908 -0.0103536 -0.999945 
0.00216706 -0.00962526 -0.999951 
0.00236085 -0.00855911 -0.999961 
0.00239765 -0.00742709 -0.99997 
0.00224454 -0.00610944 -0.999979 
0.00204405 -0.00513912 -0.999985 
0.00175678 -0.0044423 -0.999989 
0.00143316 -0.00400799 -0.999991 
0.0011147 -0.00378954 -0.999992 
0.00083623 -0.00361469 -0.999993 
0.000564967 -0.00340821 -0.999994 
0.000353113 -0.00311876 -0.999995 
0.000195555 -0.00280624 -0.999996 
4.01798e-05 -0.00233991 -0.999997 
-5.70903e-05 -0.00189052 -0.999998 
-0.000139391 -0.00133624 -0.999999 
-0.000179765 -0.000784494 -1 
-0.000231779 -0.000291839 -1 
-0.000236997 0.000106485 -1 
-0.000332172 0.000555228 -1 
-0.000998852 0.00255387 -0.999996 
-0.0203502 0.0422234 -0.998902 
0.0352749 0.0595622 0.997609 
0.00228153 0.00394993 0.99999 
0.000470905 0.00062961 1 
0.000382722 0.000200357 1 
0.000308255 -0.000242547 1 
0.000276446 -0.000779033 1 
0.000194047 -0.00134527 0.999999 
0.000129391 -0.00179756 0.999998 
1.22374e-05 -0.00222369 0.999998 
-8.95088e-05 -0.00253296 0.999997 
-0.000265497 -0.00288256 0.999996 
-0.000469729 -0.00314307 0.999995 
-0.000690896 -0.00330601 0.999994 
-0.000944973 -0.00348719 0.999994 
-0.00125836 -0.00376643 0.999992 
-0.00149409 -0.00416709 0.99999 
-0.00178555 -0.00489975 0.999986 
-0.00189151 -0.00582624 0.999981 
-0.00196515 -0.00703703 0.999973 
-0.00192299 -0.00827182 0.999964 
-0.00177293 -0.00941461 0.999954 
-0.0014345 -0.0102401 0.999947 
-0.000886226 -0.0107255 0.999942 
8.5982e-06 -0.0108223 0.999941 
0.00127533 -0.0103575 0.999946 
0.00318214 -0.00928318 0.999952 
0.00598324 -0.00748118 0.999954 
0.00998305 -0.00519083 0.999937 
0.0158732 -0.00239208 0.999871 
0.0239534 0.000101013 0.999713 
0.034614 0.0013564 0.9994 
0.0486707 0.00106738 0.998814 
0.0685932 0.00439993 0.997635 
0.0915713 -0.00126096 0.995798 
0.122265 0.0077269 0.992467 
0.164787 0.0202717 0.986121 
0.159953 0.127688 0.978831 
0.243082 0.38849 0.888812 
0.145955 0.727179 0.670752 
-0.00170808 0.981632 0.190781 
-0.0991311 0.770701 -0.62944 
-0.214854 0.3649 -0.905917 
-0.182756 0.0946818 -0.978589 
-0.16227 0.0172366 -0.986596 
-0.119158 0.00990359 -0.992826 
-0.084363 -0.00398918 -0.996427 
-0.061503 0.00144819 -0.998106 
-0.0438569 0.00135806 -0.999037 
-0.0310702 0.0013417 -0.999516 
-0.0219186 0.000767285 -0.99976 
-0.0149951 -0.00268829 -0.999884 
-0.0100724 -0.00478709 -0.999938 
-0.00586532 -0.00776035 -0.999953 
-0.00318306 -0.00932861 -0.999951 
-0.00136732 -0.0105115 -0.999944 
1.96488e-05 -0.0109273 -0.99994 
0.00085952 -0.0108356 -0.999941 
0.00142627 -0.0102799 -0.999946 
0.00178462 -0.009345 -0.999955 
0.00188773 -0.00819395 -0.999965 
0.00199847 -0.00692701 -0.999974 
0.00183693 -0.00564871 -0.999982 
0.00168803 -0.00469226 -0.999988 