# vtk DataFile Version 3.0 
Exported using Morpho https://github.com/Morpho-lang/morpho 
ASCII 
DATASET UNSTRUCTURED_GRID 

POINTS 1978 float 
-8.48528 -2.82843 -8.56371e-16 
-8.26957 -2.82843 -2.36048e-16 
-8.04829 -2.82843 -2.05219e-17 
-7.76492 -2.82843 -1.81179e-17 
-7.49734 -2.82843 7.07967e-17 
-7.25543 -2.82843 1.46726e-17 
-7.00488 -2.82843 1.84561e-17 
-6.78767 -2.82843 3.65549e-17 
-6.56146 -2.82843 1.99187e-17 
-6.3484 -2.82843 1.99557e-17 
-6.13334 -2.82843 4.01128e-17 
-5.92791 -2.82843 2.65859e-17 
-5.70888 -2.82843 2.8813e-17 
-5.50416 -2.82843 2.17649e-17 
-5.28803 -2.82843 2.39188e-17 
-5.07726 -2.82843 3.42303e-17 
-4.85794 -2.82843 3.80873e-17 
-4.65696 -2.82843 3.53315e-17 
-4.43032 -2.82843 5.49076e-17 
-4.22182 -2.82843 6.20809e-17 
-3.99855 -2.82843 8.25376e-17 
-3.79778 -2.82843 1.13309e-16 
-3.58941 -2.82843 1.84427e-16 
-3.38214 -2.82843 2.81316e-16 
-3.17298 -2.82843 3.89241e-16 
-2.9623 -2.82843 4.75137e-16 
-2.74971 -2.82843 4.78909e-16 
-2.53059 -2.82843 4.38018e-16 
-2.30284 -2.82843 1.02144e-15 
-2.06453 -2.82843 1.84852e-15 
-1.8225 -2.82843 -1.17789e-16 
-1.59902 -2.82843 -7.73166e-15 
-1.32299 -2.82843 -2.48031e-14 
-1.11865 -2.82843 -5.06856e-14 
-0.936138 -2.82843 -1.24888e-13 
-0.759185 -2.82843 -2.67622e-13 
-0.602981 -2.82843 -2.42688e-13 
-0.536462 -2.82843 2.80249e-12 
-0.206861 -2.82843 4.54003e-12 
0.110285 -2.82843 1.25617e-12 
0.258453 -2.82843 4.9998e-13 
0.527716 -2.82843 3.67337e-12 
0.594023 -2.82843 2.34193e-14 
0.734703 -2.82843 7.00808e-14 
0.944162 -2.82843 1.1674e-13 
1.14383 -2.82843 2.77629e-14 
1.36369 -2.82843 1.31778e-14 
1.59618 -2.82843 1.01354e-14 
1.85521 -2.82843 2.65501e-15 
2.10472 -2.82843 -2.209e-15 
2.30674 -2.82843 -1.24236e-15 
2.53084 -2.82843 -5.67171e-16 
2.74288 -2.82843 -4.37619e-16 
2.96705 -2.82843 -3.95984e-16 
3.19397 -2.82843 -3.62985e-16 
3.40161 -2.82843 -2.74131e-16 
3.61356 -2.82843 -1.86844e-16 
3.8097 -2.82843 -1.2476e-16 
4.02279 -2.82843 -8.91083e-17 
4.24552 -2.82843 -5.1578e-17 
4.4429 -2.82843 -5.93458e-17 
4.65991 -2.82843 -4.02578e-17 
4.86849 -2.82843 -3.27096e-17 
5.0711 -2.82843 -2.83563e-17 
5.29228 -2.82843 -1.90326e-17 
5.50178 -2.82843 -1.97737e-17 
5.70316 -2.82843 -1.85231e-17 
5.92326 -2.82843 -2.38758e-17 
6.14061 -2.82843 -2.23033e-17 
6.33692 -2.82843 -2.4111e-17 
6.58623 -2.82843 -1.9424e-17 
6.78997 -2.82843 -3.7036e-17 
6.99349 -2.82843 -3.70881e-17 
7.25815 -2.82843 -1.0889e-17 
7.48806 -2.82843 -2.41021e-17 
7.7315 -2.82843 1.47035e-18 
8.01121 -2.82843 1.08505e-17 
8.19216 -2.82843 4.39196e-16 
8.48528 -2.82843 1.73468e-14 
-8.48528 -2.6027 1.39515e-14 
-8.2545 -2.58441 6.37517e-16 
-8.03978 -2.57095 -2.77032e-18 
-7.8192 -2.63767 1.59526e-20 
-7.54346 -2.628 2.41785e-21 
-7.25494 -2.61491 -2.51439e-20 
-7.01423 -2.59267 -1.0722e-19 
-6.79255 -2.59502 -1.29782e-19 
-6.55742 -2.5944 -1.79921e-19 
-6.33204 -2.5945 -2.0764e-19 
-6.11516 -2.58662 -2.11067e-19 
-5.8937 -2.59857 -1.74949e-19 
-5.68111 -2.57963 -1.58002e-19 
-5.46494 -2.59447 -1.28008e-19 
-5.2482 -2.58916 -8.89298e-20 
-5.02767 -2.60004 -4.44925e-20 
-4.81984 -2.57861 1.08292e-19 
-4.59652 -2.60739 2.12959e-19 
-4.37882 -2.58925 8.24249e-19 
-4.15638 -2.606 3.82015e-19 
-3.94563 -2.582 1.16636e-19 
-3.73441 -2.59223 -1.25747e-18 
-3.51914 -2.59075 -2.6666e-18 
-3.30223 -2.59214 -4.96749e-18 
-3.08212 -2.59096 -4.90675e-17 
-2.85854 -2.58749 -2.59096e-18 
-2.62981 -2.58684 3.36344e-17 
-2.39324 -2.58717 1.55124e-16 
-2.14829 -2.58914 5.29536e-16 
-1.89952 -2.59036 1.66905e-15 
-1.65698 -2.58684 4.49912e-15 
-1.42707 -2.65685 1.3017e-14 
-1.1875 -2.63426 6.11001e-14 
-0.990308 -2.67719 1.5919e-13 
-0.818032 -2.70873 3.40124e-13 
-0.669065 -2.74277 1.12686e-13 
-0.589322 -2.67441 3.61155e-13 
-0.540172 -2.75645 1.54043e-12 
-0.167722 -2.80284 1.0244e-12 
0.135692 -2.77997 2.08718e-12 
0.24777 -2.75643 1.90266e-12 
0.475947 -2.80482 -6.06941e-12 
0.533167 -2.6802 -8.23671e-13 
0.643152 -2.73306 -4.37357e-13 
0.84775 -2.72717 -1.06935e-13 
1.07391 -2.6623 -5.24465e-14 
1.28 -2.63514 -3.09246e-14 
1.51104 -2.60985 -1.0441e-14 
1.76421 -2.61728 -2.34383e-15 
2.03032 -2.60388 -7.75502e-16 
2.27833 -2.56303 -4.03015e-16 
2.50744 -2.59414 -8.86487e-17 
2.75085 -2.58882 -1.27838e-17 
2.99353 -2.6013 8.47639e-18 
3.21803 -2.58697 3.74132e-17 
3.44233 -2.59681 2.68351e-18 
3.64902 -2.57887 1.92376e-18 
3.86489 -2.59738 4.2157e-19 
4.09174 -2.60569 -1.88697e-19 
4.29967 -2.57464 -8.98482e-19 
4.51565 -2.59873 -3.73284e-19 
4.73193 -2.58955 -1.63469e-19 
4.94325 -2.58396 -3.0579e-20 
5.16002 -2.60462 7.49746e-20 
5.38028 -2.59185 1.11849e-19 
5.58902 -2.58086 1.48643e-19 
5.8051 -2.601 1.72947e-19 
6.02911 -2.59619 2.00242e-19 
6.24082 -2.56863 2.14793e-19 
6.46127 -2.62202 1.58095e-19 
6.688 -2.57073 1.67833e-19 
6.89576 -2.56677 1.31127e-19 
7.12558 -2.626 5.77075e-20 
7.37691 -2.59415 3.31858e-20 
7.6145 -2.60793 5.06877e-21 
7.87322 -2.63669 -2.07155e-20 
8.07821 -2.53037 7.5824e-18 
8.29715 -2.64075 -4.10821e-14 
8.48528 -2.53575 -2.25015e-14 
-8.48528 -2.36893 -5.83224e-15 
-8.25667 -2.33803 -2.22231e-15 
-8.00228 -2.3514 1.39881e-18 
-7.75405 -2.42308 2.79626e-21 
-7.57476 -2.25224 -1.42698e-21 
-7.44959 -2.44365 -5.43967e-20 
-7.17947 -2.39367 -8.24583e-20 
-6.94036 -2.34156 -8.59298e-20 
-6.70538 -2.37914 -1.24397e-19 
-6.46786 -2.36646 -1.20949e-19 
-6.24246 -2.35663 -1.07238e-19 
-6.01573 -2.36083 -8.09636e-20 
-5.80266 -2.35379 -6.35118e-20 
-5.57324 -2.35029 -1.90216e-20 
-5.3594 -2.36052 1.09448e-20 
-5.13257 -2.36534 7.70634e-20 
-4.92532 -2.34734 2.39544e-19 
-4.69626 -2.36853 8.3573e-19 
-4.48543 -2.36713 1.44919e-18 
-4.2578 -2.37114 1.54068e-18 
-4.05242 -2.3561 8.9709e-19 
-3.83434 -2.34974 -1.60206e-19 
-3.62407 -2.35928 -1.23694e-18 
-3.40519 -2.35902 -1.71258e-18 
-3.18554 -2.35972 -2.17007e-18 
-2.96119 -2.35644 -2.88801e-20 
-2.72989 -2.3532 1.87959e-17 
-2.49124 -2.35361 1.04333e-16 
-2.24286 -2.35615 4.01331e-16 
-1.98765 -2.35696 1.22474e-15 
-1.73376 -2.35746 4.02058e-15 
-1.47361 -2.41477 1.16633e-14 
-1.2722 -2.45598 2.2759e-14 
-1.02836 -2.50308 6.62143e-14 
-0.852587 -2.55446 4.26916e-14 
-0.706799 -2.61692 3.36367e-13 
-0.544756 -2.58272 1.05493e-12 
-0.421656 -2.77914 7.64542e-12 
-0.136638 -2.77134 -7.76257e-12 
0.0248383 -2.83989 2.16606e-11 
0.191705 -2.80225 -6.88385e-12 
0.397406 -2.78545 3.56179e-13 
0.596803 -2.60611 -2.69129e-13 
0.734654 -2.63887 -4.27883e-13 
0.9115 -2.58491 -8.4991e-14 
1.03097 -2.46367 -6.68504e-14 
1.22027 -2.4496 -1.55315e-14 
1.43974 -2.40791 -8.92408e-15 
1.69065 -2.40227 -4.34469e-15 
1.94222 -2.39067 -1.55142e-15 
2.18982 -2.34748 -4.01801e-16 
2.45768 -2.34999 -1.18399e-16 
2.68891 -2.3645 -2.5233e-17 
2.92967 -2.37127 -1.87522e-19 
3.15059 -2.35423 2.38194e-18 
3.37276 -2.3643 1.75218e-18 
3.58 -2.33912 1.13328e-18 
3.79145 -2.35753 3.82421e-19 
4.00544 -2.37973 -2.93203e-19 
4.21196 -2.34341 -1.27503e-18 
4.43426 -2.35541 -1.40075e-18 
4.64126 -2.35861 -9.61607e-19 
4.85551 -2.34932 -2.90878e-19 
5.07418 -2.36306 -1.16548e-19 
5.284 -2.37113 -2.74282e-20 
5.50026 -2.34453 -1.39651e-21 
5.71985 -2.36008 5.3888e-20 
5.935 -2.37161 8.87232e-20 
6.15092 -2.34004 8.73555e-20 
6.38946 -2.3691 1.3666e-19 
6.59357 -2.36183 1.04088e-19 
6.82715 -2.31287 7.10591e-20 
7.05689 -2.37451 8.04754e-20 
7.27943 -2.39377 5.73634e-20 
7.54458 -2.37614 2.26821e-20 
7.78948 -2.41815 -1.65273e-20 
8.00593 -2.31316 4.87676e-18 
8.27054 -2.37277 5.48455e-14 
8.48528 -2.27535 -4.41609e-15 
-8.48528 -2.11971 -1.01131e-14 
-8.25789 -2.08684 -6.24414e-16 
-8.04789 -2.11576 -4.44948e-18 
-7.80354 -2.17173 -8.85579e-21 
-7.51545 -2.03313 6.46015e-21 
-7.32296 -2.21896 1.35672e-21 
-7.07959 -2.14734 1.36433e-20 
-6.7992 -2.13677 2.04832e-20 
-6.58163 -2.15255 2.35088e-20 
-6.3489 -2.1321 3.67246e-20 
-6.12186 -2.12897 4.48218e-20 
-5.90925 -2.11565 4.58706e-20 
-5.68957 -2.13123 5.22536e-20 
-5.46392 -2.1157 7.46479e-20 
-5.24983 -2.14022 9.38729e-20 
-5.04137 -2.11237 1.53506e-19 
-4.81806 -2.13745 2.66757e-19 
-4.60655 -2.12984 3.9354e-19 
-4.39032 -2.14783 3.97894e-19 
-4.18596 -2.12099 2.70958e-19 
-3.97567 -2.12448 8.31403e-20 
-3.7637 -2.11429 -5.44293e-20 
-3.55389 -2.12934 -1.58493e-19 
-3.33956 -2.12587 9.91556e-20 
-3.1245 -2.12595 2.05025e-18 
-2.90291 -2.12386 3.85158e-17 
-2.67284 -2.12208 1.0237e-17 
-2.43329 -2.12492 2.07402e-17 
-2.18657 -2.12777 4.19208e-17 
-1.93722 -2.12758 6.90681e-17 
-1.67956 -2.1523 -5.71246e-16 
-1.45196 -2.17553 2.1111e-15 
-1.25251 -2.21204 1.13709e-14 
-1.09442 -2.32711 3.15629e-15 
-0.9001 -2.36695 -3.72501e-14 
-0.735625 -2.4641 -5.90184e-14 
-0.597432 -2.50021 -2.95295e-13 
-0.47429 -2.70721 -8.83917e-13 
-0.238057 -2.75001 1.71716e-11 
-0.0235289 -2.815 -1.60735e-11 
0.108762 -2.74055 1.27579e-12 
0.45196 -2.71694 -7.77237e-13 
0.637553 -2.50404 1.46691e-12 
0.78386 -2.48881 8.63499e-14 
0.873947 -2.35579 3.62876e-14 
1.07041 -2.26279 1.75341e-16 
1.26136 -2.22403 -4.80898e-15 
1.50712 -2.19766 -1.34196e-15 
1.75328 -2.18354 -5.117e-16 
1.99806 -2.15109 -1.30673e-16 
2.2743 -2.14058 -2.82723e-17 
2.51217 -2.11576 -1.75095e-17 
2.75028 -2.14314 -8.43029e-18 
2.97221 -2.12777 -3.93705e-18 
3.20085 -2.12734 -1.29107e-18 
3.40829 -2.11887 -8.82323e-21 
3.62731 -2.10863 6.05892e-20 
3.84316 -2.13222 -3.1732e-21 
4.04398 -2.13132 -1.23931e-19 
4.27457 -2.12307 -3.05401e-19 
4.48251 -2.11358 -3.96226e-19 
4.69496 -2.12371 -3.25353e-19 
4.91629 -2.12495 -2.05061e-19 
5.12879 -2.12689 -1.23301e-19 
5.33722 -2.13435 -8.06251e-20 
5.56581 -2.12114 -6.11873e-20 
5.78161 -2.12917 -5.33694e-20 
5.99206 -2.12938 -4.85182e-20 
6.23996 -2.13617 -3.97772e-20 
6.44606 -2.11046 -3.26101e-20 
6.66118 -2.12245 -2.49477e-20 
6.92744 -2.10727 -1.84265e-20 
7.14601 -2.14121 -9.96588e-21 
7.38214 -2.18392 -4.22103e-21 
7.57948 -2.08599 -1.59084e-21 
7.75357 -2.18903 8.56941e-21 
7.9622 -2.078 -8.85157e-19 
8.20429 -2.15123 4.15928e-15 
8.48528 -2.08764 -3.44265e-15 
-8.48528 -1.82065 6.12705e-15 
-8.30308 -1.84206 -7.67335e-15 
-7.89866 -1.91724 -2.08894e-21 
[...]
POINT_DATA 1978 
VECTORS vectors float
0.000935148 0.0282615 0.9996 
-0.000473979 0.00256787 0.999997 
0.000128789 0.000937487 1 
-9.02071e-05 0.000120081 1 
3.55993e-05 -0.000547222 1 
-1.30997e-05 -0.00124763 0.999999 
-4.30664e-06 -0.00196378 0.999998 
-4.25448e-06 -0.00268866 0.999996 
-4.25773e-06 -0.00341577 0.999994 
-3.43883e-06 -0.00409902 0.999992 
-3.06248e-06 -0.00478072 0.999989 
-2.30652e-06 -0.00538714 0.999985 
-1.64799e-06 -0.00597917 0.999982 
-7.95994e-07 -0.00647933 0.999979 
3.22567e-07 -0.00698198 0.999976 
8.30482e-07 -0.0074485 0.999972 
1.79298e-06 -0.00794999 0.999968 
1.94124e-06 -0.00843625 0.999964 
2.88673e-06 -0.00900178 0.999959 
3.07283e-06 -0.0094905 0.999955 
3.82984e-06 -0.00982542 0.999952 
4.36845e-06 -0.00982737 0.999952 
6.03225e-06 -0.00934663 0.999956 
8.02587e-06 -0.0084072 0.999965 
1.12806e-05 -0.00698731 0.999976 
1.58073e-05 -0.00458049 0.99999 
2.4679e-05 -0.000102706 1 
3.74025e-05 0.0074035 0.999973 
5.06205e-05 0.0184086 0.999831 
7.28254e-05 0.0334417 0.999441 
0.000107246 0.0538429 0.998549 
0.000237688 0.0803472 0.996767 
0.000275118 0.131207 0.991355 
0.000231701 0.188086 0.982153 
-9.80616e-06 0.259932 0.965627 
0.000259977 0.359804 0.933028 
-0.000324231 0.470924 0.882174 
0.000131207 0.522797 0.852457 
6.7052e-05 0.893435 0.449192 
-0.00011508 0.98423 -0.176895 
-0.000206066 0.828371 -0.56018 
-0.000248435 0.510011 -0.860168 
0.000516326 0.453855 -0.891075 
-0.000401989 0.366536 -0.930404 
-7.7015e-05 0.260645 -0.965435 
-0.000317635 0.179926 -0.98368 
-0.000224225 0.1222 -0.992505 
-0.000188815 0.0821784 -0.996618 
-0.000122587 0.0513769 -0.998679 
-6.35735e-05 0.0312946 -0.99951 
-4.03981e-05 0.0189492 -0.99982 
-3.31133e-05 0.00759857 -0.999971 
-2.79631e-05 -0.000375874 -1 
-2.04586e-05 -0.00525616 -0.999986 
-1.26941e-05 -0.00743671 -0.999972 
-6.40357e-06 -0.00841473 -0.999965 
-4.44866e-06 -0.00913201 -0.999958 
-4.00901e-06 -0.00963447 -0.999954 
-4.07152e-06 -0.00973485 -0.999953 
-2.96758e-06 -0.00941787 -0.999956 
-2.18991e-06 -0.00896603 -0.99996 
-1.8956e-06 -0.00843473 -0.999964 
-1.40989e-06 -0.00795768 -0.999968 
-9.78357e-07 -0.00752435 -0.999972 
-1.72571e-07 -0.00703637 -0.999975 
7.09904e-07 -0.00654095 -0.999979 
1.80872e-06 -0.00600693 -0.999982 
2.68096e-06 -0.00539018 -0.999985 
3.07566e-06 -0.00473363 -0.999989 
4.22151e-06 -0.00410309 -0.999992 
4.44356e-06 -0.00330334 -0.999995 
3.6613e-06 -0.00263243 -0.999997 
3.44693e-06 -0.00196554 -0.999998 
1.77014e-05 -0.00120266 -0.999999 
-4.94213e-05 -0.000568396 -1 
9.17275e-05 5.81037e-05 -1 
-9.30624e-05 0.000780333 -1 
0.000439171 0.00142234 -0.999999 
-0.000471462 0.0379729 -0.999279 
0.034841 0.102897 0.994082 
0.00227629 0.0075331 0.999969 
0.000598381 0.00119425 0.999999 
0.000318085 0.000287765 1 
0.000364648 -0.000443318 1 
0.000387494 -0.0012427 0.999999 
0.000544275 -0.00189724 0.999998 
0.000451348 -0.00257352 0.999997 
0.000446071 -0.00327493 0.999995 
0.000381603 -0.00395254 0.999992 
0.000296138 -0.00455355 0.99999 
0.000125975 -0.00515952 0.999987 
-3.83397e-05 -0.0056264 0.999984 
-0.000264768 -0.00610606 0.999981 
-0.000566271 -0.00653452 0.999978 
-0.000872989 -0.00703687 0.999975 
-0.00130937 -0.00746918 0.999971 
-0.00142874 -0.00815304 0.999966 
-0.00175134 -0.00873742 0.99996 
-0.00160087 -0.00933079 0.999955 
-0.00163826 -0.00962253 0.999952 
-0.00129625 -0.00950123 0.999954 
-0.0010009 -0.00878699 0.999961 
-0.000854034 -0.00737115 0.999972 
-0.000966783 -0.0049937 0.999987 
-0.00125546 -0.000967128 0.999999 
-0.00142414 0.00557429 0.999983 
-0.00133838 0.0152826 0.999882 
-0.000865189 0.0287434 0.999586 
-2.76207e-05 0.0473759 0.998877 
0.00126817 0.0727811 0.997347 
0.00246519 0.108429 0.994101 
0.00288059 0.165483 0.986208 
0.00532904 0.236622 0.971587 
0.00696303 0.323336 0.946259 
0.014269 0.420387 0.907233 
0.0572312 0.464716 0.883608 
0.000339515 0.565135 0.824998 
0.0163003 0.94104 0.337902 
-0.0268668 0.972656 -0.230692 
-0.0541007 0.844982 -0.532051 
0.00594443 0.572904 -0.819601 
-0.0540945 0.472726 -0.879548 
-0.0220578 0.397105 -0.917508 
-0.0123547 0.292308 -0.956245 
-0.0110608 0.20209 -0.979305 
-0.0052231 0.141021 -0.989993 
-0.00256641 0.0942762 -0.995543 
-0.00122916 0.0610711 -0.998133 
0.00020986 0.0376393 -0.999291 
0.00199221 0.0215979 -0.999765 
0.00167217 0.0104138 -0.999944 
0.00151105 0.00130994 -0.999998 
0.00105605 -0.00414247 -0.999991 
0.000842514 -0.00678184 -0.999977 
0.000814679 -0.00829434 -0.999965 
0.00113506 -0.00913215 -0.999958 
0.00136516 -0.00952436 -0.999954 
0.00153616 -0.00941262 -0.999955 
0.0018496 -0.00891901 -0.999959 
0.0015674 -0.00835845 -0.999964 
0.00138411 -0.00774093 -0.999969 
0.00109289 -0.00720816 -0.999973 
0.000665895 -0.0068042 -0.999977 
0.000371367 -0.00631727 -0.99998 
0.000120219 -0.00584997 -0.999983 
-8.01555e-05 -0.00538134 -0.999986 
-0.000238127 -0.0047899 -0.999989 
-0.00038666 -0.00416439 -0.999991 
-0.000350961 -0.00356214 -0.999994 
-0.000519759 -0.00284333 -0.999996 
-0.000550981 -0.00222316 -0.999997 
-0.000395588 -0.0015646 -0.999999 
-0.000493048 -0.000868884 -1 
-0.000441599 -0.000249168 -1 
-0.000352711 0.000427485 -1 
-0.000720731 0.00145687 -0.999999 
-0.0034129 0.0104447 -0.99994 
-0.0479289 0.147829 -0.987851 
0.0031783 0.0937685 0.995589 
0.000517366 0.00692861 0.999976 
0.000574803 0.000822883 0.999999 
0.000653382 5.4714e-05 1 
0.000566534 -0.000395724 1 
0.00070637 -0.000695353 1 
0.000661129 -0.00140283 0.999999 
0.000585718 -0.00206705 0.999998 
0.000578306 -0.00270607 0.999996 
0.000467691 -0.00334253 0.999994 
0.000322132 -0.00394567 0.999992 
0.000148131 -0.00450056 0.99999 
-8.01521e-05 -0.00493326 0.999988 
-0.000399822 -0.00535422 0.999986 
-0.000756471 -0.0057443 0.999983 
-0.00122408 -0.00615367 0.99998 
-0.00173946 -0.00655028 0.999977 
-0.00223127 -0.00725931 0.999971 
-0.00259767 -0.00798186 0.999965 
-0.0027158 -0.0088215 0.999957 
-0.00255883 -0.0094344 0.999952 
-0.0020898 -0.00971159 0.999951 
-0.00144516 -0.00936995 0.999955 
-0.000763224 -0.00818565 0.999966 
-0.000298032 -0.00595651 0.999982 
-0.000127158 -0.00232148 0.999997 
-1.43976e-05 0.00330608 0.999995 
0.000495609 0.0114976 0.999934 
0.00181916 0.0228164 0.999738 
0.00449335 0.0380595 0.999265 
0.00906741 0.05935 0.998196 
0.0119055 0.0938693 0.995513 
0.0174651 0.131392 0.991177 
0.0279979 0.20812 0.977702 
0.0454653 0.292232 0.955266 
0.0450088 0.374772 0.926024 
0.106069 0.444636 0.889409 
0.021948 0.616091 0.787369 
0.0525939 0.927053 0.371224 
-0.0078171 0.999561 -0.0285668 
-0.00190154 0.92623 -0.376954 
-0.0119335 0.645868 -0.763356 
-0.109191 0.415434 -0.903046 
-0.046244 0.347154 -0.936667 
-0.0336848 0.252042 -0.96713 
-0.0387378 0.192177 -0.980595 
-0.0241521 0.13766 -0.990185 
-0.0153974 0.0972851 -0.995137 
-0.00769467 0.0656082 -0.997816 
-0.00358431 0.0428381 -0.999076 
-0.00244589 0.0260858 -0.999657 
-9.55885e-05 0.0128053 -0.999918 
0.000616306 0.00440369 -0.99999 
0.000486695 -0.00184512 -0.999998 
0.000249268 -0.00560721 -0.999984 
0.000591849 -0.00792144 -0.999968 
0.0011737 -0.0091522 -0.999957 
0.00185932 -0.00962033 -0.999952 
0.00236132 -0.00948582 -0.999952 
0.00266939 -0.00893625 -0.999957 
0.00262993 -0.00814538 -0.999963 
0.00235087 -0.00741966 -0.99997 
0.00192106 -0.00675079 -0.999975 
0.00137299 -0.00628098 -0.999979 
0.000894136 -0.00591486 -0.999982 
0.00052144 -0.00548354 -0.999985 
0.000165268 -0.0051234 -0.999987 
-9.64481e-05 -0.00469169 -0.999989 
-0.000252389 -0.00413567 -0.999991 
-0.000442376 -0.00355379 -0.999994 
-0.000523003 -0.00299266 -0.999995 
-0.000532313 -0.00232362 -0.999997 
-0.000630505 -0.00171612 -0.999998 
-0.000657873 -0.00111968 -0.999999 
-0.000646708 -0.000437307 -1 
-0.000655728 0.00017595 -1 
-0.00056705 0.000869843 -0.999999 
-0.00163386 0.00832345 -0.999964 
0.00128589 0.0775295 -0.996989 
-0.00963322 0.0883376 0.996044 
-0.000164994 0.00536016 0.999986 
0.000336265 0.000844709 1 
0.000460651 0.000124262 1 
0.000348084 -0.000507753 1 
0.000516124 -0.000976265 0.999999 
0.000405632 -0.00161127 0.999999 
0.000317996 -0.00234167 0.999997 
0.000273052 -0.00289258 0.999996 
0.000114714 -0.00345302 0.999994 
-5.38208e-05 -0.00395065 0.999992 
-0.000274874 -0.00434486 0.999991 
-0.000529251 -0.00474298 0.999989 
-0.000903918 -0.00502796 0.999987 
-0.00127552 -0.0053786 0.999985 
-0.0017457 -0.00568987 0.999982 
-0.00222721 -0.00633787 0.999977 
-0.00264642 -0.00708553 0.999971 
-0.00288488 -0.00804602 0.999963 
-0.00286868 -0.00890854 0.999956 
-0.00254059 -0.00962429 0.99995 
-0.00192283 -0.00989452 0.999949 
-0.00109867 -0.00943378 0.999955 
-0.000121562 -0.00806437 0.999967 
0.000880951 -0.00557783 0.999984 
0.00196969 -0.00165969 0.999997 
0.00341057 0.00418087 0.999985 
0.0057459 0.0123529 0.999907 
0.00960225 0.0229442 0.999691 
0.0156584 0.036586 0.999208 
0.0239984 0.0563272 0.998124 
0.0348577 0.0808628 0.996116 
0.048619 0.112854 0.992421 
0.0512637 0.159775 0.985822 
0.0759006 0.222563 0.971959 
0.0947092 0.313256 0.944934 
0.129618 0.376166 0.917441 
0.0561804 0.560065 0.826542 
0.0685567 0.867287 0.493065 
0.00625575 0.993238 0.115928 
-0.0480929 0.953737 -0.29677 
-0.0609385 0.566941 -0.821501 
-0.129807 0.309858 -0.94188 
-0.0773719 0.279061 -0.957151 
-0.09106 0.219878 -0.971268 
-0.0666574 0.145855 -0.987058 
-0.0485122 0.109823 -0.992767 
-0.0299076 0.0748425 -0.996747 
-0.0184942 0.05087 -0.998534 
-0.0122912 0.0335493 -0.999361 
-0.00712689 0.019033 -0.999793 
-0.00444717 0.00943815 -0.999946 
-0.00229028 0.0021168 -0.999995 
-0.00142023 -0.00307217 -0.999994 
-0.000525858 -0.00666491 -0.999978 
0.000362608 -0.00864516 -0.999963 
0.00129343 -0.00970528 -0.999952 
0.00206904 -0.00984899 -0.999949 
0.00256843 -0.0094247 -0.999952 
0.00283615 -0.00852989 -0.99996 
0.00278112 -0.00758772 -0.999967 
0.00248669 -0.00673317 -0.999974 
0.00202946 -0.00603105 -0.99998 
0.00155994 -0.00555502 -0.999983 
0.00111297 -0.00524178 -0.999986 
0.000721357 -0.00490084 -0.999988 
0.000402492 -0.00459316 -0.999989 
0.000163827 -0.00421384 -0.999991 
-5.72344e-05 -0.00369653 -0.999993 
-0.000156622 -0.00319104 -0.999995 
-0.000268016 -0.00266898 -0.999996 
-0.000326268 -0.00198342 -0.999998 
-0.000397486 -0.00142744 -0.999999 
-0.000461883 -0.000833232 -1 
-0.000373684 -0.000349126 -1 
-0.000467605 5.75832e-05 -1 
-0.000337479 0.000579573 -1 
-0.000255279 0.00344324 -0.999994 
0.00396226 0.056035 -0.998421 
0.0112594 0.0619636 0.998015 
0.00111228 0.00629651 0.99998 
0.000299309 0.000297432 1 
0.000295509 -0.000124912 1 
0.000216133 -0.000667935 1 
0.000290313 -0.00109137 0.999999 
0.000171904 -0.00136146 0.999999 
0.000211952 -0.00184399 0.999998 
8.69902e-05 -0.00242477 0.999997 
4.79757e-06 -0.00295628 0.999996 
-0.000164707 -0.00343566 0.999994 
-0.000361493 -0.00381053 0.999993 
-0.000600104 -0.00416326 0.999991 
-0.000884599 -0.00445846 0.99999 
-0.00126177 -0.004697 0.999988 
-0.00163076 -0.00498706 0.999986 
-0.00209032 -0.0055444 0.999982 
-0.00248309 -0.00628492 0.999977 
-0.0027827 -0.00731691 0.999969 
-0.00286548 -0.00832092 0.999961 
-0.002694 -0.00931333 0.999953 
-0.00222152 -0.00996409 0.999948 
-0.00140663 -0.0100481 0.999949 
-0.000363092 -0.00929376 0.999957 
0.00100338 -0.00746706 0.999972 
0.00270973 -0.00441927 0.999987 
0.00500209 0.000196484 0.999987 
0.00826182 0.00670293 0.999943 
0.0131214 0.015137 0.999799 
0.0202613 0.0252154 0.999477 
0.0303384 0.0385318 0.998797 
0.0444234 0.056721 0.997401 
0.0659218 0.0748844 0.995011 
0.088257 0.106812 0.990354 
0.0970637 0.155215 0.983101 
0.12022 0.232616 0.96511 
0.162332 0.316286 0.934672 
0.0996666 0.549627 0.829444 
0.0231491 0.730193 0.682849 
-0.0162661 0.992061 0.1247 
-0.0407391 0.711686 -0.701316 
-0.133491 0.555288 -0.820875 
-0.149836 0.26225 -0.953297 
-0.133057 0.187958 -0.973123 
-0.105545 0.141207 -0.984338 
-0.0869274 0.098152 -0.991368 
-0.0615705 0.0770196 -0.995127 
-0.0438388 0.0574508 -0.997385 
-0.0304661 0.042582 -0.998628 
-0.0208932 0.0289856 -0.999361 
-0.0132316 0.0185089 -0.999741 
-0.00917361 0.00884325 -0.999919 
-0.00547351 0.00208236 -0.999983 
-0.00332319 -0.00299334 -0.99999 
-0.00150719 -0.00659892 -0.999977 
-0.00015337 -0.00887456 -0.999961 
0.00093689 -0.00991865 -0.99995 
0.0018555 -0.0100997 -0.999947 
0.00243601 -0.00964401 -0.999951 
0.00275464 -0.00877938 -0.999958 
0.0027774 -0.00764128 -0.999967 
0.00259321 -0.00661457 -0.999975 
0.00225248 -0.00578666 -0.999981 
0.00183908 -0.00517507 -0.999985 
0.00142453 -0.00479821 -0.999987 
0.00104689 -0.00457611 -0.999989 
0.000710847 -0.00428675 -0.999991 
0.000456 -0.00398625 -0.999992 
0.00021629 -0.00364981 -0.999993 
9.74784e-05 -0.00314398 -0.999995 
-2.542e-05 -0.00267149 -0.999996 
-0.000134823 -0.00217264 -0.999998 
-0.000184637 -0.00151479 -0.999999 
-0.000249539 -0.000970856 -0.999999 
-0.000228178 -0.000422793 -1 
-0.000253014 0.00012703 -1 
-0.000224318 0.000830538 -1 
-9.73515e-05 0.00472065 -0.999989 
-0.000491572 0.0639546 -0.997953 
0.0288976 0.051501 0.998255 
0.00241098 0.00434408 0.999988 
0.000333825 0.000954136 0.999999 
0.000277006 0.000280884 1 
0.000232761 -0.000167887 1 
0.000172674 -0.000952714 1 
9.8231e-05 -0.0016432 0.999999 
4.8712e-05 -0.00206865 0.999998 
-6.69516e-05 -0.00260963 0.999997 
-0.000189955 -0.00303531 0.999995 
-0.000369212 -0.00337852 0.999994 
-0.000590377 -0.00369793 0.999993 
-0.000845946 -0.00396088 0.999992 
-0.0011506 -0.00419295 0.999991 
-0.00150672 -0.00437547 0.999989 
-0.00187485 -0.0048473 0.999986 
-0.00223354 -0.00549409 0.999982 
-0.00253389 -0.00645689 0.999976 
-0.00268178 -0.00748838 0.999968 
-0.00270341 -0.00860798 0.999959 
-0.00249025 -0.00955373 0.999951 
-0.00200186 -0.0101708 0.999946 
-0.00120774 -0.0102542 0.999947 
-9.14798e-05 -0.00958923 0.999954 
0.00142118 -0.00805576 0.999967 
0.00356168 -0.00540363 0.999979 
0.00658155 -0.00148152 0.999977 
0.0107319 0.00383535 0.999935 
0.0165751 0.0103751 0.999809 
0.025385 0.0185131 0.999506 
0.0371378 0.0271207 0.998942 
0.0520066 0.0392284 0.997876 
0.0752607 0.0494972 0.995935 
0.107007 0.0720964 0.991641 
0.138346 0.0973792 0.985585 
0.142272 0.170051 0.975111 
0.191024 0.252871 0.948455 
0.130202 0.624714 0.769922 
0.0407754 0.827456 0.560048 
-0.012461 0.998935 -0.0444224 
-0.0606196 0.897891 -0.436024 
-0.185962 0.439648 -0.878708 
-0.185755 0.240784 -0.952637 
-0.157714 0.135123 -0.978196 
-0.127364 0.0902738 -0.987739 
-0.0960283 0.0604865 -0.993539 
-0.0663158 0.049549 -0.996568 
-0.0474772 0.0363058 -0.998212 
-0.033516 0.0273506 -0.999064 
-0.0219678 0.0178943 -0.999599 
-0.0151733 0.0102661 -0.999832 
-0.00951954 0.00287018 -0.999951 
-0.00597208 -0.00215699 -0.99998 
-0.00309903 -0.00592811 -0.999978 
-0.00115514 -0.00844025 -0.999964 
0.000271278 -0.00990043 -0.999951 
0.00132865 -0.0103653 -0.999945 
0.0020304 -0.0101391 -0.999947 
0.00247858 -0.00937543 -0.999953 
0.00266671 -0.00836466 -0.999961 
0.0025973 -0.00709812 -0.999971 
0.00240665 -0.00603111 -0.999979 
0.00210726 -0.00519814 -0.999984 
0.00174461 -0.00461962 -0.999988 
0.00137868 -0.00427443 -0.99999 
0.00103442 -0.00410463 -0.999991 
0.000741242 -0.00384848 -0.999992 
0.000480559 -0.00359691 -0.999993 
0.000295409 -0.00328425 -0.999995 
0.000141731 -0.00281624 -0.999996 
2.02027e-05 -0.00236958 -0.999997 
-7.09709e-05 -0.00189117 -0.999998 
-0.000113153 -0.00138722 -0.999999 
-0.000156527 -0.000951832 -1 
-0.000179807 -0.000400548 -1 
-0.000203016 0.000112587 -1 
-0.000260442 0.000699242 -1 
-0.000795329 0.00497952 -0.999987 
-0.0119803 0.0470657 -0.99882 
0.0355175 0.0532998 0.997947 
0.00247497 0.00386268 0.999989 
0.000471296 0.000787028 1 
0.000306674 0.000122071 1 
0.000228273 -0.000409804 1 
0.00022337 -0.000808247 1 
0.000147841 -0.00132496 0.999999 
8.46578e-05 -0.00181011 0.999998 
-1.0755e-05 -0.00224383 0.999997 
-0.000128025 -0.00264211 0.999997 
-0.000269171 -0.00297229 0.999996 
-0.000474569 -0.00329099 0.999994 
-0.000714011 -0.00351899 0.999994 
-0.000985869 -0.0037278 0.999993 
-0.00127622 -0.00391569 0.999992 
-0.00162861 -0.0042667 0.99999 
-0.00194403 -0.00484065 0.999986 
-0.00221574 -0.00574921 0.999981 
-0.0023567 -0.0067799 0.999974 
-0.00242153 -0.00798854 0.999965 
-0.00233099 -0.00908239 0.999956 
-0.00205345 -0.00996264 0.999948 
-0.00151446 -0.0104263 0.999944 
-0.000625587 -0.0103845 0.999946 
0.000606992 -0.00969497 0.999953 
0.00248668 -0.0081603 0.999964 
0.005207 -0.0056411 0.999971 
0.00907255 -0.00210011 0.999957 
0.0144834 0.00216121 0.999893 
0.022331 0.00742983 0.999723 
0.0329682 0.012266 0.999381 
0.0472877 0.017746 0.998724 
0.0649043 0.0231733 0.997622 
0.0923701 0.0279515 0.995332 
0.124797 0.04378 0.991216 
0.174346 0.06391 0.982608 
0.217724 0.205268 0.954181 
0.183573 0.496308 0.848516 
-0.00126812 0.76309 0.646291 
0.107294 0.769669 0.629363 
-0.0349801 0.782038 -0.622249 
-0.0888795 0.418785 -0.903725 
-0.207186 0.184235 -0.960797 
-0.158499 0.0507503 -0.986054 
-0.117621 0.0421563 -0.992163 
-0.0869942 0.0225881 -0.995953 
-0.0678775 0.0271023 -0.997325 
-0.0511921 0.0179018 -0.998528 
-0.0361281 0.014546 -0.999241 
-0.0250535 0.0110266 -0.999625 
-0.0170666 0.00458263 -0.999844 
-0.0114963 0.000640848 -0.999934 
-0.00690986 -0.00426027 -0.999967 
-0.0037028 -0.00697198 -0.999969 
-0.0014779 -0.00912977 -0.999957 
-4.92058e-06 -0.0102571 -0.999947 
0.00107414 -0.0105778 -0.999943 
0.0017339 -0.0103462 -0.999945 
0.00216267 -0.00961943 -0.999951 
0.00235719 -0.0085549 -0.999961 
0.0023945 -0.00742468 -0.99997 
0.00224193 -0.00610927 -0.999979 
0.00204179 -0.00514017 -0.999985 
0.001755 -0.00444351 -0.999989 
0.00143181 -0.00400855 -0.999991 
0.0011137 -0.00378907 -0.999992 
0.000835534 -0.00361354 -0.999993 
0.000564466 -0.00340667 -0.999994 
0.000352799 -0.00311725 -0.999995 
0.000195298 -0.00280482 -0.999996 
4.00493e-05 -0.00233871 -0.999997 
-5.72133e-05 -0.00188955 -0.999998 
-0.000139435 -0.00133557 -0.999999 
-0.000179926 -0.000784234 -1 
-0.000231823 -0.000291965 -1 
-0.000237483 0.000106763 -1 
-0.000337032 0.000566217 -1 
-0.00107984 0.00276493 -0.999996 
-0.0203879 0.0422392 -0.998899 
0.0352133 0.0594451 0.99761 
0.00248598 0.00430287 0.999988 
0.000481198 0.000645282 1 
0.000383167 0.000201242 1 
0.000307999 -0.000242788 1 
0.000276073 -0.000778775 1 
0.000193772 -0.00134464 0.999999 
0.000129158 -0.00179665 0.999998 
1.2133e-05 -0.00222265 0.999998 
-8.95606e-05 -0.00253163 0.999997 
-0.000265369 -0.00288134 0.999996 
-0.000469355 -0.00314162 0.999995 
-0.000690388 -0.00330514 0.999994 
-0.000944066 -0.00348662 0.999993 
-0.00125716 -0.00376698 0.999992 
-0.00149248 -0.00416815 0.99999 
-0.00178364 -0.00490081 0.999986 
-0.00188934 -0.00582626 0.999981 
-0.00196285 -0.0070351 0.999973 
-0.00192048 -0.00826809 0.999964 
-0.00176987 -0.00940945 0.999954 
-0.00143085 -0.0102342 0.999947 
-0.000881576 -0.0107191 0.999942 
1.34058e-05 -0.0108146 0.999942 
0.00128117 -0.0103485 0.999946 
0.00318924 -0.00927438 0.999952 
0.00599014 -0.00747343 0.999954 
0.00998962 -0.00518553 0.999937 
0.0158766 -0.00238934 0.999871 
0.0239516 0.000100585 0.999713 
0.0346208 0.00135872 0.9994 
0.0486659 0.0010727 0.998815 
0.0685757 0.00438082 0.997636 
0.0915404 -0.00125638 0.995801 
0.122269 0.0077278 0.992467 
0.164735 0.0201862 0.986131 
0.160314 0.127546 0.978791 
0.243042 0.388185 0.888956 
0.146325 0.726587 0.671312 
-0.00140529 0.981686 0.190503 
-0.0988157 0.772393 -0.627411 
-0.214612 0.365442 -0.905756 
-0.1828 0.0947329 -0.978575 
-0.16218 0.0171666 -0.986612 
-0.119136 0.00989454 -0.992829 
-0.0843736 -0.00397397 -0.996426 
-0.0614989 0.00145088 -0.998106 
-0.0438591 0.00135195 -0.999037 
-0.0310704 0.00134008 -0.999516 
-0.0219276 0.000769074 -0.999759 
-0.0149961 -0.00268573 -0.999884 
-0.010075 -0.00477977 -0.999938 
-0.00587104 -0.00775286 -0.999953 
-0.00319027 -0.0093198 -0.999951 
-0.00137307 -0.0105029 -0.999944 
1.46757e-05 -0.0109194 -0.99994 
0.000855133 -0.0108286 -0.999941 
0.00142253 -0.0102738 -0.999946 
0.00178158 -0.00934018 -0.999955 
0.00188529 -0.00819054 -0.999965 
0.0019961 -0.00692533 -0.999974 