# vtk DataFile Version 3.0 
Exported using Morpho https://github.com/Morpho-lang/morpho 
ASCII 
DATASET UNSTRUCTURED_GRID 

POINTS 1978 float 
-8.48528 -2.82843 5.52702e-14 
-8.26957 -2.82843 3.44701e-15 
-8.04829 -2.82843 -2.67553e-15 
-7.76492 -2.82843 -2.16439e-15 
-7.49734 -2.82843 8.461e-15 
-7.25543 -2.82843 1.74436e-15 
-7.00488 -2.82843 2.18866e-15 
-6.78767 -2.82843 4.34927e-15 
-6.56146 -2.82843 2.35517e-15 
-6.3484 -2.82843 2.36036e-15 
-6.13334 -2.82843 4.77622e-15 
-5.92791 -2.82843 3.1703e-15 
-5.70888 -2.82843 3.4507e-15 
-5.50416 -2.82843 2.62786e-15 
-5.28803 -2.82843 2.91266e-15 
-5.07726 -2.82843 4.18347e-15 
-4.85794 -2.82843 4.68928e-15 
-4.65696 -2.82843 4.41116e-15 
-4.43032 -2.82843 6.7898e-15 
-4.22182 -2.82843 7.59717e-15 
-3.99855 -2.82843 9.93991e-15 
-3.79778 -2.82843 1.34527e-14 
-3.58941 -2.82843 2.18551e-14 
-3.38214 -2.82843 3.33881e-14 
-3.17298 -2.82843 4.62347e-14 
-2.9623 -2.82843 5.65498e-14 
-2.74971 -2.82843 5.80148e-14 
-2.53059 -2.82843 5.66122e-14 
-2.30284 -2.82843 1.32745e-13 
-2.06453 -2.82843 2.37897e-13 
-1.8225 -2.82843 -7.79559e-15 
-1.59902 -2.82843 -9.37391e-13 
-1.32299 -2.82843 -3.32946e-12 
-1.11865 -2.82843 -7.39263e-12 
-0.93614 -2.82843 -1.97471e-11 
-0.759185 -2.82843 -5.53024e-11 
-0.602946 -2.82843 -8.88228e-11 
-0.536494 -2.82843 -5.05094e-10 
-0.206824 -2.82843 -2.14675e-09 
0.110333 -2.82843 1.80092e-09 
0.258428 -2.82843 9.40681e-10 
0.527716 -2.82843 2.79786e-10 
0.594025 -2.82843 6.79838e-11 
0.734703 -2.82843 5.29944e-11 
0.94416 -2.82843 2.76391e-11 
1.14383 -2.82843 6.95619e-12 
1.36369 -2.82843 2.17075e-12 
1.59618 -2.82843 1.31949e-12 
1.85521 -2.82843 3.19134e-13 
2.10472 -2.82843 -2.81254e-13 
2.30674 -2.82843 -1.59484e-13 
2.53084 -2.82843 -7.29115e-14 
2.74288 -2.82843 -5.35336e-14 
2.96705 -2.82843 -4.67161e-14 
3.19397 -2.82843 -4.31108e-14 
3.40161 -2.82843 -3.25855e-14 
3.61356 -2.82843 -2.21729e-14 
3.8097 -2.82843 -1.48208e-14 
4.02279 -2.82843 -1.06982e-14 
4.24552 -2.82843 -6.32393e-15 
4.4429 -2.82843 -7.30192e-15 
4.65991 -2.82843 -4.99317e-15 
4.86849 -2.82843 -4.04091e-15 
5.0711 -2.82843 -3.48179e-15 
5.29228 -2.82843 -2.33199e-15 
5.50178 -2.82843 -2.3913e-15 
5.70316 -2.82843 -2.22132e-15 
5.92326 -2.82843 -2.84445e-15 
6.14061 -2.82843 -2.64662e-15 
6.33692 -2.82843 -2.85795e-15 
6.58623 -2.82843 -2.29615e-15 
6.78997 -2.82843 -4.4078e-15 
6.99349 -2.82843 -4.41837e-15 
7.25815 -2.82843 -1.29105e-15 
7.48806 -2.82843 -2.8777e-15 
7.7315 -2.82843 1.74838e-16 
8.01121 -2.82843 1.2862e-15 
8.19216 -2.82843 -1.97136e-14 
8.48528 -2.82843 7.59636e-14 
-8.48528 -2.6027 -1.95391e-13 
-8.25423 -2.58433 9.61337e-13 
-8.03996 -2.57081 -6.70944e-17 
-7.81963 -2.63778 -1.25043e-19 
-7.54345 -2.62765 4.03539e-19 
-7.25468 -2.61505 1.65066e-19 
-7.01427 -2.59284 1.56524e-18 
-6.79266 -2.59503 1.26546e-18 
-6.55743 -2.5946 2.65588e-18 
-6.33205 -2.59448 3.06619e-18 
-6.11511 -2.58658 2.8661e-18 
-5.89368 -2.5985 2.44203e-18 
-5.68106 -2.57958 2.24505e-18 
-5.46495 -2.59441 1.78025e-18 
-5.24827 -2.5891 1.22992e-18 
-5.02775 -2.60002 6.75471e-19 
-4.81993 -2.57857 -1.81811e-18 
-4.59657 -2.60735 -3.01495e-18 
-4.37887 -2.58916 3.04251e-17 
-4.1564 -2.60599 -6.105e-18 
-3.94564 -2.58197 -2.18947e-18 
-3.73441 -2.5922 -4.7333e-17 
-3.51914 -2.59073 -9.71415e-17 
-3.30225 -2.5921 -1.81603e-16 
-3.08215 -2.59092 -7.33129e-13 
-2.85855 -2.58743 -1.01088e-16 
-2.62979 -2.5868 3.25186e-16 
-2.39322 -2.58715 1.49208e-15 
-2.14833 -2.58917 1.12744e-12 
-1.89962 -2.59019 3.46026e-12 
-1.65738 -2.5868 9.40039e-12 
-1.42716 -2.657 2.69252e-11 
-1.18717 -2.63377 1.31923e-10 
-0.990349 -2.67686 2.19442e-10 
-0.818704 -2.70934 5.05758e-10 
-0.668261 -2.74183 -1.02298e-08 
-0.589118 -2.6713 1.9978e-08 
-0.538609 -2.76396 -1.29031e-08 
-0.164743 -2.80264 7.95616e-08 
0.130139 -2.78078 9.06768e-10 
0.244978 -2.75763 6.42686e-09 
0.476232 -2.80529 -1.59709e-08 
0.535357 -2.68194 4.91204e-11 
0.644488 -2.73401 5.93198e-10 
0.848026 -2.72733 -1.21565e-11 
1.0737 -2.66235 -4.85468e-11 
1.2791 -2.63527 -7.17987e-11 
1.51092 -2.6096 -2.42473e-11 
1.76412 -2.6173 -4.87143e-12 
2.03043 -2.6038 -1.55103e-12 
2.27829 -2.56279 -8.38348e-13 
2.50739 -2.59346 -8.54799e-16 
2.75071 -2.58955 -1.22778e-16 
2.99378 -2.60126 8.3368e-17 
3.21826 -2.58691 5.62749e-13 
3.44244 -2.59678 9.97861e-17 
3.64909 -2.57884 7.2048e-17 
3.86493 -2.59736 -5.62184e-18 
4.09179 -2.60565 3.32292e-18 
4.29972 -2.5746 -3.36761e-17 
4.51569 -2.59865 5.68163e-18 
4.73199 -2.58953 2.45136e-18 
4.94329 -2.58389 4.88189e-19 
5.16006 -2.60464 -1.02146e-18 
5.3803 -2.59177 -1.56171e-18 
5.58903 -2.58082 -2.10175e-18 
5.80512 -2.60095 -2.4145e-18 
6.02912 -2.59615 -2.87044e-18 
6.24081 -2.56857 -3.06378e-18 
6.46126 -2.62202 -2.16057e-18 
6.68799 -2.57066 -2.44907e-18 
6.89576 -2.56674 -1.75972e-18 
7.12559 -2.62599 -6.565e-19 
7.37693 -2.59415 -4.97377e-19 
7.61451 -2.60793 -5.63839e-20 
7.87326 -2.63671 8.11376e-20 
8.07817 -2.53051 1.51654e-16 
8.29696 -2.64071 -8.8444e-11 
8.48528 -2.53575 -7.15608e-13 
-8.48528 -2.36893 1.45141e-13 
-8.25671 -2.33776 -4.90081e-12 
-8.00226 -2.35146 4.47795e-17 
-7.75431 -2.42312 -4.20143e-20 
-7.57447 -2.25233 6.74071e-21 
-7.44924 -2.44367 8.35064e-19 
-7.17943 -2.39363 1.29411e-18 
-6.94019 -2.34124 1.28713e-18 
-6.70539 -2.37918 1.86319e-18 
-6.4679 -2.36645 1.87455e-18 
-6.24248 -2.35662 1.64912e-18 
-6.01567 -2.3607 1.25668e-18 
-5.80263 -2.35375 9.87551e-19 
-5.57322 -2.3502 3.01065e-19 
-5.35938 -2.36046 -1.77425e-19 
-5.1325 -2.36532 -1.18514e-18 
-4.92527 -2.34726 -3.67187e-18 
-4.69622 -2.36852 3.24336e-17 
-4.48541 -2.36704 5.64387e-17 
-4.25775 -2.3711 5.99366e-17 
-4.05241 -2.35606 3.49702e-17 
-3.83438 -2.34969 2.4974e-18 
-3.62414 -2.35925 -4.75786e-17 
-3.40527 -2.35899 -6.55377e-17 
-3.18561 -2.35969 -8.31366e-17 
-2.96124 -2.35642 2.39321e-19 
-2.72992 -2.35315 1.86884e-16 
-2.49132 -2.35357 1.03818e-15 
-2.24304 -2.35609 8.81941e-13 
-1.98793 -2.35685 2.64996e-12 
-1.73397 -2.35717 9.16681e-12 
-1.47366 -2.41489 2.13097e-11 
-1.27228 -2.4557 5.40534e-11 
-1.02758 -2.50318 1.85341e-10 
-0.85099 -2.55471 -1.25934e-10 
-0.705456 -2.61696 3.07202e-09 
-0.543827 -2.58536 1.12543e-08 
-0.418462 -2.77257 1.07083e-07 
-0.137645 -2.77037 -2.51673e-08 
0.0305654 -2.83993 1.58768e-07 
0.188707 -2.8017 2.1656e-09 
0.398968 -2.78624 2.72233e-09 
0.596384 -2.60585 -8.45382e-11 
0.733576 -2.63929 -8.92881e-10 
0.911031 -2.58605 -1.95556e-10 
1.03052 -2.46422 -1.89474e-10 
1.22079 -2.44924 -3.69861e-11 
1.44018 -2.40832 -1.81254e-11 
1.69127 -2.40173 -9.67668e-12 
1.94189 -2.39064 -3.48971e-12 
2.18959 -2.34713 -1.00316e-12 
2.4577 -2.35006 -1.16825e-15 
2.68944 -2.36469 -2.54881e-16 
2.92976 -2.37128 3.74369e-18 
3.15067 -2.35413 9.14475e-17 
3.37278 -2.36426 6.69108e-17 
3.57996 -2.3391 4.34701e-17 
3.79139 -2.35749 -5.94018e-18 
4.00535 -2.37969 4.41912e-18 
4.21188 -2.34338 -4.95304e-17 
4.43421 -2.35532 -5.44788e-17 
4.64125 -2.35859 -3.73456e-17 
4.8555 -2.34926 4.47571e-18 
5.07418 -2.36305 1.78915e-18 
5.28395 -2.3711 4.08275e-19 
5.50024 -2.34446 1.38236e-20 
5.71984 -2.36003 -8.32552e-19 
5.935 -2.37155 -1.36835e-18 
6.1509 -2.33998 -1.35156e-18 
6.38944 -2.3691 -2.09275e-18 
6.59352 -2.3618 -1.60139e-18 
6.82713 -2.31283 -1.09727e-18 
7.05688 -2.37447 -1.23053e-18 
7.27941 -2.39378 -8.91259e-19 
7.54458 -2.37612 -3.18085e-19 
7.78953 -2.41819 2.43069e-19 
8.00589 -2.31315 1.39113e-16 
8.27018 -2.37289 1.16861e-10 
8.48528 -2.27535 1.30513e-12 
-8.48528 -2.11971 -2.36961e-15 
-8.25717 -2.08725 -1.17243e-12 
-8.04739 -2.11599 -1.32308e-16 
-7.8034 -2.17178 1.94986e-19 
-7.51549 -2.03289 -7.97296e-20 
-7.32329 -2.2189 -1.22581e-20 
-7.07999 -2.14773 -1.66566e-19 
-6.79896 -2.13624 -3.06629e-19 
-6.58172 -2.15271 -3.55021e-19 
-6.34892 -2.13197 -5.45467e-19 
-6.12192 -2.12905 -6.84906e-19 
-5.90923 -2.11558 -6.99751e-19 
-5.68959 -2.13125 -8.13096e-19 
-5.4639 -2.1157 -1.16107e-18 
-5.24979 -2.14023 -1.4401e-18 
-5.04139 -2.11233 -2.37188e-18 
-4.81804 -2.13745 -4.152e-18 
-4.60656 -2.12981 -6.12051e-18 
-4.39028 -2.14782 -6.22948e-18 
-4.18594 -2.12096 -4.26518e-18 
-3.97564 -2.12446 -1.32282e-18 
-3.76364 -2.1143 8.72468e-19 
-3.55384 -2.12933 2.51029e-18 
-3.33955 -2.12588 -1.46576e-18 
-3.12456 -2.12595 7.99634e-17 
-2.90304 -2.12386 5.80922e-13 
-2.67302 -2.12205 1.02503e-16 
-2.43347 -2.1249 2.11487e-16 
-2.18664 -2.12766 4.4039e-16 
-1.93716 -2.12751 7.10237e-16 
-1.6797 -2.15211 -1.33031e-12 
-1.45189 -2.17535 4.6667e-12 
-1.25211 -2.21125 4.11076e-11 
-1.09441 -2.32738 2.56431e-12 
-0.899852 -2.36761 -5.46701e-12 
-0.734621 -2.46404 -3.59564e-10 
-0.596164 -2.49928 -2.12289e-09 
-0.475954 -2.71253 -1.31331e-08 
-0.230998 -2.75305 -2.96243e-08 
-0.0242108 -2.81607 -1.03377e-07 
0.11082 -2.74002 7.84861e-09 
0.453529 -2.71722 2.12742e-09 
0.638447 -2.5032 -5.04473e-10 
0.785037 -2.49003 1.96377e-10 
0.873758 -2.35611 1.20837e-11 
1.07032 -2.26334 -3.98282e-12 
1.26114 -2.22357 -1.04584e-11 
1.50732 -2.19817 7.31677e-13 
1.75377 -2.18273 -1.42058e-12 
1.99853 -2.1508 -1.2435e-15 
2.27476 -2.14053 -2.79232e-16 
2.51217 -2.11612 -1.77867e-16 
2.75031 -2.14299 -8.47907e-17 
2.97228 -2.12766 -1.5214e-16 
3.20092 -2.12733 -5.06587e-17 
3.40829 -2.11885 1.00253e-19 
3.6273 -2.10865 -1.00517e-18 
3.84315 -2.13219 3.45216e-20 
4.04396 -2.13132 1.97949e-18 
4.27456 -2.12304 4.80295e-18 
4.48253 -2.11357 6.17482e-18 
4.69497 -2.1237 5.06061e-18 
4.91632 -2.12496 3.18769e-18 
5.1288 -2.12686 1.90781e-18 
5.33721 -2.13437 1.24444e-18 
5.56582 -2.1211 9.3974e-19 
5.78161 -2.12916 8.16483e-19 
5.99206 -2.12936 7.40515e-19 
6.23998 -2.13618 6.02688e-19 
6.44605 -2.11045 4.9259e-19 
6.66116 -2.12245 3.73974e-19 
6.92742 -2.10723 3.03211e-19 
7.14602 -2.14118 1.33913e-19 
7.38213 -2.18391 4.64513e-20 
7.5795 -2.08598 7.8797e-23 
7.7536 -2.18903 -1.31831e-19 
7.96232 -2.07801 -2.58428e-17 
8.20455 -2.15125 9.38916e-12 
8.48528 -2.08764 -4.34717e-13 
-8.48528 -1.82064 -1.52974e-13 
-8.30382 -1.84334 -1.89107e-11 
-7.89877 -1.91686 -3.75942e-20 
[...]
POINT_DATA 1978 
VECTORS vectors float
0.001562 0.0282591 0.999599 
-0.000542564 0.00256569 0.999997 
0.000356967 0.000937326 0.999999 
-0.00014113 0.000120093 1 
3.68643e-05 -0.000547225 1 
5.85238e-06 -0.00124763 0.999999 
8.23303e-06 -0.00196379 0.999998 
9.02869e-06 -0.00268868 0.999996 
8.73338e-06 -0.00341579 0.999994 
8.43237e-06 -0.00409905 0.999992 
6.69083e-06 -0.00478076 0.999989 
5.88565e-06 -0.00538719 0.999985 
4.06488e-06 -0.00597924 0.999982 
1.62635e-06 -0.0064794 0.999979 
-2.14392e-07 -0.00698206 0.999976 
-3.01865e-06 -0.00744858 0.999972 
-3.47987e-06 -0.00795007 0.999968 
-5.43793e-06 -0.00843633 0.999964 
-5.32313e-06 -0.00900185 0.999959 
-6.91249e-06 -0.00949058 0.999955 
-8.05549e-06 -0.0098255 0.999952 
-1.08734e-05 -0.00982745 0.999952 
-1.44084e-05 -0.00934672 0.999956 
-1.86192e-05 -0.0084073 0.999965 
-2.42986e-05 -0.00698749 0.999976 
-3.41454e-05 -0.0045808 0.99999 
-4.82178e-05 -0.000103095 1 
-7.20844e-05 0.00740312 0.999973 
-9.72141e-05 0.0184083 0.999831 
-0.000101165 0.0334414 0.999441 
-0.000141162 0.0538425 0.998549 
-0.000288132 0.0803467 0.996767 
-0.000527464 0.131207 0.991355 
-0.000601332 0.188085 0.982153 
-0.000897747 0.259931 0.965627 
-0.00017887 0.359803 0.933028 
-0.000742873 0.470921 0.882175 
-0.000231444 0.522783 0.852466 
-0.000277901 0.893422 0.449219 
0.000430262 0.984231 -0.176887 
0.00113111 0.828367 -0.560185 
0.000668287 0.510012 -0.860167 
0.00108651 0.453856 -0.891074 
7.61794e-05 0.366539 -0.930403 
0.00105066 0.260647 -0.965434 
0.000605055 0.179925 -0.98368 
0.000445028 0.122199 -0.992505 
0.000240557 0.082178 -0.996618 
0.000154873 0.0513765 -0.998679 
0.000104574 0.0312943 -0.99951 
7.99055e-05 0.018949 -0.99982 
7.89601e-05 0.00759821 -0.999971 
5.98157e-05 -0.000376306 -1 
3.95982e-05 -0.00525652 -0.999986 
1.77179e-05 -0.0074369 -0.999972 
1.22267e-05 -0.00841481 -0.999965 
1.21116e-05 -0.00913207 -0.999958 
1.12317e-05 -0.00963454 -0.999954 
9.15607e-06 -0.00973493 -0.999953 
6.1374e-06 -0.00941794 -0.999956 
4.59164e-06 -0.0089661 -0.99996 
4.7459e-06 -0.00843481 -0.999964 
4.18693e-06 -0.00795776 -0.999968 
2.63804e-06 -0.00752443 -0.999972 
5.27148e-07 -0.00703645 -0.999975 
-2.03433e-06 -0.00654102 -0.999979 
-4.36163e-06 -0.00600699 -0.999982 
-6.29559e-06 -0.00539023 -0.999985 
-6.84357e-06 -0.00473367 -0.999989 
-8.98434e-06 -0.00410312 -0.999992 
-9.40206e-06 -0.00330337 -0.999995 
-7.38436e-06 -0.00263245 -0.999997 
-9.19563e-06 -0.00196555 -0.999998 
-4.15313e-06 -0.00120266 -0.999999 
-5.54769e-05 -0.000568406 -1 
0.000197443 5.81219e-05 -1 
-0.000359414 0.000780302 -1 
0.000233564 0.00142071 -0.999999 
-0.00115722 0.0379736 -0.999278 
0.0348416 0.102904 0.994081 
0.00227315 0.0075225 0.999969 
0.00059822 0.00119355 0.999999 
0.000318077 0.00028774 1 
0.000364654 -0.000443318 1 
0.000387496 -0.00124271 0.999999 
0.000544353 -0.00189724 0.999998 
0.000451377 -0.00257354 0.999997 
0.000446124 -0.00327496 0.999995 
0.00038165 -0.00395257 0.999992 
0.000296187 -0.00455358 0.99999 
0.000126 -0.00515957 0.999987 
-3.83122e-05 -0.00562645 0.999984 
-0.000264759 -0.00610611 0.999981 
-0.000566284 -0.00653457 0.999978 
-0.000873024 -0.00703692 0.999975 
-0.00130945 -0.00746923 0.999971 
-0.00142882 -0.0081531 0.999966 
-0.00175146 -0.00873748 0.99996 
-0.00160096 -0.00933087 0.999955 
-0.00163838 -0.00962262 0.999952 
-0.00129634 -0.00950133 0.999954 
-0.00100098 -0.00878708 0.999961 
-0.00085414 -0.00737126 0.999972 
-0.000966961 -0.00499386 0.999987 
-0.00125575 -0.000967338 0.999999 
-0.00142452 0.0055741 0.999983 
-0.00133886 0.0152825 0.999882 
-0.000865783 0.0287433 0.999586 
-2.84052e-05 0.0473758 0.998877 
0.00126699 0.072781 0.997347 
0.0024645 0.108429 0.994101 
0.00287759 0.165483 0.986208 
0.00532581 0.236622 0.971587 
0.00695815 0.323336 0.946259 
0.0142661 0.420387 0.907233 
0.0572354 0.464715 0.883609 
0.000326019 0.565158 0.824982 
0.016298 0.941057 0.337856 
-0.0268678 0.972663 -0.230663 
-0.0541046 0.844983 -0.53205 
0.00596122 0.572913 -0.819594 
-0.0540848 0.472722 -0.87955 
-0.0220531 0.397099 -0.917511 
-0.0123522 0.292305 -0.956246 
-0.011059 0.202091 -0.979304 
-0.00522124 0.141022 -0.989993 
-0.0025651 0.094276 -0.995543 
-0.00122865 0.0610709 -0.998133 
0.000210278 0.0376393 -0.999291 
0.00199314 0.0215977 -0.999765 
0.00167254 0.0104138 -0.999944 
0.00151139 0.00130961 -0.999998 
0.00105624 -0.00414272 -0.999991 
0.000842644 -0.00678198 -0.999977 
0.000814746 -0.00829442 -0.999965 
0.00113515 -0.00913224 -0.999958 
0.00136525 -0.00952445 -0.999954 
0.00153625 -0.0094127 -0.999955 
0.00184973 -0.00891907 -0.999959 
0.00156749 -0.0083585 -0.999964 
0.00138419 -0.00774098 -0.999969 
0.00109295 -0.0072082 -0.999973 
0.000665916 -0.00680425 -0.999977 
0.000371365 -0.00631732 -0.99998 
0.000120196 -0.00585002 -0.999983 
-8.01841e-05 -0.00538139 -0.999986 
-0.000238164 -0.00478994 -0.999988 
-0.00038672 -0.00416443 -0.999991 
-0.000350986 -0.00356216 -0.999994 
-0.00051982 -0.00284335 -0.999996 
-0.000551045 -0.00222317 -0.999997 
-0.000395607 -0.0015646 -0.999999 
-0.000493092 -0.000868886 -0.999999 
-0.000441642 -0.000249169 -1 
-0.000352685 0.000427438 -1 
-0.000720512 0.00145579 -0.999999 
-0.0034088 0.0104293 -0.99994 
-0.04793 0.147836 -0.98785 
0.00317806 0.0937675 0.995589 
0.000517121 0.00691834 0.999976 
0.000574831 0.000822403 0.999999 
0.000653465 5.46936e-05 1 
0.000566552 -0.00039573 1 
0.00070647 -0.000695355 1 
0.000661195 -0.00140283 0.999999 
0.000585759 -0.00206707 0.999998 
0.000578368 -0.00270609 0.999996 
0.000467736 -0.00334255 0.999994 
0.000322168 -0.0039457 0.999992 
0.000148164 -0.0045006 0.99999 
-8.0125e-05 -0.00493329 0.999988 
-0.000399807 -0.00535425 0.999986 
-0.00075647 -0.00574434 0.999983 
-0.00122411 -0.00615369 0.99998 
-0.00173952 -0.00655029 0.999977 
-0.00223137 -0.00725933 0.999971 
-0.0025978 -0.00798189 0.999965 
-0.00271595 -0.00882156 0.999957 
-0.00255896 -0.0094345 0.999952 
-0.0020899 -0.00971172 0.999951 
-0.00144521 -0.0093701 0.999955 
-0.000763227 -0.00818578 0.999966 
-0.000298033 -0.00595662 0.999982 
-0.000127246 -0.00232157 0.999997 
-1.46468e-05 0.00330603 0.999995 
0.000495181 0.0114976 0.999934 
0.00181853 0.0228164 0.999738 
0.00449254 0.0380594 0.999265 
0.00906651 0.05935 0.998196 
0.0119036 0.0938697 0.995513 
0.0174633 0.131391 0.991177 
0.0279952 0.208121 0.977702 
0.0454654 0.292236 0.955265 
0.0450046 0.374774 0.926023 
0.106066 0.444634 0.88941 
0.0219386 0.616066 0.787389 
0.0526014 0.927038 0.37126 
-0.00782511 0.999559 -0.0286286 
-0.00189312 0.926235 -0.376941 
-0.0119326 0.645846 -0.763374 
-0.109198 0.415444 -0.90304 
-0.0462413 0.34716 -0.936665 
-0.0336833 0.252043 -0.96713 
-0.0387352 0.192178 -0.980595 
-0.0241504 0.137659 -0.990185 
-0.0153958 0.0972852 -0.995137 
-0.00769339 0.0656085 -0.997816 
-0.00358325 0.0428382 -0.999076 
-0.00244547 0.0260859 -0.999657 
-9.50521e-05 0.0128052 -0.999918 
0.000616673 0.00440364 -0.99999 
0.000486858 -0.0018452 -0.999998 
0.000249262 -0.00560733 -0.999984 
0.000591832 -0.00792157 -0.999968 
0.00117372 -0.00915234 -0.999957 
0.0018594 -0.00962046 -0.999952 
0.00236146 -0.00948592 -0.999952 
0.00266952 -0.00893632 -0.999957 
0.00263006 -0.00814542 -0.999963 
0.00235097 -0.00741968 -0.99997 
0.00192113 -0.0067508 -0.999975 
0.00137302 -0.00628099 -0.999979 
0.000894142 -0.00591489 -0.999982 
0.00052143 -0.00548357 -0.999985 
0.000165244 -0.00512343 -0.999987 
-9.64822e-05 -0.00469173 -0.999989 
-0.000252421 -0.0041357 -0.999991 
-0.000442424 -0.00355381 -0.999994 
-0.000523049 -0.00299268 -0.999995 
-0.000532345 -0.00232364 -0.999997 
-0.00063056 -0.00171613 -0.999998 
-0.000657935 -0.00111968 -0.999999 
-0.000646766 -0.00043731 -1 
-0.0006558 0.000175927 -1 
-0.000567022 0.000869388 -0.999999 
-0.00163184 0.00831079 -0.999964 
0.00128198 0.0775258 -0.99699 
-0.00963291 0.088341 0.996044 
-0.000164127 0.00535077 0.999986 
0.0003363 0.00084408 1 
0.000460655 0.000124235 1 
0.000348073 -0.000507748 1 
0.000516132 -0.000976258 0.999999 
0.000405634 -0.00161127 0.999999 
0.00031799 -0.00234169 0.999997 
0.000273057 -0.00289259 0.999996 
0.000114711 -0.00345305 0.999994 
-5.38227e-05 -0.00395067 0.999992 
-0.000274877 -0.00434489 0.999991 
-0.000529256 -0.00474301 0.999989 
-0.00090393 -0.00502799 0.999987 
-0.00127554 -0.00537862 0.999985 
-0.00174573 -0.00568987 0.999982 
-0.00222725 -0.00633787 0.999977 
-0.00264649 -0.00708554 0.999971 
-0.00288496 -0.00804606 0.999963 
-0.00286876 -0.00890861 0.999956 
-0.00254066 -0.0096244 0.99995 
-0.00192288 -0.00989467 0.999949 
-0.00109869 -0.00943394 0.999955 
-0.000121539 -0.00806453 0.999967 
0.000881002 -0.00557798 0.999984 
0.00196975 -0.00165982 0.999997 
0.00341059 0.00418082 0.999985 
0.00574592 0.012353 0.999907 
0.00960232 0.0229442 0.999691 
0.0156585 0.0365862 0.999208 
0.0239985 0.0563273 0.998124 
0.0348576 0.0808626 0.996116 
0.0486189 0.112855 0.992421 
0.0512629 0.159775 0.985822 
0.0758999 0.222564 0.971959 
0.0947095 0.313258 0.944934 
0.129619 0.376164 0.917442 
0.0561805 0.560061 0.826544 
0.0685379 0.867316 0.493016 
0.00626613 0.993233 0.115974 
-0.0480891 0.953726 -0.296806 
-0.060945 0.566937 -0.821504 
-0.129807 0.309847 -0.941884 
-0.0773687 0.279065 -0.95715 
-0.0910617 0.219883 -0.971267 
-0.0666569 0.145854 -0.987058 
-0.0485125 0.109824 -0.992766 
-0.0299074 0.0748425 -0.996747 
-0.0184941 0.0508697 -0.998534 
-0.0122912 0.0335494 -0.999361 
-0.00712694 0.019033 -0.999793 
-0.00444717 0.00943822 -0.999946 
-0.0022903 0.00211675 -0.999995 
-0.00142028 -0.00307229 -0.999994 
-0.00052591 -0.00666507 -0.999978 
0.000362597 -0.00864532 -0.999963 
0.00129345 -0.00970544 -0.999952 
0.00206909 -0.00984913 -0.999949 
0.0025685 -0.0094248 -0.999952 
0.00283623 -0.00852995 -0.99996 
0.00278119 -0.00758775 -0.999967 
0.00248674 -0.00673318 -0.999974 
0.0020295 -0.00603105 -0.99998 
0.00155996 -0.00555502 -0.999983 
0.00111298 -0.0052418 -0.999986 
0.000721364 -0.00490087 -0.999988 
0.000402496 -0.0045932 -0.999989 
0.00016383 -0.00421387 -0.999991 
-5.72331e-05 -0.00369655 -0.999993 
-0.00015662 -0.00319107 -0.999995 
-0.000268015 -0.002669 -0.999996 
-0.000326265 -0.00198344 -0.999998 
-0.000397485 -0.00142745 -0.999999 
-0.000461886 -0.000833234 -1 
-0.000373679 -0.000349125 -1 
-0.000467611 5.75705e-05 -1 
-0.000337475 0.000579364 -1 
-0.000255359 0.00343904 -0.999994 
0.00396187 0.0560326 -0.998421 
0.0112618 0.0619686 0.998015 
0.00111072 0.00628699 0.99998 
0.000299298 0.000297385 1 
0.000295503 -0.000124909 1 
0.000216123 -0.000667937 1 
0.000290303 -0.00109138 0.999999 
0.000171895 -0.00136147 0.999999 
0.000211944 -0.001844 0.999998 
8.69812e-05 -0.00242479 0.999997 
4.78909e-06 -0.00295631 0.999996 
-0.000164717 -0.00343568 0.999994 
-0.0003615 -0.00381056 0.999993 
-0.000600115 -0.00416329 0.999991 
-0.000884612 -0.00445848 0.99999 
-0.00126179 -0.00469701 0.999988 
-0.00163078 -0.00498706 0.999986 
-0.00209035 -0.00554439 0.999982 
-0.00248313 -0.00628492 0.999977 
-0.00278275 -0.00731694 0.999969 
-0.00286554 -0.00832098 0.999961 
-0.00269406 -0.00931343 0.999953 
-0.00222157 -0.00996423 0.999948 
-0.00140666 -0.0100482 0.999949 
-0.000363101 -0.00929395 0.999957 
0.0010034 -0.00746724 0.999972 
0.00270979 -0.00441942 0.999987 
0.00500217 0.000196384 0.999987 
0.00826193 0.00670292 0.999943 
0.0131216 0.0151371 0.999799 
0.0202615 0.0252156 0.999477 
0.0303387 0.0385317 0.998797 
0.0444236 0.0567214 0.997401 
0.0659217 0.0748842 0.995011 
0.088258 0.106811 0.990354 
0.0970631 0.155216 0.983101 
0.120218 0.232615 0.96511 
0.16233 0.316289 0.934671 
0.0996592 0.549634 0.82944 
0.0231637 0.730217 0.682822 
-0.0162723 0.992063 0.124682 
-0.0407202 0.711701 -0.701302 
-0.133484 0.555295 -0.820871 
-0.149835 0.262248 -0.953297 
-0.133057 0.187956 -0.973123 
-0.105545 0.141209 -0.984338 
-0.0869276 0.0981524 -0.991368 
-0.061571 0.0770192 -0.995127 
-0.0438392 0.0574511 -0.997385 
-0.0304663 0.0425824 -0.998628 
-0.0208933 0.0289857 -0.999361 
-0.0132317 0.018509 -0.999741 
-0.00917374 0.00884325 -0.999919 
-0.00547361 0.0020823 -0.999983 
-0.00332327 -0.00299347 -0.99999 
-0.00150723 -0.0065991 -0.999977 
-0.000153372 -0.00887475 -0.999961 
0.000936909 -0.00991883 -0.99995 
0.00185555 -0.0100999 -0.999947 
0.00243606 -0.00964413 -0.999951 
0.0027547 -0.00877945 -0.999958 
0.00277746 -0.00764132 -0.999967 
0.00259325 -0.00661458 -0.999975 
0.00225252 -0.00578666 -0.999981 
0.0018391 -0.00517506 -0.999985 
0.00142455 -0.00479822 -0.999987 
0.0010469 -0.00457613 -0.999989 
0.000710857 -0.00428678 -0.999991 
0.000456009 -0.00398628 -0.999992 
0.000216298 -0.00364984 -0.999993 
9.74874e-05 -0.00314401 -0.999995 
-2.54109e-05 -0.00267151 -0.999996 
-0.000134814 -0.00217266 -0.999998 
-0.000184628 -0.0015148 -0.999999 
-0.000249529 -0.00097086 -0.999999 
-0.000228169 -0.000422792 -1 
-0.000253005 0.000127013 -1 
-0.000224295 0.000830038 -1 
-9.74615e-05 0.00471406 -0.999989 
-0.000491941 0.0639567 -0.997953 
0.0288996 0.0515033 0.998255 
0.00240739 0.00433752 0.999988 
0.000333677 0.000953333 0.999999 
0.000276983 0.000280855 1 
0.000232751 -0.000167884 1 
0.000172666 -0.000952724 1 
9.82232e-05 -0.00164321 0.999999 
4.87029e-05 -0.00206867 0.999998 
-6.69589e-05 -0.00260965 0.999997 
-0.000189962 -0.00303534 0.999995 
-0.000369221 -0.00337855 0.999994 
-0.000590386 -0.00369796 0.999993 
-0.000845957 -0.0039609 0.999992 
-0.00115061 -0.00419297 0.999991 
-0.00150674 -0.00437547 0.999989 
-0.00187488 -0.00484729 0.999986 
-0.00223358 -0.00549408 0.999982 
-0.00253393 -0.0064569 0.999976 
-0.00268183 -0.00748841 0.999968 
-0.00270347 -0.00860805 0.999959 
-0.00249033 -0.00955384 0.999951 
-0.00200193 -0.010171 0.999946 
-0.0012078 -0.0102544 0.999947 
-9.15259e-05 -0.00958942 0.999954 
0.00142114 -0.00805594 0.999967 
0.00356167 -0.0054038 0.999979 
0.0065816 -0.00148165 0.999977 
0.010732 0.00383528 0.999935 
0.0165752 0.0103752 0.999809 
0.0253852 0.0185132 0.999506 
0.0371381 0.0271207 0.998942 
0.0520067 0.0392286 0.997876 
0.0752604 0.049497 0.995935 
0.107008 0.0720981 0.991641 
0.138351 0.0973779 0.985584 
0.142275 0.170051 0.97511 
0.191023 0.252871 0.948455 
0.130209 0.624695 0.769936 
0.0407804 0.827456 0.560048 
-0.012445 0.99894 -0.0443069 
-0.0606137 0.897882 -0.436044 
-0.185963 0.439638 -0.878713 
-0.185755 0.240788 -0.952636 
-0.157716 0.135121 -0.978196 
-0.127365 0.0902743 -0.987739 
-0.0960295 0.0604865 -0.993539 
-0.0663155 0.049549 -0.996568 
-0.0474775 0.036306 -0.998212 
-0.0335163 0.0273509 -0.999064 
-0.0219679 0.0178944 -0.999599 
-0.0151735 0.0102661 -0.999832 
-0.00951964 0.00287013 -0.999951 
-0.00597213 -0.00215713 -0.99998 
-0.00309903 -0.00592828 -0.999978 
-0.0011551 -0.00844044 -0.999964 
0.000271332 -0.00990062 -0.999951 
0.00132871 -0.0103655 -0.999945 
0.00203047 -0.0101392 -0.999947 
0.00247864 -0.00937553 -0.999953 
0.00266677 -0.00836472 -0.999961 
0.00259735 -0.00709814 -0.999971 
0.00240669 -0.00603111 -0.999979 
0.00210729 -0.00519812 -0.999984 
0.00174463 -0.0046196 -0.999988 
0.0013787 -0.00427443 -0.99999 
0.00103444 -0.00410465 -0.999991 
0.000741252 -0.00384851 -0.999992 
0.000480567 -0.00359694 -0.999993 
0.000295416 -0.00328428 -0.999995 
0.000141738 -0.00281626 -0.999996 
2.02092e-05 -0.0023696 -0.999997 
-7.09622e-05 -0.00189119 -0.999998 
-0.000113145 -0.00138723 -0.999999 
-0.000156517 -0.000951838 -1 
-0.000179798 -0.000400547 -1 
-0.000203003 0.000112577 -1 
-0.000260361 0.000698907 -1 
-0.000794357 0.0049724 -0.999987 
-0.0119814 0.0470669 -0.99882 
0.035518 0.0533007 0.997947 
0.00247148 0.00385735 0.99999 
0.000471034 0.000786584 1 
0.000306664 0.000122065 1 
0.000228267 -0.000409805 1 
0.000223371 -0.000808247 1 
0.000147839 -0.00132497 0.999999 
8.46579e-05 -0.00181013 0.999998 
-1.07595e-05 -0.00224385 0.999997 
-0.000128028 -0.00264213 0.999997 
-0.000269174 -0.00297231 0.999996 
-0.000474577 -0.00329102 0.999994 
-0.00071402 -0.00351901 0.999994 
-0.000985882 -0.00372782 0.999993 
-0.00127623 -0.00391569 0.999992 
-0.00162863 -0.00426668 0.99999 
-0.00194406 -0.00484063 0.999986 
-0.00221578 -0.00574921 0.999981 
-0.00235674 -0.00677992 0.999974 
-0.00242158 -0.00798859 0.999965 
-0.00233105 -0.00908247 0.999956 
-0.00205353 -0.00996274 0.999948 
-0.00151455 -0.0104264 0.999944 
-0.00062568 -0.0103847 0.999946 
0.000606887 -0.00969513 0.999953 
0.00248658 -0.00816047 0.999964 
0.00520692 -0.00564126 0.999971 
0.0090725 -0.00210021 0.999957 
0.0144834 0.00216117 0.999893 
0.022331 0.00742987 0.999723 
0.0329683 0.0122661 0.999381 
0.0472879 0.0177463 0.998724 
0.0649044 0.0231733 0.997622 
0.0923703 0.0279514 0.995332 
0.124795 0.0437792 0.991216 
0.17435 0.0639096 0.982608 
0.217729 0.205275 0.954178 
0.183571 0.496297 0.848523 
-0.00126548 0.763086 0.646295 
0.107306 0.769679 0.629348 
-0.0349835 0.78205 -0.622233 
-0.0888822 0.418792 -0.903722 
-0.207189 0.184233 -0.960797 
-0.158501 0.0507486 -0.986054 
-0.117622 0.0421571 -0.992163 
-0.0869945 0.0225883 -0.995953 
-0.0678775 0.0271026 -0.997325 
-0.0511925 0.0179018 -0.998528 
-0.0361281 0.0145461 -0.999241 
-0.0250534 0.0110266 -0.999625 
-0.0170667 0.00458258 -0.999844 
-0.0114963 0.000640778 -0.999934 
-0.00690982 -0.0042604 -0.999967 
-0.00370271 -0.00697214 -0.999969 
-0.00147779 -0.00912994 -0.999957 
-4.81664e-06 -0.0102572 -0.999947 
0.00107423 -0.0105779 -0.999943 
0.00173399 -0.0103463 -0.999945 
0.00216273 -0.00961952 -0.999951 
0.00235725 -0.00855497 -0.999961 
0.00239455 -0.00742472 -0.99997 
0.00224197 -0.00610927 -0.999979 
0.00204183 -0.00514015 -0.999985 
0.00175503 -0.00444349 -0.999989 
0.00143183 -0.00400854 -0.999991 
0.00111372 -0.00378907 -0.999992 
0.000835545 -0.00361356 -0.999993 
0.000564474 -0.0034067 -0.999994 
0.000352804 -0.00311727 -0.999995 
0.000195302 -0.00280485 -0.999996 
4.00514e-05 -0.00233873 -0.999997 
-5.72113e-05 -0.00188957 -0.999998 
-0.000139434 -0.00133558 -0.999999 
-0.000179923 -0.000784238 -1 
-0.000231822 -0.000291963 -1 
-0.000237475 0.000106758 -1 
-0.000336949 0.000566028 -1 
-0.00107856 0.00276159 -0.999996 
-0.0203874 0.0422391 -0.9989 
0.0352134 0.0594455 0.99761 
0.00248277 0.00429732 0.999988 
0.000481022 0.000645012 1 
0.000383159 0.000201226 1 
0.000308003 -0.000242784 1 
0.000276079 -0.000778779 1 
0.000193776 -0.00134465 0.999999 
0.000129161 -0.00179667 0.999998 
1.21347e-05 -0.00222267 0.999998 
-8.95598e-05 -0.00253166 0.999997 
-0.000265371 -0.00288136 0.999996 
-0.000469361 -0.00314164 0.999995 
-0.000690395 -0.00330516 0.999994 
-0.00094408 -0.00348663 0.999993 
-0.00125718 -0.00376697 0.999992 
-0.0014925 -0.00416813 0.99999 
-0.00178367 -0.0049008 0.999986 
-0.00188937 -0.00582626 0.999981 
-0.00196288 -0.00703513 0.999973 
-0.00192052 -0.00826815 0.999964 
-0.00176992 -0.00940954 0.999954 
-0.00143091 -0.0102343 0.999947 
-0.00088165 -0.0107192 0.999942 
1.33296e-05 -0.0108147 0.999942 
0.00128108 -0.0103487 0.999946 
0.00318912 -0.00927452 0.999952 
0.00599003 -0.00747355 0.999954 
0.00998951 -0.00518561 0.999937 
0.0158765 -0.00238938 0.999871 
0.0239517 0.000100595 0.999713 
0.0346207 0.00135868 0.9994 
0.048666 0.00107261 0.998815 
0.068576 0.00438112 0.997636 
0.0915408 -0.00125649 0.995801 
0.122269 0.00772776 0.992467 
0.164736 0.0201876 0.986131 
0.160308 0.127548 0.978792 
0.243043 0.38819 0.888954 
0.146324 0.726574 0.671326 
-0.00141348 0.981689 0.190488 
-0.098825 0.772357 -0.627454 
-0.214617 0.365431 -0.905759 
-0.182799 0.0947317 -0.978576 
-0.162182 0.0171677 -0.986612 
-0.119136 0.00989474 -0.992829 
-0.0843734 -0.00397424 -0.996426 
-0.061499 0.00145084 -0.998106 
-0.0438591 0.00135201 -0.999037 
-0.0310704 0.00134011 -0.999516 
-0.0219275 0.000769048 -0.999759 
-0.0149961 -0.00268575 -0.999884 
-0.0100749 -0.0047799 -0.999938 
-0.00587095 -0.00775298 -0.999953 
-0.00319016 -0.00931994 -0.999951 
-0.00137298 -0.0105031 -0.999944 
1.47542e-05 -0.0109196 -0.99994 
0.000855202 -0.0108287 -0.999941 
0.00142259 -0.0102739 -0.999946 
0.00178163 -0.00934026 -0.999955 
0.00188533 -0.00819059 -0.999965 
0.00199614 -0.00692536 -0.999974 