# vtk DataFile Version 3.0 
Exported using Morpho https://github.com/Morpho-lang/morpho 
ASCII 
DATASET UNSTRUCTURED_GRID 

POINTS 1978 float 
-8.48547 -2.81913 -1.14479e-08 
-8.2605 -2.82883 -1.29208e-09 
-8.03611 -2.82878 -1.12858e-09 
-7.78885 -2.82937 5.66514e-11 
-7.51787 -2.82902 4.06901e-09 
-7.23855 -2.82899 8.18636e-09 
-7.02156 -2.82894 7.22229e-09 
-6.78744 -2.82899 3.80471e-09 
-6.57958 -2.82903 5.19785e-09 
-6.37101 -2.82892 6.11836e-09 
-6.14989 -2.82896 -3.35344e-09 
-5.92277 -2.82908 -3.90846e-09 
-5.70804 -2.82886 -5.28168e-09 
-5.5089 -2.82893 -1.32441e-08 
-5.28241 -2.82897 -1.52545e-08 
-5.08029 -2.82892 -1.91547e-08 
-4.86344 -2.82898 -1.51062e-08 
-4.66251 -2.82894 -3.29928e-08 
-4.44759 -2.82896 -4.79077e-08 
-4.23935 -2.82899 -5.36147e-08 
-4.0259 -2.82894 -3.69884e-08 
-3.82608 -2.829 -4.87315e-08 
-3.61475 -2.82897 -7.30759e-08 
-3.40401 -2.82887 -1.22246e-07 
-3.17973 -2.82893 -1.57049e-07 
-2.9571 -2.82889 -3.32202e-07 
-2.72988 -2.82885 -3.91757e-07 
-2.50379 -2.8288 2.62108e-07 
-2.28711 -2.8288 1.94185e-06 
-2.0806 -2.82859 6.101e-06 
-1.88766 -2.82885 1.50029e-05 
-1.70882 -2.82863 3.32767e-05 
-1.53201 -2.82824 0.000100923 
-1.38108 -2.82774 0.000193669 
-1.23973 -2.82796 0.000348728 
-1.10879 -2.82909 0.000531005 
-0.974109 -2.82474 0.0012742 
-0.807047 -2.82239 0.00280104 
-0.631129 -2.82257 0.004523 
-0.444764 -2.83526 0.00468755 
0.667167 -2.83514 -0.00834955 
0.796628 -2.82239 -0.00309289 
0.940843 -2.82429 -0.00204784 
1.0668 -2.82579 -0.00119156 
1.23771 -2.82749 -0.000587323 
1.37057 -2.82795 -0.000291619 
1.55054 -2.82807 -0.000110702 
1.71305 -2.82857 -3.73164e-05 
1.8847 -2.82893 -1.67675e-05 
2.06424 -2.8285 -6.96954e-06 
2.27581 -2.82873 -2.81474e-06 
2.47648 -2.829 -2.92614e-07 
2.68548 -2.82889 4.64021e-07 
2.9323 -2.82885 3.49842e-07 
3.169 -2.82904 2.30055e-07 
3.39913 -2.82893 1.57542e-07 
3.62249 -2.829 6.70522e-08 
3.82954 -2.82893 3.19313e-08 
4.04359 -2.82894 4.71112e-08 
4.26405 -2.82897 6.2135e-08 
4.45855 -2.82899 4.70441e-08 
4.67104 -2.82899 3.37999e-08 
4.87024 -2.82892 1.38635e-08 
5.07993 -2.82894 1.21832e-08 
5.28492 -2.82894 1.49977e-08 
5.50249 -2.82898 1.51807e-08 
5.70617 -2.82894 7.23162e-09 
5.92587 -2.82897 3.75656e-09 
6.1484 -2.82889 1.57548e-09 
6.35011 -2.82903 -2.75386e-09 
6.5871 -2.82896 -3.44495e-09 
6.80098 -2.82892 -4.65103e-09 
7.00309 -2.82902 -1.00966e-08 
7.26993 -2.82897 -6.31636e-09 
7.50183 -2.82904 -3.60875e-09 
7.7394 -2.8291 1.96445e-09 
8.02014 -2.82896 3.45325e-09 
8.20482 -2.82909 5.03018e-09 
8.48557 -2.81895 -3.49617e-09 
-8.48597 -2.57959 3.48273e-08 
-8.25713 -2.5826 6.10106e-20 
-8.02067 -2.59409 1.82081e-20 
-7.78302 -2.60922 1.71172e-20 
-7.53996 -2.63102 2.00552e-20 
-7.26325 -2.63824 3.80998e-20 
-6.98759 -2.58573 4.13012e-20 
-6.76934 -2.60493 4.18979e-20 
-6.53006 -2.57706 1.39325e-20 
-6.30861 -2.59402 4.67235e-21 
-6.08046 -2.6032 -3.17061e-20 
-5.86218 -2.59044 -1.71415e-20 
-5.65605 -2.57211 -2.27049e-20 
-5.43614 -2.60606 -2.79652e-20 
-5.22591 -2.57989 -3.88103e-20 
-5.00944 -2.60058 -4.52502e-20 
-4.79987 -2.58398 -7.03976e-20 
-4.58451 -2.60193 -1.12115e-19 
-4.36762 -2.59412 -1.30363e-19 
-4.15103 -2.59929 -9.98943e-20 
-3.94053 -2.58149 -5.99713e-20 
-3.72771 -2.5923 -6.11099e-20 
-3.50746 -2.58562 -1.85232e-19 
-3.27894 -2.59448 -3.76715e-19 
-3.04213 -2.58973 -8.74118e-19 
-2.80296 -2.59487 -5.10729e-19 
-2.55911 -2.60011 1.47025e-18 
-2.31704 -2.60159 7.46012e-18 
-2.08584 -2.60525 2.07503e-17 
-1.86976 -2.61255 4.44211e-17 
-1.66515 -2.61311 1.12598e-16 
-1.48458 -2.63452 3.40249e-16 
-1.30077 -2.62474 3.40758e-16 
-1.16015 -2.64726 4.79889e-16 
-1.01381 -2.65548 3.8749e-16 
-0.95669 -2.52706 1.82025e-15 
-0.83974 -2.69181 3.21619e-15 
-0.62824 -2.69094 -6.84106e-16 
-0.395448 -2.69586 -1.03224e-14 
-0.209692 -2.79666 2.64012e-14 
0.512548 -2.80722 -2.21298e-14 
0.683339 -2.6388 3.11534e-15 
0.848016 -2.65404 -4.31704e-15 
0.996773 -2.62005 -2.53877e-15 
1.14991 -2.66547 -1.3017e-15 
1.29655 -2.59631 -8.45987e-16 
1.45603 -2.6354 -5.17002e-16 
1.63231 -2.59822 -1.67734e-16 
1.80651 -2.58641 -5.68653e-17 
2.03861 -2.62681 -2.84833e-17 
2.27224 -2.59792 -8.66976e-18 
2.49251 -2.57331 -1.32915e-18 
2.72905 -2.60698 5.18308e-19 
2.96917 -2.59554 1.0237e-18 
3.20147 -2.59385 5.07092e-19 
3.43198 -2.59345 1.26744e-19 
3.64616 -2.58075 7.37028e-20 
3.86401 -2.59186 5.16394e-20 
4.08929 -2.60339 9.09852e-20 
4.29348 -2.57705 1.50016e-19 
4.50837 -2.60083 1.04983e-19 
4.71579 -2.58434 8.49478e-20 
4.92852 -2.59545 4.69163e-20 
5.14111 -2.58927 4.83529e-20 
5.36166 -2.60218 3.55828e-20 
5.57555 -2.58372 2.76066e-20 
5.79462 -2.5998 2.06823e-20 
6.02237 -2.60075 2.22897e-20 
6.23861 -2.57448 1.12131e-20 
6.46048 -2.61085 -7.67356e-21 
6.68868 -2.58399 -2.19569e-20 
6.8996 -2.56697 -4.06482e-20 
7.12937 -2.62981 -3.78699e-20 
7.38021 -2.5984 -1.96459e-20 
7.61619 -2.60376 -7.52988e-21 
7.8739 -2.63755 -1.83481e-21 
8.07997 -2.53715 -1.72058e-20 
8.30213 -2.63147 -7.253e-20 
8.48606 -2.52521 -1.98374e-08 
-8.48553 -2.33985 -2.64323e-08 
-8.24508 -2.34999 5.11361e-20 
-8.00906 -2.35884 -1.07065e-20 
-7.76903 -2.38412 -4.98745e-21 
-7.55667 -2.23253 -5.06452e-21 
-7.48903 -2.44099 7.73326e-21 
-7.21189 -2.43714 -1.11471e-21 
-6.98218 -2.34406 -1.32085e-20 
-6.74253 -2.38349 -1.36238e-20 
-6.50597 -2.34533 7.89846e-21 
-6.2702 -2.37077 1.645e-21 
-6.04781 -2.3662 2.50672e-21 
-5.83171 -2.34346 1.16359e-22 
-5.59321 -2.35354 1.24571e-22 
-5.38294 -2.36062 2.66832e-21 
-5.14883 -2.35789 4.831e-21 
-4.93826 -2.35786 6.55935e-21 
-4.71039 -2.36272 1.18209e-20 
-4.49424 -2.37186 2.12974e-20 
-4.26958 -2.36763 1.16699e-20 
-4.05985 -2.3542 -1.78035e-20 
-3.84063 -2.34772 -4.54563e-20 
-3.62881 -2.35293 -6.89915e-20 
-3.4021 -2.35496 -2.3304e-20 
-3.17649 -2.35836 7.73519e-20 
-2.94188 -2.35689 3.48919e-19 
-2.70541 -2.36754 1.0829e-18 
-2.46692 -2.37613 3.0421e-18 
-2.23153 -2.3805 6.47894e-18 
-2.00891 -2.38693 1.14458e-17 
-1.80051 -2.39897 5.02914e-17 
-1.60319 -2.40085 1.3066e-16 
-1.42506 -2.44089 2.28156e-16 
-1.27183 -2.41011 3.33907e-16 
-1.13082 -2.46261 3.72687e-16 
-0.817875 -2.43014 -7.00679e-16 
-0.768427 -2.57301 1.47418e-15 
-0.57944 -2.55088 3.83924e-15 
-0.415202 -2.59139 1.1428e-15 
-0.13475 -2.68294 -1.14044e-14 
0.262666 -2.76093 -3.93458e-15 
0.47323 -2.67412 -1.256e-15 
0.77389 -2.48554 -3.63842e-15 
0.930769 -2.46185 -1.34355e-15 
1.12079 -2.47592 -9.12983e-16 
1.257 -2.38777 -5.07566e-16 
1.41828 -2.41528 -1.96813e-16 
1.58077 -2.39955 -1.71456e-16 
1.76393 -2.35646 -8.5938e-17 
1.96253 -2.41918 -2.50391e-17 
2.18449 -2.39946 -1.366e-17 
2.41353 -2.34803 -4.57851e-18 
2.65581 -2.36907 -4.47707e-19 
2.88806 -2.37173 -7.6267e-19 
3.13062 -2.35711 -1.78185e-19 
3.35826 -2.36094 8.49013e-22 
3.58032 -2.33932 6.0938e-20 
3.79774 -2.35216 5.12047e-20 
4.01729 -2.37453 2.79181e-20 
4.22678 -2.34062 -1.01579e-21 
4.44498 -2.36309 -1.87982e-20 
4.65022 -2.35015 -1.60178e-20 
4.86483 -2.35789 -1.10701e-20 
5.0743 -2.35526 -8.42577e-21 
5.29302 -2.37013 -5.2308e-21 
5.50484 -2.35205 -3.85178e-21 
5.72694 -2.36127 -1.62553e-21 
5.94546 -2.37408 -2.24247e-21 
6.16401 -2.34459 -1.58444e-21 
6.398 -2.36399 -8.23365e-22 
6.60967 -2.36295 1.00575e-21 
6.83514 -2.32043 2.03491e-21 
7.06802 -2.37977 -5.16744e-22 
7.28736 -2.39706 -1.71276e-20 
7.54524 -2.37297 2.25397e-21 
7.79114 -2.41665 3.11503e-21 
8.00148 -2.31588 -7.83566e-21 
8.25944 -2.36621 -4.03573e-20 
8.48582 -2.28722 -7.92255e-12 
-8.48624 -2.10166 3.1619e-08 
-8.2596 -2.11522 1.60462e-20 
-8.02966 -2.11628 1.1584e-20 
-7.79856 -2.15134 -4.07039e-21 
-7.49524 -2.03033 -5.68256e-21 
-7.29453 -2.24066 1.31577e-20 
-7.0655 -2.14038 -1.8535e-21 
-6.80013 -2.1469 1.14423e-20 
-6.58408 -2.13082 -2.64308e-21 
-6.33775 -2.13825 1.73151e-21 
-6.11891 -2.12811 8.87353e-23 
-5.90956 -2.10964 4.04881e-22 
-5.68431 -2.13271 1.74607e-21 
-5.46277 -2.11224 7.99541e-22 
-5.25186 -2.13911 -1.44993e-22 
-5.03563 -2.11539 1.72733e-21 
-4.82188 -2.13743 2.68779e-21 
-4.60527 -2.13413 3.04239e-21 
-4.39334 -2.14602 -2.95694e-22 
-4.18536 -2.12141 3.76771e-21 
-3.97517 -2.12002 -5.48484e-21 
-3.76387 -2.10699 -1.25069e-20 
-3.54787 -2.12323 -7.26516e-21 
-3.32649 -2.11772 1.88684e-20 
-3.10076 -2.12363 1.33657e-19 
-2.86683 -2.12567 3.87169e-19 
-2.6325 -2.1399 1.11734e-18 
-2.39789 -2.15177 3.07566e-18 
-2.16987 -2.15622 7.27915e-18 
-1.95368 -2.16654 1.81203e-17 
-1.7447 -2.18549 1.45165e-17 
-1.58179 -2.13048 3.7327e-17 
-1.43842 -2.22433 8.68873e-17 
-1.27567 -2.19223 1.25759e-16 
-1.1319 -2.2491 -8.92064e-16 
-1.00038 -2.36815 5.54246e-16 
-0.634612 -2.40747 1.08359e-15 
-0.499191 -2.41021 -4.44248e-15 
-0.251267 -2.54379 1.58792e-15 
0.105051 -2.7091 7.14091e-15 
0.41973 -2.55026 1.08486e-14 
0.617618 -2.48355 6.84197e-15 
0.788136 -2.3194 2.93191e-15 
0.982558 -2.31986 -3.93664e-17 
1.11121 -2.25273 -4.26049e-16 
1.26471 -2.17208 -2.12665e-16 
1.4264 -2.19842 -2.48505e-16 
1.5974 -2.17964 -6.79899e-17 
1.80513 -2.15068 -2.49425e-17 
2.00906 -2.20248 -1.2204e-17 
2.22729 -2.16555 -3.79287e-18 
2.47993 -2.13229 -1.68217e-18 
2.71074 -2.13457 -6.23917e-19 
2.94732 -2.14231 -2.58435e-19 
3.17636 -2.11768 -9.77348e-20 
3.39713 -2.12045 -9.86072e-21 
3.61947 -2.10395 6.03415e-21 
3.84077 -2.12592 4.57548e-21 
4.04699 -2.13026 5.69478e-21 
4.27554 -2.11888 2.97563e-21 
4.47992 -2.11957 2.18364e-21 
4.6976 -2.12127 2.14137e-22 
4.90762 -2.11965 3.27787e-22 
5.1283 -2.13017 -3.97689e-23 
5.33693 -2.12846 1.17531e-21 
5.56173 -2.12554 -2.69964e-22 
5.78177 -2.13013 -7.06628e-22 
5.99504 -2.13199 7.85901e-22 
6.23702 -2.12915 -1.53124e-21 
6.44997 -2.11423 4.0459e-22 
6.66495 -2.1185 -2.72948e-24 
6.9254 -2.11451 4.32262e-21 
7.14199 -2.14087 1.80177e-20 
7.3734 -2.18028 3.73373e-21 
7.564 -2.08043 9.19149e-21 
7.74158 -2.18604 -2.11732e-21 
7.95703 -2.08676 -2.91402e-21 
8.20582 -2.14512 -1.38204e-20 
8.48574 -2.09322 -2.13563e-08 
-8.48591 -1.8145 -2.04196e-08 
-8.30116 -1.87491 -1.81848e-20 
-7.89893 -1.90183 8.42379e-22 
-7.67707 -1.92222 6.34803e-21 
[...]
POINT_DATA 1978 
VECTORS vectors float
-0.000492839 -0.000609716 0.999667 
-0.000482541 -0.000549236 1.00024 
-0.00050452 -0.000462317 1.00046 
-0.000529071 -0.000358002 1.00034 
-0.000524118 -0.000212235 1.00034 
-0.000450936 -5.56875e-05 1.00034 
-0.000354606 6.68216e-05 1.00034 
-0.000249796 0.000194422 1.00033 
-0.000190412 0.000312049 1.00023 
-0.000159515 0.000427751 1.00033 
-0.000170333 0.000526605 1.00033 
-0.000217907 0.000618744 1.00032 
-0.000292222 0.000703213 1.00032 
-0.000396352 0.000794888 1.00032 
-0.000584679 0.00099409 1.00032 
-0.000796377 0.00132758 1.00032 
-0.00102597 0.00181339 1.00031 
-0.00130494 0.00229764 1.00031 
-0.00179563 0.00294869 1.00031 
-0.00240594 0.00395226 1.0003 
-0.00302215 0.00536983 1.0003 
-0.00361765 0.00695045 1.00029 
-0.00444286 0.00892492 1.00028 
-0.00569032 0.0114333 1.00025 
-0.00765688 0.0147671 1.0002 
-0.0112684 0.0184125 1.00011 
-0.0181423 0.0243716 0.999877 
-0.0265455 0.0358956 0.999326 
-0.036279 0.0520499 0.99829 
-0.0471311 0.0748919 0.996359 
-0.0590823 0.104162 0.993055 
-0.0729708 0.140437 0.987615 
-0.0925525 0.190345 0.977526 
-0.108532 0.251063 0.962 
-0.119182 0.322143 0.939264 
-0.129306 0.394504 0.909749 
-0.140786 0.47717 0.867482 
-0.14939 0.613438 0.775538 
-0.114764 0.773476 0.623539 
-0.0273157 0.924262 0.396963 
0.0522685 0.83544 -0.559489 
0.120407 0.713778 -0.690224 
0.151664 0.576074 -0.803351 
0.15417 0.468769 -0.869843 
0.140283 0.347584 -0.927206 
0.127824 0.27305 -0.953587 
0.101411 0.192274 -0.976254 
0.0795036 0.144982 -0.98645 
0.0611231 0.110403 -0.992174 
0.0475511 0.0813275 -0.995935 
0.0352062 0.0565696 -0.99809 
0.0280909 0.0406792 -0.998996 
0.0214817 0.0288931 -0.999688 
0.0132283 0.0206392 -1.00005 
0.00858154 0.0151142 -1.0002 
0.00585489 0.0111582 -1.00026 
0.00440569 0.00882328 -1.00028 
0.00373647 0.00701638 -1.00029 
0.00314451 0.00522845 -1.0003 
0.00244041 0.00370397 -1.0003 
0.00179258 0.00278545 -1.00031 
0.0012417 0.00218654 -1.00031 
0.000949963 0.00180219 -1.00031 
0.000783424 0.00140573 -1.00031 
0.000617131 0.0010311 -1.00031 
0.000418985 0.0007761 -1.00032 
0.000282464 0.000675884 -1.00032 
0.000208502 0.000613186 -1.00032 
0.000172711 0.000534244 -1.00033 
0.000164132 0.000439807 -1.00033 
0.000196299 0.00031387 -1.00033 
0.000261405 0.000193607 -1.00033 
0.000346865 8.39873e-05 -1.00034 
0.000461905 -7.19162e-05 -1.00034 
0.000527408 -0.000206264 -1.00034 
0.000535267 -0.000350304 -1.00034 
0.000491044 -0.000484134 -1.00034 
0.000462039 -0.000547942 -1.00034 
0.000440509 -0.000608697 -0.999489 
-0.00054055 -0.000559641 0.999128 
-0.000530829 -0.000501654 1.00077 
-0.00053469 -0.000422788 1.00069 
-0.000542566 -0.000342151 1.00057 
-0.000520927 -0.000252783 1.00067 
-0.00043924 -0.000135808 1.00067 
-0.000294414 -2.0744e-05 1.00067 
-0.000191386 0.000117886 1.00066 
-0.000102038 0.000266656 1.00076 
-8.61119e-05 0.000423245 1.00065 
-0.000118434 0.000559984 1.00064 
-0.000184461 0.000676433 1.00064 
-0.000268168 0.000801322 1.00064 
-0.000390235 0.000971874 1.00063 
-0.00051935 0.00126043 1.00063 
-0.000718579 0.00167198 1.00062 
-0.000949643 0.00222197 1.00062 
-0.00128622 0.00288517 1.00061 
-0.00167643 0.00380303 1.00061 
-0.00213349 0.00502365 1.00061 
-0.00255365 0.00661104 1.0006 
-0.00313031 0.00858917 1.0006 
-0.00390827 0.0113541 1.00059 
-0.00541478 0.0152573 1.00054 
-0.008135 0.0208089 1.00044 
-0.0126827 0.0279482 1.00022 
-0.0183642 0.0394995 0.999725 
-0.0250122 0.0575754 0.998672 
-0.0323685 0.0835238 0.99658 
-0.039255 0.118445 0.992722 
-0.0455554 0.162921 0.986057 
-0.0539907 0.217732 0.974888 
-0.0565242 0.292091 0.954981 
-0.0634218 0.362394 0.930009 
-0.0654835 0.450069 0.890624 
-0.00804191 0.475027 0.879714 
-0.0744055 0.580737 0.810384 
-0.0484813 0.753303 0.655 
0.00785592 0.905429 0.422485 
-0.00173888 0.970861 0.211934 
0.027577 0.886434 -0.452752 
0.000802938 0.744626 -0.665995 
0.046206 0.627644 -0.776626 
0.0488171 0.508261 -0.859639 
0.0802149 0.40579 -0.910456 
0.0565929 0.316433 -0.947169 
0.0655327 0.242881 -0.968147 
0.0510441 0.181568 -0.982471 
0.0422891 0.137893 -0.990133 
0.034733 0.0956455 -0.995289 
0.0249661 0.0652029 -0.998171 
0.0193104 0.0460549 -0.999503 
0.0155355 0.0328301 -1.00002 
0.00980858 0.0243136 -1.00034 
0.00634761 0.0176735 -1.0005 
0.00450349 0.012691 -1.00057 
0.00350046 0.00962848 -1.00059 
0.00292036 0.00733919 -1.00061 
0.00242131 0.00545966 -1.00061 
0.0018925 0.00418331 -1.00061 
0.00144655 0.0031192 -1.00061 
0.0010615 0.00243508 -1.00061 
0.000785807 0.00187258 -1.00062 
0.000586773 0.00143119 -1.00062 
0.000438928 0.00106488 -1.00063 
0.000306137 0.000841391 -1.00063 
0.000208785 0.000700799 -1.00064 
0.000132733 0.000592003 -1.00064 
8.80464e-05 0.000472244 -1.00065 
0.000111857 0.00033308 -1.00065 
0.000158076 0.000164315 -1.00066 
0.000245908 2.11739e-05 -1.00066 
0.000378986 -7.44739e-05 -1.00067 
0.000472393 -0.000197149 -1.00067 
0.000529327 -0.000286931 -1.00067 
0.000532128 -0.000389973 -1.00056 
0.000519224 -0.000444903 -1.00078 
0.000498 -0.000529918 -1.00054 
0.000521933 -0.000545561 -0.999018 
-0.000565057 -0.000535988 0.999351 
-0.000536287 -0.000472248 1.00068 
-0.000529709 -0.000400731 1.00059 
-0.000525317 -0.000331617 1.00079 
-0.000472724 -0.000313647 1.00057 
-0.000493627 -0.000262032 1.00068 
-0.000386699 -0.000187409 1.00068 
-0.000241033 -0.000125242 1.00068 
-0.000125515 4.46165e-05 1.00067 
-2.10365e-05 0.000217031 1.00066 
-1.39166e-06 0.000413636 1.00066 
-3.52236e-05 0.000569833 1.00065 
-0.000103154 0.000713197 1.00065 
-0.00022571 0.000897732 1.00064 
-0.000335384 0.00112246 1.00064 
-0.000463923 0.0015072 1.00063 
-0.000635241 0.0019987 1.00063 
-0.000893865 0.0026906 1.00062 
-0.00117045 0.00352338 1.00062 
-0.00145221 0.00465942 1.00061 
-0.0017109 0.00606037 1.00061 
-0.00200975 0.00795934 1.0006 
-0.00239788 0.010373 1.00059 
-0.00312454 0.0140393 1.00056 
-0.00449299 0.0193131 1.00048 
-0.00677783 0.0264383 1.00031 
-0.00990518 0.035598 1 
-0.0131064 0.0493623 0.999363 
-0.0165943 0.0689001 0.998123 
-0.0196814 0.0964003 0.995736 
-0.0187863 0.131808 0.991627 
-0.0152045 0.176079 0.984789 
-0.0155459 0.232289 0.972877 
0.000168675 0.285051 0.958766 
-0.00244077 0.356695 0.93445 
0.0500478 0.544576 0.837034 
-0.00753071 0.619589 0.784445 
0.0275251 0.764477 0.643028 
0.0374052 0.877568 0.476434 
0.0111613 0.982762 0.176708 
0.0100637 0.965234 -0.243182 
-0.0126168 0.880143 -0.473157 
-0.0430845 0.637424 -0.769175 
-0.0232052 0.518335 -0.854663 
0.0090014 0.402067 -0.91563 
-0.00376621 0.312216 -0.950224 
0.0141645 0.246841 -0.969214 
0.0170519 0.193744 -0.98131 
0.01381 0.145064 -0.989808 
0.0210472 0.110183 -0.994243 
0.0173626 0.0781313 -0.997399 
0.012873 0.0553356 -0.999032 
0.0107695 0.0393771 -0.99984 
0.00741214 0.0296337 -1.00022 
0.00455028 0.0217815 -1.00044 
0.00342524 0.0155844 -1.00054 
0.00265222 0.0113055 -1.00058 
0.00227138 0.00848052 -1.0006 
0.00197811 0.00642981 -1.00061 
0.00156091 0.00495114 -1.00061 
0.0012797 0.00372334 -1.00061 
0.000981709 0.00288768 -1.00062 
0.000716784 0.00218822 -1.00062 
0.000507377 0.00166968 -1.00062 
0.000371392 0.00125495 -1.00063 
0.000253185 0.000974313 -1.00063 
0.000151973 0.000773054 -1.00064 
7.60948e-05 0.000634712 -1.00064 
1.24627e-05 0.000492199 -1.00065 
1.86729e-05 0.000314661 -1.00065 
7.18148e-05 0.000140068 -1.00066 
0.000163975 -4.68747e-05 -1.00066 
0.00030179 -0.00015013 -1.00067 
0.000409661 -0.000224694 -1.00067 
0.000485682 -0.000291708 -1.00078 
0.000525624 -0.000344128 -1.00067 
0.00051622 -0.000393579 -1.00067 
0.000518409 -0.000474607 -1.00065 
0.000539043 -0.000528532 -0.999264 
-0.000564186 -0.000529732 0.999126 
-0.00052796 -0.000453734 1.00056 
-0.000502335 -0.000380475 1.0008 
-0.000494396 -0.000341658 1.00079 
-0.000420862 -0.000342829 1.00067 
-0.000392932 -0.000275078 1.00067 
-0.000256526 -0.00024561 1.00078 
-0.000105463 -9.90886e-05 1.00067 
5.5323e-06 6.89878e-05 1.00066 
7.6631e-05 0.000296597 1.00065 
7.47568e-05 0.000482628 1.00065 
2.644e-05 0.000647533 1.00064 
-9.12801e-05 0.00083427 1.00064 
-0.00019716 0.00106725 1.00063 
-0.000301159 0.00137754 1.00063 
-0.000397772 0.00183716 1.00062 
-0.000576427 0.00243905 1.00062 
-0.000768673 0.00323272 1.00061 
-0.000947943 0.00418993 1.00061 
-0.00103865 0.00538093 1.0006 
-0.00116811 0.00688899 1.0006 
-0.00123533 0.00887138 1.00059 
-0.00144803 0.0117049 1.00057 
-0.00175404 0.0159667 1.00053 
-0.00251842 0.0221201 1.00043 
-0.00371666 0.0302141 1.00022 
-0.00512138 0.040198 0.999853 
-0.00583196 0.0540578 0.999179 
-0.00560374 0.0736321 0.997898 
-0.00336456 0.0987361 0.995694 
0.00180178 0.132616 0.991698 
0.0170197 0.15872 0.987588 
0.0195541 0.203054 0.979384 
0.0425019 0.246867 0.968421 
0.0522241 0.315845 0.947437 
0.0493878 0.410959 0.910329 
0.0885202 0.677796 0.729118 
0.0995285 0.779197 0.617821 
0.0488439 0.942139 0.329396 
0.00389823 0.994745 -0.0860623 
-0.052442 0.886047 -0.457629 
-0.068708 0.745973 -0.66107 
-0.109291 0.562894 -0.818659 
-0.064052 0.438734 -0.896297 
-0.0605239 0.350834 -0.934629 
-0.0517551 0.266555 -0.962723 
-0.0264809 0.216892 -0.976208 
-0.0136431 0.171634 -0.9856 
-0.003811 0.126928 -0.992433 
0.00591355 0.0975859 -0.995806 
0.00638251 0.0715405 -0.998061 
0.00515117 0.0495143 -0.999428 
0.0039961 0.0372007 -0.999979 
0.00266991 0.0284447 -1.00027 
0.00171829 0.0211773 -1.00044 
0.00167813 0.0152577 -1.00053 
0.0015347 0.0109696 -1.00058 
0.00144585 0.00823221 -1.0006 
0.00129372 0.00640692 -1.0006 
0.00107709 0.00483661 -1.00061 
0.000900737 0.00375392 -1.00061 
0.000702822 0.00285311 -1.00062 
0.00050323 0.00217217 -1.00062 
0.00034519 0.00162271 -1.00063 
0.000239877 0.00124113 -1.00063 
0.000133346 0.000945588 -1.00063 
3.21694e-05 0.000744138 -1.00064 
-3.86607e-05 0.000583998 -1.00064 
-7.16883e-05 0.000389157 -1.00065 
-4.92422e-05 0.000185248 -1.00066 
3.41676e-05 -8.20402e-06 -1.00066 
0.000173651 -0.000194957 -1.00067 
0.000298333 -0.000272274 -1.00067 
0.000413975 -0.000306413 -1.00057 
0.000441715 -0.00033319 -1.00067 
0.000487064 -0.000335895 -1.00068 
0.000488392 -0.000367061 -1.00068 
0.000510429 -0.000435074 -1.00067 
0.000537206 -0.000516916 -0.999251 
-0.000507933 -0.000557009 0.999105 
-0.000480353 -0.00047012 1.00065 
-0.000444513 -0.000355269 1.00057 
-0.000430611 -0.000348272 1.00067 
-0.000355845 -0.000377376 1.00078 
-0.000343752 -0.000348858 1.00057 
-0.000254037 -0.00037936 1.00067 
-0.000158539 -0.000272801 1.00067 
-2.2109e-05 -0.000156303 1.00067 
9.29467e-05 7.17833e-05 1.00066 
0.000152323 0.000284405 1.00065 
0.000153575 0.000484005 1.00065 
7.01599e-05 0.000705675 1.00064 
-4.57011e-05 0.000929103 1.00063 
-0.000159989 0.00123392 1.00063 
-0.000238552 0.00161027 1.00063 
-0.000309251 0.00219386 1.00062 
-0.000423306 0.00290158 1.00062 
-0.000536903 0.00380599 1.00061 
-0.000576727 0.00483317 1.00061 
-0.000566373 0.00616807 1.0006 
-0.000529044 0.00780637 1.00059 
-0.000488701 0.0101979 1.00058 
-0.000361447 0.0136562 1.00055 
-0.000162263 0.0191146 1.00047 
-0.000132823 0.0263183 1.00032 
-5.2977e-05 0.0351222 1.00006 
0.000714968 0.0458141 0.999621 
0.00314004 0.0600864 0.998845 
0.00807943 0.0807006 0.997336 
0.0155752 0.10643 0.994793 
0.0330906 0.124725 0.992188 
0.0502924 0.161519 0.986156 
0.0700252 0.195911 0.978502 
0.0973918 0.249666 0.963769 
0.0887619 0.394552 0.914488 
0.123223 0.561172 0.818086 
0.189616 0.650604 0.733898 
0.102022 0.863104 0.493709 
0.0322144 0.987078 0.142538 
-0.0387011 0.956965 -0.285813 
-0.143475 0.718437 -0.679977 
-0.150988 0.45127 -0.879519 
-0.132798 0.352522 -0.926433 
-0.103131 0.276578 -0.955688 
-0.0876436 0.20478 -0.975245 
-0.056213 0.186069 -0.981342 
-0.0390899 0.149087 -0.988457 
-0.0214275 0.121379 -0.992908 
-0.0080172 0.0922046 -0.996295 
-0.00340187 0.0709174 -0.998115 
-0.00143547 0.0523156 -0.999297 
-0.00179965 0.0378763 -0.999955 
-0.00111991 0.0297115 -1.00023 
-0.000624627 0.0225359 -1.00041 
0.000180285 0.0161787 -1.00052 
0.000591863 0.0116966 -1.00057 
0.00076215 0.00872126 -1.00059 
0.000726894 0.00681132 -1.0006 
0.000709046 0.00534759 -1.0006 
0.000576755 0.00410426 -1.00061 
0.000499259 0.0031808 -1.00061 
0.000367888 0.00243082 -1.00062 
0.000271858 0.00183513 -1.00062 
0.000175819 0.00138359 -1.00063 
8.15351e-05 0.00105105 -1.00063 
-3.07161e-05 0.000803484 -1.00064 
-0.0001159 0.000600781 -1.00064 
-0.00014048 0.000397604 -1.00065 
-0.000122021 0.000147921 -1.00065 
-3.40955e-05 -6.66352e-05 -1.00066 
9.25962e-05 -0.000224035 -1.00066 
0.000228808 -0.000342987 -1.00077 
0.000340275 -0.000357293 -1.00067 
0.000388885 -0.000358981 -1.00067 
0.000435829 -0.00034538 -1.00068 
0.000447131 -0.000377817 -1.00068 
0.000483562 -0.000437997 -1.00067 
0.000519862 -0.000514415 -0.999119 
-0.000417532 -0.000585834 0.999267 
-0.000388024 -0.000463444 1.00065 
-0.000447701 -0.000400042 1.00069 
-0.000383932 -0.00034997 1.00068 
-0.000371202 -0.000350594 1.00057 
-0.000290315 -0.000412192 1.00067 
-0.000180509 -0.00041378 1.00066 
-7.97743e-05 -0.00033134 1.00066 
6.90101e-05 -0.000143403 1.00066 
0.000164537 5.63375e-05 1.00065 
0.000216951 0.000269053 1.00064 
0.000189747 0.00053793 1.00064 
0.000101704 0.000794471 1.00063 
-1.49143e-05 0.00107351 1.00063 
-9.63027e-05 0.00143754 1.00062 
-0.000149335 0.00189685 1.00062 
-0.000159024 0.00251945 1.00061 
-0.000208634 0.00325986 1.00061 
-0.000225178 0.0041154 1.0006 
-0.000220395 0.00515317 1.0006 
-0.000116959 0.00639746 1.00059 
3.16124e-05 0.00805629 1.00058 
0.000290342 0.0102453 1.00057 
0.000732837 0.0136462 1.00054 
0.00152704 0.0187247 1.00047 
0.00249032 0.0256759 1.00033 
0.00376468 0.0335836 1.00009 
0.00573891 0.0424294 0.999746 
0.0101381 0.0539335 0.999146 
0.0171434 0.0697084 0.998055 
0.0271738 0.086958 0.996446 
0.0468165 0.100707 0.994387 
0.0677646 0.127722 0.989938 
0.101074 0.146037 0.984548 
0.126284 0.193316 0.973295 
0.134444 0.301371 0.944111 
0.149538 0.418532 0.895235 
0.247982 0.507742 0.825775 
0.126047 0.881409 0.454065 
0.00320555 0.999336 -0.0534583 
-0.105085 0.898011 -0.42319 
-0.209589 0.637191 -0.741384 
-0.212486 0.329343 -0.919917 
-0.161891 0.249468 -0.955003 
-0.129012 0.189126 -0.973771 
-0.100154 0.13986 -0.985536 
-0.0703072 0.13491 -0.988831 
-0.048142 0.111988 -0.99318 
-0.027003 0.0941815 -0.995783 
-0.0164383 0.0740566 -0.997654 
-0.010239 0.0580387 -0.999038 
-0.00686437 0.0423663 -0.999759 
-0.00558799 0.0320856 -1.00014 
-0.00367875 0.0257471 -1.00033 
-0.0018853 0.0192441 -1.00046 
-0.000672732 0.0138553 -1.00053 
1.72161e-05 0.0101167 -1.00057 
0.000211361 0.00787949 -1.00058 
0.000274153 0.00619514 -1.00059 
0.000318445 0.00490618 -1.0006 
0.000256024 0.00381143 -1.00061 
0.000226658 0.00298389 -1.00061 
0.000180306 0.0022739 -1.00061 
0.000137286 0.00173432 -1.00062 
5.99612e-05 0.00129952 -1.00063 
-3.7862e-05 0.000973445 -1.00063 
-0.000143371 0.000708569 -1.00063 
-0.000201472 0.000462263 -1.00064 
-0.000199446 0.000231186 -1.00064 
-0.000136115 -3.70489e-05 -1.00065 
-1.82875e-05 -0.000234794 -1.00066 
0.000113507 -0.000355239 -1.00055 
0.000216019 -0.000427807 -1.00066 
0.000303682 -0.000405555 -1.00067 
0.000349807 -0.000370777 -1.00067 
0.000392421 -0.000344557 -1.00068 
0.000390556 -0.000368398 -1.00068 
0.000432458 -0.000446994 -1.00066 
0.000461644 -0.000564034 -0.9992 
-0.000296077 -0.000603103 0.999312 
-0.000268768 -0.00042778 1.00066 
-0.000360831 -0.00038073 1.00069 
-0.000307331 -0.000333052 1.00079 
-0.000312924 -0.000374921 1.00067 
-0.00026105 -0.000433549 1.00066 
-0.000211308 -0.000468253 1.00055 
-0.000107397 -0.000453276 1.00076 
1.356e-06 -0.000330582 1.00055 
0.000111337 -0.00016967 1.00065 
0.000195709 2.94044e-05 1.00064 
0.000227927 0.000309927 1.00063 
0.000188288 0.000603207 1.00063 
0.000104139 0.000916787 1.00062 
2.11087e-05 0.00125777 1.00062 
-2.59877e-05 0.00172236 1.00062 
-2.15519e-05 0.00224518 1.00061 
2.03063e-05 0.00293784 1.00061 
4.79987e-05 0.00369061 1.0006 
5.00661e-05 0.00460031 1.0006 
0.000109995 0.00564774 1.00059 
0.000276318 0.00699801 1.00058 
0.000587789 0.00868653 1.00057 
0.00114785 0.0112409 1.00056 
0.00217486 0.0151385 1.00051 
0.00371319 0.0209438 1.00042 
0.00558878 0.0279645 1.00025 
0.00822843 0.0355672 1 
0.0125928 0.0438665 0.999633 
0.0204554 0.0545746 0.998973 
0.0324746 0.0659936 0.997954 
0.0498049 0.0766298 0.996456 
0.0778213 0.0929742 0.993236 
0.115414 0.0987868 0.989045 
0.15961 0.137706 0.977954 
0.181307 0.253162 0.950507 
0.211056 0.420161 0.882467 
0.184575 0.611273 0.769323 
0.200429 0.807199 0.552964 
0.0490776 0.975844 0.191211 
-0.153957 0.862284 -0.477198 
-0.241024 0.453513 -0.857772 
-0.297305 0.278246 -0.91311 
-0.180899 0.154819 -0.97145 
-0.138976 0.113299 -0.984197 
-0.0998682 0.0894404 -0.991482 
-0.0729304 0.0916465 -0.993642 
-0.0536368 0.0768842 -0.996194 
-0.0369572 0.0776445 -0.99692 
-0.0249779 0.0644804 -0.998255 
-0.0175911 0.0519916 -0.999072 
-0.0119889 0.0403907 -0.999798 
-0.00891291 0.0313876 -1.00015 
-0.00614959 0.0247973 -1.00034 
-0.0035489 0.0193165 -1.00046 
-0.00165315 0.013888 -1.00053 
-0.000604449 0.0102769 -1.00056 
-0.000205674 0.00794418 -1.00058 
-3.88153e-05 0.00638813 -1.00059 
2.14633e-05 0.00507646 -1.0006 
1.53687e-05 0.00407236 -1.0006 
1.86701e-07 0.00317657 -1.00061 
3.60654e-05 0.00249671 -1.00061 
4.68052e-05 0.00189719 -1.00062 
7.76398e-06 0.00142961 -1.00062 
-7.66274e-05 0.00103806 -1.00063 
-0.000164396 0.000728862 -1.00063 
-0.000216577 0.000424492 -1.00063 
-0.000209287 0.000142226 -1.00064 
-0.00014893 -9.1981e-05 -1.00064 
-3.13746e-05 -0.000307081 -1.00075 
9.31987e-05 -0.000426332 -1.00066 
0.000201144 -0.000474285 -1.00066 
0.000278561 -0.000426084 -1.00067 
0.0002952 -0.000365386 -1.00067 
0.000327949 -0.000337398 -1.00067 
0.000307565 -0.00034505 -1.00067 
0.000343921 -0.000433961 -1.00067 
0.000364968 -0.00061034 -0.999208 
-0.000114117 -0.000577677 0.99929 
-0.000153236 -0.00039623 1.00065 
-0.000274795 -0.000336064 1.00068 
-0.000236082 -0.000299021 1.00067 
-0.000262315 -0.000354033 1.00067 
-0.000231508 -0.000437074 1.00066 
-0.000196034 -0.000508767 1.00066 
-0.000120021 -0.000515649 1.00065 
-1.1779e-05 -0.000397078 1.00065 
8.82822e-05 -0.000262272 1.00064 
0.000187225 -2.20763e-05 1.00063 
0.000218485 0.000261543 1.00062 
0.000193822 0.000597789 1.00072 
0.000133545 0.000967079 1.00062 
6.72985e-05 0.00139629 1.00052 
5.5475e-05 0.00186542 1.00071 
8.33287e-05 0.00241505 1.00051 
0.000156637 0.0030398 1.00069 
0.0002151 0.00378831 1.0005 
0.000249222 0.00464287 1.00059 
0.000294959 0.00569521 1.00058 
0.000470533 0.00689143 1.00058 
0.000847275 0.00843507 1.00057 
0.00156913 0.0106534 1.00055 
0.00289382 0.0141423 1.00052 
0.00484986 0.0189766 1.00045 
0.00727305 0.0250749 1.00031 
0.0103359 0.03123 1.00013 
0.0149496 0.0374499 0.999867 
0.0227319 0.0438739 0.999468 
0.0337917 0.0490028 0.998916 
0.0519624 0.0564026 0.997741 
0.076114 0.0599572 0.995963 
0.103683 0.0497075 0.994012 
0.151501 0.061041 0.987081 
0.218958 0.143272 0.965467 
0.257355 0.27566 0.926019 
0.34404 0.440733 0.829857 
0.276167 0.722663 0.639539 
-0.018574 1.00022 -0.0833893 
-0.3103 0.692971 -0.654791 
-0.368937 0.417109 -0.831584 
-0.238309 0.203198 -0.949771 
-0.224408 0.0896958 -0.970645 
-0.158924 0.0629509 -0.985741 
-0.112799 0.0494515 -0.99297 
-0.0766434 0.0548026 -0.996128 
-0.0520239 0.0540032 -0.997729 
-0.0357936 0.0555368 -0.99848 
-0.0246953 0.0452459 -0.999466 
-0.0173067 0.0373648 -0.999846 
-0.0127157 0.0304692 -1.00014 
-0.0090401 0.0252247 -1.00031 
-0.00557751 0.0196751 -1.00044 
-0.00302013 0.0151089 -1.0005 
-0.00133696 0.0110607 -1.00055 
-0.000596333 0.00864188 -1.00057 
-0.000294055 0.00695312 -1.00057 
-0.00018709 0.00568147 -1.00058 
-0.000191783 0.00461707 -1.00068 
-0.000172032 0.0037143 -1.0005 
-0.000111528 0.00292828 -1.0007 
-4.23104e-05 0.00231011 -1.00061 
-2.99179e-05 0.00177258 -1.00061 
-6.72172e-05 0.00130246 -1.00062 
-0.000136977 0.000909658 -1.00062 
-0.000198289 0.000543945 -1.00063 
-0.000210075 0.000207789 -1.00063 
-0.000164926 -7.82632e-05 -1.00064 