# vtk DataFile Version 3.0 
Exported using Morpho https://github.com/Morpho-lang/morpho 
ASCII 
DATASET UNSTRUCTURED_GRID 

POINTS 1978 float 
-8.49174 -2.81333 -1.56434e-06 
-8.248 -2.83406 4.24058e-06 
-8.06052 -2.83454 2.60263e-06 
-7.79469 -2.83675 2.93553e-06 
-7.47688 -2.83508 2.63352e-06 
-7.22094 -2.83468 -4.62074e-07 
-7.0087 -2.83489 1.23328e-06 
-6.77384 -2.83123 -2.97126e-07 
-6.52838 -2.83322 1.0304e-06 
-6.34713 -2.83319 2.33877e-08 
-6.16627 -2.83215 -4.694e-06 
-5.9379 -2.83219 -1.1794e-06 
-5.71774 -2.83028 -1.32103e-06 
-5.51249 -2.83212 -2.66068e-06 
-5.2922 -2.83024 -3.78805e-06 
-5.08289 -2.83053 -6.23112e-06 
-4.8627 -2.82994 -6.87734e-06 
-4.66109 -2.83074 -9.8437e-06 
-4.43435 -2.83064 -7.05221e-06 
-4.223 -2.83054 -7.64085e-07 
-3.99915 -2.829 9.24542e-06 
-3.79686 -2.83073 1.26863e-05 
-3.5922 -2.82993 4.94413e-06 
-3.38963 -2.82998 4.48705e-06 
-3.18052 -2.8289 -5.75396e-06 
-2.97031 -2.82875 -5.46425e-05 
-2.75434 -2.82975 -0.000111625 
-2.5293 -2.82753 -0.000105648 
-2.29092 -2.82799 -8.4555e-05 
-2.04122 -2.82943 -9.45117e-05 
-1.79843 -2.8273 3.26916e-05 
-1.58219 -2.82697 0.000282193 
-1.38779 -2.82463 0.000331067 
-1.1763 -2.82665 0.0029337 
-1.0335 -2.81403 0.00560717 
-0.896417 -2.82077 0.00884349 
-0.809837 -2.81927 0.0171 
-0.658719 -2.79991 0.039473 
-0.497263 -2.82997 0.0570935 
-0.124834 -2.82576 0.0557045 
0.463806 -2.82501 -0.0734004 
0.671785 -2.79493 -0.0434735 
0.829659 -2.79595 -0.0172588 
0.961284 -2.82011 -0.00837325 
1.1058 -2.82226 -0.00373465 
1.22176 -2.83358 -0.00163475 
1.33971 -2.82155 -0.000465042 
1.53967 -2.82698 -0.000102751 
1.77017 -2.83048 -1.43364e-05 
2.03448 -2.82971 7.9607e-05 
2.2808 -2.82965 7.6517e-05 
2.52602 -2.83177 0.000122903 
2.7631 -2.83012 0.000103476 
2.98349 -2.83074 5.78429e-05 
3.2051 -2.82992 1.16617e-05 
3.4087 -2.82923 -1.31662e-05 
3.61768 -2.83093 -1.45168e-05 
3.81038 -2.82947 -9.74474e-06 
4.01894 -2.83015 -5.58292e-06 
4.24459 -2.82932 3.38166e-07 
4.44492 -2.82858 6.30748e-06 
4.66047 -2.82912 7.65077e-06 
4.87122 -2.83058 7.21364e-06 
5.07213 -2.83145 5.98317e-06 
5.2927 -2.83196 4.93374e-06 
5.50148 -2.83234 2.50119e-06 
5.70549 -2.83271 1.55635e-06 
5.92375 -2.83261 1.72033e-06 
6.14135 -2.83268 1.92854e-06 
6.33997 -2.83464 1.56191e-06 
6.58544 -2.83317 -4.87743e-07 
6.79139 -2.83367 1.47093e-07 
6.99516 -2.83499 -5.97176e-07 
7.25852 -2.8347 -7.15269e-07 
7.48697 -2.83707 -1.35998e-06 
7.74142 -2.83583 -2.05249e-06 
8.01057 -2.83535 -3.05836e-06 
8.19865 -2.83659 -4.84018e-06 
8.49159 -2.81225 1.25817e-06 
-8.49052 -2.55521 -7.70848e-07 
-8.28219 -2.61136 6.67955e-06 
-8.0411 -2.54254 8.71263e-08 
-7.85504 -2.6301 -4.0902e-06 
-7.57409 -2.66282 -2.16716e-06 
-7.27026 -2.62034 7.13261e-07 
-7.01945 -2.57707 1.26466e-07 
-6.80684 -2.60205 -6.99131e-07 
-6.56507 -2.61696 -1.03319e-06 
-6.33369 -2.54443 9.20712e-07 
-6.11486 -2.60591 2.76975e-06 
-5.88985 -2.59812 1.36485e-06 
-5.6765 -2.5783 1.46249e-06 
-5.46067 -2.59674 2.03201e-06 
-5.24352 -2.58662 4.36697e-06 
-5.02339 -2.60008 5.15133e-06 
-4.81573 -2.57816 9.10202e-06 
-4.59491 -2.60635 1.46659e-05 
-4.37835 -2.58856 1.65845e-05 
-4.15576 -2.60424 4.55617e-06 
-3.94213 -2.58442 -1.74179e-05 
-3.73225 -2.59288 -3.03203e-05 
-3.51937 -2.58981 -2.18549e-05 
-3.30654 -2.59393 -2.74435e-06 
-3.08714 -2.588 2.39412e-05 
-2.86104 -2.58595 6.75057e-05 
-2.62971 -2.58274 0.000115252 
-2.38902 -2.5847 0.000113377 
-2.14444 -2.59167 -9.07009e-06 
-1.89883 -2.5969 -0.000176566 
-1.66494 -2.59769 -0.000167809 
-1.45834 -2.61028 0.000132238 
-1.25905 -2.66251 -0.000546869 
-1.08348 -2.60693 -0.00187158 
-0.936104 -2.63872 -0.0021777 
-0.817455 -2.56105 -0.00095868 
-0.726411 -2.66834 0.00640232 
-0.532871 -2.7381 0.00980577 
-0.233783 -2.75698 0.0279673 
0.0576855 -2.78338 -0.0305603 
0.345479 -2.7791 -0.0237215 
0.514436 -2.72213 -0.0109385 
0.701366 -2.6762 -0.00744965 
0.8662 -2.63652 0.00158084 
1.01225 -2.64957 0.00130152 
1.14498 -2.57403 0.00277259 
1.32949 -2.62979 0.000149158 
1.53443 -2.62033 -0.00058549 
1.78395 -2.63133 3.30176e-05 
2.01996 -2.59939 7.30995e-05 
2.27271 -2.59237 -4.38278e-05 
2.52363 -2.59388 -0.000110916 
2.76451 -2.58526 -0.000100512 
3.00657 -2.60086 -4.53895e-05 
3.22495 -2.58637 -5.71122e-06 
3.44645 -2.59735 2.07009e-05 
3.65208 -2.58168 2.96559e-05 
3.86651 -2.59609 2.31289e-05 
4.09024 -2.60678 3.03958e-06 
4.29958 -2.57488 -1.05099e-05 
4.51597 -2.59484 -1.55627e-05 
4.73337 -2.59162 -1.07944e-05 
4.94331 -2.58295 -6.56615e-06 
5.15875 -2.60646 -4.68859e-06 
5.37733 -2.59129 -2.95741e-06 
5.58712 -2.58287 -1.99469e-06 
5.80371 -2.59981 -1.36003e-06 
6.02851 -2.59627 -1.51804e-06 
6.24017 -2.57013 -1.63258e-06 
6.45969 -2.62092 3.04577e-07 
6.68583 -2.573 6.49455e-07 
6.8937 -2.56743 -8.1674e-08 
7.12132 -2.62742 1.50082e-07 
7.37095 -2.59692 7.57566e-07 
7.61132 -2.6218 3.35447e-07 
7.87401 -2.63358 3.25574e-06 
8.08337 -2.54652 -6.04192e-07 
8.30395 -2.64052 -5.62987e-06 
8.49466 -2.52927 3.42695e-06 
-8.48985 -2.36364 -1.12041e-05 
-8.19816 -2.36415 2.40563e-06 
-7.94047 -2.29592 5.42928e-07 
-7.73241 -2.44795 -9.74152e-07 
-7.59018 -2.28612 -1.00845e-07 
-7.43644 -2.46106 8.94958e-08 
-7.17119 -2.38403 8.88511e-07 
-6.93559 -2.33062 -1.26129e-06 
-6.70519 -2.39495 -9.98319e-08 
-6.4861 -2.36766 -1.05703e-06 
-6.21578 -2.34224 1.0365e-06 
-6.00902 -2.3735 1.74228e-07 
-5.79386 -2.35324 -1.96257e-07 
-5.56768 -2.34966 1.52758e-07 
-5.35748 -2.36075 2.08428e-08 
-5.13155 -2.36495 4.84923e-07 
-4.92621 -2.35007 1.7416e-07 
-4.69775 -2.36888 1.02601e-06 
-4.48714 -2.36622 1.90362e-07 
-4.25964 -2.37113 -1.20146e-07 
-4.0531 -2.35908 -2.13704e-06 
-3.83797 -2.35065 -1.2888e-06 
-3.62975 -2.3631 5.23117e-07 
-3.41116 -2.36144 2.26113e-06 
-3.1948 -2.36146 5.0562e-06 
-2.96591 -2.3554 4.45121e-06 
-2.73172 -2.35108 9.63523e-06 
-2.4889 -2.35242 2.07516e-05 
-2.23641 -2.35443 2.00141e-05 
-1.98795 -2.36305 -3.94261e-05 
-1.7483 -2.36988 -0.000217811 
-1.52645 -2.37859 -0.000262687 
-1.32876 -2.44126 -0.000974489 
-1.16811 -2.4462 -0.00182821 
-0.974097 -2.4416 9.08582e-05 
-0.770435 -2.45447 -0.00356571 
-0.589351 -2.59322 0.00136723 
-0.425298 -2.62329 0.000527291 
-0.268165 -2.67993 0.00655287 
-0.0512479 -2.69934 0.0400192 
0.177219 -2.69134 -0.0120143 
0.421914 -2.64174 0.00496509 
0.616816 -2.56602 -0.00431324 
0.791663 -2.51342 0.00640724 
0.965899 -2.46469 0.000133048 
1.1372 -2.38526 0.00238754 
1.30664 -2.42953 0.000515804 
1.49749 -2.41107 0.000179428 
1.71606 -2.42479 0.000350294 
1.94897 -2.37964 0.000122032 
2.18984 -2.36626 -7.79795e-06 
2.44018 -2.3607 -3.17296e-05 
2.67971 -2.35651 -1.61532e-05 
2.92647 -2.3714 -9.80493e-06 
3.14921 -2.35308 -7.22615e-06 
3.37151 -2.36804 -3.18909e-06 
3.58186 -2.34508 -5.28399e-07 
3.79354 -2.36007 6.96852e-07 
4.00761 -2.37961 1.47275e-06 
4.21294 -2.34685 5.5987e-07 
4.43561 -2.35421 3.88002e-07 
4.64347 -2.36092 -2.78839e-07 
4.85503 -2.35075 -5.07312e-07 
5.07542 -2.36463 -1.50989e-07 
5.28361 -2.37083 -3.94373e-07 
5.50251 -2.34636 -1.25725e-07 
5.72127 -2.35962 -3.10694e-07 
5.93601 -2.37324 -2.81949e-07 
6.15224 -2.34013 -2.5034e-07 
6.38947 -2.36919 -2.4836e-08 
6.59413 -2.36245 -3.14066e-07 
6.82686 -2.31575 -1.32258e-07 
7.05662 -2.37459 1.37294e-07 
7.27808 -2.39295 -1.02475e-07 
7.5469 -2.38573 1.3993e-06 
7.79126 -2.42317 2.64477e-07 
8.01202 -2.31683 -2.67979e-07 
8.26841 -2.37619 -1.46538e-06 
8.48941 -2.28356 7.6097e-06 
-8.4921 -2.10787 -4.49222e-06 
-8.27381 -2.16897 4.44995e-06 
-8.08283 -2.07158 -7.79509e-07 
-7.7977 -2.13368 8.88755e-07 
-7.53178 -2.06234 3.17877e-07 
-7.33117 -2.22771 -1.11911e-07 
-7.08223 -2.13444 2.74447e-07 
-6.8021 -2.14274 5.49301e-08 
-6.59664 -2.14475 -5.77078e-08 
-6.35714 -2.16384 -1.90577e-07 
-6.11488 -2.11103 -2.981e-07 
-5.91313 -2.12956 -4.91206e-07 
-5.68806 -2.13192 -7.46585e-07 
-5.46329 -2.11634 -5.00283e-07 
-5.24957 -2.14292 -5.73474e-07 
-5.0403 -2.11609 -1.30805e-06 
-4.81949 -2.14209 -1.51299e-06 
-4.609 -2.13378 -1.72173e-06 
-4.39134 -2.14994 -1.61853e-06 
-4.18518 -2.12582 -1.87222e-06 
-3.97561 -2.12692 -1.55819e-06 
-3.76431 -2.1172 -1.32718e-06 
-3.55512 -2.13698 -1.79287e-06 
-3.34064 -2.1292 -2.79447e-06 
-3.12269 -2.13248 -5.23525e-06 
-2.89467 -2.1245 -7.75917e-06 
-2.65939 -2.12407 -1.00285e-05 
-2.41832 -2.12797 -2.79117e-06 
-2.17075 -2.12902 4.87711e-06 
-1.93332 -2.13533 -2.96698e-05 
-1.70019 -2.14524 -0.000209534 
-1.48292 -2.16373 -0.000285366 
-1.31119 -2.20566 -0.000253546 
-1.14791 -2.22864 -0.000303571 
-0.994477 -2.29753 -0.00506786 
-0.83699 -2.28462 -0.00028369 
-0.622179 -2.43881 -0.00142488 
-0.403831 -2.52433 -3.22183e-05 
-0.170593 -2.57693 0.0209054 
0.0409961 -2.61912 -0.0334246 
0.310414 -2.57374 -0.00589247 
0.505307 -2.46192 -0.00380037 
0.657146 -2.42443 0.003827 
0.811952 -2.31484 0.00114914 
0.957458 -2.29804 0.00230806 
1.14171 -2.20216 0.000219516 
1.34007 -2.2196 0.000793148 
1.5579 -2.20412 0.000462892 
1.77249 -2.18945 0.000112426 
2.01695 -2.15261 1.87414e-05 
2.26498 -2.14391 3.76283e-06 
2.50196 -2.12328 1.21623e-06 
2.74902 -2.14174 9.50037e-06 
2.97408 -2.13147 6.9062e-06 
3.20385 -2.12843 3.11995e-06 
3.41239 -2.12617 2.05654e-06 
3.63019 -2.1143 1.66551e-06 
3.84462 -2.13641 1.76034e-06 
4.0446 -2.13374 1.34419e-06 
4.27322 -2.12866 2.10579e-06 
4.48418 -2.11692 1.19051e-06 
4.69372 -2.12647 1.29832e-06 
4.91736 -2.13167 1.14672e-06 
5.1286 -2.12651 8.92652e-07 
5.33934 -2.13893 3.33917e-07 
5.56653 -2.12334 5.37663e-07 
5.78112 -2.1307 5.13445e-07 
5.98996 -2.13422 2.62152e-07 
6.23907 -2.13772 4.99102e-07 
6.44647 -2.11497 9.48804e-08 
6.66175 -2.12571 -1.81119e-07 
6.92583 -2.11075 1.54551e-06 
7.14428 -2.14161 -3.14572e-07 
7.38202 -2.18719 -3.27971e-07 
7.57993 -2.09129 -7.555e-07 
7.75751 -2.19147 1.0193e-06 
7.9691 -2.07837 -5.17776e-07 
8.21376 -2.1484 -2.92852e-06 
8.48999 -2.08394 3.09432e-06 
-8.49299 -1.79982 -6.38171e-06 
-8.31859 -1.90024 5.72735e-06 
-7.9158 -1.90905 1.91066e-07 
-7.686 -1.89765 -7.11081e-08 
-7.44388 -1.80909 2.22924e-06 
[...]
POINT_DATA 1978 
VECTORS vectors float
0.000951981 0.00119795 1.00094 
0.00130554 0.000848713 1.00359 
0.00153809 0.000543066 1.00408 
0.00179343 0.000173226 1.00412 
0.00213541 -0.000359027 1.00393 
0.00241576 -0.000896081 1.00363 
0.00253364 -0.00147508 1.00372 
0.00253473 -0.00199449 1.00362 
0.00255396 -0.00263738 1.00352 
0.00247642 -0.00312549 1.00255 
0.00233007 -0.00355698 1.0034 
0.00205173 -0.00400018 1.00345 
0.00180316 -0.0043838 1.00348 
0.00151615 -0.00479923 1.00345 
0.00102137 -0.00525718 1.00342 
0.000334638 -0.0055974 1.0034 
-0.000700443 -0.0058938 1.00338 
-0.00186506 -0.00625411 1.00338 
-0.00304164 -0.00709165 1.0034 
-0.00323479 -0.00842882 1.00337 
-0.001893 -0.00998336 1.00331 
0.000196991 -0.0107572 1.00323 
0.00222935 -0.0105462 1.00322 
0.00398075 -0.00955574 1.00324 
0.00502829 -0.00898175 1.00333 
0.00161623 -0.00896821 1.00349 
-0.00833058 -0.00694884 1.00363 
-0.0199443 -0.0011152 1.00366 
-0.0293509 0.00786178 1.00346 
-0.0407626 0.0219795 1.00277 
-0.0596689 0.0434473 1.0007 
-0.085871 0.0732018 0.996478 
-0.123205 0.114769 0.987958 
-0.182089 0.192769 0.966049 
-0.214181 0.277098 0.937951 
-0.245245 0.384393 0.890688 
-0.254363 0.457535 0.853427 
-0.240875 0.614179 0.768429 
-0.229667 0.761108 0.599491 
-0.0955673 1.00642 0.148549 
0.197957 0.81879 -0.567068 
0.217009 0.6256 -0.762285 
0.231449 0.459959 -0.859593 
0.229302 0.337128 -0.914717 
0.192804 0.241461 -0.952637 
0.168694 0.181784 -0.969695 
0.137955 0.13613 -0.983179 
0.0984346 0.0849021 -0.994429 
0.0666624 0.0465583 -0.999926 
0.0435683 0.0236002 -1.0024 
0.0310513 0.00885832 -1.00339 
0.0207748 -0.00259341 -1.0037 
0.00876531 -0.008719 -1.00373 
-0.00157905 -0.0103743 -1.00355 
-0.00647851 -0.00937579 -1.00335 
-0.00513144 -0.0087222 -1.00327 
-0.00188865 -0.00958266 -1.0032 
0.000476749 -0.0103532 -1.00322 
0.00219819 -0.00994598 -1.00328 
0.00299782 -0.00837159 -1.00336 
0.00282053 -0.0069971 -1.00337 
0.0019113 -0.00620508 -1.00335 
0.000779686 -0.00585361 -1.00335 
-0.000190324 -0.00561245 -1.00332 
-0.00101306 -0.00530588 -1.00335 
-0.0015146 -0.00486719 -1.0034 
-0.00181173 -0.00443646 -1.00342 
-0.00205144 -0.00403448 -1.00344 
-0.00231973 -0.00362368 -1.0035 
-0.00248514 -0.00312934 -1.00353 
-0.00255945 -0.00246017 -1.00358 
-0.00254607 -0.00191461 -1.00364 
-0.0024775 -0.0014676 -1.00371 
-0.0023385 -0.000843618 -1.00368 
-0.00218709 -0.000400646 -1.00357 
-0.00189006 9.60336e-05 -1.00374 
-0.00162543 0.000540554 -1.00404 
-0.00134472 0.00077542 -1.0037 
-0.000976955 0.00116571 -1.00122 
0.00059746 0.000817321 1.00131 
0.000960879 0.000589361 1.00508 
0.00120707 0.00021822 1.00663 
0.0014903 1.89836e-05 1.00648 
0.00180936 -0.000323178 1.00704 
0.00201142 -0.00090643 1.00651 
0.00203984 -0.00141408 1.00655 
0.00210539 -0.00187869 1.00636 
0.00210974 -0.00240038 1.00625 
0.00186921 -0.0028286 1.00702 
0.00187652 -0.00329413 1.0062 
0.00159652 -0.0036829 1.00611 
0.00126698 -0.00388265 1.00615 
0.000941974 -0.0041914 1.0061 
0.000387459 -0.00433224 1.00605 
-0.000382166 -0.00440026 1.00599 
-0.00142839 -0.00444057 1.00602 
-0.00262482 -0.00538683 1.00596 
-0.00360788 -0.0069938 1.00601 
-0.00361564 -0.00913232 1.00591 
-0.00213207 -0.0109324 1.00591 
0.000532584 -0.0120001 1.00582 
0.0030614 -0.0118922 1.00581 
0.00415514 -0.0097574 1.00591 
0.00320125 -0.00582514 1.00618 
-0.000601613 -0.00091776 1.00642 
-0.00746016 0.00447959 1.00658 
-0.0155783 0.0122855 1.00657 
-0.0230678 0.0262693 1.00614 
-0.0311214 0.049835 1.00466 
-0.0474587 0.0809423 1.00128 
-0.067587 0.122324 0.994539 
-0.102121 0.182989 0.980444 
-0.101735 0.273599 0.957542 
-0.12172 0.363468 0.92278 
-0.0691278 0.446757 0.892328 
-0.132268 0.533138 0.835668 
-0.139607 0.713192 0.67256 
-0.0753669 0.939318 0.326376 
0.0515557 0.985037 -0.0838411 
0.0999721 0.867098 -0.453353 
0.102999 0.741241 -0.652864 
0.118924 0.576333 -0.808176 
0.112381 0.425907 -0.899222 
0.121498 0.317874 -0.940981 
0.0834189 0.244771 -0.968322 
0.0853895 0.163146 -0.985866 
0.0638317 0.106091 -0.997123 
0.0447285 0.0631167 -1.00284 
0.0279041 0.0374242 -1.00539 
0.0206639 0.019067 -1.00648 
0.0129345 0.00717152 -1.00665 
0.00346686 -0.000503955 -1.00661 
-0.00250504 -0.0049716 -1.00628 
-0.00443325 -0.00818551 -1.00605 
-0.00396347 -0.0107109 -1.00587 
-0.00174979 -0.0117305 -1.00586 
0.00106004 -0.0112591 -1.00583 
0.00312269 -0.00975424 -1.0059 
0.00362878 -0.00777844 -1.00604 
0.00300719 -0.00588932 -1.00597 
0.00191752 -0.00475256 -1.00598 
0.000858447 -0.00435621 -1.00599 
-9.74346e-05 -0.00443197 -1.00591 
-0.000731011 -0.0042981 -1.00603 
-0.00116211 -0.00406601 -1.0061 
-0.00151756 -0.00381121 -1.00603 
-0.00176522 -0.00345226 -1.00614 
-0.00188967 -0.00302571 -1.00627 
-0.00210517 -0.00261165 -1.00613 
-0.00205932 -0.00210932 -1.0064 
-0.00204545 -0.00168006 -1.00649 
-0.0020897 -0.00119041 -1.00634 
-0.00191155 -0.000744775 -1.00662 
-0.00176207 -0.00032092 -1.00657 
-0.00153303 0.000105637 -1.00639 
-0.0011902 0.000247486 -1.00635 
-0.000995422 0.00066619 -1.00505 
-0.000611435 0.000751166 -1.00127 
0.000392467 0.000433775 1.00138 
0.000827789 9.01679e-05 1.00659 
0.00102683 -0.000199143 1.00767 
0.00138881 -0.000277234 1.00603 
0.00131767 -0.000599103 1.00698 
0.00165042 -0.000720331 1.00599 
0.00164872 -0.00112573 1.00665 
0.00162262 -0.00155772 1.00658 
0.00169272 -0.00200094 1.00639 
0.00162489 -0.00235853 1.0064 
0.00143458 -0.00280619 1.00635 
0.0012954 -0.00315726 1.00622 
0.00100239 -0.00333659 1.00615 
0.000678641 -0.0034715 1.00622 
0.00027309 -0.00355249 1.00614 
-0.000376875 -0.00340441 1.00609 
-0.00119675 -0.00327635 1.00608 
-0.00222428 -0.00393633 1.00607 
-0.00319945 -0.00553183 1.00606 
-0.00378016 -0.00814763 1.00603 
-0.00330464 -0.0104122 1.00599 
-0.0015741 -0.0121665 1.00596 
0.000877054 -0.0130607 1.00593 
0.0027981 -0.0119805 1.00599 
0.00305314 -0.00797208 1.0062 
0.00200982 -0.00183512 1.00648 
-0.000239733 0.00464846 1.00664 
-0.0047663 0.0134118 1.00669 
-0.00829996 0.0268084 1.00651 
-0.00962598 0.0467242 1.00559 
-0.0164035 0.0758226 1.00316 
-0.021242 0.113476 0.998447 
-0.038207 0.164582 0.989163 
-0.034278 0.22464 0.97662 
-0.0237737 0.323983 0.94652 
-0.00178172 0.458137 0.886132 
-0.0539685 0.641874 0.757552 
-0.0354367 0.78546 0.603782 
-0.0381608 0.904267 0.398577 
-0.0565675 0.986761 0.082235 
0.0120672 0.944277 -0.27684 
0.0223624 0.794254 -0.59001 
0.0318295 0.620783 -0.775764 
0.0292667 0.465047 -0.882842 
0.0286212 0.338545 -0.941295 
0.0126905 0.238305 -0.973456 
0.0339587 0.176203 -0.986391 
0.0270802 0.122159 -0.996849 
0.0229987 0.0804509 -1.00224 
0.0134112 0.0519269 -1.0049 
0.0108946 0.0303409 -1.00621 
0.00589801 0.0144331 -1.0067 
0.000893213 0.0053486 -1.00674 
-0.00142023 -0.000572323 -1.00658 
-0.00272508 -0.0063671 -1.00631 
-0.00323358 -0.0113125 -1.00608 
-0.00169332 -0.0130219 -1.00599 
0.0007714 -0.0123591 -1.00595 
0.00282383 -0.0106793 -1.00597 
0.00360007 -0.00867638 -1.00603 
0.00332943 -0.00618503 -1.00606 
0.00256135 -0.00431765 -1.00605 
0.00160623 -0.00338206 -1.00605 
0.000648629 -0.00339395 -1.0061 
-5.87262e-05 -0.00355043 -1.0061 
-0.00054199 -0.00351793 -1.00612 
-0.000954356 -0.00342249 -1.00614 
-0.00125587 -0.00326007 -1.00617 
-0.00138919 -0.00292544 -1.00625 
-0.00158389 -0.00255599 -1.00633 
-0.00163926 -0.00217368 -1.00639 
-0.00159139 -0.00173691 -1.00652 
-0.00167591 -0.00135614 -1.00643 
-0.00161935 -0.00098078 -1.00658 
-0.00147454 -0.000606449 -1.00754 
-0.00132547 -0.000211729 -1.0061 
-0.000981161 -8.64761e-05 -1.00745 
-0.000768283 0.000201912 -1.00627 
-0.000354352 0.000290494 -1.00176 
0.000187975 -4.94264e-05 1.00127 
0.000542839 -7.24699e-05 1.00625 
0.000696542 -0.000297406 1.00699 
0.00100939 -0.000485281 1.00758 
0.00108299 -0.000775358 1.00688 
0.00136716 -0.00094686 1.00661 
0.00127624 -0.00132423 1.00729 
0.00127689 -0.0017127 1.00661 
0.00125758 -0.00203147 1.00648 
0.00118138 -0.00246998 1.00644 
0.000927913 -0.00269102 1.00644 
0.000758766 -0.00291477 1.00639 
0.000466458 -0.00300862 1.00637 
5.81246e-05 -0.00296048 1.00633 
-0.000381028 -0.00280063 1.00625 
-0.00106682 -0.00249147 1.00623 
-0.00185871 -0.00276736 1.00618 
-0.00265384 -0.00404109 1.00617 
-0.00324484 -0.00649518 1.00616 
-0.00331597 -0.00908959 1.00616 
-0.00285898 -0.0114485 1.00611 
-0.0016969 -0.012868 1.00613 
0.000183604 -0.0130085 1.00616 
0.00177626 -0.0114079 1.00627 
0.00261235 -0.00741773 1.00646 
0.00256419 -0.000925133 1.00668 
0.00182284 0.00771705 1.00674 
0.00125321 0.0178677 1.0067 
0.00290788 0.0310571 1.00633 
0.00528717 0.0495762 1.00522 
0.0110325 0.0761587 1.00293 
0.0177446 0.112593 0.998654 
0.0216959 0.157697 0.990813 
0.0358775 0.204505 0.981447 
0.0377837 0.280328 0.961123 
0.0727166 0.360204 0.930574 
0.0424766 0.568005 0.819122 
0.0291014 0.781601 0.614133 
0.000840096 0.94431 0.29559 
0.0293166 0.983738 -0.0820074 
-0.0230618 0.860039 -0.493586 
-0.0693331 0.67486 -0.72967 
-0.0509339 0.540168 -0.83852 
-0.0689885 0.392174 -0.917539 
-0.0441614 0.307325 -0.951617 
-0.0427177 0.20583 -0.98138 
-0.0161932 0.150275 -0.992596 
-0.0088632 0.102619 -1.00065 
-0.00437812 0.0707357 -1.00371 
-0.00137869 0.0428754 -1.0055 
-0.000994148 0.0250776 -1.00643 
-0.00132628 0.0141478 -1.00668 
-0.00187897 0.0042169 -1.00671 
-0.00234847 -0.00291712 -1.00664 
-0.00220353 -0.00892487 -1.0064 
-0.00155379 -0.012222 -1.00626 
9.5178e-05 -0.0131191 -1.00618 
0.00187262 -0.0123972 -1.00612 
0.00295001 -0.010783 -1.00615 
0.00326671 -0.00805435 -1.00618 
0.00301056 -0.00542175 -1.00625 
0.00241635 -0.00345299 -1.00623 
0.00156042 -0.00252647 -1.00625 
0.000824538 -0.00253033 -1.0063 
0.000198912 -0.0028335 -1.00625 
-0.000271683 -0.0029829 -1.00624 
-0.000619099 -0.00298097 -1.00628 
-0.000875174 -0.00282369 -1.00633 
-0.00106878 -0.00255371 -1.00641 
-0.00114084 -0.00224611 -1.00654 
-0.00124885 -0.00194068 -1.00658 
-0.00127217 -0.00154155 -1.00667 
-0.00129345 -0.0012071 -1.0066 
-0.00128473 -0.000875701 -1.00602 
-0.0010921 -0.000738379 -1.00691 
-0.00109181 -0.000443213 -1.00693 
-0.000801997 -0.000339877 -1.0069 
-0.000607503 -0.000102618 -1.00657 
-0.000135612 -7.68026e-05 -1.00182 
0.000180985 -0.00061015 1.00113 
0.000381088 -0.000402459 1.00591 
0.000735279 -0.000529837 1.00613 
0.000849781 -0.000728979 1.00701 
0.000886573 -0.000920752 1.00759 
0.00108605 -0.0010856 1.00612 
0.000920899 -0.00119289 1.00661 
0.00103699 -0.00149377 1.00677 
0.000928843 -0.00175335 1.00674 
0.000898034 -0.00212181 1.00665 
0.00077023 -0.00236147 1.00664 
0.000529239 -0.00249324 1.00652 
0.000335703 -0.00260339 1.00646 
1.62613e-05 -0.00255708 1.0064 
-0.00040782 -0.00228028 1.00636 
-0.000872112 -0.00197785 1.00633 
-0.00153633 -0.00194014 1.0063 
-0.00217838 -0.00284336 1.00625 
-0.00264877 -0.00502876 1.00623 
-0.00264622 -0.00783413 1.00621 
-0.00237181 -0.0107328 1.00615 
-0.00199409 -0.0124113 1.00614 
-0.00126883 -0.0124713 1.00624 
0.000242386 -0.0116901 1.00634 
0.00232415 -0.00990801 1.00642 
0.00374658 -0.00606422 1.00658 
0.0040533 0.00100905 1.00672 
0.00517456 0.0111823 1.0067 
0.00893511 0.0223237 1.00648 
0.0137881 0.03494 1.00587 
0.0224673 0.0522068 1.00468 
0.0374273 0.0768001 1.00224 
0.0583985 0.105853 0.997828 
0.0748643 0.164507 0.987535 
0.103041 0.237797 0.96755 
0.145296 0.34792 0.926847 
0.120058 0.541223 0.831595 
0.189953 0.605308 0.77112 
0.111072 0.838972 0.521241 
-0.0548113 0.985958 0.0905626 
-0.0844151 0.906253 -0.391748 
-0.158564 0.662777 -0.728941 
-0.145101 0.446006 -0.882603 
-0.130884 0.282623 -0.95049 
-0.0934273 0.212779 -0.974957 
-0.082449 0.13974 -0.991036 
-0.0515847 0.124487 -0.995415 
-0.0389597 0.0862039 -1.00052 
-0.0246439 0.06301 -1.00378 
-0.0133354 0.0429365 -1.00523 
-0.0095765 0.0270608 -1.00621 
-0.00673965 0.0153214 -1.00666 
-0.00394983 0.00457457 -1.00677 
-0.00358246 -0.00349759 -1.00672 
-0.00256341 -0.00845227 -1.00649 
-0.00109537 -0.0114015 -1.00631 
0.000247655 -0.0127236 -1.00627 
0.00142473 -0.0126569 -1.00621 
0.00208975 -0.0114444 -1.00617 
0.00256155 -0.00902983 -1.00621 
0.00258817 -0.00608063 -1.00628 
0.00236772 -0.00364103 -1.00628 
0.00185077 -0.00223524 -1.00632 
0.00120896 -0.00179105 -1.00632 
0.000621963 -0.00207431 -1.00631 
0.000155673 -0.00242244 -1.00627 
-0.000197313 -0.00258914 -1.00634 
-0.000450431 -0.00256042 -1.00637 
-0.000702215 -0.00248141 -1.00645 
-0.000779489 -0.00223097 -1.00657 
-0.00089214 -0.00193748 -1.00664 
-0.000992131 -0.00165985 -1.0067 
-0.000980914 -0.00134346 -1.00733 
-0.00100529 -0.00106951 -1.00683 
-0.000867827 -0.000837251 -1.00697 
-0.000794593 -0.000617918 -1.00704 
-0.000592923 -0.000515789 -1.00679 
-0.000415798 -0.000355964 -1.00633 
-0.00013985 -0.00046022 -1.00153 
0.000288334 -0.000863115 1.00121 
0.00041249 -0.000722008 1.00604 
0.000538071 -0.000593317 1.0067 
0.00067391 -0.000717651 1.00672 
0.000743443 -0.000814507 1.00625 
0.000782321 -0.00108188 1.00649 
0.000790614 -0.00131318 1.00638 
0.000800425 -0.00157146 1.00648 
0.000715286 -0.00184653 1.00646 
0.000626183 -0.00205171 1.00646 
0.000483343 -0.00218119 1.00646 
0.000241962 -0.0021729 1.00627 
1.53636e-05 -0.00213218 1.00628 
-0.00030749 -0.00189413 1.00624 
-0.00070005 -0.00142278 1.00621 
-0.00114705 -0.00133295 1.00621 
-0.00163 -0.00188797 1.00614 
-0.00200388 -0.0035612 1.00614 
-0.00194217 -0.00611008 1.00608 
-0.00164971 -0.00909179 1.00606 
-0.00124905 -0.0115461 1.00602 
-0.00110009 -0.012353 1.00604 
-0.000657814 -0.0117105 1.00616 
0.000496211 -0.0107853 1.00626 
0.00262951 -0.00938013 1.00634 
0.00478335 -0.00643295 1.00648 
0.00601204 -0.000494653 1.00658 
0.00854263 0.00836047 1.00654 
0.0145215 0.0183152 1.00627 
0.0231671 0.0285238 1.00576 
0.0346987 0.0423548 1.00459 
0.0535794 0.0599916 1.00257 
0.0782287 0.0841397 0.99853 
0.10792 0.108607 0.992438 
0.131721 0.163968 0.980812 
0.171278 0.196971 0.966198 
0.209171 0.350902 0.913948 
0.296104 0.559096 0.762738 
0.204968 0.873257 0.395079 
0.0392924 0.998153 -0.0493962 
-0.196246 0.872204 -0.395921 
-0.273997 0.614609 -0.72442 
-0.213657 0.422015 -0.881541 
-0.178353 0.235631 -0.956007 
-0.127983 0.150822 -0.983426 
-0.0951277 0.092107 -0.996014 
-0.0669175 0.0764041 -1.00032 
-0.046344 0.0548054 -1.00396 
-0.0309973 0.0419484 -1.00471 
-0.0196703 0.0291196 -1.00507 
-0.0142637 0.0172645 -1.00692 
-0.00744758 0.00688765 -1.00656 
-0.00521625 -0.00168363 -1.00662 
-0.00407827 -0.0075109 -1.00651 
-0.0022122 -0.0100687 -1.0063 
-0.000483793 -0.0112907 -1.00619 
0.000565581 -0.0122213 -1.00617 
0.000967057 -0.0122793 -1.00605 
0.00122017 -0.0109589 -1.00604 
0.00165911 -0.0084494 -1.00611 
0.00194736 -0.00525039 -1.00611 
0.00186703 -0.00280087 -1.0062 
0.00149421 -0.00152524 -1.00622 
0.0010145 -0.00124984 -1.00616 
0.000568541 -0.0015453 -1.0062 
0.00016224 -0.0020042 -1.00626 
-0.000111429 -0.00214201 -1.00627 
-0.000347344 -0.00223764 -1.00631 
-0.000524134 -0.00214922 -1.0064 
-0.000645298 -0.00195276 -1.00644 
-0.000763869 -0.00173857 -1.00658 
-0.000808614 -0.0014817 -1.00587 
-0.000791322 -0.00122835 -1.00639 
-0.000831219 -0.00106193 -1.00659 
-0.000729155 -0.000860007 -1.00679 
-0.000660785 -0.000724323 -1.0069 
-0.000525116 -0.000688814 -1.00667 
-0.000370226 -0.000637133 -1.00608 
-0.000200373 -0.000808238 -1.00154 
0.000381224 -0.000897166 1.00139 
0.000474348 -0.000819465 1.00626 
0.00054809 -0.000700058 1.00673 
0.000643953 -0.000814823 1.00759 
0.000716652 -0.00090684 1.00669 
0.000739558 -0.00103478 1.00636 
0.000748128 -0.00120441 1.0057 
0.000695495 -0.00139526 1.00709 
0.0006725 -0.00162502 1.0058 
0.00060975 -0.00180619 1.00635 
0.000500116 -0.00190322 1.00635 
0.000341137 -0.0019694 1.00631 
0.000134197 -0.00181222 1.00634 
-0.000128496 -0.00163489 1.00623 
-0.000421748 -0.00123179 1.00619 
-0.000784603 -0.000865665 1.00616 
-0.00110623 -0.00123499 1.00614 
-0.00132442 -0.00268083 1.00608 
-0.00128852 -0.00495028 1.00608 
-0.000914952 -0.00801158 1.00604 
-0.000452986 -0.0106597 1.00603 
-5.96024e-05 -0.0120886 1.00604 
0.000158714 -0.0117939 1.00608 
0.000552124 -0.0105007 1.00618 
0.00172779 -0.00934173 1.00628 
0.00400847 -0.00822156 1.00639 
0.00601223 -0.00583333 1.00653 
0.00854436 -0.00043367 1.00655 
0.0141927 0.00666944 1.00643 
0.0212028 0.0142024 1.00616 
0.0336 0.0224956 1.00554 
0.0501094 0.0309058 1.00445 
0.0725797 0.0442319 1.00231 
0.103439 0.0473578 0.999573 
0.145515 0.0834869 0.989716 
0.204671 0.129627 0.973772 
0.241854 0.261162 0.931724 
0.22098 0.52328 0.838018 
0.128261 0.830714 0.551637 
-0.0763788 0.987858 0.107192 
-0.121433 0.877742 -0.472661 
-0.212409 0.574584 -0.806571 
-0.241602 0.255433 -0.934343 
-0.193345 0.12108 -0.977754 
-0.146566 0.0977389 -0.988856 
-0.111362 0.0512824 -0.998019 
-0.0763615 0.0443216 -1.00168 
-0.0530171 0.0318116 -1.00418 
-0.0367747 0.0245052 -1.00527 
-0.0248625 0.0197939 -1.00578 
-0.0180294 0.0111237 -1.00616 
-0.0110054 0.00450706 -1.00576 
-0.00732151 -0.0040133 -1.00656 
-0.00510691 -0.00719319 -1.00651 
-0.00292371 -0.00907454 -1.00637 
-0.00114684 -0.0102036 -1.00624 
-0.000284816 -0.0114164 -1.00614 
-0.000184104 -0.0122722 -1.00602 
7.31056e-05 -0.0115813 -1.00603 
0.000632387 -0.00937624 -1.00606 
0.00115748 -0.00659838 -1.00611 
0.00136015 -0.00361277 -1.00618 
0.00119577 -0.00166968 -1.00624 
0.000943345 -0.000854271 -1.00617 
0.00057285 -0.000899061 -1.00616 
0.000243349 -0.0014168 -1.00621 
-3.53924e-05 -0.00175148 -1.00612 
-0.000265541 -0.00195519 -1.00628 
-0.000450189 -0.00193468 -1.0064 
-0.000563911 -0.00183138 -1.00645 
-0.000662711 -0.00167734 -1.00716 
-0.000730721 -0.00147098 -1.00656 
-0.000713539 -0.00122192 -1.0064 
-0.000719724 -0.00102788 -1.00645 
-0.000657569 -0.000904616 -1.00664 
-0.000610111 -0.000798476 -1.00676 
-0.000523011 -0.000786337 -1.00669 
-0.000421805 -0.000777841 -1.00632 
-0.00027932 -0.000905989 -1.00165 
0.000442993 -0.000943324 1.00129 
0.000520957 -0.000901393 1.00627 
0.000576328 -0.000824999 1.00691 
0.000652373 -0.000864773 1.00693 
0.000686874 -0.000886308 1.0069 
0.000770049 -0.00107057 1.00649 
0.00076749 -0.00121683 1.00655 
0.000759835 -0.00140337 1.00657 
0.00070256 -0.00158965 1.00651 
0.000675735 -0.00168612 1.00649 
0.00054926 -0.00180318 1.00651 
0.000393562 -0.00177978 1.00633 
0.000203832 -0.00150873 1.00639 
-1.43738e-05 -0.00119059 1.00677 
-0.000341392 -0.000757858 1.00554 
-0.000587859 -0.000814907 1.00678 
-0.000784286 -0.001609 1.00554 
-0.000720138 -0.00346897 1.00674 
-0.000523651 -0.00610361 1.00548 
-4.0291e-05 -0.00897687 1.00605 
0.00048647 -0.0113918 1.00597 
0.00109182 -0.011943 1.00598 
0.0014936 -0.0112859 1.00606 
0.00203393 -0.0101529 1.00614 
0.00295044 -0.00879847 1.00625 
0.00518256 -0.00811685 1.00638 
0.00767475 -0.00712714 1.00647 
0.011193 -0.00424358 1.0065 
0.0171263 0.000551629 1.00639 
0.0243127 0.00539542 1.00616 
0.0361388 0.00760592 1.00589 
0.0559203 0.0125656 1.00465 
0.0764687 0.0109683 1.00321 
0.112299 0.00717119 0.999475 
0.160011 0.0362798 0.990919 
0.216704 0.0519585 0.977902 
0.303435 0.144986 0.949504 
0.327965 0.458468 0.822317 
0.304641 0.768758 0.566278 
0.0333613 1.00779 -0.0482007 
-0.289222 0.790186 -0.545732 
-0.322334 0.491487 -0.805646 
-0.298238 0.161825 -0.949186 
-0.213368 0.0601785 -0.979389 
-0.149074 0.0306439 -0.992989 
-0.101487 0.00332378 -1.00109 
-0.0741017 0.0124465 -1.00319 
-0.0529729 0.0101705 -1.0051 
-0.0374843 0.00944426 -1.00564 
-0.0258397 0.00764352 -1.00608 
-0.0176254 0.00166544 -1.00644 
-0.0110601 -0.00279324 -1.00654 
-0.00800536 -0.00720715 -1.00661 
-0.0053072 -0.00839613 -1.00649 
-0.00305697 -0.00925144 -1.00625 
-0.00180641 -0.0106313 -1.00618 
-0.00143498 -0.011839 -1.00607 
-0.00111098 -0.0123054 -1.00599 
-0.000527838 -0.0111781 -1.00606 
2.86464e-05 -0.00880992 -1.00668 
0.000668043 -0.00575772 -1.00544 
0.000767302 -0.00315465 -1.00682 
0.000662194 -0.00134409 -1.00625 
0.000556543 -0.000660167 -1.00623 
0.000244152 -0.000760692 -1.00621 
-4.90368e-06 -0.00112683 -1.00628 
-0.000242527 -0.00152948 -1.00557 
-0.000445733 -0.00172366 -1.00632 
-0.000596712 -0.00179009 -1.00703 
-0.000675463 -0.00168692 -1.00576 