# vtk DataFile Version 3.0 
Exported using Morpho https://github.com/Morpho-lang/morpho 
ASCII 
DATASET UNSTRUCTURED_GRID 

POINTS 1978 float 
-8.48528 -2.82837 -8.42885e-11 
-8.26044 -2.82843 1.70935e-11 
-8.03171 -2.82843 -2.77224e-13 
-7.79429 -2.82843 7.26221e-15 
-7.51437 -2.82843 1.21298e-12 
-7.25683 -2.82843 2.39963e-12 
-7.00954 -2.82843 2.15434e-12 
-6.79535 -2.82843 1.12588e-12 
-6.57357 -2.82843 1.55735e-12 
-6.36888 -2.82843 1.82441e-12 
-6.14976 -2.82843 -9.96394e-13 
-5.92242 -2.82843 -1.16427e-12 
-5.70799 -2.82843 -1.57557e-12 
-5.5092 -2.82843 -3.95572e-12 
-5.28219 -2.82843 -4.55927e-12 
-5.08094 -2.82843 -5.7333e-12 
-4.86358 -2.82843 -4.53103e-12 
-4.66293 -2.82843 -9.89407e-12 
-4.44747 -2.82843 -1.44113e-11 
-4.23948 -2.82843 -1.62772e-11 
-4.02632 -2.82843 -1.15968e-11 
-3.82658 -2.82843 -1.56552e-11 
-3.61494 -2.82843 -2.40449e-11 
-3.40378 -2.82843 -4.13404e-11 
-3.17998 -2.82843 -5.79817e-11 
-2.95725 -2.82843 -1.27596e-10 
-2.73029 -2.82843 -1.9756e-10 
-2.50352 -2.82843 -1.51849e-10 
-2.28313 -2.82843 -5.21568e-12 
-2.08203 -2.82843 1.94876e-10 
-1.88923 -2.82843 1.09773e-09 
-1.70053 -2.82843 3.28873e-09 
-1.53366 -2.82843 1.743e-08 
-1.37264 -2.82843 3.83652e-08 
-1.2344 -2.82843 7.74416e-08 
-1.10458 -2.82843 1.30541e-07 
-0.967372 -2.82842 3.66808e-07 
-0.804439 -2.82842 9.70513e-07 
-0.638078 -2.82842 2.00185e-06 
-0.46783 -2.82844 3.2959e-06 
0.688305 -2.82842 -4.62018e-06 
0.805936 -2.82842 -1.15364e-06 
0.950989 -2.82842 -6.79704e-07 
1.07323 -2.82843 -3.5824e-07 
1.23154 -2.82843 -1.36221e-07 
1.36394 -2.82843 -6.45275e-08 
1.54016 -2.82843 -1.58647e-08 
1.70189 -2.82843 -3.18992e-09 
1.87347 -2.82843 -9.30578e-10 
2.07827 -2.82843 -2.89924e-10 
2.27055 -2.82843 -5.59212e-11 
2.47845 -2.82843 2.18876e-10 
2.68766 -2.82843 2.27715e-10 
2.9322 -2.82843 1.42146e-10 
3.16825 -2.82843 8.21574e-11 
3.39829 -2.82843 5.22522e-11 
3.62199 -2.82843 2.24937e-11 
3.82983 -2.82843 1.07362e-11 
4.04316 -2.82843 1.46182e-11 
4.26342 -2.82843 1.87991e-11 
4.45839 -2.82843 1.41485e-11 
4.67125 -2.82843 1.01406e-11 
4.87038 -2.82843 4.16779e-12 
5.07971 -2.82843 3.6522e-12 
5.28497 -2.82843 4.48449e-12 
5.50272 -2.82843 4.53713e-12 
5.70632 -2.82843 2.16277e-12 
5.92587 -2.82843 1.12016e-12 
6.14849 -2.82843 4.68531e-13 
6.35042 -2.82843 -8.22218e-13 
6.58716 -2.82843 -1.02477e-12 
6.80123 -2.82843 -1.38207e-12 
7.00321 -2.82843 -2.99732e-12 
7.26998 -2.82843 -1.87852e-12 
7.50197 -2.82843 -1.07294e-12 
7.73967 -2.82843 5.50862e-13 
8.02021 -2.82843 1.06297e-12 
8.2051 -2.82843 -2.43965e-11 
8.48528 -2.82835 -5.04564e-10 
-8.48528 -2.59097 3.39112e-10 
-8.2557 -2.59058 -3.99079e-10 
-8.02593 -2.59004 -6.808e-15 
-7.77631 -2.60156 -4.44671e-16 
-7.52551 -2.64158 -1.54667e-15 
-7.24646 -2.62225 5.50108e-18 
-6.99317 -2.59884 -3.57683e-16 
-6.76315 -2.60449 -3.3141e-16 
-6.53738 -2.58244 -2.07595e-16 
-6.31334 -2.59387 1.04591e-16 
-6.08246 -2.6029 -2.06131e-16 
-5.86284 -2.59033 2.39627e-16 
-5.65597 -2.57177 5.71093e-16 
-5.43537 -2.60653 1.14085e-15 
-5.22483 -2.5793 2.85972e-15 
-5.00833 -2.60071 6.46731e-15 
-4.79881 -2.58326 1.40737e-14 
-4.58305 -2.60207 3.02179e-14 
-4.366 -2.59364 7.10059e-14 
-4.149 -2.59907 1.57678e-13 
-3.93765 -2.58134 3.29809e-13 
-3.72435 -2.59171 6.83954e-13 
-3.50363 -2.58565 1.55045e-12 
-3.27526 -2.59426 3.72567e-12 
-3.0392 -2.58971 9.82408e-12 
-2.80062 -2.59493 2.91718e-11 
-2.55758 -2.60025 9.54599e-11 
-2.31516 -2.60279 3.09513e-10 
-2.08228 -2.59908 9.80471e-10 
-1.86939 -2.60754 2.49551e-09 
-1.66521 -2.60814 6.4882e-09 
-1.48401 -2.62688 1.48294e-08 
-1.31578 -2.62289 3.21404e-08 
-1.16036 -2.63596 6.62846e-08 
-1.00857 -2.6837 1.05178e-07 
-0.97355 -2.54066 5.46319e-08 
-0.832668 -2.70553 2.21792e-07 
-0.602603 -2.68738 1.5208e-07 
-0.322602 -2.70865 2.27137e-08 
-0.23665 -2.8668 -6.84005e-07 
0.530597 -2.77773 -3.02797e-07 
0.685779 -2.63289 -1.84982e-07 
0.845143 -2.66241 -1.74347e-07 
0.994253 -2.62322 -1.3814e-07 
1.14841 -2.66206 -8.37905e-08 
1.30024 -2.60137 -4.41013e-08 
1.45934 -2.63449 -2.11775e-08 
1.63956 -2.59901 -9.06685e-09 
1.81801 -2.59912 -3.82854e-09 
2.0301 -2.6239 -1.34937e-09 
2.26524 -2.58888 -4.95022e-10 
2.48227 -2.58157 -1.59038e-10 
2.72472 -2.60618 -4.84137e-11 
2.96761 -2.59632 -1.52755e-11 
3.20161 -2.59405 -5.59266e-12 
3.43144 -2.59241 -2.09015e-12 
3.64653 -2.58114 -9.23188e-13 
3.86441 -2.59182 -4.45315e-13 
4.08937 -2.60316 -2.09568e-13 
4.29387 -2.57684 -9.62214e-14 
4.5089 -2.60012 -4.02665e-14 
4.71654 -2.58376 -1.73576e-14 
4.92902 -2.59497 -8.2065e-15 
5.1413 -2.58917 -2.98148e-15 
5.36144 -2.60169 -1.70873e-15 
5.57518 -2.58357 -7.09331e-16 
5.79408 -2.59945 -2.90322e-16 
6.02169 -2.60051 -1.75691e-16 
6.2381 -2.5744 -5.35784e-17 
6.46009 -2.61003 -1.42213e-18 
6.68833 -2.58406 8.98425e-17 
6.89935 -2.5667 2.27446e-16 
7.12921 -2.62941 2.88971e-16 
7.38045 -2.59767 1.68837e-16 
7.61544 -2.604 1.34695e-16 
7.87381 -2.63702 1.17319e-16 
8.08007 -2.53771 3.06052e-14 
8.30084 -2.63147 1.62696e-09 
8.48528 -2.53288 -2.14871e-09 
-8.48528 -2.34797 -1.33635e-09 
-8.25124 -2.35345 -2.44533e-10 
-8.01213 -2.35551 -5.09101e-15 
-7.76892 -2.39137 -1.11106e-16 
-7.55948 -2.23209 2.88395e-17 
-7.49225 -2.43779 -2.03379e-16 
-7.21079 -2.42071 -4.01447e-17 
-6.97893 -2.36155 5.47333e-18 
-6.74384 -2.3756 3.11121e-17 
-6.50824 -2.35038 1.71395e-17 
-6.27091 -2.37131 -2.99655e-17 
-6.04778 -2.36541 1.11843e-15 
-5.83161 -2.34372 1.52046e-16 
-5.59286 -2.35358 3.34398e-16 
-5.38307 -2.36125 7.52611e-16 
-5.14918 -2.35738 1.94932e-15 
-4.93922 -2.35765 4.45854e-15 
-4.71127 -2.36266 1.10768e-14 
-4.4957 -2.37169 2.52258e-14 
-4.27137 -2.36739 5.54427e-14 
-4.06171 -2.35479 1.08598e-13 
-3.84258 -2.3473 2.3987e-13 
-3.62989 -2.35297 5.79832e-13 
-3.40247 -2.3553 1.53474e-12 
-3.17632 -2.35892 4.03724e-12 
-2.94142 -2.35751 1.12724e-11 
-2.70499 -2.36807 3.36409e-11 
-2.4673 -2.37701 9.6998e-11 
-2.23465 -2.37769 2.46003e-10 
-2.0096 -2.3812 5.46852e-10 
-1.79983 -2.4035 1.14728e-09 
-1.60285 -2.39882 1.71867e-09 
-1.42818 -2.42878 4.50414e-09 
-1.26621 -2.42073 1.45645e-09 
-1.12692 -2.46613 2.52428e-09 
-0.843389 -2.45498 2.01813e-08 
-0.772125 -2.59727 8.70596e-08 
-0.590881 -2.52808 1.20678e-07 
-0.453353 -2.61561 7.07185e-08 
-0.131308 -2.70201 -4.19675e-08 
0.273175 -2.79001 5.35182e-08 
0.478326 -2.66342 -5.3228e-08 
0.800952 -2.4868 -7.56231e-08 
0.948373 -2.45948 -1.16112e-08 
1.13288 -2.47711 -1.74322e-08 
1.26086 -2.38687 1.26833e-09 
1.41735 -2.41645 -5.4756e-09 
1.58057 -2.40282 -1.80157e-09 
1.76913 -2.36296 -5.45335e-10 
1.965 -2.41123 -8.62313e-10 
2.1826 -2.39626 -3.33917e-10 
2.41746 -2.34648 -1.09063e-10 
2.65374 -2.37231 -4.32655e-11 
2.88817 -2.37178 -1.74869e-11 
3.1294 -2.35876 -5.73522e-12 
3.35713 -2.35932 -2.1216e-12 
3.57925 -2.34046 -8.08377e-13 
3.79743 -2.35234 -3.4078e-13 
4.01674 -2.37427 -1.57732e-13 
4.22613 -2.3411 -6.80266e-14 
4.44457 -2.36248 -2.81314e-14 
4.65006 -2.34989 -1.28151e-14 
4.86498 -2.35761 -5.51066e-15 
5.07456 -2.35527 -2.64913e-15 
5.29301 -2.3697 -1.14752e-15 
5.5051 -2.35206 -1.6564e-15 
5.72716 -2.36124 -7.84467e-16 
5.94568 -2.3738 -4.09241e-16 
6.16426 -2.34483 -1.07166e-16 
6.39813 -2.36358 -6.85106e-16 
6.61008 -2.36268 1.25848e-16 
6.83537 -2.32064 -6.26482e-17 
7.06846 -2.37966 -1.50184e-16 
7.28807 -2.39711 1.23788e-16 
7.5468 -2.37062 7.71116e-17 
7.78866 -2.41714 2.09354e-16 
7.99944 -2.31917 -9.32727e-15 
8.26002 -2.36498 -1.90285e-09 
8.48528 -2.28002 2.95224e-09 
-8.48528 -2.10871 2.41952e-09 
-8.25321 -2.10778 -1.40367e-09 
-8.04085 -2.1142 -9.43685e-15 
-7.80265 -2.15244 -3.80143e-17 
-7.49701 -2.03066 -2.8014e-17 
-7.29642 -2.23259 -8.55236e-17 
-7.05915 -2.14782 -3.19993e-17 
-6.80393 -2.1421 6.9394e-18 
-6.58403 -2.13159 -1.1738e-17 
-6.33989 -2.13942 -7.02681e-16 
-6.12024 -2.12776 -3.05474e-17 
-5.90972 -2.10927 -4.86076e-16 
-5.68488 -2.1333 -1.34744e-16 
-5.46288 -2.11238 -1.05212e-15 
-5.25238 -2.13925 -7.48109e-16 
-5.03568 -2.11493 -8.40696e-16 
-4.82198 -2.1376 -1.7803e-16 
-4.60533 -2.13389 -4.33761e-16 
-4.39335 -2.14579 -1.39269e-15 
-4.18509 -2.1214 -7.29689e-15 
-3.97498 -2.11993 -2.04965e-14 
-3.76263 -2.10728 -4.79766e-14 
-3.54607 -2.1237 -1.01218e-13 
-3.32415 -2.11897 -2.64352e-13 
-3.09871 -2.12462 -8.31085e-13 
-2.86532 -2.12679 -2.95155e-12 
-2.63188 -2.14046 -9.7753e-12 
-2.39837 -2.1504 -2.96022e-11 
-2.16896 -2.15625 -8.16601e-11 
-1.94895 -2.16723 -1.87729e-10 
-1.75253 -2.18916 -2.39667e-10 
-1.58997 -2.13814 -9.60992e-10 
-1.44007 -2.21566 -1.76341e-09 
-1.29594 -2.18366 -1.3207e-09 
-1.14772 -2.24725 -3.5101e-09 
-1.00226 -2.36605 9.44386e-09 
-0.675055 -2.43375 4.69272e-08 
-0.511176 -2.32152 -6.34718e-09 
-0.265546 -2.55303 1.15167e-07 
0.049167 -2.74571 -8.29415e-08 
0.443094 -2.51107 -1.88861e-07 
0.631629 -2.49321 -4.25367e-08 
0.766416 -2.31691 -1.52287e-08 
0.984033 -2.32371 3.44732e-09 
1.11169 -2.25397 4.15228e-09 
1.26404 -2.17453 2.68982e-09 
1.4266 -2.19897 3.57577e-09 
1.59929 -2.18374 1.38314e-09 
1.8055 -2.15086 6.49258e-11 
2.01199 -2.19463 2.88393e-10 
2.22887 -2.16766 1.57191e-11 
2.47905 -2.12829 1.27492e-11 
2.70859 -2.13671 2.84871e-12 
2.94609 -2.14185 1.11376e-12 
3.1747 -2.1195 4.00447e-13 
3.39676 -2.11937 1.64664e-13 
3.61953 -2.10562 8.70753e-14 
3.84101 -2.12551 2.81949e-14 
4.04735 -2.13025 1.18997e-14 
4.27549 -2.11931 7.07892e-15 
4.47986 -2.11923 2.29836e-15 
4.69732 -2.12121 9.02693e-16 
4.90754 -2.11992 5.43469e-16 
5.12777 -2.12989 -8.57952e-18 
5.33671 -2.1286 9.87979e-17 
5.56159 -2.1257 -6.66716e-17 
5.78157 -2.13017 1.33625e-16 
5.99513 -2.13205 -9.74443e-17 
6.23694 -2.12936 2.94243e-16 
6.45018 -2.11425 -1.11632e-16 
6.66509 -2.11818 3.72554e-16 
6.92503 -2.11463 -4.00252e-17 
7.14143 -2.14062 -2.25619e-17 
7.3721 -2.17995 2.12222e-17 
7.56414 -2.08246 -7.96013e-18 
7.7481 -2.18256 3.67943e-17 
7.96444 -2.083 -6.50091e-16 
8.19866 -2.14487 6.39455e-12 
8.48528 -2.09906 5.70241e-10 
-8.48528 -1.80257 -4.15406e-11 
-8.30937 -1.86487 1.16924e-09 
-7.89635 -1.9058 4.07051e-17 
[...]
POINT_DATA 1978 
VECTORS vectors float
-0.00394684 -0.0119101 0.999916 
0.00090732 -0.000629911 0.999999 
-0.000223559 -0.000444719 1 
-6.91826e-05 -0.000340792 1 
-8.2146e-05 -0.000222622 1 
-6.2112e-05 -9.07101e-05 1 
-3.89078e-05 3.39362e-05 1 
-2.48667e-05 0.000157955 1 
-1.78378e-05 0.000281677 1 
-1.56082e-05 0.000398623 1 
-1.69302e-05 0.000508783 1 
-1.91941e-05 0.000611275 1 
-2.26544e-05 0.000713283 1 
-3.64269e-05 0.00084086 1 
-5.09774e-05 0.00106967 0.999999 
-6.92486e-05 0.00139926 0.999999 
-8.81842e-05 0.00187287 0.999998 
-0.000118138 0.00240469 0.999997 
-0.000157359 0.00314166 0.999995 
-0.000199442 0.00415089 0.999991 
-0.000234453 0.00553775 0.999985 
-0.000294195 0.00716024 0.999974 
-0.000401277 0.00928353 0.999957 
-0.000583495 0.0120078 0.999928 
-0.000859601 0.0156321 0.999877 
-0.00128317 0.0202424 0.999794 
-0.00190902 0.0274012 0.999623 
-0.00252679 0.0389457 0.999238 
-0.00285573 0.0557116 0.998443 
-0.00313167 0.0785549 0.996905 
-0.00340078 0.107902 0.994156 
-0.00353472 0.145878 0.989297 
-0.00337785 0.194524 0.980892 
-0.00313454 0.256014 0.966668 
-0.00349863 0.323136 0.946346 
-0.00429319 0.397881 0.917428 
-0.00550228 0.487405 0.87316 
-0.00657358 0.619388 0.785059 
-0.00646398 0.768859 0.639388 
-0.0235998 0.925479 0.378058 
0.00360274 0.830614 -0.556814 
0.00547778 0.706168 -0.708024 
0.00365152 0.579165 -0.815203 
0.00477129 0.47536 -0.879779 
0.00429016 0.35453 -0.935035 
0.00432676 0.279375 -0.960173 
0.00386852 0.201348 -0.979512 
0.00340099 0.151662 -0.988427 
0.00326019 0.114714 -0.993393 
0.00318586 0.0840365 -0.996458 
0.00259935 0.0605122 -0.998164 
0.00214793 0.043296 -0.99906 
0.0020012 0.0314183 -0.999504 
0.00170599 0.0224857 -0.999746 
0.00116597 0.0164967 -0.999863 
0.000734484 0.0121572 -0.999926 
0.000461208 0.00924694 -0.999957 
0.000329554 0.00718846 -0.999974 
0.000275278 0.00542981 -0.999985 
0.000202589 0.0039608 -0.999992 
0.00014157 0.00300298 -0.999996 
0.000105527 0.00231569 -0.999997 
7.91172e-05 0.00185107 -0.999998 
6.35286e-05 0.00143846 -0.999999 
5.04444e-05 0.00109182 -0.999999 
3.61092e-05 0.000835001 -1 
2.41901e-05 0.000697492 -1 
1.87268e-05 0.000606005 -1 
1.53887e-05 0.000513345 -1 
1.72527e-05 0.000411221 -1 
2.06128e-05 0.000281321 -1 
2.35387e-05 0.000159063 -1 
4.065e-05 4.33268e-05 -1 
5.43867e-05 -9.8601e-05 -1 
5.70966e-05 -0.000217502 -1 
6.06297e-05 -0.000333186 -1 
0.000223089 -0.000460288 -1 
-0.00124212 -0.00054971 -0.999999 
0.00384469 -0.0181812 -0.999823 
-0.0662311 -0.0623964 0.995842 
-0.00185517 -0.00191323 0.999997 
-0.000383623 -0.000451499 1 
-0.000326888 -0.000334674 1 
-0.000276172 -0.000243554 1 
-0.000225815 -0.0001257 1 
-0.000185188 -1.42525e-05 1 
-0.000115363 0.000122419 1 
-7.41444e-05 0.000254142 1 
-5.16198e-05 0.000396766 1 
-6.50468e-05 0.000531898 1 
-0.000109096 0.000658054 1 
-0.000175791 0.000798195 1 
-0.000240956 0.000985974 1 
-0.000361839 0.0012805 0.999999 
-0.000470457 0.00168094 0.999999 
-0.000654169 0.00221952 0.999997 
-0.000817516 0.0028916 0.999996 
-0.001073 0.00382188 0.999992 
-0.00131785 0.0050441 0.999986 
-0.00166574 0.0066404 0.999977 
-0.0019752 0.00866019 0.999961 
-0.00255872 0.0114785 0.999931 
-0.00342548 0.0152892 0.999877 
-0.00500828 0.0206138 0.999775 
-0.00715468 0.0282071 0.999577 
-0.0100515 0.0400508 0.999147 
-0.0137206 0.0581007 0.998217 
-0.0178401 0.0837319 0.996329 
-0.0216076 0.117649 0.99282 
-0.0260208 0.16261 0.986347 
-0.0300657 0.218678 0.975334 
-0.0338974 0.285901 0.957659 
-0.0347621 0.363781 0.930836 
-0.0324896 0.454613 0.890096 
-0.00246834 0.476452 0.879197 
-0.0260066 0.584427 0.81103 
-0.00530594 0.755889 0.654678 
0.0172686 0.92091 0.389392 
-0.000282815 0.975661 0.219277 
0.00946755 0.890843 -0.454213 
-0.0147708 0.750195 -0.661051 
0.01474 0.634462 -0.772814 
0.0270301 0.512387 -0.858329 
0.0367396 0.408263 -0.912125 
0.0364471 0.316328 -0.94795 
0.0334496 0.243154 -0.969411 
0.0298289 0.18098 -0.983034 
0.025246 0.135743 -0.990422 
0.0184538 0.096065 -0.995204 
0.0146299 0.0659903 -0.997713 
0.0117308 0.0476028 -0.998798 
0.00781707 0.0329161 -0.999428 
0.00567555 0.0238537 -0.999699 
0.00398365 0.0175614 -0.999838 
0.00287133 0.0129105 -0.999913 
0.00230871 0.00977687 -0.99995 
0.00183136 0.00736367 -0.999971 
0.00145713 0.00546807 -0.999984 
0.00127103 0.00420247 -0.99999 
0.000932113 0.0031324 -0.999995 
0.00073871 0.00243359 -0.999997 
0.000533429 0.00187091 -0.999998 
0.000398457 0.00143573 -0.999999 
0.000274965 0.00108098 -0.999999 
0.000197695 0.000852775 -1 
0.000121524 0.000689394 -1 
7.50117e-05 0.000563607 -1 
5.87194e-05 0.000440006 -1 
6.3923e-05 0.000311953 -1 
0.000108533 0.00016188 -1 
0.000171426 3.09776e-05 -1 
0.000197527 -6.7247e-05 -1 
0.000283535 -0.000188633 -1 
0.000311754 -0.00028165 -1 
0.000292201 -0.000381241 -1 
0.000451779 -0.000497213 -1 
0.00229409 -0.00264247 -0.999994 
0.0917308 -0.0897743 -0.991721 
-0.0721712 -0.0666062 0.995156 
-0.00209107 -0.00193986 0.999996 
-0.000517837 -0.000430541 1 
-0.00045753 -0.000334921 1 
-0.000432993 -0.00030185 1 
-0.000402795 -0.000254428 1 
-0.000323103 -0.000165099 1 
-0.00022679 -8.9938e-05 1 
-0.000128913 5.14289e-05 1 
-5.00893e-05 0.000206113 1 
-2.72169e-05 0.000383376 1 
-4.8187e-05 0.000539408 1 
-0.000103435 0.000694898 1 
-0.000204656 0.000896648 1 
-0.000309261 0.00113791 0.999999 
-0.000451004 0.0015244 0.999999 
-0.000608392 0.00200285 0.999998 
-0.000824125 0.00268105 0.999996 
-0.00106453 0.00350826 0.999993 
-0.00133149 0.00464409 0.999988 
-0.00157994 0.00603621 0.999981 
-0.00188137 0.00793835 0.999967 
-0.00231319 0.0104134 0.999943 
-0.0030562 0.0140724 0.999896 
-0.00428086 0.0189792 0.999811 
-0.00614096 0.0258675 0.999647 
-0.00866482 0.0353704 0.999337 
-0.0116013 0.0491186 0.998726 
-0.0142895 0.0689748 0.997516 
-0.0158101 0.0957732 0.995278 
-0.0165347 0.13063 0.991293 
-0.0134039 0.175481 0.984392 
-0.012525 0.230407 0.973014 
0.000313582 0.288139 0.957589 
0.00143551 0.357853 0.933777 
0.0506238 0.548442 0.834655 
0.00452503 0.625714 0.78004 
0.0415686 0.764462 0.643327 
0.0388106 0.866773 0.497191 
0.0183082 0.985267 0.170039 
0.00111232 0.967479 -0.252947 
-0.0210522 0.88545 -0.464257 
-0.0447553 0.628336 -0.776654 
-0.0264692 0.515257 -0.856627 
0.00383711 0.39823 -0.917277 
-0.0052569 0.312501 -0.949903 
0.0115395 0.249443 -0.968321 
0.0146713 0.193076 -0.981074 
0.0133456 0.144496 -0.989415 
0.0177462 0.10906 -0.993877 
0.0151902 0.0778672 -0.996848 
0.011225 0.0554664 -0.998398 
0.00914631 0.039489 -0.999178 
0.00668102 0.0289467 -0.999559 
0.00449941 0.0211991 -0.999765 
0.0032841 0.0155645 -0.999874 
0.00251156 0.011513 -0.999931 
0.00211425 0.0085544 -0.999961 
0.00179715 0.00640931 -0.999978 
0.00145544 0.0049478 -0.999987 
0.00117633 0.00372378 -0.999992 
0.000909894 0.00288101 -0.999996 
0.000681451 0.0021928 -0.999997 
0.000500747 0.00168109 -0.999999 
0.00035601 0.00126866 -0.999999 
0.000237844 0.000986677 -1 
0.000142939 0.00077084 -1 
7.52945e-05 0.000608507 -1 
3.13743e-05 0.000456761 -1 
4.20139e-05 0.000292427 -1 
8.68939e-05 0.00013957 -1 
0.000163454 -2.42017e-05 -1 
0.000268223 -0.000122305 -1 
0.000352461 -0.000202226 -1 
0.000421577 -0.00028139 -1 
0.000448681 -0.00034374 -1 
0.000506589 -0.000421366 -1 
0.00211966 -0.0020956 -0.999996 
0.052757 -0.0537115 -0.997156 
-0.0970665 -0.0902109 0.99117 
-0.00246296 -0.00228258 0.999994 
-0.00053184 -0.000444897 1 
-0.000459517 -0.000346217 1 
-0.000388332 -0.000322278 1 
-0.000354538 -0.000247821 1 
-0.000241479 -0.000202887 1 
-0.000116805 -7.23227e-05 1 
-2.42391e-05 7.4151e-05 1 
3.18276e-05 0.00027252 1 
3.63997e-05 0.000449824 1 
-1.84519e-06 0.000622238 1 
-9.41287e-05 0.000828755 1 
-0.000187412 0.0010833 0.999999 
-0.000302877 0.00140305 0.999999 
-0.000411188 0.0018639 0.999998 
-0.000565844 0.00244804 0.999997 
-0.000724523 0.00321777 0.999995 
-0.000906889 0.00416128 0.999991 
-0.00101939 0.00535252 0.999985 
-0.00115769 0.00688478 0.999976 
-0.00127534 0.00894614 0.999959 
-0.00157575 0.0118688 0.999928 
-0.0019677 0.0160512 0.999869 
-0.00271674 0.0217664 0.999759 
-0.00368481 0.0294856 0.999558 
-0.00484725 0.0397216 0.999199 
-0.00562083 0.0538979 0.998531 
-0.00490345 0.0730828 0.997314 
-0.00227286 0.0990335 0.995082 
0.00272015 0.131534 0.991308 
0.0177897 0.157602 0.987343 
0.020288 0.204915 0.978569 
0.0410128 0.245256 0.968591 
0.0560877 0.31433 0.947655 
0.041043 0.414778 0.908997 
0.0765565 0.67594 0.73297 
0.147912 0.750137 0.644528 
0.0509058 0.94215 0.331303 
0.00485845 0.998478 -0.0549309 
-0.0636637 0.875091 -0.479752 
-0.0690767 0.749744 -0.658113 
-0.116604 0.566986 -0.815432 
-0.0662672 0.439299 -0.895893 
-0.0599108 0.350093 -0.934797 
-0.050166 0.266769 -0.962454 
-0.0251383 0.218249 -0.975569 
-0.0127481 0.170143 -0.985337 
-0.00419397 0.126836 -0.991915 
0.0048786 0.0969463 -0.995278 
0.00552537 0.0712944 -0.99744 
0.00460628 0.0501958 -0.998729 
0.00394781 0.0371184 -0.999303 
0.00302874 0.0276194 -0.999614 
0.00206766 0.020645 -0.999785 
0.00173901 0.0152763 -0.999882 
0.00151261 0.0111914 -0.999936 
0.0014303 0.00829923 -0.999965 
0.00126716 0.00639046 -0.999979 
0.00104632 0.00482411 -0.999988 
0.00086326 0.00374699 -0.999993 
0.000674451 0.00285403 -0.999996 
0.00050678 0.00218843 -0.999998 
0.000363057 0.0016463 -0.999999 
0.000243611 0.00126162 -0.999999 
0.000134372 0.00095654 -1 
4.83288e-05 0.000733883 -1 
-1.07915e-05 0.000553482 -1 
-3.42775e-05 0.00035579 -1 
-9.24016e-06 0.000174805 -1 
5.99467e-05 9.76381e-06 -1 
0.000175184 -0.00015354 -1 
0.000278601 -0.000232288 -1 
0.000372252 -0.000279442 -1 
0.000408469 -0.000321329 -1 
0.000452932 -0.000337715 -1 
0.000477793 -0.000391727 -1 
0.00119545 -0.00111407 -0.999999 
0.0553986 -0.052211 -0.997092 
-0.083406 -0.0953331 0.991934 
-0.00344691 -0.00372498 0.999987 
-0.000430297 -0.000368461 1 
-0.000403461 -0.000344244 1 
-0.000326046 -0.000353826 1 
-0.000312971 -0.00030778 1 
-0.000240782 -0.00032724 1 
-0.000158161 -0.000226576 1 
-4.24887e-05 -0.000120982 1 
4.84718e-05 7.26168e-05 1 
0.000101563 0.000260216 1 
0.000102587 0.00045352 1 
4.06828e-05 0.000686134 1 
-4.65427e-05 0.000929232 1 
-0.000140216 0.00125674 0.999999 
-0.000227909 0.0016414 0.999999 
-0.000318958 0.00221305 0.999998 
-0.000421174 0.00289064 0.999996 
-0.000515984 0.00377457 0.999993 
-0.000570564 0.00479615 0.999988 
-0.000588109 0.00614135 0.999981 
-0.000566974 0.00784422 0.999969 
-0.000535377 0.0103821 0.999946 
-0.000484386 0.0138861 0.999904 
-0.000420307 0.0189597 0.99982 
-0.000381346 0.0256502 0.999671 
-0.000112932 0.0343292 0.999411 
0.00068675 0.045512 0.998964 
0.0031695 0.0604339 0.998167 
0.008061 0.0803232 0.996736 
0.0166861 0.104168 0.99442 
0.0336043 0.124834 0.991608 
0.0484113 0.162067 0.985592 
0.0743949 0.194516 0.978074 
0.0936402 0.252758 0.962988 
0.0918915 0.392291 0.91524 
0.110063 0.535084 0.837599 
0.172188 0.614203 0.770133 
0.0915102 0.846145 0.525037 
0.0296369 0.989269 0.14307 
-0.0278252 0.961349 -0.273921 
-0.136556 0.737349 -0.661566 
-0.146229 0.452487 -0.8797 
-0.132083 0.350734 -0.927114 
-0.102897 0.273824 -0.95626 
-0.0858744 0.204849 -0.975019 
-0.0553879 0.18573 -0.981038 
-0.0387808 0.148612 -0.988135 
-0.0226421 0.121 -0.992394 
-0.00906211 0.0918147 -0.995735 
-0.00444545 0.0699281 -0.997542 
-0.00175004 0.0523316 -0.998628 
-0.00116865 0.0378815 -0.999282 
-0.000432392 0.0288725 -0.999583 
-0.000271471 0.021848 -0.999761 
0.000204926 0.0162057 -0.999869 
0.000532539 0.0119982 -0.999928 
0.000743188 0.00888658 -0.99996 
0.000734132 0.00680895 -0.999977 
0.000710123 0.00531581 -0.999986 
0.000568645 0.00408897 -0.999992 
0.000486404 0.0031797 -0.999995 
0.000368059 0.00243851 -0.999997 
0.000274577 0.00185059 -0.999998 
0.000169109 0.00140461 -0.999999 
8.07797e-05 0.00106519 -0.999999 
-1.18926e-05 0.000789915 -1 
-7.738e-05 0.000567274 -1 
-9.46122e-05 0.000364586 -1 
-7.67876e-05 0.000139579 -1 
-5.63192e-06 -4.67207e-05 -1 
9.98065e-05 -0.000180072 -1 
0.000214966 -0.000292401 -1 
0.000310866 -0.000321446 -1 
0.000363668 -0.000344184 -1 
0.000414701 -0.000351032 -1 
0.000479112 -0.000434925 -1 
0.00221412 -0.00215191 -0.999995 
0.0746789 -0.0743094 -0.994428 
-0.0477515 -0.0715771 0.996282 
-0.00166302 -0.00230118 0.999996 
-0.000528568 -0.000515651 1 
-0.00036755 -0.000365756 1 
-0.000349237 -0.000353002 1 
-0.000264113 -0.000380032 1 
-0.000166551 -0.000351901 1 
-8.18416e-05 -0.000273732 1 
3.47913e-05 -0.000114324 1 
0.000111685 6.08571e-05 1 
0.000151552 0.00025962 1 
0.000132918 0.000513968 1 
7.18489e-05 0.000773552 1 
-1.18309e-05 0.00107401 0.999999 
-7.5051e-05 0.00145175 0.999999 
-0.000141099 0.00190926 0.999998 
-0.00017555 0.00251788 0.999997 
-0.000222269 0.00323776 0.999995 
-0.000225581 0.0040784 0.999992 
-0.000219323 0.00511622 0.999987 
-0.000137445 0.00637868 0.99998 
-1.51142e-05 0.00813161 0.999967 
0.000259501 0.0104855 0.999945 
0.000662644 0.0139503 0.999903 
0.00132449 0.0187387 0.999824 
0.00217693 0.0250066 0.999685 
0.00357039 0.0326258 0.999461 
0.00583722 0.042079 0.999097 
0.00995233 0.0540248 0.99849 
0.0169331 0.0689315 0.997478 
0.0278211 0.0861407 0.995895 
0.0462326 0.0999003 0.993923 
0.0676376 0.127495 0.98953 
0.0988821 0.146646 0.984234 
0.129448 0.195511 0.972121 
0.129153 0.3093 0.942153 
0.151953 0.439752 0.885171 
0.246505 0.544161 0.80195 
0.110271 0.908366 0.403375 
-0.00386933 0.997794 -0.0662749 
-0.0895258 0.916954 -0.38882 
-0.212959 0.615875 -0.758516 
-0.210011 0.327309 -0.921284 
-0.164134 0.250464 -0.954111 
-0.129553 0.18799 -0.973589 
-0.0994241 0.139793 -0.985177 
-0.0706009 0.135252 -0.988293 
-0.049355 0.11165 -0.992521 
-0.0272404 0.0946483 -0.995138 
-0.0172447 0.0734555 -0.997149 
-0.0106422 0.0566173 -0.998339 
-0.00642438 0.0430191 -0.999054 
-0.00468734 0.0318528 -0.999482 
-0.0031293 0.0249118 -0.999685 
-0.00178719 0.0188496 -0.999821 
-0.000760261 0.0141062 -0.9999 
-7.50724e-05 0.0104339 -0.999946 
0.000208246 0.00795968 -0.999968 
0.000299306 0.00619008 -0.999981 
0.000329373 0.00489858 -0.999988 
0.000261602 0.00380214 -0.999993 
0.000236146 0.00297918 -0.999996 
0.000182843 0.00228043 -0.999997 
0.00012827 0.00174853 -0.999999 
5.26539e-05 0.00131385 -0.999999 
-2.1568e-05 0.000972784 -1 
-9.91811e-05 0.000687917 -1 
-0.000142357 0.000434219 -1 
-0.000137448 0.000217992 -1 
-8.69699e-05 -1.89501e-05 -1 
5.49717e-06 -0.000192857 -1 
0.000113031 -0.000298313 -1 
0.000200557 -0.000371676 -1 
0.000278712 -0.000368006 -1 
0.000322851 -0.000361035 -1 
0.000368688 -0.000354226 -1 
0.000408422 -0.00042335 -1 
0.00196728 -0.00222629 -0.999996 
0.0532234 -0.0674116 -0.996298 
-0.0299999 -0.0655689 0.997388 
-0.000913077 -0.00187178 0.999998 
-0.000385595 -0.000448898 1 
-0.000291805 -0.000343909 1 
-0.000290893 -0.000365176 1 
-0.000239675 -0.000401442 1 
-0.00019047 -0.000413462 1 
-0.000100834 -0.000389876 1 
-1.35671e-05 -0.000278463 1 
7.983e-05 -0.000139802 1 
0.000144756 4.43309e-05 1 
0.000172342 0.000308541 1 
0.000147971 0.000586912 1 
8.97713e-05 0.000902719 1 
3.00897e-05 0.00125549 0.999999 
-1.15073e-05 0.00172816 0.999999 
-3.06727e-05 0.00224667 0.999998 
-2.42388e-05 0.0029238 0.999996 
-3.27375e-06 0.0036638 0.999993 
2.93201e-05 0.00456445 0.99999 
0.000110479 0.00562095 0.999984 
0.000266411 0.00704969 0.999975 
0.00059391 0.00889984 0.99996 
0.00117028 0.0116224 0.999932 
0.00207655 0.0154499 0.999879 
0.00342959 0.020722 0.999779 
0.0053 0.0271056 0.999619 
0.00815375 0.0347475 0.999363 
0.0127398 0.0437484 0.998961 
0.0202422 0.0545664 0.998305 
0.0320899 0.0656546 0.997326 
0.0499669 0.0756344 0.995883 
0.0776141 0.0921176 0.992719 
0.115766 0.0999169 0.988238 
0.159776 0.137725 0.977499 
0.179759 0.256381 0.949713 
0.203992 0.395556 0.895501 
0.191704 0.672602 0.714742 
0.192291 0.805144 0.561041 
0.0649172 0.980873 0.183503 
-0.183784 0.841599 -0.507872 
-0.236056 0.453479 -0.859438 
-0.299738 0.289314 -0.909095 
-0.181054 0.152591 -0.971563 
-0.137248 0.113125 -0.984056 
-0.100869 0.0883738 -0.990967 
-0.0733074 0.0901693 -0.993225 
-0.0519724 0.0767659 -0.995694 
-0.0373728 0.0785591 -0.996209 
-0.0258896 0.0627553 -0.997693 
-0.0173621 0.0505107 -0.998573 
-0.0115325 0.0406789 -0.999106 
-0.00811273 0.0314455 -0.999473 
-0.00555736 0.023898 -0.999699 
-0.00341535 0.0188733 -0.999816 
-0.00178925 0.0140986 -0.999899 
-0.000751557 0.0106698 -0.999943 
-0.000247669 0.00812862 -0.999967 
-3.76897e-05 0.00640206 -0.99998 
3.69805e-05 0.00507153 -0.999987 
5.26609e-05 0.00407386 -0.999992 
5.172e-05 0.0031607 -0.999995 
5.82402e-05 0.0024801 -0.999997 
3.58699e-05 0.00189445 -0.999998 
-4.18596e-06 0.00143418 -0.999999 
-6.61782e-05 0.00103242 -1 
-0.000128465 0.000710256 -1 
-0.000166182 0.000413123 -1 
-0.000158158 0.000147311 -1 
-0.000108665 -6.84758e-05 -1 
-1.32622e-05 -0.000259643 -1 
9.02747e-05 -0.000364192 -1 
0.000185147 -0.000416646 -1 
0.000257185 -0.000394292 -1 
0.00027679 -0.000360422 -1 
0.000312338 -0.000348436 -1 
0.000313597 -0.000391406 -1 
0.00109342 -0.0016276 -0.999998 
0.0410031 -0.0707964 -0.996641 
-0.0110261 -0.062408 0.997981 
-0.000353407 -0.00187366 0.999998 
-0.000278912 -0.000387984 1 
-0.00021889 -0.000315663 1 
-0.000244534 -0.000352215 1 
-0.000209364 -0.000406712 1 
-0.000171923 -0.000448874 1 
-9.70052e-05 -0.000447564 1 
-5.03917e-06 -0.000343619 1 
7.30595e-05 -0.00022158 1 
0.000148148 1.11463e-05 1 
0.000176178 0.000278875 1 
0.000164093 0.000592559 1 
0.000125902 0.00094512 1 
7.8494e-05 0.00137892 0.999999 
6.71755e-05 0.00185636 0.999998 
6.96163e-05 0.00241102 0.999997 
0.000103154 0.00303083 0.999995 
0.0001409 0.00376739 0.999993 
0.000195931 0.00460888 0.999989 
0.000304357 0.00566858 0.999984 
0.000521185 0.00692481 0.999976 
0.000949109 0.00862597 0.999962 
0.00169432 0.0110025 0.999938 
0.00288509 0.014446 0.999892 
0.00459788 0.018887 0.999811 
0.00691081 0.0243462 0.99968 
0.0101311 0.0302145 0.999492 
0.0150422 0.0369606 0.999204 
0.0225447 0.0439404 0.99878 
0.0333981 0.0489101 0.998245 
0.0515576 0.055758 0.997112 
0.0757185 0.0592285 0.995369 
0.103049 0.0495988 0.993439 
0.151373 0.0605116 0.986623 
0.218639 0.145049 0.964965 
0.258335 0.28353 0.923512 
0.354756 0.426692 0.831915 
0.259693 0.705702 0.659201 
-0.0138102 0.997528 -0.0689007 
-0.301926 0.698597 -0.648694 
-0.365565 0.425801 -0.827681 
-0.235921 0.20281 -0.950373 
-0.225875 0.0906857 -0.969926 
-0.160387 0.0625175 -0.985072 
-0.110277 0.0493183 -0.992677 
-0.0751202 0.0555856 -0.995624 
-0.0541576 0.0542691 -0.997057 
-0.0355331 0.053251 -0.997949 
-0.0243005 0.0449346 -0.998694 
-0.0167776 0.0373439 -0.999162 
-0.0119377 0.0309028 -0.999451 
-0.0083283 0.0245867 -0.999663 
-0.00538211 0.0190313 -0.999804 
-0.00315828 0.0151469 -0.99988 
-0.00162826 0.0114319 -0.999933 
-0.00077112 0.00892507 -0.99996 
-0.000364897 0.00702117 -0.999975 
-0.000189214 0.0056595 -0.999984 
-0.000130672 0.00460064 -0.999989 
-8.52463e-05 0.00370736 -0.999993 
-6.50582e-05 0.00292771 -0.999996 
-4.00947e-05 0.00230211 -0.999997 
-4.81507e-05 0.00176495 -0.999999 
-7.74516e-05 0.00129183 -0.999999 
-0.000126323 0.000892682 -1 
-0.000165666 0.000533519 -1 
-0.000171547 0.000225702 -1 
-0.00013357 -4.15328e-05 -1 
-6.45819e-05 -0.000241654 -1 
2.46777e-05 -0.000390379 -1 
0.000100362 -0.000437279 -1 
0.000162734 -0.0004601 -1 
0.000215057 -0.00041754 -1 
0.000228597 -0.000359816 -1 
0.000239645 -0.000326997 -1 
0.000222212 -0.000396675 -1 
0.000910965 -0.00235019 -0.999997 
0.0179573 -0.0749121 -0.997022 
0.00980883 -0.0522362 0.998577 
0.000231418 -0.00139946 0.999999 
-0.000171781 -0.000360716 1 
-0.000151045 -0.000271588 1 
-0.00019282 -0.000334317 1 
-0.000175004 -0.000407206 1 
-0.000159531 -0.000472938 1 
-0.000110189 -0.000502428 1 
-3.60021e-05 -0.000438506 1 
3.95087e-05 -0.000325013 1 
0.000117763 -0.000104789 1 
0.000158856 0.000154512 1 
0.000171599 0.000488214 1 
0.000157526 0.000870752 1 
0.000129461 0.00131137 0.999999 
0.000120541 0.00178948 0.999998 
0.000124453 0.00234396 0.999997 
0.000150766 0.00296789 0.999996 
0.000187608 0.00367156 0.999993 