# vtk DataFile Version 3.0 
Exported using Morpho https://github.com/Morpho-lang/morpho 
ASCII 
DATASET UNSTRUCTURED_GRID 

POINTS 1978 float 
-8.48528 -2.82843 5.37966e-12 
-8.26042 -2.82843 -6.11709e-14 
-8.03161 -2.82843 1.11713e-15 
-7.79436 -2.82843 -1.39679e-16 
-7.51459 -2.82843 -4.80261e-15 
-7.25681 -2.82843 -9.84972e-15 
-7.00966 -2.82843 -8.99378e-15 
-6.79522 -2.82843 -4.52912e-15 
-6.5736 -2.82843 -5.9415e-15 
-6.36876 -2.82843 -7.28978e-15 
-6.14974 -2.82843 4.07367e-15 
-5.92242 -2.82843 4.64173e-15 
-5.70798 -2.82843 6.21692e-15 
-5.5092 -2.82843 1.58018e-14 
-5.28218 -2.82843 1.81159e-14 
-5.08095 -2.82843 2.28129e-14 
-4.86359 -2.82843 1.80035e-14 
-4.66295 -2.82843 3.95251e-14 
-4.44746 -2.82843 5.73883e-14 
-4.23948 -2.82843 6.48e-14 
-4.02634 -2.82843 4.58629e-14 
-3.82658 -2.82843 6.17218e-14 
-3.61495 -2.82843 9.41636e-14 
-3.40377 -2.82843 1.61179e-13 
-3.17998 -2.82843 2.22519e-13 
-2.95727 -2.82843 4.86329e-13 
-2.73031 -2.82843 7.23583e-13 
-2.50353 -2.82843 4.19966e-13 
-2.28309 -2.82843 -7.92274e-13 
-2.0821 -2.82843 -1.69561e-13 
-1.88933 -2.82843 -9.09834e-12 
-1.70069 -2.82843 -2.37112e-11 
-1.53371 -2.82843 -7.75405e-11 
-1.37284 -2.82843 -1.66854e-10 
-1.23449 -2.82843 -4.16547e-10 
-1.10504 -2.82843 -5.08779e-10 
-0.966678 -2.82843 -1.48688e-09 
-0.804427 -2.82843 -3.3887e-09 
-0.63657 -2.82843 -8.17002e-09 
-0.454138 -2.82843 1.21175e-07 
0.68086 -2.82843 8.57206e-08 
0.806372 -2.82843 4.51704e-09 
0.950427 -2.82843 2.81115e-09 
1.07336 -2.82843 1.52473e-09 
1.2318 -2.82843 6.15295e-10 
1.36427 -2.82843 2.98833e-10 
1.54019 -2.82843 8.79606e-11 
1.70182 -2.82843 2.25237e-11 
1.87353 -2.82843 8.67702e-12 
2.07839 -2.82843 3.0712e-12 
2.27077 -2.82843 8.72874e-13 
2.47831 -2.82843 -6.19796e-13 
2.68777 -2.82843 -8.29434e-13 
2.9322 -2.82843 -5.37712e-13 
3.16824 -2.82843 -3.18113e-13 
3.39829 -2.82843 -2.04562e-13 
3.62196 -2.82843 -8.78672e-14 
3.82983 -2.82843 -4.18785e-14 
4.04315 -2.82843 -5.7762e-14 
4.2634 -2.82843 -7.48057e-14 
4.45838 -2.82843 -5.64076e-14 
4.67125 -2.82843 -4.04322e-14 
4.87038 -2.82843 -1.65718e-14 
5.07971 -2.82843 -1.46153e-14 
5.28498 -2.82843 -1.79734e-14 
5.50272 -2.82843 -1.82081e-14 
5.70633 -2.82843 -8.65596e-15 
5.92587 -2.82843 -4.45585e-15 
6.14849 -2.82843 -1.89674e-15 
6.35043 -2.82843 3.24116e-15 
6.58715 -2.82843 4.05148e-15 
6.80124 -2.82843 5.51719e-15 
7.00322 -2.82843 1.19271e-14 
7.26999 -2.82843 7.50567e-15 
7.50196 -2.82843 4.28327e-15 
7.73969 -2.82843 -2.20649e-15 
8.02021 -2.82843 -4.23362e-15 
8.20512 -2.82843 8.05477e-14 
8.48528 -2.82842 3.39736e-12 
-8.48528 -2.59069 -9.94353e-12 
-8.2569 -2.59201 -6.19324e-11 
-8.02707 -2.5879 -1.31733e-15 
-7.77155 -2.60793 8.64571e-19 
-7.51519 -2.63549 -1.52465e-16 
-7.24753 -2.62495 1.27122e-16 
-6.99445 -2.60037 2.10507e-16 
-6.76404 -2.60202 -2.46523e-17 
-6.53851 -2.58337 -1.0615e-16 
-6.31515 -2.59405 4.21083e-17 
-6.08389 -2.60278 4.49636e-17 
-5.86353 -2.59038 5.51919e-18 
-5.6561 -2.57176 3.38957e-18 
-5.43511 -2.60671 -4.8397e-17 
-5.22438 -2.57923 -5.01788e-17 
-5.00784 -2.60066 -4.47084e-17 
-4.79822 -2.58317 -9.35473e-18 
-4.58233 -2.60217 -6.10242e-17 
-4.36515 -2.59355 1.1268e-14 
-4.14796 -2.59904 2.50052e-14 
-3.93635 -2.58131 5.22787e-14 
-3.72291 -2.59159 1.08644e-13 
-3.50202 -2.58571 2.46909e-13 
-3.27364 -2.59429 5.95206e-13 
-3.0378 -2.58988 1.57273e-12 
-2.79946 -2.5951 4.68055e-12 
-2.55598 -2.60036 1.52888e-11 
-2.31427 -2.60306 4.9261e-11 
-2.08439 -2.59016 1.53817e-10 
-1.86763 -2.61175 3.94916e-10 
-1.66544 -2.60875 1.02173e-09 
-1.48293 -2.62463 2.33066e-09 
-1.314 -2.62149 5.03583e-09 
-1.16731 -2.63358 1.03509e-08 
-1.009 -2.68623 1.66051e-08 
-0.978488 -2.54684 8.655e-09 
-0.830208 -2.68719 3.45631e-08 
-0.606013 -2.70905 2.40967e-08 
-0.320689 -2.68749 3.72051e-09 
-0.22105 -2.79856 -1.19757e-07 
0.532905 -2.76645 -4.64539e-08 
0.688785 -2.62697 -2.94472e-08 
0.848903 -2.66101 -2.73742e-08 
0.99625 -2.62056 -2.16637e-08 
1.14763 -2.66221 -1.31498e-08 
1.30129 -2.60404 -6.92967e-09 
1.46144 -2.63507 -3.32788e-09 
1.64188 -2.59889 -1.42509e-09 
1.8198 -2.59985 -6.02521e-10 
2.02999 -2.62356 -2.13234e-10 
2.26332 -2.58743 -7.83432e-11 
2.4801 -2.58214 -2.52578e-11 
2.72305 -2.60627 -7.76691e-12 
2.96615 -2.59655 -2.4646e-12 
3.20101 -2.59432 -9.00962e-13 
3.43093 -2.59212 -3.35342e-13 
3.64661 -2.58136 -1.47075e-13 
3.86452 -2.59179 -7.07919e-14 
4.08948 -2.60305 -3.33288e-14 
4.29412 -2.57691 -1.52543e-14 
4.5091 -2.59998 1.61778e-16 
4.71674 -2.58366 -1.74541e-17 
4.92917 -2.59485 1.31052e-16 
5.1414 -2.58919 6.57377e-17 
5.36139 -2.60158 2.3668e-17 
5.57507 -2.58356 -1.8491e-17 
5.79389 -2.59937 6.78216e-17 
6.02142 -2.60049 -1.18442e-17 
6.23789 -2.57443 6.23647e-19 
6.45989 -2.60982 -2.41755e-18 
6.68812 -2.58412 -1.41604e-17 
6.89928 -2.5666 -8.03991e-18 
7.12924 -2.62937 -1.89688e-17 
7.38064 -2.59729 -4.73567e-17 
7.61503 -2.60391 1.02591e-17 
7.87344 -2.63685 -3.46901e-18 
8.07989 -2.53674 1.82477e-15 
8.30116 -2.63235 2.52822e-10 
8.48528 -2.53246 6.25971e-12 
-8.48528 -2.3481 9.21061e-12 
-8.25401 -2.35389 -3.8148e-11 
-8.01242 -2.35405 -1.72803e-16 
-7.76932 -2.39576 1.20081e-18 
-7.56176 -2.22955 3.24398e-19 
-7.49151 -2.43236 1.35934e-19 
-7.21334 -2.42163 -3.33868e-19 
-6.97905 -2.36323 -1.01099e-18 
-6.74247 -2.37406 -8.90004e-20 
-6.50757 -2.35114 8.17868e-20 
-6.27092 -2.37165 2.55963e-19 
-6.04789 -2.36522 -4.36955e-18 
-5.83171 -2.34374 -4.28643e-19 
-5.59275 -2.35373 -6.57449e-19 
-5.3831 -2.36147 -1.53154e-18 
-5.14939 -2.35714 -3.73636e-18 
-4.93961 -2.35758 -8.72543e-18 
-4.71177 -2.36251 -2.2229e-17 
-4.49646 -2.37166 -4.96977e-17 
-4.27216 -2.36733 8.6945e-15 
-4.06248 -2.35496 1.7036e-14 
-3.84327 -2.34711 3.7624e-14 
-3.63026 -2.35304 9.09469e-14 
-3.40261 -2.35543 2.40684e-13 
-3.17622 -2.35917 6.33138e-13 
-2.94151 -2.35771 1.7677e-12 
-2.70517 -2.36824 5.27555e-12 
-2.46704 -2.37729 1.52126e-11 
-2.23537 -2.37754 3.85417e-11 
-2.00842 -2.3799 8.58603e-11 
-1.80203 -2.40306 1.80012e-10 
-1.60625 -2.39947 2.69955e-10 
-1.43125 -2.42613 7.12849e-10 
-1.27132 -2.41619 2.526e-10 
-1.11808 -2.46402 3.80246e-10 
-0.852374 -2.4612 3.09023e-09 
-0.756072 -2.58882 1.39085e-08 
-0.595071 -2.52959 1.87822e-08 
-0.474807 -2.62771 1.11416e-08 
-0.0856688 -2.67389 -6.05228e-09 
0.26275 -2.85109 -8.89031e-09 
0.456106 -2.66053 -9.20351e-09 
0.810413 -2.48328 -1.18596e-08 
0.955126 -2.45628 -1.77577e-09 
1.13713 -2.47652 -2.73322e-09 
1.26455 -2.38664 2.01093e-10 
1.41932 -2.41779 -8.60474e-10 
1.5819 -2.40332 -2.82781e-10 
1.77089 -2.36383 -8.57957e-11 
1.96592 -2.40958 -1.35215e-10 
2.1819 -2.39427 -5.2372e-11 
2.418 -2.34611 -1.71268e-11 
2.65296 -2.3731 -6.78526e-12 
2.88763 -2.37188 -2.74203e-12 
3.1289 -2.35965 -8.99495e-13 
3.35675 -2.35863 -3.3273e-13 
3.57895 -2.34103 -1.26821e-13 
3.79732 -2.35222 -5.34573e-14 
4.01648 -2.37417 -2.47399e-14 
4.22597 -2.3413 -1.06729e-14 
4.44446 -2.36228 5.17825e-17 
4.64999 -2.34978 2.343e-17 
4.86498 -2.35748 1.0106e-17 
5.07467 -2.35524 4.90713e-18 
5.29304 -2.36953 2.24284e-18 
5.50515 -2.35206 5.59565e-18 
5.72721 -2.3612 2.75757e-18 
5.94575 -2.37366 1.36752e-18 
6.16435 -2.34494 2.77427e-19 
6.39826 -2.36344 2.77194e-18 
6.61033 -2.36251 -5.99781e-19 
6.83558 -2.32071 2.33054e-19 
7.06881 -2.3797 7.57165e-19 
7.28848 -2.39697 3.37766e-20 
7.5471 -2.36952 -1.89076e-19 
7.78762 -2.41698 1.5604e-19 
8.0001 -2.32022 -1.95303e-15 
8.26416 -2.3634 -2.9746e-10 
8.48528 -2.28028 -1.23215e-11 
-8.48528 -2.10868 -1.99419e-11 
-8.25406 -2.10569 -2.17717e-10 
-8.0424 -2.11496 -3.15025e-15 
-7.8033 -2.1554 -9.37393e-19 
-7.49708 -2.02775 6.75397e-20 
-7.29686 -2.22964 9.99635e-19 
-7.05787 -2.14878 2.08869e-19 
-6.8047 -2.14272 5.55133e-19 
-6.5843 -2.13145 1.18573e-19 
-6.34103 -2.13953 2.85823e-18 
-6.12133 -2.12802 3.61746e-20 
-5.91002 -2.10902 2.04335e-18 
-5.685 -2.13355 4.99248e-19 
-5.4629 -2.11243 4.35904e-18 
-5.25258 -2.13927 2.88144e-18 
-5.03573 -2.11483 3.44414e-18 
-4.82201 -2.13758 3.45231e-19 
-4.60527 -2.13362 3.9364e-19 
-4.39338 -2.14576 2.275e-18 
-4.185 -2.12134 1.34335e-17 
-3.97485 -2.11991 3.78381e-17 
-3.76206 -2.1074 8.48335e-17 
-3.54538 -2.12383 -1.57472e-14 
-3.32319 -2.11942 -4.1121e-14 
-3.09777 -2.12496 -1.2942e-13 
-2.86459 -2.12719 -4.59832e-13 
-2.63126 -2.14089 -1.52146e-12 
-2.39808 -2.15106 -4.62023e-12 
-2.16955 -2.15676 -1.2732e-11 
-1.95015 -2.16404 -2.93259e-11 
-1.75377 -2.18793 -3.75844e-11 
-1.58943 -2.14112 -1.51262e-10 
-1.44108 -2.21541 -2.78089e-10 
-1.29995 -2.17736 -2.20908e-10 
-1.1567 -2.2565 -5.1813e-10 
-0.995604 -2.36111 1.50955e-09 
-0.679806 -2.42756 7.29256e-09 
-0.507432 -2.32167 -1.01432e-09 
-0.268669 -2.54552 1.7577e-08 
0.0638677 -2.77116 -1.08704e-08 
0.438731 -2.49726 -2.95346e-08 
0.633836 -2.49526 -6.62689e-09 
0.760443 -2.31892 -2.27549e-09 
0.982525 -2.32405 5.84581e-10 
1.11087 -2.25598 6.55782e-10 
1.26324 -2.17505 4.2127e-10 
1.42732 -2.19822 5.61115e-10 
1.6009 -2.18516 2.16496e-10 
1.80625 -2.15094 1.00445e-11 
2.01209 -2.19124 4.51287e-11 
2.23026 -2.16783 2.4031e-12 
2.47902 -2.12703 1.97997e-12 
2.70784 -2.13755 4.39078e-13 
2.94555 -2.14213 1.72165e-13 
3.17374 -2.11999 6.20471e-14 
3.39653 -2.11894 2.55106e-14 
3.61938 -2.10636 1.35397e-14 
3.84096 -2.12519 -6.38153e-17 
4.04741 -2.13037 -3.12004e-17 
4.27543 -2.11942 -1.58462e-17 
4.47983 -2.11909 -5.61036e-18 
4.69725 -2.12114 -2.46628e-18 
4.90755 -2.11997 -1.65531e-18 
5.12764 -2.12972 3.77605e-19 
5.33664 -2.12855 -3.96515e-19 
5.56148 -2.12575 2.90091e-19 
5.78149 -2.13016 -4.70319e-19 
5.99516 -2.13199 3.3979e-19 
6.23684 -2.12945 -1.20076e-18 
6.4502 -2.11426 5.67453e-19 
6.66505 -2.11798 -1.64775e-18 
6.92466 -2.1146 7.85764e-19 
7.14088 -2.14059 3.78603e-20 
7.37162 -2.17957 -1.1323e-19 
7.56478 -2.08309 -1.0935e-19 
7.74973 -2.18205 1.16083e-19 
7.96359 -2.08232 -3.63252e-18 
8.19456 -2.14414 6.05778e-13 
8.48528 -2.09887 -7.61992e-13 
-8.48528 -1.80255 1.32955e-11 
-8.31222 -1.86414 1.81525e-10 
-7.89587 -1.90899 7.35706e-20 
-7.67475 -1.92081 -2.12229e-18 
[...]
POINT_DATA 1978 
VECTORS vectors float
-0.00253994 -0.0117634 0.999928 
0.000767729 -0.000733358 0.999999 
-0.000211033 -0.000454737 1 
5.59044e-05 -0.000339051 1 
7.38426e-07 -0.000222974 1 
6.67946e-06 -9.13841e-05 1 
3.07107e-06 3.31965e-05 1 
1.29246e-06 0.000156971 1 
8.83053e-07 0.000280827 1 
7.06781e-07 0.000397736 1 
1.1676e-06 0.000508173 1 
1.14058e-06 0.000611201 1 
1.22491e-06 0.000713901 1 
1.62131e-06 0.000842397 1 
2.40041e-06 0.00107221 0.999999 
1.92093e-06 0.0014018 0.999999 
3.2278e-06 0.00187545 0.999998 
4.1861e-06 0.00240852 0.999997 
6.34117e-06 0.00314771 0.999995 
5.96436e-06 0.00415772 0.999991 
5.9953e-06 0.00554435 0.999985 
8.13291e-06 0.0071679 0.999974 
1.70615e-05 0.00929517 0.999957 
3.28006e-05 0.0120247 0.999928 
6.08473e-05 0.0156595 0.999877 
0.000100756 0.0202976 0.999794 
0.000143635 0.0274895 0.999622 
0.000155815 0.0390558 0.999237 
0.000100262 0.0558503 0.998439 
-1.58834e-05 0.0786939 0.996899 
-0.000110874 0.108053 0.994145 
-0.00034505 0.146125 0.989266 
-0.000642999 0.194745 0.980854 
-0.000862819 0.256215 0.966619 
-0.00121854 0.323285 0.946301 
-0.00142097 0.397931 0.917414 
-0.00144651 0.487486 0.87313 
-0.00165457 0.619328 0.785131 
-0.00131095 0.768237 0.640164 
-0.00127031 0.924192 0.381926 
-0.00448237 0.831684 -0.555232 
0.00208378 0.706182 -0.708027 
0.00131876 0.578844 -0.815437 
0.00185971 0.475333 -0.879804 
0.00133263 0.354794 -0.934944 
0.00104865 0.279653 -0.9601 
0.000621795 0.201709 -0.979445 
0.000450847 0.151959 -0.988387 
0.000132531 0.114944 -0.993372 
4.85588e-05 0.0841463 -0.996453 
-2.5444e-05 0.0606486 -0.998159 
-8.41146e-05 0.0433998 -0.999058 
-0.000132705 0.0315011 -0.999504 
-0.000157525 0.0225413 -0.999746 
-9.99397e-05 0.0165319 -0.999863 
-5.6067e-05 0.0121843 -0.999926 
-2.69417e-05 0.00926179 -0.999957 
-1.354e-05 0.00719633 -0.999974 
-1.09791e-05 0.00543685 -0.999985 
-6.26544e-06 0.00396852 -0.999992 
-3.37538e-06 0.00301018 -0.999995 
-3.14978e-06 0.00232035 -0.999997 
-1.98989e-06 0.00185338 -0.999998 
-1.59742e-06 0.00144016 -0.999999 
-1.53698e-06 0.0010939 -0.999999 
-1.50466e-06 0.000836933 -1 
-1.38921e-06 0.000698425 -1 
-1.28066e-06 0.000605862 -1 
-8.78015e-07 0.000512624 -1 
-9.97125e-07 0.00041033 -1 
-1.18822e-06 0.000280275 -1 
-1.26812e-06 0.000158071 -1 
-3.24232e-06 4.25196e-05 -1 
-5.56249e-06 -9.92511e-05 -1 
3.51228e-06 -0.000217862 -1 
-6.58428e-05 -0.000331092 -1 
0.000208835 -0.000470903 -1 
-0.000820495 -0.000623796 -0.999999 
0.00210738 -0.0175536 -0.999843 
-0.0664934 -0.0616172 0.995883 
-0.00299705 -0.00299776 0.999991 
-0.000413703 -0.000480036 1 
-0.000323427 -0.000334897 1 
-0.000272507 -0.000243068 1 
-0.000223517 -0.000125773 1 
-0.000182626 -1.41093e-05 1 
-0.000114093 0.00012187 1 
-7.31692e-05 0.00025353 1 
-5.09797e-05 0.000395938 1 
-6.40942e-05 0.000531198 1 
-0.000107571 0.000657686 1 
-0.000173444 0.000798318 1 
-0.000237955 0.000986865 0.999999 
-0.00035747 0.00128159 0.999999 
-0.000464715 0.00168209 0.999998 
-0.000646078 0.00222063 0.999997 
-0.000806952 0.00289352 0.999995 
-0.00105854 0.00382443 0.999992 
-0.00129956 0.00504709 0.999986 
-0.00164273 0.0066439 0.999977 
-0.00194903 0.00866594 0.999961 
-0.0025256 0.0114861 0.999931 
-0.00338118 0.0152987 0.999877 
-0.00493879 0.0206321 0.999775 
-0.00704901 0.02824 0.999576 
-0.00989029 0.0400936 0.999147 
-0.0134768 0.0581542 0.998217 
-0.0175115 0.0837876 0.99633 
-0.0211576 0.117699 0.992824 
-0.0254449 0.162656 0.986355 
-0.0293263 0.218687 0.975354 
-0.0329685 0.285995 0.957664 
-0.033617 0.363328 0.931054 
-0.0311958 0.455135 0.889876 
-0.00198925 0.475629 0.879644 
-0.024484 0.584731 0.810858 
-0.0041719 0.757412 0.652923 
0.0175614 0.922213 0.386282 
-0.00194201 0.977189 0.212362 
0.00818154 0.889177 -0.457491 
-0.0152593 0.750232 -0.660998 
0.0135827 0.634718 -0.772624 
0.0257556 0.512597 -0.858243 
0.0354764 0.408435 -0.912098 
0.035417 0.316367 -0.947975 
0.032605 0.243179 -0.969433 
0.0291578 0.18097 -0.983056 
0.0247207 0.135758 -0.990434 
0.0180962 0.0961216 -0.995205 
0.0143952 0.0660769 -0.997711 
0.0115256 0.0476478 -0.998798 
0.00770136 0.0329629 -0.999427 
0.0055912 0.0238733 -0.999699 
0.00392862 0.0175707 -0.999838 
0.00283515 0.0129204 -0.999913 
0.00227823 0.00978336 -0.99995 
0.00180668 0.00736767 -0.999971 
0.0014374 0.00547106 -0.999984 
0.00125369 0.00420469 -0.99999 
0.000920242 0.00313481 -0.999995 
0.000729714 0.00243484 -0.999997 
0.000527158 0.00187161 -0.999998 
0.000393611 0.00143644 -0.999999 
0.000271499 0.00108191 -0.999999 
0.000195052 0.000853317 -1 
0.000119882 0.000689382 -1 
7.39382e-05 0.000563006 -1 
5.78506e-05 0.000439213 -1 
6.31735e-05 0.000311255 -1 
0.000107222 0.000161536 -1 
0.000169275 3.0936e-05 -1 
0.00019516 -6.74293e-05 -1 
0.000280012 -0.000188587 -1 
0.000307825 -0.000281433 -1 
0.000292375 -0.000381967 -1 
0.000494853 -0.000547534 -1 
0.00388379 -0.00433407 -0.999983 
0.0916572 -0.0889938 -0.991806 
-0.0728976 -0.066779 0.995101 
-0.0033724 -0.00312141 0.999989 
-0.000543616 -0.000457124 1 
-0.000454455 -0.000335296 1 
-0.000431027 -0.000301536 1 
-0.000398762 -0.000254205 1 
-0.000319916 -0.000164743 1 
-0.000225289 -8.91732e-05 1 
-0.000128172 5.18007e-05 1 
-5.02506e-05 0.000205891 1 
-2.7348e-05 0.000382673 1 
-4.80216e-05 0.000538638 1 
-0.000102812 0.000694405 1 
-0.000203341 0.000896743 1 
-0.000307363 0.00113833 0.999999 
-0.00044855 0.00152495 0.999999 
-0.000604928 0.00200309 0.999998 
-0.000818993 0.00268098 0.999996 
-0.00105698 0.0035079 0.999993 
-0.00132187 0.00464353 0.999988 
-0.00156924 0.0060357 0.999981 
-0.00186965 0.00793876 0.999967 
-0.00229886 0.0104145 0.999943 
-0.00303684 0.0140703 0.999896 
-0.00424896 0.0189732 0.999811 
-0.00608664 0.0258593 0.999647 
-0.00857517 0.0353645 0.999338 
-0.0114678 0.0491219 0.998727 
-0.0141062 0.0689549 0.99752 
-0.0155955 0.0957585 0.995282 
-0.016288 0.130652 0.991294 
-0.0131578 0.175479 0.984395 
-0.0121716 0.230349 0.973032 
0.000526492 0.288102 0.9576 
0.00171321 0.358724 0.933442 
0.0501882 0.548256 0.834803 
0.00513478 0.625856 0.779921 
0.042278 0.763684 0.644205 
0.0383569 0.866147 0.498316 
0.0181204 0.985489 0.168768 
0.00376514 0.969104 -0.246624 
-0.0212657 0.886203 -0.462808 
-0.0449014 0.627692 -0.777166 
-0.026765 0.51481 -0.856886 
0.0033918 0.397994 -0.917382 
-0.00547024 0.312453 -0.949918 
0.0112268 0.249504 -0.968309 
0.0144148 0.193126 -0.981068 
0.0131687 0.144459 -0.989423 
0.0175024 0.109039 -0.993883 
0.0149948 0.0778903 -0.996849 
0.0111062 0.0554579 -0.998399 
0.00904512 0.0394952 -0.999179 
0.00661075 0.0289372 -0.999559 
0.00446446 0.0211892 -0.999766 
0.00326186 0.015563 -0.999874 
0.00249674 0.0115158 -0.999931 
0.00210005 0.00855762 -0.999961 
0.00178355 0.00641083 -0.999978 
0.00144655 0.00494797 -0.999987 
0.00116861 0.00372406 -0.999992 
0.00090491 0.00288124 -0.999995 
0.00067786 0.00219303 -0.999997 
0.000498242 0.00168146 -0.999998 
0.000353937 0.00126917 -0.999999 
0.000236474 0.000986974 -0.999999 
0.00014196 0.000770645 -1 
7.48047e-05 0.000607853 -1 
3.14602e-05 0.000455899 -1 
4.20643e-05 0.000291854 -1 
8.66821e-05 0.000139522 -1 
0.000162802 -2.36322e-05 -1 
0.000266179 -0.000121653 -1 
0.000349339 -0.000201653 -1 
0.00041828 -0.000281103 -1 
0.000445364 -0.000344053 -1 
0.000525274 -0.000442166 -1 
0.0034348 -0.00341192 -0.999988 
0.0528666 -0.0544206 -0.997117 
-0.0973922 -0.0902198 0.991148 
-0.00407941 -0.00378744 0.999985 
-0.000576936 -0.000488123 1 
-0.000459095 -0.000347116 1 
-0.000387264 -0.000321687 1 
-0.000352906 -0.000247097 1 
-0.00024074 -0.000201525 1 
-0.000117058 -7.17021e-05 1 
-2.50719e-05 7.43407e-05 1 
3.07116e-05 0.000271949 1 
3.53529e-05 0.000448979 1 
-2.50566e-06 0.000621566 1 
-9.41877e-05 0.000828526 1 
-0.000187147 0.00108363 0.999999 
-0.000302444 0.00140365 0.999999 
-0.000410717 0.00186445 0.999998 
-0.000564993 0.00244816 0.999997 
-0.000723158 0.00321744 0.999995 
-0.00090492 0.00416076 0.999991 
-0.00101767 0.00535224 0.999985 
-0.00115649 0.00688538 0.999976 
-0.00127525 0.00894906 0.999959 
-0.00157642 0.0118723 0.999928 
-0.00196913 0.0160506 0.999869 
-0.0027144 0.0217574 0.99976 
-0.00367558 0.0294725 0.999559 
-0.004829 0.0397117 0.9992 
-0.00558645 0.0538891 0.998531 
-0.00486428 0.0730931 0.997313 
-0.00220878 0.0990338 0.995082 
0.00278595 0.131458 0.991318 
0.0177339 0.157654 0.987335 
0.0203169 0.204896 0.978573 
0.041152 0.245051 0.968637 
0.0556299 0.314153 0.947741 
0.041626 0.415068 0.908838 
0.0768546 0.675077 0.733734 
0.14817 0.749157 0.645608 
0.0511528 0.941472 0.333188 
0.00447105 0.998493 -0.0547035 
-0.0645911 0.874044 -0.481534 
-0.0689196 0.749248 -0.658694 
-0.116895 0.567948 -0.814721 
-0.0663708 0.439492 -0.895791 
-0.0599479 0.350186 -0.93476 
-0.0501661 0.266855 -0.96243 
-0.0251746 0.218231 -0.975572 
-0.0127403 0.170165 -0.985333 
-0.00421975 0.126827 -0.991916 
0.00479581 0.0969224 -0.99528 
0.00548814 0.0712789 -0.997441 
0.00457476 0.0501972 -0.998729 
0.0039371 0.0371202 -0.999303 
0.00302447 0.027605 -0.999614 
0.00207044 0.0206336 -0.999785 
0.00173882 0.0152732 -0.999882 
0.00151117 0.011195 -0.999936 
0.00142747 0.00830238 -0.999965 
0.00126482 0.00639112 -0.999979 
0.00104456 0.00482389 -0.999988 
0.000861689 0.00374687 -0.999993 
0.000673457 0.00285421 -0.999996 
0.000506239 0.00218876 -0.999997 
0.000362805 0.00164688 -0.999999 
0.000243511 0.00126216 -0.999999 
0.000134429 0.00095672 -1 
4.86608e-05 0.000733507 -1 
-1.00603e-05 0.00055269 -1 
-3.32458e-05 0.000355078 -1 
-8.30761e-06 0.000174584 -1 
6.04867e-05 1.02129e-05 -1 
0.000174999 -0.000152468 -1 
0.00027771 -0.00023119 -1 
0.000370808 -0.000278685 -1 
0.000407311 -0.000320913 -1 
0.00045171 -0.000338024 -1 
0.000488172 -0.000402704 -1 
0.00171029 -0.00160917 -0.999997 
0.0559118 -0.052398 -0.997059 
-0.0828722 -0.0954538 0.991978 
-0.00588235 -0.00640767 0.999962 
-0.000431761 -0.00037097 1 
-0.000402607 -0.000344158 1 
-0.000325224 -0.000353127 1 
-0.000312147 -0.000306662 1 
-0.000240189 -0.000325838 1 
-0.000158163 -0.000225393 1 
-4.30768e-05 -0.000119954 1 
4.72977e-05 7.2774e-05 1 
0.000100012 0.000259823 1 
0.000101137 0.000452913 1 
3.97836e-05 0.000685683 1 
-4.68022e-05 0.00092924 1 
-0.000140079 0.00125728 0.999999 
-0.000227808 0.00164207 0.999999 
-0.000318896 0.00221349 0.999998 
-0.000420952 0.00289058 0.999996 
-0.000515672 0.00377404 0.999993 
-0.00057032 0.00479542 0.999988 
-0.000588232 0.00614137 0.999981 
-0.000568014 0.00784645 0.999969 
-0.000537714 0.0103866 0.999946 
-0.000488728 0.013889 0.999903 
-0.000425633 0.0189546 0.99982 
-0.000386046 0.0256342 0.999671 
-0.000114899 0.0343113 0.999411 
0.000691087 0.0455002 0.998964 
0.00317145 0.06042 0.998168 
0.00806846 0.0802865 0.996739 
0.0167302 0.104116 0.994424 
0.033567 0.124908 0.9916 
0.0484699 0.162123 0.985579 
0.0744307 0.194482 0.978078 
0.0937058 0.252957 0.962929 
0.0920585 0.391686 0.915482 
0.109632 0.534473 0.838045 
0.172428 0.615067 0.76939 
0.0917469 0.845664 0.525772 
0.0300986 0.989144 0.143832 
-0.0273878 0.961268 -0.274252 
-0.136537 0.738142 -0.660685 
-0.145985 0.45244 -0.879765 
-0.132026 0.350595 -0.927174 
-0.102917 0.273773 -0.956272 
-0.085833 0.20489 -0.975014 
-0.0553453 0.185711 -0.981044 
-0.0387968 0.148573 -0.98814 
-0.0226491 0.121023 -0.992391 
-0.00909575 0.091778 -0.995738 
-0.00445671 0.069914 -0.997543 
-0.00176246 0.0523254 -0.998629 
-0.00116166 0.0378727 -0.999282 
-0.000419256 0.0288587 -0.999583 
-0.000261661 0.0218324 -0.999762 
0.000208601 0.0162035 -0.999869 
0.00053229 0.0120017 -0.999928 
0.000742296 0.00889154 -0.99996 
0.00073383 0.00681059 -0.999977 
0.000709851 0.00531581 -0.999986 
0.000568368 0.00408864 -0.999991 
0.000486148 0.00317956 -0.999995 
0.000367966 0.00243868 -0.999997 
0.000274545 0.00185108 -0.999998 
0.000169165 0.00140506 -0.999999 
8.10235e-05 0.00106536 -0.999999 
-1.11684e-05 0.000789628 -1 
-7.61971e-05 0.000566587 -1 
-9.32151e-05 0.000363893 -1 
-7.54346e-05 0.000139511 -1 
-4.71735e-06 -4.60516e-05 -1 
0.000100101 -0.000178882 -1 
0.000214577 -0.000291009 -1 
0.000310087 -0.000320396 -1 
0.000362752 -0.000343719 -1 
0.000414483 -0.000351713 -1 
0.000516323 -0.00047396 -1 
0.0035984 -0.00350776 -0.999987 
0.0747986 -0.0743767 -0.994421 
-0.0477982 -0.072479 0.996224 
-0.00263144 -0.00369977 0.99999 
-0.000607623 -0.000604815 1 
-0.000368426 -0.000367847 1 
-0.000348525 -0.000352949 1 
-0.000263431 -0.000378857 1 
-0.000166266 -0.000350291 1 
-8.204e-05 -0.000272151 1 
3.3872e-05 -0.000113435 1 
0.000110233 6.11201e-05 1 
0.000149914 0.000259421 1 
0.000131517 0.000513456 1 
7.11119e-05 0.000773199 1 
-1.18731e-05 0.0010739 0.999999 
-7.48088e-05 0.00145193 0.999999 
-0.00014105 0.00190948 0.999998 
-0.000175802 0.00251765 0.999997 
-0.00022265 0.00323718 0.999995 
-0.000225931 0.00407737 0.999992 
-0.000219746 0.00511515 0.999987 
-0.000138027 0.00637914 0.99998 
-1.58495e-05 0.00813495 0.999967 
0.000258057 0.010492 0.999945 
0.000659058 0.0139553 0.999902 
0.00131823 0.0187348 0.999824 
0.00217017 0.0249918 0.999685 
0.00356607 0.0326065 0.999462 
0.00583295 0.0420653 0.999098 
0.00995461 0.054024 0.99849 
0.0169453 0.0689676 0.997475 
0.0278585 0.0860993 0.995897 
0.0462411 0.0999187 0.993921 
0.0675515 0.12744 0.989543 
0.0988388 0.146599 0.984246 
0.129457 0.195602 0.972101 
0.128987 0.309819 0.942006 
0.152233 0.44096 0.884522 
0.245969 0.544133 0.802134 
0.110024 0.908863 0.402321 
-0.0040846 0.997753 -0.0668754 
-0.0880148 0.919115 -0.384033 
-0.21312 0.615413 -0.758845 
-0.209802 0.32735 -0.921317 
-0.164127 0.250308 -0.954153 
-0.129581 0.187986 -0.973586 
-0.0994332 0.139865 -0.985165 
-0.0705996 0.135249 -0.988293 
-0.0494025 0.1116 -0.992524 
-0.0272826 0.0946926 -0.995133 
-0.0172645 0.0734301 -0.997151 
-0.0106523 0.0566234 -0.998339 
-0.00641942 0.0430154 -0.999054 
-0.00466994 0.0318486 -0.999482 
-0.0031139 0.0249001 -0.999685 
-0.0017814 0.0188409 -0.999821 
-0.000760105 0.014108 -0.9999 
-7.7195e-05 0.0104407 -0.999945 
0.000207389 0.00796427 -0.999968 
0.00029922 0.00619116 -0.999981 
0.000329789 0.00489841 -0.999988 
0.000262143 0.00380208 -0.999993 
0.000236497 0.00297914 -0.999996 
0.000182963 0.00228061 -0.999997 
0.000128214 0.00174884 -0.999998 
5.26972e-05 0.00131409 -0.999999 
-2.11135e-05 0.000972732 -1 
-9.81147e-05 0.000687484 -1 
-0.000140839 0.000433719 -1 
-0.000135893 0.000217761 -1 
-8.57649e-05 -1.83878e-05 -1 
6.13399e-06 -0.000191639 -1 
0.00011307 -0.000296724 -1 
0.000200105 -0.000370106 -1 
0.000278004 -0.0003669 -1 
0.000322155 -0.000360625 -1 
0.000368717 -0.000355098 -1 
0.000433541 -0.000455511 -1 
0.00318112 -0.00362429 -0.999988 
0.0533725 -0.068022 -0.996255 
-0.030027 -0.0662167 0.997353 
-0.00140793 -0.00297373 0.999995 
-0.000413961 -0.000492215 1 
-0.000291494 -0.000344768 1 
-0.000290264 -0.000364784 1 
-0.000238959 -0.000400455 1 
-0.000189882 -0.000411832 1 
-0.000100551 -0.000388029 1 
-1.39128e-05 -0.000276979 1 
7.889e-05 -0.00013878 1 
0.000143382 4.4927e-05 1 
0.000170815 0.00030862 1 
0.000146824 0.00058665 1 
8.929e-05 0.000902505 1 
3.01715e-05 0.00125542 0.999999 
-1.13897e-05 0.00172829 0.999999 
-3.09951e-05 0.00224671 0.999997 
-2.51356e-05 0.00292358 0.999996 
-4.24209e-06 0.00366321 0.999993 
2.84657e-05 0.00456387 0.99999 
0.000109986 0.00562119 0.999984 
0.000266595 0.00705225 0.999975 
0.000594519 0.00890616 0.99996 
0.00116998 0.0116313 0.999932 
0.00207367 0.0154547 0.999878 
0.00342347 0.0207155 0.99978 
0.00529358 0.0270886 0.999619 
0.00815046 0.0347282 0.999364 
0.0127328 0.0437322 0.998962 
0.0202332 0.0545517 0.998306 
0.0320643 0.0655763 0.997332 
0.0499691 0.0756833 0.995879 
0.0776306 0.0920786 0.992721 
0.115793 0.0999801 0.988229 
0.159838 0.137806 0.977477 
0.17953 0.256458 0.949736 
0.204187 0.394466 0.895938 
0.19113 0.673329 0.714211 
0.19121 0.806925 0.558848 
0.0641277 0.981329 0.181329 
-0.183756 0.84074 -0.509303 
-0.235879 0.45297 -0.859755 
-0.299733 0.289596 -0.909007 
-0.181074 0.152517 -0.971571 
-0.137273 0.113054 -0.98406 
-0.10083 0.0884212 -0.990967 
-0.0732854 0.0901558 -0.993228 
-0.0519517 0.0767424 -0.995697 
-0.0373014 0.0785316 -0.996214 
-0.0259102 0.062703 -0.997696 
-0.0173548 0.0504967 -0.998573 
-0.0115169 0.0406616 -0.999107 
-0.00808962 0.0314351 -0.999473 
-0.00554273 0.0238837 -0.999699 
-0.00340936 0.0188626 -0.999816 
-0.00179068 0.0140996 -0.999899 
-0.000755473 0.0106771 -0.999943 
-0.000249935 0.00813414 -0.999967 
-3.81729e-05 0.00640411 -0.999979 
3.77977e-05 0.0050717 -0.999987 
5.38229e-05 0.00407372 -0.999992 
5.26528e-05 0.00316063 -0.999995 
5.86438e-05 0.00248011 -0.999997 
3.58607e-05 0.00189446 -0.999998 
-4.28426e-06 0.00143414 -0.999999 
-6.58319e-05 0.00103223 -0.999999 
-0.000127513 0.000709954 -1 
-0.000164751 0.000412955 -1 
-0.000156706 0.000147573 -1 
-0.000107525 -6.76603e-05 -1 
-1.28066e-05 -0.000258154 -1 
9.01674e-05 -0.00036245 -1 
0.000184566 -0.000415041 -1 
0.000256458 -0.000393334 -1 
0.000276097 -0.000360206 -1 
0.00031215 -0.0003493 -1 
0.00032588 -0.000413162 -1 
0.00167741 -0.00254227 -0.999995 
0.0412318 -0.0714055 -0.996594 
-0.010958 -0.0629386 0.997957 
-0.000512474 -0.00297944 0.999995 
-0.000289646 -0.000413244 1 
-0.000218586 -0.000316746 1 
-0.000243897 -0.000352109 1 
-0.000208662 -0.000405832 1 
-0.000171285 -0.000447259 1 
-9.66249e-05 -0.000445637 1 
-5.20541e-06 -0.000341875 1 
7.24176e-05 -0.000220089 1 
0.000146919 1.20598e-05 1 
0.00017481 0.000279148 1 
0.000163011 0.000592706 1 
0.00012542 0.000944782 1 
7.85316e-05 0.00137843 0.999999 
6.71442e-05 0.00185583 0.999998 
6.90367e-05 0.00241054 0.999997 
0.000102067 0.0030303 0.999995 
0.000139692 0.0037667 0.999993 
0.000195168 0.00460833 0.999989 
0.000304372 0.00566864 0.999984 
0.000522396 0.00692718 0.999976 
0.000951231 0.00863201 0.999962 
0.00169583 0.0110105 0.999938 
0.00288351 0.0144513 0.999891 
0.00459206 0.0188817 0.999811 
0.00690317 0.024329 0.99968 
0.0101271 0.0301971 0.999493 
0.0150389 0.0369471 0.999204 
0.0225345 0.0439136 0.998781 
0.0334137 0.0489251 0.998243 
0.0515607 0.0557631 0.997112 
0.0757119 0.0591706 0.995373 
0.103052 0.0496009 0.993438 
0.151391 0.06052 0.98662 
0.21863 0.145387 0.964916 
0.258407 0.283211 0.923589 
0.354871 0.427038 0.831688 
0.260792 0.704387 0.660172 
-0.0139819 0.997466 -0.0697639 
-0.302511 0.698741 -0.648266 
-0.365569 0.426293 -0.827426 
-0.235988 0.202866 -0.950345 
-0.225833 0.0906386 -0.96994 
-0.160291 0.0625084 -0.985089 
-0.110235 0.0492839 -0.992683 
-0.0751347 0.055544 -0.995625 
-0.0541713 0.0542826 -0.997055 
-0.035578 0.0532567 -0.997947 
-0.0242992 0.0449187 -0.998695 
-0.0167654 0.0373423 -0.999162 
-0.0119166 0.0309022 -0.999451 
-0.00831232 0.0245786 -0.999663 
-0.00537485 0.0190208 -0.999805 
-0.00316005 0.0151438 -0.99988 
-0.00163399 0.0114383 -0.999933 
-0.000776116 0.00893213 -0.99996 
-0.000367273 0.00702535 -0.999975 
-0.000189162 0.00566038 -0.999984 
-0.00012956 0.00460028 -0.999989 
-8.38817e-05 0.00370712 -0.999993 
-6.40852e-05 0.00292745 -0.999996 
-3.9774e-05 0.00230189 -0.999997 
-4.82257e-05 0.00176454 -0.999998 
-7.73873e-05 0.00129142 -0.999999 
-0.000125712 0.000892339 -1 
-0.000164538 0.000533502 -1 
-0.000170224 0.000226172 -1 
-0.000132491 -4.04669e-05 -1 
-6.39511e-05 -0.000240206 -1 
2.47017e-05 -0.000388473 -1 
0.000100027 -0.000435379 -1 
0.000162123 -0.000458457 -1 
0.000214354 -0.000416467 -1 
0.000227948 -0.000359556 -1 
0.000239369 -0.00032813 -1 
0.000232325 -0.000435182 -1 
0.00143943 -0.0038318 -0.999992 
0.0177948 -0.0753751 -0.996996 
0.0100851 -0.0526539 0.998562 
0.000414562 -0.00219763 0.999997 
-0.000174861 -0.00039095 1 
-0.000150507 -0.000272624 1 
-0.000192253 -0.000334211 1 
-0.000174371 -0.000406372 1 
-0.000158877 -0.000471369 1 
-0.000109632 -0.000500462 1 
-3.58189e-05 -0.000436523 1 
3.92317e-05 -0.0003232 1 
0.000116845 -0.000103421 1 
0.000157749 0.000155712 1 
0.000170414 0.000488352 1 
0.000156706 0.000870637 1 
0.0001291 0.00131106 0.999999 
0.000120306 0.00178916 0.999998 
0.000124052 0.0023439 0.999997 
0.000150036 0.00296734 0.999996 