# vtk DataFile Version 3.0 
Exported using Morpho https://github.com/Morpho-lang/morpho 
ASCII 
DATASET UNSTRUCTURED_GRID 

POINTS 1978 float 
-8.48528 -2.82843 -2.39052e-14 
-8.26042 -2.82843 4.70403e-15 
-8.03161 -2.82843 -1.88336e-17 
-7.79436 -2.82843 3.17258e-18 
-7.5146 -2.82843 9.27116e-17 
-7.25681 -2.82843 1.89762e-16 
-7.00966 -2.82843 1.73199e-16 
-6.79522 -2.82843 8.71774e-17 
-6.5736 -2.82843 1.14372e-16 
-6.36876 -2.82843 1.40334e-16 
-6.14974 -2.82843 -7.8533e-17 
-5.92242 -2.82843 -8.95333e-17 
-5.70798 -2.82843 -1.20006e-16 
-5.5092 -2.82843 -3.05087e-16 
-5.28218 -2.82843 -3.5101e-16 
-5.08096 -2.82843 -4.44759e-16 
-4.86359 -2.82843 -3.58748e-16 
-4.66295 -2.82843 -7.8748e-16 
-4.44746 -2.82843 -1.16595e-15 
-4.23948 -2.82843 -1.38365e-15 
-4.02634 -2.82843 -1.15379e-15 
-3.82658 -2.82843 -1.72334e-15 
-3.61495 -2.82843 -2.9469e-15 
-3.40377 -2.82843 -5.64191e-15 
-3.17998 -2.82843 -1.02595e-14 
-2.95727 -2.82843 -2.48943e-14 
-2.73031 -2.82843 -6.03058e-14 
-2.50353 -2.82843 -1.43519e-13 
-2.28309 -2.82843 -3.2241e-13 
-2.0821 -2.82843 -8.25039e-13 
-1.88933 -2.82843 -1.69397e-12 
-1.7007 -2.82843 -3.36499e-12 
-1.53371 -2.82843 -6.19135e-12 
-1.37285 -2.82843 -9.79613e-12 
-1.23449 -2.82843 -1.24769e-11 
-1.10505 -2.82843 -2.28591e-11 
-0.966664 -2.82843 -3.90322e-11 
-0.804423 -2.82843 -2.27183e-11 
-0.636548 -2.82843 1.44044e-10 
-0.453822 -2.82843 -1.82978e-09 
0.680692 -2.82843 -1.23761e-09 
0.806368 -2.82843 -7.54584e-11 
0.950419 -2.82843 -1.08269e-11 
1.07337 -2.82843 1.47815e-11 
1.2318 -2.82843 2.45979e-11 
1.36428 -2.82843 1.18321e-11 
1.54019 -2.82843 9.06641e-12 
1.70182 -2.82843 3.87987e-12 
1.87353 -2.82843 2.02405e-12 
2.07839 -2.82843 9.48943e-13 
2.27078 -2.82843 3.7751e-13 
2.47831 -2.82843 1.74907e-13 
2.68778 -2.82843 7.56893e-14 
2.9322 -2.82843 3.34853e-14 
3.16824 -2.82843 1.41915e-14 
3.39829 -2.82843 6.96424e-15 
3.62196 -2.82843 2.92303e-15 
3.82983 -2.82843 1.39746e-15 
4.04315 -2.82843 1.41875e-15 
4.2634 -2.82843 1.5719e-15 
4.45838 -2.82843 1.14021e-15 
4.67125 -2.82843 8.01821e-16 
4.87038 -2.82843 3.29861e-16 
5.07971 -2.82843 2.86655e-16 
5.28498 -2.82843 3.48396e-16 
5.50272 -2.82843 3.51461e-16 
5.70633 -2.82843 1.66978e-16 
5.92587 -2.82843 8.59446e-17 
6.14849 -2.82843 3.66044e-17 
6.35043 -2.82843 -6.23578e-17 
6.58715 -2.82843 -7.79587e-17 
6.80124 -2.82843 -1.06207e-16 
7.00322 -2.82843 -2.29696e-16 
7.26999 -2.82843 -1.44624e-16 
7.50196 -2.82843 -8.26742e-17 
7.73969 -2.82843 4.21976e-17 
8.02021 -2.82843 7.96832e-17 
8.20512 -2.82843 -1.0319e-14 
8.48528 -2.82843 -7.67179e-13 
-8.48528 -2.59068 2.33665e-13 
-8.25726 -2.59212 -1.76017e-16 
-8.03035 -2.58544 -1.09614e-17 
-7.77515 -2.61683 -4.45898e-19 
-7.49895 -2.62412 2.79133e-18 
-7.24241 -2.62363 -2.53528e-18 
-6.99503 -2.60067 -4.07503e-18 
-6.76532 -2.60102 5.05396e-19 
-6.53991 -2.58386 2.11723e-18 
-6.3164 -2.59431 -7.23166e-19 
-6.08505 -2.60268 -7.41653e-19 
-5.86438 -2.59045 1.10484e-19 
-5.65651 -2.57184 4.03851e-19 
-5.43502 -2.60688 2.1194e-18 
-5.22394 -2.57926 4.20848e-18 
-5.00729 -2.60059 8.54432e-18 
-4.79752 -2.58313 1.70421e-17 
-4.58153 -2.60223 3.84968e-17 
-4.3642 -2.59352 -1.29105e-16 
-4.1468 -2.59903 -2.87727e-16 
-3.93492 -2.58126 -1.27867e-14 
-3.72135 -2.59149 -2.6552e-14 
-3.50032 -2.58579 6.95993e-19 
-3.27188 -2.59436 1.67619e-18 
-3.03605 -2.59004 4.42628e-18 
-2.79833 -2.59523 1.31639e-17 
-2.55496 -2.60066 4.30243e-17 
-2.31201 -2.60297 1.3888e-16 
-2.08479 -2.58781 4.3459e-16 
-1.86702 -2.61124 1.11623e-15 
-1.66706 -2.61005 2.88995e-15 
-1.48483 -2.62375 6.59702e-15 
-1.31535 -2.6177 1.42663e-14 
-1.16879 -2.62913 2.93385e-14 
-1.01166 -2.69157 4.69579e-14 
-0.978974 -2.55404 2.44771e-14 
-0.837422 -2.68723 9.78672e-14 
-0.621348 -2.70585 6.78377e-14 
-0.308489 -2.69097 9.94284e-15 
-0.212051 -2.80254 -3.4655e-13 
0.529332 -2.76494 -1.31989e-13 
0.690541 -2.63079 -8.3286e-14 
0.849443 -2.6586 -7.75123e-14 
0.998017 -2.61969 -6.13493e-14 
1.1492 -2.66178 -3.72315e-14 
1.30368 -2.60595 -1.96146e-14 
1.46395 -2.63584 -9.41812e-15 
1.6431 -2.5993 -4.03272e-15 
1.8217 -2.59978 -1.70441e-15 
2.03002 -2.62268 -6.02399e-16 
2.26106 -2.5881 -2.21364e-16 
2.47901 -2.57723 -7.1124e-17 
2.72088 -2.60651 -2.18447e-17 
2.96447 -2.59673 -6.92038e-18 
3.20028 -2.59462 -2.53094e-18 
3.43021 -2.59182 -9.43146e-19 
3.64653 -2.58159 3.59043e-14 
3.86453 -2.59178 1.72958e-14 
4.08958 -2.60299 3.75388e-16 
4.29437 -2.57697 1.76629e-16 
4.50929 -2.59986 -5.32423e-17 
4.71692 -2.58356 -2.02425e-17 
4.92932 -2.59477 -1.2206e-17 
5.14149 -2.58918 -5.78254e-18 
5.36134 -2.6015 -2.33115e-18 
5.57496 -2.58356 -3.09062e-19 
5.79373 -2.5993 -1.56337e-18 
6.02115 -2.60047 9.22596e-20 
6.23768 -2.57446 -1.1162e-19 
6.45969 -2.60966 -3.39702e-20 
6.68794 -2.58415 2.18878e-19 
6.89922 -2.56659 1.54679e-19 
7.12931 -2.62934 4.23462e-19 
7.38061 -2.59705 1.03679e-18 
7.61471 -2.60367 3.13728e-20 
7.87386 -2.63625 2.09904e-19 
8.08072 -2.53665 -1.63397e-18 
8.30112 -2.63205 7.18207e-16 
8.48528 -2.53245 -1.75755e-12 
-8.48528 -2.3481 -1.33791e-12 
-8.25549 -2.35376 -1.08246e-16 
-8.01331 -2.35319 -8.22363e-18 
-7.76876 -2.40181 -2.13265e-19 
-7.56299 -2.22777 -3.93101e-20 
-7.49179 -2.42842 -1.1954e-19 
-7.21499 -2.42088 -7.66704e-20 
-6.97965 -2.36497 -1.09382e-20 
-6.74247 -2.37324 2.00065e-20 
-6.50736 -2.35181 3.43957e-20 
-6.27092 -2.37184 6.00392e-20 
-6.04785 -2.36509 1.76393e-19 
-5.83174 -2.34375 1.61923e-19 
-5.59268 -2.35396 3.60127e-19 
-5.3831 -2.36171 8.16962e-19 
-5.14964 -2.35697 2.11397e-18 
-4.94 -2.35755 4.84463e-18 
-4.71233 -2.3623 1.19888e-17 
-4.49724 -2.37166 2.73026e-17 
-4.273 -2.3673 -1.09538e-16 
-4.06327 -2.35513 -2.14068e-16 
-3.84394 -2.34692 -4.73108e-16 
-3.63061 -2.35312 -2.23363e-14 
-3.40282 -2.35554 6.81659e-19 
-3.17615 -2.35948 1.79315e-18 
-2.94142 -2.35803 5.00647e-18 
-2.70556 -2.36845 1.49418e-17 
-2.46713 -2.37744 4.30848e-17 
-2.23453 -2.37942 1.09133e-16 
-2.0104 -2.37786 2.43134e-16 
-1.80395 -2.40139 5.09698e-16 
-1.60833 -2.40134 7.64013e-16 
-1.43232 -2.42451 2.01635e-15 
-1.27074 -2.41101 7.06074e-16 
-1.11592 -2.46332 1.0692e-15 
-0.850732 -2.46526 8.80481e-15 
-0.756685 -2.58601 3.93963e-14 
-0.593687 -2.52181 5.3312e-14 
-0.471799 -2.64192 3.10549e-14 
-0.0846827 -2.67 -1.72474e-14 
0.268401 -2.84942 -1.92067e-14 
0.455569 -2.65735 -2.59246e-14 
0.808264 -2.48353 -3.35874e-14 
0.958002 -2.45554 -5.03252e-15 
1.14411 -2.47585 -7.74013e-15 
1.26931 -2.38526 5.67939e-16 
1.42235 -2.42037 -2.43538e-15 
1.58534 -2.39948 -8.01141e-16 
1.7704 -2.36862 -2.42632e-16 
1.96661 -2.40592 -3.82762e-16 
2.18136 -2.39305 -1.48343e-16 
2.41776 -2.34616 -4.84899e-17 
2.65245 -2.37368 -1.92166e-17 
2.88671 -2.37217 -7.76623e-18 
3.12828 -2.36048 -2.54745e-18 
3.35621 -2.35797 -9.42332e-19 
3.57864 -2.34168 3.11442e-14 
3.79726 -2.35209 1.31283e-14 
4.01629 -2.37412 3.11345e-16 
4.22587 -2.3415 1.33974e-16 
4.44439 -2.36211 -3.06605e-17 
4.64994 -2.34967 -1.39685e-17 
4.86499 -2.35738 -6.01186e-18 
5.07476 -2.35521 -2.88141e-18 
5.29307 -2.36935 -1.24677e-18 
5.50519 -2.35207 -6.12467e-19 
5.72726 -2.36117 -2.68881e-19 
5.94584 -2.37351 -1.45559e-19 
6.16445 -2.34507 -7.73718e-20 
6.39842 -2.36335 -1.07608e-19 
6.61063 -2.36233 -1.42419e-20 
6.83585 -2.32076 2.28895e-21 
7.06911 -2.37988 2.79577e-20 
7.28875 -2.39661 8.01265e-20 
7.54679 -2.36872 9.26415e-20 
7.78723 -2.41682 2.64797e-19 
8.0008 -2.32074 -3.17247e-17 
8.2648 -2.36304 -8.43614e-16 
8.48528 -2.28028 2.91977e-12 
-8.48528 -2.10868 2.59024e-12 
-8.25446 -2.10447 -6.18919e-16 
-8.04469 -2.11515 -1.90579e-19 
-7.80448 -2.15862 2.4306e-21 
-7.49647 -2.02511 -1.18479e-20 
-7.29696 -2.2274 -6.06351e-20 
-7.05712 -2.15051 -1.72272e-20 
-6.80541 -2.14303 -3.80455e-21 
-6.58427 -2.13133 -3.08712e-21 
-6.34187 -2.13964 -5.6117e-20 
-6.12226 -2.12823 -9.95503e-21 
-5.91054 -2.1088 -5.51481e-20 
-5.6853 -2.13375 -1.52697e-20 
-5.46301 -2.11251 -9.15028e-20 
-5.25279 -2.13926 -5.09659e-20 
-5.03577 -2.11483 -1.38205e-19 
-4.82204 -2.13752 -7.09399e-20 
-4.60517 -2.13335 -2.11589e-19 
-4.39341 -2.14566 -9.65826e-19 
-4.18491 -2.12129 -6.76242e-18 
-3.97472 -2.11988 -1.98265e-17 
-3.76143 -2.10754 -4.65524e-17 
-3.54462 -2.12395 2.11306e-16 
-3.32218 -2.11985 5.52894e-16 
-3.0967 -2.12541 3.18873e-14 
-2.86367 -2.12783 -1.30526e-18 
-2.63103 -2.14137 -4.31776e-18 
-2.39818 -2.15117 -1.31066e-17 
-2.17 -2.15588 -3.61167e-17 
-1.95056 -2.16089 -8.31646e-17 
-1.7546 -2.18682 -1.06426e-16 
-1.58986 -2.14283 -4.27921e-16 
-1.44519 -2.21436 -7.87977e-16 
-1.30628 -2.1748 -6.24039e-16 
-1.15619 -2.2539 -1.53001e-15 
-0.991964 -2.3675 4.24859e-15 
-0.681909 -2.41818 2.06914e-14 
-0.4974 -2.316 -2.88069e-15 
-0.25883 -2.54566 4.98557e-14 
0.065122 -2.76479 -3.16328e-14 
0.428911 -2.50118 -8.36465e-14 
0.628211 -2.49962 -1.87587e-14 
0.758747 -2.32257 -6.44775e-15 
0.984253 -2.32225 1.64166e-15 
1.11144 -2.25674 1.85334e-15 
1.26155 -2.17593 1.19246e-15 
1.42742 -2.1997 1.58888e-15 
1.59993 -2.17616 6.12791e-16 
1.81214 -2.16258 2.96548e-17 
2.01644 -2.18531 1.27755e-16 
2.23211 -2.1682 6.85884e-18 
2.47894 -2.12664 5.62454e-18 
2.70723 -2.13859 1.25061e-18 
2.94495 -2.14254 -4.25379e-14 
3.1727 -2.12037 -1.53162e-14 
3.39621 -2.11864 -3.52642e-16 
3.61915 -2.10713 -1.82192e-16 
3.84089 -2.12487 2.5827e-17 
4.04744 -2.13049 1.05952e-17 
4.27536 -2.11955 6.77705e-18 
4.47977 -2.11891 2.07757e-18 
4.69721 -2.12108 8.11109e-19 
4.90757 -2.12 2.83111e-19 
5.12752 -2.12955 1.19847e-19 
5.33659 -2.12845 8.06992e-20 
5.56137 -2.12577 3.24271e-20 
5.7814 -2.13015 1.70786e-20 
5.99518 -2.1319 -1.03964e-20 
6.23668 -2.12952 3.26872e-20 
6.45012 -2.11429 -6.39492e-21 
6.66495 -2.11777 1.78073e-20 
6.92428 -2.11454 -1.59836e-20 
7.1403 -2.14065 1.94397e-20 
7.37131 -2.17883 3.42702e-20 
7.56588 -2.08359 1.03596e-20 
7.75089 -2.18232 1.81513e-20 
7.96266 -2.08129 -1.68826e-18 
8.19287 -2.14406 2.08031e-18 
8.48528 -2.09886 6.41178e-13 
-8.48528 -1.80256 -2.54823e-13 
-8.31107 -1.86259 5.16047e-16 
-7.89694 -1.91139 6.54889e-20 
[...]
POINT_DATA 1978 
VECTORS vectors float
-0.00217497 -0.0117592 0.999928 
0.000731805 -0.000736095 0.999999 
-0.00020781 -0.000454947 1 
5.24339e-05 -0.000339011 1 
-6.72455e-06 -0.00022299 1 
3.4348e-06 -9.14025e-05 1 
1.03645e-06 3.31761e-05 1 
4.02567e-07 0.000156948 1 
3.31013e-07 0.000280807 1 
2.26233e-07 0.000397716 1 
5.16716e-07 0.00050816 1 
4.47986e-07 0.0006112 1 
4.95041e-07 0.000713917 1 
5.9508e-07 0.000842434 1 
1.04803e-06 0.00107227 0.999999 
4.81291e-07 0.00140186 0.999999 
1.2352e-06 0.00187551 0.999998 
1.45059e-06 0.00240861 0.999997 
2.62266e-06 0.00314785 0.999995 
1.98411e-06 0.00415788 0.999991 
1.72836e-06 0.0055445 0.999985 
2.14527e-06 0.00716808 0.999974 
6.04789e-06 0.00929545 0.999957 
1.21163e-05 0.0120251 0.999928 
2.397e-05 0.0156602 0.999877 
4.14097e-05 0.0202989 0.999794 
6.11956e-05 0.0274916 0.999622 
6.81069e-05 0.0390583 0.999237 
4.07014e-05 0.0558534 0.998439 
-2.69717e-05 0.0786969 0.996899 
-7.06748e-05 0.108057 0.994145 
-0.000220875 0.146131 0.989265 
-0.000426431 0.19475 0.980853 
-0.000581774 0.25622 0.966618 
-0.000872389 0.323289 0.9463 
-0.00101556 0.397933 0.917414 
-0.000968399 0.487489 0.873129 
-0.00110275 0.619325 0.785134 
-0.000803252 0.76823 0.640174 
0.00216084 0.924179 0.381953 
0.000548334 0.831733 -0.555176 
0.00183232 0.706182 -0.708028 
0.000876246 0.578838 -0.815442 
0.00134533 0.475333 -0.879805 
0.000898534 0.3548 -0.934942 
0.000715583 0.27966 -0.960099 
0.000386709 0.201717 -0.979444 
0.000306483 0.151965 -0.988386 
7.90423e-05 0.114949 -0.993371 
4.20915e-05 0.0841488 -0.996453 
-9.7377e-07 0.0606514 -0.998159 
-3.29103e-05 0.0434023 -0.999058 
-5.45193e-05 0.031503 -0.999504 
-6.88969e-05 0.0225426 -0.999746 
-3.88032e-05 0.0165328 -0.999863 
-2.14443e-05 0.0121849 -0.999926 
-9.63507e-06 0.00926216 -0.999957 
-4.35568e-06 0.00719653 -0.999974 
-4.22475e-06 0.00543702 -0.999985 
-2.01062e-06 0.00396871 -0.999992 
-8.38436e-07 0.00301035 -0.999995 
-1.15682e-06 0.00232046 -0.999997 
-5.75471e-07 0.00185344 -0.999998 
-4.66509e-07 0.0014402 -0.999999 
-5.17434e-07 0.00109395 -0.999999 
-5.88014e-07 0.000836979 -1 
-5.83207e-07 0.000698447 -1 
-5.52482e-07 0.00060586 -1 
-3.21552e-07 0.000512608 -1 
-3.92536e-07 0.00041031 -1 
-4.7181e-07 0.000280252 -1 
-3.8886e-07 0.000158046 -1 
-1.19455e-06 4.24981e-05 -1 
-3.15821e-06 -9.92657e-05 -1 
9.13394e-06 -0.000217879 -1 
-6.20342e-05 -0.000331045 -1 
0.000198885 -0.00047107 -1 
-0.000760401 -0.000626165 -1 
0.00174902 -0.0175407 -0.999845 
-0.0664912 -0.0615923 0.995884 
-0.0030214 -0.00302051 0.999991 
-0.00041475 -0.000481034 1 
-0.000323317 -0.000334905 1 
-0.000272411 -0.000243055 1 
-0.000223448 -0.000125774 1 
-0.000182562 -1.41067e-05 1 
-0.00011406 0.000121856 1 
-7.31445e-05 0.000253517 1 
-5.09621e-05 0.000395918 1 
-6.40691e-05 0.000531182 1 
-0.000107533 0.000657677 1 
-0.000173388 0.000798321 1 
-0.000237878 0.000986885 0.999999 
-0.000357365 0.00128161 0.999999 
-0.000464572 0.00168211 0.999998 
-0.000645883 0.00222066 0.999997 
-0.000806689 0.00289356 0.999995 
-0.00105819 0.00382449 0.999992 
-0.00129911 0.00504717 0.999986 
-0.00164218 0.00664399 0.999977 
-0.00194838 0.00866608 0.999961 
-0.00252477 0.0114863 0.999931 
-0.00338004 0.015299 0.999877 
-0.00493702 0.0206325 0.999775 
-0.00704629 0.0282407 0.999576 
-0.00988619 0.0400946 0.999147 
-0.0134707 0.0581553 0.998217 
-0.0175035 0.0837895 0.99633 
-0.0211472 0.117699 0.992824 
-0.0254316 0.162658 0.986355 
-0.0293098 0.218688 0.975354 
-0.0329482 0.285997 0.957664 
-0.0335917 0.363317 0.93106 
-0.0311653 0.455142 0.889873 
-0.00197993 0.475615 0.879651 
-0.0244498 0.584741 0.810851 
-0.0041453 0.757426 0.652908 
0.0175702 0.922246 0.386205 
-0.00195813 0.977217 0.212235 
0.0081433 0.889152 -0.45754 
-0.0152726 0.750232 -0.660999 
0.0135564 0.634722 -0.772622 
0.0257273 0.512602 -0.858241 
0.0354482 0.40844 -0.912097 
0.035394 0.316369 -0.947976 
0.0325856 0.243179 -0.969434 
0.0291426 0.18097 -0.983057 
0.0247086 0.135758 -0.990434 
0.0180876 0.0961231 -0.995205 
0.0143897 0.0660793 -0.997711 
0.0115206 0.0476487 -0.998798 
0.00769829 0.032964 -0.999427 
0.00558897 0.0238738 -0.999699 
0.00392716 0.0175709 -0.999838 
0.0028342 0.0129206 -0.999913 
0.00227748 0.0097835 -0.99995 
0.00180607 0.00736776 -0.999971 
0.00143691 0.00547113 -0.999984 
0.00125328 0.00420473 -0.99999 
0.000919951 0.00313487 -0.999995 
0.000729499 0.00243487 -0.999997 
0.000527004 0.00187163 -0.999998 
0.000393493 0.00143646 -0.999999 
0.000271413 0.00108193 -0.999999 
0.000194988 0.00085333 -1 
0.000119841 0.000689382 -1 
7.39106e-05 0.000562993 -1 
5.78289e-05 0.000439196 -1 
6.31521e-05 0.00031124 -1 
0.000107188 0.000161529 -1 
0.000169223 3.0935e-05 -1 
0.000195093 -6.74333e-05 -1 
0.000279924 -0.000188586 -1 
0.000307719 -0.000281428 -1 
0.000292364 -0.000382 -1 
0.000496458 -0.000549307 -1 
0.0039171 -0.00436931 -0.999983 
0.0916639 -0.0889842 -0.991806 
-0.0729049 -0.0667745 0.995101 
-0.00340091 -0.00314754 0.999989 
-0.000544551 -0.000458046 1 
-0.000454393 -0.000335312 1 
-0.000430984 -0.000301529 1 
-0.000398677 -0.000254202 1 
-0.000319848 -0.000164737 1 
-0.000225256 -8.91559e-05 1 
-0.000128155 5.18093e-05 1 
-5.0254e-05 0.000205887 1 
-2.73509e-05 0.000382658 1 
-4.80179e-05 0.000538621 1 
-0.000102799 0.000694395 1 
-0.000203312 0.000896745 1 
-0.000307321 0.00113834 0.999999 
-0.000448495 0.00152496 0.999999 
-0.000604851 0.0020031 0.999998 
-0.000818878 0.00268097 0.999996 
-0.00105681 0.00350789 0.999993 
-0.00132165 0.00464351 0.999988 
-0.001569 0.00603568 0.999981 
-0.00186938 0.00793875 0.999967 
-0.00229854 0.0104145 0.999943 
-0.0030364 0.0140702 0.999896 
-0.00424824 0.0189731 0.999811 
-0.00608542 0.0258591 0.999647 
-0.00857318 0.0353643 0.999338 
-0.0114648 0.049122 0.998727 
-0.0141021 0.0689543 0.99752 
-0.0155907 0.0957584 0.995283 
-0.0162825 0.130653 0.991295 
-0.0131525 0.175479 0.984395 
-0.0121637 0.230347 0.973032 
0.000532139 0.288101 0.9576 
0.00172099 0.358741 0.933435 
0.0501756 0.548251 0.834807 
0.00514889 0.625866 0.779913 
0.0422978 0.763667 0.644223 
0.0383429 0.866129 0.498348 
0.0181144 0.9855 0.168704 
0.00377764 0.969131 -0.246519 
-0.0212704 0.886213 -0.462789 
-0.0449056 0.627672 -0.777182 
-0.0267711 0.514795 -0.856895 
0.00338229 0.397987 -0.917385 
-0.00547513 0.31245 -0.949918 
0.01122 0.249506 -0.968308 
0.014409 0.193127 -0.981068 
0.0131647 0.144458 -0.989423 
0.017497 0.109039 -0.993884 
0.0149905 0.077891 -0.996849 
0.0111036 0.0554576 -0.998399 
0.00904289 0.0394954 -0.999179 
0.00660919 0.028937 -0.999559 
0.00446368 0.021189 -0.999766 
0.00326136 0.015563 -0.999874 
0.00249641 0.0115159 -0.999931 
0.00209973 0.00855769 -0.999961 
0.00178325 0.00641086 -0.999978 
0.00144635 0.00494798 -0.999987 
0.00116843 0.00372407 -0.999992 
0.000904798 0.00288125 -0.999995 
0.00067778 0.00219304 -0.999997 
0.000498186 0.00168146 -0.999998 
0.000353891 0.00126918 -0.999999 
0.000236444 0.000986981 -0.999999 
0.000141938 0.000770641 -1 
7.47938e-05 0.000607839 -1 
3.1462e-05 0.00045588 -1 
4.20652e-05 0.000291842 -1 
8.66773e-05 0.000139521 -1 
0.000162787 -2.36198e-05 -1 
0.000266134 -0.000121639 -1 
0.00034927 -0.00020164 -1 
0.000418207 -0.000281097 -1 
0.000445299 -0.000344066 -1 
0.000525957 -0.000442894 -1 
0.00346347 -0.00344072 -0.999988 
0.0528728 -0.0544396 -0.997116 
-0.0973865 -0.0902083 0.99115 
-0.00411426 -0.0038199 0.999984 
-0.000578577 -0.00048968 1 
-0.000459099 -0.000347148 1 
-0.00038724 -0.000321674 1 
-0.000352868 -0.000247081 1 
-0.000240723 -0.000201493 1 
-0.000117064 -7.16889e-05 1 
-2.50899e-05 7.43449e-05 1 
3.06869e-05 0.000271936 1 
3.53299e-05 0.000448959 1 
-2.51989e-06 0.00062155 1 
-9.41888e-05 0.000828521 1 
-0.000187141 0.00108363 0.999999 
-0.000302433 0.00140366 0.999999 
-0.000410706 0.00186446 0.999998 
-0.000564974 0.00244817 0.999997 
-0.000723126 0.00321744 0.999995 
-0.000904875 0.00416074 0.999991 
-0.00101763 0.00535223 0.999985 
-0.00115646 0.0068854 0.999976 
-0.00127524 0.00894913 0.999959 
-0.00157643 0.0118724 0.999928 
-0.00196916 0.0160506 0.999869 
-0.00271434 0.0217572 0.99976 
-0.00367537 0.0294723 0.999559 
-0.00482859 0.0397116 0.9992 
-0.00558565 0.0538889 0.998531 
-0.00486348 0.0730935 0.997313 
-0.00220706 0.0990336 0.995082 
0.00278749 0.131456 0.991318 
0.0177324 0.157656 0.987335 
0.0203173 0.204897 0.978573 
0.0411551 0.245042 0.968639 
0.0556225 0.314153 0.947742 
0.0416396 0.415083 0.90883 
0.0768645 0.675052 0.733755 
0.148179 0.749143 0.645622 
0.051161 0.941452 0.333242 
0.00446525 0.998494 -0.0546778 
-0.0646143 0.874025 -0.481565 
-0.0689158 0.749245 -0.658698 
-0.116901 0.567974 -0.814702 
-0.0663751 0.439497 -0.895788 
-0.0599481 0.350191 -0.934758 
-0.0501664 0.266859 -0.962429 
-0.0251753 0.218231 -0.975572 
-0.0127409 0.170165 -0.985333 
-0.00422 0.126826 -0.991916 
0.00479352 0.0969221 -0.99528 
0.00548736 0.0712784 -0.997441 
0.004574 0.0501973 -0.998729 
0.00393686 0.0371203 -0.999303 
0.00302435 0.0276047 -0.999614 
0.00207049 0.0206334 -0.999785 
0.00173881 0.0152731 -0.999882 
0.00151113 0.011195 -0.999936 
0.0014274 0.00830245 -0.999965 
0.00126477 0.00639113 -0.999979 
0.00104452 0.00482389 -0.999988 
0.000861653 0.00374687 -0.999993 
0.000673434 0.00285421 -0.999996 
0.000506227 0.00218877 -0.999997 
0.000362799 0.00164689 -0.999999 
0.000243508 0.00126217 -0.999999 
0.00013443 0.000956725 -1 
4.86681e-05 0.000733499 -1 
-1.00442e-05 0.000552673 -1 
-3.32231e-05 0.000355063 -1 
-8.2871e-06 0.00017458 -1 
6.04984e-05 1.02229e-05 -1 
0.000174994 -0.000152444 -1 
0.000277689 -0.000231165 -1 
0.000370775 -0.000278669 -1 
0.000407285 -0.000320904 -1 
0.000451688 -0.000338036 -1 
0.00048854 -0.000403081 -1 
0.00172149 -0.00161994 -0.999997 
0.0559268 -0.0524058 -0.997059 
-0.0828501 -0.0954446 0.991981 
-0.00593362 -0.00646447 0.999962 
-0.000431826 -0.00037106 1 
-0.000402589 -0.000344157 1 
-0.000325205 -0.000353112 1 
-0.000312128 -0.000306637 1 
-0.000240176 -0.000325807 1 
-0.000158163 -0.000225367 1 
-4.309e-05 -0.00011993 1 
4.72719e-05 7.27774e-05 1 
9.9978e-05 0.000259814 1 
0.000101105 0.0004529 1 
3.97635e-05 0.000685674 1 
-4.68083e-05 0.00092924 1 
-0.000140076 0.00125729 0.999999 
-0.000227806 0.00164209 0.999999 
-0.000318895 0.0022135 0.999997 
-0.000420947 0.00289059 0.999996 
-0.000515665 0.00377403 0.999993 
-0.000570314 0.0047954 0.999988 
-0.000588234 0.00614137 0.999981 
-0.000568038 0.0078465 0.999969 
-0.000537763 0.0103867 0.999946 
-0.000488823 0.0138891 0.999903 
-0.000425748 0.0189545 0.99982 
-0.000386146 0.0256338 0.999671 
-0.000114941 0.0343109 0.999411 
0.000691184 0.0454998 0.998964 
0.00317145 0.0604196 0.998168 
0.00806852 0.0802853 0.996739 
0.0167313 0.104115 0.994425 
0.0335662 0.124911 0.9916 
0.0484715 0.162123 0.985579 
0.0744333 0.194481 0.978078 
0.0937001 0.25297 0.962926 
0.0920577 0.391658 0.915494 
0.109622 0.534452 0.838059 
0.172434 0.615088 0.769372 
0.091744 0.845655 0.525785 
0.0301087 0.989141 0.143851 
-0.0273742 0.961271 -0.274242 
-0.13654 0.738149 -0.660677 
-0.145978 0.452441 -0.879765 
-0.132025 0.35059 -0.927176 
-0.102918 0.273772 -0.956272 
-0.0858318 0.204891 -0.975014 
-0.0553432 0.185712 -0.981044 
-0.0388002 0.148569 -0.988141 
-0.0226457 0.121025 -0.992391 
-0.00909744 0.0917769 -0.995738 
-0.00445672 0.0699138 -0.997543 
-0.00176279 0.0523251 -0.998629 
-0.0011615 0.0378725 -0.999282 
-0.000418965 0.0288584 -0.999583 
-0.000261454 0.021832 -0.999762 
0.000208685 0.0162034 -0.999869 
0.000532286 0.0120018 -0.999928 
0.000742275 0.00889165 -0.99996 
0.000733822 0.00681063 -0.999977 
0.000709844 0.00531581 -0.999986 
0.000568362 0.00408863 -0.999991 
0.000486142 0.00317955 -0.999995 
0.000367964 0.00243868 -0.999997 
0.000274544 0.00185109 -0.999998 
0.000169166 0.00140507 -0.999999 
8.10288e-05 0.00106536 -0.999999 
-1.11523e-05 0.000789622 -1 
-7.61709e-05 0.000566572 -1 
-9.31842e-05 0.000363878 -1 
-7.54046e-05 0.000139509 -1 
-4.69712e-06 -4.60369e-05 -1 
0.000100108 -0.000178855 -1 
0.000214569 -0.000290978 -1 
0.000310069 -0.000320373 -1 
0.000362732 -0.000343709 -1 
0.000414487 -0.000351737 -1 
0.000517637 -0.000475329 -1 
0.00362817 -0.00353689 -0.999987 
0.0748074 -0.0743843 -0.99442 
-0.047794 -0.0724908 0.996223 
-0.00265186 -0.00372961 0.99999 
-0.000610398 -0.000607942 1 
-0.000368464 -0.000367918 1 
-0.00034851 -0.000352948 1 
-0.000263416 -0.000378831 1 
-0.00016626 -0.000350256 1 
-8.20443e-05 -0.000272116 1 
3.38514e-05 -0.000113416 1 
0.000110201 6.11259e-05 1 
0.000149878 0.000259417 1 
0.000131486 0.000513445 1 
7.10958e-05 0.000773191 1 
-1.18741e-05 0.0010739 0.999999 
-7.48033e-05 0.00145193 0.999999 
-0.000141049 0.00190949 0.999998 
-0.000175808 0.00251764 0.999997 
-0.000222659 0.00323717 0.999995 
-0.000225939 0.00407734 0.999992 
-0.000219755 0.00511513 0.999987 
-0.00013804 0.00637915 0.99998 
-1.58668e-05 0.00813502 0.999967 
0.000258025 0.0104921 0.999945 
0.000658977 0.0139554 0.999902 
0.00131809 0.0187347 0.999824 
0.00217002 0.0249915 0.999685 
0.00356597 0.0326061 0.999462 
0.00583288 0.042065 0.999098 
0.00995469 0.0540241 0.99849 
0.0169459 0.0689691 0.997475 
0.0278596 0.0860978 0.995897 
0.0462383 0.0999188 0.993921 
0.0675514 0.127436 0.989544 
0.0988394 0.146597 0.984246 
0.129454 0.195608 0.9721 
0.128994 0.309828 0.942002 
0.152234 0.440991 0.884507 
0.24596 0.544129 0.80214 
0.110023 0.908869 0.402308 
-0.00409506 0.997751 -0.0669053 
-0.0879755 0.919165 -0.383921 
-0.213129 0.615396 -0.758857 
-0.209797 0.327352 -0.921318 
-0.164127 0.250302 -0.954155 
-0.129581 0.187985 -0.973586 
-0.0994335 0.139866 -0.985165 
-0.070601 0.135248 -0.988293 
-0.049401 0.111601 -0.992524 
-0.0272862 0.094694 -0.995132 
-0.0172646 0.0734299 -0.997151 
-0.0106525 0.0566234 -0.998339 
-0.00641932 0.0430153 -0.999054 
-0.00466956 0.0318485 -0.999482 
-0.00311358 0.0248998 -0.999685 
-0.00178127 0.0188407 -0.999821 
-0.000760096 0.014108 -0.9999 
-7.72447e-05 0.0104409 -0.999945 
0.000207371 0.00796437 -0.999968 
0.000299217 0.00619119 -0.999981 
0.000329798 0.00489841 -0.999988 
0.000262154 0.00380208 -0.999993 
0.000236505 0.00297914 -0.999996 
0.000182966 0.00228062 -0.999997 
0.000128213 0.00174885 -0.999998 
5.26984e-05 0.00131409 -0.999999 
-2.11034e-05 0.000972731 -1 
-9.8091e-05 0.000687475 -1 
-0.000140806 0.000433708 -1 
-0.000135858 0.000217755 -1 
-8.57383e-05 -1.83747e-05 -1 
6.14808e-06 -0.000191612 -1 
0.000113071 -0.000296688 -1 
0.000200095 -0.000370072 -1 
0.000277988 -0.000366875 -1 
0.00032214 -0.000360616 -1 
0.000368727 -0.000355127 -1 
0.000434415 -0.000456621 -1 
0.0032073 -0.00365452 -0.999988 
0.0533799 -0.0680406 -0.996253 
-0.0300241 -0.0662238 0.997353 
-0.00141869 -0.00299796 0.999994 
-0.000414946 -0.000493708 1 
-0.000291491 -0.000344796 1 
-0.00029025 -0.000364775 1 
-0.000238943 -0.000400433 1 
-0.000189869 -0.000411796 1 
-0.000100544 -0.000387988 1 
-1.39204e-05 -0.000276946 1 
7.88691e-05 -0.000138757 1 
0.000143351 4.49404e-05 1 
0.000170781 0.000308622 1 
0.000146798 0.000586644 1 
8.92791e-05 0.000902501 1 
3.0173e-05 0.00125541 0.999999 
-1.13874e-05 0.00172829 0.999999 
-3.10022e-05 0.00224671 0.999997 
-2.51555e-05 0.00292358 0.999996 
-4.26357e-06 0.0036632 0.999993 
2.84471e-05 0.00456386 0.99999 
0.000109975 0.0056212 0.999984 
0.000266599 0.00705231 0.999975 
0.000594533 0.0089063 0.99996 
0.00116998 0.0116315 0.999932 
0.0020736 0.0154548 0.999878 
0.00342334 0.0207153 0.99978 
0.00529344 0.0270882 0.999619 
0.00815037 0.0347277 0.999364 
0.0127326 0.0437317 0.998962 
0.0202329 0.0545515 0.998306 
0.032064 0.0655742 0.997332 
0.0499712 0.0756855 0.995879 
0.077629 0.0920785 0.992721 
0.115793 0.0999814 0.988229 
0.15984 0.13781 0.977476 
0.179526 0.256451 0.949739 
0.204194 0.394445 0.895945 
0.191118 0.673346 0.714198 
0.191183 0.806972 0.55879 
0.0641171 0.981337 0.181292 
-0.183749 0.840733 -0.509318 
-0.235873 0.452959 -0.859763 
-0.299733 0.289606 -0.909004 
-0.181075 0.152515 -0.971571 
-0.137274 0.113052 -0.984061 
-0.100829 0.0884228 -0.990967 
-0.0732842 0.0901555 -0.993228 
-0.0519512 0.076742 -0.995697 
-0.0372991 0.0785299 -0.996214 
-0.0259108 0.0627016 -0.997696 
-0.0173546 0.0504965 -0.998573 
-0.0115165 0.0406612 -0.999107 
-0.00808909 0.0314348 -0.999473 
-0.0055424 0.0238834 -0.999699 
-0.00340922 0.0188624 -0.999816 
-0.0017907 0.0140996 -0.999899 
-0.00075556 0.0106772 -0.999943 
-0.000249984 0.00813426 -0.999967 
-3.81844e-05 0.00640415 -0.999979 
3.78152e-05 0.0050717 -0.999987 
5.38485e-05 0.00407372 -0.999992 
5.26734e-05 0.00316063 -0.999995 
5.86526e-05 0.00248011 -0.999997 
3.58606e-05 0.00189446 -0.999998 
-4.28617e-06 0.00143414 -0.999999 
-6.5824e-05 0.00103223 -0.999999 
-0.000127492 0.000709947 -1 
-0.00016472 0.000412951 -1 
-0.000156674 0.000147579 -1 
-0.000107499 -6.76427e-05 -1 
-1.27965e-05 -0.000258121 -1 
9.01651e-05 -0.000362411 -1 
0.000184554 -0.000415005 -1 
0.000256441 -0.000393313 -1 
0.000276082 -0.000360201 -1 
0.000312151 -0.000349328 -1 
0.000326312 -0.000413913 -1 
0.00169015 -0.00256235 -0.999995 
0.0412397 -0.0714242 -0.996593 
-0.0109552 -0.0629436 0.997957 
-0.000515829 -0.0030033 0.999995 
-0.000290022 -0.000414114 1 
-0.000218581 -0.000316779 1 
-0.000243883 -0.000352107 1 
-0.000208646 -0.000405813 1 
-0.000171271 -0.000447223 1 
-9.66167e-05 -0.000445594 1 
-5.20913e-06 -0.000341837 1 
7.24035e-05 -0.000220055 1 
0.000146891 1.20803e-05 1 
0.00017478 0.000279155 1 
0.000162987 0.000592709 1 
0.000125409 0.000944775 1 
7.85322e-05 0.00137842 0.999999 
6.71434e-05 0.00185582 0.999998 
6.9024e-05 0.00241053 0.999997 
0.000102043 0.00303029 0.999995 
0.000139665 0.00376668 0.999993 
0.000195151 0.00460831 0.999989 
0.000304372 0.00566864 0.999984 
0.000522422 0.00692723 0.999976 
0.000951277 0.00863214 0.999962 
0.00169586 0.0110107 0.999938 
0.00288347 0.0144514 0.999891 
0.00459193 0.0188815 0.999811 
0.006903 0.0243286 0.99968 
0.010127 0.0301967 0.999493 
0.0150389 0.0369469 0.999204 
0.0225341 0.0439128 0.998781 
0.033414 0.0489257 0.998243 
0.0515607 0.0557629 0.997112 
0.0757122 0.0591692 0.995373 
0.103052 0.0496008 0.993438 
0.151392 0.0605199 0.986619 
0.218628 0.145393 0.964916 
0.258406 0.283204 0.923592 
0.354872 0.427047 0.831683 
0.260813 0.704358 0.660195 
-0.0139886 0.997464 -0.0697789 
-0.302521 0.69874 -0.648262 
-0.36557 0.426301 -0.827422 
-0.23599 0.202867 -0.950344 
-0.225831 0.0906373 -0.969941 
-0.160288 0.0625078 -0.985089 
-0.110234 0.0492832 -0.992683 
-0.0751352 0.0555429 -0.995625 
-0.054172 0.054283 -0.997055 
-0.0355792 0.0532569 -0.997947 
-0.0242992 0.0449184 -0.998695 
-0.0167652 0.0373424 -0.999162 
-0.0119162 0.0309022 -0.999451 
-0.00831198 0.0245785 -0.999663 
-0.00537469 0.0190206 -0.999805 
-0.00316009 0.0151437 -0.99988 
-0.00163412 0.0114385 -0.999933 
-0.000776226 0.00893228 -0.99996 
-0.000367326 0.00702544 -0.999975 
-0.000189162 0.0056604 -0.999984 
-0.000129536 0.00460027 -0.999989 
-8.38515e-05 0.00370711 -0.999993 
-6.40639e-05 0.00292744 -0.999996 
-3.97668e-05 0.00230188 -0.999997 
-4.82272e-05 0.00176453 -0.999998 
-7.73856e-05 0.00129141 -0.999999 
-0.000125699 0.000892332 -1 
-0.000164513 0.000533501 -1 
-0.000170195 0.000226183 -1 
-0.000132467 -4.04431e-05 -1 
-6.39369e-05 -0.000240174 -1 
2.47022e-05 -0.00038843 -1 
0.000100019 -0.000435337 -1 
0.000162109 -0.000458421 -1 
0.000214338 -0.000416443 -1 
0.000227933 -0.00035955 -1 
0.000239367 -0.000328166 -1 
0.000232681 -0.000436519 -1 
0.0014508 -0.00386382 -0.999991 
0.0177925 -0.0753911 -0.996995 
0.0100902 -0.0526575 0.998562 
0.000418564 -0.0022149 0.999997 
-0.00017497 -0.000391988 1 
-0.000150494 -0.000272654 1 
-0.000192241 -0.000334209 1 
-0.000174357 -0.000406353 1 
-0.000158863 -0.000471335 1 
-0.00010962 -0.000500419 1 
-3.58148e-05 -0.000436479 1 
3.9225e-05 -0.00032316 1 
0.000116824 -0.000103392 1 
0.000157724 0.000155737 1 
0.000170388 0.000488357 1 
0.000156688 0.000870636 1 
0.000129091 0.00131106 0.999999 
0.000120301 0.00178916 0.999998 
0.000124043 0.00234391 0.999997 
0.00015002 0.00296733 0.999996 