# vtk DataFile Version 3.0 
Exported using Morpho https://github.com/Morpho-lang/morpho 
ASCII 
DATASET UNSTRUCTURED_GRID 

POINTS 1978 float 
-8.48528 -2.82843 -2.3906e-14 
-8.26042 -2.82843 4.70413e-15 
-8.03161 -2.82843 -1.8834e-17 
-7.79436 -2.82843 3.17265e-18 
-7.5146 -2.82843 9.27137e-17 
-7.25681 -2.82843 1.89767e-16 
-7.00966 -2.82843 1.73203e-16 
-6.79522 -2.82843 8.71794e-17 
-6.5736 -2.82843 1.14375e-16 
-6.36876 -2.82843 1.40337e-16 
-6.14974 -2.82843 -7.85348e-17 
-5.92242 -2.82843 -8.95354e-17 
-5.70798 -2.82843 -1.20009e-16 
-5.5092 -2.82843 -3.05094e-16 
-5.28218 -2.82843 -3.51018e-16 
-5.08096 -2.82843 -4.44769e-16 
-4.86359 -2.82843 -3.58757e-16 
-4.66295 -2.82843 -7.87498e-16 
-4.44746 -2.82843 -1.16597e-15 
-4.23948 -2.82843 -1.38368e-15 
-4.02634 -2.82843 -1.15381e-15 
-3.82658 -2.82843 -1.72338e-15 
-3.61495 -2.82843 -2.94697e-15 
-3.40377 -2.82843 -5.64203e-15 
-3.17998 -2.82843 -1.02597e-14 
-2.95727 -2.82843 -2.48949e-14 
-2.73031 -2.82843 -6.03071e-14 
-2.50353 -2.82843 -1.43522e-13 
-2.28309 -2.82843 -3.22417e-13 
-2.0821 -2.82843 -8.25057e-13 
-1.88933 -2.82843 -1.69401e-12 
-1.7007 -2.82843 -3.36506e-12 
-1.53371 -2.82843 -6.19148e-12 
-1.37285 -2.82843 -9.79632e-12 
-1.23449 -2.82843 -1.24771e-11 
-1.10505 -2.82843 -2.28596e-11 
-0.966664 -2.82843 -3.9033e-11 
-0.804423 -2.82843 -2.27186e-11 
-0.636548 -2.82843 1.44047e-10 
-0.453822 -2.82843 -1.82982e-09 
0.680692 -2.82843 -1.23764e-09 
0.806368 -2.82843 -7.54602e-11 
0.950419 -2.82843 -1.08272e-11 
1.07337 -2.82843 1.47818e-11 
1.2318 -2.82843 2.45983e-11 
1.36428 -2.82843 1.18323e-11 
1.54019 -2.82843 9.06659e-12 
1.70182 -2.82843 3.87995e-12 
1.87353 -2.82843 2.0241e-12 
2.07839 -2.82843 9.48963e-13 
2.27078 -2.82843 3.77518e-13 
2.47831 -2.82843 1.74911e-13 
2.68778 -2.82843 7.56909e-14 
2.9322 -2.82843 3.3486e-14 
3.16824 -2.82843 1.41918e-14 
3.39829 -2.82843 6.96439e-15 
3.62196 -2.82843 2.92309e-15 
3.82983 -2.82843 1.39749e-15 
4.04315 -2.82843 1.41879e-15 
4.2634 -2.82843 1.57194e-15 
4.45838 -2.82843 1.14023e-15 
4.67125 -2.82843 8.01839e-16 
4.87038 -2.82843 3.29869e-16 
5.07971 -2.82843 2.86661e-16 
5.28498 -2.82843 3.48404e-16 
5.50272 -2.82843 3.51469e-16 
5.70633 -2.82843 1.66982e-16 
5.92587 -2.82843 8.59466e-17 
6.14849 -2.82843 3.66052e-17 
6.35043 -2.82843 -6.23593e-17 
6.58715 -2.82843 -7.79604e-17 
6.80124 -2.82843 -1.06209e-16 
7.00322 -2.82843 -2.29701e-16 
7.26999 -2.82843 -1.44627e-16 
7.50196 -2.82843 -8.26761e-17 
7.73969 -2.82843 4.21985e-17 
8.02021 -2.82843 7.9685e-17 
8.20512 -2.82843 -1.03192e-14 
8.48528 -2.82843 -7.67195e-13 
-8.48528 -2.59068 2.3367e-13 
-8.25694 -2.59209 1.52782e-11 
-8.02732 -2.58759 -1.09615e-17 
-7.77012 -2.60916 -4.45907e-19 
-7.51314 -2.63464 2.79139e-18 
-7.2463 -2.6246 -2.53533e-18 
-6.99444 -2.60032 -4.07512e-18 
-6.76468 -2.60155 5.05407e-19 
-6.53906 -2.58363 2.11728e-18 
-6.31559 -2.59415 -7.23183e-19 
-6.08433 -2.60273 -7.41671e-19 
-5.86387 -2.59041 1.10486e-19 
-5.65625 -2.57179 4.03859e-19 
-5.43506 -2.60678 2.11945e-18 
-5.22421 -2.57923 4.20857e-18 
-5.00764 -2.60063 8.5445e-18 
-4.79796 -2.58316 1.70424e-17 
-4.58204 -2.60219 3.84976e-17 
-4.36481 -2.59353 -1.29108e-16 
-4.14754 -2.59904 -2.87734e-16 
-3.93582 -2.58129 -1.2787e-14 
-3.72233 -2.59155 -2.65526e-14 
-3.5014 -2.58574 -6.02868e-14 
-3.27303 -2.59431 -1.45156e-13 
-3.03712 -2.58995 -3.83251e-13 
-2.79885 -2.59514 -1.13961e-12 
-2.55623 -2.6004 -3.72515e-12 
-2.31424 -2.60278 -1.20302e-11 
-2.08078 -2.59766 -3.7674e-11 
-1.87026 -2.60724 -9.67495e-11 
-1.66607 -2.6092 -2.50546e-10 
-1.48315 -2.62453 -5.72044e-10 
-1.31514 -2.62095 -1.23734e-09 
-1.16937 -2.63272 -2.54492e-09 
-1.00882 -2.68657 -4.07072e-09 
-0.974537 -2.55236 -2.12225e-09 
-0.827266 -2.70243 -8.48804e-09 
-0.618742 -2.68885 -5.87498e-09 
-0.31567 -2.69147 -8.49052e-10 
-0.219294 -2.80353 3.01689e-08 
0.530906 -2.76496 1.14561e-08 
0.69053 -2.62845 7.22068e-09 
0.847886 -2.66036 6.72187e-09 
0.99609 -2.62045 5.32038e-09 
1.14867 -2.66201 3.2286e-09 
1.30243 -2.60484 1.70077e-09 
1.4617 -2.63537 8.16627e-10 
1.64253 -2.59884 3.49662e-10 
1.82039 -2.59984 1.47769e-10 
2.02996 -2.62329 5.2211e-11 
2.26271 -2.58699 1.91849e-11 
2.47942 -2.5822 6.16066e-12 
2.72239 -2.60633 1.89109e-12 
2.96559 -2.59661 5.9885e-13 
3.20076 -2.59444 2.19039e-13 
3.43067 -2.59201 8.16494e-14 
3.64659 -2.58144 3.59051e-14 
3.86453 -2.59179 1.72962e-14 
4.08952 -2.60302 3.75397e-16 
4.29421 -2.57693 1.76633e-16 
4.50917 -2.59993 -5.32434e-17 
4.71681 -2.58362 -2.02429e-17 
4.92923 -2.59482 -1.22063e-17 
5.14143 -2.58918 -5.78266e-18 
5.36137 -2.60155 -2.33119e-18 
5.57503 -2.58356 -3.09067e-19 
5.79383 -2.59935 -1.5634e-18 
6.02132 -2.60048 9.2262e-20 
6.23781 -2.57444 -1.11623e-19 
6.45981 -2.60976 -3.39708e-20 
6.68805 -2.58413 2.18883e-19 
6.89926 -2.56659 1.54682e-19 
7.12927 -2.62936 4.23471e-19 
7.38065 -2.59718 1.03681e-18 
7.61483 -2.60386 3.1373e-20 
7.87364 -2.63655 2.09909e-19 
8.08043 -2.53671 -1.63408e-18 
8.30088 -2.63219 -6.2333e-11 
8.48528 -2.53245 -1.75759e-12 
-8.48528 -2.3481 -1.33793e-12 
-8.25462 -2.35375 9.39176e-12 
-8.0127 -2.35378 -8.2238e-18 
-7.76952 -2.39754 -2.13269e-19 
-7.56242 -2.22858 -3.93109e-20 
-7.49132 -2.4311 -1.19543e-19 
-7.21375 -2.42098 -7.6672e-20 
-6.97943 -2.36401 -1.09384e-20 
-6.74244 -2.37378 2.0007e-20 
-6.50736 -2.35136 3.43964e-20 
-6.27091 -2.37171 6.00405e-20 
-6.04789 -2.36518 1.76397e-19 
-5.83171 -2.34375 1.61926e-19 
-5.59271 -2.35381 3.60134e-19 
-5.3831 -2.36155 8.16979e-19 
-5.14948 -2.35707 2.11401e-18 
-4.93976 -2.35757 4.84473e-18 
-4.71197 -2.36243 1.19891e-17 
-4.49675 -2.37166 2.73031e-17 
-4.27247 -2.36731 -1.0954e-16 
-4.06277 -2.35502 -2.14073e-16 
-3.84353 -2.34704 -4.7312e-16 
-3.63038 -2.35307 -2.23368e-14 
-3.40269 -2.35547 -5.91164e-14 
-3.17624 -2.35927 -1.55509e-13 
-2.94145 -2.35784 -4.34183e-13 
-2.7051 -2.36835 -1.29582e-12 
-2.46752 -2.3773 -3.73649e-12 
-2.23535 -2.37737 -9.46451e-12 
-2.00913 -2.37811 -2.10849e-11 
-1.80189 -2.4026 -4.42011e-11 
-1.60738 -2.39957 -6.6241e-11 
-1.43258 -2.4256 -1.7481e-10 
-1.2698 -2.41328 -6.0977e-11 
-1.11992 -2.46209 -9.27573e-11 
-0.849858 -2.46452 -7.6493e-10 
-0.762972 -2.59238 -3.41634e-09 
-0.592708 -2.52158 -4.62623e-09 
-0.468268 -2.63485 -2.68291e-09 
-0.0891978 -2.67299 1.4985e-09 
0.266253 -2.85011 1.52544e-09 
0.460142 -2.65718 2.24514e-09 
0.808775 -2.48352 2.91283e-09 
0.956645 -2.45627 4.36604e-10 
1.14075 -2.47609 6.71239e-10 
1.26662 -2.38578 -4.91751e-11 
1.41982 -2.41846 2.11176e-10 
1.58252 -2.40346 6.94909e-11 
1.7718 -2.36355 2.10164e-11 
1.96634 -2.40881 3.32139e-11 
2.18163 -2.39354 1.28644e-11 
2.41818 -2.34607 4.20471e-12 
2.65266 -2.37333 1.66654e-12 
2.88736 -2.37194 6.73526e-13 
3.12868 -2.35997 2.20923e-13 
3.35656 -2.35838 8.17226e-14 
3.57884 -2.34127 3.1145e-14 
3.7973 -2.35217 1.31286e-14 
4.0164 -2.37415 3.11352e-16 
4.22593 -2.34137 1.33977e-16 
4.44443 -2.36221 -3.06612e-17 
4.64997 -2.34974 -1.39688e-17 
4.86498 -2.35744 -6.01198e-18 
5.0747 -2.35523 -2.88147e-18 
5.29305 -2.36946 -1.24679e-18 
5.50517 -2.35206 -6.1248e-19 
5.72723 -2.36118 -2.68887e-19 
5.94579 -2.37361 -1.45562e-19 
6.16439 -2.34499 -7.73734e-20 
6.39832 -2.3634 -1.0761e-19 
6.61044 -2.36244 -1.42422e-20 
6.83568 -2.32073 2.28898e-21 
7.06893 -2.37976 2.79583e-20 
7.28861 -2.39686 8.01282e-20 
7.54699 -2.36916 9.26434e-20 
7.78741 -2.41692 2.64803e-19 
8.0005 -2.32041 -3.17253e-17 
8.2643 -2.36332 7.31862e-11 
8.48528 -2.28028 2.91983e-12 
-8.48528 -2.10868 2.59029e-12 
-8.25382 -2.10508 5.37252e-11 
-8.04362 -2.11494 -1.90447e-19 
-7.80363 -2.15672 2.43069e-21 
-7.49686 -2.02668 -1.18481e-20 
-7.29664 -2.22883 -6.06364e-20 
-7.05758 -2.14956 -1.72276e-20 
-6.80502 -2.14283 -3.80466e-21 
-6.58422 -2.13135 -3.08718e-21 
-6.34136 -2.13957 -5.61182e-20 
-6.12171 -2.12811 -9.95525e-21 
-5.91022 -2.10893 -5.51493e-20 
-5.6851 -2.13362 -1.527e-20 
-5.46293 -2.11246 -9.15049e-20 
-5.25266 -2.13927 -5.09671e-20 
-5.03575 -2.11482 -1.38208e-19 
-4.82202 -2.13756 -7.09414e-20 
-4.60524 -2.13352 -2.11594e-19 
-4.39339 -2.14573 -9.65846e-19 
-4.18497 -2.12132 -6.76256e-18 
-3.97481 -2.1199 -1.98269e-17 
-3.76183 -2.10745 -4.65533e-17 
-3.5451 -2.12388 2.11311e-16 
-3.32282 -2.11957 5.52907e-16 
-3.09742 -2.1251 3.1888e-14 
-2.86418 -2.12745 1.13258e-13 
-2.63101 -2.1412 3.74661e-13 
-2.39854 -2.15056 1.13726e-12 
-2.16946 -2.15656 3.13339e-12 
-1.95005 -2.16233 7.21473e-12 
-1.75437 -2.18782 9.23176e-12 
-1.58984 -2.14224 3.70945e-11 
-1.44213 -2.21562 6.83608e-11 
-1.3022 -2.17769 5.4071e-11 
-1.15208 -2.24847 1.34269e-10 
-0.995055 -2.36711 -3.67872e-10 
-0.680712 -2.42397 -1.79431e-09 
-0.501608 -2.319 2.5207e-10 
-0.265267 -2.54468 -4.32441e-09 
0.0664549 -2.76144 2.76085e-09 
0.433245 -2.50175 7.2537e-09 
0.629195 -2.49754 1.62698e-09 
0.761696 -2.32075 5.59085e-10 
0.983426 -2.32204 -1.4212e-10 
1.11105 -2.25637 -1.60583e-10 
1.262 -2.17587 -1.03365e-10 
1.42721 -2.1987 -1.3776e-10 
1.60051 -2.1813 -5.31455e-11 
1.80972 -2.15581 -2.57234e-12 
2.0115 -2.18925 -1.11016e-11 
2.23071 -2.16792 -5.95852e-13 
2.47905 -2.12671 -4.88145e-13 
2.70762 -2.13787 -1.08609e-13 
2.94533 -2.14226 -4.25389e-14 
3.17335 -2.12014 -1.53166e-14 
3.39642 -2.11881 -3.5265e-16 
3.6193 -2.10665 -1.82196e-16 
3.84094 -2.12507 2.58275e-17 
4.04742 -2.13042 1.05954e-17 
4.27541 -2.11947 6.77719e-18 
4.47981 -2.11902 2.07762e-18 
4.69724 -2.12112 8.11125e-19 
4.90756 -2.11998 2.83117e-19 
5.12759 -2.12966 1.1985e-19 
5.33662 -2.12852 8.07009e-20 
5.56144 -2.12576 3.24277e-20 
5.78146 -2.13016 1.7079e-20 
5.99517 -2.13196 -1.03966e-20 
6.23679 -2.12947 3.26879e-20 
6.45018 -2.11427 -6.39506e-21 
6.66502 -2.1179 1.78078e-20 
6.92451 -2.11458 -1.59839e-20 
7.14067 -2.1406 1.94401e-20 
7.37149 -2.17933 3.42709e-20 
7.56517 -2.0833 1.03598e-20 
7.75015 -2.1822 1.81517e-20 
7.96317 -2.08191 -1.68829e-18 
8.1939 -2.14409 -1.88395e-13 
8.48528 -2.09886 6.41191e-13 
-8.48528 -1.80256 -2.54829e-13 
-8.31098 -1.86424 -4.47967e-11 
-7.89615 -1.91006 6.54903e-20 
[...]
POINT_DATA 1978 
VECTORS vectors float
-0.00217497 -0.0117592 0.999928 
0.000731805 -0.000736095 0.999999 
-0.00020781 -0.000454947 1 
5.24339e-05 -0.000339011 1 
-6.72455e-06 -0.00022299 1 
3.4348e-06 -9.14025e-05 1 
1.03645e-06 3.31761e-05 1 
4.02567e-07 0.000156948 1 
3.31013e-07 0.000280807 1 
2.26233e-07 0.000397716 1 
5.16716e-07 0.00050816 1 
4.47986e-07 0.0006112 1 
4.95041e-07 0.000713917 1 
5.9508e-07 0.000842434 1 
1.04803e-06 0.00107227 0.999999 
4.81291e-07 0.00140186 0.999999 
1.2352e-06 0.00187551 0.999998 
1.45059e-06 0.00240861 0.999997 
2.62266e-06 0.00314785 0.999995 
1.98411e-06 0.00415788 0.999991 
1.72836e-06 0.0055445 0.999985 
2.14527e-06 0.00716808 0.999974 
6.04789e-06 0.00929545 0.999957 
1.21163e-05 0.0120251 0.999928 
2.397e-05 0.0156602 0.999877 
4.14097e-05 0.0202989 0.999794 
6.11956e-05 0.0274916 0.999622 
6.81069e-05 0.0390583 0.999237 
4.07014e-05 0.0558534 0.998439 
-2.69717e-05 0.0786969 0.996899 
-7.06748e-05 0.108057 0.994145 
-0.000220875 0.146131 0.989265 
-0.000426431 0.19475 0.980853 
-0.000581774 0.25622 0.966618 
-0.000872389 0.323289 0.9463 
-0.00101556 0.397933 0.917414 
-0.000968399 0.487489 0.873129 
-0.00110275 0.619325 0.785134 
-0.000803252 0.76823 0.640174 
0.00216084 0.924179 0.381953 
0.000548334 0.831733 -0.555176 
0.00183232 0.706182 -0.708028 
0.000876246 0.578838 -0.815442 
0.00134533 0.475333 -0.879805 
0.000898534 0.3548 -0.934942 
0.000715583 0.27966 -0.960099 
0.000386709 0.201717 -0.979444 
0.000306483 0.151965 -0.988386 
7.90423e-05 0.114949 -0.993371 
4.20915e-05 0.0841488 -0.996453 
-9.7377e-07 0.0606514 -0.998159 
-3.29103e-05 0.0434023 -0.999058 
-5.45193e-05 0.031503 -0.999504 
-6.88969e-05 0.0225426 -0.999746 
-3.88032e-05 0.0165328 -0.999863 
-2.14443e-05 0.0121849 -0.999926 
-9.63507e-06 0.00926216 -0.999957 
-4.35568e-06 0.00719653 -0.999974 
-4.22475e-06 0.00543702 -0.999985 
-2.01062e-06 0.00396871 -0.999992 
-8.38436e-07 0.00301035 -0.999995 
-1.15682e-06 0.00232046 -0.999997 
-5.75471e-07 0.00185344 -0.999998 
-4.66509e-07 0.0014402 -0.999999 
-5.17434e-07 0.00109395 -0.999999 
-5.88014e-07 0.000836979 -1 
-5.83207e-07 0.000698447 -1 
-5.52482e-07 0.00060586 -1 
-3.21552e-07 0.000512608 -1 
-3.92536e-07 0.00041031 -1 
-4.7181e-07 0.000280252 -1 
-3.8886e-07 0.000158046 -1 
-1.19455e-06 4.24981e-05 -1 
-3.15821e-06 -9.92657e-05 -1 
9.13394e-06 -0.000217879 -1 
-6.20342e-05 -0.000331045 -1 
0.000198885 -0.00047107 -1 
-0.000760401 -0.000626165 -1 
0.00174902 -0.0175407 -0.999845 
-0.0664912 -0.0615923 0.995884 
-0.0030214 -0.00302051 0.999991 
-0.00041475 -0.000481034 1 
-0.000323317 -0.000334905 1 
-0.000272411 -0.000243055 1 
-0.000223448 -0.000125774 1 
-0.000182562 -1.41067e-05 1 
-0.00011406 0.000121856 1 
-7.31445e-05 0.000253517 1 
-5.09621e-05 0.000395918 1 
-6.40691e-05 0.000531182 1 
-0.000107533 0.000657677 1 
-0.000173388 0.000798321 1 
-0.000237878 0.000986885 0.999999 
-0.000357365 0.00128161 0.999999 
-0.000464572 0.00168211 0.999998 
-0.000645883 0.00222066 0.999997 
-0.000806689 0.00289356 0.999995 
-0.00105819 0.00382449 0.999992 
-0.00129911 0.00504717 0.999986 
-0.00164218 0.00664399 0.999977 
-0.00194838 0.00866608 0.999961 
-0.00252477 0.0114863 0.999931 
-0.00338004 0.015299 0.999877 
-0.00493702 0.0206325 0.999775 
-0.00704629 0.0282407 0.999576 
-0.00988619 0.0400946 0.999147 
-0.0134707 0.0581553 0.998217 
-0.0175035 0.0837895 0.99633 
-0.0211472 0.117699 0.992824 
-0.0254316 0.162658 0.986355 
-0.0293098 0.218688 0.975354 
-0.0329482 0.285997 0.957664 
-0.0335917 0.363317 0.93106 
-0.0311653 0.455142 0.889873 
-0.00197993 0.475615 0.879651 
-0.0244498 0.584741 0.810851 
-0.0041453 0.757426 0.652908 
0.0175702 0.922246 0.386205 
-0.00195813 0.977217 0.212235 
0.0081433 0.889152 -0.45754 
-0.0152726 0.750232 -0.660999 
0.0135564 0.634722 -0.772622 
0.0257273 0.512602 -0.858241 
0.0354482 0.40844 -0.912097 
0.035394 0.316369 -0.947976 
0.0325856 0.243179 -0.969434 
0.0291426 0.18097 -0.983057 
0.0247086 0.135758 -0.990434 
0.0180876 0.0961231 -0.995205 
0.0143897 0.0660793 -0.997711 
0.0115206 0.0476487 -0.998798 
0.00769829 0.032964 -0.999427 
0.00558897 0.0238738 -0.999699 
0.00392716 0.0175709 -0.999838 
0.0028342 0.0129206 -0.999913 
0.00227748 0.0097835 -0.99995 
0.00180607 0.00736776 -0.999971 
0.00143691 0.00547113 -0.999984 
0.00125328 0.00420473 -0.99999 
0.000919951 0.00313487 -0.999995 
0.000729499 0.00243487 -0.999997 
0.000527004 0.00187163 -0.999998 
0.000393493 0.00143646 -0.999999 
0.000271413 0.00108193 -0.999999 
0.000194988 0.00085333 -1 
0.000119841 0.000689382 -1 
7.39106e-05 0.000562993 -1 
5.78289e-05 0.000439196 -1 
6.31521e-05 0.00031124 -1 
0.000107188 0.000161529 -1 
0.000169223 3.0935e-05 -1 
0.000195093 -6.74333e-05 -1 
0.000279924 -0.000188586 -1 
0.000307719 -0.000281428 -1 
0.000292364 -0.000382 -1 
0.000496458 -0.000549307 -1 
0.0039171 -0.00436931 -0.999983 
0.0916639 -0.0889842 -0.991806 
-0.0729049 -0.0667745 0.995101 
-0.00340091 -0.00314754 0.999989 
-0.000544551 -0.000458046 1 
-0.000454393 -0.000335312 1 
-0.000430984 -0.000301529 1 
-0.000398677 -0.000254202 1 
-0.000319848 -0.000164737 1 
-0.000225256 -8.91559e-05 1 
-0.000128155 5.18093e-05 1 
-5.0254e-05 0.000205887 1 
-2.73509e-05 0.000382658 1 
-4.80179e-05 0.000538621 1 
-0.000102799 0.000694395 1 
-0.000203312 0.000896745 1 
-0.000307321 0.00113834 0.999999 
-0.000448495 0.00152496 0.999999 
-0.000604851 0.0020031 0.999998 
-0.000818878 0.00268097 0.999996 
-0.00105681 0.00350789 0.999993 
-0.00132165 0.00464351 0.999988 
-0.001569 0.00603568 0.999981 
-0.00186938 0.00793875 0.999967 
-0.00229854 0.0104145 0.999943 
-0.0030364 0.0140702 0.999896 
-0.00424824 0.0189731 0.999811 
-0.00608542 0.0258591 0.999647 
-0.00857318 0.0353643 0.999338 
-0.0114648 0.049122 0.998727 
-0.0141021 0.0689543 0.99752 
-0.0155907 0.0957584 0.995283 
-0.0162825 0.130653 0.991295 
-0.0131525 0.175479 0.984395 
-0.0121637 0.230347 0.973032 
0.000532139 0.288101 0.9576 
0.00172099 0.358741 0.933435 
0.0501756 0.548251 0.834807 
0.00514889 0.625866 0.779913 
0.0422978 0.763667 0.644223 
0.0383429 0.866129 0.498348 
0.0181144 0.9855 0.168704 
0.00377764 0.969131 -0.246519 
-0.0212704 0.886213 -0.462789 
-0.0449056 0.627672 -0.777182 
-0.0267711 0.514795 -0.856895 
0.00338229 0.397987 -0.917385 
-0.00547513 0.31245 -0.949918 
0.01122 0.249506 -0.968308 
0.014409 0.193127 -0.981068 
0.0131647 0.144458 -0.989423 
0.017497 0.109039 -0.993884 
0.0149905 0.077891 -0.996849 
0.0111036 0.0554576 -0.998399 
0.00904289 0.0394954 -0.999179 
0.00660919 0.028937 -0.999559 
0.00446368 0.021189 -0.999766 
0.00326136 0.015563 -0.999874 
0.00249641 0.0115159 -0.999931 
0.00209973 0.00855769 -0.999961 
0.00178325 0.00641086 -0.999978 
0.00144635 0.00494798 -0.999987 
0.00116843 0.00372407 -0.999992 
0.000904798 0.00288125 -0.999995 
0.00067778 0.00219304 -0.999997 
0.000498186 0.00168146 -0.999998 
0.000353891 0.00126918 -0.999999 
0.000236444 0.000986981 -0.999999 
0.000141938 0.000770641 -1 
7.47938e-05 0.000607839 -1 
3.1462e-05 0.00045588 -1 
4.20652e-05 0.000291842 -1 
8.66773e-05 0.000139521 -1 
0.000162787 -2.36198e-05 -1 
0.000266134 -0.000121639 -1 
0.00034927 -0.00020164 -1 
0.000418207 -0.000281097 -1 
0.000445299 -0.000344066 -1 
0.000525957 -0.000442894 -1 
0.00346347 -0.00344072 -0.999988 
0.0528728 -0.0544396 -0.997116 
-0.0973865 -0.0902083 0.99115 
-0.00411426 -0.0038199 0.999984 
-0.000578577 -0.00048968 1 
-0.000459099 -0.000347148 1 
-0.00038724 -0.000321674 1 
-0.000352868 -0.000247081 1 
-0.000240723 -0.000201493 1 
-0.000117064 -7.16889e-05 1 
-2.50899e-05 7.43449e-05 1 
3.06869e-05 0.000271936 1 
3.53299e-05 0.000448959 1 
-2.51989e-06 0.00062155 1 
-9.41888e-05 0.000828521 1 
-0.000187141 0.00108363 0.999999 
-0.000302433 0.00140366 0.999999 
-0.000410706 0.00186446 0.999998 
-0.000564974 0.00244817 0.999997 
-0.000723126 0.00321744 0.999995 
-0.000904875 0.00416074 0.999991 
-0.00101763 0.00535223 0.999985 
-0.00115646 0.0068854 0.999976 
-0.00127524 0.00894913 0.999959 
-0.00157643 0.0118724 0.999928 
-0.00196916 0.0160506 0.999869 
-0.00271434 0.0217572 0.99976 
-0.00367537 0.0294723 0.999559 
-0.00482859 0.0397116 0.9992 
-0.00558565 0.0538889 0.998531 
-0.00486348 0.0730935 0.997313 
-0.00220706 0.0990336 0.995082 
0.00278749 0.131456 0.991318 
0.0177324 0.157656 0.987335 
0.0203173 0.204897 0.978573 
0.0411551 0.245042 0.968639 
0.0556225 0.314153 0.947742 
0.0416396 0.415083 0.90883 
0.0768645 0.675052 0.733755 
0.148179 0.749143 0.645622 
0.051161 0.941452 0.333242 
0.00446525 0.998494 -0.0546778 
-0.0646143 0.874025 -0.481565 
-0.0689158 0.749245 -0.658698 
-0.116901 0.567974 -0.814702 
-0.0663751 0.439497 -0.895788 
-0.0599481 0.350191 -0.934758 
-0.0501664 0.266859 -0.962429 
-0.0251753 0.218231 -0.975572 
-0.0127409 0.170165 -0.985333 
-0.00422 0.126826 -0.991916 
0.00479352 0.0969221 -0.99528 
0.00548736 0.0712784 -0.997441 
0.004574 0.0501973 -0.998729 
0.00393686 0.0371203 -0.999303 
0.00302435 0.0276047 -0.999614 
0.00207049 0.0206334 -0.999785 
0.00173881 0.0152731 -0.999882 
0.00151113 0.011195 -0.999936 
0.0014274 0.00830245 -0.999965 
0.00126477 0.00639113 -0.999979 
0.00104452 0.00482389 -0.999988 
0.000861653 0.00374687 -0.999993 
0.000673434 0.00285421 -0.999996 
0.000506227 0.00218877 -0.999997 
0.000362799 0.00164689 -0.999999 
0.000243508 0.00126217 -0.999999 
0.00013443 0.000956725 -1 
4.86681e-05 0.000733499 -1 
-1.00442e-05 0.000552673 -1 
-3.32231e-05 0.000355063 -1 
-8.2871e-06 0.00017458 -1 
6.04984e-05 1.02229e-05 -1 
0.000174994 -0.000152444 -1 
0.000277689 -0.000231165 -1 
0.000370775 -0.000278669 -1 
0.000407285 -0.000320904 -1 
0.000451688 -0.000338036 -1 
0.00048854 -0.000403081 -1 
0.00172149 -0.00161994 -0.999997 
0.0559268 -0.0524058 -0.997059 
-0.0828501 -0.0954446 0.991981 
-0.00593362 -0.00646447 0.999962 
-0.000431826 -0.00037106 1 
-0.000402589 -0.000344157 1 
-0.000325205 -0.000353112 1 
-0.000312128 -0.000306637 1 
-0.000240176 -0.000325807 1 
-0.000158163 -0.000225367 1 
-4.309e-05 -0.00011993 1 
4.72719e-05 7.27774e-05 1 
9.9978e-05 0.000259814 1 
0.000101105 0.0004529 1 
3.97635e-05 0.000685674 1 
-4.68083e-05 0.00092924 1 
-0.000140076 0.00125729 0.999999 
-0.000227806 0.00164209 0.999999 
-0.000318895 0.0022135 0.999997 
-0.000420947 0.00289059 0.999996 
-0.000515665 0.00377403 0.999993 
-0.000570314 0.0047954 0.999988 
-0.000588234 0.00614137 0.999981 
-0.000568038 0.0078465 0.999969 
-0.000537763 0.0103867 0.999946 
-0.000488823 0.0138891 0.999903 
-0.000425748 0.0189545 0.99982 
-0.000386146 0.0256338 0.999671 
-0.000114941 0.0343109 0.999411 
0.000691184 0.0454998 0.998964 
0.00317145 0.0604196 0.998168 
0.00806852 0.0802853 0.996739 
0.0167313 0.104115 0.994425 
0.0335662 0.124911 0.9916 
0.0484715 0.162123 0.985579 
0.0744333 0.194481 0.978078 
0.0937001 0.25297 0.962926 
0.0920577 0.391658 0.915494 
0.109622 0.534452 0.838059 
0.172434 0.615088 0.769372 
0.091744 0.845655 0.525785 
0.0301087 0.989141 0.143851 
-0.0273742 0.961271 -0.274242 
-0.13654 0.738149 -0.660677 
-0.145978 0.452441 -0.879765 
-0.132025 0.35059 -0.927176 
-0.102918 0.273772 -0.956272 
-0.0858318 0.204891 -0.975014 
-0.0553432 0.185712 -0.981044 
-0.0388002 0.148569 -0.988141 
-0.0226457 0.121025 -0.992391 
-0.00909744 0.0917769 -0.995738 
-0.00445672 0.0699138 -0.997543 
-0.00176279 0.0523251 -0.998629 
-0.0011615 0.0378725 -0.999282 
-0.000418965 0.0288584 -0.999583 
-0.000261454 0.021832 -0.999762 
0.000208685 0.0162034 -0.999869 
0.000532286 0.0120018 -0.999928 
0.000742275 0.00889165 -0.99996 
0.000733822 0.00681063 -0.999977 
0.000709844 0.00531581 -0.999986 
0.000568362 0.00408863 -0.999991 
0.000486142 0.00317955 -0.999995 
0.000367964 0.00243868 -0.999997 
0.000274544 0.00185109 -0.999998 
0.000169166 0.00140507 -0.999999 
8.10288e-05 0.00106536 -0.999999 
-1.11523e-05 0.000789622 -1 
-7.61709e-05 0.000566572 -1 
-9.31842e-05 0.000363878 -1 
-7.54046e-05 0.000139509 -1 
-4.69712e-06 -4.60369e-05 -1 
0.000100108 -0.000178855 -1 
0.000214569 -0.000290978 -1 
0.000310069 -0.000320373 -1 
0.000362732 -0.000343709 -1 
0.000414487 -0.000351737 -1 
0.000517637 -0.000475329 -1 
0.00362817 -0.00353689 -0.999987 
0.0748074 -0.0743843 -0.99442 
-0.047794 -0.0724908 0.996223 
-0.00265186 -0.00372961 0.99999 
-0.000610398 -0.000607942 1 
-0.000368464 -0.000367918 1 
-0.00034851 -0.000352948 1 
-0.000263416 -0.000378831 1 
-0.00016626 -0.000350256 1 
-8.20443e-05 -0.000272116 1 
3.38514e-05 -0.000113416 1 
0.000110201 6.11259e-05 1 
0.000149878 0.000259417 1 
0.000131486 0.000513445 1 
7.10958e-05 0.000773191 1 
-1.18741e-05 0.0010739 0.999999 
-7.48033e-05 0.00145193 0.999999 
-0.000141049 0.00190949 0.999998 
-0.000175808 0.00251764 0.999997 
-0.000222659 0.00323717 0.999995 
-0.000225939 0.00407734 0.999992 
-0.000219755 0.00511513 0.999987 
-0.00013804 0.00637915 0.99998 
-1.58668e-05 0.00813502 0.999967 
0.000258025 0.0104921 0.999945 
0.000658977 0.0139554 0.999902 
0.00131809 0.0187347 0.999824 
0.00217002 0.0249915 0.999685 
0.00356597 0.0326061 0.999462 
0.00583288 0.042065 0.999098 
0.00995469 0.0540241 0.99849 
0.0169459 0.0689691 0.997475 
0.0278596 0.0860978 0.995897 
0.0462383 0.0999188 0.993921 
0.0675514 0.127436 0.989544 
0.0988394 0.146597 0.984246 
0.129454 0.195608 0.9721 
0.128994 0.309828 0.942002 
0.152234 0.440991 0.884507 
0.24596 0.544129 0.80214 
0.110023 0.908869 0.402308 
-0.00409506 0.997751 -0.0669053 
-0.0879755 0.919165 -0.383921 
-0.213129 0.615396 -0.758857 
-0.209797 0.327352 -0.921318 
-0.164127 0.250302 -0.954155 
-0.129581 0.187985 -0.973586 
-0.0994335 0.139866 -0.985165 
-0.070601 0.135248 -0.988293 
-0.049401 0.111601 -0.992524 
-0.0272862 0.094694 -0.995132 
-0.0172646 0.0734299 -0.997151 
-0.0106525 0.0566234 -0.998339 
-0.00641932 0.0430153 -0.999054 
-0.00466956 0.0318485 -0.999482 
-0.00311358 0.0248998 -0.999685 
-0.00178127 0.0188407 -0.999821 
-0.000760096 0.014108 -0.9999 
-7.72447e-05 0.0104409 -0.999945 
0.000207371 0.00796437 -0.999968 
0.000299217 0.00619119 -0.999981 
0.000329798 0.00489841 -0.999988 
0.000262154 0.00380208 -0.999993 
0.000236505 0.00297914 -0.999996 
0.000182966 0.00228062 -0.999997 
0.000128213 0.00174885 -0.999998 
5.26984e-05 0.00131409 -0.999999 
-2.11034e-05 0.000972731 -1 
-9.8091e-05 0.000687475 -1 
-0.000140806 0.000433708 -1 
-0.000135858 0.000217755 -1 
-8.57383e-05 -1.83747e-05 -1 
6.14808e-06 -0.000191612 -1 
0.000113071 -0.000296688 -1 
0.000200095 -0.000370072 -1 
0.000277988 -0.000366875 -1 
0.00032214 -0.000360616 -1 
0.000368727 -0.000355127 -1 
0.000434415 -0.000456621 -1 
0.0032073 -0.00365452 -0.999988 
0.0533799 -0.0680406 -0.996253 
-0.0300241 -0.0662238 0.997353 
-0.00141869 -0.00299796 0.999994 
-0.000414946 -0.000493708 1 
-0.000291491 -0.000344796 1 
-0.00029025 -0.000364775 1 
-0.000238943 -0.000400433 1 
-0.000189869 -0.000411796 1 
-0.000100544 -0.000387988 1 
-1.39204e-05 -0.000276946 1 
7.88691e-05 -0.000138757 1 
0.000143351 4.49404e-05 1 
0.000170781 0.000308622 1 
0.000146798 0.000586644 1 
8.92791e-05 0.000902501 1 
3.0173e-05 0.00125541 0.999999 
-1.13874e-05 0.00172829 0.999999 
-3.10022e-05 0.00224671 0.999997 
-2.51555e-05 0.00292358 0.999996 
-4.26357e-06 0.0036632 0.999993 
2.84471e-05 0.00456386 0.99999 
0.000109975 0.0056212 0.999984 
0.000266599 0.00705231 0.999975 
0.000594533 0.0089063 0.99996 
0.00116998 0.0116315 0.999932 
0.0020736 0.0154548 0.999878 
0.00342334 0.0207153 0.99978 
0.00529344 0.0270882 0.999619 
0.00815037 0.0347277 0.999364 
0.0127326 0.0437317 0.998962 
0.0202329 0.0545515 0.998306 
0.032064 0.0655742 0.997332 
0.0499712 0.0756855 0.995879 
0.077629 0.0920785 0.992721 
0.115793 0.0999814 0.988229 
0.15984 0.13781 0.977476 
0.179526 0.256451 0.949739 
0.204194 0.394445 0.895945 
0.191118 0.673346 0.714198 
0.191183 0.806972 0.55879 
0.0641171 0.981337 0.181292 
-0.183749 0.840733 -0.509318 
-0.235873 0.452959 -0.859763 
-0.299733 0.289606 -0.909004 
-0.181075 0.152515 -0.971571 
-0.137274 0.113052 -0.984061 
-0.100829 0.0884228 -0.990967 
-0.0732842 0.0901555 -0.993228 
-0.0519512 0.076742 -0.995697 
-0.0372991 0.0785299 -0.996214 
-0.0259108 0.0627016 -0.997696 
-0.0173546 0.0504965 -0.998573 
-0.0115165 0.0406612 -0.999107 
-0.00808909 0.0314348 -0.999473 
-0.0055424 0.0238834 -0.999699 
-0.00340922 0.0188624 -0.999816 
-0.0017907 0.0140996 -0.999899 
-0.00075556 0.0106772 -0.999943 
-0.000249984 0.00813426 -0.999967 
-3.81844e-05 0.00640415 -0.999979 
3.78152e-05 0.0050717 -0.999987 
5.38485e-05 0.00407372 -0.999992 
5.26734e-05 0.00316063 -0.999995 
5.86526e-05 0.00248011 -0.999997 
3.58606e-05 0.00189446 -0.999998 
-4.28617e-06 0.00143414 -0.999999 
-6.5824e-05 0.00103223 -0.999999 
-0.000127492 0.000709947 -1 
-0.00016472 0.000412951 -1 
-0.000156674 0.000147579 -1 
-0.000107499 -6.76427e-05 -1 
-1.27965e-05 -0.000258121 -1 
9.01651e-05 -0.000362411 -1 
0.000184554 -0.000415005 -1 
0.000256441 -0.000393313 -1 
0.000276082 -0.000360201 -1 
0.000312151 -0.000349328 -1 
0.000326312 -0.000413913 -1 
0.00169015 -0.00256235 -0.999995 
0.0412397 -0.0714242 -0.996593 
-0.0109552 -0.0629436 0.997957 
-0.000515829 -0.0030033 0.999995 
-0.000290022 -0.000414114 1 
-0.000218581 -0.000316779 1 
-0.000243883 -0.000352107 1 
-0.000208646 -0.000405813 1 
-0.000171271 -0.000447223 1 
-9.66167e-05 -0.000445594 1 
-5.20913e-06 -0.000341837 1 
7.24035e-05 -0.000220055 1 
0.000146891 1.20803e-05 1 
0.00017478 0.000279155 1 
0.000162987 0.000592709 1 
0.000125409 0.000944775 1 
7.85322e-05 0.00137842 0.999999 
6.71434e-05 0.00185582 0.999998 
6.9024e-05 0.00241053 0.999997 
0.000102043 0.00303029 0.999995 
0.000139665 0.00376668 0.999993 
0.000195151 0.00460831 0.999989 
0.000304372 0.00566864 0.999984 
0.000522422 0.00692723 0.999976 
0.000951277 0.00863214 0.999962 
0.00169586 0.0110107 0.999938 
0.00288347 0.0144514 0.999891 
0.00459193 0.0188815 0.999811 
0.006903 0.0243286 0.99968 
0.010127 0.0301967 0.999493 
0.0150389 0.0369469 0.999204 
0.0225341 0.0439128 0.998781 
0.033414 0.0489257 0.998243 
0.0515607 0.0557629 0.997112 
0.0757122 0.0591692 0.995373 
0.103052 0.0496008 0.993438 
0.151392 0.0605199 0.986619 
0.218628 0.145393 0.964916 
0.258406 0.283204 0.923592 
0.354872 0.427047 0.831683 
0.260813 0.704358 0.660195 
-0.0139886 0.997464 -0.0697789 
-0.302521 0.69874 -0.648262 
-0.36557 0.426301 -0.827422 
-0.23599 0.202867 -0.950344 
-0.225831 0.0906373 -0.969941 
-0.160288 0.0625078 -0.985089 
-0.110234 0.0492832 -0.992683 
-0.0751352 0.0555429 -0.995625 
-0.054172 0.054283 -0.997055 
-0.0355792 0.0532569 -0.997947 
-0.0242992 0.0449184 -0.998695 
-0.0167652 0.0373424 -0.999162 
-0.0119162 0.0309022 -0.999451 
-0.00831198 0.0245785 -0.999663 
-0.00537469 0.0190206 -0.999805 
-0.00316009 0.0151437 -0.99988 
-0.00163412 0.0114385 -0.999933 
-0.000776226 0.00893228 -0.99996 
-0.000367326 0.00702544 -0.999975 
-0.000189162 0.0056604 -0.999984 
-0.000129536 0.00460027 -0.999989 
-8.38515e-05 0.00370711 -0.999993 
-6.40639e-05 0.00292744 -0.999996 
-3.97668e-05 0.00230188 -0.999997 
-4.82272e-05 0.00176453 -0.999998 
-7.73856e-05 0.00129141 -0.999999 
-0.000125699 0.000892332 -1 
-0.000164513 0.000533501 -1 
-0.000170195 0.000226183 -1 
-0.000132467 -4.04431e-05 -1 
-6.39369e-05 -0.000240174 -1 
2.47022e-05 -0.00038843 -1 
0.000100019 -0.000435337 -1 
0.000162109 -0.000458421 -1 
0.000214338 -0.000416443 -1 
0.000227933 -0.00035955 -1 
0.000239367 -0.000328166 -1 
0.000232681 -0.000436519 -1 
0.0014508 -0.00386382 -0.999991 
0.0177925 -0.0753911 -0.996995 
0.0100902 -0.0526575 0.998562 
0.000418564 -0.0022149 0.999997 
-0.00017497 -0.000391988 1 
-0.000150494 -0.000272654 1 
-0.000192241 -0.000334209 1 
-0.000174357 -0.000406353 1 
-0.000158863 -0.000471335 1 
-0.00010962 -0.000500419 1 
-3.58148e-05 -0.000436479 1 
3.9225e-05 -0.00032316 1 
0.000116824 -0.000103392 1 
0.000157724 0.000155737 1 
0.000170388 0.000488357 1 
0.000156688 0.000870636 1 
0.000129091 0.00131106 0.999999 
0.000120301 0.00178916 0.999998 
0.000124043 0.00234391 0.999997 
0.00015002 0.00296733 0.999996 