# vtk DataFile Version 3.0 
Exported using Morpho https://github.com/Morpho-lang/morpho 
ASCII 
DATASET UNSTRUCTURED_GRID 

POINTS 1978 float 
-8.48581 -2.81949 2.18199e-07 
-8.27052 -2.82938 4.55556e-07 
-8.04987 -2.82884 1.69304e-07 
-7.76631 -2.82988 1.36623e-07 
-7.49917 -2.82894 -5.3781e-07 
-7.23117 -2.82944 -1.08666e-07 
-7.02058 -2.82909 -1.40167e-07 
-6.78264 -2.82927 -2.75853e-07 
-6.56544 -2.82912 -1.49636e-07 
-6.34584 -2.82923 -1.5016e-07 
-6.13546 -2.82917 -3.03145e-07 
-5.93057 -2.8292 -2.00927e-07 
-5.7101 -2.82899 -2.18452e-07 
-5.50363 -2.82912 -1.65808e-07 
-5.28672 -2.82908 -1.8316e-07 
-5.07791 -2.82913 -2.62863e-07 
-4.85833 -2.8291 -2.9379e-07 
-4.65603 -2.8291 -2.75368e-07 
-4.43011 -2.82908 -4.25034e-07 
-4.22236 -2.82915 -4.77945e-07 
-3.99781 -2.82919 -6.29052e-07 
-3.79653 -2.82918 -8.55855e-07 
-3.5887 -2.82908 -1.39089e-06 
-3.38172 -2.82909 -2.12246e-06 
-3.172 -2.82916 -2.9359e-06 
-2.96121 -2.82928 -3.58541e-06 
-2.75019 -2.82926 -3.66223e-06 
-2.53255 -2.82911 -3.54877e-06 
-2.30464 -2.82907 -8.43375e-06 
-2.06699 -2.82903 -1.56005e-05 
-1.82773 -2.82878 -2.03551e-06 
-1.59857 -2.82891 4.2705e-05 
-1.31953 -2.82795 0.000146306 
-1.12803 -2.82745 0.000327103 
-0.951846 -2.82762 0.00067099 
-0.752634 -2.82867 0.00193674 
-0.604123 -2.82554 0.00185836 
-0.538216 -2.82414 0.00729793 
-0.195762 -2.82393 0.017138 
0.0641433 -2.82469 0.00227334 
0.279289 -2.82678 -0.01573 
0.515121 -2.82117 -0.005217 
0.586766 -2.82439 -0.00155055 
0.728826 -2.82766 -0.0014246 
0.939336 -2.82784 -0.000904703 
1.14733 -2.82799 -0.000214436 
1.37137 -2.82838 -8.768e-05 
1.59264 -2.82863 -7.08722e-05 
1.85904 -2.82868 -1.64632e-05 
2.11598 -2.8288 1.82727e-05 
2.31604 -2.8293 1.00339e-05 
2.51083 -2.82918 4.53694e-06 
2.74508 -2.82917 3.39811e-06 
2.96757 -2.82922 2.96828e-06 
3.19456 -2.82918 2.73783e-06 
3.40125 -2.82906 2.07185e-06 
3.6127 -2.82921 1.41074e-06 
3.80826 -2.82914 9.42808e-07 
4.02154 -2.82912 6.77815e-07 
4.24505 -2.82916 3.97749e-07 
4.44342 -2.82904 4.5813e-07 
4.65996 -2.82916 3.12326e-07 
4.86903 -2.82902 2.53035e-07 
5.07055 -2.82928 2.18022e-07 
5.29274 -2.82908 1.4616e-07 
5.50116 -2.82917 1.50641e-07 
5.70341 -2.82908 1.40353e-07 
5.92327 -2.82911 1.80289e-07 
6.14082 -2.82904 1.68179e-07 
6.33695 -2.82928 1.81361e-07 
6.58618 -2.82915 1.46269e-07 
6.7897 -2.82906 2.80183e-07 
6.99332 -2.8292 2.80591e-07 
7.25795 -2.82912 8.23023e-08 
7.48774 -2.82935 1.82527e-07 
7.73158 -2.82943 -1.12601e-08 
8.01094 -2.82931 -8.2266e-08 
8.1916 -2.82944 -3.09591e-07 
8.48572 -2.81933 -4.56534e-07 
-8.48671 -2.59323 7.71463e-08 
-8.25503 -2.5882 4.93797e-07 
-8.04031 -2.56891 4.06589e-08 
-7.81994 -2.63867 -1.95305e-07 
-7.54553 -2.62547 2.76358e-07 
-7.26687 -2.62766 5.72569e-07 
-7.00839 -2.57448 2.49186e-08 
-6.79366 -2.60632 1.22999e-07 
-6.55594 -2.58791 3.35789e-07 
-6.33165 -2.59493 3.49905e-07 
-6.11236 -2.5823 1.80959e-07 
-5.89363 -2.59765 1.69242e-07 
-5.68161 -2.5786 2.10626e-07 
-5.46493 -2.59246 1.7968e-07 
-5.24882 -2.58761 2.72433e-07 
-5.02895 -2.5986 2.68258e-07 
-4.82133 -2.57771 3.81663e-07 
-4.59762 -2.60642 3.00181e-07 
-4.38 -2.58729 5.31892e-07 
-4.15651 -2.60556 5.03436e-07 
-3.94519 -2.58132 7.03854e-07 
-3.73417 -2.59156 8.08602e-07 
-3.51922 -2.59043 1.19931e-06 
-3.30226 -2.5916 2.41327e-06 
-3.08219 -2.59036 3.88233e-06 
-2.85944 -2.58657 4.39875e-06 
-2.63086 -2.58517 3.37764e-06 
-2.39292 -2.58572 2.22266e-06 
-2.14812 -2.58983 -5.34264e-07 
-1.90053 -2.59103 -1.06321e-05 
-1.65749 -2.58765 -4.02017e-05 
-1.43193 -2.65603 -7.13404e-05 
-1.19441 -2.62834 -6.31676e-05 
-0.983849 -2.66298 0.000195445 
-0.824217 -2.7067 -0.000433132 
-0.661368 -2.72505 0.000318036 
-0.565181 -2.66167 0.000517822 
-0.493665 -2.80347 0.00206314 
-0.179366 -2.81219 0.000682295 
0.0672886 -2.82492 -0.0189029 
0.257938 -2.80922 -0.00182754 
0.469432 -2.79638 -0.00130027 
0.559161 -2.69082 -0.000604085 
0.659063 -2.72776 -0.000953662 
0.84769 -2.72361 8.36637e-05 
1.0642 -2.66871 -3.97431e-05 
1.27995 -2.6362 -4.75781e-07 
1.51711 -2.60629 6.73816e-05 
1.76551 -2.61319 4.06361e-05 
2.02875 -2.60453 2.26702e-06 
2.26924 -2.54803 -1.91888e-06 
2.51466 -2.5997 -2.29492e-06 
2.75396 -2.59073 -3.98305e-06 
2.99617 -2.60152 -3.69886e-06 
3.22005 -2.58562 -3.02295e-06 
3.44414 -2.59642 -1.60502e-06 
3.65049 -2.57818 -1.09178e-06 
3.8657 -2.59715 -7.28814e-07 
4.09221 -2.60488 -5.65502e-07 
4.30015 -2.57401 -5.90855e-07 
4.51614 -2.59688 -3.91677e-07 
4.73257 -2.58919 -3.37654e-07 
4.94402 -2.58218 -3.25906e-07 
5.16025 -2.60513 -2.2652e-07 
5.38071 -2.58977 -1.90965e-07 
5.58905 -2.58005 -1.93474e-07 
5.80529 -2.59935 -1.36658e-07 
6.02935 -2.59488 -1.46813e-07 
6.24065 -2.56703 -2.70677e-07 
6.46061 -2.62163 -1.70269e-07 
6.6876 -2.56881 -1.36908e-07 
6.89602 -2.56531 -1.85906e-07 
7.12587 -2.62568 -1.14141e-07 
7.3775 -2.59395 -5.31065e-08 
7.61474 -2.60891 -3.09047e-07 
7.87354 -2.63754 2.18358e-07 
8.07843 -2.53202 -4.23964e-08 
8.29778 -2.64042 -5.04216e-07 
8.48628 -2.53177 2.14709e-07 
-8.48609 -2.36501 -6.69746e-07 
-8.26782 -2.33375 2.70811e-07 
-8.01172 -2.35399 1.61986e-07 
-7.74477 -2.42564 -1.23517e-07 
-7.58606 -2.25681 -1.31322e-07 
-7.44095 -2.44049 -4.6002e-08 
-7.1831 -2.40134 6.33671e-09 
-6.93296 -2.33634 -1.54121e-07 
-6.70828 -2.37988 6.01599e-09 
-6.46641 -2.36428 -6.47465e-08 
-6.24382 -2.35764 4.26637e-08 
-6.01617 -2.35872 -1.02816e-08 
-5.80221 -2.35237 -2.00102e-08 
-5.5722 -2.34906 -1.65591e-08 
-5.35828 -2.35888 -1.87061e-08 
-5.13274 -2.36513 -2.95529e-08 
-4.92512 -2.34583 -5.73788e-08 
-4.69492 -2.36835 -6.81408e-08 
-4.48462 -2.36553 -6.79974e-08 
-4.25705 -2.37011 -8.27158e-08 
-4.05228 -2.35498 -1.528e-07 
-3.83477 -2.34883 -2.64405e-07 
-3.62551 -2.35888 -3.09164e-07 
-3.40727 -2.35838 -3.29992e-07 
-3.18715 -2.35897 -4.87426e-07 
-2.96205 -2.35575 -8.55188e-07 
-2.72974 -2.35272 -1.45002e-06 
-2.49031 -2.35284 -2.62049e-06 
-2.24266 -2.35408 -3.78847e-06 
-1.9929 -2.35558 -4.27908e-06 
-1.74154 -2.35499 -7.3986e-06 
-1.48607 -2.40422 -2.3954e-05 
-1.27108 -2.46169 -5.64154e-06 
-1.0079 -2.50284 -7.71964e-05 
-0.803156 -2.55171 3.85459e-05 
-0.687027 -2.62143 -3.05609e-05 
-0.576478 -2.5691 0.00103725 
-0.457688 -2.78184 0.000525146 
-0.172575 -2.79592 -0.0152059 
0.0141463 -2.82665 0.00864077 
0.173546 -2.80043 0.00773695 
0.434916 -2.77084 0.00296572 
0.587191 -2.62061 -0.00167369 
0.752334 -2.63168 -1.60956e-05 
0.907291 -2.57536 0.000102541 
1.04971 -2.46077 -3.58932e-06 
1.22452 -2.44666 -1.91763e-05 
1.43689 -2.40946 3.49178e-05 
1.68738 -2.39761 2.48412e-05 
1.94123 -2.38786 3.7029e-06 
2.18745 -2.33663 2.90744e-06 
2.46168 -2.36085 2.14955e-06 
2.69183 -2.3622 1.44179e-06 
2.93244 -2.37053 9.47748e-07 
3.15174 -2.35291 6.54915e-07 
3.3729 -2.36318 3.89136e-07 
3.57871 -2.33872 4.19595e-07 
3.79005 -2.35677 2.78366e-07 
4.00425 -2.37899 1.69769e-07 
4.21136 -2.34234 1.37227e-07 
4.43372 -2.35425 7.59132e-08 
4.64111 -2.35759 7.97642e-08 
4.85538 -2.34869 4.30702e-08 
5.07421 -2.36194 5.02461e-08 
5.28343 -2.37084 2.94959e-08 
5.49999 -2.3429 2.06465e-08 
5.71966 -2.35918 1.0507e-08 
5.93516 -2.37052 1.63743e-08 
6.15093 -2.33872 8.5314e-09 
6.38925 -2.36853 -5.6456e-09 
6.59253 -2.36097 -1.86323e-08 
6.82689 -2.3119 -1.92567e-08 
7.057 -2.37371 -1.46228e-08 
7.279 -2.39385 -2.17098e-07 
7.54407 -2.37588 2.71239e-07 
7.78917 -2.41893 -7.69086e-08 
8.00638 -2.31349 -6.10524e-08 
8.2685 -2.37426 -3.80413e-07 
8.48605 -2.28227 5.8041e-07 
-8.48587 -2.1258 -4.07539e-07 
-8.25787 -2.08546 1.52324e-07 
-8.02871 -2.11895 -1.67323e-07 
-7.79363 -2.17054 2.18549e-07 
-7.51386 -2.03253 6.86772e-08 
-7.32677 -2.2145 5.54812e-08 
-7.08149 -2.15936 6.01175e-09 
-6.79995 -2.12813 9.4213e-08 
-6.58215 -2.15435 5.1714e-09 
-6.34815 -2.13183 -1.98272e-08 
-6.12352 -2.13044 -1.14587e-08 
-5.90976 -2.11647 -2.09588e-08 
-5.68895 -2.13038 -1.70963e-08 
-5.46318 -2.11603 -6.40308e-09 
-5.24984 -2.14128 -1.98034e-08 
-5.04207 -2.11311 -4.01999e-08 
-4.81714 -2.13761 -4.85861e-08 
-4.60644 -2.12939 -5.04818e-08 
-4.39051 -2.14813 -1.74424e-08 
-4.18607 -2.12048 -9.11634e-08 
-3.97503 -2.12437 -1.07623e-07 
-3.76292 -2.11428 -1.79578e-07 
-3.55321 -2.12962 -1.8596e-07 
-3.33822 -2.12611 -2.04188e-07 
-3.12356 -2.12582 -2.8712e-07 
-2.90432 -2.12404 -3.25225e-07 
-2.67731 -2.12164 -7.72275e-07 
-2.43848 -2.12451 -1.32586e-06 
-2.19022 -2.12587 -1.07947e-06 
-1.93566 -2.12679 2.92506e-06 
-1.67546 -2.14482 1.98402e-06 
-1.43966 -2.18306 -1.96269e-05 
-1.25477 -2.20357 -2.32825e-05 
-1.10478 -2.31955 -8.80387e-05 
-0.9082 -2.37149 -1.51083e-06 
-0.708526 -2.44216 -4.8037e-05 
-0.593736 -2.48139 -0.000884884 
-0.436043 -2.7602 -0.00523579 
-0.185459 -2.8023 0.00945259 
-0.0461298 -2.82456 -0.0137312 
0.179447 -2.78778 0.0274286 
0.420108 -2.71578 0.000635131 
0.593246 -2.53668 0.000717844 
0.738964 -2.50366 -0.00017483 
0.847168 -2.38524 7.10141e-05 
1.0538 -2.28073 9.11483e-05 
1.28489 -2.20597 3.05092e-05 
1.52121 -2.20229 1.15332e-05 
1.75841 -2.17602 -2.07106e-06 
1.99929 -2.14889 1.06449e-06 
2.27863 -2.14154 1.77095e-06 
2.51062 -2.11963 1.09606e-06 
2.75108 -2.14198 6.83097e-07 
2.97283 -2.12644 3.31732e-07 
3.20165 -2.12719 1.61829e-07 
3.40891 -2.11849 1.78787e-07 
3.62736 -2.10899 1.77379e-07 
3.84268 -2.13187 1.52101e-07 
4.04352 -2.13138 7.9879e-08 
4.27456 -2.12282 5.26529e-08 
4.48261 -2.11364 4.4863e-08 
4.69534 -2.12425 3.62374e-08 
4.91663 -2.12482 2.94941e-08 
5.12904 -2.1272 4.23986e-08 
5.33696 -2.13442 1.77909e-09 
5.56607 -2.12131 7.23616e-09 
5.7816 -2.12936 1.23139e-09 
5.99207 -2.12962 -7.8705e-09 
6.24023 -2.13673 2.51158e-08 
6.44575 -2.11098 1.00916e-08 
6.66093 -2.12304 -3.58781e-08 
6.92736 -2.10752 9.72184e-08 
7.14593 -2.14136 6.52188e-08 
7.38147 -2.18381 -6.25715e-08 
7.57962 -2.08571 -3.02378e-08 
7.75399 -2.18921 2.1335e-08 
7.96246 -2.07696 -4.74655e-08 
8.20624 -2.1508 -1.4182e-07 
8.48605 -2.08712 2.70752e-07 
-8.48646 -1.82847 -3.05572e-07 
-8.30003 -1.84926 1.77729e-08 
-7.90331 -1.90894 1.21581e-08 
-7.68932 -1.91752 -1.36518e-08 
[...]
POINT_DATA 1978 
VECTORS vectors float
0.00142882 0.00257535 0.999649 
0.00160389 0.00176859 1.00022 
0.00172463 0.000919303 1.00046 
0.00176215 0.000205691 1.00035 
0.00172197 -0.00060063 1.00035 
0.00184921 -0.00133859 1.00034 
0.00182669 -0.0020245 1.00034 
0.00182104 -0.0028637 1.00033 
0.00176484 -0.00360417 1.00022 
0.00164101 -0.00436358 1.00043 
0.00150539 -0.00508902 1.00021 
0.00125905 -0.00576422 1.00031 
0.000911165 -0.00639263 1.00031 
0.000618017 -0.00696152 1.0003 
0.000220644 -0.00753519 1.0003 
-0.000396963 -0.00804829 1.00029 
-0.00121842 -0.00854704 1.00029 
-0.0020585 -0.00900038 1.00028 
-0.00284775 -0.00955108 1.00027 
-0.00322453 -0.0100026 1.00027 
-0.00304359 -0.0103389 1.00026 
-0.00260487 -0.0103467 1.00026 
-0.00214515 -0.00985971 1.00027 
-0.0018531 -0.00889736 1.00028 
-0.00246431 -0.00785738 1.00029 
-0.00551812 -0.00651251 1.0003 
-0.0113217 -0.00292132 1.00028 
-0.0173744 0.00453628 1.0002 
-0.0223852 0.0156576 0.999997 
-0.0272547 0.0311031 0.999519 
-0.0324851 0.0520013 0.998486 
-0.0414324 0.077838 0.996432 
-0.0612008 0.130161 0.989859 
-0.0811737 0.190296 0.9785 
-0.0855553 0.256453 0.963046 
-0.0889691 0.367185 0.925992 
-0.06958 0.468993 0.880738 
-0.0407061 0.515284 0.857489 
-0.0184504 0.885703 0.466159 
-0.0264672 0.989606 -0.142046 
0.0406703 0.817025 -0.574929 
0.0513759 0.504319 -0.862529 
0.0439777 0.448111 -0.892958 
0.061414 0.389168 -0.919313 
0.0808338 0.265087 -0.961032 
0.0633099 0.179966 -0.981868 
0.0511941 0.123923 -0.991269 
0.0431046 0.081684 -0.996071 
0.0309437 0.0472138 -0.998779 
0.0253218 0.029324 -0.999624 
0.0236273 0.0169502 -0.999822 
0.0202239 0.0062853 -1.00013 
0.0128585 -0.00382363 -1.00026 
0.0055742 -0.00790028 -1.0003 
0.00162126 -0.00849382 -1.0003 
0.00122223 -0.00862319 -1.00029 
0.0021707 -0.00941641 -1.00027 
0.00282223 -0.0101247 -1.00026 
0.00316236 -0.0103231 -1.00026 
0.00311214 -0.00995426 -1.00027 
0.00276854 -0.0094802 -1.00028 
0.00205537 -0.00898225 -1.00028 
0.0012296 -0.00852618 -1.00029 
0.000489643 -0.00812799 -1.00029 
-0.000207624 -0.00760775 -1.00029 
-0.000676418 -0.00702593 -1.0003 
-0.000983566 -0.00642334 -1.0003 
-0.00125761 -0.00575474 -1.00031 
-0.00150116 -0.00504773 -1.00032 
-0.00166066 -0.00436284 -1.00032 
-0.00178467 -0.00348076 -1.00033 
-0.00181764 -0.00276384 -1.00034 
-0.00180976 -0.0020731 -1.00034 
-0.00176219 -0.00124075 -1.00035 
-0.00174043 -0.000574606 -1.00034 
-0.00173027 7.43814e-05 -1.00034 
-0.00168979 0.000842622 -1.00034 
-0.00164542 0.0013717 -1.00034 
-0.00155429 0.0024449 -0.999508 
0.000776347 0.00227085 0.999091 
0.00101299 0.00147969 1.00077 
0.00108699 0.00084057 1.0007 
0.0013279 0.00026227 1.00057 
0.00128623 -0.000464926 1.00068 
0.00132846 -0.00119841 1.00067 
0.00115679 -0.00198987 1.00067 
0.00122386 -0.00268983 1.00066 
0.00110412 -0.00342227 1.00076 
0.000979222 -0.00413813 1.00052 
0.000791411 -0.0047739 1.00073 
0.000591718 -0.00540642 1.00062 
0.000224777 -0.00589493 1.00063 
-8.9503e-05 -0.0064239 1.00062 
-0.000544907 -0.00679706 1.00061 
-0.00116259 -0.0071915 1.00061 
-0.00194815 -0.00752293 1.0006 
-0.00273595 -0.00825869 1.00059 
-0.0033558 -0.00898653 1.00059 
-0.00348806 -0.00981849 1.00058 
-0.0030499 -0.0103565 1.00057 
-0.00226717 -0.0104248 1.00057 
-0.0015049 -0.00968373 1.00058 
-0.00120076 -0.00794816 1.00061 
-0.00197133 -0.00514443 1.00063 
-0.00417603 -0.000950589 1.00066 
-0.00732893 0.0054592 1.00065 
-0.0100021 0.0152751 1.00055 
-0.0117985 0.0292394 1.00023 
-0.013182 0.0479054 0.999483 
-0.0147365 0.0727118 0.997911 
-0.0257552 0.110415 0.99411 
-0.0195808 0.169262 0.985861 
-0.0254446 0.242237 0.970077 
-0.0295274 0.312049 0.949782 
-0.0157949 0.422472 0.906163 
0.0500005 0.472859 0.879539 
-0.00957782 0.562275 0.826618 
0.0170947 0.900366 0.433038 
0.0225829 0.987865 -0.149727 
-0.00133798 0.838933 -0.542769 
0.015287 0.563958 -0.825844 
-0.0484047 0.463745 -0.884454 
-0.00455018 0.402936 -0.915201 
0.0240243 0.3087 -0.950992 
0.0219007 0.206707 -0.97854 
0.0180665 0.142196 -0.990168 
0.0138513 0.0954239 -0.995947 
0.0140204 0.0614268 -0.998699 
0.012364 0.0373435 -0.99994 
0.00956329 0.0225602 -1.00052 
0.0104403 0.0100359 -1.00059 
0.00646266 0.00127664 -1.00067 
0.00287168 -0.00436976 -1.00066 
0.00105473 -0.00712664 -1.00062 
0.00110846 -0.00896647 -1.00059 
0.00183375 -0.0100522 -1.00058 
0.00271352 -0.0103247 -1.00057 
0.00331229 -0.00997775 -1.00058 
0.00340658 -0.00925341 -1.00059 
0.00299262 -0.00852121 -1.00059 
0.00229243 -0.00781804 -1.0006 
0.00152444 -0.00731418 -1.0006 
0.000765559 -0.00705308 -1.0006 
0.000233387 -0.00661295 -1.00061 
-0.000135615 -0.00614682 -1.00061 
-0.000493892 -0.00565229 -1.00062 
-0.000740394 -0.00502248 -1.00063 
-0.000854001 -0.00434907 -1.00064 
-0.00114513 -0.00372312 -1.00064 
-0.00109712 -0.00295955 -1.00066 
-0.00112758 -0.00230332 -1.00067 
-0.00128431 -0.00162068 -1.00067 
-0.00120875 -0.000886001 -1.00068 
-0.00125364 -0.00023978 -1.00067 
-0.00129725 0.000436923 -1.00055 
-0.000986645 0.000920391 -1.00078 
-0.00114445 0.00160503 -1.00054 
-0.000703165 0.00213236 -0.999014 
6.23317e-05 0.00162034 0.999295 
0.000403374 0.00114442 1.00068 
0.000671566 0.000690117 1.00071 
0.000863185 7.5142e-05 1.00071 
0.000516216 -0.000354018 1.00069 
0.000856284 -0.000768517 1.00068 
0.000808771 -0.00141724 1.00068 
0.000601746 -0.00209709 1.00067 
0.0006223 -0.00281487 1.00066 
0.000509053 -0.00353718 1.00064 
0.000377296 -0.0040991 1.00063 
0.000151828 -0.00468343 1.00063 
-0.000131479 -0.00521229 1.00063 
-0.000450461 -0.00563837 1.00063 
-0.000786334 -0.0059466 1.00061 
-0.00130607 -0.00623409 1.00061 
-0.00196669 -0.00650361 1.00061 
-0.00269412 -0.00719821 1.0006 
-0.00326856 -0.00806859 1.00059 
-0.00353894 -0.00919381 1.00058 
-0.00328137 -0.010098 1.00057 
-0.00246844 -0.010706 1.00056 
-0.00145943 -0.0105442 1.00057 
-0.000536686 -0.00928829 1.00059 
-7.53606e-06 -0.00663562 1.00062 
3.68484e-05 -0.00240882 1.00066 
-0.000292138 0.00367517 1.00067 
-0.000459855 0.0122531 1.00063 
0.000602221 0.0242393 1.00042 
0.00326982 0.0398251 0.999926 
0.00793537 0.0591561 0.998919 
0.00924756 0.0910572 0.99644 
0.00972264 0.134783 0.991431 
0.0254417 0.215227 0.97656 
0.037188 0.310836 0.949885 
0.0420873 0.385322 0.921881 
0.0957387 0.44168 0.891932 
0.0235112 0.595464 0.802784 
0.0548318 0.904761 0.421115 
-0.0357914 0.998434 -0.0187463 
-0.0444445 0.920498 -0.392266 
-0.0210144 0.604006 -0.798097 
-0.0797076 0.41727 -0.905167 
-0.039049 0.331468 -0.942796 
-0.0258027 0.255329 -0.966724 
-0.0346558 0.185942 -0.982328 
-0.0189562 0.141949 -0.990088 
-0.0129126 0.100704 -0.995412 
-0.0062376 0.0666704 -0.998403 
-0.00211365 0.0434905 -0.999753 
-0.00130136 0.026933 -1.00033 
0.00176428 0.0134267 -1.0006 
0.00120296 0.00470788 -1.00067 
0.000356552 -0.00191867 -1.00067 
-0.000134376 -0.00604608 -1.00063 
0.000323135 -0.00883019 -1.00059 
0.00104774 -0.0103545 -1.00057 
0.00210854 -0.010668 -1.00056 
0.00301741 -0.0102103 -1.00057 
0.0034224 -0.00937448 -1.00058 
0.0033253 -0.00830969 -1.00059 
0.00285454 -0.00739458 -1.0006 
0.00219375 -0.00669445 -1.0006 
0.00151684 -0.0063317 -1.00061 
0.000942791 -0.00610894 -1.00061 
0.000551172 -0.00574554 -1.00061 
0.00017444 -0.00538975 -1.00062 
-0.000117194 -0.00492291 -1.00062 
-0.000250265 -0.0043303 -1.00063 
-0.000476866 -0.00370239 -1.00064 
-0.00056602 -0.00311634 -1.00065 
-0.000533821 -0.00242269 -1.00066 
-0.000702866 -0.00177332 -1.00067 
-0.000773154 -0.00114409 -1.00067 
-0.000750858 -0.000420873 -1.00079 
-0.000843699 0.000189036 -1.00068 
-0.00060037 0.000667453 -1.00067 
-0.000536782 0.00126997 -1.00065 
-6.91352e-05 0.00162189 -0.999241 
-0.000114536 0.00114487 0.999026 
0.0001265 0.000893163 1.00055 
0.000279428 0.000617186 1.00081 
0.000395814 0.000151717 1.00069 
0.000177002 -0.00053184 1.00068 
0.000425805 -0.00106214 1.00067 
0.000297476 -0.00166236 1.00078 
0.000195251 -0.00242417 1.00066 
0.000146405 -0.00305315 1.00065 
2.49293e-05 -0.00362513 1.00064 
-0.000137464 -0.00416834 1.00063 
-0.000373009 -0.00462218 1.00063 
-0.000606943 -0.00501357 1.00062 
-0.000927724 -0.00526603 1.00062 
-0.00130779 -0.0055242 1.00061 
-0.00184654 -0.00567535 1.00061 
-0.00242689 -0.00622546 1.0006 
-0.00293387 -0.00705127 1.00059 
-0.00329861 -0.00827592 1.00058 
-0.00328945 -0.00949877 1.00057 
-0.00286568 -0.0105604 1.00056 
-0.00193155 -0.0111305 1.00055 
-0.000639291 -0.0108919 1.00056 
0.000779256 -0.0095651 1.00059 
0.00218938 -0.00678681 1.00061 
0.00370111 -0.00235197 1.00065 
0.00563488 0.00380432 1.00065 
0.00818271 0.0124206 1.00059 
0.0124383 0.0243269 1.00034 
0.0196191 0.038989 0.999759 
0.0294814 0.0571656 0.998611 
0.0391871 0.0819384 0.996477 
0.0517471 0.109143 0.993114 
0.0539878 0.153301 0.987121 
0.072518 0.221698 0.972681 
0.103525 0.318696 0.942261 
0.12947 0.394162 0.909591 
0.0559706 0.609115 0.791087 
0.00515265 0.896135 0.444376 
0.0185507 0.993414 0.113914 
-0.094478 0.906957 -0.408857 
-0.0709061 0.605499 -0.793455 
-0.130105 0.370307 -0.920059 
-0.0936058 0.296241 -0.950751 
-0.088725 0.228181 -0.969877 
-0.0711317 0.153802 -0.985981 
-0.049028 0.101035 -0.99421 
-0.0295604 0.0743687 -0.997511 
-0.021525 0.0525459 -0.999053 
-0.0149768 0.0352308 -0.999956 
-0.00902163 0.0198939 -1.00045 
-0.0067464 0.00970752 -1.00062 
-0.00429767 0.00181721 -1.00066 
-0.00308566 -0.003897 -1.00065 
-0.00165266 -0.00791358 -1.00061 
-0.00042831 -0.0101943 -1.00057 
0.000954942 -0.0111595 -1.00056 
0.00214068 -0.0109731 -1.00056 
0.00292177 -0.0102338 -1.00057 
0.00329296 -0.00895789 -1.00058 
0.00315207 -0.00771468 -1.00059 
0.00274197 -0.00667258 -1.0006 
0.00219982 -0.00592954 -1.0006 
0.0016402 -0.00559112 -1.00061 
0.001171 -0.00541842 -1.00061 
0.000775035 -0.00516731 -1.00061 
0.000460875 -0.00486709 -1.00062 
0.000232203 -0.00445717 -1.00062 
3.3061e-05 -0.00389051 -1.00063 
-5.15742e-05 -0.00335932 -1.00064 
-0.000152399 -0.00280489 -1.00065 
-0.000179553 -0.00208638 -1.00066 
-0.000256645 -0.00149692 -1.00067 
-0.000346492 -0.000859258 -1.00057 
-0.000200023 -0.00032582 -1.00067 
-0.000377059 0.000100746 -1.00068 
-0.000211351 0.000545918 -1.00068 
-0.000222855 0.000982515 -1.00067 
9.50336e-05 0.00127893 -0.999269 
0.000169293 0.000865731 0.998968 
0.000167065 0.000841568 1.00064 
0.000118541 0.00037145 1.00058 
9.19112e-05 -7.53189e-05 1.00069 
0.000100456 -0.000645427 1.00078 
0.000121842 -0.00111627 1.00057 
4.51465e-05 -0.00143622 1.00066 
5.68282e-05 -0.00197892 1.00066 
-3.94224e-05 -0.00259087 1.00066 
-0.000106637 -0.00311785 1.00065 
-0.000250059 -0.00363447 1.00064 
-0.000451976 -0.00404211 1.00064 
-0.000673599 -0.00442389 1.00063 
-0.000940835 -0.00470365 1.00062 
-0.00135227 -0.00484441 1.00062 
-0.00176443 -0.00498347 1.00062 
-0.00228582 -0.00539448 1.00061 
-0.00275585 -0.00613627 1.0006 
-0.0031323 -0.00740226 1.00059 
-0.00328987 -0.00876456 1.00058 
-0.0032006 -0.0101516 1.00056 
-0.00276009 -0.0110506 1.00056 
-0.00177429 -0.0113599 1.00056 
-0.00031914 -0.0109279 1.00057 
0.00148919 -0.00938061 1.00059 
0.00361435 -0.00616545 1.00063 
0.00641494 -0.000954351 1.00065 
0.0105216 0.00645131 1.00061 
0.0162148 0.0156442 1.00044 
0.0241488 0.0268544 1.00005 
0.0356918 0.0403472 0.999245 
0.0500222 0.0566713 0.997899 
0.0684772 0.0744809 0.995447 
0.0887975 0.107952 0.990689 
0.0998927 0.15216 0.983767 
0.123363 0.237741 0.96354 
0.156814 0.336771 0.928411 
0.105042 0.55476 0.825249 
0.064889 0.689522 0.719873 
-0.0303142 0.994819 0.104563 
-0.0354229 0.718387 -0.689688 
-0.114869 0.56558 -0.815946 
-0.140348 0.270508 -0.952271 
-0.138768 0.180686 -0.974037 
-0.11065 0.141856 -0.984105 
-0.0912233 0.101102 -0.991099 
-0.0672234 0.0776838 -0.995391 
-0.0487677 0.0589486 -0.997599 
-0.0339534 0.0441561 -0.999099 
-0.0245471 0.029867 -0.999923 
-0.0171708 0.0191175 -1.00036 
-0.0119422 0.0089624 -1.00057 
-0.0073362 0.00132079 -1.00065 
-0.00440514 -0.00453494 -1.00064 
-0.00213059 -0.0084304 -1.00061 
-0.000274242 -0.0106416 -1.00057 
0.00113762 -0.0114387 -1.00056 
0.00225588 -0.0113243 -1.00055 
0.00292423 -0.0105724 -1.00056 
0.0032121 -0.00937406 -1.00057 
0.00318353 -0.00784943 -1.00059 
0.00292534 -0.00654657 -1.0006 
0.00250555 -0.00561182 -1.00061 
0.00200631 -0.00508605 -1.00061 
0.00153729 -0.00486753 -1.00061 
0.00113071 -0.00478283 -1.00061 
0.00079043 -0.00454922 -1.00062 
0.000530888 -0.00424167 -1.00062 
0.000299733 -0.00386937 -1.00063 
0.000180373 -0.0033283 -1.00064 
7.11007e-05 -0.00283709 -1.00065 
-3.72594e-06 -0.00230893 -1.00066 
-3.93372e-05 -0.00160873 -1.00077 
-6.53836e-05 -0.00101797 -1.00067 
-4.49525e-05 -0.000413143 -1.00067 
-8.12486e-05 0.000198339 -1.00068 
-9.00419e-05 0.000686773 -1.00068 
-7.06102e-05 0.000985326 -1.00066 
-1.93664e-05 0.00112449 -0.999106 
0.000532611 0.000962445 0.999151 
0.000395877 0.000874974 1.00063 
0.000167025 0.000688628 1.00068 
0.000230399 0.000362752 1.00068 
0.000183295 -9.35483e-05 1.00058 
0.000142906 -0.000991849 1.00067 
6.44657e-05 -0.00177222 1.00067 
1.77531e-06 -0.00223465 1.00066 
-9.35886e-05 -0.00276855 1.00065 
-0.000219076 -0.00320202 1.00064 
-0.000399957 -0.00357241 1.00064 
-0.000643554 -0.00391515 1.00064 
-0.000921614 -0.00415831 1.00063 
-0.00124962 -0.00433615 1.00062 
-0.00165525 -0.00434132 1.00062 
-0.00208083 -0.00468217 1.00061 
-0.00252022 -0.0052638 1.0006 
-0.00289404 -0.00635504 1.00059 
-0.00309513 -0.007704 1.00058 
-0.0031831 -0.00921769 1.00057 
-0.00312523 -0.0104214 1.00056 
-0.00284465 -0.011133 1.00055 
-0.00216885 -0.0113009 1.00056 
-0.0009341 -0.010962 1.00057 
0.000717514 -0.0098262 1.00059 
0.00280035 -0.00724755 1.00062 
0.00576968 -0.0027619 1.00065 
0.0104485 0.00339516 1.00062 
0.0169869 0.0105399 1.00049 
0.0258188 0.019296 1.00018 
0.0384054 0.0286099 0.999538 
0.0541897 0.0399558 0.998273 
0.0758536 0.0495987 0.996496 
0.100822 0.0723355 0.992838 
0.132963 0.1083 0.985616 
0.152102 0.172526 0.973462 
0.178513 0.275565 0.944702 
0.141599 0.542896 0.828071 
0.0872752 0.810564 0.576407 
0.0256393 0.999672 -0.00584084 
-0.0478724 0.899952 -0.430156 
-0.196887 0.399512 -0.895719 
-0.172219 0.232449 -0.957204 
-0.165874 0.130801 -0.977849 
-0.129503 0.0940229 -0.987608 
-0.0959012 0.0608615 -0.994206 
-0.0727494 0.0527512 -0.996472 
-0.0479944 0.038049 -0.99877 
-0.0321822 0.0279757 -0.999883 
-0.0231836 0.0188029 -1.00025 
-0.0163095 0.010543 -1.0005 
-0.00950571 0.00236182 -1.00063 
-0.00521097 -0.0034466 -1.00065 
-0.00232553 -0.00783721 -1.00062 
-0.000374992 -0.0102296 -1.00059 
0.00117587 -0.0112605 -1.00056 
0.00221709 -0.0114811 -1.00055 
0.00278535 -0.0110984 -1.00056 
0.00304568 -0.0101574 -1.00056 
0.00312827 -0.00884517 -1.00058 
0.00299525 -0.00720075 -1.0006 
0.00276419 -0.00586698 -1.0006 
0.00238259 -0.00495957 -1.00061 
0.00192941 -0.00447854 -1.00061 
0.00150938 -0.00430149 -1.00062 
0.00112449 -0.00427526 -1.00062 
0.000804337 -0.004072 -1.00062 
0.000535651 -0.00381303 -1.00063 
0.00034019 -0.00347579 -1.00064 
0.000161483 -0.00298624 -1.00065 
3.83187e-05 -0.00251779 -1.00066 
-3.30022e-05 -0.00201629 -1.00056 
-0.000111419 -0.00147694 -1.00066 
-8.96556e-05 -0.00100612 -1.00067 
-0.000140039 -0.000395443 -1.00067 
-0.000140264 0.000182383 -1.00067 
-0.000200358 0.00063541 -1.00067 
-0.000172582 0.000956836 -1.00065 
-0.000266232 0.0010144 -0.999194 
0.000707371 0.00110932 0.999221 
0.000532399 0.000957585 1.00064 
0.000347957 0.000661109 1.00068 
0.00034669 0.00018771 1.0008 
0.000274472 -0.00037963 1.00068 
0.000271456 -0.000871793 1.00067 
0.000178462 -0.00141003 1.00056 
0.000115697 -0.00191441 1.00076 
1.78003e-05 -0.00236177 1.00055 
-0.000120477 -0.00277595 1.00065 
-0.000282852 -0.00314655 1.00065 
-0.000504063 -0.00347546 1.00064 
-0.000777205 -0.00371269 1.00063 
-0.00106713 -0.00385575 1.00062 
-0.00138979 -0.00392414 1.00062 
-0.00179423 -0.00409453 1.00062 
-0.00216194 -0.00457055 1.00061 
-0.00250032 -0.00554574 1.0006 
-0.00267169 -0.00683765 1.00059 
-0.00275102 -0.00842129 1.00058 
-0.00271521 -0.00980714 1.00057 
-0.00260904 -0.0107508 1.00056 
-0.0022729 -0.011143 1.00056 
-0.00158051 -0.011148 1.00056 
-0.000394017 -0.0107608 1.00057 
0.00132952 -0.00956613 1.0006 
0.003729 -0.00702434 1.00063 
0.00761983 -0.00291977 1.00064 
0.0133622 0.00208861 1.0006 
0.0212397 0.00808585 1.00043 
0.0322633 0.0136032 1.00008 
0.0465513 0.0180508 0.999424 
0.064451 0.0247493 0.998247 
0.0916426 0.0290507 0.996078 
0.127698 0.0465953 0.991275 
0.166453 0.0612666 0.984564 
0.201687 0.200615 0.958554 
0.190667 0.472234 0.860458 
0.045209 0.771109 0.638969 
0.0595235 0.837263 0.536858 
-0.0135851 0.811607 -0.586873 
-0.141823 0.37002 -0.918401 
-0.207505 0.183951 -0.96032 
-0.15804 0.0601423 -0.985982 
-0.120482 0.0417505 -0.992387 
-0.0883252 0.0217871 -0.996462 
-0.0709114 0.028744 -0.9977 
-0.0475594 0.0212798 -0.99943 
-0.0327018 0.0156725 -0.999918 
-0.0243975 0.0113812 -1.00021 
-0.0167262 0.00471389 -1.00054 
-0.0103216 0.000300512 -1.00064 
-0.00535054 -0.00536411 -1.00065 
-0.00241118 -0.00847213 -1.00062 
-0.000426663 -0.010473 -1.00059 
0.000968233 -0.0112504 -1.00057 
0.00196339 -0.0113736 -1.00056 
0.00237223 -0.0110973 -1.00055 
0.00260726 -0.0103872 -1.00056 
0.00269161 -0.00911362 -1.00057 
0.00271234 -0.00765847 -1.00059 
0.00254817 -0.00600627 -1.0006 
0.00230342 -0.00489038 -1.00061 
0.00195186 -0.00421944 -1.00062 
0.00156534 -0.00391832 -1.00062 
0.00120045 -0.00385698 -1.00062 
0.00089784 -0.0037772 -1.00062 
0.000604809 -0.00359676 -1.00063 
0.000377622 -0.00329066 -1.00064 
0.000196743 -0.00295618 -1.00064 
2.15246e-05 -0.00246699 -1.00076 
-8.85176e-05 -0.00199879 -1.00066 
-0.000191801 -0.00141355 -1.00067 
-0.00021885 -0.000822207 -1.00067 
-0.000280257 -0.000274658 -1.00067 
-0.000268338 0.000169064 -1.00067 
-0.00033539 0.000564619 -1.00067 
-0.000336537 0.00087764 -1.00066 
-0.000473617 0.00103276 -0.999262 
0.000771688 0.00134899 0.999241 
0.000584992 0.00107244 1.00065 
0.000440345 0.000595717 1.00069 
0.000420911 0.000273654 1.00068 
0.000357045 -0.000216264 1.00067 
0.000316522 -0.000829412 1.00067 
0.000225332 -0.00143916 1.00066 
0.00015079 -0.00188929 1.00066 
2.16492e-05 -0.00233119 1.00065 
-0.000102344 -0.00266156 1.00065 
-0.000292793 -0.00303626 1.00064 
-0.000517952 -0.00331403 1.00063 
-0.000762804 -0.00345538 1.00073 
-0.00104482 -0.00356457 1.00061 
-0.00139015 -0.00369254 1.00052 
-0.00166437 -0.00394954 1.00071 
-0.00201015 -0.00465198 1.00051 
-0.00213854 -0.00572545 1.0006 
-0.00222635 -0.00720408 1.00059 
-0.00217504 -0.00875935 1.00057 
-0.00203436 -0.0100937 1.00056 
-0.00175896 -0.0108973 1.00055 
-0.00135708 -0.0112725 1.00055 
-0.000642713 -0.0113148 1.00056 
0.000542143 -0.0110676 1.00057 
0.00242835 -0.0103617 1.00059 
0.00506785 -0.00867908 1.00061 
0.00910183 -0.00605871 1.00074 
0.0151302 -0.00288009 1.00058 
0.0231569 0.000256369 1.00031 
0.034502 0.00214047 1.00021 
0.0483152 0.00197341 0.9995 
0.0677296 0.00344483 0.998233 
0.094994 0.00010969 0.99612 
0.127732 0.0091594 0.992258 
0.165184 0.0155421 0.986576 
0.203329 0.101659 0.974836 
0.239027 0.420779 0.876031 
0.15026 0.726428 0.67351 
-0.0212028 1.00016 0.040462 
-0.0806248 0.80064 -0.593607 
-0.194959 0.359163 -0.914645 
-0.200522 0.0885554 -0.975962 
-0.165046 0.0128859 -0.98669 
-0.120242 0.00943783 -0.993291 
-0.0898138 -0.00112478 -0.996505 
-0.0618093 0.00268406 -0.998863 
-0.0405152 0.00195495 -0.999749 
-0.0294925 0.000783251 -1.00026 
-0.0224152 0.000570087 -1.00055 
-0.0148529 -0.00308494 -1.00057 
-0.00915603 -0.00556174 -1.00063 
-0.00495791 -0.00884992 -1.00072 
-0.00248424 -0.0103414 -1.00049 
-0.000707467 -0.0112633 -1.00057 
0.000682776 -0.0115354 -1.00056 
0.00138419 -0.0114239 -1.00055 
0.00173957 -0.0109395 -1.00055 
0.0020277 -0.010015 -1.00056 
0.00212714 -0.00866841 -1.00067 
0.00226926 -0.00706705 -1.00049 
0.00208962 -0.00552912 -1.0007 
0.00190869 -0.00444689 -1.00061 
0.00160685 -0.00382515 -1.00062 
0.00129781 -0.0035802 -1.00062 
0.00099413 -0.0035053 -1.00062 
0.000721452 -0.00345825 -1.00063 
0.000474489 -0.00326367 -1.00063 