# vtk DataFile Version 3.0 
Exported using Morpho https://github.com/Morpho-lang/morpho 
ASCII 
DATASET UNSTRUCTURED_GRID 

POINTS 1978 float 
-8.48528 -2.82842 -1.33416e-12 
-8.26948 -2.82843 -1.22705e-12 
-8.04828 -2.82843 5.15904e-13 
-7.76492 -2.82843 4.14138e-13 
-7.49732 -2.82843 -1.61903e-12 
-7.25545 -2.82843 -3.33636e-13 
-7.00485 -2.82843 -4.18517e-13 
-6.78771 -2.82843 -8.31913e-13 
-6.56143 -2.82843 -4.50243e-13 
-6.34841 -2.82843 -4.51247e-13 
-6.13333 -2.82843 -9.13644e-13 
-5.92792 -2.82843 -6.06534e-13 
-5.70889 -2.82843 -6.60435e-13 
-5.50416 -2.82843 -5.03317e-13 
-5.28803 -2.82843 -5.58289e-13 
-5.07726 -2.82843 -8.02126e-13 
-4.85794 -2.82843 -8.99694e-13 
-4.65696 -2.82843 -8.4736e-13 
-4.43032 -2.82843 -1.3032e-12 
-4.22182 -2.82843 -1.45682e-12 
-3.99854 -2.82843 -1.90334e-12 
-3.79778 -2.82843 -2.57267e-12 
-3.58941 -2.82843 -4.17884e-12 
-3.38214 -2.82843 -6.38499e-12 
-3.17298 -2.82843 -8.84241e-12 
-2.9623 -2.82843 -1.08171e-11 
-2.74971 -2.82843 -1.11144e-11 
-2.53059 -2.82843 -1.09028e-11 
-2.30285 -2.82843 -2.55699e-11 
-2.06454 -2.82843 -4.57666e-11 
-1.8225 -2.82843 1.53484e-12 
-1.59903 -2.82843 1.80525e-10 
-1.32301 -2.82843 6.46792e-10 
-1.11865 -2.82843 1.44442e-09 
-0.936275 -2.82843 3.87777e-09 
-0.759312 -2.82843 1.11424e-08 
-0.602162 -2.82843 1.87951e-08 
-0.537196 -2.82843 8.15808e-08 
-0.206539 -2.82843 3.95088e-07 
0.110757 -2.82843 -3.55631e-07 
0.258083 -2.82843 -1.92862e-07 
0.527573 -2.82843 -5.19033e-08 
0.594193 -2.82843 -1.40876e-08 
0.734758 -2.82843 -1.09097e-08 
0.944148 -2.82843 -5.55036e-09 
1.14386 -2.82843 -1.40191e-09 
1.3637 -2.82843 -4.28126e-10 
1.59619 -2.82843 -2.55016e-10 
1.85521 -2.82843 -6.12958e-11 
2.10475 -2.82843 5.40733e-11 
2.30673 -2.82843 3.06989e-11 
2.53085 -2.82843 1.40367e-11 
2.74284 -2.82843 1.02649e-11 
2.96707 -2.82843 8.92886e-12 
3.19397 -2.82843 8.24484e-12 
3.4016 -2.82843 6.23233e-12 
3.61355 -2.82843 4.24014e-12 
3.8097 -2.82843 2.83446e-12 
4.02279 -2.82843 2.04797e-12 
4.24552 -2.82843 1.21287e-12 
4.4429 -2.82843 1.40088e-12 
4.65991 -2.82843 9.58614e-13 
4.86849 -2.82843 7.75527e-13 
5.0711 -2.82843 6.67866e-13 
5.29228 -2.82843 4.47233e-13 
5.50178 -2.82843 4.58077e-13 
5.70316 -2.82843 4.25198e-13 
5.92326 -2.82843 5.44151e-13 
6.14061 -2.82843 5.06122e-13 
6.33692 -2.82843 5.46481e-13 
6.58623 -2.82843 4.38948e-13 
6.78997 -2.82843 8.43129e-13 
6.99349 -2.82843 8.4523e-13 
7.25815 -2.82843 2.46875e-13 
7.48805 -2.82843 5.5061e-13 
7.7315 -2.82843 -3.34312e-14 
8.01118 -2.82843 -2.45495e-13 
8.19206 -2.82843 5.0342e-12 
8.48528 -2.82843 1.65472e-11 
-8.48528 -2.60274 4.24079e-11 
-8.25353 -2.58413 1.82825e-12 
-8.04043 -2.57065 7.04734e-15 
-7.82054 -2.63804 5.56882e-17 
-7.54344 -2.62674 -8.36887e-17 
-7.25388 -2.61526 -7.85979e-17 
-7.01455 -2.59361 -5.41052e-16 
-6.79281 -2.59502 -5.22736e-16 
-6.55746 -2.59511 -9.12386e-16 
-6.33204 -2.59445 -1.05686e-15 
-6.11499 -2.58654 -1.02588e-15 
-5.89367 -2.59835 -8.62534e-16 
-5.68092 -2.57946 -7.89172e-16 
-5.46497 -2.59431 -6.33657e-16 
-5.24844 -2.58897 -4.40181e-16 
-5.02792 -2.59998 -2.39326e-16 
-4.8201 -2.57847 5.97341e-16 
-4.59666 -2.60727 1.05562e-15 
-4.37897 -2.58899 -4.6512e-15 
-4.15645 -2.60598 2.05218e-15 
-3.94565 -2.58189 6.99623e-16 
-3.73439 -2.59215 7.29512e-15 
-3.51914 -2.59069 1.48179e-14 
-3.30229 -2.59203 2.77338e-14 
-3.08223 -2.59084 4.51231e-14 
-2.85858 -2.58729 1.57986e-14 
-2.62974 -2.5867 -2.2707e-13 
-2.39319 -2.58709 -1.03169e-12 
-2.14838 -2.58925 -3.3178e-12 
-1.89972 -2.5899 -1.11342e-11 
-1.65828 -2.58673 -2.7405e-11 
-1.42737 -2.65732 -5.47055e-11 
-1.18639 -2.63265 -3.53128e-10 
-0.989515 -2.67617 -7.01053e-10 
-0.820633 -2.71131 -1.12617e-09 
-0.664524 -2.73643 1.47147e-10 
-0.583112 -2.67168 -4.2696e-09 
-0.511347 -2.78918 -3.35379e-08 
-0.156839 -2.80697 -2.26805e-08 
0.114938 -2.78538 -7.10975e-08 
0.243318 -2.76424 -2.14194e-08 
0.476568 -2.80656 -2.21716e-09 
0.541004 -2.68602 4.19391e-09 
0.656532 -2.73824 3.09062e-09 
0.854624 -2.72741 1.40201e-10 
1.07188 -2.66281 2.9793e-11 
1.27707 -2.6353 1.62274e-10 
1.51082 -2.60897 6.40894e-11 
1.76403 -2.61734 1.26017e-11 
2.03069 -2.60377 4.35183e-12 
2.27845 -2.56241 2.82592e-12 
2.50691 -2.59165 5.71809e-13 
2.75042 -2.59134 8.62255e-14 
2.9945 -2.60118 -6.60608e-14 
3.21871 -2.58679 -3.46711e-14 
3.4426 -2.59673 -1.53104e-14 
3.64922 -2.57877 -1.10739e-14 
3.86503 -2.59732 2.03961e-15 
4.09186 -2.60555 -1.07814e-15 
4.29981 -2.57454 5.17305e-15 
4.51578 -2.59851 -1.95067e-15 
4.7321 -2.58949 -8.41039e-16 
4.94335 -2.58374 -1.6115e-16 
5.16013 -2.60467 3.70313e-16 
5.38034 -2.59161 5.55836e-16 
5.58905 -2.58075 7.39782e-16 
5.80517 -2.60085 8.52033e-16 
6.02913 -2.59608 1.00389e-15 
6.24077 -2.56846 1.07333e-15 
6.46125 -2.62201 7.65335e-16 
6.68797 -2.57052 8.50931e-16 
6.89574 -2.56666 6.33053e-16 
7.1256 -2.62599 2.48737e-16 
7.37699 -2.59415 1.68875e-16 
7.61452 -2.60796 2.36996e-17 
7.87334 -2.63673 -2.1904e-17 
8.07832 -2.53077 -1.27915e-14 
8.29648 -2.64051 2.914e-10 
8.48528 -2.53579 1.12721e-10 
-8.48528 -2.36894 -2.45477e-11 
-8.25682 -2.33721 1.47944e-11 
-8.00202 -2.35152 -6.46873e-15 
-7.75503 -2.42323 1.47626e-17 
-7.57352 -2.25247 -4.82961e-18 
-7.44855 -2.44371 -2.87532e-16 
-7.1795 -2.39348 -4.41537e-16 
-6.93983 -2.34054 -4.48744e-16 
-6.70535 -2.37922 -6.48754e-16 
-6.46806 -2.36635 -6.43413e-16 
-6.24245 -2.35659 -5.67504e-16 
-6.01555 -2.36043 -4.30457e-16 
-5.80258 -2.35366 -3.37702e-16 
-5.5732 -2.35002 -1.02115e-16 
-5.35936 -2.36037 5.90934e-17 
-5.13235 -2.36529 4.08081e-16 
-4.92516 -2.34712 1.26597e-15 
-4.69617 -2.3685 -5.02937e-15 
-4.48536 -2.36686 -8.76381e-15 
-4.25763 -2.37102 -9.30251e-15 
-4.05239 -2.35598 -5.43041e-15 
-3.83448 -2.34961 -8.55668e-16 
-3.62429 -2.3592 7.35614e-15 
-3.40544 -2.35895 1.01173e-14 
-3.18574 -2.35964 1.28435e-14 
-2.96133 -2.35639 -1.11509e-16 
-2.72995 -2.35306 -1.5288e-13 
-2.49142 -2.35348 -8.54958e-13 
-2.24342 -2.35598 -3.1114e-12 
-1.98851 -2.35664 -9.4833e-12 
-1.73431 -2.3565 -3.10912e-11 
-1.4738 -2.41536 -9.08455e-11 
-1.27245 -2.45528 -1.74678e-10 
-1.02592 -2.50337 -5.13513e-10 
-0.84846 -2.55561 -3.05538e-10 
-0.704262 -2.61783 -2.10449e-09 
-0.546363 -2.58009 8.81619e-10 
-0.414876 -2.75861 -6.67486e-08 
-0.143488 -2.77086 -1.73033e-08 
0.0405109 -2.84117 -1.35945e-07 
0.182867 -2.8027 5.51464e-08 
0.404532 -2.78787 -3.89256e-09 
0.592935 -2.6047 6.20543e-09 
0.726009 -2.63908 2.6865e-09 
0.909242 -2.58983 7.37369e-10 
1.03022 -2.46453 5.26257e-10 
1.22233 -2.4486 1.20567e-10 
1.44123 -2.40908 6.79576e-11 
1.69236 -2.40071 3.4133e-11 
1.94098 -2.3906 1.21205e-11 
2.18917 -2.34631 3.11686e-12 
2.45784 -2.35042 9.80254e-13 
2.69041 -2.36502 2.03196e-13 
2.92994 -2.37118 -1.11659e-15 
3.15082 -2.35394 -1.41395e-14 
3.3728 -2.36419 -1.03168e-14 
3.57988 -2.33907 -6.71527e-15 
3.79128 -2.3574 2.03628e-15 
4.00518 -2.37962 -1.53568e-15 
4.21173 -2.34332 7.68434e-15 
4.43411 -2.35516 8.45529e-15 
4.64125 -2.35856 5.79381e-15 
4.85547 -2.34913 -1.54063e-15 
5.07419 -2.36302 -6.16539e-16 
5.28386 -2.37103 -1.43207e-16 
5.50021 -2.34432 -5.88615e-18 
5.7198 -2.35995 2.85771e-16 
5.935 -2.37142 4.6989e-16 
6.15086 -2.33986 4.63811e-16 
6.3894 -2.36909 7.21747e-16 
6.59343 -2.36172 5.50907e-16 
6.82709 -2.31274 3.77093e-16 
7.05686 -2.3744 4.24838e-16 
7.27939 -2.3938 3.05526e-16 
7.54455 -2.3761 1.13825e-16 
7.7896 -2.41828 -8.57018e-17 
8.00586 -2.31315 -1.90216e-14 
8.26929 -2.37326 -3.99675e-10 
8.48528 -2.27534 -2.97069e-10 
-8.48528 -2.11972 -1.52423e-11 
-8.25547 -2.08792 3.35369e-12 
-8.0468 -2.11647 1.84012e-14 
-7.8034 -2.17187 -5.87195e-17 
-7.5156 -2.03232 3.0196e-17 
-7.32402 -2.21881 5.94796e-18 
-7.0809 -2.14845 6.33994e-17 
-6.79835 -2.13507 1.07532e-16 
-6.582 -2.15309 1.22992e-16 
-6.34898 -2.13166 1.90769e-16 
-6.12204 -2.12922 2.36366e-16 
-5.90919 -2.11543 2.41987e-16 
-5.68965 -2.13131 2.78058e-16 
-5.46386 -2.11572 3.9718e-16 
-5.24969 -2.14024 4.96798e-16 
-5.04141 -2.11225 8.1582e-16 
-4.81801 -2.13747 1.42183e-15 
-4.60658 -2.12977 2.09719e-15 
-4.39022 -2.14778 2.1284e-15 
-4.1859 -2.12089 1.45457e-15 
-3.97559 -2.12441 4.49066e-16 
-3.76351 -2.11431 -2.95464e-16 
-3.55371 -2.12932 -8.55139e-16 
-3.3395 -2.12589 5.09838e-16 
-3.12468 -2.12595 -1.24271e-14 
-2.90331 -2.12386 -3.57908e-14 
-2.67337 -2.12198 -8.03368e-14 
-2.43386 -2.12486 -1.5114e-13 
-2.18677 -2.12744 -2.75761e-13 
-1.93692 -2.12734 -4.27231e-13 
-1.68006 -2.15177 4.8026e-12 
-1.45207 -2.17484 -1.44101e-11 
-1.25059 -2.20963 -9.2184e-11 
-1.09487 -2.32793 -2.05305e-11 
-0.900071 -2.36867 3.01963e-10 
-0.730375 -2.46512 3.68201e-10 
-0.594799 -2.49493 2.62047e-09 
-0.490415 -2.723 2.29709e-08 
-0.217088 -2.76376 -6.02194e-07 
-0.0215911 -2.8158 -2.3711e-07 
0.118839 -2.74614 2.21136e-08 
0.455601 -2.71731 6.57748e-09 
0.641121 -2.50037 -1.49389e-08 
0.787899 -2.49348 -5.85446e-10 
0.873327 -2.35625 -2.99167e-10 
1.07021 -2.26409 -1.14804e-11 
1.26014 -2.22279 3.62841e-11 
1.50732 -2.19998 1.02234e-11 
1.75528 -2.18049 3.41521e-12 
1.99952 -2.15025 9.57899e-13 
2.27566 -2.14043 1.92207e-13 
2.51201 -2.11687 1.29535e-13 
2.75037 -2.14268 6.57509e-14 
2.97247 -2.12742 2.35246e-14 
3.20101 -2.12732 7.8933e-15 
3.4083 -2.1188 -3.86517e-17 
3.62729 -2.10868 3.35359e-16 
3.84312 -2.13214 -1.39439e-17 
4.04391 -2.13131 -6.71209e-16 
4.27453 -2.12298 -1.63808e-15 
4.48257 -2.11356 -2.11411e-15 
4.695 -2.12369 -1.73399e-15 
4.91639 -2.12498 -1.0924e-15 
5.12883 -2.12681 -6.55023e-16 
5.33719 -2.1344 -4.2782e-16 
5.56584 -2.12102 -3.23697e-16 
5.78162 -2.12913 -2.81514e-16 
5.99207 -2.12931 -2.55622e-16 
6.24001 -2.13618 -2.0876e-16 
6.44602 -2.11043 -1.70724e-16 
6.66112 -2.12245 -1.30048e-16 
6.9274 -2.10716 -1.01835e-16 
7.14604 -2.14112 -4.88217e-17 
7.38212 -2.18389 -1.87463e-17 
7.57953 -2.08595 -3.44203e-18 
7.75365 -2.18904 4.53512e-17 
7.96253 -2.07801 3.56501e-15 
8.20513 -2.1513 -2.95549e-11 
8.48528 -2.08766 9.37011e-11 
-8.48528 -1.82056 3.0074e-11 
-8.30603 -1.84663 5.87109e-11 
-7.89863 -1.91616 2.89937e-18 
[...]
POINT_DATA 1978 
VECTORS vectors float
0.00865594 0.0282015 0.999564 
-0.00136373 0.0025291 0.999996 
8.76807e-05 0.000932893 1 
2.13767e-05 0.000120334 1 
2.096e-05 -0.000547163 1 
2.11198e-05 -0.0012477 0.999999 
2.02456e-05 -0.00196391 0.999998 
3.73062e-05 -0.00268907 0.999996 
2.35072e-05 -0.00341624 0.999994 
3.34492e-05 -0.00409969 0.999992 
2.30643e-05 -0.00478161 0.999989 
2.13549e-05 -0.00538821 0.999985 
1.5737e-05 -0.00598041 0.999982 
6.56139e-06 -0.00648071 0.999979 
-9.20009e-07 -0.00698351 0.999976 
-1.41684e-05 -0.00745006 0.999972 
-7.00059e-06 -0.00795153 0.999968 
-2.9188e-05 -0.00843772 0.999964 
-1.0667e-05 -0.00900322 0.999959 
-2.36691e-05 -0.00949195 0.999955 
-2.73457e-05 -0.00982693 0.999952 
-3.83611e-05 -0.00982905 0.999952 
-5.83337e-05 -0.00934835 0.999956 
-6.59018e-05 -0.00840926 0.999965 
-7.81442e-05 -0.00699084 0.999976 
-0.000118268 -0.00458651 0.999989 
-0.000161366 -0.000110363 1 
-0.000227937 0.007396 0.999973 
-0.000280139 0.0184024 0.999831 
-0.000373499 0.0334356 0.999441 
-0.000308966 0.0538348 0.99855 
-0.000464891 0.0803368 0.996768 
-0.00156994 0.131196 0.991355 
-0.00173558 0.188068 0.982154 
-0.00522201 0.259904 0.96562 
-0.00718804 0.359787 0.933007 
-0.0086176 0.470847 0.882173 
-0.00521995 0.522568 0.852581 
0.00255113 0.893282 0.449489 
-0.00162531 0.984229 -0.176894 
0.00461187 0.82832 -0.560236 
0.00855028 0.50999 -0.860138 
0.00851099 0.453864 -0.89103 
0.00303577 0.366601 -0.930373 
0.00408742 0.260677 -0.965417 
0.00231114 0.17991 -0.98368 
0.000961696 0.122186 -0.992507 
0.00047114 0.0821711 -0.996618 
0.000458548 0.0513691 -0.99868 
0.000327547 0.031289 -0.99951 
0.000183898 0.0189449 -0.999821 
0.000374304 0.00759158 -0.999971 
0.000224346 -0.000384315 -1 
6.50143e-05 -0.0052633 -0.999986 
4.23099e-05 -0.00744048 -0.999972 
5.17927e-05 -0.00841631 -0.999965 
4.83776e-05 -0.00913306 -0.999958 
5.21151e-05 -0.00963595 -0.999954 
3.12723e-05 -0.00973646 -0.999953 
1.20352e-05 -0.00941934 -0.999956 
1.5576e-05 -0.00896746 -0.99996 
2.13763e-05 -0.0084362 -0.999964 
1.81768e-05 -0.00795921 -0.999968 
9.48844e-06 -0.00752597 -0.999972 
2.15299e-06 -0.00703795 -0.999975 
-8.1683e-06 -0.00654238 -0.999979 
-1.70092e-05 -0.00600814 -0.999982 
-2.35851e-05 -0.00539125 -0.999985 
-2.12496e-05 -0.0047345 -0.999989 
-3.07632e-05 -0.00410374 -0.999992 
-3.2344e-05 -0.00330389 -0.999995 
-2.16654e-05 -0.00263276 -0.999997 
-3.10828e-05 -0.00196562 -0.999998 
-2.42947e-05 -0.00120273 -0.999999 
-1.51076e-05 -0.000568472 -1 
-1.63918e-05 5.87201e-05 -1 
-0.000228774 0.000776894 -1 
0.00293558 0.00139463 -0.999995 
-0.0102925 0.0379838 -0.999225 
0.0348179 0.102942 0.994077 
0.00221786 0.0073255 0.999971 
0.00059535 0.00118076 0.999999 
0.000317705 0.000287284 1 
0.000364806 -0.000443318 1 
0.000387558 -0.00124298 0.999999 
0.000545833 -0.00189727 0.999998 
0.00045193 -0.00257391 0.999997 
0.000447129 -0.00327544 0.999995 
0.000382548 -0.00395321 0.999992 
0.000297116 -0.00455423 0.99999 
0.000126491 -0.00516043 0.999987 
-3.77914e-05 -0.00562738 0.999984 
-0.000264591 -0.00610697 0.999981 
-0.000566523 -0.00653543 0.999978 
-0.000873677 -0.00703786 0.999975 
-0.0013109 -0.00747006 0.999971 
-0.00143021 -0.00815415 0.999966 
-0.00175373 -0.00873857 0.99996 
-0.00160261 -0.00933223 0.999955 
-0.00164067 -0.0096243 0.999952 
-0.00129812 -0.00950307 0.999954 
-0.00100256 -0.00878887 0.999961 
-0.000856162 -0.00737329 0.999972 
-0.000970347 -0.00499683 0.999987 
-0.00126129 -0.00097124 0.999999 
-0.0014318 0.00557055 0.999983 
-0.00134811 0.0152801 0.999882 
-0.000877144 0.0287412 0.999587 
-4.33944e-05 0.0473744 0.998877 
0.0012443 0.0727792 0.997347 
0.00244978 0.108416 0.994103 
0.00281929 0.16548 0.986209 
0.00526374 0.236618 0.971588 
0.00686958 0.323354 0.946253 
0.0142103 0.420387 0.907234 
0.0572909 0.464705 0.88361 
8.23566e-05 0.5656 0.824679 
0.0162691 0.941325 0.337108 
-0.0268943 0.972755 -0.230272 
-0.0541746 0.844983 -0.532042 
0.00627563 0.573079 -0.819476 
-0.0539166 0.472673 -0.879587 
-0.0219777 0.396989 -0.91756 
-0.0123003 0.292255 -0.956261 
-0.0110229 0.202117 -0.979299 
-0.00518438 0.141033 -0.989991 
-0.00253915 0.0942732 -0.995543 
-0.00121836 0.0610665 -0.998133 
0.000218464 0.0376392 -0.999291 
0.00201066 0.021595 -0.999765 
0.00167961 0.0104122 -0.999944 
0.00151776 0.00130349 -0.999998 
0.00105989 -0.00414716 -0.999991 
0.000845103 -0.00678451 -0.999977 
0.000816028 -0.00829595 -0.999965 
0.0011368 -0.00913374 -0.999958 
0.00136704 -0.0095261 -0.999954 
0.00153794 -0.00941421 -0.999955 
0.0018523 -0.00892026 -0.999959 
0.00156921 -0.00835952 -0.999964 
0.00138567 -0.00774188 -0.999969 
0.00109402 -0.00720905 -0.999973 
0.000666306 -0.00680522 -0.999977 
0.000371327 -0.00631825 -0.99998 
0.000119761 -0.00585092 -0.999983 
-8.07306e-05 -0.00538224 -0.999986 
-0.000238867 -0.00479068 -0.999989 
-0.000387849 -0.00416504 -0.999991 
-0.00035149 -0.00356267 -0.999994 
-0.000520983 -0.0028437 -0.999996 
-0.000552261 -0.00222344 -0.999997 
-0.000395996 -0.00156475 -0.999999 
-0.000493983 -0.000868927 -1 
-0.000442368 -0.000249171 -1 
-0.000351712 0.000426602 -1 
-0.000717176 0.00143613 -0.999999 
-0.00333392 0.0101432 -0.999943 
-0.0479391 0.147932 -0.987835 
0.00317059 0.0936593 0.995598 
0.000512663 0.00672717 0.999977 
0.00057535 0.000813732 1 
0.000655012 5.4318e-05 1 
0.000566884 -0.00039583 1 
0.00070834 -0.000695378 1 
0.000662417 -0.00140296 0.999999 
0.000586512 -0.00206751 0.999998 
0.000579505 -0.00270635 0.999996 
0.000468582 -0.00334287 0.999994 
0.000322844 -0.00394629 0.999992 
0.000148775 -0.00450128 0.99999 
-7.96238e-05 -0.00493389 0.999988 
-0.000399517 -0.00535486 0.999986 
-0.000756456 -0.00574491 0.999983 
-0.00122453 -0.00615406 0.99998 
-0.00174046 -0.00655048 0.999977 
-0.00223315 -0.00725964 0.999971 
-0.00260026 -0.00798246 0.999965 
-0.00271874 -0.00882273 0.999957 
-0.00256136 -0.00943635 0.999952 
-0.00209165 -0.0097141 0.999951 
-0.00144618 -0.00937272 0.999955 
-0.000763275 -0.00818829 0.999966 
-0.000298045 -0.00595874 0.999982 
-0.000128875 -0.00232323 0.999997 
-1.9275e-05 0.00330502 0.999995 
0.000487228 0.0114978 0.999934 
0.0018069 0.0228178 0.999738 
0.00447751 0.0380589 0.999265 
0.00904954 0.0593494 0.998196 
0.0118689 0.0938772 0.995513 
0.0174302 0.131377 0.991179 
0.0279433 0.208141 0.9777 
0.0454666 0.292305 0.955244 
0.044928 0.374811 0.926012 
0.10603 0.444572 0.889445 
0.0217056 0.615541 0.787806 
0.0526878 0.926837 0.371748 
-0.00796935 0.999541 -0.029234 
-0.00171563 0.926302 -0.376777 
-0.011918 0.645467 -0.763695 
-0.109315 0.415632 -0.90294 
-0.0461877 0.347266 -0.936629 
-0.033655 0.252055 -0.967127 
-0.0386862 0.192187 -0.980596 
-0.0241196 0.137631 -0.99019 
-0.0153665 0.0972882 -0.995138 
-0.00766952 0.0656138 -0.997816 
-0.00356374 0.0428411 -0.999076 
-0.00243744 0.0260883 -0.999657 
-8.50911e-05 0.0128044 -0.999918 
0.000623463 0.00440283 -0.99999 
0.000489867 -0.00184671 -0.999998 
0.000249146 -0.00560951 -0.999984 
0.00059152 -0.00792392 -0.999968 
0.00117416 -0.0091548 -0.999957 
0.00186098 -0.00962285 -0.999952 
0.00236399 -0.00948788 -0.999952 
0.00267192 -0.00893767 -0.999956 
0.00263249 -0.00814611 -0.999963 
0.00235291 -0.00742005 -0.99997 
0.00192238 -0.00675101 -0.999975 
0.0013736 -0.00628131 -0.999979 
0.000894256 -0.00591536 -0.999982 
0.000521235 -0.00548416 -0.999985 
0.00016479 -0.00512411 -0.999987 
-9.71152e-05 -0.00469238 -0.999989 
-0.000253021 -0.00413624 -0.999991 
-0.000443318 -0.00355428 -0.999994 
-0.000523917 -0.00299305 -0.999995 
-0.000532934 -0.00232391 -0.999997 
-0.00063159 -0.00171632 -0.999998 
-0.000659093 -0.00111979 -0.999999 
-0.000647838 -0.00043735 -1 
-0.000657135 0.000175514 -1 
-0.000566522 0.000861136 -0.999999 
-0.00159445 0.00807635 -0.999966 
0.00120922 0.0774415 -0.996996 
-0.00961642 0.0883076 0.996046 
-0.000148277 0.00517912 0.999987 
0.000336937 0.000832754 1 
0.00046072 0.000123752 1 
0.000347871 -0.000507672 1 
0.000516283 -0.000976124 0.999999 
0.000405647 -0.00161146 0.999999 
0.000317878 -0.00234204 0.999997 
0.000273134 -0.00289292 0.999996 
0.000114658 -0.00345355 0.999994 
-5.38604e-05 -0.0039512 0.999992 
-0.000274942 -0.00434544 0.999991 
-0.000529347 -0.00474365 0.999989 
-0.000904146 -0.00502846 0.999987 
-0.00127583 -0.00537883 0.999985 
-0.00174619 -0.00568986 0.999982 
-0.00222805 -0.00633786 0.999977 
-0.00264766 -0.00708574 0.999971 
-0.0028864 -0.0080468 0.999963 
-0.00287023 -0.00891003 0.999956 
-0.00254189 -0.00962658 0.99995 
-0.00192369 -0.00989748 0.999949 
-0.00109897 -0.00943701 0.999955 
-0.000121103 -0.00806752 0.999967 
0.000881951 -0.00558065 0.999984 
0.00197071 -0.00166205 0.999997 
0.00341093 0.00417991 0.999985 
0.00574632 0.0123541 0.999907 
0.00960357 0.0229458 0.999691 
0.0156604 0.0365887 0.999208 
0.0240004 0.0563297 0.998124 
0.0348575 0.0808578 0.996116 
0.0486149 0.112867 0.99242 
0.0512495 0.159772 0.985823 
0.0758883 0.222577 0.971957 
0.0947124 0.313299 0.94492 
0.129615 0.376159 0.917444 
0.0562282 0.560028 0.826563 
0.0682629 0.867675 0.492423 
0.0064694 0.993146 0.116699 
-0.0480025 0.953581 -0.297287 
-0.0610534 0.566885 -0.821531 
-0.129803 0.309666 -0.941944 
-0.0773149 0.279127 -0.957136 
-0.0910916 0.219972 -0.971244 
-0.0666498 0.145838 -0.987061 
-0.0485163 0.109843 -0.992764 
-0.0299041 0.0748414 -0.996747 
-0.0184922 0.050866 -0.998534 
-0.012292 0.0335507 -0.999361 
-0.00712806 0.0190333 -0.999793 
-0.00444724 0.00943938 -0.999946 
-0.00229061 0.00211566 -0.999995 
-0.00142118 -0.00307454 -0.999994 
-0.00052689 -0.00666798 -0.999978 
0.00036239 -0.00864829 -0.999963 
0.00129387 -0.00970847 -0.999952 
0.00207002 -0.00985181 -0.999949 
0.00256976 -0.00942676 -0.999952 
0.00283762 -0.00853107 -0.99996 
0.00278251 -0.00758823 -0.999967 
0.00248781 -0.00673323 -0.999974 
0.00203014 -0.00603104 -0.99998 
0.0015604 -0.0055551 -0.999983 
0.0011132 -0.00524213 -0.999986 
0.000721499 -0.00490139 -0.999988 
0.000402579 -0.00459381 -0.999989 
0.000163881 -0.00421446 -0.999991 
-5.72085e-05 -0.00369706 -0.999993 
-0.000156571 -0.00319149 -0.999995 
-0.000267992 -0.00266935 -0.999996 
-0.00032621 -0.0019837 -0.999998 
-0.000397471 -0.0014276 -0.999999 
-0.000461938 -0.000833273 -1 
-0.000373573 -0.000349116 -1 
-0.000467721 5.73425e-05 -1 
-0.00033741 0.000575564 -1 
-0.000256894 0.00336077 -0.999994 
0.00395401 0.0559767 -0.998424 
0.0112944 0.0619983 0.998011 
0.00108166 0.00610602 0.999981 
0.000299092 0.000296542 1 
0.000295392 -0.000124856 1 
0.000215935 -0.000667965 1 
0.000290116 -0.00109157 0.999999 
0.000171713 -0.00136167 0.999999 
0.000211793 -0.00184414 0.999998 
8.68178e-05 -0.00242513 0.999997 
4.62843e-06 -0.00295677 0.999996 
-0.000164895 -0.00343617 0.999994 
-0.000361637 -0.00381113 0.999993 
-0.00060032 -0.00416386 0.999991 
-0.000884845 -0.00445896 0.99999 
-0.00126202 -0.00469723 0.999988 
-0.00163111 -0.00498703 0.999986 
-0.00209089 -0.00554423 0.999982 
-0.00248388 -0.00628489 0.999977 
-0.00278375 -0.0073174 0.999969 
-0.00286669 -0.00832209 0.999961 
-0.00269523 -0.00931528 0.999953 
-0.00222252 -0.00996681 0.999948 
-0.00140724 -0.0100515 0.999948 
-0.000363275 -0.00929742 0.999957 
0.00100376 -0.00747049 0.999972 
0.00271075 -0.00442227 0.999987 
0.00500374 0.000194496 0.999987 
0.00826406 0.00670274 0.999943 
0.0131248 0.0151395 0.999799 
0.0202657 0.0252187 0.999477 
0.0303442 0.0385311 0.998797 
0.0444267 0.0567284 0.997401 
0.0659186 0.0748823 0.995011 
0.0882763 0.106793 0.990355 
0.0970517 0.155231 0.983099 
0.120178 0.232593 0.96512 
0.162299 0.316359 0.934653 
0.0995021 0.549737 0.829391 
0.0234495 0.730562 0.682444 
-0.0163775 0.9921 0.124373 
-0.0403908 0.711963 -0.701054 
-0.133363 0.555387 -0.820828 
-0.149819 0.262228 -0.953305 
-0.133048 0.187926 -0.97313 
-0.105547 0.141233 -0.984334 
-0.0869317 0.0981574 -0.991367 
-0.0615802 0.0770128 -0.995127 
-0.0438463 0.0574567 -0.997385 
-0.0304703 0.042589 -0.998628 
-0.0208954 0.0289884 -0.999361 
-0.013233 0.0185107 -0.999741 
-0.00917609 0.00884329 -0.999919 
-0.00547548 0.00208103 -0.999983 
-0.00332461 -0.00299588 -0.99999 
-0.0015079 -0.0066023 -0.999977 
-0.000153405 -0.00887827 -0.999961 
0.000937265 -0.0099222 -0.99995 
0.0018563 -0.0101027 -0.999947 
0.00243711 -0.00964632 -0.999951 
0.00275585 -0.00878088 -0.999958 
0.0027785 -0.007642 -0.999967 
0.00259413 -0.0066147 -0.999975 
0.00225316 -0.00578653 -0.999981 
0.00183957 -0.00517493 -0.999985 
0.00142486 -0.00479833 -0.999987 
0.00104713 -0.0045765 -0.999989 
0.000711029 -0.00428731 -0.999991 
0.000456176 -0.00398685 -0.999992 
0.000216457 -0.00365038 -0.999993 
9.76539e-05 -0.00314448 -0.999995 
-2.52422e-05 -0.00267189 -0.999996 
-0.000134646 -0.00217296 -0.999998 
-0.000184445 -0.00151501 -0.999999 
-0.000249338 -0.000970945 -1 
-0.000227993 -0.000422776 -1 
-0.000252837 0.00012671 -1 
-0.000223871 0.000820986 -1 
-9.95007e-05 0.00459148 -0.999989 
-0.000498618 0.0639826 -0.997951 
0.0289091 0.0514965 0.998254 
0.00234054 0.00421604 0.999988 
0.000330953 0.000938687 1 
0.000276545 0.000280325 1 
0.000232549 -0.000167842 1 
0.000172527 -0.000952894 1 
9.80802e-05 -0.00164344 0.999999 
4.85348e-05 -0.00206896 0.999998 
-6.70935e-05 -0.00261002 0.999997 
-0.000190108 -0.0030358 0.999995 
-0.000369385 -0.00337905 0.999994 
-0.000590548 -0.00369846 0.999993 
-0.000846145 -0.00396136 0.999992 
-0.00115085 -0.00419321 0.999991 
-0.00150709 -0.00437542 0.999989 
-0.00187536 -0.00484706 0.999986 
-0.0022342 -0.00549384 0.999982 
-0.00253471 -0.00645704 0.999976 
-0.00268277 -0.0074891 0.999968 
-0.00270465 -0.00860937 0.999959 
-0.00249163 -0.00955578 0.999951 
-0.00200321 -0.0101735 0.999946 
-0.00120889 -0.0102574 0.999947 
-9.23826e-05 -0.00959288 0.999954 
0.00142035 -0.00805934 0.999967 
0.00356154 -0.00540682 0.999979 
0.00658259 -0.00148414 0.999977 
0.0107336 0.00383394 0.999935 
0.0165769 0.0103759 0.999809 
0.0253891 0.0185155 0.999506 
0.0371428 0.0271212 0.998942 
0.0520098 0.0392321 0.997876 
0.0752535 0.0494928 0.995935 
0.107035 0.0721267 0.991636 
0.138436 0.0973544 0.985575 
0.142331 0.170051 0.975102 
0.191013 0.252855 0.948461 
0.130387 0.624406 0.770141 
0.0408203 0.827489 0.559996 
-0.0122189 0.999009 -0.0428009 
-0.060506 0.89776 -0.436311 
-0.185991 0.439453 -0.878799 
-0.185755 0.240854 -0.95262 
-0.157749 0.135092 -0.978195 
-0.127372 0.0902831 -0.987737 
-0.0960512 0.0604867 -0.993537 
-0.0663093 0.0495501 -0.996568 
-0.0474831 0.036311 -0.998212 
-0.0335223 0.0273545 -0.999064 
-0.02197 0.0178962 -0.999598 
-0.0151768 0.0102663 -0.999832 
-0.00952151 0.00286914 -0.999951 
-0.00597316 -0.00215977 -0.99998 
-0.00309896 -0.00593136 -0.999978 
-0.00115431 -0.00844397 -0.999964 
0.00027234 -0.00990412 -0.999951 
0.00132974 -0.0103685 -0.999945 
0.0020317 -0.0101416 -0.999947 
0.00247985 -0.00937733 -0.999953 
0.00266787 -0.00836589 -0.999961 
0.00259825 -0.00709857 -0.999971 
0.00240742 -0.00603105 -0.999979 
0.00210789 -0.00519786 -0.999984 
0.0017451 -0.00461941 -0.999988 
0.00137901 -0.00427446 -0.99999 
0.00103467 -0.00410496 -0.999991 
0.000741441 -0.00384897 -0.999992 
0.000480711 -0.00359747 -0.999993 
0.000295555 -0.00328478 -0.999995 
0.000141859 -0.00281667 -0.999996 
2.03296e-05 -0.00236996 -0.999997 
-7.08022e-05 -0.00189146 -0.999998 
-0.000113005 -0.00138743 -0.999999 
-0.000156342 -0.000951944 -1 
-0.000179623 -0.000400527 -1 
-0.000202765 0.000112392 -1 
-0.00025889 0.00069283 -1 
-0.000776263 0.00484002 -0.999988 
-0.011999 0.0470797 -0.998819 
0.0354946 0.0532702 0.997948 
0.00240683 0.00375848 0.99999 
0.000466293 0.000778592 1 
0.000306469 0.000121968 1 
0.000228159 -0.000409802 1 
0.000223389 -0.000808247 1 
0.000147803 -0.00132516 0.999999 
8.46598e-05 -0.00181039 0.999998 
-1.0844e-05 -0.00224422 0.999997 
-0.000128082 -0.00264254 0.999997 
-0.00026924 -0.00297271 0.999996 
-0.000474709 -0.00329148 0.999994 
-0.000714188 -0.0035194 0.999994 
-0.000986134 -0.00372807 0.999993 
-0.00127656 -0.0039157 0.999992 
-0.00162909 -0.00426639 0.99999 
-0.00194466 -0.00484029 0.999986 
-0.00221648 -0.0057491 0.999981 
-0.00235756 -0.00678025 0.999974 
-0.00242257 -0.00798956 0.999965 
-0.00233226 -0.00908393 0.999956 
-0.00205498 -0.00996465 0.999948 
-0.00151621 -0.0104287 0.999944 
-0.000627402 -0.0103874 0.999946 
0.000604945 -0.00969814 0.999953 
0.0024846 -0.00816361 0.999964 
0.00520546 -0.00564408 0.999971 
0.00907156 -0.00210211 0.999957 
0.0144832 0.00216029 0.999893 
0.0223318 0.0074306 0.999723 
0.0329705 0.0122677 0.999381 
0.0472911 0.0177513 0.998723 
0.0649063 0.0231726 0.997622 
0.0923766 0.0279483 0.995332 
0.124762 0.0437671 0.991221 
0.174424 0.0639046 0.982595 
0.21782 0.205391 0.954133 
0.183553 0.496096 0.848644 
-0.00120025 0.763035 0.646356 
0.107519 0.769812 0.629149 
-0.0350523 0.782272 -0.62195 
-0.0889195 0.418919 -0.903659 
-0.207248 0.184192 -0.960792 
-0.15854 0.0507174 -0.986049 
-0.117627 0.0421723 -0.992162 
-0.0870018 0.0225935 -0.995952 
-0.0678768 0.0271081 -0.997325 
-0.0511997 0.0179003 -0.998528 
-0.0361275 0.0145483 -0.999241 
-0.0250513 0.0110275 -0.999625 
-0.0170673 0.00458151 -0.999844 
-0.0114967 0.000639505 -0.999934 
-0.00690909 -0.00426277 -0.999967 
-0.00370095 -0.00697503 -0.999969 
-0.00147574 -0.00913308 -0.999957 
-2.89205e-06 -0.0102601 -0.999947 
0.00107588 -0.0105806 -0.999943 
0.00173551 -0.0103485 -0.999945 
0.00216403 -0.00962124 -0.999951 
0.00235832 -0.00855621 -0.999961 
0.00239548 -0.00742543 -0.99997 
0.00224274 -0.00610933 -0.999979 
0.00204249 -0.00513985 -0.999985 
0.00175555 -0.00444314 -0.999989 
0.00143223 -0.00400838 -0.999991 
0.00111401 -0.00378921 -0.999992 
0.000835751 -0.00361389 -0.999993 
0.000564622 -0.00340715 -0.999994 
0.000352897 -0.00311772 -0.999995 
0.000195378 -0.00280526 -0.999996 
4.00898e-05 -0.00233908 -0.999997 
-5.7175e-05 -0.00188985 -0.999998 
-0.000139421 -0.00133578 -0.999999 
-0.000179876 -0.000784315 -1 
-0.000231809 -0.000291927 -1 
-0.000237328 0.000106662 -1 
-0.000335446 0.000562618 -1 
-0.00105479 0.0026996 -0.999996 
-0.0203739 0.0422295 -0.9989 
0.035186 0.0594031 0.997613 
0.002423 0.00419415 0.999988 
0.000477831 0.000640146 1 
0.000383016 0.000200942 1 
0.000308078 -0.000242708 1 
0.000276188 -0.000778855 1 
0.000193857 -0.00134484 0.999999 
0.000129229 -0.00179694 0.999998 
1.21657e-05 -0.00222297 0.999998 
-8.9544e-05 -0.00253204 0.999997 
-0.000265409 -0.00288172 0.999996 
-0.000469471 -0.00314207 0.999995 
-0.000690543 -0.00330541 0.999994 
-0.000944349 -0.0034868 0.999993 
-0.00125753 -0.00376681 0.999992 
-0.00149298 -0.00416782 0.99999 
-0.00178423 -0.00490048 0.999986 
-0.00189001 -0.00582626 0.999981 
-0.00196356 -0.0070357 0.999973 
-0.00192126 -0.00826924 0.999964 
-0.00177082 -0.00941105 0.999954 
-0.00143198 -0.0102361 0.999947 
-0.000883016 -0.0107211 0.999942 
1.19165e-05 -0.010817 0.999941 
0.00127936 -0.0103513 0.999946 
0.00318704 -0.00927711 0.999952 
0.00598799 -0.00747585 0.999954 
0.00998758 -0.00518715 0.999937 
0.0158756 -0.00239018 0.999871 
0.0239523 0.000100746 0.999713 
0.0346187 0.00135801 0.9994 
0.0486672 0.00107099 0.998814 
0.0685817 0.00438673 0.997636 
0.0915497 -0.00125818 0.9958 
0.122268 0.00772723 0.992467 
0.164754 0.0202127 0.986128 
0.160197 0.127587 0.978805 
0.243063 0.388282 0.888908 
0.146272 0.726476 0.671444 
-0.00151688 0.981705 0.190403 
-0.0989693 0.771791 -0.628126 
-0.214699 0.365257 -0.90581 
-0.182785 0.0947135 -0.97858 
-0.162208 0.017188 -0.986607 
-0.119142 0.00989791 -0.992828 
-0.0843704 -0.00397891 -0.996427 
-0.0615001 0.00145012 -0.998106 
-0.0438584 0.00135346 -0.999037 
-0.0310706 0.00134074 -0.999516 
-0.0219249 0.000768546 -0.999759 
-0.0149957 -0.00268637 -0.999884 
-0.0100742 -0.00478217 -0.999938 
-0.00586925 -0.00775515 -0.999953 
-0.00318806 -0.00932253 -0.999951 
-0.0013713 -0.0105056 -0.999944 
1.62133e-05 -0.0109219 -0.99994 
0.000856492 -0.0108308 -0.999941 
0.00142369 -0.0102757 -0.999946 
0.00178252 -0.00934168 -0.999955 
0.00188605 -0.0081916 -0.999965 
0.00199684 -0.00692585 -0.999974 
0.00183548 -0.00564883 -0.999982 