# vtk DataFile Version 3.0 
Exported using Morpho https://github.com/Morpho-lang/morpho 
ASCII 
DATASET UNSTRUCTURED_GRID 

POINTS 1978 float 
-8.48529 -2.81983 2.33136e-09 
-8.26046 -2.82844 5.82181e-10 
-8.03184 -2.82844 -1.1614e-11 
-7.79414 -2.82845 2.71373e-13 
-7.51406 -2.82844 4.9602e-11 
-7.25696 -2.82845 9.82627e-11 
-7.00939 -2.82843 8.82038e-11 
-6.79547 -2.82844 4.60873e-11 
-6.57355 -2.82844 6.37723e-11 
-6.36902 -2.82844 7.47075e-11 
-6.14978 -2.82844 -4.0797e-11 
-5.92242 -2.82844 -4.7667e-11 
-5.70799 -2.82844 -6.4499e-11 
-5.50919 -2.82844 -1.61941e-10 
-5.2822 -2.82844 -1.86608e-10 
-5.08092 -2.82844 -2.34573e-10 
-4.86358 -2.82844 -1.85122e-10 
-4.66291 -2.82844 -4.04257e-10 
-4.44747 -2.82844 -5.88106e-10 
-4.23947 -2.82844 -6.62023e-10 
-4.02631 -2.82844 -4.65861e-10 
-3.82657 -2.82844 -6.23455e-10 
-3.61493 -2.82844 -9.48632e-10 
-3.4038 -2.82844 -1.61581e-09 
-3.18 -2.82844 -2.20207e-09 
-2.95731 -2.82844 -4.79289e-09 
-2.73041 -2.82844 -6.80887e-09 
-2.50374 -2.82844 -2.34186e-09 
-2.2834 -2.82843 1.01023e-08 
-2.08238 -2.82844 3.66284e-08 
-1.88982 -2.82844 1.07625e-07 
-1.70122 -2.82843 2.68901e-07 
-1.53482 -2.82843 9.98989e-07 
-1.37354 -2.82841 2.06706e-06 
-1.23586 -2.82841 3.92992e-06 
-1.10665 -2.82842 6.59365e-06 
-0.972806 -2.82835 1.75352e-05 
-0.805172 -2.82829 4.29233e-05 
-0.630682 -2.82819 8.12931e-05 
-0.442824 -2.82792 9.63441e-05 
0.67817 -2.82829 -0.000192995 
0.80133 -2.82825 -4.82029e-05 
0.950668 -2.82833 -2.948e-05 
1.07496 -2.82837 -1.63351e-05 
1.23462 -2.8284 -6.95053e-06 
1.36615 -2.82841 -3.28569e-06 
1.54221 -2.82842 -1.03865e-06 
1.70332 -2.82843 -2.83979e-07 
1.87388 -2.82843 -1.13164e-07 
2.07855 -2.82843 -4.51388e-08 
2.27064 -2.82844 -1.58907e-08 
2.47882 -2.82844 4.2565e-09 
2.68761 -2.82844 7.69493e-09 
2.93228 -2.82844 5.22069e-09 
3.16832 -2.82844 3.15717e-09 
3.39833 -2.82844 2.05698e-09 
3.62203 -2.82844 8.83633e-10 
3.82982 -2.82844 4.20742e-10 
4.04318 -2.82844 5.88786e-10 
4.26344 -2.82844 7.65452e-10 
4.45839 -2.82844 5.77564e-10 
4.67125 -2.82844 4.14447e-10 
4.87037 -2.82844 1.70291e-10 
5.07972 -2.82844 1.49366e-10 
5.28497 -2.82844 1.83544e-10 
5.50272 -2.82844 1.85747e-10 
5.70631 -2.82844 8.85444e-11 
5.92587 -2.82844 4.58607e-11 
6.14849 -2.82844 1.91829e-11 
6.3504 -2.82844 -3.36671e-11 
6.58716 -2.82844 -4.19608e-11 
6.80122 -2.82844 -5.65874e-11 
7.00321 -2.82844 -1.22723e-10 
7.26997 -2.82844 -7.6912e-11 
7.50198 -2.82844 -4.39243e-11 
7.73965 -2.82844 2.25555e-11 
8.02022 -2.82844 4.36042e-11 
8.20503 -2.82844 -6.99635e-10 
8.48529 -2.81982 -2.09354e-09 
-8.48529 -2.58134 -3.36086e-09 
-8.25583 -2.58845 1.21306e-09 
-8.02315 -2.59364 4.51146e-13 
-7.77861 -2.60643 4.68784e-13 
-7.53383 -2.63257 -4.13249e-13 
-7.25179 -2.62728 1.26727e-12 
-6.99715 -2.59905 -4.70374e-13 
-6.7605 -2.60406 2.38717e-13 
-6.53407 -2.58179 -1.20733e-14 
-6.31144 -2.59394 1.34897e-13 
-6.08131 -2.60301 -1.39945e-14 
-5.86222 -2.59036 -1.1208e-13 
-5.65596 -2.57187 -2.17598e-13 
-5.43578 -2.60614 -7.89593e-13 
-5.22535 -2.57962 -4.19452e-13 
-5.00891 -2.60054 -4.76081e-13 
-4.7994 -2.58354 2.10884e-13 
-4.58389 -2.60187 -2.21406e-13 
-4.36696 -2.59382 1.80279e-12 
-4.15015 -2.59916 6.52464e-12 
-3.93917 -2.58136 1.81579e-11 
-3.7261 -2.5919 3.69376e-11 
-3.50561 -2.58555 9.09278e-11 
-3.27724 -2.59435 2.31497e-10 
-3.04091 -2.58954 6.24809e-10 
-2.80193 -2.59486 1.67611e-09 
-2.55801 -2.59998 5.17677e-09 
-2.31561 -2.60224 1.65878e-08 
-2.08551 -2.59641 5.76814e-08 
-1.86855 -2.61065 1.47643e-07 
-1.66476 -2.6105 3.81962e-07 
-1.48102 -2.62793 8.46978e-07 
-1.30982 -2.6281 1.82626e-06 
-1.15689 -2.64376 3.58063e-06 
-1.0134 -2.66537 4.75897e-06 
-0.960987 -2.54257 4.11479e-06 
-0.843317 -2.69933 4.13048e-06 
-0.628849 -2.6848 -7.54854e-06 
-0.379229 -2.70585 8.4849e-06 
-0.267491 -2.85828 -2.08714e-05 
0.530379 -2.79244 6.5927e-05 
0.690601 -2.62731 -3.99335e-06 
0.852467 -2.65776 -6.29724e-06 
1.00023 -2.6239 -5.97998e-06 
1.14871 -2.66625 -3.27888e-06 
1.29559 -2.59985 -2.43356e-06 
1.45576 -2.63527 -1.1714e-06 
1.63648 -2.59967 -5.51027e-07 
1.81528 -2.59862 -2.55165e-07 
2.03103 -2.62062 -7.49856e-08 
2.26824 -2.5932 -2.74259e-08 
2.48576 -2.57995 -1.04686e-08 
2.72746 -2.60639 -2.43351e-09 
2.96919 -2.59586 -8.91758e-10 
3.20191 -2.59382 -3.41298e-10 
3.43174 -2.59279 -1.17782e-10 
3.64627 -2.58084 -5.70912e-11 
3.86419 -2.59189 -2.40451e-11 
4.0893 -2.60325 -6.88784e-12 
4.29364 -2.57679 -3.79906e-12 
4.50863 -2.60035 4.40959e-14 
4.7162 -2.58397 -5.41107e-13 
4.92879 -2.59519 -2.02678e-13 
5.14118 -2.58913 3.73814e-14 
5.36154 -2.60185 6.43652e-13 
5.57536 -2.58362 2.97452e-13 
5.79434 -2.59957 1.20367e-13 
6.02206 -2.60055 -7.18172e-14 
6.23836 -2.57435 -6.26316e-14 
6.46031 -2.61038 -1.67247e-13 
6.68855 -2.58396 2.57006e-15 
6.8995 -2.56682 -2.08859e-15 
7.12934 -2.62951 -5.41906e-13 
7.38014 -2.59827 1.39787e-13 
7.61602 -2.60374 4.2882e-13 
7.87391 -2.63731 3.87267e-13 
8.08002 -2.53757 -6.57725e-13 
8.30178 -2.63176 -1.90067e-09 
8.4853 -2.52739 4.64083e-09 
-8.48529 -2.34384 -2.48656e-10 
-8.24758 -2.35254 3.25263e-10 
-8.01105 -2.35759 1.45562e-12 
-7.7708 -2.38357 -1.84452e-13 
-7.55654 -2.23353 3.59811e-13 
-7.48954 -2.4419 -2.72379e-13 
-7.21004 -2.42703 4.37866e-13 
-6.97888 -2.35657 8.04586e-13 
-6.74613 -2.37724 -3.17161e-13 
-6.50772 -2.34888 -2.80719e-13 
-6.27018 -2.3711 -3.78652e-15 
-6.04745 -2.36568 4.20028e-14 
-5.83163 -2.34362 5.99199e-14 
-5.59311 -2.35354 6.9852e-14 
-5.383 -2.36098 1.35783e-13 
-5.14902 -2.35775 2.61456e-13 
-4.93869 -2.35777 5.45873e-13 
-4.71075 -2.36277 1.26727e-12 
-4.49486 -2.37178 2.70885e-12 
-4.27041 -2.36757 5.72363e-12 
-4.06072 -2.35455 1.11501e-11 
-3.84163 -2.34757 2.45076e-11 
-3.62936 -2.35295 5.94088e-11 
-3.40225 -2.35517 1.56004e-10 
-3.17649 -2.35865 4.0924e-10 
-2.9416 -2.35719 1.14958e-09 
-2.70501 -2.36791 3.44507e-09 
-2.4666 -2.37665 9.96557e-09 
-2.23317 -2.37941 2.48206e-08 
-2.00998 -2.38464 5.50196e-08 
-1.80088 -2.40255 1.15191e-07 
-1.60104 -2.39971 1.65309e-07 
-1.42583 -2.43315 4.5313e-07 
-1.2687 -2.41848 2.16311e-07 
-1.13457 -2.46335 7.67901e-07 
-0.835026 -2.44249 7.45939e-07 
-0.773336 -2.58198 8.5706e-06 
-0.579515 -2.54167 1.2684e-05 
-0.434057 -2.5876 1.12009e-05 
-0.151176 -2.71105 -1.09337e-05 
0.27446 -2.75621 1.43612e-05 
0.47589 -2.65993 -8.23143e-06 
0.789211 -2.48321 -8.65664e-06 
0.938132 -2.46211 -1.40329e-06 
1.12345 -2.47893 -1.55345e-06 
1.25688 -2.38794 6.86091e-08 
1.41733 -2.41597 -5.52486e-07 
1.58107 -2.40151 -1.81429e-07 
1.76716 -2.36066 -5.40876e-08 
1.96249 -2.41187 -8.91313e-08 
2.18464 -2.399 -3.40166e-08 
2.4158 -2.34682 -1.08908e-08 
2.65472 -2.37078 -4.4568e-09 
2.88842 -2.37173 -1.79556e-09 
3.12997 -2.35777 -5.81732e-10 
3.35756 -2.36023 -2.14462e-10 
3.57973 -2.33987 -8.22152e-11 
3.79767 -2.35242 -3.47569e-11 
4.01707 -2.37449 -1.62202e-11 
4.2264 -2.34087 -6.95164e-12 
4.44476 -2.3628 -2.96277e-12 
4.65014 -2.35006 -1.3081e-12 
4.86494 -2.35783 -5.7002e-13 
5.0744 -2.3553 -2.68773e-13 
5.29299 -2.36994 -1.308e-13 
5.505 -2.35211 -4.81871e-14 
5.72705 -2.36131 -2.36668e-14 
5.94558 -2.37398 -1.2093e-14 
6.16414 -2.34472 -1.57629e-15 
6.39804 -2.36383 -2.57433e-14 
6.60983 -2.36287 6.1309e-15 
6.83524 -2.32058 -2.81493e-15 
7.0681 -2.3798 -7.73789e-15 
7.28751 -2.39706 4.29412e-13 
7.54583 -2.37228 -7.8571e-14 
7.79005 -2.41714 1.908e-13 
7.99963 -2.31773 -5.49463e-13 
8.25963 -2.36608 1.44575e-09 
8.48529 -2.28532 -1.8423e-09 
-8.48529 -2.1056 -2.84179e-09 
-8.25285 -2.11047 1.2241e-09 
-8.03755 -2.11421 -7.02693e-13 
-7.80168 -2.15079 -1.49005e-13 
-7.49641 -2.03131 -7.32542e-14 
-7.29555 -2.23702 -4.09533e-13 
-7.06263 -2.14437 -2.89317e-13 
-6.80205 -2.14222 1.78769e-13 
-6.58325 -2.13094 -1.28971e-13 
-6.33848 -2.1386 -2.8593e-14 
-6.11939 -2.12772 -8.8932e-16 
-5.90965 -2.10955 -1.90667e-14 
-5.6847 -2.133 -5.15975e-15 
-5.46288 -2.11231 -4.22281e-14 
-5.25209 -2.13922 -2.99505e-14 
-5.03562 -2.11517 -2.94477e-14 
-4.82194 -2.13761 -7.90604e-14 
-4.60529 -2.13413 -8.71563e-14 
-4.39334 -2.14584 -1.93347e-13 
-4.18526 -2.12142 -8.68135e-13 
-3.97512 -2.11996 -2.17159e-12 
-3.76331 -2.10714 -5.07946e-12 
-3.54697 -2.12349 -1.13999e-11 
-3.32532 -2.11835 -3.08715e-11 
-3.09975 -2.12414 -9.71171e-11 
-2.86617 -2.12624 -3.356e-10 
-2.63251 -2.14008 -1.10095e-09 
-2.39803 -2.15154 -3.35621e-09 
-2.16966 -2.15622 -9.19554e-09 
-1.95021 -2.16872 -1.96824e-08 
-1.74899 -2.18989 -2.76635e-08 
-1.58591 -2.1332 -9.05823e-08 
-1.4369 -2.21632 -1.90818e-07 
-1.2896 -2.19059 -1.30992e-07 
-1.13832 -2.24279 -4.15044e-07 
-1.00343 -2.37938 4.55439e-07 
-0.654958 -2.44038 5.19233e-06 
-0.512212 -2.34009 -3.61684e-06 
-0.252241 -2.54184 1.25311e-05 
0.0739094 -2.73053 -2.01947e-05 
0.441507 -2.51795 -1.3323e-05 
0.622325 -2.48724 -8.28892e-06 
0.779681 -2.31781 -1.19192e-06 
0.984728 -2.32331 2.87866e-07 
1.1118 -2.25229 4.05883e-07 
1.26447 -2.1723 2.57816e-07 
1.4263 -2.19876 3.50857e-07 
1.59824 -2.18068 1.43421e-07 
1.80506 -2.15026 9.13873e-09 
2.01136 -2.19883 3.09846e-08 
2.22713 -2.16749 2.23239e-09 
2.47919 -2.13023 1.5006e-09 
2.71002 -2.13522 3.75538e-10 
2.94675 -2.14198 1.46542e-10 
3.17561 -2.11866 5.11528e-11 
3.39693 -2.12008 2.02564e-11 
3.6196 -2.10473 9.87167e-12 
3.841 -2.12579 3.09478e-12 
4.04719 -2.13018 1.34307e-12 
4.27553 -2.11914 6.31692e-13 
4.47988 -2.11941 2.29835e-13 
4.69742 -2.12127 6.12487e-14 
4.90757 -2.1198 9.45326e-15 
5.12801 -2.13008 -6.60674e-15 
5.33683 -2.12858 4.62214e-16 
5.5617 -2.12563 -4.4536e-15 
5.78167 -2.13017 5.07767e-15 
5.9951 -2.13205 -3.89687e-15 
6.23699 -2.12925 1.15698e-14 
6.45007 -2.11424 -4.67829e-15 
6.66503 -2.11839 1.56782e-14 
6.92533 -2.11459 -3.40656e-13 
7.14192 -2.14079 -3.59979e-13 
7.37299 -2.18011 -7.67246e-14 
7.56369 -2.08125 -1.35297e-13 
7.74532 -2.18387 7.8022e-14 
7.96371 -2.08365 -1.42848e-12 
8.20008 -2.14533 -3.82516e-10 
8.48529 -2.09594 2.19565e-10 
-8.4853 -1.80714 -1.31892e-09 
-8.30996 -1.86656 -2.25936e-10 
-7.89671 -1.90335 6.90581e-14 
[...]
POINT_DATA 1978 
VECTORS vectors float
-0.00140858 -0.00242333 0.999483 
-0.000196663 -0.000559002 1 
-0.000113403 -0.000437731 1 
-0.000129222 -0.000341493 1 
-0.000139909 -0.000222402 1 
-0.000112496 -8.96872e-05 1 
-7.66321e-05 3.50044e-05 1 
-6.11049e-05 0.000159292 1 
-4.53427e-05 0.000282778 1 
-3.86801e-05 0.000399763 1 
-3.9028e-05 0.000509545 1 
-4.50484e-05 0.000611353 1 
-5.5887e-05 0.000712435 1 
-9.3187e-05 0.000838786 1 
-0.000136049 0.00106631 1 
-0.000197285 0.0013959 1 
-0.000248011 0.0018694 1 
-0.00032472 0.00239952 1 
-0.000432614 0.00313361 0.999997 
-0.000573743 0.0041419 0.999994 
-0.000690741 0.005529 0.999987 
-0.000839032 0.00714984 0.999977 
-0.001062 0.00926756 0.999959 
-0.00141768 0.0119844 0.99993 
-0.00190655 0.0155942 0.999879 
-0.0027493 0.0201677 0.999796 
-0.00422631 0.0272827 0.999622 
-0.00609294 0.0388005 0.999232 
-0.00820416 0.0555318 0.998427 
-0.0105593 0.0783773 0.996871 
-0.0130581 0.107706 0.994102 
-0.0167986 0.145563 0.989211 
-0.0214988 0.194231 0.980725 
-0.0268037 0.255687 0.966392 
-0.0317052 0.322839 0.945926 
-0.035343 0.397571 0.916894 
-0.0418207 0.486905 0.87246 
-0.0482203 0.618745 0.784123 
-0.0433091 0.768908 0.637897 
-0.00988494 0.929608 0.368666 
0.0202745 0.829831 -0.557752 
0.0429846 0.705348 -0.707555 
0.0469208 0.579006 -0.813976 
0.0459897 0.474935 -0.878826 
0.038394 0.353986 -0.934469 
0.0304728 0.278935 -0.959833 
0.0239706 0.200864 -0.979332 
0.0167597 0.151282 -0.988353 
0.0132081 0.114422 -0.993349 
0.0111286 0.0838929 -0.996416 
0.00842528 0.0603322 -0.998145 
0.00580557 0.0431623 -0.999055 
0.00465697 0.0313095 -0.999502 
0.00343545 0.022411 -0.999746 
0.0022904 0.0164474 -0.999865 
0.00156076 0.01212 -0.999928 
0.00107757 0.00922669 -0.999959 
0.000867412 0.00717792 -0.999976 
0.000762789 0.00542048 -0.999988 
0.000574942 0.00395043 -0.999994 
0.000414974 0.00299346 -0.999998 
0.000303119 0.00230955 -1 
0.000228451 0.00184798 -1 
0.000187143 0.00143622 -1 
0.000145355 0.00108907 -1 
9.63916e-05 0.000832442 -1 
5.80427e-05 0.000696236 -1 
4.23861e-05 0.000606147 -1 
3.61805e-05 0.000514251 -1 
4.16021e-05 0.000412371 -1 
4.99659e-05 0.000282671 -1 
5.57154e-05 0.000160396 -1 
8.69096e-05 4.44793e-05 -1 
0.000107427 -9.76967e-05 -1 
0.00011223 -0.000217269 -1 
0.000133645 -0.000334143 -1 
0.000112675 -0.000452431 -1 
0.000176819 -0.000519047 -1 
0.00133342 -0.00303589 -0.999371 
-0.00668334 -0.00638397 0.998938 
-0.00085747 -0.000953473 1 
-0.000373675 -0.000438869 1.00001 
-0.000331201 -0.000334566 1 
-0.000282257 -0.000244056 1.00001 
-0.000229096 -0.00012566 1.00001 
-0.000188782 -1.44439e-05 1.00001 
-0.000117194 0.000123102 1 
-7.5535e-05 0.000254912 1.00001 
-5.25656e-05 0.000397793 1.00001 
-6.64298e-05 0.000532781 1.00001 
-0.000111207 0.000658528 1.00001 
-0.000178975 0.00079806 1 
-0.000245189 0.000984863 1 
-0.000367821 0.00127918 1 
-0.000478449 0.00167955 1 
-0.000665226 0.0022182 1 
-0.000832221 0.00288928 1 
-0.00109294 0.00381881 0.999997 
-0.00134309 0.00504052 0.999991 
-0.00169706 0.0066363 0.999982 
-0.00201151 0.00865327 0.999966 
-0.0026049 0.0114695 0.999936 
-0.00348847 0.015278 0.999883 
-0.00510675 0.0205916 0.999781 
-0.00730499 0.0281664 0.999582 
-0.0102803 0.0399984 0.999152 
-0.0140605 0.0580447 0.99822 
-0.0182964 0.0836447 0.996333 
-0.0222035 0.117611 0.992815 
-0.0267687 0.162524 0.986345 
-0.0309993 0.218682 0.975306 
-0.0350786 0.286028 0.957581 
-0.0361997 0.36396 0.930711 
-0.0340238 0.45407 0.890315 
-0.00315547 0.477358 0.878702 
-0.0280605 0.584018 0.811252 
-0.00711189 0.752987 0.657984 
0.0167608 0.918889 0.39414 
-0.00674547 0.972809 0.231297 
0.0114377 0.891451 -0.452906 
-0.0142463 0.749653 -0.66167 
0.0161219 0.634275 -0.772935 
0.0285954 0.512135 -0.858426 
0.0382676 0.408077 -0.912144 
0.0377454 0.316272 -0.947918 
0.0345247 0.243113 -0.969385 
0.030697 0.180988 -0.983009 
0.0259374 0.135723 -0.990411 
0.0189478 0.0959979 -0.995206 
0.0149494 0.0658849 -0.997721 
0.0120128 0.0475501 -0.998802 
0.00798346 0.0328575 -0.999434 
0.00579806 0.0238303 -0.999705 
0.00406262 0.0175503 -0.999843 
0.00292283 0.0128983 -0.999918 
0.00235078 0.00976872 -0.999955 
0.00186546 0.00735875 -0.999976 
0.0014847 0.00546438 -0.999989 
0.00129451 0.00419973 -0.999995 
0.000948426 0.00312939 -1 
0.000750948 0.00243206 -1 
0.000542055 0.00187005 -1 
0.000405109 0.00143485 -1 
0.000279806 0.00107982 -1 
0.000201327 0.000852109 -1 
0.000123828 0.000689422 -1 
7.65433e-05 0.000564381 -1.00001 
5.99445e-05 0.00044102 -1.00001 
6.50592e-05 0.000312839 -1.00001 
0.000110372 0.000162315 -1.00001 
0.000174374 3.1022e-05 -1.00001 
0.000201058 -6.70143e-05 -1.00001 
0.000288516 -0.000188697 -1.00001 
0.000317061 -0.000281927 -1.00001 
0.00029522 -0.000380935 -1 
0.000438073 -0.000475698 -1.00001 
0.000891498 -0.00115094 -1 
0.00782238 -0.00770598 -0.9988 
-0.0072461 -0.00672775 0.998938 
-0.00100491 -0.000931973 1.00001 
-0.000508238 -0.000418125 1 
-0.000461782 -0.000334736 1.00001 
-0.000435477 -0.000302268 1 
-0.000407958 -0.000254747 1.00001 
-0.000327258 -0.000165558 1.00001 
-0.000228662 -9.09e-05 1 
-0.000129832 5.09419e-05 1.00001 
-4.98596e-05 0.00020643 1.00001 
-2.70435e-05 0.00038429 1.00001 
-4.83893e-05 0.000540397 1.00001 
-0.000104218 0.000695534 1.00001 
-0.000206311 0.000896535 1 
-0.000311649 0.00113739 1 
-0.000454068 0.00152371 1 
-0.000612726 0.00200254 1 
-0.00083056 0.00268116 1 
-0.00107404 0.0035087 0.999998 
-0.00134359 0.0046448 0.999993 
-0.00159337 0.00603683 0.999986 
-0.00189601 0.00793772 0.999972 
-0.00233109 0.0104118 0.999948 
-0.0030803 0.0140748 0.999902 
-0.00432083 0.0189867 0.999816 
-0.00620943 0.0258781 0.999651 
-0.00877788 0.0353777 0.999341 
-0.0117693 0.0491136 0.998729 
-0.0145247 0.0690047 0.997516 
-0.0160814 0.095798 0.995275 
-0.0168406 0.130599 0.991296 
-0.0137167 0.175482 0.984391 
-0.0129659 0.230471 0.972995 
6.56912e-05 0.287953 0.957646 
0.00120008 0.357125 0.934057 
0.0510243 0.548509 0.834584 
0.0040283 0.62601 0.779801 
0.0406587 0.765811 0.641773 
0.0392993 0.867937 0.495103 
0.0186389 0.985152 0.170637 
0.000971937 0.966774 -0.255552 
-0.0210932 0.885399 -0.464338 
-0.0445826 0.629101 -0.776038 
-0.0260972 0.515883 -0.85626 
0.00439248 0.398483 -0.917166 
-0.00499728 0.312524 -0.949898 
0.0119311 0.249372 -0.968336 
0.0149885 0.193015 -0.981084 
0.0135655 0.144546 -0.98941 
0.0180521 0.109088 -0.993871 
0.0154374 0.0778409 -0.996851 
0.0113737 0.0554765 -0.9984 
0.00927484 0.0394816 -0.999183 
0.00676999 0.0289595 -0.999563 
0.00454324 0.0212119 -0.99977 
0.00331179 0.0155667 -0.999879 
0.00253009 0.0115094 -0.999936 
0.0021321 0.00855039 -0.999966 
0.00181434 0.00640755 -0.999983 
0.00146656 0.0049477 -0.999992 
0.00118605 0.00372351 -0.999997 
0.000916124 0.00288075 -1 
0.000685946 0.00219254 -1 
0.000503872 0.00168064 -1 
0.000358613 0.00126803 -1 
0.000239559 0.000986302 -1 
0.000144176 0.000771095 -1 
7.59112e-05 0.000609343 -1.00001 
3.12534e-05 0.000457864 -1.00001 
4.19381e-05 0.000293156 -1.00001 
8.71482e-05 0.000139622 -1.00001 
0.000164259 -2.49366e-05 -1.00001 
0.000270818 -0.000123148 -1.00001 
0.000356451 -0.000202967 -1.00001 
0.000425793 -0.000281765 -1.00001 
0.000453197 -0.000343576 -1.00001 
0.00049937 -0.000411347 -1.00001 
0.0010076 -0.000984904 -1 
0.00571626 -0.00576528 -0.999049 
-0.00859841 -0.00801279 0.998786 
-0.00108253 -0.000996873 1 
-0.000513214 -0.000426037 1.00001 
-0.000460453 -0.000345477 1.00001 
-0.000389654 -0.000323042 1.00001 
-0.000356567 -0.000248767 1.00001 
-0.000242381 -0.000204616 1.00001 
-0.00011648 -7.31083e-05 1.00001 
-2.31591e-05 7.38982e-05 1.00001 
3.32576e-05 0.000273235 1.00001 
3.77456e-05 0.000450894 1.00001 
-9.92363e-07 0.000623095 1.00001 
-9.4041e-05 0.000829051 1 
-0.000187731 0.00108288 1 
-0.000303386 0.00140226 1 
-0.000411737 0.0018632 1 
-0.000566855 0.00244791 1 
-0.000726175 0.00321823 1 
-0.000909288 0.00416199 0.999996 
-0.00102146 0.00535296 0.99999 
-0.00115903 0.00688413 0.999981 
-0.00127526 0.00894262 0.999964 
-0.00157459 0.0118644 0.999934 
-0.00196543 0.0160523 0.999875 
-0.00271903 0.0217784 0.999765 
-0.0036956 0.0295031 0.999563 
-0.00486855 0.0397348 0.999204 
-0.00566261 0.0539118 0.998535 
-0.00495057 0.0730698 0.99732 
-0.00234724 0.0990256 0.995087 
0.00263953 0.131631 0.991298 
0.0178608 0.157552 0.987353 
0.0202605 0.204978 0.97856 
0.0408521 0.245496 0.968539 
0.0565663 0.314503 0.947572 
0.0404127 0.414619 0.909097 
0.0762511 0.676774 0.732226 
0.147598 0.751422 0.643089 
0.0504655 0.943188 0.328379 
0.0051757 0.998229 -0.0589457 
-0.0627165 0.876097 -0.478029 
-0.0691369 0.750379 -0.657376 
-0.116175 0.565871 -0.816265 
-0.0661739 0.439048 -0.896023 
-0.0598542 0.350017 -0.93483 
-0.0501774 0.26668 -0.96248 
-0.0251022 0.218274 -0.975567 
-0.0127584 0.170114 -0.985346 
-0.00416326 0.126849 -0.991917 
0.00497744 0.0969784 -0.99528 
0.00557055 0.0713115 -0.997444 
0.00464409 0.0501949 -0.998734 
0.00396014 0.0371168 -0.999309 
0.00303297 0.0276382 -0.999619 
0.00206349 0.0206601 -0.99979 
0.00173874 0.0152801 -0.999887 
0.00151428 0.0111867 -0.999942 
0.00143367 0.00829524 -0.99997 
0.00126996 0.00638972 -0.999984 
0.00104842 0.00482448 -0.999993 
0.000865168 0.00374715 -0.999998 
0.000675647 0.00285383 -1 
0.000507417 0.00218802 -1 
0.000363333 0.00164558 -1 
0.000243706 0.00126093 -1 
0.000134283 0.000956313 -1 
4.78986e-05 0.000734369 -1 
-1.17317e-05 0.000554496 -1.00001 
-3.56019e-05 0.000356707 -1.00001 
-1.04363e-05 0.000175092 -1.00001 
5.92434e-05 9.19409e-06 -1.00001 
0.000175399 -0.000154899 -1.00001 
0.000279706 -0.000233686 -1.00001 
0.000374037 -0.000280403 -1 
0.000409927 -0.000321864 -1.00001 
0.000454617 -0.000337489 -1.00001 
0.000472927 -0.000385829 -1 
0.000752035 -0.000687139 -1.00001 
0.00592329 -0.00560954 -0.999039 
-0.00754988 -0.00857462 0.998805 
-0.00133383 -0.00140774 1 
-0.000429455 -0.000366346 1.00001 
-0.000404583 -0.000344388 1 
-0.000327088 -0.000354709 1.00001 
-0.00031399 -0.000309187 1 
-0.000241549 -0.000329031 1.00001 
-0.000158147 -0.000228086 1.00001 
-4.17477e-05 -0.000122285 1.00001 
4.99678e-05 7.24244e-05 1.00001 
0.000103543 0.000260729 1.00001 
0.000104431 0.00045431 1.00001 
4.18247e-05 0.000686735 1 
-4.62207e-05 0.000929234 1 
-0.000140396 0.00125608 1 
-0.000228035 0.00164055 1 
-0.000319031 0.00221253 1 
-0.000421454 0.00289074 1 
-0.000516367 0.00377531 0.999998 
-0.000570865 0.00479716 0.999993 
-0.000587935 0.00614138 0.999986 
-0.000565646 0.00784143 0.999974 
-0.000532345 0.0103764 0.999951 
-0.000478794 0.0138824 0.999909 
-0.000413393 0.0189659 0.999825 
-0.000375138 0.0256708 0.999676 
-0.000110238 0.0343525 0.999415 
0.000681683 0.0455238 0.998969 
0.00316635 0.0604473 0.998172 
0.00805323 0.0803654 0.996739 
0.0166288 0.104239 0.994418 
0.0336517 0.124748 0.991622 
0.0483339 0.161991 0.985611 
0.0743717 0.194566 0.978069 
0.0935582 0.252621 0.963033 
0.091689 0.392857 0.915017 
0.110538 0.535736 0.837116 
0.171824 0.612854 0.771277 
0.0910318 0.846588 0.524395 
0.0290866 0.989329 0.142749 
-0.0280076 0.961433 -0.273568 
-0.136508 0.736486 -0.662523 
-0.146527 0.452602 -0.87959 
-0.132174 0.35085 -0.927057 
-0.102874 0.273883 -0.956247 
-0.0859219 0.204809 -0.975026 
-0.0554384 0.185752 -0.981035 
-0.0387595 0.148655 -0.988132 
-0.0226353 0.120981 -0.992401 
-0.00902509 0.0918596 -0.995736 
-0.00442745 0.0699475 -0.997546 
-0.00173563 0.0523385 -0.998633 
-0.00117779 0.0378921 -0.999287 
-0.000449392 0.0288901 -0.999588 
-0.000284285 0.0218681 -0.999766 
0.000200292 0.0162089 -0.999874 
0.00053291 0.0119935 -0.999933 
0.000744285 0.00888036 -0.999965 
0.000734472 0.00680689 -0.999982 
0.000710438 0.00531585 -0.999991 
0.000568993 0.00408941 -0.999997 
0.000486722 0.00317989 -1 
0.000368173 0.00243831 -1 
0.000274607 0.00184996 -1 
0.000169035 0.00140402 -1 
8.04709e-05 0.00106498 -1 
-1.28142e-05 0.000790283 -1 
-7.88852e-05 0.000568157 -1.00001 
-9.63934e-05 0.000365475 -1.00001 
-7.8512e-05 0.000139676 -1.00001 
-6.7987e-06 -4.75728e-05 -1.00001 
9.94312e-05 -0.000181592 -1.00001 
0.000215461 -0.000294177 -1.00001 
0.000311849 -0.000322781 -1.00001 
0.000364837 -0.000344778 -1.00001 
0.000415262 -0.000350461 -1.00001 
0.000462798 -0.000417019 -1.00001 
0.0010204 -0.000981399 -1 
0.0069492 -0.0069185 -0.998898 
-0.00495563 -0.00735589 0.998966 
-0.000813111 -0.00108493 1.00001 
-0.000495126 -0.000477287 1.00001 
-0.000367047 -0.000363914 1 
-0.000350161 -0.000353105 1.00001 
-0.000264982 -0.000381532 1.00001 
-0.000166917 -0.000353954 1.00001 
-8.15881e-05 -0.000275741 1.00001 
3.59593e-05 -0.000115453 1.00001 
0.000113536 6.05327e-05 1.00001 
0.00015364 0.00025989 1.00001 
0.000134703 0.000514626 1.00001 
7.27898e-05 0.000773988 1 
-1.17887e-05 0.00107414 1 
-7.53663e-05 0.00145151 1 
-0.000141164 0.00190895 1 
-0.000175227 0.00251817 1 
-0.000221785 0.00323848 1 
-0.000225128 0.00407972 0.999997 
-0.000218786 0.00511757 0.999992 
-0.00013671 0.00637814 0.999985 
-1.42084e-05 0.00812734 0.999972 
0.000261313 0.0104773 0.99995 
0.000667173 0.0139438 0.999908 
0.00133252 0.0187436 0.999829 
0.00218552 0.0250257 0.99969 
0.00357563 0.0326509 0.999466 
0.00584374 0.0420995 0.999102 
0.0099508 0.0540302 0.998495 
0.0169179 0.0688929 0.997485 
0.0277827 0.0861957 0.995896 
0.0462064 0.0998738 0.993931 
0.0677486 0.127547 0.98952 
0.0989367 0.146709 0.984223 
0.129407 0.195374 0.972156 
0.129408 0.308655 0.942331 
0.151612 0.438347 0.885924 
0.247363 0.54401 0.801777 
0.110709 0.907592 0.40496 
-0.00370234 0.997869 -0.0649747 
-0.091204 0.914121 -0.39503 
-0.212765 0.616568 -0.757997 
-0.210261 0.327254 -0.921246 
-0.164145 0.250618 -0.95407 
-0.129511 0.187989 -0.973598 
-0.0994115 0.139703 -0.985194 
-0.0706058 0.135273 -0.988293 
-0.0493076 0.111706 -0.992522 
-0.0271879 0.0946008 -0.995149 
-0.0172185 0.0734861 -0.997153 
-0.0106291 0.056608 -0.998345 
-0.00643112 0.043025 -0.999059 
-0.00470977 0.0318593 -0.999487 
-0.00314931 0.0249277 -0.99969 
-0.00179458 0.018861 -0.999826 
-0.000760264 0.0141041 -0.999905 
-7.23936e-05 0.0104252 -0.999951 
0.000209355 0.00795381 -0.999973 
0.000299391 0.00618881 -0.999986 
0.000328838 0.00489889 -0.999993 
0.00026091 0.00380224 -0.999998 
0.000235706 0.00297926 -1 
0.000182692 0.00228024 -1 
0.000128352 0.00174816 -1 
5.2609e-05 0.00131355 -1 
-2.21403e-05 0.000972854 -1 
-0.000100535 0.000688483 -1 
-0.000144291 0.00043487 -1.00001 
-0.000139429 0.000218294 -1.00001 
-8.85047e-05 -1.96483e-05 -1.00001 
4.68684e-06 -0.000194404 -1.00001 
0.00011298 -0.000300336 -1 
0.000201129 -0.000373671 -1.00001 
0.000279611 -0.000369415 -1.00001 
0.000323743 -0.000361567 -1.00001 
0.000368931 -0.000353456 -1.00001 
0.00039702 -0.000408004 -1.00001 
0.000922797 -0.00102615 -1 
0.00542887 -0.00683966 -0.998991 
-0.00323164 -0.00700999 0.999011 
-0.000484389 -0.000921095 1.00001 
-0.000372415 -0.000428148 1.00001 
-0.000292349 -0.000343111 1.00001 
-0.000291696 -0.000365675 1.00001 
-0.00024059 -0.000402689 1.00001 
-0.000191213 -0.000415539 1 
-0.000101197 -0.000392222 1.00001 
-1.31336e-05 -0.000280347 1 
8.10231e-05 -0.000141098 1.00001 
0.000146503 4.35829e-05 1.00001 
0.000174287 0.000308432 1.00001 
0.000149428 0.000587276 1 
9.03732e-05 0.000903009 1 
2.99703e-05 0.00125561 1 
-1.16712e-05 0.00172804 1 
-3.02647e-05 0.00224665 1 
-2.30909e-05 0.00292411 1 
-2.0406e-06 0.00366458 0.999998 
3.04202e-05 0.00456528 0.999995 
0.000111117 0.00562078 0.999989 
0.000266188 0.00704662 0.99998 
0.000593118 0.00889191 0.999965 
0.00117065 0.0116112 0.999937 
0.00208024 0.0154439 0.999884 
0.0034375 0.0207306 0.999784 
0.00530828 0.0271274 0.999623 
0.00815731 0.0347714 0.999367 
0.0127479 0.0437671 0.998966 
0.020254 0.0545896 0.998309 
0.0321188 0.065739 0.997326 
0.0499683 0.075585 0.995891 
0.0775972 0.0921742 0.99272 
0.115742 0.0998401 0.988253 
0.159697 0.137652 0.977525 
0.180044 0.256271 0.94969 
0.203733 0.396942 0.894944 
0.192622 0.671779 0.715275 
0.193829 0.802938 0.563635 
0.0659315 0.980559 0.184667 
-0.184366 0.842505 -0.506123 
-0.236248 0.454115 -0.859046 
-0.299742 0.289054 -0.909172 
-0.181032 0.152678 -0.971556 
-0.137217 0.113212 -0.984053 
-0.100924 0.0883233 -0.990969 
-0.0733304 0.0901825 -0.993227 
-0.0519832 0.0767959 -0.995695 
-0.0374558 0.0785919 -0.996207 
-0.0258634 0.062816 -0.997695 
-0.0173723 0.0505328 -0.998577 
-0.0115518 0.0407005 -0.99911 
-0.00814189 0.0314572 -0.999477 
-0.00557589 0.0239161 -0.999704 
-0.00342286 0.0188867 -0.999821 
-0.00178724 0.0140973 -0.999904 
-0.000746555 0.0106605 -0.999948 
-0.000244767 0.00812162 -0.999972 
-3.71068e-05 0.00639954 -0.999984 
3.59141e-05 0.00507139 -0.999992 
5.11694e-05 0.00407408 -0.999997 
5.05301e-05 0.00316081 -1 
5.77264e-05 0.00248012 -1 
3.58902e-05 0.00189444 -1 
-4.0446e-06 0.00143424 -1 
-6.66093e-05 0.00103266 -1 
-0.000129673 0.000710644 -1 
-0.000168002 0.000413351 -1.00001 
-0.000160005 0.000146986 -1.00001 
-0.000110113 -6.95183e-05 -1.00001 
-1.38375e-05 -0.000261525 -1.00001 
9.04158e-05 -0.000366406 -1.00001 
0.000185891 -0.000418687 -1.00001 
0.00025811 -0.000395509 -1.00001 
0.000277678 -0.000360707 -1.00001 
0.000312765 -0.000347623 -1.00001 
0.000308051 -0.000380469 -1.00001 
0.000591205 -0.00084544 -1 
0.00421806 -0.00726447 -0.999003 
-0.00121433 -0.00678851 0.999034 
-0.000213665 -0.000911136 1 
-0.000274046 -0.000375347 1 
-0.000219353 -0.000314606 1.00001 
-0.000245347 -0.000352365 1.00001 
-0.000210252 -0.000407836 1.00001 
-0.000172737 -0.000450925 1.00001 
-9.74921e-05 -0.00045001 1.00001 
-4.82971e-06 -0.000345834 1.00001 
7.38778e-05 -0.000223454 1.00001 
0.00014971 9.98433e-06 1 
0.000177923 0.000278584 1.00001 
0.000165469 0.000592353 1 
0.000126508 0.000945582 1.00001 
7.84301e-05 0.00137954 1 
6.72032e-05 0.00185703 1 
7.03553e-05 0.0024116 1 
0.000104544 0.00303147 1 
0.000142452 0.00376823 0.999998 
0.000196906 0.00460958 0.999994 
0.00030435 0.00566854 0.999989 
0.000519634 0.00692182 0.999981 
0.000946367 0.00861828 0.999967 
0.00169234 0.0109922 0.999943 
0.0028871 0.0144393 0.999897 
0.00460534 0.018894 0.999816 
0.00692061 0.0243683 0.999684 
0.0101361 0.0302366 0.999497 
0.0150469 0.0369788 0.999208 
0.0225556 0.0439718 0.998784 
0.0333813 0.0488942 0.998252 
0.051558 0.0557581 0.997118 
0.075724 0.0592918 0.99537 
0.103054 0.0496002 0.993444 
0.151351 0.0605008 0.986631 
0.218597 0.144559 0.96505 
0.258221 0.283873 0.923436 
0.354551 0.426223 0.832253 
0.257754 0.707737 0.657838 
-0.0134016 0.997754 -0.0663822 
-0.300937 0.698542 -0.649254 
-0.365599 0.425048 -0.828063 
-0.235855 0.202746 -0.950404 
-0.225911 0.0907367 -0.969914 
-0.160504 0.0625241 -0.985056 
-0.110322 0.0493625 -0.992675 
-0.0751012 0.0556377 -0.995627 
-0.0541526 0.054253 -0.997063 
-0.0354827 0.0532469 -0.997957 
-0.0243017 0.0449533 -0.998699 
-0.0167941 0.0373481 -0.999167 
-0.0119649 0.0309039 -0.999455 
-0.00834876 0.0245973 -0.999668 
-0.00539146 0.0190452 -0.99981 
-0.00315586 0.0151509 -0.999884 
-0.00162097 0.0114238 -0.999939 
-0.000764732 0.00891602 -0.999964 
-0.000361896 0.00701594 -0.99998 
-0.000189316 0.00565842 -0.999989 
-0.000132111 0.00460107 -0.999995 
-8.69915e-05 0.00370764 -0.999997 
-6.63055e-05 0.00292806 -1 
-4.04968e-05 0.00230238 -1 
-4.80397e-05 0.00176548 -1 
-7.75183e-05 0.00129235 -1 
-0.000127093 0.000893128 -1 
-0.000167098 0.000533544 -1 
-0.000173229 0.000225118 -1 
-0.000134941 -4.28796e-05 -1.00001 
-6.53793e-05 -0.000243492 -1.00001 
2.46481e-05 -0.000392795 -1 
0.000100791 -0.000439695 -1.00001 
0.000163512 -0.000462187 -1.00001 
0.000215951 -0.000418904 -1.00001 
0.000229422 -0.000360153 -1.00001 
0.000240122 -0.000325916 -1.00001 
0.00021785 -0.000378382 -1.00001 
0.000452302 -0.00106985 -1 
0.00183275 -0.00754675 -0.998991 
0.00105437 -0.00571466 0.999046 
7.33663e-05 -0.000706549 1 
-0.000170571 -0.000345735 1.00001 
-0.000151696 -0.000270527 1.00001 
-0.00019354 -0.000334452 1.00001 
-0.000175804 -0.000408259 1.00001 
-0.000160358 -0.000474936 1.00001 
-0.000110895 -0.000504922 1.00001 
-3.62353e-05 -0.000441016 1.00001 