# vtk DataFile Version 3.0 
Exported using Morpho https://github.com/Morpho-lang/morpho 
ASCII 
DATASET UNSTRUCTURED_GRID 

POINTS 1978 float 
-8.48528 -2.82843 -1.20448e-15 
-8.267 -2.82843 -1.46426e-16 
-8.04536 -2.82843 5.78766e-19 
-7.77688 -2.82843 2.3491e-19 
-7.50037 -2.82843 -2.35986e-19 
-7.25254 -2.82843 -2.09513e-19 
-7.00512 -2.82843 1.03517e-19 
-6.78646 -2.82843 -3.59671e-20 
-6.56131 -2.82843 -1.61979e-19 
-6.34883 -2.82843 -7.52952e-21 
-6.13481 -2.82843 -4.63828e-19 
-5.92993 -2.82843 -3.52284e-19 
-5.70978 -2.82843 -3.54321e-19 
-5.50616 -2.82843 -3.995e-19 
-5.2892 -2.82843 -4.67133e-19 
-5.07865 -2.82843 -6.45631e-19 
-4.85915 -2.82843 -7.08569e-19 
-4.6569 -2.82843 -7.73009e-19 
-4.4315 -2.82843 -7.29279e-19 
-4.22303 -2.82843 -9.33686e-19 
-4.00197 -2.82843 -1.13932e-18 
-3.8021 -2.82843 -1.62932e-18 
-3.59434 -2.82843 -2.16299e-18 
-3.38748 -2.82843 -2.17938e-18 
-3.17668 -2.82843 -2.11393e-18 
-2.96353 -2.82843 -4.23619e-18 
-2.74653 -2.82843 -1.84611e-17 
-2.52042 -2.82843 -6.92681e-17 
-2.28632 -2.82843 -2.10929e-16 
-2.04518 -2.82843 -6.18819e-16 
-1.80349 -2.82843 -1.72571e-15 
-1.58608 -2.82843 -5.97836e-15 
-1.36024 -2.82843 -1.82572e-14 
-1.1681 -2.82843 -4.55787e-14 
-1.01365 -2.82843 -1.89025e-13 
-0.830548 -2.82843 -1.10227e-13 
-0.731338 -2.82843 -1.57742e-13 
-0.597187 -2.82843 -9.70887e-13 
-0.482694 -2.82843 -5.89863e-12 
0.362676 -2.82843 -2.70205e-11 
0.318061 -2.82843 7.05676e-13 
0.612396 -2.82843 3.50264e-12 
0.71335 -2.82843 1.55891e-13 
0.839525 -2.82843 1.16923e-13 
0.986298 -2.82843 9.96389e-14 
1.15505 -2.82843 3.20405e-14 
1.34606 -2.82843 7.36039e-15 
1.57136 -2.82843 4.69341e-15 
1.81833 -2.82843 1.67875e-15 
2.07256 -2.82843 5.855e-16 
2.31143 -2.82843 1.9833e-16 
2.52579 -2.82843 6.74795e-17 
2.74749 -2.82843 2.18339e-17 
2.96358 -2.82843 5.01614e-19 
3.19355 -2.82843 1.74151e-18 
3.40316 -2.82843 2.2465e-18 
3.61686 -2.82843 2.15222e-18 
3.81457 -2.82843 1.49709e-18 
4.02602 -2.82843 1.17668e-18 
4.24709 -2.82843 7.90373e-19 
4.44282 -2.82843 7.33372e-19 
4.65968 -2.82843 7.60878e-19 
4.8682 -2.82843 6.27124e-19 
5.07186 -2.82843 6.32943e-19 
5.29235 -2.82843 4.65869e-19 
5.50254 -2.82843 3.51512e-19 
5.70338 -2.82843 3.79143e-19 
5.92355 -2.82843 2.88302e-19 
6.14117 -2.82843 9.17943e-20 
6.3382 -2.82843 2.67404e-19 
6.58602 -2.82843 6.60596e-20 
6.79126 -2.82843 9.95142e-20 
6.99432 -2.82843 1.88705e-19 
7.25828 -2.82843 -2.85095e-20 
7.48843 -2.82843 5.08812e-20 
7.7319 -2.82843 2.49103e-20 
8.01181 -2.82843 -1.53879e-19 
8.1935 -2.82843 3.1194e-16 
8.48528 -2.82843 2.22321e-14 
-8.48528 -2.59507 2.45264e-14 
-8.26295 -2.58474 -4.77543e-15 
-8.03542 -2.58593 -6.59479e-19 
-7.80222 -2.62494 9.95127e-21 
-7.54097 -2.6342 -3.55244e-21 
-7.25086 -2.61662 -1.48261e-20 
-7.00818 -2.59329 -4.21616e-20 
-6.78826 -2.59577 -5.26215e-20 
-6.55489 -2.59561 -7.0174e-20 
-6.32968 -2.59414 -7.58277e-20 
-6.11217 -2.58718 -8.16536e-20 
-5.89073 -2.60025 -7.2752e-20 
-5.67874 -2.58004 -6.76366e-20 
-5.46232 -2.59665 -5.6349e-20 
-5.24592 -2.58998 -3.17333e-20 
-5.02593 -2.60055 -3.19856e-21 
-4.817 -2.58124 2.90016e-20 
-4.59453 -2.60776 3.16e-20 
-4.37684 -2.59164 5.25207e-20 
-4.15558 -2.60647 6.38486e-20 
-3.94541 -2.5835 6.48621e-20 
-3.73521 -2.59311 -3.73238e-20 
-3.52103 -2.59087 -4.35758e-19 
-3.30475 -2.59338 -1.31938e-18 
-3.08502 -2.59131 -1.49688e-18 
-2.86159 -2.5886 5.52601e-18 
-2.63138 -2.58965 3.68394e-17 
-2.39215 -2.59041 1.54403e-16 
-2.14497 -2.59471 5.51612e-16 
-1.89465 -2.60023 2.10525e-15 
-1.65416 -2.59561 8.22691e-15 
-1.43209 -2.62869 2.9129e-14 
-1.22492 -2.64128 1.0354e-13 
-1.05249 -2.65148 3.07677e-13 
-0.898919 -2.7048 7.10881e-13 
-0.764266 -2.66563 1.29795e-12 
-0.654664 -2.72952 2.21097e-12 
-0.523865 -2.72369 5.86428e-13 
-0.3589 -2.89178 4.34913e-12 
0.146319 -2.81501 2.39487e-11 
0.393297 -2.71942 -2.01744e-12 
0.528888 -2.79679 -6.23185e-12 
0.684711 -2.70213 -1.8911e-12 
0.817442 -2.69833 -1.04068e-12 
0.973138 -2.67349 -4.08193e-13 
1.1481 -2.65131 -1.36342e-13 
1.33154 -2.62016 -4.0635e-14 
1.53735 -2.62414 -1.27619e-14 
1.78009 -2.61386 -3.31372e-15 
2.0296 -2.61045 -8.96882e-16 
2.28546 -2.59374 -2.75506e-16 
2.52298 -2.58013 -8.37682e-17 
2.75371 -2.58576 -1.81324e-17 
2.99441 -2.60401 3.1003e-18 
3.21739 -2.58804 2.12187e-18 
3.44181 -2.5975 7.08829e-19 
3.64937 -2.58071 7.4573e-20 
3.86524 -2.59728 -3.20983e-20 
4.09147 -2.60705 -2.99086e-20 
4.29859 -2.57602 -2.82385e-20 
4.51405 -2.60055 -4.2371e-20 
4.72972 -2.59055 -3.03034e-20 
4.94174 -2.58581 -1.01788e-20 
5.15857 -2.60443 2.45234e-20 
5.37911 -2.59379 5.01328e-20 
5.58794 -2.58189 6.40164e-20 
5.80403 -2.60256 6.86832e-20 
6.02824 -2.59764 7.49869e-20 
6.2404 -2.57024 7.96937e-20 
6.46104 -2.6213 6.0008e-20 
6.68812 -2.57356 6.30656e-20 
6.89615 -2.56717 5.06834e-20 
7.12556 -2.62618 2.47208e-20 
7.37652 -2.59452 1.51807e-20 
7.61441 -2.60782 3.29576e-21 
7.87324 -2.63628 -6.04448e-21 
8.07914 -2.53103 7.75344e-19 
8.2982 -2.63999 -5.55928e-14 
8.48528 -2.53424 -1.61661e-14 
-8.48528 -2.3456 -9.61219e-15 
-8.24789 -2.34976 5.04759e-16 
-8.00717 -2.35501 2.66281e-19 
-7.7649 -2.40684 -1.78075e-21 
-7.56867 -2.25071 -2.55795e-21 
-7.46624 -2.45047 -1.96596e-20 
-7.18746 -2.40235 -3.38975e-20 
-6.95111 -2.3414 -3.40828e-20 
-6.71424 -2.38011 -4.98651e-20 
-6.47445 -2.3685 -4.92999e-20 
-6.24515 -2.35835 -4.51408e-20 
-6.01732 -2.36144 -3.31295e-20 
-5.80431 -2.3549 -3.05596e-20 
-5.57399 -2.35255 -1.38389e-20 
-5.36051 -2.3619 4.6896e-21 
-5.13392 -2.36552 3.07458e-20 
-4.92556 -2.35049 6.60143e-20 
-4.6972 -2.36924 7.99884e-20 
-4.48565 -2.36971 6.56486e-20 
-4.25869 -2.3728 4.76505e-20 
-4.05256 -2.35831 4.18943e-20 
-3.83419 -2.35133 2.60556e-20 
-3.62337 -2.35988 -9.91846e-20 
-3.40324 -2.35981 -5.62195e-19 
-3.18327 -2.36015 -9.24728e-19 
-2.95782 -2.35603 2.17709e-18 
-2.72615 -2.35465 2.23774e-17 
-2.48811 -2.35642 1.0447e-16 
-2.24182 -2.36131 4.06853e-16 
-1.99286 -2.36789 1.42574e-15 
-1.74978 -2.36884 4.63571e-15 
-1.51268 -2.39187 1.60329e-14 
-1.30831 -2.42978 3.33771e-14 
-1.13013 -2.45628 6.03892e-14 
-0.968782 -2.5154 2.01582e-13 
-0.835717 -2.54049 1.78719e-13 
-0.649738 -2.59914 9.42086e-13 
-0.543455 -2.6206 1.47861e-12 
-0.379248 -2.7799 -5.73496e-13 
-0.264579 -2.8417 8.08522e-12 
0.276381 -2.77285 -5.90535e-12 
0.456048 -2.76326 -2.50385e-12 
0.676701 -2.5779 3.6873e-13 
0.805124 -2.57663 -7.06032e-13 
0.967297 -2.5345 -1.70647e-13 
1.09105 -2.44766 -5.11619e-14 
1.25795 -2.43152 -2.25457e-14 
1.47468 -2.40446 -1.24534e-14 
1.69625 -2.40875 -5.08285e-15 
1.946 -2.39143 -1.70536e-15 
2.19431 -2.38017 -4.89197e-16 
2.44486 -2.34633 -1.14735e-16 
2.6839 -2.35213 -2.62888e-17 
2.92275 -2.37405 -4.26859e-18 
3.14601 -2.35607 6.12863e-19 
3.37008 -2.36524 4.26124e-19 
3.57965 -2.34112 3.89587e-20 
3.7921 -2.35854 -5.51179e-20 
4.00748 -2.38115 -3.79027e-20 
4.21391 -2.34548 -3.82076e-20 
4.43585 -2.35785 -5.36951e-20 
4.64197 -2.3595 -7.61289e-20 
4.85623 -2.35169 -6.98633e-20 
5.07477 -2.36363 -4.24241e-20 
5.28532 -2.37232 -1.10393e-20 
5.50136 -2.34629 6.13253e-21 
5.72096 -2.36202 2.82406e-20 
5.93579 -2.37342 3.85113e-20 
6.15183 -2.34195 3.43335e-20 
6.39006 -2.36954 5.27894e-20 
6.59527 -2.3633 4.17734e-20 
6.82754 -2.31474 3.08191e-20 
7.05784 -2.37532 3.36474e-20 
7.28002 -2.39408 2.38121e-20 
7.54502 -2.3767 1.04041e-20 
7.78994 -2.41776 -4.24615e-21 
8.00599 -2.31392 4.65651e-19 
8.271 -2.37157 8.03725e-14 
8.48528 -2.27173 -3.42524e-14 
-8.48528 -2.11321 -1.15121e-15 
-8.25695 -2.10102 -7.74468e-15 
-8.04648 -2.11435 -5.06074e-19 
-7.80466 -2.16279 -2.51677e-21 
-7.51681 -2.03806 2.33001e-21 
-7.31279 -2.22792 -2.20663e-21 
-7.07245 -2.14178 2.47316e-21 
-6.79619 -2.13829 3.91224e-21 
-6.5801 -2.15356 6.75362e-21 
-6.34739 -2.13572 1.14924e-20 
-6.12071 -2.12862 1.59333e-20 
-5.90873 -2.11498 2.1025e-20 
-5.68951 -2.13236 2.67052e-20 
-5.46525 -2.11639 3.86342e-20 
-5.25137 -2.13996 5.16891e-20 
-5.04132 -2.11437 7.59461e-20 
-4.81924 -2.13762 8.87256e-20 
-4.60712 -2.13135 8.611e-20 
-4.39147 -2.14878 7.04994e-20 
-4.18703 -2.12293 3.43509e-20 
-3.97714 -2.12567 -2.18795e-20 
-3.76528 -2.11502 -6.8387e-20 
-3.55422 -2.13011 -8.69132e-20 
-3.33887 -2.1256 -5.16823e-20 
-3.12163 -2.12617 -6.16973e-20 
-2.89715 -2.12299 -5.166e-19 
-2.66496 -2.12256 -1.61574e-18 
-2.42273 -2.12794 -1.81394e-18 
-2.17448 -2.13368 2.84352e-18 
-1.92297 -2.13915 5.5632e-17 
-1.67157 -2.15285 -1.42628e-16 
-1.4477 -2.17467 -3.37298e-15 
-1.24736 -2.22304 -7.95505e-15 
-1.06687 -2.28387 -9.56906e-15 
-0.929442 -2.3591 -1.0981e-13 
-0.796659 -2.36863 -1.53893e-13 
-0.716987 -2.5001 3.23752e-13 
-0.407459 -2.68301 2.14069e-12 
-0.267084 -2.73165 8.40277e-12 
0.0117432 -2.85205 -1.39073e-11 
0.480264 -2.66003 -7.30385e-13 
0.584525 -2.69829 -3.63605e-12 
0.717314 -2.46358 3.21207e-13 
0.843002 -2.44086 -6.11231e-14 
0.943204 -2.33291 3.77297e-14 
1.08434 -2.23069 1.50485e-14 
1.29074 -2.23696 -5.04468e-15 
1.52007 -2.18713 -6.45655e-16 
1.75966 -2.19135 -4.66249e-16 
2.00969 -2.16391 -1.68888e-16 
2.25748 -2.14778 -3.99966e-17 
2.50904 -2.11562 -5.84342e-18 
2.75035 -2.13315 -1.28646e-18 
2.97213 -2.13257 2.89866e-19 
3.20097 -2.12801 1.78134e-19 
3.40937 -2.11955 2.04748e-19 
3.62845 -2.10911 1.3715e-19 
3.84528 -2.13364 4.61171e-20 
4.04609 -2.1323 9.87319e-21 
4.27567 -2.12478 -3.67474e-20 
4.48256 -2.11426 -7.42151e-20 
4.6949 -2.1241 -8.75394e-20 
4.91535 -2.12581 -8.32826e-20 
5.1285 -2.12714 -6.68061e-20 
5.33748 -2.13502 -4.82211e-20 
5.56596 -2.12224 -3.30418e-20 
5.78164 -2.13009 -2.39173e-20 
5.99202 -2.13042 -1.96991e-20 
6.23931 -2.13646 -1.38671e-20 
6.44643 -2.11179 -8.48218e-21 
6.66156 -2.12272 -7.0691e-21 
6.9275 -2.10915 -4.58517e-21 
7.14589 -2.14137 -1.50037e-21 
7.38182 -2.18456 2.81777e-21 
7.57829 -2.08668 -3.74184e-22 
7.75302 -2.18897 1.83654e-21 
7.96287 -2.07981 -3.39178e-20 
8.2043 -2.15136 4.78096e-15 
8.48528 -2.08768 -9.7945e-16 
-8.48528 -1.81415 8.15887e-15 
-8.30973 -1.85856 -1.18999e-14 
-7.90092 -1.91211 -9.6262e-22 
[...]
POINT_DATA 1978 
VECTORS vectors float
0.000575346 0.0270236 0.999635 
-0.000286668 0.00168339 0.999999 
8.22697e-05 0.00064685 1 
-2.82017e-05 8.83646e-05 1 
2.6069e-05 -0.000440962 1 
-7.92935e-06 -0.000964556 1 
2.96005e-07 -0.00145078 0.999999 
-1.08927e-06 -0.00196061 0.999998 
-1.35975e-06 -0.00245724 0.999997 
-1.18671e-06 -0.00293841 0.999996 
-1.03045e-06 -0.00340127 0.999994 
-7.84966e-07 -0.00381718 0.999993 
-5.62959e-07 -0.00423132 0.999991 
-3.01052e-07 -0.00460732 0.999989 
-9.498e-08 -0.00502144 0.999987 
3.91874e-08 -0.00545539 0.999985 
1.67462e-07 -0.00591636 0.999982 
2.54586e-07 -0.00631748 0.99998 
3.60334e-07 -0.0066966 0.999978 
4.99103e-07 -0.00695857 0.999976 
6.15732e-07 -0.00707638 0.999975 
7.76805e-07 -0.00697208 0.999976 
1.27571e-06 -0.00662888 0.999978 
2.48791e-06 -0.00592851 0.999982 
4.6453e-06 -0.00445325 0.99999 
6.72911e-06 -0.00156894 0.999999 
8.04436e-06 0.00326581 0.999995 
6.67791e-06 0.0105275 0.999945 
2.19731e-06 0.0208312 0.999783 
1.99041e-06 0.0356174 0.999365 
3.41921e-05 0.0577455 0.998331 
7.8884e-05 0.0886638 0.996062 
0.000234153 0.138387 0.990378 
7.68732e-05 0.203394 0.979097 
0.00037649 0.278577 0.960414 
-0.000352431 0.420487 0.907298 
0.000682147 0.508637 0.860981 
-0.00073251 0.637617 0.770353 
0.000239983 0.871361 0.490643 
6.48884e-05 0.944736 -0.327831 
-0.000399552 0.884296 -0.466927 
-0.000477279 0.614366 -0.789021 
0.000143422 0.505403 -0.862884 
-0.000166819 0.390047 -0.920795 
-9.75054e-06 0.284905 -0.958556 
-0.000182704 0.202767 -0.979227 
-0.000158247 0.141299 -0.989967 
-8.00031e-05 0.0908102 -0.995868 
-2.22383e-07 0.0565079 -0.998402 
1.25943e-05 0.0339668 -0.999423 
2.53085e-06 0.0195232 -0.999809 
-8.31859e-06 0.0100701 -0.999949 
-1.10525e-05 0.00286259 -0.999996 
-8.46068e-06 -0.00207029 -0.999998 
-4.31042e-06 -0.00496364 -0.999988 
-1.19649e-06 -0.00618948 -0.999981 
-1.36189e-07 -0.00661761 -0.999978 
-4.59936e-07 -0.00682809 -0.999977 
-7.92765e-07 -0.00694751 -0.999976 
-6.64674e-07 -0.00690997 -0.999976 
-3.62074e-07 -0.00669646 -0.999978 
-2.48412e-07 -0.00631934 -0.99998 
-1.12751e-07 -0.00590687 -0.999983 
-5.43296e-08 -0.0054928 -0.999985 
1.04488e-07 -0.00505305 -0.999987 
2.84068e-07 -0.00464699 -0.999989 
5.7992e-07 -0.00425196 -0.999991 
8.59843e-07 -0.00381281 -0.999993 
9.4899e-07 -0.00336164 -0.999994 
1.31416e-06 -0.00293117 -0.999996 
1.35023e-06 -0.00238683 -0.999997 
9.17321e-07 -0.00192729 -0.999998 
-5.00701e-07 -0.0014692 -0.999999 
1.05312e-05 -0.000920775 -1 
-3.22329e-05 -0.000453336 -1 
1.3865e-05 1.65642e-05 -1 
-5.28573e-05 0.000572984 -1 
0.000275553 0.00108012 -0.999999 
-0.000273834 0.0363824 -0.999338 
0.0349419 0.12739 0.991237 
0.00124219 0.00473328 0.999988 
0.000369608 0.000706985 1 
0.000299557 0.0001295 1 
0.000297407 -0.000361363 1 
0.000309757 -0.000928787 1 
0.000393637 -0.0014076 0.999999 
0.00033433 -0.00186828 0.999998 
0.000313454 -0.0023441 0.999997 
0.000243888 -0.00280873 0.999996 
0.000167048 -0.00322762 0.999995 
3.52956e-05 -0.00365138 0.999993 
-0.000104531 -0.00399682 0.999992 
-0.000248308 -0.00441617 0.99999 
-0.00040445 -0.00483999 0.999988 
-0.000502247 -0.00533068 0.999986 
-0.00061457 -0.00577795 0.999983 
-0.000546715 -0.006261 0.99998 
-0.000526429 -0.00661216 0.999978 
-0.000406603 -0.00682401 0.999977 
-0.00036419 -0.00676322 0.999977 
-0.000356032 -0.00642634 0.999979 
-0.000498641 -0.00565938 0.999984 
-0.000808773 -0.0042767 0.999991 
-0.00129148 -0.00181763 0.999998 
-0.00185319 0.00221801 0.999996 
-0.0023262 0.00834381 0.999962 
-0.00271605 0.0174067 0.999845 
-0.0030906 0.0308044 0.999521 
-0.00367369 0.0510148 0.998691 
-0.00510378 0.0813935 0.996669 
-0.00586611 0.123877 0.99228 
-0.00959943 0.18658 0.982393 
-0.0116385 0.265116 0.964146 
-0.0123364 0.362179 0.932027 
0.0031516 0.454964 0.890504 
-0.0068061 0.569405 0.822029 
0.0157583 0.739783 0.672661 
-0.0141969 0.914798 0.403661 
-0.00860335 0.988367 -0.151844 
-0.0255707 0.854233 -0.519261 
0.0151454 0.677615 -0.735261 
0.00254259 0.529656 -0.848209 
0.00418068 0.400531 -0.916274 
0.00852734 0.292216 -0.956314 
0.00751066 0.208894 -0.977909 
0.00451093 0.14657 -0.98919 
0.00341005 0.0996802 -0.995014 
0.00337012 0.0631672 -0.997997 
0.00310983 0.0392534 -0.999224 
0.0030406 0.0228713 -0.999734 
0.00301394 0.0121316 -0.999922 
0.00222828 0.00459237 -0.999987 
0.00150706 -0.000906107 -0.999998 
0.00104111 -0.00372121 -0.999993 
0.000566464 -0.00538174 -0.999985 
0.000364994 -0.00612864 -0.999981 
0.000306161 -0.00659216 -0.999978 
0.00036001 -0.00676961 -0.999977 
0.000505707 -0.00667627 -0.999978 
0.000531811 -0.00640632 -0.999979 
0.000584611 -0.00598318 -0.999982 
0.000562334 -0.00551615 -0.999985 
0.000426983 -0.00506824 -0.999987 
0.000308476 -0.00459861 -0.999989 
0.000167377 -0.0041777 -0.999991 
1.54326e-05 -0.00380448 -0.999993 
-0.000113406 -0.00337893 -0.999994 
-0.000232343 -0.00294385 -0.999996 
-0.000237647 -0.00254295 -0.999997 
-0.000361427 -0.00204774 -0.999998 
-0.000401513 -0.00161729 -0.999999 
-0.000308234 -0.00116454 -0.999999 
-0.000381409 -0.000666595 -1 
-0.00035131 -0.000215787 -1 
-0.000279046 0.00027797 -1 
-0.000453853 0.000841854 -1 
-0.0016222 0.00594088 -0.999981 
-0.0499862 0.170048 -0.984167 
0.000694726 0.105899 0.994377 
0.000335406 0.00362532 0.999993 
0.000436799 0.00049308 1 
0.000505737 1.28304e-05 1 
0.000475709 -0.000334229 1 
0.000536064 -0.00051054 1 
0.000523897 -0.00100954 0.999999 
0.000455261 -0.00144698 0.999999 
0.000421727 -0.00190733 0.999998 
0.000325456 -0.00234969 0.999997 
0.000195555 -0.0027482 0.999996 
2.99621e-05 -0.00312703 0.999995 
-0.000170015 -0.00346574 0.999994 
-0.000419774 -0.00385193 0.999992 
-0.000646099 -0.0042762 0.999991 
-0.000867567 -0.0047851 0.999988 
-0.00104264 -0.00528367 0.999985 
-0.0010749 -0.00587294 0.999982 
-0.00102724 -0.00632673 0.999979 
-0.00087283 -0.00664374 0.999978 
-0.000731453 -0.0066719 0.999977 
-0.00060413 -0.0063312 0.99998 
-0.000577288 -0.00556796 0.999984 
-0.000736981 -0.00414988 0.999991 
-0.00107971 -0.00188316 0.999998 
-0.00152778 0.00164729 0.999997 
-0.00193429 0.00688886 0.999974 
-0.00210044 0.0144947 0.999893 
-0.00189151 0.0257813 0.999666 
-0.00117591 0.0424143 0.999099 
0.000634889 0.0663601 0.997796 
0.00382706 0.102596 0.994716 
0.00683535 0.150339 0.988611 
0.0140789 0.208713 0.977876 
0.0231028 0.291945 0.956156 
0.0389565 0.374537 0.926393 
0.0503972 0.543947 0.837605 
0.0568173 0.653614 0.754692 
0.0537404 0.857071 0.512387 
0.000713618 0.951303 0.308257 
-0.0185963 0.934478 -0.355535 
-9.49916e-05 0.773068 -0.634323 
-0.0610211 0.510041 -0.857983 
-0.0340175 0.38666 -0.921595 
-0.0186103 0.277379 -0.96058 
-0.0237839 0.212067 -0.976966 
-0.0139085 0.157738 -0.987383 
-0.00643346 0.106974 -0.994241 
-0.000258788 0.07254 -0.997365 
0.00162433 0.0459891 -0.998941 
0.00252458 0.0283925 -0.999594 
0.0022304 0.0161387 -0.999867 
0.00231762 0.00777141 -0.999967 
0.00194317 0.00198352 -0.999996 
0.00125408 -0.00157932 -0.999998 
0.000786122 -0.00399606 -0.999992 
0.000557542 -0.00532019 -0.999986 
0.000532304 -0.00618775 -0.999981 
0.000623731 -0.0065996 -0.999978 
0.000846138 -0.00663356 -0.999978 
0.000986232 -0.00639924 -0.999979 
0.00105762 -0.00599416 -0.999981 
0.00105193 -0.00546912 -0.999984 
0.000910712 -0.00493755 -0.999987 
0.000708709 -0.00446562 -0.99999 
0.000508805 -0.00398621 -0.999992 
0.000248267 -0.0036156 -0.999993 
2.90921e-05 -0.0032714 -0.999995 
-0.000113501 -0.0028752 -0.999996 
-0.000281922 -0.00248953 -0.999997 
-0.000368489 -0.00210998 -0.999998 
-0.000407401 -0.00164845 -0.999999 
-0.000492771 -0.00123901 -0.999999 
-0.000525683 -0.000827665 -1 
-0.000523032 -0.000348488 -1 
-0.000511304 8.092e-05 -1 
-0.000439022 0.000490153 -1 
-0.000904668 0.00456683 -0.999989 
0.00101613 0.0810318 -0.996711 
-0.0165183 0.0869951 0.996072 
-0.000189862 0.00266334 0.999996 
0.000288078 0.000411734 1 
0.000399806 2.14013e-05 1 
0.000335087 -0.000404804 1 
0.000448452 -0.000760406 1 
0.000343012 -0.0011497 0.999999 
0.000257607 -0.00163074 0.999999 
0.000191889 -0.00201085 0.999998 
4.86855e-05 -0.00237514 0.999997 
-0.000114336 -0.00270672 0.999996 
-0.000317874 -0.00299536 0.999995 
-0.000531255 -0.00334543 0.999994 
-0.000806977 -0.00371576 0.999993 
-0.00103196 -0.00420511 0.999991 
-0.00126739 -0.00470384 0.999988 
-0.00138707 -0.00534478 0.999985 
-0.00142778 -0.00590494 0.999982 
-0.00132677 -0.00637355 0.999979 
-0.00120215 -0.0065779 0.999978 
-0.000984129 -0.00647904 0.999979 
-0.000777118 -0.00593808 0.999982 
-0.000597835 -0.00488531 0.999988 
-0.000461733 -0.00314462 0.999995 
-0.000314267 -0.000579265 1 
-1.23263e-05 0.00312874 0.999995 
0.00063631 0.00838034 0.999965 
0.00190803 0.0159812 0.99987 
0.0043953 0.026945 0.999627 
0.00885871 0.0429183 0.999039 
0.0166789 0.0668258 0.997625 
0.029476 0.0980744 0.994742 
0.0420003 0.140156 0.989238 
0.0600746 0.20525 0.976864 
0.0853058 0.273981 0.957944 
0.115839 0.334645 0.935197 
0.0924703 0.44524 0.890624 
0.0683608 0.746372 0.662009 
0.0627227 0.906283 0.417991 
-0.00102886 0.999613 0.027794 
-0.0540017 0.762108 -0.645193 
-0.0142218 0.627315 -0.778636 
-0.141453 0.443335 -0.885124 
-0.0786236 0.331425 -0.9402 
-0.0790942 0.244194 -0.966495 
-0.0666882 0.175247 -0.982263 
-0.0372936 0.128847 -0.990963 
-0.0223135 0.0852421 -0.99611 
-0.0109287 0.0577544 -0.998271 
-0.00559743 0.0369631 -0.999301 
-0.00253595 0.022922 -0.999734 
-0.00108876 0.0127957 -0.999918 
0.000105927 0.00613901 -0.999981 
0.000402086 0.00159092 -0.999999 
0.000468949 -0.00174683 -0.999998 
0.000504971 -0.00384377 -0.999992 
0.000626206 -0.0053206 -0.999986 
0.000789205 -0.00619062 -0.999981 
0.000994943 -0.00653261 -0.999978 
0.00122834 -0.0065035 -0.999978 
0.00137045 -0.0061762 -0.99998 
0.00139721 -0.00567524 -0.999983 
0.00132747 -0.0050686 -0.999986 
0.0011657 -0.00449774 -0.999989 
0.000940171 -0.0040131 -0.999992 
0.000687534 -0.0035424 -0.999993 
0.000437551 -0.00319918 -0.999995 
0.000229453 -0.00288776 -0.999996 
2.53659e-05 -0.00253107 -0.999997 
-8.08459e-05 -0.00219098 -0.999998 
-0.000193835 -0.00184551 -0.999998 
-0.000273695 -0.00138146 -0.999999 
-0.000350424 -0.00101218 -0.999999 
-0.000415653 -0.000617032 -1 
-0.000355091 -0.000292243 -1 
-0.000411051 -1.86962e-05 -1 
-0.000298596 0.000290339 -1 
-0.000155275 0.00178543 -0.999998 
0.00781449 0.0550047 -0.998456 
0.0029911 0.0400294 0.999194 
0.000189542 0.0022739 0.999997 
0.000264639 9.67987e-05 1 
0.000275775 -0.00015804 1 
0.000211675 -0.00048109 1 
0.000281369 -0.000765263 1 
0.000162354 -0.000925414 1 
0.000181429 -0.00128171 0.999999 
5.37637e-05 -0.00164718 0.999999 
-3.15571e-05 -0.00199963 0.999998 
-0.000190684 -0.00230957 0.999997 
-0.000374776 -0.00256474 0.999997 
-0.000578155 -0.00286413 0.999996 
-0.000807093 -0.00320599 0.999995 
-0.0010823 -0.00363589 0.999993 
-0.00130498 -0.00412461 0.999991 
-0.00150843 -0.00479391 0.999987 
-0.001617 -0.00542872 0.999984 
-0.00161496 -0.0060289 0.999981 
-0.0015277 -0.0063874 0.999978 
-0.00132833 -0.0064857 0.999978 
-0.00105664 -0.00618468 0.99998 
-0.000707386 -0.00533476 0.999986 
-0.000310101 -0.00393339 0.999992 
0.000253998 -0.00177874 0.999998 
0.00107781 0.00117491 0.999999 
0.00239267 0.00523918 0.999983 
0.00448956 0.0108399 0.999931 
0.00798351 0.0184526 0.999798 
0.0136203 0.0290977 0.999484 
0.0228636 0.0440013 0.99877 
0.0372797 0.0624321 0.997353 
0.0563181 0.0902674 0.994324 
0.0846237 0.120329 0.989121 
0.0980141 0.168147 0.980877 
0.134738 0.230426 0.963717 
0.18135 0.387605 0.903811 
0.156614 0.548121 0.821605 
0.112106 0.824544 0.55458 
0.0206239 0.9864 0.163065 
-0.0686651 0.896812 -0.437052 
-0.0987982 0.632966 -0.76785 
-0.13781 0.301717 -0.943385 
-0.127688 0.21108 -0.969093 
-0.104759 0.145937 -0.983732 
-0.078941 0.101947 -0.991653 
-0.0551988 0.0994744 -0.993508 
-0.0411329 0.0677427 -0.996855 
-0.0244387 0.0517636 -0.99836 
-0.0147341 0.0347838 -0.999286 
-0.00867547 0.0221764 -0.999716 
-0.00508463 0.0133831 -0.999898 
-0.00257041 0.00669333 -0.999974 
-0.0012534 0.00232293 -0.999997 
-0.000368194 -0.000912009 -1 
0.000123739 -0.00328404 -0.999995 
0.000534378 -0.00487148 -0.999988 
0.00089105 -0.00594325 -0.999982 
0.00117985 -0.00641066 -0.999979 
0.0013862 -0.00647536 -0.999978 
0.00155995 -0.00616171 -0.99998 
0.00159699 -0.0056538 -0.999983 
0.00153498 -0.00503538 -0.999986 
0.00138719 -0.00439465 -0.999989 
0.0011751 -0.00383306 -0.999992 
0.000935345 -0.00340467 -0.999994 
0.000683526 -0.00300152 -0.999995 
0.00046828 -0.00270244 -0.999996 
0.000254331 -0.00245342 -0.999997 
0.000132327 -0.00210524 -0.999998 
9.4533e-06 -0.00179752 -0.999998 
-0.000105535 -0.0014738 -0.999999 
-0.000172623 -0.00103631 -0.999999 
-0.000247947 -0.000689765 -1 
-0.000233567 -0.000335992 -1 
-0.000247807 4.67086e-06 -1 
-0.000176607 0.00033877 -1 
0.000137976 0.00205103 -0.999998 
0.00959961 0.0482521 -0.998789 
0.0265148 0.024496 0.999348 
0.00110229 0.00112567 0.999999 
0.000225871 0.000350444 1 
0.000230986 5.85044e-05 1 
0.000213951 -0.000184708 1 
0.000145646 -0.000650201 1 
7.18021e-05 -0.00108736 0.999999 
2.23081e-05 -0.00137938 0.999999 
-9.48689e-05 -0.00173296 0.999998 
-0.000206747 -0.00200825 0.999998 
-0.000360137 -0.00223741 0.999997 
-0.00054809 -0.00249363 0.999997 
-0.000752826 -0.0027842 0.999996 
-0.000980698 -0.00315973 0.999995 
-0.00120422 -0.00359789 0.999993 
-0.00142219 -0.004212 0.99999 
-0.0015797 -0.00486418 0.999987 
-0.00166492 -0.00552826 0.999983 
-0.00164207 -0.00602628 0.99998 
-0.00152599 -0.00636522 0.999979 
-0.00130468 -0.00640059 0.999979 
-0.000971726 -0.00602984 0.999981 
-0.000513782 -0.0052031 0.999986 
0.000102226 -0.00382032 0.999993 
0.001021 -0.0018965 0.999998 
0.00235205 0.000720999 0.999997 
0.00436535 0.00416811 0.999982 
0.00739773 0.00859626 0.999936 
0.012086 0.0142711 0.999825 
0.0193632 0.022263 0.999565 
0.0303596 0.0311965 0.999052 
0.0466439 0.0439731 0.997943 
0.0717024 0.0637068 0.995389 
0.105248 0.0801271 0.991213 
0.139092 0.116509 0.983402 
0.164949 0.177285 0.970238 
0.187508 0.28745 0.939262 
0.275068 0.454795 0.847053 
0.147646 0.693889 0.704783 
0.0115748 0.997832 0.064786 
-0.0995315 0.842223 -0.529863 
-0.225556 0.438656 -0.869888 
-0.191857 0.278974 -0.940938 
-0.170435 0.173945 -0.969894 
-0.140296 0.109575 -0.984028 
-0.0950093 0.0741839 -0.992708 
-0.0611464 0.055195 -0.996602 
-0.0389152 0.0399054 -0.998445 
-0.025606 0.0309687 -0.999192 
-0.0162606 0.021249 -0.999642 
-0.0103701 0.0135506 -0.999854 
-0.00606835 0.00774267 -0.999952 
-0.00367297 0.00326635 -0.999988 
-0.00188482 9.20575e-05 -0.999998 
-0.00078464 -0.00231818 -0.999997 
-1.51333e-05 -0.00416963 -0.999991 
0.000604914 -0.00543528 -0.999985 
0.00100859 -0.0061547 -0.999981 
0.00132106 -0.00643162 -0.999978 
0.00151321 -0.00632436 -0.999979 
0.00160621 -0.0058644 -0.999982 
0.00160027 -0.00527219 -0.999985 
0.00150377 -0.00461504 -0.999988 
0.00133422 -0.00396822 -0.999991 
0.00112478 -0.00341972 -0.999994 
0.000902138 -0.00302205 -0.999995 
0.000677143 -0.00265944 -0.999996 
0.000469193 -0.00239836 -0.999997 
0.000307159 -0.00216899 -0.999998 
0.000166394 -0.00185711 -0.999998 
5.05633e-05 -0.00156762 -0.999999 
-4.85234e-05 -0.00126005 -0.999999 
-9.06806e-05 -0.000923312 -1 
-0.000152314 -0.000654791 -1 
-0.000171083 -0.00031687 -1 
-0.000192344 -2.19756e-05 -1 
-0.000181534 0.000234789 -1 
-0.000144451 0.00161039 -0.999999 
-0.00667364 0.0252818 -0.999658 
0.0361178 0.0292813 0.998918 
0.00131897 0.00113863 0.999998 
0.000294406 0.000238127 1 
0.000222091 -2.83262e-05 1 
0.000177771 -0.000326363 1 
0.000137284 -0.000559781 1 
8.53139e-05 -0.00087295 1 
1.76524e-05 -0.0011815 0.999999 
-5.36971e-05 -0.00147112 0.999999 
-0.000154895 -0.00172806 0.999998 
-0.000265975 -0.00194889 0.999998 
-0.000418242 -0.00218143 0.999998 
-0.000590572 -0.00242193 0.999997 
-0.000785952 -0.00273473 0.999996 
-0.000975609 -0.00312405 0.999995 
-0.00117686 -0.00370867 0.999992 
-0.00135371 -0.004337 0.99999 
-0.0014675 -0.00504946 0.999986 
-0.00147618 -0.0056327 0.999983 
-0.001418 -0.00612788 0.99998 
-0.0012522 -0.00638678 0.999979 
-0.00097206 -0.00632991 0.999979 
-0.000548881 -0.0058901 0.999983 
8.57916e-05 -0.00498368 0.999988 
0.000980295 -0.00367557 0.999993 
0.00234827 -0.00186535 0.999996 
0.00430555 0.000452726 0.999991 
0.00721538 0.00328904 0.999969 
0.0114753 0.0066717 0.999912 
0.0179645 0.0112026 0.999776 
0.0275052 0.0155553 0.999501 
0.0414544 0.0207755 0.998924 
0.0624032 0.0314063 0.997557 
0.090903 0.0383283 0.995122 
0.138761 0.0587193 0.988583 
0.188444 0.0687608 0.979674 
0.237372 0.225764 0.94482 
0.157729 0.49808 0.852665 
0.0690703 0.624015 0.778354 
0.00446078 0.99886 0.047524 
-0.130999 0.776217 -0.616707 
-0.138452 0.458939 -0.877614 
-0.232578 0.235524 -0.943629 
-0.163924 0.0556702 -0.984901 
-0.11787 0.0507474 -0.991731 
-0.0831562 0.0277802 -0.996149 
-0.0636942 0.0323566 -0.997445 
-0.0459732 0.0224071 -0.998691 
-0.0311721 0.0183637 -0.999345 
-0.0210229 0.0145856 -0.999673 
-0.0136114 0.00885822 -0.999868 
-0.00861341 0.00547179 -0.999948 
-0.00538211 0.0016448 -0.999984 
-0.00306587 -0.000850207 -0.999995 
-0.00159178 -0.00288043 -0.999995 
-0.000577545 -0.00442476 -0.99999 
0.000241994 -0.00548773 -0.999985 
0.000724416 -0.00617504 -0.999981 
0.00109295 -0.0064184 -0.999979 
0.00131902 -0.00630479 -0.999979 
0.00143686 -0.00593874 -0.999981 
0.00142839 -0.00528321 -0.999985 
0.00136841 -0.00461941 -0.999988 
0.00124052 -0.00395233 -0.999991 
0.00105984 -0.00335855 -0.999994 
0.000875299 -0.00289707 -0.999995 
0.000687162 -0.00256038 -0.999996 
0.000493259 -0.00228427 -0.999997 
0.000328384 -0.00204503 -0.999998 
0.000203904 -0.00182945 -0.999998 
7.89629e-05 -0.00152777 -0.999999 
-6.84353e-06 -0.00123768 -0.999999 
-7.63552e-05 -0.000877636 -1 
-0.000129028 -0.00053983 -1 
-0.000161809 -0.000251299 -1 
-0.000180856 -3.25932e-05 -1 
-0.00021329 0.000169975 -1 
-0.000476819 0.00079014 -1 
-0.0166261 0.0210215 -0.999641 
0.0363399 0.0362373 0.998682 
0.00137098 0.00139899 0.999998 
0.00030352 0.000199985 1 
0.000244315 2.12052e-05 1 
0.00019291 -0.00022182 1 
0.000148881 -0.000528777 1 
8.79904e-05 -0.000881928 1 
3.61353e-05 -0.00117193 0.999999 
-4.63375e-05 -0.00144998 0.999999 
-0.000112405 -0.00165258 0.999999 
-0.000232187 -0.0018853 0.999998 
-0.000363944 -0.00210031 0.999998 
-0.000499003 -0.0023349 0.999997 
-0.000654953 -0.00264751 0.999996 
-0.000846928 -0.00314172 0.999995 
-0.00094956 -0.00371341 0.999993 
-0.0011171 -0.00441197 0.99999 
-0.00112396 -0.00504988 0.999987 
-0.00111464 -0.00568551 0.999983 
-0.0010193 -0.00617243 0.99998 
-0.000834926 -0.00645462 0.999979 
-0.000522541 -0.00644029 0.999979 
-5.57285e-05 -0.00608443 0.999981 
0.000642871 -0.00542734 0.999985 
0.0016745 -0.00438064 0.999989 
0.00322695 -0.00308162 0.99999 
0.00545179 -0.00149566 0.999984 
0.00866958 0.000185121 0.999962 
0.0133787 0.00225832 0.999908 
0.0200991 0.00398268 0.99979 
0.0297279 0.0049928 0.999546 
0.0444743 0.00644139 0.99899 
0.0637871 0.00871914 0.997925 
0.0852184 0.00297851 0.996358 
0.117817 0.0173477 0.992884 
0.163717 0.0184116 0.986336 
0.186876 0.126755 0.974172 
0.28205 0.354878 0.891352 
0.184737 0.609365 0.771068 
0.025468 0.991888 0.12454 
-0.16363 0.700298 -0.694844 
-0.252429 0.406051 -0.878295 
-0.202052 0.115271 -0.972568 
-0.169133 0.0185722 -0.985418 
-0.116885 0.0112856 -0.993081 
-0.0812562 -0.000152202 -0.996693 
-0.0569973 0.00516212 -0.998361 
-0.038912 0.00509847 -0.99923 
-0.0273516 0.00509203 -0.999613 
-0.0187885 0.00488122 -0.999812 
-0.0123407 0.00202868 -0.999922 
-0.00820326 0.000590345 -0.999966 
-0.00515994 -0.00164835 -0.999985 
-0.00312245 -0.00321101 -0.99999 
-0.00174331 -0.00449395 -0.999988 
-0.000643937 -0.0054719 -0.999985 
2.68379e-05 -0.00611822 -0.999981 
0.000510066 -0.00648194 -0.999979 
0.00084674 -0.00646262 -0.999979 
0.000998131 -0.0061638 -0.999981 
0.00114797 -0.00566549 -0.999983 
0.00108555 -0.00494901 -0.999987 
0.00104328 -0.00425335 -0.99999 
0.000929305 -0.00359659 -0.999993 