# vtk DataFile Version 3.0 
Exported using Morpho https://github.com/Morpho-lang/morpho 
ASCII 
DATASET UNSTRUCTURED_GRID 

POINTS 3402 float 
-1.58818 -6.89039 0.000243169 
-1.38784 -6.93354 -0.000122197 
-1.18579 -6.97092 -0.000131075 
-0.969663 -7.00427 0.000378387 
-0.727193 -7.03357 -0.00107664 
-0.523703 -7.05164 0.00110479 
-0.303102 -7.06456 -0.00137587 
-0.0940698 -7.07044 0.000216901 
0.116548 -7.0701 0.000929697 
0.336135 -7.06307 -0.00114648 
0.531393 -7.05107 0.000920212 
0.737187 -7.03253 -0.00115353 
0.943114 -7.00788 0.00105148 
1.16474 -6.97448 -0.000293106 
1.37731 -6.93563 0.000812771 
1.61006 -6.88531 -0.000277765 
-2.43465 -6.63871 -0.000261184 
-2.22193 -6.71289 0.000658725 
-2.01169 -6.77887 -0.00097627 
-1.80447 -6.83695 5.54134e-05 
-1.56683 -6.66813 6.82297e-15 
-1.33868 -6.69638 -2.75214e-15 
-1.12669 -6.74357 -4.49945e-15 
-0.893529 -6.80243 3.13828e-15 
-0.680644 -6.78701 2.81592e-15 
-0.460981 -6.82341 -4.69817e-16 
-0.250085 -6.81832 -1.94481e-15 
-0.040656 -6.82197 1.47222e-15 
0.174809 -6.8328 2.82815e-15 
0.378484 -6.79776 -1.86928e-15 
0.584028 -6.80046 -1.77506e-15 
0.790597 -6.77883 -2.53951e-15 
1.00985 -6.76665 -2.22565e-15 
1.2283 -6.71902 -5.11521e-16 
1.44944 -6.69826 -3.95958e-15 
1.68782 -6.65777 -3.63774e-16 
1.85639 -6.82303 -0.000756549 
2.04936 -6.76758 0.00126817 
2.28189 -6.69274 -0.000831855 
-2.85659 -6.46837 0.000100368 
-2.65355 -6.55428 -0.000317753 
-2.44784 -6.412 -1.16909e-15 
-2.21928 -6.48362 7.56546e-15 
-1.99957 -6.54651 -1.28517e-15 
-1.78243 -6.60552 9.25016e-16 
-1.54112 -6.43944 -1.70191e-15 
-1.33325 -6.47446 -2.30126e-15 
-1.11827 -6.50175 1.25193e-15 
-0.917078 -6.57199 1.70433e-15 
-0.706616 -6.54695 -7.25526e-16 
-0.491813 -6.5874 2.2048e-15 
-0.276944 -6.57296 -9.7975e-16 
-0.0695714 -6.57394 -6.51611e-16 
0.141289 -6.58884 -1.61491e-15 
0.354455 -6.56166 2.79075e-16 
0.571223 -6.55234 2.89375e-15 
0.791274 -6.54558 1.99895e-15 
1.0155 -6.53445 -2.62027e-16 
1.23408 -6.48492 -1.47334e-15 
1.46781 -6.48126 2.61965e-15 
1.6752 -6.41469 -8.74008e-16 
1.88602 -6.54633 4.35386e-15 
2.10765 -6.53416 -1.20514e-15 
2.32585 -6.44801 -6.16804e-15 
2.49902 -6.61474 -0.000115293 
2.67511 -6.54551 0.000719538 
2.91462 -6.44242 -0.000427106 
-3.28511 -6.26163 -9.8269e-05 
-3.09247 -6.35897 -0.000175179 
-2.89094 -6.24204 -3.88164e-15 
-2.65965 -6.30473 3.93531e-15 
-2.38749 -6.20967 -3.84096e-15 
-2.17183 -6.26575 1.54871e-15 
-1.96005 -6.32511 -1.91266e-16 
-1.74865 -6.3793 -2.6649e-15 
-1.55119 -6.20586 -1.18448e-15 
-1.33761 -6.24198 -9.53296e-17 
-1.12794 -6.27273 1.75492e-15 
-0.909406 -6.33107 -5.67842e-16 
-0.694886 -6.31125 -2.78152e-15 
-0.488207 -6.35722 -3.02862e-16 
-0.284086 -6.3298 -2.45324e-15 
-0.075295 -6.33007 -1.59444e-15 
0.133301 -6.35087 -3.59237e-16 
0.345543 -6.32746 2.06892e-15 
0.5536 -6.31203 8.03339e-16 
0.763522 -6.31387 8.95577e-16 
0.975538 -6.31231 2.74197e-15 
1.18842 -6.2624 5.25412e-17 
1.40871 -6.2658 1.20217e-15 
1.62486 -6.20403 -1.74129e-16 
1.87917 -6.30344 -2.78235e-16 
2.08544 -6.31202 2.78627e-16 
2.27199 -6.21113 1.38766e-15 
2.50338 -6.32428 1.89236e-15 
2.73113 -6.31646 -6.11513e-15 
2.9754 -6.21318 1.75077e-15 
3.16231 -6.32453 0.000463753 
3.37928 -6.21131 0.000473852 
-3.71657 -6.01556 5.80535e-05 
-3.52311 -6.13087 -0.00035978 
-3.31275 -6.03647 6.55618e-16 
-3.08421 -6.09408 1.28525e-15 
-2.82681 -6.03843 4.27053e-16 
-2.6072 -6.09717 -3.14376e-17 
-2.41841 -5.97724 -1.25467e-15 
-2.20161 -6.03317 -2.25234e-15 
-1.98605 -6.0894 2.21116e-17 
-1.76921 -6.14477 -5.09752e-16 
-1.54488 -5.98391 7.83582e-16 
-1.32404 -6.01477 1.45184e-15 
-1.10985 -6.03441 8.13491e-16 
-0.909944 -6.10005 -4.89784e-16 
-0.707781 -6.07023 -1.71803e-15 
-0.494468 -6.11407 -1.90189e-15 
-0.280023 -6.09109 1.03383e-17 
-0.0728182 -6.085 7.12937e-16 
0.137607 -6.11098 -3.56879e-17 
0.346959 -6.085 4.96318e-17 
0.563517 -6.07608 -1.03027e-15 
0.776525 -6.07769 -2.07428e-16 
0.987479 -6.07631 -4.85548e-16 
1.19535 -6.02046 -1.33504e-15 
1.4001 -6.04185 -1.05221e-15 
1.60872 -5.97429 -6.68215e-16 
1.82711 -6.0893 -1.42653e-15 
2.05098 -6.07354 8.94424e-16 
2.27647 -5.9966 2.90093e-15 
2.49809 -6.10962 1.89055e-15 
2.73226 -6.1051 -2.57796e-15 
2.96063 -6.00462 -3.6038e-15 
3.20234 -6.07148 8.09393e-15 
3.41222 -5.9511 -4.0997e-15 
3.58526 -6.09473 -0.000345374 
-3.94115 -5.87088 -0.000188293 
-3.72714 -5.78833 -2.17054e-15 
-3.50397 -5.87694 -3.64915e-15 
-3.25987 -5.82783 5.74437e-16 
-3.03628 -5.88495 6.15823e-16 
-2.84439 -5.79598 4.09316e-17 
-2.64059 -5.85852 1.10793e-16 
-2.422 -5.75892 2.12409e-15 
-2.19904 -5.80958 2.28035e-15 
-1.9821 -5.86226 3.18726e-15 
-1.76655 -5.92 3.14323e-15 
-1.55634 -5.75972 6.20187e-16 
-1.33776 -5.79005 3.49733e-16 
-1.12089 -5.80143 -8.43458e-16 
-0.905444 -5.84885 3.5538e-16 
-0.690218 -5.8331 4.71637e-16 
-0.490664 -5.88056 -7.51029e-18 
-0.291023 -5.84421 6.5056e-16 
-0.0883356 -5.8395 -7.48127e-17 
0.120931 -5.86969 5.88659e-16 
0.34036 -5.85482 1.6738e-16 
0.552751 -5.84161 -2.09969e-16 
0.765015 -5.84433 -8.50987e-16 
0.979585 -5.83936 -5.46806e-16 
1.19552 -5.79064 1.39362e-16 
1.41025 -5.80178 -1.37926e-15 
1.63543 -5.75438 1.02021e-16 
1.84322 -5.87067 -2.45924e-15 
2.05971 -5.85226 -5.18292e-16 
2.2778 -5.77614 2.34741e-16 
2.49552 -5.88718 2.58581e-15 
2.71375 -5.89948 -9.60992e-16 
2.92377 -5.79548 1.74126e-15 
3.16352 -5.855 1.62022e-15 
3.38922 -5.74441 2.87246e-16 
3.64019 -5.85144 5.41453e-15 
3.81764 -5.95193 0.000336022 
3.99693 -5.83305 -0.000416827 
-4.3863 -5.54618 0.000248955 
-4.13752 -5.73418 0.000619584 
-3.91522 -5.62949 4.81419e-15 
-3.67904 -5.5672 -5.93611e-16 
-3.48144 -5.66448 1.28948e-15 
-3.29546 -5.58493 3.25157e-16 
-3.08709 -5.65217 -1.92497e-15 
-2.85921 -5.58887 -3.14726e-16 
-2.62344 -5.62217 1.1993e-15 
-2.39598 -5.53338 1.56836e-15 
-2.18694 -5.58656 1.13478e-15 
-1.97378 -5.63005 9.83362e-16 
-1.76729 -5.6872 1.21936e-15 
-1.5749 -5.52666 -5.4601e-16 
-1.36608 -5.56753 -4.16189e-16 
-1.14881 -5.57944 -6.51933e-16 
-0.924432 -5.62104 -8.74522e-16 
-0.70393 -5.61362 8.03765e-16 
-0.477071 -5.63486 1.25732e-15 
-0.267489 -5.60227 -5.12965e-17 
-0.0488828 -5.61092 4.81642e-16 
0.16447 -5.64343 3.17717e-16 
0.379254 -5.6215 -1.24768e-16 
0.593194 -5.61062 4.64891e-16 
0.806671 -5.61682 -5.27914e-16 
1.01701 -5.60801 4.35427e-16 
1.24538 -5.57026 3.10974e-16 
1.45439 -5.57788 5.47693e-16 
1.65614 -5.51701 5.83783e-16 
1.8467 -5.64043 -6.8439e-16 
2.05733 -5.62542 -1.02866e-15 
2.26046 -5.54832 -4.77124e-16 
2.482 -5.65507 -1.11385e-15 
2.695 -5.68048 -3.05993e-16 
2.91772 -5.58553 -1.57286e-16 
3.14684 -5.64873 8.83592e-16 
3.35265 -5.53012 -1.33043e-15 
3.59203 -5.6344 -2.00757e-15 
3.81992 -5.66648 4.55946e-15 
4.03466 -5.58737 -1.1381e-14 
4.22358 -5.67108 -0.000393074 
-4.5786 -5.38854 -0.000110307 
-4.34018 -5.31863 -9.75482e-15 
-4.1596 -5.51786 -5.15983e-15 
-3.93153 -5.42322 6.94097e-16 
-3.72387 -5.34961 8.06073e-16 
-3.49633 -5.40844 -1.2676e-15 
-3.26959 -5.36998 -4.36348e-16 
-3.0541 -5.4294 4.29987e-16 
-2.83986 -5.35526 7.47426e-16 
-2.63529 -5.40968 1.26073e-15 
-2.4175 -5.32031 -5.8813e-16 
-2.19045 -5.35203 -9.10765e-16 
-1.98663 -5.39535 -1.03398e-15 
-1.77887 -5.44609 -1.16843e-15 
-1.54195 -5.31422 -2.49854e-17 
-1.3278 -5.35232 1.28948e-16 
-1.11634 -5.35897 3.67973e-16 
-0.916353 -5.40737 -5.88487e-16 
-0.722289 -5.37635 1.42008e-16 
-0.52357 -5.41663 -4.52928e-16 
-0.316608 -5.37755 5.90729e-16 
-0.102148 -5.38821 -1.23482e-16 
0.116937 -5.40961 8.7564e-17 
0.318871 -5.40357 -1.11804e-16 
0.53206 -5.38949 -2.86279e-16 
0.74693 -5.39131 -1.4283e-16 
0.952157 -5.38644 1.45772e-16 
1.16041 -5.3842 2.90071e-16 
1.39519 -5.35278 4.13628e-16 
1.58865 -5.30951 -1.84308e-16 
1.83664 -5.39173 3.78512e-16 
2.03248 -5.39859 1.54738e-17 
2.25188 -5.33727 3.33981e-16 
2.47923 -5.43575 -5.08242e-16 
2.70439 -5.45604 -1.28682e-15 
2.91072 -5.3555 -1.99495e-15 
3.12232 -5.43142 -1.0773e-15 
3.3299 -5.31472 -2.62024e-16 
3.56504 -5.42466 -1.86344e-15 
3.79402 -5.4441 -2.50307e-15 
4.02571 -5.37807 2.48843e-15 
4.26009 -5.42083 1.25862e-15 
4.45024 -5.49501 0.000330804 
-4.79378 -5.19803 0.000598117 
-4.56087 -5.17225 5.88439e-15 
-4.34498 -5.09171 -6.57871e-16 
-4.12224 -5.28752 -3.67787e-16 
-3.90856 -5.18671 9.88941e-16 
-3.68804 -5.1238 4.304e-16 
-3.49213 -5.19619 -9.97666e-16 
-3.27479 -5.14721 7.83938e-16 
-3.05706 -5.20181 1.58043e-15 
-2.83404 -5.13684 5.40912e-18 
-2.61388 -5.17763 -1.21662e-15 
-2.3699 -5.11775 -1.07046e-15 
-2.1555 -5.13403 -7.48119e-16 
-1.94778 -5.17107 -7.0182e-16 
-1.74779 -5.22832 -5.35867e-16 
-1.56051 -5.09148 -5.4178e-16 
-1.35307 -5.13895 -2.7409e-16 
-1.13955 -5.14672 1.72083e-17 
-0.925297 -5.17414 9.27367e-16 
-0.711713 -5.16092 -1.77299e-16 
-0.508208 -5.18758 -9.94318e-17 
-0.288778 -5.1635 -5.63643e-17 
-0.0692971 -5.18028 1.66912e-16 
0.132904 -5.1794 6.89075e-17 
0.343851 -5.18491 7.20636e-17 
0.563 -5.17631 4.02485e-17 
0.76991 -5.16727 6.37474e-16 
0.982415 -5.17095 -2.72215e-16 
1.20835 -5.18956 3.54389e-16 
1.41099 -5.11975 1.06581e-17 
1.68547 -5.15987 3.22035e-16 
1.89578 -5.16995 5.63684e-16 
2.10351 -5.16871 9.53733e-16 
2.2964 -5.0766 1.82837e-16 
2.44639 -5.21263 7.62729e-16 
2.66332 -5.23942 -9.23853e-17 
2.87101 -5.14644 -1.02744e-15 
3.11385 -5.20063 -3.81655e-16 
3.34218 -5.09963 -8.35574e-16 
3.56387 -5.22473 -3.20863e-16 
3.80291 -5.23189 2.76244e-16 
4.01714 -5.1559 1.70838e-15 
4.23693 -5.20371 1.17095e-15 
4.46348 -5.24023 1.06041e-14 
4.65285 -5.32457 0.00122119 
4.79419 -5.19766 -0.00119408 
-4.99468 -5.00529 0.000523264 
-4.75984 -4.97876 8.69819e-15 
-4.54422 -4.9407 1.89849e-16 
-4.32106 -4.86848 2.69289e-16 
-4.12831 -5.06646 5.14463e-16 
-3.90705 -4.97263 -1.78732e-15 
-3.67251 -4.91623 1.26968e-15 
-3.44477 -4.96284 1.24858e-15 
-3.23182 -4.90897 -1.9312e-16 
-3.04204 -4.9813 -1.29236e-16 
-2.85254 -4.89446 -9.06979e-16 
-2.65242 -4.95722 -7.66443e-16 
-2.44186 -4.94168 -4.60977e-16 
-2.19337 -4.91771 -2.56794e-16 
-1.97437 -4.94405 -4.24796e-16 
-1.76613 -4.99486 3.25244e-16 
[...]
POINT_DATA 3402 
VECTORS vectors float
0.0376021 -0.00835107 0.998993 
0.033461 -0.00641925 0.999163 
0.0383585 -0.00742502 0.998961 
0.0465268 -0.00643244 0.998582 
0.0415736 -0.00362823 0.998834 
0.0374009 -0.00288007 0.999035 
0.0366111 -0.00128801 0.999069 
0.0364008 -0.000703789 0.999065 
0.0375721 0.000642378 0.999037 
0.0331992 0.00246753 0.999214 
0.0318356 0.00211382 0.999268 
0.0340315 0.00336586 0.999163 
0.0390397 0.0047105 0.998956 
0.0388455 0.00675721 0.998939 
0.0438975 0.00816768 0.99871 
0.0533766 0.0123375 0.998177 
0.0449207 -0.0164269 0.99856 
0.0410575 -0.0136575 0.998786 
0.0394154 -0.0117641 0.998869 
0.0401148 -0.0104322 0.998848 
0.130932 -0.030983 0.991092 
0.139423 -0.027865 0.989983 
0.133604 -0.0227149 0.990956 
0.127766 -0.0169492 0.991877 
0.141657 -0.0143419 0.989956 
0.136752 -0.00956714 0.990736 
0.141717 -0.00548109 0.99004 
0.140446 -0.00139292 0.990226 
0.138075 0.00335247 0.990568 
0.146162 0.00855094 0.989351 
0.141284 0.0123858 0.990037 
0.141203 0.0167279 0.989986 
0.133117 0.0201789 0.991088 
0.136687 0.0251567 0.990451 
0.127136 0.0273945 0.991719 
0.118709 0.030677 0.992696 
0.0443591 0.0127096 0.998601 
0.0413125 0.0120506 0.998767 
0.0476092 0.0165749 0.998459 
0.0496692 -0.0222337 0.998175 
0.0416385 -0.0164017 0.998693 
0.120072 -0.0455945 0.991928 
0.124558 -0.0422601 0.991526 
0.130613 -0.0394076 0.990845 
0.131458 -0.035546 0.990871 
0.164322 -0.0394404 0.985683 
0.165629 -0.0343242 0.985657 
0.165135 -0.0287082 0.985907 
0.167188 -0.0239431 0.985694 
0.165059 -0.0183881 0.986178 
0.166083 -0.01318 0.986073 
0.163319 -0.00753257 0.986631 
0.163586 -0.00222409 0.986586 
0.164756 0.00334977 0.986406 
0.163019 0.0088184 0.986632 
0.164233 0.0147091 0.986404 
0.163273 0.0203263 0.98643 
0.165624 0.026299 0.985911 
0.164116 0.0318593 0.985979 
0.164958 0.0375467 0.985641 
0.164031 0.0427867 0.985588 
0.140389 0.040323 0.98942 
0.12139 0.0386856 0.992064 
0.122629 0.0450333 0.991627 
0.0359522 0.0137927 0.99899 
0.039994 0.0161167 0.998734 
0.0605406 0.0276466 0.99728 
0.046988 -0.0250041 0.99822 
0.0458621 -0.0221639 0.998364 
0.106674 -0.0489561 0.993344 
0.125381 -0.0523905 0.990913 
0.159189 -0.0602555 0.985478 
0.161104 -0.0551795 0.985444 
0.162387 -0.0498158 0.985536 
0.163708 -0.0445064 0.985557 
0.146837 -0.0364791 0.988543 
0.145834 -0.0312973 0.988863 
0.147005 -0.0268222 0.98882 
0.148187 -0.0218124 0.98877 
0.145187 -0.0166912 0.989312 
0.145355 -0.0122241 0.989364 
0.144119 -0.00721115 0.989557 
0.141847 -0.00222289 0.989954 
0.145017 0.00288922 0.989466 
0.143705 0.00809882 0.989634 
0.143366 0.0133342 0.989622 
0.144884 0.0181811 0.989322 
0.146285 0.0228627 0.989036 
0.145152 0.0277739 0.989078 
0.147855 0.0331796 0.988508 
0.147227 0.0382711 0.988422 
0.160996 0.0479414 0.985852 
0.160378 0.0530269 0.985693 
0.158027 0.057837 0.985801 
0.138049 0.0543577 0.989073 
0.110612 0.0468851 0.992969 
0.101015 0.0481506 0.993947 
0.0574553 0.0287664 0.997427 
0.0454761 0.0240778 0.998296 
0.0466427 -0.0298584 0.998079 
0.0496727 -0.0279248 0.997988 
0.100905 -0.0548685 0.993638 
0.125297 -0.0630558 0.990275 
0.153858 -0.0713961 0.985579 
0.156634 -0.0665134 0.98547 
0.145327 -0.0581079 0.987737 
0.145201 -0.0519654 0.988094 
0.144688 -0.0463711 0.988438 
0.145643 -0.041414 0.98852 
0.13202 -0.033438 0.990732 
0.131079 -0.0287339 0.991001 
0.132466 -0.0243906 0.990949 
0.13114 -0.0200177 0.991215 
0.131396 -0.0161345 0.99126 
0.130777 -0.0114229 0.991395 
0.129233 -0.00663243 0.991644 
0.128634 -0.00186433 0.99175 
0.128928 0.0029308 0.991699 
0.13016 0.00767436 0.991528 
0.128788 0.0122456 0.991639 
0.130995 0.0170084 0.991313 
0.130424 0.0213195 0.991249 
0.129986 0.0257565 0.99125 
0.131772 0.0303418 0.990856 
0.13054 0.0346858 0.99089 
0.141523 0.0421766 0.989072 
0.143757 0.048459 0.988492 
0.143845 0.0545946 0.988157 
0.156856 0.064312 0.985576 
0.153529 0.0686636 0.985827 
0.150759 0.0741206 0.985855 
0.110571 0.0583056 0.992378 
0.11209 0.0637196 0.991842 
0.0509041 0.0304321 0.997819 
0.0483404 -0.0322013 0.997871 
0.0984093 -0.0631825 0.99339 
0.116602 -0.0693888 0.990922 
0.147174 -0.0820514 0.985777 
0.150455 -0.077238 0.985652 
0.14219 -0.0690214 0.987492 
0.139878 -0.0622166 0.98827 
0.128461 -0.0530512 0.990338 
0.128927 -0.047772 0.990555 
0.129445 -0.0426693 0.990715 
0.131587 -0.0384432 0.990611 
0.124261 -0.0329865 0.991761 
0.124758 -0.0285395 0.991836 
0.123851 -0.0239245 0.992073 
0.125059 -0.0196472 0.99203 
0.12483 -0.0151434 0.992109 
0.125764 -0.01102 0.992067 
0.123371 -0.00648283 0.992408 
0.122425 -0.00182355 0.992543 
0.124343 0.00268037 0.992288 
0.122503 0.00730313 0.992526 
0.123408 0.0116731 0.992332 
0.123933 0.016218 0.992231 
0.123172 0.0206083 0.992227 
0.122615 0.0250012 0.992206 
0.123373 0.0297422 0.991967 
0.122269 0.0342376 0.991965 
0.128601 0.0400733 0.990937 
0.128376 0.0449582 0.990749 
0.126451 0.0498532 0.990769 
0.138946 0.0587575 0.988608 
0.145546 0.0666688 0.987164 
0.145031 0.0724038 0.986832 
0.148979 0.0799117 0.985669 
0.145996 0.0854964 0.985653 
0.0955656 0.0592804 0.993917 
0.0469535 0.0299508 0.998055 
0.0434422 0.0303412 0.998173 
0.056311 -0.044401 0.996665 
0.0566321 -0.0419983 0.996818 
0.107489 -0.0745216 0.991579 
0.14001 -0.0923693 0.985907 
0.143672 -0.0883799 0.985738 
0.138772 -0.0816489 0.987013 
0.136165 -0.0737967 0.98799 
0.124223 -0.0628873 0.990307 
0.123455 -0.056832 0.990767 
0.118393 -0.0505372 0.99173 
0.12 -0.0459251 0.991769 
0.121411 -0.0414484 0.991798 
0.122907 -0.0373513 0.991778 
0.117275 -0.0332996 0.992604 
0.118036 -0.0290532 0.992642 
0.113424 -0.0235649 0.993349 
0.116738 -0.0192845 0.993016 
0.113236 -0.014345 0.993543 
0.113265 -0.00960884 0.993567 
0.109853 -0.00507691 0.993997 
0.109127 -0.000719631 0.994078 
0.112706 0.00356362 0.993685 
0.111738 0.00774414 0.993773 
0.112539 0.0119242 0.993628 
0.114099 0.0164952 0.993402 
0.115311 0.0208803 0.993168 
0.114056 0.0254124 0.993219 
0.116718 0.0302968 0.992769 
0.114735 0.0344362 0.992869 
0.118631 0.0384473 0.992261 
0.12149 0.0441801 0.991657 
0.119136 0.0483016 0.991756 
0.124151 0.054361 0.990824 
0.127326 0.0598998 0.990092 
0.12554 0.0649279 0.990013 
0.138788 0.0766065 0.987419 
0.13604 0.0815025 0.987403 
0.142962 0.0903935 0.98566 
0.115541 0.0769783 0.99048 
0.093349 0.0666929 0.993593 
0.0603592 0.0449148 0.996399 
0.0487666 -0.0419296 0.99729 
0.0986976 -0.0808566 0.991975 
0.0815248 -0.0613692 0.995009 
0.134727 -0.0980075 0.986108 
0.135777 -0.0944993 0.986281 
0.130497 -0.0840761 0.987935 
0.11908 -0.072179 0.990308 
0.119413 -0.0668357 0.990637 
0.114518 -0.0603417 0.991643 
0.115179 -0.0556686 0.991842 
0.11111 -0.0502872 0.992602 
0.11102 -0.0451428 0.99287 
0.112823 -0.0411752 0.992814 
0.113544 -0.0367479 0.992918 
0.0978484 -0.0285512 0.994835 
0.0955244 -0.0238366 0.995205 
0.0913235 -0.0191784 0.995666 
0.0939202 -0.0159977 0.995494 
0.0856751 -0.0113745 0.996327 
0.0894481 -0.00855524 0.995993 
0.0806459 -0.00462287 0.99678 
0.0804424 -0.00131207 0.996805 
0.0837885 0.00201205 0.996532 
0.0844637 0.00514249 0.996459 
0.0844926 0.00851308 0.99643 
0.0884286 0.0123879 0.996046 
0.0919307 0.0163611 0.995687 
0.0949439 0.0205773 0.99531 
0.0969226 0.0253191 0.995023 
0.0969732 0.0290649 0.994904 
0.109226 0.0371638 0.993368 
0.111671 0.0420351 0.992934 
0.110875 0.0467565 0.992804 
0.115155 0.0521605 0.992037 
0.118603 0.0582675 0.991281 
0.115833 0.0623393 0.991362 
0.121248 0.068872 0.990273 
0.11789 0.0727946 0.990403 
0.13578 0.0882822 0.986855 
0.137487 0.0955801 0.985945 
0.131582 0.0983635 0.986514 
0.0862327 0.0684375 0.994111 
0.0535308 0.0437169 0.996967 
0.0521246 -0.0481504 0.996649 
0.0833591 -0.0734441 0.994004 
0.124556 -0.106792 0.986544 
0.130206 -0.101676 0.986352 
0.129161 -0.0975275 0.986866 
0.114876 -0.0825416 0.989992 
0.114277 -0.0764824 0.99055 
0.110205 -0.0698783 0.991504 
0.11047 -0.0647356 0.991825 
0.106525 -0.0586835 0.992645 
0.105934 -0.0535575 0.992985 
0.0997095 -0.0466277 0.993979 
0.0962494 -0.0408522 0.994557 
0.0933238 -0.0354706 0.99506 
0.0934954 -0.0315085 0.995189 
0.066228 -0.0205404 0.997634 
0.065578 -0.0173947 0.997729 
0.0595659 -0.0132727 0.998204 
0.0577414 -0.0103535 0.998331 
0.0520479 -0.00706785 0.998645 
0.0530345 -0.00513943 0.998649 
0.0463918 -0.00252509 0.998975 
0.048218 -0.000490088 0.998894 
0.048205 0.00136485 0.998892 
0.0504824 0.00347019 0.998772 
0.0518384 0.00576584 0.998689 
0.0543873 0.00820531 0.998546 
0.0589148 0.0112906 0.998249 
0.0687822 0.0161082 0.997536 
0.0631744 0.0174574 0.997906 
0.0805637 0.0263764 0.996442 
0.0893886 0.0330523 0.995517 
0.0973403 0.0398287 0.9945 
0.0946547 0.0431766 0.994631 
0.107158 0.0502366 0.993034 
0.110804 0.0559703 0.992334 
0.108528 0.0601819 0.992332 
0.112078 0.0663674 0.991536 
0.109178 0.070983 0.991536 
0.117177 0.079135 0.990007 
0.128927 0.0934872 0.987297 
0.13124 0.102344 0.986113 
0.128544 0.10474 0.986247 
0.088711 0.0766049 0.99334 
0.035128 0.029876 0.998608 
0.0397457 0.0380422 0.997941 
0.05377 -0.0546215 0.995973 
0.0840756 -0.0802344 0.993372 
0.120707 -0.110981 0.986563 
0.123237 -0.109718 0.986349 
0.130533 -0.106792 0.985732 
0.112187 -0.0880431 0.989832 
0.105656 -0.0787557 0.991332 
0.105064 -0.0727074 0.991856 
0.101886 -0.0669501 0.9926 
0.102203 -0.0623515 0.992865 
0.0959172 -0.0561156 0.993894 
0.0956025 -0.0516402 0.994131 
0.0870637 -0.0437196 0.995291 
0.0714912 -0.0325045 0.996967 
0.0632577 -0.025795 0.997719 
0.0613902 -0.0220977 0.997908 
0.0370911 -0.0118215 0.999297 
0.0354327 -0.00959358 0.999401 
0.0306247 -0.00694667 0.999553 
0.0293604 -0.00533789 0.999618 
0.0235402 -0.00334482 0.999768 
0.0235427 -0.00238141 0.999785 
0.0220097 -0.00132168 0.999807 
0.0228597 -0.00035957 0.99979 
0.0214917 0.000618502 0.999824 
0.0233339 0.0016132 0.999782 
0.0253149 0.00281096 0.999733 
0.0257084 0.00405529 0.999737 
0.0305827 0.00603924 0.999554 
0.0376474 0.00900482 0.999323 
0.0339012 0.00960769 0.999444 
0.0501919 0.0161544 0.998655 
0.0578487 0.021468 0.998144 
0.0678514 0.0282437 0.997331 
0.0672335 0.0313288 0.997293 
0.0871777 0.04429 0.99525 
0.100003 0.0525225 0.993667 
0.0988973 0.0571329 0.993517 
0.104343 0.0641694 0.992528 
0.100872 0.0675433 0.992661 
0.106727 0.0752893 0.991494 
0.110304 0.0819465 0.990558 
0.109714 0.0871898 0.990178 
0.121655 0.101731 0.987394 
0.126896 0.110336 0.985832 
0.111784 0.101403 0.988649 
0.0788788 0.0747908 0.99422 
0.0637197 0.0653202 0.99414 
0.0554502 -0.0597495 0.99548 
0.0730844 -0.075805 0.994594 
0.115117 -0.11497 0.986772 
0.121264 -0.116324 0.985842 
0.107561 -0.0994693 0.989261 
0.111259 -0.0944067 0.989354 
0.102391 -0.0831052 0.99132 
0.0981288 -0.0768317 0.992262 
0.0978536 -0.0714662 0.992694 
0.0934288 -0.0650939 0.993572 
0.0899895 -0.0580614 0.994292 
0.0763104 -0.0465498 0.996038 
0.0718931 -0.040293 0.996643 
0.0601515 -0.0307952 0.997767 
0.0427985 -0.020009 0.998923 
0.0344853 -0.0145543 0.999353 
0.0322219 -0.0119594 0.999482 
0.0159784 -0.00538955 0.999917 
0.015256 -0.00440999 0.999909 
0.0124529 -0.00303978 0.999984 
0.0111849 -0.00220379 0.999993 
0.00829374 -0.00126812 1.00001 
0.00737159 -0.000770867 1.00003 
0.00837898 -0.000452202 1.00002 
0.00810963 -8.04503e-05 1.00002 
0.00695735 0.000241576 1.00003 
0.00818239 0.000645415 1.00002 
0.00946156 0.00118239 1.00001 
0.00926788 0.00157002 1 
0.0120762 0.00258332 0.999971 
0.0171179 0.00432355 0.999906 
0.0162596 0.00501553 0.99989 
0.0282019 0.00979132 0.99963 
0.0328035 0.013005 0.999435 
0.0378775 0.0166599 0.999199 
0.0504769 0.0252779 0.998456 
0.0627141 0.0340522 0.997498 
0.0817324 0.0468465 0.995606 
0.0781413 0.0488356 0.995789 
0.0940017 0.0599721 0.993832 
0.0917241 0.0634711 0.993842 
0.0980483 0.0709825 0.992707 
0.100505 0.0772974 0.991974 
0.0999991 0.0824484 0.991633 
0.104594 0.0905433 0.990431 
0.117956 0.107213 0.987283 
0.120549 0.115084 0.986072 
0.112071 0.113135 0.987361 
0.0678262 0.0728253 0.995137 
0.0517432 0.0559448 0.996049 
0.0439713 -0.0511818 0.997005 
0.0728113 -0.0827117 0.994071 
0.109821 -0.119155 0.986891 
0.116573 -0.121484 0.985786 
0.106791 -0.106728 0.988589 
0.0947706 -0.0912102 0.991355 
0.0993481 -0.0872608 0.991268 
0.0953303 -0.0815585 0.992146 
0.0902594 -0.0738808 0.993253 
0.0879828 -0.0671783 0.993903 
0.0788592 -0.0562123 0.995356 
0.0672843 -0.0450887 0.996763 
0.0483309 -0.0302117 0.998413 
0.0443607 -0.0254466 0.998757 
0.0338973 -0.0177576 0.999321 
0.0199795 -0.0097433 0.999816 
0.0135942 -0.00610278 0.999943 
0.013768 -0.00546415 0.999935 
0.00567004 -0.00212587 1.00004 
0.00479631 -0.0015444 1.00003 
0.00338456 -0.000937553 1.00006 
0.00287247 -0.000648104 1.00003 
0.00176266 -0.00033335 1.00006 
0.00159868 -0.00019861 1.00004 
0.0019447 -0.000112893 1.00006 
0.00177084 -3.36311e-07 1.00005 
0.0014175 8.03027e-05 1.00005 
0.00195357 0.000211594 1.00005 
0.00225183 0.000353043 1.00005 
0.00234743 0.000500417 1.00005 
0.00382297 0.000953282 1.00006 
0.00640877 0.00179325 1.00002 
0.00390107 0.00131684 1.00004 
0.00976985 0.00349163 0.999996 
0.014125 0.00564279 0.999949 
0.0159396 0.00728923 0.999897 
0.0276092 0.0137355 0.999582 
0.0337858 0.0188127 0.999299 
0.0502386 0.0302022 0.998332 
0.0509619 0.0334766 0.998193 
0.0716395 0.0493908 0.996227 
0.0896968 0.0672671 0.993757 
0.0930944 0.0740558 0.99297 
0.0928126 0.0794533 0.992563 
0.0967107 0.0864616 0.991595 
0.0999158 0.0937132 0.990627 
0.110488 0.109063 0.987934 
0.116721 0.12101 0.985827 
0.111126 0.122047 0.986363 
0.0812863 0.0938756 0.992462 
0.0319048 0.0364103 0.998447 
0.036544 -0.0461908 0.997787 
0.0772115 -0.0948921 0.992675 
0.106804 -0.125382 0.986433 
0.112228 -0.1258 0.985741 
0.100133 -0.108029 0.989146 
0.0919191 -0.0951007 0.991267 
0.0876156 -0.088404 0.992297 
0.0940835 -0.0871904 0.991798 
0.0879869 -0.0811887 0.992868 
0.0843625 -0.0741583 0.993735 
0.0750529 -0.0618577 0.995311 
0.0681791 -0.0523811 0.996342 
0.0487593 -0.0354225 0.998233 
0.0366547 -0.0248733 0.999075 
0.023079 -0.0143825 0.999689 
0.0195074 -0.01116 0.999808 
0.0110955 -0.00592497 0.999972 
0.00529257 -0.00266556 1.00004 
0.00383001 -0.00175361 1.00004 
0.00188981 -0.000859148 1.00005 
0.00104862 -0.000467424 1.00005 
0.000470991 -0.000270841 1.00005 
0.000238227 -0.00017349 1.00004 
-3.1195e-05 -0.000104601 1.00005 
-8.63248e-05 -6.96227e-05 1.00005 
-5.12444e-05 -4.05567e-05 1.00005 
-2.10797e-05 -1.20759e-05 1.00005 
-7.59722e-05 7.78378e-06 1.00005 
-8.54461e-06 3.57942e-05 1.00005 
1.03678e-05 6.18311e-05 1.00005 
0.000130866 0.000107063 1.00004 
0.000451081 0.00019622 1.00004 
0.00101258 0.000362029 1.00005 
0.000614164 0.000288581 1.00005 
0.00279505 0.00113175 1.00004 
0.00478317 0.0021007 1.00004 
0.00595419 0.00293806 1.00003 
0.0134696 0.00706528 0.999948 
0.0145819 0.00846034 0.99992 
0.0259601 0.0161192 0.999592 
0.0295133 0.0202211 0.999427 
0.0475915 0.0346367 0.998327 
0.0733268 0.054761 0.995847 
0.0794003 0.0642346 0.994821 
0.0834712 0.0718575 0.993978 
0.0874074 0.0805565 0.992982 
0.092885 0.0892243 0.991715 
0.0951643 0.0964302 0.990804 
0.0993114 0.105758 0.98951 
0.109116 0.121793 0.986568 
0.107335 0.126696 0.986202 
0.0855364 0.104311 0.991018 
0.0441597 0.0567203 0.996686 
0.0370957 -0.0505253 0.997529 
0.0738753 -0.0974712 0.992701 
0.103336 -0.131213 0.986032 
0.103702 -0.126331 0.986608 
0.0938434 -0.109537 0.989597 
0.087651 -0.0981898 0.991355 
0.0847075 -0.0917848 0.992212 
0.0814793 -0.0807362 0.993456 
0.072178 -0.0686507 0.995079 
0.0669598 -0.0594921 0.996027 
0.0488656 -0.0406494 0.998025 
0.0371011 -0.0291299 0.99894 
0.0223738 -0.0165054 0.999671 
0.0160167 -0.0109196 0.999865 
0.0080296 -0.00510978 1.00001 
0.00526106 -0.00312341 1.00003 
0.00226936 -0.00128154 1.00005 
0.0009465 -0.000546101 1.00005 
7.80908e-05 -0.000132197 1.00005 
1.91859e-05 -0.000123435 1.00005 
-0.000217386 -4.28603e-05 1.00005 
-0.000291901 -5.03584e-05 1.00005 
-0.000312953 -5.92971e-05 1.00005 
-0.000291913 -6.67814e-05 1.00005 
-0.000264718 -6.01639e-05 1.00005 
-0.000246487 -3.87583e-05 1.00005 
-0.000236535 -2.04163e-05 1.00005 
-0.000239079 8.98633e-06 1.00005 
-0.000232161 2.91461e-05 1.00005 
-0.000252268 4.1288e-05 1.00005 
-0.000280003 4.66704e-05 1.00005 
-0.00029217 2.843e-05 1.00005 
-0.000167551 5.75785e-05 1.00004 
-0.000247122 7.1931e-06 1.00005 
0.000304415 0.000200478 1.00005 
0.00100808 0.00051071 1.00004 
0.00120651 0.000652937 1.00005 
0.00426514 0.00238733 1.00004 
0.0056827 0.00353446 1.00003 
0.0127885 0.00846109 0.999929 
0.0177695 0.013019 0.999803 
0.0309006 0.0239123 0.999281 
0.0553541 0.0440343 0.997568 
0.0561502 0.0483819 0.997273 
0.0731578 0.0667934 0.995151 
0.081421 0.0791365 0.993585 
0.0869254 0.0882977 0.992382 
0.0879825 0.0940739 0.991718 
0.0882511 0.0989278 0.991212 
0.0951693 0.111053 0.989306 
0.10075 0.123633 0.987244 
0.103427 0.131878 0.985937 
0.0607016 0.0792124 0.995241 
0.0432867 0.0600759 0.996481 
0.0372131 -0.0558073 0.997199 
0.0675385 -0.0966453 0.993229 
0.0978296 -0.134956 0.986092 
0.0986602 -0.130947 0.986526 
0.0877323 -0.111843 0.989899 
0.0838685 -0.102033 0.991286 
0.0806993 -0.0953808 0.992222 
0.0766338 -0.0875856 0.993288 
0.0773253 -0.0828214 0.993624 
0.0659497 -0.0676139 0.99558 
0.0483406 -0.0466441 0.997788 
0.0405162 -0.0363861 0.998568 
0.0228388 -0.01957 0.999606 
0.0153118 -0.0123166 0.999864 
0.0082672 -0.00621974 0.999999 
0.00487261 -0.00342868 1.00003 
0.00156929 -0.00108539 1.00005 
0.000762653 -0.000515822 1.00005 
0.00010291 -0.000124341 1.00004 
-0.0002147 2.51129e-05 1.00005 
-0.000256901 6.04702e-06 1.00005 
-0.000255816 -1.32859e-06 1.00005 
-0.000199995 -4.01774e-05 1.00005 
-0.000131872 -7.63342e-05 1.00005 
-9.35348e-05 -9.983e-05 1.00006 
-4.03833e-05 -9.71362e-05 1.00005 
-1.89756e-05 -7.23011e-05 1.00005 
-1.195e-05 -3.96431e-05 1.00005 
-3.83935e-05 2.7852e-06 1.00005 
-2.68135e-05 3.4012e-05 1.00005 
-4.5431e-05 7.75984e-05 1.00005 
-0.000109916 7.94216e-05 1.00006 
-0.000180044 7.12401e-05 1.00005 
-0.000261798 3.16739e-05 1.00005 
-0.000212183 1.66621e-05 1.00005 
-0.000303623 -4.33048e-05 1.00004 
-0.00018413 -3.07406e-05 1.00005 
-4.72703e-05 1.64517e-06 1.00005 
0.00095841 0.000602677 1.00004 
0.000885479 0.000628212 1.00005 
0.00350457 0.00244379 1.00005 
0.00716756 0.00528948 1.00002 
0.013876 0.0112094 0.999879 
0.0296606 0.0250677 0.999319 
0.0430914 0.0396245 0.998343 
0.0608687 0.0591591 0.996434 
0.0675013 0.0696662 0.995327 
0.0782248 0.0822131 0.993604 
0.0810403 0.0897173 0.992732 
0.0833159 0.0973303 0.991802 
0.0827601 0.101008 0.991505 
0.0856817 0.109479 0.990339 
0.0971909 0.127422 0.987132 
0.0985215 0.134378 0.986107 
0.0742476 0.105847 0.991763 
0.027463 0.0405817 0.998443 
0.0289685 -0.0467342 0.998093 
0.062373 -0.0981063 0.993458 
0.0933737 -0.140111 0.985801 
0.0931733 -0.134756 0.986546 
0.0826189 -0.115024 0.989969 
0.0788272 -0.105256 0.991368 
0.0772265 -0.0991042 0.992134 
0.0732705 -0.0907452 0.993235 
0.0652344 -0.076793 0.994964 
0.0624411 -0.0684516 0.995745 
0.0410431 -0.0426968 0.998293 
0.024544 -0.0237533 0.999471 
0.0153418 -0.0141227 0.999839 
0.00722683 -0.00628263 1.00001 
0.00425597 -0.00348421 1.00004 
0.00176733 -0.00139036 1.00005 
0.000419311 -0.00036374 1.00005 
-9.66587e-05 9.39903e-06 1.00005 
-0.000191666 4.7726e-05 1.00005 
-0.000200069 3.60514e-05 1.00005 
-0.000150623 -1.74402e-05 1.00005 
-1.82861e-05 -7.24363e-05 1.00005 
-3.27227e-06 -0.000102494 1.00005 
7.29441e-05 -0.000106271 1.00007 
3.94343e-05 -0.000104991 1.00003 
-1.16229e-05 -9.44295e-05 1.00005 
-0.000208525 -5.71171e-05 1.00005 
-0.000489056 -9.88503e-06 1.00005 
-0.000502315 -1.5087e-05 1.00006 
-0.000401451 3.81909e-07 1.00005 
-0.000202342 4.42079e-05 1.00007 
-0.000218785 4.95664e-05 1.00004 
4.08768e-05 0.000113813 1.00005 
2.31144e-05 0.000121805 1.00006 
-3.59932e-06 0.000116026 1.00006 
2.47435e-05 0.000113604 1.00005 
-0.000193912 -1.95503e-05 1.00006 
-0.000266686 -9.81043e-05 1.00004 
-0.000259405 -0.000121921 1.00005 
-0.000194623 -9.04932e-05 1.00005 
1.08262e-06 4.37106e-05 1.00004 