# vtk DataFile Version 3.0 
Exported using Morpho https://github.com/Morpho-lang/morpho 
ASCII 
DATASET UNSTRUCTURED_GRID 

POINTS 3402 float 
-1.58759 -6.89087 -9.66765e-05 
-1.38908 -6.93479 5.02991e-05 
-1.18841 -6.97079 5.27043e-05 
-0.968626 -7.00586 -0.00013153 
-0.726507 -7.03437 0.000455738 
-0.524645 -7.05233 -0.000406045 
-0.304655 -7.06524 0.000588397 
-0.0960537 -7.07139 -7.76596e-05 
0.118705 -7.07105 -0.000387798 
0.338279 -7.064 0.000460452 
0.529581 -7.05228 -0.000341781 
0.737152 -7.03353 0.000458345 
0.943415 -7.00875 -0.000445605 
1.16954 -6.97463 6.22386e-05 
1.37614 -6.93678 -0.000364269 
1.60722 -6.88668 0.00011143 
-2.43457 -6.63945 0.00011999 
-2.22262 -6.71339 -0.000245114 
-2.01442 -6.7788 0.000427029 
-1.80364 -6.83821 6.44672e-06 
-1.56931 -6.67267 6.16255e-15 
-1.34338 -6.70294 -9.54015e-15 
-1.12142 -6.75586 6.47236e-15 
-0.887477 -6.81096 -2.87763e-15 
-0.676321 -6.78794 8.25698e-16 
-0.461454 -6.83192 8.23442e-15 
-0.254461 -6.82267 2.40668e-15 
-0.0378622 -6.83262 1.8909e-15 
0.177255 -6.83655 -3.5248e-15 
0.380329 -6.80019 -4.64841e-15 
0.584493 -6.80447 3.02777e-15 
0.789767 -6.78103 -2.66304e-15 
1.00584 -6.77431 -5.70584e-15 
1.22298 -6.72391 -7.5368e-15 
1.45391 -6.70717 2.08668e-15 
1.69527 -6.66585 1.08299e-15 
1.86222 -6.82263 0.00030437 
2.04432 -6.77045 -0.00051768 
2.28361 -6.69276 0.000345774 
-2.85047 -6.47157 -1.70134e-05 
-2.65667 -6.55362 0.000154927 
-2.45242 -6.41879 1.85803e-15 
-2.22801 -6.48658 9.1895e-15 
-2.00534 -6.55276 5.23863e-15 
-1.78407 -6.61426 1.20665e-15 
-1.54214 -6.44473 -4.93842e-15 
-1.33082 -6.4844 -2.20112e-15 
-1.12589 -6.5042 3.85425e-15 
-0.923801 -6.58044 6.32718e-15 
-0.712203 -6.5525 -4.15783e-15 
-0.49043 -6.5902 5.7608e-15 
-0.270467 -6.58492 -3.10109e-15 
-0.0743671 -6.57489 -2.82468e-15 
0.133671 -6.59447 -3.65227e-15 
0.346695 -6.56515 4.00877e-15 
0.565905 -6.55395 6.31061e-15 
0.792931 -6.55675 4.94997e-15 
1.02279 -6.53535 2.95119e-15 
1.24774 -6.49129 -3.82475e-15 
1.47001 -6.49052 3.03529e-15 
1.67151 -6.42034 6.66273e-15 
1.88784 -6.54558 -3.65547e-15 
2.10773 -6.54327 2.07049e-15 
2.32769 -6.45386 -8.22132e-15 
2.50171 -6.61459 4.41127e-05 
2.67445 -6.54654 -0.000310535 
2.90954 -6.44484 0.00015021 
-3.2768 -6.26649 7.52149e-05 
-3.10405 -6.35385 8.99938e-05 
-2.90292 -6.25788 5.10912e-15 
-2.655 -6.30395 -4.39702e-16 
-2.38168 -6.21363 -1.15077e-14 
-2.16368 -6.27704 -5.16759e-15 
-1.95364 -6.34331 2.32474e-15 
-1.74932 -6.38092 -9.12795e-15 
-1.55648 -6.20481 -2.37628e-15 
-1.34263 -6.24242 3.21849e-15 
-1.12367 -6.27354 1.25381e-15 
-0.904624 -6.33446 -1.3748e-15 
-0.690041 -6.31227 -2.22636e-15 
-0.486927 -6.36068 -4.81434e-15 
-0.29028 -6.32437 -5.90449e-15 
-0.0757406 -6.33391 9.52187e-16 
0.139172 -6.34946 1.17528e-15 
0.350177 -6.32224 2.16358e-15 
0.559042 -6.32311 -1.99426e-15 
0.765748 -6.31256 -9.39438e-16 
0.974133 -6.31728 7.43425e-15 
1.18173 -6.26265 1.12498e-15 
1.4042 -6.26275 -6.7631e-16 
1.62488 -6.20601 4.42698e-16 
1.87985 -6.30703 -1.7964e-15 
2.08826 -6.31919 -8.41043e-15 
2.27545 -6.21728 1.42649e-14 
2.508 -6.33011 5.76688e-15 
2.72997 -6.32078 8.64214e-16 
2.98038 -6.22284 -2.71376e-15 
3.16671 -6.32248 -0.000232264 
3.3799 -6.21124 -0.000228831 
-3.71294 -6.01796 -3.77593e-06 
-3.52801 -6.12844 0.00017404 
-3.31923 -6.05146 1.19867e-15 
-3.07942 -6.09237 1.96754e-15 
-2.8258 -6.04381 1.19242e-15 
-2.61874 -6.10761 1.4255e-15 
-2.42901 -5.98445 6.75976e-16 
-2.20398 -6.03436 -4.63214e-15 
-1.98856 -6.09028 -1.06982e-15 
-1.77314 -6.14427 1.23426e-17 
-1.53435 -5.9828 1.41759e-15 
-1.31816 -6.01844 2.58985e-15 
-1.11131 -6.02933 -1.85971e-15 
-0.913532 -6.09881 -1.3309e-15 
-0.709553 -6.07296 -3.63585e-16 
-0.494314 -6.10733 -9.397e-16 
-0.276794 -6.09189 2.0579e-15 
-0.0717636 -6.0833 -1.7498e-15 
0.135166 -6.11042 2.32352e-15 
0.347981 -6.08767 -4.58164e-16 
0.56373 -6.077 -1.52633e-15 
0.775859 -6.07588 -1.5047e-15 
0.988971 -6.07437 -1.79315e-15 
1.19738 -6.01904 -5.36904e-16 
1.39989 -6.04009 -6.10528e-15 
1.60621 -5.97495 2.81392e-16 
1.82782 -6.09248 -2.0298e-15 
2.05076 -6.07226 4.41054e-16 
2.27502 -5.99618 5.6652e-15 
2.49658 -6.10916 3.31806e-15 
2.73676 -6.11736 -1.99527e-14 
2.96564 -6.01393 9.75925e-16 
3.2062 -6.07621 -1.14866e-15 
3.41492 -5.9565 1.54281e-15 
3.58266 -6.09635 0.00012536 
-3.94451 -5.86885 5.33176e-05 
-3.73369 -5.79628 -5.14395e-16 
-3.50505 -5.87756 1.72362e-16 
-3.26241 -5.83758 4.50229e-15 
-3.04214 -5.88901 1.76301e-16 
-2.84641 -5.80038 -4.20688e-15 
-2.63857 -5.85471 -2.70981e-15 
-2.4211 -5.75728 6.9317e-15 
-2.2055 -5.81095 6.42171e-15 
-1.98322 -5.85669 4.12459e-15 
-1.76042 -5.92654 6.29167e-15 
-1.55875 -5.76194 1.49056e-15 
-1.33558 -5.78733 -4.33741e-16 
-1.11481 -5.80519 5.49192e-16 
-0.898498 -5.85254 -3.92065e-16 
-0.698081 -5.82497 9.0184e-16 
-0.500678 -5.87886 3.32657e-16 
-0.29361 -5.84944 1.06192e-15 
-0.0896662 -5.83644 1.33949e-15 
0.119307 -5.87169 -1.08573e-15 
0.338919 -5.8568 1.87388e-16 
0.55193 -5.84197 -2.20541e-17 
0.764901 -5.84286 6.54407e-16 
0.980755 -5.84059 -1.10099e-15 
1.1978 -5.79142 9.281e-16 
1.4129 -5.8019 2.00089e-16 
1.63686 -5.75379 -3.01587e-16 
1.83667 -5.87661 -2.44351e-15 
2.06162 -5.84918 -2.1662e-15 
2.28252 -5.77465 -3.87802e-15 
2.49503 -5.88386 6.02709e-15 
2.71529 -5.90811 2.58241e-15 
2.92482 -5.79954 9.83347e-15 
3.1681 -5.85992 1.23169e-15 
3.3933 -5.7508 -4.51116e-15 
3.64621 -5.85939 -2.37543e-16 
3.82301 -5.94881 -0.000119219 
3.99133 -5.83698 0.000194578 
-4.39083 -5.54205 -0.00015262 
-4.13086 -5.73895 -0.000298328 
-3.91723 -5.63305 -5.35799e-15 
-3.68147 -5.57408 3.23705e-15 
-3.485 -5.66791 3.49474e-15 
-3.29718 -5.58956 -3.18589e-15 
-3.08773 -5.6523 -4.74925e-15 
-2.85923 -5.58906 1.37661e-15 
-2.62422 -5.61872 2.31913e-15 
-2.39722 -5.53436 -2.05321e-16 
-2.18694 -5.58608 -7.54432e-16 
-1.97475 -5.63362 -8.76709e-16 
-1.76511 -5.68858 -1.72009e-15 
-1.57753 -5.52274 -5.86174e-16 
-1.37177 -5.56827 -7.23111e-16 
-1.1576 -5.57767 -2.69409e-17 
-0.935602 -5.61355 -4.33253e-16 
-0.701912 -5.61448 9.15704e-17 
-0.466821 -5.63864 1.41466e-15 
-0.264179 -5.59874 -4.40685e-16 
-0.0456199 -5.60836 7.39649e-17 
0.166427 -5.64379 8.92009e-16 
0.377458 -5.61941 -8.49199e-16 
0.592779 -5.6092 8.05815e-16 
0.807591 -5.61564 -1.2644e-15 
1.01899 -5.6064 1.12557e-15 
1.24273 -5.56819 3.44358e-16 
1.45782 -5.58053 5.87596e-16 
1.66394 -5.51306 4.05709e-16 
1.84622 -5.64285 7.07778e-16 
2.05339 -5.63389 -4.63874e-16 
2.25764 -5.5513 1.36245e-17 
2.48192 -5.65064 -3.34443e-15 
2.69387 -5.68116 1.55963e-15 
2.91694 -5.585 -5.07617e-15 
3.14751 -5.64974 -5.57891e-16 
3.35499 -5.5324 9.02653e-16 
3.59656 -5.64224 -1.217e-15 
3.82341 -5.66797 2.18092e-15 
4.03735 -5.59607 8.19279e-15 
4.22116 -5.67267 0.00018205 
-4.57348 -5.39235 3.99726e-06 
-4.34441 -5.32219 -4.30239e-15 
-4.168 -5.52802 -1.04692e-14 
-3.93862 -5.43105 1.00266e-14 
-3.72729 -5.35537 -3.70653e-16 
-3.49617 -5.4079 -4.61032e-15 
-3.26936 -5.36963 4.24933e-16 
-3.05558 -5.42757 2.17211e-15 
-2.84038 -5.35789 2.79322e-16 
-2.6354 -5.40734 1.56216e-15 
-2.41742 -5.3221 -1.94598e-15 
-2.18958 -5.35413 1.11466e-16 
-1.97926 -5.3998 -1.76319e-15 
-1.77948 -5.4411 -5.51451e-16 
-1.5389 -5.30921 -2.23719e-16 
-1.32394 -5.34949 2.48075e-16 
-1.11623 -5.35016 -1.95718e-16 
-0.918263 -5.40058 -4.38705e-16 
-0.721549 -5.37536 8.21858e-16 
-0.516938 -5.42277 -1.33492e-15 
-0.316812 -5.37032 4.39281e-16 
-0.102527 -5.38337 -2.69212e-16 
0.117227 -5.40793 -2.47831e-16 
0.317623 -5.39876 4.71626e-16 
0.531471 -5.38618 -6.869e-16 
0.747221 -5.38915 3.05967e-16 
0.953244 -5.38317 8.85768e-18 
1.16233 -5.36889 5.85382e-16 
1.39513 -5.35801 9.58237e-17 
1.59088 -5.30891 2.83142e-16 
1.84647 -5.37825 -2.02772e-17 
2.02599 -5.40634 6.37259e-16 
2.2442 -5.33931 8.15189e-17 
2.478 -5.43743 4.33299e-16 
2.7062 -5.45442 -1.89352e-15 
2.91091 -5.35412 -4.38476e-15 
3.1219 -5.42993 -3.63971e-15 
3.3303 -5.31545 3.76865e-16 
3.56693 -5.42559 -1.47834e-16 
3.7949 -5.44875 -5.28447e-15 
4.03063 -5.38963 -3.88703e-15 
4.26829 -5.42703 -2.67594e-15 
4.4536 -5.49225 -0.000179442 
-4.7938 -5.19632 -0.000305778 
-4.56633 -5.18128 -8.69774e-15 
-4.3513 -5.09644 4.43833e-15 
-4.12888 -5.29715 4.64435e-15 
-3.91112 -5.19196 -5.62882e-16 
-3.6876 -5.12392 -7.46728e-16 
-3.49195 -5.19411 -1.84924e-15 
-3.27505 -5.1483 1.35062e-15 
-3.05722 -5.20201 2.38459e-15 
-2.83408 -5.1406 -1.52073e-15 
-2.61442 -5.1758 -7.25501e-16 
-2.36977 -5.11598 -6.65963e-16 
-2.15219 -5.13615 -7.10614e-16 
-1.94787 -5.16783 1.22255e-16 
-1.74428 -5.22035 -1.3563e-16 
-1.56138 -5.08542 -3.62741e-16 
-1.35407 -5.13053 3.05737e-16 
-1.1394 -5.14141 7.17433e-17 
-0.922165 -5.16624 4.90515e-16 
-0.70468 -5.1608 -4.38703e-16 
-0.514333 -5.18307 6.87632e-16 
-0.292421 -5.15951 -8.24106e-17 
-0.0703043 -5.17832 -4.6409e-17 
0.131194 -5.1766 -1.29994e-16 
0.344711 -5.1832 -2.04485e-16 
0.564272 -5.17136 2.78327e-16 
0.769357 -5.16688 2.58984e-16 
0.980484 -5.16631 -2.9449e-16 
1.21059 -5.17371 -2.25766e-16 
1.406 -5.12375 2.60207e-16 
1.67131 -5.14849 4.55666e-16 
1.88885 -5.16889 7.47362e-16 
2.11269 -5.15854 1.04039e-17 
2.30448 -5.06794 -2.93567e-16 
2.44268 -5.21644 1.08626e-15 
2.66256 -5.24107 4.16581e-16 
2.87259 -5.14893 2.14903e-15 
3.11498 -5.20193 -3.22623e-16 
3.34082 -5.10147 2.15645e-15 
3.56453 -5.22375 2.46971e-15 
3.80641 -5.23411 -1.18606e-15 
4.02395 -5.16344 -7.05402e-16 
4.24479 -5.21245 1.19746e-14 
4.47476 -5.23962 -9.85786e-15 
4.6535 -5.32479 -0.00049823 
4.78669 -5.20494 0.000513395 
-4.98938 -5.00778 -0.000244125 
-4.76464 -4.9837 -4.64062e-15 
-4.55236 -4.94809 5.98098e-15 
-4.32395 -4.87278 1.53435e-16 
-4.13088 -5.07318 3.64355e-16 
-3.90629 -4.97102 -3.86838e-15 
-3.6721 -4.91636 2.31226e-15 
-3.44303 -4.96362 1.11885e-15 
-3.232 -4.90776 -3.78375e-16 
-3.04596 -4.98305 -5.70592e-16 
-2.85219 -4.90074 -1.68975e-16 
-2.65099 -4.95169 -1.09021e-15 
-2.44037 -4.93461 -4.93049e-16 
-2.19043 -4.91769 1.90907e-16 
-1.9728 -4.93834 -8.0372e-16 
-1.76914 -4.98778 2.74484e-16 
[...]
POINT_DATA 3402 
VECTORS vectors float
0.220729 -0.0505826 0.973856 
0.220751 -0.0453886 0.973517 
0.221171 -0.0371485 0.973682 
0.225083 -0.0317582 0.973406 
0.223765 -0.0246062 0.973902 
0.224516 -0.0156623 0.974359 
0.225882 -0.0117195 0.974326 
0.22388 -0.00311069 0.973743 
0.22562 0.00399973 0.974508 
0.224147 0.00932419 0.974926 
0.223818 0.0184006 0.974734 
0.225273 0.0226389 0.97402 
0.222583 0.0316657 0.974256 
0.224377 0.0372109 0.973909 
0.218841 0.0437111 0.974724 
0.219984 0.052826 0.974767 
0.210628 -0.0775275 0.97426 
0.215466 -0.0692022 0.974533 
0.216998 -0.0648377 0.973884 
0.217853 -0.0574808 0.973288 
0.193982 -0.0451395 0.985336 
0.193346 -0.0395535 0.985898 
0.200366 -0.0333425 0.985619 
0.196809 -0.0258115 0.984324 
0.200552 -0.0202237 0.986276 
0.195937 -0.0131603 0.984741 
0.196892 -0.00804982 0.986025 
0.197029 -0.00124223 0.987277 
0.194438 0.00479946 0.985543 
0.195649 0.0105187 0.987231 
0.196142 0.0174519 0.985224 
0.197302 0.0233167 0.986189 
0.196697 0.0291732 0.984335 
0.196898 0.0360434 0.986307 
0.19537 0.0433178 0.984412 
0.196042 0.0488663 0.984975 
0.217597 0.0585197 0.973387 
0.216105 0.0654991 0.973923 
0.213816 0.0720724 0.975426 
0.206337 -0.0901861 0.974166 
0.210267 -0.0848325 0.974309 
0.189386 -0.0718078 0.98494 
0.192486 -0.0644684 0.984787 
0.191907 -0.0585754 0.983477 
0.196863 -0.052847 0.984876 
0.177503 -0.043019 0.98892 
0.177028 -0.0371779 0.989196 
0.178291 -0.0308304 0.99063 
0.181906 -0.0254973 0.988193 
0.175402 -0.019755 0.991528 
0.178098 -0.0134435 0.99031 
0.177768 -0.0083152 0.99009 
0.178963 -0.00285705 0.991314 
0.17926 0.00304834 0.989354 
0.177749 0.00986358 0.991295 
0.173351 0.016338 0.99061 
0.180059 0.0229257 0.990738 
0.174722 0.0277807 0.989243 
0.173912 0.0333241 0.991162 
0.17964 0.041503 0.988026 
0.175025 0.045387 0.989151 
0.193807 0.056229 0.985053 
0.189213 0.0618404 0.984557 
0.188872 0.0660589 0.985707 
0.20967 0.0806195 0.974304 
0.211784 0.0855215 0.973165 
0.208768 0.0916111 0.973119 
0.200705 -0.104681 0.97409 
0.203823 -0.0987689 0.97436 
0.185075 -0.085232 0.985111 
0.185173 -0.0778212 0.984522 
0.169894 -0.0655106 0.988286 
0.172753 -0.0585901 0.989343 
0.173939 -0.0533006 0.98859 
0.174875 -0.0484189 0.990172 
0.150994 -0.0380408 0.996381 
0.153275 -0.0329946 0.996711 
0.148299 -0.0262568 0.997827 
0.15384 -0.0227457 0.996922 
0.143658 -0.0174925 0.998688 
0.149631 -0.0126287 0.997062 
0.139938 -0.00791877 1.00042 
0.14328 -0.00266706 0.998612 
0.144322 0.00287277 0.999506 
0.143149 0.00869753 0.999239 
0.145345 0.0136444 0.998242 
0.148928 0.0191001 0.998499 
0.151919 0.024543 0.996639 
0.148281 0.028361 0.997895 
0.157116 0.0356126 0.995538 
0.154169 0.0400872 0.995337 
0.166492 0.049415 0.991343 
0.173901 0.0576053 0.988093 
0.169438 0.0624078 0.989348 
0.185187 0.0738933 0.984135 
0.182583 0.0796687 0.985915 
0.180739 0.0859105 0.987466 
0.202378 0.102859 0.972882 
0.199832 0.109076 0.974131 
0.19333 -0.118826 0.97415 
0.197119 -0.11317 0.974058 
0.178381 -0.097809 0.985666 
0.177921 -0.0891591 0.985067 
0.166058 -0.0768837 0.988003 
0.167285 -0.0711388 0.988989 
0.152656 -0.0614526 0.994063 
0.149593 -0.0543244 0.995408 
0.151285 -0.0485044 0.99639 
0.148604 -0.0424011 0.996965 
0.123231 -0.030912 1.00106 
0.124022 -0.0265443 1.00132 
0.118437 -0.0216377 1.00112 
0.127964 -0.0197741 1.00033 
0.12148 -0.015398 1.00059 
0.122329 -0.0112479 1.00175 
0.118459 -0.00598564 1.00279 
0.1196 -0.00151054 1.00018 
0.122206 0.0027223 1.00181 
0.119452 0.0070014 1.00083 
0.12119 0.0112127 1.00299 
0.117664 0.0150384 1.0003 
0.122599 0.0199915 1.0027 
0.118972 0.0230381 1.00024 
0.124822 0.0283189 1.00169 
0.124141 0.0326827 1.00045 
0.145256 0.0428042 0.997621 
0.152081 0.0515398 0.995525 
0.146811 0.0567518 0.995186 
0.162719 0.067114 0.991496 
0.171637 0.076058 0.985679 
0.170422 0.0825865 0.986624 
0.179438 0.0941641 0.98491 
0.172506 0.0989062 0.986159 
0.196532 0.114579 0.973368 
0.189467 -0.126292 0.973873 
0.170386 -0.110028 0.985653 
0.171174 -0.102043 0.985434 
0.161936 -0.0900705 0.987064 
0.15927 -0.0815202 0.989135 
0.144877 -0.0703802 0.99442 
0.147607 -0.0655826 0.995081 
0.127317 -0.0517633 1.0001 
0.12506 -0.045484 1.00004 
0.125223 -0.0401267 1.00062 
0.12195 -0.0343941 1.00095 
0.127581 -0.0337183 0.998793 
0.129024 -0.0294665 0.998777 
0.13165 -0.0255805 0.998617 
0.133151 -0.0206785 0.998436 
0.136953 -0.0165403 0.998701 
0.135321 -0.0119124 0.997873 
0.136679 -0.00685494 0.996908 
0.136247 -0.00203906 0.998365 
0.133441 0.00306304 1.00056 
0.13739 0.00820217 0.996494 
0.135612 0.0128279 0.999015 
0.131139 0.0168991 0.997803 
0.131194 0.021736 1.00011 
0.128672 0.0263459 0.99731 
0.123162 0.0291928 1.00098 
0.120502 0.0338283 0.999716 
0.120264 0.0364144 1.0011 
0.126755 0.0442292 1.00037 
0.127316 0.0503563 0.999402 
0.143251 0.0614728 0.996484 
0.153456 0.0699885 0.992923 
0.144152 0.0725822 0.99439 
0.161207 0.0870809 0.98774 
0.160602 0.0940306 0.986546 
0.17255 0.106634 0.986287 
0.19205 0.123424 0.973408 
0.189433 0.127552 0.974135 
0.181698 -0.142969 0.971451 
0.18776 -0.134115 0.972046 
0.162434 -0.113243 0.98605 
0.156192 -0.1033 0.986157 
0.157265 -0.0961757 0.987462 
0.141185 -0.0829481 0.993907 
0.141485 -0.0774114 0.995072 
0.129753 -0.0658441 0.998585 
0.12051 -0.0550048 1.00064 
0.112538 -0.047364 1.00119 
0.114652 -0.0435584 1.0005 
0.121762 -0.0413761 0.999273 
0.126923 -0.0381029 0.998484 
0.13421 -0.0382601 0.998435 
0.13276 -0.0327348 0.998163 
0.134412 -0.0282528 0.998835 
0.129588 -0.0219395 1.00042 
0.131802 -0.0163568 0.999773 
0.133388 -0.0108715 1.00207 
0.123491 -0.00567951 1.00133 
0.125845 -0.000622698 1.00197 
0.129386 0.00419861 1.00046 
0.127965 0.00877054 1.00022 
0.128435 0.0137853 1.0012 
0.132385 0.018946 0.999141 
0.133222 0.0243015 0.999613 
0.132798 0.0297377 0.998495 
0.131035 0.0342521 0.998336 
0.130132 0.0392093 0.996969 
0.121904 0.0392985 0.999597 
0.114964 0.04136 1.00024 
0.113908 0.046041 1.00045 
0.1174 0.0509671 1.0007 
0.129311 0.0607 0.999396 
0.1311 0.0676965 0.997934 
0.142654 0.0789862 0.993718 
0.139977 0.0834787 0.994165 
0.157627 0.0989979 0.986667 
0.16615 0.111921 0.984892 
0.159022 0.114876 0.987884 
0.186605 0.137309 0.971323 
0.176482 -0.150598 0.972174 
0.149607 -0.12305 0.987998 
0.158277 -0.120087 0.987993 
0.157222 -0.113815 0.984593 
0.133502 -0.0926585 0.99377 
0.133446 -0.0865379 0.995127 
0.125116 -0.0760076 0.998209 
0.11835 -0.0660729 1.00025 
0.10588 -0.0554389 1.00112 
0.108031 -0.0518225 1.00089 
0.119909 -0.0545639 0.997438 
0.124357 -0.051122 0.99864 
0.129256 -0.0475954 0.999707 
0.134803 -0.0443 0.998578 
0.107421 -0.0314199 1.00373 
0.105802 -0.0262372 1.00351 
0.0985051 -0.0205647 1.00508 
0.0993409 -0.0169392 1.00499 
0.0933757 -0.0124764 1.00377 
0.0975544 -0.00928779 1.00483 
0.081525 -0.00457229 1.00653 
0.0833376 -0.00128139 1.00655 
0.089197 0.00217074 1.00576 
0.0880705 0.00530737 1.00616 
0.0893573 0.00892557 1.00633 
0.0960737 0.0134348 1.00565 
0.0994186 0.0178392 1.00407 
0.104209 0.0227925 1.0044 
0.110078 0.0288804 1.00292 
0.10836 0.0326146 1.00364 
0.127359 0.0439314 1.00067 
0.127966 0.0480487 0.998385 
0.125476 0.0529504 0.997871 
0.114497 0.0517388 0.999638 
0.108658 0.0528754 1.00155 
0.109384 0.0579948 1.00092 
0.125456 0.0708439 0.999022 
0.123918 0.0764955 0.998535 
0.134462 0.0867921 0.994645 
0.150205 0.103383 0.988024 
0.157998 0.118844 0.983352 
0.153291 0.120569 0.988746 
0.178173 0.147301 0.971953 
0.173043 -0.158718 0.970804 
0.145643 -0.128928 0.988845 
0.149252 -0.127932 0.983876 
0.153846 -0.120558 0.983854 
0.130716 -0.0982758 0.994446 
0.119795 -0.0858825 0.9983 
0.117413 -0.0790661 0.998988 
0.102113 -0.0644002 1.00113 
0.102831 -0.059599 1.00115 
0.112261 -0.0619006 0.998626 
0.119942 -0.0611828 1.00042 
0.115716 -0.054637 1.00096 
0.108135 -0.0463582 1.00266 
0.104336 -0.0400243 1.00293 
0.104073 -0.0352318 1.00219 
0.0662996 -0.0206916 1.00762 
0.0641252 -0.0172196 1.00744 
0.0580498 -0.0128217 1.00704 
0.0546327 -0.00969497 1.00773 
0.047886 -0.00652938 1.00984 
0.0481707 -0.00459516 1.00763 
0.0412348 -0.00223933 1.00805 
0.0428018 -0.000442082 1.00785 
0.0433925 0.00125897 1.00792 
0.0457988 0.00316933 1.00813 
0.0471536 0.00522188 1.00823 
0.0507838 0.00770768 1.00725 
0.0572145 0.011087 1.00762 
0.0655309 0.0155236 1.0073 
0.0645058 0.0177228 1.00744 
0.0827921 0.0270469 1.00617 
0.100984 0.0371748 1.0022 
0.110107 0.0455193 1.00161 
0.107108 0.0492835 1.00197 
0.124283 0.0585442 0.998695 
0.116476 0.0587855 0.998116 
0.112479 0.0620077 0.998983 
0.104536 0.061828 1.00093 
0.101219 0.0654915 1.00149 
0.123625 0.0834339 0.997508 
0.128458 0.0932537 0.994736 
0.133388 0.104658 0.992367 
0.151156 0.123574 0.984093 
0.152424 0.129333 0.986302 
0.170751 0.150764 0.974379 
0.171361 0.153701 0.973208 
0.167831 -0.166087 0.970276 
0.138258 -0.131371 0.989173 
0.145637 -0.134041 0.983423 
0.122257 -0.108703 0.99351 
0.127539 -0.104097 0.9932 
0.11767 -0.0931394 0.997365 
0.100001 -0.0739012 1.00073 
0.0980085 -0.0672489 1.00145 
0.104851 -0.0689924 0.999605 
0.111126 -0.067917 0.999419 
0.113325 -0.0665952 0.997831 
0.111261 -0.0604996 1.00045 
0.0969331 -0.0488332 1.00378 
0.0743614 -0.03389 1.0058 
0.0623947 -0.0255375 1.00776 
0.0581694 -0.0209671 1.00833 
0.0312791 -0.00998673 1.00786 
0.0283595 -0.00770884 1.00719 
0.0244043 -0.00551477 1.00736 
0.0227014 -0.00413266 1.00739 
0.0165557 -0.00232248 1.00807 
0.0158735 -0.00158337 1.00621 
0.0159869 -0.000989747 1.00824 
0.0166236 -0.000279161 1.00823 
0.0143356 0.000439188 1.00793 
0.0166815 0.00115095 1.0079 
0.0182787 0.00199335 1.00781 
0.0190817 0.00301118 1.00716 
0.0233181 0.00472783 1.00918 
0.0324938 0.00770224 1.00637 
0.0262195 0.00755128 1.00699 
0.0442287 0.0142649 1.00734 
0.0559274 0.0207449 1.00738 
0.0682283 0.0283603 1.00851 
0.067478 0.0313876 1.00569 
0.0986599 0.0502169 1.00485 
0.117226 0.0619675 0.999447 
0.116267 0.0674119 0.999481 
0.108147 0.0669525 0.999591 
0.105024 0.0709066 0.999691 
0.0971602 0.0683494 1.00108 
0.113311 0.0843291 0.999523 
0.114961 0.0910847 0.998605 
0.122808 0.102534 0.995513 
0.136746 0.119286 0.987208 
0.143486 0.130989 0.985671 
0.14003 0.135595 0.988209 
0.168746 0.166787 0.968696 
0.159146 -0.174392 0.970052 
0.133754 -0.138899 0.988816 
0.140545 -0.140775 0.98384 
0.122016 -0.11678 0.991729 
0.108108 -0.100672 0.997897 
0.116694 -0.0997064 0.996552 
0.0968778 -0.0785077 1.00065 
0.0952225 -0.0740822 1.00018 
0.102457 -0.0746578 0.999193 
0.109298 -0.0764863 0.997081 
0.10372 -0.0671102 1.00313 
0.0830794 -0.0508192 1.00534 
0.0760779 -0.0427935 1.00602 
0.0603176 -0.03086 1.00694 
0.0381282 -0.0179145 1.00899 
0.0280414 -0.0119793 1.00812 
0.0245377 -0.00901221 1.00673 
0.0101188 -0.00344558 1.00705 
0.00957865 -0.00283127 1.00793 
0.00665065 -0.00166114 1.00653 
0.00616758 -0.00126463 1.00797 
0.00410846 -0.000628392 1.00683 
0.00346249 -0.00035609 1.0082 
0.00434893 -0.00026471 1.00754 
0.00409979 -1.72877e-05 1.00724 
0.00314981 0.000152511 1.0073 
0.00396467 0.00032359 1.00766 
0.00513539 0.00062764 1.00762 
0.00449562 0.000851097 1.00711 
0.00703118 0.0015834 1.00791 
0.011477 0.00294126 1.0077 
0.00930682 0.00288324 1.00917 
0.0214421 0.00747437 1.00708 
0.0262219 0.0103379 1.00761 
0.030354 0.01348 1.00796 
0.0474473 0.0237204 1.00739 
0.0627286 0.0340493 1.00596 
0.0886884 0.0510281 1.00386 
0.0862198 0.0542215 1.00467 
0.1098 0.0701654 0.999455 
0.105483 0.0732993 0.998247 
0.102146 0.0740175 0.999474 
0.0923234 0.0707031 1.00238 
0.0932245 0.0769345 1.00005 
0.110272 0.0955752 0.998687 
0.115862 0.104798 0.994481 
0.130274 0.123794 0.990203 
0.141026 0.142955 0.981813 
0.133099 0.140324 0.989864 
0.153286 0.175479 0.970527 
0.149023 -0.178165 0.971753 
0.127344 -0.144592 0.988943 
0.136015 -0.147759 0.982623 
0.120488 -0.125302 0.9908 
0.108099 -0.107927 0.996768 
0.0975802 -0.0939226 0.999903 
0.101681 -0.0895591 0.999613 
0.0919123 -0.0776517 1.00221 
0.103533 -0.0848943 0.996533 
0.103749 -0.0794246 1.00185 
0.0891353 -0.063618 1.0029 
0.0703499 -0.0471375 1.00586 
0.0447251 -0.0280248 1.00768 
0.0400016 -0.0228224 1.00776 
0.026746 -0.0140467 1.00807 
0.014016 -0.00693357 1.00702 
0.00806165 -0.00369417 1.00664 
0.00796296 -0.00326992 1.00918 
0.00240917 -0.000969182 1.00593 
0.00193727 -0.000728176 1.00864 
0.000860975 -0.000374207 1.00578 
0.000579546 -0.000237946 1.00859 
0.00015066 -0.000123069 1.00557 
0.00015439 -6.52434e-05 1.00803 
0.000358117 -3.09615e-06 1.00643 
0.00022713 5.16483e-05 1.00656 
9.91802e-05 3.01855e-05 1.00703 
0.000377796 4.52177e-05 1.00692 
0.000528579 0.00013524 1.00698 
0.000505205 0.000191834 1.00725 
0.0012374 0.000352292 1.00521 
0.00291068 0.000859866 1.0072 
0.00141297 0.000525397 1.00727 
0.00523497 0.00196936 1.00665 
0.00814026 0.00331782 1.00651 
0.00976033 0.00445104 1.00878 
0.0208152 0.0103427 1.00667 
0.0275425 0.0152489 1.00936 
0.0477946 0.0286024 1.00758 
0.04849 0.0318902 1.00715 
0.0777896 0.0535865 1.00704 
0.107981 0.0809525 0.998631 
0.100139 0.0796864 0.999566 
0.0957044 0.0814207 0.999112 
0.0895118 0.0806285 1.00191 
0.108068 0.101431 0.997804 
0.110581 0.109506 0.995825 
0.121271 0.125873 0.990825 
0.130756 0.142933 0.98494 
0.132055 0.152722 0.984682 
0.143747 0.174303 0.975345 
0.141176 -0.180468 0.973415 
0.124929 -0.151781 0.987395 
0.126859 -0.148505 0.984134 
0.109366 -0.122927 0.993271 
0.103394 -0.110781 0.99692 
0.0931687 -0.0960219 0.99943 
0.0826501 -0.08308 1.00045 
0.0867712 -0.0799091 0.999689 
0.0955357 -0.088228 0.999056 
0.100332 -0.0882366 0.999292 
0.0851868 -0.0703376 1.0031 
0.0732975 -0.0564101 1.00547 
0.0463657 -0.0336583 1.00739 
0.0313647 -0.0212642 1.00764 
0.0172648 -0.0108198 1.00743 
0.0128537 -0.00737626 1.0072 
0.00595771 -0.00322659 1.00761 
0.00234842 -0.00121896 1.00685 
0.00127515 -0.000735667 1.00761 
0.00022557 -0.00024282 1.00695 
-0.000128774 -0.00011312 1.00693 
-0.00040574 -8.89537e-06 1.00678 
-0.000533414 -3.84479e-05 1.00742 
-0.00059165 -4.62496e-05 1.00714 
-0.000606207 -5.2759e-05 1.00712 
-0.000580604 -1.48079e-05 1.00685 
-0.000543457 1.61633e-05 1.00714 
-0.000521236 -1.45846e-05 1.00726 
-0.000472051 -2.81427e-05 1.00647 
-0.000462594 3.35274e-05 1.00698 
-0.000454066 4.55481e-05 1.00744 
-0.000420305 -1.97831e-05 1.00895 
-6.27905e-05 5.5507e-05 1.00665 
-0.000295899 1.58321e-05 1.00686 
0.000734068 0.000377902 1.00739 
0.00198624 0.000928861 1.00708 
0.002647 0.00130207 1.00719 
0.0082465 0.00433882 1.00658 
0.00896892 0.00522114 1.00689 
0.0197323 0.0122307 1.00756 
0.0233933 0.0160328 1.00573 
0.0448101 0.0326577 1.00761 
0.0819419 0.0614311 1.00465 
0.0921877 0.0746792 1.00258 
0.0953186 0.0822228 1.00046 
0.0978942 0.0901075 0.999254 
0.0855043 0.0822206 1.00125 
0.0951586 0.0965829 1.00154 
0.104919 0.112222 0.994981 
0.107156 0.119877 0.99564 
0.117383 0.138605 0.987429 
0.125 0.15342 0.98592 
0.145621 0.18071 0.971701 
0.13467 -0.185308 0.973181 
0.119942 -0.158371 0.986367 
0.11745 -0.149123 0.985474 
0.103229 -0.125614 0.994062 
0.099967 -0.115962 0.99688 
0.0852394 -0.0961691 1.00006 
0.077684 -0.0853123 1.00227 
0.0937758 -0.0931556 0.998702 
0.0821471 -0.0782439 1.00246 
0.0730977 -0.0651273 1.0047 
0.0472912 -0.0394045 1.00742 
0.0318862 -0.0250281 1.00787 
0.0165252 -0.0122619 1.00753 
0.0107713 -0.00744456 1.00755 
0.00439914 -0.00287315 1.0071 
0.00229873 -0.00139336 1.00696 
0.000577105 -0.000360561 1.00698 
-5.52962e-05 -4.74605e-05 1.00691 
-0.000397887 8.50637e-05 1.00699 
-0.00052345 8.64873e-05 1.00713 
-0.000563767 4.5946e-05 1.00675 
-0.000537119 2.34325e-05 1.00689 
-0.00047342 -2.10141e-05 1.00665 
-0.000447645 -5.32717e-05 1.00706 
-0.00041967 -6.10495e-05 1.00693 
-0.000375206 -4.0089e-05 1.00687 
-0.000374539 -1.3089e-05 1.00722 
-0.000397523 -3.95549e-05 1.00724 
-0.000423684 -2.36176e-06 1.00662 
-0.000414857 5.97775e-05 1.00704 
-0.000477128 2.80212e-05 1.00571 
-0.000482214 3.83101e-06 1.00712 
-0.000579136 -7.95035e-05 1.0077 
-0.000625955 -9.35208e-05 1.00701 
-0.00044494 -0.000105892 1.00737 
4.43911e-05 6.56634e-05 1.00725 
5.16788e-05 5.60245e-05 1.0072 
0.00171084 0.000983458 1.00714 
0.00243962 0.00158462 1.00715 
0.00771782 0.00518443 1.00894 
0.0123652 0.00904533 1.00848 
0.0260569 0.0202288 1.0077 
0.0552581 0.043883 1.00496 
0.055627 0.0475208 1.00853 
0.0836821 0.0764354 1.00155 
0.0958824 0.0933105 1.00037 
0.0844221 0.0851674 0.998766 
0.0825183 0.088289 1.00147 
0.0907605 0.102059 0.999396 
0.0946846 0.110979 0.998538 
0.101621 0.124477 0.994613 
0.11801 0.150395 0.984755 
0.120835 0.158749 0.98787 
0.134971 0.187644 0.971418 
0.127616 -0.190726 0.972531 
0.113124 -0.162548 0.987442 
0.113093 -0.156244 0.984968 
0.0959454 -0.127308 0.994439 
0.0918706 -0.116577 0.997667 
0.0821017 -0.100721 1.0004 
0.0766362 -0.0914416 1.00055 
0.0871402 -0.0998333 0.997114 
0.0908616 -0.0966675 0.999003 
0.0732021 -0.0751768 1.00355 
0.0473897 -0.0456443 1.00709 
0.0367838 -0.033092 1.00752 
0.0170537 -0.0146475 1.00744 
0.00980296 -0.00791296 1.00727 
0.00444929 -0.0034214 1.00723 
0.00207805 -0.00154333 1.00699 
0.000304073 -0.000267355 1.00687 
-0.000138578 4.39471e-05 1.007 
-0.000421075 0.000149973 1.00729 
-0.000460641 0.000119002 1.00649 
-0.000406139 0.000122016 1.00665 
-0.000369393 5.35001e-05 1.00685 
-0.000287674 -3.873e-05 1.00687 
-0.000175202 -9.4487e-05 1.00647 
-6.73336e-05 -9.67144e-05 1.00634 
-9.49972e-06 -0.000107217 1.00683 
6.9995e-05 -0.000100162 1.00699 
0.000134779 -4.32176e-05 1.00681 
7.71661e-05 7.69143e-06 1.00722 
3.19263e-05 6.44338e-05 1.00703 
-3.53751e-05 6.16054e-05 1.00832 
-0.000174671 8.59389e-05 1.00614 
-0.000174162 7.79667e-05 1.00699 
-0.00038779 -7.43651e-07 1.00666 
-0.00032801 6.53325e-06 1.00638 
-0.000566863 -0.000157727 1.00687 
-0.000513345 -0.000213907 1.00734 
-0.00051168 -0.000246608 1.00699 
-3.55027e-05 -1.08764e-06 1.00759 
-2.18155e-05 3.60349e-05 1.00692 
0.00136844 0.00102886 1.00579 
0.00362049 0.00272142 1.00696 
0.00876858 0.00704755 1.00888 
0.0226428 0.0192023 1.00749 
0.0406921 0.0376471 1.00811 
0.0662939 0.0642067 1.00473 
0.0745911 0.0769548 1.00404 
0.0944946 0.0993772 0.997988 
0.086552 0.0963171 0.99865 
0.0757653 0.0882416 1.00241 
0.0829961 0.100399 0.998793 
0.0887711 0.112855 0.998735 
0.0991525 0.128578 0.994098 
0.11444 0.155537 0.984352 
0.112965 0.159513 0.987302 
0.124268 0.188212 0.975244 
0.118752 -0.19428 0.973924 
0.108944 -0.169284 0.985963 
0.105831 -0.159028 0.985083 
0.0944078 -0.136286 0.993413 
0.0893401 -0.123312 0.997594 
0.0745483 -0.0995379 1.00084 
0.0725347 -0.0935325 1.00069 
0.0834943 -0.103208 0.999124 
0.0759351 -0.0884858 1.00233 
0.0689163 -0.0760596 1.00425 
0.0382654 -0.03973 1.0076 
0.0193111 -0.0187056 1.0078 
0.0103695 -0.00957622 1.00735 
0.00381715 -0.00337085 1.00686 
0.00187285 -0.00162219 1.00695 
0.00044062 -0.000449066 1.00657 
-0.000254564 0.000105793 1.00688 
-0.000429978 0.000226599 1.00689 
-0.000465229 0.000210017 1.00701 
-0.000350147 7.96078e-05 1.00644 
-0.0002384 7.51033e-06 1.00609 
-3.64506e-05 -8.56898e-05 1.00628 
7.88888e-05 -7.17399e-05 1.00688 
0.000193031 -0.000166674 1.00474 
0.000281368 -0.000184857 1.00881 
0.000363579 -0.000181156 1.00694 
0.000412529 -0.000145724 1.00757 
0.00041262 -0.000133912 1.00761 
0.000434645 -4.43459e-06 1.00703 
0.000411073 8.74024e-05 1.00721 
0.000398816 0.000128239 1.0057 
0.000372061 0.000150696 1.00756 
0.000213916 0.000140551 1.00661 
0.000288394 0.000182766 1.00643 
3.63953e-05 0.000167581 1.00618 
9.81395e-05 0.000171704 1.00655 
-0.000248929 -4.70596e-05 1.00639 
-0.000471777 -0.000200495 1.00678 
-0.000454569 -0.000250339 1.00698 
-0.00048475 -0.000283272 1.00708 
-0.000447583 -0.000258975 1.0072 
0.000168131 0.000215507 1.00824 
0.00174404 0.00145128 1.006 
0.00406541 0.00358164 1.00692 
0.0135614 0.0123424 1.00719 
0.0158034 0.0154491 1.0077 
0.0333076 0.0336194 1.00839 
0.0494807 0.0534393 1.00631 
0.0793456 0.0891682 1.0015 
0.0864513 0.102621 0.999246 
0.076825 0.0973255 1.00081 
0.0726101 0.0965335 1.00137 
0.0845483 0.116258 0.999291 
0.0941018 0.131074 0.994323 