# vtk DataFile Version 3.0 
Exported using Morpho https://github.com/Morpho-lang/morpho 
ASCII 
DATASET UNSTRUCTURED_GRID 

POINTS 3402 float 
-1.58829 -6.89038 5.89094e-13 
-1.38781 -6.93354 2.30472e-13 
-1.18471 -6.97112 1.29262e-12 
-0.969682 -7.00426 -9.13142e-12 
-0.727884 -7.0335 6.95401e-12 
-0.524072 -7.05162 -1.21791e-11 
-0.302825 -7.06458 -1.81356e-12 
-0.0938203 -7.07045 -1.66291e-12 
0.116032 -7.07012 1.23468e-12 
0.335681 -7.0631 1.72376e-12 
0.531494 -7.05106 -5.8299e-12 
0.737557 -7.0325 3.5512e-12 
0.943392 -7.00785 -2.77057e-12 
1.16545 -6.97436 1.3707e-11 
1.37825 -6.93545 -3.3416e-12 
1.61002 -6.88533 1.60545e-12 
-2.43412 -6.63891 1.9838e-12 
-2.22245 -6.71273 -9.0723e-12 
-2.01202 -6.77877 1.02336e-12 
-1.80466 -6.8369 -6.17558e-12 
-1.56916 -6.66756 -1.63793e-15 
-1.34463 -6.69571 -1.64678e-17 
-1.13331 -6.74187 -2.44825e-15 
-0.901704 -6.80137 1.15989e-16 
-0.680963 -6.79385 -1.09698e-16 
-0.461408 -6.8267 2.56739e-15 
-0.251224 -6.81847 4.46918e-16 
-0.0418697 -6.82076 1.83035e-15 
0.174815 -6.83443 -1.34568e-15 
0.380606 -6.80226 -3.01275e-15 
0.585082 -6.7976 7.29693e-17 
0.790381 -6.77791 2.96932e-15 
1.00858 -6.76869 9.86525e-16 
1.22638 -6.72217 -9.88606e-16 
1.44793 -6.70038 3.03985e-15 
1.68698 -6.6597 3.68771e-15 
1.85604 -6.82313 9.3005e-12 
2.04904 -6.76768 -1.283e-11 
2.2816 -6.69285 7.8989e-12 
-2.85683 -6.46827 -6.04355e-12 
-2.65452 -6.55389 -1.69171e-12 
-2.44352 -6.41657 1.80258e-15 
-2.21592 -6.48219 3.56243e-15 
-1.99854 -6.54654 3.12727e-15 
-1.78191 -6.60364 8.43549e-17 
-1.5394 -6.43937 2.37041e-15 
-1.32816 -6.4725 -3.72648e-17 
-1.11158 -6.50466 2.7934e-17 
-0.907323 -6.57523 -3.63858e-15 
-0.704083 -6.54828 4.86573e-17 
-0.492111 -6.5909 -2.74331e-17 
-0.277371 -6.57289 -2.81902e-15 
-0.068979 -6.57296 -1.33073e-15 
0.143808 -6.59131 2.92861e-15 
0.357326 -6.565 3.82677e-15 
0.571444 -6.54749 -2.39494e-16 
0.789642 -6.54337 -3.47517e-15 
1.01206 -6.53604 -2.60063e-15 
1.2323 -6.48922 -1.62168e-17 
1.46652 -6.48426 -9.44645e-16 
1.67744 -6.41956 3.43362e-15 
1.88945 -6.55181 3.24799e-15 
2.11077 -6.53359 -6.45819e-17 
2.32907 -6.44983 -2.056e-16 
2.4989 -6.61479 -1.06129e-12 
2.67676 -6.54484 -4.52839e-12 
2.91591 -6.44185 1.81246e-11 
-3.28463 -6.26189 -5.76048e-12 
-3.09313 -6.35866 -1.05468e-12 
-2.88663 -6.24596 2.15432e-15 
-2.65214 -6.30911 2.51003e-17 
-2.39568 -6.20322 -5.73954e-17 
-2.18241 -6.26858 9.68633e-19 
-1.96318 -6.32282 -9.05008e-16 
-1.7512 -6.3775 -7.96697e-17 
-1.55094 -6.20538 1.554e-15 
-1.33668 -6.23686 1.44539e-15 
-1.12679 -6.27012 -2.40819e-15 
-0.91142 -6.32727 -4.41991e-18 
-0.698406 -6.31041 -2.62016e-17 
-0.488685 -6.35348 3.33605e-15 
-0.280974 -6.32849 3.27949e-15 
-0.0724407 -6.32528 2.33236e-15 
0.134525 -6.35083 1.91774e-15 
0.342335 -6.32274 -3.6572e-15 
0.551741 -6.30969 -3.75851e-15 
0.765438 -6.30971 1.1501e-15 
0.981648 -6.31074 4.27128e-15 
1.19033 -6.25669 3.02406e-15 
1.40817 -6.26659 1.51741e-15 
1.62443 -6.20296 -3.05492e-15 
1.87931 -6.30694 -1.34957e-15 
2.08515 -6.31307 -4.5481e-15 
2.27386 -6.21518 4.18837e-15 
2.50872 -6.32533 2.80198e-16 
2.73892 -6.31883 -4.50888e-16 
2.97573 -6.21286 7.10696e-17 
3.16155 -6.32492 -2.29171e-12 
3.37886 -6.21155 1.45847e-13 
-3.71605 -6.01589 -5.43191e-12 
-3.52402 -6.13036 -4.19323e-13 
-3.31214 -6.03965 2.89191e-15 
-3.07946 -6.10216 -2.04527e-17 
-2.82827 -6.03087 2.47935e-15 
-2.61739 -6.10085 2.28172e-17 
-2.4182 -5.97371 -1.93676e-15 
-2.19931 -6.03204 3.15043e-17 
-1.9862 -6.09009 -2.37595e-15 
-1.7673 -6.14034 8.13314e-17 
-1.55026 -5.98145 -3.78164e-15 
-1.33043 -6.00967 -2.19646e-17 
-1.11543 -6.03431 -2.98773e-15 
-0.9098 -6.09429 -1.25147e-15 
-0.702124 -6.07156 1.41063e-18 
-0.49294 -6.11256 -2.70942e-15 
-0.28395 -6.08719 8.71089e-18 
-0.0747439 -6.08404 2.95329e-15 
0.136054 -6.10614 -2.56659e-15 
0.345931 -6.08215 -1.10449e-15 
0.561277 -6.07489 -1.61241e-15 
0.776123 -6.07768 2.24179e-15 
0.986656 -6.07305 1.96062e-15 
1.19522 -6.01713 -1.02722e-15 
1.40212 -6.03769 2.19679e-15 
1.61315 -5.97182 1.77791e-17 
1.83028 -6.08871 2.0663e-15 
2.05277 -6.0709 3.49861e-16 
2.27516 -5.99612 -4.16323e-15 
2.49871 -6.11113 -1.10553e-15 
2.73156 -6.1069 -2.20444e-15 
2.96231 -6.00588 1.41369e-15 
3.20317 -6.07653 -4.7916e-16 
3.41181 -5.95466 -6.58274e-17 
3.58508 -6.09485 1.01644e-11 
-3.94277 -5.8698 9.72732e-12 
-3.72769 -5.7917 -3.38036e-15 
-3.50316 -5.88056 2.70733e-17 
-3.26209 -5.8245 3.08679e-17 
-3.04539 -5.89265 -2.5115e-15 
-2.84866 -5.79146 2.37017e-17 
-2.63623 -5.85877 2.40754e-15 
-2.41361 -5.75322 -2.33951e-17 
-2.195 -5.80576 -9.33689e-16 
-1.98191 -5.85856 -3.65424e-16 
-1.77012 -5.91416 -3.80257e-15 
-1.55656 -5.76071 -1.16578e-15 
-1.33698 -5.79037 -2.29383e-15 
-1.11596 -5.80722 -1.38399e-15 
-0.90122 -5.85644 5.85772e-17 
-0.69441 -5.83233 8.15412e-18 
-0.492827 -5.87541 1.85444e-15 
-0.288423 -5.84568 4.3614e-15 
-0.0837706 -5.8459 2.52217e-15 
0.126645 -5.86861 1.22044e-18 
0.343223 -5.85337 2.01483e-15 
0.555362 -5.84267 3.50704e-15 
0.765824 -5.84807 2.07663e-15 
0.977744 -5.84129 -1.34083e-15 
1.19441 -5.79429 1.55646e-15 
1.4134 -5.80312 2.11412e-15 
1.63426 -5.74984 -2.04486e-15 
1.84109 -5.86686 -2.06222e-15 
2.05716 -5.84649 -1.04128e-15 
2.27189 -5.77225 -2.27685e-15 
2.49136 -5.88501 -1.11477e-15 
2.71127 -5.89856 -3.14514e-15 
2.9243 -5.79415 9.2158e-16 
3.16676 -5.85955 7.73687e-16 
3.39192 -5.74639 -2.20098e-15 
3.6397 -5.85433 -9.35485e-17 
3.81818 -5.9516 -9.27432e-12 
3.99763 -5.83257 6.24396e-13 
-4.38635 -5.54617 5.97546e-12 
-4.13808 -5.73378 -3.60879e-12 
-3.91944 -5.63321 -1.01353e-16 
-3.68408 -5.57056 -3.11359e-15 
-3.48274 -5.66665 1.69993e-15 
-3.29194 -5.58122 2.02537e-15 
-3.08041 -5.65313 -6.72775e-17 
-2.85138 -5.57907 -2.52927e-15 
-2.61986 -5.62883 -4.47395e-18 
-2.39796 -5.52892 1.15281e-17 
-2.18996 -5.58258 -4.2794e-15 
-1.97621 -5.62803 -2.11067e-15 
-1.76848 -5.68418 -3.15297e-15 
-1.57143 -5.53279 3.39645e-15 
-1.36045 -5.57092 4.02708e-15 
-1.14394 -5.58918 7.59201e-17 
-0.920797 -5.62589 1.94574e-15 
-0.697323 -5.6172 4.24363e-15 
-0.475574 -5.63656 -3.55778e-15 
-0.267562 -5.60851 -2.11339e-15 
-0.052779 -5.61862 -3.14918e-15 
0.159813 -5.64238 -3.06391e-15 
0.375258 -5.62534 -1.74617e-15 
0.588941 -5.6144 -1.6147e-15 
0.798995 -5.62097 -2.98828e-15 
1.00863 -5.61453 -2.60887e-15 
1.23841 -5.58077 -2.69731e-15 
1.44567 -5.57841 -2.2325e-15 
1.65162 -5.51984 -2.66798e-15 
1.8502 -5.64001 -1.02419e-15 
2.05469 -5.61925 1.10507e-15 
2.26154 -5.54899 1.24876e-15 
2.47984 -5.65391 -1.60481e-15 
2.69455 -5.67793 1.21007e-15 
2.91823 -5.58091 2.36129e-15 
3.14832 -5.65085 1.96804e-15 
3.35208 -5.52801 6.67825e-16 
3.59421 -5.6358 2.38222e-15 
3.82237 -5.67228 1.20395e-16 
4.03635 -5.58809 1.63983e-15 
4.22493 -5.6701 5.45952e-12 
-4.57822 -5.38887 1.38671e-11 
-4.34415 -5.32028 -1.23234e-16 
-4.16163 -5.51737 -1.49237e-15 
-3.93016 -5.42607 5.65906e-17 
-3.72271 -5.34775 -9.44643e-16 
-3.4958 -5.41128 -1.05391e-15 
-3.26715 -5.36336 -2.37728e-15 
-3.05152 -5.4289 7.41067e-16 
-2.83873 -5.34775 -3.72325e-15 
-2.63489 -5.41522 3.1108e-15 
-2.41969 -5.31944 -1.44853e-15 
-2.19259 -5.3495 -5.2666e-16 
-1.99025 -5.3989 2.11656e-15 
-1.77942 -5.44939 1.60233e-15 
-1.54337 -5.32259 -6.44415e-17 
-1.32551 -5.35759 6.631e-16 
-1.11725 -5.36627 -1.93217e-15 
-0.917017 -5.41509 -1.07783e-15 
-0.723935 -5.37983 -1.08576e-15 
-0.52463 -5.41619 1.56839e-15 
-0.318812 -5.38664 -8.07678e-16 
-0.103268 -5.3949 9.40553e-16 
0.113267 -5.41222 2.32425e-15 
0.317992 -5.40866 -2.30977e-15 
0.531406 -5.39581 1.1683e-15 
0.746875 -5.39414 1.81522e-15 
0.951583 -5.39261 1.09821e-15 
1.16022 -5.39422 1.28308e-15 
1.39258 -5.35583 9.69618e-18 
1.59026 -5.3133 9.66493e-16 
1.83993 -5.40262 -1.94562e-15 
2.0442 -5.39445 3.84412e-15 
2.26313 -5.33892 3.04493e-15 
2.48247 -5.43819 1.91804e-15 
2.70492 -5.45586 -2.21335e-16 
2.90749 -5.35201 8.9342e-16 
3.11971 -5.4298 -7.81529e-16 
3.32812 -5.31084 2.83063e-15 
3.56635 -5.42256 4.18445e-15 
3.79768 -5.45046 -2.91749e-15 
4.02632 -5.37523 4.03229e-15 
4.25843 -5.42176 -8.45913e-17 
4.44806 -5.49679 2.15393e-12 
-4.79486 -5.19705 -1.48989e-13 
-4.56525 -5.17461 -5.30478e-17 
-4.34453 -5.09654 2.84764e-17 
-4.12244 -5.28869 1.05892e-15 
-3.9095 -5.18499 -2.01847e-15 
-3.68352 -5.12105 1.46197e-15 
-3.48572 -5.19564 3.22247e-15 
-3.27015 -5.14022 2.98866e-15 
-3.0564 -5.2026 1.46214e-15 
-2.83606 -5.13237 -2.91538e-15 
-2.61754 -5.18566 1.10346e-15 
-2.37376 -5.11872 -1.83114e-15 
-2.15851 -5.13419 -5.17714e-16 
-1.94923 -5.17537 1.41523e-15 
-1.75084 -5.23402 2.79627e-15 
-1.56189 -5.0971 2.1365e-16 
-1.35444 -5.14524 3.55093e-17 
-1.1391 -5.14773 -2.43246e-16 
-0.927822 -5.18072 1.91467e-16 
-0.713953 -5.16351 1.08034e-15 
-0.506619 -5.18711 -4.24402e-16 
-0.28786 -5.17351 -9.83955e-16 
-0.0689206 -5.18412 1.26825e-15 
0.136223 -5.18493 -1.87881e-15 
0.347019 -5.18938 -2.43524e-16 
0.56644 -5.18267 9.89299e-16 
0.773367 -5.16909 -5.00322e-16 
0.984053 -5.17506 2.36076e-16 
1.20617 -5.19398 -1.16968e-15 
1.41001 -5.12431 -8.73595e-16 
1.69049 -5.16646 1.1674e-15 
1.89438 -5.17709 -2.72871e-15 
2.1026 -5.17128 -3.13881e-15 
2.29117 -5.0832 -9.48905e-18 
2.4529 -5.21216 2.93529e-15 
2.66319 -5.24184 -1.28189e-15 
2.86958 -5.14674 -1.75101e-15 
3.11156 -5.20226 2.27764e-15 
3.33856 -5.09618 1.14853e-15 
3.55886 -5.21734 1.43946e-15 
3.79665 -5.23562 1.05784e-17 
4.00934 -5.15169 -2.18094e-15 
4.23282 -5.20262 -1.92829e-15 
4.46298 -5.24226 -3.55346e-16 
4.65363 -5.32388 -1.108e-11 
4.79576 -5.19622 9.4112e-12 
-4.9954 -5.0046 -7.01653e-12 
-4.76496 -4.98055 8.69228e-17 
-4.54508 -4.948 2.86713e-15 
-4.32122 -4.8664 -1.33333e-15 
-4.12965 -5.06173 -4.43081e-15 
-3.90398 -4.96949 1.21614e-15 
-3.67308 -4.91273 -1.94895e-15 
-3.44784 -4.96265 -2.23078e-15 
-3.23525 -4.91085 -9.70027e-16 
-3.04006 -4.98294 2.10114e-15 
-2.85036 -4.89353 -7.40534e-16 
-2.65204 -4.96426 2.3206e-15 
-2.44386 -4.94497 8.5093e-16 
-2.19457 -4.91952 -2.18088e-15 
-1.97471 -4.95027 7.86605e-16 
-1.7645 -4.99818 1.05506e-15 
[...]
POINT_DATA 3402 
VECTORS vectors float
-5.59125e-05 -4.70874e-05 1 
-1.17553e-05 -3.79981e-05 1 
-5.07143e-05 -3.2889e-05 1 
-9.36761e-05 -6.99323e-06 1 
-9.02333e-05 -2.45392e-06 1 
-7.34725e-06 -2.59673e-05 1 
-9.61575e-05 3.22515e-06 1 
-2.14804e-05 -3.75594e-06 1 
-7.43307e-05 -4.72452e-06 1 
-5.72726e-05 2.01138e-05 1 
7.73726e-06 4.37498e-06 1 
-6.0393e-05 3.71236e-05 1 
-6.16434e-05 5.00524e-06 1 
-7.216e-05 2.81062e-05 1 
-2.86635e-05 2.54004e-05 1 
-0.000157721 -1.94618e-05 1 
-7.73834e-05 -4.02473e-05 1 
-8.38527e-05 -2.04056e-05 1 
-2.38128e-05 -5.46005e-05 1 
-9.35891e-05 -1.63393e-05 1 
0.124771 -0.0294667 0.991748 
0.132858 -0.0266007 0.990778 
0.127984 -0.0217572 0.991538 
0.12184 -0.0161875 0.992418 
0.135363 -0.0137209 0.990701 
0.130412 -0.00914854 0.991418 
0.135347 -0.00526576 0.990784 
0.134523 -0.00129166 0.99091 
0.131864 0.00323104 0.991263 
0.139727 0.00811705 0.990157 
0.135216 0.0118511 0.990745 
0.134764 0.0159643 0.990749 
0.127315 0.0192943 0.991675 
0.13045 0.0240106 0.991164 
0.12146 0.0262093 0.99225 
0.11355 0.0292632 0.993101 
-3.69751e-05 4.50027e-05 1 
-1.66705e-05 3.61454e-05 1 
-0.000169936 -9.8112e-06 1 
-9.83776e-05 -2.33738e-05 1 
-5.23444e-05 -2.61166e-05 1 
0.114344 -0.0433524 0.992495 
0.119257 -0.0404338 0.99204 
0.124402 -0.0375569 0.991521 
0.125757 -0.0339481 0.99148 
0.160695 -0.0385423 0.986251 
0.162115 -0.0335859 0.9862 
0.161893 -0.0281756 0.986406 
0.1628 -0.0232757 0.986384 
0.162132 -0.0180836 0.986603 
0.162404 -0.0128695 0.98664 
0.160536 -0.00740618 0.987002 
0.160632 -0.00218156 0.987012 
0.161355 0.00328024 0.986891 
0.160482 0.00873563 0.987 
0.160956 0.0144237 0.986856 
0.160368 0.019941 0.986856 
0.161654 0.0256495 0.986514 
0.160609 0.0311137 0.986528 
0.160458 0.0365171 0.986367 
0.159869 0.0417231 0.986256 
0.133891 0.0384753 0.990249 
0.115901 0.0370173 0.992571 
0.117133 0.0428727 0.99219 
1.70195e-05 8.84137e-05 1 
-1.97042e-05 7.08953e-05 1 
-0.000146477 -5.2489e-05 1 
-6.55337e-05 -3.34863e-05 1 
-7.07267e-05 -1.21481e-05 1 
0.102425 -0.0470191 0.993629 
0.119313 -0.0498107 0.991606 
0.154864 -0.0587062 0.98619 
0.157071 -0.0537934 0.986121 
0.15871 -0.0486659 0.986125 
0.160057 -0.0435523 0.986147 
0.146426 -0.0363731 0.988553 
0.145711 -0.0312684 0.988833 
0.146579 -0.0267165 0.988838 
0.147827 -0.0217684 0.988774 
0.144894 -0.0166791 0.989307 
0.145429 -0.012162 0.989294 
0.143721 -0.00718879 0.989592 
0.141932 -0.00219534 0.989874 
0.144651 0.00289416 0.989479 
0.143578 0.00807701 0.989606 
0.143235 0.0132345 0.9896 
0.14461 0.0181027 0.989323 
0.145991 0.0228659 0.989022 
0.144818 0.0277037 0.98907 
0.147466 0.0331114 0.988513 
0.146715 0.0381742 0.988442 
0.158146 0.0470884 0.986292 
0.156185 0.0516013 0.986379 
0.154639 0.0566216 0.986347 
0.131969 0.0519856 0.98989 
0.105641 0.0448715 0.993391 
0.0966718 0.0460763 0.994249 
-9.16636e-05 -6.63561e-06 1 
-1.69612e-05 6.15779e-05 1 
-6.73593e-05 -2.84816e-05 1 
-9.67442e-05 1.03262e-05 1 
0.0965573 -0.0525501 0.993939 
0.119252 -0.0599619 0.991052 
0.149002 -0.0691347 0.986417 
0.152978 -0.0649152 0.986095 
0.144524 -0.0577351 0.987815 
0.144608 -0.0517843 0.988133 
0.144381 -0.0462769 0.98844 
0.145294 -0.0413027 0.988526 
0.132065 -0.0335142 0.990674 
0.1313 -0.028773 0.990925 
0.132066 -0.0243574 0.990942 
0.131694 -0.0201031 0.991087 
0.131119 -0.0160382 0.991237 
0.130979 -0.0114258 0.991319 
0.129251 -0.00660888 0.99159 
0.128643 -0.00185933 0.991689 
0.129279 0.00293013 0.991604 
0.129839 0.00764605 0.991506 
0.128989 0.0122618 0.99157 
0.130788 0.0169791 0.991265 
0.130717 0.0213677 0.991189 
0.129876 0.0257363 0.991196 
0.131924 0.0303849 0.990794 
0.130634 0.0347578 0.990821 
0.141426 0.0421686 0.98905 
0.143285 0.0482939 0.988502 
0.143107 0.0543098 0.988216 
0.153549 0.0628947 0.986137 
0.148542 0.0663747 0.986676 
0.145788 0.0716455 0.986718 
0.105463 0.0555432 0.992871 
0.10674 0.0606893 0.992433 
-0.0001305 -3.71022e-05 1 
-6.27336e-05 -1.75748e-05 1 
0.0938181 -0.060231 0.993766 
0.111221 -0.0661609 0.991591 
0.142482 -0.0794126 0.986607 
0.147151 -0.0755134 0.986227 
0.14098 -0.0684689 0.987642 
0.139523 -0.0620791 0.988271 
0.128567 -0.0531255 0.990277 
0.12898 -0.0477936 0.990495 
0.129566 -0.0427519 0.990649 
0.131417 -0.0384124 0.990583 
0.123955 -0.0329355 0.991741 
0.124238 -0.0284602 0.991844 
0.123363 -0.0238418 0.992075 
0.124488 -0.0195449 0.992029 
0.124048 -0.0150579 0.992162 
0.124959 -0.010933 0.992102 
0.122626 -0.00642424 0.992432 
0.121685 -0.00183583 0.992567 
0.123307 0.00265902 0.992365 
0.122041 0.00726692 0.992499 
0.122661 0.0116422 0.99238 
0.12326 0.0161492 0.992243 
0.122737 0.0205376 0.992227 
0.122132 0.0249485 0.9922 
0.122977 0.0296421 0.991967 
0.122004 0.0342111 0.99194 
0.128346 0.0399844 0.990923 
0.128605 0.0450562 0.990672 
0.126818 0.0499662 0.990667 
0.138714 0.0586679 0.988593 
0.144348 0.0661134 0.987316 
0.143337 0.0716245 0.987079 
0.144935 0.0777508 0.986382 
0.141853 0.0830533 0.986397 
0.0913283 0.0565887 0.994212 
-5.47946e-05 3.71907e-05 1 
-4.10107e-05 5.02141e-05 1 
-7.37334e-05 3.22323e-05 1 
-7.85171e-05 2.33329e-05 1 
0.102226 -0.0708857 0.992232 
0.13598 -0.0897316 0.98664 
0.140072 -0.0860982 0.986391 
0.137298 -0.0807768 0.987231 
0.135497 -0.0734694 0.98805 
0.124618 -0.0631036 0.990196 
0.123544 -0.0568846 0.990707 
0.118176 -0.0504513 0.99171 
0.119664 -0.0458496 0.991755 
0.120948 -0.0413502 0.991797 
0.122467 -0.0372472 0.991773 
0.116061 -0.032922 0.992696 
0.116548 -0.0286593 0.992771 
0.112587 -0.0233557 0.993367 
0.115284 -0.0190543 0.99315 
0.11199 -0.0141799 0.993608 
0.112052 -0.00952628 0.993657 
0.108391 -0.00504864 0.994096 
0.107948 -0.000729819 0.994156 
0.111334 0.0035034 0.993777 
0.110398 0.00764222 0.993858 
0.111128 0.011797 0.993736 
0.112875 0.0162988 0.993475 
0.113993 0.0206398 0.993267 
0.112983 0.0251744 0.993278 
0.115575 0.0300013 0.992846 
0.113756 0.0340954 0.992923 
0.118467 0.0384382 0.992214 
0.120819 0.0439526 0.991701 
0.118672 0.0481319 0.991766 
0.124024 0.054264 0.990794 
0.127651 0.0600813 0.989998 
0.125979 0.0651599 0.989891 
0.137733 0.0760162 0.987548 
0.134974 0.080893 0.987542 
0.138502 0.0875667 0.986483 
0.110144 0.0734244 0.9912 
0.0887987 0.0634652 0.994026 
-8.59e-05 -4.21846e-05 1 
-3.50595e-05 -2.98324e-05 1 
0.0936522 -0.0766739 0.992648 
0.077767 -0.0585385 0.995251 
0.130608 -0.0949216 0.98688 
0.133837 -0.0931488 0.986616 
0.12967 -0.0835693 0.988029 
0.119553 -0.072479 0.990179 
0.119513 -0.0668755 0.990578 
0.114221 -0.0601979 0.99163 
0.114866 -0.0555177 0.991828 
0.110516 -0.0500156 0.992615 
0.110254 -0.0448273 0.992892 
0.111714 -0.0407634 0.992904 
0.112501 -0.0364129 0.992984 
0.0966877 -0.0281983 0.994915 
0.0946559 -0.0236178 0.99523 
0.090449 -0.0189904 0.99572 
0.0929573 -0.0158217 0.995544 
0.0850693 -0.0113201 0.996311 
0.0884761 -0.00847706 0.996042 
0.0801466 -0.00459407 0.996772 
0.0799753 -0.00131296 0.996796 
0.0831842 0.0019952 0.996532 
0.0837912 0.0051067 0.99647 
0.0839005 0.00844503 0.996438 
0.0876234 0.0122717 0.996078 
0.0908964 0.0161676 0.995729 
0.0941241 0.0203747 0.995352 
0.0958087 0.025016 0.995085 
0.0958357 0.0287169 0.994983 
0.108085 0.0367749 0.993461 
0.110807 0.0417054 0.992967 
0.110109 0.0464299 0.992834 
0.114996 0.0521222 0.991998 
0.118223 0.0580941 0.991286 
0.115652 0.062246 0.991337 
0.12144 0.068995 0.990198 
0.118251 0.0730768 0.990291 
0.134124 0.0872463 0.987116 
0.134426 0.0933635 0.986515 
0.127121 0.0950487 0.987323 
0.0824374 0.0652854 0.994456 
-0.000116475 -9.47935e-05 1 
-6.97753e-05 2.70542e-05 1 
0.0791254 -0.0696974 0.994425 
0.121268 -0.103905 0.987167 
0.126171 -0.0985527 0.987101 
0.127722 -0.0964247 0.987112 
0.115213 -0.0827915 0.989885 
0.114616 -0.0767302 0.990442 
0.109955 -0.0697196 0.991488 
0.110174 -0.0645534 0.991814 
0.106001 -0.0584077 0.992649 
0.105368 -0.0532564 0.993006 
0.0987374 -0.0461317 0.994044 
0.0950537 -0.0403069 0.994656 
0.0923058 -0.0350539 0.995113 
0.0924959 -0.0311428 0.995226 
0.0661724 -0.0205114 0.997597 
0.0655117 -0.0173854 0.9977 
0.0596316 -0.0132828 0.998132 
0.0580082 -0.0104015 0.998262 
0.0523 -0.00711192 0.998606 
0.0531919 -0.0051452 0.998571 
0.0469562 -0.0025568 0.998894 
0.0485346 -0.000498915 0.998821 
0.0486123 0.00137856 0.998817 
0.050809 0.00349452 0.998702 
0.0521357 0.00579726 0.998623 
0.0545649 0.00823226 0.998476 
0.0591538 0.0113321 0.998185 
0.068414 0.0160189 0.997528 
0.0632292 0.0174621 0.997846 
0.0799349 0.0261748 0.996456 
0.088563 0.0327085 0.995533 
0.0961664 0.0393451 0.994587 
0.0935211 0.0426115 0.994705 
0.106302 0.0498478 0.993084 
0.110178 0.0556718 0.992351 
0.108001 0.0598872 0.992345 
0.111718 0.0661807 0.991534 
0.108982 0.0708539 0.991515 
0.117727 0.0795549 0.989854 
0.127577 0.0925012 0.987506 
0.129245 0.100772 0.986479 
0.124179 0.101239 0.987082 
0.084392 0.0727064 0.993777 
1.43365e-05 0.000169092 1 
-2.09773e-05 9.85488e-05 1 
-3.01449e-05 2.6054e-06 1 
0.0796491 -0.0759695 0.993924 
0.116889 -0.107503 0.98731 
0.121444 -0.108091 0.986695 
0.128126 -0.10479 0.986206 
0.112554 -0.0883738 0.989708 
0.105562 -0.0786939 0.991294 
0.10483 -0.0725478 0.99184 
0.101323 -0.0665864 0.992623 
0.101738 -0.0620701 0.992873 
0.0949166 -0.0555199 0.993936 
0.0944992 -0.051012 0.994217 
0.0860161 -0.0431512 0.995359 
0.0710045 -0.0322558 0.996954 
0.0632462 -0.0257592 0.997665 
0.0612614 -0.0220338 0.997879 
0.0376321 -0.011995 0.99922 
0.0360113 -0.00974125 0.999304 
0.031198 -0.00708216 0.999488 
0.0300589 -0.00546915 0.999533 
0.0241711 -0.0034329 0.999702 
0.0242978 -0.00246354 0.999702 
0.0227677 -0.00137132 0.99974 
0.0235478 -0.000369921 0.999723 
0.0221715 0.000635619 0.999754 
0.0240454 0.00166201 0.999709 
0.0260002 0.00288767 0.999658 
0.0264594 0.00416704 0.999641 
0.0310512 0.00613108 0.999499 
0.038303 0.00913811 0.999224 
0.0344774 0.00977683 0.999358 
0.0505905 0.0162898 0.998587 
0.0578584 0.0214923 0.998093 
0.0675425 0.0281104 0.99732 
0.0669613 0.0311829 0.997268 
0.0862019 0.0437342 0.995317 
0.0989405 0.0519847 0.993735 
0.0980852 0.056667 0.993563 
0.103831 0.0638478 0.992544 
0.100531 0.0673043 0.992655 
0.106505 0.0751333 0.991469 
0.110718 0.0822685 0.990441 
0.109927 0.0873474 0.990094 
0.120595 0.100808 0.98757 
0.123952 0.107844 0.986411 
0.106787 0.0968846 0.98955 
0.0748485 0.071134 0.994655 
-8.31821e-05 -0.000131866 1 
-5.72895e-05 4.88834e-05 1 
0.0695214 -0.0720562 0.994975 
0.111376 -0.111244 0.987532 
0.119245 -0.114355 0.986257 
0.107386 -0.0993234 0.989244 
0.11145 -0.0945706 0.98926 
0.102301 -0.0830179 0.991283 
0.0976537 -0.076485 0.992277 
0.0974978 -0.0712358 0.992683 
0.0927104 -0.0645931 0.993596 
0.0890022 -0.0574216 0.994375 
0.0755647 -0.0460752 0.996076 
0.0712626 -0.0399185 0.996658 
0.0600461 -0.0307274 0.997723 
0.0431533 -0.0201636 0.998865 
0.0350871 -0.0147996 0.999275 
0.0328202 -0.0121728 0.999387 
0.0166413 -0.00561477 0.999846 
0.0160117 -0.00462338 0.999861 
0.012993 -0.00316437 0.999911 
0.0118499 -0.00233347 0.999927 
0.00887295 -0.00135248 0.99996 
0.00798507 -0.000832025 0.999968 
0.00889026 -0.000483864 0.99996 
0.00866579 -8.70972e-05 0.999962 
0.007534 0.000260583 0.999972 
0.00873843 0.000688675 0.999962 
0.0100959 0.00125693 0.999948 
0.00982881 0.00166324 0.99995 
0.0127312 0.00271356 0.999915 
0.0177174 0.00447231 0.999833 
0.0169668 0.00521811 0.999842 
0.0289299 0.0100355 0.999531 
0.0333245 0.0132026 0.999357 
0.0383728 0.0168839 0.999121 
0.0507264 0.0254065 0.998389 
0.0625537 0.0339646 0.997464 
0.0807619 0.0462678 0.995659 
0.0772768 0.048292 0.995839 
0.0930677 0.0593315 0.99389 
0.0905745 0.0626635 0.993916 
0.0977479 0.0707482 0.992693 
0.100275 0.0770921 0.991969 
0.0999013 0.0823719 0.991582 
0.10502 0.0909353 0.990304 
0.116743 0.106089 0.98748 
0.118115 0.112679 0.986586 
0.107645 0.108683 0.988231 
0.0650047 0.0695358 0.995459 
-5.59538e-05 -2.4504e-05 1 
-4.42245e-05 8.27611e-06 1 
0.0690948 -0.0783842 0.994526 
0.105891 -0.114894 0.987718 
0.114596 -0.119431 0.986207 
0.10655 -0.106485 0.988589 
0.0952263 -0.0916549 0.991227 
0.0996955 -0.0875699 0.991157 
0.0948672 -0.0811578 0.992176 
0.089602 -0.0733597 0.993272 
0.0870919 -0.0664968 0.993978 
0.0779037 -0.0555144 0.995414 
0.0667946 -0.044738 0.996763 
0.0484742 -0.0302985 0.998365 
0.0446596 -0.0256072 0.998674 
0.034319 -0.0179838 0.999249 
0.0206719 -0.0100773 0.999736 
0.0142891 -0.0063953 0.999877 
0.0143895 -0.00570548 0.99988 
0.00613433 -0.002283 0.999979 
0.00527406 -0.00168315 0.999985 
0.00382566 -0.00104438 0.999992 
0.00323522 -0.000715663 0.999995 
0.00207787 -0.000379301 0.999998 
0.00189009 -0.000227614 0.999998 
0.00224021 -0.000127013 0.999997 
0.00206877 -2.83009e-06 0.999998 
0.00169612 9.09989e-05 0.999999 
0.00225533 0.000237356 0.999997 
0.00257218 0.000395435 0.999997 
0.00270612 0.00056311 0.999996 
0.00422577 0.0010416 0.999991 
0.00690466 0.0019299 0.999974 
0.0043627 0.00146003 0.999989 
0.0104692 0.00373827 0.999938 
0.0147238 0.00588568 0.999874 
0.0166274 0.00759303 0.999833 
0.0282513 0.0140502 0.999502 
0.034202 0.0190504 0.999233 
0.050406 0.0302829 0.99827 
0.0509494 0.0334663 0.99814 
0.0710703 0.0489575 0.996269 
0.0889118 0.0666791 0.993805 
0.0925436 0.0736404 0.992982 
0.0923871 0.0790427 0.992581 
0.0963776 0.0861678 0.991608 
0.100444 0.0942332 0.99047 
0.109766 0.10833 0.988037 
0.114664 0.118876 0.986266 
0.107354 0.117908 0.987205 
0.0774251 0.089277 0.992993 
1.54525e-05 0.000155115 1 
-4.2469e-05 -3.97858e-05 1 
0.0733945 -0.0901046 0.993224 
0.103757 -0.121818 0.987114 
0.110165 -0.123558 0.986203 
0.100113 -0.108004 0.989097 
0.0921724 -0.0953638 0.991166 
0.0872442 -0.0880256 0.99229 
0.0935018 -0.0866648 0.99184 
0.0873273 -0.0806359 0.992911 
0.0837289 -0.0735987 0.993767 
0.0742013 -0.0611503 0.995367 
0.0674912 -0.0518464 0.996372 
0.0488124 -0.0354581 0.998178 
0.0370881 -0.0251587 0.998995 
0.023686 -0.0147584 0.999611 
0.0201633 -0.0115304 0.99973 
0.0116724 -0.00622902 0.999912 
0.00578467 -0.0028999 0.999979 
0.00422041 -0.00192089 0.999989 
0.00223175 -0.000988664 0.999997 
0.00128177 -0.000543227 0.999999 
0.000668911 -0.000319836 1 
0.000408902 -0.000209005 1 
9.47482e-05 -0.00012302 1 
2.2169e-05 -8.09605e-05 1 
5.81983e-05 -4.74601e-05 1 
8.71842e-05 -1.48603e-05 1 
2.39867e-05 1.07495e-05 1 
9.72295e-05 4.38902e-05 1 
0.000121621 7.54783e-05 1 
0.000267492 0.000128821 1 
0.000622517 0.000232925 1 
0.00126228 0.000429664 0.999999 
0.000815275 0.000355515 1 
0.00314531 0.0012616 0.999994 
0.00526526 0.00230598 0.999983 
0.00645868 0.00318172 0.999974 
0.0141351 0.00741857 0.999873 
0.0151734 0.00880782 0.999846 
0.026587 0.0165143 0.99951 
0.0299393 0.0205133 0.999341 
0.0476756 0.0346817 0.998261 
0.0724463 0.0541074 0.995904 
0.0785088 0.0635437 0.994886 
0.0825383 0.0710679 0.994051 
0.0870437 0.0802117 0.99297 
0.0925409 0.0889068 0.991732 
0.095242 0.0964976 0.990766 
0.0994752 0.105902 0.989388 
0.107606 0.120127 0.98691 
0.104857 0.123744 0.986759 
0.08119 0.0990107 0.991769 
-7.91468e-05 -6.76231e-05 1 
-4.84561e-05 2.58303e-06 1 
0.0702975 -0.0927308 0.993207 
0.100432 -0.127574 0.986731 
0.102275 -0.124642 0.986917 
0.094162 -0.109856 0.989477 
0.0877467 -0.098291 0.991282 
0.0843311 -0.0913787 0.992239 
0.0809117 -0.0801927 0.99349 
0.07137 -0.067836 0.99514 
0.0661877 -0.0588019 0.996073 
0.0488566 -0.0406288 0.997979 
0.0373689 -0.0293355 0.998871 
0.0229649 -0.0169396 0.999593 
0.0165966 -0.0113129 0.999798 
0.00853802 -0.00542483 0.999949 
0.00574372 -0.00339987 0.999978 
0.00257715 -0.00144687 0.999996 
0.00116147 -0.000647041 0.999999 
0.000203942 -0.000187502 1 
0.000143195 -0.000168443 1 
-0.000142402 -6.73946e-05 1 
-0.000231261 -6.441e-05 1 
-0.000268552 -6.63144e-05 1 
-0.000258952 -6.98042e-05 1 
-0.000236714 -6.08246e-05 1 
-0.000220797 -3.93877e-05 1 
-0.000211948 -1.9015e-05 1 
-0.000212469 9.68973e-06 1 
-0.000206186 3.10441e-05 1 
-0.000220854 4.55352e-05 1 
-0.000224829 5.49196e-05 1 
-0.000248547 4.02315e-05 1 
-8.29587e-05 7.90429e-05 1 
-0.000174215 3.22145e-05 1 
0.000458611 0.000259953 1 
0.00124375 0.000617727 0.999999 
0.00144607 0.00077695 0.999999 
0.00468442 0.00261865 0.999986 
0.0061261 0.00380412 0.999974 
0.0133294 0.00881255 0.999872 
0.0183612 0.0134454 0.999741 
0.0313575 0.0242718 0.999213 
0.0551081 0.0438447 0.997517 
0.0558399 0.0481013 0.99728 
0.0723775 0.0660716 0.995186 
0.0805704 0.0783221 0.993667 
0.08646 0.0877691 0.992382 
0.0877355 0.0937877 0.991719 
0.0886383 0.0993846 0.991093 
0.0950789 0.110951 0.989267 
0.0997927 0.122476 0.987442 
0.100141 0.127621 0.986755 
0.0582859 0.076123 0.995393 
-7.45394e-05 -8.44185e-05 1 
-6.89764e-05 6.30253e-05 1 
0.064315 -0.0920253 0.993677 
0.0950007 -0.131057 0.986813 
0.0972604 -0.129115 0.986848 
0.0880147 -0.112196 0.98978 
0.0838973 -0.102091 0.991231 
0.0804301 -0.0949864 0.992224 
0.0760683 -0.0869578 0.993304 
0.0767606 -0.0821721 0.993658 
0.0652993 -0.0669089 0.99562 
0.0481514 -0.0464638 0.997759 
0.0407094 -0.0365609 0.998502 
0.0233948 -0.0200428 0.999525 
0.0159053 -0.0127872 0.999792 
0.00876398 -0.00658436 0.99994 
0.00528244 -0.00370546 0.999979 
0.00181464 -0.00124331 0.999998 
0.000962794 -0.00063368 0.999999 
0.000218166 -0.000186245 1 
-0.000157457 -3.39803e-06 1 
-0.000219182 -7.84982e-06 1 
-0.000228596 -1.2736e-05 1 
-0.000186713 -4.51481e-05 1 
-0.00013216 -7.57447e-05 1 
-0.000101021 -9.55594e-05 1 
-6.24148e-05 -9.18786e-05 1 
-5.4628e-05 -6.7546e-05 1 
-5.90027e-05 -3.67248e-05 1 
-7.32375e-05 9.98202e-07 1 
-6.15004e-05 3.2482e-05 1 
-7.11351e-05 7.09286e-05 1 
-0.000112842 7.80952e-05 1 
-0.000172342 7.05873e-05 1 
-0.000237888 3.64093e-05 1 
-0.000199422 2.09705e-05 1 
-0.000253924 -2.42288e-05 1 
-0.00010061 7.982e-06 1 
4.69388e-05 5.45058e-05 1 
0.00116783 0.000723696 0.999999 
0.00111157 0.000771718 0.999999 
0.00389285 0.0027066 0.999989 
0.00767209 0.00565848 0.999955 
0.0144029 0.0116375 0.999829 
0.030188 0.0255141 0.999219 
0.0431116 0.0396659 0.998283 
0.060401 0.0586931 0.996447 
0.0664821 0.0686314 0.995424 
0.0777128 0.0816777 0.993624 
0.0806079 0.0892587 0.992741 
0.0826081 0.0965014 0.991899 
0.0830183 0.101286 0.991387 
0.0858069 0.109696 0.990254 
0.0962355 0.126279 0.987316 
0.0954222 0.130237 0.98688 
0.070448 0.100373 0.992453 
1.31373e-05 0.000151453 1 
-3.80422e-05 -5.25936e-05 1 
0.0596559 -0.0937047 0.993811 
0.0902681 -0.13548 0.986659 
0.091999 -0.133066 0.986828 
0.0829869 -0.115488 0.989836 
0.0787675 -0.105165 0.99133 
0.0768814 -0.0986298 0.99215 
0.0727774 -0.090126 0.993268 
0.0645141 -0.075889 0.995027 
0.0615855 -0.067591 0.995811 
0.0413283 -0.0430039 0.99822 
0.0250293 -0.0242293 0.999393 
0.0158783 -0.0146146 0.999767 
0.00769591 -0.00668663 0.999948 
0.00464163 -0.00379105 0.999982 
0.00202259 -0.00157653 0.999997 
0.000561353 -0.000460311 1 
-2.28146e-05 -3.88699e-05 1 
-0.000131936 1.39369e-05 1 
-0.000177674 2.53762e-05 1 
-0.000138795 -2.12961e-05 1 
-2.6267e-05 -7.10022e-05 1 
-1.82249e-05 -9.28313e-05 1 
1.29276e-05 -8.90999e-05 1 
-6.10879e-05 -7.75436e-05 1 
-0.000144498 -6.73591e-05 1 
-0.000436637 -2.38162e-05 1 
-0.000831113 1.37778e-05 1 
-0.00083995 -1.56246e-05 1 
-0.000671874 -1.56034e-05 1 
-0.000426145 1.65006e-05 1 
-0.000441918 7.96976e-06 1 
-2.23661e-05 9.92792e-05 1 
-6.68356e-05 9.48682e-05 1 
-2.2547e-05 0.000108196 1 
2.51414e-06 0.000101462 1 
-0.000181015 -1.5062e-05 1 
-0.000238717 -8.24678e-05 1 
-0.00023246 -0.000106878 1 
-0.000114613 -4.13147e-05 1 
9.25152e-05 0.000106557 1 
0.0013047 0.00102075 0.999999 
0.00439573 0.00352258 0.999984 
0.00823482 0.00719692 0.99994 
0.0194528 0.0175886 0.999656 
0.021605 0.0210117 0.999546 
0.0372003 0.0376144 0.9986 
0.0499368 0.0540114 0.997291 
0.0680372 0.0766226 0.994736 
0.0728392 0.0866802 0.99357 
0.0758385 0.0953309 0.992553 
0.0763864 0.101284 0.991921 
0.0808595 0.111549 0.990464 
0.0920712 0.129833 0.987252 
0.0911466 0.135588 0.986564 
0.0674994 0.103738 0.992312 
-8.73488e-05 -4.15922e-05 1 
-2.13616e-05 -0.000104203 1 
0.0659585 -0.111776 0.991542 