# vtk DataFile Version 3.0 
Exported using Morpho https://github.com/Morpho-lang/morpho 
ASCII 
DATASET UNSTRUCTURED_GRID 

POINTS 3402 float 
-1.58829 -6.89038 -5.76808e-12 
-1.38781 -6.93354 -2.2563e-12 
-1.18471 -6.97112 -1.26552e-11 
-0.969682 -7.00426 8.9402e-11 
-0.727884 -7.0335 -6.80901e-11 
-0.524072 -7.05162 1.1924e-10 
-0.302825 -7.06458 1.77529e-11 
-0.0938203 -7.07045 1.62801e-11 
0.116032 -7.07012 -1.20888e-11 
0.335681 -7.0631 -1.68803e-11 
0.531494 -7.05106 5.70787e-11 
0.737557 -7.0325 -3.47687e-11 
0.943392 -7.00785 2.71274e-11 
1.16545 -6.97436 -1.34201e-10 
1.37825 -6.93545 3.27191e-11 
1.61002 -6.88533 -1.57157e-11 
-2.43412 -6.63891 -1.94226e-11 
-2.22245 -6.71273 8.88226e-11 
-2.01202 -6.77877 -1.00178e-11 
-1.80466 -6.8369 6.04648e-11 
-1.56824 -6.66843 -6.24898e-14 
-1.34266 -6.69659 -4.03337e-13 
-1.13152 -6.74206 -9.09325e-14 
-0.90009 -6.80134 4.22798e-13 
-0.680658 -6.79264 -6.5306e-13 
-0.461257 -6.82614 9.62672e-14 
-0.251193 -6.81856 6.35729e-16 
-0.0418872 -6.82092 -2.01472e-14 
0.174496 -6.83425 -5.61043e-14 
0.380156 -6.80223 -1.46764e-13 
0.584958 -6.79817 -1.7771e-15 
0.790658 -6.77859 1.26884e-13 
1.00898 -6.76839 4.40414e-14 
1.2269 -6.72188 -3.34168e-14 
1.44841 -6.70018 1.51792e-13 
1.68699 -6.65954 1.12309e-13 
1.85604 -6.82313 -9.10658e-11 
2.04904 -6.76768 1.2562e-10 
2.2816 -6.69285 -7.73357e-11 
-2.85683 -6.46827 5.91639e-11 
-2.65452 -6.55389 1.65664e-11 
-2.44475 -6.41641 8.98776e-14 
-2.21668 -6.48209 1.44281e-13 
-1.99869 -6.54674 1.20948e-13 
-1.78158 -6.60449 3.39939e-13 
-1.54043 -6.4398 1.05629e-13 
-1.33051 -6.47402 3.89048e-13 
-1.1135 -6.50361 4.94829e-13 
-0.909524 -6.57418 2.89821e-14 
-0.705341 -6.54804 4.85236e-13 
-0.49226 -6.59065 -1.8623e-13 
-0.276944 -6.5729 -1.12978e-13 
-0.0687782 -6.57356 1.29312e-14 
0.144147 -6.59111 1.18172e-13 
0.357659 -6.56498 1.6522e-13 
0.571609 -6.54869 2.05464e-15 
0.789678 -6.54427 -1.47603e-13 
1.01256 -6.53594 -1.16295e-13 
1.23312 -6.48904 -2.49765e-13 
1.46696 -6.4838 -4.45162e-14 
1.67718 -6.41877 1.45371e-13 
1.88853 -6.55097 1.32488e-13 
2.10983 -6.53416 -2.30005e-13 
2.32814 -6.4497 -6.20241e-13 
2.4989 -6.61479 1.03852e-11 
2.67676 -6.54484 4.43436e-11 
2.91591 -6.44185 -1.77445e-10 
-3.28463 -6.26189 5.63897e-11 
-3.09313 -6.35866 1.03345e-11 
-2.88842 -6.24568 8.72918e-14 
-2.65383 -6.30786 5.80325e-13 
-2.39487 -6.20451 -3.40497e-13 
-2.18075 -6.269 -2.00325e-13 
-1.96253 -6.32339 -3.18815e-14 
-1.75132 -6.3784 -2.89525e-13 
-1.55018 -6.20581 6.48602e-14 
-1.3359 -6.23744 5.65506e-14 
-1.12752 -6.27016 -8.88205e-14 
-0.911586 -6.32716 -1.9027e-13 
-0.698248 -6.31011 -2.79514e-13 
-0.489047 -6.35445 1.47333e-13 
-0.281796 -6.3288 1.37759e-13 
-0.0727543 -6.32561 1.01227e-13 
0.134095 -6.35103 8.02896e-14 
0.342037 -6.32311 -1.51101e-13 
0.55169 -6.31044 -1.70228e-13 
0.764951 -6.31012 3.8283e-14 
0.980524 -6.31119 1.85723e-13 
1.18933 -6.25707 1.21988e-13 
1.4077 -6.26581 -1.53725e-14 
1.62413 -6.20291 -1.15589e-13 
1.87943 -6.30567 -6.19034e-14 
2.08495 -6.31296 -1.8485e-13 
2.27582 -6.21598 1.44688e-13 
2.51049 -6.32989 6.71517e-13 
2.73219 -6.31373 -5.05633e-13 
2.97739 -6.21451 -4.07987e-13 
3.16155 -6.32492 2.24324e-11 
3.37886 -6.21155 -1.42907e-12 
-3.71605 -6.01589 5.31749e-11 
-3.52402 -6.13036 4.11339e-12 
-3.31336 -6.03923 1.02609e-13 
-3.08103 -6.10032 3.45375e-13 
-2.82755 -6.03339 -2.21403e-14 
-2.61479 -6.10007 -4.13364e-13 
-2.41665 -5.97368 -7.03707e-14 
-2.19905 -6.03325 1.95338e-13 
-1.9849 -6.09001 2.35388e-14 
-1.76627 -6.14135 2.06268e-13 
-1.54893 -5.98145 -1.66445e-13 
-1.32944 -6.01055 -2.20092e-13 
-1.11347 -6.03283 -1.32875e-13 
-0.909824 -6.09452 -4.949e-14 
-0.703661 -6.07064 3.08294e-13 
-0.493897 -6.11319 2.42925e-14 
-0.283242 -6.08844 -2.05683e-13 
-0.0743729 -6.08355 -2.88211e-14 
0.136369 -6.10655 -1.07095e-13 
0.34638 -6.0826 -4.82209e-14 
0.561681 -6.07489 -6.68258e-14 
0.776359 -6.07714 -2.15695e-14 
0.986772 -6.0731 -1.88402e-14 
1.19504 -6.01693 -4.1456e-14 
1.40149 -6.03771 8.83131e-14 
1.61183 -5.97173 2.32993e-13 
1.82896 -6.08838 9.4622e-14 
2.05271 -6.07008 2.05775e-13 
2.27283 -5.99458 -1.5061e-13 
2.49457 -6.10785 -2.81236e-13 
2.73508 -6.10846 -1.35901e-13 
2.96306 -6.00557 5.15596e-14 
3.20299 -6.0761 -4.15153e-14 
3.41178 -5.95442 -3.79232e-13 
3.58508 -6.09485 -9.95091e-11 
-3.94277 -5.8698 -9.52301e-11 
-3.72839 -5.7913 -1.38912e-13 
-3.5038 -5.87969 3.97396e-13 
-3.26109 -5.82597 -4.72163e-13 
-3.04281 -5.89193 2.38914e-14 
-2.84753 -5.79227 -2.25101e-13 
-2.63714 -5.85871 9.95005e-14 
-2.41582 -5.7539 3.79181e-13 
-2.19503 -5.80589 -3.73322e-14 
-1.98231 -5.85919 5.32154e-15 
-1.7691 -5.91511 -1.59564e-13 
-1.5572 -5.75981 -5.17868e-14 
-1.33823 -5.78988 -9.72039e-14 
-1.11862 -5.80614 -5.13452e-14 
-0.901896 -5.85388 2.49322e-13 
-0.692327 -5.83289 -3.11512e-13 
-0.490776 -5.87721 7.26271e-14 
-0.288094 -5.84457 1.79444e-13 
-0.0846643 -5.84396 1.00095e-13 
0.125481 -5.86868 1.88478e-13 
0.342528 -5.85337 8.18606e-14 
0.554882 -5.84198 1.49814e-13 
0.765771 -5.84689 8.90152e-14 
0.978198 -5.84061 1.27517e-14 
1.19438 -5.79261 7.27396e-14 
1.41141 -5.8029 9.70704e-14 
1.63299 -5.75135 1.80783e-14 
1.84157 -5.8677 -8.49945e-14 
2.05747 -5.84517 -3.31688e-14 
2.27478 -5.77303 -1.1254e-13 
2.4923 -5.88355 1.45374e-14 
2.71261 -5.90194 -1.15359e-13 
2.92396 -5.79404 5.08462e-14 
3.16636 -5.85897 3.32014e-14 
3.39124 -5.74634 2.32947e-14 
3.6399 -5.85412 -4.77418e-13 
3.81818 -5.9516 9.07913e-11 
3.99763 -5.83257 -6.10424e-12 
-4.38635 -5.54617 -5.84934e-11 
-4.13808 -5.73378 3.53225e-11 
-3.91886 -5.63276 -4.44241e-13 
-3.68298 -5.57041 -1.35411e-13 
-3.48255 -5.66702 8.48153e-14 
-3.29341 -5.5818 8.48043e-14 
-3.08247 -5.65281 2.72164e-13 
-2.85339 -5.58071 -1.02671e-13 
-2.6204 -5.62648 1.85553e-13 
-2.39689 -5.52964 -2.48628e-13 
-2.18945 -5.58407 -1.84328e-13 
-1.97502 -5.62764 -9.846e-14 
-1.76907 -5.68502 -1.33085e-13 
-1.57186 -5.53197 1.43089e-13 
-1.36051 -5.56988 1.67701e-13 
-1.14386 -5.58671 2.33985e-13 
-0.921704 -5.6257 7.61858e-14 
-0.69953 -5.61589 1.76229e-13 
-0.477105 -5.63641 -1.44845e-13 
-0.268819 -5.60556 -8.8879e-14 
-0.0528692 -5.61645 -1.31077e-13 
0.16049 -5.64246 -1.28424e-13 
0.376814 -5.62439 -7.40967e-14 
0.590949 -5.61319 -6.25984e-14 
0.802009 -5.61955 -1.26943e-13 
1.01161 -5.61302 -1.07913e-13 
1.24159 -5.57765 -1.15677e-13 
1.44912 -5.57819 -9.92475e-14 
1.65384 -5.51879 -1.1028e-13 
1.84668 -5.6415 1.08139e-14 
2.05793 -5.62123 5.38796e-14 
2.26314 -5.54806 5.75889e-14 
2.48019 -5.65365 -7.21969e-14 
2.69402 -5.67819 5.67032e-14 
2.91718 -5.58087 9.82712e-14 
3.14744 -5.64985 -1.90909e-14 
3.3521 -5.52833 3.20345e-14 
3.59424 -5.63627 1.01263e-13 
3.82239 -5.67116 5.15993e-13 
4.03612 -5.58842 9.91843e-14 
4.22493 -5.6701 -5.34497e-11 
-4.57822 -5.38887 -1.35772e-10 
-4.34376 -5.32067 -7.57126e-13 
-4.16146 -5.51796 -6.60587e-14 
-3.93068 -5.42614 3.58563e-13 
-3.7234 -5.3482 -3.77314e-14 
-3.49594 -5.41025 1.08961e-14 
-3.26736 -5.36404 -1.01243e-13 
-3.05199 -5.42829 3.25143e-14 
-2.8387 -5.34935 -1.55097e-13 
-2.6351 -5.41388 1.26319e-13 
-2.41961 -5.32004 -5.70979e-14 
-2.19207 -5.35014 5.55512e-15 
-1.98988 -5.39861 -2.06842e-14 
-1.77854 -5.44849 6.29594e-14 
-1.54318 -5.32064 1.70444e-16 
-1.32656 -5.35626 -6.71909e-15 
-1.11762 -5.36406 -7.70929e-14 
-0.917143 -5.41308 -4.13481e-14 
-0.723407 -5.37839 -4.80897e-14 
-0.524226 -5.4157 -1.48055e-14 
-0.31854 -5.38338 -3.38819e-14 
-0.102548 -5.39293 3.74422e-14 
0.114627 -5.41147 -2.25667e-14 
0.318662 -5.4074 2.21605e-14 
0.531647 -5.39362 -1.13016e-14 
0.746451 -5.39386 7.43576e-14 
0.95179 -5.39065 -1.07501e-14 
1.16005 -5.39172 5.21459e-14 
1.39347 -5.35489 4.37447e-16 
1.59016 -5.31245 4.13005e-14 
1.84034 -5.39933 1.77908e-14 
2.03741 -5.39873 1.52998e-13 
2.25789 -5.3392 1.28311e-13 
2.4825 -5.43643 7.40379e-14 
2.70407 -5.455 7.94992e-16 
2.90787 -5.35253 -9.26503e-15 
3.11991 -5.42902 -2.97327e-14 
3.32808 -5.311 1.26494e-13 
3.56619 -5.4233 1.80019e-13 
3.79731 -5.44921 -1.36251e-13 
4.02659 -5.37611 1.65534e-13 
4.25839 -5.42254 -3.51673e-13 
4.44806 -5.49679 -2.10901e-11 
-4.79486 -5.19705 1.46126e-12 
-4.56472 -5.17431 -3.32705e-13 
-4.3452 -5.09641 3.39911e-13 
-4.12279 -5.2892 -7.72581e-15 
-3.90933 -5.18539 -7.9521e-14 
-3.68428 -5.12045 5.96957e-14 
-3.48761 -5.19497 1.30579e-13 
-3.27152 -5.14156 -2.90705e-14 
-3.05644 -5.20183 6.08075e-14 
-2.83533 -5.13389 -1.23514e-13 
-2.61631 -5.18345 4.7169e-14 
-2.37219 -5.11914 1.72343e-14 
-2.1573 -5.13374 3.93469e-15 
-1.94872 -5.17428 6.15105e-14 
-1.75059 -5.23261 -2.84507e-14 
-1.56164 -5.09546 -2.17588e-15 
-1.35402 -5.14338 -4.69511e-16 
-1.13912 -5.14682 2.41383e-15 
-0.927149 -5.17903 -1.79412e-15 
-0.713331 -5.16224 -1.03302e-14 
-0.507034 -5.18634 4.13798e-15 
-0.287865 -5.17077 9.58778e-15 
-0.0690026 -5.18282 -1.20347e-14 
0.135121 -5.18305 1.83556e-14 
0.345832 -5.18781 2.5328e-15 
0.565568 -5.18047 3.84119e-14 
0.772562 -5.16974 4.79815e-15 
0.983598 -5.17311 -2.06179e-15 
1.20701 -5.19263 -4.83456e-14 
1.41063 -5.12238 -3.6128e-14 
1.69002 -5.16543 4.44791e-14 
1.89489 -5.17288 -1.16687e-13 
2.10207 -5.17238 -1.27938e-13 
2.29245 -5.08228 -2.07145e-13 
2.45042 -5.21336 1.3283e-13 
2.66392 -5.24029 -5.81477e-14 
2.87026 -5.14673 -7.30461e-14 
3.11172 -5.20099 -2.33349e-14 
3.33943 -5.09669 4.79404e-14 
3.55983 -5.21883 6.79073e-14 
3.79826 -5.23461 -3.33622e-13 
4.01179 -5.15265 -9.41149e-14 
4.23433 -5.2037 1.71728e-14 
4.46327 -5.2426 -1.68119e-12 
4.65363 -5.32388 1.08466e-10 
4.79576 -5.19622 -9.21268e-11 
-4.9954 -5.0046 6.86927e-11 
-4.76453 -4.98036 3.03444e-13 
-4.5459 -4.94637 1.14106e-13 
-4.32135 -4.86767 -4.97039e-14 
-4.12937 -5.06327 -1.76684e-13 
-3.90408 -4.96954 4.53615e-14 
-3.6719 -4.91274 -8.25894e-14 
-3.44615 -4.96195 -9.34018e-14 
-3.23376 -4.91029 -4.2468e-14 
-3.04056 -4.98259 8.63393e-14 
-2.85156 -4.89405 6.99481e-15 
-2.65258 -4.96215 1.02071e-13 
-2.44342 -4.9447 3.95808e-14 
-2.1945 -4.91856 2.01808e-14 
-1.97443 -4.94839 3.40801e-14 
[...]
POINT_DATA 3402 
VECTORS vectors float
0.000414443 -7.76192e-05 1 
0.000512447 -6.59274e-05 1 
0.000416202 -5.47673e-05 1 
0.000317855 -1.73442e-05 1 
0.000335456 -9.4372e-06 1 
0.000504898 -3.76247e-05 1 
0.000362032 -5.67867e-08 1 
0.000451494 -5.696e-06 1 
0.000385462 -4.1793e-06 1 
0.000427878 2.90228e-05 1 
0.000550491 1.41285e-05 1 
0.000415976 5.49989e-05 1 
0.000387013 1.77393e-05 1 
0.000386834 4.64859e-05 1 
0.000420886 4.00431e-05 1 
0.000181333 -1.53353e-05 1 
0.000339462 -7.00675e-05 1 
0.000328693 -4.657e-05 1 
0.000444753 -8.71958e-05 1 
0.000323508 -4.10213e-05 1 
0.124771 -0.0294667 0.991748 
0.132858 -0.0266007 0.990778 
0.127984 -0.0217572 0.991538 
0.12184 -0.0161875 0.992418 
0.135363 -0.0137209 0.990701 
0.130412 -0.00914854 0.991418 
0.135347 -0.00526576 0.990784 
0.134523 -0.00129166 0.99091 
0.131864 0.00323104 0.991263 
0.139727 0.00811705 0.990157 
0.135216 0.0118511 0.990745 
0.134764 0.0159643 0.990749 
0.127315 0.0192943 0.991675 
0.13045 0.0240106 0.991164 
0.12146 0.0262093 0.99225 
0.11355 0.0292632 0.993101 
0.000416188 6.94177e-05 1 
0.000438722 5.99355e-05 1 
0.000167297 8.74655e-06 1 
0.000263901 -4.4514e-05 1 
0.000360452 -5.11029e-05 1 
0.114344 -0.0433524 0.992495 
0.119257 -0.0404338 0.99204 
0.124402 -0.0375569 0.991521 
0.125757 -0.0339481 0.99148 
0.160695 -0.0385423 0.986251 
0.162115 -0.0335859 0.9862 
0.161893 -0.0281756 0.986406 
0.1628 -0.0232757 0.986384 
0.162132 -0.0180836 0.986603 
0.162404 -0.0128695 0.98664 
0.160536 -0.00740618 0.987002 
0.160632 -0.00218156 0.987012 
0.161355 0.00328024 0.986891 
0.160482 0.00873563 0.987 
0.160956 0.0144237 0.986856 
0.160368 0.019941 0.986856 
0.161654 0.0256495 0.986514 
0.160609 0.0311137 0.986528 
0.160458 0.0365171 0.986367 
0.159869 0.0417231 0.986256 
0.133891 0.0384753 0.990249 
0.115901 0.0370173 0.992571 
0.117133 0.0428727 0.99219 
0.00049895 0.000135185 1 
0.000446044 0.000106563 1 
0.00010971 -6.90232e-05 1 
0.000301787 -5.31863e-05 1 
0.00029595 -2.96925e-05 1 
0.102425 -0.0470191 0.993629 
0.119313 -0.0498107 0.991606 
0.154864 -0.0587062 0.98619 
0.157071 -0.0537934 0.986121 
0.15871 -0.0486659 0.986125 
0.160057 -0.0435523 0.986147 
0.146426 -0.0363731 0.988553 
0.145711 -0.0312684 0.988833 
0.146579 -0.0267165 0.988838 
0.147827 -0.0217684 0.988774 
0.144894 -0.0166791 0.989307 
0.145429 -0.012162 0.989294 
0.143721 -0.00718879 0.989592 
0.141932 -0.00219534 0.989874 
0.144651 0.00289416 0.989479 
0.143578 0.00807701 0.989606 
0.143235 0.0132345 0.9896 
0.14461 0.0181027 0.989323 
0.145991 0.0228659 0.989022 
0.144818 0.0277037 0.98907 
0.147466 0.0331114 0.988513 
0.146715 0.0381742 0.988442 
0.158146 0.0470884 0.986292 
0.156185 0.0516013 0.986379 
0.154639 0.0566216 0.986347 
0.131969 0.0519856 0.98989 
0.105641 0.0448715 0.993391 
0.0966718 0.0460763 0.994249 
0.000208672 -9.04534e-06 1 
0.000383423 8.62203e-05 1 
0.000250257 -4.66293e-05 1 
0.000210629 2.70768e-06 1 
0.0965573 -0.0525501 0.993939 
0.119252 -0.059962 0.991052 
0.149003 -0.0691347 0.986417 
0.152978 -0.0649152 0.986095 
0.144524 -0.0577351 0.987815 
0.144608 -0.0517843 0.988133 
0.144381 -0.0462769 0.98844 
0.145294 -0.0413027 0.988526 
0.132065 -0.0335142 0.990674 
0.1313 -0.028773 0.990925 
0.132066 -0.0243574 0.990942 
0.131694 -0.0201031 0.991087 
0.131119 -0.0160382 0.991237 
0.130979 -0.0114258 0.991319 
0.129251 -0.00660888 0.99159 
0.128643 -0.00185933 0.991689 
0.129279 0.00293013 0.991604 
0.129839 0.00764605 0.991506 
0.128989 0.0122618 0.99157 
0.130788 0.0169791 0.991265 
0.130717 0.0213677 0.991189 
0.129876 0.0257363 0.991196 
0.131924 0.0303849 0.990794 
0.130634 0.0347578 0.990821 
0.141426 0.0421686 0.98905 
0.143285 0.0482939 0.988502 
0.143107 0.0543098 0.988216 
0.153549 0.0628947 0.986137 
0.148542 0.0663747 0.986676 
0.145788 0.0716455 0.986718 
0.105463 0.0555432 0.992871 
0.10674 0.0606893 0.992433 
0.000134973 -3.78874e-05 1 
0.000241836 -2.81415e-05 1 
0.0938182 -0.060231 0.993766 
0.111221 -0.0661609 0.991591 
0.142482 -0.0794126 0.986607 
0.147151 -0.0755134 0.986227 
0.14098 -0.0684689 0.987642 
0.139523 -0.0620791 0.988271 
0.128567 -0.0531255 0.990277 
0.12898 -0.0477936 0.990495 
0.129566 -0.0427519 0.990649 
0.131417 -0.0384124 0.990583 
0.123955 -0.0329355 0.991741 
0.124238 -0.0284602 0.991844 
0.123363 -0.0238418 0.992075 
0.124488 -0.0195449 0.992029 
0.124048 -0.0150579 0.992162 
0.124959 -0.010933 0.992102 
0.122626 -0.00642424 0.992432 
0.121685 -0.00183583 0.992567 
0.123307 0.00265902 0.992365 
0.122041 0.00726692 0.992499 
0.122661 0.0116422 0.99238 
0.12326 0.0161492 0.992243 
0.122737 0.0205376 0.992227 
0.122132 0.0249485 0.9922 
0.122977 0.0296421 0.991967 
0.122004 0.0342111 0.99194 
0.128346 0.0399844 0.990923 
0.128605 0.0450562 0.990672 
0.126818 0.0499662 0.990667 
0.138714 0.0586679 0.988593 
0.144348 0.0661134 0.987316 
0.143337 0.0716245 0.987079 
0.144935 0.0777508 0.986382 
0.141853 0.0830533 0.986397 
0.0913283 0.0565887 0.994212 
0.000261536 5.84817e-05 1 
0.00030216 7.12203e-05 1 
0.000114186 5.5219e-05 1 
0.000131817 4.32061e-05 1 
0.102226 -0.0708857 0.992232 
0.13598 -0.0897316 0.98664 
0.140072 -0.0860982 0.986391 
0.137298 -0.0807768 0.987231 
0.135497 -0.0734694 0.98805 
0.124618 -0.0631036 0.990196 
0.123544 -0.0568846 0.990707 
0.118176 -0.0504513 0.99171 
0.119664 -0.0458496 0.991755 
0.120948 -0.0413502 0.991797 
0.122467 -0.0372472 0.991773 
0.116061 -0.032922 0.992696 
0.116548 -0.0286593 0.992771 
0.112587 -0.0233557 0.993367 
0.115284 -0.0190543 0.99315 
0.11199 -0.0141799 0.993608 
0.112052 -0.00952628 0.993657 
0.108391 -0.00504864 0.994096 
0.107948 -0.000729819 0.994156 
0.111334 0.0035034 0.993777 
0.110398 0.00764222 0.993858 
0.111128 0.011797 0.993736 
0.112875 0.0162988 0.993475 
0.113993 0.0206398 0.993267 
0.112983 0.0251744 0.993278 
0.115575 0.0300013 0.992846 
0.113756 0.0340954 0.992923 
0.118467 0.0384382 0.992214 
0.120819 0.0439526 0.991701 
0.118672 0.0481319 0.991766 
0.124024 0.054264 0.990794 
0.127651 0.0600813 0.989998 
0.125979 0.0651599 0.989891 
0.137733 0.0760162 0.987548 
0.134974 0.080893 0.987542 
0.138502 0.0875667 0.986483 
0.110144 0.0734244 0.9912 
0.0887987 0.0634652 0.994026 
0.000117402 -7.77883e-05 1 
0.000176488 -3.29999e-05 1 
0.0936522 -0.0766739 0.992648 
0.077767 -0.0585385 0.995251 
0.130608 -0.0949216 0.98688 
0.133837 -0.0931488 0.986616 
0.12967 -0.0835693 0.988029 
0.119553 -0.072479 0.990179 
0.119513 -0.0668755 0.990578 
0.114221 -0.0601979 0.99163 
0.114866 -0.0555177 0.991828 
0.110516 -0.0500156 0.992615 
0.110254 -0.0448273 0.992892 
0.111714 -0.0407634 0.992904 
0.112501 -0.0364129 0.992984 
0.0966877 -0.0281983 0.994915 
0.0946559 -0.0236178 0.99523 
0.090449 -0.0189904 0.99572 
0.0929573 -0.0158217 0.995544 
0.0850693 -0.0113201 0.996311 
0.0884761 -0.00847706 0.996042 
0.0801466 -0.00459407 0.996772 
0.0799753 -0.00131296 0.996796 
0.0831842 0.0019952 0.996532 
0.0837912 0.0051067 0.99647 
0.0839005 0.00844503 0.996438 
0.0876234 0.0122717 0.996078 
0.0908964 0.0161676 0.995729 
0.0941241 0.0203747 0.995352 
0.0958087 0.025016 0.995085 
0.0958357 0.0287169 0.994983 
0.108085 0.0367749 0.993461 
0.110807 0.0417054 0.992967 
0.110109 0.0464299 0.992834 
0.114996 0.0521222 0.991998 
0.118223 0.0580941 0.991286 
0.115652 0.062246 0.991337 
0.12144 0.068995 0.990198 
0.118251 0.0730768 0.990291 
0.134124 0.0872463 0.987116 
0.134426 0.0933635 0.986515 
0.127121 0.0950487 0.987323 
0.0824374 0.0652854 0.994456 
4.80071e-05 -0.000128537 1 
7.32996e-05 4.31408e-05 1 
0.0791254 -0.0696974 0.994425 
0.121268 -0.103905 0.987167 
0.126171 -0.0985527 0.987101 
0.127722 -0.0964247 0.987112 
0.115213 -0.0827915 0.989885 
0.114616 -0.0767302 0.990442 
0.109955 -0.0697196 0.991488 
0.110174 -0.0645534 0.991814 
0.106001 -0.0584077 0.992649 
0.105368 -0.0532564 0.993006 
0.0987374 -0.0461317 0.994044 
0.0950537 -0.0403069 0.994656 
0.0923058 -0.0350539 0.995113 
0.0924959 -0.0311428 0.995226 
0.0661724 -0.0205114 0.997597 
0.0655117 -0.0173854 0.9977 
0.0596316 -0.0132828 0.998132 
0.0580082 -0.0104015 0.998262 
0.0523 -0.00711192 0.998606 
0.0531919 -0.0051452 0.998571 
0.0469562 -0.0025568 0.998894 
0.0485346 -0.000498915 0.998821 
0.0486123 0.00137856 0.998817 
0.050809 0.00349452 0.998702 
0.0521357 0.00579726 0.998623 
0.0545649 0.00823226 0.998476 
0.0591538 0.0113321 0.998185 
0.068414 0.0160189 0.997528 
0.0632292 0.0174621 0.997846 
0.0799349 0.0261748 0.996456 
0.088563 0.0327085 0.995533 
0.0961664 0.0393451 0.994587 
0.0935211 0.0426115 0.994705 
0.106302 0.0498478 0.993084 
0.110178 0.0556718 0.992351 
0.108001 0.0598872 0.992345 
0.111718 0.0661807 0.991534 
0.108982 0.0708539 0.991515 
0.117727 0.0795549 0.989854 
0.127577 0.0925012 0.987506 
0.129245 0.100772 0.986479 
0.124179 0.101239 0.987082 
0.084392 0.0727064 0.993777 
0.000372045 0.000242922 1 
0.000259622 0.000139543 1 
9.92423e-05 2.69339e-05 1 
0.0796491 -0.0759695 0.993924 
0.116889 -0.107503 0.98731 
0.121444 -0.108091 0.986695 
0.128126 -0.10479 0.986206 
0.112554 -0.0883738 0.989708 
0.105562 -0.0786939 0.991294 
0.10483 -0.0725478 0.99184 
0.101323 -0.0665864 0.992623 
0.101738 -0.0620701 0.992873 
0.0949166 -0.0555199 0.993936 
0.0944992 -0.051012 0.994217 
0.0860161 -0.0431512 0.995359 
0.0710045 -0.0322558 0.996954 
0.0632462 -0.0257592 0.997665 
0.0612614 -0.0220338 0.997879 
0.0376321 -0.011995 0.99922 
0.0360113 -0.00974125 0.999304 
0.031198 -0.00708216 0.999488 
0.0300589 -0.00546915 0.999533 
0.0241711 -0.0034329 0.999702 
0.0242978 -0.00246354 0.999702 
0.0227677 -0.00137132 0.99974 
0.0235478 -0.000369921 0.999723 
0.0221715 0.000635619 0.999754 
0.0240454 0.00166201 0.999709 
0.0260002 0.00288767 0.999658 
0.0264594 0.00416704 0.999641 
0.0310512 0.00613108 0.999499 
0.038303 0.0091381 0.999224 
0.0344774 0.00977683 0.999358 
0.0505905 0.0162898 0.998587 
0.0578584 0.0214923 0.998093 
0.0675425 0.0281104 0.99732 
0.0669613 0.0311829 0.997268 
0.0862019 0.0437342 0.995317 
0.0989405 0.0519847 0.993735 
0.0980852 0.056667 0.993563 
0.103831 0.0638478 0.992544 
0.100531 0.0673043 0.992655 
0.106505 0.0751333 0.991469 
0.110718 0.0822685 0.990441 
0.109927 0.0873474 0.990094 
0.120595 0.100808 0.98757 
0.123952 0.107844 0.986411 
0.106787 0.0968846 0.98955 
0.0748485 0.071134 0.994655 
-4.71723e-05 -0.000215106 1 
3.46482e-05 9.09126e-05 1 
0.0695214 -0.0720562 0.994975 
0.111376 -0.111244 0.987532 
0.119245 -0.114355 0.986257 
0.107386 -0.0993234 0.989244 
0.11145 -0.0945706 0.98926 
0.102301 -0.0830179 0.991283 
0.0976537 -0.076485 0.992277 
0.0974978 -0.0712358 0.992683 
0.0927104 -0.0645931 0.993596 
0.0890022 -0.0574216 0.994375 
0.0755647 -0.0460752 0.996076 
0.0712626 -0.0399185 0.996658 
0.0600461 -0.0307274 0.997723 
0.0431533 -0.0201636 0.998865 
0.0350871 -0.0147996 0.999275 
0.0328202 -0.0121728 0.999387 
0.0166413 -0.00561477 0.999846 
0.0160117 -0.00462338 0.999861 
0.012993 -0.00316437 0.999911 
0.0118499 -0.00233347 0.999927 
0.00887295 -0.00135248 0.99996 
0.00798507 -0.000832025 0.999968 
0.00889026 -0.000483864 0.99996 
0.00866579 -8.70972e-05 0.999962 
0.00753399 0.000260583 0.999972 
0.00873843 0.000688675 0.999962 
0.0100959 0.00125693 0.999948 
0.00982881 0.00166324 0.99995 
0.0127312 0.00271356 0.999915 
0.0177174 0.00447231 0.999833 
0.0169668 0.00521811 0.999842 
0.0289299 0.0100355 0.999531 
0.0333245 0.0132026 0.999357 
0.0383728 0.0168839 0.999121 
0.0507264 0.0254065 0.998389 
0.0625537 0.0339646 0.997464 
0.0807619 0.0462678 0.995659 
0.0772768 0.048292 0.995839 
0.0930677 0.0593315 0.99389 
0.0905745 0.0626635 0.993916 
0.0977479 0.0707482 0.992693 
0.100275 0.0770921 0.991969 
0.0999013 0.0823719 0.991582 
0.10502 0.0909353 0.990304 
0.116743 0.106089 0.98748 
0.118115 0.112679 0.986586 
0.107645 0.108683 0.988231 
0.0650047 0.0695358 0.995459 
6.0602e-05 -4.81675e-05 1 
0.000110672 1.98518e-05 1 
0.0690948 -0.0783842 0.994526 
0.105891 -0.114894 0.987718 
0.114596 -0.119431 0.986207 
0.10655 -0.106485 0.988589 
0.0952263 -0.0916549 0.991227 
0.0996955 -0.0875699 0.991157 
0.0948672 -0.0811578 0.992176 
0.089602 -0.0733597 0.993272 
0.0870919 -0.0664968 0.993978 
0.0779037 -0.0555144 0.995414 
0.0667946 -0.044738 0.996763 
0.0484742 -0.0302985 0.998365 
0.0446596 -0.0256072 0.998674 
0.034319 -0.0179838 0.999249 
0.0206719 -0.0100773 0.999736 
0.0142891 -0.0063953 0.999877 
0.0143895 -0.00570548 0.99988 
0.00613433 -0.002283 0.999979 
0.00527406 -0.00168315 0.999985 
0.00382566 -0.00104438 0.999992 
0.00323522 -0.000715663 0.999995 
0.00207787 -0.000379301 0.999998 
0.00189009 -0.000227614 0.999998 
0.00224021 -0.000127013 0.999997 
0.00206877 -2.83009e-06 0.999998 
0.00169612 9.09989e-05 0.999999 
0.00225533 0.000237356 0.999997 
0.00257218 0.000395435 0.999997 
0.00270612 0.00056311 0.999996 
0.00422576 0.0010416 0.999991 
0.00690466 0.0019299 0.999974 
0.0043627 0.00146003 0.999989 
0.0104692 0.00373827 0.999938 
0.0147238 0.00588568 0.999874 
0.0166274 0.00759303 0.999833 
0.0282513 0.0140502 0.999502 
0.034202 0.0190504 0.999233 
0.050406 0.0302829 0.99827 
0.0509494 0.0334663 0.99814 
0.0710703 0.0489575 0.996269 
0.0889119 0.0666791 0.993805 
0.0925436 0.0736404 0.992982 
0.0923871 0.0790427 0.992581 
0.0963776 0.0861678 0.991608 
0.100444 0.0942332 0.99047 
0.109766 0.10833 0.988037 
0.114664 0.118876 0.986266 
0.107354 0.117908 0.987205 
0.0774251 0.089277 0.992993 
0.000302725 0.000214372 1 
0.00016666 -5.75683e-05 1 
0.0733945 -0.0901046 0.993224 
0.103757 -0.121818 0.987114 
0.110165 -0.123558 0.986203 
0.100113 -0.108004 0.989097 
0.0921724 -0.0953638 0.991166 
0.0872442 -0.0880256 0.99229 
0.0935018 -0.0866648 0.99184 
0.0873273 -0.0806359 0.992911 
0.0837289 -0.0735987 0.993767 
0.0742013 -0.0611503 0.995367 
0.0674912 -0.0518464 0.996372 
0.0488124 -0.0354581 0.998178 
0.0370881 -0.0251587 0.998995 
0.023686 -0.0147584 0.999611 
0.0201633 -0.0115304 0.99973 
0.0116724 -0.00622902 0.999912 
0.00578467 -0.0028999 0.999979 
0.00422041 -0.00192089 0.999989 
0.00223175 -0.000988664 0.999997 
0.00128177 -0.000543227 0.999999 
0.000668911 -0.000319836 1 
0.000408902 -0.000209004 1 
9.47481e-05 -0.00012302 1 
2.21689e-05 -8.09605e-05 1 
5.81983e-05 -4.74601e-05 1 
8.71841e-05 -1.48603e-05 1 
2.39867e-05 1.07495e-05 1 
9.72294e-05 4.38902e-05 1 
0.000121621 7.54783e-05 1 
0.000267491 0.000128821 1 
0.000622516 0.000232925 1 
0.00126228 0.000429664 0.999999 
0.000815275 0.000355515 1 
0.00314531 0.0012616 0.999994 
0.00526526 0.00230598 0.999983 
0.00645868 0.00318172 0.999974 
0.0141351 0.00741857 0.999873 
0.0151733 0.00880782 0.999846 
0.026587 0.0165143 0.99951 
0.0299393 0.0205133 0.999341 
0.0476756 0.0346817 0.998261 
0.0724463 0.0541074 0.995904 
0.0785088 0.0635437 0.994886 
0.0825383 0.0710679 0.994051 
0.0870437 0.0802117 0.99297 
0.0925409 0.0889068 0.991732 
0.095242 0.0964976 0.990766 
0.0994752 0.105902 0.989388 
0.107606 0.120127 0.98691 
0.104857 0.123744 0.986759 
0.08119 0.0990107 0.991769 
5.92522e-05 -0.000103413 1 
0.000141076 8.72823e-06 1 
0.0702975 -0.0927308 0.993207 
0.100432 -0.127574 0.986731 
0.102275 -0.124642 0.986917 
0.094162 -0.109856 0.989477 
0.0877467 -0.098291 0.991282 
0.0843311 -0.0913787 0.992239 
0.0809117 -0.0801927 0.99349 
0.07137 -0.067836 0.99514 
0.0661877 -0.0588019 0.996073 
0.0488566 -0.0406288 0.997979 
0.0373689 -0.0293355 0.998871 
0.0229649 -0.0169396 0.999593 
0.0165966 -0.0113129 0.999798 
0.00853802 -0.00542483 0.999949 
0.00574372 -0.00339987 0.999978 
0.00257715 -0.00144687 0.999996 
0.00116147 -0.000647041 0.999999 
0.000203942 -0.000187502 1 
0.000143194 -0.000168443 1 
-0.000142403 -6.73946e-05 1 
-0.000231261 -6.441e-05 1 
-0.000268553 -6.63144e-05 1 
-0.000258952 -6.98042e-05 1 
-0.000236714 -6.08246e-05 1 
-0.000220797 -3.93877e-05 1 
-0.000211948 -1.9015e-05 1 
-0.000212469 9.68973e-06 1 
-0.000206186 3.10441e-05 1 
-0.000220854 4.55352e-05 1 
-0.000224829 5.49196e-05 1 
-0.000248547 4.02314e-05 1 
-8.29588e-05 7.90429e-05 1 
-0.000174215 3.22144e-05 1 
0.000458611 0.000259953 1 
0.00124374 0.000617727 0.999999 
0.00144607 0.00077695 0.999999 
0.00468442 0.00261865 0.999986 
0.0061261 0.00380412 0.999974 
0.0133294 0.00881255 0.999872 
0.0183612 0.0134454 0.999741 
0.0313575 0.0242718 0.999213 
0.0551081 0.0438447 0.997517 
0.0558399 0.0481013 0.99728 
0.0723775 0.0660716 0.995186 
0.0805704 0.0783221 0.993667 
0.08646 0.0877691 0.992382 
0.0877355 0.0937877 0.991719 
0.0886383 0.0993846 0.991093 
0.0950789 0.110951 0.989267 
0.0997927 0.122476 0.987442 
0.100141 0.127621 0.986755 
0.0582859 0.076123 0.995393 
6.56949e-05 -0.000127687 1 
8.93015e-05 8.839e-05 1 
0.064315 -0.0920253 0.993677 
0.0950007 -0.131057 0.986813 
0.0972604 -0.129115 0.986848 
0.0880147 -0.112196 0.98978 
0.0838973 -0.102091 0.991231 
0.0804301 -0.0949864 0.992224 
0.0760683 -0.0869578 0.993304 
0.0767606 -0.0821721 0.993658 
0.0652993 -0.0669089 0.99562 
0.0481514 -0.0464638 0.997759 
0.0407094 -0.0365609 0.998502 
0.0233948 -0.0200428 0.999525 
0.0159053 -0.0127872 0.999792 
0.00876398 -0.00658436 0.99994 
0.00528244 -0.00370546 0.999979 
0.00181464 -0.00124331 0.999998 
0.000962794 -0.00063368 0.999999 
0.000218166 -0.000186245 1 
-0.000157457 -3.398e-06 1 
-0.000219182 -7.8498e-06 1 
-0.000228596 -1.2736e-05 1 
-0.000186713 -4.51481e-05 1 
-0.00013216 -7.57447e-05 1 
-0.000101021 -9.55594e-05 1 
-6.24148e-05 -9.18786e-05 1 
-5.46279e-05 -6.75461e-05 1 
-5.90027e-05 -3.67248e-05 1 
-7.32374e-05 9.98204e-07 1 
-6.15003e-05 3.2482e-05 1 
-7.11351e-05 7.09286e-05 1 
-0.000112842 7.80952e-05 1 
-0.000172342 7.05873e-05 1 
-0.000237888 3.64093e-05 1 
-0.000199422 2.09705e-05 1 
-0.000253924 -2.42288e-05 1 
-0.00010061 7.98196e-06 1 
4.69387e-05 5.45057e-05 1 
0.00116783 0.000723696 0.999999 
0.00111157 0.000771718 0.999999 
0.00389285 0.0027066 0.999989 
0.00767209 0.00565848 0.999955 
0.0144029 0.0116375 0.999829 
0.030188 0.0255141 0.999219 
0.0431116 0.0396659 0.998283 
0.060401 0.0586931 0.996447 
0.0664821 0.0686314 0.995424 
0.0777128 0.0816777 0.993624 
0.0806079 0.0892587 0.992741 
0.0826081 0.0965014 0.991899 
0.0830183 0.101286 0.991387 
0.0858069 0.109696 0.990254 
0.0962355 0.126279 0.987316 
0.0954222 0.130237 0.98688 
0.070448 0.100373 0.992453 
0.000270764 0.000204721 1 
0.000171958 -8.51143e-05 1 
0.0596559 -0.0937047 0.993811 
0.0902681 -0.13548 0.986659 
0.091999 -0.133066 0.986828 
0.0829869 -0.115488 0.989836 
0.0787675 -0.105165 0.99133 
0.0768814 -0.0986298 0.99215 
0.0727774 -0.090126 0.993268 
0.0645141 -0.075889 0.995027 
0.0615855 -0.067591 0.995811 
0.0413283 -0.0430039 0.99822 
0.0250293 -0.0242293 0.999393 
0.0158783 -0.0146146 0.999767 
0.00769591 -0.00668663 0.999948 
0.00464163 -0.00379105 0.999982 
0.00202259 -0.00157653 0.999997 
0.000561353 -0.000460311 1 
-2.28146e-05 -3.88699e-05 1 
-0.000131936 1.39369e-05 1 
-0.000177674 2.53762e-05 1 
-0.000138795 -2.12961e-05 1 
-2.6267e-05 -7.10023e-05 1 
-1.82249e-05 -9.28313e-05 1 
1.29277e-05 -8.90999e-05 1 
-6.10878e-05 -7.75436e-05 1 
-0.000144498 -6.73591e-05 1 
-0.000436637 -2.38163e-05 1 
-0.000831113 1.37778e-05 1 
-0.00083995 -1.56246e-05 1 
-0.000671874 -1.56034e-05 1 
-0.000426145 1.65006e-05 1 
-0.000441918 7.9698e-06 1 
-2.2366e-05 9.92792e-05 1 
-6.68355e-05 9.48682e-05 1 
-2.2547e-05 0.000108196 1 
2.51416e-06 0.000101462 1 
-0.000181015 -1.5062e-05 1 
-0.000238717 -8.24678e-05 1 
-0.00023246 -0.000106878 1 
-0.000114613 -4.13148e-05 1 
9.25151e-05 0.000106557 1 
0.0013047 0.00102075 0.999999 
0.00439573 0.00352258 0.999984 
0.00823482 0.00719692 0.99994 
0.0194528 0.0175886 0.999656 
0.021605 0.0210117 0.999546 
0.0372003 0.0376144 0.9986 
0.0499368 0.0540114 0.997291 
0.0680372 0.0766226 0.994736 
0.0728392 0.0866802 0.99357 
0.0758385 0.0953309 0.992553 
0.0763864 0.101284 0.991921 
0.0808595 0.111549 0.990464 
0.0920712 0.129833 0.987252 
0.0911466 0.135588 0.986564 
0.0674994 0.103738 0.992312 
8.10617e-05 -3.23445e-05 1 
0.000198248 -0.000155673 1 
0.0659585 -0.111776 0.991542 
0.0865306 -0.140452 0.986299 
0.0849753 -0.133011 0.987465 