# vtk DataFile Version 3.0 
Exported using Morpho https://github.com/Morpho-lang/morpho 
ASCII 
DATASET UNSTRUCTURED_GRID 

POINTS 3402 float 
-1.58759 -6.89087 -9.66765e-05 
-1.38908 -6.93479 5.02991e-05 
-1.18841 -6.97079 5.27043e-05 
-0.968626 -7.00586 -0.00013153 
-0.726507 -7.03437 0.000455738 
-0.524645 -7.05233 -0.000406045 
-0.304655 -7.06524 0.000588397 
-0.0960537 -7.07139 -7.76596e-05 
0.118705 -7.07105 -0.000387798 
0.338279 -7.064 0.000460452 
0.529581 -7.05228 -0.000341781 
0.737152 -7.03353 0.000458345 
0.943415 -7.00875 -0.000445605 
1.16954 -6.97463 6.22386e-05 
1.37614 -6.93678 -0.000364269 
1.60722 -6.88668 0.00011143 
-2.43457 -6.63945 0.00011999 
-2.22262 -6.71339 -0.000245114 
-2.01442 -6.7788 0.000427029 
-1.80364 -6.83821 6.44672e-06 
-1.5697 -6.67252 -0.000403611 
-1.34483 -6.70481 0.000608436 
-1.11929 -6.75534 -0.00040671 
-0.889069 -6.8138 0.00016442 
-0.674183 -6.78542 -5.84603e-05 
-0.463639 -6.835 -0.000557937 
-0.252705 -6.82063 -0.00014655 
-0.0390981 -6.83437 -0.000135812 
0.178044 -6.83616 0.000234286 
0.380081 -6.80362 0.000309832 
0.58583 -6.80351 -0.000197233 
0.786882 -6.78072 0.00017171 
1.00858 -6.77421 0.000383473 
1.21956 -6.72487 0.000487079 
1.45656 -6.70863 -0.000156503 
1.69565 -6.66518 -1.41245e-05 
1.86222 -6.82263 0.00030437 
2.04432 -6.77045 -0.00051768 
2.28361 -6.69276 0.000345774 
-2.85047 -6.47157 -1.70134e-05 
-2.65667 -6.55362 0.000154927 
-2.45316 -6.4195 -0.000110066 
-2.22919 -6.48833 -0.000618199 
-2.00415 -6.55392 -0.000327871 
-1.78426 -6.61467 -7.80405e-05 
-1.54252 -6.44585 0.000338023 
-1.33089 -6.48454 0.000177572 
-1.12618 -6.50515 -0.000272375 
-0.923678 -6.58062 -0.000416198 
-0.712811 -6.55395 0.000247524 
-0.488932 -6.58987 -0.000376053 
-0.273448 -6.58804 0.000213251 
-0.0722473 -6.57479 0.000194951 
0.132853 -6.59389 0.000243855 
0.345463 -6.56176 -0.00026511 
0.56703 -6.55689 -0.000437015 
0.793336 -6.55726 -0.00033809 
1.0235 -6.53694 -0.000192953 
1.24731 -6.49097 0.000267691 
1.46982 -6.49095 -0.000226082 
1.67374 -6.42166 -0.000424483 
1.88577 -6.54451 0.000208508 
2.11025 -6.54387 -0.000157968 
2.3265 -6.45704 0.000599543 
2.50171 -6.61459 4.41127e-05 
2.67445 -6.54654 -0.000310535 
2.90954 -6.44484 0.00015021 
-3.2768 -6.26649 7.52149e-05 
-3.10405 -6.35385 8.99938e-05 
-2.90355 -6.2583 -0.000323087 
-2.65486 -6.30485 3.45797e-05 
-2.38095 -6.21468 0.000777294 
-2.16338 -6.27674 0.000321048 
-1.95423 -6.34409 -0.000121685 
-1.7495 -6.38185 0.000591275 
-1.55522 -6.20333 0.000172618 
-1.34304 -6.23973 -0.000203618 
-1.12293 -6.27226 -0.000105232 
-0.904037 -6.33244 8.83887e-05 
-0.690396 -6.31215 0.000189753 
-0.484174 -6.35761 0.000321762 
-0.295109 -6.32326 0.000390929 
-0.0733749 -6.33341 -3.07971e-05 
0.138327 -6.34927 -7.41128e-05 
0.351466 -6.32173 -0.000153907 
0.557534 -6.32069 0.000110091 
0.766277 -6.31281 3.35819e-05 
0.973836 -6.31477 -0.000499295 
1.18183 -6.26253 -8.06954e-05 
1.40284 -6.2602 3.61023e-05 
1.62492 -6.20369 -3.67422e-05 
1.87953 -6.30863 0.000139812 
2.08684 -6.32043 0.000511619 
2.27631 -6.21475 -0.000916479 
2.50761 -6.33151 -0.000401713 
2.73334 -6.32262 -9.38659e-05 
2.97949 -6.22247 0.000188872 
3.16671 -6.32248 -0.000232264 
3.3799 -6.21124 -0.000228831 
-3.71294 -6.01796 -3.77593e-06 
-3.52801 -6.12844 0.00017404 
-3.32041 -6.05136 -6.59511e-05 
-3.08022 -6.09441 -0.000140312 
-2.82546 -6.04457 -8.31677e-05 
-2.61988 -6.10782 -8.34873e-05 
-2.42788 -5.98271 -3.12264e-05 
-2.20469 -6.03334 0.000323143 
-1.9883 -6.08925 5.90216e-05 
-1.77265 -6.14188 1.68856e-05 
-1.53457 -5.98395 -0.000103551 
-1.31834 -6.01921 -0.000182537 
-1.11149 -6.02991 0.000108052 
-0.914781 -6.10096 9.4237e-05 
-0.709049 -6.0726 4.28672e-05 
-0.495532 -6.11142 7.1742e-05 
-0.27272 -6.09064 -0.000113563 
-0.0742667 -6.083 9.65019e-05 
0.135037 -6.11214 -0.000146749 
0.350013 -6.09024 2.52447e-05 
0.56193 -6.07783 0.000111924 
0.777936 -6.07675 0.000106906 
0.987332 -6.07502 0.000110464 
1.19876 -6.01943 6.15294e-05 
1.39966 -6.04127 0.000406889 
1.60719 -5.97553 -1.82484e-06 
1.82599 -6.09173 0.00014897 
2.05186 -6.07109 -3.17241e-05 
2.27518 -5.99636 -0.000417106 
2.49641 -6.10656 -0.000232765 
2.73568 -6.11896 0.00127935 
2.96755 -6.01515 -2.73277e-05 
3.20559 -6.07573 7.27706e-05 
3.41535 -5.95729 -0.000109276 
3.58266 -6.09635 0.00012536 
-3.94451 -5.86885 5.33176e-05 
-3.7361 -5.79753 5.0009e-05 
-3.50488 -5.87871 -1.35375e-05 
-3.26277 -5.83905 -0.000290081 
-3.04268 -5.88914 -1.58268e-05 
-2.84532 -5.79927 0.000266997 
-2.63786 -5.85363 0.000165804 
-2.42114 -5.75834 -0.000470387 
-2.20544 -5.81168 -0.000439111 
-1.98366 -5.85807 -0.000307087 
-1.76075 -5.9288 -0.00043119 
-1.55858 -5.76156 -0.000101636 
-1.33751 -5.78786 1.4804e-05 
-1.11319 -5.80526 -2.33471e-05 
-0.897692 -5.85057 2.57916e-05 
-0.698366 -5.82565 -6.37037e-05 
-0.501061 -5.87548 -2.27457e-05 
-0.293308 -5.85113 -8.18746e-05 
-0.0922806 -5.83726 -8.34798e-05 
0.121857 -5.86945 6.14227e-05 
0.336983 -5.85604 -1.37164e-05 
0.552696 -5.8413 5.42016e-07 
0.765176 -5.84176 -2.78459e-05 
0.979577 -5.8417 7.19825e-05 
1.19785 -5.79113 -6.01155e-05 
1.41423 -5.80219 5.53843e-06 
1.63811 -5.75367 2.12715e-05 
1.83511 -5.87791 0.000179831 
2.06354 -5.84835 0.000151341 
2.28082 -5.7751 0.000237288 
2.49485 -5.88531 -0.000409839 
2.71352 -5.90817 -0.000139094 
2.92536 -5.79909 -0.000638523 
3.16895 -5.86164 -9.97817e-05 
3.39362 -5.75103 0.000287632 
3.64598 -5.86038 2.07424e-05 
3.82301 -5.94881 -0.000119219 
3.99133 -5.83698 0.000194578 
-4.39083 -5.54205 -0.00015262 
-4.13086 -5.73895 -0.000298328 
-3.91762 -5.63391 0.000337252 
-3.68136 -5.57298 -0.000192949 
-3.48425 -5.66749 -0.000229404 
-3.29732 -5.58857 0.000193319 
-3.08666 -5.65055 0.000318818 
-2.8591 -5.58965 -7.46192e-05 
-2.62538 -5.61721 -0.000163464 
-2.39576 -5.53488 -1.36493e-05 
-2.18902 -5.58572 2.75389e-05 
-1.97494 -5.63257 5.26478e-05 
-1.7639 -5.68909 9.16192e-05 
-1.5753 -5.52259 4.02566e-05 
-1.3731 -5.5673 4.89585e-05 
-1.15672 -5.57916 9.9154e-06 
-0.936629 -5.61342 3.35047e-05 
-0.704745 -5.61761 -1.35639e-05 
-0.467571 -5.64003 -9.08142e-05 
-0.262307 -5.59995 2.34809e-05 
-0.0449946 -5.60794 -1.04046e-05 
0.165741 -5.646 -6.01139e-05 
0.379077 -5.62068 5.40943e-05 
0.589977 -5.6084 -4.95335e-05 
0.809681 -5.61802 7.57741e-05 
1.01867 -5.60554 -7.23448e-05 
1.24313 -5.56723 -2.91469e-05 
1.45696 -5.58145 -4.9527e-05 
1.66479 -5.51396 -2.17343e-05 
1.84366 -5.6431 -4.215e-05 
2.05522 -5.63389 4.38668e-05 
2.25747 -5.55206 1.15459e-05 
2.48265 -5.65019 0.000211869 
2.69221 -5.67808 -9.81181e-05 
2.91677 -5.58207 0.000320957 
3.14641 -5.64857 3.85057e-05 
3.35528 -5.5319 -3.63145e-05 
3.59635 -5.64253 9.79155e-05 
3.82497 -5.66903 -0.000159054 
4.03752 -5.59707 -0.000528342 
4.22116 -5.67267 0.00018205 
-4.57348 -5.39235 3.99726e-06 
-4.34551 -5.32196 0.000287524 
-4.16905 -5.52968 0.000670405 
-3.93864 -5.43284 -0.000640165 
-3.72575 -5.35488 8.12792e-07 
-3.49608 -5.40683 0.000303561 
-3.26966 -5.36978 -1.7524e-05 
-3.05575 -5.42748 -0.00014183 
-2.8418 -5.35872 -3.4064e-05 
-2.63528 -5.4099 -0.000104611 
-2.41693 -5.32152 0.000130805 
-2.18898 -5.35466 1.46251e-05 
-1.97861 -5.3987 0.000122323 
-1.78151 -5.44178 4.89067e-05 
-1.53888 -5.31004 2.22106e-05 
-1.3241 -5.35053 -1.14148e-05 
-1.11777 -5.34735 7.0861e-06 
-0.917043 -5.40195 1.81092e-05 
-0.720082 -5.37226 -3.1578e-05 
-0.512894 -5.42227 6.80074e-05 
-0.319149 -5.36639 -2.1713e-05 
-0.102508 -5.38265 1.09906e-05 
0.117795 -5.40742 1.97895e-05 
0.316226 -5.39646 -2.38968e-05 
0.533771 -5.38668 3.96377e-05 
0.744141 -5.38843 -2.05026e-05 
0.955113 -5.38282 -3.51059e-06 
1.1627 -5.37043 -3.67251e-05 
1.39248 -5.359 -1.21923e-05 
1.59207 -5.30838 -2.28174e-05 
1.84464 -5.37689 -1.43898e-05 
2.02842 -5.40856 -4.5887e-05 
2.24316 -5.33964 -1.30449e-05 
2.47804 -5.43717 -1.75966e-05 
2.70835 -5.457 0.000142415 
2.91296 -5.35779 0.0003086 
3.11952 -5.42901 0.000250354 
3.33001 -5.3152 -2.68993e-05 
3.56724 -5.42459 2.80026e-05 
3.79409 -5.4482 0.000359089 
4.0302 -5.39046 0.000222475 
4.27001 -5.42733 0.00017562 
4.4536 -5.49225 -0.000179442 
-4.7938 -5.19632 -0.000305778 
-4.56597 -5.18218 0.000545669 
-4.35245 -5.09893 -0.000274583 
-4.13021 -5.29734 -0.000275772 
-3.91084 -5.19022 1.18175e-05 
-3.68818 -5.12471 4.86176e-05 
-3.49182 -5.19503 0.0001322 
-3.275 -5.14863 -9.39417e-05 
-3.0571 -5.20231 -0.000169272 
-2.83571 -5.13995 9.73666e-05 
-2.61206 -5.1744 6.05386e-05 
-2.37213 -5.11672 5.26727e-05 
-2.15139 -5.13751 5.6466e-05 
-1.94808 -5.16899 -2.42539e-07 
-1.74453 -5.22037 1.33933e-05 
-1.56068 -5.08289 1.15049e-05 
-1.35219 -5.12938 -2.09855e-05 
-1.13922 -5.14078 -2.24455e-06 
-0.922704 -5.16298 -1.39665e-05 
-0.7039 -5.16191 6.83314e-06 
-0.516157 -5.18345 -3.60244e-05 
-0.291901 -5.16228 3.20832e-06 
-0.0695548 -5.17672 4.82854e-06 
0.129319 -5.17501 5.88808e-06 
0.346544 -5.18387 9.50329e-06 
0.562031 -5.17042 -1.71839e-05 
0.772384 -5.1646 -7.22461e-06 
0.978149 -5.16347 4.21542e-06 
1.21288 -5.17238 1.48835e-05 
1.40463 -5.12107 -2.11247e-05 
1.67011 -5.14565 -2.72855e-05 
1.8894 -5.17021 -4.28891e-05 
2.11415 -5.1566 5.12734e-06 
2.30408 -5.06869 5.65344e-06 
2.44387 -5.2169 -7.30291e-05 
2.65932 -5.24152 -2.89568e-05 
2.87417 -5.14734 -0.000123619 
3.11597 -5.20206 2.60464e-05 
3.34051 -5.10264 -0.000131721 
3.56492 -5.22184 -0.000154079 
3.80595 -5.23419 9.02776e-05 
4.02373 -5.16284 2.02905e-05 
4.24522 -5.21341 -0.000763124 
4.47645 -5.24277 0.000647002 
4.6535 -5.32479 -0.00049823 
4.78669 -5.20494 0.000513395 
-4.98938 -5.00778 -0.000244125 
-4.76464 -4.98309 0.000255369 
-4.5554 -4.94939 -0.00037497 
-4.32114 -4.8708 -1.3554e-05 
-4.1285 -5.07109 -3.43031e-05 
-3.90699 -4.97344 0.000258967 
-3.67099 -4.91551 -0.00016007 
-3.44216 -4.96119 -8.35817e-05 
-3.23268 -4.90887 2.21082e-05 
-3.04713 -4.98385 3.81278e-05 
-2.85171 -4.90202 2.01214e-05 
-2.64881 -4.95032 7.68112e-05 
-2.44274 -4.93734 3.08605e-05 
-2.18865 -4.91576 -3.29159e-06 
-1.97339 -4.93639 4.83336e-05 
-1.7682 -4.98436 -1.18631e-05 
[...]
POINT_DATA 3402 
VECTORS vectors float
0.220729 -0.0505826 0.973856 
0.220751 -0.0453886 0.973517 
0.221171 -0.0371485 0.973682 
0.225083 -0.0317582 0.973406 
0.223765 -0.0246062 0.973902 
0.224516 -0.0156623 0.974359 
0.225882 -0.0117195 0.974326 
0.22388 -0.00311069 0.973743 
0.22562 0.00399973 0.974508 
0.224147 0.00932419 0.974926 
0.223818 0.0184006 0.974734 
0.225273 0.0226389 0.97402 
0.222583 0.0316657 0.974256 
0.224377 0.0372109 0.973909 
0.218841 0.0437111 0.974724 
0.219984 0.052826 0.974767 
0.210628 -0.0775275 0.97426 
0.215466 -0.0692022 0.974533 
0.216998 -0.0648377 0.973884 
0.217853 -0.0574808 0.973288 
0.193982 -0.0451395 0.985336 
0.193346 -0.0395535 0.985898 
0.200366 -0.0333425 0.985619 
0.196809 -0.0258115 0.984324 
0.200552 -0.0202237 0.986276 
0.195937 -0.0131603 0.984741 
0.196892 -0.00804982 0.986025 
0.197029 -0.00124223 0.987277 
0.194438 0.00479946 0.985543 
0.195649 0.0105187 0.987231 
0.196142 0.0174519 0.985224 
0.197302 0.0233167 0.986189 
0.196697 0.0291732 0.984335 
0.196898 0.0360434 0.986307 
0.19537 0.0433178 0.984412 
0.196042 0.0488663 0.984975 
0.217597 0.0585197 0.973387 
0.216105 0.0654991 0.973923 
0.213816 0.0720724 0.975426 
0.206337 -0.0901861 0.974166 
0.210267 -0.0848325 0.974309 
0.189386 -0.0718078 0.98494 
0.192486 -0.0644684 0.984787 
0.191907 -0.0585754 0.983477 
0.196863 -0.052847 0.984876 
0.177503 -0.043019 0.98892 
0.177028 -0.0371779 0.989196 
0.178291 -0.0308304 0.99063 
0.181906 -0.0254973 0.988193 
0.175402 -0.019755 0.991528 
0.178098 -0.0134435 0.99031 
0.177768 -0.0083152 0.99009 
0.178963 -0.00285705 0.991314 
0.17926 0.00304834 0.989354 
0.177749 0.00986358 0.991295 
0.173351 0.016338 0.99061 
0.180059 0.0229257 0.990738 
0.174722 0.0277807 0.989243 
0.173912 0.0333241 0.991162 
0.17964 0.041503 0.988026 
0.175025 0.045387 0.989151 
0.193807 0.056229 0.985053 
0.189213 0.0618404 0.984557 
0.188872 0.0660589 0.985707 
0.20967 0.0806195 0.974304 
0.211784 0.0855215 0.973165 
0.208768 0.0916111 0.973119 
0.200705 -0.104681 0.97409 
0.203823 -0.0987689 0.97436 
0.185075 -0.085232 0.985111 
0.185173 -0.0778212 0.984522 
0.169894 -0.0655106 0.988286 
0.172753 -0.0585901 0.989343 
0.173939 -0.0533006 0.98859 
0.174875 -0.0484189 0.990172 
0.150994 -0.0380408 0.996381 
0.153275 -0.0329946 0.996711 
0.148299 -0.0262568 0.997827 
0.15384 -0.0227457 0.996922 
0.143658 -0.0174925 0.998688 
0.149631 -0.0126287 0.997062 
0.139938 -0.00791877 1.00042 
0.14328 -0.00266706 0.998612 
0.144322 0.00287277 0.999506 
0.143149 0.00869753 0.999239 
0.145345 0.0136444 0.998242 
0.148928 0.0191001 0.998499 
0.151919 0.024543 0.996639 
0.148281 0.028361 0.997895 
0.157116 0.0356126 0.995538 
0.154169 0.0400872 0.995337 
0.166492 0.049415 0.991343 
0.173901 0.0576053 0.988093 
0.169438 0.0624078 0.989348 
0.185187 0.0738933 0.984135 
0.182583 0.0796687 0.985915 
0.180739 0.0859105 0.987466 
0.202378 0.102859 0.972882 
0.199832 0.109076 0.974131 
0.19333 -0.118826 0.97415 
0.197119 -0.11317 0.974058 
0.178381 -0.097809 0.985666 
0.177921 -0.0891591 0.985067 
0.166058 -0.0768837 0.988003 
0.167285 -0.0711388 0.988989 
0.152656 -0.0614526 0.994063 
0.149593 -0.0543244 0.995408 
0.151285 -0.0485044 0.99639 
0.148604 -0.0424011 0.996965 
0.123231 -0.030912 1.00106 
0.124022 -0.0265443 1.00132 
0.118437 -0.0216377 1.00112 
0.127964 -0.0197741 1.00033 
0.12148 -0.015398 1.00059 
0.122329 -0.0112479 1.00175 
0.118459 -0.00598564 1.00279 
0.1196 -0.00151054 1.00018 
0.122206 0.0027223 1.00181 
0.119452 0.0070014 1.00083 
0.12119 0.0112127 1.00299 
0.117664 0.0150384 1.0003 
0.122599 0.0199915 1.0027 
0.118972 0.0230381 1.00024 
0.124822 0.0283189 1.00169 
0.124141 0.0326827 1.00045 
0.145256 0.0428042 0.997621 
0.152081 0.0515398 0.995525 
0.146811 0.0567518 0.995186 
0.162719 0.067114 0.991496 
0.171637 0.076058 0.985679 
0.170422 0.0825865 0.986624 
0.179438 0.0941641 0.98491 
0.172506 0.0989062 0.986159 
0.196532 0.114579 0.973368 
0.189467 -0.126292 0.973873 
0.170386 -0.110028 0.985653 
0.171174 -0.102043 0.985434 
0.161936 -0.0900705 0.987064 
0.15927 -0.0815202 0.989135 
0.144877 -0.0703802 0.99442 
0.147607 -0.0655826 0.995081 
0.127317 -0.0517633 1.0001 
0.12506 -0.045484 1.00004 
0.125223 -0.0401267 1.00062 
0.12195 -0.0343941 1.00095 
0.127581 -0.0337183 0.998793 
0.129024 -0.0294665 0.998777 
0.13165 -0.0255805 0.998617 
0.133151 -0.0206785 0.998436 
0.136953 -0.0165403 0.998701 
0.135321 -0.0119124 0.997873 
0.136679 -0.00685494 0.996908 
0.136247 -0.00203906 0.998365 
0.133441 0.00306304 1.00056 
0.13739 0.00820217 0.996494 
0.135612 0.0128279 0.999015 
0.131139 0.0168991 0.997803 
0.131194 0.021736 1.00011 
0.128672 0.0263459 0.99731 
0.123162 0.0291928 1.00098 
0.120502 0.0338283 0.999716 
0.120264 0.0364144 1.0011 
0.126755 0.0442292 1.00037 
0.127316 0.0503563 0.999402 
0.143251 0.0614728 0.996484 
0.153456 0.0699885 0.992923 
0.144152 0.0725822 0.99439 
0.161207 0.0870809 0.98774 
0.160602 0.0940306 0.986546 
0.17255 0.106634 0.986287 
0.19205 0.123424 0.973408 
0.189433 0.127552 0.974135 
0.181698 -0.142969 0.971451 
0.18776 -0.134115 0.972046 
0.162434 -0.113243 0.98605 
0.156192 -0.1033 0.986157 
0.157265 -0.0961757 0.987462 
0.141185 -0.0829481 0.993907 
0.141485 -0.0774114 0.995072 
0.129753 -0.0658441 0.998585 
0.12051 -0.0550048 1.00064 
0.112538 -0.047364 1.00119 
0.114652 -0.0435584 1.0005 
0.121762 -0.0413761 0.999273 
0.126923 -0.0381029 0.998484 
0.13421 -0.0382601 0.998435 
0.13276 -0.0327348 0.998163 
0.134412 -0.0282528 0.998835 
0.129588 -0.0219395 1.00042 
0.131802 -0.0163568 0.999773 
0.133388 -0.0108715 1.00207 
0.123491 -0.00567951 1.00133 
0.125845 -0.000622698 1.00197 
0.129386 0.00419861 1.00046 
0.127965 0.00877054 1.00022 
0.128435 0.0137853 1.0012 
0.132385 0.018946 0.999141 
0.133222 0.0243015 0.999613 
0.132798 0.0297377 0.998495 
0.131035 0.0342521 0.998336 
0.130132 0.0392093 0.996969 
0.121904 0.0392985 0.999597 
0.114964 0.04136 1.00024 
0.113908 0.046041 1.00045 
0.1174 0.0509671 1.0007 
0.129311 0.0607 0.999396 
0.1311 0.0676965 0.997934 
0.142654 0.0789862 0.993718 
0.139977 0.0834787 0.994165 
0.157627 0.0989979 0.986667 
0.16615 0.111921 0.984892 
0.159022 0.114876 0.987884 
0.186605 0.137309 0.971323 
0.176482 -0.150598 0.972174 
0.149607 -0.12305 0.987998 
0.158277 -0.120087 0.987993 
0.157222 -0.113815 0.984593 
0.133502 -0.0926585 0.99377 
0.133446 -0.0865379 0.995127 
0.125116 -0.0760076 0.998209 
0.11835 -0.0660729 1.00025 
0.10588 -0.0554389 1.00112 
0.108031 -0.0518225 1.00089 
0.119909 -0.0545639 0.997438 
0.124357 -0.051122 0.99864 
0.129256 -0.0475954 0.999707 
0.134803 -0.0443 0.998578 
0.107421 -0.0314199 1.00373 
0.105802 -0.0262372 1.00351 
0.0985051 -0.0205647 1.00508 
0.0993409 -0.0169392 1.00499 
0.0933757 -0.0124764 1.00377 
0.0975544 -0.00928779 1.00483 
0.081525 -0.00457229 1.00653 
0.0833376 -0.00128139 1.00655 
0.089197 0.00217074 1.00576 
0.0880705 0.00530737 1.00616 
0.0893573 0.00892557 1.00633 
0.0960737 0.0134348 1.00565 
0.0994186 0.0178392 1.00407 
0.104209 0.0227925 1.0044 
0.110078 0.0288804 1.00292 
0.10836 0.0326146 1.00364 
0.127359 0.0439314 1.00067 
0.127966 0.0480487 0.998385 
0.125476 0.0529504 0.997871 
0.114497 0.0517388 0.999638 
0.108658 0.0528754 1.00155 
0.109384 0.0579948 1.00092 
0.125456 0.0708439 0.999022 
0.123918 0.0764955 0.998535 
0.134462 0.0867921 0.994645 
0.150205 0.103383 0.988024 
0.157998 0.118844 0.983352 
0.153291 0.120569 0.988746 
0.178173 0.147301 0.971953 
0.173043 -0.158718 0.970804 
0.145643 -0.128928 0.988845 
0.149252 -0.127932 0.983876 
0.153846 -0.120558 0.983854 
0.130716 -0.0982758 0.994446 
0.119795 -0.0858825 0.9983 
0.117413 -0.0790661 0.998988 
0.102113 -0.0644002 1.00113 
0.102831 -0.059599 1.00115 
0.112261 -0.0619006 0.998626 
0.119942 -0.0611828 1.00042 
0.115716 -0.054637 1.00096 
0.108135 -0.0463582 1.00266 
0.104336 -0.0400243 1.00293 
0.104073 -0.0352318 1.00219 
0.0662996 -0.0206916 1.00762 
0.0641252 -0.0172196 1.00744 
0.0580498 -0.0128217 1.00704 
0.0546327 -0.00969497 1.00773 
0.047886 -0.00652938 1.00984 
0.0481707 -0.00459516 1.00763 
0.0412348 -0.00223933 1.00805 
0.0428018 -0.000442082 1.00785 
0.0433925 0.00125897 1.00792 
0.0457988 0.00316933 1.00813 
0.0471536 0.00522188 1.00823 
0.0507838 0.00770768 1.00725 
0.0572145 0.011087 1.00762 
0.0655309 0.0155236 1.0073 
0.0645058 0.0177228 1.00744 
0.0827921 0.0270469 1.00617 
0.100984 0.0371748 1.0022 
0.110107 0.0455193 1.00161 
0.107108 0.0492835 1.00197 
0.124283 0.0585442 0.998695 
0.116476 0.0587855 0.998116 
0.112479 0.0620077 0.998983 
0.104536 0.061828 1.00093 
0.101219 0.0654915 1.00149 
0.123625 0.0834339 0.997508 
0.128458 0.0932537 0.994736 
0.133388 0.104658 0.992367 
0.151156 0.123574 0.984093 
0.152424 0.129333 0.986302 
0.170751 0.150764 0.974379 
0.171361 0.153701 0.973208 
0.167831 -0.166087 0.970276 
0.138258 -0.131371 0.989173 
0.145637 -0.134041 0.983423 
0.122257 -0.108703 0.99351 
0.127539 -0.104097 0.9932 
0.11767 -0.0931394 0.997365 
0.100001 -0.0739012 1.00073 
0.0980085 -0.0672489 1.00145 
0.104851 -0.0689924 0.999605 
0.111126 -0.067917 0.999419 
0.113325 -0.0665952 0.997831 
0.111261 -0.0604996 1.00045 
0.0969331 -0.0488332 1.00378 
0.0743614 -0.03389 1.0058 
0.0623947 -0.0255375 1.00776 
0.0581694 -0.0209671 1.00833 
0.0312791 -0.00998673 1.00786 
0.0283595 -0.00770884 1.00719 
0.0244043 -0.00551477 1.00736 
0.0227014 -0.00413266 1.00739 
0.0165557 -0.00232248 1.00807 
0.0158735 -0.00158337 1.00621 
0.0159869 -0.000989747 1.00824 
0.0166236 -0.000279161 1.00823 
0.0143356 0.000439188 1.00793 
0.0166815 0.00115095 1.0079 
0.0182787 0.00199335 1.00781 
0.0190817 0.00301118 1.00716 
0.0233181 0.00472783 1.00918 
0.0324938 0.00770224 1.00637 
0.0262195 0.00755128 1.00699 
0.0442287 0.0142649 1.00734 
0.0559274 0.0207449 1.00738 
0.0682283 0.0283603 1.00851 
0.067478 0.0313876 1.00569 
0.0986599 0.0502169 1.00485 
0.117226 0.0619675 0.999447 
0.116267 0.0674119 0.999481 
0.108147 0.0669525 0.999591 
0.105024 0.0709066 0.999691 
0.0971602 0.0683494 1.00108 
0.113311 0.0843291 0.999523 
0.114961 0.0910847 0.998605 
0.122808 0.102534 0.995513 
0.136746 0.119286 0.987208 
0.143486 0.130989 0.985671 
0.14003 0.135595 0.988209 
0.168746 0.166787 0.968696 
0.159146 -0.174392 0.970052 
0.133754 -0.138899 0.988816 
0.140545 -0.140775 0.98384 
0.122016 -0.11678 0.991729 
0.108108 -0.100672 0.997897 
0.116694 -0.0997064 0.996552 
0.0968778 -0.0785077 1.00065 
0.0952225 -0.0740822 1.00018 
0.102457 -0.0746578 0.999193 
0.109298 -0.0764863 0.997081 
0.10372 -0.0671102 1.00313 
0.0830794 -0.0508192 1.00534 
0.0760779 -0.0427935 1.00602 
0.0603176 -0.03086 1.00694 
0.0381282 -0.0179145 1.00899 
0.0280414 -0.0119793 1.00812 
0.0245377 -0.00901221 1.00673 
0.0101188 -0.00344558 1.00705 
0.00957865 -0.00283127 1.00793 
0.00665065 -0.00166114 1.00653 
0.00616758 -0.00126463 1.00797 
0.00410846 -0.000628392 1.00683 
0.00346249 -0.00035609 1.0082 
0.00434893 -0.00026471 1.00754 
0.00409979 -1.72877e-05 1.00724 
0.00314981 0.000152511 1.0073 
0.00396467 0.00032359 1.00766 
0.00513539 0.00062764 1.00762 
0.00449562 0.000851097 1.00711 
0.00703118 0.0015834 1.00791 
0.011477 0.00294126 1.0077 
0.00930682 0.00288324 1.00917 
0.0214421 0.00747437 1.00708 
0.0262219 0.0103379 1.00761 
0.030354 0.01348 1.00796 
0.0474473 0.0237204 1.00739 
0.0627286 0.0340493 1.00596 
0.0886884 0.0510281 1.00386 
0.0862198 0.0542215 1.00467 
0.1098 0.0701654 0.999455 
0.105483 0.0732993 0.998247 
0.102146 0.0740175 0.999474 
0.0923234 0.0707031 1.00238 
0.0932245 0.0769345 1.00005 
0.110272 0.0955752 0.998687 
0.115862 0.104798 0.994481 
0.130274 0.123794 0.990203 
0.141026 0.142955 0.981813 
0.133099 0.140324 0.989864 
0.153286 0.175479 0.970527 
0.149023 -0.178165 0.971753 
0.127344 -0.144592 0.988943 
0.136015 -0.147759 0.982623 
0.120488 -0.125302 0.9908 
0.108099 -0.107927 0.996768 
0.0975802 -0.0939226 0.999903 
0.101681 -0.0895591 0.999613 
0.0919123 -0.0776517 1.00221 
0.103533 -0.0848943 0.996533 
0.103749 -0.0794246 1.00185 
0.0891353 -0.063618 1.0029 
0.0703499 -0.0471375 1.00586 
0.0447251 -0.0280248 1.00768 
0.0400016 -0.0228224 1.00776 
0.026746 -0.0140467 1.00807 
0.014016 -0.00693357 1.00702 
0.00806165 -0.00369417 1.00664 
0.00796296 -0.00326992 1.00918 
0.00240917 -0.000969182 1.00593 
0.00193727 -0.000728176 1.00864 
0.000860975 -0.000374207 1.00578 
0.000579546 -0.000237946 1.00859 
0.00015066 -0.000123069 1.00557 
0.00015439 -6.52434e-05 1.00803 
0.000358117 -3.09615e-06 1.00643 
0.00022713 5.16483e-05 1.00656 
9.91802e-05 3.01855e-05 1.00703 
0.000377796 4.52177e-05 1.00692 
0.000528579 0.00013524 1.00698 
0.000505205 0.000191834 1.00725 
0.0012374 0.000352292 1.00521 
0.00291068 0.000859866 1.0072 
0.00141297 0.000525397 1.00727 
0.00523497 0.00196936 1.00665 
0.00814026 0.00331782 1.00651 
0.00976033 0.00445104 1.00878 
0.0208152 0.0103427 1.00667 
0.0275425 0.0152489 1.00936 
0.0477946 0.0286024 1.00758 
0.04849 0.0318902 1.00715 
0.0777896 0.0535865 1.00704 
0.107981 0.0809525 0.998631 
0.100139 0.0796864 0.999566 
0.0957044 0.0814207 0.999112 
0.0895118 0.0806285 1.00191 
0.108068 0.101431 0.997804 
0.110581 0.109506 0.995825 
0.121271 0.125873 0.990825 
0.130756 0.142933 0.98494 
0.132055 0.152722 0.984682 
0.143747 0.174303 0.975345 
0.141176 -0.180468 0.973415 
0.124929 -0.151781 0.987395 
0.126859 -0.148505 0.984134 
0.109366 -0.122927 0.993271 
0.103394 -0.110781 0.99692 
0.0931687 -0.0960219 0.99943 
0.0826501 -0.08308 1.00045 
0.0867712 -0.0799091 0.999689 
0.0955357 -0.088228 0.999056 
0.100332 -0.0882366 0.999292 
0.0851868 -0.0703376 1.0031 
0.0732975 -0.0564101 1.00547 
0.0463657 -0.0336583 1.00739 
0.0313647 -0.0212642 1.00764 
0.0172648 -0.0108198 1.00743 
0.0128537 -0.00737626 1.0072 
0.00595771 -0.00322659 1.00761 
0.00234842 -0.00121896 1.00685 
0.00127515 -0.000735667 1.00761 
0.00022557 -0.00024282 1.00695 
-0.000128774 -0.00011312 1.00693 
-0.00040574 -8.89537e-06 1.00678 
-0.000533414 -3.84479e-05 1.00742 
-0.00059165 -4.62496e-05 1.00714 
-0.000606207 -5.2759e-05 1.00712 
-0.000580604 -1.48079e-05 1.00685 
-0.000543457 1.61633e-05 1.00714 
-0.000521236 -1.45846e-05 1.00726 
-0.000472051 -2.81427e-05 1.00647 
-0.000462594 3.35274e-05 1.00698 
-0.000454066 4.55481e-05 1.00744 
-0.000420305 -1.97831e-05 1.00895 
-6.27905e-05 5.5507e-05 1.00665 
-0.000295899 1.58321e-05 1.00686 
0.000734068 0.000377902 1.00739 
0.00198624 0.000928861 1.00708 
0.002647 0.00130207 1.00719 
0.0082465 0.00433882 1.00658 
0.00896892 0.00522114 1.00689 
0.0197323 0.0122307 1.00756 
0.0233933 0.0160328 1.00573 
0.0448101 0.0326577 1.00761 
0.0819419 0.0614311 1.00465 
0.0921877 0.0746792 1.00258 
0.0953186 0.0822228 1.00046 
0.0978942 0.0901075 0.999254 
0.0855043 0.0822206 1.00125 
0.0951586 0.0965829 1.00154 
0.104919 0.112222 0.994981 
0.107156 0.119877 0.99564 
0.117383 0.138605 0.987429 
0.125 0.15342 0.98592 
0.145621 0.18071 0.971701 
0.13467 -0.185308 0.973181 
0.119942 -0.158371 0.986367 
0.11745 -0.149123 0.985474 
0.103229 -0.125614 0.994062 
0.099967 -0.115962 0.99688 
0.0852394 -0.0961691 1.00006 
0.077684 -0.0853123 1.00227 
0.0937758 -0.0931556 0.998702 
0.0821471 -0.0782439 1.00246 
0.0730977 -0.0651273 1.0047 
0.0472912 -0.0394045 1.00742 
0.0318862 -0.0250281 1.00787 
0.0165252 -0.0122619 1.00753 
0.0107713 -0.00744456 1.00755 
0.00439914 -0.00287315 1.0071 
0.00229873 -0.00139336 1.00696 
0.000577105 -0.000360561 1.00698 
-5.52962e-05 -4.74605e-05 1.00691 
-0.000397887 8.50637e-05 1.00699 
-0.00052345 8.64873e-05 1.00713 
-0.000563767 4.5946e-05 1.00675 
-0.000537119 2.34325e-05 1.00689 
-0.00047342 -2.10141e-05 1.00665 
-0.000447645 -5.32717e-05 1.00706 
-0.00041967 -6.10495e-05 1.00693 
-0.000375206 -4.0089e-05 1.00687 
-0.000374539 -1.3089e-05 1.00722 
-0.000397523 -3.95549e-05 1.00724 
-0.000423684 -2.36176e-06 1.00662 
-0.000414857 5.97775e-05 1.00704 
-0.000477128 2.80212e-05 1.00571 
-0.000482214 3.83101e-06 1.00712 
-0.000579136 -7.95035e-05 1.0077 
-0.000625955 -9.35208e-05 1.00701 
-0.00044494 -0.000105892 1.00737 
4.43911e-05 6.56634e-05 1.00725 
5.16788e-05 5.60245e-05 1.0072 
0.00171084 0.000983458 1.00714 
0.00243962 0.00158462 1.00715 
0.00771782 0.00518443 1.00894 
0.0123652 0.00904533 1.00848 
0.0260569 0.0202288 1.0077 
0.0552581 0.043883 1.00496 
0.055627 0.0475208 1.00853 
0.0836821 0.0764354 1.00155 
0.0958824 0.0933105 1.00037 
0.0844221 0.0851674 0.998766 
0.0825183 0.088289 1.00147 
0.0907605 0.102059 0.999396 
0.0946846 0.110979 0.998538 
0.101621 0.124477 0.994613 
0.11801 0.150395 0.984755 
0.120835 0.158749 0.98787 
0.134971 0.187644 0.971418 
0.127616 -0.190726 0.972531 
0.113124 -0.162548 0.987442 
0.113093 -0.156244 0.984968 
0.0959454 -0.127308 0.994439 
0.0918706 -0.116577 0.997667 
0.0821017 -0.100721 1.0004 
0.0766362 -0.0914416 1.00055 
0.0871402 -0.0998333 0.997114 
0.0908616 -0.0966675 0.999003 
0.0732021 -0.0751768 1.00355 
0.0473897 -0.0456443 1.00709 
0.0367838 -0.033092 1.00752 
0.0170537 -0.0146475 1.00744 
0.00980296 -0.00791296 1.00727 
0.00444929 -0.0034214 1.00723 
0.00207805 -0.00154333 1.00699 
0.000304073 -0.000267355 1.00687 
-0.000138578 4.39471e-05 1.007 
-0.000421075 0.000149973 1.00729 
-0.000460641 0.000119002 1.00649 
-0.000406139 0.000122016 1.00665 
-0.000369393 5.35001e-05 1.00685 
-0.000287674 -3.873e-05 1.00687 
-0.000175202 -9.4487e-05 1.00647 
-6.73336e-05 -9.67144e-05 1.00634 
-9.49972e-06 -0.000107217 1.00683 
6.9995e-05 -0.000100162 1.00699 
0.000134779 -4.32176e-05 1.00681 
7.71661e-05 7.69143e-06 1.00722 
3.19263e-05 6.44338e-05 1.00703 
-3.53751e-05 6.16054e-05 1.00832 
-0.000174671 8.59389e-05 1.00614 
-0.000174162 7.79667e-05 1.00699 
-0.00038779 -7.43651e-07 1.00666 
-0.00032801 6.53325e-06 1.00638 
-0.000566863 -0.000157727 1.00687 
-0.000513345 -0.000213907 1.00734 
-0.00051168 -0.000246608 1.00699 
-3.55027e-05 -1.08764e-06 1.00759 
-2.18155e-05 3.60349e-05 1.00692 
0.00136844 0.00102886 1.00579 
0.00362049 0.00272142 1.00696 
0.00876858 0.00704755 1.00888 
0.0226428 0.0192023 1.00749 
0.0406921 0.0376471 1.00811 
0.0662939 0.0642067 1.00473 
0.0745911 0.0769548 1.00404 
0.0944946 0.0993772 0.997988 
0.086552 0.0963171 0.99865 
0.0757653 0.0882416 1.00241 
0.0829961 0.100399 0.998793 
0.0887711 0.112855 0.998735 
0.0991525 0.128578 0.994098 
0.11444 0.155537 0.984352 
0.112965 0.159513 0.987302 
0.124268 0.188212 0.975244 
0.118752 -0.19428 0.973924 
0.108944 -0.169284 0.985963 
0.105831 -0.159028 0.985083 
0.0944078 -0.136286 0.993413 
0.0893401 -0.123312 0.997594 
0.0745483 -0.0995379 1.00084 
0.0725347 -0.0935325 1.00069 
0.0834943 -0.103208 0.999124 
0.0759351 -0.0884858 1.00233 
0.0689163 -0.0760596 1.00425 
0.0382654 -0.03973 1.0076 
0.0193111 -0.0187056 1.0078 
0.0103695 -0.00957622 1.00735 
0.00381715 -0.00337085 1.00686 
0.00187285 -0.00162219 1.00695 
0.00044062 -0.000449066 1.00657 
-0.000254564 0.000105793 1.00688 
-0.000429978 0.000226599 1.00689 
-0.000465229 0.000210017 1.00701 
-0.000350147 7.96078e-05 1.00644 
-0.0002384 7.51033e-06 1.00609 
-3.64506e-05 -8.56898e-05 1.00628 
7.88888e-05 -7.17399e-05 1.00688 
0.000193031 -0.000166674 1.00474 
0.000281368 -0.000184857 1.00881 
0.000363579 -0.000181156 1.00694 
0.000412529 -0.000145724 1.00757 
0.00041262 -0.000133912 1.00761 
0.000434645 -4.43459e-06 1.00703 
0.000411073 8.74024e-05 1.00721 
0.000398816 0.000128239 1.0057 
0.000372061 0.000150696 1.00756 
0.000213916 0.000140551 1.00661 
0.000288394 0.000182766 1.00643 
3.63953e-05 0.000167581 1.00618 
9.81395e-05 0.000171704 1.00655 
-0.000248929 -4.70596e-05 1.00639 
-0.000471777 -0.000200495 1.00678 
-0.000454569 -0.000250339 1.00698 
-0.00048475 -0.000283272 1.00708 
-0.000447583 -0.000258975 1.0072 
0.000168131 0.000215507 1.00824 
0.00174404 0.00145128 1.006 
0.00406541 0.00358164 1.00692 
0.0135614 0.0123424 1.00719 
0.0158034 0.0154491 1.0077 
0.0333076 0.0336194 1.00839 
0.0494807 0.0534393 1.00631 
0.0793456 0.0891682 1.0015 
0.0864513 0.102621 0.999246 
0.076825 0.0973255 1.00081 
0.0726101 0.0965335 1.00137 
0.0845483 0.116258 0.999291 
0.0941018 0.131074 0.994323 