# vtk DataFile Version 3.0 
Exported using Morpho https://github.com/Morpho-lang/morpho 
ASCII 
DATASET UNSTRUCTURED_GRID 

POINTS 3402 float 
-1.58829 -6.89038 -3.82546e-12 
-1.38781 -6.93354 -1.49663e-12 
-1.18471 -6.97112 -8.39403e-12 
-0.969682 -7.00426 5.92972e-11 
-0.727884 -7.0335 -4.51577e-11 
-0.524072 -7.05162 7.9088e-11 
-0.302825 -7.06458 1.17768e-11 
-0.0938203 -7.07045 1.07985e-11 
0.116032 -7.07012 -8.01772e-12 
0.335681 -7.0631 -1.11936e-11 
0.531494 -7.05106 3.7858e-11 
0.737557 -7.0325 -2.30606e-11 
0.943392 -7.00785 1.79913e-11 
1.16545 -6.97436 -8.90099e-11 
1.37825 -6.93545 2.16995e-11 
1.61002 -6.88533 -1.04254e-11 
-2.43412 -6.63891 -1.28823e-11 
-2.22245 -6.71273 5.89133e-11 
-2.01202 -6.77877 -6.64546e-12 
-1.80466 -6.8369 4.01027e-11 
-1.56852 -6.6683 1.07983e-14 
-1.34322 -6.69643 6.315e-14 
-1.13206 -6.74195 1.6264e-14 
-0.900791 -6.80149 -7.14535e-14 
-0.68067 -6.79297 1.01135e-13 
-0.46128 -6.8265 -1.66385e-14 
-0.251218 -6.81857 -2.995e-15 
-0.0418592 -6.82093 -1.18786e-14 
0.174621 -6.83438 8.69141e-15 
0.380312 -6.80236 1.9393e-14 
0.585006 -6.79803 -4.82186e-16 
0.790576 -6.77845 -1.92468e-14 
1.00886 -6.76856 -6.40031e-15 
1.22675 -6.72205 6.44629e-15 
1.44826 -6.70032 -1.96644e-14 
1.687 -6.65968 -2.40317e-14 
1.85604 -6.82313 -6.03952e-11 
2.04904 -6.76768 8.33151e-11 
2.2816 -6.69285 -5.12935e-11 
-2.85683 -6.46827 3.92454e-11 
-2.65452 -6.55389 1.09856e-11 
-2.44439 -6.41644 -1.18353e-14 
-2.21642 -6.48222 -2.3283e-14 
-1.99868 -6.54676 -2.03582e-14 
-1.78169 -6.60429 -5.21499e-14 
-1.54005 -6.43961 -1.55995e-14 
-1.32992 -6.47352 -6.22523e-14 
-1.11301 -6.50395 -8.09762e-14 
-0.908721 -6.57452 2.32065e-14 
-0.70508 -6.54812 -8.01742e-14 
-0.492192 -6.59067 3.14629e-14 
-0.277058 -6.57293 1.8552e-14 
-0.0688187 -6.5733 8.66712e-15 
0.144047 -6.59119 -1.88661e-14 
0.357589 -6.56497 -2.46556e-14 
0.571611 -6.54833 1.63185e-15 
0.78971 -6.54396 2.25182e-14 
1.01239 -6.53595 1.70367e-14 
1.23287 -6.48907 3.74152e-14 
1.46682 -6.4839 6.21576e-15 
1.67728 -6.41891 -2.21729e-14 
1.88878 -6.55128 -2.13926e-14 
2.11012 -6.53408 4.32277e-14 
2.32854 -6.44977 9.24077e-14 
2.4989 -6.61479 6.89267e-12 
2.67676 -6.54484 2.94049e-11 
2.91591 -6.44185 -1.17696e-10 
-3.28463 -6.26189 3.74073e-11 
-3.09313 -6.35866 6.84882e-12 
-2.88793 -6.24604 -1.41398e-14 
-2.65339 -6.30814 -9.46139e-14 
-2.39515 -6.2042 5.1715e-14 
-2.18136 -6.26884 3.19554e-14 
-1.96275 -6.32315 5.82256e-15 
-1.75126 -6.37819 4.56343e-14 
-1.55046 -6.2057 -1.00937e-14 
-1.33612 -6.2373 -8.99365e-15 
-1.1272 -6.27013 1.55292e-14 
-0.911493 -6.32696 3.00859e-14 
-0.698419 -6.31036 4.47291e-14 
-0.489043 -6.35424 -2.16133e-14 
-0.281551 -6.32869 -2.15762e-14 
-0.0725994 -6.32542 -1.50697e-14 
0.134179 -6.35105 -1.26405e-14 
0.342127 -6.32305 2.36244e-14 
0.551675 -6.31023 2.42948e-14 
0.765022 -6.30998 -7.6112e-15 
0.98089 -6.31112 -2.80366e-14 
1.18962 -6.25687 -1.98325e-14 
1.40782 -6.26601 -9.74202e-15 
1.62411 -6.20294 1.95033e-14 
1.87943 -6.30592 9.50059e-15 
2.08494 -6.31276 2.83339e-14 
2.27605 -6.21619 -2.23815e-14 
2.51102 -6.32993 -1.04952e-13 
2.73251 -6.31367 9.1887e-14 
2.9776 -6.21447 6.55291e-14 
3.16155 -6.32492 1.48816e-11 
3.37886 -6.21155 -9.47079e-13 
-3.71605 -6.01589 3.52736e-11 
-3.52402 -6.13036 2.72294e-12 
-3.31312 -6.03937 -1.90253e-14 
-3.0806 -6.10108 -5.45961e-14 
-2.82773 -6.03239 -1.57028e-14 
-2.6155 -6.10035 6.89907e-14 
-2.41704 -5.97365 1.30402e-14 
-2.19903 -6.03296 -3.23364e-14 
-1.98515 -6.09015 1.57183e-14 
-1.76645 -6.14106 -3.26765e-14 
-1.54928 -5.98148 2.47354e-14 
-1.32972 -6.01036 3.52002e-14 
-1.11411 -6.03312 1.99134e-14 
-0.909984 -6.09442 8.08765e-15 
-0.703131 -6.0708 -4.74548e-14 
-0.493668 -6.11305 1.7281e-14 
-0.283386 -6.08812 3.38063e-14 
-0.0746096 -6.08368 -1.91631e-14 
0.136222 -6.10637 1.67727e-14 
0.346275 -6.08237 7.311e-15 
0.561586 -6.07485 1.05399e-14 
0.77628 -6.07725 -1.44557e-14 
0.986739 -6.07305 -1.2661e-14 
1.19509 -6.01694 6.75845e-15 
1.4017 -6.03767 -1.38389e-14 
1.61221 -5.97175 -3.59971e-14 
1.82932 -6.08876 -1.4375e-14 
2.05301 -6.06987 -3.30906e-14 
2.27264 -5.99448 2.36907e-14 
2.49427 -6.10772 4.23852e-14 
2.73497 -6.10843 1.89288e-14 
2.96304 -6.00544 -8.83071e-15 
3.20305 -6.07627 2.6503e-15 
3.41178 -5.95457 6.60169e-14 
3.58508 -6.09485 -6.60054e-11 
-3.94277 -5.8698 -6.31669e-11 
-3.7282 -5.7915 2.18442e-14 
-3.50369 -5.88005 -6.37043e-14 
-3.26131 -5.82558 7.68308e-14 
-3.04358 -5.89202 1.69442e-14 
-2.84786 -5.79191 3.46202e-14 
-2.63687 -5.85881 -1.607e-14 
-2.41512 -5.75372 -6.22973e-14 
-2.19493 -5.80592 6.11367e-15 
-1.98222 -5.85898 2.02244e-15 
-1.76955 -5.91476 2.47384e-14 
-1.55694 -5.7601 7.42707e-15 
-1.33795 -5.78988 1.46863e-14 
-1.11789 -5.80647 8.40078e-15 
-0.901385 -5.85505 -3.95482e-14 
-0.693177 -5.83216 4.95522e-14 
-0.491223 -5.8767 -1.14402e-14 
-0.288151 -5.84464 -2.82171e-14 
-0.0844164 -5.84453 -1.65798e-14 
0.12589 -5.86862 -3.01068e-14 
0.342788 -5.85325 -1.32399e-14 
0.555091 -5.84222 -2.29226e-14 
0.765826 -5.84705 -1.36446e-14 
0.978073 -5.84082 8.72256e-15 
1.19427 -5.79307 -1.04166e-14 
1.41162 -5.803 -1.54769e-14 
1.63284 -5.75102 1.33994e-14 
1.84141 -5.86793 1.3526e-14 
2.05713 -5.84472 5.81632e-15 
2.2745 -5.77298 1.70894e-14 
2.49213 -5.88344 9.95067e-15 
2.71242 -5.90203 1.81583e-14 
2.92395 -5.79403 -6.20148e-15 
3.16651 -5.85912 -5.02595e-15 
3.3914 -5.74633 1.40881e-14 
3.63988 -5.85431 7.35351e-14 
3.81818 -5.9516 6.02253e-11 
3.99763 -5.83257 -4.05474e-12 
-4.38635 -5.54617 -3.88033e-11 
-4.13808 -5.73378 2.34347e-11 
-3.91911 -5.63294 6.88197e-14 
-3.68329 -5.57044 2.06081e-14 
-3.4826 -5.66694 -1.07437e-14 
-3.29297 -5.58166 -1.34581e-14 
-3.08186 -5.65291 -4.44223e-14 
-2.85285 -5.58043 1.62409e-14 
-2.62023 -5.62718 -3.02367e-14 
-2.39722 -5.52939 3.95663e-14 
-2.18968 -5.58361 2.78119e-14 
-1.97542 -5.62769 1.38174e-14 
-1.76882 -5.68474 2.03558e-14 
-1.57181 -5.53222 -2.21579e-14 
-1.36041 -5.57016 -2.59844e-14 
-1.1438 -5.5874 -3.68755e-14 
-0.92174 -5.62523 -1.28589e-14 
-0.698485 -5.61668 -2.78479e-14 
-0.476736 -5.63645 2.28606e-14 
-0.268679 -5.60642 1.34312e-14 
-0.05279 -5.61706 2.04509e-14 
0.160417 -5.64235 1.99607e-14 
0.376291 -5.62465 1.15313e-14 
0.590209 -5.61354 1.06066e-14 
0.801223 -5.62008 1.98219e-14 
1.01084 -5.61345 1.71694e-14 
1.24086 -5.57842 1.85163e-14 
1.44844 -5.57813 1.57606e-14 
1.65361 -5.51868 1.66499e-14 
1.84657 -5.64176 8.26355e-15 
2.05789 -5.62079 -8.19303e-15 
2.26341 -5.54808 -8.6351e-15 
2.48024 -5.65374 1.04945e-14 
2.69417 -5.67837 -8.2291e-15 
2.91746 -5.58088 -1.54459e-14 
3.14766 -5.65011 -1.28384e-14 
3.35211 -5.52823 -4.26291e-15 
3.59424 -5.63613 -1.54911e-14 
3.82241 -5.6716 -8.03679e-14 
4.03625 -5.58838 -1.05658e-14 
4.22493 -5.6701 -3.54528e-11 
-4.57822 -5.38887 -9.00496e-11 
-4.34395 -5.32064 1.26265e-13 
-4.16159 -5.51787 9.68016e-15 
-3.9305 -5.42614 -5.34537e-14 
-3.72323 -5.34805 6.08709e-15 
-3.49593 -5.41047 6.72265e-15 
-3.26739 -5.36377 1.56469e-14 
-3.05186 -5.4285 -4.82979e-15 
-2.83867 -5.34879 2.44406e-14 
-2.63505 -5.41418 -2.04306e-14 
-2.41963 -5.31983 9.28756e-15 
-2.19217 -5.3499 3.47077e-15 
-1.98992 -5.39871 -1.37791e-14 
-1.77876 -5.44869 -1.02491e-14 
-1.54323 -5.32116 4.48389e-16 
-1.32623 -5.3567 -4.44319e-15 
-1.11754 -5.36473 1.25097e-14 
-0.916959 -5.4136 7.06557e-15 
-0.723641 -5.37892 7.10771e-15 
-0.524451 -5.41576 -1.00811e-14 
-0.318521 -5.38428 5.35912e-15 
-0.102801 -5.39344 -6.07879e-15 
0.114197 -5.41158 -1.50003e-14 
0.3184 -5.4078 1.50168e-14 
0.531526 -5.39424 -7.62622e-15 
0.746714 -5.39406 -1.20546e-14 
0.951736 -5.39109 -7.11625e-15 
1.16018 -5.39231 -8.64814e-15 
1.39334 -5.35506 -1.20293e-16 
1.59032 -5.31259 -6.50518e-15 
1.84096 -5.3999 1.18094e-14 
2.03806 -5.39856 -2.4484e-14 
2.25861 -5.33926 -2.05073e-14 
2.4828 -5.43653 -1.09463e-14 
2.70426 -5.45523 9.55985e-16 
2.90771 -5.35234 -5.98184e-15 
3.11984 -5.42925 5.26241e-15 
3.3281 -5.31098 -1.84642e-14 
3.56624 -5.42309 -2.73674e-14 
3.79743 -5.44961 1.8889e-14 
4.02651 -5.37581 -2.64347e-14 
4.25844 -5.42241 5.42535e-14 
4.44806 -5.49679 -1.39871e-11 
-4.79486 -5.19705 9.67481e-13 
-4.56498 -5.17447 5.16766e-14 
-4.34503 -5.09651 -5.16938e-14 
-4.12268 -5.28907 -7.02021e-15 
-3.90937 -5.18526 1.32839e-14 
-3.68407 -5.12063 -9.75908e-15 
-3.4871 -5.19519 -2.14654e-14 
-3.27111 -5.14112 -1.94575e-14 
-3.05643 -5.20199 -9.61854e-15 
-2.8355 -5.13334 1.93345e-14 
-2.61663 -5.18407 -7.18976e-15 
-2.3726 -5.11906 1.22245e-14 
-2.15762 -5.13382 3.43185e-15 
-1.94883 -5.17458 -9.18044e-15 
-1.7507 -5.23298 -1.82181e-14 
-1.56178 -5.09594 -1.39401e-15 
-1.35416 -5.14382 -2.14029e-16 
-1.13909 -5.14696 1.57876e-15 
-0.927421 -5.17967 -1.24503e-15 
-0.713549 -5.16242 -7.01456e-15 
-0.506901 -5.18657 2.73346e-15 
-0.287878 -5.17148 6.39756e-15 
-0.0689915 -5.18316 -8.24975e-15 
0.135497 -5.18366 1.21343e-14 
0.346223 -5.18832 1.52547e-15 
0.56609 -5.18115 -6.36084e-15 
0.772549 -5.16868 3.12909e-15 
0.983812 -5.17404 -1.54376e-15 
1.2067 -5.19301 7.61315e-15 
1.41051 -5.123 5.69005e-15 
1.69032 -5.16591 -7.08571e-15 
1.89468 -5.17287 1.78271e-14 
2.10189 -5.17267 2.01344e-14 
2.29196 -5.08266 3.23172e-14 
2.45074 -5.21329 -2.10223e-14 
2.66384 -5.24051 9.74008e-15 
2.8701 -5.14666 1.1734e-14 
3.11166 -5.2013 -1.47262e-14 
3.33918 -5.09651 -7.52983e-15 
3.55957 -5.21845 -9.49181e-15 
3.79778 -5.23489 5.28096e-14 
4.01105 -5.15235 1.45102e-14 
4.23385 -5.20337 1.26705e-14 
4.46334 -5.24246 2.63709e-13 
4.65363 -5.32388 7.19506e-11 
4.79576 -5.19622 -6.11141e-11 
-4.9954 -5.0046 4.55637e-11 
-4.76476 -4.98046 -5.06271e-14 
-4.54568 -4.94684 -1.9155e-14 
-4.32132 -4.86736 8.94509e-15 
-4.12944 -5.06281 2.92046e-14 
-3.90407 -4.96954 -8.13904e-15 
-3.67216 -4.91267 1.29529e-14 
-3.44654 -4.96211 1.4826e-14 
-3.23408 -4.9104 6.55697e-15 
-3.0404 -4.98267 -1.37999e-14 
-2.85128 -4.89392 4.66773e-15 
-2.65244 -4.96278 -1.53554e-14 
-2.44355 -4.94484 -5.46457e-15 
-2.19453 -4.91878 1.40819e-14 
-1.97449 -4.94892 -5.1303e-15 
[...]
POINT_DATA 3402 
VECTORS vectors float
0.000414442 -7.76192e-05 1 
0.000512447 -6.59273e-05 1 
0.000416202 -5.47673e-05 1 
0.000317855 -1.73442e-05 1 
0.000335456 -9.4372e-06 1 
0.000504898 -3.76247e-05 1 
0.000362032 -5.67859e-08 1 
0.000451494 -5.696e-06 1 
0.000385462 -4.1793e-06 1 
0.000427878 2.90228e-05 1 
0.000550491 1.41285e-05 1 
0.000415976 5.49989e-05 1 
0.000387013 1.77393e-05 1 
0.000386834 4.64859e-05 1 
0.000420886 4.00431e-05 1 
0.000181332 -1.53353e-05 1 
0.000339462 -7.00675e-05 1 
0.000328693 -4.657e-05 1 
0.000444753 -8.71958e-05 1 
0.000323508 -4.10213e-05 1 
0.124771 -0.0294667 0.991748 
0.132858 -0.0266007 0.990778 
0.127984 -0.0217572 0.991538 
0.12184 -0.0161875 0.992418 
0.135363 -0.0137209 0.990701 
0.130412 -0.00914854 0.991418 
0.135347 -0.00526576 0.990784 
0.134523 -0.00129166 0.99091 
0.131864 0.00323104 0.991263 
0.139727 0.00811705 0.990157 
0.135216 0.0118511 0.990745 
0.134764 0.0159643 0.990749 
0.127315 0.0192943 0.991675 
0.13045 0.0240106 0.991164 
0.12146 0.0262093 0.99225 
0.11355 0.0292632 0.993101 
0.000416188 6.94177e-05 1 
0.000438722 5.99355e-05 1 
0.000167297 8.74655e-06 1 
0.000263901 -4.4514e-05 1 
0.000360452 -5.11029e-05 1 
0.114344 -0.0433524 0.992495 
0.119257 -0.0404338 0.99204 
0.124402 -0.0375569 0.991521 
0.125757 -0.0339481 0.99148 
0.160695 -0.0385423 0.986251 
0.162115 -0.0335859 0.9862 
0.161893 -0.0281756 0.986406 
0.1628 -0.0232757 0.986384 
0.162132 -0.0180836 0.986603 
0.162404 -0.0128695 0.98664 
0.160536 -0.00740618 0.987002 
0.160632 -0.00218156 0.987012 
0.161355 0.00328024 0.986891 
0.160482 0.00873563 0.987 
0.160956 0.0144237 0.986856 
0.160368 0.019941 0.986856 
0.161654 0.0256495 0.986514 
0.160609 0.0311137 0.986528 
0.160458 0.0365171 0.986367 
0.159869 0.0417231 0.986256 
0.133891 0.0384753 0.990249 
0.115901 0.0370173 0.992571 
0.117133 0.0428727 0.99219 
0.00049895 0.000135185 1 
0.000446043 0.000106563 1 
0.00010971 -6.90232e-05 1 
0.000301787 -5.31863e-05 1 
0.00029595 -2.96925e-05 1 
0.102425 -0.0470191 0.993629 
0.119313 -0.0498107 0.991606 
0.154864 -0.0587062 0.98619 
0.157071 -0.0537934 0.986121 
0.15871 -0.0486659 0.986125 
0.160057 -0.0435523 0.986147 
0.146426 -0.0363731 0.988553 
0.145711 -0.0312684 0.988833 
0.146579 -0.0267165 0.988838 
0.147827 -0.0217684 0.988774 
0.144894 -0.0166791 0.989307 
0.145429 -0.012162 0.989294 
0.143721 -0.00718879 0.989592 
0.141932 -0.00219534 0.989874 
0.144651 0.00289416 0.989479 
0.143578 0.00807701 0.989606 
0.143235 0.0132345 0.9896 
0.14461 0.0181027 0.989323 
0.145991 0.0228659 0.989022 
0.144818 0.0277037 0.98907 
0.147466 0.0331114 0.988513 
0.146715 0.0381742 0.988442 
0.158146 0.0470884 0.986292 
0.156185 0.0516013 0.986379 
0.154639 0.0566216 0.986347 
0.131969 0.0519856 0.98989 
0.105641 0.0448715 0.993391 
0.0966718 0.0460763 0.994249 
0.000208672 -9.04534e-06 1 
0.000383423 8.62203e-05 1 
0.000250257 -4.66293e-05 1 
0.000210629 2.70768e-06 1 
0.0965573 -0.0525501 0.993939 
0.119252 -0.059962 0.991052 
0.149003 -0.0691347 0.986417 
0.152978 -0.0649152 0.986095 
0.144524 -0.0577351 0.987815 
0.144608 -0.0517843 0.988133 
0.144381 -0.0462769 0.98844 
0.145294 -0.0413027 0.988526 
0.132065 -0.0335142 0.990674 
0.1313 -0.028773 0.990925 
0.132066 -0.0243574 0.990942 
0.131694 -0.0201031 0.991087 
0.131119 -0.0160382 0.991237 
0.130979 -0.0114258 0.991319 
0.129251 -0.00660888 0.99159 
0.128643 -0.00185933 0.991689 
0.129279 0.00293013 0.991604 
0.129839 0.00764605 0.991506 
0.128989 0.0122618 0.99157 
0.130788 0.0169791 0.991265 
0.130717 0.0213677 0.991189 
0.129876 0.0257363 0.991196 
0.131924 0.0303849 0.990794 
0.130634 0.0347578 0.990821 
0.141426 0.0421686 0.98905 
0.143285 0.0482939 0.988502 
0.143107 0.0543098 0.988216 
0.153549 0.0628947 0.986137 
0.148542 0.0663747 0.986676 
0.145788 0.0716455 0.986718 
0.105463 0.0555432 0.992871 
0.10674 0.0606893 0.992433 
0.000134973 -3.78874e-05 1 
0.000241836 -2.81415e-05 1 
0.0938182 -0.060231 0.993766 
0.111221 -0.0661609 0.991591 
0.142482 -0.0794126 0.986607 
0.147151 -0.0755134 0.986227 
0.14098 -0.0684689 0.987642 
0.139523 -0.0620791 0.988271 
0.128567 -0.0531255 0.990277 
0.12898 -0.0477936 0.990495 
0.129566 -0.0427519 0.990649 
0.131417 -0.0384124 0.990583 
0.123955 -0.0329355 0.991741 
0.124238 -0.0284602 0.991844 
0.123363 -0.0238418 0.992075 
0.124488 -0.0195449 0.992029 
0.124048 -0.0150579 0.992162 
0.124959 -0.010933 0.992102 
0.122626 -0.00642424 0.992432 
0.121685 -0.00183583 0.992567 
0.123307 0.00265902 0.992365 
0.122041 0.00726692 0.992499 
0.122661 0.0116422 0.99238 
0.12326 0.0161492 0.992243 
0.122737 0.0205376 0.992227 
0.122132 0.0249485 0.9922 
0.122977 0.0296421 0.991967 
0.122004 0.0342111 0.99194 
0.128346 0.0399844 0.990923 
0.128605 0.0450562 0.990672 
0.126818 0.0499662 0.990667 
0.138714 0.0586679 0.988593 
0.144348 0.0661134 0.987316 
0.143337 0.0716245 0.987079 
0.144935 0.0777508 0.986382 
0.141853 0.0830533 0.986397 
0.0913283 0.0565887 0.994212 
0.000261536 5.84817e-05 1 
0.00030216 7.12203e-05 1 
0.000114186 5.5219e-05 1 
0.000131817 4.32061e-05 1 
0.102226 -0.0708857 0.992232 
0.13598 -0.0897316 0.98664 
0.140072 -0.0860982 0.986391 
0.137298 -0.0807768 0.987231 
0.135497 -0.0734694 0.98805 
0.124618 -0.0631036 0.990196 
0.123544 -0.0568846 0.990707 
0.118176 -0.0504513 0.99171 
0.119664 -0.0458496 0.991755 
0.120948 -0.0413502 0.991797 
0.122467 -0.0372472 0.991773 
0.116061 -0.032922 0.992696 
0.116548 -0.0286593 0.992771 
0.112587 -0.0233557 0.993367 
0.115284 -0.0190543 0.99315 
0.11199 -0.0141799 0.993608 
0.112052 -0.00952628 0.993657 
0.108391 -0.00504864 0.994096 
0.107948 -0.000729819 0.994156 
0.111334 0.0035034 0.993777 
0.110398 0.00764222 0.993858 
0.111128 0.011797 0.993736 
0.112875 0.0162988 0.993475 
0.113993 0.0206398 0.993267 
0.112983 0.0251744 0.993278 
0.115575 0.0300013 0.992846 
0.113756 0.0340954 0.992923 
0.118467 0.0384382 0.992214 
0.120819 0.0439526 0.991701 
0.118672 0.0481319 0.991766 
0.124024 0.054264 0.990794 
0.127651 0.0600813 0.989998 
0.125979 0.0651599 0.989891 
0.137733 0.0760162 0.987548 
0.134974 0.080893 0.987542 
0.138502 0.0875667 0.986483 
0.110144 0.0734244 0.9912 
0.0887987 0.0634652 0.994026 
0.000117402 -7.77882e-05 1 
0.000176488 -3.29999e-05 1 
0.0936522 -0.0766739 0.992648 
0.077767 -0.0585385 0.995251 
0.130608 -0.0949216 0.98688 
0.133837 -0.0931488 0.986616 
0.12967 -0.0835693 0.988029 
0.119553 -0.072479 0.990179 
0.119513 -0.0668755 0.990578 
0.114221 -0.0601979 0.99163 
0.114866 -0.0555177 0.991828 
0.110516 -0.0500156 0.992615 
0.110254 -0.0448273 0.992892 
0.111714 -0.0407634 0.992904 
0.112501 -0.0364129 0.992984 
0.0966877 -0.0281983 0.994915 
0.0946559 -0.0236178 0.99523 
0.090449 -0.0189904 0.99572 
0.0929573 -0.0158217 0.995544 
0.0850693 -0.0113201 0.996311 
0.0884761 -0.00847706 0.996042 
0.0801466 -0.00459407 0.996772 
0.0799753 -0.00131296 0.996796 
0.0831842 0.0019952 0.996532 
0.0837912 0.0051067 0.99647 
0.0839005 0.00844503 0.996438 
0.0876234 0.0122717 0.996078 
0.0908964 0.0161676 0.995729 
0.0941241 0.0203747 0.995352 
0.0958087 0.025016 0.995085 
0.0958357 0.0287169 0.994983 
0.108085 0.0367749 0.993461 
0.110807 0.0417054 0.992967 
0.110109 0.0464299 0.992834 
0.114996 0.0521222 0.991998 
0.118223 0.0580941 0.991286 
0.115652 0.062246 0.991337 
0.12144 0.068995 0.990198 
0.118251 0.0730768 0.990291 
0.134124 0.0872463 0.987116 
0.134426 0.0933635 0.986515 
0.127121 0.0950487 0.987323 
0.0824374 0.0652854 0.994456 
4.8007e-05 -0.000128537 1 
7.32995e-05 4.31408e-05 1 
0.0791254 -0.0696974 0.994425 
0.121268 -0.103905 0.987167 
0.126171 -0.0985527 0.987101 
0.127722 -0.0964247 0.987112 
0.115213 -0.0827915 0.989885 
0.114616 -0.0767302 0.990442 
0.109955 -0.0697196 0.991488 
0.110174 -0.0645534 0.991814 
0.106001 -0.0584077 0.992649 
0.105368 -0.0532564 0.993006 
0.0987374 -0.0461317 0.994044 
0.0950537 -0.0403069 0.994656 
0.0923058 -0.0350539 0.995113 
0.0924959 -0.0311428 0.995226 
0.0661724 -0.0205114 0.997597 
0.0655117 -0.0173854 0.9977 
0.0596316 -0.0132828 0.998132 
0.0580082 -0.0104015 0.998262 
0.0523 -0.00711192 0.998606 
0.0531919 -0.0051452 0.998571 
0.0469562 -0.0025568 0.998894 
0.0485346 -0.000498915 0.998821 
0.0486123 0.00137856 0.998817 
0.050809 0.00349452 0.998702 
0.0521357 0.00579726 0.998623 
0.0545649 0.00823226 0.998476 
0.0591538 0.0113321 0.998185 
0.068414 0.0160189 0.997528 
0.0632292 0.0174621 0.997846 
0.0799349 0.0261748 0.996456 
0.088563 0.0327085 0.995533 
0.0961664 0.0393451 0.994587 
0.0935211 0.0426115 0.994705 
0.106302 0.0498478 0.993084 
0.110178 0.0556718 0.992351 
0.108001 0.0598872 0.992345 
0.111718 0.0661807 0.991534 
0.108982 0.0708539 0.991515 
0.117727 0.0795549 0.989854 
0.127577 0.0925012 0.987506 
0.129245 0.100772 0.986479 
0.124179 0.101239 0.987082 
0.084392 0.0727064 0.993777 
0.000372045 0.000242922 1 
0.000259622 0.000139543 1 
9.92423e-05 2.69339e-05 1 
0.0796491 -0.0759695 0.993924 
0.116889 -0.107503 0.98731 
0.121444 -0.108091 0.986695 
0.128126 -0.10479 0.986206 
0.112554 -0.0883738 0.989708 
0.105562 -0.0786939 0.991294 
0.10483 -0.0725478 0.99184 
0.101323 -0.0665864 0.992623 
0.101738 -0.0620701 0.992873 
0.0949166 -0.0555199 0.993936 
0.0944992 -0.051012 0.994217 
0.0860161 -0.0431512 0.995359 
0.0710045 -0.0322558 0.996954 
0.0632462 -0.0257592 0.997665 
0.0612614 -0.0220338 0.997879 
0.0376321 -0.011995 0.99922 
0.0360113 -0.00974125 0.999304 
0.031198 -0.00708216 0.999488 
0.0300589 -0.00546915 0.999533 
0.0241711 -0.0034329 0.999702 
0.0242978 -0.00246354 0.999702 
0.0227677 -0.00137132 0.99974 
0.0235478 -0.000369921 0.999723 
0.0221715 0.000635619 0.999754 
0.0240454 0.00166201 0.999709 
0.0260002 0.00288767 0.999658 
0.0264594 0.00416704 0.999641 
0.0310512 0.00613108 0.999499 
0.038303 0.0091381 0.999224 
0.0344774 0.00977683 0.999358 
0.0505905 0.0162898 0.998587 
0.0578584 0.0214923 0.998093 
0.0675425 0.0281104 0.99732 
0.0669613 0.0311829 0.997268 
0.0862019 0.0437342 0.995317 
0.0989405 0.0519847 0.993735 
0.0980852 0.056667 0.993563 
0.103831 0.0638478 0.992544 
0.100531 0.0673043 0.992655 
0.106505 0.0751333 0.991469 
0.110718 0.0822685 0.990441 
0.109927 0.0873474 0.990094 
0.120595 0.100808 0.98757 
0.123952 0.107844 0.986411 
0.106787 0.0968846 0.98955 
0.0748485 0.071134 0.994655 
-4.71723e-05 -0.000215106 1 
3.46482e-05 9.09125e-05 1 
0.0695214 -0.0720562 0.994975 
0.111376 -0.111244 0.987532 
0.119245 -0.114355 0.986257 
0.107386 -0.0993234 0.989244 
0.11145 -0.0945706 0.98926 
0.102301 -0.0830179 0.991283 
0.0976537 -0.076485 0.992277 
0.0974978 -0.0712358 0.992683 
0.0927104 -0.0645931 0.993596 
0.0890022 -0.0574216 0.994375 
0.0755647 -0.0460752 0.996076 
0.0712626 -0.0399185 0.996658 
0.0600461 -0.0307274 0.997723 
0.0431533 -0.0201636 0.998865 
0.0350871 -0.0147996 0.999275 
0.0328202 -0.0121728 0.999387 
0.0166413 -0.00561477 0.999846 
0.0160117 -0.00462338 0.999861 
0.012993 -0.00316437 0.999911 
0.0118499 -0.00233347 0.999927 
0.00887295 -0.00135248 0.99996 
0.00798507 -0.000832025 0.999968 
0.00889026 -0.000483864 0.99996 
0.00866579 -8.70972e-05 0.999962 
0.00753399 0.000260583 0.999972 
0.00873843 0.000688675 0.999962 
0.0100959 0.00125693 0.999948 
0.00982881 0.00166324 0.99995 
0.0127312 0.00271356 0.999915 
0.0177174 0.00447231 0.999833 
0.0169668 0.00521811 0.999842 
0.0289299 0.0100355 0.999531 
0.0333245 0.0132026 0.999357 
0.0383728 0.0168839 0.999121 
0.0507264 0.0254065 0.998389 
0.0625537 0.0339646 0.997464 
0.0807619 0.0462678 0.995659 
0.0772768 0.048292 0.995839 
0.0930677 0.0593315 0.99389 
0.0905745 0.0626635 0.993916 
0.0977479 0.0707482 0.992693 
0.100275 0.0770921 0.991969 
0.0999013 0.0823719 0.991582 
0.10502 0.0909353 0.990304 
0.116743 0.106089 0.98748 
0.118115 0.112679 0.986586 
0.107645 0.108683 0.988231 
0.0650047 0.0695358 0.995459 
6.06019e-05 -4.81674e-05 1 
0.000110672 1.98518e-05 1 
0.0690948 -0.0783842 0.994526 
0.105891 -0.114894 0.987718 
0.114596 -0.119431 0.986207 
0.10655 -0.106485 0.988589 
0.0952263 -0.0916549 0.991227 
0.0996955 -0.0875699 0.991157 
0.0948672 -0.0811578 0.992176 
0.089602 -0.0733597 0.993272 
0.0870919 -0.0664968 0.993978 
0.0779037 -0.0555144 0.995414 
0.0667946 -0.044738 0.996763 
0.0484742 -0.0302985 0.998365 
0.0446596 -0.0256072 0.998674 
0.034319 -0.0179838 0.999249 
0.0206719 -0.0100773 0.999736 
0.0142891 -0.0063953 0.999877 
0.0143895 -0.00570548 0.99988 
0.00613433 -0.002283 0.999979 
0.00527406 -0.00168315 0.999985 
0.00382566 -0.00104438 0.999992 
0.00323522 -0.000715663 0.999995 
0.00207787 -0.000379301 0.999998 
0.00189009 -0.000227614 0.999998 
0.00224021 -0.000127013 0.999997 
0.00206877 -2.83009e-06 0.999998 
0.00169612 9.09989e-05 0.999999 
0.00225533 0.000237356 0.999997 
0.00257218 0.000395435 0.999997 
0.00270612 0.00056311 0.999996 
0.00422576 0.0010416 0.999991 
0.00690466 0.0019299 0.999974 
0.0043627 0.00146003 0.999989 
0.0104692 0.00373827 0.999938 
0.0147238 0.00588568 0.999874 
0.0166274 0.00759303 0.999833 
0.0282513 0.0140502 0.999502 
0.034202 0.0190504 0.999233 
0.050406 0.0302829 0.99827 
0.0509494 0.0334663 0.99814 
0.0710703 0.0489575 0.996269 
0.0889119 0.0666791 0.993805 
0.0925436 0.0736404 0.992982 
0.0923871 0.0790427 0.992581 
0.0963776 0.0861678 0.991608 
0.100444 0.0942332 0.99047 
0.109766 0.10833 0.988037 
0.114664 0.118876 0.986266 
0.107354 0.117908 0.987205 
0.0774251 0.089277 0.992993 
0.000302725 0.000214372 1 
0.00016666 -5.75683e-05 1 
0.0733945 -0.0901046 0.993224 
0.103757 -0.121818 0.987114 
0.110165 -0.123558 0.986203 
0.100113 -0.108004 0.989097 
0.0921724 -0.0953638 0.991166 
0.0872442 -0.0880256 0.99229 
0.0935018 -0.0866648 0.99184 
0.0873273 -0.0806359 0.992911 
0.0837289 -0.0735987 0.993767 
0.0742013 -0.0611503 0.995367 
0.0674912 -0.0518464 0.996372 
0.0488124 -0.0354581 0.998178 
0.0370881 -0.0251587 0.998995 
0.023686 -0.0147584 0.999611 
0.0201633 -0.0115304 0.99973 
0.0116724 -0.00622902 0.999912 
0.00578467 -0.0028999 0.999979 
0.00422041 -0.00192089 0.999989 
0.00223175 -0.000988664 0.999997 
0.00128177 -0.000543227 0.999999 
0.000668911 -0.000319836 1 
0.000408902 -0.000209004 1 
9.47481e-05 -0.00012302 1 
2.21689e-05 -8.09605e-05 1 
5.81983e-05 -4.74601e-05 1 
8.71841e-05 -1.48603e-05 1 
2.39867e-05 1.07495e-05 1 
9.72294e-05 4.38902e-05 1 
0.000121621 7.54783e-05 1 
0.000267491 0.000128821 1 
0.000622516 0.000232925 1 
0.00126228 0.000429664 0.999999 
0.000815275 0.000355515 1 
0.00314531 0.0012616 0.999994 
0.00526526 0.00230598 0.999983 
0.00645868 0.00318172 0.999974 
0.0141351 0.00741857 0.999873 
0.0151733 0.00880782 0.999846 
0.026587 0.0165143 0.99951 
0.0299393 0.0205133 0.999341 
0.0476756 0.0346817 0.998261 
0.0724463 0.0541074 0.995904 
0.0785088 0.0635437 0.994886 
0.0825383 0.0710679 0.994051 
0.0870437 0.0802117 0.99297 
0.0925409 0.0889068 0.991732 
0.095242 0.0964976 0.990766 
0.0994752 0.105902 0.989388 
0.107606 0.120127 0.98691 
0.104857 0.123744 0.986759 
0.08119 0.0990107 0.991769 
5.92521e-05 -0.000103413 1 
0.000141076 8.72823e-06 1 
0.0702975 -0.0927308 0.993207 
0.100432 -0.127574 0.986731 
0.102275 -0.124642 0.986917 
0.094162 -0.109856 0.989477 
0.0877467 -0.098291 0.991282 
0.0843311 -0.0913787 0.992239 
0.0809117 -0.0801927 0.99349 
0.07137 -0.067836 0.99514 
0.0661877 -0.0588019 0.996073 
0.0488566 -0.0406288 0.997979 
0.0373689 -0.0293355 0.998871 
0.0229649 -0.0169396 0.999593 
0.0165966 -0.0113129 0.999798 
0.00853802 -0.00542483 0.999949 
0.00574372 -0.00339987 0.999978 
0.00257715 -0.00144687 0.999996 
0.00116147 -0.000647041 0.999999 
0.000203942 -0.000187502 1 
0.000143194 -0.000168443 1 
-0.000142403 -6.73946e-05 1 
-0.000231261 -6.441e-05 1 
-0.000268553 -6.63144e-05 1 
-0.000258952 -6.98042e-05 1 
-0.000236714 -6.08246e-05 1 
-0.000220797 -3.93877e-05 1 
-0.000211948 -1.9015e-05 1 
-0.000212469 9.68973e-06 1 
-0.000206186 3.10441e-05 1 
-0.000220854 4.55352e-05 1 
-0.000224829 5.49196e-05 1 
-0.000248547 4.02314e-05 1 
-8.29588e-05 7.90429e-05 1 
-0.000174215 3.22144e-05 1 
0.000458611 0.000259953 1 
0.00124374 0.000617727 0.999999 
0.00144607 0.00077695 0.999999 
0.00468442 0.00261865 0.999986 
0.0061261 0.00380412 0.999974 
0.0133294 0.00881255 0.999872 
0.0183612 0.0134454 0.999741 
0.0313575 0.0242718 0.999213 
0.0551081 0.0438447 0.997517 
0.0558399 0.0481013 0.99728 
0.0723775 0.0660716 0.995186 
0.0805704 0.0783221 0.993667 
0.08646 0.0877691 0.992382 
0.0877355 0.0937877 0.991719 
0.0886383 0.0993846 0.991093 
0.0950789 0.110951 0.989267 
0.0997927 0.122476 0.987442 
0.100141 0.127621 0.986755 
0.0582859 0.076123 0.995393 
6.56948e-05 -0.000127687 1 
8.93014e-05 8.83899e-05 1 
0.064315 -0.0920253 0.993677 
0.0950007 -0.131057 0.986813 
0.0972604 -0.129115 0.986848 
0.0880147 -0.112196 0.98978 
0.0838973 -0.102091 0.991231 
0.0804301 -0.0949864 0.992224 
0.0760683 -0.0869578 0.993304 
0.0767606 -0.0821721 0.993658 
0.0652993 -0.0669089 0.99562 
0.0481514 -0.0464638 0.997759 
0.0407094 -0.0365609 0.998502 
0.0233948 -0.0200428 0.999525 
0.0159053 -0.0127872 0.999792 
0.00876398 -0.00658436 0.99994 
0.00528244 -0.00370546 0.999979 
0.00181464 -0.00124331 0.999998 
0.000962794 -0.00063368 0.999999 
0.000218166 -0.000186245 1 
-0.000157457 -3.398e-06 1 
-0.000219182 -7.8498e-06 1 
-0.000228596 -1.2736e-05 1 
-0.000186713 -4.51481e-05 1 
-0.00013216 -7.57447e-05 1 
-0.000101021 -9.55594e-05 1 
-6.24148e-05 -9.18786e-05 1 
-5.46279e-05 -6.75461e-05 1 
-5.90027e-05 -3.67248e-05 1 
-7.32374e-05 9.98204e-07 1 
-6.15003e-05 3.2482e-05 1 
-7.11351e-05 7.09286e-05 1 
-0.000112842 7.80952e-05 1 
-0.000172342 7.05873e-05 1 
-0.000237888 3.64093e-05 1 
-0.000199422 2.09705e-05 1 
-0.000253924 -2.42288e-05 1 
-0.00010061 7.98196e-06 1 
4.69387e-05 5.45057e-05 1 
0.00116783 0.000723696 0.999999 
0.00111157 0.000771718 0.999999 
0.00389285 0.0027066 0.999989 
0.00767209 0.00565848 0.999955 
0.0144029 0.0116375 0.999829 
0.030188 0.0255141 0.999219 
0.0431116 0.0396659 0.998283 
0.060401 0.0586931 0.996447 
0.0664821 0.0686314 0.995424 
0.0777128 0.0816777 0.993624 
0.0806079 0.0892587 0.992741 
0.0826081 0.0965014 0.991899 
0.0830183 0.101286 0.991387 
0.0858069 0.109696 0.990254 
0.0962355 0.126279 0.987316 
0.0954222 0.130237 0.98688 
0.070448 0.100373 0.992453 
0.000270764 0.000204721 1 
0.000171958 -8.51143e-05 1 
0.0596559 -0.0937047 0.993811 
0.0902681 -0.13548 0.986659 
0.091999 -0.133066 0.986828 
0.0829869 -0.115488 0.989836 
0.0787675 -0.105165 0.99133 
0.0768814 -0.0986298 0.99215 
0.0727774 -0.090126 0.993268 
0.0645141 -0.075889 0.995027 
0.0615855 -0.067591 0.995811 
0.0413283 -0.0430039 0.99822 
0.0250293 -0.0242293 0.999393 
0.0158783 -0.0146146 0.999767 
0.00769591 -0.00668663 0.999948 
0.00464163 -0.00379105 0.999982 
0.00202259 -0.00157653 0.999997 
0.000561353 -0.000460311 1 
-2.28146e-05 -3.88699e-05 1 
-0.000131936 1.39369e-05 1 
-0.000177674 2.53762e-05 1 
-0.000138795 -2.12961e-05 1 
-2.6267e-05 -7.10023e-05 1 
-1.82249e-05 -9.28313e-05 1 
1.29277e-05 -8.90999e-05 1 
-6.10878e-05 -7.75436e-05 1 
-0.000144498 -6.73591e-05 1 
-0.000436637 -2.38163e-05 1 
-0.000831113 1.37778e-05 1 
-0.00083995 -1.56246e-05 1 
-0.000671874 -1.56034e-05 1 
-0.000426145 1.65006e-05 1 
-0.000441918 7.9698e-06 1 
-2.2366e-05 9.92792e-05 1 
-6.68355e-05 9.48682e-05 1 
-2.2547e-05 0.000108196 1 
2.51416e-06 0.000101462 1 
-0.000181015 -1.5062e-05 1 
-0.000238717 -8.24678e-05 1 
-0.00023246 -0.000106878 1 
-0.000114613 -4.13148e-05 1 
9.25151e-05 0.000106557 1 
0.0013047 0.00102075 0.999999 
0.00439573 0.00352258 0.999984 
0.00823482 0.00719692 0.99994 
0.0194528 0.0175886 0.999656 
0.021605 0.0210117 0.999546 
0.0372003 0.0376144 0.9986 
0.0499368 0.0540114 0.997291 
0.0680372 0.0766226 0.994736 
0.0728392 0.0866802 0.99357 
0.0758385 0.0953309 0.992553 
0.0763864 0.101284 0.991921 
0.0808595 0.111549 0.990464 
0.0920712 0.129833 0.987252 
0.0911466 0.135588 0.986564 
0.0674994 0.103738 0.992312 
8.10616e-05 -3.23445e-05 1 
0.000198248 -0.000155672 1 
0.0659585 -0.111776 0.991542 
0.0865306 -0.140452 0.986299 
0.0849753 -0.133011 0.987465 