# vtk DataFile Version 3.0 
Exported using Morpho https://github.com/Morpho-lang/morpho 
ASCII 
DATASET UNSTRUCTURED_GRID 

POINTS 3402 float 
-1.58829 -6.89038 -3.68336e-12 
-1.38781 -6.93354 -1.44104e-12 
-1.18471 -6.97112 -8.08224e-12 
-0.969682 -7.00426 5.70946e-11 
-0.727884 -7.0335 -4.34803e-11 
-0.524072 -7.05162 7.61502e-11 
-0.302825 -7.06458 1.13394e-11 
-0.0938203 -7.07045 1.03974e-11 
0.116032 -7.07012 -7.7199e-12 
0.335681 -7.0631 -1.07778e-11 
0.531494 -7.05106 3.64517e-11 
0.737557 -7.0325 -2.2204e-11 
0.943392 -7.00785 1.7323e-11 
1.16545 -6.97436 -8.57036e-11 
1.37825 -6.93545 2.08935e-11 
1.61002 -6.88533 -1.00382e-11 
-2.43412 -6.63891 -1.24037e-11 
-2.22245 -6.71273 5.6725e-11 
-2.01202 -6.77877 -6.39862e-12 
-1.80466 -6.8369 3.8613e-11 
-1.56894 -6.66782 1.04003e-14 
-1.34417 -6.69597 4.67938e-16 
-1.13292 -6.74188 1.56674e-14 
-0.901437 -6.80142 -5.63888e-16 
-0.680866 -6.79356 7.43717e-16 
-0.461356 -6.82666 -1.60261e-14 
-0.251219 -6.81851 -2.90403e-15 
-0.0418637 -6.82082 -1.14285e-14 
0.174762 -6.83444 8.36585e-15 
0.380525 -6.80232 1.86457e-14 
0.585065 -6.79775 -4.60088e-16 
0.790444 -6.7781 -1.85232e-14 
1.00868 -6.76867 -6.15784e-15 
1.22649 -6.72215 6.21268e-15 
1.44802 -6.70039 -1.89035e-14 
1.68697 -6.65971 -2.3173e-14 
1.85604 -6.82313 -5.81517e-11 
2.04904 -6.76768 8.02203e-11 
2.2816 -6.69285 -4.93882e-11 
-2.85683 -6.46827 3.77877e-11 
-2.65452 -6.55389 1.05775e-11 
-2.44381 -6.41653 -1.13783e-14 
-2.21607 -6.48223 -2.2416e-14 
-1.99859 -6.54663 -1.96055e-14 
-1.78183 -6.60386 -3.80724e-16 
-1.5396 -6.43945 -1.50096e-14 
-1.32876 -6.47285 -4.68959e-16 
-1.11206 -6.50442 -6.22037e-16 
-0.907778 -6.57501 2.23695e-14 
-0.704423 -6.54824 -6.20798e-16 
-0.492144 -6.59086 2.47898e-16 
-0.277263 -6.57292 1.7863e-14 
-0.0689181 -6.57306 8.34563e-15 
0.143904 -6.59131 -1.81631e-14 
0.357425 -6.56501 -2.37262e-14 
0.57152 -6.54776 1.57282e-15 
0.789676 -6.54356 2.16724e-14 
1.01217 -6.53603 1.63918e-14 
1.23248 -6.48915 2.66725e-16 
1.46662 -6.48414 5.97832e-15 
1.67742 -6.4192 -2.13397e-14 
1.88919 -6.55167 -2.05964e-14 
2.11056 -6.53374 3.66064e-16 
2.32908 -6.44969 6.57107e-16 
2.4989 -6.61479 6.63667e-12 
2.67676 -6.54484 2.83126e-11 
2.91591 -6.44185 -1.13324e-10 
-3.28463 -6.26189 3.60178e-11 
-3.09313 -6.35866 6.59439e-12 
-2.88705 -6.24601 -1.36135e-14 
-2.65257 -6.30878 -7.24592e-16 
-2.39553 -6.20355 3.73611e-16 
-2.18211 -6.26869 2.40004e-16 
-1.96304 -6.32292 5.61004e-15 
-1.75123 -6.37776 3.40802e-16 
-1.55079 -6.20552 -9.7158e-15 
-1.33648 -6.23701 -8.65884e-15 
-1.12692 -6.27012 1.49588e-14 
-0.911454 -6.32715 2.24707e-16 
-0.698452 -6.3104 3.37523e-16 
-0.488833 -6.35376 -2.07961e-14 
-0.281171 -6.32856 -2.07685e-14 
-0.0724792 -6.32528 -1.45012e-14 
0.134409 -6.35093 -1.21678e-14 
0.342263 -6.32284 2.27408e-14 
0.551694 -6.3099 2.33714e-14 
0.765292 -6.30977 -7.33633e-15 
0.981391 -6.31088 -2.69809e-14 
1.19013 -6.25667 -1.90947e-14 
1.40809 -6.26629 -9.37735e-15 
1.62408 -6.20305 1.87821e-14 
1.87951 -6.30651 9.14356e-15 
2.08499 -6.31249 2.72701e-14 
2.27645 -6.21651 -2.15425e-14 
2.51181 -6.32985 -7.77417e-16 
2.73303 -6.31345 7.61553e-16 
2.97782 -6.21421 4.97052e-16 
3.16155 -6.32492 1.43289e-11 
3.37886 -6.21155 -9.11895e-13 
-3.71605 -6.01589 3.39634e-11 
-3.52402 -6.13036 2.62176e-12 
-3.31247 -6.03957 -1.83317e-14 
-3.07985 -6.10183 -4.07316e-16 
-2.8281 -6.03135 -1.51267e-14 
-2.61676 -6.10067 5.37245e-16 
-2.41777 -5.9737 1.25643e-14 
-2.19917 -6.03237 -2.50614e-16 
-1.98581 -6.09015 1.51346e-14 
-1.76696 -6.14058 -2.45197e-16 
-1.54994 -5.98144 2.38015e-14 
-1.33022 -6.0099 2.65384e-16 
-1.11502 -6.03387 1.91616e-14 
-0.909887 -6.09429 7.78725e-15 
-0.702442 -6.07128 -3.46212e-16 
-0.493187 -6.11273 1.66469e-14 
-0.283787 -6.08747 2.60086e-16 
-0.0747259 -6.08389 -1.84517e-14 
0.136106 -6.10619 1.61451e-14 
0.346037 -6.0822 7.03572e-15 
0.561361 -6.07489 1.01459e-14 
0.776203 -6.0775 -1.39198e-14 
0.986693 -6.07301 -1.21919e-14 
1.19518 -6.01719 6.50726e-15 
1.40202 -6.03767 -1.33212e-14 
1.61266 -5.97199 -2.63689e-16 
1.82996 -6.08958 -1.38342e-14 
2.05348 -6.06997 -2.50142e-16 
2.2725 -5.9942 2.2805e-14 
2.49383 -6.10755 3.03929e-16 
2.7348 -6.10841 1.8206e-14 
2.96294 -6.00532 -8.5052e-15 
3.2031 -6.0764 2.52728e-15 
3.41177 -5.95466 5.31345e-16 
3.58508 -6.09485 -6.35536e-11 
-3.94277 -5.8698 -6.08206e-11 
-3.72787 -5.79164 2.1028e-14 
-3.50335 -5.88042 -4.81572e-16 
-3.26183 -5.82488 5.86783e-16 
-3.04479 -5.89244 1.632e-14 
-2.84839 -5.7916 2.52168e-16 
-2.63642 -5.8588 -1.54709e-14 
-2.4141 -5.75339 -4.79358e-16 
-2.19495 -5.80582 5.88665e-15 
-1.98202 -5.8587 1.939e-15 
-1.76997 -5.91434 2.38112e-14 
-1.55666 -5.76052 7.14543e-15 
-1.33725 -5.79019 1.41344e-14 
-1.11655 -5.80694 8.09048e-15 
-0.901231 -5.85598 -2.96662e-16 
-0.694015 -5.83219 3.71546e-16 
-0.49231 -5.87581 -1.10143e-14 
-0.288335 -5.8453 -2.71626e-14 
-0.0839743 -5.84543 -1.59649e-14 
0.126421 -5.86859 -2.26588e-16 
0.343108 -5.85329 -1.27469e-14 
0.555297 -5.84242 -2.20615e-14 
0.765857 -5.84774 -1.31321e-14 
0.977902 -5.84109 8.40046e-15 
1.19408 -5.79379 -1.00209e-14 
1.41195 -5.80323 -1.48992e-14 
1.63411 -5.74976 1.29101e-14 
1.84109 -5.86693 1.30208e-14 
2.05667 -5.84667 5.60232e-15 
2.27352 -5.77238 1.64465e-14 
2.49182 -5.88331 9.5829e-15 
2.71216 -5.9022 1.74793e-14 
2.92399 -5.79403 -5.9587e-15 
3.16671 -5.85943 -4.83695e-15 
3.39174 -5.74638 1.35571e-14 
3.63975 -5.85435 5.38448e-16 
3.81818 -5.9516 5.79882e-11 
3.99763 -5.83257 -3.90416e-12 
-4.38635 -5.54617 -3.7362e-11 
-4.13808 -5.73378 2.25643e-11 
-3.91935 -5.63313 5.06514e-16 
-3.68382 -5.57053 1.98328e-14 
-3.48269 -5.66677 -1.03266e-14 
-3.29229 -5.58136 -1.29553e-14 
-3.0809 -5.65307 -3.39382e-16 
-2.85188 -5.57952 1.56349e-14 
-2.61998 -5.62828 -2.31179e-16 
-2.39771 -5.52905 2.96772e-16 
-2.1899 -5.58292 2.67649e-14 
-1.97596 -5.62789 1.32903e-14 
-1.76859 -5.68434 1.95917e-14 
-1.57156 -5.53259 -2.13274e-14 
-1.36047 -5.57066 -2.50113e-14 
-1.14393 -5.58857 -2.75975e-16 
-0.921135 -5.6256 -1.23836e-14 
-0.697685 -5.61703 -2.68072e-14 
-0.475922 -5.6365 2.20075e-14 
-0.267927 -5.60777 1.29265e-14 
-0.0527866 -5.61808 1.96856e-14 
0.159988 -5.64232 1.9213e-14 
0.37563 -5.62512 1.10991e-14 
0.589383 -5.61416 1.02146e-14 
0.799712 -5.62056 1.90792e-14 
1.00942 -5.61432 1.65283e-14 
1.23975 -5.57983 1.78255e-14 
1.44695 -5.57804 1.51718e-14 
1.65143 -5.52041 1.60231e-14 
1.85096 -5.63923 7.96294e-15 
2.05446 -5.62055 -7.88511e-15 
2.26123 -5.54948 -8.30982e-15 
2.48038 -5.65374 1.00969e-14 
2.69451 -5.67861 -7.91708e-15 
2.91794 -5.58086 -1.4868e-14 
3.14808 -5.65059 -1.23625e-14 
3.3521 -5.52808 -4.09885e-15 
3.59423 -5.63593 -1.49093e-14 
3.82239 -5.67209 -5.94461e-16 
4.03633 -5.58819 -1.01397e-14 
4.22493 -5.6701 -3.41359e-11 
-4.57822 -5.38887 -8.67047e-11 
-4.34411 -5.32042 9.85206e-16 
-4.16164 -5.51755 9.31393e-15 
-3.93027 -5.42611 -3.7983e-16 
-3.7229 -5.34785 5.86055e-15 
-3.49586 -5.411 6.47012e-15 
-3.26725 -5.36347 1.50598e-14 
-3.05164 -5.42877 -4.64744e-15 
-2.83872 -5.34806 2.35268e-14 
-2.63495 -5.41486 -1.96701e-14 
-2.41967 -5.31956 8.94261e-15 
-2.19242 -5.34961 3.34056e-15 
-1.99013 -5.39884 -1.32675e-14 
-1.77916 -5.44913 -9.86847e-15 
-1.54332 -5.3221 4.33728e-16 
-1.32573 -5.35726 -4.27774e-15 
-1.11734 -5.36576 1.20447e-14 
-0.916983 -5.41457 6.80496e-15 
-0.72382 -5.37954 6.83915e-15 
-0.524581 -5.41607 -9.70845e-15 
-0.318728 -5.38578 5.15869e-15 
-0.103133 -5.39438 -5.85289e-15 
0.113539 -5.41201 -1.44435e-14 
0.318151 -5.40839 1.44609e-14 
0.531429 -5.39524 -7.34366e-15 
0.746704 -5.3944 -1.16058e-14 
0.951757 -5.39199 -6.85182e-15 
1.16033 -5.39358 -8.32725e-15 
1.393 -5.35558 -1.18125e-16 
1.58984 -5.31236 -6.26191e-15 
1.83917 -5.40273 1.1371e-14 
2.04417 -5.39485 -2.35706e-14 
2.26165 -5.33865 -1.97421e-14 
2.48294 -5.43696 -1.05327e-14 
2.70471 -5.45576 9.23077e-16 
2.90751 -5.35214 -5.75867e-15 
3.11972 -5.42959 5.06896e-15 
3.32811 -5.31088 -1.77651e-14 
3.56633 -5.42275 -2.63382e-14 
3.7976 -5.45021 1.81673e-14 
4.02639 -5.37542 -2.54487e-14 
4.25845 -5.42198 3.98112e-16 
4.44806 -5.49679 -1.34675e-11 
-4.79486 -5.19705 9.31533e-13 
-4.56519 -5.17457 3.80875e-16 
-4.34471 -5.09657 -3.73662e-16 
-4.12252 -5.28884 -6.7704e-15 
-3.90946 -5.18508 1.27918e-14 
-3.6837 -5.12089 -9.39612e-15 
-3.4862 -5.19548 -2.06678e-14 
-3.27047 -5.1405 -1.87358e-14 
-3.05641 -5.20237 -9.25913e-15 
-2.83585 -5.13267 1.86105e-14 
-2.61721 -5.18512 -6.91951e-15 
-2.37334 -5.11885 1.17746e-14 
-2.15819 -5.13404 3.30911e-15 
-1.94907 -5.17508 -8.83425e-15 
-1.7508 -5.23365 -1.75374e-14 
-1.56187 -5.09672 -1.34194e-15 
-1.35436 -5.14472 -2.05553e-16 
-1.13909 -5.14746 1.51999e-15 
-0.927709 -5.18039 -1.19915e-15 
-0.713862 -5.16314 -6.75501e-15 
-0.506729 -5.18691 2.63188e-15 
-0.287815 -5.17283 6.16018e-15 
-0.0689607 -5.18381 -7.94486e-15 
0.135914 -5.18448 1.16835e-14 
0.346764 -5.18898 1.46798e-15 
0.566529 -5.18209 -6.1251e-15 
0.772802 -5.16883 3.01258e-15 
0.984121 -5.17486 -1.48734e-15 
1.20637 -5.19352 7.32857e-15 
1.41016 -5.1238 5.47731e-15 
1.6912 -5.16654 -6.82122e-15 
1.89387 -5.17585 1.71572e-14 
2.10232 -5.17161 1.93814e-14 
2.29092 -5.08357 2.384e-16 
2.45112 -5.21313 -2.02368e-14 
2.66367 -5.24102 9.37889e-15 
2.86986 -5.14667 1.12965e-14 
3.11157 -5.20192 -1.41749e-14 
3.33877 -5.09628 -7.24814e-15 
3.5591 -5.21772 -9.12938e-15 
3.79702 -5.23539 3.94431e-16 
4.00991 -5.1519 1.39653e-14 
4.23316 -5.20288 1.2207e-14 
4.46314 -5.24231 1.96152e-15 
4.65363 -5.32388 6.9278e-11 
4.79576 -5.19622 -5.8844e-11 
-4.9954 -5.0046 4.38713e-11 
-4.76493 -4.98051 -3.95812e-16 
-4.5453 -4.94762 -1.84454e-14 
-4.32126 -4.86676 8.61719e-15 
-4.12959 -5.06211 2.81209e-14 
-3.90401 -4.9695 -7.84062e-15 
-3.67273 -4.91269 1.24681e-14 
-3.44735 -4.96244 1.42721e-14 
-3.23481 -4.91067 6.31069e-15 
-3.04017 -4.98284 -1.32852e-14 
-2.8507 -4.89365 4.4947e-15 
-2.65219 -4.96375 -1.47766e-14 
-2.44375 -4.94495 -5.25571e-15 
-2.19457 -4.91925 1.35631e-14 
-1.97464 -4.94981 -4.93707e-15 
[...]
POINT_DATA 3402 
VECTORS vectors float
0.000414442 -7.76192e-05 1 
0.000512447 -6.59273e-05 1 
0.000416202 -5.47673e-05 1 
0.000317855 -1.73442e-05 1 
0.000335456 -9.4372e-06 1 
0.000504898 -3.76247e-05 1 
0.000362032 -5.67858e-08 1 
0.000451494 -5.696e-06 1 
0.000385461 -4.1793e-06 1 
0.000427878 2.90228e-05 1 
0.000550491 1.41285e-05 1 
0.000415976 5.49989e-05 1 
0.000387013 1.77393e-05 1 
0.000386834 4.64859e-05 1 
0.000420886 4.00431e-05 1 
0.000181332 -1.53353e-05 1 
0.000339462 -7.00675e-05 1 
0.000328693 -4.657e-05 1 
0.000444753 -8.71958e-05 1 
0.000323508 -4.10213e-05 1 
0.124771 -0.0294667 0.991748 
0.132858 -0.0266007 0.990778 
0.127984 -0.0217572 0.991538 
0.12184 -0.0161875 0.992418 
0.135363 -0.0137209 0.990701 
0.130412 -0.00914854 0.991418 
0.135347 -0.00526576 0.990784 
0.134523 -0.00129166 0.99091 
0.131864 0.00323104 0.991263 
0.139727 0.00811705 0.990157 
0.135216 0.0118511 0.990745 
0.134764 0.0159643 0.990749 
0.127315 0.0192943 0.991675 
0.13045 0.0240106 0.991164 
0.12146 0.0262093 0.99225 
0.11355 0.0292632 0.993101 
0.000416188 6.94177e-05 1 
0.000438722 5.99355e-05 1 
0.000167297 8.74655e-06 1 
0.000263901 -4.4514e-05 1 
0.000360452 -5.11029e-05 1 
0.114344 -0.0433524 0.992495 
0.119257 -0.0404338 0.99204 
0.124402 -0.0375569 0.991521 
0.125757 -0.0339481 0.99148 
0.160695 -0.0385423 0.986251 
0.162115 -0.0335859 0.9862 
0.161893 -0.0281756 0.986406 
0.1628 -0.0232757 0.986384 
0.162132 -0.0180836 0.986603 
0.162404 -0.0128695 0.98664 
0.160536 -0.00740618 0.987002 
0.160632 -0.00218156 0.987012 
0.161355 0.00328024 0.986891 
0.160482 0.00873563 0.987 
0.160956 0.0144237 0.986856 
0.160368 0.019941 0.986856 
0.161654 0.0256495 0.986514 
0.160609 0.0311137 0.986528 
0.160458 0.0365171 0.986367 
0.159869 0.0417231 0.986256 
0.133891 0.0384753 0.990249 
0.115901 0.0370173 0.992571 
0.117133 0.0428727 0.99219 
0.00049895 0.000135185 1 
0.000446043 0.000106563 1 
0.00010971 -6.90232e-05 1 
0.000301787 -5.31863e-05 1 
0.00029595 -2.96925e-05 1 
0.102425 -0.0470191 0.993629 
0.119313 -0.0498107 0.991606 
0.154864 -0.0587062 0.98619 
0.157071 -0.0537934 0.986121 
0.15871 -0.0486659 0.986125 
0.160057 -0.0435523 0.986147 
0.146426 -0.0363731 0.988553 
0.145711 -0.0312684 0.988833 
0.146579 -0.0267165 0.988838 
0.147827 -0.0217684 0.988774 
0.144894 -0.0166791 0.989307 
0.145429 -0.012162 0.989294 
0.143721 -0.00718879 0.989592 
0.141932 -0.00219534 0.989874 
0.144651 0.00289416 0.989479 
0.143578 0.00807701 0.989606 
0.143235 0.0132345 0.9896 
0.14461 0.0181027 0.989323 
0.145991 0.0228659 0.989022 
0.144818 0.0277037 0.98907 
0.147466 0.0331114 0.988513 
0.146715 0.0381742 0.988442 
0.158146 0.0470884 0.986292 
0.156185 0.0516013 0.986379 
0.154639 0.0566216 0.986347 
0.131969 0.0519856 0.98989 
0.105641 0.0448715 0.993391 
0.0966718 0.0460763 0.994249 
0.000208672 -9.04534e-06 1 
0.000383423 8.62203e-05 1 
0.000250257 -4.66293e-05 1 
0.000210629 2.70768e-06 1 
0.0965573 -0.0525501 0.993939 
0.119252 -0.059962 0.991052 
0.149003 -0.0691347 0.986417 
0.152978 -0.0649152 0.986095 
0.144524 -0.0577351 0.987815 
0.144608 -0.0517843 0.988133 
0.144381 -0.0462769 0.98844 
0.145294 -0.0413027 0.988526 
0.132065 -0.0335142 0.990674 
0.1313 -0.028773 0.990925 
0.132066 -0.0243574 0.990942 
0.131694 -0.0201031 0.991087 
0.131119 -0.0160382 0.991237 
0.130979 -0.0114258 0.991319 
0.129251 -0.00660888 0.99159 
0.128643 -0.00185933 0.991689 
0.129279 0.00293013 0.991604 
0.129839 0.00764605 0.991506 
0.128989 0.0122618 0.99157 
0.130788 0.0169791 0.991265 
0.130717 0.0213677 0.991189 
0.129876 0.0257363 0.991196 
0.131924 0.0303849 0.990794 
0.130634 0.0347578 0.990821 
0.141426 0.0421686 0.98905 
0.143285 0.0482939 0.988502 
0.143107 0.0543098 0.988216 
0.153549 0.0628947 0.986137 
0.148542 0.0663747 0.986676 
0.145788 0.0716455 0.986718 
0.105463 0.0555432 0.992871 
0.10674 0.0606893 0.992433 
0.000134973 -3.78874e-05 1 
0.000241836 -2.81415e-05 1 
0.0938182 -0.060231 0.993766 
0.111221 -0.0661609 0.991591 
0.142482 -0.0794126 0.986607 
0.147151 -0.0755134 0.986227 
0.14098 -0.0684689 0.987642 
0.139523 -0.0620791 0.988271 
0.128567 -0.0531255 0.990277 
0.12898 -0.0477936 0.990495 
0.129566 -0.0427519 0.990649 
0.131417 -0.0384124 0.990583 
0.123955 -0.0329355 0.991741 
0.124238 -0.0284602 0.991844 
0.123363 -0.0238418 0.992075 
0.124488 -0.0195449 0.992029 
0.124048 -0.0150579 0.992162 
0.124959 -0.010933 0.992102 
0.122626 -0.00642424 0.992432 
0.121685 -0.00183583 0.992567 
0.123307 0.00265902 0.992365 
0.122041 0.00726692 0.992499 
0.122661 0.0116422 0.99238 
0.12326 0.0161492 0.992243 
0.122737 0.0205376 0.992227 
0.122132 0.0249485 0.9922 
0.122977 0.0296421 0.991967 
0.122004 0.0342111 0.99194 
0.128346 0.0399844 0.990923 
0.128605 0.0450562 0.990672 
0.126818 0.0499662 0.990667 
0.138714 0.0586679 0.988593 
0.144348 0.0661134 0.987316 
0.143337 0.0716245 0.987079 
0.144935 0.0777508 0.986382 
0.141853 0.0830533 0.986397 
0.0913283 0.0565887 0.994212 
0.000261535 5.84817e-05 1 
0.00030216 7.12203e-05 1 
0.000114186 5.5219e-05 1 
0.000131817 4.32061e-05 1 
0.102226 -0.0708857 0.992232 
0.13598 -0.0897316 0.98664 
0.140072 -0.0860982 0.986391 
0.137298 -0.0807768 0.987231 
0.135497 -0.0734694 0.98805 
0.124618 -0.0631036 0.990196 
0.123544 -0.0568846 0.990707 
0.118176 -0.0504513 0.99171 
0.119664 -0.0458496 0.991755 
0.120948 -0.0413502 0.991797 
0.122467 -0.0372472 0.991773 
0.116061 -0.032922 0.992696 
0.116548 -0.0286593 0.992771 
0.112587 -0.0233557 0.993367 
0.115284 -0.0190543 0.99315 
0.11199 -0.0141799 0.993608 
0.112052 -0.00952628 0.993657 
0.108391 -0.00504864 0.994096 
0.107948 -0.000729819 0.994156 
0.111334 0.0035034 0.993777 
0.110398 0.00764222 0.993858 
0.111128 0.011797 0.993736 
0.112875 0.0162988 0.993475 
0.113993 0.0206398 0.993267 
0.112983 0.0251744 0.993278 
0.115575 0.0300013 0.992846 
0.113756 0.0340954 0.992923 
0.118467 0.0384382 0.992214 
0.120819 0.0439526 0.991701 
0.118672 0.0481319 0.991766 
0.124024 0.054264 0.990794 
0.127651 0.0600813 0.989998 
0.125979 0.0651599 0.989891 
0.137733 0.0760162 0.987548 
0.134974 0.080893 0.987542 
0.138502 0.0875667 0.986483 
0.110144 0.0734244 0.9912 
0.0887987 0.0634652 0.994026 
0.000117402 -7.77882e-05 1 
0.000176488 -3.29999e-05 1 
0.0936522 -0.0766739 0.992648 
0.077767 -0.0585385 0.995251 
0.130608 -0.0949216 0.98688 
0.133837 -0.0931488 0.986616 
0.12967 -0.0835693 0.988029 
0.119553 -0.072479 0.990179 
0.119513 -0.0668755 0.990578 
0.114221 -0.0601979 0.99163 
0.114866 -0.0555177 0.991828 
0.110516 -0.0500156 0.992615 
0.110254 -0.0448273 0.992892 
0.111714 -0.0407634 0.992904 
0.112501 -0.0364129 0.992984 
0.0966877 -0.0281983 0.994915 
0.0946559 -0.0236178 0.99523 
0.090449 -0.0189904 0.99572 
0.0929573 -0.0158217 0.995544 
0.0850693 -0.0113201 0.996311 
0.0884761 -0.00847706 0.996042 
0.0801466 -0.00459407 0.996772 
0.0799753 -0.00131296 0.996796 
0.0831842 0.0019952 0.996532 
0.0837912 0.0051067 0.99647 
0.0839005 0.00844503 0.996438 
0.0876234 0.0122717 0.996078 
0.0908964 0.0161676 0.995729 
0.0941241 0.0203747 0.995352 
0.0958087 0.025016 0.995085 
0.0958357 0.0287169 0.994983 
0.108085 0.0367749 0.993461 
0.110807 0.0417054 0.992967 
0.110109 0.0464299 0.992834 
0.114996 0.0521222 0.991998 
0.118223 0.0580941 0.991286 
0.115652 0.062246 0.991337 
0.12144 0.068995 0.990198 
0.118251 0.0730768 0.990291 
0.134124 0.0872463 0.987116 
0.134426 0.0933635 0.986515 
0.127121 0.0950487 0.987323 
0.0824374 0.0652854 0.994456 
4.8007e-05 -0.000128537 1 
7.32995e-05 4.31408e-05 1 
0.0791254 -0.0696974 0.994425 
0.121268 -0.103905 0.987167 
0.126171 -0.0985527 0.987101 
0.127722 -0.0964247 0.987112 
0.115213 -0.0827915 0.989885 
0.114616 -0.0767302 0.990442 
0.109955 -0.0697196 0.991488 
0.110174 -0.0645534 0.991814 
0.106001 -0.0584077 0.992649 
0.105368 -0.0532564 0.993006 
0.0987374 -0.0461317 0.994044 
0.0950537 -0.0403069 0.994656 
0.0923058 -0.0350539 0.995113 
0.0924959 -0.0311428 0.995226 
0.0661724 -0.0205114 0.997597 
0.0655117 -0.0173854 0.9977 
0.0596316 -0.0132828 0.998132 
0.0580082 -0.0104015 0.998262 
0.0523 -0.00711192 0.998606 
0.0531919 -0.0051452 0.998571 
0.0469562 -0.0025568 0.998894 
0.0485346 -0.000498915 0.998821 
0.0486123 0.00137856 0.998817 
0.050809 0.00349452 0.998702 
0.0521357 0.00579726 0.998623 
0.0545649 0.00823226 0.998476 
0.0591538 0.0113321 0.998185 
0.068414 0.0160189 0.997528 
0.0632292 0.0174621 0.997846 
0.0799349 0.0261748 0.996456 
0.088563 0.0327085 0.995533 
0.0961664 0.0393451 0.994587 
0.0935211 0.0426115 0.994705 
0.106302 0.0498478 0.993084 
0.110178 0.0556718 0.992351 
0.108001 0.0598872 0.992345 
0.111718 0.0661807 0.991534 
0.108982 0.0708539 0.991515 
0.117727 0.0795549 0.989854 
0.127577 0.0925012 0.987506 
0.129245 0.100772 0.986479 
0.124179 0.101239 0.987082 
0.084392 0.0727064 0.993777 
0.000372045 0.000242922 1 
0.000259622 0.000139543 1 
9.92422e-05 2.69339e-05 1 
0.0796491 -0.0759695 0.993924 
0.116889 -0.107503 0.98731 
0.121444 -0.108091 0.986695 
0.128126 -0.10479 0.986206 
0.112554 -0.0883738 0.989708 
0.105562 -0.0786939 0.991294 
0.10483 -0.0725478 0.99184 
0.101323 -0.0665864 0.992623 
0.101738 -0.0620701 0.992873 
0.0949166 -0.0555199 0.993936 
0.0944992 -0.051012 0.994217 
0.0860161 -0.0431512 0.995359 
0.0710045 -0.0322558 0.996954 
0.0632462 -0.0257592 0.997665 
0.0612614 -0.0220338 0.997879 
0.0376321 -0.011995 0.99922 
0.0360113 -0.00974125 0.999304 
0.031198 -0.00708216 0.999488 
0.0300589 -0.00546915 0.999533 
0.0241711 -0.0034329 0.999702 
0.0242978 -0.00246354 0.999702 
0.0227677 -0.00137132 0.99974 
0.0235478 -0.000369921 0.999723 
0.0221715 0.000635619 0.999754 
0.0240454 0.00166201 0.999709 
0.0260002 0.00288767 0.999658 
0.0264594 0.00416704 0.999641 
0.0310512 0.00613108 0.999499 
0.038303 0.0091381 0.999224 
0.0344774 0.00977683 0.999358 
0.0505905 0.0162898 0.998587 
0.0578584 0.0214923 0.998093 
0.0675425 0.0281104 0.99732 
0.0669613 0.0311829 0.997268 
0.0862019 0.0437342 0.995317 
0.0989405 0.0519847 0.993735 
0.0980852 0.056667 0.993563 
0.103831 0.0638478 0.992544 
0.100531 0.0673043 0.992655 
0.106505 0.0751333 0.991469 
0.110718 0.0822685 0.990441 
0.109927 0.0873474 0.990094 
0.120595 0.100808 0.98757 
0.123952 0.107844 0.986411 
0.106787 0.0968846 0.98955 
0.0748485 0.071134 0.994655 
-4.71723e-05 -0.000215106 1 
3.46482e-05 9.09125e-05 1 
0.0695214 -0.0720562 0.994975 
0.111376 -0.111244 0.987532 
0.119245 -0.114355 0.986257 
0.107386 -0.0993234 0.989244 
0.11145 -0.0945706 0.98926 
0.102301 -0.0830179 0.991283 
0.0976537 -0.076485 0.992277 
0.0974978 -0.0712358 0.992683 
0.0927104 -0.0645931 0.993596 
0.0890022 -0.0574216 0.994375 
0.0755647 -0.0460752 0.996076 
0.0712626 -0.0399185 0.996658 
0.0600461 -0.0307274 0.997723 
0.0431533 -0.0201636 0.998865 
0.0350871 -0.0147996 0.999275 
0.0328202 -0.0121728 0.999387 
0.0166413 -0.00561477 0.999846 
0.0160117 -0.00462338 0.999861 
0.012993 -0.00316437 0.999911 
0.0118499 -0.00233347 0.999927 
0.00887295 -0.00135248 0.99996 
0.00798507 -0.000832025 0.999968 
0.00889026 -0.000483864 0.99996 
0.00866579 -8.70972e-05 0.999962 
0.00753399 0.000260583 0.999972 
0.00873843 0.000688675 0.999962 
0.0100959 0.00125693 0.999948 
0.00982881 0.00166324 0.99995 
0.0127312 0.00271356 0.999915 
0.0177174 0.00447231 0.999833 
0.0169668 0.00521811 0.999842 
0.0289299 0.0100355 0.999531 
0.0333245 0.0132026 0.999357 
0.0383728 0.0168839 0.999121 
0.0507264 0.0254065 0.998389 
0.0625537 0.0339646 0.997464 
0.0807619 0.0462678 0.995659 
0.0772768 0.048292 0.995839 
0.0930677 0.0593315 0.99389 
0.0905745 0.0626635 0.993916 
0.0977479 0.0707482 0.992693 
0.100275 0.0770921 0.991969 
0.0999013 0.0823719 0.991582 
0.10502 0.0909353 0.990304 
0.116743 0.106089 0.98748 
0.118115 0.112679 0.986586 
0.107645 0.108683 0.988231 
0.0650047 0.0695358 0.995459 
6.06019e-05 -4.81674e-05 1 
0.000110672 1.98518e-05 1 
0.0690948 -0.0783842 0.994526 
0.105891 -0.114894 0.987718 
0.114596 -0.119431 0.986207 
0.10655 -0.106485 0.988589 
0.0952263 -0.0916549 0.991227 
0.0996955 -0.0875699 0.991157 
0.0948672 -0.0811578 0.992176 
0.089602 -0.0733597 0.993272 
0.0870919 -0.0664968 0.993978 
0.0779037 -0.0555144 0.995414 
0.0667946 -0.044738 0.996763 
0.0484742 -0.0302985 0.998365 
0.0446596 -0.0256072 0.998674 
0.034319 -0.0179838 0.999249 
0.0206719 -0.0100773 0.999736 
0.0142891 -0.0063953 0.999877 
0.0143895 -0.00570548 0.99988 
0.00613433 -0.002283 0.999979 
0.00527406 -0.00168315 0.999985 
0.00382566 -0.00104438 0.999992 
0.00323522 -0.000715663 0.999995 
0.00207787 -0.000379301 0.999998 
0.00189009 -0.000227614 0.999998 
0.00224021 -0.000127013 0.999997 
0.00206877 -2.83009e-06 0.999998 
0.00169612 9.09989e-05 0.999999 
0.00225533 0.000237356 0.999997 
0.00257218 0.000395435 0.999997 
0.00270612 0.00056311 0.999996 
0.00422576 0.0010416 0.999991 
0.00690466 0.0019299 0.999974 
0.0043627 0.00146003 0.999989 
0.0104692 0.00373827 0.999938 
0.0147238 0.00588568 0.999874 
0.0166274 0.00759303 0.999833 
0.0282513 0.0140502 0.999502 
0.034202 0.0190504 0.999233 
0.050406 0.0302829 0.99827 
0.0509494 0.0334663 0.99814 
0.0710703 0.0489575 0.996269 
0.0889119 0.0666791 0.993805 
0.0925436 0.0736404 0.992982 
0.0923871 0.0790427 0.992581 
0.0963776 0.0861678 0.991608 
0.100444 0.0942332 0.99047 
0.109766 0.10833 0.988037 
0.114664 0.118876 0.986266 
0.107354 0.117908 0.987205 
0.0774251 0.089277 0.992993 
0.000302725 0.000214372 1 
0.00016666 -5.75683e-05 1 
0.0733945 -0.0901046 0.993224 
0.103757 -0.121818 0.987114 
0.110165 -0.123558 0.986203 
0.100113 -0.108004 0.989097 
0.0921724 -0.0953638 0.991166 
0.0872442 -0.0880256 0.99229 
0.0935018 -0.0866648 0.99184 
0.0873273 -0.0806359 0.992911 
0.0837289 -0.0735987 0.993767 
0.0742013 -0.0611503 0.995367 
0.0674912 -0.0518464 0.996372 
0.0488124 -0.0354581 0.998178 
0.0370881 -0.0251587 0.998995 
0.023686 -0.0147584 0.999611 
0.0201633 -0.0115304 0.99973 
0.0116724 -0.00622902 0.999912 
0.00578467 -0.0028999 0.999979 
0.00422041 -0.00192089 0.999989 
0.00223175 -0.000988664 0.999997 
0.00128177 -0.000543227 0.999999 
0.000668911 -0.000319836 1 
0.000408902 -0.000209004 1 
9.47481e-05 -0.00012302 1 
2.21689e-05 -8.09605e-05 1 
5.81983e-05 -4.74601e-05 1 
8.71841e-05 -1.48603e-05 1 
2.39867e-05 1.07495e-05 1 
9.72294e-05 4.38902e-05 1 
0.000121621 7.54783e-05 1 
0.000267491 0.000128821 1 
0.000622516 0.000232925 1 
0.00126228 0.000429664 0.999999 
0.000815275 0.000355515 1 
0.00314531 0.0012616 0.999994 
0.00526526 0.00230598 0.999983 
0.00645868 0.00318172 0.999974 
0.0141351 0.00741857 0.999873 
0.0151733 0.00880782 0.999846 
0.026587 0.0165143 0.99951 
0.0299393 0.0205133 0.999341 
0.0476756 0.0346817 0.998261 
0.0724463 0.0541074 0.995904 
0.0785088 0.0635437 0.994886 
0.0825383 0.0710679 0.994051 
0.0870437 0.0802117 0.99297 
0.0925409 0.0889068 0.991732 
0.095242 0.0964976 0.990766 
0.0994752 0.105902 0.989388 
0.107606 0.120127 0.98691 
0.104857 0.123744 0.986759 
0.08119 0.0990107 0.991769 
5.92521e-05 -0.000103413 1 
0.000141076 8.72822e-06 1 
0.0702975 -0.0927308 0.993207 
0.100432 -0.127574 0.986731 
0.102275 -0.124642 0.986917 
0.094162 -0.109856 0.989477 
0.0877467 -0.098291 0.991282 
0.0843311 -0.0913787 0.992239 
0.0809117 -0.0801927 0.99349 
0.07137 -0.067836 0.99514 
0.0661877 -0.0588019 0.996073 
0.0488566 -0.0406288 0.997979 
0.0373689 -0.0293355 0.998871 
0.0229649 -0.0169396 0.999593 
0.0165966 -0.0113129 0.999798 
0.00853802 -0.00542483 0.999949 
0.00574372 -0.00339987 0.999978 
0.00257715 -0.00144687 0.999996 
0.00116147 -0.000647041 0.999999 
0.000203942 -0.000187502 1 
0.000143194 -0.000168443 1 
-0.000142403 -6.73946e-05 1 
-0.000231261 -6.441e-05 1 
-0.000268553 -6.63144e-05 1 
-0.000258952 -6.98042e-05 1 
-0.000236714 -6.08246e-05 1 
-0.000220797 -3.93877e-05 1 
-0.000211948 -1.9015e-05 1 
-0.000212469 9.68973e-06 1 
-0.000206186 3.10441e-05 1 
-0.000220854 4.55352e-05 1 
-0.000224829 5.49196e-05 1 
-0.000248547 4.02314e-05 1 
-8.29588e-05 7.90429e-05 1 
-0.000174215 3.22144e-05 1 
0.000458611 0.000259953 1 
0.00124374 0.000617727 0.999999 
0.00144607 0.00077695 0.999999 
0.00468442 0.00261865 0.999986 
0.0061261 0.00380412 0.999974 
0.0133294 0.00881255 0.999872 
0.0183612 0.0134454 0.999741 
0.0313575 0.0242718 0.999213 
0.0551081 0.0438447 0.997517 
0.0558399 0.0481013 0.99728 
0.0723775 0.0660716 0.995186 
0.0805704 0.0783221 0.993667 
0.08646 0.0877691 0.992382 
0.0877355 0.0937877 0.991719 
0.0886383 0.0993846 0.991093 
0.0950789 0.110951 0.989267 
0.0997927 0.122476 0.987442 
0.100141 0.127621 0.986755 
0.0582859 0.076123 0.995393 
6.56948e-05 -0.000127687 1 
8.93014e-05 8.83899e-05 1 
0.064315 -0.0920253 0.993677 
0.0950007 -0.131057 0.986813 
0.0972604 -0.129115 0.986848 
0.0880147 -0.112196 0.98978 
0.0838973 -0.102091 0.991231 
0.0804301 -0.0949864 0.992224 
0.0760683 -0.0869578 0.993304 
0.0767606 -0.0821721 0.993658 
0.0652993 -0.0669089 0.99562 
0.0481514 -0.0464638 0.997759 
0.0407094 -0.0365609 0.998502 
0.0233948 -0.0200428 0.999525 
0.0159053 -0.0127872 0.999792 
0.00876398 -0.00658436 0.99994 
0.00528244 -0.00370546 0.999979 
0.00181464 -0.00124331 0.999998 
0.000962794 -0.00063368 0.999999 
0.000218166 -0.000186245 1 
-0.000157457 -3.398e-06 1 
-0.000219182 -7.8498e-06 1 
-0.000228596 -1.2736e-05 1 
-0.000186713 -4.51481e-05 1 
-0.00013216 -7.57447e-05 1 
-0.000101021 -9.55594e-05 1 
-6.24148e-05 -9.18786e-05 1 
-5.46279e-05 -6.75461e-05 1 
-5.90027e-05 -3.67248e-05 1 
-7.32374e-05 9.98204e-07 1 
-6.15003e-05 3.2482e-05 1 
-7.11351e-05 7.09286e-05 1 
-0.000112842 7.80952e-05 1 
-0.000172342 7.05873e-05 1 
-0.000237888 3.64093e-05 1 
-0.000199422 2.09705e-05 1 
-0.000253924 -2.42288e-05 1 
-0.00010061 7.98196e-06 1 
4.69387e-05 5.45057e-05 1 
0.00116783 0.000723696 0.999999 
0.00111157 0.000771718 0.999999 
0.00389285 0.0027066 0.999989 
0.00767209 0.00565848 0.999955 
0.0144029 0.0116375 0.999829 
0.030188 0.0255141 0.999219 
0.0431116 0.0396659 0.998283 
0.060401 0.0586931 0.996447 
0.0664821 0.0686314 0.995424 
0.0777128 0.0816777 0.993624 
0.0806079 0.0892587 0.992741 
0.0826081 0.0965014 0.991899 
0.0830183 0.101286 0.991387 
0.0858069 0.109696 0.990254 
0.0962355 0.126279 0.987316 
0.0954222 0.130237 0.98688 
0.070448 0.100373 0.992453 
0.000270764 0.000204721 1 
0.000171958 -8.51143e-05 1 
0.0596559 -0.0937047 0.993811 
0.0902681 -0.13548 0.986659 
0.091999 -0.133066 0.986828 
0.0829869 -0.115488 0.989836 
0.0787675 -0.105165 0.99133 
0.0768814 -0.0986298 0.99215 
0.0727774 -0.090126 0.993268 
0.0645141 -0.075889 0.995027 
0.0615855 -0.067591 0.995811 
0.0413283 -0.0430039 0.99822 
0.0250293 -0.0242293 0.999393 
0.0158783 -0.0146146 0.999767 
0.00769591 -0.00668663 0.999948 
0.00464163 -0.00379105 0.999982 
0.00202259 -0.00157653 0.999997 
0.000561353 -0.000460311 1 
-2.28146e-05 -3.88699e-05 1 
-0.000131936 1.39369e-05 1 
-0.000177674 2.53762e-05 1 
-0.000138795 -2.12961e-05 1 
-2.6267e-05 -7.10023e-05 1 
-1.82249e-05 -9.28313e-05 1 
1.29277e-05 -8.90999e-05 1 
-6.10878e-05 -7.75436e-05 1 
-0.000144498 -6.73591e-05 1 
-0.000436637 -2.38163e-05 1 
-0.000831113 1.37778e-05 1 
-0.00083995 -1.56246e-05 1 
-0.000671874 -1.56034e-05 1 
-0.000426145 1.65006e-05 1 
-0.000441918 7.9698e-06 1 
-2.2366e-05 9.92792e-05 1 
-6.68355e-05 9.48682e-05 1 
-2.2547e-05 0.000108196 1 
2.51416e-06 0.000101462 1 
-0.000181015 -1.5062e-05 1 
-0.000238717 -8.24678e-05 1 
-0.00023246 -0.000106878 1 
-0.000114613 -4.13148e-05 1 
9.25151e-05 0.000106557 1 
0.0013047 0.00102075 0.999999 
0.00439573 0.00352258 0.999984 
0.00823482 0.00719692 0.99994 
0.0194528 0.0175886 0.999656 
0.021605 0.0210117 0.999546 
0.0372003 0.0376144 0.9986 
0.0499368 0.0540114 0.997291 
0.0680372 0.0766226 0.994736 
0.0728392 0.0866802 0.99357 
0.0758385 0.0953309 0.992553 
0.0763864 0.101284 0.991921 
0.0808595 0.111549 0.990464 
0.0920712 0.129833 0.987252 
0.0911466 0.135588 0.986564 
0.0674994 0.103738 0.992312 
8.10616e-05 -3.23445e-05 1 
0.000198248 -0.000155672 1 
0.0659585 -0.111776 0.991542 
0.0865306 -0.140452 0.986299 
0.0849753 -0.133011 0.987465 