# vtk DataFile Version 3.0 
Exported using Morpho https://github.com/Morpho-lang/morpho 
ASCII 
DATASET UNSTRUCTURED_GRID 

POINTS 3402 float 
-1.58842 -6.89035 -2.54262e-07 
-1.38782 -6.93354 6.94205e-09 
-1.18488 -6.97109 -4.73436e-07 
-0.96959 -7.00428 2.24526e-06 
-0.727836 -7.03351 -1.97019e-06 
-0.524015 -7.05162 2.96048e-06 
-0.302988 -7.06457 1.82617e-07 
-0.0939219 -7.07044 3.94618e-07 
0.116192 -7.07011 -2.79618e-07 
0.335811 -7.06309 -5.05211e-07 
0.5314 -7.05107 1.4916e-06 
0.737592 -7.03249 -1.02302e-06 
0.943381 -7.00786 9.67159e-07 
1.16529 -6.97439 -3.36149e-06 
1.37828 -6.93544 1.08048e-06 
1.61008 -6.88532 -2.6642e-07 
-2.43439 -6.63881 -7.11103e-07 
-2.2224 -6.71274 2.27915e-06 
-2.01193 -6.7788 -5.76725e-07 
-1.80463 -6.83691 1.51697e-06 
-1.5665 -6.66758 -7.64644e-09 
-1.33887 -6.69566 -7.09153e-09 
-1.12691 -6.74253 1.0928e-08 
-0.894097 -6.80173 4.51172e-09 
-0.681676 -6.78639 -2.34391e-10 
-0.461412 -6.82331 -2.29901e-08 
-0.250539 -6.81745 -8.28569e-10 
-0.0409274 -6.82084 3.11778e-10 
0.174787 -6.83222 3.76537e-09 
0.378557 -6.79791 -9.6736e-09 
0.58425 -6.79919 -7.89867e-09 
0.790678 -6.77818 9.21943e-09 
1.00981 -6.76617 -2.20649e-08 
1.22792 -6.71911 3.23867e-09 
1.44915 -6.69791 3.07913e-09 
1.68725 -6.65702 4.61808e-08 
1.85589 -6.82317 -2.58752e-06 
2.04926 -6.76761 3.5478e-06 
2.28161 -6.69285 -2.16147e-06 
-2.85684 -6.46827 1.44265e-06 
-2.65433 -6.55397 3.11723e-07 
-2.44614 -6.41363 2.2076e-08 
-2.21943 -6.48018 -2.24348e-08 
-1.99938 -6.54544 1.14937e-08 
-1.78169 -6.60443 1.20201e-08 
-1.54164 -6.44035 4.08011e-09 
-1.33365 -6.4753 2.21307e-09 
-1.11813 -6.50276 -3.97634e-09 
-0.916443 -6.57287 6.24635e-09 
-0.705818 -6.54772 -1.59189e-09 
-0.49147 -6.58915 4.22768e-09 
-0.276838 -6.5736 7.20823e-10 
-0.0694507 -6.57468 3.69648e-10 
0.14199 -6.58979 -3.92705e-10 
0.356093 -6.56326 7.51301e-09 
0.57143 -6.55226 7.97121e-10 
0.790826 -6.54632 -4.27092e-09 
1.0142 -6.53472 -4.67555e-09 
1.23473 -6.48747 -9.85038e-09 
1.46749 -6.4825 -3.11349e-09 
1.67587 -6.41659 3.95747e-09 
1.88665 -6.54703 1.15383e-08 
2.1077 -6.53328 -1.43697e-08 
2.32577 -6.44744 -5.40444e-09 
2.4988 -6.61483 2.52418e-07 
2.67682 -6.54482 1.57972e-06 
2.91607 -6.44178 -4.61655e-06 
-3.28498 -6.2617 1.50599e-06 
-3.09288 -6.35878 -9.40851e-08 
-2.88997 -6.2413 2.87744e-09 
-2.65714 -6.30644 -4.0987e-09 
-2.39169 -6.20738 -1.24968e-08 
-2.17416 -6.26872 2.56308e-09 
-1.95993 -6.32601 3.76104e-09 
-1.74926 -6.3799 -4.46634e-09 
-1.5507 -6.20549 1.0177e-09 
-1.33696 -6.24053 1.80003e-10 
-1.12783 -6.27161 3.58176e-09 
-0.909769 -6.32999 -6.53587e-10 
-0.695706 -6.31067 -1.50482e-09 
-0.488293 -6.35586 8.88944e-09 
-0.283598 -6.3293 7.01224e-10 
-0.0749612 -6.32835 3.37283e-09 
0.133296 -6.35045 1.16072e-09 
0.34462 -6.326 -1.50762e-09 
0.553248 -6.31167 -1.0578e-08 
0.763285 -6.31258 -5.602e-09 
0.977073 -6.31223 5.44356e-09 
1.18776 -6.26013 -1.09057e-09 
1.40816 -6.26529 2.1979e-09 
1.6251 -6.20317 3.64984e-09 
1.87959 -6.30441 -9.28945e-10 
2.08508 -6.31337 -5.37298e-09 
2.27293 -6.21275 3.34771e-09 
2.50572 -6.32695 2.3217e-08 
2.72933 -6.31343 1.43332e-08 
2.97571 -6.21336 -1.30457e-08 
3.16137 -6.32501 1.02181e-06 
3.37888 -6.21154 2.52262e-07 
-3.71633 -6.01572 1.93453e-06 
-3.52367 -6.13056 -3.70563e-07 
-3.31404 -6.03635 1.92038e-08 
-3.0839 -6.09414 -3.66406e-10 
-2.82661 -6.03953 5.99799e-10 
-2.6082 -6.09732 6.68256e-09 
-2.41674 -5.97524 6.08512e-09 
-2.2009 -6.03421 -3.53377e-09 
-1.98526 -6.08905 -6.36753e-10 
-1.76849 -6.14392 1.24952e-09 
-1.54557 -5.98309 -6.74891e-09 
-1.32471 -6.01323 7.09628e-10 
-1.11013 -6.0332 -3.88247e-09 
-0.909781 -6.09794 4.06243e-10 
-0.707018 -6.07013 6.78432e-09 
-0.494709 -6.11335 2.32823e-09 
-0.280464 -6.09083 3.1999e-09 
-0.0730296 -6.08461 8.47358e-10 
0.137561 -6.10978 -1.16439e-09 
0.346702 -6.08441 -1.84708e-09 
0.562783 -6.07508 -3.75729e-10 
0.776571 -6.07733 -1.78301e-10 
0.987437 -6.07489 4.8292e-11 
1.19528 -6.01892 1.3179e-10 
1.40012 -6.04016 8.72238e-10 
1.60902 -5.97313 4.64712e-09 
1.82717 -6.08811 2.48513e-09 
2.05085 -6.07219 -6.065e-10 
2.27548 -5.9961 -1.24654e-09 
2.49721 -6.10828 -9.28305e-09 
2.73427 -6.10775 -1.12037e-08 
2.96117 -6.00528 -2.69962e-09 
3.20206 -6.072 -4.57018e-08 
3.41147 -5.95132 2.59558e-08 
3.58528 -6.09473 -2.97038e-06 
-3.94254 -5.86995 -3.2351e-06 
-3.72692 -5.7881 -8.50041e-10 
-3.50373 -5.87706 4.08223e-09 
-3.25982 -5.82749 2.14598e-09 
-3.03809 -5.88777 5.49139e-09 
-2.84475 -5.7951 -3.53522e-09 
-2.63999 -5.8589 -2.67801e-09 
-2.42091 -5.75718 -3.8374e-09 
-2.19775 -5.80766 -6.79319e-10 
-1.98239 -5.86038 -5.09057e-09 
-1.7667 -5.91829 -2.292e-09 
-1.55666 -5.75972 -3.28119e-09 
-1.33857 -5.79036 -3.96275e-09 
-1.12114 -5.80278 -1.30626e-09 
-0.905175 -5.85002 1.18467e-09 
-0.69016 -5.83391 -8.20149e-10 
-0.489992 -5.88073 2.32808e-09 
-0.290428 -5.84393 2.24992e-09 
-0.0876391 -5.84071 -2.34049e-09 
0.121765 -5.86993 -5.93354e-11 
0.340628 -5.85491 -5.73529e-10 
0.553152 -5.84158 3.90522e-09 
0.765342 -5.84506 2.12605e-09 
0.979337 -5.84025 4.74912e-10 
1.19537 -5.79108 4.76926e-09 
1.41048 -5.80261 -2.8535e-10 
1.63487 -5.75414 5.06612e-09 
1.84273 -5.86921 -7.73838e-10 
2.05975 -5.85027 2.08045e-09 
2.27704 -5.77477 -3.3161e-09 
2.49413 -5.88559 9.73556e-10 
2.71394 -5.90077 -6.4457e-10 
2.92436 -5.79492 7.73879e-09 
3.16454 -5.85654 1.27247e-09 
3.38969 -5.74539 -5.05917e-09 
3.63971 -5.85127 -2.33916e-08 
3.81778 -5.95185 2.95914e-06 
3.99793 -5.83237 -5.67593e-07 
-4.38613 -5.54634 -1.09329e-06 
-4.13828 -5.73364 1.79759e-06 
-3.91577 -5.62996 -3.73246e-08 
-3.68047 -5.56827 -4.10754e-09 
-3.48173 -5.6661 1.07244e-08 
-3.29553 -5.58413 5.75034e-10 
-3.08645 -5.65231 -4.10181e-09 
-2.85779 -5.58618 -2.28293e-09 
-2.62239 -5.62213 -1.54636e-09 
-2.39594 -5.53307 -1.22878e-09 
-2.1875 -5.58639 -5.99403e-09 
-1.97379 -5.6296 -6.65669e-09 
-1.76766 -5.68727 -3.42822e-09 
-1.57444 -5.52806 2.6462e-09 
-1.36462 -5.56826 3.47875e-09 
-1.14734 -5.5811 3.47347e-09 
-0.923631 -5.62291 -8.80309e-10 
-0.703621 -5.61388 4.93016e-10 
-0.477754 -5.63531 -2.61446e-09 
-0.268097 -5.60266 -3.38654e-09 
-0.049763 -5.61202 -1.79877e-09 
0.163771 -5.64344 -1.94676e-09 
0.379004 -5.6223 -1.10301e-09 
0.593376 -5.61114 2.06095e-09 
0.806153 -5.61745 -1.75612e-09 
1.0161 -5.60924 -7.00733e-11 
1.24519 -5.57202 6.59967e-11 
1.45335 -5.57839 -1.56695e-10 
1.65578 -5.51781 -3.95116e-09 
1.84699 -5.641 4.04605e-09 
2.05774 -5.62493 1.58045e-09 
2.26119 -5.54851 2.20745e-09 
2.48097 -5.65469 -4.20231e-09 
2.69416 -5.67867 3.20236e-09 
2.91699 -5.58341 4.91948e-10 
3.147 -5.64887 -4.28279e-10 
3.35233 -5.52969 3.1131e-09 
3.59287 -5.63568 2.4732e-09 
3.82077 -5.66654 1.7685e-08 
4.03441 -5.587 8.84646e-08 
4.22486 -5.67015 -1.14754e-06 
-4.57836 -5.38875 -3.80736e-06 
-4.34087 -5.31877 -2.89033e-09 
-4.15956 -5.51743 -1.08933e-07 
-3.9313 -5.42438 1.5094e-08 
-3.7242 -5.3496 1.8458e-10 
-3.49604 -5.40874 -2.22556e-09 
-3.26844 -5.36774 -1.48241e-09 
-3.05343 -5.42847 1.43324e-09 
-2.83951 -5.3541 -1.35088e-09 
-2.6352 -5.41058 -2.44111e-10 
-2.41827 -5.32099 1.1395e-10 
-2.19106 -5.35188 -5.95415e-10 
-1.98753 -5.39658 1.3444e-10 
-1.77901 -5.44703 -5.02162e-10 
-1.54247 -5.31562 1.16935e-09 
-1.32759 -5.35318 -1.47167e-10 
-1.11679 -5.3598 2.70294e-10 
-0.916633 -5.40835 1.22112e-09 
-0.722544 -5.37632 -2.17601e-09 
-0.523662 -5.41616 -4.25539e-10 
-0.316809 -5.37845 1.17021e-10 
-0.10203 -5.38885 -1.91396e-10 
0.116735 -5.40983 1.82221e-10 
0.318914 -5.40423 8.82189e-10 
0.53197 -5.39025 -4.72718e-10 
0.746571 -5.39149 -1.37448e-10 
0.951859 -5.3871 -3.0348e-10 
1.16034 -5.38586 -1.01747e-09 
1.39466 -5.35305 -1.49302e-09 
1.58878 -5.31005 4.4253e-10 
1.83708 -5.39344 -6.49841e-11 
2.03326 -5.39915 -2.90906e-10 
2.25315 -5.33803 -1.76048e-10 
2.48034 -5.43654 3.35103e-09 
2.70401 -5.4551 1.47162e-09 
2.90999 -5.35497 6.17655e-10 
3.12137 -5.42988 1.70491e-09 
3.32886 -5.31306 6.4762e-09 
3.56521 -5.42466 5.23826e-09 
3.79506 -5.44557 -1.19232e-08 
4.02679 -5.37759 1.17492e-09 
4.25912 -5.42184 -1.11368e-08 
4.44813 -5.49674 -1.27379e-06 
-4.79479 -5.19712 5.49254e-08 
-4.56086 -5.17207 -4.72808e-08 
-4.3451 -5.09327 9.99112e-09 
-4.12284 -5.2883 -7.84977e-09 
-3.909 -5.1867 2.0984e-09 
-3.68656 -5.12192 -7.37074e-10 
-3.49102 -5.19522 -2.50206e-09 
-3.27414 -5.14608 -1.93794e-10 
-3.05704 -5.20173 5.98229e-10 
-2.83456 -5.13685 -1.27284e-09 
-2.61442 -5.17913 1.12799e-09 
-2.37018 -5.11823 2.8359e-09 
-2.15567 -5.13382 2.94068e-09 
-1.94789 -5.17178 2.35609e-09 
-1.74854 -5.22917 2.56748e-09 
-1.56077 -5.09207 2.0579e-10 
-1.35321 -5.13984 2.90225e-10 
-1.13927 -5.14631 -7.25626e-11 
-0.925652 -5.17496 -1.20568e-10 
-0.711878 -5.16079 -4.18626e-10 
-0.507851 -5.18713 -4.92349e-11 
-0.288592 -5.1647 -2.65258e-12 
-0.0691535 -5.18053 -8.31177e-10 
0.13322 -5.17981 -3.49678e-10 
0.34402 -5.18525 -5.64557e-10 
0.563233 -5.1767 -5.25037e-10 
0.770448 -5.16809 -3.31193e-10 
0.982599 -5.17114 -6.94836e-10 
1.20834 -5.1901 -6.1238e-10 
1.41129 -5.11991 -3.5867e-10 
1.68646 -5.16086 6.76125e-11 
1.89565 -5.17086 -3.15507e-09 
2.10331 -5.16935 -9.21721e-10 
2.29562 -5.07772 -2.92965e-09 
2.44748 -5.21295 8.72006e-10 
2.66379 -5.23991 1.68331e-09 
2.87125 -5.1472 1.80877e-10 
3.1133 -5.20041 3.01388e-09 
3.3415 -5.09888 2.82768e-10 
3.5626 -5.22271 4.83721e-09 
3.80218 -5.23272 -1.46635e-09 
4.01678 -5.15582 -1.73949e-09 
4.23642 -5.20422 5.98122e-09 
4.46244 -5.24034 -1.54587e-07 
4.65298 -5.32445 4.87997e-06 
4.79632 -5.1957 -3.26217e-06 
-4.99544 -5.00456 3.19001e-06 
-4.76076 -4.97865 -8.68828e-08 
-4.54527 -4.942 -4.47924e-09 
-4.3212 -4.86864 3.66262e-09 
-4.12875 -5.06623 3.69092e-09 
-3.90596 -4.97122 -3.80114e-09 
-3.67202 -4.91494 -7.12427e-10 
-3.44485 -4.96254 -2.02764e-10 
-3.23236 -4.90985 -8.42868e-10 
-3.04186 -4.98194 -1.64695e-10 
-2.85251 -4.89454 9.35721e-13 
-2.65261 -4.95807 3.30006e-09 
-2.44229 -4.94239 3.15516e-09 
-2.19361 -4.9177 2.1443e-09 
-1.97433 -4.94477 1.10217e-09 
-1.76561 -4.99489 1.02931e-09 
[...]
POINT_DATA 3402 
VECTORS vectors float
0.0119251 -0.00294471 0.999923 
0.0113611 -0.00227416 0.999931 
0.0116964 -0.00228676 0.999928 
0.0124309 -0.00183513 0.99992 
0.0114903 -0.00115909 0.999932 
0.0120027 -0.00108585 0.999926 
0.0118089 -0.000438434 0.999929 
0.0118413 -0.000239271 0.999928 
0.0122449 0.000121727 0.999924 
0.0115816 0.000788293 0.999931 
0.0118277 0.000807913 0.999928 
0.0116693 0.00138681 0.999929 
0.0123143 0.00163072 0.999922 
0.0114487 0.00221074 0.999931 
0.0113938 0.00233753 0.999932 
0.0121988 0.0030319 0.999922 
0.0119043 -0.00468757 0.999918 
0.0111711 -0.00395141 0.999929 
0.0114679 -0.00362564 0.999927 
0.0117575 -0.00330861 0.999924 
0.127774 -0.0302006 0.991345 
0.136003 -0.0272082 0.990336 
0.130725 -0.0222303 0.991171 
0.124758 -0.0165644 0.992051 
0.138423 -0.0140162 0.990275 
0.133495 -0.00935257 0.991007 
0.138411 -0.00536936 0.990362 
0.137386 -0.00133951 0.990518 
0.134873 0.00329447 0.990859 
0.142833 0.00832664 0.989713 
0.138123 0.0121061 0.990342 
0.137857 0.0163283 0.990319 
0.130151 0.0197254 0.9913 
0.133468 0.0245649 0.99075 
0.124276 0.0267973 0.991888 
0.116148 0.0299737 0.992782 
0.0111451 0.00342847 0.999932 
0.0109248 0.00333431 0.999934 
0.0122921 0.00458466 0.999915 
0.0116541 -0.00561274 0.999917 
0.0103348 -0.00438712 0.999937 
0.117173 -0.0444573 0.992118 
0.121871 -0.0413373 0.991687 
0.127416 -0.038459 0.991105 
0.128543 -0.0347267 0.991098 
0.162426 -0.0389708 0.985952 
0.163793 -0.0339375 0.985912 
0.16345 -0.0284328 0.986143 
0.164892 -0.0235947 0.98603 
0.163525 -0.0182296 0.986372 
0.164149 -0.0130169 0.986351 
0.161881 -0.0074672 0.986784 
0.162048 -0.00220149 0.986782 
0.162974 0.00331103 0.986626 
0.161715 0.00877591 0.9868 
0.162506 0.0145605 0.986601 
0.161778 0.0201285 0.986623 
0.16353 0.0259574 0.986198 
0.162289 0.0314689 0.986243 
0.162581 0.0370028 0.986002 
0.161842 0.0422273 0.985914 
0.137018 0.0393665 0.989787 
0.118632 0.0378537 0.992218 
0.119833 0.0439305 0.991824 
0.0107655 0.00430999 0.999932 
0.010373 0.00442601 0.999936 
0.0114648 0.0056711 0.999921 
0.0104381 -0.00600895 0.999929 
0.0103509 -0.00530425 0.999933 
0.104634 -0.0480312 0.993353 
0.122248 -0.051061 0.991187 
0.156906 -0.0594378 0.985825 
0.158988 -0.0544487 0.985779 
0.160466 -0.0492131 0.985815 
0.161796 -0.0440088 0.985843 
0.14664 -0.0364286 0.98852 
0.1458 -0.0312895 0.98882 
0.146798 -0.0267688 0.988806 
0.148025 -0.0217928 0.988745 
0.145043 -0.0166862 0.989286 
0.145433 -0.012192 0.989294 
0.143911 -0.007201 0.989565 
0.141922 -0.00220917 0.989877 
0.144829 0.00289121 0.989454 
0.143674 0.00809403 0.989593 
0.143304 0.0132795 0.989591 
0.144761 0.0181397 0.989302 
0.146157 0.0228694 0.988999 
0.144997 0.0277404 0.989045 
0.147686 0.033153 0.98848 
0.146983 0.0382276 0.988401 
0.159521 0.0475 0.986052 
0.158164 0.0522729 0.986029 
0.15626 0.0572039 0.986059 
0.134885 0.0531244 0.989437 
0.108135 0.0458886 0.993079 
0.0989383 0.0471639 0.993978 
0.0109003 0.00593234 0.999926 
0.00991959 0.00561907 0.999936 
0.0102443 -0.00701762 0.999925 
0.0107363 -0.0064251 0.999923 
0.0988019 -0.0537529 0.993657 
0.122177 -0.0614585 0.990605 
0.151253 -0.0701812 0.986002 
0.154742 -0.0656855 0.98577 
0.144937 -0.0579242 0.987745 
0.144911 -0.05188 0.988085 
0.144552 -0.0463312 0.988413 
0.145488 -0.0413639 0.988496 
0.132046 -0.0334796 0.990679 
0.131208 -0.0287546 0.990939 
0.132241 -0.0243713 0.990919 
0.131459 -0.0200671 0.99112 
0.13124 -0.0160816 0.991222 
0.130894 -0.0114264 0.991332 
0.129247 -0.00661875 0.991592 
0.128637 -0.00186154 0.991691 
0.129136 0.00293178 0.991624 
0.129973 0.00765704 0.991489 
0.128911 0.0122574 0.991582 
0.130877 0.0169922 0.991255 
0.130594 0.0213475 0.991207 
0.129925 0.0257449 0.991191 
0.131861 0.0303657 0.990804 
0.130594 0.0347246 0.990829 
0.141497 0.0421796 0.989041 
0.143534 0.0483799 0.988464 
0.143474 0.0544528 0.988156 
0.155128 0.0635714 0.985848 
0.150886 0.0674479 0.986248 
0.148121 0.0728053 0.986287 
0.108003 0.0569142 0.992522 
0.109375 0.062187 0.992055 
0.0107579 0.00695471 0.99992 
0.0101744 -0.00708039 0.999926 
0.0961356 -0.0617264 0.993455 
0.11384 -0.0677342 0.991189 
0.144673 -0.0806449 0.986189 
0.148745 -0.0763445 0.985925 
0.141566 -0.0687356 0.987541 
0.139727 -0.0621618 0.988238 
0.128527 -0.053095 0.990285 
0.128961 -0.0477856 0.990499 
0.129517 -0.0427151 0.990658 
0.131497 -0.0384253 0.990573 
0.124106 -0.0329616 0.991723 
0.124483 -0.0284979 0.991814 
0.123598 -0.023881 0.992046 
0.124759 -0.0195933 0.991995 
0.124419 -0.0150988 0.992116 
0.125337 -0.0109744 0.992055 
0.122982 -0.00645236 0.992389 
0.122037 -0.00183114 0.992525 
0.123785 0.00266811 0.992307 
0.122273 0.00728425 0.992471 
0.123013 0.0116571 0.992338 
0.123577 0.0161813 0.992205 
0.122946 0.0205712 0.992202 
0.122364 0.0249753 0.992172 
0.123164 0.0296878 0.991944 
0.122134 0.0342264 0.991925 
0.128459 0.0400226 0.990908 
0.128513 0.045016 0.990687 
0.126659 0.0499185 0.990691 
0.138853 0.0587229 0.988572 
0.144948 0.0663929 0.987211 
0.144156 0.0720041 0.986933 
0.146851 0.0787748 0.986018 
0.143815 0.0842094 0.986016 
0.0935063 0.0579737 0.993932 
0.0106208 0.0071353 0.99992 
0.00915747 0.00678431 0.999937 
0.010148 -0.00848408 0.999916 
0.01027 -0.00810146 0.999918 
0.104805 -0.0726719 0.991836 
0.137884 -0.0909792 0.986262 
0.141789 -0.0871832 0.986051 
0.138014 -0.0811997 0.987098 
0.135843 -0.0736436 0.987991 
0.124459 -0.0630156 0.990223 
0.123501 -0.0568604 0.990715 
0.118281 -0.050492 0.991697 
0.119822 -0.0458848 0.991736 
0.121168 -0.0413979 0.99177 
0.122678 -0.0372967 0.991747 
0.116633 -0.0330997 0.992625 
0.117241 -0.0288437 0.992686 
0.112989 -0.0234568 0.993321 
0.115957 -0.0191621 0.99307 
0.112579 -0.014258 0.993542 
0.112626 -0.0095643 0.993593 
0.109073 -0.00506207 0.994022 
0.108502 -0.000723983 0.994097 
0.111982 0.00353232 0.993705 
0.111025 0.00768998 0.993789 
0.111789 0.0118571 0.993663 
0.113455 0.0163914 0.993409 
0.114608 0.0207528 0.993195 
0.113488 0.0252866 0.993219 
0.116113 0.0301411 0.99278 
0.114219 0.0342552 0.992866 
0.118558 0.0384479 0.992204 
0.121125 0.0440559 0.99166 
0.118889 0.0482111 0.991738 
0.124077 0.054306 0.990787 
0.127517 0.0600058 0.990021 
0.1258 0.0650636 0.989921 
0.138255 0.0763078 0.987454 
0.135504 0.0811972 0.987445 
0.140603 0.0888977 0.986068 
0.112749 0.0751456 0.990779 
0.0911011 0.0651041 0.993713 
0.0105764 0.00839406 0.999913 
0.00979086 -0.00891543 0.999915 
0.0961096 -0.0787139 0.992255 
0.0797037 -0.0600065 0.995013 
0.132556 -0.0963788 0.98648 
0.134771 -0.0937985 0.986429 
0.130078 -0.0838208 0.987956 
0.119359 -0.072355 0.990212 
0.119468 -0.0668571 0.990586 
0.114359 -0.060264 0.991611 
0.115009 -0.0555871 0.991809 
0.110798 -0.0501444 0.992578 
0.110622 -0.0449785 0.992846 
0.112232 -0.0409545 0.992839 
0.112998 -0.0365733 0.992923 
0.0972274 -0.0283623 0.994859 
0.0950704 -0.0237226 0.995189 
0.0908574 -0.0190775 0.995682 
0.0934068 -0.0159029 0.995502 
0.0853623 -0.0113474 0.996287 
0.0889353 -0.00851409 0.996002 
0.0803804 -0.00460677 0.996755 
0.0801977 -0.00131315 0.996779 
0.0834732 0.00200346 0.996509 
0.084106 0.00512358 0.996445 
0.0841834 0.00847724 0.996415 
0.0880053 0.0123271 0.996045 
0.0913785 0.0162575 0.995685 
0.0945114 0.0204699 0.995314 
0.0963341 0.0251588 0.995032 
0.0963707 0.0288808 0.994928 
0.108614 0.0369559 0.993398 
0.11122 0.0418621 0.992915 
0.110472 0.0465835 0.992788 
0.11508 0.0521449 0.991988 
0.118392 0.058171 0.991263 
0.115737 0.0622894 0.991326 
0.121362 0.0689442 0.990212 
0.118099 0.0729553 0.990319 
0.134915 0.0877422 0.986966 
0.1359 0.0944253 0.986214 
0.129213 0.0966044 0.986901 
0.0843865 0.0669026 0.994187 
0.00964898 0.00861176 0.99992 
0.010191 -0.0098557 0.999903 
0.0812224 -0.0715599 0.994126 
0.122843 -0.105287 0.986827 
0.128083 -0.100035 0.986707 
0.12842 -0.0969583 0.98697 
0.115078 -0.0826908 0.98991 
0.11447 -0.0766241 0.990468 
0.110067 -0.0697903 0.991472 
0.110309 -0.0646368 0.991795 
0.106252 -0.0585398 0.992616 
0.105639 -0.0534009 0.992971 
0.0991964 -0.0463658 0.993988 
0.0956146 -0.0405625 0.994593 
0.0927845 -0.0352504 0.995063 
0.0929627 -0.0313129 0.995179 
0.0662027 -0.0205262 0.997596 
0.0655414 -0.0173899 0.997699 
0.0596079 -0.0132795 0.998135 
0.0578807 -0.0103787 0.998271 
0.052184 -0.0070915 0.998613 
0.0531227 -0.00514259 0.998576 
0.0466883 -0.00254194 0.998908 
0.0483855 -0.00049477 0.99883 
0.0484219 0.001372 0.998827 
0.0506572 0.00348319 0.998711 
0.0519967 0.00578241 0.998632 
0.054477 0.00821868 0.998483 
0.0590524 0.0113146 0.998192 
0.0685802 0.0160597 0.997517 
0.0632137 0.0174626 0.997849 
0.0802275 0.0262683 0.996432 
0.0889535 0.0328705 0.995495 
0.0967138 0.0395723 0.994526 
0.0940494 0.0428757 0.994645 
0.106707 0.0500316 0.993032 
0.110476 0.0558141 0.992312 
0.108251 0.0600277 0.992311 
0.111882 0.0662658 0.991511 
0.109069 0.0709107 0.991503 
0.117504 0.0793819 0.989896 
0.12822 0.092974 0.987379 
0.130212 0.101533 0.986275 
0.126228 0.102885 0.986653 
0.0865331 0.0746334 0.993452 
0.00928927 0.00829392 0.999923 
0.00894738 0.00878872 0.999923 
0.00954901 -0.0102152 0.999905 
0.0818135 -0.0780617 0.993587 
0.118697 -0.109154 0.986914 
0.122297 -0.108864 0.986506 
0.129263 -0.105733 0.985958 
0.112406 -0.0882403 0.989738 
0.105603 -0.0787195 0.991289 
0.104937 -0.0726202 0.991825 
0.101588 -0.0667578 0.992586 
0.101965 -0.0622083 0.992842 
0.0953889 -0.0558011 0.993877 
0.0950143 -0.0513055 0.994154 
0.086503 -0.0434156 0.995306 
0.0712346 -0.0323734 0.996935 
0.0632542 -0.0257773 0.997666 
0.0613246 -0.0220652 0.997875 
0.037381 -0.0119147 0.999231 
0.0357367 -0.0096708 0.999316 
0.0309286 -0.00701864 0.999498 
0.0297263 -0.00540665 0.999545 
0.0238713 -0.00339075 0.999711 
0.0239382 -0.00242464 0.999712 
0.0224079 -0.00134791 0.999749 
0.0232225 -0.000364786 0.999732 
0.0218448 0.000627424 0.999762 
0.0237098 0.00163886 0.999719 
0.0256718 0.00285104 0.999668 
0.0261066 0.00411431 0.999652 
0.0308266 0.00608723 0.999507 
0.038002 0.00907691 0.999238 
0.0341994 0.00969595 0.999369 
0.0503986 0.0162245 0.998599 
0.0578594 0.0214822 0.998095 
0.0676901 0.028174 0.99731 
0.0670941 0.0312534 0.997258 
0.0866535 0.0439925 0.995268 
0.0994432 0.0522387 0.993673 
0.0984712 0.0568875 0.993514 
0.104074 0.0640005 0.99251 
0.100698 0.067422 0.992631 
0.106601 0.0751996 0.991455 
0.110539 0.0821289 0.990474 
0.109845 0.0872868 0.99011 
0.121113 0.101258 0.987462 
0.125361 0.10904 0.986102 
0.109167 0.0990378 0.989078 
0.0768745 0.0729963 0.994367 
0.0100012 0.0108167 0.999889 
0.0095668 -0.0109898 0.999896 
0.0712933 -0.0739313 0.994713 
0.113148 -0.11301 0.987132 
0.120213 -0.115297 0.986032 
0.10748 -0.0994038 0.989227 
0.111388 -0.0945178 0.989273 
0.102339 -0.0830547 0.991277 
0.097876 -0.0766476 0.992244 
0.097671 -0.071349 0.992659 
0.0930516 -0.0648305 0.99355 
0.0894622 -0.0577193 0.994318 
0.0759134 -0.0462971 0.99604 
0.0715588 -0.040095 0.996631 
0.0601023 -0.0307631 0.997719 
0.0429877 -0.0200917 0.998875 
0.0348038 -0.0146845 0.999288 
0.0325373 -0.0120714 0.999399 
0.0163226 -0.0055066 0.999853 
0.0156545 -0.0045227 0.999868 
0.0127351 -0.00310478 0.999916 
0.011534 -0.00227186 0.999932 
0.00859569 -0.00131205 0.999963 
0.00768977 -0.000802467 0.999971 
0.00864554 -0.000468718 0.999964 
0.00839895 -8.39318e-05 0.999966 
0.00725816 0.000251477 0.999975 
0.008472 0.000667992 0.999965 
0.00979277 0.00122123 0.999952 
0.00956163 0.00161908 0.999954 
0.0124199 0.00265155 0.99992 
0.0174308 0.00440135 0.99984 
0.0166322 0.00512195 0.99985 
0.0285814 0.00991877 0.999544 
0.0330906 0.0131138 0.999368 
0.0381368 0.0167781 0.999133 
0.0506132 0.0253481 0.998398 
0.0626296 0.0340068 0.997458 
0.0812104 0.0465356 0.995611 
0.0776854 0.0485499 0.995796 
0.0935094 0.0596333 0.993832 
0.0911071 0.0630369 0.993846 
0.0978956 0.0708641 0.992672 
0.100381 0.0771872 0.991952 
0.0999436 0.0824051 0.991576 
0.104838 0.0907659 0.99034 
0.117321 0.106622 0.987355 
0.119296 0.113845 0.986311 
0.109687 0.110739 0.987779 
0.0664642 0.0712276 0.995245 
0.00924075 0.0108837 0.9999 
0.00842844 -0.010637 0.999911 
0.0709369 -0.0805325 0.994226 
0.107745 -0.116905 0.987283 
0.115547 -0.120419 0.985977 
0.106681 -0.106618 0.988562 
0.0950277 -0.0914607 0.991265 
0.0995445 -0.0874349 0.991185 
0.0950838 -0.0813446 0.992141 
0.0899133 -0.0736076 0.993227 
0.0875108 -0.0668177 0.993921 
0.078351 -0.0558406 0.995362 
0.0670231 -0.0449023 0.996742 
0.0484102 -0.0302604 0.99837 
0.0445203 -0.0255321 0.998684 
0.034119 -0.0178768 0.999259 
0.0203443 -0.00991941 0.999745 
0.0139568 -0.00625512 0.999884 
0.0140944 -0.00559116 0.999886 
0.00591399 -0.00220829 0.999981 
0.0050415 -0.00161547 0.999987 
0.0036147 -0.000993372 0.999994 
0.00306031 -0.000683022 0.999996 
0.00192566 -0.000357143 0.999999 
0.00174889 -0.000213586 0.999999 
0.00209785 -0.000120128 0.999999 
0.00192495 -1.64708e-06 0.999999 
0.00156079 8.57714e-05 1 
0.0021104 0.000224967 0.999999 
0.00241698 0.000374921 0.999998 
0.0025336 0.000532871 0.999998 
0.00403176 0.000999036 0.999993 
0.00666749 0.00186468 0.999977 
0.00414073 0.00139104 0.999992 
0.0101343 0.00362025 0.999943 
0.0144389 0.00577032 0.99988 
0.0163009 0.00744848 0.999841 
0.0279462 0.0139006 0.999514 
0.0340064 0.0189386 0.999244 
0.0503309 0.030247 0.998276 
0.0509581 0.033473 0.998141 
0.0713385 0.049162 0.996241 
0.0892865 0.0669578 0.993754 
0.0928018 0.0738373 0.992945 
0.0925907 0.0792376 0.992548 
0.0965259 0.0862993 0.991583 
0.100221 0.0940122 0.990515 
0.110112 0.108683 0.987961 
0.115661 0.119908 0.986026 
0.109133 0.119862 0.986775 
0.079319 0.0915293 0.99264 
0.00735191 0.00910319 0.999933 
0.00779471 -0.0106507 0.999916 
0.0752681 -0.0924575 0.99287 
0.105211 -0.123519 0.98675 
0.111143 -0.124622 0.985961 
0.10014 -0.108033 0.989092 
0.0920561 -0.0952432 0.99119 
0.0874178 -0.0882005 0.992261 
0.0937641 -0.0869005 0.991796 
0.0876398 -0.080899 0.992863 
0.0840299 -0.0738643 0.993723 
0.0745958 -0.0614777 0.995318 
0.0678159 -0.0520981 0.996338 
0.0487881 -0.0354421 0.998181 
0.0368834 -0.0250237 0.999008 
0.0234003 -0.0145814 0.999621 
0.0198513 -0.0113541 0.99974 
0.0113979 -0.00608445 0.999918 
0.00554835 -0.00278732 0.999982 
0.00403172 -0.0018402 0.999991 
0.00206699 -0.000926237 0.999999 
0.00116937 -0.000506802 1 
0.00057217 -0.000295747 1 
0.000325659 -0.000191707 1 
3.33591e-05 -0.000113971 1 
-3.0832e-05 -7.53977e-05 1 
4.5527e-06 -4.40812e-05 1 
3.43365e-05 -1.35378e-05 1 
-2.49998e-05 9.31301e-06 1 
4.55673e-05 3.99449e-05 1 
6.7099e-05 6.8795e-05 1 
0.000200322 0.000118099 1 
0.000539348 0.000215092 1 
0.00114114 0.000396899 1 
0.000717134 0.000322927 1 
0.00297536 0.00119848 0.999996 
0.00503375 0.0022074 0.999986 
0.00621675 0.00306491 0.999977 
0.0138178 0.00725017 0.99988 
0.0148923 0.00864252 0.999853 
0.0262901 0.0163271 0.999522 
0.0297408 0.0203775 0.999351 
0.0476361 0.0346605 0.998265 
0.0728581 0.0544135 0.995858 
0.0789319 0.0638714 0.994833 
0.0829676 0.0714317 0.99399 
0.0872234 0.0803817 0.992942 
0.0926995 0.0890536 0.991705 
0.0952099 0.0964712 0.990773 
0.0994227 0.10586 0.9894 
0.108327 0.120922 0.986734 
0.106042 0.125155 0.986455 
0.0832936 0.101579 0.991336 
0.00807307 0.0111332 0.999909 
0.00722604 -0.0106086 0.999921 
0.0720671 -0.0950782 0.99286 
0.10181 -0.129303 0.986366 
0.102953 -0.125447 0.986745 
0.0940404 -0.109736 0.989503 
0.0877024 -0.098245 0.991291 
0.0845051 -0.0915681 0.992208 
0.0811818 -0.0804527 0.993448 
0.0717503 -0.0682196 0.995088 
0.0665482 -0.0591253 0.996031 
0.0488661 -0.0406428 0.997979 
0.037244 -0.0292399 0.99888 
0.0226874 -0.016736 0.999604 
0.0163206 -0.0111258 0.999806 
0.00829631 -0.00527505 0.999953 
0.00551156 -0.00326689 0.999981 
0.0024289 -0.00136732 0.999997 
0.00105691 -0.000597887 1 
0.000142455 -0.000160555 1 
8.20127e-05 -0.000146188 1 
-0.000179178 -5.54031e-05 1 
-0.000261121 -5.746e-05 1 
-0.00029041 -6.2822e-05 1 
-0.000275156 -6.82999e-05 1 
-0.000250424 -6.04588e-05 1 
-0.000233259 -3.9101e-05 1 
-0.000223925 -1.96401e-05 1 
-0.000225437 9.32244e-06 1 
-0.000218883 3.01022e-05 1 
-0.000236177 4.34985e-05 1 
-0.000251804 5.07825e-05 1 
-0.000270248 3.45311e-05 1 
-0.000124762 6.83116e-05 1 
-0.000209941 1.99845e-05 1 
0.000383418 0.0002309 1 
0.00112931 0.000565829 1 
0.00132983 0.000716854 1 
0.00448214 0.0025071 0.999988 
0.00591547 0.00367598 0.999977 
0.0130739 0.00864674 0.999878 
0.0180781 0.0132413 0.99975 
0.0311464 0.0241056 0.999225 
0.0552235 0.0439339 0.997509 
0.0559859 0.0482319 0.997267 
0.0727479 0.0664151 0.995138 
0.0809674 0.0787033 0.993606 
0.0866806 0.0880179 0.992342 
0.0878455 0.0939169 0.991698 
0.0884705 0.0991862 0.991129 
0.0951331 0.111014 0.989257 
0.100263 0.123045 0.987324 
0.101688 0.129624 0.986337 
0.0595565 0.0777652 0.995194 
0.00747788 0.0112063 0.999913 
0.00698651 -0.0113355 0.999915 
0.0659389 -0.094359 0.993354 
0.0963436 -0.132907 0.986436 
0.0979249 -0.129985 0.98667 
0.0879036 -0.112057 0.989808 
0.0838816 -0.102063 0.991236 
0.0805571 -0.0951704 0.992197 
0.0763323 -0.0872537 0.993259 
0.0770354 -0.0824833 0.993612 
0.0655983 -0.0672327 0.99558 
0.0482382 -0.0465463 0.997752 
0.0406222 -0.036482 0.99851 
0.0231322 -0.0198194 0.999537 
0.0156227 -0.012563 0.9998 
0.00852688 -0.00641011 0.999944 
0.00508477 -0.00357185 0.999982 
0.00169574 -0.00116683 0.999999 
0.000865159 -0.000576182 1 
0.000161758 -0.000155983 1 
-0.000185674 1.06109e-05 1 
-0.000237837 -8.6817e-07 1 
-0.000241989 -7.21712e-06 1 
-0.000193217 -4.27769e-05 1 
-0.000131846 -7.61011e-05 1 
-9.68448e-05 -9.77076e-05 1 
-5.10197e-05 -9.45386e-05 1 
-3.61149e-05 -6.9972e-05 1 
-3.47055e-05 -3.81358e-05 1 
-5.5034e-05 1.85016e-06 1 
-4.35981e-05 3.3398e-05 1 
-5.75953e-05 7.42179e-05 1 
-0.000111334 7.87946e-05 1 
-0.000175816 7.08994e-05 1 
-0.000249525 3.40219e-05 1 
-0.000205688 1.89004e-05 1 
-0.000278311 -3.36068e-05 1 
-0.000141673 -1.10906e-05 1 
6.83862e-07 2.86247e-05 1 
0.00106626 0.000664994 1 
0.00100081 0.000701389 1 
0.00370589 0.00257996 0.999991 
0.00743103 0.00548217 0.999959 
0.0141536 0.0114351 0.999836 
0.0299385 0.0253034 0.999233 
0.0431045 0.0396488 0.998285 
0.060616 0.0589071 0.996423 
0.0669541 0.0691097 0.995361 
0.0779659 0.0819415 0.993584 
0.0808149 0.0894801 0.992706 
0.0829267 0.0968749 0.991837 
0.0829052 0.101164 0.991411 
0.0857552 0.109604 0.99027 
0.0967053 0.126843 0.987199 
0.0968911 0.132201 0.986477 
0.0723201 0.103073 0.992043 
0.0059416 0.0095222 0.999939 
0.00630797 -0.010944 0.999922 
0.0610379 -0.0959436 0.993516 
0.0917253 -0.137654 0.986225 
0.092567 -0.133885 0.986666 
0.0828357 -0.115299 0.989872 
0.0787931 -0.105206 0.991325 
0.0770425 -0.0988523 0.992117 
0.0730142 -0.0904253 0.993224 
0.0648435 -0.0762997 0.994976 
0.0620005 -0.0680142 0.995757 
0.0411987 -0.0428637 0.998232 
0.0248001 -0.0240046 0.999405 
0.0156229 -0.01438 0.999776 
0.00747105 -0.00649309 0.999952 
0.00445717 -0.00364433 0.999985 
0.00189973 -0.00148694 0.999998 
0.000492325 -0.000413321 1 
-5.89915e-05 -1.52975e-05 1 
-0.000161273 3.05792e-05 1 
-0.000188595 3.06228e-05 1 
-0.000144481 -1.94123e-05 1 
-2.2115e-05 -7.19797e-05 1 
-1.01654e-05 -9.76273e-05 1 
4.37674e-05 -9.80939e-05 1 
-9.73783e-06 -9.14591e-05 1 
-7.65798e-05 -8.11025e-05 1 
-0.00032182 -4.03396e-05 1 
-0.000659926 2.01421e-06 1 
-0.000671818 -1.54303e-05 1 
-0.000537425 -7.68409e-06 1 
-0.000312138 3.05226e-05 1 
-0.000329288 2.88921e-05 1 
1.03629e-05 0.000106789 1 
-2.04244e-05 0.000108633 1 
-1.26944e-05 0.000112227 1 
1.42215e-05 0.000107628 1 
-0.000187204 -1.72651e-05 1 
-0.000252441 -9.00668e-05 1 
-0.000245663 -0.000114304 1 
-0.000153847 -6.54238e-05 1 
4.73748e-05 7.55705e-05 1 
0.00120822 0.000951267 1 
0.00421018 0.00337732 0.999987 
0.00802576 0.0070154 0.999945 
0.0191699 0.0173459 0.999667 
0.0213638 0.0207783 0.999557 
0.0370842 0.0374998 0.99861 
0.050005 0.0540804 0.997285 
0.0684276 0.0770476 0.994678 
0.0730768 0.0869712 0.993528 
0.0760138 0.0955511 0.992519 
0.0764427 0.101378 0.991908 
0.0807622 0.111415 0.990488 
0.0926 0.130547 0.98711 