# vtk DataFile Version 3.0 
Exported using Morpho https://github.com/Morpho-lang/morpho 
ASCII 
DATASET UNSTRUCTURED_GRID 

POINTS 3402 float 
-1.58829 -6.89038 -3.87597e-07 
-1.38781 -6.93354 9.76624e-09 
-1.18471 -6.97112 -7.22735e-07 
-0.96968 -7.00426 3.44311e-06 
-0.727879 -7.0335 -3.01559e-06 
-0.524075 -7.05162 4.54007e-06 
-0.302825 -7.06458 2.85848e-07 
-0.0938219 -7.07045 6.0529e-07 
0.116035 -7.07012 -4.29553e-07 
0.335683 -7.0631 -7.72857e-07 
0.53149 -7.05106 2.28568e-06 
0.737559 -7.0325 -1.56546e-06 
0.943391 -7.00785 1.47679e-06 
1.16544 -6.97436 -5.15609e-06 
1.37825 -6.93545 1.65239e-06 
1.61002 -6.88533 -4.11101e-07 
-2.43412 -6.6389 -1.08715e-06 
-2.22245 -6.71273 3.49653e-06 
-2.01201 -6.77878 -8.78589e-07 
-1.80466 -6.8369 2.32755e-06 
-1.56705 -6.6693 -3.33167e-15 
-1.34005 -6.69733 -3.75788e-15 
-1.12879 -6.74265 5.74711e-15 
-0.898819 -6.80218 2.03508e-15 
-0.679743 -6.78991 -8.91519e-16 
-0.461722 -6.82605 -1.10992e-14 
-0.251617 -6.81871 -6.18549e-16 
-0.0417173 -6.82105 4.74391e-16 
0.174422 -6.83377 1.85933e-15 
0.379588 -6.80151 -5.3281e-15 
0.584691 -6.79888 -3.75257e-15 
0.79075 -6.77925 4.89343e-15 
1.00945 -6.76783 -1.04941e-14 
1.22758 -6.72136 1.81072e-15 
1.44914 -6.69986 1.80138e-15 
1.68725 -6.65916 2.06883e-14 
1.85604 -6.82313 -3.96577e-06 
2.04904 -6.76768 5.43712e-06 
2.2816 -6.69285 -3.31312e-06 
-2.85683 -6.46827 2.21505e-06 
-2.65451 -6.5539 4.80623e-07 
-2.44588 -6.41617 1.13786e-14 
-2.21765 -6.48167 -1.0774e-14 
-1.99929 -6.54706 5.44427e-15 
-1.78176 -6.60544 6.36729e-15 
-1.54151 -6.43967 2.1743e-15 
-1.33321 -6.47435 1.17276e-15 
-1.11662 -6.50294 -2.17995e-15 
-0.911486 -6.57291 3.34634e-15 
-0.707107 -6.54727 -8.6812e-16 
-0.491632 -6.58899 2.27538e-15 
-0.276407 -6.57287 3.3814e-16 
-0.0688107 -6.57386 1.40913e-16 
0.143755 -6.58987 -2.27231e-16 
0.357348 -6.56389 4.12391e-15 
0.571527 -6.54974 4.79651e-16 
0.78986 -6.54497 -2.31128e-15 
1.013 -6.53482 -2.35073e-15 
1.23405 -6.48827 -5.17324e-15 
1.4672 -6.48259 -1.64231e-15 
1.67656 -6.41736 2.01245e-15 
1.88771 -6.54989 5.2248e-15 
2.10882 -6.53478 -6.19335e-15 
2.32692 -6.4495 -4.70726e-15 
2.49889 -6.6148 3.86075e-07 
2.67676 -6.54484 2.41943e-06 
2.91591 -6.44185 -7.08668e-06 
-3.28463 -6.26188 2.31097e-06 
-3.09312 -6.35867 -1.38584e-07 
-2.89088 -6.24706 1.47479e-15 
-2.65539 -6.30517 -1.92382e-15 
-2.39339 -6.20625 -6.81619e-15 
-2.17808 -6.26832 1.32677e-15 
-1.96151 -6.32395 1.90274e-15 
-1.7504 -6.37875 -2.4875e-15 
-1.54983 -6.20536 5.80756e-16 
-1.33593 -6.23857 7.37844e-17 
-1.12743 -6.27032 1.94512e-15 
-0.910909 -6.32766 -4.09306e-16 
-0.697187 -6.31028 -9.28528e-16 
-0.488945 -6.3552 4.61996e-15 
-0.282572 -6.32892 2.82728e-16 
-0.0734811 -6.32669 1.80155e-15 
0.133466 -6.35076 6.42646e-16 
0.342368 -6.32387 -9.47781e-16 
0.552127 -6.31126 -5.52332e-15 
0.764411 -6.31103 -2.78905e-15 
0.979259 -6.31159 2.9971e-15 
1.1883 -6.25813 -5.39299e-16 
1.40748 -6.26502 1.12971e-15 
1.62458 -6.20282 1.82828e-15 
1.87928 -6.3046 -5.53701e-16 
2.08482 -6.31271 -2.83053e-15 
2.27454 -6.2141 1.87942e-15 
2.50842 -6.32954 1.16876e-14 
2.73096 -6.31425 7.46478e-15 
2.97698 -6.21492 -6.28125e-15 
3.16154 -6.32492 1.56298e-06 
3.37886 -6.21155 3.83476e-07 
-3.71605 -6.01589 2.96496e-06 
-3.52402 -6.13036 -5.62303e-07 
-3.3155 -6.03846 8.4899e-15 
-3.08249 -6.09844 1.55453e-16 
-2.8264 -6.03449 1.95526e-16 
-2.61131 -6.09971 3.70668e-15 
-2.41506 -5.97293 3.33387e-15 
-2.19994 -6.03448 -1.80171e-15 
-1.98445 -6.0893 -2.54437e-16 
-1.76679 -6.14251 7.58582e-16 
-1.54721 -5.98234 -3.56366e-15 
-1.32679 -6.01177 4.23572e-16 
-1.11129 -6.03233 -2.08919e-15 
-0.90978 -6.09573 1.69667e-16 
-0.705785 -6.07023 3.60979e-15 
-0.49457 -6.11314 1.10737e-15 
-0.281611 -6.09 1.59855e-15 
-0.0738467 -6.08398 4.1385e-16 
0.136813 -6.10778 -6.58062e-16 
0.346911 -6.08361 -8.67795e-16 
0.562187 -6.07509 -1.89596e-16 
0.77643 -6.07717 -9.49773e-17 
0.986951 -6.07373 -2.25008e-17 
1.19509 -6.01746 3.78196e-17 
1.4007 -6.03875 4.32936e-16 
1.61032 -5.9722 2.42814e-15 
1.82783 -6.08752 1.30752e-15 
2.05144 -6.07089 -2.91562e-16 
2.27382 -5.99501 -6.75676e-16 
2.49554 -6.10767 -5.00357e-15 
2.73496 -6.10795 -5.82447e-15 
2.96245 -6.00522 -1.23847e-15 
3.20281 -6.07534 -2.23624e-14 
3.41188 -5.9539 1.29601e-14 
3.58508 -6.09485 -4.55677e-06 
-3.94276 -5.86981 -4.96042e-06 
-3.7288 -5.79097 -4.16898e-17 
-3.50438 -5.87839 2.27317e-15 
-3.25943 -5.82673 1.0265e-15 
-3.04013 -5.88996 2.90369e-15 
-2.84628 -5.79304 -1.95195e-15 
-2.63849 -5.85939 -1.3891e-15 
-2.41912 -5.75481 -2.02162e-15 
-2.1955 -5.80613 -2.11183e-16 
-1.98285 -5.85985 -2.62857e-15 
-1.76786 -5.91646 -1.16361e-15 
-1.55698 -5.75959 -1.65572e-15 
-1.33929 -5.79004 -2.10715e-15 
-1.12145 -5.80455 -6.83273e-16 
-0.904275 -5.8509 6.60364e-16 
-0.690077 -5.83502 -5.11224e-16 
-0.488876 -5.87972 1.22632e-15 
-0.288991 -5.84367 1.22793e-15 
-0.0863028 -5.84231 -1.22419e-15 
0.123504 -5.86958 5.35968e-17 
0.341323 -5.85406 -3.15142e-16 
0.55398 -5.84176 2.0687e-15 
0.765617 -5.84595 1.11809e-15 
0.978779 -5.84051 2.11346e-16 
1.19482 -5.79155 2.50997e-15 
1.41078 -5.80285 -2.03736e-16 
1.63388 -5.75284 2.61831e-15 
1.84227 -5.86775 -4.92926e-16 
2.05877 -5.84763 1.1006e-15 
2.27585 -5.77368 -1.77085e-15 
2.49316 -5.88414 6.54207e-16 
2.71318 -5.90118 -3.64577e-16 
2.92397 -5.79393 4.05954e-15 
3.16537 -5.85773 7.69937e-16 
3.39007 -5.74571 -2.74479e-15 
3.64053 -5.85364 -1.24305e-14 
3.81817 -5.9516 4.53631e-06 
3.99763 -5.83258 -8.67236e-07 
-4.38634 -5.54617 -1.68098e-06 
-4.13808 -5.73378 2.75381e-06 
-3.91775 -5.63211 -1.71372e-14 
-3.68139 -5.56933 -2.15494e-15 
-3.48213 -5.66661 5.61446e-15 
-3.29471 -5.58254 2.40983e-16 
-3.08437 -5.65219 -2.12452e-15 
-2.85563 -5.58386 -1.12186e-15 
-2.62153 -5.62391 -7.27687e-16 
-2.39595 -5.53127 -5.97152e-16 
-2.18848 -5.58577 -3.12022e-15 
-1.97381 -5.62816 -3.4213e-15 
-1.76846 -5.68641 -1.75249e-15 
-1.57323 -5.53026 1.42525e-15 
-1.36193 -5.56905 1.85416e-15 
-1.14445 -5.58407 1.87318e-15 
-0.921826 -5.62597 -4.73112e-16 
-0.702388 -5.61399 3.17583e-16 
-0.479004 -5.63597 -1.40125e-15 
-0.269161 -5.6037 -1.78022e-15 
-0.05141 -5.61421 -9.25329e-16 
0.162277 -5.6431 -1.02969e-15 
0.378284 -5.62334 -5.96058e-16 
0.592703 -5.61202 1.07841e-15 
0.804763 -5.6185 -9.59381e-16 
1.01433 -5.61121 -6.21596e-17 
1.24389 -5.57477 1.06542e-17 
1.45147 -5.57851 -7.9566e-17 
1.65484 -5.51869 -2.13433e-15 
1.84712 -5.64111 2.12654e-15 
2.05798 -5.62316 8.09164e-16 
2.26206 -5.54815 1.176e-15 
2.48029 -5.65387 -2.27261e-15 
2.69388 -5.6782 1.68337e-15 
2.91681 -5.58168 2.14822e-16 
3.14678 -5.64889 -2.6651e-16 
3.35194 -5.5286 1.59943e-15 
3.59358 -5.63593 1.29495e-15 
3.8223 -5.66929 8.34972e-15 
4.0362 -5.58884 4.17201e-14 
4.22492 -5.6701 -1.76543e-06 
-4.57822 -5.38887 -5.8471e-06 
-4.34298 -5.32067 -4.11746e-18 
-4.16118 -5.51876 -4.99454e-14 
-3.93091 -5.42529 8.16678e-15 
-3.7237 -5.34843 2.82389e-17 
-3.49585 -5.40911 -1.16401e-15 
-3.26774 -5.36547 -7.96892e-16 
-3.05256 -5.42818 8.02649e-16 
-2.83896 -5.35187 -7.33265e-16 
-2.63516 -5.41203 -9.26433e-17 
-2.41911 -5.32088 3.43792e-17 
-2.19166 -5.35115 -3.07953e-16 
-1.98919 -5.39786 8.46042e-17 
-1.77888 -5.44787 -2.49952e-16 
-1.54305 -5.31816 5.75627e-16 
-1.32734 -5.35496 -1.12291e-16 
-1.11752 -5.36167 9.2083e-17 
-0.917203 -5.41099 6.45694e-16 
-0.723132 -5.37655 -1.14683e-15 
-0.523836 -5.41539 -2.03616e-16 
-0.317332 -5.38067 7.88643e-17 
-0.101909 -5.39062 -6.83976e-17 
0.115992 -5.41054 1.05122e-16 
0.318835 -5.40574 4.7793e-16 
0.531685 -5.39167 -2.60694e-16 
0.746307 -5.39275 -6.40193e-17 
0.951792 -5.38869 -1.39715e-16 
1.16006 -5.38887 -5.30136e-16 
1.39405 -5.35389 -7.70541e-16 
1.58928 -5.31132 2.62485e-16 
1.83836 -5.39662 -2.9396e-17 
2.03515 -5.39926 -1.24924e-16 
2.2554 -5.33887 -7.74295e-17 
2.48138 -5.43641 1.77476e-15 
2.7038 -5.4547 7.17839e-16 
2.9088 -5.35363 2.89837e-16 
3.12052 -5.42895 8.40365e-16 
3.3283 -5.31166 3.342e-15 
3.56553 -5.42368 2.74673e-15 
3.79629 -5.44708 -6.3051e-15 
4.02659 -5.37674 4.68831e-16 
4.25859 -5.4231 -5.75536e-15 
4.44806 -5.49679 -1.9519e-06 
-4.79485 -5.19706 8.5628e-08 
-4.56373 -5.17413 -2.11031e-14 
-4.34521 -5.09489 5.32813e-15 
-4.12279 -5.28884 -4.09422e-15 
-3.90893 -5.18572 1.06688e-15 
-3.68534 -5.12065 -3.71096e-16 
-3.48951 -5.19499 -1.24838e-15 
-3.27298 -5.14366 -9.34913e-17 
-3.05673 -5.20151 3.28072e-16 
-2.83487 -5.13563 -7.03048e-16 
-2.61521 -5.18115 5.7786e-16 
-2.37103 -5.11918 1.4498e-15 
-2.15631 -5.13369 1.49911e-15 
-1.94826 -5.17311 1.21195e-15 
-1.74975 -5.23104 1.31423e-15 
-1.5612 -5.09352 9.07169e-17 
-1.35357 -5.14149 1.4513e-16 
-1.13916 -5.14619 -3.77075e-17 
-0.926325 -5.17707 -6.36241e-17 
-0.712386 -5.16076 -2.07408e-16 
-0.50726 -5.18658 -1.58476e-17 
-0.28824 -5.1673 2.81482e-18 
-0.0690376 -5.18136 -4.33648e-16 
0.134016 -5.18105 -1.74183e-16 
0.344682 -5.18626 -2.95726e-16 
0.564284 -5.17813 -2.66073e-16 
0.771464 -5.16929 -1.60894e-16 
0.982959 -5.17159 -3.54649e-16 
1.20787 -5.19136 -2.96503e-16 
1.41122 -5.12072 -1.86223e-16 
1.68827 -5.16308 5.93036e-17 
1.89541 -5.17226 -1.67105e-15 
2.10283 -5.17101 -4.6969e-16 
2.29426 -5.08027 -1.5644e-15 
2.44906 -5.21352 4.88762e-16 
2.664 -5.23984 8.51321e-16 
2.87083 -5.14714 4.66787e-17 
3.11231 -5.20031 1.53561e-15 
3.3404 -5.09769 8.91629e-17 
3.56123 -5.2207 2.49475e-15 
3.80008 -5.23334 -7.92204e-16 
4.01414 -5.15387 -9.37205e-16 
4.2356 -5.20382 3.56137e-15 
4.46361 -5.24352 -7.56882e-14 
4.65362 -5.32389 7.47665e-06 
4.79576 -5.19622 -5.00083e-06 
-4.99539 -5.0046 4.89505e-06 
-4.76362 -4.9803 -3.92227e-14 
-4.54578 -4.94401 -2.12279e-15 
-4.32103 -4.86806 1.86265e-15 
-4.1287 -5.06444 1.87455e-15 
-3.90475 -4.97014 -2.00194e-15 
-3.67158 -4.9134 -3.56519e-16 
-3.44522 -4.9621 -8.54908e-17 
-3.23283 -4.91014 -4.34879e-16 
-3.04122 -4.98233 -6.28393e-17 
-2.85233 -4.89453 -1.27723e-17 
-2.65286 -4.96004 1.70643e-15 
-2.44292 -4.9438 1.60666e-15 
-2.19417 -4.91795 1.07891e-15 
-1.97425 -4.94642 5.51145e-16 
[...]
POINT_DATA 3402 
VECTORS vectors float
0.00306494 -0.00139027 0.999996 
0.00318646 -0.00114435 0.999995 
0.00307249 -0.00099591 0.999996 
0.0031357 -0.000840841 0.999996 
0.00312072 -0.000626965 0.999996 
0.00330291 -0.000473948 0.999996 
0.00303097 -0.000236469 0.999997 
0.00302297 -8.02115e-05 0.999997 
0.00298966 7.96242e-05 0.999997 
0.00301032 0.000291892 0.999997 
0.00316648 0.000407197 0.999996 
0.00296085 0.000649825 0.999997 
0.00302522 0.000768893 0.999997 
0.00320016 0.00101921 0.999996 
0.003388 0.0012313 0.999995 
0.00323268 0.00147284 0.999996 
0.00319629 -0.00223349 0.999994 
0.00302511 -0.00189076 0.999995 
0.00315881 -0.00174057 0.999995 
0.00292531 -0.00150675 0.999996 
0.12483 -0.029481 0.99174 
0.132918 -0.0266124 0.99077 
0.128037 -0.0217665 0.991531 
0.121897 -0.0161948 0.992411 
0.135425 -0.0137271 0.990693 
0.130471 -0.00915255 0.99141 
0.135407 -0.00526778 0.990776 
0.134578 -0.00129253 0.990902 
0.131923 0.00323236 0.991255 
0.139788 0.00812111 0.990148 
0.135272 0.011856 0.990738 
0.134824 0.0159713 0.990741 
0.127371 0.0193028 0.991667 
0.130509 0.0240214 0.991156 
0.121515 0.026221 0.992243 
0.113601 0.0292774 0.993095 
0.00342514 0.0016804 0.999994 
0.00330317 0.0017969 0.999994 
0.0029281 0.00204974 0.999996 
0.0032088 -0.00270217 0.999993 
0.00321502 -0.00233776 0.999994 
0.1144 -0.0433746 0.992487 
0.119308 -0.0404518 0.992033 
0.12446 -0.0375744 0.991513 
0.125812 -0.0339634 0.991473 
0.160728 -0.0385506 0.986246 
0.162147 -0.0335928 0.986195 
0.161924 -0.0281808 0.986401 
0.16284 -0.023282 0.986378 
0.162159 -0.0180863 0.986599 
0.162438 -0.0128722 0.986635 
0.160563 -0.00740739 0.986998 
0.160659 -0.00218196 0.987008 
0.161386 0.00328076 0.986886 
0.160506 0.00873652 0.986996 
0.160985 0.0144263 0.986852 
0.160396 0.0199447 0.986851 
0.16169 0.0256555 0.986508 
0.160641 0.0311206 0.986522 
0.160498 0.0365264 0.98636 
0.159907 0.0417328 0.98625 
0.133951 0.0384927 0.99024 
0.115954 0.037034 0.992564 
0.117186 0.0428937 0.992183 
0.00323347 0.00216183 0.999994 
0.00351905 0.00250846 0.999992 
0.00349361 0.00294352 0.999992 
0.00336926 -0.00321595 0.999991 
0.00324571 -0.0028122 0.999993 
0.102472 -0.0470413 0.993623 
0.119366 -0.0498339 0.991599 
0.154903 -0.0587202 0.986183 
0.157108 -0.053806 0.986115 
0.158744 -0.0486764 0.986119 
0.160091 -0.0435612 0.986141 
0.146431 -0.0363744 0.988552 
0.145714 -0.0312691 0.988833 
0.146584 -0.0267175 0.988837 
0.147832 -0.021769 0.988773 
0.144898 -0.0166793 0.989306 
0.145431 -0.0121626 0.989294 
0.143725 -0.00718911 0.989592 
0.141933 -0.00219565 0.989874 
0.144655 0.00289414 0.989478 
0.143581 0.00807737 0.989606 
0.143237 0.0132354 0.9896 
0.144614 0.0181035 0.989323 
0.145995 0.0228661 0.989021 
0.144823 0.0277046 0.98907 
0.147472 0.0331125 0.988512 
0.146722 0.0381756 0.988441 
0.158173 0.0470965 0.986288 
0.156222 0.0516141 0.986373 
0.15467 0.056633 0.986342 
0.132026 0.0520078 0.989881 
0.10569 0.0448919 0.993385 
0.0967165 0.0460986 0.994244 
0.00359047 0.00321809 0.999991 
0.0036089 0.00334332 0.99999 
0.00322444 -0.0036825 0.99999 
0.00319378 -0.00336292 0.999992 
0.0966026 -0.0525751 0.993934 
0.119308 -0.0599907 0.991043 
0.149043 -0.0691536 0.98641 
0.153014 -0.0649305 0.986089 
0.144533 -0.057739 0.987814 
0.144614 -0.0517865 0.988132 
0.144385 -0.0462782 0.988439 
0.145299 -0.0413042 0.988525 
0.132065 -0.0335136 0.990675 
0.131299 -0.0287726 0.990925 
0.13207 -0.0243576 0.990941 
0.131691 -0.0201025 0.991087 
0.131121 -0.0160391 0.991237 
0.130978 -0.0114259 0.99132 
0.129251 -0.00660899 0.99159 
0.128643 -0.00185933 0.991689 
0.129277 0.0029302 0.991604 
0.129841 0.00764627 0.991505 
0.128988 0.0122618 0.99157 
0.13079 0.0169793 0.991265 
0.130715 0.0213674 0.99119 
0.129877 0.0257365 0.991196 
0.131923 0.0303846 0.990794 
0.130633 0.0347572 0.990821 
0.141428 0.042169 0.98905 
0.14329 0.0482958 0.988502 
0.143115 0.0543128 0.988215 
0.153579 0.0629077 0.986132 
0.148586 0.0663951 0.986668 
0.145832 0.0716674 0.98671 
0.105512 0.0555705 0.992864 
0.106791 0.0607188 0.992426 
0.00314103 0.00353061 0.999991 
0.00335257 -0.00401985 0.999989 
0.093864 -0.0602613 0.99376 
0.111271 -0.0661917 0.991583 
0.142523 -0.0794356 0.986599 
0.147182 -0.0755298 0.986221 
0.140992 -0.0684742 0.98764 
0.139528 -0.0620813 0.98827 
0.128566 -0.0531252 0.990277 
0.12898 -0.0477936 0.990495 
0.129566 -0.0427513 0.990649 
0.131419 -0.0384126 0.990583 
0.123958 -0.0329361 0.991741 
0.124243 -0.028461 0.991844 
0.123367 -0.0238426 0.992075 
0.124493 -0.0195457 0.992028 
0.124056 -0.0150587 0.992161 
0.124966 -0.0109339 0.992101 
0.122633 -0.00642482 0.992431 
0.121692 -0.00183581 0.992566 
0.123316 0.00265912 0.992364 
0.122045 0.00726723 0.992498 
0.122668 0.0116425 0.99238 
0.123266 0.0161498 0.992242 
0.122741 0.0205383 0.992226 
0.122136 0.024949 0.9922 
0.122981 0.0296429 0.991966 
0.122006 0.0342115 0.99194 
0.128348 0.0399851 0.990923 
0.128604 0.0450557 0.990672 
0.126815 0.0499655 0.990667 
0.138718 0.0586694 0.988593 
0.14436 0.0661193 0.987314 
0.143354 0.0716321 0.987076 
0.144972 0.0777705 0.986375 
0.141891 0.0830755 0.98639 
0.0913719 0.0566171 0.994206 
0.00318178 0.0037093 0.99999 
0.00343703 0.00409229 0.999988 
0.00337483 -0.00489565 0.999986 
0.00341491 -0.00458235 0.999987 
0.102276 -0.070921 0.992225 
0.136016 -0.0897556 0.986632 
0.140105 -0.0861191 0.986384 
0.137312 -0.0807852 0.987228 
0.135505 -0.0734733 0.988049 
0.124616 -0.0631025 0.990197 
0.123543 -0.0568842 0.990708 
0.118178 -0.050452 0.99171 
0.119667 -0.0458502 0.991755 
0.120952 -0.0413511 0.991797 
0.122471 -0.0372482 0.991773 
0.116072 -0.0329253 0.992695 
0.116561 -0.0286628 0.99277 
0.112595 -0.0233577 0.993367 
0.115297 -0.0190564 0.993148 
0.112 -0.0141814 0.993607 
0.112063 -0.00952695 0.993656 
0.108404 -0.00504888 0.994094 
0.107959 -0.000729656 0.994155 
0.111347 0.003504 0.993776 
0.110409 0.00764314 0.993857 
0.111141 0.0117982 0.993735 
0.112886 0.0163005 0.993474 
0.114005 0.020642 0.993266 
0.112993 0.0251766 0.993277 
0.115585 0.030004 0.992844 
0.113765 0.0340985 0.992922 
0.11847 0.0384386 0.992214 
0.120825 0.0439545 0.9917 
0.118676 0.0481334 0.991766 
0.124025 0.0542647 0.990794 
0.127649 0.0600802 0.989998 
0.125977 0.0651586 0.989891 
0.137743 0.0760221 0.987546 
0.134985 0.0808993 0.98754 
0.138542 0.087592 0.986476 
0.110194 0.0734582 0.991192 
0.0888435 0.0634982 0.99402 
0.0034816 0.00472174 0.999986 
0.0031684 -0.00506217 0.999986 
0.0936993 -0.076714 0.992641 
0.0778053 -0.0585689 0.995247 
0.130645 -0.0949494 0.986872 
0.133855 -0.0931615 0.986612 
0.129678 -0.0835744 0.988028 
0.11955 -0.0724773 0.990179 
0.119512 -0.0668752 0.990578 
0.114224 -0.0601992 0.99163 
0.114868 -0.055519 0.991828 
0.110522 -0.0500181 0.992614 
0.110261 -0.0448303 0.992891 
0.111723 -0.0407669 0.992903 
0.11251 -0.0364161 0.992983 
0.0966977 -0.0282013 0.994914 
0.0946639 -0.0236199 0.995229 
0.0904566 -0.018992 0.995719 
0.0929656 -0.0158231 0.995544 
0.0850751 -0.0113207 0.99631 
0.0884851 -0.00847779 0.996042 
0.0801508 -0.00459427 0.996772 
0.0799795 -0.001313 0.996796 
0.0831899 0.00199537 0.996532 
0.0837971 0.00510702 0.99647 
0.083906 0.00844565 0.996438 
0.0876306 0.0122727 0.996078 
0.0909055 0.0161693 0.995728 
0.0941314 0.0203764 0.995351 
0.0958188 0.0250187 0.995084 
0.0958459 0.02872 0.994982 
0.108094 0.0367782 0.99346 
0.110815 0.0417084 0.992966 
0.110116 0.0464328 0.992834 
0.114998 0.0521228 0.991997 
0.118226 0.0580954 0.991286 
0.115654 0.0622469 0.991337 
0.121439 0.0689944 0.990198 
0.118249 0.0730749 0.990292 
0.134139 0.0872559 0.987114 
0.134455 0.0933843 0.98651 
0.12716 0.0950781 0.987315 
0.0824757 0.0653183 0.99445 
0.00304985 0.00470308 0.999988 
0.00304543 -0.00548622 0.999984 
0.0791667 -0.0697354 0.994419 
0.121299 -0.103932 0.98716 
0.126208 -0.0985813 0.987093 
0.127736 -0.0964352 0.987109 
0.115211 -0.0827902 0.989885 
0.114614 -0.0767286 0.990443 
0.109957 -0.0697209 0.991488 
0.110176 -0.0645549 0.991814 
0.106006 -0.0584104 0.992649 
0.105373 -0.0532592 0.993006 
0.0987462 -0.0461362 0.994043 
0.0950643 -0.0403117 0.994655 
0.092315 -0.0350577 0.995113 
0.0925046 -0.0311459 0.995225 
0.066173 -0.0205117 0.997597 
0.0655122 -0.0173855 0.9977 
0.0596316 -0.0132829 0.998132 
0.0580057 -0.0104011 0.998262 
0.0522979 -0.00711154 0.998606 
0.053191 -0.00514518 0.998571 
0.0469509 -0.00255651 0.998894 
0.0485319 -0.000498838 0.998822 
0.0486087 0.00137842 0.998817 
0.0508062 0.00349431 0.998703 
0.0521328 0.00579692 0.998623 
0.0545638 0.00823208 0.998476 
0.0591518 0.0113318 0.998185 
0.0684171 0.0160197 0.997528 
0.0632292 0.0174622 0.997846 
0.0799402 0.0261764 0.996456 
0.0885706 0.0327117 0.995533 
0.0961766 0.0393494 0.994586 
0.0935309 0.0426165 0.994704 
0.10631 0.0498513 0.993083 
0.110184 0.0556746 0.992351 
0.108005 0.05989 0.992345 
0.111721 0.0661823 0.991533 
0.108983 0.0708549 0.991515 
0.117724 0.0795525 0.989855 
0.127589 0.0925105 0.987503 
0.129264 0.100787 0.986475 
0.124218 0.101271 0.987074 
0.084434 0.0727449 0.99377 
0.00300447 0.00461175 0.999987 
0.00302515 0.00511749 0.999985 
0.00310845 -0.00593929 0.999982 
0.0796911 -0.0760115 0.993917 
0.116923 -0.107535 0.987302 
0.12146 -0.108106 0.986692 
0.128148 -0.104808 0.986202 
0.112552 -0.088372 0.989708 
0.105563 -0.0786944 0.991294 
0.104832 -0.0725491 0.99184 
0.101328 -0.0665897 0.992622 
0.101743 -0.0620729 0.992872 
0.0949258 -0.0555254 0.993935 
0.0945088 -0.0510175 0.994216 
0.0860251 -0.0431561 0.995358 
0.0710089 -0.0322581 0.996954 
0.0632463 -0.0257595 0.997666 
0.0612629 -0.0220345 0.997879 
0.0376276 -0.0119936 0.99922 
0.036006 -0.00973989 0.999304 
0.0311932 -0.00708101 0.999488 
0.0300525 -0.00546794 0.999533 
0.0241654 -0.00343208 0.999702 
0.0242909 -0.0024628 0.999702 
0.0227608 -0.00137088 0.99974 
0.0235418 -0.00036982 0.999723 
0.022165 0.000635462 0.999754 
0.0240392 0.00166158 0.99971 
0.0259937 0.00288696 0.999658 
0.0264531 0.00416611 0.999642 
0.0310467 0.00613019 0.999499 
0.0382975 0.00913697 0.999225 
0.0344721 0.0097753 0.999358 
0.0505865 0.0162884 0.998587 
0.0578589 0.0214922 0.998094 
0.0675452 0.0281116 0.99732 
0.066964 0.0311843 0.997268 
0.08621 0.043739 0.995317 
0.0989502 0.0519895 0.993733 
0.0980927 0.0566712 0.993562 
0.103835 0.0638508 0.992543 
0.100534 0.0673068 0.992654 
0.106507 0.0751344 0.991469 
0.110715 0.0822662 0.990442 
0.109926 0.0873469 0.990094 
0.120605 0.100817 0.987568 
0.123979 0.107867 0.986405 
0.106833 0.0969264 0.989541 
0.0748915 0.071176 0.994648 
0.00307765 0.00613765 0.999982 
0.00296636 -0.00626836 0.999981 
0.0695562 -0.072095 0.99497 
0.11141 -0.111278 0.987525 
0.119264 -0.114373 0.986253 
0.107388 -0.0993255 0.989243 
0.11145 -0.0945705 0.98926 
0.102302 -0.0830186 0.991283 
0.0976579 -0.0764881 0.992277 
0.0975012 -0.0712381 0.992683 
0.092717 -0.0645977 0.993595 
0.0890107 -0.057427 0.994374 
0.0755712 -0.0460794 0.996075 
0.0712682 -0.0399218 0.996658 
0.0600475 -0.0307282 0.997723 
0.0431503 -0.0201623 0.998865 
0.0350818 -0.0147975 0.999275 
0.0328148 -0.0121708 0.999387 
0.0166351 -0.00561267 0.999846 
0.0160048 -0.00462146 0.999861 
0.0129882 -0.00316326 0.999911 
0.0118438 -0.0023323 0.999927 
0.00886767 -0.00135171 0.99996 
0.00797922 -0.000831437 0.999968 
0.00888567 -0.000483575 0.999961 
0.00866062 -8.70345e-05 0.999963 
0.00752863 0.000260404 0.999972 
0.00873334 0.000688278 0.999962 
0.0100902 0.00125626 0.999948 
0.00982341 0.00166234 0.99995 
0.0127256 0.00271243 0.999915 
0.0177121 0.00447101 0.999833 
0.0169605 0.00521628 0.999843 
0.0289231 0.0100332 0.999531 
0.0333209 0.0132012 0.999358 
0.0383682 0.0168819 0.999121 
0.0507245 0.0254055 0.99839 
0.062555 0.0339653 0.997463 
0.0807702 0.0462728 0.995658 
0.0772847 0.048297 0.995839 
0.0930762 0.0593373 0.993889 
0.0905844 0.0626704 0.993915 
0.0977509 0.0707506 0.992693 
0.100277 0.0770939 0.991968 
0.099902 0.0823725 0.991582 
0.105017 0.0909326 0.990304 
0.116754 0.106099 0.987478 
0.118138 0.112702 0.986581 
0.107681 0.108719 0.988223 
0.0650362 0.0695736 0.995455 
0.00286394 0.0060676 0.999982 
0.00270453 -0.00599584 0.999982 
0.0691308 -0.0784279 0.99452 
0.105927 -0.114933 0.98771 
0.114615 -0.11945 0.986202 
0.106553 -0.106488 0.988588 
0.0952231 -0.0916518 0.991228 
0.0996931 -0.0875677 0.991158 
0.0948713 -0.0811614 0.992176 
0.089608 -0.0733645 0.993272 
0.0870998 -0.0665029 0.993977 
0.0779122 -0.0555206 0.995413 
0.0667987 -0.044741 0.996763 
0.0484732 -0.030298 0.998365 
0.0446569 -0.0256057 0.998674 
0.0343153 -0.0179818 0.999249 
0.0206657 -0.0100743 0.999736 
0.0142827 -0.00639258 0.999878 
0.0143839 -0.00570335 0.99988 
0.0061302 -0.0022816 0.999979 
0.00526943 -0.00168179 0.999985 
0.00382158 -0.00104339 0.999992 
0.00323182 -0.000715028 0.999995 
0.00207491 -0.000378871 0.999998 
0.00188732 -0.000227339 0.999998 
0.00223744 -0.000126878 0.999998 
0.00206598 -2.8071e-06 0.999998 
0.00169345 9.0895e-05 0.999999 
0.00225257 0.000237122 0.999998 
0.00256908 0.000395027 0.999997 
0.00270279 0.000562523 0.999996 
0.00422202 0.00104078 0.999991 
0.00690008 0.00192864 0.999974 
0.00435841 0.00145869 0.99999 
0.0104627 0.00373596 0.999938 
0.0147185 0.00588352 0.999874 
0.0166212 0.00759028 0.999833 
0.0282455 0.0140473 0.999502 
0.0341984 0.0190484 0.999234 
0.0504047 0.0302824 0.99827 
0.0509497 0.0334664 0.99814 
0.0710753 0.0489613 0.996269 
0.0889192 0.0666844 0.993804 
0.0925484 0.0736442 0.992981 
0.0923911 0.0790465 0.99258 
0.0963803 0.0861701 0.991608 
0.100441 0.0942299 0.990471 
0.109772 0.108337 0.988035 
0.114684 0.118896 0.986261 
0.107388 0.117945 0.987196 
0.077462 0.0893221 0.992986 
0.00277978 0.00564048 0.999983 
0.00251077 -0.00583661 0.999983 
0.0734309 -0.0901516 0.993217 
0.103785 -0.121851 0.987107 
0.110184 -0.123578 0.986199 
0.100114 -0.108005 0.989097 
0.0921703 -0.0953617 0.991166 
0.0872476 -0.0880289 0.99229 
0.0935066 -0.086669 0.991839 
0.0873334 -0.080641 0.99291 
0.0837346 -0.0736039 0.993766 
0.0742085 -0.0611562 0.995366 
0.0674974 -0.0518511 0.996371 
0.0488119 -0.0354578 0.998179 
0.0370841 -0.025156 0.998996 
0.0236808 -0.0147552 0.999611 
0.0201573 -0.011527 0.99973 
0.0116671 -0.00622628 0.999913 
0.00578007 -0.00289771 0.999979 
0.0042167 -0.00191931 0.999989 
0.00222854 -0.00098745 0.999997 
0.00127959 -0.000542527 0.999999 
0.00066698 -0.000319352 1 
0.000407249 -0.000208662 1 
9.35361e-05 -0.00012284 1 
2.11216e-05 -8.085e-05 1 
5.71207e-05 -4.73925e-05 1 
8.61417e-05 -1.48353e-05 1 
2.3012e-05 1.07211e-05 1 
9.62115e-05 4.38124e-05 1 
0.000120516 7.53432e-05 1 
0.000266144 0.000128603 1 
0.000620962 0.000232592 1 
0.00125987 0.000429019 0.999999 
0.000813318 0.000354865 1 
0.00314197 0.00126035 0.999994 
0.00526075 0.00230405 0.999984 
0.00645401 0.00317947 0.999974 
0.0141289 0.0074153 0.999873 
0.0151681 0.00880469 0.999846 
0.0265814 0.0165107 0.99951 
0.0299357 0.0205109 0.999341 
0.0476749 0.0346813 0.998261 
0.072454 0.0541131 0.995903 
0.078517 0.06355 0.994885 
0.082546 0.0710746 0.99405 
0.0870474 0.0802152 0.99297 
0.092544 0.0889096 0.991731 
0.0952415 0.0964973 0.990766 
0.0994753 0.105902 0.989389 
0.10762 0.120142 0.986906 
0.10488 0.123771 0.986753 
0.0812308 0.0990615 0.99176 
0.00249151 0.00597728 0.999983 
0.00239163 -0.0059561 0.999983 
0.0703318 -0.0927775 0.9932 
0.100459 -0.127607 0.986724 
0.102288 -0.124658 0.986913 
0.0941607 -0.109855 0.989478 
0.087746 -0.0982903 0.991282 
0.0843343 -0.0913823 0.992238 
0.0809169 -0.0801977 0.993489 
0.0713773 -0.0678433 0.99514 
0.0661944 -0.058808 0.996072 
0.048857 -0.0406293 0.997979 
0.0373667 -0.0293339 0.998871 
0.0229598 -0.0169359 0.999593 
0.0165914 -0.0113093 0.999799 
0.00853348 -0.00542202 0.999949 
0.00573919 -0.00339728 0.999978 
0.00257429 -0.00144533 0.999996 
0.00115939 -0.000646066 0.999999 
0.000202727 -0.000186972 1 
0.000141953 -0.00016799 1 
-0.000143131 -6.71582e-05 1 
-0.000231866 -6.42683e-05 1 
-0.000268993 -6.62431e-05 1 
-0.000259278 -6.97733e-05 1 
-0.000236987 -6.08162e-05 1 
-0.000221043 -3.93825e-05 1 
-0.000212184 -1.90258e-05 1 
-0.000212724 9.68206e-06 1 
-0.000206435 3.10261e-05 1 
-0.000221158 4.54971e-05 1 
-0.000225361 5.48351e-05 1 
-0.000249031 4.01129e-05 1 
-8.38411e-05 7.88111e-05 1 
-0.000174903 3.19794e-05 1 
0.000457131 0.00025938 1 
0.0012415 0.000616712 0.999999 
0.00144377 0.000775764 0.999999 
0.00468045 0.00261647 0.999986 
0.00612215 0.00380172 0.999974 
0.0133247 0.0088095 0.999873 
0.0183558 0.0134416 0.999741 
0.0313537 0.0242688 0.999214 
0.0551102 0.0438464 0.997517 
0.0558428 0.0481038 0.99728 
0.0723846 0.0660781 0.995186 
0.0805779 0.0783294 0.993666 
0.0864644 0.0877739 0.992381 
0.0877374 0.0937901 0.991719 
0.0886357 0.0993815 0.991094 
0.0950803 0.110952 0.989267 
0.0998023 0.122488 0.987439 
0.10017 0.127659 0.986747 
0.0583112 0.0761576 0.995389 
0.00249108 0.00628939 0.999981 
0.00222424 -0.00611624 0.999982 
0.0643466 -0.092072 0.993671 
0.0950266 -0.131092 0.986805 
0.0972731 -0.129131 0.986845 
0.0880133 -0.112195 0.989781 
0.0838971 -0.102091 0.991231 
0.0804325 -0.0949898 0.992224 
0.0760731 -0.0869633 0.993303 
0.0767664 -0.0821785 0.993657 
0.0653047 -0.0669147 0.995619 
0.0481528 -0.0464652 0.997759 
0.0407078 -0.0365594 0.998502 
0.0233898 -0.0200386 0.999526 
0.0158999 -0.0127829 0.999792 
0.00875947 -0.00658103 0.99994 
0.00527855 -0.00370283 0.999979 
0.00181229 -0.0012418 0.999998 
0.000960848 -0.000632535 0.999999 
0.000217041 -0.000185643 1 
-0.000158027 -3.11645e-06 1 
-0.000219561 -7.70519e-06 1 
-0.000228866 -1.26276e-05 1 
-0.000186843 -4.51026e-05 1 
-0.000132146 -7.57546e-05 1 
-0.00010092 -9.56047e-05 1 
-6.21642e-05 -9.1935e-05 1 
-5.42226e-05 -6.75979e-05 1 
-5.84767e-05 -3.67526e-05 1 
-7.28314e-05 1.0151e-06 1 
-6.11059e-05 3.25062e-05 1 
-7.0833e-05 7.09946e-05 1 
-0.000112793 7.81124e-05 1 
-0.000172414 7.05903e-05 1 
-0.000238115 3.63589e-05 1 
-0.000199549 2.09297e-05 1 
-0.000254412 -2.44164e-05 1 
-0.000101439 7.5955e-06 1 
4.60177e-05 5.39914e-05 1 
0.00116585 0.000722549 0.999999 
0.00110931 0.000770282 0.999999 
0.00388919 0.00270412 0.999989 
0.00766739 0.00565504 0.999955 
0.0143982 0.0116337 0.999829 
0.0301832 0.02551 0.999219 
0.0431114 0.0396655 0.998283 
0.0604048 0.0586968 0.996447 
0.066491 0.0686404 0.995423 
0.077718 0.0816831 0.993624 
0.080612 0.0892631 0.992741 
0.0826137 0.096508 0.991898 
0.0830165 0.101284 0.991388 
0.0858062 0.109695 0.990255 
0.096245 0.126291 0.987313 
0.0954504 0.130275 0.986873 
0.0704841 0.100426 0.992445 
0.00231194 0.00582064 0.999983 
0.00209016 -0.00599226 0.999983 
0.0596832 -0.09375 0.993805 
0.0902956 -0.135521 0.986651 
0.0920102 -0.133082 0.986825 
0.0829848 -0.115485 0.989837 
0.078768 -0.105166 0.99133 
0.0768845 -0.0986341 0.992149 
0.0727821 -0.090132 0.993267 
0.0645201 -0.0758965 0.995026 
0.0615939 -0.0675996 0.995809 
0.0413259 -0.0430013 0.99822 
0.025025 -0.0242251 0.999393 
0.0158736 -0.0146102 0.999767 
0.00769156 -0.00668289 0.999948 
0.00463812 -0.00378826 0.999982 
0.00202021 -0.0015748 0.999997 
0.000560001 -0.000459389 1 
-2.35376e-05 -3.84008e-05 1 
-0.000132522 1.42704e-05 1 
-0.000177889 2.54806e-05 1 
-0.000138904 -2.12592e-05 1 
-2.61742e-05 -7.10305e-05 1 
-1.80412e-05 -9.29303e-05 1 
1.36015e-05 -8.9301e-05 1 
-5.99956e-05 -7.78367e-05 1 
-0.000143038 -6.76513e-05 1 
-0.000434267 -2.4152e-05 1 
-0.000827552 1.35371e-05 1 
-0.000836476 -1.56222e-05 1 
-0.000669099 -1.54414e-05 1 
-0.000423758 1.67932e-05 1 
-0.000439547 8.40667e-06 1 
-2.16508e-05 9.94434e-05 1 
-6.58197e-05 9.51673e-05 1 
-2.23258e-05 0.000108285 1 
2.77703e-06 0.000101594 1 
-0.000181134 -1.51054e-05 1 
-0.000238992 -8.26183e-05 1 
-0.000232723 -0.000107028 1 
-0.00011541 -4.18051e-05 1 
9.16156e-05 0.000105939 1 
0.00130284 0.00101941 0.999999 
0.00439218 0.0035198 0.999984 
0.00823085 0.00719347 0.99994 
0.0194475 0.0175841 0.999656 
0.0216007 0.0210076 0.999546 
0.0371983 0.0376124 0.9986 
0.0499382 0.0540128 0.997291 
0.0680443 0.0766302 0.994735 
0.072844 0.0866859 0.993569 
0.0758419 0.0953352 0.992552 
0.0763874 0.101286 0.991921 