# vtk DataFile Version 3.0 
Exported using Morpho https://github.com/Morpho-lang/morpho 
ASCII 
DATASET UNSTRUCTURED_GRID 

POINTS 3402 float 
-1.58829 -6.89038 -5.36478e-09 
-1.38781 -6.93354 -2.09368e-09 
-1.18471 -6.97112 -1.17629e-08 
-0.969682 -7.00426 8.31455e-08 
-0.727884 -7.0335 -6.33872e-08 
-0.524072 -7.05162 1.10893e-07 
-0.302824 -7.06458 1.64794e-08 
-0.0938204 -7.07045 1.51319e-08 
0.116032 -7.07012 -1.12485e-08 
0.33568 -7.0631 -1.57394e-08 
0.531494 -7.05106 5.30875e-08 
0.737558 -7.0325 -3.23407e-08 
0.943392 -7.00785 2.52469e-08 
1.16545 -6.97436 -1.24821e-07 
1.37825 -6.93545 3.04563e-08 
1.61002 -6.88533 -1.45919e-08 
-2.43412 -6.63891 -1.8058e-08 
-2.22245 -6.71273 8.26027e-08 
-2.01202 -6.77877 -9.2958e-09 
-1.80466 -6.8369 5.62601e-08 
-1.56743 -6.66876 2.04017e-10 
-1.34121 -6.69693 7.26092e-10 
-1.13004 -6.74239 3.59915e-10 
-0.898545 -6.80159 -1.26735e-09 
-0.680557 -6.79117 1.06878e-09 
-0.461311 -6.82553 -3.27009e-10 
-0.251222 -6.81859 -3.32019e-10 
-0.0419357 -6.82099 1.92378e-10 
0.174278 -6.83378 9.28187e-11 
0.379776 -6.80174 -8.08681e-11 
0.584814 -6.7985 7.40399e-11 
0.790768 -6.77888 -1.64392e-10 
1.00928 -6.7679 -2.6404e-11 
1.2273 -6.72142 1.82436e-10 
1.44884 -6.6998 1.27968e-10 
1.68707 -6.6591 -8.1586e-10 
1.85604 -6.82313 -8.47819e-08 
2.04904 -6.76768 1.16886e-07 
2.2816 -6.69285 -7.1935e-08 
-2.85683 -6.46827 5.49626e-08 
-2.65452 -6.55389 1.54474e-08 
-2.44555 -6.41612 3.95286e-11 
-2.21733 -6.48172 -3.41294e-10 
-1.99886 -6.54674 -3.65062e-10 
-1.78149 -6.60499 -5.16565e-10 
-1.5414 -6.44003 -1.0597e-10 
-1.33215 -6.47471 -8.39168e-10 
-1.1151 -6.50319 -1.23555e-09 
-0.911322 -6.5736 3.01325e-10 
-0.705963 -6.54777 -1.28208e-09 
-0.492138 -6.59012 5.58106e-10 
-0.276726 -6.57299 2.90114e-10 
-0.0687429 -6.57394 -2.22249e-11 
0.144149 -6.59059 -2.46117e-10 
0.357647 -6.56462 -1.78455e-10 
0.571519 -6.54948 2.04177e-11 
0.789667 -6.54493 2.07253e-10 
1.01292 -6.53557 9.95318e-11 
1.23375 -6.4888 2.90693e-10 
1.46722 -6.4833 9.23111e-12 
1.67685 -6.41815 -2.07469e-10 
1.88795 -6.55018 -2.96852e-10 
2.10913 -6.53432 1.11941e-09 
2.32721 -6.4494 6.74286e-10 
2.4989 -6.61479 9.58182e-09 
2.67676 -6.54484 4.13397e-08 
2.91591 -6.44185 -1.64988e-07 
-3.28463 -6.26188 5.23537e-08 
-3.09313 -6.35866 9.70391e-09 
-2.88958 -6.24523 -2.17564e-10 
-2.65496 -6.30688 -1.42389e-09 
-2.39402 -6.20548 4.62716e-10 
-2.179 -6.26902 4.27102e-10 
-1.96191 -6.32393 1.3849e-10 
-1.75107 -6.37881 5.50295e-10 
-1.54981 -6.20551 -1.08932e-10 
-1.33572 -6.23808 -1.10967e-10 
-1.12766 -6.27037 3.13067e-10 
-0.911301 -6.32717 3.746e-10 
-0.697718 -6.31013 6.02092e-10 
-0.488843 -6.35463 -1.22848e-10 
-0.282384 -6.32881 -2.53889e-10 
-0.0732542 -6.32617 -1.08678e-10 
0.133697 -6.3509 -1.53361e-10 
0.342048 -6.32339 2.67293e-10 
0.551967 -6.31097 7.97451e-11 
0.764689 -6.31066 -2.25608e-10 
0.979653 -6.31136 -2.39345e-10 
1.18866 -6.25766 -2.94536e-10 
1.40751 -6.2653 8.11545e-11 
1.62436 -6.20286 3.47532e-10 
1.87941 -6.30509 9.64718e-11 
2.08494 -6.31313 2.76856e-10 
2.27514 -6.2151 -2.36004e-10 
2.50912 -6.3296 -1.19132e-09 
2.73135 -6.31387 2.1428e-09 
2.97694 -6.21454 8.97755e-10 
3.16155 -6.32492 2.08121e-08 
3.37886 -6.21155 -1.344e-09 
-3.71605 -6.01589 4.93853e-08 
-3.52402 -6.13036 3.91292e-09 
-3.31413 -6.03869 -4.8212e-10 
-3.08211 -6.0986 -6.89367e-10 
-2.82703 -6.03541 -3.48409e-11 
-2.61268 -6.09936 1.16672e-09 
-2.41586 -5.97368 3.2757e-10 
-2.19938 -6.03382 -5.24748e-10 
-1.98451 -6.0896 -4.70612e-11 
-1.76643 -6.14204 -4.09311e-10 
-1.54775 -5.98195 1.75485e-10 
-1.32768 -6.01125 4.7202e-10 
-1.1118 -6.03211 1.63865e-10 
-0.90981 -6.09441 1.2452e-10 
-0.70519 -6.07037 -4.86416e-10 
-0.49461 -6.11322 4.76513e-11 
-0.282228 -6.08959 5.30502e-10 
-0.0739872 -6.08372 6.88653e-11 
0.136626 -6.10718 1.95971e-10 
0.346746 -6.08317 6.60636e-11 
0.561981 -6.07492 1.29463e-10 
0.776392 -6.07702 3.9443e-11 
0.986915 -6.07337 3.13419e-11 
1.195 -6.01709 1.01056e-10 
1.40096 -6.03813 -1.61419e-10 
1.61087 -5.97191 -3.77791e-10 
1.82816 -6.08767 -1.31232e-10 
2.05191 -6.07061 -4.61847e-10 
2.27337 -5.99482 2.84223e-10 
2.49528 -6.10799 3.52161e-10 
2.73516 -6.10836 1.94125e-11 
2.96285 -6.00563 -1.66406e-10 
3.20278 -6.0755 -2.90758e-10 
3.41177 -5.95392 1.33029e-09 
3.58508 -6.09485 -9.24766e-08 
-3.94277 -5.8698 -8.84965e-08 
-3.72866 -5.7908 2.52077e-10 
-3.50404 -5.87875 -8.69773e-10 
-3.26036 -5.82671 1.14184e-09 
-3.041 -5.89112 5.77357e-11 
-2.84669 -5.79308 3.52956e-10 
-2.63796 -5.85864 -2.34472e-10 
-2.41765 -5.75443 -9.764e-10 
-2.19543 -5.80596 9.16797e-11 
-1.98271 -5.8596 -1.6266e-10 
-1.76829 -5.91586 2.69333e-10 
-1.55715 -5.75956 2.38208e-11 
-1.33939 -5.78979 1.19374e-10 
-1.12149 -5.80526 1.1586e-10 
-0.903832 -5.85104 -5.04955e-10 
-0.690126 -5.83541 6.49919e-10 
-0.488595 -5.87929 -1.27727e-10 
-0.288405 -5.84366 -3.34417e-10 
-0.0856778 -5.84286 -2.71382e-10 
0.124192 -5.8692 -4.028e-10 
0.341739 -5.85381 -1.91643e-10 
0.5543 -5.84188 -2.22385e-10 
0.765688 -5.8462 -1.35376e-10 
0.978537 -5.84052 -6.44603e-12 
1.19465 -5.79191 -3.80087e-11 
1.41096 -5.80284 -2.0624e-10 
1.63351 -5.75229 9.20032e-11 
1.842 -5.86751 1.78101e-10 
2.05827 -5.84656 1.22206e-10 
2.27543 -5.7733 1.5469e-10 
2.4928 -5.88386 -6.19504e-12 
2.71304 -5.90158 2.20468e-10 
2.924 -5.79404 7.93774e-11 
3.16586 -5.85843 -4.34526e-11 
3.39066 -5.7462 -1.9149e-10 
3.64007 -5.85359 7.53203e-10 
3.81818 -5.9516 8.43279e-08 
3.99763 -5.83257 -5.58357e-09 
-4.38635 -5.54617 -5.4299e-08 
-4.13808 -5.73378 3.27444e-08 
-3.91814 -5.63219 7.31467e-10 
-3.6821 -5.57004 1.92308e-10 
-3.48239 -5.66693 9.47025e-11 
-3.29434 -5.58227 -1.75035e-10 
-3.0838 -5.65245 -6.76993e-10 
-2.85478 -5.58204 1.97595e-10 
-2.62106 -5.62488 -4.5369e-10 
-2.39627 -5.53044 5.1635e-10 
-2.18884 -5.58516 2.34362e-10 
-1.97397 -5.62778 2.70174e-11 
-1.76875 -5.68599 1.91715e-10 
-1.5728 -5.53104 -2.35506e-10 
-1.36098 -5.56934 -2.72505e-10 
-1.14327 -5.58523 -4.40929e-10 
-0.920994 -5.62713 -2.23828e-10 
-0.701748 -5.61397 -3.5165e-10 
-0.479362 -5.6362 2.72789e-10 
-0.269512 -5.60432 1.10685e-10 
-0.0520411 -5.61504 2.29058e-10 
0.161685 -5.6429 2.18651e-10 
0.377835 -5.62374 1.30131e-10 
0.592072 -5.61252 1.94854e-10 
0.803972 -5.61901 2.28786e-10 
1.01349 -5.6119 2.25797e-10 
1.24312 -5.57576 2.53384e-10 
1.45066 -5.57847 2.0418e-10 
1.65447 -5.51881 1.40621e-10 
1.84699 -5.6412 8.13438e-11 
2.05801 -5.62241 -7.37694e-11 
2.26245 -5.54808 -6.74047e-11 
2.48017 -5.65363 5.24863e-11 
2.69381 -5.67801 -4.05972e-11 
2.9168 -5.58116 -1.86247e-10 
3.14702 -5.64923 2.93412e-11 
3.35203 -5.52855 1.50309e-11 
3.59398 -5.63634 -1.48607e-10 
3.82235 -5.6699 -8.83173e-10 
4.03601 -5.5884 2.96801e-10 
4.22493 -5.6701 -4.96815e-08 
-4.57822 -5.38887 -1.26322e-07 
-4.34318 -5.3206 2.11858e-09 
-4.16104 -5.51819 6.35273e-11 
-3.93094 -5.42587 -3.89882e-10 
-3.72372 -5.34851 8.55648e-11 
-3.49589 -5.40953 -7.61794e-11 
-3.26744 -5.36481 1.67619e-10 
-3.05236 -5.42808 -3.43027e-11 
-2.83882 -5.35082 2.99341e-10 
-2.6351 -5.41288 -2.9304e-10 
-2.4194 -5.32052 1.35363e-10 
-2.1918 -5.35079 -3.43632e-11 
-1.9896 -5.39827 4.30584e-11 
-1.77868 -5.44804 -1.50289e-10 
-1.54316 -5.31907 3.20509e-11 
-1.32716 -5.35562 1.50396e-11 
-1.11773 -5.36244 1.80989e-10 
-0.917424 -5.41206 1.30445e-10 
-0.723401 -5.37671 4.6862e-11 
-0.523895 -5.41508 1.3628e-11 
-0.317556 -5.38168 6.7968e-11 
-0.101981 -5.39146 -8.74381e-11 
0.115545 -5.41083 5.40105e-11 
0.318749 -5.40633 -2.3498e-11 
0.531617 -5.39222 1.50851e-11 
0.746473 -5.39322 -1.77048e-10 
0.9517 -5.38926 2.68118e-11 
1.16005 -5.38981 -1.44319e-10 
1.39382 -5.35419 -4.1626e-11 
1.58954 -5.31173 -7.97648e-11 
1.839 -5.39767 -4.51683e-11 
2.03596 -5.39914 -3.32522e-10 
2.2563 -5.33906 -2.76714e-10 
2.48175 -5.43638 -7.18556e-11 
2.7038 -5.45467 3.94107e-11 
2.90839 -5.35314 3.85176e-11 
3.12021 -5.42876 1.14924e-10 
3.32814 -5.31124 -9.95635e-11 
3.56584 -5.42369 -2.49252e-10 
3.79681 -5.44804 9.96255e-12 
4.02684 -5.3767 -3.52551e-10 
4.25819 -5.42278 5.5053e-10 
4.44806 -5.49679 -1.96322e-08 
-4.79486 -5.19705 1.37866e-09 
-4.56393 -5.17396 5.72952e-10 
-4.34537 -5.09572 -4.70161e-10 
-4.12296 -5.28922 -1.66793e-10 
-3.90915 -5.18568 2.26545e-10 
-3.68485 -5.12034 -1.50864e-10 
-3.4888 -5.19482 -3.41175e-10 
-3.27245 -5.14282 5.3715e-11 
-3.05657 -5.20158 -1.20581e-10 
-2.835 -5.13515 2.2791e-10 
-2.6156 -5.182 -6.72654e-11 
-2.3714 -5.1193 3.76954e-11 
-2.15663 -5.13373 7.10258e-11 
-1.94839 -5.17358 -6.76263e-11 
-1.75017 -5.23165 1.328e-10 
-1.56138 -5.09417 1.01964e-11 
-1.35371 -5.14212 1.12133e-11 
-1.13915 -5.14624 -8.15252e-12 
-0.926651 -5.17791 -1.19673e-12 
-0.712667 -5.16093 9.93427e-12 
-0.507087 -5.18642 -1.15056e-11 
-0.288111 -5.16847 -2.00324e-11 
-0.0690383 -5.18181 3.5293e-12 
0.134429 -5.18168 -4.97544e-11 
0.345159 -5.18676 -2.16959e-11 
0.564976 -5.17905 -1.04218e-10 
0.771483 -5.16798 -1.70425e-11 
0.983393 -5.17275 -1.21296e-11 
1.20747 -5.19176 9.28364e-11 
1.41097 -5.12128 6.97073e-11 
1.68888 -5.16394 -9.29685e-11 
1.89523 -5.17258 1.70023e-10 
2.10256 -5.17157 2.44236e-10 
2.29365 -5.08111 3.67654e-10 
2.44959 -5.21354 -2.65184e-10 
2.66401 -5.23994 1.71235e-10 
2.87063 -5.147 1.63481e-10 
3.11201 -5.20045 1.30791e-10 
3.34002 -5.09724 -9.02663e-11 
3.5606 -5.21989 -1.38611e-11 
3.79945 -5.23384 6.65367e-10 
4.01352 -5.15359 1.53326e-10 
4.23541 -5.20399 8.55846e-11 
4.46291 -5.24336 3.08148e-09 
4.65363 -5.32388 1.00727e-07 
4.79576 -5.19622 -8.5522e-08 
-4.9954 -5.0046 6.3837e-08 
-4.76384 -4.98015 -8.26044e-10 
-4.54608 -4.94502 -3.37622e-10 
-4.32126 -4.8681 2.05533e-10 
-4.12907 -5.06418 4.74069e-10 
-3.90437 -4.96973 -1.84614e-10 
-3.67156 -4.91299 1.5454e-10 
-3.44547 -4.96194 1.91497e-10 
-3.23311 -4.91018 7.01196e-11 
-3.04097 -4.98242 -1.85557e-10 
-2.85214 -4.89446 -1.53275e-11 
-2.65283 -4.96079 -1.27259e-10 
-2.44309 -4.94422 -6.39546e-14 
-2.19432 -4.91813 1.20645e-11 
-1.97429 -4.94709 -4.20521e-11 
-1.76474 -4.99567 -6.71392e-11 
-1.53283 -4.89058 2.77373e-12 
[...]
POINT_DATA 3402 
VECTORS vectors float
0.00119409 -0.000400224 0.999999 
0.00131451 -0.000338124 0.999999 
0.00119312 -0.000285344 0.999999 
0.00111055 -0.00019965 0.999999 
0.00112474 -0.000143531 0.999999 
0.00132824 -0.000144508 0.999999 
0.00114259 -5.45696e-05 0.999999 
0.00121526 -2.41672e-05 0.999999 
0.00115501 1.5194e-05 0.999999 
0.001201 9.97325e-05 0.999999 
0.0013493 0.000115032 0.999999 
0.00117682 0.000208697 0.999999 
0.00115585 0.000193043 0.999999 
0.00119179 0.000268493 0.999999 
0.00124744 0.000287284 0.999999 
0.000985077 0.000264903 1 
0.00113291 -0.000534164 0.999999 
0.00108996 -0.0004532 0.999999 
0.00123205 -0.000472848 0.999999 
0.00107259 -0.000382223 0.999999 
0.124774 -0.0294673 0.991748 
0.13286 -0.0266012 0.990778 
0.127986 -0.0217576 0.991537 
0.121842 -0.0161878 0.992417 
0.135366 -0.0137212 0.990701 
0.130414 -0.00914871 0.991417 
0.13535 -0.00526584 0.990784 
0.134525 -0.00129169 0.990909 
0.131866 0.0032311 0.991262 
0.13973 0.00811722 0.990156 
0.135218 0.0118513 0.990745 
0.134766 0.0159646 0.990749 
0.127317 0.0192946 0.991674 
0.130453 0.024011 0.991164 
0.121462 0.0262098 0.99225 
0.113552 0.0292637 0.993101 
0.00124982 0.000412135 0.999999 
0.00124519 0.000431585 0.999999 
0.000915143 0.000435145 1 
0.00104572 -0.000554768 0.999999 
0.0011459 -0.000517891 0.999999 
0.114346 -0.0433533 0.992495 
0.119259 -0.0404346 0.99204 
0.124404 -0.0375576 0.991521 
0.12576 -0.0339488 0.99148 
0.160696 -0.0385426 0.986251 
0.162116 -0.0335862 0.9862 
0.161894 -0.0281758 0.986406 
0.162802 -0.023276 0.986384 
0.162133 -0.0180837 0.986603 
0.162405 -0.0128696 0.98664 
0.160537 -0.00740623 0.987002 
0.160633 -0.00218158 0.987012 
0.161356 0.00328026 0.986891 
0.160483 0.00873567 0.987 
0.160957 0.0144238 0.986856 
0.160369 0.0199411 0.986856 
0.161656 0.0256498 0.986514 
0.16061 0.031114 0.986527 
0.160459 0.0365175 0.986367 
0.159871 0.0417235 0.986256 
0.133894 0.038476 0.990248 
0.115903 0.037018 0.99257 
0.117135 0.0428736 0.99219 
0.00128449 0.000601615 0.999999 
0.00128502 0.000579153 0.999999 
0.000921231 0.000350393 1 
0.00109982 -0.000613381 0.999999 
0.00107471 -0.000541822 0.999999 
0.102427 -0.0470201 0.993629 
0.119315 -0.0498116 0.991606 
0.154866 -0.0587068 0.98619 
0.157073 -0.053794 0.986121 
0.158712 -0.0486663 0.986125 
0.160058 -0.0435527 0.986146 
0.146427 -0.0363732 0.988553 
0.145711 -0.0312684 0.988833 
0.14658 -0.0267165 0.988838 
0.147827 -0.0217684 0.988774 
0.144894 -0.0166791 0.989307 
0.145429 -0.012162 0.989294 
0.143721 -0.0071888 0.989592 
0.141932 -0.00219535 0.989874 
0.144651 0.00289416 0.989479 
0.143578 0.00807703 0.989606 
0.143235 0.0132345 0.9896 
0.14461 0.0181027 0.989323 
0.145991 0.0228659 0.989022 
0.144819 0.0277038 0.98907 
0.147467 0.0331114 0.988513 
0.146716 0.0381743 0.988442 
0.158147 0.0470887 0.986292 
0.156186 0.0516018 0.986379 
0.15464 0.0566221 0.986347 
0.131972 0.0519865 0.989889 
0.105643 0.0448723 0.993391 
0.0966737 0.0460772 0.994249 
0.00102983 0.000461668 0.999999 
0.0012142 0.000634663 0.999999 
0.00100014 -0.000632306 0.999999 
0.000965247 -0.000551603 0.999999 
0.0965593 -0.0525511 0.993939 
0.119255 -0.0599631 0.991051 
0.149004 -0.0691354 0.986417 
0.15298 -0.0649159 0.986095 
0.144525 -0.0577353 0.987815 
0.144608 -0.0517844 0.988133 
0.144381 -0.0462769 0.98844 
0.145295 -0.0413028 0.988526 
0.132065 -0.0335141 0.990674 
0.1313 -0.028773 0.990925 
0.132067 -0.0243574 0.990942 
0.131694 -0.020103 0.991087 
0.131119 -0.0160383 0.991237 
0.130979 -0.0114258 0.991319 
0.129251 -0.00660888 0.99159 
0.128643 -0.00185933 0.991689 
0.129279 0.00293013 0.991604 
0.129839 0.00764606 0.991506 
0.128989 0.0122618 0.99157 
0.130788 0.0169791 0.991265 
0.130717 0.0213677 0.991189 
0.129876 0.0257363 0.991196 
0.131924 0.0303849 0.990794 
0.130634 0.0347578 0.990821 
0.141426 0.0421686 0.98905 
0.143285 0.0482939 0.988502 
0.143107 0.0543099 0.988216 
0.15355 0.0628953 0.986137 
0.148543 0.0663756 0.986676 
0.14579 0.0716464 0.986718 
0.105465 0.0555444 0.992871 
0.106742 0.0606905 0.992433 
0.000874526 0.00051601 0.999999 
0.0010037 -0.000586854 0.999999 
0.0938201 -0.0602322 0.993766 
0.111223 -0.0661622 0.991591 
0.142483 -0.0794136 0.986606 
0.147152 -0.0755141 0.986227 
0.140981 -0.0684691 0.987642 
0.139523 -0.0620792 0.988271 
0.128567 -0.0531255 0.990277 
0.12898 -0.0477936 0.990495 
0.129566 -0.0427519 0.990649 
0.131417 -0.0384124 0.990583 
0.123955 -0.0329355 0.991741 
0.124238 -0.0284602 0.991844 
0.123363 -0.0238418 0.992075 
0.124489 -0.0195449 0.992029 
0.124048 -0.0150579 0.992162 
0.12496 -0.0109331 0.992102 
0.122626 -0.00642426 0.992432 
0.121685 -0.00183583 0.992567 
0.123308 0.00265902 0.992365 
0.122041 0.00726693 0.992498 
0.122662 0.0116422 0.99238 
0.12326 0.0161492 0.992243 
0.122737 0.0205377 0.992227 
0.122132 0.0249485 0.9922 
0.122977 0.0296421 0.991967 
0.122004 0.0342111 0.99194 
0.128346 0.0399844 0.990923 
0.128605 0.0450561 0.990672 
0.126818 0.0499661 0.990667 
0.138714 0.058668 0.988593 
0.144349 0.0661137 0.987316 
0.143338 0.0716248 0.987079 
0.144936 0.0777516 0.986381 
0.141855 0.0830542 0.986397 
0.0913301 0.0565899 0.994211 
0.000999191 0.000655859 0.999999 
0.00108138 0.000654047 0.999999 
0.000833663 -0.000373886 1 
0.000872628 -0.000413548 0.999999 
0.102228 -0.0708871 0.992232 
0.135981 -0.0897326 0.986639 
0.140074 -0.086099 0.986391 
0.137299 -0.0807771 0.987231 
0.135498 -0.0734695 0.98805 
0.124618 -0.0631035 0.990196 
0.123544 -0.0568846 0.990707 
0.118176 -0.0504513 0.99171 
0.119664 -0.0458496 0.991755 
0.120948 -0.0413502 0.991797 
0.122467 -0.0372473 0.991773 
0.116062 -0.0329221 0.992696 
0.116549 -0.0286594 0.992771 
0.112587 -0.0233558 0.993367 
0.115284 -0.0190544 0.99315 
0.11199 -0.01418 0.993608 
0.112053 -0.00952631 0.993657 
0.108391 -0.00504865 0.994095 
0.107949 -0.000729811 0.994156 
0.111335 0.00350343 0.993777 
0.110398 0.00764226 0.993858 
0.111129 0.0117971 0.993736 
0.112876 0.0162988 0.993475 
0.113993 0.0206399 0.993267 
0.112984 0.0251745 0.993278 
0.115575 0.0300014 0.992846 
0.113756 0.0340956 0.992923 
0.118467 0.0384382 0.992214 
0.120819 0.0439527 0.991701 
0.118672 0.048132 0.991766 
0.124024 0.054264 0.990794 
0.12765 0.0600813 0.989998 
0.125979 0.0651599 0.989891 
0.137733 0.0760164 0.987548 
0.134974 0.0808932 0.987542 
0.138504 0.0875678 0.986483 
0.110146 0.0734258 0.9912 
0.0888007 0.0634666 0.994025 
0.000874725 0.000405533 0.999999 
0.000851147 -0.00049092 0.999999 
0.0936542 -0.0766755 0.992648 
0.0777687 -0.0585397 0.995251 
0.130609 -0.0949228 0.986879 
0.133838 -0.0931493 0.986616 
0.129671 -0.0835695 0.988029 
0.119553 -0.072479 0.990179 
0.119513 -0.0668755 0.990578 
0.114221 -0.0601979 0.99163 
0.114866 -0.0555178 0.991828 
0.110516 -0.0500157 0.992615 
0.110254 -0.0448274 0.992892 
0.111714 -0.0407635 0.992904 
0.112501 -0.0364131 0.992984 
0.0966881 -0.0281984 0.994915 
0.0946562 -0.0236179 0.99523 
0.0904493 -0.0189905 0.99572 
0.0929576 -0.0158217 0.995544 
0.0850695 -0.0113202 0.996311 
0.0884765 -0.00847709 0.996042 
0.0801468 -0.00459408 0.996772 
0.0799755 -0.00131297 0.996796 
0.0831844 0.0019952 0.996532 
0.0837914 0.00510671 0.99647 
0.0839007 0.00844505 0.996438 
0.0876237 0.0122717 0.996078 
0.0908968 0.0161677 0.995729 
0.0941244 0.0203747 0.995352 
0.0958091 0.0250161 0.995085 
0.0958362 0.028717 0.994983 
0.108085 0.036775 0.993461 
0.110807 0.0417055 0.992966 
0.110109 0.04643 0.992834 
0.114996 0.0521223 0.991998 
0.118223 0.0580941 0.991286 
0.115652 0.0622461 0.991337 
0.12144 0.068995 0.990198 
0.118251 0.0730767 0.990291 
0.134124 0.0872467 0.987116 
0.134428 0.0933644 0.986515 
0.127122 0.09505 0.987322 
0.0824391 0.0652867 0.994455 
0.000722091 0.000399588 1 
0.000709121 -0.000319653 1 
0.0791272 -0.069699 0.994425 
0.121269 -0.103906 0.987166 
0.126172 -0.0985539 0.987101 
0.127723 -0.0964251 0.987112 
0.115213 -0.0827914 0.989885 
0.114616 -0.0767301 0.990442 
0.109955 -0.0697197 0.991488 
0.110174 -0.0645534 0.991814 
0.106001 -0.0584079 0.992649 
0.105368 -0.0532565 0.993006 
0.0987378 -0.0461319 0.994044 
0.0950541 -0.0403071 0.994656 
0.0923062 -0.0350541 0.995113 
0.0924962 -0.0311429 0.995226 
0.0661725 -0.0205114 0.997597 
0.0655118 -0.0173854 0.9977 
0.0596316 -0.0132828 0.998132 
0.0580081 -0.0104015 0.998262 
0.0522999 -0.0071119 0.998606 
0.0531919 -0.0051452 0.998571 
0.046956 -0.00255679 0.998894 
0.0485345 -0.000498911 0.998821 
0.0486122 0.00137856 0.998817 
0.0508089 0.00349451 0.998702 
0.0521356 0.00579725 0.998623 
0.0545648 0.00823225 0.998476 
0.0591537 0.0113321 0.998185 
0.0684141 0.016019 0.997528 
0.0632292 0.0174621 0.997846 
0.0799351 0.0261748 0.996456 
0.0885634 0.0327087 0.995533 
0.0961669 0.0393453 0.994587 
0.0935215 0.0426117 0.994705 
0.106302 0.0498479 0.993084 
0.110178 0.0556719 0.992351 
0.108001 0.0598873 0.992345 
0.111718 0.0661808 0.991534 
0.108982 0.070854 0.991515 
0.117727 0.0795548 0.989854 
0.127577 0.0925016 0.987506 
0.129246 0.100773 0.986479 
0.124181 0.101241 0.987081 
0.0843938 0.072708 0.993776 
0.00105532 0.00098754 0.999999 
0.000924366 0.000705498 0.999999 
0.000723872 -0.000229875 1 
0.0796509 -0.0759712 0.993924 
0.11689 -0.107504 0.987309 
0.121444 -0.108092 0.986695 
0.128127 -0.10479 0.986206 
0.112554 -0.0883737 0.989708 
0.105562 -0.0786939 0.991294 
0.10483 -0.0725479 0.99184 
0.101323 -0.0665865 0.992623 
0.101738 -0.0620702 0.992873 
0.094917 -0.0555202 0.993936 
0.0944996 -0.0510122 0.994217 
0.0860165 -0.0431514 0.995359 
0.0710046 -0.0322559 0.996954 
0.0632462 -0.0257592 0.997665 
0.0612615 -0.0220338 0.997879 
0.0376319 -0.0119949 0.99922 
0.0360111 -0.00974119 0.999304 
0.0311978 -0.00708211 0.999488 
0.0300586 -0.0054691 0.999533 
0.0241709 -0.00343286 0.999702 
0.0242975 -0.00246351 0.999702 
0.0227674 -0.0013713 0.99974 
0.0235476 -0.000369917 0.999723 
0.0221712 0.000635613 0.999754 
0.0240451 0.001662 0.999709 
0.0259999 0.00288764 0.999658 
0.0264592 0.004167 0.999641 
0.0310511 0.00613105 0.999499 
0.0383028 0.00913806 0.999224 
0.0344772 0.00977676 0.999358 
0.0505903 0.0162898 0.998587 
0.0578585 0.0214923 0.998093 
0.0675426 0.0281105 0.99732 
0.0669614 0.0311829 0.997268 
0.0862022 0.0437344 0.995317 
0.0989409 0.0519849 0.993735 
0.0980855 0.0566672 0.993563 
0.103831 0.063848 0.992543 
0.100531 0.0673045 0.992655 
0.106505 0.0751333 0.991469 
0.110718 0.0822684 0.990441 
0.109927 0.0873474 0.990094 
0.120595 0.100808 0.98757 
0.123953 0.107845 0.98641 
0.106789 0.0968864 0.98955 
0.0748503 0.0711357 0.994654 
0.000561969 -6.33859e-05 1 
0.000628644 -0.000168157 1 
0.0695229 -0.0720578 0.994974 
0.111378 -0.111245 0.987532 
0.119246 -0.114356 0.986257 
0.107386 -0.0993235 0.989244 
0.11145 -0.0945706 0.98926 
0.102301 -0.0830179 0.991283 
0.0976538 -0.0764852 0.992277 
0.0974979 -0.0712359 0.992683 
0.0927107 -0.0645933 0.993596 
0.0890026 -0.0574218 0.994375 
0.0755649 -0.0460754 0.996076 
0.0712629 -0.0399186 0.996658 
0.0600462 -0.0307274 0.997723 
0.0431532 -0.0201636 0.998865 
0.0350869 -0.0147995 0.999275 
0.03282 -0.0121727 0.999387 
0.0166411 -0.00561468 0.999846 
0.0160114 -0.0046233 0.999861 
0.0129928 -0.00316432 0.999911 
0.0118496 -0.00233342 0.999927 
0.00887273 -0.00135245 0.99996 
0.00798482 -0.000832 0.999968 
0.00889007 -0.000483852 0.99996 
0.00866557 -8.70946e-05 0.999962 
0.00753377 0.000260575 0.999972 
0.00873822 0.000688659 0.999962 
0.0100956 0.00125691 0.999948 
0.00982859 0.00166321 0.99995 
0.012731 0.00271351 0.999915 
0.0177172 0.00447226 0.999833 
0.0169666 0.00521803 0.999842 
0.0289296 0.0100354 0.999531 
0.0333244 0.0132025 0.999357 
0.0383726 0.0168839 0.999121 
0.0507263 0.0254064 0.998389 
0.0625538 0.0339646 0.997464 
0.0807623 0.046268 0.995659 
0.0772772 0.0482922 0.995839 
0.0930681 0.0593318 0.99389 
0.0905749 0.0626638 0.993916 
0.097748 0.0707483 0.992693 
0.100275 0.0770922 0.991969 
0.0999013 0.0823719 0.991582 
0.10502 0.0909351 0.990304 
0.116743 0.106089 0.98748 
0.118116 0.11268 0.986586 
0.107647 0.108684 0.988231 
0.065006 0.0695373 0.995459 
0.000646331 0.000338905 1 
0.000680826 -0.000481051 1 
0.0690964 -0.078386 0.994526 
0.105893 -0.114896 0.987717 
0.114597 -0.119432 0.986207 
0.10655 -0.106485 0.988589 
0.0952262 -0.0916547 0.991227 
0.0996954 -0.0875698 0.991157 
0.0948674 -0.081158 0.992176 
0.0896023 -0.0733599 0.993272 
0.0870922 -0.0664971 0.993978 
0.077904 -0.0555147 0.995414 
0.0667947 -0.0447381 0.996763 
0.0484741 -0.0302985 0.998365 
0.0446595 -0.0256071 0.998674 
0.0343188 -0.0179837 0.999249 
0.0206716 -0.0100772 0.999736 
0.0142888 -0.00639519 0.999877 
0.0143892 -0.00570539 0.99988 
0.00613416 -0.00228295 0.999979 
0.00527387 -0.00168309 0.999985 
0.0038255 -0.00104434 0.999992 
0.00323508 -0.000715637 0.999995 
0.00207775 -0.000379284 0.999998 
0.00188997 -0.000227603 0.999998 
0.00224009 -0.000127007 0.999997 
0.00206866 -2.82911e-06 0.999998 
0.00169601 9.09946e-05 0.999999 
0.00225522 0.000237346 0.999997 
0.00257205 0.000395417 0.999997 
0.00270598 0.000563086 0.999996 
0.00422562 0.00104157 0.999991 
0.00690446 0.00192985 0.999974 
0.00436252 0.00145997 0.999989 
0.010469 0.00373818 0.999938 
0.0147236 0.00588559 0.999874 
0.0166271 0.00759291 0.999833 
0.0282511 0.01405 0.999502 
0.0342019 0.0190503 0.999233 
0.0504059 0.0302829 0.99827 
0.0509495 0.0334663 0.99814 
0.0710705 0.0489576 0.996269 
0.0889122 0.0666793 0.993805 
0.0925438 0.0736406 0.992982 
0.0923873 0.0790429 0.992581 
0.0963777 0.0861679 0.991608 
0.100444 0.094233 0.99047 
0.109766 0.10833 0.988036 
0.114665 0.118877 0.986266 
0.107356 0.117909 0.987204 
0.0774267 0.0892789 0.992993 
0.00091191 0.000933566 0.999999 
0.00072404 -0.000781165 0.999999 
0.073396 -0.0901065 0.993224 
0.103758 -0.12182 0.987114 
0.110166 -0.123559 0.986203 
0.100113 -0.108004 0.989097 
0.0921723 -0.0953637 0.991166 
0.0872444 -0.0880257 0.99229 
0.093502 -0.086665 0.99184 
0.0873276 -0.0806361 0.992911 
0.0837291 -0.073599 0.993767 
0.0742016 -0.0611505 0.995367 
0.0674915 -0.0518466 0.996372 
0.0488124 -0.0354581 0.998178 
0.0370879 -0.0251586 0.998995 
0.0236858 -0.0147583 0.999611 
0.0201631 -0.0115302 0.99973 
0.0116721 -0.00622891 0.999912 
0.00578448 -0.00289981 0.999979 
0.00422026 -0.00192082 0.999989 
0.00223162 -0.000988614 0.999997 
0.00128168 -0.000543198 0.999999 
0.000668831 -0.000319816 1 
0.000408833 -0.00020899 1 
9.46981e-05 -0.000123012 1 
2.21258e-05 -8.0956e-05 1 
5.81533e-05 -4.74573e-05 1 
8.71412e-05 -1.48593e-05 1 
2.39464e-05 1.07483e-05 1 
9.71878e-05 4.3887e-05 1 
0.000121575 7.54726e-05 1 
0.000267436 0.000128812 1 
0.000622454 0.000232911 1 
0.00126217 0.000429637 0.999999 
0.000815191 0.000355487 1 
0.00314517 0.00126154 0.999994 
0.00526508 0.0023059 0.999983 
0.00645848 0.00318163 0.999974 
0.0141348 0.00741843 0.999873 
0.0151731 0.00880769 0.999846 
0.0265868 0.0165142 0.99951 
0.0299391 0.0205132 0.999341 
0.0476756 0.0346816 0.998261 
0.0724466 0.0541076 0.995904 
0.0785091 0.063544 0.994886 
0.0825386 0.0710682 0.994051 
0.0870439 0.0802119 0.99297 
0.0925411 0.0889069 0.991732 
0.0952419 0.0964976 0.990766 
0.0994753 0.105902 0.989388 
0.107607 0.120127 0.986909 
0.104858 0.123745 0.986758 
0.0811917 0.0990128 0.991768 
0.000601799 0.00049567 1 
0.000676121 -0.000749346 0.999999 
0.070299 -0.0927327 0.993206 
0.100433 -0.127575 0.986731 
0.102275 -0.124643 0.986916 
0.094162 -0.109856 0.989477 
0.0877467 -0.098291 0.991282 
0.0843312 -0.0913789 0.992239 
0.0809119 -0.0801929 0.99349 
0.0713703 -0.0678363 0.99514 
0.066188 -0.0588022 0.996073 
0.0488566 -0.0406288 0.997979 
0.0373688 -0.0293355 0.998871 
0.0229647 -0.0169395 0.999593 
0.0165964 -0.0113127 0.999798 
0.00853784 -0.00542472 0.999949 
0.00574353 -0.00339977 0.999978 
0.00257704 -0.0014468 0.999996 
0.00116138 -0.000647 0.999999 
0.000203892 -0.00018748 1 
0.000143143 -0.000168424 1 
-0.000142432 -6.73848e-05 1 
-0.000231286 -6.44041e-05 1 
-0.000268571 -6.63115e-05 1 
-0.000258965 -6.98029e-05 1 
-0.000236725 -6.08243e-05 1 
-0.000220808 -3.93875e-05 1 
-0.000211958 -1.90155e-05 1 
-0.00021248 9.68946e-06 1 
-0.000206196 3.10434e-05 1 
-0.000220867 4.55335e-05 1 
-0.000224851 5.4916e-05 1 
-0.000248568 4.02264e-05 1 
-8.29953e-05 7.90333e-05 1 
-0.000174242 3.22051e-05 1 
0.000458553 0.00025993 1 
0.00124365 0.000617685 0.999999 
0.00144598 0.0007769 0.999999 
0.00468425 0.00261856 0.999986 
0.00612594 0.00380402 0.999974 
0.0133292 0.00881242 0.999872 
0.018361 0.0134453 0.999741 
0.0313573 0.0242716 0.999213 
0.0551081 0.0438448 0.997517 
0.0558401 0.0481014 0.99728 
0.0723778 0.0660718 0.995186 
0.0805707 0.0783224 0.993667 
0.0864602 0.0877693 0.992382 
0.0877356 0.0937878 0.991719 
0.0886382 0.0993845 0.991093 
0.0950789 0.110951 0.989267 
0.0997931 0.122477 0.987442 
0.100142 0.127622 0.986754 
0.058287 0.0761244 0.995393 
0.000608149 0.000532872 1 
0.000591311 -0.000711395 0.999999 
0.0643163 -0.0920272 0.993677 
0.0950018 -0.131058 0.986812 
0.0972609 -0.129115 0.986848 
0.0880146 -0.112196 0.98978 
0.0838973 -0.102091 0.991231 
0.0804302 -0.0949865 0.992224 
0.0760685 -0.086958 0.993304 
0.0767608 -0.0821724 0.993658 
0.0652995 -0.0669091 0.99562 
0.0481514 -0.0464638 0.997759 
0.0407093 -0.0365608 0.998502 
0.0233946 -0.0200427 0.999525 
0.0159051 -0.0127871 0.999792 
0.00876379 -0.00658422 0.99994 
0.00528227 -0.00370535 0.999979 
0.00181454 -0.00124324 0.999998 
0.000962713 -0.000633632 0.999999 
0.00021812 -0.00018622 1 
-0.000157481 -3.38633e-06 1 
-0.000219198 -7.8438e-06 1 
-0.000228607 -1.27315e-05 1 
-0.000186718 -4.51462e-05 1 
-0.000132159 -7.57451e-05 1 
-0.000101017 -9.55613e-05 1 
-6.24043e-05 -9.1881e-05 1 
-5.46111e-05 -6.75482e-05 1 
-5.89807e-05 -3.67259e-05 1 
-7.32202e-05 9.98898e-07 1 
-6.14839e-05 3.24829e-05 1 
-7.11224e-05 7.09313e-05 1 
-0.00011284 7.80959e-05 1 
-0.000172344 7.05875e-05 1 
-0.000237897 3.64072e-05 1 
-0.000199427 2.09687e-05 1 
-0.000253944 -2.42365e-05 1 
-0.000100645 7.9657e-06 1 
4.69009e-05 5.44846e-05 1 
0.00116775 0.000723649 0.999999 
0.00111147 0.000771657 0.999999 
0.0038927 0.0027065 0.999989 
0.0076719 0.00565834 0.999955 
0.0144027 0.0116373 0.999829 
0.0301878 0.0255139 0.999219 
0.0431116 0.0396659 0.998283 
0.0604012 0.0586933 0.996447 
0.0664824 0.0686318 0.995424 
0.077713 0.0816779 0.993624 
0.0806081 0.0892589 0.992741 
0.0826083 0.0965017 0.991899 
0.0830183 0.101286 0.991387 
0.0858069 0.109696 0.990254 
0.0962359 0.12628 0.987316 
0.0954233 0.130239 0.98688 
0.0704495 0.100375 0.992452 
0.000792338 0.00111201 0.999999 
0.000654856 -0.0010458 0.999999 
0.0596571 -0.0937066 0.993811 
0.0902692 -0.135482 0.986659 
0.0919995 -0.133067 0.986828 
0.0829868 -0.115487 0.989836 
0.0787675 -0.105165 0.99133 
0.0768815 -0.09863 0.99215 
0.0727776 -0.0901263 0.993268 
0.0645144 -0.0758893 0.995027 
0.0615859 -0.0675914 0.995811 
0.0413282 -0.0430038 0.99822 
0.0250291 -0.0242291 0.999393 
0.0158781 -0.0146144 0.999767 
0.00769573 -0.00668648 0.999948 
0.00464148 -0.00379094 0.999982 
0.00202249 -0.00157646 0.999997 
0.000561298 -0.000460273 1 
-2.28446e-05 -3.88504e-05 1 
-0.00013196 1.39506e-05 1 
-0.000177683 2.53805e-05 1 
-0.000138799 -2.12946e-05 1 
-2.62631e-05 -7.10034e-05 1 
-1.82173e-05 -9.28354e-05 1 
1.2956e-05 -8.91084e-05 1 
-6.10426e-05 -7.75558e-05 1 
-0.000144437 -6.73713e-05 1 
-0.00043654 -2.38301e-05 1 
-0.000830964 1.37677e-05 1 
-0.000839805 -1.56246e-05 1 
-0.000671758 -1.55965e-05 1 
-0.000426048 1.65126e-05 1 
-0.000441819 7.988e-06 1 
-2.23362e-05 9.92861e-05 1 
-6.67936e-05 9.48806e-05 1 
-2.25379e-05 0.0001082 1 
2.52513e-06 0.000101467 1 
-0.00018102 -1.50638e-05 1 
-0.000238728 -8.24741e-05 1 
-0.00023247 -0.000106884 1 
-0.000114646 -4.13353e-05 1 
9.24782e-05 0.000106531 1 
0.00130462 0.0010207 0.999999 
0.00439558 0.00352247 0.999984 
0.00823466 0.00719678 0.99994 
0.0194526 0.0175885 0.999656 
0.0216048 0.0210115 0.999546 
0.0372002 0.0376143 0.9986 
0.0499368 0.0540114 0.997291 
0.0680375 0.0766229 0.994736 
0.0728394 0.0866804 0.99357 
0.0758386 0.0953311 0.992553 
0.0763864 0.101284 0.991921 