# vtk DataFile Version 3.0 
Exported using Morpho https://github.com/Morpho-lang/morpho 
ASCII 
DATASET UNSTRUCTURED_GRID 

POINTS 1978 float 
-12 -4 9.20311e-15 
-11.6407 -4 -9.26784e-14 
-11.2942 -4 -1.2061e-13 
-10.9744 -4 -5.78652e-14 
-10.6742 -4 -1.3962e-14 
-10.3509 -4 -1.12936e-14 
-10.0207 -4 -2.97202e-14 
-9.68856 -4 -4.15788e-14 
-9.3269 -4 -2.46842e-14 
-9.00331 -4 6.89576e-15 
-8.69537 -4 3.44512e-14 
-8.35938 -4 5.45936e-14 
-8.06308 -4 6.15823e-14 
-7.76804 -4 6.59346e-14 
-7.46604 -4 6.71272e-14 
-7.18889 -4 7.063e-14 
-6.87147 -4 8.32041e-14 
-6.56988 -4 8.77033e-14 
-6.27586 -4 9.44635e-14 
-5.97827 -4 8.61326e-14 
-5.68244 -4 4.93661e-14 
-5.39087 -4 -4.17019e-14 
-5.09396 -4 -1.98362e-13 
-4.79768 -4 -4.44086e-13 
-4.4947 -4 -8.02373e-13 
-4.18979 -4 -1.27082e-12 
-3.87404 -4 -2.05751e-12 
-3.51988 -4 -3.55432e-12 
-3.13902 -4 -4.20019e-12 
-2.82714 -4 -4.91985e-12 
-2.54235 -4 -5.90631e-12 
-2.21235 -4 -6.33627e-12 
-1.94159 -4 -6.6319e-12 
-1.62898 -4 -6.48553e-12 
-1.40394 -4 -5.91868e-12 
-1.08606 -4 -3.42748e-12 
-0.809837 -4 3.98653e-13 
-0.511184 -4 -5.47233e-13 
-0.281036 -4 4.40838e-12 
0.0578171 -4 -1.90784e-12 
0.313833 -4 -9.11593e-13 
0.544877 -4 -1.05696e-12 
0.803709 -4 2.01086e-12 
1.094 -4 3.75475e-12 
1.38028 -4 4.79416e-12 
1.60788 -4 6.16259e-12 
1.94434 -4 6.31027e-12 
2.17475 -4 6.06668e-12 
2.48675 -4 6.3629e-12 
2.79801 -4 6.02037e-12 
3.2064 -4 5.26332e-12 
3.57233 -4 3.22257e-12 
3.91922 -4 1.98102e-12 
4.23851 -4 1.16685e-12 
4.52996 -4 6.45092e-13 
4.80845 -4 3.3449e-13 
5.1041 -4 1.58026e-13 
5.3916 -4 2.29628e-14 
5.6814 -4 -4.7564e-14 
5.98122 -4 -8.04534e-14 
6.28086 -4 -8.526e-14 
6.56148 -4 -8.18451e-14 
6.85963 -4 -7.23022e-14 
7.14254 -4 -6.65585e-14 
7.43321 -4 -6.84891e-14 
7.74722 -4 -6.73017e-14 
8.05745 -4 -6.24606e-14 
8.36611 -4 -5.28759e-14 
8.67647 -4 -3.85685e-14 
8.95582 -4 -2.40808e-14 
9.31162 -4 -2.38493e-15 
9.62012 -4 1.67336e-14 
9.92401 -4 1.81718e-14 
10.2726 -4 5.88931e-15 
10.5842 -4 2.12994e-14 
10.9762 -4 6.64237e-14 
11.3026 -4 1.29513e-13 
11.6427 -4 9.22926e-14 
12 -4 -6.7121e-15 
-12 -3.68918 -4.92832e-15 
-11.6518 -3.67535 1.09798e-14 
-11.3192 -3.66628 1.00451e-13 
-10.9945 -3.65828 1.52719e-13 
-10.6767 -3.63776 9.07471e-14 
-10.3705 -3.67361 1.4864e-14 
-10.0475 -3.67018 7.06378e-15 
-9.72188 -3.67968 3.71723e-15 
-9.38918 -3.70165 2.91026e-15 
-9.0513 -3.67361 -9.35131e-16 
-8.74483 -3.66546 -1.10447e-14 
-8.43004 -3.69382 -1.88848e-14 
-8.10723 -3.65437 -7.95068e-14 
-7.80293 -3.65463 -9.40605e-14 
-7.49929 -3.66186 -1.22327e-13 
-7.19636 -3.63782 -1.38052e-13 
-6.90246 -3.68841 -1.62741e-13 
-6.58701 -3.68059 -2.11406e-13 
-6.28012 -3.67879 -2.52196e-13 
-5.98008 -3.68126 -3.13718e-13 
-5.68283 -3.67624 -3.89987e-13 
-5.39184 -3.67176 -4.01461e-13 
-5.08904 -3.67454 -4.7272e-13 
-4.78234 -3.66574 -4.83763e-13 
-4.46712 -3.65339 -4.72492e-13 
-4.13623 -3.63911 -7.76366e-13 
-3.78574 -3.62456 -1.29212e-12 
-3.39927 -3.6661 1.4365e-12 
-3.07657 -3.55264 -3.00111e-12 
-2.76474 -3.6199 2.93012e-13 
-2.46211 -3.71686 -9.80457e-13 
-2.15939 -3.73611 2.49354e-13 
-1.8594 -3.80626 1.15156e-12 
-1.61119 -3.77248 -5.21408e-12 
-1.37955 -3.79385 1.99149e-12 
-1.18236 -3.86408 -8.98889e-13 
-0.92312 -3.87656 -2.70479e-12 
-0.65582 -3.89411 -1.18522e-12 
-0.379266 -3.86632 -1.02024e-13 
-0.0465722 -3.90091 -7.41926e-12 
0.202035 -3.87218 5.52742e-13 
0.521455 -3.83039 -3.3205e-12 
0.870611 -3.84338 5.84536e-12 
1.20262 -3.81272 1.05139e-11 
1.44684 -3.76892 8.87363e-13 
1.73675 -3.83665 4.57841e-12 
1.95912 -3.71199 1.83754e-12 
2.23576 -3.73556 -6.30418e-13 
2.50975 -3.66083 1.893e-12 
2.85604 -3.70353 -1.30301e-13 
3.18586 -3.65172 -8.16211e-13 
3.54043 -3.63003 6.84134e-13 
3.88833 -3.6213 7.87104e-13 
4.22938 -3.63338 6.27376e-13 
4.54737 -3.64521 5.86495e-13 
4.86635 -3.68533 5.59356e-13 
5.17399 -3.68213 4.59667e-13 
5.47582 -3.67993 4.10649e-13 
5.77647 -3.6767 3.33738e-13 
6.07727 -3.66848 2.92876e-13 
6.36587 -3.642 2.53014e-13 
6.66449 -3.66766 2.00609e-13 
6.95949 -3.65166 1.58632e-13 
7.25132 -3.66199 1.30269e-13 
7.55396 -3.68055 1.18044e-13 
7.85538 -3.66514 8.93302e-14 
8.15111 -3.65712 7.62095e-14 
8.44614 -3.65582 1.92606e-14 
8.73092 -3.62536 1.26307e-14 
9.05316 -3.70623 5.05957e-15 
9.3712 -3.66465 2.21893e-15 
9.68511 -3.65583 1.31479e-15 
10.0219 -3.69889 -3.4365e-15 
10.3473 -3.65242 -1.45026e-14 
10.6959 -3.71499 -8.13535e-14 
11.0253 -3.65099 -1.2899e-13 
11.3482 -3.65799 -1.11776e-13 
11.6821 -3.67834 -1.41621e-14 
12 -3.64837 6.36237e-15 
-12 -3.38168 -2.59976e-15 
-11.6828 -3.33438 2.02067e-14 
-11.3517 -3.33012 1.23227e-14 
-11.0135 -3.31685 9.48605e-14 
-10.6801 -3.30574 1.16294e-13 
-10.3417 -3.33403 1.96676e-14 
-10.0044 -3.34251 9.16685e-15 
-9.68255 -3.33806 6.47099e-15 
-9.38095 -3.38479 2.22144e-16 
-9.08446 -3.32624 -5.45188e-15 
-8.78547 -3.32138 -8.59818e-15 
-8.47926 -3.3662 -1.74717e-14 
-8.16456 -3.33576 -7.30376e-14 
-7.8416 -3.31696 -9.49772e-14 
-7.52991 -3.32029 -1.06595e-13 
-7.23322 -3.28383 -1.43994e-13 
-6.93598 -3.34614 -1.73738e-13 
-6.63833 -3.35859 -2.33095e-13 
-6.33533 -3.3594 -3.10687e-13 
-6.03471 -3.35771 -3.43735e-13 
-5.74029 -3.35227 -4.18861e-13 
-5.44498 -3.3324 -4.08783e-13 
-5.15187 -3.34474 -5.63888e-13 
-4.84529 -3.32957 -3.85899e-13 
-4.5279 -3.30988 -5.82505e-13 
-4.20392 -3.30225 -6.77059e-13 
-3.8587 -3.28904 -3.76066e-13 
-3.47237 -3.33014 -1.64742e-12 
-3.12109 -3.23321 1.54834e-12 
-2.78678 -3.31432 -6.22028e-13 
-2.47316 -3.4285 -1.48951e-13 
-2.20049 -3.50258 -1.88725e-12 
-1.95275 -3.37187 -6.32253e-12 
-1.8997 -3.58712 -1.03577e-11 
-1.36991 -3.59741 -6.98539e-12 
-1.15177 -3.66082 -8.92077e-12 
-0.975276 -3.72586 -1.73788e-12 
-0.508147 -3.7853 -8.62656e-12 
-0.201925 -3.83611 3.36185e-12 
-0.0790116 -3.70809 1.53189e-12 
0.367479 -3.75709 5.74762e-12 
0.629925 -3.73231 2.37016e-12 
0.80784 -3.62311 1.62876e-11 
1.01831 -3.71642 -2.08819e-11 
1.30452 -3.58783 7.26464e-12 
1.63104 -3.63363 -1.95253e-13 
2.00914 -3.47207 9.79515e-12 
2.25085 -3.44043 -1.00668e-12 
2.56551 -3.39009 1.21611e-12 
2.86384 -3.386 9.80403e-13 
3.18596 -3.3427 -2.64885e-12 
3.52378 -3.29037 1.59934e-12 
3.83687 -3.26631 -1.3166e-13 
4.1749 -3.27021 8.44735e-13 
4.50167 -3.2926 6.31241e-13 
4.8127 -3.35246 5.22625e-13 
5.11426 -3.36245 5.3304e-13 
5.41703 -3.36055 4.82003e-13 
5.7172 -3.35208 4.11602e-13 
6.01824 -3.33885 3.19484e-13 
6.31534 -3.29935 2.64481e-13 
6.61861 -3.33049 2.20665e-13 
6.92028 -3.31826 1.73488e-13 
7.227 -3.32372 1.30916e-13 
7.52574 -3.35086 1.12653e-13 
7.82806 -3.32865 9.6318e-14 
8.12872 -3.30657 7.37128e-14 
8.41892 -3.29783 1.7889e-14 
8.73427 -3.29786 1.25633e-14 
9.05126 -3.38095 8.37723e-15 
9.37415 -3.33618 4.43525e-15 
9.68549 -3.31338 -8.84594e-16 
9.99992 -3.37665 -3.52215e-15 
10.3261 -3.3263 -1.6113e-14 
10.6724 -3.38949 -1.1466e-13 
11.0098 -3.31959 -1.11871e-13 
11.3496 -3.31044 -2.14378e-14 
11.6765 -3.33895 -9.9109e-15 
12 -3.30353 4.84776e-16 
-12 -3.0334 5.11205e-15 
-11.6578 -2.99997 3.00352e-15 
-11.3016 -3.00035 -1.48021e-14 
-10.9744 -2.97266 2.08392e-15 
-10.6264 -2.98005 1.54911e-14 
-10.2899 -3.01027 4.97444e-15 
-9.96068 -3.00463 3.29603e-15 
-9.65516 -2.97521 3.35592e-15 
-9.36371 -3.02264 -9.28951e-16 
-9.06358 -2.97088 -3.70297e-15 
-8.74732 -2.98678 -7.79067e-16 
-8.43451 -3.03018 4.28132e-16 
-8.11321 -3.00376 4.65427e-15 
-7.80243 -2.97974 8.64954e-15 
-7.49774 -2.972 1.12386e-14 
-7.19399 -2.93631 6.28073e-14 
-6.90054 -3.01083 -5.89818e-15 
-6.59668 -3.02646 -3.2848e-15 
-6.29791 -3.03068 -3.5803e-15 
-6.00563 -3.02348 2.55351e-15 
-5.71367 -3.01409 6.35918e-14 
-5.41465 -2.98773 1.87896e-13 
-5.10915 -3.00099 2.21224e-13 
-4.78366 -2.9827 2.98327e-13 
-4.45528 -2.96005 2.92485e-13 
-4.12292 -2.97908 6.55999e-13 
-3.80166 -2.95631 8.75941e-13 
-3.51804 -3.06011 8.40687e-13 
-3.26611 -2.94429 -1.38038e-12 
-2.96637 -3.03194 1.58253e-12 
-2.66839 -3.12671 -2.39355e-12 
-2.4146 -3.19998 3.04682e-12 
-2.16696 -3.26474 -3.79062e-12 
-1.69814 -3.41662 1.41679e-11 
-1.60995 -3.5857 4.83441e-12 
-1.19676 -3.46787 -6.98032e-12 
-0.980509 -3.51355 8.12987e-13 
-0.765053 -3.75028 6.19088e-12 
-0.293814 -3.6886 -3.61202e-12 
0.103583 -3.75545 3.03732e-13 
0.496235 -3.58828 6.49358e-12 
0.692176 -3.45595 -7.39451e-12 
0.919458 -3.46006 9.82535e-12 
1.11233 -3.51743 -1.42242e-11 
1.48026 -3.44554 9.05701e-12 
1.75962 -3.48454 -8.4179e-12 
2.02599 -3.2475 4.71557e-12 
2.33043 -3.2267 2.61844e-14 
2.66074 -3.15163 -2.23352e-12 
2.95182 -3.1073 1.25308e-12 
3.26234 -3.07295 3.21426e-13 
3.53079 -2.96042 -2.18933e-12 
3.80206 -2.93607 -1.49954e-13 
4.11746 -2.93746 -3.10881e-13 
4.45736 -2.94101 -3.63559e-13 
4.78794 -2.99838 -3.07999e-13 
5.09778 -3.01921 -2.17383e-13 
5.40171 -3.03479 -1.78546e-14 
5.70669 -3.02232 -1.7296e-14 
6.0028 -3.00071 -1.72465e-14 
6.30278 -2.96397 -6.64515e-14 
6.60817 -2.99533 -1.95293e-15 
6.91711 -2.98975 -8.16906e-15 
7.22731 -2.99703 -3.1003e-15 
7.53645 -3.01661 -2.56287e-15 
7.84179 -2.98978 -7.02796e-15 
8.12817 -2.94928 -9.01733e-15 
8.44126 -2.96672 -2.44173e-15 
8.75438 -2.97219 8.01129e-16 
9.07118 -3.05579 3.49673e-15 
9.38318 -2.99707 1.32232e-15 
9.68775 -2.96178 -4.28345e-15 
9.99979 -3.03839 -4.57301e-15 
10.309 -2.97479 -4.40063e-15 
10.6313 -3.0641 -6.83285e-14 
10.9656 -2.98884 -6.48904e-15 
11.3049 -2.97814 6.66135e-14 
11.6496 -2.99914 -6.14327e-15 
12 -2.9865 1.56952e-15 
-12 -2.70191 2.68243e-15 
-11.6299 -2.69013 -4.22417e-15 
-11.3141 -2.64353 -7.5098e-14 
-10.9706 -2.63928 -2.09826e-14 
-10.6271 -2.65256 -2.59416e-15 
-10.2834 -2.67617 1.05857e-15 
-9.97035 -2.65094 3.14669e-15 
-9.64189 -2.63852 2.4439e-18 
-9.32645 -2.65353 -1.64284e-15 
-9.00695 -2.63594 -1.3832e-15 
-8.6983 -2.64224 1.48054e-15 
-8.39823 -2.69755 6.06986e-15 
-8.09287 -2.65926 1.23324e-14 
-7.78215 -2.6411 2.06791e-14 
-7.48143 -2.63003 6.49944e-14 
-7.15385 -2.61516 1.02998e-13 
-6.8466 -2.67902 9.76762e-14 
-6.54875 -2.68855 1.35145e-13 
-6.25661 -2.68944 1.75931e-13 
-5.96357 -2.68039 2.22548e-13 
[...]
POINT_DATA 1978 
VECTORS vectors float
-0.000207837 -0.00193215 0.999998 
0.00035636 -0.029605 0.999562 
0.000257082 -0.0258692 0.999665 
6.73654e-05 -0.0121775 0.999926 
0.000251993 -0.00411452 0.999992 
0.000235741 -0.00259479 0.999997 
0.000135162 -0.00562189 0.999984 
0.000182702 -0.00779801 0.99997 
0.000193089 -0.00446545 0.99999 
0.000137603 0.00175753 0.999998 
0.000226805 0.00743077 0.999972 
0.000249116 0.0120131 0.999928 
0.000165696 0.0144808 0.999895 
0.000280265 0.0160221 0.999872 
0.00025987 0.0169615 0.999856 
0.000174118 0.0182069 0.999834 
0.000273651 0.0204128 0.999792 
0.00023469 0.0237295 0.999718 
0.000212514 0.0301084 0.999547 
0.000239477 0.0393938 0.999224 
0.000226739 0.0500924 0.998745 
0.000217361 0.063066 0.998009 
0.000220245 0.0773315 0.997005 
0.000205661 0.0896191 0.995976 
0.000187983 0.102746 0.994708 
0.000168408 0.114521 0.993421 
0.000170056 0.125932 0.992039 
5.2052e-05 0.136999 0.990571 
0.000148849 0.148388 0.988929 
0.00010589 0.156568 0.987667 
0.00014645 0.165132 0.986271 
0.000106968 0.181559 0.98338 
0.000121178 0.204415 0.978884 
9.55999e-05 0.266496 0.963836 
5.63463e-05 0.331758 0.943364 
3.38328e-05 0.471543 0.881843 
-4.27233e-06 0.633496 0.773746 
-2.86697e-05 0.834021 0.551733 
9.66022e-06 0.943867 0.330326 
-1.49754e-05 0.996069 -0.0885788 
1.48028e-05 0.929835 -0.367977 
3.0906e-05 0.801606 -0.597853 
5.61483e-06 0.62993 -0.776652 
-4.81563e-05 0.468299 -0.88357 
-3.35248e-05 0.342922 -0.939364 
-0.000118394 0.274871 -0.961481 
-0.000145461 0.217351 -0.976093 
-0.000103485 0.192185 -0.981359 
-9.83584e-05 0.172835 -0.984951 
-0.000110541 0.159296 -0.987231 
-3.74225e-05 0.143692 -0.989623 
-0.000111881 0.134095 -0.990968 
-0.0001365 0.12219 -0.992507 
-0.00021649 0.110371 -0.99389 
-0.000176469 0.0970952 -0.995275 
-0.000223429 0.0853571 -0.99635 
-0.000247132 0.0731998 -0.997317 
-0.000201812 0.0615265 -0.998105 
-0.000222965 0.0505924 -0.998719 
-0.000271765 0.0402859 -0.999188 
-0.00020154 0.0313732 -0.999508 
-0.00024669 0.0246529 -0.999696 
-0.000267989 0.0198102 -0.999804 
-0.00020856 0.017038 -0.999855 
-0.000247106 0.0155577 -0.999879 
-0.000233554 0.0146846 -0.999892 
-0.000197425 0.0139415 -0.999903 
-0.00028073 0.0122847 -0.999925 
-0.000143215 0.00942157 -0.999956 
-0.000237779 0.00588706 -0.999983 
-0.000228865 0.000452561 -1 
-0.000127605 -0.00335382 -0.999994 
-0.000267182 -0.0035378 -0.999994 
-0.000144343 -0.00142569 -0.999999 
-0.00019955 -0.00362351 -0.999993 
-6.58994e-05 -0.0133039 -0.999911 
-0.00019505 -0.0278472 -0.999612 
-0.000396351 -0.030115 -0.999546 
0.000226163 -0.00166885 -0.999999 
-0.000558321 0.000550391 1 
0.00868365 -0.0235107 0.999686 
0.0136533 -0.0251434 0.999591 
0.0169018 -0.0153859 0.999739 
0.0170429 -0.00625976 0.999835 
0.0157046 -0.00341009 0.999871 
0.0161361 -0.00427914 0.999861 
0.0147168 -0.00509928 0.999879 
0.0137099 -0.00371776 0.999899 
0.0141915 0.000555881 0.999899 
0.0144803 0.00497184 0.999883 
0.0139339 0.00956756 0.999857 
0.0151373 0.0128127 0.999803 
0.0149026 0.0149748 0.999777 
0.0145813 0.0163545 0.99976 
0.0144987 0.0177863 0.999737 
0.0131486 0.0202396 0.999709 
0.0127129 0.0249066 0.999609 
0.0109064 0.0317785 0.999435 
0.00788919 0.0407958 0.999136 
0.0038014 0.0524551 0.998616 
-0.00205666 0.0652117 0.997869 
-0.0084054 0.0786804 0.996864 
-0.0173042 0.0931966 0.995497 
-0.0283155 0.108084 0.993738 
-0.0415886 0.122676 0.991575 
-0.0599966 0.137533 0.988678 
-0.0796581 0.151223 0.985285 
-0.120835 0.166979 0.978528 
-0.124843 0.173233 0.976936 
-0.100776 0.177749 0.978902 
-0.0992607 0.191984 0.976366 
-0.0729907 0.221437 0.972439 
-0.0840277 0.274201 0.957994 
-0.0692294 0.336083 0.939285 
-0.0340386 0.420307 0.906743 
-0.0210337 0.577889 0.815844 
-0.00989098 0.746628 0.665168 
-0.00398594 0.903647 0.428259 
0.000442294 0.998736 0.0502589 
0.00340336 0.965808 -0.259235 
0.0175713 0.813254 -0.581643 
0.0276028 0.604895 -0.795826 
0.0458851 0.417529 -0.907504 
0.0714307 0.318604 -0.945193 
0.0513245 0.252386 -0.966265 
0.10634 0.21794 -0.970151 
0.101438 0.191156 -0.976304 
0.122605 0.181542 -0.97571 
0.0983214 0.168195 -0.980838 
0.103247 0.162027 -0.98137 
0.0786848 0.147277 -0.985961 
0.0583491 0.132863 -0.989415 
0.0393489 0.116326 -0.992431 
0.0251314 0.101477 -0.99452 
0.0124354 0.0860793 -0.996211 
0.00515746 0.0726087 -0.997347 
-0.000649781 0.0600461 -0.998195 
-0.00499882 0.0484146 -0.998815 
-0.00861503 0.0382106 -0.999233 
-0.0115308 0.0302036 -0.999477 
-0.0130255 0.0236442 -0.999636 
-0.0143625 0.0193412 -0.99971 
-0.0148707 0.0166982 -0.99975 
-0.01504 0.0149813 -0.999775 
-0.0150723 0.013478 -0.999796 
-0.0151163 0.0118378 -0.999816 
-0.0147939 0.00973882 -0.999843 
-0.0152052 0.00684908 -0.999861 
-0.0130883 0.00391712 -0.999907 
-0.0144419 0.000481327 -0.999896 
-0.014726 -0.00146375 -0.99989 
-0.0147573 -0.00200929 -0.999889 
-0.0156635 -0.00229261 -0.999875 
-0.0143887 -0.00685809 -0.999873 
-0.0162678 -0.0171429 -0.999721 
-0.0138195 -0.0265037 -0.999553 
-0.00837209 -0.0234324 -0.99969 
0.00101967 0.000560465 -0.999999 
0.000559058 -0.000402916 1 
0.0107866 -0.0194812 0.999752 
0.0165817 -0.0265814 0.999509 
0.0196588 -0.0179463 0.999646 
0.0196436 -0.0064804 0.999786 
0.0189665 -0.00219818 0.999818 
0.0188039 -0.00180846 0.999822 
0.0175172 -0.00207141 0.999844 
0.0173101 -0.0023183 0.999847 
0.0161472 -0.000584147 0.999869 
0.0160668 0.00272902 0.999867 
0.0168709 0.00692882 0.999834 
0.0164919 0.0104119 0.99981 
0.0159692 0.0135405 0.999781 
0.0152807 0.0158238 0.999758 
0.0143831 0.018239 0.99973 
0.0146479 0.0213147 0.999666 
0.0133515 0.0259954 0.999573 
0.0102468 0.032846 0.999408 
0.00465234 0.0425386 0.999084 
-0.00289444 0.055017 0.998481 
-0.0139865 0.0702652 0.99743 
-0.0248914 0.0856599 0.996013 
-0.0419667 0.103401 0.993754 
-0.0624831 0.122448 0.990506 
-0.0883104 0.142636 0.985828 
-0.122861 0.164007 0.978778 
-0.154071 0.180446 0.971443 
-0.24116 0.216133 0.946112 
-0.242148 0.207165 0.947864 
-0.225507 0.19903 0.953695 
-0.198221 0.202935 0.958919 
-0.274083 0.232927 0.933072 
-0.157623 0.230206 0.960292 
-0.144787 0.339928 0.929239 
-0.0921132 0.443031 0.891762 
-0.0574281 0.537234 0.841476 
-0.00990137 0.844343 0.535711 
-0.00273442 0.975022 0.222093 
0.00118919 0.994522 0.104519 
0.0149968 0.912383 -0.409064 
0.0357188 0.757544 -0.651806 
0.0611965 0.641651 -0.764552 
0.0795195 0.493285 -0.866225 
0.126246 0.356011 -0.925915 
0.137904 0.264961 -0.954347 
0.204688 0.220877 -0.953581 
0.23853 0.212631 -0.947571 
0.240796 0.207257 -0.948189 
0.216439 0.201412 -0.955294 
0.208213 0.201442 -0.957115 
0.166603 0.183951 -0.968713 
0.135032 0.169743 -0.976193 
0.0947724 0.145016 -0.98488 
0.0649187 0.12269 -0.990319 
0.0393963 0.100872 -0.994119 
0.0236804 0.0840814 -0.996177 
0.011953 0.0692417 -0.997528 
0.00337912 0.0556738 -0.998443 
-0.00293298 0.0439884 -0.999028 
-0.00700578 0.0345976 -0.999377 
-0.0116996 0.0265396 -0.999579 
-0.0137256 0.0210401 -0.999684 
-0.0152085 0.0173656 -0.999734 
-0.0168288 0.0150981 -0.999744 
-0.0170846 0.01298 -0.99977 
-0.0167759 0.0104672 -0.999804 
-0.0160273 0.00751342 -0.999843 
-0.0154964 0.00426138 -0.999871 
-0.0161892 0.0021846 -0.999867 
-0.0163175 0.00042336 -0.999867 
-0.01678 0.00027581 -0.999859 
-0.0188431 -0.00042538 -0.999822 
-0.0194747 -0.00157329 -0.999809 
-0.0204398 -0.00678849 -0.999768 
-0.0203951 -0.018554 -0.99962 
-0.0174723 -0.0276126 -0.999466 
-0.0108375 -0.0208633 -0.999724 
-0.000788348 -0.000330687 -1 
0.000461386 6.47448e-05 1 
0.00841051 -0.0219184 0.999724 
0.0108519 -0.0267281 0.999584 
0.0101767 -0.0158672 0.999822 
0.0102238 -0.00430076 0.999938 
0.0104903 -0.000512843 0.999945 
0.0081212 0.00072435 0.999967 
0.00532659 0.000547352 0.999986 
0.00614766 -0.00110291 0.99998 
0.00425196 -0.00146139 0.99999 
0.00519254 0.00141076 0.999986 
0.00682177 0.0058049 0.99996 
0.0056412 0.00993805 0.999935 
0.00421809 0.0135846 0.999899 
0.00298443 0.0165695 0.999858 
0.000411231 0.0200538 0.999799 
0.00213975 0.0238362 0.999714 
-0.0004964 0.0301837 0.999544 
-0.005424 0.039016 0.999224 
-0.013335 0.0509257 0.998613 
-0.0244486 0.0662575 0.997503 
-0.0405096 0.0859642 0.995474 
-0.0569275 0.105339 0.992806 
-0.0827792 0.131216 0.987892 
-0.117933 0.16175 0.97976 
-0.160817 0.192681 0.967994 
-0.215165 0.22524 0.950248 
-0.232856 0.226508 0.945765 
-0.321841 0.272547 0.906717 
-0.354065 0.265473 0.896751 
-0.344241 0.242694 0.906972 
-0.360826 0.237051 0.902004 
-0.329936 0.226783 0.916358 
-0.284719 0.254878 0.924106 
-0.188572 0.275906 0.942506 
-0.185484 0.382792 0.905023 
-0.13958 0.508977 0.849388 
-0.0380221 0.65217 0.757119 
-0.00485012 0.946228 0.323463 
0.00618706 0.986579 -0.163167 
0.0340372 0.829145 -0.557996 
0.0853066 0.671938 -0.735678 
0.119224 0.54446 -0.830271 
0.157189 0.414766 -0.896248 
0.201864 0.295578 -0.933748 
0.237232 0.249851 -0.938773 
0.356763 0.240121 -0.902808 
0.355488 0.238393 -0.903768 
0.366924 0.254357 -0.894801 
0.323646 0.250171 -0.912506 
0.283107 0.243688 -0.927613 
0.275059 0.253263 -0.92747 
0.220656 0.227463 -0.948457 
0.167198 0.196977 -0.966046 
0.119562 0.16211 -0.979503 
0.0801516 0.127934 -0.988539 
0.0547671 0.102381 -0.993236 
0.035735 0.0809786 -0.996075 
0.0234524 0.0648491 -0.997619 
0.0149684 0.0515579 -0.998558 
0.00918739 0.0406602 -0.999131 
0.00214714 0.0303592 -0.999537 
-0.000936012 0.0235651 -0.999722 
-0.00343245 0.0185372 -0.999822 
-0.00538763 0.01519 -0.99987 
-0.00515443 0.0124215 -0.99991 
-0.00393439 0.00914751 -0.99995 
-0.00465471 0.00516686 -0.999976 
-0.00424709 0.00154461 -0.99999 
-0.006938 0.000168981 -0.999976 
-0.00512977 0.000256681 -0.999987 
-0.00474638 0.00198025 -0.999987 
-0.00940608 0.00160533 -0.999954 
-0.00941033 -0.000170793 -0.999956 
-0.0137055 -0.00494876 -0.999894 
-0.0122042 -0.0168478 -0.999784 
-0.0112779 -0.0284906 -0.99953 
-0.00898594 -0.0225868 -0.999705 
-0.000506811 8.63403e-05 -1 
8.85396e-05 0.000223262 1 
0.00349056 -0.0238531 0.999709 
0.00224331 -0.0278933 0.999608 
0.000851494 -0.0152268 0.999884 
0.000726897 -0.00328216 0.999994 
-6.82473e-05 0.00143516 0.999999 
-0.00289185 0.00309829 0.999991 
-0.00429969 0.00177248 0.999989 
-0.00402183 -0.00162518 0.999991 
-0.00401297 -0.00288741 0.999988 
-0.00358176 -9.52774e-05 0.999994 
-0.00205969 0.00472085 0.999987 
-0.00286684 0.00948464 0.999951 
-0.00396544 0.0139245 0.999895 
-0.00500954 0.0176791 0.999831 
-0.00747378 0.022726 0.999714 
-0.00876975 0.0279992 0.999569 
-0.0132471 0.0365721 0.999243 
-0.020039 0.04815 0.998639 
-0.0299841 0.063662 0.997521 
-0.0444501 0.0840448 0.99547 
-0.0657791 0.112142 0.991513 
-0.0918784 0.14249 0.985523 
-0.132455 0.18544 0.973688 
-0.184454 0.230405 0.955453 
-0.239315 0.266136 0.933756 
-0.305255 0.305984 0.901772 
-0.32565 0.297217 0.89756 
-0.432477 0.366033 0.824004 
-0.421517 0.3266 0.845964 
-0.438462 0.29426 0.849213 
-0.461587 0.275748 0.843149 
-0.477618 0.260431 0.839081 
-0.440247 0.255628 0.860719 
-0.379401 0.274231 0.883658 
-0.267686 0.3029 0.914656 
-0.242111 0.446495 0.861408 
-0.0814086 0.631404 0.771169 
-0.0321659 0.758119 0.651323 
0.00714893 0.996288 -0.0857882 
0.0470905 0.832125 -0.552585 
0.166056 0.567788 -0.806252 
0.21211 0.428935 -0.87808 
0.245945 0.334276 -0.909819 
0.321139 0.286059 -0.902796 
0.350642 0.258163 -0.900223 
0.470223 0.263472 -0.842302 
0.452932 0.275967 -0.847758 
0.441805 0.309526 -0.842022 
0.383184 0.300748 -0.873339 
0.407765 0.346883 -0.84463 
0.341101 0.319952 -0.883901 
0.291234 0.301053 -0.908047 
0.230145 0.262894 -0.936974 
0.167622 0.214892 -0.962146 
0.114862 0.164982 -0.979586 
0.0804004 0.127987 -0.988512 
0.055488 0.0979666 -0.993642 
0.0399599 0.0773785 -0.996201 
0.0283732 0.0606044 -0.997759 
0.019097 0.0460258 -0.998758 
0.0121706 0.0343837 -0.999335 
0.00823755 0.0260396 -0.999627 
0.0059405 0.0202861 -0.999777 
0.00380694 0.0158755 -0.999867 
0.00348188 0.0123283 -0.999918 
0.003107 0.00772103 -0.999965 
0.00324773 0.00302509 -0.99999 
0.00346099 -0.000618833 -0.999994 
0.00286752 -0.00180226 -0.999994 
0.00450859 -0.0011168 -0.999989 
0.00460346 0.00204333 -0.999987 
0.00189287 0.00361369 -0.999992 
1.24551e-05 0.00133175 -0.999999 
-0.00322852 -0.00459847 -0.999984 
-0.00252877 -0.0175709 -0.999842 
-0.00300568 -0.0282943 -0.999595 
-0.00406739 -0.0216659 -0.999757 
-7.63632e-05 -4.98117e-05 -1 
-0.00073652 6.65965e-06 1 
-0.000339978 -0.0159494 0.999873 
-0.00194435 -0.0272009 0.999628 
-0.00239543 -0.0207239 0.999782 
-0.00308486 -0.0054238 0.999981 
-0.00436238 0.00238774 0.999988 
-0.00607191 0.00488626 0.99997 
-0.00672105 0.00341678 0.999972 
-0.00615075 -0.0016883 0.99998 
-0.0049982 -0.00481512 0.999976 
-0.00402406 -0.00343959 0.999986 
-0.00360888 0.0016461 0.999992 
-0.00344988 0.00709538 0.999969 
-0.00376249 0.0127567 0.999912 
-0.00448825 0.0177702 0.999832 
-0.00646707 0.0228648 0.999718 
-0.00992513 0.0308875 0.999474 
-0.0147247 0.0400937 0.999087 
-0.0223079 0.0538447 0.9983 
-0.0327332 0.071661 0.996892 
-0.0472909 0.0947107 0.994381 
-0.0682023 0.126483 0.989621 
-0.0980418 0.167146 0.981045 
-0.137871 0.215698 0.966678 
-0.193869 0.27512 0.94166 
-0.256679 0.327481 0.909325 
-0.315694 0.356439 0.879369 
-0.398556 0.421329 0.814638 
-0.401919 0.378308 0.833873 
-0.511807 0.409783 0.755071 
-0.496526 0.353295 0.792871 
-0.52559 0.323874 0.786677 
-0.567332 0.306989 0.764128 
-0.585239 0.289616 0.757376 
-0.571549 0.279613 0.771458 
-0.497551 0.292039 0.816796 
-0.304032 0.352186 0.885172 
-0.0741569 0.709256 0.70104 
-0.011998 0.85544 0.517763 
-0.00088056 0.983081 0.183172 
0.0205317 0.947861 -0.318022 
0.290495 0.436318 -0.85161 
0.306872 0.405094 -0.861237 
0.372507 0.305636 -0.876256 
0.467964 0.264531 -0.843228 
0.518305 0.260582 -0.814529 
0.566018 0.313871 -0.762305 
0.507256 0.321281 -0.799668 
0.488013 0.356872 -0.796546 
0.492605 0.397309 -0.774265 
0.479471 0.441125 -0.758628 
0.413089 0.412951 -0.811683 
0.346309 0.383989 -0.855934 
0.271856 0.333741 -0.902614 
0.209897 0.288836 -0.934086 
0.147446 0.221538 -0.96394 
0.102465 0.169866 -0.980126 
0.070496 0.126509 -0.989457 
0.0500598 0.098217 -0.993905 
0.0353254 0.0758739 -0.996491 
0.0238514 0.0572219 -0.998077 
0.0151763 0.0417241 -0.999014 
0.0101763 0.0309792 -0.999468 
0.0068258 0.0233922 -0.999703 
0.00493889 0.0176975 -0.999831 
0.00327866 0.0134508 -0.999904 
0.0025217 0.00809162 -0.999964 
0.00200547 0.00197065 -0.999996 
0.00326138 -0.00285704 -0.999991 
0.00501323 -0.00427173 -0.999978 
0.00561843 -0.00303088 -0.99998 
0.00588056 0.00204505 -0.999981 
0.0050547 0.00522677 -0.999974 
0.00377384 0.00342213 -0.999987 
0.00165631 -0.0031124 -0.999994 
0.000995912 -0.0161661 -0.999869 
0.000142333 -0.0279262 -0.99961 
-0.000485427 -0.0213275 -0.999772 
0.000156119 -2.9082e-05 -1 
-0.00018852 2.14955e-05 1 
-0.00212868 -0.0193416 0.999811 
-0.00287832 -0.0256729 0.999666 
-0.00367111 -0.0119338 0.999922 
-0.00466311 0.00137273 0.999988 
-0.00523081 0.00583401 0.999969 
-0.0048698 0.00521626 0.999975 
-0.00392385 0.000269132 0.999992 
-0.00125109 -0.00575503 0.999983 
0.000287854 -0.0071694 0.999974 
0.00128399 -0.00350461 0.999993 
0.00216059 0.00254134 0.999994 
0.00167739 0.00945043 0.999954 
0.00153397 0.0156522 0.999876 
0.000443026 0.0220174 0.999757 
-0.00347491 0.0287939 0.999579 
-0.0064294 0.039364 0.999204 
-0.0130546 0.0518166 0.998571 
-0.0214778 0.0694654 0.997353 
-0.0339017 0.0920519 0.995177 
-0.0514732 0.122289 0.991159 
-0.077078 0.166129 0.983087 
-0.113092 0.221096 0.968673 
-0.165215 0.286983 0.943581 
-0.232127 0.368002 0.900384 
-0.301188 0.421624 0.855289 
-0.371849 0.460415 0.806068 
-0.441067 0.538954 0.717627 
-0.479335 0.497707 0.722859 
-0.495335 0.462934 0.735074 
-0.584631 0.440245 0.681463 
-0.572153 0.387455 0.722855 
-0.610262 0.36153 0.704894 
-0.667124 0.337724 0.663993 
-0.679436 0.299583 0.669789 
-0.594355 0.303408 0.744772 
-0.388733 0.309455 0.867827 
-0.183001 0.593996 0.783377 
-0.0056896 0.918454 0.395486 
0.0397346 0.932427 -0.359168 
0.0508397 0.862349 -0.503756 
0.230143 0.351401 -0.907497 
0.539178 0.296067 -0.788436 
0.450236 0.28566 -0.845982 
0.608829 0.295805 -0.736089 
0.614182 0.358678 -0.702944 
0.579859 0.381585 -0.719831 
0.576524 0.421585 -0.699919 
0.55913 0.461177 -0.688977 
0.566718 0.516497 -0.641921 
0.479006 0.507332 -0.716357 
0.422974 0.490839 -0.761689 
0.351221 0.449744 -0.821203 
0.287679 0.410769 -0.865164 
0.213219 0.343323 -0.914695 
0.15177 0.267154 -0.951627 
0.103785 0.20277 -0.973711 
0.071258 0.152757 -0.985691 
0.0482268 0.116706 -0.991995 
0.0317584 0.0881357 -0.995602 
0.0194848 0.0641711 -0.997749 
0.0105325 0.0475404 -0.998814 
0.00501949 0.034601 -0.999389 
0.00118989 0.0257305 -0.999668 
-0.000888355 0.0193862 -0.999812 
-0.00280824 0.0135415 -0.999904 
-0.00331207 0.00741948 -0.999967 
-0.00399678 0.000520188 -0.999992 
-0.00241095 -0.00490578 -0.999985 
0.000498645 -0.00678071 -0.999977 
0.00119272 -0.00478251 -0.999988 
0.00258173 0.0015185 -0.999996 
0.00427951 0.00619826 -0.999972 
0.00384742 0.00542545 -0.999978 
0.00299446 -0.0013016 -0.999995 
0.00179565 -0.0151348 -0.999884 
0.0010736 -0.0275084 -0.999621 
0.00129252 -0.020915 -0.99978 
0.00025699 -4.93245e-05 -1 
-8.15652e-05 -0.000107486 1 
-0.00155868 -0.0204204 0.99979 
-0.00203167 -0.0262626 0.999653 
-0.00247381 -0.0128722 0.999914 
-0.00249375 0.00107418 0.999996 
-0.00135744 0.00626343 0.999979 
7.38242e-05 0.00550385 0.999985 
0.00252579 -0.000974142 0.999996 
0.00532049 -0.00759162 0.999957 
0.00801796 -0.00965818 0.999921 
0.0090596 -0.00606089 0.999941 
0.0111682 0.000907201 0.999937 
0.0108842 0.00876519 0.999902 
0.0106555 0.0157172 0.99982 
0.00946771 0.0226006 0.9997 
0.00598267 0.0311637 0.999496 
0.00330603 0.0423423 0.999098 
-0.00307992 0.0577191 0.998328 
-0.0110046 0.0774343 0.996937 
-0.0237937 0.103286 0.994367 
-0.0426263 0.13996 0.989239 
-0.0682175 0.189135 0.979579 
-0.106442 0.259192 0.959943 
-0.162533 0.339697 0.926385 
-0.230099 0.438152 0.868952 
-0.299661 0.502763 0.810822 
-0.36712 0.535601 0.760497 
-0.42675 0.611799 0.666023 
-0.493918 0.630671 0.59858 
-0.52416 0.588381 0.615682 
-0.571752 0.571172 0.58895 
-0.554306 0.490944 0.6721 
-0.642835 0.42889 0.634678 
-0.676952 0.389417 0.624572 
-0.710137 0.309777 0.632253 
-0.676421 0.313659 0.666388 
-0.469579 0.32463 0.821042 
-0.387657 0.333181 0.859484 
-0.0145758 0.803429 0.595222 
0.00830317 0.995198 -0.0975313 
0.0827754 0.70987 -0.699451 
0.3466 0.32665 -0.8793 
0.523197 0.298548 -0.798206 
0.586541 0.27141 -0.76309 
0.679101 0.351568 -0.644377 
0.72085 0.421989 -0.549819 
0.647223 0.463142 -0.605476 
0.636836 0.503286 -0.584074 
0.63555 0.551183 -0.540623 
0.542755 0.542175 -0.641454 
0.495618 0.583793 -0.643077 
0.420047 0.550211 -0.721685 
0.373121 0.555718 -0.742939 
0.31365 0.50903 -0.801568 
0.235607 0.432114 -0.870498 
0.166088 0.346621 -0.923184 
0.112519 0.26289 -0.958242 
0.0719194 0.194011 -0.97836 
0.0453368 0.145526 -0.988315 
0.026699 0.108528 -0.993735 
0.0144254 0.0799856 -0.996692 
0.00430612 0.0590897 -0.998243 
-0.00258867 0.0426788 -0.999085 
-0.00736034 0.0310231 -0.999492 
-0.0104792 0.0224494 -0.999693 
-0.0115372 0.0156557 -0.999811 
-0.0124877 0.00835621 -0.999887 
-0.0126511 7.70795e-05 -0.99992 
-0.0112405 -0.00687492 -0.999913 
-0.00750445 -0.0092875 -0.999929 
-0.00663177 -0.00766606 -0.999949 
-0.00417025 -0.000689227 -0.999991 
-0.000211848 0.00586807 -0.999983 
0.000483897 0.00629145 -0.99998 
0.00168756 0.00110745 -0.999998 
0.000877335 -0.0116761 -0.999931 
0.000371456 -0.0250646 -0.999686 
0.000820521 -0.0205139 -0.999789 
3.4322e-05 -4.76509e-05 -1 
0.000181166 -0.000177684 1 
-0.000151523 -0.0202462 0.999795 
-0.000101326 -0.0250631 0.999686 
0.00026807 -0.0115341 0.999933 
0.00167764 0.00160324 0.999997 
0.0041648 0.00600686 0.999973 
0.00664301 0.00377671 0.999971 
0.00988532 -0.00349438 0.999945 
0.0123904 -0.0105211 0.999868 
0.0149778 -0.0119139 0.999817 
0.0163026 -0.00705722 0.999842 
0.0182587 0.000995362 0.999833 
0.0183385 0.00971807 0.999785 