# vtk DataFile Version 3.0 
Exported using Morpho https://github.com/Morpho-lang/morpho 
ASCII 
DATASET UNSTRUCTURED_GRID 

POINTS 1978 float 
-12 -4 -1.47431e-12 
-11.6407 -4 1.30153e-11 
-11.2942 -4 1.74779e-11 
-10.9744 -4 8.30618e-12 
-10.6742 -4 1.84237e-12 
-10.3509 -4 1.68219e-12 
-10.0207 -4 4.47965e-12 
-9.68856 -4 6.15288e-12 
-9.3269 -4 3.62236e-12 
-9.00331 -4 -1.01933e-12 
-8.69537 -4 -4.96045e-12 
-8.35938 -4 -7.80594e-12 
-8.06308 -4 -8.86426e-12 
-7.76804 -4 -9.36888e-12 
-7.46604 -4 -9.52978e-12 
-7.18889 -4 -1.00145e-11 
-6.87147 -4 -1.16097e-11 
-6.56988 -4 -1.23184e-11 
-6.27586 -4 -1.32171e-11 
-5.97827 -4 -1.17638e-11 
-5.68244 -4 -6.1292e-12 
-5.39087 -4 6.95033e-12 
-5.09396 -4 3.18548e-11 
-4.79768 -4 6.83622e-11 
-4.4947 -4 1.21873e-10 
-4.18979 -4 1.91812e-10 
-3.87404 -4 3.09768e-10 
-3.51988 -4 5.2673e-10 
-3.13902 -4 6.25815e-10 
-2.82713 -4 7.29777e-10 
-2.54235 -4 8.78271e-10 
-2.21235 -4 9.38233e-10 
-1.94159 -4 9.99476e-10 
-1.62898 -4 9.6068e-10 
-1.40394 -4 8.87861e-10 
-1.08606 -4 5.09056e-10 
-0.809837 -4 -5.41593e-11 
-0.511183 -4 8.48506e-11 
-0.281036 -4 -6.57125e-10 
0.0578166 -4 2.31222e-10 
0.313834 -4 1.52082e-10 
0.544878 -4 1.45955e-10 
0.803711 -4 -3.77769e-10 
1.09401 -4 -6.50163e-10 
1.38028 -4 -7.76147e-10 
1.60788 -4 -9.23709e-10 
1.94434 -4 -9.55225e-10 
2.17475 -4 -9.07149e-10 
2.48675 -4 -9.46079e-10 
2.79801 -4 -8.94678e-10 
3.2064 -4 -7.73453e-10 
3.57233 -4 -4.80874e-10 
3.91922 -4 -2.98346e-10 
4.23851 -4 -1.77597e-10 
4.52996 -4 -9.73684e-11 
4.80845 -4 -5.19017e-11 
5.1041 -4 -2.53747e-11 
5.3916 -4 -4.80502e-12 
5.6814 -4 5.82943e-12 
5.98122 -4 1.08595e-11 
6.28086 -4 1.19188e-11 
6.56148 -4 1.1492e-11 
6.85963 -4 1.0176e-11 
7.14254 -4 9.41265e-12 
7.43321 -4 9.66945e-12 
7.74722 -4 9.56761e-12 
8.05745 -4 8.92973e-12 
8.36611 -4 7.58703e-12 
8.67647 -4 5.61851e-12 
8.95582 -4 3.46627e-12 
9.31162 -4 2.84478e-13 
9.62011 -4 -2.53579e-12 
9.92401 -4 -2.79605e-12 
10.2726 -4 -9.18433e-13 
10.5842 -4 -2.96887e-12 
10.9762 -4 -9.3744e-12 
11.3026 -4 -1.87535e-11 
11.6427 -4 -1.29559e-11 
12 -4 1.04519e-12 
-12 -3.68918 1.29822e-12 
-11.6524 -3.67474 -2.19066e-12 
-11.3214 -3.66782 -8.01673e-12 
-10.9954 -3.65765 -1.28212e-11 
-10.6766 -3.63696 -7.67522e-12 
-10.3705 -3.67487 -3.39309e-12 
-10.0466 -3.66989 -1.5341e-12 
-9.72155 -3.68027 -7.07227e-13 
-9.38864 -3.70303 -5.53885e-13 
-9.0505 -3.67455 2.38327e-13 
-8.74534 -3.66639 2.46478e-12 
-8.43083 -3.69467 4.12126e-12 
-8.10833 -3.65436 6.58297e-12 
-7.8033 -3.65407 7.74909e-12 
-7.49932 -3.66224 1.01943e-11 
-7.19596 -3.63829 1.16397e-11 
-6.90155 -3.68883 1.34493e-11 
-6.587 -3.68188 1.76731e-11 
-6.27936 -3.67902 2.11159e-11 
-5.97926 -3.68175 2.6212e-11 
-5.68201 -3.67625 3.27035e-11 
-5.39077 -3.67253 3.23617e-11 
-5.09068 -3.67762 3.99692e-11 
-4.7846 -3.66856 3.9527e-11 
-4.4691 -3.65582 3.81619e-11 
-4.13888 -3.64072 6.4545e-11 
-3.7889 -3.6267 9.68368e-11 
-3.40178 -3.65996 -9.99621e-11 
-3.0747 -3.55363 2.28068e-10 
-2.76227 -3.61738 -1.56568e-11 
-2.46481 -3.71515 6.20509e-11 
-2.16362 -3.73348 4.33476e-11 
-1.86374 -3.81096 -1.33584e-10 
-1.612 -3.76812 4.28006e-10 
-1.37776 -3.79702 -2.23978e-10 
-1.1808 -3.86452 8.13873e-11 
-0.92518 -3.87748 2.49111e-10 
-0.650267 -3.89527 1.20771e-10 
-0.375869 -3.86761 6.26457e-12 
-0.0485636 -3.90306 7.04044e-10 
0.202893 -3.87361 1.37707e-11 
0.510144 -3.85316 2.9643e-10 
0.835963 -3.84294 3.10027e-10 
1.17114 -3.82423 5.21284e-11 
1.44035 -3.76705 -1.40378e-10 
1.73303 -3.83865 -3.05167e-10 
1.95608 -3.71886 -2.88199e-12 
2.23874 -3.73735 6.48052e-11 
2.51079 -3.65799 -1.62736e-10 
2.85724 -3.70142 2.65765e-11 
3.18465 -3.64104 2.77015e-11 
3.53883 -3.62968 -4.82546e-11 
3.89205 -3.6241 -5.649e-11 
4.23412 -3.63539 -4.64805e-11 
4.55022 -3.6499 -5.01532e-11 
4.86762 -3.68773 -4.59608e-11 
5.17441 -3.68306 -3.81521e-11 
5.47602 -3.67969 -3.42934e-11 
5.77684 -3.67727 -2.76396e-11 
6.07762 -3.66851 -2.43881e-11 
6.36642 -3.6417 -2.12881e-11 
6.66517 -3.66721 -1.67444e-11 
6.96031 -3.65191 -1.33364e-11 
7.25154 -3.66192 -1.08849e-11 
7.55378 -3.68046 -9.76062e-12 
7.85527 -3.66626 -7.42312e-12 
8.15086 -3.6577 -6.30359e-12 
8.44611 -3.65629 -4.30304e-12 
8.73065 -3.62431 -2.81298e-12 
9.05249 -3.70645 -1.05894e-12 
9.36981 -3.66424 -5.35633e-13 
9.6842 -3.65667 -3.28748e-13 
10.0216 -3.69935 7.34906e-13 
10.3475 -3.6525 3.35203e-12 
10.6959 -3.71482 6.71201e-12 
11.0253 -3.65102 1.06487e-11 
11.3485 -3.65855 8.82728e-12 
11.6821 -3.67784 3.17571e-12 
12 -3.64837 -1.53773e-12 
-12 -3.38168 8.30581e-13 
-11.6837 -3.33299 -5.45092e-12 
-11.3531 -3.33058 -2.90098e-12 
-11.0151 -3.31737 -8.28353e-12 
-10.6807 -3.30509 -1.0096e-11 
-10.3416 -3.33622 -4.62994e-12 
-10.0041 -3.34182 -2.13012e-12 
-9.68155 -3.33927 -1.53603e-12 
-9.38007 -3.38692 -3.1359e-14 
-9.08458 -3.32729 1.28019e-12 
-8.78608 -3.32132 2.00733e-12 
-8.48104 -3.36802 4.07449e-12 
-8.16598 -3.33586 6.31206e-12 
-7.84236 -3.31723 8.23529e-12 
-7.52916 -3.32068 9.23511e-12 
-7.23265 -3.28288 1.25163e-11 
-6.93603 -3.3479 1.49289e-11 
-6.63789 -3.35894 2.02087e-11 
-6.33546 -3.36048 2.66984e-11 
-6.03446 -3.35841 2.97024e-11 
-5.74003 -3.35325 3.61251e-11 
-5.44397 -3.33289 3.61416e-11 
-5.15157 -3.34789 4.88371e-11 
-4.84738 -3.33352 3.32339e-11 
-4.53094 -3.31417 4.79928e-11 
-4.20691 -3.3031 5.90437e-11 
-3.86255 -3.29038 2.47196e-11 
-3.47421 -3.32679 1.38548e-10 
-3.12044 -3.22671 -1.19908e-10 
-2.79218 -3.3115 2.25925e-11 
-2.47057 -3.42223 4.35194e-11 
-2.19572 -3.50394 1.26487e-10 
-1.95508 -3.3665 6.58221e-10 
-1.88346 -3.5961 6.67572e-10 
-1.36933 -3.60229 4.48796e-10 
-1.14903 -3.6613 7.85693e-10 
-0.973581 -3.72448 2.08208e-10 
-0.500349 -3.78871 6.98947e-10 
-0.201207 -3.83676 -2.79558e-10 
-0.0819964 -3.71308 -1.30955e-10 
0.357892 -3.75376 -5.20785e-10 
0.632282 -3.70666 -4.01614e-10 
0.811564 -3.63602 -9.66133e-10 
1.02848 -3.68835 2.0115e-10 
1.30801 -3.59175 -6.30731e-10 
1.64687 -3.62698 -1.39003e-10 
2.00514 -3.48039 -6.63455e-10 
2.24442 -3.43351 3.5793e-11 
2.5655 -3.3854 -1.08866e-10 
2.86205 -3.3837 -5.94275e-11 
3.17878 -3.33216 1.82954e-10 
3.51521 -3.29516 -9.02409e-11 
3.84665 -3.26075 -1.73166e-11 
4.18057 -3.27549 -7.03713e-11 
4.50513 -3.29914 -5.09385e-11 
4.81423 -3.35591 -4.62651e-11 
5.11374 -3.36459 -4.66049e-11 
5.41509 -3.36216 -4.27903e-11 
5.71631 -3.35231 -3.51907e-11 
6.01684 -3.33896 -2.77088e-11 
6.31368 -3.29963 -2.29654e-11 
6.61835 -3.33049 -1.91971e-11 
6.92126 -3.31896 -1.49419e-11 
7.22857 -3.3234 -1.13425e-11 
7.5266 -3.35087 -9.74542e-12 
7.82864 -3.32966 -8.28926e-12 
8.12848 -3.3069 -6.35756e-12 
8.41787 -3.29863 -4.21335e-12 
8.73346 -3.29707 -2.96386e-12 
9.05108 -3.38088 -1.96617e-12 
9.3751 -3.33663 -1.02869e-12 
9.68614 -3.31384 2.07292e-13 
9.99985 -3.37778 8.38568e-13 
10.3258 -3.32653 3.77424e-12 
10.6729 -3.38924 9.92355e-12 
11.0109 -3.31962 9.74968e-12 
11.3505 -3.31117 5.03007e-12 
11.6771 -3.33848 3.10306e-12 
12 -3.30353 -5.65564e-13 
-12 -3.0334 -4.64622e-13 
-11.6578 -2.99821 -1.13127e-12 
-11.3009 -3.00125 3.58897e-12 
-10.974 -2.97321 -4.46385e-13 
-10.6253 -2.98015 -3.60132e-12 
-10.29 -3.01211 -1.18663e-12 
-9.96092 -3.00417 -7.62985e-13 
-9.65502 -2.97617 -7.93675e-13 
-9.36371 -3.02322 2.20584e-13 
-9.06403 -2.97144 8.7048e-13 
-8.74689 -2.98701 1.88529e-13 
-8.4343 -3.03167 -1.15514e-13 
-8.11327 -3.00358 -1.06482e-12 
-7.80266 -2.98048 -2.06238e-12 
-7.49763 -2.9723 -2.68425e-12 
-7.19361 -2.9345 -5.24045e-12 
-6.89986 -3.01261 1.16399e-12 
-6.59504 -3.02665 9.22012e-13 
-6.2962 -3.03158 8.52174e-13 
-6.00482 -3.02383 -2.91901e-13 
-5.71361 -3.01579 -5.72845e-12 
-5.41621 -2.98793 -1.52545e-11 
-5.11281 -3.00312 -1.91723e-11 
-4.78762 -2.98676 -2.76129e-11 
-4.45864 -2.96375 -3.08528e-11 
-4.12372 -2.97812 -5.64037e-11 
-3.80087 -2.95946 -7.72138e-11 
-3.51445 -3.0594 -6.07389e-11 
-3.26636 -2.93733 1.04794e-10 
-2.96286 -3.02231 -1.05405e-10 
-2.66663 -3.12474 1.59747e-10 
-2.40818 -3.18934 -1.95762e-10 
-2.16777 -3.26581 2.41764e-10 
-1.711 -3.40949 -1.02803e-09 
-1.60504 -3.56847 -1.75528e-10 
-1.19711 -3.46882 5.56743e-10 
-0.977513 -3.51329 -1.86315e-10 
-0.767363 -3.75693 -5.55894e-10 
-0.290488 -3.68416 2.92253e-10 
0.106813 -3.75455 -9.72793e-11 
0.493934 -3.59282 -4.24025e-10 
0.697318 -3.45277 3.8499e-10 
0.912704 -3.46462 -3.65469e-10 
1.12255 -3.49489 1.01426e-09 
1.48577 -3.44794 -6.23614e-10 
1.76839 -3.45978 4.40311e-10 
2.02336 -3.2368 -4.88743e-10 
2.33294 -3.22157 2.48318e-11 
2.66358 -3.14138 1.81565e-10 
2.95116 -3.10311 -1.06092e-10 
3.26896 -3.07183 2.84768e-11 
3.52149 -2.94782 1.07009e-10 
3.79244 -2.94166 3.75418e-11 
4.12229 -2.93476 4.43215e-11 
4.46217 -2.94495 3.0963e-11 
4.79216 -3.00275 2.74879e-11 
5.10151 -3.02206 1.7935e-11 
5.40169 -3.03452 3.3691e-12 
5.70677 -3.02222 3.55069e-12 
6.00239 -3.00051 4.05436e-12 
6.30211 -2.96368 5.64512e-12 
6.60765 -2.99647 6.64853e-13 
6.91689 -2.99004 1.85766e-12 
7.22748 -2.99788 7.92671e-13 
7.53779 -3.01688 5.9967e-13 
7.84269 -2.98993 1.65757e-12 
8.1279 -2.9485 2.07178e-12 
8.4411 -2.96758 5.9008e-13 
8.75465 -2.97218 -1.85815e-13 
9.07185 -3.05691 -8.21606e-13 
9.38362 -2.99765 -3.12722e-13 
9.68745 -2.96136 9.99848e-13 
9.99929 -3.0388 1.07747e-12 
10.3087 -2.97497 1.02888e-12 
10.6316 -3.06457 5.89349e-12 
10.9659 -2.98878 1.52341e-12 
11.305 -2.9785 -5.82307e-12 
11.6495 -2.99874 1.87807e-12 
12 -2.9865 -5.92938e-13 
-12 -2.70191 -3.25093e-13 
-11.6282 -2.68958 8.97115e-13 
-11.3129 -2.6439 6.51907e-12 
-10.9708 -2.63885 4.88837e-12 
-10.6275 -2.6532 6.1556e-13 
-10.2829 -2.67721 -2.49563e-13 
-9.9693 -2.65091 -7.35938e-13 
-9.64128 -2.63829 8.31735e-16 
-9.32684 -2.6524 3.80916e-13 
-9.00719 -2.63664 3.26221e-13 
-8.69793 -2.64203 -3.46453e-13 
-8.39788 -2.69821 -1.42849e-12 
-8.09315 -2.65832 -2.86776e-12 
-7.78285 -2.64185 -4.86272e-12 
-7.48303 -2.63005 -5.64414e-12 
-7.15369 -2.61316 -8.88045e-12 
-6.84673 -2.68056 -8.52719e-12 
-6.54854 -2.68845 -1.16192e-11 
-6.25724 -2.68914 -1.51241e-11 
-5.96509 -2.68042 -1.91527e-11 
[...]
POINT_DATA 1978 
VECTORS vectors float
-9.90138e-05 -0.00286314 0.999996 
0.00105416 -0.0296055 0.999561 
0.000976555 -0.0258694 0.999665 
0.000551509 -0.0121774 0.999926 
0.00083334 -0.00411437 0.999991 
0.000890853 -0.00259471 0.999996 
0.00074873 -0.00562194 0.999984 
0.000874276 -0.00779817 0.999969 
0.000864054 -0.00446554 0.99999 
0.000683722 0.00175755 0.999998 
0.000846419 0.00743084 0.999972 
0.000861896 0.0120131 0.999927 
0.00066922 0.0144808 0.999895 
0.00084067 0.0160222 0.999871 
0.000787065 0.0169615 0.999856 
0.00068125 0.0182069 0.999834 
0.000869012 0.0204128 0.999791 
0.000782296 0.0237294 0.999718 
0.000721907 0.0301083 0.999546 
0.000755865 0.0393937 0.999223 
0.000725376 0.0500923 0.998744 
0.000703837 0.063066 0.998009 
0.000706892 0.0773316 0.997005 
0.000682939 0.0896191 0.995976 
0.0006536 0.102747 0.994707 
0.000638229 0.114521 0.993421 
0.000680922 0.125932 0.992039 
0.00055644 0.136999 0.990571 
0.000618299 0.148388 0.988929 
0.000434848 0.156568 0.987667 
0.000468122 0.165132 0.986271 
0.000383949 0.181559 0.98338 
0.000354803 0.204415 0.978884 
0.000262543 0.266496 0.963836 
0.000158425 0.331758 0.943364 
9.94958e-05 0.471543 0.881843 
1.99909e-06 0.633495 0.773747 
-4.70782e-05 0.834021 0.551733 
4.85577e-06 0.943867 0.330327 
-2.16307e-05 0.996069 -0.0885795 
2.74026e-05 0.929835 -0.367976 
5.26207e-05 0.801606 -0.597852 
-3.5961e-06 0.62993 -0.776652 
-0.000112829 0.468299 -0.88357 
-0.000123384 0.342922 -0.939364 
-0.000320859 0.274871 -0.961481 
-0.000387491 0.217351 -0.976093 
-0.000322455 0.192185 -0.981359 
-0.000398738 0.172835 -0.984951 
-0.000559824 0.159296 -0.987231 
-0.000542898 0.143691 -0.989622 
-0.00061978 0.134095 -0.990968 
-0.000636987 0.12219 -0.992506 
-0.000691594 0.110371 -0.99389 
-0.000588263 0.0970951 -0.995275 
-0.000670976 0.0853571 -0.99635 
-0.000730204 0.0731998 -0.997317 
-0.000663481 0.0615265 -0.998105 
-0.000727694 0.0505924 -0.998719 
-0.000821004 0.0402859 -0.999188 
-0.000691754 0.0313732 -0.999508 
-0.000753015 0.0246528 -0.999696 
-0.000789319 0.0198101 -0.999803 
-0.000698233 0.017038 -0.999855 
-0.000808073 0.0155577 -0.999879 
-0.000829682 0.0146846 -0.999892 
-0.000776305 0.0139415 -0.999903 
-0.000869156 0.0122847 -0.999924 
-0.000628007 0.00942164 -0.999955 
-0.000848011 0.0058871 -0.999982 
-0.000881148 0.000452533 -1 
-0.000652107 -0.00335393 -0.999994 
-0.000915427 -0.00353787 -0.999993 
-0.000776363 -0.00142562 -0.999999 
-0.000893824 -0.0036234 -0.999993 
-0.000718621 -0.0133037 -0.999911 
-0.000898704 -0.0278474 -0.999612 
-0.00109014 -0.0301156 -0.999546 
0.000127893 -0.00271338 -0.999996 
-0.000575988 -0.000364994 1 
0.00868393 -0.0235112 0.999686 
0.0136536 -0.0251437 0.999591 
0.0169023 -0.0153859 0.999739 
0.0170432 -0.00625964 0.999835 
0.0157049 -0.00341004 0.999871 
0.0161366 -0.0042792 0.999861 
0.0147171 -0.00509937 0.999879 
0.0137102 -0.00371783 0.999899 
0.0141918 0.000555874 0.999899 
0.0144806 0.00497186 0.999883 
0.0139343 0.00956762 0.999857 
0.0151377 0.0128128 0.999803 
0.0149029 0.0149749 0.999777 
0.0145816 0.0163545 0.99976 
0.0144991 0.0177863 0.999737 
0.0131489 0.0202396 0.999709 
0.0127132 0.0249066 0.999609 
0.0109068 0.0317784 0.999435 
0.00788955 0.0407958 0.999136 
0.00380176 0.0524551 0.998616 
-0.00205637 0.0652118 0.997869 
-0.00840511 0.0786804 0.996864 
-0.017304 0.0931967 0.995497 
-0.0283152 0.108084 0.993738 
-0.0415882 0.122676 0.991575 
-0.059996 0.137533 0.988678 
-0.0796586 0.151223 0.985285 
-0.120834 0.166979 0.978528 
-0.124843 0.173233 0.976936 
-0.100776 0.17775 0.978902 
-0.0992605 0.191984 0.976366 
-0.0729908 0.221437 0.972439 
-0.0840266 0.274201 0.957994 
-0.0692294 0.336082 0.939285 
-0.0340383 0.420306 0.906744 
-0.0210334 0.577891 0.815843 
-0.00989087 0.746628 0.665168 
-0.00398586 0.903647 0.42826 
0.000442323 0.998736 0.0502601 
0.00340326 0.965808 -0.259235 
0.0175717 0.813252 -0.581646 
0.0276024 0.604895 -0.795827 
0.0458845 0.417529 -0.907504 
0.0714305 0.318604 -0.945193 
0.0513237 0.252386 -0.966264 
0.10634 0.21794 -0.970151 
0.101438 0.191156 -0.976304 
0.122604 0.181542 -0.97571 
0.0983214 0.168195 -0.980838 
0.103247 0.162027 -0.98137 
0.0786843 0.147277 -0.985961 
0.0583488 0.132863 -0.989415 
0.0393486 0.116326 -0.992431 
0.0251311 0.101477 -0.99452 
0.0124351 0.0860793 -0.996211 
0.00515716 0.0726087 -0.997347 
-0.000650107 0.0600462 -0.998195 
-0.00499915 0.0484146 -0.998815 
-0.00861539 0.0382105 -0.999233 
-0.0115312 0.0302036 -0.999477 
-0.0130259 0.0236441 -0.999636 
-0.0143629 0.0193412 -0.99971 
-0.0148711 0.0166982 -0.99975 
-0.0150404 0.0149813 -0.999775 
-0.0150726 0.0134781 -0.999796 
-0.0151166 0.0118379 -0.999816 
-0.0147942 0.00973888 -0.999843 
-0.0152056 0.00684913 -0.999861 
-0.0130886 0.00391717 -0.999907 
-0.0144422 0.000481316 -0.999896 
-0.0147263 -0.00146379 -0.99989 
-0.0147576 -0.00200931 -0.999889 
-0.0156638 -0.00229254 -0.999875 
-0.014389 -0.00685798 -0.999873 
-0.0162682 -0.0171429 -0.999721 
-0.0138198 -0.0265041 -0.999553 
-0.00837238 -0.0234329 -0.99969 
0.00105819 -0.000614718 -0.999999 
0.000582138 -0.00172326 0.999998 
0.0107869 -0.0194814 0.999752 
0.016582 -0.0265819 0.999509 
0.0196592 -0.0179465 0.999646 
0.019644 -0.00648025 0.999786 
0.0189668 -0.00219809 0.999818 
0.0188043 -0.00180844 0.999822 
0.0175176 -0.00207141 0.999844 
0.0173105 -0.00231836 0.999847 
0.0161475 -0.000584205 0.999869 
0.0160672 0.00272902 0.999867 
0.0168713 0.00692884 0.999834 
0.0164922 0.0104119 0.99981 
0.0159695 0.0135406 0.999781 
0.0152811 0.0158238 0.999758 
0.0143834 0.018239 0.99973 
0.0146483 0.0213147 0.999666 
0.0133519 0.0259954 0.999573 
0.0102472 0.0328459 0.999408 
0.00465274 0.0425385 0.999084 
-0.00289406 0.055017 0.998481 
-0.0139862 0.0702652 0.99743 
-0.024891 0.08566 0.996013 
-0.0419666 0.103401 0.993754 
-0.0624829 0.122448 0.990506 
-0.0883101 0.142636 0.985828 
-0.12286 0.164007 0.978778 
-0.154071 0.180446 0.971443 
-0.241161 0.216133 0.946112 
-0.242148 0.207165 0.947865 
-0.225507 0.19903 0.953695 
-0.19822 0.202935 0.958919 
-0.274081 0.232927 0.933073 
-0.157622 0.230206 0.960292 
-0.144786 0.339928 0.929239 
-0.0921123 0.443032 0.891761 
-0.0574275 0.537234 0.841476 
-0.0099012 0.844345 0.535709 
-0.00273455 0.975022 0.222092 
0.00118916 0.994522 0.104522 
0.0149966 0.912384 -0.409061 
0.0357187 0.757546 -0.651804 
0.0611958 0.641653 -0.76455 
0.0795207 0.493284 -0.866226 
0.126245 0.356011 -0.925915 
0.137904 0.26496 -0.954347 
0.204685 0.220877 -0.953581 
0.23853 0.212632 -0.947571 
0.240795 0.207257 -0.948189 
0.216439 0.201412 -0.955295 
0.208214 0.201443 -0.957114 
0.166602 0.183951 -0.968714 
0.135032 0.169743 -0.976193 
0.0947719 0.145016 -0.98488 
0.0649184 0.12269 -0.99032 
0.039396 0.100872 -0.994119 
0.0236801 0.0840814 -0.996177 
0.0119526 0.0692418 -0.997528 
0.00337875 0.0556738 -0.998443 
-0.00293334 0.0439884 -0.999028 
-0.00700615 0.0345976 -0.999377 
-0.0116999 0.0265396 -0.999579 
-0.013726 0.0210401 -0.999684 
-0.0152088 0.0173656 -0.999734 
-0.0168292 0.0150981 -0.999744 
-0.017085 0.01298 -0.99977 
-0.0167763 0.0104672 -0.999804 
-0.0160277 0.00751345 -0.999843 
-0.0154968 0.00426137 -0.999871 
-0.0161896 0.00218458 -0.999867 
-0.0163179 0.000423331 -0.999867 
-0.0167804 0.00027582 -0.999859 
-0.0188435 -0.000425364 -0.999822 
-0.0194752 -0.00157322 -0.999809 
-0.0204402 -0.00678837 -0.999768 
-0.0203956 -0.0185542 -0.99962 
-0.0174727 -0.0276131 -0.999466 
-0.0108378 -0.0208636 -0.999724 
-0.000815392 -0.00170813 -0.999998 
0.000488788 -0.00091627 0.999999 
0.00841076 -0.0219189 0.999724 
0.010852 -0.0267286 0.999584 
0.0101768 -0.0158672 0.999822 
0.0102238 -0.00430058 0.999938 
0.0104904 -0.000512783 0.999945 
0.00812122 0.000724405 0.999967 
0.00532653 0.000547419 0.999986 
0.00614764 -0.00110292 0.99998 
0.00425188 -0.00146147 0.99999 
0.0051925 0.00141073 0.999986 
0.00682177 0.00580492 0.99996 
0.00564116 0.00993809 0.999935 
0.00421802 0.0135847 0.999899 
0.00298434 0.0165695 0.999858 
0.000411086 0.0200538 0.999799 
0.00213978 0.0238362 0.999714 
-0.000496384 0.0301837 0.999544 
-0.00542398 0.0390159 0.999224 
-0.013335 0.0509257 0.998613 
-0.0244487 0.0662575 0.997503 
-0.0405097 0.0859642 0.995474 
-0.0569275 0.105339 0.992806 
-0.0827792 0.131216 0.987892 
-0.117932 0.16175 0.97976 
-0.160817 0.192681 0.967994 
-0.215165 0.225239 0.950248 
-0.232856 0.226508 0.945765 
-0.321841 0.272547 0.906717 
-0.354066 0.265473 0.89675 
-0.34424 0.242693 0.906972 
-0.360827 0.237051 0.902004 
-0.329934 0.226783 0.916359 
-0.28472 0.254877 0.924106 
-0.188573 0.275906 0.942505 
-0.185483 0.382791 0.905023 
-0.13958 0.508977 0.849388 
-0.0380223 0.652168 0.75712 
-0.00485027 0.946229 0.323461 
0.00618703 0.986579 -0.16317 
0.034037 0.829145 -0.557996 
0.0853075 0.671937 -0.735679 
0.119223 0.54446 -0.83027 
0.15719 0.414764 -0.896249 
0.201862 0.295578 -0.933748 
0.237234 0.249851 -0.938773 
0.356763 0.240121 -0.902808 
0.355488 0.238393 -0.903768 
0.366925 0.254357 -0.894801 
0.323645 0.250171 -0.912507 
0.283107 0.243688 -0.927613 
0.275059 0.253263 -0.92747 
0.220656 0.227463 -0.948458 
0.167198 0.196977 -0.966046 
0.119562 0.16211 -0.979503 
0.0801517 0.127934 -0.988539 
0.0547672 0.102381 -0.993236 
0.035735 0.0809785 -0.996075 
0.0234524 0.0648492 -0.997619 
0.0149685 0.0515579 -0.998558 
0.00918746 0.0406602 -0.999131 
0.00214715 0.0303592 -0.999537 
-0.000935964 0.0235651 -0.999722 
-0.00343242 0.0185372 -0.999822 
-0.00538762 0.0151901 -0.99987 
-0.00515438 0.0124215 -0.99991 
-0.00393428 0.00914754 -0.99995 
-0.00465465 0.00516686 -0.999976 
-0.00424699 0.00154455 -0.99999 
-0.00693802 0.000168922 -0.999976 
-0.00512972 0.000256667 -0.999987 
-0.00474629 0.00198034 -0.999987 
-0.00940614 0.0016054 -0.999954 
-0.00941038 -0.000170735 -0.999956 
-0.0137057 -0.00494858 -0.999894 
-0.0122044 -0.0168479 -0.999784 
-0.011278 -0.0284912 -0.99953 
-0.00898617 -0.0225873 -0.999704 
-0.000537129 -0.00105438 -0.999999 
8.7079e-05 -0.000481771 1 
0.00349061 -0.0238537 0.999709 
0.00224324 -0.0278939 0.999608 
0.000851313 -0.0152268 0.999884 
0.00072677 -0.003282 0.999994 
-6.83744e-05 0.00143524 0.999999 
-0.00289207 0.0030984 0.999991 
-0.00429992 0.00177258 0.999989 
-0.00402205 -0.00162523 0.999991 
-0.00401318 -0.00288752 0.999988 
-0.00358199 -9.53414e-05 0.999994 
-0.00205986 0.00472085 0.999987 
-0.00286703 0.00948468 0.999951 
-0.00396565 0.0139245 0.999895 
-0.00500972 0.0176791 0.999831 
-0.007474 0.022726 0.999714 
-0.00876991 0.0279992 0.999569 
-0.0132472 0.036572 0.999243 
-0.0200392 0.04815 0.998639 
-0.0299843 0.063662 0.997521 
-0.0444503 0.0840448 0.99547 
-0.0657793 0.112142 0.991513 
-0.0918786 0.14249 0.985523 
-0.132455 0.18544 0.973688 
-0.184454 0.230405 0.955453 
-0.239316 0.266136 0.933756 
-0.305255 0.305984 0.901772 
-0.32565 0.297217 0.89756 
-0.432477 0.366033 0.824004 
-0.421517 0.3266 0.845965 
-0.438462 0.29426 0.849213 
-0.461587 0.275748 0.843149 
-0.477618 0.260431 0.839081 
-0.440247 0.255628 0.860719 
-0.3794 0.274232 0.883658 
-0.267686 0.3029 0.914656 
-0.242112 0.446494 0.861409 
-0.0814076 0.631406 0.771167 
-0.0321655 0.758119 0.651322 
0.00714893 0.996288 -0.0857873 
0.0470903 0.832126 -0.552584 
0.166056 0.567789 -0.806251 
0.212109 0.428937 -0.878079 
0.245945 0.334275 -0.909819 
0.321139 0.286059 -0.902796 
0.350642 0.258163 -0.900223 
0.470223 0.263472 -0.842302 
0.452931 0.275967 -0.847759 
0.441805 0.309527 -0.842022 
0.383183 0.300747 -0.87334 
0.407766 0.346885 -0.844629 
0.341099 0.31995 -0.883902 
0.291235 0.301054 -0.908047 
0.230145 0.262894 -0.936974 
0.167622 0.214892 -0.962146 
0.114862 0.164982 -0.979586 
0.0804006 0.127987 -0.988512 
0.0554882 0.0979667 -0.993642 
0.03996 0.0773784 -0.996201 
0.0283734 0.0606044 -0.997759 
0.0190971 0.0460257 -0.998758 
0.0121708 0.0343837 -0.999335 
0.00823773 0.0260395 -0.999627 
0.00594071 0.0202861 -0.999777 
0.00380714 0.0158755 -0.999867 
0.00348208 0.0123283 -0.999918 
0.0031072 0.00772105 -0.999965 
0.00324793 0.00302506 -0.99999 
0.00346119 -0.000618902 -0.999994 
0.00286773 -0.00180234 -0.999994 
0.00450883 -0.00111685 -0.999989 
0.0046037 0.0020434 -0.999987 
0.0018931 0.00361382 -0.999992 
1.26017e-05 0.00133181 -0.999999 
-0.0032284 -0.0045983 -0.999984 
-0.00252861 -0.017571 -0.999842 
-0.00300556 -0.0282949 -0.999595 
-0.00406748 -0.0216663 -0.999757 
-8.36126e-05 -0.00120571 -0.999999 
-0.000773738 -0.000911487 0.999999 
-0.000339998 -0.0159496 0.999873 
-0.00194446 -0.0272015 0.999628 
-0.00239551 -0.0207243 0.999782 
-0.00308493 -0.00542363 0.999981 
-0.0043625 0.00238789 0.999988 
-0.00607208 0.00488641 0.99997 
-0.00672125 0.00341692 0.999972 
-0.00615094 -0.00168833 0.99998 
-0.00499836 -0.00481526 0.999976 
-0.00402421 -0.0034397 0.999986 
-0.00360904 0.00164606 0.999992 
-0.00345002 0.00709539 0.999969 
-0.00376263 0.0127567 0.999912 
-0.00448838 0.0177702 0.999832 
-0.00646718 0.0228647 0.999718 
-0.00992525 0.0308875 0.999474 
-0.0147248 0.0400937 0.999087 
-0.022308 0.0538447 0.9983 
-0.0327334 0.071661 0.996892 
-0.0472911 0.0947108 0.994381 
-0.0682025 0.126483 0.989621 
-0.098042 0.167146 0.981045 
-0.137871 0.215698 0.966678 
-0.193869 0.27512 0.94166 
-0.256679 0.32748 0.909325 
-0.315693 0.356438 0.879369 
-0.398555 0.421329 0.814638 
-0.401919 0.378308 0.833873 
-0.511807 0.409782 0.755071 
-0.496526 0.353295 0.792871 
-0.52559 0.323874 0.786677 
-0.567332 0.306989 0.764128 
-0.585239 0.289617 0.757375 
-0.571551 0.279613 0.771457 
-0.497551 0.292039 0.816797 
-0.304031 0.352187 0.885172 
-0.0741575 0.709255 0.70104 
-0.011998 0.855439 0.517764 
-0.000880666 0.983081 0.183171 
0.0205316 0.947862 -0.31802 
0.290497 0.436315 -0.85161 
0.306872 0.405094 -0.861237 
0.372507 0.305636 -0.876256 
0.467964 0.264531 -0.843228 
0.518306 0.260582 -0.814528 
0.566017 0.313872 -0.762305 
0.507256 0.321281 -0.799668 
0.488013 0.356872 -0.796547 
0.492605 0.397308 -0.774265 
0.479472 0.441126 -0.758627 
0.413089 0.41295 -0.811683 
0.346309 0.383988 -0.855934 
0.271856 0.333741 -0.902614 
0.209897 0.288836 -0.934086 
0.147446 0.221538 -0.96394 
0.102465 0.169866 -0.980126 
0.0704961 0.126509 -0.989457 
0.0500599 0.098217 -0.993905 
0.0353256 0.0758739 -0.996491 
0.0238515 0.0572219 -0.998077 
0.0151764 0.0417241 -0.999014 
0.0101765 0.0309791 -0.999468 
0.00682593 0.0233921 -0.999703 
0.00493903 0.0176976 -0.999831 
0.0032788 0.0134509 -0.999904 
0.00252182 0.00809165 -0.999964 
0.00200557 0.00197061 -0.999996 
0.00326153 -0.00285715 -0.999991 
0.00501341 -0.00427186 -0.999978 
0.00561862 -0.00303097 -0.99998 
0.00588074 0.00204513 -0.999981 
0.00505485 0.00522695 -0.999974 
0.00377396 0.00342226 -0.999987 
0.0016564 -0.00311223 -0.999994 
0.000995978 -0.0161662 -0.999869 
0.000142371 -0.0279268 -0.99961 
-0.000485405 -0.0213279 -0.999772 
0.00016493 -0.00125631 -0.999999 
-0.000205136 -0.00087224 1 
-0.00212876 -0.0193419 0.999811 
-0.00287837 -0.0256734 0.999666 
-0.00367118 -0.0119338 0.999922 
-0.00466322 0.00137299 0.999988 
-0.00523097 0.0058342 0.999969 
-0.00486995 0.00521643 0.999975 
-0.00392399 0.000269179 0.999992 
-0.00125117 -0.00575515 0.999983 
0.000287784 -0.00716956 0.999974 
0.00128393 -0.00350471 0.999993 
0.00216052 0.00254132 0.999994 
0.00167731 0.00945047 0.999954 
0.0015339 0.0156522 0.999876 
0.000442969 0.0220174 0.999757 
-0.003475 0.0287939 0.999579 
-0.00642945 0.039364 0.999204 
-0.0130547 0.0518166 0.998571 
-0.0214778 0.0694654 0.997353 
-0.0339018 0.0920519 0.995177 
-0.0514733 0.122289 0.991159 
-0.0770781 0.166129 0.983087 
-0.113092 0.221095 0.968673 
-0.165214 0.286983 0.943581 
-0.232127 0.368001 0.900385 
-0.301188 0.421624 0.855289 
-0.371849 0.460415 0.806068 
-0.441067 0.538954 0.717627 
-0.479335 0.497708 0.722859 
-0.495335 0.462934 0.735075 
-0.584631 0.440246 0.681462 
-0.572153 0.387456 0.722855 
-0.610262 0.36153 0.704895 
-0.667124 0.337724 0.663994 
-0.679436 0.299583 0.669788 
-0.594356 0.303408 0.744771 
-0.388733 0.309455 0.867827 
-0.183002 0.593994 0.783378 
-0.00568946 0.918453 0.395488 
0.0397352 0.932425 -0.359171 
0.0508401 0.862349 -0.503756 
0.230142 0.351402 -0.907497 
0.539178 0.296067 -0.788436 
0.450235 0.285661 -0.845982 
0.608828 0.295806 -0.736089 
0.614183 0.358678 -0.702943 
0.579859 0.381586 -0.71983 
0.576525 0.421584 -0.699918 
0.559129 0.461177 -0.688978 
0.566718 0.516498 -0.64192 
0.479005 0.507331 -0.716358 
0.422975 0.49084 -0.761688 
0.351222 0.449744 -0.821203 
0.287679 0.410769 -0.865165 
0.213219 0.343323 -0.914695 
0.15177 0.267154 -0.951627 
0.103785 0.20277 -0.973711 
0.0712581 0.152757 -0.985691 
0.0482269 0.116706 -0.991995 
0.0317585 0.0881357 -0.995602 
0.0194849 0.0641711 -0.997749 
0.0105326 0.0475404 -0.998814 
0.00501955 0.034601 -0.999389 
0.00118996 0.0257305 -0.999668 
-0.000888284 0.0193862 -0.999812 
-0.00280818 0.0135415 -0.999904 
-0.00331203 0.00741951 -0.999967 
-0.00399672 0.000520144 -0.999992 
-0.0024109 -0.00490589 -0.999985 
0.00049874 -0.00678086 -0.999977 
0.00119281 -0.00478262 -0.999988 
0.00258186 0.00151858 -0.999996 
0.00427966 0.00619847 -0.999972 
0.00384755 0.00542564 -0.999978 
0.00299455 -0.00130137 -0.999995 
0.0017957 -0.0151349 -0.999884 
0.00107362 -0.0275091 -0.999621 
0.00129261 -0.0209155 -0.99978 
0.000270184 -0.0012775 -0.999999 
-8.51129e-05 -0.00126317 0.999999 
-0.00155873 -0.0204208 0.99979 
-0.00203171 -0.0262633 0.999653 
-0.00247389 -0.0128723 0.999914 
-0.00249384 0.00107446 0.999996 
-0.00135752 0.00626364 0.999979 
7.37623e-05 0.00550405 0.999985 
0.00252577 -0.000974122 0.999996 
0.00532051 -0.00759176 0.999957 
0.00801801 -0.00965836 0.999921 
0.00905966 -0.00606101 0.999941 
0.0111683 0.00090717 0.999937 
0.0108843 0.00876523 0.999902 
0.0106556 0.0157173 0.99982 
0.0094678 0.0226006 0.9997 
0.00598273 0.0311637 0.999496 
0.00330614 0.0423423 0.999098 
-0.00307982 0.0577191 0.998328 
-0.0110045 0.0774343 0.996937 
-0.0237936 0.103285 0.994367 
-0.0426263 0.13996 0.989239 
-0.0682174 0.189135 0.979579 
-0.106441 0.259192 0.959943 
-0.162532 0.339696 0.926385 
-0.230099 0.438152 0.868952 
-0.299661 0.502763 0.810822 
-0.36712 0.535601 0.760496 
-0.426749 0.611799 0.666024 
-0.493917 0.63067 0.598583 
-0.524161 0.588382 0.61568 
-0.571751 0.571172 0.588951 
-0.554305 0.490944 0.672101 
-0.642835 0.42889 0.634678 
-0.676952 0.389415 0.624573 
-0.710137 0.309778 0.632252 
-0.676419 0.31366 0.66639 
-0.469582 0.32463 0.821041 
-0.387656 0.333182 0.859484 
-0.0145749 0.803431 0.59522 
0.00830251 0.995198 -0.0975311 
0.0827753 0.709871 -0.699451 
0.3466 0.326651 -0.879299 
0.523197 0.298549 -0.798207 
0.586541 0.27141 -0.76309 
0.679101 0.351569 -0.644377 
0.720851 0.42199 -0.549817 
0.647224 0.463143 -0.605475 
0.636836 0.503286 -0.584075 
0.63555 0.551182 -0.540624 
0.542755 0.542176 -0.641454 
0.495618 0.583794 -0.643076 
0.420046 0.55021 -0.721686 
0.373121 0.555719 -0.742938 
0.313651 0.50903 -0.801568 
0.235608 0.432114 -0.870498 
0.166088 0.346621 -0.923184 
0.112519 0.26289 -0.958242 
0.0719193 0.194011 -0.97836 
0.0453368 0.145526 -0.988315 
0.0266989 0.108528 -0.993735 
0.0144254 0.0799856 -0.996692 
0.00430605 0.0590897 -0.998243 
-0.00258878 0.0426788 -0.999085 
-0.00736044 0.031023 -0.999492 
-0.0104793 0.0224494 -0.999693 
-0.0115373 0.0156557 -0.999811 
-0.0124878 0.00835624 -0.999887 
-0.0126512 7.70376e-05 -0.99992 
-0.0112407 -0.00687505 -0.999913 
-0.00750449 -0.00928767 -0.999929 
-0.00663183 -0.00766622 -0.999949 
-0.00417026 -0.000689197 -0.999991 
-0.00021177 0.00586827 -0.999983 
0.000483966 0.00629165 -0.99998 
0.00168764 0.00110772 -0.999998 
0.000877392 -0.0116761 -0.999931 
0.000371463 -0.0250652 -0.999686 
0.000820572 -0.0205143 -0.999789 
3.7475e-05 -0.00115541 -0.999999 
0.000187468 -0.00146472 0.999999 
-0.000151516 -0.0202466 0.999795 
-0.000101324 -0.0250636 0.999686 
0.00026806 -0.0115341 0.999933 
0.00167766 0.00160347 0.999997 
0.00416486 0.00600706 0.999973 
0.0066431 0.00377687 0.999971 
0.00988546 -0.00349439 0.999945 
0.0123906 -0.0105213 0.999868 
0.0149779 -0.0119141 0.999817 
0.0163028 -0.00705734 0.999842 