# vtk DataFile Version 3.0 
Exported using Morpho https://github.com/Morpho-lang/morpho 
ASCII 
DATASET UNSTRUCTURED_GRID 

POINTS 1978 float 
-12 -4 1.13363e-09 
-11.6408 -4 2.16146e-09 
-11.2942 -4 4.05682e-11 
-10.9743 -4 1.0436e-09 
-10.6741 -4 5.22069e-10 
-10.3509 -4 -7.6623e-10 
-10.0207 -4 -7.72331e-10 
-9.68858 -4 -1.90226e-10 
-9.32689 -4 1.01429e-10 
-9.0033 -4 -1.78781e-11 
-8.69537 -4 -5.55307e-10 
-8.35938 -4 -9.80521e-10 
-8.06307 -4 -1.33374e-09 
-7.76804 -4 -1.46184e-09 
-7.46603 -4 -1.77857e-09 
-7.18891 -4 -2.18424e-09 
-6.87147 -4 -2.6098e-09 
-6.56987 -4 -2.57368e-09 
-6.27587 -4 -2.95383e-09 
-5.97827 -4 -3.23983e-09 
-5.68243 -4 -3.5974e-09 
-5.39087 -4 -3.89254e-09 
-5.09395 -4 -3.62305e-09 
-4.79768 -4 -3.58344e-09 
-4.49469 -4 -1.94251e-09 
-4.18979 -4 -8.8695e-10 
-3.87409 -4 4.18129e-09 
-3.51985 -4 1.36888e-08 
-3.13908 -4 1.41799e-08 
-2.82709 -4 1.47056e-08 
-2.54238 -4 2.72759e-08 
-2.21231 -4 2.88508e-08 
-1.94156 -4 2.63905e-08 
-1.629 -4 3.37266e-08 
-1.40396 -4 3.69841e-08 
-1.08597 -4 5.82808e-09 
-0.809859 -4 2.65757e-09 
-0.511189 -4 -1.42828e-08 
-0.28105 -4 -2.15122e-08 
0.0578665 -4 4.01234e-08 
0.313874 -4 8.11984e-09 
0.544884 -4 1.00999e-08 
0.803711 -4 -1.9219e-08 
1.09404 -4 -2.96881e-08 
1.3803 -4 -2.33282e-08 
1.60788 -4 -2.92755e-08 
1.94433 -4 -3.51721e-08 
2.17473 -4 -2.81108e-08 
2.4867 -4 -2.80067e-08 
2.79802 -4 -2.43193e-08 
3.2064 -4 -1.9964e-08 
3.57237 -4 -1.05928e-08 
3.91924 -4 -4.73819e-09 
4.23852 -4 -5.4557e-10 
4.52996 -4 2.68528e-09 
4.80845 -4 3.63363e-09 
5.10409 -4 3.9936e-09 
5.39159 -4 4.13382e-09 
5.68138 -4 3.69575e-09 
5.98122 -4 2.98626e-09 
6.28086 -4 2.84724e-09 
6.56149 -4 2.39367e-09 
6.85963 -4 2.05029e-09 
7.14254 -4 2.14762e-09 
7.4332 -4 1.91619e-09 
7.74721 -4 1.53819e-09 
8.05744 -4 1.42972e-09 
8.36611 -4 8.67783e-10 
8.67648 -4 5.85185e-10 
8.95582 -4 1.98561e-10 
9.31163 -4 2.72822e-10 
9.62012 -4 1.28274e-10 
9.92401 -4 7.90139e-10 
10.2726 -4 7.779e-10 
10.5841 -4 -7.04524e-11 
10.9762 -4 -1.1815e-09 
11.3026 -4 -9.03085e-10 
11.6427 -4 -1.97195e-09 
12 -4 -7.40367e-10 
-12 -3.6892 -2.02702e-09 
-11.652 -3.67457 4.34732e-11 
-11.3233 -3.66954 -2.9412e-10 
-10.9964 -3.65637 -1.0823e-09 
-10.6764 -3.63653 -7.0268e-10 
-10.3702 -3.67584 -2.8139e-10 
-10.0463 -3.66961 -8.51831e-11 
-9.72133 -3.68048 2.99319e-11 
-9.38813 -3.70426 3.21064e-11 
-9.04973 -3.67533 2.342e-11 
-8.7457 -3.66706 1.76136e-10 
-8.43139 -3.69526 2.34417e-10 
-8.1093 -3.65433 5.13458e-10 
-7.80363 -3.65344 5.99449e-10 
-7.49929 -3.66274 8.3178e-10 
-7.19542 -3.63875 1.01093e-09 
-6.90076 -3.68896 1.02383e-09 
-6.5875 -3.68326 1.43761e-09 
-6.27874 -3.67904 1.75607e-09 
-5.97856 -3.68219 2.16717e-09 
-5.68137 -3.67597 2.7516e-09 
-5.39053 -3.67326 2.58695e-09 
-5.09119 -3.67966 3.10673e-09 
-4.78638 -3.67088 2.86623e-09 
-4.47065 -3.65756 2.62981e-09 
-4.14009 -3.64211 5.16953e-09 
-3.79067 -3.63016 5.69725e-09 
-3.40266 -3.64948 -5.96618e-09 
-3.07268 -3.55858 1.55596e-08 
-2.75959 -3.61521 2.83856e-10 
-2.4659 -3.71406 3.91653e-09 
-2.16775 -3.73133 7.78864e-09 
-1.86932 -3.8095 -8.28717e-09 
-1.61241 -3.77042 3.42158e-08 
-1.37904 -3.79915 -2.21176e-08 
-1.17852 -3.86665 4.8858e-09 
-0.920796 -3.87624 2.31779e-08 
-0.646649 -3.89458 1.30418e-08 
-0.37435 -3.86855 1.09741e-09 
-0.050889 -3.90212 6.77066e-08 
0.200679 -3.87369 -5.29186e-10 
0.518587 -3.8384 4.86616e-09 
0.845653 -3.85185 2.37699e-08 
1.17299 -3.82166 5.21073e-10 
1.44026 -3.76801 -1.29878e-08 
1.73195 -3.84143 -2.41181e-08 
1.95401 -3.71806 -1.28145e-10 
2.24326 -3.73514 5.18439e-09 
2.51291 -3.65987 -1.07835e-08 
2.85429 -3.69967 5.32214e-09 
3.18178 -3.63299 2.6019e-09 
3.54018 -3.63018 -3.40058e-09 
3.89673 -3.62552 -3.3542e-09 
4.23616 -3.63615 -4.17348e-09 
4.55201 -3.65285 -3.85029e-09 
4.86797 -3.68962 -3.69657e-09 
5.17469 -3.68387 -3.08584e-09 
5.47631 -3.67946 -2.82995e-09 
5.77709 -3.6776 -2.19919e-09 
6.07786 -3.66855 -2.00231e-09 
6.36689 -3.64156 -1.87701e-09 
6.66561 -3.66677 -1.42012e-09 
6.96093 -3.65215 -1.16082e-09 
7.25152 -3.66186 -9.1382e-10 
7.55347 -3.68025 -7.57395e-10 
7.85529 -3.66721 -5.56905e-10 
8.15072 -3.6582 -4.76495e-10 
8.44611 -3.65658 -3.08627e-10 
8.73052 -3.62349 -2.21639e-10 
9.05207 -3.70668 -2.6095e-11 
9.36878 -3.66383 -5.14758e-11 
9.68353 -3.65735 -5.18266e-11 
10.0214 -3.69959 3.40931e-11 
10.3477 -3.6525 3.04621e-10 
10.6959 -3.71468 4.86192e-10 
11.0253 -3.65106 7.71759e-10 
11.3488 -3.65914 3.72236e-10 
11.6821 -3.67727 1.83503e-10 
12 -3.6484 1.10676e-09 
-12 -3.38174 -1.18513e-10 
-11.6846 -3.33202 -9.49767e-10 
-11.3544 -3.33066 -2.91583e-10 
-11.0161 -3.31784 -8.40233e-10 
-10.6808 -3.30439 -1.02137e-09 
-10.3416 -3.33777 -4.67096e-10 
-10.004 -3.34119 -2.12004e-10 
-9.68088 -3.34023 -1.57133e-10 
-9.37929 -3.38864 -2.77185e-12 
-9.08466 -3.32797 1.28905e-10 
-8.78649 -3.32119 2.00585e-10 
-8.48243 -3.36947 4.07387e-10 
-8.16705 -3.33584 6.36479e-10 
-7.84284 -3.31747 8.32519e-10 
-7.52843 -3.32078 9.32151e-10 
-7.23213 -3.28238 1.26547e-09 
-6.93616 -3.34918 1.4925e-09 
-6.63767 -3.35897 2.04257e-09 
-6.33561 -3.36132 2.66911e-09 
-6.03442 -3.35884 2.98818e-09 
-5.74016 -3.3539 3.62161e-09 
-5.44308 -3.33319 3.7214e-09 
-5.15102 -3.35029 4.90334e-09 
-4.84852 -3.33589 3.39221e-09 
-4.53298 -3.31707 4.62133e-09 
-4.20873 -3.30391 5.9365e-09 
-3.86601 -3.29006 2.41803e-09 
-3.47836 -3.32603 1.18617e-08 
-3.11893 -3.22083 -9.61037e-09 
-2.79668 -3.31117 -5.16337e-10 
-2.46856 -3.41963 4.82783e-09 
-2.19556 -3.50473 1.30963e-08 
-1.95312 -3.37929 3.1734e-08 
-1.87271 -3.60176 4.88587e-08 
-1.36444 -3.60289 3.48446e-08 
-1.14716 -3.6651 6.80731e-08 
-0.973518 -3.72172 3.59683e-08 
-0.491786 -3.7892 6.51599e-08 
-0.196403 -3.83874 -3.12128e-08 
-0.0872264 -3.71557 -9.03843e-09 
0.346488 -3.75464 -3.53526e-08 
0.619782 -3.70223 -2.60473e-08 
0.796847 -3.63769 -5.80707e-08 
1.02522 -3.67986 1.13943e-08 
1.30725 -3.593 -4.74966e-08 
1.65387 -3.62895 -9.40077e-09 
2.00569 -3.48701 -4.82736e-08 
2.24078 -3.42797 -5.96027e-09 
2.56642 -3.38484 -8.20785e-09 
2.86227 -3.38157 -4.35486e-09 
3.17612 -3.32101 1.01367e-08 
3.51258 -3.29769 -4.42661e-09 
3.85036 -3.25966 -2.20229e-09 
4.18226 -3.2802 -6.22484e-09 
4.50681 -3.30281 -5.05958e-09 
4.81544 -3.35817 -4.68954e-09 
5.11313 -3.36591 -4.73881e-09 
5.4142 -3.36263 -4.35556e-09 
5.71563 -3.3525 -3.54634e-09 
6.01563 -3.33902 -2.8001e-09 
6.31248 -3.2999 -2.31926e-09 
6.61828 -3.3303 -1.94686e-09 
6.92202 -3.31968 -1.49551e-09 
7.22971 -3.32304 -1.14449e-09 
7.52703 -3.35069 -9.82326e-10 
7.82905 -3.33058 -8.30623e-10 
8.12829 -3.3071 -6.39399e-10 
8.41713 -3.2993 -4.25479e-10 
8.73291 -3.29639 -2.99808e-10 
9.051 -3.38085 -1.97905e-10 
9.37582 -3.33685 -1.02633e-10 
9.68656 -3.3142 2.09046e-11 
9.99977 -3.37862 8.47599e-11 
10.3256 -3.32667 3.77844e-10 
10.6732 -3.3889 1.00143e-09 
11.0117 -3.31967 9.90287e-10 
11.3511 -3.31174 5.06563e-10 
11.6776 -3.33803 6.92343e-10 
12 -3.30354 4.1658e-10 
-12 -3.03344 -3.17668e-10 
-11.6577 -2.99679 -4.9823e-10 
-11.3001 -3.00194 3.75258e-10 
-10.9737 -2.97368 -4.06264e-11 
-10.6245 -2.98011 -3.59659e-10 
-10.2903 -3.01345 -1.20371e-10 
-9.96119 -3.00372 -7.54797e-11 
-9.65493 -2.97683 -8.07247e-11 
-9.36375 -3.02354 2.24395e-11 
-9.06435 -2.97185 8.80011e-11 
-8.74646 -2.98721 1.93892e-11 
-8.43404 -3.0327 -1.32262e-11 
-8.11329 -3.00353 -1.06087e-10 
-7.80313 -2.98086 -2.11222e-10 
-7.49756 -2.97231 -2.74554e-10 
-7.19325 -2.9331 -5.11084e-10 
-6.89954 -3.01404 9.35545e-11 
-6.59375 -3.02681 1.02029e-10 
-6.29481 -3.03198 9.23346e-11 
-6.00417 -3.02416 -8.00585e-12 
-5.71367 -3.01697 -6.10403e-10 
-5.41698 -2.98786 -1.44128e-09 
-5.11524 -3.00419 -1.89724e-09 
-4.79066 -2.98972 -2.9782e-09 
-4.46097 -2.96604 -3.56652e-09 
-4.12411 -2.9774 -5.79086e-09 
-3.79983 -2.96089 -7.77338e-09 
-3.51151 -3.06077 -6.10056e-09 
-3.26676 -2.92935 9.17425e-09 
-2.96081 -3.01254 -8.47655e-09 
-2.66834 -3.12553 8.22623e-09 
-2.40555 -3.18324 -1.55594e-08 
-2.16488 -3.26381 2.60688e-08 
-1.72793 -3.38967 -2.94146e-08 
-1.5979 -3.56195 -2.10358e-08 
-1.19791 -3.47065 4.86286e-08 
-0.975784 -3.51126 -1.65045e-08 
-0.773525 -3.7588 -4.553e-08 
-0.285006 -3.68468 2.36922e-08 
0.112516 -3.75453 -1.20922e-08 
0.491922 -3.59447 -3.69111e-08 
0.701514 -3.44471 6.07166e-10 
0.911705 -3.46886 -1.59893e-08 
1.12833 -3.48429 5.8946e-08 
1.49243 -3.45231 -4.72638e-08 
1.76884 -3.44876 2.6286e-08 
2.01459 -3.237 -3.89245e-08 
2.33293 -3.2192 3.16121e-09 
2.66641 -3.13155 1.22912e-08 
2.95097 -3.10552 -5.42881e-09 
3.27196 -3.06881 6.46412e-09 
3.51296 -2.94353 5.99251e-09 
3.79183 -2.94345 5.33649e-09 
4.12673 -2.93343 5.19724e-09 
4.46597 -2.94802 3.54446e-09 
4.79385 -3.0057 2.79532e-09 
5.10334 -3.0223 1.6795e-09 
5.40274 -3.03571 4.02177e-10 
5.70664 -3.02196 3.09556e-10 
6.00186 -3.00038 4.09722e-10 
6.30149 -2.96343 5.59935e-10 
6.60741 -2.99746 9.37032e-11 
6.91677 -2.99006 1.79137e-10 
7.22761 -2.99858 8.88e-11 
7.53898 -3.01699 6.13789e-11 
7.84329 -2.98984 1.67264e-10 
8.12764 -2.94791 2.05398e-10 
8.4409 -2.96829 6.14591e-11 
8.75487 -2.97207 -1.84621e-11 
9.07233 -3.05773 -8.28737e-11 
9.38395 -2.99797 -3.17954e-11 
9.68714 -2.96101 1.00475e-10 
9.99889 -3.03914 1.08804e-10 
10.3086 -2.9752 1.02346e-10 
10.6318 -3.06491 5.93725e-10 
10.9661 -2.98868 1.53404e-10 
11.3049 -2.97874 -5.9673e-10 
11.6495 -2.99852 4.34108e-10 
12 -2.9865 8.53643e-10 
-12 -2.70194 -1.4652e-11 
-11.627 -2.68926 2.06043e-12 
-11.3122 -2.64424 6.60487e-10 
-10.971 -2.63839 4.8906e-10 
-10.6281 -2.65395 6.3115e-11 
-10.2825 -2.67803 -2.54433e-11 
-9.96835 -2.65091 -7.41262e-11 
-9.64087 -2.63814 5.39068e-13 
-9.3272 -2.65139 3.77169e-11 
-9.00743 -2.63733 3.28921e-11 
-8.69768 -2.64196 -3.46026e-11 
-8.39751 -2.69863 -1.43927e-10 
-8.09325 -2.65758 -2.85567e-10 
-7.78333 -2.6425 -4.90455e-10 
-7.48435 -2.63016 -5.70221e-10 
-7.1537 -2.61169 -8.92116e-10 
-6.84675 -2.68182 -8.66651e-10 
-6.54824 -2.6885 -1.16464e-09 
-6.25762 -2.68886 -1.51263e-09 
-5.96634 -2.68038 -1.91915e-09 
[...]
POINT_DATA 1978 
VECTORS vectors float
0.000361042 -0.00460653 0.999991 
0.00467256 -0.0296446 0.99955 
0.00523457 -0.025882 0.999652 
0.00328574 -0.0121692 0.999921 
0.00383131 -0.00410528 0.999985 
0.00447274 -0.00258961 0.999987 
0.00430463 -0.00562534 0.999975 
0.00499982 -0.00780808 0.999957 
0.00477354 -0.00447087 0.999979 
0.00370178 0.00175872 0.999992 
0.00425363 0.00743517 0.999964 
0.00416038 0.0120186 0.99992 
0.00319616 0.0144849 0.999891 
0.0035059 0.0160252 0.999866 
0.00326125 0.0169633 0.999852 
0.0031891 0.0182078 0.99983 
0.00393125 0.0204126 0.999784 
0.00357306 0.023726 0.999713 
0.00321986 0.0301051 0.999542 
0.00323628 0.0393919 0.999219 
0.0031189 0.0500901 0.99874 
0.00305859 0.0630685 0.998005 
0.00308472 0.0773357 0.997001 
0.00303685 0.089622 0.995972 
0.00298562 0.102752 0.994703 
0.0030995 0.114525 0.993416 
0.00359115 0.125937 0.992032 
0.00373216 0.137 0.990564 
0.00335531 0.148392 0.988923 
0.00214779 0.156571 0.987665 
0.00202461 0.165131 0.98627 
0.00170629 0.181556 0.983379 
0.00143667 0.204398 0.978887 
0.000981334 0.266491 0.963837 
0.00054817 0.331771 0.94336 
0.000356898 0.471527 0.881852 
0.000125192 0.633453 0.773781 
6.84319e-06 0.834029 0.551721 
3.16807e-05 0.943857 0.330354 
-4.65193e-05 0.996067 -0.088609 
-4.01582e-05 0.929854 -0.367929 
-3.29758e-05 0.801629 -0.597823 
-0.000136622 0.629931 -0.776651 
-0.00033894 0.468327 -0.883555 
-0.000414367 0.342929 -0.939361 
-0.00112287 0.274861 -0.961484 
-0.00138017 0.217352 -0.976093 
-0.00120147 0.192186 -0.981358 
-0.00181771 0.172838 -0.984949 
-0.00314338 0.159294 -0.987226 
-0.00366738 0.143685 -0.989617 
-0.00356114 0.134097 -0.990962 
-0.00339148 0.122192 -0.992501 
-0.00304906 0.110377 -0.993885 
-0.00244244 0.0970926 -0.995273 
-0.00265206 0.0853594 -0.996347 
-0.0029242 0.0732016 -0.997314 
-0.00281337 0.0615275 -0.998102 
-0.00318963 0.0505934 -0.998715 
-0.00353292 0.0402859 -0.999182 
-0.00302856 0.0313722 -0.999504 
-0.00305526 0.0246511 -0.999692 
-0.00312568 0.0198084 -0.9998 
-0.0029487 0.0170372 -0.999851 
-0.00361919 0.0155585 -0.999873 
-0.00404274 0.0146867 -0.999884 
-0.00391783 0.0139457 -0.999896 
-0.00385605 0.0122894 -0.999918 
-0.00307219 0.00942625 -0.999952 
-0.00419213 0.00589011 -0.999974 
-0.00458462 0.000450596 -0.99999 
-0.00350063 -0.00336085 -0.999989 
-0.00438465 -0.00354224 -0.999984 
-0.00434497 -0.0014215 -0.99999 
-0.00493472 -0.00361677 -0.999981 
-0.0048079 -0.0132955 -0.9999 
-0.00505827 -0.0278638 -0.999599 
-0.00441271 -0.0301527 -0.999536 
-0.000228274 -0.00528046 -0.999988 
-0.000608044 -0.00379779 0.999991 
0.00870058 -0.0235475 0.999685 
0.0136741 -0.0251647 0.99959 
0.0169326 -0.0153882 0.999738 
0.0170664 -0.00625188 0.999835 
0.0157248 -0.00340687 0.999871 
0.0161626 -0.00428245 0.99986 
0.0147377 -0.00510465 0.999879 
0.0137293 -0.00372203 0.999899 
0.0142134 0.00055538 0.999899 
0.0145014 0.00497317 0.999883 
0.0139542 0.00957165 0.999857 
0.0151612 0.012818 0.999803 
0.0149246 0.0149794 0.999777 
0.0146043 0.0163565 0.99976 
0.014521 0.0177856 0.999737 
0.0131696 0.0202373 0.999709 
0.0127367 0.0249054 0.999609 
0.0109296 0.0317777 0.999435 
0.00791148 0.0407948 0.999136 
0.00382358 0.0524568 0.998616 
-0.00203877 0.0652118 0.997869 
-0.0083881 0.078682 0.996865 
-0.0172891 0.0931989 0.995498 
-0.0283023 0.108087 0.993739 
-0.0415664 0.122676 0.991576 
-0.0599635 0.137529 0.988681 
-0.0796832 0.151228 0.985282 
-0.120761 0.166964 0.97854 
-0.12484 0.173239 0.976936 
-0.100758 0.177761 0.978902 
-0.0992441 0.191978 0.976368 
-0.0730044 0.221417 0.972443 
-0.0839675 0.274226 0.957993 
-0.0692372 0.336039 0.9393 
-0.0340162 0.420259 0.906767 
-0.0210162 0.577993 0.815772 
-0.00988388 0.746646 0.665148 
-0.00398124 0.903618 0.428321 
0.000443235 0.998733 0.0503166 
0.00339551 0.965802 -0.259257 
0.017598 0.813153 -0.581786 
0.0275948 0.604823 -0.795882 
0.045873 0.417473 -0.907531 
0.071411 0.318611 -0.945192 
0.0512766 0.252405 -0.966262 
0.106338 0.217946 -0.970151 
0.101442 0.191152 -0.976305 
0.122561 0.181539 -0.975717 
0.098319 0.168202 -0.980837 
0.103242 0.162024 -0.981371 
0.0786598 0.147277 -0.985963 
0.0583301 0.132862 -0.989417 
0.0393324 0.116322 -0.992433 
0.025115 0.101481 -0.994521 
0.0124167 0.0860807 -0.996211 
0.005139 0.0726099 -0.997347 
-0.00067003 0.0600472 -0.998195 
-0.00501886 0.0484146 -0.998815 
-0.00863714 0.0382094 -0.999233 
-0.0115553 0.030202 -0.999477 
-0.0130495 0.0236426 -0.999635 
-0.014386 0.0193403 -0.99971 
-0.014894 0.0166988 -0.99975 
-0.0150639 0.0149831 -0.999774 
-0.0150931 0.0134802 -0.999795 
-0.0151379 0.0118407 -0.999815 
-0.0148142 0.00974244 -0.999843 
-0.015228 0.00685243 -0.999861 
-0.0131066 0.00391988 -0.999907 
-0.0144633 0.00048058 -0.999895 
-0.0147465 -0.00146658 -0.99989 
-0.0147802 -0.00201047 -0.999889 
-0.015683 -0.00228785 -0.999875 
-0.0144083 -0.00685141 -0.999873 
-0.0162935 -0.0171472 -0.99972 
-0.0138417 -0.0265269 -0.999552 
-0.00839043 -0.0234701 -0.999689 
0.00111046 -0.006227 -0.999979 
0.000581422 -0.00786567 0.999969 
0.0108062 -0.0195011 0.999752 
0.0166065 -0.0266156 0.999508 
0.0196899 -0.0179597 0.999645 
0.0196707 -0.00647073 0.999786 
0.0189908 -0.00219232 0.999817 
0.0188323 -0.00180721 0.999821 
0.0175428 -0.00207148 0.999844 
0.0173354 -0.00232169 0.999847 
0.0161695 -0.000587825 0.999869 
0.0160902 0.00272877 0.999867 
0.0168953 0.0069302 0.999833 
0.0165163 0.0104136 0.99981 
0.0159943 0.0135434 0.99978 
0.0153034 0.0158255 0.999758 
0.0144081 0.0182396 0.99973 
0.0146728 0.0213141 0.999665 
0.0133792 0.0259944 0.999573 
0.0102756 0.0328429 0.999408 
0.00467782 0.0425354 0.999084 
-0.00286994 0.0550156 0.998482 
-0.0139673 0.0702665 0.997431 
-0.0248709 0.0856646 0.996014 
-0.0419559 0.103407 0.993754 
-0.0624665 0.122449 0.990507 
-0.088288 0.142631 0.985831 
-0.122836 0.164 0.978783 
-0.154018 0.180435 0.971454 
-0.241181 0.21615 0.946103 
-0.242123 0.207162 0.947871 
-0.225479 0.199022 0.953703 
-0.198189 0.202934 0.958926 
-0.273959 0.232929 0.933108 
-0.157537 0.230239 0.960298 
-0.14475 0.339957 0.929235 
-0.0920557 0.443118 0.891725 
-0.0573906 0.537243 0.841472 
-0.00989131 0.844406 0.535612 
-0.00274292 0.975041 0.222009 
0.00118801 0.994508 0.104658 
0.0149843 0.912444 -0.40893 
0.0357113 0.757644 -0.651691 
0.0611644 0.64178 -0.764446 
0.0795437 0.493305 -0.866212 
0.126203 0.356043 -0.925908 
0.137876 0.264948 -0.954355 
0.204556 0.220864 -0.953613 
0.238529 0.212641 -0.94757 
0.240751 0.207248 -0.948202 
0.216406 0.201409 -0.955303 
0.208258 0.201473 -0.957098 
0.166555 0.183924 -0.968727 
0.135023 0.169747 -0.976194 
0.0947449 0.145009 -0.984884 
0.0649004 0.122691 -0.990321 
0.0393777 0.100872 -0.99412 
0.0236593 0.0840825 -0.996178 
0.0119304 0.0692436 -0.997529 
0.00335549 0.0556748 -0.998443 
-0.0029563 0.0439882 -0.999028 
-0.00703011 0.0345961 -0.999377 
-0.0117245 0.0265372 -0.999579 
-0.0137506 0.0210388 -0.999684 
-0.0152316 0.0173652 -0.999733 
-0.0168536 0.0150998 -0.999744 
-0.0171108 0.0129827 -0.999769 
-0.0168016 0.0104698 -0.999804 
-0.0160506 0.00751491 -0.999843 
-0.0155195 0.00426089 -0.999871 
-0.0162121 0.00218341 -0.999866 
-0.0163421 0.000421539 -0.999867 
-0.0168044 0.000276457 -0.999859 
-0.0188707 -0.000424385 -0.999822 
-0.0195033 -0.0015687 -0.999809 
-0.0204686 -0.00678072 -0.999768 
-0.0204273 -0.0185659 -0.999619 
-0.0175002 -0.0276465 -0.999465 
-0.0108543 -0.020888 -0.999723 
-0.000818754 -0.00838998 -0.999965 
0.00049222 -0.00840775 0.999966 
0.00842609 -0.0219535 0.999724 
0.0108604 -0.026761 0.999583 
0.0101797 -0.0158709 0.999822 
0.0102271 -0.00428942 0.999939 
0.0104977 -0.000508941 0.999945 
0.00812273 0.000727816 0.999967 
0.00532248 0.000551685 0.999986 
0.00614605 -0.00110395 0.999981 
0.00424659 -0.00146685 0.99999 
0.00518986 0.0014087 0.999986 
0.00682218 0.00580604 0.99996 
0.00563851 0.0099405 0.999935 
0.00421357 0.013588 0.999899 
0.00297888 0.0165714 0.999858 
0.000402093 0.0200542 0.999799 
0.00214132 0.0238349 0.999714 
-0.000495265 0.0301821 0.999544 
-0.00542287 0.0390139 0.999224 
-0.0133348 0.050924 0.998614 
-0.0244519 0.0662582 0.997503 
-0.0405183 0.0859698 0.995474 
-0.0569326 0.105338 0.992806 
-0.0827831 0.131213 0.987892 
-0.117927 0.161739 0.979762 
-0.160819 0.19268 0.967994 
-0.21516 0.225232 0.950251 
-0.232852 0.226511 0.945766 
-0.321823 0.272555 0.906722 
-0.354087 0.26549 0.896737 
-0.344176 0.24268 0.907001 
-0.360853 0.23706 0.901991 
-0.329863 0.22676 0.91639 
-0.284822 0.254832 0.924087 
-0.188607 0.275919 0.942495 
-0.185416 0.382742 0.905058 
-0.139581 0.508984 0.849384 
-0.0380361 0.652066 0.757208 
-0.00485894 0.94627 0.323343 
0.00618684 0.986556 -0.163309 
0.034024 0.829138 -0.558008 
0.0853537 0.671853 -0.73575 
0.119199 0.544471 -0.830267 
0.157257 0.414687 -0.896273 
0.201779 0.295577 -0.933766 
0.237306 0.249869 -0.93875 
0.3567 0.24013 -0.902831 
0.355491 0.238408 -0.903764 
0.36697 0.254389 -0.894773 
0.323579 0.250145 -0.912537 
0.283109 0.243695 -0.927611 
0.27506 0.253259 -0.927471 
0.220632 0.227445 -0.948468 
0.167188 0.196969 -0.96605 
0.119561 0.162104 -0.979504 
0.0801596 0.127937 -0.988538 
0.0547717 0.102379 -0.993236 
0.0357352 0.0809762 -0.996075 
0.023454 0.0648488 -0.99762 
0.014971 0.0515573 -0.998558 
0.00919227 0.0406594 -0.999131 
0.00214807 0.0303581 -0.999537 
-0.000932994 0.0235637 -0.999722 
-0.00343065 0.0185365 -0.999822 
-0.00538644 0.015191 -0.99987 
-0.00515094 0.0124243 -0.99991 
-0.00392735 0.00914985 -0.999951 
-0.00465031 0.00516664 -0.999976 
-0.00424068 0.00154096 -0.99999 
-0.00693909 0.000165169 -0.999976 
-0.00512646 0.000255737 -0.999987 
-0.00474059 0.00198557 -0.999987 
-0.0094099 0.00161001 -0.999955 
-0.00941357 -0.000167099 -0.999956 
-0.0137161 -0.00493707 -0.999894 
-0.0122114 -0.0168532 -0.999784 
-0.0112867 -0.0285312 -0.999529 
-0.00900065 -0.0226201 -0.999704 
-0.000545637 -0.0073607 -0.999973 
7.98175e-05 -0.0106315 0.999948 
0.00349398 -0.0238941 0.999709 
0.00223835 -0.0279335 0.999607 
0.000839882 -0.0152283 0.999884 
0.000718663 -0.00327188 0.999995 
-7.64564e-05 0.0014404 0.999999 
-0.00290634 0.00310551 0.999991 
-0.00431444 0.00177887 0.999989 
-0.00403556 -0.00162837 0.999991 
-0.0040268 -0.00289497 0.999988 
-0.00359632 -9.93913e-05 0.999994 
-0.00207068 0.00472097 0.999987 
-0.00287858 0.00948705 0.999951 
-0.00397896 0.0139275 0.999895 
-0.00502119 0.0176798 0.999831 
-0.00748765 0.0227254 0.999714 
-0.00878021 0.0279962 0.99957 
-0.0132579 0.036569 0.999243 
-0.0200496 0.0481471 0.998639 
-0.0299943 0.0636594 0.997521 
-0.0444621 0.0840418 0.99547 
-0.0657935 0.112142 0.991512 
-0.0918924 0.142489 0.985522 
-0.132465 0.185437 0.973687 
-0.184464 0.2304 0.955452 
-0.23934 0.266144 0.933747 
-0.305267 0.305989 0.901767 
-0.325626 0.297204 0.897573 
-0.432459 0.366016 0.824022 
-0.421498 0.326594 0.845977 
-0.43844 0.294266 0.849222 
-0.46156 0.275762 0.843159 
-0.477638 0.260433 0.839069 
-0.440245 0.255607 0.860726 
-0.379339 0.274267 0.883674 
-0.267694 0.30286 0.914667 
-0.24212 0.44643 0.86144 
-0.0813551 0.631521 0.77108 
-0.0321432 0.758152 0.651285 
0.00715096 0.996289 -0.0857664 
0.0470711 0.832174 -0.552513 
0.16603 0.567852 -0.806213 
0.21208 0.429038 -0.878037 
0.245963 0.334214 -0.909837 
0.321137 0.286089 -0.902787 
0.350663 0.258178 -0.900211 
0.47022 0.263472 -0.842304 
0.45287 0.27594 -0.847801 
0.441809 0.309541 -0.842015 
0.383127 0.3007 -0.873381 
0.407846 0.346948 -0.844564 
0.341013 0.31987 -0.883965 
0.291267 0.301081 -0.908028 
0.230162 0.262889 -0.936971 
0.167631 0.214886 -0.962146 
0.114872 0.164978 -0.979585 
0.0804135 0.127987 -0.988511 
0.0555002 0.0979647 -0.993641 
0.0399719 0.0773766 -0.9962 
0.0283857 0.060604 -0.997758 
0.0191071 0.046024 -0.998758 
0.0121809 0.034382 -0.999335 
0.00824917 0.0260383 -0.999627 
0.00595447 0.0202859 -0.999777 
0.00381967 0.0158765 -0.999867 
0.00349463 0.0123306 -0.999918 
0.00311962 0.00772212 -0.999965 
0.00326043 0.00302316 -0.99999 
0.00347352 -0.000623284 -0.999994 
0.00288096 -0.00180789 -0.999994 
0.00452425 -0.00112006 -0.999989 
0.0046188 0.00204805 -0.999987 
0.00190732 0.00362161 -0.999992 
2.19205e-05 0.00133585 -0.999999 
-0.00322048 -0.00458762 -0.999984 
-0.00251843 -0.0175783 -0.999842 
-0.00299815 -0.0283317 -0.999594 
-0.00407344 -0.0216976 -0.999756 
-8.22563e-05 -0.00765344 -0.999971 
-0.000801249 -0.0109682 0.999944 
-0.000341259 -0.0159714 0.999872 
-0.00195168 -0.0272419 0.999627 
-0.00240068 -0.020746 0.999782 
-0.00308958 -0.00541333 0.999981 
-0.00436999 0.00239729 0.999988 
-0.00608308 0.00489564 0.99997 
-0.00673357 0.00342609 0.999972 
-0.00616284 -0.00169003 0.99998 
-0.00500806 -0.00482391 0.999976 
-0.00403384 -0.00344627 0.999986 
-0.00361872 0.00164382 0.999992 
-0.00345935 0.00709635 0.999969 
-0.00377162 0.0127594 0.999912 
-0.00449687 0.0177717 0.999832 
-0.00647472 0.0228639 0.999718 
-0.0099329 0.0308859 0.999474 
-0.0147321 0.0400904 0.999088 
-0.0223168 0.0538425 0.9983 
-0.0327437 0.0716607 0.996892 
-0.0473031 0.0947132 0.99438 
-0.068215 0.126484 0.989621 
-0.0980552 0.167149 0.981044 
-0.137882 0.2157 0.966676 
-0.193877 0.275117 0.94166 
-0.256661 0.327467 0.909335 
-0.315681 0.35641 0.879385 
-0.398552 0.421316 0.814646 
-0.401932 0.378307 0.833867 
-0.511776 0.409769 0.755099 
-0.496554 0.353308 0.792848 
-0.525599 0.323859 0.786677 
-0.567319 0.306959 0.764151 
-0.585292 0.28964 0.757326 
-0.571636 0.279635 0.771386 
-0.497528 0.292042 0.816809 
-0.303983 0.352234 0.88517 
-0.0741965 0.709202 0.701091 
-0.0119943 0.855413 0.517808 
-0.000887417 0.983089 0.183128 
0.0205258 0.947895 -0.317923 
0.290589 0.436207 -0.851634 
0.306856 0.405089 -0.861244 
0.372547 0.305648 -0.876235 
0.468019 0.264552 -0.843191 
0.51833 0.260578 -0.814514 
0.566 0.313896 -0.762308 
0.507246 0.321285 -0.799674 
0.487978 0.356856 -0.796575 
0.492607 0.397299 -0.774268 
0.479507 0.441162 -0.758584 
0.4131 0.412943 -0.811681 
0.346301 0.383966 -0.855948 
0.271867 0.333742 -0.90261 
0.209889 0.288814 -0.934095 
0.147452 0.221532 -0.963941 
0.102474 0.169865 -0.980125 
0.0705052 0.126507 -0.989457 
0.0500691 0.0982153 -0.993905 
0.0353358 0.0758738 -0.996491 
0.0238596 0.0572206 -0.998077 
0.0151835 0.0417217 -0.999014 
0.0101848 0.030977 -0.999468 
0.00683437 0.0233913 -0.999703 
0.00494836 0.0176983 -0.999831 
0.00328762 0.0134535 -0.999904 
0.00252934 0.00809342 -0.999964 
0.00201148 0.0019682 -0.999996 
0.00327079 -0.00286351 -0.999991 
0.00502486 -0.00427981 -0.999978 
0.00563035 -0.00303658 -0.99998 
0.00589189 0.00205017 -0.999981 
0.00506428 0.00523796 -0.999974 
0.00378163 0.00343048 -0.999987 
0.00166265 -0.00310154 -0.999994 
0.00100013 -0.0161743 -0.999869 
0.000144757 -0.0279662 -0.999609 
-0.00048404 -0.0213542 -0.999772 
0.000172194 -0.00797741 -0.999969 
-0.000212837 -0.00711672 0.999975 
-0.00213368 -0.0193645 0.99981 
-0.00288182 -0.0257085 0.999665 
-0.0036759 -0.0119334 0.999922 
-0.00467043 0.00138911 0.999988 
-0.00524102 0.00584615 0.999969 
-0.00487897 0.00522696 0.999975 
-0.00393312 0.00027208 0.999992 
-0.00125643 -0.00576272 0.999983 
0.000283314 -0.00717978 0.999974 
0.00127994 -0.00351113 0.999993 
0.00215596 0.00253968 0.999995 
0.00167215 0.00945298 0.999954 
0.0015294 0.0156544 0.999876 
0.000439264 0.0220183 0.999758 
-0.00348046 0.0287921 0.999579 
-0.00643285 0.039363 0.999204 
-0.0130589 0.0518157 0.998571 
-0.0214836 0.0694659 0.997353 
-0.0339077 0.0920515 0.995177 
-0.0514796 0.122289 0.991159 
-0.0770842 0.166131 0.983086 
-0.113095 0.221087 0.968674 
-0.165209 0.286962 0.943588 
-0.232116 0.367973 0.900399 
-0.30122 0.421637 0.855271 
-0.371854 0.460413 0.806068 
-0.441055 0.538911 0.717667 
-0.479356 0.497732 0.722828 
-0.49533 0.46295 0.735069 
-0.584614 0.440283 0.681452 
-0.572128 0.387492 0.722855 
-0.61023 0.361586 0.704894 
-0.667095 0.337672 0.66405 
-0.679484 0.299578 0.669742 
-0.594428 0.303392 0.74472 
-0.388761 0.309482 0.867805 
-0.183026 0.593908 0.783437 
-0.00567915 0.918412 0.395583 
0.0397701 0.932355 -0.359352 
0.0508655 0.862356 -0.50374 
0.230089 0.351436 -0.907498 
0.53918 0.296077 -0.788431 
0.450151 0.285695 -0.846016 
0.608787 0.295839 -0.73611 
0.614219 0.358707 -0.702898 
0.579892 0.381601 -0.719795 
0.576551 0.421551 -0.699917 
0.559086 0.461142 -0.689037 
0.566724 0.516537 -0.641883 
0.478956 0.507281 -0.716427 
0.423006 0.490885 -0.761642 
0.351246 0.449753 -0.821187 
0.287665 0.41073 -0.865188 
0.213213 0.343326 -0.914695 
0.151776 0.267144 -0.951629 
0.103792 0.202767 -0.973711 
0.0712652 0.152757 -0.985691 
0.0482336 0.116707 -0.991995 
0.031765 0.0881371 -0.995602 
0.0194901 0.0641712 -0.997749 
0.0105363 0.0475389 -0.998814 
0.00502317 0.0345988 -0.999389 
0.00119405 0.025729 -0.999668 
-0.000883821 0.0193868 -0.999812 
-0.00280435 0.0135441 -0.999904 
-0.00330907 0.00742157 -0.999967 
-0.00399304 0.000517272 -0.999992 
-0.00240714 -0.00491307 -0.999985 
0.000504776 -0.00679025 -0.999977 
0.00119856 -0.00478972 -0.999988 
0.00258977 0.00152425 -0.999996 
0.00428874 0.00621137 -0.999972 
0.00385576 0.00543773 -0.999978 
0.00300036 -0.00128704 -0.999995 
0.00179895 -0.015141 -0.999884 
0.00107488 -0.0275498 -0.99962 
0.00129894 -0.0209474 -0.99978 
0.000278274 -0.00774904 -0.99997 
-8.46971e-05 -0.00670445 0.999977 
-0.00156227 -0.0204541 0.99979 
-0.0020342 -0.0263016 0.999652 
-0.00247856 -0.0128764 0.999914 
-0.00249925 0.00109197 0.999996 
-0.00136243 0.00627686 0.99998 
6.97972e-05 0.00551654 0.999985 
0.00252434 -0.000972782 0.999996 
0.00532184 -0.00760102 0.999957 
0.00802137 -0.0096694 0.999921 
0.00906356 -0.0060687 0.999941 
0.0111743 0.000905182 0.999937 
0.0108895 0.00876792 0.999902 
0.0106614 0.0157203 0.99982 
0.0094734 0.0226012 0.9997 
0.00598641 0.0311626 0.999497 
0.00331274 0.0423402 0.999098 
-0.00307401 0.057718 0.998328 
-0.0109975 0.0774323 0.996937 
-0.0237879 0.103282 0.994368 
-0.0426245 0.139961 0.989239 
-0.0682168 0.189132 0.979579 
-0.106429 0.259175 0.959949 
-0.162518 0.339658 0.926402 
-0.230107 0.438149 0.868951 
-0.299671 0.502744 0.81083 
-0.36714 0.535622 0.760472 
-0.426701 0.611825 0.66603 
-0.493817 0.630556 0.598788 
-0.524235 0.588461 0.615543 
-0.571723 0.571143 0.589006 
-0.554247 0.490925 0.672164 
-0.642849 0.428914 0.634648 
-0.676932 0.389284 0.624677 
-0.710153 0.309808 0.63222 
-0.676267 0.313706 0.666522 
-0.469683 0.32464 0.820979 
-0.38766 0.333201 0.859475 
-0.0145392 0.803495 0.595135 
0.00825824 0.995201 -0.0975042 
0.0827808 0.709886 -0.699435 
0.34662 0.326682 -0.879281 
0.523161 0.29858 -0.798218 
0.586562 0.27141 -0.763074 
0.679116 0.351585 -0.644352 
0.72093 0.422017 -0.549694 
0.647259 0.463213 -0.605384 
0.636825 0.503264 -0.584106 
0.635533 0.551134 -0.540693 
0.542735 0.542195 -0.641454 
0.495617 0.583827 -0.643047 
0.420007 0.550184 -0.721728 
0.373125 0.555772 -0.742897 
0.313705 0.509045 -0.801538 
0.235642 0.432147 -0.870473 
0.166084 0.346606 -0.923191 
0.112514 0.262872 -0.958248 
0.071913 0.194003 -0.978362 
0.0453315 0.145523 -0.988316 
0.0266948 0.108528 -0.993735 
0.0144222 0.079987 -0.996692 
0.00430164 0.0590895 -0.998244 
-0.00259532 0.0426773 -0.999086 
-0.00736655 0.0310217 -0.999492 
-0.0104867 0.0224493 -0.999693 
-0.0115438 0.0156578 -0.999811 
-0.012495 0.00835846 -0.999887 
-0.0126577 7.44222e-05 -0.99992 
-0.0112478 -0.00688339 -0.999913 
-0.00750698 -0.00929859 -0.999929 
-0.00663537 -0.00767647 -0.999949 
-0.00417082 -0.000687225 -0.999991 
-0.000206861 0.00588095 -0.999983 
0.00048838 0.00630413 -0.99998 
0.00169282 0.00112491 -0.999998 
0.000880961 -0.0116761 -0.999932 
0.000371924 -0.0250998 -0.999685 
0.000823803 -0.020543 -0.999789 
3.8463e-05 -0.0066953 -0.999977 
0.000193338 -0.00646106 0.999978 
-0.000151051 -0.0202749 0.999795 
-0.000101266 -0.0250971 0.999685 
0.00026738 -0.0115345 0.999934 
0.00167898 0.00161845 0.999997 
0.00416877 0.00601966 0.999973 
0.00664903 0.00378721 0.999971 
0.00989441 -0.00349487 0.999945 
0.0124005 -0.0105329 0.999868 
0.0149893 -0.0119263 0.999817 
0.0163145 -0.00706475 0.999842 
0.0182728 0.000994165 0.999833 