# vtk DataFile Version 3.0 
Exported using Morpho https://github.com/Morpho-lang/morpho 
ASCII 
DATASET UNSTRUCTURED_GRID 

POINTS 1978 float 
-8.48528 -2.82843 -3.70382e-13 
-8.25611 -2.82843 -2.57154e-14 
-8.02669 -2.82843 1.59269e-12 
-7.75792 -2.82843 2.00851e-12 
-7.46397 -2.82843 1.68247e-12 
-7.22901 -2.82843 1.09947e-12 
-6.98984 -2.82843 8.99615e-13 
-6.76786 -2.82843 7.81444e-13 
-6.55681 -2.82843 6.08552e-13 
-6.33784 -2.82843 5.25509e-13 
-6.13527 -2.82843 4.32176e-13 
-5.92622 -2.82843 3.44923e-13 
-5.71327 -2.82843 2.77657e-13 
-5.51195 -2.82843 2.09628e-13 
-5.2947 -2.82843 1.7972e-13 
-5.08293 -2.82843 1.43819e-13 
-4.86808 -2.82843 1.02924e-13 
-4.65704 -2.82843 4.63856e-14 
-4.43761 -2.82843 -1.36742e-14 
-4.21351 -2.82843 -8.68281e-14 
-3.99519 -2.82843 -1.71768e-13 
-3.78299 -2.82843 -2.75282e-13 
-3.56779 -2.82843 -4.00821e-13 
-3.35611 -2.82843 -5.628e-13 
-3.13677 -2.82843 -7.34461e-13 
-2.92655 -2.82843 -8.93431e-13 
-2.72055 -2.82843 -1.0185e-12 
-2.52682 -2.82843 -1.25192e-12 
-2.30937 -2.82843 -1.43789e-12 
-2.10161 -2.82843 -1.51564e-12 
-1.88873 -2.82843 -1.47546e-12 
-1.68421 -2.82843 -1.29638e-12 
-1.48486 -2.82843 -1.13239e-12 
-1.27224 -2.82843 -1.43177e-12 
-1.09553 -2.82843 -1.35998e-13 
-0.84585 -2.82843 -2.40881e-13 
-0.620418 -2.82843 4.04015e-13 
-0.433173 -2.82843 -1.21097e-12 
-0.208487 -2.82843 1.04748e-13 
0.0226867 -2.82843 8.03394e-13 
0.228159 -2.82843 -7.23787e-13 
0.424308 -2.82843 4.43332e-13 
0.63048 -2.82843 8.34261e-13 
0.855724 -2.82843 1.17919e-12 
1.05352 -2.82843 8.12127e-13 
1.2507 -2.82843 6.86994e-13 
1.44554 -2.82843 1.231e-12 
1.68528 -2.82843 1.43479e-12 
1.87627 -2.82843 1.43489e-12 
2.09077 -2.82843 1.66568e-12 
2.31947 -2.82843 1.44679e-12 
2.50652 -2.82843 1.21353e-12 
2.7333 -2.82843 1.1653e-12 
2.95049 -2.82843 9.102e-13 
3.16252 -2.82843 6.73547e-13 
3.36544 -2.82843 5.42708e-13 
3.59049 -2.82843 4.03156e-13 
3.79321 -2.82843 2.62394e-13 
4.01049 -2.82843 1.89524e-13 
4.24122 -2.82843 1.0255e-13 
4.44248 -2.82843 1.50571e-14 
4.65738 -2.82843 -3.85803e-14 
4.86515 -2.82843 -9.83929e-14 
5.07283 -2.82843 -1.53565e-13 
5.28707 -2.82843 -2.0049e-13 
5.50045 -2.82843 -2.41558e-13 
5.70521 -2.82843 -3.03467e-13 
5.92448 -2.82843 -3.82478e-13 
6.14734 -2.82843 -4.41833e-13 
6.34949 -2.82843 -5.59672e-13 
6.58629 -2.82843 -6.44685e-13 
6.79948 -2.82843 -6.70925e-13 
6.99702 -2.82843 -9.65868e-13 
7.25486 -2.82843 -1.27098e-12 
7.48439 -2.82843 -1.55604e-12 
7.71995 -2.82843 -1.95581e-12 
7.98298 -2.82843 -1.81089e-12 
8.17003 -2.82843 -3.23635e-13 
8.48528 -2.82843 3.4516e-13 
-8.48528 -2.59367 1.42857e-13 
-8.2514 -2.58222 -1.78402e-15 
-8.00986 -2.59265 8.56093e-15 
-7.75811 -2.61264 2.54855e-15 
-7.50252 -2.645 4.44346e-15 
-7.22429 -2.59486 3.03347e-15 
-6.98103 -2.59294 4.97707e-15 
-6.76453 -2.589 1.83865e-15 
-6.53894 -2.5891 3.34306e-15 
-6.32877 -2.57391 2.71304e-15 
-6.10975 -2.58868 2.28257e-15 
-5.89312 -2.58748 1.47304e-15 
-5.68598 -2.571 1.44179e-15 
-5.4677 -2.59125 1.02489e-15 
-5.25145 -2.58405 7.4568e-16 
-5.03417 -2.58684 -4.06174e-14 
-4.82007 -2.58218 -1.68669e-14 
-4.60117 -2.59079 1.39992e-14 
-4.37805 -2.59416 3.86301e-14 
-4.15877 -2.58827 -8.71809e-16 
-3.94683 -2.58127 -1.44875e-15 
-3.73467 -2.58578 -1.99935e-15 
-3.52297 -2.58638 -2.92087e-15 
-3.30673 -2.59778 -3.31034e-15 
-3.09404 -2.59319 -4.65591e-15 
-2.88455 -2.59197 -5.7183e-15 
-2.68616 -2.58304 -7.51716e-15 
-2.47211 -2.61031 -7.81334e-15 
-2.25425 -2.59628 -8.58749e-15 
-2.04191 -2.59791 -8.64045e-15 
-1.82631 -2.58618 -1.1798e-14 
-1.62134 -2.57649 -9.71095e-15 
-1.41802 -2.59252 -9.73054e-15 
-1.23678 -2.51848 -1.45287e-14 
-1.02315 -2.61363 1.25586e-14 
-0.795339 -2.58803 2.00321e-15 
-0.599377 -2.5205 5.17175e-15 
-0.391853 -2.52256 5.79283e-15 
-0.17221 -2.5157 5.00441e-15 
0.0478495 -2.50273 2.17212e-15 
0.228017 -2.4313 -2.20352e-14 
0.400966 -2.50294 6.9163e-15 
0.610179 -2.54119 -4.34326e-15 
0.822295 -2.57932 4.67652e-15 
1.05176 -2.56377 2.66342e-15 
1.26413 -2.57151 6.23229e-15 
1.50259 -2.62273 4.69666e-15 
1.71782 -2.57715 1.3358e-14 
1.9333 -2.6061 7.03733e-15 
2.16656 -2.62343 8.08566e-15 
2.37632 -2.57608 1.04031e-14 
2.5872 -2.61117 4.8385e-15 
2.81084 -2.60111 5.86924e-15 
3.01979 -2.59086 5.05116e-15 
3.22512 -2.57804 3.82415e-15 
3.44205 -2.60169 3.01782e-15 
3.64891 -2.57442 2.46406e-15 
3.86079 -2.58943 1.53905e-15 
4.08716 -2.60264 1.01076e-15 
4.29599 -2.57011 7.69748e-16 
4.51016 -2.58833 -1.96009e-14 
4.72251 -2.58041 3.05921e-15 
4.93578 -2.58262 3.3776e-14 
5.15088 -2.58985 -6.16892e-16 
5.36989 -2.58938 -9.23942e-16 
5.58258 -2.57852 -1.34929e-15 
5.79954 -2.59283 -1.46502e-15 
6.02506 -2.59456 -1.77373e-15 
6.23982 -2.56849 -2.67075e-15 
6.46051 -2.60434 -2.33932e-15 
6.68668 -2.57911 -3.66854e-15 
6.89448 -2.55841 -4.70449e-15 
7.1194 -2.6216 -2.81952e-15 
7.36845 -2.59333 -4.42788e-15 
7.60356 -2.59696 -4.87816e-15 
7.8569 -2.61913 -5.36476e-15 
8.07232 -2.52892 -7.46787e-15 
8.29872 -2.64384 1.56933e-15 
8.48528 -2.51757 1.41928e-13 
-8.48528 -2.35315 8.61142e-14 
-8.23092 -2.35101 8.00943e-16 
-7.98868 -2.34877 9.15831e-15 
-7.74971 -2.40229 8.40675e-15 
-7.55863 -2.23462 7.86937e-15 
-7.46181 -2.43931 4.3181e-15 
-7.17369 -2.38277 7.61258e-15 
-6.94818 -2.34058 7.41702e-15 
-6.70791 -2.36404 4.49941e-15 
-6.48531 -2.34452 4.24165e-15 
-6.24683 -2.34685 3.54536e-15 
-6.02867 -2.34918 2.81351e-15 
-5.81591 -2.33358 2.04699e-15 
-5.58528 -2.34431 1.73568e-15 
-5.3691 -2.34922 1.35189e-15 
-5.14514 -2.34781 8.99319e-16 
-4.92703 -2.34255 -3.98822e-14 
-4.70477 -2.35001 -2.98826e-15 
-4.48306 -2.35966 3.81396e-14 
-4.26235 -2.35386 -1.03488e-15 
-4.04715 -2.33962 -1.66635e-15 
-3.83339 -2.3401 -2.36747e-15 
-3.62234 -2.34536 -3.39213e-15 
-3.40675 -2.3593 -4.53493e-15 
-3.19544 -2.36187 -6.0292e-15 
-2.98198 -2.36 -7.40109e-15 
-2.77643 -2.3421 -8.92288e-15 
-2.56451 -2.37278 -1.16944e-14 
-2.35334 -2.38416 -1.40152e-14 
-2.12578 -2.36101 -1.49793e-14 
-1.91107 -2.36307 -1.63318e-14 
-1.6859 -2.3397 -1.3248e-14 
-1.4688 -2.32975 -5.32621e-15 
-1.24604 -2.27527 -1.24856e-14 
-1.01559 -2.37175 -1.38748e-15 
-0.811587 -2.3233 -3.44877e-15 
-0.603329 -2.23352 -2.96721e-15 
-0.400026 -2.2068 1.66453e-14 
-0.184748 -2.19994 3.62657e-15 
0.00762023 -2.15311 -2.20105e-15 
0.214369 -2.10573 1.39722e-15 
0.434461 -2.13341 -5.15266e-14 
0.600107 -2.24342 4.28636e-14 
0.812622 -2.28813 -3.64954e-15 
1.02159 -2.32082 1.41588e-15 
1.25462 -2.32326 4.79762e-15 
1.46762 -2.39615 8.97199e-15 
1.65716 -2.32839 1.60088e-14 
1.87119 -2.36275 1.85284e-14 
2.08339 -2.40686 1.48839e-14 
2.29408 -2.36872 1.65377e-14 
2.53371 -2.36742 1.18424e-14 
2.74156 -2.38548 9.77284e-15 
2.96129 -2.35153 7.82377e-15 
3.16387 -2.33824 6.08877e-15 
3.38131 -2.36255 4.56652e-15 
3.58603 -2.33542 3.65116e-15 
3.7995 -2.34246 2.61166e-15 
4.01382 -2.36972 1.79043e-15 
4.22329 -2.33215 1.13036e-15 
4.44335 -2.34165 -4.7899e-14 
4.65235 -2.33807 -8.77072e-15 
4.86656 -2.34129 2.87734e-14 
5.0824 -2.34689 -7.30354e-16 
5.29654 -2.35514 -1.17519e-15 
5.51263 -2.33972 -1.61373e-15 
5.73231 -2.34926 -2.04591e-15 
5.95004 -2.36228 -2.51906e-15 
6.16698 -2.33292 -3.3054e-15 
6.39799 -2.35329 -3.90864e-15 
6.60936 -2.35201 -4.73913e-15 
6.82968 -2.30772 -5.45106e-15 
7.05928 -2.36528 -6.77532e-15 
7.27588 -2.38863 -7.66672e-15 
7.53193 -2.36129 -8.4097e-15 
7.77544 -2.39374 -8.74965e-15 
7.99058 -2.3013 -8.34554e-15 
8.25727 -2.36636 6.71091e-15 
8.48528 -2.26828 -2.51025e-15 
-8.48528 -2.08885 -1.14466e-13 
-8.26483 -2.11509 -8.52516e-16 
-8.033 -2.09987 1.09969e-15 
-7.79212 -2.1458 3.64724e-15 
-7.51662 -2.01853 1.47745e-15 
-7.3027 -2.21535 4.72887e-15 
-7.06012 -2.11504 2.31484e-15 
-6.80635 -2.1332 3.09772e-15 
-6.59028 -2.11324 2.33248e-15 
-6.35729 -2.12963 2.1842e-15 
-6.1288 -2.10591 1.42983e-15 
-5.92089 -2.09593 1.20833e-15 
-5.69394 -2.11474 9.40596e-16 
-5.47145 -2.10571 7.21098e-16 
-5.25489 -2.1164 -4.33934e-14 
-5.03609 -2.10769 -1.80869e-14 
-4.81433 -2.11283 3.81266e-15 
-4.59451 -2.12097 2.35074e-14 
-4.37887 -2.12287 4.76211e-14 
-4.16589 -2.1075 -8.59617e-16 
-3.95196 -2.09972 -1.13548e-15 
-3.74094 -2.10221 -1.6012e-15 
-3.52845 -2.11786 -2.07698e-15 
-3.31964 -2.12501 -2.77915e-15 
-3.10895 -2.13021 -3.60361e-15 
-2.90315 -2.11639 -4.2445e-15 
-2.6834 -2.12192 -5.31636e-15 
-2.4767 -2.14557 -6.4051e-15 
-2.26234 -2.15825 -8.62354e-15 
-2.03023 -2.12292 -8.20208e-15 
-1.80951 -2.13125 -8.60576e-15 
-1.57616 -2.09726 -5.10453e-15 
-1.36097 -2.06356 -9.69842e-16 
-1.14143 -1.91671 -1.15144e-14 
-1.06593 -2.11562 1.37469e-14 
-0.832586 -2.07946 -8.52065e-16 
-0.617869 -1.94865 2.95705e-15 
-0.369729 -1.92909 3.13088e-15 
-0.150893 -1.86632 4.32209e-15 
0.0623455 -1.82391 3.80763e-15 
0.23727 -1.59002 3.85121e-14 
0.322201 -1.83945 5.52908e-15 
0.551698 -1.85916 2.53517e-14 
0.755491 -1.97556 -4.2001e-14 
0.962406 -2.03006 -2.13974e-15 
1.17681 -2.08865 9.86031e-16 
1.42587 -2.13305 6.13208e-15 
1.6523 -2.09804 4.28772e-15 
1.88347 -2.12463 6.23351e-15 
2.09694 -2.17172 1.0121e-14 
2.34554 -2.1676 8.27653e-15 
2.56891 -2.13327 6.19662e-15 
2.78024 -2.15488 6.634e-15 
2.98423 -2.10128 3.68761e-15 
3.20678 -2.11598 3.48851e-15 
3.40959 -2.11513 2.51308e-15 
3.62458 -2.10018 1.70778e-15 
3.84099 -2.11164 1.44548e-15 
4.04427 -2.121 1.00732e-15 
4.27062 -2.10215 6.24535e-16 
4.47989 -2.09696 -3.10056e-14 
4.69579 -2.10036 -8.58628e-15 
4.91208 -2.10669 8.59613e-15 
5.12766 -2.10967 2.92736e-14 
5.34064 -2.11641 -5.99896e-16 
5.56396 -2.10842 -7.57106e-16 
5.78266 -2.11523 -1.03834e-15 
5.99444 -2.11737 -1.37649e-15 
6.23222 -2.11247 -1.57317e-15 
6.44416 -2.10329 -1.98681e-15 
6.65559 -2.10237 -2.41973e-15 
6.90759 -2.09541 -2.23099e-15 
7.12193 -2.12443 -2.7606e-15 
7.35032 -2.16957 -3.64643e-15 
7.54005 -2.07163 -1.5666e-15 
7.72744 -2.15976 -4.56711e-15 
7.94867 -2.06904 -1.49488e-15 
8.20252 -2.1405 -8.34679e-16 
8.48528 -2.06847 -1.90202e-13 
-8.48528 -1.79064 -1.79004e-13 
-8.29398 -1.86239 -1.27863e-15 
-7.89073 -1.8933 -9.46793e-16 
[...]
POINT_DATA 1978 
VECTORS vectors float
-6.72512e-05 -0.000724842 1 
2.98531e-05 -0.0636128 0.997975 
0.000626595 -0.0927027 0.995694 
0.000841385 -0.0921429 0.995745 
0.000708865 -0.0782674 0.996932 
0.000382504 -0.0658518 0.997829 
0.000345626 -0.0524242 0.998625 
0.00016987 -0.043513 0.999053 
0.000199548 -0.0351988 0.99938 
0.000105843 -0.0288122 0.999585 
6.81842e-05 -0.0234147 0.999726 
0.00015689 -0.0183716 0.999831 
7.37303e-05 -0.0146512 0.999893 
0.000110199 -0.011498 0.999934 
0.00017911 -0.0088621 0.999961 
0.000168694 -0.00678598 0.999977 
0.000146931 -0.00456843 0.99999 
0.000176128 -0.00198501 0.999998 
0.000265249 0.0011427 0.999999 
0.000249849 0.00518276 0.999987 
0.000171218 0.010121 0.999949 
0.000168393 0.0161047 0.99987 
0.00014979 0.0237455 0.999718 
0.000175195 0.0331659 0.99945 
0.000174403 0.0457533 0.998953 
9.88898e-05 0.0613911 0.998114 
-2.43548e-05 0.0812652 0.996693 
6.48693e-05 0.104822 0.994491 
0.000122603 0.13845 0.990369 
9.78623e-05 0.179086 0.983833 
5.79362e-05 0.231701 0.972787 
1.32381e-05 0.294364 0.955693 
5.05732e-05 0.368651 0.929568 
-3.24694e-05 0.467414 0.884039 
1.79422e-05 0.55263 0.833427 
8.79593e-05 0.69351 0.720447 
3.67972e-05 0.809623 0.586951 
1.85685e-05 0.897666 0.440677 
1.37794e-05 0.976482 0.2156 
-1.37922e-05 0.999639 -0.0268551 
-4.4286e-06 0.970043 -0.242932 
-8.58208e-06 0.905109 -0.425179 
-3.10998e-05 0.806266 -0.591553 
-3.40405e-05 0.683918 -0.729559 
1.12286e-05 0.574354 -0.818607 
4.41707e-05 0.473446 -0.880823 
-0.000159682 0.383815 -0.92341 
-6.41277e-05 0.293436 -0.955979 
2.62675e-06 0.235114 -0.971968 
-0.000237781 0.182667 -0.983175 
-4.19126e-05 0.137593 -0.990489 
-4.37844e-05 0.10845 -0.994102 
-0.000267577 0.0806689 -0.996741 
-0.000155527 0.0600593 -0.998195 
-4.84877e-05 0.0446159 -0.999004 
-0.000198524 0.0330013 -0.999455 
-0.000153699 0.0231532 -0.999732 
-8.80797e-05 0.0161552 -0.999869 
-0.000312013 0.0103967 -0.999946 
-0.000179701 0.00542276 -0.999985 
-8.26908e-05 0.00175026 -0.999998 
-0.000157228 -0.00160638 -0.999999 
-8.53457e-05 -0.00456137 -0.99999 
-0.000129413 -0.00711894 -0.999975 
-0.000191586 -0.00966559 -0.999953 
-8.33472e-05 -0.0124697 -0.999922 
-0.000141936 -0.0154105 -0.999881 
-0.000285285 -0.0190828 -0.999818 
-0.000100544 -0.0236984 -0.999719 
-0.000233858 -0.028571 -0.999592 
-0.000333103 -0.0354855 -0.99937 
1.28338e-05 -0.0436673 -0.999046 
-0.000333771 -0.0531196 -0.998588 
-0.000479767 -0.0684711 -0.997653 
-0.000336509 -0.0842146 -0.996448 
-0.000652935 -0.0983023 -0.995156 
-0.000170425 -0.104852 -0.994488 
-0.000254268 -0.0869418 -0.996213 
-0.000353212 -0.000257289 -1 
-0.00019962 0.000339707 1 
0.0127085 -0.0545201 0.998432 
0.0271775 -0.0836971 0.996121 
0.0284153 -0.0890372 0.995623 
0.0266533 -0.0792303 0.9965 
0.0330375 -0.0635211 0.997434 
0.0365498 -0.0528095 0.997936 
0.0376901 -0.0437276 0.998332 
0.0379718 -0.0350543 0.998664 
0.0422031 -0.0283546 0.998707 
0.0407043 -0.0225413 0.998917 
0.0399239 -0.0176281 0.999047 
0.0431961 -0.0140771 0.998967 
0.0408994 -0.0109894 0.999103 
0.0419607 -0.00837196 0.999084 
0.0416692 -0.00599759 0.999113 
0.0424173 -0.00356368 0.999094 
0.0407197 -0.000735662 0.99917 
0.039689 0.00280419 0.999208 
0.0406054 0.0071551 0.99915 
0.0412217 0.0123371 0.999074 
0.040063 0.0187956 0.99902 
0.0396342 0.0268932 0.998852 
0.0368606 0.0372944 0.998624 
0.0367363 0.0505441 0.998046 
0.0355562 0.0672891 0.9971 
0.0350552 0.0875792 0.995541 
0.029254 0.114629 0.992978 
0.0275696 0.150591 0.988212 
0.0238924 0.195113 0.98049 
0.0215618 0.251905 0.967512 
0.0179252 0.32095 0.946926 
0.0133238 0.404067 0.914632 
0.0120037 0.488499 0.872482 
0.00599667 0.596846 0.802334 
0.00344906 0.724055 0.689734 
0.00246279 0.826615 0.562763 
0.00125023 0.915267 0.402847 
0.00019847 0.979242 0.202694 
-0.00132299 0.999809 -0.0195016 
-0.00314703 0.975844 -0.218448 
-0.00387251 0.916309 -0.400453 
-0.00500763 0.821436 -0.570279 
-0.00641768 0.703678 -0.71049 
-0.00981927 0.574652 -0.818339 
-0.0124257 0.467867 -0.883712 
-0.0135865 0.361218 -0.932382 
-0.0206483 0.284807 -0.958362 
-0.0215235 0.221926 -0.974826 
-0.02391 0.167974 -0.985501 
-0.0323543 0.130953 -0.99086 
-0.0292848 0.100174 -0.994539 
-0.0333121 0.0750401 -0.996624 
-0.0361161 0.0565945 -0.997744 
-0.0388342 0.0427051 -0.998333 
-0.0369936 0.0308567 -0.998839 
-0.0413129 0.0223149 -0.998897 
-0.0395824 0.0152819 -0.999099 
-0.0381267 0.0092861 -0.99923 
-0.0433659 0.00493819 -0.999047 
-0.0412671 0.00113351 -0.999148 
-0.0425082 -0.00215022 -0.999094 
-0.0426469 -0.00507779 -0.999077 
-0.0411887 -0.00778038 -0.999121 
-0.0415964 -0.0105609 -0.999079 
-0.043048 -0.0134204 -0.998983 
-0.0400669 -0.0167707 -0.999056 
-0.0395144 -0.0209584 -0.998999 
-0.0427786 -0.0256243 -0.998756 
-0.0363352 -0.0315898 -0.99884 
-0.0398084 -0.0393474 -0.998432 
-0.0414007 -0.04817 -0.997981 
-0.0309964 -0.0597684 -0.997731 
-0.0346729 -0.074466 -0.996621 
-0.0334245 -0.0877689 -0.99558 
-0.0292578 -0.0973115 -0.994824 
-0.030883 -0.0827957 -0.996088 
-0.00656827 -0.0465024 -0.998897 
0.000441436 0.000385992 -1 
0.000531515 0.000113816 1 
0.0240054 -0.0539075 0.998257 
0.0458013 -0.0825377 0.995535 
0.0486319 -0.084506 0.995235 
0.05816 -0.0779989 0.995256 
0.0469426 -0.0747836 0.996094 
0.0562848 -0.0611567 0.99654 
0.0610004 -0.0503764 0.996866 
0.0600085 -0.040635 0.99737 
0.0628032 -0.0326421 0.997492 
0.0641085 -0.0254393 0.997619 
0.0645435 -0.020212 0.99771 
0.0659403 -0.016204 0.997692 
0.0662332 -0.01251 0.997726 
0.0662726 -0.00954986 0.997756 
0.06644 -0.0069071 0.997767 
0.0668122 -0.00438535 0.997756 
0.066264 -0.00157193 0.997801 
0.0651986 0.0017424 0.997871 
0.0649043 0.0057883 0.997875 
0.0648874 0.0107095 0.997835 
0.0638452 0.016707 0.99782 
0.0628387 0.024109 0.997732 
0.0609988 0.0335959 0.997572 
0.0593846 0.0454369 0.997201 
0.0573022 0.0608083 0.996503 
0.0554647 0.0797846 0.995268 
0.0511606 0.104339 0.993225 
0.046325 0.135336 0.989716 
0.0415716 0.179134 0.982946 
0.0356113 0.231055 0.972289 
0.029036 0.302089 0.952837 
0.0219661 0.385139 0.922597 
0.0165729 0.481128 0.876494 
0.0101737 0.597569 0.801753 
0.00660105 0.707075 0.707108 
0.00321766 0.822721 0.568436 
0.000896311 0.920486 0.390775 
-0.000675599 0.980303 0.197498 
-0.0024197 0.999759 -0.0218161 
-0.00398829 0.97465 -0.223698 
-0.00600667 0.907817 -0.419324 
-0.00801281 0.821769 -0.569765 
-0.010616 0.70818 -0.705953 
-0.0138333 0.593745 -0.804534 
-0.018606 0.477681 -0.878337 
-0.022859 0.380814 -0.924369 
-0.0303354 0.309248 -0.950497 
-0.035659 0.240773 -0.969926 
-0.03946 0.187486 -0.981474 
-0.046758 0.145913 -0.988192 
-0.0504229 0.1087 -0.992795 
-0.0529524 0.0834489 -0.995104 
-0.0571309 0.0626509 -0.996399 
-0.0598428 0.0478411 -0.997061 
-0.0601667 0.035129 -0.99757 
-0.0632994 0.0259802 -0.997656 
-0.0638547 0.0182377 -0.997793 
-0.0629665 0.0119219 -0.997944 
-0.066059 0.00717437 -0.99779 
-0.0659831 0.0028721 -0.997817 
-0.0665698 -0.000601267 -0.997782 
-0.0668561 -0.00372036 -0.997756 
-0.0667281 -0.00657931 -0.99775 
-0.0662687 -0.00929397 -0.997759 
-0.0670739 -0.0121575 -0.997674 
-0.0659732 -0.0154276 -0.997702 
-0.0643904 -0.0191837 -0.99774 
-0.0655297 -0.0236306 -0.997571 
-0.0630716 -0.0295769 -0.997571 
-0.0619744 -0.0363457 -0.997416 
-0.0627801 -0.0452431 -0.997001 
-0.0588913 -0.0563947 -0.99667 
-0.0562251 -0.0681463 -0.99609 
-0.0557438 -0.0807682 -0.995173 
-0.0517266 -0.0899247 -0.994604 
-0.0497679 -0.0852063 -0.99512 
-0.0218958 -0.0502667 -0.998496 
-0.000637244 -8.09573e-05 -1 
0.000367316 0.000702556 1 
0.0211143 -0.0450706 0.998761 
0.0422543 -0.0766747 0.99616 
0.0526997 -0.0827907 0.995173 
0.0559034 -0.0768197 0.995477 
0.060571 -0.0682656 0.995827 
0.0614204 -0.0563205 0.996522 
0.0637351 -0.044157 0.996989 
0.0652188 -0.0359587 0.997223 
0.0667805 -0.0283695 0.997364 
0.0671598 -0.0224245 0.99749 
0.0681453 -0.0181346 0.997511 
0.0690022 -0.0142307 0.997515 
0.0692572 -0.0109436 0.997539 
0.0696657 -0.00816943 0.997537 
0.0696107 -0.00554793 0.997559 
0.0695682 -0.00273564 0.997573 
0.0693546 0.000465318 0.997592 
0.068737 0.00419003 0.997626 
0.067705 0.00869502 0.997667 
0.0665858 0.0142703 0.997679 
0.0654982 0.020977 0.997632 
0.0644083 0.029417 0.99749 
0.0629359 0.0397914 0.997224 
0.06102 0.0530495 0.996726 
0.0582882 0.0696348 0.995868 
0.0548783 0.092011 0.994245 
0.0510894 0.119058 0.991572 
0.0463771 0.154527 0.986899 
0.0394631 0.204835 0.978001 
0.0328595 0.264894 0.963718 
0.0248603 0.345022 0.938265 
0.018176 0.428311 0.903449 
0.0112359 0.535943 0.844179 
0.0107652 0.581638 0.813377 
0.00547846 0.710669 0.703505 
0.00195875 0.821613 0.570043 
-5.85135e-05 0.923854 0.382744 
-0.00208433 0.986628 0.162977 
-0.00362344 0.998778 -0.0492964 
-0.0055177 0.972114 -0.234442 
-0.00511699 0.935364 -0.353651 
-0.00631754 0.835578 -0.549336 
-0.00882667 0.73063 -0.682716 
-0.012084 0.617608 -0.786393 
-0.0164961 0.513573 -0.857887 
-0.0228517 0.401638 -0.915513 
-0.0289296 0.317343 -0.94787 
-0.0358817 0.245314 -0.968779 
-0.0422356 0.188269 -0.981209 
-0.0484424 0.138796 -0.989136 
-0.0528763 0.105932 -0.992967 
-0.0569347 0.0805396 -0.995124 
-0.0587214 0.0626242 -0.996308 
-0.0617254 0.0464443 -0.997012 
-0.0634112 0.0351859 -0.997367 
-0.064799 0.0256916 -0.997568 
-0.0663461 0.0178753 -0.997637 
-0.0673593 0.0120733 -0.997656 
-0.0681213 0.00682031 -0.997654 
-0.0686087 0.00273506 -0.99764 
-0.0691973 -0.000873839 -0.997603 
-0.0696235 -0.00406911 -0.997565 
-0.06975 -0.00694437 -0.99754 
-0.0697684 -0.0097147 -0.997516 
-0.0693686 -0.012791 -0.997509 
-0.0689349 -0.0161563 -0.99749 
-0.0682393 -0.0199428 -0.99747 
-0.0672385 -0.0251808 -0.997419 
-0.0660109 -0.0310047 -0.997337 
-0.0647974 -0.0382398 -0.997165 
-0.0630547 -0.0491548 -0.996799 
-0.0619245 -0.0599766 -0.996277 
-0.0609282 -0.0719337 -0.995547 
-0.0579927 -0.079768 -0.995125 
-0.0570371 -0.0854038 -0.994713 
-0.0503934 -0.0843977 -0.995157 
-0.0318841 -0.058487 -0.997779 
-0.000631165 0.000107347 -1 
0.000286492 0.000565111 1 
0.0158787 -0.0377045 0.999163 
0.0458004 -0.0850028 0.995328 
0.0501406 -0.0816334 0.9954 
0.0501925 -0.074107 0.995986 
0.0574479 -0.067899 0.996037 
0.0546958 -0.0613046 0.996619 
0.0590091 -0.0505751 0.996975 
0.0592486 -0.0404612 0.997423 
0.061754 -0.0323906 0.997566 
0.0623674 -0.0258577 0.997718 
0.0617924 -0.0207549 0.997873 
0.0633354 -0.0165066 0.997856 
0.0639063 -0.0130064 0.997871 
0.0639935 -0.00988592 0.997901 
0.0644295 -0.0071749 0.997896 
0.0643715 -0.00430942 0.997917 
0.0643861 -0.00116137 0.997924 
0.0640149 0.00237728 0.997946 
0.0630748 0.0064771 0.997988 
0.0618863 0.0114962 0.998017 
0.0606338 0.0176186 0.998005 
0.0598155 0.025061 0.997895 
0.0586791 0.0340704 0.997695 
0.0573312 0.0453879 0.997323 
0.0551232 0.0593944 0.996711 
0.0524612 0.0781527 0.99556 
0.0487823 0.102026 0.993585 
0.0451885 0.131639 0.990267 
0.0404197 0.171227 0.984402 
0.0327702 0.229514 0.972754 
0.0265956 0.295856 0.954862 
0.0187385 0.373337 0.927507 
0.012547 0.464016 0.885738 
0.00531625 0.665058 0.746773 
0.000800381 0.792925 0.609319 
-0.00320802 0.915146 0.403109 
-0.00311893 0.949064 0.315068 
-0.00520559 0.984145 0.177291 
-0.00454818 0.999835 -0.017567 
-0.00218124 0.989033 -0.147676 
-0.00470984 0.93816 -0.34617 
-0.00482681 0.866296 -0.499508 
-0.0060577 0.73551 -0.677486 
-0.00818942 0.626304 -0.779536 
-0.0126585 0.516825 -0.855998 
-0.0187225 0.429027 -0.903098 
-0.0231935 0.348287 -0.937101 
-0.0297213 0.268669 -0.962774 
-0.0363601 0.208471 -0.977352 
-0.0424383 0.16104 -0.986035 
-0.0467639 0.122749 -0.991335 
-0.0509946 0.0907026 -0.994572 
-0.0523344 0.0721401 -0.996021 
-0.0559328 0.053722 -0.996988 
-0.0573345 0.0405157 -0.997533 
-0.0589265 0.0302897 -0.997803 
-0.0605938 0.0213868 -0.997933 
-0.0614518 0.0147487 -0.998001 
-0.062906 0.00933051 -0.997976 
-0.0626708 0.00455979 -0.998024 
-0.0635281 0.00060774 -0.99798 
-0.0640654 -0.00290245 -0.997941 
-0.0642655 -0.00595373 -0.997915 
-0.064359 -0.00887881 -0.997887 
-0.0643975 -0.0117704 -0.997855 
-0.0637678 -0.0151383 -0.99785 
-0.0630354 -0.018834 -0.997834 
-0.0629904 -0.0233159 -0.997742 
-0.060801 -0.0292173 -0.997722 
-0.0596394 -0.0362191 -0.997563 
-0.0593781 -0.045143 -0.997214 
-0.0568702 -0.0573607 -0.996732 
-0.0568624 -0.0688395 -0.996006 
-0.0528239 -0.0790343 -0.995471 
-0.0508801 -0.0847726 -0.9951 
-0.0412166 -0.0787179 -0.996045 
-0.0255423 -0.0511022 -0.998367 
-0.000539243 4.57595e-06 -1 
0.000336518 0.000210826 1 
0.0158013 -0.0432948 0.998937 
0.0323646 -0.0689483 0.997095 
0.0395072 -0.0857017 0.995537 
0.0438237 -0.0821348 0.995657 
0.0461809 -0.0686492 0.996571 
0.0493737 -0.0549233 0.997269 
0.0515595 -0.0457396 0.997622 
0.0522465 -0.0353154 0.99801 
0.0535971 -0.0286328 0.998152 
0.0527647 -0.0231933 0.998338 
0.0532747 -0.0182629 0.998413 
0.054171 -0.0146097 0.998425 
0.0549138 -0.011399 0.998426 
0.0543981 -0.00839907 0.998484 
0.0551474 -0.00554305 0.998463 
0.0551291 -0.00232168 0.998477 
0.0547443 0.00127992 0.9985 
0.0537328 0.00534364 0.998541 
0.0528129 0.0101145 0.998553 
0.0517436 0.0159383 0.998533 
0.0509208 0.0231128 0.998435 
0.0499343 0.0316738 0.99825 
0.0490511 0.042228 0.997903 
0.0471547 0.0553693 0.997352 
0.0452756 0.0724852 0.996341 
0.0420922 0.0948936 0.994597 
0.0384522 0.124871 0.991428 
0.0352624 0.161823 0.98619 
0.029857 0.21231 0.976746 
0.0215898 0.291374 0.956366 
0.0139579 0.378945 0.925314 
0.00813938 0.482265 0.875988 
0.00235726 0.593652 0.804719 
0.00633163 0.581238 0.813709 
0.00081621 0.70263 0.711555 
-0.00343303 0.854357 0.519675 
-0.00163607 0.859845 0.510553 
-0.00172132 0.994145 0.10804 
0.00466215 0.99678 0.0800463 
0.00609201 0.999331 -0.0360574 
0.000186861 0.951599 -0.307342 
-0.00218744 0.860345 -0.509708 
-0.0037503 0.768712 -0.639584 
-0.0052325 0.62531 -0.780359 
-0.00794378 0.522217 -0.852776 
-0.0134406 0.418481 -0.908126 
-0.0202617 0.322494 -0.946355 
-0.0265997 0.245682 -0.968985 
-0.0329154 0.188398 -0.981541 
-0.0377266 0.147843 -0.988291 
-0.0425654 0.110551 -0.992959 
-0.0418935 0.0870819 -0.99532 
-0.0461217 0.065274 -0.996801 
-0.0478098 0.0501331 -0.997598 
-0.048486 0.0380058 -0.998101 
-0.0509198 0.0278528 -0.998314 
-0.0515451 0.0200841 -0.998469 
-0.052287 0.0136022 -0.998539 
-0.0539306 0.00828652 -0.99851 
-0.0531284 0.00354306 -0.998581 
-0.0543156 -0.000460139 -0.998524 
-0.0542705 -0.00388462 -0.998519 
-0.0547484 -0.00700302 -0.998476 
-0.0545144 -0.0099359 -0.998464 
-0.0551202 -0.0129617 -0.998396 
-0.0539578 -0.0163373 -0.99841 
-0.0537855 -0.0203355 -0.998345 
-0.0536925 -0.0249692 -0.998245 
-0.0509197 -0.0312082 -0.998215 
-0.0506597 -0.039238 -0.997945 
-0.0514943 -0.0491248 -0.997464 
-0.0477239 -0.0598836 -0.997064 
-0.0492616 -0.0700492 -0.996326 
-0.0448095 -0.0802106 -0.99577 
-0.0440688 -0.0852417 -0.995385 
-0.0354235 -0.0805857 -0.996118 
-0.0198946 -0.0459561 -0.998745 
-0.000428511 6.58995e-05 -1 
0.00032935 8.26735e-06 1 
0.0157446 -0.0527573 0.998483 
0.0294436 -0.0778521 0.99653 
0.0333157 -0.0856308 0.99577 
0.039484 -0.078712 0.996115 
0.0355199 -0.0713756 0.996817 
0.0402878 -0.0603431 0.997364 
0.0384819 -0.0487578 0.998069 
0.043006 -0.0401978 0.998266 
0.0412271 -0.0318749 0.998641 
0.0415106 -0.0262357 0.998794 
0.0427086 -0.0209271 0.998868 
0.042009 -0.0167568 0.998977 
0.0430994 -0.0134571 0.99898 
0.0437377 -0.0104522 0.998988 
0.0430259 -0.00746198 0.999046 
0.0439546 -0.00442853 0.999024 
0.043679 -0.000966243 0.999045 
0.0426904 0.0028591 0.999084 
0.0418192 0.0072834 0.999099 
0.041347 0.0125407 0.999066 
0.0407111 0.0189202 0.998992 
0.0397927 0.0265231 0.998856 
0.0390868 0.035803 0.998594 
0.0380608 0.0470806 0.998166 
0.0366424 0.0619268 0.997408 
0.034651 0.0809782 0.996113 
0.0318865 0.107274 0.993718 
0.0284241 0.142767 0.989348 
0.025477 0.186805 0.982067 
0.0205045 0.25289 0.967278 
0.0122878 0.344355 0.938759 
0.00570004 0.457194 0.889349 
0.00156462 0.571787 0.8204 
-0.00167653 0.74702 0.664799 
0.00232257 0.842972 0.537952 
0.00670553 0.919729 0.392497 
0.00815467 0.982183 0.187751 
0.00238329 0.953649 0.300913 
0.00288932 0.999969 0.00728183 
-0.00275904 0.984875 -0.173244 
0.00239604 0.974263 -0.225403 
0.00223578 0.922465 -0.386074 
0.000545498 0.791564 -0.611086 
-0.00206423 0.69228 -0.721626 
-0.00383038 0.545308 -0.838227 
-0.00778264 0.446394 -0.894803 
-0.0127923 0.354221 -0.935074 
-0.0184449 0.271236 -0.962336 
-0.0237605 0.205665 -0.978334 
-0.0277559 0.157924 -0.987061 
-0.0330557 0.123218 -0.991829 
-0.031343 0.10129 -0.994363 
-0.0353876 0.0756607 -0.996505 
-0.036983 0.0583522 -0.997611 
-0.0377413 0.0445431 -0.998294 
-0.039495 0.0328186 -0.998681 
-0.0403222 0.0241994 -0.998894 
-0.0410681 0.0169319 -0.999013 
-0.0419182 0.010774 -0.999063 
-0.0427651 0.00587592 -0.999068 
-0.0426419 0.00106919 -0.99909 
-0.042756 -0.00267047 -0.999082 
-0.0431732 -0.0060952 -0.999049 
-0.0429715 -0.00913663 -0.999035 
-0.0434379 -0.0122057 -0.998982 
-0.0430458 -0.0153465 -0.998955 
-0.0428344 -0.0191842 -0.998898 
-0.0422243 -0.0237351 -0.998826 
-0.0410928 -0.0291337 -0.99873 
-0.0402629 -0.0372328 -0.998495 
-0.0411961 -0.0474088 -0.998026 
-0.0386936 -0.0601513 -0.997439 
-0.0389691 -0.073137 -0.99656 
-0.0345661 -0.0824729 -0.995994 
-0.0354477 -0.0865029 -0.995621 
-0.0282845 -0.0837368 -0.996086 
-0.0194123 -0.0545669 -0.998321 
-0.000325007 6.34325e-05 -1 
0.000365635 -6.64922e-05 1 
0.012093 -0.0522506 0.998561 
0.0251099 -0.0841759 0.996134 
0.0243849 -0.0877562 0.995843 
0.0304237 -0.0826209 0.996117 
0.0276007 -0.0732785 0.99693 
0.0305555 -0.0588056 0.997802 
0.0287891 -0.0467238 0.998493 
0.0323426 -0.0379358 0.998757 
0.0294082 -0.0309972 0.999087 
0.0317943 -0.0248427 0.999186 
0.03236 -0.0200474 0.999275 
0.0311801 -0.016195 0.999383 
0.0325416 -0.0129813 0.999386 
0.0331935 -0.00993059 0.9994 
0.0322096 -0.0068029 0.999458 
0.0331717 -0.00351113 0.999444 
0.0322745 0.000212262 0.999479 
0.0313999 0.00447881 0.999497 
0.0311516 0.00953031 0.999469 
0.0309435 0.0154241 0.999402 
0.0302652 0.022451 0.99929 
0.0296362 0.031034 0.999079 
0.0288203 0.0414101 0.998726 
0.0281045 0.0545164 0.998117 
0.0266056 0.0715899 0.997079 
0.0248844 0.0943558 0.995227 
0.0223298 0.125534 0.991838 
0.0191993 0.167694 0.985652 
0.0171117 0.220632 0.975207 
0.0124869 0.289811 0.957002 
0.00657853 0.392675 0.919654 
0.00304389 0.495381 0.868671 
0.00164816 0.606039 0.795433 
-0.000412066 0.699672 0.714464 
0.00885389 0.873453 0.486828 
0.00797371 0.942984 0.332744 
0.0076113 0.996644 0.0815076 
0.00352502 0.997816 0.0659611 
0.00307768 0.998447 0.0556312 
0.000779762 0.999664 0.0259088 
-0.00160646 0.997192 -0.0748662 
-0.0033663 0.944699 -0.327921 
0.00114113 0.87077 -0.491688 
-0.000767194 0.617376 -0.786668 
-0.000157521 0.573229 -0.819395 
-0.00314943 0.478176 -0.878258 
-0.00673968 0.382199 -0.924055 
-0.0113744 0.302055 -0.953223 
-0.0156078 0.230394 -0.972972 
-0.019205 0.172834 -0.984764 
-0.0230502 0.130071 -0.991237 
-0.0248803 0.0925232 -0.9954 
-0.0264917 0.0711622 -0.997113 
-0.0280372 0.0545592 -0.998117 
-0.0292156 0.0404082 -0.998756 
-0.0296646 0.0301652 -0.999105 
-0.0305128 0.0217824 -0.999297 
-0.0313027 0.0147596 -0.999401 
-0.0313155 0.00903771 -0.999469 
-0.0330555 0.0039715 -0.999446 
-0.0316926 -0.000432324 -0.999498 
-0.0323849 -0.00424745 -0.999466 
-0.0320754 -0.00751805 -0.999457 
-0.0324307 -0.0106133 -0.999418 
-0.0321161 -0.0135773 -0.999392 
-0.032522 -0.0169132 -0.999328 
-0.0319967 -0.0208139 -0.999271 
-0.0308488 -0.0254418 -0.9992 
-0.031314 -0.0319159 -0.999 
-0.0297029 -0.0400148 -0.998758 
-0.0317978 -0.0487943 -0.998303 
-0.0284747 -0.0593578 -0.997831 
-0.0302788 -0.0710709 -0.997012 
-0.0266724 -0.0818026 -0.996292 
-0.0259858 -0.0877777 -0.995801 
-0.0205222 -0.0818387 -0.996434 
-0.0130134 -0.0486353 -0.998732 
-0.000254386 -2.52306e-05 -1 
0.00016188 -0.00010266 1 
0.0088208 -0.0535551 0.998526 
0.0181483 -0.0829466 0.996389 
0.0181662 -0.0888188 0.995882 
0.022583 -0.0827207 0.996317 
0.0195812 -0.0732012 0.997125 