# vtk DataFile Version 3.0 
Exported using Morpho https://github.com/Morpho-lang/morpho 
ASCII 
DATASET UNSTRUCTURED_GRID 

POINTS 1978 float 
-8.4853 -2.82844 -6.01267e-09 
-8.24698 -2.82843 -5.15347e-09 
-8.00914 -2.82843 2.12996e-09 
-7.77464 -2.82842 1.35117e-09 
-7.4776 -2.82845 3.74856e-09 
-7.16107 -2.82843 6.19527e-09 
-6.97136 -2.82843 -8.72905e-09 
-6.74428 -2.82844 -2.95412e-09 
-6.55133 -2.82842 -7.13771e-09 
-6.3568 -2.82844 -5.032e-10 
-6.16109 -2.82843 3.05811e-09 
-5.94569 -2.82843 -1.23116e-09 
-5.74523 -2.82843 -4.41412e-10 
-5.53239 -2.82843 -5.4724e-10 
-5.29856 -2.82843 3.43001e-10 
-5.0947 -2.82843 3.76222e-10 
-4.8764 -2.82843 7.23316e-10 
-4.66383 -2.82843 1.26112e-09 
-4.45182 -2.82843 1.82177e-09 
-4.24974 -2.82843 2.67767e-09 
-4.04044 -2.82843 3.18628e-09 
-3.83677 -2.82843 3.90445e-09 
-3.62325 -2.82843 4.74217e-09 
-3.43016 -2.82843 6.38049e-09 
-3.22033 -2.82843 1.11552e-08 
-3.01245 -2.82843 9.40859e-09 
-2.82453 -2.82843 1.29492e-08 
-2.62251 -2.82843 1.88935e-08 
-2.412 -2.82843 1.47558e-08 
-2.20182 -2.82843 5.17935e-08 
-2.02612 -2.82842 -2.58179e-09 
-1.84193 -2.82844 -2.96342e-09 
-1.65419 -2.82843 1.85614e-08 
-1.46362 -2.82841 6.94801e-08 
-1.29415 -2.82841 7.3221e-07 
-1.09012 -2.82839 -3.93817e-07 
-0.820751 -2.82838 5.07852e-06 
-0.557772 -2.82832 -2.62285e-06 
-0.164758 -2.82828 4.65534e-06 
0.115414 -2.8283 -5.02819e-06 
0.445977 -2.82832 -2.48926e-07 
0.638375 -2.82836 -3.34512e-07 
0.819419 -2.8284 -2.00543e-06 
1.01597 -2.82837 -6.28553e-07 
1.20269 -2.82843 -1.24827e-06 
1.3827 -2.82841 -2.93104e-07 
1.59215 -2.82842 -2.1629e-07 
1.83402 -2.82843 -3.1097e-08 
2.05026 -2.82843 1.62832e-08 
2.23844 -2.82843 -4.9571e-09 
2.44952 -2.82843 -1.44219e-08 
2.61302 -2.82842 -2.52655e-08 
2.81429 -2.82844 -1.32281e-08 
3.01036 -2.82843 -1.25049e-08 
3.19963 -2.82845 -7.0442e-09 
3.39477 -2.82843 -9.83593e-09 
3.61287 -2.82843 -5.78434e-09 
3.8278 -2.82843 -4.35088e-09 
4.04101 -2.82843 -3.96804e-09 
4.25254 -2.82843 -2.84737e-09 
4.46468 -2.82843 -2.5994e-09 
4.67002 -2.82843 -1.90901e-09 
4.8796 -2.82843 -9.54934e-10 
5.08208 -2.82843 -3.57579e-10 
5.28963 -2.82843 6.60571e-10 
5.50076 -2.82843 -5.04233e-10 
5.71628 -2.82843 9.06472e-10 
5.93657 -2.82843 9.32342e-10 
6.15844 -2.82843 2.53259e-09 
6.38108 -2.82843 1.63724e-09 
6.60446 -2.82843 2.90915e-09 
6.83169 -2.82843 4.85833e-09 
7.04494 -2.82843 3.09653e-09 
7.30343 -2.82843 3.6815e-09 
7.54051 -2.82843 6.41725e-09 
7.76213 -2.82843 -9.90772e-10 
8.03205 -2.82843 -5.02362e-09 
8.22338 -2.82843 1.02069e-08 
8.4853 -2.82844 4.40913e-09 
-8.48529 -2.60974 6.26587e-09 
-8.24517 -2.60225 -1.14422e-16 
-8.01715 -2.58846 -6.35265e-16 
-7.785 -2.60073 -4.1784e-16 
-7.53284 -2.64602 2.44306e-16 
-7.2493 -2.65773 3.24139e-16 
-6.98886 -2.5481 -1.23329e-16 
-6.79118 -2.60632 4.41334e-17 
-6.56342 -2.56309 -1.1707e-16 
-6.35187 -2.57184 1.31099e-16 
-6.12116 -2.59722 1.9244e-16 
-5.90447 -2.58012 5.50936e-17 
-5.68712 -2.5903 9.20842e-17 
-5.45319 -2.61373 7.21048e-17 
-5.23358 -2.58712 1.04501e-16 
-5.01497 -2.60539 1.4569e-16 
-4.7959 -2.60148 1.54087e-16 
-4.58014 -2.60176 1.84432e-16 
-4.37085 -2.59139 2.18059e-16 
-4.16074 -2.59905 2.82718e-16 
-3.9511 -2.59342 3.21558e-16 
-3.73711 -2.6041 3.20878e-16 
-3.52822 -2.58107 2.50384e-16 
-3.32103 -2.6028 3.85037e-16 
-3.10593 -2.60095 4.44288e-16 
-2.89934 -2.57592 2.80081e-16 
-2.69972 -2.59609 1.62723e-16 
-2.48032 -2.59887 1.7596e-16 
-2.25598 -2.59503 -3.00615e-16 
-2.04026 -2.54336 -6.48364e-16 
-1.84449 -2.56748 -1.25831e-16 
-1.63679 -2.5707 3.00659e-15 
-1.4497 -2.5089 7.31596e-15 
-1.24828 -2.53545 1.4389e-15 
-1.04944 -2.49195 3.56071e-14 
-0.856785 -2.593 1.39818e-13 
-0.65705 -2.52363 -1.64514e-14 
-0.399797 -2.65344 5.17807e-14 
-0.252671 -2.4726 -1.95596e-14 
-0.0241109 -2.58665 -1.88091e-14 
0.258766 -2.60138 2.39552e-14 
0.4799 -2.46132 -1.51495e-14 
0.672256 -2.46141 -7.87974e-14 
0.866334 -2.51873 -6.89291e-15 
1.04401 -2.46151 3.91618e-15 
1.21986 -2.53295 -2.11624e-14 
1.44164 -2.57745 -1.06213e-14 
1.6951 -2.62209 -2.73343e-15 
1.93698 -2.59569 -8.35201e-16 
2.15101 -2.57896 8.68698e-17 
2.36849 -2.60548 7.67977e-18 
2.57284 -2.5359 5.30664e-16 
2.76169 -2.59848 -2.54947e-16 
2.97344 -2.59561 -5.21972e-16 
3.18652 -2.58087 -2.86757e-16 
3.40624 -2.60474 -5.2127e-16 
3.62565 -2.59958 -4.21035e-16 
3.84662 -2.59824 -3.59933e-16 
4.06515 -2.59694 -2.79799e-16 
4.28266 -2.59786 -2.42365e-16 
4.49449 -2.59192 -2.22546e-16 
4.70897 -2.59721 -1.63985e-16 
4.91815 -2.58966 -1.43926e-16 
5.12945 -2.59441 -1.07106e-16 
5.34382 -2.59685 -1.01306e-16 
5.56215 -2.59862 -9.59767e-17 
5.78483 -2.60005 -8.35165e-17 
6.00904 -2.59783 -5.05989e-17 
6.2343 -2.59509 -5.81325e-17 
6.4595 -2.59332 -7.75213e-17 
6.68777 -2.59331 -3.81795e-17 
6.90537 -2.57604 6.99588e-17 
7.14428 -2.6172 5.93299e-17 
7.39192 -2.5998 9.21287e-17 
7.61749 -2.58339 3.3423e-16 
7.86483 -2.62655 3.58002e-16 
8.0688 -2.54417 3.72063e-16 
8.29539 -2.61971 3.82002e-16 
8.48529 -2.54105 -5.47002e-09 
-8.48528 -2.38741 4.31739e-09 
-8.24929 -2.36982 2.76252e-16 
-8.01221 -2.34953 2.76302e-16 
-7.78261 -2.37403 1.02945e-16 
-7.56465 -2.23731 4.11605e-16 
-7.52878 -2.44916 -1.80473e-16 
-7.25562 -2.45553 -1.16257e-16 
-6.99904 -2.33999 2.08996e-16 
-6.73697 -2.3602 8.85085e-17 
-6.49075 -2.32801 8.74582e-17 
-6.25961 -2.35901 1.7175e-17 
-6.0429 -2.35094 -6.75709e-17 
-5.8202 -2.34497 -1.1236e-16 
-5.59201 -2.37889 -1.28172e-16 
-5.37893 -2.37323 -1.76179e-16 
-5.14988 -2.36622 -2.61255e-16 
-4.93705 -2.37962 -2.83812e-16 
-4.71919 -2.3764 -3.37849e-16 
-4.50854 -2.36765 -4.30683e-16 
-4.29218 -2.365 -5.05023e-16 
-4.08193 -2.36592 -5.66452e-16 
-3.86242 -2.37172 -6.04861e-16 
-3.65279 -2.36457 -7.49753e-16 
-3.42684 -2.35926 -8.98878e-16 
-3.21742 -2.37674 -7.95183e-16 
-3.00729 -2.35708 -8.74277e-16 
-2.78703 -2.34308 -9.77325e-16 
-2.57802 -2.37692 -7.08656e-16 
-2.34752 -2.36938 -9.10766e-16 
-2.12761 -2.32252 4.53597e-16 
-1.88511 -2.31196 1.57161e-15 
-1.67805 -2.30915 -3.56851e-15 
-1.50224 -2.20944 -3.81839e-15 
-1.30535 -2.22632 -6.30369e-15 
-1.1057 -2.18701 -3.33152e-14 
-0.854401 -2.28505 -1.63406e-16 
-0.518951 -2.3342 5.25934e-14 
-0.424858 -2.11429 -1.6324e-13 
-0.207771 -2.18344 -9.48687e-15 
0.0159969 -2.28938 7.7745e-14 
0.252198 -2.32146 -6.36506e-14 
0.469388 -2.12073 5.88885e-15 
0.677075 -2.11522 8.73032e-14 
0.870243 -2.18724 5.6879e-14 
1.05497 -2.0981 1.28872e-14 
1.2198 -2.2352 1.59803e-14 
1.42205 -2.31981 6.68146e-15 
1.65247 -2.40342 -3.1047e-16 
1.89111 -2.37862 -1.48719e-15 
2.12316 -2.33817 1.65082e-15 
2.33504 -2.36937 7.15602e-16 
2.5335 -2.29687 8.16834e-16 
2.75423 -2.34754 7.02297e-16 
2.94954 -2.36324 7.86818e-16 
3.15819 -2.35602 9.36458e-16 
3.37254 -2.3749 8.76339e-16 
3.58446 -2.3713 7.17703e-16 
3.79837 -2.37155 6.0188e-16 
4.01647 -2.36731 5.83468e-16 
4.23274 -2.36882 4.76108e-16 
4.44644 -2.36011 4.43359e-16 
4.65996 -2.36679 3.46013e-16 
4.872 -2.35724 3.38707e-16 
5.08496 -2.36176 2.78635e-16 
5.29819 -2.36611 2.1845e-16 
5.51401 -2.37012 1.56056e-16 
5.73449 -2.37312 1.11739e-16 
5.95784 -2.36953 9.2218e-17 
6.18251 -2.36531 2.4354e-17 
6.40868 -2.3597 -5.13154e-17 
6.63429 -2.36095 -7.33646e-17 
6.85787 -2.3319 -1.59429e-16 
7.08576 -2.37982 -1.69311e-16 
7.31702 -2.38639 -2.05473e-16 
7.55633 -2.34458 -3.00873e-16 
7.79218 -2.39211 5.89565e-17 
8.00829 -2.31427 -2.61861e-16 
8.25173 -2.3612 -4.61952e-16 
8.48529 -2.31099 -6.40805e-09 
-8.48528 -2.15611 1.23337e-08 
-8.24214 -2.14118 5.41079e-16 
-8.03995 -2.09327 9.94198e-17 
-7.80597 -2.12866 8.82109e-17 
-7.5118 -2.03917 2.39073e-16 
-7.30152 -2.26 3.94834e-16 
-7.08737 -2.13529 2.30989e-16 
-6.81849 -2.14361 1.042e-16 
-6.57922 -2.13182 6.47568e-17 
-6.31262 -2.12284 4.75655e-17 
-6.09964 -2.11406 -2.83945e-17 
-5.88 -2.11228 -7.16137e-17 
-5.65157 -2.14292 -8.37384e-17 
-5.43785 -2.13498 -1.06933e-16 
-5.22396 -2.15012 -1.65244e-16 
-4.99847 -2.1441 -1.85233e-16 
-4.78852 -2.15442 -2.15247e-16 
-4.57359 -2.141 -2.47226e-16 
-4.35942 -2.14147 -3.14824e-16 
-4.14417 -2.13326 -3.27269e-16 
-3.92992 -2.14561 -3.89346e-16 
-3.71639 -2.13409 -4.07447e-16 
-3.50014 -2.14445 -5.69624e-16 
-3.2745 -2.13606 -5.5772e-16 
-3.07181 -2.12938 -5.42758e-16 
-2.85769 -2.12374 -6.32466e-16 
-2.62829 -2.12824 -6.66805e-16 
-2.42404 -2.14781 2.16815e-17 
-2.22643 -2.08438 -2.04291e-16 
-1.99404 -2.10113 -3.86229e-16 
-1.77056 -2.05286 2.90049e-15 
-1.5555 -1.97326 -4.05419e-15 
-1.31959 -1.916 8.74296e-15 
-1.15824 -1.78124 -2.58038e-14 
-1.00911 -1.99371 -2.41826e-14 
-0.724744 -2.10894 -7.09508e-14 
-0.51859 -1.90289 -5.5963e-14 
-0.420296 -1.66297 7.52156e-14 
-0.185457 -1.87905 -1.01818e-13 
0.0397013 -2.00018 6.59823e-14 
0.265458 -1.97831 -9.57183e-15 
0.288317 -1.60963 -5.79541e-14 
0.47997 -1.75845 1.39226e-13 
0.683405 -1.77743 -3.15924e-14 
0.882325 -1.86341 -3.61288e-14 
1.19735 -1.9136 1.82036e-14 
1.40861 -2.0412 -1.41103e-16 
1.62557 -2.16293 -8.21686e-16 
1.85242 -2.15471 1.74169e-15 
2.09108 -2.11893 -1.3984e-15 
2.32659 -2.12225 3.43763e-16 
2.59561 -2.09554 4.69647e-16 
2.7993 -2.10556 2.68879e-16 
3.007 -2.1309 7.73614e-16 
3.21991 -2.13274 5.10917e-16 
3.42856 -2.14372 5.2293e-16 
3.64012 -2.13915 4.35529e-16 
3.85525 -2.14209 4.1973e-16 
4.07264 -2.1383 3.79078e-16 
4.28462 -2.13604 3.14686e-16 
4.49922 -2.13088 2.48846e-16 
4.70888 -2.13359 2.18134e-16 
4.92359 -2.12846 1.78228e-16 
5.13527 -2.13219 1.53207e-16 
5.3476 -2.13662 1.25562e-16 
5.56356 -2.1429 8.83194e-17 
5.78121 -2.14414 7.44853e-17 
6.00122 -2.13857 6.7354e-17 
6.22329 -2.13338 -4.35112e-19 
6.44551 -2.12522 -6.42413e-17 
6.66427 -2.11942 -6.9965e-17 
6.89782 -2.10123 -1.13724e-16 
7.1204 -2.14923 -2.39886e-16 
7.35079 -2.15499 -3.10876e-16 
7.55883 -2.08622 -2.06018e-16 
7.76627 -2.1552 -1.56352e-16 
7.98842 -2.08154 1.08568e-16 
8.22607 -2.13595 -6.89162e-16 
8.48528 -2.10364 -1.68285e-08 
-8.4853 -1.82367 1.07509e-09 
-8.32415 -1.91628 -4.53201e-16 
-7.90041 -1.88471 -4.14574e-16 
-7.67054 -1.8921 -1.3637e-16 
[...]
POINT_DATA 1978 
VECTORS vectors float
0.0113963 -0.0153507 0.999823 
0.0141808 -0.0239023 0.9996 
0.0114297 -0.0287506 0.999518 
0.00985385 -0.0230585 0.999678 
0.00815763 -0.0154481 0.999845 
0.00848343 -0.00874298 0.999912 
0.0120009 -0.00519779 0.999907 
0.0114322 -0.00164715 0.999924 
0.0118669 0.000446331 0.999926 
0.0117182 0.00219224 0.999921 
0.0123582 0.00295209 0.999909 
0.0126482 0.00395314 0.999902 
0.0126441 0.00499131 0.999897 
0.0125073 0.00592354 0.999892 
0.0124824 0.00730902 0.999884 
0.0123552 0.00902289 0.999873 
0.0123185 0.0112254 0.999851 
0.0121044 0.0136669 0.999824 
0.0118296 0.0169203 0.999779 
0.0114859 0.0208279 0.99971 
0.0111029 0.0258493 0.999598 
0.0106895 0.0318067 0.999431 
0.0100993 0.0394993 0.999164 
0.00947111 0.0482309 0.998788 
0.00875839 0.0594456 0.99819 
0.00753994 0.0734403 0.99727 
0.00659309 0.0889763 0.996012 
0.00514983 0.108871 0.994044 
0.00278879 0.136041 0.990701 
0.00166962 0.168205 0.985754 
-0.00181447 0.202806 0.979218 
-0.00628334 0.255547 0.966769 
-0.00931912 0.308007 0.951333 
-0.012698 0.38502 0.922809 
-0.0138985 0.459696 0.887941 
-0.0190382 0.540342 0.841173 
-0.0201705 0.702438 0.71122 
-0.0158751 0.841377 0.540302 
-0.00589722 0.982444 0.186403 
0.004717 0.994223 -0.107146 
0.0160374 0.892916 -0.449855 
0.0201541 0.799154 -0.600726 
0.0170454 0.707873 -0.706077 
0.0157485 0.605667 -0.79555 
0.0151794 0.50957 -0.860254 
0.0155366 0.42995 -0.902689 
0.0112594 0.340206 -0.940267 
0.00584048 0.258279 -0.966053 
0.00262206 0.200752 -0.979642 
-0.000348995 0.161901 -0.986809 
-0.00315943 0.130615 -0.991435 
-0.00486453 0.109752 -0.993946 
-0.00632094 0.0894481 -0.995976 
-0.00759485 0.074734 -0.997173 
-0.00861113 0.0618241 -0.998045 
-0.00941121 0.0503565 -0.998684 
-0.0100619 0.0405386 -0.999122 
-0.010647 0.0328203 -0.999399 
-0.0110958 0.0262407 -0.999587 
-0.0114673 0.0209466 -0.999707 
-0.0118379 0.0167569 -0.999782 
-0.0120476 0.013534 -0.999827 
-0.0123412 0.0111245 -0.999853 
-0.0123977 0.00916278 -0.999872 
-0.0125264 0.00755073 -0.999883 
-0.0126278 0.00616676 -0.99989 
-0.0126999 0.00511012 -0.999895 
-0.0127293 0.00417123 -0.999899 
-0.0126144 0.00316302 -0.999904 
-0.0123832 0.00163748 -0.999911 
-0.0123415 -0.000163956 -0.999914 
-0.0120003 -0.00304533 -0.999915 
-0.0112325 -0.00661922 -0.999906 
-0.0111155 -0.0112095 -0.999867 
-0.0109694 -0.0167948 -0.999791 
-0.0103814 -0.0227671 -0.999679 
-0.0114981 -0.0293803 -0.999496 
-0.0139145 -0.0239119 -0.999606 
-0.0105009 -0.0153543 -0.999825 
0.00789158 -0.0186421 0.999773 
0.0103704 -0.0204091 0.999747 
0.0103175 -0.0243256 0.999658 
0.011009 -0.0230545 0.999682 
0.0121821 -0.0172994 0.999796 
0.0121532 -0.0105751 0.999896 
0.0133859 -0.0060686 0.9999 
0.0131732 -0.00273245 0.999918 
0.0136665 -0.000493194 0.999908 
0.0140569 0.00119953 0.999908 
0.0133549 0.00265758 0.999913 
0.0143173 0.00389834 0.999896 
0.0140825 0.00511303 0.999894 
0.0136477 0.00652609 0.999895 
0.0141465 0.00815469 0.999871 
0.0136491 0.0100145 0.999863 
0.0135461 0.0123898 0.999837 
0.0132327 0.0153246 0.999801 
0.0130545 0.0188885 0.999741 
0.0123171 0.0233248 0.999658 
0.0118356 0.0289339 0.999517 
0.0111077 0.0359658 0.999299 
0.010794 0.0445004 0.998957 
0.00937051 0.054714 0.998465 
0.00797443 0.0680523 0.997657 
0.00677343 0.0841246 0.996439 
0.00492651 0.10277 0.994701 
0.00255736 0.128437 0.991723 
1.89026e-05 0.162859 0.986663 
-0.0034301 0.204218 0.978925 
-0.00701623 0.253195 0.967398 
-0.0100777 0.319381 0.947578 
-0.0129929 0.396386 0.917989 
-0.0155473 0.489244 0.872 
-0.0138549 0.58488 0.810954 
-0.0195118 0.674512 0.738017 
-0.0146066 0.789365 0.613699 
-0.0170352 0.914564 0.404127 
-0.0087345 0.962218 0.272066 
-0.00360003 0.999348 0.0353688 
0.00570013 0.965075 -0.261918 
0.00784572 0.880951 -0.473088 
0.0118824 0.786618 -0.617304 
0.0140015 0.688932 -0.724678 
0.0133328 0.597536 -0.801702 
0.0127858 0.507325 -0.861667 
0.0103441 0.406085 -0.913777 
0.00721589 0.305671 -0.952118 
0.00425688 0.233208 -0.972427 
0.00110167 0.183904 -0.982955 
-0.00190779 0.144618 -0.98949 
-0.00432887 0.118128 -0.993 
-0.00535697 0.0965843 -0.995315 
-0.0071376 0.078319 -0.996912 
-0.00872918 0.0630873 -0.997982 
-0.00967073 0.0504898 -0.998685 
-0.0104836 0.0405009 -0.999132 
-0.0112791 0.0324467 -0.999417 
-0.0120439 0.0259727 -0.999597 
-0.0126221 0.0207632 -0.999711 
-0.0131276 0.0167381 -0.999779 
-0.0135247 0.0134576 -0.999824 
-0.0139783 0.0109762 -0.999847 
-0.0140531 0.00897845 -0.999866 
-0.0140875 0.00738922 -0.999879 
-0.0140863 0.00602243 -0.999889 
-0.0140604 0.00474278 -0.999896 
-0.0139569 0.00347913 -0.999903 
-0.013658 0.00219978 -0.999911 
-0.0134514 0.000538293 -0.999917 
-0.0132034 -0.00184487 -0.999919 
-0.0129175 -0.00479018 -0.999911 
-0.0122508 -0.00862612 -0.9999 
-0.0118457 -0.0138757 -0.999843 
-0.0113213 -0.0193421 -0.999757 
-0.0107667 -0.024538 -0.999652 
-0.0104126 -0.0223487 -0.9997 
-0.00969383 -0.019734 -0.999771 
-0.00797075 -0.0176281 -0.999771 
0.00843175 -0.0166665 0.99981 
0.0113257 -0.0170517 0.999793 
0.0145727 -0.023281 0.999632 
0.0157815 -0.0236489 0.9996 
0.0183842 -0.0194282 0.99965 
0.0140513 -0.0176786 0.99975 
0.0144248 -0.0113959 0.999834 
0.0191045 -0.00732217 0.999799 
0.0195124 -0.00345545 0.999814 
0.0210768 -0.000576812 0.999785 
0.0204898 0.00147388 0.999796 
0.0216653 0.00284511 0.999769 
0.0217724 0.00424158 0.999762 
0.0211436 0.00579266 0.999766 
0.0212209 0.00728169 0.999755 
0.0215614 0.00910412 0.999733 
0.0209005 0.0111651 0.999726 
0.0205631 0.013835 0.9997 
0.0202332 0.0170085 0.999658 
0.0194817 0.0210564 0.999596 
0.0184819 0.0260083 0.999498 
0.0173363 0.0325401 0.999328 
0.0164734 0.0403274 0.999059 
0.0151969 0.0507621 0.998603 
0.0131723 0.0625695 0.997962 
0.0113615 0.0775459 0.996932 
0.00892234 0.0969405 0.995259 
0.0055889 0.119316 0.99285 
0.00166194 0.150464 0.98862 
-0.00278867 0.189202 0.981949 
-0.00865011 0.250296 0.968141 
-0.0132812 0.314047 0.949322 
-0.016766 0.37913 0.925197 
-0.0193476 0.460542 0.88743 
-0.0208034 0.553762 0.83242 
-0.0193011 0.679338 0.733557 
-0.015788 0.861758 0.507037 
-0.0160342 0.898026 0.43963 
-0.0108378 0.976502 0.21546 
-0.00410791 0.999996 0.00253674 
0.00202561 0.965354 -0.260871 
0.00470713 0.893053 -0.449917 
0.00864545 0.793951 -0.607909 
0.0134218 0.685372 -0.728062 
0.0130298 0.582437 -0.812772 
0.0153779 0.50411 -0.8635 
0.0133834 0.410849 -0.911605 
0.0101389 0.320035 -0.94736 
0.00614769 0.248804 -0.968541 
0.00168682 0.195201 -0.980771 
-0.00230617 0.155213 -0.987888 
-0.00601631 0.127696 -0.991801 
-0.00868548 0.100453 -0.994916 
-0.0107373 0.0826322 -0.99653 
-0.0129163 0.0666147 -0.997704 
-0.0144646 0.0538464 -0.998452 
-0.015678 0.0434964 -0.998939 
-0.0167818 0.0351137 -0.99925 
-0.0179997 0.0282001 -0.999448 
-0.0188635 0.0226594 -0.999573 
-0.0199288 0.0183334 -0.999641 
-0.0204403 0.0147961 -0.999689 
-0.0213641 0.0119998 -0.999707 
-0.0216774 0.00973085 -0.999725 
-0.0217821 0.00794906 -0.999738 
-0.0217263 0.00644312 -0.99975 
-0.0215344 0.00494285 -0.999762 
-0.0214099 0.0034013 -0.999772 
-0.0209938 0.001993 -0.999785 
-0.0206226 0.000317739 -0.999795 
-0.0199552 -0.00209402 -0.999806 
-0.0198891 -0.0050999 -0.999799 
-0.0181238 -0.00843417 -0.999806 
-0.0171817 -0.0129806 -0.999776 
-0.0170705 -0.0187247 -0.999689 
-0.0151632 -0.0237549 -0.99961 
-0.0152558 -0.0237945 -0.999606 
-0.0114189 -0.0167035 -0.999797 
-0.00935769 -0.0166021 -0.999808 
0.00599399 -0.0144742 0.999834 
0.0116653 -0.0173847 0.999782 
0.0147619 -0.024216 0.9996 
0.0169326 -0.0252558 0.999554 
0.0173224 -0.0188142 0.999683 
0.0191914 -0.0132845 0.999738 
0.0200034 -0.00955215 0.999764 
0.0206401 -0.00542123 0.999782 
0.0212986 -0.00226948 0.99978 
0.021631 0.000551853 0.999775 
0.0219477 0.00207481 0.999767 
0.0220548 0.00364003 0.99976 
0.0223834 0.00549229 0.999744 
0.0222196 0.00713066 0.999737 
0.0222624 0.00879405 0.999723 
0.0218001 0.0110119 0.999711 
0.0213761 0.0134598 0.99969 
0.0206107 0.0164851 0.999661 
0.0199257 0.0202632 0.999605 
0.0188949 0.0252222 0.999512 
0.0180096 0.0313186 0.999356 
0.0168055 0.0388807 0.999112 
0.0157158 0.0482648 0.99872 
0.0138443 0.0607064 0.998069 
0.0119501 0.0744125 0.997165 
0.00964405 0.0920698 0.995715 
0.00648124 0.115909 0.993249 
0.00306081 0.143173 0.989702 
-0.000893924 0.17715 0.984192 
-0.00562992 0.224769 0.974404 
-0.00944533 0.284932 0.958511 
-0.0114574 0.354325 0.935061 
-0.012741 0.442657 0.896606 
-0.0107456 0.518408 0.85507 
-0.0175164 0.612106 0.790582 
-0.0192693 0.756209 0.654057 
-0.0126857 0.857387 0.514509 
-0.00585658 0.889956 0.456002 
-0.00903343 0.977474 0.210872 
-0.00621829 0.999182 -0.039555 
-0.00244395 0.961629 -0.274329 
-0.0112843 0.952907 -0.302983 
-0.00634412 0.876314 -0.481679 
-0.00317534 0.771157 -0.63663 
0.00207934 0.667504 -0.7446 
0.00653283 0.510428 -0.859901 
0.00999712 0.417591 -0.908588 
0.0105315 0.334535 -0.942331 
0.00620545 0.263091 -0.964761 
0.00122058 0.20593 -0.978576 
-0.00284484 0.159891 -0.987141 
-0.00677157 0.120437 -0.992712 
-0.00907325 0.0980326 -0.995148 
-0.0115867 0.0787906 -0.996833 
-0.0134195 0.0640768 -0.997863 
-0.0150531 0.0520077 -0.998543 
-0.0163312 0.0422333 -0.998984 
-0.0175891 0.0340421 -0.999275 
-0.0186586 0.0273037 -0.999462 
-0.0195205 0.0220797 -0.999575 
-0.0202561 0.0179142 -0.999643 
-0.0209727 0.0146411 -0.999682 
-0.0215206 0.0119037 -0.999707 
-0.0219674 0.00967773 -0.999721 
-0.0223065 0.00786269 -0.999729 
-0.0225419 0.00624913 -0.999735 
-0.0226048 0.00454651 -0.999743 
-0.0223935 0.00277619 -0.999755 
-0.0219034 0.00119147 -0.999769 
-0.0213106 -0.000678556 -0.999782 
-0.0207093 -0.003252 -0.99979 
-0.0200223 -0.00652077 -0.999787 
-0.0197322 -0.00992639 -0.999767 
-0.0191275 -0.0147272 -0.999717 
-0.0175656 -0.0199738 -0.999656 
-0.0171261 -0.0243723 -0.999566 
-0.0149421 -0.0254567 -0.999571 
-0.0120588 -0.0167438 -0.999787 
-0.00696599 -0.0174016 -0.999806 
0.00582621 -0.0128229 0.999844 
0.00769384 -0.0191415 0.999819 
0.0126271 -0.0273492 0.999554 
0.0139835 -0.0236209 0.999632 
0.0134271 -0.0182772 0.999755 
0.0175474 -0.0140211 0.999757 
0.0145698 -0.0124933 0.999825 
0.0171207 -0.00836688 0.99983 
0.0175845 -0.00483844 0.999844 
0.0185565 -0.00168393 0.999836 
0.0176993 0.0002892 0.999853 
0.0182674 0.00204208 0.999841 
0.0184558 0.00406788 0.999831 
0.0185877 0.00598775 0.999819 
0.0184362 0.00771942 0.99981 
0.0187352 0.00952207 0.999788 
0.0180503 0.0118069 0.999776 
0.0177721 0.0143581 0.999748 
0.0170185 0.0174625 0.999712 
0.0164234 0.0213983 0.999645 
0.0155519 0.0266407 0.999533 
0.0148272 0.0328707 0.999359 
0.0137599 0.0407344 0.999084 
0.0128292 0.0507031 0.998641 
0.0110988 0.0623975 0.997999 
0.0096184 0.076878 0.997003 
0.00767908 0.0960998 0.995351 
0.00506544 0.118487 0.992951 
0.00242639 0.14439 0.989528 
-0.00119264 0.188813 0.982022 
-0.00407061 0.23359 0.972334 
-0.00577727 0.286404 0.958101 
-0.00632865 0.360913 0.93259 
-0.00483709 0.536006 0.844213 
-0.011667 0.705315 0.708795 
-0.0042142 0.772854 0.63453 
0.00594878 0.805117 0.593085 
0.00443133 0.906227 0.422751 
-0.00569521 0.969457 0.245198 
-0.00617057 0.995105 0.0985341 
-0.00815371 0.996363 -0.084575 
-0.022393 0.919686 -0.392035 
-0.0184121 0.821313 -0.570168 
-0.0131978 0.702008 -0.71204 
-0.00339076 0.591801 -0.80608 
-0.0052327 0.494558 -0.869132 
0.000761661 0.423771 -0.905775 
0.00540649 0.351113 -0.936323 
0.00353148 0.283362 -0.959015 
0.0004742 0.224968 -0.974375 
-0.00228273 0.174903 -0.984589 
-0.00469247 0.136655 -0.99062 
-0.00692578 0.105641 -0.994391 
-0.00893065 0.0856303 -0.996296 
-0.0106114 0.0694098 -0.997545 
-0.0120757 0.0564408 -0.998338 
-0.0131565 0.0458454 -0.998871 
-0.0143132 0.0368732 -0.999227 
-0.015311 0.0296463 -0.999452 
-0.0160452 0.0238502 -0.999596 
-0.016704 0.0194233 -0.999681 
-0.0172214 0.015906 -0.999734 
-0.0177854 0.013055 -0.999766 
-0.0181549 0.0105791 -0.999788 
-0.0184936 0.0085632 -0.999801 
-0.0188109 0.00685144 -0.999809 
-0.0189174 0.00506532 -0.999818 
-0.0188465 0.00306303 -0.999827 
-0.018514 0.00122332 -0.999838 
-0.0179372 -0.000603337 -0.999849 
-0.0173521 -0.00313511 -0.999854 
-0.016843 -0.00615182 -0.999849 
-0.0163776 -0.00986737 -0.999828 
-0.0160689 -0.0141449 -0.999782 
-0.0143425 -0.0200748 -0.999706 
-0.0136196 -0.0257066 -0.999587 
-0.0113292 -0.0249665 -0.99963 
-0.00910813 -0.0168853 -0.99982 
-0.00565911 -0.0171937 -0.999817 
0.00493657 -0.0164249 0.999821 
0.00590169 -0.0186107 0.999822 
0.0097357 -0.0200989 0.999749 
0.00927646 -0.0284291 0.99956 
0.0105726 -0.0253832 0.999631 
0.0113274 -0.0156923 0.999822 
0.0127469 -0.00991611 0.999879 
0.0140707 -0.006705 0.999888 
0.0144754 -0.00324008 0.9999 
0.0138942 -0.00104197 0.999912 
0.0139342 0.00106122 0.999912 
0.0144298 0.00311675 0.9999 
0.0141452 0.00538174 0.999895 
0.0143055 0.00720079 0.999881 
0.01442 0.0090092 0.999865 
0.0141967 0.0110581 0.999847 
0.0137765 0.0136486 0.999821 
0.0134373 0.0163593 0.999785 
0.0128449 0.0198796 0.999729 
0.0122758 0.0245546 0.999632 
0.0115886 0.030651 0.999472 
0.0109807 0.0376881 0.999239 
0.0101583 0.0467998 0.998862 
0.00886361 0.057499 0.998315 
0.0077823 0.0715364 0.997417 
0.00676139 0.0884234 0.996069 
0.00472979 0.109882 0.993943 
0.00254404 0.13728 0.990539 
0.000521597 0.169267 0.98558 
-0.00134857 0.218569 0.975832 
-0.00272308 0.271726 0.962378 
-0.00341907 0.41717 0.908857 
0.00305067 0.529805 0.848118 
0.0121571 0.598251 0.801213 
-0.00158541 0.643544 0.765441 
0.00617171 0.679865 0.73333 
0.0196489 0.820372 0.57147 
0.0171193 0.91892 0.39406 
0.00113513 0.978797 0.20479 
-0.0155057 0.9988 -0.0465117 
-0.0142614 0.990431 -0.137227 
-0.0374744 0.938652 -0.342757 
-0.0348467 0.820729 -0.570228 
-0.0256282 0.705384 -0.708355 
-0.0132906 0.586371 -0.809935 
-0.0123132 0.47127 -0.881908 
-0.00626979 0.400062 -0.916474 
-0.000806983 0.339467 -0.940625 
-0.000736577 0.2699 -0.962898 
-0.00186546 0.211439 -0.977398 
-0.00316676 0.165695 -0.986186 
-0.00469755 0.130019 -0.991505 
-0.00564378 0.106149 -0.994343 
-0.00714809 0.086735 -0.996215 
-0.00839288 0.070359 -0.997493 
-0.00932873 0.0562539 -0.998387 
-0.0102531 0.0452196 -0.998934 
-0.0111199 0.0364134 -0.999284 
-0.0119975 0.0291886 -0.999511 
-0.0124466 0.0235667 -0.999654 
-0.0129169 0.0191828 -0.999742 
-0.0131885 0.015785 -0.999797 
-0.0137539 0.0129431 -0.999831 
-0.0139774 0.0105377 -0.999856 
-0.014333 0.00847217 -0.99987 
-0.0146265 0.00671435 -0.99988 
-0.0146949 0.00482712 -0.99989 
-0.0146549 0.00258811 -0.999899 
-0.0143596 0.000518978 -0.999902 
-0.0138271 -0.0014801 -0.999918 
-0.0133882 -0.00421534 -0.999911 
-0.0133405 -0.00770599 -0.999891 
-0.0126001 -0.0113681 -0.999866 
-0.0124756 -0.0161076 -0.999801 
-0.0108325 -0.0217521 -0.999715 
-0.0108834 -0.0264072 -0.999602 
-0.00896135 -0.0276494 -0.999585 
-0.00726635 -0.0180312 -0.999808 
-0.00375342 -0.0178113 -0.999822 
0.00297147 -0.0179307 0.999812 
0.0040424 -0.0177894 0.999834 
0.00694088 -0.0241329 0.999687 
0.00717212 -0.028309 0.999585 
0.00985726 -0.0215042 0.99973 
0.0084974 -0.0173144 0.999824 
0.00992114 -0.0119629 0.999887 
0.0100673 -0.00784657 0.99993 
0.0113907 -0.0048913 0.999931 
0.0105564 -0.00236037 0.999951 
0.0108935 -0.000125154 0.99995 
0.0108577 0.0022605 0.999948 
0.0110272 0.0045762 0.999938 
0.0109112 0.00672754 0.999927 
0.0110565 0.00848999 0.999912 
0.0106273 0.0105094 0.999897 
0.0105945 0.0127998 0.999871 
0.0102365 0.0154146 0.999838 
0.0100609 0.0184056 0.999789 
0.00967966 0.0225933 0.999707 
0.00930419 0.0280074 0.999573 
0.00880464 0.0347233 0.999368 
0.00832561 0.0428052 0.999058 
0.00735913 0.0524722 0.998605 
0.00645059 0.0654822 0.997842 
0.00548407 0.0818451 0.99664 
0.00437732 0.100161 0.994971 
0.00289766 0.125528 0.992095 
0.00144599 0.159708 0.987172 
0.000289485 0.194894 0.980834 
-0.00035054 0.248441 0.968657 
-0.0018113 0.325936 0.945401 
0.00224769 0.424022 0.905661 
0.0090176 0.504389 0.863434 
0.0176558 0.712661 0.70128 
0.0356035 0.698028 0.715176 
0.0530434 0.800793 0.596562 
0.0499631 0.636246 0.769755 
0.0701009 0.87226 0.483949 
0.00430454 0.987403 0.158212 
-0.068827 0.951048 -0.301381 
-0.0871686 0.787454 -0.610134 
-0.0596691 0.821305 -0.56731 
-0.0499014 0.665054 -0.745141 
-0.0385323 0.685974 -0.726586 
-0.0215426 0.578029 -0.815736 
-0.0098971 0.365047 -0.930946 
-0.00486632 0.320247 -0.94733 
-0.00332192 0.255775 -0.966739 
-0.00314637 0.201711 -0.979451 
-0.00358569 0.16797 -0.985793 
-0.00410466 0.137487 -0.990504 
-0.00451689 0.116086 -0.993238 
-0.00557124 0.0910537 -0.99584 
-0.00654068 0.0732716 -0.9973 
-0.0072514 0.0587723 -0.998255 
-0.00796265 0.0469383 -0.998875 
-0.00873413 0.0375194 -0.999267 
-0.0094133 0.0300535 -0.999513 
-0.00971189 0.0242528 -0.999668 
-0.0100046 0.0197133 -0.999765 
-0.0101723 0.0161719 -0.999826 
-0.0105585 0.0133488 -0.999864 
-0.0106963 0.0109003 -0.999892 
-0.0109643 0.00879003 -0.99991 
-0.0111627 0.00696088 -0.999923 
-0.0112449 0.00501975 -0.999933 
-0.0112721 0.00266693 -0.999942 
-0.0110237 0.000337781 -0.999953 
-0.0106403 -0.00176682 -0.999947 
-0.0102067 -0.00445418 -0.999949 
-0.0103677 -0.00775639 -0.999925 
-0.00957763 -0.0115553 -0.999898 
-0.00937409 -0.0162987 -0.999833 
-0.00814389 -0.0224 -0.999726 
-0.00777572 -0.0279092 -0.99959 
-0.00627744 -0.0267479 -0.999627 
-0.00508911 -0.0181594 -0.999824 
-0.00263733 -0.0182564 -0.999801 
0.00203088 -0.0182761 0.999817 
0.00287084 -0.0187147 0.999821 
0.00534444 -0.0273032 0.999618 
0.00532424 -0.0291547 0.99957 
0.00734634 -0.0236988 0.999702 
0.00668339 -0.0176991 0.999831 
0.00784806 -0.012254 0.999905 
0.00801937 -0.00856404 0.99994 
0.0088524 -0.0049661 0.999958 
0.008538 -0.00215506 0.999972 
0.00895861 0.000251549 0.999969 
0.00873991 0.00280198 0.999967 
0.00892123 0.005249 0.999954 
0.00866488 0.0072107 0.999947 
0.00863659 0.00897671 0.999931 
0.00835462 0.0111253 0.999913 
0.00834597 0.0133878 0.999882 
0.00800283 0.0158452 0.999853 
0.00794268 0.0190237 0.999795 
0.00770361 0.0232809 0.999709 
0.00749185 0.0288345 0.999565 
0.00713224 0.0357455 0.999344 
0.0066806 0.0436381 0.999034 
0.0059881 0.0542107 0.998521 
0.00517748 0.0682195 0.997666 
0.00423586 0.0842546 0.996445 
0.00334168 0.103852 0.994597 
0.00224016 0.13259 0.991178 
0.00144037 0.161354 0.986905 
0.000774762 0.201825 0.97943 
0.00104432 0.285574 0.958369 
0.00246848 0.355474 0.934686 
0.00806677 0.429633 0.902973 
0.017434 0.510944 0.859444 
0.0229322 0.606567 0.794699 
0.0415798 0.655518 0.754028 
0.0246926 0.5821 0.812838 
0.141978 0.771677 0.619774 
0.127061 0.834597 0.535936 
0.0443382 0.982258 0.18217 
-0.0581855 0.992572 -0.106266 
-0.156503 0.889308 -0.429652 
-0.0925241 0.701974 -0.706183 
-0.0498692 0.607702 -0.792595 
-0.0270304 0.548793 -0.83552 
-0.0198284 0.434934 -0.90025 
-0.0163913 0.445007 -0.895379 
-0.0118521 0.348936 -0.937079 
-0.00643148 0.286296 -0.958129 
-0.00417964 0.223766 -0.974644 
-0.00388834 0.183974 -0.982933 
-0.00376269 0.144436 -0.989519 
-0.0040964 0.109747 -0.993961 
-0.00479386 0.0875053 -0.996166 
-0.00562959 0.0704593 -0.997504 
-0.00626105 0.0566103 -0.998386 
-0.00686536 0.0454097 -0.998955 
-0.00736661 0.0363164 -0.999322 
-0.00769925 0.0292334 -0.999552 
-0.00784071 0.0235287 -0.999703 
-0.00806837 0.0191621 -0.999791 
-0.00814337 0.0157292 -0.999854 
-0.00840863 0.0131356 -0.999887 
-0.0084741 0.0108509 -0.999915 
-0.00875043 0.00876304 -0.999932 
-0.00888772 0.00691589 -0.999946 
-0.00896223 0.00494356 -0.999957 
-0.00908764 0.00244973 -0.999965 
-0.00898161 -0.000129315 -0.999969 
-0.00872708 -0.00245316 -0.999968 
-0.00842905 -0.00533772 -0.999959 
-0.00835059 -0.00883002 -0.999935 
-0.00762559 -0.0126833 -0.9999 
-0.00735576 -0.0170942 -0.999837 
-0.00625688 -0.0231792 -0.999722 
-0.00580002 -0.0287107 -0.999581 
-0.00456523 -0.0277388 -0.999609 
-0.00353762 -0.0180539 -0.999832 
-0.00221867 -0.0178757 -0.999818 
0.00130685 -0.0182636 0.999828 
0.00199314 -0.0191442 0.999811 
0.00384392 -0.0283153 0.999597 
0.00410989 -0.0299534 0.999552 
0.00570551 -0.0237236 0.999712 
0.00537732 -0.0181122 0.999831 