# vtk DataFile Version 3.0 
Exported using Morpho https://github.com/Morpho-lang/morpho 
ASCII 
DATASET UNSTRUCTURED_GRID 

POINTS 1978 float 
-8.48528 -2.82843 -5.54729e-17 
-8.26121 -2.82843 9.18251e-16 
-8.03512 -2.82843 2.48032e-15 
-7.77594 -2.82843 -8.57364e-16 
-7.49501 -2.82843 -4.5083e-15 
-7.24154 -2.82843 -1.29315e-15 
-6.99834 -2.82843 4.30558e-16 
-6.78306 -2.82843 2.71662e-16 
-6.56128 -2.82843 8.5746e-17 
-6.3473 -2.82843 -1.7297e-16 
-6.14324 -2.82843 -5.92565e-16 
-5.91629 -2.82843 -3.99587e-17 
-5.7073 -2.82843 -2.89306e-17 
-5.50648 -2.82843 -2.47499e-16 
-5.29235 -2.82843 -1.42254e-16 
-5.0839 -2.82843 -1.01301e-16 
-4.86861 -2.82843 -2.04128e-16 
-4.66173 -2.82843 -3.21525e-16 
-4.44018 -2.82843 -3.10659e-16 
-4.22186 -2.82843 -3.22577e-16 
-4.00176 -2.82843 -3.58326e-16 
-3.7933 -2.82843 -4.74506e-16 
-3.58208 -2.82843 -5.6135e-16 
-3.37332 -2.82843 -7.57903e-16 
-3.15908 -2.82843 -9.7558e-16 
-2.94946 -2.82843 -1.22173e-15 
-2.74479 -2.82843 -1.69638e-15 
-2.54646 -2.82843 -2.05063e-15 
-2.33144 -2.82843 -2.84657e-15 
-2.13131 -2.82843 -1.83834e-15 
-1.90932 -2.82843 -1.09097e-15 
-1.71423 -2.82843 3.94048e-15 
-1.51653 -2.82843 2.48111e-15 
-1.31266 -2.82843 -5.91041e-15 
-1.14118 -2.82843 9.74834e-15 
-0.884806 -2.82843 -1.45765e-14 
-0.685156 -2.82843 -2.95553e-13 
-0.484509 -2.82843 2.10978e-13 
-0.255719 -2.82843 -5.30879e-14 
-0.0290915 -2.82843 1.36696e-13 
0.290656 -2.82843 -1.03275e-13 
0.482262 -2.82843 6.75054e-14 
0.69767 -2.82843 2.56114e-14 
0.911041 -2.82843 1.94184e-14 
1.11368 -2.82843 3.78364e-15 
1.31358 -2.82843 3.61082e-15 
1.51477 -2.82843 -6.50074e-15 
1.71184 -2.82843 -1.33779e-15 
1.91544 -2.82843 5.26663e-15 
2.12124 -2.82843 3.46835e-15 
2.34636 -2.82843 3.35406e-15 
2.54374 -2.82843 2.60252e-15 
2.7557 -2.82843 1.77808e-15 
2.97757 -2.82843 1.43469e-15 
3.18441 -2.82843 9.30711e-16 
3.38504 -2.82843 6.53566e-16 
3.60778 -2.82843 7.06422e-16 
3.8081 -2.82843 3.67108e-16 
4.02163 -2.82843 2.1022e-16 
4.24814 -2.82843 3.98873e-16 
4.44794 -2.82843 3.3894e-16 
4.6633 -2.82843 6.84119e-17 
4.87009 -2.82843 3.83543e-16 
5.07774 -2.82843 4.86753e-17 
5.29102 -2.82843 1.58943e-16 
5.50342 -2.82843 3.45108e-16 
5.70613 -2.82843 -5.19805e-17 
5.92315 -2.82843 1.99212e-16 
6.14364 -2.82843 1.26929e-16 
6.34318 -2.82843 -1.37307e-17 
6.58229 -2.82843 4.75485e-17 
6.79604 -2.82843 -8.91464e-17 
6.99697 -2.82843 1.30899e-17 
7.2624 -2.82843 7.12694e-16 
7.49562 -2.82843 1.60505e-15 
7.73698 -2.82843 -2.30202e-16 
8.01017 -2.82843 -2.03429e-15 
8.19419 -2.82843 -5.80606e-16 
8.48528 -2.82843 2.04902e-16 
-8.48528 -2.59145 -2.13931e-15 
-8.25784 -2.5895 1.06686e-15 
-8.02339 -2.59159 -6.75535e-16 
-7.78169 -2.6177 -1.03451e-15 
-7.52604 -2.63768 -1.00349e-15 
-7.23548 -2.61378 -6.53484e-16 
-6.99427 -2.59553 -5.27528e-16 
-6.77387 -2.59383 1.18389e-15 
-6.54333 -2.59603 1.1405e-15 
-6.33108 -2.57955 7.77579e-16 
-6.10199 -2.60746 7.52332e-16 
-5.88704 -2.58795 5.43055e-16 
-5.67879 -2.57861 4.09114e-16 
-5.4619 -2.59604 3.13564e-16 
-5.24792 -2.58863 1.94255e-16 
-5.03003 -2.59564 1.10822e-16 
-4.81883 -2.58469 -2.17113e-18 
-4.59867 -2.60009 -1.29181e-16 
-4.37725 -2.59656 -2.75189e-16 
-4.15623 -2.59832 -4.71677e-16 
-3.94449 -2.58559 -6.74845e-16 
-3.73271 -2.59083 -9.70445e-16 
-3.52126 -2.59125 -1.26022e-15 
-3.30676 -2.6003 6.74314e-16 
-3.09332 -2.59869 7.84089e-16 
-2.88322 -2.59613 8.80848e-16 
-2.68016 -2.59193 8.49399e-16 
-2.46918 -2.61151 8.52401e-16 
-2.25875 -2.59616 -1.15862e-15 
-2.04639 -2.6203 -6.97899e-16 
-1.83473 -2.59124 -6.35812e-17 
-1.63162 -2.58764 6.35081e-16 
-1.43433 -2.5949 3.67239e-15 
-1.25628 -2.52021 6.69934e-15 
-1.04468 -2.63084 1.36524e-14 
-0.835513 -2.55448 3.06329e-14 
-0.637025 -2.52043 2.2267e-14 
-0.421704 -2.543 4.12358e-14 
-0.19656 -2.52875 9.80939e-15 
0.0041784 -2.45067 -1.08612e-14 
0.188305 -2.60635 -2.37435e-15 
0.445881 -2.48161 -2.40985e-14 
0.637154 -2.55557 -3.43886e-14 
0.863437 -2.58307 -2.4555e-14 
1.08403 -2.56663 -1.4044e-14 
1.28884 -2.58647 -6.74418e-15 
1.49994 -2.60766 -2.32736e-15 
1.712 -2.59614 -5.31335e-16 
1.91537 -2.60258 -6.4464e-16 
2.14902 -2.62879 9.54078e-16 
2.35709 -2.59451 1.18455e-15 
2.56926 -2.60391 -8.60398e-16 
2.79915 -2.61676 -9.91381e-16 
3.00609 -2.59207 -8.00125e-16 
3.21304 -2.58486 -6.73472e-16 
3.43581 -2.6081 -6.32488e-16 
3.64225 -2.5813 1.04335e-15 
3.85605 -2.59455 8.12058e-16 
4.0831 -2.6071 5.90226e-16 
4.29127 -2.57697 3.29333e-16 
4.50771 -2.59599 1.86613e-16 
4.72061 -2.58641 5.34543e-17 
4.93471 -2.58955 -5.54134e-17 
5.15014 -2.59571 -1.67025e-16 
5.36949 -2.59595 -2.67849e-16 
5.58125 -2.58453 -3.5769e-16 
5.79745 -2.59909 -5.09722e-16 
6.02231 -2.60043 -6.48415e-16 
6.23631 -2.57326 -6.99724e-16 
6.45676 -2.6121 -1.05621e-15 
6.68531 -2.58344 -1.08589e-15 
6.89539 -2.56474 -1.11405e-15 
7.12403 -2.62778 6.98127e-16 
7.37647 -2.59827 6.28905e-16 
7.61496 -2.60559 8.49396e-16 
7.87201 -2.63133 1.06897e-15 
8.08052 -2.53417 -1.18105e-15 
8.30278 -2.63941 5.29411e-16 
8.48528 -2.52953 2.44524e-15 
-8.48528 -2.35069 -3.88177e-15 
-8.25173 -2.35457 6.04535e-17 
-8.01265 -2.35256 1.43199e-17 
-7.77124 -2.39738 4.15956e-16 
-7.56708 -2.24957 -8.90084e-17 
-7.4729 -2.45317 5.44325e-16 
-7.19213 -2.40258 3.31979e-16 
-6.95923 -2.35204 -1.63929e-17 
-6.71678 -2.37514 2.09283e-16 
-6.4924 -2.3527 1.28451e-16 
-6.24636 -2.36758 1.54364e-16 
-6.03211 -2.36394 1.05829e-16 
-5.81323 -2.3438 7.22255e-17 
-5.58475 -2.35441 5.26123e-17 
-5.36983 -2.35827 2.83686e-17 
-5.14445 -2.36173 1.82043e-17 
-4.93007 -2.35099 1.53678e-18 
-4.70471 -2.36327 -2.32312e-17 
-4.48514 -2.36916 -5.96943e-17 
-4.26125 -2.36788 -1.08781e-16 
-4.04828 -2.35188 -1.41251e-16 
-3.83255 -2.35058 -1.68698e-16 
-3.62131 -2.35508 -2.12502e-16 
-3.40621 -2.36575 -2.76925e-16 
-3.19446 -2.37048 -3.43312e-16 
-2.98139 -2.36858 -3.23537e-16 
-2.77278 -2.35807 -2.10595e-16 
-2.56078 -2.37726 -2.74969e-16 
-2.35429 -2.38132 -2.26052e-16 
-2.12834 -2.38654 -5.54243e-17 
-1.92357 -2.38702 1.70693e-16 
-1.69278 -2.36032 -5.86971e-16 
-1.47665 -2.34161 -2.13061e-15 
-1.27393 -2.26011 1.97434e-15 
-1.06101 -2.38045 -3.19472e-15 
-0.873827 -2.27321 -1.38365e-14 
-0.638946 -2.25282 -5.70425e-15 
-0.40432 -2.24521 -2.37972e-14 
-0.195184 -2.19156 6.18072e-15 
0.0559063 -2.13714 1.81483e-14 
0.260883 -2.28781 -1.13696e-14 
0.454388 -2.13504 3.03836e-14 
0.655675 -2.22645 -5.0003e-16 
0.836697 -2.33288 -6.9844e-15 
1.06136 -2.31566 4.29561e-15 
1.28347 -2.32917 2.61985e-15 
1.48762 -2.37933 -7.52633e-17 
1.694 -2.36786 5.8431e-16 
1.89961 -2.3687 -5.05943e-16 
2.10038 -2.4198 -3.52156e-16 
2.30741 -2.37766 1.48432e-16 
2.52973 -2.37315 4.54497e-16 
2.74367 -2.40373 4.1653e-16 
2.95755 -2.35616 4.38956e-16 
3.16065 -2.348 2.24063e-16 
3.37715 -2.37818 3.35219e-16 
3.58367 -2.3453 1.97798e-16 
3.7956 -2.35483 1.81493e-16 
4.0106 -2.37961 1.75695e-16 
4.21963 -2.34255 9.26813e-17 
4.43939 -2.35595 6.30555e-17 
4.64872 -2.35001 3.12115e-17 
4.86363 -2.35345 1.27807e-17 
5.07912 -2.35812 -7.31126e-18 
5.29357 -2.36738 -2.83976e-17 
5.50916 -2.35085 -3.98456e-17 
5.72827 -2.36087 -6.68474e-17 
5.94533 -2.37391 -1.07953e-16 
6.16204 -2.34386 -9.51064e-17 
6.39512 -2.36452 -1.67436e-16 
6.60602 -2.36371 -1.98869e-16 
6.8312 -2.3176 -3.08916e-17 
7.06351 -2.37625 -1.36029e-16 
7.28329 -2.39719 -1.9152e-16 
7.54406 -2.37518 -3.65327e-16 
7.78885 -2.41125 -6.82771e-16 
8.00058 -2.31208 5.75364e-17 
8.26109 -2.3702 1.42576e-16 
8.48528 -2.28726 3.67375e-15 
-8.48528 -2.11264 -2.33413e-15 
-8.25525 -2.10477 -1.51299e-16 
-8.04718 -2.10951 -3.70859e-16 
-7.80482 -2.15534 -2.8257e-16 
-7.51702 -2.03672 -2.24262e-16 
-7.30995 -2.22825 -3.17884e-16 
-7.06736 -2.14012 -5.76489e-16 
-6.80628 -2.14422 -2.99038e-16 
-6.58899 -2.12725 -2.7928e-16 
-6.34675 -2.14929 -1.82707e-16 
-6.12232 -2.1195 -1.90182e-16 
-5.91437 -2.11612 -1.25059e-16 
-5.68566 -2.12612 -9.02913e-17 
-5.46545 -2.11763 -7.43913e-17 
-5.24874 -2.13359 -5.10597e-17 
-5.03429 -2.11805 -3.64308e-17 
-4.81125 -2.13038 -1.79981e-17 
-4.59282 -2.13421 -9.603e-18 
-4.37528 -2.14027 -4.99807e-19 
-4.16472 -2.12114 2.34744e-17 
-3.94997 -2.11652 6.2831e-17 
-3.73765 -2.11561 1.23533e-16 
-3.52449 -2.12877 1.91262e-16 
-3.31395 -2.13491 2.62007e-16 
-3.103 -2.14073 3.44185e-16 
-2.89378 -2.13243 4.22838e-16 
-2.67615 -2.13733 5.04809e-16 
-2.46903 -2.14582 6.04907e-16 
-2.25237 -2.16958 3.67895e-16 
-2.03752 -2.14849 7.45443e-16 
-1.82385 -2.16885 3.06145e-16 
-1.59469 -2.12343 4.10616e-16 
-1.39592 -2.05256 -4.30344e-15 
-1.18877 -1.90271 8.91005e-18 
-1.08856 -2.10433 -7.44398e-15 
-0.830417 -2.02127 -5.70967e-15 
-0.588195 -1.96722 -9.20795e-15 
-0.370111 -1.913 -3.95127e-15 
-0.105698 -1.90222 -3.03605e-15 
0.0556718 -1.6762 4.08155e-14 
0.236704 -1.91639 2.46185e-15 
0.299492 -1.57771 -3.78449e-14 
0.49488 -1.84653 6.07093e-15 
0.736843 -1.94949 -8.22168e-15 
0.947898 -2.06846 2.0281e-14 
1.20469 -2.08856 3.60706e-15 
1.45981 -2.13429 6.10573e-16 
1.67182 -2.13174 -1.26383e-15 
1.8843 -2.13649 -9.98153e-16 
2.10169 -2.18723 -9.22785e-16 
2.33866 -2.16732 -6.54257e-16 
2.56795 -2.1529 -6.33457e-16 
2.77315 -2.16795 -3.76878e-16 
2.97989 -2.11004 -4.50503e-16 
3.20407 -2.12874 -3.66654e-16 
3.4073 -2.13382 -2.76808e-16 
3.62376 -2.112 -1.66451e-16 
3.84098 -2.1281 -9.81894e-17 
4.04387 -2.13305 -4.59499e-17 
4.27149 -2.11676 -1.30199e-17 
4.48043 -2.11415 5.20627e-18 
4.6973 -2.11616 1.41605e-17 
4.91298 -2.12127 2.68899e-17 
5.1294 -2.12506 4.07813e-17 
5.34154 -2.1314 5.63323e-17 
5.56534 -2.12318 7.5096e-17 
5.78352 -2.13047 1.03398e-16 
5.9949 -2.13201 1.28829e-16 
6.23543 -2.12905 1.75038e-16 
6.44723 -2.11506 2.42905e-16 
6.6605 -2.1179 2.90848e-16 
6.92008 -2.10996 4.72854e-16 
7.13725 -2.13849 6.29513e-16 
7.36976 -2.18288 4.60279e-16 
7.56151 -2.08429 3.03305e-16 
7.74224 -2.18027 1.61567e-16 
7.95668 -2.08011 4.57305e-16 
8.20507 -2.14764 3.12202e-16 
8.48528 -2.09213 1.15445e-15 
-8.48528 -1.81624 -8.51249e-16 
-8.30488 -1.86243 1.53414e-17 
-7.89125 -1.91067 -2.27821e-16 
[...]
POINT_DATA 1978 
VECTORS vectors float
6.19084e-05 -0.000503519 1 
-6.59252e-06 -0.0241006 0.99971 
-0.000102593 -0.0236405 0.999721 
-7.8399e-05 -0.0308586 0.999524 
-0.000104771 -0.0346715 0.999399 
-6.93897e-05 -0.0309273 0.999522 
-5.55547e-05 -0.0258914 0.999665 
-3.21038e-05 -0.0206658 0.999786 
-6.15305e-05 -0.0164625 0.999864 
-1.81379e-05 -0.0135234 0.999909 
-3.40573e-05 -0.0111206 0.999938 
-7.88905e-05 -0.00848024 0.999964 
2.30961e-06 -0.00657528 0.999978 
-2.71445e-05 -0.00544331 0.999985 
-4.9624e-05 -0.00379798 0.999993 
-3.22035e-05 -0.00218863 0.999998 
-3.8981e-05 -0.000738954 1 
-3.14483e-05 0.00071222 1 
-6.07856e-05 0.00262654 0.999997 
-4.65197e-05 0.00516695 0.999987 
-4.21729e-05 0.00838869 0.999965 
-2.44926e-05 0.0126113 0.99992 
-3.37322e-05 0.0185336 0.999828 
-2.89962e-05 0.0264949 0.999649 
-3.62972e-05 0.0375988 0.999293 
-2.17793e-05 0.0519147 0.998652 
-2.7521e-06 0.0700821 0.997541 
-1.5045e-05 0.092725 0.995692 
-1.33858e-05 0.124706 0.992194 
-5.5585e-06 0.164052 0.986452 
4.43216e-06 0.219328 0.975651 
-1.6225e-05 0.279552 0.960131 
4.93433e-05 0.353662 0.935373 
-6.63413e-05 0.44059 0.897709 
2.71693e-05 0.528403 0.848994 
0.000124399 0.665898 0.746042 
-8.69151e-05 0.776492 0.630128 
7.12224e-05 0.879673 0.475579 
1.65753e-06 0.963634 0.267226 
2.62379e-05 0.999536 0.0304477 
-8.73743e-05 0.951508 -0.307623 
6.68679e-05 0.880355 -0.474316 
-7.61461e-05 0.768654 -0.639665 
-2.30354e-05 0.651438 -0.758702 
1.09858e-05 0.538652 -0.842528 
-3.37154e-05 0.439732 -0.898129 
5.53896e-06 0.353631 -0.935385 
5.14747e-07 0.27934 -0.960192 
-1.57953e-05 0.217596 -0.976039 
2.44035e-05 0.165148 -0.986269 
9.02471e-06 0.122597 -0.992457 
-3.18175e-06 0.0937638 -0.995594 
4.22108e-05 0.0692769 -0.997597 
3.71652e-05 0.0499851 -0.99875 
1.57113e-06 0.0361608 -0.999346 
3.32368e-05 0.0260022 -0.999662 
5.27673e-05 0.0175213 -0.999846 
-9.19713e-06 0.0122341 -0.999925 
7.67727e-05 0.00814721 -0.999967 
3.98394e-05 0.00459925 -0.999989 
6.17406e-06 0.00260882 -0.999997 
6.03925e-05 0.000797403 -1 
1.36594e-05 -0.000829623 -1 
3.59043e-05 -0.00206954 -0.999998 
5.37903e-05 -0.00370639 -0.999993 
2.0597e-05 -0.00529084 -0.999986 
1.79417e-05 -0.00657956 -0.999978 
8.28581e-05 -0.00873088 -0.999962 
3.96228e-06 -0.0110815 -0.999939 
4.16314e-05 -0.0131727 -0.999913 
0.000101078 -0.0171475 -0.999853 
-3.35021e-05 -0.0211362 -0.999777 
7.00726e-05 -0.0251462 -0.999684 
0.000104536 -0.0318279 -0.999493 
2.33618e-05 -0.0352598 -0.999378 
0.000128266 -0.0327996 -0.999462 
4.00557e-05 -0.0250243 -0.999687 
-5.04116e-06 -0.0246335 -0.999697 
5.34401e-05 -0.000174655 -1 
0.000175625 0.000376977 1 
0.0129452 -0.022782 0.999657 
0.0154084 -0.02619 0.999538 
0.0163912 -0.028786 0.999451 
0.0154227 -0.0314706 0.999386 
0.0149991 -0.0295921 0.99945 
0.0157087 -0.025545 0.99955 
0.0164301 -0.0210592 0.999643 
0.017213 -0.0166692 0.999713 
0.0177168 -0.0135437 0.999751 
0.0176704 -0.0107271 0.999786 
0.0182804 -0.00825877 0.999799 
0.0185903 -0.00641261 0.999807 
0.0183019 -0.00494538 0.99982 
0.018377 -0.00337228 0.999825 
0.0182226 -0.00175055 0.999832 
0.0183303 -0.000209757 0.999832 
0.0177963 0.00153182 0.99984 
0.0176594 0.0037534 0.999837 
0.0173799 0.00666224 0.999827 
0.017248 0.0104761 0.999796 
0.016521 0.015614 0.999742 
0.0155949 0.0225885 0.999623 
0.0143298 0.0319295 0.999387 
0.0129194 0.0444329 0.998929 
0.0112881 0.0606105 0.998098 
0.00929701 0.080935 0.996676 
0.00678678 0.107826 0.994147 
0.00411072 0.143908 0.989582 
0.00115291 0.189761 0.98183 
-0.00223348 0.249369 0.968406 
-0.00513345 0.317837 0.948132 
-0.00746759 0.397282 0.917666 
-0.00963317 0.480596 0.876889 
-0.0121631 0.586869 0.809591 
-0.0131228 0.696476 0.71746 
-0.0115639 0.805064 0.593075 
-0.00848821 0.907456 0.420061 
-0.00383541 0.977929 0.208901 
0.0011936 0.999995 -0.00288486 
0.00541773 0.978295 -0.207146 
0.0100741 0.892199 -0.45153 
0.0121714 0.799184 -0.600963 
0.0125961 0.677791 -0.735147 
0.0117622 0.562146 -0.826954 
0.00964299 0.459232 -0.888264 
0.0068752 0.367866 -0.929854 
0.00378752 0.288006 -0.957621 
0.000307608 0.221664 -0.975123 
-0.00261524 0.164898 -0.986307 
-0.00523105 0.126339 -0.991973 
-0.00783082 0.0943023 -0.995513 
-0.0101663 0.0680777 -0.997628 
-0.0122501 0.0504183 -0.998653 
-0.0138624 0.037148 -0.999214 
-0.0149396 0.0258126 -0.999555 
-0.0163601 0.0183227 -0.999698 
-0.0168095 0.0123856 -0.999782 
-0.0172118 0.00777949 -0.999822 
-0.0181908 0.00476027 -0.999823 
-0.0180853 0.00239858 -0.999834 
-0.018465 0.000529001 -0.999829 
-0.018476 -0.00110118 -0.999829 
-0.0183403 -0.00260007 -0.999828 
-0.0183942 -0.00421034 -0.999822 
-0.0185897 -0.00578487 -0.99981 
-0.0180671 -0.00758939 -0.999808 
-0.0177911 -0.00987187 -0.999793 
-0.0179683 -0.0123271 -0.999763 
-0.0167305 -0.0153084 -0.999743 
-0.0168069 -0.0193226 -0.999672 
-0.0165312 -0.0234541 -0.999588 
-0.014851 -0.027934 -0.999499 
-0.0152621 -0.0310341 -0.999402 
-0.0158355 -0.0305226 -0.999409 
-0.0159896 -0.0281471 -0.999476 
-0.0159978 -0.027177 -0.999503 
-0.0122059 -0.0219505 -0.999685 
-6.71686e-06 6.19868e-05 -1 
-0.000200796 -0.000365177 1 
0.0125434 -0.024041 0.999632 
0.0144857 -0.0271388 0.999527 
0.0155252 -0.0268159 0.99952 
0.0135536 -0.026026 0.999569 
0.0162647 -0.0290137 0.999447 
0.0162885 -0.0283063 0.999467 
0.0158002 -0.024987 0.999563 
0.0170903 -0.0204833 0.999644 
0.0174074 -0.0164183 0.999714 
0.018257 -0.012768 0.999752 
0.0184419 -0.0100202 0.99978 
0.0186836 -0.00772575 0.999796 
0.0190666 -0.00580112 0.999801 
0.0190038 -0.00415885 0.999811 
0.0189442 -0.00246706 0.999817 
0.0187932 -0.000862245 0.999823 
0.0187858 0.000914947 0.999823 
0.0185968 0.00297916 0.999823 
0.0182905 0.00574389 0.999816 
0.0177472 0.00940501 0.999798 
0.0169843 0.0144376 0.999752 
0.0160366 0.0210112 0.999651 
0.014834 0.0297768 0.999446 
0.0132785 0.0410225 0.99907 
0.0112728 0.0558469 0.998376 
0.00894156 0.0747222 0.997164 
0.00669714 0.0989532 0.99507 
0.00425017 0.129782 0.991533 
0.00150266 0.173411 0.984848 
-0.000968383 0.223856 0.974622 
-0.00343375 0.297686 0.954658 
-0.00490795 0.377721 0.925906 
-0.00520028 0.465414 0.885078 
-0.00820321 0.568119 0.822906 
-0.00628076 0.670211 0.742144 
-0.005065 0.791351 0.611341 
-0.0033765 0.899418 0.437076 
-0.000792417 0.976186 0.216932 
0.000818593 0.998758 -0.0498248 
0.00392913 0.967644 -0.252288 
0.00367912 0.891628 -0.452754 
0.00507496 0.785174 -0.619254 
0.00725629 0.686902 -0.726714 
0.00678663 0.564596 -0.82534 
0.00601729 0.459667 -0.888071 
0.00491139 0.371487 -0.928425 
0.0030397 0.29922 -0.954179 
0.00127614 0.237147 -0.971473 
-0.000954228 0.182801 -0.98315 
-0.00329641 0.139547 -0.99021 
-0.00623404 0.104075 -0.99455 
-0.00894099 0.0774749 -0.996954 
-0.0109561 0.0575826 -0.998281 
-0.0126477 0.0433996 -0.998978 
-0.0146196 0.0309656 -0.999414 
-0.0157515 0.0224537 -0.999624 
-0.0168844 0.0154572 -0.999738 
-0.0178553 0.0100844 -0.99979 
-0.0181632 0.00643744 -0.999814 
-0.0185665 0.00348506 -0.999822 
-0.0186699 0.00137493 -0.999825 
-0.0188108 -0.00041463 -0.999823 
-0.0189317 -0.00201297 -0.999819 
-0.0190484 -0.00356238 -0.999812 
-0.0189968 -0.00519717 -0.999806 
-0.0189593 -0.007062 -0.999795 
-0.0188546 -0.00921113 -0.99978 
-0.0183151 -0.0117284 -0.999763 
-0.0179429 -0.014861 -0.999729 
-0.0173738 -0.0182989 -0.999682 
-0.0162505 -0.0227176 -0.99961 
-0.016184 -0.0269238 -0.999506 
-0.0158918 -0.0292039 -0.999447 
-0.0154161 -0.0275419 -0.999502 
-0.0161674 -0.0267787 -0.999511 
-0.0143258 -0.0275448 -0.999518 
-0.012154 -0.0247329 -0.99962 
0.000170428 -0.00017303 -1 
-9.25233e-05 -0.000288579 1 
0.0111455 -0.0244493 0.999639 
0.0116789 -0.0259224 0.999596 
0.0117558 -0.024296 0.999636 
0.0125939 -0.0249669 0.999609 
0.0142588 -0.0282462 0.999499 
0.0140527 -0.0270223 0.999536 
0.0150237 -0.0225183 0.999634 
0.0156969 -0.0186692 0.999702 
0.0165561 -0.0146675 0.999755 
0.0170629 -0.0115953 0.999787 
0.0177392 -0.00911335 0.999801 
0.0182729 -0.00683391 0.99981 
0.0184302 -0.00492592 0.999818 
0.0182575 -0.00320637 0.999828 
0.0183099 -0.00159741 0.999831 
0.0180696 0.000147443 0.999837 
0.0178133 0.00208552 0.999839 
0.0174977 0.00455482 0.999837 
0.0172584 0.00789261 0.99982 
0.0166803 0.0125218 0.999782 
0.0157843 0.0186421 0.999702 
0.0145063 0.0265488 0.999542 
0.0129801 0.0366254 0.999245 
0.0110825 0.0494677 0.998714 
0.0089698 0.0660086 0.997779 
0.00646766 0.0880974 0.996091 
0.00402106 0.115311 0.993321 
0.00167617 0.151793 0.988411 
-0.000482313 0.200099 0.979775 
-0.00210422 0.259006 0.965873 
-0.00294733 0.341333 0.939938 
-0.00323232 0.424009 0.905652 
-0.00370869 0.522513 0.852623 
-0.00351336 0.558693 0.829367 
-0.00272862 0.696563 0.71749 
-0.00209854 0.824742 0.565506 
-0.00112669 0.925551 0.378621 
-0.000219088 0.994162 0.107901 
-1.72572e-05 0.997348 -0.0727856 
0.000746628 0.959338 -0.282259 
0.0014395 0.949215 -0.314625 
0.00167554 0.867266 -0.497843 
0.00270504 0.741687 -0.670741 
0.00293876 0.626237 -0.779627 
0.00286933 0.501389 -0.865217 
0.00305974 0.392389 -0.919794 
0.00259057 0.309704 -0.95083 
0.0016352 0.238027 -0.971257 
-4.04605e-06 0.183021 -0.983109 
-0.00240021 0.135738 -0.990742 
-0.00505668 0.101673 -0.994805 
-0.00742782 0.076555 -0.997038 
-0.00983836 0.0591867 -0.998198 
-0.0118103 0.0430232 -0.999004 
-0.0134658 0.0318827 -0.999401 
-0.0151642 0.0227009 -0.999627 
-0.0161672 0.0153714 -0.999751 
-0.0169578 0.0103133 -0.999803 
-0.0176486 0.00611826 -0.999826 
-0.0179398 0.00330296 -0.999834 
-0.0181458 0.00110141 -0.999835 
-0.0182524 -0.000697787 -0.999833 
-0.0183428 -0.00231422 -0.999829 
-0.0183661 -0.00389732 -0.999824 
-0.0183798 -0.00571809 -0.999815 
-0.0180897 -0.00775186 -0.999806 
-0.017819 -0.0100569 -0.999791 
-0.0171822 -0.0131502 -0.999766 
-0.0164875 -0.0163364 -0.999731 
-0.0158006 -0.0199978 -0.999675 
-0.014758 -0.024977 -0.999579 
-0.0139317 -0.0280467 -0.99951 
-0.0134147 -0.0280536 -0.999516 
-0.012102 -0.024683 -0.999622 
-0.0121504 -0.0240872 -0.999636 
-0.0113217 -0.0253978 -0.999613 
-0.0116225 -0.0263121 -0.999586 
-0.000223126 5.48811e-05 -1 
-9.32855e-05 -0.000372043 1 
0.0106447 -0.0218574 0.999704 
0.011452 -0.0232356 0.999664 
0.0123632 -0.0226934 0.999666 
0.015926 -0.0264406 0.999524 
0.0139998 -0.0282893 0.999502 
0.0169606 -0.0288727 0.999439 
0.0160891 -0.0259203 0.999535 
0.0187553 -0.0219193 0.999584 
0.0187485 -0.0176173 0.999669 
0.0203441 -0.0141586 0.999693 
0.0221008 -0.0112359 0.999693 
0.0222699 -0.00852674 0.999716 
0.0227199 -0.00627276 0.999722 
0.0230442 -0.00424538 0.999725 
0.0231168 -0.0025689 0.999729 
0.0227772 -0.000807176 0.99974 
0.022502 0.00104965 0.999746 
0.022041 0.00328608 0.999752 
0.0219012 0.00616998 0.999741 
0.0215155 0.0102671 0.999716 
0.0207538 0.0157515 0.999661 
0.0194619 0.0229111 0.999548 
0.0178874 0.0317506 0.999336 
0.0159219 0.0429886 0.998949 
0.0137533 0.0569545 0.998282 
0.0110769 0.075539 0.997081 
0.00823418 0.099401 0.995013 
0.00491166 0.129612 0.991553 
0.00196725 0.168389 0.985719 
-0.000659313 0.222447 0.974945 
-0.00252948 0.284192 0.958764 
-0.0040025 0.356237 0.934387 
-0.0048752 0.444778 0.895628 
-0.00391568 0.64305 0.765814 
-0.00417393 0.760644 0.649156 
-0.00383872 0.872364 0.488843 
-0.00446161 0.935619 0.352983 
-0.00248029 0.962429 0.271522 
-0.00239005 0.997854 0.0654346 
-0.00108103 0.987099 -0.160107 
0.00209199 0.898527 -0.438914 
0.00352807 0.822211 -0.569171 
0.00467012 0.692602 -0.721305 
0.00408636 0.567606 -0.82329 
0.00601059 0.497719 -0.867318 
0.00374251 0.434121 -0.900847 
0.00369787 0.34459 -0.938746 
0.00244493 0.269964 -0.962867 
0.000462365 0.206649 -0.978415 
-0.00183738 0.15938 -0.987216 
-0.00554434 0.118592 -0.992928 
-0.00879273 0.0883973 -0.996046 
-0.0116957 0.0700129 -0.997478 
-0.0143191 0.0507968 -0.998606 
-0.0168613 0.0378455 -0.999141 
-0.0185794 0.0278027 -0.999441 
-0.0199219 0.0190376 -0.99962 
-0.0212173 0.0129101 -0.999692 
-0.0214749 0.00818257 -0.999736 
-0.0227016 0.00458987 -0.999732 
-0.0228904 0.00201124 -0.999736 
-0.0230703 -3.61589e-05 -0.999734 
-0.0231787 -0.0017529 -0.99973 
-0.0231939 -0.00343661 -0.999725 
-0.0228214 -0.00518814 -0.999726 
-0.0226585 -0.00735298 -0.999716 
-0.0222419 -0.00976891 -0.999705 
-0.0208447 -0.0125654 -0.999704 
-0.0208825 -0.0160826 -0.999653 
-0.0198535 -0.0197995 -0.999607 
-0.0178399 -0.0238765 -0.999556 
-0.0168576 -0.028101 -0.999463 
-0.0148382 -0.0285011 -0.999484 
-0.0141663 -0.0246953 -0.999595 
-0.0121358 -0.0219294 -0.999686 
-0.0117682 -0.0244975 -0.999631 
-0.0111871 -0.023664 -0.999657 
0.000168089 -0.000128986 -1 
-5.37491e-05 -0.000172423 1 
0.0108057 -0.0216303 0.999708 
0.0120162 -0.0239763 0.99964 
0.0139478 -0.0222272 0.999656 
0.0155413 -0.0223394 0.99963 
0.0188233 -0.0293584 0.999392 
0.0208397 -0.0284079 0.999379 
0.0216199 -0.0250489 0.999452 
0.0229475 -0.0199679 0.999537 
0.0239523 -0.0163643 0.999579 
0.0252111 -0.0131658 0.999595 
0.026038 -0.00995389 0.999611 
0.0264716 -0.00744358 0.999622 
0.0267587 -0.00519638 0.999628 
0.0271344 -0.00326194 0.999626 
0.0269983 -0.00149569 0.999634 
0.0268593 0.000387375 0.999639 
0.0265196 0.00260111 0.999645 
0.0261646 0.00539769 0.999643 
0.0255041 0.00921087 0.999632 
0.0246018 0.0144674 0.999593 
0.0233769 0.0213326 0.999499 
0.0218977 0.0299312 0.999312 
0.0200317 0.0405576 0.998976 
0.017821 0.0540433 0.99838 
0.0151 0.0712772 0.997342 
0.0119946 0.0941043 0.99549 
0.00828092 0.124781 0.99215 
0.00456086 0.162819 0.986645 
0.000950326 0.213149 0.977019 
-0.00245685 0.283685 0.958914 
-0.00502013 0.370448 0.92884 
-0.00643627 0.478795 0.877903 
-0.00649742 0.595542 0.803298 
-0.00601561 0.572705 0.81974 
-0.00612946 0.689732 0.724038 
-0.00565122 0.809494 0.587101 
-0.0051407 0.888317 0.459201 
-0.00345746 0.989634 0.143568 
-0.00167523 0.99773 -0.0673261 
-0.000309606 0.960229 -0.279215 
-0.0024953 0.97951 -0.201382 
0.00188809 0.86159 -0.507602 
0.00465661 0.755669 -0.654937 
0.00637687 0.618536 -0.785731 
0.00683064 0.507931 -0.861371 
0.00570818 0.399858 -0.916559 
0.00391834 0.317334 -0.948306 
0.00110398 0.244212 -0.969721 
-0.00214276 0.188737 -0.982025 
-0.00545763 0.145497 -0.989344 
-0.00958519 0.10872 -0.994026 
-0.0129262 0.0864506 -0.996172 
-0.0157523 0.0642991 -0.997806 
-0.0185361 0.0486932 -0.998642 
-0.0207537 0.0366486 -0.999113 
-0.0224661 0.0261523 -0.999405 
-0.0239587 0.0184624 -0.999542 
-0.0250805 0.0122432 -0.99961 
-0.0256878 0.00760472 -0.999641 
-0.0265381 0.00407474 -0.999639 
-0.0268568 0.00150386 -0.999638 
-0.0271332 -0.000500108 -0.999632 
-0.0272012 -0.00229112 -0.999627 
-0.0271893 -0.00406629 -0.999622 
-0.0267867 -0.00602514 -0.999623 
-0.026506 -0.00836542 -0.999614 
-0.0257962 -0.011129 -0.999605 
-0.0248534 -0.014092 -0.999592 
-0.0241467 -0.0179108 -0.999548 
-0.0229244 -0.0220143 -0.999495 
-0.021224 -0.0262496 -0.99943 
-0.020505 -0.0296104 -0.999351 
-0.0183854 -0.0291407 -0.999406 
-0.0169571 -0.0246978 -0.999551 
-0.0144695 -0.0210713 -0.999673 
-0.0132373 -0.0234307 -0.999638 
-0.0113654 -0.0215392 -0.999703 
5.57939e-05 -6.22257e-05 -1 
3.54975e-05 -6.29337e-05 1 
0.0101715 -0.0216735 0.999713 
0.0130093 -0.0234605 0.99964 
0.0145184 -0.0215448 0.999662 
0.0172654 -0.0252738 0.999531 
0.0180368 -0.0304421 0.999374 
0.0202436 -0.0304711 0.999331 
0.0207022 -0.0271048 0.999418 
0.0226435 -0.0231036 0.999477 
0.0230548 -0.0190009 0.999554 
0.0237587 -0.0156449 0.999595 
0.0246622 -0.0120835 0.999623 
0.024975 -0.00915404 0.999646 
0.025663 -0.00668941 0.999648 
0.0259039 -0.00456624 0.999654 
0.0259215 -0.00253347 0.999661 
0.0262309 -0.000708785 0.999656 
0.0259936 0.00138605 0.999661 
0.0253641 0.00386574 0.999671 
0.0246812 0.0072802 0.999669 
0.0239469 0.0118528 0.999643 
0.0229077 0.0180237 0.999575 
0.0216188 0.0257177 0.999435 
0.0201509 0.0353675 0.999171 
0.0184404 0.0470976 0.99872 
0.0162841 0.0622007 0.997931 
0.0138088 0.0812431 0.996599 
0.0107937 0.107325 0.994165 
0.00739328 0.141137 0.989962 
0.00386857 0.184273 0.982867 
9.58355e-05 0.243261 0.969961 
-0.00318996 0.317112 0.948383 
-0.00548018 0.421216 0.906944 
-0.00574847 0.526269 0.850299 
-0.00592132 0.727054 0.686555 
-0.00443836 0.84239 0.53885 
-0.00160516 0.907901 0.419182 
4.17402e-05 0.966308 0.257388 
-0.00276406 0.965454 0.260558 
-0.00127315 0.995113 0.0987382 
-0.00130455 0.999917 0.0128046 
-0.00231001 0.924441 -0.381318 
-0.00104144 0.913902 -0.405932 
0.00229321 0.785483 -0.618879 
0.00476407 0.684823 -0.728694 
0.00570977 0.580039 -0.814569 
0.00587665 0.41393 -0.91029 
0.00391667 0.342192 -0.939622 
0.00152563 0.269869 -0.962896 
-0.00197268 0.207328 -0.978269 
-0.00549819 0.160967 -0.986944 
-0.0088608 0.124685 -0.992157 
-0.0111542 0.100755 -0.994849 
-0.0145116 0.0746694 -0.997103 
-0.0169065 0.0574382 -0.998206 
-0.018723 0.0435414 -0.998876 
-0.020837 0.0316148 -0.999283 
-0.0221669 0.022904 -0.999492 
-0.0233885 0.0156627 -0.999604 
-0.0244305 0.00993498 -0.999652 
-0.0252106 0.00588699 -0.999665 
-0.0255463 0.00255289 -0.99967 
-0.0258195 0.000286138 -0.999667 
-0.0260021 -0.00171728 -0.99966 
-0.0259141 -0.00356206 -0.999658 
-0.0259184 -0.00561132 -0.999648 
-0.0255649 -0.00786288 -0.999642 
-0.0250908 -0.0106965 -0.999628 
-0.0243158 -0.0138856 -0.999608 
-0.0234949 -0.0172965 -0.999574 
-0.0222765 -0.0217622 -0.999515 
-0.021558 -0.0263832 -0.999419 
-0.0199237 -0.0305061 -0.999336 
-0.0185658 -0.0295067 -0.999392 
-0.0163861 -0.0247614 -0.999559 
-0.0150259 -0.0213207 -0.99966 
-0.0129207 -0.0231497 -0.999649 
-0.0113789 -0.0224329 -0.999684 
-0.00012898 -2.82612e-05 -1 
3.98178e-05 1.1029e-05 1 
0.00845026 -0.0226629 0.999707 
0.0123312 -0.0230395 0.999659 
0.0120126 -0.0217633 0.999691 
0.0148866 -0.0245477 0.999588 
0.0152518 -0.0312849 0.999394 
0.0173874 -0.0311042 0.999365 
0.0173033 -0.0271675 0.999481 
0.0194808 -0.022682 0.999553 
0.0188024 -0.0189547 0.999644 
0.0202828 -0.0150099 0.999682 
0.0207777 -0.0116597 0.999716 
0.0207194 -0.00871907 0.999747 
0.0214677 -0.00631857 0.99975 
0.0219568 -0.0040793 0.999751 
0.0215739 -0.00203006 0.999765 
0.0221609 -5.10177e-05 0.999754 
0.021382 0.00220162 0.999769 
0.0208588 0.00524525 0.999769 
0.0201853 0.00937009 0.999752 
0.0195542 0.0147949 0.999699 
0.0184629 0.0217611 0.999593 
0.0173172 0.0305123 0.999384 
0.0159406 0.0413353 0.999018 
0.0144583 0.054812 0.998392 
0.0125399 0.0722851 0.997305 
0.0104817 0.0951438 0.995408 
0.00783914 0.125397 0.992076 
0.00488516 0.16624 0.986073 
0.00193084 0.218595 0.975814 
-0.00106803 0.283115 0.959085 
-0.00361576 0.364579 0.931166 
-0.0044169 0.461909 0.886916 
-0.00427078 0.584019 0.811729 
-0.0052 0.659851 0.751379 
-0.00376007 0.769621 0.63849 
0.00148022 0.934194 0.356763 
0.00228244 0.993646 0.112531 
0.00195202 0.996358 0.0852436 
0.000402533 0.999029 0.0440631 
-0.00151837 0.999832 -0.0182791 
-0.00256067 0.998902 -0.0467822 
-0.00155127 0.835211 -0.549928 
0.000678872 0.796226 -0.605 
0.00288071 0.666123 -0.745836 
0.00387039 0.560717 -0.827998 
0.00514221 0.472493 -0.881319 
0.00366149 0.386927 -0.922103 
0.00140058 0.292107 -0.956385 
-0.00115307 0.227243 -0.973837 
-0.00439839 0.172368 -0.985023 
-0.00724941 0.133148 -0.99107 
-0.0101938 0.0940477 -0.995516 
-0.0124679 0.07171 -0.997348 
-0.0144311 0.0547772 -0.998394 
-0.0161445 0.0402239 -0.99906 
-0.0173969 0.0299079 -0.999401 
-0.0186406 0.0212207 -0.999601 
-0.019833 0.0141792 -0.999703 
-0.0204277 0.00893736 -0.999751 
-0.0216543 0.00476574 -0.999754 
-0.0212446 0.00176032 -0.999773 
-0.0217381 -0.000541173 -0.999764 
-0.0214754 -0.0024899 -0.999766 
-0.0216512 -0.00450344 -0.999755 
-0.0213495 -0.0066264 -0.99975 
-0.0213862 -0.00917601 -0.999729 
-0.0207617 -0.0121265 -0.999711 
-0.0198294 -0.0154079 -0.999685 
-0.0196765 -0.0193516 -0.999619 
-0.0183367 -0.0238046 -0.999548 
-0.0186432 -0.0276375 -0.999444 
-0.0166169 -0.0313821 -0.999369 
-0.0165263 -0.0315322 -0.999366 
-0.0141739 -0.0269796 -0.999535 
-0.0127202 -0.0218953 -0.999679 
-0.0104617 -0.0237909 -0.999662 
-0.0090765 -0.0218962 -0.999719 
0.000108206 -1.59154e-05 -1 