# vtk DataFile Version 3.0 
Exported using Morpho https://github.com/Morpho-lang/morpho 
ASCII 
DATASET UNSTRUCTURED_GRID 

POINTS 1978 float 
-8.48528 -2.82843 -1.31147e-15 
-8.26121 -2.82843 -1.08736e-14 
-8.03512 -2.82843 -5.26309e-14 
-7.77594 -2.82843 5.33237e-14 
-7.49501 -2.82843 1.575e-13 
-7.24154 -2.82843 5.77006e-14 
-6.99834 -2.82843 4.3619e-15 
-6.78306 -2.82843 5.04292e-15 
-6.56128 -2.82843 8.45567e-15 
-6.3473 -2.82843 1.30899e-14 
-6.14324 -2.82843 2.42723e-14 
-5.91629 -2.82843 7.05624e-15 
-5.7073 -2.82843 4.93572e-15 
-5.50648 -2.82843 1.06139e-14 
-5.29235 -2.82843 6.55114e-15 
-5.0839 -2.82843 4.286e-15 
-4.86861 -2.82843 6.17623e-15 
-4.66173 -2.82843 8.41031e-15 
-4.44018 -2.82843 6.82281e-15 
-4.22186 -2.82843 5.45628e-15 
-4.00176 -2.82843 4.81586e-15 
-3.7933 -2.82843 6.02072e-15 
-3.58208 -2.82843 5.83664e-15 
-3.37332 -2.82843 8.22238e-15 
-3.15908 -2.82843 1.13338e-14 
-2.94946 -2.82843 1.67641e-14 
-2.74479 -2.82843 3.03599e-14 
-2.54646 -2.82843 4.13423e-14 
-2.33144 -2.82843 6.70405e-14 
-2.13131 -2.82843 4.51119e-14 
-1.90932 -2.82843 2.3735e-14 
-1.71423 -2.82843 -1.29235e-13 
-1.51653 -2.82843 -1.21184e-13 
-1.31266 -2.82843 5.11135e-14 
-1.14118 -2.82843 -5.88467e-13 
-0.884806 -2.82843 -4.54807e-14 
-0.685157 -2.82843 7.59505e-12 
-0.484509 -2.82843 -6.52054e-12 
-0.255719 -2.82843 1.02724e-12 
-0.0290917 -2.82843 -4.41387e-12 
0.290656 -2.82843 4.07481e-12 
0.482262 -2.82843 -1.46929e-12 
0.69767 -2.82843 9.46063e-15 
0.91104 -2.82843 -8.19165e-14 
1.11368 -2.82843 1.73109e-13 
1.31358 -2.82843 3.38261e-14 
1.51477 -2.82843 2.31147e-13 
1.71184 -2.82843 5.31634e-14 
1.91544 -2.82843 -1.41193e-13 
2.12124 -2.82843 -9.2536e-14 
2.34636 -2.82843 -8.31085e-14 
2.54374 -2.82843 -5.7668e-14 
2.7557 -2.82843 -2.99233e-14 
2.97757 -2.82843 -2.25045e-14 
3.18441 -2.82843 -1.18147e-14 
3.38504 -2.82843 -4.97617e-15 
3.60778 -2.82843 -1.0192e-14 
3.8081 -2.82843 -3.25945e-15 
4.02163 -2.82843 -2.91145e-16 
4.24814 -2.82843 -8.10611e-15 
4.44794 -2.82843 -7.69981e-15 
4.6633 -2.82843 -1.33081e-15 
4.87009 -2.82843 -1.12252e-14 
5.07774 -2.82843 -2.75064e-15 
5.29102 -2.82843 -7.03187e-15 
5.50342 -2.82843 -1.31403e-14 
5.70613 -2.82843 -2.99957e-15 
5.92315 -2.82843 -1.17978e-14 
6.14364 -2.82843 -1.06429e-14 
6.34318 -2.82843 -8.49623e-15 
6.58229 -2.82843 -1.28592e-14 
6.79604 -2.82843 -8.98183e-15 
6.99697 -2.82843 -1.71131e-14 
7.2624 -2.82843 -4.25849e-14 
7.49562 -2.82843 -6.94679e-14 
7.73698 -2.82843 -2.27567e-14 
8.01017 -2.82843 3.78825e-14 
8.19419 -2.82843 -5.11452e-16 
8.48528 -2.82843 -6.62027e-15 
-8.48528 -2.59144 5.87854e-14 
-8.2588 -2.58934 -4.16686e-14 
-8.0246 -2.59134 -6.50841e-14 
-7.78301 -2.61838 -1.00196e-13 
-7.52747 -2.63849 -9.78166e-14 
-7.23649 -2.61434 -6.36371e-14 
-6.99503 -2.59544 -5.08463e-14 
-6.77459 -2.59388 -4.58795e-14 
-6.54374 -2.59587 -4.42532e-14 
-6.33112 -2.57964 -3.01625e-14 
-6.10222 -2.60721 -2.92187e-14 
-5.88706 -2.58817 -2.10602e-14 
-5.67879 -2.57875 -1.58829e-14 
-5.46206 -2.59604 -1.21742e-14 
-5.24817 -2.58872 -7.53358e-15 
-5.03033 -2.59569 -4.29637e-15 
-4.81926 -2.58465 9.02047e-17 
-4.59908 -2.60008 5.02701e-15 
-4.37762 -2.5965 1.06975e-14 
-4.15652 -2.59826 1.83283e-14 
-3.94464 -2.58555 2.6219e-14 
-3.73277 -2.59068 3.77116e-14 
-3.52115 -2.59113 4.89545e-14 
-3.30651 -2.60032 6.49153e-14 
-3.09291 -2.59878 7.5548e-14 
-2.88264 -2.5963 8.48995e-14 
-2.6796 -2.59238 8.20412e-14 
-2.46842 -2.6119 8.24773e-14 
-2.25767 -2.59663 4.46833e-14 
-2.04529 -2.6206 2.68183e-14 
-1.83341 -2.59075 1.96777e-15 
-1.63074 -2.58727 6.20411e-14 
-1.43362 -2.59498 3.5673e-13 
-1.25561 -2.52201 6.45082e-13 
-1.04384 -2.63108 1.32275e-12 
-0.835215 -2.55425 2.95184e-12 
-0.637067 -2.52001 2.13082e-12 
-0.422645 -2.54276 3.96069e-12 
-0.198751 -2.52723 9.43385e-13 
0.00236662 -2.45094 -1.0546e-12 
0.188411 -2.60685 -2.45704e-13 
0.446725 -2.48174 -2.3494e-12 
0.638035 -2.55334 -3.30484e-12 
0.862872 -2.58329 -2.36072e-12 
1.08241 -2.56783 -1.3552e-12 
1.28627 -2.58665 -6.55315e-13 
1.49812 -2.60689 -1.77234e-13 
1.71195 -2.59929 -1.0089e-13 
1.91674 -2.6049 -5.93176e-14 
2.14863 -2.62883 -3.73892e-14 
2.35588 -2.59414 -4.59043e-14 
2.56858 -2.60419 -8.33166e-14 
2.79928 -2.61709 -9.55441e-14 
3.00657 -2.59274 -7.71587e-14 
3.2134 -2.58474 -6.44972e-14 
3.43615 -2.60812 -6.07913e-14 
3.64241 -2.58116 -4.05612e-14 
3.85627 -2.59445 -3.15615e-14 
4.0834 -2.60708 -2.29283e-14 
4.29164 -2.57689 -1.28081e-14 
4.50812 -2.59592 -7.25695e-15 
4.72106 -2.58641 -2.08576e-15 
4.93516 -2.58949 2.14579e-15 
5.15053 -2.59582 6.47714e-15 
5.36981 -2.59592 1.03959e-14 
5.58148 -2.58454 1.38882e-14 
5.79759 -2.59918 1.97837e-14 
6.02238 -2.60047 2.51653e-14 
6.23632 -2.5732 2.71761e-14 
6.45672 -2.61222 4.09691e-14 
6.6853 -2.58339 4.2154e-14 
6.89536 -2.56468 4.32575e-14 
7.12399 -2.62776 6.74463e-14 
7.37646 -2.59833 6.07915e-14 
7.61501 -2.60579 8.2134e-14 
7.87206 -2.63142 1.03204e-13 
8.08059 -2.53431 4.58402e-14 
8.30284 -2.63952 5.06727e-14 
8.48528 -2.52953 -6.76194e-14 
-8.48528 -2.35069 1.07883e-13 
-8.25065 -2.355 -1.8094e-15 
-8.01079 -2.35276 -5.44764e-16 
-7.76947 -2.3985 -1.61293e-14 
-7.56679 -2.25018 3.45624e-15 
-7.47214 -2.45409 -2.11794e-14 
-7.19155 -2.40322 -1.29344e-14 
-6.95838 -2.3514 6.10772e-16 
-6.71635 -2.37534 -8.14538e-15 
-6.49137 -2.35269 -5.03884e-15 
-6.24589 -2.36707 -5.99212e-15 
-6.03148 -2.36405 -4.12324e-15 
-5.81263 -2.34419 -2.81627e-15 
-5.58424 -2.35447 -2.05133e-15 
-5.36935 -2.35833 -1.11185e-15 
-5.144 -2.36195 -7.17986e-16 
-4.92965 -2.35086 -6.9791e-17 
-4.70434 -2.36334 8.89269e-16 
-4.4847 -2.36913 2.30073e-15 
-4.2607 -2.36779 4.20106e-15 
-4.04761 -2.3518 5.45074e-15 
-3.83189 -2.35035 6.51057e-15 
-3.62061 -2.35491 8.20302e-15 
-3.40551 -2.36566 1.06925e-14 
-3.19393 -2.37056 1.3301e-14 
-2.98097 -2.36891 1.25524e-14 
-2.77259 -2.35827 8.14744e-15 
-2.56121 -2.378 1.09461e-14 
-2.35454 -2.38221 8.99476e-15 
-2.12886 -2.38659 2.48149e-15 
-1.92421 -2.38742 -6.23808e-15 
-1.69305 -2.35917 -5.8237e-14 
-1.47756 -2.34196 -2.08672e-13 
-1.27541 -2.26254 1.99198e-13 
-1.06231 -2.38114 -3.04353e-13 
-0.876274 -2.27384 -1.3222e-12 
-0.641468 -2.25274 -5.4811e-13 
-0.407295 -2.24343 -2.272e-12 
-0.196371 -2.19057 5.69971e-13 
0.0548482 -2.13418 1.84895e-12 
0.257681 -2.28939 -1.05411e-12 
0.454744 -2.14218 2.94723e-12 
0.66111 -2.22477 -7.15095e-14 
0.841018 -2.33198 -6.76306e-13 
1.06468 -2.31716 4.08618e-13 
1.28661 -2.33147 2.51864e-13 
1.48991 -2.38278 2.51606e-14 
1.69274 -2.36556 1.09203e-13 
1.89631 -2.37238 2.09317e-14 
2.09882 -2.41989 1.42604e-14 
2.30677 -2.37671 -5.72398e-15 
2.52897 -2.3735 -1.74803e-14 
2.74305 -2.40493 -1.60033e-14 
2.95772 -2.35704 -1.71332e-14 
3.16019 -2.34801 -8.51479e-15 
3.37692 -2.37813 -1.30155e-14 
3.58307 -2.34496 -7.616e-15 
3.79483 -2.3547 -6.99318e-15 
4.01006 -2.37952 -6.80643e-15 
4.219 -2.34262 -3.57371e-15 
4.43903 -2.35583 -2.43829e-15 
4.64847 -2.35001 -1.20407e-15 
4.86342 -2.35348 -4.68932e-16 
5.07908 -2.35814 2.7612e-16 
5.29338 -2.36744 1.11089e-15 
5.509 -2.35087 1.55341e-15 
5.72808 -2.36095 2.60291e-15 
5.94506 -2.37401 4.20171e-15 
6.16171 -2.3439 3.70601e-15 
6.39493 -2.36457 6.50751e-15 
6.60569 -2.36387 7.743e-15 
6.83103 -2.31748 1.19931e-15 
7.06334 -2.37615 5.29174e-15 
7.28316 -2.3973 7.43731e-15 
7.54407 -2.37549 1.41913e-14 
7.78884 -2.41145 2.65275e-14 
8.00064 -2.31232 -2.23231e-15 
8.26116 -2.3704 -5.57502e-15 
8.48528 -2.28726 -1.02358e-13 
-8.48528 -2.11264 6.48359e-14 
-8.25711 -2.10624 5.95048e-15 
-8.0482 -2.10993 1.44031e-14 
-7.80432 -2.15548 1.09973e-14 
-7.51712 -2.03726 8.746e-15 
-7.30973 -2.22891 1.23523e-14 
-7.06758 -2.14078 2.2402e-14 
-6.8053 -2.14335 1.15646e-14 
-6.58869 -2.12812 1.08702e-14 
-6.34603 -2.14844 7.06854e-15 
-6.12152 -2.11954 7.36848e-15 
-5.91374 -2.1164 4.85271e-15 
-5.68552 -2.12627 3.51432e-15 
-5.46548 -2.11769 2.89396e-15 
-5.24889 -2.13371 1.98965e-15 
-5.0348 -2.11812 1.42941e-15 
-4.81169 -2.13025 7.08968e-16 
-4.59339 -2.13425 3.79067e-16 
-4.37571 -2.14031 4.18943e-17 
-4.16506 -2.12116 -8.81343e-16 
-3.95028 -2.11623 -2.39332e-15 
-3.73786 -2.11533 -4.7356e-15 
-3.52453 -2.12862 -7.37235e-15 
-3.31395 -2.13473 -1.01039e-14 
-3.10293 -2.14108 -1.33214e-14 
-2.89371 -2.13284 -1.63885e-14 
-2.67605 -2.1373 -1.95883e-14 
-2.46895 -2.1475 -2.36267e-14 
-2.25199 -2.16991 -1.4336e-14 
-2.03631 -2.1487 -2.91895e-14 
-1.82255 -2.16905 -1.23869e-14 
-1.5919 -2.12214 -1.60414e-14 
-1.39324 -2.05254 -4.18821e-13 
-1.18773 -1.90287 1.3106e-15 
-1.09036 -2.10607 -7.14261e-13 
-0.829983 -2.0242 -5.59484e-13 
-0.588169 -1.96612 -8.70788e-13 
-0.368657 -1.9125 -3.96111e-13 
-0.10426 -1.89885 -3.341e-13 
0.0581057 -1.67783 3.86344e-12 
0.24101 -1.91664 1.43107e-13 
0.298377 -1.57504 -3.6047e-12 
0.493645 -1.85371 -1.38126e-12 
0.740705 -1.9473 2.77742e-12 
0.952529 -2.06828 6.94386e-13 
1.20748 -2.09018 3.41599e-13 
1.46126 -2.13714 5.86801e-14 
1.67155 -2.1294 4.81225e-14 
1.88451 -2.13982 3.90525e-14 
2.10193 -2.18827 3.53127e-14 
2.33918 -2.16614 2.51431e-14 
2.56861 -2.1535 2.44541e-14 
2.77418 -2.16989 1.43847e-14 
2.97992 -2.10975 1.75787e-14 
3.20456 -2.12944 1.4117e-14 
3.40742 -2.13328 1.0759e-14 
3.62373 -2.1115 6.45307e-15 
3.84107 -2.12835 3.78404e-15 
4.04378 -2.13261 1.78543e-15 
4.27152 -2.11698 4.78739e-16 
4.4806 -2.11407 -2.03395e-16 
4.69746 -2.11613 -5.32413e-16 
4.91328 -2.12157 -1.05244e-15 
5.12956 -2.12491 -1.58529e-15 
5.34166 -2.13158 -2.19125e-15 
5.56551 -2.12329 -2.92212e-15 
5.78355 -2.13056 -4.02081e-15 
5.99481 -2.13208 -5.00315e-15 
6.23547 -2.12932 -6.81077e-15 
6.44708 -2.11491 -9.43763e-15 
6.66032 -2.11816 -1.12975e-14 
6.92011 -2.10982 -1.8371e-14 
7.13734 -2.13852 -2.44577e-14 
7.36992 -2.18318 -1.788e-14 
7.56182 -2.08475 -1.17837e-14 
7.74253 -2.18051 -6.28267e-15 
7.95678 -2.08019 -1.77716e-14 
8.20504 -2.14789 -1.21346e-14 
8.48528 -2.09213 -3.17945e-14 
-8.48528 -1.81624 2.39111e-14 
-8.30405 -1.86114 -9.68851e-16 
-7.89088 -1.9118 8.86422e-15 
-7.6746 -1.90461 1.44198e-15 
[...]
POINT_DATA 1978 
VECTORS vectors float
0.000106157 -0.00233142 0.999997 
-2.11765e-05 -0.0241009 0.99971 
-0.000184619 -0.0236404 0.999721 
-0.000188261 -0.0308587 0.999524 
-0.000218768 -0.0346717 0.999399 
-0.000151161 -0.0309274 0.999522 
-0.000109737 -0.0258914 0.999665 
-7.09982e-05 -0.0206657 0.999786 
-0.000102671 -0.0164624 0.999864 
-4.50495e-05 -0.0135234 0.999909 
-6.90585e-05 -0.0111206 0.999938 
-0.000124447 -0.00848024 0.999964 
-1.62487e-05 -0.00657528 0.999978 
-5.04379e-05 -0.00544332 0.999985 
-8.39213e-05 -0.00379798 0.999993 
-6.36084e-05 -0.00218863 0.999998 
-7.04246e-05 -0.000738958 1 
-6.55148e-05 0.000712212 1 
-0.000106298 0.00262652 0.999997 
-8.8734e-05 0.00516693 0.999987 
-7.67067e-05 0.00838867 0.999965 
-5.04324e-05 0.0126113 0.99992 
-6.02398e-05 0.0185336 0.999828 
-5.55061e-05 0.0264948 0.999649 
-6.28928e-05 0.0375987 0.999293 
-3.95619e-05 0.0519147 0.998652 
-1.14615e-05 0.070082 0.997541 
-2.57118e-05 0.0927249 0.995692 
-2.32751e-05 0.124706 0.992194 
-1.0205e-05 0.164051 0.986452 
3.54856e-06 0.219328 0.975651 
-1.59295e-05 0.279552 0.960131 
5.9976e-05 0.353661 0.935373 
-7.80945e-05 0.440589 0.897709 
5.68291e-05 0.528403 0.848994 
0.000182038 0.665898 0.746043 
-9.13903e-05 0.776491 0.630128 
9.61234e-05 0.879673 0.475579 
1.72752e-05 0.963634 0.267226 
2.18061e-05 0.999536 0.0304478 
-0.000125629 0.951508 -0.307623 
6.8334e-05 0.880355 -0.474316 
-0.000107974 0.768654 -0.639665 
-4.51887e-05 0.651438 -0.758702 
4.53658e-06 0.538652 -0.842529 
-4.72526e-05 0.439732 -0.898129 
2.14436e-06 0.353631 -0.935385 
-1.26993e-06 0.27934 -0.960192 
-1.85619e-05 0.217596 -0.976039 
3.53687e-05 0.165148 -0.986269 
1.80255e-05 0.122597 -0.992457 
5.48329e-06 0.0937637 -0.995594 
6.9231e-05 0.0692768 -0.997597 
6.35398e-05 0.049985 -0.99875 
1.58987e-05 0.0361607 -0.999346 
5.95082e-05 0.0260022 -0.999662 
8.38888e-05 0.0175212 -0.999846 
9.80896e-06 0.0122341 -0.999925 
0.000121869 0.00814718 -0.999967 
7.47782e-05 0.00459923 -0.999989 
2.77872e-05 0.00260881 -0.999997 
9.40269e-05 0.000797397 -1 
3.72549e-05 -0.000829631 -1 
6.58445e-05 -0.00206954 -0.999998 
8.98409e-05 -0.0037064 -0.999993 
4.46718e-05 -0.00529085 -0.999986 
4.54021e-05 -0.00657955 -0.999978 
0.000129012 -0.00873088 -0.999962 
2.96092e-05 -0.0110815 -0.999939 
8.34621e-05 -0.0131727 -0.999913 
0.000157548 -0.0171475 -0.999853 
-1.60625e-05 -0.0211363 -0.999777 
0.000129701 -0.0251462 -0.999684 
0.000190756 -0.031828 -0.999493 
8.81082e-05 -0.0352599 -0.999378 
0.000226921 -0.0327997 -0.999462 
9.39605e-05 -0.0250242 -0.999687 
1.83194e-05 -0.0246336 -0.999697 
9.40163e-05 -0.00151517 -0.999999 
0.000226697 0.000895232 1 
0.0129457 -0.0227824 0.999657 
0.0154088 -0.0261901 0.999538 
0.0163917 -0.028786 0.999451 
0.0154232 -0.0314707 0.999386 
0.0149994 -0.0295922 0.99945 
0.0157091 -0.0255451 0.99955 
0.0164304 -0.0210593 0.999643 
0.0172133 -0.0166691 0.999713 
0.0177172 -0.0135437 0.999751 
0.0176708 -0.0107271 0.999786 
0.0182807 -0.00825876 0.999799 
0.0185907 -0.00641261 0.999807 
0.0183023 -0.00494539 0.99982 
0.0183773 -0.00337229 0.999825 
0.0182229 -0.00175055 0.999832 
0.0183307 -0.000209761 0.999832 
0.0177967 0.00153181 0.99984 
0.0176597 0.00375339 0.999837 
0.0173802 0.00666223 0.999827 
0.0172483 0.0104761 0.999796 
0.0165213 0.015614 0.999742 
0.0155952 0.0225885 0.999623 
0.0143301 0.0319295 0.999387 
0.0129197 0.0444329 0.998929 
0.0112883 0.0606105 0.998098 
0.00929721 0.0809349 0.996676 
0.00678696 0.107826 0.994147 
0.00411082 0.143908 0.989583 
0.00115295 0.189761 0.98183 
-0.00223353 0.249369 0.968406 
-0.00513357 0.317837 0.948132 
-0.00746777 0.397282 0.917666 
-0.00963334 0.480597 0.876889 
-0.0121636 0.586869 0.80959 
-0.0131231 0.696476 0.71746 
-0.0115642 0.805065 0.593074 
-0.00848848 0.907456 0.42006 
-0.00383555 0.977929 0.208901 
0.00119361 0.999995 -0.002885 
0.00541791 0.978295 -0.207146 
0.0100743 0.892199 -0.45153 
0.0121718 0.799184 -0.600963 
0.0125965 0.677791 -0.735147 
0.0117625 0.562146 -0.826954 
0.00964324 0.459232 -0.888264 
0.00687539 0.367866 -0.929853 
0.00378761 0.288006 -0.957621 
0.000307572 0.221664 -0.975123 
-0.00261533 0.164898 -0.986307 
-0.00523117 0.126339 -0.991973 
-0.00783101 0.0943022 -0.995513 
-0.0101666 0.0680777 -0.997628 
-0.0122503 0.0504182 -0.998653 
-0.0138627 0.037148 -0.999214 
-0.0149399 0.0258126 -0.999555 
-0.0163604 0.0183226 -0.999698 
-0.0168099 0.0123855 -0.999782 
-0.0172122 0.00777947 -0.999822 
-0.0181911 0.00476026 -0.999823 
-0.0180856 0.00239857 -0.999834 
-0.0184654 0.000528996 -0.999829 
-0.0184764 -0.00110118 -0.999829 
-0.0183407 -0.00260007 -0.999828 
-0.0183946 -0.00421035 -0.999822 
-0.01859 -0.00578487 -0.99981 
-0.0180674 -0.00758939 -0.999808 
-0.0177915 -0.00987187 -0.999793 
-0.0179686 -0.0123271 -0.999763 
-0.0167309 -0.0153084 -0.999743 
-0.0168072 -0.0193226 -0.999672 
-0.0165315 -0.0234542 -0.999588 
-0.0148513 -0.0279341 -0.999499 
-0.0152624 -0.0310341 -0.999402 
-0.0158359 -0.0305227 -0.999409 
-0.0159901 -0.0281471 -0.999476 
-0.0159981 -0.0271771 -0.999503 
-0.0122065 -0.0219511 -0.999685 
2.46687e-05 0.000838797 -1 
-0.000274946 -0.00021108 1 
0.0125436 -0.0240415 0.999632 
0.0144857 -0.027139 0.999527 
0.0155253 -0.0268159 0.99952 
0.0135536 -0.026026 0.999569 
0.0162648 -0.0290138 0.999447 
0.0162886 -0.0283064 0.999467 
0.0158002 -0.024987 0.999563 
0.0170904 -0.0204833 0.999644 
0.0174074 -0.0164183 0.999714 
0.018257 -0.012768 0.999752 
0.0184419 -0.0100202 0.99978 
0.0186837 -0.00772575 0.999796 
0.0190667 -0.00580112 0.999801 
0.0190039 -0.00415885 0.999811 
0.0189442 -0.00246706 0.999817 
0.0187933 -0.000862246 0.999823 
0.0187858 0.000914943 0.999823 
0.0185969 0.00297915 0.999823 
0.0182906 0.00574388 0.999816 
0.0177473 0.009405 0.999798 
0.0169843 0.0144376 0.999752 
0.0160367 0.0210112 0.999651 
0.014834 0.0297767 0.999446 
0.0132786 0.0410225 0.99907 
0.0112728 0.0558469 0.998376 
0.00894158 0.0747221 0.997164 
0.00669716 0.0989531 0.99507 
0.00425019 0.129782 0.991533 
0.00150267 0.173411 0.984848 
-0.000968381 0.223856 0.974622 
-0.00343376 0.297686 0.954658 
-0.00490795 0.377721 0.925906 
-0.00520026 0.465414 0.885078 
-0.00820324 0.568118 0.822906 
-0.00628075 0.670211 0.742144 
-0.00506496 0.791351 0.611341 
-0.00337649 0.899417 0.437078 
-0.00079236 0.976186 0.216932 
0.000818616 0.998758 -0.0498241 
0.00392913 0.967645 -0.252286 
0.00367914 0.891628 -0.452754 
0.00507491 0.785174 -0.619255 
0.00725629 0.686902 -0.726714 
0.00678664 0.564595 -0.82534 
0.0060173 0.459667 -0.888071 
0.00491139 0.371486 -0.928425 
0.0030397 0.29922 -0.954179 
0.00127615 0.237147 -0.971473 
-0.000954219 0.182801 -0.98315 
-0.00329641 0.139547 -0.99021 
-0.00623406 0.104075 -0.99455 
-0.00894103 0.0774749 -0.996954 
-0.0109561 0.0575825 -0.998281 
-0.0126478 0.0433996 -0.998978 
-0.0146197 0.0309656 -0.999414 
-0.0157516 0.0224537 -0.999624 
-0.0168844 0.0154571 -0.999738 
-0.0178553 0.0100844 -0.99979 
-0.0181633 0.00643742 -0.999814 
-0.0185665 0.00348505 -0.999822 
-0.01867 0.00137492 -0.999825 
-0.0188108 -0.000414634 -0.999823 
-0.0189318 -0.00201297 -0.999819 
-0.0190485 -0.00356238 -0.999812 
-0.0189969 -0.00519717 -0.999806 
-0.0189593 -0.007062 -0.999795 
-0.0188547 -0.00921113 -0.99978 
-0.0183152 -0.0117284 -0.999763 
-0.017943 -0.014861 -0.999729 
-0.0173739 -0.0182989 -0.999682 
-0.0162505 -0.0227177 -0.99961 
-0.016184 -0.0269239 -0.999506 
-0.0158919 -0.029204 -0.999447 
-0.0154161 -0.0275419 -0.999502 
-0.0161676 -0.0267787 -0.999511 
-0.0143258 -0.0275449 -0.999518 
-0.0121543 -0.0247335 -0.99962 
0.000211612 -0.000317286 -1 
-0.000184216 0.000255791 1 
0.0111457 -0.0244498 0.999639 
0.0116789 -0.0259225 0.999596 
0.0117557 -0.024296 0.999636 
0.0125939 -0.0249669 0.999609 
0.0142588 -0.0282463 0.999499 
0.0140527 -0.0270224 0.999536 
0.0150237 -0.0225183 0.999634 
0.0156968 -0.0186692 0.999702 
0.0165561 -0.0146675 0.999755 
0.0170628 -0.0115953 0.999787 
0.0177391 -0.00911336 0.999801 
0.0182728 -0.00683391 0.99981 
0.0184301 -0.00492592 0.999818 
0.0182574 -0.00320637 0.999828 
0.0183098 -0.00159741 0.999831 
0.0180695 0.000147438 0.999837 
0.0178132 0.00208551 0.999839 
0.0174976 0.0045548 0.999837 
0.0172583 0.00789258 0.99982 
0.0166803 0.0125218 0.999782 
0.0157842 0.018642 0.999702 
0.0145062 0.0265488 0.999542 
0.01298 0.0366254 0.999245 
0.0110824 0.0494677 0.998714 
0.00896974 0.0660086 0.997779 
0.0064676 0.0880974 0.996091 
0.004021 0.115311 0.993321 
0.00167613 0.151792 0.988411 
-0.000482348 0.200099 0.979775 
-0.00210424 0.259006 0.965873 
-0.0029473 0.341333 0.939938 
-0.00323225 0.424009 0.905652 
-0.00370865 0.522514 0.852623 
-0.00351326 0.558692 0.829367 
-0.00272852 0.696563 0.71749 
-0.00209847 0.824742 0.565506 
-0.00112664 0.925551 0.37862 
-0.000219064 0.994162 0.107901 
-1.72916e-05 0.997348 -0.0727866 
0.000746626 0.959337 -0.282261 
0.00143949 0.949215 -0.314625 
0.00167547 0.867265 -0.497843 
0.00270496 0.741686 -0.670741 
0.00293865 0.626237 -0.779627 
0.00286922 0.501389 -0.865217 
0.00305968 0.392389 -0.919794 
0.00259056 0.309704 -0.95083 
0.00163522 0.238027 -0.971257 
-4.00793e-06 0.183021 -0.983109 
-0.00240016 0.135738 -0.990742 
-0.00505662 0.101673 -0.994805 
-0.00742776 0.0765549 -0.997038 
-0.00983829 0.0591867 -0.998198 
-0.0118103 0.0430232 -0.999004 
-0.0134657 0.0318827 -0.999401 
-0.0151641 0.0227009 -0.999627 
-0.0161671 0.0153714 -0.999751 
-0.0169577 0.0103133 -0.999803 
-0.0176485 0.00611824 -0.999826 
-0.0179397 0.00330295 -0.999834 
-0.0181457 0.0011014 -0.999835 
-0.0182524 -0.000697792 -0.999833 
-0.0183427 -0.00231422 -0.999829 
-0.018366 -0.00389732 -0.999824 
-0.0183797 -0.00571809 -0.999815 
-0.0180897 -0.00775185 -0.999806 
-0.017819 -0.0100569 -0.999791 
-0.0171821 -0.0131502 -0.999766 
-0.0164875 -0.0163364 -0.999731 
-0.0158005 -0.0199978 -0.999675 
-0.0147579 -0.0249771 -0.999579 
-0.0139317 -0.0280468 -0.99951 
-0.0134146 -0.0280537 -0.999516 
-0.0121019 -0.0246829 -0.999622 
-0.0121503 -0.0240871 -0.999636 
-0.0113217 -0.0253978 -0.999613 
-0.0116226 -0.0263125 -0.999586 
-0.00026192 1.55869e-05 -1 
-0.000169117 0.000140051 1 
0.0106451 -0.0218581 0.999704 
0.0114519 -0.0232356 0.999664 
0.0123631 -0.0226933 0.999666 
0.015926 -0.0264407 0.999524 
0.0139998 -0.0282894 0.999502 
0.0169606 -0.0288728 0.999439 
0.016089 -0.0259204 0.999535 
0.0187553 -0.0219193 0.999584 
0.0187485 -0.0176173 0.999669 
0.0203441 -0.0141587 0.999693 
0.0221009 -0.0112359 0.999693 
0.02227 -0.00852674 0.999716 
0.0227199 -0.00627276 0.999722 
0.0230442 -0.00424537 0.999725 
0.0231169 -0.0025689 0.999729 
0.0227772 -0.000807179 0.99974 
0.022502 0.00104964 0.999746 
0.022041 0.00328606 0.999752 
0.0219012 0.00616996 0.999741 
0.0215156 0.0102671 0.999716 
0.0207538 0.0157515 0.999661 
0.0194619 0.0229111 0.999548 
0.0178874 0.0317505 0.999336 
0.0159219 0.0429886 0.998949 
0.0137533 0.0569544 0.998282 
0.0110769 0.075539 0.997081 
0.00823418 0.099401 0.995013 
0.00491165 0.129611 0.991553 
0.00196723 0.168389 0.985719 
-0.000659331 0.222447 0.974945 
-0.00252949 0.284192 0.958764 
-0.00400253 0.356236 0.934387 
-0.00487522 0.444778 0.895628 
-0.00391566 0.643051 0.765814 
-0.00417395 0.760644 0.649156 
-0.00383878 0.872364 0.488842 
-0.00446165 0.935618 0.352985 
-0.00248038 0.962429 0.271523 
-0.00239009 0.997854 0.0654356 
-0.00108094 0.987099 -0.160107 
0.00209207 0.898527 -0.438914 
0.0035281 0.822212 -0.569171 
0.00467015 0.692602 -0.721305 
0.00408634 0.567607 -0.82329 
0.00601064 0.497718 -0.867318 
0.00374249 0.434121 -0.900847 
0.00369789 0.34459 -0.938746 
0.00244495 0.269964 -0.962867 
0.000462392 0.206649 -0.978415 
-0.00183735 0.15938 -0.987216 
-0.00554435 0.118592 -0.992928 
-0.00879272 0.0883973 -0.996046 
-0.0116957 0.0700128 -0.997478 
-0.0143191 0.0507968 -0.998606 
-0.0168613 0.0378455 -0.999141 
-0.0185794 0.0278027 -0.999441 
-0.0199219 0.0190376 -0.99962 
-0.0212174 0.0129101 -0.999692 
-0.0214749 0.00818255 -0.999736 
-0.0227017 0.00458986 -0.999732 
-0.0228904 0.00201123 -0.999736 
-0.0230704 -3.61651e-05 -0.999734 
-0.0231787 -0.0017529 -0.99973 
-0.0231939 -0.00343661 -0.999725 
-0.0228215 -0.00518814 -0.999726 
-0.0226585 -0.00735297 -0.999716 
-0.0222419 -0.00976891 -0.999705 
-0.0208448 -0.0125654 -0.999704 
-0.0208826 -0.0160826 -0.999653 
-0.0198535 -0.0197995 -0.999607 
-0.0178399 -0.0238765 -0.999556 
-0.0168576 -0.0281011 -0.999463 
-0.0148382 -0.0285013 -0.999484 
-0.0141663 -0.0246953 -0.999595 
-0.0121358 -0.0219293 -0.999686 
-0.0117682 -0.0244976 -0.999631 
-0.0111874 -0.0236645 -0.999657 
0.000220183 0.00011908 -1 
-8.7443e-05 9.11106e-05 1 
0.0108059 -0.0216308 0.999708 
0.0120163 -0.0239764 0.99964 
0.0139478 -0.0222272 0.999656 
0.0155414 -0.0223393 0.99963 
0.0188234 -0.0293585 0.999392 
0.0208398 -0.028408 0.999379 
0.02162 -0.0250489 0.999452 
0.0229477 -0.0199679 0.999537 
0.0239524 -0.0163643 0.999579 
0.0252112 -0.0131658 0.999595 
0.0260381 -0.0099539 0.999611 
0.0264717 -0.00744358 0.999622 
0.0267588 -0.00519638 0.999628 
0.0271345 -0.00326194 0.999626 
0.0269985 -0.00149569 0.999634 
0.0268594 0.000387368 0.999639 
0.0265197 0.00260109 0.999645 
0.0261647 0.00539768 0.999643 
0.0255042 0.00921085 0.999632 
0.0246019 0.0144674 0.999593 
0.023377 0.0213326 0.999499 
0.0218978 0.0299312 0.999312 
0.0200318 0.0405576 0.998976 
0.0178211 0.0540432 0.99838 
0.0151001 0.0712771 0.997342 
0.0119947 0.0941042 0.99549 
0.00828097 0.124781 0.99215 
0.00456089 0.162819 0.986645 
0.000950327 0.213149 0.977019 
-0.00245688 0.283685 0.958914 
-0.0050202 0.370448 0.92884 
-0.00643635 0.478795 0.877903 
-0.00649749 0.595542 0.803298 
-0.00601567 0.572705 0.819739 
-0.00612953 0.689732 0.724038 
-0.00565127 0.809494 0.587101 
-0.00514069 0.888317 0.459202 
-0.00345741 0.989634 0.143569 
-0.00167524 0.99773 -0.0673263 
-0.00030952 0.960228 -0.279217 
-0.0024953 0.97951 -0.20138 
0.00188818 0.861589 -0.507603 
0.00465668 0.755669 -0.654937 
0.00637696 0.618535 -0.785731 
0.00683071 0.507932 -0.86137 
0.00570824 0.399858 -0.916559 
0.00391838 0.317334 -0.948306 
0.001104 0.244212 -0.969721 
-0.00214277 0.188737 -0.982025 
-0.00545766 0.145497 -0.989344 
-0.00958526 0.10872 -0.994026 
-0.0129263 0.0864506 -0.996172 
-0.0157524 0.0642991 -0.997806 
-0.0185362 0.0486932 -0.998642 
-0.0207538 0.0366486 -0.999113 
-0.0224663 0.0261523 -0.999405 
-0.0239588 0.0184624 -0.999542 
-0.0250806 0.0122432 -0.99961 
-0.0256879 0.0076047 -0.999641 
-0.0265383 0.00407472 -0.999639 
-0.026857 0.00150385 -0.999638 
-0.0271333 -0.000500112 -0.999632 
-0.0272013 -0.00229112 -0.999627 
-0.0271894 -0.00406629 -0.999622 
-0.0267869 -0.00602513 -0.999623 
-0.0265061 -0.00836542 -0.999614 
-0.0257963 -0.011129 -0.999605 
-0.0248535 -0.014092 -0.999592 
-0.0241468 -0.0179109 -0.999548 
-0.0229245 -0.0220143 -0.999495 
-0.0212241 -0.0262497 -0.99943 
-0.0205051 -0.0296105 -0.999351 
-0.0183854 -0.0291408 -0.999406 
-0.0169572 -0.0246978 -0.999551 
-0.0144696 -0.0210712 -0.999673 
-0.0132373 -0.0234308 -0.999638 
-0.0113657 -0.0215397 -0.999703 
8.65314e-05 -4.65225e-06 -1 
4.49222e-05 2.59333e-05 1 
0.0101717 -0.0216739 0.999713 
0.0130094 -0.0234606 0.99964 
0.0145185 -0.0215447 0.999662 
0.0172655 -0.0252738 0.999531 
0.0180368 -0.0304422 0.999374 
0.0202437 -0.0304712 0.999331 
0.0207023 -0.0271049 0.999418 
0.0226436 -0.0231036 0.999477 
0.0230549 -0.0190009 0.999554 
0.0237588 -0.0156449 0.999595 
0.0246623 -0.0120835 0.999623 
0.0249751 -0.00915404 0.999646 
0.0256631 -0.00668941 0.999648 
0.025904 -0.00456624 0.999654 
0.0259216 -0.00253347 0.999661 
0.026231 -0.000708788 0.999656 
0.0259937 0.00138604 0.999661 
0.0253642 0.00386573 0.999671 
0.0246813 0.00728018 0.999669 
0.0239469 0.0118528 0.999643 
0.0229078 0.0180236 0.999575 
0.0216189 0.0257177 0.999435 
0.0201509 0.0353675 0.999171 
0.0184405 0.0470976 0.99872 
0.0162842 0.0622007 0.997931 
0.0138089 0.0812431 0.996599 
0.0107937 0.107325 0.994165 
0.00739333 0.141137 0.989962 
0.0038686 0.184273 0.982867 
9.58369e-05 0.243261 0.969961 
-0.00318998 0.317112 0.948383 
-0.00548023 0.421216 0.906944 
-0.00574849 0.526267 0.8503 
-0.00592136 0.727054 0.686554 
-0.00443839 0.842392 0.538847 
-0.00160519 0.907899 0.419186 
4.16773e-05 0.96631 0.257381 
-0.00276415 0.965455 0.260556 
-0.00127324 0.995113 0.0987367 
-0.00130461 0.999917 0.0127958 
-0.00230995 0.924439 -0.381324 
-0.00104144 0.913902 -0.405933 
0.00229322 0.785482 -0.61888 
0.00476411 0.684823 -0.728694 
0.00570979 0.580039 -0.814569 
0.0058767 0.41393 -0.91029 
0.0039167 0.342192 -0.939622 
0.00152566 0.269869 -0.962896 
-0.00197269 0.207328 -0.978269 
-0.00549821 0.160967 -0.986944 
-0.00886086 0.124685 -0.992157 
-0.0111542 0.100755 -0.994849 
-0.0145117 0.0746694 -0.997103 
-0.0169065 0.0574382 -0.998206 
-0.0187231 0.0435414 -0.998876 
-0.020837 0.0316148 -0.999283 
-0.022167 0.022904 -0.999492 
-0.0233886 0.0156627 -0.999604 
-0.0244306 0.00993496 -0.999652 
-0.0252107 0.00588697 -0.999665 
-0.0255464 0.00255288 -0.99967 
-0.0258196 0.000286133 -0.999667 
-0.0260022 -0.00171728 -0.99966 
-0.0259142 -0.00356206 -0.999658 
-0.0259185 -0.00561132 -0.999648 
-0.025565 -0.00786288 -0.999642 
-0.0250909 -0.0106965 -0.999628 
-0.0243159 -0.0138856 -0.999608 
-0.023495 -0.0172965 -0.999574 
-0.0222766 -0.0217622 -0.999515 
-0.0215581 -0.0263833 -0.999419 
-0.0199238 -0.0305062 -0.999336 
-0.0185659 -0.0295068 -0.999392 
-0.0163861 -0.0247614 -0.999559 
-0.015026 -0.0213206 -0.99966 
-0.0129207 -0.0231498 -0.999649 
-0.0113791 -0.0224333 -0.999684 
-0.000155165 5.14706e-06 -1 
5.64703e-05 -1.3585e-05 1 
0.00845038 -0.0226633 0.999707 
0.0123312 -0.0230396 0.999659 
0.0120126 -0.0217632 0.999691 
0.0148867 -0.0245476 0.999588 
0.0152518 -0.031285 0.999394 
0.0173875 -0.0311043 0.999365 
0.0173033 -0.0271676 0.999481 
0.0194808 -0.022682 0.999553 
0.0188024 -0.0189547 0.999644 
0.0202828 -0.0150099 0.999682 
0.0207777 -0.0116597 0.999716 
0.0207195 -0.00871907 0.999747 
0.0214677 -0.00631857 0.99975 
0.0219568 -0.0040793 0.999751 
0.021574 -0.00203007 0.999765 
0.0221609 -5.10234e-05 0.999754 
0.021382 0.0022016 0.999769 
0.0208588 0.00524523 0.999769 
0.0201854 0.00937008 0.999752 
0.0195542 0.0147949 0.999699 
0.0184629 0.0217611 0.999593 
0.0173172 0.0305123 0.999384 
0.0159407 0.0413353 0.999018 
0.0144583 0.054812 0.998392 
0.0125399 0.072285 0.997305 
0.0104817 0.0951438 0.995408 
0.00783917 0.125397 0.992076 
0.00488517 0.16624 0.986073 
0.00193085 0.218595 0.975814 
-0.00106805 0.283116 0.959085 
-0.00361579 0.364579 0.931165 
-0.0044169 0.46191 0.886916 
-0.00427076 0.584021 0.811727 
-0.00519998 0.659848 0.751381 
-0.00376018 0.769618 0.638494 
0.00148055 0.934197 0.356755 
0.00228242 0.993646 0.112531 
0.00195197 0.996358 0.0852438 
0.000402549 0.999029 0.0440624 
-0.00151839 0.999832 -0.0182798 
-0.00256068 0.998902 -0.0467829 
-0.00155133 0.835208 -0.549932 
0.000678909 0.796227 -0.604997 
0.0028807 0.666123 -0.745836 
0.00387041 0.560717 -0.827998 
0.00514224 0.472493 -0.881319 
0.0036615 0.386928 -0.922103 
0.00140058 0.292107 -0.956385 
-0.00115307 0.227243 -0.973837 
-0.00439841 0.172368 -0.985023 
-0.00724944 0.133148 -0.99107 
-0.0101938 0.0940475 -0.995516 
-0.0124679 0.07171 -0.997348 
-0.0144312 0.0547772 -0.998394 
-0.0161445 0.0402239 -0.99906 
-0.017397 0.0299079 -0.999401 
-0.0186407 0.0212207 -0.999601 
-0.0198331 0.0141792 -0.999703 
-0.0204278 0.00893734 -0.999751 
-0.0216544 0.00476573 -0.999754 
-0.0212446 0.0017603 -0.999773 
-0.0217382 -0.000541179 -0.999764 
-0.0214754 -0.0024899 -0.999766 
-0.0216512 -0.00450344 -0.999755 
-0.0213495 -0.0066264 -0.99975 
-0.0213863 -0.00917601 -0.999729 
-0.0207618 -0.0121265 -0.999711 
-0.0198294 -0.0154079 -0.999685 
-0.0196766 -0.0193517 -0.999619 
-0.0183367 -0.0238046 -0.999548 
-0.0186433 -0.0276375 -0.999444 
-0.0166169 -0.0313823 -0.999369 
-0.0165264 -0.0315324 -0.999366 
-0.014174 -0.0269796 -0.999535 
-0.0127202 -0.0218952 -0.999679 
-0.0104617 -0.023791 -0.999662 
-0.00907668 -0.0218967 -0.999719 
0.000129003 4.91418e-05 -1 