# vtk DataFile Version 3.0 
Exported using Morpho https://github.com/Morpho-lang/morpho 
ASCII 
DATASET UNSTRUCTURED_GRID 

POINTS 1978 float 
-8.48644 -2.82782 3.48109e-05 
-8.23906 -2.8322 -0.00020331 
-8.05327 -2.83171 -0.000184912 
-7.78855 -2.83536 -0.000161212 
-7.47431 -2.83369 -0.000211108 
-7.21348 -2.83681 -0.000139713 
-7.00696 -2.83878 -0.00011106 
-6.77003 -2.83338 -5.5739e-05 
-6.51866 -2.83528 -3.98791e-05 
-6.34114 -2.8369 -1.81677e-05 
-6.16506 -2.83233 -3.95402e-05 
-5.9382 -2.83652 -7.60671e-06 
-5.71632 -2.83268 -2.30189e-05 
-5.51253 -2.83474 5.08622e-06 
-5.29346 -2.83538 -2.67555e-06 
-5.08592 -2.83762 4.61589e-06 
-4.86944 -2.83519 2.01383e-05 
-4.66571 -2.8361 5.61986e-05 
-4.44663 -2.83479 9.01066e-05 
-4.22824 -2.83597 6.77886e-05 
-4.01033 -2.83361 6.13098e-05 
-3.7976 -2.83188 5.96868e-05 
-3.57833 -2.83274 9.28687e-05 
-3.36756 -2.8319 0.000127894 
-3.14458 -2.83644 0.000140829 
-2.93679 -2.83377 0.00015301 
-2.72578 -2.83599 0.000165194 
-2.52957 -2.83638 0.00019141 
-2.31876 -2.83399 0.000206155 
-2.10716 -2.84016 0.000124381 
-1.88451 -2.8376 0.000238816 
-1.67916 -2.83714 0.000109917 
-1.49287 -2.8363 0.00036575 
-1.29081 -2.83436 0.000624471 
-1.09984 -2.81932 0.00214034 
-0.884601 -2.81366 0.00422869 
-0.691437 -2.80155 0.00535426 
-0.525502 -2.76916 0.00967204 
-0.245351 -2.73297 0.00443826 
0.0490091 -2.72382 -0.00136702 
0.274166 -2.75336 -0.00207733 
0.489403 -2.76969 -0.0101717 
0.684678 -2.7926 -0.00720831 
0.903054 -2.81186 -0.00445793 
1.1028 -2.82043 -0.00224527 
1.27331 -2.83803 -0.000596686 
1.44131 -2.83619 -0.000721007 
1.69126 -2.84219 0.000210214 
1.87168 -2.84048 -0.000326611 
2.09654 -2.8383 -0.000255118 
2.3294 -2.83869 -0.000121739 
2.51857 -2.83763 -0.000238187 
2.74185 -2.83572 -0.000163199 
2.96264 -2.8379 -0.000151872 
3.17135 -2.83091 -0.000154218 
3.37906 -2.83108 -0.000110845 
3.60803 -2.83175 -9.20697e-05 
3.81135 -2.83248 -5.3063e-05 
4.02626 -2.83344 -5.45401e-05 
4.25453 -2.83336 -7.3305e-05 
4.454 -2.83451 -4.37977e-05 
4.66696 -2.83383 -7.53178e-05 
4.87456 -2.83312 -1.76101e-05 
5.07631 -2.83259 -1.6509e-05 
5.28836 -2.83583 -1.55408e-05 
5.4992 -2.83418 7.1715e-06 
5.70122 -2.8357 -1.15603e-05 
5.92099 -2.83722 1.40379e-05 
6.14265 -2.83409 1.88015e-05 
6.34287 -2.83865 5.9498e-05 
6.58299 -2.83592 3.11415e-05 
6.79447 -2.83713 5.30912e-05 
6.99481 -2.83787 0.000131809 
7.2593 -2.83378 0.000121214 
7.49097 -2.83401 0.000179404 
7.74356 -2.83019 0.000191576 
8.00951 -2.83006 0.000195447 
8.19675 -2.83238 0.00014828 
8.48503 -2.82692 5.16565e-06 
-8.4878 -2.56204 0.000237014 
-8.28204 -2.61068 -3.16491e-05 
-8.04093 -2.53349 4.09298e-05 
-7.85311 -2.62428 4.58166e-05 
-7.57442 -2.65997 -2.66276e-05 
-7.26899 -2.62807 5.98849e-05 
-7.01286 -2.5749 -1.54236e-06 
-6.80551 -2.60827 8.96064e-07 
-6.56285 -2.62602 1.39935e-05 
-6.32932 -2.5433 -1.21337e-05 
-6.11162 -2.60859 -1.65428e-05 
-5.88886 -2.60662 -8.44404e-06 
-5.67653 -2.58278 3.15021e-06 
-5.46098 -2.60274 -4.76261e-06 
-5.24519 -2.59537 -2.95781e-06 
-5.0283 -2.60768 -1.08141e-05 
-4.82035 -2.59227 5.85105e-06 
-4.60356 -2.60827 -2.79049e-05 
-4.38411 -2.60546 -2.81737e-05 
-4.16173 -2.60374 -2.30324e-05 
-3.94691 -2.59079 1.05194e-05 
-3.73042 -2.59677 -1.02911e-06 
-3.5171 -2.59083 -2.46088e-07 
-3.2959 -2.6101 -3.90507e-06 
-3.08328 -2.60381 3.09619e-05 
-2.87006 -2.61143 7.5004e-05 
-2.66798 -2.60447 7.01854e-05 
-2.46065 -2.62445 6.31568e-05 
-2.24442 -2.6234 8.86233e-05 
-2.02667 -2.63528 9.60463e-05 
-1.81064 -2.60988 4.99118e-05 
-1.61291 -2.58298 -0.000151879 
-1.41063 -2.60555 -0.000847544 
-1.2135 -2.5821 -0.00150137 
-0.995942 -2.59857 -0.00156313 
-0.786833 -2.55931 -0.00280025 
-0.607416 -2.47871 -0.00364827 
-0.413091 -2.49456 -0.00649451 
-0.222509 -2.53136 -0.00165813 
-0.0218199 -2.44737 0.00306635 
0.206903 -2.47123 -0.00188463 
0.430069 -2.49515 0.00549341 
0.642892 -2.50799 0.00361834 
0.844449 -2.57737 0.00197077 
1.0605 -2.58041 0.00243951 
1.26431 -2.56482 0.00159507 
1.50233 -2.66255 0.0004308 
1.68661 -2.59339 3.656e-05 
1.90828 -2.6383 2.61587e-05 
2.14975 -2.64173 -8.34546e-05 
2.34898 -2.59424 -6.8111e-05 
2.56642 -2.62855 -3.22744e-05 
2.79195 -2.62249 -8.65496e-05 
3.00072 -2.60739 -5.45448e-05 
3.21041 -2.5958 -9.67405e-06 
3.43365 -2.61396 7.80996e-06 
3.63952 -2.58489 1.02914e-06 
3.85621 -2.59852 -2.19253e-05 
4.08786 -2.61194 7.94088e-06 
4.29845 -2.58101 1.53768e-05 
4.51506 -2.60371 1.12494e-05 
4.72805 -2.59855 2.6539e-05 
4.94047 -2.59302 1.55998e-06 
5.15397 -2.60602 1.97662e-05 
5.3729 -2.60267 1.15485e-05 
5.58372 -2.58679 8.44687e-06 
5.79893 -2.60648 1.8685e-05 
6.02321 -2.60509 1.88973e-05 
6.23857 -2.57542 1.6411e-06 
6.45815 -2.61947 3.32561e-06 
6.6861 -2.58505 -4.7261e-06 
6.89404 -2.56697 -1.56262e-05 
7.12132 -2.62773 -1.04385e-05 
7.37273 -2.59754 -1.57682e-05 
7.61397 -2.61508 -5.13382e-05 
7.87548 -2.62215 4.80306e-06 
8.08365 -2.5366 -6.39487e-05 
8.30552 -2.63797 -1.69981e-05 
8.48986 -2.52714 -0.000241403 
-8.4868 -2.37466 0.000175783 
-8.19631 -2.35854 -3.97296e-05 
-7.93684 -2.29292 -1.80548e-05 
-7.73059 -2.44162 2.3883e-05 
-7.58765 -2.285 4.92616e-05 
-7.43617 -2.46558 5.70898e-05 
-7.17247 -2.39387 -2.00098e-05 
-6.93636 -2.32496 -3.06106e-05 
-6.71118 -2.40001 -1.11452e-05 
-6.492 -2.3767 -6.55075e-06 
-6.21548 -2.34014 -1.30962e-05 
-6.01006 -2.37434 -4.96181e-05 
-5.7974 -2.35621 -3.86512e-05 
-5.56916 -2.35352 -2.46387e-05 
-5.35771 -2.36573 -3.00203e-05 
-5.1341 -2.36844 -3.42671e-05 
-4.92706 -2.35807 -2.91152e-05 
-4.70549 -2.3725 -5.61659e-05 
-4.4877 -2.37403 -6.6641e-05 
-4.2648 -2.37515 -8.75543e-05 
-4.04818 -2.35446 -6.00106e-05 
-3.82873 -2.35259 -3.12906e-05 
-3.61566 -2.35031 -4.4042e-05 
-3.39445 -2.3685 -4.93144e-05 
-3.18292 -2.36844 -5.61855e-05 
-2.96734 -2.37806 -2.26694e-05 
-2.75964 -2.37065 -1.41594e-07 
-2.54909 -2.38827 2.84903e-06 
-2.34239 -2.40678 -8.37539e-06 
-2.11889 -2.41282 -5.56206e-05 
-1.90652 -2.3991 -7.11045e-05 
-1.68866 -2.34872 -0.000116522 
-1.46883 -2.35375 -0.000518463 
-1.27523 -2.33272 -0.00142111 
-1.05926 -2.36663 -0.00178296 
-0.83773 -2.33425 -0.000226084 
-0.625411 -2.19297 -0.00330245 
-0.422239 -2.20492 -0.00104241 
-0.211239 -2.22415 -0.00200661 
0.0223091 -2.15094 0.000160569 
0.230747 -2.19522 0.00318528 
0.433986 -2.18624 0.00170978 
0.635209 -2.2326 0.00427286 
0.852426 -2.32727 0.00219104 
1.06372 -2.34137 0.00214685 
1.25776 -2.31207 0.000732465 
1.45561 -2.4491 0.000249827 
1.65486 -2.35073 0.000215693 
1.85804 -2.41337 1.33937e-05 
2.07786 -2.44467 -3.97018e-05 
2.29427 -2.36961 5.79575e-05 
2.51528 -2.39907 4.83292e-05 
2.72429 -2.41021 -1.42934e-05 
2.94227 -2.37239 2.97852e-05 
3.14635 -2.36013 5.4685e-05 
3.36512 -2.38038 4.67065e-05 
3.57078 -2.3423 2.97323e-05 
3.7841 -2.35485 3.88013e-05 
4.0043 -2.38244 6.59673e-05 
4.21575 -2.34536 6.07083e-05 
4.43933 -2.35968 6.29658e-05 
4.64934 -2.36085 6.16932e-05 
4.86347 -2.36051 3.63271e-05 
5.08289 -2.36507 4.19423e-05 
5.29284 -2.37727 2.26358e-05 
5.50815 -2.35199 1.65551e-05 
5.72672 -2.36398 3.65562e-05 
5.94055 -2.37863 5.91484e-05 
6.15652 -2.34596 4.29244e-05 
6.39363 -2.36804 -3.24071e-06 
6.60195 -2.36747 -1.07704e-05 
6.82804 -2.31769 2.10086e-05 
7.05874 -2.37484 1.06359e-05 
7.27969 -2.39432 8.35879e-06 
7.5448 -2.3846 -3.53515e-05 
7.78937 -2.41219 -2.64224e-05 
8.00601 -2.30651 8.71747e-06 
8.26237 -2.37093 8.24024e-05 
8.48783 -2.28842 -0.000147768 
-8.49057 -2.1251 0.000141757 
-8.27348 -2.1704 -3.43724e-05 
-8.08094 -2.07575 -1.02514e-05 
-7.79207 -2.13294 -3.2461e-05 
-7.52755 -2.0624 -3.82667e-05 
-7.33031 -2.235 -3.3329e-05 
-7.08468 -2.13793 -4.65393e-05 
-6.79679 -2.13862 -2.51842e-05 
-6.59328 -2.14688 2.4773e-05 
-6.35746 -2.16715 1.0937e-05 
-6.11453 -2.10308 -3.13548e-05 
-5.91581 -2.12334 -2.61355e-05 
-5.69027 -2.13061 1.32593e-05 
-5.46803 -2.11595 2.92834e-05 
-5.25515 -2.13819 2.18724e-05 
-5.04448 -2.11955 2.02684e-05 
-4.82372 -2.13703 1.5747e-05 
-4.60619 -2.14116 1.75253e-05 
-4.38538 -2.14214 7.06498e-06 
-4.17392 -2.12335 1.86056e-05 
-3.95486 -2.11669 3.86776e-05 
-3.7406 -2.10855 5.69399e-05 
-3.51932 -2.12498 5.13945e-05 
-3.30882 -2.12843 3.38166e-05 
-3.09445 -2.13982 4.8526e-05 
-2.88689 -2.13992 7.03552e-05 
-2.67271 -2.14423 6.45746e-05 
-2.46513 -2.159 5.73014e-05 
-2.2507 -2.19035 4.81243e-05 
-2.03461 -2.17245 -6.09873e-05 
-1.81914 -2.15048 -0.000136216 
-1.5754 -2.11759 -7.92782e-05 
-1.36916 -2.07017 0.000129154 
-1.19952 -1.96068 -0.000500871 
-1.08358 -2.12238 -0.000975126 
-0.840374 -2.10462 9.98586e-05 
-0.588344 -1.89708 -0.00234503 
-0.373353 -1.90605 -0.00248809 
-0.143043 -1.91858 0.00192947 
0.0523181 -1.74857 -0.00103522 
0.228463 -1.85169 0.00165671 
0.38107 -1.7503 0.00290005 
0.563935 -1.91913 -0.000789445 
0.764647 -1.99508 0.00352388 
0.966894 -2.08335 -0.000179917 
1.1941 -2.08032 0.0010883 
1.45766 -2.20396 0.000205487 
1.67288 -2.11218 0.000125176 
1.89222 -2.19516 4.73523e-05 
2.1072 -2.21073 5.57452e-05 
2.35988 -2.15996 -1.22188e-05 
2.56909 -2.16563 -5.26444e-05 
2.77735 -2.17463 -8.51985e-05 
2.98316 -2.12037 -4.4862e-05 
3.20324 -2.13554 -3.81288e-05 
3.40414 -2.1259 -2.30389e-05 
3.62151 -2.10425 -3.98405e-05 
3.83994 -2.12744 -5.94736e-05 
4.04265 -2.13131 -3.14447e-05 
4.27376 -2.11894 -1.90704e-05 
4.48405 -2.11531 -8.3914e-06 
4.69822 -2.12065 -6.79455e-06 
4.91703 -2.12998 -2.07255e-05 
5.12997 -2.12663 -2.18209e-05 
5.3398 -2.14033 -2.94715e-05 
5.56646 -2.12496 -2.59822e-05 
5.78307 -2.1314 -1.05676e-07 
5.99078 -2.1343 2.6186e-05 
6.23689 -2.13447 2.20878e-06 
6.44781 -2.11562 -2.10588e-05 
6.66058 -2.12418 -7.05268e-06 
6.92389 -2.11289 5.10944e-05 
7.1405 -2.14126 3.48996e-05 
7.37588 -2.18814 1.2003e-05 
7.56946 -2.09484 1.60094e-05 
7.74837 -2.18563 -1.51827e-06 
7.96157 -2.07876 4.16562e-05 
8.21195 -2.1501 -1.21885e-05 
8.48877 -2.09507 -0.00010589 
-8.48745 -1.81554 0.000201545 
-8.31501 -1.90749 4.30787e-05 
-7.90799 -1.91593 -3.23492e-05 
-7.67459 -1.8935 -1.55019e-05 
-7.43843 -1.80158 -1.142e-05 
[...]
POINT_DATA 1978 
VECTORS vectors float
0.0736746 -0.110113 0.992773 
0.0816959 -0.083694 0.996551 
0.088453 -0.0672532 0.997623 
0.0955662 -0.0503321 0.998205 
0.102439 -0.0374191 0.997839 
0.106405 -0.0286926 0.997628 
0.108993 -0.0227174 0.997573 
0.111847 -0.0181327 0.997341 
0.114047 -0.0133824 0.996839 
0.115244 -0.00976985 0.995897 
0.116931 -0.00888225 0.996451 
0.119283 -0.00692927 0.996361 
0.119215 -0.00511231 0.996353 
0.120311 -0.00432843 0.996088 
0.121275 -0.0038503 0.996048 
0.122528 -0.00318048 0.995844 
0.122497 -0.00228035 0.995755 
0.121587 -0.00174314 0.995846 
0.120325 -0.000594293 0.996039 
0.118763 0.000761423 0.996283 
0.116899 0.00274396 0.99648 
0.114482 0.00451066 0.996738 
0.112276 0.00705479 0.996952 
0.108325 0.0105124 0.997344 
0.103339 0.0160891 0.997643 
0.0953768 0.0247621 0.998136 
0.0850011 0.0372357 0.998546 
0.072948 0.0544394 0.99863 
0.0563686 0.0795048 0.997951 
0.0368499 0.113281 0.995504 
0.0118779 0.159991 0.9896 
-0.0170967 0.217389 0.97795 
-0.0480494 0.284803 0.958907 
-0.0815526 0.378458 0.923281 
-0.106014 0.487951 0.867319 
-0.123157 0.62201 0.7742 
-0.123571 0.73888 0.66323 
-0.110325 0.834779 0.540055 
-0.0637834 0.960879 0.2719 
0.0127456 0.997299 -0.0558533 
0.0708614 0.95077 -0.29973 
0.106471 0.856548 -0.505079 
0.125276 0.745707 -0.654979 
0.122838 0.605804 -0.786869 
0.105793 0.481937 -0.870625 
0.0819956 0.38793 -0.918403 
0.0551768 0.309167 -0.951074 
0.0162093 0.215853 -0.978202 
-0.00835261 0.164926 -0.988718 
-0.0354574 0.116121 -0.995318 
-0.0561724 0.0791872 -0.998106 
-0.0706657 0.0557774 -0.998875 
-0.0857427 0.0362668 -0.998677 
-0.0965689 0.0229441 -0.998065 
-0.104035 0.0151575 -0.997531 
-0.109473 0.0105624 -0.99713 
-0.112658 0.00688136 -0.996821 
-0.115125 0.00411137 -0.99658 
-0.117084 0.00209967 -0.996482 
-0.119198 0.00122432 -0.996248 
-0.121103 -0.000367202 -0.99594 
-0.122442 -0.00205912 -0.995698 
-0.122341 -0.00300964 -0.995729 
-0.122186 -0.00339224 -0.995732 
-0.121405 -0.00376438 -0.995921 
-0.120076 -0.00448884 -0.996088 
-0.119144 -0.00509465 -0.99623 
-0.11887 -0.00717828 -0.996395 
-0.117044 -0.00843245 -0.996598 
-0.115181 -0.00977687 -0.996856 
-0.112844 -0.0140693 -0.997162 
-0.111339 -0.0184649 -0.997255 
-0.108717 -0.0230471 -0.997638 
-0.105841 -0.0296569 -0.997788 
-0.1026 -0.0377884 -0.997626 
-0.0969006 -0.0486742 -0.997851 
-0.0895707 -0.0644387 -0.997602 
-0.0835778 -0.0796481 -0.996686 
-0.0756693 -0.110622 -0.992694 
0.0546586 -0.117069 0.994983 
0.0624825 -0.0928414 0.999129 
0.0637087 -0.0736331 1.00233 
0.074244 -0.0585998 1.00247 
0.0833311 -0.043743 1.00322 
0.0850942 -0.0319873 1.00265 
0.0835092 -0.0254412 1.0032 
0.0885544 -0.0203648 1.00271 
0.0917246 -0.0156095 1.00231 
0.0870752 -0.0120538 1.00356 
0.093536 -0.00923743 1.00205 
0.0945493 -0.00711686 1.00197 
0.0929206 -0.0058369 1.00215 
0.0960629 -0.00512124 1.00171 
0.0960861 -0.00440577 1.00171 
0.0978441 -0.0030185 1.00147 
0.0964571 -0.0014794 1.00159 
0.0971082 -0.000303134 1.00156 
0.0959523 0.00138222 1.00169 
0.0934378 0.00352779 1.002 
0.0903205 0.00579324 1.00236 
0.087958 0.00818261 1.00248 
0.084675 0.0119703 1.00271 
0.0823888 0.0175089 1.00268 
0.0761939 0.02619 1.00292 
0.0694789 0.0384162 1.00279 
0.0600813 0.0550905 1.00246 
0.0499507 0.0773198 1.00138 
0.0356403 0.109728 0.998939 
0.018817 0.151265 0.993764 
-0.00234074 0.208085 0.983277 
-0.0224262 0.27457 0.96628 
-0.0452342 0.35315 0.93837 
-0.0633579 0.45104 0.893186 
-0.0786958 0.570232 0.81845 
-0.0798847 0.691188 0.717543 
-0.063909 0.798122 0.592025 
-0.0520423 0.891464 0.432017 
-0.0347678 0.959115 0.243425 
-0.00313259 0.986894 0.0249416 
0.0272725 0.962737 -0.223427 
0.0550785 0.884409 -0.445918 
0.0700555 0.778681 -0.617026 
0.0830193 0.658563 -0.747715 
0.0755629 0.532783 -0.844177 
0.0573291 0.425997 -0.907289 
0.0366273 0.307099 -0.955049 
0.0152906 0.247571 -0.973789 
-0.00796275 0.178305 -0.989216 
-0.0293412 0.125888 -0.997265 
-0.0411887 0.0947743 -1.00051 
-0.0564229 0.0649035 -1.00213 
-0.0673548 0.0439726 -1.00271 
-0.0739989 0.0302143 -1.00282 
-0.0794354 0.0204904 -1.0028 
-0.0855022 0.0132337 -1.00246 
-0.085878 0.00971524 -1.0026 
-0.0895755 0.00648606 -1.00234 
-0.0939943 0.00385168 -1.00199 
-0.0930842 0.00234437 -1.0021 
-0.0963328 0.000560442 -1.0016 
-0.0966493 -0.000857955 -1.00155 
-0.0964858 -0.00227886 -1.00156 
-0.0974565 -0.00377123 -1.00147 
-0.096496 -0.00493172 -1.00162 
-0.0939833 -0.0057717 -1.00195 
-0.0947692 -0.00662926 -1.0019 
-0.0938408 -0.00833032 -1.00202 
-0.0903632 -0.0106434 -1.00251 
-0.0922113 -0.0134027 -1.00236 
-0.0875322 -0.0179847 -1.00276 
-0.0842879 -0.0224594 -1.00315 
-0.0870368 -0.0279088 -1.0028 
-0.0808511 -0.0364582 -1.00298 
-0.0790657 -0.0459568 -1.00273 
-0.0730735 -0.0603971 -1.00219 
-0.0637682 -0.0765082 -1.00211 
-0.0655869 -0.096219 -0.998646 
-0.0529146 -0.119253 -0.99492 
0.0434092 -0.12367 0.995042 
0.0492685 -0.0905968 1.00169 
0.0502754 -0.0712397 1.00437 
0.0634876 -0.0552873 1.00301 
0.0564231 -0.0502806 1.00415 
0.0700433 -0.0405632 1.00318 
0.068447 -0.0319587 1.00418 
0.0655664 -0.0254127 1.00467 
0.0724058 -0.0199027 1.00412 
0.0725146 -0.0161327 1.00421 
0.0713171 -0.0117187 1.00429 
0.0753398 -0.00917988 1.00391 
0.0745295 -0.00744633 1.00401 
0.0753167 -0.00664932 1.00387 
0.0775922 -0.00598832 1.00359 
0.0787415 -0.00428993 1.00353 
0.0781267 -0.00205533 1.0036 
0.0786571 0.000322533 1.0035 
0.0775484 0.00222666 1.00366 
0.0767035 0.00397259 1.00381 
0.0733644 0.00603576 1.00415 
0.0704352 0.00897519 1.0043 
0.0679087 0.0130014 1.0044 
0.0652725 0.0185733 1.00452 
0.0613265 0.0266431 1.00451 
0.0566209 0.038723 1.0043 
0.0490932 0.0560791 1.00376 
0.041506 0.0793332 1.00247 
0.0320039 0.108327 0.999999 
0.0191465 0.149298 0.994944 
0.00452371 0.200295 0.985788 
-0.0119915 0.269115 0.968797 
-0.0275431 0.350219 0.941344 
-0.0401883 0.438166 0.902386 
-0.0538376 0.545204 0.838511 
-0.0556706 0.67285 0.736989 
-0.043761 0.792707 0.59842 
-0.0346426 0.891493 0.431246 
-0.0189484 0.961641 0.225385 
0.000363784 0.985183 -0.0285222 
0.0181212 0.955499 -0.249435 
0.0326306 0.88477 -0.444103 
0.0438209 0.785047 -0.609313 
0.054372 0.665183 -0.743839 
0.0515806 0.545336 -0.838325 
0.0401881 0.447507 -0.897171 
0.0327565 0.348396 -0.940556 
0.013985 0.280546 -0.965039 
-0.000568414 0.21222 -0.983045 
-0.0168102 0.155908 -0.993722 
-0.0283359 0.119066 -0.998724 
-0.0407227 0.0827046 -1.00215 
-0.0501998 0.0579309 -1.00362 
-0.0554271 0.0406587 -1.00425 
-0.0603233 0.0285311 -1.00446 
-0.0656832 0.0194628 -1.00441 
-0.0664369 0.0141751 -1.00447 
-0.0704766 0.00953356 -1.00427 
-0.0748952 0.00616225 -1.00397 
-0.0738646 0.00446441 -1.00403 
-0.0766195 0.00270077 -1.00378 
-0.077553 0.000861347 -1.00374 
-0.0778592 -0.00130931 -1.00367 
-0.078314 -0.00363847 -1.00351 
-0.0784343 -0.00531904 -1.00345 
-0.0752922 -0.00643855 -1.00378 
-0.0756084 -0.00709912 -1.00373 
-0.0758269 -0.00850035 -1.00371 
-0.0721697 -0.0109343 -1.00409 
-0.0729505 -0.0141275 -1.0041 
-0.0712427 -0.0179368 -1.00416 
-0.0659323 -0.022999 -1.0045 
-0.0683037 -0.0281859 -1.0043 
-0.0667148 -0.0356135 -1.004 
-0.0623536 -0.0461864 -1.00484 
-0.0612151 -0.0593476 -1.00297 
-0.0493727 -0.0759539 -1.00374 
-0.0483688 -0.0971536 -1.00085 
-0.0397756 -0.1251 -0.994951 
0.0308518 -0.130379 0.99473 
0.0382727 -0.102552 1.00095 
0.0379376 -0.0859797 1.00288 
0.0444383 -0.06348 1.00537 
0.0448013 -0.0500258 1.00479 
0.0560535 -0.0392056 1.00451 
0.0529598 -0.0314352 1.00593 
0.0550419 -0.0237584 1.00514 
0.0572359 -0.0194257 1.00508 
0.0598219 -0.0147864 1.00502 
0.0571361 -0.0117986 1.00497 
0.0590647 -0.00958091 1.00488 
0.0604734 -0.00807386 1.00477 
0.0607151 -0.00742781 1.00469 
0.0629504 -0.00602041 1.00457 
0.062441 -0.00370612 1.00461 
0.0633106 -0.000557911 1.00454 
0.0634302 0.00218226 1.00457 
0.0621243 0.0044188 1.0047 
0.0598923 0.00610385 1.00485 
0.0573014 0.00835297 1.00493 
0.0551452 0.0121346 1.00498 
0.0528912 0.0175895 1.00506 
0.0497361 0.0249669 1.00494 
0.0460092 0.0358862 1.00475 
0.0409081 0.05137 1.0043 
0.0349679 0.0735682 1.00321 
0.028145 0.100986 1.00099 
0.0201481 0.135436 0.99703 
0.00979489 0.181395 0.989786 
-0.00175633 0.239706 0.976996 
-0.0159289 0.323598 0.951489 
-0.0246264 0.410491 0.915328 
-0.0279539 0.494313 0.872232 
-0.0389294 0.545226 0.83962 
-0.0411627 0.679009 0.731822 
-0.0283652 0.817096 0.564034 
-0.0218227 0.911462 0.382652 
-0.0105872 0.974615 0.151683 
0.0019643 0.982548 -0.061021 
0.0117518 0.955056 -0.246682 
0.0166931 0.906858 -0.395288 
0.0264761 0.827178 -0.551745 
0.033735 0.720528 -0.688802 
0.0378168 0.607062 -0.794932 
0.0309761 0.492093 -0.873545 
0.0234462 0.364493 -0.93585 
0.00971439 0.289016 -0.963814 
-0.00217946 0.216849 -0.982544 
-0.0144702 0.164117 -0.992843 
-0.0243619 0.117992 -0.999178 
-0.032309 0.0858937 -1.00242 
-0.0395265 0.0614836 -1.00401 
-0.0429306 0.043623 -1.0047 
-0.048213 0.0295433 -1.00501 
-0.0515963 0.0211484 -1.00497 
-0.0533908 0.0150901 -1.00488 
-0.0570114 0.010351 -1.00488 
-0.0590767 0.00743575 -1.00479 
-0.0601183 0.00532309 -1.00472 
-0.0613721 0.00341964 -1.0047 
-0.0623508 0.000947019 -1.00468 
-0.0632416 -0.00189692 -1.00454 
-0.0623799 -0.00459783 -1.00449 
-0.0629194 -0.00654237 -1.00447 
-0.0606634 -0.0077376 -1.00462 
-0.0600843 -0.00853055 -1.00465 
-0.0594348 -0.0101195 -1.0048 
-0.0586571 -0.0131259 -1.00494 
-0.0562946 -0.0166437 -1.00503 
-0.0556398 -0.0208671 -1.00502 
-0.0524578 -0.0270693 -1.00512 
-0.0524773 -0.0334131 -1.00482 
-0.0532456 -0.0418566 -1.00368 
-0.0453198 -0.0516279 -1.0046 
-0.0481867 -0.0601803 -1.00449 
-0.0396025 -0.0766032 -1.00381 
-0.0392639 -0.0965393 -1.00154 
-0.0294747 -0.130763 -0.994478 
0.0207662 -0.136966 0.994029 
0.0272815 -0.112591 1.00019 
0.0341527 -0.0754196 1.00311 
0.0358574 -0.0594573 1.00444 
0.0351891 -0.0481112 1.00538 
0.0441138 -0.0402027 1.00418 
0.0384335 -0.0354741 1.00512 
0.044698 -0.0283 1.00537 
0.0434961 -0.0236608 1.0053 
0.0468111 -0.018467 1.00527 
0.047551 -0.0144316 1.00519 
0.0451485 -0.0118304 1.00525 
0.0480326 -0.00955612 1.00509 
0.0489779 -0.00853211 1.00498 
0.0493405 -0.00773242 1.00491 
0.0502844 -0.00563064 1.00491 
0.0508955 -0.00206486 1.00493 
0.0509423 0.00131417 1.00493 
0.0506749 0.0039922 1.00496 
0.0486404 0.0059625 1.00499 
0.0470613 0.00820776 1.00501 
0.0447123 0.0112723 1.00511 
0.0431182 0.0157407 1.00512 
0.0408507 0.0216205 1.00501 
0.0380512 0.0305829 1.00486 
0.0343869 0.0443104 1.00453 
0.0297991 0.0632837 1.0037 
0.0247398 0.0882644 1.00209 
0.019261 0.119046 0.999011 
0.0124528 0.15652 0.993794 
0.00398984 0.208278 0.984228 
-0.00603189 0.2766 0.96705 
-0.0142871 0.355479 0.940656 
-0.0205714 0.466016 0.889242 
-0.0302962 0.644461 0.765266 
-0.0239872 0.759625 0.644635 
-0.0166021 0.855369 0.50725 
-0.0092608 0.911811 0.384067 
-0.00942296 0.956943 0.240989 
-0.000306279 0.982814 0.0373573 
0.00488541 0.963092 -0.200292 
0.0123024 0.898645 -0.411931 
0.019943 0.793218 -0.596889 
0.0240812 0.686676 -0.726418 
0.0255939 0.574401 -0.819985 
0.0211076 0.482093 -0.879782 
0.020486 0.401206 -0.920376 
0.0129111 0.342683 -0.944132 
0.00350471 0.257864 -0.972301 
-0.00573113 0.197512 -0.986598 
-0.0150164 0.14736 -0.995506 
-0.0219435 0.105011 -1.00082 
-0.0283962 0.0750725 -1.00317 
-0.0316248 0.0546037 -1.0043 
-0.0365696 0.0369973 -1.00494 
-0.0390847 0.0262576 -1.00504 
-0.0417851 0.0188562 -1.00503 
-0.0445137 0.0132579 -1.00507 
-0.0463531 0.00943365 -1.00503 
-0.0488706 0.00686038 -1.00497 
-0.048364 0.00504088 -1.00507 
-0.0495751 0.00283477 -1.00499 
-0.0505689 -0.000414398 -1.00493 
-0.0507246 -0.00392623 -1.00493 
-0.0503931 -0.00689594 -1.00493 
-0.0500825 -0.00830534 -1.00492 
-0.0481592 -0.00912451 -1.00503 
-0.0470892 -0.0106324 -1.00516 
-0.048089 -0.0130535 -1.00516 
-0.044576 -0.0168819 -1.00528 
-0.0435598 -0.0212264 -1.00539 
-0.0441109 -0.0260049 -1.00532 
-0.0410042 -0.0329211 -1.00623 
-0.042017 -0.0413002 -1.00484 
-0.0368855 -0.0525719 -1.00455 
-0.0355717 -0.0656399 -1.00428 
-0.0295123 -0.0862188 -1.0031 
-0.0293384 -0.105134 -1.001 
-0.021381 -0.135328 -0.994278 
0.0148979 -0.141762 0.993429 
0.0190886 -0.112579 1.00031 
0.0262495 -0.0945093 1.00245 
0.0261735 -0.0747176 1.00387 
0.0278556 -0.0606574 1.00369 
0.0299486 -0.0424112 1.00542 
0.0325741 -0.0321275 1.00562 
0.0346909 -0.0270623 1.00568 
0.0360217 -0.0210307 1.00557 
0.0369154 -0.0168779 1.0056 
0.0366888 -0.0137685 1.00562 
0.0368139 -0.0112458 1.00564 
0.0385255 -0.0100815 1.00549 
0.0396518 -0.00911009 1.00542 
0.0399334 -0.0069306 1.00548 
0.0412858 -0.00334923 1.00542 
0.0407231 0.000577457 1.00546 
0.0405357 0.0036362 1.00547 
0.0390326 0.00575308 1.00545 
0.0384714 0.00764176 1.00541 
0.0363531 0.0105498 1.00544 
0.0354225 0.0146764 1.00542 
0.0332388 0.0204995 1.00534 
0.0307782 0.0288401 1.00524 
0.0277638 0.0409326 1.00511 
0.0241881 0.0579615 1.00436 
0.0200495 0.0816994 1.0028 
0.0155598 0.11425 0.999918 
0.0102255 0.153163 0.994781 
0.00375437 0.200355 0.986216 
-0.00368746 0.269438 0.969298 
-0.0109995 0.359791 0.938673 
-0.0163248 0.45921 0.892509 
-0.0140765 0.59709 0.803251 
-0.0212396 0.577856 0.819409 
-0.0168675 0.689065 0.729646 
-0.0119194 0.772982 0.623089 
-0.00564583 0.853494 0.504895 
-0.00193987 0.965723 0.196204 
0.00100852 0.981548 -0.0270677 
0.00130488 0.955897 -0.24002 
-0.00187148 0.936187 -0.31508 
0.00849759 0.872295 -0.474688 
0.0157039 0.738008 -0.667689 
0.0181031 0.604815 -0.797466 
0.0157251 0.52269 -0.856359 
0.0155802 0.416558 -0.913963 
0.00831778 0.316318 -0.955503 
0.00149925 0.244109 -0.976136 
-0.0059929 0.18633 -0.988137 
-0.0133134 0.138432 -0.997678 
-0.0180045 0.0987814 -1.00146 
-0.0213549 0.0740222 -1.00352 
-0.0259718 0.0503878 -1.00483 
-0.0288434 0.0358931 -1.00522 
-0.0313359 0.0253849 -1.0053 
-0.0348061 0.0174447 -1.00539 
-0.0360657 0.0127258 -1.00546 
-0.0373548 0.0094849 -1.00538 
-0.0392498 0.00705587 -1.00548 
-0.0388433 0.00499965 -1.00562 
-0.0400571 0.00238833 -1.00552 
-0.0405276 -0.000984931 -1.00553 
-0.040726 -0.00493805 -1.00551 
-0.0399835 -0.00807142 -1.00544 
-0.0397281 -0.00960406 -1.00538 
-0.0381924 -0.0105581 -1.00553 
-0.0374124 -0.0121288 -1.00553 
-0.0374336 -0.0145885 -1.00551 
-0.0346985 -0.018516 -1.00575 
-0.0342141 -0.0234134 -1.00577 
-0.0352172 -0.0288507 -1.00481 
-0.0313263 -0.0352075 -1.00556 
-0.0326576 -0.0427022 -1.00518 
-0.0290228 -0.0544549 -1.00465 
-0.0277142 -0.0684783 -1.00425 
-0.0231237 -0.0874476 -1.003 
-0.0210899 -0.110747 -1.0006 
-0.0156297 -0.140418 -0.993719 
0.0102394 -0.144762 0.993132 
0.0143721 -0.110876 1.00071 
0.0201584 -0.0906649 1.00304 
0.0197545 -0.0712042 1.00525 
0.0246136 -0.0528506 1.00486 
0.0221749 -0.0446547 1.00536 
0.0259457 -0.0361782 1.00505 
0.0249911 -0.0293692 1.00661 
0.0286638 -0.0242342 1.00526 
0.0279448 -0.0193707 1.00591 
0.028675 -0.0159383 1.00603 
0.0300807 -0.0128362 1.00595 
0.0299768 -0.0114639 1.00574 
0.0318554 -0.0106006 1.00579 
0.0325039 -0.00897943 1.00569 
0.0328542 -0.0053771 1.00584 
0.0334899 -0.00122855 1.0057 
0.0328558 0.00255981 1.00587 
0.0323736 0.0050196 1.00584 
0.0311224 0.00714296 1.00574 
0.0303124 0.0095048 1.00573 
0.0295324 0.0127836 1.00553 
0.0283743 0.0172432 1.00545 
0.0266144 0.0239627 1.00534 
0.0238921 0.0339504 1.00526 
0.020845 0.0491589 1.00487 
0.0173062 0.069622 1.00383 
0.0137731 0.0974564 1.00169 
0.00992159 0.133229 0.997759 
0.00565738 0.177478 0.990972 
-0.000463638 0.236 0.978555 
-0.00634544 0.308991 0.957456 
-0.010978 0.428525 0.908471 
-0.0116372 0.539169 0.845857 
-0.0103274 0.726922 0.682686 
-0.00109732 0.847506 0.509346 
0.00395865 0.921603 0.370238 
0.00543487 0.967808 0.215165 
-0.00291841 0.91476 0.37191 
-0.00147677 0.962838 0.193181 
-0.00290845 0.983915 -0.0851832 
-0.00747047 0.889164 -0.430722 
0.00515772 0.853282 -0.509527 
0.00450686 0.801818 -0.591162 
0.0119621 0.699418 -0.713669 
0.0120356 0.549601 -0.838106 
0.0113697 0.401926 -0.920892 
0.00711588 0.318863 -0.954198 
0.0019573 0.245659 -0.976058 
-0.00402098 0.187931 -0.988877 
-0.00648972 0.158865 -0.994029 
-0.0114228 0.124818 -0.998065 
-0.0138289 0.0921875 -1.00219 
-0.0184781 0.0647398 -1.00442 
-0.021653 0.0453112 -1.00521 
-0.0244693 0.0313231 -1.00533 
-0.0275635 0.0216324 -1.00546 
-0.0286423 0.0158874 -1.00558 
-0.0299892 0.0116942 -1.00544 
-0.0310144 0.00858931 -1.00566 
-0.0320464 0.0064687 -1.0057 
-0.0324565 0.00408451 -1.0058 
-0.0323962 0.000937619 -1.00588 
-0.0331355 -0.00320391 -1.00585 
-0.0326552 -0.00735232 -1.00582 
-0.0325478 -0.010068 -1.0058 
-0.0312411 -0.0112548 -1.00576 
-0.0304033 -0.0122341 -1.00583 
-0.0293836 -0.0145845 -1.006 
-0.0279501 -0.0178359 -1.00595 
-0.0270646 -0.0227169 -1.00686 
-0.0273582 -0.0285874 -1.00599 
-0.0248064 -0.0357408 -1.00585 
-0.0243564 -0.0455717 -1.00529 
-0.0210738 -0.0577041 -1.0048 
-0.021111 -0.0697302 -1.00444 
-0.0174284 -0.0866718 -1.00329 
-0.0164549 -0.108691 -1.00087 
-0.0120381 -0.143658 -0.993216 
0.00812162 -0.147904 0.992778 
0.0110959 -0.116152 1.00014 
0.0158205 -0.0873905 1.00327 
0.014805 -0.0731426 1.00423 
0.0182414 -0.0590979 1.0048 
0.0172733 -0.0475072 1.00537 
0.0201796 -0.0359192 1.00573 
0.0193246 -0.0291082 1.00607 
0.0223281 -0.0236711 1.00583 
0.0215955 -0.0195109 1.00613 
0.0232765 -0.0154808 1.00604 
0.0244624 -0.0130446 1.00593 
0.0248543 -0.0121009 1.00582 
0.0262992 -0.0110447 1.00644 
0.0273513 -0.00817109 1.00514 
0.0267885 -0.00350753 1.00642 
0.027581 0.000901758 1.00517 
0.0263834 0.00416638 1.00645 
0.025724 0.00638531 1.00523 
0.0251943 0.00835285 1.00562 
0.0242875 0.0111703 1.00565 
0.0239638 0.0151657 1.00544 
0.0223812 0.0207243 1.00548 
0.0209 0.0293651 1.00536 
0.0183128 0.0414358 1.00508 
0.015329 0.0594734 1.00442 
0.0122069 0.0846155 1.00288 
0.0088729 0.116332 0.999922 
0.00545401 0.156187 0.994685 
0.00174581 0.209369 0.984913 
-0.00321853 0.272001 0.969125 
-0.00767758 0.363717 0.93762 
-0.00696079 0.480182 0.881782 
-0.00512982 0.595354 0.805692 
-0.0055853 0.683155 0.729966 
0.000803839 0.778414 0.621094 
0.00583357 0.849618 0.502244 
0.00369506 0.991228 0.114823 
0.00300045 0.99634 0.077003 
0.00339965 0.99669 0.0178077 
-0.000977178 0.995832 -0.0559939 
-0.00328365 0.991678 -0.117274 
-0.0075406 0.84071 -0.519095 
-0.000306764 0.760515 -0.646127 
0.00796374 0.66336 -0.748332 
0.00674647 0.566742 -0.826551 
0.00971839 0.454554 -0.895358 
0.00769203 0.386881 -0.927722 
0.00511599 0.297427 -0.961119 
0.000931887 0.228711 -0.980284 
-0.00409691 0.16818 -0.99266 
-0.00852918 0.120331 -0.999461 
-0.012316 0.0816929 -1.00322 
-0.0156096 0.058303 -1.00467 
-0.0184848 0.0410435 -1.00524 
-0.0212729 0.0276456 -1.00542 
-0.0227721 0.0200614 -1.0055 
-0.0238827 0.0142306 -1.00554 
-0.025047 0.0100918 -1.00561 
-0.0253477 0.00775112 -1.00638 
-0.0267235 0.00601328 -1.00519 
-0.0264161 0.0039085 -1.00649 
-0.0267449 0.00016854 -1.00599 
-0.0269666 -0.00457217 -1.00593 
-0.0269277 -0.00893895 -1.0058 
-0.02634 -0.0113883 -1.00577 
-0.0255603 -0.0122869 -1.00497 
-0.0241965 -0.0134358 -1.00591 
-0.0229576 -0.0160788 -1.00676 
-0.0223471 -0.0197591 -1.00517 
-0.0207913 -0.0245008 -1.0059 
-0.0214634 -0.0298257 -1.00597 
-0.0187893 -0.0363389 -1.00596 
-0.0195133 -0.0446407 -1.00548 
-0.016486 -0.0570625 -1.0049 
-0.0156774 -0.0723167 -1.00426 
-0.0130974 -0.0927677 -1.00281 
-0.0122955 -0.116125 -1 
-0.00905911 -0.147869 -0.992687 
0.00536867 -0.1509 0.991855 
0.00714059 -0.121134 0.999303 
0.0115397 -0.0945241 1.00262 
0.0113764 -0.0734514 1.00432 
0.014103 -0.0588637 1.00481 
0.0123689 -0.04793 1.00536 
0.0153756 -0.0383878 1.00586 
0.0144162 -0.0317058 1.00598 
0.0168615 -0.0246249 1.00621 
0.0169324 -0.0196167 1.00685 
0.0186152 -0.0159202 1.00602 
0.0200327 -0.0139661 1.00583 
0.0200873 -0.0134005 1.00579 
0.0214374 -0.0117255 1.00523 
0.0228567 -0.00853129 1.00574 
0.0217628 -0.00384764 1.00603 
0.022322 0.000855794 1.00593 
0.0213277 0.00418023 1.00605 
0.0207986 0.00635953 1.00649 
0.0205691 0.0083035 1.00583 
0.020141 0.0111969 1.00556 
0.0193238 0.0150448 1.0055 
0.0184728 0.0210452 1.00554 