# vtk DataFile Version 3.0 
Exported using Morpho https://github.com/Morpho-lang/morpho 
ASCII 
DATASET UNSTRUCTURED_GRID 

POINTS 1978 float 
-8.48528 -2.82843 6.32774e-12 
-8.26121 -2.82843 -5.42364e-11 
-8.03512 -2.82843 -9.64418e-11 
-7.77594 -2.82843 -4.48259e-11 
-7.49501 -2.82843 3.77564e-11 
-7.24154 -2.82843 -1.68428e-11 
-6.99834 -2.82843 -4.64156e-11 
-6.78307 -2.82843 -3.43179e-11 
-6.56128 -2.82843 -2.59526e-11 
-6.3473 -2.82843 -1.40038e-11 
-6.14324 -2.82843 -2.76768e-12 
-5.91629 -2.82843 -1.21526e-11 
-5.7073 -2.82843 -8.37259e-12 
-5.50648 -2.82843 -2.20354e-12 
-5.29235 -2.82843 -2.26759e-12 
-5.0839 -2.82843 -7.77255e-13 
-4.86861 -2.82843 3.84935e-12 
-4.66173 -2.82843 8.96193e-12 
-4.44018 -2.82843 1.15353e-11 
-4.22186 -2.82843 1.55614e-11 
-4.00176 -2.82843 2.00219e-11 
-3.7933 -2.82843 2.72729e-11 
-3.58208 -2.82843 3.51042e-11 
-3.37332 -2.82843 4.66667e-11 
-3.15908 -2.82843 5.8477e-11 
-2.94946 -2.82843 6.75516e-11 
-2.74479 -2.82843 7.81327e-11 
-2.54646 -2.82843 8.44121e-11 
-2.33144 -2.82843 9.59586e-11 
-2.13131 -2.82843 5.80327e-11 
-1.90931 -2.82843 4.13815e-11 
-1.71423 -2.82843 -5.20369e-11 
-1.51653 -2.82843 5.3282e-11 
-1.31266 -2.82843 3.95651e-10 
-1.14118 -2.82843 4.64264e-10 
-0.884807 -2.82843 1.34558e-09 
-0.685158 -2.82843 8.54093e-09 
-0.484508 -2.82843 -3.67492e-09 
-0.255717 -2.82843 2.27669e-09 
-0.0290924 -2.82843 -1.97748e-09 
0.290655 -2.82843 -1.38302e-10 
0.482264 -2.82843 -2.53644e-09 
0.697672 -2.82843 -2.20868e-09 
0.911037 -2.82843 -1.48443e-09 
1.11368 -2.82843 -7.0721e-10 
1.31358 -2.82843 -3.78956e-10 
1.51477 -2.82843 4.67772e-11 
1.71183 -2.82843 -2.17572e-12 
1.91544 -2.82843 -1.39024e-10 
2.12124 -2.82843 -9.2341e-11 
2.34636 -2.82843 -1.03668e-10 
2.54374 -2.82843 -9.56171e-11 
2.7557 -2.82843 -8.63895e-11 
2.97757 -2.82843 -7.32544e-11 
3.18441 -2.82843 -5.33818e-11 
3.38504 -2.82843 -4.49023e-11 
3.60778 -2.82843 -3.79421e-11 
3.8081 -2.82843 -2.41393e-11 
4.02163 -2.82843 -1.73519e-11 
4.24814 -2.82843 -1.6244e-11 
4.44795 -2.82843 -1.20042e-11 
4.6633 -2.82843 -2.918e-12 
4.87009 -2.82843 -8.06912e-12 
5.07774 -2.82843 1.89372e-12 
5.29102 -2.82843 1.90009e-12 
5.50342 -2.82843 -5.79317e-13 
5.70613 -2.82843 1.10343e-11 
5.92315 -2.82843 8.97832e-12 
6.14364 -2.82843 1.25434e-11 
6.34318 -2.82843 1.99024e-11 
6.58229 -2.82843 2.43497e-11 
6.79604 -2.82843 2.72299e-11 
6.99697 -2.82843 3.66896e-11 
7.2624 -2.82843 3.31023e-11 
7.49562 -2.82843 1.58087e-11 
7.73698 -2.82843 7.01722e-11 
8.01017 -2.82843 9.06271e-11 
8.19419 -2.82843 5.08586e-11 
8.48528 -2.82843 -2.1813e-12 
-8.48528 -2.59144 5.50623e-11 
-8.25979 -2.58912 6.41893e-19 
-8.02516 -2.59223 9.49814e-19 
-7.78509 -2.61803 1.43999e-18 
-7.52876 -2.63834 1.40971e-18 
-7.23681 -2.61487 8.8375e-19 
-6.9954 -2.59539 7.33592e-19 
-6.7751 -2.59389 6.65051e-19 
-6.54393 -2.59573 6.53189e-19 
-6.33105 -2.5797 4.37399e-19 
-6.10228 -2.60705 4.25688e-19 
-5.88701 -2.58829 3.09301e-19 
-5.67875 -2.57882 2.32044e-19 
-5.46214 -2.59604 1.76376e-19 
-5.24833 -2.58878 1.09112e-19 
-5.03053 -2.59572 6.21221e-20 
-4.81955 -2.58463 9.76939e-15 
-4.59936 -2.60007 -7.36504e-20 
-4.37786 -2.59645 -1.56513e-19 
-4.15673 -2.59821 -2.67864e-19 
-3.94475 -2.58553 -3.84288e-19 
-3.73283 -2.59058 -5.51354e-19 
-3.52111 -2.59106 -7.16941e-19 
-3.30638 -2.60031 -9.48468e-19 
-3.0927 -2.59882 -1.10456e-18 
-2.88232 -2.5964 -1.23991e-18 
-2.67926 -2.59262 -1.2031e-18 
-2.46797 -2.6122 -1.19969e-18 
-2.25698 -2.59698 -6.49514e-19 
-2.04458 -2.62087 -3.88388e-19 
-1.83253 -2.59051 -3.18075e-20 
-1.63007 -2.58712 -8.98625e-19 
-1.43307 -2.595 -5.11546e-18 
-1.25495 -2.5232 -9.18578e-18 
-1.04304 -2.63086 -1.92937e-17 
-0.834813 -2.55399 -4.33906e-17 
-0.6367 -2.51975 -2.99377e-17 
-0.422854 -2.5429 -5.8284e-17 
-0.199887 -2.5262 -1.32758e-17 
0.00133536 -2.45122 1.52653e-17 
0.188463 -2.60746 -6.18875e-19 
0.447293 -2.48213 3.35078e-17 
0.638624 -2.55165 4.728e-17 
0.862619 -2.58299 3.45062e-17 
1.08168 -2.56904 1.99355e-17 
1.28601 -2.58716 9.58068e-18 
1.49763 -2.60691 2.48367e-18 
1.71103 -2.59999 1.48817e-18 
1.91631 -2.60604 9.11243e-19 
2.14813 -2.62876 5.45903e-19 
2.35518 -2.59377 6.69522e-19 
2.5683 -2.60445 1.21575e-18 
2.79939 -2.61718 1.40729e-18 
3.00695 -2.59321 1.12434e-18 
3.21364 -2.58465 9.44715e-19 
3.43636 -2.60811 8.84691e-19 
3.64252 -2.58107 5.95005e-19 
3.8564 -2.59437 4.60575e-19 
4.08359 -2.60708 3.34873e-19 
4.29188 -2.57682 1.8859e-19 
4.50838 -2.59587 1.06212e-19 
4.72133 -2.5864 3.09348e-20 
4.93543 -2.58943 -3.09591e-20 
5.15077 -2.59589 -9.39308e-20 
5.37 -2.5959 -1.51072e-19 
5.58161 -2.58453 -2.02681e-19 
5.79767 -2.59923 -2.87583e-19 
6.02241 -2.60049 -3.65231e-19 
6.2363 -2.57316 -3.97718e-19 
6.45669 -2.6123 -5.92905e-19 
6.6853 -2.58335 -6.13169e-19 
6.89534 -2.56465 -6.30936e-19 
7.12397 -2.62775 -9.65534e-19 
7.37645 -2.59837 -8.71212e-19 
7.61504 -2.60591 -1.18455e-18 
7.87209 -2.63148 -1.48744e-18 
8.08063 -2.53439 -6.72861e-19 
8.30288 -2.63959 -7.93178e-19 
8.48528 -2.52952 -6.17118e-11 
-8.48528 -2.35069 9.27836e-11 
-8.24548 -2.35829 4.82789e-14 
-8.00866 -2.35295 -4.86703e-14 
-7.77003 -2.39869 2.43123e-19 
-7.56542 -2.25108 -5.35829e-20 
-7.4719 -2.45478 3.21697e-19 
-7.19115 -2.40367 1.99076e-19 
-6.95789 -2.35083 -9.11167e-21 
-6.71619 -2.37551 1.20275e-19 
-6.49077 -2.35267 7.51436e-20 
-6.24568 -2.36671 9.05829e-20 
-6.03114 -2.36412 6.26063e-20 
-5.81232 -2.3444 4.26264e-20 
-5.58396 -2.35451 3.15003e-20 
-5.36904 -2.35837 1.73357e-20 
-5.14373 -2.36209 1.10343e-20 
-4.92937 -2.35077 -6.46252e-15 
-4.70409 -2.36338 -1.34613e-20 
-4.48442 -2.36912 -3.49516e-20 
-4.26036 -2.3677 -6.41329e-20 
-4.04719 -2.35177 -8.32369e-20 
-3.83148 -2.3502 -9.93121e-20 
-3.62017 -2.3548 -1.25037e-19 
-3.40504 -2.36559 -1.61683e-19 
-3.19355 -2.37059 -2.00974e-19 
-2.98064 -2.36909 -1.88726e-19 
-2.77242 -2.3584 -1.2242e-19 
-2.56142 -2.37834 -1.56239e-19 
-2.35481 -2.38291 -1.33138e-19 
-2.12925 -2.38673 -3.31798e-20 
-1.92474 -2.38777 9.76298e-20 
-1.69325 -2.35848 8.76739e-19 
-1.47814 -2.34215 3.07728e-18 
-1.27649 -2.26388 -2.89048e-18 
-1.06335 -2.38107 4.43094e-18 
-0.877798 -2.27419 2.02338e-17 
-0.643338 -2.25242 8.05522e-18 
-0.409878 -2.24262 3.56097e-17 
-0.197292 -2.19042 -1.00422e-17 
0.0540663 -2.13285 -2.46322e-17 
0.255605 -2.2913 1.84068e-17 
0.454939 -2.14678 -4.83903e-17 
0.664688 -2.22329 3.75554e-18 
0.843889 -2.33116 1.08965e-17 
1.06634 -2.31808 -6.90162e-18 
1.28714 -2.33278 -3.69962e-18 
1.4903 -2.38282 -3.3956e-19 
1.69227 -2.3656 -1.62887e-18 
1.8953 -2.37482 -3.54146e-19 
2.09814 -2.42017 -2.34469e-19 
2.30631 -2.3759 7.66616e-20 
2.52852 -2.3738 2.71638e-19 
2.74266 -2.40549 2.16771e-19 
2.95788 -2.35768 2.67469e-19 
3.1599 -2.34797 1.30241e-19 
3.37673 -2.37807 1.97714e-19 
3.58267 -2.34476 1.1666e-19 
3.79435 -2.35459 1.07032e-19 
4.00973 -2.37947 1.03311e-19 
4.21863 -2.34266 5.42413e-20 
4.43884 -2.35574 3.70097e-20 
4.64832 -2.34999 1.8409e-20 
4.8633 -2.35347 -4.02915e-14 
5.07907 -2.35816 2.32193e-14 
5.29328 -2.36747 -1.69138e-20 
5.5089 -2.35087 -2.36129e-20 
5.72798 -2.36099 -3.95045e-20 
5.9449 -2.37407 -6.38831e-20 
6.16151 -2.34391 -5.63091e-20 
6.39481 -2.36461 -9.89894e-20 
6.60549 -2.36396 -1.17903e-19 
6.83093 -2.3174 -1.80921e-20 
7.06325 -2.37608 -8.05574e-20 
7.28308 -2.39735 -1.13355e-19 
7.54408 -2.37568 -2.15806e-19 
7.78882 -2.41159 -4.03405e-19 
8.00067 -2.31247 3.37421e-20 
8.26121 -2.37052 5.47161e-20 
8.48528 -2.28726 -8.79706e-11 
-8.48528 -2.11264 5.67686e-11 
-8.25996 -2.10411 -9.34473e-20 
-8.04998 -2.10993 -2.1775e-19 
-7.80368 -2.15622 -1.64853e-19 
-7.51695 -2.0371 -1.33468e-19 
-7.3095 -2.22926 -1.86853e-19 
-7.06799 -2.1412 -3.42455e-19 
-6.80464 -2.14273 -1.70362e-19 
-6.5885 -2.12884 -1.66617e-19 
-6.34549 -2.14774 -1.04666e-19 
-6.12098 -2.11958 -1.12396e-19 
-5.91334 -2.11655 -7.46811e-20 
-5.68546 -2.12636 -5.36884e-20 
-5.46553 -2.11776 -4.42414e-20 
-5.24902 -2.13376 -3.04322e-20 
-5.03515 -2.1182 -2.19044e-20 
-4.81197 -2.13014 -1.06834e-20 
-4.59375 -2.13427 3.14871e-14 
-4.37601 -2.14032 3.18459e-15 
-4.16527 -2.12118 1.37951e-20 
-3.9505 -2.11606 3.61939e-20 
-3.738 -2.11516 7.19102e-20 
-3.52458 -2.12853 1.12048e-19 
-3.31399 -2.1346 1.53605e-19 
-3.10292 -2.14128 2.00928e-19 
-2.89368 -2.13305 2.45288e-19 
-2.67609 -2.13734 2.92789e-19 
-2.46893 -2.1482 3.54424e-19 
-2.25185 -2.17035 2.08517e-19 
-2.03564 -2.14871 4.27861e-19 
-1.82185 -2.16918 2.11857e-19 
-1.59008 -2.12119 2.25355e-19 
-1.39131 -2.05246 6.46656e-18 
-1.18676 -1.90246 -3.83106e-20 
-1.09144 -2.10698 1.06746e-17 
-0.830009 -2.02563 8.65669e-18 
-0.588884 -1.96501 1.30866e-17 
-0.367714 -1.91319 6.45534e-18 
-0.103149 -1.89631 2.25604e-18 
0.0591032 -1.67695 -5.4316e-17 
0.244131 -1.91706 -4.6538e-18 
0.298436 -1.57304 5.46522e-17 
0.495192 -1.85652 2.03769e-17 
0.741377 -1.94723 -4.15669e-17 
0.955379 -2.06743 -1.14591e-17 
1.20895 -2.09121 -5.10124e-18 
1.46166 -2.13772 -9.16203e-19 
1.67175 -2.12897 -7.29583e-19 
1.88477 -2.14233 -6.07837e-19 
2.10192 -2.18884 -5.29977e-19 
2.33948 -2.16532 -3.58747e-19 
2.56894 -2.15381 -3.80623e-19 
2.77496 -2.17112 -2.05582e-19 
2.97995 -2.10956 -2.70355e-19 
3.20487 -2.12985 -2.16459e-19 
3.40748 -2.13294 -1.64218e-19 
3.62367 -2.11119 -9.88086e-20 
3.84111 -2.1285 -5.74909e-20 
4.04371 -2.13236 -2.70113e-20 
4.27154 -2.11711 4.03172e-14 
4.48071 -2.11402 -1.76512e-14 
4.69756 -2.1161 -4.52918e-14 
4.91349 -2.12175 1.60757e-20 
5.12966 -2.12481 2.40459e-20 
5.34174 -2.13168 3.31881e-20 
5.56561 -2.12335 4.44039e-20 
5.78358 -2.1306 6.11155e-20 
5.99475 -2.13212 7.58695e-20 
6.2355 -2.12948 1.03526e-19 
6.44699 -2.11481 1.43267e-19 
6.66021 -2.11832 1.71504e-19 
6.92013 -2.10973 2.78996e-19 
7.1374 -2.13852 3.71429e-19 
7.37002 -2.18336 2.71534e-19 
7.56201 -2.08502 1.7897e-19 
7.74269 -2.18065 9.54675e-20 
7.95682 -2.08024 2.69899e-19 
8.20502 -2.14804 1.68173e-19 
8.48528 -2.09213 -2.88925e-11 
-8.48528 -1.81624 2.08455e-11 
-8.30432 -1.85697 7.33128e-20 
-7.8906 -1.91241 -1.32841e-19 
[...]
POINT_DATA 1978 
VECTORS vectors float
0.000409653 -0.00356015 0.999994 
0.000728146 -0.0241023 0.999709 
0.000534685 -0.0236399 0.99972 
0.000581478 -0.0308592 0.999524 
0.000452629 -0.0346725 0.999399 
0.000526867 -0.0309277 0.999521 
0.000610082 -0.0258916 0.999665 
0.00067664 -0.0206657 0.999786 
0.000639526 -0.0164624 0.999864 
0.000706665 -0.0135234 0.999908 
0.000693397 -0.0111207 0.999938 
0.000617109 -0.00848023 0.999964 
0.000778856 -0.00657525 0.999978 
0.000754244 -0.00544338 0.999985 
0.000689458 -0.003798 0.999993 
0.00072021 -0.00218863 0.999997 
0.00070716 -0.000738978 0.999999 
0.000710545 0.000712166 0.999999 
0.000642741 0.00262645 0.999996 
0.000659351 0.00516685 0.999986 
0.000668392 0.00838852 0.999965 
0.000689407 0.0126111 0.99992 
0.000649884 0.0185333 0.999828 
0.000620274 0.0264945 0.999649 
0.000564517 0.0375984 0.999293 
0.000544178 0.0519142 0.998651 
0.00051536 0.0700815 0.997541 
0.000412722 0.0927243 0.995692 
0.000294049 0.124705 0.992194 
0.000169476 0.164051 0.986452 
2.57628e-05 0.219327 0.975651 
-0.000171121 0.279551 0.960131 
-0.000252098 0.353661 0.935374 
-0.000610224 0.440588 0.897709 
-0.000609267 0.528402 0.848994 
-0.000564731 0.665897 0.746043 
-0.000969415 0.776491 0.630128 
-0.000622972 0.879673 0.475579 
-0.000444444 0.963634 0.267226 
5.98361e-05 0.999536 0.0304482 
0.000249384 0.951508 -0.307623 
0.000837383 0.880355 -0.474314 
0.000736732 0.768653 -0.639665 
0.000770448 0.651438 -0.758702 
0.000712819 0.53865 -0.842529 
0.000440701 0.439731 -0.89813 
0.000337533 0.35363 -0.935385 
0.000151793 0.279338 -0.960193 
-5.58515e-05 0.217595 -0.976039 
-0.000136662 0.165147 -0.986269 
-0.000310307 0.122596 -0.992457 
-0.000438261 0.0937632 -0.995594 
-0.000437187 0.0692763 -0.997597 
-0.00051217 0.0499846 -0.99875 
-0.000626931 0.0361603 -0.999346 
-0.000627802 0.0260019 -0.999662 
-0.000616324 0.0175209 -0.999846 
-0.000740861 0.0122339 -0.999925 
-0.000613058 0.00814707 -0.999967 
-0.000674369 0.00459911 -0.999989 
-0.00076385 0.00260876 -0.999996 
-0.000677808 0.000797369 -0.999999 
-0.000753307 -0.000829672 -0.999999 
-0.000718727 -0.00206953 -0.999998 
-0.000682964 -0.00370641 -0.999993 
-0.000748897 -0.00529088 -0.999986 
-0.000742161 -0.00657951 -0.999978 
-0.000625099 -0.00873088 -0.999962 
-0.000746478 -0.0110815 -0.999938 
-0.000662999 -0.0131726 -0.999913 
-0.000556514 -0.0171475 -0.999853 
-0.000768328 -0.0211363 -0.999776 
-0.000563338 -0.0251463 -0.999684 
-0.000463385 -0.0318284 -0.999493 
-0.000632269 -0.0352608 -0.999378 
-0.000524564 -0.0328004 -0.999462 
-0.000658421 -0.0250238 -0.999687 
-0.000686379 -0.0246342 -0.999696 
-0.000153821 -0.00270226 -0.999996 
0.000230488 0.00023109 1 
0.0129484 -0.0227846 0.999657 
0.0154107 -0.0261906 0.999538 
0.0163941 -0.0287862 0.999451 
0.0154256 -0.0314711 0.999386 
0.0150013 -0.0295927 0.999449 
0.0157107 -0.0255453 0.99955 
0.0164321 -0.0210593 0.999643 
0.0172152 -0.0166691 0.999713 
0.0177188 -0.0135437 0.999751 
0.0176728 -0.0107272 0.999786 
0.0182825 -0.00825873 0.999799 
0.0185924 -0.00641258 0.999807 
0.0183042 -0.00494542 0.99982 
0.0183791 -0.00337231 0.999825 
0.0182248 -0.00175056 0.999832 
0.0183324 -0.000209782 0.999832 
0.0177986 0.00153177 0.99984 
0.0176615 0.00375333 0.999837 
0.017382 0.00666214 0.999827 
0.01725 0.010476 0.999796 
0.016523 0.0156138 0.999742 
0.0155967 0.0225883 0.999623 
0.0143317 0.0319293 0.999387 
0.0129211 0.0444326 0.998929 
0.0112896 0.0606102 0.998098 
0.00929826 0.0809346 0.996676 
0.00678786 0.107826 0.994147 
0.00411136 0.143908 0.989583 
0.0011532 0.18976 0.98183 
-0.00223378 0.249369 0.968406 
-0.00513418 0.317837 0.948132 
-0.0074687 0.397282 0.917666 
-0.00963425 0.480598 0.876888 
-0.0121658 0.586871 0.809589 
-0.0131251 0.696475 0.717461 
-0.0115658 0.805066 0.593072 
-0.00848985 0.907458 0.420058 
-0.00383628 0.977929 0.208901 
0.00119369 0.999995 -0.00288595 
0.00541889 0.978294 -0.207149 
0.0100755 0.892198 -0.451532 
0.0121736 0.799183 -0.600964 
0.0125984 0.677791 -0.735147 
0.0117641 0.562148 -0.826953 
0.0096445 0.459232 -0.888264 
0.00687637 0.367866 -0.929853 
0.00378811 0.288007 -0.957621 
0.000307389 0.221663 -0.975123 
-0.0026158 0.164898 -0.986307 
-0.00523181 0.126338 -0.991973 
-0.00783203 0.0943018 -0.995513 
-0.0101679 0.0680773 -0.997628 
-0.0122516 0.0504178 -0.998653 
-0.0138641 0.0371477 -0.999214 
-0.0149417 0.0258124 -0.999555 
-0.0163619 0.0183225 -0.999698 
-0.0168116 0.0123854 -0.999782 
-0.0172141 0.00777936 -0.999822 
-0.0181928 0.00476017 -0.999823 
-0.0180875 0.00239854 -0.999834 
-0.0184671 0.000528966 -0.999829 
-0.0184782 -0.00110121 -0.999829 
-0.0183425 -0.00260008 -0.999828 
-0.0183965 -0.00421037 -0.999822 
-0.0185918 -0.00578487 -0.99981 
-0.0180693 -0.00758939 -0.999808 
-0.0177934 -0.00987189 -0.999793 
-0.0179702 -0.0123271 -0.999763 
-0.0167329 -0.0153083 -0.999743 
-0.0168089 -0.0193227 -0.999672 
-0.016533 -0.0234543 -0.999588 
-0.0148533 -0.0279344 -0.999499 
-0.015264 -0.0310346 -0.999402 
-0.0158378 -0.0305229 -0.999409 
-0.0159926 -0.0281473 -0.999476 
-0.0159997 -0.0271779 -0.999503 
-0.0122096 -0.021954 -0.999684 
2.73957e-05 0.000119658 -1 
-0.000281968 -0.00112309 0.999999 
0.012545 -0.0240439 0.999632 
0.0144862 -0.0271398 0.999527 
0.0155258 -0.026816 0.99952 
0.0135534 -0.0260258 0.999569 
0.0162655 -0.029014 0.999447 
0.0162892 -0.0283068 0.999467 
0.0158004 -0.0249873 0.999563 
0.0170908 -0.0204834 0.999644 
0.0174077 -0.0164183 0.999714 
0.0182574 -0.012768 0.999752 
0.0184422 -0.0100201 0.99978 
0.0186839 -0.00772572 0.999796 
0.019067 -0.00580112 0.999801 
0.0190041 -0.00415886 0.999811 
0.0189445 -0.00246706 0.999817 
0.0187935 -0.000862253 0.999823 
0.0187861 0.000914922 0.999823 
0.0185972 0.00297911 0.999823 
0.0182909 0.0057438 0.999816 
0.0177475 0.0094049 0.999798 
0.0169845 0.0144375 0.999752 
0.0160369 0.0210111 0.999651 
0.0148343 0.0297766 0.999447 
0.0132788 0.0410224 0.99907 
0.0112729 0.0558468 0.998376 
0.00894165 0.0747219 0.997164 
0.00669725 0.0989529 0.99507 
0.00425026 0.129782 0.991533 
0.0015027 0.17341 0.984849 
-0.000968379 0.223855 0.974622 
-0.00343382 0.297685 0.954658 
-0.00490793 0.37772 0.925907 
-0.00520014 0.465412 0.885079 
-0.00820339 0.568116 0.822908 
-0.00628068 0.670212 0.742143 
-0.00506472 0.791349 0.611344 
-0.00337648 0.899414 0.437085 
-0.000792088 0.976187 0.216931 
0.000818701 0.998758 -0.0498206 
0.00392913 0.967646 -0.25228 
0.00367922 0.891629 -0.452752 
0.00507464 0.785173 -0.619256 
0.00725624 0.686901 -0.726714 
0.00678667 0.564593 -0.825341 
0.00601736 0.459667 -0.888071 
0.00491137 0.371485 -0.928426 
0.00303966 0.29922 -0.954179 
0.00127621 0.237148 -0.971473 
-0.00095417 0.182801 -0.98315 
-0.00329641 0.139547 -0.99021 
-0.0062342 0.104075 -0.99455 
-0.00894122 0.0774748 -0.996954 
-0.0109563 0.0575822 -0.998281 
-0.0126479 0.0433995 -0.998978 
-0.01462 0.0309654 -0.999414 
-0.0157517 0.0224536 -0.999624 
-0.0168847 0.015457 -0.999738 
-0.0178557 0.0100843 -0.99979 
-0.0181634 0.00643734 -0.999814 
-0.0185668 0.003485 -0.999822 
-0.0186701 0.00137488 -0.999825 
-0.018811 -0.000414655 -0.999823 
-0.018932 -0.00201298 -0.999819 
-0.0190487 -0.00356239 -0.999812 
-0.0189971 -0.00519717 -0.999806 
-0.0189596 -0.007062 -0.999795 
-0.018855 -0.00921113 -0.99978 
-0.0183154 -0.0117284 -0.999763 
-0.0179433 -0.014861 -0.999729 
-0.0173742 -0.0182989 -0.999682 
-0.0162506 -0.0227178 -0.99961 
-0.0161844 -0.0269242 -0.999506 
-0.0158924 -0.0292045 -0.999447 
-0.0154165 -0.0275419 -0.999502 
-0.0161683 -0.0267786 -0.999511 
-0.0143262 -0.0275457 -0.999518 
-0.0121556 -0.0247364 -0.99962 
0.000215978 -0.00119771 -0.999999 
-0.000192746 -0.000844208 1 
0.0111469 -0.0244527 0.999639 
0.0116788 -0.0259232 0.999596 
0.0117552 -0.0242958 0.999636 
0.0125936 -0.0249668 0.999609 
0.0142587 -0.0282467 0.999499 
0.0140523 -0.0270229 0.999536 
0.0150233 -0.0225184 0.999634 
0.0156964 -0.0186692 0.999703 
0.0165557 -0.0146675 0.999755 
0.0170623 -0.0115953 0.999787 
0.0177387 -0.00911335 0.999801 
0.0182724 -0.00683392 0.99981 
0.0184297 -0.00492593 0.999818 
0.0182569 -0.00320638 0.999828 
0.0183093 -0.00159743 0.999831 
0.0180691 0.000147407 0.999837 
0.0178128 0.00208545 0.999839 
0.0174972 0.00455471 0.999837 
0.0172579 0.00789246 0.99982 
0.0166799 0.0125217 0.999782 
0.0157838 0.0186419 0.999702 
0.0145059 0.0265486 0.999542 
0.0129796 0.0366252 0.999245 
0.011082 0.0494675 0.998714 
0.00896938 0.0660082 0.997779 
0.00646724 0.0880969 0.996091 
0.00402067 0.115311 0.993321 
0.00167587 0.151792 0.988411 
-0.000482537 0.200099 0.979776 
-0.0021043 0.259005 0.965874 
-0.00294715 0.341333 0.939938 
-0.00323192 0.424011 0.905651 
-0.00370844 0.522515 0.852622 
-0.00351272 0.558691 0.829368 
-0.00272798 0.696563 0.717491 
-0.0020981 0.824742 0.565505 
-0.00112635 0.925553 0.378617 
-0.000218954 0.994162 0.107898 
-1.74403e-05 0.997347 -0.0727911 
0.000746586 0.959335 -0.28227 
0.0014395 0.949216 -0.314622 
0.00167512 0.867265 -0.497845 
0.00270459 0.741686 -0.670742 
0.00293807 0.626236 -0.779628 
0.00286863 0.50139 -0.865217 
0.00305939 0.392391 -0.919793 
0.0025905 0.309704 -0.95083 
0.00163531 0.238025 -0.971258 
-3.7985e-06 0.18302 -0.983109 
-0.00239987 0.135737 -0.990742 
-0.00505627 0.101672 -0.994805 
-0.00742743 0.0765543 -0.997038 
-0.00983794 0.0591866 -0.998198 
-0.0118099 0.043023 -0.999004 
-0.0134653 0.0318825 -0.999401 
-0.0151637 0.0227007 -0.999627 
-0.0161667 0.0153712 -0.999751 
-0.0169573 0.0103132 -0.999803 
-0.0176481 0.00611814 -0.999826 
-0.0179393 0.00330287 -0.999834 
-0.0181452 0.00110136 -0.999835 
-0.0182519 -0.000697817 -0.999833 
-0.0183422 -0.00231423 -0.999829 
-0.0183656 -0.00389731 -0.999824 
-0.0183793 -0.00571809 -0.999815 
-0.0180892 -0.00775184 -0.999806 
-0.0178186 -0.0100569 -0.999791 
-0.0171817 -0.0131502 -0.999766 
-0.016487 -0.0163365 -0.999731 
-0.0158001 -0.0199978 -0.999675 
-0.0147575 -0.0249773 -0.999579 
-0.0139313 -0.0280473 -0.99951 
-0.0134144 -0.0280541 -0.999516 
-0.0121014 -0.0246827 -0.999622 
-0.0121499 -0.0240867 -0.999636 
-0.0113213 -0.0253982 -0.999613 
-0.0116233 -0.0263148 -0.999586 
-0.000263775 -0.000816075 -1 
-0.000176698 -0.00101888 0.999999 
0.0106468 -0.0218614 0.999704 
0.0114516 -0.0232355 0.999664 
0.0123629 -0.0226929 0.999666 
0.0159262 -0.0264409 0.999523 
0.0139994 -0.02829 0.999502 
0.0169608 -0.0288735 0.999439 
0.0160888 -0.0259207 0.999535 
0.0187554 -0.0219194 0.999584 
0.0187483 -0.0176173 0.999669 
0.0203442 -0.0141587 0.999693 
0.0221011 -0.0112359 0.999693 
0.0222702 -0.00852674 0.999716 
0.0227201 -0.00627275 0.999722 
0.0230444 -0.00424536 0.999725 
0.0231171 -0.0025689 0.999729 
0.0227774 -0.000807194 0.99974 
0.0225022 0.0010496 0.999746 
0.0220411 0.00328599 0.999752 
0.0219014 0.00616986 0.999741 
0.0215158 0.010267 0.999716 
0.020754 0.0157514 0.999661 
0.0194621 0.022911 0.999548 
0.0178876 0.0317505 0.999336 
0.015922 0.0429885 0.998949 
0.0137535 0.0569543 0.998282 
0.011077 0.0755388 0.997081 
0.00823423 0.0994008 0.995013 
0.0049116 0.129611 0.991553 
0.00196712 0.168388 0.985719 
-0.000659429 0.222446 0.974945 
-0.00252955 0.284191 0.958764 
-0.00400266 0.356235 0.934388 
-0.00487532 0.444777 0.895628 
-0.00391552 0.643052 0.765812 
-0.00417407 0.760643 0.649157 
-0.00383905 0.872364 0.488843 
-0.00446179 0.935616 0.352992 
-0.00248078 0.962427 0.271529 
-0.00239023 0.997854 0.0654412 
-0.00108056 0.987099 -0.160109 
0.00209239 0.898527 -0.438913 
0.00352826 0.822213 -0.569169 
0.00467034 0.692603 -0.721304 
0.00408622 0.567608 -0.823289 
0.00601092 0.497716 -0.867319 
0.00374239 0.43412 -0.900847 
0.00369798 0.34459 -0.938746 
0.00244506 0.269963 -0.962868 
0.000462533 0.206648 -0.978415 
-0.00183715 0.15938 -0.987216 
-0.00554435 0.118592 -0.992928 
-0.00879267 0.0883968 -0.996047 
-0.0116958 0.0700127 -0.997478 
-0.0143192 0.0507965 -0.998606 
-0.0168615 0.0378454 -0.999141 
-0.0185796 0.0278026 -0.999441 
-0.0199221 0.0190374 -0.99962 
-0.0212176 0.01291 -0.999692 
-0.0214751 0.00818244 -0.999736 
-0.0227019 0.00458977 -0.999732 
-0.0228907 0.00201117 -0.999736 
-0.0230706 -3.61983e-05 -0.999734 
-0.0231789 -0.00175291 -0.99973 
-0.0231942 -0.00343661 -0.999725 
-0.0228216 -0.00518813 -0.999726 
-0.0226587 -0.00735296 -0.999716 
-0.0222421 -0.00976891 -0.999705 
-0.0208448 -0.0125654 -0.999704 
-0.0208828 -0.0160826 -0.999653 
-0.0198537 -0.0197996 -0.999607 
-0.0178399 -0.0238767 -0.999556 
-0.0168576 -0.0281017 -0.999463 
-0.014838 -0.0285018 -0.999484 
-0.0141662 -0.0246953 -0.999595 
-0.0121355 -0.0219287 -0.999686 
-0.0117682 -0.0244982 -0.999631 
-0.0111886 -0.0236671 -0.999657 
0.000225547 -0.000723308 -1 
-9.13237e-05 -0.000831131 1 
0.0108071 -0.0216332 0.999708 
0.0120165 -0.023977 0.99964 
0.0139481 -0.0222271 0.999656 
0.0155417 -0.0223389 0.99963 
0.0188239 -0.0293592 0.999392 
0.0208404 -0.0284084 0.999379 
0.0216205 -0.0250491 0.999452 
0.0229483 -0.0199679 0.999537 
0.023953 -0.0163644 0.999579 
0.0252119 -0.0131658 0.999595 
0.0260388 -0.0099539 0.999611 
0.0264724 -0.00744357 0.999622 
0.0267595 -0.00519636 0.999628 
0.0271352 -0.00326193 0.999626 
0.0269992 -0.0014957 0.999634 
0.0268601 0.000387331 0.999639 
0.0265204 0.00260103 0.999645 
0.0261654 0.00539758 0.999643 
0.0255049 0.00921074 0.999632 
0.0246025 0.0144673 0.999593 
0.0233776 0.0213325 0.999499 
0.0218985 0.0299311 0.999312 
0.0200324 0.0405575 0.998976 
0.0178216 0.0540431 0.99838 
0.0151006 0.0712769 0.997342 
0.0119951 0.0941039 0.99549 
0.00828127 0.124781 0.99215 
0.00456105 0.162818 0.986646 
0.000950343 0.213149 0.977019 
-0.00245703 0.283686 0.958914 
-0.00502054 0.370449 0.928839 
-0.00643678 0.478796 0.877902 
-0.00649786 0.595541 0.803299 
-0.00601601 0.572707 0.819738 
-0.00612989 0.689733 0.724038 
-0.00565153 0.809493 0.587102 
-0.00514076 0.888316 0.459203 
-0.00345718 0.989634 0.143569 
-0.00167525 0.997729 -0.0673352 
-0.000309089 0.960226 -0.279225 
-0.0024952 0.979514 -0.201361 
0.00188854 0.861588 -0.507605 
0.00465706 0.755668 -0.654938 
0.00637739 0.618533 -0.785733 
0.00683107 0.507933 -0.86137 
0.00570858 0.399858 -0.916559 
0.00391858 0.317334 -0.948306 
0.00110406 0.244212 -0.969721 
-0.00214285 0.188737 -0.982025 
-0.00545785 0.145497 -0.989344 
-0.00958563 0.10872 -0.994026 
-0.0129267 0.0864507 -0.996172 
-0.0157529 0.0642988 -0.997806 
-0.0185368 0.0486931 -0.998642 
-0.0207544 0.0366486 -0.999113 
-0.0224669 0.0261522 -0.999405 
-0.0239595 0.0184623 -0.999542 
-0.0250813 0.012243 -0.99961 
-0.0256886 0.0076046 -0.999641 
-0.026539 0.00407464 -0.999639 
-0.0268577 0.0015038 -0.999638 
-0.027134 -0.000500135 -0.999632 
-0.027202 -0.00229113 -0.999627 
-0.0271901 -0.00406629 -0.999622 
-0.0267875 -0.00602512 -0.999623 
-0.0265068 -0.00836542 -0.999614 
-0.025797 -0.011129 -0.999605 
-0.0248542 -0.0140921 -0.999592 
-0.0241475 -0.0179109 -0.999548 
-0.0229252 -0.0220144 -0.999495 
-0.0212246 -0.0262499 -0.99943 
-0.0205057 -0.0296111 -0.999351 
-0.0183859 -0.0291414 -0.999406 
-0.0169576 -0.0246977 -0.999551 
-0.0144698 -0.0210706 -0.999673 
-0.0132377 -0.0234313 -0.999638 
-0.0113672 -0.0215422 -0.999703 
9.01897e-05 -0.00086287 -1 
4.45055e-05 -0.000791459 1 
0.0101728 -0.0216761 0.999713 
0.0130097 -0.0234612 0.99964 
0.0145188 -0.0215442 0.999662 
0.017266 -0.0252738 0.999531 
0.0180372 -0.030443 0.999374 
0.0202442 -0.0304718 0.999331 
0.0207027 -0.0271052 0.999418 
0.0226442 -0.0231037 0.999477 
0.0230554 -0.0190009 0.999554 
0.0237593 -0.015645 0.999595 
0.0246628 -0.0120836 0.999623 
0.0249755 -0.00915405 0.999646 
0.0256636 -0.00668941 0.999648 
0.0259045 -0.00456623 0.999654 
0.025922 -0.00253347 0.999661 
0.0262315 -0.000708808 0.999656 
0.0259942 0.00138599 0.999661 
0.0253647 0.00386565 0.999671 
0.0246817 0.00728007 0.999669 
0.0239474 0.0118527 0.999643 
0.0229082 0.0180236 0.999575 
0.0216193 0.0257176 0.999435 
0.0201513 0.0353674 0.999171 
0.0184409 0.0470976 0.99872 
0.0162845 0.0622006 0.997931 
0.0138092 0.0812429 0.996599 
0.010794 0.107325 0.994165 
0.00739355 0.141136 0.989963 
0.00386876 0.184272 0.982868 
9.58343e-05 0.243261 0.969961 
-0.00319014 0.317111 0.948383 
-0.00548048 0.421216 0.906944 
-0.00574859 0.526264 0.850302 
-0.00592158 0.727054 0.686555 
-0.00443859 0.842396 0.53884 
-0.00160572 0.907896 0.419193 
4.16121e-05 0.966315 0.257363 
-0.00276435 0.965454 0.260558 
-0.00127378 0.995114 0.098728 
-0.00130448 0.999918 0.0127776 
-0.00230978 0.924421 -0.381367 
-0.0010414 0.913903 -0.405932 
0.00229327 0.785478 -0.618885 
0.00476434 0.684824 -0.728693 
0.00570995 0.58004 -0.814568 
0.00587698 0.413929 -0.91029 
0.00391685 0.342193 -0.939622 
0.00152578 0.26987 -0.962896 
-0.00197274 0.207328 -0.978269 
-0.00549836 0.160967 -0.986944 
-0.00886115 0.124685 -0.992157 
-0.0111545 0.100755 -0.994849 
-0.014512 0.0746693 -0.997103 
-0.0169069 0.0574382 -0.998206 
-0.0187234 0.0435414 -0.998876 
-0.0208375 0.0316148 -0.999283 
-0.0221674 0.0229039 -0.999492 
-0.023389 0.0156626 -0.999604 
-0.024431 0.00993487 -0.999652 
-0.0252112 0.00588689 -0.999665 
-0.0255469 0.00255282 -0.99967 
-0.0258201 0.000286107 -0.999667 
-0.0260027 -0.00171728 -0.99966 
-0.0259147 -0.00356205 -0.999658 
-0.025919 -0.00561131 -0.999648 
-0.0255655 -0.00786288 -0.999642 
-0.0250914 -0.0106965 -0.999628 
-0.0243164 -0.0138857 -0.999608 
-0.0234955 -0.0172966 -0.999574 
-0.0222771 -0.0217623 -0.999515 
-0.0215586 -0.0263835 -0.999419 
-0.0199243 -0.0305068 -0.999336 
-0.0185663 -0.0295074 -0.999392 
-0.0163865 -0.0247613 -0.999559 
-0.0150263 -0.02132 -0.99966 
-0.012921 -0.0231501 -0.999649 
-0.0113801 -0.0224352 -0.999684 
-0.000156085 -0.000785237 -1 
5.68902e-05 -0.000771645 1 
0.00845105 -0.0226654 0.999707 
0.0123315 -0.0230399 0.999658 
0.0120126 -0.0217627 0.999691 
0.0148869 -0.0245474 0.999588 
0.0152519 -0.0312857 0.999394 
0.0173876 -0.0311049 0.999365 
0.0173035 -0.0271678 0.999481 
0.0194811 -0.0226821 0.999553 
0.0188026 -0.0189548 0.999644 
0.020283 -0.0150099 0.999682 
0.0207779 -0.0116597 0.999716 
0.0207196 -0.00871909 0.999747 
0.0214679 -0.00631857 0.99975 
0.021957 -0.0040793 0.999751 
0.0215741 -0.00203008 0.999765 
0.0221612 -5.10553e-05 0.999754 
0.0213822 0.00220154 0.999769 
0.020859 0.00524514 0.999769 
0.0201855 0.00936997 0.999752 
0.0195544 0.0147948 0.999699 
0.0184631 0.021761 0.999593 
0.0173173 0.0305123 0.999384 
0.0159408 0.0413353 0.999018 
0.0144584 0.0548119 0.998392 
0.01254 0.0722849 0.997305 
0.0104819 0.0951435 0.995408 
0.00783929 0.125396 0.992076 
0.00488524 0.16624 0.986073 
0.00193091 0.218595 0.975814 
-0.00106811 0.283117 0.959085 
-0.00361595 0.36458 0.931165 
-0.00441697 0.461911 0.886915 
-0.00427068 0.584027 0.811723 
-0.00519993 0.659841 0.751388 
-0.00376039 0.769605 0.638509 
0.00148216 0.934221 0.356693 
0.00228231 0.993645 0.112533 
0.00195171 0.996358 0.0852448 
0.000402299 0.999029 0.0440515 
-0.00151848 0.999832 -0.0182835 
-0.00256074 0.998902 -0.0467864 
-0.00155137 0.835195 -0.549952 
0.000679124 0.796235 -0.604987 
0.00288062 0.666123 -0.745836 
0.0038705 0.560718 -0.827998 
0.00514245 0.472494 -0.881319 
0.0036616 0.386929 -0.922102 
0.00140058 0.292106 -0.956385 
-0.00115307 0.227243 -0.973837 
-0.00439853 0.172367 -0.985023 
-0.0072496 0.133147 -0.99107 
-0.0101939 0.0940468 -0.995516 
-0.0124681 0.0717097 -0.997348 
-0.0144313 0.0547772 -0.998394 
-0.0161447 0.0402238 -0.99906 
-0.0173971 0.0299079 -0.999401 
-0.0186408 0.0212206 -0.999601 
-0.0198333 0.0141791 -0.999703 
-0.020428 0.00893723 -0.999751 
-0.0216546 0.00476562 -0.999754 
-0.0212448 0.00176023 -0.999773 
-0.0217383 -0.000541214 -0.999764 
-0.0214756 -0.00248991 -0.999766 
-0.0216514 -0.00450345 -0.999755 
-0.0213497 -0.00662641 -0.99975 
-0.0213865 -0.00917603 -0.999729 
-0.020762 -0.0121266 -0.999711 
-0.0198296 -0.015408 -0.999685 
-0.0196768 -0.0193517 -0.999619 
-0.0183368 -0.0238048 -0.999548 
-0.0186435 -0.0276378 -0.999444 
-0.016617 -0.0313828 -0.999369 
-0.0165266 -0.0315331 -0.999366 
-0.0141741 -0.0269798 -0.999536 
-0.0127203 -0.0218947 -0.999679 
-0.0104618 -0.0237915 -0.999662 