# vtk DataFile Version 3.0 
Exported using Morpho https://github.com/Morpho-lang/morpho 
ASCII 
DATASET UNSTRUCTURED_GRID 

POINTS 1978 float 
-8.48528 -2.82843 1.56489e-10 
-8.2612 -2.82843 -1.29767e-09 
-8.03516 -2.82843 -2.23895e-09 
-7.77589 -2.82843 -1.19669e-09 
-7.49507 -2.82843 6.00007e-10 
-7.24141 -2.82843 -5.24927e-10 
-6.99825 -2.82843 -1.13818e-09 
-6.78324 -2.82843 -8.44809e-10 
-6.56112 -2.82843 -6.48936e-10 
-6.3474 -2.82843 -3.6712e-10 
-6.14325 -2.82843 -1.16256e-10 
-5.91629 -2.82843 -3.10136e-10 
-5.7073 -2.82843 -2.13572e-10 
-5.50648 -2.82843 -7.51051e-11 
-5.29235 -2.82843 -6.84708e-11 
-5.0839 -2.82843 -2.7539e-11 
-4.86862 -2.82843 8.11961e-11 
-4.66174 -2.82843 2.01042e-10 
-4.44019 -2.82843 2.6683e-10 
-4.22187 -2.82843 3.67534e-10 
-4.00177 -2.82843 4.77244e-10 
-3.79329 -2.82843 6.51053e-10 
-3.58207 -2.82843 8.419e-10 
-3.37331 -2.82843 1.11822e-09 
-3.15907 -2.82843 1.39925e-09 
-2.94945 -2.82843 1.60864e-09 
-2.74478 -2.82843 1.83806e-09 
-2.54644 -2.82843 1.96852e-09 
-2.33143 -2.82843 2.19778e-09 
-2.13128 -2.82843 1.32063e-09 
-1.90926 -2.82843 9.57632e-10 
-1.71428 -2.82843 -9.99788e-10 
-1.51643 -2.82843 1.5387e-09 
-1.31277 -2.82843 9.52785e-09 
-1.14099 -2.82843 1.24764e-08 
-0.884804 -2.82843 3.27886e-08 
-0.685247 -2.82843 1.92541e-07 
-0.484479 -2.82843 -7.63554e-08 
-0.255655 -2.82843 5.3291e-08 
-0.0290963 -2.82842 -3.90708e-08 
0.290643 -2.82842 -1.1364e-08 
0.482365 -2.82843 -5.86463e-08 
0.697805 -2.82843 -5.38176e-08 
0.910869 -2.82843 -3.60029e-08 
1.11371 -2.82843 -1.75266e-08 
1.31363 -2.82843 -9.28192e-09 
1.51465 -2.82843 6.70872e-10 
1.71176 -2.82843 -1.62112e-10 
1.91538 -2.82843 -3.09763e-09 
2.1213 -2.82843 -2.0589e-09 
2.34634 -2.82843 -2.35269e-09 
2.5437 -2.82843 -2.20706e-09 
2.75574 -2.82843 -2.04129e-09 
2.97748 -2.82843 -1.73601e-09 
3.18444 -2.82843 -1.27405e-09 
3.38503 -2.82843 -1.08168e-09 
3.60777 -2.82843 -9.02318e-10 
3.80809 -2.82843 -5.80219e-10 
4.02163 -2.82843 -4.21527e-10 
4.24814 -2.82843 -3.78738e-10 
4.44795 -2.82843 -2.76488e-10 
4.6633 -2.82843 -6.82768e-11 
4.8701 -2.82843 -1.73665e-10 
5.07773 -2.82843 5.15873e-11 
5.29103 -2.82843 6.04866e-11 
5.50342 -2.82843 1.2445e-11 
5.70613 -2.82843 2.74444e-10 
5.92315 -2.82843 2.42378e-10 
6.14364 -2.82843 3.26642e-10 
6.34316 -2.82843 5.01218e-10 
6.58229 -2.82843 6.18648e-10 
6.79604 -2.82843 6.80302e-10 
6.99697 -2.82843 9.27085e-10 
7.2624 -2.82843 8.92042e-10 
7.49562 -2.82843 5.25331e-10 
7.73698 -2.82843 1.75343e-09 
8.01017 -2.82843 2.12703e-09 
8.19418 -2.82843 1.23871e-09 
8.48528 -2.82843 -3.7201e-11 
-8.48528 -2.59142 1.21781e-09 
-8.26076 -2.59008 -1.76209e-15 
-8.0288 -2.59029 -2.74727e-15 
-7.78895 -2.61895 -4.34163e-15 
-7.5315 -2.63846 -2.61726e-15 
-7.2386 -2.61717 -2.30445e-15 
-6.99609 -2.59487 -2.22824e-15 
-6.77574 -2.59487 -2.52119e-15 
-6.54424 -2.59417 -2.4785e-15 
-6.33027 -2.58004 -1.65769e-15 
-6.10185 -2.60655 -1.51673e-15 
-5.88656 -2.58842 -1.22951e-15 
-5.67866 -2.57889 -9.49562e-16 
-5.46247 -2.59594 -6.4529e-16 
-5.24894 -2.58899 -4.04615e-16 
-5.03122 -2.59575 -2.42416e-16 
-4.82038 -2.5846 1.0004e-17 
-4.60008 -2.60005 2.93569e-16 
-4.37844 -2.59635 6.04926e-16 
-4.15727 -2.59803 1.03501e-15 
-3.94501 -2.58549 1.55946e-15 
-3.73301 -2.59029 2.21453e-15 
-3.52111 -2.5907 2.82143e-15 
-3.30624 -2.60023 3.72466e-15 
-3.09237 -2.59883 4.29264e-15 
-2.88168 -2.59665 5.03679e-15 
-2.67851 -2.59301 4.88831e-15 
-2.46712 -2.61299 4.59157e-15 
-2.25532 -2.59823 2.89701e-15 
-2.04274 -2.62171 1.87397e-15 
-1.83043 -2.58927 -1.66878e-16 
-1.62803 -2.588 1.96069e-15 
-1.43068 -2.59362 3.07891e-14 
-1.25136 -2.52915 2.34934e-14 
-1.0393 -2.62919 8.77395e-14 
-0.833357 -2.55263 1.71307e-13 
-0.634745 -2.51983 7.99812e-14 
-0.421297 -2.54389 2.57623e-13 
-0.201537 -2.52111 -2.13564e-15 
0.000938229 -2.45235 -8.65504e-14 
0.19042 -2.60927 5.32819e-14 
0.448739 -2.48828 -1.16522e-13 
0.641594 -2.5437 -1.73759e-13 
0.863018 -2.57675 -1.27291e-13 
1.08067 -2.57462 -7.42397e-14 
1.28599 -2.5875 -4.06849e-14 
1.49572 -2.6059 -1.10887e-14 
1.70753 -2.60233 -7.06289e-15 
1.91541 -2.60976 -4.6772e-15 
2.14731 -2.62794 -1.16388e-15 
2.35413 -2.59278 -2.24239e-15 
2.56856 -2.60594 -4.69551e-15 
2.79958 -2.61603 -4.99688e-15 
3.0081 -2.59484 -4.62843e-15 
3.21425 -2.5844 -3.70349e-15 
3.4367 -2.60797 -3.43483e-15 
3.6427 -2.58091 -2.43565e-15 
3.85665 -2.59421 -1.79306e-15 
4.08407 -2.60704 -1.30467e-15 
4.29249 -2.5766 -7.79972e-16 
4.50905 -2.59567 -4.12087e-16 
4.72208 -2.58645 -1.30763e-16 
4.93609 -2.58914 1.06287e-16 
5.15137 -2.59617 3.6258e-16 
5.37046 -2.59581 5.61569e-16 
5.58187 -2.58444 7.86357e-16 
5.79776 -2.59935 1.08712e-15 
6.02241 -2.60052 1.34694e-15 
6.23617 -2.57299 1.53471e-15 
6.45656 -2.61255 2.13543e-15 
6.68529 -2.58317 2.27809e-15 
6.89532 -2.56454 2.33184e-15 
7.12395 -2.62773 2.63762e-15 
7.37647 -2.59845 2.15785e-15 
7.61512 -2.60623 3.56341e-15 
7.87218 -2.63167 4.6228e-15 
8.0807 -2.5346 2.48752e-15 
8.30294 -2.63976 2.40664e-15 
8.48528 -2.5295 -1.35964e-09 
-8.48528 -2.35068 2.0459e-09 
-8.24911 -2.35583 -3.13283e-16 
-8.0097 -2.35423 3.12896e-16 
-7.76854 -2.3998 -1.08035e-15 
-7.56377 -2.25202 3.29908e-16 
-7.4703 -2.45565 -1.22287e-15 
-7.19014 -2.40664 -8.60682e-16 
-6.95697 -2.34783 1.6495e-16 
-6.71706 -2.37694 -6.07391e-16 
-6.48927 -2.35187 -3.00588e-16 
-6.24549 -2.36574 -4.94507e-16 
-6.03049 -2.36429 -2.66319e-16 
-5.81168 -2.34475 -1.91075e-16 
-5.58324 -2.35464 -1.27944e-16 
-5.36813 -2.35844 -5.19984e-17 
-5.14295 -2.36251 -3.63402e-17 
-4.92848 -2.35049 1.12257e-17 
-4.70341 -2.36349 7.50088e-17 
-4.48372 -2.36908 1.84494e-16 
-4.25967 -2.36735 3.34427e-16 
-4.04632 -2.35175 4.30448e-16 
-3.83059 -2.34982 4.87952e-16 
-3.61912 -2.35448 6.16044e-16 
-3.40376 -2.36533 8.16017e-16 
-3.19243 -2.37055 1.01528e-15 
-2.9796 -2.36944 9.07762e-16 
-2.7717 -2.35875 5.32116e-16 
-2.56142 -2.37893 6.93926e-16 
-2.35522 -2.38502 4.45645e-16 
-2.13018 -2.38737 -3.92776e-17 
-1.92635 -2.38839 -8.6933e-16 
-1.69368 -2.35754 -5.59758e-15 
-1.48068 -2.34226 -2.15201e-14 
-1.2807 -2.26859 2.15812e-14 
-1.06762 -2.37778 -3.26464e-14 
-0.880488 -2.27675 -1.18227e-13 
-0.649755 -2.25005 -6.3389e-14 
-0.419072 -2.24174 -1.88324e-13 
-0.200041 -2.19093 8.05962e-15 
0.0510456 -2.12781 2.48566e-13 
0.24803 -2.2972 -6.49168e-14 
0.453833 -2.15968 3.79827e-14 
0.672374 -2.21622 2.43279e-13 
0.847057 -2.32482 -4.20295e-14 
1.0697 -2.3227 3.17672e-14 
1.28778 -2.33684 2.27101e-14 
1.49229 -2.38109 4.70896e-15 
1.69118 -2.36364 9.73787e-15 
1.89093 -2.38313 1.04395e-15 
2.09586 -2.42054 9.66343e-16 
2.30526 -2.37335 -5.90849e-16 
2.5274 -2.37547 -1.47111e-15 
2.74084 -2.40546 -1.52805e-15 
2.95849 -2.35972 -1.14498e-15 
3.1591 -2.348 -6.90764e-16 
3.37621 -2.37772 -9.2227e-16 
3.58174 -2.34442 -5.88235e-16 
3.79329 -2.35427 -5.41038e-16 
4.00893 -2.37942 -5.09466e-16 
4.21774 -2.34267 -2.85334e-16 
4.43837 -2.35542 -1.86396e-16 
4.64802 -2.34998 -9.28697e-17 
4.86296 -2.35329 -4.56512e-17 
5.07912 -2.35827 8.47613e-18 
5.29303 -2.36756 6.15718e-17 
5.50872 -2.35077 9.89759e-17 
5.7278 -2.36105 1.73202e-16 
5.94454 -2.37422 2.84348e-16 
6.16101 -2.34379 2.5295e-16 
6.3945 -2.36478 4.66575e-16 
6.60498 -2.36416 5.49827e-16 
6.83073 -2.31717 3.68888e-17 
7.06306 -2.37593 2.98506e-16 
7.28291 -2.39748 3.95274e-16 
7.54412 -2.37616 1.06353e-15 
7.78883 -2.41199 2.10353e-15 
8.00071 -2.31285 -3.72132e-16 
8.26128 -2.37084 -6.45829e-16 
8.48528 -2.28726 -1.93029e-09 
-8.48528 -2.11262 1.24916e-09 
-8.25747 -2.10419 1.02011e-16 
-8.04545 -2.11259 1.40916e-15 
-7.80102 -2.15742 1.09632e-15 
-7.51696 -2.03766 7.34172e-16 
-7.30825 -2.23089 1.17398e-15 
-7.07012 -2.14223 2.11647e-15 
-6.80197 -2.1404 1.23907e-15 
-6.58804 -2.13152 1.04449e-15 
-6.34348 -2.14507 7.78336e-16 
-6.11971 -2.11991 7.67439e-16 
-5.91261 -2.11686 4.97067e-16 
-5.68559 -2.1266 3.53003e-16 
-5.46598 -2.11812 2.88396e-16 
-5.24952 -2.13381 1.92641e-16 
-5.03619 -2.11853 1.2428e-16 
-4.81267 -2.12976 4.99175e-17 
-4.59462 -2.13436 -6.69004e-18 
-4.37676 -2.14022 -5.79507e-17 
-4.16571 -2.1212 -1.59737e-16 
-3.95106 -2.11571 -3.48029e-16 
-3.73832 -2.1148 -6.01612e-16 
-3.52467 -2.12838 -8.7391e-16 
-3.31408 -2.13426 -1.17427e-15 
-3.103 -2.14161 -1.51556e-15 
-2.89386 -2.13357 -1.80509e-15 
-2.67652 -2.13733 -2.16182e-15 
-2.4693 -2.14968 -2.38079e-15 
-2.25226 -2.17197 -1.50364e-15 
-2.03476 -2.14865 -2.63375e-15 
-1.82039 -2.17054 -5.58781e-16 
-1.5861 -2.11788 -1.76652e-15 
-1.38619 -2.05219 -3.61169e-14 
-1.18222 -1.90092 -2.88744e-15 
-1.0934 -2.10742 -6.76156e-14 
-0.831664 -2.02846 -5.14972e-14 
-0.590664 -1.96026 -7.87318e-14 
-0.364466 -1.91887 -4.19563e-14 
-0.0993065 -1.88918 -8.97267e-14 
0.0649858 -1.67783 3.98092e-13 
0.257164 -1.92429 -3.68215e-14 
0.294858 -1.56571 -3.40139e-13 
0.499657 -1.86146 2.61827e-13 
0.740914 -1.94898 -1.49693e-13 
0.965681 -2.06879 5.80864e-14 
1.21343 -2.09241 3.335e-14 
1.45983 -2.1392 5.91401e-15 
1.67026 -2.12723 4.3321e-15 
1.88599 -2.14897 3.10123e-15 
2.10173 -2.19044 3.75333e-15 
2.34175 -2.16295 2.83967e-15 
2.56961 -2.15385 2.22961e-15 
2.77754 -2.17458 2.04879e-15 
2.98011 -2.10893 1.7329e-15 
3.2054 -2.13067 1.56357e-15 
3.40744 -2.1321 1.14664e-15 
3.62336 -2.11061 7.27232e-16 
3.84114 -2.12866 4.73079e-16 
4.04353 -2.13189 2.38539e-16 
4.27161 -2.11741 9.68302e-17 
4.48101 -2.11387 2.3819e-17 
4.69774 -2.11592 -2.63563e-17 
4.914 -2.12216 -8.67381e-17 
5.12987 -2.12453 -1.57922e-16 
5.34188 -2.13193 -2.23051e-16 
5.56592 -2.12351 -2.99659e-16 
5.78366 -2.13068 -4.14767e-16 
5.99457 -2.1322 -5.19981e-16 
6.23561 -2.12981 -6.86814e-16 
6.44672 -2.11458 -9.65898e-16 
6.65993 -2.11872 -1.12054e-15 
6.92016 -2.10948 -1.76464e-15 
7.13749 -2.13848 -2.36814e-15 
7.37023 -2.18379 -1.73849e-15 
7.56245 -2.08568 -1.14139e-15 
7.74306 -2.18104 -6.2249e-16 
7.95688 -2.08035 -1.76481e-15 
8.20493 -2.14843 -1.21576e-15 
8.48528 -2.09213 -6.36778e-10 
-8.48528 -1.81637 4.51658e-10 
-8.30437 -1.85833 -1.46775e-15 
-7.89091 -1.91207 9.45567e-16 
[...]
POINT_DATA 1978 
VECTORS vectors float
0.002285 -0.00738513 0.99997 
0.000459863 -0.024197 0.999707 
-0.000830978 -0.0235906 0.999721 
-0.00183697 -0.0308948 0.99952 
-0.00204074 -0.0347417 0.999393 
-0.00102929 -0.0309557 0.99952 
-0.000114872 -0.025908 0.999664 
0.000366314 -0.0206622 0.999786 
0.000414111 -0.0164577 0.999864 
0.000568835 -0.0135226 0.999908 
0.000509094 -0.0111214 0.999938 
0.000411289 -0.00847966 0.999964 
0.000750802 -0.00657383 0.999978 
0.000734526 -0.00544717 0.999985 
0.000599655 -0.00379912 0.999992 
0.000619847 -0.00218855 0.999997 
0.00059288 -0.000740324 0.999999 
0.000544558 0.0007092 0.999999 
0.000389369 0.00262113 0.999996 
0.00042562 0.00516007 0.999986 
0.000518547 0.00837713 0.999964 
0.000619371 0.0125957 0.99992 
0.000589409 0.0185141 0.999828 
0.000552206 0.0264703 0.999649 
0.000498929 0.0375706 0.999294 
0.000535371 0.051882 0.998653 
0.000556091 0.0700445 0.997544 
0.000435596 0.0926782 0.995696 
0.000294057 0.124645 0.992201 
0.000169277 0.16399 0.986462 
1.2185e-05 0.21926 0.975667 
-0.000196793 0.279478 0.960152 
-0.000280534 0.353602 0.935396 
-0.000715097 0.440481 0.897762 
-0.000426455 0.528367 0.849016 
-0.000279858 0.665852 0.746083 
-0.00103797 0.776464 0.63016 
-0.000639159 0.87969 0.475546 
-0.000502077 0.963624 0.267262 
-0.000206584 0.999535 0.0304812 
-6.86093e-05 0.951499 -0.307652 
0.000866518 0.88041 -0.474212 
0.000719352 0.768632 -0.63969 
0.000792452 0.651449 -0.758692 
0.000792256 0.538585 -0.842571 
0.000474239 0.439668 -0.89816 
0.000378663 0.35358 -0.935404 
0.00017652 0.279258 -0.960216 
-5.97676e-05 0.217544 -0.976051 
-9.42417e-05 0.165072 -0.986281 
-0.000301012 0.122539 -0.992463 
-0.000436078 0.0937239 -0.995598 
-0.000341287 0.069237 -0.9976 
-0.000430577 0.0499547 -0.998751 
-0.000620649 0.0361331 -0.999347 
-0.000572255 0.0259783 -0.999662 
-0.000533296 0.0174992 -0.999846 
-0.000682098 0.0122193 -0.999925 
-0.000412737 0.00813852 -0.999966 
-0.000528393 0.00459028 -0.999989 
-0.000713374 0.00260514 -0.999996 
-0.00059501 0.000795248 -0.999999 
-0.000707748 -0.000832878 -0.999999 
-0.000636859 -0.00206891 -0.999997 
-0.000570679 -0.00370767 -0.999993 
-0.000695885 -0.00529316 -0.999985 
-0.00065432 -0.00657713 -0.999978 
-0.000428699 -0.00873113 -0.999961 
-0.000615038 -0.0110828 -0.999938 
-0.000406842 -0.0131674 -0.999913 
-0.000208541 -0.0171459 -0.999853 
-0.000548793 -0.0211382 -0.999776 
0.000126491 -0.0251507 -0.999683 
0.000632763 -0.0318614 -0.999492 
0.000449015 -0.0353248 -0.999375 
0.000821581 -0.0328487 -0.999459 
0.000188359 -0.0249907 -0.999687 
-0.000320368 -0.0246764 -0.999695 
-0.00154689 -0.00642694 -0.999978 
0.00391931 -0.0024887 0.999989 
0.0131303 -0.0229637 0.99965 
0.0155642 -0.0262237 0.999535 
0.0166017 -0.0287999 0.999447 
0.0156341 -0.0315032 0.999381 
0.0151561 -0.0296245 0.999446 
0.0158377 -0.0255616 0.999548 
0.0165645 -0.0210655 0.999641 
0.0173611 -0.0166666 0.99971 
0.017843 -0.0135427 0.999749 
0.0178271 -0.0107296 0.999783 
0.0184182 -0.00825614 0.999796 
0.0187201 -0.00641015 0.999804 
0.0184468 -0.00494763 0.999818 
0.0185125 -0.00337409 0.999823 
0.018366 -0.00175125 0.99983 
0.0184637 -0.000211219 0.99983 
0.0179409 0.00152885 0.999838 
0.0177987 0.00374912 0.999835 
0.0175196 0.00665579 0.999824 
0.0173771 0.0104666 0.999794 
0.0166503 0.0156023 0.99974 
0.0157166 0.0225745 0.999622 
0.0144507 0.0319119 0.999386 
0.0130284 0.0444125 0.998928 
0.0113858 0.0605872 0.998098 
0.00937772 0.0809103 0.996677 
0.00685683 0.107796 0.994149 
0.00415263 0.143882 0.989586 
0.00117184 0.189737 0.981834 
-0.00225199 0.249366 0.968407 
-0.00517998 0.317837 0.948131 
-0.00753746 0.397309 0.917654 
-0.00970249 0.480699 0.876832 
-0.0123389 0.586954 0.809526 
-0.0132684 0.696441 0.717492 
-0.0116858 0.805141 0.592968 
-0.00859117 0.907529 0.419902 
-0.00388719 0.977946 0.20882 
0.00120217 0.999995 -0.00294778 
0.00549974 0.978258 -0.207316 
0.0101671 0.892155 -0.451615 
0.012307 0.799165 -0.600986 
0.012742 0.677761 -0.735172 
0.0118872 0.562214 -0.826907 
0.00974009 0.459233 -0.888263 
0.00694977 0.367884 -0.929845 
0.00382537 0.28802 -0.957617 
0.0002943 0.221576 -0.975143 
-0.00265182 0.164859 -0.986314 
-0.00527967 0.126309 -0.991977 
-0.00790995 0.0942695 -0.995515 
-0.0102682 0.0680539 -0.997629 
-0.0123521 0.0503927 -0.998653 
-0.0139701 0.0371316 -0.999213 
-0.0150739 0.0257976 -0.999554 
-0.0164801 0.018309 -0.999697 
-0.0169435 0.0123757 -0.99978 
-0.0173607 0.00777187 -0.999819 
-0.0183178 0.00475419 -0.999821 
-0.0182299 0.00239594 -0.999831 
-0.0186031 0.000526886 -0.999827 
-0.0186157 -0.00110291 -0.999826 
-0.0184837 -0.00260075 -0.999826 
-0.0185383 -0.00421173 -0.999819 
-0.0187247 -0.00578544 -0.999808 
-0.0182122 -0.0075893 -0.999805 
-0.0179371 -0.00987304 -0.99979 
-0.0180923 -0.0123269 -0.99976 
-0.0168836 -0.0153075 -0.99974 
-0.0169369 -0.0193253 -0.99967 
-0.016646 -0.023463 -0.999586 
-0.0150098 -0.0279549 -0.999497 
-0.0153969 -0.0310685 -0.999399 
-0.0159972 -0.030543 -0.999406 
-0.0161933 -0.0281562 -0.999472 
-0.0161203 -0.027234 -0.999499 
-0.012433 -0.022194 -0.999676 
-0.00314329 -0.00231896 -0.999993 
0.00209941 -0.00338323 0.999992 
0.012639 -0.0242449 0.999626 
0.0145173 -0.0271982 0.999525 
0.0155611 -0.0268194 0.999519 
0.013541 -0.0260157 0.99957 
0.0163139 -0.0290313 0.999445 
0.0163324 -0.0283388 0.999465 
0.0158103 -0.0250048 0.999562 
0.0171215 -0.0204929 0.999643 
0.0174253 -0.0164192 0.999713 
0.0182851 -0.0127687 0.999751 
0.018461 -0.010018 0.999779 
0.0186987 -0.00772363 0.999795 
0.0190877 -0.00580167 0.999801 
0.0190218 -0.00415975 0.99981 
0.0189628 -0.00246752 0.999817 
0.0188087 -0.000863014 0.999823 
0.0188072 0.000913145 0.999823 
0.0186197 0.00297562 0.999822 
0.0183132 0.00573779 0.999816 
0.0177653 0.00939681 0.999798 
0.0169998 0.0144284 0.999752 
0.0160525 0.0210014 0.999651 
0.0148512 0.029767 0.999447 
0.0132952 0.0410111 0.99907 
0.0112845 0.0558343 0.998376 
0.00894711 0.074706 0.997165 
0.00670362 0.0989334 0.995071 
0.00425526 0.129755 0.991537 
0.00150519 0.173372 0.984855 
-0.000968827 0.223796 0.974636 
-0.00343863 0.297661 0.954666 
-0.00490764 0.377674 0.925926 
-0.00519009 0.465313 0.885131 
-0.0082155 0.567982 0.823 
-0.00627305 0.670249 0.742109 
-0.00504692 0.791237 0.611489 
-0.00337309 0.89922 0.437484 
-0.000775317 0.976197 0.216884 
0.000819836 0.998767 -0.049639 
0.00392873 0.967737 -0.25193 
0.00367753 0.891671 -0.452668 
0.00505697 0.785177 -0.619251 
0.00725188 0.68686 -0.726754 
0.00678538 0.564444 -0.825444 
0.0060203 0.459607 -0.888102 
0.00491066 0.371431 -0.928448 
0.00303641 0.299204 -0.954184 
0.00127976 0.237213 -0.971457 
-0.0009506 0.182808 -0.983148 
-0.00329701 0.139524 -0.990213 
-0.00624422 0.104055 -0.994552 
-0.00895587 0.0774629 -0.996955 
-0.0109694 0.0575606 -0.998282 
-0.0126573 0.0433892 -0.998978 
-0.0146394 0.0309548 -0.999414 
-0.0157647 0.0224435 -0.999624 
-0.0169014 0.0154485 -0.999738 
-0.0178806 0.010077 -0.999789 
-0.0181776 0.00643107 -0.999814 
-0.0185843 0.00348098 -0.999821 
-0.0186838 0.00137226 -0.999824 
-0.0188255 -0.000416344 -0.999823 
-0.018948 -0.00201401 -0.999818 
-0.0190677 -0.00356286 -0.999812 
-0.0190129 -0.00519713 -0.999806 
-0.0189791 -0.00706175 -0.999795 
-0.0188805 -0.0092114 -0.999779 
-0.0183327 -0.0117284 -0.999763 
-0.0179675 -0.0148607 -0.999728 
-0.0173986 -0.0182999 -0.999681 
-0.0162605 -0.0227271 -0.99961 
-0.0162122 -0.0269518 -0.999505 
-0.0159259 -0.0292417 -0.999446 
-0.0154439 -0.0275421 -0.999501 
-0.0162196 -0.0267733 -0.99951 
-0.0143496 -0.0276009 -0.999516 
-0.0122395 -0.0249703 -0.999613 
-0.00204489 -0.00385482 -0.999991 
0.00187045 -0.00305371 0.999994 
0.0112221 -0.0246799 0.999632 
0.011669 -0.0259706 0.999595 
0.0117213 -0.0242776 0.999636 
0.0125702 -0.0249565 0.99961 
0.0142511 -0.0282808 0.999498 
0.0140232 -0.0270572 0.999536 
0.0149961 -0.0225244 0.999634 
0.0156635 -0.0186715 0.999703 
0.0165269 -0.0146682 0.999756 
0.0170247 -0.0115952 0.999788 
0.0177057 -0.00911289 0.999802 
0.0182437 -0.00683436 0.99981 
0.0183975 -0.00492625 0.999819 
0.0182235 -0.00320665 0.999829 
0.0182754 -0.0015987 0.999832 
0.0180352 0.000145283 0.999837 
0.017779 0.00208118 0.99984 
0.017465 0.00454766 0.999837 
0.0172274 0.00788357 0.999821 
0.0166504 0.0125118 0.999783 
0.0157547 0.0186315 0.999702 
0.0144775 0.0265376 0.999543 
0.0129521 0.0366131 0.999246 
0.0110542 0.0494513 0.998715 
0.00894197 0.0659863 0.997781 
0.00644004 0.0880668 0.996094 
0.00399527 0.115277 0.993326 
0.00165671 0.151746 0.988418 
-0.000496541 0.200058 0.979784 
-0.00210873 0.258962 0.965885 
-0.00293536 0.341337 0.939936 
-0.00320726 0.424054 0.905631 
-0.00369245 0.5226 0.85257 
-0.00347384 0.558639 0.829403 
-0.00268699 0.696494 0.717558 
-0.00207043 0.82478 0.56545 
-0.00110573 0.925599 0.378503 
-0.000212801 0.994175 0.107779 
-2.0724e-05 0.997332 -0.0729911 
0.000738713 0.959206 -0.282708 
0.00144557 0.949238 -0.314556 
0.00165085 0.86722 -0.497922 
0.00267918 0.741612 -0.670823 
0.00289559 0.626227 -0.779636 
0.00282589 0.501441 -0.865187 
0.00303767 0.392503 -0.919746 
0.00258567 0.309684 -0.950836 
0.0016423 0.237902 -0.971288 
1.21871e-05 0.18297 -0.983119 
-0.00237742 0.135688 -0.990749 
-0.00503035 0.101657 -0.994807 
-0.00740134 0.0765192 -0.997041 
-0.00981099 0.0591728 -0.9982 
-0.0117801 0.0430108 -0.999005 
-0.0134349 0.0318715 -0.999402 
-0.015135 0.0226899 -0.999628 
-0.0161372 0.0153608 -0.999752 
-0.0169278 0.0103041 -0.999804 
-0.0176179 0.00611029 -0.999826 
-0.0179059 0.00329711 -0.999834 
-0.0181113 0.00109816 -0.999835 
-0.0182178 -0.00069955 -0.999834 
-0.0183081 -0.00231488 -0.99983 
-0.0183327 -0.00389715 -0.999824 
-0.018347 -0.00571736 -0.999815 
-0.0180568 -0.00775105 -0.999807 
-0.0177887 -0.0100565 -0.999791 
-0.0171516 -0.0131511 -0.999766 
-0.0164538 -0.0163375 -0.999731 
-0.0157693 -0.020001 -0.999676 
-0.0147252 -0.0249957 -0.999579 
-0.0139014 -0.0280859 -0.999509 
-0.0133938 -0.0280846 -0.999516 
-0.0120674 -0.0246656 -0.999623 
-0.0121196 -0.0240543 -0.999637 
-0.0112931 -0.0254237 -0.999613 
-0.011666 -0.0264891 -0.999581 
-0.00301212 -0.00353051 -0.99999 
0.0019645 -0.00350016 0.999992 
0.0107643 -0.0221457 0.999697 
0.0114274 -0.0232305 0.999665 
0.012342 -0.0226617 0.999667 
0.0159406 -0.0264591 0.999523 
0.0139761 -0.0283317 0.999501 
0.0169688 -0.0289207 0.999438 
0.0160694 -0.0259441 0.999534 
0.0187646 -0.0219262 0.999584 
0.01874 -0.0176206 0.999669 
0.0203512 -0.0141603 0.999693 
0.0221198 -0.0112365 0.999692 
0.0222865 -0.00852657 0.999715 
0.0227348 -0.00627229 0.999722 
0.0230606 -0.00424453 0.999725 
0.0231351 -0.00256875 0.999729 
0.0227902 -0.000808387 0.99974 
0.0225145 0.00104684 0.999746 
0.0220514 0.00328048 0.999752 
0.0219152 0.00616235 0.999741 
0.0215329 0.0102585 0.999716 
0.020772 0.0157431 0.99966 
0.0194783 0.0229039 0.999548 
0.017902 0.0317439 0.999336 
0.0159337 0.0429815 0.998949 
0.0137635 0.0569435 0.998283 
0.0110843 0.0755228 0.997083 
0.00823803 0.0993816 0.995015 
0.00490811 0.129583 0.991557 
0.00195965 0.168352 0.985725 
-0.000667202 0.22241 0.974953 
-0.00253448 0.284136 0.958781 
-0.00401245 0.356162 0.934416 
-0.00488286 0.444729 0.895652 
-0.00390587 0.643153 0.765728 
-0.00418041 0.760591 0.649217 
-0.00385526 0.872364 0.488841 
-0.00447053 0.935452 0.353424 
-0.0025011 0.962327 0.271884 
-0.00239696 0.997836 0.0657056 
-0.0010687 0.987057 -0.160363 
0.00211055 0.898548 -0.43887 
0.00353979 0.822253 -0.569111 
0.00468353 0.692632 -0.721276 
0.00407836 0.567638 -0.823268 
0.00603208 0.497574 -0.8674 
0.0037347 0.434062 -0.900875 
0.00370455 0.344561 -0.938757 
0.00245447 0.269905 -0.962884 
0.000472972 0.206609 -0.978424 
-0.00182233 0.159351 -0.98722 
-0.00554383 0.118558 -0.992932 
-0.00878982 0.0883649 -0.99605 
-0.0117046 0.07 -0.997478 
-0.0143276 0.0507822 -0.998607 
-0.0168774 0.0378364 -0.999142 
-0.0185963 0.0277936 -0.999441 
-0.0199368 0.0190277 -0.99962 
-0.0212362 0.0129009 -0.999691 
-0.0214865 0.00817402 -0.999736 
-0.0227209 0.00458318 -0.999731 
-0.0229087 0.00200682 -0.999736 
-0.0230868 -3.86456e-05 -0.999734 
-0.0231965 -0.00175379 -0.99973 
-0.0232115 -0.00343638 -0.999725 
-0.0228351 -0.0051872 -0.999726 
-0.0226742 -0.00735222 -0.999716 
-0.0222573 -0.00976869 -0.999705 
-0.0208491 -0.0125663 -0.999704 
-0.0208978 -0.0160848 -0.999652 
-0.019866 -0.0198032 -0.999607 
-0.0178378 -0.0238887 -0.999556 
-0.0168585 -0.0281401 -0.999462 
-0.0148282 -0.0285459 -0.999483 
-0.0141625 -0.0246914 -0.999595 
-0.0121157 -0.0218858 -0.999687 
-0.0117643 -0.0245416 -0.99963 
-0.0112692 -0.0238744 -0.999651 
-0.00249778 -0.0033145 -0.999992 
0.00203904 -0.003256 0.999993 
0.0108835 -0.0218276 0.999702 
0.0120348 -0.0240207 0.999639 
0.013969 -0.0222162 0.999656 
0.0155686 -0.0223027 0.99963 
0.0188639 -0.0294104 0.99939 
0.0208867 -0.0284424 0.999377 
0.0216641 -0.0250647 0.999451 
0.0229937 -0.0199712 0.999536 
0.0239988 -0.0163673 0.999578 
0.0252638 -0.0131672 0.999594 
0.0260923 -0.00995455 0.99961 
0.0265244 -0.00744307 0.999621 
0.0268107 -0.00519534 0.999627 
0.0271884 -0.00326142 0.999625 
0.0270519 -0.00149629 0.999633 
0.0269124 0.000384665 0.999638 
0.0265719 0.00259611 0.999644 
0.0262162 0.00539069 0.999642 
0.0255553 0.00920277 0.999631 
0.0246514 0.0144594 0.999592 
0.0234253 0.0213249 0.999498 
0.0219447 0.0299233 0.999311 
0.0200765 0.0405479 0.998976 
0.0178627 0.0540312 0.99838 
0.0151376 0.0712617 0.997343 
0.0120264 0.0940837 0.995492 
0.00830367 0.124759 0.992153 
0.00457298 0.162787 0.986651 
0.000951917 0.213121 0.977025 
-0.00246783 0.283694 0.958912 
-0.00504509 0.370525 0.928809 
-0.00646658 0.478818 0.87789 
-0.00652144 0.595494 0.803333 
-0.00603978 0.572767 0.819696 
-0.00615385 0.689761 0.724011 
-0.00566819 0.809413 0.587213 
-0.00514273 0.888318 0.4592 
-0.00344667 0.98962 0.143663 
-0.00165081 0.997717 -0.0675032 
-0.000297444 0.960166 -0.27943 
-0.00246678 0.979816 -0.199885 
0.00190113 0.861449 -0.50784 
0.00468144 0.755658 -0.65495 
0.00640831 0.618404 -0.785834 
0.00685821 0.508025 -0.861315 
0.00573331 0.399855 -0.916561 
0.00393434 0.31732 -0.94831 
0.00110911 0.244187 -0.969728 
-0.00214905 0.18871 -0.98203 
-0.00547125 0.145473 -0.989347 
-0.00961358 0.108677 -0.994031 
-0.0129583 0.0864504 -0.996172 
-0.0157905 0.0642845 -0.997807 
-0.0185791 0.0486861 -0.998641 
-0.0207995 0.0366438 -0.999112 
-0.0225141 0.0261447 -0.999405 
-0.0240085 0.0184547 -0.999542 
-0.0251314 0.0122343 -0.999609 
-0.0257382 0.00759682 -0.99964 
-0.0265908 0.00406878 -0.999638 
-0.0269099 0.00149992 -0.999637 
-0.0271866 -0.000501847 -0.99963 
-0.0272552 -0.00229168 -0.999626 
-0.027244 -0.00406593 -0.999621 
-0.0268399 -0.00602433 -0.999622 
-0.0265599 -0.00836516 -0.999612 
-0.0258482 -0.01113 -0.999604 
-0.0249024 -0.0140943 -0.999591 
-0.0241964 -0.0179153 -0.999547 
-0.0229721 -0.0220218 -0.999494 
-0.0212648 -0.0262705 -0.999429 
-0.02055 -0.0296557 -0.999349 
-0.0184205 -0.0291903 -0.999404 
-0.0169935 -0.024695 -0.999551 
-0.0144892 -0.0210238 -0.999674 
-0.0132612 -0.0234659 -0.999637 
-0.0114657 -0.0217461 -0.999698 
-0.00230749 -0.00354143 -0.999991 
0.00228286 -0.00329908 0.999992 
0.0102449 -0.0218571 0.999709 
0.0130367 -0.0235065 0.999639 
0.0145409 -0.0215088 0.999663 
0.0173026 -0.0252744 0.999531 
0.0180663 -0.0304994 0.999372 
0.0202823 -0.0305191 0.999329 
0.0207322 -0.0271271 0.999417 
0.0226846 -0.0231136 0.999476 
0.0230906 -0.0190061 0.999553 
0.0237954 -0.0156493 0.999595 
0.0246993 -0.0120857 0.999622 
0.0250107 -0.00915475 0.999645 
0.025701 -0.00668913 0.999647 
0.0259421 -0.00456588 0.999653 
0.0259585 -0.00253354 0.99966 
0.0262709 -0.000710219 0.999655 
0.0260334 0.00138225 0.99966 
0.025401 0.00385967 0.99967 
0.0247158 0.00727223 0.999668 
0.0239812 0.0118452 0.999642 
0.0229406 0.0180175 0.999575 
0.0216496 0.0257132 0.999435 
0.0201808 0.0353644 0.999171 
0.0184697 0.0470944 0.99872 
0.0163113 0.0621943 0.997931 
0.0138341 0.0812301 0.9966 
0.0108163 0.107304 0.994168 
0.0074098 0.141113 0.989966 
0.0038798 0.184224 0.982877 
9.57403e-05 0.24325 0.969964 
-0.00320333 0.31713 0.948377 
-0.00550036 0.421247 0.906929 
-0.00575873 0.526155 0.850369 
-0.00593584 0.727058 0.686551 
-0.00447642 0.842491 0.538692 
-0.00162651 0.906622 0.421939 
-2.33054e-05 0.966209 0.25776 
-0.00276654 0.965618 0.25995 
-0.00126607 0.995341 0.096407 
-0.00131719 0.999923 0.0123271 
-0.00232182 0.923194 -0.384325 
-0.00103949 0.914008 -0.405694 
0.00229862 0.785421 -0.618958 
0.00478021 0.684837 -0.72868 
0.00572329 0.580106 -0.814521 
0.00589803 0.413922 -0.910294 
0.0039284 0.342255 -0.939599 
0.00153387 0.269911 -0.962884 
-0.00197706 0.207318 -0.978272 
-0.00551025 0.160981 -0.986942 
-0.00888303 0.124665 -0.992159 
-0.0111741 0.100727 -0.994851 
-0.014539 0.074664 -0.997103 
-0.0169356 0.0574365 -0.998206 
-0.0187499 0.0435437 -0.998876 
-0.0208693 0.0316113 -0.999282 
-0.022199 0.0228992 -0.999491 
-0.0234227 0.015656 -0.999603 
-0.0244659 0.00992766 -0.999652 
-0.0252478 0.00588028 -0.999664 
-0.0255832 0.00254828 -0.99967 
-0.0258559 0.000284009 -0.999666 
-0.0260396 -0.00171779 -0.99966 
-0.025951 -0.00356179 -0.999657 
-0.025957 -0.00561067 -0.999647 
-0.0256028 -0.00786261 -0.999641 
-0.0251293 -0.0106977 -0.999627 
-0.0243525 -0.0138884 -0.999607 
-0.0235311 -0.0173009 -0.999574 
-0.022311 -0.0217702 -0.999514 
-0.0215955 -0.0264018 -0.999418 
-0.0199575 -0.0305528 -0.999334 
-0.0186019 -0.0295548 -0.99939 
-0.0164148 -0.0247535 -0.999559 
-0.0150523 -0.021279 -0.99966 
-0.012942 -0.0231765 -0.999648 
-0.0114465 -0.0225872 -0.999679 
-0.00252254 -0.00338516 -0.999991 
0.00188575 -0.0033947 0.999993 
0.00849443 -0.0228316 0.999703 
0.0123532 -0.0230652 0.999658 
0.0120175 -0.021725 0.999692 
0.0149036 -0.0245303 0.999588 
0.0152635 -0.0313402 0.999392 
0.0174019 -0.0311481 0.999363 
0.0173128 -0.027184 0.999481 
0.0194981 -0.0226898 0.999553 
0.0188127 -0.0189605 0.999643 
0.0202973 -0.0150142 0.999681 
0.0207911 -0.0116623 0.999716 
0.0207318 -0.00872007 0.999747 
0.0214821 -0.00631879 0.999749 
0.0219725 -0.00407943 0.99975 
0.0215874 -0.00203101 0.999765 
0.0221777 -5.35274e-05 0.999754 
0.0213976 0.00219666 0.999769 
0.0208723 0.00523815 0.999768 
0.0201987 0.00936214 0.999752 
0.0195673 0.014788 0.999699 
0.0184749 0.0217554 0.999593 
0.0173281 0.0305085 0.999384 
0.0159511 0.0413322 0.999018 
0.0144688 0.0548063 0.998392 
0.0125494 0.072273 0.997306 
0.010492 0.0951241 0.99541 
0.00784837 0.12537 0.992079 
0.00489222 0.166204 0.98608 
0.00193442 0.218575 0.975818 
-0.00107259 0.283187 0.959064 
-0.00362609 0.364604 0.931156 
-0.00442278 0.461869 0.886937 
-0.00426655 0.584232 0.811575 
-0.00520462 0.659642 0.751561 
-0.00375532 0.769024 0.639208 
0.00161601 0.936015 0.351962 
0.00227263 0.993634 0.112636 
0.00193389 0.996343 0.0854261 
0.000378253 0.999066 0.0432177 
-0.00153616 0.999819 -0.0189216 
-0.00256576 0.998888 -0.047083 
-0.00154166 0.834735 -0.550649 
0.000696161 0.796312 -0.604886 
0.00287992 0.666019 -0.745929 
0.00387874 0.560678 -0.828025 
0.00515807 0.472526 -0.881302 
0.00366944 0.387039 -0.922056 
0.00140119 0.292083 -0.956392 
-0.00115328 0.227236 -0.973839 
-0.00440682 0.172322 -0.985031 
-0.00726119 0.133121 -0.991073 
-0.010202 0.0940074 -0.995519 
-0.01248 0.0716927 -0.997349 
-0.0144407 0.0547762 -0.998394 
-0.0161571 0.0402195 -0.99906 
-0.017408 0.0299054 -0.999401 
-0.0186529 0.0212143 -0.999601 
-0.019847 0.0141722 -0.999703 
-0.020442 0.00892935 -0.999751 
-0.0216711 0.00475804 -0.999754 
-0.0212585 0.00175516 -0.999773 
-0.0217527 -0.000543601 -0.999763 
-0.021489 -0.00249072 -0.999766 
-0.0216655 -0.00450365 -0.999755 
-0.0213629 -0.00662658 -0.99975 
-0.0214013 -0.00917724 -0.999729 
-0.0207757 -0.0121291 -0.999711 
-0.0198413 -0.0154121 -0.999684 
-0.0196914 -0.0193573 -0.999619 
-0.0183471 -0.0238139 -0.999548 
-0.0186592 -0.0276571 -0.999443 
-0.0166278 -0.031426 -0.999368 
-0.0165425 -0.031591 -0.999364 
-0.0141852 -0.0269907 -0.999535 
-0.0127302 -0.021854 -0.99968 
-0.0104725 -0.0238294 -0.999661 