# vtk DataFile Version 3.0 
Exported using Morpho https://github.com/Morpho-lang/morpho 
ASCII 
DATASET UNSTRUCTURED_GRID 

POINTS 1978 float 
-8.48526 -2.8284 -5.34219e-08 
-8.25347 -2.82842 -1.55517e-07 
-8.0278 -2.82841 -6.09612e-08 
-7.77456 -2.82842 -1.49542e-07 
-7.45536 -2.82843 -1.1618e-07 
-7.15322 -2.82842 5.64145e-08 
-6.97001 -2.82842 -1.95625e-08 
-6.72826 -2.82843 -7.84697e-09 
-6.53741 -2.82841 -1.24649e-08 
-6.34561 -2.82843 -1.55199e-08 
-6.15595 -2.82842 -1.2428e-08 
-5.9391 -2.82842 -5.05429e-09 
-5.73242 -2.82842 -2.50456e-09 
-5.53098 -2.82842 -3.08168e-09 
-5.30164 -2.82842 8.45677e-09 
-5.09127 -2.82842 1.00936e-08 
-4.88033 -2.82842 1.12238e-08 
-4.66793 -2.82842 1.6076e-08 
-4.45787 -2.82842 2.00857e-08 
-4.2517 -2.82842 2.43414e-08 
-4.04763 -2.82842 2.92247e-08 
-3.84188 -2.82842 3.58101e-08 
-3.63788 -2.82842 4.37055e-08 
-3.43309 -2.82842 5.21583e-08 
-3.22569 -2.82842 6.5286e-08 
-3.01825 -2.82842 7.87955e-08 
-2.81427 -2.82842 9.23713e-08 
-2.61059 -2.82842 1.03021e-07 
-2.40013 -2.82843 1.02945e-07 
-2.16914 -2.82843 9.81862e-08 
-1.97473 -2.82843 6.68883e-08 
-1.77912 -2.82843 5.98061e-08 
-1.5579 -2.82842 7.02656e-08 
-1.35756 -2.82842 8.5538e-08 
-1.16664 -2.82842 3.92204e-07 
-0.984412 -2.82841 4.07238e-07 
-0.752841 -2.82837 1.60577e-06 
-0.500969 -2.82834 1.28595e-06 
-0.176759 -2.82833 3.09208e-06 
0.0350571 -2.82832 -1.89211e-06 
0.304381 -2.82834 -2.39566e-06 
0.530269 -2.82836 -2.07897e-06 
0.72105 -2.82839 -1.96685e-06 
0.92168 -2.8284 -9.91391e-07 
1.11598 -2.82841 -4.18684e-07 
1.31218 -2.82842 -5.25406e-08 
1.50812 -2.82842 4.64387e-08 
1.71177 -2.82842 -7.8658e-08 
1.91492 -2.82843 -4.63432e-08 
2.11982 -2.82843 -9.28e-08 
2.3239 -2.82843 -9.49715e-08 
2.55827 -2.82843 -1.05286e-07 
2.76044 -2.82843 -8.09377e-08 
3.00785 -2.82842 -7.78568e-08 
3.2056 -2.82843 -8.29843e-08 
3.4023 -2.82842 -4.32748e-08 
3.62267 -2.82842 -4.52654e-08 
3.82672 -2.82842 -3.83289e-08 
4.04251 -2.82842 -2.74972e-08 
4.25403 -2.82842 -2.25658e-08 
4.46042 -2.82842 -1.9349e-08 
4.66795 -2.82842 -1.52809e-08 
4.87384 -2.82842 -1.30183e-08 
5.08075 -2.82842 -9.59076e-09 
5.29394 -2.82842 -5.31918e-09 
5.5075 -2.82842 -2.29515e-09 
5.72136 -2.82842 -2.29637e-10 
5.94108 -2.82842 5.17021e-09 
6.16728 -2.82842 1.05427e-08 
6.38391 -2.82842 9.6071e-09 
6.60702 -2.82842 1.3693e-08 
6.83306 -2.82842 2.03951e-08 
7.04518 -2.82842 1.46034e-08 
7.2976 -2.82842 4.14093e-08 
7.53568 -2.82842 4.93552e-08 
7.76069 -2.82842 3.46858e-08 
8.03013 -2.82842 6.25017e-08 
8.22471 -2.82842 1.34561e-07 
8.48526 -2.8284 3.67669e-08 
-8.48528 -2.58241 1.81605e-07 
-8.26127 -2.59159 -4.21078e-16 
-8.03455 -2.57743 -1.0161e-15 
-7.80473 -2.6182 -2.05996e-15 
-7.53033 -2.65884 -2.98567e-15 
-7.23039 -2.64757 1.48275e-15 
-6.98072 -2.53378 -1.1278e-17 
-6.79468 -2.61821 -1.11144e-16 
-6.56315 -2.56489 -2.36186e-16 
-6.35638 -2.56348 -1.78058e-16 
-6.12404 -2.60034 -1.35229e-16 
-5.9025 -2.5872 7.28035e-18 
-5.68936 -2.58019 7.62931e-18 
-5.45941 -2.6098 2.61854e-17 
-5.2329 -2.59531 1.87548e-16 
-5.01187 -2.59758 1.52311e-16 
-4.78982 -2.6009 2.10658e-16 
-4.56915 -2.60001 2.92445e-16 
-4.35197 -2.5964 3.7814e-16 
-4.13915 -2.59382 4.74207e-16 
-3.92632 -2.59561 5.66576e-16 
-3.71268 -2.59303 7.19981e-16 
-3.49964 -2.5936 8.66447e-16 
-3.28524 -2.59606 1.04013e-15 
-3.0682 -2.59521 1.2361e-15 
-2.85201 -2.59011 1.40964e-15 
-2.63787 -2.58751 1.57624e-15 
-2.42455 -2.59485 1.526e-15 
-2.20411 -2.61574 1.22525e-15 
-1.96816 -2.56866 1.27058e-15 
-1.74647 -2.59711 1.06967e-15 
-1.53004 -2.57903 -7.10863e-17 
-1.33503 -2.56085 5.62865e-16 
-1.15581 -2.54277 8.1723e-16 
-0.936157 -2.60633 4.09345e-15 
-0.815452 -2.40314 -1.74743e-14 
-0.688654 -2.62076 1.16905e-14 
-0.476994 -2.57052 -3.31519e-15 
-0.276215 -2.66479 -2.07926e-14 
-0.0104657 -2.57599 -1.23989e-14 
0.224213 -2.62051 -1.23286e-14 
0.471766 -2.58868 -9.88115e-15 
0.694636 -2.54562 6.82992e-15 
0.884491 -2.5601 -1.11881e-15 
1.0794 -2.55192 1.41921e-16 
1.2731 -2.56921 4.98481e-16 
1.47499 -2.56933 -1.15976e-16 
1.68059 -2.59379 3.21232e-16 
1.90018 -2.58797 -1.3548e-15 
2.11201 -2.59098 -1.01882e-15 
2.35315 -2.62266 -1.6559e-15 
2.56303 -2.58604 -1.69756e-15 
2.80346 -2.63031 -7.02649e-16 
3.01108 -2.58035 -1.55507e-15 
3.21429 -2.5754 -1.16667e-15 
3.43359 -2.60294 -7.1517e-16 
3.64743 -2.5903 -8.66024e-16 
3.86445 -2.60267 -5.86958e-16 
4.07883 -2.59786 -4.52914e-16 
4.29004 -2.59324 -3.81197e-16 
4.50023 -2.59383 -2.89191e-16 
4.70942 -2.59126 -2.22447e-16 
4.91912 -2.59157 -1.89843e-16 
5.13413 -2.59738 -1.43587e-16 
5.35033 -2.59591 -9.29675e-17 
5.56671 -2.59394 -6.91373e-17 
5.78713 -2.59792 -5.55736e-17 
6.01368 -2.60193 2.79904e-17 
6.23554 -2.58898 1.05204e-16 
6.45844 -2.59442 1.13463e-16 
6.68517 -2.5933 2.26152e-16 
6.90165 -2.576 2.90093e-16 
7.13683 -2.61314 2.21481e-16 
7.38295 -2.60146 8.19009e-16 
7.60995 -2.58659 8.16727e-16 
7.86001 -2.6249 1.15588e-15 
8.06745 -2.54768 1.08274e-15 
8.29461 -2.61632 -4.90603e-18 
8.48528 -2.53905 -1.80532e-07 
-8.48526 -2.33494 6.13389e-08 
-8.26849 -2.35044 -3.57857e-17 
-8.03073 -2.34626 4.15525e-16 
-7.77985 -2.39958 -4.05752e-16 
-7.54261 -2.25857 5.85413e-16 
-7.52379 -2.47002 -3.39993e-16 
-7.25045 -2.4436 -2.91552e-16 
-6.98795 -2.32798 4.40786e-16 
-6.72572 -2.37101 1.85965e-16 
-6.49234 -2.31793 2.44898e-16 
-6.25748 -2.35925 6.25412e-17 
-6.04099 -2.35945 6.91261e-17 
-5.82663 -2.34026 4.62388e-17 
-5.59536 -2.36757 -1.22478e-17 
-5.37703 -2.37886 -5.11876e-17 
-5.15147 -2.36722 -1.18615e-16 
-4.92992 -2.37315 -1.60405e-16 
-4.70954 -2.37579 -2.17599e-16 
-4.49121 -2.37222 -2.90956e-16 
-4.27697 -2.36397 -3.91665e-16 
-4.06322 -2.36354 -4.92115e-16 
-3.84949 -2.36487 -6.0114e-16 
-3.63305 -2.36228 -7.35194e-16 
-3.41665 -2.36371 -8.48169e-16 
-3.19925 -2.3674 -9.53049e-16 
-2.98193 -2.36242 -1.18968e-15 
-2.76365 -2.355 -1.41984e-15 
-2.54486 -2.35426 -1.53902e-15 
-2.32377 -2.37336 -1.31376e-15 
-2.11003 -2.38272 -5.94712e-16 
-1.85703 -2.35194 -1.08838e-15 
-1.63976 -2.35669 -1.34954e-15 
-1.42781 -2.30532 -1.88611e-15 
-1.24195 -2.25722 -2.57971e-15 
-1.03493 -2.34207 -2.57906e-15 
-0.822227 -2.16324 -8.52369e-15 
-0.600683 -2.3501 -2.95872e-14 
-0.382483 -2.31163 1.68647e-14 
-0.216409 -2.43623 4.717e-16 
0.00613261 -2.32991 4.93618e-14 
0.218584 -2.39491 -3.81707e-15 
0.449516 -2.35799 8.72085e-15 
0.661246 -2.30244 -2.30561e-15 
0.871282 -2.26773 5.70328e-15 
1.05556 -2.28089 9.8629e-16 
1.24961 -2.29368 3.88113e-16 
1.44014 -2.31551 -1.8198e-16 
1.64742 -2.3406 5.44424e-16 
1.85461 -2.36236 1.43312e-15 
2.08068 -2.35557 7.62797e-16 
2.29614 -2.40948 6.69602e-16 
2.50994 -2.3592 1.49435e-15 
2.74436 -2.40738 5.89185e-16 
2.9386 -2.34366 1.81285e-15 
3.15196 -2.32977 1.29188e-15 
3.3648 -2.3662 6.89044e-16 
3.57799 -2.36393 8.1058e-16 
3.80149 -2.37194 5.93131e-16 
4.01537 -2.37003 4.67511e-16 
4.23001 -2.36331 4.17677e-16 
4.4446 -2.36096 3.41534e-16 
4.6563 -2.35786 2.74373e-16 
4.86882 -2.35665 2.08649e-16 
5.08213 -2.36599 1.29917e-16 
5.29833 -2.3654 8.22697e-17 
5.51543 -2.3621 4.39431e-17 
5.73501 -2.36672 -1.19802e-17 
5.95786 -2.37456 -5.49975e-17 
6.18097 -2.35881 -1.04397e-16 
6.40766 -2.35783 -1.50759e-16 
6.63035 -2.36004 -1.90135e-16 
6.85174 -2.33207 -3.70036e-16 
7.07831 -2.37369 -2.47685e-16 
7.30782 -2.38577 -2.56019e-16 
7.5452 -2.34853 -2.91738e-16 
7.78102 -2.3924 3.4122e-16 
8.00021 -2.32105 -6.06202e-16 
8.24818 -2.35672 3.33979e-16 
8.48527 -2.3101 -4.55336e-08 
-8.48527 -2.0791 1.44232e-07 
-8.26209 -2.09465 1.3741e-15 
-8.05438 -2.10925 9.893e-16 
-7.80815 -2.1777 5.1617e-16 
-7.56027 -2.05332 6.04322e-16 
-7.28147 -2.24677 8.02415e-16 
-7.09129 -2.11128 6.31046e-16 
-6.83081 -2.14405 4.82454e-16 
-6.60946 -2.1236 3.35469e-16 
-6.34382 -2.1218 2.17307e-16 
-6.12711 -2.12105 1.32872e-16 
-5.91594 -2.10483 6.50964e-17 
-5.68882 -2.13305 -1.42753e-18 
-5.47027 -2.13907 -8.08115e-17 
-5.25949 -2.14592 -1.4377e-16 
-5.03814 -2.14174 -2.08395e-16 
-4.82356 -2.14745 -2.99514e-16 
-4.61016 -2.14765 -3.8605e-16 
-4.39956 -2.13819 -4.6096e-16 
-4.18757 -2.13259 -5.67212e-16 
-3.97674 -2.13315 -7.17515e-16 
-3.76417 -2.13547 -8.96659e-16 
-3.54891 -2.1328 -1.06585e-15 
-3.33368 -2.13507 -1.28619e-15 
-3.12085 -2.13419 -1.53732e-15 
-2.90368 -2.12905 -1.76075e-15 
-2.68239 -2.12367 -1.93403e-15 
-2.45716 -2.13135 -2.0711e-15 
-2.24328 -2.13621 -2.13499e-15 
-2.02431 -2.16768 -2.18772e-15 
-1.78897 -2.11962 -1.45553e-15 
-1.58457 -2.10262 -1.3942e-15 
-1.40047 -2.01218 1.70143e-16 
-1.19938 -1.98475 1.00628e-16 
-1.02334 -2.09081 -6.99664e-15 
-0.817525 -1.90549 -1.06871e-14 
-0.61624 -2.10495 -1.0901e-14 
-0.390406 -2.0811 -1.5619e-14 
-0.153553 -2.16759 -5.46006e-14 
0.118489 -2.11681 7.17682e-15 
0.330667 -2.15891 1.85216e-14 
0.358241 -1.92081 8.83809e-14 
0.554957 -2.08646 2.88508e-14 
0.777979 -2.03744 2.02689e-14 
0.985847 -1.98463 5.2918e-15 
1.1822 -2.03049 5.96104e-15 
1.38605 -2.0383 2.34004e-15 
1.58989 -2.09568 1.77293e-15 
1.81203 -2.11809 1.85201e-15 
2.03201 -2.1425 2.09563e-15 
2.28222 -2.17739 2.30231e-15 
2.53233 -2.15339 2.44909e-15 
2.72818 -2.14975 1.92038e-15 
2.94822 -2.10731 1.59337e-15 
3.17748 -2.10715 1.38532e-15 
3.39887 -2.13338 1.17798e-15 
3.62627 -2.14522 1.12238e-15 
3.84136 -2.14097 8.43968e-16 
4.05522 -2.13924 6.61402e-16 
4.27108 -2.13448 5.31975e-16 
4.48339 -2.12864 4.08277e-16 
4.69645 -2.1265 3.2605e-16 
4.91004 -2.12641 2.42367e-16 
5.12363 -2.13639 1.73965e-16 
5.33852 -2.13356 1.0979e-16 
5.55718 -2.13316 5.59578e-17 
5.77782 -2.13947 -1.69482e-17 
5.99552 -2.14096 -9.53145e-17 
6.22223 -2.12963 -1.61187e-16 
6.44421 -2.12227 -2.44952e-16 
6.66105 -2.11718 -3.46891e-16 
6.89536 -2.10341 -4.63968e-16 
7.11924 -2.14359 -6.24311e-16 
7.34695 -2.15242 -7.69005e-16 
7.55584 -2.08844 -5.7197e-16 
7.76003 -2.15538 -3.66878e-16 
7.98209 -2.08447 -6.82473e-16 
8.21423 -2.13434 -1.01617e-15 
8.48527 -2.10987 -8.90845e-08 
-8.48529 -1.79406 9.93434e-08 
-8.29603 -1.84698 7.86792e-16 
-7.88439 -1.92913 3.06386e-17 
[...]
POINT_DATA 1978 
VECTORS vectors float
0.0162416 -0.0160606 0.999756 
0.017769 -0.0236636 0.999585 
0.0172024 -0.0403609 0.999035 
0.0165991 -0.0374221 0.999158 
0.0168617 -0.0271676 0.999498 
0.0169926 -0.0187043 0.999681 
0.0164308 -0.0142484 0.99977 
0.0163025 -0.0106141 0.999819 
0.0189212 -0.00735026 0.999812 
0.0180642 -0.00429997 0.999837 
0.0171641 -0.00266565 0.99986 
0.0168502 -0.000949242 0.999868 
0.0171981 0.000819223 0.999861 
0.0165243 0.00239167 0.999868 
0.0164845 0.003675 0.999865 
0.0169443 0.00526162 0.999851 
0.0167332 0.00733844 0.999842 
0.0166492 0.00967948 0.999823 
0.0167185 0.012652 0.999789 
0.0167277 0.0163801 0.999735 
0.0165327 0.0210284 0.999651 
0.0162871 0.0268173 0.999516 
0.0159968 0.0339254 0.999304 
0.0154748 0.0427334 0.998974 
0.0149392 0.0538605 0.998443 
0.0144682 0.0677435 0.997603 
0.0138568 0.0847455 0.996311 
0.0128288 0.106198 0.994266 
0.0112258 0.13397 0.990924 
0.00896959 0.173951 0.984715 
0.00774943 0.219035 0.975688 
0.00590687 0.270519 0.962698 
0.0032441 0.343288 0.939229 
0.000159392 0.423788 0.905766 
-0.00292622 0.513739 0.857944 
-0.00562939 0.609565 0.792717 
-0.00682127 0.738073 0.674685 
-0.00623329 0.866233 0.499589 
-0.00441994 0.980912 0.194379 
0.000609555 0.999469 -0.0324271 
0.00499959 0.948425 -0.316954 
0.00753609 0.853497 -0.52104 
0.00727563 0.756122 -0.65439 
0.00596999 0.645731 -0.763543 
0.00376684 0.540522 -0.841324 
0.00102291 0.444 -0.896029 
-0.00253446 0.361674 -0.932306 
-0.00580685 0.293053 -0.956084 
-0.00757227 0.23466 -0.972053 
-0.00898475 0.186159 -0.982478 
-0.0100666 0.149072 -0.988773 
-0.0119726 0.113644 -0.99345 
-0.0125752 0.0901175 -0.995852 
-0.0142649 0.0690413 -0.997516 
-0.0156603 0.0554489 -0.998346 
-0.0149399 0.0441633 -0.998918 
-0.0156518 0.0347578 -0.999279 
-0.0160235 0.0273206 -0.999505 
-0.0161261 0.0211559 -0.999654 
-0.0165528 0.016547 -0.999734 
-0.016828 0.0127309 -0.999787 
-0.0170091 0.00973573 -0.999818 
-0.0171397 0.00732704 -0.999836 
-0.016964 0.00535012 -0.999851 
-0.0168621 0.00377239 -0.99986 
-0.0168899 0.00234832 -0.999863 
-0.0167389 0.00083406 -0.999867 
-0.0163812 -0.000783211 -0.999872 
-0.0164435 -0.0028416 -0.999867 
-0.0164299 -0.00532405 -0.999857 
-0.0160721 -0.00815844 -0.999844 
-0.0164585 -0.0119105 -0.9998 
-0.0155806 -0.0164862 -0.999744 
-0.015065 -0.0221432 -0.999641 
-0.0156072 -0.0292737 -0.999449 
-0.014475 -0.0368669 -0.999213 
-0.0171511 -0.0405158 -0.999032 
-0.0174707 -0.0263239 -0.99952 
-0.0170541 -0.0167359 -0.999732 
0.00501211 -0.024434 0.99969 
0.00798254 -0.0243035 0.99968 
0.0114234 -0.0321502 0.999434 
0.013684 -0.0351029 0.999299 
0.0136536 -0.0294432 0.999484 
0.0151534 -0.0213727 0.999666 
0.0168827 -0.0151859 0.999756 
0.0166092 -0.0114316 0.999803 
0.0165052 -0.00799602 0.999848 
0.0176758 -0.00523765 0.99984 
0.0167019 -0.00289112 0.999867 
0.0172489 -0.00082403 0.99986 
0.0174465 0.000958744 0.999858 
0.0172372 0.00267918 0.999856 
0.0172944 0.00433604 0.999851 
0.0173868 0.00621542 0.999839 
0.0173172 0.00848792 0.999823 
0.0172166 0.0113129 0.999797 
0.01709 0.0148508 0.999753 
0.016889 0.019197 0.999683 
0.016638 0.0246387 0.999568 
0.0163055 0.0315155 0.99938 
0.0158474 0.0401055 0.999079 
0.0152791 0.0509264 0.998595 
0.0147 0.0647466 0.997803 
0.0141207 0.0821995 0.996525 
0.0133567 0.10418 0.994478 
0.0123854 0.132053 0.991174 
0.0110373 0.168973 0.985567 
0.0107452 0.221114 0.975197 
0.0092589 0.280975 0.959678 
0.00931459 0.35492 0.934858 
0.0088865 0.435857 0.899978 
0.00877309 0.52489 0.851129 
0.00588231 0.64264 0.766147 
0.0142337 0.704296 0.709766 
0.00440768 0.778442 0.627699 
0.00530965 0.883599 0.4682 
0.000414871 0.958601 0.284715 
-0.000143123 0.999975 0.00424097 
-0.00163584 0.971221 -0.238129 
-0.00495295 0.882632 -0.470029 
-0.00809246 0.771894 -0.635697 
-0.00805488 0.668815 -0.743387 
-0.00883834 0.562624 -0.82667 
-0.00857479 0.464908 -0.885323 
-0.00901573 0.376624 -0.926329 
-0.00967165 0.302054 -0.953249 
-0.0102659 0.239981 -0.970732 
-0.0112382 0.189454 -0.981834 
-0.0115329 0.14561 -0.989283 
-0.0130608 0.114021 -0.993401 
-0.0138034 0.0868552 -0.996131 
-0.0145674 0.0690776 -0.997517 
-0.0153117 0.0552697 -0.998365 
-0.0157649 0.0433427 -0.998944 
-0.0160688 0.0342654 -0.999294 
-0.0164161 0.0265757 -0.999521 
-0.0168107 0.0206758 -0.999654 
-0.0171335 0.0160799 -0.999734 
-0.0173622 0.0123644 -0.999783 
-0.0175472 0.00942693 -0.999812 
-0.0175879 0.00706799 -0.999831 
-0.0175723 0.00509784 -0.999842 
-0.0175352 0.00342077 -0.99985 
-0.0174958 0.001856 -0.999855 
-0.0173344 0.000243144 -0.999859 
-0.0171592 -0.00162313 -0.999861 
-0.0170987 -0.00387328 -0.999856 
-0.016865 -0.00651435 -0.999846 
-0.0166235 -0.00975315 -0.999824 
-0.0162781 -0.0136119 -0.999786 
-0.0158029 -0.0186369 -0.99971 
-0.015183 -0.0249397 -0.999583 
-0.0147772 -0.0316385 -0.9994 
-0.0135963 -0.0360789 -0.999264 
-0.0105426 -0.0296464 -0.999527 
-0.00889078 -0.0236694 -0.999685 
-0.0058041 -0.0240598 -0.999695 
0.0102935 -0.0235276 0.999676 
0.00934125 -0.0209904 0.99975 
0.0164484 -0.0295838 0.99945 
0.0193927 -0.0347627 0.999223 
0.0251438 -0.0308157 0.999218 
0.0177473 -0.0289751 0.999438 
0.0190703 -0.0215162 0.999602 
0.0253188 -0.0159255 0.999565 
0.0240373 -0.0109457 0.999666 
0.0269121 -0.00746105 0.999622 
0.0255859 -0.00462616 0.999675 
0.0262704 -0.002304 0.999666 
0.0274101 -0.00033453 0.999636 
0.0264102 0.00155179 0.999663 
0.0262058 0.00323531 0.999665 
0.0271742 0.00509582 0.999631 
0.0268285 0.00713942 0.999628 
0.0266562 0.0096165 0.999611 
0.0266633 0.0127621 0.999575 
0.0267105 0.0166349 0.999517 
0.0263087 0.0213959 0.999437 
0.025767 0.0273705 0.999305 
0.0252142 0.0350281 0.99908 
0.0243826 0.044625 0.998718 
0.0234018 0.0567318 0.998127 
0.0227212 0.0720384 0.997154 
0.0219407 0.0915686 0.995567 
0.0207986 0.116726 0.992956 
0.018903 0.149397 0.988606 
0.0172819 0.190276 0.981588 
0.0173643 0.24835 0.968523 
0.0166501 0.312955 0.949629 
0.0181186 0.395277 0.91839 
0.0193068 0.47595 0.879267 
0.0168346 0.581102 0.81366 
0.0247693 0.691386 0.722061 
0.0141944 0.818875 0.573791 
0.0115788 0.916465 0.399924 
0.00445848 0.974719 0.22334 
-0.000865438 0.999936 -0.00978487 
-0.00671686 0.968551 -0.248672 
-0.0126881 0.886478 -0.462583 
-0.0178734 0.780844 -0.62447 
-0.0199675 0.669585 -0.742469 
-0.0195948 0.572214 -0.819874 
-0.0188033 0.476788 -0.878823 
-0.0179401 0.39352 -0.919147 
-0.0175797 0.317367 -0.948147 
-0.0178199 0.253545 -0.967167 
-0.0181954 0.198652 -0.97991 
-0.0176492 0.156319 -0.987558 
-0.0202395 0.122516 -0.99227 
-0.0199808 0.0935818 -0.995423 
-0.0234621 0.0755375 -0.996876 
-0.0246048 0.0599873 -0.997907 
-0.0237825 0.0476159 -0.998593 
-0.0250449 0.037521 -0.998994 
-0.0253085 0.0290046 -0.999271 
-0.025828 0.0226783 -0.999421 
-0.0266566 0.0176348 -0.999501 
-0.0271314 0.0135866 -0.999551 
-0.0275039 0.010394 -0.99958 
-0.0277276 0.00782363 -0.999597 
-0.0273675 0.00570758 -0.999622 
-0.0273512 0.00385321 -0.999631 
-0.0273658 0.00213588 -0.999636 
-0.0268821 0.000458624 -0.999652 
-0.0261736 -0.00138988 -0.99967 
-0.0264643 -0.00362268 -0.999656 
-0.0260723 -0.00625871 -0.999653 
-0.0253822 -0.00933812 -0.999647 
-0.0259695 -0.0131213 -0.99959 
-0.0236843 -0.0176893 -0.999575 
-0.0224882 -0.0233305 -0.999489 
-0.0226988 -0.0302548 -0.999298 
-0.0196753 -0.0349803 -0.999209 
-0.0182351 -0.0305761 -0.999387 
-0.010054 -0.0214289 -0.999734 
-0.00964265 -0.0237918 -0.999675 
0.00972296 -0.0230049 0.999717 
0.0110018 -0.0193704 0.999761 
0.0185227 -0.0271065 0.999483 
0.024533 -0.0353127 0.999086 
0.026748 -0.0316655 0.999148 
0.0265718 -0.0231591 0.99939 
0.0288267 -0.0187722 0.999416 
0.0294906 -0.0132462 0.999485 
0.0300266 -0.00948405 0.999512 
0.0305044 -0.00582975 0.999525 
0.0308769 -0.00340611 0.999525 
0.0310758 -0.00133399 0.999523 
0.031366 0.000670327 0.999515 
0.0316252 0.00243984 0.999504 
0.0317615 0.00421724 0.999494 
0.0317617 0.00625764 0.999483 
0.0316366 0.00848561 0.99947 
0.0314105 0.0112607 0.99945 
0.0310507 0.0146979 0.999417 
0.03061 0.0189034 0.99936 
0.0301303 0.0240387 0.999264 
0.0295785 0.0305649 0.999102 
0.0288836 0.0389145 0.998832 
0.0281416 0.0493539 0.998392 
0.0273762 0.0622477 0.997692 
0.0265272 0.0787686 0.996547 
0.0256115 0.100267 0.994638 
0.0246896 0.128244 0.991443 
0.0238347 0.162432 0.986439 
0.022973 0.205964 0.978297 
0.0234637 0.264734 0.964043 
0.024047 0.332305 0.942871 
0.0287011 0.400543 0.915836 
0.031351 0.486565 0.873086 
0.0286675 0.582793 0.812119 
0.0423126 0.679731 0.73224 
0.0270365 0.795236 0.605692 
0.0222224 0.904438 0.426008 
0.00796683 0.981412 0.191683 
-0.00702791 0.992752 -0.119871 
-0.0166728 0.939198 -0.342949 
-0.0317105 0.915331 -0.401431 
-0.0274031 0.831592 -0.554702 
-0.0341251 0.707111 -0.70628 
-0.0351634 0.594364 -0.80343 
-0.0311373 0.497735 -0.866776 
-0.0280874 0.408137 -0.912495 
-0.0249812 0.331694 -0.943063 
-0.0237815 0.262251 -0.964714 
-0.0233524 0.205667 -0.978351 
-0.0235724 0.156912 -0.98734 
-0.0250895 0.118207 -0.992679 
-0.0257819 0.0952846 -0.995124 
-0.0267717 0.0752123 -0.996815 
-0.0275787 0.0585367 -0.99791 
-0.0281492 0.0459859 -0.998554 
-0.0292951 0.035621 -0.998943 
-0.0298049 0.0280221 -0.99917 
-0.030265 0.0220339 -0.999306 
-0.0307568 0.0171754 -0.999386 
-0.0310441 0.0133176 -0.999436 
-0.0313545 0.0101772 -0.999463 
-0.0315822 0.00761461 -0.999479 
-0.03178 0.00548352 -0.999487 
-0.0318215 0.00356999 -0.999494 
-0.0317685 0.00171758 -0.999501 
-0.031602 -0.000101565 -0.999508 
-0.0312532 -0.0020478 -0.999517 
-0.0308984 -0.00444329 -0.99952 
-0.0304544 -0.00716805 -0.999518 
-0.0298735 -0.0102819 -0.999508 
-0.0294475 -0.0145149 -0.999467 
-0.0285426 -0.0191955 -0.999417 
-0.0278446 -0.0252226 -0.999301 
-0.0268352 -0.0315343 -0.99915 
-0.0252281 -0.0354335 -0.999062 
-0.0217331 -0.0318725 -0.99927 
-0.013593 -0.0206032 -0.999713 
-0.00882129 -0.0233267 -0.999689 
0.00738767 -0.0218537 0.999763 
0.00890466 -0.0189878 0.999785 
0.0215534 -0.0351218 0.999161 
0.0232112 -0.0352952 0.999115 
0.0220482 -0.0291283 0.999341 
0.0271112 -0.025427 0.999315 
0.0244102 -0.0212731 0.999483 
0.0264026 -0.0157532 0.999534 
0.0264986 -0.0113449 0.999591 
0.0278618 -0.00781211 0.999588 
0.0267822 -0.00497586 0.999636 
0.0268542 -0.00274343 0.999642 
0.0274255 -0.000422966 0.999631 
0.0278208 0.00149629 0.999619 
0.0278337 0.00343784 0.999613 
0.0281888 0.0054232 0.999594 
0.0279484 0.0076473 0.999587 
0.0278567 0.0102034 0.999566 
0.0273698 0.0133672 0.999543 
0.0269082 0.0172504 0.999496 
0.0264567 0.0220008 0.999414 
0.0261549 0.0279243 0.999274 
0.0257289 0.03548 0.999046 
0.0252107 0.045183 0.998667 
0.0246442 0.057078 0.998072 
0.0242552 0.0719905 0.997117 
0.0239574 0.091489 0.995525 
0.0238763 0.117218 0.992826 
0.0240871 0.149909 0.988414 
0.0247589 0.189778 0.981522 
0.0259863 0.237935 0.970941 
0.0292492 0.304743 0.951994 
0.0354372 0.367063 0.929527 
0.0440083 0.46113 0.886248 
0.0455835 0.569531 0.820709 
0.0641785 0.702236 0.709048 
0.0438558 0.805907 0.590408 
0.0569843 0.858606 0.509444 
0.0282068 0.939059 0.342567 
0.00655134 0.994934 0.100155 
-0.0171082 0.983662 -0.17912 
-0.0524042 0.901646 -0.429265 
-0.046576 0.803511 -0.593459 
-0.0550155 0.686076 -0.725446 
-0.053206 0.576189 -0.815586 
-0.0444813 0.480009 -0.87614 
-0.0379844 0.395299 -0.917773 
-0.0314206 0.323196 -0.945817 
-0.0275151 0.262393 -0.964576 
-0.0253768 0.207017 -0.978015 
-0.0245904 0.162862 -0.98635 
-0.0245435 0.126094 -0.991722 
-0.0238753 0.0984703 -0.994861 
-0.0240455 0.0803769 -0.996481 
-0.0243488 0.0624984 -0.997755 
-0.0249372 0.0484879 -0.99852 
-0.0261166 0.0385148 -0.998922 
-0.0261486 0.0301563 -0.99921 
-0.0264745 0.0237603 -0.999374 
-0.0268309 0.0186882 -0.999472 
-0.0269208 0.0145703 -0.999538 
-0.0271516 0.0111964 -0.999575 
-0.0274324 0.00843156 -0.999595 
-0.0277795 0.0061213 -0.999602 
-0.0278675 0.00411872 -0.99961 
-0.0279295 0.00214838 -0.999614 
-0.0279768 0.000214261 -0.999615 
-0.0277884 -0.00176726 -0.999619 
-0.0275401 -0.00402281 -0.999619 
-0.0268501 -0.0067436 -0.999624 
-0.0260874 -0.00981993 -0.999618 
-0.0258896 -0.0135036 -0.999581 
-0.0254825 -0.0186069 -0.999509 
-0.0252023 -0.0240901 -0.9994 
-0.0233821 -0.0314471 -0.999239 
-0.0221211 -0.0362822 -0.999105 
-0.0171996 -0.029691 -0.99943 
-0.0109012 -0.0204697 -0.999735 
-0.00777718 -0.0224754 -0.999716 
0.00563243 -0.0231277 0.99972 
0.00788155 -0.0209028 0.999757 
0.0140193 -0.0253275 0.999604 
0.0165777 -0.0361622 0.999219 
0.0180116 -0.0362002 0.999188 
0.0188514 -0.0255234 0.999503 
0.0202156 -0.0188769 0.999624 
0.0213253 -0.0142193 0.999678 
0.0218212 -0.00997505 0.999719 
0.0222407 -0.00706171 0.999735 
0.0209665 -0.00446122 0.999777 
0.0220706 -0.00200415 0.999761 
0.0220334 0.000143827 0.999764 
0.0223029 0.00212495 0.999756 
0.0223155 0.00419729 0.999749 
0.0226901 0.00625814 0.999729 
0.022397 0.00858625 0.999719 
0.0221867 0.0112806 0.999697 
0.0218199 0.0146391 0.999661 
0.0214808 0.0187051 0.999601 
0.0211796 0.023689 0.999502 
0.0210252 0.0298959 0.999339 
0.0208616 0.037935 0.999069 
0.0204843 0.0478538 0.998651 
0.0202656 0.0601977 0.997988 
0.0204581 0.0759801 0.996906 
0.0209219 0.0965137 0.995119 
0.0217397 0.122342 0.992257 
0.0231802 0.154488 0.98773 
0.0254105 0.193088 0.98086 
0.0287942 0.24612 0.968817 
0.0345408 0.291313 0.956012 
0.0442889 0.374268 0.926269 
0.0591586 0.461787 0.885022 
0.0635226 0.56798 0.820592 
0.0859877 0.613975 0.784629 
0.0889309 0.754089 0.650718 
0.0833997 0.880814 0.466035 
0.0353717 0.964622 0.261188 
0.00153742 0.999829 0.0174701 
-0.0373395 0.970691 -0.237334 
-0.0947034 0.853408 -0.512549 
-0.0730825 0.781906 -0.619091 
-0.0793214 0.649593 -0.756136 
-0.068608 0.524781 -0.848473 
-0.0547075 0.434192 -0.899164 
-0.0420309 0.347619 -0.9367 
-0.033831 0.28426 -0.958157 
-0.0281496 0.228943 -0.97304 
-0.0248656 0.181515 -0.983081 
-0.0232573 0.144974 -0.989169 
-0.0220322 0.115626 -0.993054 
-0.0201382 0.0930213 -0.995469 
-0.0206679 0.0741122 -0.997043 
-0.0205165 0.0578289 -0.998122 
-0.020377 0.0459525 -0.998742 
-0.0213395 0.0366005 -0.99911 
-0.0211295 0.0288761 -0.999366 
-0.0213174 0.0228437 -0.999518 
-0.0215662 0.0180327 -0.999611 
-0.0216267 0.0140582 -0.999674 
-0.0218102 0.0107694 -0.999711 
-0.0221292 0.00802812 -0.999729 
-0.0222033 0.00581674 -0.999743 
-0.0223497 0.00374543 -0.99975 
-0.0224681 0.00165274 -0.999753 
-0.0224226 -0.000377505 -0.999755 
-0.0221952 -0.00248204 -0.999757 
-0.0220719 -0.00491243 -0.999751 
-0.0212373 -0.00774131 -0.999751 
-0.0206125 -0.0110524 -0.999733 
-0.0208784 -0.0152735 -0.999672 
-0.0200673 -0.0204041 -0.999597 
-0.0200476 -0.0264978 -0.999454 
-0.0177542 -0.0333019 -0.999295 
-0.0179701 -0.0373263 -0.999149 
-0.0142639 -0.0331453 -0.999364 
-0.00962495 -0.0210542 -0.999745 
-0.00538685 -0.0236393 -0.999707 
0.00373586 -0.024418 0.999699 
0.00589691 -0.0210012 0.99978 
0.0113784 -0.0290917 0.999532 
0.0126832 -0.0381581 0.999201 
0.0159346 -0.0327909 0.999342 
0.014008 -0.0272864 0.999536 
0.015772 -0.0211571 0.999657 
0.0162627 -0.0157235 0.999751 
0.0173013 -0.0116313 0.99979 
0.0169477 -0.00822261 0.999829 
0.0168152 -0.00569443 0.999849 
0.0172337 -0.00280216 0.999854 
0.017498 -0.000615369 0.999853 
0.0173912 0.00156749 0.999854 
0.017605 0.00362852 0.999845 
0.0177408 0.005749 0.999833 
0.0178031 0.00790504 0.999817 
0.0174591 0.0104983 0.999799 
0.0172992 0.0135248 0.999765 
0.0170566 0.0172175 0.999713 
0.0168533 0.0216757 0.999629 
0.0166853 0.0272486 0.999496 
0.0167493 0.0342613 0.999279 
0.0166084 0.0430158 0.998943 
0.0165761 0.0539851 0.998411 
0.0169185 0.0679761 0.99755 
0.0177166 0.0856922 0.996171 
0.0189428 0.108279 0.993947 
0.0209304 0.136779 0.990388 
0.0240602 0.172506 0.984722 
0.0287751 0.218734 0.975369 
0.0388866 0.289965 0.956255 
0.0531021 0.366211 0.929022 
0.0681262 0.398999 0.914423 
0.0798912 0.492922 0.866405 
0.114824 0.59904 0.792445 
0.129258 0.731544 0.669426 
0.151501 0.826418 0.542273 
0.0685359 0.958407 0.276979 
0.00407133 0.999908 0.0110544 
-0.0745234 0.95581 -0.284318 
-0.153834 0.808706 -0.567722 
-0.109735 0.711351 -0.694214 
-0.136798 0.635966 -0.759495 
-0.0939672 0.562221 -0.821634 
-0.0721658 0.439081 -0.895551 
-0.0528942 0.359515 -0.931645 
-0.040145 0.287311 -0.957003 
-0.0313676 0.234702 -0.971568 
-0.0259841 0.189864 -0.981474 
-0.0225667 0.151857 -0.988152 
-0.0203812 0.123055 -0.992198 
-0.0180986 0.1003 -0.994798 
-0.0173281 0.07751 -0.996849 
-0.0172332 0.0621098 -0.997926 
-0.0165541 0.0487807 -0.998679 
-0.0168491 0.0381789 -0.999136 
-0.0169551 0.0305287 -0.999397 
-0.0169024 0.0239739 -0.999576 
-0.0170019 0.0189303 -0.999683 
-0.0171135 0.014915 -0.999749 
-0.0172468 0.0114947 -0.999792 
-0.0175243 0.00864539 -0.999816 
-0.0174872 0.00627466 -0.999834 
-0.0176518 0.00414851 -0.999842 
-0.0177849 0.00197182 -0.999846 
-0.0177086 -0.000208541 -0.99985 
-0.0175183 -0.00236424 -0.99985 
-0.0174051 -0.00480413 -0.999844 
-0.0167779 -0.00761798 -0.999837 
-0.0161812 -0.0109441 -0.999816 
-0.0164193 -0.0149937 -0.99976 
-0.0156231 -0.0200176 -0.999686 
-0.015441 -0.0263041 -0.999542 
-0.0137413 -0.0336561 -0.999346 
-0.0130949 -0.0380879 -0.999197 
-0.0101386 -0.031463 -0.999471 
-0.00688656 -0.0211761 -0.99976 
-0.00433771 -0.0231022 -0.999721 
0.00341667 -0.024113 0.999703 
0.00467687 -0.0234105 0.999721 
0.00919816 -0.0336928 0.999406 
0.0089246 -0.0391233 0.999202 
0.0120575 -0.0359783 0.999287 
0.0111205 -0.0278468 0.999557 
0.0122816 -0.0201682 0.999729 
0.0125509 -0.0152063 0.999812 
0.0134182 -0.0112422 0.999853 
0.0126445 -0.00830775 0.999893 
0.0136381 -0.00510653 0.9999 
0.0134199 -0.00254356 0.999914 
0.013783 -0.000265988 0.99991 
0.0135329 0.0019587 0.999914 
0.0138578 0.00413734 0.999902 
0.0138589 0.00625386 0.999891 
0.0139498 0.00854993 0.999872 
0.0136097 0.0112491 0.999851 
0.0135697 0.0144569 0.99981 
0.0134076 0.0182986 0.999749 
0.0132811 0.0230349 0.999653 
0.0132051 0.0290548 0.999497 
0.0132735 0.0364421 0.999254 
0.0133295 0.0458516 0.998866 
0.0136466 0.0578764 0.998237 
0.0143655 0.0730831 0.997229 
0.0156859 0.0923163 0.995613 
0.0177342 0.116966 0.992985 
0.0208671 0.14764 0.988828 
0.0261938 0.188722 0.981688 
0.0334584 0.237258 0.970878 
0.0453857 0.296036 0.954106 
0.0598861 0.336233 0.93988 
0.0847387 0.400188 0.912513 
0.101064 0.481638 0.870529 
0.151858 0.578801 0.801207 
0.195936 0.664796 0.720868 
0.239595 0.801691 0.547631 
0.139048 0.940086 0.311315 
0.00546756 0.999906 0.0129957 
-0.1422 0.939004 -0.313187 
-0.241241 0.80587 -0.540735 
-0.188919 0.657809 -0.729104 
-0.132277 0.516199 -0.846198 
-0.0998584 0.489607 -0.86621 
-0.0855815 0.402707 -0.911327 
-0.0657721 0.366342 -0.928159 
-0.0478404 0.299443 -0.952921 
-0.0340625 0.23486 -0.971439 
-0.0268695 0.191216 -0.981187 
-0.0222009 0.155168 -0.987646 
-0.0187522 0.124327 -0.992072 
-0.0157449 0.094047 -0.99545 
-0.0146178 0.0749239 -0.997088 
-0.0140627 0.0590822 -0.998162 
-0.0134998 0.0459738 -0.998858 
-0.0133393 0.0367214 -0.999243 
-0.0135567 0.0290844 -0.999492 
-0.0134047 0.0229918 -0.999652 
-0.0133786 0.0182983 -0.99975 
-0.013528 0.0144406 -0.999811 
-0.0136386 0.0111292 -0.999853 
-0.0138945 0.0083577 -0.999875 
-0.0137766 0.00598353 -0.999894 
-0.0139391 0.00384197 -0.999902 
-0.0139888 0.00162007 -0.999907 
-0.0138372 -0.000639362 -0.999911 
-0.0137079 -0.00292543 -0.999908 
-0.0134543 -0.0054221 -0.999901 
-0.012966 -0.00845993 -0.999887 
-0.0125704 -0.0120645 -0.999855 
-0.0125637 -0.0161361 -0.999797 
-0.0117236 -0.0211022 -0.999715 
-0.011804 -0.0268619 -0.999576 
-0.0103772 -0.0340782 -0.999372 
-0.00993967 -0.0389017 -0.999201 
-0.00770669 -0.0327356 -0.999452 
-0.00509364 -0.0214793 -0.999763 
-0.00343879 -0.0232703 -0.999723 
0.0022554 -0.0252494 0.999694 
0.00363557 -0.02308 0.999741 
0.00652615 -0.0337678 0.999426 
0.00657772 -0.0395386 0.999204 
0.00914431 -0.0343028 0.999377 
0.00793901 -0.0282964 0.999575 
0.00946298 -0.022415 0.99971 
0.00937278 -0.0167222 0.999823 
0.00994889 -0.0123533 0.999882 
0.00974552 -0.00873668 0.999921 