# vtk DataFile Version 3.0 
Exported using Morpho https://github.com/Morpho-lang/morpho 
ASCII 
DATASET UNSTRUCTURED_GRID 

POINTS 1978 float 
-11.9975 -3.99683 -2.97421e-06 
-11.6268 -3.99784 -9.63486e-05 
-11.3341 -3.99685 -6.64031e-05 
-10.9795 -3.99727 -5.59845e-05 
-10.6674 -3.99719 -3.66659e-05 
-10.3364 -3.99714 -3.03381e-05 
-10.0097 -3.99704 -2.0338e-05 
-9.67223 -3.9968 -2.05988e-05 
-9.32454 -3.99682 -1.12933e-05 
-9.0012 -3.99712 -1.07407e-05 
-8.6923 -3.99698 -9.53906e-06 
-8.37763 -3.99706 -5.77075e-06 
-8.07037 -3.9971 -3.54928e-07 
-7.76078 -3.99701 -6.14841e-06 
-7.4667 -3.99705 -2.06523e-06 
-7.18441 -3.99728 -4.66248e-06 
-6.90247 -3.99718 -2.89365e-06 
-6.58746 -3.99707 -2.43693e-06 
-6.28458 -3.99709 -4.51852e-06 
-5.97857 -3.99708 -5.47726e-06 
-5.66577 -3.99718 -2.61074e-06 
-5.36839 -3.9973 -1.90924e-06 
-5.08206 -3.99733 -4.5005e-08 
-4.78605 -3.99738 3.74082e-06 
-4.47922 -3.99747 1.03612e-05 
-4.18052 -3.99727 1.72677e-05 
-3.88752 -3.99798 2.2967e-05 
-3.59372 -3.99745 4.0376e-05 
-3.27919 -3.99766 5.45594e-05 
-3.00132 -3.99864 7.43412e-05 
-2.66326 -3.99772 8.51368e-05 
-2.43337 -3.99892 0.000122718 
-2.1575 -3.99922 0.00014109 
-1.84312 -3.99894 0.000117213 
-1.52918 -3.99885 0.000107929 
-1.24479 -3.99852 8.08255e-06 
-0.887155 -3.99624 2.54529e-06 
-0.567628 -3.99522 0.000180705 
-0.274951 -3.99479 -0.000178112 
0.018864 -3.99216 -9.20127e-05 
0.331314 -3.99407 -5.64111e-06 
0.602138 -3.99522 8.35712e-05 
0.882522 -3.99697 5.01249e-06 
1.18191 -3.99871 -1.19578e-05 
1.47617 -3.99884 -0.00011777 
1.80329 -3.99888 -0.000128172 
2.07767 -3.99883 -0.000160204 
2.36365 -3.99877 -0.000144296 
2.72176 -3.99825 -0.000112325 
3.00112 -3.99797 -7.30935e-05 
3.3028 -3.99773 -5.0573e-05 
3.60201 -3.99762 -3.4009e-05 
3.89871 -3.99761 -2.28724e-05 
4.20662 -3.99753 -1.50519e-05 
4.50381 -3.99746 -9.2129e-06 
4.79372 -3.99744 -5.9414e-06 
5.09097 -3.99736 -3.30806e-07 
5.38756 -3.99726 -1.02108e-07 
5.68578 -3.99719 1.91912e-06 
5.97916 -3.99716 3.77402e-06 
6.28582 -3.99713 5.68014e-06 
6.56277 -3.99725 5.55147e-08 
6.87814 -3.99704 6.3241e-06 
7.16865 -3.99723 2.94278e-06 
7.4716 -3.99726 6.18743e-06 
7.76904 -3.9971 6.38994e-06 
8.06827 -3.99711 5.17711e-07 
8.36476 -3.99709 6.64092e-06 
8.66879 -3.99713 4.30036e-06 
8.9482 -3.99705 1.11041e-05 
9.28902 -3.99706 1.09251e-05 
9.615 -3.99698 1.94847e-05 
9.9158 -3.99712 1.89173e-05 
10.291 -3.99702 3.04718e-05 
10.6139 -3.99704 2.70449e-05 
10.9982 -3.99704 5.51833e-05 
11.3158 -3.99717 6.25494e-05 
11.6011 -3.99769 9.63014e-05 
11.9976 -3.9968 6.01973e-06 
-11.998 -3.62933 9.49499e-05 
-11.6968 -3.6928 -1.5606e-13 
-11.3597 -3.61174 1.58027e-13 
-11.0582 -3.68127 -2.00774e-15 
-10.7165 -3.64276 6.78357e-14 
-10.4011 -3.66554 1.65665e-13 
-10.0691 -3.66395 7.09626e-14 
-9.7399 -3.67647 1.09256e-13 
-9.39872 -3.68849 1.35524e-13 
-9.05621 -3.66913 9.05387e-14 
-8.73793 -3.65703 4.20787e-14 
-8.42736 -3.66673 3.4986e-14 
-8.11352 -3.66171 1.53871e-14 
-7.8045 -3.66531 1.15647e-14 
-7.49499 -3.64819 7.68845e-14 
-7.19974 -3.63734 1.13892e-13 
-6.88365 -3.67504 1.0946e-13 
-6.57862 -3.6618 8.83353e-14 
-6.27094 -3.66641 1.01162e-13 
-5.95662 -3.67595 1.33313e-13 
-5.65455 -3.66324 1.6625e-13 
-5.36293 -3.65467 1.93831e-13 
-5.06302 -3.66826 2.02407e-13 
-4.75233 -3.68129 1.87519e-13 
-4.4492 -3.67309 2.61557e-13 
-4.13277 -3.68591 3.44978e-13 
-3.81637 -3.66737 3.22283e-13 
-3.5011 -3.68601 3.54952e-13 
-3.20822 -3.64776 2.40379e-13 
-2.9078 -3.70853 1.81008e-13 
-2.67927 -3.56747 4.14375e-13 
-2.41245 -3.6414 2.73536e-13 
-2.11625 -3.68748 -4.17866e-14 
-1.8148 -3.66775 1.38934e-13 
-1.54191 -3.61816 2.3766e-15 
-1.2138 -3.67543 3.91869e-13 
-0.907644 -3.62077 3.29615e-12 
-0.643064 -3.57463 -1.65316e-12 
-0.298361 -3.6391 2.78699e-12 
0.0531921 -3.53839 -1.81468e-12 
0.337452 -3.57398 -2.59759e-12 
0.62548 -3.52255 -1.86573e-12 
0.893317 -3.56456 -8.98999e-13 
1.17031 -3.62161 7.21043e-13 
1.50171 -3.66698 1.1436e-13 
1.79069 -3.62827 -2.58229e-13 
2.0881 -3.65516 -4.70939e-13 
2.43857 -3.73286 -1.97127e-13 
2.72222 -3.65438 -5.94215e-13 
3.02449 -3.67553 -2.62302e-13 
3.32695 -3.67003 -2.96038e-13 
3.62749 -3.66465 -3.27317e-13 
3.94003 -3.67935 -2.67469e-13 
4.24312 -3.66901 -2.68932e-13 
4.53958 -3.66298 -2.18732e-13 
4.83975 -3.67021 -1.62344e-13 
5.14137 -3.66816 -1.31535e-13 
5.44404 -3.66718 -1.52038e-13 
5.74157 -3.65809 -1.34441e-13 
6.04841 -3.6704 -1.52894e-13 
6.33465 -3.63427 -9.6018e-14 
6.64163 -3.67894 -1.00051e-13 
6.94194 -3.65164 -6.74999e-14 
7.24466 -3.66484 -1.04147e-13 
7.54474 -3.6568 -1.14284e-13 
7.84752 -3.65796 -1.37597e-13 
8.14722 -3.65419 -7.22266e-14 
8.44959 -3.65895 -1.29495e-14 
8.73722 -3.62606 -1.22837e-14 
9.05732 -3.69192 -1.55359e-14 
9.38727 -3.6743 -1.01077e-13 
9.69914 -3.6425 -1.02757e-13 
10.0444 -3.71071 -9.54449e-14 
10.3819 -3.66117 -2.56496e-14 
10.7433 -3.71126 -4.47456e-15 
11.0743 -3.64888 7.88022e-14 
11.371 -3.60842 -3.02043e-14 
11.7155 -3.71743 5.42029e-14 
11.9978 -3.60662 -9.09594e-05 
-11.9968 -3.31657 5.80701e-05 
-11.6422 -3.34283 -2.71406e-13 
-11.306 -3.25868 1.36072e-13 
-10.9921 -3.34692 -1.59647e-14 
-10.6662 -3.29653 -8.75352e-15 
-10.3409 -3.33445 6.37679e-14 
-10.01 -3.33497 -1.29982e-14 
-9.69087 -3.33684 8.22199e-14 
-9.38001 -3.3743 6.80032e-14 
-9.06727 -3.33477 1.32792e-14 
-8.76882 -3.3073 8.4517e-15 
-8.46706 -3.32941 3.98267e-14 
-8.15936 -3.33053 -8.36063e-15 
-7.84891 -3.3302 -5.6328e-14 
-7.54415 -3.31924 -3.566e-14 
-7.23502 -3.2926 -1.04649e-14 
-6.93625 -3.34564 -3.14532e-14 
-6.63177 -3.32931 -1.42913e-14 
-6.32722 -3.33466 2.15515e-14 
-6.02163 -3.35121 5.92608e-14 
-5.71842 -3.33359 4.58711e-14 
-5.42157 -3.31578 -2.22664e-15 
-5.12786 -3.33703 7.22755e-17 
-4.82766 -3.3619 4.79339e-14 
-4.52498 -3.34988 5.2088e-14 
-4.21922 -3.37205 8.16313e-14 
-3.90949 -3.35667 1.42587e-13 
-3.59575 -3.37007 9.19599e-14 
-3.29459 -3.32332 1.05733e-13 
-2.98859 -3.35086 1.77453e-13 
-2.66625 -3.25237 4.08784e-13 
-2.34729 -3.29255 3.00387e-13 
-2.06746 -3.36004 3.69085e-13 
-1.7826 -3.28308 2.68141e-13 
-1.44386 -3.29783 -4.37374e-13 
-1.13305 -3.29387 -2.8514e-13 
-0.853738 -3.14605 9.34799e-13 
-0.546862 -3.18513 2.97099e-12 
-0.256733 -3.27955 2.22982e-14 
0.0322306 -3.08259 4.22121e-12 
0.334726 -3.13695 -1.1601e-12 
0.613967 -3.05957 -2.08591e-12 
0.902057 -3.14523 -2.46538e-13 
1.19328 -3.2122 -2.47255e-13 
1.45942 -3.3199 -1.17055e-13 
1.76382 -3.26525 -1.86125e-13 
2.05463 -3.31278 -4.93585e-13 
2.36347 -3.43528 -3.80672e-13 
2.66511 -3.32709 -1.58449e-13 
2.97274 -3.34879 -1.40853e-13 
3.27964 -3.34539 -9.13929e-14 
3.58921 -3.33711 -1.0856e-13 
3.89958 -3.35993 -1.04492e-13 
4.20958 -3.34316 -6.54255e-14 
4.51164 -3.33182 -2.65446e-14 
4.81026 -3.34097 -1.53608e-14 
5.10881 -3.34083 -6.9191e-15 
5.41043 -3.33899 -1.89162e-14 
5.71196 -3.32345 -1.23157e-14 
6.01238 -3.34137 -1.44141e-14 
6.31148 -3.2867 6.6375e-15 
6.60749 -3.34411 2.06593e-14 
6.90641 -3.31979 3.7427e-14 
7.21554 -3.32959 4.74409e-15 
7.51804 -3.32022 -2.65355e-14 
7.82124 -3.32384 -2.06443e-14 
8.12971 -3.31395 3.35168e-15 
8.42184 -3.3045 -2.85805e-14 
8.74572 -3.30587 -3.64906e-15 
9.07209 -3.36999 -2.27693e-14 
9.38835 -3.33684 -5.00264e-14 
9.70603 -3.30172 -5.9301e-14 
10.0182 -3.39343 2.69665e-14 
10.3156 -3.3118 -2.45512e-14 
10.6412 -3.39307 3.61611e-15 
10.9669 -3.33514 1.06968e-14 
11.2904 -3.25041 -1.13284e-13 
11.6289 -3.36493 1.36537e-13 
11.997 -3.30701 -6.03358e-05 
-11.9972 -2.9967 4.38877e-05 
-11.6511 -3.01983 4.73504e-14 
-11.3016 -2.93829 1.23276e-14 
-10.9574 -3.00219 3.88698e-14 
-10.6196 -2.9656 -5.85249e-14 
-10.2939 -3.00524 -4.51014e-14 
-9.96887 -2.99876 -1.50245e-14 
-9.65052 -2.99808 7.73292e-14 
-9.34724 -3.02725 4.62948e-14 
-9.04636 -2.98172 -2.21386e-14 
-8.73755 -2.96612 2.86591e-14 
-8.43197 -2.99321 6.46991e-14 
-8.12267 -2.99787 2.95712e-14 
-7.81771 -2.99271 -4.10598e-14 
-7.5127 -2.98196 -1.26879e-14 
-7.20941 -2.96357 5.19667e-15 
-6.90503 -3.0114 -3.55468e-14 
-6.59846 -2.99892 -4.11788e-14 
-6.29341 -3.00763 1.47386e-14 
-5.9942 -3.01921 1.26462e-14 
-5.69755 -2.99828 -2.72897e-14 
-5.4001 -2.9836 -3.02275e-14 
-5.10268 -3.01036 -2.62509e-14 
-4.80641 -3.03808 5.6779e-15 
-4.50031 -3.03106 6.51164e-16 
-4.20127 -3.04665 5.4388e-14 
-3.89623 -3.04026 4.5374e-14 
-3.58856 -3.05197 -5.37489e-14 
-3.27443 -2.99948 -1.76579e-14 
-2.96179 -3.02816 7.13524e-14 
-2.66588 -2.90037 3.01251e-14 
-2.36958 -2.96049 4.24753e-14 
-2.05458 -2.99603 2.15008e-13 
-1.7125 -2.95408 5.74924e-14 
-1.39947 -2.92386 -1.04732e-13 
-1.11949 -2.85907 -8.6968e-13 
-0.791862 -2.73361 1.25913e-12 
-0.489265 -2.75291 4.12478e-12 
-0.215123 -2.83482 -9.66539e-12 
-0.0698026 -2.4774 6.8441e-12 
0.215926 -2.70061 -5.04756e-12 
0.497075 -2.6086 5.33036e-13 
0.816175 -2.69041 2.75169e-13 
1.11967 -2.81662 7.53891e-13 
1.43661 -2.88678 5.53244e-13 
1.71021 -2.92067 3.95147e-13 
2.0316 -2.95573 2.42965e-13 
2.33934 -3.10585 -2.43683e-13 
2.64481 -2.99823 3.33556e-14 
2.95153 -3.02147 -1.19407e-13 
3.26259 -3.02093 -1.429e-15 
3.57604 -3.01328 -3.38957e-14 
3.88865 -3.03825 -5.52143e-14 
4.18813 -3.01343 -7.41374e-14 
4.49585 -3.01108 -2.04253e-14 
4.80495 -3.01038 4.28339e-15 
5.10316 -3.00997 -2.85861e-14 
5.40153 -3.01093 -6.05745e-16 
5.70054 -2.99326 -1.66738e-14 
6.00139 -3.00901 -5.27633e-15 
6.30041 -2.95528 -1.93655e-14 
6.60369 -3.0051 1.27779e-14 
6.91458 -2.99451 1.93808e-14 
7.21523 -2.99414 1.50081e-14 
7.51689 -2.98419 2.45725e-16 
7.82834 -2.9951 1.47523e-14 
8.12016 -2.96416 1.29216e-14 
8.43017 -2.97195 -5.73244e-14 
8.7388 -2.98261 -4.35543e-14 
9.06163 -3.04598 4.48171e-14 
9.38393 -3.0041 -1.61277e-14 
9.6787 -2.94791 -5.45827e-14 
9.99217 -3.03866 3.00708e-14 
10.3149 -2.97591 1.24125e-14 
10.6409 -3.05616 -1.23088e-14 
10.9695 -2.99591 -2.77876e-14 
11.3232 -2.93352 -1.14633e-13 
11.6588 -3.05198 4.29609e-14 
11.9972 -2.98162 -4.17617e-05 
-11.997 -2.69295 3.47216e-05 
-11.6388 -2.69948 5.19613e-14 
-11.3118 -2.60419 8.75107e-15 
-10.9797 -2.6751 -1.23761e-13 
[...]
POINT_DATA 1978 
VECTORS vectors float
0.0618806 -0.0866754 0.994658 
0.0663586 -0.0569467 0.99681 
0.0694998 -0.0420779 0.997333 
0.0709447 -0.0290416 0.997664 
0.072302 -0.0200755 0.997774 
0.0726029 -0.0129029 0.997876 
0.0726264 -0.00657668 0.997921 
0.0733259 4.64002e-05 0.997874 
0.0746276 0.00245376 0.997756 
0.0751354 0.00219863 0.997718 
0.0752708 0.00117505 0.997709 
0.0750593 0.000219859 0.997718 
0.0745873 -0.000132928 0.997754 
0.0742024 0.000155389 0.997786 
0.0741868 0.000886258 0.99779 
0.074627 0.00169006 0.997533 
0.0743408 0.00245574 0.997767 
0.0743243 0.00339516 0.997763 
0.0742038 0.00450352 0.99777 
0.0738796 0.00583742 0.997782 
0.0736076 0.00746859 0.997788 
0.07332 0.00951671 0.997791 
0.0731442 0.0125184 0.99777 
0.0725851 0.0165113 0.997748 
0.0720638 0.0223562 0.997676 
0.0710432 0.0299824 0.997778 
0.0701508 0.0405213 0.997035 
0.0688163 0.0534174 0.996754 
0.0669424 0.0711075 0.995786 
0.0632547 0.0928705 0.994227 
0.0604472 0.130377 0.990229 
0.0570021 0.16133 0.985875 
0.0495332 0.211125 0.976814 
0.0381291 0.289654 0.957008 
0.0267555 0.395519 0.91873 
0.0148256 0.511575 0.859693 
-0.000748829 0.693388 0.720957 
-0.00757946 0.855305 0.517773 
-0.00614048 0.964163 0.265017 
0.000572981 0.998889 -0.0351762 
0.0060023 0.938056 -0.345849 
0.00598406 0.824799 -0.565402 
-0.00158958 0.681794 -0.731889 
-0.0133107 0.535276 -0.844854 
-0.025221 0.40527 -0.914528 
-0.0381643 0.294116 -0.95569 
-0.0474622 0.224335 -0.974021 
-0.0546496 0.169424 -0.984626 
-0.0611257 0.120156 -0.991446 
-0.0642859 0.0914906 -0.994309 
-0.0670823 0.0694277 -0.995899 
-0.0687345 0.052495 -0.996816 
-0.0700202 0.0394334 -0.997315 
-0.071113 0.0292435 -0.997575 
-0.0720209 0.0218313 -0.997695 
-0.0726827 0.0164878 -0.997742 
-0.0732381 0.0123844 -0.997761 
-0.0735541 0.0094822 -0.99777 
-0.0737973 0.00728141 -0.997778 
-0.0738315 0.00566998 -0.997785 
-0.0742133 0.00448636 -0.997771 
-0.0741301 0.00350093 -0.997777 
-0.0741958 0.00262519 -0.997772 
-0.0743149 0.001706 -0.997766 
-0.0742537 0.000754068 -0.997772 
-0.0744478 0.000118323 -0.997762 
-0.07456 -7.84697e-05 -0.99775 
-0.0748159 0.000179053 -0.997733 
-0.0751447 0.0011027 -0.997719 
-0.0755103 0.00207826 -0.997683 
-0.0748715 0.00264208 -0.997723 
-0.0738135 0.000937631 -0.997841 
-0.0727543 -0.00443133 -0.997908 
-0.0727314 -0.0125381 -0.997857 
-0.0722824 -0.0188909 -0.99778 
-0.0710946 -0.0293713 -0.997628 
-0.0696479 -0.041072 -0.997365 
-0.0660881 -0.0561548 -0.996864 
-0.0623332 -0.0874408 -0.994544 
0.0377531 -0.0908051 0.995737 
0.0470979 -0.0663112 0.998025 
0.0448275 -0.044159 0.999588 
0.0497948 -0.0324733 0.999769 
0.0483868 -0.0218783 1.00011 
0.0506052 -0.014194 1.00012 
0.0507481 -0.00831415 1.00016 
0.0520562 -0.00255297 1.00034 
0.0539557 0.000654208 0.999764 
0.0534248 0.00110255 0.999992 
0.0528096 0.000974841 1.00022 
0.0534284 0.000777276 0.99996 
0.0528836 0.000497019 0.999982 
0.0529866 0.000476047 0.999979 
0.0517531 0.000926348 1.00004 
0.050918 0.00161231 1.00028 
0.053069 0.00248126 0.999954 
0.0521666 0.00332438 0.999998 
0.0525022 0.00433484 0.999976 
0.0529627 0.0057676 0.999932 
0.052147 0.00759238 0.999953 
0.0513834 0.00984804 0.999971 
0.0517589 0.0129903 0.999906 
0.052295 0.0175101 0.999809 
0.0507908 0.0237037 0.999769 
0.0508259 0.032509 0.999331 
0.0489755 0.0436044 0.999426 
0.0478934 0.0581935 0.998555 
0.0447123 0.0770993 0.997424 
0.0454474 0.103742 0.994759 
0.0353057 0.130071 0.992555 
0.0359816 0.169286 0.986384 
0.0329039 0.225401 0.974957 
0.0247866 0.304619 0.953704 
0.0169123 0.398124 0.918732 
0.0087779 0.533479 0.847182 
0.00104095 0.686863 0.727796 
-0.00148406 0.822118 0.569658 
-0.0028251 0.957526 0.285263 
-0.000340185 0.996813 -0.0648518 
0.000393165 0.938218 -0.34493 
-0.000997395 0.819258 -0.573248 
-0.00370501 0.683136 -0.731688 
-0.00896905 0.542799 -0.841539 
-0.017674 0.400374 -0.917761 
-0.0229036 0.304996 -0.953645 
-0.0304902 0.227186 -0.974887 
-0.0404992 0.160831 -0.9876 
-0.040345 0.123421 -0.99296 
-0.0448499 0.0916212 -0.996203 
-0.0469718 0.0688842 -0.997928 
-0.048253 0.0517023 -0.998892 
-0.0500996 0.0379203 -0.999392 
-0.0503919 0.0285684 -0.999675 
-0.0507996 0.0217325 -0.999816 
-0.0518528 0.0161609 -0.999863 
-0.0520046 0.0120251 -0.999907 
-0.0520904 0.00909072 -0.99995 
-0.0517633 0.00698771 -0.999979 
-0.052647 0.00539759 -0.999956 
-0.0506691 0.00415693 -1.00006 
-0.0534139 0.00307277 -0.999924 
-0.0518197 0.00220893 -1.00001 
-0.0526138 0.00143511 -0.999973 
-0.052147 0.000811812 -0.999994 
-0.0526651 0.000553697 -0.999975 
-0.0529847 0.000689877 -0.999754 
-0.0533065 0.000864096 -0.999953 
-0.0510494 0.000902239 -1.0003 
-0.0549619 0.00111864 -0.999668 
-0.0530275 0.00055427 -1.00002 
-0.0501613 -0.00220039 -1.00041 
-0.0538965 -0.00762908 -0.999761 
-0.0498235 -0.014162 -1.00037 
-0.0526161 -0.0225486 -0.999865 
-0.0479474 -0.0327962 -0.999843 
-0.0441778 -0.0452495 -0.999559 
-0.0484338 -0.0674084 -0.997875 
-0.0365668 -0.0910045 -0.995761 
0.0256496 -0.0938263 0.995858 
0.0297476 -0.0643033 0.999067 
0.0295006 -0.042909 1.00043 
0.0340651 -0.030649 1.00023 
0.0326443 -0.0211085 1.00074 
0.03479 -0.0136664 1.00077 
0.0353249 -0.00800577 1.0008 
0.0360201 -0.00304904 1.00056 
0.0379433 -0.000410972 1.00091 
0.0368763 -9.45286e-06 1.00071 
0.0363427 0.000525116 1.0005 
0.0371728 0.00127009 1.00068 
0.0368122 0.00129987 1.00068 
0.0363118 0.00100901 1.00069 
0.0355505 0.00100908 1.00092 
0.0345418 0.00137833 1.00074 
0.0366763 0.00210931 1.00046 
0.0360881 0.00301554 1.00068 
0.0361701 0.00415398 1.00067 
0.0365988 0.00550652 1.00064 
0.0355853 0.0071808 1.00066 
0.0349675 0.00939085 1.00066 
0.0354853 0.0123742 1.0008 
0.0362949 0.0166245 1.00032 
0.0354749 0.022275 1.00044 
0.0358076 0.0298906 1.00045 
0.0345333 0.0404371 0.999734 
0.0337963 0.0538543 0.999549 
0.0308092 0.0722089 0.998303 
0.0297903 0.096711 0.996298 
0.0236653 0.133965 0.992202 
0.0222537 0.182778 0.984424 
0.0209226 0.240035 0.972086 
0.0151098 0.318895 0.949291 
0.0103894 0.440189 0.899456 
0.00517916 0.577953 0.817487 
0.0023463 0.718636 0.696284 
0.000574285 0.866678 0.498632 
-0.000494892 0.969885 0.240786 
-0.000783623 0.997703 -0.052125 
-0.000956688 0.937621 -0.345574 
-0.00213201 0.822025 -0.570118 
-0.00437674 0.680841 -0.733198 
-0.00723918 0.538656 -0.843963 
-0.0114293 0.423534 -0.907414 
-0.0147527 0.319556 -0.949045 
-0.0191452 0.240745 -0.971952 
-0.0267102 0.1761 -0.98551 
-0.0267814 0.132257 -0.992302 
-0.0300301 0.0982056 -0.99592 
-0.0316603 0.0728217 -0.998477 
-0.0326871 0.0542611 -0.999384 
-0.0346198 0.0398703 -0.99977 
-0.0346825 0.0296213 -1.00031 
-0.0347451 0.0223631 -1.00068 
-0.0356584 0.0169639 -1.00034 
-0.0357443 0.0126813 -1.0008 
-0.0360086 0.00949591 -1.00042 
-0.0353135 0.00710484 -1.00088 
-0.0363212 0.00547116 -1.00045 
-0.0340602 0.00416004 -1.00094 
-0.0366485 0.00314891 -1.00045 
-0.0357301 0.00224675 -1.00069 
-0.0362046 0.00145305 -1.00068 
-0.0358312 0.000986351 -1.0007 
-0.0361293 0.000980825 -1.00069 
-0.0356873 0.00126816 -1.00092 
-0.0357539 0.00131644 -1.00093 
-0.0361226 0.000663553 -1.00051 
-0.038076 0.000110989 -1.00088 
-0.0366307 -0.000607233 -1.00052 
-0.0350415 -0.00339272 -1.00081 
-0.0373246 -0.00801819 -1.00072 
-0.0343417 -0.0133636 -1.00078 
-0.0366415 -0.0199841 -1.00038 
-0.0335375 -0.0293203 -1.00052 
-0.0292947 -0.0427266 -1.00043 
-0.0307229 -0.0626351 -0.999134 
-0.0251704 -0.0942265 -0.995828 
0.0181173 -0.0958969 0.995806 
0.0208193 -0.0653613 0.999207 
0.0198593 -0.0443207 1.00035 
0.0224599 -0.0286239 1.00106 
0.0225401 -0.0208543 1.00098 
0.0239749 -0.0133876 1.00106 
0.0243874 -0.00782151 1.00108 
0.0250315 -0.00345138 1.00108 
0.0264538 -0.00138859 1.00082 
0.0257103 -0.000940232 1.00103 
0.0254106 0.000375339 1.00123 
0.026307 0.00164009 1.00078 
0.0264629 0.00177916 1.00098 
0.02592 0.00130683 1.00098 
0.0255496 0.0011532 1.00078 
0.024809 0.00143623 1.001 
0.0259603 0.00215926 1.00117 
0.0253464 0.00314296 1.00098 
0.025388 0.0042376 1.00097 
0.0259497 0.0055025 1.00094 
0.0253362 0.00725433 1.00093 
0.0247676 0.0097049 1.00093 
0.0255656 0.0129917 1.00067 
0.025947 0.0172651 1.001 
0.0255284 0.0230719 1.00071 
0.0255834 0.0304667 1.00053 
0.0246394 0.0408478 1.00019 
0.0245664 0.0551322 0.999326 
0.0216653 0.0745494 0.998372 
0.0206069 0.100216 0.996423 
0.0166495 0.13512 0.991969 
0.0151592 0.180165 0.98536 
0.0134012 0.247001 0.970518 
0.00998048 0.344829 0.940313 
0.00729371 0.462613 0.88819 
0.00510691 0.588422 0.809929 
0.00335051 0.749169 0.66315 
0.00180904 0.891328 0.452578 
0.000688138 0.978124 0.204472 
0.00153557 0.997716 0.0502649 
-0.000278032 0.970172 -0.23931 
-0.00157135 0.875675 -0.48249 
-0.00283203 0.724169 -0.69054 
-0.00521116 0.571999 -0.82168 
-0.0081978 0.433926 -0.902554 
-0.010656 0.337573 -0.942892 
-0.0133345 0.247973 -0.970281 
-0.0179897 0.182765 -0.984293 
-0.0182877 0.135035 -0.992171 
-0.0207412 0.101181 -0.996317 
-0.0223708 0.0751131 -0.998125 
-0.0231304 0.0549243 -0.999614 
-0.0246633 0.0405686 -1.00044 
-0.0246343 0.0306765 -1.00056 
-0.0250737 0.0229204 -1.00053 
-0.0253088 0.0170398 -1.00104 
-0.0255641 0.0129991 -1.00068 
-0.0254549 0.00965667 -1.00113 
-0.0252045 0.0072098 -1.00075 
-0.0256037 0.00545384 -1.00115 
-0.0244645 0.00416072 -1.00098 
-0.025836 0.00306844 -1.00097 
-0.0255602 0.00209752 -1.00098 
-0.0255118 0.00140493 -1.00098 
-0.0254116 0.00117257 -1.00098 
-0.0261143 0.00140921 -1.00097 
-0.0255503 0.00181901 -1.00099 
-0.0258691 0.00170971 -1.00079 
-0.0261236 0.000457021 -1.00121 
-0.0275694 -0.000873464 -1.00077 
-0.0254509 -0.00168102 -1.00126 
-0.0236401 -0.00387932 -1.0011 
-0.0252926 -0.00809716 -1.00107 
-0.0233793 -0.0136356 -1.00107 
-0.0250625 -0.0210079 -1.00093 
-0.0222379 -0.0298452 -1.00079 
-0.0196115 -0.0446366 -1.00033 
-0.0214108 -0.0664888 -0.999109 
-0.0179423 -0.0958109 -0.995803 
0.0126387 -0.096854 0.995759 
0.0143649 -0.0647685 0.999322 
0.0134565 -0.0447752 1.0004 
0.015971 -0.0309134 1.00087 
0.0158313 -0.0215045 1.00108 
0.0170368 -0.0140731 1.00116 
0.0176469 -0.00898633 1.00119 
0.0178315 -0.00434541 1.00121 
0.0186204 -0.00228527 1.0014 
0.0185762 -0.00156463 1.00116 
0.0189848 0.000690674 1.00094 
0.0189062 0.00230742 1.00134 
0.0186706 0.00224336 1.00112 
0.0184734 0.00152445 1.00112 
0.0180568 0.0012252 1.00112 
0.0178131 0.00156405 1.00112 
0.0183523 0.00227985 1.00111 
0.0182406 0.00321907 1.0011 
0.0183033 0.00435464 1.00108 
0.0182373 0.00575633 1.00108 
0.0179626 0.00769359 1.00107 
0.0179393 0.0104147 1.00104 
0.0182635 0.0138943 1.001 
0.0187193 0.0184659 1.00093 
0.018419 0.0242794 1.00083 
0.0186111 0.0319096 1.00044 
0.0179478 0.0430441 1.00046 
0.0173872 0.059317 0.999467 
0.0158037 0.0813707 0.997983 
0.0143824 0.106802 0.995671 
0.011387 0.150855 0.99007 
0.0103214 0.202495 0.980623 
0.00886137 0.272623 0.964064 
0.0073213 0.379837 0.926765 
0.00602327 0.49605 0.869892 
0.0049863 0.642031 0.767912 
0.00482978 0.824682 0.565854 
0.00417057 0.904204 0.426669 
0.00346102 0.939015 0.341676 
0.00218187 0.994203 0.0989362 
0.000305226 0.977218 -0.207595 
-0.00115414 0.891242 -0.452937 
-0.00220447 0.752462 -0.659725 
-0.00361168 0.585359 -0.812235 
-0.00595834 0.44705 -0.896173 
-0.00771376 0.330622 -0.945448 
-0.0100561 0.252196 -0.969298 
-0.0130058 0.183227 -0.984812 
-0.0131498 0.13507 -0.992277 
-0.0151482 0.100503 -0.996298 
-0.0162864 0.0748271 -0.998478 
-0.0169911 0.0536655 -0.999788 
-0.01772 0.0396716 -1.0004 
-0.0178606 0.0298988 -1.00071 
-0.0182939 0.0222966 -1.00088 
-0.0181506 0.0166219 -1.00097 
-0.0181546 0.0125834 -1.00103 
-0.0182009 0.00947162 -1.00105 
-0.0180637 0.00704918 -1.00107 
-0.0181365 0.00532534 -1.00108 
-0.0176318 0.00396285 -1.0009 
-0.0184834 0.00288343 -1.00129 
-0.0181884 0.00197075 -1.00111 
-0.018236 0.00135539 -1.00112 
-0.0184312 0.0012369 -1.00111 
-0.0181331 0.00169856 -1.00113 
-0.0184194 0.00242326 -1.00112 
-0.0186329 0.00213206 -1.00114 
-0.0185123 0.000295407 -1.00095 
-0.0199682 -0.00157113 -1.00114 
-0.018202 -0.00259075 -1.00118 
-0.0171154 -0.00428102 -1.00121 
-0.0183461 -0.00881677 -1.00118 
-0.0165217 -0.0143992 -1.00116 
-0.0173769 -0.0216438 -1.00106 
-0.0159263 -0.0316697 -1.00084 
-0.0136894 -0.0462656 -1.00033 
-0.0145274 -0.0677028 -0.999128 
-0.011941 -0.096529 -0.995809 
0.00744594 -0.096978 0.995779 
0.00914245 -0.0732547 0.998787 
0.00912928 -0.0519031 0.999858 
0.0103875 -0.0349654 1.00078 
0.0108609 -0.024778 1.00105 
0.0117697 -0.017185 1.00117 
0.0120786 -0.011084 1.00124 
0.0125901 -0.00606697 1.00126 
0.0131178 -0.0035928 1.00125 
0.0132147 -0.00268031 1.00122 
0.013499 -0.000115248 1.00122 
0.0135558 0.00249028 1.0012 
0.0131432 0.00289056 1.00119 
0.0130732 0.00200722 1.00118 
0.012815 0.00130513 1.00118 
0.0126862 0.00131911 1.00117 
0.0128111 0.00186818 1.00116 
0.0130733 0.0026746 1.00116 
0.0128038 0.00381888 1.00115 
0.0128146 0.00514279 1.00114 
0.0127072 0.00671467 1.00112 
0.0126012 0.00890272 1.00111 
0.0126973 0.0119854 1.00108 
0.0131941 0.015902 1.00103 
0.0133118 0.0206327 1.00097 
0.0131749 0.0270457 1.00084 
0.0131893 0.0360191 1.00059 
0.0126938 0.0497627 1.00005 
0.0126812 0.0673745 0.999056 
0.010834 0.0894859 0.997413 
0.0100276 0.123515 0.993872 
0.00814358 0.176471 0.98597 
0.00748657 0.241743 0.972057 
0.00681876 0.326305 0.94672 
0.00592761 0.441376 0.899021 
0.00569917 0.58584 0.81121 
0.00514173 0.743061 0.670816 
0.00487939 0.789463 0.614209 
0.00274735 0.977663 0.206145 
0.00362363 0.996891 0.0694441 
0.00206048 0.983932 -0.173244 
1.6696e-05 0.959364 -0.279912 
-0.000637939 0.869986 -0.492838 
-0.00229057 0.607104 -0.795746 
-0.00366935 0.461825 -0.888656 
-0.00527699 0.349058 -0.938818 
-0.00704871 0.251137 -0.969635 
-0.00984405 0.191196 -0.982885 
-0.00992636 0.144451 -0.991061 
-0.0108835 0.104433 -0.99601 
-0.0117243 0.0777598 -0.998371 
-0.0123458 0.0575502 -0.999666 
-0.0127521 0.0411489 -1.00043 
-0.0129592 0.0307822 -1.00076 
-0.0130634 0.0230601 -1.00093 
-0.0128428 0.0170416 -1.00104 
-0.0128088 0.012848 -1.00109 
-0.0128435 0.00981197 -1.00111 
-0.012734 0.00738071 -1.00113 
-0.0127833 0.00546936 -1.00113 
-0.0127904 0.00412785 -1.00114 
-0.0130589 0.0029768 -1.00115 
-0.0128213 0.00208471 -1.00117 
-0.0127644 0.00138703 -1.00118 
-0.0131733 0.00119438 -1.00118 
-0.0125275 0.00178652 -1.00118 
-0.0129308 0.00274881 -1.00119 
-0.0129643 0.00283739 -1.0012 
-0.012729 0.000918343 -1.00144 
-0.0140085 -0.00194899 -1.00123 
-0.0131401 -0.00347626 -1.00124 
-0.0120427 -0.00492744 -1.00126 
-0.0128795 -0.00926863 -1.00125 
-0.0119793 -0.0154721 -1.0012 
-0.012168 -0.0223757 -1.0011 
-0.0108109 -0.0325758 -1.00086 
-0.0089309 -0.0473244 -1.00031 
-0.00939486 -0.0685804 -0.999112 
-0.00773565 -0.0970019 -0.995797 
0.00382625 -0.0973903 0.995773 
0.00470959 -0.0689277 0.999326 
0.00588311 -0.0446165 1.00044 
0.00630916 -0.0312073 1.00091 
0.00743283 -0.0222129 1.00111 
0.00752704 -0.0150972 1.00122 
0.00772883 -0.00951018 1.00126 
0.00840583 -0.00565407 1.00127 
0.00861447 -0.00394203 1.00126 
0.00866839 -0.00168315 1.00126 
0.00853884 0.00167809 1.00124 
0.00817346 0.00336611 1.00123 
0.00783465 0.00279581 1.00121 
0.00773192 0.00168009 1.00121 
0.00779174 0.00117452 1.00121 
0.0078722 0.00146984 1.0012 
0.00781687 0.00219856 1.00119 
0.00793991 0.00312799 1.00119 
0.00767481 0.00430592 1.00118 
0.00768217 0.00573881 1.00117 
0.00782446 0.00761379 1.00115 
0.00779654 0.0102058 1.00113 
0.0078359 0.013753 1.00111 
0.00800197 0.0179886 1.00106 
0.00835143 0.0238131 1.00098 
0.0085182 0.0323064 1.00076 
0.00854842 0.0437892 1.00038 
0.00851951 0.0614573 0.999269 
0.00763686 0.0815749 0.998369 
0.00732337 0.116918 0.994452 
0.00640096 0.164326 0.988377 
0.00605804 0.245777 0.971084 
0.00602405 0.335831 0.943654 
0.00613667 0.454143 0.893336 
0.0063324 0.553603 0.833527 
0.00630649 0.651076 0.759571 
0.00611463 0.729927 0.684743 
0.00566601 0.961153 0.274058 
0.00383666 0.887865 0.458297 
0.00278843 0.998337 0.0328111 
-0.000530082 0.984296 -0.170491 
-0.00168603 0.921225 -0.387084 
-0.000870972 0.810267 -0.587455 
-0.00140374 0.731648 -0.682637 
-0.00148002 0.526968 -0.851468 
-0.00252368 0.39099 -0.922161 
-0.00443835 0.286174 -0.959951 
-0.0065681 0.19269 -0.983231 
-0.00701944 0.140592 -0.991688 
-0.00765417 0.100401 -0.996464 
-0.00819588 0.0728532 -0.998765 
-0.00852188 0.0538531 -0.9999 
-0.0082102 0.0395291 -1.00052 
-0.00838504 0.0290967 -1.00084 
-0.00823028 0.0216979 -1.001 
-0.00780808 0.0160352 -1.00108 
-0.00772784 0.0121793 -1.00112 
-0.00774208 0.00931611 -1.00114 
-0.00781208 0.00694694 -1.00115 
-0.00771021 0.00520402 -1.00116 
-0.00843781 0.00384787 -1.00117 
-0.0080004 0.00281451 -1.00119 
-0.00797128 0.00191666 -1.0012 
-0.00765842 0.00130166 -1.00121 
-0.00793201 0.00122739 -1.00121 
-0.00749463 0.00199597 -1.00121 
-0.00783876 0.0031192 -1.00103 
-0.00768068 0.00329167 -1.00124 
-0.0077601 0.00109793 -1.00125 
-0.0089791 -0.00236694 -1.00126 
-0.00846144 -0.00439261 -1.00127 
-0.00807113 -0.00623022 -1.00126 
-0.00843249 -0.0104794 -1.00126 
-0.0075195 -0.0163161 -1.0012 
-0.00803954 -0.0234922 -1.0011 
-0.00661929 -0.0334361 -1.00084 
-0.00508633 -0.0470869 -1.00033 
-0.00553228 -0.0685792 -0.999124 
-0.00392999 -0.0970469 -0.995806 
0.000179007 -0.0978939 0.99571 
0.00174835 -0.070579 0.998972 
0.00286305 -0.0492108 1.00022 
0.00313348 -0.0332252 1.00083 
0.00384267 -0.0241648 1.00107 
0.00429551 -0.0165372 1.001 
0.00474179 -0.0108836 1.00145 
0.00527162 -0.00692614 1.00107 
0.00530447 -0.00464093 1.00128 
0.00526078 -0.00175282 1.00127 
0.00507411 0.00196359 1.00126 
0.00471534 0.00377861 1.00124 
0.00450917 0.00316849 1.00122 
0.00431028 0.00182766 1.0014 
0.00449423 0.00114293 1.00102 
0.00460635 0.00128016 1.00121 
0.00450585 0.00200471 1.00139 
0.00472948 0.00297162 1.00101 
0.00465004 0.00401667 1.00118 
0.0044755 0.00532665 1.00135 
0.0044893 0.00710142 1.00097 
0.00457221 0.00933999 1.00114 
0.00469638 0.012316 1.00112 
0.0046428 0.0161485 1.00129 
0.00496852 0.0214001 1.00104 
0.00537056 0.0290299 1.00068 
0.00528956 0.0391611 1.00078 
0.00535625 0.0530913 1.00022 
0.00503463 0.0733674 0.998573 
0.00520538 0.104023 0.996457 
0.00507815 0.158443 0.988842 
0.00520618 0.239402 0.972394 
0.00522295 0.349738 0.938914 
0.0055333 0.445272 0.896915 
0.00702235 0.630857 0.777391 
0.00842761 0.811266 0.583557 
0.00722023 0.945473 0.326443 
0.0101029 0.993544 0.115188 
0.00654399 0.997629 0.0574531 
0.00314285 1.00011 -0.0148886 
-0.00120139 0.994325 -0.101235 
-0.00563363 0.980437 -0.19537 
-0.00432855 0.951212 -0.307014 
-0.00206117 0.655432 -0.756168 
-0.00153691 0.564436 -0.826933 
-0.00209945 0.453169 -0.893153 
-0.0026219 0.32409 -0.948151 
-0.00388713 0.227502 -0.975603 
-0.00470942 0.161842 -0.988578 
-0.0051175 0.113525 -0.995175 
-0.00528758 0.0792946 -0.998379 
-0.00555008 0.0583419 -0.999507 
-0.00529774 0.0430489 -1.00045 
-0.0052286 0.0307783 -1.00083 
-0.00497501 0.0228112 -1.00101 
-0.0047699 0.0169432 -1.00109 
-0.00457136 0.0126068 -1.00113 
-0.00447515 0.00963632 -1.00115 
-0.00459092 0.00732955 -1.00115 
-0.00449043 0.00550433 -1.00117 
-0.00493474 0.00414116 -1.00118 
-0.00465894 0.00305515 -1.00119 
-0.00474248 0.00207664 -1.0012 
-0.00465692 0.00134304 -1.00121 
-0.00460049 0.00117128 -1.00122 
-0.00432083 0.00177906 -1.00123 
-0.00447882 0.00314025 -1.00143 
-0.00452613 0.00384657 -1.00124 
-0.00453387 0.00203837 -1.00126 
-0.00529689 -0.00196366 -1.00128 
-0.0053802 -0.00479982 -1.00127 
-0.00501462 -0.00708797 -1.00126 
-0.00516574 -0.0112314 -1.00124 
-0.00422689 -0.0167173 -1.00119 
-0.00433667 -0.0242583 -1.00107 
-0.00333156 -0.0336009 -1.00083 
-0.00222604 -0.0478583 -1.00027 
-0.00203482 -0.0701085 -0.999013 
-0.0003497 -0.0977527 -0.995746 
-0.000637822 -0.0987816 0.995622 
0.000239035 -0.0701493 0.998968 
0.00107363 -0.0492338 0.999981 
0.00178973 -0.0350114 1.00077 
0.00238969 -0.0246398 1.00105 
0.00298734 -0.0172957 1.00139 
0.00347768 -0.0113944 1.00102 
0.00360295 -0.00693614 1.00147 
0.0032894 -0.00432847 1.00127 
0.00301852 -0.000806325 1.00146 