# vtk DataFile Version 3.0 
Exported using Morpho https://github.com/Morpho-lang/morpho 
ASCII 
DATASET UNSTRUCTURED_GRID 

POINTS 1978 float 
-12 -4 -6.02426e-14 
-11.6 -4 -2.25386e-14 
-11.2982 -4 5.10881e-14 
-10.9555 -4 6.22976e-14 
-10.6442 -4 1.11599e-13 
-10.3119 -4 9.50679e-14 
-9.98861 -4 9.62723e-14 
-9.65578 -4 1.27008e-13 
-9.30666 -4 5.69329e-14 
-8.9904 -4 5.85776e-14 
-8.68899 -4 5.07867e-14 
-8.37395 -4 4.45113e-14 
-8.07439 -4 8.51315e-14 
-7.77 -4 8.14287e-14 
-7.47882 -4 9.36359e-14 
-7.19115 -4 1.07615e-13 
-6.88907 -4 9.18907e-14 
-6.59297 -4 8.03057e-14 
-6.28981 -4 3.78059e-14 
-5.98363 -4 1.21804e-13 
-5.68385 -4 2.446e-13 
-5.38216 -4 2.06422e-13 
-5.08945 -4 1.65324e-13 
-4.80434 -4 2.44642e-13 
-4.49009 -4 7.14665e-13 
-4.20267 -4 5.33863e-13 
-3.90317 -4 3.90531e-13 
-3.58238 -4 7.42274e-13 
-3.27 -4 2.50719e-12 
-2.93852 -4 3.94345e-12 
-2.61891 -4 1.43985e-12 
-2.31521 -4 -1.72731e-11 
-2.02325 -4 -9.69617e-11 
-1.72208 -4 -2.39772e-10 
-1.48035 -4 -2.76266e-10 
-1.30587 -4 -3.57638e-10 
-1.12357 -4 -4.33796e-09 
-0.915399 -4 -5.52811e-08 
-0.607923 -4 -1.22141e-07 
-0.380664 -4.00001 -3.08051e-07 
0.566293 -4.00001 7.7292e-08 
0.793406 -4 1.36809e-07 
0.983545 -4 1.91193e-08 
1.25603 -4 6.16478e-09 
1.4347 -4 1.26702e-09 
1.67206 -4 5.18022e-10 
1.9647 -4 1.19614e-10 
2.27669 -4 8.4812e-12 
2.6143 -4 3.16839e-12 
2.94924 -4 -3.38196e-12 
3.27488 -4 -2.34773e-12 
3.58972 -4 -2.03621e-12 
3.89071 -4 -1.2351e-12 
4.20193 -4 -7.32562e-13 
4.50382 -4 -6.09887e-13 
4.79958 -4 -3.94177e-13 
5.10884 -4 -9.41008e-14 
5.41217 -4 -2.17042e-13 
5.71212 -4 -2.51904e-13 
6.00596 -4 -5.67006e-14 
6.29944 -4 1.31958e-15 
6.5891 -4 -9.00144e-14 
6.89621 -4 -1.45872e-13 
7.17392 -4 -1.2387e-13 
7.4748 -4 -8.34706e-14 
7.77225 -4 -3.34254e-14 
8.06989 -4 -4.14457e-14 
8.36263 -4 9.34302e-16 
8.65404 -4 4.65017e-15 
8.94537 -4 -2.16714e-14 
9.28038 -4 -6.9158e-14 
9.60875 -4 -8.94081e-14 
9.90394 -4 -8.50405e-14 
10.271 -4 -1.80301e-13 
10.5865 -4 -1.03753e-13 
10.9823 -4 -7.50283e-14 
11.301 -4 -1.06674e-14 
11.5928 -4 1.83008e-14 
12 -4 6.67389e-14 
-12 -3.61985 6.21654e-15 
-11.706 -3.71837 -1.09001e-17 
-11.357 -3.63107 4.45587e-18 
-11.0434 -3.67603 -1.03496e-18 
-10.7103 -3.64702 1.42296e-17 
-10.3948 -3.67123 -6.16895e-18 
-10.0626 -3.66562 1.90205e-17 
-9.73541 -3.67857 2.13288e-18 
-9.39448 -3.69408 3.58888e-18 
-9.05301 -3.66756 -5.79938e-18 
-8.74135 -3.65653 1.13549e-18 
-8.43386 -3.67468 5.37987e-18 
-8.11773 -3.66097 6.48261e-18 
-7.81147 -3.66937 6.28902e-18 
-7.50197 -3.65932 1.22483e-17 
-7.2018 -3.65911 4.592e-17 
-6.89414 -3.67026 7.41095e-17 
-6.58407 -3.67261 6.12336e-17 
-6.26926 -3.67583 1.07418e-16 
-5.96043 -3.67055 1.61719e-16 
-5.64998 -3.67372 2.19967e-16 
-5.34797 -3.66395 2.76729e-16 
-5.05407 -3.65557 3.54932e-16 
-4.73599 -3.68796 2.9531e-16 
-4.43511 -3.65659 1.30718e-15 
-4.12724 -3.66717 6.7035e-15 
-3.80095 -3.68324 2.13731e-14 
-3.47554 -3.66333 7.43467e-14 
-3.13734 -3.67744 3.26984e-13 
-2.79458 -3.66745 1.60226e-12 
-2.4686 -3.65227 5.86762e-12 
-2.15323 -3.66084 1.53945e-11 
-1.86007 -3.70349 1.03247e-10 
-1.5832 -3.66496 7.39613e-10 
-1.35748 -3.59482 1.51027e-09 
-1.1941 -3.70136 4.2561e-09 
-1.00966 -3.80374 4.79693e-09 
-0.805626 -3.88898 9.80837e-10 
-0.637505 -3.82718 5.35498e-08 
-0.289609 -3.89194 7.1927e-08 
0.445519 -3.88793 -1.45015e-07 
0.830433 -3.84346 -2.78596e-08 
1.11115 -3.85782 -1.3707e-08 
1.31996 -3.67042 -3.02173e-09 
1.52724 -3.70133 -1.20289e-09 
1.77041 -3.71039 -1.92675e-10 
2.05478 -3.6957 -3.82566e-11 
2.34624 -3.68818 -4.69914e-12 
2.66127 -3.67927 -3.19864e-15 
2.98551 -3.67449 3.49639e-14 
3.30484 -3.66269 -5.82025e-14 
3.61404 -3.65469 -3.09905e-14 
3.93036 -3.66824 -7.88353e-15 
4.23771 -3.66194 -3.01261e-15 
4.53626 -3.66015 -1.31522e-15 
4.84474 -3.67814 -5.75845e-16 
5.1517 -3.67407 -3.6612e-16 
5.45544 -3.67144 -2.52599e-16 
5.75594 -3.66402 -2.06321e-16 
6.05356 -3.66365 -1.40457e-16 
6.35051 -3.65992 -3.33319e-16 
6.65576 -3.67904 -7.51312e-17 
6.94614 -3.64245 -2.08965e-17 
7.24474 -3.66931 -5.61615e-17 
7.54509 -3.66549 -1.47555e-17 
7.84579 -3.66412 -7.92478e-18 
8.14156 -3.65762 -2.78396e-18 
8.44011 -3.65753 7.8568e-19 
8.74023 -3.65419 -2.77932e-18 
9.06028 -3.69682 3.29111e-18 
9.38666 -3.68294 7.23103e-18 
9.69656 -3.64109 1.41465e-18 
10.0324 -3.71003 -7.91553e-18 
10.3599 -3.65741 -1.5093e-17 
10.7252 -3.72302 -8.66562e-18 
11.0596 -3.6525 6.22724e-19 
11.362 -3.61877 -3.99324e-18 
11.7138 -3.72578 9.54592e-18 
12 -3.60811 -3.64642e-15 
-12 -3.31277 -5.69244e-14 
-11.6376 -3.37402 -1.30518e-17 
-11.296 -3.28924 -7.99433e-18 
-10.981 -3.33535 2.5114e-17 
-10.6622 -3.2995 -2.43254e-17 
-10.3374 -3.34097 1.46872e-17 
-10.0079 -3.33577 -2.01492e-17 
-9.6917 -3.33519 6.69941e-18 
-9.38734 -3.38006 -3.63775e-18 
-9.08014 -3.32708 1.08389e-18 
-8.77448 -3.31739 2.6168e-18 
-8.46943 -3.33497 2.35917e-18 
-8.16706 -3.33531 1.11192e-18 
-7.85418 -3.33209 3.57332e-18 
-7.55357 -3.32949 1.78792e-17 
-7.24896 -3.32032 1.28809e-17 
-6.945 -3.34796 3.37514e-17 
-6.63461 -3.34422 6.48482e-17 
-6.32798 -3.35231 2.5757e-16 
-6.01995 -3.34304 2.41666e-16 
-5.71385 -3.34868 3.89518e-16 
-5.40901 -3.3338 5.28143e-16 
-5.10862 -3.31642 8.28915e-16 
-4.80476 -3.36707 1.23641e-15 
-4.4991 -3.32852 2.41374e-15 
-4.18854 -3.33637 6.99098e-15 
-3.87104 -3.36342 3.46624e-14 
-3.54772 -3.34119 1.14329e-13 
-3.20755 -3.35425 5.44395e-13 
-2.86197 -3.35211 4.18224e-12 
-2.51203 -3.32289 9.96981e-12 
-2.16791 -3.34068 5.90766e-11 
-1.83675 -3.37722 3.42318e-10 
-1.54442 -3.33348 4.32411e-10 
-1.27034 -3.27116 3.0456e-10 
-1.1009 -3.40121 4.71717e-10 
-0.985895 -3.59629 -7.71247e-10 
-0.800958 -3.71062 1.13646e-09 
-0.607946 -3.6504 2.11976e-08 
-0.187843 -3.79934 4.75371e-07 
0.22054 -3.92198 4.27659e-07 
0.821829 -3.69068 -7.69671e-08 
1.06299 -3.69453 1.24339e-08 
1.19313 -3.46203 -8.01703e-10 
1.38528 -3.30926 -4.95764e-10 
1.58366 -3.38269 1.61803e-10 
1.8633 -3.41366 -1.81997e-10 
2.16785 -3.364 -2.66174e-11 
2.48766 -3.36453 -6.43206e-12 
2.83311 -3.35895 -1.68296e-12 
3.17552 -3.34208 -4.38309e-13 
3.51288 -3.32023 -1.07685e-13 
3.8418 -3.33973 -4.20266e-14 
4.1653 -3.33104 -9.86717e-15 
4.47811 -3.32112 -2.72405e-15 
4.78265 -3.3499 -1.43232e-15 
5.0892 -3.35189 -9.54085e-16 
5.39912 -3.34576 -6.28529e-16 
5.70452 -3.33668 -4.08167e-16 
6.01213 -3.32772 -2.67053e-16 
6.30973 -3.32485 -1.59968e-16 
6.61233 -3.34518 -9.69179e-17 
6.91069 -3.30641 -3.54094e-17 
7.21155 -3.33123 -1.73097e-17 
7.51096 -3.33255 1.29974e-17 
7.81414 -3.33297 -1.99191e-18 
8.12203 -3.31914 -9.60587e-19 
8.42486 -3.32465 -6.05161e-18 
8.73618 -3.32249 -1.78356e-17 
9.05597 -3.37792 -7.60367e-18 
9.37898 -3.35249 -9.81307e-18 
9.68988 -3.29723 -2.72155e-17 
10.0035 -3.38652 -6.43596e-18 
10.3089 -3.31156 1.60018e-17 
10.6356 -3.40842 -2.73052e-19 
10.9669 -3.33899 -1.04676e-18 
11.2967 -3.26154 2.58589e-18 
11.6317 -3.378 1.26133e-17 
12 -3.30427 3.75907e-14 
-12 -2.98468 -9.38693e-14 
-11.66 -3.05705 -4.15751e-17 
-11.316 -2.97026 1.30363e-18 
-10.9706 -2.98587 -5.10183e-19 
-10.6329 -2.96884 3.62338e-18 
-10.3077 -3.0089 5.703e-18 
-9.98868 -2.99526 -1.06916e-17 
-9.67007 -2.99915 6.91746e-18 
-9.35418 -3.0312 9.12551e-20 
-9.04501 -2.98301 5.98843e-18 
-8.73793 -2.97836 2.83418e-18 
-8.43694 -2.9956 1.77914e-18 
-8.12533 -3.00842 2.95524e-18 
-7.82459 -2.99293 2.17524e-18 
-7.51996 -2.99562 -4.31933e-18 
-7.21774 -2.98614 1.0838e-17 
-6.91769 -3.02442 2.99726e-17 
-6.61047 -3.01572 7.17001e-17 
-6.30566 -3.02388 9.09521e-17 
-6.00021 -3.01403 1.53526e-16 
-5.69735 -3.01851 2.28858e-16 
-5.39668 -2.9997 3.59733e-16 
-5.09651 -2.98297 4.0748e-16 
-4.79844 -3.03852 1.06724e-15 
-4.49653 -2.99688 1.85813e-15 
-4.19098 -3.00992 3.28743e-15 
-3.87817 -3.04011 7.37598e-15 
-3.55171 -3.01707 5.6516e-14 
-3.22305 -3.0368 2.21913e-13 
-2.87643 -3.03491 -5.62089e-13 
-2.54457 -2.98843 6.67697e-12 
-2.20646 -3.02225 -5.0032e-14 
-1.86619 -3.06378 -2.78516e-11 
-1.54572 -3.03798 5.21034e-11 
-1.23681 -2.9877 4.04386e-11 
-0.99063 -3.09415 -1.26496e-09 
-0.904114 -3.32293 -3.73457e-10 
-0.802831 -3.52521 -3.66927e-09 
-0.489783 -3.83856 -2.6758e-07 
-0.0515925 -3.95232 3.30679e-08 
0.637437 -3.81848 -1.11436e-07 
0.708538 -3.57295 -3.68735e-09 
0.95556 -3.33315 9.40139e-09 
1.1336 -3.15937 1.2394e-09 
1.3371 -2.98271 1.9733e-10 
1.60666 -3.03448 1.74396e-11 
1.87061 -3.10549 4.47971e-11 
2.17774 -3.0343 3.8688e-12 
2.51971 -3.04963 -4.08909e-12 
2.85999 -3.03707 -3.40114e-13 
3.20061 -3.01976 -6.0133e-14 
3.53363 -2.99399 -3.41562e-14 
3.85922 -3.01645 1.73281e-16 
4.17343 -3.00039 -2.42952e-15 
4.48122 -2.98932 -2.02301e-15 
4.78696 -3.01454 -1.10389e-15 
5.0841 -3.02236 -6.07641e-16 
5.38453 -3.02278 -3.44097e-16 
5.69065 -3.00887 -2.22778e-16 
5.99364 -3.00504 -2.32658e-16 
6.30406 -2.98585 -1.20816e-16 
6.59969 -3.01246 -3.9424e-17 
6.91491 -2.98585 -6.6121e-17 
7.22977 -2.99578 -1.06319e-19 
7.52977 -2.99766 -2.16175e-17 
7.83768 -3.0033 -3.85135e-18 
8.13868 -2.98176 -1.91722e-18 
8.44407 -2.99467 -4.89091e-18 
8.75258 -2.98965 -5.02296e-18 
9.05957 -3.05496 7.67445e-19 
9.36666 -3.01414 4.87797e-17 
9.66768 -2.95118 -1.21978e-18 
9.98769 -3.03835 -7.06992e-19 
10.3225 -2.98402 -4.65803e-19 
10.6536 -3.07591 -7.66232e-18 
10.9872 -3.00007 -5.28776e-18 
11.3382 -2.93979 9.3041e-18 
11.6682 -3.06169 2.70314e-17 
12 -2.96728 7.33969e-14 
-12 -2.6669 -8.74934e-14 
-11.6511 -2.7302 -2.78531e-17 
-11.3135 -2.64199 1.39721e-17 
-10.976 -2.66075 -1.55243e-17 
-10.6402 -2.64149 1.397e-17 
-10.3025 -2.6706 -6.22817e-18 
-9.97235 -2.66293 1.3342e-17 
-9.64081 -2.67171 -3.17765e-18 
-9.32447 -2.69088 6.42701e-19 
-9.00191 -2.64871 2.43601e-18 
-8.68987 -2.64188 2.92187e-18 
-8.37485 -2.67394 1.58637e-18 
-8.0725 -2.66906 1.09449e-18 
-7.76181 -2.66397 -1.20506e-18 
-7.45975 -2.65929 -6.2228e-18 
-7.14753 -2.66287 2.34223e-17 
-6.84886 -2.69682 -7.50849e-18 
-6.54073 -2.68694 4.33339e-17 
-6.23931 -2.69267 4.60551e-17 
-5.93391 -2.68367 7.04625e-17 
-5.63583 -2.68277 8.7e-17 
[...]
POINT_DATA 1978 
VECTORS vectors float
1.63662e-06 -3.09934e-05 1 
-5.33152e-07 -1.56339e-05 1 
-3.46639e-07 -1.77914e-05 1 
-9.75896e-07 -2.70777e-05 1 
-1.69458e-06 -3.63977e-05 1 
-2.54411e-06 -4.38696e-05 1 
-3.37526e-06 -4.80059e-05 1 
-4.2269e-06 -4.95306e-05 1 
-4.53995e-06 -4.80419e-05 1 
-4.67006e-06 -4.12632e-05 1 
-5.2145e-06 -2.66791e-05 1 
-5.98051e-06 -3.68672e-06 1 
-6.70708e-06 2.50036e-05 1 
-7.57394e-06 5.82266e-05 1 
-9.10725e-06 9.76688e-05 1 
-1.16942e-05 0.000153135 1 
-1.5298e-05 0.000239281 1 
-1.89343e-05 0.00034881 1 
-2.18766e-05 0.000482417 1 
-2.54914e-05 0.000646673 1 
-2.87489e-05 0.000853484 1 
-2.99593e-05 0.00109912 0.999999 
-3.101e-05 0.00134684 0.999999 
-3.4201e-05 0.00159748 0.999999 
-4.18101e-05 0.00192018 0.999998 
-6.0883e-05 0.00239768 0.999997 
-0.000104169 0.00329912 0.999995 
-0.000170945 0.00494345 0.999988 
-0.000292294 0.00758237 0.999971 
-0.000489751 0.0125205 0.999922 
-0.000771981 0.0211065 0.999777 
-0.0010744 0.0351466 0.999382 
-0.00161232 0.057861 0.998323 
-0.00174483 0.0946314 0.995511 
-0.00218081 0.139699 0.990192 
-0.00283395 0.189332 0.981909 
-0.00410218 0.256544 0.966524 
-0.00721912 0.381694 0.924259 
-0.0107641 0.655354 0.755243 
0.00270709 0.910993 0.412414 
0.00223277 0.78013 -0.625616 
0.0197072 0.493385 -0.869587 
0.00561107 0.320593 -0.9472 
0.00235092 0.187996 -0.982167 
0.00396835 0.138791 -0.990314 
0.0019989 0.0864746 -0.996252 
0.00156827 0.0514795 -0.998673 
0.00119559 0.0305267 -0.999533 
0.000617976 0.0186606 -0.999826 
0.000401417 0.0125181 -0.999922 
0.000247049 0.00836617 -0.999965 
0.000161349 0.00547045 -0.999985 
0.000104876 0.00370476 -0.999993 
6.78526e-05 0.00264032 -0.999997 
4.74164e-05 0.00204761 -0.999998 
3.9185e-05 0.00166129 -0.999999 
3.54537e-05 0.00134158 -0.999999 
3.14527e-05 0.00107063 -0.999999 
2.82093e-05 0.000833216 -1 
2.42954e-05 0.000631432 -1 
2.05839e-05 0.000474814 -1 
1.82991e-05 0.000349491 -1 
1.51502e-05 0.000236762 -1 
1.13747e-05 0.00016272 -1 
9.24201e-06 0.000111205 -1 
7.42284e-06 7.66728e-05 -1 
6.35491e-06 4.80626e-05 -1 
5.5118e-06 2.31532e-05 -1 
5.08864e-06 1.42737e-06 -1 
5.22941e-06 -1.5657e-05 -1 
5.14775e-06 -3.04475e-05 -1 
4.48712e-06 -3.91503e-05 -1 
3.99892e-06 -4.30407e-05 -1 
3.39531e-06 -4.40222e-05 -1 
2.40959e-06 -3.98361e-05 -1 
1.509e-06 -3.06882e-05 -1 
5.08781e-07 -2.39954e-05 -1 
4.63885e-07 -2.06445e-05 -1 
-1.40861e-06 -3.09064e-05 -1 
3.00639e-05 -4.29871e-06 1 
4.34442e-06 -5.43536e-06 1 
-1.25714e-05 -1.95298e-06 1 
-2.25886e-05 -1.19483e-05 1 
-3.51931e-05 -1.96336e-05 1 
-4.22561e-05 -2.90522e-05 1 
-5.1511e-05 -3.54113e-05 1 
-5.6053e-05 -4.06636e-05 1 
-5.92736e-05 -4.19793e-05 1 
-6.93334e-05 -3.45186e-05 1 
-7.82945e-05 -1.91014e-05 1 
-8.30049e-05 4.62155e-06 1 
-9.68736e-05 3.88189e-05 1 
-0.000108144 7.7616e-05 1 
-0.000129963 0.000129617 1 
-0.00015539 0.000192601 1 
-0.000175973 0.000272733 1 
-0.000204689 0.000380296 1 
-0.000230289 0.00050965 1 
-0.000258112 0.000665266 1 
-0.000276229 0.000863677 1 
-0.000304673 0.00109068 0.999999 
-0.000333606 0.00133226 0.999999 
-0.000323737 0.00164255 0.999999 
-0.000377819 0.00205799 0.999998 
-0.000421946 0.00275068 0.999996 
-0.000499703 0.00400903 0.999992 
-0.000645283 0.00617331 0.999981 
-0.000838333 0.0100158 0.99995 
-0.0011178 0.0171958 0.999852 
-0.00093881 0.0289692 0.99958 
6.58868e-05 0.0480669 0.998844 
0.00200721 0.0767262 0.99705 
0.00515832 0.11738 0.993074 
0.0135814 0.16862 0.985588 
0.0141271 0.229671 0.973166 
0.0136392 0.321438 0.946832 
0.0137621 0.484205 0.874846 
0.0398829 0.63022 0.775393 
0.0540161 0.900321 0.431863 
-0.0156874 0.807017 -0.59032 
-0.000948345 0.485024 -0.874501 
-0.00178466 0.244277 -0.969704 
-0.00268802 0.156934 -0.987606 
0.0014712 0.108454 -0.994101 
0.00141192 0.0727422 -0.99735 
0.001471 0.046533 -0.998916 
0.00109339 0.0292855 -0.999571 
0.000548734 0.0186044 -0.999827 
0.000322419 0.0122386 -0.999925 
0.000367565 0.00818468 -0.999967 
0.000398048 0.00556468 -0.999985 
0.000361802 0.00375893 -0.999993 
0.000356603 0.00267344 -0.999997 
0.000352879 0.00203247 -0.999998 
0.000326456 0.00160118 -0.999999 
0.000313896 0.0012789 -0.999999 
0.000295787 0.00101655 -1 
0.00028574 0.000796437 -1 
0.000266474 0.000617717 -1 
0.000241482 0.00047559 -1 
0.000203563 0.000354151 -1 
0.000191924 0.000265444 -1 
0.000150252 0.000187815 -1 
0.00012695 0.000133195 -1 
0.000109311 9.04387e-05 -1 
9.78055e-05 5.61952e-05 -1 
8.82511e-05 2.62786e-05 -1 
8.09272e-05 2.04238e-06 -1 
6.59317e-05 -1.68812e-05 -1 
6.4578e-05 -2.7937e-05 -1 
6.76466e-05 -3.11093e-05 -1 
4.89918e-05 -3.44491e-05 -1 
4.69379e-05 -2.87262e-05 -1 
2.99641e-05 -2.66215e-05 -1 
2.4955e-05 -1.51111e-05 -1 
1.51346e-05 -6.74573e-06 -1 
-1.58136e-06 -9.88529e-06 -1 
-2.47911e-05 -5.73289e-06 -1 
3.37958e-05 3.45679e-05 1 
-1.62208e-06 2.2117e-05 1 
-2.90245e-05 2.1002e-05 1 
-4.63905e-05 8.65143e-06 1 
-6.59478e-05 1.7299e-06 1 
-7.93998e-05 -1.04771e-05 1 
-9.47005e-05 -1.98324e-05 1 
-0.000106902 -2.81671e-05 1 
-0.000109895 -3.30471e-05 1 
-0.000125202 -2.68271e-05 1 
-0.000133856 -9.84355e-06 1 
-0.000142531 1.79248e-05 1 
-0.000159789 5.75772e-05 1 
-0.000185249 0.000110733 1 
-0.000219241 0.000171675 1 
-0.000264598 0.000242965 1 
-0.00030623 0.000318715 1 
-0.000358953 0.000415116 1 
-0.000405049 0.000523062 1 
-0.000456581 0.00065617 1 
-0.00049499 0.000819818 1 
-0.000534546 0.001016 0.999999 
-0.000569185 0.00123842 0.999999 
-0.000562497 0.00154496 0.999999 
-0.000589849 0.0019586 0.999998 
-0.000604717 0.00267394 0.999996 
-0.000677376 0.00387168 0.999992 
-0.000811143 0.00583684 0.999983 
-0.000985297 0.00940972 0.999955 
-0.00104625 0.015842 0.999874 
-0.00034179 0.026408 0.999651 
0.00150897 0.0438982 0.999035 
0.00617805 0.0732217 0.997297 
0.0184241 0.111523 0.993591 
0.043132 0.153151 0.987261 
0.0501278 0.214243 0.975493 
0.041292 0.302867 0.952138 
0.0475032 0.447312 0.893116 
0.10168 0.558841 0.823018 
0.0954011 0.925808 0.365757 
-0.0069438 0.952149 -0.30556 
-0.0231123 0.426948 -0.903981 
-0.00963447 0.261011 -0.965288 
-0.0208963 0.171941 -0.984886 
-0.0195099 0.116026 -0.993055 
-0.00843891 0.0894618 -0.995955 
-0.00189357 0.059245 -0.998242 
-0.00056611 0.036822 -0.999322 
0.000114763 0.0230243 -0.999735 
0.00013739 0.0144858 -0.999895 
0.000244917 0.00953258 -0.999955 
0.000360565 0.00635336 -0.99998 
0.000457445 0.00432716 -0.999991 
0.000507927 0.00297169 -0.999996 
0.00055401 0.00216066 -0.999998 
0.000562341 0.00166642 -0.999999 
0.000556191 0.00131429 -0.999999 
0.000536643 0.00104548 -0.999999 
0.00051197 0.000832924 -1 
0.000479187 0.000663283 -1 
0.000434699 0.000533697 -1 
0.000375893 0.000421947 -1 
0.000338439 0.000340912 -1 
0.000276551 0.000260019 -1 
0.000229712 0.000192519 -1 
0.000192791 0.000132587 -1 
0.00016853 8.22101e-05 -1 
0.00014991 3.98669e-05 -1 
0.00014034 8.36051e-06 -1 
0.000124316 -1.27609e-05 -1 
0.000120826 -2.10211e-05 -1 
0.000118004 -1.85035e-05 -1 
9.44208e-05 -1.85858e-05 -1 
8.91785e-05 -8.47526e-06 -1 
6.3277e-05 -8.66289e-06 -1 
5.00184e-05 4.07467e-06 -1 
3.34835e-05 1.76106e-05 -1 
6.15851e-06 1.56597e-05 -1 
-2.59904e-05 2.94443e-05 -1 
2.33412e-05 7.74078e-05 1 
-9.46162e-06 5.38332e-05 1 
-4.19352e-05 4.91755e-05 1 
-6.59815e-05 3.58407e-05 1 
-8.92696e-05 2.56653e-05 1 
-0.00010737 1.12562e-05 1 
-0.000126791 -1.16053e-06 1 
-0.000143079 -1.36915e-05 1 
-0.000152704 -2.15466e-05 1 
-0.000170013 -1.61637e-05 1 
-0.000182139 3.68669e-06 1 
-0.00019555 3.89931e-05 1 
-0.000216456 9.0964e-05 1 
-0.000248462 0.000156954 1 
-0.000288787 0.0002319 1 
-0.000341303 0.000314721 1 
-0.000387574 0.000386251 1 
-0.000448813 0.000478911 1 
-0.000504628 0.000575152 1 
-0.000564683 0.00069131 1 
-0.00061359 0.000832213 1 
-0.000653004 0.0010035 0.999999 
-0.000683017 0.00121428 0.999999 
-0.000678861 0.00149321 0.999999 
-0.000667119 0.00192152 0.999998 
-0.000599912 0.00261806 0.999997 
-0.000551347 0.00377624 0.999993 
-0.000514866 0.00571171 0.999984 
-0.000381611 0.0089207 0.99996 
0.000257671 0.0145487 0.999894 
0.00208215 0.0227468 0.999739 
0.0054562 0.0358721 0.999342 
0.0131212 0.0587766 0.998185 
0.0303393 0.0875943 0.995694 
0.0627947 0.11906 0.9909 
0.0976865 0.174482 0.979803 
0.0897371 0.264046 0.960326 
0.0833171 0.373806 0.923757 
0.0763378 0.707426 0.702654 
0.00860095 0.999282 0.036647 
-0.0342591 0.624639 -0.780164 
-0.093187 0.436021 -0.895099 
-0.0651734 0.21256 -0.974972 
-0.053456 0.137473 -0.989062 
-0.0392219 0.0890695 -0.995253 
-0.0194376 0.0674461 -0.997534 
-0.00843441 0.0489728 -0.998765 
-0.00470059 0.0304193 -0.999526 
-0.00206799 0.0196605 -0.999805 
-0.00109836 0.0128412 -0.999917 
-0.000488665 0.00867897 -0.999962 
-5.38199e-05 0.00597521 -0.999982 
0.000273835 0.00409611 -0.999992 
0.000470189 0.00287697 -0.999996 
0.000612808 0.00212788 -0.999998 
0.000670775 0.00162689 -0.999999 
0.00067227 0.0012859 -0.999999 
0.000652832 0.00103962 -0.999999 
0.000626919 0.000848059 -1 
0.00058482 0.000699211 -1 
0.000533544 0.000583122 -1 
0.000469335 0.000484142 -1 
0.000411085 0.000402543 -1 
0.000342597 0.000315226 -1 
0.000291196 0.000239974 -1 
0.000249061 0.000165089 -1 
0.000222753 0.000102917 -1 
0.000200069 5.05406e-05 -1 
0.000186326 1.40104e-05 -1 
0.000168644 -7.25044e-06 -1 
0.000161855 -1.18576e-05 -1 
0.000152861 -4.76301e-06 -1 
0.000129815 5.61953e-07 -1 
0.000113219 1.43849e-05 -1 
8.57236e-05 1.64891e-05 -1 
6.74333e-05 3.1085e-05 -1 
4.48114e-05 4.61543e-05 -1 
1.30663e-05 4.5735e-05 -1 
-1.55305e-05 6.85969e-05 -1 
3.59497e-06 0.000114323 1 
-2.4832e-05 8.51277e-05 1 
-5.55926e-05 7.76341e-05 1 
-7.8105e-05 6.20951e-05 1 
-0.000102237 5.11932e-05 1 
-0.000122308 3.41245e-05 1 
-0.000143209 1.8027e-05 1 
-0.000160954 6.75253e-07 1 
-0.000176234 -8.83905e-06 1 
-0.000194383 -3.30049e-06 1 
-0.000210758 2.07838e-05 1 
-0.000227764 6.53806e-05 1 
-0.000252154 0.000128414 1 
-0.000285659 0.000209125 1 
-0.000327791 0.000296203 1 
-0.000381313 0.000386711 1 
-0.000436661 0.00046623 1 
-0.000500938 0.000559148 1 
-0.000559996 0.000647531 1 
-0.000616472 0.000746868 1 
-0.000661305 0.000864891 1 
-0.000690197 0.00101834 0.999999 
-0.000699723 0.00122338 0.999999 
-0.000692155 0.00148632 0.999999 
-0.000630406 0.00191089 0.999998 
-0.000475239 0.00262629 0.999997 
-0.000271996 0.00377793 0.999993 
4.08233e-05 0.00558741 0.999985 
0.000571534 0.00870451 0.999962 
0.00198266 0.0130608 0.999913 
0.00497784 0.0194473 0.999799 
0.0101632 0.0298343 0.999503 
0.0196705 0.046087 0.998744 
0.0391191 0.0652118 0.997104 
0.0639866 0.0724487 0.995318 
0.104046 0.110852 0.988376 
0.162262 0.187342 0.9688 
0.146949 0.272523 0.950861 
0.135177 0.388028 0.91168 
0.125516 0.799433 0.587496 
-0.044763 0.858716 -0.510495 
-0.029099 0.272802 -0.96163 
-0.110444 0.181971 -0.977082 
-0.0805683 0.105151 -0.991187 
-0.0518887 0.0626196 -0.996688 
-0.0280042 0.0496665 -0.998373 
-0.0144626 0.0382748 -0.999163 
-0.00811595 0.0233386 -0.999695 
-0.00445194 0.0160359 -0.999862 
-0.00243443 0.0107621 -0.999939 
-0.0012531 0.00750704 -0.999971 
-0.000474221 0.00519651 -0.999987 
5.16737e-05 0.00365455 -0.999993 
0.000396486 0.00260122 -0.999997 
0.000602659 0.00193666 -0.999998 
0.000676907 0.00151521 -0.999999 
0.000689413 0.00121355 -0.999999 
0.000685468 0.000996029 -0.999999 
0.0006664 0.000838758 -1 
0.000621103 0.000715709 -1 
0.000566435 0.000624694 -1 
0.000499041 0.000530775 -1 
0.000429726 0.000444703 -1 
0.000368355 0.00036096 -1 
0.000315474 0.000271634 -1 
0.000277709 0.000190411 -1 
0.000250382 0.000117355 -1 
0.000228832 5.84368e-05 -1 
0.000213922 2.0894e-05 -1 
0.00019531 -9.17034e-08 -1 
0.000183923 -1.6623e-06 -1 
0.000168531 9.86601e-06 -1 
0.000146871 1.997e-05 -1 
0.000127025 3.7842e-05 -1 
0.000101289 4.24808e-05 -1 
7.94921e-05 5.79853e-05 -1 
5.69005e-05 7.46534e-05 -1 
2.61563e-05 7.82151e-05 -1 
2.20574e-06 0.000105764 -1 
-2.60155e-05 0.000149092 1 
-3.54981e-05 0.000119858 1 
-5.84746e-05 0.000106217 1 
-8.15053e-05 9.17106e-05 1 
-0.000102087 7.89825e-05 1 
-0.000122553 6.18079e-05 1 
-0.000141938 4.41055e-05 1 
-0.000160887 2.36101e-05 1 
-0.000179131 7.42413e-06 1 
-0.000197051 4.89873e-06 1 
-0.00021707 2.1441e-05 1 
-0.000237265 6.0326e-05 1 
-0.000260329 0.000120555 1 
-0.000288755 0.000201064 1 
-0.000326457 0.000297545 1 
-0.000372866 0.000395867 1 
-0.000429691 0.000493135 1 
-0.00048818 0.000579976 1 
-0.00055075 0.000671129 1 
-0.000606693 0.000753281 1 
-0.000652459 0.000841667 1 
-0.000681081 0.000946713 0.999999 
-0.00069121 0.00109831 0.999999 
-0.000674561 0.0012904 0.999999 
-0.000627751 0.00155302 0.999999 
-0.000475114 0.00202917 0.999998 
-0.000187428 0.00285278 0.999996 
0.000226587 0.00405703 0.999992 
0.000916805 0.00618442 0.999981 
0.00220738 0.0089122 0.999958 
0.00467455 0.0128836 0.999906 
0.00978159 0.0192008 0.999768 
0.0187861 0.0281423 0.999428 
0.0332219 0.0376624 0.998738 
0.0538429 0.0377113 0.997837 
0.0978564 0.0614621 0.993301 
0.173234 0.117828 0.977807 
0.217799 0.423317 0.879413 
0.162483 0.668879 0.725397 
0.032009 0.998143 0.0518253 
-0.091177 0.695511 -0.712709 
-0.140435 0.318345 -0.937515 
-0.115106 0.0871246 -0.989525 
-0.0742938 0.0482798 -0.996067 
-0.0403727 0.0330198 -0.998639 
-0.0243543 0.0279501 -0.999313 
-0.0146042 0.0234996 -0.999617 
-0.00912296 0.0152375 -0.999842 
-0.00546939 0.011582 -0.999918 
-0.00317899 0.00842144 -0.99996 
-0.00176495 0.00627351 -0.999979 
-0.000829784 0.00451755 -0.99999 
-0.000116269 0.00321895 -0.999995 
0.000313582 0.00235642 -0.999997 
0.00054617 0.00180592 -0.999998 
0.000643919 0.00143307 -0.999999 
0.000678085 0.00118831 -0.999999 
0.000689472 0.0010085 -0.999999 
0.000679114 0.000879645 -1 
0.000643363 0.000777821 -1 
0.000591785 0.000697835 -1 
0.000524048 0.000604269 -1 
0.000457588 0.000517422 -1 
0.000391945 0.000424894 -1 
0.000340713 0.000322779 -1 
0.000302039 0.00022769 -1 
0.000272772 0.000144431 -1 
0.000248219 7.69259e-05 -1 
0.000227421 3.4536e-05 -1 
0.000208295 1.13083e-05 -1 
0.00018976 1.07145e-05 -1 
0.000171404 2.56356e-05 -1 
0.000151741 3.86201e-05 -1 
0.000130951 5.91856e-05 -1 
0.0001087 6.68435e-05 -1 
8.69937e-05 8.37153e-05 -1 
6.72288e-05 0.000101286 -1 
4.15104e-05 0.000107173 -1 
2.19973e-05 0.000134761 -1 
-4.3084e-05 0.000164248 1 
-5.43459e-05 0.000139031 1 
-7.2106e-05 0.000122728 1 
-9.01309e-05 0.000111203 1 
-0.00010961 9.52749e-05 1 
-0.000127968 7.7919e-05 1 
-0.000146845 5.60495e-05 1 
-0.000165904 3.44236e-05 1 
-0.000184141 2.07243e-05 1 
-0.000203846 2.1202e-05 1 
-0.000226862 4.51136e-05 1 
-0.000249164 9.2373e-05 1 
-0.000274948 0.000164379 1 
-0.000304434 0.00025547 1 
-0.000343066 0.000364281 1 
-0.000390934 0.000473903 1 
-0.000443479 0.000580409 1 
-0.000500704 0.000672272 1 
-0.000554032 0.000763018 1 
-0.000600793 0.000838822 1 
-0.00062814 0.000912736 1 
-0.000648978 0.000994176 0.999999 
-0.00065432 0.00110486 0.999999 
-0.000627859 0.00123836 0.999999 
-0.00055286 0.00147216 0.999999 
-0.000351559 0.00185989 0.999998 
-8.36988e-07 0.00245064 0.999997 
0.000593035 0.00362865 0.999993 
0.00141712 0.00490521 0.999987 
0.00277728 0.0067205 0.999974 
0.00557152 0.00990878 0.999936 
0.0101454 0.0127164 0.999868 
0.0176061 0.0159375 0.999718 
0.029 0.018503 0.999408 
0.0422713 0.0110926 0.999045 
0.0808731 0.0215205 0.996492 
0.157048 0.056073 0.985998 
0.250493 0.299485 0.920631 
0.189681 0.542344 0.818464 
0.192002 0.831721 0.520938 
-0.149406 0.651117 -0.744129 
-0.166896 0.146956 -0.974961 
-0.11998 0.0395511 -0.991988 
-0.0669608 0.0165729 -0.997618 
-0.0362515 0.0132314 -0.999255 
-0.0216988 0.0127467 -0.999683 
-0.0137832 0.0128027 -0.999823 
-0.00838513 0.0089254 -0.999925 
-0.0052493 0.00762492 -0.999957 
-0.00317474 0.00621868 -0.999976 
-0.00180772 0.00478334 -0.999987 
-0.000765785 0.00341662 -0.999994 
-7.97958e-05 0.00252329 -0.999997 
0.000329912 0.00194296 -0.999998 
0.000538822 0.00156062 -0.999999 
0.000617523 0.00129632 -0.999999 
0.000643333 0.00111815 -0.999999 
0.000650477 0.00099336 -0.999999 
0.000645526 0.00090125 -1 
0.000616803 0.000828384 -1 
0.00056672 0.000741039 -1 
0.000505428 0.000654395 -1 
0.000441373 0.000551991 -1 
0.000379217 0.000444571 -1 
0.00033522 0.000334069 -1 
0.000300049 0.000232605 -1 
0.000272288 0.000145019 -1 
0.000249015 8.12805e-05 -1 
0.00022753 4.07097e-05 -1 
0.000209348 2.21759e-05 -1 
0.000188561 2.49702e-05 -1 
0.000166749 4.23414e-05 -1 
0.000148933 5.85597e-05 -1 
0.000128251 8.10273e-05 -1 
0.000109593 8.98013e-05 -1 
9.04406e-05 0.000107601 -1 
7.21266e-05 0.000124428 -1 
5.22756e-05 0.000131735 -1 
3.86944e-05 0.0001562 -1 
-5.3263e-05 0.000174682 1 
-5.95909e-05 0.000157334 1 
-7.08174e-05 0.00014261 1 
-8.41646e-05 0.000131733 1 
-9.99762e-05 0.000117145 1 
-0.000115807 0.000100849 1 
-0.000132658 7.87586e-05 1 
-0.000149687 5.6036e-05 1 
-0.000165628 3.99084e-05 1 
-0.000184077 3.53089e-05 1 
-0.000206944 4.95474e-05 1 
-0.000228228 9.45451e-05 1 
-0.000254045 0.000161144 1 
-0.000280365 0.000251607 1 
-0.000313261 0.000358425 1 
-0.000354598 0.000480898 1 
-0.000399262 0.000602623 1 
-0.000448632 0.000714189 1 
-0.000491452 0.000809557 1 
-0.00052865 0.000889814 1 
-0.000550825 0.000950183 1 
-0.000568262 0.000995807 0.999999 
-0.000577155 0.00104936 0.999999 
-0.000563794 0.00111842 0.999999 
-0.000510174 0.00123603 0.999999 
-0.00036913 0.00145293 0.999999 
-4.34318e-05 0.00175174 0.999999 
0.000488406 0.002489 0.999997 
0.00125094 0.0032115 0.999994 
0.00232412 0.00416956 0.999989 
0.00431862 0.00595607 0.999973 
0.00751341 0.00713412 0.999946 
0.0127359 0.00746456 0.999891 
0.0206256 0.00453478 0.999777 
0.0325227 -0.00684638 0.999448 
0.0669991 -0.012456 0.997675 
0.138413 -0.000512764 0.990375 
0.281966 0.146701 0.948143 
0.286073 0.652046 0.702139 
0.01656 0.993904 -0.108967 
-0.225333 0.529091 -0.818101 
-0.236231 0.206884 -0.949418 
-0.102723 -0.0147077 -0.994601 
-0.0518859 -0.0127541 -0.998572 
-0.0287476 -0.00471976 -0.999576 
-0.0173931 0.00166376 -0.999848 
-0.0121425 0.00574062 -0.99991 
-0.00745043 0.00503308 -0.99996 
-0.00478604 0.00505474 -0.999976 
-0.00307514 0.00454228 -0.999985 
-0.00177727 0.00362347 -0.999992 
-0.000772299 0.0026679 -0.999996 
-8.81794e-05 0.0020332 -0.999998 
0.000281048 0.00165995 -0.999999 
0.000468866 0.0014174 -0.999999 
0.000539092 0.00121977 -0.999999 
0.000560745 0.00110072 -0.999999 
0.000568583 0.00102141 -0.999999 
0.000582924 0.0009647 -0.999999 
0.000558786 0.000902913 -1 
0.000534081 0.000825674 -1 
0.000468926 0.000733378 -1 
0.000422872 0.000624999 -1 
0.000367464 0.000504943 -1 
0.000320009 0.000373904 -1 
0.00028714 0.000265228 -1 
0.00025856 0.00016802 -1 
0.00023315 9.71903e-05 -1 
0.000209258 5.5151e-05 -1 
0.000190727 3.66122e-05 -1 
0.000170892 4.11117e-05 -1 
0.00015006 6.17499e-05 -1 
0.000139129 7.68749e-05 -1 
0.000119601 9.95395e-05 -1 
0.000105819 0.000109832 -1 
8.80047e-05 0.000126719 -1 
7.27307e-05 0.000142081 -1 
5.89731e-05 0.000151025 -1 
5.03109e-05 0.000171278 -1 
-5.77715e-05 0.000180612 1 
-6.05376e-05 0.00016683 1 
-6.77943e-05 0.000155515 1 
-7.71234e-05 0.000145309 1 
-8.97526e-05 0.000131464 1 
-0.000102132 0.000115467 1 
-0.00011647 9.32064e-05 1 
-0.000130227 7.03649e-05 1 
-0.000143259 5.40191e-05 1 
-0.000160929 5.01214e-05 1 
-0.000184604 6.7089e-05 1 
-0.000202186 0.0001131 1 
-0.000228289 0.000183154 1 
-0.000253314 0.00027927 1 
-0.000284733 0.000393736 1 
-0.000317542 0.000521319 1 
-0.000353919 0.000658142 1 
-0.000389555 0.000782956 1 
-0.000421612 0.000886702 1 
-0.000437814 0.000961632 1 
-0.00046068 0.00101082 1 
-0.000471419 0.00103268 0.999999 
-0.000475663 0.00104295 0.999999 
-0.00046525 0.00105851 0.999999 
-0.000424224 0.00110391 0.999999 
-0.000306653 0.00120734 0.999999 
-6.04538e-05 0.00131299 0.999999 
0.00039608 0.00172678 0.999999 
0.00101396 0.00202197 0.999998 
0.00201131 0.00262024 0.999995 
0.00356685 0.0033993 0.999988 
0.00598407 0.00354521 0.999976 
0.00959257 0.00226161 0.999952 
0.014419 -0.0033548 0.999891 
0.0178688 -0.0171424 0.999694 
0.0425292 -0.0390366 0.998333 
0.105421 -0.0697308 0.99198 