# vtk DataFile Version 3.0 
Exported using Morpho https://github.com/Morpho-lang/morpho 
ASCII 
DATASET UNSTRUCTURED_GRID 

POINTS 1978 float 
-12 -4 1.07456e-11 
-11.5999 -4.00001 4.02017e-12 
-11.2982 -4.00001 -9.11469e-12 
-10.9554 -4.00001 -1.11154e-11 
-10.6442 -4.00001 -1.99107e-11 
-10.3119 -4.00001 -1.69619e-11 
-9.98857 -4.00001 -1.71758e-11 
-9.65588 -4.00001 -2.26607e-11 
-9.30663 -4.00001 -1.0158e-11 
-8.99035 -4.00001 -1.04511e-11 
-8.68897 -4.00001 -9.06244e-12 
-8.3739 -4.00001 -7.94297e-12 
-8.07438 -4.00001 -1.51898e-11 
-7.76989 -4.00001 -1.45306e-11 
-7.47859 -4.00001 -1.671e-11 
-7.19164 -4.00001 -1.92159e-11 
-6.88873 -4.00001 -1.64127e-11 
-6.59318 -4.00001 -1.43479e-11 
-6.28978 -4.00001 -6.79084e-12 
-5.9836 -4.00001 -2.18098e-11 
-5.68384 -4.00001 -4.37663e-11 
-5.38217 -4.00001 -3.70142e-11 
-5.08941 -4.00001 -2.9752e-11 
-4.80434 -4.00001 -4.40451e-11 
-4.49004 -4.00001 -1.2824e-10 
-4.20263 -4.00001 -9.70761e-11 
-3.90319 -4.00001 -7.49855e-11 
-3.58248 -4.00001 -1.47723e-10 
-3.27 -4.00001 -5.02393e-10 
-2.93839 -4.00001 -9.1223e-10 
-2.61911 -4.00001 -8.08845e-10 
-2.31534 -4 2.68134e-09 
-2.02312 -4.00001 2.4894e-08 
-1.72164 -4.00001 8.81343e-08 
-1.48105 -3.99999 2.04409e-07 
-1.30563 -3.99999 5.48659e-07 
-1.12497 -3.99998 2.27351e-06 
-0.912275 -3.99997 2.07188e-05 
-0.611117 -3.9999 8.85408e-05 
-0.376671 -4.00043 0.000142383 
0.586247 -4.00006 -2.59119e-05 
0.795221 -3.99985 -3.09773e-05 
0.981602 -3.99992 -6.39426e-06 
1.25664 -4.00002 -1.20438e-06 
1.4343 -4.00001 -2.98585e-07 
1.67162 -4.00001 -7.48717e-08 
1.965 -4 -1.56375e-08 
2.27636 -4.00001 -5.55099e-10 
2.61482 -4.00001 -5.03667e-10 
2.94967 -4.00001 5.86157e-10 
3.27481 -4.00001 4.29993e-10 
3.58992 -4.00001 3.72683e-10 
3.89059 -4.00001 2.24234e-10 
4.20189 -4.00001 1.3261e-10 
4.50383 -4.00001 1.09723e-10 
4.79958 -4.00001 7.08303e-11 
5.10888 -4.00001 1.71055e-11 
5.41222 -4.00001 3.89211e-11 
5.71213 -4.00001 4.50675e-11 
6.00597 -4.00001 1.01926e-11 
6.29946 -4.00001 -1.91837e-13 
6.58911 -4.00001 1.6088e-11 
6.89623 -4.00001 2.60348e-11 
7.17384 -4.00001 2.21114e-11 
7.47482 -4.00001 1.48975e-11 
7.77223 -4.00001 5.96663e-12 
8.06989 -4.00001 7.39582e-12 
8.36282 -4.00001 -1.65878e-13 
8.65395 -4.00001 -8.27406e-13 
8.94529 -4.00001 3.8665e-12 
9.28032 -4.00001 1.23389e-11 
9.60879 -4.00001 1.59518e-11 
9.90397 -4.00001 1.51726e-11 
10.2711 -4.00001 3.21684e-11 
10.5864 -4.00001 1.8512e-11 
10.9823 -4.00001 1.3386e-11 
11.3011 -4.00001 1.90395e-12 
11.5928 -4.00001 -3.26411e-12 
12 -4 -1.19051e-11 
-12 -3.61985 -1.10408e-12 
-11.706 -3.71844 -1.90822e-13 
-11.3571 -3.63101 8.86364e-13 
-11.0435 -3.67624 1.1783e-12 
-10.7103 -3.64726 1.39933e-12 
-10.3947 -3.67163 6.28724e-13 
-10.0624 -3.66556 2.58564e-12 
-9.73558 -3.67825 2.23757e-12 
-9.3946 -3.69415 9.22307e-13 
-9.05306 -3.66807 -2.14731e-13 
-8.74137 -3.6565 -1.03726e-12 
-8.43423 -3.67435 1.04078e-12 
-8.11887 -3.66079 1.28679e-12 
-7.81245 -3.66929 1.33478e-12 
-7.5017 -3.66034 2.18875e-12 
-7.20132 -3.65864 2.58435e-12 
-6.89461 -3.67092 3.53834e-12 
-6.58432 -3.67265 1.29273e-12 
-6.26836 -3.67541 5.02901e-13 
-5.95946 -3.67074 -9.15558e-13 
-5.64964 -3.67376 -2.61092e-12 
-5.34778 -3.66406 -3.33429e-12 
-5.05403 -3.65546 6.56932e-12 
-4.73591 -3.68814 6.64235e-12 
-4.43508 -3.65659 1.67254e-11 
-4.1275 -3.66699 1.48622e-11 
-3.80141 -3.68332 -2.63832e-11 
-3.47594 -3.6634 2.87128e-11 
-3.13718 -3.67729 -8.41308e-11 
-2.79382 -3.66682 -5.24356e-10 
-2.4676 -3.65275 -1.8439e-09 
-2.14961 -3.6626 -9.79376e-09 
-1.86009 -3.70759 -2.52707e-08 
-1.58562 -3.66027 1.25182e-08 
-1.35796 -3.59914 6.47407e-08 
-1.18811 -3.70051 2.77914e-08 
-1.00185 -3.81343 -3.3662e-06 
-0.791716 -3.88821 -1.38082e-05 
-0.604708 -3.86052 -4.05301e-05 
-0.30696 -3.89297 -8.83545e-06 
0.488659 -3.90443 -1.15435e-05 
0.775175 -3.8035 1.41368e-05 
1.10668 -3.88481 3.42764e-06 
1.32107 -3.67735 -9.29396e-08 
1.53037 -3.70717 -6.41788e-11 
1.77374 -3.70867 2.1872e-08 
2.05614 -3.69826 6.66909e-09 
2.34091 -3.68589 1.84548e-09 
2.65702 -3.68011 4.67241e-10 
2.98282 -3.67471 7.69965e-11 
3.3043 -3.662 9.59631e-11 
3.61361 -3.65514 -5.29696e-11 
3.92992 -3.66814 -2.83877e-12 
4.23754 -3.66175 -6.26695e-12 
4.53595 -3.66031 -1.11637e-11 
4.84425 -3.6783 -7.18556e-12 
5.1512 -3.67404 -3.26275e-12 
5.45484 -3.67129 1.78456e-12 
5.75524 -3.66411 2.76237e-13 
6.05288 -3.66377 3.00708e-12 
6.35038 -3.66024 4.43708e-14 
6.65571 -3.67895 -2.06344e-12 
6.94653 -3.64214 -1.92481e-12 
7.24585 -3.66984 -1.99198e-12 
7.54619 -3.66575 -2.22349e-12 
7.84639 -3.66459 -8.97477e-13 
8.14109 -3.65794 -8.79507e-13 
8.44026 -3.65584 1.24962e-12 
8.74002 -3.65365 -2.1597e-13 
9.05983 -3.6977 5.84248e-13 
9.3857 -3.68324 -1.33038e-13 
9.69599 -3.64137 -1.66724e-12 
10.032 -3.71002 -1.15462e-12 
10.3596 -3.65725 -1.48314e-12 
10.725 -3.72318 -1.3636e-12 
11.0594 -3.65246 -6.29382e-13 
11.3619 -3.61888 -7.13464e-13 
11.7137 -3.72571 6.88231e-14 
12 -3.60811 6.45743e-13 
-12 -3.31277 1.01623e-11 
-11.6379 -3.37402 -2.41062e-12 
-11.2962 -3.28957 -3.11837e-13 
-10.9812 -3.33544 1.72321e-12 
-10.6622 -3.29977 -1.08339e-12 
-10.3378 -3.34099 2.11276e-12 
-10.009 -3.33505 -1.06815e-12 
-9.69133 -3.33596 1.30943e-12 
-9.38693 -3.38034 6.82741e-13 
-9.08004 -3.32753 8.48156e-13 
-8.77454 -3.31761 1.2598e-12 
-8.4694 -3.33503 6.0218e-13 
-8.16696 -3.33513 3.56848e-13 
-7.8545 -3.33168 1.09105e-13 
-7.55352 -3.33002 3.9332e-13 
-7.24906 -3.31939 -4.93938e-13 
-6.94522 -3.3493 3.93062e-13 
-6.63444 -3.34449 -8.98256e-13 
-6.3279 -3.35206 -2.06336e-14 
-6.02002 -3.34319 -5.66854e-13 
-5.71442 -3.34878 -8.02914e-13 
-5.40945 -3.33418 -6.75682e-13 
-5.10868 -3.31645 3.68953e-12 
-4.8047 -3.36743 1.02447e-11 
-4.49912 -3.32879 7.7985e-12 
-4.18836 -3.33622 -9.67827e-12 
-3.87128 -3.3635 1.00193e-12 
-3.54849 -3.34108 -2.27601e-11 
-3.20857 -3.35385 4.36401e-11 
-2.86334 -3.35154 4.80077e-10 
-2.51502 -3.32155 9.98133e-10 
-2.17308 -3.34277 5.80267e-09 
-1.83797 -3.37588 3.63067e-08 
-1.53906 -3.33235 4.64939e-08 
-1.27332 -3.26668 1.16685e-08 
-1.10757 -3.39695 9.38684e-09 
-0.980232 -3.6045 -5.23688e-08 
-0.782738 -3.72067 -3.15226e-08 
-0.610367 -3.65413 5.42003e-06 
-0.190325 -3.81297 5.1283e-05 
0.256937 -3.91094 2.01754e-05 
0.826041 -3.71221 -8.69752e-06 
1.06086 -3.70024 -1.26318e-07 
1.19598 -3.46299 -1.47679e-07 
1.38686 -3.30301 -4.84396e-08 
1.58138 -3.37934 1.50593e-08 
1.86294 -3.4124 -1.84533e-08 
2.165 -3.36396 -2.72055e-09 
2.48795 -3.36639 -7.53505e-10 
2.83406 -3.36047 -8.92539e-11 
3.17604 -3.34185 -7.41439e-11 
3.51448 -3.31967 3.9922e-11 
3.84217 -3.33993 -2.3984e-11 
4.16596 -3.3304 -1.28187e-12 
4.47889 -3.32116 -7.25748e-12 
4.7828 -3.35055 -4.84488e-12 
5.0893 -3.35216 -3.61946e-12 
5.39938 -3.34575 -2.67699e-12 
5.70487 -3.33673 2.37018e-12 
6.01234 -3.32757 -6.4485e-13 
6.30991 -3.32595 3.42201e-13 
6.61285 -3.34522 -9.40477e-13 
6.911 -3.30599 1.61534e-12 
7.21124 -3.33169 -1.13147e-12 
7.50984 -3.33278 1.51658e-12 
7.81294 -3.3337 5.21242e-13 
8.12128 -3.31883 -1.23774e-13 
8.42403 -3.32493 -3.93358e-13 
8.73647 -3.32162 3.33805e-15 
9.05647 -3.37837 -6.09975e-13 
9.38106 -3.35312 -1.23962e-12 
9.69053 -3.29633 5.41749e-15 
10.0032 -3.38677 -1.84906e-12 
10.3087 -3.31154 8.66808e-13 
10.6355 -3.40878 -1.01995e-12 
10.9669 -3.33899 -4.7669e-13 
11.2968 -3.26164 7.37922e-13 
11.6317 -3.37811 2.33105e-12 
12 -3.30428 -6.71247e-12 
-12 -2.98468 1.67544e-11 
-11.6598 -3.05682 -3.62983e-12 
-11.3159 -2.97034 -5.24379e-13 
-10.9708 -2.9859 -4.84414e-13 
-10.6325 -2.96992 7.90278e-13 
-10.3065 -3.0083 3.103e-13 
-9.98695 -2.99616 3.1833e-13 
-9.66985 -2.99877 -2.98614e-13 
-9.35372 -3.0314 3.81138e-13 
-9.04503 -2.98274 -6.11649e-13 
-8.73889 -2.97788 -1.18006e-13 
-8.43781 -2.99608 4.10862e-13 
-8.12596 -3.00866 8.8365e-14 
-7.82502 -2.9929 5.14197e-14 
-7.52049 -2.99521 -6.98528e-13 
-7.2178 -2.98446 3.35504e-13 
-6.91737 -3.0268 3.57818e-13 
-6.61059 -3.01534 1.06372e-12 
-6.30553 -3.02369 2.35603e-13 
-6.00017 -3.01423 5.16818e-13 
-5.69755 -3.01868 6.0427e-13 
-5.39677 -3.00003 3.65328e-12 
-5.09653 -2.98286 -3.03073e-12 
-4.79848 -3.0388 7.06575e-12 
-4.49671 -2.99663 -3.76522e-12 
-4.19193 -3.01042 -1.95749e-12 
-3.87884 -3.03997 5.24329e-11 
-3.55242 -3.01702 -1.52045e-11 
-3.22334 -3.03589 3.99753e-11 
-2.8772 -3.03405 2.71412e-11 
-2.54621 -2.98741 4.54298e-10 
-2.20851 -3.02156 -4.26588e-10 
-1.8645 -3.06566 -2.98616e-09 
-1.54361 -3.0351 1.30449e-09 
-1.23031 -2.99307 -1.02146e-08 
-0.97929 -3.08847 -3.88979e-08 
-0.894272 -3.33175 -4.68057e-08 
-0.795603 -3.52116 1.34532e-08 
-0.502084 -3.79267 -1.91036e-06 
-0.0174295 -3.94792 4.83723e-08 
0.617491 -3.80128 1.3303e-05 
0.721248 -3.5799 2.01602e-06 
0.959565 -3.34155 1.02628e-06 
1.12931 -3.15707 1.21251e-07 
1.3326 -2.97877 2.35056e-08 
1.60228 -3.03232 2.39972e-09 
1.8717 -3.10439 4.89966e-09 
2.18358 -3.03613 8.02342e-10 
2.52432 -3.05207 -3.87108e-10 
2.86087 -3.03544 -3.74977e-11 
3.20184 -3.01953 -3.72217e-11 
3.5344 -2.99352 -5.4469e-11 
3.85884 -3.01598 4.83109e-12 
4.17337 -3.00022 -3.32632e-12 
4.48113 -2.98947 -1.89428e-12 
4.78706 -3.01491 -4.08217e-12 
5.08389 -3.02272 -1.05621e-12 
5.3842 -3.02294 3.41175e-13 
5.69006 -3.00932 -5.03566e-13 
5.99314 -3.00446 1.4567e-14 
6.30382 -2.98654 -1.7916e-12 
6.59932 -3.01282 5.76624e-13 
6.91471 -2.98532 -2.08223e-12 
7.22942 -2.99584 3.98749e-13 
7.52932 -2.99748 -2.1696e-12 
7.8375 -3.00361 -5.3142e-13 
8.139 -2.982 -5.83755e-13 
8.44418 -2.99507 -2.1869e-13 
8.75334 -2.99011 -2.2211e-13 
9.06073 -3.05625 -2.07646e-13 
9.36565 -3.01294 -8.98899e-15 
9.66781 -2.95124 -6.64164e-14 
9.98812 -3.0383 -3.92807e-13 
10.3226 -2.98396 -1.04187e-13 
10.6537 -3.07629 -8.41526e-13 
10.9874 -2.99998 -2.66439e-13 
11.3384 -2.9398 9.74741e-13 
11.6683 -3.06181 2.095e-12 
12 -2.96726 -1.31005e-11 
-12 -2.66687 1.56145e-11 
-11.6513 -2.73017 -1.12969e-12 
-11.3133 -2.64222 7.07233e-13 
-10.9757 -2.66091 -1.14995e-12 
-10.6406 -2.64158 4.49552e-13 
-10.3031 -2.671 -1.10867e-12 
[...]
POINT_DATA 1978 
VECTORS vectors float
4.34342e-06 -3.12517e-05 1 
1.29171e-07 -1.60151e-05 1 
-1.61693e-06 -1.82854e-05 1 
-3.55675e-06 -2.77264e-05 1 
-6.73408e-06 -3.7175e-05 1 
-1.04895e-05 -4.46551e-05 1 
-1.36952e-05 -4.87048e-05 1 
-1.69048e-05 -5.01258e-05 1 
-1.83863e-05 -4.86243e-05 1 
-1.93721e-05 -4.19414e-05 1 
-2.17487e-05 -2.73993e-05 1 
-2.49183e-05 -4.4697e-06 1 
-2.85376e-05 2.41829e-05 1 
-3.34559e-05 5.71368e-05 1 
-4.01944e-05 9.60202e-05 1 
-5.22311e-05 0.000151098 1 
-7.12143e-05 0.00023755 1 
-8.76655e-05 0.000347884 1 
-9.90866e-05 0.000482042 1 
-0.000116155 0.000646851 1 
-0.000134583 0.000855166 1 
-0.000142465 0.00110288 1 
-0.000142317 0.00135137 1 
-0.000149206 0.0016011 1 
-0.000174336 0.00191807 1 
-0.000246609 0.0023868 1 
-0.00041522 0.00328003 0.999998 
-0.000644204 0.00491215 0.999991 
-0.00106226 0.00752118 0.999975 
-0.00188766 0.0124085 0.999925 
-0.00314718 0.0209379 0.999779 
-0.0049373 0.0349136 0.99938 
-0.00810057 0.0576238 0.998304 
-0.00864803 0.094351 0.995487 
-0.00827288 0.139164 0.990209 
-0.0100732 0.188842 0.981922 
-0.017322 0.255297 0.966656 
-0.0389313 0.379324 0.924406 
-0.0432467 0.654814 0.754536 
0.0048717 0.910704 0.412931 
0.0128485 0.78889 -0.614367 
0.0642846 0.48835 -0.870184 
0.033258 0.317869 -0.947462 
0.0110798 0.187509 -0.982137 
0.0155138 0.138865 -0.990158 
0.0118036 0.0861174 -0.996204 
0.00735348 0.0511743 -0.998662 
0.0046827 0.0302724 -0.999534 
0.00201091 0.0185247 -0.99983 
0.00137022 0.0124862 -0.999926 
0.00103748 0.00835287 -0.999967 
0.000666994 0.00544654 -0.999989 
0.000425098 0.00368466 -0.999997 
0.000276804 0.00262955 -1 
0.000196167 0.00204546 -1 
0.000169733 0.00166334 -1 
0.000158303 0.00134452 -1 
0.000143572 0.00107308 -1 
0.000131364 0.000834597 -1 
0.000114121 0.000631226 -1 
9.67121e-05 0.00047423 -1 
8.6907e-05 0.000348538 -1 
7.15119e-05 0.000234933 -1 
5.23658e-05 0.000160768 -1 
4.10354e-05 0.000109678 -1 
3.20169e-05 7.57334e-05 -1 
2.75414e-05 4.74313e-05 -1 
2.42489e-05 2.27138e-05 -1 
2.22852e-05 1.0446e-06 -1 
2.24967e-05 -1.59893e-05 -1 
2.18792e-05 -3.09109e-05 -1 
1.90401e-05 -3.96939e-05 -1 
1.67477e-05 -4.3681e-05 -1 
1.32944e-05 -4.48647e-05 -1 
8.27201e-06 -4.06459e-05 -1 
4.74164e-06 -3.1399e-05 -1 
2.10504e-06 -2.45894e-05 -1 
-2.67959e-07 -2.11127e-05 -1 
-3.85558e-06 -3.1152e-05 -1 
3.02773e-05 -4.32513e-06 1 
4.17098e-06 -5.59842e-06 1.00001 
-1.27822e-05 -2.18328e-06 1.00001 
-2.2951e-05 -1.23574e-05 1.00001 
-3.56997e-05 -2.0124e-05 1.00001 
-4.28833e-05 -2.96048e-05 1.00001 
-5.233e-05 -3.59257e-05 1.00001 
-5.69172e-05 -4.12712e-05 1.00001 
-6.0065e-05 -4.25435e-05 1.00001 
-7.02736e-05 -3.51502e-05 1.00001 
-7.94606e-05 -1.97484e-05 1.00001 
-8.43932e-05 4.0954e-06 1.00001 
-9.83587e-05 3.82645e-05 1.00001 
-0.000109591 7.67269e-05 1.00001 
-0.000131375 0.000128706 1.00001 
-0.000157547 0.000191766 1.00001 
-0.000178011 0.000271793 1.00001 
-0.00020743 0.000380072 1.00001 
-0.000233408 0.000509769 1.00001 
-0.000261398 0.000665561 1.00001 
-0.000279249 0.000865424 1.00001 
-0.000308258 0.00109448 1.00001 
-0.000338671 0.00133634 1.00001 
-0.00032866 0.00164424 1.00001 
-0.000384475 0.00205569 1 
-0.000432026 0.00274141 1 
-0.000515176 0.0039921 0.999999 
-0.00066484 0.00614071 0.999989 
-0.000874104 0.00994437 0.999958 
-0.00119966 0.0171025 0.999861 
-0.00105294 0.0288446 0.999591 
-4.83738e-05 0.0479484 0.998856 
0.00198515 0.0765604 0.997066 
0.00475831 0.116886 0.993138 
0.0129757 0.168459 0.985628 
0.0136276 0.229912 0.973115 
0.0130559 0.320956 0.947001 
0.013727 0.486007 0.87387 
0.0381262 0.638295 0.768844 
0.0544718 0.895485 0.441797 
-0.0128482 0.802269 -0.596826 
-0.00011239 0.493707 -0.86971 
-0.00174543 0.242299 -0.970198 
-0.00198137 0.156297 -0.987711 
0.00200001 0.107344 -0.994222 
0.00159749 0.0724302 -0.997377 
0.00167686 0.0464804 -0.998924 
0.00120676 0.0291757 -0.999581 
0.000590854 0.0185573 -0.999835 
0.000332199 0.0122205 -0.999932 
0.000388516 0.00816744 -0.999975 
0.00041917 0.0055565 -0.999991 
0.000373307 0.00374806 -1 
0.000366004 0.00266651 -1 
0.00036053 0.0020313 -1.00001 
0.000332121 0.00160381 -1.00001 
0.000318395 0.00128221 -1.00001 
0.000299004 0.00101913 -1.00001 
0.000289335 0.00079771 -1.00001 
0.000270265 0.000618238 -1.00001 
0.000244417 0.000475653 -1.00001 
0.000206196 0.000353644 -1.00001 
0.00019447 0.00026459 -1.00001 
0.000151871 0.000186701 -1.00001 
0.000128318 0.000132277 -1.00001 
0.000110686 8.97867e-05 -1.00001 
9.91675e-05 5.58525e-05 -1.00001 
8.96097e-05 2.59955e-05 -1.00001 
8.19661e-05 1.69958e-06 -1.00001 
6.65699e-05 -1.72095e-05 -1.00001 
6.54011e-05 -2.84019e-05 -1.00001 
6.8833e-05 -3.1652e-05 -1.00001 
4.97588e-05 -3.50292e-05 -1.00001 
4.75847e-05 -2.92974e-05 -1.00001 
3.04667e-05 -2.73026e-05 -1.00001 
2.52799e-05 -1.55886e-05 -1.00001 
1.53759e-05 -7.06723e-06 -1.00001 
-1.31818e-06 -1.00256e-05 -1.00001 
-2.49949e-05 -5.79272e-06 -1 
3.38327e-05 3.48196e-05 1 
-1.67253e-06 2.20862e-05 1.00001 
-2.92286e-05 2.09395e-05 1.00001 
-4.68874e-05 8.51641e-06 1.00001 
-6.66414e-05 1.57246e-06 1.00001 
-8.02762e-05 -1.06425e-05 1.00001 
-9.58142e-05 -2.00773e-05 1.00001 
-0.000108151 -2.86527e-05 1.00001 
-0.000111102 -3.36863e-05 1.00001 
-0.000126293 -2.76084e-05 1.00001 
-0.000134657 -1.04345e-05 1.00001 
-0.000143231 1.73975e-05 1.00001 
-0.000160705 5.72393e-05 1.00001 
-0.000186416 0.000110773 1.00001 
-0.000221053 0.00017211 1.00001 
-0.000267464 0.000243625 1.00001 
-0.000309948 0.00031937 1.00001 
-0.000364034 0.000416243 1.00001 
-0.000410904 0.000524266 1.00001 
-0.000463464 0.00065743 1.00001 
-0.000502595 0.000821837 1.00001 
-0.000542481 0.00101886 1.00001 
-0.000577922 0.00124109 1.00001 
-0.000571041 0.00154693 1 
-0.000598754 0.0019574 1.00001 
-0.000614053 0.00267079 1 
-0.00069263 0.00386574 0.999998 
-0.000839265 0.00582218 0.999992 
-0.00103535 0.0093725 0.999964 
-0.00114492 0.0158073 0.99988 
-0.000509921 0.0263771 0.999661 
0.00119306 0.0437642 0.999049 
0.00571658 0.0730056 0.997322 
0.0180046 0.111799 0.993573 
0.0429822 0.153101 0.98728 
0.0496048 0.213009 0.975794 
0.0406338 0.302598 0.952253 
0.0470349 0.447132 0.893226 
0.100176 0.558323 0.823523 
0.09751 0.923916 0.369864 
-0.0108017 0.945358 -0.325274 
-0.0201748 0.426788 -0.904116 
-0.00928552 0.260424 -0.965441 
-0.0203523 0.170992 -0.985065 
-0.0190661 0.116111 -0.993058 
-0.00816794 0.0894368 -0.995967 
-0.00156212 0.0591573 -0.998252 
-0.000381784 0.0367799 -0.99933 
0.000220149 0.0229477 -0.999743 
0.000187207 0.014454 -0.999904 
0.000281603 0.00953348 -0.999961 
0.00038608 0.00635604 -0.999989 
0.000473506 0.00432816 -0.999996 
0.000519527 0.00296867 -1 
0.000564146 0.00215992 -1.00001 
0.000571677 0.00166806 -1.00001 
0.0005653 0.00131653 -1.00001 
0.000544916 0.00104784 -1.00001 
0.00051962 0.000834344 -1.00001 
0.000486329 0.000664361 -1.00001 
0.000440891 0.000534668 -1.00001 
0.00038108 0.000422623 -1.00001 
0.000342859 0.000341898 -1.00001 
0.000279498 0.00026081 -1.00001 
0.000231788 0.0001931 -1.00001 
0.000194134 0.000132792 -1.00001 
0.000169394 8.2104e-05 -1.00001 
0.000150556 3.94304e-05 -1.00001 
0.00014156 7.75999e-06 -1.00001 
0.000125604 -1.34387e-05 -1.00001 
0.000122286 -2.16636e-05 -1.00001 
0.000119416 -1.88411e-05 -1.00001 
9.55269e-05 -1.88861e-05 -1.00001 
9.03818e-05 -8.63539e-06 -1.00001 
6.40702e-05 -8.9566e-06 -1.00001 
5.05385e-05 3.94694e-06 -1.00001 
3.37387e-05 1.75103e-05 -1.00001 
6.1991e-06 1.5576e-05 -1.00001 
-2.59885e-05 2.96705e-05 -1 
2.33482e-05 7.78493e-05 1 
-9.62801e-06 5.40391e-05 1.00001 
-4.23956e-05 4.93692e-05 1.00001 
-6.66632e-05 3.59967e-05 1.00001 
-9.01552e-05 2.57929e-05 1.00001 
-0.000108547 1.14168e-05 1.00001 
-0.000128201 -1.27009e-06 1.00001 
-0.000144702 -1.40567e-05 1 
-0.000154381 -2.22783e-05 1.00001 
-0.000171804 -1.71601e-05 1.00001 
-0.00018369 2.74905e-06 1.00001 
-0.000197099 3.842e-05 1.00001 
-0.00021813 9.0812e-05 1.00001 
-0.000250364 0.000157372 1.00001 
-0.00029112 0.000232943 1.00001 
-0.000344379 0.000316527 1 
-0.000391242 0.000387831 1.00001 
-0.000453053 0.00048065 1.00001 
-0.000509255 0.000576589 1.00001 
-0.000570454 0.000692874 1.00001 
-0.000620527 0.000834304 1.00001 
-0.000659985 0.00100601 1.00001 
-0.000690665 0.00121644 1 
-0.000688164 0.00149352 1.00001 
-0.000676269 0.00192019 1 
-0.000605784 0.00261582 1 
-0.000557728 0.00377377 1 
-0.000531823 0.0057013 0.999989 
-0.000414157 0.00890399 0.999967 
0.000214233 0.0145409 0.999904 
0.002012 0.0227481 0.999745 
0.00532023 0.035799 0.999356 
0.0128997 0.0587819 0.998194 
0.0301411 0.0875168 0.995713 
0.0629335 0.119449 0.990849 
0.0982481 0.174556 0.979737 
0.0890097 0.265113 0.960099 
0.082977 0.373345 0.923973 
0.0792705 0.698661 0.711016 
0.00936215 0.999309 0.0336205 
-0.0331316 0.617333 -0.785709 
-0.0937942 0.436647 -0.894657 
-0.0650602 0.212086 -0.975086 
-0.0534177 0.137266 -0.989097 
-0.0393003 0.0892774 -0.995237 
-0.0192989 0.0674056 -0.997545 
-0.00823783 0.0488026 -0.998781 
-0.00462267 0.0303018 -0.99954 
-0.00200664 0.0196156 -0.999812 
-0.00108169 0.0128337 -0.999924 
-0.000480629 0.00868849 -0.999971 
-4.35471e-05 0.00598951 -0.999987 
0.000282208 0.00409836 -1 
0.000477795 0.00287516 -1 
0.000623115 0.00212947 -1 
0.00068134 0.00162844 -1.00001 
0.000680709 0.00128712 -1.00001 
0.000659817 0.00104165 -1.00001 
0.00063359 0.000850045 -1.00001 
0.000590681 0.000700512 -1.00001 
0.000538675 0.000584729 -1.00001 
0.000474054 0.000485893 -1.00001 
0.000414791 0.000404296 -1.00001 
0.000345399 0.000316802 -1.00001 
0.0002934 0.000241294 -1.00001 
0.000250858 0.000165605 -1.00001 
0.000224479 0.000102824 -1.00001 
0.000201604 5.00844e-05 -1.00001 
0.000187894 1.3193e-05 -1.00001 
0.000170346 -8.04436e-06 -1.00001 
0.00016366 -1.24791e-05 -1.00001 
0.000154392 -5.05173e-06 -1.00001 
0.000131287 5.10807e-07 -1.00001 
0.00011438 1.45144e-05 -1.00001 
8.65062e-05 1.65221e-05 -1.00001 
6.80495e-05 3.11638e-05 -1.00001 
4.52836e-05 4.63038e-05 -1.00001 
1.32352e-05 4.58474e-05 -1.00001 
-1.5468e-05 6.89481e-05 -1 
3.47057e-06 0.000115041 1 
-2.50835e-05 8.54646e-05 1.00001 
-5.6118e-05 7.80872e-05 1.00001 
-7.87052e-05 6.24647e-05 1.00001 
-0.0001031 5.16445e-05 1.00001 
-0.000123379 3.44759e-05 1.00001 
-0.000144493 1.81661e-05 1.00001 
-0.000162232 2.73308e-07 1.00001 
-0.000177692 -9.55561e-06 1.00001 
-0.000195831 -4.36165e-06 1.00001 
-0.000212139 1.98e-05 1.00001 
-0.000229058 6.48728e-05 1.00001 
-0.000253427 0.000128517 1.00001 
-0.00028704 0.000210088 1.00001 
-0.000329372 0.000297916 1.00001 
-0.000383413 0.000388864 1.00001 
-0.000439452 0.000468429 1.00001 
-0.000504538 0.00056183 1.00001 
-0.000564049 0.000649933 1.00001 
-0.000621034 0.00074861 1.00001 
-0.000666608 0.000866431 1.00001 
-0.00069561 0.00102048 1.00001 
-0.000704852 0.00122586 1.00001 
-0.000699419 0.00148687 1.00001 
-0.000639463 0.00190949 1.00001 
-0.000480085 0.00262479 1 
-0.000271752 0.00377415 1 
3.25792e-05 0.00557835 0.999992 
0.000548699 0.0086916 0.99997 
0.00196573 0.0130646 0.99992 
0.00494721 0.0194433 0.999807 
0.0100926 0.0297982 0.99951 
0.0195735 0.0460331 0.998757 
0.0391842 0.0652378 0.997104 
0.0639268 0.0725554 0.99532 
0.103757 0.110361 0.988466 
0.163093 0.187451 0.968643 
0.146051 0.271371 0.951322 
0.1346 0.38686 0.9122 
0.125479 0.798967 0.58815 
-0.0441293 0.852822 -0.520298 
-0.0261455 0.27111 -0.962186 
-0.109636 0.182613 -0.977056 
-0.0807097 0.104847 -0.991215 
-0.0517516 0.0622794 -0.996721 
-0.0279732 0.0497692 -0.998375 
-0.0143839 0.038341 -0.999169 
-0.00810671 0.0232738 -0.999702 
-0.00446725 0.0160232 -0.999872 
-0.00243594 0.0107438 -0.999947 
-0.00125367 0.00751792 -0.999979 
-0.000472395 0.00520686 -0.999996 
5.50304e-05 0.00365477 -1 
0.000403643 0.00260045 -1 
0.000612403 0.00193857 -1.00001 
0.000684462 0.0015172 -1.00001 
0.00069437 0.00121476 -1.00001 
0.000690754 0.000997204 -1.00001 
0.000672186 0.000840352 -1.00001 
0.000625879 0.000717439 -1.00001 
0.000570451 0.000626895 -1.00001 
0.000502616 0.000533365 -1.00001 
0.000432288 0.000447012 -1.00001 
0.000370151 0.000362943 -1.00001 
0.000316874 0.000273119 -1.00001 
0.000278917 0.000191093 -1.00001 
0.000251561 0.000117216 -1.00001 
0.000230266 5.76595e-05 -1.00001 
0.000215335 1.98631e-05 -1.00001 
0.000196829 -1.11474e-06 -1.00001 
0.000185443 -2.41284e-06 -1.00001 
0.000170098 9.65335e-06 -1.00001 
0.000148344 2.00985e-05 -1.00001 
0.000128143 3.8268e-05 -1.00001 
0.000102158 4.28461e-05 -1.00001 
8.01941e-05 5.8329e-05 -1.00001 
5.74009e-05 7.50201e-05 -1.00001 
2.64453e-05 7.85174e-05 -1.00001 
2.33455e-06 0.000106355 -1 
-2.63236e-05 0.000150102 1 
-3.58484e-05 0.000120442 1.00001 
-5.89717e-05 0.000106708 1.00001 
-8.22085e-05 9.22694e-05 1.00001 
-0.00010293 7.95293e-05 1.00001 
-0.000123484 6.22773e-05 1.00001 
-0.000143008 4.44566e-05 1.00001 
-0.000162028 2.35567e-05 1.00001 
-0.000180328 6.78843e-06 1.00001 
-0.000198361 3.96512e-06 1.00001 
-0.000218504 2.03341e-05 1.00001 
-0.000238702 5.94127e-05 1.00001 
-0.000261804 0.000120154 1.00001 
-0.000290196 0.00020143 1.00001 
-0.000328119 0.000299056 1.00001 
-0.000374735 0.000398087 1.00001 
-0.000432138 0.000495675 1.00001 
-0.000491274 0.000582848 1.00001 
-0.000554647 0.000674216 1.00001 
-0.00061142 0.000756167 1.00001 
-0.000657892 0.00084359 1.00001 
-0.000686853 0.000948152 1.00001 
-0.000696856 0.0011011 1.00001 
-0.000679966 0.00129278 1.00001 
-0.000634858 0.00155169 1.00001 
-0.000483251 0.0020245 1 
-0.000191909 0.00284897 1 
0.000226597 0.00405226 0.999999 
0.000905242 0.00617323 0.999988 
0.00218703 0.00890302 0.999966 
0.00465786 0.0128778 0.999914 
0.00974512 0.0192003 0.999776 
0.0187242 0.0281276 0.999439 
0.033237 0.0376924 0.998744 
0.0537863 0.0376994 0.997847 
0.0975217 0.0614382 0.993342 
0.173818 0.118864 0.977579 
0.216945 0.424129 0.879131 
0.164128 0.669163 0.724764 
0.0241062 0.999034 0.0355919 
-0.0920252 0.707189 -0.701025 
-0.139972 0.316451 -0.938223 
-0.115103 0.0870524 -0.989535 
-0.0742007 0.0482067 -0.996084 
-0.0402982 0.0329804 -0.998652 
-0.0242805 0.0279773 -0.999322 
-0.0145552 0.023406 -0.999626 
-0.00915843 0.0152373 -0.999852 
-0.00547856 0.0115457 -0.999924 
-0.00318442 0.00841213 -0.999967 
-0.00177086 0.00629629 -0.999986 
-0.000833344 0.00453103 -0.999994 
-0.000109354 0.00321727 -1 
0.000323679 0.00235452 -1 
0.000554584 0.00180587 -1.00001 
0.000649971 0.00143452 -1.00001 
0.000683317 0.00119019 -1.00001 
0.000695423 0.00100983 -1.00001 
0.000685214 0.000881327 -1.00001 
0.000648664 0.000780025 -1.00001 
0.000596352 0.000700538 -1.00001 
0.000527677 0.000607115 -1.00001 
0.00046029 0.000520293 -1.00001 
0.000393921 0.000427562 -1.00001 
0.000342376 0.000324512 -1.00001 
0.000303686 0.00022844 -1.00001 
0.000274343 0.000144259 -1.00001 
0.000249785 7.6056e-05 -1.00001 
0.000228771 3.34689e-05 -1.00001 
0.000209678 1.02911e-05 -1.00001 
0.00019103 1.00494e-05 -1.00001 
0.000172535 2.54933e-05 -1.00001 
0.000152766 3.88725e-05 -1.00001 
0.000131892 5.96794e-05 -1.00001 
0.000109596 6.73449e-05 -1.00001 
8.76973e-05 8.42466e-05 -1.00001 
6.77413e-05 0.000101828 -1.00001 
4.18916e-05 0.000107697 -1.00001 
2.22794e-05 0.000135606 -1 
-4.34149e-05 0.000165343 1 
-5.48023e-05 0.00013983 1.00001 
-7.26894e-05 0.00012347 1.00001 
-9.0865e-05 0.000111951 1.00001 
-0.000110533 9.60369e-05 1.00001 
-0.000129034 7.85157e-05 1.00001 
-0.000148023 5.63573e-05 1.00001 
-0.000167243 3.42783e-05 1.00001 
-0.00018565 1.99919e-05 1.00001 
-0.000205506 2.01845e-05 1.00001 
-0.000228699 4.40496e-05 1.00001 
-0.000251107 9.16406e-05 1.00001 
-0.000276933 0.000164289 1.00001 
-0.000306436 0.000256232 1.00001 
-0.000345202 0.000366091 1.00001 
-0.000393454 0.000476528 1.00001 
-0.000446551 0.000583705 1.00001 
-0.000504436 0.000675806 1.00001 
-0.000558602 0.000766669 1.00001 
-0.000606131 0.000842639 1.00001 
-0.000633342 0.000915859 1.00001 
-0.000654206 0.000996481 1.00001 
-0.000660666 0.00110754 1.00001 
-0.000635458 0.0012401 1.00001 
-0.000561319 0.00147016 1.00001 
-0.000361446 0.00185426 1.00001 
-8.77329e-06 0.0024446 1 
0.000592921 0.00362228 1 
0.00141237 0.00489705 0.999994 
0.00275957 0.0067136 0.999981 
0.00556072 0.00991373 0.999943 
0.0101245 0.0127138 0.999876 
0.0175668 0.0158965 0.999725 
0.0289865 0.0185069 0.999417 
0.0422763 0.0110354 0.999053 
0.0810447 0.0216416 0.996483 
0.157391 0.0568211 0.985904 
0.250314 0.298664 0.920911 
0.191088 0.544935 0.816445 
0.189581 0.836167 0.514648 
-0.147201 0.641743 -0.75263 
-0.167082 0.147528 -0.974846 
-0.120104 0.0396995 -0.99197 
-0.0669868 0.0164791 -0.997625 
-0.0361453 0.0132783 -0.999268 
-0.0217174 0.0127246 -0.99969 
-0.0137629 0.0127363 -0.999831 
-0.00838774 0.00887186 -0.999935 
-0.00525347 0.00759512 -0.999967 
-0.00318082 0.00623921 -0.999983 
-0.00181846 0.0048053 -0.999992 
-0.00076154 0.00341429 -1 
-6.89186e-05 0.00251816 -1 
0.00034113 0.00194174 -1.00001 
0.000548199 0.00156195 -1.00001 
0.000625018 0.00129829 -1.00001 
0.000649053 0.00111968 -1.00001 
0.000655702 0.000994972 -1.00001 
0.000651065 0.000904212 -1.00001 
0.000622362 0.000832168 -1.00001 
0.000571716 0.000744894 -1.00001 
0.000509371 0.000657852 -1.00001 
0.000444224 0.00055517 -1.00001 
0.000381329 0.000446892 -1.00001 
0.000337202 0.000335439 -1.00001 
0.000302028 0.000232958 -1.00001 
0.000274327 0.000144636 -1.00001 
0.000250996 8.0474e-05 -1.00001 
0.000229454 3.95369e-05 -1.00001 
0.00021114 2.12786e-05 -1.00001 
0.000190056 2.43798e-05 -1.00001 
0.000168045 4.22927e-05 -1.00001 
0.000150103 5.89242e-05 -1.00001 
0.0001293 8.17045e-05 -1.00001 
0.000110505 9.04423e-05 -1.00001 
9.11734e-05 0.000108284 -1.00001 
7.27059e-05 0.000125147 -1.00001 
5.27189e-05 0.000132394 -1.00001 
3.90056e-05 0.000157233 -1 
-5.35424e-05 0.000175865 1 
-5.99676e-05 0.000158217 1.00001 
-7.13072e-05 0.000143446 1.00001 
-8.47288e-05 0.000132561 1.00001 
-0.000100704 0.000118032 1.00001 
-0.000116658 0.000101689 1.00001 
-0.000133622 7.92808e-05 1.00001 
-0.00015075 5.61818e-05 1.00001 
-0.000166754 3.95885e-05 1.00001 
-0.000185298 3.45949e-05 1.00001 
-0.000208378 4.8516e-05 1.00001 
-0.00022975 9.37499e-05 1.00001 
-0.000255703 0.000160853 1.00001 
-0.000281985 0.000251962 1.00001 
-0.0003149 0.0003596 1.00001 
-0.000356596 0.000483295 1.00001 
-0.000401828 0.000605969 1.00001 
-0.000451756 0.000718326 1.00001 
-0.000495065 0.000814171 1.00001 
-0.000532959 0.000894785 1.00001 
-0.000554905 0.000955083 1.00001 
-0.000571757 0.000999408 1.00001 
-0.000581489 0.00105218 1.00001 
-0.000570116 0.00112081 1.00001 
-0.000518034 0.00123587 1.00001 
-0.000378413 0.00144966 1 
-5.23138e-05 0.00174277 1.00001 
0.000484484 0.00248076 1 
0.00125019 0.0032033 1 
0.00231662 0.00416033 0.999998 
0.00430517 0.00595358 0.999979 
0.00750792 0.00714034 0.999955 
0.0127072 0.00746793 0.9999 
0.0206004 0.00452424 0.999789 
0.0325049 -0.00692468 0.999458 
0.067129 -0.0124746 0.997675 
0.1385 -0.000681203 0.990364 
0.280353 0.144069 0.949006 
0.285941 0.646781 0.707073 
0.0257895 0.99577 -0.0885528 
-0.223434 0.534665 -0.815018 
-0.236036 0.20629 -0.949605 
-0.102564 -0.015235 -0.994611 
-0.0517161 -0.0126025 -0.99859 
-0.0288471 -0.00480628 -0.999578 
-0.0172811 0.00154976 -0.999862 
-0.012195 0.00571958 -0.999921 
-0.0074562 0.00503215 -0.999965 
-0.00478585 0.00505707 -0.999985 
-0.00308483 0.00456419 -0.999993 
-0.00178068 0.00363044 -1 
-0.000767309 0.00266262 -1 
-7.55764e-05 0.00202887 -1.00001 
0.00029202 0.00165945 -1.00001 
0.000477345 0.00141888 -1 
0.000545267 0.00122145 -1.00001 
0.000564541 0.00110258 -1.00001 
0.000571769 0.00102406 -1.00001 
0.000587602 0.000968536 -1 
0.0005637 0.00090752 -1.00001 
0.000538537 0.000830317 -1 
0.000472104 0.000737466 -1.00001 
0.000425596 0.000628922 -1 
0.0003694 0.000507563 -1.00001 
0.000321598 0.000375343 -1.00001 
0.000288735 0.000265845 -1.00001 
0.000260181 0.000167706 -1.00001 
0.000234728 9.62932e-05 -1.00001 
0.000210655 5.41888e-05 -1.00001 
0.000192003 3.57763e-05 -1.00001 
0.000172061 4.06967e-05 -1.00001 
0.000151145 6.19897e-05 -1.00001 