# vtk DataFile Version 3.0 
Exported using Morpho https://github.com/Morpho-lang/morpho 
ASCII 
DATASET UNSTRUCTURED_GRID 

POINTS 1978 float 
-12 -4 6.72201e-15 
-11.5904 -4 2.28389e-13 
-11.2882 -4 2.07193e-13 
-10.9447 -4 1.76047e-13 
-10.6335 -4 1.29068e-13 
-10.2868 -4 9.46724e-14 
-9.96476 -4 5.9584e-14 
-9.65588 -4 4.30008e-14 
-9.31899 -4 3.2376e-14 
-9.00074 -4 2.43878e-14 
-8.68227 -4 2.19629e-14 
-8.36192 -4 1.94801e-14 
-8.05414 -4 1.61941e-14 
-7.76212 -4 1.34002e-14 
-7.48246 -4 1.0107e-14 
-7.19286 -4 6.89194e-15 
-6.89556 -4 3.72789e-15 
-6.59601 -4 3.41972e-16 
-6.29564 -4 -3.48478e-15 
-5.98833 -4 -8.1841e-15 
-5.68624 -4 -1.48967e-14 
-5.38197 -4 -2.39264e-14 
-5.08154 -4 -3.42054e-14 
-4.78718 -4 -5.50985e-14 
-4.45257 -4 -7.19994e-14 
-4.16323 -4 -9.19086e-14 
-3.85838 -4 -1.32854e-13 
-3.5313 -4 -1.66271e-13 
-3.23436 -4 -1.97789e-13 
-2.93756 -4 -2.37812e-13 
-2.64866 -4 -2.58673e-13 
-2.37573 -4 -2.63985e-13 
-2.11303 -4 -3.07803e-13 
-1.82118 -4 -3.07709e-13 
-1.53883 -4 -2.5807e-13 
-1.2404 -4 -1.90786e-13 
-0.949313 -4 -2.10851e-13 
-0.622297 -4 -3.41515e-14 
-0.342255 -4 -4.02349e-13 
0.0156414 -4 3.34909e-13 
0.33354 -4 1.72491e-13 
0.627224 -4 7.44637e-14 
0.941582 -4 1.80299e-13 
1.21331 -4 1.59269e-13 
1.4812 -4 1.74717e-13 
1.76316 -4 3.12596e-13 
2.04807 -4 3.4209e-13 
2.3368 -4 3.83883e-13 
2.66247 -4 3.21535e-13 
2.96186 -4 2.6522e-13 
3.28654 -4 1.968e-13 
3.57503 -4 1.49999e-13 
3.87781 -4 1.24171e-13 
4.19015 -4 9.23499e-14 
4.49033 -4 6.67892e-14 
4.79006 -4 5.06635e-14 
5.10084 -4 3.62955e-14 
5.40735 -4 2.40695e-14 
5.71741 -4 1.43087e-14 
6.00969 -4 7.88076e-15 
6.30444 -4 3.67788e-15 
6.60089 -4 -4.98514e-16 
6.90037 -4 -3.45839e-15 
7.17537 -4 -6.64626e-15 
7.47803 -4 -1.01154e-14 
7.77255 -4 -1.4259e-14 
8.06898 -4 -1.69179e-14 
8.35854 -4 -2.06261e-14 
8.65724 -4 -2.14376e-14 
8.93169 -4 -2.82605e-14 
9.27936 -4 -3.66195e-14 
9.60811 -4 -4.07989e-14 
9.89691 -4 -6.6505e-14 
10.2672 -4 -9.53988e-14 
10.582 -4 -1.49026e-13 
10.9743 -4 -1.95406e-13 
11.2901 -4 -1.91339e-13 
11.5834 -4 -2.2842e-13 
12 -4 -9.40657e-15 
-12 -3.59874 -4.79037e-15 
-11.7115 -3.71693 -1.71475e-12 
-11.357 -3.62185 -1.47883e-12 
-11.0421 -3.66953 -1.53898e-12 
-10.7088 -3.63891 -1.2228e-12 
-10.3929 -3.67712 -1.06041e-12 
-10.0564 -3.6617 -8.0613e-13 
-9.73376 -3.65827 -5.66441e-13 
-9.40448 -3.68353 -4.245e-13 
-9.06698 -3.66339 -2.94564e-13 
-8.75086 -3.66136 -2.17525e-13 
-8.43076 -3.67031 -1.68456e-13 
-8.11102 -3.66365 -1.31478e-13 
-7.80055 -3.65471 -9.86519e-14 
-7.50247 -3.64665 -7.50063e-14 
-7.20893 -3.66134 -5.8573e-14 
-6.90322 -3.66468 6.89421e-15 
-6.5944 -3.6593 -2.94085e-15 
-6.28058 -3.66982 5.35811e-14 
-5.97106 -3.66379 1.05843e-13 
-5.66189 -3.66389 1.74385e-13 
-5.35695 -3.65795 2.54182e-13 
-5.06137 -3.65016 3.65453e-13 
-4.7371 -3.69067 5.3765e-13 
-4.44498 -3.6503 6.88106e-13 
-4.14239 -3.66989 9.60266e-13 
-3.82307 -3.69585 1.33643e-12 
-3.51621 -3.67716 1.72803e-12 
-3.21654 -3.68016 2.18839e-12 
-2.91914 -3.67768 2.80484e-12 
-2.63972 -3.65955 3.13814e-12 
-2.3676 -3.64796 3.57581e-12 
-2.0661 -3.69484 4.04703e-12 
-1.77177 -3.67569 3.89609e-12 
-1.47698 -3.68172 2.8447e-12 
-1.18158 -3.65474 8.29555e-13 
-0.857958 -3.68203 -8.49916e-13 
-0.574527 -3.5808 -2.97679e-13 
-0.244998 -3.6711 -5.01423e-12 
0.053713 -3.56338 -3.66339e-12 
0.321585 -3.59239 5.24769e-12 
0.62163 -3.60451 1.82684e-12 
0.914311 -3.65972 -7.38164e-14 
1.21583 -3.64387 -4.46202e-13 
1.50224 -3.6633 -2.92495e-12 
1.79853 -3.68017 -3.99517e-12 
2.0953 -3.68559 -4.16871e-12 
2.41637 -3.72291 -4.30612e-12 
2.72619 -3.69054 -3.19375e-12 
3.04077 -3.70416 -2.77008e-12 
3.33163 -3.65993 -1.94295e-12 
3.62912 -3.67188 -1.55307e-12 
3.93601 -3.678 -1.18999e-12 
4.23514 -3.66123 -8.64334e-13 
4.53254 -3.65802 -6.43174e-13 
4.84021 -3.66932 -4.82899e-13 
5.14915 -3.66587 -3.41759e-13 
5.46172 -3.66993 -2.3316e-13 
5.76308 -3.65183 -1.49871e-13 
6.06231 -3.65743 -8.9151e-14 
6.36139 -3.65749 -4.21791e-14 
6.66687 -3.66511 1.06133e-15 
6.95193 -3.63538 -6.74444e-15 
7.25269 -3.66724 5.87558e-14 
7.55278 -3.65693 8.22073e-14 
7.85499 -3.6591 1.14839e-13 
8.15163 -3.64977 1.41616e-13 
8.44671 -3.6587 1.83036e-13 
8.73269 -3.62517 2.15178e-13 
9.05299 -3.70157 3.27641e-13 
9.38618 -3.67826 4.23007e-13 
9.69059 -3.62829 5.49197e-13 
10.0252 -3.70741 8.50546e-13 
10.3537 -3.65198 1.01701e-12 
10.7183 -3.71699 1.43617e-12 
11.0508 -3.64329 1.43799e-12 
11.3543 -3.61121 1.45321e-12 
11.7111 -3.72406 1.72911e-12 
12 -3.59819 5.23982e-15 
-12 -3.29372 3.03391e-15 
-11.6298 -3.36454 -4.69463e-13 
-11.2846 -3.27485 -2.32299e-13 
-10.972 -3.32203 -4.3983e-13 
-10.6544 -3.28763 -3.75057e-13 
-10.3358 -3.34234 -4.44572e-13 
-10.0115 -3.32337 -3.47586e-13 
-9.69455 -3.31575 -2.88627e-13 
-9.38912 -3.36096 -2.31177e-13 
-9.07941 -3.31966 -1.55096e-13 
-8.77309 -3.31451 -1.06783e-13 
-8.47043 -3.33369 -8.18427e-14 
-8.16212 -3.33173 -5.85606e-14 
-7.85376 -3.32145 -3.47862e-14 
-7.55085 -3.30447 5.57019e-15 
-7.25195 -3.31684 3.50614e-15 
-6.95474 -3.33489 1.56345e-15 
-6.64677 -3.33013 -1.89608e-15 
-6.3352 -3.34076 -7.42726e-15 
-6.02561 -3.33305 5.44719e-14 
-5.71524 -3.33072 8.56621e-14 
-5.40773 -3.32184 1.19222e-13 
-5.10406 -3.3032 1.56487e-13 
-4.80338 -3.36495 2.45983e-13 
-4.5029 -3.313 2.95554e-13 
-4.2032 -3.33589 4.07808e-13 
-3.89868 -3.37691 6.10973e-13 
-3.59445 -3.36892 7.67978e-13 
-3.27859 -3.35805 1.01098e-12 
-2.97837 -3.36005 1.32377e-12 
-2.68044 -3.32279 1.49751e-12 
-2.39431 -3.30344 1.47243e-12 
-2.1004 -3.38362 1.85821e-12 
-1.79466 -3.36055 1.4802e-12 
-1.48033 -3.34938 1.03412e-12 
-1.14788 -3.33417 -6.59647e-14 
-0.86187 -3.29691 -1.36109e-12 
-0.557247 -3.17317 -5.06873e-13 
-0.278513 -3.29684 -4.5505e-12 
-0.00864551 -3.15287 7.9543e-12 
0.290719 -3.10349 -1.1856e-12 
0.566004 -3.20694 4.71789e-12 
0.883598 -3.27765 2.01489e-12 
1.18157 -3.28673 -1.2076e-13 
1.48592 -3.32898 -7.2389e-13 
1.78664 -3.35794 -1.56617e-12 
2.08575 -3.36857 -1.93338e-12 
2.38306 -3.42872 -2.00115e-12 
2.67459 -3.37356 -1.55859e-12 
2.97798 -3.3968 -1.33093e-12 
3.27777 -3.33406 -9.20612e-13 
3.57977 -3.33926 -7.35355e-13 
3.8781 -3.35203 -5.917e-13 
4.17834 -3.3287 -4.14149e-13 
4.47763 -3.31816 -3.01976e-13 
4.7773 -3.33518 -2.373e-13 
5.08159 -3.33552 -1.76747e-13 
5.39245 -3.34129 -1.26359e-13 
5.70053 -3.31852 -8.18162e-14 
6.0104 -3.31539 -5.29766e-14 
6.30874 -3.31689 8.11544e-15 
6.61251 -3.33313 2.50892e-15 
6.91242 -3.28581 -8.98236e-16 
7.20974 -3.32746 -3.79003e-15 
7.5107 -3.31941 -6.67283e-15 
7.81397 -3.32411 3.85925e-14 
8.11981 -3.3082 5.35819e-14 
8.42046 -3.30679 7.41671e-14 
8.74422 -3.30519 1.02557e-13 
9.06838 -3.38244 1.76259e-13 
9.38066 -3.33595 2.27455e-13 
9.69306 -3.28381 2.74478e-13 
10.0055 -3.37944 4.37245e-13 
10.3059 -3.29865 3.95637e-13 
10.6297 -3.39891 5.84114e-13 
10.9604 -3.32405 4.27041e-13 
11.2911 -3.24713 1.55401e-13 
11.6276 -3.37073 4.82964e-13 
12 -3.28707 -2.30285e-15 
-12 -2.9691 4.05931e-15 
-11.6566 -3.04784 -5.26411e-14 
-11.3108 -2.95646 1.3372e-13 
-10.9626 -2.96747 -3.26534e-14 
-10.6221 -2.96043 -8.36555e-14 
-10.2927 -3.003 -1.81207e-13 
-9.96929 -2.9857 -2.0418e-13 
-9.65099 -2.97588 -1.69252e-13 
-9.34946 -3.01659 -1.42059e-13 
-9.04281 -2.97381 -1.01047e-13 
-8.73906 -2.96718 -6.70284e-14 
-8.43691 -2.99364 -4.8608e-14 
-8.12991 -2.99523 -3.117e-14 
-7.82918 -2.98253 5.20956e-15 
-7.52609 -2.9684 2.2774e-15 
-7.22706 -2.98163 -1.82417e-16 
-6.92345 -3.00751 2.48714e-16 
-6.61423 -3.00458 -1.67969e-15 
-6.3098 -3.00945 -5.76185e-15 
-6.00228 -3.00289 3.77399e-14 
-5.6972 -2.99716 5.52243e-14 
-5.39275 -2.98679 7.51849e-14 
-5.09091 -2.96888 9.39291e-14 
-4.79319 -3.02918 1.40421e-13 
-4.49207 -2.98271 1.78207e-13 
-4.19528 -3.00622 2.52353e-13 
-3.89973 -3.05336 3.53981e-13 
-3.59906 -3.04588 4.54689e-13 
-3.30026 -3.05299 6.00628e-13 
-2.97738 -3.03413 7.37015e-13 
-2.68974 -2.97906 7.96277e-13 
-2.38313 -2.96566 7.32909e-13 
-2.08893 -3.06075 5.90456e-13 
-1.77331 -3.04056 2.07842e-13 
-1.44149 -3.03265 -6.98919e-13 
-1.15947 -2.9413 -1.87317e-12 
-0.841846 -2.92518 4.39913e-12 
-0.597489 -2.71867 -1.35947e-11 
-0.302297 -2.85947 9.59305e-12 
0.00776478 -2.73279 -4.41277e-12 
0.267494 -2.57208 -3.38273e-12 
0.528744 -2.7493 3.87486e-13 
0.827707 -2.90145 5.33472e-13 
1.14986 -2.90493 -4.41815e-13 
1.46228 -2.97985 -7.818e-13 
1.77126 -3.01898 -9.23107e-13 
2.0733 -3.03599 -6.54952e-13 
2.37102 -3.10298 -1.01838e-12 
2.67173 -3.04187 -9.22448e-13 
2.96529 -3.07645 -7.63058e-13 
3.26308 -3.00752 -5.73699e-13 
3.56699 -3.01678 -4.29435e-13 
3.87401 -3.0217 -3.33043e-13 
4.17085 -2.99666 -2.48767e-13 
4.47211 -2.98935 -1.78074e-13 
4.77352 -3.00013 -1.32092e-13 
5.0719 -3.00252 -9.71273e-14 
5.37376 -3.01318 -7.54128e-14 
5.67899 -2.9882 -5.54959e-14 
5.9856 -2.99016 -3.69377e-14 
6.29824 -2.97358 5.68878e-15 
6.59431 -2.99856 1.83529e-15 
6.916 -2.97003 7.75357e-17 
7.23312 -2.99022 -1.27246e-15 
7.5335 -2.98295 -2.73831e-15 
7.8381 -2.99151 -5.9829e-15 
8.13537 -2.96748 3.332e-14 
8.44786 -2.98546 4.99313e-14 
8.74728 -2.96079 6.53966e-14 
9.04794 -3.05336 9.78556e-14 
9.35827 -3.00254 1.3075e-13 
9.65686 -2.93848 1.52666e-13 
9.97875 -3.02662 1.96739e-13 
10.3132 -2.97158 1.44975e-13 
10.6459 -3.06263 1.64482e-13 
10.978 -2.98293 3.65174e-14 
11.3323 -2.92591 -1.4723e-13 
11.6672 -3.05047 5.41342e-14 
12 -2.94473 -2.77221e-15 
-12 -2.65744 1.77482e-15 
-11.6458 -2.72103 1.09552e-13 
-11.3048 -2.63013 2.06075e-13 
-10.9649 -2.64507 4.89947e-14 
-10.6312 -2.63296 1.56125e-15 
-10.2973 -2.66964 -8.83251e-14 
-9.96825 -2.65736 -1.39919e-13 
-9.63919 -2.65583 -1.16295e-13 
-9.31245 -2.67136 -8.79813e-14 
-8.99672 -2.63482 -6.12013e-14 
-8.68546 -2.63077 -4.3984e-14 
-8.37622 -2.6636 -3.18613e-14 
-8.07154 -2.65646 6.40187e-15 
-7.762 -2.65197 3.47419e-15 
-7.45101 -2.64074 1.36295e-15 
-7.1433 -2.66162 -2.11323e-16 
-6.83922 -2.68367 -6.81678e-17 
-6.53102 -2.6752 -1.33168e-15 
-6.22623 -2.67922 -4.5358e-15 
-5.92089 -2.6703 -8.17447e-15 
[...]
POINT_DATA 1978 
VECTORS vectors float
-3.56823e-05 -0.000362958 1 
-0.000116648 -0.066668 0.997775 
-7.01889e-05 -0.0650994 0.997879 
-2.18363e-05 -0.0520151 0.998646 
-4.52799e-05 -0.0382849 0.999267 
-5.51661e-05 -0.0249474 0.999689 
-2.6139e-05 -0.0163788 0.999866 
-3.72954e-05 -0.0111356 0.999938 
-4.45683e-05 -0.00766497 0.999971 
-3.05218e-05 -0.00607759 0.999982 
-3.28054e-05 -0.00530574 0.999986 
-2.40845e-05 -0.00462866 0.999989 
-1.32079e-06 -0.00404316 0.999992 
2.23468e-05 -0.00348708 0.999994 
2.32503e-05 -0.00273049 0.999996 
9.83145e-06 -0.00179693 0.999998 
5.09202e-07 -0.000932176 1 
-1.5953e-06 -8.09044e-05 1 
-7.08734e-06 0.000856987 1 
-8.97554e-06 0.00209499 0.999998 
-6.52321e-06 0.00379401 0.999993 
-4.14528e-06 0.00620325 0.999981 
1.56975e-06 0.00922967 0.999957 
-2.22821e-05 0.0130047 0.999915 
-2.17932e-05 0.0188095 0.999823 
4.5881e-06 0.0248324 0.999692 
-2.45229e-05 0.0331379 0.999451 
-2.01849e-05 0.0455909 0.99896 
4.10405e-06 0.0611226 0.99813 
1.03447e-05 0.0829303 0.996555 
2.59306e-05 0.11271 0.993628 
3.98669e-05 0.151678 0.98843 
2.78876e-05 0.202537 0.979275 
1.31316e-05 0.277715 0.960663 
8.19331e-06 0.371829 0.928301 
1.40535e-06 0.49858 0.866843 
-1.06798e-06 0.642974 0.765888 
-1.26858e-05 0.814061 0.58078 
-4.77463e-06 0.936664 0.35023 
-1.09268e-06 0.999889 -0.0148949 
7.52115e-06 0.938799 -0.344465 
1.07805e-05 0.809701 -0.586843 
-3.02124e-06 0.644036 -0.764996 
-1.45955e-05 0.509593 -0.860416 
-1.49261e-05 0.392062 -0.919939 
-1.74397e-05 0.291908 -0.956446 
-1.454e-05 0.216605 -0.976259 
6.96699e-06 0.158949 -0.987287 
1.86245e-05 0.112318 -0.993672 
1.54179e-05 0.0816782 -0.996659 
1.09929e-05 0.0588104 -0.998269 
-6.69126e-06 0.0442427 -0.999021 
1.23554e-05 0.0331603 -0.99945 
1.12836e-05 0.0244638 -0.999701 
1.20683e-06 0.018022 -0.999838 
8.68375e-06 0.013077 -0.999914 
1.55907e-05 0.00908765 -0.999959 
1.41933e-05 0.00600399 -0.999982 
3.64748e-06 0.00365295 -0.999993 
-1.00524e-05 0.00210644 -0.999998 
-4.81215e-06 0.000958621 -1 
-2.66025e-06 -9.6643e-05 -1 
-1.81804e-05 -0.000985762 -1 
-1.80975e-05 -0.0016449 -0.999999 
1.07089e-07 -0.00257207 -0.999997 
-5.75543e-06 -0.00356989 -0.999994 
-8.8961e-06 -0.0043977 -0.99999 
-9.88651e-06 -0.00522019 -0.999986 
-1.9117e-05 -0.00591999 -0.999982 
1.76882e-05 -0.00650857 -0.999979 
6.30799e-05 -0.00822753 -0.999966 
1.73233e-05 -0.0113387 -0.999936 
4.60648e-05 -0.0157452 -0.999876 
7.33693e-05 -0.0249515 -0.999689 
8.33615e-05 -0.0360825 -0.999349 
6.84613e-05 -0.0536448 -0.99856 
4.50025e-05 -0.0650183 -0.997884 
0.000121887 -0.0665304 -0.997784 
5.35564e-05 -0.000353575 -1 
0.0001384 -0.00031978 1 
0.0252979 -0.0494467 0.998456 
0.0337241 -0.0592111 0.997676 
0.0331863 -0.0529702 0.998045 
0.0357003 -0.0410409 0.998519 
0.0355425 -0.0298022 0.998924 
0.0379187 -0.0202046 0.999077 
0.0395489 -0.0136824 0.999124 
0.0391724 -0.00935016 0.999189 
0.0408303 -0.00683778 0.999143 
0.0411865 -0.00544379 0.999137 
0.041432 -0.00457743 0.999131 
0.0420899 -0.00388594 0.999106 
0.0428802 -0.00320746 0.999075 
0.0435721 -0.00242762 0.999047 
0.0426347 -0.00159592 0.999089 
0.0421179 -0.000750027 0.999112 
0.0423567 0.000109677 0.999103 
0.0418532 0.00111027 0.999123 
0.0421189 0.00240157 0.99911 
0.0418588 0.00418793 0.999115 
0.0420206 0.00661286 0.999095 
0.0421954 0.00966395 0.999063 
0.0395277 0.013969 0.999121 
0.0419145 0.0190097 0.99894 
0.0401202 0.0256705 0.998865 
0.0378746 0.0350024 0.998669 
0.0380826 0.0472678 0.998156 
0.0359823 0.0640814 0.997296 
0.0337956 0.0875317 0.995588 
0.0313316 0.118617 0.992446 
0.0277673 0.160232 0.986689 
0.0220546 0.219827 0.975289 
0.0174371 0.299445 0.953954 
0.0121117 0.401629 0.915722 
0.00698671 0.527206 0.849709 
0.00224005 0.686678 0.726958 
-0.000322061 0.83251 0.554011 
-0.000845993 0.960132 0.279545 
-0.000940269 0.999735 -0.0229851 
-0.000219801 0.950268 -0.311434 
-0.00145243 0.824845 -0.565357 
-0.00406788 0.667454 -0.74464 
-0.00885549 0.510023 -0.860115 
-0.0139487 0.384003 -0.923227 
-0.0191562 0.284508 -0.958482 
-0.0239394 0.209115 -0.977598 
-0.0273121 0.148926 -0.988471 
-0.0317823 0.108457 -0.993593 
-0.0337826 0.0783956 -0.99635 
-0.037426 0.0578721 -0.997622 
-0.038327 0.0431107 -0.998335 
-0.0390056 0.0318638 -0.998731 
-0.0405673 0.0236487 -0.998897 
-0.0411309 0.0173733 -0.999003 
-0.0408653 0.0124051 -0.999088 
-0.0414992 0.00860905 -0.999101 
-0.0415171 0.00567442 -0.999122 
-0.0428281 0.00356218 -0.999076 
-0.0427207 0.00202774 -0.999085 
-0.0427233 0.000862864 -0.999087 
-0.0426892 -0.000106499 -0.999088 
-0.0444228 -0.000884358 -0.999012 
-0.0424899 -0.00172025 -0.999095 
-0.0431313 -0.0025467 -0.999066 
-0.0430437 -0.00338643 -0.999067 
-0.0435272 -0.00418995 -0.999043 
-0.0429784 -0.00506068 -0.999063 
-0.0442869 -0.0059554 -0.999001 
-0.0395219 -0.00735978 -0.999192 
-0.0398544 -0.00978607 -0.999158 
-0.0412872 -0.0136532 -0.999054 
-0.03595 -0.0197056 -0.999159 
-0.0368813 -0.0287814 -0.998905 
-0.0321472 -0.0413995 -0.998625 
-0.0343593 -0.0528005 -0.998014 
-0.0341106 -0.0587549 -0.997689 
-0.0250708 -0.0495275 -0.998458 
-0.000158676 -0.000280587 -1 
0.000257243 -0.000235731 1 
0.0314562 -0.0511124 0.998197 
0.0363111 -0.056291 0.997754 
0.0389675 -0.0500847 0.997984 
0.0408093 -0.0402425 0.998356 
0.0433729 -0.0300137 0.998608 
0.0453235 -0.0212136 0.998747 
0.0472605 -0.0146437 0.998775 
0.048291 -0.0100259 0.998783 
0.0496309 -0.00731856 0.998741 
0.0504438 -0.0056661 0.998711 
0.0506477 -0.00448519 0.998707 
0.0508006 -0.0036164 0.998702 
0.0507975 -0.00290667 0.998705 
0.0507616 -0.00218357 0.998708 
0.0509203 -0.00147515 0.998702 
0.0509937 -0.000724325 0.998699 
0.0508526 0.000118993 0.998706 
0.0506434 0.00105189 0.998716 
0.0504726 0.00223614 0.998723 
0.0502012 0.00388617 0.998732 
0.0498588 0.00614853 0.998737 
0.049398 0.00910778 0.998738 
0.0491562 0.012963 0.998707 
0.0484968 0.0178004 0.998665 
0.0478585 0.0243278 0.998558 
0.0469324 0.0330492 0.998351 
0.0450419 0.0446698 0.997986 
0.0427426 0.061785 0.997174 
0.0396808 0.0849891 0.995591 
0.0351593 0.117387 0.992464 
0.0301283 0.160381 0.986595 
0.0254155 0.219642 0.975249 
0.0191209 0.299454 0.953919 
0.0124254 0.406126 0.913732 
0.00598238 0.550041 0.835116 
0.0015026 0.696043 0.717998 
-0.00152508 0.848662 0.528934 
-0.00218114 0.95612 0.292966 
-0.00194763 0.999923 -0.0122733 
-0.00152751 0.952012 -0.306056 
-0.00235083 0.839607 -0.543189 
-0.00491756 0.68436 -0.729128 
-0.00890575 0.532711 -0.84625 
-0.0145661 0.397382 -0.917538 
-0.0206348 0.295587 -0.955093 
-0.0265664 0.218557 -0.975463 
-0.0322687 0.159813 -0.98662 
-0.0363573 0.116356 -0.992542 
-0.0399775 0.0847711 -0.995598 
-0.0425424 0.0631289 -0.997098 
-0.0447398 0.0464719 -0.997917 
-0.0465366 0.0344821 -0.998321 
-0.0475112 0.0253991 -0.998548 
-0.0481758 0.0185538 -0.998667 
-0.0490625 0.0134415 -0.998705 
-0.0497186 0.00944656 -0.998719 
-0.0502317 0.00637175 -0.998717 
-0.0502074 0.00405718 -0.998731 
-0.0505208 0.00238511 -0.99872 
-0.0507495 0.00120438 -0.998711 
-0.0509914 0.000258467 -0.998699 
-0.0508622 -0.000525047 -0.998706 
-0.0512534 -0.00132778 -0.998685 
-0.0512361 -0.00207495 -0.998684 
-0.0512544 -0.00283666 -0.998682 
-0.0512252 -0.00363613 -0.998681 
-0.0508314 -0.00458095 -0.998697 
-0.0507635 -0.00594561 -0.998693 
-0.0499279 -0.00779284 -0.998722 
-0.0489316 -0.0106109 -0.998746 
-0.047391 -0.0150415 -0.998763 
-0.0455783 -0.0207497 -0.998745 
-0.0437182 -0.0293135 -0.998614 
-0.0416757 -0.0392488 -0.99836 
-0.0391475 -0.0495745 -0.998003 
-0.0359054 -0.0560868 -0.99778 
-0.0315811 -0.0509045 -0.998204 
-0.000306423 -0.000149531 -1 
0.000237302 -0.000183594 1 
0.0261675 -0.0490084 0.998456 
0.03096 -0.0570973 0.997888 
0.034323 -0.0510539 0.998106 
0.0370175 -0.0414052 0.998456 
0.0401786 -0.0307207 0.99872 
0.0421477 -0.021819 0.998873 
0.0440082 -0.0149906 0.998919 
0.0461765 -0.010542 0.998878 
0.046357 -0.00762319 0.998896 
0.0467203 -0.00555129 0.998893 
0.0475717 -0.00415349 0.998859 
0.0475953 -0.00316974 0.998862 
0.0475388 -0.00243729 0.998866 
0.0471386 -0.00177131 0.998887 
0.0474748 -0.00113737 0.998872 
0.0478665 -0.00044342 0.998854 
0.0475786 0.000355248 0.998867 
0.0474514 0.00123569 0.998873 
0.0472094 0.00240655 0.998882 
0.0469579 0.00405157 0.998889 
0.0465458 0.0063325 0.998896 
0.0459514 0.0093786 0.9989 
0.0462231 0.0131425 0.998845 
0.0450012 0.0184106 0.998817 
0.0442812 0.0250467 0.998705 
0.0437228 0.0336974 0.998475 
0.0418743 0.0460655 0.99806 
0.0394359 0.0624553 0.997268 
0.035484 0.08719 0.99556 
0.0305617 0.119909 0.992314 
0.0254882 0.16708 0.985614 
0.0214257 0.227847 0.973461 
0.0154196 0.312114 0.949919 
0.00914484 0.429723 0.902914 
0.00420338 0.558525 0.829477 
0.000702088 0.711069 0.703122 
-0.000145067 0.849446 0.527675 
-0.00131867 0.966252 0.257595 
0.00130597 0.99996 -0.00885847 
0.00175616 0.960809 -0.277206 
0.00118407 0.860892 -0.508786 
-0.00222821 0.708161 -0.706048 
-0.00609679 0.548697 -0.835999 
-0.0113157 0.412912 -0.910701 
-0.0169823 0.306028 -0.951871 
-0.0223897 0.224455 -0.974227 
-0.0288232 0.16468 -0.985926 
-0.0324177 0.121234 -0.992094 
-0.0362019 0.0885898 -0.99541 
-0.0383524 0.0656275 -0.997107 
-0.0407812 0.0480544 -0.998012 
-0.0427812 0.035067 -0.998469 
-0.0438996 0.025937 -0.998699 
-0.0449469 0.0190857 -0.998807 
-0.0459106 0.0137744 -0.998851 
-0.0464849 0.00972706 -0.998872 
-0.0468851 0.00658059 -0.998879 
-0.0470412 0.00426629 -0.998884 
-0.0470431 0.00256284 -0.99889 
-0.0468825 0.00134475 -0.9989 
-0.0472255 0.000468516 -0.998884 
-0.0471239 -0.000333298 -0.998889 
-0.0474226 -0.00109913 -0.998874 
-0.0476304 -0.00178144 -0.998863 
-0.0479513 -0.00249032 -0.998847 
-0.0477147 -0.00327542 -0.998856 
-0.0478427 -0.00440197 -0.998845 
-0.0470901 -0.00592143 -0.998873 
-0.0479487 -0.00801258 -0.998818 
-0.0459747 -0.0112173 -0.99888 
-0.0434277 -0.0159212 -0.99893 
-0.0429501 -0.022298 -0.998828 
-0.0397177 -0.0317383 -0.998707 
-0.0388074 -0.0413742 -0.99839 
-0.0346556 -0.0511965 -0.998087 
-0.0302886 -0.0571034 -0.997909 
-0.0259282 -0.0480508 -0.998508 
-0.000287409 -0.000128629 -1 
0.000243432 -2.13939e-05 1 
0.0205404 -0.050161 0.99853 
0.0246344 -0.0592502 0.997939 
0.0278837 -0.0529414 0.998208 
0.0305125 -0.0440251 0.998564 
0.033427 -0.0328565 0.998901 
0.0355496 -0.02339 0.999094 
0.0373381 -0.0163039 0.99917 
0.0385907 -0.0111131 0.999193 
0.0387136 -0.00769013 0.999221 
0.0388332 -0.0052893 0.999232 
0.039833 -0.00371901 0.999199 
0.0396558 -0.00265558 0.99921 
0.0396078 -0.00192161 0.999213 
0.0391523 -0.00128721 0.999232 
0.0397442 -0.000688627 0.99921 
0.0403312 -3.69654e-05 0.999186 
0.0396943 0.000710311 0.999212 
0.03966 0.00160946 0.999212 
0.0394353 0.00287376 0.999218 
0.0392218 0.00470397 0.999219 
0.0386999 0.0072193 0.999225 
0.0382467 0.0106421 0.999212 
0.0388247 0.0146604 0.999138 
0.0371897 0.0205258 0.999097 
0.0366947 0.0279642 0.998935 
0.0362599 0.0374497 0.99864 
0.0340393 0.0508574 0.998126 
0.0319322 0.0699799 0.997037 
0.0273891 0.0950808 0.995093 
0.0224692 0.134141 0.990708 
0.0175328 0.18554 0.98248 
0.0150853 0.244644 0.969496 
0.00979642 0.34494 0.938574 
0.00476015 0.462466 0.886624 
0.00176185 0.612702 0.790312 
0.00126388 0.754572 0.656217 
0.000426948 0.872317 0.488941 
0.00313376 0.93743 0.34816 
0.00345567 0.998088 0.061706 
0.00114216 0.962721 -0.270494 
0.0018038 0.84856 -0.529095 
0.0011784 0.713303 -0.700854 
-0.00191972 0.55381 -0.832641 
-0.00688754 0.413164 -0.910631 
-0.0119472 0.303004 -0.952914 
-0.0168636 0.225737 -0.974042 
-0.0231175 0.163957 -0.986197 
-0.0252874 0.120842 -0.99235 
-0.029593 0.0881482 -0.995668 
-0.0313106 0.063456 -0.997493 
-0.0341099 0.0459658 -0.99836 
-0.0358167 0.0338498 -0.998785 
-0.0367072 0.0247146 -0.99902 
-0.0374327 0.0179915 -0.999137 
-0.0384935 0.0129701 -0.999175 
-0.0390609 0.00910612 -0.999195 
-0.0394806 0.00613897 -0.999201 
-0.0391605 0.00389402 -0.999225 
-0.0393699 0.00230584 -0.999222 
-0.038609 0.00124374 -0.999254 
-0.0398486 0.000427449 -0.999206 
-0.0393763 -0.000285657 -0.999224 
-0.0394919 -0.000912422 -0.999219 
-0.0396751 -0.00153531 -0.999211 
-0.0398229 -0.00217319 -0.999204 
-0.0397184 -0.0030013 -0.999206 
-0.0398602 -0.00421143 -0.999196 
-0.0389992 -0.00600027 -0.999221 
-0.0409069 -0.00838099 -0.999128 
-0.0384553 -0.0119053 -0.999189 
-0.0360427 -0.0173548 -0.9992 
-0.0364245 -0.0241261 -0.999045 
-0.03304 -0.0338474 -0.998881 
-0.0326059 -0.0437141 -0.998512 
-0.0282184 -0.0537029 -0.998158 
-0.0236686 -0.0589952 -0.997978 
-0.0199277 -0.0489184 -0.998604 
-0.000213362 -0.000163114 -1 
0.000182933 -4.01058e-05 1 
0.0130323 -0.0457665 0.998867 
0.0175497 -0.0606687 0.998004 
0.0202576 -0.0575337 0.998138 
0.022397 -0.0492839 0.998534 
0.025004 -0.0384324 0.998948 
0.0270446 -0.0283505 0.999232 
0.0283007 -0.0200123 0.999399 
0.0295272 -0.0137806 0.999469 
0.0297837 -0.00947755 0.999511 
0.029429 -0.00626152 0.999547 
0.0299325 -0.00404778 0.999544 
0.0300435 -0.00273178 0.999545 
0.0300046 -0.00188129 0.999548 
0.0298962 -0.00128607 0.999552 
0.0297072 -0.000720295 0.999558 
0.0302776 -0.000168907 0.999542 
0.0303166 0.00042085 0.99954 
0.029888 0.00116292 0.999553 
0.0298644 0.00217658 0.999552 
0.0298277 0.00370791 0.999548 
0.0294994 0.00587881 0.999548 
0.0292943 0.00884427 0.999532 
0.0286945 0.0126904 0.999508 
0.0293268 0.0172232 0.999421 
0.0278771 0.0240133 0.999323 
0.0272795 0.0324646 0.999101 
0.0265321 0.0430622 0.99872 
0.0251056 0.0590602 0.997939 
0.0217289 0.0789752 0.99664 
0.0180635 0.111104 0.993645 
0.0129473 0.157348 0.987458 
0.0089896 0.224692 0.974388 
0.00761889 0.29506 0.955448 
0.00348074 0.395056 0.918651 
8.59204e-05 0.538593 0.842566 
-0.00145329 0.667847 0.744297 
-0.000321117 0.815921 0.578163 
-0.000560694 0.990947 0.13425 
-0.00220766 0.999941 0.0106023 
-0.00274312 0.962449 -0.271449 
-0.00237956 0.96951 -0.24504 
-0.000116148 0.793417 -0.608678 
0.00173414 0.636511 -0.771266 
-0.000655049 0.460544 -0.887637 
-0.00489402 0.334156 -0.942505 
-0.00873874 0.243069 -0.96997 
-0.0149071 0.176631 -0.984164 
-0.0161393 0.134204 -0.990822 
-0.020472 0.0971824 -0.995056 
-0.0229375 0.0714433 -0.997181 
-0.0251515 0.0502772 -0.998419 
-0.0265874 0.0367062 -0.998972 
-0.0277236 0.0269443 -0.999252 
-0.0281828 0.0195656 -0.999411 
-0.0289141 0.0140489 -0.999483 
-0.029404 0.00994937 -0.999518 
-0.0298339 0.0067808 -0.999532 
-0.0297754 0.00439118 -0.999547 
-0.029869 0.00260938 -0.99955 
-0.0290013 0.00145425 -0.999578 
-0.0300367 0.00063522 -0.999549 
-0.0303157 1.92875e-05 -0.99954 
-0.0293787 -0.000572169 -0.999568 
-0.0298704 -0.00112527 -0.999553 
-0.0296118 -0.00171977 -0.99956 
-0.0297296 -0.00249647 -0.999555 
-0.029882 -0.00375181 -0.999546 
-0.0290243 -0.00562165 -0.999563 
-0.0311923 -0.00859988 -0.999476 
-0.0296544 -0.0128778 -0.999477 
-0.0273449 -0.0187383 -0.99945 
-0.028205 -0.0261144 -0.999261 
-0.0251807 -0.0365251 -0.999015 
-0.0253522 -0.04651 -0.998596 
-0.0212052 -0.0562144 -0.998194 
-0.0171509 -0.0611687 -0.99798 
-0.0145629 -0.0511987 -0.998582 
-0.000124957 -0.000194917 -1 
8.40959e-05 -0.000171401 1 
0.00990594 -0.0530634 0.998542 
0.0133273 -0.0624563 0.997959 
0.0147395 -0.0573591 0.998245 
0.016703 -0.0475157 0.998731 
0.018389 -0.0365832 0.999161 
0.0199367 -0.0266004 0.999447 
0.0207508 -0.018491 0.999614 
0.0210012 -0.0127414 0.999698 
0.0212504 -0.00839778 0.999739 
0.0211197 -0.00514785 0.999764 
0.020755 -0.00321308 0.999779 
0.0209282 -0.00206322 0.999779 
0.0207512 -0.00138363 0.999784 
0.0208722 -0.000886752 0.999782 
0.020431 -0.000395023 0.999791 
0.0205694 8.28985e-05 0.999788 
0.0209151 0.000643118 0.999781 
0.0204488 0.00141931 0.99979 
0.0206656 0.00263522 0.999783 
0.0206232 0.0044644 0.999777 
0.0205709 0.00706606 0.999763 
0.0202548 0.0104787 0.99974 
0.0195546 0.0148365 0.999699 
0.0204672 0.0202163 0.999586 
0.0191042 0.0283294 0.999416 
0.0180654 0.0382644 0.999104 
0.0181425 0.0520961 0.998477 
0.0150504 0.0702235 0.997418 
0.0129957 0.0989832 0.995004 
0.00873185 0.143355 0.989633 
0.00513593 0.215708 0.976444 
0.00253866 0.314017 0.949414 
-0.000180358 0.446596 0.894735 
-0.00108555 0.60698 0.794717 
-0.00261829 0.801152 0.598456 
0.00637554 0.905859 0.423531 
-0.00136225 0.934873 0.354981 
-0.000759923 0.969553 0.244879 
0.00383789 0.994046 0.108898 
-0.00384228 0.990831 -0.13505 
-0.000741867 0.95894 -0.283609 
-0.00134664 0.867258 -0.497857 
0.00314528 0.691175 -0.72268 
0.00361313 0.542509 -0.840042 
0.00123346 0.383944 -0.923356 
-0.00203528 0.27714 -0.960827 
-0.00702438 0.190309 -0.981699 
-0.0100576 0.13156 -0.991257 
-0.0132933 0.0941344 -0.995471 
-0.0166803 0.0656543 -0.997703 
-0.0173996 0.0475429 -0.998718 
-0.0184606 0.0346906 -0.999228 
-0.0194362 0.0253628 -0.999489 
-0.0197748 0.0183922 -0.999635 
-0.0200127 0.0132524 -0.999712 
-0.0203042 0.00929743 -0.999751 
-0.0205223 0.00627495 -0.99977 
-0.0209293 0.00386394 -0.999773 
-0.0204231 0.00226186 -0.999789 
-0.0205404 0.0011321 -0.999788 
-0.0206213 0.000485944 -0.999787 
-0.0211366 -3.61633e-05 -0.999777 
-0.0199829 -0.000512284 -0.9998 
-0.0206655 -0.00101599 -0.999786 
-0.020065 -0.00155338 -0.999797 
-0.0205036 -0.00240495 -0.999787 
-0.0205224 -0.0037593 -0.999782 
-0.0198771 -0.00586593 -0.999785 
-0.0225605 -0.00881544 -0.999707 
-0.0211617 -0.0131958 -0.999689 
-0.0197342 -0.0197888 -0.999609 
-0.0204531 -0.028106 -0.999396 
-0.0179886 -0.0389832 -0.999078 
-0.0182364 -0.0493552 -0.998615 
-0.0147326 -0.0586023 -0.998173 
-0.0117132 -0.0632225 -0.997931 
-0.00991009 -0.0522361 -0.998586 
-7.95578e-05 -0.000213227 -1 
5.32539e-05 -0.000211415 1 
0.00649659 -0.0525983 0.998595 
0.00893961 -0.0642843 0.997892 
0.00994788 -0.0604277 0.998123 
0.0113031 -0.0511998 0.998624 
0.012391 -0.0399681 0.999124 
0.0134592 -0.0295068 0.999474 
0.0142324 -0.0209444 0.999679 
0.0140394 -0.0142558 0.9998 
0.0141589 -0.00933379 0.999856 
0.0144453 -0.00576807 0.999879 
0.013479 -0.00332572 0.999904 
0.0134581 -0.00201485 0.999907 
0.0132072 -0.0013053 0.999912 
0.0132433 -0.000868301 0.999912 
0.0129929 -0.000475611 0.999915 
0.012583 -7.18725e-05 0.999921 
0.0130128 0.000379165 0.999915 
0.0129364 0.00102192 0.999916 
0.013007 0.00213582 0.999913 
0.0131043 0.00383647 0.999907 
0.0132851 0.00627628 0.999892 
0.0131123 0.009557 0.999868 
0.0124861 0.0137617 0.999827 
0.0126995 0.0193326 0.999732 
0.0129495 0.0263988 0.999568 
0.0113057 0.036522 0.999269 
0.0115478 0.0499793 0.998683 
0.00919743 0.0678426 0.997654 
0.00814678 0.094051 0.995534 
0.0055132 0.132266 0.991199 
0.00285715 0.198776 0.980041 
0.00084831 0.301574 0.953442 
-0.000620988 0.42295 0.906153 
-0.00242937 0.666626 0.745389 
0.00166768 0.809917 0.586542 
0.00353024 0.979285 0.202454 
0.00462477 0.994671 0.102995 
0.00725623 0.994188 0.10741 
0.00528468 0.998267 0.0586053 
0.00220047 0.99985 0.0171625 
-0.000548455 0.999763 -0.0217494 
0.0011305 0.829242 -0.558889 
0.00220943 0.683505 -0.729943 
0.00545078 0.54339 -0.839463 
0.00427222 0.418145 -0.90837 
0.00168932 0.298777 -0.954322 
-0.00222326 0.208371 -0.978047 
-0.0049872 0.146191 -0.989244 
-0.00727188 0.0994991 -0.995011 
-0.0102259 0.0714327 -0.997393 
-0.010708 0.0520547 -0.998587 
-0.0114449 0.0379416 -0.999214 
-0.0122192 0.0277556 -0.99954 
-0.0126136 0.020343 -0.999713 
-0.0126559 0.0147227 -0.999812 
-0.0127797 0.010379 -0.999864 
-0.0127479 0.00700609 -0.999894 
-0.0135098 0.00445179 -0.999899 
-0.0128062 0.00255146 -0.999915 
-0.0135924 0.00130979 -0.999907 
-0.0127304 0.000532656 -0.999919 
-0.0132489 7.98359e-05 -0.999912 
-0.0127317 -0.000313817 -0.999919 
-0.0129706 -0.000749959 -0.999916 
-0.0126537 -0.00119635 -0.999919 
-0.0130344 -0.00194013 -0.999913 
-0.0129396 -0.00322514 -0.999911 
-0.0131134 -0.00556352 -0.999899 
-0.0148946 -0.00928423 -0.999846 
-0.014543 -0.0145724 -0.999788 
-0.0130952 -0.0213354 -0.999687 
-0.0143345 -0.0291544 -0.999472 
-0.0122677 -0.0394952 -0.999144 
-0.0126176 -0.0503538 -0.998652 
-0.0101319 -0.0601375 -0.998139 
-0.00802079 -0.0648768 -0.997861 
-0.00645788 -0.0525371 -0.998598 