# vtk DataFile Version 3.0 
Exported using Morpho https://github.com/Morpho-lang/morpho 
ASCII 
DATASET UNSTRUCTURED_GRID 

POINTS 1978 float 
-11.9996 -3.99939 -1.19357e-06 
-11.5906 -3.99939 -2.15339e-06 
-11.288 -3.99946 3.36338e-06 
-10.9447 -3.99952 -1.02186e-06 
-10.6339 -3.99953 -2.5203e-07 
-10.2862 -3.99949 -6.40523e-07 
-9.96404 -3.99949 -4.01253e-07 
-9.65622 -3.99945 -1.09278e-06 
-9.31936 -3.99946 -2.69306e-07 
-9.001 -3.99945 3.04784e-07 
-8.68239 -3.99945 1.41934e-07 
-8.36128 -3.99948 -3.61266e-07 
-8.05362 -3.99948 4.03813e-07 
-7.76136 -3.99952 -1.15593e-07 
-7.48192 -3.99947 2.07957e-07 
-7.19458 -3.99951 -1.04229e-08 
-6.89568 -3.99956 1.36027e-07 
-6.59586 -3.99948 2.25494e-07 
-6.29566 -3.99949 -1.22776e-07 
-5.98824 -3.99949 -2.52167e-08 
-5.68646 -3.9995 1.37366e-07 
-5.38218 -3.99949 5.70761e-08 
-5.08191 -3.9995 -8.23008e-08 
-4.78782 -3.99948 1.25489e-07 
-4.45219 -3.99946 1.14643e-07 
-4.16351 -3.99952 -1.59314e-07 
-3.85833 -3.9995 4.11786e-07 
-3.53012 -3.99952 6.92359e-07 
-3.23424 -3.99959 8.60807e-07 
-2.9364 -3.99964 1.72715e-06 
-2.64849 -3.99969 2.50322e-06 
-2.37496 -3.99975 3.03326e-06 
-2.11174 -3.99983 5.29079e-06 
-1.82029 -3.99984 6.24514e-06 
-1.53932 -3.99991 4.24535e-06 
-1.2385 -3.99982 2.19399e-06 
-0.949089 -3.99975 -9.92132e-06 
-0.623405 -3.99945 -1.16312e-05 
-0.341843 -3.99928 -2.08475e-05 
0.0129975 -3.99899 1.31708e-05 
0.332387 -3.99929 1.33197e-05 
0.626724 -3.99942 1.44101e-05 
0.94166 -3.99977 7.23544e-06 
1.21231 -3.99992 -1.35698e-07 
1.47727 -3.99988 -4.42184e-06 
1.765 -3.99987 -6.04201e-06 
2.04646 -3.9998 -5.07323e-06 
2.336 -3.99973 -4.35556e-06 
2.66119 -3.99968 -2.47053e-06 
2.96167 -3.99964 -1.79083e-06 
3.2866 -3.99952 -1.01065e-06 
3.57463 -3.99955 -6.34324e-07 
3.87802 -3.99951 -3.24981e-08 
4.19004 -3.9995 -2.21859e-08 
4.49029 -3.9995 -1.40854e-07 
4.79027 -3.99949 -5.50727e-08 
5.10115 -3.99949 4.35509e-08 
5.40732 -3.99949 -1.18928e-07 
5.71764 -3.99949 -9.34903e-08 
6.00973 -3.99951 1.41733e-07 
6.30421 -3.99951 1.38509e-07 
6.60119 -3.99949 -4.21055e-07 
6.90045 -3.99951 4.40847e-08 
7.17518 -3.9995 -1.71108e-07 
7.47798 -3.9995 1.20408e-07 
7.77281 -3.99948 -5.65651e-08 
8.06877 -3.9995 -4.70176e-07 
8.35857 -3.99954 2.77843e-07 
8.6573 -3.9995 -5.34373e-07 
8.93133 -3.99947 3.79367e-07 
9.27913 -3.99946 5.68981e-08 
9.60832 -3.99946 7.64936e-07 
9.89683 -3.99947 4.79042e-07 
10.2674 -3.99946 4.40735e-07 
10.5821 -3.99947 4.70267e-07 
10.9745 -3.99948 1.60264e-06 
11.2898 -3.9995 -4.29071e-06 
11.5837 -3.9994 2.61209e-06 
11.9996 -3.99939 9.85606e-07 
-11.9995 -3.59815 4.28635e-06 
-11.7093 -3.71438 1.19193e-16 
-11.3537 -3.62005 -1.8883e-17 
-11.0389 -3.66844 -3.88484e-17 
-10.7066 -3.639 4.87827e-17 
-10.3926 -3.67708 2.01943e-17 
-10.0579 -3.65751 6.57097e-17 
-9.73753 -3.6488 7.25397e-17 
-9.41161 -3.68058 4.51912e-17 
-9.07539 -3.66265 3.02121e-17 
-8.75296 -3.66302 1.5427e-17 
-8.43173 -3.66832 7.45004e-18 
-8.1126 -3.66224 5.39349e-18 
-7.79974 -3.65102 9.04281e-19 
-7.5012 -3.64073 2.53591e-18 
-7.20684 -3.66054 3.40926e-18 
-6.8977 -3.66215 3.1522e-18 
-6.58849 -3.6629 2.88741e-18 
-6.27447 -3.66946 -9.6433e-18 
-5.96488 -3.66219 -1.4607e-17 
-5.65449 -3.66205 -1.37627e-17 
-5.34855 -3.65483 -2.13185e-17 
-5.05343 -3.6454 -3.71861e-17 
-4.72887 -3.68467 -1.2864e-17 
-4.43786 -3.64123 -7.43349e-17 
-4.13613 -3.66231 -8.19859e-17 
-3.81607 -3.69209 -7.26333e-17 
-3.51393 -3.67031 -1.70229e-16 
-3.21324 -3.68065 -1.92205e-16 
-2.916 -3.67948 -2.54972e-16 
-2.63427 -3.66729 -3.64217e-16 
-2.35917 -3.66034 -4.14184e-16 
-2.06231 -3.70319 -2.3313e-16 
-1.76948 -3.69049 -3.84335e-16 
-1.48007 -3.6972 -1.28273e-16 
-1.19032 -3.67219 4.04316e-17 
-0.870659 -3.68986 4.92853e-16 
-0.58813 -3.60099 8.97265e-17 
-0.266736 -3.67731 2.15562e-15 
0.0254653 -3.58583 5.50975e-16 
0.304628 -3.62533 -1.71475e-15 
0.603434 -3.61656 -6.12192e-16 
0.896707 -3.68551 -2.60104e-16 
1.21252 -3.65084 3.12355e-17 
1.51305 -3.69312 1.90382e-16 
1.8076 -3.69232 3.38581e-16 
2.10126 -3.6963 2.81521e-16 
2.41847 -3.7271 1.91058e-16 
2.71748 -3.69313 2.54141e-16 
3.02764 -3.70654 1.7429e-16 
3.32313 -3.65756 2.09385e-16 
3.61978 -3.6661 1.32142e-16 
3.92848 -3.67259 9.40219e-17 
4.22942 -3.65437 7.55429e-17 
4.52863 -3.65166 5.17218e-17 
4.83966 -3.66556 3.0099e-17 
5.15088 -3.66328 2.67168e-17 
5.46487 -3.66867 1.46099e-17 
5.76652 -3.65031 1.78586e-17 
6.06448 -3.65556 9.40449e-18 
6.36384 -3.65831 8.43436e-19 
6.66748 -3.66203 5.18737e-19 
6.95048 -3.6306 -8.25163e-18 
7.2515 -3.66401 4.35458e-20 
7.55256 -3.65413 -3.76803e-18 
7.85512 -3.65678 -4.55025e-18 
8.15335 -3.64862 -1.67347e-17 
8.44896 -3.65821 -1.05296e-17 
8.73495 -3.62282 -1.76427e-17 
9.0539 -3.69942 -6.37992e-18 
9.38643 -3.67547 -3.32357e-17 
9.68921 -3.62394 -8.85574e-17 
10.023 -3.7036 -2.77731e-17 
10.3486 -3.64788 -6.85705e-17 
10.7132 -3.71606 9.01733e-17 
11.0444 -3.64189 -8.43194e-18 
11.349 -3.61006 2.44213e-17 
11.7079 -3.72164 -1.02611e-16 
11.9994 -3.59844 -4.4912e-06 
-11.9995 -3.29266 6.96869e-07 
-11.6275 -3.36104 2.39092e-16 
-11.2812 -3.27306 1.16291e-17 
-10.9694 -3.32136 8.66682e-17 
-10.6548 -3.28679 9.7102e-17 
-10.3405 -3.34001 1.41047e-16 
-10.0202 -3.3144 9.15632e-17 
-9.7002 -3.30894 8.04655e-17 
-9.38636 -3.35484 7.11073e-17 
-9.06894 -3.32714 4.47305e-17 
-8.77222 -3.30541 2.70964e-17 
-8.475 -3.33161 2.11821e-17 
-8.16601 -3.32637 2.03412e-17 
-7.86033 -3.31943 8.80636e-18 
-7.55647 -3.2957 4.39054e-19 
-7.25597 -3.3142 1.64006e-18 
-6.95536 -3.33822 2.22162e-18 
-6.64453 -3.33052 -3.23379e-18 
-6.33494 -3.33907 -1.08371e-17 
-6.02749 -3.33085 -1.69374e-17 
-5.71757 -3.32828 -2.65163e-17 
-5.40994 -3.31836 -3.70623e-17 
-5.10513 -3.29573 -4.45155e-17 
-4.80143 -3.35671 -7.13424e-17 
-4.50006 -3.29723 -8.40465e-17 
-4.20066 -3.32241 -1.18327e-16 
-3.8959 -3.37034 -1.83438e-16 
-3.59279 -3.3557 -2.21566e-16 
-3.27888 -3.35939 -2.90742e-16 
-2.97585 -3.36484 -4.04739e-16 
-2.67441 -3.33564 -4.272e-16 
-2.38436 -3.32474 -4.51871e-16 
-2.0907 -3.39357 -5.01822e-16 
-1.79156 -3.38668 -3.35443e-16 
-1.47977 -3.37305 -3.04767e-16 
-1.15508 -3.36142 1.92092e-16 
-0.863937 -3.30513 4.52431e-16 
-0.566415 -3.18391 5.12995e-16 
-0.292346 -3.30029 1.18128e-15 
0.00536171 -3.16889 -9.61763e-16 
0.300346 -3.18151 -2.4132e-15 
0.585241 -3.20617 -1.12407e-16 
0.886835 -3.31455 -6.48006e-16 
1.18129 -3.33018 -5.38696e-17 
1.49112 -3.36901 2.52872e-16 
1.78386 -3.37796 4.44688e-16 
2.07537 -3.38661 5.76092e-16 
2.37368 -3.43564 5.97615e-16 
2.67795 -3.38554 4.77751e-16 
2.97834 -3.39354 4.10414e-16 
3.26783 -3.33109 2.80501e-16 
3.56934 -3.32899 2.32838e-16 
3.86796 -3.34517 1.8422e-16 
4.16994 -3.31938 1.22045e-16 
4.47182 -3.30863 8.7987e-17 
4.77477 -3.33004 7.05813e-17 
5.08223 -3.3309 5.2056e-17 
5.39367 -3.33797 3.87656e-17 
5.70096 -3.31614 3.03646e-17 
6.0097 -3.31177 2.22039e-17 
6.30699 -3.31818 1.32117e-17 
6.60902 -3.32835 3.13394e-18 
6.90711 -3.2779 4.19077e-19 
7.20431 -3.3226 1.96064e-18 
7.50665 -3.31622 1.80276e-18 
7.81249 -3.32065 -1.26433e-17 
8.11938 -3.30895 -1.98161e-17 
8.42345 -3.30617 -2.75476e-17 
8.74686 -3.30196 -2.72921e-17 
9.07114 -3.37836 -4.55805e-17 
9.38195 -3.32977 -8.24641e-17 
9.69031 -3.27419 -8.60647e-17 
9.99895 -3.37162 -1.09515e-16 
10.3038 -3.2972 -1.18514e-16 
10.6299 -3.3979 -1.57341e-16 
10.961 -3.31923 -9.99152e-17 
11.2908 -3.24555 -2.36555e-18 
11.6269 -3.36833 -2.49235e-16 
11.9994 -3.28614 -4.80402e-07 
-11.9995 -2.96897 2.15538e-06 
-11.6552 -3.04541 1.50408e-16 
-11.31 -2.9558 -3.48163e-17 
-10.963 -2.96681 -2.26509e-18 
-10.6245 -2.96106 2.99922e-17 
-10.2952 -2.99801 7.90832e-17 
-9.96973 -2.97924 4.25659e-17 
-9.6424 -2.97993 5.65728e-17 
-9.33964 -3.01418 5.57655e-17 
-9.03872 -2.97197 2.18117e-17 
-8.735 -2.95865 1.22362e-17 
-8.43529 -2.99129 2.15971e-17 
-8.13196 -2.98585 1.80668e-17 
-7.8317 -2.98077 4.26578e-18 
-7.52885 -2.95973 -1.27148e-17 
-7.23146 -2.98181 -6.55426e-18 
-6.93128 -3.0112 -4.74296e-18 
-6.62136 -3.00406 -2.0735e-18 
-6.31932 -3.00574 -7.93929e-18 
-6.01216 -3.00054 -1.89661e-17 
-5.70516 -2.99526 -2.99651e-17 
-5.39851 -2.98362 -3.42155e-17 
-5.09292 -2.96108 -3.76078e-17 
-4.79544 -3.02048 -5.54345e-17 
-4.48905 -2.9705 -6.57317e-17 
-4.18841 -2.99203 -9.71874e-17 
-3.89487 -3.04639 -1.333e-16 
-3.59711 -3.03281 -1.51466e-16 
-3.29758 -3.05064 -1.94784e-16 
-2.97803 -3.04402 -2.39885e-16 
-2.6859 -2.99451 -2.63765e-16 
-2.37597 -2.99104 -2.59915e-16 
-2.07561 -3.06847 -2.68098e-16 
-1.76563 -3.06849 -2.15925e-16 
-1.44163 -3.05109 8.51407e-17 
-1.14856 -2.98371 5.60612e-16 
-0.845936 -2.90021 7.40589e-16 
-0.573296 -2.76234 1.79339e-15 
-0.248456 -2.86136 -2.1572e-15 
0.0184026 -2.64336 1.49364e-15 
0.273542 -2.7179 4.94546e-16 
0.531979 -2.68789 -1.3634e-15 
0.834889 -2.90624 -6.67094e-17 
1.15057 -2.95499 -1.29151e-17 
1.46302 -3.02595 1.39945e-16 
1.77358 -3.04234 2.88599e-16 
2.07558 -3.05584 1.88206e-16 
2.37089 -3.12407 3.2518e-16 
2.66858 -3.05877 2.84696e-16 
2.9617 -3.0684 2.37819e-16 
3.26334 -3.0013 1.82674e-16 
3.5627 -3.00515 1.46206e-16 
3.86807 -3.01419 1.21481e-16 
4.16639 -2.98803 9.66692e-17 
4.46517 -2.9766 6.80517e-17 
4.76447 -2.99581 5.44761e-17 
5.06627 -2.9992 4.1922e-17 
5.37164 -3.00757 3.45061e-17 
5.67968 -2.98735 2.57502e-17 
5.98695 -2.98631 1.91743e-17 
6.29927 -2.9757 1.27166e-17 
6.59366 -2.99262 3.80184e-18 
6.91577 -2.96397 9.4585e-19 
7.23388 -2.98647 2.54643e-18 
7.53611 -2.98208 5.85143e-18 
7.83933 -2.98822 4.15675e-18 
8.13897 -2.97147 -1.04774e-17 
8.44789 -2.98338 -1.69405e-17 
8.7474 -2.95948 -1.55577e-17 
9.05011 -3.04861 -3.11257e-17 
9.35784 -2.99407 -5.16028e-17 
9.66163 -2.9344 -5.18341e-17 
9.98595 -3.01963 -4.5652e-17 
10.3165 -2.96679 -5.15838e-17 
10.6432 -3.06374 -4.92276e-17 
10.9742 -2.9792 -3.43566e-18 
11.3281 -2.92541 3.07241e-17 
11.6657 -3.04712 -1.75836e-16 
11.9995 -2.94399 -2.98268e-06 
-11.9994 -2.6575 3.91121e-06 
-11.6443 -2.71969 7.61504e-17 
-11.2999 -2.63215 -2.89235e-17 
-10.9606 -2.64552 -1.01932e-17 
[...]
POINT_DATA 1978 
VECTORS vectors float
0.034837 -0.0540468 0.997979 
0.040071 -0.0727383 0.996618 
0.0357165 -0.0674525 0.997161 
0.0359123 -0.0530482 0.998022 
0.0362627 -0.0382913 0.998683 
0.0373162 -0.0245119 0.999076 
0.0370717 -0.0159318 0.999257 
0.0378988 -0.0107499 0.999294 
0.0386861 -0.00740014 0.999292 
0.0384344 -0.00599326 0.999311 
0.038803 -0.00536839 0.999299 
0.038763 -0.00474414 0.999302 
0.038137 -0.00419121 0.999329 
0.0374556 -0.00364207 0.999357 
0.0371203 -0.0027913 0.999373 
0.0375221 -0.00179764 0.999353 
0.0383631 -0.000961469 0.999311 
0.0382402 -0.000101218 0.999333 
0.0382235 0.00081818 0.999333 
0.0381115 0.00202257 0.999336 
0.0379475 0.00370746 0.999338 
0.0377651 0.00614412 0.999334 
0.0372435 0.00921104 0.999331 
0.0381501 0.0129859 0.999254 
0.0374088 0.0187949 0.999192 
0.0367365 0.0247714 0.999086 
0.0373932 0.0330019 0.998822 
0.0362943 0.045266 0.998382 
0.034969 0.0605883 0.997617 
0.0334151 0.0821381 0.996128 
0.0309799 0.111543 0.993345 
0.0283234 0.150143 0.988329 
0.0255867 0.200885 0.97935 
0.0215284 0.276098 0.960958 
0.016473 0.37 0.928955 
0.0102499 0.497401 0.867525 
0.00404653 0.642697 0.766164 
-0.00115102 0.813672 0.581344 
-0.00191261 0.937281 0.348529 
-0.000144526 0.99983 -0.0165809 
0.00221943 0.938288 -0.345798 
0.000826048 0.808305 -0.588786 
-0.00432714 0.642853 -0.766033 
-0.00974758 0.50862 -0.860969 
-0.0153372 0.391084 -0.920297 
-0.020829 0.290735 -0.956647 
-0.0253783 0.215367 -0.976272 
-0.0296463 0.157646 -0.987117 
-0.0323534 0.111258 -0.99333 
-0.0344374 0.0807895 -0.996202 
-0.03516 0.0583723 -0.997743 
-0.0357732 0.0439603 -0.998461 
-0.0368115 0.0330253 -0.998844 
-0.0370375 0.0244285 -0.999083 
-0.0370722 0.017985 -0.999219 
-0.0376453 0.01303 -0.999274 
-0.0378779 0.00905141 -0.999308 
-0.0381249 0.00596436 -0.999321 
-0.0378696 0.00361105 -0.999342 
-0.0376661 0.00206716 -0.999353 
-0.0379142 0.000923476 -0.999345 
-0.0380579 -0.00012816 -0.99934 
-0.0374028 -0.00101851 -0.999365 
-0.037724 -0.00168359 -0.999352 
-0.0380746 -0.00263988 -0.999336 
-0.0378413 -0.00366453 -0.999342 
-0.0377875 -0.00449028 -0.999341 
-0.0379482 -0.00532732 -0.99933 
-0.0372915 -0.00605132 -0.999352 
-0.0385467 -0.00654591 -0.9993 
-0.0393055 -0.00803354 -0.99926 
-0.037375 -0.0110227 -0.99931 
-0.0379986 -0.0153973 -0.999229 
-0.0372869 -0.0246015 -0.999073 
-0.0370048 -0.0360345 -0.998738 
-0.0365802 -0.0547516 -0.997904 
-0.0350027 -0.0672473 -0.9972 
-0.0400708 -0.0724689 -0.996638 
-0.0349072 -0.0540752 -0.997975 
0.0304959 -0.0546486 0.998122 
0.0357306 -0.0584778 0.997789 
0.0397077 -0.0627315 0.9974 
0.0393606 -0.0543343 0.99791 
0.0413983 -0.0415632 0.998439 
0.042 -0.0297844 0.998833 
0.0443258 -0.0199514 0.998974 
0.0460009 -0.0134477 0.999027 
0.0461253 -0.00918651 0.999019 
0.0476213 -0.00675781 0.99899 
0.0479016 -0.00543812 0.999007 
0.0481867 -0.00463723 0.998971 
0.0487276 -0.00398542 0.998946 
0.0491808 -0.00331778 0.998924 
0.0499171 -0.00249138 0.99889 
0.0491248 -0.00160395 0.998934 
0.0483597 -0.000756117 0.998985 
0.0490586 8.24254e-05 0.998934 
0.0485097 0.00107861 0.998961 
0.0486824 0.00235969 0.998951 
0.04834 0.00414207 0.998963 
0.0483668 0.00659695 0.99895 
0.0484535 0.00966956 0.998921 
0.0461888 0.0139687 0.998976 
0.0481195 0.0190473 0.998808 
0.0464145 0.0256421 0.998737 
0.0445628 0.0349314 0.998538 
0.044347 0.0470281 0.998051 
0.0419516 0.0636977 0.99723 
0.0395096 0.0868993 0.995578 
0.0363909 0.118035 0.992491 
0.0322032 0.159565 0.986814 
0.0263712 0.219251 0.975466 
0.0208972 0.298294 0.954402 
0.014593 0.400934 0.916116 
0.00832424 0.527104 0.849907 
0.00265787 0.684773 0.728873 
-0.000547667 0.832967 0.55339 
-0.0012844 0.958698 0.284223 
-0.000888539 0.999801 -0.0153587 
-0.000152209 0.949551 -0.313473 
-0.00153024 0.826156 -0.563496 
-0.00494513 0.667019 -0.745151 
-0.0104215 0.509127 -0.860806 
-0.016638 0.380495 -0.924788 
-0.0229488 0.282755 -0.959071 
-0.0284424 0.208204 -0.977821 
-0.0330849 0.148219 -0.988547 
-0.0373713 0.1081 -0.993582 
-0.0401928 0.0780753 -0.996264 
-0.0431983 0.0575983 -0.99757 
-0.0445012 0.0430115 -0.998228 
-0.0453894 0.0318136 -0.998608 
-0.0467471 0.0236367 -0.998772 
-0.0473496 0.0173512 -0.998872 
-0.0473361 0.012369 -0.998946 
-0.0480569 0.00858204 -0.998949 
-0.048048 0.00563272 -0.99897 
-0.0491382 0.00351714 -0.998925 
-0.0491334 0.00199125 -0.998928 
-0.0490781 0.000825122 -0.998932 
-0.0491583 -0.000129441 -0.998928 
-0.0504944 -0.000907584 -0.998861 
-0.0490149 -0.00177025 -0.998935 
-0.0495076 -0.00260669 -0.998909 
-0.0494994 -0.00345003 -0.998907 
-0.0498064 -0.0042582 -0.998888 
-0.0494236 -0.00511284 -0.99888 
-0.0503251 -0.0059825 -0.998878 
-0.0468469 -0.00733922 -0.998995 
-0.0466556 -0.0096326 -0.999011 
-0.0473897 -0.013446 -0.99896 
-0.0431343 -0.0194835 -0.999009 
-0.043115 -0.0287589 -0.998839 
-0.0391164 -0.0418302 -0.998522 
-0.0401556 -0.0541028 -0.997891 
-0.039978 -0.0621982 -0.997423 
-0.0355913 -0.058622 -0.997786 
-0.0305629 -0.0546632 -0.99812 
0.0245424 -0.0512003 0.998472 
0.0368608 -0.0588969 0.997742 
0.0384869 -0.0589896 0.997701 
0.0411484 -0.0512126 0.997974 
0.0429959 -0.0410236 0.998418 
0.0460167 -0.0302714 0.998613 
0.0478351 -0.0212221 0.998784 
0.0498504 -0.0145287 0.998778 
0.0512061 -0.00989205 0.998812 
0.0523817 -0.00725135 0.998748 
0.053139 -0.00566516 0.998697 
0.0534913 -0.00449871 0.998699 
0.0536173 -0.00363943 0.998698 
0.0534312 -0.00295665 0.998708 
0.0530343 -0.00223424 0.998754 
0.0535029 -0.0015156 0.998707 
0.0539421 -0.000758372 0.998659 
0.0535616 0.000105909 0.998704 
0.0533976 0.00103193 0.998713 
0.0531807 0.00218951 0.998723 
0.0528998 0.0038358 0.998734 
0.0524605 0.00611251 0.998747 
0.0518971 0.00909171 0.998778 
0.0520088 0.0129697 0.998687 
0.0508828 0.0177332 0.998709 
0.0503648 0.0243175 0.998578 
0.0497401 0.0330087 0.998336 
0.0476544 0.0445816 0.998035 
0.0452595 0.0616688 0.997216 
0.0421075 0.0846587 0.995644 
0.0372027 0.116657 0.99263 
0.0318508 0.159873 0.986814 
0.0271758 0.219332 0.975406 
0.0203728 0.300013 0.953882 
0.0134878 0.405642 0.914129 
0.00669039 0.547007 0.837262 
0.00170356 0.696554 0.717631 
-0.00114709 0.844904 0.534962 
-0.00191879 0.95661 0.291217 
-0.00145171 0.999804 -0.0150256 
-0.00139468 0.953262 -0.301933 
-0.00216317 0.836829 -0.547545 
-0.00484573 0.686528 -0.727224 
-0.009386 0.533186 -0.846112 
-0.0155342 0.398111 -0.917375 
-0.0219988 0.29521 -0.955345 
-0.028415 0.217598 -0.975782 
-0.0346236 0.159703 -0.986683 
-0.0386551 0.115954 -0.992673 
-0.0425278 0.0845549 -0.995657 
-0.0448539 0.0630292 -0.997152 
-0.0472036 0.0464063 -0.997957 
-0.0491482 0.0344339 -0.99832 
-0.0500399 0.025404 -0.998572 
-0.0506149 0.018535 -0.99871 
-0.0517181 0.0134518 -0.998715 
-0.0524294 0.00942468 -0.998724 
-0.0530006 0.00634608 -0.998693 
-0.0528175 0.00401952 -0.998761 
-0.0530925 0.00234686 -0.998727 
-0.0533881 0.00118171 -0.998713 
-0.053695 0.000244863 -0.998674 
-0.0532463 -0.000540287 -0.998744 
-0.0539292 -0.00136059 -0.998661 
-0.0539023 -0.00211775 -0.998685 
-0.0539359 -0.00287777 -0.998681 
-0.0538685 -0.00367071 -0.998682 
-0.0534439 -0.00460126 -0.998725 
-0.0533657 -0.00595353 -0.998702 
-0.0531628 -0.00776029 -0.9987 
-0.0517413 -0.0105162 -0.998752 
-0.0497262 -0.0149096 -0.998803 
-0.0485502 -0.0206233 -0.998762 
-0.046068 -0.0294991 -0.998661 
-0.0446768 -0.0399409 -0.998335 
-0.0413277 -0.0506935 -0.99802 
-0.0378831 -0.0589233 -0.997729 
-0.037074 -0.0586388 -0.997751 
-0.0243315 -0.0522322 -0.998424 
0.0191274 -0.0515936 0.998567 
0.0299432 -0.0571818 0.998073 
0.0320264 -0.0600525 0.997839 
0.0354675 -0.052623 0.998145 
0.038224 -0.0424694 0.998526 
0.0416385 -0.0310738 0.998808 
0.0436591 -0.0218197 0.998964 
0.0455738 -0.0148946 0.999027 
0.0479528 -0.0104554 0.99892 
0.0480557 -0.00756947 0.998963 
0.0483506 -0.00552104 0.998957 
0.0493305 -0.00414298 0.998924 
0.0492103 -0.00317726 0.998928 
0.049259 -0.00246388 0.998925 
0.0488348 -0.00180923 0.998923 
0.0490694 -0.00117621 0.998935 
0.0494788 -0.000463101 0.998939 
0.0491717 0.0003551 0.998932 
0.0490936 0.00120942 0.998936 
0.0488255 0.00236222 0.998948 
0.0486018 0.00400734 0.998954 
0.0481654 0.00629395 0.998964 
0.0474999 0.00937074 0.998947 
0.0478868 0.0131398 0.998933 
0.0465083 0.0184093 0.998866 
0.0458521 0.0249801 0.998778 
0.0453706 0.0336597 0.998569 
0.0433578 0.0459235 0.998124 
0.0410231 0.0622089 0.997367 
0.0368326 0.0869037 0.995716 
0.0318579 0.119794 0.992456 
0.0264835 0.167241 0.985742 
0.0223365 0.228267 0.973515 
0.0160636 0.312461 0.949976 
0.00963346 0.429496 0.903202 
0.0040237 0.564779 0.825408 
0.000787495 0.70848 0.705868 
-0.00020102 0.855416 0.517948 
-0.000732807 0.965785 0.259182 
0.00134788 0.999885 -0.00889311 
0.000922391 0.960033 -0.279706 
0.000723576 0.858672 -0.51257 
-0.00277036 0.703202 -0.711137 
-0.00642903 0.547584 -0.836914 
-0.0119415 0.411175 -0.911673 
-0.0177719 0.306386 -0.951899 
-0.0232289 0.225271 -0.974222 
-0.0299668 0.164452 -0.986092 
-0.0337953 0.12101 -0.992216 
-0.0375952 0.0883262 -0.995559 
-0.0397713 0.0655256 -0.99719 
-0.042242 0.0479855 -0.998098 
-0.0443781 0.0351038 -0.998565 
-0.0454069 0.0259147 -0.998772 
-0.0465299 0.0191139 -0.998858 
-0.0475385 0.0137949 -0.998918 
-0.048097 0.00973818 -0.99894 
-0.0485459 0.00655412 -0.998967 
-0.0486694 0.00422514 -0.998926 
-0.0486361 0.0025204 -0.998956 
-0.048501 0.00132111 -0.998965 
-0.0488618 0.000466516 -0.99897 
-0.0486827 -0.00034031 -0.998932 
-0.0490676 -0.00112498 -0.99896 
-0.0492595 -0.00181184 -0.998927 
-0.0496102 -0.00250509 -0.998908 
-0.0494349 -0.00328135 -0.998915 
-0.0496232 -0.00439669 -0.998902 
-0.0487248 -0.00591227 -0.99894 
-0.0497567 -0.00800575 -0.998876 
-0.047629 -0.0111684 -0.998951 
-0.0449388 -0.0159124 -0.999016 
-0.0445896 -0.02238 -0.99891 
-0.0409742 -0.0321835 -0.9988 
-0.0402454 -0.0423179 -0.998454 
-0.0357665 -0.0527005 -0.998131 
-0.0314119 -0.0603389 -0.997842 
-0.0299358 -0.0563024 -0.998126 
-0.0183418 -0.0533073 -0.998492 
0.0134187 -0.0550621 0.998471 
0.0228841 -0.0582779 0.99822 
0.025364 -0.0623587 0.997864 
0.0286624 -0.0545969 0.998283 
0.031382 -0.0452602 0.998615 
0.034432 -0.0333653 0.999034 
0.0366913 -0.0234195 0.999207 
0.0385081 -0.0162779 0.999253 
0.0397743 -0.0110937 0.999322 
0.0399213 -0.00766229 0.999321 
0.0399648 -0.00524982 0.999334 
0.0409427 -0.0036916 0.999301 
0.0407743 -0.00263245 0.999309 
0.0407295 -0.00192526 0.999311 
0.04018 -0.00130446 0.999333 
0.0408709 -0.000698069 0.999306 
0.041558 -3.22263e-05 0.999278 
0.0407503 0.000711004 0.999311 
0.0407598 0.00158666 0.999311 
0.0405574 0.00283083 0.999317 
0.040317 0.00466309 0.99932 
0.0398457 0.00721244 0.999323 
0.0392837 0.0106437 0.999314 
0.0399823 0.0146548 0.999233 
0.0382121 0.0205177 0.999198 
0.0378409 0.0279983 0.999031 
0.0373224 0.0373944 0.998744 
0.0350927 0.0510094 0.998226 
0.033014 0.0699572 0.997157 
0.0282832 0.0951638 0.995227 
0.0232512 0.13381 0.990919 
0.0182002 0.184668 0.982806 
0.0156801 0.243925 0.969891 
0.0101587 0.344093 0.939082 
0.0046048 0.465779 0.885086 
0.00121348 0.604891 0.796471 
0.000753204 0.748044 0.663816 
0.00168444 0.861365 0.508015 
0.00251558 0.943512 0.331213 
0.00379029 0.997545 0.0689428 
0.00283746 0.963883 -0.266132 
0.0024995 0.856566 -0.516085 
0.00119563 0.715888 -0.698335 
-0.00209543 0.55094 -0.834747 
-0.00724256 0.413862 -0.910526 
-0.012418 0.302998 -0.953144 
-0.0176282 0.225042 -0.974356 
-0.0240753 0.163686 -0.986395 
-0.0261662 0.120815 -0.992532 
-0.0307064 0.0878152 -0.995824 
-0.0322239 0.0632845 -0.997628 
-0.0350973 0.0459096 -0.998474 
-0.0369857 0.0338284 -0.998886 
-0.0377922 0.0246911 -0.999122 
-0.0384223 0.017994 -0.999242 
-0.0396396 0.012958 -0.999273 
-0.0402303 0.00908884 -0.999293 
-0.0406081 0.00609749 -0.9993 
-0.0402681 0.0038377 -0.999325 
-0.0404338 0.0022592 -0.999322 
-0.0396709 0.00122525 -0.999354 
-0.0409222 0.000427289 -0.999303 
-0.0404305 -0.000288905 -0.999323 
-0.0406001 -0.0009291 -0.999316 
-0.0407656 -0.00155228 -0.999309 
-0.0409507 -0.00217404 -0.999301 
-0.0408565 -0.00297114 -0.999303 
-0.0409835 -0.00415539 -0.999291 
-0.0401386 -0.00595251 -0.999302 
-0.0421591 -0.00830821 -0.999223 
-0.039681 -0.0118574 -0.999292 
-0.037133 -0.0172994 -0.999313 
-0.0375433 -0.0241754 -0.999157 
-0.0341041 -0.0343497 -0.998985 
-0.0335947 -0.0449266 -0.998584 
-0.0290205 -0.0554573 -0.998199 
-0.0244223 -0.0624426 -0.997906 
-0.0225588 -0.0573408 -0.998258 
-0.0127331 -0.0529759 -0.998596 
0.00807939 -0.0564773 0.998448 
0.0152285 -0.0555947 0.998472 
0.0180056 -0.0654214 0.997848 
0.0205605 -0.0595663 0.998171 
0.0227839 -0.0508357 0.998606 
0.0254688 -0.0392628 0.999062 
0.0275837 -0.0286112 0.999365 
0.0288375 -0.0200827 0.999535 
0.0300926 -0.0137935 0.999602 
0.0303711 -0.00946629 0.999642 
0.0299167 -0.0062288 0.99968 
0.0304113 -0.00398296 0.999674 
0.0305308 -0.00267942 0.999674 
0.0304639 -0.00186066 0.999676 
0.030376 -0.00129432 0.999679 
0.0301513 -0.000725823 0.999686 
0.0307809 -0.000163744 0.999667 
0.0307991 0.000422629 0.999667 
0.030314 0.00113911 0.999682 
0.0303428 0.00212506 0.99968 
0.0303028 0.00364964 0.999677 
0.0300198 0.00585334 0.999674 
0.0297536 0.00882959 0.999659 
0.0291201 0.0126972 0.999634 
0.0299269 0.0171965 0.999541 
0.0283628 0.0241112 0.999443 
0.027612 0.0324577 0.999228 
0.0271258 0.0431196 0.998843 
0.0255226 0.0590748 0.998075 
0.0222141 0.0786936 0.996815 
0.018446 0.110494 0.993886 
0.0131596 0.156056 0.987861 
0.00909913 0.224154 0.97472 
0.0077724 0.294068 0.95594 
0.00391804 0.394186 0.919253 
0.000226595 0.536236 0.844262 
-0.000633822 0.669216 0.743241 
-0.00240184 0.831577 0.555519 
-6.68284e-05 0.992846 0.11913 
-0.00371537 0.999881 0.00676116 
-0.0038265 0.962923 -0.269654 
-0.00245938 0.967325 -0.253356 
0.00116204 0.786395 -0.617858 
0.00250592 0.632681 -0.774596 
-0.000526395 0.460152 -0.888066 
-0.00489955 0.334933 -0.942455 
-0.00893863 0.243139 -0.970167 
-0.0152994 0.175963 -0.984471 
-0.0164422 0.132671 -0.991211 
-0.0210195 0.0978493 -0.995122 
-0.0232631 0.0719239 -0.997298 
-0.0255793 0.0504111 -0.99855 
-0.0271126 0.0366551 -0.999104 
-0.0282822 0.0269298 -0.999378 
-0.0285549 0.0195805 -0.999539 
-0.0294655 0.0140417 -0.999607 
-0.0298983 0.00994914 -0.999645 
-0.0303497 0.00675356 -0.999659 
-0.0302511 0.00433957 -0.999676 
-0.0303536 0.00255991 -0.999678 
-0.0294066 0.00141812 -0.999709 
-0.0304686 0.000635493 -0.999677 
-0.0308111 3.04085e-05 -0.999666 
-0.0298065 -0.000573576 -0.999697 
-0.0302623 -0.00112689 -0.999683 
-0.0301005 -0.00170035 -0.999688 
-0.030141 -0.00244146 -0.999687 
-0.0303472 -0.00368907 -0.99968 
-0.0294745 -0.00556291 -0.999716 
-0.0317955 -0.00860799 -0.999605 
-0.0302089 -0.0129195 -0.99961 
-0.0278216 -0.0188398 -0.999588 
-0.0287601 -0.0263118 -0.999395 
-0.0256318 -0.0371708 -0.999137 
-0.0259161 -0.0478778 -0.998675 
-0.021556 -0.0581361 -0.998234 
-0.0174526 -0.0646423 -0.99791 
-0.0160733 -0.0596461 -0.998245 
-0.00860803 -0.0530565 -0.998635 
0.00575353 -0.0528357 0.998668 
0.0107241 -0.0615799 0.998223 
0.0134815 -0.0656494 0.997904 
0.014778 -0.0593164 0.998293 
0.01682 -0.0488518 0.998822 
0.0185217 -0.0371168 0.999295 
0.0201207 -0.0267336 0.999593 
0.0208963 -0.0185101 0.999761 
0.021158 -0.012732 0.999844 
0.0214073 -0.00835032 0.999882 
0.0212415 -0.00506239 0.999906 
0.020853 -0.00312653 0.99992 
0.0209965 -0.00200282 0.999919 
0.0208109 -0.0013697 0.999923 
0.0210011 -0.000895637 0.999919 
0.0204223 -0.000392021 0.999931 
0.0206518 8.80416e-05 0.999927 
0.02099 0.000626894 0.999921 
0.0205054 0.00136454 0.999931 
0.0207382 0.0025576 0.999924 
0.0207736 0.00440438 0.999916 
0.0206583 0.00702112 0.999903 
0.0203743 0.0104534 0.999876 
0.0196016 0.0148173 0.999834 
0.0208218 0.0201504 0.999715 
0.0190497 0.0282429 0.999555 
0.018201 0.0382432 0.999243 
0.0183011 0.0519896 0.998602 
0.0150904 0.069919 0.997625 
0.0130859 0.0988964 0.995166 
0.00879685 0.141457 0.990134 
0.0051455 0.216194 0.976561 
0.00242249 0.319243 0.947931 
4.99072e-05 0.447913 0.894297 
-0.0014772 0.611603 0.791389 
-0.0031534 0.774679 0.632414 
-0.000228351 0.896123 0.443874 
-0.00269422 0.936149 0.351555 
-0.00416166 0.965823 0.259133 
0.00202868 0.989532 0.143594 
-0.00273534 0.990906 -0.133696 
-0.00106644 0.946357 -0.323086 
0.000162298 0.86492 -0.501962 
0.00385684 0.688599 -0.725285 
0.00407097 0.544281 -0.839143 
0.00141074 0.382874 -0.924029 
-0.0018988 0.27721 -0.961037 
-0.00710333 0.190119 -0.981979 
-0.0100576 0.13237 -0.991311 
-0.0133764 0.0930864 -0.99577 
-0.0168368 0.0652186 -0.997881 
-0.0175161 0.0474868 -0.99887 
-0.018626 0.0345696 -0.99937 
-0.0195463 0.0253117 -0.999626 
-0.0198935 0.018319 -0.999771 
-0.0201186 0.0132312 -0.999848 
-0.0204342 0.0092623 -0.999889 
-0.0206332 0.00621889 -0.99991 
-0.0210093 0.00377822 -0.999914 
-0.02055 0.00218043 -0.999928 
-0.0205416 0.00109027 -0.999929 
-0.0206749 0.000480329 -0.999927 
-0.0212579 -2.76213e-05 -0.999914 
-0.020024 -0.000509349 -0.999939 
-0.0206814 -0.00101338 -0.999926 
-0.0201494 -0.00152392 -0.999938 
-0.0205095 -0.00233694 -0.999929 
-0.020609 -0.00367124 -0.999901 
-0.0199708 -0.00578358 -0.999928 
-0.0227468 -0.00877038 -0.99985 
-0.0213278 -0.0131791 -0.999835 
-0.0198663 -0.0198171 -0.999758 
-0.0206036 -0.0283308 -0.99954 
-0.0180966 -0.0397245 -0.999202 
-0.0183964 -0.0508703 -0.998693 
-0.0147966 -0.0606747 -0.998205 
-0.0118015 -0.0669455 -0.997839 
-0.0108 -0.0609224 -0.998237 
-0.00544374 -0.0540615 -0.998603 
0.00386944 -0.0545079 0.998585 
0.00713406 -0.0617698 0.998213 
0.00900254 -0.0681565 0.997772 
0.00994354 -0.062554 0.998148 
0.0113028 -0.0527274 0.998695 
0.0123921 -0.0408533 0.999242 
0.0135025 -0.0298561 0.999615 
0.0142837 -0.0210879 0.999825 
0.0140293 -0.0142642 0.999947 
0.014149 -0.00929609 1 
0.0144362 -0.00568004 1.00002 
0.0134023 -0.0032145 1.00005 
0.013361 -0.00194387 1.00005 
0.0131041 -0.00128189 1.00005 
0.0131315 -0.000873001 1.00005 
0.0128528 -0.000479568 1.00006 
0.0124444 -6.7876e-05 1.00006 
0.0129057 0.000356087 1.00006 
0.0128328 0.000955151 1.00006 
0.0129005 0.00204339 1.00006 
0.0130742 0.0037596 1.00005 
0.0131979 0.00621888 1.00003 
0.0130726 0.00952278 1.00001 
0.0124028 0.0137288 0.999963 
0.0126601 0.0192681 0.999885 
0.012936 0.0262771 0.999687 
0.0112783 0.0364477 0.999433 
0.0114969 0.0500358 0.998828 
0.00908168 0.068277 0.997785 
0.00810085 0.0942346 0.995688 
0.00531533 0.13331 0.99123 
0.00283296 0.19785 0.980453 
0.000637216 0.30229 0.953459 
-0.000708756 0.429095 0.903469 
-0.00257994 0.666732 0.745494 
0.001754 0.845624 0.533888 
0.00674183 0.976349 0.215898 
0.00399185 0.995272 0.0971195 
0.00563235 0.994358 0.107711 
0.0038412 0.995022 0.101034 
0.00158042 0.99982 -0.0162709 
8.05006e-05 0.998265 -0.0589618 
0.00114259 0.812354 -0.58321 
0.00294876 0.687899 -0.725933 
0.00604363 0.545778 -0.8381 
0.00441178 0.415801 -0.909618 
0.00181377 0.299396 -0.954355 
-0.002188 0.208828 -0.978168 
-0.00482095 0.146459 -0.989408 
-0.0073512 0.0991647 -0.995227 
-0.0101629 0.0711359 -0.997557 
-0.0106504 0.0519511 -0.998742 
-0.0113814 0.0380411 -0.999353 
-0.0121603 0.0278262 -0.999675 
-0.0125949 0.0203497 -0.999847 
-0.0125848 0.0147166 -0.999946 
-0.012724 0.0103603 -1 
-0.0126871 0.0069776 -1.00006 
-0.0134497 0.00438577 -1.00002 
-0.0127056 0.00245928 -1.00008 
-0.0135002 0.00124618 -1.00003 
-0.0126542 0.0005078 -1.00006 
-0.0131261 8.37223e-05 -1.00005 
-0.0125959 -0.000304098 -1.00006 
-0.0128342 -0.00074632 -1.00006 
-0.0125513 -0.00117467 -1.00006 
-0.0128992 -0.00185946 -1.00006 
-0.0128694 -0.00311957 -1.00008 
-0.013058 -0.00547186 -1.00004 
-0.0149171 -0.00923999 -0.999993 
-0.0145692 -0.0145829 -0.999936 
-0.0130861 -0.0214314 -0.999834 
-0.014403 -0.0293792 -0.999617 
-0.0122703 -0.0401874 -0.999271 
-0.0126408 -0.0518627 -0.99873 
-0.0101021 -0.0622507 -0.998164 
-0.00802667 -0.0685846 -0.997763 
-0.00703671 -0.0615438 -0.99823 
-0.00348753 -0.0535106 -0.99864 
0.00242383 -0.0541387 0.998609 
0.00469739 -0.0626493 0.998157 
0.00592185 -0.0690517 0.997767 