# vtk DataFile Version 3.0 
Exported using Morpho https://github.com/Morpho-lang/morpho 
ASCII 
DATASET UNSTRUCTURED_GRID 

POINTS 1978 float 
-8.48528 -2.82842 1.39367e-09 
-8.2598 -2.82843 3.0008e-10 
-8.03196 -2.82843 -3.54231e-09 
-7.76608 -2.82843 -6.47384e-09 
-7.47096 -2.82843 -5.68877e-09 
-7.23075 -2.82843 -4.33479e-09 
-6.99149 -2.82843 -3.19241e-09 
-6.75929 -2.82843 -1.52148e-09 
-6.54961 -2.82843 -3.46427e-09 
-6.3447 -2.82843 -1.67906e-09 
-6.1422 -2.82843 -1.13745e-09 
-5.93273 -2.82843 -8.59419e-10 
-5.71521 -2.82843 -5.66655e-10 
-5.50979 -2.82843 -2.65114e-10 
-5.29382 -2.82843 -7.82666e-11 
-5.08002 -2.82843 7.36097e-12 
-4.8618 -2.82843 1.28664e-10 
-4.6564 -2.82843 3.0525e-10 
-4.43641 -2.82843 5.40664e-10 
-4.21939 -2.82843 7.8793e-10 
-4.00084 -2.82843 1.05715e-09 
-3.79044 -2.82843 1.40113e-09 
-3.5745 -2.82843 1.80236e-09 
-3.36052 -2.82843 2.36874e-09 
-3.1386 -2.82843 2.99077e-09 
-2.92542 -2.82843 3.65943e-09 
-2.71337 -2.82843 4.27716e-09 
-2.5155 -2.82843 4.99859e-09 
-2.30245 -2.82843 5.63522e-09 
-2.09195 -2.82843 5.76907e-09 
-1.88609 -2.82843 5.52072e-09 
-1.67928 -2.82843 4.59967e-09 
-1.48194 -2.82843 4.21652e-09 
-1.26254 -2.82842 4.27231e-08 
-1.09262 -2.82843 -6.07205e-08 
-0.834969 -2.82843 -9.95998e-09 
-0.622831 -2.82843 8.42596e-10 
-0.433305 -2.82843 4.47682e-09 
-0.21065 -2.82843 -9.87767e-10 
0.0228079 -2.82843 -1.09475e-09 
0.220678 -2.82843 -1.73473e-09 
0.412588 -2.82843 -1.62232e-09 
0.63525 -2.82843 -4.80487e-09 
0.855992 -2.82843 -2.5536e-08 
1.05539 -2.82843 1.70906e-08 
1.25017 -2.82843 -4.97492e-09 
1.43829 -2.82843 -4.72132e-09 
1.68185 -2.82843 -6.09175e-09 
1.87482 -2.82843 -6.16437e-09 
2.09045 -2.82843 -6.51217e-09 
2.30905 -2.82843 -5.34908e-09 
2.50082 -2.82843 -5.2537e-09 
2.73102 -2.82843 -4.46199e-09 
2.94908 -2.82843 -3.65086e-09 
3.16726 -2.82843 -2.85362e-09 
3.37335 -2.82843 -2.23481e-09 
3.59844 -2.82843 -1.80426e-09 
3.80198 -2.82843 -1.45217e-09 
4.01856 -2.82843 -1.11207e-09 
4.24618 -2.82843 -7.80865e-10 
4.44516 -2.82843 -5.40135e-10 
4.65786 -2.82843 -3.5643e-10 
4.86685 -2.82843 -2.28823e-10 
5.07047 -2.82843 -2.71528e-11 
5.28761 -2.82843 1.94685e-10 
5.49885 -2.82843 4.13481e-10 
5.7032 -2.82843 6.59914e-10 
5.92321 -2.82843 8.67535e-10 
6.14403 -2.82843 1.24231e-09 
6.34519 -2.82843 1.77189e-09 
6.58742 -2.82843 2.24317e-09 
6.79591 -2.82843 2.4844e-09 
6.99304 -2.82843 3.39051e-09 
7.25173 -2.82843 4.72564e-09 
7.48017 -2.82843 6.14202e-09 
7.71255 -2.82843 8.19769e-09 
7.97328 -2.82843 5.56006e-09 
8.16412 -2.82843 -4.32883e-10 
8.48528 -2.82842 -1.07632e-09 
-8.48528 -2.59544 -2.12185e-09 
-8.24379 -2.57812 2.70732e-15 
-8.00379 -2.58184 -3.09115e-15 
-7.76754 -2.61568 1.33341e-14 
-7.51338 -2.63946 5.88328e-15 
-7.22308 -2.59769 8.82415e-15 
-6.98163 -2.59441 -2.16236e-15 
-6.76532 -2.58413 3.47999e-14 
-6.5401 -2.58666 -2.32552e-14 
-6.33079 -2.57298 2.1885e-15 
-6.11319 -2.58543 1.21873e-15 
-5.89401 -2.58871 1.35433e-15 
-5.68249 -2.5722 8.16629e-16 
-5.46523 -2.58623 2.9102e-16 
-5.24891 -2.58282 1.1812e-16 
-5.02995 -2.5882 -3.29557e-17 
-4.82019 -2.57474 -9.08979e-17 
-4.60153 -2.59168 -3.42428e-16 
-4.38202 -2.58791 -4.9533e-16 
-4.16342 -2.58802 -6.19052e-16 
-3.95246 -2.57635 -1.0396e-15 
-3.73971 -2.5817 -8.25438e-16 
-3.52656 -2.58186 -1.7932e-15 
-3.30874 -2.59296 -1.54638e-15 
-3.09488 -2.58931 -2.85737e-15 
-2.88122 -2.59337 -2.41922e-15 
-2.67886 -2.58413 -3.21289e-15 
-2.46719 -2.60564 -5.20183e-15 
-2.24965 -2.6026 -4.94206e-15 
-2.04085 -2.59589 -1.80922e-15 
-1.82734 -2.598 -1.37158e-14 
-1.61877 -2.58071 -2.73326e-14 
-1.41368 -2.60357 -8.52665e-14 
-1.23772 -2.52231 3.57081e-13 
-1.01896 -2.6248 -5.13324e-13 
-0.802553 -2.58088 -4.1666e-14 
-0.608803 -2.52054 1.57736e-14 
-0.404455 -2.53746 -2.80004e-14 
-0.189945 -2.53653 1.62175e-14 
0.00842782 -2.49482 3.51961e-15 
0.212647 -2.48415 -8.59758e-15 
0.408477 -2.49689 -3.75293e-14 
0.607141 -2.57381 5.14702e-14 
0.838448 -2.57772 -1.56835e-13 
1.05227 -2.57291 1.42512e-13 
1.25861 -2.57009 -6.83263e-16 
1.50266 -2.64031 1.83381e-14 
1.71463 -2.58561 1.41076e-15 
1.93707 -2.61585 1.23763e-14 
2.16434 -2.61132 4.33733e-15 
2.37266 -2.57704 8.6741e-15 
2.57984 -2.60766 4.8932e-15 
2.80838 -2.60259 4.9386e-15 
3.01974 -2.59549 3.00305e-15 
3.22599 -2.57707 2.58429e-15 
3.44389 -2.59636 2.43896e-15 
3.6511 -2.57081 1.34271e-15 
3.86502 -2.58629 1.1022e-15 
4.09208 -2.5987 9.75954e-16 
4.30047 -2.56639 2.89325e-16 
4.51442 -2.58546 3.90213e-16 
4.72818 -2.58175 1.34682e-16 
4.94002 -2.57661 4.90515e-18 
5.15498 -2.59203 -1.46297e-16 
5.37384 -2.58516 -3.11996e-16 
5.58491 -2.57571 -3.64373e-16 
5.80184 -2.59177 -7.77542e-16 
6.02668 -2.5903 -1.01301e-15 
6.24033 -2.56406 -8.31761e-16 
6.46123 -2.60786 -2.17086e-15 
6.68657 -2.57159 -1.69112e-15 
6.89175 -2.556 -1.71792e-15 
7.11545 -2.62166 -4.5592e-15 
7.36331 -2.59225 -3.09594e-15 
7.59667 -2.59464 -3.1644e-15 
7.84628 -2.61668 -8.73023e-15 
8.0613 -2.52862 -3.82955e-16 
8.29095 -2.64507 -3.53004e-15 
8.48528 -2.52812 2.6282e-09 
-8.48528 -2.36005 -1.03059e-09 
-8.2229 -2.34874 -2.25644e-15 
-7.98046 -2.335 -6.50953e-15 
-7.74236 -2.39038 4.68298e-15 
-7.55126 -2.23726 1.15823e-16 
-7.45095 -2.44803 -7.00132e-15 
-7.16794 -2.37975 -7.26562e-15 
-6.93929 -2.34194 -1.09419e-14 
-6.70133 -2.36243 1.32906e-14 
-6.47911 -2.33823 -7.26351e-15 
-6.2456 -2.34121 1.53685e-15 
-6.0256 -2.34833 1.00064e-15 
-5.81025 -2.33628 -2.94422e-16 
-5.58112 -2.3384 -3.17806e-16 
-5.36466 -2.3438 9.76325e-17 
-5.14104 -2.34785 3.33115e-17 
-4.92774 -2.33408 -2.44248e-17 
-4.70358 -2.34771 -1.65378e-16 
-4.4855 -2.35395 -1.94709e-16 
-4.26319 -2.35038 -1.56777e-16 
-4.04992 -2.3341 -2.55445e-16 
-3.83398 -2.33349 -2.61257e-16 
-3.62125 -2.33771 -1.86307e-16 
-3.40402 -2.35099 -5.6081e-16 
-3.19157 -2.35271 -6.42066e-16 
-2.9766 -2.35872 -8.23238e-16 
-2.76968 -2.3451 -2.38303e-15 
-2.55864 -2.36669 -1.74523e-15 
-2.34847 -2.38602 -2.14336e-15 
-2.13002 -2.36436 -7.13316e-15 
-1.91502 -2.36813 -9.2717e-15 
-1.69982 -2.35807 7.24893e-15 
-1.47452 -2.34859 5.38655e-14 
-1.25361 -2.2849 2.30603e-13 
-1.0258 -2.38271 -2.07122e-14 
-0.815817 -2.32034 6.95199e-14 
-0.598435 -2.23368 1.21415e-14 
-0.391447 -2.23791 3.04102e-14 
-0.1831 -2.21423 -3.05429e-16 
0.0412291 -2.18413 1.53955e-14 
0.262434 -2.1582 4.38143e-14 
0.447396 -2.12074 2.23238e-14 
0.60573 -2.27538 -1.19117e-14 
0.813845 -2.32716 3.17264e-14 
1.03417 -2.31827 -4.25453e-14 
1.24933 -2.32129 -1.25642e-14 
1.46238 -2.42403 -9.63468e-16 
1.6464 -2.34221 2.66976e-15 
1.86464 -2.3923 -2.73486e-15 
2.08563 -2.40124 2.69284e-15 
2.30615 -2.35749 -1.76193e-15 
2.53207 -2.35699 7.19738e-15 
2.73714 -2.39202 -3.59807e-15 
2.96163 -2.35672 1.08574e-15 
3.16382 -2.33562 1.58142e-15 
3.37887 -2.35441 9.06151e-16 
3.58323 -2.32741 2.62488e-16 
3.79658 -2.33737 3.5858e-16 
4.01222 -2.3639 2.30133e-16 
4.22077 -2.32666 4.13868e-16 
4.44137 -2.33664 9.14532e-17 
4.65115 -2.33829 2.16938e-16 
4.86289 -2.33568 8.5752e-17 
5.08119 -2.34485 1.73186e-17 
5.29199 -2.35253 -1.06971e-17 
5.50852 -2.3334 2.15671e-17 
5.72717 -2.34611 -2.81702e-17 
5.94418 -2.35724 -5.65732e-17 
6.1607 -2.32672 9.46142e-17 
6.39417 -2.35242 -1.13957e-16 
6.6021 -2.34835 8.64697e-17 
6.82494 -2.30029 -1.37632e-16 
7.05243 -2.36264 3.01291e-16 
7.268 -2.38837 8.68641e-16 
7.52436 -2.35954 9.17434e-16 
7.76723 -2.38848 8.04466e-16 
7.98713 -2.29982 9.81427e-16 
8.25515 -2.37128 1.47396e-15 
8.48528 -2.27763 2.74512e-10 
-8.48528 -2.09984 -2.75272e-09 
-8.26372 -2.11983 2.92856e-15 
-8.0315 -2.08801 -2.15172e-16 
-7.78408 -2.13608 1.32218e-15 
-7.50649 -2.0192 1.47747e-15 
-7.30201 -2.21494 2.58167e-15 
-7.05511 -2.12165 4.8348e-15 
-6.80373 -2.1278 -2.93519e-15 
-6.59078 -2.11563 4.87891e-15 
-6.35287 -2.11795 2.21195e-15 
-6.12585 -2.10293 1.22402e-15 
-5.91692 -2.09812 5.46177e-16 
-5.69263 -2.11027 4.07058e-16 
-5.46956 -2.09935 2.79643e-16 
-5.25258 -2.11307 2.49987e-16 
-5.03985 -2.0985 1.54684e-16 
-4.81632 -2.11003 -8.66698e-17 
-4.59887 -2.11496 -2.21432e-16 
-4.38245 -2.12001 -3.22006e-16 
-4.17139 -2.10065 -4.60462e-16 
-3.95645 -2.09425 -6.28796e-16 
-3.74362 -2.09404 -5.95394e-16 
-3.52952 -2.10778 -1.52086e-15 
-3.32019 -2.11375 -1.49079e-15 
-3.10784 -2.12228 -2.51724e-15 
-2.90272 -2.11697 -3.38339e-15 
-2.68683 -2.11985 -2.96063e-15 
-2.47819 -2.14163 -3.12658e-15 
-2.26997 -2.15616 -6.17491e-15 
-2.04236 -2.13341 3.06269e-15 
-1.82567 -2.13153 -1.13828e-14 
-1.60027 -2.12958 -5.38195e-14 
-1.37992 -2.09138 -1.8368e-13 
-1.17649 -1.95029 1.91732e-13 
-1.05681 -2.1371 -2.38762e-13 
-0.810794 -2.07951 -2.37572e-14 
-0.600364 -1.93761 -1.40671e-14 
-0.376745 -1.94184 1.26261e-14 
-0.135454 -1.93092 -2.80019e-14 
0.061993 -1.61744 6.14619e-14 
0.107121 -1.89409 -3.5823e-16 
0.312601 -1.78623 -6.5471e-15 
0.552866 -1.87286 -4.12932e-14 
0.759354 -2.02676 -4.35396e-14 
0.968508 -2.0497 1.60337e-13 
1.18668 -2.07115 -1.49171e-13 
1.42583 -2.16768 -2.52434e-15 
1.65911 -2.11797 -1.02559e-15 
1.8871 -2.17127 -1.23119e-15 
2.11532 -2.17952 5.63719e-15 
2.35628 -2.14065 -3.18448e-15 
2.56579 -2.12004 -1.25582e-15 
2.78028 -2.16634 1.94377e-15 
2.98237 -2.10587 1.42057e-15 
3.20242 -2.10677 1.46646e-15 
3.40608 -2.10477 1.10671e-15 
3.62227 -2.09076 8.24922e-16 
3.84015 -2.10681 7.48229e-16 
4.0431 -2.11261 5.91197e-16 
4.27139 -2.09709 5.14396e-16 
4.48287 -2.09386 1.84473e-16 
4.69573 -2.09623 2.3191e-16 
4.91527 -2.10535 -1.97634e-17 
5.12839 -2.10379 -1.07935e-16 
5.34003 -2.11343 -2.32924e-16 
5.56436 -2.10185 -4.33191e-16 
5.78142 -2.11105 -5.13767e-16 
5.99255 -2.11067 -6.50498e-16 
6.23406 -2.11045 -1.22337e-15 
6.4423 -2.09679 -1.05509e-15 
6.65365 -2.10006 -1.84537e-15 
6.90893 -2.0897 -2.20619e-15 
7.12189 -2.12331 -1.90404e-15 
7.34854 -2.17008 -1.05652e-15 
7.5395 -2.07041 -7.147e-16 
7.72494 -2.15598 -4.36545e-16 
7.94575 -2.06545 -2.45572e-15 
8.20021 -2.14348 1.17347e-15 
8.48528 -2.07712 5.04066e-10 
-8.48528 -1.789 -3.62104e-09 
-8.29826 -1.86868 -1.017e-15 
-7.88822 -1.89075 2.21468e-15 
[...]
POINT_DATA 1978 
VECTORS vectors float
0.00200237 -0.00515143 0.999985 
0.00207341 -0.0485567 0.998818 
0.00243702 -0.0821386 0.996618 
0.00274521 -0.100364 0.994947 
0.00259304 -0.0863248 0.996263 
0.00218705 -0.0689736 0.997616 
0.00195796 -0.0530147 0.998592 
0.00185055 -0.0409482 0.99916 
0.00184417 -0.0329521 0.999455 
0.00181341 -0.0251276 0.999683 
0.00182322 -0.0181334 0.999834 
0.00183942 -0.0128866 0.999915 
0.00182995 -0.00857397 0.999962 
0.00187261 -0.00473423 0.999987 
0.0018777 -0.00191076 0.999996 
0.0018924 -3.0313e-06 0.999998 
0.00188385 0.00197515 0.999996 
0.00190558 0.00422296 0.999989 
0.00188793 0.00728302 0.999972 
0.00189248 0.0109201 0.999939 
0.00186828 0.0153074 0.999881 
0.00185897 0.0204543 0.999789 
0.00183758 0.0272811 0.999626 
0.00182279 0.0362903 0.99934 
0.00177434 0.0488697 0.998804 
0.00172204 0.0645879 0.997911 
0.0016529 0.0847736 0.996399 
0.0016058 0.108605 0.994084 
0.00149398 0.141366 0.989956 
0.00139501 0.183278 0.98306 
0.0012546 0.235784 0.971805 
0.00112881 0.299977 0.953946 
0.000932368 0.373193 0.927753 
0.000745862 0.471692 0.881762 
0.000542756 0.558919 0.829223 
0.00032575 0.700924 0.713236 
0.000204085 0.810988 0.585062 
4.8703e-05 0.899007 0.437933 
-2.06594e-05 0.975617 0.219479 
-1.43012e-05 0.999624 -0.0274312 
1.50855e-05 0.973321 -0.229449 
-4.94414e-05 0.908947 -0.416913 
-0.000193608 0.805434 -0.592685 
-0.000357586 0.685703 -0.72788 
-0.000535139 0.578151 -0.81593 
-0.00070492 0.474944 -0.880016 
-0.00101072 0.388466 -0.921463 
-0.00113048 0.299575 -0.954072 
-0.00132603 0.240298 -0.970698 
-0.00139225 0.186103 -0.982529 
-0.0015226 0.141456 -0.989943 
-0.00164316 0.111344 -0.99378 
-0.00169259 0.0829947 -0.996549 
-0.00176947 0.0629201 -0.998017 
-0.00178098 0.0472702 -0.998881 
-0.00182169 0.0359408 -0.999352 
-0.00182214 0.0270215 -0.999633 
-0.00187234 0.0208809 -0.99978 
-0.00186208 0.0153886 -0.99988 
-0.00186337 0.0107423 -0.999941 
-0.00187207 0.00753481 -0.99997 
-0.00184422 0.00473942 -0.999987 
-0.00186131 0.00248949 -0.999995 
-0.00185914 0.000133586 -0.999998 
-0.00185639 -0.00282562 -0.999994 
-0.00186816 -0.00591046 -0.999981 
-0.00187981 -0.00897044 -0.999958 
-0.00186833 -0.0127676 -0.999917 
-0.0018777 -0.0182442 -0.999832 
-0.00187631 -0.0244852 -0.999698 
-0.00185294 -0.0330503 -0.999452 
-0.0018665 -0.0418142 -0.999124 
-0.00192032 -0.0527479 -0.998606 
-0.00196476 -0.072197 -0.997388 
-0.00199108 -0.0920284 -0.995754 
-0.00211631 -0.106951 -0.994262 
-0.00224496 -0.0931321 -0.995651 
-0.00208893 -0.0637795 -0.997962 
-0.00208567 -0.00414825 -0.999989 
0.00101903 -0.0014121 0.999998 
0.0192541 -0.0531586 0.9984 
0.0259227 -0.0758458 0.996782 
0.027373 -0.0897215 0.995591 
0.0285897 -0.0858283 0.9959 
0.0325262 -0.0683093 0.997134 
0.034848 -0.0535488 0.997957 
0.0352781 -0.0423243 0.998481 
0.0368282 -0.0330556 0.998775 
0.0376594 -0.0248984 0.99898 
0.0381251 -0.0176144 0.999118 
0.0387717 -0.0125161 0.99917 
0.0400003 -0.00849313 0.999164 
0.0396063 -0.00469352 0.999204 
0.0403204 -0.00187737 0.999185 
0.0400047 0.000339621 0.999199 
0.0409621 0.00250044 0.999158 
0.0397094 0.00515589 0.999198 
0.039623 0.00836144 0.99918 
0.0389447 0.0122623 0.999166 
0.039096 0.0169483 0.999092 
0.0381884 0.0227703 0.999011 
0.0376866 0.0302458 0.998832 
0.0361312 0.040205 0.998538 
0.035235 0.0531241 0.997966 
0.0334361 0.0698851 0.996994 
0.0322742 0.0904323 0.995379 
0.0293099 0.117347 0.992658 
0.0267664 0.153445 0.987795 
0.0236783 0.198144 0.979887 
0.0199617 0.255349 0.966643 
0.0164759 0.324212 0.945841 
0.0124129 0.407598 0.913077 
0.00976402 0.491529 0.870807 
0.00638565 0.603907 0.797029 
0.00362502 0.720859 0.693072 
0.00129906 0.823715 0.567003 
-0.000343937 0.917723 0.397221 
-0.00107164 0.980776 0.195136 
-0.00211645 0.999995 -0.00247717 
-0.00285048 0.978884 -0.204396 
-0.00400838 0.918856 -0.394571 
-0.00455763 0.826129 -0.563462 
-0.00628362 0.702746 -0.711414 
-0.00891884 0.575412 -0.817814 
-0.011885 0.470645 -0.882242 
-0.0150549 0.364657 -0.93102 
-0.0189837 0.289134 -0.9571 
-0.0220499 0.225149 -0.974075 
-0.0251392 0.172316 -0.984721 
-0.0290205 0.134204 -0.990529 
-0.0301064 0.102957 -0.99423 
-0.0327338 0.0777125 -0.996438 
-0.0341546 0.0592388 -0.997659 
-0.036525 0.0453596 -0.998303 
-0.0363671 0.0340305 -0.998759 
-0.0388163 0.0261711 -0.998904 
-0.0386305 0.0196522 -0.99906 
-0.0382382 0.0142004 -0.999168 
-0.0407386 0.010215 -0.999118 
-0.0398833 0.00674163 -0.999182 
-0.0403866 0.00393308 -0.999176 
-0.0408883 0.00138957 -0.999163 
-0.0398682 -0.00128116 -0.999204 
-0.0401231 -0.00425452 -0.999186 
-0.0404732 -0.00747072 -0.999153 
-0.0390434 -0.0111126 -0.999176 
-0.0382823 -0.0157587 -0.999143 
-0.0391806 -0.0215297 -0.999 
-0.0359729 -0.0285989 -0.998943 
-0.0368984 -0.0375048 -0.998615 
-0.0368638 -0.0478769 -0.998173 
-0.0328211 -0.0618572 -0.997545 
-0.033073 -0.0797174 -0.996269 
-0.0320445 -0.0929347 -0.995156 
-0.0283716 -0.0921068 -0.995345 
-0.0227587 -0.0717927 -0.99716 
-0.0170446 -0.0482173 -0.998691 
0.000316165 -0.00184998 -0.999998 
0.000647671 -0.00339463 0.999993 
0.0209712 -0.0546633 0.998285 
0.0306307 -0.0700112 0.997076 
0.0351579 -0.0841686 0.995831 
0.0450323 -0.0838087 0.995464 
0.0378147 -0.0803605 0.996048 
0.0435033 -0.0650392 0.996934 
0.0464248 -0.0514033 0.997598 
0.0479073 -0.0397481 0.998061 
0.050643 -0.0301001 0.998263 
0.0514954 -0.0222154 0.998426 
0.0528115 -0.0161775 0.998473 
0.0539088 -0.0114513 0.99848 
0.0547914 -0.00708971 0.998473 
0.0553234 -0.00375859 0.998461 
0.0556102 -0.00103761 0.998452 
0.0567506 0.00126254 0.998388 
0.0555925 0.00391379 0.998446 
0.0548277 0.00697997 0.998471 
0.0542915 0.010819 0.998466 
0.0544335 0.0153798 0.998399 
0.0535582 0.0209765 0.998344 
0.052309 0.027853 0.998242 
0.0500731 0.0368532 0.998065 
0.0484369 0.0483237 0.997657 
0.0461456 0.0634606 0.996917 
0.0443934 0.0824378 0.995607 
0.0403356 0.107149 0.993424 
0.035614 0.138576 0.989711 
0.0316752 0.181419 0.982896 
0.0265968 0.233826 0.971915 
0.0217748 0.300325 0.953588 
0.0163656 0.383861 0.923246 
0.0122411 0.478813 0.877831 
0.00676767 0.596555 0.802544 
0.00373646 0.709912 0.704281 
0.00135089 0.826199 0.563377 
-0.000151512 0.91726 0.398289 
-0.00175089 0.980092 0.198534 
-0.00421348 0.999635 -0.0267016 
-0.00631009 0.966271 -0.257451 
-0.00731821 0.896054 -0.443884 
-0.00786075 0.814602 -0.579967 
-0.00905179 0.700157 -0.713932 
-0.0108931 0.583346 -0.81215 
-0.0139937 0.476145 -0.879255 
-0.0166876 0.382341 -0.923871 
-0.0215162 0.314615 -0.948976 
-0.025495 0.246531 -0.9688 
-0.0300803 0.190631 -0.981201 
-0.035378 0.146891 -0.98852 
-0.0392618 0.110924 -0.993053 
-0.041592 0.0864286 -0.995389 
-0.0457543 0.0650232 -0.996834 
-0.0489174 0.0505368 -0.997523 
-0.0497567 0.0383648 -0.998024 
-0.0526988 0.0297101 -0.998168 
-0.0532388 0.0225127 -0.998328 
-0.052519 0.0166554 -0.998481 
-0.0554806 0.0122159 -0.998385 
-0.0558668 0.00817723 -0.998405 
-0.0562905 0.00500036 -0.998402 
-0.0567111 0.00219928 -0.998388 
-0.0560634 -0.000577702 -0.998427 
-0.0553758 -0.00338723 -0.99846 
-0.0562104 -0.00665945 -0.998397 
-0.0545732 -0.0103289 -0.998456 
-0.0527796 -0.0145249 -0.998501 
-0.0533106 -0.0197437 -0.998383 
-0.0503375 -0.0266254 -0.998377 
-0.0493462 -0.0342863 -0.998193 
-0.0507659 -0.0447668 -0.997707 
-0.0454929 -0.057784 -0.997292 
-0.0427727 -0.0720901 -0.996481 
-0.0419679 -0.0857918 -0.995429 
-0.036785 -0.0867972 -0.995547 
-0.0294401 -0.0708065 -0.997055 
-0.0155811 -0.0528327 -0.998482 
-0.00186281 -0.00309016 -0.999993 
3.10012e-05 -0.00360952 0.999993 
0.0227653 -0.0456686 0.998697 
0.0340705 -0.0602953 0.997599 
0.0438306 -0.0774381 0.996033 
0.0545292 -0.0827576 0.995077 
0.0497168 -0.0738602 0.996029 
0.0573601 -0.0585824 0.996633 
0.0603005 -0.0449436 0.997168 
0.0621328 -0.0349967 0.997454 
0.0640104 -0.0259596 0.997612 
0.0664739 -0.0192877 0.997602 
0.067863 -0.0143191 0.997592 
0.0683506 -0.00977612 0.997613 
0.0699289 -0.00601502 0.997534 
0.0701344 -0.00288355 0.997533 
0.0713203 -0.000295433 0.997453 
0.0709131 0.00244881 0.997479 
0.0704195 0.00546092 0.997502 
0.0694969 0.00906406 0.997541 
0.0691614 0.0133567 0.997516 
0.0681412 0.0185627 0.997503 
0.06677 0.0248335 0.997459 
0.0646179 0.0326933 0.997374 
0.0626009 0.0425026 0.997133 
0.0601119 0.0552909 0.996659 
0.057744 0.071327 0.99578 
0.0542999 0.0929225 0.994192 
0.0495584 0.120007 0.991535 
0.0437002 0.154621 0.987007 
0.0379099 0.203408 0.97836 
0.0312843 0.262161 0.964517 
0.0241999 0.339096 0.94044 
0.0179505 0.425512 0.904775 
0.0119711 0.522878 0.852323 
0.00881877 0.580584 0.814153 
0.00425089 0.711866 0.702303 
0.000947008 0.819953 0.57243 
-0.000305901 0.922752 0.385394 
-0.00268625 0.989614 0.143722 
-0.00203083 0.996901 -0.0786453 
-0.00387878 0.988626 -0.150347 
-0.00397022 0.929775 -0.368107 
-0.00578568 0.831205 -0.555935 
-0.00917139 0.729217 -0.684221 
-0.0118802 0.622063 -0.782877 
-0.0154058 0.517073 -0.855802 
-0.0206724 0.401786 -0.9155 
-0.0276916 0.313231 -0.949273 
-0.0329607 0.242416 -0.969612 
-0.0388822 0.185952 -0.981789 
-0.0460737 0.138832 -0.989244 
-0.0515825 0.108413 -0.992766 
-0.0535884 0.0823787 -0.99516 
-0.0589571 0.0646763 -0.996163 
-0.0615564 0.0492662 -0.996887 
-0.0638039 0.0382934 -0.997227 
-0.0662439 0.0292921 -0.997373 
-0.0670387 0.0220208 -0.997507 
-0.0678839 0.0166416 -0.997554 
-0.0696717 0.0116803 -0.997502 
-0.0708895 0.00777199 -0.997454 
-0.0713205 0.00439618 -0.997444 
-0.0712091 0.00132758 -0.99746 
-0.0712255 -0.00152276 -0.997459 
-0.0703566 -0.00451155 -0.997512 
-0.0701614 -0.00813897 -0.997502 
-0.0686889 -0.0120334 -0.997566 
-0.0671452 -0.0163614 -0.997609 
-0.0654758 -0.0222891 -0.997605 
-0.0644611 -0.0287923 -0.997505 
-0.0625602 -0.037058 -0.997353 
-0.0610492 -0.0497507 -0.996894 
-0.0578334 -0.0625662 -0.996364 
-0.0539359 -0.0770513 -0.995567 
-0.0553529 -0.0847073 -0.994867 
-0.0482248 -0.084295 -0.995273 
-0.0406678 -0.0699454 -0.996721 
-0.0229104 -0.0543654 -0.998258 
-0.00253026 -0.00248729 -0.999993 
0.000109148 -0.00366211 0.999993 
0.0234374 -0.0409003 0.998888 
0.0445171 -0.0704654 0.99652 
0.0525074 -0.0824892 0.995208 
0.0544059 -0.0797334 0.99533 
0.0587859 -0.0720948 0.995664 
0.059333 -0.0642497 0.996168 
0.0623639 -0.0518773 0.996704 
0.0638839 -0.0403613 0.997141 
0.066075 -0.0310365 0.997332 
0.0676195 -0.0235669 0.997433 
0.0682959 -0.0181406 0.9975 
0.0699686 -0.0132821 0.997461 
0.0711016 -0.00906799 0.997428 
0.0718454 -0.00529039 0.997402 
0.0724174 -0.00230814 0.997372 
0.0730445 0.000713634 0.997328 
0.0730605 0.0038171 0.99732 
0.0726589 0.00736862 0.99733 
0.0715212 0.0114146 0.997374 
0.0700623 0.0162772 0.99741 
0.0685583 0.0220409 0.997404 
0.067028 0.0290511 0.997328 
0.0652153 0.0375939 0.997163 
0.0631669 0.0485203 0.996823 
0.0605366 0.0622272 0.996224 
0.0575862 0.0801052 0.995122 
0.0537253 0.103566 0.99317 
0.0493029 0.132934 0.989898 
0.0436283 0.172131 0.984107 
0.035802 0.229151 0.972732 
0.028632 0.296266 0.954676 
0.0205483 0.375636 0.92654 
0.0124097 0.469179 0.883016 
0.00495578 0.656669 0.754163 
0.000574871 0.770059 0.637972 
-0.00167164 0.893671 0.44872 
-0.00316143 0.947546 0.319603 
-0.00219367 0.977133 0.212618 
-0.00318969 0.995756 0.0919754 
-0.00297632 0.982857 -0.184345 
-0.00308854 0.941766 -0.336254 
-0.00358661 0.858092 -0.513483 
-0.0056135 0.724927 -0.688803 
-0.00898432 0.608077 -0.793827 
-0.0144335 0.499388 -0.866259 
-0.0215029 0.411309 -0.911242 
-0.025676 0.340941 -0.939734 
-0.0326311 0.270181 -0.962256 
-0.0393207 0.210004 -0.976909 
-0.0457899 0.160217 -0.986019 
-0.050153 0.123391 -0.99109 
-0.0556862 0.0920204 -0.994199 
-0.0585182 0.073407 -0.995584 
-0.0616213 0.0558039 -0.996538 
-0.0638882 0.043272 -0.997018 
-0.0660892 0.0336341 -0.997247 
-0.0681525 0.0253638 -0.997352 
-0.0693624 0.0192877 -0.997405 
-0.0710005 0.0141414 -0.997376 
-0.0714926 0.00952894 -0.997396 
-0.0722811 0.0056424 -0.997368 
-0.072893 0.00219126 -0.997337 
-0.0727419 -0.000888486 -0.99735 
-0.0724611 -0.00404314 -0.997363 
-0.0721231 -0.00742362 -0.997368 
-0.0708662 -0.0116005 -0.997418 
-0.0695049 -0.0159286 -0.997454 
-0.0685142 -0.020841 -0.997432 
-0.0659667 -0.0273947 -0.997446 
-0.0644553 -0.0351261 -0.997302 
-0.0635498 -0.0450774 -0.99696 
-0.0605272 -0.0594472 -0.996395 
-0.0592869 -0.0731199 -0.995559 
-0.0558136 -0.0839071 -0.994909 
-0.0505259 -0.0810471 -0.995429 
-0.0386229 -0.0632874 -0.997248 
-0.0256257 -0.0489646 -0.998472 
-0.00160402 -0.0025249 -0.999995 
0.00108524 -0.00295353 0.999994 
0.019572 -0.0449601 0.998797 
0.0314246 -0.0559908 0.997937 
0.0399077 -0.0727038 0.996555 
0.0471548 -0.0847011 0.99529 
0.050292 -0.0736067 0.996018 
0.053668 -0.0570415 0.996928 
0.0562131 -0.0465768 0.997332 
0.057667 -0.0350059 0.997722 
0.0595617 -0.0275678 0.997844 
0.0592341 -0.0217714 0.998007 
0.0603216 -0.0162481 0.998047 
0.0622602 -0.0117736 0.99799 
0.0634349 -0.007621 0.997957 
0.0627685 -0.00410856 0.99802 
0.0645304 -0.000884579 0.997915 
0.0646081 0.00243503 0.997908 
0.0643077 0.00614817 0.997911 
0.0629085 0.0102526 0.997967 
0.0617675 0.0149771 0.997978 
0.0603608 0.0205197 0.997966 
0.0590163 0.0271732 0.997887 
0.0573133 0.0352593 0.997733 
0.0557685 0.0453997 0.997411 
0.053321 0.0581362 0.996884 
0.0508165 0.07466 0.995913 
0.0476188 0.095973 0.994244 
0.0432058 0.125067 0.991207 
0.0391458 0.16225 0.985973 
0.0332077 0.211854 0.976737 
0.0238459 0.288725 0.957115 
0.0153471 0.375749 0.926594 
0.00650517 0.494895 0.868928 
0.00132771 0.602587 0.798052 
0.0049114 0.597102 0.802151 
9.08071e-05 0.711665 0.702519 
-0.00149109 0.836392 0.548129 
-0.00235442 0.874679 0.484698 
-0.0023104 0.999948 -0.00992939 
0.00256455 0.991172 0.132556 
0.00250142 0.991645 -0.128974 
-0.0018066 0.951195 -0.308584 
-0.00221207 0.846727 -0.532023 
-0.00345307 0.760331 -0.649526 
-0.00409095 0.630866 -0.775881 
-0.00769111 0.51561 -0.856789 
-0.0159605 0.414225 -0.910035 
-0.0214808 0.320407 -0.947036 
-0.0297318 0.249956 -0.9678 
-0.0369905 0.195084 -0.980089 
-0.0412967 0.151882 -0.987535 
-0.0470799 0.108232 -0.99301 
-0.0483223 0.0872483 -0.995014 
-0.0522964 0.0671368 -0.996372 
-0.0539928 0.0523557 -0.997168 
-0.0556823 0.0407768 -0.997615 
-0.0587774 0.0312211 -0.997783 
-0.0596497 0.0241766 -0.997927 
-0.0609968 0.0181898 -0.997972 
-0.0631251 0.0131368 -0.997919 
-0.0624416 0.00847747 -0.998013 
-0.0637057 0.00436281 -0.997959 
-0.0637748 0.000891231 -0.997964 
-0.0637898 -0.00241019 -0.99796 
-0.0631393 -0.00576132 -0.997988 
-0.0635501 -0.00948085 -0.997934 
-0.061471 -0.01383 -0.998013 
-0.0608676 -0.0185669 -0.997973 
-0.0599684 -0.023578 -0.997922 
-0.056182 -0.0305882 -0.997952 
-0.0555909 -0.0392441 -0.997682 
-0.0563561 -0.0502535 -0.997145 
-0.0513378 -0.0625627 -0.99672 
-0.0530776 -0.0741569 -0.995833 
-0.0478019 -0.0849676 -0.995236 
-0.0452571 -0.0820134 -0.995603 
-0.0344865 -0.0642134 -0.99734 
-0.0239379 -0.0470975 -0.998603 
-0.001589 -0.00256916 -0.999995 
0.00108345 -0.00251086 0.999996 
0.0148881 -0.0496154 0.998657 
0.0278719 -0.0611583 0.997739 
0.0343368 -0.0813802 0.996091 
0.0423586 -0.0847486 0.995502 
0.0381021 -0.0767123 0.996325 
0.0436668 -0.0636774 0.997015 
0.0417375 -0.0505921 0.997847 
0.0472953 -0.0409426 0.998041 
0.0462 -0.0321624 0.998414 
0.0470837 -0.0260787 0.99855 
0.0489729 -0.0201762 0.998596 
0.0488518 -0.0152095 0.99869 
0.0512169 -0.010804 0.998629 
0.0516416 -0.00689935 0.998642 
0.0515545 -0.00320287 0.998665 
0.0530048 0.000125166 0.998594 
0.0527603 0.00381746 0.9986 
0.0514232 0.00781358 0.998646 
0.0504604 0.0124003 0.998649 
0.0496963 0.0175223 0.998611 
0.0486668 0.0234356 0.99854 
0.0472779 0.0303956 0.998419 
0.0458836 0.0390677 0.998183 
0.0442361 0.049732 0.997782 
0.0422194 0.0636176 0.997081 
0.0397328 0.0813206 0.995896 
0.0368108 0.10497 0.993794 
0.0324925 0.137816 0.989925 
0.0286941 0.179995 0.983249 
0.0234081 0.241434 0.970135 
0.0146284 0.325886 0.945296 
0.00770098 0.42631 0.904544 
0.00223924 0.522986 0.852339 
-0.0014596 0.749887 0.661565 
-0.00110538 0.86444 0.502736 
0.00235243 0.919601 0.392843 
0.00471577 0.958712 0.284338 
-0.00221585 0.969101 0.246654 
0.00209539 0.999717 0.0236646 
-0.00186383 0.999136 -0.0415721 
0.000221299 0.973966 -0.226694 
0.00103688 0.922158 -0.386812 
-0.000504837 0.803374 -0.595474 
-0.00229482 0.703178 -0.71101 
-0.00299227 0.55838 -0.82958 
-0.00864528 0.429415 -0.903066 
-0.0135162 0.343836 -0.938932 
-0.0223438 0.248849 -0.968285 
-0.0290906 0.189875 -0.981377 
-0.028364 0.153982 -0.987666 
-0.0375391 0.132583 -0.990461 
-0.0360539 0.105388 -0.993777 
-0.0399195 0.0805469 -0.995951 
-0.0423477 0.0630347 -0.997112 
-0.0438598 0.0488279 -0.997844 
-0.0464375 0.037117 -0.998231 
-0.0476485 0.0288609 -0.998447 
-0.0490048 0.0219152 -0.998558 
-0.0503055 0.0160321 -0.998605 
-0.0515606 0.0111448 -0.998608 
-0.051614 0.00607361 -0.998649 
-0.0516463 0.00205505 -0.998663 
-0.0520713 -0.00157434 -0.998642 
-0.0513131 -0.0050519 -0.99867 
-0.0514961 -0.00889978 -0.998633 
-0.0504755 -0.0130319 -0.99864 
-0.0497338 -0.0179567 -0.998601 
-0.0480598 -0.0231711 -0.998576 
-0.0463687 -0.0289518 -0.998505 
-0.0443664 -0.0377827 -0.998301 
-0.0452 -0.0487131 -0.99779 
-0.0412989 -0.063192 -0.997146 
-0.0415136 -0.0782597 -0.996068 
-0.0360347 -0.087385 -0.995523 
-0.0362269 -0.083387 -0.995858 
-0.0274738 -0.0679667 -0.997309 
-0.0210648 -0.0506929 -0.998492 
-0.00160205 -0.00249499 -0.999995 
0.000919935 -0.00239624 0.999996 
0.0112391 -0.0500386 0.998684 
0.0230782 -0.0675154 0.997451 
0.0249159 -0.0845627 0.996107 
0.0320722 -0.087613 0.995638 
0.0292738 -0.0790184 0.996443 
0.0330616 -0.0625155 0.997496 
0.0315814 -0.0490969 0.998295 
0.0360764 -0.039244 0.998578 
0.033939 -0.032014 0.998911 
0.0369761 -0.0253141 0.998995 
0.0382859 -0.0198163 0.99907 
0.0377939 -0.0148463 0.999175 
0.0400321 -0.0104132 0.999144 
0.0411415 -0.00621746 0.999134 
0.0405058 -0.00244746 0.999176 
0.0418138 0.00123811 0.999125 
0.0404504 0.00526904 0.999168 
0.0396473 0.00994499 0.999164 
0.0391003 0.015118 0.999121 
0.0385293 0.0207628 0.999042 
0.0374283 0.0272963 0.998926 
0.0363126 0.035278 0.998718 
0.0348174 0.045205 0.998371 
0.0334417 0.0577891 0.997769 
0.0313288 0.0741496 0.996755 
0.0289679 0.0959048 0.994969 
0.0258688 0.125304 0.991781 
0.0217737 0.168252 0.985503 
0.0186272 0.223027 0.974634 
0.0129836 0.294528 0.955554 
0.00670591 0.397501 0.917577 
0.00289127 0.502362 0.864653 
0.000990046 0.610388 0.792102 
-0.00032934 0.640446 0.768003 
0.00668096 0.871862 0.489703 
0.00473055 0.983087 0.183072 
0.00481538 0.996691 0.0811303 
0.00436745 0.997236 0.074165 
0.00422573 0.999373 0.0351644 
0.00335042 0.999717 -0.0235336 
0.00230656 0.996364 -0.0851668 
-0.007823 0.973153 -0.230034 
0.00156218 0.87068 -0.491847 
-0.00155133 0.64759 -0.761987 
-0.000812384 0.549334 -0.835602 
-0.00298761 0.486788 -0.873515 
-0.00467418 0.403996 -0.914749 
-0.0122355 0.301052 -0.953529 
-0.0177621 0.22427 -0.974365 
-0.0197516 0.180174 -0.983436 
-0.0268229 0.124093 -0.991908 
-0.0291853 0.0929153 -0.995246 
-0.0313662 0.0725297 -0.996873 
-0.0334639 0.0568218 -0.997823 
-0.0355147 0.04352 -0.998421 
-0.0362917 0.0340508 -0.998761 
-0.0377782 0.0262829 -0.99894 
-0.0389824 0.0198447 -0.999043 
-0.0392677 0.0143984 -0.999125 
-0.0414745 0.00924868 -0.999097 
-0.0401117 0.00446078 -0.999185 
-0.0406938 0.000250982 -0.999172 
-0.0403135 -0.00337059 -0.999181 
-0.0402851 -0.0071222 -0.999163 
-0.0393345 -0.0110551 -0.999165 
-0.0395039 -0.0156533 -0.999097 
-0.0380065 -0.0206083 -0.999065 
-0.0359023 -0.0259527 -0.999018 
-0.0359008 -0.0327205 -0.99882 
-0.0329525 -0.0413854 -0.9986 
-0.0349598 -0.0505286 -0.998111 
-0.0304964 -0.0625181 -0.997578 
-0.0321222 -0.0761176 -0.996581 
-0.0276322 -0.0875972 -0.995773 
-0.026109 -0.0848445 -0.996052 
-0.0196632 -0.0664831 -0.997594 
-0.0148654 -0.0485703 -0.998709 
-0.000869147 -0.00243594 -0.999996 
0.000954038 -0.0023908 0.999996 
0.00940531 -0.0504871 0.99868 
0.0164953 -0.0675725 0.997578 
0.0183609 -0.0868619 0.996051 