# vtk DataFile Version 3.0 
Exported using Morpho https://github.com/Morpho-lang/morpho 
ASCII 
DATASET UNSTRUCTURED_GRID 

POINTS 1978 float 
-12 -4 1.71455e-11 
-11.6173 -4 -5.79536e-11 
-11.3225 -4 -9.12974e-11 
-10.9725 -4 -5.50293e-11 
-10.6522 -4 -3.97159e-11 
-10.2989 -4 -3.45953e-11 
-9.97794 -4 -2.73256e-11 
-9.65137 -4 -2.35472e-11 
-9.31279 -4 -1.72697e-11 
-8.99088 -4 -1.03227e-11 
-8.68277 -4 -6.79201e-12 
-8.37033 -4 -4.30489e-12 
-8.06239 -4 -2.42535e-12 
-7.76375 -4 -1.00156e-12 
-7.48125 -4 -1.64128e-13 
-7.19254 -4 1.30909e-12 
-6.89308 -4 1.66348e-12 
-6.59675 -4 2.15219e-12 
-6.29522 -4 6.17027e-12 
-5.98542 -4 8.69659e-12 
-5.67726 -4 1.1618e-11 
-5.37332 -4 1.47434e-11 
-5.07291 -4 1.82106e-11 
-4.78425 -4 2.82226e-11 
-4.46001 -4 3.4017e-11 
-4.16784 -4 3.67869e-11 
-3.88058 -4 5.12741e-11 
-3.56597 -4 6.21007e-11 
-3.26985 -4 5.80405e-11 
-2.98503 -4.00001 6.17725e-11 
-2.68036 -4 4.11844e-11 
-2.4447 -4 1.7837e-12 
-2.18493 -4 1.67178e-11 
-1.91444 -4 4.82348e-11 
-1.65338 -4 1.68525e-10 
-1.39925 -4 5.32118e-10 
-1.12552 -4 9.43572e-10 
-0.845634 -4 2.98726e-09 
-0.538777 -4 9.47922e-09 
-0.0261004 -4 1.03813e-09 
0.475229 -4 -7.91334e-09 
0.826612 -4 -3.39231e-09 
1.08178 -4 -5.97219e-10 
1.36725 -4 -5.0732e-10 
1.62257 -4 -1.7563e-10 
1.88002 -4 9.79303e-12 
2.12926 -4.00001 -1.62933e-10 
2.38726 -4 2.87019e-11 
2.69848 -4 -2.41188e-11 
2.99274 -4 -5.89165e-11 
3.30113 -4 -6.3208e-11 
3.58616 -4 -5.27544e-11 
3.88057 -4 -5.48429e-11 
4.19549 -4 -4.42838e-11 
4.49348 -4 -2.98551e-11 
4.7868 -4 -2.49728e-11 
5.09748 -4 -2.06875e-11 
5.40475 -4 -1.61308e-11 
5.71674 -4 -1.10608e-11 
6.01308 -4 -7.5075e-12 
6.30928 -4 -4.73378e-12 
6.59255 -4 -3.997e-12 
6.89474 -4 -1.34275e-12 
7.17435 -4 -1.38974e-12 
7.4698 -4 -1.46649e-13 
7.76734 -4 1.51931e-12 
8.06413 -4 2.25281e-12 
8.35691 -4 3.04045e-12 
8.65453 -4 5.99222e-12 
8.93457 -4 1.04934e-11 
9.28097 -4 1.72807e-11 
9.6077 -4 1.83188e-11 
9.90302 -4 2.88084e-11 
10.2732 -4 3.5812e-11 
10.5933 -4 5.03419e-11 
10.9881 -4 6.50909e-11 
11.3094 -4 7.73975e-11 
11.6 -4 6.49829e-11 
12 -4 -1.53175e-11 
-12 -3.61883 4.54341e-11 
-11.7087 -3.70952 -8.98749e-16 
-11.3626 -3.62326 -1.07689e-15 
-11.055 -3.67983 -1.29851e-15 
-10.7153 -3.64935 -1.01526e-15 
-10.3967 -3.68471 -1.15679e-15 
-10.0573 -3.66185 -8.12427e-16 
-9.73375 -3.67585 -6.30484e-16 
-9.39613 -3.68978 -5.32963e-16 
-9.05724 -3.67437 -3.71494e-16 
-8.74028 -3.66219 -2.6836e-16 
-8.42816 -3.67146 -2.01697e-16 
-8.11402 -3.67008 -1.19461e-16 
-7.80343 -3.66554 -7.7201e-17 
-7.50292 -3.65285 -2.95571e-17 
-7.20856 -3.66384 3.32974e-17 
-6.90333 -3.66724 8.72566e-17 
-6.59643 -3.67052 1.17857e-16 
-6.28266 -3.67494 2.05972e-16 
-5.96818 -3.67219 2.98143e-16 
-5.65756 -3.66852 4.12508e-16 
-5.35181 -3.66659 5.87568e-16 
-5.05669 -3.65686 7.24769e-16 
-4.73395 -3.69611 1.04537e-15 
-4.43251 -3.67028 1.30798e-15 
-4.13382 -3.672 1.70878e-15 
-3.81543 -3.7002 2.10523e-15 
-3.50248 -3.689 2.91799e-15 
-3.20385 -3.68166 3.0641e-15 
-2.90112 -3.7087 5.43489e-15 
-2.64907 -3.60958 3.6519e-15 
-2.38172 -3.66781 3.97356e-15 
-2.10482 -3.68517 2.17113e-15 
-1.82971 -3.68171 2.08157e-15 
-1.55701 -3.65931 3.88152e-15 
-1.27262 -3.65079 1.59555e-14 
-0.979401 -3.6031 4.41953e-14 
-0.668497 -3.54228 1.59276e-13 
-0.331218 -3.69989 -1.16654e-13 
0.00238516 -3.51934 -1.7865e-13 
0.332037 -3.63877 2.49001e-13 
0.701666 -3.55871 -2.81758e-14 
1.01576 -3.51683 -1.00991e-13 
1.28154 -3.66258 -6.16235e-15 
1.58807 -3.65647 -3.57103e-15 
1.86505 -3.67426 -8.13847e-16 
2.13173 -3.69181 -3.7672e-16 
2.41238 -3.70374 -4.05739e-15 
2.71225 -3.70316 -3.58984e-15 
3.02325 -3.69859 -3.66248e-15 
3.32205 -3.66858 -3.31462e-15 
3.61851 -3.67447 -2.44127e-15 
3.92978 -3.69387 -2.20442e-15 
4.23039 -3.67185 -1.71171e-15 
4.52486 -3.66212 -1.22053e-15 
4.83203 -3.67799 -9.41468e-16 
5.14014 -3.67325 -6.76962e-16 
5.45362 -3.67795 -5.26409e-16 
5.75501 -3.66203 -3.84891e-16 
6.05841 -3.66493 -2.98022e-16 
6.34917 -3.6489 -1.691e-16 
6.65428 -3.67385 -1.28366e-16 
6.94612 -3.64982 -7.99444e-17 
7.24597 -3.66914 -7.01614e-18 
7.54858 -3.66929 3.14282e-17 
7.85026 -3.6653 7.58223e-17 
8.14817 -3.65988 1.35327e-16 
8.44382 -3.66253 2.08104e-16 
8.73353 -3.63648 2.85055e-16 
9.05499 -3.70356 4.16645e-16 
9.3879 -3.68325 4.69172e-16 
9.69658 -3.64133 5.63231e-16 
10.034 -3.71065 9.24616e-16 
10.3666 -3.6608 9.55847e-16 
10.7302 -3.72051 1.41709e-15 
11.0641 -3.65445 1.15897e-15 
11.365 -3.61814 9.69905e-16 
11.7122 -3.72298 1.03168e-15 
12 -3.61747 -4.42364e-11 
-12 -3.32419 3.06525e-11 
-11.6308 -3.36399 -4.67049e-16 
-11.2875 -3.27918 -8.69877e-16 
-10.9771 -3.34103 -1.50207e-15 
-10.6593 -3.30155 -1.64318e-15 
-10.3398 -3.35335 -1.23485e-15 
-10.0139 -3.32722 -1.05101e-15 
-9.69927 -3.33588 -7.84055e-16 
-9.38884 -3.37601 -5.60492e-16 
-9.08405 -3.33329 -4.67964e-16 
-8.77855 -3.32794 -3.90571e-16 
-8.46861 -3.33686 -2.73116e-16 
-8.1611 -3.33974 -1.76764e-16 
-7.85321 -3.33762 -8.77825e-17 
-7.54829 -3.31674 -3.56456e-17 
-7.24956 -3.32402 1.91107e-17 
-6.94874 -3.34367 8.12165e-17 
-6.63926 -3.34013 1.6136e-16 
-6.33137 -3.35071 2.52603e-16 
-6.01855 -3.34567 3.49279e-16 
-5.70839 -3.33936 4.88144e-16 
-5.40223 -3.33504 6.63489e-16 
-5.10278 -3.31781 9.19223e-16 
-4.80194 -3.37729 1.16598e-15 
-4.49958 -3.34741 1.69656e-15 
-4.20007 -3.34621 2.24501e-15 
-3.89511 -3.3892 2.84755e-15 
-3.58542 -3.3858 3.94931e-15 
-3.27584 -3.36513 4.22204e-15 
-2.9763 -3.38643 4.40676e-15 
-2.68304 -3.28513 5.21642e-15 
-2.39322 -3.32863 4.25063e-15 
-2.12023 -3.36007 5.50543e-17 
-1.84289 -3.35688 3.47044e-16 
-1.55361 -3.32676 -2.75662e-15 
-1.26745 -3.28261 1.24158e-15 
-0.964274 -3.20053 1.72702e-14 
-0.622971 -3.11076 6.62522e-14 
-0.296705 -3.25515 1.18544e-14 
0.074476 -3.00957 -6.21307e-13 
0.362306 -3.18137 -5.12611e-14 
0.693866 -3.12271 7.02671e-14 
0.991535 -3.09136 1.17611e-13 
1.29032 -3.24919 -7.48888e-15 
1.54411 -3.32242 2.71214e-15 
1.84316 -3.33966 1.13311e-15 
2.10641 -3.36206 -1.46673e-15 
2.38603 -3.41186 -4.13064e-15 
2.68481 -3.40203 -6.58499e-15 
2.98418 -3.39312 -4.63967e-15 
3.28188 -3.34612 -4.57393e-15 
3.58045 -3.34684 -3.53903e-15 
3.87929 -3.37879 -2.7191e-15 
4.18196 -3.34923 -2.14493e-15 
4.48364 -3.32697 -1.63373e-15 
4.78215 -3.3492 -1.24453e-15 
5.08356 -3.34835 -9.36138e-16 
5.39309 -3.35622 -6.757e-16 
5.70165 -3.33027 -4.84264e-16 
6.00655 -3.33438 -3.52419e-16 
6.30874 -3.30616 -2.37771e-16 
6.60942 -3.34234 -1.545e-16 
6.90965 -3.31253 -8.90162e-17 
7.212 -3.33691 -3.50742e-17 
7.51586 -3.34014 2.36764e-17 
7.82066 -3.33472 9.33123e-17 
8.12606 -3.32353 1.66557e-16 
8.42593 -3.31736 2.43001e-16 
8.75141 -3.32073 3.8866e-16 
9.07558 -3.38825 4.39878e-16 
9.38893 -3.34731 6.15709e-16 
9.70261 -3.3001 8.46774e-16 
10.0151 -3.38922 9.55939e-16 
10.3143 -3.30986 1.44844e-15 
10.6378 -3.40406 1.42379e-15 
10.968 -3.34047 1.65103e-15 
11.2962 -3.26309 7.83539e-16 
11.6332 -3.37561 5.06565e-16 
12 -3.31507 -2.88954e-11 
-12 -3.0032 1.07173e-11 
-11.6568 -3.05375 -1.42273e-16 
-11.3145 -2.96184 4.70035e-16 
-10.9644 -2.9883 -2.69077e-16 
-10.6268 -2.97241 -4.30855e-16 
-10.297 -3.01539 -4.79378e-16 
-9.97382 -2.98737 -3.69068e-16 
-9.6544 -3.0009 -1.98533e-16 
-9.35442 -3.02626 -1.8307e-16 
-9.04855 -2.98908 -1.33506e-16 
-8.73847 -2.99147 -9.09268e-17 
-8.43308 -3.00146 -9.75233e-17 
-8.12466 -3.00737 -6.85237e-17 
-7.82297 -3.00163 -3.6549e-17 
-7.51993 -2.98132 -6.53323e-18 
-7.21798 -2.99208 1.27746e-17 
-6.91743 -3.0179 4.9174e-17 
-6.60846 -3.0123 6.60653e-17 
-6.30044 -3.02383 9.186e-17 
-5.9933 -3.01521 1.37916e-16 
-5.68771 -3.00909 1.90081e-16 
-5.38889 -3 2.29012e-16 
-5.08839 -2.98773 2.73092e-16 
-4.79144 -3.04935 5.10558e-16 
-4.49428 -3.01919 5.34423e-16 
-4.19825 -3.01876 6.00681e-16 
-3.90124 -3.06849 1.17949e-15 
-3.59664 -3.07341 1.36816e-15 
-3.28268 -3.05983 2.22237e-15 
-2.95742 -3.06136 2.26352e-15 
-2.66002 -2.92908 7.97843e-16 
-2.38794 -2.99075 1.13786e-17 
-2.11387 -3.01898 1.89888e-15 
-1.82393 -3.02436 -4.3663e-15 
-1.54214 -2.9604 -1.13701e-14 
-1.24345 -2.89064 -1.73318e-14 
-0.909139 -2.79678 -4.51029e-14 
-0.55928 -2.66001 -2.97751e-13 
-0.213657 -2.79792 7.04418e-13 
0.0300592 -2.29074 4.05361e-14 
0.28037 -2.54171 1.8687e-14 
0.563747 -2.70145 6.31642e-14 
0.912744 -2.65153 2.18328e-14 
1.25404 -2.86338 -9.0296e-16 
1.55347 -2.90775 1.25912e-15 
1.80677 -3.00697 3.44034e-16 
2.10655 -2.99762 6.23262e-17 
2.37407 -3.11093 -3.04874e-15 
2.65997 -3.07786 -1.68447e-15 
2.94364 -3.07447 -2.4585e-15 
3.24271 -3.02573 -1.27583e-15 
3.55178 -3.02773 -1.35251e-15 
3.86718 -3.05379 -1.20738e-15 
4.16941 -3.02289 -7.58019e-16 
4.47615 -3.0051 -4.85667e-16 
4.78444 -3.01813 -4.17957e-16 
5.08124 -3.0136 -3.42087e-16 
5.37908 -3.03253 -2.77275e-16 
5.68135 -3.00083 -1.72752e-16 
5.98723 -3.00353 -1.24089e-16 
6.29471 -2.97778 -8.50845e-17 
6.60222 -3.00697 -5.75086e-17 
6.91799 -2.99279 -3.04181e-17 
7.23123 -3.00674 -1.42871e-17 
7.53184 -3.0079 9.87898e-18 
7.83669 -3.00386 3.63914e-17 
8.13106 -2.98355 5.87105e-17 
8.44858 -3.00152 9.23964e-17 
8.74383 -2.97366 9.01128e-17 
9.04565 -3.05998 1.95488e-16 
9.35574 -3.01635 1.29337e-16 
9.65761 -2.95797 9.31411e-17 
9.98539 -3.03593 4.06971e-16 
10.3237 -2.98468 4.09611e-16 
10.6566 -3.06889 8.29109e-16 
10.9881 -3.00055 2.35413e-16 
11.3369 -2.94052 -6.33264e-16 
11.6651 -3.06166 1.65252e-16 
12 -2.98362 -1.36108e-11 
-12 -2.67915 4.86709e-12 
-11.6599 -2.72817 8.77858e-17 
-11.3295 -2.6302 1.05904e-15 
-10.9919 -2.66631 3.15102e-16 
-10.6505 -2.64568 1.65711e-17 
-10.3114 -2.6795 -8.35417e-17 
-9.97653 -2.66427 -2.96692e-17 
-9.64289 -2.66826 7.07763e-17 
-9.32244 -2.67792 5.64445e-17 
-9.0038 -2.65591 1.68657e-17 
-8.69276 -2.6553 -8.26993e-18 
-8.37922 -2.67433 -2.08981e-17 
-8.07404 -2.67019 -1.62943e-17 
-7.76716 -2.66766 -9.67132e-18 
-7.4548 -2.65271 -8.91934e-19 
-7.14687 -2.6656 -1.40414e-18 
-6.84406 -2.6923 1.14849e-17 
-6.53174 -2.68792 6.78493e-18 
-6.22851 -2.69114 1.60891e-17 
-5.92241 -2.68479 2.9826e-17 
[...]
POINT_DATA 1978 
VECTORS vectors float
-0.000887708 -0.00262773 0.999996 
0.00139344 -0.0257456 0.999668 
0.00209387 -0.0280539 0.999604 
0.0023184 -0.0218833 0.999758 
0.00239066 -0.0169569 0.999853 
0.00231468 -0.013323 0.999909 
0.00195834 -0.010686 0.999941 
0.00217164 -0.00820675 0.999964 
0.00211824 -0.00600813 0.99998 
0.00158171 -0.00426343 0.99999 
0.00132912 -0.00293163 0.999995 
0.00129356 -0.0019058 0.999998 
0.000994498 -0.0011828 0.999999 
0.000507912 -0.000643365 1 
0.000313358 -0.000219501 1 
0.000584358 0.000245686 1 
0.000765282 0.00070936 1 
0.000860673 0.00127472 0.999999 
0.00113896 0.00211503 0.999997 
0.00124405 0.0031713 0.999994 
0.00115079 0.00453783 0.999989 
0.000894448 0.00630416 0.99998 
0.0007557 0.00864309 0.999963 
0.0010953 0.0115561 0.999933 
0.000992318 0.0160998 0.99987 
0.000601804 0.0217748 0.999763 
0.000739356 0.029302 0.99957 
0.000795979 0.0406786 0.999172 
0.000486756 0.0556576 0.99845 
0.000185951 0.0757516 0.997127 
-0.000181963 0.105008 0.994471 
-0.000432362 0.136373 0.990658 
-0.000341706 0.181996 0.983299 
-8.4141e-05 0.244821 0.969568 
0.000137419 0.323429 0.946252 
0.000256664 0.418882 0.908041 
0.00031611 0.543139 0.839643 
-0.000277963 0.68576 0.727828 
-0.00193789 0.845991 0.533194 
-0.000355891 0.999213 0.0396578 
0.00211606 0.879624 -0.475665 
0.000554005 0.701022 -0.71314 
-0.000419818 0.568366 -0.822776 
-0.000348167 0.434393 -0.900724 
-8.22632e-05 0.334956 -0.942234 
0.000126946 0.255676 -0.966762 
0.000156977 0.194955 -0.980812 
-0.000120961 0.146905 -0.98915 
-0.000455006 0.103841 -0.994594 
-0.000582827 0.0753489 -0.997157 
-0.00047146 0.0538751 -0.998548 
-0.000494865 0.0397402 -0.99921 
-0.000880753 0.0292335 -0.999572 
-0.000970757 0.0211476 -0.999776 
-0.000764466 0.0155212 -0.999879 
-0.000926157 0.011514 -0.999933 
-0.00122089 0.00843217 -0.999964 
-0.00128271 0.00614634 -0.99998 
-0.00104357 0.00436479 -0.99999 
-0.000702376 0.00305514 -0.999995 
-0.000505663 0.00204864 -0.999998 
-0.000521903 0.00132768 -0.999999 
-0.000450579 0.000693903 -1 
-0.000454249 0.000196402 -1 
-0.000647708 -0.000224121 -1 
-0.000757412 -0.000669382 -1 
-0.000697443 -0.00119826 -0.999999 
-0.000546388 -0.00184799 -0.999998 
-0.000567765 -0.00282589 -0.999996 
-0.00150278 -0.00400676 -0.999991 
-0.00211835 -0.00576698 -0.999981 
-0.0016143 -0.00792619 -0.999967 
-0.0020851 -0.0100925 -0.999947 
-0.00262489 -0.0131351 -0.99991 
-0.00320534 -0.0163136 -0.999862 
-0.00291404 -0.0220518 -0.999753 
-0.00172426 -0.0278333 -0.999611 
-0.00154152 -0.0261285 -0.999658 
0.000687666 -0.00258391 -0.999997 
-0.00148827 -0.00177904 0.999997 
0.00810818 -0.0179229 0.999807 
0.0117537 -0.0239859 0.999643 
0.0115807 -0.0227277 0.999675 
0.0124213 -0.0179382 0.999762 
0.012173 -0.0141235 0.999826 
0.0129437 -0.0109964 0.999856 
0.0127725 -0.00860207 0.999881 
0.0127745 -0.00650487 0.999897 
0.013167 -0.00463583 0.999903 
0.0138085 -0.00325723 0.999899 
0.0138766 -0.00218452 0.999901 
0.0140076 -0.00137288 0.999901 
0.0143341 -0.00073629 0.999897 
0.0147635 -0.000226791 0.999891 
0.0144683 0.000224661 0.999895 
0.0139592 0.000728427 0.999902 
0.0140729 0.00139736 0.9999 
0.0138612 0.00225069 0.999901 
0.0138693 0.00334927 0.999898 
0.0139358 0.00478813 0.999891 
0.0139342 0.00664686 0.999881 
0.0138839 0.00901075 0.999863 
0.0126373 0.0124726 0.999842 
0.0130682 0.0170978 0.999768 
0.0125908 0.0232164 0.999651 
0.0111493 0.0321798 0.99942 
0.0106973 0.0449083 0.998934 
0.00966366 0.0621 0.998023 
0.00806141 0.0860956 0.996254 
0.00725606 0.114874 0.993354 
0.00447656 0.153135 0.988195 
0.00153266 0.206793 0.978383 
-0.00124951 0.276426 0.961034 
-0.00395395 0.363439 0.93161 
-0.00615969 0.476495 0.879156 
-0.0073473 0.612569 0.790383 
-0.00652939 0.766944 0.641681 
-0.00310411 0.93234 0.36157 
0.000507584 0.999998 -0.00189354 
0.00370843 0.934667 -0.355506 
0.00690021 0.756154 -0.654357 
0.00776008 0.594659 -0.803941 
0.00570812 0.46883 -0.88327 
0.0034266 0.352744 -0.935714 
0.000869407 0.267933 -0.963437 
-0.00174585 0.200664 -0.979659 
-0.00439285 0.142946 -0.989721 
-0.00689133 0.103745 -0.99458 
-0.00866196 0.0747521 -0.997165 
-0.0104556 0.0545929 -0.998454 
-0.0112195 0.0398437 -0.999143 
-0.0116967 0.0286837 -0.99952 
-0.0127861 0.0210204 -0.999697 
-0.0133192 0.0155417 -0.999791 
-0.0132 0.0113599 -0.999848 
-0.0134774 0.00828523 -0.999875 
-0.0136119 0.00596617 -0.99989 
-0.0142165 0.00428616 -0.99989 
-0.0144074 0.00299776 -0.999892 
-0.0147049 0.00205727 -0.99989 
-0.0142478 0.0012573 -0.999898 
-0.0150047 0.00065618 -0.999887 
-0.0144686 0.000153737 -0.999895 
-0.0143963 -0.00032631 -0.999896 
-0.0144979 -0.000841567 -0.999895 
-0.0146415 -0.00145158 -0.999892 
-0.0145311 -0.00223845 -0.999892 
-0.0148105 -0.00322503 -0.999885 
-0.012755 -0.0046359 -0.999908 
-0.0130039 -0.00648917 -0.999894 
-0.0136697 -0.00835342 -0.999872 
-0.0118871 -0.0108478 -0.999871 
-0.0126326 -0.0137812 -0.999825 
-0.0109911 -0.0181412 -0.999775 
-0.012205 -0.0228023 -0.999666 
-0.0118543 -0.0240361 -0.999641 
-0.00792124 -0.0179522 -0.999807 
0.0014686 -0.00172751 -0.999997 
-0.0011292 -0.0021225 0.999997 
0.0120829 -0.0183441 0.999759 
0.0162922 -0.0241418 0.999576 
0.0173171 -0.0216963 0.999615 
0.0180393 -0.0172208 0.999689 
0.0182039 -0.0135658 0.999742 
0.0187125 -0.0105818 0.999769 
0.019016 -0.00845811 0.999783 
0.018924 -0.00660031 0.999799 
0.0195957 -0.00501136 0.999795 
0.0198685 -0.00357614 0.999796 
0.0199475 -0.0024262 0.999798 
0.0200232 -0.00155883 0.999798 
0.0200687 -0.000883874 0.999798 
0.0202478 -0.000312707 0.999795 
0.0202059 0.000206422 0.999796 
0.0200915 0.0007447 0.999798 
0.0201497 0.00141436 0.999796 
0.0199914 0.00225141 0.999798 
0.0198279 0.00333476 0.999798 
0.0196957 0.0047365 0.999795 
0.0195307 0.00657563 0.999788 
0.0193481 0.00898426 0.999772 
0.0187653 0.0121579 0.99975 
0.0185525 0.0165472 0.999691 
0.0178578 0.0224472 0.999589 
0.016787 0.030694 0.999388 
0.0156975 0.0426094 0.998968 
0.0140197 0.059766 0.998114 
0.0118356 0.0827431 0.996501 
0.00927355 0.114997 0.993323 
0.00605696 0.15715 0.987556 
0.00248008 0.209326 0.977843 
-0.00143069 0.278823 0.960342 
-0.00515256 0.373624 0.927566 
-0.00751505 0.48681 0.873476 
-0.00798961 0.622868 0.782286 
-0.00650201 0.791313 0.611377 
-0.0035984 0.937437 0.348136 
0.00174199 0.998662 -0.0516872 
0.00550291 0.923656 -0.383183 
0.00776225 0.775047 -0.631856 
0.00845882 0.62492 -0.780643 
0.00766585 0.474847 -0.880035 
0.0052679 0.37201 -0.928214 
0.00154796 0.280082 -0.959975 
-0.00212536 0.213971 -0.976838 
-0.00622212 0.155943 -0.987746 
-0.00951075 0.113214 -0.993525 
-0.0120068 0.0821803 -0.996545 
-0.0140766 0.0600591 -0.998096 
-0.0155621 0.0434399 -0.998935 
-0.0166422 0.0316471 -0.999361 
-0.0176396 0.0231504 -0.999576 
-0.0183361 0.0169649 -0.999688 
-0.0188573 0.0125189 -0.999744 
-0.0191391 0.00915055 -0.999775 
-0.0194706 0.00667134 -0.999788 
-0.0197229 0.00479369 -0.999794 
-0.0200021 0.00340126 -0.999794 
-0.0200302 0.00233168 -0.999797 
-0.0200813 0.00149472 -0.999797 
-0.0203135 0.000828257 -0.999793 
-0.0203922 0.000251189 -0.999792 
-0.0203244 -0.000276393 -0.999793 
-0.0202979 -0.00082255 -0.999794 
-0.020212 -0.00147321 -0.999795 
-0.0199955 -0.00229356 -0.999797 
-0.0199738 -0.00347144 -0.999794 
-0.0191028 -0.00490885 -0.999805 
-0.019201 -0.0065913 -0.999794 
-0.0191442 -0.00839684 -0.999781 
-0.0182193 -0.0105428 -0.999778 
-0.0186404 -0.013226 -0.999739 
-0.0174364 -0.0170723 -0.999702 
-0.0174136 -0.0216498 -0.999614 
-0.0161759 -0.0241765 -0.999577 
-0.0119049 -0.0181724 -0.999764 
0.00115994 -0.00210483 -0.999997 
-0.000953059 -0.00185888 0.999998 
0.010963 -0.0173616 0.999789 
0.0140619 -0.0244012 0.999603 
0.0153902 -0.0215221 0.99965 
0.015988 -0.0169739 0.999728 
0.0165404 -0.0129377 0.999779 
0.0165688 -0.0100774 0.999812 
0.0170452 -0.00817972 0.999821 
0.0176654 -0.00657256 0.999822 
0.0175385 -0.00499735 0.999834 
0.0176189 -0.00357474 0.999838 
0.0179894 -0.00242971 0.999835 
0.0181559 -0.00153904 0.999834 
0.0181254 -0.00085227 0.999835 
0.0178745 -0.000261634 0.99984 
0.0180584 0.000300202 0.999837 
0.0184097 0.000884029 0.99983 
0.0182613 0.00160907 0.999832 
0.0182073 0.00249788 0.999831 
0.0180389 0.00362298 0.999831 
0.0177899 0.00507685 0.999829 
0.0174338 0.00698049 0.999824 
0.0170438 0.00955968 0.999809 
0.0171773 0.0127817 0.999771 
0.0163514 0.0174065 0.999715 
0.0156493 0.0236711 0.999597 
0.0152533 0.0319186 0.999374 
0.0140881 0.043849 0.998939 
0.0124897 0.0611375 0.998051 
0.0101785 0.0868614 0.996168 
0.00691524 0.123172 0.992361 
0.00468943 0.164333 0.986394 
0.00196242 0.218798 0.975768 
-0.00132704 0.293681 0.955903 
-0.00367408 0.384692 0.923038 
-0.00474926 0.495203 0.868764 
-0.00461675 0.647831 0.76177 
-0.00307734 0.820415 0.571761 
-0.00135944 0.957525 0.288346 
0.00131327 0.999912 -0.0131847 
0.00313673 0.946355 -0.323113 
0.00435487 0.819824 -0.572599 
0.00466431 0.662286 -0.749237 
0.00561632 0.502557 -0.864526 
0.00367519 0.376347 -0.926471 
0.00151389 0.294333 -0.955702 
-0.00175645 0.220235 -0.975445 
-0.00534515 0.165106 -0.986261 
-0.00804468 0.122375 -0.992451 
-0.0101608 0.0886156 -0.996014 
-0.0116779 0.0649148 -0.997822 
-0.0132745 0.0463886 -0.998835 
-0.0147901 0.0330758 -0.999343 
-0.0154963 0.024318 -0.999584 
-0.0160475 0.0178765 -0.999711 
-0.0167099 0.0129755 -0.999776 
-0.0172625 0.00962555 -0.999805 
-0.0176978 0.00702859 -0.999819 
-0.0177038 0.00515731 -0.99983 
-0.0178121 0.00365645 -0.999835 
-0.0178051 0.00255034 -0.999838 
-0.0181096 0.00163998 -0.999835 
-0.0181641 0.000905129 -0.999835 
-0.0182711 0.0002637 -0.999833 
-0.0183325 -0.00029958 -0.999832 
-0.01829 -0.000896465 -0.999832 
-0.0179588 -0.00157644 -0.999837 
-0.0179599 -0.00249218 -0.999836 
-0.0175239 -0.00362485 -0.99984 
-0.0182557 -0.00497599 -0.999821 
-0.0174064 -0.00661971 -0.999827 
-0.0164743 -0.00830654 -0.99983 
-0.0170101 -0.0102988 -0.999802 
-0.01634 -0.0132614 -0.999779 
-0.0169513 -0.0173426 -0.999706 
-0.015657 -0.0220325 -0.999635 
-0.0136697 -0.0243779 -0.999609 
-0.010839 -0.0170714 -0.999796 
0.00108452 -0.00196483 -0.999997 
-0.000770292 -0.00163036 0.999998 
0.00832371 -0.0171495 0.999818 
0.010651 -0.0251735 0.999626 
0.0118761 -0.0223161 0.99968 
0.0120898 -0.0172583 0.999778 
0.0126902 -0.0130625 0.999834 
0.0128281 -0.0102702 0.999865 
0.0131492 -0.00835408 0.999879 
0.0135792 -0.00664852 0.999886 
0.0136787 -0.00502376 0.999894 
0.0138073 -0.00356585 0.999898 
0.0142582 -0.0023816 0.999896 
0.0143044 -0.00148779 0.999897 
0.0143517 -0.000769252 0.999897 
0.0141736 -0.000123277 0.9999 
0.0143811 0.000510621 0.999896 
0.0147011 0.00116388 0.999891 
0.0145183 0.00198309 0.999893 
0.0144758 0.00295533 0.999891 
0.0143128 0.0041944 0.999889 
0.0140291 0.00578657 0.999885 
0.0136732 0.00787064 0.999876 
0.0133412 0.0107646 0.999853 
0.0133168 0.0142253 0.99981 
0.0124944 0.0192796 0.999736 
0.0118871 0.0262455 0.999585 
0.0114783 0.0355481 0.999302 
0.0103021 0.0487328 0.998759 
0.00897741 0.0690489 0.997573 
0.00695254 0.0963683 0.995321 
0.00420686 0.140297 0.9901 
0.00278555 0.183767 0.982966 
0.00100351 0.240832 0.970566 
-0.00076749 0.315063 0.94907 
-0.00181979 0.412422 0.910991 
-0.00236979 0.552346 0.833612 
-0.00145114 0.720848 0.693091 
0.000494689 0.827053 0.562124 
7.09961e-05 0.928609 0.37106 
0.000804762 0.994937 0.100495 
0.000656167 0.952607 -0.304205 
0.00171484 0.836184 -0.548446 
0.00205643 0.698784 -0.715329 
0.00306425 0.527233 -0.849715 
0.00220215 0.392076 -0.91993 
0.00032931 0.288433 -0.9575 
-0.00138867 0.225506 -0.974241 
-0.00402966 0.164934 -0.986296 
-0.00570554 0.122122 -0.992499 
-0.0073973 0.0895179 -0.995958 
-0.00877854 0.063479 -0.997945 
-0.0103417 0.0446205 -0.99895 
-0.0113916 0.0326092 -0.999403 
-0.0119944 0.0238799 -0.999643 
-0.0125405 0.0174556 -0.999769 
-0.013096 0.0129375 -0.999831 
-0.0135335 0.00957295 -0.999863 
-0.0139836 0.00710043 -0.999877 
-0.0140163 0.0051832 -0.999888 
-0.0142164 0.0037154 -0.999892 
-0.0141031 0.00258149 -0.999897 
-0.014583 0.00164631 -0.999892 
-0.014477 0.000877292 -0.999895 
-0.0144882 0.000244286 -0.999895 
-0.0145467 -0.000370209 -0.999894 
-0.0143115 -0.000994388 -0.999897 
-0.0143068 -0.00177344 -0.999896 
-0.0140571 -0.00269732 -0.999898 
-0.0134827 -0.00387792 -0.999902 
-0.014348 -0.00519614 -0.999884 
-0.0134522 -0.00680362 -0.999886 
-0.0127569 -0.00857731 -0.999882 
-0.0132619 -0.0104154 -0.999858 
-0.0123715 -0.013286 -0.999835 
-0.0130884 -0.0174971 -0.999761 
-0.0119773 -0.0225051 -0.999675 
-0.0103096 -0.0245993 -0.999644 
-0.00803992 -0.0166234 -0.99983 
0.000692824 -0.00195525 -0.999998 
-0.000545745 -0.00162062 0.999998 
0.00528865 -0.0153539 0.999868 
0.00766847 -0.0239683 0.999683 
0.00868157 -0.0235635 0.999685 
0.00893891 -0.0187268 0.999785 
0.00939026 -0.0142325 0.999855 
0.00966761 -0.0112276 0.99989 
0.010036 -0.00922626 0.999907 
0.0103795 -0.00753116 0.999918 
0.010629 -0.00586145 0.999926 
0.0107892 -0.00424749 0.999933 
0.0111194 -0.00288132 0.999934 
0.0112398 -0.00188049 0.999935 
0.0113264 -0.00107674 0.999935 
0.0113585 -0.000396743 0.999935 
0.0114054 0.000293018 0.999935 
0.0115011 0.000990369 0.999933 
0.0116396 0.00173813 0.999931 
0.0114968 0.00268794 0.99993 
0.0114327 0.00381135 0.999927 
0.0112327 0.00524531 0.999923 
0.0109633 0.00708057 0.999915 
0.0107554 0.00952745 0.999897 
0.0103084 0.0127766 0.999865 
0.0100648 0.0167493 0.999809 
0.00944402 0.0227125 0.999697 
0.00888118 0.0309935 0.99948 
0.00812405 0.0417424 0.999095 
0.0072531 0.058382 0.998268 
0.00582849 0.0809915 0.996698 
0.00428297 0.114101 0.99346 
0.00238775 0.163202 0.98659 
0.0015363 0.213713 0.976895 
0.000464821 0.277961 0.960592 
-0.000455429 0.366128 0.930564 
-0.00102077 0.499119 0.866533 
-0.000424206 0.626841 0.779147 
0.000945246 0.766095 0.642727 
0.0019032 0.956919 0.290347 
0.000299347 0.999126 -0.0417844 
6.61513e-05 0.953471 -0.301484 
-0.00232843 0.904968 -0.425472 
-0.000304686 0.793267 -0.608874 
0.00120703 0.562266 -0.826956 
0.00107295 0.4261 -0.904675 
0.000230594 0.316476 -0.9486 
-0.000944247 0.236201 -0.971704 
-0.0024287 0.179746 -0.98371 
-0.00363117 0.135333 -0.990794 
-0.00492998 0.0971463 -0.995258 
-0.0062158 0.0702841 -0.997508 
-0.00758963 0.0489125 -0.998774 
-0.00843528 0.0349537 -0.999353 
-0.00910913 0.0257613 -0.999627 
-0.00969415 0.0189396 -0.999774 
-0.0101238 0.0139848 -0.999851 
-0.0105529 0.0104509 -0.99989 
-0.0109007 0.00779253 -0.99991 
-0.0111574 0.00583246 -0.999921 
-0.0113195 0.00422473 -0.999927 
-0.0113101 0.00300956 -0.999932 
-0.0115796 0.00194277 -0.999931 
-0.0116369 0.00112273 -0.999932 
-0.0114687 0.000389131 -0.999934 
-0.0115677 -0.00026662 -0.999933 
-0.0112592 -0.000944232 -0.999936 
-0.011351 -0.00169313 -0.999934 
-0.0109468 -0.00266303 -0.999937 
-0.0105759 -0.00387501 -0.999937 
-0.0109835 -0.00541248 -0.999925 
-0.0105243 -0.0072319 -0.999918 
-0.00979497 -0.00894358 -0.999912 
-0.0101208 -0.0106355 -0.999892 
-0.00938563 -0.0135027 -0.999865 
-0.00982159 -0.0176533 -0.999796 
-0.00900571 -0.0227708 -0.9997 
-0.00771582 -0.0250106 -0.999657 
-0.0061692 -0.0176552 -0.999825 
0.00047363 -0.00195686 -0.999998 
-0.000370841 -0.00177718 0.999998 
0.00445798 -0.0176956 0.999833 
0.00621074 -0.0254047 0.999658 
0.0065681 -0.0223266 0.999729 
0.00699047 -0.0172548 0.999827 
0.00731019 -0.0134464 0.999883 
0.00773148 -0.0108 0.999912 
0.00812821 -0.0090041 0.999926 
0.0083924 -0.0073192 0.999938 
0.00869839 -0.00553965 0.999947 
0.0089804 -0.0038637 0.999952 
0.00912559 -0.00262843 0.999955 
0.0093074 -0.00165509 0.999955 
0.00936959 -0.000879098 0.999956 
0.00951126 -0.000151306 0.999955 
0.00949616 0.000584428 0.999955 
0.00952092 0.0013603 0.999954 
0.00963642 0.00222923 0.999951 
0.00948624 0.00332243 0.999949 
0.00941057 0.00461055 0.999945 
0.00920561 0.00626443 0.999938 
0.00902358 0.00842486 0.999924 
0.00872791 0.0112079 0.999899 
0.00828371 0.0149396 0.999854 
0.00800981 0.0197729 0.999772 
0.00743437 0.0272357 0.999601 
0.00668 0.0370067 0.999293 
0.00601079 0.0514828 0.998656 
0.00492043 0.0714238 0.997434 
0.00374547 0.10128 0.994851 
0.00246283 0.139977 0.990152 
0.00104018 0.227778 0.973713 
0.000323969 0.307693 0.951486 
-0.000263109 0.418452 0.908239 
1.09358e-05 0.566411 0.824123 
0.000341093 0.715311 0.698806 
0.00140471 0.8364 0.548117 
0.00273615 0.928214 0.372037 
0.00050371 0.922173 0.386776 
-0.001771 0.998192 0.0600903 
-0.00654105 0.956089 -0.293003 
-0.00634816 0.839952 -0.542624 
-0.00146109 0.77214 -0.635451 
0.000429143 0.662355 -0.74919 
0.000308287 0.490546 -0.871415 
6.24592e-05 0.362189 -0.932105 
-0.000544091 0.271801 -0.962353 
-0.00165395 0.183498 -0.983019 
-0.00281719 0.130514 -0.991443 
-0.00378645 0.0941309 -0.995553 
-0.00512378 0.065573 -0.997835 
-0.00614537 0.0463556 -0.998906 
-0.00679003 0.0336194 -0.999412 
-0.00747768 0.0246154 -0.999669 
-0.00799834 0.0182473 -0.999802 
-0.00834762 0.0136706 -0.999872 
-0.00873393 0.0102842 -0.999909 
-0.00896598 0.00781973 -0.999929 
-0.0093216 0.00578953 -0.99994 
-0.00937991 0.00427352 -0.999947 
-0.00956829 0.00293559 -0.99995 
-0.00961087 0.00192881 -0.999952 
-0.00970041 0.00105755 -0.999952 
-0.0095042 0.000288238 -0.999955 
-0.00953219 -0.000406156 -0.999954 
-0.00929896 -0.00114963 -0.999956 
-0.00931099 -0.00194404 -0.999955 
-0.00888556 -0.00292619 -0.999956 
-0.00869559 -0.00430073 -0.999953 
-0.00894769 -0.00575384 -0.999943 
-0.00845361 -0.00750129 -0.999936 
-0.007916 -0.00937327 -0.999925 
-0.00791184 -0.0111969 -0.999906 
-0.00726695 -0.0141591 -0.999873 
-0.0074457 -0.0182094 -0.999806 
-0.00665673 -0.0228954 -0.999716 
-0.00575059 -0.0250284 -0.99967 
-0.00455149 -0.0173581 -0.999839 
0.000417353 -0.00199971 -0.999998 
-0.000327561 -0.00200153 0.999998 
0.00328014 -0.0170056 0.99985 
0.00469379 -0.0252511 0.99967 
0.00505509 -0.0231233 0.99972 
0.00555003 -0.0184733 0.999814 
0.00583518 -0.0143821 0.99988 
0.00624612 -0.0116227 0.999913 
0.00661815 -0.00973537 0.999931 
0.00683685 -0.00797435 0.999945 
0.0070973 -0.00610541 0.999956 
0.00742843 -0.00438724 0.999963 
0.00746262 -0.00300122 0.999968 
0.00767476 -0.00196 0.999969 
0.00774936 -0.0011313 0.999969 
0.007926 -0.000370739 0.999969 
0.00794373 0.000389108 0.999968 
0.00789875 0.00123685 0.999968 
0.0079915 0.00217872 0.999966 
0.00796096 0.00324624 0.999963 
0.0078262 0.00459718 0.999959 
0.00770153 0.00618092 0.999951 
0.0075629 0.00825197 0.999937 
0.00727734 0.0109403 0.999914 
0.00689388 0.0144652 0.999872 
0.00657575 0.0192949 0.999792 
0.00632998 0.0258881 0.999645 
0.00552747 0.0353999 0.999358 
0.00507837 0.0488968 0.998791 
0.0041367 0.0673085 0.997724 
0.0032247 0.0937365 0.995592 
0.00210605 0.137966 0.990435 
0.0012507 0.200246 0.979745 
0.000419508 0.305463 0.952204 
0.000101557 0.416308 0.909224 
0.000223697 0.545259 0.838268 
0.000828637 0.700622 0.713532 
0.00351033 0.827066 0.562092 
0.0039307 0.99266 0.120873 
0.00223302 0.99636 0.0852108 
0.00013286 0.999108 0.0422211 
-0.00462743 0.99918 -0.0402139 
-0.00672268 0.99702 -0.0768484 
-0.00480512 0.744302 -0.667826 
-0.0016456 0.651349 -0.758776 
-0.000260616 0.583964 -0.81178 
-5.68743e-05 0.425459 -0.904978 
-0.000305195 0.313651 -0.949538 
-0.00112765 0.20539 -0.97868 
-0.0019622 0.145992 -0.989284 
-0.00276839 0.103457 -0.99463 
-0.00389357 0.0716828 -0.99742 
-0.00481204 0.0510111 -0.998686 
-0.0054051 0.0367681 -0.999309 
-0.00603091 0.0265715 -0.999629 
-0.00650032 0.019734 -0.999784 
-0.00682729 0.0149304 -0.999865 
-0.00715107 0.0112413 -0.999911 
-0.00730149 0.008564 -0.999937 
-0.00773994 0.00650955 -0.999949 
-0.00775515 0.00485093 -0.999958 
-0.00808992 0.00345805 -0.999961 
-0.00799425 0.00228439 -0.999965 
-0.0081032 0.0013187 -0.999966 
-0.00795683 0.000483308 -0.999968 
-0.00784388 -0.000322258 -0.999969 
-0.00772557 -0.00105669 -0.99997 
-0.00754754 -0.00192496 -0.99997 
-0.00735889 -0.00299332 -0.999968 
-0.00710182 -0.00435403 -0.999965 
-0.00723689 -0.00607933 -0.999955 
-0.00699066 -0.00806007 -0.999943 
-0.00643791 -0.0098932 -0.99993 