# vtk DataFile Version 3.0 
Exported using Morpho https://github.com/Morpho-lang/morpho 
ASCII 
DATASET UNSTRUCTURED_GRID 

POINTS 1978 float 
-12 -4 -6.12157e-11 
-11.6173 -4 4.14181e-10 
-11.3227 -4 5.76223e-10 
-10.9726 -4 3.86055e-10 
-10.6522 -4 2.87508e-10 
-10.2987 -4 2.50313e-10 
-9.97773 -4 1.97347e-10 
-9.65143 -4 1.6349e-10 
-9.31294 -4 1.21096e-10 
-8.99092 -4 7.86348e-11 
-8.68265 -4 5.31213e-11 
-8.37033 -4 3.40617e-11 
-8.06234 -4 2.0669e-11 
-7.76355 -4 1.04632e-11 
-7.48103 -4 2.83636e-12 
-7.19291 -4 -8.29976e-12 
-6.89279 -4 -1.46137e-11 
-6.59734 -4 -2.27996e-11 
-6.29498 -4 -4.41712e-11 
-5.98548 -4 -6.29009e-11 
-5.67725 -4 -8.62482e-11 
-5.37334 -4 -1.14154e-10 
-5.07288 -4 -1.44321e-10 
-4.78436 -4 -2.13094e-10 
-4.45983 -4 -2.6664e-10 
-4.1676 -4 -3.08572e-10 
-3.88081 -4 -4.16527e-10 
-3.56572 -4 -5.11294e-10 
-3.26996 -4 -5.3395e-10 
-2.98468 -4 -6.0177e-10 
-2.68089 -4 -4.93421e-10 
-2.44388 -4 -2.33594e-10 
-2.18501 -4 -2.15966e-10 
-1.91383 -4 -3.98745e-10 
-1.65291 -4 -1.19948e-09 
-1.39931 -4 -3.94865e-09 
-1.12555 -4 -8.20928e-09 
-0.847034 -4 -2.04942e-08 
-0.538759 -4 -7.53078e-08 
-0.0263904 -4 -4.67395e-09 
0.475639 -4 6.50709e-08 
0.827716 -4 2.50801e-08 
1.08259 -4 5.36409e-09 
1.36668 -4 4.11153e-09 
1.62252 -4 9.94229e-10 
1.87958 -4 2.95957e-10 
2.13068 -4 2.81467e-10 
2.38368 -4 1.6035e-10 
2.6991 -4 5.87998e-10 
2.9923 -4 5.94303e-10 
3.30146 -4 5.38412e-10 
3.58602 -4 4.48575e-10 
3.8806 -4 4.2774e-10 
4.1954 -4 3.41605e-10 
4.49342 -4 2.41309e-10 
4.78676 -4 1.94796e-10 
5.09754 -4 1.54291e-10 
5.40478 -4 1.18153e-10 
5.71682 -4 8.39072e-11 
6.01323 -4 5.76529e-11 
6.30917 -4 3.69701e-11 
6.59263 -4 2.81459e-11 
6.89484 -4 1.19675e-11 
7.17432 -4 6.63712e-12 
7.4697 -4 -1.3868e-12 
7.76726 -4 -1.18208e-11 
8.06413 -4 -1.97952e-11 
8.3569 -4 -2.92944e-11 
8.65454 -4 -4.8881e-11 
8.93453 -4 -7.9715e-11 
9.28103 -4 -1.20313e-10 
9.60761 -4 -1.38791e-10 
9.90301 -4 -2.04618e-10 
10.2732 -4 -2.50133e-10 
10.5932 -4 -3.29914e-10 
10.9881 -4 -4.21997e-10 
11.3094 -4 -5.19775e-10 
11.6001 -4 -4.46145e-10 
12 -4 4.97246e-11 
-12 -3.61851 -1.86329e-10 
-11.7088 -3.70943 -1.26403e-10 
-11.3626 -3.6237 -1.50509e-10 
-11.0551 -3.68043 -1.81381e-10 
-10.7156 -3.65056 -1.41945e-10 
-10.397 -3.68595 -1.61715e-10 
-10.0575 -3.66188 -1.13471e-10 
-9.73427 -3.67547 -8.81087e-11 
-9.39631 -3.68942 -7.4435e-11 
-9.05694 -3.67476 -5.19244e-11 
-8.74042 -3.66252 -3.75502e-11 
-8.42806 -3.67183 -2.82066e-11 
-8.11453 -3.67075 -1.67119e-11 
-7.80359 -3.66568 -1.08023e-11 
-7.50371 -3.65317 -4.14402e-12 
-7.20932 -3.66367 4.67896e-12 
-6.9044 -3.67386 1.22205e-11 
-6.59518 -3.66662 1.65675e-11 
-6.2816 -3.6748 2.87624e-11 
-5.96835 -3.67224 4.16901e-11 
-5.65797 -3.66833 5.7709e-11 
-5.35143 -3.66638 8.22221e-11 
-5.05679 -3.65597 1.01361e-10 
-4.73403 -3.697 1.46285e-10 
-4.43313 -3.67095 1.83027e-10 
-4.1354 -3.67169 2.38928e-10 
-3.81543 -3.70144 2.94565e-10 
-3.5016 -3.69021 4.08513e-10 
-3.20118 -3.68391 4.29857e-10 
-2.89718 -3.70904 7.6102e-10 
-2.64347 -3.61106 5.12775e-10 
-2.37777 -3.66504 5.55849e-10 
-2.10106 -3.69004 3.05655e-10 
-1.82907 -3.68399 2.90349e-10 
-1.55927 -3.66328 5.41245e-10 
-1.27651 -3.65577 2.23434e-09 
-0.988011 -3.60234 6.18712e-09 
-0.683894 -3.54917 2.23238e-08 
-0.333807 -3.6935 -1.63201e-08 
0.00679463 -3.4977 -2.49074e-08 
0.338326 -3.6597 3.47314e-08 
0.727187 -3.57161 -3.98821e-09 
1.03147 -3.52145 -1.41393e-08 
1.29035 -3.66398 -8.65612e-10 
1.58717 -3.66014 -4.98212e-10 
1.86128 -3.67977 -1.01372e-10 
2.13223 -3.68413 -5.69959e-11 
2.42221 -3.72109 -5.65162e-10 
2.72195 -3.70249 -5.11787e-10 
3.02993 -3.70014 -5.12692e-10 
3.32195 -3.6697 -4.62355e-10 
3.61706 -3.67512 -3.412e-10 
3.93047 -3.69412 -3.08284e-10 
4.23111 -3.67182 -2.39488e-10 
4.5247 -3.6617 -1.7076e-10 
4.83137 -3.6775 -1.31698e-10 
5.13955 -3.67279 -9.46808e-11 
5.45334 -3.67763 -7.36147e-11 
5.75531 -3.66232 -5.38494e-11 
6.05893 -3.66488 -4.16859e-11 
6.34969 -3.64905 -2.36652e-11 
6.65505 -3.67409 -1.79602e-11 
6.94663 -3.64992 -1.11809e-11 
7.24653 -3.66987 -9.78885e-13 
7.54894 -3.66983 4.39496e-12 
7.85071 -3.66608 1.06105e-11 
8.1485 -3.66037 1.89394e-11 
8.44397 -3.66308 2.9137e-11 
8.73339 -3.63621 3.98724e-11 
9.05517 -3.70467 5.82834e-11 
9.3883 -3.68267 6.55548e-11 
9.69672 -3.64117 7.88015e-11 
10.034 -3.71041 1.29172e-10 
10.366 -3.6602 1.33436e-10 
10.7298 -3.72082 1.97716e-10 
11.0634 -3.65444 1.61805e-10 
11.3645 -3.61831 1.35672e-10 
11.7118 -3.72268 1.44894e-10 
12 -3.61757 1.79723e-10 
-12 -3.32437 -1.06398e-10 
-11.6298 -3.3642 -6.59631e-11 
-11.286 -3.28084 -1.2164e-10 
-10.9764 -3.34159 -2.09945e-10 
-10.6599 -3.30274 -2.29675e-10 
-10.3419 -3.35429 -1.72749e-10 
-10.0175 -3.327 -1.47129e-10 
-9.70156 -3.33611 -1.09716e-10 
-9.39125 -3.37603 -7.84816e-11 
-9.08507 -3.33609 -6.55328e-11 
-8.77833 -3.32699 -5.46058e-11 
-8.47026 -3.33796 -3.82179e-11 
-8.16277 -3.34007 -2.47204e-11 
-7.85547 -3.33875 -1.22948e-11 
-7.55078 -3.31652 -5.00548e-12 
-7.25101 -3.32479 2.59712e-12 
-6.94868 -3.34873 1.14235e-11 
-6.63951 -3.34188 2.26368e-11 
-6.32881 -3.35016 3.5355e-11 
-6.01725 -3.34577 4.88704e-11 
-5.7073 -3.33925 6.82997e-11 
-5.40013 -3.33471 9.28293e-11 
-5.10025 -3.31573 1.2859e-10 
-4.80085 -3.37811 1.63092e-10 
-4.49955 -3.34809 2.3725e-10 
-4.20095 -3.34554 3.13909e-10 
-3.89654 -3.39135 3.98217e-10 
-3.58614 -3.38812 5.52548e-10 
-3.27621 -3.36856 5.90649e-10 
-2.97581 -3.38943 6.15402e-10 
-2.68087 -3.28876 7.29076e-10 
-2.38834 -3.32667 5.93356e-10 
-2.11486 -3.36959 8.57441e-12 
-1.83729 -3.36114 5.01628e-11 
-1.55013 -3.33378 -3.82966e-10 
-1.27095 -3.28804 1.70885e-10 
-0.97873 -3.19842 2.41969e-09 
-0.638982 -3.12334 9.25473e-09 
-0.31685 -3.25121 1.59596e-09 
0.0615352 -3.0051 -9.90296e-08 
0.37542 -3.21167 2.64701e-09 
0.69212 -3.11363 9.85285e-09 
0.991517 -3.09393 1.64676e-08 
1.29588 -3.25026 -1.04519e-09 
1.546 -3.33121 3.76383e-10 
1.83788 -3.34001 1.50366e-10 
2.10139 -3.36038 -2.00518e-10 
2.38685 -3.43194 -5.82321e-10 
2.68425 -3.40666 -9.12028e-10 
2.98113 -3.39337 -6.47488e-10 
3.2761 -3.34889 -6.41064e-10 
3.57773 -3.34747 -4.95753e-10 
3.87769 -3.37973 -3.80873e-10 
4.18008 -3.34958 -3.00111e-10 
4.48133 -3.32628 -2.28522e-10 
4.77967 -3.34818 -1.74083e-10 
5.08122 -3.34765 -1.30964e-10 
5.39093 -3.35556 -9.45356e-11 
5.69972 -3.33074 -6.77612e-11 
6.00501 -3.33473 -4.93175e-11 
6.30757 -3.30629 -3.3276e-11 
6.60866 -3.34321 -2.1624e-11 
6.90935 -3.31289 -1.24547e-11 
7.21191 -3.33848 -4.90667e-12 
7.51613 -3.34107 3.31149e-12 
7.82095 -3.33626 1.30517e-11 
8.12657 -3.32452 2.32972e-11 
8.42652 -3.31809 3.39853e-11 
8.75157 -3.3202 5.43555e-11 
9.07522 -3.39012 6.15309e-11 
9.3881 -3.34621 8.60842e-11 
9.70108 -3.2995 1.18348e-10 
10.014 -3.38856 1.33679e-10 
10.3149 -3.31045 2.02597e-10 
10.639 -3.40455 1.9923e-10 
10.9691 -3.34004 2.30868e-10 
11.2971 -3.26327 1.09587e-10 
11.6336 -3.37556 7.14051e-11 
12 -3.31505 9.98108e-11 
-12 -3.00319 -2.51257e-11 
-11.6567 -3.05504 -2.04469e-11 
-11.3147 -2.96373 6.56196e-11 
-10.9662 -2.98782 -3.77729e-11 
-10.6286 -2.97484 -6.03589e-11 
-10.2964 -3.01503 -6.71471e-11 
-9.97004 -2.9902 -5.1426e-11 
-9.65016 -3.00175 -2.77357e-11 
-9.34999 -3.02751 -2.55338e-11 
-9.04459 -2.99255 -1.85686e-11 
-8.73565 -2.98885 -1.27427e-11 
-8.43136 -3.00281 -1.36167e-11 
-8.12435 -3.00696 -9.58613e-12 
-7.82382 -3.00258 -5.10226e-12 
-7.52139 -2.98029 -9.10845e-13 
-7.22039 -2.99288 1.82196e-12 
-6.92024 -3.02279 6.82944e-12 
-6.61188 -3.01587 9.18956e-12 
-6.30368 -3.02326 1.28065e-11 
-5.99606 -3.01603 1.92596e-11 
-5.68907 -3.00905 2.65777e-11 
-5.38836 -2.99979 3.20172e-11 
-5.08726 -2.98567 3.82315e-11 
-4.79018 -3.04924 7.14305e-11 
-4.4936 -3.01928 7.47599e-11 
-4.19793 -3.01838 8.41025e-11 
-3.90127 -3.06932 1.65031e-10 
-3.59697 -3.07651 1.91308e-10 
-3.28539 -3.06261 3.09793e-10 
-2.95804 -3.06585 3.16542e-10 
-2.65572 -2.9345 1.11559e-10 
-2.38016 -2.99208 3.27598e-12 
-2.10425 -3.03336 2.66511e-10 
-1.81627 -3.03248 -6.08989e-10 
-1.53808 -2.96614 -1.58589e-09 
-1.25379 -2.88974 -2.41657e-09 
-0.912492 -2.80672 -6.2943e-09 
-0.576962 -2.65796 -4.19095e-08 
-0.249308 -2.78402 9.91578e-08 
0.0389931 -2.37643 5.93293e-09 
0.303171 -2.59604 1.69296e-08 
0.587243 -2.6627 -3.86089e-09 
0.916768 -2.65426 3.04901e-09 
1.25276 -2.86618 -1.30607e-10 
1.55939 -2.92095 1.72446e-10 
1.80819 -3.00987 4.79922e-11 
2.10267 -3.00151 1.18835e-11 
2.3699 -3.13304 -4.25149e-10 
2.65389 -3.08501 -2.35087e-10 
2.9435 -3.07561 -3.47123e-10 
3.24203 -3.02778 -1.77559e-10 
3.55134 -3.02934 -1.88969e-10 
3.86812 -3.05436 -1.68563e-10 
4.17125 -3.02384 -1.05859e-10 
4.47656 -3.003 -6.7938e-11 
4.78271 -3.01732 -5.85415e-11 
5.07986 -3.0133 -4.78485e-11 
5.37823 -3.03143 -3.88002e-11 
5.68126 -3.00119 -2.4155e-11 
5.98783 -3.00377 -1.73552e-11 
6.29616 -2.97779 -1.18931e-11 
6.60316 -3.00828 -8.03933e-12 
6.9191 -2.99328 -4.26408e-12 
7.23212 -3.00899 -2.00412e-12 
7.53274 -3.00905 1.37966e-12 
7.83764 -3.00584 5.08711e-12 
8.13205 -2.98501 8.21676e-12 
8.44885 -3.0018 1.2939e-11 
8.74326 -2.97315 1.26217e-11 
9.04602 -3.06192 2.73785e-11 
9.35511 -3.0143 1.81619e-11 
9.65953 -2.95878 1.31175e-11 
9.98773 -3.0365 5.70015e-11 
10.3245 -2.98399 5.73597e-11 
10.6564 -3.06972 1.15877e-10 
10.9881 -3.00048 3.29273e-11 
11.3368 -2.94081 -8.84996e-11 
11.6652 -3.0613 2.36722e-11 
12 -2.98361 3.52985e-11 
-12 -2.67918 -6.50068e-12 
-11.6595 -2.72976 1.19649e-11 
-11.3278 -2.63353 1.48216e-10 
-10.9895 -2.66395 4.4031e-11 
-10.6491 -2.6472 2.38064e-12 
-10.3107 -2.68193 -1.16193e-11 
-9.97716 -2.66663 -4.19691e-12 
-9.64348 -2.66941 9.84307e-12 
-9.32264 -2.67925 7.85585e-12 
-9.00518 -2.65816 2.3439e-12 
-8.69308 -2.65282 -1.19034e-12 
-8.38027 -2.67491 -2.93307e-12 
-8.07455 -2.66962 -2.28561e-12 
-7.76816 -2.66803 -1.36097e-12 
-7.45499 -2.65135 -1.15425e-13 
-7.1461 -2.66779 -1.94106e-13 
-6.84484 -2.69603 1.60009e-12 
-6.5321 -2.68932 9.6904e-13 
-6.22783 -2.69143 2.27595e-12 
-5.92105 -2.68505 4.18627e-12 
[...]
POINT_DATA 1978 
VECTORS vectors float
0.00223785 -0.0027131 0.999995 
0.00170611 -0.0266322 0.999645 
0.0010494 -0.028607 0.99959 
0.00106001 -0.0219446 0.999759 
0.00104973 -0.0169499 0.999856 
0.00108184 -0.0133604 0.99991 
0.00133178 -0.010733 0.999942 
0.00115266 -0.00822776 0.999966 
0.00117649 -0.00601877 0.999981 
0.00146237 -0.0042649 0.99999 
0.00156031 -0.0029226 0.999995 
0.00153825 -0.00189494 0.999998 
0.0016726 -0.00117993 0.999999 
0.00194823 -0.000645649 0.999999 
0.00208912 -0.000221163 0.999999 
0.00185208 0.00025095 0.999999 
0.00179289 0.000704188 0.999999 
0.00178647 0.00126331 0.999998 
0.00160039 0.0021122 0.999997 
0.00157286 0.00316426 0.999994 
0.00159724 0.00452899 0.999989 
0.00169732 0.0062887 0.99998 
0.00183633 0.00863587 0.999962 
0.0015301 0.0115408 0.999933 
0.00153936 0.0160583 0.999871 
0.00183056 0.0217329 0.999763 
0.00157073 0.0292536 0.999571 
0.00143148 0.0405806 0.999176 
0.00153528 0.0555074 0.998458 
0.00141367 0.075554 0.997141 
0.00145194 0.104671 0.994506 
0.00135872 0.135978 0.990711 
0.000802325 0.181527 0.983386 
0.000207375 0.244287 0.969703 
-0.000495082 0.322989 0.946403 
-0.00118361 0.418556 0.90819 
-0.00174879 0.543046 0.839702 
-0.00222943 0.685748 0.727837 
-0.000879339 0.846422 0.532511 
2.03576e-06 0.999208 0.039773 
0.000647875 0.879923 -0.475115 
0.00209218 0.701017 -0.713142 
0.0020329 0.568321 -0.822805 
0.00130902 0.434245 -0.900794 
0.000516577 0.334586 -0.942365 
-0.000184158 0.255383 -0.96684 
-0.000678284 0.194598 -0.980883 
-0.000923309 0.146482 -0.989213 
-0.00105239 0.103546 -0.994625 
-0.00127643 0.0751434 -0.997172 
-0.00149707 0.0537314 -0.998555 
-0.00169403 0.0396398 -0.999213 
-0.00149952 0.0291604 -0.999574 
-0.0015171 0.0211067 -0.999777 
-0.00175587 0.0154867 -0.999879 
-0.00166401 0.0114865 -0.999933 
-0.00152982 0.00841872 -0.999964 
-0.00152395 0.00614068 -0.999981 
-0.00164606 0.0043608 -0.99999 
-0.00183054 0.00305031 -0.999995 
-0.00194434 0.00203853 -0.999997 
-0.00189099 0.00132235 -0.999998 
-0.00194878 0.000692083 -0.999999 
-0.00199878 0.000188001 -0.999999 
-0.00183727 -0.000228173 -0.999999 
-0.00179453 -0.000666454 -0.999999 
-0.00183954 -0.001194 -0.999998 
-0.00186949 -0.00183135 -0.999998 
-0.00200482 -0.00281976 -0.999995 
-0.00146557 -0.00401787 -0.999991 
-0.00106879 -0.00575952 -0.999983 
-0.00155809 -0.00794535 -0.999968 
-0.00118286 -0.0101393 -0.999948 
-0.00103544 -0.0131768 -0.999913 
-0.000767744 -0.0163228 -0.999866 
-0.000777267 -0.0220882 -0.999755 
-0.0013845 -0.0283547 -0.999597 
-0.0015422 -0.0270069 -0.999635 
-0.00217203 -0.00269448 -0.999995 
0.00303862 0.000944396 0.999995 
0.00893077 -0.0187138 0.999785 
0.0122411 -0.0244641 0.999626 
0.0120902 -0.0230393 0.999662 
0.012804 -0.0180062 0.999756 
0.0126703 -0.0141505 0.99982 
0.0134043 -0.0110167 0.99985 
0.0132409 -0.00862625 0.999875 
0.0132698 -0.00651455 0.999891 
0.0136296 -0.00463417 0.999897 
0.0142834 -0.0032549 0.999893 
0.0144016 -0.0021817 0.999894 
0.0145116 -0.0013715 0.999894 
0.014863 -0.000731966 0.999889 
0.0152859 -0.00022278 0.999883 
0.0150192 0.000220527 0.999887 
0.0144589 0.000718687 0.999895 
0.01454 0.00139455 0.999893 
0.0143752 0.00224502 0.999894 
0.0143734 0.00334226 0.999891 
0.0144473 0.00478526 0.999884 
0.0144677 0.00664474 0.999873 
0.0143507 0.00899396 0.999857 
0.0131311 0.0124483 0.999836 
0.0135425 0.0170902 0.999762 
0.0130499 0.0231889 0.999646 
0.0115672 0.0321161 0.999417 
0.0111174 0.0448246 0.998933 
0.0100087 0.0619776 0.998028 
0.00848933 0.0859092 0.996267 
0.00750076 0.114756 0.993366 
0.00468181 0.152991 0.988217 
0.00157863 0.2068 0.978382 
-0.0012984 0.276303 0.96107 
-0.00410944 0.363191 0.931706 
-0.00648698 0.47633 0.879243 
-0.00778252 0.612342 0.790555 
-0.00691601 0.765993 0.642812 
-0.00339714 0.931752 0.363078 
0.000377862 0.999993 -0.00316554 
0.00397216 0.933607 -0.358275 
0.00728287 0.756064 -0.654457 
0.00809502 0.594007 -0.804419 
0.00604171 0.468205 -0.883599 
0.00352819 0.352575 -0.935777 
0.000888206 0.267571 -0.963538 
-0.00175865 0.200379 -0.979717 
-0.00462301 0.142687 -0.989757 
-0.00715904 0.103581 -0.994595 
-0.00902511 0.0746653 -0.997168 
-0.0108602 0.0544223 -0.998459 
-0.0116249 0.0397631 -0.999142 
-0.0121765 0.0286499 -0.999515 
-0.0132744 0.0209875 -0.999692 
-0.0137945 0.0155199 -0.999785 
-0.0136977 0.0113503 -0.999842 
-0.0139565 0.00827569 -0.999868 
-0.0141166 0.00595756 -0.999883 
-0.0147245 0.00427744 -0.999883 
-0.0149668 0.00299094 -0.999884 
-0.0151955 0.00205502 -0.999883 
-0.0147904 0.00125131 -0.99989 
-0.0155478 0.000648817 -0.999879 
-0.0149994 0.000155541 -0.999888 
-0.014911 -0.000324503 -0.999889 
-0.0150216 -0.000839669 -0.999887 
-0.0151758 -0.00144803 -0.999884 
-0.0150893 -0.00223709 -0.999884 
-0.0153007 -0.00321896 -0.999878 
-0.0132598 -0.00463018 -0.999901 
-0.0134975 -0.00651852 -0.999888 
-0.0141136 -0.0083794 -0.999866 
-0.0123953 -0.0108632 -0.999864 
-0.0130573 -0.0138106 -0.99982 
-0.0114659 -0.0182055 -0.999769 
-0.012684 -0.0231185 -0.999652 
-0.0123417 -0.024552 -0.999623 
-0.00876465 -0.0187548 -0.999785 
-0.00294723 0.000854253 -0.999995 
0.00339642 9.08086e-05 0.999994 
0.0127217 -0.0189683 0.999739 
0.0169677 -0.0248456 0.999548 
0.0179037 -0.021924 0.9996 
0.0186565 -0.0172825 0.999677 
0.0187808 -0.0136041 0.999731 
0.0193204 -0.0106073 0.999757 
0.019619 -0.00849251 0.999772 
0.0195142 -0.00663659 0.999788 
0.0201932 -0.0050302 0.999784 
0.0204943 -0.00357748 0.999784 
0.0205472 -0.00242188 0.999786 
0.0206189 -0.00155541 0.999786 
0.0206435 -0.00088448 0.999787 
0.0208283 -0.00031196 0.999783 
0.0207858 0.000206282 0.999784 
0.0206506 0.000743315 0.999787 
0.0207693 0.00141366 0.999784 
0.0206031 0.00224953 0.999785 
0.020414 0.00333408 0.999786 
0.0202723 0.00473487 0.999784 
0.0200974 0.0065727 0.999777 
0.0199339 0.00898551 0.999761 
0.019316 0.0121525 0.99974 
0.0191366 0.0165315 0.99968 
0.0184307 0.0224219 0.999579 
0.0173362 0.0306568 0.99938 
0.0162328 0.0424818 0.998966 
0.0145022 0.0598157 0.998104 
0.0122389 0.0827167 0.996498 
0.0096011 0.114852 0.993337 
0.00629603 0.157011 0.987577 
0.00259666 0.208935 0.977926 
-0.00147475 0.278636 0.960396 
-0.00537311 0.373698 0.927535 
-0.00785771 0.48747 0.873105 
-0.00838099 0.62364 0.781667 
-0.00687098 0.790598 0.612296 
-0.00385531 0.936975 0.349374 
0.00182886 0.998839 -0.0481054 
0.00575162 0.923233 -0.384196 
0.00811381 0.774919 -0.632008 
0.00880121 0.62529 -0.780342 
0.00798897 0.474609 -0.880161 
0.00547916 0.371599 -0.928377 
0.00161863 0.28029 -0.959914 
-0.00221425 0.214025 -0.976826 
-0.00649907 0.155781 -0.987771 
-0.00990414 0.113004 -0.993546 
-0.012413 0.08201 -0.996554 
-0.0145797 0.0601008 -0.998086 
-0.0160651 0.0434004 -0.998929 
-0.0171575 0.0316261 -0.999353 
-0.018184 0.0231378 -0.999567 
-0.0188931 0.0169574 -0.999678 
-0.0194247 0.0125131 -0.999733 
-0.0197217 0.00914688 -0.999764 
-0.0200504 0.00667194 -0.999777 
-0.0203009 0.00479502 -0.999783 
-0.0205847 0.0034006 -0.999783 
-0.020583 0.00232891 -0.999786 
-0.0206364 0.00149297 -0.999786 
-0.0208866 0.00082679 -0.999782 
-0.0209737 0.000248903 -0.99978 
-0.0209112 -0.000277864 -0.999782 
-0.0208856 -0.000820712 -0.999782 
-0.0207867 -0.00146884 -0.999783 
-0.020561 -0.00229031 -0.999786 
-0.0206159 -0.00347449 -0.999782 
-0.0196732 -0.0049232 -0.999795 
-0.0198107 -0.0066185 -0.999782 
-0.0197708 -0.00842105 -0.999769 
-0.0187748 -0.0105612 -0.999768 
-0.0192999 -0.0132545 -0.999726 
-0.0179763 -0.0171245 -0.999692 
-0.0180451 -0.0218862 -0.999598 
-0.0168442 -0.0249068 -0.999548 
-0.0125323 -0.0187654 -0.999746 
-0.00320389 3.3124e-05 -0.999995 
0.00218405 -6.22482e-05 0.999998 
0.0115161 -0.0180563 0.999771 
0.0143695 -0.0251318 0.999581 
0.0156231 -0.0217484 0.999642 
0.0162107 -0.017052 0.999723 
0.0167602 -0.0129424 0.999776 
0.0167823 -0.0100764 0.999809 
0.0172467 -0.0082087 0.999818 
0.0179122 -0.00660362 0.999818 
0.0177527 -0.00501273 0.99983 
0.0177897 -0.00357914 0.999836 
0.0182062 -0.00242738 0.999832 
0.0183732 -0.00153564 0.99983 
0.0183305 -0.000850023 0.999832 
0.018037 -0.000261814 0.999838 
0.0182333 0.000299341 0.999834 
0.0186567 0.000879894 0.999826 
0.0184666 0.00160549 0.999828 
0.0184137 0.00249622 0.999828 
0.0182539 0.0036214 0.999827 
0.017993 0.00507245 0.999826 
0.0176158 0.00697592 0.999821 
0.0172085 0.00955702 0.999806 
0.017413 0.0127811 0.999767 
0.0165286 0.0173986 0.999712 
0.0158035 0.023666 0.999595 
0.0154736 0.0318973 0.999372 
0.0142984 0.0438734 0.998935 
0.0126928 0.0609396 0.998061 
0.010331 0.0866956 0.996182 
0.00699929 0.123036 0.992378 
0.00473409 0.164232 0.986411 
0.0020061 0.219203 0.975677 
-0.00138185 0.294178 0.95575 
-0.00379013 0.385635 0.922644 
-0.00486025 0.495596 0.86854 
-0.00467928 0.646511 0.76289 
-0.00321802 0.819672 0.572823 
-0.00150976 0.957737 0.287637 
0.00131732 0.999979 -0.00605893 
0.00311074 0.944338 -0.328958 
0.00449503 0.816998 -0.576622 
0.00471487 0.663067 -0.748545 
0.00570106 0.503037 -0.864246 
0.00373205 0.376313 -0.926485 
0.00155209 0.294454 -0.955665 
-0.00176224 0.220522 -0.975381 
-0.00546951 0.165261 -0.986235 
-0.00819699 0.122397 -0.992448 
-0.0103148 0.0885083 -0.996022 
-0.0118019 0.0648369 -0.997826 
-0.0134352 0.0463173 -0.998837 
-0.0150035 0.0330506 -0.999341 
-0.0156809 0.0243071 -0.999582 
-0.0162065 0.0178703 -0.999709 
-0.0168954 0.0129721 -0.999773 
-0.0174661 0.00962308 -0.999801 
-0.0179223 0.00702616 -0.999815 
-0.0178909 0.00515458 -0.999827 
-0.0180018 0.00365445 -0.999832 
-0.017984 0.00254829 -0.999835 
-0.0183179 0.0016402 -0.999831 
-0.0183477 0.000904725 -0.999831 
-0.0184755 0.000262248 -0.99983 
-0.0185393 -0.000299737 -0.999828 
-0.0184992 -0.000895104 -0.999829 
-0.0181457 -0.001574 -0.999834 
-0.0181493 -0.00248863 -0.999832 
-0.0176943 -0.00362965 -0.999837 
-0.0185544 -0.00499678 -0.999816 
-0.0176117 -0.00665538 -0.999823 
-0.0166213 -0.00834676 -0.999827 
-0.0172545 -0.0103099 -0.999798 
-0.0165373 -0.0132735 -0.999775 
-0.0172987 -0.0174126 -0.999699 
-0.015914 -0.0223068 -0.999625 
-0.0139525 -0.0251479 -0.999587 
-0.0113974 -0.0177505 -0.999778 
-0.00207384 0.000257698 -0.999999 
0.00114851 -0.000106935 1 
0.00861657 -0.0177319 0.999806 
0.0107893 -0.0260587 0.999602 
0.0119455 -0.0226032 0.999673 
0.0121227 -0.0173123 0.999777 
0.0127389 -0.0130722 0.999834 
0.012845 -0.0102692 0.999865 
0.0131734 -0.00839932 0.999878 
0.013623 -0.00669349 0.999885 
0.0137211 -0.00504593 0.999893 
0.0138355 -0.00356957 0.999898 
0.0143063 -0.00238073 0.999895 
0.014345 -0.00148515 0.999896 
0.0143984 -0.000767855 0.999896 
0.014206 -0.000122871 0.999899 
0.0144159 0.000512375 0.999896 
0.0147577 0.00116355 0.999891 
0.0145519 0.00198488 0.999892 
0.0145189 0.00295756 0.999891 
0.0143577 0.00419519 0.999888 
0.0140752 0.00578815 0.999884 
0.0137092 0.00787046 0.999875 
0.0133713 0.0107664 0.999853 
0.0133599 0.0142235 0.99981 
0.012526 0.0192735 0.999736 
0.0119157 0.026242 0.999585 
0.01152 0.0355293 0.999303 
0.0103157 0.0487191 0.99876 
0.00901189 0.0689814 0.997578 
0.00696387 0.0964246 0.995316 
0.00420856 0.140431 0.990082 
0.00277922 0.184458 0.982837 
0.00101464 0.240715 0.970596 
-0.000788391 0.315458 0.94894 
-0.00181634 0.411948 0.911206 
-0.00235004 0.551408 0.834233 
-0.00149349 0.721933 0.691961 
0.000477801 0.823364 0.567513 
0.000124392 0.927815 0.373037 
0.00111039 0.995753 0.0920392 
0.00110317 0.95405 -0.299642 
0.00171493 0.835636 -0.54928 
0.00201301 0.698058 -0.716038 
0.00308778 0.528617 -0.848855 
0.00220758 0.391323 -0.920251 
0.000293236 0.287811 -0.957687 
-0.00141397 0.225336 -0.97428 
-0.00406717 0.164893 -0.986303 
-0.00572834 0.122152 -0.992495 
-0.0074119 0.089549 -0.995955 
-0.00879608 0.0634374 -0.997947 
-0.010369 0.0445933 -0.998952 
-0.0114284 0.032596 -0.999404 
-0.0120279 0.0238761 -0.999643 
-0.0125649 0.0174612 -0.999769 
-0.013136 0.0129345 -0.99983 
-0.0135721 0.00956905 -0.999862 
-0.0140221 0.00710028 -0.999877 
-0.0140543 0.00518385 -0.999888 
-0.0142593 0.00371324 -0.999892 
-0.0141319 0.00258296 -0.999897 
-0.0146321 0.00164545 -0.999892 
-0.0145111 0.000875879 -0.999895 
-0.0145315 0.000243975 -0.999895 
-0.0145855 -0.000369257 -0.999894 
-0.0143499 -0.000993281 -0.999897 
-0.0143535 -0.0017722 -0.999896 
-0.0141127 -0.00270039 -0.999897 
-0.0134877 -0.00387778 -0.999902 
-0.0144021 -0.005213 -0.999883 
-0.0134884 -0.00684855 -0.999886 
-0.0127785 -0.00861929 -0.999881 
-0.0132965 -0.0104138 -0.999858 
-0.0123799 -0.0132832 -0.999835 
-0.0131449 -0.0175762 -0.999759 
-0.0120379 -0.0228201 -0.999667 
-0.0104483 -0.0253929 -0.999623 
-0.00833852 -0.0172932 -0.999816 
-0.00142781 0.000124293 -1 
0.00110501 -0.000276899 1 
0.00549137 -0.0161054 0.999855 
0.00780531 -0.0247008 0.999665 
0.00872471 -0.0239926 0.999674 
0.00893731 -0.0187939 0.999784 
0.00938575 -0.0142437 0.999855 
0.00966474 -0.0112238 0.999891 
0.0100392 -0.00926773 0.999907 
0.0103862 -0.00758572 0.999918 
0.0106413 -0.00589325 0.999926 
0.010802 -0.00425752 0.999933 
0.0111333 -0.00287878 0.999934 
0.0112526 -0.00187737 0.999935 
0.0113374 -0.00107464 0.999935 
0.0113693 -0.000397161 0.999936 
0.0114211 0.000293514 0.999935 
0.0115106 0.000992335 0.999934 
0.0116551 0.00173839 0.999931 
0.0115111 0.00268992 0.99993 
0.0114456 0.00381368 0.999927 
0.0112517 0.00524792 0.999923 
0.0109772 0.00708231 0.999915 
0.0107702 0.0095287 0.999897 
0.0103168 0.0127771 0.999865 
0.0100725 0.016747 0.999809 
0.00945236 0.0227017 0.999698 
0.0088852 0.0309695 0.999481 
0.00812423 0.0416905 0.999098 
0.00725054 0.0583449 0.99827 
0.00582645 0.0808846 0.996707 
0.0042845 0.113932 0.99348 
0.00239522 0.162755 0.986664 
0.00154796 0.213552 0.976931 
0.0004912 0.277493 0.960728 
-0.000408415 0.365328 0.930879 
-0.000976183 0.498702 0.866773 
-0.000428516 0.627612 0.778526 
0.000609165 0.768049 0.64039 
0.00137717 0.954271 0.298938 
0.000390276 0.999083 -0.0427789 
0.000263085 0.948587 -0.316514 
-0.00277805 0.902398 -0.430895 
1.83682e-05 0.79616 -0.605086 
0.00122956 0.562797 -0.826594 
0.00112039 0.427255 -0.904131 
0.000207474 0.316635 -0.948548 
-0.000947591 0.23656 -0.971617 
-0.00242844 0.179947 -0.983674 
-0.0036419 0.135152 -0.990819 
-0.00492446 0.0969933 -0.995273 
-0.00621732 0.0701873 -0.997515 
-0.00759285 0.0488359 -0.998778 
-0.00844022 0.0349233 -0.999355 
-0.00911654 0.0257485 -0.999627 
-0.00969468 0.0189374 -0.999774 
-0.010135 0.0139836 -0.999851 
-0.0105653 0.0104505 -0.99989 
-0.0109098 0.00779444 -0.99991 
-0.0111725 0.0058347 -0.999921 
-0.011344 0.00422716 -0.999927 
-0.0113166 0.00301367 -0.999932 
-0.0115949 0.00194354 -0.999931 
-0.0116493 0.00112407 -0.999932 
-0.0114835 0.000389508 -0.999934 
-0.0115809 -0.000265647 -0.999933 
-0.0112732 -0.000942494 -0.999936 
-0.0113654 -0.0016894 -0.999934 
-0.0109495 -0.00265639 -0.999937 
-0.0105944 -0.00388689 -0.999937 
-0.0110062 -0.00544045 -0.999925 
-0.0105295 -0.00728628 -0.999918 
-0.00980114 -0.00899814 -0.999912 
-0.0101256 -0.010645 -0.999892 
-0.00938368 -0.0135003 -0.999865 
-0.00983351 -0.0177098 -0.999795 
-0.00904352 -0.0230768 -0.999693 
-0.00781491 -0.0258144 -0.999637 
-0.00636807 -0.0183555 -0.999811 
-0.00107637 2.94568e-05 -1 
0.000933978 -0.000280349 1 
0.00460051 -0.0183366 0.999821 
0.00627794 -0.0262346 0.999636 
0.0065792 -0.0225402 0.999725 
0.00698293 -0.0172843 0.999827 
0.00731378 -0.0134501 0.999883 
0.00773895 -0.0108142 0.999912 
0.0081469 -0.00906084 0.999926 
0.00841741 -0.00737258 0.999938 
0.00872901 -0.00556511 0.999947 
0.00901755 -0.00386632 0.999952 
0.00916199 -0.00262505 0.999955 
0.00934765 -0.00165214 0.999955 
0.00940782 -0.000878913 0.999956 
0.00955249 -0.000151423 0.999955 
0.00953626 0.000584373 0.999955 
0.00956043 0.00136173 0.999954 
0.00967752 0.00223117 0.999951 
0.00952483 0.00332606 0.999949 
0.00945236 0.0046152 0.999945 
0.00924527 0.00626836 0.999938 
0.00906126 0.00842796 0.999924 
0.00876685 0.011207 0.999899 
0.00832322 0.014935 0.999854 
0.00804273 0.0197619 0.999773 
0.00746129 0.0272132 0.999602 
0.00670139 0.0369764 0.999294 
0.0060215 0.0514688 0.998657 
0.00492702 0.0713992 0.997436 
0.00373841 0.101436 0.994835 
0.00245463 0.140282 0.990109 
0.0010387 0.228422 0.973562 
0.000348057 0.307581 0.951522 
-0.000253011 0.421644 0.906762 
-6.98238e-05 0.567169 0.823602 
0.000366168 0.706528 0.707684 
0.0020429 0.835592 0.549346 
0.00308697 0.928635 0.370974 
0.000921484 0.916025 0.401121 
-0.00165814 0.998055 0.0622968 
-0.00670997 0.957919 -0.286958 
-0.00636804 0.838019 -0.545601 
-0.00129954 0.767594 -0.640935 
0.000389966 0.660464 -0.750857 
0.000280343 0.488433 -0.872602 
5.4897e-05 0.362414 -0.932017 
-0.000560847 0.271673 -0.96239 
-0.00165459 0.183368 -0.983043 
-0.00282331 0.130409 -0.991457 
-0.00378463 0.0941298 -0.995553 
-0.00513192 0.0655477 -0.997837 
-0.0061619 0.0462928 -0.998909 
-0.00681639 0.0336009 -0.999412 
-0.00750513 0.0246205 -0.999669 
-0.00802663 0.018244 -0.999802 
-0.00838428 0.0136729 -0.999872 
-0.00877181 0.0102876 -0.999909 
-0.00900445 0.00782221 -0.999929 
-0.0093605 0.00579167 -0.99994 
-0.00942322 0.00427831 -0.999947 
-0.00960913 0.00293574 -0.99995 
-0.00964851 0.00193147 -0.999952 
-0.00974401 0.00105772 -0.999952 
-0.00954667 0.000287184 -0.999955 
-0.00957412 -0.000407498 -0.999954 
-0.009346 -0.00114992 -0.999956 
-0.00934975 -0.00194136 -0.999955 
-0.00893208 -0.00292593 -0.999956 
-0.00873159 -0.00431134 -0.999953 
-0.00898559 -0.00577621 -0.999943 
-0.008477 -0.0075505 -0.999936 
-0.00793555 -0.00942811 -0.999924 
-0.00791497 -0.0112071 -0.999906 
-0.00726551 -0.0141624 -0.999874 
-0.00744199 -0.0182714 -0.999806 
-0.00666966 -0.0232009 -0.999709 
-0.00581947 -0.0258091 -0.99965 
-0.00470897 -0.0180728 -0.999826 
-0.000860427 0.000281182 -1 
0.000647291 0.000289281 1 
0.00341366 -0.0177247 0.999837 
0.00475639 -0.0260223 0.99965 
0.0050892 -0.0234418 0.999713 
0.00557425 -0.0185457 0.999813 
0.00586866 -0.0143934 0.999879 
0.00628429 -0.0116446 0.999913 
0.00666466 -0.00979747 0.99993 
0.00688704 -0.0080354 0.999944 
0.00714963 -0.00613517 0.999956 
0.00748619 -0.00439539 0.999963 
0.00751891 -0.00300121 0.999968 
0.00773472 -0.00195868 0.999968 
0.00780898 -0.00113282 0.999969 
0.00799079 -0.000372744 0.999968 
0.00800567 0.00038723 0.999968 
0.0079614 0.00123712 0.999968 
0.00805626 0.00218142 0.999965 
0.00802286 0.00325071 0.999963 
0.00789056 0.00460356 0.999959 
0.00776194 0.00618774 0.999951 
0.00762096 0.0082596 0.999937 
0.00733408 0.0109454 0.999913 
0.0069501 0.0144707 0.999871 
0.00662882 0.0192979 0.999792 
0.00638117 0.0258793 0.999645 
0.00557345 0.0353847 0.999359 
0.00511892 0.0488805 0.998792 
0.00416607 0.0672964 0.997725 
0.00325439 0.0935729 0.995608 
0.00212319 0.137628 0.990482 
0.00126423 0.199374 0.979923 
0.00041976 0.306369 0.951913 
6.86838e-05 0.416457 0.909156 
0.000119781 0.544612 0.838688 
0.00115505 0.706277 0.707935 
0.00321493 0.841279 0.540583 
0.00376179 0.993254 0.115909 
0.00196371 0.99644 0.0842849 
0.000677256 0.998936 0.0460905 
-0.0041166 0.999341 -0.0360271 
-0.00652806 0.997233 -0.0740621 
-0.00498734 0.744156 -0.667987 
-0.00158767 0.652681 -0.757631 
-0.000279241 0.586983 -0.8096 
-8.06543e-05 0.42542 -0.904996 
-0.000318443 0.313202 -0.949687 
-0.00113009 0.205793 -0.978595 
-0.00197331 0.146138 -0.989263 
-0.00278063 0.103624 -0.994613 
-0.00392232 0.0716356 -0.997423 
-0.00485136 0.0509482 -0.99869 
-0.00545285 0.0367056 -0.999312 
-0.00608026 0.0265626 -0.999629 
-0.00655262 0.0197396 -0.999784 
-0.00688091 0.0149364 -0.999865 
-0.00720805 0.0112506 -0.999911 
-0.00735676 0.00857423 -0.999936 
-0.00780162 0.00652208 -0.999949 
-0.00781641 0.00486167 -0.999958 
-0.00815802 0.00346653 -0.999961 
-0.00804692 0.00228604 -0.999965 
-0.00817619 0.00132213 -0.999966 
-0.0080212 0.000483502 -0.999968 
-0.00790553 -0.000324596 -0.999969 
-0.00778711 -0.00105827 -0.999969 
-0.00760687 -0.00192485 -0.99997 
-0.00742182 -0.00299127 -0.999968 
-0.00715347 -0.00435734 -0.999965 
-0.00729162 -0.00610944 -0.999955 
-0.00704252 -0.00812724 -0.999942 
-0.00648234 -0.00995888 -0.99993 