# vtk DataFile Version 3.0 
Exported using Morpho https://github.com/Morpho-lang/morpho 
ASCII 
DATASET UNSTRUCTURED_GRID 

POINTS 1978 float 
-8.4421 -2.76507 -0.000639544 
-8.21254 -2.79046 0.000715926 
-8.04217 -2.79893 -0.00467744 
-7.81276 -2.78181 -0.00623614 
-7.45334 -2.76348 -0.00125256 
-7.16333 -2.77262 -0.000954821 
-6.96889 -2.78851 -0.000482793 
-6.72399 -2.79219 -0.000196743 
-6.47908 -2.79349 -0.000221577 
-6.33495 -2.80458 0.000140188 
-6.18907 -2.79285 -0.00146502 
-5.96382 -2.78908 -0.000427522 
-5.73218 -2.78231 -0.00129296 
-5.52542 -2.78346 -0.000742631 
-5.30291 -2.78453 -0.000367053 
-5.09177 -2.78525 -0.00144046 
-4.86452 -2.78293 -0.000850675 
-4.65171 -2.77831 -0.000356388 
-4.42581 -2.7796 -0.000233658 
-4.18824 -2.78205 0.00028541 
-3.97623 -2.78851 0.000414878 
-3.77276 -2.79321 0.000381459 
-3.56667 -2.78962 -3.36996e-05 
-3.36224 -2.78571 0.000965542 
-3.12836 -2.78864 0.00182049 
-2.91913 -2.79935 0.0015725 
-2.70651 -2.80928 0.00100779 
-2.50394 -2.80997 0.00156668 
-2.28946 -2.80561 0.00234179 
-2.06148 -2.80011 0.00371937 
-1.8361 -2.80074 0.00568106 
-1.58424 -2.79598 0.00538636 
-1.34268 -2.80969 0.00557694 
-1.12337 -2.80831 0.00362611 
-0.966593 -2.7911 0.000936932 
-0.764192 -2.8101 0.000586328 
-0.659205 -2.80459 -0.0024763 
-0.498418 -2.8063 -0.00147112 
-0.243456 -2.78496 -0.000728396 
-0.00222942 -2.78557 -0.00196328 
0.22289 -2.7767 0.00228811 
0.474789 -2.80348 0.000929216 
0.681652 -2.7908 -0.000609542 
0.812887 -2.81204 -0.00150649 
1.02638 -2.80146 -0.0011434 
1.17326 -2.81312 -0.00263598 
1.32854 -2.80947 -0.00404454 
1.52217 -2.80854 -0.00573126 
1.75011 -2.79251 -0.00722093 
2.03774 -2.80072 -0.00433824 
2.296 -2.80726 -0.00259812 
2.49818 -2.80946 -0.0015536 
2.71172 -2.80621 -0.00130177 
2.93821 -2.80171 -0.00163074 
3.16159 -2.79406 -0.00101134 
3.362 -2.78657 -0.000676167 
3.58731 -2.78865 -0.000419377 
3.78248 -2.78791 -0.000408963 
4.00079 -2.78608 -0.000177695 
4.22449 -2.78323 0.000255262 
4.4291 -2.78162 3.29334e-05 
4.64404 -2.78125 0.000384882 
4.85461 -2.78488 0.000287047 
5.06859 -2.7864 0.000368104 
5.26629 -2.7873 0.00095614 
5.49136 -2.78655 0.000658349 
5.69176 -2.78653 0.000223353 
5.91736 -2.78869 0.000725723 
6.16115 -2.78712 0.000212183 
6.36243 -2.78878 0.000472668 
6.59064 -2.7924 0.000411214 
6.81405 -2.78874 0.00096936 
7.00306 -2.78379 0.000530532 
7.27314 -2.7786 0.00209767 
7.51821 -2.78784 0.00265579 
7.7421 -2.80439 0.000575725 
7.98104 -2.7999 -0.0001028 
8.14351 -2.78812 -0.00316315 
8.39929 -2.72485 -0.000239811 
-8.4465 -2.51321 -0.000900873 
-8.25143 -2.58164 0.00225195 
-8.02013 -2.51946 0.00165007 
-7.84513 -2.57249 -0.00238081 
-7.58714 -2.62402 -0.000835395 
-7.23997 -2.59392 -0.00175348 
-6.97775 -2.52639 -0.000554127 
-6.78373 -2.59036 -0.000320588 
-6.53895 -2.59963 -0.00052169 
-6.32199 -2.47917 -0.000683369 
-6.1229 -2.57841 0.00037882 
-5.89226 -2.57502 -0.00102237 
-5.67904 -2.54423 -0.00209939 
-5.46352 -2.56443 -0.000974684 
-5.25003 -2.55386 -0.000915176 
-5.02931 -2.57439 -0.000859256 
-4.82017 -2.5531 -0.00133973 
-4.59786 -2.56124 -0.000374605 
-4.36469 -2.57856 -0.000644998 
-4.14978 -2.56295 -0.00109792 
-3.94168 -2.56206 -0.00138225 
-3.73432 -2.56267 -0.00112074 
-3.52424 -2.5573 -0.000168506 
-3.29902 -2.58212 -0.000584299 
-3.08502 -2.56155 -0.000914528 
-2.86506 -2.58128 -0.000765348 
-2.64898 -2.57158 0.000462795 
-2.42656 -2.57736 0.000603525 
-2.1867 -2.56833 0.0011467 
-1.94634 -2.55075 0.00159477 
-1.70992 -2.57164 0.000754876 
-1.45258 -2.5716 -0.000801968 
-1.22152 -2.56742 -0.000855994 
-1.04996 -2.50271 -0.00066165 
-0.86662 -2.60152 -0.00116375 
-0.747074 -2.51029 -0.00383137 
-0.610012 -2.65392 -0.000557925 
-0.434665 -2.69801 -0.000908119 
-0.24214 -2.70452 -0.00161975 
-0.0349655 -2.69819 0.00201707 
0.186545 -2.69452 -0.00193205 
0.411369 -2.70895 0.0028633 
0.617911 -2.67471 0.00218181 
0.7999 -2.55917 0.00181367 
0.936573 -2.61215 0.00083796 
1.1175 -2.48722 0.00176963 
1.30301 -2.52361 0.000816484 
1.51974 -2.54001 0.000664398 
1.81339 -2.59034 -0.00274362 
2.0814 -2.58471 -0.000793521 
2.30448 -2.55537 -3.99646e-05 
2.53557 -2.58297 -9.22671e-05 
2.77548 -2.59331 0.00027942 
3.00859 -2.58434 0.00104538 
3.21787 -2.55148 0.000406301 
3.43881 -2.57408 0.000289664 
3.64263 -2.54496 0.000459126 
3.85594 -2.57324 0.00114195 
4.08016 -2.57892 0.00112143 
4.29015 -2.55131 0.00090858 
4.50017 -2.56014 0.00108073 
4.71458 -2.55245 0.00148965 
4.92509 -2.56191 0.00160941 
5.13458 -2.55466 0.000555893 
5.35136 -2.57952 0.000220697 
5.56382 -2.54417 0.00120619 
5.78074 -2.56531 0.00161064 
6.01564 -2.58312 0.000785806 
6.23506 -2.53817 0.000121217 
6.45809 -2.57374 0.00170526 
6.68862 -2.57037 0.00130597 
6.89637 -2.52133 0.000831294 
7.12062 -2.5965 0.000761408 
7.38831 -2.57218 -0.000263985 
7.62911 -2.56741 0.00101211 
7.86145 -2.59496 -0.00156431 
8.05053 -2.48564 0.00119425 
8.2467 -2.57364 0.00161684 
8.4327 -2.44038 0.00223679 
-8.44875 -2.34268 0.0038162 
-8.15568 -2.35298 0.000115899 
-7.91842 -2.27007 0.000823618 
-7.71922 -2.39539 -0.00229741 
-7.56811 -2.26661 0.000164952 
-7.4324 -2.45984 0.000632083 
-7.16593 -2.3781 -0.000499018 
-6.94621 -2.27811 -0.00107385 
-6.72796 -2.38781 -0.00012609 
-6.51371 -2.36319 -0.000231212 
-6.20458 -2.29372 0.000526991 
-6.01103 -2.35935 -8.39357e-05 
-5.79683 -2.33215 -0.00102862 
-5.56767 -2.32505 0.000404351 
-5.36015 -2.33251 0.00151244 
-5.13218 -2.34526 0.000761562 
-4.92665 -2.32984 0.000610224 
-4.70461 -2.33759 0.00086886 
-4.4761 -2.3624 0.000671838 
-4.26389 -2.34733 1.71571e-05 
-4.04967 -2.33361 -0.000153129 
-3.83903 -2.33025 0.00130063 
-3.63068 -2.33131 0.00159843 
-3.40789 -2.35363 0.00164721 
-3.19742 -2.34408 0.000950121 
-2.96799 -2.34828 0.000733341 
-2.75038 -2.3428 0.000676972 
-2.5144 -2.34303 0.000670561 
-2.27354 -2.34319 0.00127523 
-2.03311 -2.32327 0.0020873 
-1.79244 -2.3222 0.00262777 
-1.56376 -2.35902 0.00234465 
-1.33483 -2.34505 0.00163472 
-1.16369 -2.29561 0.00247231 
-0.94369 -2.36319 -0.00110799 
-0.765233 -2.36335 -0.00722433 
-0.552648 -2.52348 -0.00104536 
-0.367616 -2.60574 -0.0013666 
-0.149726 -2.60481 0.00240915 
0.0406661 -2.59454 4.31986e-05 
0.202951 -2.60348 -0.00157167 
0.384818 -2.5953 0.000513173 
0.572644 -2.56073 0.00270871 
0.760805 -2.43281 0.00330557 
0.971612 -2.37256 0.00257002 
1.14981 -2.25122 0.000826698 
1.32125 -2.27381 -0.00161784 
1.52064 -2.28501 -0.00289683 
1.73399 -2.38183 -0.00155791 
1.9997 -2.36824 -0.00192995 
2.23006 -2.31076 -0.00129679 
2.47328 -2.34064 -0.000496302 
2.70999 -2.37772 -0.000787359 
2.95163 -2.36736 -0.00138414 
3.17085 -2.31639 -0.000782792 
3.38988 -2.34498 -0.00103032 
3.59863 -2.31361 -0.00157746 
3.81218 -2.34367 -0.0014817 
4.02614 -2.36468 -0.000450149 
4.24304 -2.33238 -0.000239149 
4.46397 -2.32971 -0.000985062 
4.66853 -2.33047 -0.00115251 
4.88391 -2.32938 -0.000326085 
5.09184 -2.33261 -0.000157514 
5.31172 -2.3566 -0.000713303 
5.5213 -2.32297 -0.000826229 
5.74206 -2.33365 0.000653598 
5.96235 -2.35983 0.000877602 
6.17701 -2.3206 -0.000881231 
6.41109 -2.34119 -0.0017587 
6.6251 -2.35043 0.000138104 
6.8361 -2.2895 0.000810026 
7.07343 -2.35274 1.60794e-05 
7.28784 -2.38565 -0.00164654 
7.53982 -2.35029 0.00307585 
7.77879 -2.36735 0.00306055 
7.96784 -2.27373 0.000146625 
8.22482 -2.31795 -0.00109472 
8.4578 -2.22319 0.00100387 
-8.44025 -2.11997 0.00687487 
-8.22865 -2.17831 -0.000441962 
-8.05312 -2.06624 0.00447812 
-7.77677 -2.10744 -0.000829745 
-7.53141 -2.05058 -0.000509189 
-7.32549 -2.23114 0.00173608 
-7.10422 -2.11223 -0.000107932 
-6.79186 -2.117 0.00117055 
-6.59988 -2.13563 0.000836157 
-6.36948 -2.16669 0.000691762 
-6.11864 -2.06119 0.000529485 
-5.9276 -2.11124 0.000164559 
-5.69699 -2.11761 0.000381631 
-5.47309 -2.09078 0.000994256 
-5.25664 -2.12155 -5.73518e-05 
-5.04913 -2.09465 0.000392442 
-4.82716 -2.11056 -0.000137183 
-4.59629 -2.1335 0.000326086 
-4.3883 -2.12675 -0.000868744 
-4.17545 -2.11255 -0.000381489 
-3.95876 -2.09694 -0.000410372 
-3.74569 -2.09535 -0.000178837 
-3.52323 -2.11774 -7.57933e-05 
-3.31526 -2.11245 -0.000334349 
-3.09587 -2.12074 0.000346466 
-2.87392 -2.10169 -0.000225923 
-2.64006 -2.11517 -0.000186449 
-2.40064 -2.10929 0.000598353 
-2.16554 -2.10096 0.00153291 
-1.94094 -2.08911 0.00104912 
-1.72699 -2.1063 0.000258553 
-1.529 -2.14953 0.00015357 
-1.36813 -2.12015 -0.000528532 
-1.2228 -2.101 -0.00208897 
-1.02961 -2.19947 -0.00185698 
-0.857469 -2.21601 -0.00434986 
-0.6005 -2.38177 -0.00163219 
-0.367368 -2.51782 0.00144209 
-0.157996 -2.51054 0.0057971 
0.0743425 -2.51778 -0.0105732 
0.315479 -2.49375 0.00128193 
0.46335 -2.42027 -0.00219716 
0.573497 -2.43449 0.00201793 
0.736379 -2.30232 0.00354596 
0.913954 -2.24927 0.00414544 
1.15032 -2.13212 0.00256268 
1.4101 -2.0618 0.00129188 
1.62598 -2.11248 -0.000285301 
1.82323 -2.18426 -0.00151904 
2.01559 -2.1179 -0.00029061 
2.25949 -2.08695 -0.00106569 
2.49539 -2.11199 -0.000479602 
2.73379 -2.1541 -0.000472403 
2.95435 -2.12754 -3.20038e-05 
3.17567 -2.08421 0.000359507 
3.38435 -2.10383 2.50656e-05 
3.60025 -2.08017 4.61653e-05 
3.82078 -2.1176 0.000318282 
4.03517 -2.13454 0.000675496 
4.26384 -2.11207 0.000511974 
4.4688 -2.09026 0.000445159 
4.6854 -2.1058 -0.00058195 
4.89322 -2.09495 -0.000232591 
5.11515 -2.11653 0.000266276 
5.32395 -2.12527 2.63533e-06 
5.55002 -2.10421 -0.000580777 
5.77033 -2.11 -0.000165572 
5.98229 -2.11998 0.000223699 
6.23328 -2.11387 0.000346822 
6.44955 -2.11079 -0.0010677 
6.65233 -2.09944 -0.000506065 
6.91645 -2.09589 0.000853688 
7.12757 -2.12347 -0.000697851 
7.3506 -2.17319 -0.000841987 
7.52126 -2.06565 -0.00160181 
7.70127 -2.15054 0.00158386 
7.92037 -2.07123 -0.00191247 
8.17926 -2.12283 -0.000589856 
8.46275 -2.05862 -0.00236159 
-8.42345 -1.77356 0.00245178 
-8.28821 -1.93038 0.000660859 
-7.89536 -1.90439 -0.00278169 
-7.6611 -1.87153 -0.00116948 
-7.42965 -1.78096 0.00102956 
-7.31066 -1.9847 0.00143273 
-7.12562 -1.84006 0.000269921 
-6.92346 -1.94343 -0.000139064 
[...]
POINT_DATA 1978 
VECTORS vectors float
0.173538 -0.253881 0.947922 
0.162542 -0.216122 0.96384 
0.17365 -0.171807 0.970401 
0.189802 -0.12728 0.971794 
0.199501 -0.118638 0.970896 
0.216217 -0.129983 0.966291 
0.209012 -0.132714 0.967355 
0.200998 -0.118854 0.971515 
0.19126 -0.104577 0.97471 
0.195964 -0.0915903 0.97467 
0.198733 -0.0757658 0.975594 
0.203237 -0.070364 0.975487 
0.20401 -0.059764 0.975704 
0.205113 -0.0574249 0.975475 
0.209963 -0.0616794 0.974269 
0.216699 -0.0632493 0.972292 
0.21863 -0.0698046 0.971241 
0.216056 -0.0762665 0.971585 
0.214151 -0.0825272 0.971683 
0.213829 -0.0868681 0.971148 
0.211114 -0.0855008 0.972192 
0.206571 -0.0818572 0.973844 
0.200357 -0.0773747 0.976242 
0.191142 -0.0734214 0.978649 
0.179435 -0.0657699 0.981654 
0.166409 -0.0471566 0.985776 
0.155208 -0.0131149 0.989134 
0.145194 0.0263331 0.990923 
0.133819 0.0674835 0.990859 
0.122147 0.111657 0.988804 
0.106957 0.15864 0.984292 
0.0761179 0.228923 0.973051 
0.0445809 0.317787 0.949418 
0.0150197 0.428472 0.905313 
-0.0104053 0.526853 0.850459 
-0.0272795 0.662314 0.749002 
-0.0354319 0.730559 0.68293 
-0.036996 0.840679 0.54403 
-0.0217869 0.958655 0.284139 
-0.00102119 1.00225 -0.0002574 
0.0196204 0.962459 -0.271317 
0.0353669 0.846463 -0.534473 
0.0363413 0.714875 -0.699383 
0.0211014 0.62154 -0.783457 
0.00208232 0.489092 -0.873141 
-0.0191015 0.403549 -0.915599 
-0.0369182 0.325979 -0.947198 
-0.0678538 0.245946 -0.970466 
-0.0946237 0.178324 -0.982796 
-0.121001 0.119884 -0.988359 
-0.133768 0.069247 -0.990927 
-0.141988 0.0288121 -0.991378 
-0.155106 -0.0126754 -0.98926 
-0.168239 -0.0437743 -0.98545 
-0.180613 -0.0634975 -0.981822 
-0.1894 -0.0727313 -0.979203 
-0.200505 -0.0784735 -0.975817 
-0.209063 -0.0836715 -0.973108 
-0.215681 -0.0805671 -0.971554 
-0.215361 -0.0761587 -0.971777 
-0.211813 -0.075161 -0.972753 
-0.213505 -0.0740632 -0.972492 
-0.216221 -0.0748783 -0.971662 
-0.214409 -0.0704235 -0.972495 
-0.211527 -0.0646724 -0.973731 
-0.202037 -0.0618711 -0.975972 
-0.19885 -0.0677954 -0.976401 
-0.204681 -0.0796723 -0.973988 
-0.206995 -0.0829338 -0.973271 
-0.198883 -0.0849655 -0.975255 
-0.197908 -0.100673 -0.973863 
-0.202611 -0.110844 -0.971778 
-0.205657 -0.119081 -0.969933 
-0.201799 -0.115989 -0.971775 
-0.180291 -0.123675 -0.9753 
-0.171443 -0.167678 -0.969986 
-0.167592 -0.243066 -0.955846 
-0.181024 -0.295177 -0.939627 
-0.227923 -0.32649 -0.912444 
0.126708 -0.240852 0.961909 
0.146122 -0.218842 0.969446 
0.139026 -0.175643 0.981676 
0.157409 -0.145575 0.984033 
0.170515 -0.124873 0.98553 
0.18087 -0.120868 0.982178 
0.169418 -0.11614 0.984961 
0.174189 -0.111022 0.984628 
0.167174 -0.100959 0.987354 
0.151415 -0.0851869 0.992519 
0.170074 -0.0753327 0.988558 
0.171157 -0.0658695 0.989408 
0.164957 -0.0594835 0.990452 
0.1678 -0.0602279 0.989409 
0.172926 -0.0645143 0.988609 
0.181205 -0.0678991 0.986559 
0.178854 -0.0713681 0.986818 
0.179299 -0.0747167 0.986962 
0.181014 -0.0764672 0.98604 
0.177895 -0.0751196 0.987092 
0.173438 -0.0725201 0.988045 
0.165964 -0.0689774 0.990112 
0.153374 -0.0623982 0.993045 
0.144688 -0.0550028 0.994595 
0.127345 -0.0365258 0.998643 
0.117088 -0.0130316 1.00084 
0.0992747 0.0198421 1.0034 
0.0840671 0.0569671 1.00372 
0.0647405 0.103449 1.00221 
0.0351443 0.161092 0.996185 
0.00970586 0.224369 0.983875 
-0.0247666 0.312715 0.958222 
-0.0536209 0.41241 0.916942 
-0.0957388 0.509778 0.86134 
-0.0760955 0.611349 0.791558 
-0.106657 0.68611 0.72255 
-0.0663945 0.76607 0.640358 
-0.046548 0.872006 0.489593 
-0.0278097 0.955963 0.285574 
-0.00561689 0.998827 0.0378786 
0.021893 0.971919 -0.231596 
0.0415981 0.877995 -0.475507 
0.0590373 0.761364 -0.64774 
0.0877924 0.647791 -0.761282 
0.0665064 0.560942 -0.829294 
0.0950033 0.473821 -0.884121 
0.0624745 0.38284 -0.930351 
0.0259303 0.289575 -0.96671 
-0.0305998 0.189371 -0.990705 
-0.0591879 0.125849 -0.999539 
-0.0667143 0.0845528 -1.00347 
-0.0906811 0.0390734 -1.0037 
-0.113683 -0.000145057 -1.00141 
-0.128666 -0.0289601 -0.998971 
-0.133629 -0.0441067 -0.99734 
-0.150279 -0.0593584 -0.993483 
-0.157321 -0.0647795 -0.991986 
-0.173844 -0.0709424 -0.988338 
-0.180553 -0.0714107 -0.986683 
-0.17669 -0.0702633 -0.987483 
-0.17792 -0.0701789 -0.987415 
-0.177802 -0.0705891 -0.987375 
-0.180014 -0.0719224 -0.986517 
-0.176018 -0.0709375 -0.987578 
-0.172421 -0.0669575 -0.988093 
-0.161829 -0.0645792 -0.990559 
-0.166833 -0.0673224 -0.989773 
-0.172828 -0.0759936 -0.988028 
-0.165945 -0.0825838 -0.988766 
-0.168424 -0.0895687 -0.988237 
-0.166728 -0.0966854 -0.987183 
-0.163717 -0.103727 -0.987469 
-0.179773 -0.115478 -0.983518 
-0.162764 -0.12438 -0.985182 
-0.157828 -0.150178 -0.983378 
-0.1648 -0.194249 -0.973918 
-0.161787 -0.222161 -0.969338 
-0.195924 -0.273339 -0.945698 
-0.209215 -0.262126 -0.940232 
0.0969518 -0.249503 0.962718 
0.11103 -0.202364 0.98012 
0.11566 -0.167507 0.988561 
0.133127 -0.136842 0.989404 
0.122288 -0.130964 0.992049 
0.151944 -0.123009 0.986614 
0.146913 -0.11547 0.989361 
0.131159 -0.105984 0.994352 
0.141431 -0.0992354 0.99315 
0.134378 -0.0899673 0.994745 
0.128639 -0.0767519 0.997115 
0.138459 -0.0681234 0.996066 
0.132714 -0.0613973 0.997467 
0.129089 -0.060448 0.997348 
0.133156 -0.0657066 0.996557 
0.141815 -0.0702192 0.995001 
0.1431 -0.0712618 0.995228 
0.144911 -0.0699509 0.994864 
0.146501 -0.0682447 0.994576 
0.144452 -0.064943 0.995377 
0.139495 -0.0600637 0.996589 
0.129302 -0.0553454 0.998566 
0.116997 -0.0493484 1.00031 
0.106257 -0.0396518 1.00218 
0.092456 -0.0218763 1.00459 
0.0768324 0.00342304 1.00671 
0.0577734 0.0331116 1.00771 
0.035176 0.0706878 1.00733 
0.00854199 0.116314 1.00441 
-0.028528 0.176279 0.994783 
-0.0668073 0.241622 0.978015 
-0.0923398 0.309062 0.956334 
-0.131008 0.399842 0.915446 
-0.171498 0.475822 0.869023 
-0.153985 0.580847 0.803922 
-0.150868 0.674876 0.725409 
-0.0860199 0.804892 0.587916 
-0.0467755 0.904589 0.421041 
-0.0223639 0.982852 0.176339 
0.00243926 0.99892 -0.0525333 
0.0264952 0.966608 -0.245484 
0.0505861 0.892861 -0.446934 
0.0826569 0.787245 -0.612538 
0.129788 0.672752 -0.731201 
0.149865 0.56146 -0.81887 
0.193087 0.482594 -0.85991 
0.161322 0.416651 -0.901968 
0.130311 0.339324 -0.940783 
0.0540764 0.246957 -0.977287 
0.0209598 0.176515 -0.994498 
0.00467539 0.131979 -1.00252 
-0.0301671 0.0798065 -1.00716 
-0.0607806 0.0356912 -1.0074 
-0.0791215 0.00428955 -1.00645 
-0.0853406 -0.015284 -1.00581 
-0.10472 -0.0365341 -1.00285 
-0.111502 -0.0449887 -1.00133 
-0.129562 -0.0551658 -0.998358 
-0.143201 -0.0600432 -0.995868 
-0.14067 -0.0616436 -0.996295 
-0.13945 -0.0645184 -0.996059 
-0.141567 -0.0671724 -0.995558 
-0.144264 -0.0702226 -0.995166 
-0.140266 -0.0719089 -0.995105 
-0.138497 -0.0691855 -0.995383 
-0.127802 -0.0641858 -0.997409 
-0.131471 -0.0627809 -0.99728 
-0.140904 -0.0693013 -0.995876 
-0.134259 -0.0773431 -0.996378 
-0.134399 -0.0845671 -0.99512 
-0.135471 -0.0898225 -0.994795 
-0.129418 -0.0951039 -0.995987 
-0.139743 -0.109952 -0.992036 
-0.138828 -0.12087 -0.990414 
-0.133501 -0.137196 -0.989638 
-0.134356 -0.166019 -0.984767 
-0.135395 -0.193322 -0.980894 
-0.157691 -0.235461 -0.966168 
-0.154677 -0.249833 -0.953986 
0.0690564 -0.262539 0.959804 
0.0911281 -0.226221 0.976899 
0.0882959 -0.18872 0.98659 
0.099534 -0.148272 0.995308 
0.0956639 -0.128926 0.996418 
0.122406 -0.118725 0.994445 
0.111994 -0.109048 0.997403 
0.105387 -0.0930721 0.999124 
0.105555 -0.0882198 0.999108 
0.110534 -0.0810273 0.999286 
0.0991833 -0.0698934 1.00068 
0.103676 -0.0630193 1.0009 
0.100291 -0.0601899 1.00068 
0.0967481 -0.0672449 1.00009 
0.105715 -0.0741831 0.999291 
0.109112 -0.0767998 0.998771 
0.112578 -0.0723703 0.999179 
0.115237 -0.0675895 0.999052 
0.114188 -0.0617702 0.999372 
0.1097 -0.0557328 1.0005 
0.0995421 -0.0485822 1.0021 
0.087295 -0.0403599 1.00369 
0.0766633 -0.0302865 1.00526 
0.0623883 -0.0129454 1.00689 
0.047888 0.010045 1.00833 
0.0277025 0.0420522 1.0086 
0.00470358 0.0789528 1.00728 
-0.028748 0.128581 1.00192 
-0.0692318 0.184775 0.990777 
-0.120427 0.251272 0.969651 
-0.164333 0.311061 0.943991 
-0.187973 0.360887 0.920594 
-0.2292 0.419494 0.883071 
-0.258144 0.468571 0.849305 
-0.218625 0.541469 0.815623 
-0.214195 0.625954 0.753551 
-0.122416 0.773523 0.623833 
-0.056931 0.902928 0.425858 
-0.028406 0.975289 0.188886 
0.0107209 0.998536 -0.0908041 
0.0523794 0.921616 -0.381674 
0.0907026 0.842628 -0.532683 
0.1105 0.783929 -0.613148 
0.172459 0.686708 -0.709787 
0.20077 0.598083 -0.777255 
0.246471 0.495216 -0.837703 
0.244799 0.415653 -0.881147 
0.18309 0.336574 -0.931842 
0.114639 0.258995 -0.967702 
0.0956904 0.221075 -0.980321 
0.0573237 0.164628 -0.995012 
0.0149727 0.107728 -1.00441 
-0.0221319 0.0594428 -1.00819 
-0.0382094 0.0289701 -1.00843 
-0.049549 0.004458 -1.00788 
-0.0659118 -0.0170356 -1.00654 
-0.0768664 -0.0304573 -1.00495 
-0.0950354 -0.0434983 -1.00273 
-0.108032 -0.0510803 -1.00111 
-0.110504 -0.0567308 -1.00039 
-0.108601 -0.0626063 -0.999796 
-0.110063 -0.0686001 -0.999388 
-0.109242 -0.0733965 -0.999193 
-0.11084 -0.0756375 -0.9985 
-0.105316 -0.0728982 -0.999023 
-0.0967974 -0.0656753 -1.00043 
-0.0992685 -0.0617339 -1.00103 
-0.106247 -0.0670045 -1.00056 
-0.106279 -0.077113 -0.999709 
-0.103241 -0.0830383 -0.999287 
-0.102365 -0.0870762 -0.999372 
-0.104633 -0.0962773 -0.998639 
-0.110677 -0.111643 -0.996548 
-0.110277 -0.122111 -0.994887 
-0.101401 -0.130922 -0.995045 
-0.112916 -0.151797 -0.992143 
-0.109657 -0.179042 -0.988002 
-0.123901 -0.217203 -0.97562 
-0.119315 -0.248496 -0.958941 
0.0724457 -0.264074 0.958389 
0.0776861 -0.239904 0.974165 
0.0844415 -0.166721 0.99033 
0.082317 -0.135558 0.995882 
0.0788897 -0.12315 0.99723 
0.095288 -0.117146 0.996334 
0.0825086 -0.105685 0.998218 
0.0883228 -0.094512 0.999615 
0.0818568 -0.0854833 1.00015 
0.0865708 -0.0823808 0.999788 
0.0866024 -0.0751642 1.00078 
0.0791654 -0.0633591 1.00184 
0.0806665 -0.0588355 1.0018 
0.0788564 -0.0621346 1.00064 
0.0814317 -0.0740761 0.999909 
0.0870075 -0.0796865 0.999176 
0.0893836 -0.0771601 0.999764 
0.0934433 -0.069061 1.00016 
0.0930227 -0.060428 1.00041 
0.0914735 -0.0519527 1.00132 
0.0825299 -0.0422295 1.00279 
0.0700109 -0.0308967 1.00441 
0.0581033 -0.0179346 1.0057 
0.0439188 -0.00109768 1.00681 
0.0297673 0.0221528 1.00738 
0.00849989 0.0561996 1.00703 
-0.0200159 0.0997203 1.00415 
-0.0554314 0.148682 0.996789 
-0.103655 0.208641 0.981275 
-0.15953 0.272066 0.956798 
-0.213509 0.328479 0.926847 
-0.255995 0.370516 0.898178 
-0.279379 0.402503 0.877349 
-0.307811 0.449651 0.843329 
-0.286517 0.53171 0.799107 
-0.24646 0.636341 0.734622 
-0.13782 0.781796 0.607429 
-0.108219 0.838062 0.539087 
-0.0589563 0.923097 0.385526 
-0.0124528 0.993929 0.0408191 
0.0373076 0.967929 -0.245091 
0.0989034 0.854341 -0.514399 
0.178116 0.746184 -0.639124 
0.239256 0.626749 -0.742606 
0.288019 0.517941 -0.81193 
0.312681 0.443621 -0.844804 
0.293817 0.411045 -0.868564 
0.27484 0.383138 -0.885811 
0.206023 0.325382 -0.928995 
0.185633 0.295073 -0.944374 
0.129663 0.238256 -0.970637 
0.0751777 0.173039 -0.990991 
0.0257188 0.108991 -1.00323 
-0.000202968 0.0705254 -1.00652 
-0.0173889 0.0396688 -1.00729 
-0.0354157 0.0113102 -1.00719 
-0.0492857 -0.00766233 -1.00652 
-0.0678103 -0.0257419 -1.00482 
-0.0809562 -0.037188 -1.00313 
-0.0896194 -0.0474711 -1.00211 
-0.0888261 -0.0558976 -1.0014 
-0.0901195 -0.0649922 -1.0005 
-0.0887084 -0.0734122 -1.00012 
-0.0889413 -0.0793923 -0.999209 
-0.085236 -0.0776623 -0.999342 
-0.0803588 -0.0689757 -1.00002 
-0.0768436 -0.060048 -1.00133 
-0.0812078 -0.0619999 -1.00141 
-0.0883204 -0.0712656 -1.00068 
-0.0831621 -0.0784285 -1.0005 
-0.0804079 -0.08248 -1.00013 
-0.0841403 -0.0886031 -0.99988 
-0.0843672 -0.105009 -0.998886 
-0.089592 -0.121245 -0.996345 
-0.0804809 -0.129643 -0.995415 
-0.088063 -0.14954 -0.993878 
-0.0915575 -0.179983 -0.987274 
-0.0991937 -0.217685 -0.977381 
-0.0847104 -0.241896 -0.964825 
0.070876 -0.263158 0.958921 
0.0692376 -0.229744 0.976676 
0.0745199 -0.206579 0.982463 
0.0695993 -0.164432 0.99245 
0.0677373 -0.139537 0.995398 
0.0695303 -0.110977 0.997379 
0.0704931 -0.0972248 0.999237 
0.0726745 -0.0878048 1.00036 
0.0697924 -0.079402 1.00103 
0.0713995 -0.0743571 1.00136 
0.0693533 -0.0671662 1.00209 
0.0619153 -0.0564661 1.00301 
0.0632215 -0.0593078 1.00182 
0.0656089 -0.0718725 1.0004 
0.0674661 -0.0842913 0.999864 
0.072773 -0.083434 1 
0.0754469 -0.0741677 1.00092 
0.0762916 -0.0644823 1.00141 
0.0740182 -0.0539406 1.00235 
0.068831 -0.0430883 1.00361 
0.0590971 -0.0296686 1.00477 
0.0463947 -0.0136388 1.00602 
0.0332475 0.00413105 1.00673 
0.0188712 0.0274591 1.00692 
-0.000107155 0.0602182 1.00604 
-0.0257391 0.102278 1.00295 
-0.0651477 0.160268 0.993545 
-0.11311 0.224412 0.976102 
-0.174498 0.294627 0.946793 
-0.236125 0.353101 0.911032 
-0.288626 0.395665 0.876172 
-0.328025 0.421468 0.84955 
-0.33231 0.436527 0.840596 
-0.374749 0.46829 0.804822 
-0.350542 0.472666 0.814921 
-0.358507 0.50376 0.786292 
-0.261691 0.647458 0.712222 
-0.135183 0.809776 0.572658 
-0.0439666 0.956062 0.280872 
-0.00883435 1.00069 0.0214907 
0.0452806 0.959295 -0.24042 
0.12385 0.835684 -0.540811 
0.238519 0.691972 -0.672567 
0.309286 0.576187 -0.756716 
0.331437 0.510469 -0.796995 
0.360471 0.452807 -0.820091 
0.359602 0.438422 -0.82908 
0.301791 0.394149 -0.871398 
0.274393 0.373702 -0.889952 
0.226745 0.33865 -0.91966 
0.151892 0.264637 -0.960451 
0.0922327 0.194553 -0.984472 
0.0502108 0.138532 -0.997339 
0.0216196 0.0943816 -1.00362 
-0.00239998 0.0553376 -1.00618 
-0.0180545 0.028228 -1.00681 
-0.0365588 0.000662592 -1.00662 
-0.0511532 -0.0173813 -1.00553 
-0.0631134 -0.0314477 -1.00442 
-0.0715541 -0.0436243 -1.00334 
-0.072676 -0.0550846 -1.00241 
-0.0734372 -0.0663223 -1.00173 
-0.0723664 -0.0783716 -1.00078 
-0.0712809 -0.0847533 -0.999761 
-0.0671707 -0.082053 -0.999885 
-0.0644212 -0.0701581 -1.00095 
-0.0617701 -0.0598423 -1.00216 
-0.0643312 -0.060035 -1.00264 
-0.0705667 -0.0693944 -1.00189 
-0.0660028 -0.0752053 -1.00156 
-0.0680622 -0.0803829 -1.00124 
-0.0709054 -0.0890738 -0.999891 
-0.0701563 -0.103718 -0.998762 
-0.0749141 -0.120554 -0.996194 
-0.0690789 -0.135526 -0.995379 
-0.0742146 -0.153554 -0.993805 
-0.0665431 -0.173924 -0.990157 
-0.0729945 -0.21738 -0.980323 
-0.055471 -0.246903 -0.965061 
0.0559083 -0.257399 0.961707 
0.0563897 -0.215161 0.981542 
0.063565 -0.187218 0.987553 
0.0565193 -0.151047 0.995988 
0.0624316 -0.123947 0.996734 
0.0540526 -0.113142 0.999013 
0.0585479 -0.100168 0.999547 
0.0508876 -0.0851815 1.00309 
0.0567785 -0.0786564 1.00198 
0.051447 -0.0732846 1.00304 
0.0495203 -0.0666103 1.00351 
0.0511393 -0.0584677 1.00373 
0.0439629 -0.0587133 1.00333 
0.0505982 -0.070208 1.00143 
0.0532131 -0.0859147 1.00036 
0.0562814 -0.0896545 1.00078 
0.0606728 -0.0803369 1.00171 
0.0609284 -0.0663304 1.0027 
0.0600518 -0.053342 1.00345 
0.0559613 -0.0397007 1.00465 
0.0467732 -0.0253081 1.00552 
0.0364207 -0.00818544 1.00658 
0.0231712 0.0133128 1.00706 
0.00946867 0.0381547 1.00673 
-0.00953451 0.0740738 1.00513 
-0.0367064 0.124992 0.999874 
-0.0757255 0.189292 0.987464 
-0.130754 0.266573 0.962801 
-0.197895 0.344935 0.924842 
-0.269705 0.408339 0.87769 
-0.330728 0.454075 0.831197 
-0.373316 0.47504 0.800857 
-0.378842 0.457332 0.80774 
-0.409357 0.479986 0.778824 
-0.412215 0.50029 0.764246 
-0.385955 0.51243 0.76895 
-0.294016 0.638382 0.700722 
-0.175605 0.77558 0.601774 
-0.0730063 0.917196 0.383029 
-0.00115237 0.998605 -0.00428296 
0.102828 0.886073 -0.453211 
0.198425 0.761377 -0.607775 
0.327226 0.604221 -0.719645 
0.384423 0.508988 -0.772661 
0.39748 0.467073 -0.7932 
0.417926 0.475173 -0.777586 
0.398974 0.463524 -0.795106 
0.36401 0.443199 -0.822246 
0.337128 0.444884 -0.834088 
0.283675 0.407587 -0.873528 
0.226598 0.366946 -0.908858 
0.153082 0.286638 -0.952863 
0.094998 0.215817 -0.979606 
0.0522975 0.148818 -0.995885 
0.0204364 0.092574 -1.00378 
0.00198056 0.0577808 -1.00593 
-0.0185078 0.0221356 -1.00681 
-0.0326648 -0.000391037 -1.00664 
-0.0440025 -0.0183133 -1.00617 
-0.0535682 -0.0343474 -1.00504 
-0.0595851 -0.0480903 -1.0039 
-0.0586164 -0.0620101 -1.00329 
-0.057927 -0.076198 -1.00251 
-0.0581181 -0.0884486 -1.00083 
-0.055045 -0.0899646 -1.00039 
-0.0513346 -0.0777475 -1.00089 
-0.0464299 -0.0626463 -1.00247 
-0.0469933 -0.0569545 -1.00376 
-0.0524445 -0.0654652 -1.00344 
-0.0502618 -0.0715727 -1.00352 
-0.0511626 -0.0771502 -1.00343 
-0.0564006 -0.0845625 -1.00223 
-0.0561716 -0.100059 -1.00049 
-0.0595415 -0.116724 -0.99773 
-0.0530993 -0.130185 -0.997045 
-0.0581453 -0.149876 -0.995467 
-0.0510311 -0.178391 -0.99134 
-0.0547567 -0.21086 -0.982184 
-0.041067 -0.252456 -0.964319 
0.0384307 -0.260359 0.962367 
0.0425939 -0.220495 0.981639 
0.0523182 -0.175165 0.99197 
0.0391666 -0.145183 0.997676 
0.048121 -0.126682 0.998401 
0.0385309 -0.113296 1.00009 
0.0401888 -0.0947139 1.00244 
0.0321361 -0.0816607 1.00373 
0.0385469 -0.0763495 1.00385 
0.0303025 -0.0704705 1.00432 
0.032203 -0.0613399 1.0048 
0.0359398 -0.0548011 1.00446 
0.0278677 -0.0617996 1.00335 
0.0359048 -0.0765887 1.002 
0.0414272 -0.0924145 1.00025 
0.0424569 -0.0900664 1.00221 
0.0465215 -0.0772341 1.0025 
0.0437218 -0.0608002 1.00473 
0.0423216 -0.0450698 1.00466 
0.0359893 -0.0286305 1.00598 
0.0284012 -0.00984122 1.0066 
0.0163547 0.0120387 1.00738 
0.00377285 0.0386835 1.00657 
-0.0120098 0.0728303 1.00497 
-0.0346928 0.121145 1.00024 
-0.0688743 0.18962 0.987714 
-0.117252 0.274613 0.962286 
-0.180409 0.362803 0.921609 
-0.251813 0.439091 0.86841 
-0.320429 0.495358 0.81253 
-0.371439 0.531474 0.766329 
-0.415693 0.522335 0.7479 
-0.442971 0.519429 0.733745 
-0.454917 0.523837 0.723759 
-0.446617 0.51786 0.730988 
-0.457192 0.532156 0.713224 
-0.425407 0.507883 0.752973 
-0.217349 0.738437 0.616418 
-0.0786259 0.906096 0.39376 
-0.00520162 0.99137 0.0144201 
0.0791381 0.915785 -0.366432 
0.230945 0.730691 -0.619903 
0.436487 0.494051 -0.755235 
0.459256 0.509095 -0.730385 
0.442498 0.494252 -0.749648 
0.46056 0.513967 -0.726531 
0.445868 0.515057 -0.735621 
0.409603 0.497648 -0.767968 
0.365932 0.511602 -0.780896 
0.307177 0.479076 -0.826949 
0.237657 0.418652 -0.882522 
0.166791 0.333383 -0.935155 
0.113561 0.265793 -0.965024 
0.0647123 0.180012 -0.989836 
0.0345175 0.119336 -1.00044 
0.00941548 0.0673422 -1.00523 
-0.00862831 0.0316308 -1.0068 
-0.0173614 0.011245 -1.00733 
-0.0295436 -0.0112459 -1.00685 
-0.0383417 -0.030062 -1.00638 
-0.0445688 -0.0461949 -1.00435 
-0.0435611 -0.060937 -1.00488 
-0.0438534 -0.0777054 -1.0031 
-0.041343 -0.0910115 -1.00151 
-0.0396459 -0.0922576 -1.00073 
-0.0360426 -0.0796453 -1.00149 
-0.0306149 -0.0624974 -1.00287 
-0.0314389 -0.0554343 -1.00461 
-0.0311202 -0.0618793 -1.00531 
-0.0338087 -0.0716476 -1.0036 
-0.033353 -0.0756516 -1.00409 
-0.0409515 -0.082691 -1.00357 
-0.0374912 -0.0966744 -1.00252 
-0.0445435 -0.111411 -1.00015 
-0.03744 -0.120366 -0.999411 
-0.0395146 -0.147025 -0.997178 
-0.0345092 -0.179294 -0.992045 
-0.0359763 -0.221491 -0.981465 
-0.0231986 -0.263307 -0.962027 
0.0267133 -0.262665 0.961746 
0.0278293 -0.225591 0.980487 
0.0364501 -0.179427 0.9922 
0.0252731 -0.13986 0.997789 
0.032608 -0.1228 0.999107 
0.0176381 -0.110943 1.00059 
0.0241369 -0.0988075 1.00252 
0.0151112 -0.081783 1.00413 
0.0149361 -0.0753173 1.00444 
0.0101934 -0.0669747 1.00535 
0.0115014 -0.0584488 1.00476 
0.0146543 -0.0566319 1.00411 
0.0128166 -0.072808 1.00242 
0.0199658 -0.08774 1.00061 
0.0260368 -0.0987606 1.00057 
0.0263142 -0.0949478 1.00134 
0.0307353 -0.0800489 1.00314 
0.0286317 -0.0631948 1.00427 
0.0272706 -0.0460012 1.00607 
0.0222321 -0.0274859 1.00608 
0.0156253 -0.00846154 1.00701 
0.00573608 0.0152225 1.00711 
-0.00438029 0.0420144 1.00616 
-0.0182881 0.0803649 1.00398 
-0.0392004 0.13445 0.998064 
-0.0687362 0.208563 0.983393 
-0.112116 0.301972 0.953827 
-0.1672 0.39918 0.907677 
-0.236857 0.481541 0.848589 
-0.296138 0.539626 0.791714 
-0.352983 0.582363 0.735005 
-0.396537 0.589014 0.706384 
-0.45188 0.561492 0.697507 