# vtk DataFile Version 3.0 
Exported using Morpho https://github.com/Morpho-lang/morpho 
ASCII 
DATASET UNSTRUCTURED_GRID 

POINTS 1978 float 
-8.48523 -2.82842 -1.95001e-07 
-8.24813 -2.82837 1.50455e-07 
-8.02663 -2.82839 7.11849e-07 
-7.75798 -2.82839 2.79593e-07 
-7.45487 -2.82839 -9.08407e-09 
-7.20046 -2.8284 3.04685e-07 
-6.99931 -2.8284 1.39521e-07 
-6.76525 -2.82839 2.77648e-07 
-6.55501 -2.82841 2.26807e-08 
-6.34518 -2.8284 1.86539e-07 
-6.13313 -2.8284 2.27116e-08 
-5.92245 -2.8284 9.22909e-08 
-5.71159 -2.8284 6.64737e-08 
-5.51163 -2.8284 4.67018e-08 
-5.2934 -2.8284 2.51194e-08 
-5.08165 -2.8284 1.39245e-09 
-4.86752 -2.8284 2.35336e-09 
-4.65356 -2.8284 -7.29027e-09 
-4.43382 -2.8284 -6.10551e-08 
-4.20535 -2.8284 -7.60961e-08 
-3.98854 -2.8284 -1.10224e-07 
-3.77863 -2.8284 -1.29749e-07 
-3.56779 -2.8284 -2.05362e-07 
-3.35962 -2.8284 -2.38885e-07 
-3.14627 -2.8284 -2.60989e-07 
-2.9366 -2.8284 -3.32262e-07 
-2.7372 -2.82841 -4.25295e-07 
-2.54343 -2.82841 -4.12698e-07 
-2.32661 -2.82841 -4.718e-07 
-2.1174 -2.82841 -5.74394e-07 
-1.89558 -2.82841 -5.44882e-07 
-1.69574 -2.82841 -5.92223e-07 
-1.48806 -2.82842 -2.74469e-07 
-1.28427 -2.82841 -4.39831e-07 
-1.10734 -2.82842 -5.62962e-07 
-0.825806 -2.82841 5.57424e-07 
-0.625419 -2.82841 5.75978e-08 
-0.433914 -2.82837 -2.15177e-07 
-0.20725 -2.82841 7.09787e-07 
0.0224106 -2.82839 9.40973e-08 
0.222583 -2.82839 -1.29938e-06 
0.426635 -2.82839 1.63528e-07 
0.661258 -2.8284 6.27097e-07 
0.878289 -2.82841 6.98467e-07 
1.07005 -2.82841 -4.81804e-08 
1.26287 -2.82842 2.58185e-07 
1.45206 -2.82842 3.60095e-07 
1.69665 -2.82841 5.29202e-07 
1.88759 -2.82841 4.90266e-07 
2.10108 -2.82841 5.0906e-07 
2.33546 -2.82841 5.38555e-07 
2.52053 -2.82841 3.74198e-07 
2.74206 -2.8284 4.01776e-07 
2.95905 -2.8284 3.4922e-07 
3.16552 -2.8284 2.99348e-07 
3.36148 -2.8284 1.89507e-07 
3.58523 -2.8284 2.08048e-07 
3.78733 -2.8284 1.52267e-07 
4.00316 -2.8284 7.02348e-08 
4.23171 -2.8284 1.09968e-07 
4.43542 -2.8284 2.25832e-08 
4.65416 -2.8284 2.40746e-08 
4.85933 -2.8284 2.45424e-08 
5.07382 -2.8284 -5.02624e-08 
5.28605 -2.8284 -4.84105e-09 
5.50129 -2.8284 -1.7265e-08 
5.70948 -2.8284 -1.49678e-07 
5.92762 -2.8284 7.15134e-09 
6.15203 -2.8284 -9.57905e-08 
6.35649 -2.8284 -1.81164e-07 
6.58719 -2.8284 -1.49557e-07 
6.80269 -2.8284 -1.50974e-07 
7.00083 -2.8284 -2.51531e-07 
7.25909 -2.82839 -3.27252e-07 
7.49191 -2.8284 -2.67243e-07 
7.72628 -2.82839 -2.78323e-07 
7.99478 -2.82839 -6.50353e-07 
8.18513 -2.82837 -1.86581e-07 
8.48521 -2.82839 3.1097e-07 
-8.48525 -2.59106 -3.0137e-07 
-8.25379 -2.5866 3.78136e-07 
-8.01253 -2.57029 2.74338e-07 
-7.7942 -2.61633 4.78218e-07 
-7.52929 -2.64395 5.90867e-07 
-7.23674 -2.61592 4.74383e-07 
-6.98469 -2.56077 9.16343e-08 
-6.7827 -2.5989 1.25453e-07 
-6.54916 -2.58175 1.06294e-07 
-6.33294 -2.58085 7.16165e-08 
-6.11467 -2.58316 5.62813e-08 
-5.8974 -2.58524 6.01779e-08 
-5.68932 -2.57041 2.92772e-08 
-5.46931 -2.59134 3.25017e-08 
-5.25167 -2.58287 1.92e-08 
-5.03413 -2.58503 8.99538e-09 
-4.8182 -2.58361 7.64387e-10 
-4.59874 -2.58853 -1.2346e-08 
-4.37159 -2.59714 -3.36049e-08 
-4.15117 -2.58591 -3.50878e-08 
-3.93933 -2.58021 -4.51877e-08 
-3.72814 -2.58432 -7.30365e-08 
-3.51812 -2.58542 -8.76132e-08 
-3.30489 -2.59588 -1.5891e-07 
-3.09217 -2.59617 -1.77557e-07 
-2.88671 -2.58828 -1.71226e-07 
-2.68969 -2.58419 -1.76719e-07 
-2.47942 -2.60875 -4.81404e-07 
-2.26253 -2.59609 -3.20157e-07 
-2.04431 -2.60434 -6.39069e-07 
-1.83475 -2.57168 -1.59164e-07 
-1.62378 -2.57779 -4.67971e-07 
-1.42238 -2.56983 -8.94998e-09 
-1.23538 -2.51959 -3.02598e-07 
-1.01014 -2.6352 -8.71084e-07 
-0.802195 -2.54699 7.41127e-07 
-0.609458 -2.50605 -9.13044e-07 
-0.407113 -2.46926 -3.17526e-07 
-0.213541 -2.56049 -2.1731e-06 
0.0144105 -2.50683 1.71279e-06 
0.241318 -2.50373 1.00396e-06 
0.461451 -2.35804 -2.29007e-08 
0.523547 -2.5908 -1.63218e-07 
0.801965 -2.58306 6.55276e-07 
1.05281 -2.55007 -9.06574e-07 
1.26533 -2.55213 4.15108e-07 
1.51146 -2.62767 1.01017e-06 
1.72554 -2.57141 1.76746e-07 
1.93987 -2.60261 6.37895e-07 
2.17573 -2.62535 6.97163e-07 
2.37864 -2.56926 5.87163e-08 
2.58807 -2.60965 5.16415e-07 
2.81359 -2.6038 2.28424e-07 
3.02074 -2.59037 1.73225e-07 
3.22131 -2.57296 7.61612e-08 
3.43613 -2.60258 1.72217e-07 
3.64292 -2.57532 5.70929e-08 
3.85484 -2.58894 7.4948e-08 
4.07995 -2.60081 6.92205e-08 
4.2908 -2.57172 1.42165e-08 
4.50708 -2.5899 1.81174e-08 
4.71785 -2.57475 3.06245e-10 
4.93348 -2.58725 -7.33689e-09 
5.14896 -2.58575 -1.72492e-08 
5.36747 -2.58914 -2.81406e-08 
5.58209 -2.58015 -3.14924e-08 
5.79945 -2.58995 -5.30477e-08 
6.02511 -2.59462 -6.61335e-08 
6.24108 -2.56968 -3.5102e-08 
6.46166 -2.59864 -1.19988e-07 
6.68702 -2.58088 -9.31989e-08 
6.89588 -2.5576 -5.94626e-08 
7.12108 -2.62033 -3.47626e-07 
7.3709 -2.59478 -2.11411e-07 
7.60526 -2.59488 -3.18265e-07 
7.85732 -2.62309 -6.52515e-07 
8.07118 -2.53328 -7.94502e-08 
8.30231 -2.63505 -5.78796e-07 
8.48524 -2.51363 4.86382e-07 
-8.48522 -2.33944 -5.12762e-07 
-8.22596 -2.35348 -2.24139e-07 
-7.98581 -2.31901 -3.54236e-07 
-7.72943 -2.41363 -2.72827e-07 
-7.55698 -2.24514 -4.13277e-07 
-7.43981 -2.45356 -3.43515e-07 
-7.16749 -2.3879 -3.33236e-07 
-6.93709 -2.30552 -2.75368e-07 
-6.71359 -2.37159 -2.34521e-07 
-6.48129 -2.34443 -2.12384e-07 
-6.25018 -2.34456 -1.69539e-07 
-6.02831 -2.34331 -1.37399e-07 
-5.81618 -2.33167 -9.73888e-08 
-5.58592 -2.34459 -7.45209e-08 
-5.36904 -2.34892 -4.11241e-08 
-5.14454 -2.34535 -1.35301e-08 
-4.92579 -2.3426 1.52962e-08 
-4.70577 -2.34752 4.74341e-08 
-4.48114 -2.36194 8.0985e-08 
-4.26131 -2.35384 1.2184e-07 
-4.04506 -2.33731 1.67652e-07 
-3.83273 -2.33871 2.22416e-07 
-3.62326 -2.34378 2.91994e-07 
-3.41008 -2.35651 3.72216e-07 
-3.19949 -2.36511 4.62183e-07 
-2.99037 -2.35795 5.72575e-07 
-2.78582 -2.34242 6.90914e-07 
-2.57699 -2.36814 8.45461e-07 
-2.36731 -2.38189 9.51591e-07 
-2.13632 -2.37341 9.70143e-07 
-1.92487 -2.34925 1.0457e-06 
-1.69102 -2.3336 7.95271e-07 
-1.47652 -2.30207 2.24855e-07 
-1.27046 -2.25791 7.68539e-07 
-1.03489 -2.37785 1.17593e-08 
-0.847965 -2.25497 -3.70032e-07 
-0.599664 -2.23681 2.77023e-07 
-0.356971 -2.15482 -1.57068e-06 
-0.156199 -2.26154 1.33251e-06 
0.0230214 -2.08848 -7.19894e-08 
0.202427 -2.19851 -1.7419e-06 
0.408048 -2.06219 3.04575e-06 
0.649618 -2.16048 -6.23963e-07 
0.769178 -2.35057 -5.05931e-07 
1.02122 -2.30607 5.56583e-07 
1.25251 -2.29562 -3.2099e-07 
1.47428 -2.3993 -7.40123e-07 
1.67212 -2.32517 -1.04045e-06 
1.89089 -2.35681 -1.02957e-06 
2.10058 -2.40854 -9.05139e-07 
2.30631 -2.3525 -1.08546e-06 
2.53956 -2.36301 -7.97113e-07 
2.74587 -2.39199 -6.82846e-07 
2.96842 -2.35107 -5.82265e-07 
3.16708 -2.33157 -4.91294e-07 
3.38279 -2.36266 -3.73653e-07 
3.58662 -2.33644 -3.16683e-07 
3.79911 -2.3436 -2.38952e-07 
4.01284 -2.36723 -1.71554e-07 
4.22345 -2.33369 -1.34255e-07 
4.44405 -2.34449 -8.72649e-08 
4.6522 -2.33129 -5.24122e-08 
4.86868 -2.34414 -2.03103e-08 
5.0826 -2.34454 7.04013e-09 
5.29836 -2.35212 3.40288e-08 
5.51456 -2.34188 6.20746e-08 
5.73448 -2.34735 9.09981e-08 
5.954 -2.36085 1.20753e-07 
6.17169 -2.33331 1.6364e-07 
6.40163 -2.34949 1.94774e-07 
6.61554 -2.34964 2.30095e-07 
6.83462 -2.30811 2.68298e-07 
7.06486 -2.36437 3.07812e-07 
7.28204 -2.38842 3.68636e-07 
7.53597 -2.35924 4.1768e-07 
7.77845 -2.39523 2.71724e-07 
7.99043 -2.30363 4.13479e-07 
8.252 -2.36054 1.89778e-07 
8.48525 -2.26866 5.99929e-07 
-8.48525 -2.07739 -2.1142e-07 
-8.26936 -2.11781 -7.66952e-09 
-8.04591 -2.07842 -1.79276e-07 
-7.79521 -2.15847 -2.02978e-07 
-7.53632 -2.02307 -8.77917e-08 
-7.3103 -2.21954 -3.29121e-07 
-7.07745 -2.11716 -1.51167e-07 
-6.79802 -2.11069 -1.03291e-07 
-6.59324 -2.12978 -1.34334e-07 
-6.35404 -2.12151 -1.07516e-07 
-6.12637 -2.10409 -8.41131e-08 
-5.91663 -2.0903 -5.35711e-08 
-5.6929 -2.11403 -4.48161e-08 
-5.47072 -2.10724 -2.35838e-08 
-5.25378 -2.11657 -1.03914e-08 
-5.03314 -2.10774 2.56475e-09 
-4.81382 -2.10935 1.79243e-08 
-4.59192 -2.12391 3.74787e-08 
-4.37626 -2.12339 5.83499e-08 
-4.16217 -2.10829 7.51663e-08 
-3.94647 -2.09806 9.47688e-08 
-3.73604 -2.1018 1.24802e-07 
-3.52386 -2.11727 1.69211e-07 
-3.31306 -2.12781 2.18616e-07 
-3.10509 -2.13085 2.6907e-07 
-2.89768 -2.1163 2.91756e-07 
-2.67957 -2.12208 3.58533e-07 
-2.47079 -2.14328 4.95585e-07 
-2.25313 -2.16244 6.49186e-07 
-2.02976 -2.12368 4.54108e-07 
-1.79752 -2.12711 5.84856e-07 
-1.56167 -2.06879 4.19954e-07 
-1.35281 -2.00715 -1.79697e-07 
-1.15185 -1.8843 -1.24988e-07 
-1.08886 -2.11094 1.38163e-07 
-0.801757 -2.02389 4.73286e-07 
-0.533987 -1.98287 6.07441e-08 
-0.364923 -1.75684 1.11814e-06 
-0.179562 -1.91461 1.91773e-07 
0.0294354 -1.73086 1.29922e-07 
0.237045 -1.82963 -1.48832e-07 
0.284467 -1.54318 -2.6541e-06 
0.491036 -1.81231 -6.81918e-07 
0.727135 -1.93029 7.11672e-07 
0.942239 -2.08052 -1.24802e-08 
1.20223 -2.04182 -1.39317e-07 
1.43975 -2.14111 -6.27345e-07 
1.65214 -2.0844 -2.68877e-07 
1.87901 -2.12275 -4.79594e-07 
2.10423 -2.16857 -6.63582e-07 
2.35276 -2.14794 -5.51729e-07 
2.57543 -2.12999 -4.26685e-07 
2.78827 -2.16607 -4.66897e-07 
2.98864 -2.09688 -2.50445e-07 
3.21264 -2.11245 -2.21551e-07 
3.41365 -2.11628 -1.90138e-07 
3.62807 -2.10204 -1.36808e-07 
3.84309 -2.11311 -1.15121e-07 
4.04675 -2.1205 -9.26672e-08 
4.2727 -2.10514 -6.19756e-08 
4.47916 -2.09723 -4.24705e-08 
4.69868 -2.09822 -2.57828e-08 
4.91164 -2.10679 -1.21243e-08 
5.12784 -2.10874 1.99855e-09 
5.34179 -2.11496 1.73279e-08 
5.56353 -2.11019 3.18152e-08 
5.78428 -2.11537 5.08293e-08 
5.99667 -2.11717 7.36307e-08 
6.23255 -2.11035 9.23094e-08 
6.44705 -2.10306 1.07698e-07 
6.65872 -2.10021 1.15323e-07 
6.90856 -2.09499 1.06791e-07 
7.12321 -2.12361 1.6569e-07 
7.35141 -2.16834 2.84764e-07 
7.54054 -2.07167 1.55266e-07 
7.72877 -2.16077 2.12845e-07 
7.95017 -2.07345 5.18755e-08 
8.2035 -2.13533 2.73508e-07 
8.48525 -2.06751 -2.04331e-07 
-8.48524 -1.79394 -1.79898e-07 
-8.29205 -1.86275 1.22454e-07 
-7.88868 -1.90626 7.3249e-08 
-7.67839 -1.87951 6.6083e-08 
[...]
POINT_DATA 1978 
VECTORS vectors float
0.0207246 -0.0195307 0.999572 
0.0227201 -0.0530318 0.998337 
0.0204631 -0.075804 0.996922 
0.0198932 -0.0684013 0.99747 
0.0193719 -0.0589116 0.998084 
0.02019 -0.0500009 0.998562 
0.020853 -0.0415868 0.99892 
0.0202614 -0.0332361 0.999252 
0.0205762 -0.0269656 0.999435 
0.0209533 -0.021742 0.999551 
0.0213547 -0.0175758 0.999626 
0.021438 -0.0144285 0.999674 
0.0215746 -0.0112509 0.999712 
0.0211883 -0.00830778 0.999749 
0.0211606 -0.00542475 0.99977 
0.0210749 -0.00241258 0.999784 
0.0210979 0.00085713 0.999786 
0.0207773 0.00443406 0.999784 
0.0202859 0.00869154 0.999767 
0.0203751 0.0138178 0.999707 
0.0207056 0.0199573 0.999595 
0.0207385 0.0272536 0.999422 
0.0205651 0.0361078 0.999144 
0.0200883 0.0469192 0.998705 
0.0197817 0.0604532 0.997983 
0.0197378 0.0770651 0.996838 
0.0194305 0.0970769 0.995093 
0.0182976 0.120958 0.992495 
0.0170575 0.154028 0.987926 
0.0155168 0.194591 0.980768 
0.0142871 0.249073 0.968384 
0.0125853 0.310048 0.950641 
0.0108069 0.385947 0.92246 
0.00837725 0.475301 0.879783 
0.00573999 0.562214 0.826973 
0.00309907 0.708655 0.705549 
0.00130696 0.813609 0.58141 
0.000124437 0.90228 0.43115 
-0.000335674 0.977896 0.209075 
-0.000165014 0.999391 -0.0348567 
1.9605e-05 0.973776 -0.22753 
-9.87118e-05 0.907454 -0.420148 
-0.00120123 0.797355 -0.603511 
-0.00349878 0.680902 -0.732366 
-0.00659413 0.578536 -0.815632 
-0.00832115 0.484169 -0.874935 
-0.00949012 0.400724 -0.916154 
-0.0124465 0.31006 -0.95064 
-0.014217 0.250636 -0.967981 
-0.0154812 0.198914 -0.979902 
-0.0170231 0.153784 -0.987964 
-0.0178532 0.124033 -0.992124 
-0.0185746 0.0966729 -0.995152 
-0.0193619 0.0757288 -0.996948 
-0.020246 0.0593842 -0.998037 
-0.0201617 0.0469435 -0.998702 
-0.0205378 0.0358389 -0.999155 
-0.0205331 0.0271331 -0.999429 
-0.0202944 0.0198107 -0.999608 
-0.0206276 0.0136063 -0.999704 
-0.0209906 0.00856441 -0.999751 
-0.0212337 0.00426499 -0.999774 
-0.0211705 0.000682026 -0.999784 
-0.0211279 -0.00269791 -0.999782 
-0.021099 -0.00557802 -0.999771 
-0.0212921 -0.00847643 -0.999746 
-0.0210351 -0.0115731 -0.999721 
-0.0207829 -0.0145679 -0.999688 
-0.0208719 -0.0181629 -0.999626 
-0.0204221 -0.0226058 -0.999545 
-0.0204616 -0.0280391 -0.999408 
-0.0208704 -0.035144 -0.999172 
-0.0196598 -0.0435009 -0.99887 
-0.0190598 -0.0542341 -0.998358 
-0.0194394 -0.0635154 -0.997802 
-0.019276 -0.0708427 -0.997312 
-0.0197945 -0.0784301 -0.996734 
-0.0197922 -0.0634975 -0.99779 
-0.0217927 -0.0185324 -0.999558 
0.0131095 -0.0304372 0.999437 
0.0147252 -0.0440903 0.998923 
0.0225999 -0.0635325 0.997706 
0.0231972 -0.0673915 0.997452 
0.0218146 -0.0601648 0.997952 
0.0245419 -0.0498054 0.998452 
0.0302194 -0.0405355 0.998712 
0.0283256 -0.0337342 0.999023 
0.0295327 -0.0269273 0.999192 
0.0300328 -0.0215125 0.999309 
0.0306481 -0.0172649 0.999369 
0.0308295 -0.0138947 0.999419 
0.0323671 -0.0106517 0.999409 
0.0303999 -0.00747834 0.999502 
0.0310605 -0.00447387 0.999498 
0.0308058 -0.00138313 0.999515 
0.0308144 0.00190123 0.999514 
0.0301418 0.00566342 0.999521 
0.0291978 0.0102846 0.999513 
0.0302565 0.0157114 0.99941 
0.030612 0.022006 0.999279 
0.0299895 0.0295996 0.999103 
0.0296034 0.038881 0.998796 
0.0281206 0.0505922 0.998315 
0.0275502 0.0651579 0.997486 
0.027252 0.0827065 0.996192 
0.026177 0.103517 0.994274 
0.0223993 0.131158 0.991102 
0.0212572 0.1675 0.985635 
0.0178906 0.213758 0.976717 
0.0170642 0.270027 0.962694 
0.0137041 0.338242 0.940954 
0.0112008 0.416186 0.909203 
0.00930161 0.500197 0.865859 
0.00508817 0.6134 0.789752 
0.00486604 0.721348 0.692554 
0.00319842 0.819613 0.57291 
0.00195184 0.912483 0.409114 
0.0010973 0.975608 0.21952 
8.45159e-05 0.999897 -0.0145627 
-0.00171116 0.967926 -0.251208 
-0.00433238 0.891677 -0.452649 
-0.00229486 0.865545 -0.50082 
-0.00430521 0.71753 -0.696514 
-0.00783539 0.585382 -0.810716 
-0.0101064 0.483265 -0.875409 
-0.0108731 0.37866 -0.925469 
-0.0156969 0.302615 -0.952976 
-0.0170306 0.239566 -0.970725 
-0.0186852 0.184719 -0.98261 
-0.0243502 0.14768 -0.988725 
-0.0227811 0.116252 -0.992953 
-0.0255336 0.0898805 -0.995617 
-0.0274029 0.070837 -0.997103 
-0.0296381 0.0561185 -0.997974 
-0.0277767 0.0434087 -0.998664 
-0.0304922 0.0335259 -0.998962 
-0.0295625 0.0251518 -0.999238 
-0.0288322 0.0178816 -0.999418 
-0.0316468 0.0122811 -0.999413 
-0.0301857 0.0073985 -0.999509 
-0.0316418 0.00343491 -0.999483 
-0.0306631 -0.000134493 -0.999521 
-0.0308924 -0.00333426 -0.999508 
-0.0307401 -0.00637565 -0.999498 
-0.0315284 -0.00931181 -0.999449 
-0.030373 -0.0124275 -0.999453 
-0.0297912 -0.0159569 -0.999421 
-0.0317833 -0.0199951 -0.999283 
-0.0285037 -0.0250665 -0.999273 
-0.0299303 -0.0315026 -0.999047 
-0.0312965 -0.0386003 -0.998753 
-0.0250333 -0.0471978 -0.998569 
-0.0276106 -0.0566372 -0.998006 
-0.0266526 -0.0653886 -0.997496 
-0.0225462 -0.0720327 -0.997145 
-0.0244127 -0.061005 -0.99781 
-0.0104052 -0.037874 -0.999251 
-0.0156413 -0.0280083 -0.999423 
0.0144359 -0.0274471 0.999481 
0.0227205 -0.0416312 0.99885 
0.0377096 -0.063608 0.997249 
0.0380559 -0.06546 0.997118 
0.0458758 -0.0591832 0.997189 
0.0376642 -0.0556687 0.997726 
0.0425786 -0.0460986 0.998021 
0.0468605 -0.0388982 0.998139 
0.045201 -0.0318108 0.998464 
0.0474493 -0.0251987 0.99855 
0.0483208 -0.0197786 0.99863 
0.049289 -0.0155986 0.998657 
0.049501 -0.0120354 0.998696 
0.0492045 -0.00864597 0.998746 
0.0491547 -0.00573141 0.998769 
0.0491951 -0.00265193 0.99878 
0.0491745 0.000533389 0.998785 
0.0486447 0.00406823 0.998802 
0.0477095 0.00826338 0.998821 
0.0478516 0.0132042 0.998761 
0.0481617 0.0190548 0.998653 
0.0477383 0.0259816 0.998517 
0.0471239 0.0343459 0.998293 
0.0459743 0.0448765 0.997929 
0.0446685 0.0578576 0.99732 
0.0436093 0.0739733 0.996301 
0.0422234 0.0935998 0.99471 
0.0390138 0.118389 0.992195 
0.0353027 0.149928 0.988061 
0.0311455 0.194699 0.980363 
0.0275439 0.247168 0.968575 
0.0223983 0.318801 0.947552 
0.0179136 0.397071 0.91761 
0.0144702 0.485594 0.874058 
0.00919315 0.599887 0.80003 
0.00755762 0.69733 0.716706 
0.00413408 0.827746 0.561086 
0.000604966 0.930959 0.365108 
-0.000530761 0.985722 0.168387 
-0.00350783 0.999812 -0.0190387 
-0.00384929 0.978151 -0.20786 
-0.00600596 0.91088 -0.41264 
-0.00670849 0.804412 -0.594019 
-0.00731881 0.737435 -0.675374 
-0.0114356 0.601135 -0.799061 
-0.015261 0.489861 -0.871665 
-0.0183141 0.395085 -0.918456 
-0.0239482 0.322893 -0.946127 
-0.0275691 0.255359 -0.966448 
-0.0300702 0.202622 -0.978789 
-0.0357796 0.161442 -0.986228 
-0.0381488 0.124056 -0.991536 
-0.0397254 0.0978839 -0.994398 
-0.0432734 0.0759472 -0.996167 
-0.0454431 0.0602992 -0.997141 
-0.0453405 0.0466083 -0.997878 
-0.0473342 0.0362621 -0.998216 
-0.0475112 0.0274397 -0.998488 
-0.0468453 0.0201422 -0.998693 
-0.0487769 0.0142723 -0.998703 
-0.0485881 0.00910677 -0.998772 
-0.0494891 0.00501523 -0.998757 
-0.0491943 0.00128735 -0.998783 
-0.0494595 -0.00198731 -0.998769 
-0.049308 -0.00504122 -0.998765 
-0.0498052 -0.00797879 -0.998722 
-0.0493999 -0.011081 -0.998712 
-0.0484261 -0.0144925 -0.998715 
-0.0493244 -0.0184601 -0.998607 
-0.0478327 -0.0236568 -0.998569 
-0.0470445 -0.029507 -0.998451 
-0.0477641 -0.0365087 -0.998186 
-0.0448241 -0.0441443 -0.998012 
-0.0431446 -0.0516383 -0.997726 
-0.0431653 -0.0607221 -0.997214 
-0.039734 -0.0686671 -0.996838 
-0.0395991 -0.064134 -0.997144 
-0.0217178 -0.0387425 -0.999004 
-0.014935 -0.0263344 -0.999511 
0.0134813 -0.0252939 0.999506 
0.0193222 -0.0354274 0.999184 
0.0344622 -0.0578825 0.997716 
0.0429742 -0.0653462 0.996933 
0.0419553 -0.0575357 0.997459 
0.0465462 -0.0501405 0.997653 
0.0462748 -0.0430793 0.997996 
0.0475066 -0.034982 0.998255 
0.0489243 -0.0285901 0.99839 
0.0496371 -0.0221591 0.998519 
0.0500761 -0.0171546 0.998595 
0.0497767 -0.0132695 0.99867 
0.0504682 -0.00980668 0.998675 
0.050412 -0.00672307 0.998703 
0.0504769 -0.00378506 0.998715 
0.0501064 -0.00064781 0.998741 
0.0498773 0.00269933 0.998749 
0.0498525 0.00652924 0.998732 
0.0494966 0.0109326 0.998712 
0.048764 0.0161776 0.998677 
0.0480415 0.0225564 0.998588 
0.0475388 0.0301291 0.998412 
0.0470708 0.0395231 0.998107 
0.0461787 0.0511507 0.99762 
0.0448182 0.0655105 0.996842 
0.0426821 0.0835183 0.995589 
0.0403861 0.107235 0.99341 
0.0378655 0.135385 0.990064 
0.0344571 0.172772 0.984357 
0.0294082 0.223414 0.974276 
0.0247406 0.286925 0.957629 
0.0190345 0.365566 0.930586 
0.0143729 0.451538 0.892131 
0.010087 0.548113 0.836341 
0.0110259 0.571396 0.820598 
0.00686408 0.722459 0.691377 
0.00276139 0.858537 0.512737 
-0.00066338 0.931542 0.363625 
-0.0028694 0.983118 0.182978 
-0.00453102 0.999207 -0.039591 
-0.00558022 0.969377 -0.245507 
-0.00516704 0.955004 -0.296576 
-0.00741808 0.87619 -0.481896 
-0.00843848 0.759228 -0.650779 
-0.0104428 0.644225 -0.764761 
-0.0142707 0.515336 -0.856863 
-0.0192005 0.409824 -0.911958 
-0.0226201 0.333132 -0.942605 
-0.0273081 0.261677 -0.964765 
-0.0321604 0.203726 -0.978495 
-0.0363741 0.154332 -0.987345 
-0.039204 0.120168 -0.991976 
-0.0424927 0.0941801 -0.994645 
-0.0430694 0.0751712 -0.996237 
-0.0452061 0.0578757 -0.997297 
-0.046423 0.0455316 -0.997881 
-0.0471365 0.034925 -0.998275 
-0.0480885 0.0262736 -0.998495 
-0.0486877 0.0195666 -0.99862 
-0.0489404 0.0134528 -0.998708 
-0.0491268 0.00879732 -0.998751 
-0.049493 0.00457192 -0.998761 
-0.049932 0.00100961 -0.998749 
-0.050248 -0.0022114 -0.998732 
-0.0505821 -0.00519288 -0.998704 
-0.0506366 -0.00823299 -0.998681 
-0.0506905 -0.0114443 -0.998646 
-0.0504893 -0.0149338 -0.99861 
-0.0500514 -0.0196388 -0.998551 
-0.0492541 -0.024928 -0.998472 
-0.0483904 -0.0311175 -0.998341 
-0.0474136 -0.0391291 -0.998106 
-0.0468638 -0.0456785 -0.997853 
-0.0466311 -0.0528447 -0.99751 
-0.0441418 -0.0590282 -0.997277 
-0.0445773 -0.0660755 -0.996815 
-0.0398722 -0.065643 -0.99704 
-0.0272174 -0.0431406 -0.998678 
-0.00952504 -0.0282757 -0.999542 
0.0122802 -0.0243663 0.999538 
0.0140363 -0.0329396 0.999369 
0.0356764 -0.0657247 0.997196 
0.0369359 -0.0623716 0.997367 
0.035581 -0.0535641 0.997928 
0.0424238 -0.0496364 0.997863 
0.0390786 -0.0457051 0.998187 
0.0424756 -0.0395815 0.99831 
0.0417806 -0.0325851 0.998593 
0.0439859 -0.0259868 0.998691 
0.0440567 -0.0201403 0.998823 
0.0433743 -0.0154862 0.998936 
0.0440062 -0.0115209 0.998962 
0.0445588 -0.00829092 0.99897 
0.0442013 -0.00519352 0.999007 
0.0441334 -0.00227193 0.999021 
0.0437223 0.000902302 0.999041 
0.0437123 0.00441044 0.999032 
0.0434975 0.00832258 0.999016 
0.0429878 0.0128604 0.99899 
0.0423044 0.0184146 0.998932 
0.0416041 0.0251138 0.998816 
0.0413047 0.0331984 0.998592 
0.0408967 0.0430445 0.998233 
0.0399772 0.0551937 0.997672 
0.0385096 0.070189 0.996787 
0.0365026 0.0900857 0.995262 
0.0340215 0.114718 0.992812 
0.0318159 0.14511 0.988902 
0.0287569 0.185969 0.982129 
0.023897 0.244454 0.969363 
0.0195609 0.313504 0.949381 
0.014628 0.393285 0.919295 
0.0111945 0.4775 0.878556 
0.00675888 0.666543 0.745433 
0.00267277 0.82162 0.570022 
0.00156281 0.882135 0.470998 
0.001158 0.963999 0.265905 
-0.00188148 0.983522 0.180779 
-0.00246885 0.998052 -0.0623614 
-0.00205082 0.987191 -0.159504 
-0.00481252 0.921377 -0.388643 
-0.00703763 0.84329 -0.537411 
-0.00900749 0.720678 -0.693208 
-0.011115 0.601877 -0.79851 
-0.0119764 0.53707 -0.843447 
-0.0149449 0.4525 -0.891637 
-0.017459 0.374804 -0.926936 
-0.021557 0.290821 -0.956531 
-0.0262196 0.225629 -0.973856 
-0.0302407 0.177435 -0.983664 
-0.0328195 0.137591 -0.989941 
-0.0358885 0.104076 -0.993919 
-0.0367431 0.0841434 -0.995773 
-0.0389201 0.0641876 -0.997176 
-0.0397614 0.0499104 -0.997959 
-0.0408552 0.0389783 -0.998402 
-0.0417227 0.0294106 -0.998694 
-0.0421284 0.0220125 -0.998867 
-0.0430383 0.0159698 -0.998943 
-0.0424991 0.0106897 -0.999037 
-0.0431784 0.00631166 -0.999045 
-0.0434358 0.00245692 -0.999051 
-0.0439038 -0.000808078 -0.999033 
-0.0442062 -0.00388373 -0.999012 
-0.0445657 -0.00684079 -0.998981 
-0.0446161 -0.0100742 -0.998951 
-0.0443407 -0.0135915 -0.998921 
-0.0446568 -0.017831 -0.998841 
-0.0433425 -0.0233305 -0.998785 
-0.0423753 -0.0296131 -0.99866 
-0.0424758 -0.0367129 -0.99842 
-0.0408819 -0.0442 -0.998183 
-0.041139 -0.0502876 -0.997884 
-0.038056 -0.0575112 -0.997617 
-0.037737 -0.0659445 -0.997107 
-0.0316925 -0.0615178 -0.997593 
-0.020654 -0.0396671 -0.998991 
-0.00974148 -0.0276361 -0.999547 
0.00911949 -0.0268598 0.999568 
0.0133347 -0.0356295 0.999277 
0.0252271 -0.0538287 0.998212 
0.0289501 -0.0658747 0.997404 
0.0311663 -0.0615046 0.997617 
0.0332363 -0.0497409 0.998206 
0.035488 -0.0428291 0.998449 
0.0369027 -0.0368668 0.998635 
0.0378111 -0.028417 0.998878 
0.0387149 -0.0225599 0.998992 
0.0382852 -0.0173023 0.999114 
0.0385927 -0.0125997 0.999172 
0.0389906 -0.00908804 0.999195 
0.039009 -0.00598913 0.999218 
0.0385872 -0.00289974 0.999248 
0.0384321 5.90049e-05 0.999258 
0.0382171 0.00349332 0.99926 
0.037876 0.00734197 0.999253 
0.037422 0.0116829 0.999228 
0.0370409 0.0167873 0.99917 
0.036481 0.0230849 0.999065 
0.0361161 0.0308059 0.99887 
0.0358007 0.0400824 0.998552 
0.0351745 0.0514267 0.998054 
0.0339876 0.0655822 0.997265 
0.0325303 0.0837238 0.995955 
0.0302701 0.107402 0.993751 
0.0277792 0.138114 0.990023 
0.0254014 0.175628 0.984125 
0.0217612 0.229303 0.973107 
0.01761 0.300651 0.953561 
0.0139189 0.368634 0.929472 
0.0101382 0.483616 0.875216 
0.00710595 0.590012 0.80736 
0.00751754 0.599014 0.800703 
0.0043193 0.746925 0.664888 
0.00295078 0.821937 0.569581 
0.0036336 0.91303 0.407871 
0.00176241 0.991221 0.132187 
0.00364377 0.997017 0.0770698 
1.50241e-05 0.998928 -0.046299 
-0.00431452 0.952856 -0.303388 
-0.00618164 0.86935 -0.494152 
-0.00733414 0.799044 -0.601227 
-0.00907074 0.664989 -0.746807 
-0.0110924 0.531531 -0.846957 
-0.0134971 0.431703 -0.901911 
-0.0164784 0.343731 -0.93892 
-0.0200033 0.264463 -0.964184 
-0.0233645 0.208155 -0.977814 
-0.0265945 0.165205 -0.985895 
-0.0301163 0.124305 -0.991782 
-0.0303902 0.0988992 -0.994631 
-0.0332278 0.0762932 -0.996528 
-0.0342734 0.0596337 -0.997629 
-0.0348796 0.0466096 -0.998301 
-0.0361077 0.0359443 -0.998698 
-0.0364143 0.0274039 -0.998958 
-0.0368139 0.0203685 -0.999112 
-0.0374806 0.014708 -0.999186 
-0.0371665 0.00961241 -0.99926 
-0.0379186 0.00542405 -0.999263 
-0.0379765 0.00184481 -0.999274 
-0.0385745 -0.00136232 -0.999252 
-0.0387471 -0.00433892 -0.999237 
-0.0392214 -0.00739888 -0.9992 
-0.0390625 -0.0106487 -0.999177 
-0.0389378 -0.0145088 -0.999133 
-0.0390378 -0.0190954 -0.999052 
-0.0377509 -0.0249359 -0.998973 
-0.0371433 -0.0320013 -0.998794 
-0.0372126 -0.0394911 -0.998524 
-0.0351232 -0.045974 -0.998321 
-0.0353996 -0.051043 -0.998066 
-0.0323635 -0.058033 -0.997787 
-0.0319518 -0.0655212 -0.997337 
-0.0268812 -0.0621964 -0.997693 
-0.0158166 -0.0373848 -0.99917 
-0.00899912 -0.0271212 -0.99957 
0.0064376 -0.0289198 0.999556 
0.0128309 -0.0407484 0.999074 
0.022377 -0.0586639 0.998015 
0.025221 -0.0652982 0.997544 
0.0290655 -0.056651 0.997968 
0.0279154 -0.0515206 0.998278 
0.0310483 -0.0459891 0.998456 
0.0310117 -0.0390447 0.998753 
0.0335384 -0.0324837 0.998906 
0.0326245 -0.0252001 0.999147 
0.0331579 -0.0198403 0.99925 
0.0336239 -0.0146001 0.999325 
0.0333149 -0.0104579 0.999387 
0.033506 -0.00723246 0.999409 
0.0334982 -0.00422159 0.999427 
0.0328898 -0.00122107 0.999455 
0.0330633 0.00181798 0.999449 
0.0326134 0.00532128 0.999451 
0.0319739 0.00925595 0.999443 
0.0314698 0.013814 0.999406 
0.031291 0.0192722 0.999322 
0.030944 0.0260863 0.999178 
0.0305822 0.0343426 0.998939 
0.0302499 0.0443869 0.998553 
0.0296161 0.0569116 0.997937 
0.028594 0.0732975 0.996897 
0.0271148 0.0944482 0.995157 
0.0250086 0.123332 0.992046 
0.0224915 0.161177 0.986665 
0.020284 0.206985 0.978129 
0.0168416 0.270748 0.962506 
0.0127421 0.363359 0.931554 
0.00958156 0.45915 0.8883 
0.00734274 0.581851 0.813256 
0.00551998 0.686424 0.727175 
0.00607455 0.841801 0.539745 
0.00729975 0.929842 0.367889 
0.0106465 0.961302 0.275164 
0.00368224 0.964668 0.263451 
0.00657245 0.99938 0.0345257 
0.00269155 0.997892 -0.0648038 
-0.00307589 0.96837 -0.249453 
-0.00626677 0.894846 -0.446289 
-0.0059787 0.778815 -0.627224 
-0.00808621 0.688475 -0.7252 
-0.00906215 0.560878 -0.827855 
-0.0115616 0.432536 -0.901534 
-0.0144259 0.348193 -0.937308 
-0.0172643 0.274594 -0.961404 
-0.0199385 0.214615 -0.976489 
-0.0224229 0.168488 -0.985446 
-0.0257016 0.134677 -0.990554 
-0.0252407 0.112636 -0.99331 
-0.0278339 0.0856922 -0.995929 
-0.0290483 0.0672906 -0.997307 
-0.0295132 0.0524243 -0.998186 
-0.0303929 0.0403191 -0.998722 
-0.0309077 0.0311716 -0.999033 
-0.0311927 0.023405 -0.999236 
-0.0315113 0.0170719 -0.999355 
-0.0319927 0.0120074 -0.999413 
-0.032034 0.00718233 -0.999458 
-0.0323801 0.00349095 -0.999467 
-0.0327665 5.39811e-05 -0.99946 
-0.0330461 -0.00293025 -0.999447 
-0.0335848 -0.00600483 -0.999415 
-0.033683 -0.00913703 -0.999388 
-0.0336934 -0.0128597 -0.999346 
-0.0335747 -0.0174935 -0.99928 
-0.0330049 -0.0228492 -0.999191 
-0.032351 -0.030121 -0.999019 
-0.0323285 -0.0383336 -0.998739 
-0.0308348 -0.0462748 -0.998449 
-0.0302539 -0.0528393 -0.998141 
-0.0272239 -0.0598046 -0.997836 
-0.0270234 -0.0659801 -0.997452 
-0.0224793 -0.0638935 -0.997696 
-0.0155027 -0.0417433 -0.998993 
-0.00674216 -0.0279527 -0.999573 
0.00499651 -0.0288376 0.999565 
0.00993593 -0.0406486 0.999114 
0.0200942 -0.0635765 0.997768 
0.0198705 -0.0663547 0.997595 
0.0240307 -0.0599753 0.997908 
0.023168 -0.052802 0.998333 
0.0256246 -0.0454848 0.998633 
0.0251439 -0.0380168 0.998958 
0.0274865 -0.0307286 0.999147 
0.0253858 -0.0241269 0.999388 
0.0272724 -0.0182085 0.999455 
0.0274655 -0.0132235 0.999533 
0.0265647 -0.00927446 0.999601 
0.0270011 -0.00605269 0.999614 
0.0269381 -0.00306824 0.99963 
0.0262916 1.84452e-06 0.999651 
0.0265968 0.0031555 0.999638 
0.025837 0.00677713 0.99964 
0.0251271 0.0109642 0.99962 
0.0248053 0.0159279 0.999564 
0.0248441 0.021851 0.99945 
0.0245177 0.0291318 0.999272 
0.0241685 0.0380318 0.998981 
0.0238804 0.0489104 0.998515 
0.0234726 0.0627775 0.997749 
0.0225793 0.0808852 0.996464 
0.0215111 0.104824 0.994253 
0.0196807 0.135841 0.990531 
0.0175905 0.175616 0.984299 
0.0161912 0.226235 0.973934 
0.0135504 0.295595 0.955212 
0.00979121 0.39499 0.918628 
0.00795226 0.498074 0.867093 
0.00748376 0.614422 0.788938 
0.00478032 0.739289 0.673376 
0.0113633 0.875369 0.483314 
0.0107095 0.977885 0.20882 
0.00869877 0.996196 0.0867652 
0.00681972 0.999442 0.0331816 
0.00543182 0.999463 -0.0320188 
0.00338328 0.995971 -0.0896376 
0.0014614 0.987984 -0.154641 
-0.00183987 0.959791 -0.280658 
-0.00738863 0.851945 -0.523598 
-0.00585711 0.639214 -0.769001 
-0.0057465 0.590931 -0.806697 
-0.00814465 0.491849 -0.870638 
-0.01008 0.385665 -0.922584 
-0.0131493 0.308521 -0.951121 
-0.0155463 0.241778 -0.9702 
-0.017442 0.185253 -0.982532 
-0.0198041 0.142433 -0.989602 
-0.0213473 0.103489 -0.994397 
-0.0224923 0.0808413 -0.996471 
-0.0235474 0.0627597 -0.997748 
-0.024 0.0479723 -0.998557 
-0.0242204 0.0372051 -0.99901 
-0.0247602 0.0284642 -0.999286 
-0.0249444 0.0212962 -0.999459 
-0.0249691 0.0154814 -0.999566 
-0.0261307 0.0104256 -0.999601 
-0.025355 0.00616394 -0.999657 
-0.0262282 0.00247124 -0.99965 
-0.0261197 -0.000673426 -0.999656 
-0.0267474 -0.00371985 -0.999633 
-0.0268838 -0.00669388 -0.999613 
-0.0272631 -0.0100537 -0.999575 
-0.0273938 -0.0140838 -0.999523 
-0.0267259 -0.0188173 -0.999463 
-0.026994 -0.0251788 -0.999316 
-0.0260179 -0.0325623 -0.999128 
-0.0269274 -0.039619 -0.998849 
-0.0247169 -0.0463632 -0.998615 
-0.0255857 -0.0520299 -0.998314 
-0.0226706 -0.0588071 -0.998009 
-0.021651 -0.0665237 -0.997547 
-0.0174456 -0.0626537 -0.997874 
-0.0111434 -0.0378794 -0.999216 
-0.00609939 -0.0281137 -0.999573 
0.00395684 -0.0288614 0.999571 
0.00753995 -0.0412453 0.99911 
0.0148459 -0.0630098 0.997894 
0.015271 -0.067196 0.99762 
0.0190727 -0.0591693 0.998063 
0.0171589 -0.0536501 0.998409 
0.0201638 -0.0478153 0.998649 
0.0191374 -0.0399099 0.999017 
0.0202753 -0.0309184 0.999313 