# vtk DataFile Version 3.0 
Exported using Morpho https://github.com/Morpho-lang/morpho 
ASCII 
DATASET UNSTRUCTURED_GRID 

POINTS 1978 float 
-8.48001 -2.82335 4.75925e-05 
-8.16827 -2.82413 -3.67311e-05 
-7.96913 -2.82523 -0.00013472 
-7.73749 -2.82378 -2.62604e-05 
-7.39439 -2.82286 -8.78916e-05 
-7.16746 -2.82191 2.72543e-05 
-6.95304 -2.82324 3.99214e-05 
-6.71814 -2.8223 0.000118107 
-6.51544 -2.82471 -2.04643e-05 
-6.3154 -2.82356 0.000111481 
-6.12762 -2.82392 -3.50415e-05 
-5.93359 -2.82327 2.81397e-05 
-5.71895 -2.82318 2.93865e-05 
-5.50105 -2.82303 4.82753e-05 
-5.24766 -2.82368 8.93489e-05 
-5.02935 -2.82421 8.35948e-05 
-4.82149 -2.82424 7.8231e-05 
-4.63482 -2.82545 6.93482e-05 
-4.43105 -2.82347 0.000111545 
-4.22836 -2.82435 0.00012715 
-4.02672 -2.82504 0.000167189 
-3.8504 -2.82451 0.000215332 
-3.63024 -2.82435 0.000278401 
-3.41693 -2.82447 0.000348847 
-3.1798 -2.82255 0.000471294 
-2.94426 -2.82354 0.000601407 
-2.6754 -2.82169 0.00072223 
-2.43986 -2.82095 0.000940183 
-2.14373 -2.82447 0.000941885 
-1.9766 -2.82543 0.000938712 
-1.76214 -2.82511 0.00131017 
-1.58325 -2.82549 0.00107037 
-1.40975 -2.82776 0.000893898 
-1.2169 -2.82449 0.000447795 
-1.01879 -2.82883 0.00107302 
-0.833533 -2.82605 0.000536456 
-0.658743 -2.82406 0.000177069 
-0.465225 -2.82576 -0.000118932 
-0.26931 -2.82687 -0.000572796 
0.0715339 -2.8231 0.000171574 
0.287424 -2.82349 0.000189376 
0.456688 -2.82418 -0.00025512 
0.727426 -2.82766 0.000255585 
0.900165 -2.83125 -0.000631154 
1.0389 -2.82601 -0.000708226 
1.17758 -2.82808 -0.00081924 
1.41239 -2.82546 -0.00102558 
1.552 -2.82634 -0.000924528 
1.70262 -2.82467 -0.000704737 
1.8894 -2.82496 -0.00116745 
2.14275 -2.82394 -0.00122535 
2.44302 -2.82273 -0.00110786 
2.70093 -2.82317 -0.000707849 
2.96865 -2.82276 -0.000583607 
3.20027 -2.82477 -0.000408222 
3.42534 -2.82297 -0.000340144 
3.6408 -2.82468 -0.000245382 
3.84058 -2.82526 -0.000195612 
4.03416 -2.82497 -0.000163459 
4.23085 -2.82468 -0.000125653 
4.44208 -2.82445 -0.000114433 
4.64 -2.82399 -9.14126e-05 
4.84577 -2.82375 -7.21524e-05 
5.04124 -2.82384 -8.63193e-05 
5.27044 -2.82384 -6.85381e-05 
5.49076 -2.82318 -4.51595e-05 
5.70921 -2.82335 -6.04283e-05 
5.94093 -2.82358 1.52704e-05 
6.15953 -2.82431 -1.61855e-05 
6.37074 -2.82391 -2.66928e-05 
6.60392 -2.82406 -7.61376e-05 
6.80116 -2.82296 -7.81788e-05 
7.01207 -2.82168 -0.000104121 
7.26377 -2.82114 -2.79204e-05 
7.53667 -2.82296 0.000127545 
7.7797 -2.82544 -1.91783e-05 
8.03183 -2.82507 3.09255e-05 
8.21299 -2.8261 -3.49813e-05 
8.48057 -2.82485 1.00137e-05 
-8.47908 -2.47135 3.27043e-05 
-8.30411 -2.64378 -3.33192e-16 
-8.0407 -2.5275 2.81694e-16 
-7.83345 -2.57668 6.6179e-16 
-7.58038 -2.65897 1.84618e-16 
-7.25447 -2.58283 9.55524e-16 
-7.02321 -2.56614 -3.70647e-16 
-6.806 -2.59413 -2.76764e-17 
-6.579 -2.56839 3.94078e-17 
-6.35983 -2.58624 6.42292e-16 
-6.14784 -2.55346 -1.04433e-17 
-5.93743 -2.57045 -1.05238e-16 
-5.72439 -2.57876 6.14948e-17 
-5.48285 -2.60797 7.21293e-16 
-5.2622 -2.59174 4.70293e-16 
-5.03383 -2.59745 3.86938e-17 
-4.83187 -2.57981 2.77159e-16 
-4.61363 -2.60349 1.43129e-16 
-4.38862 -2.59397 4.07079e-16 
-4.16663 -2.59959 -9.06629e-16 
-3.95926 -2.55989 1.12971e-15 
-3.73715 -2.59695 5.77261e-16 
-3.49415 -2.56499 1.68587e-16 
-3.25604 -2.57723 1.52966e-15 
-2.98908 -2.54679 8.36389e-16 
-2.74834 -2.58042 1.32912e-16 
-2.48894 -2.56493 -1.4965e-16 
-2.25773 -2.65487 -1.75157e-15 
-2.0526 -2.58236 1.81745e-15 
-1.87132 -2.65928 5.86473e-16 
-1.6763 -2.64953 -3.59936e-15 
-1.50874 -2.66917 3.93038e-15 
-1.33302 -2.69602 -1.06979e-14 
-1.16503 -2.69294 6.07337e-15 
-0.981088 -2.70782 6.9096e-15 
-0.889357 -2.62215 7.4169e-15 
-0.765247 -2.72013 4.66653e-15 
-0.556927 -2.72736 2.12622e-15 
-0.294732 -2.75207 -7.16771e-16 
-0.032636 -2.77207 -7.4079e-15 
0.259702 -2.73998 -2.31212e-15 
0.481876 -2.71908 1.99821e-15 
0.662975 -2.75714 -4.52116e-15 
0.915041 -2.71374 -6.30331e-17 
1.07478 -2.67999 -2.76009e-15 
1.22891 -2.6683 -9.09887e-15 
1.35881 -2.71503 8.80827e-15 
1.55824 -2.62323 5.66102e-16 
1.72556 -2.63339 -1.0008e-17 
1.93553 -2.65183 -1.48969e-15 
2.17781 -2.65384 1.85767e-16 
2.3889 -2.59951 -6.55699e-16 
2.64091 -2.5906 8.88213e-16 
2.87378 -2.55372 -1.25525e-15 
3.1198 -2.55862 -5.94949e-16 
3.36444 -2.55826 -1.31351e-15 
3.60138 -2.56766 -1.78571e-16 
3.82882 -2.58298 1.1617e-16 
4.05864 -2.60092 -2.2701e-16 
4.2893 -2.61443 2.9761e-16 
4.50269 -2.59263 -6.09567e-16 
4.71147 -2.59 -1.41434e-16 
4.91837 -2.57456 -5.45578e-16 
5.1362 -2.60274 -1.6925e-16 
5.35774 -2.58519 -1.5279e-16 
5.57632 -2.57854 -4.30811e-16 
5.8043 -2.59764 -2.58342e-16 
6.03204 -2.59182 -2.76815e-17 
6.24828 -2.58763 -8.1324e-17 
6.47366 -2.60913 -3.71519e-17 
6.68426 -2.566 -1.40667e-16 
6.89387 -2.56746 2.09195e-16 
7.12592 -2.59906 -3.53736e-16 
7.38503 -2.61491 -8.6547e-16 
7.63695 -2.59714 -3.50211e-16 
7.87809 -2.61014 -1.70382e-15 
8.07042 -2.51932 5.04705e-16 
8.2902 -2.61776 3.73967e-16 
8.48129 -2.54666 -2.35239e-05 
-8.48209 -2.25213 0.000150814 
-8.21451 -2.39147 7.39364e-16 
-7.91472 -2.27753 1.27411e-16 
-7.69312 -2.40005 8.23759e-16 
-7.58642 -2.23316 1.94704e-16 
-7.43439 -2.5002 -6.58891e-17 
-7.12216 -2.3427 3.51773e-16 
-6.88797 -2.3074 2.6817e-16 
-6.70605 -2.35408 2.48054e-16 
-6.46539 -2.34292 6.56374e-17 
-6.25391 -2.3289 -1.52814e-16 
-6.03352 -2.31874 1.43298e-16 
-5.82023 -2.32514 1.60118e-16 
-5.60354 -2.37397 2.71012e-16 
-5.38589 -2.36262 -4.35966e-16 
-5.16095 -2.37698 -3.32787e-16 
-4.95078 -2.34576 1.1671e-18 
-4.73326 -2.3682 3.53685e-18 
-4.5176 -2.39052 -5.15407e-16 
-4.28493 -2.37423 -2.90236e-16 
-4.08372 -2.34302 4.83292e-17 
-3.83804 -2.34236 -5.35146e-16 
-3.62023 -2.34708 -9.54403e-16 
-3.37055 -2.3141 -2.9992e-16 
-3.13436 -2.33825 6.11639e-16 
-2.87416 -2.29454 1.43463e-15 
-2.65002 -2.34249 1.90745e-16 
-2.38095 -2.38028 1.8647e-15 
-2.21087 -2.41548 -5.77079e-16 
-1.99657 -2.40469 3.77218e-15 
-1.81168 -2.49615 -3.52968e-15 
-1.6203 -2.48328 -8.69406e-15 
-1.45147 -2.52713 1.12367e-14 
-1.28413 -2.54949 -6.13784e-16 
-1.09915 -2.58412 -7.09494e-15 
-0.830488 -2.5354 4.7174e-15 
-0.664027 -2.63371 -1.01126e-15 
-0.432805 -2.66339 3.2414e-15 
-0.188439 -2.68838 -4.35947e-15 
0.0468148 -2.7007 8.63237e-15 
0.284528 -2.65875 -1.0213e-15 
0.522689 -2.63737 -2.26433e-15 
0.729693 -2.66906 -3.90154e-15 
0.877196 -2.60775 4.75316e-15 
1.05015 -2.548 -1.94605e-15 
1.23157 -2.54912 5.99011e-15 
1.42709 -2.54894 8.55272e-16 
1.62805 -2.45426 2.53079e-15 
1.80188 -2.44894 5.0336e-15 
1.98041 -2.47673 1.99635e-16 
2.17762 -2.44769 1.65944e-15 
2.39587 -2.36546 -7.37694e-16 
2.6135 -2.3708 1.33013e-15 
2.86812 -2.29639 -1.29945e-15 
3.12275 -2.32615 1.87715e-16 
3.37508 -2.31006 1.4005e-15 
3.62062 -2.33982 5.71924e-16 
3.86507 -2.34778 -3.23645e-17 
4.07747 -2.38786 1.70594e-16 
4.27834 -2.37177 1.40098e-16 
4.47814 -2.36607 5.44448e-16 
4.68324 -2.35558 3.48944e-16 
4.88863 -2.33962 2.08866e-17 
5.09377 -2.35619 2.87465e-16 
5.30062 -2.35227 5.75629e-17 
5.51584 -2.33892 1.09721e-17 
5.73946 -2.36089 -2.2184e-16 
5.95955 -2.36676 -8.94457e-17 
6.18074 -2.35457 1.51265e-16 
6.40479 -2.3808 1.40045e-17 
6.61611 -2.33714 3.87609e-17 
6.83712 -2.31904 -4.54459e-16 
7.06522 -2.35526 -4.20421e-16 
7.30018 -2.39201 -1.34919e-17 
7.54427 -2.38221 -1.16437e-15 
7.79057 -2.37391 -1.61546e-16 
8.00188 -2.28656 -7.84504e-16 
8.25226 -2.34893 2.13665e-16 
8.48239 -2.31542 4.94343e-05 
-8.48132 -2.06544 7.02119e-05 
-8.18884 -2.19568 -2.77986e-16 
-8.06829 -2.02412 -4.00876e-16 
-7.81636 -2.07716 -1.91956e-16 
-7.53587 -2.03048 6.10368e-17 
-7.34425 -2.29152 3.32689e-16 
-7.02926 -2.11225 -2.04376e-16 
-6.80336 -2.03809 1.7932e-16 
-6.59768 -2.14217 2.44186e-16 
-6.35803 -2.10876 2.40153e-17 
-6.12988 -2.09984 4.31602e-16 
-5.89724 -2.09263 3.77031e-17 
-5.6671 -2.11528 1.22199e-16 
-5.46519 -2.13368 -2.10221e-17 
-5.23748 -2.14599 3.60441e-16 
-5.02666 -2.1249 2.41249e-16 
-4.79314 -2.1344 3.98816e-16 
-4.58242 -2.15922 1.12186e-16 
-4.38089 -2.17258 4.42193e-16 
-4.17827 -2.10152 1.83348e-16 
-3.9554 -2.12984 5.96021e-16 
-3.72543 -2.08445 1.15535e-15 
-3.50202 -2.10439 1.27907e-15 
-3.24555 -2.08367 1.19517e-15 
-3.02564 -2.1037 2.37105e-15 
-2.77951 -2.07121 1.20401e-15 
-2.5463 -2.17474 2.06384e-15 
-2.38948 -2.11664 3.30522e-15 
-2.18472 -2.23637 -2.63363e-15 
-1.97756 -2.24125 -1.36261e-14 
-1.79523 -2.33836 1.84188e-15 
-1.63765 -2.3079 6.45563e-15 
-1.45598 -2.37789 -2.08605e-14 
-1.30965 -2.38623 5.78326e-15 
-1.15777 -2.45798 -2.22472e-15 
-0.98888 -2.48701 -4.36849e-15 
-0.615761 -2.54866 2.00956e-15 
-0.402658 -2.58475 1.22282e-15 
-0.178519 -2.61672 8.81424e-16 
0.0738622 -2.62433 -4.77404e-15 
0.351465 -2.57814 5.70408e-15 
0.461529 -2.51286 5.31933e-15 
0.643177 -2.57215 -1.17212e-15 
0.851169 -2.523 -5.64213e-16 
1.05678 -2.42544 -1.48385e-14 
1.22965 -2.42628 -3.98474e-15 
1.44697 -2.43621 3.93227e-15 
1.70563 -2.28432 1.10108e-14 
1.88165 -2.27511 6.99309e-15 
2.06152 -2.27232 4.52054e-16 
2.23284 -2.22754 2.42828e-15 
2.43412 -2.15921 -1.00032e-15 
2.64626 -2.14864 -3.0813e-15 
2.87876 -2.08154 -2.61753e-15 
3.08804 -2.07807 -2.73216e-15 
3.31385 -2.08559 -2.24957e-15 
3.57077 -2.0995 -1.33212e-15 
3.8095 -2.12266 -5.73827e-16 
4.05776 -2.13939 -3.89978e-16 
4.28465 -2.14636 -4.00077e-16 
4.50294 -2.12586 -9.41396e-17 
4.70885 -2.11936 -5.35372e-16 
4.91933 -2.09897 -4.86485e-16 
5.13631 -2.12986 -6.29421e-16 
5.36188 -2.1072 -5.65283e-17 
5.59006 -2.11685 -2.11822e-17 
5.80781 -2.12828 -1.66329e-16 
6.02174 -2.13061 -3.47268e-17 
6.24898 -2.13542 -1.01769e-16 
6.45301 -2.13208 1.65753e-16 
6.67405 -2.09578 -3.52627e-16 
6.9036 -2.08736 -1.17166e-16 
7.12062 -2.12946 1.98888e-16 
7.35344 -2.16478 -6.64832e-17 
7.54415 -2.09422 1.45805e-16 
7.73296 -2.15075 -5.06878e-16 
7.94698 -2.05531 8.89776e-16 
8.19849 -2.11894 3.97706e-16 
8.48058 -2.12306 -0.000113474 
-8.48207 -1.76799 0.000103152 
-8.31062 -1.95242 -3.7613e-16 
-7.97988 -1.83377 -1.89142e-16 
-7.74057 -1.86934 2.8995e-16 
[...]
POINT_DATA 1978 
VECTORS vectors float
0.0852556 -0.114019 0.989864 
0.0830762 -0.0568167 0.995285 
0.0832333 -0.0193087 0.996724 
0.0935299 0.00818097 0.996047 
0.0968695 0.0370099 0.994988 
0.10883 0.0259373 0.993864 
0.106798 0.0115897 0.99433 
0.1001 0.0061829 0.995128 
0.0960771 0.0114609 0.995385 
0.0920151 0.0172055 0.995982 
0.094834 0.0260215 0.995297 
0.0965351 0.0336926 0.995016 
0.0990533 0.0383906 0.994583 
0.09975 0.0409105 0.994381 
0.101354 0.0450863 0.993986 
0.10012 0.0507792 0.993854 
0.0974638 0.0600872 0.993637 
0.0961015 0.0704342 0.993094 
0.0956706 0.080109 0.992403 
0.093504 0.0891503 0.991843 
0.0919393 0.100751 0.990918 
0.08873 0.113097 0.989897 
0.0848059 0.12916 0.988305 
0.0804498 0.146479 0.986293 
0.0758535 0.167192 0.983427 
0.071425 0.18865 0.979919 
0.0667575 0.214851 0.974884 
0.0608215 0.235712 0.97035 
0.0543057 0.268272 0.962231 
0.0520038 0.295942 0.954109 
0.0570066 0.327499 0.943447 
0.045934 0.355071 0.933894 
0.0306467 0.40642 0.91332 
0.0125633 0.494654 0.868973 
0.0111998 0.586432 0.810189 
-0.00468589 0.675908 0.736767 
-0.00620623 0.760819 0.64909 
-0.010094 0.868992 0.49471 
0.000164059 0.954063 0.300639 
0.00307897 0.996721 -0.0824686 
0.00401449 0.941456 -0.337576 
0.00947583 0.873652 -0.486997 
0.0105957 0.724736 -0.689098 
-0.0107445 0.619204 -0.785246 
-0.0130196 0.555179 -0.831836 
-0.0160006 0.500452 -0.865788 
-0.0291695 0.409042 -0.912253 
-0.0361543 0.373492 -0.927107 
-0.0355296 0.336714 -0.94124 
-0.0464352 0.300363 -0.952956 
-0.0554052 0.258657 -0.964727 
-0.0655179 0.233781 -0.970448 
-0.0676223 0.213304 -0.975095 
-0.0701119 0.187871 -0.980179 
-0.0749601 0.166217 -0.983673 
-0.0790368 0.143218 -0.986912 
-0.0839654 0.124117 -0.989051 
-0.0879633 0.109472 -0.990382 
-0.0915093 0.0976365 -0.991255 
-0.0944996 0.0870386 -0.991922 
-0.0973413 0.0781003 -0.992365 
-0.0983677 0.0702877 -0.992872 
-0.0992701 0.0629935 -0.993288 
-0.100119 0.0562477 -0.993591 
-0.0997251 0.0490159 -0.993995 
-0.100776 0.0433037 -0.994174 
-0.100334 0.0392041 -0.994396 
-0.0975187 0.0329453 -0.994922 
-0.0946095 0.0204311 -0.995547 
-0.0946273 0.00648445 -0.995685 
-0.0988845 -0.00462345 -0.995249 
-0.106473 -0.00258039 -0.994458 
-0.112081 0.0154159 -0.993667 
-0.114783 0.0548891 -0.991965 
-0.0961238 0.0822442 -0.992491 
-0.0846653 0.0554304 -0.995789 
-0.0744409 0.0102591 -0.997828 
-0.0753603 -0.0314152 -0.997308 
-0.0728126 -0.0899431 -0.993546 
0.0533175 -0.110371 0.992705 
0.0652691 -0.0769488 0.995776 
0.0550142 -0.0342149 0.998949 
0.0616184 -0.00894083 0.999084 
0.0757232 0.0172361 0.997859 
0.0692937 0.0239574 0.998058 
0.0759107 0.0183266 0.99794 
0.0793199 0.0158877 0.9974 
0.0650107 0.0161477 0.998678 
0.0655371 0.0174759 0.998511 
0.0609104 0.0209725 0.998906 
0.0686617 0.0278125 0.998115 
0.0710942 0.0342204 0.997742 
0.0714118 0.0402882 0.997491 
0.0715899 0.0449824 0.997238 
0.0713698 0.0510409 0.996955 
0.0672546 0.058898 0.996816 
0.0689817 0.0703101 0.995957 
0.0645881 0.0823701 0.995344 
0.0626347 0.0954393 0.994312 
0.0472156 0.110757 0.993625 
0.0454044 0.125808 0.991988 
0.029876 0.145678 0.98996 
0.0174015 0.167091 0.986926 
-0.00113151 0.192941 0.982457 
-0.0018835 0.212281 0.978479 
-0.0202683 0.239101 0.971999 
-0.00117119 0.263592 0.965574 
-0.0388686 0.298726 0.954329 
-0.00853738 0.316895 0.949129 
-0.0153297 0.344003 0.939518 
-0.0262879 0.391083 0.920597 
-0.0170497 0.437967 0.899553 
-0.0269707 0.515342 0.856916 
-0.037543 0.596104 0.802749 
-0.0664463 0.643147 0.763468 
-0.0325039 0.7052 0.708655 
-0.0285787 0.8214 0.569773 
-0.00798171 0.943148 0.332255 
0.00204072 0.999248 0.0374071 
0.0105409 0.951497 -0.30784 
0.0170173 0.860291 -0.509603 
0.0225312 0.761374 -0.648201 
0.0238885 0.612725 -0.79037 
0.0391506 0.541691 -0.839959 
0.0443176 0.470623 -0.881874 
0.015431 0.426913 -0.904787 
0.045605 0.377029 -0.925748 
0.0365392 0.337213 -0.941433 
0.0210671 0.297832 -0.955105 
0.00524465 0.26035 -0.966569 
0.0125269 0.243702 -0.970886 
0.00373899 0.221362 -0.976455 
0.00656896 0.20442 -0.979994 
-0.00712983 0.179586 -0.98508 
-0.0191989 0.156143 -0.988489 
-0.0341791 0.13402 -0.991552 
-0.0483489 0.11642 -0.992916 
-0.0583361 0.100485 -0.993935 
-0.0665964 0.0853033 -0.995078 
-0.0657719 0.0749456 -0.995823 
-0.0688426 0.0664116 -0.996229 
-0.0686413 0.0591892 -0.996588 
-0.0732624 0.0519305 -0.996924 
-0.0701515 0.0449141 -0.997382 
-0.0695213 0.0387258 -0.997705 
-0.0702716 0.0316705 -0.997905 
-0.0652189 0.0220828 -0.998493 
-0.0630036 0.012866 -0.998769 
-0.0661623 0.00707182 -0.998573 
-0.063656 0.0101326 -0.998685 
-0.0711455 0.0178068 -0.998085 
-0.0789397 0.0323767 -0.997143 
-0.0768152 0.0529367 -0.996559 
-0.0635089 0.051258 -0.997734 
-0.0536404 0.0293413 -0.999109 
-0.0372177 -0.0166463 -1.00051 
-0.0419147 -0.0502837 -0.998781 
-0.0319446 -0.09408 -0.995467 
0.0285999 -0.106574 0.99417 
0.043707 -0.0663502 0.997869 
0.0328656 -0.0235241 1.00032 
0.0448609 0.000456939 0.999949 
0.0306021 0.00720442 1.00028 
0.0615499 0.0194666 0.998964 
0.042435 0.0197518 0.999844 
0.0369196 0.0225032 0.999835 
0.0412891 0.021479 0.999879 
0.0351634 0.0184375 0.999877 
0.0337855 0.0170167 0.99996 
0.0338109 0.0202847 1.00007 
0.0371067 0.0271732 0.999806 
0.0452074 0.0341306 0.999263 
0.0476013 0.0390162 0.998949 
0.0509321 0.0466823 0.99843 
0.0457701 0.0550125 0.998255 
0.044847 0.064825 0.997704 
0.0447722 0.0766614 0.996879 
0.0361704 0.0923725 0.99593 
0.0247065 0.108665 0.994672 
0.0132561 0.128341 0.992608 
0.00128061 0.146055 0.990331 
-0.0244703 0.171874 0.985937 
-0.039634 0.195058 0.981118 
-0.0714789 0.224284 0.9731 
-0.0771523 0.241622 0.968458 
-0.0871161 0.267359 0.960727 
-0.0869574 0.2843 0.955665 
-0.110448 0.31704 0.942691 
-0.0785984 0.334802 0.939676 
-0.0853296 0.379091 0.92202 
-0.0857513 0.414775 0.90651 
-0.0791884 0.465122 0.882365 
-0.066932 0.534114 0.843519 
-0.0835129 0.677751 0.731021 
-0.0468882 0.766987 0.640196 
-0.0289933 0.884382 0.465886 
-0.0066127 0.974748 0.223031 
0.00432052 0.998606 -0.0458529 
0.0123433 0.947127 -0.321489 
0.0239364 0.828919 -0.558829 
0.0356971 0.724739 -0.688422 
0.0504748 0.637024 -0.769622 
0.0895544 0.56044 -0.82374 
0.0901259 0.478248 -0.874052 
0.0829861 0.408109 -0.909782 
0.112296 0.369785 -0.922774 
0.105067 0.334367 -0.937192 
0.0859286 0.301302 -0.95052 
0.0828895 0.279997 -0.95719 
0.0953239 0.265182 -0.960464 
0.0729349 0.240712 -0.969037 
0.0736767 0.224876 -0.972818 
0.0439968 0.195336 -0.980882 
0.0255239 0.170278 -0.986351 
0.00194758 0.144849 -0.990343 
-0.0138807 0.122844 -0.993299 
-0.0298943 0.105352 -0.99486 
-0.0359838 0.0915393 -0.996002 
-0.0416055 0.0793077 -0.996673 
-0.0450245 0.0685562 -0.997565 
-0.0450265 0.0593064 -0.998049 
-0.0476389 0.0516923 -0.998375 
-0.0466206 0.0445252 -0.998647 
-0.0433819 0.0371997 -0.999224 
-0.04287 0.0290035 -0.999538 
-0.0421197 0.0204686 -0.999767 
-0.0352187 0.0129346 -1.00012 
-0.0378004 0.0107733 -1.00001 
-0.0347002 0.0158539 -1.00002 
-0.0337316 0.0246367 -1.00003 
-0.042371 0.0289681 -0.999566 
-0.0477532 0.0359007 -0.999033 
-0.0393084 0.0373034 -0.999584 
-0.030944 0.0225186 -1.00041 
-0.0153138 -0.0117322 -1.00068 
-0.0101918 -0.0539848 -0.999588 
0.00391952 -0.0993699 -0.995422 
0.0122615 -0.123708 0.992564 
0.0261542 -0.0618214 0.998723 
0.013167 -0.0532269 0.999417 
0.0124054 -0.0178777 1.00079 
0.0128499 0.00699844 1.00076 
0.0378284 0.0192463 1.00004 
0.0181034 0.0242079 1.00062 
0.00503562 0.0314619 1.00031 
0.00956168 0.0244767 1.00041 
0.00616117 0.0165143 1.00074 
0.00213813 0.0136856 1.00083 
0.00839701 0.0184319 1.00053 
0.0149253 0.0265709 1.0004 
0.0215242 0.0337265 1.00005 
0.0242313 0.0428112 0.999641 
0.022885 0.0514467 0.999266 
0.0223329 0.0627338 0.998618 
0.0207993 0.0749876 0.997784 
0.0157708 0.0894784 0.996696 
0.00118542 0.108896 0.99493 
-0.00905341 0.128195 0.992644 
-0.0319057 0.15322 0.988698 
-0.0501699 0.176221 0.984141 
-0.0797302 0.207328 0.976107 
-0.0992077 0.229101 0.969471 
-0.133499 0.264482 0.956267 
-0.137342 0.278338 0.951528 
-0.173534 0.308136 0.936216 
-0.155088 0.310738 0.938534 
-0.174053 0.339386 0.925048 
-0.154526 0.353044 0.923411 
-0.176702 0.385908 0.905961 
-0.145896 0.426261 0.893218 
-0.16324 0.468263 0.868959 
-0.12219 0.528753 0.840458 
-0.103285 0.604854 0.789954 
-0.0569002 0.793725 0.605924 
-0.0371982 0.892498 0.449655 
-0.012468 0.978305 0.206993 
0.00295237 0.996752 -0.0800234 
0.0171501 0.924974 -0.379614 
0.0345993 0.869467 -0.492383 
0.0436108 0.773103 -0.633187 
0.0754256 0.648838 -0.757455 
0.145154 0.553236 -0.82074 
0.147507 0.479842 -0.865332 
0.137285 0.411821 -0.90122 
0.198409 0.372208 -0.907426 
0.182054 0.344125 -0.921613 
0.170332 0.317787 -0.933514 
0.157232 0.30165 -0.940926 
0.157588 0.287816 -0.945598 
0.134625 0.26492 -0.955878 
0.126589 0.252941 -0.960408 
0.103608 0.231011 -0.968317 
0.076016 0.200913 -0.977768 
0.0457294 0.167694 -0.98586 
0.0210443 0.140449 -0.990868 
0.00216122 0.116067 -0.994299 
-0.00955045 0.0969274 -0.995985 
-0.0163234 0.0810488 -0.997534 
-0.0189992 0.0683449 -0.998189 
-0.0193127 0.0572933 -0.99913 
-0.0222995 0.0484807 -0.999301 
-0.0199782 0.0395433 -0.999996 
-0.0181437 0.0304306 -1.00023 
-0.0143011 0.0212101 -1.00054 
-0.0115092 0.013305 -1.00069 
-0.00849302 0.00941514 -1.00071 
-0.00639362 0.0128636 -1.00064 
-0.00258138 0.0235526 -1.00043 
-0.00578031 0.030446 -1.0002 
-0.0132081 0.0266418 -1.00054 
-0.0178657 0.0273838 -1.00047 
-0.0104008 0.0238153 -1.00059 
-0.0119403 0.0137969 -1.00059 
0.00475133 -0.0153448 -1.00092 
0.0103487 -0.0539756 -0.999489 
0.0218898 -0.108685 -0.994256 
-0.0148487 -0.12685 0.992223 
0.00261671 -0.0685483 0.998641 
0.0025526 -0.034524 1.00013 
0.00362801 -0.013389 1.00077 
0.00200494 0.0089336 1.00109 
0.0190715 0.0166584 1.00053 
0.000455618 0.016962 1.00098 
-0.00437152 0.0317981 1.00044 
-0.0136433 0.0360125 1.00005 
-0.010803 0.0233014 1.00039 
-0.0114407 0.0110809 1.00067 
-0.00585641 0.00994327 1.00069 
-0.00159115 0.0158672 1.00083 
-0.000982978 0.0231657 1.00056 
0.00673128 0.0334171 1.00023 
0.00787847 0.0420873 0.999906 
0.00949569 0.053076 0.999368 
0.00825692 0.0664189 0.998573 
0.00385246 0.0813564 0.997486 
-0.00307211 0.0986759 0.995965 
-0.0189775 0.124875 0.992922 
-0.034489 0.148191 0.989372 
-0.0624111 0.181449 0.982479 
-0.0865079 0.207634 0.975473 
-0.117448 0.240473 0.964655 
-0.135054 0.258745 0.95765 
-0.174833 0.298 0.939497 
-0.190077 0.312119 0.931679 
-0.234745 0.347945 0.908344 
-0.213759 0.340308 0.91629 
-0.264155 0.367517 0.892386 
-0.235471 0.376649 0.896368 
-0.256141 0.423381 0.869289 
-0.243508 0.448677 0.860246 
-0.172414 0.536938 0.826238 
-0.146994 0.620012 0.771045 
-0.102327 0.710936 0.696118 
-0.0644407 0.832214 0.551422 
-0.0330795 0.933221 0.357365 
-0.0121258 0.991182 0.129978 
0.0066614 0.981478 -0.189402 
0.0497814 0.822502 -0.566144 
0.0703935 0.709584 -0.701293 
0.161467 0.584948 -0.795188 
0.223987 0.475094 -0.851322 
0.201904 0.426909 -0.881977 
0.243757 0.394485 -0.886367 
0.325303 0.405611 -0.854541 
0.277137 0.375151 -0.885165 
0.240108 0.342969 -0.908589 
0.23445 0.33354 -0.913828 
0.212709 0.317661 -0.924824 
0.185137 0.301712 -0.936079 
0.164158 0.288437 -0.944264 
0.13832 0.266512 -0.954979 
0.110142 0.234349 -0.96707 
0.0773973 0.196347 -0.978663 
0.0509809 0.165194 -0.986015 
0.0281253 0.137327 -0.991085 
0.0119563 0.11392 -0.9943 
0.00139598 0.0937628 -0.996429 
-0.00438723 0.0765614 -0.997871 
-0.00772006 0.062298 -0.998841 
-0.00942697 0.0498898 -0.999525 
-0.00715748 0.0401692 -0.999989 
-0.00335837 0.0302406 -1.00036 
0.000220022 0.0200942 -1.00064 
0.00537333 0.0109139 -1.00077 
0.00737505 0.00603191 -1.00077 
0.0111782 0.00867775 -1.00068 
0.014449 0.0201823 -1.00042 
0.0153154 0.034121 -1.00005 
0.0125545 0.0320382 -1.00052 
0.00478973 0.0198612 -1.00091 
0.00384778 0.0158292 -1.00089 
0.00864075 -0.000788463 -1.00087 
0.0198162 -0.0425463 -0.999756 
0.0266767 -0.0743313 -0.997778 
0.0424137 -0.118959 -0.992223 
-0.0104551 -0.137493 0.990543 
-0.00383661 -0.080122 0.997557 
-0.00348087 -0.0904932 0.997079 
-0.00553313 -0.0379892 1.00016 
-0.00280319 -0.0173856 1.0007 
-0.0172543 0.0216326 1.0008 
-0.0234207 0.0339922 1.00024 
-0.0245424 0.039527 0.999781 
-0.0233589 0.023296 1.00027 
-0.0204767 0.0107863 1.00058 
-0.020845 0.00483512 1.00068 
-0.0186197 0.00844004 1.00067 
-0.0159806 0.0156615 1.00059 
-0.0073169 0.0264095 1.00047 
-0.0021306 0.0351767 1.00024 
0.00182673 0.0474285 0.999743 
0.00084768 0.0625942 0.998891 
-0.00578613 0.0827989 0.997405 
-0.0136418 0.103201 0.995425 
-0.0241223 0.125116 0.99276 
-0.0463645 0.158802 0.98723 
-0.0675572 0.187926 0.980964 
-0.100346 0.228117 0.96965 
-0.129084 0.262799 0.957463 
-0.157307 0.296055 0.943384 
-0.184486 0.321317 0.929832 
-0.228014 0.359768 0.905538 
-0.262265 0.389488 0.883542 
-0.277397 0.380973 0.882561 
-0.308589 0.39646 0.865122 
-0.326866 0.405828 0.853892 
-0.304408 0.408113 0.861135 
-0.345034 0.467874 0.814117 
-0.362498 0.494917 0.79003 
-0.251188 0.483211 0.839202 
-0.230002 0.561557 0.794789 
-0.182294 0.643928 0.743391 
-0.130941 0.732767 0.668256 
-0.0338659 0.949358 0.306908 
-0.00221878 0.99998 0.0219153 
0.0131115 0.950989 -0.310269 
0.0766267 0.760901 -0.643402 
0.131825 0.633144 -0.762892 
0.229036 0.536904 -0.812094 
0.303986 0.462023 -0.833374 
0.312628 0.422435 -0.851103 
0.364616 0.427003 -0.827733 
0.389525 0.435781 -0.811774 
0.310043 0.385437 -0.869564 
0.292343 0.378885 -0.878552 
0.286039 0.3889 -0.876364 
0.239632 0.355708 -0.904119 
0.20549 0.335929 -0.920097 
0.172489 0.312457 -0.935334 
0.148351 0.294535 -0.945251 
0.114598 0.249613 -0.96276 
0.0861907 0.213643 -0.974243 
0.0585028 0.175065 -0.983875 
0.0366513 0.14254 -0.990079 
0.0208524 0.115359 -0.994002 
0.0103678 0.0917392 -0.99659 
0.00325214 0.0723914 -0.998223 
0.000692903 0.0565018 -0.999245 
0.00106134 0.0437604 -0.999884 
0.00378929 0.0329806 -1.0003 
0.00768201 0.0232231 -1.00056 
0.0121407 0.0136597 -1.00072 
0.0161543 0.00512969 -1.00075 
0.0197381 0.00163409 -1.00058 
0.0243788 0.00579571 -1.00062 
0.0253608 0.021581 -1.00024 
0.0276928 0.0378793 -0.999734 
0.0263082 0.0343839 -1.00003 
0.0180562 0.0161027 -1.00096 
0.0132994 0.00484628 -1.00101 
0.0140193 -0.0107983 -1.00079 
0.0177582 -0.0426823 -0.999804 
0.023938 -0.0774187 -0.997563 
0.0352971 -0.13314 -0.990571 
-0.000164566 -0.131459 0.991459 
-0.0048371 -0.0916946 0.996789 
-0.00865679 -0.0563458 0.999255 
-0.0142429 -0.0243438 1.00065 
-0.0105315 0.00890319 1.001 
-0.0309869 0.0271923 1.00029 
-0.0365457 0.0390338 0.999455 
-0.0392824 0.0384269 0.99928 
-0.0351827 0.0283559 0.999584 
-0.0369706 0.00725529 0.999942 
-0.0349915 0.000991075 1.00018 
-0.0290875 0.0019309 1.00021 
-0.0253962 0.00888251 1.00041 
-0.0207564 0.0182284 1.00023 
-0.0143067 0.027518 1.00026 
-0.00997431 0.0395626 1.00006 
-0.00826425 0.0543071 0.999171 
-0.011161 0.0725984 0.998071 
-0.0171901 0.0957515 0.996143 
-0.0275368 0.122664 0.99275 
-0.0432882 0.150556 0.988491 
-0.0709263 0.198944 0.978334 
-0.0996129 0.234658 0.967921 
-0.129558 0.282795 0.95139 
-0.157085 0.316774 0.936462 
-0.192392 0.356465 0.915207 
-0.227893 0.379574 0.897315 
-0.270042 0.437172 0.858516 
-0.306266 0.428458 0.850635 
-0.35719 0.466466 0.809489 
-0.377128 0.44289 0.813689 
-0.410229 0.446828 0.795491 
-0.372072 0.44234 0.816317 
-0.45261 0.48693 0.747065 
-0.400485 0.523558 0.752015 
-0.319106 0.513315 0.796938 
-0.216567 0.623808 0.751581 
-0.120397 0.805164 0.576719 
-0.0646223 0.863338 0.503452 
-0.0029198 0.999827 0.0165748 
0.0120419 0.943178 -0.332694 
0.107283 0.672123 -0.734469 
0.26462 0.587422 -0.761917 
0.31228 0.510695 -0.801042 
0.382016 0.442659 -0.811551 
0.438743 0.462291 -0.770981 
0.438802 0.460562 -0.771949 
0.42844 0.472309 -0.770827 
0.353115 0.422247 -0.835222 
0.33259 0.425774 -0.841875 
0.346373 0.476375 -0.80878 
0.305142 0.443895 -0.843025 
0.256155 0.39387 -0.883445 
0.21725 0.373843 -0.902586 
0.179207 0.352283 -0.919693 
0.141216 0.302727 -0.943698 
0.112957 0.261539 -0.959544 
0.0821379 0.216602 -0.973717 
0.0559579 0.173499 -0.984118 
0.0357388 0.13621 -0.990874 
0.0208001 0.104417 -0.995117 
0.0126501 0.0793261 -0.997539 
0.00947 0.0585855 -0.999004 
0.01055 0.0427922 -0.999771 
0.0134088 0.0304722 -1.00018 
0.0179268 0.0200169 -1.00037 
0.0227319 0.010272 -1.00042 
0.0274921 0.00168872 -1.00036 
0.0305573 -0.00277138 -1.00037 
0.0343474 0.00273175 -0.999982 
0.0368128 0.022099 -0.999676 
0.0385362 0.0399727 -0.999094 
0.0383243 0.0389998 -0.99955 
0.0331742 0.0206621 -1.00042 
0.026827 0.00534331 -1.00065 
0.0206162 -0.015741 -1.00059 
0.0165977 -0.053225 -0.999314 
0.0172314 -0.0945735 -0.996207 
0.0124329 -0.137026 -0.990554 
0.00170427 -0.130283 0.991628 
-0.00727539 -0.0768853 0.997861 
-0.0117661 -0.0360807 0.999997 
-0.023681 -0.0117244 1.0005 
-0.0258222 0.00805251 1.00063 
-0.033957 0.0370947 0.999727 
-0.0349431 0.0477288 0.999036 
-0.0356389 0.0355797 0.999063 
-0.0397329 0.0172168 0.999501 
-0.0287156 0.00285666 1.00001 
-0.0327999 -0.00327614 0.999934 
-0.0232786 -0.00162751 1.00027 
-0.0170794 0.00661732 1.00037 
-0.0128789 0.0168716 1.00037 
-0.00745505 0.0279823 1.00021 
-0.00531219 0.0419087 0.999771 
-0.00494811 0.0597658 0.998898 
-0.0075271 0.0816068 0.997328 
-0.0154378 0.11768 0.993607 
-0.028979 0.150178 0.98906 
-0.0508058 0.182181 0.982701 
-0.0780759 0.236839 0.969204 
-0.103536 0.27614 0.956379 
-0.128323 0.323274 0.938558 
-0.164782 0.359555 0.91925 
-0.198211 0.402002 0.894511 
-0.235129 0.424246 0.874877 
-0.279174 0.479429 0.83238 
-0.314939 0.492846 0.811469 
-0.347573 0.506575 0.789359 
-0.407245 0.529226 0.744559 
-0.442494 0.517047 0.732846 
-0.460782 0.473227 0.75081 
-0.5369 0.513742 0.669622 
-0.466637 0.509079 0.723338 
-0.510137 0.518364 0.68594 
-0.338782 0.543014 0.7683 
-0.223638 0.644578 0.729796 
-0.0490342 0.90997 0.410035 
-0.00124582 1.00002 0.0374176 
0.0168923 0.922639 -0.384932 
0.105422 0.692119 -0.712467 
0.420361 0.462427 -0.781204 
0.508421 0.501612 -0.698893 
0.464899 0.478148 -0.745609 
0.518243 0.502654 -0.691804 
0.481723 0.49605 -0.72253 
0.45225 0.507823 -0.73337 
0.388066 0.464848 -0.796141 
0.398524 0.51864 -0.756874 
0.314269 0.511191 -0.800489 
0.281468 0.463383 -0.840712 
0.251 0.427567 -0.868721 
0.201223 0.408729 -0.890793 
0.157291 0.359201 -0.920645 
0.123037 0.314244 -0.942324 
0.0956773 0.266256 -0.960023 
0.0659917 0.222122 -0.973551 
0.0436868 0.180418 -0.983322 
0.0258248 0.139486 -0.990609 
0.0118145 0.104956 -0.995007 
0.00563716 0.0747892 -0.997977 
0.00384674 0.0555325 -0.999012 
0.00361409 0.039519 -0.99993 
0.00851993 0.0265819 -1.0002 
0.0127825 0.0156459 -1.00037 
0.0183568 0.00602057 -1.00038 
0.0221297 -0.00230159 -1.00031 
0.0276621 -0.00540701 -1.00014 
0.0310881 0.00241957 -0.999964 
0.0323628 0.022266 -0.999634 
0.0364531 0.0427739 -0.998921 
0.0378217 0.0428251 -0.99905 
0.0376266 0.0248004 -0.999998 
0.031253 0.0104552 -1.00031 
0.0239937 -0.0113965 -1.00059 
0.0168703 -0.0460752 -0.999471 
0.0106678 -0.0888768 -0.996781 
-0.000251772 -0.131655 -0.991404 
0.00234329 -0.122575 0.992486 
-0.00541702 -0.0820586 0.997435 
-0.0124661 -0.0278498 1.00036 
-0.0204829 0.00106863 1.00061 
-0.0318738 0.0184277 1.00026 
-0.0201346 0.0238559 1.0006 
-0.0239138 0.0463547 0.999381 
-0.021868 0.0513298 0.998904 
-0.0194277 0.02096 1 
-0.0080569 -0.00213141 1.00039 
-0.0129521 -0.00647495 1.00029 
-0.00512892 -0.00331016 1.00048 
0.00139502 0.00547811 1.00052 
0.0043252 0.0152101 1.00053 
0.00940395 0.0261887 1.00013 
0.0112109 0.0404513 0.999769 
0.011129 0.0598753 0.998813 
0.00523695 0.086347 0.996922 
0.0078618 0.108538 0.994754 
-0.00303375 0.13985 0.990787 
-0.0195878 0.177319 0.984837 
-0.0433862 0.214928 0.976342 
-0.0592315 0.269939 0.961921 
-0.086408 0.313234 0.946435 
-0.118178 0.36587 0.9237 
-0.152867 0.406799 0.901098 
-0.197619 0.451238 0.870663 
-0.245613 0.475319 0.84526 
-0.282234 0.544285 0.790357 
-0.318391 0.581608 0.748964 
-0.359773 0.570751 0.738516 
-0.397386 0.621972 0.674926 