# vtk DataFile Version 3.0 
Exported using Morpho https://github.com/Morpho-lang/morpho 
ASCII 
DATASET UNSTRUCTURED_GRID 

POINTS 1978 float 
-8.48528 -2.82843 9.37955e-10 
-8.16377 -2.82843 4.08747e-10 
-7.96477 -2.82843 -1.55839e-09 
-7.74168 -2.82843 7.72436e-10 
-7.3841 -2.82843 -4.00681e-11 
-7.15675 -2.82843 5.53973e-10 
-6.9613 -2.82843 -1.03583e-10 
-6.73149 -2.82843 5.02208e-10 
-6.52543 -2.82843 -1.08198e-09 
-6.31835 -2.82843 7.92588e-10 
-6.12363 -2.82843 -7.54521e-10 
-5.92791 -2.82843 2.29763e-10 
-5.70875 -2.82843 4.4789e-11 
-5.47991 -2.82843 3.47307e-10 
-5.25502 -2.82843 4.61156e-10 
-5.04156 -2.82843 3.22737e-10 
-4.83322 -2.82843 -2.52874e-12 
-4.63489 -2.82843 -1.61473e-10 
-4.4391 -2.82843 -2.81093e-10 
-4.23642 -2.82843 -1.26161e-09 
-4.03138 -2.82843 -1.92487e-09 
-3.84628 -2.82843 -3.46139e-09 
-3.62285 -2.82843 -5.65093e-09 
-3.41166 -2.82843 -8.76407e-09 
-3.166 -2.82843 -1.29464e-08 
-2.93424 -2.82843 -1.96101e-08 
-2.66759 -2.82843 -2.56221e-08 
-2.44569 -2.82843 -3.57168e-08 
-2.1595 -2.82843 -3.8614e-08 
-1.98566 -2.82843 -4.36544e-08 
-1.75592 -2.82843 -4.79497e-08 
-1.57828 -2.82843 -4.5127e-08 
-1.40688 -2.82843 -4.2975e-08 
-1.21449 -2.82843 -4.29117e-08 
-1.04287 -2.82843 -3.19047e-08 
-0.836384 -2.82843 -2.38521e-08 
-0.648085 -2.82843 -1.38531e-08 
-0.431024 -2.82843 -2.28007e-09 
-0.256368 -2.82843 3.29723e-08 
0.105348 -2.82843 -2.70123e-08 
0.289332 -2.82843 -4.55281e-09 
0.460627 -2.82843 5.86097e-09 
0.742567 -2.82843 1.88019e-09 
0.901692 -2.82843 2.51993e-08 
1.05441 -2.82843 2.81645e-08 
1.19795 -2.82843 3.46645e-08 
1.36922 -2.82843 5.07602e-08 
1.56002 -2.82843 4.68955e-08 
1.71674 -2.82843 4.46975e-08 
1.90715 -2.82843 4.72861e-08 
2.14732 -2.82843 4.77949e-08 
2.43873 -2.82843 3.97874e-08 
2.70683 -2.82843 2.72436e-08 
2.93958 -2.82843 1.82045e-08 
3.1895 -2.82843 1.31555e-08 
3.41642 -2.82843 8.19134e-09 
3.64167 -2.82843 5.36761e-09 
3.83719 -2.82843 3.11301e-09 
4.03451 -2.82843 2.1532e-09 
4.23712 -2.82843 1.23698e-09 
4.44883 -2.82843 3.71142e-10 
4.64925 -2.82843 -4.451e-11 
4.84963 -2.82843 -9.90307e-11 
5.04963 -2.82843 -4.79239e-10 
5.27311 -2.82843 -3.34123e-10 
5.49124 -2.82843 -2.27776e-10 
5.70626 -2.82843 -4.65826e-10 
5.93642 -2.82843 2.49559e-10 
6.15718 -2.82843 4.1583e-11 
6.37174 -2.82843 3.82786e-10 
6.60448 -2.82843 3.32263e-10 
6.8069 -2.82843 4.6938e-10 
7.01853 -2.82843 -1.80225e-10 
7.26637 -2.82843 -3.73298e-10 
7.52893 -2.82843 2.6551e-10 
7.76987 -2.82843 -1.0218e-09 
8.03393 -2.82843 5.8884e-10 
8.21743 -2.82843 -5.67118e-10 
8.48528 -2.82843 4.93412e-11 
-8.48528 -2.48075 -1.22618e-09 
-8.30743 -2.64859 -9.79818e-10 
-8.04942 -2.52974 -1.41532e-09 
-7.84594 -2.572 -6.39935e-10 
-7.58844 -2.67407 -6.71159e-10 
-7.23715 -2.59177 1.73869e-09 
-7.00808 -2.55372 1.27874e-09 
-6.80452 -2.60177 1.96192e-09 
-6.57602 -2.57703 2.51334e-09 
-6.35727 -2.58204 2.37337e-09 
-6.14234 -2.56986 2.67202e-09 
-5.93645 -2.57151 2.49057e-09 
-5.72601 -2.59368 2.98475e-09 
-5.49925 -2.60034 4.40387e-09 
-5.26466 -2.5992 5.22808e-09 
-5.0375 -2.59389 6.38867e-09 
-4.82511 -2.58976 7.55096e-09 
-4.61138 -2.59627 8.56853e-09 
-4.38705 -2.60481 9.98723e-09 
-4.16329 -2.60077 9.8414e-09 
-3.95605 -2.55936 1.26813e-08 
-3.73032 -2.59511 1.25827e-08 
-3.49147 -2.56237 1.03936e-08 
-3.24639 -2.582 1.43579e-08 
-2.98584 -2.55546 1.09915e-08 
-2.74127 -2.59844 8.96593e-09 
-2.48932 -2.57425 5.66696e-09 
-2.27163 -2.65162 1.85578e-08 
-2.05054 -2.59973 1.91124e-08 
-1.8717 -2.68371 1.27688e-08 
-1.67771 -2.65229 1.25743e-08 
-1.50863 -2.66164 3.49022e-08 
-1.33821 -2.69739 7.61091e-09 
-1.17053 -2.69451 1.04725e-08 
-0.969067 -2.7303 -1.11473e-08 
-0.902381 -2.62309 3.70314e-08 
-0.779165 -2.72387 1.31115e-09 
-0.582447 -2.73698 5.65801e-09 
-0.300555 -2.72963 -2.16879e-08 
-0.0973739 -2.78097 -1.58021e-08 
0.273873 -2.73128 -3.52247e-08 
0.437854 -2.72301 1.56983e-08 
0.621775 -2.7605 -5.94234e-09 
0.894635 -2.70808 2.22423e-08 
1.04514 -2.68708 3.36407e-09 
1.22178 -2.6966 -2.46152e-08 
1.40595 -2.6953 -2.35946e-09 
1.56264 -2.64107 8.43751e-09 
1.7353 -2.65301 -2.07747e-08 
1.92918 -2.66045 -2.26452e-08 
2.17873 -2.66227 -1.18894e-08 
2.393 -2.60441 -1.36116e-08 
2.63116 -2.61381 -7.19828e-09 
2.87896 -2.55932 -1.2798e-08 
3.11882 -2.56956 -1.55314e-08 
3.3678 -2.56118 -1.09697e-08 
3.60446 -2.58159 -1.37716e-08 
3.83506 -2.57182 -8.90734e-09 
4.0497 -2.59633 -1.09056e-08 
4.27783 -2.60539 -9.48547e-09 
4.5007 -2.59699 -9.56576e-09 
4.71076 -2.59162 -8.95639e-09 
4.91487 -2.58025 -7.22012e-09 
5.13379 -2.59887 -5.68457e-09 
5.35511 -2.58837 -4.96628e-09 
5.57343 -2.58284 -3.76926e-09 
5.79851 -2.60101 -2.77423e-09 
6.02492 -2.59492 -2.32337e-09 
6.24493 -2.58976 -1.95373e-09 
6.47314 -2.6074 -2.12683e-09 
6.68889 -2.57032 -2.55051e-09 
6.89887 -2.57289 -2.88968e-09 
7.12847 -2.60426 -2.52127e-09 
7.38224 -2.61319 -1.56546e-09 
7.6271 -2.59686 -9.44167e-10 
7.87549 -2.61575 -9.81834e-10 
8.06741 -2.52144 9.22718e-12 
8.29143 -2.61664 1.11492e-10 
8.48528 -2.54991 7.26184e-10 
-8.48528 -2.25859 4.32102e-10 
-8.21861 -2.39245 -5.91892e-10 
-7.92728 -2.27161 -2.61377e-10 
-7.6998 -2.41711 -1.11499e-09 
-7.59218 -2.24442 -6.15184e-10 
-7.44163 -2.51817 -3.41508e-10 
-7.13831 -2.34247 1.27629e-09 
-6.89334 -2.31237 1.94118e-09 
-6.6992 -2.35586 2.1764e-09 
-6.46268 -2.34287 2.05681e-09 
-6.24462 -2.3344 1.91589e-09 
-6.02876 -2.32092 2.32003e-09 
-5.81498 -2.34013 3.09552e-09 
-5.60571 -2.36078 3.56058e-09 
-5.38271 -2.37484 4.71084e-09 
-5.15974 -2.37123 5.23476e-09 
-4.94296 -2.3542 6.93984e-09 
-4.72954 -2.36157 8.64525e-09 
-4.50963 -2.38733 9.54388e-09 
-4.28456 -2.38051 1.14207e-08 
-4.0811 -2.33451 1.22517e-08 
-3.83796 -2.3402 1.2123e-08 
-3.62044 -2.33687 1.12122e-08 
-3.36829 -2.32559 1.01781e-08 
-3.12955 -2.3304 1.03363e-08 
-2.86764 -2.32259 1.14748e-08 
-2.64769 -2.3646 8.61999e-09 
-2.41092 -2.36288 1.83942e-08 
-2.21186 -2.44077 3.5541e-08 
-2.00724 -2.41393 1.31247e-08 
-1.82631 -2.51389 1.30391e-08 
-1.63179 -2.48465 3.58927e-08 
-1.45147 -2.52084 4.29871e-08 
-1.2836 -2.56098 9.72189e-09 
-1.07011 -2.60756 -3.88175e-08 
-0.84015 -2.51256 1.58404e-08 
-0.710306 -2.62849 5.20746e-09 
-0.461797 -2.70137 -3.82277e-08 
-0.125304 -2.68394 2.31459e-08 
0.100718 -2.73638 2.64696e-09 
0.222886 -2.63215 4.86161e-08 
0.527758 -2.64085 4.41733e-09 
0.754995 -2.67226 -6.91081e-08 
0.87368 -2.57551 1.83775e-08 
1.04352 -2.55777 7.70886e-08 
1.22516 -2.56466 -5.78791e-08 
1.39934 -2.54368 -4.56607e-08 
1.63362 -2.4693 -6.2321e-08 
1.78889 -2.46397 -2.83544e-08 
1.98321 -2.49478 -2.3669e-08 
2.18606 -2.45178 -3.29394e-09 
2.41656 -2.39378 -2.13764e-08 
2.63268 -2.38301 -1.03523e-08 
2.86659 -2.32475 -1.60952e-08 
3.10892 -2.31803 -2.4694e-09 
3.35232 -2.31569 -1.41233e-08 
3.59963 -2.33185 -1.20949e-08 
3.84247 -2.33998 -1.37257e-08 
4.07287 -2.3642 -1.34733e-08 
4.28073 -2.38489 -1.21186e-08 
4.48003 -2.35587 -9.66918e-09 
4.68449 -2.35735 -8.12606e-09 
4.88891 -2.33627 -6.79422e-09 
5.09546 -2.3625 -5.83575e-09 
5.30931 -2.35284 -4.67133e-09 
5.52474 -2.34282 -3.78913e-09 
5.74537 -2.3621 -3.02875e-09 
5.96193 -2.36609 -2.2923e-09 
6.18281 -2.35685 -2.11842e-09 
6.40841 -2.37602 -1.85819e-09 
6.62242 -2.33902 -1.99146e-09 
6.84247 -2.3187 -2.48426e-09 
7.06361 -2.35725 -2.94874e-09 
7.29335 -2.38985 -2.49289e-09 
7.53314 -2.37192 -1.56205e-09 
7.77575 -2.3807 -8.00329e-10 
7.99647 -2.2946 -3.89453e-10 
8.246 -2.35008 -1.7047e-10 
8.48528 -2.32369 7.28805e-10 
-8.48528 -2.06382 -1.24264e-09 
-8.19855 -2.19209 -5.73384e-10 
-8.06032 -2.02794 6.58831e-10 
-7.79794 -2.09051 -1.93075e-10 
-7.51265 -2.03899 -1.04587e-10 
-7.35328 -2.29755 4.69303e-10 
-7.04112 -2.11448 3.2056e-10 
-6.81434 -2.04801 1.05023e-10 
-6.60306 -2.13712 9.85534e-10 
-6.35855 -2.10954 4.16309e-10 
-6.12872 -2.09634 9.32661e-10 
-5.89444 -2.10022 8.98666e-10 
-5.68123 -2.10738 1.22794e-09 
-5.46515 -2.13955 1.72577e-09 
-5.24485 -2.14164 2.39483e-09 
-5.03038 -2.13059 2.88932e-09 
-4.80545 -2.12592 3.25019e-09 
-4.5868 -2.15411 4.99283e-09 
-4.37704 -2.16569 6.26245e-09 
-4.17071 -2.09922 4.3866e-09 
-3.94372 -2.11907 6.73302e-09 
-3.72092 -2.08263 3.91496e-09 
-3.49441 -2.10393 5.63733e-09 
-3.25356 -2.09013 1.49441e-09 
-3.01503 -2.10914 2.64971e-09 
-2.78144 -2.09628 -2.14812e-09 
-2.57401 -2.16669 6.07038e-09 
-2.38297 -2.13921 1.08395e-08 
-2.20866 -2.24028 2.39027e-08 
-1.99928 -2.24981 -8.49943e-09 
-1.80197 -2.35389 -7.26615e-09 
-1.63693 -2.3093 8.04235e-08 
-1.48229 -2.37012 -2.48813e-08 
-1.311 -2.40083 4.99536e-08 
-1.17131 -2.48743 -3.48234e-08 
-0.999565 -2.49634 4.30156e-08 
-0.600871 -2.58594 -9.02509e-08 
-0.3971 -2.60315 1.00812e-08 
-0.235406 -2.61329 4.06712e-08 
0.0289361 -2.66306 1.43347e-08 
0.372239 -2.60273 -1.8298e-09 
0.443091 -2.51042 -6.62508e-08 
0.638221 -2.6008 6.89963e-08 
0.858948 -2.44411 -1.61036e-07 
1.14851 -2.43213 4.22317e-08 
1.29641 -2.41839 -4.82997e-08 
1.48945 -2.42339 4.53812e-08 
1.74433 -2.25795 -3.77185e-08 
1.89257 -2.2909 -2.205e-08 
2.05244 -2.29446 -1.36216e-08 
2.25319 -2.25076 -9.91377e-09 
2.44379 -2.1697 -1.96514e-09 
2.65227 -2.16506 -5.64999e-09 
2.87191 -2.10359 -2.05357e-09 
3.09724 -2.08762 -9.17365e-11 
3.32959 -2.08103 -4.56448e-09 
3.57086 -2.09292 -4.60789e-09 
3.80938 -2.11137 -5.64123e-09 
4.05331 -2.13658 -7.07928e-09 
4.27822 -2.13763 -5.16971e-09 
4.49642 -2.12241 -4.56626e-09 
4.70435 -2.11711 -3.85422e-09 
4.92236 -2.1031 -2.98729e-09 
5.13629 -2.12783 -2.75553e-09 
5.35546 -2.11386 -1.71797e-09 
5.58506 -2.11753 -1.22081e-09 
5.80254 -2.12595 -1.21099e-09 
6.01885 -2.13173 -9.0248e-10 
6.24571 -2.13546 -7.27954e-10 
6.4525 -2.12692 -5.63869e-10 
6.66597 -2.09351 -4.94846e-10 
6.89262 -2.08556 -3.28135e-10 
7.11304 -2.12626 -5.41241e-10 
7.33982 -2.15607 -8.50173e-10 
7.55521 -2.11108 -2.10433e-10 
7.75838 -2.14812 -1.38394e-10 
7.97321 -2.06122 -5.18751e-10 
8.22023 -2.12519 -3.02781e-10 
8.48528 -2.10678 -7.26381e-10 
-8.48528 -1.74506 6.33477e-10 
-8.31568 -1.94834 -5.02883e-11 
-7.96954 -1.84372 1.40704e-09 
[...]
POINT_DATA 1978 
VECTORS vectors float
0.00200808 -0.00266502 0.999994 
0.00250861 -0.0310556 0.999515 
0.00201616 -0.0247657 0.999691 
0.00209078 -0.00238116 0.999995 
0.00216121 0.0161194 0.999868 
0.00249752 0.0199366 0.999798 
0.00245308 0.0183907 0.999828 
0.00229373 0.0152739 0.999881 
0.00234163 0.0154607 0.999878 
0.00248995 0.0189819 0.999817 
0.00247812 0.0232018 0.999728 
0.00239497 0.0282336 0.999599 
0.00219851 0.0337214 0.999429 
0.00208538 0.0392895 0.999226 
0.00217157 0.0447567 0.998996 
0.00234542 0.0516639 0.998662 
0.00243163 0.059717 0.998212 
0.00240863 0.0690371 0.997611 
0.00234202 0.078908 0.996879 
0.00233551 0.0900492 0.995935 
0.00226597 0.102221 0.994759 
0.00215858 0.114493 0.993422 
0.00198558 0.130535 0.991442 
0.00176784 0.147077 0.989124 
0.00165873 0.167564 0.98586 
0.00154545 0.188198 0.98213 
0.00142998 0.213039 0.977043 
0.00125175 0.237016 0.971505 
0.00122634 0.271839 0.962342 
0.00124177 0.294788 0.955562 
0.00122884 0.330347 0.943859 
0.000957945 0.367182 0.930148 
0.000644537 0.416628 0.909077 
0.00024817 0.490573 0.8714 
4.73679e-05 0.570745 0.821127 
-0.000118639 0.673484 0.739202 
-0.000261939 0.775837 0.630933 
-0.000405447 0.884265 0.466985 
-0.000175516 0.954634 0.297781 
-5.95585e-05 0.994212 -0.107432 
0.000265346 0.945237 -0.326385 
0.000316794 0.865172 -0.501475 
-8.99776e-08 0.709144 -0.705064 
-0.000110195 0.627834 -0.778347 
-0.000130846 0.54993 -0.83521 
-0.000406954 0.487322 -0.873222 
-0.000649975 0.425096 -0.905148 
-0.000888131 0.370647 -0.928773 
-0.00104864 0.335748 -0.941951 
-0.0011413 0.300308 -0.953841 
-0.00112561 0.264731 -0.964322 
-0.0013336 0.231964 -0.972723 
-0.00149495 0.208088 -0.978109 
-0.00156275 0.187577 -0.982249 
-0.00163948 0.164605 -0.986358 
-0.00180405 0.145335 -0.989381 
-0.00204558 0.126971 -0.991904 
-0.00220799 0.112443 -0.993656 
-0.00226048 0.0996441 -0.995021 
-0.00223339 0.0880195 -0.996116 
-0.00230648 0.0776718 -0.996976 
-0.0024388 0.0690904 -0.997608 
-0.00242226 0.0613581 -0.998113 
-0.0023004 0.0542913 -0.998523 
-0.00223138 0.0472593 -0.99888 
-0.0022143 0.0407189 -0.999168 
-0.00218902 0.033912 -0.999422 
-0.00218272 0.0259062 -0.999662 
-0.00216145 0.0178008 -0.999839 
-0.00219036 0.0113492 -0.999933 
-0.00235823 0.00909895 -0.999956 
-0.00252233 0.0135058 -0.999906 
-0.00245511 0.0243131 -0.999702 
-0.00215939 0.0386354 -0.999251 
-0.0020227 0.0429986 -0.999073 
-0.00193743 0.0301177 -0.999545 
-0.00186515 -0.000513306 -0.999998 
-0.00262333 -0.0115564 -0.99993 
-0.00195365 -0.00261071 -0.999995 
0.000401078 -0.00325566 0.999995 
0.00962213 -0.0209 0.999735 
0.0210369 -0.0235708 0.999501 
0.0220789 -0.0137529 0.999662 
0.0176828 0.0053972 0.999829 
0.0242231 0.0170376 0.999561 
0.0238801 0.0182254 0.999549 
0.0211663 0.0168998 0.999633 
0.0228452 0.0167138 0.999599 
0.022281 0.0185716 0.999579 
0.0230121 0.0219167 0.999495 
0.023068 0.0260324 0.999395 
0.0227756 0.0310388 0.999259 
0.0238944 0.0366655 0.999042 
0.0246297 0.0433204 0.998758 
0.0252966 0.0510866 0.998374 
0.0250491 0.0597675 0.997898 
0.0232301 0.0696766 0.997299 
0.0201119 0.0817383 0.996451 
0.0159452 0.0952013 0.99533 
0.0117264 0.109517 0.993916 
0.0045859 0.125256 0.992114 
-0.00527447 0.14543 0.989355 
-0.0129496 0.165258 0.986165 
-0.027097 0.190086 0.981393 
-0.0322303 0.212078 0.976721 
-0.0467774 0.239592 0.969746 
-0.0355654 0.2603 0.964872 
-0.0569147 0.291183 0.954973 
-0.0386456 0.314815 0.948366 
-0.0503898 0.351461 0.934845 
-0.0483358 0.391214 0.919029 
-0.0427244 0.445904 0.894061 
-0.0441615 0.512899 0.857313 
-0.0299914 0.605954 0.794934 
-0.0596395 0.640549 0.765598 
-0.0280068 0.706725 0.706933 
-0.0192936 0.80939 0.586954 
-0.0129018 0.939067 0.343493 
-0.00265771 0.992821 0.119582 
0.00498827 0.950272 -0.311382 
0.0118234 0.872985 -0.487604 
0.010117 0.781193 -0.624207 
0.0294246 0.628541 -0.77722 
0.0444626 0.552489 -0.832333 
0.0400941 0.479048 -0.876873 
0.0439571 0.412019 -0.910114 
0.0633749 0.373466 -0.925476 
0.0549076 0.336097 -0.940226 
0.0460049 0.299714 -0.952919 
0.0399647 0.264966 -0.963429 
0.0472952 0.24481 -0.968417 
0.0355513 0.221232 -0.974573 
0.032823 0.198983 -0.979453 
0.0201921 0.176632 -0.98407 
0.0103672 0.154541 -0.987932 
-6.75449e-05 0.133929 -0.990991 
-0.00708023 0.115829 -0.993244 
-0.0134144 0.100076 -0.994889 
-0.0183247 0.0868015 -0.996057 
-0.0223014 0.0754119 -0.996903 
-0.0247669 0.0659169 -0.997518 
-0.0259788 0.0576769 -0.997997 
-0.0247339 0.0499536 -0.998445 
-0.0250241 0.042546 -0.998781 
-0.0243251 0.0354664 -0.999075 
-0.02225 0.0285213 -0.999346 
-0.0219993 0.021401 -0.999529 
-0.021815 0.015639 -0.99964 
-0.0209955 0.0121183 -0.999706 
-0.0227752 0.0140089 -0.999642 
-0.0224363 0.0197618 -0.999553 
-0.0204459 0.0290381 -0.999369 
-0.0189616 0.0357109 -0.999182 
-0.0178824 0.0293298 -0.99941 
-0.0144806 0.0119106 -0.999824 
-0.0122087 -0.00322363 -0.99992 
-0.00740416 -0.0107999 -0.999914 
-0.000191868 -0.00296332 -0.999996 
0.00161519 -0.00327329 0.999994 
0.0176181 -0.0234712 0.999569 
0.0237534 -0.0214663 0.999487 
0.0279155 -0.00583593 0.999593 
0.0263495 -0.00187258 0.999651 
0.0267187 0.0101241 0.999592 
0.0288044 0.0176232 0.99943 
0.0267184 0.0190964 0.999461 
0.0267214 0.0182764 0.999476 
0.0253817 0.0182677 0.999511 
0.0248318 0.0192919 0.999506 
0.0255565 0.021462 0.999443 
0.027651 0.0255428 0.999291 
0.0295845 0.0311431 0.999077 
0.031497 0.0380592 0.998779 
0.0319536 0.0453505 0.99846 
0.03197 0.0539584 0.998031 
0.0306254 0.0640547 0.997476 
0.0272639 0.0761374 0.996725 
0.0216836 0.0902617 0.995682 
0.0127174 0.105627 0.994325 
0.000827653 0.12482 0.992179 
-0.0124054 0.143774 0.989533 
-0.0305913 0.167916 0.985327 
-0.0477245 0.190779 0.980472 
-0.0710322 0.21975 0.972967 
-0.0825873 0.240383 0.967158 
-0.101525 0.267665 0.958148 
-0.0929714 0.28421 0.954244 
-0.121613 0.316578 0.940738 
-0.0959265 0.335474 0.937153 
-0.110831 0.374894 0.920419 
-0.102812 0.417789 0.902708 
-0.0935938 0.470056 0.87766 
-0.0758604 0.551056 0.831013 
-0.0923158 0.672295 0.734504 
-0.0506624 0.743044 0.667322 
-0.0227078 0.865646 0.500141 
-0.00683097 0.990118 0.140071 
-0.000336634 0.995028 -0.0995914 
0.00865416 0.956181 -0.292647 
0.0266205 0.825035 -0.564454 
0.0293743 0.703457 -0.71013 
0.0634106 0.629456 -0.774445 
0.0882537 0.554782 -0.827302 
0.0884394 0.485318 -0.869853 
0.101795 0.424848 -0.899523 
0.131345 0.370132 -0.919647 
0.122499 0.338894 -0.932816 
0.0996893 0.303425 -0.947626 
0.102877 0.280628 -0.954287 
0.099795 0.260594 -0.960277 
0.0834765 0.238497 -0.967549 
0.073775 0.220015 -0.972703 
0.0544907 0.194814 -0.979325 
0.0335489 0.169175 -0.985015 
0.0141869 0.143482 -0.989551 
-0.00124887 0.122414 -0.992478 
-0.0140532 0.103563 -0.994524 
-0.0221515 0.0895431 -0.995737 
-0.0266885 0.0782624 -0.996576 
-0.0299919 0.0673028 -0.997282 
-0.031531 0.0579051 -0.997824 
-0.0322207 0.0495703 -0.998251 
-0.0315434 0.041562 -0.998638 
-0.0301221 0.0338985 -0.998971 
-0.0284846 0.0270202 -0.999229 
-0.0266603 0.0208723 -0.999427 
-0.0253858 0.0162641 -0.999545 
-0.0249258 0.0143926 -0.999586 
-0.0243596 0.0157476 -0.999579 
-0.0242234 0.019813 -0.99951 
-0.0255817 0.0251307 -0.999357 
-0.0252839 0.0287831 -0.999266 
-0.0227413 0.0236077 -0.999463 
-0.0185038 0.00999236 -0.999779 
-0.011597 -0.00716116 -0.999907 
-0.00721374 -0.0115592 -0.999907 
-0.00106474 -0.0030824 -0.999995 
0.000393984 -0.00349724 0.999994 
0.0164698 -0.0256458 0.999535 
0.0133193 -0.0293362 0.999481 
0.0188012 -0.0176736 0.999667 
0.0154428 0.00101281 0.99988 
0.0285006 0.0113331 0.99953 
0.0174357 0.0194142 0.99966 
0.0106937 0.0203179 0.999736 
0.0161407 0.0191868 0.999686 
0.0131034 0.0181444 0.99975 
0.0134849 0.018085 0.999746 
0.0156975 0.0206733 0.999663 
0.0187986 0.0257152 0.999492 
0.0229532 0.0329353 0.999194 
0.0245625 0.0407785 0.998866 
0.0243405 0.0498188 0.998462 
0.0224872 0.0613822 0.997861 
0.0206296 0.0741461 0.997034 
0.0153765 0.0882393 0.995981 
0.00240715 0.105975 0.994366 
-0.00855408 0.125191 0.992096 
-0.0279249 0.149395 0.988383 
-0.0445607 0.17158 0.984162 
-0.0702829 0.200665 0.977136 
-0.0944373 0.228549 0.968941 
-0.127829 0.26088 0.956871 
-0.138715 0.276409 0.950976 
-0.174564 0.306479 0.935734 
-0.162328 0.309999 0.936776 
-0.188765 0.340491 0.921104 
-0.161688 0.358288 0.919503 
-0.188405 0.396645 0.89843 
-0.177624 0.427175 0.88655 
-0.160632 0.471076 0.867344 
-0.127426 0.521573 0.843637 
-0.10918 0.592683 0.798001 
-0.0593131 0.795006 0.603694 
-0.0299614 0.903628 0.42727 
-0.0151201 0.968452 0.248743 
-0.000348882 0.998151 -0.0607781 
0.0187203 0.905123 -0.424737 
0.0278219 0.87883 -0.476323 
0.0418412 0.765858 -0.641647 
0.0949088 0.644459 -0.758726 
0.150552 0.516937 -0.842681 
0.156813 0.460553 -0.87367 
0.16437 0.406358 -0.898808 
0.226797 0.370289 -0.900805 
0.192647 0.341978 -0.919749 
0.17232 0.319697 -0.931719 
0.16358 0.299656 -0.939919 
0.164972 0.291342 -0.942286 
0.135426 0.266577 -0.954252 
0.118678 0.249663 -0.961033 
0.0926101 0.223009 -0.970407 
0.0657725 0.194175 -0.97876 
0.0403081 0.164329 -0.985582 
0.0190104 0.13762 -0.990303 
0.000807286 0.113329 -0.993557 
-0.00943568 0.0955176 -0.995383 
-0.0163233 0.0804729 -0.996623 
-0.0206567 0.0677105 -0.997491 
-0.0224635 0.056003 -0.998178 
-0.0242448 0.0461731 -0.998639 
-0.022364 0.0369841 -0.999066 
-0.0204332 0.028471 -0.999386 
-0.0186131 0.0216934 -0.999591 
-0.0163196 0.0167746 -0.999726 
-0.0146294 0.014634 -0.999786 
-0.0132603 0.0153492 -0.999794 
-0.0111096 0.0180082 -0.999776 
-0.0110271 0.0215988 -0.999706 
-0.0143913 0.0244075 -0.999599 
-0.0160864 0.0230273 -0.999605 
-0.0115769 0.0131655 -0.999846 
-0.0105035 0.00195395 -0.999943 
-0.00227183 -0.0148543 -0.999887 
-0.00226151 -0.0162637 -0.999865 
0.000251928 -0.00308277 -0.999995 
0.000204231 -0.00336764 0.999994 
0.0069765 -0.0232691 0.999705 
0.00521617 -0.0311116 0.999502 
0.00672597 -0.0152013 0.999862 
0.00153196 0.0036491 0.999992 
0.0168659 0.0140872 0.999758 
0.0018595 0.0170265 0.999853 
-0.000514648 0.0212406 0.999774 
-0.00604518 0.0213285 0.999754 
-0.000115631 0.0192627 0.999815 
-0.00288421 0.0165808 0.999858 
-0.00191566 0.0155397 0.999877 
-0.000349385 0.0175419 0.999846 
0.00461754 0.0234132 0.999715 
0.00915943 0.0312027 0.999471 
0.0107815 0.0401671 0.999135 
0.0116281 0.0520441 0.998577 
0.00888677 0.0662014 0.997767 
0.0048807 0.0806373 0.996732 
-0.00216749 0.0967841 0.995303 
-0.0177036 0.121515 0.992432 
-0.0331803 0.145005 0.988874 
-0.0562261 0.175599 0.982855 
-0.0775029 0.20269 0.976171 
-0.107751 0.237504 0.965392 
-0.131103 0.261123 0.956361 
-0.169253 0.298973 0.939132 
-0.19278 0.31674 0.928715 
-0.230951 0.345096 0.909709 
-0.24245 0.351565 0.904223 
-0.256128 0.367687 0.893983 
-0.232394 0.380144 0.895256 
-0.275184 0.422745 0.863459 
-0.261143 0.450014 0.853986 
-0.181527 0.538213 0.823027 
-0.156595 0.603796 0.781606 
-0.101048 0.723615 0.682768 
-0.061147 0.835057 0.546755 
-0.0299858 0.933264 0.357937 
-0.0137302 0.985633 0.168341 
0.00530278 0.98678 -0.161976 
0.0481765 0.819881 -0.570503 
0.0669322 0.710312 -0.700698 
0.126124 0.582801 -0.802768 
0.237454 0.487872 -0.839998 
0.223319 0.434602 -0.872497 
0.235271 0.393386 -0.88876 
0.331118 0.403442 -0.852992 
0.293258 0.379502 -0.877484 
0.240985 0.347862 -0.906045 
0.23835 0.340578 -0.909503 
0.222062 0.329813 -0.917558 
0.185023 0.303764 -0.934609 
0.158017 0.284208 -0.945651 
0.131007 0.261099 -0.956381 
0.100811 0.229615 -0.968047 
0.0720423 0.195912 -0.977972 
0.0470545 0.163726 -0.985383 
0.0249831 0.133605 -0.99072 
0.0112643 0.110937 -0.993764 
0.00115203 0.0916118 -0.995794 
-0.00460442 0.0753964 -0.997143 
-0.00841264 0.0613227 -0.998083 
-0.0102178 0.0484098 -0.998775 
-0.00965301 0.0381411 -0.999226 
-0.00788269 0.0284399 -0.999565 
-0.00458854 0.0202636 -0.999784 
-0.00179874 0.0148431 -0.999888 
9.13887e-05 0.012952 -0.999916 
0.00356058 0.0141032 -0.999894 
0.00559858 0.0172934 -0.999835 
0.00573438 0.0208234 -0.999767 
0.00364785 0.0230752 -0.999727 
-8.92983e-05 0.0209689 -0.99978 
0.00306338 0.00975374 -0.999948 
0.00361826 -0.00676217 -0.999971 
0.0066205 -0.0217023 -0.999743 
0.00338536 -0.0195417 -0.999803 
0.000235586 -0.00314431 -0.999995 
-0.00021448 -0.00327123 0.999995 
-0.00178534 -0.0265225 0.999647 
0.0024863 -0.0276086 0.999616 
-0.00290031 -0.0327619 0.999459 
-0.0041764 -0.0157026 0.999868 
-0.00985153 0.0161265 0.999821 
-0.014009 0.0232445 0.999632 
-0.0158898 0.0232461 0.999603 
-0.0157918 0.0194289 0.999687 
-0.0150976 0.0156558 0.999764 
-0.0132979 0.012509 0.999833 
-0.0117754 0.0126448 0.999851 
-0.00691882 0.0177102 0.999819 
-0.00267103 0.0258227 0.999663 
-0.000322037 0.0354011 0.999373 
0.00176215 0.0475954 0.998865 
0.000600028 0.0625893 0.998039 
-0.00469647 0.0808171 0.996718 
-0.0122256 0.0999401 0.994918 
-0.0220451 0.120797 0.992432 
-0.0427199 0.155217 0.986956 
-0.0630433 0.185307 0.980656 
-0.0900711 0.221595 0.97097 
-0.119926 0.259296 0.958323 
-0.150042 0.290329 0.945091 
-0.182268 0.322947 0.9287 
-0.223036 0.357925 0.906722 
-0.259973 0.385374 0.885382 
-0.293442 0.39506 0.870528 
-0.312849 0.398221 0.862291 
-0.347205 0.417866 0.839546 
-0.305894 0.40748 0.860459 
-0.356647 0.448977 0.819282 
-0.33881 0.471032 0.814455 
-0.231798 0.486198 0.842544 
-0.246356 0.542871 0.80287 
-0.156118 0.657344 0.737243 
-0.125164 0.743458 0.656966 
-0.0268456 0.959215 0.281401 
-0.00488681 0.999367 0.0352308 
0.0124068 0.961208 -0.275546 
0.0733007 0.79478 -0.602455 
0.160397 0.617257 -0.770238 
0.215285 0.546389 -0.809389 
0.305512 0.452816 -0.837628 
0.293305 0.423926 -0.856889 
0.344559 0.42008 -0.839531 
0.380267 0.427126 -0.820342 
0.322637 0.393816 -0.860706 
0.295119 0.381243 -0.876104 
0.280058 0.382725 -0.880391 
0.240983 0.356687 -0.902608 
0.206864 0.335007 -0.919226 
0.174292 0.31486 -0.932998 
0.140604 0.284799 -0.948219 
0.107874 0.246303 -0.963171 
0.07821 0.207527 -0.975098 
0.0533663 0.171489 -0.98374 
0.0335685 0.140084 -0.98957 
0.0190654 0.113762 -0.993325 
0.00925774 0.091976 -0.995718 
0.00333454 0.0730301 -0.997324 
-0.000407214 0.0566094 -0.998396 
-0.000571615 0.0436666 -0.999046 
0.000433806 0.0324462 -0.999473 
0.00335085 0.0227994 -0.999735 
0.00712864 0.0150162 -0.999862 
0.0104281 0.0106275 -0.999889 
0.0131813 0.0102647 -0.999861 
0.01639 0.0131065 -0.99978 
0.0178895 0.0182791 -0.999673 
0.0176508 0.0221775 -0.999598 
0.016241 0.0230184 -0.999603 
0.0136028 0.0186073 -0.999734 
0.0137627 0.00361033 -0.999899 
0.0127842 -0.0155345 -0.999798 
0.0135883 -0.0286243 -0.999498 
0.00909364 -0.0236885 -0.999678 
0.000478147 -0.00306591 -0.999995 
-0.000465079 -0.00330891 0.999995 
-0.00449814 -0.0264248 0.999641 
-0.0062898 -0.0334587 0.99942 
-0.00974804 -0.0159119 0.999826 
-0.00925309 0.00167238 0.999956 
-0.0170613 0.0189645 0.999675 
-0.0204969 0.0263075 0.999444 
-0.0218301 0.0254498 0.999438 
-0.0213114 0.0206127 0.99956 
-0.0202424 0.0138727 0.999699 
-0.0180425 0.0100741 0.999787 
-0.0151709 0.008636 0.999848 
-0.0107204 0.0125579 0.999864 
-0.00706051 0.0200338 0.999774 
-0.00380876 0.0294199 0.99956 
-0.00164522 0.0418327 0.999123 
-0.00160776 0.056169 0.99842 
-0.00451337 0.0743845 0.997219 
-0.0113879 0.0978183 0.995139 
-0.0216241 0.122427 0.992242 
-0.0353425 0.148877 0.988224 
-0.0594051 0.194417 0.979118 
-0.0849761 0.230445 0.969368 
-0.115032 0.274673 0.954632 
-0.151326 0.317245 0.936192 
-0.185963 0.352813 0.917028 
-0.22661 0.386453 0.894037 
-0.277252 0.436944 0.855694 
-0.313626 0.440078 0.841409 
-0.367788 0.475391 0.799209 
-0.357454 0.440754 0.823385 
-0.414348 0.465108 0.782298 
-0.393266 0.448904 0.802388 
-0.465185 0.486332 0.739652 
-0.419789 0.499898 0.757548 
-0.315778 0.501406 0.805528 
-0.232533 0.593502 0.770509 
-0.115428 0.79377 0.597164 
-0.0608202 0.867397 0.493886 
0.000463373 0.997136 -0.0756209 
0.0147975 0.947725 -0.318746 
0.0983387 0.692913 -0.714284 
0.248219 0.580848 -0.775244 
0.321958 0.510482 -0.79734 
0.383992 0.444042 -0.809553 
0.438884 0.45698 -0.77366 
0.426546 0.450568 -0.78425 
0.420625 0.462931 -0.780237 
0.362091 0.430892 -0.826573 
0.339086 0.436718 -0.833246 
0.352625 0.493364 -0.79514 
0.308128 0.436367 -0.845364 
0.26012 0.403608 -0.877176 
0.214629 0.370731 -0.9036 
0.172729 0.341873 -0.923736 
0.134376 0.304341 -0.943038 
0.0991163 0.254757 -0.961912 
0.0686938 0.209782 -0.975332 
0.0450922 0.168838 -0.984612 
0.0277283 0.134758 -0.99049 
0.0147425 0.105839 -0.994274 
0.00663699 0.0818086 -0.996626 
0.00210806 0.0607861 -0.998149 
0.00110808 0.0451838 -0.998978 
0.00256918 0.0323812 -0.999472 
0.00548214 0.0215076 -0.999754 
0.00915267 0.013076 -0.999873 
0.0130108 0.00783412 -0.999885 
0.0165189 0.00741723 -0.999836 
0.019661 0.0119259 -0.999736 
0.0217222 0.0187079 -0.999589 
0.0225037 0.0235788 -0.999469 
0.0217014 0.0242133 -0.999471 
0.019565 0.0183496 -0.99964 
0.0179759 0.00328693 -0.999833 
0.0162059 -0.0165463 -0.999732 
0.0139053 -0.0302779 -0.999445 
0.00924329 -0.0232393 -0.999687 
0.000799304 -0.0031339 -0.999995 
-0.000441775 -0.00331229 0.999995 
-0.0054502 -0.0288209 0.99957 
-0.00893231 -0.0304542 0.999496 
-0.012104 -0.0100818 0.999876 
-0.0141811 0.00459396 0.999889 
-0.0189097 0.0230702 0.999555 
-0.0201144 0.0285065 0.999391 
-0.0207091 0.0254278 0.999462 
-0.0211008 0.0187284 0.999602 
-0.0176474 0.0122981 0.999769 
-0.0163681 0.0076413 0.999837 
-0.0118752 0.00581747 0.999913 
-0.00732488 0.0102224 0.999921 
-0.003438 0.0193128 0.999808 
-0.000233638 0.0311086 0.999516 
0.00128858 0.0456881 0.998955 
-0.000163272 0.0628088 0.998026 
-0.0043013 0.0862829 0.996261 
-0.0116479 0.114918 0.993307 
-0.0237238 0.145198 0.989118 
-0.041153 0.177204 0.983313 
-0.0653679 0.230213 0.970942 
-0.0914374 0.271073 0.958206 
-0.121796 0.322424 0.938727 
-0.152825 0.351437 0.923654 
-0.195985 0.404347 0.893361 
-0.230244 0.425559 0.87515 
-0.271421 0.477251 0.8358 
-0.317986 0.520657 0.792339 
-0.338566 0.496879 0.799052 
-0.398667 0.539756 0.741436 
-0.436801 0.509728 0.741203 
-0.443018 0.47109 0.762764 
-0.529891 0.514988 0.673798 
-0.423068 0.4867 0.764288 
-0.501712 0.519263 0.691846 
-0.330908 0.551342 0.765847 
-0.202525 0.644062 0.737677 
-0.0455622 0.900285 0.43291 
-0.0076981 0.998163 0.0601004 
0.021987 0.90008 -0.435169 
0.146872 0.648813 -0.746639 
0.389815 0.448449 -0.804324 
0.531114 0.502757 -0.682022 
0.470539 0.471394 -0.745909 
0.512723 0.496784 -0.700229 
0.480803 0.489407 -0.727536 
0.468707 0.519723 -0.714284 
0.401621 0.481436 -0.779051 
0.398181 0.515984 -0.758427 
0.320478 0.521908 -0.79051 
0.28331 0.467086 -0.837595 
0.235114 0.426862 -0.873218 
0.196 0.400322 -0.895168 
0.155229 0.365252 -0.917875 
0.117954 0.316485 -0.941235 
0.086701 0.264728 -0.960418 
0.0581723 0.217211 -0.97439 
0.0367815 0.174184 -0.984026 
0.0211419 0.136617 -0.990398 
0.00929455 0.105486 -0.994377 
0.00222626 0.078907 -0.996879 
-0.00128024 0.0584343 -0.99829 
-0.00166105 0.0414506 -0.999139 
0.000413217 0.0286062 -0.999591 
0.00312115 0.0178371 -0.999836 
0.00696734 0.00964463 -0.999929 
0.0105127 0.00498554 -0.999932 
0.0144257 0.00559318 -0.99988 
0.0175015 0.0117148 -0.999778 
0.01956 0.019957 -0.999609 
0.0209726 0.0256873 -0.99945 
0.0208254 0.0260116 -0.999445 
0.0196023 0.0188641 -0.99963 
0.0170689 0.0046031 -0.999844 
0.0149085 -0.0146586 -0.999781 
0.0115894 -0.0293933 -0.999501 
0.00795525 -0.0253929 -0.999646 
0.000427185 -0.00320013 -0.999995 
-0.000423202 -0.00329312 0.999995 
-0.00425412 -0.025824 0.999657 
-0.00898109 -0.0264314 0.99961 
-0.0114004 -0.00484026 0.999923 
-0.0154293 0.0105941 0.999825 
-0.013818 0.0188522 0.999727 
-0.0160383 0.0282602 0.999472 
-0.0154237 0.0288707 0.999464 
-0.0156287 0.0209802 0.999658 
-0.0106686 0.0103295 0.99989 
-0.00965998 0.00465832 0.999943 
-0.00452453 0.00378296 0.999983 
-0.000211577 0.00816397 0.999967 
0.00221913 0.016886 0.999855 
0.00529303 0.0290268 0.999565 
0.00681628 0.0445025 0.998986 
0.0058759 0.0632398 0.997981 
0.00248945 0.0835402 0.996501 
-0.00160491 0.109346 0.994002 
-0.0101739 0.141044 0.989951 