# vtk DataFile Version 3.0 
Exported using Morpho https://github.com/Morpho-lang/morpho 
ASCII 
DATASET UNSTRUCTURED_GRID 

POINTS 1978 float 
-12 -4 -9.07846e-10 
-11.5951 -4 3.63469e-08 
-11.2909 -4 4.18401e-08 
-10.9419 -4 2.77032e-08 
-10.627 -4 2.07202e-08 
-10.2816 -4 1.41815e-08 
-9.96031 -4 9.1701e-09 
-9.64941 -4 6.81855e-09 
-9.31379 -4 4.76987e-09 
-8.99722 -4 4.26201e-09 
-8.68309 -4 3.58381e-09 
-8.36738 -4 2.89711e-09 
-8.06117 -4 2.75018e-09 
-7.76692 -4 2.02312e-09 
-7.48322 -4 2.31462e-09 
-7.19056 -4 1.51452e-09 
-6.89179 -4 1.23536e-09 
-6.59318 -4 8.38092e-10 
-6.29457 -4 -2.15876e-11 
-5.98822 -4 -6.71921e-10 
-5.68749 -4 -1.84797e-09 
-5.38342 -4 -3.30671e-09 
-5.08342 -4 -5.02697e-09 
-4.78861 -4 -7.60834e-09 
-4.45794 -4 -1.07244e-08 
-4.17077 -4 -1.44683e-08 
-3.8666 -4 -1.94089e-08 
-3.54598 -4 -2.51113e-08 
-3.24971 -4 -2.88706e-08 
-2.95441 -4 -3.32831e-08 
-2.66504 -4 -3.46947e-08 
-2.38977 -4 -3.21717e-08 
-2.12572 -4 -3.11632e-08 
-1.8363 -4 -2.3012e-08 
-1.55626 -4 -2.47877e-08 
-1.26108 -4 -3.32934e-08 
-0.980136 -4 -1.18408e-07 
-0.657695 -3.99999 -1.24947e-07 
-0.368323 -3.99999 -3.17688e-07 
0.00742711 -3.99998 1.63297e-07 
0.355421 -3.99999 2.36307e-07 
0.661673 -3.99999 1.52375e-07 
0.967852 -4 1.05865e-07 
1.23957 -4 8.39523e-09 
1.51278 -4 2.70334e-09 
1.78267 -4 2.55288e-08 
2.0651 -4 3.25024e-08 
2.35019 -4 3.86836e-08 
2.67675 -4 3.97942e-08 
2.973 -4 3.50917e-08 
3.29647 -4 2.83024e-08 
3.58369 -4 2.3152e-08 
3.88646 -4 1.87237e-08 
4.19755 -4 1.39648e-08 
4.49612 -4 1.03661e-08 
4.79546 -4 7.46085e-09 
5.10478 -4 5.08168e-09 
5.41068 -4 3.24305e-09 
5.7186 -4 1.67008e-09 
6.01202 -4 5.39635e-10 
6.30519 -4 -3.85491e-11 
6.6015 -4 -6.23259e-10 
6.90029 -4 -1.19664e-09 
7.17558 -4 -1.85032e-09 
7.47705 -4 -1.99445e-09 
7.7712 -4 -3.05373e-09 
8.06879 -4 -3.00363e-09 
8.35806 -4 -3.64351e-09 
8.65945 -4 -4.27338e-09 
8.93383 -4 -4.00188e-09 
9.27974 -4 -4.80999e-09 
9.60631 -4 -6.71124e-09 
9.89466 -4 -9.28442e-09 
10.2627 -4 -1.48163e-08 
10.5759 -4 -2.14921e-08 
10.9719 -4 -2.94436e-08 
11.2903 -4 -4.15175e-08 
11.5846 -4 -3.58621e-08 
12 -4 9.19652e-10 
-12 -3.59663 1.5619e-08 
-11.7133 -3.71477 -3.2852e-08 
-11.3609 -3.62559 -1.5811e-08 
-11.044 -3.67401 -1.89681e-08 
-10.7084 -3.64273 -1.59295e-08 
-10.3913 -3.67744 -1.39204e-08 
-10.0559 -3.66042 -1.1182e-08 
-9.7347 -3.65596 -8.40277e-09 
-9.40697 -3.68497 -6.3578e-09 
-9.07064 -3.66654 -4.46493e-09 
-8.74986 -3.6646 -3.21025e-09 
-8.43198 -3.66919 -2.45404e-09 
-8.11562 -3.66459 -1.86474e-09 
-7.80426 -3.65668 -1.49926e-09 
-7.50461 -3.65044 -1.14893e-09 
-7.20659 -3.66414 -8.06028e-10 
-6.89718 -3.66726 -4.32628e-10 
-6.58827 -3.66348 -6.10432e-12 
-6.27437 -3.67254 6.48906e-10 
-5.96555 -3.6655 1.41462e-09 
-5.65577 -3.66636 2.45603e-09 
-5.3498 -3.65937 3.79684e-09 
-5.05293 -3.65161 5.62031e-09 
-4.72911 -3.68881 8.16443e-09 
-4.43809 -3.64645 1.08006e-08 
-4.13504 -3.67089 1.53078e-08 
-3.81955 -3.69286 2.07673e-08 
-3.51423 -3.6761 2.6729e-08 
-3.21492 -3.68067 3.4306e-08 
-2.9173 -3.67992 4.21961e-08 
-2.63461 -3.66785 4.88518e-08 
-2.35916 -3.66168 5.39841e-08 
-2.07011 -3.69274 5.24512e-08 
-1.77882 -3.68987 4.87835e-08 
-1.49151 -3.69702 2.50613e-08 
-1.20717 -3.65912 -6.86298e-09 
-0.897696 -3.6801 -2.95663e-08 
-0.600047 -3.60357 4.75665e-08 
-0.277654 -3.68227 -1.34498e-07 
0.0156539 -3.57007 -1.19597e-07 
0.31287 -3.63564 1.70804e-07 
0.62927 -3.61815 -5.61962e-08 
0.934111 -3.66868 3.67636e-08 
1.23715 -3.66115 2.27945e-09 
1.52118 -3.68089 -2.32553e-08 
1.81104 -3.69297 -4.54173e-08 
2.10264 -3.69371 -5.23572e-08 
2.42324 -3.72929 -5.78405e-08 
2.72079 -3.69203 -4.43473e-08 
3.0321 -3.70623 -4.10349e-08 
3.32392 -3.65876 -2.97493e-08 
3.62151 -3.6715 -2.46053e-08 
3.93018 -3.6769 -1.86908e-08 
4.22964 -3.65967 -1.37353e-08 
4.52895 -3.65802 -1.00732e-08 
4.83878 -3.6693 -7.3027e-09 
5.14996 -3.66771 -5.07062e-09 
5.46171 -3.67092 -3.40061e-09 
5.7647 -3.6562 -2.13841e-09 
6.06303 -3.6587 -1.15383e-09 
6.36292 -3.66222 -4.30234e-10 
6.667 -3.66551 4.43637e-11 
6.95096 -3.63583 4.68944e-10 
7.2515 -3.66705 1.00769e-09 
7.55187 -3.65772 1.23685e-09 
7.85475 -3.66166 1.65124e-09 
8.15246 -3.65242 2.07404e-09 
8.45009 -3.66581 2.72549e-09 
8.73698 -3.62811 3.32609e-09 
9.05587 -3.70274 4.83565e-09 
9.38695 -3.67852 6.04798e-09 
9.69063 -3.62897 8.00096e-09 
10.0236 -3.70647 1.16367e-08 
10.3492 -3.65008 1.28166e-08 
10.7149 -3.71999 1.74062e-08 
11.0496 -3.64656 1.72836e-08 
11.3545 -3.6144 1.57562e-08 
11.7105 -3.72444 3.26945e-08 
12 -3.59934 -1.52513e-08 
-12 -3.29203 1.59468e-08 
-11.6305 -3.36307 -1.64318e-08 
-11.2853 -3.28246 -3.80527e-09 
-10.9726 -3.32865 -8.76312e-09 
-10.6564 -3.29239 -8.02279e-09 
-10.3386 -3.34265 -7.69789e-09 
-10.0168 -3.32045 -6.28055e-09 
-9.69711 -3.31797 -5.40175e-09 
-9.38406 -3.36372 -4.30718e-09 
-9.06906 -3.33282 -3.0773e-09 
-8.7723 -3.31066 -2.15757e-09 
-8.47449 -3.33419 -1.61977e-09 
-8.16692 -3.3314 -1.11791e-09 
-7.86045 -3.32577 -7.17703e-10 
-7.55574 -3.30782 -5.36655e-10 
-7.25712 -3.32363 -3.80443e-10 
-6.95652 -3.34229 -1.86824e-10 
-6.64668 -3.33623 1.21166e-10 
-6.33533 -3.34533 5.22377e-10 
-6.0276 -3.3368 9.76534e-10 
-5.7177 -3.33546 1.58946e-09 
-5.40966 -3.3262 2.40817e-09 
-5.10425 -3.3067 3.38395e-09 
-4.80059 -3.36431 5.04888e-09 
-4.49968 -3.30807 6.51291e-09 
-4.19919 -3.33708 8.63724e-09 
-3.89519 -3.37321 1.20577e-08 
-3.59173 -3.3673 1.57674e-08 
-3.27565 -3.35951 1.96858e-08 
-2.97391 -3.36376 2.51087e-08 
-2.67322 -3.33568 2.76095e-08 
-2.38316 -3.32521 2.93674e-08 
-2.09591 -3.37194 2.89739e-08 
-1.80059 -3.38271 1.51748e-08 
-1.49879 -3.37365 6.07995e-09 
-1.18373 -3.33545 -2.93422e-08 
-0.872878 -3.32212 -3.01495e-08 
-0.596109 -3.17127 2.89737e-08 
-0.308159 -3.29829 -1.66522e-07 
0.012547 -3.15436 9.806e-08 
0.317605 -3.22553 2.2578e-07 
0.601948 -3.18184 4.17531e-08 
0.899867 -3.29692 6.28993e-08 
1.19975 -3.32253 2.02811e-08 
1.5033 -3.35612 -6.57726e-09 
1.79372 -3.37448 -2.1112e-08 
2.08052 -3.38122 -3.08774e-08 
2.37432 -3.43781 -3.73932e-08 
2.67387 -3.38352 -3.05762e-08 
2.97395 -3.39538 -2.59897e-08 
3.26572 -3.33349 -1.91939e-08 
3.56773 -3.33965 -1.5103e-08 
3.86753 -3.35252 -1.21475e-08 
4.16977 -3.32762 -8.79804e-09 
4.47161 -3.31948 -6.48343e-09 
4.77396 -3.33704 -4.97588e-09 
5.08095 -3.3401 -3.67356e-09 
5.39276 -3.34227 -2.49771e-09 
5.69928 -3.32609 -1.60837e-09 
6.00935 -3.31835 -9.96353e-10 
6.30723 -3.32516 -5.2217e-10 
6.60984 -3.33534 -1.24112e-10 
6.90887 -3.28669 1.01946e-10 
7.20591 -3.32863 3.27444e-10 
7.50754 -3.32206 5.42728e-10 
7.81232 -3.32807 8.14994e-10 
8.11829 -3.31429 1.07997e-09 
8.42134 -3.3193 1.48758e-09 
8.74438 -3.30934 2.09678e-09 
9.0684 -3.38446 3.21778e-09 
9.38038 -3.33792 4.23837e-09 
9.68739 -3.28116 5.15548e-09 
9.99814 -3.3774 7.0821e-09 
10.3048 -3.30238 7.18754e-09 
10.6324 -3.40378 1.00054e-08 
10.9654 -3.32808 8.86394e-09 
11.2968 -3.25265 2.73383e-09 
11.6308 -3.37351 1.76201e-08 
12 -3.28789 -1.79833e-08 
-12 -2.9639 1.48487e-08 
-11.6604 -3.04761 -1.1862e-08 
-11.3177 -2.96399 3.42389e-09 
-10.9709 -2.9742 -9.59717e-10 
-10.6305 -2.96643 -1.49175e-09 
-10.299 -3.00219 -2.24064e-09 
-9.97246 -2.98564 -2.54744e-09 
-9.64554 -2.98809 -2.5356e-09 
-9.34283 -3.02255 -2.20108e-09 
-9.04107 -2.97973 -1.51413e-09 
-8.73681 -2.96571 -1.10253e-09 
-8.43636 -2.99481 -8.38645e-10 
-8.13195 -2.99394 -5.35317e-10 
-7.83141 -2.98847 -3.33192e-10 
-7.52978 -2.97044 -1.79176e-10 
-7.22977 -2.99156 -7.51769e-11 
-6.92676 -3.01676 6.05507e-11 
-6.61854 -3.01124 1.85179e-10 
-6.31605 -3.01381 3.85992e-10 
-6.00906 -3.00761 6.54689e-10 
-5.70266 -3.00332 1.01475e-09 
-5.39577 -2.99304 1.46363e-09 
-5.09214 -2.97184 1.85987e-09 
-4.79509 -3.03047 2.65275e-09 
-4.49139 -2.97957 3.05381e-09 
-4.19304 -3.00844 4.28379e-09 
-3.89653 -3.05011 5.89591e-09 
-3.59423 -3.04637 7.44533e-09 
-3.29328 -3.05494 9.64079e-09 
-2.96782 -3.03945 1.32016e-08 
-2.67409 -2.99503 1.25278e-08 
-2.37116 -2.98547 8.40497e-09 
-2.07837 -3.02862 1.09776e-08 
-1.78793 -3.06101 6.19795e-09 
-1.47224 -3.05196 -1.43698e-08 
-1.14352 -2.99123 -4.46443e-08 
-0.879905 -2.89047 -3.98093e-08 
-0.560581 -2.75195 -2.8863e-07 
-0.255513 -2.87924 1.8554e-07 
0.000929691 -2.61214 -1.64716e-07 
0.270019 -2.76254 -8.26622e-08 
0.540573 -2.70064 9.43766e-08 
0.857538 -2.8822 -4.69512e-09 
1.16855 -2.9429 1.2044e-08 
1.47516 -3.01789 -5.03993e-09 
1.77987 -3.03578 -1.15621e-08 
2.07888 -3.04698 -6.8444e-09 
2.36903 -3.12145 -1.54535e-08 
2.66471 -3.05442 -1.31928e-08 
2.95467 -3.06976 -1.20812e-08 
3.25798 -3.00585 -8.30561e-09 
3.56067 -3.01504 -6.90997e-09 
3.86561 -3.02361 -5.72262e-09 
4.16521 -2.99764 -4.25242e-09 
4.46568 -2.98858 -3.22826e-09 
4.76583 -3.00364 -2.54715e-09 
5.06671 -3.0095 -1.99875e-09 
5.3708 -3.0159 -1.46521e-09 
5.67954 -2.99517 -1.00695e-09 
5.98494 -2.99506 -6.98437e-10 
6.29886 -2.98317 -4.02794e-10 
6.59364 -3.00165 -1.44403e-10 
6.9157 -2.97258 -1.9759e-11 
7.23399 -2.99325 8.63702e-11 
7.53603 -2.98816 2.22248e-10 
7.83963 -2.99551 3.67421e-10 
8.14014 -2.97798 5.35276e-10 
8.44899 -2.99698 7.9944e-10 
8.74757 -2.96636 1.05448e-09 
9.04923 -3.05712 1.69773e-09 
9.35481 -3.00094 2.08111e-09 
9.66121 -2.9421 2.16273e-09 
9.98603 -3.02801 2.82142e-09 
10.3189 -2.97298 1.82084e-09 
10.6478 -3.07121 3.56078e-09 
10.9813 -2.98887 1.08782e-09 
11.3338 -2.93076 -4.01119e-09 
11.668 -3.05195 1.34666e-08 
12 -2.94497 -1.96225e-08 
-12 -2.65086 1.74924e-08 
-11.6474 -2.71932 -6.35779e-09 
-11.3048 -2.63848 5.4152e-09 
-10.9659 -2.65159 5.04453e-10 
-10.6324 -2.63875 -1.64613e-11 
-10.2995 -2.67182 -7.45889e-10 
-9.9646 -2.66304 -1.55243e-09 
-9.63741 -2.6641 -1.65003e-09 
-9.31259 -2.67596 -1.38514e-09 
-8.9959 -2.64262 -1.02556e-09 
-8.68423 -2.63082 -7.43471e-10 
-8.37659 -2.6628 -5.24687e-10 
-8.07022 -2.65745 -3.70704e-10 
-7.76229 -2.65608 -2.45757e-10 
-7.44736 -2.64656 -1.15044e-10 
-7.14216 -2.67045 -3.27456e-11 
-6.83852 -2.69294 5.05604e-11 
-6.53057 -2.68018 1.73866e-10 
-6.22624 -2.68309 3.64902e-10 
[...]
POINT_DATA 1978 
VECTORS vectors float
0.00349715 -0.0126519 0.999918 
0.00999276 -0.0545733 0.998457 
0.00774478 -0.0529863 0.998565 
0.00774512 -0.0428881 0.99905 
0.00776238 -0.0328039 0.999432 
0.00788197 -0.0224941 0.999716 
0.00773842 -0.015428 0.999852 
0.00790612 -0.0108115 0.999911 
0.00809434 -0.00753968 0.999939 
0.00793331 -0.00570525 0.999954 
0.00788229 -0.00452709 0.99996 
0.0078218 -0.00367202 0.999965 
0.0075943 -0.00306518 0.999969 
0.00738772 -0.00257999 0.999973 
0.0073757 -0.0021933 0.999974 
0.00752275 -0.00171603 0.999973 
0.00756456 -0.00118242 0.999973 
0.00756232 -0.000519691 0.999975 
0.00766765 0.000326176 0.999973 
0.00765612 0.00143994 0.999972 
0.00762106 0.00288745 0.999969 
0.00752461 0.00487207 0.999962 
0.00748571 0.00747238 0.999947 
0.00772281 0.0108447 0.999913 
0.00749805 0.0162119 0.999843 
0.00733259 0.0221511 0.99973 
0.00739219 0.0306632 0.999504 
0.00716456 0.0432928 0.999039 
0.00671252 0.058969 0.99824 
0.00624324 0.0807618 0.996716 
0.00564167 0.110131 0.993904 
0.004965 0.148313 0.98893 
0.00421309 0.197496 0.980297 
0.00335402 0.271195 0.96252 
0.00220907 0.361917 0.932208 
0.000768726 0.484972 0.87453 
-0.000554978 0.623854 0.781541 
-0.00156849 0.793865 0.608093 
-0.0012271 0.926387 0.37657 
2.47676e-05 0.99998 -0.00619782 
0.00149373 0.929488 -0.368848 
0.00162918 0.787797 -0.615933 
0.000600172 0.624225 -0.781245 
-0.000775824 0.491712 -0.870758 
-0.00194659 0.378696 -0.92552 
-0.00310257 0.284782 -0.958588 
-0.0042884 0.21045 -0.977597 
-0.00546676 0.155007 -0.9879 
-0.00615085 0.109202 -0.994002 
-0.00671247 0.0793165 -0.996829 
-0.00680798 0.0562602 -0.998395 
-0.00699855 0.0415429 -0.999115 
-0.00727342 0.0302975 -0.999517 
-0.00736446 0.0216851 -0.99974 
-0.00737346 0.0155304 -0.999855 
-0.00753056 0.0109352 -0.999914 
-0.0076576 0.00733366 -0.999946 
-0.00768623 0.00466423 -0.999962 
-0.00755467 0.00267742 -0.99997 
-0.00746857 0.00134045 -0.999974 
-0.00748584 0.000393914 -0.999975 
-0.00750118 -0.000484439 -0.999975 
-0.00735334 -0.00120616 -0.999976 
-0.00741627 -0.0016429 -0.999974 
-0.00749263 -0.00225767 -0.999972 
-0.00753557 -0.0029441 -0.99997 
-0.00747557 -0.00354451 -0.999969 
-0.00743548 -0.00418044 -0.999967 
-0.007386 -0.00481253 -0.999964 
-0.00795433 -0.00549937 -0.999955 
-0.00818177 -0.00741918 -0.999939 
-0.00775298 -0.010495 -0.999917 
-0.00796983 -0.014398 -0.999865 
-0.00810151 -0.0222048 -0.99972 
-0.00849845 -0.0309819 -0.999481 
-0.00817056 -0.044079 -0.998992 
-0.00746326 -0.0530957 -0.998563 
-0.00995893 -0.0545551 -0.998459 
-0.00370692 -0.012731 -0.999916 
-0.00229631 -0.00924872 0.999947 
0.0226358 -0.0408968 0.998908 
0.0278796 -0.048603 0.99843 
0.0277048 -0.0439101 0.998652 
0.0293656 -0.0346011 0.998971 
0.0293572 -0.0260516 0.999231 
0.0310098 -0.0183882 0.999351 
0.0321292 -0.0128517 0.999402 
0.0320815 -0.00896325 0.999446 
0.0332333 -0.00644965 0.999428 
0.033594 -0.00488713 0.999425 
0.0338957 -0.00386323 0.999419 
0.0344205 -0.00314163 0.999404 
0.0350795 -0.00254997 0.999382 
0.0356024 -0.0020384 0.999365 
0.0349183 -0.00154104 0.99939 
0.0344465 -0.000962782 0.999408 
0.0347992 -0.000275655 0.999395 
0.0343895 0.000592654 0.999409 
0.0345506 0.00175643 0.999402 
0.0342578 0.00333368 0.999409 
0.0342796 0.00545938 0.999398 
0.0341223 0.00823267 0.999385 
0.0322459 0.0122489 0.999406 
0.0334867 0.0173449 0.99929 
0.0317964 0.0240678 0.999206 
0.0300917 0.0335651 0.998984 
0.0295126 0.0463915 0.998488 
0.0276712 0.0635953 0.997593 
0.0256086 0.0874274 0.995843 
0.0232036 0.118672 0.992663 
0.019991 0.159768 0.986953 
0.0153568 0.217206 0.976006 
0.0110101 0.294899 0.955466 
0.00624304 0.393839 0.919159 
0.00176785 0.515674 0.856784 
-0.00178901 0.669083 0.743187 
-0.00318323 0.823745 0.566951 
-0.00214115 0.956418 0.291992 
3.12759e-05 0.999921 -0.0124407 
0.0026374 0.947899 -0.318557 
0.00337729 0.810701 -0.585451 
0.00163351 0.649329 -0.760506 
-0.00239229 0.498452 -0.866915 
-0.00702214 0.376962 -0.926203 
-0.0118456 0.279899 -0.959958 
-0.0163422 0.20668 -0.978273 
-0.0198633 0.147585 -0.988851 
-0.0235097 0.107492 -0.993929 
-0.0257972 0.0773342 -0.996672 
-0.0286477 0.0568759 -0.997972 
-0.0298222 0.0416187 -0.998689 
-0.0308648 0.0301176 -0.999071 
-0.0323398 0.0218671 -0.999239 
-0.032992 0.0156538 -0.999334 
-0.0331195 0.0108393 -0.999394 
-0.0337085 0.00724645 -0.999406 
-0.0340021 0.00458785 -0.999412 
-0.0350095 0.00271965 -0.999384 
-0.0351535 0.00138167 -0.999382 
-0.0351135 0.00037007 -0.999384 
-0.0352373 -0.000466002 -0.99938 
-0.0363803 -0.00106968 -0.999338 
-0.0350231 -0.00165377 -0.999386 
-0.0353592 -0.00225907 -0.999373 
-0.0352364 -0.00288905 -0.999376 
-0.0355546 -0.00351675 -0.999363 
-0.0350048 -0.00425316 -0.999379 
-0.0358942 -0.0050979 -0.999344 
-0.0324446 -0.00645884 -0.999454 
-0.0325372 -0.00894034 -0.999432 
-0.0333642 -0.0124605 -0.999367 
-0.0296729 -0.0176792 -0.999404 
-0.0301568 -0.024992 -0.999234 
-0.0269598 -0.0348801 -0.999029 
-0.0284958 -0.0438722 -0.998632 
-0.0281145 -0.0483495 -0.998436 
-0.02244 -0.0411469 -0.998902 
0.00234005 -0.00940455 -0.999946 
-0.00227604 -0.010909 0.999935 
0.0267065 -0.0418166 0.998769 
0.0305727 -0.0467127 0.998442 
0.0325669 -0.0413867 0.998613 
0.0337127 -0.0334556 0.998873 
0.0354276 -0.0258638 0.999038 
0.0368788 -0.018966 0.999141 
0.0383611 -0.0134706 0.999174 
0.0390423 -0.00941093 0.999195 
0.0401115 -0.00686857 0.999173 
0.040821 -0.00522608 0.999154 
0.0409434 -0.00401293 0.999154 
0.0411829 -0.00317384 0.999148 
0.0412941 -0.00252944 0.999145 
0.0414184 -0.00195122 0.999141 
0.0414173 -0.00143328 0.999142 
0.0415186 -0.000899972 0.999138 
0.0415294 -0.000250655 0.999138 
0.0413751 0.000564639 0.999145 
0.0411791 0.00166988 0.999151 
0.0408184 0.003192 0.999163 
0.0403918 0.00527772 0.999171 
0.0397834 0.00811928 0.999177 
0.0392967 0.0118628 0.999158 
0.0384697 0.0169647 0.999117 
0.0375646 0.0237168 0.999014 
0.0364108 0.0327338 0.998802 
0.0344864 0.0447222 0.998405 
0.032157 0.0623288 0.997539 
0.0294402 0.0856361 0.995892 
0.0255901 0.117827 0.992706 
0.0213212 0.160547 0.986799 
0.017115 0.218297 0.975733 
0.0120306 0.295738 0.955194 
0.00636901 0.397811 0.917447 
0.00141588 0.533938 0.845523 
-0.00175777 0.688913 0.724843 
-0.00217819 0.832067 0.554671 
-0.00206927 0.949767 0.312949 
0.000332369 0.999876 -0.0156535 
0.00179218 0.945795 -0.324756 
0.00216853 0.826719 -0.562611 
0.00130702 0.672683 -0.73993 
-0.00190942 0.522508 -0.852633 
-0.00681255 0.392252 -0.919834 
-0.0121417 0.293327 -0.955936 
-0.0173079 0.218026 -0.975791 
-0.0224219 0.159577 -0.986932 
-0.0261473 0.117188 -0.992767 
-0.0294579 0.0853391 -0.995918 
-0.0318924 0.0635791 -0.997468 
-0.0340637 0.046425 -0.998342 
-0.0359505 0.0339419 -0.998778 
-0.0371895 0.024654 -0.999005 
-0.0381251 0.0176291 -0.999119 
-0.03917 0.0123941 -0.999157 
-0.0399827 0.0084238 -0.999166 
-0.0405249 0.00545584 -0.999165 
-0.0409627 0.00333859 -0.999156 
-0.0412624 0.0017836 -0.999148 
-0.0414586 0.000701497 -0.999141 
-0.0416296 -0.000133159 -0.999134 
-0.0414891 -0.00077654 -0.99914 
-0.0417421 -0.00139268 -0.999128 
-0.0416711 -0.00196038 -0.999131 
-0.0416435 -0.00256667 -0.99913 
-0.0415059 -0.00323467 -0.999134 
-0.0411293 -0.0040589 -0.999147 
-0.0410864 -0.00528855 -0.999143 
-0.0402611 -0.00698589 -0.999166 
-0.0395611 -0.00962533 -0.999172 
-0.038454 -0.0135057 -0.99917 
-0.0369739 -0.0183925 -0.999148 
-0.0356971 -0.0252218 -0.999045 
-0.0340375 -0.0328602 -0.998881 
-0.0325828 -0.041079 -0.998626 
-0.0301786 -0.0466176 -0.998458 
-0.0266803 -0.0415323 -0.998782 
0.00270841 -0.0114882 -0.999926 
-0.0016334 -0.0108148 0.999938 
0.0227132 -0.0400656 0.99894 
0.0260699 -0.0470804 0.998552 
0.0283592 -0.0415882 0.998733 
0.0301279 -0.0340768 0.998966 
0.0323788 -0.0263141 0.99913 
0.0337582 -0.0193696 0.999243 
0.0351245 -0.013655 0.999291 
0.0367833 -0.00980078 0.999276 
0.0368602 -0.00714999 0.999296 
0.0371447 -0.00522884 0.999297 
0.0378897 -0.00390714 0.999275 
0.0380637 -0.0029908 0.999272 
0.0380795 -0.00231166 0.999273 
0.0378345 -0.00173847 0.999284 
0.0382727 -0.0012335 0.999268 
0.0386378 -0.000701381 0.999254 
0.0384372 -4.24562e-05 0.999262 
0.0383134 0.000775466 0.999267 
0.0380369 0.00191081 0.999276 
0.0376836 0.00349662 0.999285 
0.0371359 0.00572724 0.999295 
0.0363761 0.00882858 0.9993 
0.0363126 0.012683 0.999261 
0.0348169 0.0183591 0.999226 
0.0339643 0.0252779 0.999104 
0.033021 0.0343128 0.998867 
0.0312572 0.0471566 0.998399 
0.0289213 0.0638774 0.99754 
0.0254298 0.0890624 0.995703 
0.0214189 0.12238 0.992253 
0.0173811 0.168952 0.985472 
0.013779 0.227595 0.97366 
0.0094613 0.30526 0.952223 
0.00476793 0.414905 0.909854 
0.000966571 0.558165 0.829731 
-0.000336618 0.689339 0.72444 
3.68111e-05 0.847489 0.530812 
0.00023947 0.964301 0.264805 
0.00205595 0.999996 -0.000711917 
0.00201815 0.958465 -0.285201 
0.00207119 0.852334 -0.522994 
0.00126597 0.693426 -0.720527 
-0.000795198 0.539685 -0.841868 
-0.0047816 0.408121 -0.912916 
-0.00924122 0.303836 -0.952681 
-0.0138455 0.226209 -0.973981 
-0.0191996 0.166333 -0.985884 
-0.0224269 0.12331 -0.992116 
-0.0256639 0.0905665 -0.995561 
-0.0277298 0.0673291 -0.997346 
-0.0301286 0.0491785 -0.998337 
-0.0321668 0.0356961 -0.998846 
-0.0334713 0.0261785 -0.999098 
-0.0347758 0.0189863 -0.999216 
-0.0359388 0.0133489 -0.999266 
-0.0368314 0.00913918 -0.999281 
-0.0375037 0.00599593 -0.99928 
-0.0376111 0.00369197 -0.999287 
-0.0378957 0.00204305 -0.999281 
-0.0379163 0.00086929 -0.999282 
-0.0381908 5.857e-05 -0.999272 
-0.0380619 -0.000638844 -0.999276 
-0.0381978 -0.00125249 -0.999271 
-0.0382789 -0.00180705 -0.999267 
-0.0384187 -0.00242008 -0.99926 
-0.0381173 -0.00313562 -0.999269 
-0.0381927 -0.00411756 -0.999263 
-0.0374487 -0.00545333 -0.999285 
-0.0382236 -0.00727975 -0.999244 
-0.0365581 -0.0101044 -0.999282 
-0.0345648 -0.0142103 -0.999303 
-0.0344344 -0.0195956 -0.999216 
-0.0320286 -0.0269437 -0.999125 
-0.0317197 -0.0340462 -0.998918 
-0.0286331 -0.0417766 -0.998718 
-0.0253926 -0.0471484 -0.998566 
-0.0224937 -0.0394288 -0.99897 
0.00242927 -0.011286 -0.999929 
-0.00195274 -0.0120828 0.999921 
0.0179422 -0.04064 0.999014 
0.0208854 -0.0484871 0.998606 
0.0231674 -0.0425362 0.998828 
0.0250099 -0.0356702 0.999052 
0.0271491 -0.0276919 0.999249 
0.0286571 -0.0204172 0.999382 
0.0300041 -0.0145715 0.999444 
0.0309795 -0.0101512 0.99947 
0.0311046 -0.00719586 0.999491 
0.0312529 -0.00511396 0.9995 
0.0321178 -0.00370805 0.999478 
0.0321484 -0.00273376 0.99948 
0.0321782 -0.00202407 0.999481 
0.0319963 -0.0014469 0.999488 
0.0325099 -0.000939205 0.999472 
0.0329278 -0.00039188 0.999459 
0.0325097 0.000293223 0.999472 
0.0324381 0.00118626 0.999474 
0.032135 0.00246483 0.999482 
0.0317775 0.00431829 0.999487 
0.0311062 0.00693366 0.999493 
0.0304068 0.0106248 0.999482 
0.0304282 0.0149389 0.999426 
0.0287197 0.0214552 0.999358 
0.0280537 0.029237 0.99918 
0.0271464 0.0391711 0.998865 
0.0252124 0.0528498 0.998285 
0.0231665 0.072367 0.99711 
0.0194924 0.0986767 0.99493 
0.0157145 0.137258 0.990412 
0.0121791 0.185368 0.982595 
0.00907476 0.248944 0.968477 
0.00580722 0.335385 0.942064 
0.00236386 0.460578 0.887617 
0.000792676 0.579009 0.815322 
0.000871196 0.733226 0.679984 
0.000438063 0.856234 0.516588 
0.00172241 0.940577 0.339574 
-0.000414961 0.998072 0.0620505 
0.000266034 0.964924 -0.262527 
0.000192728 0.843771 -0.536702 
0.00125555 0.704551 -0.709652 
-0.000185941 0.54226 -0.840212 
-0.00299372 0.407109 -0.913377 
-0.00650704 0.303805 -0.952713 
-0.0103904 0.227296 -0.973772 
-0.0152682 0.165797 -0.986043 
-0.0172606 0.123682 -0.992173 
-0.020893 0.0905091 -0.995678 
-0.0227123 0.0656247 -0.997587 
-0.0251974 0.0478477 -0.998538 
-0.026939 0.0352636 -0.999016 
-0.0280837 0.0256842 -0.999277 
-0.0291591 0.0185087 -0.999404 
-0.0303544 0.0130331 -0.999455 
-0.0311764 0.00889732 -0.999475 
-0.0318058 0.00578892 -0.999478 
-0.0317769 0.00350202 -0.99949 
-0.032215 0.00187651 -0.99948 
-0.0317746 0.000806888 -0.999496 
-0.0326798 1.16622e-05 -0.999467 
-0.032291 -0.0006343 -0.999479 
-0.032302 -0.00116371 -0.999479 
-0.0323342 -0.00170843 -0.999477 
-0.0323575 -0.00231517 -0.999475 
-0.0322206 -0.00309729 -0.999477 
-0.0323024 -0.00415131 -0.999471 
-0.0313092 -0.00564852 -0.999495 
-0.0326874 -0.00764771 -0.999437 
-0.0308746 -0.0106982 -0.999467 
-0.0290345 -0.0153163 -0.999462 
-0.0292863 -0.0209613 -0.999352 
-0.0267645 -0.0284718 -0.999237 
-0.0265388 -0.0356011 -0.999015 
-0.0232862 -0.0433462 -0.99879 
-0.0199275 -0.0482448 -0.998638 
-0.0173885 -0.0397748 -0.999058 
0.0015346 -0.0111129 -0.999935 
-0.00160116 -0.0122886 0.999919 
0.0119131 -0.0374847 0.999227 
0.0154053 -0.0490477 0.998679 
0.0174483 -0.0461423 0.998784 
0.0190885 -0.0394377 0.999041 
0.0210173 -0.0317096 0.999277 
0.022523 -0.0241956 0.999455 
0.0234891 -0.017507 0.999572 
0.0244395 -0.0123371 0.999626 
0.0246516 -0.00873714 0.999659 
0.0244062 -0.00605141 0.999685 
0.0248863 -0.00418243 0.999683 
0.0250757 -0.00300881 0.999682 
0.0251589 -0.00217515 0.999682 
0.0251896 -0.00156545 0.999683 
0.0251874 -0.00103517 0.999683 
0.0256142 -0.000536786 0.999673 
0.0256749 2.366e-05 0.999671 
0.0253323 0.000792222 0.99968 
0.0252196 0.00186621 0.999681 
0.0250049 0.00347444 0.999682 
0.0244918 0.00578833 0.999684 
0.0240477 0.00904817 0.999671 
0.0231598 0.0133824 0.999643 
0.023304 0.0183898 0.99956 
0.0217275 0.025858 0.999431 
0.0210923 0.0345964 0.99918 
0.0200701 0.0455435 0.998762 
0.0188271 0.0616327 0.997922 
0.0162513 0.0823359 0.996473 
0.0130546 0.115621 0.993209 
0.00930523 0.16127 0.986868 
0.00662432 0.224724 0.974401 
0.00413055 0.306242 0.951946 
0.00223519 0.406225 0.913772 
0.000510161 0.522121 0.852873 
4.11337e-05 0.674354 0.73841 
-0.00108732 0.831995 0.554781 
-0.00191526 0.983533 0.180711 
-0.00531948 0.998194 -0.0598103 
-0.00347532 0.947355 -0.32016 
-0.00963017 0.957614 -0.287886 
-0.00151936 0.77478 -0.632231 
7.85458e-05 0.610901 -0.791709 
-0.000852865 0.446267 -0.894901 
-0.00295489 0.332056 -0.943256 
-0.00557237 0.245805 -0.969305 
-0.00990407 0.182275 -0.983199 
-0.0113398 0.139588 -0.990146 
-0.0146394 0.100781 -0.994802 
-0.0168267 0.0744683 -0.997083 
-0.018772 0.0529003 -0.998424 
-0.0202261 0.0389755 -0.999037 
-0.0214515 0.0287223 -0.999358 
-0.0222687 0.0208377 -0.999536 
-0.0232526 0.0147892 -0.999621 
-0.0239749 0.0102493 -0.999661 
-0.0246484 0.00678681 -0.999674 
-0.0248664 0.00422588 -0.999683 
-0.025225 0.00232016 -0.99968 
-0.0246736 0.00109616 -0.999696 
-0.0254952 0.000219933 -0.999676 
-0.0257237 -0.000390207 -0.99967 
-0.0249338 -0.000934021 -0.99969 
-0.0252024 -0.00144389 -0.999682 
-0.0249379 -0.00204352 -0.999688 
-0.0248949 -0.00279853 -0.999687 
-0.0249543 -0.00390152 -0.999682 
-0.024223 -0.00550397 -0.999693 
-0.0257223 -0.00796657 -0.999638 
-0.0245356 -0.011557 -0.999633 
-0.0227575 -0.0164397 -0.999607 
-0.0234446 -0.0224355 -0.999475 
-0.0211255 -0.0303638 -0.999317 
-0.021285 -0.0374647 -0.999072 
-0.0181679 -0.044981 -0.998824 
-0.0150189 -0.0496822 -0.998653 
-0.0130902 -0.0415142 -0.999053 
0.000868232 -0.0108813 -0.999939 
-0.000476151 -0.0108821 0.99994 
0.0090953 -0.0429268 0.999038 
0.0118011 -0.0506303 0.998649 
0.0129617 -0.0456357 0.998875 
0.0145656 -0.0381775 0.999166 
0.0158335 -0.0304421 0.999412 
0.0170665 -0.0228005 0.999595 
0.0177335 -0.0162038 0.999713 
0.0179369 -0.0114602 0.999775 
0.0181591 -0.0079102 0.999805 
0.0181257 -0.00524529 0.999823 
0.0179489 -0.00361467 0.999833 
0.0181609 -0.0025415 0.999833 
0.0181555 -0.00181752 0.999835 
0.0183207 -0.00127452 0.999832 
0.0180936 -0.000794714 0.999837 
0.0182247 -0.000317308 0.999835 
0.0184546 0.000290231 0.999831 
0.018034 0.0011729 0.999838 
0.0180732 0.00250529 0.999835 
0.0177968 0.00449514 0.999833 
0.0174963 0.0073979 0.999821 
0.0169223 0.0112994 0.999794 
0.0160278 0.0163567 0.999739 
0.0163164 0.0222499 0.99962 
0.014948 0.0310078 0.999408 
0.0140456 0.041047 0.99906 
0.0137801 0.0550049 0.998392 
0.0117227 0.0736743 0.997215 
0.00999019 0.102115 0.994724 
0.00659165 0.146942 0.989125 
0.00412886 0.212852 0.977077 
0.00245154 0.296747 0.954954 
0.000829914 0.412541 0.91094 
-0.000744245 0.569568 0.821945 
-0.00181917 0.712896 0.701268 
-0.00343691 0.862981 0.505224 
-0.0039886 0.96056 0.278048 
-0.00368992 0.947285 0.320371 
-0.00736503 0.996542 0.0827423 
0.00275501 0.997686 0.067902 
-0.00586091 0.974736 -0.223275 
-0.00562411 0.852879 -0.522077 
-0.00169857 0.6863 -0.727319 
0.000294105 0.512533 -0.858669 
-0.000405509 0.375832 -0.926689 
-0.00198125 0.275429 -0.961321 
-0.00513687 0.19217 -0.98135 
-0.00749988 0.134577 -0.990876 
-0.00985962 0.0982436 -0.995115 
-0.0125463 0.069441 -0.997508 
-0.0131801 0.0510008 -0.998613 
-0.0143018 0.0376083 -0.999191 
-0.015312 0.027651 -0.999501 
-0.0159456 0.0200716 -0.999672 
-0.0165104 0.0143372 -0.999762 
-0.0170394 0.00987249 -0.999807 
-0.0175522 0.00648417 -0.999826 
-0.0181445 0.00382986 -0.999829 
-0.0179321 0.00209588 -0.999838 
-0.0181538 0.000827061 -0.999836 
-0.0182484 8.50267e-05 -0.999835 
-0.0186851 -0.000477838 -0.999826 
-0.0176907 -0.000958922 -0.999844 
-0.0181387 -0.00145527 -0.999835 
-0.0175897 -0.00203478 -0.999844 
-0.0178159 -0.00287715 -0.999838 
-0.0178537 -0.00407946 -0.999833 
-0.0171136 -0.0058155 -0.999838 
-0.0192073 -0.00816483 -0.999783 
-0.0180482 -0.0117553 -0.999769 
-0.0168853 -0.0171778 -0.999711 
-0.0174996 -0.0239379 -0.999561 
-0.0155436 -0.0321732 -0.999363 
-0.0158515 -0.0395128 -0.999094 
-0.0130333 -0.046678 -0.998826 
-0.0105493 -0.0511646 -0.998636 
-0.00917317 -0.0420974 -0.999073 
0.000693678 -0.0107952 -0.99994 
-0.000445402 -0.0108077 0.99994 
0.00601882 -0.0424436 0.999082 
0.00793015 -0.0517375 0.99863 
0.00887761 -0.0481162 0.998803 
0.0100371 -0.040852 0.999116 
0.01093 -0.0328931 0.9994 
0.0118044 -0.0250135 0.999619 
0.0124517 -0.0181612 0.999759 
0.0123401 -0.0127283 0.999844 
0.0125027 -0.00876813 0.999884 
0.0128259 -0.00588769 0.999901 
0.0121747 -0.00387066 0.999919 
0.012265 -0.002663 0.999922 
0.0121802 -0.00188724 0.999925 
0.0122851 -0.00135794 0.999925 
0.0121553 -0.00092632 0.999927 
0.0119031 -0.000485948 0.99993 
0.0121948 5.54545e-05 0.999927 
0.01206 0.000835149 0.999928 
0.0119978 0.00209871 0.999927 
0.0118641 0.00398492 0.999923 
0.01179 0.00674732 0.999909 
0.011349 0.0105699 0.999881 
0.0106316 0.0154711 0.999825 
0.0103621 0.0217524 0.999711 
0.0103333 0.0293959 0.999515 
0.00887423 0.039912 0.999165 
0.0090375 0.053051 0.998552 
0.00741394 0.0706351 0.997476 
0.00650944 0.096287 0.995334 
0.00460953 0.134028 0.990968 
0.00260019 0.201234 0.979541 
0.00132706 0.290578 0.956852 
0.00027742 0.4047 0.914451 
-0.000945659 0.66367 0.748026 
-0.000133689 0.81476 0.5798 
0.00615777 0.940028 0.341076 
0.00620872 0.994227 0.107156 
0.00662648 0.997193 0.0745999 
0.00417571 0.999929 0.0103008 
0.000411199 0.997808 -0.0661348 
0.000581847 0.997573 -0.0697019 
-0.00599952 0.819649 -0.572837 
-0.00320322 0.657824 -0.753166 
-0.000160981 0.53613 -0.844137 
0.000381213 0.386034 -0.922486 
-0.00040222 0.287447 -0.957798 
-0.00230366 0.206348 -0.978477 
-0.00410767 0.146902 -0.989144 
-0.00563002 0.103178 -0.994648 
-0.00779611 0.0757207 -0.9971 
-0.00828227 0.0560681 -0.998394 
-0.00897502 0.0413696 -0.999105 
-0.00973246 0.0306745 -0.999483 
-0.0102855 0.0226342 -0.999692 
-0.0106424 0.0163511 -0.999811 
-0.0110146 0.0113862 -0.999876 
-0.0112976 0.00751327 -0.999909 
-0.0121649 0.00463831 -0.999916 
-0.0117483 0.0025462 -0.999929 
-0.0125849 0.00112948 -0.999921 
-0.0119865 0.000207177 -0.999929 
-0.012408 -0.00036466 -0.999924 
-0.0119681 -0.000812607 -0.999929 
-0.0120755 -0.0012798 -0.999927 
-0.0117245 -0.00179001 -0.999931 
-0.011899 -0.00257899 -0.999927 
-0.0117866 -0.0037556 -0.999925 
-0.0117667 -0.00570472 -0.999916 
-0.0130953 -0.00867268 -0.999878 
-0.0127364 -0.0129382 -0.999836 
-0.0115048 -0.0184515 -0.999765 
-0.0125566 -0.0247284 -0.999616 
-0.0108399 -0.0325572 -0.999412 
-0.0111961 -0.04027 -0.999127 
-0.00910817 -0.0477814 -0.998817 