# vtk DataFile Version 3.0 
Exported using Morpho https://github.com/Morpho-lang/morpho 
ASCII 
DATASET UNSTRUCTURED_GRID 

POINTS 1978 float 
-12 -4 4.54167e-11 
-11.5951 -4 -1.31172e-09 
-11.2909 -4 -1.59425e-09 
-10.9419 -4 -9.90787e-10 
-10.627 -4 -7.37976e-10 
-10.2816 -4 -4.88892e-10 
-9.9604 -4 -3.13806e-10 
-9.64934 -4 -2.3219e-10 
-9.31378 -4 -1.58741e-10 
-8.99721 -4 -1.53163e-10 
-8.68309 -4 -1.30013e-10 
-8.36741 -4 -1.04445e-10 
-8.0612 -4 -1.03776e-10 
-7.76697 -4 -7.43415e-11 
-7.48325 -4 -9.15707e-11 
-7.19045 -4 -5.69645e-11 
-6.89182 -4 -4.82019e-11 
-6.59314 -4 -3.4335e-11 
-6.2946 -4 -1.82194e-12 
-5.98822 -4 1.97699e-11 
-5.68746 -4 6.2974e-11 
-5.3834 -4 1.16132e-10 
-5.08339 -4 1.78778e-10 
-4.78857 -4 2.6365e-10 
-4.45798 -4 3.7833e-10 
-4.17075 -4 5.16342e-10 
-3.86658 -4 6.72894e-10 
-3.54613 -4 8.69291e-10 
-3.24968 -4 9.90113e-10 
-2.95439 -4 1.15019e-09 
-2.6651 -4 1.17831e-09 
-2.38988 -4 1.06489e-09 
-2.12566 -4 1.01289e-09 
-1.83649 -4 6.67584e-10 
-1.55622 -4 8.43062e-10 
-1.26118 -4 1.31466e-09 
-0.980155 -4 4.94364e-09 
-0.657547 -4 5.2188e-09 
-0.36832 -4 1.30483e-08 
0.0077887 -4 -6.65762e-09 
0.355536 -4 -9.6875e-09 
0.661649 -4 -6.3386e-09 
0.967874 -4 -4.45234e-09 
1.23974 -4 -2.26316e-10 
1.51286 -4 1.37146e-11 
1.78274 -4 -8.40702e-10 
2.06519 -4 -1.04011e-09 
2.35018 -4 -1.16949e-09 
2.6768 -4 -1.31745e-09 
2.97304 -4 -1.17458e-09 
3.29646 -4 -9.76771e-10 
3.58371 -4 -8.14154e-10 
3.88646 -4 -6.54173e-10 
4.19754 -4 -4.91778e-10 
4.49612 -4 -3.69567e-10 
4.79546 -4 -2.62798e-10 
5.10475 -4 -1.77825e-10 
5.41068 -4 -1.13263e-10 
5.71859 -4 -5.63806e-11 
6.012 -4 -1.4747e-11 
6.30522 -4 5.13047e-12 
6.60147 -4 2.49275e-11 
6.90029 -4 4.67797e-11 
7.17559 -4 7.34118e-11 
7.47706 -4 7.5007e-11 
7.77119 -4 1.18856e-10 
8.0688 -4 1.12292e-10 
8.35806 -4 1.36124e-10 
8.65944 -4 1.64562e-10 
8.93385 -4 1.38823e-10 
9.27975 -4 1.57034e-10 
9.6063 -4 2.37298e-10 
9.89466 -4 3.1122e-10 
10.2627 -4 5.20353e-10 
10.5759 -4 7.4047e-10 
10.9719 -4 1.03991e-09 
11.2904 -4 1.60971e-09 
11.5845 -4 1.285e-09 
12 -4 -5.23475e-11 
-12 -3.59671 -7.36323e-10 
-11.7141 -3.71547 -3.17226e-10 
-11.3613 -3.62598 -2.32989e-10 
-11.0444 -3.67401 -2.69184e-10 
-10.7087 -3.64281 -2.10496e-10 
-10.3912 -3.6772 -1.87923e-10 
-10.0554 -3.66116 -1.41449e-10 
-9.73383 -3.66051 -1.12856e-10 
-9.4051 -3.68429 -7.77669e-11 
-9.06923 -3.66601 -5.58284e-11 
-8.74789 -3.66465 -4.03865e-11 
-8.4307 -3.66944 -3.14326e-11 
-8.11434 -3.66479 -2.34121e-11 
-7.80409 -3.65751 -1.8939e-11 
-7.50454 -3.65139 -1.45572e-11 
-7.20734 -3.66547 -9.82993e-12 
-6.89919 -3.6672 -7.06799e-12 
-6.59014 -3.66194 -5.41784e-13 
-6.2769 -3.67262 7.52546e-12 
-5.96784 -3.66573 1.67517e-11 
-5.65811 -3.66657 2.96691e-11 
-5.35236 -3.66019 4.60066e-11 
-5.05553 -3.65321 6.80348e-11 
-4.73241 -3.69022 1.03982e-10 
-4.44111 -3.64974 1.33023e-10 
-4.13771 -3.67258 1.90596e-10 
-3.82195 -3.69317 2.56499e-10 
-3.51738 -3.68097 3.52985e-10 
-3.21413 -3.68055 4.5861e-10 
-2.92031 -3.67418 4.51664e-10 
-2.63824 -3.6646 5.75859e-10 
-2.36469 -3.65953 6.15514e-10 
-2.07444 -3.68727 6.26378e-10 
-1.77957 -3.68669 6.25775e-10 
-1.4906 -3.69055 3.0345e-10 
-1.20427 -3.65613 -5.15663e-11 
-0.891447 -3.67825 -2.9273e-10 
-0.594089 -3.59986 4.02435e-10 
-0.266527 -3.68508 -1.51379e-09 
0.0219201 -3.55119 -1.2902e-09 
0.31793 -3.62789 1.67329e-09 
0.631958 -3.60968 -7.47389e-10 
0.932982 -3.66194 3.52413e-10 
1.23554 -3.65445 -1.33774e-11 
1.52365 -3.67145 -2.37855e-10 
1.81261 -3.68663 -5.59673e-10 
2.10256 -3.68755 -6.41574e-10 
2.42053 -3.72732 -8.51003e-10 
2.72445 -3.6897 -5.30813e-10 
3.03453 -3.70587 -5.25453e-10 
3.32614 -3.66049 -3.53755e-10 
3.62485 -3.67318 -3.0804e-10 
3.93284 -3.67809 -2.34132e-10 
4.23209 -3.66174 -1.7044e-10 
4.53077 -3.66009 -1.2475e-10 
4.83921 -3.67054 -9.14636e-11 
5.14956 -3.66852 -6.32004e-11 
5.46062 -3.67106 -4.21676e-11 
5.7633 -3.65633 -2.6034e-11 
6.06219 -3.65907 -1.39027e-11 
6.36178 -3.66127 -5.182e-12 
6.66652 -3.66639 1.15725e-12 
6.95125 -3.63725 6.00943e-12 
7.25181 -3.66803 1.27046e-11 
7.55184 -3.65839 1.58222e-11 
7.85456 -3.66217 2.10755e-11 
8.15186 -3.65237 2.589e-11 
8.44923 -3.66537 3.40019e-11 
8.73625 -3.62861 3.9728e-11 
9.05576 -3.70335 6.2983e-11 
9.38707 -3.67898 7.8438e-11 
9.691 -3.62974 9.70056e-11 
10.0242 -3.70736 1.56287e-10 
10.3509 -3.65126 1.71792e-10 
10.7161 -3.72031 2.61514e-10 
11.0511 -3.64702 2.43226e-10 
11.3557 -3.61441 2.24052e-10 
11.7118 -3.72522 3.23796e-10 
12 -3.59935 7.19187e-10 
-12 -3.29203 -7.25375e-10 
-11.6311 -3.36392 -1.01202e-10 
-11.2862 -3.28247 -4.28413e-11 
-10.9733 -3.3284 -9.37596e-11 
-10.6564 -3.29247 -8.6234e-11 
-10.3372 -3.34259 -8.14646e-11 
-10.0139 -3.32255 -6.31633e-11 
-9.69565 -3.32093 -5.14188e-11 
-9.38652 -3.36286 -5.10468e-11 
-9.06929 -3.33346 -3.13286e-11 
-8.77289 -3.31105 -2.31924e-11 
-8.47419 -3.33406 -1.71325e-11 
-8.1661 -3.33244 -1.1984e-11 
-7.85837 -3.32576 -7.38962e-12 
-7.55453 -3.31009 -5.8708e-12 
-7.25531 -3.3242 -3.96151e-12 
-6.95612 -3.34056 -1.51084e-12 
-6.64685 -3.33503 7.31314e-13 
-6.3355 -3.34538 5.7649e-12 
-6.02711 -3.33694 1.04219e-11 
-5.71695 -3.33554 1.69089e-11 
-5.40903 -3.32685 2.57046e-11 
-5.10397 -3.3089 3.61557e-11 
-4.80145 -3.3661 5.35512e-11 
-4.50073 -3.31271 6.81411e-11 
-4.20025 -3.34044 9.1798e-11 
-3.8956 -3.37456 1.30923e-10 
-3.59145 -3.36724 1.82782e-10 
-3.28219 -3.36845 1.06811e-10 
-2.97398 -3.35416 3.02329e-10 
-2.6698 -3.33007 3.9046e-10 
-2.38257 -3.31521 3.81816e-10 
-2.10459 -3.36537 2.24104e-10 
-1.8053 -3.37932 1.31901e-10 
-1.49815 -3.3623 6.47542e-11 
-1.17736 -3.33372 -2.35091e-10 
-0.866979 -3.31456 -2.90497e-10 
-0.594888 -3.15709 1.35248e-10 
-0.311743 -3.30891 -3.61571e-10 
0.00946056 -3.12721 -5.13113e-09 
0.313459 -3.22052 1.95226e-09 
0.604134 -3.18048 8.27529e-10 
0.902249 -3.28716 7.58692e-10 
1.19861 -3.30782 2.39753e-10 
1.50047 -3.34605 -9.93522e-11 
1.79715 -3.36178 -1.33652e-10 
2.08228 -3.37233 -2.89656e-10 
2.37999 -3.43557 -2.51622e-10 
2.67341 -3.37616 -4.01797e-10 
2.97674 -3.39393 -2.89084e-10 
3.27006 -3.33509 -1.8753e-10 
3.57085 -3.34222 -1.56576e-10 
3.87041 -3.35371 -1.30355e-10 
4.17247 -3.3303 -9.19565e-11 
4.47357 -3.32224 -6.83145e-11 
4.77491 -3.33835 -5.31766e-11 
5.08066 -3.34145 -3.95997e-11 
5.39229 -3.34247 -2.64992e-11 
5.69891 -3.32582 -1.73803e-11 
6.00917 -3.31931 -1.05271e-11 
6.30777 -3.32347 -5.41757e-12 
6.61101 -3.33607 -1.20334e-12 
6.91064 -3.28886 1.27271e-12 
7.20774 -3.32981 3.64025e-12 
7.509 -3.32244 5.9188e-12 
7.81288 -3.32865 8.73096e-12 
8.11866 -3.31368 1.16126e-11 
8.42072 -3.31837 1.57421e-11 
8.74312 -3.3093 2.20437e-11 
9.06729 -3.38535 3.41029e-11 
9.37951 -3.33886 4.42183e-11 
9.68953 -3.28452 5.64645e-11 
10.0014 -3.37924 8.0162e-11 
10.3057 -3.30187 7.68623e-11 
10.6319 -3.40358 1.0295e-10 
10.9646 -3.32949 9.18594e-11 
11.2961 -3.25253 3.117e-11 
11.6308 -3.37396 1.08755e-10 
12 -3.28789 8.19673e-10 
-12 -2.96389 -6.84483e-10 
-11.6611 -3.04801 -4.49828e-11 
-11.3178 -2.96406 3.41471e-11 
-10.9704 -2.97384 -9.49765e-12 
-10.6296 -2.96588 -1.55883e-11 
-10.2982 -3.0028 -2.52839e-11 
-9.97148 -2.98817 -1.84359e-11 
-9.64929 -2.98457 -3.91821e-11 
-9.34515 -3.0247 -2.00509e-11 
-9.04285 -2.97923 -1.70513e-11 
-8.73846 -2.96657 -1.19218e-11 
-8.43735 -2.99506 -9.23291e-12 
-8.13143 -2.99641 -5.48352e-12 
-7.83071 -2.98818 -3.66696e-12 
-7.52829 -2.97393 -1.73662e-12 
-7.22888 -2.99013 -7.88071e-13 
-6.9244 -3.01485 7.4643e-13 
-6.61576 -3.01025 2.30109e-12 
-6.31248 -3.01433 4.33849e-12 
-6.00528 -3.00769 7.52026e-12 
-5.69969 -3.00314 1.15203e-11 
-5.39378 -2.99366 1.67143e-11 
-5.09149 -2.97424 2.04571e-11 
-4.79388 -3.03202 3.09882e-11 
-4.49135 -2.98319 3.45997e-11 
-4.19363 -3.01193 4.56178e-11 
-3.89606 -3.05139 6.37869e-11 
-3.591 -3.04816 8.50119e-11 
-3.28918 -3.0536 1.83445e-10 
-2.96996 -3.03756 6.77574e-11 
-2.6784 -2.98852 7.83585e-11 
-2.37526 -2.97922 1.03021e-11 
-2.07786 -3.01197 2.2698e-10 
-1.79779 -3.05993 -7.46897e-11 
-1.47333 -3.04365 -1.47682e-10 
-1.14789 -2.98621 -5.55383e-10 
-0.87977 -2.88197 -4.65044e-10 
-0.545691 -2.75795 -2.5102e-09 
-0.231217 -2.89347 2.35281e-09 
0.00342586 -2.54632 4.94527e-10 
0.257652 -2.77954 1.81571e-09 
0.515155 -2.69346 8.05528e-10 
0.835208 -2.88202 -2.11365e-10 
1.1545 -2.92626 4.98887e-12 
1.46911 -3.00429 -7.10326e-11 
1.77559 -3.03122 -2.61204e-10 
2.08192 -3.03368 -1.40592e-10 
2.369 -3.11542 -2.45597e-10 
2.6646 -3.04468 -1.80719e-10 
2.95731 -3.07296 -3.17968e-11 
3.25706 -3.00756 -1.17617e-10 
3.56168 -3.01736 -7.32783e-11 
3.86801 -3.02476 -5.7805e-11 
4.16707 -2.99958 -4.57899e-11 
4.46791 -2.99204 -3.24353e-11 
4.76869 -3.00454 -2.56957e-11 
5.06839 -3.01017 -2.0457e-11 
5.37097 -3.01667 -1.51556e-11 
5.67956 -2.99495 -1.04737e-11 
5.98498 -2.99585 -7.01623e-12 
6.29862 -2.98178 -4.27429e-12 
6.59422 -3.00242 -1.41148e-12 
6.91651 -2.97459 -6.47372e-15 
7.2345 -2.99395 1.02251e-12 
7.5355 -2.98757 2.28829e-12 
7.83921 -2.99624 3.94749e-12 
8.13818 -2.97603 5.43842e-12 
8.44723 -2.99587 8.1767e-12 
8.74726 -2.96614 1.10698e-11 
9.0477 -3.05803 1.68831e-11 
9.35604 -3.00448 2.1801e-11 
9.65853 -2.94262 2.04678e-11 
9.98268 -3.02907 2.45796e-11 
10.3178 -2.97436 1.62883e-11 
10.6489 -3.07004 4.21266e-11 
10.9822 -2.98971 1.236e-11 
11.3349 -2.93045 -3.79703e-11 
11.6686 -3.05288 5.20228e-11 
12 -2.945 9.03617e-10 
-12 -2.65085 -8.06613e-10 
-11.6477 -2.71939 -8.45099e-12 
-11.3058 -2.6378 5.44951e-11 
-10.9669 -2.65106 5.0083e-12 
-10.6328 -2.63796 -1.48829e-12 
-10.2991 -2.67148 -5.79081e-12 
-9.96711 -2.66172 -2.32369e-11 
-9.63826 -2.66209 -1.79025e-11 
-9.31242 -2.6779 -1.17716e-11 
-8.99572 -2.64137 -1.15484e-11 
-8.6841 -2.63193 -7.72121e-12 
-8.37571 -2.66432 -5.26148e-12 
-8.07045 -2.65883 -3.99869e-12 
-7.7619 -2.65675 -2.45384e-12 
-7.44961 -2.6473 -1.48209e-12 
-7.14271 -2.67006 -3.46053e-13 
-6.83866 -2.69025 4.88781e-13 
-6.53052 -2.68006 1.69041e-12 
-6.22594 -2.68363 3.68243e-12 
-5.91984 -2.67562 6.40705e-12 
[...]
POINT_DATA 1978 
VECTORS vectors float
0.00155602 -0.0033083 0.999993 
0.00260592 -0.0541402 0.99853 
0.00176509 -0.0528266 0.998602 
0.00202269 -0.0428188 0.999081 
0.00197415 -0.0327802 0.999461 
0.00198143 -0.0225073 0.999745 
0.00202422 -0.0154501 0.999878 
0.00201607 -0.0108304 0.999939 
0.00204821 -0.00755292 0.999969 
0.00204761 -0.00571046 0.999981 
0.00202359 -0.00452772 0.999987 
0.00202173 -0.0036702 0.999991 
0.00200178 -0.00306153 0.999993 
0.00200033 -0.00257668 0.999994 
0.00199229 -0.00218924 0.999995 
0.00199174 -0.0017127 0.999996 
0.001996 -0.00117812 0.999997 
0.00199627 -0.000514871 0.999998 
0.00201083 0.000330527 0.999998 
0.00199506 0.00144509 0.999997 
0.0020027 0.00289371 0.999994 
0.00197215 0.00487926 0.999986 
0.00199083 0.00748014 0.99997 
0.00198299 0.0108571 0.999939 
0.00192785 0.0162248 0.999866 
0.00197443 0.0221701 0.999752 
0.0018879 0.03069 0.999527 
0.0018541 0.0433246 0.999059 
0.00179113 0.0590163 0.998255 
0.00166688 0.0808272 0.996727 
0.0015406 0.110223 0.993906 
0.00141604 0.148431 0.988922 
0.00117167 0.197653 0.980271 
0.000914078 0.271312 0.962491 
0.000607348 0.362065 0.932153 
0.000195412 0.485063 0.874479 
-0.000131312 0.623854 0.781541 
-0.000455181 0.79387 0.608087 
-0.000324656 0.926305 0.376775 
1.97406e-06 0.999981 -0.00610251 
0.000427329 0.929565 -0.368658 
0.000461623 0.787913 -0.615786 
0.000167958 0.624353 -0.781142 
-0.000227293 0.49179 -0.870714 
-0.000550729 0.378793 -0.925481 
-0.000861876 0.284894 -0.958559 
-0.00117725 0.210559 -0.97758 
-0.00142635 0.155105 -0.987897 
-0.00157066 0.109287 -0.994009 
-0.00174627 0.0793863 -0.996842 
-0.00176311 0.0563091 -0.998412 
-0.00188485 0.0415774 -0.999133 
-0.00188069 0.0303218 -0.999538 
-0.00192218 0.0217026 -0.999762 
-0.00195621 0.0155439 -0.999877 
-0.00196856 0.0109451 -0.999938 
-0.00198358 0.00734162 -0.999971 
-0.00199733 0.00467057 -0.999987 
-0.00198359 0.00268313 -0.999994 
-0.00200196 0.00134542 -0.999997 
-0.00199074 0.000396789 -0.999998 
-0.00197819 -0.00048086 -0.999998 
-0.00199042 -0.00120129 -0.999997 
-0.00200971 -0.00164014 -0.999996 
-0.00196888 -0.00225414 -0.999995 
-0.00199971 -0.00293896 -0.999993 
-0.00199674 -0.0035398 -0.999991 
-0.00197916 -0.00417562 -0.999989 
-0.00200665 -0.00480965 -0.999986 
-0.002076 -0.00550432 -0.999982 
-0.00199481 -0.00743216 -0.99997 
-0.00206819 -0.0105103 -0.999942 
-0.00205094 -0.0144177 -0.999894 
-0.00204646 -0.0222137 -0.999751 
-0.00214063 -0.0309647 -0.999518 
-0.00206148 -0.0440049 -0.999029 
-0.00181833 -0.0529374 -0.998596 
-0.00256401 -0.0541395 -0.99853 
-0.00159166 -0.00335888 -0.999992 
-0.000980315 -8.15012e-06 1 
0.0218661 -0.0403067 0.998948 
0.0274927 -0.0483563 0.998452 
0.0272894 -0.0438003 0.998667 
0.0289978 -0.0345607 0.998982 
0.0289454 -0.0260392 0.999242 
0.0306058 -0.0183933 0.999362 
0.0317062 -0.0128606 0.999414 
0.0316378 -0.00897101 0.999459 
0.0328074 -0.00645406 0.999441 
0.0331689 -0.00488757 0.999438 
0.0334661 -0.0038618 0.999432 
0.0339962 -0.00313796 0.999417 
0.0346591 -0.00254668 0.999396 
0.0351844 -0.00203548 0.999379 
0.0344883 -0.00153817 0.999404 
0.0340294 -0.000960321 0.99942 
0.034382 -0.000273269 0.999409 
0.0339546 0.000595852 0.999423 
0.0341265 0.00175986 0.999416 
0.0338351 0.00333724 0.999422 
0.0338632 0.00546287 0.999411 
0.0337188 0.0082375 0.999397 
0.0318066 0.0122538 0.999419 
0.033093 0.0173485 0.999302 
0.0313902 0.024077 0.999217 
0.0296793 0.0335788 0.998995 
0.0291156 0.0464055 0.998498 
0.027303 0.0636393 0.997599 
0.025276 0.0874514 0.995848 
0.0229006 0.118692 0.992667 
0.0197256 0.159793 0.986953 
0.0151292 0.21725 0.975999 
0.0108348 0.294981 0.955442 
0.00614047 0.393945 0.919113 
0.00174933 0.515724 0.856753 
-0.00173951 0.66926 0.743026 
-0.00313507 0.823892 0.566738 
-0.00209431 0.956624 0.291318 
-6.98837e-06 0.999919 -0.012739 
0.00258007 0.947822 -0.318789 
0.00331666 0.81067 -0.585495 
0.00159711 0.649424 -0.760425 
-0.00235903 0.498557 -0.866853 
-0.00691595 0.377014 -0.926182 
-0.0116606 0.280044 -0.959916 
-0.0161018 0.206786 -0.978254 
-0.0195258 0.147672 -0.988844 
-0.023184 0.107498 -0.993935 
-0.0254029 0.0773464 -0.996681 
-0.028304 0.0569103 -0.997978 
-0.0294319 0.0416336 -0.998699 
-0.0304592 0.0301274 -0.999082 
-0.031942 0.0218748 -0.99925 
-0.032589 0.01566 -0.999346 
-0.0327006 0.0108453 -0.999406 
-0.0332889 0.00725246 -0.999419 
-0.0335773 0.00459351 -0.999425 
-0.0345956 0.00272444 -0.999398 
-0.0347321 0.00138486 -0.999396 
-0.0346983 0.000372969 -0.999398 
-0.0348039 -0.0004624 -0.999394 
-0.0359807 -0.00106669 -0.999352 
-0.0345907 -0.00165157 -0.9994 
-0.0349436 -0.00225542 -0.999387 
-0.0348109 -0.00288498 -0.99939 
-0.0351443 -0.00351336 -0.999376 
-0.0345732 -0.00425056 -0.999393 
-0.0355049 -0.00509847 -0.999356 
-0.0319718 -0.00646473 -0.999468 
-0.0321014 -0.00894698 -0.999444 
-0.0329834 -0.0124686 -0.999378 
-0.0292076 -0.0176871 -0.999417 
-0.0297722 -0.024983 -0.999244 
-0.026494 -0.0348421 -0.999042 
-0.0281125 -0.0437617 -0.998646 
-0.027737 -0.048104 -0.998457 
-0.0216671 -0.0405505 -0.998942 
0.00098422 -2.25292e-05 -1 
-0.000999296 -0.00160236 0.999998 
0.0262693 -0.0413402 0.9988 
0.0303799 -0.0464825 0.998457 
0.032383 -0.0412992 0.998622 
0.0335391 -0.0334137 0.998879 
0.0352346 -0.0258391 0.999045 
0.0366855 -0.0189549 0.999147 
0.0381525 -0.0134684 0.999181 
0.0388377 -0.00942132 0.999201 
0.0399013 -0.00687176 0.99918 
0.0406171 -0.00522738 0.999161 
0.0407362 -0.00401314 0.999162 
0.040974 -0.00317187 0.999155 
0.0410947 -0.00252606 0.999152 
0.0412244 -0.00194886 0.999148 
0.0412252 -0.00143123 0.999149 
0.0413097 -0.000897732 0.999146 
0.04132 -0.000247966 0.999146 
0.0411638 0.000568147 0.999152 
0.0409719 0.00167366 0.999159 
0.0406149 0.00319631 0.99917 
0.0401929 0.00528287 0.999178 
0.0395913 0.0081248 0.999183 
0.039092 0.0118685 0.999165 
0.038283 0.0169718 0.999123 
0.0373747 0.0237208 0.99902 
0.0362124 0.0327365 0.998808 
0.0342984 0.0447368 0.99841 
0.031996 0.0623245 0.997543 
0.0292645 0.0856526 0.995895 
0.0254479 0.117906 0.992699 
0.0212035 0.160642 0.986785 
0.0170165 0.218207 0.975754 
0.0119516 0.29577 0.955184 
0.00632911 0.397798 0.917451 
0.00140587 0.534033 0.845463 
-0.00174508 0.689009 0.72475 
-0.00211523 0.831916 0.554897 
-0.002042 0.949568 0.313554 
0.00034559 0.999885 -0.0151879 
0.00172346 0.945878 -0.324517 
0.00207548 0.826446 -0.563012 
0.00125564 0.672512 -0.740085 
-0.00191317 0.522471 -0.852655 
-0.00677178 0.392309 -0.919808 
-0.0120679 0.293263 -0.955956 
-0.0171976 0.218103 -0.975774 
-0.0222715 0.159557 -0.986937 
-0.025994 0.117252 -0.992762 
-0.0292921 0.0853751 -0.995918 
-0.0317173 0.0635667 -0.997473 
-0.0338874 0.0464307 -0.998346 
-0.0357629 0.0339491 -0.998783 
-0.0370029 0.024657 -0.999011 
-0.037939 0.0176337 -0.999124 
-0.0389732 0.012399 -0.999163 
-0.0397779 0.00842931 -0.999173 
-0.0403302 0.00546172 -0.999171 
-0.0407518 0.00334183 -0.999164 
-0.0410639 0.00178744 -0.999155 
-0.0412591 0.000704553 -0.999148 
-0.0414283 -0.000131056 -0.999141 
-0.0413053 -0.000774512 -0.999146 
-0.0415433 -0.00139024 -0.999136 
-0.0414728 -0.00195786 -0.999138 
-0.0414401 -0.00256429 -0.999138 
-0.0413093 -0.00323291 -0.999141 
-0.040931 -0.00405801 -0.999154 
-0.0408818 -0.00528846 -0.99915 
-0.0400342 -0.00698804 -0.999174 
-0.0393499 -0.00962888 -0.999179 
-0.0382625 -0.0135105 -0.999176 
-0.0367604 -0.0183914 -0.999155 
-0.0355107 -0.0251977 -0.999052 
-0.0338347 -0.0328208 -0.998888 
-0.0323975 -0.0409907 -0.998634 
-0.0299925 -0.0463756 -0.998474 
-0.0262375 -0.0410672 -0.998812 
0.00119107 -0.00164879 -0.999998 
-0.000542872 -0.00118384 0.999999 
0.0223544 -0.039544 0.998968 
0.0259742 -0.046834 0.998565 
0.0282844 -0.0414945 0.998738 
0.0300527 -0.0340181 0.998969 
0.0322889 -0.0262783 0.999133 
0.0336702 -0.0193549 0.999245 
0.0350346 -0.0136633 0.999293 
0.0366692 -0.00980094 0.999279 
0.0367603 -0.00715267 0.999298 
0.0370509 -0.00523117 0.9993 
0.0377864 -0.00390824 0.999278 
0.037965 -0.00299016 0.999275 
0.0379794 -0.00231018 0.999276 
0.0377465 -0.00173667 0.999286 
0.0381709 -0.00123122 0.99927 
0.0385342 -0.000698492 0.999257 
0.0383381 -3.96495e-05 0.999265 
0.0382141 0.000779023 0.999269 
0.0379372 0.00191531 0.999278 
0.037584 0.00350203 0.999287 
0.0370397 0.00573386 0.999297 
0.0362855 0.00883377 0.999302 
0.0362111 0.0126882 0.999264 
0.0347328 0.0183628 0.999228 
0.0338773 0.0252817 0.999106 
0.0329267 0.0343146 0.998868 
0.031171 0.0471653 0.998401 
0.0288267 0.0638921 0.99754 
0.0253649 0.0891067 0.995699 
0.0213612 0.122395 0.992252 
0.0173435 0.168927 0.985476 
0.0137225 0.227701 0.973634 
0.00944885 0.304994 0.952307 
0.00475761 0.414867 0.90987 
0.000988653 0.557934 0.829885 
-0.000291582 0.689134 0.724634 
4.4507e-05 0.847767 0.530368 
0.000267645 0.964649 0.263537 
0.00198101 0.999998 -0.00103124 
0.00199762 0.958561 -0.284881 
0.00212557 0.853213 -0.521559 
0.00127058 0.694055 -0.719921 
-0.000807744 0.539904 -0.841726 
-0.00476539 0.408271 -0.912848 
-0.00920762 0.303979 -0.952634 
-0.0138057 0.226032 -0.974022 
-0.0191394 0.166359 -0.985879 
-0.0223457 0.123305 -0.992117 
-0.0256017 0.0905845 -0.99556 
-0.0276575 0.0673377 -0.997347 
-0.0300506 0.0491771 -0.998338 
-0.0320784 0.0356927 -0.998848 
-0.0333856 0.0261797 -0.9991 
-0.0346872 0.0189858 -0.999218 
-0.0358435 0.0133499 -0.999268 
-0.0367328 0.00914249 -0.999283 
-0.0373932 0.00599857 -0.999283 
-0.0375231 0.00369716 -0.999289 
-0.0378005 0.00204726 -0.999283 
-0.0378169 0.000872557 -0.999284 
-0.0380913 6.03785e-05 -0.999274 
-0.0379704 -0.000637137 -0.999279 
-0.0381 -0.00125049 -0.999273 
-0.0381802 -0.00180538 -0.999269 
-0.0383209 -0.0024189 -0.999263 
-0.0380182 -0.00313456 -0.999272 
-0.0380919 -0.00411722 -0.999266 
-0.0373536 -0.00545386 -0.999287 
-0.0381081 -0.0072797 -0.999247 
-0.0364614 -0.0101073 -0.999284 
-0.034481 -0.0142057 -0.999304 
-0.0343341 -0.0195775 -0.999219 
-0.0319485 -0.0269046 -0.999127 
-0.0316157 -0.0339984 -0.998922 
-0.0285549 -0.0416828 -0.998723 
-0.0252968 -0.0468854 -0.99858 
-0.0221218 -0.0389109 -0.998998 
0.00100441 -0.00111674 -0.999999 
-0.000790159 -0.00128879 0.999999 
0.0177129 -0.0401477 0.999037 
0.0208322 -0.0482259 0.998619 
0.0231231 -0.0424435 0.998831 
0.0249625 -0.0356046 0.999054 
0.0270903 -0.0276457 0.999251 
0.0285933 -0.0204052 0.999383 
0.0299381 -0.0145688 0.999446 
0.0309119 -0.0101511 0.99947 
0.031034 -0.00719718 0.999492 
0.0311874 -0.00511561 0.9995 
0.0320488 -0.00370838 0.999479 
0.0320797 -0.00273403 0.999482 
0.0321098 -0.00202362 0.999482 
0.0319306 -0.00144596 0.999489 
0.0324418 -0.000937691 0.999473 
0.032854 -0.000390211 0.99946 
0.0324428 0.000295318 0.999473 
0.0323697 0.00118957 0.999475 
0.032065 0.00246948 0.999483 
0.0317094 0.00432368 0.999488 
0.031037 0.00693781 0.999494 
0.0303452 0.0106271 0.999483 
0.0303591 0.0149408 0.999427 
0.0286611 0.0214503 0.999359 
0.0279912 0.0292244 0.999181 
0.0270908 0.039162 0.998866 
0.0251566 0.0528303 0.998287 
0.0231158 0.0723543 0.997111 
0.0194456 0.0986776 0.994929 
0.0156799 0.137196 0.99042 
0.0121481 0.185448 0.982579 
0.00903967 0.249101 0.968435 
0.00580156 0.33555 0.942004 
0.00236418 0.460723 0.887541 
0.000813876 0.579207 0.81518 
0.000884983 0.733428 0.679767 
0.000471697 0.856519 0.516115 
0.00162941 0.940347 0.340212 
-0.000468585 0.998051 0.0624022 
0.000168038 0.964753 -0.263157 
9.76101e-05 0.842633 -0.538488 
0.00125671 0.703823 -0.710374 
-0.000205416 0.542193 -0.840254 
-0.00299914 0.406825 -0.913501 
-0.00650323 0.303598 -0.952778 
-0.0103665 0.227476 -0.973728 
-0.0152219 0.165837 -0.986036 
-0.0172289 0.123679 -0.992173 
-0.0208361 0.0905196 -0.995677 
-0.0226653 0.0656245 -0.997587 
-0.0251429 0.0478446 -0.998538 
-0.0268763 0.0352611 -0.999017 
-0.0280231 0.025684 -0.999277 
-0.0290996 0.0185079 -0.999405 
-0.0302859 0.0130367 -0.999456 
-0.0311072 0.00890287 -0.999476 
-0.0317378 0.00579503 -0.999479 
-0.0317086 0.00350793 -0.999491 
-0.0321468 0.0018819 -0.999481 
-0.0317054 0.000810427 -0.999497 
-0.0326122 1.36471e-05 -0.999468 
-0.0322254 -0.000632553 -0.99948 
-0.0322321 -0.00116221 -0.99948 
-0.0322668 -0.00170757 -0.999478 
-0.032289 -0.00231428 -0.999476 
-0.0321482 -0.00309711 -0.999478 
-0.0322276 -0.00415209 -0.999472 
-0.0312488 -0.00565281 -0.999496 
-0.0326158 -0.0076526 -0.999439 
-0.0308035 -0.0107003 -0.999468 
-0.0289718 -0.0153164 -0.999463 
-0.0292246 -0.0209458 -0.999353 
-0.0267095 -0.0284267 -0.999239 
-0.0264869 -0.035535 -0.999017 
-0.0232467 -0.0432364 -0.998794 
-0.0198738 -0.0479748 -0.998651 
-0.017135 -0.0392495 -0.999082 
0.000580439 -0.00128481 -0.999999 
-0.00065755 -0.00132957 0.999999 
0.0116914 -0.036885 0.999251 
0.0153532 -0.048729 0.998694 
0.0174175 -0.0460025 0.998789 
0.0190539 -0.0393578 0.999043 
0.0209784 -0.0316492 0.999279 
0.022479 -0.0241661 0.999455 
0.0234469 -0.0174977 0.999572 
0.0243949 -0.0123345 0.999626 
0.0246058 -0.00873736 0.999659 
0.0243665 -0.00605281 0.999685 
0.0248476 -0.0041842 0.999682 
0.0250348 -0.00300971 0.999682 
0.0251207 -0.00217548 0.999682 
0.0251483 -0.00156487 0.999682 
0.0251491 -0.00103442 0.999683 
0.0255712 -0.000535726 0.999673 
0.0256322 2.57437e-05 0.999671 
0.0252936 0.000795726 0.99968 
0.025178 0.00187123 0.999681 
0.0249639 0.00348081 0.999682 
0.0244488 0.00579349 0.999684 
0.0240099 0.00905229 0.999671 
0.023125 0.0133815 0.999643 
0.0232588 0.0183901 0.99956 
0.0216906 0.0258465 0.999431 
0.021066 0.034589 0.99918 
0.0200318 0.0455384 0.998762 
0.0187922 0.0616384 0.997922 
0.0162231 0.0823734 0.996469 
0.0130168 0.115671 0.993202 
0.00930309 0.161304 0.986861 
0.00661228 0.224595 0.97443 
0.00413058 0.306272 0.951935 
0.00224904 0.405669 0.914017 
0.000519478 0.522006 0.852941 
2.99913e-05 0.674901 0.737909 
-0.00102803 0.832576 0.55391 
-0.0016672 0.983234 0.182341 
-0.00530975 0.998085 -0.0616291 
-0.00344173 0.947406 -0.320017 
-0.00930009 0.959137 -0.28279 
-0.00169642 0.776899 -0.629623 
-3.00135e-05 0.611578 -0.791184 
-0.000856808 0.446755 -0.894656 
-0.0029606 0.332007 -0.943272 
-0.00556452 0.245791 -0.969307 
-0.00988265 0.182284 -0.983196 
-0.0113176 0.139613 -0.990141 
-0.0146069 0.100776 -0.994802 
-0.0168035 0.0744537 -0.997083 
-0.0187404 0.0528895 -0.998424 
-0.0201904 0.0389686 -0.999036 
-0.0214142 0.0287163 -0.999358 
-0.0222374 0.0208323 -0.999536 
-0.0232118 0.0147886 -0.999621 
-0.0239334 0.0102503 -0.999661 
-0.0246084 0.00679036 -0.999674 
-0.0248259 0.00423127 -0.999683 
-0.0251809 0.00232544 -0.99968 
-0.0246359 0.0011005 -0.999696 
-0.0254578 0.000222015 -0.999676 
-0.0256791 -0.000389098 -0.99967 
-0.0248948 -0.000933297 -0.99969 
-0.025167 -0.00144371 -0.999682 
-0.0248965 -0.00204397 -0.999688 
-0.0248585 -0.00279975 -0.999687 
-0.0249199 -0.00390465 -0.999682 
-0.0241798 -0.00550514 -0.999692 
-0.0256752 -0.00796562 -0.999639 
-0.0244902 -0.0115534 -0.999633 
-0.0227172 -0.0164294 -0.999607 
-0.0233984 -0.0224115 -0.999475 
-0.0210867 -0.0303095 -0.999318 
-0.0212417 -0.0373914 -0.999075 
-0.0181353 -0.044865 -0.998828 
-0.0149812 -0.0494115 -0.998666 
-0.0129297 -0.0409933 -0.999076 
0.000282083 -0.00125768 -0.999999 
-9.52744e-05 -0.00129479 0.999999 
0.00900045 -0.0424076 0.99906 
0.0117809 -0.0503611 0.998662 
0.0129507 -0.0455268 0.998879 
0.0145502 -0.0381021 0.999168 
0.0158173 -0.0303899 0.999413 
0.0170462 -0.0227781 0.999595 
0.0177144 -0.0161996 0.999712 
0.0179194 -0.0114614 0.999774 
0.0181405 -0.0079125 0.999804 
0.0181097 -0.00524915 0.999822 
0.0179355 -0.00361786 0.999833 
0.0181478 -0.00254312 0.999832 
0.0181435 -0.00181801 0.999834 
0.0183047 -0.00127405 0.999832 
0.0180836 -0.000793847 0.999836 
0.0182108 -0.000315504 0.999834 
0.0184392 0.000293591 0.99983 
0.018021 0.00117802 0.999837 
0.018059 0.00251214 0.999834 
0.0177787 0.00450186 0.999832 
0.0174836 0.00740405 0.99982 
0.016908 0.0113013 0.999793 
0.0160202 0.0163538 0.999738 
0.0162944 0.0222499 0.99962 
0.0149447 0.0310054 0.999407 
0.0140385 0.04104 0.999059 
0.0137667 0.0550068 0.998391 
0.0117156 0.0736931 0.997212 
0.00997474 0.102121 0.994722 
0.00658743 0.147027 0.989111 
0.00413471 0.212776 0.977092 
0.00244486 0.296851 0.954921 
0.000808502 0.412997 0.910732 
-0.000719332 0.568809 0.822469 
-0.0018442 0.712839 0.701325 
-0.00338375 0.862188 0.506577 
-0.00372238 0.960745 0.277406 
-0.0037179 0.948482 0.316809 
-0.00706783 0.996651 0.0814666 
0.00234191 0.997886 0.0649491 
-0.0056871 0.973935 -0.226758 
-0.00559045 0.853737 -0.520674 
-0.0016681 0.685828 -0.727762 
0.000302571 0.512263 -0.858829 
-0.000416821 0.375745 -0.926723 
-0.00199299 0.275127 -0.961406 
-0.0051338 0.192188 -0.981345 
-0.00749889 0.134591 -0.990873 
-0.00984864 0.0982492 -0.995113 
-0.0125328 0.0694762 -0.997505 
-0.0131698 0.0510041 -0.998612 
-0.0142899 0.0376095 -0.99919 
-0.0153003 0.0276514 -0.9995 
-0.0159345 0.0200752 -0.999671 
-0.0164978 0.0143399 -0.999761 
-0.0170236 0.0098776 -0.999806 
-0.0175376 0.00649165 -0.999825 
-0.0181299 0.00383807 -0.999828 
-0.0179152 0.00210286 -0.999837 
-0.0181435 0.000831561 -0.999835 
-0.0182358 8.78399e-05 -0.999834 
-0.018667 -0.000476433 -0.999826 
-0.0176805 -0.000958219 -0.999843 
-0.0181297 -0.00145524 -0.999835 
-0.0175759 -0.00203569 -0.999843 
-0.0178085 -0.00287913 -0.999837 
-0.0178391 -0.00408241 -0.999833 
-0.0171013 -0.00581849 -0.999837 
-0.019185 -0.00816709 -0.999783 
-0.01803 -0.011756 -0.999768 
-0.0168699 -0.0171719 -0.99971 
-0.0174795 -0.0239118 -0.999561 
-0.0155291 -0.0321151 -0.999363 
-0.01583 -0.0394315 -0.999097 
-0.0130206 -0.0465517 -0.998831 
-0.0105318 -0.050879 -0.998649 
-0.00906667 -0.0415617 -0.999095 
0.000268907 -0.00118634 -0.999999 
-0.000170715 -0.00119624 0.999999 
0.00594663 -0.0418743 0.999105 
0.00791948 -0.0514431 0.998644 
0.00887328 -0.0479813 0.998809 
0.0100333 -0.0407699 0.999118 
0.0109243 -0.0328334 0.999401 
0.0117976 -0.0249817 0.999618 
0.0124449 -0.0181486 0.999758 
0.0123367 -0.0127264 0.999843 
0.0124997 -0.00876948 0.999883 
0.0128221 -0.00589059 0.9999 
0.0121748 -0.00387431 0.999918 
0.0122668 -0.00266506 0.999921 
0.012182 -0.00188794 0.999924 
0.0122869 -0.00135767 0.999924 
0.0121586 -0.000925086 0.999926 
0.0119072 -0.000483896 0.999929 
0.0121955 5.9132e-05 0.999926 
0.012061 0.000840942 0.999927 
0.0119998 0.00210648 0.999926 
0.0118617 0.00399295 0.999922 
0.0117926 0.00675478 0.999908 
0.0113477 0.0105733 0.99988 
0.0106366 0.0154712 0.999824 
0.010364 0.0217496 0.99971 
0.0103359 0.0293917 0.999514 
0.00887675 0.0398987 0.999164 
0.00903952 0.0530312 0.998552 
0.00742461 0.0706189 0.997476 
0.00650684 0.0962564 0.995335 
0.00461451 0.134048 0.990964 
0.00260353 0.201158 0.979555 
0.00133303 0.290232 0.956955 
0.000265422 0.40367 0.914904 
-0.00092999 0.662648 0.74893 
-0.000309748 0.816414 0.577467 
0.00574923 0.942154 0.335131 
0.00622501 0.994258 0.106824 
0.00650154 0.99726 0.0736851 
0.00415387 0.999943 0.00983987 
0.000446254 0.997856 -0.0654475 
0.000620238 0.997576 -0.0695801 
-0.00579686 0.819198 -0.573482 
-0.0032064 0.658012 -0.753 
-0.000171776 0.535851 -0.844313 
0.000370963 0.385987 -0.922504 
-0.000415898 0.28763 -0.957741 
-0.00231482 0.20624 -0.978499 
-0.00411618 0.146817 -0.989155 
-0.00563343 0.103156 -0.994649 
-0.00779535 0.0757059 -0.9971 
-0.00828335 0.05608 -0.998392 
-0.0089799 0.0413561 -0.999104 
-0.00973667 0.03066 -0.999482 
-0.0102878 0.0226244 -0.999691 
-0.0106461 0.0163465 -0.99981 
-0.0110157 0.0113863 -0.999874 
-0.0112982 0.00751659 -0.999908 
-0.0121647 0.00464417 -0.999915 
-0.0117511 0.0025532 -0.999928 
-0.0125857 0.00113447 -0.99992 
-0.0119847 0.000210242 -0.999928 
-0.0124106 -0.000362738 -0.999923 
-0.0119717 -0.000811627 -0.999928 
-0.0120796 -0.0012797 -0.999926 
-0.0117266 -0.00179092 -0.99993 
-0.0119046 -0.0025818 -0.999926 
-0.0117855 -0.00375912 -0.999923 
-0.0117668 -0.00570913 -0.999914 
-0.0130893 -0.00867504 -0.999877 
-0.0127306 -0.0129373 -0.999835 
-0.011502 -0.018442 -0.999764 
-0.0125483 -0.0247014 -0.999616 
-0.0108353 -0.0324998 -0.999413 
-0.0111891 -0.0401862 -0.999129 