# vtk DataFile Version 3.0 
Exported using Morpho https://github.com/Morpho-lang/morpho 
ASCII 
DATASET UNSTRUCTURED_GRID 

POINTS 1978 float 
-12 -4 8.69111e-17 
-11.5951 -4 6.1787e-15 
-11.2909 -4 5.84317e-15 
-10.9419 -4 4.70449e-15 
-10.627 -4 3.54409e-15 
-10.2816 -4 2.63074e-15 
-9.9604 -4 1.72688e-15 
-9.64934 -4 1.29192e-15 
-9.31378 -4 9.61314e-16 
-8.99721 -4 7.15206e-16 
-8.68309 -4 5.83205e-16 
-8.36741 -4 4.80639e-16 
-8.0612 -4 4.04145e-16 
-7.76697 -4 3.1845e-16 
-7.48325 -4 2.88348e-16 
-7.19045 -4 2.21284e-16 
-6.89182 -4 1.64335e-16 
-6.59314 -4 8.25669e-17 
-6.2946 -4 -3.46443e-17 
-5.98822 -4 -1.63587e-16 
-5.68746 -4 -3.48723e-16 
-5.3834 -4 -5.84901e-16 
-5.08339 -4 -8.6408e-16 
-4.78857 -4 -1.39253e-15 
-4.45798 -4 -1.87588e-15 
-4.17075 -4 -2.47409e-15 
-3.86658 -4 -3.54347e-15 
-3.54613 -4 -4.52247e-15 
-3.24969 -4 -5.33579e-15 
-2.95439 -4 -6.21895e-15 
-2.6651 -4 -6.63311e-15 
-2.38988 -4 -6.40492e-15 
-2.12566 -4 -6.40405e-15 
-1.83649 -4 -5.61803e-15 
-1.55622 -4 -4.58897e-15 
-1.26118 -4 -4.08348e-15 
-0.980154 -4 -1.16712e-14 
-0.657547 -4 -1.15462e-14 
-0.36832 -4 -3.32889e-14 
0.00779032 -4 1.80404e-14 
0.355537 -4 2.41076e-14 
0.661648 -4 1.45646e-14 
0.967874 -4 9.8829e-15 
1.23974 -4 2.22219e-15 
1.51286 -4 1.74564e-15 
1.78274 -4 5.40684e-15 
2.06519 -4 7.11858e-15 
2.35018 -4 8.79894e-15 
2.6768 -4 7.93932e-15 
2.97304 -4 6.97742e-15 
3.29646 -4 5.20841e-15 
3.58371 -4 4.08846e-15 
3.88646 -4 3.35296e-15 
4.19754 -4 2.45504e-15 
4.49612 -4 1.76964e-15 
4.79546 -4 1.30946e-15 
5.10475 -4 9.06368e-16 
5.41068 -4 5.81233e-16 
5.71859 -4 3.22135e-16 
6.012 -4 1.44602e-16 
6.30522 -4 3.59007e-17 
6.60147 -4 -7.29338e-17 
6.90029 -4 -1.53788e-16 
7.17559 -4 -2.31004e-16 
7.47706 -4 -2.93476e-16 
7.77119 -4 -4.03409e-16 
8.0688 -4 -4.47425e-16 
8.35806 -4 -5.4503e-16 
8.65944 -4 -5.86403e-16 
8.93385 -4 -7.34692e-16 
9.27975 -4 -9.91228e-16 
9.6063 -4 -1.17181e-15 
9.89466 -4 -1.83517e-15 
10.2627 -4 -2.6455e-15 
10.5759 -4 -4.01938e-15 
10.9719 -4 -5.1868e-15 
11.2904 -4 -5.44954e-15 
11.5845 -4 -6.21497e-15 
12 -4 -1.694e-16 
-12 -3.59672 3.91419e-16 
-11.7146 -3.71597 -3.17759e-15 
-11.3618 -3.62581 -2.44873e-15 
-11.0448 -3.67377 -2.84881e-15 
-10.7086 -3.64218 -2.16031e-15 
-10.3907 -3.67648 -1.93304e-15 
-10.0546 -3.66343 -1.48624e-15 
-9.73098 -3.66244 -1.10561e-15 
-9.4004 -3.68567 -8.25679e-16 
-9.06336 -3.66466 -5.5056e-16 
-8.7484 -3.66186 -4.69401e-16 
-8.4321 -3.67035 -3.82149e-16 
-8.11488 -3.66518 -2.83694e-16 
-7.80535 -3.65894 -2.29201e-16 
-7.50512 -3.65178 -1.69374e-16 
-7.20907 -3.66475 -1.26835e-16 
-6.90215 -3.66701 -7.50601e-17 
-6.59345 -3.6603 -8.33427e-18 
-6.28002 -3.67199 8.48602e-17 
-5.97167 -3.66578 1.94205e-16 
-5.66285 -3.6672 3.46005e-16 
-5.35792 -3.66151 5.3605e-16 
-5.06115 -3.65516 6.82097e-16 
-4.7381 -3.69169 1.05874e-15 
-4.44565 -3.65334 1.33787e-15 
-4.14168 -3.67508 1.93543e-15 
-3.82692 -3.69341 2.63516e-15 
-3.52154 -3.68076 3.41664e-15 
-3.21953 -3.68116 4.36879e-15 
-2.92516 -3.67172 4.95848e-15 
-2.64271 -3.66045 5.78458e-15 
-2.37074 -3.65279 6.09693e-15 
-2.08063 -3.67887 6.16869e-15 
-1.78431 -3.67999 5.87258e-15 
-1.49331 -3.68429 2.90453e-15 
-1.20411 -3.65391 -6.77925e-16 
-0.884878 -3.66722 -3.00211e-15 
-0.584894 -3.59564 4.37211e-15 
-0.252884 -3.68895 -1.25029e-14 
0.0227658 -3.53743 -1.22378e-14 
0.30455 -3.63443 1.61529e-14 
0.623891 -3.60346 -6.90428e-15 
0.927378 -3.65181 3.48615e-15 
1.23295 -3.63897 -5.81488e-17 
1.51698 -3.65812 -2.96682e-15 
1.80947 -3.67893 -5.75984e-15 
2.10327 -3.68767 -6.91448e-15 
2.42192 -3.72282 -7.78176e-15 
2.72865 -3.68958 -5.73902e-15 
3.04048 -3.70848 -5.45821e-15 
3.33108 -3.65797 -3.56131e-15 
3.63058 -3.67497 -3.11915e-15 
3.93659 -3.67902 -2.37186e-15 
4.23516 -3.66355 -1.72174e-15 
4.5334 -3.6623 -1.26354e-15 
4.84031 -3.67188 -9.27067e-16 
5.14928 -3.66971 -6.42804e-16 
5.46048 -3.67158 -4.9548e-16 
5.76227 -3.65628 -3.0478e-16 
6.06122 -3.65929 -1.63333e-16 
6.36015 -3.65994 -6.01474e-17 
6.66586 -3.66745 1.56148e-17 
6.95151 -3.63887 7.16067e-17 
7.25194 -3.66864 1.52898e-16 
7.55159 -3.65887 1.87504e-16 
7.8542 -3.66238 2.51203e-16 
8.15079 -3.65206 3.03654e-16 
8.44787 -3.66466 4.01795e-16 
8.73493 -3.62897 4.6663e-16 
9.05511 -3.70334 6.49129e-16 
9.38708 -3.67995 8.00646e-16 
9.69192 -3.63136 9.80138e-16 
10.0256 -3.70845 1.63223e-15 
10.3537 -3.65263 1.78428e-15 
10.7182 -3.72049 2.80245e-15 
11.0536 -3.64729 2.54902e-15 
11.3579 -3.61462 2.35475e-15 
11.7131 -3.7259 3.25331e-15 
12 -3.59935 -3.72183e-16 
-12 -3.29203 6.53516e-16 
-11.6316 -3.36437 -7.34993e-16 
-11.287 -3.28176 -4.75598e-16 
-10.9736 -3.32794 -8.90201e-16 
-10.6557 -3.29167 -8.13357e-16 
-10.335 -3.3429 -7.70931e-16 
-10.01 -3.32743 -5.87922e-16 
-9.69339 -3.3204 -4.99536e-16 
-9.38819 -3.36555 -5.15786e-16 
-9.07895 -3.32314 -3.95325e-16 
-8.77184 -3.31819 -2.4831e-16 
-8.46843 -3.3336 -1.80024e-16 
-8.16215 -3.33416 -1.29751e-16 
-7.85411 -3.32602 -7.97181e-17 
-7.55165 -3.31302 -6.4161e-17 
-7.2515 -3.32332 -4.12438e-17 
-6.95325 -3.33895 -1.95506e-17 
-6.64543 -3.33242 1.45551e-17 
-6.33436 -3.34468 5.92775e-17 
-6.02532 -3.33639 1.15323e-16 
-5.71587 -3.33622 1.88282e-16 
-5.40885 -3.32815 2.85694e-16 
-5.10492 -3.31216 3.96313e-16 
-4.80346 -3.36888 5.04802e-16 
-4.50179 -3.31887 6.50997e-16 
-4.20054 -3.34582 8.85974e-16 
-3.89591 -3.3751 1.24028e-15 
-3.59153 -3.36902 1.64047e-15 
-3.28204 -3.367 1.78438e-15 
-2.97525 -3.35059 2.67696e-15 
-2.6722 -3.32416 3.03561e-15 
-2.38371 -3.30308 3.45724e-15 
-2.10638 -3.35115 2.39757e-15 
-1.80545 -3.36602 1.73627e-15 
-1.49649 -3.35176 5.81428e-16 
-1.16273 -3.33777 -1.54237e-15 
-0.849509 -3.29086 -2.50001e-15 
-0.575747 -3.1429 3.77783e-15 
-0.310245 -3.30421 -1.2363e-14 
0.0119314 -3.12815 -2.80989e-14 
0.321226 -3.22407 1.95052e-14 
0.600377 -3.17084 5.04702e-15 
0.902428 -3.27039 7.20693e-15 
1.20236 -3.28976 2.75878e-15 
1.51123 -3.31719 1.93764e-16 
1.80359 -3.35158 -1.65058e-15 
2.09575 -3.37063 -2.16542e-15 
2.38807 -3.42726 -3.26429e-15 
2.67492 -3.37259 -3.19169e-15 
2.97724 -3.39649 -2.68481e-15 
3.2724 -3.33553 -1.91374e-15 
3.57664 -3.34332 -1.47348e-15 
3.87545 -3.3547 -1.20331e-15 
4.17649 -3.33314 -8.69814e-16 
4.47729 -3.32553 -6.4569e-16 
4.77749 -3.3398 -5.02256e-16 
5.08142 -3.34252 -4.37741e-16 
5.39184 -3.34535 -2.99683e-16 
5.70024 -3.32536 -1.84177e-16 
6.00984 -3.31991 -1.14643e-16 
6.30833 -3.32123 -5.97806e-17 
6.61222 -3.33781 -1.24585e-17 
6.91277 -3.29168 1.50826e-17 
7.2101 -3.33068 4.10061e-17 
7.51088 -3.32246 6.56383e-17 
7.81376 -3.32895 9.66362e-17 
8.11921 -3.31209 1.28096e-16 
8.41969 -3.31711 1.72853e-16 
8.74243 -3.30988 2.43758e-16 
9.06646 -3.38574 3.75286e-16 
9.37931 -3.34093 4.85618e-16 
9.69192 -3.2891 5.39055e-16 
10.0059 -3.38185 7.65411e-16 
10.3078 -3.3015 7.27552e-16 
10.6321 -3.4028 9.68874e-16 
10.9636 -3.33129 8.59015e-16 
11.2957 -3.25296 3.43984e-16 
11.631 -3.37404 7.86998e-16 
12 -3.28789 -7.10042e-16 
-12 -2.96389 5.93229e-16 
-11.661 -3.04801 -2.41937e-16 
-11.3172 -2.96323 3.74771e-16 
-10.9689 -2.97336 -9.15047e-17 
-10.6274 -2.96447 -1.67944e-16 
-10.2967 -3.00489 -2.49894e-16 
-9.97288 -2.99008 -2.59863e-16 
-9.65542 -2.97994 -3.80923e-16 
-9.353 -3.02173 -2.83563e-16 
-9.04441 -2.97995 -1.67599e-16 
-8.73979 -2.97329 -1.27438e-16 
-8.43772 -2.99384 -1.05872e-16 
-8.13043 -2.99966 -6.07363e-17 
-7.82962 -2.98782 -4.1192e-17 
-7.52571 -2.97845 -1.86982e-17 
-7.22585 -2.98879 -8.34151e-18 
-6.92172 -3.01144 8.5045e-18 
-6.61197 -3.0076 2.4503e-17 
-6.30727 -3.01461 5.09925e-17 
-5.99984 -3.00724 8.69705e-17 
-5.69533 -3.0039 1.31391e-16 
-5.39116 -2.99458 1.87947e-16 
-5.08962 -2.9786 2.2971e-16 
-4.7915 -3.03554 3.52378e-16 
-4.49177 -2.98701 3.87619e-16 
-4.19597 -3.01851 4.85497e-16 
-3.8978 -3.05233 6.15653e-16 
-3.59214 -3.05052 7.43451e-16 
-3.28862 -3.05214 1.19479e-15 
-2.97513 -3.03169 1.08822e-15 
-2.68502 -2.98305 9.76944e-16 
-2.38213 -2.97107 2.58584e-16 
-2.07915 -2.99277 1.91949e-15 
-1.80049 -3.04098 -4.71464e-16 
-1.46967 -3.04083 -1.50936e-15 
-1.14454 -2.99311 -4.92731e-15 
-0.870117 -2.86214 -5.65166e-15 
-0.547946 -2.74316 -1.95244e-14 
-0.221599 -2.87849 4.85793e-14 
-0.00424116 -2.53413 -4.79803e-14 
0.241465 -2.77936 3.08896e-14 
0.499827 -2.68635 1.00757e-14 
0.811603 -2.863 -2.87199e-15 
1.13194 -2.90576 -1.61381e-16 
1.45011 -2.97592 -2.22952e-15 
1.77026 -3.00339 -1.83617e-15 
2.07228 -3.03531 -1.34428e-15 
2.36861 -3.09601 -2.18193e-15 
2.66814 -3.04329 -1.33447e-15 
2.96185 -3.07397 -8.96808e-16 
3.25989 -3.01007 -8.59172e-16 
3.56599 -3.0195 -6.30984e-16 
3.87103 -3.02553 -5.64098e-16 
4.16987 -3.00272 -4.92808e-16 
4.47186 -2.99718 -3.47383e-16 
4.77428 -3.00582 -2.74312e-16 
5.07326 -3.0105 -2.18441e-16 
5.37436 -3.01921 -1.55764e-16 
5.67911 -2.99554 -1.20318e-16 
5.98511 -2.99614 -7.61304e-17 
6.29793 -2.97928 -4.76973e-17 
6.59432 -3.00482 -1.47676e-17 
6.91573 -2.97622 -9.02838e-19 
7.23287 -2.99419 1.06511e-17 
7.53338 -2.98659 2.49032e-17 
7.83798 -2.99668 4.35917e-17 
8.13581 -2.97257 5.94016e-17 
8.44672 -2.99561 9.03291e-17 
8.74731 -2.9666 1.19311e-16 
9.04715 -3.05828 1.85215e-16 
9.35707 -3.00813 2.40635e-16 
9.65674 -2.94443 2.16507e-16 
9.97938 -3.03139 2.61807e-16 
10.3158 -2.97579 1.74169e-16 
10.65 -3.06754 4.71945e-16 
10.9839 -2.99141 1.38252e-16 
11.3366 -2.93037 -4.09929e-16 
11.6691 -3.05327 2.58008e-16 
12 -2.945 -7.48776e-16 
-12 -2.65085 6.76233e-16 
-11.6485 -2.71953 9.49019e-17 
-11.3078 -2.63622 5.06244e-16 
-10.969 -2.65055 5.1442e-17 
-10.6339 -2.63694 -2.73433e-17 
-10.2988 -2.67154 -6.89591e-17 
-9.97093 -2.65934 -2.41202e-16 
-9.64 -2.6604 -1.88444e-16 
-9.31175 -2.67821 -1.36741e-16 
-8.99585 -2.64113 -1.25671e-16 
-8.68549 -2.63604 -8.65133e-17 
-8.37504 -2.66545 -5.75842e-17 
-8.07113 -2.66113 -4.47033e-17 
-7.76104 -2.658 -2.68951e-17 
-7.45163 -2.64917 -1.60318e-17 
-7.14341 -2.66729 -4.39556e-18 
-6.83878 -2.68686 4.74406e-18 
-6.5301 -2.67881 1.86665e-17 
-6.22615 -2.68449 3.93329e-17 
-5.9207 -2.67515 7.05826e-17 
[...]
POINT_DATA 1978 
VECTORS vectors float
0.000238074 -0.00109703 0.999999 
4.34628e-05 -0.0541388 0.998533 
-8.00266e-05 -0.0528261 0.998604 
5.61822e-05 -0.0428186 0.999083 
9.29879e-06 -0.0327802 0.999463 
-5.15922e-06 -0.0225074 0.999747 
6.16775e-05 -0.0154502 0.999881 
1.94779e-05 -0.0108305 0.999941 
1.72083e-05 -0.00755299 0.999971 
5.09801e-05 -0.0057105 0.999984 
3.77885e-05 -0.00452774 0.99999 
4.86366e-05 -0.0036702 0.999993 
7.03364e-05 -0.00306153 0.999995 
0.000106309 -0.00257667 0.999997 
0.000104561 -0.00218923 0.999998 
7.9267e-05 -0.00171269 0.999999 
7.47457e-05 -0.00117811 0.999999 
7.66241e-05 -0.000514854 1 
6.95473e-05 0.000330545 1 
6.04358e-05 0.00144511 0.999999 
7.294e-05 0.00289374 0.999996 
5.9182e-05 0.0048793 0.999988 
9.30964e-05 0.00748019 0.999972 
4.01607e-05 0.0108571 0.999941 
3.50421e-05 0.0162249 0.999868 
0.000113905 0.0221702 0.999754 
2.4881e-05 0.0306902 0.999529 
4.89377e-05 0.0433248 0.999061 
8.42306e-05 0.0590166 0.998257 
7.20446e-05 0.0808276 0.996728 
8.70439e-05 0.110223 0.993907 
0.000125258 0.148432 0.988923 
7.74865e-05 0.197654 0.980272 
4.91638e-05 0.271312 0.962491 
4.26086e-05 0.362066 0.932153 
-2.73717e-06 0.485063 0.874479 
7.57218e-06 0.623854 0.781541 
-5.26611e-05 0.79387 0.608088 
-9.17302e-06 0.926304 0.376776 
-9.21557e-06 0.999981 -0.00610196 
3.12266e-05 0.929565 -0.368658 
3.53039e-05 0.787913 -0.615786 
1.28651e-05 0.624354 -0.781142 
-2.23956e-05 0.49179 -0.870714 
-4.22097e-05 0.378793 -0.925481 
-5.60922e-05 0.284894 -0.958559 
-7.84353e-05 0.21056 -0.977581 
-4.44227e-05 0.155106 -0.987898 
-2.99803e-05 0.109287 -0.99401 
-5.88002e-05 0.0793867 -0.996844 
-3.76669e-05 0.0563094 -0.998413 
-0.000105531 0.0415777 -0.999135 
-3.99488e-05 0.0303219 -0.99954 
-5.91336e-05 0.0217027 -0.999764 
-8.22229e-05 0.015544 -0.999879 
-6.06437e-05 0.0109452 -0.99994 
-5.35876e-05 0.00734166 -0.999973 
-5.75492e-05 0.00467061 -0.999989 
-6.66262e-05 0.00268316 -0.999996 
-9.68915e-05 0.00134544 -0.999999 
-8.56567e-05 0.000396801 -1 
-6.72679e-05 -0.000480847 -1 
-0.000109592 -0.00120127 -0.999999 
-0.000112802 -0.00164013 -0.999999 
-6.17327e-05 -0.00225413 -0.999997 
-8.61154e-05 -0.00293895 -0.999996 
-9.22167e-05 -0.00353979 -0.999994 
-7.28487e-05 -0.00417562 -0.999991 
-0.000114634 -0.00480965 -0.999988 
-7.62495e-05 -0.00550436 -0.999985 
4.85203e-05 -0.00743222 -0.999972 
-0.000102297 -0.0105104 -0.999945 
-1.48459e-05 -0.0144178 -0.999896 
9.12296e-06 -0.0222138 -0.999753 
1.24319e-05 -0.0309647 -0.99952 
2.91663e-05 -0.0440047 -0.999031 
-9.60714e-06 -0.0529369 -0.998598 
-1.43598e-05 -0.0541381 -0.998533 
-0.000236128 -0.00112126 -0.999999 
4.20681e-05 0.000592315 1 
0.0218632 -0.0403044 0.998948 
0.0274912 -0.0483553 0.998452 
0.0272878 -0.0437999 0.998668 
0.0289963 -0.0345606 0.998982 
0.0289438 -0.0260391 0.999242 
0.0306042 -0.0183934 0.999362 
0.0317046 -0.0128606 0.999415 
0.0316361 -0.00897104 0.999459 
0.0328057 -0.00645406 0.999441 
0.0331674 -0.00488758 0.999438 
0.0334644 -0.00386179 0.999432 
0.0339946 -0.00313795 0.999417 
0.0346575 -0.00254667 0.999396 
0.0351828 -0.00203547 0.999379 
0.0344866 -0.00153816 0.999404 
0.0340279 -0.000960312 0.99942 
0.0343803 -0.000273261 0.999409 
0.0339529 0.000595863 0.999423 
0.0341248 0.00175987 0.999416 
0.0338335 0.00333725 0.999422 
0.0338615 0.00546288 0.999412 
0.0337172 0.00823751 0.999397 
0.0318049 0.0122538 0.999419 
0.0330915 0.0173485 0.999302 
0.0313886 0.024077 0.999217 
0.0296777 0.0335789 0.998995 
0.0291141 0.0464055 0.998498 
0.0273016 0.0636395 0.997599 
0.0252747 0.0874515 0.995848 
0.0228994 0.118692 0.992667 
0.0197246 0.159793 0.986954 
0.0151283 0.21725 0.975999 
0.0108342 0.294981 0.955442 
0.00614007 0.393946 0.919113 
0.00174929 0.515724 0.856753 
-0.00173925 0.669261 0.743026 
-0.00313478 0.823893 0.566737 
-0.0020941 0.956625 0.291313 
-7.08278e-06 0.999919 -0.0127402 
0.00257987 0.947823 -0.318788 
0.00331643 0.81067 -0.585495 
0.00159697 0.649424 -0.760425 
-0.00235889 0.498558 -0.866853 
-0.00691552 0.377015 -0.926181 
-0.0116599 0.280044 -0.959916 
-0.0161008 0.206786 -0.978254 
-0.0195245 0.147673 -0.988844 
-0.0231828 0.107498 -0.993935 
-0.0254014 0.0773464 -0.996681 
-0.0283026 0.0569104 -0.997978 
-0.0294304 0.0416336 -0.998699 
-0.0304576 0.0301274 -0.999082 
-0.0319405 0.0218748 -0.99925 
-0.0325874 0.01566 -0.999346 
-0.032699 0.0108454 -0.999406 
-0.0332873 0.00725249 -0.99942 
-0.0335756 0.00459353 -0.999426 
-0.034594 0.00272446 -0.999398 
-0.0347305 0.00138488 -0.999396 
-0.0346967 0.000372981 -0.999398 
-0.0348022 -0.000462387 -0.999394 
-0.0359792 -0.00106668 -0.999352 
-0.034589 -0.00165156 -0.9994 
-0.034942 -0.0022554 -0.999387 
-0.0348092 -0.00288497 -0.99939 
-0.0351427 -0.00351335 -0.999376 
-0.0345715 -0.00425055 -0.999393 
-0.0355034 -0.00509848 -0.999357 
-0.0319699 -0.00646475 -0.999468 
-0.0320997 -0.00894701 -0.999445 
-0.0329819 -0.0124686 -0.999378 
-0.0292058 -0.0176871 -0.999417 
-0.0297707 -0.024983 -0.999244 
-0.0264922 -0.034842 -0.999042 
-0.028111 -0.0437613 -0.998646 
-0.0277355 -0.0481031 -0.998457 
-0.0216642 -0.0405482 -0.998943 
-7.46993e-05 0.000592705 -1 
0.000160496 -0.000266725 1 
0.0262677 -0.0413383 0.9988 
0.0303791 -0.0464816 0.998457 
0.0323823 -0.0412989 0.998622 
0.0335385 -0.0334135 0.998879 
0.0352339 -0.025839 0.999045 
0.0366848 -0.0189549 0.999147 
0.0381517 -0.0134684 0.999181 
0.0388369 -0.00942136 0.999201 
0.0399005 -0.0068718 0.99918 
0.0406163 -0.00522738 0.999161 
0.0407354 -0.00401314 0.999162 
0.0409732 -0.00317187 0.999155 
0.041094 -0.00252604 0.999152 
0.0412236 -0.00194885 0.999148 
0.0412245 -0.00143122 0.999149 
0.0413089 -0.000897723 0.999146 
0.0413192 -0.000247954 0.999146 
0.041163 0.000568159 0.999152 
0.0409711 0.00167368 0.999159 
0.0406142 0.00319633 0.99917 
0.0401921 0.00528289 0.999178 
0.0395905 0.00812483 0.999183 
0.0390912 0.0118685 0.999165 
0.0382823 0.0169718 0.999123 
0.037374 0.0237208 0.99902 
0.0362116 0.0327366 0.998808 
0.0342977 0.0447369 0.99841 
0.0319954 0.0623245 0.997543 
0.0292639 0.0856527 0.995895 
0.0254473 0.117906 0.992699 
0.021203 0.160643 0.986785 
0.0170161 0.218207 0.975754 
0.0119513 0.29577 0.955184 
0.00632897 0.397798 0.917451 
0.00140583 0.534033 0.845462 
-0.00174501 0.68901 0.72475 
-0.00211506 0.831917 0.554897 
-0.00204191 0.949567 0.313557 
0.000345552 0.999885 -0.0151863 
0.00172321 0.945878 -0.324518 
0.00207501 0.826445 -0.563013 
0.00125537 0.672511 -0.740086 
-0.00191324 0.52247 -0.852656 
-0.00677167 0.392309 -0.919809 
-0.0120676 0.293263 -0.955956 
-0.0171972 0.218103 -0.975774 
-0.0222709 0.159557 -0.986937 
-0.0259934 0.117252 -0.992762 
-0.0292915 0.0853753 -0.995918 
-0.0317167 0.0635666 -0.997473 
-0.0338868 0.0464307 -0.998347 
-0.0357622 0.0339491 -0.998784 
-0.0370022 0.024657 -0.999011 
-0.0379383 0.0176337 -0.999124 
-0.0389725 0.012399 -0.999163 
-0.0397771 0.00842934 -0.999173 
-0.0403294 0.00546175 -0.999172 
-0.040751 0.00334184 -0.999164 
-0.0410632 0.00178745 -0.999155 
-0.0412583 0.000704565 -0.999148 
-0.0414275 -0.000131048 -0.999142 
-0.0413046 -0.000774505 -0.999146 
-0.0415425 -0.00139023 -0.999136 
-0.0414721 -0.00195785 -0.999138 
-0.0414394 -0.00256428 -0.999138 
-0.0413086 -0.0032329 -0.999141 
-0.0409303 -0.004058 -0.999154 
-0.040881 -0.00528846 -0.99915 
-0.0400333 -0.00698804 -0.999174 
-0.0393491 -0.00962889 -0.999179 
-0.0382618 -0.0135105 -0.999176 
-0.0367596 -0.0183914 -0.999155 
-0.03551 -0.0251976 -0.999052 
-0.0338339 -0.0328206 -0.998888 
-0.0323968 -0.0409903 -0.998634 
-0.0299918 -0.0463747 -0.998474 
-0.0262359 -0.0410654 -0.998812 
-0.000261969 -0.000284029 -1 
0.00025162 4.96872e-05 1 
0.0223531 -0.039542 0.998968 
0.0259738 -0.0468331 0.998565 
0.0282841 -0.0414941 0.998738 
0.0300524 -0.0340179 0.998969 
0.0322886 -0.0262781 0.999133 
0.0336698 -0.0193548 0.999246 
0.0350343 -0.0136633 0.999293 
0.0366687 -0.00980095 0.999279 
0.0367599 -0.00715268 0.999299 
0.0370505 -0.00523118 0.9993 
0.037786 -0.00390825 0.999278 
0.0379646 -0.00299016 0.999275 
0.0379791 -0.00231018 0.999276 
0.0377462 -0.00173666 0.999286 
0.0381705 -0.00123121 0.99927 
0.0385338 -0.000698481 0.999257 
0.0383377 -3.96385e-05 0.999265 
0.0382137 0.000779038 0.999269 
0.0379368 0.00191533 0.999278 
0.0375836 0.00350205 0.999287 
0.0370394 0.00573389 0.999297 
0.0362851 0.00883379 0.999302 
0.0362108 0.0126882 0.999264 
0.0347325 0.0183628 0.999228 
0.033877 0.0252818 0.999106 
0.0329263 0.0343146 0.998869 
0.0311707 0.0471653 0.998401 
0.0288264 0.0638922 0.99754 
0.0253646 0.0891068 0.995699 
0.021361 0.122395 0.992252 
0.0173434 0.168927 0.985476 
0.0137223 0.227701 0.973634 
0.00944881 0.304993 0.952308 
0.00475756 0.414867 0.90987 
0.000988682 0.557933 0.829886 
-0.0002915 0.689134 0.724634 
4.44967e-05 0.847767 0.530369 
0.000267718 0.964651 0.263532 
0.00198078 0.999998 -0.00103154 
0.00199741 0.958562 -0.284878 
0.0021258 0.853216 -0.521554 
0.00127058 0.694058 -0.719918 
-0.000807806 0.539905 -0.841725 
-0.00476531 0.408273 -0.912848 
-0.00920747 0.30398 -0.952634 
-0.0138055 0.226032 -0.974022 
-0.0191391 0.166359 -0.985879 
-0.0223454 0.123305 -0.992117 
-0.0256015 0.0905845 -0.99556 
-0.0276572 0.0673378 -0.997347 
-0.0300504 0.0491771 -0.998338 
-0.0320781 0.0356927 -0.998848 
-0.0333853 0.0261797 -0.9991 
-0.0346868 0.0189858 -0.999218 
-0.0358432 0.0133499 -0.999268 
-0.0367324 0.0091425 -0.999283 
-0.0373928 0.00599858 -0.999283 
-0.0375228 0.00369719 -0.999289 
-0.0378001 0.00204728 -0.999283 
-0.0378165 0.000872569 -0.999284 
-0.0380909 6.03849e-05 -0.999274 
-0.03797 -0.000637131 -0.999279 
-0.0380996 -0.00125048 -0.999273 
-0.0381799 -0.00180537 -0.999269 
-0.0383205 -0.0024189 -0.999263 
-0.0380179 -0.00313455 -0.999272 
-0.0380915 -0.00411722 -0.999266 
-0.0373532 -0.00545386 -0.999287 
-0.0381077 -0.0072797 -0.999247 
-0.0364611 -0.0101073 -0.999284 
-0.0344807 -0.0142056 -0.999304 
-0.0343337 -0.0195774 -0.999219 
-0.0319482 -0.0269044 -0.999127 
-0.0316153 -0.0339982 -0.998922 
-0.0285546 -0.0416824 -0.998723 
-0.0252965 -0.0468844 -0.99858 
-0.0221205 -0.0389089 -0.998998 
-0.00026945 7.70987e-05 -1 
0.000203855 -4.65017e-05 1 
0.0177121 -0.0401458 0.999037 
0.020832 -0.0482249 0.998619 
0.023123 -0.0424431 0.998831 
0.0249624 -0.0356043 0.999054 
0.0270901 -0.0276455 0.999251 
0.028593 -0.0204051 0.999383 
0.0299379 -0.0145688 0.999446 
0.0309116 -0.0101511 0.999471 
0.0310337 -0.00719718 0.999492 
0.0311871 -0.00511562 0.9995 
0.0320486 -0.00370838 0.999479 
0.0320795 -0.00273404 0.999482 
0.0321096 -0.00202362 0.999482 
0.0319304 -0.00144596 0.999489 
0.0324415 -0.000937685 0.999473 
0.0328538 -0.000390205 0.99946 
0.0324426 0.000295325 0.999474 
0.0323694 0.00118958 0.999475 
0.0320648 0.0024695 0.999483 
0.0317091 0.0043237 0.999488 
0.0310367 0.00693782 0.999494 
0.030345 0.0106271 0.999483 
0.0303589 0.0149408 0.999427 
0.0286609 0.0214503 0.999359 
0.0279909 0.0292244 0.999181 
0.0270906 0.0391619 0.998866 
0.0251564 0.0528303 0.998287 
0.0231156 0.0723543 0.997111 
0.0194454 0.0986776 0.994929 
0.0156797 0.137196 0.99042 
0.012148 0.185449 0.982579 
0.00903951 0.249102 0.968435 
0.00580155 0.335551 0.942004 
0.00236422 0.460723 0.887541 
0.000813977 0.579207 0.81518 
0.000885237 0.733428 0.679767 
0.000471988 0.856523 0.516109 
0.00162934 0.940347 0.340214 
-0.000468752 0.998051 0.0624048 
0.000167704 0.964752 -0.263159 
9.72068e-05 0.842629 -0.538495 
0.00125669 0.70382 -0.710377 
-0.000205514 0.542192 -0.840255 
-0.00299918 0.406823 -0.913502 
-0.00650325 0.303597 -0.952778 
-0.0103664 0.227476 -0.973729 
-0.0152217 0.165837 -0.986036 
-0.0172288 0.123679 -0.992173 
-0.0208359 0.0905197 -0.995677 
-0.0226652 0.0656245 -0.997587 
-0.0251427 0.0478446 -0.998538 
-0.026876 0.0352611 -0.999017 
-0.0280229 0.025684 -0.999277 
-0.0290994 0.0185079 -0.999405 
-0.0302856 0.0130367 -0.999456 
-0.031107 0.00890289 -0.999476 
-0.0317376 0.00579506 -0.999479 
-0.0317084 0.00350795 -0.999491 
-0.0321466 0.00188193 -0.999481 
-0.0317052 0.000810441 -0.999497 
-0.0326119 1.36553e-05 -0.999468 
-0.0322251 -0.000632545 -0.99948 
-0.0322318 -0.0011622 -0.99948 
-0.0322665 -0.00170757 -0.999478 
-0.0322887 -0.00231428 -0.999476 
-0.0321479 -0.00309711 -0.999478 
-0.0322274 -0.00415209 -0.999472 
-0.0312486 -0.00565283 -0.999496 
-0.0326156 -0.00765262 -0.999439 
-0.0308032 -0.0107003 -0.999468 
-0.0289716 -0.0153164 -0.999463 
-0.0292244 -0.0209458 -0.999353 
-0.0267093 -0.0284265 -0.999239 
-0.0264867 -0.0355348 -0.999017 
-0.0232466 -0.043236 -0.998794 
-0.0198736 -0.0479738 -0.998651 
-0.0171341 -0.0392474 -0.999083 
-0.000178375 -5.42461e-05 -1 
0.000153718 -2.84865e-05 1 
0.0116906 -0.0368827 0.999251 
0.015353 -0.0487277 0.998694 
0.0174174 -0.0460019 0.998789 
0.0190538 -0.0393575 0.999044 
0.0209782 -0.031649 0.999279 
0.0224788 -0.024166 0.999455 
0.0234467 -0.0174976 0.999572 
0.0243947 -0.0123345 0.999626 
0.0246056 -0.00873737 0.999659 
0.0243663 -0.00605282 0.999685 
0.0248474 -0.0041842 0.999682 
0.0250347 -0.00300971 0.999682 
0.0251206 -0.00217548 0.999682 
0.0251482 -0.00156487 0.999683 
0.0251489 -0.00103442 0.999683 
0.025571 -0.000535721 0.999673 
0.0256321 2.57517e-05 0.999671 
0.0252935 0.000795739 0.99968 
0.0251779 0.00187125 0.999681 
0.0249638 0.00348084 0.999682 
0.0244486 0.00579351 0.999684 
0.0240098 0.00905231 0.999671 
0.0231249 0.0133815 0.999643 
0.0232587 0.0183901 0.99956 
0.0216904 0.0258464 0.999431 
0.0210659 0.0345889 0.99918 
0.0200317 0.0455383 0.998762 
0.0187921 0.0616384 0.997922 
0.016223 0.0823735 0.996469 
0.0130167 0.115671 0.993202 
0.0093031 0.161304 0.986861 
0.00661224 0.224594 0.97443 
0.00413057 0.306272 0.951935 
0.00224909 0.405668 0.914018 
0.00051949 0.522009 0.85294 
2.98869e-05 0.674903 0.737907 
-0.00102838 0.832581 0.553902 
-0.00166629 0.983233 0.182348 
-0.00531012 0.998084 -0.0616449 
-0.00344118 0.947407 -0.320014 
-0.00929998 0.959144 -0.282767 
-0.00169706 0.776907 -0.629613 
-3.04826e-05 0.611581 -0.791182 
-0.000856841 0.446758 -0.894654 
-0.00296062 0.332008 -0.943272 
-0.0055645 0.245791 -0.969307 
-0.00988252 0.182284 -0.983196 
-0.0113175 0.139613 -0.990141 
-0.0146068 0.100776 -0.994802 
-0.0168034 0.0744536 -0.997083 
-0.0187402 0.0528896 -0.998425 
-0.0201902 0.0389685 -0.999036 
-0.021414 0.0287163 -0.999358 
-0.0222373 0.0208322 -0.999536 
-0.0232116 0.0147886 -0.999621 
-0.0239332 0.0102503 -0.999661 
-0.0246083 0.00679037 -0.999674 
-0.0248258 0.00423129 -0.999683 
-0.0251807 0.00232546 -0.99968 
-0.0246358 0.00110051 -0.999696 
-0.0254577 0.000222022 -0.999676 
-0.0256789 -0.000389094 -0.99967 
-0.0248947 -0.000933295 -0.99969 
-0.0251668 -0.00144371 -0.999682 
-0.0248964 -0.00204397 -0.999688 
-0.0248584 -0.00279975 -0.999687 
-0.0249197 -0.00390466 -0.999682 
-0.0241796 -0.00550515 -0.999692 
-0.025675 -0.00796562 -0.999639 
-0.02449 -0.0115534 -0.999633 
-0.022717 -0.0164293 -0.999607 
-0.0233982 -0.0224114 -0.999475 
-0.0210866 -0.0303093 -0.999318 
-0.0212415 -0.0373911 -0.999075 
-0.0181352 -0.0448646 -0.998828 
-0.0149811 -0.0494105 -0.998666 
-0.0129291 -0.0409913 -0.999076 
-0.000115735 -2.35789e-05 -1 
0.000120518 -4.7109e-05 1 
0.00900011 -0.0424056 0.99906 
0.0117808 -0.0503601 0.998662 
0.0129507 -0.0455264 0.998879 
0.0145502 -0.0381018 0.999168 
0.0158173 -0.0303897 0.999413 
0.0170461 -0.022778 0.999595 
0.0177143 -0.0161996 0.999712 
0.0179194 -0.0114615 0.999774 
0.0181405 -0.00791251 0.999804 
0.0181096 -0.00524917 0.999822 
0.0179354 -0.00361788 0.999833 
0.0181478 -0.00254313 0.999832 
0.0181435 -0.00181801 0.999834 
0.0183047 -0.00127405 0.999832 
0.0180835 -0.000793844 0.999836 
0.0182107 -0.000315497 0.999834 
0.0184391 0.000293604 0.99983 
0.018021 0.00117804 0.999837 
0.0180589 0.00251217 0.999834 
0.0177786 0.00450189 0.999832 
0.0174835 0.00740407 0.99982 
0.0169079 0.0113013 0.999793 
0.0160202 0.0163538 0.999738 
0.0162943 0.0222499 0.99962 
0.0149447 0.0310054 0.999407 
0.0140385 0.04104 0.999059 
0.0137666 0.0550069 0.998391 
0.0117156 0.0736933 0.997212 
0.00997465 0.102121 0.994722 
0.00658742 0.147027 0.989111 
0.00413471 0.212776 0.977092 
0.00244484 0.296851 0.954921 
0.000808388 0.412997 0.910732 
-0.000719278 0.568803 0.822473 
-0.00184439 0.712837 0.701327 
-0.00338257 0.862178 0.506593 
-0.00371949 0.960746 0.277403 
-0.00371813 0.948487 0.316795 
-0.00706664 0.99665 0.0814788 
0.00234079 0.997888 0.0649122 
-0.00568452 0.973937 -0.226746 
-0.00559023 0.853741 -0.520668 
-0.00166774 0.685828 -0.727762 
0.000302695 0.512262 -0.858829 
-0.000416826 0.375745 -0.926723 
-0.00199304 0.275126 -0.961406 
-0.00513381 0.192188 -0.981345 
-0.00749888 0.134591 -0.990873 
-0.00984861 0.0982491 -0.995113 
-0.0125327 0.0694765 -0.997505 
-0.0131698 0.0510041 -0.998612 
-0.0142898 0.0376096 -0.99919 
-0.0153003 0.0276514 -0.999501 
-0.0159345 0.0200752 -0.999671 
-0.0164978 0.0143399 -0.999761 
-0.0170236 0.00987762 -0.999806 
-0.0175376 0.00649169 -0.999825 
-0.0181298 0.00383811 -0.999828 
-0.0179152 0.00210289 -0.999837 
-0.0181434 0.00083158 -0.999835 
-0.0182357 8.78518e-05 -0.999834 
-0.0186669 -0.000476427 -0.999826 
-0.0176804 -0.000958216 -0.999843 
-0.0181296 -0.00145524 -0.999835 
-0.0175758 -0.0020357 -0.999843 
-0.0178085 -0.00287914 -0.999837 
-0.017839 -0.00408242 -0.999833 
-0.0171012 -0.0058185 -0.999837 
-0.0191849 -0.0081671 -0.999783 
-0.0180299 -0.011756 -0.999768 
-0.0168698 -0.0171719 -0.99971 
-0.0174794 -0.0239117 -0.999561 
-0.015529 -0.0321149 -0.999364 
-0.0158299 -0.0394312 -0.999097 
-0.0130205 -0.0465512 -0.998831 
-0.0105317 -0.050878 -0.998649 
-0.0090663 -0.0415597 -0.999095 
-4.71344e-05 8.85335e-07 -1 
1.13044e-05 6.43137e-06 1 
0.00594638 -0.0418721 0.999105 
0.00791943 -0.0514419 0.998645 
0.00887326 -0.0479808 0.998809 
0.0100333 -0.0407696 0.999118 
0.0109242 -0.0328331 0.999401 
0.0117976 -0.0249816 0.999618 
0.0124448 -0.0181485 0.999758 
0.0123367 -0.0127264 0.999843 
0.0124997 -0.00876949 0.999883 
0.012822 -0.0058906 0.9999 
0.0121748 -0.00387433 0.999918 
0.0122668 -0.00266507 0.999921 
0.012182 -0.00188794 0.999924 
0.0122869 -0.00135767 0.999924 
0.0121586 -0.000925081 0.999926 
0.0119072 -0.000483888 0.999929 
0.0121955 5.91467e-05 0.999926 
0.012061 0.000840965 0.999927 
0.0119999 0.00210651 0.999926 
0.0118617 0.00399298 0.999922 
0.0117926 0.00675481 0.999908 
0.0113477 0.0105733 0.99988 
0.0106366 0.0154712 0.999824 
0.010364 0.0217496 0.99971 
0.0103359 0.0293917 0.999515 
0.00887677 0.0398986 0.999164 
0.00903951 0.0530311 0.998552 
0.00742466 0.0706188 0.997476 
0.00650683 0.0962562 0.995335 
0.00461453 0.134048 0.990964 
0.00260354 0.201157 0.979555 
0.00133302 0.290231 0.956956 
0.000265367 0.403668 0.914906 
-0.000929724 0.662646 0.748932 
-0.000309928 0.816432 0.577442 
0.00574788 0.942156 0.335125 
0.00622508 0.994258 0.106824 
0.00650084 0.997261 0.0736786 
0.00415385 0.999943 0.00983983 
0.00044684 0.997856 -0.0654392 
0.000620251 0.997576 -0.06958 
-0.00579607 0.819196 -0.573484 
-0.0032063 0.658008 -0.753004 
-0.000171649 0.535849 -0.844314 
0.000370988 0.385987 -0.922504 
-0.000415927 0.287631 -0.957741 
-0.00231486 0.20624 -0.978499 
-0.00411619 0.146817 -0.989155 
-0.00563346 0.103156 -0.994649 
-0.0077953 0.0757058 -0.9971 
-0.0082834 0.0560799 -0.998392 
-0.00897991 0.0413561 -0.999104 
-0.00973669 0.0306599 -0.999482 
-0.0102878 0.0226243 -0.999691 
-0.0106461 0.0163465 -0.99981 
-0.0110157 0.0113863 -0.999874 
-0.0112982 0.0075166 -0.999908 
-0.0121647 0.00464419 -0.999915 
-0.0117511 0.00255323 -0.999928 
-0.0125857 0.00113449 -0.99992 
-0.0119847 0.000210253 -0.999928 
-0.0124106 -0.000362731 -0.999923 
-0.0119717 -0.000811624 -0.999928 
-0.0120796 -0.0012797 -0.999926 
-0.0117266 -0.00179093 -0.99993 
-0.0119046 -0.00258181 -0.999926 
-0.0117855 -0.00375913 -0.999923 
-0.0117668 -0.00570915 -0.999914 
-0.0130893 -0.00867505 -0.999877 
-0.0127306 -0.0129373 -0.999835 
-0.011502 -0.0184419 -0.999764 
-0.0125483 -0.0247013 -0.999616 
-0.0108352 -0.0324996 -0.999413 
-0.0111891 -0.0401859 -0.99913 