# vtk DataFile Version 3.0 
Exported using Morpho https://github.com/Morpho-lang/morpho 
ASCII 
DATASET UNSTRUCTURED_GRID 

POINTS 1978 float 
-12 -4 4.54167e-11 
-11.5951 -4 -1.31172e-09 
-11.2909 -4 -1.59425e-09 
-10.9419 -4 -9.90787e-10 
-10.627 -4 -7.37976e-10 
-10.2816 -4 -4.88892e-10 
-9.9604 -4 -3.13806e-10 
-9.64934 -4 -2.3219e-10 
-9.31378 -4 -1.58741e-10 
-8.99721 -4 -1.53163e-10 
-8.68309 -4 -1.30013e-10 
-8.36741 -4 -1.04445e-10 
-8.0612 -4 -1.03776e-10 
-7.76697 -4 -7.43415e-11 
-7.48325 -4 -9.15707e-11 
-7.19045 -4 -5.69644e-11 
-6.89182 -4 -4.82019e-11 
-6.59314 -4 -3.4335e-11 
-6.2946 -4 -1.82194e-12 
-5.98822 -4 1.97699e-11 
-5.68746 -4 6.29739e-11 
-5.3834 -4 1.16132e-10 
-5.08339 -4 1.78778e-10 
-4.78857 -4 2.6365e-10 
-4.45798 -4 3.7833e-10 
-4.17075 -4 5.16342e-10 
-3.86658 -4 6.72894e-10 
-3.54613 -4 8.69291e-10 
-3.24968 -4 9.90112e-10 
-2.95439 -4 1.15019e-09 
-2.6651 -4 1.17831e-09 
-2.38988 -4 1.06489e-09 
-2.12566 -4 1.01289e-09 
-1.83649 -4 6.67584e-10 
-1.55622 -4 8.43062e-10 
-1.26118 -4 1.31466e-09 
-0.980155 -4 4.94364e-09 
-0.657547 -4 5.2188e-09 
-0.36832 -4 1.30483e-08 
0.0077887 -4 -6.65762e-09 
0.355536 -4 -9.68749e-09 
0.661649 -4 -6.3386e-09 
0.967874 -4 -4.45234e-09 
1.23974 -4 -2.26316e-10 
1.51286 -4 1.37146e-11 
1.78274 -4 -8.40702e-10 
2.06519 -4 -1.04011e-09 
2.35018 -4 -1.16949e-09 
2.6768 -4 -1.31745e-09 
2.97304 -4 -1.17458e-09 
3.29646 -4 -9.76771e-10 
3.58371 -4 -8.14154e-10 
3.88646 -4 -6.54173e-10 
4.19754 -4 -4.91778e-10 
4.49612 -4 -3.69567e-10 
4.79546 -4 -2.62798e-10 
5.10475 -4 -1.77825e-10 
5.41068 -4 -1.13263e-10 
5.71859 -4 -5.63806e-11 
6.012 -4 -1.4747e-11 
6.30522 -4 5.13047e-12 
6.60147 -4 2.49275e-11 
6.90029 -4 4.67797e-11 
7.17559 -4 7.34118e-11 
7.47706 -4 7.50069e-11 
7.77119 -4 1.18856e-10 
8.0688 -4 1.12292e-10 
8.35806 -4 1.36124e-10 
8.65944 -4 1.64562e-10 
8.93385 -4 1.38823e-10 
9.27975 -4 1.57034e-10 
9.6063 -4 2.37298e-10 
9.89466 -4 3.1122e-10 
10.2627 -4 5.20353e-10 
10.5759 -4 7.4047e-10 
10.9719 -4 1.03991e-09 
11.2904 -4 1.60971e-09 
11.5845 -4 1.285e-09 
12 -4 -5.23475e-11 
-12 -3.59671 -7.36322e-10 
-11.7145 -3.71581 4.55751e-18 
-11.3617 -3.62599 3.33784e-18 
-11.0446 -3.67383 3.85524e-18 
-10.7087 -3.64247 3.01961e-18 
-10.391 -3.67689 2.69779e-18 
-10.0553 -3.66261 2.02136e-18 
-9.73291 -3.66091 1.63516e-18 
-9.40385 -3.68469 1.10471e-18 
-9.06783 -3.66612 8.00174e-19 
-8.74698 -3.66472 5.78833e-19 
-8.42987 -3.66966 4.50898e-19 
-8.11352 -3.66488 3.3458e-19 
-7.80404 -3.6582 2.71424e-19 
-7.50425 -3.65183 2.09802e-19 
-7.2077 -3.66499 1.37931e-19 
-6.90105 -3.66845 1.06024e-19 
-6.59127 -3.65975 7.36356e-21 
-6.27838 -3.67242 -1.08166e-19 
-5.97009 -3.66578 -2.39609e-19 
-5.66054 -3.66683 -4.24867e-19 
-5.35492 -3.6609 -6.59374e-19 
-5.05817 -3.65422 -9.75056e-19 
-4.73518 -3.69096 -1.48985e-18 
-4.44321 -3.65158 -1.90982e-18 
-4.13965 -3.67387 -2.73359e-18 
-3.8245 -3.69348 -3.6605e-18 
-3.5196 -3.68079 -5.11022e-18 
-3.21698 -3.68162 -6.65616e-18 
-2.92261 -3.67212 -6.32513e-18 
-2.63993 -3.66225 -8.23786e-18 
-2.36798 -3.6561 -8.78696e-18 
-2.07809 -3.68326 -8.96129e-18 
-1.78053 -3.68493 -9.04026e-18 
-1.49152 -3.68496 -4.35998e-18 
-1.20463 -3.65165 6.90359e-19 
-0.888583 -3.67461 4.19245e-18 
-0.587864 -3.60173 -5.48053e-18 
-0.256625 -3.68822 2.22435e-17 
0.022907 -3.54144 1.83184e-17 
0.309373 -3.63226 -2.37781e-17 
0.627828 -3.607 1.07664e-17 
0.931042 -3.65704 -4.98915e-18 
1.23523 -3.64636 2.36167e-19 
1.51987 -3.66503 3.31349e-18 
1.8107 -3.68378 8.06897e-18 
2.1025 -3.68817 9.18561e-18 
2.42179 -3.72603 1.25024e-17 
2.72726 -3.69003 7.48696e-18 
3.04009 -3.70389 7.57424e-18 
3.32763 -3.65904 5.02777e-18 
3.62734 -3.67466 4.42156e-18 
3.93431 -3.67874 3.35454e-18 
4.23318 -3.66286 2.44601e-18 
4.53166 -3.66126 1.78981e-18 
4.83962 -3.67137 1.31248e-18 
5.14931 -3.66912 9.05701e-19 
5.46051 -3.67129 6.05611e-19 
5.76264 -3.65609 3.73669e-19 
6.06166 -3.65919 1.99306e-19 
6.36094 -3.66063 7.45738e-20 
6.66609 -3.66695 -1.66347e-20 
6.95138 -3.63821 -8.63101e-20 
7.25191 -3.66837 -1.81756e-19 
7.55175 -3.65877 -2.27096e-19 
7.85443 -3.66236 -3.02169e-19 
8.15135 -3.65229 -3.71726e-19 
8.44855 -3.66502 -4.87521e-19 
8.73556 -3.62878 -5.69153e-19 
9.05543 -3.70341 -9.02422e-19 
9.38707 -3.6795 -1.12609e-18 
9.69144 -3.63054 -1.39112e-18 
10.0249 -3.70795 -2.23935e-18 
10.3523 -3.65204 -2.4654e-18 
10.7172 -3.72045 -3.74827e-18 
11.0524 -3.64717 -3.48927e-18 
11.3568 -3.61448 -3.20737e-18 
11.7125 -3.72565 -4.65129e-18 
12 -3.59935 7.19187e-10 
-12 -3.29203 -7.25375e-10 
-11.6315 -3.36427 1.46878e-18 
-11.2867 -3.28233 6.15143e-19 
-10.9734 -3.32813 1.34783e-18 
-10.656 -3.29202 1.24237e-18 
-10.3365 -3.34275 1.1699e-18 
-10.0131 -3.32517 9.01633e-19 
-9.69555 -3.32097 7.2654e-19 
-9.38677 -3.3631 7.46302e-19 
-9.06978 -3.33299 4.46203e-19 
-8.77237 -3.31158 3.34169e-19 
-8.47343 -3.33418 2.46243e-19 
-8.16533 -3.33322 1.72363e-19 
-7.85718 -3.32582 1.05749e-19 
-7.55403 -3.31159 8.4692e-20 
-7.25382 -3.32402 5.71505e-20 
-6.95485 -3.33996 2.01086e-20 
-6.64671 -3.33368 -8.44429e-21 
-6.33487 -3.34493 -8.43043e-20 
-6.02635 -3.33691 -1.50022e-19 
-5.71641 -3.33579 -2.42749e-19 
-5.40884 -3.32754 -3.69355e-19 
-5.10434 -3.31049 -5.19969e-19 
-4.80253 -3.36744 -7.69482e-19 
-4.50134 -3.31596 -9.77632e-19 
-4.2003 -3.343 -1.31816e-18 
-3.89591 -3.37502 -1.88855e-18 
-3.59176 -3.36814 -2.66759e-18 
-3.28241 -3.36849 -1.26518e-18 
-2.97502 -3.35166 -4.43611e-18 
-2.67116 -3.32695 -5.86529e-18 
-2.38335 -3.30801 -5.59891e-18 
-2.10718 -3.35818 -3.13915e-18 
-1.80646 -3.37709 -1.77519e-18 
-1.49644 -3.35134 -9.00235e-19 
-1.17143 -3.33368 3.30881e-18 
-0.858928 -3.30323 4.08601e-18 
-0.584478 -3.15385 -1.08397e-18 
-0.310728 -3.30579 1.47709e-18 
0.0110488 -3.12623 7.90709e-17 
0.318327 -3.22301 -2.69093e-17 
0.601144 -3.17667 -1.28696e-17 
0.9044 -3.27945 -1.10198e-17 
1.20232 -3.29915 -3.42051e-18 
1.50768 -3.33042 1.50983e-18 
1.80058 -3.35847 1.67144e-18 
2.08974 -3.37202 4.10273e-18 
2.38274 -3.43183 3.22373e-18 
2.67129 -3.37468 5.99709e-18 
2.97449 -3.39676 4.17163e-18 
3.27315 -3.33055 2.67383e-18 
3.57379 -3.34434 2.24262e-18 
3.87347 -3.35436 1.88267e-18 
4.17471 -3.33196 1.31956e-18 
4.47539 -3.32393 9.80684e-19 
4.77606 -3.3392 7.64397e-19 
5.08075 -3.34198 5.70017e-19 
5.3915 -3.34427 3.7946e-19 
5.69968 -3.32518 2.51304e-19 
6.0096 -3.31964 1.51439e-19 
6.30816 -3.32234 7.77469e-20 
6.61173 -3.33687 1.7186e-20 
6.91186 -3.29049 -1.8486e-20 
7.2091 -3.33034 -5.24491e-20 
7.5101 -3.32256 -8.52471e-20 
7.81333 -3.32894 -1.25564e-19 
8.1189 -3.31295 -1.6708e-19 
8.42007 -3.31773 -2.26078e-19 
8.74257 -3.30953 -3.16546e-19 
9.06667 -3.38561 -4.89972e-19 
9.37926 -3.33998 -6.35056e-19 
9.69076 -3.28694 -8.12986e-19 
10.0038 -3.38062 -1.15822e-18 
10.3068 -3.30162 -1.10633e-18 
10.6319 -3.40327 -1.47356e-18 
10.9639 -3.33045 -1.31816e-18 
11.2958 -3.25269 -4.47286e-19 
11.6308 -3.37409 -1.57767e-18 
12 -3.28789 8.19672e-10 
-12 -2.96389 -6.84483e-10 
-11.6611 -3.04824 6.58594e-19 
-11.3176 -2.96385 -4.9182e-19 
-10.9698 -2.97371 1.35975e-19 
-10.6284 -2.96546 2.22836e-19 
-10.2969 -3.00355 3.68129e-19 
-9.97128 -2.98929 2.44899e-19 
-9.65082 -2.98253 5.91182e-19 
-9.34759 -3.02508 2.7769e-19 
-9.04448 -2.98022 2.46833e-19 
-8.73991 -2.96683 1.71333e-19 
-8.43786 -2.99544 1.33185e-19 
-8.13093 -2.99814 7.84666e-20 
-7.83022 -2.98795 5.28425e-20 
-7.52708 -2.97634 2.47562e-20 
-7.22747 -2.98936 1.12161e-20 
-6.92279 -3.01318 -1.08055e-20 
-6.61374 -3.00904 -3.37935e-20 
-6.30993 -3.01461 -6.21873e-20 
-6.00259 -3.00785 -1.0839e-19 
-5.69732 -3.00325 -1.66327e-19 
-5.39219 -2.99417 -2.41895e-19 
-5.09042 -2.97641 -2.95187e-19 
-4.79261 -3.03358 -4.48601e-19 
-4.49127 -2.98543 -5.00148e-19 
-4.19416 -3.01516 -6.5438e-19 
-3.89632 -3.05199 -9.13766e-19 
-3.59113 -3.04872 -1.22998e-18 
-3.28828 -3.05372 -2.84395e-18 
-2.97241 -3.03399 -7.82646e-19 
-2.68205 -2.98568 -9.86343e-19 
-2.38003 -2.97435 -8.49864e-21 
-2.07904 -3.00053 -3.40016e-18 
-1.80042 -3.05534 1.18813e-18 
-1.47179 -3.04281 2.09058e-18 
-1.14669 -2.99092 8.07798e-18 
-0.873528 -2.86461 6.77849e-18 
-0.551985 -2.74498 3.50811e-17 
-0.22569 -2.87946 -2.09198e-17 
0.00434667 -2.5359 -3.0491e-17 
0.248455 -2.77602 -1.91077e-17 
0.505685 -2.68442 -1.03105e-17 
0.820081 -2.87431 2.90177e-18 
1.14245 -2.91434 7.55845e-20 
1.45808 -2.98888 8.8021e-19 
1.77427 -3.01655 4.16749e-18 
2.07628 -3.03724 2.19395e-18 
2.36977 -3.10461 3.74594e-18 
2.66758 -3.044 2.67982e-18 
2.96012 -3.0767 2.12713e-19 
3.25766 -3.00561 1.75794e-18 
3.564 -3.01947 1.06106e-18 
3.86892 -3.02514 8.20214e-19 
4.16777 -3.0013 6.59541e-19 
4.46957 -2.99492 4.63701e-19 
4.77149 -3.00511 3.67966e-19 
5.07088 -3.01034 2.93331e-19 
5.37292 -3.01784 2.18169e-19 
5.67879 -2.99534 1.49429e-19 
5.98491 -2.99599 1.00332e-19 
6.29824 -2.98047 6.13917e-20 
6.59425 -3.00354 2.01347e-20 
6.91637 -2.9757 -6.47372e-15 
7.23393 -2.99413 -1.4749e-20 
7.53453 -2.98703 -3.27088e-20 
7.83865 -2.99661 -5.6692e-20 
8.13696 -2.97426 -7.77774e-20 
8.4469 -2.99569 -1.17198e-19 
8.74727 -2.96633 -1.59215e-19 
9.04733 -3.05825 -2.41658e-19 
9.35654 -3.00648 -3.12496e-19 
9.65741 -2.94343 -2.92645e-19 
9.98071 -3.03025 -3.46345e-19 
10.3166 -2.97518 -2.28249e-19 
10.6496 -3.0688 -6.11718e-19 
10.9832 -2.99055 -1.78751e-19 
11.3359 -2.9303 5.44777e-19 
11.6688 -3.05324 -7.61107e-19 
12 -2.945 9.03617e-10 
-12 -2.65085 -8.06613e-10 
-11.6481 -2.71955 1.28841e-19 
-11.3067 -2.63685 -7.8265e-19 
-10.9678 -2.65085 -7.06981e-20 
-10.6333 -2.63748 2.23179e-20 
-10.2991 -2.67161 7.82928e-20 
-9.96907 -2.66079 3.47814e-19 
-9.63943 -2.66114 2.58443e-19 
-9.31248 -2.67817 1.62711e-19 
-8.99632 -2.64134 1.67511e-19 
-8.6842 -2.63261 1.10948e-19 
-8.37532 -2.66562 7.53517e-20 
-8.07065 -2.65995 5.7527e-20 
-7.76143 -2.65732 3.50518e-20 
-7.45084 -2.64815 2.17407e-20 
-7.14308 -2.66902 4.92031e-21 
-6.83875 -2.68826 -7.01071e-21 
-6.53028 -2.67955 -2.40998e-20 
-6.2259 -2.68418 -5.26817e-20 
-5.92033 -2.67541 -9.19961e-20 
[...]
POINT_DATA 1978 
VECTORS vectors float
0.00155602 -0.0033083 0.999993 
0.00260592 -0.0541402 0.99853 
0.00176509 -0.0528266 0.998602 
0.00202269 -0.0428188 0.999081 
0.00197415 -0.0327802 0.999461 
0.00198143 -0.0225073 0.999745 
0.00202422 -0.0154501 0.999878 
0.00201607 -0.0108304 0.999939 
0.00204821 -0.00755292 0.999969 
0.00204761 -0.00571046 0.999981 
0.00202359 -0.00452772 0.999987 
0.00202173 -0.0036702 0.999991 
0.00200178 -0.00306153 0.999993 
0.00200033 -0.00257668 0.999994 
0.00199229 -0.00218924 0.999995 
0.00199174 -0.0017127 0.999996 
0.001996 -0.00117812 0.999997 
0.00199627 -0.000514871 0.999998 
0.00201083 0.000330527 0.999998 
0.00199506 0.00144509 0.999997 
0.0020027 0.00289371 0.999994 
0.00197215 0.00487926 0.999986 
0.00199083 0.00748014 0.99997 
0.00198299 0.0108571 0.999939 
0.00192785 0.0162248 0.999866 
0.00197443 0.0221701 0.999752 
0.0018879 0.03069 0.999527 
0.0018541 0.0433246 0.999059 
0.00179113 0.0590163 0.998255 
0.00166688 0.0808272 0.996727 
0.0015406 0.110223 0.993906 
0.00141604 0.148431 0.988922 
0.00117167 0.197653 0.980271 
0.000914078 0.271312 0.962491 
0.000607348 0.362065 0.932153 
0.000195412 0.485063 0.874479 
-0.000131312 0.623854 0.781541 
-0.000455181 0.79387 0.608087 
-0.000324656 0.926305 0.376775 
1.97406e-06 0.999981 -0.00610251 
0.000427329 0.929565 -0.368658 
0.000461623 0.787913 -0.615786 
0.000167958 0.624353 -0.781142 
-0.000227293 0.49179 -0.870714 
-0.000550729 0.378793 -0.925481 
-0.000861876 0.284894 -0.958559 
-0.00117725 0.210559 -0.97758 
-0.00142635 0.155105 -0.987897 
-0.00157066 0.109287 -0.994009 
-0.00174627 0.0793863 -0.996842 
-0.00176311 0.0563091 -0.998412 
-0.00188485 0.0415774 -0.999133 
-0.00188069 0.0303218 -0.999538 
-0.00192218 0.0217026 -0.999762 
-0.00195621 0.0155439 -0.999877 
-0.00196856 0.0109451 -0.999938 
-0.00198358 0.00734162 -0.999971 
-0.00199733 0.00467057 -0.999987 
-0.00198359 0.00268313 -0.999994 
-0.00200196 0.00134542 -0.999997 
-0.00199074 0.000396789 -0.999998 
-0.00197819 -0.00048086 -0.999998 
-0.00199042 -0.00120129 -0.999997 
-0.00200971 -0.00164014 -0.999996 
-0.00196888 -0.00225414 -0.999995 
-0.00199971 -0.00293896 -0.999993 
-0.00199674 -0.0035398 -0.999991 
-0.00197916 -0.00417562 -0.999989 
-0.00200665 -0.00480965 -0.999986 
-0.002076 -0.00550432 -0.999982 
-0.00199481 -0.00743216 -0.99997 
-0.00206819 -0.0105103 -0.999942 
-0.00205094 -0.0144177 -0.999894 
-0.00204646 -0.0222137 -0.999751 
-0.00214063 -0.0309647 -0.999518 
-0.00206148 -0.0440049 -0.999029 
-0.00181833 -0.0529374 -0.998596 
-0.00256401 -0.0541395 -0.99853 
-0.00159166 -0.00335888 -0.999992 
-0.000980315 -8.15012e-06 1 
0.0218661 -0.0403067 0.998948 
0.0274927 -0.0483563 0.998452 
0.0272894 -0.0438003 0.998667 
0.0289978 -0.0345607 0.998982 
0.0289454 -0.0260392 0.999242 
0.0306058 -0.0183933 0.999362 
0.0317062 -0.0128606 0.999414 
0.0316378 -0.00897101 0.999459 
0.0328074 -0.00645406 0.999441 
0.0331689 -0.00488757 0.999438 
0.0334661 -0.0038618 0.999432 
0.0339962 -0.00313796 0.999417 
0.0346591 -0.00254668 0.999396 
0.0351844 -0.00203548 0.999379 
0.0344883 -0.00153817 0.999404 
0.0340294 -0.000960321 0.99942 
0.034382 -0.000273269 0.999409 
0.0339546 0.000595852 0.999423 
0.0341265 0.00175986 0.999416 
0.0338351 0.00333724 0.999422 
0.0338632 0.00546287 0.999411 
0.0337188 0.0082375 0.999397 
0.0318066 0.0122538 0.999419 
0.033093 0.0173485 0.999302 
0.0313902 0.024077 0.999217 
0.0296793 0.0335788 0.998995 
0.0291156 0.0464055 0.998498 
0.027303 0.0636393 0.997599 
0.025276 0.0874514 0.995848 
0.0229006 0.118692 0.992667 
0.0197256 0.159793 0.986953 
0.0151292 0.21725 0.975999 
0.0108348 0.294981 0.955442 
0.00614047 0.393945 0.919113 
0.00174933 0.515724 0.856753 
-0.00173951 0.66926 0.743026 
-0.00313507 0.823892 0.566738 
-0.00209431 0.956624 0.291318 
-6.98837e-06 0.999919 -0.012739 
0.00258007 0.947822 -0.318789 
0.00331666 0.81067 -0.585495 
0.00159711 0.649424 -0.760425 
-0.00235903 0.498557 -0.866853 
-0.00691595 0.377014 -0.926182 
-0.0116606 0.280044 -0.959916 
-0.0161018 0.206786 -0.978254 
-0.0195258 0.147672 -0.988844 
-0.023184 0.107498 -0.993935 
-0.0254029 0.0773464 -0.996681 
-0.028304 0.0569103 -0.997978 
-0.0294319 0.0416336 -0.998699 
-0.0304592 0.0301274 -0.999082 
-0.031942 0.0218748 -0.99925 
-0.032589 0.01566 -0.999346 
-0.0327006 0.0108453 -0.999406 
-0.0332889 0.00725246 -0.999419 
-0.0335773 0.00459351 -0.999425 
-0.0345956 0.00272444 -0.999398 
-0.0347321 0.00138486 -0.999396 
-0.0346983 0.000372969 -0.999398 
-0.0348039 -0.0004624 -0.999394 
-0.0359807 -0.00106669 -0.999352 
-0.0345907 -0.00165157 -0.9994 
-0.0349436 -0.00225542 -0.999387 
-0.0348109 -0.00288498 -0.99939 
-0.0351443 -0.00351336 -0.999376 
-0.0345732 -0.00425056 -0.999393 
-0.0355049 -0.00509847 -0.999356 
-0.0319718 -0.00646473 -0.999468 
-0.0321014 -0.00894698 -0.999444 
-0.0329834 -0.0124686 -0.999378 
-0.0292076 -0.0176871 -0.999417 
-0.0297722 -0.024983 -0.999244 
-0.026494 -0.0348421 -0.999042 
-0.0281125 -0.0437617 -0.998646 
-0.027737 -0.048104 -0.998457 
-0.0216671 -0.0405505 -0.998942 
0.00098422 -2.25292e-05 -1 
-0.000999296 -0.00160236 0.999998 
0.0262693 -0.0413402 0.9988 
0.0303799 -0.0464825 0.998457 
0.032383 -0.0412992 0.998622 
0.0335391 -0.0334137 0.998879 
0.0352346 -0.0258391 0.999045 
0.0366855 -0.0189549 0.999147 
0.0381525 -0.0134684 0.999181 
0.0388377 -0.00942132 0.999201 
0.0399013 -0.00687176 0.99918 
0.0406171 -0.00522738 0.999161 
0.0407362 -0.00401314 0.999162 
0.040974 -0.00317187 0.999155 
0.0410947 -0.00252606 0.999152 
0.0412244 -0.00194886 0.999148 
0.0412252 -0.00143123 0.999149 
0.0413097 -0.000897732 0.999146 
0.04132 -0.000247966 0.999146 
0.0411638 0.000568147 0.999152 
0.0409719 0.00167366 0.999159 
0.0406149 0.00319631 0.99917 
0.0401929 0.00528287 0.999178 
0.0395913 0.0081248 0.999183 
0.039092 0.0118685 0.999165 
0.038283 0.0169718 0.999123 
0.0373747 0.0237208 0.99902 
0.0362124 0.0327365 0.998808 
0.0342984 0.0447368 0.99841 
0.031996 0.0623245 0.997543 
0.0292645 0.0856526 0.995895 
0.0254479 0.117906 0.992699 
0.0212035 0.160642 0.986785 
0.0170165 0.218207 0.975754 
0.0119516 0.29577 0.955184 
0.00632911 0.397798 0.917451 
0.00140587 0.534033 0.845463 
-0.00174508 0.689009 0.72475 
-0.00211523 0.831916 0.554897 
-0.002042 0.949568 0.313554 
0.00034559 0.999885 -0.0151879 
0.00172346 0.945878 -0.324517 
0.00207548 0.826446 -0.563012 
0.00125564 0.672512 -0.740085 
-0.00191317 0.522471 -0.852655 
-0.00677178 0.392309 -0.919808 
-0.0120679 0.293263 -0.955956 
-0.0171976 0.218103 -0.975774 
-0.0222715 0.159557 -0.986937 
-0.025994 0.117252 -0.992762 
-0.0292921 0.0853751 -0.995918 
-0.0317173 0.0635667 -0.997473 
-0.0338874 0.0464307 -0.998346 
-0.0357629 0.0339491 -0.998783 
-0.0370029 0.024657 -0.999011 
-0.037939 0.0176337 -0.999124 
-0.0389732 0.012399 -0.999163 
-0.0397779 0.00842931 -0.999173 
-0.0403302 0.00546172 -0.999171 
-0.0407518 0.00334183 -0.999164 
-0.0410639 0.00178744 -0.999155 
-0.0412591 0.000704553 -0.999148 
-0.0414283 -0.000131056 -0.999141 
-0.0413053 -0.000774512 -0.999146 
-0.0415433 -0.00139024 -0.999136 
-0.0414728 -0.00195786 -0.999138 
-0.0414401 -0.00256429 -0.999138 
-0.0413093 -0.00323291 -0.999141 
-0.040931 -0.00405801 -0.999154 
-0.0408818 -0.00528846 -0.99915 
-0.0400342 -0.00698804 -0.999174 
-0.0393499 -0.00962888 -0.999179 
-0.0382625 -0.0135105 -0.999176 
-0.0367604 -0.0183914 -0.999155 
-0.0355107 -0.0251977 -0.999052 
-0.0338347 -0.0328208 -0.998888 
-0.0323975 -0.0409907 -0.998634 
-0.0299925 -0.0463756 -0.998474 
-0.0262375 -0.0410672 -0.998812 
0.00119107 -0.00164879 -0.999998 
-0.000542872 -0.00118384 0.999999 
0.0223544 -0.039544 0.998968 
0.0259742 -0.046834 0.998565 
0.0282844 -0.0414945 0.998738 
0.0300527 -0.0340181 0.998969 
0.0322889 -0.0262783 0.999133 
0.0336702 -0.0193549 0.999245 
0.0350346 -0.0136633 0.999293 
0.0366692 -0.00980094 0.999279 
0.0367603 -0.00715267 0.999298 
0.0370509 -0.00523117 0.9993 
0.0377864 -0.00390824 0.999278 
0.037965 -0.00299016 0.999275 
0.0379794 -0.00231018 0.999276 
0.0377465 -0.00173667 0.999286 
0.0381709 -0.00123122 0.99927 
0.0385342 -0.000698492 0.999257 
0.0383381 -3.96495e-05 0.999265 
0.0382141 0.000779023 0.999269 
0.0379372 0.00191531 0.999278 
0.037584 0.00350203 0.999287 
0.0370397 0.00573386 0.999297 
0.0362855 0.00883377 0.999302 
0.0362111 0.0126882 0.999264 
0.0347328 0.0183628 0.999228 
0.0338773 0.0252817 0.999106 
0.0329267 0.0343146 0.998868 
0.031171 0.0471653 0.998401 
0.0288267 0.0638921 0.99754 
0.0253649 0.0891067 0.995699 
0.0213612 0.122395 0.992252 
0.0173435 0.168927 0.985476 
0.0137225 0.227701 0.973634 
0.00944885 0.304994 0.952307 
0.00475761 0.414867 0.90987 
0.000988653 0.557934 0.829885 
-0.000291582 0.689134 0.724634 
4.4507e-05 0.847767 0.530368 
0.000267645 0.964649 0.263537 
0.00198101 0.999998 -0.00103124 
0.00199762 0.958561 -0.284881 
0.00212557 0.853213 -0.521559 
0.00127058 0.694055 -0.719921 
-0.000807744 0.539904 -0.841726 
-0.00476539 0.408271 -0.912848 
-0.00920762 0.303979 -0.952634 
-0.0138057 0.226032 -0.974022 
-0.0191394 0.166359 -0.985879 
-0.0223457 0.123305 -0.992117 
-0.0256017 0.0905845 -0.99556 
-0.0276575 0.0673377 -0.997347 
-0.0300506 0.0491771 -0.998338 
-0.0320784 0.0356927 -0.998848 
-0.0333856 0.0261797 -0.9991 
-0.0346872 0.0189858 -0.999218 
-0.0358435 0.0133499 -0.999268 
-0.0367328 0.00914249 -0.999283 
-0.0373932 0.00599857 -0.999283 
-0.0375231 0.00369716 -0.999289 
-0.0378005 0.00204726 -0.999283 
-0.0378169 0.000872557 -0.999284 
-0.0380913 6.03785e-05 -0.999274 
-0.0379704 -0.000637137 -0.999279 
-0.0381 -0.00125049 -0.999273 
-0.0381802 -0.00180538 -0.999269 
-0.0383209 -0.0024189 -0.999263 
-0.0380182 -0.00313456 -0.999272 
-0.0380919 -0.00411722 -0.999266 
-0.0373536 -0.00545386 -0.999287 
-0.0381081 -0.0072797 -0.999247 
-0.0364614 -0.0101073 -0.999284 
-0.034481 -0.0142057 -0.999304 
-0.0343341 -0.0195775 -0.999219 
-0.0319485 -0.0269046 -0.999127 
-0.0316157 -0.0339984 -0.998922 
-0.0285549 -0.0416828 -0.998723 
-0.0252968 -0.0468854 -0.99858 
-0.0221218 -0.0389109 -0.998998 
0.00100441 -0.00111674 -0.999999 
-0.000790159 -0.00128879 0.999999 
0.0177129 -0.0401477 0.999037 
0.0208322 -0.0482259 0.998619 
0.0231231 -0.0424435 0.998831 
0.0249625 -0.0356046 0.999054 
0.0270903 -0.0276457 0.999251 
0.0285933 -0.0204052 0.999383 
0.0299381 -0.0145688 0.999446 
0.0309119 -0.0101511 0.99947 
0.031034 -0.00719718 0.999492 
0.0311874 -0.00511561 0.9995 
0.0320488 -0.00370838 0.999479 
0.0320797 -0.00273403 0.999482 
0.0321098 -0.00202362 0.999482 
0.0319306 -0.00144596 0.999489 
0.0324418 -0.000937691 0.999473 
0.032854 -0.000390211 0.99946 
0.0324428 0.000295318 0.999473 
0.0323697 0.00118957 0.999475 
0.032065 0.00246948 0.999483 
0.0317094 0.00432368 0.999488 
0.031037 0.00693781 0.999494 
0.0303452 0.0106271 0.999483 
0.0303591 0.0149408 0.999427 
0.0286611 0.0214503 0.999359 
0.0279912 0.0292244 0.999181 
0.0270908 0.039162 0.998866 
0.0251566 0.0528303 0.998287 
0.0231158 0.0723543 0.997111 
0.0194456 0.0986776 0.994929 
0.0156799 0.137196 0.99042 
0.0121481 0.185448 0.982579 
0.00903967 0.249101 0.968435 
0.00580156 0.33555 0.942004 
0.00236418 0.460723 0.887541 
0.000813876 0.579207 0.81518 
0.000884983 0.733428 0.679767 
0.000471697 0.856519 0.516115 
0.00162941 0.940347 0.340212 
-0.000468585 0.998051 0.0624022 
0.000168038 0.964753 -0.263157 
9.76101e-05 0.842633 -0.538488 
0.00125671 0.703823 -0.710374 
-0.000205416 0.542193 -0.840254 
-0.00299914 0.406825 -0.913501 
-0.00650323 0.303598 -0.952778 
-0.0103665 0.227476 -0.973728 
-0.0152219 0.165837 -0.986036 
-0.0172289 0.123679 -0.992173 
-0.0208361 0.0905196 -0.995677 
-0.0226653 0.0656245 -0.997587 
-0.0251429 0.0478446 -0.998538 
-0.0268763 0.0352611 -0.999017 
-0.0280231 0.025684 -0.999277 
-0.0290996 0.0185079 -0.999405 
-0.0302859 0.0130367 -0.999456 
-0.0311072 0.00890287 -0.999476 
-0.0317378 0.00579503 -0.999479 
-0.0317086 0.00350793 -0.999491 
-0.0321468 0.0018819 -0.999481 
-0.0317054 0.000810427 -0.999497 
-0.0326122 1.36471e-05 -0.999468 
-0.0322254 -0.000632553 -0.99948 
-0.0322321 -0.00116221 -0.99948 
-0.0322668 -0.00170757 -0.999478 
-0.032289 -0.00231428 -0.999476 
-0.0321482 -0.00309711 -0.999478 
-0.0322276 -0.00415209 -0.999472 
-0.0312488 -0.00565281 -0.999496 
-0.0326158 -0.0076526 -0.999439 
-0.0308035 -0.0107003 -0.999468 
-0.0289718 -0.0153164 -0.999463 
-0.0292246 -0.0209458 -0.999353 
-0.0267095 -0.0284267 -0.999239 
-0.0264869 -0.035535 -0.999017 
-0.0232467 -0.0432364 -0.998794 
-0.0198738 -0.0479748 -0.998651 
-0.017135 -0.0392495 -0.999082 
0.000580439 -0.00128481 -0.999999 
-0.00065755 -0.00132957 0.999999 
0.0116914 -0.036885 0.999251 
0.0153532 -0.048729 0.998694 
0.0174175 -0.0460025 0.998789 
0.0190539 -0.0393578 0.999043 
0.0209784 -0.0316492 0.999279 
0.022479 -0.0241661 0.999455 
0.0234469 -0.0174977 0.999572 
0.0243949 -0.0123345 0.999626 
0.0246058 -0.00873736 0.999659 
0.0243665 -0.00605281 0.999685 
0.0248476 -0.0041842 0.999682 
0.0250348 -0.00300971 0.999682 
0.0251207 -0.00217548 0.999682 
0.0251483 -0.00156487 0.999682 
0.0251491 -0.00103442 0.999683 
0.0255712 -0.000535726 0.999673 
0.0256322 2.57437e-05 0.999671 
0.0252936 0.000795726 0.99968 
0.025178 0.00187123 0.999681 
0.0249639 0.00348081 0.999682 
0.0244488 0.00579349 0.999684 
0.0240099 0.00905229 0.999671 
0.023125 0.0133815 0.999643 
0.0232588 0.0183901 0.99956 
0.0216906 0.0258465 0.999431 
0.021066 0.034589 0.99918 
0.0200318 0.0455384 0.998762 
0.0187922 0.0616384 0.997922 
0.0162231 0.0823734 0.996469 
0.0130168 0.115671 0.993202 
0.00930309 0.161304 0.986861 
0.00661228 0.224595 0.97443 
0.00413058 0.306272 0.951935 
0.00224904 0.405669 0.914017 
0.000519478 0.522006 0.852941 
2.99913e-05 0.674901 0.737909 
-0.00102803 0.832576 0.55391 
-0.0016672 0.983234 0.182341 
-0.00530975 0.998085 -0.0616291 
-0.00344173 0.947406 -0.320017 
-0.00930009 0.959137 -0.28279 
-0.00169642 0.776899 -0.629623 
-3.00135e-05 0.611578 -0.791184 
-0.000856808 0.446755 -0.894656 
-0.0029606 0.332007 -0.943272 
-0.00556452 0.245791 -0.969307 
-0.00988265 0.182284 -0.983196 
-0.0113176 0.139613 -0.990141 
-0.0146069 0.100776 -0.994802 
-0.0168035 0.0744537 -0.997083 
-0.0187404 0.0528895 -0.998424 
-0.0201904 0.0389686 -0.999036 
-0.0214142 0.0287163 -0.999358 
-0.0222374 0.0208323 -0.999536 
-0.0232118 0.0147886 -0.999621 
-0.0239334 0.0102503 -0.999661 
-0.0246084 0.00679036 -0.999674 
-0.0248259 0.00423127 -0.999683 
-0.0251809 0.00232544 -0.99968 
-0.0246359 0.0011005 -0.999696 
-0.0254578 0.000222015 -0.999676 
-0.0256791 -0.000389098 -0.99967 
-0.0248948 -0.000933297 -0.99969 
-0.025167 -0.00144371 -0.999682 
-0.0248965 -0.00204397 -0.999688 
-0.0248585 -0.00279975 -0.999687 
-0.0249199 -0.00390465 -0.999682 
-0.0241798 -0.00550514 -0.999692 
-0.0256752 -0.00796562 -0.999639 
-0.0244902 -0.0115534 -0.999633 
-0.0227172 -0.0164294 -0.999607 
-0.0233984 -0.0224115 -0.999475 
-0.0210867 -0.0303095 -0.999318 
-0.0212417 -0.0373914 -0.999075 
-0.0181353 -0.044865 -0.998828 
-0.0149812 -0.0494115 -0.998666 
-0.0129297 -0.0409933 -0.999076 
0.000282083 -0.00125768 -0.999999 
-9.52744e-05 -0.00129479 0.999999 
0.00900045 -0.0424076 0.99906 
0.0117809 -0.0503611 0.998662 
0.0129507 -0.0455268 0.998879 
0.0145502 -0.0381021 0.999168 
0.0158173 -0.0303899 0.999413 
0.0170462 -0.0227781 0.999595 
0.0177144 -0.0161996 0.999712 
0.0179194 -0.0114614 0.999774 
0.0181405 -0.0079125 0.999804 
0.0181097 -0.00524915 0.999822 
0.0179355 -0.00361786 0.999833 
0.0181478 -0.00254312 0.999832 
0.0181435 -0.00181801 0.999834 
0.0183047 -0.00127405 0.999832 
0.0180836 -0.000793847 0.999836 
0.0182108 -0.000315504 0.999834 
0.0184392 0.000293591 0.99983 
0.018021 0.00117802 0.999837 
0.018059 0.00251214 0.999834 
0.0177787 0.00450186 0.999832 
0.0174836 0.00740405 0.99982 
0.016908 0.0113013 0.999793 
0.0160202 0.0163538 0.999738 
0.0162944 0.0222499 0.99962 
0.0149447 0.0310054 0.999407 
0.0140385 0.04104 0.999059 
0.0137667 0.0550068 0.998391 
0.0117156 0.0736931 0.997212 
0.00997474 0.102121 0.994722 
0.00658743 0.147027 0.989111 
0.00413471 0.212776 0.977092 
0.00244486 0.296851 0.954921 
0.000808502 0.412997 0.910732 
-0.000719332 0.568809 0.822469 
-0.0018442 0.712839 0.701325 
-0.00338375 0.862188 0.506577 
-0.00372238 0.960745 0.277406 
-0.0037179 0.948482 0.316809 
-0.00706783 0.996651 0.0814666 
0.00234191 0.997886 0.0649491 
-0.0056871 0.973935 -0.226758 
-0.00559045 0.853737 -0.520674 
-0.0016681 0.685828 -0.727762 
0.000302571 0.512263 -0.858829 
-0.000416821 0.375745 -0.926723 
-0.00199299 0.275127 -0.961406 
-0.0051338 0.192188 -0.981345 
-0.00749889 0.134591 -0.990873 
-0.00984864 0.0982492 -0.995113 
-0.0125328 0.0694762 -0.997505 
-0.0131698 0.0510041 -0.998612 
-0.0142899 0.0376095 -0.99919 
-0.0153003 0.0276514 -0.9995 
-0.0159345 0.0200752 -0.999671 
-0.0164978 0.0143399 -0.999761 
-0.0170236 0.0098776 -0.999806 
-0.0175376 0.00649165 -0.999825 
-0.0181299 0.00383807 -0.999828 
-0.0179152 0.00210286 -0.999837 
-0.0181435 0.000831561 -0.999835 
-0.0182358 8.78399e-05 -0.999834 
-0.018667 -0.000476433 -0.999826 
-0.0176805 -0.000958219 -0.999843 
-0.0181297 -0.00145524 -0.999835 
-0.0175759 -0.00203569 -0.999843 
-0.0178085 -0.00287913 -0.999837 
-0.0178391 -0.00408241 -0.999833 
-0.0171013 -0.00581849 -0.999837 
-0.019185 -0.00816709 -0.999783 
-0.01803 -0.011756 -0.999768 
-0.0168699 -0.0171719 -0.99971 
-0.0174795 -0.0239118 -0.999561 
-0.0155291 -0.0321151 -0.999363 
-0.01583 -0.0394315 -0.999097 
-0.0130206 -0.0465517 -0.998831 
-0.0105318 -0.050879 -0.998649 
-0.00906667 -0.0415617 -0.999095 
0.000268907 -0.00118634 -0.999999 
-0.000170715 -0.00119624 0.999999 
0.00594663 -0.0418743 0.999105 
0.00791948 -0.0514431 0.998644 
0.00887328 -0.0479813 0.998809 
0.0100333 -0.0407699 0.999118 
0.0109243 -0.0328334 0.999401 
0.0117976 -0.0249817 0.999618 
0.0124449 -0.0181486 0.999758 
0.0123367 -0.0127264 0.999843 
0.0124997 -0.00876948 0.999883 
0.0128221 -0.00589059 0.9999 
0.0121748 -0.00387431 0.999918 
0.0122668 -0.00266506 0.999921 
0.012182 -0.00188794 0.999924 
0.0122869 -0.00135767 0.999924 
0.0121586 -0.000925086 0.999926 
0.0119072 -0.000483896 0.999929 
0.0121955 5.9132e-05 0.999926 
0.012061 0.000840942 0.999927 
0.0119998 0.00210648 0.999926 
0.0118617 0.00399295 0.999922 
0.0117926 0.00675478 0.999908 
0.0113477 0.0105733 0.99988 
0.0106366 0.0154712 0.999824 
0.010364 0.0217496 0.99971 
0.0103359 0.0293917 0.999514 
0.00887675 0.0398987 0.999164 
0.00903952 0.0530312 0.998552 
0.00742461 0.0706189 0.997476 
0.00650684 0.0962564 0.995335 
0.00461451 0.134048 0.990964 
0.00260353 0.201158 0.979555 
0.00133303 0.290232 0.956955 
0.000265422 0.40367 0.914904 
-0.00092999 0.662648 0.74893 
-0.000309748 0.816414 0.577467 
0.00574923 0.942154 0.335131 
0.00622501 0.994258 0.106824 
0.00650154 0.99726 0.0736851 
0.00415387 0.999943 0.00983987 
0.000446254 0.997856 -0.0654475 
0.000620238 0.997576 -0.0695801 
-0.00579686 0.819198 -0.573482 
-0.0032064 0.658012 -0.753 
-0.000171776 0.535851 -0.844313 
0.000370963 0.385987 -0.922504 
-0.000415898 0.28763 -0.957741 
-0.00231482 0.20624 -0.978499 
-0.00411618 0.146817 -0.989155 
-0.00563343 0.103156 -0.994649 
-0.00779535 0.0757059 -0.9971 
-0.00828335 0.05608 -0.998392 
-0.0089799 0.0413561 -0.999104 
-0.00973667 0.03066 -0.999482 
-0.0102878 0.0226244 -0.999691 
-0.0106461 0.0163465 -0.99981 
-0.0110157 0.0113863 -0.999874 
-0.0112982 0.00751659 -0.999908 
-0.0121647 0.00464417 -0.999915 
-0.0117511 0.0025532 -0.999928 
-0.0125857 0.00113447 -0.99992 
-0.0119847 0.000210242 -0.999928 
-0.0124106 -0.000362738 -0.999923 
-0.0119717 -0.000811627 -0.999928 
-0.0120796 -0.0012797 -0.999926 
-0.0117266 -0.00179092 -0.99993 
-0.0119046 -0.0025818 -0.999926 
-0.0117855 -0.00375912 -0.999923 
-0.0117668 -0.00570913 -0.999914 
-0.0130893 -0.00867504 -0.999877 
-0.0127306 -0.0129373 -0.999835 
-0.011502 -0.018442 -0.999764 
-0.0125483 -0.0247014 -0.999616 
-0.0108353 -0.0324998 -0.999413 
-0.0111891 -0.0401862 -0.999129 