# vtk DataFile Version 3.0 
Exported using Morpho https://github.com/Morpho-lang/morpho 
ASCII 
DATASET UNSTRUCTURED_GRID 

POINTS 1978 float 
-11.9998 -3.99975 -2.80563e-07 
-11.5952 -3.99979 8.16037e-07 
-11.2909 -3.99979 1.28728e-06 
-10.942 -3.99982 2.76133e-07 
-10.6271 -3.99983 2.0929e-07 
-10.2812 -3.99982 3.17433e-08 
-9.9599 -3.99982 -1.25751e-08 
-9.64951 -3.99979 -5.28413e-09 
-9.31406 -3.99981 -5.63163e-08 
-8.99735 -3.9998 5.49363e-08 
-8.68318 -3.9998 5.64976e-08 
-8.36703 -3.99981 3.54743e-08 
-8.06098 -3.9998 7.71956e-08 
-7.76642 -3.99982 2.94786e-08 
-7.48289 -3.99981 1.07421e-07 
-7.19166 -3.9998 3.65354e-08 
-6.89128 -3.99986 4.47728e-08 
-6.59374 -3.99981 5.43241e-08 
-6.2943 -3.99981 2.11192e-08 
-5.98819 -3.99981 3.54568e-08 
-5.68767 -3.99981 9.87497e-09 
-5.38355 -3.99981 -1.2008e-08 
-5.08367 -3.99982 -3.39826e-08 
-4.78892 -3.9998 -1.99606e-08 
-4.45773 -3.99981 -6.81332e-08 
-4.17086 -3.99982 -1.3625e-07 
-3.86653 -3.99985 -3.25147e-08 
-3.54523 -3.99983 -9.77498e-08 
-3.24966 -3.99987 6.99228e-08 
-2.95383 -3.99989 2.29006e-07 
-2.66493 -3.99993 4.15745e-07 
-2.38857 -3.99994 6.82561e-07 
-2.1264 -4 8.32601e-07 
-1.8345 -3.99998 1.27339e-06 
-1.55632 -4.00002 7.93706e-08 
-1.26052 -3.99992 -1.38766e-06 
-0.979508 -3.99982 -7.1687e-06 
-0.658676 -3.99953 -7.44301e-06 
-0.368243 -3.99935 -1.68013e-05 
0.00524407 -3.99902 7.96529e-06 
0.355402 -3.99931 1.27176e-05 
0.661708 -3.99954 9.33218e-06 
0.967152 -3.99988 6.79856e-06 
1.23808 -3.9999 -5.99538e-07 
1.51258 -4.00005 -1.16749e-06 
1.7817 -3.99999 -4.95951e-07 
2.06472 -3.99996 -9.83388e-07 
2.34949 -3.99996 -1.2913e-06 
2.67623 -3.9999 -4.84309e-07 
2.97203 -3.99991 -3.38633e-07 
3.29686 -3.99983 -3.70724e-08 
3.58342 -3.99984 1.10448e-07 
3.88657 -3.99983 6.39133e-08 
4.19747 -3.99982 8.1697e-08 
4.49606 -3.99982 9.75263e-08 
4.79559 -3.99981 3.96989e-08 
5.10499 -3.99981 1.67387e-08 
5.41067 -3.99982 8.935e-09 
5.71871 -3.99981 -1.55631e-08 
6.01209 -3.99983 -4.06108e-08 
6.30502 -3.99982 -3.92484e-08 
6.60165 -3.99981 -2.89418e-08 
6.9003 -3.99982 -4.21369e-08 
7.17551 -3.99981 -9.25907e-08 
7.47697 -3.99982 -5.08621e-08 
7.77132 -3.99981 -1.23147e-07 
8.06868 -3.99981 -6.74579e-08 
8.35817 -3.99984 -8.16309e-08 
8.65948 -3.99981 -1.45807e-07 
8.93363 -3.99981 -1.23907e-08 
9.27962 -3.99982 7.10468e-08 
9.60645 -3.99979 -4.54338e-08 
9.89463 -3.99982 5.52552e-08 
10.2627 -3.99981 -1.28257e-07 
10.5759 -3.9998 -1.25384e-07 
10.9719 -3.99981 -2.87559e-07 
11.2902 -3.99981 -1.39192e-06 
11.5848 -3.99979 -7.68045e-07 
11.9998 -3.99975 3.31421e-07 
-11.9998 -3.59632 7.59055e-07 
-11.7138 -3.71457 4.46463e-14 
-11.3606 -3.62533 -1.34806e-14 
-11.044 -3.67396 1.63954e-16 
-10.7081 -3.64305 1.00747e-14 
-10.3916 -3.67725 3.59268e-15 
-10.0563 -3.66018 5.51297e-15 
-9.73497 -3.65569 6.03337e-15 
-9.40715 -3.68496 4.42304e-15 
-9.0713 -3.66678 3.31917e-15 
-8.75098 -3.66472 2.70313e-15 
-8.43247 -3.66922 1.89774e-15 
-8.11568 -3.66506 1.0597e-15 
-7.80385 -3.65653 1.56291e-15 
-7.50473 -3.65027 2.49137e-15 
-7.20729 -3.66362 5.73317e-17 
-6.89601 -3.66453 7.97431e-16 
-6.58706 -3.6671 1.07724e-15 
-6.27397 -3.67292 7.66538e-16 
-5.96537 -3.6658 3.65244e-16 
-5.655 -3.66653 -9.34095e-16 
-5.34875 -3.65938 -1.62333e-15 
-5.05216 -3.65159 -2.95223e-15 
-4.72823 -3.68778 -2.19478e-15 
-4.43766 -3.64631 -6.84173e-15 
-4.13399 -3.66997 -8.62622e-15 
-3.81777 -3.69247 -7.67015e-15 
-3.51302 -3.67671 -1.56848e-14 
-3.21557 -3.68127 -1.9451e-14 
-2.91763 -3.68058 -2.33745e-14 
-2.6333 -3.66705 -3.93221e-14 
-2.35704 -3.66213 -5.50701e-14 
-2.06981 -3.69335 -1.73803e-14 
-1.77942 -3.69217 -3.8445e-14 
-1.49005 -3.70158 -1.85282e-14 
-1.20729 -3.65907 2.62455e-14 
-0.898689 -3.68259 9.39686e-14 
-0.600463 -3.6061 -2.15144e-14 
-0.277232 -3.68356 4.31251e-13 
0.0148853 -3.57212 1.55742e-13 
0.31235 -3.63633 -4.40009e-13 
0.62874 -3.62149 -5.54506e-15 
0.933619 -3.66616 -1.08113e-13 
1.23876 -3.66027 -1.93917e-14 
1.52041 -3.68614 1.712e-14 
1.80883 -3.69406 3.563e-14 
2.1007 -3.694 2.61305e-14 
2.41856 -3.73013 1.6581e-14 
2.72432 -3.69536 1.68773e-14 
3.03364 -3.7089 1.52391e-14 
3.32296 -3.65912 2.29941e-14 
3.62095 -3.6715 1.42578e-14 
3.92887 -3.67684 8.47638e-15 
4.22886 -3.65887 9.449e-15 
4.52879 -3.65742 5.75659e-15 
4.8387 -3.66935 1.82535e-15 
5.14991 -3.66779 2.16271e-15 
5.46213 -3.67123 1.4039e-15 
5.76537 -3.65661 4.28032e-16 
6.06336 -3.65874 -1.20372e-15 
6.3633 -3.66256 -7.8216e-16 
6.66702 -3.66571 -9.84938e-16 
6.95078 -3.63567 -2.12228e-15 
7.2515 -3.6669 -2.93808e-15 
7.55192 -3.65773 -1.63742e-15 
7.85476 -3.66193 -2.08889e-15 
8.15269 -3.6526 -1.03105e-15 
8.45026 -3.66603 -3.04592e-15 
8.73722 -3.62811 -4.26546e-15 
9.05598 -3.70297 -3.08361e-15 
9.38688 -3.67855 -2.64384e-15 
9.69043 -3.62894 -6.90837e-15 
10.0233 -3.70645 -3.95283e-15 
10.3487 -3.64994 -6.22372e-15 
10.7145 -3.72015 -6.64552e-16 
11.049 -3.64667 -9.80333e-16 
11.3542 -3.6144 9.6222e-15 
11.7108 -3.72433 -3.82868e-14 
11.9998 -3.59956 -7.18878e-07 
-11.9998 -3.2915 7.85666e-07 
-11.6309 -3.36294 3.42367e-14 
-11.2851 -3.28256 6.18402e-15 
-10.9718 -3.32909 2.5804e-14 
-10.6565 -3.29215 2.59305e-14 
-10.3389 -3.3427 2.00648e-14 
-10.0177 -3.31984 1.63599e-14 
-9.69764 -3.31754 1.27091e-14 
-9.3839 -3.36303 1.0959e-14 
-9.06842 -3.33284 9.45094e-15 
-8.77177 -3.31062 5.92904e-15 
-8.47483 -3.33413 4.13246e-15 
-8.16692 -3.33115 2.42128e-15 
-7.86096 -3.32611 2.66651e-15 
-7.55653 -3.30682 3.2003e-15 
-7.25893 -3.32355 2.91573e-15 
-6.95649 -3.3421 2.57481e-15 
-6.64472 -3.33701 1.13029e-15 
-6.33555 -3.34549 5.13627e-16 
-6.02786 -3.33698 -1.68888e-16 
-5.71756 -3.3355 -1.09804e-15 
-5.40995 -3.32601 -3.50983e-15 
-5.10485 -3.3063 -5.62277e-15 
-4.80079 -3.36406 -7.6516e-15 
-4.49891 -3.3062 -1.50816e-14 
-4.19911 -3.33602 -1.82627e-14 
-3.89475 -3.37267 -2.4369e-14 
-3.59137 -3.36611 -3.81902e-14 
-3.27657 -3.35923 -4.5658e-14 
-2.97447 -3.36575 -6.15923e-14 
-2.67202 -3.33784 -6.64831e-14 
-2.3799 -3.32852 -6.96886e-14 
-2.09126 -3.37114 -6.28132e-14 
-1.80268 -3.38379 -5.74969e-14 
-1.50042 -3.37741 -2.15762e-14 
-1.18607 -3.33596 7.03537e-14 
-0.874676 -3.32315 6.18044e-14 
-0.596021 -3.17552 -1.19047e-14 
-0.308463 -3.29912 2.95579e-13 
0.0125791 -3.15276 -1.53141e-13 
0.319309 -3.22996 -4.18193e-13 
0.602592 -3.18639 -1.14526e-13 
0.900304 -3.29952 -1.39225e-13 
1.19785 -3.32821 -5.27897e-14 
1.50392 -3.35971 1.95e-14 
1.79253 -3.3764 6.51168e-14 
2.0835 -3.38566 8.03156e-14 
2.3784 -3.44111 8.70873e-14 
2.67139 -3.38655 7.74531e-14 
2.9718 -3.39486 6.07133e-14 
3.2628 -3.33599 4.65807e-14 
3.56734 -3.33752 3.40726e-14 
3.86671 -3.35261 2.49581e-14 
4.16911 -3.32689 1.94659e-14 
4.47107 -3.3184 1.36341e-14 
4.77398 -3.33666 8.92282e-15 
5.08102 -3.33966 6.53506e-15 
5.39286 -3.34235 3.96822e-15 
5.69955 -3.32619 1.63557e-15 
6.0093 -3.31806 4.00148e-16 
6.30696 -3.32579 -5.7082e-16 
6.60952 -3.33491 -3.88727e-16 
6.9082 -3.28603 -9.9388e-16 
7.20525 -3.32825 -1.24328e-15 
7.50712 -3.3218 -3.23446e-15 
7.81218 -3.32801 -3.59491e-15 
8.11827 -3.31469 -3.43437e-15 
8.4217 -3.31953 -3.3723e-15 
8.74468 -3.30905 -5.93271e-15 
9.06845 -3.38434 -9.38586e-15 
9.38062 -3.33785 -1.0669e-14 
9.68712 -3.28049 -1.1907e-14 
9.99739 -3.37691 -1.61963e-14 
10.3046 -3.30249 -2.33908e-14 
10.6325 -3.4038 -2.53015e-14 
10.9657 -3.32767 -2.94023e-14 
11.2969 -3.25268 1.75694e-17 
11.6311 -3.37329 -3.98169e-14 
11.9998 -3.28744 -9.02176e-07 
-11.9998 -2.96383 8.90604e-07 
-11.6606 -3.04732 2.85011e-14 
-11.3177 -2.96395 -1.91221e-14 
-10.9709 -2.97418 -4.75281e-16 
-10.6307 -2.96644 -2.9909e-16 
-10.2994 -3.00215 5.79233e-15 
-9.97254 -2.98518 1.22132e-15 
-9.64496 -2.9881 -4.54291e-16 
-9.34183 -3.0221 2.27168e-15 
-9.04007 -2.97988 2.12358e-15 
-8.73631 -2.96545 -1.58674e-16 
-8.43651 -2.99456 -1.07866e-15 
-8.13225 -2.99299 -1.5281e-15 
-7.83144 -2.98866 -4.7947e-16 
-7.52948 -2.96943 -5.86934e-16 
-7.22906 -2.99243 -1.83532e-15 
-6.9289 -3.01716 -3.27942e-15 
-6.6199 -3.01118 -3.43163e-15 
-6.31736 -3.01371 -3.73001e-15 
-6.01026 -3.00745 -3.92011e-15 
-5.70334 -3.00313 -4.85063e-15 
-5.39628 -2.99285 -6.1417e-15 
-5.09215 -2.97077 -6.44802e-15 
-4.79511 -3.03036 -9.28853e-15 
-4.49122 -2.97819 -8.36938e-15 
-4.19289 -3.0072 -1.15342e-14 
-3.89696 -3.04967 -1.46042e-14 
-3.59495 -3.04513 -1.48763e-14 
-3.29319 -3.05452 -2.27991e-14 
-2.96788 -3.04199 -2.37733e-14 
-2.67476 -2.99685 -2.11987e-14 
-2.37063 -2.98931 -1.90457e-14 
-2.07985 -3.03471 -1.99874e-14 
-1.78363 -3.06059 -1.71623e-14 
-1.47001 -3.05228 4.54892e-14 
-1.14319 -2.99258 1.02223e-13 
-0.881677 -2.89186 1.00638e-13 
-0.563868 -2.75138 5.26167e-13 
-0.255693 -2.87887 -3.15711e-13 
0.00126143 -2.61111 2.74112e-13 
0.267385 -2.76625 -8.45497e-14 
0.537073 -2.70159 -2.97705e-14 
0.861013 -2.89221 -8.20591e-15 
1.17288 -2.94977 -3.69138e-14 
1.47767 -3.02265 -4.64954e-15 
1.77936 -3.03474 2.23554e-14 
2.07331 -3.05423 -3.45952e-15 
2.3683 -3.1219 2.99688e-14 
2.66395 -3.05474 2.03888e-14 
2.95604 -3.0687 2.27707e-14 
3.25829 -3.00532 1.62237e-14 
3.55935 -3.01531 1.48224e-14 
3.86522 -3.02287 1.39946e-14 
4.16443 -2.99663 1.2555e-14 
4.46465 -2.98753 9.86788e-15 
4.76518 -3.00342 8.65324e-15 
5.06647 -3.00914 7.38036e-15 
5.37073 -3.0155 5.95838e-15 
5.67943 -2.99499 4.87372e-15 
5.98507 -2.99471 4.05439e-15 
6.29907 -2.98377 3.73549e-15 
6.59339 -3.00103 3.13651e-15 
6.91567 -2.97213 3.28452e-15 
7.23386 -2.99288 2.39753e-15 
7.53609 -2.98824 1.10798e-15 
7.8395 -2.99525 3.12362e-16 
8.14008 -2.9784 1.33473e-15 
8.44905 -2.99784 1.36933e-15 
8.74887 -2.96682 -3.45829e-17 
9.05035 -3.05701 -3.65275e-15 
9.3546 -2.99993 -2.52705e-15 
9.66194 -2.94165 1.15985e-15 
9.98668 -3.0276 -3.13942e-15 
10.3191 -2.97261 -1.85789e-15 
10.6476 -3.07145 -9.86569e-15 
10.9809 -2.98859 3.47365e-16 
11.3335 -2.93082 2.21379e-14 
11.6683 -3.05171 -3.47084e-14 
11.9998 -2.94458 -1.25874e-06 
-11.9998 -2.65072 1.17911e-06 
-11.6478 -2.71916 1.19764e-14 
-11.3041 -2.63857 -2.18771e-14 
-10.9658 -2.65153 4.56945e-15 
[...]
POINT_DATA 1978 
VECTORS vectors float
0.0290804 -0.0448636 0.998628 
0.0333957 -0.0579742 0.997848 
0.0301995 -0.0543192 0.998161 
0.0307023 -0.043434 0.998674 
0.0305699 -0.0329874 0.999078 
0.0312284 -0.0223875 0.999351 
0.0313278 -0.0152479 0.999483 
0.0319975 -0.0106257 0.99952 
0.0324491 -0.00743511 0.999533 
0.0324143 -0.00568152 0.999546 
0.0327067 -0.00452594 0.999541 
0.0327533 -0.00371112 0.999542 
0.0325772 -0.00313737 0.999549 
0.0322997 -0.00263288 0.999558 
0.0322101 -0.00220807 0.999562 
0.0322737 -0.0017218 0.999564 
0.032712 -0.00122976 0.999521 
0.0326657 -0.000550007 0.999549 
0.0325575 0.000301312 0.999553 
0.0325113 0.00139442 0.999554 
0.0323659 0.00283223 0.999556 
0.0323025 0.00479952 0.999551 
0.0318536 0.00743612 0.99955 
0.0320975 0.0107625 0.999511 
0.031679 0.0160711 0.999454 
0.0309421 0.0220058 0.999363 
0.0309399 0.0304678 0.999138 
0.0299806 0.0430149 0.998705 
0.0287599 0.058538 0.997949 
0.0272785 0.0802027 0.996482 
0.0250541 0.109349 0.993762 
0.0223381 0.147353 0.988903 
0.0190625 0.196321 0.980423 
0.0149348 0.270219 0.962747 
0.00955457 0.360742 0.932675 
0.00325726 0.484128 0.875042 
-0.00245515 0.623654 0.781733 
-0.00682886 0.793693 0.608275 
-0.00589928 0.926817 0.375376 
-2.6838e-05 0.999906 -0.00674967 
0.00648062 0.928967 -0.370001 
0.0072569 0.786804 -0.617156 
0.00261028 0.622967 -0.782279 
-0.00364625 0.490997 -0.871208 
-0.00910994 0.378292 -0.92567 
-0.0137111 0.284023 -0.958783 
-0.018613 0.209584 -0.977681 
-0.0227841 0.153958 -0.987884 
-0.025481 0.108502 -0.993843 
-0.0277101 0.0787034 -0.996589 
-0.028941 0.0558927 -0.998098 
-0.0297956 0.0412593 -0.998786 
-0.030809 0.0300799 -0.999156 
-0.0312615 0.0215581 -0.999363 
-0.0314932 0.0154184 -0.99947 
-0.0319149 0.0108349 -0.999517 
-0.0321837 0.00726168 -0.99954 
-0.032394 0.00462321 -0.999548 
-0.0323995 0.00265379 -0.999555 
-0.032323 0.0013054 -0.999559 
-0.0324735 0.000359765 -0.999555 
-0.0326426 -0.000500457 -0.999549 
-0.0322192 -0.00123282 -0.999563 
-0.032339 -0.00168506 -0.999558 
-0.0326463 -0.00230451 -0.999547 
-0.032473 -0.00298226 -0.999552 
-0.032453 -0.0035795 -0.99955 
-0.0326429 -0.00420647 -0.999541 
-0.032111 -0.0048698 -0.999557 
-0.0323321 -0.00554574 -0.999546 
-0.032879 -0.00728856 -0.999517 
-0.0316475 -0.0103375 -0.999534 
-0.0316338 -0.0142664 -0.999485 
-0.0310324 -0.022155 -0.999362 
-0.0301943 -0.0311388 -0.999148 
-0.0306542 -0.0445856 -0.998623 
-0.0298005 -0.0543871 -0.998169 
-0.0333219 -0.0578826 -0.997855 
-0.0291434 -0.044746 -0.998632 
0.0244767 -0.0478423 0.998634 
0.0282111 -0.045645 0.998694 
0.0308549 -0.0506093 0.998396 
0.0312086 -0.0448678 0.998662 
0.0323061 -0.0349299 0.999022 
0.0328198 -0.0261638 0.999272 
0.0343132 -0.018334 0.999394 
0.0354847 -0.0127706 0.99946 
0.0358337 -0.00889422 0.999441 
0.0367213 -0.00640886 0.999449 
0.0370712 -0.00488502 0.999466 
0.0374084 -0.00387602 0.999434 
0.0378593 -0.00317497 0.999417 
0.0384446 -0.00257746 0.999396 
0.0389778 -0.00206505 0.999375 
0.0384011 -0.00157273 0.999394 
0.0378044 -0.000981592 0.999445 
0.0381631 -0.000295206 0.999408 
0.0379385 0.000561742 0.999417 
0.0379803 0.00172591 0.999414 
0.0376923 0.00330134 0.999422 
0.037671 0.00543203 0.999414 
0.0373307 0.00818272 0.999408 
0.0358986 0.0121951 0.999424 
0.0366295 0.0173315 0.999314 
0.0350333 0.0239669 0.999237 
0.0335274 0.0334403 0.999015 
0.0326199 0.0462067 0.998536 
0.0306084 0.06334 0.997659 
0.0283736 0.0871856 0.995925 
0.025643 0.118514 0.992759 
0.0220814 0.159347 0.987112 
0.0171196 0.216758 0.976214 
0.012385 0.294577 0.955676 
0.00709434 0.392736 0.919724 
0.00197464 0.51505 0.857268 
-0.00215038 0.66811 0.744131 
-0.00349892 0.822437 0.568811 
-0.00250635 0.954983 0.296303 
0.000219622 0.999802 -0.0104152 
0.0029535 0.947793 -0.318532 
0.00379471 0.811012 -0.584999 
0.00193588 0.649213 -0.760681 
-0.00266928 0.498016 -0.867274 
-0.00790049 0.375492 -0.926945 
-0.0133441 0.278279 -0.960539 
-0.0182659 0.206 -0.978514 
-0.0227009 0.148025 -0.988831 
-0.0260115 0.106811 -0.994099 
-0.0289829 0.0772797 -0.9967 
-0.0314238 0.0566113 -0.998066 
-0.0329514 0.0414882 -0.998735 
-0.0341922 0.0300516 -0.999103 
-0.0355442 0.0217949 -0.99927 
-0.0362272 0.0156027 -0.999362 
-0.0365344 0.0107946 -0.999414 
-0.0371201 0.00719689 -0.999424 
-0.0374722 0.00453925 -0.999425 
-0.0383575 0.00267757 -0.999397 
-0.0385474 0.00135749 -0.999391 
-0.0384669 0.000349989 -0.999395 
-0.0387671 -0.000502916 -0.999383 
-0.0395449 -0.00109699 -0.999352 
-0.0385185 -0.00166611 -0.999392 
-0.0386931 -0.00229317 -0.999385 
-0.0386955 -0.00292804 -0.999383 
-0.0388359 -0.00354723 -0.999375 
-0.0385422 -0.00428027 -0.999362 
-0.038951 -0.00509073 -0.999387 
-0.036386 -0.00639307 -0.999435 
-0.0361414 -0.00890118 -0.99945 
-0.0363961 -0.0123846 -0.999429 
-0.0336118 -0.0175833 -0.999406 
-0.0332495 -0.0250785 -0.999308 
-0.0310515 -0.0351931 -0.999054 
-0.0316346 -0.0448589 -0.998648 
-0.0309802 -0.0503435 -0.998406 
-0.0281198 -0.0459118 -0.998685 
-0.0244412 -0.0478544 -0.998635 
0.0201341 -0.0449314 0.998863 
0.0293389 -0.045777 0.998676 
0.0321829 -0.0487363 0.998464 
0.0340345 -0.0420298 0.99866 
0.035226 -0.0337958 0.998981 
0.0369901 -0.0260825 0.999097 
0.0385145 -0.0190555 0.99922 
0.0400879 -0.013438 0.999224 
0.0407967 -0.00935545 0.999286 
0.0418908 -0.00683838 0.999237 
0.0425665 -0.00522013 0.999191 
0.0426576 -0.00400773 0.99922 
0.0429596 -0.00319297 0.999206 
0.0429497 -0.00256277 0.999207 
0.0430724 -0.00197259 0.9992 
0.0429704 -0.00144706 0.999232 
0.0433141 -0.00091863 0.999169 
0.0433237 -0.00027474 0.999192 
0.0431457 0.000530989 0.9992 
0.0429301 0.00163711 0.999209 
0.0425262 0.00315649 0.999224 
0.0420547 0.00523496 0.999236 
0.0414468 0.00807466 0.999265 
0.0409511 0.0118207 0.9992 
0.0400907 0.0168819 0.999212 
0.0391536 0.0236953 0.999085 
0.0380521 0.0327369 0.998847 
0.0360908 0.0446782 0.998507 
0.0336107 0.0622334 0.99763 
0.0308175 0.0854149 0.995982 
0.0267573 0.117465 0.992857 
0.022292 0.160065 0.987025 
0.0180233 0.218786 0.975721 
0.0126871 0.294734 0.955634 
0.00666257 0.398341 0.917375 
0.0014274 0.53453 0.845266 
-0.00188605 0.688522 0.725281 
-0.00255465 0.832639 0.553763 
-0.00210261 0.950721 0.309715 
0.000469638 0.999698 -0.0170014 
0.00223352 0.94593 -0.32404 
0.00269004 0.827119 -0.561975 
0.00152228 0.67303 -0.739693 
-0.00194001 0.522651 -0.852668 
-0.00713492 0.392746 -0.919754 
-0.0127972 0.293498 -0.956013 
-0.0182774 0.217252 -0.976082 
-0.0236042 0.15856 -0.987204 
-0.0275629 0.117384 -0.992842 
-0.0308701 0.0849876 -0.996038 
-0.0333585 0.063606 -0.997552 
-0.0355436 0.0463574 -0.998427 
-0.0374991 0.0338783 -0.998834 
-0.0387771 0.0246346 -0.999075 
-0.0396927 0.017587 -0.999216 
-0.0408172 0.0123584 -0.999224 
-0.0417211 0.00837997 -0.999228 
-0.0422405 0.00541985 -0.999226 
-0.0426607 0.00330483 -0.999217 
-0.0429307 0.00174896 -0.999209 
-0.0431396 0.000673017 -0.9992 
-0.0432762 -0.000149618 -0.999172 
-0.0430644 -0.000794765 -0.999226 
-0.0433853 -0.00141666 -0.999167 
-0.0433493 -0.00198394 -0.99919 
-0.0433568 -0.00258766 -0.999189 
-0.0431695 -0.00325226 -0.999195 
-0.0427689 -0.00406706 -0.999232 
-0.0428927 -0.00529242 -0.999201 
-0.0420998 -0.00697364 -0.999224 
-0.0413389 -0.00958251 -0.999237 
-0.0401317 -0.0134667 -0.999245 
-0.0386672 -0.0184295 -0.999225 
-0.0373712 -0.0254536 -0.999124 
-0.0355833 -0.033179 -0.998938 
-0.0341457 -0.0417138 -0.998695 
-0.0317185 -0.0487476 -0.99848 
-0.0293674 -0.045426 -0.998693 
-0.019919 -0.0456075 -0.99884 
0.0158911 -0.0457223 0.998904 
0.0248633 -0.0444006 0.998859 
0.0267145 -0.0490994 0.998587 
0.0289427 -0.0423119 0.998832 
0.0307023 -0.0345958 0.999078 
0.0331163 -0.0266429 0.999243 
0.034488 -0.0194684 0.99936 
0.0358877 -0.0136446 0.999428 
0.0376621 -0.00977298 0.999359 
0.0376662 -0.00713283 0.999403 
0.0378905 -0.00520736 0.999408 
0.0387431 -0.00389867 0.999375 
0.0388702 -0.00299637 0.999374 
0.0388946 -0.00232476 0.999374 
0.0385394 -0.00175377 0.999391 
0.0391327 -0.00125511 0.99934 
0.0394649 -0.000727971 0.999375 
0.0392259 -6.50445e-05 0.999363 
0.039119 0.000747926 0.999368 
0.0388411 0.00187643 0.999378 
0.0384986 0.0034556 0.999388 
0.0379177 0.00567327 0.9994 
0.0371054 0.00878691 0.999384 
0.0371529 0.0126581 0.999386 
0.0354806 0.0183555 0.999312 
0.034665 0.0252397 0.999212 
0.033789 0.0343145 0.998997 
0.0319356 0.0471199 0.998487 
0.0295956 0.0638372 0.997659 
0.0260513 0.0887011 0.995884 
0.0219093 0.12187 0.992456 
0.017666 0.168811 0.985649 
0.014217 0.227223 0.973891 
0.00962795 0.306855 0.951861 
0.00481639 0.415362 0.909784 
0.000813695 0.558253 0.829793 
-0.000619551 0.690366 0.723532 
-0.000193396 0.846268 0.532675 
-0.000158833 0.96334 0.267886 
0.00173136 0.99983 -0.00114925 
0.00203624 0.956895 -0.290011 
0.00205384 0.8498 -0.527032 
0.00153445 0.692696 -0.721308 
-0.000634401 0.539577 -0.842071 
-0.00489304 0.406094 -0.913968 
-0.00956658 0.304317 -0.952643 
-0.0140138 0.227334 -0.973899 
-0.0196749 0.166409 -0.986004 
-0.0229611 0.123266 -0.992226 
-0.0262787 0.0904943 -0.995719 
-0.0282656 0.0673336 -0.997447 
-0.0307527 0.0491744 -0.998454 
-0.0328967 0.0357236 -0.998978 
-0.0341403 0.0261622 -0.999211 
-0.0355127 0.0189925 -0.999297 
-0.0367138 0.0133352 -0.999371 
-0.0376372 0.00910677 -0.999384 
-0.0383367 0.00596223 -0.999382 
-0.0383981 0.00365483 -0.99939 
-0.0386677 0.0020031 -0.999384 
-0.0387263 0.000840352 -0.999383 
-0.0390116 4.42423e-05 -0.999394 
-0.0387978 -0.000654731 -0.999357 
-0.0390048 -0.00127256 -0.999393 
-0.039077 -0.0018208 -0.999368 
-0.0392239 -0.00243215 -0.999361 
-0.0389233 -0.00314358 -0.999371 
-0.0390001 -0.00411421 -0.999366 
-0.0382002 -0.00545051 -0.999391 
-0.039195 -0.00727376 -0.999342 
-0.0373522 -0.0100821 -0.999391 
-0.0352062 -0.0142201 -0.999421 
-0.0352781 -0.0197206 -0.999328 
-0.0326397 -0.0272933 -0.999242 
-0.0326085 -0.0344683 -0.999023 
-0.0292317 -0.0424892 -0.998819 
-0.0260309 -0.0493698 -0.998589 
-0.0247204 -0.0437843 -0.998892 
-0.0153215 -0.0470474 -0.998853 
0.01171 -0.0475141 0.998879 
0.0192302 -0.0447208 0.998993 
0.0212436 -0.0508245 0.9986 
0.0235462 -0.0431789 0.998967 
0.025401 -0.0362657 0.999142 
0.027674 -0.0281113 0.999393 
0.0292063 -0.0205387 0.999506 
0.0305674 -0.0145851 0.999544 
0.0315945 -0.0101467 0.999613 
0.031722 -0.00718445 0.999609 
0.0318426 -0.00509938 0.999617 
0.0327304 -0.00370597 0.999593 
0.0327656 -0.00273232 0.999594 
0.0327909 -0.00202595 0.999593 
0.0325861 -0.00145791 0.9996 
0.0331101 -0.000952449 0.999583 
0.0335765 -0.000405653 0.999569 
0.0331019 0.000275355 0.999586 
0.0330507 0.00115713 0.999587 
0.032755 0.0024228 0.999595 
0.03238 0.00426992 0.999601 
0.0317277 0.00689469 0.999606 
0.0309656 0.0105987 0.999597 
0.0310396 0.0149172 0.999538 
0.0292338 0.0214681 0.999472 
0.0286367 0.0293192 0.99929 
0.0276219 0.0392022 0.998981 
0.02573 0.052995 0.998399 
0.0235533 0.0724893 0.997233 
0.0199222 0.0988738 0.995052 
0.0159634 0.138244 0.990431 
0.0125368 0.185108 0.982772 
0.00925964 0.248005 0.968917 
0.00591912 0.333847 0.94277 
0.00239983 0.459469 0.888311 
0.000571552 0.579826 0.814901 
0.000614037 0.732551 0.680759 
0.000892474 0.853502 0.521001 
0.00173209 0.940888 0.338405 
0.000416895 0.997253 0.0719182 
0.000885199 0.966789 -0.254998 
0.000185045 0.844847 -0.534949 
0.00138281 0.70198 -0.71224 
-2.87073e-06 0.543197 -0.839746 
-0.00299876 0.408747 -0.912808 
-0.00653997 0.303771 -0.952924 
-0.0106942 0.226257 -0.97414 
-0.0156946 0.165146 -0.986299 
-0.0176281 0.123408 -0.992382 
-0.0213424 0.090447 -0.99582 
-0.0231437 0.0656787 -0.997714 
-0.0256574 0.0478838 -0.99866 
-0.0274993 0.0353057 -0.999132 
-0.0286213 0.0256985 -0.999392 
-0.0296951 0.0185261 -0.999519 
-0.0309547 0.0130001 -0.999569 
-0.0317856 0.00885526 -0.999589 
-0.0324152 0.00573887 -0.999592 
-0.0323813 0.00345138 -0.999603 
-0.032817 0.00183323 -0.999593 
-0.0323935 0.000779365 -0.999608 
-0.0332794 -4.38284e-06 -0.999578 
-0.0328832 -0.000647323 -0.999591 
-0.0329171 -0.00117423 -0.999589 
-0.0329408 -0.00171499 -0.999588 
-0.0329528 -0.00231949 -0.999587 
-0.0328549 -0.00310027 -0.999589 
-0.033036 -0.00415705 -0.999557 
-0.0318071 -0.00560184 -0.999614 
-0.0333139 -0.00761937 -0.999553 
-0.0314847 -0.0106997 -0.999587 
-0.0295918 -0.0153398 -0.999586 
-0.0298216 -0.0211018 -0.999477 
-0.0272451 -0.0288823 -0.999357 
-0.0269504 -0.0361722 -0.99913 
-0.0236007 -0.0441909 -0.998893 
-0.020293 -0.0505571 -0.998661 
-0.0187703 -0.0441346 -0.999004 
-0.0112104 -0.0464659 -0.998933 
0.00756401 -0.0480104 0.998894 
0.0130673 -0.0427036 0.99913 
0.0157816 -0.0516652 0.998684 
0.0177197 -0.0472773 0.998872 
0.0194064 -0.0401162 0.999154 
0.0213834 -0.0322517 0.999397 
0.0229028 -0.024438 0.999582 
0.0238818 -0.0175746 0.999702 
0.0248467 -0.0123518 0.999754 
0.0250494 -0.00873763 0.999785 
0.0247504 -0.00603652 0.999812 
0.0252398 -0.00416563 0.999807 
0.0254196 -0.00300125 0.999806 
0.0255147 -0.00217278 0.999805 
0.0255187 -0.00157049 0.999805 
0.0255587 -0.00104236 0.999804 
0.0259736 -0.000544799 0.999794 
0.0260475 6.54625e-06 0.999793 
0.0256798 0.000761596 0.999803 
0.0255877 0.00182205 0.999804 
0.0253673 0.00341816 0.999805 
0.0248606 0.00574123 0.999806 
0.024394 0.0090108 0.999793 
0.0234619 0.0133858 0.999764 
0.0236933 0.0183849 0.999678 
0.0220474 0.0259934 0.999547 
0.0213234 0.0346612 0.9993 
0.0204087 0.0456313 0.998883 
0.0191463 0.0615595 0.998059 
0.016497 0.082093 0.996638 
0.0134037 0.114776 0.993464 
0.00936382 0.16067 0.987138 
0.00678023 0.224875 0.974545 
0.00405826 0.307169 0.951818 
0.00215616 0.409681 0.91239 
0.000456062 0.52169 0.853253 
0.000353247 0.66847 0.743848 
-0.000952136 0.831265 0.555797 
-0.0016939 0.9851 0.171115 
-0.00568261 0.998037 -0.0596186 
-0.00309373 0.942856 -0.332765 
-0.00965941 0.957303 -0.2885 
-0.00119719 0.765888 -0.643009 
0.00020217 0.612027 -0.790949 
-0.000850642 0.444602 -0.895898 
-0.00289121 0.332316 -0.943345 
-0.00559296 0.246786 -0.969233 
-0.0100687 0.182982 -0.98323 
-0.0115746 0.139536 -0.990287 
-0.0148789 0.100781 -0.994954 
-0.0170526 0.0746363 -0.997212 
-0.0190671 0.0529994 -0.998552 
-0.0205218 0.0390106 -0.999163 
-0.0217891 0.0287594 -0.99948 
-0.022546 0.0208798 -0.999657 
-0.0236194 0.014791 -0.999742 
-0.0243289 0.0102383 -0.999783 
-0.0250034 0.00675042 -0.999797 
-0.0252357 0.00417657 -0.999806 
-0.0256106 0.00227062 -0.999802 
-0.0249888 0.00105574 -0.99982 
-0.0258575 0.000201027 -0.999798 
-0.0260932 -0.000401 -0.999791 
-0.0252646 -0.000940123 -0.999812 
-0.0255275 -0.00144703 -0.999805 
-0.0252819 -0.00204304 -0.999811 
-0.0252374 -0.002788 -0.999811 
-0.0252002 -0.00386591 -0.999831 
-0.0246476 -0.00550518 -0.999817 
-0.0261597 -0.00797071 -0.999763 
-0.0249378 -0.011566 -0.999761 
-0.0231399 -0.0164953 -0.999738 
-0.0238552 -0.022632 -0.999603 
-0.0214911 -0.0308506 -0.999438 
-0.0216802 -0.0381179 -0.999185 
-0.0184747 -0.0458741 -0.998923 
-0.0153028 -0.052001 -0.998674 
-0.0139645 -0.0458466 -0.999004 
-0.00795791 -0.0464672 -0.998963 
0.00549853 -0.0461166 0.998995 
0.0095585 -0.0471462 0.999018 
0.011936 -0.0530271 0.998667 
0.0130352 -0.0464513 0.998982 
0.0147 -0.0388583 0.999283 
0.015952 -0.0309259 0.999538 
0.0172332 -0.022981 0.999729 
0.0178944 -0.0162426 0.999847 
0.0180814 -0.0114543 0.999908 
0.0183032 -0.00789102 0.999937 
0.0182609 -0.00521381 0.999954 
0.0180584 -0.00359062 0.999963 
0.0182622 -0.00252762 0.999962 
0.0182517 -0.00181502 0.999963 
0.0184474 -0.00127861 0.99996 
0.0181742 -0.000802607 0.999965 
0.0183402 -0.000331823 0.999963 
0.0185702 0.000261633 0.99996 
0.0181426 0.00112775 0.999967 
0.0181925 0.00244476 0.999964 
0.0179376 0.0044336 0.999961 
0.0176041 0.0073449 0.999948 
0.0170411 0.0112733 0.999919 
0.0160849 0.0163883 0.999863 
0.0165126 0.0222461 0.999743 
0.0149351 0.0310454 0.999533 
0.0141271 0.0410917 0.999187 
0.013869 0.0550582 0.998526 
0.0118163 0.0735586 0.99737 
0.0100665 0.102276 0.994866 
0.00662981 0.146832 0.989315 
0.00402369 0.214261 0.976952 
0.00246663 0.295057 0.955658 
0.000822204 0.413435 0.910711 
-0.000691367 0.57356 0.819299 
-0.00190102 0.714218 0.700023 
-0.00304336 0.856782 0.5156 
-0.00109176 0.949237 0.314288 
-0.00442296 0.942887 0.332699 
-0.00628211 0.995904 0.0881183 
0.0019585 0.999529 -0.0257258 
-0.00583264 0.96817 -0.25112 
-0.00508261 0.861546 -0.507552 
-0.00168998 0.691345 -0.722572 
0.000368482 0.511948 -0.859218 
-0.000317285 0.377559 -0.926169 
-0.00191689 0.274981 -0.961636 
-0.00516516 0.191426 -0.981705 
-0.00749238 0.13466 -0.991032 
-0.00993332 0.098185 -0.995276 
-0.0126896 0.0691615 -0.997674 
-0.013239 0.0510979 -0.998742 
-0.0143993 0.0375917 -0.999322 
-0.015398 0.0276596 -0.999628 
-0.0160404 0.0200545 -0.999798 
-0.0166089 0.0143302 -0.999888 
-0.0171702 0.00983504 -0.999935 
-0.0176654 0.00642677 -0.999954 
-0.0182718 0.00376384 -0.999958 
-0.0180715 0.00203701 -0.999967 
-0.0182242 0.000788557 -0.999965 
-0.0183523 6.47931e-05 -0.999963 
-0.0188227 -0.000488322 -0.999954 
-0.0177779 -0.000964191 -0.999972 
-0.0182218 -0.00145561 -0.999963 
-0.0176857 -0.00202593 -0.999973 
-0.0178847 -0.00286221 -0.999968 
-0.0179724 -0.0040551 -0.999941 
-0.0172159 -0.00578195 -0.99997 
-0.0193623 -0.00814933 -0.999916 
-0.0181911 -0.0117582 -0.999904 
-0.0170074 -0.0172289 -0.999847 
-0.0176642 -0.0241579 -0.999695 
-0.0156543 -0.0326939 -0.999486 
-0.0160313 -0.0402217 -0.999208 
-0.0131386 -0.0476835 -0.998922 
-0.0106545 -0.0536058 -0.998648 
-0.00972036 -0.0465426 -0.99902 
-0.00520478 -0.0473869 -0.998937 
0.00350706 -0.0478824 0.99892 
0.00638264 -0.0471805 0.998993 
0.00798457 -0.054207 0.99864 
0.00891259 -0.0492237 0.998889 
0.0100694 -0.0415378 0.999234 
0.0109751 -0.0334385 0.999523 
0.0118688 -0.0252958 0.99975 
0.0125055 -0.0182582 0.999894 
0.0123634 -0.0127323 0.999979 
0.0125294 -0.00875396 1.00002 
0.01285 -0.00585579 1.00003 
0.0121626 -0.00383522 1.00005 
0.0122491 -0.00264555 1.00005 
0.0121555 -0.00188089 1.00005 
0.0122668 -0.00136006 1.00005 
0.0121081 -0.0009368 1.00006 
0.0118739 -0.000503071 1.00006 
0.0121778 2.4185e-05 1.00006 
0.0120412 0.000786608 1.00006 
0.0119799 0.00203201 1.00006 
0.0118705 0.00391597 1.00005 
0.0117743 0.00668732 1.00004 
0.0113408 0.0105504 1.00001 
0.010608 0.0154801 0.99995 
0.0103046 0.0217815 0.999858 
0.0103251 0.0294528 0.999614 
0.00884093 0.0400006 0.999312 
0.00902685 0.0531607 0.998658 
0.00730254 0.0707585 0.997638 
0.00652631 0.0965118 0.995441 
0.00458245 0.13409 0.99113 
0.00253348 0.202261 0.979515 
0.00134987 0.291604 0.956726 
0.000370151 0.405998 0.914054 
-0.00111742 0.666619 0.74552 
0.000540724 0.820014 0.572307 
0.00644412 0.947877 0.318064 
0.00576002 0.993382 0.115335 
0.00539775 0.996207 0.0858368 
0.00411707 0.999487 0.03026 
0.000377792 0.997545 -0.0705563 
-1.10839e-05 0.997437 -0.0724766 
-0.00636381 0.798993 -0.601269 
-0.00239792 0.651437 -0.758828 
0.000233517 0.536083 -0.844277 
0.00057337 0.386547 -0.922443 
-0.000291207 0.288533 -0.957655 
-0.00220489 0.207613 -0.978393 
-0.00402433 0.147454 -0.989234 
-0.0056277 0.103207 -0.994806 
-0.00777881 0.0758199 -0.997214 
-0.00827857 0.0559408 -0.998546 
-0.00892536 0.0415238 -0.999232 
-0.00968236 0.0308104 -0.999607 
-0.0102612 0.0227105 -0.999815 
-0.0106096 0.0163786 -0.999935 
-0.0110011 0.0113715 -1 
-0.0112862 0.00747078 -1.00006 
-0.0121617 0.00458237 -1.00002 
-0.0117135 0.00247799 -1.00008 
-0.0125917 0.00108216 -1.00003 
-0.0119817 0.000179762 -1.00006 
-0.0123801 -0.000381879 -1.00005 
-0.0119207 -0.00082221 -1.00006 
-0.0120391 -0.00128127 -1.00006 
-0.0116987 -0.00178231 -1.00006 
-0.0118581 -0.00255786 -1.00006 
-0.0117706 -0.00372326 -1.00008 
-0.0117654 -0.0056677 -1.00005 
-0.0131403 -0.00865003 -1.00001 
-0.0127846 -0.0129421 -0.999972 
-0.0115315 -0.0185247 -0.999901 
-0.0126242 -0.0249616 -0.99975 
-0.0108822 -0.0330717 -0.999536 
-0.0112415 -0.0410137 -0.99924 
-0.00911702 -0.0487726 -0.998912 
-0.00732112 -0.0548769 -0.998607 
-0.00639567 -0.0470998 -0.999019 
-0.00340935 -0.0467857 -0.998971 
0.00216479 -0.0472185 0.998954 