# vtk DataFile Version 3.0 
Exported using Morpho https://github.com/Morpho-lang/morpho 
ASCII 
DATASET UNSTRUCTURED_GRID 

POINTS 1978 float 
-12 -4 2.11432e-16 
-11.5951 -4 1.55778e-14 
-11.2909 -4 1.47719e-14 
-10.9419 -4 1.18617e-14 
-10.627 -4 8.93451e-15 
-10.2816 -4 6.62447e-15 
-9.9604 -4 4.34707e-15 
-9.64934 -4 3.2523e-15 
-9.31378 -4 2.41883e-15 
-8.99721 -4 1.80377e-15 
-8.68309 -4 1.47109e-15 
-8.36741 -4 1.21213e-15 
-8.0612 -4 1.02089e-15 
-7.76697 -4 8.03549e-16 
-7.48325 -4 7.30388e-16 
-7.19045 -4 5.59041e-16 
-6.89182 -4 4.15803e-16 
-6.59314 -4 2.11008e-16 
-6.2946 -4 -8.76969e-17 
-5.98822 -4 -4.10836e-16 
-5.68746 -4 -8.77956e-16 
-5.3834 -4 -1.47357e-15 
-5.08339 -4 -2.17766e-15 
-4.78857 -4 -3.5064e-15 
-4.45798 -4 -4.72561e-15 
-4.17075 -4 -6.23443e-15 
-3.86658 -4 -8.92505e-15 
-3.54613 -4 -1.13918e-14 
-3.24969 -4 -1.34415e-14 
-2.95439 -4 -1.56663e-14 
-2.6651 -4 -1.67112e-14 
-2.38988 -4 -1.61379e-14 
-2.12566 -4 -1.61362e-14 
-1.83649 -4 -1.41421e-14 
-1.55622 -4 -1.15879e-14 
-1.26118 -4 -1.03635e-14 
-0.980154 -4 -2.96648e-14 
-0.657547 -4 -2.94375e-14 
-0.36832 -4 -8.465e-14 
0.0077904 -4 4.58127e-14 
0.355537 -4 6.13511e-14 
0.661648 -4 3.71232e-14 
0.967874 -4 2.51856e-14 
1.23974 -4 5.56342e-15 
1.51286 -4 4.36964e-15 
1.78274 -4 1.35962e-14 
2.06519 -4 1.79028e-14 
2.35018 -4 2.21441e-14 
2.6768 -4 1.99531e-14 
2.97304 -4 1.76642e-14 
3.29646 -4 1.30973e-14 
3.58371 -4 1.03147e-14 
3.88646 -4 8.44406e-15 
4.19754 -4 6.18494e-15 
4.49612 -4 4.46014e-15 
4.79546 -4 3.2994e-15 
5.10475 -4 2.28336e-15 
5.41068 -4 1.46411e-15 
5.71859 -4 8.10799e-16 
6.012 -4 3.62817e-16 
6.30522 -4 8.91272e-17 
6.60147 -4 -1.84933e-16 
6.90029 -4 -3.89274e-16 
7.17559 -4 -5.85121e-16 
7.47706 -4 -7.41352e-16 
7.77119 -4 -1.02085e-15 
8.0688 -4 -1.13013e-15 
8.35806 -4 -1.37662e-15 
8.65944 -4 -1.4831e-15 
8.93385 -4 -1.85053e-15 
9.27975 -4 -2.49299e-15 
9.6063 -4 -2.95275e-15 
9.89466 -4 -4.61745e-15 
10.2627 -4 -6.66401e-15 
10.5759 -4 -1.01214e-14 
10.9719 -4 -1.30696e-14 
11.2904 -4 -1.37894e-14 
11.5845 -4 -1.56647e-14 
12 -4 -4.15736e-16 
-12 -3.59672 1.06785e-15 
-11.7147 -3.71597 -7.86477e-15 
-11.3618 -3.62569 -6.05938e-15 
-11.0448 -3.67365 -7.04887e-15 
-10.7085 -3.64211 -5.34451e-15 
-10.3905 -3.67647 -4.7823e-15 
-10.0542 -3.66386 -3.67355e-15 
-9.73036 -3.6627 -2.73532e-15 
-9.39996 -3.6857 -2.04341e-15 
-9.06306 -3.66428 -1.36359e-15 
-8.74788 -3.66197 -1.17267e-15 
-8.43185 -3.67032 -9.54864e-16 
-8.11495 -3.6653 -7.08655e-16 
-7.80591 -3.65922 -5.71923e-16 
-7.50575 -3.65184 -4.22858e-16 
-7.20987 -3.66474 -3.16622e-16 
-6.90321 -3.66714 -1.86625e-16 
-6.59433 -3.6596 -2.20247e-17 
-6.28082 -3.67178 2.14313e-16 
-5.97257 -3.66573 4.85988e-16 
-5.66378 -3.66736 8.65146e-16 
-5.35915 -3.66184 1.34029e-15 
-5.06256 -3.65557 1.6892e-15 
-4.7395 -3.69202 2.6221e-15 
-4.44686 -3.65411 3.30944e-15 
-4.14259 -3.67567 4.78797e-15 
-3.82805 -3.69341 6.53009e-15 
-3.52259 -3.68098 8.45588e-15 
-3.22081 -3.68087 1.08298e-14 
-2.92641 -3.67158 1.22762e-14 
-2.64402 -3.65958 1.43394e-14 
-2.37204 -3.65132 1.51287e-14 
-2.08177 -3.67711 1.53057e-14 
-1.78594 -3.67737 1.46594e-14 
-1.49404 -3.68341 7.21746e-15 
-1.2038 -3.65436 -1.67964e-15 
-0.883913 -3.66597 -7.40621e-15 
-0.583666 -3.59478 1.08993e-14 
-0.252049 -3.68899 -3.07391e-14 
0.0227626 -3.53718 -3.01179e-14 
0.303129 -3.63525 3.96586e-14 
0.622277 -3.60247 -1.71462e-14 
0.925663 -3.64923 8.63315e-15 
1.23173 -3.63571 -1.28542e-16 
1.51559 -3.65487 -7.30637e-15 
1.80869 -3.67661 -1.42086e-14 
2.10407 -3.68641 -1.71102e-14 
2.42138 -3.72116 -1.92588e-14 
2.7293 -3.69158 -1.40226e-14 
3.04461 -3.70108 -1.38775e-14 
3.33189 -3.66305 -8.66264e-15 
3.62954 -3.67357 -7.75759e-15 
3.93726 -3.67967 -5.85283e-15 
4.23668 -3.66396 -4.26263e-15 
4.53453 -3.66267 -3.12833e-15 
4.84077 -3.67209 -2.29429e-15 
5.14946 -3.66986 -1.59046e-15 
5.46056 -3.6718 -1.23732e-15 
5.76219 -3.6564 -7.61049e-16 
6.06109 -3.65932 -4.07881e-16 
6.35984 -3.65967 -1.50006e-16 
6.66575 -3.66769 3.896e-17 
6.95152 -3.63912 1.78785e-16 
7.25192 -3.66873 3.81959e-16 
7.5515 -3.65886 4.68432e-16 
7.85408 -3.66232 6.27555e-16 
8.15054 -3.65193 7.58709e-16 
8.44757 -3.66449 1.00401e-15 
8.73466 -3.62904 1.16537e-15 
9.05498 -3.70329 1.60638e-15 
9.3871 -3.68013 1.98042e-15 
9.69214 -3.63174 2.42383e-15 
10.026 -3.70866 4.03774e-15 
10.3544 -3.65286 4.41023e-15 
10.7186 -3.72049 6.93245e-15 
11.0542 -3.64735 6.30337e-15 
11.3584 -3.61469 5.82604e-15 
11.7134 -3.72598 8.05455e-15 
12 -3.59936 -1.01832e-15 
-12 -3.29203 1.71474e-15 
-11.6317 -3.3643 -1.8193e-15 
-11.287 -3.28148 -1.18679e-15 
-10.9735 -3.32778 -2.20079e-15 
-10.6555 -3.29145 -2.01121e-15 
-10.3342 -3.34326 -1.91004e-15 
-10.0088 -3.32842 -1.46319e-15 
-9.69288 -3.31988 -1.23922e-15 
-9.38831 -3.3655 -1.28886e-15 
-9.07956 -3.3222 -9.86864e-16 
-8.77241 -3.31912 -6.19064e-16 
-8.46786 -3.33342 -4.50159e-16 
-8.16151 -3.33444 -3.24066e-16 
-7.85301 -3.3261 -1.99652e-16 
-7.55072 -3.31344 -1.60339e-16 
-7.2503 -3.32324 -1.03521e-16 
-6.9524 -3.33862 -4.93045e-17 
-6.64492 -3.33178 3.6215e-17 
-6.33368 -3.34439 1.47667e-16 
-6.02456 -3.33609 2.87336e-16 
-5.71547 -3.33645 4.69909e-16 
-5.40877 -3.3284 7.12786e-16 
-5.10533 -3.31286 9.90386e-16 
-4.80399 -3.36964 1.24895e-15 
-4.50197 -3.32003 1.60843e-15 
-4.20069 -3.34723 2.1883e-15 
-3.89584 -3.37527 3.0607e-15 
-3.59131 -3.36931 4.0484e-15 
-3.28191 -3.3664 4.40664e-15 
-2.9751 -3.35008 6.60224e-15 
-2.67233 -3.32293 7.49616e-15 
-2.3836 -3.30116 8.52516e-15 
-2.10573 -3.34876 5.87966e-15 
-1.80425 -3.36128 4.19983e-15 
-1.49522 -3.35124 1.41971e-15 
-1.15973 -3.33882 -3.92748e-15 
-0.845587 -3.28824 -6.26429e-15 
-0.572769 -3.13985 9.31987e-15 
-0.30945 -3.30369 -3.04205e-14 
0.0121788 -3.12962 -7.01023e-14 
0.322107 -3.22501 4.81632e-14 
0.600652 -3.17016 1.25633e-14 
0.901891 -3.26703 1.77505e-14 
1.20222 -3.28651 6.77455e-15 
1.51237 -3.3115 3.48135e-16 
1.8046 -3.34758 -4.12273e-15 
2.09752 -3.37014 -5.43048e-15 
2.39202 -3.42427 -8.2821e-15 
2.67498 -3.36933 -7.85993e-15 
2.97493 -3.39822 -6.48695e-15 
3.27736 -3.33291 -4.84187e-15 
3.5756 -3.34414 -3.60253e-15 
3.87634 -3.35502 -2.98324e-15 
4.17771 -3.33345 -2.15271e-15 
4.47819 -3.32621 -1.59622e-15 
4.77807 -3.33999 -1.2414e-15 
5.08177 -3.34277 -1.09235e-15 
5.39217 -3.34578 -7.4837e-16 
5.70048 -3.32554 -4.60106e-16 
6.00993 -3.32004 -2.86358e-16 
6.30839 -3.32075 -1.49322e-16 
6.61238 -3.33824 -3.12838e-17 
6.91309 -3.29214 3.7385e-17 
7.21047 -3.3308 1.02175e-16 
7.51115 -3.32239 1.6376e-16 
7.81394 -3.32886 2.41195e-16 
8.11936 -3.31167 3.19755e-16 
8.41958 -3.31681 4.31838e-16 
8.74247 -3.31005 6.0858e-16 
9.06648 -3.38578 9.37235e-16 
9.37941 -3.3413 1.21313e-15 
9.69246 -3.29001 1.3319e-15 
10.0068 -3.38238 1.88955e-15 
10.3083 -3.30148 1.79884e-15 
10.6323 -3.40254 2.40001e-15 
10.9635 -3.33166 2.12719e-15 
11.2958 -3.25311 8.59154e-16 
11.6312 -3.37396 1.94906e-15 
12 -3.28789 -1.86813e-15 
-12 -2.96389 1.56228e-15 
-11.6609 -3.04806 -6.08266e-16 
-11.3169 -2.96316 9.34956e-16 
-10.9684 -2.97339 -2.32747e-16 
-10.627 -2.96381 -4.189e-16 
-10.2971 -3.00565 -6.24925e-16 
-9.97424 -2.99013 -6.43093e-16 
-9.65728 -2.97906 -9.44206e-16 
-9.35457 -3.02091 -7.04785e-16 
-9.04531 -2.97929 -4.16574e-16 
-8.74001 -2.97545 -3.2034e-16 
-8.4377 -2.99345 -2.63579e-16 
-8.12992 -3.00038 -1.52071e-16 
-7.82908 -2.98782 -1.02738e-16 
-7.52489 -2.97937 -4.69319e-17 
-7.22514 -2.98821 -2.09213e-17 
-6.92106 -3.01076 2.11642e-17 
-6.61114 -3.00701 6.09575e-17 
-6.30625 -3.01452 1.2699e-16 
-5.99882 -3.00687 2.16519e-16 
-5.69438 -3.00426 3.26893e-16 
-5.39084 -2.99465 4.68178e-16 
-5.08928 -2.97965 5.72202e-16 
-4.79112 -3.03659 8.77039e-16 
-4.4921 -2.98754 9.64816e-16 
-4.19702 -3.02002 1.21859e-15 
-3.89887 -3.05276 1.52665e-15 
-3.59273 -3.05129 1.8492e-15 
-3.28866 -3.05136 2.94319e-15 
-2.97619 -3.03063 2.70824e-15 
-2.68603 -2.98212 2.42691e-15 
-2.38359 -2.9691 6.73121e-16 
-2.08032 -2.99037 4.80902e-15 
-1.8006 -3.03504 -1.1815e-15 
-1.46921 -3.04082 -3.65345e-15 
-1.14209 -2.99465 -1.21957e-14 
-0.867973 -2.85856 -1.39206e-14 
-0.545457 -2.74095 -4.75692e-14 
-0.220304 -2.87681 1.20071e-13 
-0.00893469 -2.53245 -1.19116e-13 
0.238055 -2.78078 7.70028e-14 
0.496182 -2.68741 2.47144e-14 
0.808041 -2.85844 -7.0607e-15 
1.12814 -2.90363 -3.21108e-16 
1.44704 -2.9708 -5.38063e-15 
1.7685 -2.99699 -4.41644e-15 
2.07038 -3.03342 -3.24453e-15 
2.3665 -3.09231 -5.21087e-15 
2.66884 -3.04232 -3.3233e-15 
2.9633 -3.07685 -2.28968e-15 
3.26053 -3.0106 -2.11057e-15 
3.56778 -3.01809 -1.57831e-15 
3.87186 -3.02577 -1.39864e-15 
4.17121 -3.00324 -1.23747e-15 
4.47328 -2.99812 -8.7323e-16 
4.77562 -3.00617 -6.88105e-16 
5.07446 -3.01057 -5.47556e-16 
5.37518 -3.01984 -3.90767e-16 
5.67946 -2.99562 -3.00726e-16 
5.98528 -2.99618 -1.90623e-16 
6.29781 -2.97876 -1.18993e-16 
6.59432 -3.00538 -3.71937e-17 
6.91532 -2.97634 -2.20868e-18 
7.23228 -2.99417 2.6748e-17 
7.53279 -2.98642 6.23633e-17 
7.83761 -2.9966 1.08906e-16 
8.13528 -2.97182 1.48704e-16 
8.44665 -2.99558 2.25719e-16 
8.74731 -2.96673 2.98484e-16 
9.0471 -3.05827 4.63138e-16 
9.35732 -3.00879 6.01308e-16 
9.65655 -2.94492 5.42781e-16 
9.97894 -3.0319 6.58164e-16 
10.3155 -2.97603 4.38595e-16 
10.6502 -3.06695 1.17434e-15 
10.9841 -2.99181 3.45063e-16 
11.3368 -2.93044 -1.02513e-15 
11.6692 -3.05319 6.50043e-16 
12 -2.945 -1.97714e-15 
-12 -2.65085 1.78336e-15 
-11.6487 -2.71986 2.30909e-16 
-11.3082 -2.63593 1.25357e-15 
-10.9695 -2.65073 1.28474e-16 
-10.6342 -2.63678 -6.58571e-17 
-10.2987 -2.67142 -1.74753e-16 
-9.97183 -2.65857 -5.97851e-16 
-9.64042 -2.65996 -4.72252e-16 
-9.31168 -2.6778 -3.42655e-16 
-8.9954 -2.64112 -3.1481e-16 
-8.68588 -2.63779 -2.16166e-16 
-8.37484 -2.66544 -1.43852e-16 
-8.07116 -2.66161 -1.11515e-16 
-7.76079 -2.65835 -6.73014e-17 
-7.45193 -2.64967 -3.9907e-17 
-7.14362 -2.66632 -1.08392e-17 
-6.8389 -2.68626 1.20232e-17 
-6.53004 -2.6785 4.66907e-17 
-6.22628 -2.68446 9.85788e-17 
-5.92078 -2.67514 1.7611e-16 
[...]
POINT_DATA 1978 
VECTORS vectors float
2.57237e-05 -6.23309e-05 1 
-6.42045e-06 -0.0541387 0.998533 
-5.2256e-05 -0.0528261 0.998604 
3.80144e-05 -0.0428186 0.999083 
-7.64823e-07 -0.0327802 0.999463 
-1.0646e-05 -0.0225074 0.999747 
3.10758e-05 -0.0154502 0.999881 
1.11234e-06 -0.0108305 0.999941 
7.61356e-07 -0.00755299 0.999971 
2.06879e-05 -0.0057105 0.999984 
8.50394e-06 -0.00452774 0.99999 
1.3669e-05 -0.0036702 0.999993 
2.14571e-05 -0.00306153 0.999995 
4.12715e-05 -0.00257667 0.999997 
3.9261e-05 -0.00218923 0.999998 
2.42981e-05 -0.00171269 0.999999 
2.38893e-05 -0.00117811 0.999999 
2.62375e-05 -0.000514853 1 
2.26068e-05 0.000330546 1 
1.68671e-05 0.00144511 0.999999 
2.64229e-05 0.00289374 0.999996 
1.37195e-05 0.0048793 0.999988 
4.0524e-05 0.00748019 0.999972 
6.96509e-06 0.0108572 0.999941 
1.81929e-06 0.0162249 0.999868 
5.67658e-05 0.0221703 0.999754 
-5.36406e-06 0.0306902 0.999529 
1.41599e-05 0.0433249 0.999061 
3.34491e-05 0.0590166 0.998257 
2.16763e-05 0.0808276 0.996728 
2.93129e-05 0.110223 0.993907 
5.76264e-05 0.148432 0.988923 
2.74143e-05 0.197654 0.980272 
1.52119e-05 0.271312 0.962491 
1.9298e-05 0.362066 0.932152 
-7.04706e-06 0.485063 0.874479 
1.07912e-05 0.623853 0.781541 
-2.82908e-05 0.79387 0.608088 
2.43696e-06 0.926304 0.376776 
-6.96343e-06 0.999981 -0.00610194 
1.2998e-05 0.929565 -0.368658 
1.39426e-05 0.787913 -0.615786 
5.48998e-06 0.624353 -0.781142 
-1.01677e-05 0.49179 -0.870714 
-1.69491e-05 0.378793 -0.925481 
-2.01608e-05 0.284894 -0.958559 
-3.42564e-05 0.21056 -0.977581 
-1.20999e-05 0.155106 -0.987898 
-4.22783e-06 0.109287 -0.99401 
-2.37577e-05 0.0793867 -0.996844 
-2.09815e-06 0.0563094 -0.998413 
-5.02326e-05 0.0415777 -0.999135 
-2.88391e-06 0.0303219 -0.99954 
-1.84023e-05 0.0217027 -0.999764 
-3.19989e-05 0.015544 -0.999879 
-1.76806e-05 0.0109452 -0.99994 
-1.54474e-05 0.00734166 -0.999973 
-1.74187e-05 0.00467061 -0.999989 
-1.93955e-05 0.00268316 -0.999996 
-3.75041e-05 0.00134544 -0.999999 
-2.96904e-05 0.000396801 -1 
-1.55278e-05 -0.000480846 -1 
-4.31296e-05 -0.00120127 -0.999999 
-4.56213e-05 -0.00164013 -0.999999 
-1.20037e-05 -0.00225413 -0.999997 
-3.08361e-05 -0.00293895 -0.999996 
-3.41212e-05 -0.00353979 -0.999994 
-1.76584e-05 -0.00417562 -0.999991 
-4.89678e-05 -0.00480965 -0.999988 
-3.54833e-05 -0.00550436 -0.999985 
4.5783e-05 -0.00743222 -0.999972 
-5.96251e-05 -0.0105104 -0.999945 
1.80254e-06 -0.0144178 -0.999896 
4.36579e-06 -0.0222138 -0.999753 
-3.68461e-07 -0.0309647 -0.99952 
1.20138e-05 -0.0440047 -0.999031 
-7.6382e-06 -0.0529369 -0.998598 
3.08305e-05 -0.054138 -0.998533 
-2.04381e-05 -6.24625e-05 -1 
-8.80948e-05 8.67874e-05 1 
0.0218631 -0.0403043 0.998948 
0.0274912 -0.0483553 0.998452 
0.0272877 -0.0437999 0.998668 
0.0289963 -0.0345606 0.998982 
0.0289437 -0.0260391 0.999242 
0.0306042 -0.0183934 0.999362 
0.0317045 -0.0128606 0.999415 
0.031636 -0.00897104 0.999459 
0.0328057 -0.00645406 0.999441 
0.0331673 -0.00488758 0.999438 
0.0334643 -0.00386179 0.999432 
0.0339945 -0.00313795 0.999417 
0.0346574 -0.00254667 0.999396 
0.0351827 -0.00203547 0.999379 
0.0344865 -0.00153816 0.999404 
0.0340278 -0.000960312 0.99942 
0.0343802 -0.00027326 0.999409 
0.0339529 0.000595864 0.999423 
0.0341247 0.00175987 0.999416 
0.0338334 0.00333725 0.999422 
0.0338615 0.00546288 0.999412 
0.0337172 0.00823751 0.999397 
0.0318048 0.0122538 0.999419 
0.0330914 0.0173485 0.999302 
0.0313886 0.024077 0.999217 
0.0296777 0.0335789 0.998995 
0.029114 0.0464055 0.998498 
0.0273015 0.0636395 0.997599 
0.0252746 0.0874515 0.995848 
0.0228994 0.118692 0.992667 
0.0197245 0.159793 0.986954 
0.0151283 0.21725 0.975999 
0.0108341 0.294981 0.955442 
0.00614005 0.393946 0.919113 
0.00174929 0.515724 0.856753 
-0.00173925 0.669261 0.743026 
-0.00313477 0.823893 0.566737 
-0.00209409 0.956626 0.291313 
-7.08857e-06 0.999919 -0.0127402 
0.00257986 0.947823 -0.318788 
0.00331641 0.810669 -0.585495 
0.00159697 0.649424 -0.760425 
-0.00235889 0.498558 -0.866853 
-0.00691549 0.377015 -0.926181 
-0.0116598 0.280044 -0.959916 
-0.0161008 0.206786 -0.978254 
-0.0195244 0.147673 -0.988844 
-0.0231827 0.107498 -0.993935 
-0.0254013 0.0773464 -0.996681 
-0.0283026 0.0569104 -0.997978 
-0.0294303 0.0416336 -0.998699 
-0.0304575 0.0301274 -0.999082 
-0.0319404 0.0218748 -0.99925 
-0.0325873 0.01566 -0.999346 
-0.0326989 0.0108454 -0.999406 
-0.0332872 0.00725249 -0.99942 
-0.0335755 0.00459353 -0.999426 
-0.034594 0.00272446 -0.999398 
-0.0347304 0.00138488 -0.999396 
-0.0346967 0.000372982 -0.999398 
-0.0348021 -0.000462386 -0.999394 
-0.0359791 -0.00106668 -0.999352 
-0.0345889 -0.00165156 -0.9994 
-0.0349419 -0.0022554 -0.999387 
-0.0348091 -0.00288497 -0.99939 
-0.0351426 -0.00351335 -0.999376 
-0.0345714 -0.00425055 -0.999393 
-0.0355033 -0.00509848 -0.999357 
-0.0319698 -0.00646475 -0.999468 
-0.0320996 -0.00894701 -0.999445 
-0.0329818 -0.0124686 -0.999378 
-0.0292057 -0.0176871 -0.999417 
-0.0297706 -0.024983 -0.999244 
-0.0264921 -0.034842 -0.999042 
-0.0281109 -0.0437613 -0.998646 
-0.0277354 -0.048103 -0.998457 
-0.021664 -0.0405481 -0.998943 
0.000105214 0.000100884 -1 
-2.95788e-05 -4.17288e-05 1 
0.0262676 -0.0413382 0.9988 
0.0303791 -0.0464816 0.998457 
0.0323823 -0.0412989 0.998622 
0.0335384 -0.0334135 0.998879 
0.0352338 -0.025839 0.999045 
0.0366848 -0.0189549 0.999147 
0.0381517 -0.0134684 0.999181 
0.0388369 -0.00942136 0.999201 
0.0399005 -0.0068718 0.99918 
0.0406162 -0.00522738 0.999161 
0.0407354 -0.00401314 0.999162 
0.0409732 -0.00317187 0.999155 
0.0410939 -0.00252604 0.999152 
0.0412236 -0.00194885 0.999148 
0.0412244 -0.00143122 0.999149 
0.0413088 -0.000897723 0.999146 
0.0413191 -0.000247954 0.999146 
0.0411629 0.00056816 0.999152 
0.0409711 0.00167368 0.999159 
0.0406141 0.00319633 0.99917 
0.0401921 0.00528289 0.999178 
0.0395905 0.00812483 0.999183 
0.0390912 0.0118685 0.999165 
0.0382823 0.0169718 0.999123 
0.037374 0.0237208 0.99902 
0.0362116 0.0327366 0.998808 
0.0342977 0.0447369 0.99841 
0.0319954 0.0623245 0.997543 
0.0292638 0.0856527 0.995895 
0.0254473 0.117906 0.992699 
0.021203 0.160643 0.986785 
0.0170161 0.218207 0.975754 
0.0119513 0.295771 0.955184 
0.00632896 0.397798 0.917451 
0.00140582 0.534033 0.845462 
-0.00174501 0.68901 0.724749 
-0.00211505 0.831917 0.554897 
-0.0020419 0.949567 0.313557 
0.000345554 0.999885 -0.0151862 
0.0017232 0.945878 -0.324518 
0.002075 0.826445 -0.563013 
0.00125536 0.672511 -0.740086 
-0.00191325 0.52247 -0.852656 
-0.00677166 0.392309 -0.919809 
-0.0120676 0.293263 -0.955956 
-0.0171972 0.218103 -0.975774 
-0.0222709 0.159557 -0.986937 
-0.0259933 0.117252 -0.992762 
-0.0292914 0.0853753 -0.995918 
-0.0317166 0.0635666 -0.997473 
-0.0338867 0.0464307 -0.998347 
-0.0357621 0.0339492 -0.998784 
-0.0370022 0.024657 -0.999011 
-0.0379382 0.0176337 -0.999124 
-0.0389724 0.012399 -0.999163 
-0.0397771 0.00842934 -0.999173 
-0.0403294 0.00546175 -0.999172 
-0.040751 0.00334184 -0.999164 
-0.0410631 0.00178746 -0.999155 
-0.0412583 0.000704565 -0.999148 
-0.0414275 -0.000131048 -0.999142 
-0.0413046 -0.000774504 -0.999146 
-0.0415425 -0.00139023 -0.999136 
-0.0414721 -0.00195785 -0.999138 
-0.0414393 -0.00256428 -0.999138 
-0.0413086 -0.0032329 -0.999141 
-0.0409303 -0.004058 -0.999154 
-0.040881 -0.00528846 -0.99915 
-0.0400333 -0.00698805 -0.999174 
-0.039349 -0.0096289 -0.999179 
-0.0382617 -0.0135105 -0.999176 
-0.0367595 -0.0183914 -0.999155 
-0.0355099 -0.0251976 -0.999052 
-0.0338339 -0.0328206 -0.998888 
-0.0323968 -0.0409903 -0.998634 
-0.0299918 -0.0463747 -0.998474 
-0.0262359 -0.0410653 -0.998812 
3.00014e-05 -2.72261e-05 -1 
-2.80291e-05 0.00011051 1 
0.0223531 -0.0395419 0.998968 
0.0259738 -0.0468331 0.998565 
0.0282841 -0.0414941 0.998738 
0.0300524 -0.0340178 0.998969 
0.0322886 -0.0262781 0.999133 
0.0336698 -0.0193548 0.999246 
0.0350343 -0.0136633 0.999293 
0.0366687 -0.00980095 0.999279 
0.0367599 -0.00715268 0.999299 
0.0370505 -0.00523118 0.9993 
0.0377859 -0.00390825 0.999278 
0.0379646 -0.00299016 0.999275 
0.037979 -0.00231017 0.999276 
0.0377462 -0.00173666 0.999286 
0.0381705 -0.00123121 0.99927 
0.0385338 -0.00069848 0.999257 
0.0383377 -3.96379e-05 0.999265 
0.0382137 0.000779039 0.999269 
0.0379368 0.00191533 0.999278 
0.0375836 0.00350205 0.999287 
0.0370393 0.00573389 0.999297 
0.0362851 0.00883379 0.999302 
0.0362107 0.0126882 0.999264 
0.0347324 0.0183628 0.999228 
0.033877 0.0252818 0.999106 
0.0329263 0.0343146 0.998869 
0.0311707 0.0471653 0.998401 
0.0288263 0.0638922 0.99754 
0.0253646 0.0891069 0.995699 
0.021361 0.122395 0.992252 
0.0173433 0.168927 0.985476 
0.0137223 0.227701 0.973634 
0.00944881 0.304993 0.952308 
0.00475755 0.414867 0.90987 
0.000988684 0.557933 0.829886 
-0.000291496 0.689134 0.724634 
4.44994e-05 0.847767 0.530369 
0.000267732 0.964651 0.263531 
0.00198077 0.999998 -0.00103165 
0.00199742 0.958562 -0.284878 
0.00212581 0.853216 -0.521553 
0.00127058 0.694058 -0.719918 
-0.000807809 0.539905 -0.841725 
-0.0047653 0.408273 -0.912848 
-0.00920746 0.30398 -0.952634 
-0.0138055 0.226032 -0.974022 
-0.0191391 0.166359 -0.985879 
-0.0223454 0.123305 -0.992117 
-0.0256015 0.0905845 -0.99556 
-0.0276572 0.0673378 -0.997347 
-0.0300503 0.0491771 -0.998338 
-0.0320781 0.0356927 -0.998848 
-0.0333853 0.0261797 -0.9991 
-0.0346868 0.0189858 -0.999218 
-0.0358432 0.0133499 -0.999268 
-0.0367324 0.0091425 -0.999283 
-0.0373928 0.00599858 -0.999283 
-0.0375228 0.00369719 -0.999289 
-0.0378001 0.00204728 -0.999283 
-0.0378165 0.00087257 -0.999284 
-0.0380909 6.03853e-05 -0.999274 
-0.03797 -0.000637131 -0.999279 
-0.0380996 -0.00125048 -0.999273 
-0.0381798 -0.00180537 -0.999269 
-0.0383205 -0.0024189 -0.999263 
-0.0380178 -0.00313455 -0.999272 
-0.0380915 -0.00411722 -0.999266 
-0.0373532 -0.00545387 -0.999287 
-0.0381077 -0.0072797 -0.999247 
-0.0364611 -0.0101073 -0.999284 
-0.0344807 -0.0142056 -0.999304 
-0.0343337 -0.0195774 -0.999219 
-0.0319482 -0.0269044 -0.999127 
-0.0316153 -0.0339982 -0.998922 
-0.0285546 -0.0416824 -0.998723 
-0.0252964 -0.0468844 -0.99858 
-0.0221204 -0.0389088 -0.998998 
6.03171e-05 9.34288e-05 -1 
-6.98026e-05 5.19416e-05 1 
0.0177121 -0.0401457 0.999037 
0.020832 -0.0482249 0.998619 
0.0231229 -0.0424431 0.998831 
0.0249624 -0.0356043 0.999054 
0.0270901 -0.0276455 0.999251 
0.028593 -0.0204051 0.999383 
0.0299379 -0.0145688 0.999446 
0.0309116 -0.0101511 0.999471 
0.0310337 -0.00719718 0.999492 
0.0311871 -0.00511562 0.9995 
0.0320485 -0.00370838 0.999479 
0.0320795 -0.00273404 0.999482 
0.0321096 -0.00202362 0.999482 
0.0319304 -0.00144596 0.999489 
0.0324415 -0.000937685 0.999473 
0.0328537 -0.000390204 0.99946 
0.0324426 0.000295326 0.999474 
0.0323694 0.00118958 0.999475 
0.0320648 0.0024695 0.999483 
0.0317091 0.0043237 0.999488 
0.0310367 0.00693782 0.999494 
0.030345 0.0106271 0.999483 
0.0303588 0.0149408 0.999427 
0.0286609 0.0214503 0.999359 
0.0279909 0.0292244 0.999181 
0.0270906 0.0391619 0.998866 
0.0251564 0.0528303 0.998287 
0.0231156 0.0723543 0.997111 
0.0194454 0.0986776 0.994929 
0.0156797 0.137196 0.99042 
0.012148 0.185449 0.982579 
0.0090395 0.249102 0.968435 
0.00580155 0.335551 0.942004 
0.00236422 0.460723 0.887541 
0.00081398 0.579207 0.81518 
0.000885248 0.733428 0.679767 
0.000471981 0.856523 0.516109 
0.00162933 0.940347 0.340214 
-0.000468788 0.998051 0.0624048 
0.000167677 0.964752 -0.263159 
9.71873e-05 0.842629 -0.538495 
0.0012567 0.70382 -0.710377 
-0.000205516 0.542192 -0.840255 
-0.00299918 0.406823 -0.913502 
-0.00650325 0.303597 -0.952778 
-0.0103664 0.227476 -0.973729 
-0.0152217 0.165837 -0.986036 
-0.0172288 0.123679 -0.992173 
-0.0208358 0.0905197 -0.995677 
-0.0226651 0.0656245 -0.997587 
-0.0251426 0.0478447 -0.998538 
-0.026876 0.0352611 -0.999017 
-0.0280229 0.025684 -0.999277 
-0.0290994 0.0185079 -0.999405 
-0.0302856 0.0130367 -0.999456 
-0.031107 0.00890289 -0.999476 
-0.0317376 0.00579506 -0.999479 
-0.0317084 0.00350796 -0.999491 
-0.0321466 0.00188193 -0.999481 
-0.0317051 0.000810442 -0.999497 
-0.0326119 1.36557e-05 -0.999468 
-0.0322251 -0.000632545 -0.99948 
-0.0322318 -0.0011622 -0.99948 
-0.0322665 -0.00170757 -0.999478 
-0.0322887 -0.00231428 -0.999476 
-0.0321479 -0.00309711 -0.999478 
-0.0322273 -0.00415209 -0.999472 
-0.0312486 -0.00565283 -0.999496 
-0.0326156 -0.00765262 -0.999439 
-0.0308032 -0.0107003 -0.999468 
-0.0289716 -0.0153164 -0.999463 
-0.0292244 -0.0209458 -0.999353 
-0.0267093 -0.0284265 -0.999239 
-0.0264867 -0.0355347 -0.999017 
-0.0232466 -0.0432359 -0.998794 
-0.0198736 -0.0479737 -0.998651 
-0.0171341 -0.0392474 -0.999083 
5.37743e-05 3.03154e-05 -1 
-5.81355e-05 8.71335e-05 1 
0.0116906 -0.0368826 0.999251 
0.0153529 -0.0487277 0.998694 
0.0174174 -0.0460019 0.998789 
0.0190538 -0.0393575 0.999044 
0.0209782 -0.031649 0.999279 
0.0224788 -0.024166 0.999455 
0.0234467 -0.0174976 0.999572 
0.0243947 -0.0123345 0.999626 
0.0246056 -0.00873737 0.999659 
0.0243663 -0.00605282 0.999685 
0.0248474 -0.0041842 0.999682 
0.0250347 -0.00300971 0.999682 
0.0251206 -0.00217548 0.999682 
0.0251481 -0.00156487 0.999683 
0.0251489 -0.00103442 0.999683 
0.025571 -0.000535721 0.999673 
0.0256321 2.57521e-05 0.999671 
0.0252935 0.00079574 0.99968 
0.0251779 0.00187125 0.999681 
0.0249638 0.00348084 0.999682 
0.0244486 0.00579351 0.999684 
0.0240098 0.00905231 0.999671 
0.0231249 0.0133815 0.999643 
0.0232586 0.0183901 0.99956 
0.0216904 0.0258464 0.999431 
0.0210659 0.0345889 0.99918 
0.0200317 0.0455383 0.998762 
0.0187921 0.0616384 0.997922 
0.016223 0.0823735 0.996469 
0.0130167 0.115671 0.993202 
0.0093031 0.161304 0.986861 
0.00661224 0.224594 0.97443 
0.00413057 0.306272 0.951935 
0.00224909 0.405668 0.914018 
0.000519498 0.522009 0.85294 
2.98824e-05 0.674903 0.737906 
-0.00102838 0.832581 0.553902 
-0.00166624 0.983233 0.182349 
-0.00531012 0.998084 -0.0616458 
-0.00344116 0.947407 -0.320013 
-0.00929988 0.959144 -0.282765 
-0.0016971 0.776907 -0.629613 
-3.05067e-05 0.611581 -0.791182 
-0.000856843 0.446758 -0.894654 
-0.00296062 0.332007 -0.943272 
-0.0055645 0.245791 -0.969307 
-0.00988251 0.182284 -0.983196 
-0.0113175 0.139613 -0.990141 
-0.0146068 0.100776 -0.994802 
-0.0168034 0.0744536 -0.997083 
-0.0187402 0.0528896 -0.998425 
-0.0201902 0.0389685 -0.999036 
-0.021414 0.0287163 -0.999358 
-0.0222373 0.0208322 -0.999536 
-0.0232116 0.0147886 -0.999621 
-0.0239332 0.0102503 -0.999661 
-0.0246082 0.00679037 -0.999674 
-0.0248258 0.00423129 -0.999683 
-0.0251807 0.00232546 -0.99968 
-0.0246358 0.00110051 -0.999696 
-0.0254577 0.000222022 -0.999676 
-0.0256789 -0.000389094 -0.99967 
-0.0248947 -0.000933295 -0.99969 
-0.0251668 -0.00144371 -0.999682 
-0.0248964 -0.00204397 -0.999688 
-0.0248583 -0.00279975 -0.999687 
-0.0249197 -0.00390466 -0.999682 
-0.0241796 -0.00550515 -0.999692 
-0.025675 -0.00796562 -0.999639 
-0.02449 -0.0115534 -0.999633 
-0.022717 -0.0164293 -0.999607 
-0.0233982 -0.0224114 -0.999475 
-0.0210865 -0.0303093 -0.999318 
-0.0212415 -0.0373911 -0.999075 
-0.0181352 -0.0448645 -0.998828 
-0.0149811 -0.0494105 -0.998666 
-0.0129291 -0.0409912 -0.999076 
2.61886e-05 5.22825e-05 -1 
-8.77276e-06 5.83417e-05 1 
0.00900009 -0.0424054 0.99906 
0.0117808 -0.0503601 0.998662 
0.0129507 -0.0455264 0.998879 
0.0145502 -0.0381018 0.999168 
0.0158173 -0.0303897 0.999413 
0.0170461 -0.022778 0.999595 
0.0177143 -0.0161996 0.999712 
0.0179194 -0.0114615 0.999774 
0.0181404 -0.00791251 0.999804 
0.0181096 -0.00524917 0.999822 
0.0179354 -0.00361788 0.999833 
0.0181478 -0.00254313 0.999832 
0.0181435 -0.00181801 0.999834 
0.0183047 -0.00127405 0.999832 
0.0180835 -0.000793843 0.999836 
0.0182107 -0.000315497 0.999834 
0.0184391 0.000293604 0.99983 
0.018021 0.00117804 0.999837 
0.0180589 0.00251217 0.999834 
0.0177786 0.00450189 0.999832 
0.0174835 0.00740407 0.99982 
0.0169079 0.0113013 0.999793 
0.0160202 0.0163538 0.999738 
0.0162943 0.0222499 0.99962 
0.0149447 0.0310054 0.999407 
0.0140385 0.04104 0.999059 
0.0137666 0.0550069 0.998391 
0.0117156 0.0736932 0.997212 
0.00997464 0.102121 0.994722 
0.00658742 0.147027 0.989111 
0.00413471 0.212776 0.977092 
0.00244484 0.296851 0.954921 
0.000808378 0.412998 0.910732 
-0.000719285 0.568803 0.822473 
-0.00184439 0.712837 0.701327 
-0.00338254 0.862178 0.506594 
-0.00371952 0.960746 0.277405 
-0.00371816 0.948487 0.316794 
-0.00706663 0.99665 0.0814784 
0.00234093 0.997888 0.0649194 
-0.00568433 0.973936 -0.22675 
-0.00559021 0.853741 -0.520668 
-0.00166772 0.685828 -0.727762 
0.000302699 0.512262 -0.858829 
-0.000416828 0.375745 -0.926723 
-0.00199305 0.275126 -0.961406 
-0.00513381 0.192188 -0.981345 
-0.00749888 0.134591 -0.990873 
-0.00984862 0.0982492 -0.995113 
-0.0125327 0.0694765 -0.997505 
-0.0131698 0.0510041 -0.998612 
-0.0142898 0.0376096 -0.99919 
-0.0153003 0.0276514 -0.999501 
-0.0159345 0.0200752 -0.999671 
-0.0164978 0.0143399 -0.999761 
-0.0170236 0.00987762 -0.999806 
-0.0175376 0.00649169 -0.999825 
-0.0181298 0.00383811 -0.999828 
-0.0179152 0.00210289 -0.999837 
-0.0181434 0.00083158 -0.999835 
-0.0182357 8.78528e-05 -0.999834 
-0.0186669 -0.000476427 -0.999826 
-0.0176804 -0.000958216 -0.999843 
-0.0181296 -0.00145524 -0.999835 
-0.0175758 -0.0020357 -0.999843 
-0.0178085 -0.00287914 -0.999837 
-0.017839 -0.00408242 -0.999833 
-0.0171012 -0.0058185 -0.999837 
-0.0191849 -0.0081671 -0.999783 
-0.0180299 -0.011756 -0.999768 
-0.0168698 -0.0171719 -0.99971 
-0.0174794 -0.0239117 -0.999561 
-0.015529 -0.0321149 -0.999364 
-0.0158299 -0.0394312 -0.999097 
-0.0130205 -0.0465512 -0.998831 
-0.0105317 -0.0508779 -0.998649 
-0.00906628 -0.0415596 -0.999095 
2.38408e-05 2.51945e-05 -1 
-2.92363e-05 3.22474e-05 1 
0.00594637 -0.041872 0.999105 
0.00791943 -0.0514419 0.998645 
0.00887326 -0.0479807 0.998809 
0.0100333 -0.0407696 0.999118 
0.0109242 -0.0328331 0.999401 
0.0117976 -0.0249816 0.999618 
0.0124448 -0.0181485 0.999758 
0.0123367 -0.0127264 0.999843 
0.0124997 -0.00876949 0.999883 
0.012822 -0.0058906 0.9999 
0.0121748 -0.00387433 0.999918 
0.0122668 -0.00266507 0.999921 
0.012182 -0.00188794 0.999924 
0.0122869 -0.00135767 0.999924 
0.0121586 -0.000925081 0.999926 
0.0119072 -0.000483888 0.999929 
0.0121955 5.91473e-05 0.999926 
0.012061 0.000840967 0.999927 
0.0119999 0.00210651 0.999926 
0.0118617 0.00399298 0.999922 
0.0117926 0.00675481 0.999908 
0.0113477 0.0105733 0.99988 
0.0106366 0.0154712 0.999824 
0.010364 0.0217496 0.99971 
0.0103359 0.0293917 0.999515 
0.00887677 0.0398986 0.999164 
0.00903951 0.0530311 0.998552 
0.00742466 0.0706188 0.997476 
0.00650683 0.0962561 0.995335 
0.00461453 0.134048 0.990964 
0.00260355 0.201157 0.979555 
0.00133302 0.290231 0.956956 
0.00026537 0.403667 0.914906 
-0.000929697 0.662646 0.748932 
-0.00030995 0.816431 0.577443 
0.00574805 0.942153 0.335133 
0.00622509 0.994258 0.106824 
0.00650077 0.997261 0.0736766 
0.00415384 0.999943 0.00983982 
0.000446867 0.997856 -0.0654388 
0.000620252 0.997576 -0.06958 
-0.00579603 0.819196 -0.573484 
-0.00320631 0.658008 -0.753004 
-0.000171635 0.535849 -0.844314 
0.000370992 0.385987 -0.922504 
-0.000415928 0.287631 -0.957741 
-0.00231486 0.20624 -0.978499 
-0.00411619 0.146817 -0.989155 
-0.00563346 0.103156 -0.994649 
-0.0077953 0.0757057 -0.9971 
-0.00828341 0.0560799 -0.998392 
-0.00897991 0.0413561 -0.999104 
-0.00973669 0.0306599 -0.999482 
-0.0102878 0.0226243 -0.999691 
-0.0106461 0.0163465 -0.99981 
-0.0110157 0.0113863 -0.999874 
-0.0112982 0.0075166 -0.999908 
-0.0121647 0.0046442 -0.999915 
-0.0117511 0.00255323 -0.999928 
-0.0125857 0.00113449 -0.99992 
-0.0119847 0.000210253 -0.999928 
-0.0124107 -0.00036273 -0.999923 
-0.0119717 -0.000811624 -0.999928 
-0.0120796 -0.0012797 -0.999926 
-0.0117266 -0.00179093 -0.99993 
-0.0119046 -0.00258181 -0.999926 
-0.0117855 -0.00375913 -0.999923 
-0.0117668 -0.00570915 -0.999914 
-0.0130893 -0.00867506 -0.999877 
-0.0127306 -0.0129373 -0.999835 
-0.011502 -0.0184419 -0.999764 
-0.0125483 -0.0247013 -0.999616 
-0.0108352 -0.0324996 -0.999413 
-0.0111891 -0.0401859 -0.99913 
-0.00910618 -0.0476559 -0.998822 