# vtk DataFile Version 3.0 
Exported using Morpho https://github.com/Morpho-lang/morpho 
ASCII 
DATASET UNSTRUCTURED_GRID 

POINTS 1978 float 
-12 -4 -8.44341e-16 
-11.6484 -4 1.23882e-14 
-11.3514 -4 1.31902e-14 
-10.9907 -4 1.09809e-14 
-10.6683 -4 7.76993e-15 
-10.3155 -4 5.80615e-15 
-10.0031 -4 3.98116e-15 
-9.66617 -4 3.09439e-15 
-9.33276 -4 1.92608e-15 
-9.01833 -4 1.06148e-15 
-8.70849 -4 5.08594e-16 
-8.39319 -4 1.34083e-16 
-8.08884 -4 3.68661e-17 
-7.78159 -4 -2.3199e-17 
-7.47279 -4 -5.84989e-17 
-7.17653 -4 -4.89941e-17 
-6.88418 -4 -2.90836e-17 
-6.59547 -4 -3.83098e-17 
-6.30094 -4 -1.60208e-16 
-5.99788 -4 -4.39512e-16 
-5.69844 -4 -7.868e-16 
-5.41076 -4 -1.21905e-15 
-5.12646 -4 -1.91791e-15 
-4.82917 -4 -2.96388e-15 
-4.52974 -4 -4.33979e-15 
-4.23391 -4 -6.13252e-15 
-3.93545 -4 -8.78111e-15 
-3.62113 -4 -1.21565e-14 
-3.31548 -4 -1.52694e-14 
-3.02484 -4 -1.81026e-14 
-2.72973 -4 -2.13401e-14 
-2.44031 -4 -2.18077e-14 
-2.17001 -4 -1.22457e-14 
-1.92106 -4 -1.89086e-14 
-1.68967 -4 1.52743e-14 
-1.45729 -4 1.18041e-13 
-1.24014 -4 2.52791e-13 
-1.03875 -4 9.62659e-14 
-0.513927 -4 9.91567e-12 
-0.236266 -4 1.90491e-11 
0.344321 -4 4.13977e-12 
0.953327 -4 2.52037e-12 
1.1629 -4 -1.19239e-12 
1.36819 -4 -2.21868e-13 
1.57801 -4 -6.3177e-14 
1.85581 -4 -3.69281e-15 
2.09962 -4 2.26331e-14 
2.46404 -4 2.62422e-14 
2.74133 -4 2.10276e-14 
3.05874 -4 1.80123e-14 
3.33855 -4 1.33884e-14 
3.62708 -4 1.0563e-14 
3.92336 -4 8.23114e-15 
4.23383 -4 6.08818e-15 
4.52262 -4 4.06212e-15 
4.81347 -4 2.87947e-15 
5.09354 -4 2.0983e-15 
5.39016 -4 1.51137e-15 
5.69569 -4 8.52177e-16 
5.98596 -4 4.52837e-16 
6.29563 -4 2.38684e-16 
6.57365 -4 6.55354e-17 
6.87695 -4 7.28578e-17 
7.16914 -4 -9.6195e-18 
7.46615 -4 -2.69866e-17 
7.77221 -4 -7.33837e-18 
8.06986 -4 -7.44102e-17 
8.37445 -4 -1.14242e-16 
8.68006 -4 -3.67149e-16 
8.96021 -4 -9.89679e-16 
9.2992 -4 -1.78177e-15 
9.62088 -4 -2.66592e-15 
9.92994 -4 -4.23175e-15 
10.2955 -4 -5.88679e-15 
10.6261 -4 -8.40218e-15 
10.9945 -4 -1.07492e-14 
11.3134 -4 -1.20629e-14 
11.6046 -4 -1.35764e-14 
12 -4 -5.23391e-16 
-12 -3.62909 -3.70448e-16 
-11.6963 -3.67841 -8.47048e-15 
-11.3638 -3.62211 -7.01923e-15 
-11.0562 -3.68888 -7.46709e-15 
-10.7119 -3.65684 -6.71408e-15 
-10.379 -3.6845 -5.39865e-15 
-10.0373 -3.65353 -3.73854e-15 
-9.7193 -3.67998 -2.83503e-15 
-9.38283 -3.67766 -1.93606e-15 
-9.05354 -3.66323 -1.26419e-15 
-8.73698 -3.66335 -8.30966e-16 
-8.42094 -3.67175 -5.06412e-16 
-8.09991 -3.66128 -2.59163e-16 
-7.78925 -3.66413 -1.09117e-16 
-7.47529 -3.65837 -4.28526e-17 
-7.16816 -3.66021 -4.69166e-18 
-6.86635 -3.65812 9.86277e-17 
-6.56166 -3.66391 2.55952e-16 
-6.24948 -3.67484 4.1178e-16 
-5.93829 -3.6736 6.20969e-16 
-5.63626 -3.66268 9.54799e-16 
-5.34084 -3.66113 1.48394e-15 
-5.03426 -3.67693 2.26887e-15 
-4.72148 -3.68046 3.20825e-15 
-4.40945 -3.67776 4.57589e-15 
-4.09579 -3.67657 6.11784e-15 
-3.76858 -3.6929 8.48105e-15 
-3.43071 -3.68378 1.15213e-14 
-3.10296 -3.66049 1.35817e-14 
-2.79152 -3.67255 1.81516e-14 
-2.47483 -3.66887 2.12551e-14 
-2.17521 -3.63447 3.2914e-15 
-1.91472 -3.67116 3.87961e-14 
-1.66067 -3.67916 -1.51603e-14 
-1.44168 -3.63457 1.06468e-15 
-1.21085 -3.39811 -8.3405e-15 
-1.24065 -3.71007 -3.7908e-14 
-0.818159 -3.89914 -1.98705e-14 
-0.617672 -3.80417 -1.41856e-14 
-0.088123 -3.92821 7.14726e-12 
0.555455 -3.84577 3.61366e-12 
1.15903 -3.73312 -1.71446e-14 
1.22045 -3.48834 1.88082e-14 
1.4063 -3.72795 -9.61208e-15 
1.52523 -3.48756 5.91281e-15 
1.69221 -3.7397 9.7664e-15 
1.95822 -3.6361 -1.81732e-14 
2.26455 -3.73344 -1.51465e-14 
2.58211 -3.67363 -1.92105e-14 
2.91365 -3.70329 -1.49611e-14 
3.2479 -3.67083 -1.36644e-14 
3.56357 -3.67022 -9.67553e-15 
3.87607 -3.66866 -7.14947e-15 
4.19163 -3.68633 -5.87253e-15 
4.51672 -3.65859 -3.69677e-15 
4.81702 -3.65933 -2.9579e-15 
5.12277 -3.67195 -1.93813e-15 
5.43236 -3.67649 -1.39778e-15 
5.73547 -3.66007 -9.06266e-16 
6.04045 -3.67615 -6.03792e-16 
6.33221 -3.64364 -3.83595e-16 
6.63298 -3.67049 -1.81318e-16 
6.93234 -3.65778 -1.01627e-16 
7.23137 -3.66009 -9.61472e-18 
7.53824 -3.66915 5.59858e-17 
7.83935 -3.65597 1.51007e-16 
8.14373 -3.66068 2.86701e-16 
8.44446 -3.65877 4.65445e-16 
8.73635 -3.63236 7.96883e-16 
9.05699 -3.69271 1.39331e-15 
9.38343 -3.67381 1.86935e-15 
9.6989 -3.65591 2.68222e-15 
10.0458 -3.70613 4.31033e-15 
10.3867 -3.67165 5.31619e-15 
10.7434 -3.70249 7.25033e-15 
11.0737 -3.65329 6.99015e-15 
11.3756 -3.61728 6.72831e-15 
11.7191 -3.71726 9.07229e-15 
12 -3.60545 3.63812e-16 
-12 -3.31916 5.94506e-16 
-11.6447 -3.32782 -2.86101e-15 
-11.3022 -3.28469 -2.03202e-15 
-10.9813 -3.35179 -3.37419e-15 
-10.6558 -3.30631 -3.90464e-15 
-10.3486 -3.35801 -3.48503e-15 
-10.0327 -3.30648 -2.54773e-15 
-9.72332 -3.33859 -1.97467e-15 
-9.41117 -3.35252 -1.29227e-15 
-9.09116 -3.33457 -9.7793e-16 
-8.77624 -3.32557 -7.10549e-16 
-8.46825 -3.33585 -4.0592e-16 
-8.16087 -3.33569 -2.42744e-16 
-7.84723 -3.32564 -1.43146e-16 
-7.54427 -3.3272 -3.78469e-17 
-7.23693 -3.32524 4.22657e-17 
-6.93537 -3.32126 7.45076e-17 
-6.6351 -3.32926 1.44647e-16 
-6.33133 -3.34701 2.78434e-16 
-6.02729 -3.34986 4.58113e-16 
-5.72572 -3.3358 6.73283e-16 
-5.42685 -3.32451 9.12437e-16 
-5.12967 -3.35009 1.34021e-15 
-4.82475 -3.36242 1.99094e-15 
-4.51675 -3.35952 2.74713e-15 
-4.2081 -3.35678 3.57743e-15 
-3.88514 -3.37656 4.86916e-15 
-3.558 -3.38362 6.31393e-15 
-3.22354 -3.35316 7.17341e-15 
-2.88525 -3.33517 9.99707e-15 
-2.57472 -3.34976 1.00253e-14 
-2.26805 -3.3199 1.52209e-14 
-1.96368 -3.30767 5.9703e-15 
-1.70971 -3.35261 -5.01397e-15 
-1.45379 -3.30741 -3.06921e-15 
-1.25904 -3.09765 3.67781e-15 
-0.996419 -3.18056 -2.64127e-14 
-1.00007 -3.74645 3.91689e-14 
-0.76951 -3.61704 1.65939e-14 
-0.354668 -3.83596 -3.079e-13 
0.725702 -3.67949 -1.39608e-14 
0.746708 -3.92423 4.94974e-13 
1.11883 -3.20372 -1.51024e-14 
1.38166 -3.23437 2.1931e-14 
1.63159 -3.13318 -5.84402e-15 
1.79223 -3.38834 7.88516e-15 
2.0075 -3.18524 -1.79285e-15 
2.21528 -3.41744 -1.95524e-14 
2.53888 -3.37314 -1.57966e-14 
2.87628 -3.39953 -8.92834e-15 
3.20874 -3.36976 -8.27762e-15 
3.5424 -3.34972 -6.6802e-15 
3.86101 -3.34214 -4.56354e-15 
4.1734 -3.36218 -3.27207e-15 
4.48477 -3.35097 -2.52667e-15 
4.80615 -3.32909 -1.86133e-15 
5.10852 -3.34493 -1.37545e-15 
5.41292 -3.35017 -9.29391e-16 
5.71372 -3.32804 -6.63396e-16 
6.0146 -3.34058 -4.56129e-16 
6.3109 -3.3067 -2.78052e-16 
6.60991 -3.33454 -1.54599e-16 
6.90847 -3.3247 -7.05388e-17 
7.2131 -3.32269 -4.41308e-17 
7.51609 -3.3376 2.23866e-17 
7.82253 -3.31694 1.51042e-16 
8.12658 -3.322 2.59809e-16 
8.43205 -3.30901 3.98174e-16 
8.75126 -3.3068 6.82516e-16 
9.07076 -3.36954 9.8765e-16 
9.38879 -3.33997 1.24189e-15 
9.7031 -3.31326 1.8447e-15 
10.0135 -3.39157 2.59694e-15 
10.3134 -3.32456 3.35426e-15 
10.6391 -3.38576 4.20903e-15 
10.9677 -3.33371 3.34221e-15 
11.2912 -3.26486 1.59101e-15 
11.6332 -3.36308 2.94622e-15 
12 -3.30261 -4.53979e-16 
-12 -2.99801 6.67907e-16 
-11.6542 -3.00918 -1.13489e-15 
-11.3104 -2.9596 1.05981e-15 
-10.9678 -3.00993 -6.25722e-16 
-10.6347 -2.97452 -1.8913e-15 
-10.3074 -3.00746 -1.64585e-15 
-9.98596 -2.96329 -1.34058e-15 
-9.67482 -3.00006 -1.0946e-15 
-9.3614 -3.0159 -6.86511e-16 
-9.04497 -2.99797 -4.87587e-16 
-8.73209 -2.98931 -4.61179e-16 
-8.42332 -3.0003 -2.07547e-16 
-8.11084 -3.00617 -1.39308e-16 
-7.80462 -2.98735 -9.39931e-17 
-7.4979 -2.99528 4.85752e-18 
-7.19493 -2.99005 3.23183e-17 
-6.8935 -2.9876 1.67697e-17 
-6.58924 -3.00256 5.77816e-17 
-6.28929 -3.0182 1.65725e-16 
-5.99153 -3.01836 2.73223e-16 
-5.69334 -3.00532 3.28984e-16 
-5.395 -2.99618 3.60435e-16 
-5.10401 -3.01746 5.06111e-16 
-4.81166 -3.04186 8.60309e-16 
-4.51414 -3.02789 1.11442e-15 
-4.21699 -3.03137 1.49143e-15 
-3.90824 -3.06164 2.57658e-15 
-3.58033 -3.06787 3.3244e-15 
-3.24951 -3.04204 4.7618e-15 
-2.90404 -3.02702 4.79864e-15 
-2.55319 -3.01648 7.14267e-15 
-2.22004 -2.99839 8.03588e-15 
-1.90047 -2.98558 -7.73564e-15 
-1.62717 -3.03795 2.63714e-14 
-1.46433 -2.84029 -2.98174e-15 
-1.13331 -2.85371 8.38342e-16 
-0.873162 -2.94168 -6.87046e-15 
-1.01065 -3.4962 2.63144e-14 
-0.487023 -3.63267 2.75209e-13 
0.159702 -3.87684 5.50911e-13 
0.355718 -3.78971 2.07988e-12 
0.942794 -3.7766 3.61343e-14 
0.920411 -3.31848 5.37542e-14 
1.18664 -2.92554 1.69563e-14 
1.4306 -2.8728 -4.35444e-15 
1.76756 -2.89324 1.29506e-14 
2.07143 -2.86324 -2.12673e-15 
2.33765 -3.07348 -3.85536e-15 
2.60333 -2.99843 -4.71731e-15 
2.87125 -3.09119 -6.84873e-15 
3.18678 -3.05088 -5.51978e-15 
3.52134 -3.04071 -2.58381e-15 
3.84879 -3.02186 -2.2198e-15 
4.16961 -3.03659 -1.73773e-15 
4.48621 -3.03677 -1.27075e-15 
4.79055 -3.00351 -8.73745e-16 
5.09355 -3.01624 -6.47867e-16 
5.39473 -3.02266 -4.68041e-16 
5.69249 -2.99785 -2.93808e-16 
5.99293 -3.00808 -2.36023e-16 
6.29661 -2.9811 -1.29042e-16 
6.60371 -2.99957 -5.83378e-17 
6.91031 -2.99694 -3.04822e-17 
7.21506 -2.99241 -3.66328e-17 
7.52021 -3.00474 -3.79751e-18 
7.82481 -2.98115 8.58905e-17 
8.12808 -2.98414 1.44237e-16 
8.44206 -2.98169 2.23246e-16 
8.74987 -2.97 3.7538e-16 
9.06155 -3.03936 6.1427e-16 
9.37552 -3.00533 5.9332e-16 
9.67713 -2.96563 8.64798e-16 
9.99287 -3.03776 1.56785e-15 
10.3188 -2.99042 1.56746e-15 
10.6437 -3.05114 2.42221e-15 
10.9711 -2.99452 7.31241e-16 
11.318 -2.94488 -1.03411e-15 
11.6557 -3.04897 1.23408e-15 
12 -2.98015 -5.67655e-16 
-12 -2.67705 7.58192e-16 
-11.6562 -2.68884 -9.47512e-18 
-11.3336 -2.62261 2.60327e-15 
-11.0002 -2.68186 4.88632e-16 
-10.6546 -2.65841 -2.19108e-16 
-10.3126 -2.67453 -4.26671e-16 
-9.97982 -2.64246 -2.73453e-16 
-9.64745 -2.66191 -2.6915e-16 
-9.33128 -2.68122 -5.97168e-17 
-9.01352 -2.66496 -1.58274e-16 
-8.69838 -2.65783 -1.92947e-16 
-8.38387 -2.67393 -4.66621e-17 
-8.07597 -2.67221 -1.9974e-17 
-7.76308 -2.65895 -1.97275e-17 
-7.45763 -2.66325 2.39973e-17 
-7.15347 -2.65865 2.62186e-17 
-6.8449 -2.66453 -1.83482e-17 
-6.54302 -2.67538 -7.83e-18 
-6.24488 -2.68803 5.93067e-17 
-5.94499 -2.68961 1.16011e-16 
[...]
POINT_DATA 1978 
VECTORS vectors float
-8.24188e-05 -0.000186465 1 
-0.000136071 -0.0228819 0.999738 
9.69094e-05 -0.0237789 0.999717 
4.42494e-05 -0.0177514 0.999842 
2.48694e-05 -0.012715 0.999919 
3.68019e-05 -0.0086643 0.999962 
2.04793e-05 -0.00619479 0.999981 
4.57392e-05 -0.00424113 0.999991 
2.7343e-05 -0.00267619 0.999996 
1.86433e-05 -0.00155386 0.999999 
2.79753e-05 -0.000724337 1 
2.2792e-05 -0.000230845 1 
1.50288e-05 -6.01571e-05 1 
2.60615e-05 1.32678e-05 1 
1.6728e-05 7.42265e-05 1 
9.82947e-06 8.47995e-05 1 
7.9073e-06 5.74169e-05 1 
4.62296e-06 6.7199e-05 1 
1.625e-05 0.000225349 1 
2.13671e-05 0.000620341 1 
1.10982e-05 0.00117033 0.999999 
-3.03539e-06 0.00186455 0.999998 
6.48381e-06 0.0028386 0.999996 
1.89207e-05 0.00434506 0.999991 
1.46594e-05 0.00654558 0.999979 
6.50946e-06 0.00953933 0.999954 
1.99957e-05 0.0136467 0.999907 
2.94765e-05 0.0196608 0.999807 
6.94347e-06 0.0271551 0.999631 
5.63231e-06 0.0356608 0.999364 
1.31184e-05 0.0468644 0.998901 
-3.82082e-06 0.0628406 0.998024 
-3.13984e-05 0.0859967 0.996295 
-5.20833e-06 0.120762 0.992682 
-2.70805e-05 0.164612 0.986358 
-1.94304e-05 0.217242 0.976118 
0.000230792 0.293405 0.955988 
-0.000202378 0.381066 0.924548 
0.000146623 0.707133 0.70708 
-2.29624e-05 0.914776 0.403962 
0.000692607 0.876474 -0.481448 
6.69294e-05 0.435065 -0.900399 
1.98929e-05 0.337753 -0.941235 
-0.000131238 0.267951 -0.963433 
-3.75268e-05 0.200544 -0.979685 
6.20947e-05 0.134625 -0.990897 
-1.2995e-05 0.0977141 -0.995215 
-3.42074e-05 0.0621084 -0.998069 
5.02912e-06 0.0456075 -0.998959 
-2.0946e-05 0.0333821 -0.999443 
5.19962e-06 0.0250005 -0.999687 
-5.14582e-06 0.0184012 -0.999831 
-2.55756e-05 0.0132496 -0.999912 
-1.3792e-05 0.00922017 -0.999957 
-5.14352e-06 0.00653773 -0.999979 
-1.35655e-06 0.00451072 -0.99999 
1.86047e-06 0.00318467 -0.999995 
-2.74063e-05 0.00212333 -0.999998 
-8.59319e-06 0.00120921 -0.999999 
-1.89702e-05 0.000657521 -1 
-1.09431e-05 0.000301062 -1 
-3.46183e-07 0.000133334 -1 
-2.20902e-05 6.95395e-05 -1 
-4.86673e-06 1.4436e-06 -1 
-2.05204e-05 -2.51556e-05 -1 
-1.75266e-05 -3.44026e-05 -1 
-9.98601e-06 -9.05331e-05 -1 
-3.33042e-05 -0.000230341 -1 
5.202e-06 -0.000631561 -1 
-1.43907e-05 -0.00129258 -0.999999 
-5.52669e-05 -0.00245274 -0.999997 
-5.75982e-06 -0.00397726 -0.999992 
-4.10179e-05 -0.005673 -0.999984 
-4.43385e-05 -0.00847671 -0.999964 
-2.29616e-05 -0.0121928 -0.999926 
-5.91593e-05 -0.0178263 -0.999841 
-6.68121e-05 -0.0232474 -0.99973 
0.000109832 -0.0232483 -0.99973 
8.7324e-05 -0.000134364 -1 
-0.000130754 1.67671e-05 1 
0.00868785 -0.0174275 0.99981 
0.0112432 -0.0207762 0.999721 
0.0111466 -0.0186582 0.999764 
0.0122275 -0.0136454 0.999832 
0.0121824 -0.009762 0.999878 
0.0131303 -0.0067875 0.999891 
0.0129951 -0.00469527 0.999905 
0.0133278 -0.00307854 0.999906 
0.0138884 -0.00187212 0.999902 
0.014149 -0.00102319 0.999899 
0.0141511 -0.00049889 0.9999 
0.0145198 -0.000230106 0.999895 
0.0145193 -8.82944e-05 0.999895 
0.0145131 4.64382e-06 0.999895 
0.0147611 6.6842e-05 0.999891 
0.0149329 0.000110646 0.999888 
0.0147577 0.000196852 0.999891 
0.0145045 0.000427118 0.999895 
0.0145627 0.000857181 0.999894 
0.0147782 0.00147083 0.99989 
0.0147098 0.00229964 0.999889 
0.0142046 0.00350008 0.999893 
0.013989 0.00531065 0.999888 
0.0138852 0.0078769 0.999873 
0.0135836 0.0114553 0.999842 
0.0128944 0.0165369 0.99978 
0.0129621 0.0236827 0.999635 
0.0131222 0.032568 0.999383 
0.0128238 0.0441566 0.998942 
0.0128016 0.0615165 0.998024 
0.0135138 0.0871473 0.996104 
0.0138404 0.124346 0.992142 
0.0148615 0.176676 0.984157 
0.0204192 0.234531 0.971894 
0.0464637 0.294929 0.954389 
0.0192524 0.302197 0.953051 
0.00986401 0.509202 0.860591 
0.0320237 0.638344 0.769085 
0.00750419 0.972947 0.230907 
-0.019669 0.748454 -0.662895 
-0.0211965 0.353903 -0.935042 
-0.0406308 0.307766 -0.950594 
-0.016546 0.259979 -0.965473 
-0.0262279 0.193497 -0.98075 
-0.0119321 0.178365 -0.983892 
-0.0147619 0.120515 -0.992602 
-0.0107557 0.0808615 -0.996667 
-0.0126378 0.0552521 -0.998392 
-0.0117508 0.0385074 -0.999189 
-0.0131352 0.0271377 -0.999545 
-0.0134482 0.0194987 -0.999719 
-0.0135588 0.014009 -0.99981 
-0.0134225 0.00985958 -0.999861 
-0.01404 0.00672685 -0.999879 
-0.0144711 0.00466305 -0.999884 
-0.0142839 0.00317589 -0.999893 
-0.01438 0.00206199 -0.999894 
-0.0148412 0.00127484 -0.999889 
-0.014612 0.000720846 -0.999893 
-0.0153295 0.000418646 -0.999882 
-0.0147897 0.000220624 -0.999891 
-0.0151213 0.000104626 -0.999886 
-0.0149649 5.29435e-06 -0.999888 
-0.0147625 -6.93788e-05 -0.999891 
-0.0148331 -0.00014718 -0.99989 
-0.0146395 -0.000285876 -0.999893 
-0.0145868 -0.000560202 -0.999893 
-0.0149191 -0.00103457 -0.999888 
-0.0134687 -0.00179113 -0.999908 
-0.0135936 -0.00303665 -0.999903 
-0.013541 -0.00456738 -0.999898 
-0.0123164 -0.00672936 -0.999902 
-0.0124242 -0.00979303 -0.999875 
-0.0114373 -0.0141306 -0.999835 
-0.0118031 -0.0188241 -0.999753 
-0.0114203 -0.020877 -0.999717 
-0.00823244 -0.0170078 -0.999821 
0.000149467 -2.05117e-05 -1 
-0.000199514 -0.000221717 1 
0.0105728 -0.0172974 0.999794 
0.013577 -0.0208794 0.99969 
0.014633 -0.0181066 0.999729 
0.0155174 -0.0136128 0.999787 
0.016192 -0.00994758 0.999819 
0.0168734 -0.00720607 0.999832 
0.0171511 -0.00505425 0.99984 
0.0174209 -0.00350289 0.999842 
0.0177808 -0.00226923 0.999839 
0.0180434 -0.00138138 0.999836 
0.018246 -0.000832555 0.999833 
0.0184672 -0.000485941 0.999829 
0.0186307 -0.000260014 0.999826 
0.0187204 -0.000110823 0.999825 
0.0187767 1.58804e-05 0.999824 
0.0188394 0.00015029 0.999823 
0.0187981 0.000298775 0.999823 
0.0187301 0.000507128 0.999824 
0.0187024 0.000862501 0.999825 
0.0186718 0.00142605 0.999825 
0.0185541 0.00223592 0.999825 
0.0183447 0.00331442 0.999826 
0.0182883 0.00487741 0.999821 
0.0180807 0.00707344 0.999812 
0.0178192 0.0100878 0.99979 
0.017512 0.0143856 0.999743 
0.0171999 0.0202937 0.999646 
0.0172561 0.0285211 0.999444 
0.0174791 0.0395 0.999067 
0.0180183 0.0553141 0.998306 
0.0199861 0.0777703 0.996771 
0.023073 0.111112 0.99354 
0.0280583 0.156611 0.987262 
0.039909 0.21046 0.976788 
0.0626844 0.240593 0.9686 
0.0822804 0.339948 0.936838 
0.0238969 0.404153 0.914379 
0.0560293 0.53372 0.843803 
0.0449496 0.788106 0.613896 
-0.0543678 0.699827 -0.71224 
-0.00642007 0.569082 -0.822256 
-0.0703953 0.294524 -0.953048 
-0.04493 0.226771 -0.972911 
-0.0401821 0.163595 -0.985709 
-0.0265159 0.139101 -0.989923 
-0.0243177 0.102928 -0.994392 
-0.0182275 0.0813719 -0.996517 
-0.0182253 0.0568767 -0.998215 
-0.0170196 0.0400839 -0.999051 
-0.0172835 0.0280703 -0.999457 
-0.0174121 0.0198161 -0.999652 
-0.0175424 0.0142055 -0.999745 
-0.0177746 0.0103253 -0.999789 
-0.0179613 0.00725584 -0.999812 
-0.0182479 0.00497019 -0.999821 
-0.018313 0.00340026 -0.999827 
-0.0184767 0.00229024 -0.999827 
-0.0186104 0.00149297 -0.999826 
-0.0187094 0.000934906 -0.999825 
-0.0189238 0.000603696 -0.999821 
-0.0189714 0.000359778 -0.99982 
-0.018958 0.000181665 -0.99982 
-0.018827 1.0684e-05 -0.999823 
-0.018851 -0.000131314 -0.999822 
-0.0187572 -0.000271848 -0.999824 
-0.01865 -0.000476064 -0.999826 
-0.0183201 -0.000802909 -0.999832 
-0.0181786 -0.00133267 -0.999834 
-0.0177378 -0.00212674 -0.99984 
-0.0175093 -0.00339297 -0.999841 
-0.0171957 -0.00496098 -0.99984 
-0.0165418 -0.00689585 -0.999839 
-0.0163812 -0.0096738 -0.999819 
-0.0155954 -0.0133573 -0.999789 
-0.0148635 -0.0179715 -0.999728 
-0.013563 -0.0208179 -0.999691 
-0.0108228 -0.0175414 -0.999788 
0.00018953 -0.000196293 -1 
-0.000263667 -5.53648e-05 1 
0.00912872 -0.0172529 0.999809 
0.0116709 -0.0215435 0.9997 
0.0133747 -0.0186667 0.999736 
0.0139532 -0.013994 0.999805 
0.0148294 -0.0101066 0.999839 
0.0149277 -0.00718398 0.999863 
0.0156814 -0.005096 0.999864 
0.0160694 -0.00357521 0.999864 
0.0160379 -0.00237349 0.999869 
0.0162208 -0.0015041 0.999867 
0.0165087 -0.00099173 0.999863 
0.0167495 -0.000617694 0.99986 
0.0166529 -0.000354175 0.999861 
0.0168064 -0.000155765 0.999859 
0.0168867 3.69817e-05 0.999857 
0.0168021 0.000245003 0.999859 
0.0168775 0.00044607 0.999857 
0.0169719 0.000680208 0.999856 
0.0169049 0.00105027 0.999857 
0.0166785 0.00164798 0.99986 
0.0164601 0.00251175 0.999861 
0.0165462 0.00362619 0.999857 
0.0166592 0.00507655 0.999848 
0.0166566 0.00718902 0.999835 
0.0167236 0.00993867 0.999811 
0.0169199 0.0136205 0.999764 
0.016886 0.0189064 0.999679 
0.0169939 0.0259928 0.999518 
0.0174924 0.0363349 0.999187 
0.0190562 0.0508842 0.998523 
0.0227296 0.0723606 0.99712 
0.029396 0.104271 0.994114 
0.038564 0.144177 0.9888 
0.0541646 0.168049 0.984289 
0.0874015 0.235101 0.968033 
0.115081 0.312667 0.942866 
0.0547443 0.403886 0.91317 
0.0931839 0.643999 0.75933 
0.00190471 0.99956 0.0295976 
-0.03423 0.919558 -0.391459 
-0.0290654 0.511879 -0.858565 
-0.0817715 0.394898 -0.915079 
-0.0784562 0.234939 -0.968839 
-0.0593379 0.178747 -0.982104 
-0.0365815 0.122466 -0.991798 
-0.0279742 0.0900003 -0.995549 
-0.0219202 0.0699532 -0.997309 
-0.019335 0.0508073 -0.998521 
-0.018129 0.0385663 -0.999092 
-0.017246 0.0275644 -0.999471 
-0.0167083 0.0196754 -0.999667 
-0.016366 0.0140224 -0.999768 
-0.0165819 0.0101294 -0.999811 
-0.0167663 0.00722269 -0.999833 
-0.0164975 0.0051024 -0.999851 
-0.0165636 0.00355446 -0.999856 
-0.0166542 0.00244642 -0.999858 
-0.0166097 0.00168139 -0.999861 
-0.016738 0.00110607 -0.999859 
-0.0166219 0.000744763 -0.999862 
-0.0168125 0.000474798 -0.999859 
-0.0169416 0.000250765 -0.999856 
-0.0169462 2.36461e-05 -0.999856 
-0.0169238 -0.000188021 -0.999857 
-0.0167374 -0.000398773 -0.99986 
-0.0165214 -0.000659005 -0.999863 
-0.0163658 -0.0010399 -0.999866 
-0.0160398 -0.00157708 -0.99987 
-0.0165388 -0.00237847 -0.99986 
-0.0159531 -0.0036614 -0.999866 
-0.0152805 -0.00518581 -0.99987 
-0.0155781 -0.00721551 -0.999853 
-0.0146799 -0.010259 -0.99984 
-0.0146177 -0.0139836 -0.999795 
-0.013344 -0.0187123 -0.999736 
-0.011625 -0.0216031 -0.999699 
-0.00946973 -0.0172342 -0.999807 
0.000247474 -6.64566e-05 -1 
-0.000357309 -0.00011905 1 
0.00698949 -0.0179222 0.999815 
0.0086536 -0.0226108 0.999707 
0.010241 -0.0195631 0.999756 
0.0106761 -0.0147354 0.999834 
0.0113388 -0.0105313 0.99988 
0.0114933 -0.00755498 0.999905 
0.0119229 -0.00524233 0.999915 
0.0123632 -0.00373056 0.999917 
0.0123665 -0.00249656 0.99992 
0.0125398 -0.00164353 0.99992 
0.0129089 -0.00112934 0.999916 
0.0130121 -0.000744704 0.999915 
0.0129642 -0.000421327 0.999916 
0.0130977 -0.000162697 0.999914 
0.0130923 9.30068e-05 0.999914 
0.0130993 0.000354584 0.999914 
0.0131226 0.000577378 0.999914 
0.0131975 0.000819025 0.999913 
0.0131345 0.00120131 0.999913 
0.012944 0.00183096 0.999915 
0.0127225 0.00272484 0.999915 
0.0128625 0.00388857 0.99991 
0.0131542 0.00542463 0.999899 
0.0130863 0.00745765 0.999887 
0.0134403 0.0102917 0.999857 
0.0141111 0.0143191 0.999798 
0.014365 0.0196566 0.999704 
0.0151058 0.0273367 0.999512 
0.0167014 0.0388541 0.999105 
0.0199921 0.0543163 0.998324 
0.0270835 0.0788836 0.996516 
0.0381783 0.10768 0.993452 
0.0504634 0.124298 0.990961 
0.0739942 0.17602 0.981602 
0.0903131 0.169697 0.981349 
0.123776 0.239671 0.962932 
0.144958 0.421629 0.895107 
0.103002 0.472911 0.875069 
0.0735812 0.866741 0.4933 
-0.11027 0.693499 -0.711969 
-0.0586792 0.472549 -0.879348 
-0.117298 0.326458 -0.937905 
-0.12523 0.264543 -0.956208 
-0.0854119 0.186854 -0.978668 
-0.0530872 0.136522 -0.989214 
-0.0352504 0.0961676 -0.994741 
-0.0232919 0.0657418 -0.997565 
-0.0184369 0.0457169 -0.998784 
-0.0162908 0.033439 -0.999308 
-0.0148081 0.0239714 -0.999603 
-0.0139247 0.017271 -0.999754 
-0.0133291 0.0123439 -0.999835 
-0.0133828 0.00908712 -0.999869 
-0.0132799 0.00662906 -0.99989 
-0.0128412 0.00472012 -0.999906 
-0.0129665 0.00337576 -0.99991 
-0.0129982 0.00240538 -0.999913 
-0.0129289 0.00165836 -0.999915 
-0.0130766 0.00113904 -0.999914 
-0.0128822 0.000789301 -0.999917 
-0.0131836 0.000542821 -0.999913 
-0.0131789 0.000308975 -0.999913 
-0.0131667 2.81633e-05 -0.999913 
-0.0132648 -0.0002572 -0.999912 
-0.0128417 -0.000543917 -0.999917 
-0.0128288 -0.000874375 -0.999917 
-0.0125931 -0.00129285 -0.99992 
-0.01221 -0.00183842 -0.999924 
-0.0129315 -0.00260004 -0.999913 
-0.0121168 -0.00382929 -0.999919 
-0.0116665 -0.00548288 -0.999917 
-0.0120635 -0.00768803 -0.999898 
-0.0111683 -0.0108769 -0.999878 
-0.011287 -0.014748 -0.999828 
-0.0101542 -0.0197796 -0.999753 
-0.0086141 -0.0223314 -0.999714 
-0.00702469 -0.0173369 -0.999825 
0.000231675 -0.000119512 -1 
-0.000282885 -9.44583e-05 1 
0.00428774 -0.0163043 0.999858 
0.005821 -0.0225687 0.999728 
0.00705878 -0.0214567 0.999745 
0.00771724 -0.0170197 0.999825 
0.00822725 -0.012258 0.999891 
0.00842222 -0.00892954 0.999925 
0.00879368 -0.00624976 0.999942 
0.00908959 -0.00446146 0.999949 
0.00928357 -0.00311778 0.999952 
0.00934472 -0.00210246 0.999954 
0.00964269 -0.0014831 0.999952 
0.00975879 -0.0010435 0.999952 
0.00985508 -0.000638636 0.999951 
0.00986019 -0.000279861 0.999951 
0.00982392 4.95518e-05 0.999952 
0.0098989 0.000354523 0.999951 
0.00985371 0.00059081 0.999951 
0.00986904 0.000786943 0.999951 
0.00991715 0.0010672 0.99995 
0.00985355 0.00155728 0.99995 
0.00967067 0.00231433 0.999951 
0.00966701 0.00334719 0.999948 
0.00991827 0.00463815 0.99994 
0.0100141 0.00623167 0.99993 
0.0103436 0.00847689 0.999911 
0.0110519 0.0116788 0.999871 
0.0116075 0.0157766 0.999808 
0.0123709 0.0215477 0.999691 
0.0138316 0.0297532 0.999462 
0.0166489 0.0409741 0.999021 
0.0219249 0.0574397 0.998108 
0.0300417 0.0755807 0.996687 
0.03956 0.0896482 0.995188 
0.0614475 0.125245 0.990221 
0.0733686 0.126321 0.989272 
0.123062 0.192159 0.973617 
0.176048 0.337671 0.924654 
0.156737 0.582973 0.79723 
0.00858587 0.997702 0.0672034 
-0.116783 0.553358 -0.824716 
-0.14439 0.446869 -0.88287 
-0.183035 0.289156 -0.939621 
-0.119774 0.203472 -0.971727 
-0.0754453 0.144293 -0.986655 
-0.0505627 0.109767 -0.99267 
-0.0343935 0.08125 -0.9961 
-0.024918 0.0639877 -0.99764 
-0.0182855 0.0450046 -0.998819 
-0.0146829 0.0319441 -0.999382 
-0.013021 0.0239883 -0.999627 
-0.0116225 0.0172016 -0.999784 
-0.0108823 0.012423 -0.999864 
-0.0104384 0.00893759 -0.999906 
-0.0101404 0.00652482 -0.999927 
-0.00982472 0.00477067 -0.99994 
-0.00980896 0.00346563 -0.999946 
-0.00977896 0.00249971 -0.999949 
-0.00978915 0.00176747 -0.999951 
-0.00979994 0.00123245 -0.999951 
-0.00982541 0.000903424 -0.999951 
-0.00994319 0.000665158 -0.99995 
-0.00992539 0.000433123 -0.999951 
-0.00990482 0.000126669 -0.999951 
-0.010018 -0.00022615 -0.99995 
-0.00968654 -0.0005758 -0.999953 
-0.00966716 -0.000973022 -0.999953 
-0.00940189 -0.00142886 -0.999955 
-0.00901442 -0.00196123 -0.999957 
-0.00947739 -0.00277019 -0.999951 
-0.00909218 -0.0041526 -0.99995 
-0.00858309 -0.00578551 -0.999946 
-0.00888062 -0.00796337 -0.999929 
-0.00826678 -0.0113802 -0.999901 
-0.00820938 -0.0155411 -0.999846 
-0.00727815 -0.0206794 -0.99976 
-0.00604833 -0.0229662 -0.999718 
-0.00493537 -0.0177766 -0.99983 
0.00017734 -0.000100159 -1 
-0.000145897 -9.40521e-05 1 
0.00323945 -0.0186072 0.999822 
0.00453452 -0.0236317 0.99971 
0.00509349 -0.0207259 0.999772 
0.00587967 -0.0155958 0.999861 
0.00597724 -0.0114758 0.999916 
0.00634883 -0.00821403 0.999946 
0.00660322 -0.00584524 0.999961 
0.00676148 -0.00419203 0.999968 
0.00695486 -0.00291491 0.999972 
0.00713113 -0.002042 0.999972 
0.0072649 -0.00150098 0.999972 
0.00738273 -0.00101935 0.999972 
0.00749775 -0.000560198 0.999972 
0.00740287 -0.000137456 0.999973 
0.00740934 0.000257773 0.999973 
0.00740122 0.000548365 0.999972 
0.00736361 0.000728106 0.999973 
0.00736912 0.000895074 0.999972 
0.00738597 0.00119766 0.999972 
0.00734869 0.00173548 0.999971 
0.00732744 0.00255969 0.99997 
0.00735809 0.00361326 0.999966 
0.0074751 0.0048382 0.99996 
0.00781208 0.00653012 0.999948 
0.00837394 0.00888048 0.999926 
0.00895917 0.0117904 0.99989 
0.00976495 0.0159652 0.999825 
0.0109138 0.0218782 0.999701 
0.0129053 0.0298669 0.999471 
0.0168335 0.0415006 0.998997 
0.0226179 0.055033 0.998228 
0.0288847 0.0653987 0.997441 
0.0472395 0.0945039 0.994403 
0.0591872 0.105894 0.992614 
0.110744 0.155456 0.981616 
0.189763 0.284432 0.939728 
0.222861 0.512465 0.829285 
0.147136 0.773752 0.616165 
-0.0915094 0.883259 -0.45987 
-0.215725 0.591009 -0.777284 
-0.194359 0.380226 -0.904242 
-0.18433 0.24995 -0.950551 
-0.116972 0.172268 -0.97808 
-0.0721546 0.123542 -0.989713 
-0.0455755 0.0907515 -0.99483 
-0.0307855 0.0678821 -0.997218 
-0.022608 0.053963 -0.998287 
-0.0166135 0.0394744 -0.999082 
-0.012918 0.0284302 -0.999512 
-0.0108035 0.0207296 -0.999727 
-0.00947494 0.0150228 -0.999842 
-0.00871573 0.0109903 -0.999902 
-0.00805292 0.007983 -0.999936 
-0.00766134 0.00583537 -0.999954 
-0.0075268 0.00429011 -0.999962 
-0.00744037 0.00317838 -0.999967 
-0.00734462 0.00229825 -0.99997 
-0.00738179 0.00162053 -0.999971 
-0.00730858 0.00116681 -0.999973 
-0.00747462 0.000887801 -0.999972 
-0.00743084 0.00070728 -0.999972 
-0.00745138 0.00048474 -0.999972 
-0.00750084 0.000140772 -0.999972 
-0.00748349 -0.000255861 -0.999972 
-0.00732854 -0.000701687 -0.999973 
-0.00723647 -0.00116783 -0.999973 
-0.00698352 -0.00168678 -0.999974 
-0.00678399 -0.00230564 -0.999974 
-0.00707286 -0.0031249 -0.99997 
-0.00667544 -0.0044821 -0.999968 
-0.00644749 -0.00632749 -0.999959 
-0.00655157 -0.00871529 -0.999941 
-0.0060092 -0.0122384 -0.999907 
-0.00598713 -0.0163648 -0.999848 
-0.00518062 -0.0213008 -0.99976 
-0.00423769 -0.0235634 -0.999713 
-0.00342693 -0.0182541 -0.999828 
0.000113402 -0.00010887 -1 
-7.15002e-05 -0.000124714 1 
0.00208238 -0.0182909 0.999831 
0.00312202 -0.024096 0.999705 
0.00348242 -0.0213034 0.999767 
0.00414209 -0.0164504 0.999856 
0.00429274 -0.0122748 0.999915 
0.00471081 -0.00897097 0.999949 
0.00495928 -0.00643527 0.999967 
0.00511065 -0.00462296 0.999976 
0.00528196 -0.00325931 0.999981 
0.0055467 -0.00237933 0.999982 
0.00561507 -0.0017546 0.999983 
0.00573537 -0.0012041 0.999983 
0.0058752 -0.00068065 0.999983 
0.00580234 -0.000176415 0.999983 
0.0057728 0.000292024 0.999983 
0.00569017 0.000613276 0.999984 
0.00563687 0.000763979 0.999984 
0.00562837 0.00086942 0.999984 
0.00562929 0.0010883 0.999984 
0.00564733 0.00152016 0.999983 
0.00575662 0.00221419 0.999981 
0.00581179 0.00315546 0.999978 
0.00578833 0.00428116 0.999974 
0.00612551 0.00570537 0.999965 
0.00662431 0.00766944 0.999949 
0.00702218 0.0100723 0.999925 
0.0078292 0.0134288 0.999879 
0.00894772 0.0183312 0.999792 
0.0106986 0.0251626 0.999626 
0.0140065 0.0348117 0.999296 
0.0183654 0.0450438 0.998816 
0.0239102 0.0563721 0.998123 
0.0375135 0.0783271 0.996222 
0.0447994 0.0972193 0.994254 
0.090476 0.134673 0.986751 
0.187235 0.23036 0.954923 
0.301531 0.427446 0.852273 
0.252384 0.755923 0.604055 
0.0138527 0.998876 0.045329 
-0.225272 0.779239 -0.584841 
-0.293345 0.393333 -0.871343 
-0.162733 0.193749 -0.96746 
-0.0971266 0.135615 -0.985989 
-0.0590696 0.103436 -0.992881 
-0.0404643 0.0809061 -0.9959 
-0.0267202 0.0596705 -0.99786 
-0.0199813 0.0469516 -0.998697 
-0.0151353 0.0361336 -0.999232 
-0.0113728 0.0262932 -0.99959 
-0.00933014 0.0194795 -0.999767 
-0.00785106 0.0139067 -0.999872 
-0.00696631 0.00999209 -0.999926 
-0.0064122 0.0073433 -0.999952 
-0.00612861 0.00545731 -0.999966 
-0.00600374 0.00408374 -0.999974 
-0.00584206 0.00302464 -0.999978 
-0.00571741 0.00221129 -0.999981 
-0.00573683 0.00159731 -0.999982 
-0.00559845 0.0011553 -0.999984 
-0.00575058 0.000924108 -0.999983 
-0.00569352 0.000791276 -0.999983 
-0.00572684 0.000632156 -0.999983 
-0.00584758 0.000318309 -0.999983 
-0.00579402 -0.000136176 -0.999983 
-0.00579674 -0.000639703 -0.999983 
-0.00567525 -0.00120084 -0.999983 
-0.00547815 -0.00178462 -0.999983 
-0.00530965 -0.00241664 -0.999983 
-0.00533526 -0.00333329 -0.99998 
-0.00509968 -0.00481901 -0.999975 
-0.00481229 -0.00669803 -0.999966 
-0.00481324 -0.00916257 -0.999946 
-0.00430006 -0.0125908 -0.999911 
-0.00422974 -0.0167916 -0.99985 
-0.00358509 -0.021677 -0.999759 