# vtk DataFile Version 3.0 
Exported using Morpho https://github.com/Morpho-lang/morpho 
ASCII 
DATASET UNSTRUCTURED_GRID 

POINTS 1978 float 
-8.48528 -2.82843 6.58346e-15 
-8.25612 -2.82843 5.63712e-15 
-8.03444 -2.82843 2.00103e-15 
-7.78581 -2.82843 7.02154e-15 
-7.47147 -2.82843 8.6798e-15 
-7.16522 -2.82843 8.09514e-16 
-6.97395 -2.82843 4.29804e-16 
-6.74724 -2.82843 4.27136e-15 
-6.55178 -2.82843 -3.92145e-15 
-6.35809 -2.82843 1.28633e-14 
-6.16444 -2.82843 -9.40558e-15 
-5.95051 -2.82843 6.22574e-15 
-5.74029 -2.82843 6.45643e-15 
-5.53932 -2.82843 1.32504e-14 
-5.3223 -2.82843 9.22609e-15 
-5.11046 -2.82843 1.43315e-14 
-4.89937 -2.82843 2.99825e-14 
-4.68928 -2.82843 4.62273e-14 
-4.48333 -2.82843 6.76088e-14 
-4.27376 -2.82843 9.97862e-14 
-4.06569 -2.82843 1.62697e-13 
-3.85699 -2.82843 2.52654e-13 
-3.65525 -2.82843 3.25083e-13 
-3.43848 -2.82843 3.67237e-13 
-3.23683 -2.82843 9.04927e-13 
-3.03577 -2.82843 1.43723e-12 
-2.83025 -2.82843 1.0366e-12 
-2.60906 -2.82843 3.2485e-12 
-2.39104 -2.82843 2.23733e-12 
-2.17638 -2.82843 4.43989e-12 
-1.97837 -2.82843 5.0188e-12 
-1.78943 -2.82843 5.09502e-12 
-1.62556 -2.82843 -2.93497e-11 
-1.45904 -2.82843 -5.36328e-11 
-1.29678 -2.82843 -2.71975e-10 
-1.12273 -2.82843 -7.40586e-10 
-0.935471 -2.82843 -2.27805e-09 
-0.748397 -2.82843 -1.06309e-08 
-0.248072 -2.82843 -1.70547e-08 
0.157432 -2.82843 -6.72056e-09 
0.515602 -2.82843 6.63458e-08 
0.789193 -2.82843 -4.18916e-08 
0.934035 -2.82843 3.07722e-09 
1.11425 -2.82843 6.60018e-10 
1.26512 -2.82843 1.27322e-10 
1.39839 -2.82843 1.33323e-10 
1.57661 -2.82843 4.04044e-11 
1.76653 -2.82843 1.47253e-11 
1.96666 -2.82843 8.5901e-12 
2.1765 -2.82843 -5.38622e-12 
2.41509 -2.82843 -4.69945e-12 
2.63592 -2.82843 -2.47489e-12 
2.84692 -2.82843 -1.13111e-12 
3.05062 -2.82843 -1.38955e-12 
3.25728 -2.82843 -4.3105e-13 
3.43958 -2.82843 -3.50626e-13 
3.63988 -2.82843 -4.45376e-13 
3.83717 -2.82843 -2.15307e-13 
4.04184 -2.82843 -1.6312e-13 
4.25188 -2.82843 -6.97235e-14 
4.46541 -2.82843 -1.06283e-13 
4.67788 -2.82843 -4.07623e-14 
4.88736 -2.82843 -3.8673e-14 
5.09315 -2.82843 -9.4876e-15 
5.29839 -2.82843 -6.82216e-15 
5.50911 -2.82843 -6.26988e-15 
5.7248 -2.82843 -1.08684e-14 
5.94362 -2.82843 -1.00951e-14 
6.16742 -2.82843 -7.57011e-15 
6.3846 -2.82843 -4.37349e-15 
6.60871 -2.82843 -1.72878e-15 
6.83563 -2.82843 -1.95669e-15 
7.04662 -2.82843 1.46015e-16 
7.30538 -2.82843 -4.31145e-15 
7.54556 -2.82843 -4.84976e-15 
7.76395 -2.82843 -5.64602e-15 
8.03611 -2.82843 -5.81894e-15 
8.22848 -2.82843 -8.19255e-15 
8.48528 -2.82843 -9.79629e-16 
-8.48528 -2.58512 -1.10093e-14 
-8.26466 -2.59433 1.74932e-18 
-8.04105 -2.58349 -6.28756e-18 
-7.81001 -2.61444 -4.25177e-18 
-7.54144 -2.65555 -1.26894e-17 
-7.2425 -2.6498 -7.15525e-18 
-6.98088 -2.5463 -1.37388e-18 
-6.78364 -2.60554 -3.4236e-17 
-6.55974 -2.56047 -1.8499e-17 
-6.34443 -2.57692 -8.24444e-18 
-6.11684 -2.59811 2.82878e-19 
-5.89211 -2.59311 -1.06836e-17 
-5.6782 -2.58028 -2.5996e-17 
-5.45631 -2.60079 -4.9346e-17 
-5.23146 -2.59841 -1.08618e-16 
-5.0088 -2.60004 -2.83031e-16 
-4.78796 -2.6004 -7.55409e-16 
-4.57015 -2.59601 7.16358e-16 
-4.35369 -2.59952 1.93004e-15 
-4.13622 -2.59698 4.79566e-15 
-3.91949 -2.59759 1.10333e-14 
-3.70288 -2.59075 2.18821e-14 
-3.48766 -2.6087 4.2722e-14 
-3.26169 -2.59017 6.95569e-14 
-3.04738 -2.58542 -6.39045e-14 
-2.82419 -2.60104 5.04337e-13 
-2.59609 -2.60237 4.94364e-13 
-2.34533 -2.61975 1.17953e-12 
-2.09364 -2.61145 4.9798e-12 
-1.94601 -2.41366 3.37128e-12 
-1.85019 -2.60594 1.1522e-11 
-1.64095 -2.54742 2.47672e-11 
-1.4525 -2.57013 3.08442e-11 
-1.25937 -2.59492 8.12439e-11 
-1.06516 -2.61878 2.0533e-10 
-0.901315 -2.42262 1.46196e-09 
-0.848154 -2.62088 1.73272e-09 
-0.589599 -2.75463 7.11272e-09 
-0.406516 -2.69225 -1.57032e-09 
-0.0454316 -2.73737 1.31755e-09 
0.377467 -2.72746 -9.48668e-10 
0.663966 -2.69142 -4.4776e-10 
1.01245 -2.63185 -3.5322e-10 
1.01467 -2.41634 -3.23684e-10 
1.19629 -2.58575 -2.20155e-10 
1.18007 -2.33918 -7.4907e-11 
1.35846 -2.5256 -9.33574e-11 
1.52468 -2.59912 -4.59789e-11 
1.72894 -2.60049 -1.66354e-11 
1.95624 -2.59276 -7.26854e-12 
2.21416 -2.62133 -2.01693e-12 
2.46746 -2.60709 -4.81236e-13 
2.71052 -2.60467 -4.31556e-13 
2.94209 -2.59982 -3.0407e-13 
3.17033 -2.6053 -9.74787e-14 
3.39059 -2.57439 -6.05984e-14 
3.59701 -2.59564 -2.9321e-14 
3.81463 -2.59243 -1.42847e-14 
4.03025 -2.59652 -6.23718e-15 
4.25008 -2.59461 1.36661e-16 
4.47138 -2.59824 -4.53626e-15 
4.69046 -2.59705 1.04653e-15 
4.90472 -2.59355 4.11391e-16 
5.11725 -2.59175 1.70291e-16 
5.33295 -2.59573 8.13997e-17 
5.55307 -2.59842 4.35954e-17 
5.77633 -2.59854 1.76549e-17 
6.00325 -2.60033 1.54542e-17 
6.22618 -2.58998 8.38181e-18 
6.45138 -2.59494 1.91825e-17 
6.6806 -2.59463 8.59833e-18 
6.89797 -2.57471 2.26051e-18 
7.13872 -2.61929 5.17912e-18 
7.38954 -2.6038 3.78127e-18 
7.61422 -2.58075 2.36985e-18 
7.86296 -2.62877 3.28824e-18 
8.06814 -2.54681 8.10064e-20 
8.29498 -2.61647 1.80987e-18 
8.48528 -2.54225 7.81424e-15 
-8.48528 -2.33936 -9.6663e-15 
-8.26435 -2.35374 -6.31313e-18 
-8.0269 -2.35089 2.70793e-19 
-7.78479 -2.39326 -1.14983e-18 
-7.54673 -2.25414 -1.19068e-18 
-7.53027 -2.46614 -3.68352e-18 
-7.25028 -2.44937 -2.61239e-18 
-6.98392 -2.33969 -4.5795e-18 
-6.72396 -2.35982 -6.69002e-18 
-6.48035 -2.3248 -5.55047e-18 
-6.25104 -2.36189 -9.0644e-18 
-6.02633 -2.36601 -1.3588e-17 
-5.80963 -2.34621 -2.41551e-17 
-5.58157 -2.35837 -4.64066e-17 
-5.36269 -2.37397 -9.72396e-17 
-5.13722 -2.37476 -2.28492e-16 
-4.91456 -2.37585 -5.87947e-16 
-4.69564 -2.37257 -1.57684e-15 
-4.47581 -2.37043 9.74856e-16 
-4.26044 -2.37122 2.35536e-15 
-4.04386 -2.36793 5.31145e-15 
-3.82915 -2.36553 1.14776e-14 
-3.60738 -2.36789 2.52356e-14 
-3.39353 -2.38308 5.31141e-14 
-3.16976 -2.35293 1.18074e-13 
-2.94923 -2.36463 1.4318e-13 
-2.72951 -2.37202 3.43348e-13 
-2.48471 -2.41049 7.38943e-13 
-2.22511 -2.42239 2.39939e-12 
-2.08496 -2.23806 1.81754e-12 
-1.72398 -2.3289 1.01284e-11 
-1.51684 -2.14572 1.77224e-11 
-1.47711 -2.33602 4.0486e-11 
-1.27416 -2.36165 -2.4143e-11 
-1.07801 -2.38942 -2.35973e-11 
-0.877503 -2.1873 -2.25168e-11 
-0.658492 -2.57189 -4.47731e-09 
-0.443683 -2.52125 3.43246e-09 
-0.212765 -2.63799 6.69055e-10 
0.14997 -2.6615 3.9331e-10 
0.314035 -2.55599 -1.44744e-09 
0.537285 -2.57223 -8.24672e-10 
0.832767 -2.56379 -3.82217e-10 
0.877776 -2.30386 -8.05716e-09 
1.05225 -2.14914 8.12499e-10 
1.25529 -2.10504 4.97891e-12 
1.38111 -2.29565 5.47011e-12 
1.57154 -2.36226 -2.19991e-11 
1.78074 -2.38037 -5.69278e-12 
2.01552 -2.3916 -2.3291e-12 
2.25131 -2.40412 -1.56521e-12 
2.48877 -2.38631 -7.6042e-13 
2.71351 -2.37725 -1.45607e-13 
2.93728 -2.37603 5.18819e-15 
3.1632 -2.38176 -7.96881e-14 
3.37182 -2.33674 -3.71049e-14 
3.58343 -2.35607 -2.17705e-14 
3.7939 -2.36615 -1.11899e-14 
4.01268 -2.36799 -5.83243e-15 
4.22879 -2.36665 -2.67038e-15 
4.44682 -2.37145 -1.1741e-15 
4.66404 -2.36865 1.98298e-15 
4.87918 -2.36196 7.74842e-16 
5.09152 -2.35855 3.11531e-16 
5.30464 -2.36362 1.35656e-16 
5.51975 -2.36925 6.58959e-17 
5.7394 -2.37067 4.91792e-17 
5.96334 -2.37285 3.12074e-17 
6.18724 -2.35819 1.90761e-17 
6.41302 -2.35972 1.21108e-17 
6.63681 -2.36243 1.26902e-17 
6.86039 -2.3304 7.60388e-18 
7.08764 -2.38394 2.27882e-18 
7.31984 -2.3922 3.08128e-18 
7.55873 -2.34227 4.14219e-18 
7.79412 -2.39434 2.1689e-18 
8.0067 -2.31499 -1.69694e-19 
8.24892 -2.35914 -5.15185e-18 
8.48528 -2.31464 6.52253e-15 
-8.48528 -2.09875 -4.27113e-15 
-8.25324 -2.10027 8.14782e-18 
-8.04841 -2.11565 -1.38444e-18 
-7.8005 -2.16487 -1.27948e-18 
-7.5406 -2.04621 -2.21912e-18 
-7.28647 -2.25717 -3.71427e-18 
-7.08729 -2.12999 -1.683e-18 
-6.82407 -2.14214 -8.13595e-18 
-6.5938 -2.12596 1.18409e-17 
-6.33367 -2.12411 -1.24534e-17 
-6.11263 -2.13281 -1.64949e-17 
-5.898 -2.11156 -2.73879e-17 
-5.67483 -2.12629 -2.3305e-17 
-5.45446 -2.13321 -4.40952e-17 
-5.24066 -2.14962 -9.71492e-17 
-5.02128 -2.15068 -2.2621e-16 
-4.80535 -2.14743 -5.54366e-16 
-4.58952 -2.14698 -1.41563e-15 
-4.37542 -2.14125 7.48205e-16 
-4.16479 -2.14034 1.73647e-15 
-3.95284 -2.13522 3.73237e-15 
-3.73738 -2.14102 7.76448e-15 
-3.52182 -2.13972 1.50883e-14 
-3.31473 -2.14966 2.65005e-14 
-3.09296 -2.12253 6.41073e-14 
-2.88348 -2.13219 1.67772e-13 
-2.64957 -2.16688 4.25007e-13 
-2.41359 -2.2115 1.95333e-12 
-2.26639 -2.10372 -6.71376e-13 
-1.87319 -2.14874 1.57666e-12 
-1.67723 -2.0325 8.32391e-12 
-1.41238 -1.93675 -2.14457e-11 
-1.26788 -2.12387 3.76298e-11 
-1.19857 -1.88608 4.59974e-11 
-1.07324 -2.15788 3.84011e-10 
-0.805494 -1.98402 -3.57204e-10 
-0.721501 -2.36664 2.87965e-10 
-0.539171 -2.35089 1.1871e-09 
-0.205807 -2.47626 1.46257e-09 
-0.00332095 -2.53115 -1.22424e-09 
0.467251 -2.40171 -1.17518e-09 
0.601458 -2.25685 -7.17413e-09 
0.704511 -2.43014 5.70729e-09 
0.771142 -2.14894 8.69835e-09 
0.938688 -1.99677 -6.79276e-10 
1.15447 -1.90578 -1.96788e-11 
1.4636 -2.052 -1.40839e-11 
1.63812 -2.13936 2.34829e-11 
1.853 -2.16303 -3.81385e-12 
2.0819 -2.17126 -1.63258e-12 
2.31338 -2.17622 -3.04951e-13 
2.54313 -2.15178 -1.94487e-13 
2.76585 -2.14634 -1.50517e-13 
2.99043 -2.15223 -7.94019e-14 
3.19682 -2.13473 -3.58103e-14 
3.42032 -2.10561 -1.41541e-14 
3.63447 -2.12702 -8.78924e-15 
3.85098 -2.14152 -4.94468e-15 
4.06493 -2.13887 -2.27887e-15 
4.28026 -2.13946 -1.04257e-15 
4.49346 -2.14198 1.65934e-15 
4.7063 -2.13739 6.45385e-16 
4.91757 -2.12877 2.62703e-16 
5.13056 -2.12764 1.24653e-16 
5.34329 -2.13259 6.67406e-17 
5.55908 -2.14007 3.71022e-17 
5.78024 -2.14367 2.14629e-17 
5.99934 -2.13985 2.66255e-17 
6.22542 -2.1278 1.66231e-17 
6.44606 -2.12369 1.37318e-17 
6.66435 -2.12078 3.69152e-18 
6.89801 -2.0996 1.15515e-18 
7.11957 -2.15387 5.7717e-18 
7.34917 -2.16025 4.95496e-19 
7.55377 -2.08273 -6.40198e-19 
7.76172 -2.1555 1.81322e-18 
7.98934 -2.08632 -5.99427e-18 
8.22889 -2.13459 -2.76709e-18 
8.48528 -2.10546 1.04692e-14 
-8.48528 -1.78619 -1.27347e-14 
-8.31593 -1.8635 -3.97557e-18 
-7.89909 -1.92386 -7.5522e-19 
[...]
POINT_DATA 1978 
VECTORS vectors float
-1.81004e-06 0.000126946 1 
-4.74126e-07 0.000355125 1 
-9.28372e-07 0.000440721 1 
-4.22126e-06 0.000543666 1 
-7.23567e-06 0.000696548 1 
-3.63746e-06 0.000862808 1 
-1.17863e-06 0.000965608 1 
-4.93297e-07 0.00108839 0.999999 
2.62381e-07 0.00118888 0.999999 
5.12577e-08 0.00130361 0.999999 
-1.24641e-06 0.00141939 0.999999 
-2.37048e-06 0.00157925 0.999999 
-2.79117e-06 0.00177997 0.999998 
-4.26754e-06 0.00202861 0.999998 
-6.93606e-06 0.00238059 0.999997 
-9.0137e-06 0.00284059 0.999996 
-1.12675e-05 0.003473 0.999994 
-1.39501e-05 0.00436345 0.99999 
-1.82435e-05 0.00561415 0.999984 
-2.23263e-05 0.00740166 0.999973 
-2.50238e-05 0.00982518 0.999952 
-3.36879e-05 0.0130009 0.999915 
-4.7952e-05 0.0168258 0.999858 
-4.2763e-05 0.0219167 0.99976 
-2.10271e-05 0.0279874 0.999608 
-3.3856e-05 0.0354093 0.999373 
-0.0002067 0.0444877 0.99901 
-0.000257094 0.0562075 0.998419 
-0.000254438 0.0741513 0.997247 
-0.000160685 0.0950707 0.995471 
0.000115802 0.120445 0.99272 
0.000507012 0.148902 0.988852 
0.000871579 0.184598 0.982814 
0.00106005 0.232955 0.972487 
0.00134361 0.294212 0.955739 
0.00162043 0.378408 0.925638 
0.00121795 0.486469 0.873697 
-0.00178499 0.617188 0.786814 
-0.00108436 0.939214 0.343331 
0.00445274 0.968194 -0.250162 
0.00382359 0.774002 -0.633171 
3.11722e-05 0.590004 -0.807401 
-0.00174108 0.494722 -0.86905 
-0.00213058 0.392145 -0.919901 
-0.00182794 0.317042 -0.94841 
-0.00140793 0.262442 -0.964947 
-0.000728235 0.206957 -0.97835 
-8.73181e-05 0.160359 -0.987059 
0.000139638 0.121713 -0.992565 
0.000455663 0.0894016 -0.995996 
0.000566515 0.0674671 -0.997721 
0.000244578 0.0526678 -0.998612 
7.85354e-05 0.0419974 -0.999118 
3.0872e-05 0.0336367 -0.999434 
-6.75575e-06 0.026647 -0.999645 
-1.53252e-05 0.0217987 -0.999762 
-1.11919e-05 0.0172381 -0.999851 
1.31086e-05 0.0135512 -0.999908 
2.2601e-05 0.0104541 -0.999945 
2.55126e-05 0.00789821 -0.999969 
2.63484e-05 0.00597311 -0.999982 
1.74695e-05 0.00460904 -0.999989 
9.76692e-06 0.00367527 -0.999993 
6.31166e-06 0.00304078 -0.999995 
5.17192e-06 0.0025814 -0.999997 
5.09954e-06 0.00221179 -0.999998 
5.26653e-06 0.00190707 -0.999998 
5.19662e-06 0.00166051 -0.999999 
4.58857e-06 0.00146512 -0.999999 
4.03244e-06 0.00131542 -0.999999 
3.66501e-06 0.00118344 -0.999999 
3.32103e-06 0.0010596 -0.999999 
4.60473e-06 0.000943861 -1 
5.55301e-06 0.000796596 -1 
3.91717e-06 0.000665244 -1 
3.49365e-06 0.000551618 -1 
2.37589e-06 0.000421463 -1 
1.04837e-06 0.000342892 -1 
1.98198e-06 8.90625e-05 -1 
4.58497e-05 3.9818e-06 1 
5.95044e-06 0.000383544 1 
-2.59075e-05 0.000460589 1 
-5.0027e-05 0.000548151 1 
-6.0244e-05 0.000661875 1 
-7.77518e-05 0.000806717 1 
-0.000128008 0.000927684 1 
-0.000114062 0.00103731 0.999999 
-0.000140855 0.00115313 0.999999 
-0.000138269 0.00127816 0.999999 
-0.000133932 0.00143813 0.999999 
-0.000145633 0.00163109 0.999999 
-0.000166826 0.00186921 0.999998 
-0.000184364 0.00219398 0.999998 
-0.000236527 0.00264488 0.999996 
-0.00031553 0.00326527 0.999995 
-0.000438879 0.00414548 0.999991 
-0.000633458 0.00539979 0.999985 
-0.000893121 0.00711512 0.999974 
-0.00125188 0.00943954 0.999955 
-0.00167616 0.0124474 0.999921 
-0.00221797 0.0162739 0.999865 
-0.00259125 0.0209296 0.999778 
-0.00318706 0.0272267 0.999624 
-0.00349125 0.034654 0.999393 
-0.00370561 0.044258 0.999013 
-0.0038913 0.0565903 0.99839 
-0.00432591 0.0762372 0.99708 
-0.00525227 0.105803 0.994373 
-0.0060017 0.124997 0.992139 
-0.00661317 0.143093 0.989687 
-0.00751098 0.185812 0.982557 
-0.00810085 0.24226 0.970178 
-0.00802009 0.317693 0.94816 
-0.00676895 0.415036 0.90978 
0.0104643 0.508239 0.861152 
-0.00407358 0.54598 0.837788 
-0.00599506 0.730768 0.6826 
-0.00238999 0.845572 0.533856 
-0.0018705 0.999125 0.0417886 
-0.000653812 0.860054 -0.510203 
0.00263264 0.686882 -0.726765 
0.00680095 0.460133 -0.887824 
-0.0051821 0.438243 -0.898842 
0.00746384 0.359356 -0.933171 
-0.00836028 0.342082 -0.939633 
0.00690043 0.286812 -0.957962 
0.00739346 0.227172 -0.973827 
0.00683835 0.168347 -0.985704 
0.00591813 0.120163 -0.992737 
0.00474895 0.0849333 -0.996375 
0.00414732 0.0629737 -0.998007 
0.00374635 0.0483084 -0.998825 
0.00341369 0.0377043 -0.999283 
0.00298475 0.0295705 -0.999558 
0.00282976 0.0233229 -0.999724 
0.00220923 0.0184924 -0.999827 
0.00178299 0.0142951 -0.999896 
0.00132965 0.0109221 -0.999939 
0.000956181 0.00825679 -0.999965 
0.000679897 0.0062425 -0.99998 
0.000489369 0.00478564 -0.999988 
0.000362121 0.00377477 -0.999993 
0.000275153 0.00306646 -0.999995 
0.000215928 0.00254651 -0.999997 
0.000181267 0.00215055 -0.999998 
0.000162303 0.00184154 -0.999998 
0.000149985 0.00159735 -0.999999 
0.000147392 0.00140983 -0.999999 
0.000138447 0.00125731 -0.999999 
0.000130236 0.00112252 -0.999999 
0.000128221 0.0010029 -0.999999 
9.70806e-05 0.000878025 -1 
8.58753e-05 0.00074559 -1 
7.0657e-05 0.000633723 -1 
3.81881e-05 0.000514912 -1 
1.804e-05 0.000441878 -1 
-1.53515e-05 0.000349111 -1 
-6.35252e-05 -6.70469e-06 -1 
6.9612e-05 1.23969e-05 1 
1.47921e-05 0.000433158 1 
-3.81505e-05 0.000504227 1 
-8.11626e-05 0.000579966 1 
-0.00013287 0.00068014 1 
-0.00010643 0.000676187 1 
-0.000139963 0.000800839 1 
-0.000189659 0.000912537 1 
-0.000199414 0.00103735 0.999999 
-0.000218323 0.00117382 0.999999 
-0.000215688 0.00132584 0.999999 
-0.000221543 0.00150191 0.999999 
-0.00023689 0.00171461 0.999999 
-0.000257948 0.00201302 0.999998 
-0.000299054 0.00240625 0.999997 
-0.000379845 0.00297535 0.999995 
-0.000509322 0.00377783 0.999993 
-0.000711247 0.0049214 0.999988 
-0.00102328 0.00653899 0.999978 
-0.00145532 0.00863381 0.999962 
-0.00202787 0.0113343 0.999934 
-0.00271893 0.0147028 0.999888 
-0.0034932 0.0190335 0.999813 
-0.00411448 0.0241375 0.9997 
-0.0046532 0.0309474 0.99951 
-0.00491238 0.0390611 0.999225 
-0.00501987 0.0494416 0.998764 
-0.00511087 0.0637908 0.99795 
-0.00549969 0.0864604 0.99624 
-0.00429634 0.101889 0.994787 
-0.00355694 0.163364 0.986559 
0.00741312 0.202124 0.979332 
-0.00237864 0.22847 0.973548 
0.00128715 0.307913 0.951413 
0.00612873 0.403361 0.91502 
0.0490341 0.472201 0.880126 
0.00532194 0.676134 0.73676 
0.0177919 0.821327 0.57018 
4.50966e-05 0.954016 0.299756 
-0.00480707 0.967043 -0.254569 
-0.0193725 0.88744 -0.460516 
-0.0130316 0.739492 -0.673039 
-0.00102921 0.572332 -0.820021 
-0.0293633 0.490659 -0.870857 
-0.0370537 0.373293 -0.926973 
-0.0266947 0.273677 -0.961451 
-0.00423427 0.256147 -0.966628 
0.00323263 0.203684 -0.979031 
0.00539641 0.154292 -0.98801 
0.00597001 0.113499 -0.99352 
0.00566543 0.0840768 -0.996443 
0.0052834 0.0634933 -0.997968 
0.00501911 0.0490032 -0.998786 
0.00471138 0.0383663 -0.999253 
0.00426539 0.0302282 -0.999534 
0.00387444 0.0244256 -0.999694 
0.00324087 0.0193615 -0.999807 
0.00258891 0.0152258 -0.999881 
0.00192855 0.0117589 -0.999929 
0.00138264 0.00903985 -0.999958 
0.000980596 0.00690979 -0.999976 
0.000704719 0.00528486 -0.999986 
0.000521954 0.00410787 -0.999991 
0.000401931 0.00327095 -0.999995 
0.000324754 0.00266741 -0.999996 
0.000279386 0.00222813 -0.999997 
0.000254868 0.0018957 -0.999998 
0.000241147 0.00163666 -0.999999 
0.000237123 0.00143456 -0.999999 
0.00022933 0.00127108 -0.999999 
0.000217258 0.00113378 -0.999999 
0.000209477 0.0010081 -0.999999 
0.000175145 0.000897539 -1 
0.000145654 0.000782813 -1 
0.000117509 0.00067241 -1 
7.27931e-05 0.000569797 -1 
3.43737e-05 0.000505268 -1 
-2.16747e-05 0.000422963 -1 
-8.90488e-05 4.56044e-05 -1 
9.30074e-05 -4.65626e-05 1 
2.77821e-05 0.000496615 1 
-2.83468e-05 0.000540518 1 
-8.76024e-05 0.000601541 1 
-0.000145214 0.0006979 1 
-0.000171727 0.000779944 1 
-0.000212452 0.000862131 1 
-0.000235805 0.00097757 0.999999 
-0.000248669 0.00109493 0.999999 
-0.000254625 0.00125248 0.999999 
-0.000255144 0.00141521 0.999999 
-0.000257621 0.00161009 0.999999 
-0.000264856 0.00187752 0.999998 
-0.000288433 0.00224349 0.999997 
-0.000339752 0.00274282 0.999996 
-0.000428952 0.00347256 0.999994 
-0.000569694 0.00450637 0.99999 
-0.000796211 0.00596579 0.999982 
-0.0011346 0.00791369 0.999968 
-0.00160986 0.0103048 0.999946 
-0.00222514 0.0132558 0.99991 
-0.00298058 0.0169312 0.999852 
-0.00368758 0.0214499 0.999763 
-0.00419344 0.026729 0.999634 
-0.00431348 0.0336427 0.999425 
-0.00428315 0.0418317 0.999115 
-0.00405594 0.0533144 0.99857 
-0.00412999 0.0687968 0.997622 
-0.00249873 0.0816642 0.996657 
0.000330722 0.12688 0.991918 
0.00937684 0.155491 0.987793 
0.025972 0.209586 0.977445 
0.0197512 0.279902 0.959825 
0.0487686 0.257543 0.965035 
0.0319797 0.365211 0.930375 
0.092789 0.426309 0.899806 
0.0324451 0.603646 0.796592 
0.0494083 0.723775 0.688265 
0.0125303 0.966678 0.255688 
-0.00571854 0.999157 -0.040656 
-0.0492099 0.793264 -0.606886 
-0.0692956 0.676686 -0.733003 
-0.0248619 0.621705 -0.782857 
-0.0720319 0.529031 -0.84554 
-0.0757573 0.393665 -0.916127 
-0.0560649 0.281736 -0.957853 
-0.0175593 0.203795 -0.978856 
-0.00543311 0.1691 -0.985584 
0.000235058 0.130373 -0.991465 
0.00277139 0.0990049 -0.995083 
0.00366079 0.0747844 -0.997193 
0.00399025 0.0575926 -0.998332 
0.00424804 0.0454168 -0.998959 
0.00421519 0.0360528 -0.999341 
0.00389763 0.029278 -0.999564 
0.00336196 0.0232414 -0.999724 
0.002894 0.0185671 -0.999823 
0.00228421 0.0146453 -0.99989 
0.00166884 0.0115311 -0.999932 
0.00116786 0.00897937 -0.999959 
0.00082568 0.00689382 -0.999976 
0.00060355 0.00527469 -0.999986 
0.000459455 0.00408451 -0.999992 
0.00036882 0.00321802 -0.999995 
0.000316415 0.00260738 -0.999997 
0.000289359 0.00216851 -0.999998 
0.000278007 0.00184131 -0.999998 
0.000274913 0.0015948 -0.999999 
0.000274832 0.001395 -0.999999 
0.000270927 0.00123757 -0.999999 
0.000260048 0.00110703 -0.999999 
0.000241691 0.00098356 -1 
0.000206887 0.000875029 -1 
0.000170616 0.000774238 -1 
0.000134277 0.000695267 -1 
8.89501e-05 0.000612875 -1 
3.52009e-05 0.000555811 -1 
-2.82185e-05 0.000486737 -1 
-0.000108338 2.97361e-05 -1 
0.00011083 -3.33422e-05 1 
5.73783e-05 0.000550079 1 
-6.1222e-05 0.000611655 1 
-0.000112644 0.000668155 1 
-0.000159885 0.000738486 1 
-0.000186119 0.000776047 1 
-0.000209861 0.000825038 1 
-0.000237082 0.000909055 1 
-0.00025682 0.00101444 0.999999 
-0.000263392 0.00114196 0.999999 
-0.000260733 0.00128708 0.999999 
-0.000253104 0.00145349 0.999999 
-0.000243338 0.00168908 0.999999 
-0.000241492 0.00199195 0.999998 
-0.000253571 0.0024194 0.999997 
-0.000292591 0.00301486 0.999995 
-0.000354957 0.00387856 0.999992 
-0.000462054 0.00511524 0.999987 
-0.00063667 0.00678839 0.999977 
-0.000905958 0.00893412 0.99996 
-0.0013192 0.0115169 0.999933 
-0.00188303 0.0146867 0.99989 
-0.00251198 0.018504 0.999826 
-0.00295576 0.0230691 0.99973 
-0.00317289 0.0285164 0.999588 
-0.00276188 0.0355225 0.999365 
-0.00241278 0.044846 0.998991 
-0.00148409 0.0576815 0.998334 
0.000590569 0.0687483 0.997634 
0.00172013 0.0969057 0.995292 
0.00941365 0.117656 0.99301 
0.023884 0.155441 0.987556 
0.0450593 0.184777 0.981747 
0.0751737 0.220516 0.972482 
0.0679027 0.333156 0.940423 
0.140191 0.372052 0.917564 
0.0883577 0.581555 0.808695 
0.151316 0.530731 0.833923 
0.0518253 0.878914 0.474157 
0.0330383 0.975554 0.217262 
-0.0278032 0.96792 -0.249716 
-0.125909 0.737919 -0.663041 
-0.134005 0.554283 -0.82147 
-0.127146 0.411848 -0.902339 
-0.0931681 0.288535 -0.952926 
-0.0695105 0.207974 -0.975661 
-0.0407904 0.207187 -0.977451 
-0.0266986 0.156751 -0.987277 
-0.0134258 0.137772 -0.990373 
-0.00586637 0.109794 -0.993937 
-0.0012747 0.0841906 -0.996449 
0.00069176 0.0642671 -0.997933 
0.00181907 0.0498807 -0.998754 
0.00259981 0.0396544 -0.99921 
0.00266201 0.032013 -0.999484 
0.00261753 0.0259117 -0.999661 
0.00221854 0.0202027 -0.999793 
0.00183949 0.0161734 -0.999867 
0.00130729 0.0128685 -0.999916 
0.000885589 0.0101296 -0.999948 
0.000605596 0.00779426 -0.999969 
0.000447882 0.00593949 -0.999982 
0.000349967 0.00453846 -0.99999 
0.000294655 0.00350975 -0.999994 
0.000264669 0.00278429 -0.999996 
0.000255668 0.00228199 -0.999997 
0.000259023 0.00192253 -0.999998 
0.00026699 0.0016519 -0.999999 
0.000276389 0.00144088 -0.999999 
0.000280406 0.00126746 -0.999999 
0.000275046 0.00112982 -0.999999 
0.000258467 0.00101368 -0.999999 
0.000225146 0.000896829 -1 
0.000187809 0.00080595 -1 
0.00013783 0.000720449 -1 
7.9698e-05 0.000639699 -1 
1.53029e-05 0.000591336 -1 
-5.03934e-05 0.000535465 -1 
-0.000120938 4.7498e-05 -1 
9.86262e-05 4.79841e-05 1 
3.90261e-05 0.000627349 1 
-2.02021e-06 0.000590354 1 
-5.63739e-05 0.00064963 1 
-0.000107752 0.000694117 1 
-0.000184967 0.000787168 1 
-0.000225874 0.000868022 1 
-0.000248012 0.000947753 1 
-0.000259215 0.00106338 0.999999 
-0.000255772 0.00118314 0.999999 
-0.00023918 0.00133743 0.999999 
-0.000223402 0.00153636 0.999999 
-0.000201512 0.00180723 0.999998 
-0.000189724 0.00216396 0.999998 
-0.000187706 0.0026789 0.999996 
-0.000200985 0.00338551 0.999994 
-0.000224761 0.00441435 0.99999 
-0.000269401 0.00583118 0.999983 
-0.000365756 0.00767649 0.99997 
-0.000561122 0.0100081 0.99995 
-0.000904329 0.0127769 0.999918 
-0.00134531 0.0160642 0.99987 
-0.00174051 0.0198763 0.999801 
-0.00190013 0.0244607 0.999699 
-0.00175503 0.0298447 0.999553 
-0.000959961 0.0374886 0.999297 
-2.10992e-05 0.0471135 0.99889 
0.00224783 0.0546927 0.998501 
0.00457508 0.074415 0.997217 
0.00935039 0.090945 0.995812 
0.0197294 0.115326 0.993132 
0.0353324 0.13257 0.990544 
0.0575736 0.151618 0.986761 
0.0895046 0.16991 0.981387 
0.104153 0.284633 0.952962 
0.126278 0.216767 0.968022 
0.174595 0.280588 0.943815 
0.211417 0.42533 0.879998 
0.114188 0.730303 0.673512 
-0.0179804 0.998345 -0.0546383 
-0.0738102 0.893086 -0.44379 
-0.210768 0.61297 -0.761476 
-0.199245 0.416908 -0.886842 
-0.168359 0.24349 -0.95518 
-0.136298 0.293105 -0.946315 
-0.0987857 0.19221 -0.976369 
-0.0481635 0.157855 -0.986287 
-0.0310332 0.122144 -0.992027 
-0.0175157 0.107697 -0.994029 
-0.00876511 0.0884247 -0.996044 
-0.00412865 0.0694621 -0.997576 
-0.00152306 0.0542374 -0.998527 
0.000132325 0.0427847 -0.999084 
0.000932083 0.0348715 -0.999391 
0.00129975 0.0284083 -0.999596 
0.00149254 0.0230393 -0.999733 
0.00113635 0.0183541 -0.999831 
0.000843004 0.0149337 -0.999888 
0.00050033 0.0119529 -0.999928 
0.000306474 0.00939012 -0.999956 
0.000216511 0.0072295 -0.999974 
0.000189765 0.00552168 -0.999985 
0.000181293 0.00420464 -0.999991 
0.000181048 0.0032615 -0.999995 
0.000187205 0.00260115 -0.999997 
0.000203095 0.00214507 -0.999998 
0.00022383 0.00182045 -0.999998 
0.000245186 0.00156953 -0.999999 
0.000263161 0.00137191 -0.999999 
0.000269965 0.00121112 -0.999999 
0.000264969 0.00108101 -0.999999 
0.000245528 0.000965545 -0.999999 
0.000212073 0.000871468 -1 
0.0001726 0.000792475 -1 
0.00012448 0.000730718 -1 
8.12562e-05 0.000674294 -1 
2.60598e-05 0.000641455 -1 
-3.92374e-05 0.000604648 -1 
-0.000113651 7.01571e-05 -1 
6.81415e-05 9.27214e-05 1 
2.08938e-05 0.000678443 1 
-1.53997e-05 0.000652717 1 
-7.20189e-05 0.000691867 1 
-0.000137941 0.000735088 1 
-0.000165586 0.00077731 1 
-0.000205125 0.000833148 1 
-0.000230979 0.000905201 1 
-0.000246502 0.000995543 0.999999 
-0.000238785 0.00110407 0.999999 
-0.000224078 0.0012334 0.999999 
-0.000195337 0.00142731 0.999999 
-0.000170488 0.0016573 0.999999 
-0.000137955 0.0019879 0.999998 
-0.000117024 0.00242884 0.999997 
-9.4802e-05 0.00306219 0.999995 
-7.51251e-05 0.00393443 0.999992 
-4.47209e-05 0.00516055 0.999987 
-2.3819e-05 0.00680486 0.999977 
-7.04739e-05 0.00891408 0.99996 
-0.000232452 0.0115107 0.999934 
-0.000520695 0.0145147 0.999895 
-0.000806004 0.0179682 0.999838 
-0.000966005 0.021963 0.999758 
-0.000789819 0.0266399 0.999645 
-0.000309696 0.032414 0.999474 
0.00109309 0.0404151 0.999182 
0.00337962 0.0476613 0.998858 
0.00617758 0.0617274 0.998074 
0.0115672 0.07488 0.997125 
0.0199008 0.0922254 0.995539 
0.033264 0.101722 0.994257 
0.056788 0.116716 0.99154 
0.0872208 0.122774 0.988595 
0.134667 0.148707 0.979669 
0.193039 0.18814 0.962985 
0.257393 0.314 0.913867 
0.304425 0.524214 0.795314 
0.208375 0.655246 0.726108 
0.125789 0.878228 0.461403 
-0.151363 0.874968 -0.459913 
-0.307522 0.534382 -0.787316 
-0.248455 0.321953 -0.913573 
-0.189423 0.164194 -0.96807 
-0.129957 0.159304 -0.978638 
-0.0910627 0.120869 -0.988483 
-0.0679874 0.140305 -0.987771 
-0.0449712 0.112401 -0.992645 
-0.0249137 0.0910397 -0.995536 
-0.015014 0.0807786 -0.996619 
-0.00845063 0.0667722 -0.997732 
-0.00443936 0.053578 -0.998554 
-0.00188191 0.0429191 -0.999077 
-0.000615082 0.0345262 -0.999404 
7.97867e-05 0.0287108 -0.999588 
0.000480955 0.023619 -0.999721 
0.000415726 0.019305 -0.999814 
0.00011781 0.0153966 -0.999881 
-4.99254e-05 0.0124452 -0.999923 
-0.000113041 0.00978287 -0.999952 
-8.15101e-05 0.00756277 -0.999971 
-1.92448e-05 0.00576017 -0.999983 
3.93017e-05 0.00439454 -0.99999 
7.85075e-05 0.00337893 -0.999994 
0.000109375 0.00267428 -0.999996 
0.000140805 0.00218255 -0.999998 
0.000173714 0.00183824 -0.999998 
0.000205992 0.00158315 -0.999999 
0.000232714 0.00137704 -0.999999 
0.000246093 0.00121199 -0.999999 
0.000246991 0.00107604 -0.999999 
0.000237256 0.000970604 -1 
0.000205636 0.000876244 -1 
0.000167008 0.00080259 -1 
0.000116958 0.000743614 -1 
6.76291e-05 0.000694829 -1 
1.53368e-05 0.00067246 -1 
-3.77646e-05 0.000647924 -1 
-8.66562e-05 3.80112e-05 -1 
3.92233e-05 0.000133749 1 
3.23059e-06 0.000707836 1 
-3.03833e-05 0.000690855 1 
-7.04877e-05 0.000719242 1 
-0.000111827 0.000729893 1 
-0.000154997 0.000778071 1 
-0.000196625 0.00083484 1 
-0.000214928 0.000902094 1 
-0.000223707 0.000992145 0.999999 
-0.000203242 0.00108981 0.999999 
-0.000185855 0.00125272 0.999999 
-0.000146436 0.00144144 0.999999 
-0.000116572 0.00170257 0.999999 
-7.45929e-05 0.00204045 0.999998 
-4.32855e-05 0.0025161 0.999997 
-6.99878e-07 0.00316862 0.999995 
5.08954e-05 0.00408922 0.999992 
0.000127182 0.00534211 0.999986 
0.000205862 0.00705957 0.999975 
0.00022465 0.00928097 0.999957 
0.000132662 0.011972 0.999928 
-6.70971e-05 0.01501 0.999887 
-0.000255071 0.0184736 0.999829 
-0.000292771 0.0223606 0.99975 
-2.24268e-05 0.0269512 0.999637 
0.000699784 0.0328488 0.99946 
0.00224291 0.0381849 0.999268 
0.00568335 0.0484736 0.998808 
0.00984007 0.0589722 0.998211 
0.0171065 0.0702214 0.997385 
0.026302 0.0768543 0.996695 
0.0433565 0.0880089 0.995176 
0.0667089 0.0840879 0.994223 
0.103526 0.0870645 0.990809 
0.155498 0.0918881 0.983553 
0.237552 0.129922 0.962647 
0.322339 0.250839 0.912786 
0.419516 0.444631 0.791397 
0.278023 0.808499 0.518683 
0.0124502 0.998502 0.0532849 
-0.274497 0.827364 -0.49002 
-0.427114 0.45613 -0.780717 
-0.309597 0.248724 -0.917761 
-0.224826 0.110776 -0.968082 
-0.128153 0.0896601 -0.987693 
-0.0861549 0.0718063 -0.993691 
-0.0616916 0.094277 -0.993633 
-0.0375454 0.0854848 -0.995632 
-0.0226492 0.071656 -0.997172 
-0.013543 0.0629823 -0.997923 
-0.00789801 0.0534009 -0.998542 
-0.00411905 0.0441361 -0.999017 
-0.00201869 0.0364149 -0.999335 
-0.00100463 0.0300405 -0.999548 
-0.000450597 0.0253532 -0.999678 
-0.000273313 0.0212293 -0.999775 
-0.00032717 0.0174751 -0.999847 
-0.000505016 0.0140821 -0.999901 
-0.000500908 0.0113072 -0.999936 
-0.000410341 0.00888533 -0.99996 
-0.000269665 0.00686624 -0.999976 
-0.000144486 0.00525354 -0.999986 
-5.12664e-05 0.00402991 -0.999992 
7.54594e-06 0.00313445 -0.999995 
5.25289e-05 0.00250401 -0.999997 
9.1948e-05 0.00206569 -0.999998 
0.000131698 0.00175098 -0.999998 
0.000171461 0.0015089 -0.999999 
0.000199038 0.00131712 -0.999999 
0.000215271 0.00115712 -0.999999 
0.000219546 0.001027 -0.999999 
0.000212042 0.000936602 -1 
0.000183994 0.000859566 -1 
0.000154548 0.000802457 -1 
0.000109468 0.000754042 -1 
6.54028e-05 0.000715141 -1 
2.11258e-05 0.00069989 -1 
-2.34992e-05 0.000686686 -1 
-4.92647e-05 7.22263e-05 -1 
1.49227e-05 0.000131581 1 
-7.73449e-06 0.000726764 1 
-3.41277e-05 0.000717698 1 
-7.2301e-05 0.000736316 1 
-0.000112416 0.000746624 1 
-0.000137565 0.000775975 1 
-0.000173256 0.000815896 1 
-0.00018661 0.00086782 1 