# vtk DataFile Version 3.0 
Exported using Morpho https://github.com/Morpho-lang/morpho 
ASCII 
DATASET UNSTRUCTURED_GRID 

POINTS 1978 float 
-8.48528 -2.82843 -1.20321e-13 
-8.25618 -2.82843 -1.03124e-13 
-8.0339 -2.82843 -3.6513e-14 
-7.78652 -2.82843 -1.28331e-13 
-7.47156 -2.82843 -1.58835e-13 
-7.16507 -2.82843 -1.48056e-14 
-6.97406 -2.82843 -7.92147e-15 
-6.74386 -2.82843 -7.81138e-14 
-6.55354 -2.82843 7.16363e-14 
-6.35841 -2.82843 -2.35226e-13 
-6.16469 -2.82843 1.71617e-13 
-5.95052 -2.82843 -1.1403e-13 
-5.74044 -2.82843 -1.18341e-13 
-5.53936 -2.82843 -2.42558e-13 
-5.32224 -2.82843 -1.69615e-13 
-5.11046 -2.82843 -2.63723e-13 
-4.8994 -2.82843 -5.52525e-13 
-4.6893 -2.82843 -8.55591e-13 
-4.48338 -2.82843 -1.26216e-12 
-4.27378 -2.82843 -1.88782e-12 
-4.06566 -2.82843 -3.12092e-12 
-3.85688 -2.82843 -4.92663e-12 
-3.65524 -2.82843 -6.63811e-12 
-3.43837 -2.82843 -8.22632e-12 
-3.23707 -2.82843 -1.90258e-11 
-3.03464 -2.82843 -2.60519e-11 
-2.83207 -2.82843 -2.70738e-11 
-2.60852 -2.82843 -6.90749e-11 
-2.38971 -2.82843 -6.46307e-11 
-2.17588 -2.82843 -1.367e-10 
-1.97796 -2.82843 -2.0515e-10 
-1.79097 -2.82843 -2.22819e-10 
-1.62525 -2.82843 2.81568e-10 
-1.45908 -2.82843 5.02521e-10 
-1.29672 -2.82843 3.82658e-09 
-1.12237 -2.82843 1.18247e-08 
-0.935532 -2.82843 3.80907e-08 
-0.743612 -2.82843 1.25557e-07 
-0.249207 -2.82842 2.70573e-07 
0.158673 -2.82842 1.12615e-07 
0.516181 -2.82843 -1.22234e-06 
0.787542 -2.82842 7.67779e-07 
0.93545 -2.82843 -5.45538e-08 
1.11436 -2.82843 -1.02186e-08 
1.26467 -2.82843 -1.51009e-09 
1.3978 -2.82843 -1.91608e-09 
1.57638 -2.82843 -2.93719e-10 
1.76589 -2.82843 -6.78608e-11 
1.96609 -2.82843 -5.96157e-11 
2.17707 -2.82843 1.42934e-10 
2.41521 -2.82843 1.02361e-10 
2.63628 -2.82843 5.55008e-11 
2.84672 -2.82843 2.67223e-11 
3.05062 -2.82843 2.86273e-11 
3.25755 -2.82843 9.58916e-12 
3.4391 -2.82843 7.46817e-12 
3.63999 -2.82843 8.78242e-12 
3.83693 -2.82843 4.24961e-12 
4.0414 -2.82843 3.12388e-12 
4.25187 -2.82843 1.28135e-12 
4.46538 -2.82843 2.03311e-12 
4.67803 -2.82843 7.54765e-13 
4.88736 -2.82843 7.11089e-13 
5.09311 -2.82843 1.75301e-13 
5.29833 -2.82843 1.25628e-13 
5.50908 -2.82843 1.15097e-13 
5.72476 -2.82843 1.99128e-13 
5.94358 -2.82843 1.84713e-13 
6.16739 -2.82843 1.38564e-13 
6.3846 -2.82843 8.00061e-14 
6.60865 -2.82843 3.17024e-14 
6.83567 -2.82843 3.5826e-14 
7.04651 -2.82843 -2.63125e-15 
7.30547 -2.82843 7.88562e-14 
7.54547 -2.82843 8.86751e-14 
7.76394 -2.82843 1.03202e-13 
8.03615 -2.82843 1.06391e-13 
8.22848 -2.82843 1.49781e-13 
8.48528 -2.82843 1.78706e-14 
-8.48528 -2.58493 2.01238e-13 
-8.26526 -2.5934 4.00331e-17 
-8.03947 -2.58326 6.39543e-17 
-7.80589 -2.60923 4.27935e-17 
-7.54537 -2.65778 1.23567e-16 
-7.24696 -2.65127 1.17278e-16 
-6.98568 -2.54822 5.21697e-17 
-6.78693 -2.60635 -1.63996e-17 
-6.55719 -2.56302 3.42232e-16 
-6.34766 -2.57285 1.34947e-16 
-6.11665 -2.59904 7.57751e-17 
-5.88963 -2.59245 3.07741e-16 
-5.67488 -2.58016 5.90025e-16 
-5.45264 -2.60084 1.17582e-15 
-5.22809 -2.59811 2.71588e-15 
-5.00617 -2.6 6.91847e-15 
-4.78634 -2.60026 1.85575e-14 
-4.56955 -2.59541 5.08682e-14 
-4.35441 -2.59897 1.35242e-13 
-4.13837 -2.59655 3.3258e-13 
-3.92305 -2.5972 7.4776e-13 
-3.7081 -2.58967 1.47374e-12 
-3.49358 -2.60843 2.89132e-12 
-3.2663 -2.59154 5.71159e-12 
-3.05004 -2.59372 1.00914e-11 
-2.82755 -2.59467 1.86522e-11 
-2.60521 -2.61228 3.94924e-11 
-2.35104 -2.62031 1.03988e-10 
-2.0933 -2.60411 2.40736e-10 
-1.94079 -2.40885 5.14314e-10 
-1.8474 -2.59583 6.16308e-10 
-1.64521 -2.55291 1.52938e-09 
-1.44902 -2.56469 4.21957e-09 
-1.25491 -2.5905 8.35345e-09 
-1.05616 -2.61483 1.58569e-08 
-0.881356 -2.42914 2.63935e-08 
-0.839937 -2.63033 4.06703e-08 
-0.591717 -2.75755 2.93993e-09 
-0.429826 -2.68639 1.29072e-07 
-0.0451793 -2.72579 -9.33889e-08 
0.381238 -2.71482 -1.03865e-07 
0.640413 -2.68879 -8.44411e-08 
0.99834 -2.64278 -2.32346e-08 
1.00141 -2.43505 -1.40421e-08 
1.18184 -2.59129 -1.20059e-08 
1.16981 -2.3397 -5.90094e-09 
1.34127 -2.52484 -5.80202e-09 
1.51545 -2.59698 -3.37611e-09 
1.72991 -2.60577 -1.17242e-09 
1.96615 -2.60315 -4.00103e-10 
2.22794 -2.61859 -1.33616e-10 
2.48236 -2.60766 -6.15429e-11 
2.72154 -2.60195 -2.52006e-11 
2.95082 -2.59977 -1.25255e-11 
3.17653 -2.60642 -6.14387e-12 
3.39395 -2.56941 -4.15989e-12 
3.59834 -2.59702 -1.86165e-12 
3.81728 -2.59142 -9.94952e-13 
4.03435 -2.59553 -4.69888e-13 
4.25367 -2.59783 -2.24321e-13 
4.47514 -2.59853 -6.97235e-14 
4.69395 -2.5971 -2.61149e-14 
4.90769 -2.59335 -1.00762e-14 
5.11956 -2.59152 -4.178e-15 
5.33474 -2.59572 -1.95204e-15 
5.55438 -2.59824 -1.01313e-15 
5.77734 -2.59828 -5.71146e-16 
6.00409 -2.6002 -3.31586e-16 
6.22714 -2.59002 -2.09675e-16 
6.45216 -2.5947 -3.75723e-16 
6.6816 -2.59502 -1.86633e-16 
6.89844 -2.5741 -8.12692e-17 
7.13903 -2.6196 -9.77467e-17 
7.38962 -2.60315 -1.02773e-16 
7.61441 -2.58118 -5.14998e-17 
7.86328 -2.62913 -6.54618e-17 
8.06844 -2.54685 -2.31151e-17 
8.29522 -2.61672 -1.19527e-17 
8.48528 -2.54223 -1.42775e-13 
-8.48528 -2.33978 1.76916e-13 
-8.26315 -2.35288 -3.8028e-17 
-8.02467 -2.35012 -2.81981e-18 
-7.78301 -2.39124 2.97955e-17 
-7.54954 -2.25758 2.90722e-17 
-7.52365 -2.4679 7.92928e-17 
-7.24734 -2.44838 6.11425e-17 
-6.98577 -2.33669 1.04589e-16 
-6.72974 -2.36088 1.44631e-16 
-6.48489 -2.32815 1.26073e-16 
-6.25133 -2.36283 1.90954e-16 
-6.02575 -2.36615 3.19476e-16 
-5.80878 -2.34542 5.55293e-16 
-5.58039 -2.35795 1.054e-15 
-5.36153 -2.37348 2.23418e-15 
-5.13623 -2.37445 5.22889e-15 
-4.91416 -2.37555 1.33914e-14 
-4.69545 -2.37215 3.56558e-14 
-4.47535 -2.36938 9.3499e-14 
-4.25997 -2.37023 2.31442e-13 
-4.04324 -2.36734 5.36122e-13 
-3.82885 -2.36426 1.14473e-12 
-3.6073 -2.36692 2.32152e-12 
-3.39429 -2.38237 4.52599e-12 
-3.16951 -2.35789 8.30735e-12 
-2.95378 -2.36538 1.52993e-11 
-2.73312 -2.36781 2.85817e-11 
-2.50305 -2.41487 6.38712e-11 
-2.23918 -2.42821 1.74102e-10 
-2.08629 -2.25036 1.42915e-10 
-1.71937 -2.31264 1.04115e-09 
-1.51663 -2.14429 9.64999e-10 
-1.47899 -2.34067 2.25601e-09 
-1.26371 -2.36109 5.76608e-09 
-1.06069 -2.38604 1.44759e-08 
-0.861011 -2.18978 1.70021e-08 
-0.652916 -2.55997 5.34559e-08 
-0.43065 -2.50905 1.4841e-07 
-0.221635 -2.64508 1.05845e-07 
0.168056 -2.66631 -1.29776e-07 
0.330084 -2.55014 -1.26329e-07 
0.556638 -2.54754 -4.98601e-08 
0.8127 -2.58515 -3.73456e-08 
0.876089 -2.30844 -4.22431e-08 
1.04675 -2.1641 -4.8912e-09 
1.25906 -2.09979 -1.48874e-09 
1.37725 -2.29376 -3.06561e-09 
1.56565 -2.3656 -1.9303e-09 
1.77715 -2.38817 -9.28736e-10 
2.00745 -2.4004 -3.53703e-10 
2.24345 -2.39983 -1.30648e-10 
2.47816 -2.38338 -5.34097e-11 
2.71022 -2.38043 -2.65885e-11 
2.93869 -2.37625 -1.36006e-11 
3.16278 -2.3829 -7.71671e-12 
3.37008 -2.33154 -3.53757e-12 
3.58223 -2.35594 -2.2458e-12 
3.79282 -2.36475 -1.19378e-12 
4.01294 -2.36863 -5.80096e-13 
4.23149 -2.3704 -2.63821e-13 
4.44837 -2.37085 -1.1248e-13 
4.66468 -2.36854 -4.50816e-14 
4.87926 -2.36164 -1.75793e-14 
5.09109 -2.35804 -7.07312e-15 
5.30389 -2.36343 -3.0638e-15 
5.51884 -2.36893 -1.48887e-15 
5.73853 -2.37035 -1.05353e-15 
5.9628 -2.37255 -6.55777e-16 
6.18695 -2.35839 -4.04915e-16 
6.41299 -2.35929 -2.56422e-16 
6.63717 -2.36312 -2.60382e-16 
6.8605 -2.32919 -1.61179e-16 
7.08754 -2.38385 -5.88332e-17 
7.31947 -2.39175 -7.03233e-17 
7.55906 -2.3426 -8.76713e-17 
7.79436 -2.39501 -4.56074e-17 
8.00716 -2.3152 -9.77253e-19 
8.24933 -2.35956 1.8815e-17 
8.48528 -2.31458 -1.19097e-13 
-8.48528 -2.09842 7.80333e-14 
-8.25706 -2.09985 -7.52261e-17 
-8.05156 -2.11506 2.62827e-17 
-7.80201 -2.16166 2.61671e-17 
-7.53875 -2.05095 4.33274e-17 
-7.28902 -2.25539 8.31402e-17 
-7.08682 -2.12834 4.08573e-17 
-6.82429 -2.13568 1.67416e-16 
-6.59379 -2.13102 -1.99809e-16 
-6.33222 -2.12685 2.53523e-16 
-6.11095 -2.13423 3.32462e-16 
-5.89569 -2.11001 5.63483e-16 
-5.67302 -2.1252 5.21706e-16 
-5.45315 -2.13226 9.99841e-16 
-5.23976 -2.14931 2.17872e-15 
-5.02101 -2.15023 5.07816e-15 
-4.80531 -2.14733 1.23789e-14 
-4.58904 -2.14681 3.14239e-14 
-4.37408 -2.14033 7.41802e-14 
-4.16275 -2.13994 1.69128e-13 
-3.95034 -2.13482 3.6153e-13 
-3.73466 -2.14035 7.78377e-13 
-3.51925 -2.13877 1.50641e-12 
-3.31222 -2.15006 2.72483e-12 
-3.0924 -2.12303 4.56042e-12 
-2.88361 -2.13309 8.61611e-12 
-2.65409 -2.15563 1.86667e-11 
-2.42516 -2.2179 2.99595e-11 
-2.25976 -2.11525 6.18324e-11 
-1.87776 -2.13787 1.07689e-10 
-1.6825 -2.01903 2.42659e-10 
-1.40975 -1.94555 -5.90482e-10 
-1.2637 -2.13266 4.51457e-09 
-1.20198 -1.89239 -4.41425e-09 
-1.0667 -2.16774 -9.90773e-10 
-0.826701 -1.98538 -6.65064e-09 
-0.712685 -2.35431 5.69288e-08 
-0.528893 -2.34744 9.68112e-08 
-0.165684 -2.49248 5.81917e-08 
0.0283216 -2.52772 2.36807e-07 
0.438271 -2.39679 -1.25439e-07 
0.585918 -2.27931 -5.0185e-08 
0.718319 -2.42486 -5.61154e-08 
0.755916 -2.15584 1.54431e-10 
0.92307 -2.01239 -3.68615e-09 
1.14327 -1.92313 8.4454e-10 
1.47013 -2.04943 -5.3067e-10 
1.64767 -2.13868 -1.00863e-11 
1.86134 -2.16624 -2.31001e-10 
2.08696 -2.17797 -1.30857e-10 
2.32084 -2.17139 -5.58396e-11 
2.55017 -2.15282 -2.32375e-11 
2.76971 -2.14902 -1.169e-11 
2.9907 -2.15008 -5.97748e-12 
3.19423 -2.13567 -3.03862e-12 
3.41874 -2.10123 -1.33917e-12 
3.63178 -2.12647 -8.91961e-13 
3.85048 -2.14118 -4.87927e-13 
4.06547 -2.14209 -2.29031e-13 
4.27922 -2.14047 -9.5334e-14 
4.49243 -2.14043 -3.76063e-14 
4.70516 -2.13727 -1.45229e-14 
4.91628 -2.12839 -5.8909e-15 
5.12932 -2.12729 -2.79079e-15 
5.34182 -2.13231 -1.48014e-15 
5.55761 -2.1398 -8.33614e-16 
5.77898 -2.14357 -4.88839e-16 
5.99851 -2.13969 -5.39805e-16 
6.22449 -2.1277 -3.44454e-16 
6.44596 -2.12382 -2.73281e-16 
6.66344 -2.12069 -8.83071e-17 
6.89804 -2.09881 -3.71285e-17 
7.12002 -2.15353 -1.18217e-16 
7.35015 -2.16037 -1.81036e-17 
7.55528 -2.08318 6.23251e-18 
7.76305 -2.15624 -3.56521e-17 
7.98953 -2.08562 1.12339e-16 
8.22864 -2.13493 4.14e-17 
8.48528 -2.10541 -1.91402e-13 
-8.48528 -1.78606 2.32969e-13 
-8.316 -1.86052 -3.21541e-17 
-7.89963 -1.92432 1.30111e-17 
[...]
POINT_DATA 1978 
VECTORS vectors float
1.50894e-06 0.000268087 1 
-4.91715e-06 0.000354644 1 
-4.77976e-06 0.000440223 1 
-3.55534e-06 0.000543327 1 
-3.61114e-06 0.000697229 1 
-8.57914e-06 0.000864471 1 
-1.22566e-05 0.000967546 1 
-1.44449e-05 0.00109002 0.999999 
-1.394e-05 0.00119099 0.999999 
-1.47075e-05 0.00130531 0.999999 
-1.65532e-05 0.00142054 0.999999 
-1.95336e-05 0.0015799 0.999999 
-2.21556e-05 0.00177994 0.999998 
-2.80291e-05 0.00202762 0.999998 
-3.63209e-05 0.00237811 0.999997 
-4.81985e-05 0.00283561 0.999996 
-6.71787e-05 0.00346428 0.999994 
-9.48834e-05 0.00434957 0.999991 
-0.000136465 0.00559501 0.999984 
-0.000192948 0.00737862 0.999973 
-0.000259593 0.00980184 0.999952 
-0.000325383 0.0129812 0.999916 
-0.0004216 0.0168093 0.999859 
-0.000532663 0.0218997 0.99976 
-0.000618813 0.0279847 0.999608 
-0.000733981 0.0354122 0.999373 
-0.000784852 0.0445077 0.999009 
-0.0011129 0.0561519 0.998422 
-0.00143794 0.0742343 0.99724 
-0.00173449 0.0950152 0.995474 
-0.00214542 0.120371 0.992727 
-0.0026442 0.148593 0.988895 
-0.00336046 0.184248 0.982874 
-0.00416051 0.232467 0.972595 
-0.00556136 0.293724 0.955874 
-0.00703561 0.378009 0.925775 
-0.00735865 0.485868 0.874001 
-0.00742826 0.616446 0.787363 
-0.00534076 0.939629 0.342154 
-0.00472528 0.968423 -0.249266 
0.00240537 0.773861 -0.633351 
0.006268 0.588943 -0.80815 
0.00671444 0.49414 -0.869357 
0.00644267 0.391635 -0.920098 
0.00516316 0.316528 -0.948569 
0.00433663 0.261916 -0.965081 
0.00395909 0.206709 -0.978394 
0.00319161 0.160293 -0.987064 
0.00265267 0.12174 -0.992559 
0.00191748 0.0892522 -0.996007 
0.00116088 0.0674549 -0.997722 
0.000927014 0.0526603 -0.998612 
0.000791215 0.0420018 -0.999117 
0.000690759 0.033636 -0.999434 
0.000564354 0.026632 -0.999645 
0.000454499 0.021791 -0.999762 
0.000409181 0.017225 -0.999852 
0.000319344 0.0135367 -0.999908 
0.000259407 0.0104408 -0.999945 
0.000198728 0.00788111 -0.999969 
0.000138491 0.00595473 -0.999982 
9.7271e-05 0.00459669 -0.999989 
6.8477e-05 0.00366713 -0.999993 
4.90333e-05 0.00303681 -0.999995 
3.77626e-05 0.00258042 -0.999997 
3.10297e-05 0.00221202 -0.999998 
2.57418e-05 0.00190764 -0.999998 
2.14523e-05 0.00166116 -0.999999 
1.78375e-05 0.00146604 -0.999999 
1.55814e-05 0.00131678 -0.999999 
1.46169e-05 0.0011851 -0.999999 
1.29479e-05 0.00106139 -0.999999 
1.23669e-05 0.000945523 -1 
1.14999e-05 0.000797616 -1 
9.46933e-06 0.000665731 -1 
8.87521e-06 0.000551554 -1 
6.5663e-06 0.000420715 -1 
4.56975e-06 0.00034208 -1 
-1.06593e-06 0.000239094 -1 
4.78339e-05 0.000307295 1 
5.52926e-06 0.00038564 1 
-2.6725e-05 0.000460465 1 
-5.15031e-05 0.000548725 1 
-6.17348e-05 0.000662021 1 
-7.93347e-05 0.000807531 1 
-0.000129572 0.000928864 1 
-0.000116053 0.00103929 1 
-0.000142546 0.00115471 0.999999 
-0.000140407 0.00127937 0.999999 
-0.00013587 0.00143942 0.999999 
-0.000147852 0.0016322 0.999999 
-0.000169216 0.00187005 0.999998 
-0.000187368 0.00219426 0.999998 
-0.00024061 0.00264392 0.999997 
-0.000321157 0.00326182 0.999995 
-0.000446705 0.0041386 0.999991 
-0.000644945 0.00539013 0.999985 
-0.000910511 0.00710275 0.999974 
-0.0012766 0.00942411 0.999955 
-0.001709 0.0124297 0.999921 
-0.00226252 0.0162536 0.999865 
-0.00265162 0.0208998 0.999778 
-0.00326251 0.0271878 0.999625 
-0.00355876 0.0346266 0.999394 
-0.00381701 0.0442123 0.999015 
-0.0039891 0.0564897 0.998395 
-0.00448477 0.0760814 0.997092 
-0.00544948 0.105901 0.994362 
-0.00619952 0.125031 0.992134 
-0.00693391 0.143223 0.989666 
-0.00784815 0.185407 0.98263 
-0.00856013 0.242201 0.970188 
-0.00864041 0.317406 0.94825 
-0.00748245 0.414643 0.909954 
0.00965526 0.509038 0.86069 
-0.00499814 0.546799 0.837249 
-0.00727526 0.7326 0.68062 
-0.00323103 0.84317 0.537638 
-0.00190231 0.999168 0.0407283 
0.000197449 0.860214 -0.509932 
0.00370312 0.689801 -0.72399 
0.00761254 0.460683 -0.887532 
-0.00433327 0.438667 -0.898639 
0.00812262 0.359735 -0.933019 
-0.00816835 0.341758 -0.939753 
0.00737422 0.287319 -0.957807 
0.00780709 0.22727 -0.9738 
0.00716318 0.168064 -0.98575 
0.00614482 0.119542 -0.99281 
0.00494012 0.0845513 -0.996407 
0.00427267 0.0627564 -0.99802 
0.00385296 0.0482291 -0.998829 
0.00349879 0.0376843 -0.999284 
0.00305553 0.029546 -0.999559 
0.00289433 0.0233139 -0.999724 
0.00225326 0.0184854 -0.999827 
0.00182082 0.0142815 -0.999896 
0.0013571 0.0109026 -0.99994 
0.000973028 0.00823707 -0.999966 
0.000693482 0.00623113 -0.99998 
0.000498301 0.00477454 -0.999989 
0.000368424 0.00376776 -0.999993 
0.000279613 0.00306296 -0.999995 
0.000219365 0.00254532 -0.999997 
0.000184224 0.00215061 -0.999998 
0.000164961 0.00184213 -0.999998 
0.000152395 0.0015982 -0.999999 
0.000149612 0.00141097 -0.999999 
0.000140604 0.00125878 -0.999999 
0.000132208 0.00112409 -0.999999 
0.000130137 0.00100445 -1 
9.88441e-05 0.000879389 -1 
8.75354e-05 0.000746573 -1 
7.2e-05 0.000634252 -1 
3.93361e-05 0.000514832 -1 
1.88046e-05 0.000441678 -1 
-1.49656e-05 0.000351598 -1 
-6.56501e-05 0.000295105 -1 
7.20102e-05 0.000364671 1 
1.43253e-05 0.000436574 1 
-3.90296e-05 0.000504603 1 
-8.23582e-05 0.000580559 1 
-0.000134087 0.000680762 1 
-0.000107903 0.000677591 1 
-0.00014171 0.000802377 1 
-0.000191692 0.000913722 1 
-0.000201339 0.00103811 1 
-0.000220232 0.00117513 0.999999 
-0.000217643 0.00132731 0.999999 
-0.000223585 0.00150321 0.999999 
-0.000238962 0.00171535 0.999999 
-0.000260131 0.00201292 0.999998 
-0.000301576 0.0024051 0.999997 
-0.000383083 0.00297249 0.999996 
-0.000513568 0.00377215 0.999993 
-0.000717039 0.00491371 0.999988 
-0.00103255 0.0065329 0.999978 
-0.00147022 0.00862999 0.999962 
-0.0020505 0.0113323 0.999934 
-0.00275268 0.0147042 0.999888 
-0.0035436 0.0190414 0.999812 
-0.00418038 0.0241454 0.9997 
-0.00472759 0.0309678 0.999509 
-0.00499568 0.0390615 0.999224 
-0.00511427 0.0494836 0.998762 
-0.00520786 0.0636888 0.997956 
-0.00560852 0.0861735 0.996264 
-0.00450638 0.101881 0.994786 
-0.00374118 0.163394 0.986554 
0.00717574 0.201904 0.979379 
-0.00280341 0.228335 0.973579 
0.000911012 0.308393 0.951259 
0.00566697 0.404106 0.914695 
0.0488142 0.47371 0.879327 
0.00463793 0.675057 0.737751 
0.0177045 0.821808 0.569489 
-0.000304605 0.951921 0.306342 
-0.00429781 0.966635 -0.25612 
-0.0188344 0.886691 -0.461979 
-0.0123727 0.736252 -0.676594 
-0.000275811 0.574493 -0.818509 
-0.0286026 0.489873 -0.871324 
-0.0365757 0.373658 -0.926845 
-0.0265851 0.272731 -0.961723 
-0.00389291 0.255953 -0.966682 
0.00353919 0.203675 -0.979032 
0.00564577 0.154419 -0.987989 
0.00616243 0.113715 -0.993494 
0.00579986 0.0842044 -0.996432 
0.00538948 0.0636206 -0.99796 
0.00510555 0.0490283 -0.998784 
0.0047881 0.0383533 -0.999253 
0.0043339 0.030243 -0.999533 
0.00393232 0.0244463 -0.999693 
0.0032881 0.0193706 -0.999807 
0.00262509 0.0152287 -0.999881 
0.00195205 0.0117576 -0.999929 
0.00139681 0.00903425 -0.999958 
0.000990591 0.00690658 -0.999976 
0.000711526 0.00528005 -0.999986 
0.000526832 0.00410409 -0.999991 
0.000405483 0.00326871 -0.999995 
0.000327573 0.00266648 -0.999996 
0.000281907 0.00222831 -0.999998 
0.000257258 0.00189656 -0.999998 
0.000243449 0.0016378 -0.999999 
0.000239347 0.00143591 -0.999999 
0.000231586 0.00127262 -0.999999 
0.000219384 0.00113536 -0.999999 
0.000211573 0.00100961 -1 
0.000177018 0.000898973 -1 
0.000147335 0.000784055 -1 
0.000118859 0.000673243 -1 
7.38592e-05 0.000570183 -1 
3.50939e-05 0.000505473 -1 
-2.12849e-05 0.000425428 -1 
-9.1324e-05 0.000362215 -1 
9.66074e-05 0.000424734 1 
2.77764e-05 0.000500573 1 
-2.87674e-05 0.000540931 1 
-8.85146e-05 0.000602334 1 
-0.000146343 0.000699048 1 
-0.000173322 0.000780885 1 
-0.000214213 0.000863504 1 
-0.000237765 0.000978935 1 
-0.000250394 0.00109651 0.999999 
-0.000256377 0.00125419 0.999999 
-0.000256846 0.00141667 0.999999 
-0.000259177 0.00161116 0.999999 
-0.000266252 0.00187752 0.999998 
-0.0002897 0.00224244 0.999998 
-0.000341285 0.00274063 0.999996 
-0.000430796 0.00346864 0.999994 
-0.000571788 0.0045009 0.99999 
-0.000799213 0.005962 0.999982 
-0.00113978 0.00791594 0.999968 
-0.00161922 0.0103115 0.999946 
-0.00224119 0.013265 0.99991 
-0.00300928 0.0169464 0.999852 
-0.00372934 0.021473 0.999763 
-0.00424276 0.0267584 0.999633 
-0.00436319 0.0336754 0.999423 
-0.00434426 0.04188 0.999113 
-0.00411092 0.053329 0.998569 
-0.0042077 0.0686701 0.997631 
-0.00256295 0.0819118 0.996636 
0.000208515 0.126601 0.991954 
0.00932499 0.155131 0.98785 
0.0257639 0.209754 0.977415 
0.0193662 0.279887 0.959838 
0.0485879 0.257333 0.965101 
0.0316484 0.365326 0.930342 
0.0919296 0.424173 0.900903 
0.0319796 0.604233 0.796165 
0.0492505 0.722996 0.689095 
0.0113419 0.969624 0.244335 
-0.00618687 0.998944 -0.0455241 
-0.0489386 0.795247 -0.604307 
-0.0682624 0.680067 -0.729965 
-0.0244553 0.61984 -0.784347 
-0.0719865 0.529857 -0.845026 
-0.0756167 0.394999 -0.915564 
-0.0559397 0.282296 -0.957695 
-0.0173623 0.203567 -0.978907 
-0.00524004 0.168723 -0.98565 
0.000426624 0.130122 -0.991498 
0.00291374 0.098891 -0.995094 
0.00373883 0.0746508 -0.997203 
0.00406119 0.0575567 -0.998334 
0.00431377 0.0454249 -0.998959 
0.0042683 0.0360752 -0.99934 
0.0039426 0.0293099 -0.999563 
0.00339443 0.0232583 -0.999724 
0.00292539 0.018584 -0.999823 
0.00230574 0.0146531 -0.99989 
0.00168211 0.011539 -0.999932 
0.00117432 0.00898843 -0.999959 
0.000829137 0.00689535 -0.999976 
0.000606389 0.00527248 -0.999986 
0.000461606 0.0040817 -0.999992 
0.000370468 0.0032157 -0.999995 
0.000317939 0.00260631 -0.999997 
0.000290972 0.00216864 -0.999998 
0.000279768 0.00184231 -0.999998 
0.000276759 0.00159614 -0.999999 
0.000276752 0.00139654 -0.999999 
0.0002729 0.00123914 -0.999999 
0.000261996 0.00110875 -0.999999 
0.000243498 0.000985078 -1 
0.000208568 0.000876359 -1 
0.000172016 0.000775311 -1 
0.000135231 0.000696113 -1 
8.97681e-05 0.00061344 -1 
3.56818e-05 0.000556343 -1 
-2.79607e-05 0.000489383 -1 
-0.000111624 0.000422723 -1 
0.000114525 0.000525036 1 
5.76164e-05 0.000558488 1 
-6.15524e-05 0.000612355 1 
-0.000113333 0.000669242 1 
-0.000160637 0.000739543 1 
-0.000187515 0.000777514 1 
-0.000210966 0.000826262 1 
-0.000238451 0.000910141 1 
-0.000258333 0.00101604 1 
-0.000264854 0.00114325 0.999999 
-0.000262031 0.0012881 0.999999 
-0.00025428 0.00145428 0.999999 
-0.00024414 0.00168943 0.999999 
-0.000241971 0.00199099 0.999998 
-0.000253783 0.00241727 0.999997 
-0.000292748 0.00301117 0.999995 
-0.000354835 0.00387327 0.999992 
-0.000461328 0.00510977 0.999987 
-0.000635338 0.00678634 0.999977 
-0.000904456 0.00893837 0.99996 
-0.00131935 0.0115243 0.999933 
-0.00188769 0.0146937 0.99989 
-0.00252729 0.0185148 0.999825 
-0.00297759 0.0230778 0.999729 
-0.00319732 0.0285267 0.999588 
-0.00278436 0.035541 0.999364 
-0.00243862 0.0448788 0.99899 
-0.00147527 0.0577778 0.998328 
0.000552404 0.0686912 0.997638 
0.00159139 0.0969853 0.995285 
0.00936032 0.117525 0.993026 
0.0239796 0.155624 0.987525 
0.0449487 0.184797 0.981748 
0.0752728 0.220873 0.972393 
0.0675851 0.332834 0.94056 
0.140586 0.374101 0.91667 
0.0887383 0.581647 0.808586 
0.15076 0.531724 0.833391 
0.0499359 0.881069 0.470344 
0.0331821 0.974069 0.223803 
-0.0284429 0.966631 -0.254587 
-0.126393 0.736055 -0.665017 
-0.132717 0.554078 -0.821817 
-0.127532 0.410517 -0.90289 
-0.0929427 0.288967 -0.952817 
-0.0695327 0.208027 -0.975649 
-0.0408821 0.206884 -0.977511 
-0.0266796 0.156847 -0.987263 
-0.013387 0.137805 -0.990369 
-0.00583433 0.109958 -0.993919 
-0.0012168 0.0842801 -0.996441 
0.000714114 0.0642584 -0.997933 
0.00184514 0.0499048 -0.998752 
0.00262667 0.0396726 -0.999209 
0.00267964 0.0320293 -0.999483 
0.00263611 0.0259381 -0.99966 
0.00223126 0.0202039 -0.999793 
0.00185138 0.0161818 -0.999867 
0.00130914 0.0128746 -0.999916 
0.000883873 0.0101383 -0.999948 
0.000603316 0.00779526 -0.999969 
0.000447008 0.00593495 -0.999982 
0.000349787 0.00453322 -0.99999 
0.000294742 0.00350525 -0.999994 
0.000264904 0.00278127 -0.999996 
0.000256197 0.00228076 -0.999997 
0.000259874 0.00192269 -0.999998 
0.000268121 0.00165282 -0.999999 
0.000277772 0.00144206 -0.999999 
0.000281966 0.00126876 -0.999999 
0.000276623 0.00113119 -0.999999 
0.000259942 0.0010152 -1 
0.00022637 0.000898115 -1 
0.000188807 0.000807038 -1 
0.000138507 0.000721518 -1 
8.01785e-05 0.000640566 -1 
1.54956e-05 0.000592131 -1 
-5.04409e-05 0.000540372 -1 
-0.000124508 0.000505339 -1 
0.000101362 0.000601575 1 
3.9056e-05 0.000633887 1 
-1.96396e-06 0.000591156 1 
-5.65985e-05 0.000650405 1 
-0.000108081 0.000695139 1 
-0.000185768 0.000788325 1 
-0.000227008 0.000869319 1 
-0.000249356 0.000949144 1 
-0.000260573 0.00106474 0.999999 
-0.000257052 0.00118413 0.999999 
-0.000240216 0.00133863 0.999999 
-0.000224303 0.0015369 0.999999 
-0.000201881 0.00180713 0.999998 
-0.000189854 0.00216251 0.999998 
-0.000187569 0.00267611 0.999996 
-0.000200604 0.00338132 0.999994 
-0.000223647 0.00440927 0.99999 
-0.000266749 0.00582736 0.999983 
-0.000361283 0.00767751 0.999971 
-0.000555663 0.0100165 0.99995 
-0.000899414 0.012787 0.999918 
-0.00134569 0.0160756 0.99987 
-0.00174727 0.0198864 0.999801 
-0.00191199 0.0244709 0.999699 
-0.00176556 0.0298427 0.999553 
-0.000973301 0.0374894 0.999297 
-2.82857e-05 0.0471095 0.99889 
0.00226633 0.0547378 0.998498 
0.00455839 0.0745118 0.99721 
0.00934376 0.0909329 0.995813 
0.0197705 0.115519 0.993109 
0.0354053 0.132314 0.990575 
0.0576498 0.152041 0.986692 
0.0894535 0.16947 0.981467 
0.104543 0.285109 0.952777 
0.125755 0.216711 0.968102 
0.174491 0.279885 0.944043 
0.211406 0.423786 0.880746 
0.113432 0.732685 0.671049 
-0.0153776 0.998929 -0.0436294 
-0.0748659 0.893847 -0.442076 
-0.210267 0.611634 -0.762687 
-0.199424 0.418323 -0.886135 
-0.168815 0.244867 -0.954747 
-0.136131 0.292501 -0.946526 
-0.098713 0.192402 -0.976339 
-0.0481436 0.157568 -0.986334 
-0.0309705 0.12209 -0.992036 
-0.0174962 0.10761 -0.994039 
-0.00871367 0.0884822 -0.99604 
-0.00411599 0.0694782 -0.997575 
-0.00152131 0.0542231 -0.998528 
0.000143242 0.042786 -0.999084 
0.000938671 0.0348726 -0.999391 
0.00130401 0.0284175 -0.999595 
0.0015032 0.0230551 -0.999733 
0.00113726 0.0183634 -0.999831 
0.000843074 0.0149519 -0.999888 
0.000493125 0.0119676 -0.999928 
0.000300539 0.0093998 -0.999956 
0.000213096 0.0072309 -0.999974 
0.000188453 0.00551898 -0.999985 
0.000180872 0.00420047 -0.999991 
0.000180903 0.00325793 -0.999995 
0.00018719 0.00259899 -0.999997 
0.000203334 0.00214452 -0.999998 
0.00022441 0.00182101 -0.999998 
0.000246145 0.00157074 -0.999999 
0.000264473 0.00137314 -0.999999 
0.000271455 0.00121258 -0.999999 
0.000266436 0.00108237 -0.999999 
0.000246814 0.000966983 -1 
0.00021306 0.000872774 -1 
0.000173346 0.000793685 -1 
0.000124925 0.000731765 -1 
8.15245e-05 0.000675205 -1 
2.60826e-05 0.000642303 -1 
-3.9409e-05 0.000608542 -1 
-0.000117092 0.000572725 -1 
6.96802e-05 0.000658458 1 
2.1258e-05 0.000683861 1 
-1.54881e-05 0.000653726 1 
-7.20446e-05 0.000692797 1 
-0.000138542 0.000736237 1 
-0.000166188 0.00077841 1 
-0.000206056 0.000834165 1 
-0.000232282 0.000906341 1 
-0.000247898 0.000996558 1 
-0.00023999 0.00110503 0.999999 
-0.000225219 0.00123431 0.999999 
-0.000196076 0.00142808 0.999999 
-0.000171094 0.00165686 0.999999 
-0.00013807 0.00198664 0.999998 
-0.000117029 0.00242589 0.999997 
-9.46411e-05 0.00305784 0.999995 
-7.44364e-05 0.00392876 0.999992 
-4.24448e-05 0.00515439 0.999987 
-1.88926e-05 0.00680123 0.999977 
-6.31647e-05 0.00891753 0.99996 
-0.000224032 0.0115209 0.999934 
-0.000515877 0.0145299 0.999894 
-0.000805803 0.0179866 0.999838 
-0.000970841 0.0219888 0.999758 
-0.000794292 0.0266668 0.999644 
-0.000313981 0.0324465 0.999473 
0.00109147 0.0404582 0.999181 
0.00337566 0.0476701 0.998857 
0.00618079 0.061718 0.998075 
0.0114971 0.0747584 0.997135 
0.019831 0.0922352 0.99554 
0.0331203 0.101424 0.994292 
0.0567343 0.116929 0.991518 
0.0871715 0.122515 0.988631 
0.134646 0.14906 0.979618 
0.193294 0.188761 0.962812 
0.25788 0.314982 0.913391 
0.304575 0.525759 0.794236 
0.208431 0.650501 0.730346 
0.128643 0.874974 0.466766 
-0.151266 0.875186 -0.45953 
-0.307517 0.534346 -0.787342 
-0.249604 0.321415 -0.91345 
-0.18795 0.162526 -0.968638 
-0.130611 0.15953 -0.978515 
-0.0913186 0.121722 -0.988355 
-0.0678326 0.140162 -0.987802 
-0.0449178 0.112331 -0.992655 
-0.0248994 0.0910308 -0.995537 
-0.0149648 0.080758 -0.996621 
-0.00843425 0.0667948 -0.997731 
-0.00443748 0.0535876 -0.998553 
-0.00187564 0.0429324 -0.999076 
-0.000613374 0.0345401 -0.999403 
7.93046e-05 0.0287256 -0.999587 
0.000484138 0.0236347 -0.999721 
0.000415355 0.0193249 -0.999813 
0.000109472 0.015406 -0.999881 
-6.01786e-05 0.0124601 -0.999922 
-0.000121691 0.0097886 -0.999952 
-8.58332e-05 0.00756334 -0.999971 
-2.08009e-05 0.00575586 -0.999983 
3.89015e-05 0.00438881 -0.99999 
7.8355e-05 0.00337375 -0.999994 
0.000109258 0.00267102 -0.999996 
0.00014087 0.00218114 -0.999998 
0.000174135 0.0018383 -0.999998 
0.000206807 0.00158402 -0.999999 
0.000233938 0.00137833 -0.999999 
0.000247438 0.00121315 -0.999999 
0.000248389 0.00107733 -0.999999 
0.000238558 0.000971873 -1 
0.000206651 0.000877491 -1 
0.000167655 0.000803722 -1 
0.000117296 0.000744624 -1 
6.77598e-05 0.000695738 -1 
1.52915e-05 0.000673493 -1 
-3.79452e-05 0.000653527 -1 
-8.94152e-05 0.000628731 -1 
4.02821e-05 0.000692348 1 
3.13614e-06 0.000712925 1 
-3.02691e-05 0.000691934 1 
-7.07261e-05 0.000720422 1 
-0.00011219 0.000730972 1 
-0.000155731 0.000779313 1 
-0.000197753 0.00083599 1 
-0.000216195 0.000903045 1 
-0.000225005 0.000993105 1 
-0.000204152 0.00109057 0.999999 
-0.000186722 0.00125354 0.999999 
-0.000146776 0.00144167 0.999999 
-0.0001168 0.00170218 0.999999 
-7.4347e-05 0.00203894 0.999998 
-4.30459e-05 0.00251319 0.999997 
-2.9427e-07 0.00316441 0.999995 
5.19661e-05 0.00408344 0.999992 
0.000130071 0.00533553 0.999986 
0.000211911 0.00705638 0.999975 
0.000234094 0.00928335 0.999957 
0.0001429 0.0119824 0.999928 
-6.03827e-05 0.0150227 0.999887 
-0.000253213 0.0184906 0.999829 
-0.000293999 0.0223784 0.99975 
-2.79731e-05 0.0269653 0.999636 
0.000689268 0.0328658 0.99946 
0.00222825 0.0381964 0.999268 
0.00567129 0.0485016 0.998807 
0.00983774 0.0589522 0.998212 
0.0171107 0.0703848 0.997373 
0.0262972 0.0767751 0.996702 
0.0434807 0.0881738 0.995156 
0.0668129 0.0840017 0.994223 
0.103525 0.08685 0.990828 
0.155481 0.0926965 0.98348 
0.237431 0.129425 0.962744 
0.322033 0.250111 0.913093 
0.419611 0.444733 0.79129 
0.277438 0.809537 0.517376 
0.0109589 0.998751 0.0487428 
-0.274959 0.826893 -0.490557 
-0.427261 0.456705 -0.780301 
-0.308909 0.247646 -0.918285 
-0.224719 0.111864 -0.967981 
-0.126712 0.0879942 -0.988029 
-0.0861383 0.0723399 -0.993653 
-0.0617748 0.0943305 -0.993623 
-0.037518 0.0855004 -0.995632 
-0.0226327 0.0716377 -0.997174 
-0.0135448 0.0630337 -0.99792 
-0.00789049 0.0534308 -0.99854 
-0.00410557 0.0441527 -0.999016 
-0.00201148 0.0364464 -0.999334 
-0.0010031 0.0300667 -0.999547 
-0.000451867 0.0253805 -0.999678 
-0.000276218 0.0212558 -0.999774 
-0.000333619 0.0174947 -0.999847 
-0.000518039 0.014096 -0.999901 
-0.000512578 0.0113181 -0.999936 
-0.000418108 0.00888861 -0.99996 
-0.00027298 0.00686469 -0.999976 
-0.000145554 0.00524881 -0.999986 
-5.162e-05 0.00402432 -0.999992 
7.22121e-06 0.00312974 -0.999995 
5.22151e-05 0.00250093 -0.999997 
9.17767e-05 0.00206438 -0.999998 
0.000131906 0.00175103 -0.999999 
0.000172139 0.00150963 -0.999999 
0.000200084 0.00131827 -0.999999 
0.000216337 0.00115818 -0.999999 
0.000220777 0.00102788 -1 
0.000213189 0.000937598 -1 
0.000184896 0.000860633 -1 
0.000155213 0.000803587 -1 
0.000109867 0.000755131 -1 
6.55255e-05 0.00071612 -1 
2.10782e-05 0.000700995 -1 
-2.36976e-05 0.000693385 -1 
-5.0654e-05 0.00067043 -1 
1.54444e-05 0.000702331 1 
-7.70599e-06 0.000732406 1 
-3.42959e-05 0.000718973 1 
-7.25139e-05 0.000737598 1 
-0.000112872 0.000747823 1 
-0.000138195 0.000777107 1 
-0.000174225 0.000816898 1 
-0.000187711 0.00086852 1 
-0.000193926 0.000954461 1 
-0.000170582 0.00106088 0.999999 