# vtk DataFile Version 3.0 
Exported using Morpho https://github.com/Morpho-lang/morpho 
ASCII 
DATASET UNSTRUCTURED_GRID 

POINTS 1978 float 
-8.48528 -2.82843 2.4836e-21 
-8.25612 -2.82843 1.95564e-21 
-8.03444 -2.82843 6.39128e-22 
-7.78581 -2.82843 2.11193e-21 
-7.47147 -2.82843 2.26094e-21 
-7.16522 -2.82843 -6.42948e-22 
-6.97394 -2.82843 -8.23206e-22 
-6.74726 -2.82843 2.95189e-22 
-6.55178 -2.82843 -2.8254e-21 
-6.35809 -2.82843 2.93941e-21 
-6.16444 -2.82843 -5.69117e-21 
-5.95051 -2.82843 -1.42518e-21 
-5.74029 -2.82843 -3.19499e-21 
-5.53932 -2.82843 -5.12049e-21 
-5.3223 -2.82843 -1.59095e-20 
-5.11046 -2.82843 -3.50837e-20 
-4.89937 -2.82843 -8.21012e-20 
-4.68928 -2.82843 -2.08528e-19 
-4.48333 -2.82843 -5.43157e-19 
-4.27376 -2.82843 -1.37651e-18 
-4.06569 -2.82843 -3.26951e-18 
-3.857 -2.82843 -6.95783e-18 
-3.65525 -2.82843 -1.47481e-17 
-3.43847 -2.82843 -2.86407e-17 
-3.23684 -2.82843 -4.98242e-17 
-3.03576 -2.82843 -8.56875e-17 
-2.83024 -2.82843 -1.44431e-16 
-2.60907 -2.82843 -2.95155e-16 
-2.39105 -2.82843 -5.6173e-16 
-2.17638 -2.82843 -1.13969e-15 
-1.97837 -2.82843 -1.86408e-15 
-1.78941 -2.82843 -2.95618e-15 
-1.62556 -2.82843 -4.09949e-15 
-1.45904 -2.82843 -1.06322e-14 
-1.29678 -2.82843 -1.90582e-14 
-1.12273 -2.82843 -3.29646e-14 
-0.935479 -2.82843 -5.22244e-14 
-0.748368 -2.82843 -5.25454e-13 
-0.248058 -2.82843 -3.95802e-13 
0.157454 -2.82843 1.79478e-13 
0.515582 -2.82843 3.63075e-14 
0.789192 -2.82843 6.36094e-14 
0.934035 -2.82843 2.89083e-14 
1.11425 -2.82843 3.31907e-14 
1.26512 -2.82843 1.55627e-14 
1.39839 -2.82843 9.42688e-15 
1.57661 -2.82843 8.31257e-15 
1.76653 -2.82843 4.66678e-15 
1.96666 -2.82843 2.15794e-15 
2.17651 -2.82843 1.041e-15 
2.41508 -2.82843 4.97784e-16 
2.63592 -2.82843 2.35765e-16 
2.84692 -2.82843 1.25954e-16 
3.05062 -2.82843 7.2307e-17 
3.25728 -2.82843 4.04517e-17 
3.43959 -2.82843 2.17258e-17 
3.63988 -2.82843 1.30404e-17 
3.83717 -2.82843 6.79091e-18 
4.04185 -2.82843 3.3031e-18 
4.25188 -2.82843 1.53889e-18 
4.46541 -2.82843 5.24241e-19 
4.67788 -2.82843 2.09418e-19 
4.88736 -2.82843 7.88677e-20 
5.09315 -2.82843 3.81594e-20 
5.29839 -2.82843 1.91803e-20 
5.50911 -2.82843 1.03493e-20 
5.7248 -2.82843 3.92879e-21 
5.94362 -2.82843 1.42319e-21 
6.16742 -2.82843 5.5892e-22 
6.3846 -2.82843 7.067e-22 
6.60871 -2.82843 1.1166e-21 
6.83563 -2.82843 6.24168e-22 
7.04662 -2.82843 1.17867e-21 
7.30538 -2.82843 -6.31774e-22 
7.54556 -2.82843 -1.2037e-21 
7.76395 -2.82843 -1.70175e-21 
8.03611 -2.82843 -1.95399e-21 
8.22848 -2.82843 -2.92169e-21 
8.48528 -2.82843 -5.57968e-22 
-8.48528 -2.58512 -3.43937e-21 
-8.26294 -2.5946 -3.81698e-22 
-8.04142 -2.58114 1.17028e-22 
-7.81463 -2.61988 1.78558e-22 
-7.53891 -2.65636 2.41661e-22 
-7.23557 -2.64633 4.00776e-22 
-6.97173 -2.54608 4.93646e-22 
-6.77937 -2.60058 3.9779e-22 
-6.55549 -2.5588 6.74775e-22 
-6.34162 -2.57955 6.14098e-22 
-6.11838 -2.59702 1.03663e-21 
-5.89589 -2.59314 1.73925e-21 
-5.68101 -2.58099 3.20209e-21 
-5.45897 -2.60104 6.58493e-21 
-5.23399 -2.5989 1.51278e-20 
-5.01068 -2.60016 3.79856e-20 
-4.789 -2.60071 1.0137e-19 
-4.57032 -2.59676 2.7743e-19 
-4.35281 -2.60008 7.36419e-19 
-4.13451 -2.59744 1.80266e-18 
-3.9174 -2.59803 4.01647e-18 
-3.70048 -2.59122 8.02626e-18 
-3.48486 -2.60796 1.64751e-17 
-3.2577 -2.58827 3.24842e-17 
-3.04486 -2.58275 5.63489e-17 
-2.8178 -2.59904 1.08654e-16 
-2.58468 -2.61046 5.17093e-17 
-2.33096 -2.61667 1.21793e-16 
-2.08706 -2.60411 2.87921e-16 
-1.93712 -2.4177 4.13781e-16 
-1.84446 -2.60883 6.65398e-16 
-1.64911 -2.56997 1.79483e-15 
-1.44875 -2.56589 2.11513e-14 
-1.25922 -2.58489 4.61808e-14 
-1.06121 -2.61821 9.38291e-14 
-0.917209 -2.41999 1.30504e-13 
-0.853813 -2.62598 1.73896e-13 
-0.57908 -2.75344 2.25403e-13 
-0.388866 -2.68693 7.02165e-13 
-0.0442569 -2.74072 -5.37201e-14 
0.363716 -2.72688 -2.56856e-13 
0.680786 -2.6854 -2.13047e-13 
1.02466 -2.62716 -1.12428e-13 
1.027 -2.40325 -4.71839e-14 
1.20361 -2.58263 -5.93035e-14 
1.18957 -2.33261 -1.89707e-14 
1.36554 -2.52477 -2.72604e-14 
1.53146 -2.59909 -3.26039e-15 
1.73578 -2.60079 -1.30253e-15 
1.95782 -2.60682 -5.14373e-16 
2.19574 -2.59954 -1.61528e-16 
2.45053 -2.60851 -6.9163e-17 
2.69485 -2.60436 -1.54287e-16 
2.9305 -2.60095 -7.97821e-17 
3.16084 -2.60551 -3.74955e-17 
3.38244 -2.57798 -2.26632e-17 
3.59093 -2.59571 -1.0259e-17 
3.809 -2.59233 -5.36541e-18 
4.0247 -2.59661 -2.58779e-18 
4.24353 -2.59762 -1.19798e-18 
4.46528 -2.59451 -3.96684e-19 
4.68505 -2.59675 -1.48189e-19 
4.90014 -2.59372 -5.70062e-20 
5.11343 -2.59208 -2.35601e-20 
5.3297 -2.59578 -1.11014e-20 
5.55044 -2.59868 -5.80332e-21 
5.7741 -2.59875 -3.25025e-21 
6.00131 -2.60058 -1.84684e-21 
6.2245 -2.59031 -1.12657e-21 
6.44981 -2.59507 -7.62608e-22 
6.67907 -2.59459 -5.76251e-22 
6.89715 -2.57563 -5.23805e-22 
7.13819 -2.61918 -4.49118e-22 
7.3891 -2.60403 -3.44979e-22 
7.61337 -2.58041 -2.41591e-22 
7.86231 -2.62844 -1.40527e-22 
8.06759 -2.54665 -1.2426e-22 
8.29473 -2.61625 4.07948e-22 
8.48528 -2.54225 2.33087e-21 
-8.48528 -2.33936 -3.07519e-21 
-8.26574 -2.35393 -1.8116e-22 
-8.02433 -2.35257 5.55572e-23 
-7.77834 -2.39347 1.45886e-22 
-7.53873 -2.24791 1.42414e-22 
-7.53763 -2.47043 2.53406e-22 
-7.2553 -2.44765 2.85431e-22 
-6.98617 -2.34487 3.55286e-22 
-6.71777 -2.3498 4.86121e-22 
-6.48116 -2.32943 5.37166e-22 
-6.25165 -2.3618 8.41419e-22 
-6.02889 -2.36484 1.28481e-21 
-5.81076 -2.34742 2.21035e-21 
-5.58243 -2.35921 4.22265e-21 
-5.36373 -2.37497 8.9849e-21 
-5.13841 -2.37507 2.10628e-20 
-4.91551 -2.37626 5.38888e-20 
-4.69637 -2.37332 1.42867e-19 
-4.47628 -2.37175 3.76181e-19 
-4.26016 -2.37243 9.28603e-19 
-4.0431 -2.3688 2.13922e-18 
-3.82797 -2.36658 4.54644e-18 
-3.60542 -2.36837 9.22243e-18 
-3.39014 -2.38153 1.89391e-17 
-3.16502 -2.34925 3.50239e-17 
-2.94384 -2.36441 6.41025e-17 
-2.71762 -2.3767 1.25409e-16 
-2.47613 -2.41766 5.27318e-17 
-2.21388 -2.40423 1.13917e-16 
-2.09291 -2.23502 1.35751e-16 
-1.72138 -2.32194 5.69764e-16 
-1.49758 -2.1405 -9.95363e-16 
-1.5116 -2.35352 2.83163e-15 
-1.29262 -2.3412 2.65655e-15 
-1.10134 -2.38434 4.84227e-14 
-0.877074 -2.18679 9.27118e-16 
-0.672154 -2.579 2.89634e-13 
-0.472259 -2.53349 3.27055e-13 
-0.197228 -2.63783 3.55335e-13 
0.134932 -2.65419 -2.90253e-13 
0.310788 -2.55378 -5.25466e-13 
0.535108 -2.58802 -3.80518e-13 
0.853689 -2.55998 -1.64618e-13 
0.877601 -2.30467 -1.45883e-13 
1.04618 -2.14224 -5.48308e-14 
1.25063 -2.10661 -1.2782e-15 
1.39253 -2.29844 -1.86764e-15 
1.58694 -2.36437 -1.50436e-15 
1.79679 -2.38452 -6.12413e-16 
2.01509 -2.38497 -2.45062e-16 
2.25403 -2.39106 -1.00569e-16 
2.49302 -2.38925 -3.98225e-17 
2.72108 -2.38034 -1.0137e-16 
2.94216 -2.37073 -4.94635e-17 
3.16225 -2.38243 -3.13382e-17 
3.37274 -2.34161 -1.40618e-17 
3.58425 -2.35832 -8.86618e-18 
3.79538 -2.36577 -4.72302e-18 
4.01375 -2.36728 -2.28196e-18 
4.22903 -2.3688 -1.04102e-18 
4.44484 -2.36861 -4.52632e-19 
4.66343 -2.36852 -1.81171e-19 
4.87909 -2.36234 -7.03055e-20 
5.09188 -2.35916 -2.82432e-20 
5.30514 -2.36399 -1.22008e-20 
5.52056 -2.36984 -5.9193e-21 
5.74035 -2.37099 -3.2001e-21 
5.96412 -2.37318 -1.87216e-21 
6.18786 -2.35863 -1.14889e-21 
6.41329 -2.3599 -7.72409e-22 
6.63667 -2.36243 -5.59392e-22 
6.86056 -2.33219 -4.59721e-22 
7.08794 -2.38446 -3.73754e-22 
7.32034 -2.39226 -2.9525e-22 
7.55852 -2.34147 -2.48828e-22 
7.79328 -2.39384 -1.51475e-22 
8.00581 -2.3151 -6.59862e-23 
8.24819 -2.35869 5.46788e-23 
8.48528 -2.31464 2.15851e-21 
-8.48528 -2.09876 -7.18604e-22 
-8.24905 -2.0979 -6.93261e-22 
-8.04677 -2.12138 2.82005e-23 
-7.79523 -2.16796 8.40033e-23 
-7.55773 -2.03044 8.56107e-23 
-7.29761 -2.25542 2.44566e-22 
-7.08271 -2.13832 2.33486e-22 
-6.82016 -2.14251 3.03546e-22 
-6.58476 -2.11585 3.90458e-22 
-6.33847 -2.12768 5.25631e-22 
-6.11733 -2.13061 7.82229e-22 
-5.90271 -2.11363 1.17745e-21 
-5.67797 -2.1273 2.08596e-21 
-5.45741 -2.13481 4.0031e-21 
-5.24333 -2.15001 8.72315e-21 
-5.02348 -2.1511 2.03052e-20 
-4.8073 -2.14781 4.93073e-20 
-4.59152 -2.1476 1.24845e-19 
-4.37768 -2.14288 2.98118e-19 
-4.16701 -2.14162 6.79322e-19 
-3.9552 -2.13622 1.44933e-18 
-3.73959 -2.14227 3.12261e-18 
-3.52345 -2.14019 6.06803e-18 
-3.31494 -2.14756 1.10681e-17 
-3.09197 -2.11822 1.97159e-17 
-2.87565 -2.13892 3.8481e-17 
-2.6381 -2.17266 9.05944e-17 
-2.39656 -2.22229 3.65689e-17 
-2.2775 -2.06837 4.14249e-17 
-1.88687 -2.15756 6.78819e-17 
-1.67717 -2.05729 3.02929e-16 
-1.41639 -1.91678 -3.12958e-16 
-1.27715 -2.11958 1.82145e-14 
-1.1982 -1.89418 -2.79055e-15 
-1.07179 -2.15549 2.293e-14 
-0.802031 -1.98501 3.51399e-14 
-0.731691 -2.37143 1.73091e-13 
-0.53812 -2.35835 3.52318e-13 
-0.252493 -2.47087 3.64549e-13 
-0.0293606 -2.52312 7.52057e-13 
0.482334 -2.41571 -5.07955e-13 
0.62633 -2.25787 -2.46389e-13 
0.709495 -2.43493 -2.18222e-13 
0.79186 -2.13174 -1.71979e-15 
0.959504 -1.96798 1.69652e-14 
1.17224 -1.89877 -3.74687e-16 
1.45544 -2.05531 -6.7072e-16 
1.63534 -2.1395 2.96926e-16 
1.84736 -2.15623 -1.57288e-16 
2.0738 -2.16414 -9.48488e-17 
2.31002 -2.17287 -4.13392e-17 
2.53966 -2.15699 -9.6281e-17 
2.76198 -2.14595 -4.98661e-17 
2.98761 -2.14426 -2.59907e-17 
3.19653 -2.13867 -1.24507e-17 
3.41934 -2.11021 -5.43948e-18 
3.6337 -2.12821 -3.54281e-18 
3.85085 -2.14076 -1.93372e-18 
4.06575 -2.13847 -9.15845e-19 
4.27955 -2.13901 -3.88589e-19 
4.49457 -2.14158 -1.5333e-19 
4.70773 -2.13776 -5.80956e-20 
4.91948 -2.12943 -2.35788e-20 
5.13246 -2.12811 -1.11211e-20 
5.34559 -2.13333 -5.90446e-21 
5.56133 -2.14066 -3.31679e-21 
5.78229 -2.14382 -1.93855e-21 
6.00103 -2.14006 -1.19893e-21 
6.22658 -2.12804 -7.60747e-22 
6.44666 -2.12356 -5.30897e-22 
6.66544 -2.12162 -4.09068e-22 
6.89786 -2.10067 -2.89437e-22 
7.11855 -2.15445 -2.66002e-22 
7.34782 -2.15984 -1.7777e-22 
7.55288 -2.08289 -1.02709e-22 
7.76141 -2.15439 -9.24411e-23 
7.99001 -2.08709 -1.25211e-23 
8.22963 -2.13481 2.44097e-22 
8.48528 -2.10546 3.35414e-21 
-8.48528 -1.78619 -4.02206e-21 
-8.31473 -1.86379 -7.38689e-22 
-7.90295 -1.9273 -3.57158e-25 
[...]
POINT_DATA 1978 
VECTORS vectors float
-1.25139e-06 0.00012473 1 
2.23748e-07 0.000355112 1 
4.01966e-08 0.000440723 1 
9.21473e-08 0.000543668 1 
1.00128e-08 0.000696542 1 
1.32502e-07 0.000862795 1 
-1.267e-08 0.000965592 1 
-5.09759e-08 0.00108838 0.999999 
6.43082e-08 0.00118887 0.999999 
7.32753e-08 0.00130359 0.999999 
-3.85023e-08 0.00141938 0.999999 
-6.55753e-08 0.00157925 0.999999 
3.11868e-08 0.00177997 0.999998 
7.11599e-08 0.00202862 0.999998 
-3.93856e-08 0.00238061 0.999997 
1.30746e-09 0.00284063 0.999996 
-1.21494e-08 0.00347307 0.999994 
2.50706e-08 0.00436356 0.99999 
-1.53991e-07 0.0056143 0.999984 
-3.47007e-07 0.00740185 0.999973 
3.15477e-07 0.00982536 0.999952 
1.69522e-07 0.013001 0.999915 
-1.56477e-06 0.0168259 0.999858 
-1.75305e-06 0.0219169 0.99976 
-4.33408e-07 0.0279874 0.999608 
1.4138e-05 0.0354092 0.999373 
-1.18421e-05 0.0444877 0.99901 
3.58476e-06 0.0562079 0.998419 
-1.18535e-06 0.0741506 0.997247 
-1.48025e-05 0.0950711 0.99547 
-1.0786e-05 0.120446 0.99272 
3.40161e-05 0.148905 0.988852 
9.6258e-05 0.184601 0.982813 
8.69474e-05 0.232959 0.972487 
0.000105281 0.294216 0.955739 
0.000101646 0.378411 0.925638 
0.0002109 0.486472 0.873696 
0.000120478 0.617177 0.786825 
0.000332633 0.939212 0.343338 
0.000164201 0.968203 -0.250166 
0.000118647 0.77401 -0.633173 
-6.2723e-05 0.590011 -0.807396 
-0.000221754 0.494728 -0.869048 
-0.000219556 0.39215 -0.919901 
-0.000316468 0.317047 -0.94841 
-0.000205618 0.262447 -0.964946 
-1.29241e-05 0.20696 -0.978349 
4.22658e-05 0.16036 -0.987059 
-1.20957e-05 0.121713 -0.992565 
-2.75176e-07 0.0894031 -0.995996 
1.66189e-05 0.0674672 -0.997721 
-1.76377e-05 0.0526678 -0.998612 
-4.96452e-06 0.0419973 -0.999118 
2.78648e-06 0.0336366 -0.999434 
-2.26907e-06 0.0266471 -0.999645 
-5.94583e-07 0.0217988 -0.999762 
-1.79112e-06 0.0172382 -0.999851 
1.90615e-06 0.0135513 -0.999908 
4.58535e-07 0.0104542 -0.999945 
-1.60016e-07 0.00789837 -0.999969 
7.30547e-07 0.00597325 -0.999982 
-1.7677e-07 0.00460914 -0.999989 
-2.08699e-07 0.00367533 -0.999993 
-1.30863e-08 0.00304081 -0.999995 
3.76825e-10 0.00258141 -0.999997 
-9.35499e-09 0.00221179 -0.999998 
-1.59852e-08 0.00190707 -0.999998 
-2.59543e-08 0.00166051 -0.999999 
-5.14903e-08 0.00146511 -0.999999 
-3.71154e-08 0.00131541 -0.999999 
-3.46098e-08 0.00118343 -0.999999 
-9.41013e-08 0.00105959 -0.999999 
-9.45454e-08 0.000943848 -1 
-5.1239e-08 0.000796587 -1 
-1.40054e-07 0.000665239 -1 
-4.98843e-08 0.000551618 -1 
-1.2425e-08 0.000421469 -1 
-3.3331e-07 0.000342886 -1 
1.42587e-06 8.73533e-05 -1 
4.34457e-05 2.76929e-06 1 
5.95353e-06 0.000383442 1 
-2.59016e-05 0.000460591 1 
-5.00165e-05 0.000548146 1 
-6.02358e-05 0.000661874 1 
-7.77417e-05 0.00080671 1 
-0.000127994 0.000927676 1 
-0.000114057 0.0010373 0.999999 
-0.000140825 0.00115312 0.999999 
-0.000138261 0.00127815 0.999999 
-0.000133914 0.00143812 0.999999 
-0.000145615 0.00163108 0.999999 
-0.000166807 0.0018692 0.999998 
-0.000184341 0.00219398 0.999998 
-0.000236496 0.00264488 0.999996 
-0.000315487 0.0032653 0.999995 
-0.000438819 0.00414554 0.999991 
-0.000633369 0.00539987 0.999985 
-0.000892985 0.00711523 0.999974 
-0.00125169 0.00943967 0.999955 
-0.0016759 0.0124476 0.999921 
-0.00221762 0.0162741 0.999865 
-0.00259076 0.0209298 0.999778 
-0.0031865 0.027227 0.999624 
-0.00349056 0.0346544 0.999393 
-0.00370495 0.044258 0.999013 
-0.00389049 0.0565911 0.99839 
-0.00432474 0.0762385 0.99708 
-0.00525068 0.105802 0.994373 
-0.00600001 0.124997 0.992139 
-0.00661043 0.143092 0.989687 
-0.007508 0.185815 0.982556 
-0.0080967 0.24226 0.970178 
-0.0080144 0.317697 0.948159 
-0.00676214 0.415043 0.909777 
0.0104706 0.508227 0.861159 
-0.00406635 0.545988 0.837783 
-0.00598723 0.730788 0.682578 
-0.00238372 0.845578 0.533846 
-0.00186883 0.999125 0.0417868 
-0.000657558 0.860051 -0.510208 
0.00262486 0.686859 -0.726786 
0.00679345 0.460128 -0.887827 
-0.00518922 0.438238 -0.898844 
0.00745787 0.359353 -0.933172 
-0.00836209 0.342083 -0.939633 
0.00689636 0.286808 -0.957963 
0.00738967 0.227171 -0.973827 
0.00683561 0.168349 -0.985704 
0.00591633 0.120168 -0.992736 
0.00474763 0.0849364 -0.996375 
0.00414646 0.0629754 -0.998006 
0.00374558 0.0483092 -0.998825 
0.00341299 0.0377046 -0.999283 
0.00298418 0.0295707 -0.999558 
0.00282922 0.023323 -0.999724 
0.00220887 0.0184925 -0.999827 
0.00178268 0.0142952 -0.999896 
0.00132944 0.0109223 -0.999939 
0.000956035 0.00825694 -0.999965 
0.000679807 0.00624263 -0.99998 
0.0004893 0.00478573 -0.999988 
0.000362072 0.00377483 -0.999993 
0.000275118 0.00306649 -0.999995 
0.000215901 0.00254652 -0.999997 
0.000181245 0.00215055 -0.999998 
0.000162283 0.00184154 -0.999998 
0.000149967 0.00159735 -0.999999 
0.000147376 0.00140982 -0.999999 
0.00013843 0.00125729 -0.999999 
0.000130221 0.00112251 -0.999999 
0.000128206 0.00100289 -0.999999 
9.70684e-05 0.000878013 -1 
8.58635e-05 0.000745582 -1 
7.06471e-05 0.000633719 -1 
3.81803e-05 0.000514912 -1 
1.80341e-05 0.000441878 -1 
-1.53535e-05 0.000348993 -1 
-6.02234e-05 -7.59457e-06 -1 
6.56884e-05 1.24497e-05 1 
1.47955e-05 0.000433025 1 
-3.81432e-05 0.000504223 1 
-8.11529e-05 0.000579961 1 
-0.00013286 0.000680135 1 
-0.000106418 0.000676175 1 
-0.000139948 0.000800826 1 
-0.000189641 0.000912527 1 
-0.000199402 0.00103734 0.999999 
-0.000218305 0.0011738 0.999999 
-0.000215673 0.00132583 0.999999 
-0.000221526 0.0015019 0.999999 
-0.000236873 0.0017146 0.999999 
-0.00025793 0.00201302 0.999998 
-0.000299033 0.00240627 0.999997 
-0.000379818 0.00297537 0.999996 
-0.000509287 0.00377788 0.999993 
-0.000711199 0.00492147 0.999988 
-0.0010232 0.00653904 0.999978 
-0.0014552 0.00863385 0.999962 
-0.00202768 0.0113344 0.999934 
-0.00271865 0.0147028 0.999888 
-0.00349278 0.0190334 0.999813 
-0.00411394 0.0241375 0.9997 
-0.0046526 0.0309474 0.99951 
-0.00491169 0.0390608 0.999225 
-0.00501908 0.0494416 0.998764 
-0.00511007 0.0637918 0.99795 
-0.00549876 0.0864629 0.99624 
-0.00429461 0.101888 0.994787 
-0.00355538 0.163364 0.986559 
0.00741511 0.202126 0.979331 
-0.00237532 0.228472 0.973548 
0.00129019 0.307907 0.951416 
0.00613238 0.403351 0.915025 
0.0490361 0.472191 0.880131 
0.00532772 0.67612 0.736772 
0.0177945 0.821324 0.570185 
4.79208e-05 0.954029 0.299715 
-0.00480936 0.967045 -0.254559 
-0.0193767 0.887449 -0.460498 
-0.0130371 0.739513 -0.673016 
-0.0010351 0.572315 -0.820033 
-0.0293682 0.490672 -0.870849 
-0.0370575 0.373295 -0.926972 
-0.026696 0.273685 -0.961449 
-0.00423682 0.256148 -0.966628 
0.00323013 0.203684 -0.979031 
0.00539431 0.154291 -0.988011 
0.00596842 0.113497 -0.99352 
0.00566431 0.0840759 -0.996443 
0.00528252 0.0634924 -0.997968 
0.00501837 0.0490028 -0.998786 
0.00471075 0.0383662 -0.999253 
0.00426483 0.0302281 -0.999534 
0.00387396 0.0244254 -0.999694 
0.00324048 0.0193614 -0.999807 
0.00258861 0.0152257 -0.999881 
0.00192836 0.0117589 -0.999929 
0.00138252 0.00903988 -0.999958 
0.000980516 0.00690984 -0.999976 
0.000704661 0.00528489 -0.999986 
0.000521913 0.0041079 -0.999991 
0.000401901 0.00327097 -0.999995 
0.000324731 0.00266742 -0.999996 
0.000279365 0.00222812 -0.999997 
0.000254848 0.00189569 -0.999998 
0.000241128 0.00163665 -0.999999 
0.000237105 0.00143455 -0.999999 
0.000229312 0.00127107 -0.999999 
0.000217241 0.00113377 -0.999999 
0.00020946 0.00100809 -0.999999 
0.00017513 0.000897527 -1 
0.00014564 0.000782802 -1 
0.000117498 0.000672403 -1 
7.27843e-05 0.000569793 -1 
3.43678e-05 0.000505266 -1 
-2.16773e-05 0.000422863 -1 
-8.46146e-05 4.41092e-05 -1 
8.70423e-05 -4.42614e-05 1 
2.77809e-05 0.000496473 1 
-2.83432e-05 0.000540513 1 
-8.7595e-05 0.000601534 1 
-0.000145204 0.00069789 1 
-0.000171714 0.000779935 1 
-0.000212438 0.00086212 1 
-0.000235788 0.000977557 0.999999 
-0.000248656 0.00109492 0.999999 
-0.00025461 0.00125247 0.999999 
-0.00025513 0.0014152 0.999999 
-0.000257608 0.00161008 0.999999 
-0.000264845 0.00187752 0.999998 
-0.000288423 0.0022435 0.999997 
-0.000339739 0.00274284 0.999996 
-0.000428937 0.00347259 0.999994 
-0.000569676 0.00450642 0.99999 
-0.000796185 0.00596582 0.999982 
-0.00113456 0.00791368 0.999968 
-0.00160978 0.0103048 0.999946 
-0.00222501 0.0132557 0.99991 
-0.00298034 0.0169311 0.999852 
-0.00368724 0.0214497 0.999763 
-0.00419303 0.0267288 0.999634 
-0.00431305 0.0336424 0.999425 
-0.00428267 0.0418314 0.999116 
-0.00405548 0.0533142 0.99857 
-0.00412937 0.0687977 0.997622 
-0.00249813 0.0816623 0.996657 
0.000331636 0.126882 0.991918 
0.00937715 0.155494 0.987792 
0.0259738 0.209585 0.977445 
0.0197547 0.279903 0.959825 
0.0487703 0.257545 0.965035 
0.0319824 0.365211 0.930375 
0.0927956 0.426323 0.899799 
0.0324499 0.603642 0.796595 
0.049408 0.723782 0.688258 
0.0125397 0.966655 0.255774 
-0.00571403 0.999159 -0.040608 
-0.0492106 0.793254 -0.606899 
-0.0693025 0.676664 -0.733023 
-0.0248671 0.621716 -0.782848 
-0.0720348 0.529014 -0.84555 
-0.0757586 0.393651 -0.916133 
-0.0560657 0.281731 -0.957854 
-0.0175609 0.203797 -0.978856 
-0.00543479 0.169103 -0.985583 
0.000233565 0.130375 -0.991465 
0.00277015 0.099006 -0.995083 
0.00366014 0.0747854 -0.997193 
0.00398967 0.0575929 -0.998332 
0.0042475 0.0454169 -0.998959 
0.00421474 0.0360527 -0.999341 
0.00389726 0.0292777 -0.999564 
0.00336169 0.0232412 -0.999724 
0.00289374 0.0185669 -0.999823 
0.00228403 0.0146452 -0.99989 
0.00166873 0.011531 -0.999932 
0.00116781 0.00897932 -0.999959 
0.000825649 0.0068938 -0.999976 
0.000603526 0.00527471 -0.999986 
0.000459437 0.00408453 -0.999992 
0.000368806 0.00321803 -0.999995 
0.000316402 0.00260738 -0.999997 
0.000289345 0.00216851 -0.999998 
0.000277992 0.0018413 -0.999998 
0.000274897 0.00159479 -0.999999 
0.000274816 0.00139499 -0.999999 
0.000270911 0.00123756 -0.999999 
0.000260032 0.00110702 -0.999999 
0.000241676 0.000983547 -0.999999 
0.000206873 0.000875019 -1 
0.000170604 0.00077423 -1 
0.00013427 0.00069526 -1 
8.89433e-05 0.00061287 -1 
3.51969e-05 0.000555806 -1 
-2.822e-05 0.000486642 -1 
-0.000102636 2.81441e-05 -1 
0.000104102 -3.16527e-05 1 
5.73751e-05 0.000549779 1 
-6.12191e-05 0.000611649 1 
-0.000112638 0.000668146 1 
-0.000159879 0.000738477 1 
-0.000186107 0.000776035 1 
-0.000209852 0.000825028 1 
-0.00023707 0.000909046 1 
-0.000256807 0.00101443 0.999999 
-0.00026338 0.00114195 0.999999 
-0.000260722 0.00128707 0.999999 
-0.000253094 0.00145349 0.999999 
-0.000243332 0.00168908 0.999999 
-0.000241488 0.00199196 0.999998 
-0.000253569 0.00241942 0.999997 
-0.00029259 0.00301489 0.999995 
-0.000354958 0.00387861 0.999992 
-0.00046206 0.00511529 0.999987 
-0.00063668 0.00678841 0.999977 
-0.00090597 0.00893409 0.99996 
-0.0013192 0.0115169 0.999933 
-0.00188299 0.0146867 0.99989 
-0.00251185 0.0185039 0.999826 
-0.00295557 0.023069 0.99973 
-0.00317269 0.0285163 0.999588 
-0.00276169 0.0355223 0.999365 
-0.00241257 0.0448457 0.998991 
-0.00148413 0.0576807 0.998334 
0.000590834 0.0687485 0.997634 
0.00172126 0.096905 0.995292 
0.00941402 0.117657 0.99301 
0.0238831 0.155439 0.987557 
0.04506 0.184777 0.981747 
0.0751725 0.220512 0.972483 
0.0679054 0.333159 0.940422 
0.140189 0.372037 0.917571 
0.0883556 0.58156 0.808691 
0.151317 0.530727 0.833926 
0.05184 0.8789 0.474181 
0.0330357 0.975566 0.21721 
-0.0277979 0.967928 -0.249685 
-0.125905 0.737928 -0.663032 
-0.134014 0.554286 -0.821467 
-0.127143 0.411857 -0.902335 
-0.0931696 0.288531 -0.952927 
-0.0695105 0.207974 -0.975661 
-0.0407896 0.207189 -0.97745 
-0.0266988 0.15675 -0.987277 
-0.0134261 0.137772 -0.990373 
-0.00586678 0.109792 -0.993937 
-0.00127512 0.0841898 -0.996449 
0.000691557 0.0642672 -0.997932 
0.00181884 0.0498805 -0.998754 
0.00259958 0.0396542 -0.99921 
0.00266186 0.0320128 -0.999484 
0.00261737 0.0259115 -0.999661 
0.00221843 0.0202026 -0.999793 
0.00183939 0.0161733 -0.999868 
0.00130727 0.0128685 -0.999916 
0.0008856 0.0101295 -0.999948 
0.000605614 0.00779425 -0.999969 
0.000447889 0.00593953 -0.999982 
0.000349969 0.00453851 -0.99999 
0.000294654 0.00350979 -0.999994 
0.000264667 0.00278432 -0.999996 
0.000255664 0.002282 -0.999997 
0.000259016 0.00192253 -0.999998 
0.000266981 0.00165189 -0.999999 
0.000276378 0.00144087 -0.999999 
0.000280393 0.00126745 -0.999999 
0.000275033 0.00112981 -0.999999 
0.000258455 0.00101367 -0.999999 
0.000225135 0.000896819 -1 
0.000187801 0.000805941 -1 
0.000137824 0.00072044 -1 
7.9694e-05 0.000639691 -1 
1.53012e-05 0.000591328 -1 
-5.0392e-05 0.000535287 -1 
-0.000114752 4.53397e-05 -1 
9.35232e-05 4.61387e-05 1 
3.90245e-05 0.000627132 1 
-2.02084e-06 0.000590345 1 
-5.6372e-05 0.000649623 1 
-0.00010775 0.000694109 1 
-0.000184961 0.000787158 1 
-0.000225865 0.000868012 1 
-0.000248001 0.000947742 1 
-0.000259203 0.00106337 0.999999 
-0.000255761 0.00118313 0.999999 
-0.000239171 0.00133742 0.999999 
-0.000223395 0.00153636 0.999999 
-0.000201509 0.00180723 0.999998 
-0.000189723 0.00216397 0.999998 
-0.000187707 0.00267892 0.999996 
-0.000200988 0.00338554 0.999994 
-0.00022477 0.00441439 0.99999 
-0.000269423 0.00583121 0.999983 
-0.000365792 0.00767648 0.99997 
-0.000561167 0.010008 0.99995 
-0.000904369 0.0127768 0.999918 
-0.00134531 0.0160641 0.99987 
-0.00174045 0.0198762 0.999801 
-0.00190004 0.0244607 0.999699 
-0.00175493 0.0298446 0.999553 
-0.00095987 0.0374886 0.999297 
-2.10251e-05 0.0471133 0.99889 
0.00224766 0.0546925 0.998501 
0.00457523 0.0744143 0.997217 
0.00935058 0.0909452 0.995812 
0.0197291 0.115325 0.993132 
0.0353319 0.132573 0.990543 
0.057573 0.151614 0.986762 
0.0895052 0.169913 0.981386 
0.104149 0.284629 0.952963 
0.126281 0.216768 0.968021 
0.174595 0.280591 0.943814 
0.211418 0.425338 0.879994 
0.114193 0.730289 0.673526 
-0.0179983 0.998339 -0.0547205 
-0.0738041 0.893079 -0.443804 
-0.210771 0.612989 -0.761459 
-0.199244 0.4169 -0.886846 
-0.168355 0.243482 -0.955182 
-0.136299 0.293108 -0.946314 
-0.0987856 0.192207 -0.97637 
-0.0481639 0.157858 -0.986287 
-0.0310336 0.122144 -0.992027 
-0.0175158 0.107698 -0.994029 
-0.00876545 0.0884241 -0.996044 
-0.0041288 0.069462 -0.997576 
-0.00152309 0.0542375 -0.998527 
0.000132243 0.0427846 -0.999084 
0.000932023 0.0348715 -0.999391 
0.00129972 0.0284082 -0.999596 
0.00149245 0.0230392 -0.999733 
0.00113634 0.018354 -0.999831 
0.000843003 0.0149336 -0.999888 
0.000500387 0.0119528 -0.999928 
0.000306523 0.00939004 -0.999956 
0.000216539 0.00722949 -0.999974 
0.000189776 0.0055217 -0.999985 
0.000181296 0.00420468 -0.999991 
0.000181049 0.00326153 -0.999995 
0.000187205 0.00260117 -0.999997 
0.000203093 0.00214508 -0.999998 
0.000223825 0.00182045 -0.999998 
0.000245178 0.00156952 -0.999999 
0.00026315 0.0013719 -0.999999 
0.000269953 0.00121111 -0.999999 
0.000264957 0.001081 -0.999999 
0.000245517 0.000965533 -1 
0.000212065 0.000871457 -1 
0.000172594 0.000792465 -1 
0.000124476 0.000730709 -1 
8.12538e-05 0.000674287 -1 
2.60596e-05 0.000641447 -1 
-3.92353e-05 0.000604519 -1 
-0.000108095 6.7467e-05 -1 
6.47568e-05 8.87425e-05 1 
2.08927e-05 0.000678249 1 
-1.53994e-05 0.000652708 1 
-7.2019e-05 0.00069186 1 
-0.000137936 0.000735079 1 
-0.000165581 0.000777301 1 
-0.000205117 0.00083314 1 
-0.000230969 0.000905192 1 
-0.00024649 0.000995534 0.999999 
-0.000238775 0.00110406 0.999999 
-0.000224069 0.00123339 0.999999 
-0.000195331 0.0014273 0.999999 
-0.000170483 0.0016573 0.999999 
-0.000137954 0.00198791 0.999998 
-0.000117024 0.00242887 0.999997 
-9.48035e-05 0.00306223 0.999995 
-7.51311e-05 0.00393448 0.999992 
-4.474e-05 0.0051606 0.999987 
-2.38597e-05 0.00680489 0.999977 
-7.05336e-05 0.00891405 0.99996 
-0.00023252 0.0115106 0.999934 
-0.000520734 0.0145145 0.999895 
-0.000806005 0.017968 0.999838 
-0.00096597 0.0219628 0.999758 
-0.000789778 0.0266397 0.999645 
-0.00030965 0.0324138 0.999474 
0.0010931 0.0404147 0.999182 
0.00337966 0.0476613 0.998858 
0.00617759 0.0617275 0.998074 
0.0115678 0.074881 0.997125 
0.0199014 0.0922253 0.995539 
0.0332653 0.101725 0.994256 
0.0567883 0.116714 0.991541 
0.0872213 0.122776 0.988594 
0.134668 0.148705 0.979669 
0.193038 0.188136 0.962986 
0.257389 0.313993 0.913871 
0.304424 0.524209 0.795318 
0.208376 0.65527 0.726086 
0.125775 0.878247 0.46137 
-0.151361 0.874965 -0.459919 
-0.307521 0.534375 -0.787321 
-0.248447 0.321957 -0.913574 
-0.189433 0.164205 -0.968066 
-0.129954 0.159303 -0.978639 
-0.0910605 0.120861 -0.988484 
-0.0679889 0.140305 -0.987771 
-0.0449719 0.112402 -0.992645 
-0.0249139 0.09104 -0.995536 
-0.0150144 0.0807788 -0.996619 
-0.00845079 0.0667719 -0.997732 
-0.00443937 0.053578 -0.998554 
-0.00188197 0.042919 -0.999077 
-0.000615093 0.0345261 -0.999404 
7.97859e-05 0.0287107 -0.999588 
0.000480928 0.0236189 -0.999721 
0.000415729 0.0193049 -0.999814 
0.000117878 0.0153966 -0.999881 
-4.98423e-05 0.0124451 -0.999923 
-0.00011297 0.00978282 -0.999952 
-8.14743e-05 0.00756276 -0.999971 
-1.92313e-05 0.00576021 -0.999983 
3.93052e-05 0.00439459 -0.99999 
7.8509e-05 0.00337897 -0.999994 
0.000109376 0.00267431 -0.999996 
0.000140805 0.00218256 -0.999998 
0.000173711 0.00183824 -0.999998 
0.000205985 0.00158315 -0.999999 
0.000232704 0.00137703 -0.999999 
0.000246082 0.00121198 -0.999999 
0.000246979 0.00107603 -0.999999 
0.000237245 0.000970594 -1 
0.000205628 0.000876233 -1 
0.000167003 0.000802581 -1 
0.000116955 0.000743606 -1 
6.7628e-05 0.000694822 -1 
1.53372e-05 0.00067245 -1 
-3.77624e-05 0.000647733 -1 
-8.20559e-05 3.57631e-05 -1 
3.73761e-05 0.000128517 1 
3.22903e-06 0.000707685 1 
-3.03835e-05 0.000690845 1 
-7.04856e-05 0.000719232 1 
-0.000111824 0.000729884 1 
-0.000154991 0.000778061 1 
-0.000196616 0.000834831 1 
-0.000214917 0.000902086 1 
-0.000223696 0.000992137 0.999999 
-0.000203235 0.00108981 0.999999 
-0.000185848 0.00125272 0.999999 
-0.000146433 0.00144144 0.999999 
-0.00011657 0.00170257 0.999999 
-7.45949e-05 0.00204046 0.999998 
-4.32874e-05 0.00251612 0.999997 
-7.03399e-07 0.00316865 0.999995 
5.08863e-05 0.00408927 0.999992 
0.000127158 0.00534216 0.999986 
0.000205812 0.0070596 0.999975 
0.000224573 0.00928096 0.999957 
0.000132579 0.0119719 0.999928 
-6.71523e-05 0.0150099 0.999887 
-0.000255087 0.0184735 0.999829 
-0.000292761 0.0223604 0.99975 
-2.23819e-05 0.0269511 0.999637 
0.00069987 0.0328486 0.99946 
0.00224305 0.0381848 0.999268 
0.0056834 0.0484732 0.998808 
0.00984007 0.0589723 0.998211 
0.0171065 0.0702199 0.997385 
0.0263021 0.0768552 0.996695 
0.0433555 0.0880075 0.995176 
0.0667082 0.0840886 0.994223 
0.103526 0.0870664 0.990809 
0.155497 0.0918817 0.983554 
0.237552 0.129925 0.962647 
0.322342 0.250843 0.912783 
0.419514 0.444629 0.7914 
0.278025 0.808495 0.518689 
0.0124543 0.998501 0.053301 
-0.274496 0.827369 -0.490013 
-0.427113 0.456129 -0.780718 
-0.309604 0.248734 -0.917757 
-0.224829 0.110772 -0.968081 
-0.128161 0.0896712 -0.987691 
-0.0861556 0.0718003 -0.993691 
-0.0616908 0.0942765 -0.993633 
-0.037546 0.085485 -0.995632 
-0.0226494 0.0716562 -0.997172 
-0.013543 0.0629818 -0.997923 
-0.00789804 0.0534007 -0.998542 
-0.00411915 0.0441359 -0.999017 
-0.00201875 0.0364146 -0.999335 
-0.00100465 0.0300404 -0.999548 
-0.000450587 0.025353 -0.999678 
-0.000273291 0.0212291 -0.999775 
-0.000327116 0.0174749 -0.999847 
-0.000504909 0.014082 -0.999901 
-0.000500813 0.0113071 -0.999936 
-0.000410277 0.00888531 -0.99996 
-0.000269637 0.00686625 -0.999976 
-0.000144477 0.00525358 -0.999986 
-5.12634e-05 0.00402996 -0.999992 
7.54861e-06 0.00313449 -0.999995 
5.25313e-05 0.00250404 -0.999997 
9.19493e-05 0.0020657 -0.999998 
0.000131697 0.00175098 -0.999998 
0.000171455 0.0015089 -0.999999 
0.00019903 0.00131711 -0.999999 
0.000215262 0.00115711 -0.999999 
0.000219536 0.001027 -0.999999 
0.000212032 0.000936594 -1 
0.000183987 0.000859557 -1 
0.000154542 0.000802448 -1 
0.000109464 0.000754033 -1 
6.54018e-05 0.000715133 -1 
2.11262e-05 0.000699879 -1 
-2.34971e-05 0.000686458 -1 
-4.65883e-05 6.92069e-05 -1 
1.41556e-05 0.00012607 1 
-7.73433e-06 0.000726572 1 
-3.41268e-05 0.000717687 1 
-7.22991e-05 0.000736305 1 
-0.000112413 0.000746614 1 
-0.00013756 0.000775966 1 
-0.000173248 0.000815887 1 