# vtk DataFile Version 3.0 
Exported using Morpho https://github.com/Morpho-lang/morpho 
ASCII 
DATASET UNSTRUCTURED_GRID 

POINTS 1978 float 
-8.48528 -2.82843 -1.20321e-13 
-8.25618 -2.82843 -1.03124e-13 
-8.0339 -2.82843 -3.6513e-14 
-7.78652 -2.82843 -1.28331e-13 
-7.47156 -2.82843 -1.58835e-13 
-7.16507 -2.82843 -1.48056e-14 
-6.97406 -2.82843 -7.92147e-15 
-6.74386 -2.82843 -7.81138e-14 
-6.55354 -2.82843 7.16363e-14 
-6.35841 -2.82843 -2.35226e-13 
-6.16469 -2.82843 1.71617e-13 
-5.95052 -2.82843 -1.1403e-13 
-5.74044 -2.82843 -1.18341e-13 
-5.53936 -2.82843 -2.42558e-13 
-5.32224 -2.82843 -1.69615e-13 
-5.11046 -2.82843 -2.63723e-13 
-4.8994 -2.82843 -5.52525e-13 
-4.6893 -2.82843 -8.5559e-13 
-4.48338 -2.82843 -1.26216e-12 
-4.27378 -2.82843 -1.88782e-12 
-4.06566 -2.82843 -3.12091e-12 
-3.85688 -2.82843 -4.92663e-12 
-3.65524 -2.82843 -6.63811e-12 
-3.43837 -2.82843 -8.22632e-12 
-3.23707 -2.82843 -1.90258e-11 
-3.03464 -2.82843 -2.60519e-11 
-2.83207 -2.82843 -2.70738e-11 
-2.60852 -2.82843 -6.90749e-11 
-2.38971 -2.82843 -6.46307e-11 
-2.17588 -2.82843 -1.367e-10 
-1.97796 -2.82843 -2.0515e-10 
-1.79097 -2.82843 -2.22819e-10 
-1.62525 -2.82843 2.81568e-10 
-1.45908 -2.82843 5.0252e-10 
-1.29672 -2.82843 3.82658e-09 
-1.12237 -2.82843 1.18247e-08 
-0.935532 -2.82843 3.80907e-08 
-0.743612 -2.82843 1.25557e-07 
-0.249207 -2.82842 2.70573e-07 
0.158673 -2.82842 1.12615e-07 
0.516181 -2.82843 -1.22234e-06 
0.787542 -2.82842 7.67779e-07 
0.93545 -2.82843 -5.45538e-08 
1.11436 -2.82843 -1.02186e-08 
1.26467 -2.82843 -1.51009e-09 
1.3978 -2.82843 -1.91608e-09 
1.57638 -2.82843 -2.93719e-10 
1.76589 -2.82843 -6.78607e-11 
1.96609 -2.82843 -5.96157e-11 
2.17707 -2.82843 1.42934e-10 
2.41521 -2.82843 1.02361e-10 
2.63628 -2.82843 5.55008e-11 
2.84672 -2.82843 2.67223e-11 
3.05062 -2.82843 2.86273e-11 
3.25755 -2.82843 9.58916e-12 
3.4391 -2.82843 7.46817e-12 
3.63999 -2.82843 8.78242e-12 
3.83693 -2.82843 4.24961e-12 
4.0414 -2.82843 3.12388e-12 
4.25187 -2.82843 1.28135e-12 
4.46538 -2.82843 2.03311e-12 
4.67803 -2.82843 7.54765e-13 
4.88736 -2.82843 7.11089e-13 
5.09311 -2.82843 1.75301e-13 
5.29833 -2.82843 1.25628e-13 
5.50908 -2.82843 1.15097e-13 
5.72476 -2.82843 1.99128e-13 
5.94358 -2.82843 1.84712e-13 
6.16739 -2.82843 1.38564e-13 
6.3846 -2.82843 8.00061e-14 
6.60865 -2.82843 3.17024e-14 
6.83567 -2.82843 3.5826e-14 
7.04651 -2.82843 -2.63125e-15 
7.30547 -2.82843 7.88562e-14 
7.54547 -2.82843 8.8675e-14 
7.76394 -2.82843 1.03202e-13 
8.03615 -2.82843 1.06391e-13 
8.22848 -2.82843 1.4978e-13 
8.48528 -2.82843 1.78706e-14 
-8.48528 -2.58493 2.01238e-13 
-8.26528 -2.5944 4.00331e-17 
-8.03837 -2.58054 6.39543e-17 
-7.80798 -2.61357 4.27935e-17 
-7.54178 -2.65616 1.23567e-16 
-7.24441 -2.65032 1.17278e-16 
-6.98313 -2.54697 5.21697e-17 
-6.78595 -2.60722 -1.63996e-17 
-6.55709 -2.56797 3.42232e-16 
-6.34664 -2.56736 1.34947e-16 
-6.11754 -2.59923 7.57751e-17 
-5.89146 -2.5929 3.07741e-16 
-5.67723 -2.58 5.90024e-16 
-5.45491 -2.60074 1.17581e-15 
-5.23001 -2.59836 2.71587e-15 
-5.00771 -2.60003 6.91847e-15 
-4.78734 -2.60027 1.85575e-14 
-4.56997 -2.59576 -6.51618e-21 
-4.35413 -2.59927 -1.7319e-20 
-4.13742 -2.59673 -4.25847e-20 
-3.92146 -2.59727 -9.57344e-20 
-3.70539 -2.59053 -1.88649e-19 
-3.48902 -2.60867 -3.70018e-19 
-3.26037 -2.59058 -7.31089e-19 
-3.04637 -2.59609 -1.29071e-18 
-2.82514 -2.59015 -2.39419e-18 
-2.60645 -2.60573 -5.07075e-18 
-2.34587 -2.6249 -1.33043e-17 
-2.09546 -2.60398 -3.08118e-17 
-1.94365 -2.4142 -6.58566e-17 
-1.8512 -2.60805 -7.861e-17 
-1.6421 -2.54152 -1.95966e-16 
-1.45259 -2.57377 -5.38866e-16 
-1.2488 -2.5922 -1.06603e-15 
-1.04945 -2.6178 -2.02673e-15 
-0.894016 -2.43283 -3.37349e-15 
-0.833391 -2.63416 -5.29564e-15 
-0.583621 -2.75441 -6.75355e-16 
-0.412968 -2.68313 -1.62167e-14 
-0.0370581 -2.73678 1.18776e-14 
0.391457 -2.71998 1.35823e-14 
0.665808 -2.67764 1.11484e-14 
1.01354 -2.63839 2.97977e-15 
1.01 -2.42362 1.81707e-15 
1.19344 -2.58592 1.53753e-15 
1.1705 -2.33879 7.60758e-16 
1.35179 -2.52542 7.4479e-16 
1.52186 -2.59827 4.32192e-16 
1.73024 -2.60287 1.50495e-16 
1.95756 -2.59224 5.14549e-17 
2.21711 -2.62273 1.70558e-17 
2.47251 -2.61072 7.87493e-18 
2.71437 -2.60241 3.21786e-18 
2.9465 -2.59861 1.60396e-18 
3.17385 -2.60571 7.86516e-19 
3.39268 -2.57321 5.32106e-19 
3.59849 -2.59503 2.38479e-19 
3.81626 -2.59223 1.27454e-19 
4.03167 -2.5979 5.99689e-20 
4.25172 -2.59353 2.88335e-20 
4.47326 -2.59895 8.9568e-21 
4.69147 -2.59704 -2.61149e-14 
4.90564 -2.59359 -1.00762e-14 
5.1183 -2.59168 -4.178e-15 
5.33396 -2.5957 -1.95204e-15 
5.55382 -2.59832 -1.01313e-15 
5.77688 -2.59841 -5.71146e-16 
6.00366 -2.60018 -3.31586e-16 
6.22661 -2.59003 -2.09674e-16 
6.45179 -2.59479 -3.75723e-16 
6.68107 -2.59471 -1.86633e-16 
6.89815 -2.57465 -8.12692e-17 
7.13884 -2.61904 -9.77467e-17 
7.38963 -2.60386 -1.02773e-16 
7.61434 -2.58077 -5.14998e-17 
7.86309 -2.62892 -6.54617e-17 
8.06825 -2.54688 -2.31151e-17 
8.2951 -2.61664 -1.19527e-17 
8.48528 -2.54223 -1.42775e-13 
-8.48528 -2.33978 1.76916e-13 
-8.26612 -2.35516 -3.8028e-17 
-8.02628 -2.34904 -2.81981e-18 
-7.78277 -2.39279 2.97955e-17 
-7.54852 -2.25524 2.90722e-17 
-7.52752 -2.46641 7.92928e-17 
-7.24934 -2.44863 6.11425e-17 
-6.98344 -2.33829 1.04589e-16 
-6.72361 -2.36281 1.44631e-16 
-6.48651 -2.32761 1.26073e-16 
-6.24951 -2.3591 1.90954e-16 
-6.02565 -2.36699 3.19476e-16 
-5.8094 -2.34566 5.55293e-16 
-5.58115 -2.35817 1.054e-15 
-5.36209 -2.37372 2.23418e-15 
-5.13681 -2.37464 5.22889e-15 
-4.91443 -2.37571 1.33914e-14 
-4.69549 -2.37236 3.56558e-14 
-4.47547 -2.36997 -1.19623e-20 
-4.26004 -2.37076 -2.9612e-20 
-4.04349 -2.36757 -6.86009e-20 
-3.82915 -2.36489 -1.46502e-19 
-3.60793 -2.36763 -2.97143e-19 
-3.39433 -2.38266 -5.79213e-19 
-3.16854 -2.35795 -1.06291e-18 
-2.9546 -2.36628 -1.95615e-18 
-2.73095 -2.36216 -3.65127e-18 
-2.4941 -2.41925 -8.1563e-18 
-2.23559 -2.41867 -2.23281e-17 
-2.08138 -2.24104 -1.83343e-17 
-1.72315 -2.32406 -1.33184e-16 
-1.51706 -2.14562 -1.24714e-16 
-1.47497 -2.33358 -2.89569e-16 
-1.27896 -2.36542 -7.40929e-16 
-1.07411 -2.38398 -1.85125e-15 
-0.867008 -2.18933 -2.28795e-15 
-0.662941 -2.55182 -6.59247e-15 
-0.440821 -2.51958 -1.93708e-14 
-0.204455 -2.64301 -1.37122e-14 
0.155166 -2.66999 1.66154e-14 
0.309225 -2.55487 1.60518e-14 
0.531488 -2.56174 6.03862e-15 
0.834754 -2.56971 4.79747e-15 
0.872081 -2.31583 5.63766e-15 
1.05086 -2.14841 5.14085e-16 
1.25849 -2.10538 1.90981e-16 
1.37408 -2.29807 3.92409e-16 
1.56707 -2.3635 2.4756e-16 
1.77743 -2.3823 1.18756e-16 
2.01559 -2.39342 4.52239e-17 
2.25231 -2.40663 1.67641e-17 
2.48315 -2.38095 6.85028e-18 
2.70966 -2.3816 3.41575e-18 
2.9381 -2.37596 1.74076e-18 
3.16344 -2.38184 9.87508e-19 
3.37115 -2.33537 4.52645e-19 
3.58231 -2.35529 2.87316e-19 
3.79364 -2.36608 1.5268e-19 
4.01322 -2.36911 7.42743e-20 
4.22912 -2.36704 3.37431e-20 
4.44766 -2.37141 1.43889e-20 
4.6642 -2.36864 -4.50816e-14 
4.87923 -2.36197 -1.75793e-14 
5.09157 -2.35836 -7.07312e-15 
5.30456 -2.36347 -3.0638e-15 
5.51938 -2.36905 -1.48887e-15 
5.7389 -2.37054 -1.05353e-15 
5.96302 -2.37265 -6.55777e-16 
6.18715 -2.3582 -4.04915e-16 
6.41295 -2.35959 -2.56422e-16 
6.63699 -2.36264 -2.60382e-16 
6.86043 -2.32988 -1.61179e-16 
7.08748 -2.38377 -5.88332e-17 
7.31987 -2.39213 -7.03233e-17 
7.55879 -2.3424 -8.76713e-17 
7.79428 -2.39457 -4.56074e-17 
8.00688 -2.31502 -9.77253e-19 
8.24899 -2.35938 1.88149e-17 
8.48528 -2.31458 -1.19097e-13 
-8.48528 -2.09842 7.80333e-14 
-8.25312 -2.0995 -7.52261e-17 
-8.0499 -2.11554 2.62827e-17 
-7.80106 -2.16355 2.61671e-17 
-7.53965 -2.04861 4.33274e-17 
-7.28786 -2.25623 8.31402e-17 
-7.0873 -2.12886 4.08573e-17 
-6.82387 -2.14012 1.67416e-16 
-6.59408 -2.12631 -1.99809e-16 
-6.33328 -2.12673 2.53523e-16 
-6.11115 -2.13299 3.32462e-16 
-5.89705 -2.11097 5.63483e-16 
-5.67435 -2.12586 5.21706e-16 
-5.45386 -2.13279 9.99841e-16 
-5.24008 -2.14945 2.17872e-15 
-5.02095 -2.1505 5.07816e-15 
-4.80511 -2.14738 1.23789e-14 
-4.58914 -2.14686 3.14238e-14 
-4.37477 -2.14082 -9.49383e-21 
-4.16393 -2.14015 -2.16461e-20 
-3.95192 -2.13501 -4.62687e-20 
-3.73651 -2.1406 -9.961e-20 
-3.52097 -2.13897 -1.9275e-19 
-3.31288 -2.15053 -3.48632e-19 
-3.09295 -2.12227 -5.83706e-19 
-2.88419 -2.13505 -1.103e-18 
-2.65106 -2.15776 -2.38231e-18 
-2.42201 -2.21924 -3.78816e-18 
-2.25529 -2.10635 -7.95527e-18 
-1.87476 -2.14764 -1.40024e-17 
-1.67693 -2.02866 -3.11798e-17 
-1.41143 -1.93789 7.55306e-17 
-1.2659 -2.12437 -5.7676e-16 
-1.19573 -1.89085 5.6481e-16 
-1.07424 -2.16571 1.79783e-16 
-0.819611 -1.98562 9.89597e-16 
-0.726961 -2.3486 -7.31767e-15 
-0.538338 -2.35805 -1.23469e-14 
-0.211111 -2.47981 -7.32738e-15 
-0.00754073 -2.52622 -3.03423e-14 
0.457174 -2.4011 1.58863e-14 
0.596458 -2.2572 6.50778e-15 
0.701602 -2.42235 6.96128e-15 
0.768483 -2.14906 -2.57804e-16 
0.9346 -2.00808 5.79353e-16 
1.15079 -1.90718 -1.06513e-16 
1.47126 -2.04993 6.71285e-17 
1.64057 -2.14049 1.60181e-18 
1.85518 -2.16675 2.9664e-17 
2.08367 -2.17316 1.67601e-17 
2.31463 -2.17284 7.14037e-18 
2.54685 -2.15073 2.96912e-18 
2.7678 -2.15026 1.49368e-18 
2.99121 -2.15039 7.64302e-19 
3.19667 -2.13504 3.88785e-19 
3.41981 -2.10363 1.71366e-19 
3.63371 -2.12697 1.1418e-19 
3.85067 -2.14194 6.24853e-20 
4.06471 -2.13949 2.93014e-20 
4.28008 -2.14006 1.219e-20 
4.49312 -2.14142 -3.76063e-14 
4.70569 -2.13745 -1.45229e-14 
4.91689 -2.12856 -5.8909e-15 
5.13002 -2.1274 -2.79079e-15 
5.34261 -2.1324 -1.48014e-15 
5.55834 -2.13993 -8.33614e-16 
5.77963 -2.14371 -4.88839e-16 
5.999 -2.13986 -5.39804e-16 
6.22502 -2.12755 -3.44454e-16 
6.44599 -2.12391 -2.7328e-16 
6.66392 -2.12067 -8.83071e-17 
6.89797 -2.09919 -3.71285e-17 
7.11978 -2.15378 -1.18217e-16 
7.34961 -2.16027 -1.81036e-17 
7.55452 -2.08291 6.23251e-18 
7.76228 -2.15585 -3.56521e-17 
7.98946 -2.08599 1.12339e-16 
8.22884 -2.13475 4.14e-17 
8.48528 -2.10541 -1.91402e-13 
-8.48528 -1.78606 2.32969e-13 
-8.31669 -1.86523 -3.21541e-17 
-7.89952 -1.92406 1.30111e-17 
[...]
POINT_DATA 1978 
VECTORS vectors float
1.50894e-06 0.000268087 1 
-4.91715e-06 0.000354644 1 
-4.77976e-06 0.000440223 1 
-3.55534e-06 0.000543327 1 
-3.61114e-06 0.000697229 1 
-8.57914e-06 0.000864471 1 
-1.22566e-05 0.000967546 1 
-1.44449e-05 0.00109002 0.999999 
-1.394e-05 0.00119099 0.999999 
-1.47075e-05 0.00130531 0.999999 
-1.65532e-05 0.00142054 0.999999 
-1.95336e-05 0.0015799 0.999999 
-2.21556e-05 0.00177994 0.999998 
-2.80291e-05 0.00202762 0.999998 
-3.63209e-05 0.00237811 0.999997 
-4.81985e-05 0.00283561 0.999996 
-6.71787e-05 0.00346428 0.999994 
-9.48834e-05 0.00434957 0.999991 
-0.000136465 0.00559501 0.999984 
-0.000192948 0.00737862 0.999973 
-0.000259593 0.00980184 0.999952 
-0.000325383 0.0129812 0.999916 
-0.0004216 0.0168093 0.999859 
-0.000532663 0.0218997 0.99976 
-0.000618813 0.0279847 0.999608 
-0.000733981 0.0354122 0.999373 
-0.000784852 0.0445077 0.999009 
-0.0011129 0.0561519 0.998422 
-0.00143794 0.0742343 0.99724 
-0.00173449 0.0950152 0.995474 
-0.00214542 0.120371 0.992727 
-0.0026442 0.148593 0.988895 
-0.00336046 0.184248 0.982874 
-0.00416051 0.232467 0.972595 
-0.00556136 0.293724 0.955874 
-0.00703561 0.378009 0.925775 
-0.00735865 0.485868 0.874001 
-0.00742826 0.616446 0.787363 
-0.00534076 0.939629 0.342154 
-0.00472528 0.968423 -0.249266 
0.00240537 0.773861 -0.633351 
0.006268 0.588943 -0.80815 
0.00671444 0.49414 -0.869357 
0.00644267 0.391635 -0.920098 
0.00516316 0.316528 -0.948569 
0.00433663 0.261916 -0.965081 
0.00395909 0.206709 -0.978394 
0.00319161 0.160293 -0.987064 
0.00265267 0.12174 -0.992559 
0.00191748 0.0892522 -0.996007 
0.00116088 0.0674549 -0.997722 
0.000927014 0.0526603 -0.998612 
0.000791215 0.0420018 -0.999117 
0.000690759 0.033636 -0.999434 
0.000564354 0.026632 -0.999645 
0.000454499 0.021791 -0.999762 
0.000409181 0.017225 -0.999852 
0.000319344 0.0135367 -0.999908 
0.000259407 0.0104408 -0.999945 
0.000198728 0.00788111 -0.999969 
0.000138491 0.00595473 -0.999982 
9.7271e-05 0.00459669 -0.999989 
6.8477e-05 0.00366713 -0.999993 
4.90333e-05 0.00303681 -0.999995 
3.77626e-05 0.00258042 -0.999997 
3.10297e-05 0.00221202 -0.999998 
2.57418e-05 0.00190764 -0.999998 
2.14523e-05 0.00166116 -0.999999 
1.78375e-05 0.00146604 -0.999999 
1.55814e-05 0.00131678 -0.999999 
1.46169e-05 0.0011851 -0.999999 
1.29479e-05 0.00106139 -0.999999 
1.23669e-05 0.000945523 -1 
1.14999e-05 0.000797616 -1 
9.46933e-06 0.000665731 -1 
8.87521e-06 0.000551554 -1 
6.5663e-06 0.000420715 -1 
4.56975e-06 0.00034208 -1 
-1.06593e-06 0.000239094 -1 
4.78339e-05 0.000307295 1 
5.52926e-06 0.00038564 1 
-2.6725e-05 0.000460465 1 
-5.15031e-05 0.000548725 1 
-6.17348e-05 0.000662021 1 
-7.93347e-05 0.000807531 1 
-0.000129572 0.000928864 1 
-0.000116053 0.00103929 1 
-0.000142546 0.00115471 0.999999 
-0.000140407 0.00127937 0.999999 
-0.00013587 0.00143942 0.999999 
-0.000147852 0.0016322 0.999999 
-0.000169216 0.00187005 0.999998 
-0.000187368 0.00219426 0.999998 
-0.00024061 0.00264392 0.999997 
-0.000321157 0.00326182 0.999995 
-0.000446705 0.0041386 0.999991 
-0.000644945 0.00539013 0.999985 
-0.000910511 0.00710275 0.999974 
-0.0012766 0.00942411 0.999955 
-0.001709 0.0124297 0.999921 
-0.00226252 0.0162536 0.999865 
-0.00265162 0.0208998 0.999778 
-0.00326251 0.0271878 0.999625 
-0.00355876 0.0346266 0.999394 
-0.00381701 0.0442123 0.999015 
-0.0039891 0.0564897 0.998395 
-0.00448477 0.0760814 0.997092 
-0.00544948 0.105901 0.994362 
-0.00619952 0.125031 0.992134 
-0.00693391 0.143223 0.989666 
-0.00784815 0.185407 0.98263 
-0.00856013 0.242201 0.970188 
-0.00864041 0.317406 0.94825 
-0.00748245 0.414643 0.909954 
0.00965526 0.509038 0.86069 
-0.00499814 0.546799 0.837249 
-0.00727526 0.7326 0.68062 
-0.00323103 0.84317 0.537638 
-0.00190231 0.999168 0.0407283 
0.000197449 0.860214 -0.509932 
0.00370312 0.689801 -0.72399 
0.00761254 0.460683 -0.887532 
-0.00433327 0.438667 -0.898639 
0.00812262 0.359735 -0.933019 
-0.00816835 0.341758 -0.939753 
0.00737422 0.287319 -0.957807 
0.00780709 0.22727 -0.9738 
0.00716318 0.168064 -0.98575 
0.00614482 0.119542 -0.99281 
0.00494012 0.0845513 -0.996407 
0.00427267 0.0627564 -0.99802 
0.00385296 0.0482291 -0.998829 
0.00349879 0.0376843 -0.999284 
0.00305553 0.029546 -0.999559 
0.00289433 0.0233139 -0.999724 
0.00225326 0.0184854 -0.999827 
0.00182082 0.0142815 -0.999896 
0.0013571 0.0109026 -0.99994 
0.000973028 0.00823707 -0.999966 
0.000693482 0.00623113 -0.99998 
0.000498301 0.00477454 -0.999989 
0.000368424 0.00376776 -0.999993 
0.000279613 0.00306296 -0.999995 
0.000219365 0.00254532 -0.999997 
0.000184224 0.00215061 -0.999998 
0.000164961 0.00184213 -0.999998 
0.000152395 0.0015982 -0.999999 
0.000149612 0.00141097 -0.999999 
0.000140604 0.00125878 -0.999999 
0.000132208 0.00112409 -0.999999 
0.000130137 0.00100445 -1 
9.88441e-05 0.000879389 -1 
8.75354e-05 0.000746573 -1 
7.2e-05 0.000634252 -1 
3.93361e-05 0.000514832 -1 
1.88046e-05 0.000441678 -1 
-1.49656e-05 0.000351598 -1 
-6.56501e-05 0.000295105 -1 
7.20102e-05 0.000364671 1 
1.43253e-05 0.000436574 1 
-3.90296e-05 0.000504603 1 
-8.23582e-05 0.000580559 1 
-0.000134087 0.000680762 1 
-0.000107903 0.000677591 1 
-0.00014171 0.000802377 1 
-0.000191692 0.000913722 1 
-0.000201339 0.00103811 1 
-0.000220232 0.00117513 0.999999 
-0.000217643 0.00132731 0.999999 
-0.000223585 0.00150321 0.999999 
-0.000238962 0.00171535 0.999999 
-0.000260131 0.00201292 0.999998 
-0.000301576 0.0024051 0.999997 
-0.000383083 0.00297249 0.999996 
-0.000513568 0.00377215 0.999993 
-0.000717039 0.00491371 0.999988 
-0.00103255 0.0065329 0.999978 
-0.00147022 0.00862999 0.999962 
-0.0020505 0.0113323 0.999934 
-0.00275268 0.0147042 0.999888 
-0.0035436 0.0190414 0.999812 
-0.00418038 0.0241454 0.9997 
-0.00472759 0.0309678 0.999509 
-0.00499568 0.0390615 0.999224 
-0.00511427 0.0494836 0.998762 
-0.00520786 0.0636888 0.997956 
-0.00560852 0.0861735 0.996264 
-0.00450638 0.101881 0.994786 
-0.00374118 0.163394 0.986554 
0.00717574 0.201904 0.979379 
-0.00280341 0.228335 0.973579 
0.000911012 0.308393 0.951259 
0.00566697 0.404106 0.914695 
0.0488142 0.47371 0.879327 
0.00463793 0.675057 0.737751 
0.0177045 0.821808 0.569489 
-0.000304605 0.951921 0.306342 
-0.00429781 0.966635 -0.25612 
-0.0188344 0.886691 -0.461979 
-0.0123727 0.736252 -0.676594 
-0.000275811 0.574493 -0.818509 
-0.0286026 0.489873 -0.871324 
-0.0365757 0.373658 -0.926845 
-0.0265851 0.272731 -0.961723 
-0.00389291 0.255953 -0.966682 
0.00353919 0.203675 -0.979032 
0.00564577 0.154419 -0.987989 
0.00616243 0.113715 -0.993494 
0.00579986 0.0842044 -0.996432 
0.00538948 0.0636206 -0.99796 
0.00510555 0.0490283 -0.998784 
0.0047881 0.0383533 -0.999253 
0.0043339 0.030243 -0.999533 
0.00393232 0.0244463 -0.999693 
0.0032881 0.0193706 -0.999807 
0.00262509 0.0152287 -0.999881 
0.00195205 0.0117576 -0.999929 
0.00139681 0.00903425 -0.999958 
0.000990591 0.00690658 -0.999976 
0.000711526 0.00528005 -0.999986 
0.000526832 0.00410409 -0.999991 
0.000405483 0.00326871 -0.999995 
0.000327573 0.00266648 -0.999996 
0.000281907 0.00222831 -0.999998 
0.000257258 0.00189656 -0.999998 
0.000243449 0.0016378 -0.999999 
0.000239347 0.00143591 -0.999999 
0.000231586 0.00127262 -0.999999 
0.000219384 0.00113536 -0.999999 
0.000211573 0.00100961 -1 
0.000177018 0.000898973 -1 
0.000147335 0.000784055 -1 
0.000118859 0.000673243 -1 
7.38592e-05 0.000570183 -1 
3.50939e-05 0.000505473 -1 
-2.12849e-05 0.000425428 -1 
-9.1324e-05 0.000362215 -1 
9.66074e-05 0.000424734 1 
2.77764e-05 0.000500573 1 
-2.87674e-05 0.000540931 1 
-8.85146e-05 0.000602334 1 
-0.000146343 0.000699048 1 
-0.000173322 0.000780885 1 
-0.000214213 0.000863504 1 
-0.000237765 0.000978935 1 
-0.000250394 0.00109651 0.999999 
-0.000256377 0.00125419 0.999999 
-0.000256846 0.00141667 0.999999 
-0.000259177 0.00161116 0.999999 
-0.000266252 0.00187752 0.999998 
-0.0002897 0.00224244 0.999998 
-0.000341285 0.00274063 0.999996 
-0.000430796 0.00346864 0.999994 
-0.000571788 0.0045009 0.99999 
-0.000799213 0.005962 0.999982 
-0.00113978 0.00791594 0.999968 
-0.00161922 0.0103115 0.999946 
-0.00224119 0.013265 0.99991 
-0.00300928 0.0169464 0.999852 
-0.00372934 0.021473 0.999763 
-0.00424276 0.0267584 0.999633 
-0.00436319 0.0336754 0.999423 
-0.00434426 0.04188 0.999113 
-0.00411092 0.053329 0.998569 
-0.0042077 0.0686701 0.997631 
-0.00256295 0.0819118 0.996636 
0.000208515 0.126601 0.991954 
0.00932499 0.155131 0.98785 
0.0257639 0.209754 0.977415 
0.0193662 0.279887 0.959838 
0.0485879 0.257333 0.965101 
0.0316484 0.365326 0.930342 
0.0919296 0.424173 0.900903 
0.0319796 0.604233 0.796165 
0.0492505 0.722996 0.689095 
0.0113419 0.969624 0.244335 
-0.00618687 0.998944 -0.0455241 
-0.0489386 0.795247 -0.604307 
-0.0682624 0.680067 -0.729965 
-0.0244553 0.61984 -0.784347 
-0.0719865 0.529857 -0.845026 
-0.0756167 0.394999 -0.915564 
-0.0559397 0.282296 -0.957695 
-0.0173623 0.203567 -0.978907 
-0.00524004 0.168723 -0.98565 
0.000426624 0.130122 -0.991498 
0.00291374 0.098891 -0.995094 
0.00373883 0.0746508 -0.997203 
0.00406119 0.0575567 -0.998334 
0.00431377 0.0454249 -0.998959 
0.0042683 0.0360752 -0.99934 
0.0039426 0.0293099 -0.999563 
0.00339443 0.0232583 -0.999724 
0.00292539 0.018584 -0.999823 
0.00230574 0.0146531 -0.99989 
0.00168211 0.011539 -0.999932 
0.00117432 0.00898843 -0.999959 
0.000829137 0.00689535 -0.999976 
0.000606389 0.00527248 -0.999986 
0.000461606 0.0040817 -0.999992 
0.000370468 0.0032157 -0.999995 
0.000317939 0.00260631 -0.999997 
0.000290972 0.00216864 -0.999998 
0.000279768 0.00184231 -0.999998 
0.000276759 0.00159614 -0.999999 
0.000276752 0.00139654 -0.999999 
0.0002729 0.00123914 -0.999999 
0.000261996 0.00110875 -0.999999 
0.000243498 0.000985078 -1 
0.000208568 0.000876359 -1 
0.000172016 0.000775311 -1 
0.000135231 0.000696113 -1 
8.97681e-05 0.00061344 -1 
3.56818e-05 0.000556343 -1 
-2.79607e-05 0.000489383 -1 
-0.000111624 0.000422723 -1 
0.000114525 0.000525036 1 
5.76164e-05 0.000558488 1 
-6.15524e-05 0.000612355 1 
-0.000113333 0.000669242 1 
-0.000160637 0.000739543 1 
-0.000187515 0.000777514 1 
-0.000210966 0.000826262 1 
-0.000238451 0.000910141 1 
-0.000258333 0.00101604 1 
-0.000264854 0.00114325 0.999999 
-0.000262031 0.0012881 0.999999 
-0.00025428 0.00145428 0.999999 
-0.00024414 0.00168943 0.999999 
-0.000241971 0.00199099 0.999998 
-0.000253783 0.00241727 0.999997 
-0.000292748 0.00301117 0.999995 
-0.000354835 0.00387327 0.999992 
-0.000461328 0.00510977 0.999987 
-0.000635338 0.00678634 0.999977 
-0.000904456 0.00893837 0.99996 
-0.00131935 0.0115243 0.999933 
-0.00188769 0.0146937 0.99989 
-0.00252729 0.0185148 0.999825 
-0.00297759 0.0230778 0.999729 
-0.00319732 0.0285267 0.999588 
-0.00278436 0.035541 0.999364 
-0.00243862 0.0448788 0.99899 
-0.00147527 0.0577778 0.998328 
0.000552404 0.0686912 0.997638 
0.00159139 0.0969853 0.995285 
0.00936032 0.117525 0.993026 
0.0239796 0.155624 0.987525 
0.0449487 0.184797 0.981748 
0.0752728 0.220873 0.972393 
0.0675851 0.332834 0.94056 
0.140586 0.374101 0.91667 
0.0887383 0.581647 0.808586 
0.15076 0.531724 0.833391 
0.0499359 0.881069 0.470344 
0.0331821 0.974069 0.223803 
-0.0284429 0.966631 -0.254587 
-0.126393 0.736055 -0.665017 
-0.132717 0.554078 -0.821817 
-0.127532 0.410517 -0.90289 
-0.0929427 0.288967 -0.952817 
-0.0695327 0.208027 -0.975649 
-0.0408821 0.206884 -0.977511 
-0.0266796 0.156847 -0.987263 
-0.013387 0.137805 -0.990369 
-0.00583433 0.109958 -0.993919 
-0.0012168 0.0842801 -0.996441 
0.000714114 0.0642584 -0.997933 
0.00184514 0.0499048 -0.998752 
0.00262667 0.0396726 -0.999209 
0.00267964 0.0320293 -0.999483 
0.00263611 0.0259381 -0.99966 
0.00223126 0.0202039 -0.999793 
0.00185138 0.0161818 -0.999867 
0.00130914 0.0128746 -0.999916 
0.000883873 0.0101383 -0.999948 
0.000603316 0.00779526 -0.999969 
0.000447008 0.00593495 -0.999982 
0.000349787 0.00453322 -0.99999 
0.000294742 0.00350525 -0.999994 
0.000264904 0.00278127 -0.999996 
0.000256197 0.00228076 -0.999997 
0.000259874 0.00192269 -0.999998 
0.000268121 0.00165282 -0.999999 
0.000277772 0.00144206 -0.999999 
0.000281966 0.00126876 -0.999999 
0.000276623 0.00113119 -0.999999 
0.000259942 0.0010152 -1 
0.00022637 0.000898115 -1 
0.000188807 0.000807038 -1 
0.000138507 0.000721518 -1 
8.01785e-05 0.000640566 -1 
1.54956e-05 0.000592131 -1 
-5.04409e-05 0.000540372 -1 
-0.000124508 0.000505339 -1 
0.000101362 0.000601575 1 
3.9056e-05 0.000633887 1 
-1.96396e-06 0.000591156 1 
-5.65985e-05 0.000650405 1 
-0.000108081 0.000695139 1 
-0.000185768 0.000788325 1 
-0.000227008 0.000869319 1 
-0.000249356 0.000949144 1 
-0.000260573 0.00106474 0.999999 
-0.000257052 0.00118413 0.999999 
-0.000240216 0.00133863 0.999999 
-0.000224303 0.0015369 0.999999 
-0.000201881 0.00180713 0.999998 
-0.000189854 0.00216251 0.999998 
-0.000187569 0.00267611 0.999996 
-0.000200604 0.00338132 0.999994 
-0.000223647 0.00440927 0.99999 
-0.000266749 0.00582736 0.999983 
-0.000361283 0.00767751 0.999971 
-0.000555663 0.0100165 0.99995 
-0.000899414 0.012787 0.999918 
-0.00134569 0.0160756 0.99987 
-0.00174727 0.0198864 0.999801 
-0.00191199 0.0244709 0.999699 
-0.00176556 0.0298427 0.999553 
-0.000973301 0.0374894 0.999297 
-2.82857e-05 0.0471095 0.99889 
0.00226633 0.0547378 0.998498 
0.00455839 0.0745118 0.99721 
0.00934376 0.0909329 0.995813 
0.0197705 0.115519 0.993109 
0.0354053 0.132314 0.990575 
0.0576498 0.152041 0.986692 
0.0894535 0.16947 0.981467 
0.104543 0.285109 0.952777 
0.125755 0.216711 0.968102 
0.174491 0.279885 0.944043 
0.211406 0.423786 0.880746 
0.113432 0.732685 0.671049 
-0.0153776 0.998929 -0.0436294 
-0.0748659 0.893847 -0.442076 
-0.210267 0.611634 -0.762687 
-0.199424 0.418323 -0.886135 
-0.168815 0.244867 -0.954747 
-0.136131 0.292501 -0.946526 
-0.098713 0.192402 -0.976339 
-0.0481436 0.157568 -0.986334 
-0.0309705 0.12209 -0.992036 
-0.0174962 0.10761 -0.994039 
-0.00871367 0.0884822 -0.99604 
-0.00411599 0.0694782 -0.997575 
-0.00152131 0.0542231 -0.998528 
0.000143242 0.042786 -0.999084 
0.000938671 0.0348726 -0.999391 
0.00130401 0.0284175 -0.999595 
0.0015032 0.0230551 -0.999733 
0.00113726 0.0183634 -0.999831 
0.000843074 0.0149519 -0.999888 
0.000493125 0.0119676 -0.999928 
0.000300539 0.0093998 -0.999956 
0.000213096 0.0072309 -0.999974 
0.000188453 0.00551898 -0.999985 
0.000180872 0.00420047 -0.999991 
0.000180903 0.00325793 -0.999995 
0.00018719 0.00259899 -0.999997 
0.000203334 0.00214452 -0.999998 
0.00022441 0.00182101 -0.999998 
0.000246145 0.00157074 -0.999999 
0.000264473 0.00137314 -0.999999 
0.000271455 0.00121258 -0.999999 
0.000266436 0.00108237 -0.999999 
0.000246814 0.000966983 -1 
0.00021306 0.000872774 -1 
0.000173346 0.000793685 -1 
0.000124925 0.000731765 -1 
8.15245e-05 0.000675205 -1 
2.60826e-05 0.000642303 -1 
-3.9409e-05 0.000608542 -1 
-0.000117092 0.000572725 -1 
6.96802e-05 0.000658458 1 
2.1258e-05 0.000683861 1 
-1.54881e-05 0.000653726 1 
-7.20446e-05 0.000692797 1 
-0.000138542 0.000736237 1 
-0.000166188 0.00077841 1 
-0.000206056 0.000834165 1 
-0.000232282 0.000906341 1 
-0.000247898 0.000996558 1 
-0.00023999 0.00110503 0.999999 
-0.000225219 0.00123431 0.999999 
-0.000196076 0.00142808 0.999999 
-0.000171094 0.00165686 0.999999 
-0.00013807 0.00198664 0.999998 
-0.000117029 0.00242589 0.999997 
-9.46411e-05 0.00305784 0.999995 
-7.44364e-05 0.00392876 0.999992 
-4.24448e-05 0.00515439 0.999987 
-1.88926e-05 0.00680123 0.999977 
-6.31647e-05 0.00891753 0.99996 
-0.000224032 0.0115209 0.999934 
-0.000515877 0.0145299 0.999894 
-0.000805803 0.0179866 0.999838 
-0.000970841 0.0219888 0.999758 
-0.000794292 0.0266668 0.999644 
-0.000313981 0.0324465 0.999473 
0.00109147 0.0404582 0.999181 
0.00337566 0.0476701 0.998857 
0.00618079 0.061718 0.998075 
0.0114971 0.0747584 0.997135 
0.019831 0.0922352 0.99554 
0.0331203 0.101424 0.994292 
0.0567343 0.116929 0.991518 
0.0871715 0.122515 0.988631 
0.134646 0.14906 0.979618 
0.193294 0.188761 0.962812 
0.25788 0.314982 0.913391 
0.304575 0.525759 0.794236 
0.208431 0.650501 0.730346 
0.128643 0.874974 0.466766 
-0.151266 0.875186 -0.45953 
-0.307517 0.534346 -0.787342 
-0.249604 0.321415 -0.91345 
-0.18795 0.162526 -0.968638 
-0.130611 0.15953 -0.978515 
-0.0913186 0.121722 -0.988355 
-0.0678326 0.140162 -0.987802 
-0.0449178 0.112331 -0.992655 
-0.0248994 0.0910308 -0.995537 
-0.0149648 0.080758 -0.996621 
-0.00843425 0.0667948 -0.997731 
-0.00443748 0.0535876 -0.998553 
-0.00187564 0.0429324 -0.999076 
-0.000613374 0.0345401 -0.999403 
7.93046e-05 0.0287256 -0.999587 
0.000484138 0.0236347 -0.999721 
0.000415355 0.0193249 -0.999813 
0.000109472 0.015406 -0.999881 
-6.01786e-05 0.0124601 -0.999922 
-0.000121691 0.0097886 -0.999952 
-8.58332e-05 0.00756334 -0.999971 
-2.08009e-05 0.00575586 -0.999983 
3.89015e-05 0.00438881 -0.99999 
7.8355e-05 0.00337375 -0.999994 
0.000109258 0.00267102 -0.999996 
0.00014087 0.00218114 -0.999998 
0.000174135 0.0018383 -0.999998 
0.000206807 0.00158402 -0.999999 
0.000233938 0.00137833 -0.999999 
0.000247438 0.00121315 -0.999999 
0.000248389 0.00107733 -0.999999 
0.000238558 0.000971873 -1 
0.000206651 0.000877491 -1 
0.000167655 0.000803722 -1 
0.000117296 0.000744624 -1 
6.77598e-05 0.000695738 -1 
1.52915e-05 0.000673493 -1 
-3.79452e-05 0.000653527 -1 
-8.94152e-05 0.000628731 -1 
4.02821e-05 0.000692348 1 
3.13614e-06 0.000712925 1 
-3.02691e-05 0.000691934 1 
-7.07261e-05 0.000720422 1 
-0.00011219 0.000730972 1 
-0.000155731 0.000779313 1 
-0.000197753 0.00083599 1 
-0.000216195 0.000903045 1 
-0.000225005 0.000993105 1 
-0.000204152 0.00109057 0.999999 
-0.000186722 0.00125354 0.999999 
-0.000146776 0.00144167 0.999999 
-0.0001168 0.00170218 0.999999 
-7.4347e-05 0.00203894 0.999998 
-4.30459e-05 0.00251319 0.999997 
-2.9427e-07 0.00316441 0.999995 
5.19661e-05 0.00408344 0.999992 
0.000130071 0.00533553 0.999986 
0.000211911 0.00705638 0.999975 
0.000234094 0.00928335 0.999957 
0.0001429 0.0119824 0.999928 
-6.03827e-05 0.0150227 0.999887 
-0.000253213 0.0184906 0.999829 
-0.000293999 0.0223784 0.99975 
-2.79731e-05 0.0269653 0.999636 
0.000689268 0.0328658 0.99946 
0.00222825 0.0381964 0.999268 
0.00567129 0.0485016 0.998807 
0.00983774 0.0589522 0.998212 
0.0171107 0.0703848 0.997373 
0.0262972 0.0767751 0.996702 
0.0434807 0.0881738 0.995156 
0.0668129 0.0840017 0.994223 
0.103525 0.08685 0.990828 
0.155481 0.0926965 0.98348 
0.237431 0.129425 0.962744 
0.322033 0.250111 0.913093 
0.419611 0.444733 0.79129 
0.277438 0.809537 0.517376 
0.0109589 0.998751 0.0487428 
-0.274959 0.826893 -0.490557 
-0.427261 0.456705 -0.780301 
-0.308909 0.247646 -0.918285 
-0.224719 0.111864 -0.967981 
-0.126712 0.0879942 -0.988029 
-0.0861383 0.0723399 -0.993653 
-0.0617748 0.0943305 -0.993623 
-0.037518 0.0855004 -0.995632 
-0.0226327 0.0716377 -0.997174 
-0.0135448 0.0630337 -0.99792 
-0.00789049 0.0534308 -0.99854 
-0.00410557 0.0441527 -0.999016 
-0.00201148 0.0364464 -0.999334 
-0.0010031 0.0300667 -0.999547 
-0.000451867 0.0253805 -0.999678 
-0.000276218 0.0212558 -0.999774 
-0.000333619 0.0174947 -0.999847 
-0.000518039 0.014096 -0.999901 
-0.000512578 0.0113181 -0.999936 
-0.000418108 0.00888861 -0.99996 
-0.00027298 0.00686469 -0.999976 
-0.000145554 0.00524881 -0.999986 
-5.162e-05 0.00402432 -0.999992 
7.22121e-06 0.00312974 -0.999995 
5.22151e-05 0.00250093 -0.999997 
9.17767e-05 0.00206438 -0.999998 
0.000131906 0.00175103 -0.999999 
0.000172139 0.00150963 -0.999999 
0.000200084 0.00131827 -0.999999 
0.000216337 0.00115818 -0.999999 
0.000220777 0.00102788 -1 
0.000213189 0.000937598 -1 
0.000184896 0.000860633 -1 
0.000155213 0.000803587 -1 
0.000109867 0.000755131 -1 
6.55255e-05 0.00071612 -1 
2.10782e-05 0.000700995 -1 
-2.36976e-05 0.000693385 -1 
-5.0654e-05 0.00067043 -1 
1.54444e-05 0.000702331 1 
-7.70599e-06 0.000732406 1 
-3.42959e-05 0.000718973 1 
-7.25139e-05 0.000737598 1 
-0.000112872 0.000747823 1 
-0.000138195 0.000777107 1 
-0.000174225 0.000816898 1 
-0.000187711 0.00086852 1 
-0.000193926 0.000954461 1 
-0.000170582 0.00106088 0.999999 