# vtk DataFile Version 3.0 
Exported using Morpho https://github.com/Morpho-lang/morpho 
ASCII 
DATASET UNSTRUCTURED_GRID 

POINTS 2054 float 
-8.48528 -2.82843 0 
-8.20636 -2.82843 0 
-7.94054 -2.82843 0 
-7.6904 -2.82843 0 
-7.45357 -2.82843 0 
-7.22694 -2.82843 0 
-7.00705 -2.82843 0 
-6.79111 -2.82843 0 
-6.57731 -2.82843 0 
-6.36453 -2.82843 0 
-6.15219 -2.82843 0 
-5.94 -2.82843 0 
-5.72786 -2.82843 0 
-5.51573 -2.82843 0 
-5.3036 -2.82843 0 
-5.09147 -2.82843 0 
-4.87933 -2.82843 0 
-4.6672 -2.82843 0 
-4.45507 -2.82843 0 
-4.24294 -2.82843 0 
-4.03081 -2.82843 0 
-3.81867 -2.82843 0 
-3.60654 -2.82843 0 
-3.39441 -2.82843 0 
-3.18228 -2.82843 0 
-2.97015 -2.82843 0 
-2.75801 -2.82843 0 
-2.54588 -2.82843 0 
-2.33375 -2.82843 0 
-2.12162 -2.82843 0 
-1.90949 -2.82843 0 
-1.69735 -2.82843 0 
-1.48522 -2.82843 0 
-1.27309 -2.82843 0 
-1.06096 -2.82843 0 
-0.848825 -2.82843 0 
-0.636693 -2.82843 0 
-0.424561 -2.82843 0 
-0.212429 -2.82843 0 
-0.000296761 -2.82843 0 
0.211835 -2.82843 0 
0.423967 -2.82843 0 
0.636099 -2.82843 0 
0.848231 -2.82843 0 
1.06036 -2.82843 0 
1.2725 -2.82843 0 
1.48463 -2.82843 0 
1.69676 -2.82843 0 
1.90889 -2.82843 0 
2.12102 -2.82843 0 
2.33316 -2.82843 0 
2.54529 -2.82843 0 
2.75742 -2.82843 0 
2.96955 -2.82843 0 
3.18168 -2.82843 0 
3.39382 -2.82843 0 
3.60595 -2.82843 0 
3.81808 -2.82843 0 
4.03021 -2.82843 0 
4.24234 -2.82843 0 
4.45448 -2.82843 0 
4.66661 -2.82843 0 
4.87874 -2.82843 0 
5.09087 -2.82843 0 
5.303 -2.82843 0 
5.51514 -2.82843 0 
5.72727 -2.82843 0 
5.93941 -2.82843 0 
6.15159 -2.82843 0 
6.36393 -2.82843 0 
6.57672 -2.82843 0 
6.79055 -2.82843 0 
7.00652 -2.82843 0 
7.22647 -2.82843 0 
7.45313 -2.82843 0 
7.69005 -2.82843 0 
7.9403 -2.82843 0 
8.20621 -2.82843 0 
8.48528 -2.82843 0 
-8.48528 -2.5495 0 
-8.30526 -2.64845 0 
-8.07062 -2.59995 0 
-7.83904 -2.59637 0 
-7.59595 -2.59733 0 
-7.36578 -2.59177 0 
-7.13796 -2.5933 0 
-6.90908 -2.59428 0 
-6.68421 -2.5916 0 
-6.46568 -2.58832 0 
-6.24926 -2.58859 0 
-6.03358 -2.58941 0 
-5.81848 -2.59013 0 
-5.60402 -2.59075 0 
-5.39005 -2.59135 0 
-5.17642 -2.59186 0 
-4.96311 -2.59223 0 
-4.75009 -2.59242 0 
-4.53736 -2.59244 0 
-4.32497 -2.59236 0 
-4.1128 -2.59242 0 
-3.90059 -2.59259 0 
-3.68835 -2.5926 0 
-3.47627 -2.59248 0 
-3.26428 -2.59251 0 
-3.05216 -2.59271 0 
-2.83986 -2.59283 0 
-2.62755 -2.59274 0 
-2.41539 -2.59253 0 
-2.20336 -2.59238 0 
-1.99135 -2.59238 0 
-1.77924 -2.59246 0 
-1.56704 -2.59244 0 
-1.35495 -2.59215 0 
-1.14319 -2.59183 0 
-0.931581 -2.59195 0 
-0.719663 -2.59256 0 
-0.507197 -2.59324 0 
-0.294425 -2.59354 0 
-0.0817689 -2.59344 0 
0.130587 -2.59325 0 
0.342804 -2.59322 0 
0.555051 -2.59322 0 
0.767233 -2.59303 0 
0.97919 -2.59278 0 
1.19107 -2.59278 0 
1.40311 -2.59289 0 
1.61524 -2.59286 0 
1.82732 -2.59279 0 
2.03943 -2.59281 0 
2.25163 -2.5928 0 
2.46381 -2.59266 0 
2.67591 -2.59254 0 
2.88801 -2.59237 0 
3.10001 -2.59226 0 
3.31203 -2.59216 0 
3.52402 -2.59207 0 
3.73601 -2.59208 0 
3.94815 -2.59221 0 
4.16052 -2.5923 0 
4.37309 -2.59232 0 
4.58593 -2.59227 0 
4.79921 -2.5922 0 
5.01319 -2.59212 0 
5.22833 -2.5921 0 
5.44534 -2.59239 0 
5.6657 -2.59346 0 
5.89185 -2.59569 0 
6.12685 -2.59429 0 
6.36853 -2.59189 0 
6.6108 -2.57787 0 
6.84491 -2.61411 0 
7.08804 -2.58476 0 
7.34858 -2.60369 0 
7.58803 -2.59327 0 
7.83059 -2.59326 0 
8.06387 -2.59199 0 
8.30038 -2.64348 0 
8.48528 -2.54936 0 
-8.48528 -2.28369 0 
-8.25701 -2.4138 0 
-8.01078 -2.35334 0 
-7.73666 -2.37963 0 
-7.49744 -2.35565 0 
-7.26898 -2.35831 0 
-7.03324 -2.36676 0 
-6.7997 -2.36275 0 
-6.5773 -2.35166 0 
-6.35808 -2.3495 0 
-6.14038 -2.35058 0 
-5.92336 -2.35185 0 
-5.70723 -2.35272 0 
-5.49199 -2.35362 0 
-5.27734 -2.35447 0 
-5.0632 -2.35505 0 
-4.84958 -2.35534 0 
-4.63641 -2.35533 0 
-4.42363 -2.35504 0 
-4.21126 -2.35485 0 
-3.99909 -2.35513 0 
-3.78684 -2.3554 0 
-3.57461 -2.35516 0 
-3.36263 -2.35498 0 
-3.15066 -2.35537 0 
-2.93843 -2.35586 0 
-2.72604 -2.35589 0 
-2.51374 -2.35551 0 
-2.30162 -2.35509 0 
-2.08964 -2.35496 0 
-1.87761 -2.35518 0 
-1.66544 -2.3554 0 
-1.45322 -2.35518 0 
-1.2412 -2.35438 0 
-1.02967 -2.35407 0 
-0.818162 -2.35505 0 
-0.606054 -2.35676 0 
-0.393243 -2.3579 0 
-0.180256 -2.35789 0 
0.0323765 -2.35727 0 
0.244686 -2.35692 0 
0.456926 -2.35692 0 
0.669206 -2.35667 0 
0.881318 -2.35598 0 
1.09315 -2.35559 0 
1.305 -2.35583 0 
1.51709 -2.35595 0 
1.72919 -2.35571 0 
1.9412 -2.35566 0 
2.15334 -2.3558 0 
2.36559 -2.3556 0 
2.57772 -2.35522 0 
2.78976 -2.35507 0 
3.0019 -2.35461 0 
3.21373 -2.35451 0 
3.42571 -2.35439 0 
3.63769 -2.35431 0 
3.84965 -2.35453 0 
4.06183 -2.35491 0 
4.27435 -2.35507 0 
4.48707 -2.35507 0 
4.70017 -2.35506 0 
4.91376 -2.35498 0 
5.12819 -2.35502 0 
5.34378 -2.35528 0 
5.56106 -2.35662 0 
5.78097 -2.35971 0 
6.00401 -2.36251 0 
6.2308 -2.3624 0 
6.45748 -2.35551 0 
6.68075 -2.33423 0 
6.88797 -2.39744 0 
7.05313 -2.27289 0 
7.24377 -2.40237 0 
7.48542 -2.36016 0 
7.73055 -2.36599 0 
7.99177 -2.33552 0 
8.24864 -2.40698 0 
8.48528 -2.28345 0 
-8.48528 -2.03355 0 
-8.25312 -2.18214 0 
-8.03669 -2.07913 0 
-7.83956 -2.18231 0 
-7.6106 -2.12852 0 
-7.38852 -2.10959 0 
-7.16268 -2.14097 0 
-6.9229 -2.1435 0 
-6.70119 -2.12055 0 
-6.48111 -2.11285 0 
-6.26282 -2.11284 0 
-6.045 -2.1151 0 
-5.82775 -2.11658 0 
-5.61153 -2.11776 0 
-5.3962 -2.1192 0 
-5.18144 -2.1203 0 
-4.96732 -2.12084 0 
-4.75387 -2.12105 0 
-4.54086 -2.12091 0 
-4.32822 -2.12045 0 
-4.11596 -2.12045 0 
-3.90382 -2.12107 0 
-3.69156 -2.12116 0 
-3.47938 -2.12058 0 
-3.26746 -2.12068 0 
-3.05542 -2.12154 0 
-2.84307 -2.12198 0 
-2.63064 -2.12162 0 
-2.41836 -2.12087 0 
-2.20626 -2.12031 0 
-1.99426 -2.12034 0 
-1.78217 -2.1207 0 
-1.56989 -2.12074 0 
-1.35755 -2.11993 0 
-1.14542 -2.11838 0 
-0.934012 -2.11859 0 
-0.722404 -2.12089 0 
-0.509943 -2.12344 0 
-0.296911 -2.12431 0 
-0.0840921 -2.12359 0 
0.128295 -2.12281 0 
0.340414 -2.12274 0 
0.552564 -2.12288 0 
0.76478 -2.12226 0 
0.976792 -2.1213 0 
1.18855 -2.12128 0 
1.40042 -2.12188 0 
1.61256 -2.12177 0 
1.82458 -2.12141 0 
2.03655 -2.12164 0 
2.24875 -2.12174 0 
2.46099 -2.12114 0 
2.67302 -2.12065 0 
2.88504 -2.12054 0 
3.09728 -2.1194 0 
3.30873 -2.11968 0 
3.52086 -2.1195 0 
3.7329 -2.11938 0 
3.94484 -2.11986 0 
4.15715 -2.12044 0 
4.36983 -2.12035 0 
4.58282 -2.1204 0 
4.79606 -2.12017 0 
5.01004 -2.12012 0 
5.22483 -2.12002 0 
5.44073 -2.12051 0 
5.6582 -2.123 0 
5.8782 -2.12696 0 
6.10217 -2.12971 0 
6.33095 -2.12707 0 
6.567 -2.11601 0 
6.82301 -2.12303 0 
7.06572 -2.04567 0 
7.29733 -2.17484 0 
7.54632 -2.11408 0 
7.79371 -2.13741 0 
8.02274 -2.07453 0 
8.25027 -2.1738 0 
8.48528 -2.0332 0 
-8.48528 -1.79671 0 
-8.25436 -1.93882 0 
-8.01299 -1.83977 0 
-7.78596 -1.953 0 
-7.5297 -1.87194 0 
-7.2756 -1.88722 0 
-7.05707 -1.93544 0 
-6.84369 -1.89677 0 
-6.62219 -1.88079 0 
-6.40169 -1.87606 0 
-6.18206 -1.87854 0 
-5.96274 -1.881 0 
-5.74458 -1.88208 0 
-5.52796 -1.88344 0 
-5.31232 -1.88506 0 
-5.09736 -1.88569 0 
-4.88338 -1.88564 0 
-4.67019 -1.88555 0 
-4.45737 -1.88507 0 
-4.24485 -1.88447 0 
-4.03271 -1.88482 0 
-3.82061 -1.88562 0 
-3.60832 -1.88529 0 
-3.39617 -1.88464 0 
-3.18427 -1.88547 0 
-2.97209 -1.88672 0 
-2.7596 -1.88684 0 
-2.54714 -1.88601 0 
-2.33483 -1.88505 0 
-2.12268 -1.8846 0 
-1.91058 -1.885 0 
-1.69824 -1.88561 0 
-1.48561 -1.88547 0 
-1.27286 -1.88413 0 
-1.06032 -1.88216 0 
-0.848858 -1.8839 0 
-0.636875 -1.88781 0 
-0.424169 -1.89034 0 
-0.211518 -1.89004 0 
0.000731944 -1.88866 0 
0.21257 -1.88788 0 
0.424308 -1.88807 0 
0.636257 -1.88793 0 
0.848362 -1.88664 0 
1.06025 -1.88556 0 
1.27191 -1.88605 0 
1.48381 -1.88664 0 
1.69595 -1.886 0 
1.90782 -1.88577 0 
2.11974 -1.88637 0 
2.33202 -1.88609 0 
2.54419 -1.88502 0 
2.75607 -1.88472 0 
2.96812 -1.88462 0 
3.18055 -1.88217 0 
3.39117 -1.88415 0 
3.60398 -1.8838 0 
3.81618 -1.88366 0 
4.02827 -1.88469 0 
4.24071 -1.88523 0 
4.4544 -1.88509 0 
4.66716 -1.88476 0 
4.88099 -1.88493 0 
5.09545 -1.88466 0 
5.31057 -1.88453 0 
5.52653 -1.88564 0 
5.7436 -1.88981 0 
5.96352 -1.89563 0 
6.18733 -1.89813 0 
6.41543 -1.89522 0 
6.65059 -1.89622 0 
6.87542 -1.86913 0 
7.11122 -1.81621 0 
7.31223 -1.94975 0 
7.53264 -1.87683 0 
7.77077 -1.89068 0 
8.01717 -1.8297 0 
8.25014 -1.93148 0 
8.48528 -1.79628 0 
-8.48528 -1.57009 0 
-8.24868 -1.70836 0 
-8.015 -1.61096 0 
-7.76734 -1.73071 0 
-7.54593 -1.61782 0 
-7.32306 -1.66278 0 
-7.05152 -1.7082 0 
-6.79786 -1.66675 0 
-6.56099 -1.64764 0 
-6.33267 -1.64541 0 
-6.10856 -1.64921 0 
-5.88638 -1.65073 0 
-5.66697 -1.65153 0 
-5.44986 -1.65353 0 
-5.23379 -1.65525 0 
-5.01882 -1.6551 0 
-4.80519 -1.6548 0 
-4.59235 -1.65478 0 
-4.37976 -1.65422 0 
-4.16737 -1.65386 0 
-3.95537 -1.65471 0 
-3.74326 -1.6554 0 
-3.5309 -1.65455 0 
-3.31876 -1.65426 0 
-3.10682 -1.65593 0 
-2.89443 -1.65705 0 
-2.68177 -1.65644 0 
-2.46924 -1.65516 0 
-2.25682 -1.65408 0 
-2.04447 -1.65386 0 
-1.83202 -1.65455 0 
-1.61911 -1.65506 0 
-1.40572 -1.65429 0 
-1.19212 -1.65207 0 
-0.97885 -1.64982 0 
-0.767325 -1.65372 0 
-0.555434 -1.6581 0 
-0.343588 -1.65935 0 
-0.132061 -1.65818 0 
0.0792288 -1.65687 0 
0.290417 -1.65682 0 
0.501823 -1.6575 0 
0.713729 -1.65709 0 
0.925861 -1.65545 0 
1.13768 -1.65488 0 
1.34929 -1.65604 0 
1.56128 -1.6563 0 
1.77337 -1.65516 0 
1.985 -1.65561 0 
2.19698 -1.65642 0 
2.40939 -1.65525 0 
2.62143 -1.65394 0 
2.83323 -1.65414 0 
3.04553 -1.65355 0 
3.25842 -1.64868 0 
3.46746 -1.65522 0 
3.68272 -1.65284 0 
3.89574 -1.65288 0 
4.10731 -1.65378 0 
4.32287 -1.65565 0 
4.53627 -1.65249 0 
4.74932 -1.65397 0 
4.96428 -1.65355 0 
5.17935 -1.65257 0 
5.3944 -1.65202 0 
5.60927 -1.65354 0 
5.82513 -1.66019 0 
6.04295 -1.66711 0 
6.26383 -1.66843 0 
6.48537 -1.66776 0 
6.70098 -1.65646 0 
6.91299 -1.6206 0 
7.11709 -1.6046 0 
7.3526 -1.69716 0 
7.60698 -1.65764 0 
7.8325 -1.64214 0 
8.05985 -1.58842 0 
8.2608 -1.69223 0 
8.48528 -1.56961 0 
-8.48528 -1.35019 0 
-8.24958 -1.48044 0 
-8.0219 -1.3751 0 
-7.79713 -1.50391 0 
-7.58956 -1.39834 0 
-7.36199 -1.38754 0 
-7.16079 -1.49923 0 
-6.93764 -1.46284 0 
[...]
POINT_DATA 2054 
VECTORS vectors float
-3.51158e-05 0.000392689 1.00232 
-4.53734e-05 0.000365676 1.00359 
-8.08109e-05 0.000362369 1.00394 
-0.000138482 0.000386335 1.00387 
-0.000207511 0.000434559 1.00372 
-0.00029317 0.000510011 1.00363 
-0.000395256 0.00061112 1.00356 
-0.000521661 0.00074119 1.00352 
-0.000675952 0.000909466 1.0035 
-0.000869148 0.00112643 1.0035 
-0.00111 0.00140288 1.00348 
-0.00141252 0.00175391 1.00347 
-0.00179138 0.00220152 1.00345 
-0.00227138 0.00276928 1.00344 
-0.0028789 0.00349534 1.00343 
-0.0036406 0.00442349 1.00341 
-0.00459153 0.00560193 1.0034 
-0.00578835 0.00707529 1.00338 
-0.0073367 0.00892358 1.00335 
-0.00934983 0.0113144 1.0033 
-0.0118872 0.0144467 1.00323 
-0.0150139 0.0184544 1.00312 
-0.018933 0.0234615 1.00294 
-0.0239963 0.0297468 1.00265 
-0.0306196 0.0377991 1.00218 
-0.0392816 0.048295 1.00139 
-0.0505996 0.0621635 1.00005 
-0.0653608 0.0807735 0.99776 
-0.0844156 0.106187 0.99378 
-0.108366 0.141332 0.986809 
-0.137034 0.189954 0.974657 
-0.168721 0.256084 0.953887 
-0.199517 0.342689 0.91966 
-0.223342 0.449648 0.866131 
-0.233244 0.571956 0.787613 
-0.223647 0.699509 0.680202 
-0.192312 0.81889 0.543134 
-0.140949 0.916252 0.379335 
-0.0745293 0.979897 0.195242 
-9.38719e-05 1.00206 0.000143956 
0.0743524 0.980002 -0.19498 
0.140805 0.916434 -0.379133 
0.192216 0.819112 -0.542988 
0.223603 0.699737 -0.680095 
0.23324 0.572167 -0.787534 
0.223353 0.44982 -0.866079 
0.199528 0.342837 -0.919624 
0.168733 0.25622 -0.953859 
0.13705 0.190081 -0.974635 
0.108382 0.141446 -0.986793 
0.0844318 0.10629 -0.993769 
0.0653819 0.0808648 -0.997754 
0.0506256 0.0622393 -1.00005 
0.0393097 0.0483542 -1.00139 
0.0306455 0.0378438 -1.00218 
0.024018 0.0297808 -1.00266 
0.0189506 0.0234887 -1.00295 
0.0150285 0.0184771 -1.00312 
0.0118994 0.014466 -1.00324 
0.00935908 0.0113307 -1.00331 
0.00734341 0.00893779 -1.00335 
0.00579402 0.00708782 -1.00338 
0.00459637 0.00561284 -1.0034 
0.00364513 0.0044332 -1.00342 
0.00288273 0.0035028 -1.00344 
0.00227413 0.00277561 -1.00346 
0.00179444 0.00220695 -1.00348 
0.0014159 0.00175949 -1.00352 
0.00111611 0.001408 -1.00353 
0.000879947 0.00112772 -1.00272 
0.000685895 0.00090306 -1.00371 
0.000529109 0.000729757 -1.00347 
0.000400189 0.000599842 -1.00361 
0.000297457 0.000496867 -1.00379 
0.000211549 0.000419966 -1.00373 
0.000143145 0.000368151 -1.00393 
8.50122e-05 0.00033894 -1.00404 
4.76706e-05 0.000334832 -1.00369 
3.12835e-05 0.000353718 -1.00237 
-6.60579e-05 0.000388192 1.00359 
-5.80319e-05 0.00037971 1.00489 
-7.74497e-05 0.000386715 1.00648 
-0.000110946 0.000413434 1.0067 
-0.000164488 0.00046432 1.00651 
-0.000231969 0.000543286 1.00642 
-0.000318743 0.000651954 1.00632 
-0.000429489 0.000798031 1.00624 
-0.000565849 0.000989148 1.00619 
-0.000731959 0.00123261 1.00618 
-0.000939919 0.00153981 1.00615 
-0.00120101 0.00192994 1.00612 
-0.00152871 0.00242611 1.00609 
-0.00194124 0.00305678 1.00606 
-0.00246141 0.0038587 1.00604 
-0.00311551 0.00487885 1.00601 
-0.003937 0.00617431 1.00599 
-0.0049726 0.00781434 1.00596 
-0.00628861 0.00989141 1.00593 
-0.00796484 0.0125398 1.00588 
-0.0100819 0.0159334 1.00581 
-0.0127325 0.0202696 1.00569 
-0.0160582 0.0257774 1.00551 
-0.0202755 0.0327715 1.00522 
-0.0256705 0.04172 1.00474 
-0.0325848 0.0532934 1.00396 
-0.0414087 0.0684109 1.00266 
-0.0525645 0.0883101 1.00048 
-0.0664422 0.11465 0.996821 
-0.0832498 0.1496 0.990644 
-0.102748 0.195794 0.980277 
-0.123895 0.256044 0.963118 
-0.144496 0.332612 0.935414 
-0.161155 0.426041 0.892299 
-0.16986 0.533944 0.828229 
-0.166955 0.650533 0.737698 
-0.149933 0.766606 0.616363 
-0.118205 0.869921 0.462856 
-0.0737632 0.946889 0.280787 
-0.021094 0.985867 0.0795146 
0.0338628 0.980629 -0.127266 
0.0849543 0.932179 -0.324749 
0.126722 0.848232 -0.500469 
0.155242 0.740932 -0.646628 
0.16897 0.623687 -0.760777 
0.168917 0.508253 -0.844945 
0.157946 0.40322 -0.90378 
0.139978 0.313626 -0.942888 
0.119002 0.240991 -0.967777 
0.0981018 0.184182 -0.983107 
0.0791496 0.140776 -0.992339 
0.0629997 0.108017 -0.997827 
0.0497823 0.0833434 -1.00108 
0.0392119 0.064679 -1.00302 
0.030875 0.0504622 -1.00418 
0.0243418 0.0395419 -1.00488 
0.019241 0.0310793 -1.0053 
0.0152493 0.024453 -1.00557 
0.0120924 0.019226 -1.00573 
0.00956816 0.0151108 -1.00583 
0.00755279 0.0118946 -1.0059 
0.00596193 0.00938485 -1.00595 
0.00471368 0.00741133 -1.00598 
0.00372857 0.00584919 -1.00602 
0.00294424 0.004612 -1.00606 
0.00231711 0.00363321 -1.00611 
0.0018157 0.00285637 -1.00618 
0.00141371 0.00223546 -1.00627 
0.00108694 0.00174299 -1.00644 
0.000825427 0.00135455 -1.00721 
0.000620422 0.00106798 -1.00721 
0.000473134 0.000827138 -1.00552 
0.000343811 0.000673587 -1.00719 
0.000240638 0.000533305 -1.00644 
0.000168812 0.000451899 -1.00667 
0.000113928 0.000395733 -1.0069 
7.76111e-05 0.000363999 -1.00673 
5.44919e-05 0.000350246 -1.00504 
5.51407e-05 0.000357835 -1.00369 
-7.40419e-05 0.000377377 1.00394 
-7.22165e-05 0.000386438 1.00648 
-9.06151e-05 0.000418112 1.00771 
-0.000131583 0.000472906 1.00677 
-0.000184966 0.000558462 1.0068 
-0.000253732 0.000668058 1.00666 
-0.000346666 0.000817645 1.00655 
-0.000462674 0.00101915 1.00648 
-0.000600139 0.00127615 1.00647 
-0.000772385 0.00159773 1.00643 
-0.00098912 0.002004 1.00639 
-0.00126161 0.00252025 1.00636 
-0.00160388 0.0031764 1.00632 
-0.00203445 0.00400943 1.00629 
-0.00257609 0.00506707 1.00626 
-0.00325677 0.00640922 1.00623 
-0.00411291 0.00811106 1.0062 
-0.00519203 0.0102695 1.00616 
-0.0065527 0.0130117 1.00611 
-0.00826285 0.0164982 1.00604 
-0.0104048 0.0209297 1.00593 
-0.0130842 0.0265669 1.00576 
-0.0164387 0.0337456 1.00548 
-0.0206483 0.0428978 1.00503 
-0.0259388 0.0546225 1.00431 
-0.0325553 0.0697502 1.00313 
-0.0407281 0.0893624 1.0012 
-0.050637 0.114815 0.998017 
-0.0623442 0.147783 0.992793 
-0.0756688 0.190248 0.98426 
-0.0900197 0.244391 0.970461 
-0.104187 0.312219 0.948509 
-0.11626 0.394889 0.91442 
-0.123822 0.491804 0.863169 
-0.124549 0.599744 0.789056 
-0.116504 0.712723 0.686139 
-0.0983333 0.821231 0.549692 
-0.0700427 0.912127 0.378978 
-0.0338113 0.970997 0.180191 
0.006298 0.986986 -0.0330859 
0.0455499 0.957143 -0.243251 
0.0795619 0.88738 -0.433901 
0.104995 0.789848 -0.594233 
0.120182 0.678684 -0.720365 
0.125415 0.566219 -0.814162 
0.1223 0.461068 -0.880785 
0.113003 0.368333 -0.926251 
0.100021 0.29028 -0.956167 
0.085659 0.226797 -0.97529 
0.0715317 0.176361 -0.98726 
0.0586187 0.136972 -0.994637 
0.0474302 0.106514 -0.999139 
0.0380732 0.0830207 -1.00188 
0.0304033 0.0648962 -1.00355 
0.0242318 0.0508798 -1.00457 
0.019293 0.0399817 -1.0052 
0.015361 0.0314705 -1.00558 
0.0122306 0.024789 -1.00582 
0.00972664 0.0195274 -1.00597 
0.00771918 0.0153884 -1.00607 
0.00611705 0.0121385 -1.00614 
0.00484445 0.00958206 -1.00619 
0.0038359 0.00756663 -1.00623 
0.00303509 0.00597356 -1.00627 
0.00239734 0.00471374 -1.00632 
0.00188911 0.00371588 -1.00638 
0.00148417 0.00292412 -1.00646 
0.0011606 0.00229942 -1.00655 
0.000900436 0.00180872 -1.00665 
0.000694162 0.00143446 -1.00666 
0.000532144 0.00115829 -1.00597 
0.000421968 0.000911592 -1.00655 
0.000328385 0.000833551 -1.00667 
0.000265933 0.000655451 -1.00586 
0.000187997 0.000549724 -1.00696 
0.000131973 0.00046151 -1.00721 
8.94416e-05 0.000404256 -1.00818 
6.59611e-05 0.000363795 -1.00673 
6.09396e-05 0.000355399 -1.00404 
-6.03105e-05 0.000372224 1.00387 
-7.13422e-05 0.000394556 1.0067 
-8.14605e-05 0.000438443 1.00677 
-0.000109227 0.00047688 1.00579 
-0.00014651 0.000563522 1.00674 
-0.000197225 0.000675288 1.00682 
-0.000269925 0.00081126 1.00646 
-0.000366321 0.00101096 1.0064 
-0.000473845 0.00126616 1.00648 
-0.00061059 0.00158513 1.00646 
-0.000783694 0.00198606 1.00642 
-0.00100258 0.0024945 1.00638 
-0.00127765 0.00314154 1.00635 
-0.00162281 0.00396299 1.00631 
-0.00205638 0.00500409 1.00627 
-0.00260082 0.00632418 1.00624 
-0.00328369 0.00799689 1.00621 
-0.00413981 0.0101148 1.00617 
-0.00521229 0.0127988 1.00613 
-0.00655195 0.0162019 1.00606 
-0.00822119 0.0205106 1.00596 
-0.0102979 0.0259685 1.00581 
-0.0128732 0.0329048 1.00556 
-0.0160563 0.0417286 1.00517 
-0.0199889 0.0529438 1.00455 
-0.0248312 0.067253 1.00354 
-0.0307176 0.0855923 1.00192 
-0.0377334 0.109097 0.99929 
-0.0458903 0.13912 0.995048 
-0.0550744 0.177246 0.988236 
-0.0649629 0.225248 0.977389 
-0.0749059 0.28496 0.960305 
-0.0838351 0.357903 0.933815 
-0.0902984 0.444633 0.89363 
-0.0926907 0.543947 0.834383 
-0.0897846 0.651931 0.750112 
-0.080395 0.762097 0.634456 
-0.0636585 0.863775 0.482961 
-0.0400016 0.942396 0.296898 
-0.0116897 0.983444 0.0862029 
0.0179068 0.978462 -0.131887 
0.0453204 0.928765 -0.337878 
0.0676699 0.844509 -0.51658 
0.0831086 0.74011 -0.660547 
0.0912354 0.629427 -0.769598 
0.0929114 0.522686 -0.84832 
0.0894401 0.425918 -0.903109 
0.0822547 0.342081 -0.94008 
0.0729924 0.271988 -0.964344 
0.0630191 0.214771 -0.979958 
0.0532073 0.168863 -0.989861 
0.044149 0.132537 -0.996061 
0.0361972 0.104017 -0.999913 
0.0294278 0.0816817 -1.0023 
0.0237589 0.0642299 -1.00379 
0.0191425 0.0505925 -1.0047 
0.0153679 0.0398798 -1.00527 
0.0123164 0.0314676 -1.00562 
0.00985775 0.0248411 -1.00584 
0.00787189 0.0196101 -1.00599 
0.00626942 0.0154872 -1.00609 
0.00498378 0.0122339 -1.00615 
0.0039559 0.00966891 -1.0062 
0.00313578 0.00764046 -1.00624 
0.00248228 0.00603711 -1.00629 
0.00196154 0.00476758 -1.00634 
0.00154697 0.00376069 -1.00639 
0.00121581 0.0029631 -1.00646 
0.000948963 0.00233184 -1.00654 
0.000732328 0.0018356 -1.00664 
0.000555287 0.0014467 -1.00671 
0.000411047 0.00111616 -1.00757 
0.00029173 0.000913446 -1.00675 
0.00022766 0.00069914 -1.00674 
0.000156218 0.000582049 -1.00781 
0.00011087 0.000482978 -1.00655 
7.6821e-05 0.000427031 -1.00721 
6.28061e-05 0.000377055 -1.0069 
4.7565e-05 0.00035646 -1.00393 
-3.41522e-05 0.000372425 1.00372 
-5.71635e-05 0.000403802 1.00651 
-6.78862e-05 0.000465908 1.0068 
-0.000103368 0.000525061 1.00674 
-0.000142163 0.000651905 1.00782 
-0.000204495 0.000807611 1.00678 
-0.000279447 0.000970514 1.00563 
-0.000357372 0.00120649 1.00641 
-0.000462093 0.00151031 1.00647 
-0.000595475 0.00189372 1.00643 
-0.000765582 0.00237765 1.00639 
-0.000980572 0.00299402 1.00635 
-0.00125006 0.00377765 1.0063 
-0.0015876 0.00476931 1.00626 
-0.00201082 0.00602401 1.00622 
-0.00254032 0.00761356 1.00619 
-0.00320103 0.00962236 1.00615 
-0.00402444 0.0121582 1.0061 
-0.00504717 0.0153643 1.00604 
-0.00631266 0.0194169 1.00595 
-0.00787576 0.0245285 1.00582 
-0.00980091 0.0309884 1.00561 
-0.012155 0.0391837 1.00529 
-0.0150204 0.049565 1.00477 
-0.0185048 0.0626875 1.00394 
-0.0227006 0.0793423 1.00263 
-0.0276464 0.100515 1.00053 
-0.0333346 0.127334 0.997173 
-0.039697 0.161119 0.991841 
-0.0465564 0.203374 0.983431 
-0.0535804 0.255731 0.970282 
-0.0601888 0.319846 0.949926 
-0.0655197 0.396945 0.918861 
-0.0685276 0.48718 0.872398 
-0.0681802 0.588798 0.804739 
-0.0639133 0.696925 0.709785 
-0.0548072 0.804246 0.580939 
-0.0403459 0.898358 0.415068 
-0.0213551 0.963678 0.216644 
8.14431e-05 0.987027 -0.000993719 
0.0214046 0.963363 -0.218117 
0.0402411 0.898167 -0.415514 
0.0547902 0.804409 -0.580694 
0.064143 0.697063 -0.709608 
0.0684951 0.588723 -0.804754 
0.0687093 0.487536 -0.872159 
0.0656517 0.397615 -0.918534 
0.0602773 0.320607 -0.94964 
0.0537076 0.256486 -0.970055 
0.0467276 0.204002 -0.983276 
0.0398116 0.161622 -0.991746 
0.0333758 0.127813 -0.997107 
0.0276742 0.100993 -1.00048 
0.0227384 0.0797669 -1.00261 
0.0185174 0.0630346 -1.00395 
0.0150836 0.0498699 -1.00475 
0.0121912 0.0394132 -1.00529 
0.00983041 0.0311795 -1.00562 
0.00791093 0.0246663 -1.00583 
0.00634473 0.019515 -1.00597 
0.00506614 0.0154269 -1.00606 
0.00403914 0.0122115 -1.00612 
0.00321041 0.00965743 -1.00617 
0.00254545 0.00763781 -1.00622 
0.00201476 0.00604003 -1.00626 
0.00159239 0.00477411 -1.0063 
0.00125716 0.00377081 -1.00634 
0.000988477 0.0029748 -1.00639 
0.00077053 0.00234595 -1.00647 
0.000593421 0.00185107 -1.00653 
0.000451235 0.00145507 -1.00668 
0.000338339 0.00117635 -1.00674 
0.000242247 0.000953978 -1.00643 
0.000198558 0.000755556 -1.00671 
0.000137755 0.000640233 -1.00611 
9.62053e-05 0.000528427 -1.00781 
5.97485e-05 0.000453938 -1.00695 
4.78201e-05 0.000391213 -1.00667 
2.26434e-05 0.000360663 -1.00373 
-6.53939e-06 0.000385163 1.00364 
-3.76393e-05 0.000417555 1.00642 
-4.99956e-05 0.000487572 1.00666 
-8.94259e-05 0.000563572 1.00682 
-0.00011631 0.00069132 1.00679 
-0.000167387 0.000829928 1.00688 
-0.0002485 0.00105179 1.0073 
-0.000333539 0.00136231 1.00672 
-0.000437159 0.00173648 1.00657 
-0.000567382 0.00219635 1.00645 
-0.000731615 0.00277243 1.00636 
-0.000937553 0.00350486 1.00631 
-0.00119484 0.00443014 1.00625 
-0.00151702 0.00559552 1.0062 
-0.0019202 0.00706866 1.00616 
-0.00242102 0.0089306 1.00612 
-0.00304202 0.0112729 1.00608 
-0.00381016 0.0142194 1.00602 
-0.00475462 0.0179357 1.00595 
-0.00591233 0.0226195 1.00583 
-0.00732881 0.0285085 1.00566 
-0.00905181 0.0359388 1.0054 
-0.0111262 0.0453379 1.00499 
-0.0136173 0.0571784 1.00432 
-0.0166014 0.0720675 1.00327 
-0.0201053 0.0908741 1.00162 
-0.0241072 0.114595 0.999008 
-0.0285625 0.144337 0.994879 
-0.0333746 0.18142 0.988402 
-0.038365 0.227318 0.978314 
-0.0432328 0.283611 0.962727 
-0.0474844 0.351869 0.938852 
-0.0504473 0.433097 0.902764 
-0.051384 0.527027 0.849281 
-0.0496618 0.631119 0.772196 
-0.0450912 0.739105 0.665614 
-0.0368244 0.84243 0.523344 
-0.0247834 0.92708 0.344743 
-0.00997007 0.977787 0.137293 
0.00594615 0.983686 -0.0828646 
0.0211318 0.943508 -0.294999 
0.0340033 0.866167 -0.481537 
0.0434604 0.766137 -0.633131 
0.0491367 0.657986 -0.748554 
0.0514508 0.552749 -0.832108 
0.05107 0.456725 -0.890538 
0.0485285 0.372605 -0.930439 
0.0445166 0.301204 -0.957092 
0.0398302 0.241957 -0.974586 
0.0348613 0.193365 -0.985984 
0.0298936 0.153995 -0.993333 
0.0252686 0.122434 -0.998015 
0.0211456 0.0972193 -1.00099 
0.0175107 0.0771151 -1.0029 
0.014337 0.0611702 -1.00411 
0.0118271 0.0485971 -1.0048 
0.0095811 0.0384398 -1.00533 
0.00776277 0.0304565 -1.00562 
0.0062811 0.0241655 -1.00584 
0.00504556 0.0190883 -1.00596 
0.00403601 0.0151343 -1.00605 
0.00322835 0.0119894 -1.0061 
0.00256557 0.0094859 -1.00616 
0.00203304 0.00750843 -1.0062 
0.00160898 0.0059459 -1.00623 
0.00127354 0.00471075 -1.00626 
0.00100853 0.00372913 -1.00627 
0.000795745 0.00295314 -1.0063 
0.000621887 0.00234093 -1.00633 
0.000482627 0.00186109 -1.00639 
0.000371525 0.0015011 -1.00641 
0.000279527 0.00123074 -1.00629 
0.000211042 0.00101506 -1.00532 
0.000159932 0.000792501 -1.00715 
0.000103227 0.000641699 -1.0067 
6.68595e-05 0.000539295 -1.00672 
3.53089e-05 0.000466233 -1.00584 
2.59533e-05 0.000405142 -1.00643 
-4.32796e-06 0.000374547 -1.00378 
2.10351e-05 0.000405842 1.00357 
-1.61293e-05 0.000435836 1.00633 
-2.92692e-05 0.000510064 1.00656 
-6.71491e-05 0.00058177 1.00647 
-8.78088e-05 0.000703287 1.00566 
-0.000127341 0.000859544 1.00731 
-0.000187884 0.00100811 1.00581 
-0.000245984 0.00125938 1.00659 
-0.000317855 0.00158975 1.0066 
-0.000412161 0.00200724 1.00648 
-0.000532848 0.0025301 1.00637 
-0.000685506 0.00319347 1.0063 
-0.000876059 0.00404268 1.00625 
-0.00111368 0.0051072 1.00617 
-0.00141246 0.00644651 1.00612 
-0.00178282 0.0081368 1.00608 
-0.00223928 0.0102672 1.00604 
-0.00280084 0.0129332 1.00599 
-0.00348827 0.0162755 1.00593 
-0.00432696 0.0204896 1.00584 
-0.00534485 0.0257855 1.0057 
-0.00658014 0.0324276 1.00549 
-0.00806232 0.0407931 1.00516 
-0.00982208 0.0513352 1.00464 
-0.0119132 0.064539 1.00382 
-0.0143768 0.0810715 1.00254 
-0.0171886 0.10186 1.00053 
-0.0203043 0.127894 0.997367 
-0.0236754 0.160285 0.992425 
-0.027206 0.200375 0.984745 
-0.0307426 0.249639 0.972889 
-0.0340308 0.309636 0.95472 
-0.0366569 0.381843 0.927101 
-0.0381167 0.466978 0.885686 
-0.0379086 0.564165 0.824902 
-0.0357024 0.669783 0.738488 
-0.0314469 0.776125 0.621285 
-0.0243952 0.873836 0.467788 
-0.0147982 0.948325 0.279294 
-0.00353512 0.985045 0.065578 
0.00812253 0.975352 -0.154869 
0.01886 0.921354 -0.360853 
0.0276124 0.834638 -0.536758 
0.0337207 0.73046 -0.676127 
0.037135 0.622689 -0.779977 
0.0383217 0.520812 -0.853936 
0.0377271 0.42949 -0.905156 
0.0356778 0.350371 -0.939935 
0.0327212 0.283695 -0.963085 
0.0294015 0.228537 -0.978285 
0.0258406 0.183211 -0.988245 
0.0222533 0.146404 -0.994695 
0.0189437 0.116832 -0.998812 
0.0159721 0.0930777 -1.00146 
0.013288 0.0740026 -1.00319 
0.0108898 0.0587829 -1.00431 
0.00915424 0.0468895 -1.00482 
0.00735077 0.03685 -1.00537 
0.00599655 0.0293997 -1.0057 
0.00485768 0.0231242 -1.00584 
0.00389794 0.0183503 -1.00597 
0.00312457 0.0145469 -1.00604 
0.00251017 0.0115337 -1.00608 
0.00198821 0.00911178 -1.00615 
0.00157236 0.00721487 -1.00617 
0.00124539 0.00573221 -1.00621 
0.000987691 0.00454579 -1.00621 
0.000786224 0.00361377 -1.00618 
0.000623632 0.0028747 -1.00614 
0.00048822 0.00229171 -1.00621 
0.000378156 0.0018376 -1.00634 
0.000284012 0.00147602 -1.00648 
0.000200869 0.00117926 -1.00697 
0.000155247 0.000924394 -1.00532 
0.000108164 0.000758768 -1.00643 
6.42924e-05 0.000629757 -1.00672 
3.28644e-05 0.000530717 -1.00665 
2.57156e-06 0.000432642 -1.00717 
-3.14523e-05 0.000396118 -1.00361 
4.46839e-05 0.000432924 1.00352 
6.22519e-06 0.000458351 1.00624 
-8.97422e-06 0.000535357 1.00648 
-4.56106e-05 0.000612523 1.00642 
-7.09569e-05 0.000761807 1.00644 
-0.000102485 0.000949616 1.00677 
-0.00016255 0.00110833 1.00668 
-0.000213893 0.00140858 1.00675 
-0.000281051 0.00179002 1.00659 
-0.000367331 0.00226574 1.00643 
-0.000478239 0.00285948 1.0063 
-0.000617864 0.00361994 1.00623 
-0.000787527 0.00458698 1.00617 
-0.0010016 0.00578508 1.00607 
-0.00126779 0.00728533 1.00603 
-0.00159625 0.0091823 1.006 
-0.0019967 0.0115656 1.00595 
-0.00248243 0.0145211 1.0059 
-0.0030783 0.0182431 1.00583 
-0.00379496 0.0229315 1.00573 
-0.00465986 0.0288053 1.00556 
-0.00570056 0.0361554 1.00531 
-0.0069328 0.0453962 1.00491 
-0.00837807 0.0569759 1.00428 
-0.0100817 0.0714042 1.00329 
-0.0120493 0.0894227 1.00177 
-0.014229 0.111991 0.999397 
-0.0165781 0.140043 0.995686 
-0.0190579 0.174679 0.989946 
-0.0215853 0.217236 0.981114 
-0.0240344 0.269091 0.967631 
-0.0261947 0.331651 0.947221 
-0.0277458 0.406184 0.916578 
-0.0283471 0.492963 0.871288 
-0.0277032 0.590801 0.805702 
-0.02567 0.695932 0.713351 
-0.0220826 0.800697 0.588362 
-0.0163397 0.894827 0.424811 
-0.00881413 0.961952 0.225876 
-0.000259173 0.98715 0.00472503 
0.00830136 0.963954 -0.216942 
0.0159032 0.898145 -0.41753 
0.0218423 0.803903 -0.583801 
0.0257573 0.696987 -0.712264 
0.0277928 0.590451 -0.805986 
0.0283701 0.49207 -0.871834 
0.0277351 0.404986 -0.917151 
0.0261083 0.330186 -0.947782 
0.0239535 0.267601 -0.96808 
0.0216043 0.215954 -0.981418 
0.0190095 0.173307 -0.990227 
0.0163924 0.138677 -0.995922 
0.0140406 0.110924 -0.999545 
0.0118906 0.0884193 -1.00193 
0.00987084 0.0700977 -1.00355 
0.00802011 0.0554148 -1.00496 
0.00697091 0.0441923 -1.00425 
0.00544894 0.0350286 -1.00599 
0.00449363 0.0273049 -1.00563 
0.00360465 0.0216824 -1.00585 
0.00289676 0.0171781 -1.00596 
0.00232143 0.0136215 -1.00603 
0.0018796 0.0108017 -1.00602 
0.00146458 0.00846308 -1.00613 
0.00115262 0.00673368 -1.00619 
0.000912168 0.00533485 -1.00616 
0.00072302 0.00424821 -1.00612 
0.00058152 0.00341145 -1.00602 
0.000469944 0.00277082 -1.00535 
0.000371269 0.00225176 -1.0061 
0.000287382 0.00181843 -1.00626 
0.000211997 0.00145893 -1.00639 
0.000145311 0.00116952 -1.00626 
0.000120863 0.000942521 -1.0062 
7.03458e-05 0.000757498 -1.00668 
2.92174e-05 0.000622008 -1.00753 
3.39355e-06 0.000506251 -1.00652 
-2.46089e-05 0.000453257 -1.00551 
-5.59702e-05 0.000424448 -1.00345 
5.87002e-05 0.000458987 1.0035 
2.47947e-05 0.000481723 1.00619 
7.62867e-06 0.000559445 1.00646 
-2.69052e-05 0.000646293 1.00646 
-4.70469e-05 0.00079277 1.00638 
-7.05075e-05 0.00097903 1.00639 
-0.000133083 0.00122453 1.00737 
-0.000180989 0.00157902 1.00675 
-0.000239728 0.00201258 1.00656 