# vtk DataFile Version 3.0 
Exported using Morpho https://github.com/Morpho-lang/morpho 
ASCII 
DATASET UNSTRUCTURED_GRID 

POINTS 2054 float 
-8.48528 -2.82843 0 
-8.20636 -2.82843 0 
-7.94054 -2.82843 0 
-7.6904 -2.82843 0 
-7.45357 -2.82843 0 
-7.22694 -2.82843 0 
-7.00705 -2.82843 0 
-6.79111 -2.82843 0 
-6.57731 -2.82843 0 
-6.36453 -2.82843 0 
-6.15219 -2.82843 0 
-5.94 -2.82843 0 
-5.72786 -2.82843 0 
-5.51573 -2.82843 0 
-5.3036 -2.82843 0 
-5.09147 -2.82843 0 
-4.87933 -2.82843 0 
-4.6672 -2.82843 0 
-4.45507 -2.82843 0 
-4.24294 -2.82843 0 
-4.03081 -2.82843 0 
-3.81867 -2.82843 0 
-3.60654 -2.82843 0 
-3.39441 -2.82843 0 
-3.18228 -2.82843 0 
-2.97015 -2.82843 0 
-2.75801 -2.82843 0 
-2.54588 -2.82843 0 
-2.33375 -2.82843 0 
-2.12162 -2.82843 0 
-1.90949 -2.82843 0 
-1.69735 -2.82843 0 
-1.48522 -2.82843 0 
-1.27309 -2.82843 0 
-1.06096 -2.82843 0 
-0.848825 -2.82843 0 
-0.636693 -2.82843 0 
-0.424561 -2.82843 0 
-0.212429 -2.82843 0 
-0.000296761 -2.82843 0 
0.211835 -2.82843 0 
0.423967 -2.82843 0 
0.636099 -2.82843 0 
0.848231 -2.82843 0 
1.06036 -2.82843 0 
1.2725 -2.82843 0 
1.48463 -2.82843 0 
1.69676 -2.82843 0 
1.90889 -2.82843 0 
2.12102 -2.82843 0 
2.33316 -2.82843 0 
2.54529 -2.82843 0 
2.75742 -2.82843 0 
2.96955 -2.82843 0 
3.18168 -2.82843 0 
3.39382 -2.82843 0 
3.60595 -2.82843 0 
3.81808 -2.82843 0 
4.03021 -2.82843 0 
4.24234 -2.82843 0 
4.45448 -2.82843 0 
4.66661 -2.82843 0 
4.87874 -2.82843 0 
5.09087 -2.82843 0 
5.303 -2.82843 0 
5.51514 -2.82843 0 
5.72727 -2.82843 0 
5.93941 -2.82843 0 
6.15159 -2.82843 0 
6.36393 -2.82843 0 
6.57672 -2.82843 0 
6.79055 -2.82843 0 
7.00652 -2.82843 0 
7.22647 -2.82843 0 
7.45313 -2.82843 0 
7.69005 -2.82843 0 
7.9403 -2.82843 0 
8.20621 -2.82843 0 
8.48528 -2.82843 0 
-8.48528 -2.5495 0 
-8.30526 -2.64845 0 
-8.07062 -2.59995 0 
-7.83904 -2.59637 0 
-7.59595 -2.59733 0 
-7.36578 -2.59177 0 
-7.13796 -2.5933 0 
-6.90908 -2.59428 0 
-6.68421 -2.5916 0 
-6.46568 -2.58832 0 
-6.24926 -2.58859 0 
-6.03358 -2.58941 0 
-5.81848 -2.59013 0 
-5.60402 -2.59075 0 
-5.39005 -2.59135 0 
-5.17642 -2.59186 0 
-4.96311 -2.59223 0 
-4.75009 -2.59242 0 
-4.53736 -2.59244 0 
-4.32497 -2.59236 0 
-4.1128 -2.59242 0 
-3.90059 -2.59259 0 
-3.68835 -2.5926 0 
-3.47627 -2.59248 0 
-3.26428 -2.59251 0 
-3.05216 -2.59271 0 
-2.83986 -2.59283 0 
-2.62755 -2.59274 0 
-2.41539 -2.59253 0 
-2.20336 -2.59238 0 
-1.99135 -2.59238 0 
-1.77924 -2.59246 0 
-1.56704 -2.59244 0 
-1.35495 -2.59215 0 
-1.14319 -2.59183 0 
-0.931581 -2.59195 0 
-0.719663 -2.59256 0 
-0.507197 -2.59324 0 
-0.294425 -2.59354 0 
-0.0817689 -2.59344 0 
0.130587 -2.59325 0 
0.342804 -2.59322 0 
0.555051 -2.59322 0 
0.767233 -2.59303 0 
0.97919 -2.59278 0 
1.19107 -2.59278 0 
1.40311 -2.59289 0 
1.61524 -2.59286 0 
1.82732 -2.59279 0 
2.03943 -2.59281 0 
2.25163 -2.5928 0 
2.46381 -2.59266 0 
2.67591 -2.59254 0 
2.88801 -2.59237 0 
3.10001 -2.59226 0 
3.31203 -2.59216 0 
3.52402 -2.59207 0 
3.73601 -2.59208 0 
3.94815 -2.59221 0 
4.16052 -2.5923 0 
4.37309 -2.59232 0 
4.58593 -2.59227 0 
4.79921 -2.5922 0 
5.01319 -2.59212 0 
5.22833 -2.5921 0 
5.44534 -2.59239 0 
5.6657 -2.59346 0 
5.89185 -2.59569 0 
6.12685 -2.59429 0 
6.36853 -2.59189 0 
6.6108 -2.57787 0 
6.84491 -2.61411 0 
7.08804 -2.58476 0 
7.34858 -2.60369 0 
7.58803 -2.59327 0 
7.83059 -2.59326 0 
8.06387 -2.59199 0 
8.30038 -2.64348 0 
8.48528 -2.54936 0 
-8.48528 -2.28369 0 
-8.25701 -2.4138 0 
-8.01078 -2.35334 0 
-7.73666 -2.37963 0 
-7.49744 -2.35565 0 
-7.26898 -2.35831 0 
-7.03324 -2.36676 0 
-6.7997 -2.36275 0 
-6.5773 -2.35166 0 
-6.35808 -2.3495 0 
-6.14038 -2.35058 0 
-5.92336 -2.35185 0 
-5.70723 -2.35272 0 
-5.49199 -2.35362 0 
-5.27734 -2.35447 0 
-5.0632 -2.35505 0 
-4.84958 -2.35534 0 
-4.63641 -2.35533 0 
-4.42363 -2.35504 0 
-4.21126 -2.35485 0 
-3.99909 -2.35513 0 
-3.78684 -2.3554 0 
-3.57461 -2.35516 0 
-3.36263 -2.35498 0 
-3.15066 -2.35537 0 
-2.93843 -2.35586 0 
-2.72604 -2.35589 0 
-2.51374 -2.35551 0 
-2.30162 -2.35509 0 
-2.08964 -2.35496 0 
-1.87761 -2.35518 0 
-1.66544 -2.3554 0 
-1.45322 -2.35518 0 
-1.2412 -2.35438 0 
-1.02967 -2.35407 0 
-0.818162 -2.35505 0 
-0.606054 -2.35676 0 
-0.393243 -2.3579 0 
-0.180256 -2.35789 0 
0.0323765 -2.35727 0 
0.244686 -2.35692 0 
0.456926 -2.35692 0 
0.669206 -2.35667 0 
0.881318 -2.35598 0 
1.09315 -2.35559 0 
1.305 -2.35583 0 
1.51709 -2.35595 0 
1.72919 -2.35571 0 
1.9412 -2.35566 0 
2.15334 -2.3558 0 
2.36559 -2.3556 0 
2.57772 -2.35522 0 
2.78976 -2.35507 0 
3.0019 -2.35461 0 
3.21373 -2.35451 0 
3.42571 -2.35439 0 
3.63769 -2.35431 0 
3.84965 -2.35453 0 
4.06183 -2.35491 0 
4.27435 -2.35507 0 
4.48707 -2.35507 0 
4.70017 -2.35506 0 
4.91376 -2.35498 0 
5.12819 -2.35502 0 
5.34378 -2.35528 0 
5.56106 -2.35662 0 
5.78097 -2.35971 0 
6.00401 -2.36251 0 
6.2308 -2.3624 0 
6.45748 -2.35551 0 
6.68075 -2.33423 0 
6.88797 -2.39744 0 
7.05313 -2.27289 0 
7.24377 -2.40237 0 
7.48542 -2.36016 0 
7.73055 -2.36599 0 
7.99177 -2.33552 0 
8.24864 -2.40698 0 
8.48528 -2.28345 0 
-8.48528 -2.03355 0 
-8.25312 -2.18214 0 
-8.03669 -2.07913 0 
-7.83956 -2.18231 0 
-7.6106 -2.12852 0 
-7.38852 -2.10959 0 
-7.16268 -2.14097 0 
-6.9229 -2.1435 0 
-6.70119 -2.12055 0 
-6.48111 -2.11285 0 
-6.26282 -2.11284 0 
-6.045 -2.1151 0 
-5.82775 -2.11658 0 
-5.61153 -2.11776 0 
-5.3962 -2.1192 0 
-5.18144 -2.1203 0 
-4.96732 -2.12084 0 
-4.75387 -2.12105 0 
-4.54086 -2.12091 0 
-4.32822 -2.12045 0 
-4.11596 -2.12045 0 
-3.90382 -2.12107 0 
-3.69156 -2.12116 0 
-3.47938 -2.12058 0 
-3.26746 -2.12068 0 
-3.05542 -2.12154 0 
-2.84307 -2.12198 0 
-2.63064 -2.12162 0 
-2.41836 -2.12087 0 
-2.20626 -2.12031 0 
-1.99426 -2.12034 0 
-1.78217 -2.1207 0 
-1.56989 -2.12074 0 
-1.35755 -2.11993 0 
-1.14542 -2.11838 0 
-0.934012 -2.11859 0 
-0.722404 -2.12089 0 
-0.509943 -2.12344 0 
-0.296911 -2.12431 0 
-0.0840921 -2.12359 0 
0.128295 -2.12281 0 
0.340414 -2.12274 0 
0.552564 -2.12288 0 
0.76478 -2.12226 0 
0.976792 -2.1213 0 
1.18855 -2.12128 0 
1.40042 -2.12188 0 
1.61256 -2.12177 0 
1.82458 -2.12141 0 
2.03655 -2.12164 0 
2.24875 -2.12174 0 
2.46099 -2.12114 0 
2.67302 -2.12065 0 
2.88504 -2.12054 0 
3.09728 -2.1194 0 
3.30873 -2.11968 0 
3.52086 -2.1195 0 
3.7329 -2.11938 0 
3.94484 -2.11986 0 
4.15715 -2.12044 0 
4.36983 -2.12035 0 
4.58282 -2.1204 0 
4.79606 -2.12017 0 
5.01004 -2.12012 0 
5.22483 -2.12002 0 
5.44073 -2.12051 0 
5.6582 -2.123 0 
5.8782 -2.12696 0 
6.10217 -2.12971 0 
6.33095 -2.12707 0 
6.567 -2.11601 0 
6.82301 -2.12303 0 
7.06572 -2.04567 0 
7.29733 -2.17484 0 
7.54632 -2.11408 0 
7.79371 -2.13741 0 
8.02274 -2.07453 0 
8.25027 -2.1738 0 
8.48528 -2.0332 0 
-8.48528 -1.79671 0 
-8.25436 -1.93882 0 
-8.01299 -1.83977 0 
-7.78596 -1.953 0 
-7.5297 -1.87194 0 
-7.2756 -1.88722 0 
-7.05707 -1.93544 0 
-6.84369 -1.89677 0 
-6.62219 -1.88079 0 
-6.40169 -1.87606 0 
-6.18206 -1.87854 0 
-5.96274 -1.881 0 
-5.74458 -1.88208 0 
-5.52796 -1.88344 0 
-5.31232 -1.88506 0 
-5.09736 -1.88569 0 
-4.88338 -1.88564 0 
-4.67019 -1.88555 0 
-4.45737 -1.88507 0 
-4.24485 -1.88447 0 
-4.03271 -1.88482 0 
-3.82061 -1.88562 0 
-3.60832 -1.88529 0 
-3.39617 -1.88464 0 
-3.18427 -1.88547 0 
-2.97209 -1.88672 0 
-2.7596 -1.88684 0 
-2.54714 -1.88601 0 
-2.33483 -1.88505 0 
-2.12268 -1.8846 0 
-1.91058 -1.885 0 
-1.69824 -1.88561 0 
-1.48561 -1.88547 0 
-1.27286 -1.88413 0 
-1.06032 -1.88216 0 
-0.848858 -1.8839 0 
-0.636875 -1.88781 0 
-0.424169 -1.89034 0 
-0.211518 -1.89004 0 
0.000731944 -1.88866 0 
0.21257 -1.88788 0 
0.424308 -1.88807 0 
0.636257 -1.88793 0 
0.848362 -1.88664 0 
1.06025 -1.88556 0 
1.27191 -1.88605 0 
1.48381 -1.88664 0 
1.69595 -1.886 0 
1.90782 -1.88577 0 
2.11974 -1.88637 0 
2.33202 -1.88609 0 
2.54419 -1.88502 0 
2.75607 -1.88472 0 
2.96812 -1.88462 0 
3.18055 -1.88217 0 
3.39117 -1.88415 0 
3.60398 -1.8838 0 
3.81618 -1.88366 0 
4.02827 -1.88469 0 
4.24071 -1.88523 0 
4.4544 -1.88509 0 
4.66716 -1.88476 0 
4.88099 -1.88493 0 
5.09545 -1.88466 0 
5.31057 -1.88453 0 
5.52653 -1.88564 0 
5.7436 -1.88981 0 
5.96352 -1.89563 0 
6.18733 -1.89813 0 
6.41543 -1.89522 0 
6.65059 -1.89622 0 
6.87542 -1.86913 0 
7.11122 -1.81621 0 
7.31223 -1.94975 0 
7.53264 -1.87683 0 
7.77077 -1.89068 0 
8.01717 -1.8297 0 
8.25014 -1.93148 0 
8.48528 -1.79628 0 
-8.48528 -1.57009 0 
-8.24868 -1.70836 0 
-8.015 -1.61096 0 
-7.76734 -1.73071 0 
-7.54593 -1.61782 0 
-7.32306 -1.66278 0 
-7.05152 -1.7082 0 
-6.79786 -1.66675 0 
-6.56099 -1.64764 0 
-6.33267 -1.64541 0 
-6.10856 -1.64921 0 
-5.88638 -1.65073 0 
-5.66697 -1.65153 0 
-5.44986 -1.65353 0 
-5.23379 -1.65525 0 
-5.01882 -1.6551 0 
-4.80519 -1.6548 0 
-4.59235 -1.65478 0 
-4.37976 -1.65422 0 
-4.16737 -1.65386 0 
-3.95537 -1.65471 0 
-3.74326 -1.6554 0 
-3.5309 -1.65455 0 
-3.31876 -1.65426 0 
-3.10682 -1.65593 0 
-2.89443 -1.65705 0 
-2.68177 -1.65644 0 
-2.46924 -1.65516 0 
-2.25682 -1.65408 0 
-2.04447 -1.65386 0 
-1.83202 -1.65455 0 
-1.61911 -1.65506 0 
-1.40572 -1.65429 0 
-1.19212 -1.65207 0 
-0.97885 -1.64982 0 
-0.767325 -1.65372 0 
-0.555434 -1.6581 0 
-0.343588 -1.65935 0 
-0.132061 -1.65818 0 
0.0792288 -1.65687 0 
0.290417 -1.65682 0 
0.501823 -1.6575 0 
0.713729 -1.65709 0 
0.925861 -1.65545 0 
1.13768 -1.65488 0 
1.34929 -1.65604 0 
1.56128 -1.6563 0 
1.77337 -1.65516 0 
1.985 -1.65561 0 
2.19698 -1.65642 0 
2.40939 -1.65525 0 
2.62143 -1.65394 0 
2.83323 -1.65414 0 
3.04553 -1.65355 0 
3.25842 -1.64868 0 
3.46746 -1.65522 0 
3.68272 -1.65284 0 
3.89574 -1.65288 0 
4.10731 -1.65378 0 
4.32287 -1.65565 0 
4.53627 -1.65249 0 
4.74932 -1.65397 0 
4.96428 -1.65355 0 
5.17935 -1.65257 0 
5.3944 -1.65202 0 
5.60927 -1.65354 0 
5.82513 -1.66019 0 
6.04295 -1.66711 0 
6.26383 -1.66843 0 
6.48537 -1.66776 0 
6.70098 -1.65646 0 
6.91299 -1.6206 0 
7.11709 -1.6046 0 
7.3526 -1.69716 0 
7.60698 -1.65764 0 
7.8325 -1.64214 0 
8.05985 -1.58842 0 
8.2608 -1.69223 0 
8.48528 -1.56961 0 
-8.48528 -1.35019 0 
-8.24958 -1.48044 0 
-8.0219 -1.3751 0 
-7.79713 -1.50391 0 
-7.58956 -1.39834 0 
-7.36199 -1.38754 0 
-7.16079 -1.49923 0 
-6.93764 -1.46284 0 
[...]
POINT_DATA 2054 
VECTORS vectors float
-1.09292e-06 0.000412806 1.00002 
-2.01031e-05 0.000442306 1.00003 
-3.98191e-05 0.000504318 1.00003 
-6.09778e-05 0.000598828 1.00003 
-8.534e-05 0.000728252 1.00003 
-0.000113792 0.000896892 1.00003 
-0.000148043 0.00111252 1.00003 
-0.000190202 0.0013866 1.00003 
-0.000242526 0.00173431 1.00003 
-0.000307653 0.00217507 1.00003 
-0.000388959 0.00273273 1.00003 
-0.000490662 0.00343719 1.00002 
-0.00061776 0.00432563 1.00002 
-0.000776411 0.00544431 1.00001 
-0.000974258 0.00685066 1.00001 
-0.00122087 0.00861616 0.999992 
-0.00152839 0.0108302 0.99997 
-0.0019122 0.0136047 0.999935 
-0.00239202 0.0170812 0.99988 
-0.00299296 0.0214387 0.999795 
-0.003747 0.0269045 0.99966 
-0.00469486 0.0337696 0.999448 
-0.00588733 0.0424045 0.999112 
-0.00738563 0.0532812 0.998581 
-0.00926169 0.0669924 0.997738 
-0.0115997 0.0842752 0.996402 
-0.0144965 0.10604 0.994282 
-0.018056 0.133392 0.990922 
-0.0223775 0.167653 0.985613 
-0.0275364 0.210353 0.977255 
-0.0335495 0.263185 0.964175 
-0.0402999 0.327893 0.943862 
-0.0474086 0.405942 0.912668 
-0.0540389 0.497883 0.865547 
-0.0586888 0.602161 0.796189 
-0.0592778 0.713561 0.698042 
-0.0538021 0.822287 0.566466 
-0.0412865 0.914984 0.401285 
-0.0224977 0.977728 0.20852 
-1.39757e-05 0.999971 0.000157733 
0.0224738 0.97779 -0.208233 
0.0412716 0.915082 -0.401065 
0.053796 0.822394 -0.566314 
0.0592779 0.713662 -0.697941 
0.0586917 0.602259 -0.796115 
0.0540416 0.497974 -0.865495 
0.0474109 0.406032 -0.912628 
0.0403026 0.327981 -0.943832 
0.033553 0.263273 -0.964151 
0.0275402 0.210437 -0.977237 
0.0223812 0.167732 -0.985599 
0.0180599 0.133466 -0.990912 
0.0145005 0.106108 -0.994274 
0.0116039 0.0843369 -0.996397 
0.00926573 0.0670465 -0.997735 
0.00738935 0.0533276 -0.998578 
0.00589086 0.0424443 -0.99911 
0.00469803 0.0338032 -0.999446 
0.00374967 0.0269329 -0.999659 
0.00299513 0.0214624 -0.999794 
0.00239373 0.017101 -0.99988 
0.00191351 0.0136215 -0.999935 
0.0015294 0.0108445 -0.999969 
0.00122174 0.00862872 -0.999992 
0.000975109 0.00686171 -1.00001 
0.000777249 0.00545401 -1.00001 
0.000618398 0.00433451 -1.00002 
0.000490655 0.0034457 -1.00002 
0.000387707 0.00274283 -1.00003 
0.0003087 0.00219154 -1.00002 
0.000245146 0.00174247 -1.00003 
0.000190377 0.0013919 -1.00003 
0.000147917 0.00111805 -1.00003 
0.000113745 0.000901244 -1.00003 
8.53398e-05 0.000731387 -1.00003 
6.13523e-05 0.000601145 -1.00003 
3.99942e-05 0.000506199 -1.00003 
2.01788e-05 0.000444001 -1.00003 
1.13555e-06 0.000414359 -1.00002 
8.29066e-06 0.000438068 1.00003 
-9.21679e-06 0.000443071 1.00005 
-2.51211e-05 0.000487857 1.00006 
-4.3235e-05 0.000558873 1.00006 
-6.43418e-05 0.000670116 1.00006 
-8.81151e-05 0.000818979 1.00006 
-0.000117713 0.00101596 1.00006 
-0.000154531 0.00127682 1.00006 
-0.000199808 0.00161163 1.00006 
-0.000255057 0.002031 1.00006 
-0.000323917 0.0025596 1.00006 
-0.000409681 0.00322815 1.00005 
-0.000516679 0.00407216 1.00005 
-0.000649917 0.00513467 1.00005 
-0.00081569 0.00647016 1.00004 
-0.0010218 0.00814701 1.00002 
-0.0012779 0.0102499 1 
-0.00159615 0.012885 0.999974 
-0.00199161 0.0161854 0.999925 
-0.00248267 0.0203174 0.999848 
-0.00309282 0.0254945 0.999728 
-0.00385163 0.0319941 0.999538 
-0.00479331 0.040164 0.999239 
-0.00595687 0.0504331 0.998767 
-0.00738874 0.0633476 0.998021 
-0.0091424 0.0796019 0.996841 
-0.0112742 0.100048 0.994973 
-0.0138382 0.125697 0.992025 
-0.01688 0.157733 0.987388 
-0.0204245 0.197546 0.980129 
-0.0244525 0.246699 0.968829 
-0.0288582 0.306841 0.951363 
-0.0333819 0.37943 0.924648 
-0.0375181 0.465199 0.884425 
-0.0404645 0.56334 0.825224 
-0.0411619 0.670564 0.740668 
-0.0384524 0.779951 0.624573 
-0.0314666 0.880226 0.473349 
-0.0201929 0.956944 0.289228 
-0.00584134 0.996488 0.0821718 
0.0094174 0.991148 -0.131593 
0.0231704 0.94214 -0.334136 
0.0334925 0.858913 -0.510885 
0.0394654 0.755468 -0.653921 
0.041302 0.645692 -0.762446 
0.039975 0.539976 -0.840726 
0.0366535 0.444424 -0.895084 
0.0323612 0.361704 -0.931763 
0.0278336 0.292113 -0.956019 
0.0235004 0.234621 -0.971848 
0.0195731 0.187711 -0.982078 
0.0161386 0.149799 -0.988636 
0.0132106 0.119361 -0.992816 
0.0107524 0.0950245 -0.995472 
0.00871501 0.0756333 -0.997154 
0.00704004 0.0602027 -0.998218 
0.00567296 0.0479375 -0.998891 
0.00456375 0.0381868 -0.999318 
0.00366712 0.0304257 -0.999588 
0.00294389 0.0242418 -0.99976 
0.00236166 0.0193115 -0.999869 
0.00189318 0.0153769 -0.999938 
0.00151611 0.012234 -0.999982 
0.00121232 0.00972163 -1.00001 
0.000967174 0.00771163 -1.00003 
0.000768913 0.00610178 -1.00004 
0.000607708 0.00480856 -1.00005 
0.000476527 0.0037653 -1.00005 
0.00036883 0.00292393 -1.00006 
0.000283326 0.00225523 -1.00007 
0.000214536 0.001748 -1.00007 
0.00016878 0.00136564 -1.00005 
0.00012479 0.00107188 -1.00007 
9.10687e-05 0.000833238 -1.00006 
6.44224e-05 0.000677298 -1.00006 
4.38119e-05 0.000564256 -1.00007 
2.55138e-05 0.000491851 -1.00007 
9.56251e-06 0.000445657 -1.00005 
-8.18572e-06 0.000439589 -1.00003 
9.69026e-06 0.000462555 1.00003 
-9.29289e-06 0.000467675 1.00006 
-2.7984e-05 0.000523097 1.00008 
-4.9925e-05 0.000621182 1.00006 
-7.2667e-05 0.000755669 1.00006 
-9.81428e-05 0.000928885 1.00006 
-0.000130565 0.00116668 1.00006 
-0.000171008 0.00148018 1.00006 
-0.000219292 0.00187057 1.00006 
-0.000278846 0.00236147 1.00006 
-0.000353155 0.0029813 1.00006 
-0.000446005 0.0037652 1.00005 
-0.000561541 0.00475305 1.00005 
-0.000705013 0.00599427 1.00004 
-0.000883107 0.00755265 1.00003 
-0.00110387 0.00950708 1.00001 
-0.00137704 0.0119551 0.999986 
-0.0017146 0.0150199 0.999944 
-0.0021312 0.0188563 0.999878 
-0.00264425 0.0236567 0.999775 
-0.0032748 0.0296696 0.999612 
-0.00404734 0.0372176 0.999357 
-0.004988 0.0466971 0.998954 
-0.006125 0.0585879 0.998321 
-0.00749134 0.0735108 0.997323 
-0.00912028 0.0922508 0.99575 
-0.0110389 0.115738 0.993274 
-0.013266 0.14505 0.98939 
-0.0158074 0.181439 0.983329 
-0.0186414 0.226328 0.973926 
-0.0216923 0.281284 0.959433 
-0.0247859 0.347817 0.937289 
-0.0276078 0.426997 0.903886 
-0.029682 0.518809 0.854424 
-0.0304139 0.621225 0.783077 
-0.0291387 0.72952 0.68334 
-0.0252203 0.835017 0.54958 
-0.0183582 0.924645 0.380183 
-0.00897978 0.983307 0.181122 
0.00170307 0.999322 -0.0333489 
0.0121013 0.969466 -0.244506 
0.020764 0.900135 -0.434964 
0.0267588 0.804343 -0.593521 
0.0298558 0.696749 -0.716707 
0.0304493 0.589366 -0.807332 
0.0292167 0.489762 -0.871418 
0.0268321 0.401722 -0.915423 
0.0238762 0.326498 -0.94495 
0.0207736 0.263643 -0.96445 
0.0177743 0.211855 -0.977192 
0.0150129 0.169655 -0.985443 
0.0125583 0.135566 -0.990743 
0.0104259 0.108176 -0.994133 
0.00859855 0.0862411 -0.996294 
0.0070559 0.0687498 -0.997666 
0.00576202 0.0547963 -0.998538 
0.00468715 0.0436818 -0.999092 
0.003801 0.0348288 -0.999444 
0.00307395 0.0277678 -0.999668 
0.00247995 0.0221321 -0.99981 
0.00199693 0.0176348 -0.999901 
0.00160514 0.0140421 -0.999958 
0.00128799 0.0111714 -0.999995 
0.00103134 0.00887531 -1.00002 
0.000823834 0.00703901 -1.00003 
0.000656073 0.00556971 -1.00004 
0.000520012 0.00439289 -1.00005 
0.000409733 0.00345378 -1.00006 
0.00032053 0.00270737 -1.00006 
0.00025037 0.00212843 -1.00006 
0.000196627 0.00169015 -1.00005 
0.000152527 0.00134802 -1.00006 
0.000127578 0.00116236 -1.00006 
0.000100262 0.00094826 -1.00005 
7.3722e-05 0.000765664 -1.00006 
5.04004e-05 0.000627397 -1.00007 
2.9439e-05 0.000531532 -1.00008 
9.93184e-06 0.000470888 -1.00007 
-9.47893e-06 0.000464035 -1.00003 
7.88179e-06 0.000482941 1.00003 
-9.04047e-06 0.000486908 1.00006 
-2.44674e-05 0.000538901 1.00006 
-4.07183e-05 0.000596245 1.00005 
-5.93292e-05 0.000710907 1.00006 
-8.07199e-05 0.000862139 1.00006 
-0.000108144 0.00106118 1.00006 
-0.000143767 0.00134625 1.00006 
-0.000184121 0.00169701 1.00006 
-0.000234873 0.0021412 1.00006 
-0.000298036 0.00270143 1.00006 
-0.000376836 0.00341091 1.00005 
-0.00047491 0.00430767 1.00005 
-0.000596651 0.00543535 1.00004 
-0.000747621 0.00685025 1.00003 
-0.000934539 0.00862524 1.00002 
-0.00116529 0.0108482 0.999999 
-0.00144942 0.0136283 0.999964 
-0.00179847 0.0171061 0.99991 
-0.00222563 0.0214565 0.999825 
-0.00274631 0.0268951 0.999692 
-0.00337836 0.0337026 0.999484 
-0.00413953 0.0422409 0.999156 
-0.00504627 0.0529429 0.998642 
-0.00611681 0.0663327 0.997835 
-0.00737 0.0831012 0.99657 
-0.00881668 0.104102 0.994583 
-0.0104586 0.130317 0.991471 
-0.0122888 0.162876 0.986622 
-0.0142871 0.203082 0.979108 
-0.0164067 0.252386 0.967536 
-0.018549 0.312316 0.949844 
-0.0205323 0.384231 0.923052 
-0.0220724 0.46881 0.883062 
-0.0227961 0.565313 0.824587 
-0.0223464 0.67046 0.741609 
-0.0203142 0.77822 0.627614 
-0.0163313 0.878149 0.477967 
-0.0103811 0.955686 0.293861 
-0.00303741 0.99623 0.0852869 
0.00470334 0.991306 -0.130585 
0.0117764 0.942228 -0.334481 
0.0173416 0.859172 -0.511276 
0.0209569 0.756653 -0.653444 
0.0226578 0.648512 -0.760874 
0.0228182 0.544673 -0.838367 
0.021867 0.450628 -0.892484 
0.020189 0.368727 -0.929363 
0.0181477 0.299403 -0.954001 
0.0160023 0.241749 -0.970256 
0.0138924 0.194355 -0.980884 
0.0119089 0.155795 -0.98777 
0.0101098 0.12466 -0.992202 
0.00850947 0.0996167 -0.995045 
0.00710047 0.0795325 -0.996863 
0.00589148 0.0635179 -0.99802 
0.0048533 0.0506884 -0.99876 
0.00397664 0.0404538 -0.999231 
0.00324427 0.0322877 -0.999531 
0.00263567 0.025759 -0.999722 
0.00213334 0.0205414 -0.999845 
0.00172198 0.016371 -0.999922 
0.00138664 0.0130397 -0.999972 
0.0011138 0.0103734 -1 
0.000892348 0.00824122 -1.00002 
0.000712922 0.00653613 -1.00004 
0.000567817 0.00517214 -1.00005 
0.000450317 0.00408066 -1.00005 
0.000354746 0.00320739 -1.00006 
0.000276758 0.00251227 -1.00006 
0.000213212 0.0019591 -1.00006 
0.000160204 0.00149753 -1.00007 
0.000118837 0.00118383 -1.00006 
9.2342e-05 0.000930833 -1.00006 
6.44053e-05 0.000751556 -1.00008 
4.3352e-05 0.000620786 -1.00006 
2.54444e-05 0.000544388 -1.00007 
9.44272e-06 0.00048937 -1.00007 
-7.42867e-06 0.000484121 -1.00003 
5.05543e-06 0.00049942 1.00003 
-9.04758e-06 0.000505241 1.00006 
-2.55704e-05 0.000563565 1.00006 
-4.28072e-05 0.000637249 1.00006 
-6.38204e-05 0.000785205 1.00008 
-8.99775e-05 0.000985264 1.00006 
-0.000118418 0.00121091 1.00005 
-0.000150099 0.00150795 1.00006 
-0.000191606 0.0019011 1.00006 
-0.000243711 0.00240059 1.00006 
-0.000309026 0.00303295 1.00005 
-0.000390657 0.00383528 1.00005 
-0.000492028 0.0048468 1.00005 
-0.000617511 0.00611467 1.00004 
-0.000772745 0.00770357 1.00003 
-0.000964186 0.00969487 1.00001 
-0.0011991 0.0121827 0.999983 
-0.00148658 0.0152883 0.999939 
-0.0018373 0.0191702 0.999872 
-0.00226289 0.0240213 0.999766 
-0.00277618 0.0300766 0.999601 
-0.00339063 0.0376476 0.999342 
-0.00411734 0.0471313 0.998937 
-0.00496516 0.0589867 0.998302 
-0.00594304 0.073779 0.997312 
-0.00705413 0.0922696 0.995763 
-0.00828867 0.115362 0.993342 
-0.00962886 0.144074 0.989571 
-0.0110519 0.179596 0.983726 
-0.0125243 0.223278 0.974717 
-0.0139925 0.276592 0.960922 
-0.0153591 0.341056 0.939945 
-0.0164637 0.417845 0.908385 
-0.0170868 0.507216 0.861649 
-0.0169774 0.60763 0.794014 
-0.0159609 0.7144 0.699494 
-0.013761 0.820255 0.571712 
-0.0101887 0.912893 0.407838 
-0.00541015 0.977013 0.212572 
3.47588e-05 0.999877 -0.000996208 
0.00544845 0.97669 -0.214051 
0.0101851 0.912686 -0.408303 
0.0137795 0.820389 -0.571519 
0.0160382 0.714509 -0.69938 
0.0170721 0.607549 -0.794074 
0.0171487 0.50757 -0.861439 
0.0165126 0.418514 -0.908076 
0.0153967 0.34181 -0.93967 
0.0140353 0.27736 -0.9607 
0.0125717 0.223952 -0.974562 
0.0110839 0.180134 -0.983627 
0.00964365 0.144551 -0.989501 
0.00829897 0.115829 -0.993287 
0.00706501 0.0926936 -0.995724 
0.00594813 0.0741111 -0.997288 
0.0049818 0.0593209 -0.998283 
0.00412802 0.0473738 -0.998925 
0.00339985 0.0378492 -0.999335 
0.00278521 0.0302341 -0.999596 
0.00226978 0.0241384 -0.999763 
0.00184007 0.019242 -0.999871 
0.00148839 0.0153481 -0.999939 
0.00119961 0.0122227 -0.999982 
0.00096404 0.00972278 -1.00001 
0.000772814 0.00772463 -1.00003 
0.00061811 0.00612793 -1.00004 
0.000493218 0.00485235 -1.00005 
0.000391698 0.00382995 -1.00005 
0.000308862 0.0030132 -1.00006 
0.000241375 0.00236435 -1.00006 
0.000186676 0.00184508 -1.00006 
0.00014427 0.0014674 -1.00006 
0.000108102 0.00116499 -1.00006 
8.63915e-05 0.000946068 -1.00006 
6.32846e-05 0.000786227 -1.00005 
4.3203e-05 0.000650491 -1.00008 
2.50696e-05 0.000564357 -1.00006 
9.49872e-06 0.00050744 -1.00006 
-4.60134e-06 0.000499651 -1.00003 
2.82608e-06 0.000512501 1.00003 
-1.01926e-05 0.000521566 1.00006 
-2.47291e-05 0.000579001 1.00006 
-4.26531e-05 0.00066431 1.00006 
-5.87472e-05 0.000799418 1.00006 
-8.01217e-05 0.000968129 1.00006 
-0.000112548 0.00124813 1.00007 
-0.000148639 0.00162329 1.00006 
-0.000192123 0.00208253 1.00006 
-0.000246171 0.00265222 1.00006 
-0.000313579 0.00336705 1.00005 
-0.000397369 0.00427065 1.00005 
-0.000500829 0.00540224 1.00004 
-0.000628588 0.00681481 1.00003 
-0.000786337 0.00858384 1.00002 
-0.000979731 0.0107955 0.999998 
-0.00121568 0.01355 0.999964 
-0.0015028 0.0169833 0.999912 
-0.00185061 0.0212711 0.999829 
-0.00226944 0.0266233 0.9997 
-0.00276971 0.0332925 0.999498 
-0.0033612 0.0416241 0.999184 
-0.00404994 0.0520438 0.998693 
-0.00483995 0.0650309 0.997927 
-0.0057326 0.0811975 0.996737 
-0.0067178 0.101376 0.99488 
-0.00777205 0.126504 0.991989 
-0.00886598 0.157636 0.987509 
-0.00996446 0.196036 0.980595 
-0.0110243 0.243112 0.969981 
-0.0119884 0.300382 0.953784 
-0.0127695 0.369351 0.929234 
-0.0132427 0.450992 0.89245 
-0.0132567 0.545033 0.838312 
-0.012662 0.648903 0.76074 
-0.0113875 0.756208 0.654162 
-0.00924294 0.858297 0.512923 
-0.00619809 0.941387 0.33697 
-0.00248176 0.990866 0.133943 
0.00150237 0.996604 -0.080848 
0.00530531 0.957442 -0.288207 
0.00854298 0.881649 -0.471653 
0.01096 0.782969 -0.621878 
0.012484 0.675641 -0.73709 
0.0132223 0.570733 -0.821025 
0.0133384 0.474683 -0.880072 
0.0129661 0.390233 -0.920654 
0.0122493 0.318195 -0.947984 
0.0113334 0.258067 -0.966105 
0.0102927 0.208365 -0.978045 
0.00918253 0.167678 -0.98585 
0.00807087 0.134709 -0.990905 
0.00700227 0.108088 -0.994171 
0.00599557 0.0866018 -0.99628 
0.00506672 0.0693178 -0.997638 
0.00427168 0.0556361 -0.998498 
0.00354185 0.0443857 -0.999065 
0.00292102 0.0354694 -0.999423 
0.00239817 0.0283755 -0.999652 
0.00195215 0.0225957 -0.9998 
0.00158339 0.0180339 -0.999893 
0.00128175 0.0143851 -0.999953 
0.00103193 0.0114479 -0.999992 
0.000828223 0.00910448 -1.00002 
0.000663268 0.00723642 -1.00003 
0.000530606 0.00574893 -1.00004 
0.000423926 0.00455885 -1.00005 
0.000337404 0.00360801 -1.00005 
0.000266636 0.00284992 -1.00005 
0.000209717 0.00225311 -1.00006 
0.00016468 0.00179961 -1.00006 
0.000128251 0.00145318 -1.00006 
0.000100894 0.00118842 -1.00004 
7.76734e-05 0.000939442 -1.00007 
5.39983e-05 0.000758208 -1.00006 
3.66573e-05 0.000643587 -1.00006 
2.13538e-05 0.000569818 -1.00005 
9.26076e-06 0.000521649 -1.00006 
-3.19758e-06 0.00051158 -1.00003 
1.58189e-06 0.000524154 1.00003 
-1.05034e-05 0.000535156 1.00006 
-2.31531e-05 0.000592096 1.00006 
-3.83309e-05 0.00066843 1.00006 
-5.20362e-05 0.000791226 1.00005 
-7.05591e-05 0.000962118 1.00007 
-9.36511e-05 0.00115082 1.00005 
-0.000120294 0.00143994 1.00006 
-0.000154164 0.0018257 1.00006 
-0.000197783 0.00232136 1.00006 
-0.000252901 0.00294597 1.00005 
-0.000322218 0.0037382 1.00005 
-0.000408659 0.00474421 1.00005 
-0.000515097 0.00599424 1.00004 
-0.000646824 0.00755429 1.00003 
-0.000808672 0.00950434 1.00001 
-0.00100643 0.011938 0.999985 
-0.00124662 0.0149593 0.999944 
-0.00153736 0.0187179 0.99988 
-0.00188862 0.0234176 0.99978 
-0.00230916 0.0292741 0.999625 
-0.00280863 0.0365619 0.999383 
-0.00339504 0.0456593 0.999007 
-0.00407381 0.0570173 0.998421 
-0.00484762 0.0711303 0.99751 
-0.00571366 0.0886651 0.9961 
-0.00665791 0.110518 0.993906 
-0.00765625 0.137654 0.990504 
-0.00867681 0.171173 0.985254 
-0.00967753 0.212407 0.977181 
-0.0106048 0.262823 0.964829 
-0.0113913 0.323963 0.946038 
-0.0119521 0.39726 0.917656 
-0.0121831 0.483367 0.875346 
-0.011963 0.581278 0.813608 
-0.0111674 0.687134 0.726404 
-0.00970162 0.792956 0.609109 
-0.00746162 0.889348 0.456986 
-0.00450923 0.962177 0.271992 
-0.00106928 0.997845 0.0637494 
0.00249377 0.988465 -0.150656 
0.00577927 0.935922 -0.351876 
0.00847536 0.850837 -0.52522 
0.0104227 0.747656 -0.663936 
0.0116147 0.640027 -0.768238 
0.0121529 0.537655 -0.843079 
0.0121692 0.445487 -0.895225 
0.0117834 0.365335 -0.930833 
0.0111139 0.297545 -0.954683 
0.0102645 0.241274 -0.970448 
0.00929297 0.194803 -0.980848 
0.00826135 0.156819 -0.987645 
0.00723907 0.126113 -0.992043 
0.00625957 0.101279 -0.994893 
0.00533656 0.0811544 -0.996743 
0.00448892 0.0649179 -0.997937 
0.00380084 0.0522765 -0.998681 
0.00311556 0.0413714 -0.999195 
0.00257389 0.0332296 -0.999501 
0.00209822 0.0263516 -0.999707 
0.00170506 0.0210324 -0.999834 
0.00138063 0.0167695 -0.999916 
0.00111718 0.0133774 -0.999967 
0.000894865 0.0106174 -1 
0.000715638 0.00843726 -1.00002 
0.000572673 0.00672014 -1.00004 
0.000457369 0.00533954 -1.00004 
0.000365615 0.00424678 -1.00005 
0.000291103 0.0033723 -1.00005 
0.000229846 0.00267513 -1.00005 
0.000180693 0.00212877 -1.00006 
0.000139836 0.00169051 -1.00006 
0.000105025 0.00133148 -1.00007 
8.19673e-05 0.00105557 -1.00005 
6.17941e-05 0.000866826 -1.00006 
4.31166e-05 0.000721745 -1.00006 
2.79849e-05 0.000620497 -1.00006 
1.01201e-05 0.000538642 -1.00007 
-3.09906e-06 0.000523552 -1.00003 
1.00741e-06 0.000534919 1.00003 
-1.02806e-05 0.000547655 1.00006 
-2.13505e-05 0.00060652 1.00006 
-3.57461e-05 0.000685779 1.00006 
-5.07851e-05 0.000835792 1.00006 
-6.72883e-05 0.00103297 1.00006 
-9.1425e-05 0.00122681 1.00006 
-0.000117744 0.00156243 1.00006 
-0.000151592 0.0019996 1.00006 
-0.000194758 0.00255075 1.00006 
-0.000249902 0.00324242 1.00005 
-0.00031946 0.0041259 1.00005 
-0.000404398 0.00523695 1.00004 
-0.000509619 0.0066041 1.00003 
-0.000638916 0.0083022 1.00002 
-0.000797487 0.0104308 1 
-0.000990115 0.0130824 0.99997 
-0.0012224 0.0163492 0.999921 
-0.00150572 0.0204377 0.999846 
-0.00184569 0.0255466 0.999728 
-0.00225178 0.0319014 0.999544 
-0.00273265 0.0397992 0.999259 
-0.00329393 0.0496545 0.998816 
-0.00394049 0.0619163 0.998129 
-0.00467986 0.0771059 0.997067 
-0.0055075 0.0959622 0.995424 
-0.00640454 0.119428 0.992876 
-0.00734973 0.148437 0.988947 
-0.00831796 0.184105 0.982922 
-0.00927037 0.227782 0.973715 
-0.0101531 0.28086 0.959738 
-0.010892 0.344736 0.938672 
-0.0113928 0.420631 0.907186 
-0.0115509 0.50871 0.86087 
-0.011254 0.607565 0.794177 
-0.0103937 0.713094 0.700942 
-0.0088644 0.817345 0.575973 
-0.00653845 0.910046 0.414239 
-0.00352631 0.975477 0.219562 
-0.000102227 0.999869 0.0045918 
0.00332859 0.977398 -0.21085 
0.00636854 0.913269 -0.407083 
0.00874813 0.820507 -0.571458 
0.0103617 0.714143 -0.699873 
0.011255 0.607194 -0.794461 
0.0115604 0.507785 -0.861417 
0.0113986 0.419396 -0.907758 
0.0108784 0.343217 -0.939229 
0.0101332 0.27932 -0.960187 
0.00926362 0.226484 -0.974018 
0.00828803 0.182702 -0.983184 
0.00728259 0.147 -0.989162 
0.00633497 0.11829 -0.993012 
0.00543782 0.0948942 -0.995527 
0.00458295 0.0757038 -0.997176 
0.00379398 0.0601567 -0.998245 
0.00327769 0.0485 -0.998863 
0.0026228 0.0385249 -0.999319 
0.00215933 0.0303098 -0.999594 
0.00175103 0.0241883 -0.999763 
0.00141703 0.0192629 -0.99987 
0.00114326 0.015348 -0.999939 
0.000928533 0.0122407 -0.999981 
0.000732175 0.00962229 -1.00001 
0.000583635 0.00767048 -1.00003 
0.000466308 0.00608917 -1.00004 
0.000373046 0.00484953 -1.00004 
0.000301547 0.00388963 -1.00005 
0.000245112 0.00315075 -1.00004 
0.000195787 0.00254256 -1.00005 
0.00015442 0.00203672 -1.00006 
0.000118788 0.00161671 -1.00006 
8.8879e-05 0.00128213 -1.00006 
7.40674e-05 0.00104651 -1.00006 
5.21522e-05 0.000841449 -1.00006 
3.40165e-05 0.000696898 -1.00007 
1.94071e-05 0.000591354 -1.00006 
7.84731e-06 0.000549373 -1.00005 