# vtk DataFile Version 3.0 
Exported using Morpho https://github.com/Morpho-lang/morpho 
ASCII 
DATASET UNSTRUCTURED_GRID 

POINTS 2054 float 
-8.48528 -2.82843 0 
-8.20636 -2.82843 0 
-7.94054 -2.82843 0 
-7.6904 -2.82843 0 
-7.45357 -2.82843 0 
-7.22694 -2.82843 0 
-7.00705 -2.82843 0 
-6.79111 -2.82843 0 
-6.57731 -2.82843 0 
-6.36453 -2.82843 0 
-6.15219 -2.82843 0 
-5.94 -2.82843 0 
-5.72786 -2.82843 0 
-5.51573 -2.82843 0 
-5.3036 -2.82843 0 
-5.09147 -2.82843 0 
-4.87933 -2.82843 0 
-4.6672 -2.82843 0 
-4.45507 -2.82843 0 
-4.24294 -2.82843 0 
-4.03081 -2.82843 0 
-3.81867 -2.82843 0 
-3.60654 -2.82843 0 
-3.39441 -2.82843 0 
-3.18228 -2.82843 0 
-2.97015 -2.82843 0 
-2.75801 -2.82843 0 
-2.54588 -2.82843 0 
-2.33375 -2.82843 0 
-2.12162 -2.82843 0 
-1.90949 -2.82843 0 
-1.69735 -2.82843 0 
-1.48522 -2.82843 0 
-1.27309 -2.82843 0 
-1.06096 -2.82843 0 
-0.848825 -2.82843 0 
-0.636693 -2.82843 0 
-0.424561 -2.82843 0 
-0.212429 -2.82843 0 
-0.000296761 -2.82843 0 
0.211835 -2.82843 0 
0.423967 -2.82843 0 
0.636099 -2.82843 0 
0.848231 -2.82843 0 
1.06036 -2.82843 0 
1.2725 -2.82843 0 
1.48463 -2.82843 0 
1.69676 -2.82843 0 
1.90889 -2.82843 0 
2.12102 -2.82843 0 
2.33316 -2.82843 0 
2.54529 -2.82843 0 
2.75742 -2.82843 0 
2.96955 -2.82843 0 
3.18168 -2.82843 0 
3.39382 -2.82843 0 
3.60595 -2.82843 0 
3.81808 -2.82843 0 
4.03021 -2.82843 0 
4.24234 -2.82843 0 
4.45448 -2.82843 0 
4.66661 -2.82843 0 
4.87874 -2.82843 0 
5.09087 -2.82843 0 
5.303 -2.82843 0 
5.51514 -2.82843 0 
5.72727 -2.82843 0 
5.93941 -2.82843 0 
6.15159 -2.82843 0 
6.36393 -2.82843 0 
6.57672 -2.82843 0 
6.79055 -2.82843 0 
7.00652 -2.82843 0 
7.22647 -2.82843 0 
7.45313 -2.82843 0 
7.69005 -2.82843 0 
7.9403 -2.82843 0 
8.20621 -2.82843 0 
8.48528 -2.82843 0 
-8.48528 -2.5495 0 
-8.30526 -2.64845 0 
-8.07062 -2.59995 0 
-7.83904 -2.59637 0 
-7.59595 -2.59733 0 
-7.36578 -2.59177 0 
-7.13796 -2.5933 0 
-6.90908 -2.59428 0 
-6.68421 -2.5916 0 
-6.46568 -2.58832 0 
-6.24926 -2.58859 0 
-6.03358 -2.58941 0 
-5.81848 -2.59013 0 
-5.60402 -2.59075 0 
-5.39005 -2.59135 0 
-5.17642 -2.59186 0 
-4.96311 -2.59223 0 
-4.75009 -2.59242 0 
-4.53736 -2.59244 0 
-4.32497 -2.59236 0 
-4.1128 -2.59242 0 
-3.90059 -2.59259 0 
-3.68835 -2.5926 0 
-3.47627 -2.59248 0 
-3.26428 -2.59251 0 
-3.05216 -2.59271 0 
-2.83986 -2.59283 0 
-2.62755 -2.59274 0 
-2.41539 -2.59253 0 
-2.20336 -2.59238 0 
-1.99135 -2.59238 0 
-1.77924 -2.59246 0 
-1.56704 -2.59244 0 
-1.35495 -2.59215 0 
-1.14319 -2.59183 0 
-0.931581 -2.59195 0 
-0.719663 -2.59256 0 
-0.507197 -2.59324 0 
-0.294425 -2.59354 0 
-0.0817689 -2.59344 0 
0.130587 -2.59325 0 
0.342804 -2.59322 0 
0.555051 -2.59322 0 
0.767233 -2.59303 0 
0.97919 -2.59278 0 
1.19107 -2.59278 0 
1.40311 -2.59289 0 
1.61524 -2.59286 0 
1.82732 -2.59279 0 
2.03943 -2.59281 0 
2.25163 -2.5928 0 
2.46381 -2.59266 0 
2.67591 -2.59254 0 
2.88801 -2.59237 0 
3.10001 -2.59226 0 
3.31203 -2.59216 0 
3.52402 -2.59207 0 
3.73601 -2.59208 0 
3.94815 -2.59221 0 
4.16052 -2.5923 0 
4.37309 -2.59232 0 
4.58593 -2.59227 0 
4.79921 -2.5922 0 
5.01319 -2.59212 0 
5.22833 -2.5921 0 
5.44534 -2.59239 0 
5.6657 -2.59346 0 
5.89185 -2.59569 0 
6.12685 -2.59429 0 
6.36853 -2.59189 0 
6.6108 -2.57787 0 
6.84491 -2.61411 0 
7.08804 -2.58476 0 
7.34858 -2.60369 0 
7.58803 -2.59327 0 
7.83059 -2.59326 0 
8.06387 -2.59199 0 
8.30038 -2.64348 0 
8.48528 -2.54936 0 
-8.48528 -2.28369 0 
-8.25701 -2.4138 0 
-8.01078 -2.35334 0 
-7.73666 -2.37963 0 
-7.49744 -2.35565 0 
-7.26898 -2.35831 0 
-7.03324 -2.36676 0 
-6.7997 -2.36275 0 
-6.5773 -2.35166 0 
-6.35808 -2.3495 0 
-6.14038 -2.35058 0 
-5.92336 -2.35185 0 
-5.70723 -2.35272 0 
-5.49199 -2.35362 0 
-5.27734 -2.35447 0 
-5.0632 -2.35505 0 
-4.84958 -2.35534 0 
-4.63641 -2.35533 0 
-4.42363 -2.35504 0 
-4.21126 -2.35485 0 
-3.99909 -2.35513 0 
-3.78684 -2.3554 0 
-3.57461 -2.35516 0 
-3.36263 -2.35498 0 
-3.15066 -2.35537 0 
-2.93843 -2.35586 0 
-2.72604 -2.35589 0 
-2.51374 -2.35551 0 
-2.30162 -2.35509 0 
-2.08964 -2.35496 0 
-1.87761 -2.35518 0 
-1.66544 -2.3554 0 
-1.45322 -2.35518 0 
-1.2412 -2.35438 0 
-1.02967 -2.35407 0 
-0.818162 -2.35505 0 
-0.606054 -2.35676 0 
-0.393243 -2.3579 0 
-0.180256 -2.35789 0 
0.0323765 -2.35727 0 
0.244686 -2.35692 0 
0.456926 -2.35692 0 
0.669206 -2.35667 0 
0.881318 -2.35598 0 
1.09315 -2.35559 0 
1.305 -2.35583 0 
1.51709 -2.35595 0 
1.72919 -2.35571 0 
1.9412 -2.35566 0 
2.15334 -2.3558 0 
2.36559 -2.3556 0 
2.57772 -2.35522 0 
2.78976 -2.35507 0 
3.0019 -2.35461 0 
3.21373 -2.35451 0 
3.42571 -2.35439 0 
3.63769 -2.35431 0 
3.84965 -2.35453 0 
4.06183 -2.35491 0 
4.27435 -2.35507 0 
4.48707 -2.35507 0 
4.70017 -2.35506 0 
4.91376 -2.35498 0 
5.12819 -2.35502 0 
5.34378 -2.35528 0 
5.56106 -2.35662 0 
5.78097 -2.35971 0 
6.00401 -2.36251 0 
6.2308 -2.3624 0 
6.45748 -2.35551 0 
6.68075 -2.33423 0 
6.88797 -2.39744 0 
7.05313 -2.27289 0 
7.24377 -2.40237 0 
7.48542 -2.36016 0 
7.73055 -2.36599 0 
7.99177 -2.33552 0 
8.24864 -2.40698 0 
8.48528 -2.28345 0 
-8.48528 -2.03355 0 
-8.25312 -2.18214 0 
-8.03669 -2.07913 0 
-7.83956 -2.18231 0 
-7.6106 -2.12852 0 
-7.38852 -2.10959 0 
-7.16268 -2.14097 0 
-6.9229 -2.1435 0 
-6.70119 -2.12055 0 
-6.48111 -2.11285 0 
-6.26282 -2.11284 0 
-6.045 -2.1151 0 
-5.82775 -2.11658 0 
-5.61153 -2.11776 0 
-5.3962 -2.1192 0 
-5.18144 -2.1203 0 
-4.96732 -2.12084 0 
-4.75387 -2.12105 0 
-4.54086 -2.12091 0 
-4.32822 -2.12045 0 
-4.11596 -2.12045 0 
-3.90382 -2.12107 0 
-3.69156 -2.12116 0 
-3.47938 -2.12058 0 
-3.26746 -2.12068 0 
-3.05542 -2.12154 0 
-2.84307 -2.12198 0 
-2.63064 -2.12162 0 
-2.41836 -2.12087 0 
-2.20626 -2.12031 0 
-1.99426 -2.12034 0 
-1.78217 -2.1207 0 
-1.56989 -2.12074 0 
-1.35755 -2.11993 0 
-1.14542 -2.11838 0 
-0.934012 -2.11859 0 
-0.722404 -2.12089 0 
-0.509943 -2.12344 0 
-0.296911 -2.12431 0 
-0.0840921 -2.12359 0 
0.128295 -2.12281 0 
0.340414 -2.12274 0 
0.552564 -2.12288 0 
0.76478 -2.12226 0 
0.976792 -2.1213 0 
1.18855 -2.12128 0 
1.40042 -2.12188 0 
1.61256 -2.12177 0 
1.82458 -2.12141 0 
2.03655 -2.12164 0 
2.24875 -2.12174 0 
2.46099 -2.12114 0 
2.67302 -2.12065 0 
2.88504 -2.12054 0 
3.09728 -2.1194 0 
3.30873 -2.11968 0 
3.52086 -2.1195 0 
3.7329 -2.11938 0 
3.94484 -2.11986 0 
4.15715 -2.12044 0 
4.36983 -2.12035 0 
4.58282 -2.1204 0 
4.79606 -2.12017 0 
5.01004 -2.12012 0 
5.22483 -2.12002 0 
5.44073 -2.12051 0 
5.6582 -2.123 0 
5.8782 -2.12696 0 
6.10217 -2.12971 0 
6.33095 -2.12707 0 
6.567 -2.11601 0 
6.82301 -2.12303 0 
7.06572 -2.04567 0 
7.29733 -2.17484 0 
7.54632 -2.11408 0 
7.79371 -2.13741 0 
8.02274 -2.07453 0 
8.25027 -2.1738 0 
8.48528 -2.0332 0 
-8.48528 -1.79671 0 
-8.25436 -1.93882 0 
-8.01299 -1.83977 0 
-7.78596 -1.953 0 
-7.5297 -1.87194 0 
-7.2756 -1.88722 0 
-7.05707 -1.93544 0 
-6.84369 -1.89677 0 
-6.62219 -1.88079 0 
-6.40169 -1.87606 0 
-6.18206 -1.87854 0 
-5.96274 -1.881 0 
-5.74458 -1.88208 0 
-5.52796 -1.88344 0 
-5.31232 -1.88506 0 
-5.09736 -1.88569 0 
-4.88338 -1.88564 0 
-4.67019 -1.88555 0 
-4.45737 -1.88507 0 
-4.24485 -1.88447 0 
-4.03271 -1.88482 0 
-3.82061 -1.88562 0 
-3.60832 -1.88529 0 
-3.39617 -1.88464 0 
-3.18427 -1.88547 0 
-2.97209 -1.88672 0 
-2.7596 -1.88684 0 
-2.54714 -1.88601 0 
-2.33483 -1.88505 0 
-2.12268 -1.8846 0 
-1.91058 -1.885 0 
-1.69824 -1.88561 0 
-1.48561 -1.88547 0 
-1.27286 -1.88413 0 
-1.06032 -1.88216 0 
-0.848858 -1.8839 0 
-0.636875 -1.88781 0 
-0.424169 -1.89034 0 
-0.211518 -1.89004 0 
0.000731944 -1.88866 0 
0.21257 -1.88788 0 
0.424308 -1.88807 0 
0.636257 -1.88793 0 
0.848362 -1.88664 0 
1.06025 -1.88556 0 
1.27191 -1.88605 0 
1.48381 -1.88664 0 
1.69595 -1.886 0 
1.90782 -1.88577 0 
2.11974 -1.88637 0 
2.33202 -1.88609 0 
2.54419 -1.88502 0 
2.75607 -1.88472 0 
2.96812 -1.88462 0 
3.18055 -1.88217 0 
3.39117 -1.88415 0 
3.60398 -1.8838 0 
3.81618 -1.88366 0 
4.02827 -1.88469 0 
4.24071 -1.88523 0 
4.4544 -1.88509 0 
4.66716 -1.88476 0 
4.88099 -1.88493 0 
5.09545 -1.88466 0 
5.31057 -1.88453 0 
5.52653 -1.88564 0 
5.7436 -1.88981 0 
5.96352 -1.89563 0 
6.18733 -1.89813 0 
6.41543 -1.89522 0 
6.65059 -1.89622 0 
6.87542 -1.86913 0 
7.11122 -1.81621 0 
7.31223 -1.94975 0 
7.53264 -1.87683 0 
7.77077 -1.89068 0 
8.01717 -1.8297 0 
8.25014 -1.93148 0 
8.48528 -1.79628 0 
-8.48528 -1.57009 0 
-8.24868 -1.70836 0 
-8.015 -1.61096 0 
-7.76734 -1.73071 0 
-7.54593 -1.61782 0 
-7.32306 -1.66278 0 
-7.05152 -1.7082 0 
-6.79786 -1.66675 0 
-6.56099 -1.64764 0 
-6.33267 -1.64541 0 
-6.10856 -1.64921 0 
-5.88638 -1.65073 0 
-5.66697 -1.65153 0 
-5.44986 -1.65353 0 
-5.23379 -1.65525 0 
-5.01882 -1.6551 0 
-4.80519 -1.6548 0 
-4.59235 -1.65478 0 
-4.37976 -1.65422 0 
-4.16737 -1.65386 0 
-3.95537 -1.65471 0 
-3.74326 -1.6554 0 
-3.5309 -1.65455 0 
-3.31876 -1.65426 0 
-3.10682 -1.65593 0 
-2.89443 -1.65705 0 
-2.68177 -1.65644 0 
-2.46924 -1.65516 0 
-2.25682 -1.65408 0 
-2.04447 -1.65386 0 
-1.83202 -1.65455 0 
-1.61911 -1.65506 0 
-1.40572 -1.65429 0 
-1.19212 -1.65207 0 
-0.97885 -1.64982 0 
-0.767325 -1.65372 0 
-0.555434 -1.6581 0 
-0.343588 -1.65935 0 
-0.132061 -1.65818 0 
0.0792288 -1.65687 0 
0.290417 -1.65682 0 
0.501823 -1.6575 0 
0.713729 -1.65709 0 
0.925861 -1.65545 0 
1.13768 -1.65488 0 
1.34929 -1.65604 0 
1.56128 -1.6563 0 
1.77337 -1.65516 0 
1.985 -1.65561 0 
2.19698 -1.65642 0 
2.40939 -1.65525 0 
2.62143 -1.65394 0 
2.83323 -1.65414 0 
3.04553 -1.65355 0 
3.25842 -1.64868 0 
3.46746 -1.65522 0 
3.68272 -1.65284 0 
3.89574 -1.65288 0 
4.10731 -1.65378 0 
4.32287 -1.65565 0 
4.53627 -1.65249 0 
4.74932 -1.65397 0 
4.96428 -1.65355 0 
5.17935 -1.65257 0 
5.3944 -1.65202 0 
5.60927 -1.65354 0 
5.82513 -1.66019 0 
6.04295 -1.66711 0 
6.26383 -1.66843 0 
6.48537 -1.66776 0 
6.70098 -1.65646 0 
6.91299 -1.6206 0 
7.11709 -1.6046 0 
7.3526 -1.69716 0 
7.60698 -1.65764 0 
7.8325 -1.64214 0 
8.05985 -1.58842 0 
8.2608 -1.69223 0 
8.48528 -1.56961 0 
-8.48528 -1.35019 0 
-8.24958 -1.48044 0 
-8.0219 -1.3751 0 
-7.79713 -1.50391 0 
-7.58956 -1.39834 0 
-7.36199 -1.38754 0 
-7.16079 -1.49923 0 
-6.93764 -1.46284 0 
[...]
POINT_DATA 2054 
VECTORS vectors float
1.28541e-07 0.000456492 1 
-3.66618e-06 0.000497494 1 
-6.17806e-06 0.00056894 1 
-9.17462e-06 0.000676749 1 
-1.17452e-05 0.000823314 1 
-1.45958e-05 0.0010138 1 
-1.80933e-05 0.00125689 0.999999 
-2.23191e-05 0.00156484 0.999999 
-2.7521e-05 0.00195378 0.999998 
-3.43208e-05 0.00244428 0.999997 
-4.31317e-05 0.00306157 0.999995 
-5.42112e-05 0.00383737 0.999993 
-6.80538e-05 0.00481122 0.999988 
-8.53759e-05 0.00603276 0.999982 
-0.000107055 0.00756428 0.999971 
-0.000134183 0.00948416 0.999955 
-0.000168085 0.0118913 0.999929 
-0.000210421 0.0149098 0.999889 
-0.000263272 0.0186964 0.999825 
-0.000329347 0.023447 0.999725 
-0.000412039 0.0294067 0.999567 
-0.000514912 0.03688 0.99932 
-0.000642246 0.0462434 0.99893 
-0.00079993 0.0579622 0.998318 
-0.000995262 0.0726083 0.99736 
-0.00123624 0.0908821 0.995861 
-0.00153118 0.113641 0.993521 
-0.00188999 0.141922 0.989876 
-0.00232393 0.176971 0.984213 
-0.00284236 0.220233 0.975443 
-0.00344751 0.2733 0.961923 
-0.00412526 0.33775 0.941227 
-0.00483323 0.414818 0.909892 
-0.0054864 0.504848 0.863191 
-0.0059473 0.606368 0.795162 
-0.00602337 0.714852 0.69925 
-0.00550165 0.821619 0.570011 
-0.00425106 0.913932 0.405845 
-0.00232792 0.977321 0.211749 
-2.49204e-06 1 0.000159261 
0.00232168 0.977385 -0.211456 
0.00424721 0.914034 -0.405616 
0.00550813 0.82173 -0.56985 
0.00603901 0.714958 -0.699141 
0.00596521 0.606471 -0.795083 
0.0055008 0.504942 -0.863136 
0.00484118 0.414908 -0.90985 
0.00412895 0.337839 -0.941195 
0.00345099 0.27339 -0.961897 
0.00284678 0.22032 -0.975423 
0.00232683 0.177052 -0.984199 
0.00189013 0.141997 -0.989865 
0.00152986 0.113709 -0.993513 
0.00123476 0.0909439 -0.995855 
0.000994661 0.0726631 -0.997356 
0.000799601 0.0580098 -0.998316 
0.000641677 0.0462847 -0.998928 
0.000514419 0.0369154 -0.999318 
0.000412014 0.0294371 -0.999567 
0.000329629 0.0234728 -0.999724 
0.00026349 0.018718 -0.999825 
0.000210507 0.0149282 -0.999889 
0.000168185 0.011907 -0.999929 
0.000134389 0.0094978 -0.999955 
0.000107435 0.0075762 -0.999971 
8.60056e-05 0.00604323 -0.999982 
6.90503e-05 0.00482056 -0.999988 
5.58091e-05 0.00384594 -0.999993 
4.42281e-05 0.00307162 -0.999995 
3.44955e-05 0.00246198 -0.999997 
2.72214e-05 0.00196281 -0.999998 
2.29703e-05 0.00157153 -0.999999 
1.80047e-05 0.00126353 -0.999999 
1.44057e-05 0.001019 -1 
1.20861e-05 0.000827071 -1 
9.13015e-06 0.000679723 -1 
6.22025e-06 0.000571549 -1 
3.63927e-06 0.000499951 -1 
-1.50673e-07 0.00045892 -1 
1.07431e-05 0.000470025 1 
6.58757e-07 0.000487876 1 
-8.48956e-06 0.000538135 1 
-1.65294e-05 0.000617825 1 
-2.58706e-05 0.000741946 1 
-3.76237e-05 0.000906739 1 
-5.0345e-05 0.00112444 0.999999 
-6.62378e-05 0.00141174 0.999999 
-8.69135e-05 0.00177857 0.999998 
-0.000112227 0.00223566 0.999998 
-0.00014184 0.00280954 0.999996 
-0.000178488 0.00353213 0.999994 
-0.000224044 0.00444051 0.99999 
-0.000280479 0.00558002 0.999984 
-0.000350242 0.00700863 0.999975 
-0.000436488 0.00879965 0.999961 
-0.000542965 0.0110445 0.999939 
-0.000674168 0.013858 0.999904 
-0.000835476 0.0173839 0.999849 
-0.00103315 0.0218004 0.999762 
-0.0012736 0.0273325 0.999626 
-0.00156545 0.0342673 0.999412 
-0.00192037 0.0429548 0.999075 
-0.00234998 0.0538161 0.998548 
-0.00286516 0.067379 0.997723 
-0.00348006 0.0843071 0.996434 
-0.00421312 0.105408 0.99442 
-0.00508187 0.131638 0.991285 
-0.0060981 0.164128 0.98642 
-0.00726457 0.204219 0.978898 
-0.00856909 0.25343 0.967316 
-0.00997378 0.313346 0.949587 
-0.0113985 0.38534 0.922704 
-0.0126997 0.47007 0.882538 
-0.0136294 0.566754 0.823774 
-0.0138329 0.672359 0.740096 
-0.0129247 0.780424 0.625117 
-0.010609 0.880066 0.474732 
-0.00684441 0.956814 0.290619 
-0.00198922 0.996577 0.082646 
0.00320845 0.991196 -0.132364 
0.00786023 0.941963 -0.335626 
0.0112904 0.85883 -0.512136 
0.0132493 0.756194 -0.654213 
0.0138624 0.647854 -0.761638 
0.013456 0.543755 -0.839136 
0.0124184 0.449575 -0.893156 
0.0110783 0.367786 -0.929844 
0.00964811 0.298699 -0.954298 
0.0082559 0.241364 -0.9704 
0.00697911 0.194342 -0.980909 
0.00585131 0.156103 -0.987723 
0.00487296 0.125175 -0.992123 
0.00403844 0.100235 -0.994956 
0.00333274 0.080182 -0.996775 
0.0027403 0.0640812 -0.997941 
0.00224628 0.0511788 -0.998687 
0.00183541 0.0408528 -0.999164 
0.00149471 0.0325938 -0.999468 
0.00121403 0.0259939 -0.999661 
0.00098359 0.0207251 -0.999785 
0.000794869 0.0165201 -0.999863 
0.000640559 0.013163 -0.999913 
0.000514664 0.0104809 -0.999945 
0.000412002 0.00833519 -0.999965 
0.000328095 0.00661544 -0.999978 
0.000258931 0.00523161 -0.999986 
0.000200813 0.00411209 -0.999992 
0.000155011 0.00320443 -0.999995 
0.000119557 0.00247954 -0.999997 
9.60819e-05 0.00192559 -0.999998 
6.64977e-05 0.00151162 -0.999999 
5.37314e-05 0.00118567 -0.999999 
3.52853e-05 0.000923431 -1 
2.64533e-05 0.00075007 -1 
1.68923e-05 0.000624122 -1 
8.85308e-06 0.000542845 -1 
-4.48214e-07 0.000491226 -1 
-1.04739e-05 0.000472353 -1 
1.27509e-05 0.000489308 1 
-1.89668e-06 0.000508344 1 
-1.47491e-05 0.000568627 1 
-2.89705e-05 0.000677942 1 
-4.29377e-05 0.000824237 1 
-5.84628e-05 0.00101318 1 
-7.8089e-05 0.00127211 0.999999 
-0.000102117 0.00161104 0.999999 
-0.000130745 0.00203021 0.999998 
-0.000165988 0.00255596 0.999997 
-0.000209589 0.0032174 0.999995 
-0.000263573 0.00405059 0.999992 
-0.000330294 0.0050969 0.999987 
-0.000412602 0.00640817 0.999979 
-0.00051394 0.00805176 0.999968 
-0.000638317 0.0101112 0.999949 
-0.00079042 0.0126902 0.999919 
-0.000975672 0.0159194 0.999873 
-0.00120022 0.0199622 0.9998 
-0.00147111 0.0250197 0.999686 
-0.00179693 0.0313477 0.999507 
-0.00218741 0.0392712 0.999226 
-0.00265237 0.0491804 0.998786 
-0.00320279 0.0615407 0.998099 
-0.00385219 0.0769501 0.997028 
-0.00461348 0.096158 0.995355 
-0.00549583 0.12005 0.992753 
-0.00650409 0.149662 0.988716 
-0.007637 0.186216 0.982479 
-0.00888146 0.231116 0.972886 
-0.0102032 0.285911 0.958202 
-0.011528 0.352085 0.935897 
-0.0127215 0.430683 0.902413 
-0.0135799 0.521689 0.853028 
-0.0138577 0.623157 0.781974 
-0.0132698 0.730543 0.682738 
-0.01151 0.835389 0.549538 
-0.00840027 0.924744 0.380497 
-0.00411413 0.983402 0.181391 
0.000781506 0.999441 -0.0334158 
0.00553969 0.969547 -0.244841 
0.00948662 0.90028 -0.435208 
0.0121975 0.804875 -0.593318 
0.0135912 0.698034 -0.715936 
0.013883 0.591597 -0.806114 
0.013389 0.492911 -0.869977 
0.0123928 0.40561 -0.913962 
0.0111375 0.330897 -0.943601 
0.00980571 0.26834 -0.963274 
0.00850207 0.216663 -0.976209 
0.00728329 0.1744 -0.984648 
0.00618347 0.140097 -0.990118 
0.00521402 0.112369 -0.993653 
0.00436959 0.0900058 -0.995932 
0.00364507 0.07204 -0.997395 
0.00302682 0.0576032 -0.998335 
0.00250312 0.0460295 -0.998937 
0.00206229 0.0367637 -0.999322 
0.0016926 0.0293468 -0.999568 
0.00138377 0.023414 -0.999725 
0.00112725 0.0186754 -0.999825 
0.00091507 0.0148895 -0.999889 
0.000740281 0.011865 -0.999929 
0.000596781 0.00944628 -0.999955 
0.000479276 0.00751112 -0.999972 
0.000383317 0.00596117 -0.999982 
0.000305007 0.00471759 -0.999989 
0.000241398 0.00372211 -0.999993 
0.000189825 0.0029272 -0.999996 
0.000148316 0.00230699 -0.999997 
0.00011797 0.00183432 -0.999998 
9.00133e-05 0.00147116 -0.999999 
7.76777e-05 0.00126069 -0.999999 
5.97967e-05 0.00103727 -1 
4.37521e-05 0.000835581 -1 
2.91854e-05 0.000684561 -1 
1.57995e-05 0.000577853 -1 
2.55226e-06 0.000512304 -1 
-1.22302e-05 0.000491406 -1 
1.06403e-05 0.000505853 1 
-1.90766e-06 0.000522833 1 
-1.39372e-05 0.000577784 1 
-2.4207e-05 0.000643353 1 
-3.77228e-05 0.000766178 1 
-5.26745e-05 0.000928596 1 
-6.99362e-05 0.00114396 0.999999 
-9.30248e-05 0.00144961 0.999999 
-0.000120646 0.00182199 0.999998 
-0.000154218 0.00229269 0.999997 
-0.000195158 0.00288458 0.999996 
-0.000245735 0.00363152 0.999993 
-0.000308393 0.00457226 0.99999 
-0.000385538 0.00575191 0.999983 
-0.000480068 0.00722921 0.999974 
-0.000595644 0.00908018 0.999959 
-0.000736255 0.0113968 0.999935 
-0.000906303 0.0142935 0.999897 
-0.00111097 0.017917 0.999839 
-0.00135583 0.0224487 0.999747 
-0.00164657 0.0281105 0.999604 
-0.00199007 0.0351869 0.999379 
-0.00239453 0.0440371 0.999027 
-0.00286721 0.0550839 0.998478 
-0.00341428 0.0688358 0.997622 
-0.00404292 0.0859585 0.996291 
-0.00475835 0.107269 0.994219 
-0.00555963 0.133713 0.991005 
-0.00643804 0.166392 0.986039 
-0.00737518 0.206598 0.978398 
-0.00833892 0.255783 0.966698 
-0.00927693 0.315484 0.948886 
-0.0101082 0.387061 0.921999 
-0.0107155 0.471198 0.881963 
-0.0109439 0.567173 0.823526 
-0.0106281 0.671761 0.740691 
-0.0095871 0.779009 0.62694 
-0.00766772 0.878558 0.477575 
-0.00486488 0.955887 0.293694 
-0.00142598 0.996359 0.0852479 
0.00220083 0.991441 -0.130533 
0.00552085 0.942458 -0.334279 
0.00814826 0.859643 -0.510829 
0.00989437 0.757539 -0.652715 
0.0107812 0.649931 -0.759917 
0.0109673 0.546652 -0.837288 
0.0106394 0.453118 -0.891387 
0.00996806 0.371637 -0.928325 
0.00910302 0.302629 -0.953065 
0.00815219 0.245186 -0.969442 
0.00718606 0.197887 -0.980198 
0.00625511 0.159297 -0.987211 
0.00539084 0.128014 -0.991758 
0.00460697 0.102722 -0.994699 
0.00390842 0.0823149 -0.996599 
0.00329793 0.0659467 -0.997818 
0.00276581 0.0527567 -0.998604 
0.00230797 0.0421829 -0.999107 
0.00191653 0.0337152 -0.99943 
0.00158337 0.0269283 -0.999636 
0.0013019 0.0214958 -0.999768 
0.00106546 0.0171513 -0.999852 
0.000868149 0.0136805 -0.999906 
0.000704093 0.0109026 -0.99994 
0.00056861 0.0086807 -0.999962 
0.000457138 0.00690267 -0.999976 
0.000365554 0.00547861 -0.999985 
0.000290413 0.0043366 -0.999991 
0.000229052 0.00341979 -0.999994 
0.000179634 0.00268655 -0.999996 
0.000138806 0.00209975 -0.999998 
0.000104025 0.00160953 -0.999999 
7.96062e-05 0.00127013 -0.999999 
5.77674e-05 0.00100551 -1 
4.12188e-05 0.000809754 -1 
2.69951e-05 0.000669101 -1 
1.48733e-05 0.000584054 -1 
2.39658e-06 0.000525745 -1 
-9.79412e-06 0.000507416 -1 
7.40566e-06 0.000519344 1 
-3.26301e-06 0.000537249 1 
-1.67031e-05 0.00059904 1 
-2.85455e-05 0.000681272 1 
-4.49686e-05 0.00083774 1 
-6.39974e-05 0.00105156 1 
-8.34433e-05 0.00129352 0.999999 
-0.000107573 0.0016063 0.999999 
-0.000138228 0.00201995 0.999998 
-0.000176029 0.00254392 0.999997 
-0.000222712 0.00320521 0.999995 
-0.000280588 0.00404115 0.999992 
-0.000351884 0.00509158 0.999987 
-0.000439079 0.00640518 0.999979 
-0.000545433 0.00804882 0.999968 
-0.000674697 0.0101065 0.999949 
-0.000830577 0.0126758 0.999919 
-0.00101734 0.0158825 0.999873 
-0.00123999 0.0198901 0.999801 
-0.00150356 0.0248967 0.999689 
-0.00181307 0.0311418 0.999513 
-0.00217448 0.0389386 0.999239 
-0.00259401 0.0486792 0.998811 
-0.00307639 0.0608128 0.998145 
-0.00362579 0.0758897 0.99711 
-0.00424587 0.0946455 0.995502 
-0.00493458 0.117949 0.993007 
-0.00568234 0.146789 0.989152 
-0.00647184 0.182338 0.983215 
-0.00727531 0.22594 0.974114 
-0.00805152 0.279084 0.960233 
-0.00874037 0.343308 0.939182 
-0.00925759 0.41981 0.907565 
-0.00949708 0.508863 0.860795 
-0.00934055 0.60894 0.793161 
-0.0086897 0.715375 0.698687 
-0.007422 0.820907 0.571013 
-0.00546201 0.91327 0.407319 
-0.00289411 0.977201 0.212294 
1.76061e-05 0.999999 -0.000997262 
0.00291626 0.976879 -0.213773 
0.0054655 0.913062 -0.407785 
0.00743034 0.821041 -0.570821 
0.00871902 0.715486 -0.698572 
0.0093779 0.608864 -0.793219 
0.00952469 0.509219 -0.860585 
0.00927985 0.42048 -0.907255 
0.00875845 0.344062 -0.938906 
0.00806957 0.279854 -0.960009 
0.00729283 0.22662 -0.973956 
0.00648429 0.18288 -0.983114 
0.00569022 0.147266 -0.989081 
0.00494155 0.118414 -0.992952 
0.00425262 0.095069 -0.995462 
0.00363046 0.0762196 -0.997085 
0.00308418 0.0611525 -0.998124 
0.00259945 0.048925 -0.998799 
0.00217898 0.039143 -0.999231 
0.00181644 0.0313039 -0.999508 
0.00150568 0.0250184 -0.999686 
0.00124022 0.0199649 -0.9998 
0.00101736 0.0159447 -0.999872 
0.000829789 0.0127177 -0.999919 
0.000673447 0.0101359 -0.999948 
0.000544045 0.00807129 -0.999967 
0.000437572 0.00642008 -0.999979 
0.000350336 0.00509915 -0.999987 
0.000278692 0.00403781 -0.999992 
0.000220041 0.00318669 -0.999995 
0.000172451 0.00250744 -0.999997 
0.000133284 0.00196186 -0.999998 
0.00010381 0.00156179 -0.999999 
7.9136e-05 0.00123963 -0.999999 
6.01634e-05 0.00101209 -1 
4.47554e-05 0.000839039 -1 
2.96416e-05 0.00069412 -1 
1.6504e-05 0.000599925 -1 
3.83964e-06 0.000539778 -1 
-6.53266e-06 0.000519752 -1 
4.72254e-06 0.000530376 1 
-5.29126e-06 0.0005507 1 
-1.73527e-05 0.000611334 1 
-3.06202e-05 0.00070498 1 
-4.4402e-05 0.000846385 1 
-6.07759e-05 0.00102627 1 
-8.52966e-05 0.00132358 0.999999 
-0.000114774 0.00171652 0.999999 
-0.000149729 0.00219605 0.999998 
-0.000192166 0.00278914 0.999996 
-0.000244211 0.00353071 0.999994 
-0.000308323 0.00446454 0.99999 
-0.000386609 0.00563049 0.999984 
-0.00048182 0.0070831 0.999975 
-0.000597521 0.00889978 0.99996 
-0.000737153 0.0111688 0.999937 
-0.000904282 0.0139934 0.999902 
-0.00110328 0.0175136 0.999846 
-0.00133893 0.0219091 0.999759 
-0.00161592 0.0273943 0.999623 
-0.00193875 0.0342256 0.999412 
-0.00231276 0.042749 0.999083 
-0.00274263 0.0533854 0.99857 
-0.00323179 0.0666069 0.997774 
-0.00378329 0.0830125 0.996541 
-0.00439782 0.103409 0.994629 
-0.00506943 0.128705 0.99167 
-0.00578531 0.15993 0.987111 
-0.00652404 0.19833 0.980114 
-0.0072521 0.24531 0.969418 
-0.00792167 0.302398 0.953149 
-0.0084677 0.371121 0.928546 
-0.00880665 0.452482 0.89173 
-0.00884016 0.546237 0.837584 
-0.00846486 0.649832 0.760031 
-0.00759896 0.756888 0.653501 
-0.0061502 0.858749 0.512359 
-0.00412256 0.941649 0.336572 
-0.00165487 0.99101 0.133777 
0.00099816 0.996734 -0.0807485 
0.00353273 0.957665 -0.287863 
0.00568588 0.88205 -0.471122 
0.0072959 0.783594 -0.621231 
0.00831988 0.676513 -0.736383 
0.00881283 0.571872 -0.820296 
0.00887348 0.476102 -0.879345 
0.00860199 0.391933 -0.919953 
0.00809825 0.320152 -0.947332 
0.00745544 0.260227 -0.965519 
0.00673647 0.210648 -0.977539 
0.00599107 0.169985 -0.985429 
0.00526378 0.136943 -0.990565 
0.00457961 0.110172 -0.993902 
0.00394782 0.088479 -0.99607 
0.00337452 0.0709535 -0.997474 
0.00287923 0.0570481 -0.998367 
0.00242524 0.0455676 -0.998958 
0.00203399 0.0364518 -0.999333 
0.00169834 0.0291898 -0.999573 
0.0014049 0.0232683 -0.999728 
0.00115782 0.0185904 -0.999827 
0.000949895 0.0148504 -0.999889 
0.000773922 0.0118385 -0.99993 
0.00062749 0.00943433 -0.999955 
0.00050665 0.00751668 -0.999972 
0.000407633 0.00598812 -0.999982 
0.000326522 0.00476333 -0.999989 
0.000260123 0.0037819 -0.999993 
0.000205715 0.00299613 -0.999996 
0.000161857 0.00237501 -0.999997 
0.000127583 0.00190059 -0.999998 
0.000100242 0.0015359 -0.999999 
7.8854e-05 0.00125708 -0.999999 
5.82601e-05 0.000996774 -1 
4.02686e-05 0.000803544 -1 
2.68528e-05 0.00068118 -1 
1.4994e-05 0.000601224 -1 
4.8601e-06 0.000550621 -1 
-4.72796e-06 0.000529475 -1 
3.00488e-06 0.000539938 1 
-6.4686e-06 0.000561881 1 
-1.69388e-05 0.000621563 1 
-2.88926e-05 0.000704981 1 
-4.04009e-05 0.00083311 1 
-5.54899e-05 0.001013 1 
-7.40072e-05 0.00121445 0.999999 
-9.59373e-05 0.00151645 0.999999 
-0.000123435 0.00191761 0.999998 
-0.000158461 0.00243171 0.999997 
-0.000202252 0.00307744 0.999995 
-0.000256642 0.00389329 0.999992 
-0.000323507 0.00492515 0.999988 
-0.000404536 0.00620386 0.999981 
-0.000503126 0.00779703 0.99997 
-0.000621998 0.00978577 0.999952 
-0.000764409 0.0122657 0.999925 
-0.000933948 0.0153437 0.999882 
-0.00113479 0.0191728 0.999816 
-0.00137187 0.0239604 0.999712 
-0.00164901 0.0299256 0.999551 
-0.00197081 0.0373468 0.9993 
-0.00234079 0.0466018 0.998911 
-0.00276223 0.0581385 0.998305 
-0.0032396 0.0724475 0.997367 
-0.0037755 0.0901845 0.995918 
-0.00436579 0.112222 0.993674 
-0.00500257 0.139502 0.990209 
-0.00567439 0.173104 0.984887 
-0.00636095 0.214342 0.976738 
-0.00702993 0.264675 0.964312 
-0.00763194 0.325647 0.945461 
-0.00809584 0.398708 0.917042 
-0.00833454 0.484539 0.87473 
-0.00825163 0.582169 0.813026 
-0.00775755 0.68777 0.725887 
-0.00679026 0.793387 0.60868 
-0.00524956 0.889622 0.456668 
-0.00318404 0.962347 0.271806 
-0.000760779 0.997968 0.0637075 
0.00175344 0.9886 -0.150552 
0.00406635 0.93613 -0.351632 
0.0059479 0.851174 -0.524849 
0.00727753 0.748176 -0.66346 
0.00805217 0.640777 -0.767685 
0.0083548 0.53867 -0.842476 
0.00828532 0.44678 -0.894606 
0.00793321 0.366889 -0.930231 
0.00739898 0.299308 -0.954128 
0.00677173 0.243176 -0.969959 
0.00608848 0.196753 -0.980434 
0.0053922 0.158725 -0.987308 
0.00472988 0.127905 -0.991775 
0.0041135 0.102909 -0.994682 
0.00354031 0.082588 -0.996578 
0.00301477 0.066138 -0.997806 
0.00259632 0.0533356 -0.998573 
0.0021639 0.0422393 -0.999105 
0.00181954 0.0339517 -0.999422 
0.00151151 0.0269536 -0.999636 
0.00124863 0.0215313 -0.999767 
0.00102702 0.0171879 -0.999852 
0.00084338 0.0137339 -0.999905 
0.000684383 0.0109206 -0.99994 
0.000553776 0.00869769 -0.999962 
0.000447646 0.00694548 -0.999976 
0.000360588 0.00553531 -0.999985 
0.000290169 0.00441685 -0.99999 
0.000232155 0.00351877 -0.999994 
0.000183958 0.00279925 -0.999996 
0.000144974 0.00223274 -0.999998 
0.000112388 0.00177597 -0.999998 
8.42454e-05 0.00139978 -0.999999 
6.54239e-05 0.00111328 -0.999999 
4.86099e-05 0.000914228 -1 
3.3324e-05 0.000759931 -1 
2.09826e-05 0.000652277 -1 
6.34908e-06 0.000565031 -1 
-4.2488e-06 0.000539327 -1 
2.0546e-06 0.000548209 1 
-6.64616e-06 0.00057192 1 
-1.54056e-05 0.000633259 1 
-2.70319e-05 0.000719158 1 
-3.88344e-05 0.000875683 1 
-5.18554e-05 0.00108124 0.999999 
-7.20171e-05 0.00128737 0.999999 
-9.28089e-05 0.00163562 0.999999 
-0.000119492 0.0020879 0.999998 
-0.000153384 0.0026561 0.999997 
-0.000196307 0.00336652 0.999994 
-0.00024953 0.00426996 0.999991 
-0.000312997 0.00540115 0.999985 
-0.000390268 0.00679016 0.999977 
-0.000483332 0.00851259 0.999964 
-0.000594949 0.0106692 0.999943 
-0.000727512 0.0133542 0.999911 
-0.000884087 0.0166623 0.999861 
-0.0010709 0.0208037 0.999783 
-0.00128905 0.0259785 0.999662 
-0.00154278 0.0324157 0.999473 
-0.00183541 0.0404153 0.999181 
-0.00216737 0.0503906 0.998727 
-0.00254042 0.0627894 0.998024 
-0.00296143 0.0781324 0.996939 
-0.0034291 0.097148 0.995264 
-0.00393203 0.120759 0.992674 
-0.00446233 0.149883 0.988694 
-0.00501321 0.185619 0.982609 
-0.0055687 0.229303 0.973339 
-0.00610282 0.282317 0.959302 
-0.00657061 0.346057 0.93819 
-0.00690355 0.421755 0.906684 
-0.00702528 0.509599 0.860383 
-0.00686186 0.608216 0.793742 
-0.00636149 0.713538 0.700588 
-0.00546745 0.817633 0.575713 
-0.00404892 0.910232 0.414079 
-0.00218849 0.975612 0.219491 
-6.82973e-05 0.999989 0.00459478 
0.00205444 0.977532 -0.210774 
0.00393362 0.913454 -0.406923 
0.0053951 0.820794 -0.571199 
0.00636056 0.714589 -0.699516 
0.00686961 0.607848 -0.794023 
0.00702426 0.508677 -0.860929 
0.00689499 0.420523 -0.907256 
0.00654499 0.344541 -0.938749 
0.00607777 0.280781 -0.959753 
0.00556433 0.228014 -0.973642 
0.00499569 0.184221 -0.982872 
0.00441769 0.148437 -0.988912 
0.00388794 0.119609 -0.992814 
0.00339003 0.0960685 -0.995369 
0.00290779 0.0767117 -0.997049 
0.00244984 0.0609891 -0.998135 
0.00217353 0.0492527 -0.998784 
0.00176522 0.0391118 -0.999233 
0.00149065 0.0308128 -0.999524 
0.0012297 0.0246043 -0.999697 
0.00101281 0.0196139 -0.999807 
0.000830906 0.0156482 -0.999877 
0.000686478 0.012505 -0.999922 
0.000549166 0.00985035 -0.999951 
0.000443073 0.00787083 -0.999969 
0.00035811 0.00626722 -0.99998 
0.000289099 0.00500731 -0.999987 
0.000235449 0.00402954 -0.999992 
0.00019244 0.00327402 -0.999995 
0.00015422 0.00264855 -0.999997 
0.000121913 0.0021263 -0.999998 
9.36927e-05 0.00169048 -0.999999 
6.95803e-05 0.00134144 -0.999999 
5.84983e-05 0.00109852 -0.999999 
4.03951e-05 0.000882407 -1 
2.56591e-05 0.000729236 -1 
1.40011e-05 0.000618589 -1 
4.69596e-06 0.00057278 -1 
-4.02534e-06 0.000548634 -1 
1.5407e-06 0.000555104 1 
-5.97268e-06 0.000580778 1 
-1.2882e-05 0.000644273 1 
-2.39546e-05 0.000738765 1 
-3.24232e-05 0.000889301 1 
-4.15036e-05 0.00108719 0.999999 