# vtk DataFile Version 3.0 
Exported using Morpho https://github.com/Morpho-lang/morpho 
ASCII 
DATASET UNSTRUCTURED_GRID 

POINTS 1978 float 
-8.48009 -2.82198 5.52651e-06 
-8.11213 -2.82375 -0.000120378 
-7.75707 -2.82557 -6.47719e-05 
-7.51324 -2.8257 -4.34071e-05 
-7.24201 -2.82533 -0.000111499 
-7.04278 -2.82593 9.85946e-06 
-6.90401 -2.82597 -1.77177e-05 
-6.70915 -2.82352 -1.3687e-05 
-6.51873 -2.82414 1.24797e-05 
-6.32649 -2.82242 7.81525e-05 
-6.11143 -2.82375 5.30929e-05 
-5.892 -2.82381 5.51148e-05 
-5.71429 -2.82413 5.7298e-05 
-5.52674 -2.82626 5.62349e-05 
-5.33156 -2.82408 4.57656e-05 
-5.12364 -2.825 6.10906e-05 
-4.91649 -2.82531 7.50636e-05 
-4.68018 -2.82598 7.90462e-05 
-4.48888 -2.82526 9.34682e-05 
-4.28535 -2.82621 0.000114976 
-4.0692 -2.82423 0.000150798 
-3.85826 -2.82418 0.000176581 
-3.58675 -2.82478 0.000198448 
-3.36425 -2.82455 0.000257294 
-3.12715 -2.82373 0.000356237 
-2.82783 -2.82419 0.000478767 
-2.59055 -2.82523 0.000421254 
-2.40546 -2.82676 0.000542146 
-2.23783 -2.82545 0.000685251 
-2.01648 -2.82524 0.000943277 
-1.75934 -2.8257 0.00119856 
-1.53854 -2.82776 0.000900199 
-1.39993 -2.8262 0.000856101 
-1.26795 -2.82562 0.00085758 
-1.1765 -2.82759 0.000543087 
-0.967045 -2.82576 0.000712009 
-0.775488 -2.82342 -0.000201338 
-0.443641 -2.83328 -0.000135726 
-0.172581 -2.8268 0.000119284 
0.0284902 -2.83152 -6.80176e-05 
0.193102 -2.82843 -3.1932e-05 
0.361076 -2.82778 -0.000430684 
0.767558 -2.82941 0.00034533 
0.950344 -2.82781 -0.000748732 
1.1486 -2.82511 -0.00100344 
1.35231 -2.82549 -0.00108592 
1.50062 -2.82771 -0.00115464 
1.65881 -2.82667 -0.000856156 
1.82731 -2.8298 -0.000878706 
1.99562 -2.82521 -0.000894378 
2.19915 -2.82576 -0.000875716 
2.42118 -2.82236 -0.000617072 
2.67845 -2.82445 -0.000490817 
2.91044 -2.82501 -0.000409557 
3.15582 -2.82368 -0.000321559 
3.39723 -2.82452 -0.000280857 
3.65544 -2.82422 -0.000229421 
3.89552 -2.82416 -0.000182503 
4.11138 -2.82607 -0.000127545 
4.31899 -2.82543 -0.000106929 
4.51226 -2.82618 -7.62605e-05 
4.7156 -2.8248 -6.57177e-05 
4.92477 -2.82519 -6.21029e-05 
5.1245 -2.82532 -5.09011e-05 
5.33015 -2.82534 -4.85849e-05 
5.53624 -2.825 -6.94417e-05 
5.73537 -2.82526 -6.50604e-05 
5.93648 -2.82455 -8.24631e-05 
6.14571 -2.8243 -6.6383e-05 
6.38426 -2.82381 -5.86117e-05 
6.61989 -2.82376 -3.66624e-05 
6.86052 -2.82434 4.64312e-05 
7.06648 -2.82542 2.63124e-05 
7.281 -2.82538 2.03766e-05 
7.51679 -2.82597 3.0761e-05 
7.74883 -2.82511 6.18724e-05 
7.9975 -2.82465 8.72127e-05 
8.23983 -2.82436 0.000105724 
8.48081 -2.82479 -3.0898e-05 
-8.48262 -2.53397 0.000226878 
-8.27341 -2.66472 -2.84955e-05 
-8.10065 -2.6138 -5.56411e-05 
-7.91902 -2.58969 -6.6647e-05 
-7.59513 -2.64235 -4.41251e-05 
-7.18071 -2.58123 3.45737e-05 
-7.02843 -2.47327 -5.84848e-05 
-6.85286 -2.57415 -5.46332e-06 
-6.64591 -2.56225 -8.15271e-05 
-6.38599 -2.61225 -5.27296e-07 
-6.14005 -2.58868 8.2002e-06 
-5.95463 -2.55399 -9.84187e-06 
-5.70429 -2.63922 5.40051e-06 
-5.45141 -2.58309 -1.48758e-05 
-5.24168 -2.60989 1.21393e-05 
-5.02895 -2.61593 -2.1573e-05 
-4.79578 -2.64415 -8.39182e-06 
-4.57295 -2.59274 -2.70417e-05 
-4.35593 -2.59428 -2.72277e-05 
-4.14194 -2.58848 -4.12335e-05 
-3.91262 -2.56925 -8.36188e-06 
-3.67432 -2.61653 1.25362e-05 
-3.41037 -2.56476 -2.60312e-05 
-3.17712 -2.58497 -7.60887e-05 
-2.9256 -2.63587 6.80309e-05 
-2.65131 -2.61806 3.00746e-05 
-2.42118 -2.59104 -9.42373e-05 
-2.23959 -2.57447 -0.000141125 
-2.0759 -2.65047 0.000188216 
-1.85324 -2.68518 0.0001064 
-1.61846 -2.68179 -3.26032e-05 
-1.45476 -2.61807 0.000333456 
-1.32024 -2.63428 -4.3972e-05 
-1.21054 -2.5909 2.32272e-05 
-1.09817 -2.7387 -0.000615571 
-1.00618 -2.70133 0.000237582 
-0.740243 -2.78161 0.000124913 
-0.414686 -2.78942 0.000157416 
-0.175495 -2.77752 0.000347604 
0.0546879 -2.77523 -0.000336317 
0.271189 -2.75243 -8.82383e-05 
0.442635 -2.74753 0.000299 
0.597769 -2.78756 0.000411185 
0.880288 -2.74812 -0.000480623 
1.17227 -2.70991 0.000541465 
1.2417 -2.62946 -0.000312353 
1.37141 -2.64631 -0.000145513 
1.52409 -2.64282 2.16772e-05 
1.69846 -2.64687 0.00017034 
1.90228 -2.65316 1.92834e-05 
2.11697 -2.65075 -2.08372e-05 
2.34526 -2.63748 -0.000146538 
2.53634 -2.59888 7.37354e-05 
2.76889 -2.59887 0.000110505 
2.9954 -2.58055 1.07787e-05 
3.25691 -2.5939 6.63128e-05 
3.50122 -2.58397 7.97942e-06 
3.73402 -2.57976 2.19261e-05 
3.97484 -2.59535 7.16635e-06 
4.19905 -2.59537 4.07319e-05 
4.4363 -2.61585 1.83769e-05 
4.6728 -2.62093 -1.18682e-05 
4.8922 -2.61179 -2.20782e-05 
5.11153 -2.61523 8.67009e-06 
5.33498 -2.61444 2.03605e-05 
5.55282 -2.60398 1.26455e-05 
5.76974 -2.60599 1.26821e-05 
5.98867 -2.60487 2.26787e-05 
6.22604 -2.62706 9.32756e-06 
6.46934 -2.6193 -3.65425e-06 
6.7121 -2.6144 4.36227e-05 
6.93438 -2.57584 3.54818e-05 
7.15297 -2.58621 -3.75176e-05 
7.38508 -2.61097 5.47714e-06 
7.61954 -2.60849 -1.81524e-05 
7.86394 -2.61833 -7.10199e-06 
8.10165 -2.58582 -5.42159e-06 
8.30388 -2.60427 1.2787e-05 
8.4812 -2.53666 -0.000153687 
-8.4806 -2.28023 6.93513e-05 
-8.30782 -2.342 7.59184e-05 
-8.13383 -2.31928 2.36429e-05 
-7.83385 -2.44828 8.42211e-05 
-7.55887 -2.41838 -3.74994e-05 
-7.38675 -2.59864 8.39667e-05 
-7.26159 -2.32379 -2.41754e-06 
-6.9833 -2.2722 -2.22145e-05 
-6.74478 -2.3426 4.30696e-06 
-6.46991 -2.40096 3.89654e-05 
-6.25226 -2.38341 -5.66897e-05 
-6.05618 -2.31107 7.46164e-06 
-5.80928 -2.41526 -5.80152e-06 
-5.60188 -2.42927 -1.09836e-07 
-5.35632 -2.37963 9.71018e-06 
-5.16187 -2.39645 -1.03777e-05 
-4.94506 -2.43054 1.74003e-05 
-4.74297 -2.42316 1.17178e-05 
-4.49685 -2.382 1.50136e-05 
-4.28089 -2.34998 1.11624e-05 
-4.06859 -2.34935 2.04397e-05 
-3.8067 -2.35881 -3.9532e-05 
-3.57287 -2.37424 -1.69865e-05 
-3.3041 -2.33107 -3.7231e-06 
-3.06901 -2.37942 8.05327e-05 
-2.83451 -2.43126 -4.41211e-05 
-2.58283 -2.41423 0.000180328 
-2.39771 -2.3431 -1.94487e-05 
-2.20589 -2.36379 0.000220357 
-2.01719 -2.50133 6.12037e-05 
-1.79318 -2.5443 0.000221888 
-1.62907 -2.50303 0.000201025 
-1.50109 -2.42736 0.000407631 
-1.36462 -2.4478 -3.52446e-05 
-1.11082 -2.55199 -0.00049821 
-0.92191 -2.66075 0.000197024 
-0.698438 -2.73945 0.000288968 
-0.453371 -2.73906 -9.57065e-05 
-0.252155 -2.726 -0.000177098 
0.00305115 -2.72784 0.00032112 
0.273908 -2.70971 -0.000244514 
0.560422 -2.67019 -0.00107542 
0.692744 -2.71516 0.000839314 
0.90077 -2.64957 0.000420274 
1.08808 -2.62384 0.000603147 
1.23985 -2.49055 5.77174e-05 
1.39721 -2.46525 0.000306277 
1.54627 -2.46089 2.75797e-05 
1.70865 -2.46511 -0.000382558 
1.87571 -2.48614 -3.27561e-05 
2.07559 -2.47521 -0.000335132 
2.294 -2.4561 -0.000238684 
2.51841 -2.35049 -6.66825e-05 
2.71837 -2.3704 -5.68028e-05 
3.00537 -2.38099 1.57325e-05 
3.28447 -2.37317 -5.8903e-05 
3.53846 -2.34607 5.61249e-05 
3.77928 -2.34656 5.29106e-05 
4.00963 -2.38181 -7.59097e-06 
4.24717 -2.38309 -7.15955e-06 
4.47214 -2.4179 -1.5663e-05 
4.69322 -2.40416 1.23675e-05 
4.90934 -2.40096 9.11967e-06 
5.12619 -2.40243 1.0071e-05 
5.33955 -2.40489 -6.57776e-06 
5.55721 -2.3897 -8.57811e-06 
5.77668 -2.38926 -2.39865e-05 
5.98952 -2.39177 -1.31089e-05 
6.21366 -2.42418 8.38811e-06 
6.4258 -2.39855 -7.46374e-06 
6.65171 -2.404 3.53456e-05 
6.8784 -2.354 1.34285e-05 
7.11891 -2.353 1.38053e-05 
7.35034 -2.39015 7.02589e-05 
7.57814 -2.38351 -5.26542e-05 
7.80684 -2.4054 -3.78299e-05 
8.02002 -2.36203 5.23357e-05 
8.23106 -2.33038 -3.1625e-05 
8.48191 -2.33278 -6.15447e-05 
-8.4817 -2.0151 0.000110408 
-8.298 -2.02976 -3.05646e-05 
-8.1248 -2.01151 -6.58527e-05 
-7.96412 -2.22222 2.06991e-05 
-7.74262 -2.23819 -2.05464e-05 
-7.42337 -2.24294 -1.34221e-05 
-7.0899 -2.09093 3.13114e-05 
-6.78752 -2.10021 1.05987e-05 
-6.55277 -2.19471 -3.51718e-05 
-6.3247 -2.12982 2.66562e-05 
-6.13128 -2.09003 -4.16688e-06 
-5.87973 -2.20144 3.95942e-06 
-5.66326 -2.1938 -1.37106e-05 
-5.46606 -2.21565 -4.3759e-05 
-5.2406 -2.1518 -1.29403e-06 
-5.03845 -2.20414 -1.04005e-05 
-4.84797 -2.19117 -4.26672e-06 
-4.63252 -2.21507 -2.16639e-05 
-4.40032 -2.14186 3.41188e-06 
-4.18405 -2.10161 -2.67954e-05 
-3.94449 -2.15131 -5.44614e-06 
-3.70705 -2.12252 -7.24983e-06 
-3.47209 -2.15047 1.41972e-05 
-3.22816 -2.10376 1.61456e-05 
-2.99824 -2.16597 -9.32458e-06 
-2.76247 -2.23783 7.98326e-05 
-2.57231 -2.16791 -6.54097e-05 
-2.35664 -2.15172 0.00025157 
-2.13234 -2.22123 -0.000241194 
-1.94563 -2.36515 0.000191474 
-1.78819 -2.35069 0.000297159 
-1.65578 -2.30439 -0.000108545 
-1.52245 -2.26089 -0.000275811 
-1.30683 -2.38979 0.000158697 
-1.08451 -2.47652 -0.00020844 
-0.894626 -2.59158 0.000348452 
-0.709936 -2.67012 0.000147595 
-0.496108 -2.68763 -0.000124594 
-0.265699 -2.66841 -0.000165415 
-0.0446537 -2.6848 0.000228795 
0.248578 -2.66792 0.000576665 
0.570083 -2.60626 0.000764377 
0.717645 -2.62519 -7.85432e-05 
0.853419 -2.55619 0.000656775 
1.04176 -2.53311 0.000165859 
1.2672 -2.39454 0.00141242 
1.51107 -2.31387 0.000163866 
1.67709 -2.28977 1.83228e-06 
1.83802 -2.29116 1.20137e-05 
2.01102 -2.31238 -0.000324276 
2.1993 -2.24479 -0.000295379 
2.34285 -2.26718 -5.88919e-05 
2.60469 -2.11389 -5.34442e-05 
2.82547 -2.19007 -0.000124845 
3.06075 -2.14254 1.01428e-05 
3.28017 -2.17392 -4.78958e-05 
3.54446 -2.12077 -5.4111e-05 
3.78141 -2.11544 2.49363e-05 
4.01352 -2.16504 -5.40403e-06 
4.24928 -2.16277 1.04701e-05 
4.47913 -2.19484 -1.81388e-06 
4.68499 -2.16814 2.5229e-05 
4.88728 -2.18437 5.0406e-06 
5.09863 -2.18336 -1.41694e-05 
5.30849 -2.18574 4.06988e-06 
5.52894 -2.17837 3.66957e-05 
5.73321 -2.16627 2.56938e-05 
5.95734 -2.17662 4.27699e-05 
6.17229 -2.19619 -3.47536e-06 
6.38757 -2.17406 1.09433e-05 
6.63 -2.19119 1.65678e-05 
6.8682 -2.12466 -1.1612e-05 
7.091 -2.13991 -1.84642e-06 
7.33804 -2.16519 2.42072e-05 
7.58893 -2.17881 -1.82118e-05 
7.84016 -2.18339 -5.29658e-06 
8.08148 -2.11325 4.95435e-05 
8.29866 -2.07092 1.72237e-05 
8.48218 -2.12935 -0.000107712 
-8.48109 -1.79971 8.17184e-05 
-8.26022 -1.74646 -1.1647e-05 
-7.90022 -2.00451 2.92381e-05 
-7.66252 -1.99484 3.74424e-05 
[...]
POINT_DATA 1978 
VECTORS vectors float
0.0793328 -0.102865 0.991574 
0.0822181 -0.0577627 0.994973 
0.0858745 -0.0172986 0.996333 
0.0895436 0.00869882 0.996277 
0.0917537 0.0334047 0.995599 
0.0916389 0.0441556 0.995036 
0.0897425 0.0517431 0.994859 
0.0973362 0.0663064 0.993248 
0.104077 0.0566507 0.993003 
0.104012 0.0438659 0.993885 
0.103357 0.034637 0.994066 
0.100119 0.0283719 0.994743 
0.0977252 0.0263628 0.995161 
0.0969883 0.0293762 0.994914 
0.0946071 0.0337277 0.995116 
0.0944153 0.037527 0.994986 
0.0931296 0.0444103 0.99482 
0.091803 0.052693 0.994555 
0.0902043 0.0613887 0.994244 
0.0901583 0.0719263 0.993551 
0.0889199 0.0838143 0.992769 
0.0863408 0.0958657 0.991916 
0.083127 0.112869 0.990432 
0.0815299 0.129102 0.988606 
0.078595 0.150742 0.985761 
0.0737994 0.18136 0.980949 
0.0675051 0.209397 0.975812 
0.0637592 0.229687 0.971491 
0.0560153 0.250646 0.966734 
0.0490405 0.29155 0.955552 
0.0384466 0.341487 0.939321 
0.0267597 0.393744 0.919042 
0.0182066 0.434488 0.900698 
0.0104201 0.479092 0.877824 
-0.000941748 0.514769 0.857433 
-0.0129642 0.612349 0.790289 
-0.0169769 0.708265 0.705963 
-0.0220895 0.888056 0.458926 
-0.0126436 0.98318 0.182642 
-0.00361192 0.999425 -0.036558 
0.00112793 0.970707 -0.240871 
0.0170632 0.919666 -0.393057 
0.029083 0.712885 -0.701695 
0.0194855 0.615925 -0.787085 
0.00418161 0.510124 -0.860059 
-0.0134369 0.431152 -0.902341 
-0.0252812 0.391531 -0.920065 
-0.02623 0.357523 -0.933619 
-0.0422101 0.31617 -0.947942 
-0.051482 0.287511 -0.956642 
-0.0641745 0.258501 -0.964095 
-0.0661799 0.242313 -0.968224 
-0.0658766 0.204635 -0.976935 
-0.0705809 0.170652 -0.983119 
-0.0774422 0.143501 -0.986957 
-0.0828518 0.123327 -0.989228 
-0.0861151 0.105899 -0.990946 
-0.0887889 0.0920883 -0.992068 
-0.0903086 0.081439 -0.992825 
-0.0909286 0.0729977 -0.993401 
-0.091277 0.0654241 -0.993872 
-0.0908924 0.0558767 -0.994474 
-0.0925295 0.0459149 -0.994825 
-0.0929049 0.0394138 -0.995065 
-0.0943206 0.0343529 -0.995113 
-0.0951461 0.0291932 -0.995199 
-0.0979552 0.0280084 -0.994945 
-0.101851 0.0304803 -0.994464 
-0.104318 0.0375428 -0.99394 
-0.105711 0.049571 -0.993259 
-0.10374 0.0657693 -0.992559 
-0.0948551 0.0693775 -0.993269 
-0.0897699 0.0527784 -0.994781 
-0.089858 0.0328424 -0.99564 
-0.0871441 0.00924535 -0.996408 
-0.0858711 -0.016277 -0.996357 
-0.0882106 -0.0442052 -0.995467 
-0.0856366 -0.0718151 -0.993811 
-0.0808774 -0.104888 -0.99123 
0.0441866 -0.110091 0.992969 
0.0652604 -0.0775274 0.995912 
0.0620186 -0.0553232 0.997453 
0.0595617 -0.033803 0.998351 
0.0720327 -0.00286788 0.998077 
0.0650706 0.0302116 0.998096 
0.0544551 0.0377699 0.998716 
0.0668835 0.0472451 0.997319 
0.0667864 0.0526043 0.997192 
0.0764709 0.0438324 0.996857 
0.0733839 0.0372296 0.997431 
0.0644908 0.0343861 0.998035 
0.0741014 0.0303843 0.997355 
0.0640053 0.0333517 0.998204 
0.0670942 0.0357931 0.997792 
0.06434 0.04064 0.997793 
0.0670128 0.0481838 0.997295 
0.0565843 0.0574922 0.997488 
0.0552195 0.0684992 0.996915 
0.0525079 0.0803129 0.996226 
0.0482878 0.0935383 0.995345 
0.0532742 0.107839 0.993688 
0.0377429 0.128154 0.992022 
0.0347909 0.14999 0.989052 
0.0394938 0.174913 0.984756 
0.0209754 0.20676 0.979073 
-0.00237471 0.239859 0.971619 
-0.0196053 0.267282 0.964191 
-0.00420617 0.28941 0.957871 
-0.0059928 0.328143 0.945243 
-0.0269786 0.377948 0.925991 
-0.0637953 0.430872 0.90056 
-0.0739967 0.472859 0.878423 
-0.103536 0.514517 0.851527 
-0.0445 0.552598 0.83279 
-0.0556937 0.603156 0.795808 
-0.0282297 0.73005 0.683063 
-0.0271293 0.89906 0.436966 
-0.0165286 0.982852 0.183534 
-0.00375072 0.997564 -0.0703264 
0.00938971 0.949969 -0.312589 
0.0311394 0.8884 -0.458074 
0.0350429 0.810509 -0.583587 
0.0502026 0.647223 -0.761008 
0.0559234 0.499706 -0.86489 
0.091041 0.47227 -0.877428 
0.0705096 0.432784 -0.899278 
0.0605929 0.39751 -0.916058 
0.0437017 0.357767 -0.933458 
0.0216233 0.316702 -0.948691 
-0.00083514 0.279702 -0.9609 
-0.0128226 0.249218 -0.969246 
-0.00979134 0.226575 -0.97486 
-0.0187557 0.195652 -0.981322 
-0.0260256 0.166955 -0.986772 
-0.0386934 0.140478 -0.990301 
-0.0445097 0.121678 -0.992514 
-0.0470795 0.105079 -0.994232 
-0.0531 0.0894118 -0.995268 
-0.0547168 0.078381 -0.996318 
-0.0604608 0.0677714 -0.99649 
-0.0630551 0.0567687 -0.997244 
-0.0625254 0.0470869 -0.997647 
-0.0639031 0.0401609 -0.997855 
-0.0658423 0.0349303 -0.997921 
-0.0661351 0.0321422 -0.997988 
-0.0698279 0.0324832 -0.997708 
-0.0743174 0.0362005 -0.99726 
-0.0799607 0.0421233 -0.99648 
-0.0791198 0.0507348 -0.996373 
-0.0758274 0.0572495 -0.996224 
-0.0666176 0.0518575 -0.997254 
-0.0637769 0.0377264 -0.998093 
-0.0635366 0.0183099 -0.998506 
-0.0626277 -0.00266079 -0.998986 
-0.0636762 -0.0289452 -0.998259 
-0.0612812 -0.0568572 -0.997352 
-0.0609624 -0.0802963 -0.995743 
-0.0507155 -0.110047 -0.99282 
0.031091 -0.113464 0.993368 
0.037672 -0.0864966 0.996441 
0.0384852 -0.0641343 0.997998 
0.0481317 -0.0287469 0.999386 
0.0517371 -0.00411096 0.999204 
0.0613271 0.0110168 0.999102 
0.0452382 0.0198419 0.999577 
0.0417698 0.0358836 0.99917 
0.0491751 0.0433948 0.99873 
0.056053 0.0435704 0.998072 
0.0509015 0.0403464 0.998473 
0.0446293 0.0395719 0.998908 
0.0488794 0.0362502 0.998804 
0.0496201 0.0346421 0.998828 
0.0403954 0.0351893 0.999218 
0.0383644 0.037589 0.999217 
0.0412708 0.0424004 0.998932 
0.0391502 0.0503692 0.998678 
0.0320554 0.0620249 0.99831 
0.0256601 0.0739864 0.997721 
0.023214 0.0872379 0.996758 
0.0181912 0.104422 0.995257 
0.0153033 0.120262 0.993558 
0.00188304 0.146091 0.990202 
-0.00138107 0.169759 0.986437 
-0.00785218 0.195353 0.981605 
-0.0298704 0.229522 0.973673 
-0.0711501 0.265161 0.962331 
-0.0911761 0.296302 0.951411 
-0.0622158 0.310106 0.949343 
-0.0660142 0.346605 0.93627 
-0.103482 0.390435 0.915313 
-0.155324 0.436363 0.88676 
-0.162862 0.472404 0.866476 
-0.130806 0.557973 0.819872 
-0.0699659 0.643324 0.762498 
-0.0391676 0.753217 0.656623 
-0.032194 0.877332 0.478866 
-0.0203994 0.96387 0.265546 
-0.00656125 0.999599 -0.0137629 
0.0132951 0.948584 -0.316215 
0.0527696 0.829277 -0.553143 
0.0552054 0.754236 -0.654016 
0.0822814 0.627221 -0.774593 
0.102373 0.545113 -0.832083 
0.166314 0.495101 -0.853062 
0.166326 0.446216 -0.879641 
0.150234 0.409181 -0.900485 
0.122221 0.371844 -0.920718 
0.0897414 0.332552 -0.939589 
0.0654621 0.298959 -0.952708 
0.0469484 0.26821 -0.962946 
0.0499512 0.245503 -0.968839 
0.0283143 0.211463 -0.978067 
0.00670743 0.176009 -0.985313 
-0.00862945 0.146649 -0.990084 
-0.0116474 0.126186 -0.992709 
-0.0163994 0.108218 -0.994998 
-0.0257961 0.0911456 -0.996324 
-0.0291869 0.0770282 -0.997394 
-0.036154 0.0656014 -0.997948 
-0.0360427 0.0555511 -0.998535 
-0.0366956 0.0468279 -0.998827 
-0.0384347 0.0399789 -0.999154 
-0.0407857 0.0353651 -0.999225 
-0.0415205 0.0341938 -0.999222 
-0.0466489 0.0365196 -0.998893 
-0.0501404 0.0394629 -0.998626 
-0.0556352 0.0416194 -0.998373 
-0.0547302 0.0455894 -0.998031 
-0.0538381 0.0496698 -0.998144 
-0.0486957 0.0463916 -0.998513 
-0.0460691 0.0343457 -0.999155 
-0.047029 0.017989 -0.999524 
-0.0472586 -0.00214493 -0.999658 
-0.0457443 -0.0264404 -0.999556 
-0.0445163 -0.0461746 -0.998621 
-0.0384483 -0.0729366 -0.997593 
-0.0347036 -0.110641 -0.993322 
0.0212717 -0.118651 0.992865 
0.0214757 -0.0816657 0.997131 
0.0225897 -0.0656451 0.998518 
0.0340859 -0.0488502 0.999043 
0.0340075 -0.0212591 1.00003 
0.0345826 0.00536142 1.0002 
0.0296593 0.0272919 1.00019 
0.0305521 0.0378367 0.999636 
0.0338293 0.0411862 0.999352 
0.0296406 0.0403146 0.999621 
0.0239614 0.0421325 0.99955 
0.0321151 0.0406925 0.999334 
0.0269856 0.0381206 0.99957 
0.0242132 0.0357321 0.999728 
0.0175947 0.0355818 0.999895 
0.0201842 0.0399359 0.999701 
0.0170774 0.0470196 0.999477 
0.0181682 0.0563467 0.998986 
0.00789274 0.0694734 0.998334 
-0.000550295 0.0842152 0.997278 
-0.000200191 0.0990323 0.995949 
-0.00852485 0.118409 0.993827 
-0.0130886 0.138329 0.99121 
-0.0324341 0.169832 0.985847 
-0.0388312 0.195233 0.980902 
-0.0505937 0.22352 0.974246 
-0.0905513 0.261336 0.961787 
-0.133792 0.301971 0.94461 
-0.156047 0.335276 0.929694 
-0.123219 0.344557 0.931216 
-0.157211 0.382263 0.91107 
-0.204799 0.420323 0.88429 
-0.252494 0.461839 0.850476 
-0.202435 0.497882 0.843554 
-0.165049 0.570137 0.804995 
-0.100644 0.651626 0.751908 
-0.0595941 0.741163 0.668745 
-0.0391369 0.852776 0.521084 
-0.0198908 0.959334 0.281533 
-0.00715356 0.99903 0.0417337 
0.0124094 0.957762 -0.289444 
0.0616145 0.826227 -0.55811 
0.0764805 0.747744 -0.663043 
0.116789 0.655421 -0.746428 
0.138607 0.562529 -0.815353 
0.211706 0.490793 -0.845265 
0.230081 0.424348 -0.876285 
0.219356 0.397105 -0.891604 
0.18986 0.368242 -0.910616 
0.149075 0.336443 -0.93043 
0.134991 0.314157 -0.940219 
0.102187 0.284996 -0.953769 
0.100742 0.258871 -0.961606 
0.0509545 0.213823 -0.976438 
0.0370046 0.186407 -0.982547 
0.0169806 0.156235 -0.988489 
0.0114185 0.133743 -0.991988 
0.0071536 0.11622 -0.993946 
-0.00298432 0.0963354 -0.996312 
-0.00672219 0.0808094 -0.997402 
-0.0143316 0.0667314 -0.998583 
-0.0139916 0.0563185 -0.998958 
-0.0170525 0.0473452 -0.999575 
-0.0189095 0.0403883 -0.999713 
-0.0203827 0.0354427 -0.999862 
-0.0210835 0.0350517 -0.999834 
-0.0244687 0.0391719 -0.999597 
-0.028647 0.0425502 -0.999374 
-0.0351068 0.0422831 -0.999204 
-0.0358588 0.0425129 -0.999167 
-0.0373796 0.0449618 -0.998925 
-0.0319701 0.0421246 -0.999396 
-0.0320092 0.0328002 -0.999779 
-0.0310923 0.0161037 -1.00016 
-0.0318941 -0.00363312 -1.00028 
-0.0309941 -0.0315243 -0.999729 
-0.0252727 -0.0547744 -0.998968 
-0.0227137 -0.0845561 -0.997133 
-0.0233298 -0.112271 -0.993571 
0.00735471 -0.114868 0.99351 
0.00678248 -0.083185 0.997271 
0.0177137 -0.0392987 0.999712 
0.0233195 -0.021285 1.00049 
0.0111974 -0.000782816 1.00054 
0.0313327 -0.0016363 1.00029 
0.0177108 0.0138017 1.00053 
0.0160958 0.0300506 1.00024 
0.0156251 0.0372349 0.999927 
0.0190173 0.0413497 0.999648 
0.0100552 0.0435539 0.999564 
0.0105314 0.0452899 0.999683 
0.00975889 0.0426356 0.99966 
0.00644751 0.0382277 0.999867 
0.00577864 0.034439 1.00003 
-3.55021e-05 0.0371408 0.999986 
-0.000971316 0.0428892 0.999778 
-0.000455593 0.052094 0.999347 
-0.00352466 0.0628831 0.998744 
-0.015869 0.0797494 0.997464 
-0.0193942 0.0998896 0.995601 
-0.0258902 0.11907 0.993354 
-0.0335835 0.141409 0.990202 
-0.0489946 0.169141 0.985203 
-0.0677051 0.203877 0.977486 
-0.0788698 0.229385 0.97095 
-0.103884 0.260953 0.960461 
-0.149886 0.306094 0.940743 
-0.194684 0.343055 0.919515 
-0.227532 0.373475 0.899772 
-0.213084 0.383544 0.899058 
-0.262736 0.41662 0.870627 
-0.299765 0.445492 0.844008 
-0.251654 0.51241 0.821377 
-0.205525 0.567491 0.797568 
-0.130171 0.651987 0.747139 
-0.0795721 0.756926 0.648781 
-0.0464928 0.859349 0.509572 
-0.0200441 0.960578 0.27682 
-0.00468698 0.998936 0.0445976 
0.0102228 0.969594 -0.246275 
0.0432096 0.898514 -0.435642 
0.0915137 0.759926 -0.643753 
0.154816 0.629064 -0.762025 
0.185907 0.553679 -0.812118 
0.262999 0.452084 -0.852615 
0.290779 0.426979 -0.856575 
0.285854 0.400314 -0.870981 
0.244474 0.371011 -0.896264 
0.220177 0.360946 -0.906521 
0.19786 0.337 -0.920952 
0.157624 0.304533 -0.939973 
0.141356 0.285646 -0.948543 
0.0851377 0.23469 -0.969097 
0.0679784 0.204812 -0.977229 
0.0443637 0.169728 -0.985301 
0.0335182 0.147084 -0.989397 
0.0287777 0.128271 -0.992149 
0.0194432 0.10672 -0.994911 
0.0130753 0.0879539 -0.996843 
0.00691509 0.0697528 -0.998343 
0.00679362 0.0568907 -0.999106 
0.00254063 0.0464853 -0.99974 
0.000156757 0.039147 -0.999791 
-0.0013484 0.0353031 -1.00004 
-0.00477665 0.0362877 -0.999955 
-0.00467679 0.042129 -0.999714 
-0.0113395 0.0465162 -0.999494 
-0.0151907 0.0455066 -0.999532 
-0.0169248 0.0427038 -0.999644 
-0.0213148 0.0417789 -0.99957 
-0.0175322 0.0395257 -0.999811 
-0.015814 0.0297963 -1.00025 
-0.0185109 0.0190124 -1.00056 
-0.0194098 -0.00455825 -1.00052 
-0.019561 -0.0269052 -1.0003 
-0.0150788 -0.0530438 -0.99928 
-0.0109261 -0.0784441 -0.997667 
-0.00978444 -0.114335 -0.993563 
0.0031049 -0.114658 0.993502 
0.000621018 -0.0891202 0.997004 
0.0115171 -0.0580598 0.99911 
0.0112538 -0.0337195 1.00007 
0.00564962 -0.0148246 1.00073 
0.00548064 0.00933692 1.00079 
0.00759387 0.0187149 1.00047 
0.00428931 0.033912 1.00031 
0.00702992 0.0408551 0.999821 
0.000442896 0.0454791 0.99967 
-0.00203777 0.0490227 0.99955 
-0.00443574 0.0483986 0.999523 
-0.00533585 0.0430022 0.999724 
-0.00993941 0.037004 0.999951 
-0.0098954 0.0353287 1.00001 
-0.0179711 0.0391737 0.999787 
-0.0162832 0.0474445 0.99935 
-0.01739 0.0584392 0.999043 
-0.0238583 0.0731268 0.997847 
-0.0311191 0.0986158 0.995446 
-0.0389817 0.122675 0.992522 
-0.0475685 0.147644 0.988732 
-0.0656411 0.180113 0.982282 
-0.0811737 0.211801 0.974766 
-0.107676 0.253772 0.962034 
-0.140117 0.291867 0.946839 
-0.165792 0.317788 0.934175 
-0.218429 0.361813 0.906871 
-0.272942 0.403909 0.8736 
-0.307257 0.426856 0.850835 
-0.323242 0.438351 0.839135 
-0.352897 0.461248 0.814307 
-0.307256 0.481415 0.821168 
-0.345237 0.496123 0.796908 
-0.299849 0.526336 0.795892 
-0.21409 0.600104 0.770468 
-0.152015 0.665176 0.731909 
-0.0972305 0.774645 0.62461 
-0.0168576 0.973253 0.223848 
0.00128422 0.999396 -0.0286462 
0.0185736 0.966961 -0.25434 
0.0572198 0.865214 -0.497903 
0.126119 0.72198 -0.680181 
0.236193 0.551278 -0.800202 
0.255545 0.496782 -0.829636 
0.326173 0.438574 -0.837891 
0.365697 0.433095 -0.824247 
0.372539 0.443423 -0.815399 
0.336292 0.427215 -0.839485 
0.307237 0.405232 -0.861407 
0.275969 0.396697 -0.875926 
0.219588 0.35523 -0.909143 
0.174288 0.325455 -0.930034 
0.124849 0.274158 -0.954329 
0.0962716 0.237155 -0.9675 
0.0738339 0.200252 -0.977796 
0.0569875 0.167558 -0.985067 
0.0451889 0.1412 -0.989662 
0.0352717 0.116318 -0.99345 
0.0288439 0.0947042 -0.995964 
0.023625 0.0745995 -0.997807 
0.0228337 0.0610788 -0.998687 
0.016367 0.0473698 -0.999525 
0.0151301 0.0384047 -0.999884 
0.013727 0.0349767 -1.00009 
0.0110246 0.0380463 -0.999858 
0.00995382 0.0461254 -0.999413 
0.00274694 0.0514106 -0.999462 
-9.50537e-05 0.0500787 -0.999487 
-0.00281383 0.0422469 -0.999834 
-0.00686937 0.038954 -0.999926 
-0.00509204 0.0356691 -1.00013 
-0.00434999 0.0263496 -1.00034 
-0.0082047 0.0139298 -1.00062 
-0.00534745 -0.00223561 -1.00071 
-0.0087293 -0.0195436 -1.00058 
-0.00423567 -0.0377958 -1.00018 
-0.00132201 -0.0720552 -0.99796 
0.000469415 -0.112957 -0.993931 
-0.0114132 -0.113682 0.993615 
-0.00703486 -0.0895857 0.996788 
0.00195636 -0.0513028 0.999318 
0.00172424 -0.0369576 1.00024 
0.000892237 -0.000232355 1.00072 
-0.00312472 0.0167568 1.00055 
0.00127024 0.0271358 1.00045 
-0.00432135 0.0321854 1.00013 
-0.00155102 0.0385355 1 
-0.0112117 0.0498332 0.999603 
-0.0159514 0.0582339 0.998964 
-0.0170139 0.0566076 0.998875 
-0.022618 0.0503608 0.999263 
-0.0217928 0.0410951 0.999624 
-0.0237425 0.0347754 0.999844 
-0.023391 0.0348727 0.999886 
-0.028565 0.0455292 0.999349 
-0.0286438 0.0596093 0.998672 
-0.0365112 0.0788139 0.997079 
-0.0365662 0.0935138 0.99582 
-0.0452371 0.120129 0.992583 
-0.0557086 0.14921 0.988093 
-0.0710247 0.182724 0.981462 
-0.0912742 0.225512 0.970792 
-0.111285 0.259123 0.96023 
-0.149362 0.31452 0.938144 
-0.192692 0.361115 0.912934 
-0.219727 0.375311 0.901026 
-0.279732 0.42167 0.862932 
-0.340184 0.460515 0.820344 
-0.38334 0.482519 0.787883 
-0.396124 0.477468 0.784654 
-0.369391 0.480423 0.79576 
-0.430418 0.506324 0.747381 
-0.399998 0.508137 0.763003 
-0.311115 0.545799 0.778548 
-0.189427 0.644443 0.740322 
-0.118384 0.787901 0.600843 
-0.0473197 0.874478 0.482716 
0.00173484 0.99826 -0.00286144 
0.0305441 0.940485 -0.336571 
0.0965601 0.800268 -0.589234 
0.19636 0.611933 -0.766746 
0.31967 0.508319 -0.799971 
0.330262 0.462775 -0.822624 
0.403637 0.457067 -0.792759 
0.427989 0.475984 -0.768634 
0.447052 0.503103 -0.739977 
0.401455 0.472975 -0.784646 
0.351262 0.461525 -0.815087 
0.31479 0.458911 -0.831238 
0.259319 0.408408 -0.875699 
0.206248 0.374085 -0.904822 
0.149052 0.312832 -0.938805 
0.114264 0.266248 -0.957832 
0.0880538 0.221254 -0.972077 
0.0695052 0.183544 -0.98157 
0.0560769 0.151355 -0.987794 
0.0458346 0.122274 -0.992363 
0.0409805 0.099315 -0.995131 
0.0370513 0.08115 -0.996915 
0.0344614 0.062508 -0.998309 
0.0308298 0.0490488 -0.999023 
0.0281909 0.0390676 -0.999749 
0.0268254 0.0345127 -0.999681 
0.0242334 0.0381256 -0.999671 
0.0220212 0.0482268 -0.999367 
0.0155643 0.056864 -0.998868 
0.0124719 0.0549443 -0.9992 
0.0095232 0.0445063 -0.999776 
0.0044094 0.0369398 -1.00003 
0.00248335 0.0340301 -1.00033 
0.00410543 0.0254231 -1.00063 
0.00240762 0.0148272 -1.00067 
0.00385598 -0.00161996 -1.00063 
0.00269394 -0.0214297 -1.00057 
0.00491938 -0.0465404 -0.999699 
0.00703797 -0.0774178 -0.997795 
0.0117932 -0.113102 -0.993706 
-0.014663 -0.120305 0.992872 
-0.00918662 -0.0679031 0.998469 
-0.00551867 -0.0591716 0.99897 
-0.0054622 -0.0320999 1.00036 
-0.00226743 -0.0165317 1.00051 
-0.00478185 0.00994141 1.0008 
-0.00692863 0.0292736 1.00047 
-0.0134829 0.0326044 1.00009 
-0.0109111 0.0400971 0.99971 
-0.0183207 0.0492848 0.999384 
-0.0234051 0.0631648 0.998472 
-0.0293829 0.0621071 0.998288 
-0.0310441 0.0465819 0.998944 
-0.0315748 0.0356732 0.999622 
-0.0331762 0.0334508 0.999612 
-0.034575 0.039964 0.999364 
-0.0365261 0.0499148 0.998874 
-0.0395935 0.0656536 0.997856 
-0.0466313 0.0876267 0.995882 
-0.0480977 0.10484 0.994156 
-0.0515296 0.125632 0.99156 
-0.0610326 0.156251 0.986511 
-0.0791188 0.205643 0.976337 
-0.0985543 0.252257 0.963407 
-0.12497 0.298167 0.947004 
-0.158417 0.354728 0.922001 
-0.202785 0.411113 0.889301 
-0.247933 0.432546 0.867339 
-0.295209 0.46787 0.833539 
-0.345738 0.511544 0.786912 
-0.392188 0.543441 0.74256 
-0.432084 0.53235 0.7282 
-0.424331 0.491098 0.760994 
-0.446655 0.501468 0.741301 
-0.48862 0.528596 0.694309 
-0.42717 0.515901 0.742933 
-0.317398 0.569631 0.757642 
-0.220354 0.62816 0.74558 
-0.0343949 0.903696 0.428312 
0.0134484 0.992836 -0.130131 
0.041647 0.883177 -0.467571 
0.207891 0.61921 -0.755801 
0.320293 0.535433 -0.780569 
0.408121 0.46519 -0.785886 
0.436863 0.474752 -0.764209 
0.489475 0.507894 -0.709014 
0.486185 0.527309 -0.697063 
0.459062 0.575833 -0.676564 
0.412242 0.529278 -0.741818 
0.368337 0.525955 -0.766946 
0.307701 0.508744 -0.804316 
0.254901 0.4414 -0.860768 
0.206117 0.416998 -0.885648 
0.166952 0.360871 -0.918168 
0.124465 0.301031 -0.946186 
0.0944307 0.24549 -0.965701 
0.0755121 0.202397 -0.977088 
0.0622215 0.163761 -0.985387 
0.0529945 0.130239 -0.991067 
0.048764 0.107901 -0.993817 
0.0439812 0.0838878 -0.996341 
0.0420186 0.065501 -0.997768 
0.0399638 0.0508388 -0.998556 
0.0369086 0.0394747 -0.999398 
0.0355356 0.0341095 -0.999472 
0.0330142 0.0381516 -0.999268 
0.0308321 0.0511148 -0.998936 
0.0258294 0.0610108 -0.998488 
0.0228614 0.060392 -0.998582 
0.0180714 0.0463616 -0.999661 
0.0123804 0.036487 -0.999821 
0.00924215 0.031943 -1.0002 
0.0097715 0.0213591 -1.00046 
0.00855726 0.00651057 -1.0007 
0.00934475 -0.00901116 -1.00078 
0.00848391 -0.0294286 -1.00047 
0.0113524 -0.0571021 -0.99897 
0.0146133 -0.0816448 -0.997395 
0.0233231 -0.119914 -0.992679 
-0.0164593 -0.121907 0.99248 
-0.00995289 -0.0748221 0.997972 
-0.00826074 -0.0457971 0.999551 
-0.00847678 -0.0188337 1.00045 
-0.0071641 -0.00945695 1.0006 
-0.00952187 0.00315016 1.00067 
-0.00656102 0.0200289 1.00049 
-0.0141306 0.0303176 1.00028 
-0.0190068 0.039753 0.999662 
-0.0269488 0.0580677 0.998809 
-0.0317847 0.0701105 0.997598 
-0.0346576 0.0654507 0.997829 
-0.0346496 0.048644 0.998775 
-0.0360975 0.0355378 0.99933 
-0.0384753 0.0337293 0.999274 
-0.04193 0.0406651 0.999146 
-0.0433864 0.0534333 0.998383 
-0.0442875 0.0714703 0.997101 
-0.0499186 0.0969642 0.994956 
-0.0515822 0.119251 0.99234 
-0.0564386 0.145347 0.988571 
-0.062696 0.164951 0.985065 
-0.0688626 0.194322 0.979298 
-0.0817865 0.236699 0.968832 
-0.102988 0.293325 0.951078 
-0.126991 0.344925 0.930592 
-0.164618 0.409618 0.897754 
-0.214537 0.476022 0.85319 