# vtk DataFile Version 3.0 
Exported using Morpho https://github.com/Morpho-lang/morpho 
ASCII 
DATASET UNSTRUCTURED_GRID 

POINTS 1978 float 
-11.9988 -3.99865 -2.92198e-06 
-11.6107 -3.99951 -4.02868e-05 
-11.3101 -3.99879 -1.73653e-05 
-10.9655 -3.99908 -1.93995e-05 
-10.6607 -3.99896 -1.52805e-05 
-10.3282 -3.9989 -6.16404e-06 
-10.0072 -3.99892 -2.80295e-06 
-9.66133 -3.99878 -6.83922e-06 
-9.30921 -3.9987 -4.99002e-06 
-8.99665 -3.99892 -1.95826e-06 
-8.69333 -3.99876 -4.80429e-07 
-8.37591 -3.9988 1.28956e-06 
-8.07851 -3.99872 1.7186e-06 
-7.76482 -3.99885 1.25926e-06 
-7.46411 -3.99876 7.3062e-07 
-7.18422 -3.99897 -5.47166e-08 
-6.90448 -3.99888 1.61231e-07 
-6.592 -3.9988 4.94111e-07 
-6.28891 -3.99883 9.3259e-07 
-5.98712 -3.9989 2.6515e-06 
-5.68375 -3.99903 3.46827e-06 
-5.39883 -3.99912 4.10779e-06 
-5.11471 -3.99909 5.45317e-06 
-4.81786 -3.9987 8.01349e-06 
-4.5062 -3.99878 1.09434e-05 
-4.22 -3.99951 1.31565e-05 
-3.9324 -3.99858 1.84413e-05 
-3.60486 -3.99863 2.89352e-05 
-3.27016 -3.99942 4.03493e-05 
-2.95393 -3.99929 3.84413e-05 
-2.6328 -3.99882 7.56251e-05 
-2.31607 -3.99966 4.92587e-05 
-2.062 -3.99955 1.39546e-05 
-1.80947 -3.99907 8.90452e-05 
-1.59524 -4.00119 6.2685e-05 
-1.42738 -3.99917 -2.66253e-05 
-1.2147 -3.99986 0.000157156 
-1.10501 -3.99908 -0.000405872 
-0.536994 -3.99004 0.00236424 
-0.0169125 -3.99606 0.00041591 
0.470633 -3.99358 -0.000988496 
1.08272 -3.99924 0.000390726 
1.17328 -3.99995 -0.000138783 
1.36789 -4.00114 3.87337e-05 
1.57515 -3.99849 -7.20196e-06 
1.77679 -3.99923 -4.61492e-05 
2.0693 -4.00001 -4.34656e-05 
2.4041 -3.99904 -6.946e-05 
2.72166 -3.99946 -5.43993e-05 
3.02215 -3.99971 -4.19288e-05 
3.32783 -3.99841 -3.76487e-05 
3.60231 -3.99959 -2.1784e-05 
3.87326 -3.99884 -1.55699e-05 
4.19606 -3.99854 -1.6558e-05 
4.52721 -3.99875 -1.13091e-05 
4.82987 -3.99915 -7.65897e-06 
5.13057 -3.99913 -5.42414e-06 
5.41747 -3.99901 -4.60934e-06 
5.71722 -3.99888 -3.45317e-06 
6.00602 -3.99889 -2.75112e-06 
6.30466 -3.99882 -1.7135e-06 
6.57707 -3.9989 -5.02531e-07 
6.88222 -3.99888 -1.1809e-07 
7.17399 -3.9988 -8.87304e-07 
7.47163 -3.99896 -1.29286e-08 
7.7793 -3.99872 -2.1364e-06 
8.07155 -3.99889 -1.0868e-06 
8.3629 -3.99891 -2.93006e-06 
8.65983 -3.99878 1.77102e-07 
8.95226 -3.99883 1.34021e-06 
9.28539 -3.9989 5.0451e-06 
9.61492 -3.99883 7.08027e-06 
9.91418 -3.99904 4.35381e-06 
10.2813 -3.99896 5.55699e-06 
10.6069 -3.99886 1.56905e-05 
10.9844 -3.99892 1.93042e-05 
11.3019 -3.99896 1.91808e-05 
11.5934 -3.99942 3.72479e-05 
11.9988 -3.99865 4.16707e-06 
-11.9994 -3.63166 3.31174e-05 
-11.697 -3.7104 -2.18447e-18 
-11.3491 -3.62744 1.37329e-18 
-11.0393 -3.67724 -1.18058e-18 
-10.7047 -3.63667 -3.3936e-19 
-10.3969 -3.66856 2.50799e-19 
-10.0664 -3.65947 -2.17017e-19 
-9.74155 -3.6866 6.50353e-20 
-9.39364 -3.69576 5.27581e-19 
-9.04923 -3.66286 1.37889e-19 
-8.73877 -3.65598 1.80396e-21 
-8.43256 -3.67303 -3.75673e-20 
-8.11851 -3.65257 -7.22656e-20 
-7.81674 -3.67235 -2.65622e-19 
-7.50295 -3.65953 -2.65296e-20 
-7.20375 -3.63697 -1.87132e-19 
-6.88861 -3.6781 -1.53218e-19 
-6.58179 -3.67013 -1.18135e-19 
-6.27779 -3.67132 -1.74422e-19 
-5.97132 -3.67711 -1.33461e-19 
-5.67964 -3.66107 -6.57893e-20 
-5.38782 -3.65903 -1.3207e-19 
-5.08557 -3.66253 -5.85004e-20 
-4.76532 -3.6649 -1.19576e-20 
-4.42896 -3.67707 6.30648e-21 
-4.07791 -3.62532 6.98807e-20 
-3.74819 -3.66412 4.24002e-19 
-3.393 -3.66841 1.04889e-18 
-3.05361 -3.65455 7.50922e-20 
-2.71656 -3.66412 3.49178e-18 
-2.38498 -3.6858 -2.13254e-18 
-2.09021 -3.66389 -1.71031e-18 
-1.83836 -3.72865 5.78832e-18 
-1.58951 -3.74504 1.21755e-18 
-1.38121 -3.7146 1.41907e-18 
-1.23513 -3.81603 2.67674e-17 
-1.04139 -3.68328 2.32875e-17 
-0.987989 -3.94089 3.17359e-17 
-0.467592 -3.92129 2.11389e-16 
-0.0292084 -3.93628 1.62375e-17 
0.460305 -3.93394 3.79708e-17 
0.996128 -3.94578 7.5921e-18 
1.04198 -3.58202 -3.44269e-17 
1.20543 -3.7776 1.89768e-18 
1.39432 -3.73276 1.55174e-19 
1.59453 -3.67211 1.71165e-18 
1.84737 -3.72312 -3.41787e-18 
2.14727 -3.71148 4.56099e-18 
2.45357 -3.66332 -1.83008e-18 
2.76505 -3.64187 -9.15779e-19 
3.18306 -3.70502 -4.27159e-19 
3.527 -3.58931 -3.17642e-19 
3.86162 -3.64704 -3.40516e-19 
4.20178 -3.65688 -2.11704e-19 
4.52642 -3.6511 5.06486e-20 
4.84961 -3.67249 6.49081e-21 
5.15487 -3.66657 2.26805e-19 
5.46338 -3.68076 -3.69651e-20 
5.7601 -3.66461 4.30939e-20 
6.06283 -3.67359 7.17182e-20 
6.3447 -3.63896 8.38653e-20 
6.64507 -3.67646 -1.96177e-20 
6.94085 -3.65759 1.12003e-19 
7.24009 -3.66198 5.94829e-20 
7.54603 -3.67179 1.99161e-19 
7.84554 -3.6543 1.02794e-19 
8.13967 -3.65162 8.40621e-20 
8.43526 -3.65632 -2.30885e-19 
8.73019 -3.64797 -1.07117e-20 
9.05307 -3.69107 -1.35284e-19 
9.38449 -3.68398 -3.21803e-19 
9.69598 -3.64796 -1.60773e-19 
10.037 -3.71031 5.10071e-20 
10.3733 -3.66903 2.77644e-19 
10.7348 -3.70954 4.45018e-19 
11.0676 -3.65243 2.51202e-19 
11.3707 -3.62044 -2.49265e-19 
11.7188 -3.72609 1.97025e-18 
11.9992 -3.60532 -3.37225e-05 
-11.9988 -3.32719 2.26029e-05 
-11.6343 -3.36932 1.22847e-19 
-11.2934 -3.28185 -2.13395e-20 
-10.9789 -3.33715 -2.90846e-19 
-10.6616 -3.28175 -1.95569e-19 
-10.3411 -3.33492 5.73331e-19 
-10.012 -3.32755 3.37338e-19 
-9.69403 -3.34784 2.67343e-19 
-9.38182 -3.38608 2.82978e-19 
-9.07519 -3.32443 1.58334e-19 
-8.77389 -3.31077 1.69601e-19 
-8.46953 -3.333 3.64481e-19 
-8.16438 -3.32664 2.52208e-19 
-7.84702 -3.33006 2.06623e-19 
-7.54542 -3.33495 1.45053e-19 
-7.2356 -3.29863 1.8566e-19 
-6.93274 -3.35121 2.8519e-19 
-6.627 -3.34308 3.13284e-19 
-6.32338 -3.3421 3.8562e-19 
-6.02368 -3.35352 4.34812e-19 
-5.72628 -3.32872 4.92887e-19 
-5.43257 -3.32366 4.18982e-19 
-5.13519 -3.32923 5.13931e-19 
-4.8232 -3.34081 6.88764e-19 
-4.50018 -3.34553 4.56689e-19 
-4.17737 -3.31561 6.85753e-19 
-3.83011 -3.31736 8.92463e-19 
-3.49369 -3.34637 -1.43908e-20 
-3.15276 -3.31813 -8.63547e-19 
-2.81773 -3.33158 -7.86729e-19 
-2.47604 -3.36799 2.06464e-18 
-2.17006 -3.33937 -2.24425e-19 
-1.88502 -3.40496 1.8261e-18 
-1.64473 -3.49683 -1.82478e-18 
-1.41413 -3.47046 7.59836e-18 
-1.20034 -3.55516 -1.59704e-17 
-1.03281 -3.48872 -1.61859e-17 
-0.874754 -3.88206 -1.1521e-16 
-0.409658 -3.85063 1.61692e-16 
0.0194717 -3.87162 3.65723e-17 
0.464875 -3.86317 8.08549e-17 
0.911786 -3.88463 -2.40924e-17 
1.07199 -3.37113 -5.9074e-18 
1.24003 -3.54006 -1.06289e-17 
1.46283 -3.43512 4.45146e-18 
1.68889 -3.36039 9.65209e-19 
1.88441 -3.4463 3.57891e-18 
2.18493 -3.4145 -3.24913e-19 
2.51147 -3.33057 -5.50951e-18 
2.84416 -3.28956 -4.42807e-19 
3.12601 -3.41731 1.35652e-18 
3.48968 -3.26933 2.21553e-19 
3.84809 -3.30136 -6.8941e-19 
4.18008 -3.31634 -8.90163e-19 
4.5055 -3.30988 -7.01165e-19 
4.8172 -3.34251 -3.89318e-19 
5.12064 -3.33671 -5.99571e-19 
5.4212 -3.35918 -4.3587e-19 
5.72059 -3.33613 -3.95099e-19 
6.02032 -3.34791 -4.05786e-19 
6.31655 -3.29382 -4.0731e-19 
6.61106 -3.34176 -2.49594e-19 
6.91124 -3.32718 -3.15882e-19 
7.21598 -3.32729 -1.97312e-19 
7.52023 -3.34089 -1.90317e-19 
7.82441 -3.31969 -1.16115e-19 
8.12963 -3.30812 -2.0495e-19 
8.42854 -3.30977 -2.4651e-19 
8.75526 -3.33254 -3.02079e-19 
9.08082 -3.37535 -3.25306e-19 
9.39699 -3.3487 -2.34473e-19 
9.70677 -3.30284 -1.46087e-19 
10.0133 -3.39374 -2.28279e-19 
10.304 -3.31479 -2.5494e-19 
10.6261 -3.39609 -7.37954e-19 
10.9589 -3.33833 3.68883e-19 
11.2875 -3.26717 3.58058e-19 
11.6289 -3.37557 -1.08877e-18 
11.9989 -3.30628 -2.41341e-05 
-11.999 -3.00024 1.74539e-05 
-11.6578 -3.0528 4.53914e-19 
-11.3155 -2.9619 -7.65147e-19 
-10.9656 -2.98598 5.84676e-19 
-10.625 -2.95266 -5.45079e-20 
-10.2966 -3.00091 2.91569e-19 
-9.97167 -2.98991 6.77083e-21 
-9.65752 -3.00721 2.96156e-21 
-9.35911 -3.03235 1.00307e-19 
-9.05834 -2.97386 -6.68474e-20 
-8.74452 -2.97815 -1.45877e-19 
-8.43525 -2.99415 1.0956e-19 
-8.11859 -3.0027 -4.60937e-20 
-7.81236 -2.99254 -5.08166e-20 
-7.51064 -2.99636 -1.64055e-19 
-7.20856 -2.96891 -8.03794e-20 
-6.90644 -3.02294 -1.55566e-19 
-6.60148 -3.01531 -1.67351e-19 
-6.30177 -3.01257 -1.67897e-19 
-6.00527 -3.02246 -2.14654e-19 
-5.70957 -2.9961 -2.42694e-19 
-5.41372 -2.99015 -2.7841e-19 
-5.10553 -3.00213 -3.32399e-19 
-4.79484 -3.01235 -4.16203e-19 
-4.47858 -3.01175 -4.11588e-19 
-4.15572 -2.97738 -7.74899e-19 
-3.83253 -2.99455 -4.5335e-20 
-3.48784 -3.02343 -8.54182e-19 
-3.14237 -2.9844 -1.16935e-18 
-2.80079 -3.0148 -7.56017e-19 
-2.50071 -3.02637 -2.95742e-19 
-2.2181 -3.01944 -7.87766e-19 
-1.97147 -3.05237 -1.09458e-18 
-1.71979 -3.18131 -8.38648e-19 
-1.5086 -3.23117 8.43967e-19 
-1.24768 -3.32305 -8.84498e-18 
-1.06496 -3.27344 2.25634e-19 
-0.815852 -3.80974 6.2381e-17 
-0.392072 -3.77434 2.21933e-17 
0.0280116 -3.80157 -1.50512e-16 
0.433625 -3.77575 -2.10949e-16 
0.828118 -3.80787 6.32369e-18 
1.12069 -3.15827 9.01273e-17 
1.29232 -3.30191 -2.50066e-18 
1.54689 -3.14871 -9.13664e-18 
1.78508 -3.05128 -1.92887e-18 
1.99683 -3.16732 -3.21894e-18 
2.21731 -3.01516 -1.06076e-19 
2.44046 -3.05721 1.78316e-18 
2.80395 -2.98608 2.42008e-18 
3.1634 -3.03411 1.71762e-18 
3.46605 -2.95804 3.87666e-19 
3.81765 -2.97499 4.90689e-19 
4.15417 -2.97804 6.52279e-19 
4.47568 -2.9747 3.6381e-19 
4.7942 -3.0036 4.23528e-19 
5.11103 -3.01227 3.80191e-19 
5.4178 -3.02986 2.6796e-19 
5.71192 -3.00283 2.25095e-19 
6.00782 -3.02024 2.083e-19 
6.30684 -2.96321 1.95635e-19 
6.60912 -3.00691 3.10772e-19 
6.91303 -3.00075 1.76038e-19 
7.22182 -2.99663 2.09337e-19 
7.52199 -3.00609 1.03756e-19 
7.8278 -2.98729 8.02564e-20 
8.12441 -2.96607 1.01795e-20 
8.44818 -2.99487 -1.17334e-19 
8.7455 -2.98335 3.25674e-20 
9.04583 -3.04847 1.01671e-19 
9.35342 -3.01282 -6.98036e-21 
9.65136 -2.95721 1.03889e-19 
9.97751 -3.03174 -7.34763e-21 
10.3182 -2.99255 -6.60414e-19 
10.6546 -3.06154 2.46299e-19 
10.9858 -2.9959 3.14735e-19 
11.3343 -2.94364 -1.13977e-19 
11.6623 -3.06152 3.98712e-19 
11.9988 -2.97634 -1.56732e-05 
-11.9985 -2.67342 1.55428e-05 
-11.6595 -2.72449 8.13941e-19 
-11.331 -2.6265 2.78803e-19 
-10.996 -2.6648 -3.67943e-19 
-10.6527 -2.63077 3.96585e-19 
[...]
POINT_DATA 1978 
VECTORS vectors float
0.0558704 -0.0764967 0.995874 
0.0596653 -0.0513747 0.997537 
0.0617615 -0.0394593 0.997958 
0.0636872 -0.0270987 0.998235 
0.065047 -0.0197248 0.998312 
0.0649708 -0.0134407 0.998412 
0.0650149 -0.00715233 0.998465 
0.0662557 0.00142515 0.998395 
0.0681638 0.00463413 0.99824 
0.0688722 0.00403926 0.998188 
0.0693149 0.0025775 0.998155 
0.069199 0.000668262 0.998163 
0.0687325 -0.000641926 0.998196 
0.06828 -0.00102858 0.998226 
0.0681008 -0.000503671 0.998239 
0.0682458 7.65033e-05 0.998016 
0.068165 0.000647305 0.998228 
0.0682433 0.00134774 0.998214 
0.0682982 0.00199775 0.998205 
0.0680061 0.00267755 0.998218 
0.0675226 0.00395104 0.998244 
0.0671055 0.00591139 0.998267 
0.06689 0.00842932 0.998277 
0.066427 0.0114429 0.998304 
0.0651427 0.0158216 0.99859 
0.0646151 0.0219411 0.998059 
0.0633258 0.0298722 0.998192 
0.0622648 0.0413768 0.997859 
0.0595781 0.057263 0.997232 
0.0546088 0.0797226 0.995987 
0.0512781 0.107445 0.993536 
0.0401917 0.151346 0.98824 
0.0327549 0.20692 0.978296 
0.0296209 0.261354 0.965169 
0.0197784 0.321584 0.946957 
0.0102879 0.384985 0.923041 
-0.00222392 0.478204 0.878441 
-0.00370631 0.530702 0.848402 
-0.0116919 0.849994 0.527747 
-0.0026562 0.999884 -0.00801177 
0.0143939 0.856802 -0.515563 
0.00221799 0.544058 -0.839899 
-0.000946582 0.502596 -0.864752 
-0.00556858 0.421707 -0.906954 
-0.0149019 0.33958 -0.940803 
-0.0231451 0.278132 -0.960707 
-0.0329653 0.202957 -0.979156 
-0.0442807 0.139295 -0.989884 
-0.0512726 0.100397 -0.994288 
-0.0561384 0.0752532 -0.995994 
-0.060495 0.0523045 -0.997729 
-0.0626958 0.0424489 -0.99755 
-0.0626096 0.032582 -0.998171 
-0.0641855 0.0229241 -0.99833 
-0.0655924 0.0162653 -0.998341 
-0.0663582 0.0118728 -0.998302 
-0.0669219 0.00843365 -0.998266 
-0.0673686 0.00591687 -0.998242 
-0.0676237 0.00399429 -0.998234 
-0.0680316 0.00277593 -0.998214 
-0.068309 0.00211035 -0.998203 
-0.0681866 0.00157295 -0.998211 
-0.0682686 0.000881324 -0.99821 
-0.0682904 7.38406e-05 -0.998217 
-0.0682378 -0.000513859 -0.998219 
-0.0685891 -0.00112219 -0.998196 
-0.0687949 -0.000712625 -0.998185 
-0.0694535 0.000423165 -0.998135 
-0.0695601 0.00217786 -0.998134 
-0.0696222 0.00376628 -0.998121 
-0.0683879 0.00466608 -0.998205 
-0.0663698 0.00259916 -0.998377 
-0.0650969 -0.00413667 -0.998457 
-0.0654028 -0.0126984 -0.99837 
-0.0653936 -0.0187787 -0.998289 
-0.0638736 -0.0274434 -0.998201 
-0.0620263 -0.0389549 -0.997961 
-0.0594169 -0.0511265 -0.99756 
-0.0563119 -0.0769821 -0.995799 
0.0351813 -0.0790412 0.996862 
0.0435719 -0.0618853 0.998366 
0.0415668 -0.0406446 0.999801 
0.0448299 -0.0307632 0.999986 
0.0446952 -0.021701 1.00023 
0.0466205 -0.014166 1.00025 
0.0464216 -0.00840666 1.00032 
0.048106 -0.0022179 1.00048 
0.0502111 0.0018052 0.999912 
0.0501497 0.00215939 1.00011 
0.0503308 0.00183243 1.00029 
0.0511039 0.00128312 1.00003 
0.0498425 0.000538013 1.00009 
0.0502572 -0.000153807 1.00006 
0.0493873 -0.00023184 1.00011 
0.0483678 9.11733e-05 1.00035 
0.0500659 0.000673997 1.00005 
0.0498993 0.00131275 1.00005 
0.0499398 0.00202784 1.00003 
0.0501893 0.00307197 1.00001 
0.0493054 0.00453565 1.00004 
0.048682 0.0063946 1.00008 
0.048521 0.00911844 1.00012 
0.0478554 0.0129362 0.999941 
0.0470599 0.0181544 1.00016 
0.0431911 0.0264668 1.00041 
0.0437974 0.0377469 0.999848 
0.0417112 0.0540151 0.999198 
0.0369982 0.0738497 0.998108 
0.0320259 0.105322 0.995196 
0.0278881 0.146172 0.990504 
0.0213211 0.201147 0.980556 
0.0174663 0.263549 0.965467 
0.0126758 0.33568 0.94263 
0.00701919 0.418179 0.90892 
0.0037088 0.471409 0.88229 
0.00987752 0.571118 0.821002 
0.000312963 0.603674 0.796574 
-0.00365203 0.883009 0.468112 
-0.00285903 0.999549 0.00350115 
0.00854262 0.861128 -0.507985 
0.000121223 0.591793 -0.805831 
-0.00726874 0.56342 -0.826373 
-0.00475235 0.487532 -0.873712 
-0.00634556 0.411069 -0.912127 
-0.0109049 0.335364 -0.943052 
-0.0168055 0.261676 -0.966101 
-0.0235573 0.188675 -0.983061 
-0.0265134 0.137469 -0.991613 
-0.0321455 0.101462 -0.996067 
-0.0427454 0.0671342 -0.998135 
-0.0395786 0.0474245 -0.999865 
-0.0430368 0.0337402 -1.00003 
-0.0449127 0.0239953 -1.00019 
-0.0464022 0.0172291 -1.00019 
-0.0483274 0.0121044 -1.00009 
-0.0487616 0.00861958 -1.00006 
-0.0497582 0.00610067 -1.00001 
-0.0493069 0.00426523 -1.00005 
-0.0500138 0.00291894 -1.00002 
-0.0487543 0.00203411 -1.00009 
-0.0502331 0.00125887 -0.999819 
-0.0491441 0.000542237 -1.00029 
-0.0493411 -2.15524e-05 -1.00009 
-0.0499228 -0.000323398 -1.00006 
-0.0496698 -0.000152509 -1.00007 
-0.0499349 0.000535349 -1.00006 
-0.050581 0.00132042 -0.999831 
-0.0499992 0.00177073 -1.00029 
-0.0514615 0.00228752 -0.999798 
-0.0499638 0.00174511 -1.00011 
-0.0468516 -0.00153317 -1.00051 
-0.0485394 -0.00738441 -0.999971 
-0.0461521 -0.0139781 -1.00048 
-0.0479086 -0.0224059 -1.00005 
-0.0437143 -0.0314364 -1.00002 
-0.0404968 -0.0423796 -0.999764 
-0.0441955 -0.0633261 -0.998241 
-0.0339358 -0.0789922 -0.996905 
0.0252833 -0.0826733 0.996886 
0.0293261 -0.0570632 0.999434 
0.0285423 -0.0404046 1.00048 
0.0325969 -0.0303206 1.00024 
0.0309373 -0.0209358 1.00097 
0.0338565 -0.013351 1.00055 
0.0342821 -0.00818252 1.0008 
0.0357941 -0.00315122 1.00054 
0.0379491 3.3786e-05 1.00088 
0.036832 0.000341151 1.00068 
0.0371838 0.000808795 1.00065 
0.0381764 0.00167489 1.0004 
0.0372682 0.00155947 1.00063 
0.0369849 0.000710387 1.00064 
0.0365623 0.000104116 1.00085 
0.0354641 5.48868e-05 1.00068 
0.0373022 0.000459802 1.0004 
0.0370577 0.00116248 1.0006 
0.0371579 0.00210031 1.00059 
0.0372443 0.00323778 1.00057 
0.0361593 0.00470384 1.0006 
0.0358382 0.00655362 1.00061 
0.0352526 0.00915787 1.00086 
0.0349781 0.0129039 1.00068 
0.0338196 0.0176362 1.00067 
0.0315065 0.0248338 1.00065 
0.030459 0.0365417 1.00011 
0.0299806 0.0499951 1.00002 
0.0259842 0.069608 0.998529 
0.0210622 0.0982639 0.996674 
0.0166303 0.138547 0.991625 
0.0115596 0.187787 0.983248 
0.0103042 0.254241 0.968357 
0.0108882 0.322996 0.947181 
0.00871822 0.399581 0.917306 
0.0112417 0.493683 0.870003 
0.0141538 0.569672 0.821845 
0.00639917 0.671284 0.741167 
0.00308144 0.910435 0.412117 
-0.00173063 0.99848 -0.0465058 
0.0018767 0.857222 -0.514751 
-0.00353392 0.635864 -0.771483 
-0.00666908 0.547088 -0.837237 
-0.00587464 0.469528 -0.883454 
-0.00547814 0.386174 -0.9231 
-0.00600436 0.308898 -0.9518 
-0.0108945 0.254039 -0.96815 
-0.0131816 0.185688 -0.983936 
-0.0143312 0.135378 -0.992096 
-0.0206364 0.0981829 -0.996433 
-0.0304543 0.0730836 -0.998401 
-0.0278797 0.0509828 -0.999839 
-0.029569 0.0352314 -1.00044 
-0.0314383 0.025599 -1.00043 
-0.0325584 0.0184693 -1.00093 
-0.0353109 0.0133235 -1.00043 
-0.035841 0.0096424 -1.00081 
-0.0371685 0.00695684 -1.00036 
-0.0365174 0.00485367 -1.00079 
-0.0369867 0.00330458 -1.00058 
-0.0354672 0.00219724 -1.00065 
-0.037027 0.00132363 -1.0006 
-0.0365093 0.000588098 -1.00062 
-0.036737 7.83767e-05 -1.00042 
-0.037227 4.27421e-05 -1.00061 
-0.0365656 0.000587604 -1.00063 
-0.0365973 0.0014385 -1.00064 
-0.0371956 0.00170874 -1.00084 
-0.0377238 0.0010784 -1.00063 
-0.0384692 0.000703815 -1.00061 
-0.0367527 -0.00020782 -1.00069 
-0.0344203 -0.00344076 -1.00079 
-0.0367565 -0.00796083 -1.0007 
-0.0329456 -0.0130022 -1.0008 
-0.0354871 -0.0193724 -1.0004 
-0.0323859 -0.0294306 -1.0005 
-0.028355 -0.0410495 -1.00046 
-0.0297486 -0.0563547 -0.999459 
-0.0244998 -0.0830683 -0.99687 
0.0178439 -0.0848423 0.99685 
0.0209809 -0.059266 0.999508 
0.0205587 -0.0441936 1.00029 
0.0222155 -0.0290131 1.00102 
0.0223928 -0.0206838 1.00075 
0.0242493 -0.0134961 1.00126 
0.0249759 -0.00855494 1.00105 
0.0265962 -0.00407536 1.00102 
0.0281324 -0.00149391 1.00075 
0.0275278 -0.00116393 1.00096 
0.0282376 0.000149438 1.00072 
0.0285659 0.001936 1.00112 
0.0286607 0.00222778 1.0009 
0.0278218 0.0012426 1.00091 
0.0277519 0.000332117 1.00071 
0.026694 0.000154694 1.00093 
0.0278947 0.000556605 1.0011 
0.0275588 0.00131011 1.0009 
0.0273892 0.00229869 1.00089 
0.0278681 0.00352054 1.00087 
0.0271161 0.00511147 1.00088 
0.0269155 0.00725182 1.00089 
0.0265323 0.0101885 1.00091 
0.0258922 0.0140673 1.00091 
0.0246992 0.0190438 1.00067 
0.0221308 0.0263301 1.00081 
0.0205319 0.037711 1.00075 
0.0201144 0.0532021 0.999631 
0.0157315 0.0744445 0.998829 
0.011626 0.106015 0.995769 
0.0065894 0.140007 0.991518 
0.00179324 0.182339 0.984722 
8.86797e-05 0.234312 0.973071 
0.00360291 0.297964 0.9555 
0.00589427 0.364152 0.932064 
0.0109254 0.463387 0.88663 
0.0158425 0.541205 0.84075 
0.0142866 0.698408 0.715545 
0.00870873 0.921381 0.387383 
-0.00277272 0.998096 -0.0539775 
-0.0048927 0.876298 -0.480729 
-0.0111769 0.670857 -0.741518 
-0.00130123 0.519928 -0.854264 
-0.00241708 0.448512 -0.894216 
0.00123164 0.356176 -0.935328 
0.004498 0.286118 -0.9591 
-0.001945 0.23056 -0.974125 
-0.00111787 0.184282 -0.983888 
-0.00665136 0.147065 -0.990652 
-0.0126119 0.106509 -0.995435 
-0.0184566 0.0746153 -0.998535 
-0.0179768 0.0549426 -0.999837 
-0.0200313 0.0375131 -1.00057 
-0.0220932 0.0270349 -1.00104 
-0.0236796 0.0201409 -1.00089 
-0.0258289 0.0144826 -1.00091 
-0.027046 0.0104246 -1.00069 
-0.0278489 0.00740346 -1.00106 
-0.0273269 0.00531183 -1.00068 
-0.0281104 0.00360496 -1.00086 
-0.0263902 0.00230639 -1.00092 
-0.0274887 0.00129162 -1.0011 
-0.0274534 0.000551835 -1.0007 
-0.0273298 0.000157796 -1.00111 
-0.0277063 0.000406921 -1.00091 
-0.0279406 0.00131192 -1.0009 
-0.0275188 0.00231395 -1.00092 
-0.0286372 0.00204664 -1.00091 
-0.0286214 0.000432116 -1.00093 
-0.0292619 -0.000809029 -1.00091 
-0.0275283 -0.00173401 -1.00098 
-0.0251525 -0.00437741 -1.00105 
-0.0256027 -0.00847815 -1.00104 
-0.0244898 -0.0137388 -1.00103 
-0.0248369 -0.0214069 -1.0009 
-0.0221871 -0.0306312 -1.00074 
-0.0200913 -0.0438412 -1.00031 
-0.0208303 -0.0605866 -0.999434 
-0.0175363 -0.0846608 -0.996867 
0.0124568 -0.0852278 0.996882 
0.0151244 -0.0606747 0.999757 
0.0142001 -0.0439163 1.00017 
0.0155008 -0.0323797 1.00081 
0.0164456 -0.0221914 1.00105 
0.0175566 -0.0139743 1.00116 
0.0183626 -0.00981632 1.00118 
0.0192106 -0.00552273 1.00118 
0.0201897 -0.00276944 1.00136 
0.0206652 -0.00204199 1.00111 
0.0210386 0.000247314 1.0011 
0.021062 0.00266365 1.00108 
0.0205594 0.00291802 1.00108 
0.0198006 0.00162137 1.00109 
0.0195914 0.000525058 1.00109 
0.0190773 0.000268465 1.00109 
0.0199317 0.000667734 1.00107 
0.0196959 0.00138159 1.00106 
0.0196304 0.00242748 1.00106 
0.0200125 0.00387487 1.00105 
0.0193818 0.00581487 1.00106 
0.0190058 0.00825591 1.00107 
0.0188568 0.0114886 1.00086 
0.0176985 0.0155665 1.00127 
0.0166096 0.020953 1.00101 
0.014245 0.0295056 1.00086 
0.0133032 0.0425388 1.00044 
0.0112711 0.0589362 0.99966 
0.00709135 0.0823613 0.998055 
0.00210037 0.114504 0.994856 
-0.00354585 0.151769 0.989551 
-0.0110146 0.19783 0.981448 
-0.0153758 0.251101 0.968979 
-0.00970235 0.297713 0.955565 
-0.00782138 0.366643 0.931137 
0.00548006 0.426086 0.905334 
0.015299 0.500179 0.867159 
0.0221949 0.71025 0.703734 
0.0130117 0.93284 0.35866 
-0.00214773 0.997525 -0.0605231 
-0.012596 0.877028 -0.479171 
-0.0190517 0.684335 -0.729449 
0.00398358 0.48829 -0.872818 
0.00303752 0.417551 -0.90957 
0.0121935 0.332909 -0.943559 
0.0129163 0.259897 -0.966516 
0.00935086 0.217879 -0.977222 
0.0068193 0.178862 -0.985094 
-0.00174495 0.140497 -0.991205 
-0.00636449 0.102789 -0.996308 
-0.00878626 0.0770615 -0.998464 
-0.010465 0.0540961 -0.999957 
-0.0132678 0.0370874 -1.00066 
-0.0148455 0.0267052 -1.00092 
-0.0165445 0.0201053 -1.0008 
-0.0182684 0.0146452 -1.00126 
-0.0192864 0.0106502 -1.00106 
-0.0198695 0.00768469 -1.00104 
-0.0197162 0.00542992 -1.00104 
-0.0198062 0.00363952 -1.00106 
-0.0189484 0.00213092 -1.00108 
-0.019506 0.00115414 -1.00108 
-0.0196952 0.000509825 -1.00107 
-0.0194016 0.000286537 -1.00109 
-0.0198052 0.000759806 -1.00108 
-0.0194477 0.0019981 -1.0011 
-0.0205731 0.0032242 -1.00108 
-0.0206405 0.00256671 -1.00089 
-0.0205121 -4.04731e-05 -1.00112 
-0.0213716 -0.00211142 -1.00111 
-0.0197133 -0.00321839 -1.00115 
-0.0186771 -0.00578097 -1.00118 
-0.0192389 -0.00981948 -1.00116 
-0.0171189 -0.0143371 -1.00116 
-0.0178825 -0.0223312 -1.00103 
-0.0159348 -0.0319702 -1.00082 
-0.013755 -0.0444075 -1.00038 
-0.014939 -0.0627325 -0.999397 
-0.0121578 -0.0854072 -0.996874 
0.00773802 -0.0846904 0.996954 
0.00932795 -0.0681632 0.998859 
0.00927663 -0.0478119 1.00027 
0.0104817 -0.0352974 1.00076 
0.0107082 -0.0252452 1.00105 
0.0120247 -0.0168146 1.00118 
0.0129118 -0.0120673 1.00122 
0.0139043 -0.00758771 1.00124 
0.0146826 -0.00444936 1.00122 
0.0153182 -0.00329041 1.00119 
0.0155603 -0.000589334 1.00119 
0.015703 0.00275456 1.00117 
0.0151197 0.00374203 1.00116 
0.0146869 0.00247622 1.00116 
0.0141002 0.000959758 1.00117 
0.0139027 0.000337502 1.00116 
0.0140138 0.000526757 1.00116 
0.014053 0.00117371 1.00115 
0.0140352 0.00226038 1.00115 
0.013936 0.00375685 1.00114 
0.013682 0.0056155 1.00114 
0.0139288 0.00801837 1.00114 
0.0135289 0.0113685 1.00113 
0.0129059 0.0154845 1.0011 
0.0114895 0.0204104 1.00105 
0.00961302 0.0276041 1.00091 
0.00795738 0.0396229 1.00055 
0.00590744 0.0544335 0.999895 
0.00273693 0.0735904 0.998708 
-0.00255955 0.102886 0.996107 
-0.00822044 0.138791 0.991656 
-0.0147333 0.174964 0.985742 
-0.0253903 0.224046 0.975408 
-0.0319625 0.280026 0.960612 
-0.0247343 0.320516 0.947795 
-0.0291306 0.371686 0.928759 
-0.00873182 0.436996 0.899778 
0.027892 0.714572 0.698819 
0.0173813 0.943917 0.324009 
-0.00310175 0.993181 -0.104657 
-0.0175435 0.908168 -0.413244 
-0.022834 0.688011 -0.726443 
0.0171207 0.404795 -0.914731 
0.0233807 0.356046 -0.934801 
0.0223789 0.319296 -0.948285 
0.031788 0.303356 -0.953303 
0.0230971 0.246649 -0.969702 
0.0185424 0.206688 -0.979394 
0.00894534 0.15492 -0.989365 
0.00206567 0.118165 -0.994147 
-0.000881961 0.0891206 -0.997432 
-0.00407873 0.0642076 -0.999377 
-0.00696921 0.0428361 -1.00049 
-0.00928794 0.0302672 -1.00088 
-0.0109646 0.0228265 -1.00103 
-0.0128323 0.0167239 -1.0011 
-0.0136661 0.0120557 -1.00114 
-0.0140114 0.00854553 -1.00114 
-0.0141269 0.00601158 -1.00114 
-0.0141434 0.00395104 -1.00114 
-0.013805 0.00245799 -1.00116 
-0.0138585 0.00132003 -1.00116 
-0.0142094 0.000662865 -1.00116 
-0.0140146 0.000396344 -1.00116 
-0.0145388 0.000841554 -1.00116 
-0.0139929 0.00226123 -1.00117 
-0.0150176 0.0038193 -1.00116 
-0.0150804 0.00343532 -1.00138 
-0.0152207 0.000464571 -1.0012 
-0.0158502 -0.00283988 -1.0012 
-0.0147507 -0.00418748 -1.00122 
-0.0133829 -0.00659006 -1.00124 
-0.0140088 -0.0112115 -1.00122 
-0.0122093 -0.0155409 -1.0012 
-0.0124129 -0.0225511 -1.0011 
-0.0107824 -0.033325 -1.00082 
-0.00882848 -0.045596 -1.00036 
-0.00935351 -0.0624179 -0.999472 
-0.00774537 -0.0858728 -0.996872 
0.00367333 -0.0863863 0.996839 
0.00459634 -0.0626925 0.999688 
0.00604968 -0.0455696 1.00037 
0.00660928 -0.0335621 1.00082 
0.00817667 -0.0232712 1.00108 
0.00903065 -0.0164365 1.00119 
0.00956879 -0.0115687 1.00124 
0.0105164 -0.00751029 1.00125 
0.011176 -0.00497375 1.00124 
0.0114814 -0.00285872 1.00123 
0.0110462 0.0012046 1.00123 
0.0106872 0.00413132 1.00121 
0.0102348 0.00407132 1.00119 
0.00972386 0.00219241 1.0012 
0.00917233 0.000701847 1.0012 
0.00938727 0.000341057 1.0012 
0.00896437 0.000681676 1.0012 
0.00907372 0.00143629 1.00119 
0.00906965 0.00262864 1.00119 
0.00897792 0.00420577 1.00118 
0.00894436 0.00628437 1.00119 
0.00903238 0.00909751 1.00118 
0.00879044 0.0130221 1.00116 
0.00816732 0.0178018 1.00111 
0.00688008 0.0237024 1.001 
0.00527515 0.0328361 1.00078 
0.00328037 0.0461043 1.00029 
0.000714699 0.0624246 0.999422 
-0.00385011 0.0849122 0.997547 
-0.010654 0.116705 0.994658 
-0.0178546 0.150907 0.989656 
-0.0256531 0.190522 0.982518 
-0.0359062 0.240573 0.97101 
-0.0476218 0.287243 0.957437 
-0.0507695 0.327604 0.94431 
-0.0496068 0.36489 0.930363 
-0.0456721 0.407701 0.912631 
-0.0233025 0.471754 0.881395 
0.03589 0.721538 0.691322 
0.0112005 0.992313 0.120654 
-0.0186659 0.660409 -0.750232 
-0.0152903 0.630032 -0.775057 
0.0126266 0.449344 -0.895102 
0.0478092 0.401664 -0.915271 
0.0535714 0.366871 -0.929706 
0.0433942 0.301837 -0.953319 
0.0361208 0.255655 -0.967153 
0.0221564 0.194515 -0.981831 
0.0145968 0.151469 -0.989614 
0.00755642 0.117284 -0.994611 
0.00280919 0.0870225 -0.997583 
-0.000745361 0.062024 -0.999478 
-0.00362193 0.0428494 -1.00045 
-0.00603536 0.0306416 -1.00085 
-0.00749952 0.0230376 -1.00102 
-0.00847948 0.0171949 -1.00112 
-0.00906599 0.0122106 -1.00116 
-0.00895363 0.00864836 -1.00117 
-0.00919238 0.00592291 -1.00118 
-0.00908257 0.00393784 -1.00119 
-0.00927698 0.00233012 -1.0012 
-0.00897325 0.00128182 -1.00121 
-0.00943194 0.000632506 -1.0012 
-0.00905206 0.000452967 -1.00121 
-0.00937489 0.0010521 -1.00121 
-0.0093277 0.00274895 -1.00121 
-0.0102101 0.00446427 -1.00101 
-0.0100356 0.00421972 -1.00123 
-0.0105955 0.000745592 -1.00124 
-0.0115591 -0.00336071 -1.00124 
-0.0110178 -0.00533698 -1.00124 
-0.010046 -0.00797653 -1.00125 
-0.0100374 -0.0124649 -1.00123 
-0.00891576 -0.0169586 -1.00119 
-0.00842535 -0.0242826 -1.00108 
-0.00672316 -0.0344245 -1.00079 
-0.00533789 -0.0457994 -1.00035 
-0.00532968 -0.0631914 -0.999428 
-0.00352288 -0.0855958 -0.996906 
-0.000796582 -0.0869428 0.996774 
0.00133241 -0.0649254 0.999074 
0.00289855 -0.0478828 1.00025 
0.00349258 -0.0343458 1.00099 
0.00500465 -0.0261506 1.0008 
0.00568989 -0.0179388 1.00118 
0.00642303 -0.0130134 1.00123 
0.00716641 -0.00903982 1.00125 
0.00749254 -0.00594855 1.00125 
0.00744939 -0.00272573 1.00126 
0.00706437 0.00170989 1.00125 
0.00627868 0.0048577 1.00123 
0.00583262 0.00454401 1.00121 
0.00540625 0.00250924 1.00121 
0.00502754 0.000826523 1.00121 
0.00509394 0.000305496 1.00122 
0.00454258 0.000585811 1.00141 
0.00462384 0.00135285 1.00102 
0.00472872 0.00248754 1.0012 
0.00467342 0.00403703 1.00138 
0.00485701 0.00609123 1.00119 
0.00489816 0.0089822 1.00099 
0.00477138 0.0128336 1.00117 
0.00424142 0.0179037 1.00131 
0.00328297 0.0242395 1.00079 
0.00201532 0.0328948 1.00076 
-0.000153544 0.0462083 1.00048 
-0.00281394 0.0638242 0.999098 
-0.0072029 0.0857753 0.997835 
-0.0139883 0.11765 0.994239 
-0.0226209 0.157203 0.988521 
-0.033736 0.201852 0.979983 
-0.0432577 0.243818 0.969726 
-0.0602762 0.301444 0.952632 
-0.0699906 0.346076 0.936402 
-0.076706 0.386286 0.919807 
-0.0757634 0.414985 0.907338 
0.0271829 0.556032 0.830395 
0.0459645 0.732433 0.680436 
0.0095752 1.00114 0.0225185 
-0.0362623 0.786337 -0.619202 
-0.00177734 0.52103 -0.853897 
0.0650013 0.436777 -0.897737 
0.0787301 0.411837 -0.908434 
0.0631974 0.346806 -0.936637 
0.0542404 0.298995 -0.953591 
0.0366494 0.23597 -0.972307 
0.0271043 0.192586 -0.981865 
0.0189137 0.153317 -0.989188 
0.011539 0.119829 -0.993799 
0.00682401 0.0937348 -0.996892 
0.00279834 0.0665777 -0.999339 
-0.000220959 0.0466224 -1.00026 
-0.00228292 0.0338187 -1.00074 
-0.00372635 0.0255487 -1.00076 
-0.00428503 0.0186203 -1.0013 
-0.00484022 0.0133071 -1.00097 
-0.00480851 0.00927476 -1.00119 
-0.00502902 0.00640031 -1.00119 
-0.00473696 0.00427222 -1.00138 
-0.00504278 0.0026492 -1.00102 
-0.0045584 0.00146111 -1.00122 
-0.00494163 0.000666937 -1.00122 
-0.00497696 0.000376795 -1.00122 
-0.00493277 0.000922112 -1.00122 
-0.00517392 0.00250511 -1.00122 
-0.00567348 0.00474078 -1.00142 
-0.00577617 0.00519194 -1.00124 
-0.00647092 0.00182343 -1.00126 
-0.00739684 -0.00305012 -1.00127 
-0.00752905 -0.00607004 -1.00125 
-0.00697756 -0.00923301 -1.00124 
-0.0067994 -0.0132925 -1.00122 
-0.00574015 -0.0179382 -1.00117 
-0.00533907 -0.0256521 -1.00103 
-0.00395072 -0.0346483 -1.00077 
-0.00252268 -0.0472363 -1.00026 
-0.00169362 -0.0646528 -0.999314 
0.000562078 -0.08683 -0.996793 
-0.00138079 -0.0882983 0.996647 
-0.000104687 -0.0652502 0.999245 
0.000932593 -0.0479579 1.00021 
0.00201634 -0.0353435 1.0005 
0.00300346 -0.0255407 1.00121 
0.00374011 -0.0184847 1.00114 
0.00464026 -0.0137124 1.00119 
0.00494945 -0.0092348 1.00123 
0.00467891 -0.00569237 1.00124 
0.00423651 -0.00162868 1.00125 
0.00389395 0.00329612 1.00124 