# vtk DataFile Version 3.0 
Exported using Morpho https://github.com/Morpho-lang/morpho 
ASCII 
DATASET UNSTRUCTURED_GRID 

POINTS 1978 float 
-8.48526 -2.8284 -1.52785e-07 
-8.25927 -2.82839 -3.02476e-07 
-8.03461 -2.82838 5.906e-07 
-7.7583 -2.82842 6.46956e-07 
-7.47703 -2.8284 4.57583e-07 
-7.21853 -2.82841 2.77333e-07 
-7.01027 -2.82841 2.13044e-07 
-6.77638 -2.82841 1.82166e-07 
-6.56177 -2.82841 1.40795e-07 
-6.34517 -2.8284 1.14292e-07 
-6.14288 -2.82841 8.66546e-08 
-5.9247 -2.82841 6.50407e-08 
-5.71219 -2.82841 4.64626e-08 
-5.50974 -2.82841 2.33322e-08 
-5.29454 -2.82841 1.2371e-08 
-5.08441 -2.82841 1.4387e-09 
-4.86847 -2.82841 -8.94834e-09 
-4.66259 -2.82841 -2.49595e-08 
-4.44372 -2.82841 -3.81424e-08 
-4.22655 -2.82841 -5.48889e-08 
-4.00865 -2.82841 -7.43547e-08 
-3.79778 -2.82841 -9.86839e-08 
-3.582 -2.82841 -1.30201e-07 
-3.37086 -2.82841 -1.6654e-07 
-3.1497 -2.82841 -2.09218e-07 
-2.94064 -2.82841 -2.48622e-07 
-2.73105 -2.82842 -2.95522e-07 
-2.53651 -2.82842 -3.28822e-07 
-2.32309 -2.82842 -3.33353e-07 
-2.11473 -2.82842 -3.46456e-07 
-1.90241 -2.82842 -2.77223e-07 
-1.69762 -2.82842 -2.38211e-07 
-1.49928 -2.82843 -2.13311e-07 
-1.28536 -2.82842 -5.19422e-08 
-1.10101 -2.82841 -4.33455e-07 
-0.851624 -2.82842 -3.29645e-07 
-0.634668 -2.82839 -2.45318e-07 
-0.462687 -2.82839 7.25988e-07 
-0.217473 -2.82838 -1.54835e-06 
0.0334402 -2.82835 1.61289e-07 
0.228621 -2.82838 4.18596e-07 
0.430821 -2.82839 2.0318e-07 
0.640537 -2.82839 1.71182e-07 
0.866455 -2.82841 3.63845e-07 
1.08495 -2.82842 2.60445e-07 
1.26625 -2.82843 1.62809e-07 
1.44351 -2.82843 -9.58787e-08 
1.7011 -2.82842 2.82693e-07 
1.89044 -2.82843 2.76396e-07 
2.10871 -2.82842 2.74383e-07 
2.33275 -2.82842 3.8615e-07 
2.52206 -2.82842 3.17447e-07 
2.7476 -2.82841 2.88389e-07 
2.96639 -2.82841 2.53618e-07 
3.1753 -2.82841 2.06478e-07 
3.38208 -2.82841 1.50614e-07 
3.60768 -2.82841 1.27231e-07 
3.81033 -2.82841 9.75674e-08 
4.02512 -2.82841 6.93494e-08 
4.25184 -2.82841 5.82345e-08 
4.4508 -2.82841 3.63689e-08 
4.66321 -2.82841 2.29283e-08 
4.8716 -2.82841 1.04524e-08 
5.07506 -2.82841 -2.63462e-09 
5.28981 -2.82841 -1.18577e-08 
5.5007 -2.82841 -2.68333e-08 
5.70415 -2.82841 -4.47621e-08 
5.9222 -2.82841 -5.93653e-08 
6.14302 -2.82841 -9.00547e-08 
6.34236 -2.82841 -1.1945e-07 
6.58081 -2.82841 -1.37129e-07 
6.79165 -2.82841 -1.95101e-07 
6.99217 -2.82841 -2.32716e-07 
7.25186 -2.8284 -2.86043e-07 
7.48248 -2.82841 -4.16919e-07 
7.72488 -2.82841 -4.9382e-07 
7.99356 -2.82841 -6.92678e-07 
8.17881 -2.82838 2.50376e-07 
8.48525 -2.82839 2.50009e-07 
-8.48527 -2.59192 1.36686e-07 
-8.25118 -2.5794 5.94265e-07 
-8.02103 -2.57241 -1.68435e-07 
-7.79813 -2.6291 2.12481e-07 
-7.53596 -2.63117 2.65122e-07 
-7.2493 -2.61872 2.08048e-07 
-6.98978 -2.57202 -5.46476e-08 
-6.77936 -2.6011 5.13233e-08 
-6.5443 -2.58885 3.78902e-08 
-6.3338 -2.57173 -4.5609e-08 
-6.11059 -2.59668 -3.59437e-09 
-5.89224 -2.58858 -1.03547e-08 
-5.6807 -2.57529 -1.69643e-08 
-5.46365 -2.59117 -2.75854e-09 
-5.24854 -2.58513 -6.62009e-09 
-5.03048 -2.59233 -1.40178e-09 
-4.82036 -2.58067 3.82249e-09 
-4.60176 -2.59507 3.84741e-09 
-4.38234 -2.59205 8.85745e-09 
-4.16305 -2.59087 1.12166e-08 
-3.95019 -2.581 2.98393e-08 
-3.73593 -2.58558 2.19081e-08 
-3.5233 -2.58193 5.09123e-08 
-3.30522 -2.59704 2.98705e-09 
-3.09299 -2.58999 6.93345e-08 
-2.88175 -2.5975 2.01752e-08 
-2.68161 -2.58719 1.57328e-07 
-2.4742 -2.61193 -4.80462e-08 
-2.25847 -2.60671 4.85356e-09 
-2.04754 -2.61009 -3.72605e-08 
-1.83502 -2.59855 9.89348e-08 
-1.62863 -2.58719 9.96327e-08 
-1.42142 -2.60045 1.5112e-07 
-1.22818 -2.54896 -1.80404e-07 
-0.999266 -2.61822 -4.71544e-07 
-0.776918 -2.57639 1.04725e-06 
-0.587156 -2.47863 -1.2527e-06 
-0.398657 -2.51566 -3.37421e-06 
-0.196124 -2.56956 6.63403e-07 
-0.000863137 -2.45908 2.62877e-06 
0.200546 -2.48217 -4.77264e-07 
0.400985 -2.52421 1.06087e-07 
0.606349 -2.55259 -2.70022e-07 
0.8278 -2.58946 -1.40075e-08 
1.05479 -2.59225 1.9216e-07 
1.27242 -2.55777 -1.40206e-07 
1.51439 -2.65285 5.6493e-07 
1.72372 -2.59047 -4.09963e-07 
1.93709 -2.62169 2.59141e-07 
2.166 -2.62484 2.39161e-07 
2.36573 -2.58101 -3.40096e-07 
2.58082 -2.61683 1.22816e-07 
2.80294 -2.60658 4.61861e-09 
3.01102 -2.59112 -7.46707e-08 
3.21801 -2.58274 -7.00381e-08 
3.44031 -2.60143 1.5761e-08 
3.64731 -2.57405 -6.8645e-08 
3.86215 -2.58777 -1.387e-08 
4.09056 -2.60169 6.63871e-09 
4.29971 -2.57028 -3.17236e-08 
4.51451 -2.58927 -2.90296e-09 
4.72884 -2.58596 -3.91516e-09 
4.9409 -2.58092 5.32939e-10 
5.15531 -2.59484 2.82828e-09 
5.37381 -2.58964 3.02752e-09 
5.58472 -2.57948 1.56933e-08 
5.80049 -2.59489 4.05819e-09 
6.02495 -2.5955 -4.30286e-09 
6.23825 -2.56711 5.27967e-08 
6.45763 -2.60886 -5.63737e-08 
6.68457 -2.5765 2.90551e-08 
6.89313 -2.56129 1.07056e-07 
7.11929 -2.62154 -1.76299e-07 
7.36867 -2.59148 -2.80202e-08 
7.60603 -2.60252 -1.55648e-07 
7.85933 -2.62567 -3.28957e-07 
8.06864 -2.53101 3.36997e-07 
8.29801 -2.63942 -8.41562e-07 
8.48526 -2.52363 5.52916e-08 
-8.48524 -2.35225 1.07346e-07 
-8.22788 -2.34696 -1.2205e-07 
-7.98165 -2.33476 -5.34747e-07 
-7.74841 -2.40926 -4.13474e-07 
-7.56504 -2.25011 -2.42408e-07 
-7.44814 -2.44482 -4.66905e-07 
-7.17555 -2.39675 -3.71147e-07 
-6.93989 -2.32496 -2.5537e-07 
-6.70949 -2.37987 -2.55648e-07 
-6.48304 -2.34623 -1.88226e-07 
-6.2374 -2.35276 -1.30884e-07 
-6.02166 -2.35681 -1.06041e-07 
-5.80438 -2.34176 -7.31058e-08 
-5.57653 -2.34603 -5.5819e-08 
-5.36271 -2.35108 -3.41044e-08 
-5.13933 -2.3555 -1.26571e-08 
-4.92724 -2.34408 9.00461e-09 
-4.70433 -2.357 3.08937e-08 
-4.48593 -2.36082 5.69486e-08 
-4.26433 -2.35806 8.51196e-08 
-4.0488 -2.34287 1.1531e-07 
-3.83193 -2.34197 1.54024e-07 
-3.61887 -2.3415 2.02187e-07 
-3.39883 -2.35711 2.64476e-07 
-3.18753 -2.35739 3.33435e-07 
-2.97184 -2.36455 4.13038e-07 
-2.76668 -2.35399 4.78556e-07 
-2.55627 -2.37478 5.84645e-07 
-2.35035 -2.39594 7.01195e-07 
-2.1281 -2.3825 7.13745e-07 
-1.91832 -2.38284 7.3114e-07 
-1.6962 -2.35896 4.96635e-07 
-1.47665 -2.35511 -1.83207e-07 
-1.27912 -2.29284 1.76031e-07 
-1.05633 -2.37768 -1.69733e-07 
-0.841101 -2.32483 -1.33527e-06 
-0.625284 -2.2244 1.03611e-07 
-0.392213 -2.17176 9.90327e-07 
-0.196555 -2.24278 -1.55108e-06 
0.0324629 -2.10211 -2.93927e-06 
0.242878 -2.13736 4.35763e-06 
0.439199 -2.20436 -2.86401e-06 
0.637824 -2.25299 1.38301e-06 
0.834861 -2.33964 1.15271e-06 
1.06272 -2.35017 6.45801e-07 
1.2761 -2.31725 3.39684e-07 
1.48029 -2.44033 -2.7978e-07 
1.66472 -2.35941 -4.93659e-07 
1.88261 -2.39255 -7.97035e-07 
2.09112 -2.42118 -7.87708e-07 
2.3011 -2.36055 -6.62621e-07 
2.52718 -2.38415 -6.29133e-07 
2.73372 -2.39253 -5.45067e-07 
2.95007 -2.35644 -4.20577e-07 
3.15354 -2.34363 -3.4145e-07 
3.37026 -2.36701 -2.79126e-07 
3.57635 -2.33387 -2.08839e-07 
3.78966 -2.34276 -1.64649e-07 
4.00762 -2.37013 -1.28673e-07 
4.21716 -2.33509 -8.64666e-08 
4.43964 -2.34444 -6.13286e-08 
4.65001 -2.34723 -3.64234e-08 
4.86268 -2.34465 -1.31866e-08 
5.08115 -2.35208 5.76889e-09 
5.292 -2.36075 2.67506e-08 
5.50838 -2.34219 4.64863e-08 
5.72688 -2.35282 7.12655e-08 
5.94326 -2.36604 9.98655e-08 
6.15891 -2.33525 1.24272e-07 
6.39285 -2.35693 1.59036e-07 
6.60165 -2.35611 2.03998e-07 
6.82738 -2.31029 2.27134e-07 
7.05686 -2.36675 3.09285e-07 
7.27555 -2.38738 3.68322e-07 
7.5367 -2.3683 3.50119e-07 
7.77796 -2.40113 3.85798e-07 
7.99308 -2.30703 4.44917e-07 
8.25563 -2.36653 -1.04448e-08 
8.48526 -2.27754 -3.34508e-08 
-8.48527 -2.09723 -9.76078e-08 
-8.26551 -2.11895 1.41713e-07 
-8.03456 -2.09544 -1.48417e-07 
-7.78768 -2.14765 -1.47389e-07 
-7.5137 -2.03362 -2.1237e-08 
-7.30804 -2.21785 -2.01715e-07 
-7.06947 -2.13054 -1.69801e-07 
-6.79629 -2.13185 -1.36824e-07 
-6.59012 -2.12993 -1.27813e-07 
-6.34782 -2.14013 -9.46504e-08 
-6.11808 -2.10959 -7.29167e-08 
-5.91238 -2.10979 -5.58696e-08 
-5.68811 -2.11933 -4.19792e-08 
-5.46762 -2.10826 -2.6851e-08 
-5.25222 -2.12515 -1.34644e-08 
-5.04033 -2.11074 -1.09019e-09 
-4.81794 -2.12297 1.20624e-08 
-4.60067 -2.12765 2.63198e-08 
-4.38286 -2.12958 4.14883e-08 
-4.17018 -2.11415 5.75154e-08 
-3.95359 -2.10548 7.91411e-08 
-3.74048 -2.10285 1.06309e-07 
-3.52213 -2.11806 1.38709e-07 
-3.31219 -2.121 1.78396e-07 
-3.09888 -2.13206 2.25283e-07 
-2.89399 -2.12661 2.73648e-07 
-2.68015 -2.13385 3.24113e-07 
-2.47353 -2.15161 3.98985e-07 
-2.26499 -2.17674 4.76267e-07 
-2.04133 -2.14783 3.924e-07 
-1.8241 -2.15637 3.67423e-07 
-1.58914 -2.12578 2.92148e-07 
-1.38922 -2.06423 -4.35874e-08 
-1.18206 -1.98166 -5.51594e-08 
-1.05467 -2.13334 -5.13754e-07 
-0.832949 -2.06217 8.70557e-07 
-0.603139 -1.95383 -1.99508e-06 
-0.349581 -1.87677 -2.9588e-06 
-0.136078 -1.91098 3.90444e-06 
-0.00396705 -1.6243 -2.77998e-06 
0.169643 -1.79069 3.41603e-06 
0.374041 -1.7954 -4.22519e-06 
0.556053 -1.90297 4.46105e-06 
0.766443 -2.00445 4.66752e-07 
0.965378 -2.09976 -3.21756e-07 
1.18694 -2.08492 1.92155e-08 
1.4551 -2.18028 -2.57042e-07 
1.66811 -2.12389 -1.93531e-07 
1.88067 -2.17232 -2.64732e-07 
2.10909 -2.19069 -4.60715e-07 
2.36376 -2.15862 -3.83883e-07 
2.57273 -2.14985 -3.67286e-07 
2.77999 -2.16108 -3.21698e-07 
2.985 -2.10957 -2.42505e-07 
3.20555 -2.12214 -1.98841e-07 
3.40637 -2.11851 -1.65739e-07 
3.62185 -2.09809 -1.18061e-07 
3.84087 -2.11764 -9.59875e-08 
4.0435 -2.12157 -7.23086e-08 
4.27287 -2.1099 -4.73161e-08 
4.48471 -2.10478 -3.24929e-08 
4.69782 -2.10932 -2.0264e-08 
4.91704 -2.11741 -6.39965e-09 
5.12992 -2.11474 6.14448e-09 
5.34122 -2.12568 1.82273e-08 
5.56536 -2.11418 3.02145e-08 
5.78244 -2.12162 4.62119e-08 
5.99241 -2.12273 6.26024e-08 
6.23439 -2.12212 7.96765e-08 
6.44428 -2.10562 1.00509e-07 
6.65745 -2.11239 1.2493e-07 
6.91495 -2.10029 1.45083e-07 
7.13108 -2.12949 1.7158e-07 
7.36357 -2.17548 1.79806e-07 
7.55715 -2.08153 5.9165e-08 
7.73933 -2.16937 1.73297e-07 
7.95344 -2.07389 1.37736e-07 
8.2012 -2.14286 1.45876e-07 
8.48526 -2.07976 -9.87789e-08 
-8.48525 -1.81039 -1.33189e-07 
-8.28851 -1.87066 2.04281e-07 
-7.88523 -1.90533 -1.04376e-07 
[...]
POINT_DATA 1978 
VECTORS vectors float
0.0137799 -0.0101539 0.999836 
0.0249389 -0.0625115 0.997738 
0.018563 -0.0888996 0.995893 
0.0146862 -0.0841216 0.996382 
0.0154413 -0.0685257 0.997561 
0.0177557 -0.0535699 0.998433 
0.0193956 -0.04299 0.998904 
0.020095 -0.0338665 0.999247 
0.0200833 -0.026304 0.999471 
0.0206881 -0.0201343 0.999602 
0.0206051 -0.0154118 0.999688 
0.0211947 -0.0111382 0.999733 
0.0210889 -0.00761406 0.999767 
0.0212197 -0.00476161 0.999782 
0.0214326 -0.00233169 0.999787 
0.0214601 -0.000356084 0.999789 
0.0213897 0.00167831 0.999788 
0.0212062 0.00379071 0.999787 
0.0212717 0.00632217 0.999774 
0.0210767 0.00936979 0.999754 
0.0209034 0.0132902 0.999712 
0.0207281 0.0182315 0.999638 
0.020371 0.0248208 0.999503 
0.0199761 0.0332928 0.999266 
0.0195534 0.0450695 0.998812 
0.0189929 0.0597615 0.99805 
0.0180798 0.0790253 0.996725 
0.0170189 0.101808 0.994675 
0.0159539 0.133562 0.990928 
0.0142046 0.172967 0.98484 
0.0124229 0.223518 0.974632 
0.0098709 0.284168 0.958732 
0.00719904 0.357213 0.934001 
0.00456224 0.452042 0.891988 
0.00166752 0.542073 0.840332 
-0.00125364 0.681134 0.732159 
-0.00257543 0.799883 0.600151 
-0.00298896 0.884128 0.467234 
-0.00209404 0.973261 0.22968 
0.000181407 0.999212 -0.0395916 
0.00205041 0.969262 -0.246014 
0.0028936 0.900253 -0.435357 
0.00261271 0.798744 -0.601666 
0.00102733 0.670948 -0.741506 
-0.00133987 0.551783 -0.83399 
-0.00370362 0.458163 -0.88886 
-0.00664632 0.377602 -0.925952 
-0.00959758 0.284099 -0.958756 
-0.0116886 0.22707 -0.973819 
-0.014399 0.175726 -0.984351 
-0.0154019 0.132857 -0.991031 
-0.0165337 0.103864 -0.994471 
-0.0182164 0.0777123 -0.99683 
-0.0188501 0.0577954 -0.998169 
-0.0193252 0.0432789 -0.998894 
-0.0201688 0.0325176 -0.999288 
-0.0205423 0.023828 -0.999524 
-0.0203438 0.0178166 -0.999653 
-0.0211931 0.0130823 -0.999711 
-0.0210628 0.00920515 -0.999755 
-0.0210931 0.00638702 -0.999775 
-0.0217109 0.0038706 -0.999776 
-0.0213249 0.00168564 -0.999789 
-0.0214067 -0.000313274 -0.99979 
-0.0216309 -0.00244175 -0.999782 
-0.0211652 -0.00478534 -0.999783 
-0.0209978 -0.00744133 -0.999771 
-0.0213035 -0.0108947 -0.999734 
-0.0203867 -0.0153369 -0.999693 
-0.0202739 -0.0200379 -0.999614 
-0.0206124 -0.0269587 -0.999445 
-0.019395 -0.0342525 -0.999242 
-0.019033 -0.0423973 -0.998943 
-0.0183519 -0.0550665 -0.998339 
-0.0171686 -0.0687545 -0.997508 
-0.0179312 -0.0839246 -0.996339 
-0.0179556 -0.0933342 -0.995493 
-0.0221746 -0.0772234 -0.996794 
-0.0198492 -0.00771984 -0.999742 
0.00358187 -0.0243505 0.999709 
0.0130807 -0.0540371 0.998455 
0.0308928 -0.0790053 0.99639 
0.0288034 -0.0815132 0.996262 
0.0288234 -0.0699002 0.997146 
0.0314485 -0.0550847 0.99799 
0.0392984 -0.0426586 0.998319 
0.0366628 -0.0341147 0.998746 
0.0389166 -0.02648 0.998896 
0.04284 -0.0203523 0.998874 
0.0396146 -0.0148388 0.999106 
0.0415894 -0.0108948 0.999076 
0.0443187 -0.0077029 0.998987 
0.0421492 -0.00472624 0.999101 
0.0436943 -0.0022586 0.999042 
0.0428057 1.62562e-05 0.999084 
0.0448032 0.00221469 0.998993 
0.0422034 0.00466821 0.999099 
0.0424579 0.00757 0.99907 
0.0421093 0.0111265 0.999052 
0.0427989 0.0155101 0.998964 
0.0411078 0.0211092 0.998933 
0.0408313 0.0284105 0.998763 
0.0376081 0.0381424 0.998566 
0.0377502 0.0508569 0.997993 
0.0352057 0.0671725 0.997122 
0.0347536 0.0873112 0.995576 
0.0291828 0.113289 0.993136 
0.0263965 0.148353 0.988585 
0.0222665 0.191629 0.981218 
0.0188195 0.246971 0.968844 
0.0144213 0.31481 0.949049 
0.00920085 0.395638 0.918364 
0.00583943 0.485112 0.874439 
0.00139743 0.601456 0.798909 
-0.00121536 0.726312 0.687365 
-0.00302952 0.827588 0.561329 
-0.00258894 0.914218 0.405202 
-0.00141613 0.97779 0.209558 
-0.000957829 0.999989 0.00225493 
0.000410598 0.976959 -0.213399 
0.00108744 0.91267 -0.408688 
0.000578065 0.817304 -0.576206 
-0.000841887 0.697468 -0.716615 
-0.00319332 0.570424 -0.821349 
-0.00731053 0.460908 -0.887426 
-0.00895765 0.354371 -0.935067 
-0.0171525 0.281641 -0.959371 
-0.0188939 0.219588 -0.975413 
-0.0228993 0.166673 -0.985751 
-0.0309911 0.130537 -0.99096 
-0.0293245 0.0991094 -0.994647 
-0.0331308 0.0745562 -0.996668 
-0.0369001 0.0566551 -0.997713 
-0.0391796 0.0429101 -0.998311 
-0.0376865 0.0315493 -0.998794 
-0.042618 0.0238621 -0.998806 
-0.0413042 0.0176194 -0.998992 
-0.0400107 0.0125372 -0.999122 
-0.045512 0.00900715 -0.998922 
-0.0429653 0.00591611 -0.999059 
-0.043768 0.00330523 -0.999036 
-0.0448767 0.000975823 -0.998991 
-0.0424183 -0.00131895 -0.999099 
-0.0431117 -0.00377074 -0.999063 
-0.0442121 -0.00635828 -0.999002 
-0.0410237 -0.00938082 -0.999115 
-0.0403464 -0.0133254 -0.999098 
-0.0438169 -0.0179538 -0.998878 
-0.0365738 -0.0235389 -0.999056 
-0.040739 -0.0306817 -0.9987 
-0.0417789 -0.0384751 -0.998386 
-0.0319845 -0.0484995 -0.998316 
-0.0354629 -0.0617004 -0.997467 
-0.0329475 -0.0746952 -0.996666 
-0.0296973 -0.0851023 -0.995933 
-0.0331559 -0.0753182 -0.996599 
-0.00590756 -0.0449747 -0.998984 
-0.00794519 -0.0230554 -0.999721 
0.00512828 -0.0214722 0.999776 
0.0246573 -0.0537676 0.998237 
0.0468183 -0.075955 0.99601 
0.0486688 -0.0769977 0.995844 
0.0565669 -0.0716249 0.995829 
0.0501441 -0.0657941 0.996573 
0.0546154 -0.0517743 0.997166 
0.0591713 -0.0409799 0.997409 
0.0585684 -0.0318975 0.997775 
0.0614115 -0.0247302 0.997808 
0.0619836 -0.0184459 0.997909 
0.0632138 -0.0139803 0.997904 
0.0647575 -0.0102968 0.99785 
0.065304 -0.00687295 0.997844 
0.0658361 -0.00409977 0.997824 
0.0662937 -0.00148288 0.9978 
0.0670827 0.000948965 0.997749 
0.0664626 0.00364751 0.997784 
0.0658661 0.00659334 0.997808 
0.0652274 0.0101182 0.997821 
0.0647851 0.0143549 0.997798 
0.0634384 0.0196526 0.997794 
0.0620492 0.0263947 0.997726 
0.0597674 0.0354107 0.997586 
0.0579573 0.0469177 0.997218 
0.0553131 0.0622075 0.996532 
0.0528147 0.0812687 0.995295 
0.0483956 0.105796 0.993212 
0.0431359 0.136333 0.989727 
0.037439 0.179074 0.983127 
0.0308259 0.229614 0.972798 
0.0233005 0.298543 0.954116 
0.015112 0.381643 0.924193 
0.00919814 0.469379 0.882954 
0.00269513 0.577326 0.816513 
-0.00143395 0.692767 0.721165 
-0.0040106 0.810902 0.585167 
-0.00439573 0.917425 0.397878 
-0.00329972 0.978247 0.207389 
-0.00198287 0.999362 -0.0354155 
-0.000306534 0.967265 -0.253746 
0.000854894 0.898718 -0.438514 
0.000508404 0.801976 -0.597358 
-0.00114009 0.693339 -0.720618 
-0.00480125 0.572796 -0.819687 
-0.0105694 0.46632 -0.884557 
-0.0157295 0.374495 -0.9271 
-0.0231339 0.307411 -0.951301 
-0.0299894 0.239201 -0.970513 
-0.0354394 0.187522 -0.981621 
-0.0427023 0.146252 -0.988329 
-0.0471421 0.109946 -0.992822 
-0.050619 0.0843483 -0.995152 
-0.055143 0.0640866 -0.996422 
-0.0581169 0.0490694 -0.997106 
-0.0591446 0.0365719 -0.997581 
-0.0623691 0.0279557 -0.997664 
-0.0634733 0.0208519 -0.997768 
-0.0633753 0.0151915 -0.997875 
-0.0661807 0.0111539 -0.997747 
-0.0664398 0.00743047 -0.997764 
-0.0668181 0.00444461 -0.997757 
-0.0672579 0.00176327 -0.997736 
-0.0668244 -0.00084666 -0.997766 
-0.0660697 -0.00334252 -0.997811 
-0.0662488 -0.00607688 -0.997786 
-0.0648804 -0.00903612 -0.997854 
-0.0631846 -0.0124765 -0.997925 
-0.063689 -0.0167968 -0.997831 
-0.0613049 -0.0222999 -0.997872 
-0.0601821 -0.028312 -0.997788 
-0.0604952 -0.0363239 -0.99751 
-0.0570436 -0.0460492 -0.997311 
-0.0546613 -0.0570391 -0.996876 
-0.0532138 -0.0704385 -0.996099 
-0.0496426 -0.0794005 -0.995607 
-0.0481958 -0.0763233 -0.995916 
-0.0216555 -0.0490716 -0.998554 
-0.00658402 -0.0214345 -0.999763 
0.0112911 -0.0173024 0.999791 
0.0214102 -0.0464073 0.998693 
0.0431609 -0.0720728 0.996464 
0.0525483 -0.0769478 0.995653 
0.0546909 -0.0703491 0.996027 
0.0583684 -0.0591477 0.996546 
0.059974 -0.0472869 0.997085 
0.0621422 -0.0356997 0.997433 
0.0635299 -0.0283846 0.99758 
0.0649209 -0.0216661 0.997659 
0.0660611 -0.016653 0.997681 
0.0670532 -0.0128207 0.997671 
0.0680214 -0.00920491 0.997646 
0.0688416 -0.00617596 0.997613 
0.0697528 -0.00334912 0.997563 
0.0701086 -0.0006916 0.997543 
0.0703495 0.00223436 0.997524 
0.0701894 0.00531155 0.997523 
0.0696115 0.00879502 0.997539 
0.0684719 0.012818 0.997575 
0.0670338 0.0177543 0.997597 
0.065459 0.0238436 0.997575 
0.0637624 0.0318081 0.997462 
0.0617448 0.041872 0.997218 
0.0593476 0.0551217 0.996719 
0.0563407 0.0718007 0.995831 
0.0525182 0.0940163 0.994189 
0.0481431 0.121174 0.991468 
0.0427603 0.155741 0.986877 
0.0351866 0.204637 0.978211 
0.0278103 0.263559 0.964248 
0.0190348 0.343877 0.938827 
0.011292 0.426438 0.904451 
0.00435255 0.522478 0.852648 
0.00229455 0.583913 0.811819 
-0.00251206 0.702942 0.711244 
-0.00521271 0.824105 0.566414 
-0.00508442 0.935073 0.354405 
-0.00366925 0.989798 0.142383 
-0.00180927 0.99996 0.00741021 
-0.000715672 0.983006 -0.183538 
0.000700468 0.924285 -0.381696 
0.00112511 0.845868 -0.533393 
0.00013617 0.734799 -0.678288 
-0.00278274 0.628652 -0.777685 
-0.00731599 0.513125 -0.85829 
-0.0156494 0.390337 -0.920547 
-0.0224108 0.314042 -0.949149 
-0.0299208 0.247416 -0.968451 
-0.037601 0.188548 -0.981351 
-0.0448664 0.139377 -0.989227 
-0.0500562 0.107827 -0.992913 
-0.0544099 0.0828071 -0.995084 
-0.057279 0.0641461 -0.9963 
-0.0605789 0.0480441 -0.997011 
-0.0628672 0.0369626 -0.997342 
-0.0645987 0.0279401 -0.997524 
-0.0665927 0.02071 -0.997569 
-0.0679091 0.0155763 -0.997574 
-0.068997 0.0109193 -0.997561 
-0.0697304 0.00724948 -0.997544 
-0.0702167 0.0039707 -0.997528 
-0.0704035 0.000932989 -0.997522 
-0.0701727 -0.00186716 -0.997537 
-0.0697188 -0.00458165 -0.99756 
-0.0687812 -0.00761566 -0.997607 
-0.0678797 -0.0107367 -0.99764 
-0.0667997 -0.0142509 -0.997669 
-0.0655624 -0.0191208 -0.997669 
-0.0641686 -0.0243544 -0.997646 
-0.0629018 -0.0307456 -0.99755 
-0.0611502 -0.040453 -0.997313 
-0.0598529 -0.0504303 -0.996937 
-0.058421 -0.0625846 -0.996332 
-0.0556528 -0.072363 -0.995829 
-0.0545621 -0.0776028 -0.995493 
-0.048678 -0.0767089 -0.995865 
-0.0317658 -0.056037 -0.997916 
-0.00678398 -0.0234561 -0.999709 
0.012015 -0.0167245 0.999785 
0.0179004 -0.0425354 0.998942 
0.0467842 -0.078493 0.995818 
0.0498911 -0.0761558 0.995851 
0.0480102 -0.0672312 0.996588 
0.0559011 -0.0588489 0.996704 
0.0522722 -0.0520018 0.997283 
0.0574459 -0.0419367 0.997472 
0.0567809 -0.0332662 0.997838 
0.0595115 -0.025981 0.997894 
0.0601556 -0.0204098 0.997985 
0.0596942 -0.0161061 0.998092 
0.0615035 -0.0122274 0.998037 
0.0625061 -0.00888536 0.99801 
0.0631691 -0.00574306 0.997991 
0.063807 -0.00286885 0.997963 
0.0645673 0.000326517 0.997918 
0.0646971 0.00359517 0.997903 
0.0645037 0.00711723 0.997897 
0.0633796 0.0109801 0.997934 
0.0619708 0.0155205 0.997962 
0.0603354 0.0210484 0.997961 
0.0590526 0.0279937 0.997867 
0.057316 0.0366149 0.997689 
0.0554317 0.0478431 0.997321 
0.0527426 0.0619924 0.996687 
0.0497324 0.0807279 0.9955 
0.0456774 0.104746 0.993455 
0.0415223 0.13451 0.990047 
0.0364458 0.173108 0.984234 
0.0282498 0.229696 0.972858 
0.021579 0.294547 0.955398 
0.0128165 0.373132 0.927696 
0.00523775 0.468602 0.8834 
-0.00241985 0.657769 0.753223 
-0.00462267 0.768107 0.640307 
-0.00455246 0.886315 0.463056 
-0.00402304 0.92976 0.368132 
-0.00262969 0.975967 0.217871 
-0.00224644 0.999983 0.00331214 
-0.000454712 0.976506 -0.215453 
0.000420239 0.913592 -0.406624 
0.00175534 0.834425 -0.551116 
0.00119511 0.722619 -0.691249 
-0.00188758 0.599676 -0.800245 
-0.00402846 0.50875 -0.860911 
-0.0105315 0.434118 -0.9008 
-0.0162611 0.349034 -0.936975 
-0.0234814 0.272102 -0.961988 
-0.0312264 0.2139 -0.976362 
-0.0385339 0.163059 -0.985869 
-0.04299 0.122989 -0.991482 
-0.0477125 0.0939714 -0.994436 
-0.0503925 0.0738429 -0.996001 
-0.0540277 0.0551394 -0.997021 
-0.0559688 0.0421948 -0.997546 
-0.0580323 0.0324563 -0.997792 
-0.0602433 0.0241562 -0.997896 
-0.0612678 0.0182597 -0.997959 
-0.0632789 0.0133457 -0.997912 
-0.063123 0.00901726 -0.99797 
-0.0638352 0.00527005 -0.997951 
-0.0643721 0.00180417 -0.997929 
-0.0640947 -0.00134643 -0.997948 
-0.0637582 -0.0044252 -0.997961 
-0.0634372 -0.00735887 -0.997964 
-0.062186 -0.0106867 -0.998012 
-0.0609594 -0.0141466 -0.998045 
-0.0609456 -0.0181283 -0.997981 
-0.0580729 -0.0234428 -0.998042 
-0.0569781 -0.0295333 -0.997944 
-0.0570793 -0.0371476 -0.997684 
-0.0543857 -0.0484223 -0.997351 
-0.0545793 -0.0600473 -0.996707 
-0.0504301 -0.0721868 -0.99612 
-0.0486512 -0.0789759 -0.995692 
-0.039876 -0.0732113 -0.996517 
-0.0246361 -0.0491699 -0.998486 
-0.00864155 -0.0233191 -0.999696 
0.0076108 -0.0203758 0.999765 
0.0157805 -0.0452393 0.998856 
0.0344759 -0.068793 0.997031 
0.038283 -0.0797427 0.996083 
0.0414367 -0.0772868 0.996151 
0.0426719 -0.0608518 0.99724 
0.0456207 -0.04611 0.9979 
0.0477949 -0.0381533 0.998134 
0.0489414 -0.0291587 0.998381 
0.0502203 -0.0234816 0.998467 
0.0496431 -0.0189556 0.998592 
0.0505091 -0.0146048 0.998622 
0.0521223 -0.0111546 0.998584 
0.0532725 -0.00784105 0.998554 
0.0529487 -0.00462367 0.998592 
0.0545862 -0.00128267 0.998513 
0.0547677 0.00224652 0.998502 
0.0545706 0.0059847 0.998497 
0.0534978 0.00990622 0.998524 
0.0524063 0.0143512 0.998528 
0.0511499 0.0196153 0.998503 
0.0500034 0.0262143 0.99841 
0.048404 0.0343756 0.998241 
0.0469332 0.0447937 0.997898 
0.0445087 0.0581077 0.997323 
0.0420447 0.0755291 0.996262 
0.0385494 0.0981025 0.994435 
0.0342816 0.128246 0.991155 
0.0304286 0.165778 0.9857 
0.0248257 0.215531 0.976187 
0.0163117 0.292743 0.956059 
0.00810471 0.383493 0.923514 
0.00189065 0.488144 0.872766 
-0.00219765 0.590185 0.807269 
-0.000885462 0.584416 0.811459 
-0.00420517 0.698074 0.716018 
-0.00447616 0.824741 0.565493 
-0.00514256 0.881969 0.471274 
-0.00317567 0.991992 0.126206 
-0.000130118 0.998766 0.0495107 
-0.000809423 0.990904 -0.134504 
-0.000935996 0.94541 -0.325868 
0.00107169 0.852907 -0.522043 
0.00212703 0.741646 -0.670793 
0.00209932 0.636315 -0.771432 
1.96616e-05 0.522799 -0.852462 
-0.00728357 0.4117 -0.911299 
-0.0134733 0.324483 -0.945801 
-0.0195536 0.255855 -0.966523 
-0.0277295 0.19875 -0.979663 
-0.0331811 0.152872 -0.987696 
-0.0364922 0.115022 -0.992698 
-0.0387075 0.0909699 -0.995107 
-0.0434915 0.0683021 -0.996722 
-0.0453654 0.0523872 -0.997601 
-0.0467782 0.040247 -0.998099 
-0.0497696 0.0303717 -0.998304 
-0.0505577 0.0232872 -0.998455 
-0.0518026 0.017371 -0.998511 
-0.053781 0.0125459 -0.998479 
-0.0530613 0.0081373 -0.998563 
-0.0540295 0.00416476 -0.998536 
-0.0538893 0.00060567 -0.998552 
-0.0539114 -0.00284571 -0.998547 
-0.0531555 -0.00610494 -0.998573 
-0.0534121 -0.00924518 -0.998535 
-0.0515275 -0.0126334 -0.998597 
-0.0509836 -0.0163289 -0.998571 
-0.0505145 -0.0203494 -0.998521 
-0.0473405 -0.0259097 -0.998548 
-0.0469555 -0.0325884 -0.998371 
-0.0481186 -0.041079 -0.998001 
-0.0437795 -0.0509775 -0.997745 
-0.0458965 -0.0612646 -0.997071 
-0.0414579 -0.0736371 -0.996428 
-0.0410651 -0.0803048 -0.995928 
-0.0334619 -0.0757996 -0.996561 
-0.0186089 -0.046422 -0.99875 
-0.0069673 -0.0226025 -0.999723 
0.00447297 -0.0237331 0.999709 
0.0142645 -0.0527512 0.998504 
0.0285524 -0.073312 0.996898 
0.0304467 -0.081049 0.996249 
0.0357767 -0.0730685 0.99669 
0.0318312 -0.0631697 0.997501 
0.0366815 -0.0516127 0.997998 
0.0344421 -0.0411334 0.998566 
0.0394723 -0.0337686 0.998654 
0.0382879 -0.0270771 0.998905 
0.0389135 -0.0223443 0.998998 
0.0404552 -0.0177346 0.999029 
0.0404812 -0.0139903 0.999087 
0.0424351 -0.0106095 0.999048 
0.0430975 -0.00730003 0.999049 
0.0431876 -0.00366383 0.999065 
0.0443973 -0.000127019 0.999019 
0.0443717 0.00368335 0.999013 
0.0434079 0.00755954 0.999034 
0.0426428 0.0117959 0.999026 
0.0419001 0.016639 0.998988 
0.04106 0.0223655 0.998911 
0.0398495 0.0293232 0.99878 
0.0385514 0.0381887 0.998532 
0.0369596 0.0492949 0.998105 
0.0348782 0.0641429 0.997336 
0.0322904 0.0832489 0.996011 
0.0290428 0.109019 0.993621 
0.0248516 0.143838 0.989295 
0.0211257 0.187002 0.982139 
0.0160765 0.250443 0.968004 
0.00826051 0.338328 0.940999 
0.00162014 0.44904 0.893518 
-0.00190345 0.551809 0.83397 
-0.00477969 0.767415 0.641137 
-0.00486698 0.837644 0.546195 
-0.00169192 0.945368 0.326003 
-1.97655e-05 0.931595 0.363673 
-0.00431034 0.957201 0.289385 
0.001178 0.994869 0.100973 
-0.00131157 0.999523 -0.0306187 
-0.000872855 0.974926 -0.222474 
-0.000697835 0.937811 -0.347134 
0.00205685 0.820094 -0.572226 
0.00324188 0.695498 -0.718534 
0.00288691 0.603174 -0.797608 
-0.00303458 0.421565 -0.906797 
-0.0076665 0.336241 -0.941752 
-0.0130168 0.263327 -0.964625 
-0.020282 0.203293 -0.978914 
-0.021596 0.170201 -0.985179 
-0.0274428 0.136126 -0.990316 
-0.0280546 0.10647 -0.993926 
-0.0328819 0.0800369 -0.996255 
-0.0352931 0.0616582 -0.997479 
-0.0367561 0.0471895 -0.998215 
-0.0392235 0.0354475 -0.998607 
-0.040201 0.0273502 -0.998822 
-0.0414429 0.0206311 -0.998933 
-0.0425691 0.0150558 -0.998985 
-0.0435969 0.0105403 -0.998999 
-0.043521 0.00585315 -0.999041 
-0.0434136 0.00189941 -0.999061 
-0.043644 -0.00194372 -0.99905 
-0.0429335 -0.0055409 -0.999068 
-0.0429064 -0.00903597 -0.999043 
-0.0419065 -0.0123183 -0.999051 
-0.0411548 -0.016007 -0.99903 
-0.0397714 -0.0201065 -0.999012 
-0.0385292 -0.0246839 -0.998958 
-0.0369109 -0.0314768 -0.998829 
-0.0377691 -0.0398885 -0.998496 
-0.0347577 -0.0513713 -0.99808 
-0.0352452 -0.0648121 -0.99728 
-0.0310746 -0.076398 -0.996598 
-0.0321482 -0.0817249 -0.99614 
-0.0259606 -0.07897 -0.996539 
-0.0179469 -0.054975 -0.998324 
-0.00462189 -0.0233097 -0.999719 
0.00371115 -0.0243586 0.999695 
0.0109439 -0.0528794 0.99854 
0.0231092 -0.078666 0.996634 
0.0218385 -0.08321 0.996296 
0.0270476 -0.0770184 0.996668 
0.0243153 -0.0653674 0.99757 
0.0274769 -0.0507078 0.998341 
0.0259921 -0.040048 0.998865 
0.0298954 -0.0324929 0.99903 
0.0281189 -0.026978 0.999246 
0.0306354 -0.0217299 0.9993 
0.0317582 -0.0175447 0.999347 
0.0316651 -0.0139134 0.999408 
0.0335857 -0.0104409 0.999386 
0.0346506 -0.00668102 0.999381 
0.0342093 -0.00275196 0.999417 
0.0353152 0.00114983 0.99938 
0.0345119 0.00515046 0.999396 
0.033752 0.00943427 0.999392 
0.0335145 0.0141929 0.999342 
0.0329275 0.0195548 0.999271 
0.0320311 0.0259078 0.999156 
0.0310419 0.0339392 0.998947 
0.0296314 0.0441252 0.998592 
0.0282024 0.0573399 0.997961 
0.0259545 0.0748565 0.996862 
0.0234041 0.0980625 0.994911 
0.0201599 0.129147 0.991427 
0.0161973 0.171766 0.985011 
0.0131412 0.225164 0.974238 
0.00823547 0.29462 0.955586 
0.00260365 0.397437 0.917632 
-0.00093262 0.503491 0.864006 
-0.003482 0.628852 0.777524 
-0.00401571 0.65474 0.755847 
-0.00190677 0.857396 0.51466 
0.00436858 0.970128 0.242634 
0.00554224 0.996224 0.0866762 
0.00449197 0.999311 0.0366964 
0.00106211 0.99994 -0.0113059 
-0.000957341 0.998985 -0.0449853 
-0.00299434 0.996708 -0.0810554 
-0.00408499 0.9548 -0.297137 
0.000340247 0.822708 -0.568502 
0.00347859 0.673981 -0.738742 
0.00306107 0.561389 -0.827557 
0.00120319 0.492114 -0.870536 
-0.00136843 0.39177 -0.920069 
-0.00537248 0.30989 -0.950763 
-0.0108785 0.236068 -0.971683 
-0.0156712 0.177307 -0.984036 
-0.0200654 0.132557 -0.990979 
-0.0233934 0.0952949 -0.99518 
-0.0259981 0.0731971 -0.996984 
-0.0281178 0.0563174 -0.998022 
-0.030149 0.0422447 -0.998657 
-0.031023 0.032649 -0.99899 
-0.0322753 0.0248699 -0.999175 
-0.0333484 0.018617 -0.999275 
-0.0336431 0.0135127 -0.999349 
-0.0353451 0.00883681 -0.99934 
-0.0342014 0.00439644 -0.999411 
-0.0345497 0.00018273 -0.999408 
-0.0340921 -0.00367908 -0.999417 
-0.0339752 -0.00754065 -0.999399 
-0.033102 -0.0110375 -0.999396 
-0.0329157 -0.0145549 -0.999357 
-0.031558 -0.0182341 -0.999341 
-0.0297753 -0.0223642 -0.999312 
-0.0298225 -0.0276055 -0.999178 
-0.0273272 -0.0340971 -0.99905 
-0.0290774 -0.0411292 -0.998736 
-0.025595 -0.050691 -0.998392 
-0.0270755 -0.0625086 -0.997683 
-0.0238171 -0.0754265 -0.996872 
-0.0232568 -0.0832411 -0.996262 
-0.0186047 -0.0779022 -0.996786 
-0.0116571 -0.0496287 -0.998702 
-0.00411943 -0.0241069 -0.999702 
0.00295284 -0.0245726 0.999694 
0.00810727 -0.0532354 0.99855 
0.016243 -0.0790246 0.99674 
0.0158611 -0.084776 0.996277 
0.0196896 -0.0768886 0.99685 
0.0173395 -0.0646923 0.99776 
0.0206326 -0.0527515 0.9984 