# vtk DataFile Version 3.0 
Exported using Morpho https://github.com/Morpho-lang/morpho 
ASCII 
DATASET UNSTRUCTURED_GRID 

POINTS 1978 float 
-12 -4 4.34161e-14 
-11.6163 -4 -3.82084e-12 
-11.3231 -4 -3.54558e-12 
-10.9808 -4 -2.64181e-12 
-10.6533 -4 -1.97153e-12 
-10.3028 -4 -1.49024e-12 
-9.9911 -4 -1.0332e-12 
-9.6519 -4 -6.84776e-13 
-9.31376 -4 -3.7337e-13 
-9.00008 -4 -1.59351e-13 
-8.69016 -4 -4.2126e-14 
-8.37748 -4 -6.34315e-14 
-8.07661 -4 -3.90864e-14 
-7.76768 -4 -6.81268e-14 
-7.47517 -4 -7.96155e-14 
-7.19339 -4 -6.81235e-14 
-6.91006 -4 -1.87373e-13 
-6.60234 -4 -1.27944e-13 
-6.29651 -4 -6.18974e-14 
-5.9886 -4 1.96022e-14 
-5.68507 -4 1.28662e-13 
-5.38988 -4 2.50665e-13 
-5.10251 -4 4.10929e-13 
-4.81033 -4 6.48497e-13 
-4.50389 -4 9.397e-13 
-4.20509 -4 1.31074e-12 
-3.90225 -4 2.0012e-12 
-3.57555 -4 2.92538e-12 
-3.25898 -4 3.87283e-12 
-2.94633 -4 4.98502e-12 
-2.64229 -4 6.57227e-12 
-2.32259 -4 6.4262e-12 
-2.07143 -4 5.43349e-12 
-1.79044 -4 2.86632e-12 
-1.53403 -4 -5.0171e-12 
-1.33054 -4 -3.09072e-11 
-1.12732 -4 -7.22812e-11 
-0.948912 -4 3.38778e-11 
-0.498163 -4 -8.26745e-10 
-0.280478 -4 5.72863e-09 
0.381938 -4 7.36855e-09 
0.923449 -4 -3.71436e-10 
1.12615 -4 1.03084e-10 
1.32779 -4 1.35521e-10 
1.54068 -4 1.59136e-11 
1.81834 -4 -1.88591e-12 
2.0633 -4 -5.78849e-12 
2.41465 -4 -7.44038e-12 
2.70657 -4 -5.74862e-12 
3.01989 -4 -5.02787e-12 
3.33467 -4 -3.50685e-12 
3.61013 -4 -2.4099e-12 
3.90443 -4 -1.92355e-12 
4.20115 -4 -1.38079e-12 
4.5038 -4 -9.96491e-13 
4.80941 -4 -6.41556e-13 
5.10959 -4 -4.04788e-13 
5.4101 -4 -2.40516e-13 
5.7116 -4 -1.03754e-13 
5.99909 -4 -6.18096e-15 
6.30386 -4 5.69228e-14 
6.58017 -4 1.18597e-13 
6.89268 -4 1.22132e-13 
7.18203 -4 1.22558e-13 
7.48028 -4 1.05963e-13 
7.78151 -4 1.0969e-13 
8.07485 -4 6.17659e-14 
8.36634 -4 6.6908e-14 
8.66155 -4 4.42684e-14 
8.94293 -4 1.40281e-13 
9.28817 -4 3.33159e-13 
9.61933 -4 5.93435e-13 
9.91794 -4 1.03014e-12 
10.2854 -4 1.44129e-12 
10.6122 -4 2.0422e-12 
10.9861 -4 2.73095e-12 
11.3077 -4 3.40501e-12 
11.5982 -4 3.82326e-12 
12 -4 8.68599e-14 
-12 -3.61915 1.1343e-13 
-11.709 -3.70655 2.09355e-13 
-11.3659 -3.6211 5.16179e-13 
-11.0593 -3.67532 5.59032e-13 
-10.7202 -3.66339 5.7153e-13 
-10.3826 -3.68699 2.14284e-13 
-10.0393 -3.65356 1.78409e-13 
-9.71928 -3.68124 -3.75647e-14 
-9.38081 -3.68234 2.92503e-14 
-9.05293 -3.66261 4.29871e-14 
-8.7405 -3.66364 5.25519e-14 
-8.42598 -3.67096 3.07866e-14 
-8.10956 -3.66078 2.42807e-14 
-7.80114 -3.66977 1.72397e-14 
-7.4933 -3.65588 -4.97787e-14 
-7.19662 -3.64412 1.05222e-12 
-6.88641 -3.67289 -9.00876e-13 
-6.57736 -3.66999 2.31776e-13 
-6.26791 -3.67291 -3.19819e-14 
-5.95911 -3.6712 -5.57152e-14 
-5.65539 -3.66605 -4.0039e-14 
-5.36006 -3.65972 -7.40415e-14 
-5.06085 -3.66593 -1.03977e-13 
-4.74912 -3.68073 -1.82332e-13 
-4.44276 -3.66855 -2.47303e-13 
-4.13326 -3.67105 -2.17011e-13 
-3.80557 -3.69332 -3.85862e-13 
-3.47487 -3.68217 -4.42642e-13 
-3.1454 -3.67754 -3.13804e-12 
-2.81967 -3.66526 1.99198e-12 
-2.50128 -3.68874 5.40337e-12 
-2.21537 -3.59814 -1.82553e-11 
-1.94697 -3.67773 -1.95671e-12 
-1.67696 -3.69212 1.16154e-10 
-1.43318 -3.67736 -2.99873e-10 
-1.29162 -3.47389 4.46224e-10 
-1.20272 -3.74615 5.11389e-10 
-0.796317 -3.90449 6.12424e-09 
-0.65587 -3.79929 6.72683e-09 
-0.0472473 -3.89733 3.43702e-08 
0.506416 -3.85805 -1.29872e-08 
1.05192 -3.80615 5.76769e-10 
1.22869 -3.53467 2.18555e-10 
1.3168 -3.72898 -1.05626e-09 
1.5014 -3.48419 -3.21298e-10 
1.60148 -3.74803 4.47526e-10 
1.8604 -3.64362 1.2301e-10 
2.19084 -3.73072 -1.93103e-11 
2.55568 -3.68123 5.2826e-12 
2.89697 -3.69388 -2.44169e-12 
3.24221 -3.69445 -7.26251e-13 
3.57567 -3.65269 1.80941e-12 
3.88125 -3.6697 -7.49513e-13 
4.19603 -3.66353 2.16084e-12 
4.51013 -3.67128 -8.90856e-13 
4.82158 -3.66926 5.54615e-13 
5.13231 -3.67156 1.40477e-13 
5.44289 -3.67307 7.83497e-14 
5.73968 -3.65762 5.8418e-14 
6.04456 -3.67655 2.38644e-14 
6.335 -3.6432 -2.02239e-14 
6.64231 -3.68017 3.35385e-15 
6.93925 -3.65463 -1.0421e-14 
7.2408 -3.66539 -1.79245e-14 
7.54578 -3.66759 -1.73157e-14 
7.84573 -3.65711 -1.84128e-14 
8.14229 -3.65417 -2.13262e-14 
8.43664 -3.65595 -2.92855e-14 
8.7261 -3.63558 -3.51758e-14 
9.05003 -3.70069 -6.00703e-14 
9.3862 -3.68456 -1.05492e-13 
9.69688 -3.64577 -1.83334e-13 
10.039 -3.70899 -2.55307e-13 
10.3765 -3.66806 -3.87209e-13 
10.7356 -3.70684 -4.72279e-13 
11.0701 -3.656 -5.94896e-13 
11.3717 -3.6175 -3.89562e-13 
11.7184 -3.72165 -4.6214e-13 
12 -3.60601 -2.82687e-14 
-12 -3.32346 -5.25431e-13 
-11.6253 -3.35486 1.94591e-13 
-11.2753 -3.27966 1.61631e-13 
-10.9615 -3.3416 1.96651e-13 
-10.6504 -3.29889 9.02456e-14 
-10.3585 -3.36267 2.79355e-13 
-10.0467 -3.30535 2.91077e-13 
-9.7341 -3.33966 3.00508e-13 
-9.4188 -3.3608 1.9034e-13 
-9.09541 -3.33428 1.3096e-13 
-8.78152 -3.32281 3.52067e-14 
-8.47539 -3.33729 1.93944e-14 
-8.16654 -3.33308 -4.7374e-15 
-7.85196 -3.33364 1.65728e-14 
-7.54799 -3.32776 -2.48039e-15 
-7.2435 -3.3083 1.993e-14 
-6.93736 -3.3424 -1.37131e-13 
-6.62929 -3.34142 8.92306e-14 
-6.32001 -3.345 -2.27411e-14 
-6.01335 -3.34374 4.87401e-15 
-5.709 -3.33699 -5.04471e-15 
-5.4083 -3.32393 -5.10978e-14 
-5.11164 -3.33399 -1.02963e-13 
-4.80789 -3.35938 -6.83326e-14 
-4.50061 -3.34379 -2.72942e-14 
-4.19057 -3.34437 -3.46101e-13 
-3.8728 -3.37647 -1.06195e-13 
-3.54891 -3.37287 -1.63813e-14 
-3.2122 -3.3641 -2.15622e-13 
-2.87441 -3.34919 2.13942e-12 
-2.53402 -3.35138 -9.69481e-12 
-2.19154 -3.28537 -1.68571e-12 
-1.87463 -3.34879 2.09869e-11 
-1.6045 -3.38493 -1.44241e-10 
-1.36628 -3.21443 2.8536e-10 
-1.12271 -3.20895 1.59605e-10 
-1.06349 -3.4836 -5.81568e-10 
-1.00097 -3.74237 -5.60738e-10 
-0.841072 -3.63541 -1.53523e-08 
-0.19366 -3.80542 1.91304e-08 
0.302106 -3.79053 -3.51972e-09 
0.715682 -3.92719 6.33473e-09 
1.00203 -3.34395 -1.10329e-09 
1.24406 -3.28648 3.97377e-10 
1.43556 -3.14155 -8.23063e-12 
1.69264 -3.32771 -7.00725e-11 
1.984 -3.32451 1.18308e-11 
2.24724 -3.44465 -6.32642e-12 
2.53022 -3.33976 -2.19953e-12 
2.85724 -3.38581 5.22992e-12 
3.20093 -3.38937 2.66503e-12 
3.52848 -3.34119 1.12894e-12 
3.86157 -3.33812 8.9297e-13 
4.17262 -3.34055 -1.71352e-14 
4.48645 -3.34349 4.75355e-13 
4.79514 -3.3421 1.04027e-13 
5.10234 -3.34601 7.01597e-14 
5.41027 -3.34889 3.14955e-14 
5.71592 -3.32134 3.53723e-15 
6.01388 -3.34259 1.6856e-14 
6.3081 -3.30479 -1.5521e-15 
6.60787 -3.3487 -8.56988e-16 
6.90849 -3.31889 1.44298e-15 
7.21113 -3.331 -9.99267e-15 
7.51477 -3.3367 -1.15808e-14 
7.82022 -3.32152 -1.21137e-14 
8.12471 -3.31258 -1.55225e-14 
8.42404 -3.30598 -2.81652e-14 
8.75594 -3.32469 -2.89547e-14 
9.08433 -3.38737 -7.77948e-14 
9.39914 -3.34656 -1.18762e-13 
9.70906 -3.29921 -1.56227e-13 
10.0148 -3.39164 -1.88066e-13 
10.3071 -3.31371 -1.58342e-13 
10.6295 -3.39047 -2.38006e-13 
10.9612 -3.34132 -2.19683e-13 
11.2872 -3.2642 -7.59007e-14 
11.6288 -3.36916 -1.95556e-13 
12 -3.3069 5.59481e-13 
-12 -2.99658 -5.43236e-13 
-11.6614 -3.04668 1.69129e-13 
-11.3229 -2.96374 -1.53384e-13 
-10.9709 -2.98641 -9.66474e-14 
-10.6342 -2.97074 1.36942e-13 
-10.3014 -3.00012 1.32454e-13 
-9.97416 -2.96767 2.62324e-13 
-9.66111 -3.00478 1.5396e-13 
-9.35288 -3.02254 9.27982e-14 
-9.0432 -2.99184 -1.17947e-13 
-8.73374 -2.98401 4.31675e-14 
-8.42827 -3.00248 -1.83253e-14 
-8.11511 -3.00584 -1.52899e-15 
-7.80955 -2.99638 -2.46733e-15 
-7.50605 -2.99185 9.85984e-15 
-7.20305 -2.97578 -1.76667e-15 
-6.90481 -3.01483 5.12917e-14 
-6.59699 -3.0152 -1.2737e-14 
-6.29317 -3.01506 -1.32168e-14 
-5.99101 -3.01321 4.25974e-15 
-5.6905 -3.00612 4.83338e-15 
-5.39365 -2.9907 5.92455e-15 
-5.09372 -3.00563 7.56399e-15 
-4.79432 -3.03471 -1.19276e-13 
-4.4935 -3.01176 -3.85102e-14 
-4.1928 -3.02017 1.28163e-13 
-3.87941 -3.05532 -4.46795e-13 
-3.55743 -3.05244 -2.86086e-13 
-3.2299 -3.05287 -7.19517e-13 
-2.88612 -3.03592 -1.46453e-12 
-2.53738 -3.03946 2.88105e-12 
-2.19134 -2.96223 2.29461e-12 
-1.87665 -3.02372 -3.10577e-12 
-1.59567 -3.05124 -6.97021e-11 
-1.30211 -2.91327 -1.10409e-10 
-1.0237 -2.72287 -7.03124e-12 
-1.03381 -2.99576 -5.39465e-10 
-0.904384 -3.33594 6.60638e-09 
-0.492697 -3.67684 -1.46445e-08 
0.188924 -3.94261 2.80413e-08 
0.821366 -3.75716 1.76883e-08 
1.00162 -3.58118 8.53606e-10 
0.843891 -3.19841 1.94953e-09 
1.06372 -3.04973 -6.30484e-10 
1.24937 -2.88465 1.60378e-10 
1.59018 -2.9121 2.77151e-11 
1.8586 -3.00752 7.8736e-14 
2.21946 -3.06936 -5.36975e-12 
2.57305 -3.02352 4.20089e-12 
2.89787 -3.06996 -2.30413e-12 
3.21639 -3.05762 -1.72067e-12 
3.53451 -3.01072 -1.42939e-12 
3.85352 -3.02581 -3.72551e-13 
4.17903 -3.0157 -1.03555e-13 
4.48688 -3.01377 -9.82012e-14 
4.79299 -3.0145 -1.64331e-13 
5.09792 -3.01771 2.41098e-14 
5.40052 -3.02353 7.00165e-15 
5.69806 -2.99001 2.56953e-14 
5.99951 -3.0077 -3.95437e-15 
6.30497 -2.97661 9.60815e-15 
6.60851 -3.01401 -2.11063e-15 
6.91585 -2.9906 7.60087e-16 
7.22106 -2.99875 2.54675e-15 
7.52374 -3.00406 -1.17768e-14 
7.82962 -2.98843 2.56938e-15 
8.12632 -2.97078 2.57359e-15 
8.45327 -2.99658 -2.14693e-14 
8.74801 -2.97407 4.47691e-15 
9.04725 -3.06053 -5.15907e-14 
9.35454 -3.01229 -1.3794e-14 
9.65672 -2.95827 4.46829e-17 
9.98537 -3.03033 -8.23482e-14 
10.323 -2.9879 -9.37382e-14 
10.6544 -3.05608 -1.79813e-13 
10.9833 -2.99925 -3.8561e-15 
11.3354 -2.94417 1.43925e-13 
11.665 -3.05751 -4.79173e-14 
12 -2.97608 5.84697e-13 
-12 -2.67242 -5.77598e-13 
-11.6575 -2.71452 -5.26896e-14 
-11.3346 -2.62888 -2.3213e-13 
-11.002 -2.66913 -4.19137e-13 
-10.659 -2.6459 -1.32801e-13 
-10.3206 -2.6703 1.96458e-13 
-9.98574 -2.64789 -1.67359e-13 
-9.64922 -2.66702 -3.50493e-15 
-9.33286 -2.67863 -6.06919e-14 
-9.01608 -2.65594 4.09119e-14 
-8.70367 -2.64972 1.76576e-14 
-8.38949 -2.67819 3.58352e-14 
-8.08034 -2.67341 -9.23711e-16 
-7.77322 -2.66276 -1.66984e-15 
-7.46884 -2.65722 -1.86736e-15 
-7.15884 -2.6503 1.79282e-14 
-6.8558 -2.68771 -2.99458e-14 
-6.55259 -2.68529 1.48354e-15 
-6.25106 -2.68429 -9.87231e-15 
-5.95028 -2.68334 -1.15445e-14 
-5.6537 -2.6731 -3.00327e-14 
[...]
POINT_DATA 1978 
VECTORS vectors float
0.00029671 -0.00117664 0.999999 
0.000637424 -0.0244537 0.999701 
0.000228356 -0.0236936 0.999719 
0.000159449 -0.0174782 0.999847 
0.000213445 -0.0125136 0.999922 
0.000238853 -0.00869025 0.999962 
0.00024218 -0.00609365 0.999981 
0.000257981 -0.00373005 0.999993 
0.000289742 -0.00194319 0.999998 
0.000323429 -0.000885906 1 
0.000352599 -0.000386935 1 
0.000370191 -0.000274719 1 
0.000383636 -0.000295027 1 
0.000395733 -0.000356508 1 
0.000400647 -0.000503462 1 
0.000398249 -0.000693366 1 
0.000398971 -0.000807739 1 
0.000388589 -0.000672372 1 
0.000381987 -0.000347598 1 
0.000384688 8.73777e-05 1 
0.000387806 0.000652705 1 
0.000392116 0.00133602 0.999999 
0.000390707 0.00220999 0.999997 
0.000386737 0.00342183 0.999994 
0.000372953 0.0051946 0.999986 
0.000351361 0.00769284 0.99997 
0.000332703 0.0114762 0.999934 
0.000312503 0.0175183 0.999847 
0.00030598 0.0253791 0.999678 
0.000296686 0.0358322 0.999358 
0.000290358 0.0502629 0.998736 
0.000249825 0.0722132 0.997389 
0.000181936 0.0992417 0.995063 
0.00011722 0.142182 0.989841 
-4.19261e-07 0.19596 0.980612 
-0.000105023 0.252699 0.967545 
-0.000192417 0.323105 0.946363 
-0.000639516 0.413151 0.910662 
-0.000296382 0.730844 0.682544 
0.0020421 0.895961 0.444128 
0.00312272 0.875491 -0.483225 
0.00218861 0.461905 -0.886927 
0.0004449 0.358412 -0.933563 
0.000144343 0.281996 -0.959416 
3.46391e-05 0.210614 -0.977569 
-7.15278e-05 0.146732 -0.989176 
-0.000189222 0.107514 -0.994204 
-0.000240836 0.0708245 -0.997489 
-0.000273205 0.0509512 -0.998701 
-0.000317637 0.035773 -0.99936 
-0.000333838 0.0242234 -0.999707 
-0.000353336 0.0172087 -0.999852 
-0.0003706 0.0120626 -0.999927 
-0.000366883 0.00832715 -0.999965 
-0.000376354 0.00544939 -0.999985 
-0.0003797 0.00345827 -0.999994 
-0.000382643 0.00212165 -0.999998 
-0.000392279 0.00119754 -0.999999 
-0.000390196 0.000500788 -1 
-0.000402576 2.46056e-05 -1 
-0.000397044 -0.000360861 -1 
-0.000399788 -0.000571126 -1 
-0.000403075 -0.000675413 -1 
-0.000394201 -0.000709136 -1 
-0.00040458 -0.000615692 -1 
-0.000401594 -0.000522606 -1 
-0.00039681 -0.000417308 -1 
-0.000397748 -0.000305521 -1 
-0.000372472 -0.000333681 -1 
-0.000343455 -0.000663488 -1 
-0.000305762 -0.00176593 -0.999998 
-0.000263714 -0.00351453 -0.999994 
-0.000228456 -0.00541366 -0.999985 
-0.000173324 -0.00840101 -0.999965 
-0.000141153 -0.01202 -0.999928 
-0.000110278 -0.0176482 -0.999844 
-0.000201467 -0.0234482 -0.999725 
-0.000628739 -0.0244789 -0.9997 
-0.000306712 -0.001121 -0.999999 
0.00044159 -7.21502e-05 1 
0.00973787 -0.0185336 0.999781 
0.0127005 -0.0216688 0.999685 
0.0127099 -0.018835 0.999742 
0.0134142 -0.0139283 0.999813 
0.0136559 -0.00986389 0.999858 
0.0146568 -0.0067603 0.99987 
0.0144815 -0.00448568 0.999885 
0.0148241 -0.00261801 0.999887 
0.0156269 -0.00145346 0.999877 
0.0159853 -0.000816193 0.999872 
0.0160875 -0.000513705 0.99987 
0.0165061 -0.000417244 0.999864 
0.0163226 -0.00038951 0.999867 
0.0167251 -0.000429912 0.99986 
0.0168207 -0.000517725 0.999858 
0.0162951 -0.00058597 0.999867 
0.0163073 -0.000460011 0.999867 
0.0161937 -0.000184868 0.999869 
0.0162598 0.000230994 0.999868 
0.0164006 0.000804126 0.999865 
0.0164467 0.00154756 0.999864 
0.0161086 0.00255836 0.999867 
0.0155531 0.00400597 0.999871 
0.0154909 0.00602373 0.999862 
0.0150912 0.00894953 0.999846 
0.0142808 0.0134727 0.999807 
0.0143421 0.0200099 0.999697 
0.0143127 0.028918 0.999479 
0.0143727 0.0413514 0.999041 
0.0138682 0.0593372 0.998142 
0.0159384 0.0827236 0.996445 
0.0142952 0.116222 0.99312 
0.0152539 0.162829 0.986536 
0.018075 0.226671 0.973804 
0.0351146 0.267948 0.962793 
0.0156826 0.31032 0.950503 
0.00621014 0.526404 0.850212 
0.0275922 0.601915 0.798083 
0.00835575 0.977488 0.210827 
-0.0304564 0.788176 -0.614696 
-0.0217463 0.396708 -0.917687 
-0.0444746 0.321147 -0.945984 
-0.0199195 0.284448 -0.958484 
-0.032274 0.220517 -0.974849 
-0.0151787 0.193579 -0.980967 
-0.0172036 0.134935 -0.990705 
-0.0122034 0.091114 -0.995766 
-0.0133829 0.0604856 -0.998079 
-0.0129283 0.041579 -0.999052 
-0.0132613 0.0277852 -0.999526 
-0.0147119 0.0185175 -0.99972 
-0.0147527 0.0128228 -0.999809 
-0.0151279 0.00864585 -0.999848 
-0.0154834 0.00571192 -0.999864 
-0.015849 0.0036826 -0.999868 
-0.0160334 0.00225839 -0.999869 
-0.0161988 0.00125162 -0.999868 
-0.0166034 0.000569992 -0.999862 
-0.0163091 6.68614e-05 -0.999867 
-0.016987 -0.000236407 -0.999856 
-0.0161463 -0.00045377 -0.99987 
-0.0168331 -0.000524804 -0.999858 
-0.0166835 -0.000539274 -0.999861 
-0.0166704 -0.000509119 -0.999861 
-0.0169082 -0.000491436 -0.999857 
-0.0169063 -0.000490735 -0.999857 
-0.0167367 -0.000554458 -0.99986 
-0.0168037 -0.00080969 -0.999859 
-0.0150386 -0.00133804 -0.999886 
-0.014975 -0.00261401 -0.999884 
-0.0153343 -0.00430556 -0.999873 
-0.0137367 -0.00659272 -0.999884 
-0.0138947 -0.0096992 -0.999856 
-0.0127654 -0.0140898 -0.999819 
-0.0131005 -0.0190409 -0.999733 
-0.012733 -0.0217006 -0.999683 
-0.00949403 -0.0182904 -0.999788 
-0.000400959 -0.000128344 -1 
0.000252211 -0.000682011 1 
0.0121264 -0.0190738 0.999745 
0.0147568 -0.0215968 0.999658 
0.0161114 -0.0181845 0.999705 
0.0169207 -0.0137903 0.999762 
0.0175005 -0.010095 0.999796 
0.0181746 -0.0072625 0.999808 
0.0185595 -0.00496319 0.999815 
0.0189641 -0.00321481 0.999815 
0.0194499 -0.00203615 0.999809 
0.0198138 -0.00130791 0.999803 
0.0200862 -0.000845934 0.999798 
0.0202987 -0.000598561 0.999794 
0.0203714 -0.00044717 0.999792 
0.0203966 -0.000362544 0.999792 
0.0202822 -0.000334466 0.999794 
0.0203875 -0.000363376 0.999792 
0.0202546 -0.000298986 0.999795 
0.0201757 -0.000115555 0.999796 
0.0201412 0.000229393 0.999797 
0.0201078 0.000765829 0.999798 
0.0200138 0.00152411 0.999799 
0.0197923 0.00253482 0.999801 
0.0196393 0.00394275 0.999799 
0.0192277 0.00586406 0.999798 
0.0189063 0.00856699 0.999785 
0.0186642 0.0125846 0.999747 
0.018599 0.0182999 0.99966 
0.0187051 0.0265216 0.999473 
0.0191044 0.0383519 0.999082 
0.0198222 0.0554944 0.998262 
0.0223635 0.0797595 0.996563 
0.0247661 0.116479 0.992884 
0.0294856 0.166867 0.985539 
0.0436806 0.210806 0.976552 
0.0636547 0.272905 0.959933 
0.0487004 0.34426 0.93761 
0.0240211 0.402611 0.915056 
0.0534434 0.477131 0.877206 
0.0459693 0.924385 0.378681 
-0.0560014 0.915692 -0.39796 
-0.00815545 0.601312 -0.798973 
-0.0819156 0.351363 -0.932649 
-0.0607706 0.257678 -0.964318 
-0.0523019 0.193197 -0.979765 
-0.0329821 0.160132 -0.986544 
-0.0258388 0.11256 -0.993309 
-0.0196084 0.0846769 -0.996216 
-0.0192339 0.0605877 -0.997978 
-0.0180247 0.0424876 -0.998934 
-0.0177204 0.0286814 -0.999431 
-0.0183222 0.0198385 -0.999635 
-0.0185688 0.0134587 -0.999737 
-0.0189118 0.00923313 -0.999779 
-0.0193222 0.00622854 -0.999794 
-0.0197014 0.0041049 -0.999797 
-0.0199467 0.00258099 -0.999798 
-0.0201288 0.00149059 -0.999796 
-0.0200761 0.000734241 -0.999798 
-0.0201503 0.00022008 -0.999797 
-0.0202417 -9.29336e-05 -0.999795 
-0.0203697 -0.000291747 -0.999792 
-0.020384 -0.00034476 -0.999792 
-0.0205816 -0.000365829 -0.999788 
-0.0205649 -0.000398587 -0.999788 
-0.0205398 -0.000478756 -0.999789 
-0.0204057 -0.000615203 -0.999792 
-0.020107 -0.000835455 -0.999797 
-0.0199276 -0.00125461 -0.999801 
-0.0194336 -0.0019124 -0.999809 
-0.0191217 -0.00314622 -0.999812 
-0.0187009 -0.00485887 -0.999813 
-0.0181351 -0.00685384 -0.999812 
-0.0177219 -0.00962657 -0.999797 
-0.016986 -0.0133317 -0.999767 
-0.0161063 -0.0181236 -0.999706 
-0.0146287 -0.0216591 -0.999658 
-0.0121034 -0.0189935 -0.999746 
-0.000245892 -0.000707856 -1 
0.000164138 -0.000561925 1 
0.0101141 -0.0186186 0.999776 
0.0122337 -0.0225706 0.99967 
0.0136588 -0.0189978 0.999726 
0.0145054 -0.0142595 0.999793 
0.0153787 -0.0101032 0.999831 
0.0155722 -0.00712834 0.999853 
0.0164511 -0.00497135 0.999852 
0.017105 -0.0033941 0.999848 
0.0170253 -0.00232959 0.999852 
0.0172883 -0.00158123 0.999849 
0.0177445 -0.00104928 0.999842 
0.0179719 -0.000688324 0.999838 
0.0179272 -0.000436789 0.999839 
0.0178249 -0.000259805 0.999841 
0.0175417 -0.000173768 0.999846 
0.0179999 -0.000190719 0.999838 
0.0178517 -0.000155127 0.999841 
0.0177768 -6.18249e-06 0.999842 
0.0176917 0.000314738 0.999843 
0.0175663 0.000846673 0.999845 
0.0173307 0.00162752 0.999848 
0.0173865 0.00271507 0.999845 
0.0173723 0.00411412 0.999841 
0.0169643 0.00604265 0.999838 
0.0168928 0.00861266 0.99982 
0.0172654 0.0122872 0.999775 
0.0174896 0.0175378 0.999693 
0.0180311 0.0249093 0.999527 
0.0190479 0.0358227 0.999177 
0.0209789 0.0520935 0.998422 
0.0256542 0.0764279 0.996745 
0.0321089 0.111102 0.99329 
0.0418641 0.152128 0.987474 
0.0632814 0.199977 0.977755 
0.0911443 0.220174 0.971193 
0.0903986 0.27443 0.957349 
0.0817907 0.378553 0.921959 
0.052749 0.689884 0.721995 
-0.0102337 0.981692 -0.190201 
-0.0404331 0.595819 -0.802101 
-0.0503177 0.439187 -0.896986 
-0.127128 0.376836 -0.917515 
-0.0981382 0.275034 -0.956413 
-0.0794496 0.206905 -0.97513 
-0.0488015 0.147507 -0.987856 
-0.0345612 0.116151 -0.99263 
-0.0241258 0.0803996 -0.996471 
-0.0201268 0.0543454 -0.998319 
-0.0184329 0.0391749 -0.999062 
-0.0175303 0.0277916 -0.99946 
-0.0169007 0.0195761 -0.999666 
-0.0169239 0.0136328 -0.999764 
-0.0169541 0.00929611 -0.999813 
-0.0172123 0.00637376 -0.999832 
-0.0174441 0.004261 -0.999839 
-0.0176021 0.00270155 -0.999841 
-0.0177041 0.00158334 -0.999842 
-0.0174837 0.000827786 -0.999847 
-0.0175912 0.000306622 -0.999845 
-0.017347 -1.00003e-05 -0.99985 
-0.0178975 -0.000168125 -0.99984 
-0.0177821 -0.000194472 -0.999842 
-0.0178794 -0.000206209 -0.99984 
-0.0180413 -0.000287837 -0.999837 
-0.0179076 -0.000471891 -0.99984 
-0.0176109 -0.000736547 -0.999845 
-0.0177316 -0.0011062 -0.999842 
-0.0172456 -0.00162686 -0.99985 
-0.0178539 -0.00224822 -0.999838 
-0.0169603 -0.00341088 -0.99985 
-0.0159744 -0.00503821 -0.99986 
-0.0162477 -0.00718632 -0.999842 
-0.0153232 -0.010361 -0.999829 
-0.0153073 -0.0143291 -0.99978 
-0.0138868 -0.0192067 -0.999719 
-0.0119879 -0.0226266 -0.999672 
-0.01008 -0.0184862 -0.999778 
-9.11624e-05 -0.000538484 -1 
4.38991e-05 -0.000755448 1 
0.00747565 -0.0192054 0.999788 
0.00889329 -0.0235607 0.999683 
0.0102632 -0.020266 0.999742 
0.0108499 -0.0151919 0.999826 
0.0116799 -0.0107829 0.999874 
0.0119906 -0.00774725 0.999898 
0.0126106 -0.0053797 0.999906 
0.0130367 -0.00371822 0.999908 
0.0131472 -0.00259871 0.99991 
0.0133817 -0.00181014 0.999909 
0.0139549 -0.00118169 0.999902 
0.0140177 -0.000726587 0.999902 
0.0139129 -0.000371769 0.999903 
0.0137859 -0.000130107 0.999905 
0.0136306 -3.45258e-05 0.999907 
0.0139846 -6.67209e-05 0.999902 
0.0138206 -6.48236e-05 0.999905 
0.0137665 5.82834e-05 0.999905 
0.0137326 0.000368834 0.999906 
0.0135768 0.000902653 0.999907 
0.0134287 0.00173685 0.999908 
0.013485 0.00288246 0.999905 
0.0135798 0.00435051 0.999898 
0.0131791 0.0062702 0.999893 
0.0134693 0.00894419 0.999869 
0.0140976 0.0126442 0.999821 
0.0146669 0.0178176 0.999734 
0.015855 0.0252751 0.999555 
0.0178649 0.0362677 0.999182 
0.0215502 0.0528347 0.998371 
0.0291994 0.0775228 0.996563 
0.039578 0.108378 0.993322 
0.0545234 0.14675 0.98767 
0.0679994 0.152104 0.986023 
0.107757 0.20741 0.972301 
0.137167 0.303343 0.942957 
0.113678 0.359722 0.926109 
0.100035 0.526333 0.844373 
0.0543285 0.795032 0.60413 
-0.0816646 0.746923 -0.659877 
-0.0884854 0.493743 -0.865094 
-0.158419 0.309231 -0.937699 
-0.124606 0.240715 -0.962564 
-0.0794176 0.170668 -0.982123 
-0.0525056 0.129804 -0.990149 
-0.0351523 0.0964753 -0.994714 
-0.0252214 0.0725378 -0.997047 
-0.019541 0.0493412 -0.998591 
-0.016595 0.0349381 -0.999252 
-0.0150059 0.0250412 -0.999574 
-0.0139139 0.0173698 -0.999752 
-0.0137613 0.0122725 -0.99983 
-0.0135386 0.00855695 -0.999872 
-0.0136048 0.00591469 -0.99989 
-0.0137235 0.00398034 -0.999898 
-0.0137574 0.00254121 -0.999902 
-0.0137489 0.00151 -0.999904 
-0.0135086 0.000766215 -0.999908 
-0.0137763 0.000288673 -0.999905 
-0.0134679 9.2804e-06 -0.999909 
-0.0138859 -9.30455e-05 -0.999904 
-0.0137059 -7.69594e-05 -0.999906 
-0.0138538 -7.6814e-05 -0.999904 
-0.0140423 -0.000199788 -0.999901 
-0.013765 -0.000466953 -0.999905 
-0.0138923 -0.000884066 -0.999903 
-0.0136155 -0.00136086 -0.999906 
-0.0131319 -0.00199458 -0.999912 
-0.0138873 -0.00268277 -0.9999 
-0.0129181 -0.0038398 -0.999909 
-0.0121891 -0.00559861 -0.99991 
-0.0125895 -0.00774823 -0.999891 
-0.0115866 -0.0109163 -0.999873 
-0.0116887 -0.0150391 -0.999819 
-0.0104205 -0.0202351 -0.999741 
-0.00870614 -0.0234298 -0.999688 
-0.00731222 -0.0187367 -0.999798 
-9.56412e-05 -0.000612971 -1 
1.87728e-05 -0.000782042 1 
0.00458772 -0.0179693 0.999828 
0.00592896 -0.0240879 0.999692 
0.00709292 -0.0220015 0.999733 
0.00772905 -0.0171376 0.999823 
0.00842064 -0.012341 0.999888 
0.00874107 -0.00900694 0.999921 
0.00929975 -0.00642003 0.999936 
0.00960133 -0.00454047 0.999944 
0.00985137 -0.00325155 0.999946 
0.0100184 -0.00230401 0.999947 
0.0104715 -0.00152 0.999944 
0.0106103 -0.000917644 0.999943 
0.0105321 -0.000424859 0.999944 
0.0103881 -7.55208e-05 0.999946 
0.010312 6.76655e-05 0.999947 
0.0104181 3.17846e-05 0.999946 
0.01042 -2.56842e-05 0.999946 
0.0103264 1.12344e-05 0.999947 
0.0103077 0.000220705 0.999947 
0.0101886 0.000643496 0.999948 
0.010188 0.00133483 0.999947 
0.010173 0.00236464 0.999945 
0.0102276 0.00371094 0.999941 
0.0101023 0.00531295 0.999935 
0.0102898 0.00752983 0.999919 
0.0108337 0.0104465 0.999887 
0.0115559 0.0143331 0.99983 
0.0127182 0.0199404 0.99972 
0.0146287 0.0277126 0.999509 
0.0179443 0.0395039 0.999058 
0.0233927 0.0556665 0.998175 
0.0330787 0.0770124 0.996481 
0.0462028 0.10395 0.993509 
0.0636833 0.124024 0.990234 
0.0926507 0.165061 0.981922 
0.168896 0.296704 0.939915 
0.150653 0.441911 0.884318 
0.141144 0.628606 0.764809 
-0.0223038 0.995127 -0.0960465 
-0.113032 0.622193 -0.774661 
-0.161178 0.481383 -0.861564 
-0.174283 0.255492 -0.950973 
-0.111443 0.191283 -0.975188 
-0.0703012 0.135066 -0.988339 
-0.0482994 0.104806 -0.993319 
-0.0343186 0.0818729 -0.996052 
-0.0255456 0.0654136 -0.997531 
-0.0193972 0.0472637 -0.998694 
-0.0150844 0.0330763 -0.999339 
-0.0128489 0.0241015 -0.999627 
-0.0115545 0.0172873 -0.999784 
-0.0108948 0.0121277 -0.999867 
-0.0105849 0.00857033 -0.999907 
-0.010481 0.00595851 -0.999927 
-0.0104562 0.00405782 -0.999937 
-0.0104099 0.00263755 -0.999942 
-0.0102982 0.00158252 -0.999946 
-0.0102333 0.000848029 -0.999947 
-0.010333 0.000337848 -0.999947 
-0.0102804 5.71516e-05 -0.999947 
-0.0103606 -3.87958e-05 -0.999946 
-0.0103722 -6.53704e-07 -0.999946 
-0.0103933 4.28941e-05 -0.999946 
-0.010609 -6.92884e-05 -0.999944 
-0.0103024 -0.000373842 -0.999947 
-0.0106428 -0.000858117 -0.999943 
-0.0101276 -0.00146971 -0.999948 
-0.00976608 -0.00218507 -0.99995 
-0.0102419 -0.00301773 -0.999943 
-0.00968799 -0.00428583 -0.999944 
-0.00902606 -0.00607051 -0.999941 
-0.00931017 -0.00828766 -0.999922 
-0.0084702 -0.0116207 -0.999897 
-0.00851885 -0.0158692 -0.999838 
-0.00745992 -0.0210687 -0.99975 
-0.00605679 -0.0241664 -0.99969 
-0.00511033 -0.0195464 -0.999796 
-7.7421e-05 -0.000591131 -1 
6.52525e-05 -0.000639371 1 
0.00310293 -0.0196592 0.999802 
0.00438666 -0.0248444 0.999682 
0.00499831 -0.021449 0.999757 
0.0057132 -0.0161385 0.999853 
0.0061254 -0.0119121 0.99991 
0.0065934 -0.00859993 0.999941 
0.00700712 -0.00624082 0.999956 
0.00722099 -0.00452769 0.999964 
0.00751095 -0.00326508 0.999966 
0.0077581 -0.00225087 0.999967 
0.00795207 -0.00144523 0.999967 
0.0080494 -0.000760143 0.999967 
0.00795104 -0.000211035 0.999968 
0.00781747 0.000113472 0.999969 
0.00783527 0.000164282 0.999969 
0.00769975 6.88085e-05 0.99997 
0.0077607 -1.51736e-05 0.99997 
0.00769533 2.79528e-05 0.99997 
0.00763873 0.000252009 0.999971 
0.00761685 0.000704947 0.999971 
0.00772638 0.00145888 0.999969 
0.00772677 0.00254157 0.999967 
0.00766547 0.00385521 0.999963 
0.00786921 0.00562525 0.999953 
0.00811685 0.00779644 0.999937 
0.00866228 0.0105344 0.999907 
0.00962899 0.0143661 0.99985 
0.0109923 0.0195199 0.999749 
0.0136109 0.02771 0.999523 
0.0173181 0.0382365 0.999119 
0.023587 0.053103 0.99831 
0.0299536 0.0642542 0.997484 
0.0422402 0.0857054 0.995425 
0.0576643 0.103977 0.992907 
0.104576 0.163331 0.981013 
0.166342 0.252614 0.953161 
0.204944 0.465825 0.860816 
0.0981508 0.874594 0.474818 
-0.137641 0.837 -0.529609 
-0.2161 0.589772 -0.778119 
-0.209701 0.367464 -0.906088 
-0.161922 0.221452 -0.961634 
-0.104426 0.16373 -0.980963 
-0.065551 0.117491 -0.990908 
-0.0431218 0.0878621 -0.995199 
-0.0306885 0.0682717 -0.997195 
-0.0230163 0.0544826 -0.998249 
-0.0166015 0.038965 -0.999103 
-0.0126272 0.0280102 -0.999528 
-0.0104778 0.0203193 -0.999739 
-0.00926484 0.0145641 -0.999851 
-0.00861215 0.010403 -0.999909 
-0.00833653 0.00736503 -0.999938 
-0.00814373 0.00513586 -0.999954 
-0.00796352 0.00348581 -0.999962 
-0.00781451 0.00224407 -0.999967 
-0.00766338 0.00132634 -0.99997 
-0.00775634 0.00065641 -0.99997 
-0.00766651 0.000241383 -0.999971 
-0.00787003 9.6424e-06 -0.999969 
-0.00767156 -1.91027e-05 -0.999971 
-0.0078356 6.80815e-05 -0.999969 
-0.00780601 0.000139763 -0.99997 
-0.00795623 1.76314e-05 -0.999968 
-0.00780224 -0.000365526 -0.99997 
-0.0080708 -0.000948074 -0.999967 
-0.00754846 -0.00163509 -0.99997 
-0.00745322 -0.00251797 -0.999969 
-0.00773651 -0.00342674 -0.999964 
-0.00720919 -0.00473361 -0.999963 
-0.00672993 -0.00667493 -0.999955 
-0.00680188 -0.00908393 -0.999936 
-0.00605471 -0.0125108 -0.999903 
-0.00603947 -0.0167107 -0.999842 
-0.00510224 -0.0217171 -0.999751 
-0.00403651 -0.0248231 -0.999684 
-0.00335149 -0.0199242 -0.999796 
-3.79087e-05 -0.000574143 -1 
1.31023e-05 -0.000571814 1 
0.00189925 -0.0200505 0.999797 
0.00290877 -0.0254178 0.999673 
0.00337849 -0.0222547 0.999747 
0.00406096 -0.0173142 0.999842 
0.00442398 -0.0128223 0.999908 
0.004891 -0.00945465 0.999943 
0.00524559 -0.00692227 0.999962 
0.00547452 -0.0050871 0.999972 
0.00572257 -0.00369841 0.999977 
0.00598355 -0.00258598 0.999979 
0.00602434 -0.00161341 0.999981 
0.00609493 -0.000803445 0.999981 
0.00603843 -0.000165174 0.999982 
0.00591678 0.000211737 0.999982 
0.00590861 0.00025748 0.999982 
0.00569123 0.000125453 0.999984 
0.00569944 -8.85043e-06 0.999984 
0.0056919 -1.97043e-05 0.999984 
0.00560776 0.000140547 0.999984 
0.00563359 0.000497748 0.999984 
0.00576482 0.0011214 0.999983 
0.00583881 0.00204952 0.999981 
0.0057379 0.00324959 0.999978 
0.00606393 0.00481963 0.99997 
0.00630406 0.00666618 0.999958 
0.00669203 0.00892055 0.999938 
0.00754486 0.0119578 0.9999 
0.00859293 0.0157997 0.999838 
0.0108871 0.0222129 0.999694 
0.0137304 0.0301556 0.999451 
0.0183556 0.0411693 0.998984 
0.0243567 0.0537425 0.998258 
0.0361561 0.0737523 0.996621 
0.0545632 0.0996588 0.993525 
0.0918425 0.137012 0.986303 
0.16623 0.215571 0.962235 
0.260753 0.418141 0.870153 
0.19614 0.731038 0.653539 
-0.0236417 0.997115 -0.072125 
-0.241106 0.732003 -0.637213 
-0.275044 0.355927 -0.893122 
-0.139225 0.181948 -0.973402 
-0.0892692 0.137122 -0.986523 
-0.0549424 0.103315 -0.99313 
-0.0376981 0.0791111 -0.996153 
-0.0255716 0.0584847 -0.997961 
-0.0200143 0.0470348 -0.998693 
-0.0152028 0.0361456 -0.999231 
-0.0109536 0.0256746 -0.99961 
-0.00899908 0.0191334 -0.999776 
-0.00774789 0.0137352 -0.999876 
-0.0070248 0.00964933 -0.999929 
-0.00667065 0.00685716 -0.999954 
-0.00638188 0.00484638 -0.999968 
-0.00608896 0.00329928 -0.999976 
-0.00583137 0.00210282 -0.999981 
-0.00564113 0.00123476 -0.999983 
-0.005792 0.000640612 -0.999983 
-0.00560348 0.000219679 -0.999984 
-0.00589524 9.92082e-06 -0.999983 
-0.00565818 -2.40705e-05 -0.999984 
-0.00583712 8.75885e-05 -0.999983 
-0.0058351 0.000220723 -0.999983 
-0.00590671 0.000180647 -0.999983 
-0.0059453 -0.000149922 -0.999982 
-0.00602772 -0.000825327 -0.999982 
-0.0058306 -0.00166039 -0.999982 
-0.00571768 -0.00262548 -0.99998 
-0.0058476 -0.00373189 -0.999976 
-0.00553113 -0.00519748 -0.999971 
-0.00507372 -0.0071357 -0.999962 
-0.00507374 -0.00948151 -0.999942 
-0.00444045 -0.0128353 -0.999908 