# vtk DataFile Version 3.0 
Exported using Morpho https://github.com/Morpho-lang/morpho 
ASCII 
DATASET UNSTRUCTURED_GRID 

POINTS 1978 float 
-8.48528 -2.82843 5.2761e-18 
-8.26523 -2.82843 -1.65347e-18 
-8.04296 -2.82843 -2.07714e-19 
-7.78793 -2.82843 8.62638e-18 
-7.50498 -2.82843 1.64473e-18 
-7.25219 -2.82843 -5.71663e-19 
-6.99906 -2.82843 2.35216e-18 
-6.78427 -2.82843 4.12875e-18 
-6.56001 -2.82843 1.57405e-17 
-6.35614 -2.82843 1.18014e-17 
-6.13641 -2.82843 1.37696e-17 
-5.93059 -2.82843 2.26065e-17 
-5.71712 -2.82843 8.51975e-18 
-5.52678 -2.82843 1.946e-17 
-5.29006 -2.82843 9.20008e-18 
-5.08543 -2.82843 4.48336e-18 
-4.87373 -2.82843 -6.62677e-18 
-4.66029 -2.82843 -1.60377e-17 
-4.44568 -2.82843 -3.17238e-17 
-4.23258 -2.82843 -4.52242e-17 
-4.02299 -2.82843 -4.99938e-17 
-3.82268 -2.82843 -5.29552e-17 
-3.61412 -2.82843 -5.56072e-17 
-3.40191 -2.82843 -5.47515e-17 
-3.18129 -2.82843 -3.84949e-17 
-2.96136 -2.82843 -8.41881e-17 
-2.7291 -2.82843 -2.88586e-16 
-2.49864 -2.82843 -9.95301e-16 
-2.25976 -2.82843 -3.31915e-15 
-2.01976 -2.82843 -1.08089e-14 
-1.77602 -2.82843 -3.7082e-14 
-1.56324 -2.82843 -7.3476e-14 
-1.41575 -2.82843 -2.53621e-13 
-1.21344 -2.82843 -9.34841e-13 
-1.02184 -2.82843 -1.20013e-12 
-0.893912 -2.82843 -2.39734e-12 
-0.736298 -2.82843 -1.63569e-12 
-0.615348 -2.82843 -7.82682e-12 
-0.384866 -2.82843 -1.33762e-10 
-0.220686 -2.82843 -4.06577e-10 
0.370377 -2.82843 -2.1051e-10 
0.625245 -2.82843 3.11973e-11 
0.778151 -2.82843 -2.88481e-12 
0.92062 -2.82843 1.46227e-12 
1.04643 -2.82843 5.06413e-13 
1.17738 -2.82843 2.49855e-13 
1.37339 -2.82843 2.42235e-13 
1.57941 -2.82843 7.52654e-14 
1.81286 -2.82843 2.80159e-14 
2.06678 -2.82843 7.85283e-15 
2.29686 -2.82843 1.98007e-15 
2.53606 -2.82843 7.73187e-16 
2.77211 -2.82843 2.70218e-16 
2.99931 -2.82843 9.12245e-17 
3.20826 -2.82843 5.65445e-18 
3.41512 -2.82843 2.96049e-17 
3.61505 -2.82843 1.07935e-16 
3.81012 -2.82843 8.04442e-17 
4.0221 -2.82843 7.73882e-17 
4.24494 -2.82843 5.37796e-17 
4.44693 -2.82843 2.01594e-17 
4.65967 -2.82843 1.13362e-17 
4.86159 -2.82843 5.74799e-18 
5.0766 -2.82843 -1.58325e-18 
5.28246 -2.82843 -6.71586e-18 
5.50242 -2.82843 -1.57953e-17 
5.71143 -2.82843 -1.74818e-17 
5.92912 -2.82843 -1.92832e-17 
6.15506 -2.82843 -1.61641e-17 
6.36589 -2.82843 -5.87706e-18 
6.59278 -2.82843 -6.45255e-18 
6.81019 -2.82843 -5.11141e-18 
7.01378 -2.82843 -2.01011e-18 
7.29446 -2.82843 -1.41913e-18 
7.51445 -2.82843 1.39856e-18 
7.75053 -2.82843 -2.37353e-18 
8.03662 -2.82843 2.1103e-18 
8.22796 -2.82843 2.5755e-18 
8.48528 -2.82843 -2.18988e-18 
-8.48528 -2.58681 -1.80607e-17 
-8.26006 -2.58183 1.57567e-18 
-8.02988 -2.58376 6.34506e-21 
-7.7929 -2.61424 -4.11246e-21 
-7.53795 -2.64064 -8.87413e-21 
-7.23688 -2.62089 -9.02934e-21 
-6.99007 -2.58982 4.87463e-22 
-6.75496 -2.60502 -2.53276e-21 
-6.53107 -2.58233 -1.82367e-20 
-6.30166 -2.60143 -5.40669e-20 
-6.07796 -2.58396 -1.40061e-19 
-5.86049 -2.59155 -2.74302e-19 
-5.65779 -2.56139 -4.24529e-19 
-5.43656 -2.61417 -5.91484e-19 
-5.22016 -2.58143 -6.37346e-19 
-5.0067 -2.58992 -5.11471e-19 
-4.78995 -2.59342 -2.24841e-19 
-4.57322 -2.59648 8.2869e-20 
-4.35695 -2.59615 2.48148e-19 
-4.14299 -2.59364 1.76544e-19 
-3.93684 -2.5834 -1.02312e-19 
-3.73038 -2.5916 1.06276e-20 
-3.51781 -2.59204 2.82694e-18 
-3.2995 -2.59654 2.38096e-17 
-3.07727 -2.59081 7.82819e-17 
-2.84918 -2.59981 2.46516e-16 
-2.61462 -2.59593 8.5405e-16 
-2.37582 -2.6048 1.01539e-13 
-2.12948 -2.60924 3.89867e-13 
-1.87939 -2.61869 1.50546e-12 
-1.64229 -2.60396 5.50049e-12 
-1.456 -2.53524 1.89873e-11 
-1.30009 -2.63746 3.68583e-11 
-1.10401 -2.6529 1.17837e-10 
-0.944747 -2.61847 2.71225e-10 
-0.789962 -2.53978 5.78836e-11 
-0.795583 -2.693 5.62538e-10 
-0.51943 -2.74942 1.64465e-09 
-0.381181 -2.69528 -3.06393e-10 
-0.10294 -2.80141 -2.42069e-08 
0.288962 -2.79345 2.25933e-09 
0.645043 -2.70627 -2.01772e-09 
0.856102 -2.68543 -3.33723e-10 
0.859974 -2.50228 4.5155e-11 
0.984731 -2.60544 -1.6359e-10 
1.1096 -2.56204 -8.59813e-11 
1.27684 -2.63292 -3.63021e-11 
1.48828 -2.6173 -1.1564e-11 
1.72004 -2.61968 -3.51236e-12 
1.97537 -2.62502 -8.48528e-13 
2.23451 -2.59771 -2.05661e-13 
2.47277 -2.60368 -6.19545e-14 
2.7208 -2.6019 -6.13214e-16 
2.9633 -2.59749 -1.95474e-16 
3.1945 -2.58528 -5.97175e-17 
3.41398 -2.57717 -2.09698e-17 
3.62224 -2.57907 1.6426e-19 
3.84044 -2.59704 1.60734e-18 
4.06816 -2.60712 6.08629e-19 
4.27898 -2.58376 -1.04265e-19 
4.49384 -2.59612 -5.45149e-22 
4.70266 -2.58272 1.03417e-19 
4.91806 -2.59682 3.99717e-19 
5.13131 -2.58572 5.71621e-19 
5.35154 -2.60073 6.56529e-19 
5.56827 -2.58713 5.05441e-19 
5.78726 -2.59486 3.50092e-19 
6.01478 -2.6016 1.74959e-19 
6.23597 -2.58257 7.73417e-20 
6.45956 -2.59801 2.90608e-20 
6.68529 -2.58544 4.18236e-21 
6.89732 -2.56719 3.69857e-21 
7.1362 -2.63799 1.08749e-20 
7.38085 -2.58311 9.9828e-21 
7.60932 -2.59917 8.80442e-21 
7.87316 -2.63864 6.15614e-21 
8.08219 -2.54401 -4.95891e-21 
8.30647 -2.61555 -2.89981e-18 
8.48528 -2.52128 5.28452e-18 
-8.48528 -2.3448 1.43515e-17 
-8.25168 -2.3442 -1.89255e-18 
-8.02169 -2.33846 1.08773e-20 
-7.78223 -2.39085 -1.07355e-20 
-7.56873 -2.25697 9.86699e-22 
-7.48303 -2.45977 -3.50329e-21 
-7.20435 -2.41207 -6.39052e-21 
-6.97761 -2.3432 4.9331e-21 
-6.75021 -2.37565 3.11923e-21 
-6.5052 -2.35767 -3.93733e-21 
-6.27023 -2.3735 -2.47909e-20 
-6.03971 -2.34827 -9.33411e-20 
-5.83034 -2.33684 -1.9873e-19 
-5.584 -2.351 -3.5262e-19 
-5.37493 -2.36939 -4.31747e-19 
-5.14512 -2.34933 -4.05729e-19 
-4.92253 -2.36049 -1.95245e-19 
-4.69978 -2.36433 1.39667e-19 
-4.4794 -2.36734 5.0398e-19 
-4.25951 -2.36553 7.42202e-19 
-4.04704 -2.35089 8.84936e-19 
-3.83351 -2.3492 7.77445e-19 
-3.62273 -2.35843 1.0948e-18 
-3.40293 -2.36263 3.82357e-18 
-3.18211 -2.36094 2.87098e-17 
-2.95079 -2.36352 1.04361e-16 
-2.72122 -2.36797 3.68694e-16 
-2.4798 -2.3727 1.39007e-15 
-2.23723 -2.3871 1.91654e-13 
-1.98414 -2.40222 7.78926e-13 
-1.73966 -2.39582 2.25915e-12 
-1.53327 -2.31799 4.47268e-12 
-1.31242 -2.33885 5.90963e-12 
-1.18773 -2.45434 3.26308e-11 
-1.0195 -2.43694 3.79488e-11 
-0.86554 -2.40666 5.21481e-11 
-0.637247 -2.49958 -2.2703e-10 
-0.645283 -2.64615 9.01956e-10 
-0.497844 -2.61221 9.43384e-10 
-0.136705 -2.6958 3.76209e-09 
0.215148 -2.76051 -6.64212e-09 
0.501572 -2.76166 1.23342e-09 
0.743035 -2.6278 -2.73786e-10 
0.772891 -2.3625 7.90674e-11 
0.961706 -2.36084 1.69791e-12 
1.13099 -2.34659 -1.2823e-11 
1.30272 -2.42221 -1.55977e-11 
1.49284 -2.39258 -5.93152e-12 
1.70607 -2.40559 -2.20077e-12 
1.93992 -2.41504 -7.56097e-13 
2.1861 -2.39183 -2.32164e-13 
2.44114 -2.36669 -6.12522e-14 
2.67017 -2.37956 -5.25986e-16 
2.91319 -2.37346 -1.66525e-16 
3.14817 -2.35706 -4.32206e-17 
3.37282 -2.34419 -7.75641e-18 
3.5939 -2.33513 -4.08278e-19 
3.80307 -2.36231 -1.00472e-18 
4.01941 -2.38292 -1.13712e-18 
4.23388 -2.35025 -8.35796e-19 
4.44872 -2.35908 -5.24073e-19 
4.65517 -2.34547 -1.63587e-19 
4.86885 -2.35901 1.05077e-19 
5.0781 -2.35201 3.59913e-19 
5.29821 -2.36662 4.39158e-19 
5.51197 -2.35524 4.02022e-19 
5.7329 -2.35821 2.803e-19 
5.95356 -2.37213 1.50994e-19 
6.17448 -2.35262 5.79549e-20 
6.40447 -2.35806 1.03366e-20 
6.62319 -2.35412 -6.92498e-22 
6.84435 -2.31865 -3.58904e-21 
7.07515 -2.3931 3.77316e-22 
7.29223 -2.38376 6.35922e-21 
7.55273 -2.35404 4.7024e-21 
7.78595 -2.41833 7.07664e-21 
7.99492 -2.32291 2.64316e-21 
8.24805 -2.34931 1.25947e-18 
8.48528 -2.29256 4.47613e-18 
-8.48528 -2.09965 -1.76995e-17 
-8.26323 -2.09698 7.24237e-18 
-8.05268 -2.08705 6.21566e-20 
-7.8169 -2.15269 -5.95808e-20 
-7.52833 -2.05181 -1.45249e-21 
-7.3068 -2.23355 5.18263e-22 
-7.07453 -2.12819 4.71104e-21 
-6.81512 -2.13057 6.64231e-21 
-6.59819 -2.14309 2.49036e-20 
-6.35326 -2.14127 2.07929e-20 
-6.13729 -2.12877 1.1767e-20 
-5.91824 -2.0911 5.6472e-21 
-5.69516 -2.13257 -7.93095e-20 
-5.47241 -2.11384 -1.53031e-19 
-5.26529 -2.13432 -2.20333e-19 
-5.03596 -2.1261 -1.92324e-19 
-4.81782 -2.13358 -3.22109e-20 
-4.60101 -2.13562 2.62136e-19 
-4.38603 -2.1389 6.32352e-19 
-4.17617 -2.12617 1.02463e-18 
-3.96313 -2.11745 1.2527e-18 
-3.75161 -2.11651 1.06482e-18 
-3.53833 -2.13092 1.94725e-19 
-3.32005 -2.12927 -1.38518e-18 
-3.09322 -2.13439 -1.87303e-18 
-2.86427 -2.13004 1.74058e-18 
-2.63033 -2.14195 4.98561e-17 
-2.38821 -2.14923 2.66288e-16 
-2.14102 -2.17472 1.41022e-15 
-1.89442 -2.18178 1.03887e-13 
-1.67815 -2.13072 1.78931e-15 
-1.42121 -2.1207 -2.35685e-12 
-1.20142 -2.12071 -6.68696e-13 
-1.06926 -2.22903 -1.25315e-11 
-0.902045 -2.22224 4.9138e-11 
-0.745418 -2.19353 -2.04352e-10 
-0.712021 -2.36286 -1.01961e-10 
-0.493307 -2.48094 -6.4363e-10 
-0.262222 -2.7226 4.69282e-09 
0.0417199 -2.82853 -3.92192e-09 
0.413455 -2.68197 -3.64793e-09 
0.587065 -2.58618 3.60806e-11 
0.689993 -2.48715 4.06544e-11 
0.788189 -2.21249 -1.00655e-11 
0.941003 -2.14618 6.31598e-12 
1.10745 -2.13459 8.03822e-12 
1.31135 -2.18549 2.5355e-12 
1.52991 -2.17577 -7.03483e-13 
1.75691 -2.18594 -4.62123e-13 
1.99367 -2.19025 -1.83879e-13 
2.2436 -2.1701 -1.51292e-15 
2.4797 -2.12634 -2.15772e-16 
2.71892 -2.15529 -6.10224e-17 
2.95772 -2.14397 4.01256e-18 
3.18313 -2.12128 1.69849e-18 
3.4119 -2.11554 1.93292e-18 
3.6275 -2.09906 -3.15609e-19 
3.842 -2.13555 -1.21777e-18 
4.0506 -2.14609 -9.508e-19 
4.27137 -2.12174 -7.06895e-19 
4.47568 -2.1162 -3.74413e-19 
4.69215 -2.11558 -9.83709e-20 
4.89994 -2.1186 1.03216e-19 
5.12269 -2.1277 1.97392e-19 
5.33418 -2.12786 1.9282e-19 
5.55587 -2.12533 1.21248e-19 
5.77862 -2.12856 5.14737e-20 
5.99508 -2.13456 2.86623e-21 
6.22859 -2.12812 -2.0511e-20 
6.44778 -2.11622 -2.46654e-20 
6.66459 -2.10861 -1.83686e-20 
6.91989 -2.11127 -1.16988e-20 
7.12743 -2.1428 -3.87453e-21 
7.36777 -2.16912 1.11641e-21 
7.56866 -2.07756 1.21747e-21 
7.75895 -2.17535 4.15948e-21 
7.9734 -2.08004 5.30869e-21 
8.20056 -2.13113 -3.46306e-19 
8.48528 -2.10184 6.32916e-19 
-8.48528 -1.82023 6.20541e-18 
-8.29951 -1.84855 -3.40272e-18 
-7.8894 -1.9008 7.83945e-20 
-7.67249 -1.91422 2.51262e-22 
[...]
POINT_DATA 1978 
VECTORS vectors float
1.73014e-08 -0.00071309 1 
1.04211e-06 -0.00142614 0.999999 
-6.16996e-07 -0.00141837 0.999999 
-2.5186e-07 -0.00140862 0.999999 
-4.37074e-07 -0.00138641 0.999999 
-3.29036e-07 -0.00137789 0.999999 
-2.89323e-07 -0.00137452 0.999999 
-2.23468e-07 -0.00139961 0.999999 
-6.2692e-08 -0.00145599 0.999999 
2.68496e-07 -0.00155301 0.999999 
3.05665e-07 -0.00170698 0.999999 
9.35289e-07 -0.00189587 0.999998 
9.02106e-07 -0.00212853 0.999998 
1.65122e-06 -0.00235093 0.999997 
1.17286e-06 -0.0026308 0.999997 
1.94055e-06 -0.00283199 0.999996 
1.49644e-06 -0.00298306 0.999996 
1.35056e-06 -0.00303636 0.999995 
9.53829e-07 -0.00295775 0.999996 
3.21441e-07 -0.0027075 0.999996 
-5.19856e-07 -0.00222304 0.999998 
-2.06021e-06 -0.00143543 0.999999 
-3.42445e-06 -0.000199356 1 
-4.977e-06 0.00150537 0.999999 
-6.50645e-06 0.0037284 0.999993 
-9.0187e-06 0.00645143 0.999979 
-1.26403e-05 0.0101236 0.999949 
-1.84351e-05 0.0153338 0.999882 
-3.31293e-05 0.0237591 0.999718 
-5.45372e-05 0.0366546 0.999328 
-3.02914e-05 0.0558044 0.998442 
-0.000151113 0.0825402 0.996588 
-0.000249253 0.110598 0.993865 
2.19578e-05 0.167155 0.985931 
-0.000752983 0.249874 0.968278 
-0.000262027 0.319765 0.947497 
-0.0012543 0.413621 0.910448 
-0.000540405 0.519689 0.854355 
-0.000514114 0.755092 0.655618 
0.000943077 0.918837 0.394635 
0.000987343 0.818737 -0.574168 
0.00113999 0.499141 -0.86652 
0.000725731 0.393684 -0.919246 
0.00045297 0.305306 -0.952254 
0.000912347 0.234981 -0.972 
0.000256522 0.181034 -0.983477 
7.80761e-05 0.119866 -0.99279 
0.000107669 0.0804678 -0.996757 
6.64172e-05 0.0517132 -0.998662 
3.83247e-05 0.0333279 -0.999444 
2.95802e-05 0.0230052 -0.999735 
1.71628e-05 0.0158077 -0.999875 
1.23194e-05 0.0105587 -0.999944 
1.02077e-05 0.00662643 -0.999978 
7.44052e-06 0.00383558 -0.999993 
4.19059e-06 0.00162091 -0.999999 
5.18606e-06 -9.34777e-05 -1 
2.79616e-06 -0.00142292 -0.999999 
3.18436e-07 -0.00237687 -0.999997 
-6.6796e-08 -0.00285807 -0.999996 
-1.32394e-06 -0.00302507 -0.999995 
-1.22692e-06 -0.00304818 -0.999995 
-1.64347e-06 -0.00299424 -0.999996 
-1.61387e-06 -0.00284909 -0.999996 
-1.57749e-06 -0.00264597 -0.999996 
-1.40151e-06 -0.00238306 -0.999997 
-1.14363e-06 -0.00212986 -0.999998 
-7.22301e-07 -0.00188965 -0.999998 
-5.00467e-07 -0.00168242 -0.999999 
-1.66562e-07 -0.00153353 -0.999999 
6.41732e-09 -0.00142707 -0.999999 
2.43239e-07 -0.0013697 -0.999999 
2.96639e-07 -0.0013492 -0.999999 
3.49197e-07 -0.00136435 -0.999999 
4.53267e-07 -0.00139076 -0.999999 
2.9243e-07 -0.00141962 -0.999999 
4.21533e-07 -0.00144789 -0.999999 
-5.24535e-07 -0.0014508 -0.999999 
-2.01557e-06 -0.000586166 -1 
-0.000140552 -0.000181895 1 
-0.000126988 -0.00139059 0.999999 
-0.000122327 -0.00139063 0.999999 
-0.000107398 -0.00138252 0.999999 
-0.000102008 -0.00136477 0.999999 
-0.000113812 -0.00135086 0.999999 
-0.000132897 -0.00136261 0.999999 
-0.000115002 -0.00141902 0.999999 
-0.000100318 -0.00151202 0.999999 
-4.17153e-05 -0.00164896 0.999999 
3.19452e-05 -0.00184643 0.999998 
0.000127915 -0.00205845 0.999998 
0.000251135 -0.00229173 0.999997 
0.000317753 -0.00249649 0.999997 
0.000467281 -0.00270491 0.999996 
0.000538053 -0.00284355 0.999996 
0.000582274 -0.00290225 0.999996 
0.000588146 -0.0028432 0.999996 
0.000558495 -0.00262726 0.999996 
0.000491664 -0.00220755 0.999997 
0.00040646 -0.00152966 0.999999 
0.000260539 -0.000551716 1 
0.000107645 0.000866669 1 
-6.59862e-05 0.00277746 0.999996 
-0.000254755 0.00528269 0.999986 
-0.000518885 0.00861112 0.999963 
-0.000993107 0.0133994 0.99991 
-0.00179112 0.0206351 0.999785 
-0.00302051 0.032153 0.999478 
-0.00469601 0.0499621 0.99874 
-0.00763015 0.0772699 0.996981 
-0.00944356 0.109194 0.993976 
-0.0115256 0.145199 0.989335 
-0.012928 0.214262 0.976691 
-0.0104926 0.286809 0.95793 
0.0142072 0.358657 0.933361 
-0.00878201 0.375729 0.926688 
-0.00809552 0.584392 0.811431 
0.0302404 0.758287 0.651219 
-0.00606488 0.970892 0.239441 
-0.000603805 0.882626 -0.470076 
0.00952086 0.523666 -0.851871 
0.00210596 0.340713 -0.940165 
-0.0241873 0.300278 -0.953545 
0.00562357 0.264624 -0.964335 
0.00314346 0.205919 -0.978564 
0.0059722 0.148064 -0.98896 
0.00613186 0.0990617 -0.995062 
0.00508832 0.0649962 -0.997873 
0.00347201 0.0413477 -0.999139 
0.00227736 0.0271495 -0.999629 
0.00138037 0.0184991 -0.999828 
0.000785783 0.0121841 -0.999925 
0.000437512 0.00763362 -0.999971 
0.000208664 0.00433102 -0.999991 
7.82531e-05 0.00204874 -0.999998 
-9.39689e-05 0.000276148 -1 
-0.000224714 -0.00116582 -0.999999 
-0.000363101 -0.00212519 -0.999998 
-0.000517708 -0.00257016 -0.999997 
-0.000558621 -0.00282259 -0.999996 
-0.000601913 -0.00289884 -0.999996 
-0.000543988 -0.00288425 -0.999996 
-0.000498966 -0.00277678 -0.999996 
-0.000382035 -0.00259031 -0.999997 
-0.000286593 -0.00237262 -0.999997 
-0.000167258 -0.00212769 -0.999998 
-6.15535e-05 -0.00188711 -0.999998 
2.13383e-05 -0.00169718 -0.999999 
7.49729e-05 -0.00153257 -0.999999 
0.000116193 -0.00142461 -0.999999 
0.000141141 -0.00136456 -0.999999 
0.000109099 -0.00134038 -0.999999 
0.000134541 -0.00134411 -0.999999 
0.000120272 -0.00136843 -0.999999 
9.70894e-05 -0.00140579 -0.999999 
0.000131615 -0.00140612 -0.999999 
0.000108601 -0.00141033 -0.999999 
0.000155473 -9.49102e-05 -1 
-0.000211954 -0.000234342 1 
-0.000196781 -0.00138917 0.999999 
-0.000193221 -0.00137008 0.999999 
-0.000184915 -0.00135032 0.999999 
-0.000225885 -0.00132567 0.999999 
-0.000175681 -0.00134164 0.999999 
-0.000201105 -0.00134097 0.999999 
-0.000228717 -0.00137462 0.999999 
-0.000203285 -0.00144331 0.999999 
-0.000166553 -0.00159244 0.999999 
-8.01977e-05 -0.00177922 0.999998 
3.80685e-05 -0.00202302 0.999998 
0.000182666 -0.00225199 0.999997 
0.000390761 -0.0024967 0.999997 
0.00055917 -0.00266967 0.999996 
0.000757935 -0.00282225 0.999996 
0.00089601 -0.00287018 0.999995 
0.000987301 -0.00280845 0.999996 
0.00101599 -0.00260633 0.999996 
0.000990147 -0.00222431 0.999997 
0.00093846 -0.00162307 0.999998 
0.000818801 -0.000755998 0.999999 
0.000642794 0.000419003 1 
0.000446362 0.00207354 0.999998 
0.000257356 0.00427321 0.999991 
2.89004e-05 0.00733157 0.999973 
-0.000307886 0.0115062 0.999934 
-0.000944787 0.017885 0.99984 
-0.00199582 0.0275317 0.999619 
-0.00343707 0.0429407 0.999072 
-0.00437624 0.0658005 0.997823 
-0.000507562 0.0925383 0.995709 
0.00204569 0.135014 0.990842 
-0.00263043 0.176037 0.98438 
0.0108449 0.233891 0.972202 
0.0387608 0.291038 0.955926 
0.0521724 0.46645 0.883007 
0.0152185 0.511562 0.859112 
0.0552188 0.634265 0.771141 
0.0293097 0.964434 0.262693 
-0.00453466 0.933894 -0.357521 
-0.0227144 0.631955 -0.774672 
-0.0178127 0.428684 -0.903279 
-0.0638014 0.302617 -0.950974 
-0.0375672 0.223795 -0.973912 
-0.0215026 0.172904 -0.984704 
-0.00333909 0.137602 -0.990482 
0.000811977 0.0983698 -0.99515 
0.0031488 0.0677134 -0.9977 
0.00315909 0.045724 -0.998949 
0.00202466 0.0305167 -0.999532 
0.000928648 0.020145 -0.999797 
0.000505768 0.0137386 -0.999905 
0.000114457 0.0087543 -0.999962 
-0.000137394 0.00521708 -0.999986 
-0.000350501 0.00267432 -0.999996 
-0.000520678 0.000789585 -1 
-0.000615393 -0.000595884 -1 
-0.000737867 -0.00159812 -0.999998 
-0.000926834 -0.00218242 -0.999997 
-0.000976692 -0.00257683 -0.999996 
-0.000994333 -0.00277422 -0.999996 
-0.000910604 -0.00286521 -0.999995 
-0.000802737 -0.00284894 -0.999996 
-0.000630902 -0.00273458 -0.999996 
-0.000458375 -0.0025682 -0.999997 
-0.000270403 -0.00234353 -0.999997 
-0.000104548 -0.00209414 -0.999998 
3.14582e-05 -0.0018755 -0.999998 
0.000128469 -0.0016613 -0.999999 
0.000185777 -0.00150655 -0.999999 
0.000223618 -0.00140557 -0.999999 
0.00021239 -0.0013403 -0.999999 
0.000212245 -0.00132444 -0.999999 
0.000206191 -0.0013294 -0.999999 
0.000178506 -0.00136378 -0.999999 
0.000194633 -0.00137614 -0.999999 
0.000189552 -0.00139771 -0.999999 
0.000215202 -0.000354191 -1 
-0.000217124 -0.000182434 1 
-0.000214487 -0.00138322 0.999999 
-0.000217907 -0.00135449 0.999999 
-0.000222378 -0.0013303 0.999999 
-0.000250734 -0.00130487 0.999999 
-0.000242096 -0.00131955 0.999999 
-0.000264404 -0.00135141 0.999999 
-0.000258925 -0.00145408 0.999999 
-0.000229529 -0.00159081 0.999999 
-0.000161006 -0.00180931 0.999998 
-6.29565e-05 -0.0020482 0.999998 
7.49122e-05 -0.00232945 0.999997 
0.000272543 -0.0025445 0.999997 
0.000487927 -0.00276755 0.999996 
0.000703364 -0.00288513 0.999996 
0.000932601 -0.00294892 0.999995 
0.00111606 -0.00288931 0.999995 
0.0012493 -0.00270447 0.999996 
0.00132214 -0.00237307 0.999996 
0.00136057 -0.00187366 0.999997 
0.00135325 -0.00115715 0.999998 
0.00129637 -0.000195477 0.999999 
0.00117323 0.00109586 0.999999 
0.00107669 0.00285673 0.999995 
0.000995771 0.00530406 0.999985 
0.00102193 0.00863652 0.999962 
0.000991342 0.0134229 0.999909 
0.000966709 0.0206141 0.999787 
0.000809001 0.0317145 0.999497 
0.0014997 0.0481093 0.998841 
0.00600174 0.0667637 0.997751 
0.0164103 0.0989324 0.994959 
0.0312605 0.13616 0.990193 
0.0334552 0.179243 0.983236 
0.0622249 0.227579 0.97177 
0.105066 0.284648 0.952857 
0.0685456 0.365537 0.92827 
0.106298 0.526314 0.84362 
0.059991 0.84166 0.536666 
-0.00426346 0.998944 -0.0457438 
-0.0555882 0.716115 -0.695765 
-0.063765 0.491213 -0.868703 
-0.0806362 0.374732 -0.92362 
-0.0964272 0.250202 -0.96338 
-0.0757453 0.188114 -0.979222 
-0.0484683 0.14755 -0.987866 
-0.0218009 0.116343 -0.99297 
-0.00983928 0.0831298 -0.99649 
-0.00403242 0.0584559 -0.998282 
-0.0014436 0.0403245 -0.999186 
-0.00100194 0.0270447 -0.999634 
-0.00126542 0.0183387 -0.999831 
-0.000913109 0.0123029 -0.999924 
-0.00092382 0.00777461 -0.999969 
-0.000984326 0.00469931 -0.999988 
-0.00103484 0.00230727 -0.999997 
-0.00112654 0.000673847 -0.999999 
-0.001129 -0.000579833 -0.999999 
-0.0011913 -0.00146416 -0.999998 
-0.00126946 -0.00210224 -0.999997 
-0.00125602 -0.00250912 -0.999996 
-0.00117309 -0.00278431 -0.999995 
-0.00103396 -0.00291965 -0.999995 
-0.000841124 -0.00294021 -0.999995 
-0.000634177 -0.00286241 -0.999996 
-0.000411748 -0.00269859 -0.999996 
-0.000205139 -0.00246881 -0.999997 
-3.77147e-05 -0.00221357 -0.999998 
0.000101125 -0.00194578 -0.999998 
0.000188161 -0.00172299 -0.999998 
0.000237399 -0.00154377 -0.999999 
0.00026161 -0.00139687 -0.999999 
0.000259886 -0.00133301 -0.999999 
0.000249034 -0.00131102 -0.999999 
0.000244254 -0.00130357 -0.999999 
0.000224089 -0.0013312 -0.999999 
0.000217872 -0.00135059 -0.999999 
0.000207644 -0.00138514 -0.999999 
0.000212847 -0.000288818 -1 
-0.00016933 -0.000192901 1 
-0.000193285 -0.00137139 0.999999 
-0.00022675 -0.00131343 0.999999 
-0.000244795 -0.00129825 0.999999 
-0.000257143 -0.00128024 0.999999 
-0.000266043 -0.00130995 0.999999 
-0.000274922 -0.00133303 0.999999 
-0.000276759 -0.00141234 0.999999 
-0.000263075 -0.00156516 0.999999 
-0.000223279 -0.00176074 0.999998 
-0.000154116 -0.00202608 0.999998 
-4.948e-05 -0.00230215 0.999997 
0.00012791 -0.00261287 0.999997 
0.000324541 -0.00283274 0.999996 
0.000561869 -0.00302183 0.999995 
0.000813451 -0.00307913 0.999995 
0.00107029 -0.00305352 0.999995 
0.00128782 -0.00288721 0.999995 
0.00145664 -0.00257756 0.999996 
0.0015741 -0.00213205 0.999996 
0.00164725 -0.00151006 0.999998 
0.00168221 -0.000685821 0.999998 
0.00167266 0.000389018 0.999999 
0.0016528 0.00176911 0.999997 
0.00168069 0.00369437 0.999992 
0.00186341 0.00625453 0.999979 
0.00227295 0.00990722 0.999948 
0.00291426 0.0151294 0.999881 
0.00398094 0.023213 0.999723 
0.00595459 0.034943 0.999372 
0.0110485 0.0484966 0.998762 
0.0203913 0.0710157 0.997267 
0.0394356 0.0989183 0.994314 
0.0682456 0.131799 0.988924 
0.0875842 0.178601 0.980016 
0.130475 0.199925 0.971085 
0.159618 0.314411 0.935771 
0.0304637 0.485052 0.873955 
0.129637 0.683939 0.717929 
0.0681772 0.965874 0.249879 
-0.0986174 0.776527 -0.622318 
-0.107316 0.566996 -0.8167 
-0.150137 0.30139 -0.941606 
-0.141083 0.2004 -0.969503 
-0.103209 0.148194 -0.983558 
-0.0681095 0.113374 -0.991215 
-0.0399799 0.0974871 -0.994433 
-0.0234998 0.0754874 -0.99687 
-0.0137432 0.0553655 -0.998372 
-0.00781691 0.0397802 -0.999178 
-0.00485846 0.027956 -0.999597 
-0.00373671 0.0190146 -0.999812 
-0.00252409 0.0126207 -0.999917 
-0.00194005 0.00836427 -0.999963 
-0.00173626 0.00509886 -0.999985 
-0.00155836 0.00280711 -0.999995 
-0.00156479 0.0010864 -0.999998 
-0.00152045 -0.000216148 -0.999999 
-0.0015123 -0.00115137 -0.999998 
-0.00149441 -0.00185162 -0.999997 
-0.00144133 -0.00239673 -0.999996 
-0.00130825 -0.00276199 -0.999995 
-0.00112352 -0.00299855 -0.999995 
-0.000902308 -0.0030836 -0.999995 
-0.000658646 -0.00306765 -0.999995 
-0.000428312 -0.00293349 -0.999996 
-0.000210717 -0.00271434 -0.999996 
-3.29993e-05 -0.00244573 -0.999997 
9.56471e-05 -0.00215093 -0.999998 
0.000188835 -0.00188158 -0.999998 
0.00024059 -0.00165195 -0.999999 
0.000266446 -0.00146632 -0.999999 
0.000270788 -0.00134757 -0.999999 
0.000265315 -0.00130005 -0.999999 
0.00025073 -0.00128149 -0.999999 
0.000231115 -0.00130265 -0.999999 
0.00020543 -0.00133107 -0.999999 
0.000196757 -0.00138617 -0.999999 
0.000166808 -0.000237889 -1 
-0.000113105 -0.000249358 1 
-0.000147358 -0.0013239 0.999999 
-0.000201905 -0.00133552 0.999999 
-0.000210581 -0.00128233 0.999999 
-0.000233478 -0.00126738 0.999999 
-0.000252836 -0.00129128 0.999999 
-0.000264767 -0.00138171 0.999999 
-0.000262413 -0.00150036 0.999999 
-0.000239426 -0.00172491 0.999998 
-0.000196561 -0.00196683 0.999998 
-0.000120041 -0.00228128 0.999997 
2.76748e-06 -0.00258706 0.999997 
0.000167393 -0.00289822 0.999996 
0.00037099 -0.00310652 0.999995 
0.000627595 -0.00324974 0.999995 
0.000891192 -0.00325034 0.999994 
0.00115402 -0.00314797 0.999994 
0.00138774 -0.00289245 0.999995 
0.00157046 -0.0025081 0.999996 
0.00170654 -0.00197465 0.999997 
0.00179845 -0.00128578 0.999998 
0.00185634 -0.000414536 0.999998 
0.00189885 0.000641822 0.999998 
0.00196379 0.00203433 0.999996 
0.00214666 0.00383533 0.99999 
0.00256495 0.00631228 0.999977 
0.00340674 0.00970314 0.999947 
0.00478247 0.0147682 0.99988 
0.00709776 0.0219431 0.999734 
0.0109968 0.0308305 0.999464 
0.0189971 0.0448966 0.998811 
0.0334698 0.0644851 0.997357 
0.0566454 0.0817845 0.995039 
0.0859637 0.0853906 0.992632 
0.11255 0.122498 0.986066 
0.170337 0.156746 0.972839 
0.196868 0.267175 0.943324 
0.124839 0.406584 0.905044 
0.124028 0.841043 0.526558 
-0.0364177 0.969147 -0.24378 
-0.125318 0.864148 -0.487385 
-0.144015 0.413252 -0.899157 
-0.206542 0.263479 -0.942295 
-0.159755 0.137884 -0.97748 
-0.109201 0.0963702 -0.989337 
-0.073696 0.0749042 -0.994464 
-0.0474637 0.0703734 -0.996391 
-0.0296354 0.055391 -0.998025 
-0.0183114 0.0422244 -0.99894 
-0.0112805 0.0310072 -0.999456 
-0.00736266 0.0220736 -0.999729 
-0.00470946 0.0147339 -0.99988 
-0.00331923 0.00998425 -0.999945 
-0.00251316 0.00667427 -0.999975 
-0.00206253 0.00393883 -0.99999 
-0.00185387 0.00214282 -0.999996 
-0.00175887 0.00060947 -0.999998 
-0.00171 -0.000464659 -0.999998 
-0.00166405 -0.00131266 -0.999998 
-0.00158978 -0.00199706 -0.999997 
-0.00146115 -0.00255578 -0.999996 
-0.00128149 -0.00293189 -0.999995 
-0.0010463 -0.00318363 -0.999994 
-0.000806117 -0.00326468 -0.999994 
-0.000551236 -0.00323903 -0.999995 
-0.000323822 -0.0030726 -0.999995 
-0.000127413 -0.00282789 -0.999996 
2.42639e-05 -0.00252769 -0.999997 
0.000129054 -0.00220974 -0.999998 
0.000197647 -0.00191731 -0.999998 
0.000238252 -0.00165086 -0.999999 
0.000259693 -0.00145992 -0.999999 
0.000256656 -0.00134199 -0.999999 
0.000254354 -0.00128449 -0.999999 
0.000231697 -0.00125742 -0.999999 
0.000219015 -0.00127394 -0.999999 
0.000185774 -0.00129114 -0.999999 
0.000163234 -0.00134704 -0.999999 
0.000111804 -0.000323932 -1 
-5.72463e-05 -0.00024747 1 
-0.000104916 -0.00127624 0.999999 
-0.000172766 -0.00128497 0.999999 
-0.00018646 -0.0012353 0.999999 
-0.00022339 -0.00125039 0.999999 
-0.000215539 -0.00127074 0.999999 
-0.000237175 -0.00135051 0.999999 
-0.000228118 -0.0014919 0.999999 
-0.000227586 -0.00167495 0.999999 
-0.000188344 -0.00195376 0.999998 
-0.00014079 -0.00225078 0.999997 
-5.20323e-05 -0.00260814 0.999997 
7.05642e-05 -0.00292821 0.999996 
0.000244127 -0.00321326 0.999995 
0.000461606 -0.00338185 0.999994 
0.000721396 -0.00344721 0.999994 
0.000981235 -0.00337029 0.999994 
0.00123732 -0.00314195 0.999994 
0.00144748 -0.00276898 0.999995 
0.00161416 -0.0022503 0.999996 
0.00173372 -0.00159892 0.999997 
0.00181553 -0.000805255 0.999998 
0.00187798 0.000129428 0.999998 
0.00197739 0.00126336 0.999997 
0.00216306 0.00264195 0.999994 
0.00256857 0.00448362 0.999987 
0.00338843 0.00690962 0.99997 
0.0049207 0.0104252 0.999934 
0.00737114 0.0151722 0.999858 
0.0114203 0.0210446 0.999713 
0.0181806 0.0303075 0.999375 
0.031406 0.0432098 0.998572 
0.0521975 0.0501925 0.997375 
0.0757695 0.0438708 0.99616 
0.119536 0.0589403 0.991079 
0.167052 0.0912016 0.981721 
0.249322 0.233972 0.939732 
0.254085 0.429946 0.866364 
0.189165 0.517972 0.834219 
0.00596436 0.999516 0.0305339 
-0.180783 0.585887 -0.789971 
-0.226822 0.405523 -0.885496 
-0.22617 0.195109 -0.954348 
-0.157263 0.0715275 -0.984963 
-0.103429 0.04748 -0.993503 
-0.0683052 0.0386653 -0.996915 
-0.0477302 0.0435987 -0.997908 
-0.031418 0.0373777 -0.998807 
-0.0203688 0.029763 -0.999349 
-0.0134501 0.0238902 -0.999624 
-0.00904022 0.0175445 -0.999805 
-0.00595432 0.0131747 -0.999895 
-0.00396552 0.00874805 -0.999954 
-0.00286878 0.00589466 -0.999979 
-0.00227492 0.00387576 -0.99999 
-0.00194136 0.0021025 -0.999996 
-0.00180351 0.000841344 -0.999998 
-0.00171822 -0.000306757 -0.999998 
-0.00166184 -0.00118187 -0.999998 
-0.00158186 -0.00190506 -0.999997 
-0.0014516 -0.00249768 -0.999996 
-0.0012468 -0.00299325 -0.999995 
-0.00102733 -0.00329043 -0.999994 
-0.000767364 -0.00344116 -0.999994 
-0.000529616 -0.00343764 -0.999994 
-0.000307862 -0.00328636 -0.999995 
-0.000127601 -0.00303891 -0.999995 
1.1892e-05 -0.00272078 -0.999996 
0.000109252 -0.00236687 -0.999997 
0.000168479 -0.00204928 -0.999998 
0.000206505 -0.00174004 -0.999998 
0.000229802 -0.00150219 -0.999999 
0.000228671 -0.00134838 -0.999999 
0.000225718 -0.00126722 -0.999999 
0.000197355 -0.00123148 -0.999999 
0.000187775 -0.00124115 -0.999999 
0.000146844 -0.00125351 -0.999999 
0.00012321 -0.00130455 -0.999999 
5.91632e-05 -0.000254517 -1 
-8.13971e-06 -0.000268785 1 
-5.64641e-05 -0.00123091 0.999999 
-0.000140702 -0.00123888 0.999999 
-0.000139331 -0.00120093 0.999999 
-0.000180948 -0.00122341 0.999999 
-0.000173804 -0.00126085 0.999999 
-0.000193756 -0.00136521 0.999999 
-0.000179697 -0.00153454 0.999999 
-0.000176181 -0.00176192 0.999998 
-0.000135946 -0.00206573 0.999998 
-9.74871e-05 -0.00242201 0.999997 
-2.38737e-05 -0.00278528 0.999996 
8.34888e-05 -0.00312043 0.999995 
0.000232079 -0.00340009 0.999994 
0.000431657 -0.00356632 0.999994 
0.000649495 -0.00360602 0.999993 
0.000902647 -0.00349648 0.999993 
0.00112681 -0.00322523 0.999994 
0.0013162 -0.00279265 0.999995 
0.00147043 -0.00222039 0.999996 
0.00158439 -0.00151034 0.999998 
0.00166012 -0.000696887 0.999998 
0.00173321 0.000226851 0.999998 
0.00185832 0.00124061 0.999998 
0.00211424 0.00248537 0.999995 
0.00262077 0.00399616 0.999989 
0.00364911 0.00601586 0.999975 
0.005394 0.00848907 0.999949 
0.00819185 0.0117251 0.999898 
0.0128156 0.015718 0.999794 
0.0204545 0.0222409 0.999543 
0.0322064 0.0277112 0.999097 
0.04691 0.024928 0.998588 
0.0628895 0.00936379 0.997977 
0.102279 0.0139022 0.994659 
0.170014 0.0254063 0.985114 
0.256453 0.134715 0.957123 
0.334769 0.369767 0.866719 
0.238241 0.734466 0.635454 
-0.0281696 0.996039 -0.0843405 
-0.261648 0.667768 -0.696869 
-0.313641 0.332007 -0.889607 
-0.229715 0.107403 -0.967313 
-0.142853 0.0156217 -0.989621 
-0.0858498 0.0077976 -0.996278 
-0.0561112 0.00920913 -0.998382 
-0.0419611 0.0201386 -0.998916 
-0.0293516 0.0217131 -0.999333 
-0.0195807 0.0192523 -0.999623 
-0.0128492 0.0158926 -0.999791 
-0.00826583 0.0121851 -0.999892 
-0.00534153 0.00930502 -0.999942 
-0.00347328 0.00616747 -0.999975 