# vtk DataFile Version 3.0 
Exported using Morpho https://github.com/Morpho-lang/morpho 
ASCII 
DATASET UNSTRUCTURED_GRID 

POINTS 1978 float 
-8.48528 -2.82843 6.05328e-21 
-8.26523 -2.82843 4.75824e-21 
-8.04296 -2.82843 -1.21029e-22 
-7.78794 -2.82843 4.64777e-22 
-7.50498 -2.82843 -1.2903e-22 
-7.25219 -2.82843 -1.53934e-22 
-6.99906 -2.82843 5.37163e-22 
-6.78427 -2.82843 1.23545e-21 
-6.56001 -2.82843 2.62481e-21 
-6.35614 -2.82843 2.30424e-21 
-6.1364 -2.82843 1.22629e-21 
-5.93059 -2.82843 -1.19668e-21 
-5.71712 -2.82843 -7.32885e-21 
-5.52678 -2.82843 -1.34893e-20 
-5.29006 -2.82843 -2.22377e-20 
-5.08543 -2.82843 -2.06762e-20 
-4.87373 -2.82843 -1.36625e-20 
-4.66029 -2.82843 4.31681e-21 
-4.44568 -2.82843 2.7631e-20 
-4.23258 -2.82843 4.82439e-20 
-4.02299 -2.82843 5.46179e-20 
-3.82268 -2.82843 4.35319e-20 
-3.61412 -2.82843 1.64772e-20 
-3.40191 -2.82843 2.81484e-20 
-3.18129 -2.82843 2.09211e-19 
-2.96136 -2.82843 9.8472e-19 
-2.7291 -2.82843 4.06377e-18 
-2.49864 -2.82843 1.78512e-17 
-2.25976 -2.82843 7.33469e-17 
-2.01976 -2.82843 2.72512e-16 
-1.77602 -2.82843 8.93257e-16 
-1.56324 -2.82843 1.71612e-15 
-1.41575 -2.82843 5.86749e-15 
-1.21344 -2.82843 2.13786e-14 
-1.02185 -2.82843 2.58271e-14 
-0.893917 -2.82843 3.75302e-14 
-0.736276 -2.82843 1.44171e-14 
-0.615347 -2.82843 1.68236e-13 
-0.38483 -2.82843 -9.14407e-13 
-0.220569 -2.82843 -3.91126e-12 
0.370358 -2.82843 6.07871e-13 
0.625243 -2.82843 -7.73455e-14 
0.778121 -2.82843 8.75962e-14 
0.92065 -2.82843 -1.17162e-14 
1.04642 -2.82843 -7.791e-15 
1.17737 -2.82843 -5.04614e-15 
1.37339 -2.82843 -5.45271e-15 
1.57941 -2.82843 -2.01588e-15 
1.81286 -2.82843 -7.48638e-16 
2.06678 -2.82843 -1.973e-16 
2.29687 -2.82843 -4.72123e-17 
2.53606 -2.82843 -1.40746e-17 
2.77211 -2.82843 -4.04152e-18 
2.99931 -2.82843 -1.12439e-18 
3.20827 -2.82843 -2.23126e-19 
3.41511 -2.82843 -1.13878e-19 
3.61505 -2.82843 3.46046e-20 
3.81012 -2.82843 -3.50948e-21 
4.0221 -2.82843 -4.29694e-20 
4.24494 -2.82843 -3.9925e-20 
4.44693 -2.82843 -2.00431e-20 
4.65967 -2.82843 -2.45319e-21 
4.86159 -2.82843 1.27862e-20 
5.0766 -2.82843 2.04545e-20 
5.28246 -2.82843 2.18385e-20 
5.50242 -2.82843 1.52718e-20 
5.71143 -2.82843 7.7433e-21 
5.92912 -2.82843 1.84759e-21 
6.15506 -2.82843 -1.49514e-21 
6.36589 -2.82843 -1.85925e-21 
6.59278 -2.82843 -1.88555e-21 
6.81019 -2.82843 -1.22444e-21 
7.01378 -2.82843 -3.8502e-22 
7.29446 -2.82843 1.49084e-22 
7.51445 -2.82843 5.13271e-22 
7.75053 -2.82843 2.82735e-22 
8.03662 -2.82843 3.97744e-22 
8.22796 -2.82843 -3.94543e-21 
8.48528 -2.82843 -1.26674e-20 
-8.48528 -2.58681 7.02166e-21 
-8.25956 -2.58231 -1.25305e-20 
-8.03102 -2.58435 -9.22329e-23 
-7.79104 -2.60568 -2.55842e-24 
-7.5303 -2.65119 1.98158e-22 
-7.23629 -2.61837 2.13022e-22 
-6.98834 -2.59105 2.84816e-22 
-6.75447 -2.60474 5.16007e-23 
-6.53141 -2.58248 4.89846e-22 
-6.30209 -2.60147 1.60215e-21 
-6.07857 -2.58434 3.74189e-21 
-5.86106 -2.59138 7.45183e-21 
-5.65823 -2.56166 1.1341e-20 
-5.43685 -2.61404 1.57237e-20 
-5.22028 -2.5815 1.70136e-20 
-5.00671 -2.59008 1.36625e-20 
-4.78995 -2.59355 6.12945e-21 
-4.57321 -2.59655 -1.94906e-21 
-4.35699 -2.59621 -6.76809e-21 
-4.14306 -2.59368 -6.06714e-21 
-3.93683 -2.58345 -6.81732e-22 
-3.73024 -2.59164 -3.49828e-21 
-3.51752 -2.59204 -6.76658e-20 
-3.29908 -2.59657 -3.25808e-19 
-3.07671 -2.59079 -1.08149e-18 
-2.84861 -2.59979 -3.42102e-18 
-2.61408 -2.59585 -1.18723e-17 
-2.37539 -2.60473 -4.41707e-17 
-2.12921 -2.60937 -1.69024e-16 
-1.87931 -2.61843 -6.42035e-16 
-1.64297 -2.60449 5.85288e-16 
-1.45629 -2.5363 1.9706e-15 
-1.29997 -2.6365 3.86266e-15 
-1.10516 -2.65239 1.2907e-14 
-0.945709 -2.61449 3.01658e-14 
-0.788324 -2.53716 1.09095e-14 
-0.800758 -2.69341 6.1938e-14 
-0.520933 -2.7504 2.8902e-13 
-0.391234 -2.69648 3.8201e-13 
-0.0985082 -2.80486 4.00797e-13 
0.287387 -2.79321 -5.26938e-14 
0.654207 -2.71137 -2.02434e-13 
0.859413 -2.68034 -3.5204e-14 
0.863558 -2.4943 8.9835e-15 
0.99036 -2.60176 -1.77839e-14 
1.11402 -2.56167 -7.7174e-15 
1.27913 -2.6324 -3.85508e-15 
1.48801 -2.61696 -1.21608e-15 
1.71934 -2.61969 1.51919e-15 
1.9745 -2.62475 3.69211e-16 
2.23358 -2.59751 8.91696e-17 
2.47234 -2.60346 2.67923e-17 
2.72045 -2.60216 8.45953e-18 
2.96314 -2.59741 2.69089e-18 
3.19394 -2.58608 8.10048e-19 
3.4141 -2.57596 2.98533e-19 
3.62246 -2.57919 -4.06259e-21 
3.84029 -2.597 -3.39504e-20 
4.0678 -2.60716 -1.60829e-20 
4.27868 -2.58393 1.69618e-21 
4.49356 -2.59608 -9.92155e-22 
4.70247 -2.58278 -3.01116e-21 
4.91788 -2.59678 -1.09291e-20 
5.13119 -2.58582 -1.52101e-20 
5.35145 -2.60072 -1.73885e-20 
5.5682 -2.58712 -1.35531e-20 
5.78719 -2.59478 -9.14541e-21 
6.01475 -2.60163 -4.89153e-21 
6.23601 -2.58265 -2.03028e-21 
6.45961 -2.598 -7.70581e-22 
6.68534 -2.58543 -2.25359e-22 
6.89742 -2.56724 -1.2347e-22 
7.13629 -2.63795 -2.96224e-22 
7.38098 -2.5832 -2.79567e-22 
7.60942 -2.59915 -2.0295e-22 
7.87318 -2.63862 -1.52888e-22 
8.08213 -2.54399 6.59821e-23 
8.30644 -2.61555 2.03539e-20 
8.48528 -2.52128 -7.36929e-21 
-8.48528 -2.3448 -1.29821e-21 
-8.25365 -2.34379 -3.13393e-21 
-8.02229 -2.33908 1.17433e-22 
-7.7798 -2.3999 1.53986e-22 
-7.57173 -2.25436 6.22973e-23 
-7.48877 -2.45284 8.35925e-23 
-7.20422 -2.41023 1.11726e-22 
-6.97762 -2.34562 -1.72007e-22 
-6.74991 -2.3749 5.23442e-23 
-6.50544 -2.35811 8.14147e-23 
-6.27078 -2.37331 8.5914e-22 
-6.04039 -2.34879 2.8613e-21 
-5.83065 -2.33689 5.63216e-21 
-5.58452 -2.35113 1.06106e-20 
-5.37511 -2.36945 1.25757e-20 
-5.14517 -2.3495 1.19586e-20 
-4.92272 -2.36063 5.81693e-21 
-4.70008 -2.36449 -4.19611e-21 
-4.4798 -2.3674 -1.47478e-20 
-4.2601 -2.36553 -2.20036e-20 
-4.04766 -2.35106 -2.537e-20 
-3.83403 -2.34929 -2.306e-20 
-3.62309 -2.3585 -3.26103e-20 
-3.40309 -2.36267 -1.11876e-19 
-3.1821 -2.36107 -4.17331e-19 
-2.95061 -2.36347 -1.51609e-18 
-2.72104 -2.36791 -5.34521e-18 
-2.4796 -2.37254 -2.04204e-17 
-2.23706 -2.38711 -7.94348e-17 
-1.98431 -2.40219 -3.22998e-16 
-1.74006 -2.39502 -9.25737e-16 
-1.53364 -2.32073 -1.89279e-15 
-1.31344 -2.3375 5.87623e-16 
-1.19023 -2.45106 3.33322e-15 
-1.02309 -2.43648 3.43166e-15 
-0.866639 -2.40363 1.65843e-15 
-0.641058 -2.49994 -5.34349e-14 
-0.652031 -2.65417 1.22527e-13 
-0.512984 -2.60978 -8.44876e-14 
-0.137145 -2.69738 2.9244e-14 
0.214394 -2.75918 -5.23836e-13 
0.499495 -2.75769 1.69315e-13 
0.747052 -2.62559 -5.6083e-14 
0.769422 -2.36158 -2.99763e-14 
0.960198 -2.35453 1.55735e-15 
1.12853 -2.34793 -1.24596e-15 
1.30322 -2.41986 -1.3302e-15 
1.49445 -2.39214 -6.19526e-16 
1.7056 -2.40607 8.72285e-16 
1.9398 -2.41474 3.17875e-16 
2.18605 -2.39122 9.64402e-17 
2.44113 -2.36676 2.55077e-17 
2.67064 -2.37961 7.82242e-18 
2.91349 -2.37372 2.47081e-18 
3.14854 -2.35728 6.71837e-19 
3.37249 -2.34388 1.86816e-19 
3.59409 -2.33509 3.72504e-20 
3.80308 -2.36221 2.70959e-20 
4.01916 -2.383 3.1095e-20 
4.23373 -2.35058 2.43953e-20 
4.44866 -2.35907 1.56538e-20 
4.65522 -2.34558 5.22104e-21 
4.86892 -2.359 -3.05363e-21 
5.07823 -2.35212 -1.05284e-20 
5.29823 -2.36668 -1.28711e-20 
5.51203 -2.3552 -1.20104e-20 
5.73292 -2.35811 -8.12026e-21 
5.95361 -2.37216 -4.37445e-21 
6.17455 -2.35274 -1.67646e-21 
6.40452 -2.35809 -2.96159e-22 
6.62326 -2.35407 7.12917e-23 
6.84442 -2.31877 9.40742e-23 
7.07525 -2.39307 -1.54705e-23 
7.29237 -2.38383 -1.28937e-22 
7.5527 -2.35402 -2.03041e-22 
7.78592 -2.41826 -1.29077e-22 
7.99491 -2.32288 -1.11269e-22 
8.24804 -2.34933 -6.27344e-21 
8.48528 -2.29256 9.70936e-21 
-8.48528 -2.09965 -2.42655e-21 
-8.26317 -2.09478 -2.06303e-21 
-8.0546 -2.08875 1.36436e-22 
-7.81714 -2.15234 9.98739e-23 
-7.52741 -2.05103 3.27056e-23 
-7.30804 -2.23313 6.42374e-24 
-7.07326 -2.12823 -1.65825e-22 
-6.81615 -2.13142 -3.5235e-22 
-6.59828 -2.14299 -5.21595e-22 
-6.35387 -2.14119 -6.05468e-22 
-6.1374 -2.12878 -5.04119e-22 
-5.91841 -2.09182 1.29964e-22 
-5.69507 -2.13234 2.0273e-21 
-5.47211 -2.11427 4.3713e-21 
-5.26478 -2.13446 6.12892e-21 
-5.0356 -2.12609 5.64399e-21 
-4.81763 -2.13372 1.08954e-21 
-4.60086 -2.13583 -7.41538e-21 
-4.38595 -2.13885 -1.83669e-20 
-4.17609 -2.12618 -2.98468e-20 
-3.96307 -2.11763 -3.70729e-20 
-3.75146 -2.11661 -3.17443e-20 
-3.53816 -2.13099 -6.96841e-21 
-3.31985 -2.1293 4.03382e-20 
-3.09314 -2.13449 6.59093e-20 
-2.8642 -2.12997 -7.86373e-21 
-2.63027 -2.14194 -6.8013e-19 
-2.38786 -2.14928 -3.81115e-18 
-2.14055 -2.17468 -2.16801e-17 
-1.8939 -2.18143 -3.80338e-17 
-1.67597 -2.13043 9.06956e-19 
-1.41973 -2.12348 1.19901e-15 
-1.19603 -2.12298 1.64512e-15 
-1.07056 -2.22554 -1.02937e-15 
-0.905481 -2.22757 -3.29622e-15 
-0.748929 -2.18634 -1.76575e-14 
-0.711599 -2.35791 -7.39598e-15 
-0.477146 -2.48127 -8.19021e-14 
-0.262948 -2.72089 -8.35632e-14 
0.0412914 -2.82836 -2.68896e-13 
0.413864 -2.68244 -2.49351e-13 
0.58084 -2.60367 -2.70591e-13 
0.685976 -2.49771 1.11453e-13 
0.78853 -2.21078 9.84238e-16 
0.94388 -2.14344 1.09475e-15 
1.11074 -2.13488 -6.56079e-16 
1.31212 -2.18749 -5.00555e-16 
1.52881 -2.17314 2.71206e-16 
1.75583 -2.1873 1.91024e-16 
1.99304 -2.1901 7.92946e-17 
2.24319 -2.16965 1.96428e-17 
2.47938 -2.1267 2.96669e-18 
2.71881 -2.15521 9.37703e-19 
2.95735 -2.14433 -2.11987e-20 
3.18296 -2.12129 -1.02733e-19 
3.41135 -2.11545 -3.82893e-20 
3.62724 -2.09924 1.08407e-20 
3.84177 -2.13547 3.20275e-20 
4.05054 -2.14643 2.75833e-20 
4.27136 -2.12203 2.15998e-20 
4.47586 -2.11628 1.10605e-20 
4.69234 -2.11572 2.53121e-21 
4.9002 -2.11868 -3.04993e-21 
5.12277 -2.12767 -5.70051e-21 
5.33423 -2.12796 -5.52404e-21 
5.55588 -2.12523 -3.28477e-21 
5.77867 -2.12853 -1.35021e-21 
5.99513 -2.13462 -2.89731e-23 
6.22854 -2.12818 6.02941e-22 
6.44777 -2.11627 7.13901e-22 
6.66461 -2.10859 5.88726e-22 
6.91982 -2.11135 2.84499e-22 
7.12744 -2.14286 1.02182e-22 
7.36768 -2.16905 -7.19778e-24 
7.56858 -2.07761 -5.78405e-23 
7.75892 -2.17531 -1.3154e-22 
7.97342 -2.08009 -1.38411e-22 
8.20063 -2.13115 2.63349e-21 
8.48528 -2.10184 2.29518e-22 
-8.48528 -1.82023 -4.38957e-21 
-8.2977 -1.84695 3.09315e-21 
-7.88863 -1.90219 1.07738e-22 
[...]
POINT_DATA 1978 
VECTORS vectors float
2.70012e-06 -0.000514801 1 
2.42381e-07 -0.00142599 0.999999 
-2.54934e-07 -0.00141835 0.999999 
9.15291e-08 -0.00140859 0.999999 
-3.57127e-08 -0.00138639 0.999999 
5.46681e-09 -0.00137787 0.999999 
-1.55303e-08 -0.00137451 0.999999 
-2.06109e-08 -0.0013996 0.999999 
-2.15666e-08 -0.001456 0.999999 
5.57588e-08 -0.00155302 0.999999 
-4.13874e-08 -0.001707 0.999999 
1.48606e-07 -0.00189589 0.999998 
1.33927e-09 -0.00212854 0.999998 
2.55535e-07 -0.00235093 0.999997 
-8.16115e-08 -0.00263078 0.999997 
2.96738e-07 -0.00283195 0.999996 
6.17745e-08 -0.002983 0.999996 
1.21893e-07 -0.00303627 0.999995 
8.37275e-08 -0.00295764 0.999996 
3.21539e-08 -0.00270736 0.999996 
1.17733e-08 -0.00222286 0.999998 
-2.12634e-07 -0.00143524 0.999999 
-2.52918e-07 -0.000199174 1 
-3.53291e-07 0.00150553 0.999999 
-3.43239e-07 0.00372855 0.999993 
-3.99896e-07 0.00645163 0.999979 
-5.4417e-07 0.010124 0.999949 
-1.96496e-07 0.0153345 0.999882 
3.53334e-07 0.0237601 0.999718 
-7.69112e-06 0.0366561 0.999328 
1.37639e-05 0.055807 0.998442 
-2.48203e-05 0.0825437 0.996587 
-9.02292e-05 0.110602 0.993865 
0.000126347 0.16716 0.98593 
-0.000290721 0.249877 0.968278 
0.000103749 0.319766 0.947497 
-0.00049801 0.41363 0.910445 
-2.94294e-06 0.519679 0.854361 
-0.00011712 0.755085 0.655627 
0.000209876 0.918818 0.394681 
5.92859e-05 0.818741 -0.574163 
0.000248529 0.499153 -0.866514 
0.000162105 0.39369 -0.919243 
5.21393e-05 0.305307 -0.952254 
0.000375813 0.234985 -0.971999 
3.66397e-06 0.181037 -0.983476 
-9.3537e-06 0.11987 -0.99279 
1.61448e-05 0.0804705 -0.996757 
-1.17386e-06 0.0517156 -0.998662 
-4.24851e-07 0.0333293 -0.999444 
2.03859e-06 0.023006 -0.999735 
-1.36182e-07 0.0158081 -0.999875 
4.29152e-07 0.010559 -0.999944 
7.51182e-07 0.00662665 -0.999978 
7.31801e-07 0.00383574 -0.999993 
-2.94659e-08 0.00162109 -0.999999 
8.95769e-07 -9.33026e-05 -1 
2.52521e-07 -0.0014227 -0.999999 
-1.76195e-07 -0.00237665 -0.999997 
1.14088e-07 -0.0028579 -0.999996 
-2.5042e-07 -0.00302495 -0.999995 
-3.53948e-08 -0.00304809 -0.999995 
-1.81694e-07 -0.00299418 -0.999996 
-1.18874e-07 -0.00284904 -0.999996 
-1.28838e-07 -0.00264595 -0.999996 
-9.97859e-08 -0.00238306 -0.999997 
-1.04017e-07 -0.00212987 -0.999998 
-1.80973e-08 -0.00188966 -0.999998 
-4.62858e-08 -0.00168244 -0.999999 
4.92481e-09 -0.00153354 -0.999999 
-9.9755e-09 -0.00142707 -0.999999 
4.00251e-08 -0.0013697 -0.999999 
4.99101e-09 -0.00134919 -0.999999 
-3.9037e-09 -0.00136434 -0.999999 
5.72735e-08 -0.00139074 -0.999999 
-5.45095e-08 -0.0014196 -0.999999 
9.65847e-08 -0.00144786 -0.999999 
3.2521e-07 -0.00145069 -0.999999 
-4.7345e-06 -0.000391994 -1 
-0.000124174 6.43019e-06 1 
-0.000126973 -0.00139016 0.999999 
-0.00012231 -0.0013906 0.999999 
-0.000107387 -0.00138249 0.999999 
-0.000101994 -0.00136475 0.999999 
-0.000113799 -0.00135085 0.999999 
-0.000132877 -0.0013626 0.999999 
-0.000114987 -0.00141901 0.999999 
-0.000100302 -0.00151201 0.999999 
-4.17103e-05 -0.00164896 0.999999 
3.1938e-05 -0.00184643 0.999998 
0.000127892 -0.00205844 0.999998 
0.000251092 -0.00229171 0.999997 
0.000317699 -0.00249646 0.999997 
0.000467206 -0.00270487 0.999996 
0.000537972 -0.00284349 0.999996 
0.000582195 -0.00290218 0.999996 
0.000588076 -0.00284312 0.999996 
0.000558443 -0.00262716 0.999996 
0.000491639 -0.00220743 0.999997 
0.000406468 -0.00152953 0.999999 
0.000260588 -0.000551586 1 
0.000107737 0.000866793 1 
-6.58471e-05 0.00277758 0.999996 
-0.000254566 0.00528284 0.999986 
-0.000518637 0.00861135 0.999963 
-0.000992718 0.0133998 0.99991 
-0.00179044 0.0206357 0.999785 
-0.00301934 0.0321539 0.999478 
-0.00469419 0.0499634 0.99874 
-0.00762661 0.077271 0.996981 
-0.00943875 0.109195 0.993976 
-0.0115188 0.145202 0.989335 
-0.0129188 0.214263 0.976691 
-0.0104802 0.286808 0.957931 
0.0142173 0.358669 0.933357 
-0.00876785 0.375734 0.926686 
-0.00806673 0.584443 0.811395 
0.0302666 0.758249 0.651263 
-0.0060487 0.970931 0.239284 
-0.000619369 0.88263 -0.470068 
0.00948171 0.523621 -0.851898 
0.0020962 0.340719 -0.940163 
-0.0241953 0.300281 -0.953544 
0.00561039 0.264618 -0.964337 
0.00313768 0.205918 -0.978564 
0.00596701 0.148069 -0.988959 
0.00612761 0.0990647 -0.995062 
0.00508566 0.0649979 -0.997872 
0.00347046 0.0413491 -0.999139 
0.00227645 0.0271502 -0.999629 
0.0013798 0.0184994 -0.999828 
0.000785434 0.0121843 -0.999925 
0.000437269 0.00763376 -0.999971 
0.000208508 0.00433123 -0.999991 
7.80803e-05 0.0020488 -0.999998 
-9.40517e-05 0.000276268 -1 
-0.000224764 -0.00116565 -0.999999 
-0.000363097 -0.00212504 -0.999998 
-0.000517666 -0.00257004 -0.999997 
-0.000558555 -0.0028225 -0.999996 
-0.000601832 -0.00289877 -0.999996 
-0.000543908 -0.00288419 -0.999996 
-0.000498887 -0.00277673 -0.999996 
-0.00038197 -0.00259027 -0.999997 
-0.000286543 -0.0023726 -0.999997 
-0.000167228 -0.00212768 -0.999998 
-6.15408e-05 -0.00188711 -0.999998 
2.13359e-05 -0.00169718 -0.999999 
7.49628e-05 -0.00153257 -0.999999 
0.000116176 -0.00142461 -0.999999 
0.000141121 -0.00136455 -0.999999 
0.000109085 -0.00134036 -0.999999 
0.000134524 -0.00134409 -0.999999 
0.000120257 -0.00136841 -0.999999 
9.70765e-05 -0.00140576 -0.999999 
0.000131602 -0.00140609 -0.999999 
0.000108587 -0.00140972 -0.999999 
0.000136692 6.75634e-05 -1 
-0.000186382 -8.96054e-05 1 
-0.000196765 -0.00138877 0.999999 
-0.000193207 -0.00137005 0.999999 
-0.000184899 -0.0013503 0.999999 
-0.000225868 -0.00132566 0.999999 
-0.000175665 -0.00134162 0.999999 
-0.000201087 -0.00134096 0.999999 
-0.00022869 -0.00137462 0.999999 
-0.000203261 -0.0014433 0.999999 
-0.000166528 -0.00159243 0.999999 
-8.01841e-05 -0.0017792 0.999998 
3.80696e-05 -0.00202299 0.999998 
0.000182651 -0.00225196 0.999997 
0.000390718 -0.00249666 0.999997 
0.000559108 -0.00266962 0.999996 
0.000757856 -0.0028222 0.999996 
0.00089592 -0.00287012 0.999995 
0.000987209 -0.00280839 0.999996 
0.00101591 -0.00260626 0.999996 
0.000990083 -0.00222423 0.999997 
0.000938417 -0.00162299 0.999998 
0.000818786 -0.00075592 0.999999 
0.000642814 0.000419082 1 
0.000446423 0.00207362 0.999998 
0.000257458 0.00427329 0.999991 
2.90466e-05 0.00733168 0.999973 
-0.000307667 0.0115064 0.999934 
-0.00094436 0.0178852 0.99984 
-0.00199498 0.027532 0.999619 
-0.00343552 0.0429411 0.999072 
-0.00437371 0.0658007 0.997823 
-0.000505424 0.0925383 0.995709 
0.00205044 0.135014 0.990842 
-0.00262446 0.176036 0.98438 
0.01085 0.233888 0.972203 
0.0387567 0.291042 0.955925 
0.0521991 0.466407 0.883029 
0.0152243 0.511538 0.859125 
0.0552167 0.634219 0.77118 
0.0293331 0.964411 0.262777 
-0.0045543 0.93389 -0.357531 
-0.0227058 0.631987 -0.774646 
-0.017815 0.428657 -0.903292 
-0.0638209 0.302615 -0.950974 
-0.0375695 0.223802 -0.97391 
-0.0215045 0.172905 -0.984704 
-0.0033429 0.137601 -0.990482 
0.000808448 0.0983693 -0.99515 
0.0031462 0.0677142 -0.9977 
0.00315734 0.0457243 -0.998949 
0.00202364 0.0305169 -0.999532 
0.000928162 0.0201451 -0.999797 
0.000505467 0.0137386 -0.999905 
0.000114279 0.00875436 -0.999962 
-0.00013753 0.00521714 -0.999986 
-0.00035056 0.0026744 -0.999996 
-0.000520722 0.000789671 -1 
-0.000615411 -0.000595767 -1 
-0.000737848 -0.00159802 -0.999998 
-0.000926776 -0.00218234 -0.999997 
-0.000976613 -0.00257676 -0.999996 
-0.000994243 -0.00277416 -0.999996 
-0.000910514 -0.00286515 -0.999995 
-0.000802652 -0.00284888 -0.999996 
-0.000630831 -0.00273453 -0.999996 
-0.000458324 -0.00256816 -0.999997 
-0.000270376 -0.0023435 -0.999997 
-0.00010454 -0.00209411 -0.999998 
3.14481e-05 -0.00187548 -0.999998 
0.00012845 -0.00166129 -0.999999 
0.000185754 -0.00150655 -0.999999 
0.000223594 -0.00140556 -0.999999 
0.000212367 -0.00134029 -0.999999 
0.000212224 -0.00132443 -0.999999 
0.000206173 -0.00132938 -0.999999 
0.000178491 -0.00136375 -0.999999 
0.000194618 -0.00137611 -0.999999 
0.000189537 -0.00139731 -0.999999 
0.000192823 -0.000176836 -1 
-0.000188698 -4.58418e-05 1 
-0.000214475 -0.00138277 0.999999 
-0.000217896 -0.00135447 0.999999 
-0.000222367 -0.00133028 0.999999 
-0.000250722 -0.00130486 0.999999 
-0.000242078 -0.00131954 0.999999 
-0.000264386 -0.00135141 0.999999 
-0.000258903 -0.00145407 0.999999 
-0.000229506 -0.0015908 0.999999 
-0.000160984 -0.00180929 0.999998 
-6.29371e-05 -0.00204817 0.999998 
7.49247e-05 -0.00232941 0.999997 
0.000272541 -0.00254445 0.999997 
0.00048791 -0.00276749 0.999996 
0.00070333 -0.00288507 0.999996 
0.000932551 -0.00294885 0.999995 
0.00111599 -0.00288924 0.999995 
0.00124923 -0.0027044 0.999996 
0.00132207 -0.002373 0.999996 
0.00136049 -0.00187359 0.999997 
0.00135317 -0.00115707 0.999998 
0.0012963 -0.000195397 0.999999 
0.00117317 0.00109594 0.999999 
0.00107665 0.00285682 0.999995 
0.000995753 0.00530414 0.999985 
0.00102191 0.00863661 0.999962 
0.000991346 0.013423 0.999909 
0.000966828 0.0206143 0.999787 
0.000809375 0.0317147 0.999497 
0.00150047 0.0481094 0.998841 
0.00600289 0.0667639 0.997751 
0.0164104 0.0989319 0.994959 
0.0312611 0.136161 0.990193 
0.0334604 0.179245 0.983235 
0.0622255 0.227586 0.971768 
0.105064 0.284632 0.952862 
0.0685558 0.365519 0.928276 
0.106286 0.526292 0.843635 
0.0599665 0.84169 0.536621 
-0.0042567 0.998946 -0.0457124 
-0.0555991 0.716106 -0.695773 
-0.063771 0.491239 -0.868687 
-0.0806225 0.37476 -0.92361 
-0.0964288 0.250193 -0.963382 
-0.0757416 0.188111 -0.979223 
-0.0484684 0.147551 -0.987866 
-0.0218025 0.116343 -0.99297 
-0.00984107 0.0831299 -0.99649 
-0.00403329 0.0584561 -0.998282 
-0.00144435 0.0403246 -0.999186 
-0.00100227 0.0270448 -0.999634 
-0.00126545 0.0183387 -0.999831 
-0.000913131 0.012303 -0.999924 
-0.000923801 0.00777475 -0.999969 
-0.000984296 0.00469936 -0.999988 
-0.00103479 0.00230739 -0.999997 
-0.00112648 0.000673935 -0.999999 
-0.00112895 -0.000579751 -0.999999 
-0.00119124 -0.00146408 -0.999998 
-0.00126939 -0.00210217 -0.999997 
-0.00125595 -0.00250905 -0.999996 
-0.00117302 -0.00278425 -0.999995 
-0.0010339 -0.00291959 -0.999995 
-0.000841079 -0.00294014 -0.999995 
-0.000634146 -0.00286234 -0.999996 
-0.000411735 -0.00269854 -0.999996 
-0.00020514 -0.00246876 -0.999997 
-3.77274e-05 -0.00221353 -0.999998 
0.000101104 -0.00194576 -0.999998 
0.000188138 -0.00172298 -0.999998 
0.000237377 -0.00154377 -0.999999 
0.000261591 -0.00139686 -0.999999 
0.000259868 -0.001333 -0.999999 
0.000249019 -0.00131101 -0.999999 
0.000244242 -0.00130356 -0.999999 
0.000224076 -0.00133118 -0.999999 
0.000217862 -0.00135057 -0.999999 
0.000207633 -0.00138493 -0.999999 
0.000188797 -0.000106329 -1 
-0.000146505 -5.25091e-05 1 
-0.000193273 -0.00137081 0.999999 
-0.000226739 -0.00131341 0.999999 
-0.000244784 -0.00129823 0.999999 
-0.00025713 -0.00128023 0.999999 
-0.00026603 -0.00130994 0.999999 
-0.000274906 -0.00133302 0.999999 
-0.000276742 -0.00141234 0.999999 
-0.000263055 -0.00156515 0.999999 
-0.000223257 -0.00176073 0.999998 
-0.000154093 -0.00202605 0.999998 
-4.94582e-05 -0.00230211 0.999997 
0.000127923 -0.00261281 0.999997 
0.000324545 -0.00283267 0.999996 
0.00056186 -0.00302175 0.999995 
0.000813424 -0.00307905 0.999995 
0.00107025 -0.00305344 0.999995 
0.00128776 -0.00288713 0.999995 
0.00145656 -0.00257749 0.999996 
0.00157402 -0.00213198 0.999996 
0.00164716 -0.00150999 0.999998 
0.00168212 -0.000685753 0.999998 
0.00167257 0.000389091 0.999999 
0.00165271 0.00176919 0.999997 
0.00168062 0.00369445 0.999992 
0.00186335 0.00625462 0.999979 
0.00227287 0.00990734 0.999948 
0.00291415 0.0151296 0.999881 
0.00398089 0.0232132 0.999723 
0.00595463 0.0349431 0.999372 
0.0110486 0.0484964 0.998762 
0.0203917 0.0710156 0.997267 
0.0394352 0.0989184 0.994314 
0.0682469 0.131797 0.988925 
0.087581 0.178595 0.980017 
0.130477 0.199933 0.971083 
0.159624 0.31444 0.935761 
0.0304589 0.485087 0.873935 
0.129627 0.683959 0.717912 
0.0681627 0.965889 0.249823 
-0.0986281 0.776527 -0.622317 
-0.107317 0.566998 -0.816698 
-0.150144 0.301402 -0.941602 
-0.141081 0.200398 -0.969503 
-0.103207 0.148195 -0.983558 
-0.0681095 0.113371 -0.991215 
-0.039981 0.0974884 -0.994433 
-0.0235008 0.0754867 -0.99687 
-0.0137432 0.0553651 -0.998372 
-0.00781704 0.0397803 -0.999178 
-0.00485846 0.0279558 -0.999597 
-0.0037366 0.0190145 -0.999812 
-0.00252399 0.0126208 -0.999917 
-0.00193998 0.00836435 -0.999963 
-0.00173618 0.00509897 -0.999985 
-0.0015583 0.00280719 -0.999995 
-0.00156471 0.00108648 -0.999998 
-0.00152037 -0.000216075 -0.999999 
-0.00151222 -0.00115129 -0.999998 
-0.00149433 -0.00185155 -0.999997 
-0.00144126 -0.00239666 -0.999996 
-0.00130819 -0.00276192 -0.999995 
-0.00112347 -0.00299848 -0.999995 
-0.000902274 -0.00308352 -0.999995 
-0.00065863 -0.00306757 -0.999995 
-0.00042831 -0.00293342 -0.999996 
-0.000210727 -0.00271428 -0.999996 
-3.30174e-05 -0.00244568 -0.999997 
9.56261e-05 -0.0021509 -0.999998 
0.000188814 -0.00188156 -0.999998 
0.000240571 -0.00165194 -0.999999 
0.000266428 -0.00146632 -0.999999 
0.000270773 -0.00134756 -0.999999 
0.000265301 -0.00130004 -0.999999 
0.000250718 -0.00128147 -0.999999 
0.000231104 -0.00130263 -0.999999 
0.000205421 -0.00133104 -0.999999 
0.000196747 -0.00138566 -0.999999 
0.00014601 -6.59226e-05 -1 
-9.90502e-05 -9.041e-05 1 
-0.000147353 -0.00132347 0.999999 
-0.000201899 -0.00133549 0.999999 
-0.000210572 -0.00128232 0.999999 
-0.000233467 -0.00126737 0.999999 
-0.000252824 -0.00129127 0.999999 
-0.000264754 -0.0013817 0.999999 
-0.000262398 -0.00150036 0.999999 
-0.000239407 -0.0017249 0.999998 
-0.000196541 -0.00196681 0.999998 
-0.000120021 -0.00228124 0.999997 
2.78594e-06 -0.00258701 0.999997 
0.000167408 -0.00289815 0.999996 
0.000370995 -0.00310644 0.999995 
0.000627584 -0.00324965 0.999995 
0.000891162 -0.00325025 0.999994 
0.00115397 -0.00314788 0.999994 
0.00138768 -0.00289237 0.999995 
0.00157038 -0.00250802 0.999996 
0.00170645 -0.00197458 0.999997 
0.00179836 -0.00128572 0.999998 
0.00185625 -0.000414471 0.999998 
0.00189877 0.000641895 0.999998 
0.00196371 0.00203441 0.999996 
0.00214661 0.00383542 0.99999 
0.00256491 0.00631238 0.999977 
0.00340668 0.00970326 0.999947 
0.00478237 0.0147683 0.99988 
0.00709768 0.0219434 0.999734 
0.0109968 0.0308307 0.999464 
0.0189972 0.044897 0.998811 
0.0334701 0.0644845 0.997357 
0.0566453 0.0817847 0.995039 
0.0859611 0.0853884 0.992633 
0.112552 0.122495 0.986066 
0.170335 0.156745 0.97284 
0.196864 0.267157 0.94333 
0.124851 0.406616 0.905028 
0.124032 0.841043 0.526558 
-0.0363997 0.969155 -0.243748 
-0.125309 0.864168 -0.487351 
-0.14401 0.413221 -0.899172 
-0.20654 0.263477 -0.942296 
-0.159756 0.137885 -0.977479 
-0.109203 0.0963716 -0.989337 
-0.073696 0.0749033 -0.994464 
-0.0474631 0.0703717 -0.996391 
-0.0296352 0.0553912 -0.998025 
-0.0183115 0.0422241 -0.99894 
-0.0112803 0.0310073 -0.999456 
-0.00736261 0.0220738 -0.999729 
-0.00470941 0.014734 -0.99988 
-0.00331918 0.00998438 -0.999945 
-0.00251311 0.00667434 -0.999975 
-0.00206248 0.00393898 -0.99999 
-0.00185381 0.00214289 -0.999996 
-0.0017588 0.000609559 -0.999998 
-0.00170991 -0.000464591 -0.999998 
-0.00166397 -0.00131259 -0.999998 
-0.0015897 -0.00199699 -0.999997 
-0.00146108 -0.0025557 -0.999996 
-0.00128143 -0.00293181 -0.999995 
-0.00104626 -0.00318353 -0.999994 
-0.000806093 -0.00326458 -0.999994 
-0.00055123 -0.00323893 -0.999995 
-0.000323828 -0.00307252 -0.999995 
-0.000127428 -0.00282782 -0.999996 
2.42447e-05 -0.00252764 -0.999997 
0.000129034 -0.00220971 -0.999998 
0.000197629 -0.00191729 -0.999998 
0.000238236 -0.00165085 -0.999999 
0.000259678 -0.00145991 -0.999999 
0.000256644 -0.00134199 -0.999999 
0.000254342 -0.00128448 -0.999999 
0.000231687 -0.0012574 -0.999999 
0.000219006 -0.00127392 -0.999999 
0.000185766 -0.00129112 -0.999999 
0.000163227 -0.0013467 -0.999999 
9.91791e-05 -0.000142069 -1 
-5.0162e-05 -8.5434e-05 1 
-0.000104908 -0.00127589 0.999999 
-0.000172758 -0.00128495 0.999999 
-0.00018645 -0.00123529 0.999999 
-0.000223379 -0.00125038 0.999999 
-0.00021553 -0.00127073 0.999999 
-0.000237164 -0.0013505 0.999999 
-0.000228105 -0.0014919 0.999999 
-0.000227571 -0.00167494 0.999999 
-0.000188328 -0.00195374 0.999998 
-0.000140772 -0.00225075 0.999997 
-5.20136e-05 -0.00260809 0.999997 
7.05827e-05 -0.00292814 0.999996 
0.000244141 -0.00321318 0.999995 
0.000461607 -0.00338176 0.999994 
0.000721381 -0.00344711 0.999994 
0.000981202 -0.00337018 0.999994 
0.00123727 -0.00314185 0.999994 
0.00144742 -0.00276889 0.999995 
0.00161409 -0.00225022 0.999996 
0.00173364 -0.00159886 0.999997 
0.00181545 -0.000805201 0.999998 
0.00187791 0.000129484 0.999998 
0.00197734 0.00126343 0.999997 
0.00216302 0.00264204 0.999994 
0.00256856 0.00448372 0.999987 
0.00338843 0.00690974 0.99997 
0.00492067 0.0104253 0.999934 
0.00737109 0.0151725 0.999858 
0.0114204 0.0210449 0.999713 
0.0181808 0.0303079 0.999375 
0.0314058 0.0432092 0.998572 
0.0521967 0.0501927 0.997375 
0.0757698 0.0438705 0.99616 
0.119535 0.0589408 0.991079 
0.167054 0.0912016 0.98172 
0.249316 0.233969 0.939734 
0.254081 0.429906 0.866386 
0.189173 0.518027 0.834183 
0.00596027 0.999515 0.0305595 
-0.180777 0.585867 -0.789987 
-0.22683 0.405549 -0.885482 
-0.226172 0.19511 -0.954347 
-0.157262 0.071527 -0.984963 
-0.103429 0.0474807 -0.993503 
-0.0683046 0.0386638 -0.996915 
-0.0477301 0.0435987 -0.997908 
-0.031418 0.0373778 -0.998807 
-0.0203689 0.0297632 -0.999349 
-0.0134502 0.0238907 -0.999624 
-0.0090401 0.0175446 -0.999805 
-0.00595427 0.0131748 -0.999895 
-0.00396548 0.00874809 -0.999954 
-0.00286876 0.00589475 -0.999979 
-0.00227488 0.00387578 -0.99999 
-0.00194132 0.00210257 -0.999996 
-0.00180345 0.000841382 -0.999998 
-0.00171816 -0.000306696 -0.999998 
-0.00166176 -0.0011818 -0.999998 
-0.00158178 -0.00190499 -0.999997 
-0.00145153 -0.0024976 -0.999996 
-0.00124675 -0.00299316 -0.999995 
-0.0010273 -0.00329033 -0.999994 
-0.000767345 -0.00344105 -0.999994 
-0.000529612 -0.00343754 -0.999994 
-0.000307872 -0.00328627 -0.999995 
-0.000127617 -0.00303883 -0.999995 
1.18735e-05 -0.00272072 -0.999996 
0.000109234 -0.00236683 -0.999997 
0.000168462 -0.00204925 -0.999998 
0.00020649 -0.00174003 -0.999998 
0.000229789 -0.00150218 -0.999999 
0.000228659 -0.00134838 -0.999999 
0.000225707 -0.00126721 -0.999999 
0.000197346 -0.00123147 -0.999999 
0.000187766 -0.00124114 -0.999999 
0.000146837 -0.00125349 -0.999999 
0.000123204 -0.00130426 -0.999999 
5.22835e-05 -8.618e-05 -1 
-7.12749e-06 -0.000102886 1 
-5.64651e-05 -0.00123059 0.999999 
-0.000140695 -0.00123886 0.999999 
-0.000139325 -0.00120092 0.999999 
-0.00018094 -0.0012234 0.999999 
-0.000173795 -0.00126085 0.999999 
-0.000193746 -0.00136521 0.999999 
-0.000179688 -0.00153454 0.999999 
-0.000176169 -0.00176191 0.999998 
-0.000135935 -0.00206571 0.999998 
-9.74726e-05 -0.00242197 0.999997 
-2.38573e-05 -0.00278522 0.999996 
8.35053e-05 -0.00312035 0.999995 
0.000232092 -0.00339999 0.999994 
0.000431662 -0.00356621 0.999994 
0.000649488 -0.0036059 0.999993 
0.000902622 -0.00349636 0.999993 
0.00112677 -0.00322512 0.999994 
0.00131615 -0.00279255 0.999995 
0.00147037 -0.00222032 0.999996 
0.00158433 -0.00151029 0.999998 
0.00166007 -0.00069685 0.999998 
0.00173316 0.000226882 0.999998 
0.00185829 0.00124065 0.999998 
0.00211422 0.00248542 0.999995 
0.00262078 0.00399623 0.999989 
0.00364913 0.00601594 0.999975 
0.005394 0.00848919 0.999949 
0.00819184 0.0117254 0.999898 
0.0128155 0.0157182 0.999794 
0.0204547 0.0222413 0.999543 
0.0322066 0.0277113 0.999097 
0.0469102 0.0249282 0.998588 
0.06289 0.0093647 0.997977 
0.10228 0.013902 0.994659 
0.170014 0.0254075 0.985114 
0.256455 0.13473 0.95712 
0.334771 0.369777 0.866714 
0.238243 0.734457 0.635463 
-0.0281685 0.996037 -0.0843581 
-0.261655 0.667765 -0.696869 
-0.313644 0.332005 -0.889607 
-0.229715 0.107403 -0.967314 
-0.142852 0.0156205 -0.989621 
-0.0858524 0.00779918 -0.996277 
-0.0561108 0.00920781 -0.998382 
-0.0419614 0.0201392 -0.998916 
-0.0293515 0.0217133 -0.999333 
-0.0195804 0.0192523 -0.999623 
-0.0128491 0.0158929 -0.999791 
-0.0082658 0.0121852 -0.999892 
-0.00534155 0.0093051 -0.999942 
-0.00347331 0.00616759 -0.999975 
-0.00250409 0.00419475 -0.999988 