# vtk DataFile Version 3.0 
Exported using Morpho https://github.com/Morpho-lang/morpho 
ASCII 
DATASET UNSTRUCTURED_GRID 

POINTS 1978 float 
-8.48528 -2.82843 -9.18587e-14 
-8.25732 -2.82843 1.12524e-12 
-8.03041 -2.82843 1.00768e-12 
-7.76222 -2.82843 8.16815e-13 
-7.50324 -2.82843 7.47365e-13 
-7.21574 -2.82843 6.78854e-13 
-7.00198 -2.82843 5.30665e-13 
-6.76769 -2.82843 5.16581e-13 
-6.55364 -2.82843 4.34615e-13 
-6.34378 -2.82843 4.14729e-13 
-6.1329 -2.82843 3.89064e-13 
-5.92369 -2.82843 3.6395e-13 
-5.71117 -2.82843 3.24997e-13 
-5.51506 -2.82843 3.25407e-13 
-5.28357 -2.82843 3.26594e-13 
-5.07867 -2.82843 2.86906e-13 
-4.86914 -2.82843 2.83663e-13 
-4.65968 -2.82843 2.66884e-13 
-4.44625 -2.82843 2.41304e-13 
-4.2353 -2.82843 1.96221e-13 
-4.02542 -2.82843 1.38663e-13 
-3.82563 -2.82843 5.98622e-14 
-3.61725 -2.82843 -3.46612e-14 
-3.40668 -2.82843 -1.6568e-13 
-3.1892 -2.82843 -3.25243e-13 
-2.96714 -2.82843 -5.01102e-13 
-2.73996 -2.82843 -6.70528e-13 
-2.50633 -2.82843 -7.76448e-13 
-2.2652 -2.82843 -7.02453e-13 
-2.01731 -2.82843 -6.21401e-14 
-1.79026 -2.82843 1.65444e-12 
-1.58808 -2.82843 5.26251e-12 
-1.33074 -2.82843 1.94963e-11 
-1.15407 -2.82843 4.44547e-11 
-1.03404 -2.82843 1.06888e-10 
-0.88413 -2.82843 1.86105e-10 
-0.749523 -2.82843 4.33046e-10 
-0.630596 -2.82843 1.50579e-09 
-0.410038 -2.82843 5.53277e-09 
-0.18217 -2.82843 6.09521e-09 
0.334951 -2.82843 -3.98893e-09 
0.548919 -2.82843 -1.41808e-09 
0.692686 -2.82843 -3.37481e-10 
0.860057 -2.82843 -8.34645e-11 
0.992821 -2.82843 -8.92133e-11 
1.1631 -2.82843 -3.36903e-11 
1.37382 -2.82843 -1.27291e-11 
1.58176 -2.82843 -4.5585e-12 
1.82644 -2.82843 -1.01924e-12 
2.07765 -2.82843 2.62709e-13 
2.29558 -2.82843 6.63568e-13 
2.53853 -2.82843 7.7075e-13 
2.75028 -2.82843 6.42436e-13 
2.96273 -2.82843 4.8977e-13 
3.17559 -2.82843 3.2047e-13 
3.39551 -2.82843 1.74511e-13 
3.61619 -2.82843 3.78753e-14 
3.81933 -2.82843 -6.62832e-14 
4.03608 -2.82843 -1.4079e-13 
4.25236 -2.82843 -1.95257e-13 
4.45428 -2.82843 -2.41125e-13 
4.66376 -2.82843 -2.58019e-13 
4.86416 -2.82843 -2.87482e-13 
5.0761 -2.82843 -2.95166e-13 
5.28111 -2.82843 -3.22982e-13 
5.5005 -2.82843 -3.26086e-13 
5.70579 -2.82843 -3.46113e-13 
5.92452 -2.82843 -3.88684e-13 
6.15155 -2.82843 -3.95931e-13 
6.35865 -2.82843 -4.37373e-13 
6.58988 -2.82843 -4.71912e-13 
6.80555 -2.82843 -4.70955e-13 
7.00941 -2.82843 -6.2247e-13 
7.29163 -2.82843 -6.50154e-13 
7.5098 -2.82843 -6.25354e-13 
7.74911 -2.82843 -8.03779e-13 
8.03298 -2.82843 -9.31756e-13 
8.22475 -2.82843 -1.15502e-12 
8.48528 -2.82843 -9.65831e-14 
-8.48528 -2.58533 -2.04569e-13 
-8.2616 -2.59323 3.569e-18 
-8.0416 -2.57537 1.01505e-18 
-7.81439 -2.62925 2.46715e-18 
-7.55183 -2.62001 2.69539e-18 
-7.2771 -2.63799 2.27941e-18 
-7.00659 -2.5783 1.879e-18 
-6.79106 -2.60609 1.77045e-18 
-6.55046 -2.58388 1.58908e-18 
-6.32455 -2.59242 1.46904e-18 
-6.10249 -2.58795 1.47285e-18 
-5.8833 -2.59005 1.31353e-18 
-5.6767 -2.56939 1.31513e-18 
-5.4488 -2.61074 1.16054e-18 
-5.23207 -2.58355 1.20595e-18 
-5.01647 -2.59044 1.10468e-18 
-4.7993 -2.59229 9.71114e-19 
-4.58095 -2.59786 8.25068e-19 
-4.36235 -2.59558 6.48898e-19 
-4.14487 -2.59444 4.02405e-19 
-3.93517 -2.58245 -4.18705e-14 
-3.7246 -2.59109 -3.51131e-19 
-3.5081 -2.59009 -8.06348e-19 
-3.28751 -2.59337 -1.31371e-18 
-3.06035 -2.59252 -1.82875e-18 
-2.82834 -2.5927 -2.39953e-18 
-2.59148 -2.59595 -2.92811e-18 
-2.34783 -2.6027 -3.0006e-18 
-2.09719 -2.61052 -2.30045e-18 
-1.85081 -2.59855 -1.42152e-18 
-1.62938 -2.58986 -1.35282e-18 
-1.42299 -2.66021 -6.22089e-17 
-1.20766 -2.61944 -2.19348e-16 
-1.05381 -2.58176 -6.7885e-16 
-0.940142 -2.67774 -8.23716e-16 
-0.84509 -2.53359 -5.30877e-16 
-0.78486 -2.67319 -2.15156e-15 
-0.546064 -2.75731 -4.7835e-15 
-0.312937 -2.77204 2.87634e-15 
-0.0384022 -2.80546 2.06504e-14 
0.24767 -2.79348 -8.19458e-15 
0.643862 -2.71454 2.20852e-15 
0.757537 -2.58957 1.5171e-15 
0.810268 -2.70787 1.44851e-15 
0.973377 -2.64544 8.23914e-16 
1.12561 -2.63926 2.51563e-16 
1.31764 -2.64732 1.16831e-16 
1.52863 -2.61036 2.3506e-17 
1.75746 -2.62237 5.29135e-18 
2.01337 -2.61736 2.36764e-18 
2.26146 -2.58323 2.88211e-18 
2.49082 -2.60825 2.86542e-18 
2.73725 -2.58065 3.14965e-18 
2.96185 -2.58588 1.8731e-18 
3.18597 -2.591 1.45336e-18 
3.41668 -2.59703 1.16405e-18 
3.62877 -2.58064 5.96155e-19 
3.8513 -2.59853 -4.41518e-14 
4.07634 -2.60042 -2.58337e-19 
4.28771 -2.58494 -5.47734e-19 
4.50085 -2.59381 -8.03683e-19 
4.7094 -2.58293 -9.58548e-19 
4.92366 -2.59587 -1.06603e-18 
5.13635 -2.58697 -1.15443e-18 
5.35654 -2.60173 -1.20822e-18 
5.57172 -2.58405 -1.27019e-18 
5.78957 -2.59689 -1.31969e-18 
6.01841 -2.60336 -1.34196e-18 
6.23826 -2.57888 -1.45634e-18 
6.46136 -2.60292 -1.54524e-18 
6.68793 -2.58419 -1.68963e-18 
6.89976 -2.56832 -2.01689e-18 
7.1372 -2.63948 -1.97568e-18 
7.38101 -2.58232 -2.4654e-18 
7.60943 -2.60332 -2.74022e-18 
7.87299 -2.63793 -2.00818e-18 
8.08282 -2.54564 -9.82833e-19 
8.30729 -2.61836 -4.38998e-18 
8.48528 -2.52132 1.60031e-13 
-8.48528 -2.34358 6.72702e-14 
-8.25102 -2.34768 2.34295e-18 
-7.99688 -2.35139 6.01868e-19 
-7.75558 -2.41257 2.3731e-18 
-7.57089 -2.2288 1.8016e-18 
-7.46731 -2.43012 2.6733e-18 
-7.20244 -2.42178 2.41438e-18 
-6.96252 -2.3344 1.73692e-18 
-6.72983 -2.38492 1.6688e-18 
-6.48292 -2.36008 1.41284e-18 
-6.25344 -2.36142 1.2244e-18 
-6.02659 -2.35115 1.12697e-18 
-5.81726 -2.33455 9.45388e-19 
-5.57663 -2.36247 1.08639e-18 
-5.36757 -2.36397 9.87327e-19 
-5.14089 -2.35188 9.02317e-19 
-4.92162 -2.35971 8.45251e-19 
-4.70093 -2.36442 7.58212e-19 
-4.48376 -2.36789 6.20636e-19 
-4.26388 -2.3659 4.16077e-19 
-4.05246 -2.35028 1.59851e-19 
-3.83769 -2.3482 -1.08509e-19 
-3.62567 -2.35665 -4.65253e-19 
-3.40566 -2.35749 -9.09378e-19 
-3.18276 -2.36106 -1.42207e-18 
-2.95225 -2.36024 -1.97121e-18 
-2.71725 -2.36138 -2.58821e-18 
-2.47709 -2.37014 -2.98734e-18 
-2.23044 -2.3843 -2.85302e-18 
-1.9852 -2.38542 -2.29739e-18 
-1.74762 -2.36421 -2.27557e-18 
-1.50972 -2.4039 -1.95833e-17 
-1.32439 -2.45149 -1.68179e-17 
-1.13875 -2.39291 2.09797e-17 
-0.961983 -2.42769 3.18641e-16 
-0.774218 -2.3811 -8.31164e-16 
-0.659316 -2.67432 -2.05279e-15 
-0.455905 -2.70781 2.77097e-15 
-0.275968 -2.68873 -3.47217e-15 
-0.151752 -2.74455 -8.68894e-16 
0.211189 -2.71562 1.04549e-15 
0.438513 -2.76491 1.2394e-15 
0.620782 -2.57035 4.09032e-15 
0.884561 -2.5049 -4.58913e-17 
1.01996 -2.45261 1.40976e-16 
1.14596 -2.37683 2.82977e-18 
1.27797 -2.45829 2.87618e-20 
1.4714 -2.40986 1.22889e-17 
1.69849 -2.40703 1.47289e-18 
1.93975 -2.41208 2.15201e-18 
2.1879 -2.37227 2.81999e-18 
2.44294 -2.36234 2.50561e-18 
2.66805 -2.36751 2.80409e-18 
2.91726 -2.34532 2.03635e-18 
3.14294 -2.35717 1.57828e-18 
3.36702 -2.36685 1.03173e-18 
3.58534 -2.3385 5.69474e-19 
3.79966 -2.36358 2.00249e-19 
4.01663 -2.37461 -1.37791e-19 
4.23209 -2.35127 -3.73797e-19 
4.44671 -2.3557 -5.50054e-19 
4.65307 -2.34656 -6.74236e-19 
4.86787 -2.35852 -7.9646e-19 
5.07753 -2.35331 -8.78845e-19 
5.29713 -2.36855 -9.72137e-19 
5.5101 -2.35317 -1.01147e-18 
5.73212 -2.35787 -1.0524e-18 
5.95081 -2.37558 -1.13933e-18 
6.17074 -2.35006 -1.18257e-18 
6.4028 -2.36018 -1.30563e-18 
6.6184 -2.35649 -1.44932e-18 
6.84106 -2.32013 -1.51598e-18 
7.07315 -2.39294 -2.03278e-18 
7.28872 -2.38455 -2.46485e-18 
7.55054 -2.35775 -2.55523e-18 
7.78262 -2.41968 -2.29466e-18 
7.99319 -2.32655 -8.07332e-19 
8.24778 -2.35219 -2.00218e-18 
8.48528 -2.29316 -1.76849e-14 
-8.48528 -2.10684 4.85397e-14 
-8.25606 -2.09828 6.8323e-19 
-8.04785 -2.12416 -1.14999e-18 
-7.7891 -2.16411 9.32081e-19 
-7.47188 -2.01807 2.34041e-19 
-7.30894 -2.2199 1.53994e-18 
-7.07985 -2.14594 7.90779e-19 
-6.80248 -2.13828 5.54877e-19 
-6.58796 -2.15413 5.30984e-19 
-6.35052 -2.13123 3.56173e-19 
-6.1317 -2.12406 2.69929e-19 
-5.91873 -2.0913 -3.96983e-14 
-5.69109 -2.1334 2.52122e-19 
-5.4774 -2.11562 1.54753e-19 
-5.26587 -2.13232 2.14205e-19 
-5.04067 -2.125 1.66891e-19 
-4.82297 -2.13284 1.55164e-19 
-4.60738 -2.13354 1.19115e-19 
-4.39251 -2.13949 9.18599e-20 
-4.18265 -2.12373 -1.77075e-15 
-3.96796 -2.11616 3.84328e-14 
-3.75465 -2.11439 -1.57619e-19 
-3.541 -2.12559 -2.9931e-19 
-3.32004 -2.12563 -4.9357e-19 
-3.09503 -2.13068 -7.13615e-19 
-2.86318 -2.129 -1.02174e-18 
-2.62582 -2.13304 -1.50714e-18 
-2.38376 -2.14739 -1.85611e-18 
-2.14222 -2.15815 -1.7747e-18 
-1.90482 -2.15395 -1.50313e-18 
-1.65197 -2.16709 -2.47338e-18 
-1.44426 -2.17156 1.50062e-18 
-1.26604 -2.22433 1.57789e-17 
-1.07825 -2.19424 6.35455e-17 
-0.919373 -2.2645 1.07259e-16 
-0.727989 -2.22089 9.33728e-16 
-0.68656 -2.51353 -1.04315e-15 
-0.564626 -2.58593 -4.14128e-15 
-0.0352474 -2.70902 5.44794e-16 
0.0808436 -2.7594 1.22849e-14 
0.343606 -2.6928 5.18523e-15 
0.523244 -2.68047 4.12437e-15 
0.787357 -2.39956 -1.49062e-16 
0.767857 -2.212 -1.28441e-16 
0.931 -2.26712 -5.51965e-16 
1.10323 -2.1951 -4.87293e-17 
1.32032 -2.22459 -3.50895e-17 
1.53248 -2.19488 -6.40506e-18 
1.76352 -2.1925 2.88925e-18 
1.99734 -2.18269 2.5099e-18 
2.2508 -2.15135 2.10685e-18 
2.484 -2.1188 1.5163e-18 
2.72637 -2.14742 1.59071e-18 
2.96325 -2.11376 8.51485e-19 
3.18725 -2.12535 6.15264e-19 
3.40253 -2.12545 3.82464e-19 
3.62356 -2.10472 1.92864e-19 
3.83875 -2.13352 1.13866e-19 
4.051 -2.13963 -1.18e-14 
4.27042 -2.12099 1.89351e-14 
4.47589 -2.11291 3.3455e-14 
4.69296 -2.11817 -1.05378e-19 
4.90159 -2.11943 -1.41927e-19 
5.12301 -2.12859 -1.80062e-19 
5.33332 -2.12912 -1.94739e-19 
5.55655 -2.12542 -1.94929e-19 
5.77734 -2.12671 -1.94024e-19 
5.9913 -2.13626 -2.5108e-19 
6.22812 -2.12875 -2.75449e-19 
6.44423 -2.11477 -3.16621e-19 
6.66105 -2.11223 -4.11338e-19 
6.91824 -2.11398 -5.10575e-19 
7.12611 -2.14174 -7.83625e-19 
7.36606 -2.17124 -1.17421e-18 
7.56842 -2.08282 -6.09076e-19 
7.75953 -2.17687 -9.12745e-19 
7.97331 -2.08155 1.22415e-18 
8.19906 -2.13457 4.99169e-19 
8.48528 -2.10257 -2.98177e-14 
-8.48528 -1.8025 2.30456e-14 
-8.31554 -1.85917 6.0356e-19 
-7.90826 -1.92983 -1.2123e-18 
-7.68323 -1.93155 -1.63046e-19 
[...]
POINT_DATA 1978 
VECTORS vectors float
-0.00016701 -0.00196998 0.999998 
-8.27871e-05 -0.0213843 0.999771 
2.37731e-05 -0.0209311 0.999781 
0.000123137 -0.0162229 0.999868 
0.000145415 -0.0131275 0.999914 
5.6078e-05 -0.0114566 0.999934 
-4.39136e-05 -0.010639 0.999943 
-6.19963e-05 -0.00969205 0.999953 
-9.65214e-05 -0.00898125 0.99996 
-0.000113886 -0.00841271 0.999965 
-0.000104794 -0.00787736 0.999969 
-0.000108723 -0.00731705 0.999973 
-0.000120953 -0.00671073 0.999977 
-0.000101736 -0.00631414 0.99998 
-9.11465e-05 -0.00586446 0.999983 
-0.000117306 -0.0054944 0.999985 
-0.000117327 -0.00522334 0.999986 
-0.000108787 -0.00484808 0.999988 
-0.000107328 -0.00431235 0.999991 
-0.000111349 -0.00355724 0.999994 
-0.000123829 -0.0025052 0.999997 
-0.000123196 -0.00111387 0.999999 
-0.00010676 0.000952115 1 
-8.95647e-05 0.0038915 0.999992 
-7.20109e-05 0.00795026 0.999968 
-5.4558e-05 0.0132485 0.999912 
-3.92148e-05 0.0200329 0.999799 
-2.05712e-05 0.0290906 0.999577 
-1.09566e-05 0.0420584 0.999115 
-1.79032e-05 0.0610111 0.998137 
1.44938e-05 0.0857157 0.99632 
-5.43311e-05 0.117555 0.993066 
9.94381e-05 0.179311 0.983792 
0.000603531 0.245342 0.969436 
0.000822459 0.315563 0.948904 
0.00120731 0.395172 0.918607 
0.00110304 0.503381 0.864064 
0.00145244 0.616304 0.787507 
0.000769603 0.803976 0.594662 
0.00194048 0.969708 0.244258 
0.00284794 0.86177 -0.507291 
-0.000820896 0.653539 -0.756892 
-0.00108751 0.548841 -0.835926 
-0.00106766 0.429514 -0.90306 
-0.00103763 0.33737 -0.941371 
-0.000327023 0.242083 -0.970255 
-1.09676e-05 0.168166 -0.985759 
-3.40082e-05 0.119698 -0.99281 
1.64212e-05 0.0830089 -0.996549 
2.72228e-05 0.0569729 -0.998376 
3.34423e-05 0.0412642 -0.999148 
5.39228e-05 0.0288717 -0.999583 
7.71679e-05 0.0210355 -0.999779 
8.08543e-05 0.0144304 -0.999896 
7.6889e-05 0.00882054 -0.999961 
7.42048e-05 0.00418531 -0.999991 
0.000100887 0.000951453 -1 
0.000108464 -0.00106931 -0.999999 
9.59728e-05 -0.00258103 -0.999997 
0.000110742 -0.00372994 -0.999993 
0.000126782 -0.00442732 -0.99999 
0.000125438 -0.004921 -0.999988 
0.000124061 -0.00527653 -0.999986 
0.000116327 -0.00558671 -0.999984 
0.000105915 -0.00590906 -0.999983 
0.000106805 -0.00628872 -0.99998 
0.000100668 -0.006675 -0.999978 
7.80565e-05 -0.00721867 -0.999974 
8.80605e-05 -0.00788126 -0.999969 
7.87139e-05 -0.00843781 -0.999964 
7.23551e-05 -0.00918791 -0.999958 
9.22045e-05 -0.00992982 -0.999951 
5.26173e-06 -0.010626 -0.999944 
-2.44132e-05 -0.0118796 -0.999929 
2.04067e-05 -0.0132831 -0.999912 
-8.29176e-05 -0.0160152 -0.999872 
3.35382e-05 -0.0210726 -0.999778 
0.000152459 -0.0212269 -0.999775 
9.77528e-05 -0.00119008 -0.999999 
0.000667941 0.000461239 1 
0.00877484 -0.0162979 0.999829 
0.00954381 -0.0196728 0.999761 
0.00895751 -0.0175175 0.999806 
0.00980194 -0.0141867 0.999851 
0.00932144 -0.0118686 0.999886 
0.0114847 -0.0104992 0.999879 
0.0108243 -0.00961113 0.999895 
0.011378 -0.00875969 0.999897 
0.0112736 -0.00813445 0.999903 
0.0114832 -0.0076154 0.999905 
0.0114381 -0.00711557 0.999909 
0.0122311 -0.00666409 0.999903 
0.0110303 -0.00620751 0.99992 
0.0121869 -0.00582207 0.999909 
0.0121857 -0.00545338 0.999911 
0.0122667 -0.00507075 0.999912 
0.0121691 -0.00456121 0.999916 
0.0123235 -0.00384745 0.999917 
0.0123706 -0.0028469 0.999919 
0.0127649 -0.00148386 0.999917 
0.0123093 0.00036889 0.999924 
0.0120424 0.00300038 0.999923 
0.0115963 0.00657944 0.999911 
0.011249 0.0114022 0.999872 
0.0108741 0.0177331 0.999784 
0.0104062 0.0261872 0.999603 
0.00986419 0.0381333 0.999224 
0.00935178 0.0555488 0.998412 
0.00995099 0.0805285 0.996703 
0.011234 0.112794 0.993555 
0.00859286 0.156003 0.987719 
0.0135087 0.226985 0.973805 
0.0219443 0.301746 0.953136 
0.019749 0.376601 0.926165 
0.0653563 0.405772 0.911635 
0.0244837 0.468225 0.88327 
0.0218512 0.683555 0.729571 
0.0290593 0.889697 0.455625 
0.00566776 0.998428 0.0557627 
-0.00612618 0.920306 -0.391151 
-0.0166941 0.569869 -0.821566 
-0.0344141 0.465262 -0.884504 
-0.00570433 0.462848 -0.886419 
-0.0133973 0.350068 -0.936629 
-0.0103425 0.267931 -0.963382 
-0.00814077 0.188423 -0.982054 
-0.00882983 0.13322 -0.991047 
-0.00813238 0.0936437 -0.995573 
-0.00854928 0.0644437 -0.997885 
-0.0101202 0.0451951 -0.998927 
-0.00954685 0.0320651 -0.99944 
-0.0111558 0.0219585 -0.999697 
-0.0110858 0.0148961 -0.999828 
-0.0110248 0.00901151 -0.999899 
-0.0114557 0.00448036 -0.999924 
-0.0122567 0.0014963 -0.999924 
-0.0118567 -0.000824771 -0.999929 
-0.0120631 -0.00247319 -0.999924 
-0.0126932 -0.0035704 -0.999913 
-0.0124171 -0.00436505 -0.999913 
-0.0127166 -0.00492274 -0.999907 
-0.012129 -0.00535755 -0.999912 
-0.0122462 -0.00572612 -0.999909 
-0.0115763 -0.00609279 -0.999914 
-0.0119406 -0.0064879 -0.999908 
-0.0113106 -0.00691269 -0.999912 
-0.0109808 -0.00743345 -0.999912 
-0.011637 -0.00793479 -0.999901 
-0.0108738 -0.00853494 -0.999904 
-0.0115408 -0.00921441 -0.999891 
-0.0119946 -0.00997623 -0.999878 
-0.00945052 -0.0111215 -0.999893 
-0.0112565 -0.0127759 -0.999855 
-0.0101133 -0.0149684 -0.999837 
-0.00845901 -0.0184574 -0.999794 
-0.0101284 -0.0196658 -0.999755 
-0.0079182 -0.0148293 -0.999859 
-0.000503146 0.000226587 -1 
0.000349107 -0.000510953 1 
0.0105642 -0.0156489 0.999822 
0.0126726 -0.0204019 0.999712 
0.0133497 -0.017551 0.999757 
0.0143654 -0.0156784 0.999774 
0.0142028 -0.0137999 0.999804 
0.0147941 -0.0115629 0.999824 
0.015238 -0.010068 0.999833 
0.0150021 -0.00911467 0.999846 
0.0150206 -0.00831287 0.999853 
0.0149367 -0.00779706 0.999858 
0.0149997 -0.00738645 0.99986 
0.0150451 -0.00703111 0.999862 
0.0153716 -0.00658008 0.99986 
0.0155634 -0.00620886 0.99986 
0.0158424 -0.00581787 0.999858 
0.0161058 -0.0054058 0.999856 
0.0163428 -0.00490437 0.999854 
0.0165184 -0.00424567 0.999855 
0.0166352 -0.00332234 0.999856 
0.0167396 -0.00208982 0.999858 
0.0167411 -0.000386409 0.99986 
0.0166331 0.00184365 0.99986 
0.0164929 0.00489373 0.999852 
0.0163054 0.00893831 0.999827 
0.0161642 0.0143685 0.999766 
0.0160745 0.0215763 0.999638 
0.016003 0.0314974 0.999376 
0.0161324 0.0456865 0.998826 
0.0172012 0.0652479 0.997721 
0.0206261 0.0913272 0.995607 
0.0241148 0.129668 0.991264 
0.0267967 0.175904 0.984043 
0.0466811 0.235548 0.970741 
0.0682519 0.304328 0.950119 
0.117506 0.407432 0.905644 
0.0400948 0.561387 0.826581 
0.0584885 0.772078 0.632831 
0.0807698 0.908779 0.409386 
0.0458005 0.969298 0.241586 
-0.0350147 0.922482 -0.384448 
-0.0156692 0.73799 -0.67463 
-0.0604459 0.562951 -0.824277 
-0.0506734 0.374376 -0.925891 
-0.0421133 0.299049 -0.953308 
-0.0419507 0.2366 -0.970701 
-0.0242419 0.197063 -0.980091 
-0.0217081 0.14149 -0.989702 
-0.0174735 0.100825 -0.994751 
-0.0156227 0.0710706 -0.997349 
-0.0160136 0.0499973 -0.998621 
-0.0157034 0.0345674 -0.999279 
-0.0157976 0.0245182 -0.999575 
-0.0159698 0.0160272 -0.999744 
-0.0159367 0.0102497 -0.99982 
-0.0160728 0.00580195 -0.999854 
-0.0164558 0.00253021 -0.999861 
-0.0164622 5.4595e-05 -0.999864 
-0.0165041 -0.00179823 -0.999862 
-0.0166393 -0.00313251 -0.999857 
-0.0165269 -0.00411626 -0.999855 
-0.0164245 -0.00480966 -0.999854 
-0.0161916 -0.00534382 -0.999855 
-0.0159829 -0.00576248 -0.999856 
-0.0156844 -0.00613875 -0.999858 
-0.0155077 -0.00652012 -0.999858 
-0.0152442 -0.00691407 -0.99986 
-0.0150261 -0.00729963 -0.99986 
-0.0150072 -0.00767985 -0.999858 
-0.0149451 -0.00812444 -0.999855 
-0.0150656 -0.00867736 -0.999849 
-0.0152031 -0.00943937 -0.99984 
-0.0151549 -0.0107377 -0.999828 
-0.0151607 -0.0122949 -0.999809 
-0.014538 -0.0150965 -0.99978 
-0.0133678 -0.018152 -0.999746 
-0.0130271 -0.0206307 -0.999702 
-0.0106914 -0.0161687 -0.999812 
-0.00056897 -0.000520121 -1 
0.000237437 -0.000166797 1 
0.00925621 -0.0163417 0.999824 
0.011387 -0.0213168 0.999708 
0.0130711 -0.0191237 0.999732 
0.012015 -0.0149375 0.999816 
0.0147331 -0.0126403 0.999812 
0.0139755 -0.0107098 0.999845 
0.013588 -0.00907756 0.999866 
0.0136879 -0.00835443 0.999871 
0.0132426 -0.00782012 0.999882 
0.0130824 -0.00752487 0.999886 
0.0126014 -0.00727544 0.999894 
0.013425 -0.00693181 0.999886 
0.0133226 -0.00659865 0.999889 
0.0138167 -0.00622748 0.999885 
0.0140149 -0.00583637 0.999885 
0.0144103 -0.00537786 0.999882 
0.0147049 -0.00479747 0.99988 
0.0150646 -0.00400422 0.999879 
0.015077 -0.00296542 0.999882 
0.0152011 -0.00151596 0.999883 
0.0154083 0.000391223 0.999881 
0.015732 0.00287663 0.999872 
0.0159774 0.00618832 0.999853 
0.0162988 0.0105663 0.999811 
0.0167258 0.0163624 0.999726 
0.0174417 0.0241574 0.999556 
0.0186107 0.0350293 0.999213 
0.0206778 0.0498742 0.998541 
0.0247168 0.0690739 0.997305 
0.0321324 0.0976934 0.994698 
0.0428323 0.132605 0.990243 
0.0535066 0.176155 0.982907 
0.0841249 0.216824 0.972579 
0.109619 0.293579 0.949629 
0.164721 0.369221 0.914627 
0.0982574 0.523502 0.84634 
0.0909044 0.649037 0.755306 
0.020116 0.999401 0.0281439 
-0.000528682 0.989164 -0.146816 
-0.0492785 0.814 -0.578771 
-0.0494068 0.659287 -0.750266 
-0.0888104 0.406438 -0.909352 
-0.128052 0.319769 -0.938802 
-0.0881753 0.280896 -0.955679 
-0.0696995 0.212176 -0.974743 
-0.0436666 0.16756 -0.984894 
-0.0330685 0.121683 -0.992018 
-0.0250627 0.0879772 -0.995807 
-0.0212626 0.0634722 -0.997757 
-0.019005 0.0438941 -0.998855 
-0.0176923 0.0310428 -0.999361 
-0.01682 0.0213566 -0.99963 
-0.0161664 0.0141375 -0.999769 
-0.01587 0.00907488 -0.999833 
-0.0156121 0.00520205 -0.999865 
-0.0152335 0.0020666 -0.999882 
-0.0153698 -0.000265388 -0.999882 
-0.015289 -0.0020267 -0.999881 
-0.0148964 -0.00340033 -0.999883 
-0.0145501 -0.00434826 -0.999885 
-0.014374 -0.00507638 -0.999884 
-0.0141089 -0.00559697 -0.999885 
-0.0139651 -0.00602809 -0.999884 
-0.0136957 -0.00639001 -0.999886 
-0.0134285 -0.00675846 -0.999887 
-0.0132495 -0.00710322 -0.999887 
-0.0132476 -0.00739648 -0.999885 
-0.0131267 -0.00767836 -0.999884 
-0.0129807 -0.00797584 -0.999884 
-0.0131177 -0.00849825 -0.999878 
-0.0134065 -0.00959021 -0.999864 
-0.0138366 -0.0110075 -0.999844 
-0.0141907 -0.0133108 -0.999811 
-0.0127401 -0.0160775 -0.99979 
-0.013209 -0.0188113 -0.999736 
-0.0114255 -0.0218114 -0.999697 
-0.0103367 -0.0185943 -0.999774 
-0.000436042 -0.000211285 -1 
0.000178361 -0.000280112 1 
0.00638631 -0.0143488 0.999877 
0.00995714 -0.0219033 0.999711 
0.0104964 -0.0183896 0.999776 
0.00888315 -0.0145941 0.999854 
0.0116054 -0.0122327 0.999858 
0.0091951 -0.0110927 0.999896 
0.0111837 -0.00970706 0.99989 
0.0101749 -0.00845033 0.999913 
0.0104309 -0.0079036 0.999914 
0.00981633 -0.00759116 0.999923 
0.009588 -0.00744568 0.999926 
0.00985094 -0.00721393 0.999925 
0.0100021 -0.00693862 0.999926 
0.0101778 -0.00660791 0.999926 
0.0107722 -0.0062456 0.999922 
0.0110095 -0.0058376 0.999922 
0.0113557 -0.00533428 0.999921 
0.0117833 -0.00464063 0.99992 
0.0120011 -0.00375062 0.999921 
0.0123058 -0.00248996 0.999921 
0.0126398 -0.000806509 0.99992 
0.0131582 0.00138765 0.999912 
0.0137643 0.00417217 0.999897 
0.014406 0.00785365 0.999865 
0.015196 0.0125557 0.999806 
0.0163242 0.0188098 0.99969 
0.0181377 0.0273288 0.999462 
0.0209988 0.038803 0.999026 
0.0256164 0.0535593 0.998236 
0.0336842 0.0750125 0.996614 
0.0468186 0.100046 0.993881 
0.0645948 0.130686 0.989317 
0.0854366 0.161695 0.983136 
0.122759 0.216126 0.968618 
0.161553 0.272884 0.948386 
0.169869 0.549322 0.818163 
0.157799 0.699777 0.696715 
0.0992865 0.816253 0.569099 
0.0838733 0.966824 0.241279 
-0.0879175 0.890875 -0.44566 
-0.0921154 0.744751 -0.660954 
-0.162686 0.391151 -0.905834 
-0.137946 0.237748 -0.961482 
-0.105224 0.205183 -0.973051 
-0.083943 0.159238 -0.983665 
-0.0587685 0.145524 -0.987608 
-0.0468089 0.109086 -0.99293 
-0.034443 0.0874598 -0.995572 
-0.0269163 0.0642397 -0.997571 
-0.021885 0.0466171 -0.998673 
-0.0187431 0.0322742 -0.999303 
-0.0166112 0.0223126 -0.999613 
-0.0153097 0.0152488 -0.999767 
-0.0143265 0.0096626 -0.999851 
-0.0136547 0.0056896 -0.999891 
-0.0130797 0.0025957 -0.999911 
-0.0127415 -5.24007e-06 -0.999919 
-0.0124899 -0.00185533 -0.99992 
-0.0121214 -0.0032711 -0.999921 
-0.0114216 -0.00439109 -0.999925 
-0.0112878 -0.00514103 -0.999923 
-0.0108291 -0.00572018 -0.999925 
-0.0107951 -0.00612868 -0.999923 
-0.0103574 -0.00650074 -0.999925 
-0.0102599 -0.00681602 -0.999924 
-0.0100149 -0.00713442 -0.999924 
-0.00987536 -0.00738757 -0.999924 
-0.0100858 -0.00755263 -0.999921 
-0.00964472 -0.00771729 -0.999924 
-0.00970586 -0.00808102 -0.99992 
-0.0104062 -0.00892629 -0.999906 
-0.0101917 -0.0104529 -0.999893 
-0.011082 -0.012601 -0.999859 
-0.00995028 -0.0157912 -0.999826 
-0.01003 -0.0199764 -0.99975 
-0.00859853 -0.0221597 -0.999717 
-0.00765834 -0.0161156 -0.999841 
-0.000136958 -0.000265509 -1 
0.00024417 -0.000259318 1 
0.00500727 -0.0174352 0.999835 
0.00803087 -0.0213403 0.99974 
0.00741083 -0.0220803 0.999729 
0.00775828 -0.0183196 0.999802 
0.00707568 -0.0125662 0.999896 
0.00723465 -0.00966674 0.999927 
0.0078467 -0.00869822 0.999931 
0.00729682 -0.00785342 0.999943 
0.00719143 -0.00758939 0.999945 
0.00676089 -0.00750339 0.999949 
0.00719414 -0.00740224 0.999947 
0.00696908 -0.0072171 0.99995 
0.00727937 -0.00695011 0.999949 
0.0075361 -0.00664938 0.999949 
0.0080475 -0.00631568 0.999948 
0.00825631 -0.00594436 0.999948 
0.00867566 -0.00543104 0.999948 
0.00897046 -0.00477427 0.999948 
0.00941501 -0.00382577 0.999948 
0.00986203 -0.00254095 0.999948 
0.0103628 -0.00085106 0.999946 
0.0110135 0.00128864 0.999939 
0.0118732 0.00408007 0.999921 
0.0127203 0.0075142 0.999891 
0.0138563 0.011947 0.999833 
0.0154238 0.0176311 0.999726 
0.0178388 0.0251004 0.999526 
0.0215956 0.035053 0.999152 
0.0276161 0.0478286 0.998474 
0.0358558 0.0637133 0.997324 
0.0479025 0.0791178 0.995714 
0.0659386 0.0993665 0.992864 
0.08946 0.117186 0.989072 
0.116393 0.153808 0.981222 
0.1569 0.181416 0.970809 
0.226516 0.410709 0.883181 
0.241418 0.629601 0.738458 
0.138858 0.937078 0.320318 
-0.0254587 0.974475 -0.223046 
-0.14538 0.825797 -0.544907 
-0.113591 0.492789 -0.862703 
-0.193825 0.267837 -0.943766 
-0.165662 0.192279 -0.967256 
-0.126295 0.159973 -0.979009 
-0.0901112 0.123719 -0.988217 
-0.0657314 0.109955 -0.991761 
-0.0481308 0.0847466 -0.995239 
-0.0355181 0.0685123 -0.997018 
-0.0270003 0.0511583 -0.998326 
-0.0215617 0.0378502 -0.999051 
-0.0173889 0.0256715 -0.999519 
-0.0151393 0.0181854 -0.99972 
-0.0136051 0.0122593 -0.999832 
-0.0123618 0.00764475 -0.999894 
-0.0114482 0.00419047 -0.999926 
-0.0108651 0.00129417 -0.99994 
-0.010242 -0.000951984 -0.999947 
-0.00980436 -0.00262304 -0.999948 
-0.00934116 -0.00391501 -0.999949 
-0.00864771 -0.00494362 -0.99995 
-0.00837886 -0.0055935 -0.999949 
-0.00797197 -0.00609757 -0.99995 
-0.00781891 -0.00644255 -0.999949 
-0.00741811 -0.00675942 -0.99995 
-0.0073792 -0.00703238 -0.999948 
-0.00715217 -0.00729533 -0.999948 
-0.0070341 -0.00747547 -0.999947 
-0.00718469 -0.00755695 -0.999946 
-0.00681662 -0.00764571 -0.999948 
-0.00702649 -0.00803218 -0.999943 
-0.00766486 -0.00900223 -0.99993 
-0.00726293 -0.0105389 -0.999918 
-0.00803956 -0.012913 -0.999884 
-0.00721989 -0.0163714 -0.99984 
-0.00771045 -0.0201762 -0.999767 
-0.00654408 -0.0228805 -0.999717 
-0.00592456 -0.0180099 -0.99982 
-0.000267338 -0.00030414 -1 
0.00013349 -0.000276683 1 
0.00376927 -0.0183572 0.999824 
0.00590279 -0.0229564 0.999719 
0.00537344 -0.0205132 0.999775 
0.00605239 -0.0159049 0.999855 
0.00490105 -0.012847 0.999905 
0.00547396 -0.0103914 0.999931 
0.00483427 -0.0086036 0.999951 
0.00545275 -0.0079854 0.999953 
0.00488094 -0.00757195 0.999959 
0.00487275 -0.00752375 0.99996 
0.00502038 -0.0075088 0.999959 
0.00499416 -0.00739468 0.99996 
0.00507108 -0.00717431 0.999961 
0.00539239 -0.00692405 0.999961 
0.00566401 -0.00664849 0.999962 
0.00601733 -0.00634974 0.999962 
0.00638353 -0.00593528 0.999962 
0.00668269 -0.0053865 0.999963 
0.00717868 -0.0045778 0.999964 
0.0077045 -0.00346016 0.999964 
0.00827671 -0.00195871 0.999964 
0.00893504 -7.06009e-06 0.99996 
0.0098491 0.00249259 0.999948 
0.0107699 0.00550371 0.999927 
0.0119615 0.00933702 0.999885 
0.0135505 0.0141024 0.999809 
0.0159902 0.020264 0.999667 
0.0198359 0.0283508 0.999401 
0.0257529 0.0386341 0.998922 
0.0349688 0.0513586 0.998068 
0.0484169 0.0650937 0.996704 
0.0660052 0.0771122 0.994835 
0.0868013 0.0843387 0.992649 
0.115723 0.104988 0.987717 
0.150611 0.11886 0.981422 
0.212156 0.28165 0.935769 
0.256755 0.274799 0.926586 
0.157793 0.833567 0.529403 
0.0255214 0.999518 0.0176782 
-0.129917 0.63341 -0.762832 
-0.193825 0.527148 -0.827374 
-0.236047 0.364826 -0.900657 
-0.145123 0.125465 -0.981426 
-0.109923 0.111992 -0.987611 
-0.0809094 0.0863962 -0.99297 
-0.0630231 0.0828799 -0.994565 
-0.0461101 0.0654898 -0.996787 
-0.035007 0.0555901 -0.99784 
-0.0265816 0.0425359 -0.998741 
-0.0210626 0.0324294 -0.999252 
-0.0173727 0.0249642 -0.999537 
-0.014099 0.0169376 -0.999757 
-0.0123873 0.0118041 -0.999854 
-0.0110519 0.00757781 -0.99991 
-0.00988589 0.00401381 -0.999943 
-0.00924513 0.00129048 -0.999956 
-0.0085011 -0.00102812 -0.999963 
-0.00788386 -0.00279756 -0.999965 
-0.00738137 -0.00409562 -0.999964 
-0.00685568 -0.00507639 -0.999964 
-0.00630362 -0.00581899 -0.999963 
-0.0060045 -0.00626467 -0.999962 
-0.00568188 -0.00660744 -0.999962 
-0.00539865 -0.00686852 -0.999962 
-0.00525786 -0.00711311 -0.999961 
-0.00512886 -0.00733896 -0.99996 
-0.0049961 -0.00750684 -0.999959 
-0.004986 -0.00755313 -0.999959 
-0.00485564 -0.00756437 -0.99996 
-0.00493278 -0.00779552 -0.999957 
-0.00533162 -0.00864327 -0.999948 
-0.00521226 -0.0103153 -0.999933 
-0.00564728 -0.0131223 -0.999898 
-0.00501378 -0.016508 -0.999851 
-0.00547405 -0.0204893 -0.999775 
-0.00470147 -0.0233615 -0.999716 
-0.00448418 -0.0188108 -0.999813 
-0.000157751 -0.000265653 -1 
0.000113493 -0.00029726 1 
0.00266348 -0.0181544 0.999832 
0.00439378 -0.0234017 0.999716 
0.00369503 -0.0210267 0.999772 
0.00430408 -0.0169024 0.999848 
0.00360035 -0.012716 0.999913 
0.0038693 -0.00989013 0.999944 
0.00344863 -0.00831836 0.999959 
0.00371245 -0.00769571 0.999963 
0.00340976 -0.00752298 0.999966 
0.0036522 -0.00758099 0.999965 
0.00364915 -0.00756429 0.999965 
0.00370812 -0.00742692 0.999966 
0.00379925 -0.00722061 0.999967 
0.00408681 -0.00702116 0.999967 
0.00425417 -0.0067947 0.999968 
0.0046412 -0.00653686 0.999968 
0.00493577 -0.00617247 0.999969 
0.00527908 -0.00563164 0.99997 
0.00578146 -0.00483549 0.999972 
0.00632297 -0.00370785 0.999973 
0.00692691 -0.00218096 0.999974 
0.00761789 -0.000193136 0.999971 
0.0084699 0.00222647 0.999962 
0.00945898 0.00523367 0.999942 
0.0106805 0.00884852 0.999904 
0.0124228 0.0133248 0.999834 
0.015087 0.0189424 0.999707 
0.0192294 0.0260374 0.999476 
0.0255397 0.0346535 0.999073 
0.0347359 0.0441844 0.998419 
0.0470844 0.05298 0.997485 
0.0614545 0.0575059 0.996452 
0.080929 0.0602397 0.994898 
0.112162 0.0698323 0.991233 
0.154554 0.0772607 0.984959 
0.201588 0.171776 0.96429 
0.315844 0.407825 0.856692 
0.23502 0.81596 0.528181 
-0.0264068 0.989759 -0.140283 
-0.222359 0.714751 -0.66309 
-0.287477 0.464697 -0.837504 
-0.189913 0.159801 -0.968709 
-0.146571 0.0950103 -0.984627 
-0.107604 0.0820373 -0.990803 
-0.0738451 0.0638527 -0.995223 
-0.0556215 0.060619 -0.99661 
-0.0409842 0.0505801 -0.997879 
-0.0315024 0.0435614 -0.998554 
-0.0235759 0.033774 -0.999151 
-0.0180129 0.0256359 -0.999509 
-0.0147964 0.0196431 -0.999698 
-0.011801 0.0132433 -0.999843 
-0.0102955 0.00896127 -0.999907 
-0.00914401 0.00534509 -0.999944 
-0.00815012 0.002198 -0.999964 
-0.00753837 -0.000154489 -0.999972 
-0.00684198 -0.00214986 -0.999974 
-0.00624771 -0.00367346 -0.999974 
-0.005759 -0.00478445 -0.999972 
-0.00534251 -0.00565143 -0.99997 
-0.00478828 -0.00623634 -0.999969 
-0.00453039 -0.00659931 -0.999968 
-0.00419111 -0.0068596 -0.999968 
-0.00400975 -0.00706745 -0.999967 
-0.00384675 -0.00726714 -0.999966 
-0.00376702 -0.0074623 -0.999965 
-0.00365804 -0.00759 -0.999965 
-0.00354396 -0.00760153 -0.999965 
-0.00357378 -0.00758659 -0.999965 
-0.00349278 -0.00781747 -0.999963 
-0.00382973 -0.00853444 -0.999956 
-0.0035782 -0.00985798 -0.999945 