# vtk DataFile Version 3.0 
Exported using Morpho https://github.com/Morpho-lang/morpho 
ASCII 
DATASET UNSTRUCTURED_GRID 

POINTS 1908 float 
-8.32618 -2.88146 0 
-8.11405 -2.88146 0 
-7.90192 -2.88146 0 
-7.68979 -2.88146 0 
-7.47765 -2.88146 0 
-7.26552 -2.88146 0 
-7.05339 -2.88146 0 
-6.84126 -2.88146 0 
-6.62913 -2.88146 0 
-6.41699 -2.88146 0 
-6.20486 -2.88146 0 
-5.99273 -2.88146 0 
-5.7806 -2.88146 0 
-5.56847 -2.88146 0 
-5.35633 -2.88146 0 
-5.1442 -2.88146 0 
-4.93207 -2.88146 0 
-4.71994 -2.88146 0 
-4.50781 -2.88146 0 
-4.29567 -2.88146 0 
-4.08354 -2.88146 0 
-3.87141 -2.88146 0 
-3.65928 -2.88146 0 
-3.44715 -2.88146 0 
-3.23501 -2.88146 0 
-3.02288 -2.88146 0 
-2.81075 -2.88146 0 
-2.59862 -2.88146 0 
-2.38649 -2.88146 0 
-2.17435 -2.88146 0 
-1.96222 -2.88146 0 
-1.75009 -2.88146 0 
-1.53796 -2.88146 0 
-1.32583 -2.88146 0 
-1.11369 -2.88146 0 
-0.901561 -2.88146 0 
-0.689429 -2.88146 0 
-0.477297 -2.88146 0 
-0.265165 -2.88146 0 
-0.053033 -2.88146 0 
0.159099 -2.88146 0 
0.371231 -2.88146 0 
0.583363 -2.88146 0 
0.795495 -2.88146 0 
1.00763 -2.88146 0 
1.21976 -2.88146 0 
1.43189 -2.88146 0 
1.64402 -2.88146 0 
1.85616 -2.88146 0 
2.06829 -2.88146 0 
2.28042 -2.88146 0 
2.49255 -2.88146 0 
2.70468 -2.88146 0 
2.91682 -2.88146 0 
3.12895 -2.88146 0 
3.34108 -2.88146 0 
3.55321 -2.88146 0 
3.76534 -2.88146 0 
3.97748 -2.88146 0 
4.18961 -2.88146 0 
4.40174 -2.88146 0 
4.61387 -2.88146 0 
4.826 -2.88146 0 
5.03814 -2.88146 0 
5.25027 -2.88146 0 
5.4624 -2.88146 0 
5.67453 -2.88146 0 
5.88666 -2.88146 0 
6.0988 -2.88146 0 
6.31093 -2.88146 0 
6.52306 -2.88146 0 
6.73519 -2.88146 0 
6.94732 -2.88146 0 
7.15946 -2.88146 0 
7.37159 -2.88146 0 
7.58372 -2.88146 0 
7.79585 -2.88146 0 
8.00798 -2.88146 0 
8.22012 -2.88146 0 
8.53831 -2.88146 0 
-8.53831 -2.71855 0 
-8.29674 -2.66057 0 
-8.06622 -2.66372 0 
-7.83507 -2.6661 0 
-7.60914 -2.66466 0 
-7.38221 -2.66384 0 
-7.15612 -2.66781 0 
-6.92971 -2.66735 0 
-6.70719 -2.66903 0 
-6.48414 -2.67047 0 
-6.26078 -2.67218 0 
-6.03905 -2.66931 0 
-5.82007 -2.66913 0 
-5.60124 -2.66937 0 
-5.38324 -2.66916 0 
-5.16672 -2.66889 0 
-4.95151 -2.66932 0 
-4.73658 -2.66917 0 
-4.52226 -2.67018 0 
-4.30712 -2.67002 0 
-4.09385 -2.67059 0 
-3.87995 -2.67125 0 
-3.66203 -2.67078 0 
-3.4445 -2.67108 0 
-3.23088 -2.66777 0 
-3.01523 -2.66867 0 
-2.79954 -2.66686 0 
-2.58583 -2.66328 0 
-2.36902 -2.66624 0 
-2.15322 -2.66585 0 
-1.93761 -2.66585 0 
-1.72128 -2.66391 0 
-1.5023 -2.66315 0 
-1.28765 -2.66488 0 
-1.06962 -2.65904 0 
-0.858386 -2.64174 0 
-0.63522 -2.66926 0 
-0.479234 -2.49556 0 
-0.392893 -2.67304 0 
-0.195757 -2.6337 0 
0.028828 -2.64974 0 
0.247707 -2.63214 0 
0.484084 -2.68518 0 
0.723478 -2.65682 0 
0.951565 -2.68128 0 
1.19007 -2.66788 0 
1.41128 -2.66783 0 
1.64076 -2.66498 0 
1.86289 -2.66327 0 
2.07616 -2.65889 0 
2.29498 -2.66474 0 
2.51403 -2.66699 0 
2.7296 -2.66549 0 
2.94748 -2.66931 0 
3.16045 -2.66592 0 
3.38048 -2.67391 0 
3.59624 -2.6724 0 
3.81398 -2.67591 0 
4.02752 -2.67136 0 
4.23961 -2.66949 0 
4.45439 -2.67176 0 
4.66862 -2.67027 0 
4.87908 -2.66811 0 
5.09256 -2.67245 0 
5.3042 -2.67102 0 
5.51453 -2.66868 0 
5.72453 -2.66958 0 
5.93526 -2.67085 0 
6.14529 -2.66996 0 
6.35662 -2.6721 0 
6.56675 -2.6704 0 
6.7803 -2.67192 0 
6.99295 -2.67001 0 
7.208 -2.66862 0 
7.42167 -2.66355 0 
7.63639 -2.66152 0 
7.85233 -2.65902 0 
8.06889 -2.65065 0 
8.31499 -2.72364 0 
8.53831 -2.66933 0 
-8.42918 -2.48262 0 
-8.1806 -2.44757 0 
-7.95264 -2.45462 0 
-7.73021 -2.44845 0 
-7.50867 -2.45103 0 
-7.28294 -2.45217 0 
-7.06175 -2.45743 0 
-6.84172 -2.45394 0 
-6.62437 -2.45896 0 
-6.40405 -2.46331 0 
-6.18838 -2.46181 0 
-5.97278 -2.45701 0 
-5.75759 -2.45817 0 
-5.54304 -2.45813 0 
-5.33019 -2.45674 0 
-5.11899 -2.45606 0 
-4.90879 -2.45659 0 
-4.69814 -2.4566 0 
-4.48635 -2.45928 0 
-4.27756 -2.4568 0 
-4.06897 -2.458 0 
-3.84929 -2.46529 0 
-3.63187 -2.46423 0 
-3.42025 -2.45686 0 
-3.20553 -2.45494 0 
-2.99128 -2.45568 0 
-2.77857 -2.44964 0 
-2.5598 -2.44925 0 
-2.3448 -2.45121 0 
-2.13004 -2.44987 0 
-1.91355 -2.45061 0 
-1.68797 -2.45323 0 
-1.47198 -2.44242 0 
-1.25452 -2.44963 0 
-1.03963 -2.42973 0 
-0.886949 -2.32741 0 
-0.713756 -2.44364 0 
-0.488002 -2.2951 0 
-0.259233 -2.3827 0 
-0.0499933 -2.42015 0 
0.166622 -2.39935 0 
0.378878 -2.33436 0 
0.489338 -2.48688 0 
0.701457 -2.42316 0 
0.91844 -2.47254 0 
1.14164 -2.4768 0 
1.38468 -2.45077 0 
1.60377 -2.46398 0 
1.83864 -2.45222 0 
2.05602 -2.43579 0 
2.26793 -2.44756 0 
2.48143 -2.45307 0 
2.69596 -2.4491 0 
2.90965 -2.45694 0 
3.12156 -2.45011 0 
3.3363 -2.46753 0 
3.55279 -2.46391 0 
3.76923 -2.4704 0 
3.98265 -2.46278 0 
4.19552 -2.45735 0 
4.40828 -2.46267 0 
4.62238 -2.46164 0 
4.83672 -2.45362 0 
5.04791 -2.46189 0 
5.25888 -2.46059 0 
5.46928 -2.45629 0 
5.68112 -2.45621 0 
5.89034 -2.45871 0 
6.10028 -2.45861 0 
6.31222 -2.46126 0 
6.52286 -2.45939 0 
6.73636 -2.46412 0 
6.95347 -2.46025 0 
7.17112 -2.46003 0 
7.39268 -2.45001 0 
7.61462 -2.44474 0 
7.83643 -2.44093 0 
8.06038 -2.43253 0 
8.29463 -2.51169 0 
8.53831 -2.4572 0 
-8.53831 -2.26515 0 
-8.30542 -2.26931 0 
-8.0479 -2.24111 0 
-7.82226 -2.23428 0 
-7.59431 -2.23294 0 
-7.36771 -2.24245 0 
-7.13613 -2.24164 0 
-6.91554 -2.24162 0 
-6.6915 -2.24229 0 
-6.47197 -2.25365 0 
-6.2523 -2.2486 0 
-6.03701 -2.24625 0 
-5.8169 -2.24649 0 
-5.59865 -2.24733 0 
-5.38076 -2.24515 0 
-5.16408 -2.24309 0 
-4.95031 -2.24263 0 
-4.73759 -2.2441 0 
-4.5227 -2.24808 0 
-4.30876 -2.24216 0 
-4.09829 -2.24227 0 
-3.88576 -2.26426 0 
-3.65738 -2.25836 0 
-3.4389 -2.24461 0 
-3.22225 -2.24387 0 
-3.00218 -2.24182 0 
-2.7869 -2.23392 0 
-2.56971 -2.23931 0 
-2.34327 -2.23436 0 
-2.12461 -2.23436 0 
-1.88997 -2.24783 0 
-1.66915 -2.23622 0 
-1.45513 -2.21287 0 
-1.25085 -2.23098 0 
-1.07888 -2.15481 0 
-0.870893 -2.07844 0 
-0.68175 -2.19372 0 
0.599457 -2.233 0 
0.807627 -2.11448 0 
0.923245 -2.25962 0 
1.16773 -2.28444 0 
1.39803 -2.23789 0 
1.63451 -2.26828 0 
1.84841 -2.23472 0 
2.06608 -2.21728 0 
2.28088 -2.22806 0 
2.49355 -2.2359 0 
2.71086 -2.23428 0 
2.91991 -2.23934 0 
3.13831 -2.23665 0 
3.34774 -2.25939 0 
3.55055 -2.24261 0 
3.75487 -2.26447 0 
3.97094 -2.25294 0 
4.18239 -2.24764 0 
4.39705 -2.25178 0 
4.60926 -2.25213 0 
4.82216 -2.24454 0 
5.03949 -2.24926 0 
5.24876 -2.24706 0 
5.45688 -2.24391 0 
5.66701 -2.24515 0 
5.88042 -2.24505 0 
6.08791 -2.24499 0 
6.2974 -2.25193 0 
6.50964 -2.24603 0 
6.71982 -2.25481 0 
6.93389 -2.25303 0 
7.154 -2.2512 0 
7.37301 -2.24272 0 
7.60011 -2.23354 0 
7.8272 -2.22419 0 
8.06446 -2.22549 0 
8.30151 -2.30015 0 
8.53831 -2.24506 0 
-8.42799 -2.05491 0 
-8.19892 -2.06394 0 
-7.97001 -2.01974 0 
-7.74845 -2.01813 0 
-7.52454 -2.0199 0 
-7.30194 -2.03394 0 
-7.0857 -2.02202 0 
-6.86851 -2.02826 0 
-6.65257 -2.02808 0 
-6.44366 -2.03867 0 
-6.23685 -2.02937 0 
-6.02125 -2.03495 0 
-5.80607 -2.0349 0 
-5.5937 -2.03263 0 
-5.38109 -2.0352 0 
-5.16944 -2.02893 0 
-4.95801 -2.02946 0 
-4.74659 -2.03033 0 
-4.53614 -2.03717 0 
-4.32375 -2.03073 0 
-4.11156 -2.02569 0 
-3.90308 -2.04881 0 
-3.69489 -2.06448 0 
-3.46593 -2.03635 0 
-3.25008 -2.03186 0 
-3.03452 -2.0327 0 
-2.81848 -2.01694 0 
-2.60705 -2.02207 0 
-2.39223 -2.02902 0 
-2.1683 -2.01686 0 
-1.94912 -2.04404 0 
-1.72725 -2.02366 0 
-1.51392 -1.99758 0 
-1.29542 -1.98713 0 
-1.07402 -1.93235 0 
1.00535 -1.9808 0 
1.14212 -2.08904 0 
1.33246 -2.02001 0 
1.56909 -2.06549 0 
1.78574 -2.02507 0 
2.00573 -2.00916 0 
2.23708 -2.00868 0 
2.45467 -2.01463 0 
2.66768 -2.02366 0 
2.89021 -2.01645 0 
3.099 -2.03174 0 
3.3298 -2.03988 0 
3.53717 -2.02269 0 
3.74343 -2.04711 0 
3.9523 -2.04877 0 
4.17255 -2.03662 0 
4.38668 -2.04542 0 
4.60574 -2.04127 0 
4.80883 -2.02577 0 
5.0188 -2.04431 0 
5.23822 -2.0327 0 
5.44623 -2.02701 0 
5.65331 -2.03297 0 
5.8651 -2.03641 0 
6.08037 -2.02969 0 
6.28821 -2.03849 0 
6.4976 -2.03673 0 
6.71291 -2.04072 0 
6.92322 -2.0429 0 
7.14031 -2.04522 0 
7.36369 -2.0323 0 
7.58623 -2.02848 0 
7.82021 -2.0136 0 
8.05409 -2.01787 0 
8.29691 -2.08564 0 
8.53831 -2.03293 0 
-8.53831 -1.82795 0 
-8.30773 -1.85187 0 
-8.08112 -1.83142 0 
-7.83453 -1.80466 0 
-7.5985 -1.80897 0 
-7.35839 -1.81966 0 
-7.13258 -1.80765 0 
-6.90384 -1.81283 0 
-6.67944 -1.81409 0 
-6.45644 -1.81572 0 
-6.23454 -1.81739 0 
-6.01394 -1.82345 0 
-5.79546 -1.82208 0 
-5.57679 -1.82121 0 
-5.36204 -1.82153 0 
-5.14746 -1.81584 0 
-4.93388 -1.81623 0 
-4.72091 -1.81735 0 
-4.50906 -1.82473 0 
-4.29537 -1.81801 0 
-4.08154 -1.81286 0 
-3.87393 -1.83438 0 
-3.65268 -1.86592 0 
-3.43017 -1.82493 0 
-3.21089 -1.82096 0 
-2.99817 -1.81701 0 
-2.78571 -1.79689 0 
-2.56939 -1.8074 0 
-2.34961 -1.8191 0 
-2.12018 -1.80965 0 
-1.90894 -1.82898 0 
-1.69628 -1.79929 0 
-1.47352 -1.78283 0 
-1.25169 -1.77207 0 
1.21031 -1.81529 0 
1.4594 -1.85095 0 
1.66034 -1.82686 0 
1.87615 -1.80084 0 
2.10231 -1.80504 0 
2.32364 -1.79205 0 
2.53242 -1.79386 0 
2.74261 -1.81086 0 
2.95458 -1.79524 0 
3.17391 -1.83719 0 
3.37919 -1.81427 0 
3.58919 -1.80575 0 
3.7914 -1.83284 0 
4.0044 -1.84193 0 
4.22237 -1.82836 0 
4.4362 -1.83978 0 
4.63391 -1.81386 0 
4.84994 -1.8167 0 
5.05963 -1.8368 0 
5.26389 -1.81348 0 
5.4681 -1.80857 0 
5.67758 -1.82119 0 
5.88857 -1.82719 0 
6.096 -1.81396 0 
6.30007 -1.82289 0 
6.51363 -1.8279 0 
6.7185 -1.82373 0 
6.93306 -1.83196 0 
7.15078 -1.83688 0 
7.36868 -1.8198 0 
7.59763 -1.82258 0 
7.82766 -1.80294 0 
8.06501 -1.80982 0 
8.30062 -1.87584 0 
8.53831 -1.8208 0 
-8.53831 -1.61279 0 
-8.30309 -1.63602 0 
-8.05865 -1.62729 0 
-7.8133 -1.59847 0 
-7.56486 -1.60918 0 
-7.33439 -1.60482 0 
-7.09788 -1.5992 0 
-6.86744 -1.60201 0 
-6.63975 -1.60385 0 
-6.41573 -1.60541 0 
-6.19265 -1.60812 0 
-5.97339 -1.6125 0 
-5.75341 -1.61281 0 
-5.53791 -1.60861 0 
-5.32506 -1.60802 0 
-5.11087 -1.6034 0 
-4.89784 -1.60361 0 
-4.6856 -1.60483 0 
-4.47457 -1.61216 0 
-4.25989 -1.60604 0 
-4.04742 -1.59823 0 
-3.84653 -1.60973 0 
-3.65143 -1.66376 0 
-3.45211 -1.60577 0 
-3.23803 -1.61525 0 
-3.0126 -1.60074 0 
-2.7955 -1.58352 0 
-2.57387 -1.59376 0 
[...]
POINT_DATA 1908 
VECTORS vectors float
-7.41194e-05 -0.000471957 1 
7.57122e-05 -0.0160018 0.999872 
-0.000105457 -0.0199898 0.9998 
-4.13643e-05 -0.0201254 0.999797 
-5.4769e-05 -0.018289 0.999833 
-5.22781e-05 -0.0157638 0.999876 
-5.3038e-05 -0.0132479 0.999912 
-5.24635e-05 -0.0107085 0.999943 
-5.29761e-05 -0.00797647 0.999968 
-5.26103e-05 -0.00500394 0.999987 
-5.28677e-05 -0.00183887 0.999998 
-5.24373e-05 0.00146117 0.999999 
-5.26394e-05 0.00488615 0.999988 
-5.23935e-05 0.00849208 0.999964 
-5.22855e-05 0.0123912 0.999923 
-5.19178e-05 0.0167155 0.99986 
-5.18398e-05 0.0216071 0.999767 
-5.10843e-05 0.027217 0.99963 
-5.09084e-05 0.0336979 0.999432 
-5.02862e-05 0.0412179 0.99915 
-4.87193e-05 0.049939 0.998752 
-4.94626e-05 0.0600458 0.998196 
-4.62911e-05 0.0718292 0.997417 
-4.68206e-05 0.0848986 0.99639 
-4.38205e-05 0.0999458 0.994993 
-4.28312e-05 0.117016 0.99313 
-4.06755e-05 0.136317 0.990665 
-3.70291e-05 0.158143 0.987416 
-3.57844e-05 0.18297 0.983119 
-3.067e-05 0.211662 0.977343 
-2.75785e-05 0.245703 0.969345 
-2.2403e-05 0.287493 0.957783 
-1.6858e-05 0.340436 0.940268 
-1.20265e-05 0.408824 0.912613 
-2.18868e-06 0.496885 0.867816 
-6.42259e-06 0.606234 0.795286 
1.13275e-05 0.731199 0.682164 
-6.29076e-06 0.855968 0.517028 
9.98997e-06 0.953661 0.300885 
-1.97688e-06 0.998842 0.0481198 
-4.56857e-06 0.977599 -0.210474 
3.14571e-06 0.896358 -0.443331 
-1.20064e-05 0.777843 -0.628459 
8.53463e-06 0.649556 -0.760314 
-4.70784e-06 0.532494 -0.846433 
1.25308e-05 0.436563 -0.899674 
1.36452e-05 0.361916 -0.932211 
2.04564e-05 0.304892 -0.952387 
2.32349e-05 0.261303 -0.965257 
3.25213e-05 0.22464 -0.974442 
3.07923e-05 0.194566 -0.980889 
3.73849e-05 0.168852 -0.985641 
3.86723e-05 0.146282 -0.989243 
4.18936e-05 0.126197 -0.992005 
4.29862e-05 0.10832 -0.994116 
4.56945e-05 0.0923813 -0.995724 
4.62503e-05 0.0782812 -0.996931 
4.81062e-05 0.0658695 -0.997828 
4.89198e-05 0.0550523 -0.998483 
4.96225e-05 0.0456438 -0.998958 
5.05483e-05 0.0375052 -0.999296 
5.11685e-05 0.0304859 -0.999535 
5.1249e-05 0.0244119 -0.999702 
5.21343e-05 0.0191343 -0.999817 
5.20851e-05 0.0145118 -0.999895 
5.23859e-05 0.010384 -0.999946 
5.24954e-05 0.00661271 -0.999978 
5.28429e-05 0.00307658 -0.999995 
5.24304e-05 -0.000328492 -1 
5.31403e-05 -0.00364226 -0.999993 
5.24104e-05 -0.00684073 -0.999977 
5.34345e-05 -0.00985916 -0.999951 
5.17102e-05 -0.0126593 -0.99992 
5.46601e-05 -0.0153278 -0.999883 
4.95508e-05 -0.0180632 -0.999837 
5.7089e-05 -0.0208192 -0.999783 
4.73987e-05 -0.0226773 -0.999743 
4.70309e-05 -0.0227046 -0.999742 
0.000101455 -0.0200247 -0.999799 
-6.50826e-05 -0.00100997 -0.999999 
1.3345e-06 0.000226359 1 
0.00764102 -0.0121701 0.999897 
0.0102332 -0.0182074 0.999782 
0.0110932 -0.0195889 0.999747 
0.0117149 -0.018971 0.999751 
0.0121025 -0.0169062 0.999784 
0.0122347 -0.0142325 0.999824 
0.0124341 -0.0114921 0.999857 
0.0125068 -0.00870817 0.999884 
0.0125225 -0.0057208 0.999905 
0.0124788 -0.00252342 0.999919 
0.0125541 0.000839029 0.999921 
0.0124939 0.00433205 0.999913 
0.012357 0.00803628 0.999891 
0.0121694 0.0120379 0.999853 
0.0118978 0.016453 0.999794 
0.0114955 0.0214273 0.999704 
0.0109635 0.0271389 0.999572 
0.0102246 0.0337337 0.999379 
0.00929274 0.0414417 0.999098 
0.0080801 0.0503208 0.9987 
0.00649781 0.0606247 0.998139 
0.00444888 0.0727024 0.997344 
0.00194098 0.0867159 0.996231 
-0.00124663 0.102405 0.994742 
-0.00508088 0.120282 0.992727 
-0.00981243 0.140563 0.990023 
-0.0154505 0.163309 0.986454 
-0.0211654 0.189326 0.981686 
-0.0274236 0.219137 0.975309 
-0.0332715 0.254292 0.966555 
-0.0381441 0.297498 0.95396 
-0.0401528 0.35296 0.934776 
-0.0374605 0.423364 0.905185 
-0.0306352 0.515598 0.856283 
-0.0197456 0.626163 0.779442 
-0.00476511 0.760555 0.649256 
0.00882806 0.843848 0.53651 
0.00438305 0.897454 0.441085 
0.00643859 0.974466 0.224444 
-0.00161992 0.998564 -0.0535422 
-0.00807514 0.948132 -0.317776 
-0.00176673 0.833172 -0.553011 
0.0118112 0.687491 -0.726097 
0.0240366 0.55888 -0.8289 
0.0366642 0.447998 -0.893282 
0.0411688 0.369984 -0.928126 
0.0410712 0.308634 -0.950294 
0.0373121 0.262721 -0.96415 
0.0322524 0.227863 -0.973159 
0.0247866 0.197169 -0.980056 
0.0180277 0.170447 -0.985202 
0.0122915 0.14733 -0.989011 
0.00693496 0.12636 -0.99196 
0.00284274 0.10826 -0.994119 
-0.000893694 0.091503 -0.995804 
-0.00367481 0.0771002 -0.997017 
-0.00589417 0.0643858 -0.997908 
-0.00764391 0.0536221 -0.998532 
-0.00897758 0.0443428 -0.998976 
-0.00996189 0.0362199 -0.999294 
-0.010809 0.0292616 -0.999513 
-0.0114613 0.0233547 -0.999662 
-0.0118124 0.0181362 -0.999766 
-0.0122136 0.013601 -0.999833 
-0.0125351 0.0095636 -0.999876 
-0.0126769 0.00586415 -0.999902 
-0.0127556 0.00237797 -0.999916 
-0.0128501 -0.000943961 -0.999917 
-0.0128005 -0.00416129 -0.999909 
-0.0128241 -0.00721785 -0.999892 
-0.0126919 -0.010167 -0.999868 
-0.0125946 -0.0129494 -0.999837 
-0.0123971 -0.0157057 -0.9998 
-0.0121609 -0.0183897 -0.999757 
-0.0116953 -0.0206195 -0.999719 
-0.010985 -0.0218408 -0.999701 
-0.00965995 -0.0213367 -0.999726 
-0.00575924 -0.0156106 -0.999862 
0.0002215 0.000484698 -1 
0.00539389 -0.00945253 0.999941 
0.0114085 -0.0181088 0.999771 
0.0134799 -0.0194738 0.999719 
0.0146618 -0.0193254 0.999706 
0.0154758 -0.0181229 0.999716 
0.0159815 -0.0156728 0.999749 
0.0162776 -0.0128961 0.999784 
0.0165204 -0.0101573 0.999812 
0.0166263 -0.0073685 0.999835 
0.0166626 -0.00438529 0.999852 
0.0166596 -0.00127547 0.99986 
0.0165966 0.00204169 0.99986 
0.0164089 0.00556775 0.99985 
0.0161279 0.00935084 0.999826 
0.0157309 0.0134675 0.999786 
0.0151562 0.018031 0.999723 
0.0143818 0.0232112 0.999627 
0.0133456 0.0291981 0.999485 
0.0119776 0.0361692 0.999274 
0.010193 0.0442318 0.998969 
0.00789325 0.0535692 0.998533 
0.00492901 0.0648477 0.997883 
0.00101722 0.0779645 0.996956 
-0.00408118 0.0929134 0.995666 
-0.010344 0.11005 0.993872 
-0.0178718 0.129328 0.991441 
-0.0274625 0.15125 0.988114 
-0.0383957 0.176135 0.983617 
-0.0501758 0.203656 0.977756 
-0.0629524 0.234124 0.970167 
-0.0748394 0.269331 0.960135 
-0.0837183 0.313022 0.946049 
-0.0897828 0.36515 0.926609 
-0.0823868 0.433472 0.897393 
-0.0686313 0.518354 0.852408 
-0.065885 0.584378 0.808802 
-0.020861 0.697071 0.716699 
0.0216896 0.819379 0.572841 
0.0279982 0.947869 0.317428 
0.00437379 0.998871 0.047313 
-0.0226085 0.971094 -0.237624 
-0.0296326 0.872373 -0.487943 
-0.00699844 0.819779 -0.572637 
0.0223712 0.68358 -0.729533 
0.0508191 0.565246 -0.823356 
0.0735511 0.463003 -0.8833 
0.0917332 0.379627 -0.92058 
0.0875334 0.323855 -0.942049 
0.0820129 0.277957 -0.957086 
0.0732097 0.243357 -0.96717 
0.0577634 0.212832 -0.97538 
0.0441075 0.18484 -0.981778 
0.0328924 0.160252 -0.986528 
0.0220627 0.137488 -0.990258 
0.0141161 0.117824 -0.992934 
0.00630218 0.0996203 -0.995006 
0.000918823 0.0836276 -0.996497 
-0.00357777 0.06976 -0.997557 
-0.00681288 0.0580992 -0.998288 
-0.00936953 0.0480059 -0.998803 
-0.0114186 0.0392325 -0.999165 
-0.01296 0.0317242 -0.999413 
-0.0141386 0.0252853 -0.99958 
-0.0150192 0.0197544 -0.999692 
-0.0156953 0.0149654 -0.999765 
-0.0161928 0.0107268 -0.999811 
-0.0165359 0.00684492 -0.99984 
-0.0167546 0.00328315 -0.999854 
-0.0168896 -8.4927e-05 -0.999857 
-0.0169206 -0.00331197 -0.999851 
-0.0169179 -0.00635437 -0.999837 
-0.0167705 -0.00930702 -0.999816 
-0.0165792 -0.0121839 -0.999788 
-0.0162177 -0.0150306 -0.999756 
-0.0157101 -0.0178551 -0.999717 
-0.0149069 -0.0200648 -0.999688 
-0.0137252 -0.0212337 -0.99968 
-0.011857 -0.0211446 -0.999706 
-0.00829716 -0.0165599 -0.999828 
-0.000324737 -2.74864e-05 -1 
-0.000150138 -2.49202e-05 1 
0.00879896 -0.0161017 0.999832 
0.0121765 -0.019836 0.999729 
0.0138701 -0.0197284 0.999709 
0.0150779 -0.0189504 0.999707 
0.015866 -0.0167291 0.999734 
0.0163373 -0.0137347 0.999772 
0.0166443 -0.0109095 0.999802 
0.0168502 -0.00802898 0.999826 
0.0169785 -0.00511968 0.999843 
0.0169658 -0.00202436 0.999854 
0.0168706 0.00124205 0.999857 
0.0166597 0.00485195 0.999849 
0.0162891 0.00872484 0.999829 
0.0157967 0.0130213 0.99979 
0.0149898 0.0177594 0.99973 
0.0139769 0.0231754 0.999634 
0.0126101 0.0293999 0.999488 
0.010791 0.0367264 0.999267 
0.00827537 0.0454285 0.998933 
0.00510936 0.0554291 0.99845 
0.00145683 0.0667519 0.997769 
-0.00430483 0.0816263 0.996654 
-0.0118404 0.0986572 0.995051 
-0.0208126 0.11764 0.992838 
-0.0322645 0.139663 0.989673 
-0.0465707 0.16439 0.985295 
-0.0624329 0.190907 0.979621 
-0.082566 0.221856 0.971578 
-0.103446 0.254764 0.961454 
-0.1219 0.291159 0.948877 
-0.141696 0.332254 0.932486 
-0.158258 0.378678 0.911898 
-0.146515 0.429281 0.891207 
-0.155393 0.479608 0.863614 
-0.129645 0.54841 0.826098 
-0.0300762 0.679028 0.733496 
0.0105579 0.719373 -0.694543 
0.102527 0.569411 -0.815634 
0.096432 0.537364 -0.837819 
0.129319 0.443882 -0.886705 
0.157724 0.380178 -0.911366 
0.141578 0.329499 -0.93348 
0.134812 0.296329 -0.945523 
0.117482 0.264798 -0.957121 
0.0932082 0.231208 -0.968429 
0.0719285 0.20153 -0.976838 
0.0539971 0.174129 -0.983241 
0.0387583 0.14955 -0.987994 
0.0262349 0.127055 -0.991549 
0.0153195 0.106443 -0.994201 
0.00843085 0.0905807 -0.995853 
0.00177413 0.0753987 -0.997152 
-0.00287087 0.0624819 -0.998042 
-0.00652658 0.0514992 -0.998652 
-0.00950256 0.0418583 -0.999078 
-0.011701 0.0338351 -0.999359 
-0.0132678 0.0269169 -0.99955 
-0.0146046 0.0208861 -0.999675 
-0.0155166 0.0158781 -0.999754 
-0.0161818 0.0114758 -0.999803 
-0.0166739 0.00745756 -0.999833 
-0.0170026 0.00371061 -0.999849 
-0.0171818 0.000315258 -0.999852 
-0.0172694 -0.00289975 -0.999847 
-0.0172331 -0.00595077 -0.999834 
-0.0171194 -0.00885795 -0.999814 
-0.0168695 -0.0117288 -0.999789 
-0.0164538 -0.014664 -0.999757 
-0.0158115 -0.0175459 -0.999721 
-0.0148381 -0.019836 -0.999693 
-0.0134038 -0.0208468 -0.999693 
-0.011387 -0.0209508 -0.999716 
-0.00836919 -0.0164634 -0.999829 
5.89137e-05 6.93754e-05 -1 
0.00529981 -0.0108925 0.999927 
0.00983013 -0.0191622 0.999768 
0.0121003 -0.0203771 0.999719 
0.0136891 -0.0199357 0.999708 
0.0147334 -0.0186131 0.999718 
0.0154485 -0.0159403 0.999754 
0.0158282 -0.0130004 0.99979 
0.0161645 -0.010166 0.999818 
0.0163708 -0.00733799 0.999839 
0.0165346 -0.00454416 0.999853 
0.0164545 -0.00158432 0.999863 
0.0163399 0.00175704 0.999865 
0.0160741 0.00541442 0.999856 
0.0156491 0.00937449 0.999834 
0.0149799 0.0137088 0.999794 
0.0140738 0.018695 0.999726 
0.0128127 0.0243303 0.999622 
0.0111365 0.0309298 0.99946 
0.00897523 0.0386071 0.999214 
0.00593489 0.0479422 0.998832 
0.00194765 0.0590087 0.998256 
-0.0026415 0.0711691 0.997461 
-0.00861717 0.0854503 0.996305 
-0.0185413 0.105616 0.994234 
-0.0299648 0.12704 0.991445 
-0.0441447 0.151261 0.987508 
-0.0630836 0.180055 0.981632 
-0.0840858 0.209354 0.974218 
-0.108732 0.240942 0.96443 
-0.141099 0.2787 0.949957 
-0.166887 0.309962 0.935987 
-0.203177 0.349464 0.914655 
-0.237824 0.387301 0.890751 
-0.255023 0.421706 0.870131 
-0.270458 0.458762 0.846398 
0.236156 0.463355 -0.854127 
0.204386 0.43974 -0.87456 
0.250683 0.404947 -0.879304 
0.216198 0.363466 -0.906174 
0.203335 0.337204 -0.919211 
0.173817 0.306308 -0.935929 
0.138195 0.269733 -0.952967 
0.106787 0.234717 -0.96618 
0.080126 0.20181 -0.976142 
0.0587509 0.172189 -0.98331 
0.0408419 0.144918 -0.9886 
0.0258834 0.119306 -0.99252 
0.0163945 0.101055 -0.994746 
0.00767491 0.0830662 -0.996514 
0.00149626 0.0685441 -0.997647 
-0.00325888 0.0559147 -0.99843 
-0.00706876 0.0451345 -0.998956 
-0.0098372 0.0360563 -0.999301 
-0.0117339 0.0291259 -0.999507 
-0.0134245 0.0226289 -0.999654 
-0.0145484 0.0170462 -0.999749 
-0.0153602 0.0123799 -0.999805 
-0.0159935 0.00818999 -0.999839 
-0.0164153 0.0043041 -0.999856 
-0.016626 0.000685826 -0.999862 
-0.0167736 -0.00255909 -0.999856 
-0.0167443 -0.00558594 -0.999844 
-0.0166154 -0.00856456 -0.999825 
-0.016367 -0.0114174 -0.999801 
-0.0159519 -0.014366 -0.99977 
-0.0152518 -0.0173961 -0.999732 
-0.0143284 -0.0197835 -0.999702 
-0.012813 -0.0208025 -0.999701 
-0.0108336 -0.0208346 -0.999724 
-0.00802367 -0.0165172 -0.999831 
-2.16144e-05 6.22758e-05 -1 
-0.000160563 0.000103399 1 
0.00743328 -0.0163976 0.999838 
0.0102126 -0.0204703 0.999738 
0.0119476 -0.0204706 0.999719 
0.0131187 -0.0193736 0.999726 
0.0139365 -0.0166897 0.999764 
0.0143029 -0.0135912 0.999805 
0.0146749 -0.0105209 0.999837 
0.0148899 -0.00754077 0.999861 
0.0149693 -0.00451853 0.999878 
0.014992 -0.00132661 0.999887 
0.0148867 0.0021847 0.999887 
0.0145491 0.00605139 0.999876 
0.0140116 0.0103352 0.999848 
0.0132317 0.0150416 0.999799 
0.0120911 0.0204655 0.999717 
0.0105964 0.0267136 0.999587 
0.00859233 0.0340711 0.999382 
0.00601004 0.0426944 0.99907 
0.00232927 0.0533348 0.998574 
-0.00253283 0.0661212 0.997808 
-0.00819543 0.080061 0.996756 
-0.0157227 0.0971768 0.995143 
-0.0281103 0.120967 0.992258 
-0.0427638 0.146992 0.988213 
-0.0610774 0.176345 0.982432 
-0.0854973 0.211167 0.973704 
-0.113682 0.246662 0.962411 
-0.147571 0.284152 0.947355 
-0.192989 0.328438 0.924599 
-0.232687 0.361475 0.90288 
-0.288883 0.401758 0.868986 
-0.34444 0.432466 0.833267 
-0.388938 0.448755 0.804578 
0.377662 0.429639 -0.820233 
0.327936 0.413765 -0.849269 
0.297532 0.398319 -0.86765 
0.256891 0.374587 -0.890894 
0.204608 0.335083 -0.919704 
0.161709 0.297388 -0.940963 
0.124478 0.258371 -0.957992 
0.0921798 0.218971 -0.971367 
0.0683648 0.186982 -0.979982 
0.0458701 0.152028 -0.987311 
0.0321796 0.1287 -0.991161 
0.0206906 0.106908 -0.994054 
0.0113006 0.0874715 -0.996103 
0.00414911 0.0710634 -0.997463 
-0.00100394 0.0576261 -0.998338 
-0.00514164 0.046157 -0.998921 
-0.00760371 0.0377464 -0.999258 
-0.00997326 0.0296343 -0.999511 
-0.0118582 0.0228797 -0.999668 
-0.0128288 0.0175005 -0.999765 
-0.013673 0.0127018 -0.999826 
-0.0144464 0.00827504 -0.999861 
-0.0149405 0.0042706 -0.999879 
-0.0150767 0.000701653 -0.999886 
-0.0152647 -0.00253103 -0.99988 
-0.0152971 -0.00563824 -0.999867 
-0.0151272 -0.00847432 -0.99985 
-0.0149452 -0.0114168 -0.999823 
-0.0146066 -0.0144281 -0.999789 
-0.0138607 -0.0173867 -0.999753 
-0.0130954 -0.0199371 -0.999715 
-0.01167 -0.0209313 -0.999713 
-0.00985385 -0.0208912 -0.999733 
-0.00739697 -0.0163497 -0.999839 
-8.60187e-06 6.27798e-05 -1 
6.31564e-05 7.29482e-06 1 
0.00651746 -0.0162161 0.999847 
0.00901331 -0.0206944 0.999745 
0.0103291 -0.0205508 0.999735 
0.0114068 -0.0191657 0.999751 
0.0119587 -0.0164067 0.999794 
0.0123306 -0.0130922 0.999838 
0.0126479 -0.00995637 0.99987 
0.0128453 -0.00689115 0.999894 
0.012922 -0.00379497 0.999909 
0.012895 -0.00045109 0.999917 
0.0127285 0.00323042 0.999914 
0.0123347 0.00736473 0.999897 
0.0116779 0.011908 0.999861 
0.0107901 0.0169818 0.999798 
0.0095023 0.0229201 0.999692 
0.00781175 0.0298525 0.999524 
0.00554355 0.0380915 0.999259 
0.00259308 0.0478291 0.998852 
-0.00162548 0.0600745 0.998193 
-0.00721994 0.0749085 0.997164 
-0.0138378 0.0911827 0.995738 
-0.0211413 0.107249 0.994007 
-0.0338379 0.133446 0.990478 
-0.0493233 0.161495 0.98564 
-0.0717258 0.198563 0.97746 
-0.100442 0.241753 0.965125 
-0.135596 0.28562 0.948702 
-0.178826 0.331367 0.9264 
-0.23268 0.380046 0.895223 
-0.299512 0.427761 0.852826 
-0.379603 0.472038 0.795665 
-0.465469 0.497017 0.732334 
0.457637 0.468953 -0.755414 
0.410274 0.476736 -0.77743 
0.345964 0.453959 -0.821115 
0.272845 0.410546 -0.870062 
0.213215 0.365551 -0.906042 
0.163321 0.319554 -0.933387 
0.121228 0.26896 -0.955492 
0.0904802 0.227956 -0.969458 
0.0615802 0.182377 -0.981298 
0.0442022 0.153366 -0.98718 
0.0298518 0.126264 -0.991547 
0.0182643 0.101755 -0.994642 
0.00992307 0.0824042 -0.99655 
0.00367363 0.0665786 -0.997774 
-0.00132157 0.0525958 -0.998615 
-0.00420063 0.0427983 -0.999075 
-0.00704206 0.0335867 -0.999411 
-0.00918466 0.0255805 -0.999631 
-0.0102975 0.0196547 -0.999754 
-0.011244 0.0143407 -0.999834 
-0.0121568 0.00952634 -0.999881 
-0.0127478 0.0052232 -0.999905 
-0.01291 0.00141977 -0.999916 
-0.0130624 -0.00209097 -0.999912 
-0.013228 -0.00516152 -0.999899 
-0.0129404 -0.00818482 -0.999883 
-0.0128846 -0.0110525 -0.999856 
-0.0125591 -0.0141065 -0.999822 
-0.0119168 -0.0172425 -0.99978 
-0.011293 -0.0197548 -0.999741 
-0.0101395 -0.0210262 -0.999728 
-0.00857431 -0.021025 -0.999742 
-0.00653367 -0.0165578 -0.999842 
2.58337e-06 6.11663e-05 -1 
5.70158e-06 0.00010256 1 
0.00539099 -0.0160093 0.999857 
0.0073683 -0.02065 0.99976 
0.00850211 -0.0207902 0.999748 
0.00948487 -0.0195393 0.999764 
0.00992765 -0.016833 0.999809 
0.010334 -0.0136462 0.999853 
0.010621 -0.0104165 0.999889 
0.0108271 -0.00732527 0.999915 
0.0109074 -0.00422173 0.999932 
0.0109013 -0.000908406 0.99994 
0.0107366 0.00282014 0.999938 
0.0104112 0.0069548 0.999922 
0.0097792 0.0116289 0.999885 
0.00891774 0.0168954 0.999817 
0.00774522 0.0229374 0.999707 
0.00610281 0.0302255 0.999524 
0.00387745 0.0389783 0.999233 
0.000904247 0.0495445 0.998772 
-0.00311896 0.0623653 0.998049 
-0.00881879 0.078875 0.996846 
-0.016412 0.0989124 0.994961 
-0.0256151 0.11994 0.992451 
-0.0405671 0.153133 0.987373 
-0.0595248 0.188918 0.980187 
-0.0851437 0.235333 0.968178 
-0.120312 0.289593 0.949558 
-0.164847 0.34583 0.923703 
-0.220202 0.404455 0.887653 
-0.291556 0.462808 0.83714 
-0.380018 0.521301 0.764089 
-0.485522 0.564037 0.66793 
0.486643 0.567383 -0.66427 
0.382863 0.528292 -0.757841 
0.298176 0.476701 -0.826951 
0.226925 0.418106 -0.879598 
0.1694 0.360018 -0.917437 
0.127492 0.305035 -0.943769 
0.088238 0.240774 -0.966562 
0.0642971 0.200735 -0.977533 
0.0448419 0.163978 -0.985444 
0.0294603 0.130957 -0.99095 
0.0189077 0.106176 -0.994168 
0.0108444 0.0850934 -0.996314 
0.00433544 0.0669288 -0.997748 
0.000393635 0.0545495 -0.998511 
-0.00298045 0.04277 -0.99908 
-0.00577199 0.0329357 -0.999441 
-0.00728791 0.0258216 -0.99964 
-0.00844635 0.0195614 -0.999773 
-0.00945971 0.0138958 -0.999859 
-0.0102979 0.00900154 -0.999906 
-0.0107378 0.00482106 -0.999931 
-0.0109628 0.000881017 -0.99994 
-0.0110166 -0.002508 -0.999936 
-0.0111988 -0.00559101 -0.999922 
-0.0108502 -0.0084984 -0.999905 
-0.0108654 -0.0114814 -0.999875 
-0.0105251 -0.0145093 -0.999839 
-0.00989327 -0.0175111 -0.999798 
-0.00941244 -0.0200347 -0.999755 
-0.00836443 -0.0211537 -0.999741 
-0.00707278 -0.0210394 -0.999754 
-0.00544501 -0.0163799 -0.999851 
8.51462e-07 6.29405e-05 -1 
-3.26792e-06 4.31311e-05 1 
0.00459909 -0.0166053 0.999852 
0.00614707 -0.0209217 0.999762 
0.00723429 -0.0206852 0.99976 
0.00798017 -0.0192936 0.999782 
0.00826282 -0.0164859 0.99983 
0.00868838 -0.0130926 0.999877 
0.00892111 -0.00983568 0.999912 
0.00906737 -0.00670731 0.999936 
0.00911011 -0.00350246 0.999952 
0.00908447 1.02412e-05 0.999959 
0.00887817 0.00396496 0.999953 
0.00851226 0.00837099 0.999929 
0.00785154 0.0134099 0.999879 
0.00695152 0.019131 0.999793 
0.00574852 0.0258649 0.999649 
0.00403909 0.0340131 0.999413 
0.00170975 0.0439186 0.999034 
-0.00138906 0.0558202 0.99844 
-0.00565112 0.0706459 0.997485 
-0.011676 0.0899372 0.995879 
-0.0198339 0.113827 0.993303 
-0.0301089 0.138134 0.989956 
-0.0405549 0.170763 0.984477 
-0.0546821 0.195885 0.979101 
-0.0771744 0.244016 0.966695 
-0.109056 0.30247 0.946899 
-0.152862 0.370436 0.916193 
-0.207401 0.441341 0.873042 
-0.277122 0.50816 0.815461 
-0.362346 0.576643 0.732249 
-0.466808 0.631744 0.618862 
0.45895 0.646641 -0.609279 
0.357673 0.591046 -0.723003 
0.271577 0.519479 -0.810178 
0.201028 0.445108 -0.872621 
0.145926 0.378004 -0.914231 
0.104479 0.295803 -0.949518 
0.0748989 0.244562 -0.966737 
0.0532495 0.197875 -0.97878 
0.0357475 0.156195 -0.987079 
0.0233458 0.125102 -0.991869 
0.0143474 0.0989805 -0.994986 
0.00784982 0.0784299 -0.996889 
0.00329533 0.063587 -0.997971 
-0.000468652 0.0497541 -0.998761 
-0.00353833 0.0374322 -0.999293 
-0.00518167 0.0293699 -0.999555 
-0.00644263 0.0223614 -0.999729 
-0.00753409 0.0160707 -0.999842 
-0.00837558 0.0105363 -0.999909 
-0.00881108 0.00595867 -0.999943 
-0.00916669 0.00190849 -0.999956 
-0.00918159 -0.00181371 -0.999956 
-0.00933423 -0.0051143 -0.999943 