# vtk DataFile Version 3.0 
Exported using Morpho https://github.com/Morpho-lang/morpho 
ASCII 
DATASET UNSTRUCTURED_GRID 

POINTS 2041 float 
-8.32618 -2.88146 0 
-8.11405 -2.88146 0 
-7.90192 -2.88146 0 
-7.68979 -2.88146 0 
-7.47765 -2.88146 0 
-7.26552 -2.88146 0 
-7.05339 -2.88146 0 
-6.84126 -2.88146 0 
-6.62913 -2.88146 0 
-6.41699 -2.88146 0 
-6.20486 -2.88146 0 
-5.99273 -2.88146 0 
-5.7806 -2.88146 0 
-5.56847 -2.88146 0 
-5.35633 -2.88146 0 
-5.1442 -2.88146 0 
-4.93207 -2.88146 0 
-4.71994 -2.88146 0 
-4.50781 -2.88146 0 
-4.29567 -2.88146 0 
-4.08354 -2.88146 0 
-3.87141 -2.88146 0 
-3.65928 -2.88146 0 
-3.44715 -2.88146 0 
-3.23501 -2.88146 0 
-3.02288 -2.88146 0 
-2.81075 -2.88146 0 
-2.59862 -2.88146 0 
-2.38649 -2.88146 0 
-2.17435 -2.88146 0 
-1.96222 -2.88146 0 
-1.75009 -2.88146 0 
-1.53796 -2.88146 0 
-1.32583 -2.88146 0 
-1.11369 -2.88146 0 
-0.901561 -2.88146 0 
-0.689429 -2.88146 0 
-0.477297 -2.88146 0 
-0.265165 -2.88146 0 
-0.053033 -2.88146 0 
0.159099 -2.88146 0 
0.371231 -2.88146 0 
0.583363 -2.88146 0 
0.795495 -2.88146 0 
1.00763 -2.88146 0 
1.21976 -2.88146 0 
1.43189 -2.88146 0 
1.64402 -2.88146 0 
1.85616 -2.88146 0 
2.06829 -2.88146 0 
2.28042 -2.88146 0 
2.49255 -2.88146 0 
2.70468 -2.88146 0 
2.91682 -2.88146 0 
3.12895 -2.88146 0 
3.34108 -2.88146 0 
3.55321 -2.88146 0 
3.76534 -2.88146 0 
3.97748 -2.88146 0 
4.18961 -2.88146 0 
4.40174 -2.88146 0 
4.61387 -2.88146 0 
4.826 -2.88146 0 
5.03814 -2.88146 0 
5.25027 -2.88146 0 
5.4624 -2.88146 0 
5.67453 -2.88146 0 
5.88666 -2.88146 0 
6.0988 -2.88146 0 
6.31093 -2.88146 0 
6.52306 -2.88146 0 
6.73519 -2.88146 0 
6.94732 -2.88146 0 
7.15946 -2.88146 0 
7.37159 -2.88146 0 
7.58372 -2.88146 0 
7.79585 -2.88146 0 
8.00798 -2.88146 0 
8.22012 -2.88146 0 
8.53832 -2.88146 0 
-8.53831 -2.72073 0 
-8.30132 -2.66409 0 
-8.07128 -2.66302 0 
-7.84107 -2.66383 0 
-7.60931 -2.67593 0 
-7.37069 -2.67484 0 
-7.13878 -2.68115 0 
-6.91412 -2.66623 0 
-6.69231 -2.66641 0 
-6.46981 -2.66522 0 
-6.24952 -2.66598 0 
-6.02908 -2.66624 0 
-5.81034 -2.66806 0 
-5.59099 -2.66725 0 
-5.37613 -2.66994 0 
-5.15698 -2.66793 0 
-4.94215 -2.66877 0 
-4.72762 -2.66865 0 
-4.51529 -2.67224 0 
-4.30106 -2.67402 0 
-4.08706 -2.67377 0 
-3.8729 -2.67247 0 
-3.65866 -2.67227 0 
-3.44425 -2.67623 0 
-3.23096 -2.67577 0 
-3.01975 -2.67154 0 
-2.80978 -2.66936 0 
-2.59791 -2.67012 0 
-2.38649 -2.66648 0 
-2.17723 -2.67017 0 
-1.96256 -2.66866 0 
-1.74859 -2.66949 0 
-1.53248 -2.66657 0 
-1.31777 -2.65905 0 
-1.10351 -2.64894 0 
-0.893868 -2.62951 0 
-0.687111 -2.63226 0 
-0.457845 -2.63342 0 
-0.260116 -2.61144 0 
-0.0541004 -2.62969 0 
0.166955 -2.63624 0 
0.391954 -2.6284 0 
0.589713 -2.61443 0 
0.803602 -2.63523 0 
1.02882 -2.64716 0 
1.24917 -2.6538 0 
1.46778 -2.65991 0 
1.68393 -2.664 0 
1.90135 -2.66781 0 
2.1132 -2.66704 0 
2.32757 -2.67157 0 
2.53868 -2.67087 0 
2.74824 -2.6708 0 
2.95867 -2.67365 0 
3.17216 -2.67408 0 
3.37769 -2.6697 0 
3.59598 -2.67819 0 
3.80163 -2.66943 0 
4.02059 -2.6785 0 
4.22906 -2.67009 0 
4.44138 -2.67142 0 
4.65318 -2.66957 0 
4.86479 -2.66892 0 
5.07656 -2.66839 0 
5.28808 -2.66812 0 
5.49987 -2.66864 0 
5.7114 -2.66807 0 
5.92337 -2.66906 0 
6.13887 -2.67166 0 
6.35056 -2.66868 0 
6.56284 -2.66908 0 
6.77587 -2.66851 0 
6.99075 -2.6686 0 
7.20517 -2.6664 0 
7.42079 -2.66381 0 
7.63713 -2.6616 0 
7.85415 -2.66713 0 
8.0665 -2.64799 0 
8.31329 -2.72394 0 
8.53832 -2.66933 0 
-8.42898 -2.47803 0 
-8.19442 -2.44907 0 
-7.96602 -2.45115 0 
-7.73302 -2.46013 0 
-7.50361 -2.48209 0 
-7.32513 -2.39181 0 
-7.16832 -2.48283 0 
-6.94259 -2.45924 0 
-6.71455 -2.45499 0 
-6.48981 -2.45455 0 
-6.26393 -2.45269 0 
-6.04223 -2.45486 0 
-5.81913 -2.45586 0 
-5.59935 -2.45787 0 
-5.3777 -2.45539 0 
-5.16429 -2.46131 0 
-4.94068 -2.45659 0 
-4.72602 -2.45743 0 
-4.50982 -2.45935 0 
-4.30006 -2.46631 0 
-4.08378 -2.46727 0 
-3.87295 -2.46143 0 
-3.66222 -2.46744 0 
-3.44041 -2.4708 0 
-3.2277 -2.46751 0 
-3.01619 -2.45901 0 
-2.80363 -2.45711 0 
-2.58842 -2.45855 0 
-2.37686 -2.44926 0 
-2.15887 -2.4598 0 
-1.94087 -2.45596 0 
-1.71971 -2.45878 0 
-1.49852 -2.44812 0 
-1.27666 -2.43122 0 
-1.05765 -2.4049 0 
-0.840727 -2.36601 0 
-0.605396 -2.41671 0 
-0.392271 -2.34387 0 
-0.173583 -2.36194 0 
0.0432656 -2.3897 0 
0.0309844 -2.13454 0 
0.272581 -2.4027 0 
0.486439 -2.32954 0 
0.708592 -2.38838 0 
0.93904 -2.41526 0 
1.16833 -2.42516 0 
1.39134 -2.43706 0 
1.61137 -2.44346 0 
1.83061 -2.45483 0 
2.04857 -2.4507 0 
2.26391 -2.46093 0 
2.47812 -2.45896 0 
2.68945 -2.45791 0 
2.9001 -2.46245 0 
3.11109 -2.4705 0 
3.32421 -2.454 0 
3.53575 -2.47922 0 
3.74991 -2.45492 0 
3.96273 -2.47893 0 
4.1777 -2.45833 0 
4.3883 -2.46144 0 
4.59998 -2.45863 0 
4.81241 -2.45606 0 
5.02388 -2.45557 0 
5.23525 -2.45393 0 
5.44677 -2.45541 0 
5.6573 -2.45444 0 
5.86974 -2.45644 0 
6.0837 -2.46403 0 
6.29988 -2.45724 0 
6.51345 -2.45607 0 
6.72679 -2.45724 0 
6.94285 -2.45769 0 
7.16136 -2.4543 0 
7.38019 -2.45079 0 
7.60347 -2.44797 0 
7.82979 -2.44958 0 
8.06292 -2.43898 0 
8.29955 -2.51526 0 
8.53832 -2.4572 0 
-8.53831 -2.26595 0 
-8.31184 -2.24849 0 
-8.07732 -2.23882 0 
-7.83768 -2.25274 0 
-7.59365 -2.26889 0 
-7.34104 -2.21051 0 
-7.07376 -2.25648 0 
-6.85197 -2.2472 0 
-6.63257 -2.24152 0 
-6.41377 -2.24265 0 
-6.19615 -2.2385 0 
-5.97881 -2.24381 0 
-5.76335 -2.24279 0 
-5.5481 -2.24744 0 
-5.33804 -2.23862 0 
-5.12052 -2.25631 0 
-4.91061 -2.24171 0 
-4.69817 -2.24687 0 
-4.49596 -2.24156 0 
-4.2878 -2.25739 0 
-4.08466 -2.24936 0 
-3.88126 -2.2477 0 
-3.67551 -2.25416 0 
-3.46469 -2.2742 0 
-3.23911 -2.25833 0 
-3.02984 -2.24388 0 
-2.82105 -2.24471 0 
-2.60667 -2.24792 0 
-2.39105 -2.23295 0 
-2.17375 -2.24671 0 
-1.95536 -2.24212 0 
-1.73375 -2.24571 0 
-1.51083 -2.22857 0 
-1.28938 -2.20035 0 
-1.06626 -2.16403 0 
-0.844695 -2.10948 0 
-0.627616 -2.18217 0 
-0.407312 -2.08859 0 
-0.188348 -2.11208 0 
-0.0267002 -1.87555 0 
0.182096 -1.89557 0 
0.245178 -2.163 0 
0.469459 -2.07841 0 
0.705629 -2.14994 0 
0.936697 -2.18737 0 
1.17158 -2.20223 0 
1.40235 -2.21453 0 
1.62672 -2.22569 0 
1.84679 -2.23924 0 
2.06291 -2.23244 0 
2.27481 -2.2485 0 
2.48784 -2.24495 0 
2.70141 -2.24578 0 
2.914 -2.25272 0 
3.12745 -2.26398 0 
3.33816 -2.24106 0 
3.54582 -2.27454 0 
3.75538 -2.24164 0 
3.96406 -2.27458 0 
4.17793 -2.24949 0 
4.39111 -2.25043 0 
4.60404 -2.24788 0 
4.81065 -2.2388 0 
5.01849 -2.24168 0 
5.23006 -2.24074 0 
5.44147 -2.24074 0 
5.65234 -2.24018 0 
5.86184 -2.24363 0 
6.07513 -2.25457 0 
6.28849 -2.24961 0 
6.50722 -2.24578 0 
6.72208 -2.24348 0 
6.93572 -2.24814 0 
7.15386 -2.24354 0 
7.37534 -2.23919 0 
7.5978 -2.23851 0 
7.82878 -2.2426 0 
8.06333 -2.22931 0 
8.30003 -2.30425 0 
8.53832 -2.24506 0 
-8.53831 -2.04701 0 
-8.30516 -2.03373 0 
-8.05453 -2.041 0 
-7.82657 -2.03816 0 
-7.60218 -2.07775 0 
-7.38377 -2.0046 0 
-7.14038 -2.06591 0 
-6.9054 -2.03643 0 
-6.68399 -2.02827 0 
-6.46297 -2.02829 0 
-6.24429 -2.02495 0 
-6.02323 -2.02956 0 
-5.80531 -2.02885 0 
-5.58723 -2.03354 0 
-5.37385 -2.0227 0 
-5.15698 -2.04731 0 
-4.94106 -2.02885 0 
-4.72624 -2.03676 0 
-4.51201 -2.01973 0 
-4.30841 -2.04126 0 
-4.10437 -2.03433 0 
-3.89723 -2.031 0 
-3.69067 -2.03548 0 
-3.48321 -2.06452 0 
-3.27124 -2.06551 0 
-3.04389 -2.03166 0 
-2.82921 -2.02626 0 
-2.61975 -2.03547 0 
-2.40145 -2.01758 0 
-2.18458 -2.03246 0 
-1.96306 -2.02357 0 
-1.74224 -2.02748 0 
-1.51986 -2.00017 0 
-1.29246 -1.96475 0 
-1.05772 -1.92199 0 
-0.823117 -1.85643 0 
-0.60639 -1.93802 0 
-0.415187 -1.78728 0 
-0.235607 -1.85628 0 
-4.53126e-06 -1.62364 0 
0.154946 -1.59108 0 
0.368792 -1.87163 0 
0.512443 -1.72092 0 
0.676395 -1.91344 0 
0.917065 -1.95185 0 
1.15028 -1.97808 0 
1.38692 -1.99397 0 
1.61659 -2.00453 0 
1.83975 -2.01866 0 
2.05602 -2.01079 0 
2.26781 -2.02787 0 
2.4775 -2.02901 0 
2.69084 -2.03328 0 
2.9064 -2.04109 0 
3.11912 -2.05558 0 
3.33396 -2.03258 0 
3.54968 -2.06469 0 
3.76652 -2.0334 0 
3.97923 -2.06709 0 
4.18671 -2.03179 0 
4.39095 -2.0408 0 
4.59599 -2.02986 0 
4.80627 -2.02441 0 
5.01703 -2.02543 0 
5.22626 -2.02619 0 
5.43758 -2.02799 0 
5.64985 -2.02485 0 
5.85997 -2.0289 0 
6.07026 -2.04395 0 
6.28173 -2.03712 0 
6.49349 -2.04057 0 
6.71491 -2.03425 0 
6.93221 -2.03371 0 
7.1459 -2.03399 0 
7.36661 -2.0285 0 
7.59056 -2.0266 0 
7.8169 -2.03686 0 
8.05947 -2.0238 0 
8.30005 -2.09234 0 
8.53832 -2.03293 0 
-8.53831 -1.8282 0 
-8.30817 -1.81739 0 
-8.07449 -1.84159 0 
-7.83429 -1.82247 0 
-7.60574 -1.86059 0 
-7.3917 -1.78108 0 
-7.17602 -1.86012 0 
-6.94877 -1.83736 0 
-6.71714 -1.81546 0 
-6.49486 -1.81489 0 
-6.27447 -1.81067 0 
-6.05367 -1.81799 0 
-5.83247 -1.81588 0 
-5.61251 -1.82112 0 
-5.39586 -1.80772 0 
-5.17849 -1.83462 0 
-4.96563 -1.82161 0 
-4.74375 -1.82607 0 
-4.52985 -1.81288 0 
-4.3089 -1.82217 0 
-4.09961 -1.8209 0 
-3.89307 -1.81539 0 
-3.67584 -1.82981 0 
-3.45745 -1.85464 0 
-3.23765 -1.86398 0 
-3.01726 -1.82042 0 
-2.80611 -1.80677 0 
-2.58757 -1.8233 0 
-2.36326 -1.80128 0 
-2.14775 -1.81409 0 
-1.92802 -1.79906 0 
-1.71103 -1.79468 0 
-1.48367 -1.76152 0 
-1.24262 -1.72645 0 
-1.00451 -1.6712 0 
-0.784703 -1.56784 0 
-0.605452 -1.67863 0 
-0.349689 -1.51832 0 
-0.173137 -1.58163 0 
0.316536 -1.53329 0 
0.489029 -1.44475 0 
0.695063 -1.60028 0 
0.870018 -1.7199 0 
1.1146 -1.7463 0 
1.35211 -1.77271 0 
1.58981 -1.78292 0 
1.82155 -1.7983 0 
2.04964 -1.79024 0 
2.26909 -1.8049 0 
2.48668 -1.81172 0 
2.70802 -1.82239 0 
2.92463 -1.83029 0 
3.13711 -1.84633 0 
3.34862 -1.81779 0 
3.55563 -1.86129 0 
3.76014 -1.81494 0 
3.9662 -1.85769 0 
4.17984 -1.82282 0 
4.39337 -1.82188 0 
4.60451 -1.81577 0 
4.81645 -1.81051 0 
5.02738 -1.80997 0 
5.23924 -1.81239 0 
5.45254 -1.81507 0 
5.66308 -1.81016 0 
5.8762 -1.81613 0 
6.08529 -1.83104 0 
6.29736 -1.82429 0 
6.51658 -1.83673 0 
6.73426 -1.82519 0 
6.944 -1.818 0 
7.16036 -1.82216 0 
7.37977 -1.81665 0 
7.60299 -1.81411 0 
7.83963 -1.83619 0 
8.07695 -1.8132 0 
8.30528 -1.88335 0 
8.53832 -1.8208 0 
-8.53831 -1.61394 0 
-8.30879 -1.59731 0 
-8.08399 -1.63412 0 
-7.8598 -1.60456 0 
[...]
POINT_DATA 2041 
VECTORS vectors float
-2.27366e-05 -0.000873366 1 
3.73777e-05 -0.017493 0.999847 
-0.000105144 -0.0214519 0.99977 
-4.90342e-05 -0.0213543 0.999772 
-7.07898e-05 -0.0196265 0.999807 
-6.15143e-05 -0.0174923 0.999847 
-6.3764e-05 -0.0153593 0.999882 
-6.51265e-05 -0.013144 0.999914 
-6.29358e-05 -0.0107682 0.999942 
-6.48285e-05 -0.00825843 0.999966 
-6.33867e-05 -0.00567964 0.999984 
-6.44822e-05 -0.00309612 0.999995 
-6.34638e-05 -0.000527189 1 
-6.46236e-05 0.00207542 0.999998 
-6.30788e-05 0.00479589 0.999988 
-6.47284e-05 0.00774883 0.99997 
-6.26955e-05 0.0110656 0.999939 
-6.40071e-05 0.0148813 0.999889 
-6.26527e-05 0.019404 0.999812 
-6.26172e-05 0.0248035 0.999692 
-6.1843e-05 0.0313095 0.99951 
-6.13157e-05 0.0393083 0.999227 
-6.02252e-05 0.0489088 0.998803 
-5.90921e-05 0.0607064 0.998156 
-5.77331e-05 0.0750424 0.99718 
-5.57167e-05 0.092579 0.995705 
-5.43892e-05 0.114054 0.993475 
-5.04903e-05 0.140242 0.990117 
-4.70328e-05 0.172048 0.985089 
-4.51254e-05 0.212004 0.977269 
-3.8727e-05 0.260795 0.965394 
-3.18225e-05 0.318437 0.947944 
-2.78142e-05 0.388462 0.921465 
-1.8603e-05 0.471835 0.881687 
-1.20271e-05 0.568342 0.822793 
-5.43195e-06 0.675165 0.737667 
-6.27491e-07 0.785028 0.619461 
1.32287e-06 0.886073 0.463546 
4.99871e-07 0.962322 0.271912 
1.22936e-06 0.998489 0.0549529 
-2.54718e-06 0.986124 -0.16601 
1.17458e-06 0.928178 -0.372137 
-1.36172e-06 0.836581 -0.547843 
8.6154e-07 0.731105 -0.682265 
1.13718e-05 0.620941 -0.783857 
1.36598e-05 0.518662 -0.854979 
2.30593e-05 0.428575 -0.903506 
3.02094e-05 0.351779 -0.936083 
3.56241e-05 0.287644 -0.957737 
4.18623e-05 0.234749 -0.972056 
4.54316e-05 0.191374 -0.981517 
4.97843e-05 0.155851 -0.987781 
5.20426e-05 0.126755 -0.991934 
5.57126e-05 0.102942 -0.994687 
5.53833e-05 0.0834717 -0.99651 
6.04397e-05 0.0675444 -0.997716 
5.74436e-05 0.0545149 -0.998513 
6.29217e-05 0.0438548 -0.999038 
5.99394e-05 0.0350989 -0.999384 
6.33587e-05 0.0279158 -0.99961 
6.21527e-05 0.0219689 -0.999759 
6.34822e-05 0.0170204 -0.999855 
6.34378e-05 0.0128476 -0.999917 
6.37238e-05 0.00927598 -0.999957 
6.39224e-05 0.00614236 -0.999981 
6.40646e-05 0.00330501 -0.999995 
6.38626e-05 0.000637832 -1 
6.44153e-05 -0.00196716 -0.999998 
6.37865e-05 -0.00457778 -0.99999 
6.43627e-05 -0.00722789 -0.999974 
6.38606e-05 -0.00988586 -0.999951 
6.42608e-05 -0.0124726 -0.999922 
6.34697e-05 -0.0149214 -0.999889 
6.6192e-05 -0.017263 -0.999851 
5.58027e-05 -0.0196328 -0.999807 
8.36042e-05 -0.0220672 -0.999756 
2.87816e-05 -0.0240588 -0.999711 
9.5908e-05 -0.0242943 -0.999705 
7.86471e-05 -0.022227 -0.999753 
-8.17734e-06 -0.00135785 -0.999999 
-0.0001553 0.000257383 1 
0.00792585 -0.013394 0.999879 
0.0109611 -0.0201436 0.999737 
0.0118918 -0.0209682 0.999709 
0.0120766 -0.0203699 0.99972 
0.012553 -0.0182708 0.999754 
0.0126661 -0.0159502 0.999793 
0.0133405 -0.0135792 0.999819 
0.0133545 -0.0111899 0.999848 
0.0134724 -0.00866949 0.999872 
0.0135045 -0.00609063 0.99989 
0.0135704 -0.00347136 0.999902 
0.0135391 -0.00084875 0.999908 
0.0136479 0.00183174 0.999905 
0.0134965 0.00458498 0.999898 
0.0135559 0.00763817 0.999879 
0.0134733 0.0110098 0.999849 
0.0133565 0.0148525 0.9998 
0.0130662 0.0193985 0.999726 
0.0127832 0.0248881 0.999609 
0.0124235 0.0314344 0.999429 
0.01197 0.039411 0.999151 
0.0115164 0.0493464 0.998715 
0.0107745 0.0614586 0.998051 
0.00996995 0.0760167 0.997057 
0.00906165 0.0936736 0.995562 
0.00788535 0.115179 0.993313 
0.00644864 0.141655 0.989895 
0.00494196 0.174102 0.984715 
0.00316929 0.212792 0.977092 
0.00131234 0.261292 0.965259 
-0.000464292 0.320527 0.947239 
-0.00216769 0.392237 0.919862 
-0.00361487 0.476934 0.878931 
-0.00458843 0.574649 0.818387 
-0.00507966 0.680203 0.733006 
-0.00435247 0.787102 0.616807 
-0.0031509 0.895002 0.44605 
-0.00189807 0.964086 0.265583 
-0.000262975 0.998444 0.055768 
0.00135938 0.984551 -0.175095 
0.00303756 0.920324 -0.391146 
0.00460525 0.834624 -0.550801 
0.00500898 0.725733 -0.687958 
0.00500917 0.610735 -0.791819 
0.00435065 0.506641 -0.862146 
0.00303514 0.416286 -0.909229 
0.00133848 0.340483 -0.94025 
-0.000583945 0.277104 -0.96084 
-0.00249335 0.226347 -0.974043 
-0.00431588 0.184237 -0.982872 
-0.00602504 0.150207 -0.988636 
-0.00750165 0.122485 -0.992442 
-0.00867149 0.099623 -0.994987 
-0.00977022 0.0806369 -0.996696 
-0.0107473 0.0656869 -0.997782 
-0.0111795 0.0526428 -0.998551 
-0.0121045 0.0426148 -0.999018 
-0.0121663 0.0338189 -0.999354 
-0.0129231 0.0269577 -0.999553 
-0.0130778 0.0211725 -0.99969 
-0.0133471 0.0163416 -0.999777 
-0.013512 0.0122655 -0.999833 
-0.0136538 0.00876535 -0.999868 
-0.0137543 0.00568218 -0.999889 
-0.0137885 0.00286957 -0.999901 
-0.0138504 0.000219674 -0.999904 
-0.0137861 -0.00236808 -0.999902 
-0.0136519 -0.0049937 -0.999894 
-0.0137715 -0.00757167 -0.999877 
-0.0136489 -0.0101346 -0.999855 
-0.0135443 -0.0126395 -0.999828 
-0.0133657 -0.0150771 -0.999797 
-0.0131952 -0.0174666 -0.99976 
-0.0129073 -0.0198735 -0.999719 
-0.0125205 -0.0220561 -0.999678 
-0.0115036 -0.0234477 -0.999659 
-0.0105541 -0.0232893 -0.999673 
-0.00527516 -0.0166072 -0.999848 
0.000231001 -2.66022e-05 -1 
0.00624684 -0.00874701 0.999942 
0.0127843 -0.0202758 0.999713 
0.0146954 -0.0211047 0.999669 
0.0161271 -0.0209027 0.999651 
0.0169402 -0.0195439 0.999665 
0.0173896 -0.0177172 0.999692 
0.017497 -0.0160922 0.999717 
0.0178439 -0.0136456 0.999748 
0.0179186 -0.0112017 0.999777 
0.0180506 -0.00872239 0.999799 
0.0181494 -0.00614993 0.999816 
0.0182261 -0.0035666 0.999828 
0.018263 -0.00090973 0.999833 
0.0182818 0.00178554 0.999831 
0.0182349 0.00464967 0.999823 
0.0181343 0.00764267 0.999806 
0.0179487 0.0111788 0.999776 
0.0177572 0.0151572 0.999727 
0.0173999 0.0198286 0.999652 
0.016937 0.0252219 0.999538 
0.0163546 0.0320147 0.999354 
0.015652 0.0401937 0.999069 
0.0147499 0.049937 0.998643 
0.0135472 0.0624775 0.997954 
0.0121232 0.0775363 0.996916 
0.0102429 0.0954869 0.995378 
0.00813112 0.117802 0.993004 
0.00570203 0.145237 0.989381 
0.00276069 0.178229 0.983985 
-1.41872e-05 0.219355 0.975645 
-0.00322174 0.26996 0.962866 
-0.00607298 0.332673 0.943023 
-0.00895829 0.407278 0.91326 
-0.0111451 0.496549 0.867937 
-0.0122475 0.59791 0.80147 
-0.0119599 0.707372 0.70674 
-0.00784964 0.827655 0.561182 
-0.00563315 0.920421 0.390889 
-0.00203829 0.983707 0.179769 
0.0010278 0.998888 -0.047139 
0.00142617 0.999423 -0.0339238 
0.00421647 0.959804 -0.280641 
0.00850015 0.88091 -0.473207 
0.0105745 0.774521 -0.63246 
0.0119768 0.656259 -0.754441 
0.0122295 0.54475 -0.83851 
0.0108023 0.449075 -0.893429 
0.00843451 0.36733 -0.930052 
0.00518426 0.299415 -0.954109 
0.00218404 0.24352 -0.969893 
-0.0013118 0.198819 -0.980035 
-0.00419901 0.16178 -0.986818 
-0.00681462 0.131851 -0.991246 
-0.00918517 0.107295 -0.994185 
-0.0112119 0.0870705 -0.996139 
-0.0126852 0.070445 -0.997435 
-0.0141877 0.0568975 -0.998279 
-0.0151553 0.0456936 -0.998841 
-0.0160843 0.036555 -0.999202 
-0.0167035 0.0289771 -0.999441 
-0.0172433 0.0229148 -0.999589 
-0.0176099 0.0177616 -0.999687 
-0.0178711 0.0134121 -0.99975 
-0.0181206 0.00975157 -0.999788 
-0.0182973 0.00654057 -0.999811 
-0.0184034 0.00363949 -0.999824 
-0.0184685 0.000946134 -0.999829 
-0.0184917 -0.00167104 -0.999828 
-0.0184505 -0.00426076 -0.999821 
-0.0183738 -0.00684029 -0.999808 
-0.0182439 -0.00936075 -0.99979 
-0.0180812 -0.0118276 -0.999767 
-0.0178431 -0.0142675 -0.999739 
-0.0174945 -0.0167358 -0.999707 
-0.0169705 -0.0192383 -0.999671 
-0.0162085 -0.021492 -0.999638 
-0.0149886 -0.0228311 -0.999627 
-0.0130617 -0.0232784 -0.999644 
-0.00932764 -0.0180404 -0.999794 
-0.000356114 -0.000218661 -1 
-0.000114461 -4.80503e-05 1 
0.00947127 -0.0172956 0.999806 
0.0127634 -0.0217382 0.999682 
0.0146487 -0.0214454 0.999663 
0.0161101 -0.0203862 0.999662 
0.0165288 -0.0178956 0.999703 
0.0173099 -0.0148869 0.999739 
0.0175294 -0.0125142 0.999768 
0.017764 -0.0101661 0.999791 
0.0179241 -0.00776568 0.999809 
0.0180315 -0.00530827 0.999823 
0.0181315 -0.00277662 0.999832 
0.0181745 -0.000180753 0.999835 
0.0181802 0.00251609 0.999832 
0.0180852 0.00532192 0.999822 
0.0179933 0.00848024 0.999802 
0.0177282 0.0119729 0.999771 
0.0174491 0.0160457 0.999719 
0.0169981 0.0206407 0.999642 
0.0165018 0.026204 0.99952 
0.0157635 0.0328578 0.999336 
0.0147852 0.0407637 0.999059 
0.0136163 0.0504329 0.998635 
0.0122715 0.0623783 0.997977 
0.0101372 0.0783326 0.996876 
0.00768705 0.0968533 0.995269 
0.00494829 0.118706 0.992917 
0.00172971 0.146123 0.989265 
-0.00245898 0.179473 0.98376 
-0.00620802 0.220323 0.975407 
-0.01064 0.270427 0.962682 
-0.0145108 0.331667 0.943285 
-0.0185479 0.406142 0.913622 
-0.0216738 0.493653 0.869389 
-0.02291 0.594875 0.803491 
-0.0219817 0.705038 0.708829 
-0.0135984 0.815271 0.578919 
-0.00927786 0.91344 0.406867 
-0.00315468 0.980355 0.197218 
0.000509739 0.999594 0.0285051 
0.00571995 0.980734 -0.195262 
0.00568177 0.966674 -0.255949 
0.0131835 0.887278 -0.461047 
0.017971 0.775183 -0.631482 
0.0211693 0.657785 -0.752908 
0.0224739 0.544813 -0.838256 
0.0210747 0.4464 -0.894585 
0.0178286 0.365946 -0.930465 
0.0133851 0.299741 -0.953927 
0.00931078 0.245294 -0.969404 
0.0045129 0.200423 -0.979699 
0.000574041 0.163903 -0.986476 
-0.00305753 0.13347 -0.991048 
-0.00628553 0.10845 -0.994082 
-0.00905863 0.0878659 -0.996091 
-0.0108904 0.071327 -0.997394 
-0.0129492 0.0575694 -0.998258 
-0.0140283 0.0466009 -0.998815 
-0.0153867 0.0372791 -0.999186 
-0.0160893 0.0296719 -0.99943 
-0.0168135 0.023329 -0.999586 
-0.0173255 0.0180702 -0.999687 
-0.0176764 0.0137861 -0.999749 
-0.0179724 0.0100781 -0.999788 
-0.0181807 0.00678463 -0.999812 
-0.0183298 0.00382586 -0.999825 
-0.0184026 0.00108426 -0.99983 
-0.0184265 -0.00152512 -0.999829 
-0.0184374 -0.00411507 -0.999822 
-0.0182598 -0.0066254 -0.999811 
-0.0181224 -0.00916604 -0.999794 
-0.0178957 -0.0116065 -0.999772 
-0.017594 -0.014005 -0.999747 
-0.0171433 -0.0164966 -0.999717 
-0.0164949 -0.0190875 -0.999682 
-0.0155991 -0.0214035 -0.999649 
-0.0142252 -0.0227408 -0.99964 
-0.012059 -0.0230418 -0.999662 
-0.00934546 -0.0180432 -0.999794 
2.31094e-05 -0.000189479 -1 
8.32189e-05 -0.000233446 1 
0.00894539 -0.0172243 0.999812 
0.0120946 -0.0222218 0.99968 
0.0139092 -0.0220252 0.999661 
0.0152632 -0.0206505 0.99967 
0.0156018 -0.0184457 0.999708 
0.0164834 -0.0156058 0.999742 
0.0166656 -0.0130045 0.999777 
0.0168761 -0.0106372 0.999801 
0.0170681 -0.00824991 0.99982 
0.0172048 -0.00582221 0.999835 
0.0173356 -0.00326868 0.999844 
0.0173854 -0.000638803 0.999849 
0.0174009 0.00211066 0.999846 
0.0172613 0.00498018 0.999839 
0.0172392 0.00813753 0.999818 
0.0168762 0.0117449 0.999789 
0.0165553 0.0158774 0.999737 
0.0159306 0.0208272 0.999656 
0.0154528 0.0263637 0.999533 
0.0145332 0.0330575 0.999348 
0.013373 0.0412667 0.999059 
0.0119691 0.0511131 0.998621 
0.0105255 0.0631511 0.997948 
0.00830276 0.0781194 0.996909 
0.00483901 0.0984854 0.995127 
0.00120243 0.121534 0.992587 
-0.00272544 0.148371 0.988928 
-0.00811148 0.183572 0.982973 
-0.0131897 0.224035 0.974492 
-0.019415 0.274679 0.96134 
-0.0249085 0.334408 0.942099 
-0.031247 0.408335 0.912297 
-0.0363362 0.496438 0.867312 
-0.0383406 0.600457 0.798737 
-0.0363128 0.714143 0.699058 
-0.0211687 0.822636 0.568174 
-0.01503 0.90614 0.422711 
-0.00533236 0.968128 0.250399 
0.00172348 0.999998 0.000426123 
0.00183591 0.983714 -0.17973 
0.0132677 0.925075 -0.379552 
0.0265334 0.862189 -0.505891 
0.0271706 0.787165 -0.616143 
0.0343298 0.667269 -0.744025 
0.0364937 0.556932 -0.829756 
0.0346827 0.45766 -0.88845 
0.0300198 0.375418 -0.926369 
0.023647 0.307435 -0.951275 
0.0180003 0.253987 -0.96704 
0.0115653 0.208493 -0.977955 
0.00627904 0.170849 -0.985277 
0.00147625 0.139171 -0.990267 
-0.00268016 0.112739 -0.993621 
-0.00617636 0.0910804 -0.995824 
-0.00857764 0.0738938 -0.997229 
-0.0111125 0.0590821 -0.998191 
-0.0125522 0.0474683 -0.998794 
-0.014163 0.037724 -0.999188 
-0.0149066 0.0302552 -0.999431 
-0.0157549 0.023958 -0.999589 
-0.0162708 0.0187679 -0.999691 
-0.0167403 0.0142881 -0.999758 
-0.0170676 0.0104011 -0.9998 
-0.0173108 0.00705059 -0.999825 
-0.0174887 0.00401975 -0.999839 
-0.0175658 0.00120686 -0.999845 
-0.0176116 -0.00144831 -0.999844 
-0.0176399 -0.00401379 -0.999836 
-0.0175422 -0.00652329 -0.999825 
-0.0173721 -0.00894142 -0.999809 
-0.0170584 -0.0114221 -0.999789 
-0.0167017 -0.0138399 -0.999765 
-0.0162512 -0.0163028 -0.999735 
-0.0155823 -0.0189474 -0.999699 
-0.014669 -0.0213443 -0.999665 
-0.0134866 -0.0227278 -0.999651 
-0.0113907 -0.0231266 -0.999668 
-0.00872892 -0.0180561 -0.999799 
-4.42302e-05 -0.000212262 -1 
-8.4864e-06 -0.000214043 1 
0.00797069 -0.0172988 0.999819 
0.010728 -0.0228195 0.999682 
0.0122327 -0.0221969 0.999679 
0.0136464 -0.0208457 0.99969 
0.0136014 -0.0186335 0.999734 
0.0148608 -0.0160474 0.999761 
0.0150121 -0.0134536 0.999797 
0.0151105 -0.0109635 0.999826 
0.0153389 -0.00857994 0.999846 
0.0154745 -0.00615296 0.999861 
0.0156538 -0.0036054 0.999871 
0.0156874 -0.000918856 0.999877 
0.0157172 0.00188766 0.999875 
0.0155003 0.00484063 0.999868 
0.0155696 0.00805281 0.999846 
0.0151755 0.0116436 0.999817 
0.0147912 0.0159803 0.999763 
0.0141042 0.0209859 0.99968 
0.0133846 0.027135 0.999542 
0.0124088 0.0343202 0.999334 
0.0110814 0.0429262 0.999017 
0.00953363 0.0538026 0.998506 
0.00765918 0.0669765 0.997725 
0.00505302 0.0837303 0.996476 
0.000817954 0.104983 0.994474 
-0.00371276 0.129411 0.991584 
-0.00870006 0.159173 0.987212 
-0.0158895 0.197489 0.980176 
-0.0227826 0.240261 0.970441 
-0.0315801 0.293204 0.955528 
-0.0400114 0.354221 0.934305 
-0.04998 0.43058 0.901167 
-0.0579154 0.523632 0.849974 
-0.0621191 0.627191 0.776384 
-0.0635595 0.728824 0.681745 
-0.0352338 0.817343 0.575073 
-0.0120476 0.923041 0.384513 
0.000764936 0.979677 0.200581 
0.0107879 0.936569 -0.350317 
0.0386745 0.861076 -0.507003 
0.0527411 0.77204 -0.633382 
0.0526516 0.689201 -0.722655 
0.0573197 0.576782 -0.814885 
0.0534608 0.478704 -0.876347 
0.0461675 0.393829 -0.918024 
0.0365613 0.322587 -0.945833 
0.0280416 0.264404 -0.964004 
0.0193265 0.216031 -0.976195 
0.0121296 0.176086 -0.9843 
0.00587284 0.142292 -0.989807 
0.000894905 0.115108 -0.993353 
-0.00318296 0.0930172 -0.995659 
-0.00583087 0.0756598 -0.997117 
-0.00877473 0.0607494 -0.998114 
-0.0100931 0.0495391 -0.998721 
-0.0120473 0.0395264 -0.999146 
-0.012889 0.0315231 -0.99942 
-0.0137363 0.024651 -0.999602 
-0.0143965 0.019145 -0.999713 
-0.0148829 0.014502 -0.999784 
-0.0152522 0.0105467 -0.999828 
-0.0155483 0.0070863 -0.999854 
-0.0157523 0.00397092 -0.999868 
-0.0158033 0.00113209 -0.999874 
-0.0158844 -0.00160163 -0.999873 
-0.0159696 -0.00417721 -0.999864 
-0.015801 -0.00668252 -0.999853 
-0.0157099 -0.00917035 -0.999835 
-0.0153235 -0.0115847 -0.999815 
-0.0149014 -0.0139045 -0.999792 
-0.0144762 -0.0164125 -0.999761 
-0.0138264 -0.019092 -0.999722 
-0.0129731 -0.0214821 -0.999685 
-0.0119818 -0.0229666 -0.999664 
-0.0100705 -0.0232579 -0.999679 
-0.00792152 -0.0178165 -0.99981 
-2.18432e-05 -0.000200029 -1 
4.95175e-06 -0.000168896 1 
0.00674395 -0.0175536 0.999823 
0.00907355 -0.022897 0.999697 
0.0102738 -0.0225284 0.999693 
0.0115889 -0.0212177 0.999708 
0.0116954 -0.0186721 0.999757 
0.0128133 -0.015698 0.999795 
0.0130381 -0.0130931 0.999829 
0.0131062 -0.0106433 0.999857 
0.0133197 -0.00824588 0.999877 
0.0134845 -0.00572785 0.999893 
0.0136549 -0.00310218 0.999902 
0.0136814 -0.000292329 0.999906 
0.0136317 0.00257177 0.999904 
0.0134822 0.00581872 0.999892 
0.0134061 0.00906315 0.999869 
0.0130896 0.0131071 0.999828 
0.0125491 0.017639 0.999766 
0.0118862 0.0233913 0.999656 
0.0109616 0.0298794 0.999493 
0.00980942 0.037571 0.999246 
0.00840103 0.0473815 0.998842 
0.00646115 0.0585033 0.998266 
0.00498347 0.0700368 0.997532 
0.00194917 0.0874514 0.996167 
-0.00275043 0.109649 0.993967 
-0.00825627 0.137407 0.99048 
-0.0145932 0.170274 0.985289 
-0.0238224 0.210755 0.977249 
-0.0331919 0.256706 0.965919 
-0.0457059 0.312158 0.94893 
-0.0587621 0.377202 0.924265 
-0.0746921 0.46165 0.883912 
-0.090641 0.554811 0.827024 
-0.103683 0.654049 0.749312 
-0.101979 0.760639 0.641115 
-0.0457866 0.843433 0.535279 
0.0924134 0.774155 -0.626214 
0.0963079 0.682543 -0.724472 
0.0868645 0.598312 -0.796541 
0.0792083 0.498626 -0.863191 
0.0662002 0.413858 -0.907931 
0.0513822 0.339602 -0.939165 
0.0385297 0.277824 -0.959859 
0.0267026 0.223959 -0.974233 
0.0171395 0.180518 -0.983422 
0.00981777 0.14569 -0.989282 
0.00420602 0.117936 -0.993012 
-0.00023683 0.0955853 -0.995421 
-0.00291707 0.0785619 -0.996905 
-0.00609146 0.063508 -0.997963 
-0.00782743 0.0509168 -0.998672 
-0.00989223 0.040089 -0.999147 
-0.0107691 0.0316976 -0.999439 
-0.0116753 0.0248644 -0.999623 
-0.01234 0.0191868 -0.99974 
-0.0128138 0.0144515 -0.999813 
-0.0132116 0.0104035 -0.999859 
-0.013518 0.00686542 -0.999885 
-0.0136874 0.00375793 -0.999899 
-0.0137845 0.000804521 -0.999905 
-0.0138256 -0.00192482 -0.999903 
-0.0139184 -0.00450719 -0.999893 
-0.0138229 -0.00712135 -0.999879 
-0.0136622 -0.00952902 -0.999861 
-0.0131819 -0.0118227 -0.999843 
-0.0127942 -0.0141861 -0.999818 
-0.0123696 -0.0166925 -0.999784 
-0.0117658 -0.0194035 -0.999743 
-0.011062 -0.0218275 -0.999701 
-0.0102935 -0.0230759 -0.999681 
-0.00860006 -0.0233568 -0.99969 
-0.00688897 -0.0179196 -0.999816 
-1.57186e-05 -0.000203112 -1 
7.4954e-06 -0.000202245 1 
0.00568159 -0.0178507 0.999825 
0.007686 -0.0230558 0.999705 
0.00869351 -0.0225598 0.999708 
0.00982687 -0.0211687 0.999728 
0.00970456 -0.0188394 0.999775 
0.0108477 -0.0162352 0.999809 
0.0110771 -0.0136074 0.999846 
0.0111768 -0.0111481 0.999875 
0.0113404 -0.00869867 0.999898 
0.0115476 -0.00623307 0.999914 
0.0116922 -0.00357711 0.999925 
0.0117729 -0.000814378 0.99993 
0.0116726 0.00214471 0.99993 
0.0116625 0.0052429 0.999918 
0.0113682 0.0088002 0.999897 
0.011313 0.0124378 0.999859 
0.0107185 0.0170282 0.999798 
0.0102748 0.0225151 0.999694 
0.00923301 0.0292659 0.999529 
0.00806745 0.0369718 0.999284 
0.00684174 0.0463884 0.9989 
0.00475835 0.0579369 0.998309 
0.00261602 0.0719376 0.997406 
0.000336955 0.0865403 0.996248 
-0.00407261 0.107841 0.99416 
-0.00996308 0.136556 0.990582 
-0.0178532 0.172832 0.98479 
-0.0287364 0.218386 0.975439 
-0.0428031 0.272911 0.961087 
-0.0603973 0.335727 0.940021 
-0.080681 0.411665 0.907757 
-0.10875 0.501319 0.858401 
-0.139816 0.601025 0.786906 
-0.169005 0.70257 0.691254 
0.161518 0.706395 -0.689143 
0.142109 0.619374 -0.772128 
0.114455 0.535827 -0.836534 
0.0924529 0.448161 -0.889159 
0.0696816 0.369849 -0.926475 
0.0508544 0.302407 -0.951821 
0.0352508 0.244297 -0.96906 
0.0232041 0.195379 -0.980453 
0.0142404 0.156335 -0.987601 
0.00766425 0.125586 -0.992053 
0.00270756 0.101089 -0.994874 
-0.00107643 0.0803229 -0.996768 
-0.00441333 0.0629878 -0.998005 
-0.00587428 0.051445 -0.998659 
-0.00789894 0.0416413 -0.999101 
-0.00851079 0.0342477 -0.999377 
-0.00955582 0.0272204 -0.999584 
-0.0102797 0.0210698 -0.999725 
-0.0107909 0.0159307 -0.999815 
-0.0112057 0.0115694 -0.99987 
-0.0115378 0.00781359 -0.999903 
-0.0116989 0.00451037 -0.999921 
-0.0118725 0.00149446 -0.999928 
-0.0118783 -0.00139293 -0.999928 
-0.011937 -0.00410159 -0.99992 
-0.0120188 -0.00661066 -0.999906 
-0.0117843 -0.00914803 -0.999889 
-0.0113103 -0.0114667 -0.99987 
-0.0109574 -0.013817 -0.999845 
-0.0105446 -0.0163211 -0.999811 
-0.0100292 -0.0189903 -0.999769 
-0.00939402 -0.0215008 -0.999725 
-0.00877944 -0.0230098 -0.999697 
-0.00732514 -0.0233829 -0.9997 
-0.00583409 -0.0179363 -0.999822 
-1.1538e-05 -0.000204598 -1 
5.22966e-06 -0.000196181 1 
0.00469834 -0.0177094 0.999832 
0.00636269 -0.0231088 0.999713 
0.00716238 -0.0227474 0.999716 
0.00812041 -0.021277 0.999741 
0.00818016 -0.0186261 0.999793 
0.00914828 -0.0158359 0.999833 
0.00938062 -0.0132159 0.999869 
0.00951223 -0.0107171 0.999897 
0.0096384 -0.00824897 0.99992 
0.00985478 -0.00567031 0.999935 
0.00994147 -0.00295914 0.999946 
0.0100048 -9.61764e-05 0.99995 