# vtk DataFile Version 3.0 
Exported using Morpho https://github.com/Morpho-lang/morpho 
ASCII 
DATASET UNSTRUCTURED_GRID 

POINTS 2183 float 
-8.32618 -2.88146 0 
-8.11405 -2.88146 0 
-7.90192 -2.88146 0 
-7.68979 -2.88146 0 
-7.47765 -2.88146 0 
-7.26552 -2.88146 0 
-7.05339 -2.88146 0 
-6.84126 -2.88146 0 
-6.62913 -2.88146 0 
-6.41699 -2.88146 0 
-6.20486 -2.88146 0 
-5.99273 -2.88146 0 
-5.7806 -2.88146 0 
-5.56847 -2.88146 0 
-5.35633 -2.88146 0 
-5.1442 -2.88146 0 
-4.93207 -2.88146 0 
-4.71994 -2.88146 0 
-4.50781 -2.88146 0 
-4.29567 -2.88146 0 
-4.08354 -2.88146 0 
-3.87141 -2.88146 0 
-3.65928 -2.88146 0 
-3.44715 -2.88146 0 
-3.23501 -2.88146 0 
-3.02288 -2.88146 0 
-2.81075 -2.88146 0 
-2.59862 -2.88146 0 
-2.38649 -2.88146 0 
-2.17435 -2.88146 0 
-1.96222 -2.88146 0 
-1.75009 -2.88146 0 
-1.53796 -2.88146 0 
-1.32583 -2.88146 0 
-1.11369 -2.88146 0 
-0.901561 -2.88146 0 
-0.689429 -2.88146 0 
-0.477297 -2.88146 0 
-0.265165 -2.88146 0 
-0.053033 -2.88146 0 
0.159099 -2.88146 0 
0.371231 -2.88146 0 
0.583363 -2.88146 0 
0.795495 -2.88146 0 
1.00763 -2.88146 0 
1.21976 -2.88146 0 
1.43189 -2.88146 0 
1.64402 -2.88146 0 
1.85616 -2.88146 0 
2.06829 -2.88146 0 
2.28042 -2.88146 0 
2.49255 -2.88146 0 
2.70468 -2.88146 0 
2.91682 -2.88146 0 
3.12895 -2.88146 0 
3.34108 -2.88146 0 
3.55321 -2.88146 0 
3.76534 -2.88146 0 
3.97748 -2.88146 0 
4.18961 -2.88146 0 
4.40174 -2.88146 0 
4.61387 -2.88146 0 
4.826 -2.88146 0 
5.03814 -2.88146 0 
5.25027 -2.88146 0 
5.4624 -2.88146 0 
5.67453 -2.88146 0 
5.88666 -2.88146 0 
6.0988 -2.88146 0 
6.31093 -2.88146 0 
6.52306 -2.88146 0 
6.73519 -2.88146 0 
6.94732 -2.88146 0 
7.15946 -2.88146 0 
7.37159 -2.88146 0 
7.58372 -2.88146 0 
7.79585 -2.88146 0 
8.00798 -2.88146 0 
8.22012 -2.88146 0 
8.53831 -2.88146 0 
-8.53831 -2.72675 0 
-8.29451 -2.66117 0 
-8.06862 -2.65926 0 
-7.84048 -2.66248 0 
-7.61284 -2.66385 0 
-7.38488 -2.66498 0 
-7.15806 -2.66761 0 
-6.93243 -2.66997 0 
-6.70549 -2.66824 0 
-6.48541 -2.67499 0 
-6.26008 -2.67275 0 
-6.03741 -2.67092 0 
-5.81865 -2.67343 0 
-5.59403 -2.66984 0 
-5.37714 -2.66807 0 
-5.16237 -2.67117 0 
-4.94374 -2.66921 0 
-4.7281 -2.66846 0 
-4.51284 -2.66755 0 
-4.29896 -2.66738 0 
-4.08555 -2.66841 0 
-3.8723 -2.66869 0 
-3.6575 -2.67122 0 
-3.4445 -2.66991 0 
-3.23104 -2.67053 0 
-3.0168 -2.67167 0 
-2.80397 -2.67172 0 
-2.59141 -2.67259 0 
-2.37974 -2.67264 0 
-2.16704 -2.67456 0 
-1.95512 -2.67614 0 
-1.74425 -2.67569 0 
-1.52789 -2.68105 0 
-1.31799 -2.67714 0 
-1.1009 -2.67944 0 
-0.893116 -2.67117 0 
-0.674902 -2.68155 0 
-0.461647 -2.66857 0 
-0.252517 -2.65497 0 
-0.0309628 -2.66949 0 
0.175954 -2.6594 0 
0.392885 -2.67068 0 
0.611246 -2.67825 0 
0.820875 -2.67416 0 
1.03479 -2.68294 0 
1.24586 -2.6775 0 
1.45336 -2.67439 0 
1.66358 -2.67763 0 
1.87195 -2.67567 0 
2.07488 -2.66628 0 
2.27634 -2.67289 0 
2.48542 -2.67178 0 
2.69268 -2.67284 0 
2.902 -2.67492 0 
3.11659 -2.66628 0 
3.31939 -2.68238 0 
3.54358 -2.66499 0 
3.74707 -2.67595 0 
3.96481 -2.67103 0 
4.17487 -2.66984 0 
4.38545 -2.67091 0 
4.5972 -2.66889 0 
4.8078 -2.67064 0 
5.02121 -2.6688 0 
5.23235 -2.66877 0 
5.44327 -2.67061 0 
5.65619 -2.67062 0 
5.86945 -2.67088 0 
6.08222 -2.67043 0 
6.2949 -2.67125 0 
6.50869 -2.67147 0 
6.72256 -2.67119 0 
6.9381 -2.67092 0 
7.15593 -2.66637 0 
7.37403 -2.66547 0 
7.59272 -2.66319 0 
7.81257 -2.65927 0 
8.03296 -2.65587 0 
8.3039 -2.71972 0 
8.53831 -2.66933 0 
-8.42989 -2.48809 0 
-8.18834 -2.43839 0 
-7.96446 -2.44464 0 
-7.74045 -2.44777 0 
-7.51506 -2.45174 0 
-7.28892 -2.45397 0 
-7.06704 -2.45687 0 
-6.8438 -2.46307 0 
-6.62298 -2.45626 0 
-6.40924 -2.46973 0 
-6.18884 -2.46517 0 
-5.97404 -2.45984 0 
-5.75328 -2.47075 0 
-5.53877 -2.45653 0 
-5.32783 -2.45425 0 
-5.11513 -2.46203 0 
-4.90371 -2.45617 0 
-4.69348 -2.45491 0 
-4.48461 -2.45259 0 
-4.27549 -2.45266 0 
-4.06687 -2.45436 0 
-3.86028 -2.45059 0 
-3.65538 -2.45972 0 
-3.4469 -2.45725 0 
-3.23756 -2.45868 0 
-3.02789 -2.4619 0 
-2.81634 -2.46116 0 
-2.60634 -2.46266 0 
-2.39683 -2.46279 0 
-2.1868 -2.46693 0 
-1.97567 -2.46857 0 
-1.76684 -2.46841 0 
-1.55479 -2.48129 0 
-1.33976 -2.46991 0 
-1.12805 -2.47999 0 
-0.907571 -2.45753 0 
-0.694013 -2.47822 0 
-0.479327 -2.45129 0 
-0.274511 -2.42079 0 
-0.0599363 -2.45879 0 
0.161946 -2.43237 0 
0.374882 -2.46053 0 
0.596728 -2.47611 0 
0.818654 -2.4637 0 
1.03177 -2.48117 0 
1.24346 -2.46906 0 
1.4581 -2.4679 0 
1.66926 -2.47342 0 
1.87762 -2.46247 0 
2.08173 -2.45357 0 
2.29335 -2.4631 0 
2.50007 -2.46072 0 
2.71122 -2.46253 0 
2.92517 -2.47008 0 
3.13368 -2.44759 0 
3.35318 -2.48848 0 
3.56386 -2.44588 0 
3.78168 -2.47551 0 
3.9929 -2.45848 0 
4.20507 -2.45837 0 
4.41564 -2.45936 0 
4.6276 -2.45601 0 
4.84105 -2.46069 0 
5.05242 -2.45533 0 
5.26296 -2.45542 0 
5.47461 -2.45983 0 
5.68798 -2.46054 0 
5.89872 -2.45949 0 
6.10982 -2.45906 0 
6.32167 -2.46115 0 
6.53168 -2.46019 0 
6.74424 -2.46086 0 
6.95744 -2.46029 0 
7.17432 -2.45487 0 
7.39137 -2.4499 0 
7.61048 -2.44558 0 
7.83234 -2.43884 0 
8.09145 -2.48072 0 
8.3136 -2.49761 0 
8.53831 -2.4572 0 
-8.53831 -2.26754 0 
-8.31345 -2.25859 0 
-8.06055 -2.22434 0 
-7.83226 -2.23063 0 
-7.60091 -2.23776 0 
-7.36834 -2.24384 0 
-7.13666 -2.24252 0 
-6.90895 -2.25296 0 
-6.68485 -2.24895 0 
-6.4565 -2.24952 0 
-6.24647 -2.26176 0 
-6.02171 -2.24971 0 
-5.79767 -2.2674 0 
-5.57584 -2.24952 0 
-5.35558 -2.24088 0 
-5.13938 -2.24998 0 
-4.92582 -2.24438 0 
-4.7107 -2.24125 0 
-4.49792 -2.23704 0 
-4.28627 -2.2384 0 
-4.07377 -2.23933 0 
-3.86277 -2.23718 0 
-3.65015 -2.24354 0 
-3.43966 -2.24359 0 
-3.22978 -2.24561 0 
-3.01747 -2.25171 0 
-2.8066 -2.25006 0 
-2.59728 -2.25128 0 
-2.38551 -2.25335 0 
-2.17267 -2.25904 0 
-1.96513 -2.25715 0 
-1.75467 -2.25967 0 
-1.54225 -2.27714 0 
-1.32903 -2.2609 0 
-1.11047 -2.27546 0 
-0.897212 -2.23833 0 
-0.686288 -2.26697 0 
-0.479143 -2.21689 0 
-0.264782 -2.18045 0 
-0.0530561 -2.23665 0 
0.164478 -2.20239 0 
0.383569 -2.2388 0 
0.599577 -2.26943 0 
0.813774 -2.24694 0 
1.0298 -2.27251 0 
1.23874 -2.25407 0 
1.44936 -2.26339 0 
1.66821 -2.26603 0 
1.87624 -2.25076 0 
2.09098 -2.24615 0 
2.29805 -2.25146 0 
2.509 -2.25001 0 
2.72223 -2.25662 0 
2.93234 -2.25833 0 
3.13912 -2.23012 0 
3.34583 -2.28602 0 
3.53821 -2.21813 0 
3.74072 -2.26833 0 
3.9509 -2.25126 0 
4.16646 -2.24855 0 
4.38008 -2.24558 0 
4.5889 -2.24537 0 
4.80452 -2.24967 0 
5.01661 -2.24359 0 
5.22969 -2.24178 0 
5.44167 -2.24705 0 
5.65339 -2.25156 0 
5.86817 -2.24724 0 
6.07929 -2.24794 0 
6.29264 -2.25069 0 
6.50549 -2.24708 0 
6.71638 -2.25032 0 
6.93148 -2.24825 0 
7.14637 -2.24605 0 
7.36816 -2.23796 0 
7.59253 -2.23152 0 
7.81955 -2.22482 0 
8.05566 -2.28201 0 
8.30633 -2.27198 0 
8.53831 -2.24506 0 
-8.42551 -2.03922 0 
-8.19925 -2.04204 0 
-7.95815 -2.00854 0 
-7.73232 -2.01994 0 
-7.50404 -2.02948 0 
-7.27821 -2.03335 0 
-7.0494 -2.03454 0 
-6.834 -2.0383 0 
-6.60945 -2.04303 0 
-6.39912 -2.02733 0 
-6.18789 -2.054 0 
-5.99244 -2.01038 0 
-5.80497 -2.06383 0 
-5.60235 -2.02994 0 
-5.3929 -2.0365 0 
-5.1677 -2.03965 0 
-4.95195 -2.03273 0 
-4.73761 -2.03153 0 
-4.52118 -2.02512 0 
-4.30663 -2.02432 0 
-4.09405 -2.02761 0 
-3.88054 -2.02417 0 
-3.66856 -2.03371 0 
-3.45472 -2.03023 0 
-3.24447 -2.03183 0 
-3.03511 -2.04133 0 
-2.82328 -2.03962 0 
-2.61207 -2.03908 0 
-2.40259 -2.04478 0 
-2.18834 -2.05113 0 
-1.97357 -2.04138 0 
-1.76717 -2.04605 0 
-1.55522 -2.06796 0 
-1.34658 -2.0419 0 
-1.13618 -2.06337 0 
-0.922781 -2.02048 0 
-0.695523 -2.04101 0 
-0.473571 -1.98246 0 
-0.257923 -1.92432 0 
-0.0482846 -1.99825 0 
0.155512 -1.9425 0 
0.365485 -2.00736 0 
0.588904 -2.04596 0 
0.790832 -2.01079 0 
1.00399 -2.05506 0 
1.21639 -2.03462 0 
1.42854 -2.0479 0 
1.64076 -2.06429 0 
1.85561 -2.0401 0 
2.06917 -2.04129 0 
2.28491 -2.03725 0 
2.49333 -2.04001 0 
2.70441 -2.04762 0 
2.91669 -2.04721 0 
3.11399 -2.00572 0 
3.32226 -2.06858 0 
3.53841 -2.01054 0 
3.75815 -2.05499 0 
3.97742 -2.04465 0 
4.19345 -2.03945 0 
4.40203 -2.02928 0 
4.62 -2.03853 0 
4.83158 -2.03623 0 
5.04624 -2.03205 0 
5.26044 -2.03015 0 
5.47212 -2.03508 0 
5.6862 -2.04267 0 
5.89827 -2.03456 0 
6.11249 -2.03894 0 
6.3247 -2.03981 0 
6.53544 -2.03371 0 
6.74874 -2.04003 0 
6.96178 -2.03463 0 
7.18046 -2.0359 0 
7.40475 -2.0269 0 
7.63167 -2.01829 0 
7.85936 -2.01131 0 
8.07984 -2.07754 0 
8.30199 -2.04766 0 
8.53831 -2.03293 0 
-8.53831 -1.82884 0 
-8.30227 -1.82198 0 
-8.07169 -1.81936 0 
-7.81958 -1.79981 0 
-7.58657 -1.81465 0 
-7.35432 -1.81917 0 
-7.12258 -1.82706 0 
-6.89223 -1.81648 0 
-6.67296 -1.83526 0 
-6.45301 -1.80997 0 
-6.23225 -1.83034 0 
-6.00711 -1.80689 0 
-5.77961 -1.83227 0 
-5.56787 -1.81249 0 
-5.34698 -1.83497 0 
-5.13322 -1.82727 0 
-4.92004 -1.81994 0 
-4.70589 -1.8209 0 
-4.49098 -1.81372 0 
-4.2784 -1.81176 0 
-4.06641 -1.81603 0 
-3.85433 -1.81279 0 
-3.64391 -1.82349 0 
-3.4342 -1.81696 0 
-3.226 -1.81854 0 
-3.01633 -1.83069 0 
-2.80661 -1.8286 0 
-2.59836 -1.82646 0 
-2.39251 -1.82704 0 
-2.19056 -1.84298 0 
-1.98688 -1.82499 0 
-1.77329 -1.82308 0 
-1.56723 -1.85131 0 
-1.3513 -1.82612 0 
-1.12673 -1.83701 0 
-0.881284 -1.8087 0 
-0.660871 -1.80715 0 
-0.430568 -1.72551 0 
-0.234703 -1.60787 0 
-0.0601103 -1.7326 0 
0.101163 -1.6226 0 
0.30599 -1.7391 0 
0.530248 -1.81299 0 
0.746786 -1.77125 0 
0.974919 -1.82966 0 
1.19816 -1.81205 0 
1.42051 -1.83045 0 
1.63993 -1.85412 0 
1.86176 -1.83203 0 
2.07999 -1.83493 0 
2.28837 -1.8214 0 
2.49559 -1.82598 0 
2.70449 -1.8376 0 
2.9091 -1.82811 0 
3.11738 -1.78936 0 
3.32797 -1.863 0 
3.52209 -1.78182 0 
3.72416 -1.84674 0 
3.93801 -1.84275 0 
4.1584 -1.83268 0 
4.3718 -1.81353 0 
4.58312 -1.83043 0 
4.79873 -1.82224 0 
5.00952 -1.8221 0 
5.22454 -1.81957 0 
5.43948 -1.82072 0 
5.6511 -1.83148 0 
5.86227 -1.82423 0 
6.07717 -1.82959 0 
6.2918 -1.82899 0 
6.50367 -1.8217 0 
6.71776 -1.82824 0 
6.93139 -1.82198 0 
7.14843 -1.82544 0 
7.36998 -1.82035 0 
7.60033 -1.80954 0 
7.83268 -1.79491 0 
8.06714 -1.84748 0 
8.29696 -1.82726 0 
8.53831 -1.8208 0 
-8.53831 -1.61373 0 
-8.30355 -1.60493 0 
[...]
POINT_DATA 2183 
VECTORS vectors float
-9.42183e-05 -0.000945959 1 
3.58318e-05 -0.0189427 0.999821 
-0.000113203 -0.0233733 0.999727 
-5.38625e-05 -0.0230347 0.999735 
-7.55183e-05 -0.0210447 0.999779 
-6.64954e-05 -0.0187605 0.999824 
-7.00208e-05 -0.0164552 0.999865 
-6.89544e-05 -0.0140153 0.999902 
-6.9828e-05 -0.0114252 0.999935 
-6.88839e-05 -0.00878812 0.999961 
-6.97416e-05 -0.00622184 0.999981 
-6.96844e-05 -0.00378397 0.999993 
-6.90986e-05 -0.00146496 0.999999 
-6.98569e-05 0.000810977 1 
-6.97141e-05 0.00315179 0.999995 
-6.87944e-05 0.00566446 0.999984 
-6.98426e-05 0.00848279 0.999964 
-6.85866e-05 0.0117589 0.999931 
-6.86662e-05 0.0156621 0.999877 
-6.85944e-05 0.0203917 0.999792 
-6.67981e-05 0.0261968 0.999657 
-6.81751e-05 0.033409 0.999442 
-6.48838e-05 0.0421861 0.99911 
-6.5756e-05 0.0531439 0.998587 
-6.33375e-05 0.0667732 0.997768 
-6.18272e-05 0.0837258 0.996489 
-5.98306e-05 0.104818 0.994491 
-5.67787e-05 0.131016 0.99138 
-5.37179e-05 0.163498 0.986544 
-4.95032e-05 0.203618 0.97905 
-4.40537e-05 0.252941 0.967482 
-3.86314e-05 0.313094 0.949722 
-3.10632e-05 0.385428 0.922738 
-2.32578e-05 0.47079 0.882246 
-1.57365e-05 0.568429 0.822732 
-8.03863e-06 0.675519 0.737343 
-3.58209e-06 0.784583 0.620024 
4.43135e-07 0.884064 0.467366 
2.62612e-08 0.959702 0.281021 
1.37052e-07 0.997512 0.0704934 
-1.05545e-06 0.989241 -0.146293 
-5.85257e-07 0.93675 -0.35 
3.07353e-07 0.850842 -0.525422 
4.39928e-06 0.746492 -0.665394 
9.95601e-06 0.637559 -0.770401 
1.84188e-05 0.533358 -0.84589 
2.60421e-05 0.439801 -0.898095 
3.30637e-05 0.359097 -0.9333 
4.03893e-05 0.291084 -0.956697 
4.7387e-05 0.234322 -0.972159 
4.90444e-05 0.188791 -0.982017 
5.57623e-05 0.151594 -0.988443 
5.89108e-05 0.121428 -0.9926 
5.74761e-05 0.0970801 -0.995277 
6.76187e-05 0.0775149 -0.996991 
5.76256e-05 0.061717 -0.998094 
7.19254e-05 0.0490789 -0.998795 
6.13537e-05 0.0388433 -0.999245 
7.03335e-05 0.0306218 -0.999531 
6.67348e-05 0.0239594 -0.999713 
6.83728e-05 0.0185407 -0.999828 
6.94238e-05 0.0140996 -0.999901 
6.84282e-05 0.0104065 -0.999946 
6.98079e-05 0.00727558 -0.999974 
6.93676e-05 0.00453834 -0.99999 
6.93977e-05 0.00205739 -0.999998 
6.98595e-05 -0.000294557 -1 
6.93638e-05 -0.00263555 -0.999997 
6.97038e-05 -0.00506414 -0.999987 
6.94589e-05 -0.00764176 -0.999971 
6.9203e-05 -0.0103674 -0.999946 
6.98962e-05 -0.0131611 -0.999913 
6.80557e-05 -0.0159037 -0.999874 
7.22238e-05 -0.0185475 -0.999828 
6.01088e-05 -0.0210499 -0.999778 
9.01633e-05 -0.0236565 -0.99972 
3.02654e-05 -0.0259969 -0.999662 
0.000108996 -0.026461 -0.99965 
7.12675e-05 -0.0233423 -0.999728 
5.22006e-06 -0.00175473 -0.999998 
-4.76901e-05 0.000174819 1 
0.00899485 -0.0151612 0.999845 
0.0119949 -0.0212537 0.999702 
0.0129686 -0.0228781 0.999654 
0.0136269 -0.0220087 0.999665 
0.0140208 -0.0197833 0.999706 
0.0142432 -0.0172787 0.999749 
0.0143647 -0.0147546 0.999788 
0.014666 -0.0121114 0.999819 
0.0145393 -0.00949288 0.999849 
0.0147228 -0.00682691 0.999868 
0.0149257 -0.00428128 0.999879 
0.0148353 -0.0018767 0.999888 
0.0150023 0.000544362 0.999887 
0.0151437 0.00293991 0.999881 
0.0149548 0.0054824 0.999873 
0.0149837 0.00838439 0.999853 
0.0149313 0.0117136 0.99982 
0.0148544 0.015677 0.999767 
0.0147275 0.0204495 0.999682 
0.0145071 0.0262788 0.999549 
0.0142361 0.0334226 0.99934 
0.0139281 0.0425044 0.998999 
0.0136767 0.0536061 0.998468 
0.013236 0.0674361 0.997636 
0.0127194 0.0847237 0.996323 
0.012167 0.106121 0.994279 
0.0114692 0.13267 0.991094 
0.0106941 0.165442 0.986161 
0.00973863 0.206092 0.978484 
0.0086868 0.255845 0.966679 
0.00755898 0.316154 0.948678 
0.00619555 0.390591 0.920544 
0.00502877 0.475555 0.879671 
0.00370774 0.575894 0.817516 
0.00274794 0.680923 0.73235 
0.00175294 0.792884 0.60937 
0.00126287 0.890976 0.454049 
0.00104857 0.963259 0.268574 
0.000919857 0.998889 0.0471251 
0.000874359 0.986496 -0.163786 
0.000597939 0.929223 -0.369519 
-1.40721e-05 0.838031 -0.545623 
-0.00101501 0.733862 -0.679298 
-0.00223215 0.624907 -0.780696 
-0.00366407 0.522133 -0.852856 
-0.00512157 0.432125 -0.901799 
-0.00646923 0.353509 -0.935409 
-0.00780371 0.287745 -0.957675 
-0.00925838 0.234677 -0.972029 
-0.00999588 0.190665 -0.981604 
-0.0109527 0.153525 -0.988084 
-0.0117046 0.123616 -0.992261 
-0.0121922 0.0991514 -0.994998 
-0.0132144 0.0789856 -0.996788 
-0.0128772 0.0635324 -0.997897 
-0.0140732 0.0499074 -0.998655 
-0.0139006 0.0398823 -0.999108 
-0.0143823 0.0312736 -0.999407 
-0.0146679 0.0245503 -0.999591 
-0.0147544 0.0190593 -0.999709 
-0.014989 0.0145328 -0.999782 
-0.014982 0.0107869 -0.99983 
-0.0151387 0.00757499 -0.999857 
-0.0152145 0.00480439 -0.999873 
-0.0151617 0.0023018 -0.999882 
-0.0151676 -8.18254e-05 -0.999885 
-0.0151376 -0.0024413 -0.999882 
-0.015125 -0.00485795 -0.999874 
-0.0150123 -0.00738526 -0.99986 
-0.0149016 -0.0100358 -0.999839 
-0.0147714 -0.0127433 -0.99981 
-0.0145328 -0.015444 -0.999775 
-0.0143986 -0.0180848 -0.999733 
-0.0140556 -0.0207532 -0.999686 
-0.013566 -0.023288 -0.999637 
-0.0129095 -0.0250832 -0.999602 
-0.0114462 -0.0251846 -0.999617 
-0.00611517 -0.0188261 -0.999804 
0.000239175 0.000181321 -1 
0.00685734 -0.0102343 0.999924 
0.0131947 -0.0214352 0.999683 
0.015487 -0.022833 0.999619 
0.0169606 -0.0228742 0.999594 
0.01787 -0.0211701 0.999616 
0.0184264 -0.0185991 0.999657 
0.0188148 -0.016044 0.999694 
0.0191053 -0.0135282 0.999726 
0.0193701 -0.0109874 0.999752 
0.0195127 -0.00852398 0.999773 
0.019694 -0.00599863 0.999788 
0.0198215 -0.00359165 0.999797 
0.0198686 -0.00117847 0.999802 
0.0199349 0.00115726 0.999801 
0.0199362 0.00353686 0.999795 
0.0198608 0.00613071 0.999784 
0.0197924 0.00904256 0.999763 
0.0196666 0.0124089 0.99973 
0.0194974 0.0163901 0.999676 
0.0192786 0.021204 0.999589 
0.0190121 0.0270719 0.999453 
0.0187314 0.0342533 0.999238 
0.0183195 0.0429415 0.99891 
0.0178152 0.0537867 0.998394 
0.0172356 0.0673314 0.997582 
0.0165616 0.0841577 0.996315 
0.0157715 0.105252 0.994321 
0.0148637 0.1312 0.991244 
0.0138341 0.163199 0.986496 
0.0126737 0.202703 0.979158 
0.011376 0.251379 0.967822 
0.00997674 0.309755 0.950764 
0.00854316 0.381911 0.92416 
0.00704239 0.46687 0.884298 
0.00559557 0.56324 0.826274 
0.0044317 0.673142 0.7395 
0.00338789 0.782987 0.622029 
0.00282143 0.883689 0.468067 
0.00249661 0.957296 0.289098 
0.00188811 0.996991 0.0774919 
0.00157409 0.988882 -0.148693 
0.000878776 0.935893 -0.352283 
-9.64616e-05 0.845935 -0.533286 
-0.00142979 0.735542 -0.677478 
-0.00301979 0.626516 -0.779403 
-0.00470412 0.523634 -0.85193 
-0.00654051 0.43123 -0.902218 
-0.0083433 0.353033 -0.935574 
-0.0099693 0.287309 -0.957786 
-0.0114503 0.233879 -0.972198 
-0.0128327 0.188228 -0.982042 
-0.0140192 0.15196 -0.988287 
-0.0150879 0.121898 -0.992428 
-0.0160035 0.0972966 -0.995127 
-0.0167623 0.0779496 -0.996816 
-0.0174576 0.0616722 -0.997944 
-0.0180375 0.0490843 -0.998632 
-0.0184861 0.0386341 -0.999082 
-0.0189146 0.0305069 -0.999356 
-0.0192184 0.0238726 -0.99953 
-0.0194585 0.0185077 -0.999639 
-0.0196643 0.0140691 -0.999708 
-0.0198001 0.0103428 -0.99975 
-0.0199328 0.00720914 -0.999775 
-0.0200079 0.00447156 -0.99979 
-0.0200322 0.00196699 -0.999797 
-0.0200355 -0.000430905 -0.999799 
-0.0200022 -0.0027795 -0.999796 
-0.0199233 -0.00518502 -0.999788 
-0.0197886 -0.00767979 -0.999775 
-0.0196168 -0.0102194 -0.999755 
-0.0193848 -0.0128257 -0.99973 
-0.0190754 -0.0154329 -0.999699 
-0.0186545 -0.0180734 -0.999663 
-0.0180783 -0.0207923 -0.99962 
-0.0172085 -0.0232949 -0.999581 
-0.0158646 -0.0247454 -0.999568 
-0.0135024 -0.0247717 -0.999602 
-0.00980861 -0.0187488 -0.999776 
-0.000333086 -0.00025551 -1 
-0.000206568 -3.95244e-05 1 
0.0101292 -0.0190339 0.999768 
0.0139526 -0.0232637 0.999632 
0.0160587 -0.0236306 0.999592 
0.0173841 -0.0222524 0.999601 
0.0182144 -0.0195725 0.999643 
0.0187854 -0.016755 0.999683 
0.019242 -0.0141584 0.999715 
0.019582 -0.0116264 0.999741 
0.0198627 -0.00905052 0.999762 
0.0200899 -0.0066783 0.999776 
0.0201802 -0.00414972 0.999788 
0.0203898 -0.00168231 0.999791 
0.0203573 0.000750998 0.999792 
0.0203855 0.00324398 0.999787 
0.0203507 0.00587805 0.999776 
0.0202511 0.00880463 0.999756 
0.0200968 0.0122289 0.999723 
0.0198888 0.016265 0.99967 
0.0196373 0.0211171 0.999584 
0.0193316 0.0270747 0.999446 
0.0189505 0.0343583 0.99923 
0.0184678 0.0433596 0.998889 
0.0179502 0.054555 0.998349 
0.0173292 0.0683362 0.997512 
0.0166035 0.085609 0.99619 
0.0157583 0.106934 0.994141 
0.0148148 0.133142 0.990986 
0.0137568 0.165907 0.986045 
0.0126129 0.206594 0.978345 
0.0114035 0.255125 0.966841 
0.0101685 0.315182 0.948977 
0.00883305 0.386927 0.922068 
0.00757625 0.471798 0.881674 
0.00637633 0.573014 0.819521 
0.00558475 0.679172 0.733958 
0.00467774 0.78661 0.617432 
0.00428468 0.883479 0.468451 
0.00377383 0.959798 0.280665 
0.00278202 0.997446 0.0713757 
0.00197913 0.988708 -0.149839 
0.000867081 0.933403 -0.358829 
-0.000332537 0.844834 -0.535029 
-0.00167314 0.739317 -0.673355 
-0.00317008 0.628089 -0.778135 
-0.00483486 0.528057 -0.849195 
-0.0065029 0.436147 -0.899852 
-0.00824795 0.353796 -0.935286 
-0.0098413 0.288636 -0.957388 
-0.0113713 0.232546 -0.972519 
-0.0127294 0.188152 -0.982057 
-0.0139783 0.151352 -0.988381 
-0.0151232 0.121224 -0.99251 
-0.0161127 0.0973178 -0.995123 
-0.0168464 0.078137 -0.9968 
-0.0176669 0.0625125 -0.997888 
-0.0181434 0.0509261 -0.998538 
-0.018775 0.0407966 -0.998991 
-0.019165 0.0322713 -0.999295 
-0.0195228 0.0252089 -0.999492 
-0.0198088 0.0195312 -0.999613 
-0.0200492 0.014967 -0.999687 
-0.0202355 0.0110526 -0.999734 
-0.020369 0.00779616 -0.999762 
-0.0204638 0.00494296 -0.999778 
-0.0205244 0.00237575 -0.999787 
-0.0205395 -4.19188e-05 -0.999789 
-0.0204911 -0.00245548 -0.999787 
-0.0204013 -0.00486218 -0.99978 
-0.0202461 -0.00734779 -0.999768 
-0.0200243 -0.0098663 -0.999751 
-0.0197457 -0.012385 -0.999728 
-0.0193594 -0.0149733 -0.9997 
-0.0188477 -0.0175983 -0.999667 
-0.0181089 -0.0204421 -0.999627 
-0.0170956 -0.0231334 -0.999586 
-0.0156184 -0.0246671 -0.999574 
-0.0135279 -0.024702 -0.999603 
-0.00975338 -0.0190966 -0.99977 
1.21302e-05 -0.000162448 -1 
0.00666588 -0.012021 0.999906 
0.0114588 -0.0232047 0.999665 
0.0139532 -0.0242191 0.999609 
0.0156222 -0.0236476 0.999598 
0.0167189 -0.0214261 0.999631 
0.0174455 -0.0185067 0.999677 
0.0180071 -0.0157352 0.999714 
0.01845 -0.0132908 0.999741 
0.01885 -0.0107889 0.999764 
0.0190079 -0.00845155 0.999784 
0.0194499 -0.00608459 0.999792 
0.0192477 -0.00388746 0.999807 
0.0197261 -0.00178669 0.999804 
0.0195646 0.000456381 0.999808 
0.0195788 0.00283509 0.999804 
0.0195331 0.00557358 0.999794 
0.019385 0.00851199 0.999776 
0.0192205 0.0118874 0.999745 
0.0189601 0.0159414 0.999693 
0.0186874 0.0207991 0.999609 
0.0183886 0.026676 0.999475 
0.0179707 0.0339497 0.999262 
0.0175671 0.0428537 0.998927 
0.016993 0.0540507 0.998394 
0.0163791 0.0676932 0.997572 
0.0157333 0.0844967 0.9963 
0.0149056 0.105605 0.994296 
0.0139988 0.131666 0.991195 
0.0130517 0.163468 0.986462 
0.0120897 0.204156 0.978864 
0.0109347 0.25318 0.967358 
0.00997282 0.311303 0.950258 
0.00898907 0.382486 0.923917 
0.00806647 0.464987 0.885281 
0.00725921 0.5603 0.828258 
0.00674802 0.666451 0.745518 
0.00596279 0.781354 0.62406 
0.00559105 0.885445 0.46471 
0.00497169 0.961361 0.275246 
0.00351391 0.9977 0.0676875 
0.00227354 0.990231 -0.139417 
0.000874355 0.939935 -0.341353 
-0.000542918 0.850036 -0.526725 
-0.00197118 0.752406 -0.658697 
-0.00325422 0.643008 -0.765853 
-0.00476572 0.539369 -0.842056 
-0.00625451 0.445818 -0.895102 
-0.00777673 0.365262 -0.930872 
-0.00915282 0.295906 -0.955173 
-0.0105294 0.238789 -0.971014 
-0.0117837 0.191473 -0.981427 
-0.0129961 0.154633 -0.987887 
-0.0141469 0.124316 -0.992142 
-0.0150568 0.0992727 -0.994946 
-0.0155784 0.0807962 -0.996609 
-0.0167735 0.0645996 -0.99777 
-0.0170203 0.0513302 -0.998537 
-0.0178797 0.0402688 -0.999029 
-0.0183092 0.0315753 -0.999334 
-0.0186559 0.024646 -0.999522 
-0.0188713 0.0192002 -0.999638 
-0.0191937 0.0145045 -0.999711 
-0.0193641 0.0107252 -0.999755 
-0.0194786 0.00746106 -0.999782 
-0.0195635 0.00460921 -0.999798 
-0.0196472 0.00204491 -0.999805 
-0.0196994 -0.000416329 -0.999806 
-0.0195798 -0.00282853 -0.999804 
-0.0195044 -0.00529584 -0.999796 
-0.0193214 -0.00776944 -0.999783 
-0.0190254 -0.0102365 -0.999767 
-0.0187415 -0.0127386 -0.999743 
-0.0182707 -0.0152747 -0.999716 
-0.0177186 -0.0179659 -0.999682 
-0.0168987 -0.0208936 -0.999639 
-0.0158244 -0.0236038 -0.999596 
-0.0143485 -0.0249643 -0.999585 
-0.0126174 -0.0246549 -0.999616 
-0.00934192 -0.0191885 -0.999772 
-2.64722e-05 -0.000188354 -1 
-0.000236858 1.40442e-05 1 
0.00851452 -0.0197483 0.999769 
0.0114479 -0.0242899 0.999639 
0.0131072 -0.0243514 0.999618 
0.0143911 -0.0225872 0.999641 
0.0151811 -0.0195883 0.999693 
0.0158628 -0.016669 0.999735 
0.0161944 -0.0139774 0.999771 
0.0168253 -0.0115709 0.999791 
0.0168079 -0.00912157 0.999817 
0.0172918 -0.00665335 0.999828 
0.0172386 -0.00411015 0.999843 
0.0175759 -0.00153842 0.999844 
0.0174532 0.000844265 0.999847 
0.0176857 0.00340734 0.999838 
0.0175394 0.00608614 0.999828 
0.0173528 0.0090842 0.999808 
0.0172019 0.0125725 0.999773 
0.0169093 0.0167421 0.999717 
0.0166183 0.021726 0.999626 
0.0163366 0.0277872 0.99948 
0.0159134 0.0352534 0.999252 
0.0155647 0.0443792 0.998894 
0.0149756 0.0556581 0.998338 
0.0144018 0.0694919 0.997479 
0.0138479 0.0866958 0.996139 
0.0130956 0.108026 0.994062 
0.0123027 0.134215 0.990876 
0.011529 0.16619 0.986026 
0.0108366 0.204024 0.978906 
0.00996833 0.250789 0.967991 
0.0092018 0.309292 0.950923 
0.00872678 0.378177 0.925692 
0.00823577 0.463273 0.886177 
0.00779861 0.563833 0.825852 
0.00762374 0.686488 0.727101 
0.00722439 0.798267 0.60226 
0.00695632 0.902335 0.43098 
0.00628527 0.966762 0.255601 
0.00426674 0.996682 0.0812839 
0.0026633 0.996557 -0.0828697 
0.000790406 0.958408 -0.2854 
-0.00076984 0.877325 -0.479897 
-0.00244465 0.774468 -0.632609 
-0.00360972 0.659222 -0.75194 
-0.00488652 0.548726 -0.835988 
-0.0060075 0.449413 -0.893304 
-0.00722974 0.365846 -0.930647 
-0.0083473 0.294735 -0.955543 
-0.00948416 0.237064 -0.971448 
-0.0104487 0.19217 -0.981306 
-0.0114362 0.155067 -0.987838 
-0.0124383 0.124602 -0.992129 
-0.0132187 0.100772 -0.994822 
-0.0136387 0.0810776 -0.996614 
-0.0150437 0.0646534 -0.997794 
-0.0148086 0.0526756 -0.998502 
-0.015991 0.0422613 -0.998979 
-0.016379 0.0333181 -0.999311 
-0.0166566 0.0259293 -0.999525 
-0.016757 0.0201362 -0.999657 
-0.0171878 0.0154012 -0.999734 
-0.0173047 0.0114063 -0.999785 
-0.0174519 0.00808359 -0.999815 
-0.0175292 0.00512965 -0.999833 
-0.0175953 0.00246076 -0.999842 
-0.0177107 -1.83757e-05 -0.999843 
-0.0175591 -0.00244828 -0.999843 
-0.0175544 -0.00495575 -0.999834 
-0.0173163 -0.0074547 -0.999822 
-0.0170063 -0.00993382 -0.999806 
-0.0167454 -0.0124104 -0.999783 
-0.0162614 -0.014921 -0.999756 
-0.0157696 -0.0175588 -0.999721 
-0.0150486 -0.020451 -0.999678 
-0.0140723 -0.0233701 -0.999628 
-0.0127339 -0.0249887 -0.999607 
-0.011296 -0.0248019 -0.999629 
-0.00840531 -0.0195709 -0.999773 
-2.49073e-06 -0.00018158 -1 
9.11649e-05 -0.000290742 1 
0.00723936 -0.0192091 0.999789 
0.00990148 -0.0246848 0.999646 
0.0111421 -0.0245626 0.999636 
0.0122078 -0.0225889 0.99967 
0.0129649 -0.0195477 0.999725 
0.0136684 -0.0166706 0.999768 
0.0140051 -0.0139735 0.999804 
0.0145323 -0.0114236 0.999829 
0.0145619 -0.00897019 0.999854 
0.015091 -0.00655048 0.999865 
0.0148096 -0.00424682 0.999881 
0.0154241 -0.00193395 0.999879 
0.0151746 0.000511433 0.999885 
0.0154534 0.00303223 0.999876 
0.0152987 0.0057132 0.999867 
0.0151336 0.00864609 0.999848 
0.0150053 0.0120534 0.999815 
0.0147706 0.0160709 0.999762 
0.0144765 0.0209923 0.999675 
0.0142042 0.0269435 0.999536 
0.0138401 0.0341483 0.999321 
0.0134911 0.0431945 0.998976 
0.0129971 0.0540312 0.998455 
0.0124514 0.0677252 0.997626 
0.0119831 0.084572 0.996345 
0.0113496 0.105364 0.994369 
0.0106628 0.131234 0.991294 
0.0100075 0.163209 0.986541 
0.00940565 0.202756 0.979184 
0.00884611 0.254085 0.967142 
0.00844726 0.314743 0.949139 
0.00829308 0.386401 0.922293 
0.00833317 0.480338 0.877044 
0.00841191 0.594615 0.803967 
0.00888966 0.713968 0.700122 
0.00881829 0.827154 0.561906 
0.00886909 0.917905 0.396701 
0.0086719 0.965573 0.259987 
0.00533431 0.993783 0.111203 
0.00154869 0.99459 -0.103865 
-0.000474417 0.958238 -0.285972 
-0.00196911 0.883319 -0.468768 
-0.00387639 0.770765 -0.637108 
-0.00459623 0.652963 -0.757376 
-0.00549887 0.536558 -0.843846 
-0.00613594 0.441505 -0.897238 
-0.00688912 0.357007 -0.934076 
-0.00764465 0.287266 -0.95782 
-0.00839489 0.233685 -0.972276 
-0.00911092 0.1892 -0.981896 
-0.00994944 0.152553 -0.988245 
-0.0107714 0.123084 -0.992338 
-0.0114153 0.0997183 -0.99495 
-0.0115079 0.0815949 -0.996599 
-0.012907 0.0665123 -0.997702 
-0.0128732 0.0521022 -0.998559 
-0.0139164 0.041132 -0.999057 
-0.0143421 0.0322487 -0.999377 
-0.0144718 0.0253623 -0.999574 
-0.0145631 0.0195914 -0.999702 
-0.0150003 0.0149764 -0.999775 
-0.0150503 0.011119 -0.999825 
-0.01523 0.00777727 -0.999854 
-0.0153025 0.00483254 -0.999871 
-0.0153421 0.00218763 -0.99988 
-0.0154507 -0.000268112 -0.999881 
-0.0152333 -0.00265578 -0.99988 
-0.0153139 -0.00502672 -0.99987 
-0.015058 -0.00745491 -0.999859 
-0.0147927 -0.00985294 -0.999842 
-0.014536 -0.0122998 -0.999819 
-0.0140462 -0.0147883 -0.999792 
-0.0135804 -0.017389 -0.999757 
-0.0129263 -0.0202379 -0.999712 
-0.0121077 -0.0231541 -0.999659 
-0.0109154 -0.0249449 -0.999629 
-0.00973792 -0.0249368 -0.999642 
-0.00720178 -0.0196952 -0.99978 
3.35353e-06 -0.00018261 -1 
-2.95481e-06 -0.000169064 1 
0.00616386 -0.0195688 0.99979 
0.00832742 -0.0247497 0.999659 
0.00941813 -0.0247073 0.99965 
0.0103203 -0.0226243 0.999691 
0.0109841 -0.0197177 0.999745 
0.0116339 -0.0168207 0.999791 
0.0118803 -0.0142702 0.999828 
0.0124598 -0.0118125 0.999853 
0.012479 -0.00942549 0.999878 
0.0128916 -0.00686714 0.999893 
0.0128565 -0.00422253 0.999908 
0.0132605 -0.00156892 0.999911 
0.0131511 0.00106259 0.999913 
0.0133505 0.00359155 0.999904 
0.0131627 0.00633703 0.999893 
0.0130463 0.00945519 0.99987 
0.0128973 0.0130271 0.999832 
0.0127052 0.0173654 0.999768 
0.0124224 0.0226491 0.999666 
0.0121156 0.0289107 0.999509 
0.0118252 0.0368093 0.999252 
0.0114215 0.0461711 0.998868 
0.0110127 0.0579045 0.998261 
0.0105339 0.0726838 0.997299 
0.0100896 0.0903562 0.995858 
0.00954214 0.112353 0.993622 
0.00898648 0.139881 0.990128 
0.00849981 0.173994 0.98471 
0.00812608 0.217635 0.975996 
0.00779645 0.269691 0.962915 
0.00778375 0.335114 0.942146 
0.00811113 0.411631 0.911315 
0.00860723 0.486924 0.873402 
0.00919119 0.569671 0.821822 
0.0103333 0.687997 0.72564 
0.0110131 0.813859 0.580959 
0.0112029 0.963044 0.26911 
0.00149244 0.99995 -0.00988894 
0.0145684 0.95367 0.300501 
0.00369274 0.999602 0.0279656 
-0.00358249 0.973816 -0.227309 
-0.00455496 0.857312 -0.514777 
-0.00625855 0.735576 -0.677413 
-0.00604758 0.632115 -0.774851 
-0.00642792 0.540706 -0.841187 
-0.00634595 0.453858 -0.891051 
-0.00657351 0.371257 -0.928507 
-0.0069615 0.299836 -0.953965 
-0.00739484 0.240405 -0.970644 
-0.00788099 0.195747 -0.980623 
-0.00851284 0.157669 -0.987455 
-0.00917259 0.127098 -0.991848 
-0.00964229 0.102629 -0.994673 
-0.0100158 0.0807102 -0.996687 
-0.0112694 0.0636107 -0.997911 
-0.0110513 0.0504386 -0.998666 
-0.0120753 0.040721 -0.999098 
-0.0123408 0.0323551 -0.9994 
-0.01252 0.0252869 -0.999602 
-0.0124509 0.0199806 -0.999723 
-0.0129198 0.0154729 -0.999797 
-0.012963 0.0115455 -0.999849 
-0.013137 0.00812877 -0.999881 
-0.0132271 0.00514275 -0.999899 
-0.0132372 0.002413 -0.999909 
-0.0132516 -0.000143746 -0.999912 
-0.0131897 -0.00269013 -0.999909 
-0.0131043 -0.00523411 -0.9999 
-0.0129067 -0.00772856 -0.999887 
-0.0127271 -0.0102331 -0.999867 
-0.0124537 -0.0126531 -0.999842 
-0.0119873 -0.015152 -0.999813 
-0.0115251 -0.0177478 -0.999776 
-0.0109231 -0.0206375 -0.999727 
-0.0101824 -0.0235154 -0.999672 
-0.00911945 -0.0251829 -0.999641 