# vtk DataFile Version 3.0 
Exported using Morpho https://github.com/Morpho-lang/morpho 
ASCII 
DATASET UNSTRUCTURED_GRID 

POINTS 2069 float 
-8.32618 -2.88146 0 
-8.11405 -2.88146 0 
-7.90192 -2.88146 0 
-7.68979 -2.88146 0 
-7.47765 -2.88146 0 
-7.26552 -2.88146 0 
-7.05339 -2.88146 0 
-6.84126 -2.88146 0 
-6.62913 -2.88146 0 
-6.41699 -2.88146 0 
-6.20486 -2.88146 0 
-5.99273 -2.88146 0 
-5.7806 -2.88146 0 
-5.56847 -2.88146 0 
-5.35633 -2.88146 0 
-5.1442 -2.88146 0 
-4.93207 -2.88146 0 
-4.71994 -2.88146 0 
-4.50781 -2.88146 0 
-4.29567 -2.88146 0 
-4.08354 -2.88146 0 
-3.87141 -2.88146 0 
-3.65928 -2.88146 0 
-3.44715 -2.88146 0 
-3.23501 -2.88146 0 
-3.02288 -2.88146 0 
-2.81075 -2.88146 0 
-2.59862 -2.88146 0 
-2.38649 -2.88146 0 
-2.17435 -2.88146 0 
-1.96222 -2.88146 0 
-1.75009 -2.88146 0 
-1.53796 -2.88146 0 
-1.32583 -2.88146 0 
-1.11369 -2.88146 0 
-0.901561 -2.88146 0 
-0.689429 -2.88146 0 
-0.477297 -2.88146 0 
-0.265165 -2.88146 0 
-0.053033 -2.88146 0 
0.159099 -2.88146 0 
0.371231 -2.88146 0 
0.583363 -2.88146 0 
0.795495 -2.88146 0 
1.00763 -2.88146 0 
1.21976 -2.88146 0 
1.43189 -2.88146 0 
1.64402 -2.88146 0 
1.85616 -2.88146 0 
2.06829 -2.88146 0 
2.28042 -2.88146 0 
2.49255 -2.88146 0 
2.70468 -2.88146 0 
2.91682 -2.88146 0 
3.12895 -2.88146 0 
3.34108 -2.88146 0 
3.55321 -2.88146 0 
3.76534 -2.88146 0 
3.97748 -2.88146 0 
4.18961 -2.88146 0 
4.40174 -2.88146 0 
4.61387 -2.88146 0 
4.826 -2.88146 0 
5.03814 -2.88146 0 
5.25027 -2.88146 0 
5.4624 -2.88146 0 
5.67453 -2.88146 0 
5.88666 -2.88146 0 
6.0988 -2.88146 0 
6.31093 -2.88146 0 
6.52306 -2.88146 0 
6.73519 -2.88146 0 
6.94732 -2.88146 0 
7.15946 -2.88146 0 
7.37159 -2.88146 0 
7.58372 -2.88146 0 
7.79585 -2.88146 0 
8.00798 -2.88146 0 
8.22012 -2.88146 0 
8.53831 -2.88146 0 
-8.53831 -2.72166 0 
-8.29327 -2.66296 0 
-8.06405 -2.66319 0 
-7.82737 -2.67295 0 
-7.59143 -2.67427 0 
-7.35454 -2.66222 0 
-7.13805 -2.67346 0 
-6.90826 -2.67425 0 
-6.67975 -2.66645 0 
-6.45483 -2.6656 0 
-6.23172 -2.66447 0 
-6.01235 -2.66478 0 
-5.79423 -2.66785 0 
-5.57528 -2.66915 0 
-5.35866 -2.66834 0 
-5.14262 -2.67052 0 
-4.92945 -2.6717 0 
-4.71777 -2.67016 0 
-4.51186 -2.66171 0 
-4.30779 -2.66712 0 
-4.09789 -2.66595 0 
-3.88915 -2.66792 0 
-3.68143 -2.67031 0 
-3.4695 -2.67307 0 
-3.25566 -2.67136 0 
-3.04426 -2.66992 0 
-2.8334 -2.67099 0 
-2.62073 -2.67228 0 
-2.40585 -2.67246 0 
-2.18874 -2.66988 0 
-1.973 -2.67118 0 
-1.75264 -2.66379 0 
-1.52783 -2.66667 0 
-1.30061 -2.66521 0 
-1.07766 -2.65425 0 
-0.853716 -2.66196 0 
-0.629766 -2.63894 0 
-0.397481 -2.66018 0 
-0.290582 -2.43666 0 
-0.166693 -2.65341 0 
0.0707377 -2.65929 0 
0.305619 -2.64214 0 
0.519714 -2.64896 0 
0.741883 -2.66236 0 
0.98169 -2.65465 0 
1.19767 -2.67409 0 
1.43664 -2.65633 0 
1.65534 -2.66218 0 
1.88145 -2.67389 0 
2.10054 -2.67177 0 
2.31624 -2.671 0 
2.53103 -2.67181 0 
2.74667 -2.6735 0 
2.96353 -2.67535 0 
3.17898 -2.67404 0 
3.39428 -2.67113 0 
3.60488 -2.66944 0 
3.82357 -2.67455 0 
4.03207 -2.66782 0 
4.24904 -2.67527 0 
4.46151 -2.67087 0 
4.67175 -2.66891 0 
4.88412 -2.66967 0 
5.09551 -2.66864 0 
5.30543 -2.66824 0 
5.51636 -2.669 0 
5.72781 -2.66959 0 
5.93927 -2.67 0 
6.15055 -2.67017 0 
6.36202 -2.6704 0 
6.57409 -2.67002 0 
6.78568 -2.66874 0 
6.99826 -2.66677 0 
7.21459 -2.66785 0 
7.42961 -2.6656 0 
7.64527 -2.66327 0 
7.86123 -2.65957 0 
8.07713 -2.65285 0 
8.31955 -2.72608 0 
8.53831 -2.66933 0 
-8.42952 -2.48331 0 
-8.19627 -2.44316 0 
-7.96869 -2.46089 0 
-7.74677 -2.46657 0 
-7.52037 -2.46945 0 
-7.31167 -2.43415 0 
-7.10293 -2.46606 0 
-6.90155 -2.4511 0 
-6.68919 -2.45729 0 
-6.4664 -2.45403 0 
-6.24357 -2.45211 0 
-6.02113 -2.44936 0 
-5.8026 -2.4544 0 
-5.58399 -2.46025 0 
-5.36308 -2.45834 0 
-5.14583 -2.46211 0 
-4.92702 -2.4608 0 
-4.71435 -2.45548 0 
-4.50669 -2.44261 0 
-4.29385 -2.45387 0 
-4.07941 -2.45227 0 
-3.87094 -2.45238 0 
-3.65316 -2.46291 0 
-3.43518 -2.46729 0 
-3.22154 -2.4608 0 
-3.00867 -2.45819 0 
-2.79453 -2.46112 0 
-2.57854 -2.46399 0 
-2.36058 -2.4645 0 
-2.14271 -2.45823 0 
-1.92725 -2.45914 0 
-1.69637 -2.45813 0 
-1.46255 -2.45795 0 
-1.23421 -2.4441 0 
-1.00164 -2.42952 0 
-0.785643 -2.43258 0 
-0.666414 -2.24437 0 
-0.518809 -2.43152 0 
-0.186666 -2.23501 0 
-0.0373044 -2.44705 0 
0.206955 -2.43463 0 
0.280448 -2.20261 0 
0.447336 -2.39791 0 
0.658044 -2.426 0 
0.889795 -2.46041 0 
1.14869 -2.44118 0 
1.36001 -2.46831 0 
1.61362 -2.44142 0 
1.83391 -2.46706 0 
2.05525 -2.46293 0 
2.27287 -2.45933 0 
2.48551 -2.46039 0 
2.6973 -2.46496 0 
2.9115 -2.46996 0 
3.12638 -2.46794 0 
3.34131 -2.46555 0 
3.55722 -2.45482 0 
3.7691 -2.47191 0 
3.98387 -2.45164 0 
4.19455 -2.46955 0 
4.40757 -2.4615 0 
4.61846 -2.45471 0 
4.8278 -2.45803 0 
5.03915 -2.45593 0 
5.24926 -2.453 0 
5.45781 -2.4555 0 
5.6684 -2.45744 0 
5.88024 -2.45836 0 
6.09219 -2.45866 0 
6.30443 -2.4592 0 
6.51735 -2.45978 0 
6.73151 -2.45673 0 
6.94611 -2.45524 0 
7.16641 -2.45837 0 
7.39075 -2.45377 0 
7.61268 -2.44925 0 
7.83669 -2.44407 0 
8.06353 -2.43616 0 
8.29751 -2.51333 0 
8.53831 -2.4572 0 
-8.53831 -2.26644 0 
-8.30932 -2.25131 0 
-8.05244 -2.24811 0 
-7.81912 -2.25302 0 
-7.58486 -2.26799 0 
-7.35877 -2.22039 0 
-7.12404 -2.23771 0 
-6.89658 -2.23976 0 
-6.67339 -2.24496 0 
-6.4502 -2.2412 0 
-6.2283 -2.23877 0 
-6.00991 -2.23369 0 
-5.79328 -2.2408 0 
-5.58189 -2.24288 0 
-5.37121 -2.24918 0 
-5.15581 -2.24952 0 
-4.9455 -2.25304 0 
-4.73294 -2.24419 0 
-4.52373 -2.22546 0 
-4.31694 -2.23976 0 
-4.10886 -2.24223 0 
-3.8969 -2.23316 0 
-3.69326 -2.25521 0 
-3.47894 -2.26044 0 
-3.26908 -2.25108 0 
-3.06073 -2.2462 0 
-2.85146 -2.24803 0 
-2.64259 -2.25175 0 
-2.43286 -2.25373 0 
-2.22278 -2.24766 0 
-2.01105 -2.23757 0 
-1.79901 -2.25232 0 
-1.57075 -2.25204 0 
-1.34581 -2.2327 0 
-1.11905 -2.21731 0 
-0.897927 -2.18037 0 
-0.628321 -2.03102 0 
-0.42328 -2.19759 0 
-0.176737 -2.0166 0 
0.0506731 -2.22752 0 
0.0523904 -2.00047 0 
0.26765 -1.96201 0 
0.498187 -2.14435 0 
0.725935 -2.21554 0 
0.968691 -2.26762 0 
1.1981 -2.20874 0 
1.43018 -2.27663 0 
1.64696 -2.20395 0 
1.84808 -2.25529 0 
2.06955 -2.25157 0 
2.28379 -2.24495 0 
2.49612 -2.24754 0 
2.71159 -2.25737 0 
2.92603 -2.26343 0 
3.14167 -2.26155 0 
3.35995 -2.26005 0 
3.57064 -2.24381 0 
3.78547 -2.26412 0 
3.99465 -2.23662 0 
4.20536 -2.26057 0 
4.41675 -2.24932 0 
4.6274 -2.24043 0 
4.83911 -2.24599 0 
5.04948 -2.24201 0 
5.25749 -2.2369 0 
5.46771 -2.24235 0 
5.67937 -2.24584 0 
5.89073 -2.2468 0 
6.10175 -2.24701 0 
6.31296 -2.24782 0 
6.52477 -2.24865 0 
6.73627 -2.2438 0 
6.94429 -2.23641 0 
7.15586 -2.25127 0 
7.37873 -2.24578 0 
7.60725 -2.23726 0 
7.83502 -2.23187 0 
8.07119 -2.22938 0 
8.30464 -2.30264 0 
8.53831 -2.24506 0 
-8.53831 -2.0475 0 
-8.31157 -2.03306 0 
-8.07968 -2.05298 0 
-7.83634 -2.04326 0 
-7.60208 -2.0614 0 
-7.37348 -2.01121 0 
-7.1404 -2.03633 0 
-6.89982 -2.03144 0 
-6.6731 -2.03152 0 
-6.44817 -2.02819 0 
-6.22423 -2.0247 0 
-6.00272 -2.01942 0 
-5.78545 -2.02463 0 
-5.5683 -2.02923 0 
-5.35024 -2.03929 0 
-5.13507 -2.03622 0 
-4.92154 -2.04203 0 
-4.70925 -2.03044 0 
-4.49261 -2.01347 0 
-4.28358 -2.027 0 
-4.06928 -2.0327 0 
-3.85632 -2.01888 0 
-3.64387 -2.05236 0 
-3.43384 -2.04775 0 
-3.22417 -2.03685 0 
-3.01223 -2.03397 0 
-2.80195 -2.03403 0 
-2.59291 -2.03629 0 
-2.38576 -2.03467 0 
-2.17722 -2.02575 0 
-1.96256 -2.01601 0 
-1.74268 -2.0432 0 
-1.52017 -2.03125 0 
-1.29206 -2.00662 0 
-1.07298 -1.97455 0 
-0.834894 -1.94577 0 
-0.567095 -1.80287 0 
-0.385397 -1.96081 0 
-0.248691 -1.7333 0 
-0.0690417 -1.77538 0 
0.121248 -1.7353 0 
0.319884 -1.69976 0 
0.488978 -1.90074 0 
0.716049 -1.98433 0 
0.94756 -2.05653 0 
1.16661 -1.98433 0 
1.40861 -2.06048 0 
1.60677 -1.96598 0 
1.82748 -2.01434 0 
2.03083 -2.03899 0 
2.24938 -2.02966 0 
2.46331 -2.03191 0 
2.67535 -2.04701 0 
2.8891 -2.05393 0 
3.10081 -2.05633 0 
3.31816 -2.05842 0 
3.53427 -2.03271 0 
3.75126 -2.05737 0 
3.96163 -2.02553 0 
4.1795 -2.04784 0 
4.3878 -2.03824 0 
4.59833 -2.02827 0 
4.81174 -2.03244 0 
5.02122 -2.02877 0 
5.23133 -2.02118 0 
5.44092 -2.02797 0 
5.65138 -2.03408 0 
5.86366 -2.03507 0 
6.07596 -2.03512 0 
6.28781 -2.03552 0 
6.49998 -2.03647 0 
6.71153 -2.03062 0 
6.92399 -2.0196 0 
7.13737 -2.0336 0 
7.35451 -2.04077 0 
7.58364 -2.03163 0 
7.81963 -2.02349 0 
8.05654 -2.02199 0 
8.29937 -2.08684 0 
8.53831 -2.03293 0 
-8.53831 -1.82848 0 
-8.30398 -1.82035 0 
-8.06952 -1.84635 0 
-7.84222 -1.82483 0 
-7.62009 -1.85393 0 
-7.40996 -1.7889 0 
-7.18851 -1.82288 0 
-6.96365 -1.8343 0 
-6.72787 -1.81725 0 
-6.50698 -1.81662 0 
-6.28242 -1.81428 0 
-6.05848 -1.80789 0 
-5.83574 -1.80902 0 
-5.61812 -1.81619 0 
-5.39966 -1.8272 0 
-5.18376 -1.82621 0 
-4.96564 -1.82873 0 
-4.75579 -1.82161 0 
-4.54233 -1.8124 0 
-4.31755 -1.81127 0 
-4.10791 -1.82528 0 
-3.89363 -1.8133 0 
-3.66849 -1.84099 0 
-3.45844 -1.83797 0 
-3.24676 -1.82578 0 
-3.03478 -1.82435 0 
-2.8188 -1.82063 0 
-2.60456 -1.81891 0 
-2.39228 -1.81248 0 
-2.17637 -1.80556 0 
-1.95424 -1.79494 0 
-1.73459 -1.82328 0 
-1.50604 -1.81005 0 
-1.2865 -1.76766 0 
-1.0406 -1.74998 0 
-0.787982 -1.71862 0 
-0.606738 -1.53819 0 
-0.41116 -1.63615 0 
-0.176237 -1.46049 0 
-0.0210996 -1.48992 0 
0.160149 -1.46216 0 
0.328997 -1.39442 0 
0.500424 -1.60513 0 
0.690162 -1.74156 0 
0.924934 -1.82883 0 
1.12754 -1.73431 0 
1.35411 -1.83561 0 
1.56383 -1.7393 0 
1.80544 -1.78923 0 
2.03029 -1.80413 0 
2.23791 -1.8144 0 
2.45683 -1.81603 0 
2.67128 -1.83226 0 
2.88206 -1.84347 0 
3.0946 -1.84479 0 
3.30451 -1.85446 0 
3.50544 -1.81703 0 
3.72199 -1.8513 0 
3.92434 -1.81185 0 
4.14378 -1.84315 0 
4.35989 -1.82518 0 
4.57074 -1.81652 0 
4.78566 -1.82262 0 
5.00129 -1.81419 0 
5.21135 -1.80808 0 
5.42489 -1.8136 0 
5.63663 -1.82059 0 
5.84844 -1.82458 0 
6.0628 -1.82432 0 
6.2768 -1.8242 0 
6.4901 -1.82425 0 
6.70284 -1.817 0 
6.91927 -1.80863 0 
7.13741 -1.82044 0 
7.35457 -1.82621 0 
7.57637 -1.8276 0 
7.81134 -1.81942 0 
8.05237 -1.81586 0 
8.2945 -1.87577 0 
8.53831 -1.8208 0 
-8.53831 -1.61422 0 
-8.31424 -1.59662 0 
[...]
POINT_DATA 2069 
VECTORS vectors float
3.18988e-05 -0.000517643 1 
3.85462e-06 -0.0165409 0.999863 
-6.6848e-05 -0.0205282 0.999789 
-2.69211e-05 -0.0210618 0.999778 
-4.36648e-05 -0.0195549 0.999809 
-3.52546e-05 -0.0173181 0.99985 
-3.9591e-05 -0.0150859 0.999886 
-3.84126e-05 -0.0128558 0.999917 
-3.74653e-05 -0.0105079 0.999945 
-3.9059e-05 -0.00803572 0.999968 
-3.8128e-05 -0.00551136 0.999985 
-3.80242e-05 -0.00299371 0.999996 
-3.86569e-05 -0.000506844 1 
-3.82779e-05 0.00199916 0.999998 
-3.80546e-05 0.00462292 0.999989 
-3.89175e-05 0.00744451 0.999972 
-3.68821e-05 0.0106356 0.999943 
-4.00383e-05 0.014302 0.999898 
-3.53784e-05 0.018626 0.999827 
-3.96211e-05 0.0239183 0.999714 
-3.59171e-05 0.0302911 0.999541 
-3.74326e-05 0.0380617 0.999275 
-3.58078e-05 0.0475649 0.998868 
-3.60433e-05 0.0592272 0.998245 
-3.45691e-05 0.0735639 0.997291 
-3.37965e-05 0.0911819 0.995834 
-3.28016e-05 0.11282 0.993615 
-3.04865e-05 0.139396 0.990237 
-3.03035e-05 0.172014 0.985095 
-2.47711e-05 0.212026 0.977264 
-2.61574e-05 0.260997 0.96534 
-1.92642e-05 0.321054 0.947061 
-1.66231e-05 0.391339 0.920247 
-1.27462e-05 0.475412 0.879763 
-6.72189e-06 0.572422 0.819959 
-2.79614e-06 0.679002 0.734136 
3.3986e-07 0.788362 0.615211 
2.73744e-06 0.888102 0.459646 
1.68338e-06 0.963047 0.269333 
6.6659e-07 0.998461 0.0554602 
-1.4648e-06 0.986523 -0.163625 
-2.3473e-06 0.929925 -0.367749 
-1.8262e-06 0.8407 -0.541501 
1.06318e-06 0.734506 -0.678602 
4.5213e-06 0.625649 -0.780105 
1.05832e-05 0.523304 -0.852146 
1.2986e-05 0.433851 -0.900985 
1.96596e-05 0.355107 -0.934826 
2.2053e-05 0.289638 -0.957136 
2.49862e-05 0.235696 -0.971827 
2.83942e-05 0.191411 -0.98151 
3.00142e-05 0.155217 -0.98788 
3.18455e-05 0.1257 -0.992068 
3.31548e-05 0.101658 -0.994819 
3.42875e-05 0.0820921 -0.996625 
3.57645e-05 0.0661667 -0.997809 
3.45825e-05 0.0531948 -0.998584 
3.86867e-05 0.042637 -0.999091 
3.47263e-05 0.0340198 -0.999421 
3.90629e-05 0.0269641 -0.999636 
3.70257e-05 0.0211733 -0.999776 
3.77905e-05 0.016366 -0.999866 
3.84603e-05 0.0123375 -0.999924 
3.80336e-05 0.00889834 -0.99996 
3.82824e-05 0.00588551 -0.999983 
3.84757e-05 0.00316214 -0.999995 
3.83269e-05 0.000601848 -1 
3.84497e-05 -0.00190497 -0.999998 
3.83807e-05 -0.00443754 -0.99999 
3.8371e-05 -0.00702475 -0.999975 
3.83288e-05 -0.00963369 -0.999954 
3.86709e-05 -0.0121878 -0.999926 
3.72234e-05 -0.0146318 -0.999893 
4.09753e-05 -0.0170176 -0.999855 
3.26623e-05 -0.0195044 -0.99981 
4.65662e-05 -0.0220304 -0.999757 
3.07083e-05 -0.0235799 -0.999722 
3.08942e-05 -0.023163 -0.999732 
7.58598e-05 -0.0204754 -0.99979 
-5.11467e-05 -0.000885289 -1 
2.94678e-05 5.48956e-05 1 
0.00838128 -0.0133491 0.999876 
0.0109965 -0.0189301 0.99976 
0.0114309 -0.0202257 0.99973 
0.0119942 -0.0199054 0.99973 
0.0126951 -0.0180102 0.999757 
0.0127704 -0.0157522 0.999794 
0.0127282 -0.0132734 0.999831 
0.0130747 -0.0108043 0.999856 
0.0131753 -0.00828496 0.999879 
0.013263 -0.00571906 0.999896 
0.0133118 -0.00317856 0.999906 
0.0132919 -0.000645797 0.999911 
0.0132883 0.0019396 0.99991 
0.0132985 0.0046129 0.999901 
0.013284 0.00752247 0.999883 
0.0132347 0.0107727 0.999854 
0.0132048 0.0144792 0.999808 
0.0132514 0.0187734 0.999736 
0.0129264 0.0237936 0.999633 
0.0126012 0.0300634 0.999469 
0.0122264 0.0376436 0.999216 
0.0117613 0.0468317 0.998834 
0.0111429 0.0583162 0.998236 
0.0104938 0.0725768 0.997308 
0.00973231 0.0898921 0.995904 
0.00876514 0.111069 0.993774 
0.00760524 0.137284 0.990503 
0.00629617 0.169829 0.985453 
0.00480736 0.210246 0.977637 
0.00324001 0.259411 0.965761 
0.00151142 0.320488 0.947251 
-1.53177e-05 0.396557 0.91801 
-0.00139734 0.487902 0.872897 
-0.00250025 0.59135 0.806411 
-0.00275727 0.704679 0.709521 
-0.00287835 0.818502 0.574496 
-0.00190573 0.920193 0.39146 
-0.00261946 0.955841 0.293874 
-0.000844746 0.985096 0.172006 
0.000437726 0.997336 -0.0729437 
0.00170419 0.951708 -0.307 
0.0025355 0.870249 -0.492606 
0.002833 0.762804 -0.646623 
0.00280116 0.639938 -0.768421 
0.00178761 0.534793 -0.844981 
0.000813432 0.431816 -0.901961 
-0.000694281 0.352499 -0.935812 
-0.00251718 0.284038 -0.95881 
-0.00414525 0.22965 -0.973265 
-0.00569316 0.185914 -0.982549 
-0.00706745 0.150393 -0.988601 
-0.00826651 0.121371 -0.992573 
-0.00928717 0.0976798 -0.995175 
-0.0101754 0.0785999 -0.996854 
-0.0109587 0.0631242 -0.997946 
-0.0115349 0.0508106 -0.998642 
-0.0119653 0.0404031 -0.999112 
-0.0124459 0.0323246 -0.9994 
-0.0126128 0.0254299 -0.999597 
-0.0129569 0.0198842 -0.999718 
-0.0131894 0.0153238 -0.999796 
-0.0132993 0.0114385 -0.999846 
-0.0134342 0.00811661 -0.999877 
-0.0135158 0.00520448 -0.999895 
-0.0135351 0.00253237 -0.999905 
-0.0135364 -6.62522e-06 -0.999908 
-0.013522 -0.0024979 -0.999905 
-0.0134853 -0.00499482 -0.999897 
-0.0134196 -0.00751285 -0.999882 
-0.0133463 -0.0100293 -0.999861 
-0.0132477 -0.0124909 -0.999834 
-0.0131024 -0.0149165 -0.999803 
-0.0128336 -0.0174056 -0.999766 
-0.0125324 -0.019835 -0.999725 
-0.0121215 -0.0217659 -0.99969 
-0.0114146 -0.0225993 -0.999679 
-0.0100433 -0.0218764 -0.99971 
-0.00631304 -0.0165113 -0.999844 
0.000157457 0.00032657 -1 
0.00609823 -0.011014 0.999921 
0.0115059 -0.0186654 0.99976 
0.0133812 -0.0198926 0.999713 
0.0144927 -0.0200138 0.999695 
0.0152508 -0.0194022 0.999695 
0.0159582 -0.0175058 0.999719 
0.0161229 -0.0152616 0.999754 
0.0164738 -0.0130439 0.999779 
0.0165659 -0.0107286 0.999805 
0.0166556 -0.00827207 0.999827 
0.016744 -0.0057741 0.999843 
0.0168477 -0.00324133 0.999853 
0.0168715 -0.000717925 0.999857 
0.0168623 0.00186811 0.999856 
0.0168925 0.00461955 0.999847 
0.0168298 0.00756567 0.99983 
0.0166756 0.01091 0.999801 
0.0165172 0.0147273 0.999755 
0.0163724 0.0191367 0.999683 
0.0158763 0.0245029 0.999574 
0.015448 0.0310952 0.999397 
0.0148847 0.0389179 0.999132 
0.0141076 0.0488745 0.998705 
0.0131692 0.0611919 0.998039 
0.0120321 0.0761319 0.997025 
0.0106354 0.0944057 0.995477 
0.0090086 0.116944 0.993098 
0.00712168 0.144879 0.989424 
0.00493635 0.179544 0.983738 
0.00245853 0.222133 0.975013 
-2.18653e-06 0.27348 0.961878 
-0.0025195 0.340608 0.940202 
-0.00465288 0.423228 0.906011 
-0.00639135 0.518951 0.85478 
-0.00714866 0.629966 0.77659 
-0.00645192 0.74024 0.672312 
-0.0090716 0.80067 0.599037 
-0.004716 0.870181 0.49271 
-0.0024047 0.981278 0.192582 
-0.000243054 0.999226 0.0393488 
0.00204989 0.977356 -0.211592 
0.00423057 0.958736 -0.284266 
0.00453294 0.900996 -0.433805 
0.00598096 0.805039 -0.593192 
0.00645171 0.687372 -0.726277 
0.00686213 0.55934 -0.82891 
0.0052502 0.464889 -0.885354 
0.00391252 0.368618 -0.929573 
0.000965508 0.299854 -0.953985 
-0.00146728 0.242291 -0.970202 
-0.00385847 0.196134 -0.980569 
-0.00613379 0.159189 -0.987229 
-0.00820514 0.129053 -0.991604 
-0.0100052 0.104204 -0.994506 
-0.0114857 0.0839758 -0.996402 
-0.0127013 0.0675135 -0.997638 
-0.0137303 0.0540667 -0.998443 
-0.0145101 0.0433802 -0.998953 
-0.0152587 0.0344942 -0.999288 
-0.0157071 0.0274026 -0.999501 
-0.0161633 0.0214774 -0.999639 
-0.0165004 0.0166288 -0.999726 
-0.0167039 0.012574 -0.999781 
-0.0169037 0.00908369 -0.999816 
-0.0170496 0.00604508 -0.999836 
-0.0171127 0.00331489 -0.999848 
-0.0171475 0.000734556 -0.999853 
-0.0171439 -0.00177688 -0.999851 
-0.0170989 -0.00426113 -0.999845 
-0.0170102 -0.00673659 -0.999833 
-0.0168723 -0.00920219 -0.999815 
-0.0166982 -0.011651 -0.999793 
-0.016425 -0.014081 -0.999766 
-0.0160313 -0.0166732 -0.999732 
-0.0155129 -0.0192456 -0.999694 
-0.014734 -0.021124 -0.999668 
-0.0135335 -0.0218486 -0.99967 
-0.011802 -0.0218287 -0.999692 
-0.00830047 -0.0176064 -0.999811 
-0.000340408 -5.71223e-05 -1 
2.86875e-05 -0.000143848 1 
0.00884924 -0.0165985 0.999823 
0.0119852 -0.0203219 0.999722 
0.0136262 -0.0202033 0.999703 
0.0149988 -0.0198865 0.99969 
0.0154979 -0.0180097 0.999718 
0.0161185 -0.0153619 0.999752 
0.0164809 -0.0128425 0.999782 
0.0167338 -0.0104378 0.999805 
0.0168835 -0.00800282 0.999825 
0.0170004 -0.00555749 0.99984 
0.0171003 -0.00309142 0.999849 
0.0172056 -0.000579953 0.999852 
0.0172701 0.00195117 0.999849 
0.0172371 0.00460065 0.999841 
0.0171414 0.00755492 0.999825 
0.0170237 0.010799 0.999797 
0.0167756 0.0146196 0.999752 
0.0164244 0.0190818 0.999683 
0.0160203 0.0242979 0.999576 
0.0154571 0.0306525 0.999411 
0.0146548 0.0385754 0.999148 
0.0138529 0.0477133 0.998765 
0.0127168 0.0595581 0.998144 
0.0112515 0.0738808 0.997204 
0.00951938 0.0912492 0.995783 
0.00750035 0.112501 0.993623 
0.0051719 0.13836 0.990368 
0.00249342 0.170015 0.985438 
-0.00061896 0.208567 0.978008 
-0.00404581 0.255721 0.966742 
-0.00679002 0.312344 0.949945 
-0.00967861 0.385965 0.922463 
-0.012265 0.472644 0.881168 
-0.0133549 0.573631 0.819005 
-0.0133906 0.682437 0.730822 
-0.01326 0.817818 0.575325 
-0.00623547 0.909634 0.415364 
-0.00308413 0.982893 0.184152 
0.000840014 0.998634 -0.052242 
0.00116497 0.998482 -0.0550586 
0.00590984 0.961588 -0.274434 
0.00862234 0.878526 -0.477617 
0.0107277 0.770653 -0.637164 
0.0114677 0.648217 -0.761369 
0.0138191 0.537641 -0.843061 
0.0103755 0.439095 -0.898381 
0.0105031 0.361426 -0.932342 
0.0061397 0.298212 -0.95448 
0.00294496 0.241962 -0.970281 
-0.000141155 0.19702 -0.9804 
-0.00319219 0.160194 -0.98708 
-0.00602815 0.129455 -0.991567 
-0.00839886 0.104538 -0.994485 
-0.0103357 0.0842067 -0.996395 
-0.0119571 0.0674945 -0.997648 
-0.0131611 0.0544744 -0.998428 
-0.0143082 0.0433322 -0.998958 
-0.0150276 0.0348002 -0.999281 
-0.0157558 0.02748 -0.999498 
-0.0162625 0.0216119 -0.999634 
-0.0166508 0.0167347 -0.999721 
-0.0169933 0.0125961 -0.999776 
-0.0172152 0.00909054 -0.99981 
-0.017363 0.00605078 -0.999831 
-0.0174765 0.00326698 -0.999842 
-0.0175265 0.000646319 -0.999846 
-0.0175157 -0.0018765 -0.999845 
-0.0174509 -0.00434662 -0.999838 
-0.0173355 -0.00677946 -0.999827 
-0.0171725 -0.0091868 -0.99981 
-0.0169279 -0.0115774 -0.99979 
-0.0165935 -0.0139628 -0.999765 
-0.0161536 -0.0164573 -0.999734 
-0.0154687 -0.0190312 -0.999699 
-0.0144656 -0.0208999 -0.999677 
-0.0130268 -0.0215692 -0.999682 
-0.0110278 -0.0214367 -0.999709 
-0.0085551 -0.0175573 -0.999809 
-4.18019e-06 2.41732e-05 -1 
0.000132132 -2.81886e-05 1 
0.00841509 -0.0168121 0.999823 
0.0109538 -0.0202116 0.999736 
0.0129552 -0.0206864 0.999702 
0.0143968 -0.0201854 0.999693 
0.015055 -0.0182908 0.999719 
0.0156975 -0.0155755 0.999755 
0.0160732 -0.0128101 0.999789 
0.0163337 -0.0103282 0.999813 
0.0165491 -0.0079298 0.999832 
0.0167179 -0.0054933 0.999845 
0.0168432 -0.00299789 0.999854 
0.0169543 -0.000458299 0.999856 
0.0170133 0.00218273 0.999853 
0.0170022 0.00498945 0.999843 
0.0168929 0.00803107 0.999825 
0.0167137 0.0114406 0.999795 
0.0164009 0.0154117 0.999747 
0.0159129 0.020248 0.999668 
0.0154237 0.0258018 0.999548 
0.0147134 0.0327238 0.999356 
0.0137237 0.0412324 0.999055 
0.0127417 0.0513439 0.9986 
0.0112898 0.0638475 0.997896 
0.00943506 0.0791973 0.996814 
0.00721081 0.0980973 0.995151 
0.00458258 0.120991 0.992643 
0.00154153 0.148687 0.988883 
-0.0019798 0.182192 0.983261 
-0.0061182 0.222439 0.974927 
-0.0107127 0.272438 0.962114 
-0.0140931 0.334084 0.942438 
-0.01811 0.408306 0.912665 
-0.021418 0.498456 0.86665 
-0.0229216 0.597285 0.801701 
-0.0209618 0.714554 0.699267 
-0.0183082 0.844593 0.535096 
-0.00840645 0.923197 0.384234 
-0.00642605 0.965501 0.26032 
-0.00123402 0.997274 0.073772 
0.00315941 0.991604 -0.129275 
0.0101939 0.944112 -0.329467 
0.0131187 0.881366 -0.472251 
0.0171492 0.774865 -0.631894 
0.0183748 0.658667 -0.75221 
0.0229214 0.554642 -0.831774 
0.0184195 0.450712 -0.892479 
0.019668 0.380406 -0.92461 
0.0137044 0.309897 -0.950671 
0.00888558 0.255721 -0.96671 
0.00475708 0.208007 -0.978116 
0.000760028 0.169189 -0.985583 
-0.00290727 0.137255 -0.990532 
-0.00593191 0.110981 -0.993805 
-0.00838176 0.0897637 -0.995928 
-0.0104626 0.0720805 -0.997344 
-0.0118892 0.0577865 -0.998258 
-0.0134043 0.0460182 -0.998851 
-0.0142258 0.03683 -0.99922 
-0.0151906 0.0289473 -0.999466 
-0.0157784 0.0228544 -0.999614 
-0.0162403 0.0177423 -0.999711 
-0.0166321 0.0133801 -0.999772 
-0.0168948 0.00974693 -0.99981 
-0.0170697 0.00656948 -0.999833 
-0.0172191 0.00371 -0.999845 
-0.0173 0.00104239 -0.99985 
-0.0173053 -0.00153256 -0.999849 
-0.0172435 -0.00403671 -0.999843 
-0.0171177 -0.00646905 -0.999833 
-0.0169312 -0.00885209 -0.999817 
-0.0166681 -0.0112216 -0.999798 
-0.0162234 -0.0136017 -0.999776 
-0.0157976 -0.0161698 -0.999744 
-0.0151519 -0.0187799 -0.999709 
-0.0141562 -0.0208246 -0.999683 
-0.012704 -0.0214854 -0.999688 
-0.0106362 -0.0213439 -0.999716 
-0.00813353 -0.0175213 -0.999813 
-0.000103855 5.9029e-06 -1 
5.35521e-05 1.64321e-05 1 
0.00772696 -0.0169115 0.999827 
0.0103775 -0.0210245 0.999725 
0.0120007 -0.0210258 0.999707 
0.0133936 -0.0204468 0.999701 
0.0136612 -0.0188499 0.999729 
0.0144606 -0.0162326 0.999764 
0.0149366 -0.013529 0.999797 
0.0151053 -0.010918 0.999826 
0.0153441 -0.00856071 0.999846 
0.015521 -0.00614554 0.999861 
0.0156185 -0.00364104 0.999871 
0.0157183 -0.00103228 0.999876 
0.0158086 0.0016281 0.999874 
0.0158555 0.00444891 0.999864 
0.0157313 0.00748982 0.999848 
0.0155435 0.0109527 0.999819 
0.0151898 0.0148284 0.999775 
0.0146907 0.0195041 0.999702 
0.0140597 0.0254514 0.999577 
0.0134387 0.0321538 0.999393 
0.0123458 0.0406278 0.999098 
0.0112712 0.0513972 0.998615 
0.00967352 0.0639519 0.997906 
0.00754851 0.0795646 0.996801 
0.00504016 0.0986099 0.995113 
0.00187088 0.122402 0.992479 
-0.00190462 0.151152 0.988509 
-0.00643168 0.185653 0.982594 
-0.0117701 0.228652 0.973437 
-0.0179567 0.281951 0.959261 
-0.0226726 0.342231 0.939342 
-0.0285407 0.419388 0.907358 
-0.0344391 0.505992 0.86185 
-0.0356062 0.615012 0.787714 
-0.0314459 0.737314 0.674818 
-0.0339508 0.822195 0.568193 
-0.0151061 0.909828 0.414711 
-0.000918239 0.979914 0.19942 
0.000267903 0.999698 0.0245766 
0.00194757 0.983384 -0.181527 
0.0128932 0.934143 -0.356666 
0.0226831 0.872322 -0.488405 
0.0267092 0.785755 -0.617961 
0.0290587 0.670223 -0.741591 
0.0376727 0.576111 -0.816503 
0.0298708 0.477425 -0.878165 
0.0313584 0.403164 -0.91459 
0.0225351 0.323721 -0.945884 
0.0158434 0.263011 -0.964663 
0.0101566 0.216054 -0.976329 
0.00504463 0.175184 -0.984523 
0.000481485 0.141816 -0.989893 
-0.00316588 0.114931 -0.993368 
-0.0060538 0.0928423 -0.995662 
-0.00845118 0.0748235 -0.997161 
-0.00987661 0.0613137 -0.99807 
-0.0117104 0.0485729 -0.998751 
-0.0125394 0.0394651 -0.999142 
-0.0137623 0.0308903 -0.999428 
-0.0143474 0.0242202 -0.999604 
-0.0148293 0.0188243 -0.999713 
-0.0153048 0.0142136 -0.999782 
-0.0155535 0.010327 -0.999826 
-0.0157263 0.00703775 -0.999852 
-0.0159169 0.00403987 -0.999865 
-0.0160515 0.00129209 -0.99987 
-0.0160929 -0.00132512 -0.99987 
-0.0160296 -0.00388421 -0.999864 
-0.015899 -0.00634801 -0.999853 
-0.0156949 -0.00872282 -0.999839 
-0.0153461 -0.0110613 -0.999821 
-0.0149652 -0.0135407 -0.999796 
-0.0145696 -0.016149 -0.999763 
-0.0140157 -0.0188218 -0.999725 
-0.0131903 -0.0208613 -0.999695 
-0.0118205 -0.0215233 -0.999698 
-0.00990798 -0.0214465 -0.999721 
-0.00769254 -0.0175696 -0.999816 
-6.88146e-05 9.60235e-06 -1 
6.01649e-05 1.55493e-05 1 
0.0065285 -0.0170492 0.999833 
0.00880487 -0.0210229 0.99974 
0.010218 -0.0212557 0.999722 
0.0115251 -0.0207418 0.999718 
0.011798 -0.0187682 0.999754 
0.0125335 -0.0158925 0.999795 
0.0131271 -0.0131536 0.999827 
0.0131468 -0.0106835 0.999857 
0.0134509 -0.00826304 0.999875 
0.0136221 -0.00579931 0.99989 
0.0136983 -0.00320815 0.999901 
0.0137556 -0.000541193 0.999905 
0.0138563 0.00222853 0.999902 
0.0138703 0.00512926 0.999891 
0.0137544 0.00838354 0.99987 
0.0134444 0.0119176 0.999839 
0.0130825 0.0160765 0.999785 
0.0126299 0.0213276 0.999693 
0.0118454 0.0274719 0.999552 
0.0111762 0.0346558 0.999337 
0.0100629 0.0446689 0.998951 
0.00869291 0.0556091 0.998415 
0.00687593 0.0690984 0.997586 
0.00444038 0.0860008 0.996285 
0.001531 0.10677 0.994283 
-0.00225493 0.132387 0.991196 
-0.00687505 0.163044 0.986595 
-0.0125805 0.200788 0.979554 
-0.0196156 0.247805 0.968611 
-0.0281541 0.305722 0.951705 
-0.0350336 0.368858 0.928825 
-0.0447528 0.443347 0.895232 
-0.052469 0.541543 0.839034 
-0.0538884 0.65372 0.754816 
-0.059522 0.742713 0.66696 
-0.0466131 0.849723 0.525165 
-0.0140263 0.925128 0.379396 
0.0430203 0.859393 -0.509503 
0.0465579 0.785751 -0.616788 
0.0460056 0.687882 -0.724363 
0.0602784 0.595785 -0.800879 
0.0460743 0.493828 -0.868338 
0.0402088 0.38702 -0.921194 
0.0295227 0.314508 -0.948796 
0.0212804 0.257377 -0.966077 
0.0136093 0.208914 -0.977839 
0.00746123 0.168316 -0.985705 
0.00259489 0.136379 -0.990653 
-0.00126843 0.110478 -0.993878 
-0.00428765 0.0891506 -0.996009 
-0.00631451 0.0733524 -0.997286 
-0.0085303 0.0572725 -0.998322 
-0.00971624 0.0469744 -0.998849 
-0.011095 0.0363748 -0.999277 
-0.011982 0.029034 -0.999507 
-0.0124568 0.0227764 -0.999663 
-0.0129928 0.0174685 -0.999763 
-0.0133983 0.0131408 -0.999824 
-0.0135396 0.00947206 -0.999863 
-0.0137646 0.00619563 -0.999886 
-0.0139332 0.0032681 -0.999898 
-0.0140496 0.000561308 -0.999901 
-0.0140999 -0.00204901 -0.999898 
-0.0140163 -0.00457382 -0.999891 
-0.0138585 -0.00698034 -0.99988 
-0.0136137 -0.00926856 -0.999864 
-0.0132832 -0.0115899 -0.999845 
-0.0128821 -0.0140594 -0.999818 
-0.0125106 -0.0166419 -0.999783 
-0.0120143 -0.019263 -0.999742 
-0.011316 -0.0211741 -0.999712 
-0.0100737 -0.0217913 -0.999712 
-0.008398 -0.0213303 -0.999737 
-0.00663078 -0.0173038 -0.999828 
-6.06729e-05 1.29378e-05 -1 
4.41391e-05 3.08061e-06 1 
0.00546098 -0.0171866 0.999837 
0.00742036 -0.0214163 0.999743 
0.00852176 -0.0214598 0.999733 
0.00968219 -0.0209174 0.999734 
0.00970511 -0.0193964 0.999765 
0.0104487 -0.0166256 0.999807 
0.0109997 -0.0137946 0.999844 
0.0111041 -0.0113665 0.999874 
0.0113681 -0.00889563 0.999896 
0.0115772 -0.00647872 0.999912 
0.0116865 -0.00393264 0.999924 
0.0117105 -0.00122813 0.999931 
0.0117852 0.00156724 0.999929 
0.0118098 0.00446228 0.99992 
0.0117917 0.00759941 0.999902 
0.0114509 0.0111445 0.999872 
0.0111521 0.0151695 0.999823 
0.0108649 0.020044 0.99974 
0.0101133 0.0259998 0.999611 
0.00934322 0.0333356 0.999401 
0.00866365 0.0420351 0.999079 
0.00702324 0.0536698 0.998534 
0.00530938 0.0666938 0.997759 
0.00304924 0.0827431 0.996566 
5.68433e-05 0.103504 0.994629 
-0.0038139 0.128854 0.991656 
-0.00894303 0.160462 0.987001 
-0.0153668 0.198712 0.979937 
-0.0236746 0.246191 0.968932 
-0.0345924 0.305511 0.95156 
-0.0476135 0.3775 0.924785 
-0.0626324 0.4673 0.881877 
-0.0767241 0.572851 0.816061 
-0.0922722 0.667962 0.738453 
-0.0980854 0.774419 0.625023 
0.0928787 0.782224 -0.616035 
0.0764831 0.700638 -0.709405 
0.10255 0.644402 -0.75778 
0.0591967 0.472326 -0.879434 
0.0611272 0.427416 -0.901986 
0.0433021 0.351394 -0.935226 
0.0310175 0.285673 -0.957825 
0.0205488 0.229416 -0.973112 
0.0127096 0.184997 -0.982657 
0.00671271 0.148307 -0.988919 
0.00220546 0.119795 -0.992796 
-0.00123131 0.0970826 -0.995276 
-0.00347363 0.0791267 -0.996859 
-0.00602114 0.0637027 -0.997951 
-0.0070976 0.0512031 -0.998663 
-0.00884461 0.0409472 -0.999122 
-0.00956727 0.0320894 -0.999439 
-0.0102682 0.0256148 -0.999619 
-0.0108286 0.0196641 -0.999748 
-0.0112179 0.0148345 -0.999827 
-0.0114369 0.0109192 -0.999875 
-0.011671 0.00736768 -0.999905 
-0.0118393 0.00423399 -0.999921 
-0.0119533 0.00137021 -0.999928 
-0.0120425 -0.00133391 -0.999927 
-0.0120134 -0.00393383 -0.99992 
-0.0118722 -0.0064357 -0.999909 
-0.0116213 -0.00880102 -0.999894 
-0.0113533 -0.0111056 -0.999874 
-0.0110172 -0.0135346 -0.999848 
-0.0105811 -0.0162237 -0.999812 
-0.0101693 -0.0189282 -0.999769 
-0.00964725 -0.0210443 -0.999732 
-0.00871418 -0.0216974 -0.999727 
-0.0072349 -0.0216656 -0.999739 
-0.00567929 -0.0176147 -0.999829 
-4.95685e-05 7.86172e-06 -1 
4.04083e-05 1.56139e-05 1 
0.00443562 -0.0172265 0.999842 
0.00602713 -0.0213089 0.999755 
0.00695418 -0.0216638 0.999741 
0.00786163 -0.0210169 0.999748 
0.0081508 -0.0190414 0.999785 
0.00885571 -0.0161076 0.999831 
0.00914193 -0.0134802 0.999867 