# vtk DataFile Version 3.0 
Exported using Morpho https://github.com/Morpho-lang/morpho 
ASCII 
DATASET UNSTRUCTURED_GRID 

POINTS 2202 float 
-8.32618 -2.88146 0 
-8.11405 -2.88146 0 
-7.90192 -2.88146 0 
-7.68979 -2.88146 0 
-7.47765 -2.88146 0 
-7.26552 -2.88146 0 
-7.05339 -2.88146 0 
-6.84126 -2.88146 0 
-6.62913 -2.88146 0 
-6.41699 -2.88146 0 
-6.20486 -2.88146 0 
-5.99273 -2.88146 0 
-5.7806 -2.88146 0 
-5.56847 -2.88146 0 
-5.35633 -2.88146 0 
-5.1442 -2.88146 0 
-4.93207 -2.88146 0 
-4.71994 -2.88146 0 
-4.50781 -2.88146 0 
-4.29567 -2.88146 0 
-4.08354 -2.88146 0 
-3.87141 -2.88146 0 
-3.65928 -2.88146 0 
-3.44715 -2.88146 0 
-3.23501 -2.88146 0 
-3.02288 -2.88146 0 
-2.81075 -2.88146 0 
-2.59862 -2.88146 0 
-2.38649 -2.88146 0 
-2.17435 -2.88146 0 
-1.96222 -2.88146 0 
-1.75009 -2.88146 0 
-1.53796 -2.88146 0 
-1.32583 -2.88146 0 
-1.11369 -2.88146 0 
-0.901561 -2.88146 0 
-0.689429 -2.88146 0 
-0.477297 -2.88146 0 
-0.265165 -2.88146 0 
-0.053033 -2.88146 0 
0.159099 -2.88146 0 
0.371231 -2.88146 0 
0.583363 -2.88146 0 
0.795495 -2.88146 0 
1.00763 -2.88146 0 
1.21976 -2.88146 0 
1.43189 -2.88146 0 
1.64402 -2.88146 0 
1.85616 -2.88146 0 
2.06829 -2.88146 0 
2.28042 -2.88146 0 
2.49255 -2.88146 0 
2.70468 -2.88146 0 
2.91682 -2.88146 0 
3.12895 -2.88146 0 
3.34108 -2.88146 0 
3.55321 -2.88146 0 
3.76534 -2.88146 0 
3.97748 -2.88146 0 
4.18961 -2.88146 0 
4.40174 -2.88146 0 
4.61387 -2.88146 0 
4.826 -2.88146 0 
5.03814 -2.88146 0 
5.25027 -2.88146 0 
5.4624 -2.88146 0 
5.67453 -2.88146 0 
5.88666 -2.88146 0 
6.0988 -2.88146 0 
6.31093 -2.88146 0 
6.52306 -2.88146 0 
6.73519 -2.88146 0 
6.94732 -2.88146 0 
7.15946 -2.88146 0 
7.37159 -2.88146 0 
7.58372 -2.88146 0 
7.79585 -2.88146 0 
8.00798 -2.88146 0 
8.22012 -2.88146 0 
8.53831 -2.88146 0 
-8.53831 -2.73853 0 
-8.32556 -2.64951 0 
-8.08826 -2.66413 0 
-7.86461 -2.66003 0 
-7.6305 -2.67215 0 
-7.39444 -2.67746 0 
-7.17347 -2.67227 0 
-6.94007 -2.67548 0 
-6.71846 -2.66523 0 
-6.49832 -2.66466 0 
-6.27835 -2.66495 0 
-6.05866 -2.66644 0 
-5.83973 -2.66775 0 
-5.61999 -2.66621 0 
-5.40588 -2.6697 0 
-5.18723 -2.66743 0 
-4.97345 -2.66902 0 
-4.75771 -2.67015 0 
-4.5435 -2.671 0 
-4.32896 -2.67295 0 
-4.11281 -2.66887 0 
-3.89848 -2.66215 0 
-3.69367 -2.67159 0 
-3.4791 -2.67009 0 
-3.26441 -2.66916 0 
-3.05466 -2.67478 0 
-2.83823 -2.67606 0 
-2.61987 -2.67269 0 
-2.40457 -2.66953 0 
-2.1967 -2.67421 0 
-1.97937 -2.67483 0 
-1.763 -2.66845 0 
-1.55323 -2.67463 0 
-1.33609 -2.67437 0 
-1.12176 -2.67676 0 
-0.901671 -2.67142 0 
-0.691918 -2.67723 0 
-0.47309 -2.67164 0 
-0.263923 -2.66637 0 
-0.0525904 -2.66252 0 
0.159685 -2.66361 0 
0.384337 -2.67861 0 
0.599873 -2.67508 0 
0.822204 -2.68047 0 
1.03175 -2.67148 0 
1.25452 -2.68271 0 
1.47065 -2.67714 0 
1.68198 -2.67331 0 
1.90081 -2.67983 0 
2.11116 -2.67308 0 
2.32743 -2.67761 0 
2.53965 -2.67355 0 
2.75893 -2.67778 0 
2.96819 -2.66967 0 
3.18345 -2.67313 0 
3.39569 -2.6694 0 
3.60888 -2.6694 0 
3.82002 -2.66835 0 
4.03333 -2.66817 0 
4.25168 -2.67501 0 
4.46529 -2.67019 0 
4.67823 -2.66944 0 
4.89291 -2.66989 0 
5.10506 -2.66826 0 
5.32018 -2.67064 0 
5.53323 -2.6686 0 
5.74539 -2.66824 0 
5.95736 -2.66843 0 
6.1691 -2.66745 0 
6.38049 -2.66779 0 
6.59237 -2.66744 0 
6.80452 -2.66751 0 
7.01692 -2.66595 0 
7.22871 -2.66467 0 
7.44151 -2.66328 0 
7.65715 -2.66269 0 
7.87366 -2.66188 0 
8.08779 -2.65452 0 
8.32581 -2.73101 0 
8.53831 -2.66933 0 
-8.53831 -2.50112 0 
-8.26766 -2.45294 0 
-8.04108 -2.44308 0 
-7.79609 -2.46142 0 
-7.54978 -2.47977 0 
-7.33212 -2.46028 0 
-7.09216 -2.48102 0 
-6.87053 -2.45939 0 
-6.64737 -2.45091 0 
-6.42623 -2.4506 0 
-6.20461 -2.45233 0 
-5.98506 -2.45394 0 
-5.76442 -2.45783 0 
-5.54864 -2.45037 0 
-5.33333 -2.46094 0 
-5.11777 -2.45324 0 
-4.90262 -2.45965 0 
-4.68896 -2.45921 0 
-4.475 -2.46212 0 
-4.26332 -2.46344 0 
-4.05043 -2.45518 0 
-3.84326 -2.43975 0 
-3.63869 -2.46129 0 
-3.42281 -2.46132 0 
-3.21319 -2.45531 0 
-3.00023 -2.47081 0 
-2.78249 -2.47294 0 
-2.56563 -2.46488 0 
-2.36136 -2.45223 0 
-2.14628 -2.47117 0 
-1.93445 -2.46566 0 
-1.72357 -2.45338 0 
-1.50952 -2.46934 0 
-1.29695 -2.46519 0 
-1.07881 -2.47386 0 
-0.869399 -2.45694 0 
-0.655045 -2.47489 0 
-0.448701 -2.44693 0 
-0.245611 -2.44353 0 
-0.0474223 -2.4251 0 
0.150015 -2.44202 0 
0.360259 -2.47463 0 
0.575594 -2.46617 0 
0.790595 -2.48201 0 
1.00851 -2.45763 0 
1.21877 -2.48451 0 
1.43613 -2.4742 0 
1.65085 -2.46256 0 
1.86164 -2.4788 0 
2.07399 -2.46281 0 
2.28378 -2.47358 0 
2.49474 -2.46528 0 
2.70895 -2.47777 0 
2.92277 -2.45627 0 
3.13176 -2.46515 0 
3.34192 -2.45769 0 
3.55314 -2.45726 0 
3.76207 -2.45216 0 
3.96978 -2.456 0 
4.18767 -2.46836 0 
4.40068 -2.4607 0 
4.61425 -2.45722 0 
4.82773 -2.46012 0 
5.04166 -2.45474 0 
5.25605 -2.46136 0 
5.47129 -2.4576 0 
5.68581 -2.45555 0 
5.89904 -2.4555 0 
6.11176 -2.45487 0 
6.32598 -2.45409 0 
6.53924 -2.4549 0 
6.75475 -2.45469 0 
6.97025 -2.45321 0 
7.18753 -2.44906 0 
7.40379 -2.44766 0 
7.62415 -2.44968 0 
7.85047 -2.44794 0 
8.07643 -2.43777 0 
8.30554 -2.51938 0 
8.53831 -2.4572 0 
-8.53831 -2.27335 0 
-8.33158 -2.28201 0 
-8.07277 -2.22708 0 
-7.83789 -2.26143 0 
-7.58899 -2.28489 0 
-7.35651 -2.23805 0 
-7.14196 -2.28172 0 
-6.92241 -2.24937 0 
-6.70309 -2.23948 0 
-6.48272 -2.23538 0 
-6.26428 -2.23857 0 
-6.04594 -2.23908 0 
-5.82797 -2.24631 0 
-5.61378 -2.23757 0 
-5.39552 -2.24427 0 
-5.18733 -2.24426 0 
-4.96759 -2.24726 0 
-4.75478 -2.24798 0 
-4.54046 -2.25168 0 
-4.32841 -2.25038 0 
-4.12036 -2.24766 0 
-3.90991 -2.22732 0 
-3.69353 -2.23289 0 
-3.49385 -2.25703 0 
-3.27733 -2.2443 0 
-3.05943 -2.25879 0 
-2.8462 -2.27153 0 
-2.62599 -2.26564 0 
-2.40942 -2.23477 0 
-2.19759 -2.26183 0 
-1.98591 -2.25571 0 
-1.77378 -2.24436 0 
-1.55013 -2.25697 0 
-1.33655 -2.25457 0 
-1.11681 -2.26831 0 
-0.898391 -2.24367 0 
-0.680685 -2.26113 0 
-0.467028 -2.22604 0 
-0.253063 -2.20945 0 
-0.0451837 -2.19068 0 
0.15944 -2.20628 0 
0.363796 -2.26025 0 
0.579192 -2.25503 0 
0.801861 -2.27556 0 
1.02639 -2.2529 0 
1.24765 -2.27906 0 
1.46569 -2.26675 0 
1.66339 -2.23544 0 
1.86124 -2.27166 0 
2.07059 -2.25116 0 
2.28067 -2.26549 0 
2.48923 -2.25127 0 
2.69445 -2.27402 0 
2.89152 -2.23576 0 
3.09424 -2.25104 0 
3.29868 -2.24774 0 
3.51034 -2.24449 0 
3.71898 -2.23779 0 
3.92836 -2.23617 0 
4.13825 -2.26205 0 
4.35265 -2.25013 0 
4.56487 -2.24681 0 
4.78001 -2.24796 0 
4.9915 -2.24452 0 
5.20939 -2.24951 0 
5.4223 -2.24901 0 
5.63917 -2.24573 0 
5.85534 -2.24359 0 
6.0693 -2.24226 0 
6.28361 -2.24364 0 
6.50065 -2.2423 0 
6.71635 -2.2448 0 
6.9353 -2.24198 0 
7.15419 -2.2388 0 
7.37651 -2.23296 0 
7.59778 -2.23768 0 
7.82528 -2.24094 0 
8.06021 -2.22785 0 
8.30003 -2.30553 0 
8.53831 -2.24506 0 
-8.42388 -2.03735 0 
-8.21086 -2.06975 0 
-7.90262 -2.05409 0 
-7.71228 -1.89926 0 
-7.64448 -2.09589 0 
-7.39853 -2.04324 0 
-7.14 -2.0664 0 
-6.91345 -2.03548 0 
-6.68599 -2.02683 0 
-6.45946 -2.02219 0 
-6.23491 -2.02608 0 
-6.00847 -2.02915 0 
-5.79251 -2.03018 0 
-5.5654 -2.03122 0 
-5.35533 -2.02455 0 
-5.13254 -2.0414 0 
-4.91482 -2.03618 0 
-4.69699 -2.04028 0 
-4.48457 -2.04002 0 
-4.27688 -2.03315 0 
-4.07051 -2.03007 0 
-3.846 -2.02269 0 
-3.63983 -2.01162 0 
-3.43666 -2.04925 0 
-3.20855 -2.0452 0 
-2.99439 -2.05395 0 
-2.78124 -2.06934 0 
-2.57054 -2.05208 0 
-2.38256 -1.98868 0 
-2.20299 -2.04832 0 
-1.99606 -2.04292 0 
-1.78614 -2.02796 0 
-1.57084 -2.05339 0 
-1.34389 -2.03802 0 
-1.12833 -2.05807 0 
-0.909828 -2.02894 0 
-0.690509 -2.04483 0 
-0.474981 -1.99841 0 
-0.26685 -1.97358 0 
-0.0561228 -1.95367 0 
0.161726 -1.96289 0 
0.366638 -2.03518 0 
0.577696 -2.02655 0 
0.78995 -2.06933 0 
1.0134 -2.04212 0 
1.23842 -2.0722 0 
1.4344 -2.04061 0 
1.66742 -2.03687 0 
1.89434 -2.05451 0 
2.0944 -2.02438 0 
2.2883 -2.05496 0 
2.48048 -2.02434 0 
2.68014 -2.05659 0 
2.88909 -2.02248 0 
3.09702 -2.03465 0 
3.3103 -2.03589 0 
3.51866 -2.03204 0 
3.7309 -2.02157 0 
3.94296 -2.02555 0 
4.15754 -2.05249 0 
4.37103 -2.03721 0 
4.58805 -2.03778 0 
4.79797 -2.03307 0 
5.01869 -2.03849 0 
5.23018 -2.03637 0 
5.44599 -2.04019 0 
5.66193 -2.03607 0 
5.87448 -2.03096 0 
6.08755 -2.03003 0 
6.30307 -2.03393 0 
6.51743 -2.03044 0 
6.73348 -2.03486 0 
6.94918 -2.02977 0 
7.16778 -2.02759 0 
7.38557 -2.01819 0 
7.60966 -2.02701 0 
7.84088 -2.03361 0 
8.07416 -2.01946 0 
8.30402 -2.0976 0 
8.53831 -2.03293 0 
-8.53831 -1.832 0 
-8.30513 -1.81397 0 
-8.08033 -1.90212 0 
-7.88909 -1.78697 0 
-7.48149 -1.86429 0 
-7.3607 -1.69896 0 
-7.20191 -1.87468 0 
-6.96824 -1.83004 0 
-6.73881 -1.81701 0 
-6.51254 -1.81178 0 
-6.28574 -1.81313 0 
-6.0616 -1.82101 0 
-5.83757 -1.81248 0 
-5.62056 -1.82879 0 
-5.3977 -1.8058 0 
-5.18166 -1.8346 0 
-4.96168 -1.83002 0 
-4.73897 -1.83343 0 
-4.52037 -1.82813 0 
-4.3095 -1.81735 0 
-4.10112 -1.81267 0 
-3.89207 -1.82738 0 
-3.66685 -1.7953 0 
-3.45232 -1.8256 0 
-3.25232 -1.85481 0 
-3.0159 -1.84668 0 
-2.79866 -1.86123 0 
-2.60568 -1.82784 0 
-2.37004 -1.79351 0 
-2.14178 -1.82356 0 
-1.93851 -1.81977 0 
-1.71313 -1.8218 0 
-1.49941 -1.84243 0 
-1.27036 -1.82475 0 
-1.06192 -1.83081 0 
-0.864526 -1.76736 0 
-0.68876 -1.82088 0 
-0.48034 -1.7532 0 
-0.275693 -1.72428 0 
-0.0597636 -1.70731 0 
0.156118 -1.72535 0 
0.382761 -1.79845 0 
0.607279 -1.80258 0 
0.826114 -1.8509 0 
1.00179 -1.76803 0 
1.18487 -1.85585 0 
1.39133 -1.80818 0 
1.59911 -1.8432 0 
1.84527 -1.85059 0 
2.05674 -1.80722 0 
2.2692 -1.82575 0 
2.48331 -1.81493 0 
2.69513 -1.84059 0 
2.9048 -1.80861 0 
3.11322 -1.82291 0 
3.31934 -1.82399 0 
3.53075 -1.81601 0 
3.7399 -1.81035 0 
3.94534 -1.80195 0 
4.1481 -1.84244 0 
4.35878 -1.82232 0 
4.56878 -1.8302 0 
4.7863 -1.81661 0 
4.99582 -1.83438 0 
5.21748 -1.82165 0 
5.42754 -1.83048 0 
5.64208 -1.8275 0 
5.85767 -1.81846 0 
6.07021 -1.81788 0 
6.28442 -1.8239 0 
6.50025 -1.81942 0 
6.71699 -1.82383 0 
6.9335 -1.81761 0 
7.15168 -1.81609 0 
7.37243 -1.80383 0 
7.59551 -1.81556 0 
7.82483 -1.82684 0 
8.06173 -1.81172 0 
8.30176 -1.88276 0 
8.53831 -1.8208 0 
-8.53831 -1.6154 0 
-8.32106 -1.58103 0 
[...]
POINT_DATA 2202 
VECTORS vectors float
-0.000223624 -0.000303184 1 
0.000249513 -0.0133098 0.999911 
-0.000168988 -0.0177278 0.999843 
1.12067e-05 -0.0189608 0.99982 
-3.65099e-05 -0.0185043 0.999829 
-3.95708e-05 -0.0168177 0.999859 
-2.75465e-05 -0.0145611 0.999894 
-3.01575e-05 -0.0122661 0.999925 
-3.75409e-05 -0.0101003 0.999949 
-2.76035e-05 -0.00796717 0.999968 
-3.37538e-05 -0.00579042 0.999983 
-3.29235e-05 -0.00356441 0.999994 
-2.91601e-05 -0.00128422 0.999999 
-3.69431e-05 0.00104693 0.999999 
-2.68684e-05 0.00349135 0.999994 
-3.57935e-05 0.00614083 0.999981 
-3.08954e-05 0.00910744 0.999959 
-2.9971e-05 0.0125531 0.999921 
-3.51331e-05 0.0166361 0.999862 
-3.09579e-05 0.0215712 0.999767 
-2.51238e-05 0.0276247 0.999618 
-4.20094e-05 0.0350487 0.999386 
-2.15665e-05 0.0442171 0.999022 
-3.16289e-05 0.0556238 0.998452 
-3.28301e-05 0.0697552 0.997564 
-2.573e-05 0.0872839 0.996183 
-2.88909e-05 0.109061 0.994035 
-2.42841e-05 0.136067 0.9907 
-2.80341e-05 0.169458 0.985537 
-2.25389e-05 0.210542 0.977585 
-1.57061e-05 0.26091 0.965363 
-2.5418e-05 0.322116 0.9467 
-8.21691e-06 0.395357 0.918528 
-1.44143e-05 0.481484 0.876455 
-3.73802e-06 0.579535 0.814947 
-5.3805e-06 0.686339 0.727282 
9.87065e-07 0.794568 0.607175 
2.50437e-06 0.891121 0.453765 
-2.75622e-07 0.963917 0.266203 
1.47167e-06 0.998461 0.0554662 
-1.70142e-06 0.987123 -0.159963 
-7.11605e-07 0.932336 -0.361593 
-1.09298e-06 0.845298 -0.534296 
-7.75271e-07 0.740819 -0.671705 
8.72522e-06 0.63247 -0.774585 
4.85514e-06 0.529449 -0.848342 
1.29539e-05 0.437104 -0.899411 
2.05139e-05 0.357335 -0.933976 
1.20242e-05 0.290175 -0.956974 
2.92871e-05 0.234581 -0.972097 
1.72226e-05 0.189022 -0.981973 
3.28284e-05 0.151946 -0.988389 
1.89714e-05 0.121902 -0.992542 
3.59413e-05 0.0976344 -0.995222 
2.34311e-05 0.0780672 -0.996948 
3.27092e-05 0.0623045 -0.998057 
2.96626e-05 0.0496051 -0.998769 
2.83874e-05 0.0393655 -0.999225 
3.64748e-05 0.0311024 -0.999516 
2.54149e-05 0.0243933 -0.999702 
3.49503e-05 0.0189242 -0.999821 
3.2495e-05 0.0144344 -0.999896 
2.86966e-05 0.0106787 -0.999943 
3.55926e-05 0.00748071 -0.999972 
2.97167e-05 0.00467878 -0.999989 
3.26636e-05 0.00212982 -0.999998 
3.30198e-05 -0.000267924 -1 
3.09533e-05 -0.00260113 -0.999997 
3.28805e-05 -0.00490875 -0.999988 
3.18341e-05 -0.00718902 -0.999974 
3.20064e-05 -0.00944067 -0.999955 
3.22996e-05 -0.0116932 -0.999932 
3.39332e-05 -0.0140263 -0.999902 
2.42799e-05 -0.016521 -0.999864 
4.43668e-05 -0.0189398 -0.999821 
2.77544e-05 -0.0207719 -0.999784 
1.79822e-05 -0.021188 -0.999776 
4.1169e-05 -0.0206451 -0.999787 
7.66234e-05 -0.0167359 -0.99986 
-0.000111419 -0.000626228 -1 
0.000134973 0.000269134 1 
0.0052121 -0.0090488 0.999945 
0.00700487 -0.01474 0.999867 
0.00842734 -0.0176826 0.999808 
0.00894655 -0.0183393 0.999792 
0.00914372 -0.0174158 0.999807 
0.00944429 -0.0155305 0.999835 
0.00954821 -0.0131327 0.999868 
0.00972934 -0.0108465 0.999894 
0.00985859 -0.00861803 0.999914 
0.00991535 -0.00639801 0.99993 
0.00993844 -0.00415493 0.999942 
0.00996884 -0.00186947 0.999949 
0.0100094 0.000504736 0.99995 
0.0099804 0.00293268 0.999946 
0.0100254 0.00561237 0.999934 
0.009974 0.00854522 0.999914 
0.00991358 0.0119601 0.999879 
0.00981835 0.0159849 0.999824 
0.00969497 0.0208475 0.999736 
0.00962367 0.0268392 0.999593 
0.00953237 0.0341826 0.99937 
0.00919824 0.0428008 0.999041 
0.0090112 0.0539738 0.998502 
0.00869207 0.0678919 0.997655 
0.00827145 0.0847507 0.996368 
0.00785821 0.106375 0.994295 
0.00736123 0.133571 0.991012 
0.00677636 0.166888 0.985953 
0.00610017 0.206447 0.978439 
0.00535871 0.257191 0.966346 
0.00454959 0.318806 0.947809 
0.00364615 0.390402 0.920637 
0.00277054 0.477719 0.878509 
0.00188654 0.57612 0.817363 
0.00113731 0.686305 0.727313 
0.000511407 0.792503 0.609868 
9.46379e-05 0.89317 0.449719 
-9.86349e-05 0.964495 0.264101 
-0.000112584 0.998519 0.054409 
-8.47e-05 0.986885 -0.161425 
-0.000106305 0.927584 -0.373615 
-0.000372312 0.837533 -0.546386 
-0.000839918 0.727416 -0.686196 
-0.00157914 0.620805 -0.783963 
-0.00238709 0.514264 -0.857629 
-0.00331046 0.422317 -0.906442 
-0.00423294 0.345155 -0.938536 
-0.00504194 0.278309 -0.960478 
-0.00585372 0.225262 -0.974281 
-0.00652058 0.180723 -0.983512 
-0.00718597 0.145202 -0.989376 
-0.00767058 0.115623 -0.993264 
-0.00818527 0.0928547 -0.995646 
-0.00852489 0.0739845 -0.997223 
-0.00887911 0.0590295 -0.998217 
-0.00912746 0.0469173 -0.998857 
-0.00936344 0.0372454 -0.999262 
-0.00957888 0.0293426 -0.999524 
-0.00962752 0.0227968 -0.999694 
-0.0098018 0.0175898 -0.999797 
-0.00991973 0.0132986 -0.999862 
-0.00998229 0.00967525 -0.999903 
-0.010054 0.00660222 -0.999928 
-0.0100606 0.00384519 -0.999942 
-0.0100961 0.00134618 -0.999948 
-0.0100975 -0.00101337 -0.999949 
-0.0100818 -0.00329963 -0.999944 
-0.0100634 -0.0055468 -0.999934 
-0.0100042 -0.00777523 -0.99992 
-0.00992754 -0.0100085 -0.999901 
-0.00980953 -0.0122715 -0.999877 
-0.00966956 -0.0146028 -0.999847 
-0.00948793 -0.0169417 -0.999811 
-0.00925381 -0.018947 -0.999778 
-0.00881593 -0.0201757 -0.999758 
-0.00804881 -0.0204043 -0.999759 
-0.00698099 -0.0182209 -0.99981 
-0.00498049 -0.0131642 -0.999901 
0.000193943 0.000762002 -1 
-0.000157665 4.35756e-05 1 
0.00610454 -0.011705 0.999913 
0.00965167 -0.0168987 0.999811 
0.0108884 -0.0182277 0.999775 
0.0117809 -0.0178146 0.999772 
0.0125181 -0.0167297 0.999782 
0.0126193 -0.0145771 0.999814 
0.0131671 -0.0122897 0.999838 
0.0134878 -0.0100081 0.999859 
0.0136296 -0.00777092 0.999877 
0.0137022 -0.00554391 0.999891 
0.0137726 -0.00332468 0.9999 
0.0138055 -0.00103076 0.999904 
0.0139945 0.00132197 0.999901 
0.0138511 0.00382452 0.999897 
0.0139728 0.00657289 0.999881 
0.0138411 0.00967307 0.999857 
0.0137804 0.0132623 0.999817 
0.0136067 0.0175467 0.999753 
0.0133844 0.0226806 0.999653 
0.0133018 0.0289972 0.999491 
0.0132487 0.0365607 0.999244 
0.0126081 0.0456951 0.998876 
0.0121928 0.0576415 0.998263 
0.0118308 0.0720666 0.99733 
0.0110465 0.0901874 0.995864 
0.0103195 0.113266 0.993511 
0.00968016 0.141886 0.989836 
0.00894887 0.175216 0.984489 
0.0078062 0.218155 0.975883 
0.00680541 0.269986 0.96284 
0.0057686 0.33235 0.943138 
0.00455729 0.407988 0.912976 
0.00343832 0.496008 0.868311 
0.00237412 0.598098 0.80142 
0.00153021 0.703697 0.710499 
0.000774956 0.811715 0.584053 
0.000311877 0.903138 0.42935 
5.79156e-05 0.969312 0.245834 
-0.000100219 0.998798 0.0490082 
-0.000235836 0.988492 -0.15127 
-0.000377193 0.936354 -0.351056 
-0.0007064 0.849038 -0.528331 
-0.00126612 0.74468 -0.667421 
-0.00210772 0.632938 -0.774199 
-0.00304822 0.532135 -0.846654 
-0.00419402 0.437308 -0.899302 
-0.00537562 0.356444 -0.934301 
-0.00646238 0.290562 -0.956834 
-0.00757036 0.234537 -0.972078 
-0.00854136 0.18993 -0.98176 
-0.00940777 0.152604 -0.988243 
-0.0101604 0.122469 -0.99242 
-0.0110045 0.0977896 -0.995146 
-0.0115421 0.0785497 -0.996843 
-0.0120913 0.0628636 -0.997949 
-0.0125227 0.0501168 -0.998665 
-0.0129495 0.0399296 -0.999119 
-0.0131644 0.0317118 -0.99941 
-0.0132389 0.0247318 -0.999606 
-0.013568 0.0191842 -0.999724 
-0.0137902 0.0146072 -0.999798 
-0.0138504 0.0107901 -0.999846 
-0.0140129 0.00753529 -0.999873 
-0.0139612 0.00467636 -0.999892 
-0.0140446 0.00208264 -0.999899 
-0.0140815 -0.000331018 -0.999901 
-0.014052 -0.00262588 -0.999898 
-0.0139975 -0.00485521 -0.99989 
-0.0139198 -0.00708295 -0.999878 
-0.0137589 -0.00931955 -0.999862 
-0.0135557 -0.0116056 -0.999841 
-0.0133006 -0.0139279 -0.999815 
-0.0129986 -0.0162677 -0.999783 
-0.0125025 -0.0182325 -0.999756 
-0.0117115 -0.0194423 -0.999742 
-0.0106277 -0.0200502 -0.999742 
-0.00876872 -0.0182314 -0.999795 
-0.00448272 -0.0128907 -0.999907 
-0.000413932 -0.00018026 -1 
-0.000150308 3.41498e-05 1 
0.00486125 -0.0115331 0.999922 
0.0101316 -0.0170657 0.999803 
0.0118392 -0.0182707 0.999763 
0.0130485 -0.0177646 0.999757 
0.0139147 -0.0168999 0.99976 
0.0143423 -0.0150411 0.999784 
0.0146468 -0.0127707 0.999811 
0.0148541 -0.0105146 0.999834 
0.0150291 -0.00826187 0.999853 
0.0151796 -0.00606576 0.999866 
0.0153065 -0.00389224 0.999875 
0.0153851 -0.00167509 0.99988 
0.015463 0.000614938 0.99988 
0.0154779 0.00310661 0.999875 
0.0154851 0.00569399 0.999864 
0.0154329 0.0087547 0.999843 
0.0153407 0.012182 0.999808 
0.0152049 0.0162659 0.999752 
0.0149924 0.0211391 0.999664 
0.0147048 0.0269556 0.999528 
0.0143964 0.0341823 0.999312 
0.0139832 0.0433409 0.998962 
0.013555 0.0537164 0.998464 
0.0130333 0.0676944 0.997621 
0.0124028 0.0851789 0.996288 
0.011679 0.10648 0.994246 
0.0107643 0.133838 0.990945 
0.00972291 0.167305 0.985857 
0.00872264 0.207874 0.978117 
0.00760606 0.257534 0.966239 
0.0063987 0.316943 0.948423 
0.00515328 0.393395 0.919355 
0.00402478 0.479444 0.877563 
0.00290906 0.580494 0.814259 
0.0019297 0.68869 0.725054 
0.00113629 0.799271 0.600969 
0.000575473 0.896346 0.443354 
0.000157075 0.967299 0.253638 
-0.000173877 0.998901 0.0468783 
-0.00044674 0.987039 -0.160483 
-0.000672055 0.935128 -0.354309 
-0.00108221 0.847988 -0.530015 
-0.00168771 0.739163 -0.673524 
-0.002615 0.625143 -0.780506 
-0.00366242 0.519132 -0.854686 
-0.00479707 0.426274 -0.904581 
-0.00584197 0.353399 -0.935454 
-0.00696768 0.291201 -0.956637 
-0.00816061 0.236421 -0.971616 
-0.00921452 0.191072 -0.981533 
-0.0102392 0.154312 -0.987969 
-0.0110715 0.124741 -0.992128 
-0.011847 0.101733 -0.994741 
-0.012507 0.0823241 -0.996527 
-0.0130967 0.06624 -0.997718 
-0.0135933 0.0528242 -0.998511 
-0.0140247 0.0421368 -0.999013 
-0.014394 0.0334023 -0.999338 
-0.0147657 0.0263988 -0.999542 
-0.0150285 0.0204958 -0.999677 
-0.0152217 0.0157127 -0.999761 
-0.0153665 0.0116844 -0.999814 
-0.0155077 0.00832627 -0.999845 
-0.0155782 0.00531897 -0.999865 
-0.0156224 0.00268424 -0.999874 
-0.0156199 0.000203843 -0.999878 
-0.0155745 -0.00213333 -0.999876 
-0.0155008 -0.00435922 -0.99987 
-0.0153897 -0.00656147 -0.99986 
-0.0152274 -0.00882474 -0.999845 
-0.014992 -0.0111156 -0.999826 
-0.0146632 -0.0134612 -0.999802 
-0.0142244 -0.0158071 -0.999774 
-0.0136151 -0.0178453 -0.999748 
-0.0127391 -0.0189583 -0.999739 
-0.011456 -0.0196346 -0.999742 
-0.00971287 -0.0184409 -0.999783 
-0.00567274 -0.0132212 -0.999897 
6.26783e-05 0.00013117 -1 
0.00135962 -0.0114046 0.999934 
0.00730836 -0.0137623 0.999879 
0.0106493 -0.0187443 0.999768 
0.0113432 -0.0183591 0.999767 
0.0123483 -0.0179501 0.999763 
0.013081 -0.0172169 0.999766 
0.0138267 -0.014985 0.999792 
0.014114 -0.0126707 0.99982 
0.0144066 -0.0103157 0.999843 
0.0146346 -0.00798462 0.999861 
0.0148226 -0.0057326 0.999874 
0.0149688 -0.00349349 0.999882 
0.0150771 -0.00129324 0.999885 
0.0151578 0.00116579 0.999884 
0.0151751 0.00362146 0.999878 
0.0152007 0.00647487 0.999863 
0.0151252 0.00964072 0.999839 
0.015013 0.013326 0.999798 
0.014843 0.0176087 0.999735 
0.0146017 0.0226632 0.999637 
0.0143051 0.0287647 0.999484 
0.0139098 0.036944 0.999221 
0.0134455 0.0462877 0.998838 
0.0130584 0.0574998 0.99826 
0.0123849 0.0732308 0.997238 
0.0116996 0.0917292 0.995715 
0.0109798 0.114678 0.993342 
0.010022 0.142466 0.989749 
0.00902108 0.173012 0.984878 
0.00832543 0.207679 0.978162 
0.00720937 0.255192 0.966864 
0.00610483 0.314758 0.949152 
0.00504161 0.386641 0.922216 
0.00392357 0.476778 0.879015 
0.00298371 0.574614 0.818419 
0.00214171 0.684007 0.729472 
0.00141843 0.794759 0.606924 
0.000886443 0.893195 0.449669 
0.000347755 0.964008 0.265872 
-0.000161217 0.998341 0.0575802 
-0.000651588 0.986621 -0.163028 
-0.00101222 0.934114 -0.356973 
-0.00143908 0.848829 -0.528666 
-0.0019473 0.745486 -0.666519 
-0.0027522 0.632506 -0.774551 
-0.0036189 0.523398 -0.852081 
-0.00450142 0.439644 -0.898161 
-0.00562075 0.353548 -0.9354 
-0.00680415 0.282512 -0.95924 
-0.00778669 0.231923 -0.972703 
-0.00881368 0.190292 -0.981688 
-0.00962525 0.156388 -0.987649 
-0.0105943 0.127258 -0.991813 
-0.0113007 0.102648 -0.994654 
-0.0120333 0.082372 -0.996529 
-0.0126932 0.0658106 -0.997751 
-0.0132184 0.0527028 -0.998523 
-0.0136477 0.0419051 -0.999028 
-0.014042 0.0331628 -0.999351 
-0.0144797 0.0259861 -0.999557 
-0.0146724 0.0201792 -0.999689 
-0.0149287 0.0153671 -0.99977 
-0.0150938 0.0114803 -0.99982 
-0.0152419 0.00799765 -0.999852 
-0.0153125 0.00509704 -0.99987 
-0.0153621 0.00242987 -0.999879 
-0.0153477 -3.66942e-05 -0.999882 
-0.0152879 -0.00232407 -0.99988 
-0.0151951 -0.00452005 -0.999874 
-0.0150662 -0.00671627 -0.999864 
-0.0148573 -0.00895294 -0.99985 
-0.0145992 -0.011261 -0.99983 
-0.0142149 -0.0135765 -0.999807 
-0.0137102 -0.0159055 -0.999779 
-0.0130133 -0.0178568 -0.999756 
-0.0120621 -0.0189106 -0.999748 
-0.0106634 -0.0193451 -0.999756 
-0.00875527 -0.0180984 -0.999798 
-0.00529739 -0.0132497 -0.999898 
-1.33877e-05 0.000113781 -1 
-0.000153321 -1.78086e-05 1 
0.00468172 -0.0121369 0.999915 
0.00877764 -0.017335 0.999811 
0.00994244 -0.019016 0.99977 
0.0123173 -0.0177339 0.999767 
0.0120213 -0.0171991 0.99978 
0.0131357 -0.0156871 0.999791 
0.0134594 -0.0132861 0.999821 
0.0137412 -0.0108728 0.999846 
0.0139641 -0.00851566 0.999866 
0.0141646 -0.00622539 0.99988 
0.0143575 -0.00401967 0.999889 
0.0144509 -0.00176536 0.999894 
0.0146038 0.000557149 0.999893 
0.0145518 0.00313343 0.999889 
0.0146696 0.00586422 0.999875 
0.0145958 0.00899508 0.999853 
0.0144909 0.0126719 0.999815 
0.0142921 0.0169731 0.999754 
0.0140181 0.0219828 0.99966 
0.0137103 0.0279939 0.999514 
0.0134223 0.0353499 0.999285 
0.0128184 0.04526 0.998893 
0.01245 0.0569208 0.998301 
0.0120233 0.0702841 0.997455 
0.0111941 0.0900623 0.995873 
0.0104707 0.112861 0.993556 
0.00959329 0.138197 0.990358 
0.00848 0.176171 0.984323 
0.00746517 0.221198 0.9752 
0.00650151 0.271359 0.962456 
0.00545165 0.338386 0.940992 
0.00451055 0.414338 0.910112 
0.00352947 0.509851 0.860256 
0.00276592 0.608519 0.793534 
0.00215821 0.707263 0.706947 
0.00168675 0.795773 0.605593 
0.00121357 0.891038 0.453928 
0.000620552 0.961796 0.273765 
-7.54804e-05 0.998144 0.0609 
-0.000768153 0.987507 -0.157575 
-0.00132696 0.928441 -0.371478 
-0.0018801 0.835786 -0.549052 
-0.00233458 0.727593 -0.686006 
-0.0028662 0.638461 -0.769649 
-0.00344852 0.549882 -0.835235 
-0.00421684 0.458251 -0.888813 
-0.00512234 0.377772 -0.925884 
-0.00623727 0.297699 -0.954639 
-0.00711256 0.241094 -0.970476 
-0.00815936 0.194779 -0.980813 
-0.00908055 0.156621 -0.987617 
-0.0100487 0.125862 -0.991997 
-0.0106967 0.101186 -0.99481 
-0.0114953 0.081561 -0.996602 
-0.0120956 0.0656116 -0.997772 
-0.0125977 0.0523851 -0.998547 
-0.0130423 0.0417934 -0.999041 
-0.0133883 0.0333452 -0.999354 
-0.0139032 0.0264829 -0.999553 
-0.0141199 0.0207199 -0.999686 
-0.0143714 0.0159136 -0.99977 
-0.0144873 0.0117936 -0.999825 
-0.0146939 0.00841055 -0.999857 
-0.0147295 0.00531478 -0.999877 
-0.0148117 0.00267483 -0.999887 
-0.0147937 0.000190165 -0.999891 
-0.0147041 -0.00214899 -0.99989 
-0.0146035 -0.00433833 -0.999884 
-0.0144819 -0.00650522 -0.999874 
-0.014257 -0.00874794 -0.99986 
-0.0139997 -0.0110738 -0.999841 
-0.0136081 -0.0134137 -0.999817 
-0.0131171 -0.0157411 -0.99979 
-0.0124117 -0.0177568 -0.999765 
-0.011549 -0.0188649 -0.999755 
-0.0102271 -0.0193729 -0.99976 
-0.00835869 -0.0180818 -0.999802 
-0.00506747 -0.0131468 -0.999901 
-6.04306e-05 9.61061e-05 -1 
1.09597e-05 0.000198084 1 
0.00429052 -0.0124054 0.999914 
0.00772774 -0.0170953 0.999824 
0.00904731 -0.0189807 0.999779 
0.0108055 -0.0183069 0.999774 
0.0105339 -0.0178409 0.999785 
0.0121985 -0.0150796 0.999812 
0.0123 -0.0125857 0.999845 
0.0124801 -0.0101809 0.99987 
0.0126985 -0.00782603 0.999889 
0.0129065 -0.00556988 0.999901 
0.013092 -0.00340171 0.999909 
0.0131467 -0.00109334 0.999913 
0.0133117 0.0012475 0.999911 
0.0132314 0.00403677 0.999904 
0.0133841 0.00681913 0.999887 
0.0133192 0.010196 0.999859 
0.013155 0.0140228 0.999815 
0.0128462 0.0184116 0.999748 
0.0125219 0.0236503 0.999642 
0.012244 0.0300955 0.999472 
0.0120467 0.0379177 0.999208 
0.0113895 0.0489828 0.998735 
0.0110027 0.0605565 0.998104 
0.0108636 0.0758822 0.997058 
0.00976058 0.0901299 0.995882 
0.00968874 0.107267 0.994183 
0.00867202 0.131757 0.991244 
0.00798622 0.161931 0.98677 
0.00692151 0.209883 0.977702 
0.00596285 0.259228 0.965798 
0.00522217 0.318213 0.948005 
0.00434372 0.396533 0.91801 
0.00362391 0.481226 0.876589 
0.00292698 0.587413 0.809282 
0.00239487 0.708409 0.705798 
0.0017713 0.83209 0.554638 
0.00126546 0.925278 0.379286 
0.000483468 0.983556 0.180601 
-0.000673885 0.998086 -0.0618446 
-0.000487384 0.998833 -0.0482948 
-0.00131277 0.957002 -0.290078 
-0.00193842 0.87952 -0.475857 
-0.0024452 0.766727 -0.641968 
-0.00304593 0.647635 -0.761945 
-0.00356283 0.532189 -0.846618 
-0.00415089 0.435022 -0.90041 
-0.0051215 0.35177 -0.936072 
-0.00576825 0.286906 -0.957941 
-0.00635475 0.234433 -0.972112 
-0.00732244 0.192636 -0.981243 
-0.00801999 0.156696 -0.987614 
-0.00898161 0.126637 -0.991908 
-0.00953416 0.101325 -0.994808 
-0.01025 0.0809768 -0.996663 
-0.0108606 0.0649736 -0.997828 
-0.0113221 0.0519283 -0.998587 
-0.0116386 0.0414197 -0.999074 
-0.0120339 0.0327934 -0.99939 
-0.0126387 0.025845 -0.999586 
-0.012742 0.0200832 -0.999717 
-0.0131026 0.0153653 -0.999796 
-0.0130891 0.0113663 -0.99985 
-0.0134501 0.00793857 -0.999878 
-0.013351 0.00499721 -0.999898 
-0.0134794 0.00235965 -0.999906 
-0.0134494 -0.000105286 -0.99991 
-0.0133008 -0.00240129 -0.999909 
-0.0132113 -0.00459343 -0.999902 
-0.013104 -0.00674129 -0.999891 
-0.012872 -0.00899425 -0.999877 
-0.012613 -0.0112889 -0.999857 
-0.0122203 -0.0136303 -0.999832 
-0.0117539 -0.0159389 -0.999804 
-0.0110781 -0.017922 -0.999778 
-0.0103262 -0.0189586 -0.999767 
-0.00919001 -0.0193331 -0.999771 
-0.00748964 -0.0179671 -0.999811 
-0.00475092 -0.0130836 -0.999903 
-5.9778e-05 0.000100079 -1 
3.75795e-05 0.000127418 1 
0.00398346 -0.0127946 0.99991 
0.00689323 -0.0176609 0.99982 
0.00750003 -0.019146 0.999789 
0.00919334 -0.0186186 0.999784 
0.00894332 -0.0176862 0.999804 
0.0105201 -0.0158947 0.999818 
0.0105829 -0.0134777 0.999853 
0.0106498 -0.0109877 0.999883 
0.0108524 -0.00860926 0.999904 
0.011074 -0.006344 0.999919 
0.0112382 -0.00415618 0.999928 
0.0113926 -0.00195717 0.999933 
0.0114127 0.000482508 0.999935 
0.0116138 0.00295295 0.999928 
0.0115009 0.00598304 0.999916 
0.0116718 0.00899343 0.999891 
0.0114857 0.0126933 0.999853 
0.0111539 0.0168603 0.999796 
0.0108337 0.0217885 0.999704 
0.0105881 0.0277896 0.999558 
0.0103843 0.0352082 0.999326 
0.0102284 0.0440538 0.998977 
0.00940013 0.0563354 0.998368 
0.00942067 0.070482 0.997469 
0.00843922 0.0891468 0.995983 
0.00793822 0.113311 0.993528 
0.00710504 0.140715 0.990025 
0.00668477 0.177698 0.984062 
0.0056738 0.219257 0.975651 
0.00494753 0.271036 0.962557 
0.00442021 0.33559 0.941998 
0.00376841 0.409441 0.912329 
0.00330375 0.502242 0.864721 
0.00291931 0.607459 0.794345 
0.00263423 0.729803 0.683652 
0.00225073 0.839533 0.543304 
0.00183194 0.929327 0.369253 
0.00069551 0.986873 0.161499 
-0.00124354 0.994597 -0.103803 
-0.00238645 0.957736 -0.287638 
-0.00164966 0.960627 -0.277837 
-0.00250669 0.871791 -0.489872 
-0.00282634 0.771977 -0.635645 
-0.00327947 0.656384 -0.75442 
-0.00350996 0.540695 -0.841211 
-0.00379718 0.4509 -0.892566 
-0.00442836 0.364979 -0.931005 
-0.00485848 0.299738 -0.954009 
-0.00545248 0.238262 -0.971186 
-0.00622832 0.188582 -0.982038 
-0.00684671 0.153228 -0.988167 
-0.00772728 0.124466 -0.992194 
-0.00805714 0.101136 -0.99484 
-0.00876217 0.0817363 -0.996615 
-0.00925289 0.0652769 -0.997824 
-0.00965215 0.0521127 -0.998595 
-0.00999708 0.0413407 -0.999095 
-0.0103314 0.0326201 -0.999414 
-0.010938 0.025584 -0.999613 
-0.0109362 0.0199823 -0.999741 
-0.0113202 0.0154415 -0.999817 
-0.0111824 0.0117199 -0.999869 
-0.0116824 0.00844313 -0.999896 
-0.0115636 0.0054524 -0.999918 
-0.0116414 0.00267703 -0.999929 
-0.0116561 0.000231319 -0.999932 
-0.0115115 -0.0020921 -0.999932 
-0.0114376 -0.00431314 -0.999925 
-0.0113332 -0.00648315 -0.999915 
-0.0111519 -0.00869408 -0.9999 
-0.010858 -0.0110589 -0.99988 
-0.0105267 -0.0133965 -0.999855 