# vtk DataFile Version 3.0 
Exported using Morpho https://github.com/Morpho-lang/morpho 
ASCII 
DATASET UNSTRUCTURED_GRID 

POINTS 2175 float 
-8.32618 -2.88146 0 
-8.11405 -2.88146 0 
-7.90192 -2.88146 0 
-7.68979 -2.88146 0 
-7.47765 -2.88146 0 
-7.26552 -2.88146 0 
-7.05339 -2.88146 0 
-6.84126 -2.88146 0 
-6.62913 -2.88146 0 
-6.41699 -2.88146 0 
-6.20486 -2.88146 0 
-5.99273 -2.88146 0 
-5.7806 -2.88146 0 
-5.56847 -2.88146 0 
-5.35633 -2.88146 0 
-5.1442 -2.88146 0 
-4.93207 -2.88146 0 
-4.71994 -2.88146 0 
-4.50781 -2.88146 0 
-4.29567 -2.88146 0 
-4.08354 -2.88146 0 
-3.87141 -2.88146 0 
-3.65928 -2.88146 0 
-3.44715 -2.88146 0 
-3.23501 -2.88146 0 
-3.02288 -2.88146 0 
-2.81075 -2.88146 0 
-2.59862 -2.88146 0 
-2.38649 -2.88146 0 
-2.17435 -2.88146 0 
-1.96222 -2.88146 0 
-1.75009 -2.88146 0 
-1.53796 -2.88146 0 
-1.32583 -2.88146 0 
-1.11369 -2.88146 0 
-0.901561 -2.88146 0 
-0.689429 -2.88146 0 
-0.477297 -2.88146 0 
-0.265165 -2.88146 0 
-0.053033 -2.88146 0 
0.159099 -2.88146 0 
0.371231 -2.88146 0 
0.583363 -2.88146 0 
0.795495 -2.88146 0 
1.00763 -2.88146 0 
1.21976 -2.88146 0 
1.43189 -2.88146 0 
1.64402 -2.88146 0 
1.85616 -2.88146 0 
2.06829 -2.88146 0 
2.28042 -2.88146 0 
2.49255 -2.88146 0 
2.70468 -2.88146 0 
2.91682 -2.88146 0 
3.12895 -2.88146 0 
3.34108 -2.88146 0 
3.55321 -2.88146 0 
3.76534 -2.88146 0 
3.97748 -2.88146 0 
4.18961 -2.88146 0 
4.40174 -2.88146 0 
4.61387 -2.88146 0 
4.826 -2.88146 0 
5.03814 -2.88146 0 
5.25027 -2.88146 0 
5.4624 -2.88146 0 
5.67453 -2.88146 0 
5.88666 -2.88146 0 
6.0988 -2.88146 0 
6.31093 -2.88146 0 
6.52306 -2.88146 0 
6.73519 -2.88146 0 
6.94732 -2.88146 0 
7.15946 -2.88146 0 
7.37159 -2.88146 0 
7.58372 -2.88146 0 
7.79585 -2.88146 0 
8.00798 -2.88146 0 
8.22012 -2.88146 0 
8.53831 -2.88146 0 
-8.53831 -2.71786 0 
-8.29508 -2.6632 0 
-8.06763 -2.66271 0 
-7.83821 -2.6659 0 
-7.60652 -2.66622 0 
-7.38227 -2.67185 0 
-7.15002 -2.66678 0 
-6.92734 -2.67224 0 
-6.70101 -2.66991 0 
-6.48097 -2.66733 0 
-6.26082 -2.66664 0 
-6.04147 -2.66764 0 
-5.82305 -2.66885 0 
-5.60487 -2.66989 0 
-5.38629 -2.66947 0 
-5.17137 -2.67027 0 
-4.95531 -2.66979 0 
-4.74191 -2.67199 0 
-4.52526 -2.67034 0 
-4.31123 -2.67078 0 
-4.0982 -2.67204 0 
-3.88287 -2.67041 0 
-3.67006 -2.67215 0 
-3.45298 -2.66562 0 
-3.24435 -2.66933 0 
-3.03145 -2.67055 0 
-2.82023 -2.6706 0 
-2.60764 -2.6711 0 
-2.3939 -2.66754 0 
-2.18634 -2.67191 0 
-1.97445 -2.67063 0 
-1.76401 -2.67502 0 
-1.54788 -2.67036 0 
-1.33576 -2.67141 0 
-1.11848 -2.6685 0 
-0.903399 -2.66661 0 
-0.688004 -2.66643 0 
-0.477506 -2.66213 0 
-0.266284 -2.6595 0 
-0.0508841 -2.65837 0 
0.163169 -2.66367 0 
0.37728 -2.66391 0 
0.587302 -2.66164 0 
0.802502 -2.67115 0 
1.01271 -2.66806 0 
1.221 -2.67662 0 
1.43626 -2.68207 0 
1.64775 -2.67572 0 
1.86634 -2.686 0 
2.08075 -2.67801 0 
2.28915 -2.67392 0 
2.49977 -2.67242 0 
2.70806 -2.67003 0 
2.91501 -2.66538 0 
3.12306 -2.67074 0 
3.33401 -2.66898 0 
3.54424 -2.67176 0 
3.76032 -2.66749 0 
3.97224 -2.67332 0 
4.18674 -2.67032 0 
4.40008 -2.66956 0 
4.61234 -2.67005 0 
4.82628 -2.66911 0 
5.0387 -2.6697 0 
5.25242 -2.66976 0 
5.46546 -2.66992 0 
5.6771 -2.66838 0 
5.89166 -2.67048 0 
6.1047 -2.66982 0 
6.31883 -2.67051 0 
6.53277 -2.66998 0 
6.74718 -2.66875 0 
6.96295 -2.6681 0 
7.1786 -2.66672 0 
7.39413 -2.6663 0 
7.6096 -2.66129 0 
7.8254 -2.65632 0 
8.04076 -2.64827 0 
8.29694 -2.7132 0 
8.53831 -2.66933 0 
-8.42903 -2.48559 0 
-8.18737 -2.44465 0 
-7.96236 -2.4513 0 
-7.73167 -2.46002 0 
-7.50511 -2.45114 0 
-7.28307 -2.46961 0 
-7.05176 -2.4545 0 
-6.83507 -2.46519 0 
-6.61969 -2.45335 0 
-6.4048 -2.45347 0 
-6.18815 -2.45403 0 
-5.97315 -2.45532 0 
-5.75855 -2.45756 0 
-5.54234 -2.46047 0 
-5.33121 -2.45585 0 
-5.11933 -2.45946 0 
-4.90978 -2.45659 0 
-4.69759 -2.46328 0 
-4.48533 -2.45904 0 
-4.27633 -2.45864 0 
-4.06434 -2.46297 0 
-3.85377 -2.4584 0 
-3.64035 -2.46411 0 
-3.43304 -2.44724 0 
-3.22073 -2.45874 0 
-3.01369 -2.45734 0 
-2.80203 -2.46013 0 
-2.58961 -2.46153 0 
-2.38409 -2.45032 0 
-2.17616 -2.46051 0 
-1.96619 -2.45819 0 
-1.75269 -2.46858 0 
-1.54277 -2.4568 0 
-1.324 -2.46332 0 
-1.10835 -2.45544 0 
-0.891277 -2.45331 0 
-0.683741 -2.44326 0 
-0.475448 -2.4374 0 
-0.257172 -2.43973 0 
-0.0503039 -2.42819 0 
0.165488 -2.44452 0 
0.376718 -2.44115 0 
0.589332 -2.43995 0 
0.798671 -2.45907 0 
1.00686 -2.45007 0 
1.21518 -2.46699 0 
1.42667 -2.48103 0 
1.64005 -2.47016 0 
1.85524 -2.48972 0 
2.06941 -2.47353 0 
2.28356 -2.46341 0 
2.49135 -2.46399 0 
2.7044 -2.45606 0 
2.91335 -2.45245 0 
3.1253 -2.45821 0 
3.33594 -2.4555 0 
3.55513 -2.46565 0 
3.76713 -2.45344 0 
3.98016 -2.46422 0 
4.19469 -2.45968 0 
4.4061 -2.45688 0 
4.62012 -2.45941 0 
4.83207 -2.45666 0 
5.04517 -2.45926 0 
5.25732 -2.45786 0 
5.46475 -2.45342 0 
5.67272 -2.45516 0 
5.88262 -2.45969 0 
6.09667 -2.45882 0 
6.308 -2.45891 0 
6.52154 -2.45966 0 
6.7346 -2.45652 0 
6.95062 -2.45752 0 
7.16893 -2.45283 0 
7.38686 -2.45065 0 
7.60464 -2.44198 0 
7.82403 -2.43265 0 
8.06236 -2.44178 0 
8.29692 -2.50715 0 
8.53831 -2.4572 0 
-8.53831 -2.26489 0 
-8.31195 -2.26209 0 
-8.0604 -2.23281 0 
-7.82486 -2.25146 0 
-7.59281 -2.24509 0 
-7.35099 -2.25021 0 
-7.13222 -2.26171 0 
-6.88632 -2.24547 0 
-6.67761 -2.23924 0 
-6.45794 -2.237 0 
-6.24014 -2.24192 0 
-6.02024 -2.24194 0 
-5.80255 -2.24484 0 
-5.58411 -2.25151 0 
-5.36633 -2.24188 0 
-5.15291 -2.24638 0 
-4.94113 -2.242 0 
-4.73001 -2.25121 0 
-4.51886 -2.24937 0 
-4.30521 -2.24366 0 
-4.09715 -2.25143 0 
-3.88718 -2.24672 0 
-3.67511 -2.25346 0 
-3.46737 -2.23386 0 
-3.25288 -2.24686 0 
-3.04288 -2.24021 0 
-2.83869 -2.2499 0 
-2.62641 -2.25173 0 
-2.41764 -2.23432 0 
-2.20908 -2.24194 0 
-2.00706 -2.24619 0 
-1.7928 -2.25558 0 
-1.5866 -2.24428 0 
-1.3688 -2.25523 0 
-1.14817 -2.24396 0 
-0.927013 -2.24011 0 
-0.709192 -2.21652 0 
-0.500178 -2.20861 0 
-0.28844 -2.22128 0 
-0.0679806 -2.19158 0 
0.145774 -2.22744 0 
0.373282 -2.21295 0 
0.583523 -2.21847 0 
0.801325 -2.23871 0 
1.01517 -2.23447 0 
1.23153 -2.25379 0 
1.44148 -2.2756 0 
1.6436 -2.2485 0 
1.84517 -2.28877 0 
2.04769 -2.25783 0 
2.25456 -2.25928 0 
2.46979 -2.25004 0 
2.676 -2.2498 0 
2.89062 -2.23836 0 
3.10142 -2.24862 0 
3.31411 -2.24347 0 
3.5289 -2.26086 0 
3.74648 -2.24142 0 
3.96375 -2.25306 0 
4.17585 -2.25045 0 
4.39153 -2.24294 0 
4.60235 -2.24896 0 
4.81652 -2.24449 0 
5.02955 -2.2483 0 
5.2417 -2.24666 0 
5.45546 -2.23847 0 
5.66378 -2.23893 0 
5.87416 -2.24734 0 
6.08474 -2.2481 0 
6.3001 -2.2481 0 
6.51205 -2.24718 0 
6.72571 -2.2455 0 
6.94011 -2.24579 0 
7.15814 -2.24326 0 
7.38014 -2.2357 0 
7.60236 -2.22527 0 
7.83767 -2.22636 0 
8.07174 -2.22998 0 
8.30388 -2.29202 0 
8.53831 -2.24506 0 
-8.42518 -2.04072 0 
-8.20287 -2.04693 0 
-7.95558 -2.03056 0 
-7.73872 -2.03634 0 
-7.5022 -2.04615 0 
-7.28551 -2.0292 0 
-7.06182 -2.06567 0 
-6.86072 -2.01107 0 
-6.64683 -2.02258 0 
-6.4308 -2.02154 0 
-6.21555 -2.02977 0 
-6.0008 -2.02864 0 
-5.78242 -2.0353 0 
-5.56577 -2.04167 0 
-5.35082 -2.02905 0 
-5.13898 -2.03255 0 
-4.92899 -2.02726 0 
-4.71865 -2.03853 0 
-4.50254 -2.04037 0 
-4.29319 -2.02866 0 
-4.08272 -2.03885 0 
-3.86672 -2.03808 0 
-3.66068 -2.03676 0 
-3.43426 -2.03086 0 
-3.22136 -2.03554 0 
-3.01296 -2.02356 0 
-2.79845 -2.04398 0 
-2.58762 -2.03679 0 
-2.36718 -2.02432 0 
-2.16335 -2.01946 0 
-1.94501 -2.04227 0 
-1.73928 -2.03097 0 
-1.51323 -2.04029 0 
-1.28925 -2.0443 0 
-1.05526 -2.03243 0 
-0.832536 -2.01247 0 
-0.609252 -1.98109 0 
-0.388852 -1.98485 0 
-0.177355 -1.9837 0 
0.0764937 -1.98842 0 
0.178295 -1.76166 0 
0.293929 -2.00808 0 
0.534008 -1.9834 0 
0.752686 -2.01892 0 
0.970146 -2.01281 0 
1.19129 -2.04003 0 
1.41302 -2.05897 0 
1.6293 -2.03712 0 
1.84576 -2.07238 0 
2.06211 -2.04532 0 
2.27716 -2.05238 0 
2.48535 -2.034 0 
2.69858 -2.04162 0 
2.90641 -2.01982 0 
3.1107 -2.03862 0 
3.32343 -2.03123 0 
3.53315 -2.05395 0 
3.74211 -2.02412 0 
3.95027 -2.04697 0 
4.16826 -2.03563 0 
4.37635 -2.03416 0 
4.59212 -2.03313 0 
4.80004 -2.03442 0 
5.01414 -2.03634 0 
5.2256 -2.03419 0 
5.4359 -2.02947 0 
5.65068 -2.02426 0 
5.86016 -2.03351 0 
6.07163 -2.03651 0 
6.28337 -2.0388 0 
6.49922 -2.03638 0 
6.71208 -2.03263 0 
6.92625 -2.03463 0 
7.14285 -2.03253 0 
7.36378 -2.02765 0 
7.5899 -2.01442 0 
7.82076 -2.01995 0 
8.05966 -2.01871 0 
8.29879 -2.0727 0 
8.53831 -2.03293 0 
-8.53831 -1.83058 0 
-8.30447 -1.82124 0 
-8.06896 -1.84278 0 
-7.82511 -1.80986 0 
-7.5936 -1.84494 0 
-7.36189 -1.81558 0 
-7.12213 -1.84779 0 
-6.88957 -1.80858 0 
-6.65653 -1.80442 0 
-6.43719 -1.80757 0 
-6.2161 -1.81464 0 
-5.99393 -1.81932 0 
-5.78315 -1.81446 0 
-5.57905 -1.8312 0 
-5.37758 -1.80718 0 
-5.17119 -1.81768 0 
-4.96218 -1.81123 0 
-4.75339 -1.82186 0 
-4.54566 -1.83139 0 
-4.33613 -1.81457 0 
-4.12771 -1.82173 0 
-3.9226 -1.82985 0 
-3.71402 -1.81649 0 
-3.50846 -1.83667 0 
-3.28299 -1.82392 0 
-3.07798 -1.81131 0 
-2.86381 -1.82924 0 
-2.66021 -1.82604 0 
-2.4485 -1.82502 0 
-2.23517 -1.79514 0 
-2.02334 -1.82435 0 
-1.82264 -1.80733 0 
-1.60769 -1.82824 0 
-1.38583 -1.83131 0 
-1.16204 -1.83202 0 
-0.93724 -1.80023 0 
-0.720776 -1.77087 0 
-0.494918 -1.74977 0 
-0.28914 -1.73854 0 
-0.0583526 -1.78553 0 
0.10643 -1.55607 0 
0.391931 -1.78742 0 
0.584062 -1.69556 0 
0.748231 -1.78906 0 
0.957637 -1.78587 0 
1.17623 -1.82215 0 
1.39434 -1.84888 0 
1.63321 -1.84145 0 
1.86956 -1.86738 0 
2.09548 -1.8381 0 
2.30436 -1.83528 0 
2.52266 -1.82526 0 
2.73 -1.8247 0 
2.94579 -1.80502 0 
3.1534 -1.82812 0 
3.36979 -1.82177 0 
3.57272 -1.8361 0 
3.79586 -1.81434 0 
4.00458 -1.83849 0 
4.21544 -1.81716 0 
4.42903 -1.82541 0 
4.63859 -1.81605 0 
4.85104 -1.82495 0 
5.06065 -1.82252 0 
5.27032 -1.81922 0 
5.48199 -1.81919 0 
5.6951 -1.81246 0 
5.90379 -1.82215 0 
6.11447 -1.82506 0 
6.32582 -1.82936 0 
6.53584 -1.82271 0 
6.74657 -1.81943 0 
6.95862 -1.82146 0 
7.17494 -1.82072 0 
7.39491 -1.81599 0 
7.6237 -1.80634 0 
7.8542 -1.81183 0 
8.08481 -1.8045 0 
8.30913 -1.86112 0 
8.53831 -1.8208 0 
-8.53831 -1.61358 0 
-8.29772 -1.61217 0 
-8.05297 -1.63462 0 
[...]
POINT_DATA 2175 
VECTORS vectors float
-8.69344e-05 -0.000443206 1 
5.11672e-05 -0.0176221 0.999845 
-7.4763e-05 -0.0221231 0.999755 
-2.98819e-05 -0.0224659 0.999748 
-4.59795e-05 -0.0208828 0.999782 
-3.87902e-05 -0.0184726 0.999829 
-4.14397e-05 -0.015962 0.999873 
-4.06748e-05 -0.0134868 0.999909 
-4.11542e-05 -0.0110014 0.999939 
-4.08376e-05 -0.00849637 0.999964 
-4.11339e-05 -0.00602046 0.999982 
-4.10155e-05 -0.00361814 0.999993 
-4.09819e-05 -0.0012925 0.999999 
-4.11781e-05 0.00100926 0.999999 
-4.0917e-05 0.00338332 0.999994 
-4.10817e-05 0.00594353 0.999982 
-4.07356e-05 0.00882416 0.999961 
-4.07661e-05 0.0121687 0.999926 
-4.06344e-05 0.0161528 0.99987 
-3.99912e-05 0.0209833 0.99978 
-4.03204e-05 0.0268922 0.999638 
-3.8893e-05 0.0341904 0.999415 
-3.95677e-05 0.0432167 0.999066 
-3.78404e-05 0.0544496 0.998517 
-3.74597e-05 0.0683877 0.997659 
-3.65601e-05 0.0857132 0.99632 
-3.45535e-05 0.107252 0.994232 
-3.37867e-05 0.133993 0.990982 
-3.09327e-05 0.167162 0.985929 
-2.89027e-05 0.208032 0.978122 
-2.54957e-05 0.258239 0.966081 
-2.19491e-05 0.319286 0.947658 
-1.82888e-05 0.392718 0.919659 
-1.14558e-05 0.479063 0.877781 
-1.10666e-05 0.577786 0.816189 
-4.2234e-06 0.685636 0.727945 
-6.16464e-07 0.792836 0.609435 
-2.97164e-06 0.890795 0.454406 
3.12806e-07 0.963994 0.265925 
-5.56415e-07 0.998518 0.0544215 
4.73956e-07 0.986889 -0.161403 
1.83422e-06 0.931674 -0.363295 
-1.47259e-06 0.843923 -0.536464 
6.87728e-06 0.738793 -0.673932 
6.38331e-06 0.628503 -0.777807 
7.06304e-06 0.527242 -0.849715 
2.01138e-05 0.43447 -0.900687 
1.75171e-05 0.354299 -0.935132 
2.444e-05 0.287318 -0.957835 
2.74801e-05 0.231671 -0.972794 
2.98167e-05 0.186391 -0.982476 
3.20206e-05 0.149649 -0.988739 
3.48677e-05 0.119922 -0.992783 
3.54622e-05 0.095592 -0.995421 
3.67911e-05 0.0765513 -0.997066 
3.77696e-05 0.0610364 -0.998136 
3.90143e-05 0.0485031 -0.998823 
3.88825e-05 0.0384207 -0.999262 
3.98e-05 0.0303264 -0.99954 
4.02266e-05 0.0237529 -0.999718 
4.00982e-05 0.0183921 -0.999831 
4.09474e-05 0.0139975 -0.999902 
4.05695e-05 0.010346 -0.999946 
4.10714e-05 0.0072578 -0.999974 
4.0887e-05 0.00452543 -0.99999 
4.13089e-05 0.0020561 -0.999998 
4.07611e-05 -0.000285491 -1 
4.14058e-05 -0.00260745 -0.999997 
4.08387e-05 -0.00499363 -0.999988 
4.1211e-05 -0.00748587 -0.999972 
4.09007e-05 -0.0100635 -0.999949 
4.1169e-05 -0.0126828 -0.99992 
4.01822e-05 -0.0153127 -0.999883 
4.30093e-05 -0.0179929 -0.999838 
3.43309e-05 -0.0207495 -0.999785 
5.63375e-05 -0.0233312 -0.999728 
1.73777e-05 -0.0249029 -0.99969 
5.0944e-05 -0.0246467 -0.999696 
8.38286e-05 -0.0219014 -0.99976 
-8.26289e-05 -0.000588384 -1 
3.41653e-06 0.000153421 1 
0.00696187 -0.0123285 0.9999 
0.00997508 -0.020349 0.999743 
0.010819 -0.0217969 0.999704 
0.011535 -0.021377 0.999705 
0.0117166 -0.0194933 0.999741 
0.0122224 -0.016844 0.999783 
0.0121986 -0.014257 0.999824 
0.0124651 -0.0116358 0.999855 
0.0127001 -0.00909192 0.999878 
0.0128145 -0.00658308 0.999896 
0.012859 -0.00413597 0.999909 
0.0128858 -0.00174967 0.999915 
0.0128915 0.000619532 0.999917 
0.0129456 0.00306028 0.999912 
0.0129315 0.00563926 0.9999 
0.0129313 0.00854599 0.99988 
0.012782 0.0118757 0.999848 
0.0127523 0.0159021 0.999792 
0.012624 0.0207237 0.999706 
0.0124117 0.0266034 0.999569 
0.0122465 0.03395 0.999348 
0.0119054 0.0429497 0.999006 
0.0118409 0.0543967 0.998449 
0.0113866 0.0680343 0.997618 
0.0108879 0.0853393 0.996292 
0.0103785 0.106663 0.994241 
0.00973756 0.133307 0.991027 
0.00913939 0.166546 0.985991 
0.00826043 0.206235 0.978468 
0.00735831 0.255913 0.966672 
0.00625497 0.315836 0.948793 
0.00521742 0.389963 0.920816 
0.00409289 0.475548 0.87968 
0.00301813 0.575849 0.817551 
0.00205937 0.683804 0.729663 
0.00122096 0.794127 0.60775 
0.000635241 0.891281 0.453451 
0.000265008 0.964023 0.26582 
5.40338e-05 0.998675 0.0514568 
-0.000139513 0.986077 -0.166288 
-0.000393876 0.929339 -0.369227 
-0.000798766 0.841815 -0.539765 
-0.00146349 0.735992 -0.676989 
-0.00239373 0.627737 -0.778421 
-0.00337678 0.526336 -0.85027 
-0.00449463 0.433699 -0.901047 
-0.0056605 0.353662 -0.935356 
-0.00656015 0.2855 -0.958356 
-0.00769477 0.229322 -0.97332 
-0.00866357 0.185394 -0.982626 
-0.00945328 0.149142 -0.988771 
-0.0101855 0.12017 -0.992701 
-0.0108783 0.0965546 -0.995268 
-0.0111528 0.0775551 -0.996926 
-0.0115639 0.0618474 -0.998019 
-0.0117844 0.0492491 -0.998717 
-0.0121621 0.0388349 -0.999172 
-0.0122463 0.0307164 -0.999453 
-0.0125287 0.0239837 -0.999634 
-0.0127134 0.0185561 -0.999747 
-0.0128126 0.0141251 -0.999818 
-0.0129311 0.0104125 -0.999862 
-0.0129597 0.00727723 -0.99989 
-0.0130253 0.00453207 -0.999905 
-0.0130292 0.00203893 -0.999913 
-0.0131193 -0.000302563 -0.999914 
-0.0130119 -0.00264927 -0.999912 
-0.0129979 -0.00502412 -0.999903 
-0.0128949 -0.00748853 -0.999889 
-0.0128178 -0.010025 -0.999868 
-0.012705 -0.0126183 -0.99984 
-0.0125415 -0.0152637 -0.999805 
-0.0123359 -0.0179609 -0.999763 
-0.012014 -0.0206598 -0.999714 
-0.0116287 -0.02282 -0.999672 
-0.0109404 -0.0240052 -0.999652 
-0.0094599 -0.0234484 -0.99968 
-0.00513634 -0.0165466 -0.99985 
0.000217907 0.000170034 -1 
0.00473477 -0.0074365 0.999961 
0.0122158 -0.0200232 0.999725 
0.0143752 -0.0216888 0.999661 
0.0156728 -0.0216387 0.999643 
0.0166484 -0.020564 0.99965 
0.0171119 -0.0182906 0.999686 
0.0175852 -0.0155479 0.999724 
0.0178102 -0.01304 0.999756 
0.0180936 -0.0105586 0.999781 
0.0182445 -0.00813218 0.9998 
0.0183759 -0.00573512 0.999815 
0.018482 -0.00338469 0.999823 
0.0185502 -0.00105294 0.999827 
0.0185763 0.00131686 0.999827 
0.0186244 0.0037298 0.99982 
0.0185601 0.00635578 0.999808 
0.0185305 0.00928813 0.999785 
0.0183669 0.0127416 0.99975 
0.0182466 0.0168584 0.999691 
0.0180358 0.0217655 0.9996 
0.0177234 0.0278441 0.999455 
0.017436 0.0352986 0.999225 
0.016943 0.0446334 0.99886 
0.0165917 0.0559128 0.998298 
0.0159235 0.0701602 0.997409 
0.0152987 0.0874303 0.996053 
0.0145053 0.109272 0.993906 
0.0135747 0.136471 0.990551 
0.0126423 0.169018 0.985532 
0.011455 0.209309 0.977782 
0.0102409 0.259091 0.965799 
0.00881712 0.320526 0.947199 
0.00746177 0.393097 0.919467 
0.00594063 0.48191 0.876201 
0.00458664 0.581963 0.813203 
0.00334347 0.691307 0.722553 
0.00239367 0.797048 0.603911 
0.00160054 0.892715 0.450619 
0.000928941 0.966649 0.256103 
0.000423933 0.99874 0.0501771 
-0.000116775 0.98556 -0.169325 
-0.00072533 0.929485 -0.36886 
-0.00154031 0.841777 -0.539823 
-0.00247855 0.738167 -0.674614 
-0.00370872 0.631797 -0.775125 
-0.00502841 0.530423 -0.847718 
-0.00648761 0.438166 -0.898871 
-0.00807784 0.35769 -0.933806 
-0.0094336 0.289364 -0.957173 
-0.0108636 0.233327 -0.972338 
-0.0120952 0.18741 -0.982207 
-0.0131294 0.151131 -0.988427 
-0.0140874 0.120891 -0.992566 
-0.0149909 0.0973114 -0.995141 
-0.0156041 0.0775922 -0.996863 
-0.0162827 0.0620213 -0.997942 
-0.0167156 0.0489731 -0.99866 
-0.0172951 0.0388842 -0.999094 
-0.0174889 0.0305639 -0.99938 
-0.0178743 0.0239064 -0.999554 
-0.0181359 0.0185511 -0.999663 
-0.0182985 0.0140862 -0.999733 
-0.0184861 0.0104054 -0.999775 
-0.0185678 0.00725475 -0.999801 
-0.0186708 0.00451274 -0.999816 
-0.0187776 0.00207589 -0.999822 
-0.0187458 -0.000246051 -0.999824 
-0.0186513 -0.00254828 -0.999823 
-0.0185952 -0.00491719 -0.999815 
-0.0184742 -0.00730471 -0.999803 
-0.0183033 -0.00977954 -0.999785 
-0.0181003 -0.0123138 -0.99976 
-0.0177638 -0.0149366 -0.999731 
-0.0173685 -0.0176402 -0.999694 
-0.0167719 -0.0203086 -0.999653 
-0.0159532 -0.0223842 -0.999622 
-0.0147067 -0.0234582 -0.999617 
-0.0126951 -0.0233246 -0.999647 
-0.00858455 -0.016836 -0.999821 
-0.000333198 5.25543e-05 -1 
-9.68078e-06 -5.9053e-05 1 
0.00919732 -0.0165956 0.99982 
0.0128717 -0.0221475 0.999672 
0.0148789 -0.0219818 0.999648 
0.0162108 -0.0213493 0.999641 
0.0171083 -0.0191078 0.999671 
0.0176814 -0.0164806 0.999708 
0.0180602 -0.0135714 0.999745 
0.0183212 -0.0111569 0.99977 
0.0185667 -0.00868839 0.99979 
0.0187797 -0.00630688 0.999804 
0.0189214 -0.00391647 0.999813 
0.0190295 -0.00154586 0.999818 
0.0191202 0.000856837 0.999817 
0.0191069 0.00334294 0.999812 
0.0190863 0.00597222 0.9998 
0.018986 0.00889399 0.99978 
0.0189393 0.0122983 0.999745 
0.0187387 0.0162947 0.999692 
0.0184781 0.0212056 0.999604 
0.0181952 0.0270272 0.999469 
0.0178176 0.0342573 0.999254 
0.0173826 0.0432698 0.998912 
0.0168139 0.0542261 0.998387 
0.0162148 0.0682093 0.997539 
0.0154801 0.0852555 0.996239 
0.0147185 0.105673 0.994292 
0.0137902 0.13196 0.991159 
0.0127197 0.163955 0.986386 
0.0116276 0.203158 0.979077 
0.0104888 0.249403 0.968343 
0.00923121 0.308931 0.95104 
0.00798385 0.377687 0.925899 
0.00671313 0.463309 0.886171 
0.00552215 0.563213 0.826293 
0.00445136 0.673313 0.739344 
0.00358928 0.784336 0.620325 
0.00275231 0.882073 0.471105 
0.00179288 0.958076 0.286509 
0.000857249 0.997604 0.0691807 
-0.000169852 0.988927 -0.148404 
-0.00127013 0.931129 -0.364688 
-0.00230933 0.844629 -0.535346 
-0.00331432 0.736811 -0.67609 
-0.00450633 0.628923 -0.777454 
-0.0056887 0.523975 -0.851715 
-0.00696152 0.432993 -0.90137 
-0.00821938 0.357351 -0.933934 
-0.00955398 0.293163 -0.956015 
-0.0107605 0.239883 -0.970742 
-0.0119182 0.194031 -0.980923 
-0.0130221 0.155408 -0.987764 
-0.0139931 0.125313 -0.992019 
-0.0148542 0.100058 -0.994871 
-0.0157114 0.0802274 -0.996653 
-0.016341 0.0638596 -0.997825 
-0.0170243 0.0507765 -0.998565 
-0.0174265 0.040011 -0.999047 
-0.0179055 0.0314143 -0.999346 
-0.0182489 0.0246532 -0.999529 
-0.0185337 0.0190605 -0.999647 
-0.0187768 0.014563 -0.999718 
-0.0189577 0.0107624 -0.999762 
-0.0191029 0.00754953 -0.999789 
-0.0192023 0.00475602 -0.999804 
-0.0192488 0.0022054 -0.999812 
-0.0192422 -0.000145248 -0.999815 
-0.0192036 -0.00246848 -0.999813 
-0.0191027 -0.00479587 -0.999806 
-0.0189509 -0.0072009 -0.999794 
-0.0187412 -0.00961734 -0.999778 
-0.0184528 -0.0121329 -0.999756 
-0.0180726 -0.0147258 -0.999728 
-0.017535 -0.017423 -0.999694 
-0.0167683 -0.0201354 -0.999657 
-0.0157591 -0.0222842 -0.999627 
-0.0142194 -0.0233006 -0.999627 
-0.0120989 -0.0231439 -0.999659 
-0.00896459 -0.0167784 -0.999819 
3.66488e-05 1.73266e-05 -1 
0.00531965 -0.00911979 0.999944 
0.0104862 -0.0210447 0.999724 
0.0130234 -0.0226508 0.999659 
0.0146958 -0.0222407 0.999645 
0.0159412 -0.020896 0.999655 
0.0165887 -0.018445 0.999692 
0.0173256 -0.0156859 0.999727 
0.017399 -0.0132588 0.999761 
0.017789 -0.0108016 0.999783 
0.0180616 -0.00840263 0.999802 
0.018339 -0.00607823 0.999813 
0.0184605 -0.00374068 0.999823 
0.0185721 -0.00134381 0.999827 
0.01873 0.00106705 0.999824 
0.0186341 0.00355663 0.99982 
0.0186484 0.00621997 0.999807 
0.0185682 0.00918965 0.999785 
0.0184214 0.0125836 0.999751 
0.018255 0.016784 0.999692 
0.0179522 0.021706 0.999603 
0.0176683 0.0277162 0.99946 
0.0172611 0.0353218 0.999227 
0.0167828 0.0443039 0.998877 
0.0161666 0.0565674 0.998268 
0.0155371 0.0709877 0.997356 
0.0147552 0.0885254 0.995965 
0.0139947 0.110817 0.993742 
0.0130439 0.138081 0.990335 
0.0119656 0.173425 0.984774 
0.0109447 0.213697 0.976839 
0.00988512 0.266255 0.963852 
0.00882435 0.326503 0.945155 
0.00772458 0.405718 0.913966 
0.00671144 0.498448 0.866893 
0.00579416 0.608861 0.793256 
0.00503197 0.721867 0.692014 
0.00426453 0.832898 0.55341 
0.00313182 0.925773 0.378067 
0.00179501 0.983764 0.17946 
-2.53521e-06 0.996951 -0.0780356 
-0.00132972 0.983587 -0.18043 
-0.00145376 0.956412 -0.292017 
-0.00298421 0.867078 -0.498164 
-0.00393673 0.762275 -0.647241 
-0.00502336 0.651571 -0.758571 
-0.00598533 0.543091 -0.839652 
-0.00704176 0.445183 -0.895412 
-0.00816888 0.363041 -0.931737 
-0.00935826 0.29388 -0.955796 
-0.0104897 0.236747 -0.971515 
-0.0116182 0.190182 -0.98168 
-0.0125722 0.153552 -0.988061 
-0.0135671 0.123067 -0.992306 
-0.0143541 0.0992181 -0.994962 
-0.0151435 0.0797643 -0.996699 
-0.0158372 0.0637879 -0.997838 
-0.0164827 0.0507907 -0.998573 
-0.0169141 0.0406105 -0.999032 
-0.017419 0.03218 -0.99933 
-0.0177452 0.0251075 -0.999527 
-0.0180464 0.0196004 -0.999645 
-0.0182931 0.0149145 -0.999721 
-0.0184963 0.0111471 -0.999767 
-0.0186525 0.00785269 -0.999795 
-0.0187508 0.00501368 -0.999812 
-0.0187907 0.00245785 -0.99982 
-0.0187672 -6.82183e-08 -0.999824 
-0.0187552 -0.0023376 -0.999821 
-0.018657 -0.00468346 -0.999815 
-0.0184982 -0.00703488 -0.999804 
-0.01825 -0.00946794 -0.999789 
-0.0179216 -0.0119537 -0.999768 
-0.0175149 -0.0145394 -0.999741 
-0.0169537 -0.0172344 -0.999708 
-0.016195 -0.020032 -0.999668 
-0.0151186 -0.0222998 -0.999637 
-0.0136387 -0.0232442 -0.999637 
-0.0114659 -0.0231515 -0.999666 
-0.00852765 -0.0170107 -0.999819 
-4.87476e-05 3.27368e-05 -1 
-6.19872e-05 6.44873e-05 1 
0.00776154 -0.0169497 0.999826 
0.0110572 -0.0228463 0.999678 
0.0127464 -0.0227647 0.99966 
0.0143425 -0.0218624 0.999658 
0.0148702 -0.0194525 0.9997 
0.0157941 -0.0164776 0.999739 
0.0159207 -0.0136779 0.99978 
0.0162287 -0.0109625 0.999808 
0.0165337 -0.00852286 0.999827 
0.0167967 -0.00612016 0.99984 
0.0170442 -0.00370935 0.999848 
0.017143 -0.00138434 0.999852 
0.0173377 0.00091638 0.999849 
0.0171521 0.00327581 0.999848 
0.0171834 0.0058567 0.999835 
0.0170412 0.00877466 0.999816 
0.0169921 0.0121151 0.999782 
0.0168932 0.0160372 0.999729 
0.0165053 0.02081 0.999647 
0.0162651 0.0265543 0.999515 
0.0159745 0.0334553 0.999313 
0.0154171 0.0421095 0.998994 
0.0151046 0.05257 0.998503 
0.0143553 0.0668978 0.997657 
0.0136025 0.0831065 0.996448 
0.0129936 0.104007 0.994492 
0.0121892 0.128577 0.991625 
0.0113261 0.160034 0.987047 
0.0102645 0.199208 0.979903 
0.0095687 0.246704 0.969044 
0.00873536 0.301282 0.953495 
0.00804657 0.371249 0.928499 
0.00737366 0.456994 0.889439 
0.00679897 0.557031 0.830464 
0.00637985 0.668077 0.744065 
0.00591782 0.778219 0.627965 
0.0049986 0.8839 0.467649 
0.00351477 0.957601 0.288077 
0.00113212 0.998204 0.0599037 
-0.0011725 0.994095 -0.108508 
-0.00309751 0.924747 -0.38057 
-0.00498451 0.844461 -0.535594 
-0.00517261 0.765104 -0.643885 
-0.00597683 0.657922 -0.753063 
-0.00650334 0.550292 -0.834947 
-0.00713432 0.452788 -0.89159 
-0.00805454 0.362346 -0.932009 
-0.00905106 0.287472 -0.957746 
-0.00987244 0.229056 -0.973363 
-0.0107707 0.185467 -0.982591 
-0.0116244 0.148284 -0.988876 
-0.0124447 0.119673 -0.992735 
-0.0130938 0.0955958 -0.995334 
-0.0139674 0.076774 -0.996951 
-0.0145777 0.061044 -0.998029 
-0.0152257 0.0490817 -0.998679 
-0.0155622 0.0385343 -0.999136 
-0.0161685 0.0305196 -0.999403 
-0.0163225 0.0239802 -0.999579 
-0.0166899 0.0185454 -0.999689 
-0.0168357 0.0141612 -0.999758 
-0.0171015 0.0104249 -0.999799 
-0.017213 0.0072773 -0.999825 
-0.0172737 0.00450111 -0.999841 
-0.0173177 0.00193903 -0.999848 
-0.0172444 -0.000510596 -0.999851 
-0.0172656 -0.00285868 -0.999847 
-0.0171711 -0.00521194 -0.999839 
-0.017027 -0.00756201 -0.999826 
-0.0167145 -0.00992917 -0.999811 
-0.0163565 -0.012396 -0.999789 
-0.0159531 -0.0149741 -0.999761 
-0.0154024 -0.0176919 -0.999725 
-0.0146654 -0.0204709 -0.999683 
-0.0136357 -0.0226613 -0.99965 
-0.0122655 -0.0235095 -0.999648 
-0.0102993 -0.0230708 -0.999681 
-0.00773247 -0.016526 -0.999834 
-6.06895e-05 3.27953e-05 -1 
9.67927e-05 -4.47274e-05 1 
0.00696445 -0.0169612 0.999832 
0.00971761 -0.0229611 0.999689 
0.0110333 -0.0230032 0.999675 
0.0124616 -0.0218787 0.999683 
0.0127189 -0.0195817 0.999727 
0.0138052 -0.016841 0.999763 
0.0138006 -0.0141041 0.999805 
0.0141116 -0.0113732 0.999836 
0.0143687 -0.00882608 0.999858 
0.0146914 -0.00638675 0.999872 
0.0149384 -0.00393587 0.999881 
0.0149315 -0.00145698 0.999887 
0.0150327 0.00101061 0.999886 
0.0149187 0.00357896 0.999882 
0.0149931 0.00630005 0.999868 
0.0148612 0.00940051 0.999845 
0.014834 0.0129251 0.999806 
0.0147162 0.0170424 0.999746 
0.0143301 0.0222028 0.999651 
0.0140758 0.0282574 0.999502 
0.0137919 0.0355613 0.999272 
0.0132717 0.0450808 0.998895 
0.0131434 0.0570854 0.998283 
0.0121934 0.0718154 0.997343 
0.0116341 0.0911296 0.995771 
0.0109566 0.112963 0.993539 
0.0103075 0.141106 0.989941 
0.00951647 0.175493 0.984435 
0.00875896 0.224002 0.974549 
0.00819499 0.273221 0.961916 
0.00783275 0.339496 0.940575 
0.00757829 0.418793 0.90805 
0.00744726 0.515571 0.856814 
0.00750226 0.622812 0.782335 
0.00766307 0.739189 0.673454 
0.00710424 0.850699 0.525606 
0.0057309 0.93987 0.341483 
0.0058519 0.972495 0.232849 
0.00227491 0.992246 0.12427 
0.000841214 0.999729 0.0232554 
-0.00450443 0.936578 -0.350432 
-0.00706429 0.841012 -0.54097 
-0.00716106 0.721857 -0.692006 
-0.00711447 0.608335 -0.793648 
-0.00712591 0.507141 -0.861834 
-0.00738944 0.417308 -0.908735 
-0.00758451 0.348469 -0.93729 
-0.00826773 0.295437 -0.955326 
-0.00855233 0.246074 -0.969213 
-0.00917628 0.200222 -0.979708 
-0.00988644 0.161611 -0.986805 
-0.0105005 0.129312 -0.991548 
-0.0111673 0.104416 -0.994471 
-0.0118352 0.0822176 -0.996544 
-0.0125162 0.0663375 -0.997719 
-0.0129932 0.0525556 -0.998533 
-0.0135677 0.0423001 -0.999013 
-0.0139341 0.0326241 -0.999371 
-0.0141854 0.0259979 -0.999561 
-0.0145063 0.0200524 -0.999694 
-0.0146554 0.0154194 -0.999774 
-0.0149174 0.0114202 -0.999824 
-0.015026 0.00811476 -0.999854 
-0.0151001 0.00522407 -0.999872 
-0.0151579 0.00257291 -0.999882 
-0.0151399 9.53246e-05 -0.999885 
-0.0151039 -0.00239707 -0.999883 
-0.0150629 -0.0047691 -0.999875 
-0.0149391 -0.00715763 -0.999863 
-0.0146247 -0.00952595 -0.999848 
-0.0142767 -0.0119865 -0.999826 
-0.0138915 -0.0145844 -0.999797 
-0.0134332 -0.0172909 -0.99976 
-0.0127794 -0.0201331 -0.999716 
-0.0119647 -0.0224902 -0.999675 
-0.0108127 -0.0235219 -0.999665 
-0.00911646 -0.0234312 -0.999684 
-0.00691825 -0.017172 -0.999829 
-3.81604e-05 3.18444e-05 -1 
2.30124e-05 6.61869e-05 1 
0.00575204 -0.0167121 0.999844 
0.00802602 -0.0229435 0.999705 
0.00907112 -0.0232945 0.999687 
0.0103667 -0.0222159 0.999699 
0.0107834 -0.0197433 0.999747 
0.0116912 -0.0166099 0.999794 
0.0117253 -0.0136613 0.999838 
0.0120435 -0.0110213 0.999867 
0.0123272 -0.00848333 0.999888 
0.0126196 -0.00603523 0.999902 
0.0128095 -0.00358092 0.999912 
0.0127884 -0.0010666 0.999918 
0.0128697 0.00142754 0.999916 
0.0127527 0.00408445 0.99991 
0.0128217 0.00690255 0.999894 
0.0126914 0.0101125 0.999868 
0.012639 0.0137227 0.999826 
0.0125647 0.0180549 0.999758 
0.0121562 0.0232927 0.999655 
0.0119051 0.0294408 0.999496 
0.0117494 0.0373049 0.999235 
0.0111641 0.0465255 0.998855 
0.0112763 0.057017 0.99831 
0.0103263 0.0696564 0.997518 
0.01015 0.0863654 0.996212 
0.00939029 0.108124 0.994093 
0.00895359 0.134232 0.990909 
0.00830465 0.166732 0.985967 
0.00795007 0.209659 0.977742 
0.00729347 0.262381 0.964937 
0.00733883 0.321986 0.946716 
0.00748038 0.398573 0.917106 
0.0078352 0.48907 0.872209 
0.00844305 0.592368 0.805623 
0.00930606 0.705909 0.708241 
0.00978278 0.826286 0.563165 
0.0100553 0.903043 0.429432 
0.0103527 0.968981 0.24692 
0.00232171 0.998764 0.0496465 
-0.00516803 0.989113 -0.147065 
-0.0041023 0.978475 -0.206326 
-0.00794984 0.916878 -0.399088 
-0.00931721 0.759522 -0.650415 
-0.00845731 0.63994 -0.768378 
-0.00774523 0.530899 -0.8474 
-0.0073548 0.437837 -0.899024 
-0.0071771 0.36078 -0.932623 
-0.0073968 0.289176 -0.957247 
-0.0075411 0.233379 -0.972357 
-0.00805864 0.189812 -0.981787 
-0.00864238 0.153103 -0.988172 
-0.00901622 0.122901 -0.992378 
-0.0098187 0.0977287 -0.995165 
-0.0100993 0.0780431 -0.996899 
-0.0108508 0.0625376 -0.997984 
-0.0110391 0.0500186 -0.998687 
-0.0119175 0.0393725 -0.999154 
-0.0117734 0.0312511 -0.999442 
-0.0122698 0.0243702 -0.999628 
-0.0123832 0.018972 -0.999743 
-0.0126377 0.0143399 -0.999817 
-0.0127617 0.0106098 -0.999862 
-0.0128491 0.00740802 -0.99989 
-0.0129516 0.00455072 -0.999906 
-0.0129558 0.00196466 -0.999914 
-0.0130254 -0.000564272 -0.999915 
-0.0129041 -0.00298933 -0.999912 
-0.012893 -0.00538813 -0.999902 
-0.0127085 -0.00771817 -0.999889 
-0.0124074 -0.0100776 -0.999872 
-0.0120811 -0.0125365 -0.999848 
-0.0117022 -0.0151196 -0.999817 
-0.011286 -0.0178504 -0.999777 
-0.0106881 -0.0206532 -0.99973 
-0.00997035 -0.0228666 -0.999689 