# vtk DataFile Version 3.0 
Exported using Morpho https://github.com/Morpho-lang/morpho 
ASCII 
DATASET UNSTRUCTURED_GRID 

POINTS 2029 float 
-8.32618 -2.88146 0 
-8.11405 -2.88146 0 
-7.90192 -2.88146 0 
-7.68979 -2.88146 0 
-7.47765 -2.88146 0 
-7.26552 -2.88146 0 
-7.05339 -2.88146 0 
-6.84126 -2.88146 0 
-6.62913 -2.88146 0 
-6.41699 -2.88146 0 
-6.20486 -2.88146 0 
-5.99273 -2.88146 0 
-5.7806 -2.88146 0 
-5.56847 -2.88146 0 
-5.35633 -2.88146 0 
-5.1442 -2.88146 0 
-4.93207 -2.88146 0 
-4.71994 -2.88146 0 
-4.50781 -2.88146 0 
-4.29567 -2.88146 0 
-4.08354 -2.88146 0 
-3.87141 -2.88146 0 
-3.65928 -2.88146 0 
-3.44715 -2.88146 0 
-3.23501 -2.88146 0 
-3.02288 -2.88146 0 
-2.81075 -2.88146 0 
-2.59862 -2.88146 0 
-2.38649 -2.88146 0 
-2.17435 -2.88146 0 
-1.96222 -2.88146 0 
-1.75009 -2.88146 0 
-1.53796 -2.88146 0 
-1.32583 -2.88146 0 
-1.11369 -2.88146 0 
-0.901561 -2.88146 0 
-0.689429 -2.88146 0 
-0.477297 -2.88146 0 
-0.265165 -2.88146 0 
-0.053033 -2.88146 0 
0.159099 -2.88146 0 
0.371231 -2.88146 0 
0.583363 -2.88146 0 
0.795495 -2.88146 0 
1.00763 -2.88146 0 
1.21976 -2.88146 0 
1.43189 -2.88146 0 
1.64402 -2.88146 0 
1.85616 -2.88146 0 
2.06829 -2.88146 0 
2.28042 -2.88146 0 
2.49255 -2.88146 0 
2.70468 -2.88146 0 
2.91682 -2.88146 0 
3.12895 -2.88146 0 
3.34108 -2.88146 0 
3.55321 -2.88146 0 
3.76534 -2.88146 0 
3.97748 -2.88146 0 
4.18961 -2.88146 0 
4.40174 -2.88146 0 
4.61387 -2.88146 0 
4.826 -2.88146 0 
5.03814 -2.88146 0 
5.25027 -2.88146 0 
5.4624 -2.88146 0 
5.67453 -2.88146 0 
5.88666 -2.88146 0 
6.0988 -2.88146 0 
6.31093 -2.88146 0 
6.52306 -2.88146 0 
6.73519 -2.88146 0 
6.94732 -2.88146 0 
7.15946 -2.88146 0 
7.37159 -2.88146 0 
7.58372 -2.88146 0 
7.79585 -2.88146 0 
8.00798 -2.88146 0 
8.22012 -2.88146 0 
8.53831 -2.88146 0 
-8.53831 -2.71953 0 
-8.31024 -2.66223 0 
-8.08442 -2.66064 0 
-7.84934 -2.66942 0 
-7.62061 -2.67381 0 
-7.38461 -2.67542 0 
-7.15183 -2.68212 0 
-6.9294 -2.667 0 
-6.70875 -2.66515 0 
-6.48788 -2.66511 0 
-6.26793 -2.66448 0 
-6.04937 -2.66473 0 
-5.83125 -2.66634 0 
-5.61271 -2.66686 0 
-5.39626 -2.66794 0 
-5.18036 -2.66993 0 
-4.96282 -2.67029 0 
-4.74659 -2.67218 0 
-4.53011 -2.67334 0 
-4.31419 -2.67203 0 
-4.09561 -2.66975 0 
-3.88039 -2.66955 0 
-3.66412 -2.66856 0 
-3.44701 -2.66518 0 
-3.231 -2.66699 0 
-3.01546 -2.66681 0 
-2.79917 -2.66708 0 
-2.58375 -2.66613 0 
-2.36626 -2.66765 0 
-2.14822 -2.66751 0 
-1.92948 -2.66943 0 
-1.71139 -2.66555 0 
-1.49227 -2.66453 0 
-1.27111 -2.6652 0 
-1.05006 -2.66229 0 
-0.820176 -2.68152 0 
-0.595433 -2.65196 0 
-0.368995 -2.68436 0 
-0.137271 -2.64735 0 
0.0828027 -2.661 0 
0.307004 -2.68905 0 
0.299796 -2.49204 0 
0.534719 -2.66146 0 
0.753147 -2.68316 0 
0.983201 -2.65348 0 
1.20078 -2.66325 0 
1.41263 -2.6606 0 
1.62622 -2.66643 0 
1.84424 -2.66968 0 
2.0618 -2.66844 0 
2.27754 -2.66553 0 
2.48662 -2.66704 0 
2.6991 -2.66432 0 
2.90894 -2.6649 0 
3.11783 -2.66511 0 
3.32643 -2.66535 0 
3.53578 -2.6688 0 
3.7446 -2.67169 0 
3.95376 -2.67268 0 
4.16481 -2.67381 0 
4.37751 -2.67475 0 
4.59262 -2.67423 0 
4.80829 -2.67018 0 
5.01879 -2.6809 0 
5.24227 -2.66777 0 
5.4516 -2.67237 0 
5.66632 -2.67124 0 
5.87966 -2.66819 0 
6.09102 -2.66842 0 
6.30241 -2.671 0 
6.51702 -2.67156 0 
6.73386 -2.66947 0 
6.95037 -2.67032 0 
7.16656 -2.66879 0 
7.38273 -2.66664 0 
7.6 -2.66492 0 
7.81737 -2.66141 0 
8.03329 -2.65131 0 
8.29487 -2.71711 0 
8.53831 -2.66933 0 
-8.42967 -2.46843 0 
-8.20344 -2.44414 0 
-7.9671 -2.46266 0 
-7.73719 -2.46062 0 
-7.50743 -2.47979 0 
-7.32875 -2.38628 0 
-7.18145 -2.487 0 
-6.95226 -2.45859 0 
-6.72756 -2.45366 0 
-6.50241 -2.45316 0 
-6.27803 -2.45145 0 
-6.05537 -2.45056 0 
-5.83485 -2.4531 0 
-5.6149 -2.45583 0 
-5.39403 -2.45507 0 
-5.17403 -2.46109 0 
-4.95571 -2.46113 0 
-4.73821 -2.46443 0 
-4.52647 -2.46321 0 
-4.30544 -2.46607 0 
-4.09622 -2.4547 0 
-3.88297 -2.45791 0 
-3.66831 -2.45783 0 
-3.4515 -2.45464 0 
-3.23314 -2.45411 0 
-3.01718 -2.45289 0 
-2.80215 -2.4539 0 
-2.58603 -2.45138 0 
-2.37076 -2.4553 0 
-2.15287 -2.45599 0 
-1.93208 -2.45782 0 
-1.70885 -2.45297 0 
-1.48163 -2.45329 0 
-1.25363 -2.45322 0 
-1.03426 -2.43518 0 
-0.827916 -2.47863 0 
-0.579704 -2.44773 0 
-0.339285 -2.48271 0 
-0.239694 -2.29656 0 
-0.0777773 -2.43638 0 
0.111531 -2.40584 0 
0.361728 -2.28556 0 
0.538706 -2.4585 0 
0.774849 -2.48167 0 
0.954436 -2.39163 0 
1.14859 -2.45053 0 
1.36632 -2.43471 0 
1.57874 -2.44762 0 
1.7982 -2.46149 0 
2.02274 -2.46115 0 
2.24656 -2.45706 0 
2.4675 -2.44868 0 
2.6775 -2.4521 0 
2.89616 -2.44967 0 
3.11007 -2.4485 0 
3.32203 -2.44845 0 
3.53444 -2.45603 0 
3.74787 -2.45926 0 
3.96071 -2.46338 0 
4.17562 -2.4665 0 
4.39441 -2.47037 0 
4.61313 -2.46918 0 
4.83117 -2.46128 0 
5.05123 -2.484 0 
5.26568 -2.45371 0 
5.47854 -2.46441 0 
5.68824 -2.4595 0 
5.89724 -2.45367 0 
6.10603 -2.45422 0 
6.31054 -2.45213 0 
6.51654 -2.46204 0 
6.72993 -2.46085 0 
6.94652 -2.46133 0 
7.16356 -2.45665 0 
7.38021 -2.45241 0 
7.59603 -2.44765 0 
7.8129 -2.44004 0 
8.05508 -2.44989 0 
8.29363 -2.51683 0 
8.53831 -2.4572 0 
-8.53831 -2.26577 0 
-8.31101 -2.23332 0 
-8.07141 -2.25626 0 
-7.83811 -2.25567 0 
-7.59591 -2.2684 0 
-7.34479 -2.20679 0 
-7.07333 -2.2624 0 
-6.85177 -2.24272 0 
-6.63244 -2.24158 0 
-6.41394 -2.23989 0 
-6.19611 -2.2375 0 
-5.9789 -2.23691 0 
-5.76331 -2.24054 0 
-5.54761 -2.24494 0 
-5.33036 -2.24623 0 
-5.11794 -2.25066 0 
-4.90489 -2.25142 0 
-4.70246 -2.24613 0 
-4.48651 -2.25902 0 
-4.28404 -2.24485 0 
-4.07023 -2.24232 0 
-3.85946 -2.24425 0 
-3.64534 -2.24636 0 
-3.42722 -2.24503 0 
-3.211 -2.2414 0 
-2.99509 -2.239 0 
-2.77878 -2.24039 0 
-2.56113 -2.2373 0 
-2.3433 -2.24258 0 
-2.11943 -2.24659 0 
-1.89428 -2.24939 0 
-1.66067 -2.24681 0 
-1.42845 -2.24498 0 
-1.20287 -2.23371 0 
-0.976879 -2.20963 0 
-0.764569 -2.27883 0 
-0.678052 -2.10978 0 
-0.480067 -2.2596 0 
-0.25333 -2.09541 0 
-0.0326837 -2.16287 0 
0.161016 -2.17404 0 
0.324205 -2.04435 0 
0.529482 -2.17055 0 
0.70118 -2.27174 0 
0.942457 -2.19131 0 
1.18386 -2.22748 0 
1.3996 -2.21101 0 
1.6193 -2.23723 0 
1.83913 -2.25531 0 
2.06172 -2.25462 0 
2.27984 -2.24693 0 
2.48659 -2.2275 0 
2.70407 -2.24275 0 
2.91666 -2.23532 0 
3.12626 -2.23201 0 
3.3418 -2.23556 0 
3.55493 -2.24576 0 
3.76413 -2.24802 0 
3.97602 -2.255 0 
4.18976 -2.25527 0 
4.39693 -2.26691 0 
4.62077 -2.26743 0 
4.83257 -2.25098 0 
5.04709 -2.28147 0 
5.25685 -2.24048 0 
5.46951 -2.25479 0 
5.68242 -2.24588 0 
5.89035 -2.23744 0 
6.09807 -2.23927 0 
6.30794 -2.23443 0 
6.51376 -2.24516 0 
6.72384 -2.2511 0 
6.93803 -2.25167 0 
7.15418 -2.24698 0 
7.37202 -2.23789 0 
7.58906 -2.22931 0 
7.827 -2.24001 0 
8.06773 -2.245 0 
8.30249 -2.30817 0 
8.53831 -2.24506 0 
-8.53831 -2.049 0 
-8.30294 -2.02349 0 
-8.0612 -2.05493 0 
-7.83116 -2.04229 0 
-7.60776 -2.07768 0 
-7.38709 -2.00603 0 
-7.13431 -2.07681 0 
-6.89565 -2.03325 0 
-6.67185 -2.02798 0 
-6.45183 -2.02597 0 
-6.23254 -2.02346 0 
-6.01375 -2.02303 0 
-5.79526 -2.02521 0 
-5.57973 -2.0309 0 
-5.36511 -2.0351 0 
-5.14959 -2.03439 0 
-4.94199 -2.03758 0 
-4.73649 -2.01969 0 
-4.53711 -2.04601 0 
-4.33525 -2.02332 0 
-4.1314 -2.03174 0 
-3.91977 -2.02694 0 
-3.71231 -2.03189 0 
-3.502 -2.03551 0 
-3.2886 -2.02989 0 
-3.07571 -2.02563 0 
-2.86269 -2.02461 0 
-2.65206 -2.02408 0 
-2.43782 -2.02377 0 
-2.22421 -2.0343 0 
-2.0066 -2.03676 0 
-1.78648 -2.04494 0 
-1.55997 -2.03803 0 
-1.34194 -2.02515 0 
-1.12743 -2.00874 0 
-0.901056 -1.9933 0 
-0.670572 -1.9006 0 
-0.460277 -2.02652 0 
-0.273642 -1.87201 0 
-0.071668 -1.92083 0 
0.121118 -1.90944 0 
0.334557 -1.84201 0 
0.555836 -1.95959 0 
0.77336 -2.05018 0 
0.968578 -1.926 0 
1.14205 -2.0191 0 
1.35496 -1.99551 0 
1.58326 -2.01941 0 
1.80203 -2.03991 0 
2.0163 -2.04846 0 
2.23738 -2.03763 0 
2.45041 -2.00743 0 
2.66325 -2.03097 0 
2.87869 -2.02193 0 
3.09058 -2.01511 0 
3.30293 -2.02707 0 
3.52551 -2.03311 0 
3.7364 -2.03213 0 
3.94395 -2.04244 0 
4.15522 -2.05035 0 
4.37536 -2.04829 0 
4.58106 -2.0722 0 
4.80668 -2.04166 0 
5.02676 -2.07362 0 
5.23488 -2.02854 0 
5.45147 -2.0436 0 
5.66417 -2.03576 0 
5.87682 -2.02229 0 
6.08805 -2.02404 0 
6.29724 -2.02151 0 
6.51051 -2.02955 0 
6.71986 -2.03833 0 
6.93556 -2.04112 0 
7.15094 -2.03535 0 
7.36639 -2.02185 0 
7.60159 -2.02839 0 
7.84354 -2.04002 0 
8.0746 -2.03295 0 
8.3052 -2.09554 0 
8.53831 -2.03293 0 
-8.53831 -1.83162 0 
-8.3117 -1.80253 0 
-8.08035 -1.85339 0 
-7.84139 -1.83185 0 
-7.60548 -1.86082 0 
-7.38031 -1.78924 0 
-7.16351 -1.88276 0 
-6.94973 -1.8245 0 
-6.72426 -1.81763 0 
-6.50077 -1.81285 0 
-6.27941 -1.81095 0 
-6.0573 -1.81084 0 
-5.83491 -1.81397 0 
-5.61247 -1.81735 0 
-5.39413 -1.82216 0 
-5.17671 -1.82466 0 
-4.95843 -1.81899 0 
-4.74121 -1.81048 0 
-4.52332 -1.82184 0 
-4.31137 -1.80578 0 
-4.09704 -1.82122 0 
-3.8828 -1.81181 0 
-3.66989 -1.81887 0 
-3.45516 -1.82336 0 
-3.23843 -1.81637 0 
-3.02174 -1.81177 0 
-2.80973 -1.80629 0 
-2.59701 -1.80846 0 
-2.38217 -1.80875 0 
-2.16955 -1.82068 0 
-1.95213 -1.82537 0 
-1.73329 -1.83677 0 
-1.51775 -1.81809 0 
-1.30765 -1.79927 0 
-1.08559 -1.79381 0 
-0.866174 -1.76725 0 
-0.667601 -1.66791 0 
-0.475492 -1.78039 0 
0.544742 -1.73808 0 
0.758563 -1.82827 0 
0.969696 -1.70445 0 
1.18847 -1.78199 0 
1.42453 -1.79945 0 
1.64789 -1.81164 0 
1.85776 -1.82345 0 
2.07146 -1.83724 0 
2.28095 -1.81379 0 
2.50556 -1.79686 0 
2.71517 -1.81728 0 
2.92646 -1.80343 0 
3.14186 -1.80322 0 
3.36637 -1.82919 0 
3.57885 -1.8179 0 
3.78641 -1.81605 0 
3.99548 -1.83201 0 
4.21155 -1.84861 0 
4.4253 -1.83497 0 
4.63519 -1.86907 0 
4.81263 -1.78606 0 
4.98977 -1.86735 0 
5.1925 -1.81528 0 
5.41102 -1.83534 0 
5.6271 -1.82539 0 
5.84068 -1.81293 0 
6.05728 -1.81186 0 
6.27168 -1.80858 0 
6.48532 -1.81865 0 
6.70186 -1.82454 0 
6.91589 -1.83235 0 
7.13688 -1.82123 0 
7.36211 -1.81037 0 
7.58302 -1.82596 0 
7.82254 -1.84128 0 
8.06651 -1.82137 0 
8.3022 -1.87949 0 
8.53831 -1.8208 0 
-8.53831 -1.61436 0 
-8.3062 -1.58325 0 
-8.078 -1.64726 0 
-7.85411 -1.61115 0 
-7.63258 -1.65293 0 
-7.40845 -1.58417 0 
-7.16081 -1.66167 0 
[...]
POINT_DATA 2029 
VECTORS vectors float
1.03501e-05 -0.000580184 1 
2.44296e-05 -0.0167408 0.99986 
-0.000106896 -0.0213395 0.999772 
-4.76709e-05 -0.0220505 0.999757 
-6.89416e-05 -0.0202461 0.999795 
-6.01879e-05 -0.0176215 0.999845 
-6.35252e-05 -0.0150142 0.999887 
-6.21382e-05 -0.0124503 0.999922 
-6.29413e-05 -0.00983147 0.999952 
-6.2723e-05 -0.00712735 0.999975 
-6.25634e-05 -0.00437486 0.99999 
-6.2623e-05 -0.00162431 0.999999 
-6.27218e-05 0.00112346 0.999999 
-6.26998e-05 0.00392837 0.999992 
-6.22799e-05 0.00688933 0.999976 
-6.26721e-05 0.0101209 0.999949 
-6.19486e-05 0.0137707 0.999905 
-6.19359e-05 0.0179875 0.999838 
-6.13813e-05 0.0229374 0.999737 
-6.08515e-05 0.0288081 0.999585 
-6.04894e-05 0.0358213 0.999358 
-5.86997e-05 0.0442685 0.99902 
-5.92873e-05 0.0544132 0.998519 
-5.64981e-05 0.0666978 0.997773 
-5.5938e-05 0.0810037 0.996714 
-5.38717e-05 0.0983395 0.995153 
-5.18111e-05 0.119198 0.992871 
-4.8832e-05 0.144318 0.989531 
-4.59678e-05 0.174639 0.984633 
-4.17295e-05 0.211452 0.977388 
-3.75596e-05 0.256309 0.966595 
-3.1101e-05 0.310744 0.950494 
-2.53415e-05 0.377133 0.926159 
-1.72097e-05 0.457478 0.889221 
-1.03976e-05 0.552565 0.83347 
-1.83824e-06 0.660624 0.750717 
3.70822e-07 0.774217 0.63292 
5.84437e-06 0.880272 0.47447 
1.70056e-06 0.960884 0.276953 
1.10918e-06 0.998604 0.0528212 
-1.52014e-06 0.984258 -0.176737 
-5.00518e-06 0.921383 -0.388655 
-1.96883e-06 0.824574 -0.565754 
-6.72927e-07 0.712622 -0.701548 
6.99828e-06 0.601055 -0.799208 
1.38145e-05 0.499728 -0.866182 
2.13773e-05 0.412636 -0.910896 
2.87563e-05 0.339887 -0.940466 
3.42992e-05 0.280096 -0.959972 
4.03321e-05 0.23122 -0.972902 
4.3158e-05 0.191184 -0.981554 
4.84076e-05 0.158164 -0.987413 
4.99489e-05 0.130838 -0.991404 
5.30715e-05 0.108119 -0.994138 
5.49384e-05 0.089182 -0.996015 
5.63393e-05 0.0733747 -0.997304 
5.80521e-05 0.0601775 -0.998188 
5.88103e-05 0.0491635 -0.998791 
6.00755e-05 0.0399064 -0.999203 
6.05844e-05 0.0321849 -0.999482 
6.06543e-05 0.0257387 -0.999669 
6.35069e-05 0.0203264 -0.999793 
5.88766e-05 0.0157349 -0.999876 
6.60049e-05 0.0117956 -0.99993 
5.9811e-05 0.00835946 -0.999965 
6.37591e-05 0.00525673 -0.999986 
6.28109e-05 0.00238172 -0.999997 
6.25245e-05 -0.000403862 -1 
6.28044e-05 -0.00317837 -0.999995 
6.27333e-05 -0.00598489 -0.999982 
6.30906e-05 -0.00882007 -0.999961 
6.2307e-05 -0.0116331 -0.999932 
6.23735e-05 -0.0143124 -0.999898 
6.46709e-05 -0.0170313 -0.999855 
5.59084e-05 -0.0199158 -0.999802 
7.62276e-05 -0.0227612 -0.999741 
4.47765e-05 -0.0244549 -0.999701 
6.62084e-05 -0.0236841 -0.999719 
0.000100301 -0.0204507 -0.999791 
-4.92643e-05 -0.00098452 -1 
-2.10483e-05 0.000168171 1 
0.00836465 -0.0132541 0.999877 
0.0110876 -0.0190628 0.999757 
0.0117105 -0.0208314 0.999714 
0.012325 -0.0208889 0.999706 
0.0126546 -0.018816 0.999743 
0.0128664 -0.0160357 0.999789 
0.0133307 -0.0132721 0.999823 
0.01342 -0.0105714 0.999854 
0.013466 -0.00784003 0.999879 
0.0135298 -0.00507485 0.999896 
0.013555 -0.00229824 0.999905 
0.0135234 0.00050288 0.999908 
0.0135155 0.00338095 0.999903 
0.0134645 0.00639253 0.999889 
0.0133016 0.00964996 0.999865 
0.0131228 0.0133578 0.999825 
0.0128586 0.0176175 0.999762 
0.0125053 0.0226372 0.999666 
0.0120962 0.0285922 0.999518 
0.0115201 0.0357925 0.999293 
0.010827 0.0444142 0.998955 
0.00990045 0.0547899 0.998449 
0.00874934 0.0672656 0.997697 
0.00736561 0.0822997 0.99658 
0.00566646 0.100287 0.994942 
0.00366094 0.121988 0.992525 
0.00130677 0.148075 0.988975 
-0.00124791 0.179879 0.983688 
-0.00399799 0.218729 0.975777 
-0.0065833 0.266543 0.963801 
-0.00919325 0.324124 0.94597 
-0.0109493 0.395138 0.918556 
-0.0114873 0.481952 0.876122 
-0.0108698 0.584139 0.811581 
-0.00790369 0.704353 0.709806 
-0.00618555 0.82224 0.569107 
-0.00292423 0.92566 0.378346 
-0.00115421 0.989518 0.144408 
0.000525224 0.995441 -0.0953745 
0.00231958 0.944769 -0.327728 
0.00378684 0.94624 -0.323444 
0.00517329 0.848152 -0.529728 
0.00737822 0.735891 -0.677059 
0.0108859 0.613973 -0.789252 
0.0115932 0.509502 -0.860391 
0.0117406 0.42176 -0.906631 
0.0101312 0.347612 -0.937584 
0.00784168 0.285428 -0.958368 
0.00531691 0.234858 -0.972015 
0.00266286 0.193825 -0.981033 
-2.9596e-05 0.160936 -0.986965 
-0.00244776 0.133188 -0.991088 
-0.00463933 0.110324 -0.993885 
-0.00650995 0.0912841 -0.995804 
-0.00808127 0.0753527 -0.997124 
-0.00937132 0.0619469 -0.998035 
-0.0104033 0.0508113 -0.998654 
-0.011198 0.0413462 -0.999082 
-0.011816 0.0333981 -0.999372 
-0.0123017 0.02673 -0.999567 
-0.0127103 0.0210673 -0.999697 
-0.0131019 0.0162843 -0.999782 
-0.0130647 0.0122681 -0.999839 
-0.0135303 0.0085849 -0.999872 
-0.0135756 0.00548326 -0.999893 
-0.0136467 0.00253685 -0.999904 
-0.0137665 -0.000270983 -0.999905 
-0.0137778 -0.00301111 -0.999901 
-0.0136242 -0.00574693 -0.999891 
-0.013556 -0.00854154 -0.999872 
-0.0134679 -0.011321 -0.999845 
-0.0133314 -0.0141024 -0.999812 
-0.013131 -0.0169115 -0.999771 
-0.0128468 -0.0197548 -0.999722 
-0.0123802 -0.0221195 -0.999679 
-0.0117246 -0.0232268 -0.999661 
-0.0103691 -0.0224361 -0.999695 
-0.00682289 -0.0174324 -0.999825 
0.000200655 0.000433954 -1 
0.00640738 -0.011129 0.999918 
0.0114966 -0.0188441 0.999756 
0.0134543 -0.0202061 0.999705 
0.014783 -0.0208313 0.999674 
0.0155952 -0.0200522 0.999677 
0.016501 -0.0181857 0.999698 
0.0161935 -0.0163545 0.999735 
0.0167328 -0.0134106 0.99977 
0.0168331 -0.0106238 0.999802 
0.0169419 -0.00786608 0.999826 
0.0170274 -0.00509835 0.999842 
0.0170706 -0.00230529 0.999852 
0.0170542 0.00052477 0.999854 
0.0169904 0.00344557 0.99985 
0.0168706 0.00655241 0.999836 
0.0166679 0.00995894 0.999811 
0.0163908 0.0137826 0.999771 
0.0159576 0.0181927 0.999707 
0.0153928 0.0232588 0.999611 
0.014593 0.0295581 0.999457 
0.0136353 0.0368077 0.999229 
0.0123248 0.0454686 0.99889 
0.0106843 0.0560129 0.998373 
0.00860427 0.0688607 0.997589 
0.00601792 0.0844501 0.99641 
0.00290235 0.102977 0.994679 
-0.000760769 0.125052 0.99215 
-0.00511167 0.151735 0.988408 
-0.0097063 0.183463 0.982979 
-0.0146956 0.222182 0.974894 
-0.0194929 0.269431 0.962822 
-0.0240821 0.328695 0.944129 
-0.0266734 0.401815 0.915332 
-0.0267238 0.490832 0.870844 
-0.0252559 0.592161 0.805424 
-0.0170062 0.697616 0.71627 
-0.0112983 0.828766 0.559481 
-0.00470263 0.935323 0.353764 
-0.00349287 0.966332 0.257276 
-0.00105092 0.996709 0.0810574 
0.000987233 0.991759 -0.12811 
0.00658321 0.921514 -0.38829 
0.00983161 0.844785 -0.535016 
0.015853 0.721955 -0.691759 
0.0266222 0.62653 -0.778942 
0.0264136 0.533896 -0.845138 
0.0293379 0.441846 -0.896611 
0.0270308 0.366421 -0.930056 
0.0225787 0.301799 -0.953104 
0.0179609 0.247893 -0.968621 
0.0130056 0.203932 -0.978899 
0.00827139 0.168259 -0.985708 
0.00351544 0.139623 -0.990198 
-0.000600241 0.114926 -0.993374 
-0.0040878 0.0946899 -0.995498 
-0.00700166 0.0778777 -0.996938 
-0.00946095 0.0636991 -0.997924 
-0.0113784 0.0518162 -0.998592 
-0.0129164 0.0420491 -0.999032 
-0.0141041 0.0337806 -0.99933 
-0.0150678 0.0268705 -0.999525 
-0.015754 0.0210286 -0.999655 
-0.0163528 0.0161548 -0.999736 
-0.0165929 0.011954 -0.999791 
-0.0170273 0.00840602 -0.99982 
-0.0171323 0.00522997 -0.99984 
-0.0173049 0.00233444 -0.999848 
-0.0173427 -0.000434164 -0.99985 
-0.0173496 -0.00314134 -0.999845 
-0.0173527 -0.0057657 -0.999833 
-0.0171663 -0.00838333 -0.999818 
-0.0170195 -0.0110946 -0.999794 
-0.0167429 -0.0138826 -0.999763 
-0.0163552 -0.0167293 -0.999726 
-0.0157461 -0.0194937 -0.999686 
-0.0149953 -0.0216713 -0.999653 
-0.0138201 -0.0224639 -0.999652 
-0.0119109 -0.02209 -0.999685 
-0.00843066 -0.0179573 -0.999803 
-0.000387521 -1.457e-05 -1 
2.2405e-05 -6.61167e-05 1 
0.00890486 -0.0168865 0.999818 
0.0120797 -0.0203176 0.999721 
0.0139828 -0.0208647 0.999685 
0.0155608 -0.0207517 0.999664 
0.0163157 -0.0184358 0.999697 
0.016982 -0.014881 0.999745 
0.0172269 -0.0120448 0.999779 
0.01744 -0.00933797 0.999804 
0.0175855 -0.00668242 0.999823 
0.0176672 -0.00400724 0.999836 
0.017702 -0.0012594 0.999843 
0.0176746 0.00156981 0.999843 
0.0175708 0.00453764 0.999835 
0.0173828 0.00775418 0.999819 
0.0170999 0.0112389 0.999791 
0.0166714 0.0152222 0.999745 
0.0160733 0.0196384 0.999678 
0.0152752 0.0251075 0.999568 
0.0142003 0.0313497 0.999408 
0.0127644 0.0391494 0.999152 
0.0109673 0.0483412 0.998771 
0.00866127 0.0595605 0.998187 
0.00566731 0.0733718 0.997289 
0.00192085 0.0899121 0.995948 
-0.00266884 0.109692 0.993962 
-0.00809627 0.133264 0.991048 
-0.0146747 0.161696 0.986732 
-0.0216795 0.195253 0.980513 
-0.029309 0.236436 0.971205 
-0.0367452 0.286217 0.95746 
-0.0434589 0.349067 0.936089 
-0.0470259 0.424787 0.904071 
-0.0469787 0.513392 0.856867 
-0.0423941 0.617154 0.7857 
-0.0258551 0.728023 0.685065 
-0.0311951 0.768784 0.638747 
-0.0120532 0.873182 0.487244 
-0.00245147 0.960206 0.279282 
-0.000463282 0.999483 0.0321475 
0.000754274 0.982512 -0.186195 
0.00387076 0.931231 -0.364409 
0.0169102 0.842509 -0.538416 
0.0235165 0.756457 -0.653621 
0.0429954 0.628961 -0.776247 
0.048179 0.516733 -0.85479 
0.0522778 0.432517 -0.900109 
0.0466789 0.35936 -0.932031 
0.0391487 0.298162 -0.953712 
0.0317645 0.247106 -0.968468 
0.0244418 0.205536 -0.978344 
0.0181127 0.172753 -0.984799 
0.0105379 0.142305 -0.989767 
0.00489902 0.117924 -0.993011 
7.69749e-05 0.0975338 -0.995232 
-0.00411874 0.0797856 -0.996804 
-0.00752444 0.0650497 -0.997854 
-0.0100931 0.0530762 -0.998539 
-0.0121759 0.0429659 -0.999002 
-0.0137848 0.0345739 -0.999307 
-0.0149634 0.0276122 -0.999507 
-0.0159633 0.021497 -0.999641 
-0.0166496 0.0166903 -0.999722 
-0.0171903 0.0123814 -0.999776 
-0.0175225 0.00884786 -0.999807 
-0.0177976 0.00555625 -0.999826 
-0.0179634 0.00254116 -0.999835 
-0.0180986 -0.000254803 -0.999836 
-0.0180915 -0.00296659 -0.999832 
-0.0180257 -0.00563969 -0.999822 
-0.0178758 -0.00822905 -0.999806 
-0.0176375 -0.0108872 -0.999785 
-0.0173282 -0.0136789 -0.999756 
-0.0168072 -0.0165534 -0.999722 
-0.0160837 -0.019389 -0.999683 
-0.015079 -0.0214727 -0.999656 
-0.0135314 -0.022141 -0.999663 
-0.0113175 -0.0216618 -0.999701 
-0.00860086 -0.0178148 -0.999804 
-8.02295e-05 7.01492e-05 -1 
0.000230352 1.42582e-05 1 
0.00878886 -0.0170374 0.999816 
0.011746 -0.0206797 0.999717 
0.0138758 -0.0214065 0.999675 
0.0153852 -0.0210535 0.99966 
0.016066 -0.0190716 0.999689 
0.0168878 -0.0157455 0.999733 
0.0170937 -0.0125492 0.999775 
0.0173611 -0.00975248 0.999802 
0.0175314 -0.00708058 0.999821 
0.0176345 -0.00440092 0.999835 
0.0176795 -0.00162788 0.999842 
0.0176599 0.00127267 0.999843 
0.0175634 0.0042876 0.999837 
0.0173602 0.00751708 0.999821 
0.0170215 0.0111206 0.999793 
0.0165665 0.0150756 0.999749 
0.0157656 0.0196345 0.999683 
0.015039 0.0247418 0.999581 
0.013709 0.0310288 0.999424 
0.0121936 0.0384251 0.999187 
0.010056 0.0477633 0.998808 
0.00748093 0.0586514 0.99825 
0.00416033 0.0719029 0.997403 
-0.000232658 0.0882373 0.996099 
-0.0057074 0.107739 0.994163 
-0.0123807 0.13088 0.991321 
-0.0203247 0.157917 0.987243 
-0.0297791 0.190243 0.981285 
-0.0396708 0.227275 0.973022 
-0.0506955 0.271854 0.961002 
-0.0606628 0.324218 0.944035 
-0.0700879 0.388679 0.918704 
-0.0756286 0.461779 0.883765 
-0.0745598 0.545674 0.834674 
-0.0621788 0.648322 0.758823 
-0.0466055 0.760928 0.647161 
-0.014409 0.875742 0.482564 
0.0055646 0.947884 0.318566 
0.00261604 0.99672 0.0808852 
-0.00634009 0.988276 -0.152549 
-0.00279795 0.918785 -0.394747 
0.0267425 0.819658 -0.572228 
0.0450347 0.710373 -0.702383 
0.0806407 0.609386 -0.788762 
0.0752012 0.535459 -0.841207 
0.0822821 0.454391 -0.886994 
0.0740401 0.380109 -0.921973 
0.0623751 0.319074 -0.945675 
0.0507131 0.268254 -0.962012 
0.0400135 0.224397 -0.973676 
0.0310808 0.189181 -0.98145 
0.0202291 0.156232 -0.987513 
0.0123817 0.129398 -0.991515 
0.0058342 0.106865 -0.994256 
0.000107557 0.0873203 -0.99618 
-0.00448226 0.0705229 -0.9975 
-0.00782574 0.0574033 -0.99832 
-0.0105168 0.0465081 -0.998863 
-0.0126126 0.037383 -0.999221 
-0.0141829 0.0295713 -0.999462 
-0.0154532 0.0233541 -0.999608 
-0.0162164 0.0179119 -0.999708 
-0.0170473 0.0132406 -0.999767 
-0.0173672 0.00959245 -0.999803 
-0.0177508 0.00608908 -0.999824 
-0.0179315 0.00297476 -0.999835 
-0.0180113 4.13964e-05 -0.999838 
-0.0180357 -0.0027605 -0.999834 
-0.0179589 -0.00543572 -0.999824 
-0.0178224 -0.00810166 -0.999808 
-0.0175928 -0.0107338 -0.999788 
-0.017213 -0.0135277 -0.99976 
-0.0167228 -0.016497 -0.999724 
-0.0159161 -0.0193441 -0.999686 
-0.0148844 -0.0216607 -0.999655 
-0.013248 -0.0221467 -0.999667 
-0.0110024 -0.0215071 -0.999708 
-0.00833492 -0.0175246 -0.999812 
-0.000155998 5.38941e-05 -1 
9.00432e-05 8.24068e-05 1 
0.00792832 -0.017059 0.999823 
0.0108681 -0.0210409 0.99972 
0.0128096 -0.0216951 0.999683 
0.0144227 -0.0212367 0.99967 
0.0146761 -0.0191368 0.999709 
0.0159901 -0.0161795 0.999741 
0.0158856 -0.0133054 0.999785 
0.0160599 -0.0103907 0.999817 
0.0162153 -0.00764988 0.999839 
0.0163257 -0.00494225 0.999855 
0.0163734 -0.00211509 0.999864 
0.0163631 0.000873224 0.999866 
0.0162508 0.00404529 0.99986 
0.016036 0.00740322 0.999844 
0.0156545 0.0111162 0.999816 
0.0149876 0.0153968 0.999769 
0.0141356 0.0204695 0.999691 
0.0130801 0.0263439 0.999567 
0.0114765 0.0335013 0.999373 
0.00972168 0.041937 0.999073 
0.00706184 0.0524422 0.998599 
0.00388363 0.0648389 0.997888 
-0.000297911 0.0799702 0.996797 
-0.00596242 0.0987126 0.995098 
-0.013139 0.121193 0.992542 
-0.0220158 0.147457 0.988823 
-0.0326748 0.17803 0.983483 
-0.0456458 0.214084 0.975748 
-0.0595243 0.25407 0.965352 
-0.075267 0.301252 0.950569 
-0.0898459 0.35439 0.930771 
-0.10598 0.416182 0.903084 
-0.117223 0.483384 0.867525 
-0.114695 0.563188 0.81833 
-0.0991427 0.655 0.749097 
-0.078974 0.740693 0.667186 
-0.0182535 0.852479 0.522443 
0.0358626 0.80681 -0.589721 
0.0712381 0.70452 -0.7061 
0.132035 0.602169 -0.787375 
0.124447 0.51985 -0.845144 
0.117639 0.442477 -0.88903 
0.102734 0.377855 -0.920147 
0.0852554 0.323326 -0.942439 
0.0673173 0.273639 -0.959474 
0.0536257 0.232835 -0.971037 
0.0395511 0.19379 -0.980245 
0.0268139 0.160567 -0.986661 
0.0175371 0.133214 -0.990932 
0.00950309 0.109005 -0.993996 
0.00242582 0.0872809 -0.996181 
-0.00212572 0.071201 -0.99746 
-0.00573304 0.0578961 -0.998306 
-0.00876618 0.0465185 -0.998879 
-0.0112335 0.0370236 -0.999251 
-0.0127105 0.0293516 -0.999488 
-0.0143402 0.0229499 -0.999634 
-0.0143032 0.0187863 -0.999721 
-0.015718 0.0145593 -0.99977 
-0.015818 0.010827 -0.999816 
-0.0163786 0.00704606 -0.999841 
-0.0165437 0.00373236 -0.999856 
-0.0165796 0.000674861 -0.999862 
-0.0166082 -0.0022785 -0.999859 
-0.0165256 -0.00506374 -0.999851 
-0.0164691 -0.0077428 -0.999834 
-0.0162707 -0.0104557 -0.999813 
-0.0159882 -0.0132391 -0.999785 
-0.0153946 -0.0162732 -0.999749 
-0.0147089 -0.0194498 -0.999703 
-0.0139478 -0.021707 -0.999667 
-0.0126151 -0.0222463 -0.999673 
-0.0103057 -0.02158 -0.999714 
-0.00791097 -0.0175798 -0.999814 
-0.000124553 5.99653e-05 -1 
9.54233e-05 5.83626e-05 1 
0.00673316 -0.0173817 0.999826 
0.00947437 -0.0213331 0.999728 
0.0109033 -0.0219467 0.9997 
0.0124643 -0.0215813 0.999689 
0.0125199 -0.0196173 0.999729 
0.0138915 -0.0162244 0.999772 
0.0137362 -0.0130032 0.999821 
0.0139353 -0.0100987 0.999852 
0.0140782 -0.0073289 0.999874 
0.0141951 -0.00452887 0.999889 
0.0142399 -0.00157237 0.999897 
0.0142143 0.00156866 0.999898 
0.0140295 0.00487158 0.99989 
0.0137662 0.00843543 0.99987 
0.0133222 0.0124223 0.999834 
0.0125595 0.0170243 0.999776 
0.0115794 0.0225888 0.999678 
0.0103822 0.0289242 0.999528 
0.00856831 0.0371088 0.999274 
0.00649998 0.0464254 0.998901 
0.00342158 0.0583108 0.998293 
-0.000300545 0.0722703 0.997385 
-0.0052543 0.0892869 0.995992 
-0.0120282 0.110529 0.9938 
-0.0206821 0.135665 0.990539 
-0.0315927 0.16525 0.985746 
-0.0450493 0.199408 0.978881 
-0.0619357 0.239253 0.96898 
-0.0807082 0.282416 0.955891 
-0.102953 0.332089 0.937613 
-0.125383 0.384597 0.91453 
-0.152654 0.443075 0.883392 
-0.172603 0.506028 0.84507 
-0.177412 0.574545 0.799014 
-0.177647 0.64067 0.746983 
0.115888 0.690927 -0.713575 
0.214298 0.612662 -0.760737 
0.194035 0.544341 -0.816115 
0.169113 0.477917 -0.861972 
0.144473 0.413595 -0.898925 
0.118075 0.355723 -0.927103 
0.0912136 0.302009 -0.948931 
0.0687675 0.253018 -0.965014 
0.0511207 0.212471 -0.975829 
0.0350673 0.173466 -0.984215 
0.0232857 0.142441 -0.989529 
0.0128527 0.113009 -0.993511 
0.00596051 0.0917378 -0.995765 
0.00108507 0.0748956 -0.997191 
-0.0029871 0.0602961 -0.998176 
-0.0060121 0.0488284 -0.998789 
-0.00861588 0.0391911 -0.999195 
-0.00951004 0.0327723 -0.999418 
-0.011512 0.0258646 -0.999599 
-0.0119203 0.0201538 -0.999726 
-0.0133631 0.0146264 -0.999804 
-0.013728 0.0100902 -0.999855 
-0.0142197 0.00652169 -0.999878 
-0.0143139 0.00324919 -0.999892 
-0.0143815 0.000104993 -0.999897 
-0.0143813 -0.00282309 -0.999893 
-0.0142943 -0.00560718 -0.999882 
-0.0142596 -0.00826661 -0.999864 
-0.0140397 -0.0109361 -0.999842 
-0.0137903 -0.0137464 -0.99981 
-0.0132349 -0.0168875 -0.99977 
-0.0124787 -0.0198752 -0.999725 
-0.0119991 -0.0220793 -0.999684 
-0.0108239 -0.0224484 -0.999689 
-0.008794 -0.0216228 -0.999728 
-0.00688695 -0.0174945 -0.999823 
-9.92573e-05 5.79278e-05 -1 
7.53685e-05 5.29636e-05 1 
0.00550876 -0.0174718 0.999832 
0.00787041 -0.0215209 0.999737 
0.00903917 -0.0221416 0.999714 
0.0103599 -0.021704 0.999711 
0.0103278 -0.019615 0.999754 
0.0117271 -0.0166538 0.999793 
0.0114453 -0.013729 0.99984 
0.0116616 -0.0107872 0.999874 
0.0118099 -0.00798622 0.999898 
0.0119454 -0.00519358 0.999915 
0.0120171 -0.00225459 0.999925 
0.0120056 0.000901524 0.999928 
0.0118239 0.00424353 0.999921 
0.0115724 0.00785663 0.999902 
0.0111757 0.0118589 0.999867 
0.0104879 0.016429 0.99981 
0.00963714 0.0218856 0.999714 
0.008371 0.028579 0.999556 
0.0068801 0.0363713 0.999315 
0.00459329 0.0466141 0.998902 
0.00179733 0.0583492 0.998295 
-0.00214209 0.073545 0.99729 
-0.00716622 0.0914232 0.995786 
-0.0139471 0.113479 0.993442 
-0.0233643 0.14153 0.989658 
-0.0354675 0.174473 0.984023 
-0.0510901 0.212883 0.975741 
-0.0712786 0.257721 0.963587 
-0.0962446 0.307226 0.946757 
-0.125987 0.360525 0.924202 
-0.162536 0.419717 0.892984 
-0.205489 0.483716 0.85076 
-0.243908 0.543553 0.803155 
-0.28122 0.596196 0.751975 
0.30102 0.585873 -0.752423 
0.249082 0.531918 -0.809334 
0.202361 0.472898 -0.857565 
0.161922 0.413969 -0.895774 
0.124492 0.354784 -0.926623 
0.0929853 0.298532 -0.949859 
0.0688455 0.251179 -0.965489 
0.0478887 0.204665 -0.97766 
0.0331218 0.167955 -0.985238 
0.0202328 0.132465 -0.990981 
0.0116822 0.106499 -0.994244 
0.00582576 0.0868903 -0.996201 
0.00101182 0.0694978 -0.997582 
-0.0024964 0.0556631 -0.998446 
-0.00528729 0.0442077 -0.999008 
-0.00741285 0.0341874 -0.999388 
-0.00925677 0.0261446 -0.999615 
-0.00992455 0.0197745 -0.999755 
-0.0113346 0.0146994 -0.999828 
-0.0111762 0.0110361 -0.999877 
-0.0117927 0.00744373 -0.999903 
-0.011996 0.00413403 -0.999919 
-0.0121378 0.000872508 -0.999926 
-0.0121328 -0.00223361 -0.999924 
-0.0120754 -0.00510397 -0.999914 
-0.012021 -0.00786087 -0.999897 
-0.0118352 -0.0105384 -0.999874 
-0.0116005 -0.0133648 -0.999843 
-0.0112548 -0.0163814 -0.999802 
-0.0103993 -0.0195754 -0.999754 
-0.010148 -0.0220148 -0.999706 
-0.00920839 -0.0224723 -0.999705 
-0.0074829 -0.0218582 -0.999733 
-0.00578672 -0.0176673 -0.999827 
-8.162e-05 5.82585e-05 -1 
6.83629e-05 5.95357e-05 1 
0.00445415 -0.0174433 0.999838 
0.0064214 -0.0216224 0.999746 
0.00741503 -0.0222738 0.999724 
0.00847857 -0.0217478 0.999728 
0.00836475 -0.0195559 0.999774 
0.0095692 -0.0166283 0.999816 
0.0094247 -0.0133848 0.999866 
0.00966168 -0.0104059 0.999899 
0.00980474 -0.00755498 0.999923 
0.00993013 -0.00467139 0.99994 
0.0099962 -0.0015964 0.999949 
0.00992436 0.00164007 0.999949 
0.00973548 0.00514238 0.999939 
0.00945862 0.00894265 0.999915 
0.00900921 0.0131249 0.999873 
0.00835476 0.0181079 0.999801 
0.00749209 0.0240402 0.999683 
0.00620109 0.0312535 0.999492 
0.00466569 0.0400563 0.999187 
0.00233346 0.0509438 0.998699 