# vtk DataFile Version 3.0 
Exported using Morpho https://github.com/Morpho-lang/morpho 
ASCII 
DATASET UNSTRUCTURED_GRID 

POINTS 1889 float 
-8.32618 -2.88146 0 
-8.11405 -2.88146 0 
-7.90192 -2.88146 0 
-7.68979 -2.88146 0 
-7.47765 -2.88146 0 
-7.26552 -2.88146 0 
-7.05339 -2.88146 0 
-6.84126 -2.88146 0 
-6.62913 -2.88146 0 
-6.41699 -2.88146 0 
-6.20486 -2.88146 0 
-5.99273 -2.88146 0 
-5.7806 -2.88146 0 
-5.56847 -2.88146 0 
-5.35633 -2.88146 0 
-5.1442 -2.88146 0 
-4.93207 -2.88146 0 
-4.71994 -2.88146 0 
-4.50781 -2.88146 0 
-4.29567 -2.88146 0 
-4.08354 -2.88146 0 
-3.87141 -2.88146 0 
-3.65928 -2.88146 0 
-3.44715 -2.88146 0 
-3.23501 -2.88146 0 
-3.02288 -2.88146 0 
-2.81075 -2.88146 0 
-2.59862 -2.88146 0 
-2.38649 -2.88146 0 
-2.17435 -2.88146 0 
-1.96222 -2.88146 0 
-1.75009 -2.88146 0 
-1.53796 -2.88146 0 
-1.32583 -2.88146 0 
-1.11369 -2.88146 0 
-0.901561 -2.88146 0 
-0.689429 -2.88146 0 
-0.477297 -2.88146 0 
-0.265165 -2.88146 0 
-0.053033 -2.88146 0 
0.159099 -2.88146 0 
0.371231 -2.88146 0 
0.583363 -2.88146 0 
0.795495 -2.88146 0 
1.00763 -2.88146 0 
1.21976 -2.88146 0 
1.43189 -2.88146 0 
1.64402 -2.88146 0 
1.85616 -2.88146 0 
2.06829 -2.88146 0 
2.28042 -2.88146 0 
2.49255 -2.88146 0 
2.70468 -2.88146 0 
2.91682 -2.88146 0 
3.12895 -2.88146 0 
3.34108 -2.88146 0 
3.55321 -2.88146 0 
3.76534 -2.88146 0 
3.97748 -2.88146 0 
4.18961 -2.88146 0 
4.40174 -2.88146 0 
4.61387 -2.88146 0 
4.826 -2.88146 0 
5.03814 -2.88146 0 
5.25027 -2.88146 0 
5.4624 -2.88146 0 
5.67453 -2.88146 0 
5.88666 -2.88146 0 
6.0988 -2.88146 0 
6.31093 -2.88146 0 
6.52306 -2.88146 0 
6.73519 -2.88146 0 
6.94732 -2.88146 0 
7.15946 -2.88146 0 
7.37159 -2.88146 0 
7.58372 -2.88146 0 
7.79585 -2.88146 0 
8.00798 -2.88146 0 
8.22012 -2.88146 0 
8.53831 -2.88146 0 
-8.53831 -2.72203 0 
-8.30533 -2.65927 0 
-8.07843 -2.66286 0 
-7.85078 -2.66382 0 
-7.62775 -2.66243 0 
-7.40301 -2.66217 0 
-7.17904 -2.66498 0 
-6.95304 -2.66732 0 
-6.72995 -2.66603 0 
-6.50795 -2.66872 0 
-6.28677 -2.66957 0 
-6.06594 -2.66779 0 
-5.84862 -2.67316 0 
-5.62857 -2.66958 0 
-5.41238 -2.67514 0 
-5.19288 -2.67108 0 
-4.97773 -2.67191 0 
-4.76121 -2.67114 0 
-4.54396 -2.66879 0 
-4.32849 -2.6716 0 
-4.11184 -2.66944 0 
-3.89437 -2.66862 0 
-3.6799 -2.67181 0 
-3.45769 -2.67154 0 
-3.238 -2.66475 0 
-3.02315 -2.66342 0 
-2.80289 -2.66943 0 
-2.58569 -2.66726 0 
-2.37141 -2.667 0 
-2.1479 -2.67072 0 
-1.93032 -2.6663 0 
-1.71251 -2.66272 0 
-1.49419 -2.662 0 
-1.27179 -2.66423 0 
-1.05035 -2.66608 0 
-0.824127 -2.65434 0 
-0.613957 -2.58403 0 
-0.404291 -2.64884 0 
-0.179008 -2.6656 0 
0.0237888 -2.48174 0 
0.0476177 -2.68603 0 
0.270776 -2.65041 0 
0.494553 -2.6268 0 
0.721565 -2.67017 0 
0.9498 -2.63287 0 
1.17185 -2.66107 0 
1.39962 -2.66012 0 
1.62097 -2.65642 0 
1.84044 -2.66013 0 
2.05961 -2.66258 0 
2.27754 -2.66157 0 
2.49758 -2.66687 0 
2.71875 -2.66986 0 
2.93345 -2.66617 0 
3.15414 -2.67216 0 
3.371 -2.67013 0 
3.58603 -2.66885 0 
3.80094 -2.67014 0 
4.01625 -2.67122 0 
4.23348 -2.6734 0 
4.44596 -2.67022 0 
4.65686 -2.66868 0 
4.87174 -2.67375 0 
5.08528 -2.67318 0 
5.29689 -2.6708 0 
5.51196 -2.67378 0 
5.72176 -2.66961 0 
5.93196 -2.66952 0 
6.14374 -2.6709 0 
6.35473 -2.67014 0 
6.56739 -2.67131 0 
6.77962 -2.6699 0 
6.99255 -2.66801 0 
7.20653 -2.66596 0 
7.42291 -2.6663 0 
7.63845 -2.66128 0 
7.85388 -2.66191 0 
8.0664 -2.64368 0 
8.31159 -2.71761 0 
8.53831 -2.66933 0 
-8.42963 -2.47786 0 
-8.18344 -2.4456 0 
-7.95752 -2.45143 0 
-7.73388 -2.44421 0 
-7.51224 -2.44758 0 
-7.28695 -2.44806 0 
-7.06285 -2.45616 0 
-6.84043 -2.4538 0 
-6.61818 -2.45526 0 
-6.40053 -2.45766 0 
-6.18327 -2.45908 0 
-5.96479 -2.45723 0 
-5.7543 -2.46429 0 
-5.53637 -2.46076 0 
-5.3271 -2.46761 0 
-5.11419 -2.45928 0 
-4.90517 -2.46116 0 
-4.69353 -2.46036 0 
-4.47949 -2.45753 0 
-4.27179 -2.459 0 
-4.05747 -2.45876 0 
-3.84787 -2.45369 0 
-3.62678 -2.46849 0 
-3.41313 -2.4601 0 
-3.20089 -2.44752 0 
-2.98274 -2.45467 0 
-2.76983 -2.45654 0 
-2.56136 -2.44828 0 
-2.33853 -2.46274 0 
-2.12466 -2.4555 0 
-1.90967 -2.44991 0 
-1.69318 -2.44445 0 
-1.46919 -2.44914 0 
-1.25209 -2.44595 0 
-1.03189 -2.44958 0 
-0.817436 -2.4143 0 
-0.64134 -2.2823 0 
-0.425308 -2.38742 0 
-0.224011 -2.45486 0 
0.27854 -2.43277 0 
0.486654 -2.35277 0 
0.690097 -2.45432 0 
0.912464 -2.39352 0 
1.13821 -2.43796 0 
1.36475 -2.4458 0 
1.59056 -2.43493 0 
1.81196 -2.43964 0 
2.03135 -2.44419 0 
2.24786 -2.44428 0 
2.46381 -2.45358 0 
2.68188 -2.46056 0 
2.89962 -2.45015 0 
3.11449 -2.46375 0 
3.33119 -2.45975 0 
3.54621 -2.45646 0 
3.75975 -2.45777 0 
3.97185 -2.46106 0 
4.18685 -2.4671 0 
4.40165 -2.45854 0 
4.61156 -2.45475 0 
4.82315 -2.46488 0 
5.03514 -2.46514 0 
5.24704 -2.46086 0 
5.46187 -2.4678 0 
5.67527 -2.45719 0 
5.88501 -2.45666 0 
6.09577 -2.46017 0 
6.30752 -2.4588 0 
6.52066 -2.46181 0 
6.73486 -2.45949 0 
6.95007 -2.45701 0 
7.16788 -2.45402 0 
7.389 -2.45432 0 
7.60977 -2.4459 0 
7.83268 -2.44016 0 
8.06134 -2.42863 0 
8.29647 -2.50187 0 
8.53831 -2.4572 0 
-8.53831 -2.26739 0 
-8.30473 -2.26233 0 
-8.05579 -2.2352 0 
-7.83241 -2.23162 0 
-7.6034 -2.2277 0 
-7.37875 -2.236 0 
-7.14632 -2.24094 0 
-6.92332 -2.24227 0 
-6.69649 -2.24442 0 
-6.47314 -2.24247 0 
-6.25523 -2.24644 0 
-6.03655 -2.24991 0 
-5.81594 -2.24487 0 
-5.60665 -2.25762 0 
-5.3852 -2.25015 0 
-5.18027 -2.25273 0 
-4.96398 -2.24574 0 
-4.75464 -2.24926 0 
-4.53926 -2.25073 0 
-4.3219 -2.24017 0 
-4.11312 -2.25007 0 
-3.89646 -2.23834 0 
-3.67649 -2.26537 0 
-3.45405 -2.24906 0 
-3.24035 -2.23634 0 
-3.01856 -2.24552 0 
-2.79811 -2.24173 0 
-2.58616 -2.22882 0 
-2.37071 -2.25644 0 
-2.14887 -2.24112 0 
-1.93105 -2.23434 0 
-1.71251 -2.22903 0 
-1.48823 -2.23983 0 
-1.25841 -2.22494 0 
-1.04058 -2.22762 0 
-0.842748 -2.16407 0 
0.73272 -2.22574 0 
0.93412 -2.10018 0 
1.11251 -2.21248 0 
1.33599 -2.23212 0 
1.56704 -2.21974 0 
1.79795 -2.22266 0 
2.0243 -2.22727 0 
2.24676 -2.22535 0 
2.46362 -2.23645 0 
2.67886 -2.24837 0 
2.89298 -2.23289 0 
3.10707 -2.25032 0 
3.32182 -2.24859 0 
3.53812 -2.24477 0 
3.75432 -2.24529 0 
3.96844 -2.24751 0 
4.17967 -2.2588 0 
4.3902 -2.24483 0 
4.59924 -2.24045 0 
4.80974 -2.2536 0 
5.02076 -2.25444 0 
5.23072 -2.25084 0 
5.44428 -2.26189 0 
5.65936 -2.24936 0 
5.87443 -2.24351 0 
6.08437 -2.24824 0 
6.29489 -2.24771 0 
6.50746 -2.25196 0 
6.72099 -2.24971 0 
6.93591 -2.24648 0 
7.15289 -2.24413 0 
7.37472 -2.2459 0 
7.59934 -2.23317 0 
7.82396 -2.22748 0 
8.06317 -2.2197 0 
8.30028 -2.28638 0 
8.53831 -2.24506 0 
-8.42649 -2.05358 0 
-8.19433 -2.05101 0 
-7.96227 -2.01346 0 
-7.73825 -2.01673 0 
-7.50971 -2.01343 0 
-7.2829 -2.03102 0 
-7.05931 -2.02486 0 
-6.83618 -2.03317 0 
-6.61535 -2.03175 0 
-6.39749 -2.02783 0 
-6.18293 -2.03516 0 
-5.96782 -2.04047 0 
-5.75499 -2.02901 0 
-5.5448 -2.05245 0 
-5.34051 -2.02769 0 
-5.13277 -2.04304 0 
-4.9249 -2.02931 0 
-4.71272 -2.04048 0 
-4.49968 -2.0412 0 
-4.29117 -2.02222 0 
-4.08086 -2.03815 0 
-3.86954 -2.02196 0 
-3.6611 -2.06197 0 
-3.44944 -2.03392 0 
-3.22488 -2.03152 0 
-3.00595 -2.03709 0 
-2.79968 -2.02235 0 
-2.59677 -2.00263 0 
-2.39025 -2.03979 0 
-2.18012 -2.03274 0 
-1.96074 -2.0199 0 
-1.74447 -2.01275 0 
-1.52448 -2.02722 0 
-1.30309 -2.02066 0 
-1.0738 -2.00377 0 
1.12611 -1.95864 0 
1.32496 -2.00806 0 
1.54085 -2.01011 0 
1.77942 -2.01306 0 
2.01472 -2.01561 0 
2.24446 -2.01086 0 
2.46939 -2.01822 0 
2.68571 -2.03073 0 
2.90178 -2.0149 0 
3.11629 -2.03569 0 
3.33385 -2.03605 0 
3.55353 -2.03432 0 
3.77022 -2.03376 0 
3.98352 -2.03448 0 
4.19395 -2.04556 0 
4.40269 -2.02846 0 
4.61019 -2.02241 0 
4.8151 -2.04201 0 
5.02272 -2.04076 0 
5.23645 -2.04272 0 
5.45265 -2.0548 0 
5.67042 -2.04247 0 
5.88145 -2.02937 0 
6.08847 -2.03601 0 
6.29611 -2.03294 0 
6.50564 -2.04167 0 
6.71894 -2.03888 0 
6.9343 -2.03524 0 
7.15303 -2.03301 0 
7.37345 -2.03704 0 
7.59506 -2.01969 0 
7.83189 -2.02374 0 
8.06852 -2.00858 0 
8.30233 -2.0707 0 
8.53831 -2.03293 0 
-8.53831 -1.8294 0 
-8.30858 -1.84374 0 
-8.07961 -1.82148 0 
-7.83549 -1.79965 0 
-7.60318 -1.80548 0 
-7.35922 -1.81479 0 
-7.1327 -1.81455 0 
-6.89843 -1.81959 0 
-6.6728 -1.82009 0 
-6.44877 -1.81567 0 
-6.22521 -1.81894 0 
-6.0083 -1.82807 0 
-5.7937 -1.81952 0 
-5.57074 -1.83612 0 
-5.34762 -1.82367 0 
-5.12808 -1.82797 0 
-4.91103 -1.82022 0 
-4.69754 -1.8306 0 
-4.49018 -1.82504 0 
-4.27644 -1.80855 0 
-4.06465 -1.82359 0 
-3.85774 -1.7944 0 
-3.66327 -1.84856 0 
-3.46553 -1.80709 0 
-3.26243 -1.83032 0 
-3.03414 -1.82789 0 
-2.81863 -1.79954 0 
-2.61047 -1.78359 0 
-2.3954 -1.81915 0 
-2.17819 -1.81984 0 
-1.96411 -1.80284 0 
-1.74016 -1.80296 0 
-1.51512 -1.81427 0 
-1.28757 -1.8136 0 
1.33603 -1.77538 0 
1.57412 -1.80727 0 
1.81216 -1.80757 0 
2.04192 -1.80511 0 
2.27006 -1.79885 0 
2.48525 -1.79848 0 
2.69609 -1.81003 0 
2.89796 -1.78238 0 
3.10217 -1.81595 0 
3.31263 -1.82226 0 
3.52945 -1.8255 0 
3.75035 -1.82326 0 
3.96817 -1.82181 0 
4.18331 -1.83089 0 
4.39525 -1.81309 0 
4.61328 -1.8139 0 
4.82771 -1.82556 0 
5.03953 -1.83026 0 
5.26101 -1.83914 0 
5.47698 -1.84977 0 
5.69136 -1.83104 0 
5.88869 -1.8032 0 
6.08754 -1.81828 0 
6.29115 -1.81683 0 
6.49845 -1.82817 0 
6.70918 -1.82687 0 
6.9222 -1.82353 0 
7.13884 -1.8221 0 
7.36083 -1.82489 0 
7.59219 -1.8128 0 
7.82487 -1.81838 0 
8.06325 -1.79953 0 
8.30117 -1.85289 0 
8.53831 -1.8208 0 
-8.53831 -1.6139 0 
-8.30038 -1.62716 0 
-8.05575 -1.61513 0 
-7.81422 -1.58956 0 
-7.56412 -1.60851 0 
-7.33238 -1.60043 0 
-7.09308 -1.61079 0 
-6.86302 -1.60809 0 
-6.6363 -1.60835 0 
-6.40784 -1.60734 0 
-6.18628 -1.60695 0 
-5.97361 -1.61247 0 
-5.76714 -1.59245 0 
-5.57302 -1.63319 0 
-5.37648 -1.59683 0 
-5.17623 -1.61836 0 
-4.96587 -1.6158 0 
-4.74523 -1.61783 0 
-4.53581 -1.6093 0 
-4.32772 -1.60439 0 
-4.09979 -1.61176 0 
-3.88353 -1.58587 0 
-3.65192 -1.62005 0 
-3.43748 -1.5862 0 
-3.21638 -1.63109 0 
-3.00121 -1.61086 0 
-2.79359 -1.57409 0 
-2.56812 -1.5768 0 
-2.35859 -1.60505 0 
-2.14755 -1.59836 0 
-1.92303 -1.59345 0 
-1.69285 -1.59818 0 
-1.46855 -1.60822 0 
1.50841 -1.59864 0 
[...]
POINT_DATA 1889 
VECTORS vectors float
-7.7874e-05 -0.000881506 1 
4.27198e-05 -0.0160987 0.99987 
-0.000113386 -0.019618 0.999808 
-5.85981e-05 -0.0196465 0.999807 
-7.49621e-05 -0.0178225 0.999841 
-6.9123e-05 -0.0152042 0.999884 
-7.09785e-05 -0.0125593 0.999921 
-7.04308e-05 -0.00993403 0.999951 
-7.0615e-05 -0.00716835 0.999974 
-7.0657e-05 -0.00418209 0.999991 
-7.0567e-05 -0.000985848 1 
-7.01833e-05 0.00238727 0.999997 
-7.0725e-05 0.00592108 0.999982 
-6.96039e-05 0.00967754 0.999953 
-7.04036e-05 0.0137492 0.999905 
-6.91927e-05 0.0182719 0.999833 
-6.91316e-05 0.0233937 0.999726 
-6.8615e-05 0.0292534 0.999572 
-6.75336e-05 0.0360232 0.999351 
-6.69747e-05 0.043843 0.999038 
-6.56576e-05 0.0528796 0.998601 
-6.45195e-05 0.0632917 0.997995 
-6.28617e-05 0.0751858 0.99717 
-6.03905e-05 0.0887233 0.996056 
-6.00031e-05 0.104107 0.994566 
-5.50887e-05 0.121598 0.992579 
-5.38789e-05 0.140345 0.990103 
-4.97623e-05 0.161637 0.98685 
-4.49679e-05 0.185666 0.982613 
-4.20067e-05 0.213222 0.977004 
-3.44089e-05 0.245827 0.969314 
-2.9364e-05 0.28571 0.958316 
-2.17186e-05 0.336395 0.941721 
-1.26893e-05 0.402593 0.915379 
-1.06173e-05 0.489161 0.872194 
1.25078e-05 0.59857 0.801071 
-1.74676e-05 0.72592 0.687779 
2.51523e-05 0.85333 0.521371 
-7.63613e-06 0.953814 0.300397 
1.1939e-06 0.999136 0.0415574 
4.93883e-06 0.974781 -0.223165 
-1.92483e-05 0.887931 -0.459978 
1.51836e-05 0.764176 -0.645007 
-2.09718e-05 0.632623 -0.77446 
1.84855e-05 0.515602 -0.856828 
1.91989e-06 0.421661 -0.906753 
2.18882e-05 0.350738 -0.936474 
2.46258e-05 0.297594 -0.954692 
3.37775e-05 0.256606 -0.966516 
3.76646e-05 0.223794 -0.974636 
4.29479e-05 0.196699 -0.980464 
4.91628e-05 0.171731 -0.985144 
5.0271e-05 0.149853 -0.988708 
5.52632e-05 0.130182 -0.99149 
5.73523e-05 0.112391 -0.993664 
5.98753e-05 0.0964274 -0.99534 
6.19227e-05 0.0821289 -0.996622 
6.37078e-05 0.0694444 -0.997586 
6.49957e-05 0.0582859 -0.9983 
6.63245e-05 0.0485348 -0.998821 
6.73526e-05 0.0400613 -0.999197 
6.79619e-05 0.0327214 -0.999465 
6.89933e-05 0.0263698 -0.999652 
6.93125e-05 0.0208561 -0.999782 
6.95524e-05 0.0160092 -0.999872 
7.04016e-05 0.0116905 -0.999932 
6.99825e-05 0.00776037 -0.99997 
7.05586e-05 0.0040822 -0.999992 
7.06569e-05 0.000577887 -1 
7.04574e-05 -0.00279331 -0.999996 
7.08424e-05 -0.00601335 -0.999982 
7.07001e-05 -0.00904296 -0.999959 
7.02114e-05 -0.0118893 -0.999929 
7.19592e-05 -0.0146781 -0.999892 
6.6143e-05 -0.0175517 -0.999846 
8.21619e-05 -0.020378 -0.999792 
4.98849e-05 -0.0221555 -0.999755 
7.94221e-05 -0.0223106 -0.999751 
0.000123718 -0.0202372 -0.999795 
-5.13282e-05 -0.00137411 -0.999999 
-6.51162e-05 0.000163153 1 
0.00786524 -0.0119706 0.999897 
0.010656 -0.0184198 0.999774 
0.0114985 -0.0193106 0.999747 
0.0121006 -0.0185748 0.999754 
0.0124633 -0.0166161 0.999784 
0.0126372 -0.013927 0.999823 
0.0127418 -0.0110785 0.999857 
0.0129149 -0.00822932 0.999883 
0.0128986 -0.00524457 0.999903 
0.012906 -0.00206036 0.999915 
0.0129732 0.00132784 0.999915 
0.0127447 0.00486481 0.999907 
0.0127565 0.00870073 0.999881 
0.012373 0.0127875 0.999842 
0.0121922 0.0174082 0.999774 
0.0117316 0.0225307 0.999677 
0.0111461 0.0284509 0.999533 
0.0104066 0.0353356 0.999321 
0.00931938 0.0432462 0.999021 
0.00801778 0.052508 0.998588 
0.00629358 0.0632672 0.997977 
0.00411898 0.0754207 0.997143 
0.00125925 0.0898635 0.995953 
-0.00242007 0.106192 0.994343 
-0.00673271 0.123919 0.99227 
-0.0115228 0.144358 0.989458 
-0.0176424 0.166992 0.9858 
-0.0241928 0.191931 0.98111 
-0.0306788 0.221581 0.974659 
-0.0379895 0.255866 0.965965 
-0.0438077 0.297713 0.95365 
-0.0459335 0.350938 0.935271 
-0.0424186 0.422459 0.905389 
-0.0324048 0.516506 0.85567 
-0.0174403 0.637606 0.770165 
-0.00178681 0.763179 0.646185 
0.00836491 0.889021 0.457789 
0.00657156 0.979369 0.201975 
-0.00768311 0.998197 -0.0595252 
-0.00335223 0.996252 -0.0864301 
-0.0112828 0.932988 -0.359731 
-0.00475834 0.81195 -0.583707 
0.011951 0.672795 -0.739732 
0.0352313 0.539263 -0.8414 
0.0435154 0.439091 -0.897388 
0.0497584 0.361792 -0.93093 
0.0501347 0.306524 -0.950542 
0.0445694 0.264155 -0.96345 
0.0371942 0.229955 -0.97249 
0.0297316 0.201001 -0.97914 
0.0217211 0.175491 -0.984241 
0.0147225 0.152292 -0.988226 
0.00928769 0.131983 -0.991208 
0.00413704 0.112993 -0.993587 
0.000282205 0.0964102 -0.995342 
-0.00283924 0.0817497 -0.996649 
-0.00532264 0.0687856 -0.997617 
-0.00726328 0.0574281 -0.998323 
-0.00878294 0.0474646 -0.998834 
-0.0100031 0.0390397 -0.999188 
-0.0109203 0.0318312 -0.999434 
-0.0114871 0.025465 -0.99961 
-0.0120383 0.0199823 -0.999728 
-0.0124861 0.0152125 -0.999806 
-0.0126914 0.0108787 -0.99986 
-0.013006 0.00702647 -0.999891 
-0.0131238 0.00342135 -0.999908 
-0.0131452 -1.99459e-05 -0.999914 
-0.0131914 -0.00328515 -0.999908 
-0.0131355 -0.00641684 -0.999893 
-0.0130943 -0.00937785 -0.99987 
-0.012994 -0.0122343 -0.999841 
-0.0127944 -0.0150821 -0.999804 
-0.0124348 -0.0178798 -0.999763 
-0.0120888 -0.0201585 -0.999724 
-0.0112936 -0.0215909 -0.999703 
-0.0100341 -0.0212828 -0.999723 
-0.00582272 -0.0157767 -0.999859 
0.00028456 -3.24465e-05 -1 
0.00570282 -0.00980829 0.999936 
0.0119972 -0.0185858 0.999755 
0.0140076 -0.019598 0.99971 
0.0151092 -0.0188589 0.999708 
0.0158893 -0.0175991 0.999719 
0.0164179 -0.0151947 0.99975 
0.0167213 -0.0123111 0.999784 
0.0169438 -0.00942715 0.999812 
0.0170713 -0.00651063 0.999833 
0.0171207 -0.00350435 0.999847 
0.0171045 -0.000311646 0.999854 
0.0170412 0.0031307 0.99985 
0.0168398 0.00669104 0.999836 
0.016563 0.0107008 0.999806 
0.0160919 0.0149227 0.999759 
0.0154716 0.0197811 0.999685 
0.0145915 0.0251869 0.999576 
0.0134073 0.0315059 0.999414 
0.0118423 0.0389468 0.999171 
0.00985989 0.0473244 0.998831 
0.00722657 0.0573631 0.998327 
0.00381009 0.0688712 0.997618 
-0.000193523 0.0823773 0.996601 
-0.00589872 0.0978824 0.995181 
-0.0133751 0.115607 0.993205 
-0.0215105 0.135206 0.990584 
-0.0313949 0.1568 0.987131 
-0.0439606 0.180834 0.982531 
-0.0553354 0.207308 0.97671 
-0.0703455 0.237365 0.96887 
-0.0847938 0.271317 0.958748 
-0.0967275 0.311239 0.945396 
-0.0994767 0.361794 0.926935 
-0.093829 0.42601 0.89984 
-0.071846 0.51412 0.854704 
-0.0416811 0.620207 0.78333 
-0.00775011 0.708569 0.705599 
0.0308802 0.860531 0.508462 
0.0240542 0.962407 0.270545 
-0.032796 0.920991 -0.388202 
-0.0235205 0.790849 -0.611559 
0.0219851 0.672358 -0.7399 
0.0737817 0.538192 -0.839587 
0.096306 0.444102 -0.890785 
0.107646 0.373152 -0.921504 
0.110085 0.321884 -0.940358 
0.0988788 0.281674 -0.954402 
0.0835734 0.247863 -0.965184 
0.0680496 0.218526 -0.973455 
0.0517184 0.191201 -0.980187 
0.0375341 0.166264 -0.985367 
0.0270134 0.143769 -0.989243 
0.0165216 0.12306 -0.992262 
0.0089752 0.104883 -0.994444 
0.00290922 0.0887804 -0.996047 
-0.00201569 0.0745865 -0.997213 
-0.00589526 0.0622679 -0.998042 
-0.00893679 0.0514877 -0.998634 
-0.0111104 0.0421982 -0.999047 
-0.0128426 0.0344744 -0.999323 
-0.0141976 0.0276886 -0.999516 
-0.0152116 0.0218448 -0.999646 
-0.0159702 0.0167618 -0.999732 
-0.0164701 0.0121874 -0.99979 
-0.0169039 0.00811289 -0.999824 
-0.017138 0.00440367 -0.999843 
-0.0172738 0.00091966 -0.99985 
-0.0173529 -0.00237141 -0.999847 
-0.017325 -0.00551388 -0.999835 
-0.0172285 -0.00851616 -0.999815 
-0.0170181 -0.011441 -0.99979 
-0.0166763 -0.0143942 -0.999757 
-0.0161315 -0.0172799 -0.999721 
-0.0153709 -0.0194881 -0.999692 
-0.0141369 -0.0209351 -0.999681 
-0.0123278 -0.0214194 -0.999695 
-0.00849235 -0.016595 -0.999826 
-0.000443884 -0.00018881 -1 
-0.000214376 -1.71736e-05 1 
0.00928678 -0.0164673 0.999821 
0.0123453 -0.020318 0.999717 
0.0138942 -0.0194367 0.999715 
0.0150926 -0.0184077 0.999717 
0.0159091 -0.0163505 0.99974 
0.0164245 -0.0133475 0.999776 
0.0167302 -0.010354 0.999806 
0.0169342 -0.00735832 0.99983 
0.0170185 -0.00431414 0.999846 
0.0170376 -0.00118037 0.999854 
0.0169592 0.00220406 0.999854 
0.0167171 0.00593676 0.999843 
0.0164245 0.009776 0.999817 
0.0157947 0.0143082 0.999773 
0.0150312 0.0190067 0.999706 
0.0138508 0.0247133 0.999599 
0.0123983 0.0310548 0.999441 
0.010397 0.0386912 0.999197 
0.00755358 0.0479112 0.998823 
0.00431662 0.0579969 0.998307 
-0.00050186 0.0706168 0.997503 
-0.00563559 0.0847867 0.996383 
-0.0139284 0.102393 0.994647 
-0.0241258 0.122019 0.992234 
-0.0359778 0.143889 0.98894 
-0.0514782 0.169054 0.984262 
-0.0705787 0.196333 0.977994 
-0.0867523 0.222319 0.971107 
-0.112228 0.255678 0.960226 
-0.136681 0.289455 0.947383 
-0.158715 0.325558 0.932106 
-0.167498 0.365826 0.915487 
-0.168941 0.418386 0.892419 
-0.137989 0.486388 0.862778 
-0.102066 0.56065 0.821738 
0.0601901 0.60337 -0.795187 
0.182824 0.477388 -0.859463 
0.173895 0.436579 -0.8827 
0.183925 0.383466 -0.905055 
0.183258 0.342218 -0.921577 
0.162554 0.306412 -0.937917 
0.136008 0.273157 -0.952306 
0.110501 0.242381 -0.963868 
0.0849296 0.211855 -0.973604 
0.0628943 0.183262 -0.98105 
0.0474967 0.159585 -0.986041 
0.0318147 0.135465 -0.990271 
0.0205446 0.114781 -0.993178 
0.0116073 0.0965509 -0.99526 
0.00442832 0.0804903 -0.996746 
-0.00112413 0.0667057 -0.997772 
-0.00553226 0.0548081 -0.998482 
-0.00846983 0.0452735 -0.998939 
-0.0108352 0.0367915 -0.999264 
-0.012902 0.0295133 -0.999481 
-0.0142853 0.0232505 -0.999628 
-0.0152785 0.0178765 -0.999723 
-0.0161664 0.0130904 -0.999784 
-0.0166121 0.00880392 -0.999823 
-0.0169164 0.00487476 -0.999845 
-0.0172076 0.0013329 -0.999851 
-0.0172662 -0.00196708 -0.999849 
-0.0173191 -0.0051159 -0.999837 
-0.0171679 -0.00811659 -0.99982 
-0.0168983 -0.0110703 -0.999796 
-0.0164751 -0.014065 -0.999765 
-0.0159209 -0.0170657 -0.999728 
-0.0149045 -0.0192627 -0.999703 
-0.0134902 -0.02059 -0.999697 
-0.0114903 -0.0212771 -0.999708 
-0.00878145 -0.0167646 -0.999821 
4.0848e-05 -0.000199424 -1 
0.00567895 -0.0112139 0.999921 
0.00996156 -0.0196538 0.999757 
0.0119418 -0.0205078 0.999718 
0.013479 -0.0193917 0.999721 
0.0145216 -0.0178907 0.999734 
0.0152595 -0.0152233 0.999768 
0.0156583 -0.0121067 0.999804 
0.0159837 -0.00906932 0.999831 
0.016153 -0.00608822 0.999851 
0.0162048 -0.00303792 0.999864 
0.0162013 0.000150397 0.999869 
0.016066 0.00363811 0.999864 
0.0156896 0.00747927 0.999849 
0.0153427 0.0115836 0.999815 
0.0144115 0.016155 0.999766 
0.0135027 0.0213312 0.999681 
0.0119445 0.0274124 0.999553 
0.0100806 0.0344805 0.999355 
0.00747811 0.0429577 0.999049 
0.00383451 0.0531324 0.99858 
-0.000374997 0.0645391 0.997915 
-0.00660115 0.0789833 0.996854 
-0.0127956 0.0933136 0.995555 
-0.0234217 0.113332 0.993281 
-0.0367511 0.136755 0.989923 
-0.0526773 0.16203 0.985379 
-0.0732278 0.191101 0.978835 
-0.0986357 0.223057 0.969802 
-0.120623 0.249225 0.960904 
-0.152787 0.282886 0.946906 
-0.191077 0.319445 0.92814 
-0.228491 0.352769 0.907384 
-0.252767 0.381973 0.888935 
-0.269854 0.411939 0.870336 
-0.259181 0.445095 0.857155 
0.321231 0.417805 -0.849853 
0.294712 0.396688 -0.869358 
0.273689 0.373204 -0.886461 
0.235867 0.344253 -0.908767 
0.193303 0.311163 -0.93049 
0.154691 0.277455 -0.948203 
0.118344 0.241487 -0.963161 
0.0880952 0.207163 -0.974332 
0.0661757 0.179417 -0.981545 
0.0457237 0.150177 -0.987601 
0.0307353 0.126076 -0.991544 
0.0189959 0.104828 -0.994309 
0.0100066 0.0866969 -0.996184 
0.00317523 0.0714069 -0.997442 
-0.00214937 0.0584629 -0.998287 
-0.00579219 0.047978 -0.998832 
-0.00870406 0.0389378 -0.999204 
-0.0111261 0.0311037 -0.999454 
-0.0128015 0.0245574 -0.999616 
-0.0141174 0.0187653 -0.999724 
-0.0151058 0.0135858 -0.999794 
-0.0157093 0.0090907 -0.999835 
-0.0160659 0.0051306 -0.999858 
-0.0163606 0.00153599 -0.999865 
-0.0165025 -0.00176215 -0.999862 
-0.0164949 -0.00487081 -0.999852 
-0.0163616 -0.00790139 -0.999835 
-0.0160818 -0.0109077 -0.999811 
-0.0156624 -0.0140206 -0.999779 
-0.015021 -0.0170063 -0.999743 
-0.0139772 -0.0192263 -0.999717 
-0.0125923 -0.0206518 -0.999707 
-0.0105524 -0.021196 -0.99972 
-0.00808593 -0.0166616 -0.999828 
-5.24397e-05 -0.000202146 -1 
-0.00024961 2.43248e-05 1 
0.00748518 -0.0166132 0.999834 
0.0100338 -0.020891 0.999731 
0.0116883 -0.0201786 0.999728 
0.0128992 -0.0188499 0.999739 
0.013739 -0.0162576 0.999773 
0.0142127 -0.0130995 0.999813 
0.0145814 -0.00981582 0.999846 
0.0147853 -0.00672265 0.999868 
0.0148318 -0.00358122 0.999884 
0.0148175 -0.000250044 0.99989 
0.0147147 0.00329735 0.999886 
0.014258 0.00722818 0.999872 
0.0138276 0.0117555 0.999835 
0.0128151 0.0169756 0.999774 
0.0115708 0.0227932 0.999673 
0.00978285 0.0297089 0.999511 
0.007607 0.0375435 0.999266 
0.00455822 0.0468212 0.998893 
0.000223926 0.0585294 0.998286 
-0.00484756 0.0715699 0.997424 
-0.0123437 0.0884977 0.996 
-0.0192041 0.103114 0.994484 
-0.0312283 0.125895 0.991552 
-0.0443975 0.148352 0.987937 
-0.0647149 0.179655 0.981599 
-0.0913166 0.216473 0.972009 
-0.123191 0.256112 0.958765 
-0.156157 0.288454 0.944674 
-0.199615 0.328172 0.923286 
-0.253048 0.370064 0.893879 
-0.308699 0.404301 0.860956 
-0.357418 0.423815 0.832246 
-0.402074 0.434781 0.805793 
0.439865 0.429748 -0.788565 
0.367344 0.416951 -0.831391 
0.303828 0.393052 -0.86787 
0.244409 0.359052 -0.900747 
0.191694 0.319881 -0.927863 
0.147831 0.279657 -0.948651 
0.111267 0.239758 -0.964436 
0.0855051 0.209149 -0.974138 
0.0606447 0.173556 -0.982955 
0.0421491 0.144436 -0.988616 
0.0275946 0.119046 -0.992505 
0.0164634 0.0974165 -0.995108 
0.00812697 0.0793727 -0.996812 
0.0017205 0.0640647 -0.997944 
-0.00264821 0.0522893 -0.998628 
-0.00627251 0.0417667 -0.999108 
-0.00901319 0.0328223 -0.999421 
-0.0110135 0.0256229 -0.999611 
-0.0125758 0.0192125 -0.999736 
-0.0137465 0.0138757 -0.999809 
-0.0142827 0.00926749 -0.999855 
-0.0144867 0.00545064 -0.99988 
-0.0149188 0.00186931 -0.999887 
-0.0150365 -0.00144709 -0.999886 
-0.0151311 -0.00458 -0.999875 
-0.0150012 -0.00760195 -0.999859 
-0.0147275 -0.0106042 -0.999835 
-0.0143247 -0.013712 -0.999803 
-0.0137577 -0.0168258 -0.999764 
-0.0128463 -0.0193172 -0.999731 
-0.0115674 -0.0206282 -0.99972 
-0.00967723 -0.0213039 -0.999726 
-0.00741767 -0.016667 -0.999834 
-3.86179e-05 -0.000195973 -1 
0.00010948 -0.000325761 1 
0.00664055 -0.0167025 0.999838 
0.00888748 -0.0210406 0.999739 
0.0101379 -0.0202321 0.999744 
0.0113504 -0.018646 0.999762 
0.0118731 -0.0159442 0.999802 
0.0124089 -0.0125166 0.999845 
0.0126563 -0.00924838 0.999877 
0.0128193 -0.00608496 0.999899 
0.0128518 -0.00280275 0.999913 
0.012757 0.000637637 0.999918 
0.0125961 0.00431426 0.999911 
0.0119553 0.00836676 0.999894 
0.0117949 0.0124462 0.999853 
0.0105978 0.0174226 0.999792 
0.00963537 0.0228758 0.999692 
0.00793906 0.0297537 0.999526 
0.00557535 0.038334 0.999249 
0.00241147 0.0483006 0.99883 
-0.0017044 0.0602068 0.998184 
-0.00757018 0.0757731 0.997096 
-0.0156367 0.094899 0.995364 
-0.0259194 0.116679 0.992831 
-0.0404633 0.145444 0.988539 
-0.0572689 0.173476 0.983172 
-0.0814424 0.21163 0.973951 
-0.112951 0.257415 0.959677 
-0.153832 0.306525 0.93935 
-0.19707 0.347543 0.916721 
-0.25375 0.396532 0.882255 
-0.324217 0.44413 0.835244 
-0.401827 0.478444 0.780785 
-0.478922 0.492288 0.726833 
0.493018 0.492291 -0.717345 
0.39754 0.473023 -0.786264 
0.314845 0.437577 -0.842258 
0.243455 0.389519 -0.888259 
0.185148 0.340072 -0.921993 
0.138364 0.288675 -0.947376 
0.0999244 0.240964 -0.965376 
0.0696409 0.195308 -0.978266 
0.0482283 0.159491 -0.986021 
0.0319165 0.129299 -0.991092 
0.0200317 0.105025 -0.994268 
0.0111456 0.084859 -0.996331 
0.00457088 0.0684529 -0.997644 
-0.000393869 0.0546289 -0.998507 
-0.00400572 0.0435229 -0.999044 
-0.00675098 0.0343826 -0.999386 
-0.00907878 0.0261749 -0.999616 
-0.0104326 0.0199951 -0.999746 
-0.0116692 0.0145678 -0.999826 
-0.0119713 0.0101928 -0.999876 
-0.0123285 0.0058896 -0.999907 
-0.0126864 0.00199263 -0.999918 
-0.0129099 -0.00147176 -0.999916 
-0.0130778 -0.00466959 -0.999904 
-0.0129266 -0.0077 -0.999887 
-0.012669 -0.0107441 -0.999862 
-0.0123049 -0.0139363 -0.999827 
-0.0118831 -0.0171735 -0.999782 
-0.0110012 -0.0195191 -0.999749 
-0.00995822 -0.0209423 -0.999731 
-0.00823927 -0.0212966 -0.999739 
-0.0064072 -0.0165281 -0.999843 
-2.38268e-05 -0.000199507 -1 
1.18228e-05 -0.000168014 1 
0.00554024 -0.0166934 0.999845 
0.00733643 -0.0210444 0.999752 
0.00832134 -0.0205303 0.999755 
0.00944719 -0.0190263 0.999774 
0.00983041 -0.0162141 0.99982 
0.0103994 -0.0128936 0.999863 
0.0105853 -0.00948544 0.999899 
0.0107364 -0.00625054 0.999923 
0.0108161 -0.00298186 0.999937 
0.0106757 0.000601476 0.999943 
0.0104211 0.00452922 0.999935 
0.00987468 0.0089823 0.999911 
0.00936572 0.0138756 0.99986 
0.00818146 0.019565 0.999775 
0.00714884 0.0256499 0.999645 
0.0053668 0.0335419 0.999423 
0.0027666 0.0429528 0.999073 
-0.000630425 0.0542824 0.998525 
-0.00535709 0.0687873 0.997617 
-0.011909 0.0869089 0.996145 
-0.0222698 0.112396 0.993414 
-0.0338443 0.138719 0.989753 
-0.048509 0.172714 0.983777 
-0.0625345 0.1933 0.979145 
-0.0873956 0.237684 0.967403 
-0.123728 0.295069 0.947431 
-0.170877 0.355959 0.918746 
-0.229925 0.416901 0.879391 
-0.302874 0.478575 0.824156 
-0.393852 0.533977 0.748164 
-0.494449 0.571695 0.65474 
0.495102 0.573752 -0.652444 
0.389684 0.536396 -0.748615 
0.299106 0.481867 -0.823614 
0.22596 0.419047 -0.879399 
0.166419 0.355881 -0.919594 
0.121346 0.292778 -0.948449 
0.0844305 0.235553 -0.968187 
0.0588398 0.190142 -0.979992 
0.0401752 0.152716 -0.987453 
0.0263995 0.122981 -0.992058 
0.0161326 0.0984584 -0.99501 
0.00857935 0.0785292 -0.996875 
0.00309379 0.0626177 -0.998033 
-0.00102294 0.049317 -0.998783 
-0.00399251 0.0387486 -0.999241 
-0.00649926 0.0298006 -0.999535 
-0.00796198 0.0225826 -0.999713 
-0.00926088 0.016408 -0.999822 
-0.00981819 0.0112687 -0.999888 
-0.0102807 0.0066393 -0.999925 
-0.0106187 0.00245159 -0.999941 
-0.0108048 -0.0011946 -0.999941 
-0.0109287 -0.00448495 -0.99993 
-0.0108299 -0.0076154 -0.999912 
-0.0106418 -0.0108219 -0.999885 
-0.0102974 -0.0140678 -0.999848 
-0.00993006 -0.0171607 -0.999803 
-0.00918089 -0.0195791 -0.999766 
-0.00834848 -0.0209273 -0.999746 
-0.00691027 -0.0214254 -0.999747 
-0.00537376 -0.01672 -0.999846 
-2.45105e-05 -0.000195013 -1 
1.3911e-05 -0.000204663 1 
0.00459985 -0.0168317 0.999848 
0.00598702 -0.0213019 0.999755 
0.00696737 -0.0205278 0.999765 
0.0078663 -0.018786 0.999793 
0.00814483 -0.0160814 0.999838 
0.00861332 -0.0126394 0.999883 
0.00877041 -0.00929602 0.999918 
0.00890542 -0.00605429 0.999942 
0.00901392 -0.00267201 0.999956 
0.00882873 0.000886713 0.999961 
0.00861654 0.00479046 0.999951 
0.00803335 0.00912137 0.999926 
0.00768728 0.013919 0.999874 
0.0066221 0.0196159 0.999786 
0.00546237 0.0263692 0.999637 
0.00412308 0.033772 0.999421 
0.00178626 0.0433551 0.999058 
-0.00133927 0.055245 0.998472 
-0.00541941 0.0694621 0.99757 
-0.011358 0.0881886 0.996039 
-0.0200849 0.112271 0.993475 
-0.0322973 0.146072 0.988747 
-0.0487921 0.189141 0.980737 
-0.0727979 0.234349 0.969423 
-0.102458 0.290107 0.951494 
-0.14544 0.361747 0.920862 
-0.201639 0.438095 0.876022 
-0.27168 0.514369 0.813397 
-0.361731 0.584289 0.726469 
-0.466812 0.644142 0.605944 
0.461871 0.653796 -0.599354 
0.359396 0.597731 -0.716625 
0.272443 0.528052 -0.804323 
0.203051 0.450081 -0.869596 
0.146335 0.37299 -0.916223 
0.105578 0.299141 -0.94835 
0.0742018 0.241904 -0.967459 
0.0519107 0.193968 -0.979633 
0.0358391 0.155675 -0.987158 
0.023632 0.124429 -0.991947 
0.0145834 0.0990846 -0.994972 
0.00809212 0.0791981 -0.996826 
0.00313837 0.0624818 -0.998041 
-0.000379211 0.0494024 -0.998779 
-0.00311331 0.0383438 -0.99926 
-0.00523608 0.0296271 -0.999547 
-0.00613341 0.0233449 -0.999709 
-0.00742798 0.0176178 -0.999817 
-0.00789892 0.0125944 -0.999889 
-0.0084379 0.00781493 -0.999934 
-0.00879665 0.00334054 -0.999956 
-0.00897408 -0.000551455 -0.99996 
-0.00909865 -0.00401791 -0.999951 
-0.00901397 -0.00720249 -0.999933 
-0.00890824 -0.0103591 -0.999907 
-0.00856164 -0.0136812 -0.99987 
-0.00824138 -0.0169267 -0.999823 
-0.00762137 -0.0193626 -0.999783 
-0.00695674 -0.0207776 -0.99976 
-0.00578949 -0.0216331 -0.999749 
-0.00449752 -0.0170005 -0.999845 