# vtk DataFile Version 3.0 
Exported using Morpho https://github.com/Morpho-lang/morpho 
ASCII 
DATASET UNSTRUCTURED_GRID 

POINTS 2218 float 
-8.32618 -2.88146 0 
-8.11405 -2.88146 0 
-7.90192 -2.88146 0 
-7.68979 -2.88146 0 
-7.47765 -2.88146 0 
-7.26552 -2.88146 0 
-7.05339 -2.88146 0 
-6.84126 -2.88146 0 
-6.62913 -2.88146 0 
-6.41699 -2.88146 0 
-6.20486 -2.88146 0 
-5.99273 -2.88146 0 
-5.7806 -2.88146 0 
-5.56847 -2.88146 0 
-5.35633 -2.88146 0 
-5.1442 -2.88146 0 
-4.93207 -2.88146 0 
-4.71994 -2.88146 0 
-4.50781 -2.88146 0 
-4.29567 -2.88146 0 
-4.08354 -2.88146 0 
-3.87141 -2.88146 0 
-3.65928 -2.88146 0 
-3.44715 -2.88146 0 
-3.23501 -2.88146 0 
-3.02288 -2.88146 0 
-2.81075 -2.88146 0 
-2.59862 -2.88146 0 
-2.38649 -2.88146 0 
-2.17435 -2.88146 0 
-1.96222 -2.88146 0 
-1.75009 -2.88146 0 
-1.53796 -2.88146 0 
-1.32583 -2.88146 0 
-1.11369 -2.88146 0 
-0.901561 -2.88146 0 
-0.689429 -2.88146 0 
-0.477297 -2.88146 0 
-0.265165 -2.88146 0 
-0.053033 -2.88146 0 
0.159099 -2.88146 0 
0.371231 -2.88146 0 
0.583363 -2.88146 0 
0.795495 -2.88146 0 
1.00763 -2.88146 0 
1.21976 -2.88146 0 
1.43189 -2.88146 0 
1.64402 -2.88146 0 
1.85616 -2.88146 0 
2.06829 -2.88146 0 
2.28042 -2.88146 0 
2.49255 -2.88146 0 
2.70468 -2.88146 0 
2.91682 -2.88146 0 
3.12895 -2.88146 0 
3.34108 -2.88146 0 
3.55321 -2.88146 0 
3.76534 -2.88146 0 
3.97748 -2.88146 0 
4.18961 -2.88146 0 
4.40174 -2.88146 0 
4.61387 -2.88146 0 
4.826 -2.88146 0 
5.03814 -2.88146 0 
5.25027 -2.88146 0 
5.4624 -2.88146 0 
5.67453 -2.88146 0 
5.88666 -2.88146 0 
6.0988 -2.88146 0 
6.31093 -2.88146 0 
6.52306 -2.88146 0 
6.73519 -2.88146 0 
6.94732 -2.88146 0 
7.15946 -2.88146 0 
7.37159 -2.88146 0 
7.58372 -2.88146 0 
7.79585 -2.88146 0 
8.00798 -2.88146 0 
8.22012 -2.88146 0 
8.53831 -2.88146 0 
-8.53831 -2.74178 0 
-8.31249 -2.65246 0 
-8.08135 -2.6555 0 
-7.84495 -2.66369 0 
-7.6117 -2.67485 0 
-7.37673 -2.66737 0 
-7.15082 -2.67183 0 
-6.91821 -2.6709 0 
-6.68871 -2.66644 0 
-6.47246 -2.66634 0 
-6.25233 -2.66661 0 
-6.03395 -2.66867 0 
-5.81521 -2.66829 0 
-5.59883 -2.67051 0 
-5.3811 -2.66924 0 
-5.16736 -2.67099 0 
-4.95292 -2.67163 0 
-4.73725 -2.67127 0 
-4.52181 -2.66878 0 
-4.30993 -2.67287 0 
-4.09375 -2.66959 0 
-3.88196 -2.67198 0 
-3.66553 -2.67099 0 
-3.44802 -2.66761 0 
-3.23651 -2.66916 0 
-3.02039 -2.66872 0 
-2.81146 -2.666 0 
-2.60094 -2.67105 0 
-2.38785 -2.67209 0 
-2.17431 -2.6711 0 
-1.96396 -2.67181 0 
-1.75201 -2.67188 0 
-1.54044 -2.67237 0 
-1.33034 -2.67719 0 
-1.11595 -2.67798 0 
-0.90115 -2.67919 0 
-0.685626 -2.68337 0 
-0.470445 -2.67676 0 
-0.254888 -2.67764 0 
-0.04749 -2.66961 0 
0.178599 -2.68548 0 
0.389364 -2.6753 0 
0.609582 -2.68223 0 
0.818608 -2.67265 0 
1.03766 -2.68183 0 
1.25203 -2.679 0 
1.46144 -2.67378 0 
1.66937 -2.67227 0 
1.88875 -2.68257 0 
2.09242 -2.67036 0 
2.31366 -2.68199 0 
2.52232 -2.67185 0 
2.73986 -2.67619 0 
2.95115 -2.67006 0 
3.16437 -2.6699 0 
3.37751 -2.66844 0 
3.58969 -2.66756 0 
3.80328 -2.66947 0 
4.0175 -2.67178 0 
4.2342 -2.6743 0 
4.44465 -2.6705 0 
4.66228 -2.676 0 
4.87169 -2.67001 0 
5.08602 -2.67336 0 
5.29533 -2.66935 0 
5.5127 -2.67546 0 
5.72012 -2.66702 0 
5.93083 -2.6689 0 
6.1447 -2.6734 0 
6.35485 -2.6693 0 
6.56862 -2.67244 0 
6.78056 -2.66911 0 
6.99388 -2.66788 0 
7.207 -2.66454 0 
7.42105 -2.66282 0 
7.63612 -2.66005 0 
7.85134 -2.65398 0 
8.06756 -2.64653 0 
8.31284 -2.71903 0 
8.53831 -2.66933 0 
-8.53831 -2.50015 0 
-8.31002 -2.43284 0 
-8.06135 -2.44831 0 
-7.82387 -2.45445 0 
-7.58626 -2.4743 0 
-7.35714 -2.45468 0 
-7.11874 -2.47221 0 
-6.87802 -2.46942 0 
-6.6656 -2.4456 0 
-6.44519 -2.45457 0 
-6.22539 -2.45419 0 
-6.00639 -2.45845 0 
-5.78941 -2.45678 0 
-5.57172 -2.46209 0 
-5.35924 -2.45657 0 
-5.14813 -2.4597 0 
-4.93404 -2.46253 0 
-4.72067 -2.46145 0 
-4.5096 -2.45547 0 
-4.29687 -2.46458 0 
-4.08884 -2.45512 0 
-3.87345 -2.46375 0 
-3.65192 -2.46656 0 
-3.44178 -2.44926 0 
-3.22256 -2.46067 0 
-3.0159 -2.45083 0 
-2.80211 -2.45333 0 
-2.58871 -2.46138 0 
-2.37446 -2.46381 0 
-2.16628 -2.45851 0 
-1.95444 -2.46218 0 
-1.74253 -2.46205 0 
-1.53127 -2.46208 0 
-1.31639 -2.47315 0 
-1.09921 -2.47499 0 
-0.894004 -2.46487 0 
-0.688412 -2.48456 0 
-0.483933 -2.46077 0 
-0.276139 -2.4729 0 
-0.0629198 -2.45384 0 
0.148617 -2.49182 0 
0.369896 -2.46655 0 
0.583795 -2.48377 0 
0.800692 -2.46045 0 
1.01252 -2.48147 0 
1.22825 -2.47598 0 
1.44037 -2.46403 0 
1.64747 -2.45942 0 
1.85427 -2.48461 0 
2.06431 -2.45417 0 
2.2697 -2.4852 0 
2.48351 -2.46073 0 
2.69377 -2.47297 0 
2.90696 -2.45859 0 
3.11729 -2.45813 0 
3.32802 -2.45612 0 
3.5396 -2.45304 0 
3.75086 -2.45685 0 
3.96345 -2.4612 0 
4.17797 -2.46924 0 
4.39219 -2.45816 0 
4.60643 -2.47315 0 
4.82104 -2.45769 0 
5.03328 -2.46659 0 
5.24575 -2.45654 0 
5.46053 -2.4729 0 
5.67509 -2.45208 0 
5.88477 -2.45621 0 
6.09844 -2.46484 0 
6.31007 -2.45795 0 
6.52488 -2.46414 0 
6.73952 -2.45873 0 
6.95603 -2.45704 0 
7.17408 -2.45092 0 
7.39396 -2.44688 0 
7.61409 -2.44283 0 
7.83627 -2.43349 0 
8.06228 -2.42474 0 
8.29486 -2.50322 0 
8.53831 -2.4572 0 
-8.53831 -2.26791 0 
-8.27775 -2.2361 0 
-8.03661 -2.23915 0 
-7.79571 -2.24965 0 
-7.57102 -2.26371 0 
-7.31964 -2.25812 0 
-7.07233 -2.28099 0 
-6.86223 -2.24259 0 
-6.63667 -2.23334 0 
-6.41571 -2.24313 0 
-6.19346 -2.24392 0 
-5.97568 -2.24747 0 
-5.75499 -2.24916 0 
-5.54354 -2.24812 0 
-5.33343 -2.2419 0 
-5.12124 -2.24973 0 
-4.91024 -2.25116 0 
-4.70054 -2.24795 0 
-4.48954 -2.24338 0 
-4.28756 -2.24651 0 
-4.09225 -2.22488 0 
-3.89753 -2.25314 0 
-3.68436 -2.26402 0 
-3.46823 -2.23652 0 
-3.24864 -2.25339 0 
-3.0325 -2.23107 0 
-2.82687 -2.24363 0 
-2.61056 -2.25012 0 
-2.39898 -2.25531 0 
-2.18707 -2.24369 0 
-1.98003 -2.25178 0 
-1.76865 -2.25238 0 
-1.55515 -2.25193 0 
-1.34007 -2.26527 0 
-1.12555 -2.2715 0 
-0.907422 -2.24817 0 
-0.697056 -2.27146 0 
-0.481908 -2.24679 0 
-0.267793 -2.25947 0 
-0.0520698 -2.24043 0 
0.165123 -2.28738 0 
0.372235 -2.24683 0 
0.581007 -2.27759 0 
0.782995 -2.2364 0 
0.992234 -2.27188 0 
1.20762 -2.27156 0 
1.42401 -2.25762 0 
1.64029 -2.24873 0 
1.85396 -2.27762 0 
2.0747 -2.25191 0 
2.29022 -2.27985 0 
2.49659 -2.24396 0 
2.69881 -2.26565 0 
2.90427 -2.24379 0 
3.11375 -2.24597 0 
3.32534 -2.24265 0 
3.53642 -2.23995 0 
3.74975 -2.24322 0 
3.96175 -2.24982 0 
4.17529 -2.26139 0 
4.38971 -2.24826 0 
4.60423 -2.26664 0 
4.81633 -2.24615 0 
5.02841 -2.25757 0 
5.23814 -2.243 0 
5.44928 -2.26708 0 
5.65988 -2.24037 0 
5.87176 -2.24299 0 
6.08341 -2.25636 0 
6.29686 -2.24588 0 
6.50857 -2.25624 0 
6.72377 -2.24883 0 
6.93873 -2.24779 0 
7.15677 -2.24044 0 
7.37795 -2.23527 0 
7.60212 -2.22702 0 
7.82958 -2.21808 0 
8.06468 -2.21339 0 
8.30043 -2.28723 0 
8.53831 -2.24506 0 
-8.42409 -2.05388 0 
-8.18237 -2.02975 0 
-7.94243 -2.03543 0 
-7.72089 -2.03043 0 
-7.4947 -2.07114 0 
-7.3249 -1.98223 0 
-7.14443 -2.08499 0 
-6.92441 -2.02636 0 
-6.70194 -2.02658 0 
-6.47006 -2.0284 0 
-6.24883 -2.03549 0 
-6.02336 -2.03515 0 
-5.80398 -2.04332 0 
-5.58231 -2.03405 0 
-5.37064 -2.02836 0 
-5.15612 -2.03695 0 
-4.94368 -2.03901 0 
-4.73141 -2.03584 0 
-4.51925 -2.03226 0 
-4.30613 -2.02202 0 
-4.0887 -2.01697 0 
-3.87393 -2.02774 0 
-3.67604 -2.05532 0 
-3.44088 -2.03738 0 
-3.22565 -2.04307 0 
-3.01516 -2.01285 0 
-2.79766 -2.03933 0 
-2.58465 -2.03949 0 
-2.37484 -2.04337 0 
-2.16562 -2.0284 0 
-1.9558 -2.04073 0 
-1.74027 -2.04346 0 
-1.51965 -2.0463 0 
-1.30616 -2.05517 0 
-1.09114 -2.06044 0 
-0.881298 -2.02192 0 
-0.679501 -2.05902 0 
-0.472884 -2.0139 0 
-0.266687 -2.04145 0 
-0.0695109 -1.99325 0 
0.131189 -2.0697 0 
0.335891 -2.02354 0 
0.554817 -2.05271 0 
0.793904 -2.03394 0 
1.03185 -2.05843 0 
1.24372 -2.05599 0 
1.46244 -2.04685 0 
1.67606 -2.03526 0 
1.87917 -2.07587 0 
2.07153 -2.02288 0 
2.26922 -2.07355 0 
2.48521 -2.0394 0 
2.7039 -2.04907 0 
2.91947 -2.03303 0 
3.13123 -2.03399 0 
3.34197 -2.02848 0 
3.55756 -2.02893 0 
3.77131 -2.031 0 
3.97805 -2.03204 0 
4.1848 -2.05196 0 
4.38908 -2.02715 0 
4.5942 -2.05774 0 
4.80387 -2.03198 0 
5.01497 -2.04622 0 
5.23166 -2.03524 0 
5.44875 -2.05683 0 
5.66364 -2.02962 0 
5.87638 -2.0313 0 
6.08597 -2.04692 0 
6.29292 -2.02977 0 
6.50101 -2.04456 0 
6.71172 -2.04049 0 
6.92828 -2.03686 0 
7.14368 -2.03058 0 
7.3653 -2.02584 0 
7.59131 -2.01717 0 
7.82198 -2.00739 0 
8.05853 -2.00233 0 
8.29806 -2.06979 0 
8.53831 -2.03293 0 
-8.53831 -1.83135 0 
-8.30817 -1.83402 0 
-8.05744 -1.83364 0 
-7.81946 -1.8122 0 
-7.58096 -1.84045 0 
-7.34894 -1.77794 0 
-7.10839 -1.8535 0 
-6.88185 -1.80924 0 
-6.65745 -1.81989 0 
-6.44131 -1.81354 0 
-6.22186 -1.82702 0 
-6.00747 -1.82237 0 
-5.79127 -1.83464 0 
-5.58367 -1.81448 0 
-5.37784 -1.81144 0 
-5.17084 -1.82404 0 
-4.96071 -1.82489 0 
-4.75242 -1.82342 0 
-4.54259 -1.82003 0 
-4.33222 -1.8125 0 
-4.11869 -1.81005 0 
-3.90145 -1.81397 0 
-3.69158 -1.82609 0 
-3.49436 -1.85399 0 
-3.25188 -1.83303 0 
-3.0485 -1.79796 0 
-2.83291 -1.82971 0 
-2.62006 -1.82935 0 
-2.40704 -1.82854 0 
-2.20175 -1.81677 0 
-1.98782 -1.82422 0 
-1.77937 -1.83497 0 
-1.55919 -1.84118 0 
-1.33475 -1.83765 0 
-1.12088 -1.84374 0 
-0.898751 -1.80938 0 
-0.666119 -1.82788 0 
-0.44259 -1.78064 0 
-0.242375 -1.78872 0 
-0.0387901 -1.72666 0 
0.143519 -1.83138 0 
0.384456 -1.80992 0 
0.615718 -1.84613 0 
0.771604 -1.722 0 
0.949736 -1.85307 0 
1.18342 -1.83028 0 
1.39934 -1.83754 0 
1.62266 -1.82633 0 
1.84956 -1.85196 0 
2.07982 -1.82438 0 
2.30466 -1.86166 0 
2.50998 -1.8128 0 
2.70221 -1.84453 0 
2.89956 -1.81312 0 
3.10676 -1.82266 0 
3.31899 -1.8149 0 
3.5313 -1.81996 0 
3.74928 -1.81926 0 
3.96316 -1.81208 0 
4.17032 -1.83338 0 
4.39128 -1.82116 0 
4.61065 -1.84206 0 
4.82815 -1.82056 0 
5.04105 -1.83844 0 
5.24724 -1.81428 0 
5.44815 -1.85121 0 
5.65449 -1.81355 0 
5.86292 -1.82291 0 
6.0797 -1.83315 0 
6.2895 -1.81734 0 
6.50227 -1.83092 0 
6.71756 -1.83169 0 
6.92814 -1.82305 0 
7.14821 -1.82049 0 
7.37134 -1.81615 0 
7.59814 -1.80755 0 
7.83164 -1.79917 0 
8.06764 -1.79189 0 
8.30176 -1.85619 0 
8.53831 -1.8208 0 
-8.53831 -1.6152 0 
[...]
POINT_DATA 2218 
VECTORS vectors float
-0.000119134 -0.000555627 1 
7.30954e-05 -0.0158951 0.999874 
-0.000100645 -0.0196575 0.999807 
-4.80531e-05 -0.0201104 0.999798 
-6.01811e-05 -0.0190197 0.999819 
-5.63542e-05 -0.0170488 0.999855 
-5.76038e-05 -0.0148475 0.99989 
-5.74475e-05 -0.0126121 0.99992 
-5.73627e-05 -0.0103279 0.999947 
-5.74619e-05 -0.00797699 0.999968 
-5.75107e-05 -0.0055881 0.999984 
-5.75379e-05 -0.00319777 0.999995 
-5.73722e-05 -0.000816294 1 
-5.76551e-05 0.00159063 0.999999 
-5.73526e-05 0.00410285 0.999992 
-5.73695e-05 0.00682924 0.999977 
-5.715e-05 0.00990046 0.999951 
-5.71751e-05 0.0134737 0.999909 
-5.62566e-05 0.0177326 0.999843 
-5.69279e-05 0.0228755 0.999738 
-5.49005e-05 0.0291791 0.999574 
-5.61104e-05 0.0369537 0.999317 
-5.39058e-05 0.0466125 0.998913 
-5.26534e-05 0.0582087 0.998304 
-5.37121e-05 0.0730398 0.997329 
-4.94833e-05 0.091418 0.995813 
-4.85429e-05 0.113413 0.993548 
-4.71146e-05 0.141468 0.989943 
-4.27617e-05 0.175857 0.984416 
-3.99046e-05 0.218079 0.975931 
-3.5175e-05 0.269599 0.962973 
-3.02707e-05 0.33199 0.943283 
-2.35125e-05 0.406518 0.913643 
-1.80282e-05 0.493635 0.869669 
-8.22397e-06 0.592496 0.805573 
-6.16347e-06 0.699416 0.714715 
9.03706e-07 0.807214 0.590259 
4.87168e-06 0.901243 0.433314 
4.16469e-07 0.970159 0.24247 
3.52149e-06 0.999536 0.0304565 
4.9483e-07 0.982772 -0.18482 
4.45816e-07 0.923308 -0.38406 
1.93652e-06 0.832825 -0.553536 
4.52581e-06 0.726427 -0.687244 
1.11321e-05 0.617241 -0.786774 
1.66982e-05 0.514655 -0.857397 
2.36946e-05 0.423422 -0.905933 
2.9524e-05 0.345155 -0.938546 
3.56574e-05 0.279523 -0.960139 
3.86962e-05 0.22545 -0.974255 
4.40594e-05 0.181196 -0.983447 
4.55923e-05 0.145362 -0.989379 
4.9042e-05 0.116375 -0.993205 
5.03994e-05 0.0930249 -0.995664 
5.21953e-05 0.0742339 -0.997241 
5.33885e-05 0.0591378 -0.99825 
5.43392e-05 0.0469976 -0.998895 
5.51874e-05 0.0372253 -0.999307 
5.58063e-05 0.0293469 -0.999569 
5.64264e-05 0.0229781 -0.999736 
5.65005e-05 0.01779 -0.999842 
5.72703e-05 0.0135286 -0.999908 
5.7113e-05 0.00997836 -0.99995 
5.75745e-05 0.00695223 -0.999976 
5.73257e-05 0.00429576 -0.999991 
5.7884e-05 0.00187537 -0.999998 
5.74516e-05 -0.000425062 -1 
5.75445e-05 -0.00271464 -0.999996 
5.78581e-05 -0.00503841 -0.999987 
5.73244e-05 -0.00741841 -0.999972 
5.76857e-05 -0.00982982 -0.999952 
5.73112e-05 -0.0122248 -0.999925 
5.76093e-05 -0.0145862 -0.999894 
5.80025e-05 -0.0169638 -0.999856 
5.29661e-05 -0.0193576 -0.999813 
6.68127e-05 -0.0215075 -0.999769 
4.74128e-05 -0.0225954 -0.999745 
4.97889e-05 -0.0227205 -0.999742 
0.000116313 -0.0198865 -0.999802 
-8.5863e-05 -0.000989977 -1 
-9.05071e-05 0.000366633 1 
0.007245 -0.0114634 0.999908 
0.00978678 -0.017582 0.999798 
0.0107709 -0.0196261 0.999749 
0.0112182 -0.0192943 0.999751 
0.0117017 -0.0177333 0.999774 
0.0118816 -0.0155946 0.999808 
0.0120878 -0.0131805 0.99984 
0.0123017 -0.0107487 0.999867 
0.0124443 -0.00841654 0.999887 
0.0125291 -0.00600798 0.999903 
0.0125512 -0.00360365 0.999915 
0.0126135 -0.00118002 0.99992 
0.012606 0.00125926 0.99992 
0.0126458 0.0038263 0.999913 
0.012591 0.0065592 0.999899 
0.0125279 0.00964298 0.999875 
0.0124473 0.0132483 0.999835 
0.0123841 0.017543 0.999769 
0.0121446 0.022642 0.99967 
0.0119966 0.0290211 0.999507 
0.0116958 0.0367249 0.999257 
0.0113862 0.0464294 0.998857 
0.0110839 0.0587182 0.998213 
0.0106006 0.0733211 0.997252 
0.0100386 0.09187 0.99572 
0.00949876 0.114357 0.993394 
0.00863751 0.14192 0.98984 
0.00768372 0.17647 0.984276 
0.00659552 0.219084 0.975684 
0.00534129 0.270259 0.962773 
0.003899 0.33262 0.943053 
0.00229444 0.406872 0.913482 
0.00060287 0.492914 0.870078 
-0.00116602 0.592464 0.805596 
-0.00284053 0.700073 0.714066 
-0.00413224 0.808951 0.587861 
-0.00540572 0.904487 0.426468 
-0.00594488 0.97305 0.230518 
-0.00621014 0.999724 0.0226781 
-0.00547038 0.978613 -0.205636 
-0.00534765 0.916037 -0.401059 
-0.00488796 0.819855 -0.572551 
-0.00506974 0.714254 -0.699868 
-0.0051605 0.60236 -0.798208 
-0.00572994 0.500382 -0.865786 
-0.00645813 0.412287 -0.911031 
-0.00718643 0.337348 -0.941353 
-0.00779057 0.271163 -0.962502 
-0.00864163 0.220527 -0.975343 
-0.00911651 0.175604 -0.984419 
-0.00983926 0.141357 -0.98991 
-0.0102752 0.112554 -0.993592 
-0.0107998 0.0900253 -0.995881 
-0.0111735 0.0717664 -0.997359 
-0.011522 0.0571088 -0.998301 
-0.0118134 0.0453762 -0.9989 
-0.0120094 0.035869 -0.999284 
-0.0121682 0.0281922 -0.999528 
-0.0122983 0.0219221 -0.999684 
-0.0125224 0.0169576 -0.999778 
-0.0125159 0.0127387 -0.999841 
-0.0127288 0.00934305 -0.999875 
-0.0127131 0.00636421 -0.999899 
-0.0128305 0.00378951 -0.999911 
-0.0127123 0.00133647 -0.999918 
-0.0128887 -0.000905068 -0.999917 
-0.0128171 -0.00316471 -0.999913 
-0.0126575 -0.00547929 -0.999905 
-0.012695 -0.00778525 -0.999889 
-0.0125324 -0.010156 -0.99987 
-0.0124788 -0.0124946 -0.999844 
-0.0123242 -0.0148504 -0.999814 
-0.0121345 -0.0171984 -0.999778 
-0.0118218 -0.0193959 -0.999742 
-0.0113983 -0.0211175 -0.999712 
-0.0106795 -0.0220586 -0.9997 
-0.00932403 -0.0212599 -0.999731 
-0.00540821 -0.016066 -0.999856 
0.000245177 0.000454185 -1 
0.0001826 -0.000123155 1 
0.00856208 -0.0145555 0.999857 
0.0121429 -0.0192696 0.999741 
0.0136842 -0.0197863 0.999711 
0.0145192 -0.018958 0.999715 
0.0152959 -0.0174123 0.999731 
0.0155441 -0.0151308 0.999765 
0.0158973 -0.0125966 0.999794 
0.0163551 -0.0103363 0.999813 
0.0164203 -0.00799837 0.999833 
0.0165625 -0.00563835 0.999847 
0.0166394 -0.00326484 0.999856 
0.0167454 -0.000875535 0.999859 
0.0167413 0.00159129 0.999859 
0.016822 0.00413162 0.99985 
0.0167532 0.00687894 0.999836 
0.0166322 0.0100223 0.999811 
0.0165086 0.0136703 0.99977 
0.0163818 0.0179686 0.999704 
0.016047 0.0231857 0.999602 
0.0157829 0.029398 0.999443 
0.0153042 0.037376 0.999184 
0.0147839 0.0475242 0.998761 
0.0143154 0.0595404 0.998123 
0.0135108 0.074957 0.997095 
0.0127341 0.0930936 0.995576 
0.0117365 0.116236 0.993152 
0.0105201 0.14475 0.989412 
0.00912006 0.18012 0.983602 
0.00752911 0.222383 0.97493 
0.00566642 0.2746 0.961542 
0.00355284 0.337758 0.941226 
0.00122312 0.412768 0.910835 
-0.00120456 0.501602 0.865098 
-0.00378379 0.603257 0.797538 
-0.00630162 0.70696 0.707225 
-0.00806936 0.809193 0.587487 
-0.0102663 0.900733 0.434252 
-0.0110539 0.968676 0.248082 
-0.0119324 0.99928 0.0360101 
-0.0106633 0.984053 -0.177555 
-0.0106416 0.922495 -0.385863 
-0.00947677 0.831992 -0.554706 
-0.00933447 0.722799 -0.690995 
-0.0087138 0.614941 -0.788525 
-0.0089125 0.511422 -0.859283 
-0.00943977 0.420947 -0.907036 
-0.0100437 0.345046 -0.938532 
-0.0105177 0.281536 -0.959493 
-0.0114772 0.227229 -0.973774 
-0.0119896 0.184427 -0.982773 
-0.0128524 0.14751 -0.988977 
-0.0134329 0.118675 -0.992842 
-0.014059 0.0946212 -0.995414 
-0.0145802 0.0757643 -0.997019 
-0.0150365 0.0605047 -0.998055 
-0.0154576 0.048157 -0.99872 
-0.0157808 0.038212 -0.999145 
-0.0160582 0.0301389 -0.999417 
-0.0162851 0.0235917 -0.999589 
-0.0165569 0.0182006 -0.999697 
-0.01663 0.0138497 -0.999766 
-0.0168683 0.0101741 -0.999806 
-0.0169204 0.00711575 -0.999832 
-0.017019 0.00440229 -0.999845 
-0.0169159 0.00192705 -0.999855 
-0.0170662 -0.000416723 -0.999854 
-0.0169953 -0.00265872 -0.999852 
-0.0168454 -0.00493914 -0.999846 
-0.0168067 -0.00720753 -0.999833 
-0.0165941 -0.00953869 -0.999817 
-0.0164291 -0.0118703 -0.999795 
-0.0161344 -0.0142468 -0.999768 
-0.0157556 -0.0166526 -0.999737 
-0.0151948 -0.0188636 -0.999707 
-0.0144202 -0.0205516 -0.999685 
-0.0132444 -0.0216647 -0.999678 
-0.0114153 -0.0212386 -0.999709 
-0.00762945 -0.0163506 -0.999837 
-0.000436698 9.76159e-06 -1 
-0.000144694 2.87797e-05 1 
0.00916085 -0.0162714 0.999826 
0.0122004 -0.0203123 0.999719 
0.0137978 -0.0199094 0.999707 
0.0149136 -0.0189205 0.99971 
0.0157015 -0.0170881 0.999731 
0.0162863 -0.0146145 0.999761 
0.0164612 -0.012335 0.999788 
0.0166887 -0.00994568 0.999811 
0.0169107 -0.00762103 0.999828 
0.0170889 -0.0052627 0.99984 
0.0172221 -0.00291861 0.999847 
0.0173129 -0.000482827 0.99985 
0.0173323 0.00194286 0.999848 
0.0173182 0.00450347 0.99984 
0.0172835 0.00732973 0.999824 
0.0171767 0.010514 0.999797 
0.016995 0.0142029 0.999755 
0.0167545 0.0186233 0.999686 
0.0164726 0.023735 0.999583 
0.0160451 0.0296636 0.999431 
0.015705 0.0367753 0.9992 
0.0151943 0.0463846 0.998808 
0.014384 0.0584307 0.998188 
0.0135796 0.0736136 0.997194 
0.012464 0.0923348 0.99565 
0.0114084 0.11422 0.99339 
0.010063 0.142721 0.989712 
0.00850749 0.177105 0.984155 
0.00657627 0.219511 0.975588 
0.0045612 0.269701 0.962933 
0.00218101 0.331587 0.943422 
-0.000492619 0.406156 0.913803 
-0.00325188 0.493868 0.869531 
-0.00620477 0.593074 0.805124 
-0.00959494 0.702062 0.712051 
-0.011931 0.807516 0.589724 
-0.0147057 0.903598 0.428129 
-0.0159955 0.971661 0.235835 
-0.0171033 0.999651 0.0201257 
-0.0156911 0.980151 -0.197628 
-0.0156529 0.92024 -0.391042 
-0.013783 0.831418 -0.555476 
-0.0132701 0.730501 -0.682782 
-0.01176 0.624832 -0.78067 
-0.0112091 0.520514 -0.85378 
-0.0110994 0.427241 -0.90407 
-0.0112293 0.347009 -0.937795 
-0.0115161 0.281436 -0.959511 
-0.0121176 0.225305 -0.974213 
-0.0127134 0.18069 -0.983458 
-0.013279 0.145956 -0.989202 
-0.0138906 0.118255 -0.992886 
-0.0144182 0.0954497 -0.99533 
-0.0149129 0.0763975 -0.996966 
-0.0153753 0.0609625 -0.998022 
-0.0157945 0.0485627 -0.998695 
-0.0161839 0.0384626 -0.999129 
-0.016523 0.0303315 -0.999403 
-0.0168656 0.0237713 -0.999575 
-0.0170887 0.018398 -0.999685 
-0.0173179 0.0139721 -0.999752 
-0.0174309 0.0103361 -0.999795 
-0.0175406 0.00722424 -0.99982 
-0.0175883 0.00452926 -0.999835 
-0.0176661 0.0020614 -0.999842 
-0.0176205 -0.000257429 -0.999845 
-0.0175213 -0.00252483 -0.999843 
-0.0175011 -0.00477557 -0.999835 
-0.0172989 -0.00701879 -0.999826 
-0.0171553 -0.00928993 -0.99981 
-0.016881 -0.0115984 -0.99979 
-0.0165184 -0.0139462 -0.999766 
-0.0160154 -0.0163718 -0.999738 
-0.0153187 -0.0186055 -0.99971 
-0.0143033 -0.0201952 -0.999694 
-0.0129459 -0.0213771 -0.999688 
-0.0111003 -0.0212947 -0.999712 
-0.00808677 -0.0163829 -0.999833 
-2.85165e-05 6.0426e-05 -1 
0.00494762 -0.0118319 0.999918 
0.00960442 -0.0190176 0.999773 
0.0116776 -0.0208126 0.999715 
0.01301 -0.0198228 0.999719 
0.0143385 -0.018678 0.999723 
0.0144272 -0.0173706 0.999745 
0.0153941 -0.0154634 0.999762 
0.0154562 -0.0129985 0.999796 
0.0157719 -0.0106057 0.999819 
0.0160475 -0.00817293 0.999838 
0.0162871 -0.00584871 0.99985 
0.0164458 -0.00344333 0.999859 
0.0165878 -0.00103224 0.999862 
0.0165748 0.00150592 0.999861 
0.0165762 0.00408295 0.999854 
0.0165691 0.00692448 0.999839 
0.0164663 0.0100991 0.999813 
0.0162707 0.0137844 0.999773 
0.0160004 0.0181596 0.999707 
0.0156094 0.0234681 0.999603 
0.0152031 0.0301792 0.999429 
0.0147 0.0381851 0.999163 
0.0142198 0.047179 0.998785 
0.0133166 0.0607441 0.998065 
0.0124433 0.076279 0.997009 
0.0111502 0.0949343 0.995421 
0.0100233 0.118884 0.992858 
0.00852903 0.14802 0.988948 
0.00683275 0.183284 0.983036 
0.00473054 0.226457 0.97401 
0.00254295 0.278771 0.960354 
-8.58208e-05 0.343692 0.939083 
-0.00308323 0.423014 0.906118 
-0.00616146 0.512549 0.858636 
-0.00945822 0.614167 0.789119 
-0.0133063 0.719579 0.694283 
-0.0157228 0.819048 0.573509 
-0.0190568 0.909946 0.414289 
-0.0204922 0.97324 0.228877 
-0.0222347 0.999303 0.0299891 
-0.0205381 0.985176 -0.170315 
-0.0203332 0.931109 -0.364173 
-0.0180134 0.840943 -0.540824 
-0.0162495 0.723143 -0.690508 
-0.0140639 0.602151 -0.798258 
-0.0128999 0.5024 -0.864539 
-0.0121885 0.411131 -0.911495 
-0.0119026 0.335395 -0.942003 
-0.01184 0.274176 -0.961607 
-0.0120192 0.225838 -0.974091 
-0.0124165 0.184721 -0.982712 
-0.0128085 0.147946 -0.988913 
-0.0133541 0.117868 -0.992939 
-0.0137785 0.0939541 -0.995481 
-0.0142809 0.0751967 -0.997066 
-0.0147066 0.0601143 -0.998083 
-0.0151284 0.047678 -0.998748 
-0.0155176 0.0377695 -0.999166 
-0.0158659 0.0300501 -0.999422 
-0.0162096 0.0236579 -0.999589 
-0.0163377 0.0185396 -0.999695 
-0.0166715 0.0142606 -0.999759 
-0.0167291 0.0106292 -0.999804 
-0.016855 0.0074555 -0.99983 
-0.0168884 0.00464155 -0.999847 
-0.0170278 0.00207655 -0.999853 
-0.0168735 -0.000309741 -0.999858 
-0.0168696 -0.00260211 -0.999854 
-0.0168136 -0.00481339 -0.999847 
-0.0165712 -0.00698956 -0.999838 
-0.0164547 -0.00919959 -0.999822 
-0.0161168 -0.0114266 -0.999805 
-0.0156932 -0.0137791 -0.999782 
-0.0151594 -0.0162061 -0.999754 
-0.0144316 -0.018502 -0.999725 
-0.0133921 -0.0201396 -0.999707 
-0.011955 -0.0212618 -0.999702 
-0.0101192 -0.0212112 -0.999724 
-0.00757191 -0.0164907 -0.999835 
-7.23065e-05 6.93898e-05 -1 
-0.000147542 5.51029e-07 1 
0.00682317 -0.0158384 0.999851 
0.00983541 -0.0209079 0.999733 
0.0113067 -0.020544 0.999725 
0.0127372 -0.0193564 0.999732 
0.0131776 -0.0176745 0.999757 
0.0142355 -0.0150766 0.999785 
0.0143479 -0.0125424 0.999818 
0.0147492 -0.0101484 0.99984 
0.0149647 -0.00788882 0.999857 
0.0152589 -0.00558572 0.999868 
0.0153863 -0.00329274 0.999876 
0.0155744 -0.000895012 0.999878 
0.0155125 0.0015141 0.999879 
0.0154663 0.00404337 0.999872 
0.0154847 0.00680607 0.999857 
0.0153677 0.00995634 0.999832 
0.0151757 0.013565 0.999793 
0.0148972 0.0178653 0.999729 
0.0145189 0.0230563 0.999629 
0.0140886 0.0294846 0.999466 
0.013574 0.0375021 0.999204 
0.0130216 0.0470375 0.998808 
0.0125089 0.0579432 0.998242 
0.011296 0.0748482 0.997131 
0.0100534 0.0929428 0.995621 
0.00895693 0.115885 0.993222 
0.00744517 0.144207 0.989519 
0.00567367 0.17919 0.983798 
0.00361779 0.220468 0.975388 
0.00130851 0.272624 0.96212 
-0.0012298 0.333775 0.942652 
-0.00429044 0.41093 0.911657 
-0.00782431 0.503434 0.863999 
-0.011369 0.602698 0.797888 
-0.0155806 0.71516 0.698787 
-0.019248 0.829485 0.558197 
-0.0230612 0.92405 0.381576 
-0.0248304 0.980443 0.195229 
-0.0265431 0.999579 -0.0117107 
-0.0246946 0.981383 -0.190469 
-0.0233477 0.91048 -0.412895 
-0.0204216 0.809421 -0.586873 
-0.0198909 0.729249 -0.68396 
-0.0167098 0.64119 -0.7672 
-0.0147981 0.527598 -0.849365 
-0.0133424 0.434491 -0.900577 
-0.0124329 0.351782 -0.936 
-0.0119194 0.281633 -0.959448 
-0.0118279 0.223857 -0.97455 
-0.0120784 0.178125 -0.983934 
-0.0121978 0.144215 -0.989471 
-0.0126708 0.118163 -0.992913 
-0.0129054 0.0963323 -0.995266 
-0.0133252 0.0774057 -0.996911 
-0.0136749 0.0618213 -0.997994 
-0.0140829 0.0492546 -0.998687 
-0.0144377 0.0388871 -0.999139 
-0.0147091 0.0306923 -0.999421 
-0.0150901 0.0241847 -0.999594 
-0.0152813 0.0186184 -0.99971 
-0.0156186 0.0140522 -0.999779 
-0.015616 0.0102908 -0.999825 
-0.0158848 0.00716165 -0.999848 
-0.0157778 0.00447826 -0.999865 
-0.0160419 0.00208822 -0.999869 
-0.0158003 -0.000226216 -0.999875 
-0.0157801 -0.00248522 -0.999872 
-0.0156897 -0.0047739 -0.999866 
-0.0154359 -0.00697894 -0.999857 
-0.015302 -0.00920685 -0.999841 
-0.0149882 -0.0114805 -0.999822 
-0.0145184 -0.0137519 -0.9998 
-0.0140219 -0.0162753 -0.999769 
-0.0132981 -0.0186033 -0.999739 
-0.0122957 -0.0202628 -0.999719 
-0.0109119 -0.0213433 -0.999713 
-0.00917327 -0.0211812 -0.999734 
-0.0068575 -0.0163836 -0.999842 
-9.08581e-05 6.73337e-05 -1 
0.000155809 -1.63067e-05 1 
0.00614798 -0.0161042 0.999851 
0.0086105 -0.020767 0.999747 
0.00989886 -0.0208351 0.999734 
0.0112713 -0.0196632 0.999743 
0.0115992 -0.0178365 0.999774 
0.012745 -0.0151424 0.999804 
0.0127184 -0.0124924 0.999841 
0.0130715 -0.0101414 0.999863 
0.0133458 -0.00776224 0.999881 
0.0136121 -0.00546385 0.999892 
0.0137647 -0.00306793 0.999901 
0.0139142 -0.000660433 0.999903 
0.0137166 0.00186082 0.999904 
0.0137039 0.00454216 0.999896 
0.0137572 0.00744348 0.999878 
0.01361 0.0107309 0.99985 
0.0134118 0.0145537 0.999804 
0.0131153 0.0191299 0.999731 
0.012733 0.024738 0.999613 
0.0123013 0.031686 0.999422 
0.0117369 0.0400407 0.999129 
0.0111568 0.0497913 0.998697 
0.0108948 0.0627075 0.997972 
0.00943493 0.0781367 0.996898 
0.00818605 0.0995076 0.995003 
0.00704338 0.123033 0.992378 
0.00549271 0.152871 0.988231 
0.00368175 0.187773 0.982206 
0.0015835 0.232839 0.972514 
-0.000760782 0.285571 0.958357 
-0.00340168 0.351373 0.936229 
-0.00661652 0.43178 0.901955 
-0.0102355 0.52249 0.852584 
-0.0138889 0.621927 0.782952 
-0.0180317 0.723192 0.690412 
-0.0211356 0.820973 0.570575 
-0.0250852 0.917335 0.397326 
-0.0279179 0.983062 0.181133 
-0.0290362 0.996751 -0.0751323 
-0.0270295 0.953765 -0.299335 
-0.0286765 0.940062 -0.339796 
-0.0244275 0.855914 -0.516542 
-0.0217847 0.730575 -0.682485 
-0.0176206 0.603307 -0.797314 
-0.0152542 0.497851 -0.867128 
-0.0134904 0.410373 -0.911818 
-0.0122666 0.331491 -0.943379 
-0.0116549 0.270531 -0.962641 
-0.0111599 0.222729 -0.974817 
-0.0113117 0.18262 -0.983119 
-0.0111757 0.146994 -0.989074 
-0.0114218 0.117121 -0.993052 
-0.0116051 0.0933711 -0.995564 
-0.0119824 0.0749673 -0.997114 
-0.0122567 0.0597921 -0.998136 
-0.0126694 0.0474141 -0.998795 
-0.0129131 0.0375888 -0.99921 
-0.0131044 0.0297091 -0.999473 
-0.0136335 0.0232978 -0.999636 
-0.0135555 0.0181953 -0.999743 
-0.0140603 0.0141045 -0.999802 
-0.0138916 0.0105861 -0.999847 
-0.0141695 0.00745281 -0.999872 
-0.014125 0.0045556 -0.99989 
-0.0143415 0.00191313 -0.999895 
-0.0140197 -0.000537412 -0.999902 
-0.0141421 -0.00291207 -0.999896 
-0.0139978 -0.00510216 -0.999889 
-0.0136113 -0.00722365 -0.999881 
-0.0136178 -0.00931162 -0.999864 
-0.0132717 -0.0114856 -0.999846 
-0.0128801 -0.0138218 -0.999822 
-0.0123705 -0.0162188 -0.999792 
-0.0117505 -0.0186065 -0.999758 
-0.0108866 -0.0203316 -0.999734 
-0.00967239 -0.0214416 -0.999723 
-0.00813679 -0.0213322 -0.999739 
-0.00610756 -0.0164542 -0.999846 
-6.85503e-05 6.59344e-05 -1 
2.88215e-05 0.000124174 1 
0.00526236 -0.0163554 0.999852 
0.00736671 -0.020964 0.999753 
0.0083796 -0.0210045 0.999744 
0.00962572 -0.0198122 0.999757 
0.00980695 -0.0180007 0.99979 
0.0109784 -0.0153722 0.999822 
0.01084 -0.0128615 0.999859 
0.0111221 -0.0104108 0.999884 
0.0114472 -0.00807678 0.999902 
0.0116569 -0.0056925 0.999916 
0.0118476 -0.00333412 0.999924 
0.0119285 -0.000827621 0.999929 
0.0118247 0.00175553 0.999929 
0.0117422 0.00451977 0.999921 
0.0117847 0.00746599 0.999903 
0.0116597 0.0107528 0.999874 
0.0114767 0.0145948 0.999828 
0.0112234 0.0191404 0.999754 
0.0108825 0.0247012 0.999636 
0.0105028 0.0315326 0.999448 
0.00991432 0.0400562 0.999148 
0.00923532 0.0503879 0.998687 
0.00922169 0.0620101 0.998033 
0.0078328 0.0765088 0.997038 
0.00697866 0.0948719 0.995465 
0.00554314 0.120652 0.992679 
0.00421739 0.148589 0.98889 
0.00237803 0.183966 0.98293 
0.000565001 0.225968 0.974135 
-0.00182664 0.279804 0.960055 
-0.00429279 0.342729 0.939425 
-0.00732754 0.419563 0.907697 
-0.011016 0.511315 0.859322 
-0.0149415 0.613866 0.789269 
-0.0194259 0.731728 0.68132 
-0.0234447 0.841627 0.53955 
-0.0273889 0.939568 0.341265 
-0.0298872 0.993765 0.107413 
-0.0305402 0.999274 0.0227622 
-0.0305818 0.989916 -0.138316 
-0.0294081 0.925875 -0.376683 
-0.0259128 0.842839 -0.537542 
-0.0228878 0.724027 -0.689392 
-0.0190171 0.613341 -0.789589 
-0.016194 0.510989 -0.859435 
-0.0137557 0.416623 -0.908975 
-0.0122012 0.341036 -0.939971 
-0.0111512 0.276116 -0.96106 
-0.0103629 0.222997 -0.974764 
-0.0102855 0.180098 -0.983595 
-0.0099459 0.146051 -0.989227 
-0.0101262 0.118243 -0.992933 
-0.0101861 0.0952916 -0.995397 
-0.0103987 0.0760626 -0.997049 
-0.0105909 0.0608874 -0.998088 
-0.0109678 0.0485528 -0.99876 
-0.0111233 0.0384495 -0.999199 
-0.0112396 0.0303485 -0.999476 
-0.0117189 0.0237801 -0.999649 
-0.0116874 0.0183764 -0.999763 
-0.012058 0.0138893 -0.999831 
-0.011931 0.010143 -0.999877 
-0.0123374 0.00702514 -0.999899 
-0.0120931 0.00432496 -0.999918 
-0.0124828 0.0019253 -0.99992 
-0.0120311 -0.000359397 -0.999928 
-0.0122814 -0.00266145 -0.999921 
-0.0119834 -0.00495449 -0.999916 
-0.0116591 -0.00716223 -0.999906 
-0.0115862 -0.00935092 -0.999889 
-0.0113595 -0.0116325 -0.999868 
-0.0109667 -0.0139433 -0.999843 
-0.0105032 -0.0163584 -0.999811 
-0.00996826 -0.0187814 -0.999774 
-0.00920644 -0.0204685 -0.999748 
-0.00817223 -0.0215646 -0.999734 