# vtk DataFile Version 3.0 
Exported using Morpho https://github.com/Morpho-lang/morpho 
ASCII 
DATASET UNSTRUCTURED_GRID 

POINTS 2160 float 
-8.32618 -2.88146 0 
-8.11405 -2.88146 0 
-7.90192 -2.88146 0 
-7.68979 -2.88146 0 
-7.47765 -2.88146 0 
-7.26552 -2.88146 0 
-7.05339 -2.88146 0 
-6.84126 -2.88146 0 
-6.62913 -2.88146 0 
-6.41699 -2.88146 0 
-6.20486 -2.88146 0 
-5.99273 -2.88146 0 
-5.7806 -2.88146 0 
-5.56847 -2.88146 0 
-5.35633 -2.88146 0 
-5.1442 -2.88146 0 
-4.93207 -2.88146 0 
-4.71994 -2.88146 0 
-4.50781 -2.88146 0 
-4.29567 -2.88146 0 
-4.08354 -2.88146 0 
-3.87141 -2.88146 0 
-3.65928 -2.88146 0 
-3.44715 -2.88146 0 
-3.23501 -2.88146 0 
-3.02288 -2.88146 0 
-2.81075 -2.88146 0 
-2.59862 -2.88146 0 
-2.38649 -2.88146 0 
-2.17435 -2.88146 0 
-1.96222 -2.88146 0 
-1.75009 -2.88146 0 
-1.53796 -2.88146 0 
-1.32583 -2.88146 0 
-1.11369 -2.88146 0 
-0.901561 -2.88146 0 
-0.689429 -2.88146 0 
-0.477297 -2.88146 0 
-0.265165 -2.88146 0 
-0.053033 -2.88146 0 
0.159099 -2.88146 0 
0.371231 -2.88146 0 
0.583363 -2.88146 0 
0.795495 -2.88146 0 
1.00763 -2.88146 0 
1.21976 -2.88146 0 
1.43189 -2.88146 0 
1.64402 -2.88146 0 
1.85616 -2.88146 0 
2.06829 -2.88146 0 
2.28042 -2.88146 0 
2.49255 -2.88146 0 
2.70468 -2.88146 0 
2.91682 -2.88146 0 
3.12895 -2.88146 0 
3.34108 -2.88146 0 
3.55321 -2.88146 0 
3.76534 -2.88146 0 
3.97748 -2.88146 0 
4.18961 -2.88146 0 
4.40174 -2.88146 0 
4.61387 -2.88146 0 
4.826 -2.88146 0 
5.03814 -2.88146 0 
5.25027 -2.88146 0 
5.4624 -2.88146 0 
5.67453 -2.88146 0 
5.88666 -2.88146 0 
6.0988 -2.88146 0 
6.31093 -2.88146 0 
6.52306 -2.88146 0 
6.73519 -2.88146 0 
6.94732 -2.88146 0 
7.15946 -2.88146 0 
7.37159 -2.88146 0 
7.58372 -2.88146 0 
7.79585 -2.88146 0 
8.00798 -2.88146 0 
8.22012 -2.88146 0 
8.53831 -2.88146 0 
-8.53831 -2.72025 0 
-8.29954 -2.66054 0 
-8.07175 -2.66191 0 
-7.84269 -2.66374 0 
-7.61795 -2.665 0 
-7.3918 -2.67111 0 
-7.16035 -2.66974 0 
-6.93666 -2.67255 0 
-6.70958 -2.67131 0 
-6.48836 -2.66885 0 
-6.26711 -2.66899 0 
-6.04686 -2.66818 0 
-5.82873 -2.6692 0 
-5.60949 -2.67059 0 
-5.39017 -2.67002 0 
-5.17282 -2.66877 0 
-4.95706 -2.66799 0 
-4.74306 -2.66886 0 
-4.52835 -2.66918 0 
-4.31494 -2.67067 0 
-4.10124 -2.67272 0 
-3.88617 -2.66949 0 
-3.67525 -2.67241 0 
-3.46084 -2.66854 0 
-3.25055 -2.66957 0 
-3.04069 -2.67319 0 
-2.82729 -2.66935 0 
-2.61728 -2.66955 0 
-2.40582 -2.66711 0 
-2.19815 -2.66991 0 
-1.98789 -2.67025 0 
-1.77896 -2.67401 0 
-1.56164 -2.66597 0 
-1.35545 -2.673 0 
-1.14099 -2.67813 0 
-0.922367 -2.66495 0 
-0.711534 -2.67222 0 
-0.4884 -2.65456 0 
-0.279714 -2.65898 0 
-0.0652425 -2.65524 0 
0.143628 -2.65888 0 
0.357741 -2.65963 0 
0.572183 -2.67001 0 
0.788274 -2.66873 0 
1.00103 -2.67658 0 
1.22115 -2.67421 0 
1.43322 -2.67763 0 
1.64897 -2.67324 0 
1.86055 -2.67522 0 
2.0827 -2.6802 0 
2.29234 -2.67318 0 
2.50276 -2.67117 0 
2.71725 -2.67288 0 
2.92895 -2.66979 0 
3.14361 -2.67192 0 
3.35682 -2.67002 0 
3.57129 -2.67058 0 
3.78346 -2.66831 0 
3.99683 -2.66899 0 
4.21079 -2.66942 0 
4.4245 -2.67005 0 
4.63864 -2.67052 0 
4.85154 -2.66966 0 
5.06499 -2.67043 0 
5.27778 -2.67007 0 
5.49021 -2.66992 0 
5.70123 -2.66893 0 
5.91283 -2.66917 0 
6.12445 -2.66938 0 
6.33678 -2.6695 0 
6.54893 -2.66914 0 
6.76058 -2.66821 0 
6.97501 -2.66878 0 
7.19304 -2.67022 0 
7.40394 -2.66081 0 
7.62174 -2.66317 0 
7.83239 -2.65425 0 
8.04368 -2.64432 0 
8.29761 -2.71098 0 
8.53831 -2.66933 0 
-8.42931 -2.48107 0 
-8.18563 -2.44397 0 
-7.95961 -2.45071 0 
-7.73589 -2.44737 0 
-7.51549 -2.45477 0 
-7.29079 -2.46927 0 
-7.06439 -2.45808 0 
-6.84513 -2.46757 0 
-6.62876 -2.4572 0 
-6.41292 -2.45738 0 
-6.19828 -2.45661 0 
-5.98555 -2.45438 0 
-5.77108 -2.45885 0 
-5.55612 -2.46094 0 
-5.34348 -2.45806 0 
-5.13215 -2.45553 0 
-4.92272 -2.45338 0 
-4.71162 -2.45646 0 
-4.50128 -2.45625 0 
-4.28992 -2.45975 0 
-4.07901 -2.46357 0 
-3.86988 -2.45592 0 
-3.65932 -2.46289 0 
-3.45025 -2.45435 0 
-3.24131 -2.45633 0 
-3.03031 -2.46455 0 
-2.821 -2.45608 0 
-2.60895 -2.45822 0 
-2.40139 -2.45082 0 
-2.19016 -2.4581 0 
-1.98235 -2.45597 0 
-1.76021 -2.47111 0 
-1.55113 -2.44725 0 
-1.33063 -2.46858 0 
-1.11673 -2.47175 0 
-0.898147 -2.44808 0 
-0.679302 -2.46398 0 
-0.464405 -2.42569 0 
-0.251827 -2.43577 0 
-0.0448214 -2.42363 0 
0.169525 -2.43612 0 
0.374672 -2.4264 0 
0.580672 -2.45654 0 
0.798639 -2.45587 0 
1.023 -2.47595 0 
1.23666 -2.46513 0 
1.45387 -2.47603 0 
1.66595 -2.46077 0 
1.89161 -2.48157 0 
2.09703 -2.46731 0 
2.30287 -2.46003 0 
2.50831 -2.45393 0 
2.71195 -2.46428 0 
2.92364 -2.45721 0 
3.13349 -2.46207 0 
3.34466 -2.4586 0 
3.55647 -2.45987 0 
3.76842 -2.45434 0 
3.97848 -2.45601 0 
4.18945 -2.45771 0 
4.4021 -2.45816 0 
4.61384 -2.45998 0 
4.82676 -2.45783 0 
5.03907 -2.45943 0 
5.25138 -2.45874 0 
5.46352 -2.45829 0 
5.67479 -2.45542 0 
5.88457 -2.45651 0 
6.09536 -2.45677 0 
6.30628 -2.45807 0 
6.51895 -2.457 0 
6.7311 -2.4546 0 
6.94361 -2.45816 0 
7.16216 -2.46312 0 
7.38175 -2.44172 0 
7.59847 -2.44904 0 
7.81898 -2.42541 0 
8.05935 -2.43881 0 
8.29645 -2.50143 0 
8.53831 -2.4572 0 
-8.53831 -2.26667 0 
-8.30614 -2.26169 0 
-8.05103 -2.23602 0 
-7.8215 -2.23593 0 
-7.58918 -2.23583 0 
-7.36099 -2.25756 0 
-7.13658 -2.25856 0 
-6.89624 -2.254 0 
-6.681 -2.24627 0 
-6.45889 -2.24439 0 
-6.24012 -2.24327 0 
-6.02301 -2.23955 0 
-5.80588 -2.24673 0 
-5.58747 -2.25092 0 
-5.3694 -2.24622 0 
-5.15378 -2.24255 0 
-4.93937 -2.2381 0 
-4.72706 -2.24358 0 
-4.51309 -2.24298 0 
-4.29978 -2.24826 0 
-4.08571 -2.25138 0 
-3.87217 -2.24546 0 
-3.6584 -2.25031 0 
-3.44968 -2.23977 0 
-3.23893 -2.24312 0 
-3.02796 -2.25334 0 
-2.81084 -2.24711 0 
-2.60022 -2.24352 0 
-2.3835 -2.24028 0 
-2.17502 -2.24199 0 
-1.94509 -2.25929 0 
-1.73434 -2.25379 0 
-1.49623 -2.2491 0 
-1.28737 -2.25233 0 
-1.07146 -2.25993 0 
-0.867647 -2.20487 0 
-0.677382 -2.24813 0 
-0.484079 -2.17877 0 
-0.282668 -2.20656 0 
-0.0727661 -2.18913 0 
0.139024 -2.20825 0 
0.351905 -2.18978 0 
0.565732 -2.22962 0 
0.776983 -2.24389 0 
1.002 -2.27226 0 
1.22464 -2.25426 0 
1.43979 -2.27015 0 
1.64746 -2.24288 0 
1.85958 -2.28412 0 
2.07809 -2.2527 0 
2.28521 -2.24408 0 
2.49112 -2.24048 0 
2.70169 -2.24639 0 
2.90597 -2.2469 0 
3.119 -2.2498 0 
3.3289 -2.24615 0 
3.53956 -2.24859 0 
3.75137 -2.24215 0 
3.96352 -2.24122 0 
4.17337 -2.24356 0 
4.38397 -2.24662 0 
4.59714 -2.24703 0 
4.80815 -2.24691 0 
5.02217 -2.24794 0 
5.23502 -2.24736 0 
5.44772 -2.2471 0 
5.6602 -2.24325 0 
5.87194 -2.24242 0 
6.08152 -2.24418 0 
6.2927 -2.24537 0 
6.50378 -2.24636 0 
6.71759 -2.24221 0 
6.93104 -2.24456 0 
7.14537 -2.25539 0 
7.36659 -2.23365 0 
7.59446 -2.23313 0 
7.83328 -2.22309 0 
8.0646 -2.227 0 
8.29871 -2.28492 0 
8.53831 -2.24506 0 
-8.42667 -2.04794 0 
-8.19771 -2.05311 0 
-7.96313 -2.02101 0 
-7.73841 -2.02528 0 
-7.50722 -2.03089 0 
-7.29562 -2.04294 0 
-7.06401 -2.06168 0 
-6.85365 -2.02959 0 
-6.63719 -2.03385 0 
-6.4226 -2.02968 0 
-6.21039 -2.02744 0 
-5.99498 -2.0267 0 
-5.77958 -2.03646 0 
-5.56521 -2.04011 0 
-5.35245 -2.03341 0 
-5.14046 -2.02918 0 
-4.92999 -2.02347 0 
-4.71849 -2.03111 0 
-4.50674 -2.03055 0 
-4.2939 -2.03734 0 
-4.08707 -2.03856 0 
-3.88748 -2.02044 0 
-3.68715 -2.03718 0 
-3.48171 -2.02363 0 
-3.27395 -2.02886 0 
-3.06273 -2.03909 0 
-2.85515 -2.04307 0 
-2.63658 -2.03047 0 
-2.42393 -2.03369 0 
-2.20465 -2.02344 0 
-1.99157 -2.06013 0 
-1.7661 -2.03748 0 
-1.5476 -2.05965 0 
-1.30633 -2.02426 0 
-1.09958 -2.04004 0 
-0.886541 -1.97832 0 
-0.670062 -1.99803 0 
-0.45713 -1.93312 0 
-0.255875 -1.96625 0 
-0.053518 -1.93799 0 
0.14532 -1.97386 0 
0.350686 -1.94104 0 
0.555244 -2.00257 0 
0.771604 -2.01744 0 
0.985772 -2.06426 0 
1.20166 -2.04116 0 
1.42369 -2.05577 0 
1.64835 -2.03412 0 
1.87092 -2.07677 0 
2.0824 -2.03627 0 
2.29247 -2.02726 0 
2.50904 -2.03216 0 
2.71501 -2.02884 0 
2.93153 -2.03918 0 
3.14189 -2.03706 0 
3.35461 -2.03409 0 
3.56574 -2.03628 0 
3.77972 -2.03024 0 
3.99061 -2.02685 0 
4.20181 -2.03002 0 
4.41484 -2.03562 0 
4.62558 -2.03307 0 
4.84042 -2.0371 0 
5.05365 -2.03661 0 
5.26667 -2.03603 0 
5.47847 -2.03513 0 
5.69057 -2.03107 0 
5.90011 -2.0283 0 
6.11034 -2.0319 0 
6.32049 -2.0327 0 
6.5325 -2.03541 0 
6.74562 -2.03031 0 
6.95994 -2.03311 0 
7.1713 -2.04241 0 
7.40189 -2.02734 0 
7.63188 -2.02927 0 
7.85612 -2.00863 0 
8.08882 -2.01537 0 
8.31239 -2.06917 0 
8.53831 -2.03293 0 
-8.53831 -1.82866 0 
-8.30451 -1.83779 0 
-8.07405 -1.83004 0 
-7.82691 -1.81167 0 
-7.58853 -1.82692 0 
-7.3523 -1.81433 0 
-7.13091 -1.85903 0 
-6.90844 -1.8147 0 
-6.68698 -1.81857 0 
-6.46889 -1.81516 0 
-6.25186 -1.81048 0 
-6.03655 -1.81461 0 
-5.81577 -1.8233 0 
-5.59928 -1.82755 0 
-5.38527 -1.82129 0 
-5.17102 -1.81641 0 
-4.95798 -1.80958 0 
-4.74451 -1.81687 0 
-4.53295 -1.8184 0 
-4.3182 -1.8263 0 
-4.1045 -1.81877 0 
-3.8901 -1.81038 0 
-3.67567 -1.81599 0 
-3.46482 -1.80793 0 
-3.24903 -1.81963 0 
-3.04281 -1.82283 0 
-2.82467 -1.83805 0 
-2.60649 -1.8187 0 
-2.386 -1.82664 0 
-2.16215 -1.81574 0 
-1.94963 -1.85152 0 
-1.71967 -1.82818 0 
-1.49355 -1.85761 0 
-1.27992 -1.78979 0 
-1.07445 -1.80585 0 
-0.866546 -1.72706 0 
-0.667017 -1.76731 0 
-0.459983 -1.68017 0 
-0.258243 -1.714 0 
-0.0366135 -1.69998 0 
0.174059 -1.7213 0 
0.371269 -1.67186 0 
0.560462 -1.75868 0 
0.765892 -1.78813 0 
0.985092 -1.84121 0 
1.21669 -1.83021 0 
1.44427 -1.84754 0 
1.65018 -1.79662 0 
1.84788 -1.86661 0 
2.03878 -1.80673 0 
2.24041 -1.81416 0 
2.45796 -1.82461 0 
2.67149 -1.81174 0 
2.88273 -1.8318 0 
3.09856 -1.82364 0 
3.30748 -1.82411 0 
3.52129 -1.8222 0 
3.73001 -1.82148 0 
3.94385 -1.81341 0 
4.15515 -1.81559 0 
4.36689 -1.82235 0 
4.57712 -1.81895 0 
4.7895 -1.82671 0 
5.00398 -1.82551 0 
5.21753 -1.8252 0 
5.43086 -1.82326 0 
5.64263 -1.8209 0 
5.85562 -1.81535 0 
6.06765 -1.81873 0 
6.27885 -1.82025 0 
6.49167 -1.82443 0 
6.7053 -1.82121 0 
6.92362 -1.82276 0 
7.14249 -1.82317 0 
7.35491 -1.83237 0 
7.59921 -1.82347 0 
7.8284 -1.79476 0 
8.05853 -1.80682 0 
8.29974 -1.8415 0 
8.53831 -1.8208 0 
-8.53831 -1.61362 0 
-8.30282 -1.62242 0 
[...]
POINT_DATA 2160 
VECTORS vectors float
-7.20801e-05 -0.00071447 1 
0.00023102 -0.0165713 0.999863 
-2.98325e-06 -0.021052 0.999778 
7.08184e-05 -0.0216686 0.999765 
6.1072e-05 -0.0204603 0.999791 
5.87575e-05 -0.0183679 0.999831 
6.07481e-05 -0.0160506 0.999871 
5.98934e-05 -0.0136597 0.999907 
6.02284e-05 -0.0112089 0.999937 
6.03143e-05 -0.00872326 0.999962 
5.9981e-05 -0.00626127 0.99998 
6.0493e-05 -0.0038599 0.999993 
6.03027e-05 -0.00151764 0.999999 
6.03132e-05 0.000814204 1 
6.03993e-05 0.00322719 0.999995 
6.01082e-05 0.00583451 0.999983 
6.02399e-05 0.00876521 0.999962 
5.97872e-05 0.012164 0.999926 
5.94688e-05 0.0162028 0.999869 
5.99425e-05 0.0210845 0.999778 
5.76451e-05 0.0270438 0.999634 
5.98621e-05 0.0343908 0.999408 
5.60683e-05 0.0434809 0.999054 
5.74251e-05 0.0547634 0.998499 
5.55434e-05 0.0687917 0.997631 
5.32328e-05 0.086192 0.996279 
5.35249e-05 0.107803 0.994172 
4.8723e-05 0.134598 0.9909 
4.85177e-05 0.167796 0.985822 
4.22919e-05 0.208718 0.977976 
4.14323e-05 0.258942 0.965893 
3.23757e-05 0.320004 0.947416 
2.912e-05 0.393451 0.919345 
2.0961e-05 0.479688 0.877439 
1.11375e-05 0.578096 0.815969 
5.89291e-06 0.685388 0.728178 
-4.12534e-06 0.793859 0.608102 
-6.30134e-06 0.892026 0.451984 
-5.8666e-06 0.964809 0.262952 
-1.71707e-06 0.998673 0.0514973 
5.00389e-06 0.986365 -0.164574 
7.08273e-06 0.930623 -0.365978 
5.1274e-06 0.843029 -0.537868 
-9.02256e-07 0.738097 -0.674695 
-6.56959e-06 0.629291 -0.77717 
-1.9279e-05 0.526579 -0.850126 
-2.5245e-05 0.435357 -0.900258 
-2.76443e-05 0.354923 -0.934896 
-4.06418e-05 0.287685 -0.957725 
-3.93982e-05 0.23222 -0.972663 
-4.69183e-05 0.186883 -0.982382 
-4.83693e-05 0.149931 -0.988696 
-5.07928e-05 0.120183 -0.992752 
-5.4263e-05 0.0962039 -0.995362 
-5.36029e-05 0.0768542 -0.997042 
-5.71961e-05 0.0612818 -0.998121 
-5.62176e-05 0.0487334 -0.998812 
-5.85286e-05 0.0386245 -0.999254 
-5.81428e-05 0.0304523 -0.999536 
-5.91912e-05 0.0238304 -0.999716 
-5.95736e-05 0.0184319 -0.99983 
-5.95334e-05 0.0139929 -0.999902 
-6.03671e-05 0.0102901 -0.999947 
-5.98438e-05 0.00713762 -0.999975 
-6.06459e-05 0.00437871 -0.99999 
-6.01376e-05 0.00187373 -0.999998 
-6.06203e-05 -0.000499103 -1 
-6.02601e-05 -0.00284536 -0.999996 
-6.03337e-05 -0.00524276 -0.999986 
-6.03235e-05 -0.00772887 -0.99997 
-6.03417e-05 -0.0102912 -0.999947 
-5.94004e-05 -0.0128842 -0.999917 
-6.19212e-05 -0.0154654 -0.99988 
-5.78768e-05 -0.0180141 -0.999838 
-6.00617e-05 -0.0205101 -0.99979 
-6.5652e-05 -0.0227696 -0.999741 
-4.59362e-05 -0.0239214 -0.999714 
-8.77643e-05 -0.0236328 -0.999721 
1.25406e-05 -0.0197852 -0.999804 
-0.000135371 -0.00142741 -0.999999 
5.86443e-05 8.9833e-05 1 
0.00705258 -0.0112517 0.999912 
0.00959009 -0.0186565 0.99978 
0.0106686 -0.0209724 0.999723 
0.0112307 -0.0207404 0.999722 
0.0115219 -0.0192523 0.999748 
0.0118034 -0.0169231 0.999787 
0.0119203 -0.0144674 0.999824 
0.012091 -0.0119159 0.999856 
0.0122516 -0.00939282 0.999881 
0.0123398 -0.00688109 0.9999 
0.0124197 -0.00442195 0.999913 
0.0124541 -0.00202647 0.99992 
0.0124525 0.000378671 0.999922 
0.0124693 0.00286227 0.999918 
0.0124932 0.00551241 0.999907 
0.0124778 0.00846123 0.999886 
0.0124114 0.011847 0.999853 
0.012314 0.0158818 0.999798 
0.0121611 0.0207284 0.999711 
0.0119803 0.0266616 0.999573 
0.0118043 0.0340166 0.999352 
0.0115452 0.0429644 0.99901 
0.0112908 0.0542353 0.998464 
0.0109145 0.0679906 0.997626 
0.0104479 0.0849997 0.996326 
0.00995478 0.106437 0.99427 
0.00937299 0.132572 0.991129 
0.0086858 0.165139 0.986232 
0.00788192 0.20444 0.978847 
0.00694731 0.253165 0.967398 
0.0059681 0.311905 0.950095 
0.00491114 0.385598 0.922654 
0.00382194 0.467708 0.883875 
0.00272733 0.56557 0.824696 
0.00183755 0.675081 0.737741 
0.00107644 0.782986 0.622038 
0.000676942 0.887217 0.461352 
0.000425442 0.960704 0.277574 
0.000340581 0.997883 0.0650393 
0.000259919 0.98899 -0.147979 
4.96808e-05 0.935549 -0.353196 
-0.00038406 0.849067 -0.528285 
-0.0010639 0.742792 -0.669521 
-0.00193526 0.63379 -0.773503 
-0.00302231 0.526964 -0.849882 
-0.0041316 0.43445 -0.900686 
-0.00524056 0.35388 -0.935276 
-0.00632001 0.287253 -0.957834 
-0.00722892 0.22968 -0.973239 
-0.00814938 0.185302 -0.982648 
-0.00891692 0.148868 -0.988817 
-0.00959789 0.119146 -0.99283 
-0.0101773 0.0954373 -0.995383 
-0.0106411 0.0760422 -0.997048 
-0.0110584 0.0605665 -0.998103 
-0.011402 0.0480408 -0.99878 
-0.0117049 0.0380708 -0.999206 
-0.0119287 0.0299684 -0.99948 
-0.0121056 0.0233883 -0.999653 
-0.0122454 0.018034 -0.999762 
-0.0123687 0.0136215 -0.999831 
-0.0124788 0.00995959 -0.999873 
-0.0125407 0.00682621 -0.999898 
-0.012596 0.00408236 -0.999912 
-0.0126318 0.00158422 -0.999919 
-0.0126511 -0.000774684 -0.99992 
-0.0126282 -0.0031115 -0.999915 
-0.012577 -0.00548404 -0.999906 
-0.012516 -0.00792951 -0.99989 
-0.0124305 -0.0104324 -0.999868 
-0.012312 -0.0129573 -0.99984 
-0.0121315 -0.0155123 -0.999806 
-0.011897 -0.0180821 -0.999766 
-0.0116768 -0.020389 -0.999724 
-0.0112343 -0.0222831 -0.999689 
-0.0105355 -0.0231362 -0.999677 
-0.00923802 -0.0219155 -0.999717 
-0.0062318 -0.0165679 -0.999843 
0.000305501 0.000534941 -1 
0.00453907 -0.0109086 0.99993 
0.0104088 -0.0175668 0.999792 
0.0130428 -0.0209113 0.999696 
0.0143309 -0.0208522 0.99968 
0.0151406 -0.0200228 0.999685 
0.0155375 -0.0181365 0.999715 
0.0160821 -0.015687 0.999748 
0.0162426 -0.0132709 0.99978 
0.0165874 -0.0108537 0.999804 
0.0167341 -0.00843856 0.999824 
0.0168669 -0.00606022 0.999839 
0.017 -0.00372827 0.999849 
0.0170106 -0.0013856 0.999854 
0.017024 0.000992503 0.999855 
0.0170676 0.00344912 0.999848 
0.0170659 0.00609689 0.999836 
0.017024 0.00904876 0.999814 
0.0168736 0.012495 0.99978 
0.0167435 0.0165755 0.999722 
0.0165151 0.0215233 0.999632 
0.0162275 0.0275693 0.999488 
0.0159702 0.0348337 0.999266 
0.0155158 0.0440363 0.998909 
0.0151282 0.05514 0.998364 
0.0145847 0.0690782 0.997505 
0.0138608 0.0865089 0.996155 
0.0131756 0.107713 0.994095 
0.0122505 0.134406 0.990851 
0.0113384 0.166708 0.985941 
0.0101797 0.207077 0.978272 
0.00901304 0.255656 0.966726 
0.00756485 0.318916 0.947753 
0.00640388 0.390751 0.920474 
0.00496435 0.47973 0.877402 
0.00374324 0.578468 0.815697 
0.00276951 0.688175 0.72554 
0.00189728 0.800001 0.599996 
0.00143356 0.897329 0.44136 
0.000975501 0.968221 0.250096 
0.000660259 0.999054 0.0434882 
0.000271722 0.98473 -0.174086 
-0.000248867 0.930095 -0.367319 
-0.000885792 0.844662 -0.535299 
-0.00177614 0.737658 -0.675172 
-0.00286827 0.623318 -0.781963 
-0.00419667 0.520498 -0.853853 
-0.00553962 0.427679 -0.903914 
-0.00694464 0.348724 -0.9372 
-0.00828634 0.279324 -0.960161 
-0.00961759 0.227236 -0.973792 
-0.010811 0.184207 -0.982828 
-0.0118947 0.149229 -0.988731 
-0.0126526 0.120554 -0.992626 
-0.0135464 0.0965387 -0.995237 
-0.0141759 0.0773175 -0.996906 
-0.0148154 0.0617398 -0.997982 
-0.0152907 0.0491338 -0.998675 
-0.0157889 0.0389727 -0.999116 
-0.0161158 0.0308171 -0.999395 
-0.0163902 0.0241638 -0.999574 
-0.0166351 0.0186926 -0.999687 
-0.0168056 0.0142089 -0.999758 
-0.0169926 0.0104482 -0.999801 
-0.0170796 0.00725391 -0.999828 
-0.0171675 0.00445721 -0.999843 
-0.0172103 0.00192101 -0.99985 
-0.0172577 -0.000464172 -0.999851 
-0.017207 -0.00278422 -0.999848 
-0.0171365 -0.00512545 -0.99984 
-0.0170092 -0.00750816 -0.999827 
-0.0168668 -0.00995972 -0.999808 
-0.0166919 -0.0124391 -0.999783 
-0.0163511 -0.0149346 -0.999755 
-0.0158702 -0.0175167 -0.999721 
-0.0155105 -0.0198668 -0.999682 
-0.0145827 -0.0217018 -0.999658 
-0.0135092 -0.0225769 -0.999654 
-0.0113134 -0.0217353 -0.9997 
-0.0069142 -0.0160844 -0.999847 
-0.000496411 -0.000100246 -1 
-5.52717e-05 -0.000351863 1 
0.00808728 -0.0152847 0.99985 
0.0123101 -0.0210005 0.999704 
0.0141308 -0.0212058 0.999675 
0.0154045 -0.0205184 0.999671 
0.0163005 -0.018809 0.99969 
0.0168389 -0.016415 0.999723 
0.0172278 -0.0137456 0.999757 
0.0174895 -0.0113604 0.999783 
0.0177105 -0.00890099 0.999804 
0.0178808 -0.00650343 0.999819 
0.018009 -0.00413916 0.999829 
0.0181164 -0.00176751 0.999834 
0.0181744 0.000654318 0.999835 
0.0181725 0.00317514 0.99983 
0.0181254 0.00587168 0.999818 
0.0180357 0.00888452 0.999798 
0.0179124 0.0123361 0.999763 
0.0177314 0.0164695 0.999707 
0.0174992 0.0214385 0.999617 
0.0171667 0.0275162 0.999474 
0.0167918 0.0350559 0.999244 
0.0163253 0.044327 0.998884 
0.0158146 0.0557179 0.998321 
0.0151582 0.0696775 0.997454 
0.0144098 0.0869799 0.996106 
0.0135428 0.109433 0.993902 
0.0125575 0.136397 0.990575 
0.0114499 0.170671 0.985262 
0.0103006 0.211356 0.977355 
0.00900752 0.266384 0.963825 
0.00772567 0.328365 0.944519 
0.00632365 0.412571 0.910904 
0.00520419 0.499934 0.866048 
0.00415987 0.601952 0.798521 
0.0034834 0.704584 0.709612 
0.00273543 0.800726 0.599025 
0.00241041 0.889477 0.456974 
0.00171252 0.960149 0.279484 
0.00110377 0.997341 0.0728643 
0.000336433 0.989793 -0.142514 
-0.000481257 0.937941 -0.346795 
-0.00124934 0.852246 -0.52314 
-0.002154 0.749424 -0.662087 
-0.00320805 0.635367 -0.772204 
-0.00441523 0.526634 -0.85008 
-0.00572732 0.433776 -0.901002 
-0.00698349 0.356481 -0.934277 
-0.00843626 0.289886 -0.957024 
-0.00969008 0.232833 -0.972468 
-0.0108749 0.18856 -0.982001 
-0.0119944 0.152588 -0.988217 
-0.0130357 0.122608 -0.99237 
-0.0139369 0.0989621 -0.994994 
-0.0147496 0.0790523 -0.996761 
-0.015438 0.0632375 -0.997879 
-0.0160333 0.0504158 -0.9986 
-0.0165306 0.0400253 -0.999062 
-0.0169529 0.0316066 -0.999357 
-0.017312 0.0248395 -0.999542 
-0.017611 0.0192914 -0.999659 
-0.0178469 0.0146745 -0.999733 
-0.0180341 0.0108616 -0.999778 
-0.0181742 0.00757434 -0.999806 
-0.0182693 0.00471919 -0.999822 
-0.0183171 0.00213754 -0.99983 
-0.0183191 -0.000288438 -0.999832 
-0.0182763 -0.00264411 -0.999829 
-0.0181949 -0.00496741 -0.999822 
-0.0180604 -0.00732751 -0.99981 
-0.0178679 -0.00972397 -0.999793 
-0.0175941 -0.0121877 -0.999771 
-0.0172431 -0.0146593 -0.999744 
-0.0167589 -0.0171486 -0.999712 
-0.0160927 -0.0196542 -0.999677 
-0.0150485 -0.0214378 -0.999657 
-0.0135354 -0.022434 -0.999657 
-0.0115001 -0.0217417 -0.999697 
-0.00787455 -0.0162185 -0.999837 
-8.06515e-05 6.83377e-06 -1 
0.00432364 -0.012423 0.999913 
0.00957505 -0.0185443 0.999782 
0.0121819 -0.021799 0.999688 
0.0138291 -0.0213202 0.999677 
0.0150139 -0.0202144 0.999683 
0.0157674 -0.0182252 0.99971 
0.0164079 -0.0156099 0.999744 
0.0166517 -0.0132586 0.999773 
0.0169825 -0.0108623 0.999797 
0.0172138 -0.00850311 0.999816 
0.0173934 -0.00619664 0.99983 
0.017535 -0.00385445 0.999839 
0.0176716 -0.00148644 0.999843 
0.0177375 0.00091949 0.999842 
0.0177161 0.00341831 0.999837 
0.0176579 0.00611535 0.999825 
0.0175427 0.00912381 0.999804 
0.0174303 0.0126169 0.999768 
0.0172298 0.0167698 0.999711 
0.017005 0.021803 0.999618 
0.0167212 0.0277957 0.999474 
0.0162638 0.0348142 0.999261 
0.0158951 0.0434085 0.998931 
0.015265 0.0541828 0.998414 
0.0146338 0.0675996 0.997605 
0.0139142 0.0844799 0.996328 
0.0130951 0.10505 0.994381 
0.0120594 0.13202 0.991174 
0.0110299 0.164437 0.986326 
0.00984699 0.205848 0.978534 
0.00881877 0.255057 0.966886 
0.00754856 0.319013 0.94772 
0.00648799 0.393693 0.919219 
0.00541736 0.491842 0.870668 
0.00468974 0.587523 0.809194 
0.00424608 0.695225 0.718779 
0.00364183 0.804496 0.593947 
0.00331807 0.900294 0.435271 
0.00236042 0.966942 0.254984 
0.0013161 0.998559 0.0536434 
0.000150643 0.988886 -0.148677 
-0.00102845 0.938611 -0.344975 
-0.00180565 0.857413 -0.514626 
-0.00268904 0.752507 -0.658579 
-0.00349683 0.643394 -0.765528 
-0.00445611 0.538817 -0.842411 
-0.00546345 0.440923 -0.897528 
-0.00665031 0.357247 -0.933986 
-0.00802565 0.287263 -0.957818 
-0.00908654 0.232367 -0.972586 
-0.0102511 0.187948 -0.982125 
-0.0114212 0.150488 -0.988546 
-0.0124013 0.121602 -0.992502 
-0.0133824 0.096938 -0.9952 
-0.0141844 0.0776835 -0.996877 
-0.0148875 0.0619694 -0.997967 
-0.0155105 0.0493893 -0.998659 
-0.0160164 0.0391112 -0.999106 
-0.0164444 0.0309217 -0.999387 
-0.0168257 0.0242481 -0.999564 
-0.0171537 0.0187472 -0.999677 
-0.0173864 0.0142671 -0.999747 
-0.0175967 0.0104437 -0.999791 
-0.0177393 0.00721073 -0.999817 
-0.0178325 0.00437426 -0.999831 
-0.0178765 0.00180678 -0.999839 
-0.0178604 -0.000625325 -0.99984 
-0.0177976 -0.00297085 -0.999837 
-0.0177049 -0.00530742 -0.999829 
-0.0175415 -0.00764841 -0.999817 
-0.0173176 -0.0100388 -0.9998 
-0.0169802 -0.0124794 -0.999778 
-0.0165711 -0.0149533 -0.999751 
-0.0160656 -0.0174193 -0.999719 
-0.0152277 -0.0199622 -0.999685 
-0.0141535 -0.0216906 -0.999665 
-0.0125768 -0.022453 -0.999669 
-0.0105001 -0.0213355 -0.999717 
-0.00717512 -0.0159979 -0.999846 
-0.000185869 1.76651e-05 -1 
3.38399e-05 -4.24582e-05 1 
0.00688313 -0.0158863 0.99985 
0.0102257 -0.0213247 0.99972 
0.0121164 -0.0218253 0.999688 
0.0135518 -0.0209509 0.999689 
0.0142556 -0.0188609 0.99972 
0.0152143 -0.0164341 0.999749 
0.0153164 -0.0139073 0.999786 
0.0156909 -0.0114414 0.999811 
0.0159414 -0.00904541 0.999832 
0.0161218 -0.00669019 0.999848 
0.0163149 -0.00434495 0.999857 
0.0164901 -0.00190563 0.999862 
0.0165801 0.000537642 0.999862 
0.0165431 0.00305544 0.999858 
0.0164644 0.00577243 0.999848 
0.016322 0.0087939 0.999828 
0.0162313 0.0122834 0.999793 
0.0160465 0.0163746 0.999737 
0.0158385 0.0213721 0.999646 
0.015436 0.0274428 0.999504 
0.0150281 0.0350463 0.999273 
0.0145317 0.0442194 0.998916 
0.0139357 0.0555825 0.998357 
0.0133623 0.0699197 0.997463 
0.0126602 0.0868983 0.996137 
0.011906 0.109135 0.993956 
0.0108475 0.136952 0.990518 
0.00988546 0.171789 0.985084 
0.00877378 0.215766 0.976406 
0.0079277 0.266897 0.963692 
0.00682086 0.334404 0.942405 
0.00603832 0.41534 0.909646 
0.00532463 0.503518 0.863968 
0.00499894 0.601105 0.799154 
0.00503054 0.705112 0.709078 
0.00467989 0.805447 0.59265 
0.00459419 0.898627 0.438689 
0.00325672 0.966091 0.258181 
0.00143639 0.999323 0.0367655 
-0.000443811 0.984209 -0.177008 
-0.00219215 0.931525 -0.36367 
-0.00278468 0.855429 -0.517913 
-0.00338387 0.755447 -0.655201 
-0.00384848 0.643375 -0.765542 
-0.00455525 0.531363 -0.847132 
-0.00537535 0.434046 -0.900874 
-0.00609461 0.357425 -0.933922 
-0.00727541 0.294614 -0.955589 
-0.00799645 0.244367 -0.96965 
-0.00900834 0.199144 -0.979929 
-0.0101336 0.159449 -0.987154 
-0.0110422 0.127985 -0.991715 
-0.0120732 0.102675 -0.994642 
-0.0128494 0.0819099 -0.996557 
-0.0135655 0.0656588 -0.99775 
-0.0141849 0.0522492 -0.998533 
-0.0147137 0.0416625 -0.999023 
-0.0151174 0.0329 -0.999344 
-0.0155182 0.0258609 -0.999545 
-0.0158877 0.0200988 -0.999672 
-0.0161213 0.0153938 -0.999752 
-0.0163853 0.0114203 -0.999801 
-0.016532 0.00801966 -0.999831 
-0.0166352 0.00506692 -0.999849 
-0.0166766 0.00240449 -0.999858 
-0.0166661 -7.55334e-05 -0.999861 
-0.0165775 -0.00249365 -0.999859 
-0.0165013 -0.00486897 -0.999852 
-0.0163518 -0.00722144 -0.99984 
-0.0161535 -0.00960368 -0.999823 
-0.0158231 -0.0120347 -0.999802 
-0.0154248 -0.0145433 -0.999775 
-0.0149001 -0.0170966 -0.999743 
-0.0143298 -0.0195299 -0.999707 
-0.0132589 -0.0215774 -0.999679 
-0.0117324 -0.0224762 -0.999679 
-0.00994341 -0.021873 -0.999711 
-0.00687797 -0.0161736 -0.999846 
-0.000151861 -1.83904e-06 -1 
0.000171317 -0.000114289 1 
0.00616636 -0.0161524 0.999851 
0.0091612 -0.0214273 0.999728 
0.0106221 -0.0220477 0.9997 
0.0118981 -0.0210923 0.999707 
0.0125559 -0.0190184 0.99974 
0.013472 -0.0162986 0.999776 
0.0134909 -0.0136643 0.999816 
0.0138634 -0.0112178 0.999841 
0.0140997 -0.00880677 0.999862 
0.0142747 -0.00641387 0.999878 
0.0145527 -0.00393994 0.999886 
0.0146876 -0.00148258 0.999891 
0.014736 0.000981864 0.999891 
0.0146853 0.00358304 0.999886 
0.0145789 0.00638721 0.999873 
0.014446 0.00958234 0.99985 
0.0143342 0.0131941 0.99981 
0.0141934 0.0175839 0.999745 
0.013967 0.0228072 0.999642 
0.0135635 0.0292336 0.999481 
0.0131162 0.0372552 0.99922 
0.0126476 0.0468317 0.998823 
0.0121066 0.0594255 0.998159 
0.011473 0.0738593 0.997203 
0.0109274 0.0926749 0.995636 
0.0102101 0.11542 0.993264 
0.00922198 0.146237 0.989207 
0.00836167 0.182624 0.983147 
0.00739942 0.228281 0.973567 
0.00680104 0.282101 0.959361 
0.00588517 0.337598 0.941272 
0.0056992 0.40305 0.91516 
0.00529187 0.494281 0.869286 
0.005303 0.605582 0.795766 
0.0058953 0.715636 0.698449 
0.00603046 0.814513 0.580114 
0.00672804 0.897427 0.441111 
0.00502682 0.959521 0.281592 
0.00241456 0.996088 0.0883282 
-0.000964922 0.989076 -0.147402 
-0.00371846 0.929355 -0.369168 
-0.00421424 0.832445 -0.554092 
-0.00418147 0.723186 -0.69064 
-0.00421745 0.616697 -0.787189 
-0.00430871 0.530344 -0.847771 
-0.00478939 0.45208 -0.891965 
-0.00524105 0.373172 -0.927747 
-0.00621355 0.296881 -0.954894 
-0.00683885 0.240783 -0.970555 
-0.00796916 0.192114 -0.98134 
-0.00889582 0.154411 -0.987967 
-0.00974855 0.122868 -0.992375 
-0.0107283 0.0982449 -0.995104 
-0.0113358 0.0786017 -0.996842 
-0.0120506 0.0626249 -0.997964 
-0.0125413 0.049996 -0.998671 
-0.0130661 0.03969 -0.999127 
-0.0134081 0.0312719 -0.999421 
-0.0137943 0.0244812 -0.999605 
-0.0140928 0.0190489 -0.999719 
-0.0143475 0.0144328 -0.999793 
-0.0146063 0.0105987 -0.999837 
-0.0147206 0.00730074 -0.999865 
-0.0148001 0.00441909 -0.999881 
-0.0148057 0.00180894 -0.999889 
-0.0147859 -0.000662743 -0.99989 
-0.0146872 -0.00309151 -0.999887 
-0.0145935 -0.00544827 -0.999879 
-0.0144546 -0.00780151 -0.999865 
-0.014242 -0.0101482 -0.999847 
-0.013934 -0.0125983 -0.999824 
-0.0135236 -0.0150642 -0.999795 
-0.0129545 -0.0174985 -0.999763 
-0.0126037 -0.0200797 -0.999719 
-0.0115056 -0.0218277 -0.999696 
-0.0101318 -0.0226185 -0.999693 
-0.00855304 -0.0214691 -0.999733 
-0.00589017 -0.0160334 -0.999854 
-0.000141514 1.22096e-05 -1 
9.45203e-05 7.07863e-05 1 
0.00530672 -0.0161997 0.999855 
0.00779954 -0.0215471 0.999737 
0.00904743 -0.0221555 0.999714 
0.0101717 -0.0211062 0.999725 
0.0105751 -0.0191496 0.999761 
0.0115852 -0.0167276 0.999793 
0.0114567 -0.0144134 0.99983 
0.0117983 -0.0119167 0.999859 
0.0120488 -0.00953675 0.999882 
0.012245 -0.0071614 0.999899 
0.0125424 -0.00469379 0.99991 
0.0126689 -0.00222746 0.999917 
0.0126996 0.000244035 0.999919 
0.0127032 0.00276796 0.999915 
0.0126144 0.00549735 0.999905 
0.0125281 0.00853899 0.999885 
0.0123693 0.0120511 0.999851 
0.0123099 0.0161283 0.999794 
0.0121065 0.0210683 0.999705 
0.0118029 0.0269367 0.999567 
0.0114304 0.034302 0.999346 
0.010955 0.0434289 0.998996 
0.010618 0.0547204 0.998445 
0.00989968 0.0687561 0.997584 
0.00949533 0.0860599 0.996245 
0.00887317 0.107156 0.994203 
0.00826588 0.133509 0.991013 
0.00730213 0.169903 0.985434 
0.00652735 0.211126 0.977437 
0.00586359 0.26664 0.963778 
0.00514225 0.335356 0.942077 
0.00496805 0.42053 0.907265 
0.00478444 0.500642 0.865641 
0.0053728 0.583394 0.812172 
0.00634117 0.690352 0.723446 
0.00779028 0.812556 0.582831 
0.00992712 0.910798 0.412732 
0.00777285 0.970186 0.242238 
0.00309636 0.997843 0.0655677 
-0.00182837 0.992265 -0.124127 
-0.00590595 0.958569 -0.284799 
-0.00604251 0.87244 -0.488685 
-0.00514604 0.759895 -0.650025 
-0.00445291 0.646982 -0.762493 
-0.00411869 0.531395 -0.847114 
-0.00423335 0.433081 -0.901345 
-0.00410899 0.370209 -0.928939 
-0.00506244 0.318 -0.948077 
-0.00551845 0.258953 -0.965874 
-0.00647364 0.203845 -0.978982 
-0.00726322 0.163886 -0.986453 
-0.00806938 0.131924 -0.991227 
-0.00891555 0.104325 -0.994503 
-0.00950394 0.0841772 -0.996405 
-0.010144 0.0669088 -0.997708 
-0.0105975 0.0535763 -0.998508 
-0.0110802 0.0425815 -0.999032 
-0.0114502 0.033826 -0.999362 
-0.0117782 0.0264551 -0.999581 
-0.0120256 0.0206239 -0.999715 
-0.012323 0.0158199 -0.999799 
-0.0125502 0.0117058 -0.999853 
-0.0127105 0.00828298 -0.999885 
-0.0127774 0.00524197 -0.999905 
-0.0127873 0.00253369 -0.999915 
-0.0127783 -9.5957e-06 -0.999918 
-0.0127291 -0.00246892 -0.999916 
-0.0126083 -0.00492256 -0.999908 
-0.0125091 -0.00730812 -0.999895 
-0.0123097 -0.00969567 -0.999877 
-0.0120945 -0.0121179 -0.999853 
-0.0116935 -0.0146401 -0.999824 
-0.0110824 -0.0171429 -0.999792 
-0.0109846 -0.0197683 -0.999744 
-0.00992383 -0.0216881 -0.999716 