# vtk DataFile Version 3.0 
Exported using Morpho https://github.com/Morpho-lang/morpho 
ASCII 
DATASET UNSTRUCTURED_GRID 

POINTS 1978 float 
-8.48531 -2.82845 1.85076e-07 
-8.25662 -2.82842 1.83487e-06 
-8.02788 -2.82844 6.50808e-07 
-7.758 -2.82846 -2.37412e-07 
-7.46642 -2.82846 -3.87542e-07 
-7.23027 -2.82845 3.73469e-07 
-6.99002 -2.82843 1.05663e-06 
-6.76952 -2.82846 5.25969e-07 
-6.5606 -2.82843 1.9999e-07 
-6.33788 -2.82845 4.62868e-07 
-6.14659 -2.82845 4.57756e-07 
-5.92856 -2.82844 2.22975e-07 
-5.71792 -2.82844 2.29589e-07 
-5.51282 -2.82844 2.12954e-07 
-5.29491 -2.82845 1.55867e-07 
-5.08339 -2.82845 8.44917e-08 
-4.86688 -2.82844 1.53225e-08 
-4.65813 -2.82845 2.23034e-08 
-4.4388 -2.82845 -1.95913e-08 
-4.21599 -2.82845 -1.36655e-07 
-3.99847 -2.82844 -2.06706e-07 
-3.78603 -2.82845 -2.74354e-07 
-3.56973 -2.82845 -3.89748e-07 
-3.35823 -2.82845 -5.03539e-07 
-3.13623 -2.82844 -7.11204e-07 
-2.92635 -2.82844 -8.45847e-07 
-2.71737 -2.82844 -1.05205e-06 
-2.52412 -2.82844 -1.3058e-06 
-2.30768 -2.82844 -1.66249e-06 
-2.09968 -2.82843 -1.91317e-06 
-1.88804 -2.82844 -2.02183e-06 
-1.68405 -2.82843 -2.37145e-06 
-1.48601 -2.82844 -2.38261e-06 
-1.26751 -2.82842 -1.04187e-06 
-1.10075 -2.82844 -5.89744e-07 
-0.836163 -2.82841 -7.03497e-07 
-0.61805 -2.82844 6.77048e-07 
-0.433902 -2.82845 1.1713e-06 
-0.206962 -2.82845 -1.30177e-07 
0.0179426 -2.82846 2.1801e-06 
0.223385 -2.82842 -2.35147e-06 
0.428964 -2.82845 1.73727e-07 
0.630168 -2.82844 -7.231e-07 
0.854646 -2.82843 -2.25182e-07 
1.0535 -2.82842 -9.31145e-08 
1.25027 -2.82844 2.17634e-06 
1.44358 -2.82843 2.0039e-06 
1.68574 -2.82844 2.13878e-06 
1.87472 -2.82843 1.62174e-06 
2.09145 -2.82843 1.4996e-06 
2.31714 -2.82844 1.71937e-06 
2.50406 -2.82844 1.33031e-06 
2.73151 -2.82844 1.02696e-06 
2.95063 -2.82844 7.5157e-07 
3.16343 -2.82844 6.91201e-07 
3.36795 -2.82845 5.46683e-07 
3.59323 -2.82844 3.48278e-07 
3.79653 -2.82844 2.82866e-07 
4.01357 -2.82845 1.98743e-07 
4.24355 -2.82845 3.1732e-08 
4.44403 -2.82844 8.65641e-08 
4.6579 -2.82844 1.22373e-08 
4.86639 -2.82845 -1.11309e-07 
5.07245 -2.82844 -3.01248e-08 
5.28709 -2.82845 -1.13738e-07 
5.49994 -2.82844 -2.00423e-07 
5.70456 -2.82845 -1.5775e-07 
5.92389 -2.82845 -3.77294e-07 
6.14673 -2.82844 -3.47742e-07 
6.34823 -2.82844 -2.59164e-07 
6.58556 -2.82845 -5.02612e-07 
6.79797 -2.82845 -9.06243e-07 
6.99584 -2.82845 -5.26894e-07 
7.25318 -2.82844 -7.8009e-07 
7.48214 -2.82844 -1.05819e-06 
7.71804 -2.82845 -5.65611e-08 
7.98135 -2.82845 8.18877e-08 
8.16809 -2.82843 -1.59242e-06 
8.48532 -2.82846 -1.18529e-07 
-8.48529 -2.59486 -1.85468e-06 
-8.24457 -2.57742 1.16968e-06 
-8.00594 -2.57387 1.46411e-07 
-7.7749 -2.62137 5.14815e-07 
-7.51352 -2.64246 7.30966e-07 
-7.21668 -2.59877 3.58902e-07 
-6.98277 -2.58035 1.75258e-07 
-6.77093 -2.58145 7.14416e-08 
-6.5407 -2.59347 1.0899e-07 
-6.33733 -2.55948 -5.68022e-08 
-6.1143 -2.5925 5.72021e-08 
-5.8947 -2.58426 -2.05077e-09 
-5.68285 -2.57106 -2.0295e-08 
-5.46505 -2.58609 2.33183e-08 
-5.24957 -2.57995 4.34513e-09 
-5.03131 -2.58646 1.32975e-08 
-4.81943 -2.5767 1.26168e-08 
-4.6007 -2.58813 2.31737e-08 
-4.37841 -2.59094 1.82293e-08 
-4.15942 -2.58353 1.90493e-08 
-3.94708 -2.57644 2.9398e-08 
-3.73307 -2.58079 2.04767e-08 
-3.52139 -2.5779 3.74234e-08 
-3.30292 -2.59436 -2.99386e-08 
-3.09071 -2.58761 2.26121e-08 
-2.87956 -2.59337 -1.73127e-08 
-2.68136 -2.58162 1.08207e-07 
-2.47136 -2.61068 -2.60775e-07 
-2.25463 -2.60111 -1.74804e-07 
-2.04398 -2.60452 -2.89277e-07 
-1.83055 -2.59105 -8.60721e-08 
-1.62295 -2.58041 -8.71753e-08 
-1.41282 -2.60083 -2.36902e-07 
-1.23428 -2.51392 2.19221e-07 
-1.01335 -2.63317 -7.46881e-07 
-0.787136 -2.57885 4.79264e-08 
-0.59656 -2.50314 -4.66544e-07 
-0.392558 -2.50557 -1.80379e-06 
-0.195456 -2.55013 2.32048e-08 
0.0162025 -2.51707 -2.55092e-07 
0.20705 -2.4165 2.20118e-06 
0.394008 -2.53213 -1.09727e-07 
0.607658 -2.54102 -1.82653e-07 
0.823661 -2.59183 2.09975e-07 
1.05874 -2.56687 2.75665e-07 
1.26538 -2.57242 4.70536e-07 
1.50805 -2.63546 1.11003e-06 
1.72007 -2.57931 -3.22722e-07 
1.93529 -2.6149 6.90131e-07 
2.16511 -2.62208 5.1772e-07 
2.36904 -2.57329 -3.03701e-07 
2.57946 -2.61227 3.56159e-07 
2.80246 -2.60064 6.26728e-08 
3.01313 -2.59121 -3.79523e-08 
3.21892 -2.57579 -3.28663e-08 
3.43791 -2.59742 2.44075e-08 
3.64508 -2.56927 -6.22614e-08 
3.85938 -2.58406 -8.73377e-10 
4.08801 -2.59882 2.16621e-09 
4.29809 -2.56524 -3.20891e-08 
4.51243 -2.58391 -8.87031e-09 
4.7258 -2.57912 -1.50205e-08 
4.93842 -2.57761 -9.7469e-09 
5.15282 -2.58848 -1.81435e-08 
5.37137 -2.58557 -1.82675e-08 
5.58303 -2.57442 6.49927e-09 
5.79951 -2.59004 -3.13454e-08 
6.02498 -2.59117 -5.1131e-08 
6.23939 -2.56304 4.71017e-08 
6.4604 -2.60248 -1.34817e-07 
6.68704 -2.57439 -5.7509e-09 
6.89445 -2.55513 1.15811e-07 
7.11899 -2.61876 -4.34961e-07 
7.36706 -2.58923 -2.15668e-07 
7.60067 -2.59517 -3.52038e-07 
7.84871 -2.62044 -6.96656e-07 
8.05907 -2.52687 2.90756e-07 
8.29429 -2.63909 -1.55197e-06 
8.4853 -2.51871 2.76736e-06 
-8.4853 -2.35219 -1.2961e-06 
-8.2181 -2.34654 1.30728e-08 
-7.97588 -2.32688 -8.71297e-07 
-7.74252 -2.39795 -6.76082e-07 
-7.55726 -2.24497 -7.86731e-07 
-7.4473 -2.45397 -5.62595e-07 
-7.16712 -2.37469 -6.74881e-07 
-6.94229 -2.32281 -6.20687e-07 
-6.70624 -2.36495 -4.50856e-07 
-6.49042 -2.33558 -3.99793e-07 
-6.24256 -2.34224 -3.18236e-07 
-6.02749 -2.34901 -2.46573e-07 
-5.80978 -2.3343 -1.99434e-07 
-5.57908 -2.33752 -1.55112e-07 
-5.36306 -2.34198 -1.21578e-07 
-5.13941 -2.34519 -8.19207e-08 
-4.92619 -2.33519 -4.14235e-08 
-4.70427 -2.34586 -5.65746e-09 
-4.48288 -2.35476 3.85456e-08 
-4.26309 -2.34832 9.16681e-08 
-4.04668 -2.33177 1.48526e-07 
-3.83172 -2.33316 2.12552e-07 
-3.6199 -2.33284 3.01148e-07 
-3.40121 -2.35133 4.08945e-07 
-3.19054 -2.35259 5.40696e-07 
-2.9754 -2.35849 6.68706e-07 
-2.77141 -2.34371 8.22602e-07 
-2.55998 -2.36992 1.06373e-06 
-2.3531 -2.39072 1.26259e-06 
-2.12689 -2.3717 1.4364e-06 
-1.91546 -2.37294 1.55317e-06 
-1.68983 -2.34602 1.27762e-06 
-1.47074 -2.34686 6.53442e-07 
-1.25419 -2.26921 1.09551e-06 
-1.01937 -2.39434 3.72657e-07 
-0.819699 -2.30653 -2.50865e-07 
-0.603588 -2.21391 -8.37707e-07 
-0.395711 -2.19261 8.66942e-07 
-0.176479 -2.22728 -8.83968e-07 
0.0550466 -2.18201 1.08909e-06 
0.181311 -1.99379 -1.09003e-06 
0.407323 -2.18753 4.11286e-07 
0.607856 -2.23633 6.89941e-07 
0.816094 -2.32001 2.13113e-07 
1.02517 -2.33623 1.44173e-08 
1.25585 -2.31906 -5.78763e-07 
1.46762 -2.41661 -9.6018e-07 
1.65861 -2.34188 -1.66447e-06 
1.88118 -2.37773 -1.6522e-06 
2.09053 -2.41108 -1.3588e-06 
2.29958 -2.35935 -1.42881e-06 
2.53379 -2.36956 -1.1086e-06 
2.73897 -2.38298 -8.49018e-07 
2.95956 -2.35309 -7.15924e-07 
3.15972 -2.33452 -5.57825e-07 
3.37641 -2.35735 -4.11657e-07 
3.58116 -2.32567 -3.2805e-07 
3.79397 -2.33499 -2.4172e-07 
4.01101 -2.36346 -1.59179e-07 
4.22089 -2.32653 -1.0283e-07 
4.4427 -2.33474 -4.9147e-08 
4.65243 -2.33526 -6.81632e-09 
4.86552 -2.33618 3.34388e-08 
5.08262 -2.34264 7.01435e-08 
5.29452 -2.35118 1.08646e-07 
5.51051 -2.33345 1.48884e-07 
5.72966 -2.34421 1.90615e-07 
5.94674 -2.35761 2.31802e-07 
6.16332 -2.32611 3.0066e-07 
6.39645 -2.34872 3.64169e-07 
6.60733 -2.34756 4.3874e-07 
6.82915 -2.30149 5.11318e-07 
7.05769 -2.36014 6.41434e-07 
7.27387 -2.38328 7.24673e-07 
7.52993 -2.35808 7.99733e-07 
7.76923 -2.39031 7.5247e-07 
7.98337 -2.29862 8.88971e-07 
8.24961 -2.36275 -3.56872e-07 
8.4853 -2.26858 2.281e-08 
-8.48532 -2.08691 -1.46427e-06 
-8.26621 -2.12048 3.71291e-07 
-8.03286 -2.08202 -1.38091e-07 
-7.78572 -2.13757 -3.32268e-07 
-7.52056 -2.02538 -1.07134e-07 
-7.30946 -2.21676 -5.10445e-07 
-7.06852 -2.11134 -2.55891e-07 
-6.80212 -2.12349 -2.63056e-07 
-6.59613 -2.11326 -2.38869e-07 
-6.35278 -2.13067 -1.83261e-07 
-6.12108 -2.09839 -1.33507e-07 
-5.91564 -2.10068 -1.1507e-07 
-5.68906 -2.10979 -8.99208e-08 
-5.46818 -2.09823 -6.64522e-08 
-5.25246 -2.11323 -4.90731e-08 
-5.03964 -2.09916 -2.22189e-08 
-4.81849 -2.10907 -2.30375e-09 
-4.59868 -2.11922 1.93828e-08 
-4.3826 -2.1176 4.35333e-08 
-4.16979 -2.10286 6.90166e-08 
-3.95321 -2.09205 9.63779e-08 
-3.74222 -2.09211 1.33698e-07 
-3.52484 -2.10878 1.84378e-07 
-3.31634 -2.11471 2.4206e-07 
-3.10364 -2.1258 3.24034e-07 
-2.8997 -2.11669 3.86416e-07 
-2.68327 -2.12487 4.66331e-07 
-2.47663 -2.14497 5.94788e-07 
-2.26629 -2.17143 7.92896e-07 
-2.03786 -2.13462 6.90231e-07 
-1.8196 -2.1442 7.26632e-07 
-1.58563 -2.10891 5.08457e-07 
-1.38135 -2.0651 -2.66608e-07 
-1.15342 -1.94121 4.55428e-07 
-1.05351 -2.13868 -9.14452e-07 
-0.817866 -2.05098 7.02837e-07 
-0.593561 -1.92434 -1.57718e-06 
-0.35626 -1.89651 -2.76366e-06 
-0.146956 -1.92506 1.147e-06 
0.0121968 -1.74513 -8.27036e-07 
0.223977 -1.58401 -3.89604e-08 
0.350746 -1.81941 -8.02925e-07 
0.56341 -1.88314 1.28182e-06 
0.771934 -2.00703 1.6331e-07 
0.976438 -2.05075 1.25478e-07 
1.17729 -2.08527 -4.67117e-07 
1.43281 -2.15793 -4.44481e-07 
1.6527 -2.10841 -3.50002e-07 
1.87957 -2.15239 -6.35751e-07 
2.10687 -2.17613 -7.78589e-07 
2.35883 -2.15978 -6.29386e-07 
2.57525 -2.13322 -5.70677e-07 
2.78977 -2.15551 -5.51698e-07 
2.98693 -2.09905 -3.0269e-07 
3.20871 -2.1128 -2.82962e-07 
3.40848 -2.10756 -2.19092e-07 
3.62234 -2.08821 -1.52205e-07 
3.84029 -2.10683 -1.2374e-07 
4.04309 -2.11376 -9.11032e-08 
4.27116 -2.09829 -5.27179e-08 
4.48219 -2.09233 -2.91971e-08 
4.69649 -2.09687 -8.30087e-09 
4.91424 -2.10531 1.20408e-08 
5.12769 -2.10437 3.15241e-08 
5.33965 -2.11393 5.52287e-08 
5.5636 -2.10362 7.15297e-08 
5.78122 -2.11095 9.68071e-08 
5.99214 -2.11282 1.26347e-07 
6.23351 -2.10935 1.50947e-07 
6.44467 -2.09815 1.87869e-07 
6.65656 -2.09966 2.29153e-07 
6.91077 -2.09035 2.25925e-07 
7.12469 -2.12105 2.77283e-07 
7.35281 -2.16707 3.68637e-07 
7.54142 -2.06962 1.3562e-07 
7.72536 -2.1571 4.3973e-07 
7.94417 -2.06819 1.44594e-07 
8.19736 -2.13751 1.78254e-07 
8.48529 -2.06861 1.19726e-06 
-8.48531 -1.79228 -8.44766e-07 
-8.29203 -1.86942 5.78271e-07 
-7.88228 -1.89439 9.88017e-08 
[...]
POINT_DATA 1978 
VECTORS vectors float
0.0252405 -0.0169564 0.999558 
0.0250776 -0.066941 0.997388 
0.0211103 -0.0979817 0.994944 
0.0187004 -0.0959669 0.995182 
0.0171345 -0.0809162 0.99655 
0.0206124 -0.0679358 0.997467 
0.0217639 -0.0541302 0.998294 
0.0199756 -0.0448387 0.998785 
0.0217223 -0.0362533 0.999102 
0.023751 -0.0291153 0.999296 
0.0224618 -0.0233044 0.999474 
0.0217707 -0.0182734 0.999589 
0.0226336 -0.0141472 0.99964 
0.0226663 -0.0109739 0.999679 
0.0224882 -0.00851231 0.999705 
0.0224183 -0.00653689 0.999722 
0.0227726 -0.00452357 0.999726 
0.02237 -0.00216347 0.999742 
0.0217205 0.00073036 0.999756 
0.0217536 0.00444067 0.999747 
0.0221178 0.00910092 0.999709 
0.0220019 0.0148026 0.999643 
0.0217398 0.0221304 0.999514 
0.0209196 0.0311934 0.999289 
0.0207321 0.0435308 0.998832 
0.0208098 0.0588589 0.998046 
0.0209176 0.0788741 0.996665 
0.0195257 0.102424 0.994549 
0.0181569 0.135842 0.990562 
0.016695 0.176551 0.984149 
0.0156142 0.228764 0.973357 
0.0138844 0.291306 0.956531 
0.0115574 0.365277 0.930829 
0.00895052 0.465289 0.885116 
0.00605346 0.549694 0.835348 
0.00379543 0.692956 0.720973 
0.00172897 0.807775 0.589492 
0.000120202 0.897977 0.440047 
-0.000316617 0.976846 0.213933 
0.0001114 0.9997 -0.0241971 
-0.000357132 0.970441 -0.241339 
-0.000980893 0.903961 -0.427615 
-0.00156157 0.806597 -0.591104 
-0.00382338 0.683614 -0.729838 
-0.00653894 0.572562 -0.819836 
-0.00887785 0.469411 -0.882939 
-0.0100639 0.381116 -0.924472 
-0.0134644 0.290512 -0.956777 
-0.0151496 0.232536 -0.972471 
-0.016196 0.179595 -0.983604 
-0.0182438 0.135354 -0.990629 
-0.0188228 0.10568 -0.99422 
-0.018898 0.0782509 -0.996748 
-0.0203555 0.0576055 -0.998128 
-0.0215233 0.0422487 -0.998873 
-0.0211592 0.0308514 -0.999295 
-0.0219185 0.0214661 -0.999525 
-0.0220415 0.0147401 -0.999645 
-0.021288 0.00939795 -0.999721 
-0.0221398 0.0048843 -0.999738 
-0.0229039 0.00139579 -0.999734 
-0.0229669 -0.00167081 -0.999731 
-0.0230753 -0.00438064 -0.999722 
-0.0227634 -0.00680669 -0.999714 
-0.0225561 -0.00922336 -0.999698 
-0.0229327 -0.0119793 -0.999662 
-0.0223131 -0.0150479 -0.999633 
-0.0217265 -0.0188259 -0.999579 
-0.0221442 -0.0236455 -0.999471 
-0.0211379 -0.0289269 -0.999352 
-0.021068 -0.0361007 -0.999118 
-0.0222029 -0.0445184 -0.998761 
-0.01989 -0.0542553 -0.998321 
-0.0187226 -0.0696547 -0.997385 
-0.0190354 -0.0861749 -0.996091 
-0.0191088 -0.101743 -0.994614 
-0.0202676 -0.110662 -0.993633 
-0.0178349 -0.0923039 -0.995525 
-0.027511 -0.0151067 -0.999517 
0.0162643 -0.0338237 0.999306 
0.0143912 -0.0588546 0.998125 
0.0299836 -0.0875102 0.995692 
0.0303552 -0.0927828 0.995217 
0.0279802 -0.0818141 0.996251 
0.0348642 -0.0651012 0.997264 
0.0388633 -0.0540487 0.997771 
0.0402048 -0.0445209 0.998196 
0.0403 -0.0356512 0.998544 
0.0465367 -0.028921 0.998493 
0.0414293 -0.0223825 0.998881 
0.0429552 -0.0172888 0.998919 
0.0458049 -0.013721 0.998848 
0.0436898 -0.010715 0.998979 
0.0449327 -0.00815454 0.998947 
0.0443069 -0.00588932 0.998992 
0.0457917 -0.00362767 0.998935 
0.0436452 -0.00099249 0.999037 
0.0427787 0.00231571 0.999073 
0.0436585 0.00642937 0.999018 
0.0441252 0.0113949 0.998954 
0.0428041 0.01763 0.998921 
0.042397 0.0254142 0.998771 
0.039058 0.0355163 0.998599 
0.0392891 0.0484869 0.998044 
0.0375388 0.0650832 0.997169 
0.037394 0.0852865 0.99565 
0.0313901 0.112043 0.993204 
0.0294026 0.147921 0.98856 
0.0257478 0.192131 0.981032 
0.0231977 0.248734 0.968297 
0.0193953 0.317307 0.94813 
0.0143599 0.400646 0.916126 
0.0132262 0.484258 0.874837 
0.00658004 0.597084 0.802161 
0.00437769 0.721378 0.692538 
0.00256801 0.824219 0.566274 
0.000822351 0.916144 0.400852 
-2.92138e-05 0.97752 0.210845 
-0.0015314 0.999876 -0.0153797 
-0.00398872 0.975913 -0.218115 
-0.0044526 0.91473 -0.404046 
-0.00606476 0.816764 -0.576948 
-0.00702881 0.699294 -0.71481 
-0.0103193 0.569298 -0.822081 
-0.0131953 0.466049 -0.884669 
-0.0143142 0.357962 -0.93363 
-0.0221422 0.281869 -0.959204 
-0.0226247 0.219259 -0.975405 
-0.0259372 0.165841 -0.98581 
-0.0342909 0.128694 -0.991089 
-0.0312967 0.0980048 -0.99469 
-0.0352721 0.0729269 -0.996708 
-0.0384471 0.054533 -0.997765 
-0.0411583 0.040821 -0.998312 
-0.0395588 0.0291636 -0.998785 
-0.0440685 0.0209434 -0.998802 
-0.0424137 0.0142108 -0.998991 
-0.0409879 0.0085167 -0.999115 
-0.0465486 0.0044325 -0.998898 
-0.0443291 0.000875282 -0.999008 
-0.0452945 -0.00223081 -0.998963 
-0.0458551 -0.00498719 -0.998927 
-0.0438945 -0.00758146 -0.998998 
-0.0444357 -0.0103193 -0.99895 
-0.0457988 -0.0131736 -0.998855 
-0.0425722 -0.0165721 -0.998947 
-0.0419935 -0.0209295 -0.99889 
-0.0454239 -0.0258051 -0.998627 
-0.0385702 -0.0320379 -0.998734 
-0.0425423 -0.0400662 -0.998285 
-0.0440038 -0.0490735 -0.997819 
-0.0331227 -0.0609859 -0.997582 
-0.0370798 -0.0761702 -0.996399 
-0.0357475 -0.090518 -0.995248 
-0.0318782 -0.101813 -0.994282 
-0.0337219 -0.0873528 -0.995574 
-0.00760098 -0.0498008 -0.998663 
-0.0222843 -0.0283525 -0.999387 
0.0182222 -0.0292205 0.999423 
0.0263255 -0.0581886 0.99792 
0.0502264 -0.0871951 0.994921 
0.0520186 -0.0880039 0.994763 
0.0620758 -0.0809741 0.994786 
0.0502841 -0.0771939 0.995745 
0.0598175 -0.0627173 0.99624 
0.0647955 -0.0516395 0.996567 
0.0633114 -0.0413195 0.99714 
0.0667785 -0.0332535 0.997217 
0.0675222 -0.0257222 0.997389 
0.0675904 -0.0203363 0.997508 
0.0694411 -0.0161078 0.997459 
0.0699037 -0.0124502 0.997479 
0.0701032 -0.00954262 0.997497 
0.0703586 -0.00697041 0.9975 
0.0710759 -0.00456611 0.997463 
0.0704368 -0.00182296 0.997517 
0.0694281 0.00137323 0.997588 
0.0690178 0.00525732 0.997604 
0.0688571 0.0100375 0.997579 
0.0675418 0.0158448 0.997594 
0.0664771 0.0230246 0.997526 
0.0642776 0.0322897 0.997413 
0.0627447 0.0438816 0.997068 
0.0603188 0.0591071 0.996432 
0.0585019 0.0778988 0.995248 
0.0542856 0.10238 0.993268 
0.0491706 0.133121 0.989885 
0.044367 0.176661 0.983278 
0.0382196 0.22824 0.972862 
0.031357 0.299016 0.953742 
0.0237484 0.381862 0.923926 
0.0178307 0.479218 0.877524 
0.0110424 0.594795 0.80381 
0.0067941 0.706009 0.708181 
0.00239216 0.821663 0.569979 
5.92609e-05 0.916153 0.400833 
-0.00218281 0.98243 0.186599 
-0.00392201 0.997815 -0.0658501 
-0.00456503 0.981145 -0.193144 
-0.00649656 0.911945 -0.410267 
-0.00868881 0.81897 -0.573781 
-0.0112811 0.706262 -0.707871 
-0.0145818 0.590593 -0.806846 
-0.0199975 0.473816 -0.880407 
-0.0242423 0.377647 -0.925641 
-0.032495 0.306393 -0.951361 
-0.0381151 0.237246 -0.97071 
-0.0420851 0.1847 -0.981898 
-0.0497314 0.143316 -0.988433 
-0.0533644 0.106588 -0.992876 
-0.0558401 0.0815951 -0.995104 
-0.0602669 0.0609004 -0.996327 
-0.0631227 0.0462753 -0.996937 
-0.0635059 0.0337274 -0.997415 
-0.0669405 0.024839 -0.997452 
-0.0676664 0.0173365 -0.997561 
-0.0668822 0.0112275 -0.9977 
-0.0702111 0.0067061 -0.997513 
-0.0701776 0.00256272 -0.997534 
-0.0706289 -0.000795528 -0.997505 
-0.0710679 -0.00380304 -0.997467 
-0.07075 -0.00661042 -0.997474 
-0.0700832 -0.00927094 -0.9975 
-0.0707759 -0.0121296 -0.997421 
-0.0695361 -0.0153991 -0.997463 
-0.067773 -0.0192149 -0.997518 
-0.0689336 -0.0237939 -0.997341 
-0.0663694 -0.0298696 -0.997351 
-0.0653148 -0.0367974 -0.997189 
-0.0662162 -0.0458817 -0.996755 
-0.0624069 -0.0573405 -0.996406 
-0.05976 -0.0696553 -0.995783 
-0.059286 -0.0833338 -0.994762 
-0.0552499 -0.0936432 -0.994072 
-0.0538232 -0.0896764 -0.99451 
-0.0235024 -0.0542489 -0.998204 
-0.0185637 -0.0276878 -0.999464 
0.021639 -0.0224431 0.999544 
0.0227804 -0.0479265 0.99856 
0.0450286 -0.0805543 0.995729 
0.0560338 -0.0864554 0.994685 
0.0586627 -0.0796644 0.995101 
0.0641645 -0.0701938 0.995475 
0.0643687 -0.0577085 0.996266 
0.0666911 -0.0449249 0.996769 
0.0680958 -0.0365496 0.997016 
0.069491 -0.0286699 0.997177 
0.0699522 -0.0226211 0.9973 
0.0710596 -0.018308 0.997311 
0.0719589 -0.014394 0.99731 
0.0723105 -0.0112045 0.997326 
0.0730476 -0.0084484 0.997299 
0.0730803 -0.00590872 0.997315 
0.0732495 -0.00307731 0.997315 
0.0731064 0.000104564 0.99733 
0.0724392 0.00380238 0.997372 
0.0712643 0.00822037 0.99743 
0.0698702 0.0136997 0.997469 
0.0685437 0.0202106 0.99745 
0.0672647 0.0284888 0.997335 
0.0655805 0.038591 0.997108 
0.0635887 0.0516464 0.996646 
0.060773 0.0679053 0.995847 
0.0573612 0.0899409 0.994302 
0.0535871 0.116817 0.991715 
0.0490029 0.151647 0.987228 
0.0418044 0.201655 0.978574 
0.0350973 0.261371 0.96461 
0.0266463 0.341064 0.939674 
0.0194784 0.423611 0.905651 
0.0114706 0.534211 0.845283 
0.0111946 0.581349 0.813593 
0.00505362 0.711184 0.702997 
0.00159107 0.826152 0.563457 
-0.000932114 0.933292 0.359112 
-0.00240302 0.98781 0.155658 
-0.00337407 0.99986 -0.0160355 
-0.00366483 0.972724 -0.231892 
-0.00390896 0.930104 -0.367281 
-0.00538835 0.838706 -0.544564 
-0.00891321 0.728589 -0.684904 
-0.012448 0.616612 -0.787183 
-0.0170378 0.513716 -0.857804 
-0.0242701 0.397185 -0.917431 
-0.0304611 0.315038 -0.9486 
-0.0378588 0.24284 -0.969338 
-0.0445541 0.184724 -0.981791 
-0.0509105 0.135584 -0.989465 
-0.0552988 0.103459 -0.993103 
-0.0596634 0.0784208 -0.99514 
-0.0611078 0.0610693 -0.99627 
-0.0643601 0.0451351 -0.996913 
-0.0662335 0.0341069 -0.997228 
-0.0677379 0.0248681 -0.9974 
-0.0696264 0.0172147 -0.997431 
-0.0708534 0.0115806 -0.997426 
-0.0717044 0.00645457 -0.997411 
-0.0722791 0.00242683 -0.997388 
-0.0728625 -0.0011415 -0.997348 
-0.0732349 -0.00435059 -0.997311 
-0.0731907 -0.00723063 -0.997298 
-0.0730498 -0.00998644 -0.997284 
-0.0723648 -0.0130557 -0.997299 
-0.0718009 -0.0163946 -0.997291 
-0.0710097 -0.0201952 -0.997278 
-0.0699214 -0.0254916 -0.997233 
-0.0686306 -0.0313211 -0.997157 
-0.0675045 -0.0386724 -0.996976 
-0.0657535 -0.0498195 -0.996599 
-0.06483 -0.0610715 -0.996033 
-0.0641113 -0.0738505 -0.995212 
-0.0607602 -0.0825378 -0.994741 
-0.0603609 -0.0889425 -0.994211 
-0.0535478 -0.0887386 -0.994615 
-0.0342584 -0.0622689 -0.997444 
-0.0154298 -0.0319083 -0.999383 
0.0198274 -0.0193391 0.999658 
0.0171741 -0.0401779 0.999019 
0.0486431 -0.0894587 0.994805 
0.052628 -0.0849364 0.995002 
0.0519358 -0.0762882 0.995743 
0.0599469 -0.0698338 0.995762 
0.0568242 -0.0621799 0.996455 
0.061211 -0.0509778 0.99683 
0.0608284 -0.040888 0.997319 
0.0636371 -0.0326358 0.997447 
0.0642863 -0.0261557 0.997597 
0.0634557 -0.0212072 0.997768 
0.0654856 -0.0170721 0.997716 
0.065928 -0.0135687 0.99774 
0.0663533 -0.010467 0.997749 
0.0668001 -0.00778591 0.997744 
0.067186 -0.00480909 0.997737 
0.0673834 -0.00156038 0.997734 
0.0670039 0.00205729 0.997759 
0.06586 0.00621654 0.997818 
0.0645298 0.0112191 0.997861 
0.0629502 0.0172956 0.997875 
0.0619646 0.0246338 0.997783 
0.0604992 0.0334581 0.997616 
0.0590483 0.0445722 0.997268 
0.0566818 0.0583267 0.996696 
0.0540692 0.0767015 0.995596 
0.0504195 0.100266 0.993692 
0.04682 0.129738 0.990452 
0.0423208 0.168475 0.984807 
0.0343047 0.227178 0.97326 
0.0279837 0.292588 0.955839 
0.0195861 0.37043 0.928667 
0.0129598 0.46247 0.886554 
0.00520861 0.655918 0.754829 
0.000899295 0.777957 0.628321 
-0.0018541 0.89309 0.449878 
-0.0029533 0.954107 0.299458 
-0.00552404 0.975309 0.220757 
-0.00518211 0.999938 -0.0080529 
-0.00218557 0.985291 -0.170812 
-0.00426999 0.935 -0.354619 
-0.00380464 0.862511 -0.506032 
-0.00539269 0.729821 -0.683624 
-0.00836533 0.616908 -0.787003 
-0.0129733 0.509807 -0.860205 
-0.0196916 0.426359 -0.904351 
-0.0242033 0.344909 -0.938336 
-0.0311537 0.266067 -0.963463 
-0.0379733 0.206499 -0.977721 
-0.0441254 0.158495 -0.986383 
-0.0482661 0.121316 -0.991449 
-0.0526674 0.0890241 -0.994647 
-0.0537738 0.0708943 -0.996041 
-0.0576702 0.0526363 -0.996956 
-0.0591385 0.0396408 -0.997471 
-0.0609308 0.0296506 -0.99771 
-0.0629624 0.0209106 -0.997805 
-0.0639899 0.0144286 -0.997855 
-0.065714 0.0090252 -0.997806 
-0.0655241 0.00426892 -0.99785 
-0.0663546 0.000269096 -0.997804 
-0.0669281 -0.00333202 -0.99776 
-0.0669129 -0.0064851 -0.997746 
-0.0668148 -0.00946481 -0.997729 
-0.0666647 -0.0123375 -0.997707 
-0.0657763 -0.0156753 -0.997719 
-0.0648461 -0.0193295 -0.997716 
-0.0648604 -0.0237486 -0.99762 
-0.0623832 -0.0295851 -0.997622 
-0.0612927 -0.0365686 -0.997459 
-0.0612546 -0.045591 -0.997089 
-0.0586945 -0.0582175 -0.996588 
-0.0590213 -0.0705029 -0.995773 
-0.0547562 -0.081759 -0.995155 
-0.0531796 -0.0886133 -0.99465 
-0.0434638 -0.0828746 -0.995608 
-0.0272274 -0.054882 -0.998099 
-0.0164428 -0.0298729 -0.999433 
0.0125331 -0.0276066 0.999557 
0.0167506 -0.0466294 0.998747 
0.034495 -0.0733611 0.996695 
0.0414666 -0.0899785 0.995085 
0.0454207 -0.0853201 0.995323 
0.0472619 -0.0701318 0.996427 
0.0504661 -0.0557885 0.997176 
0.0522823 -0.0465057 0.997559 
0.0533098 -0.0356352 0.997951 
0.0546064 -0.0290909 0.998093 
0.0536528 -0.0238961 0.998283 
0.0541704 -0.0190307 0.99836 
0.0557104 -0.0155275 0.998335 
0.0564245 -0.0122812 0.99834 
0.0558445 -0.00934432 0.998405 
0.0572039 -0.00631163 0.998351 
0.0574817 -0.00289907 0.998351 
0.0570354 0.000855713 0.998381 
0.0559133 0.00501419 0.998432 
0.0548371 0.00990137 0.998455 
0.0535675 0.0157133 0.99845 
0.0525212 0.0228526 0.998367 
0.0512375 0.0312256 0.998207 
0.0501723 0.0415811 0.997884 
0.0481206 0.0543914 0.997369 
0.0462054 0.0711757 0.996403 
0.0430884 0.0931701 0.994728 
0.0394543 0.122901 0.991645 
0.03619 0.160259 0.986423 
0.0311792 0.209557 0.977312 
0.0219524 0.290339 0.956688 
0.0142687 0.379514 0.92509 
0.00852978 0.480417 0.877011 
0.00215064 0.602911 0.797818 
0.00550063 0.584534 0.811363 
0.000887356 0.70836 0.705864 
-0.00310762 0.862639 0.50581 
-0.000808827 0.86504 0.501718 
-0.00122419 0.995004 0.0990366 
0.00575253 0.99748 0.0705367 
0.00461381 0.999757 -0.0194068 
0.000450174 0.952558 -0.304352 
-0.00257607 0.860527 -0.509402 
-0.00341072 0.765387 -0.643569 
-0.00478735 0.627168 -0.778882 
-0.00780892 0.519313 -0.854561 
-0.014146 0.412418 -0.910901 
-0.0210789 0.317362 -0.948084 
-0.0275599 0.243273 -0.969579 
-0.0340804 0.186355 -0.981902 
-0.0384653 0.146218 -0.988516 
-0.0437114 0.108706 -0.993121 
-0.0427244 0.0856675 -0.995419 
-0.0470686 0.0640219 -0.996847 
-0.0489281 0.0492129 -0.997598 
-0.0496279 0.0373944 -0.998077 
-0.0524316 0.0274403 -0.998256 
-0.0532163 0.0198775 -0.998394 
-0.0542513 0.0134329 -0.998446 
-0.0561196 0.00806653 -0.9984 
-0.055333 0.00322239 -0.998472 
-0.0564691 -0.000956031 -0.998413 
-0.0563833 -0.00455842 -0.998408 
-0.0566562 -0.00785441 -0.998372 
-0.0561355 -0.0108779 -0.998373 
-0.0565849 -0.0138706 -0.99831 
-0.0551081 -0.0172091 -0.998341 
-0.0547881 -0.0210942 -0.998284 
-0.0545759 -0.0255734 -0.998191 
-0.0515441 -0.0316776 -0.998178 
-0.0514183 -0.0395805 -0.997902 
-0.0525461 -0.0496254 -0.997393 
-0.0485097 -0.0606592 -0.996989 
-0.0504953 -0.0715137 -0.99617 
-0.0459413 -0.0828502 -0.995511 
-0.0455691 -0.0891066 -0.994984 
-0.0369029 -0.0849969 -0.995697 
-0.0207894 -0.0494106 -0.99854 
-0.0132235 -0.0292084 -0.9995 
0.00792876 -0.0320247 0.999467 
0.0163657 -0.0563822 0.998254 
0.0310034 -0.0825245 0.996103 
0.0343718 -0.0892843 0.99542 
0.0402278 -0.081281 0.995888 
0.0359465 -0.072583 0.996724 
0.040754 -0.0607952 0.997326 
0.0383859 -0.0489753 0.998074 
0.0435926 -0.0404911 0.998236 
0.0414876 -0.0324172 0.998623 
0.0417633 -0.0270422 0.998771 
0.0432926 -0.0219364 0.998831 
0.0424637 -0.0179792 0.998945 
0.0446177 -0.0147213 0.998905 
0.0447106 -0.0117439 0.99894 
0.0444949 -0.00856986 0.998982 
0.0458868 -0.00526973 0.998942 
0.0456571 -0.00156772 0.998965 
0.0444861 0.00245137 0.999016 
0.0437128 0.0070611 0.999028 
0.0429906 0.0124315 0.999007 
0.0422449 0.0187849 0.99894 
0.041028 0.0261936 0.998823 
0.040145 0.0351816 0.998583 
0.0388711 0.0460478 0.998192 
0.0373758 0.0603474 0.997487 
0.0353686 0.0787094 0.99628 
0.032648 0.104039 0.994048 
0.0292229 0.138317 0.989968 
0.0261537 0.181432 0.983068 
0.0218987 0.243395 0.969694 
0.0130757 0.33577 0.941867 
0.00719295 0.437576 0.899165 
0.00283597 0.542814 0.839861 
-0.00126016 0.746878 0.664968 
0.0032961 0.82817 0.560476 
0.00768455 0.90753 0.419894 
0.00599772 0.979675 0.200314 
0.00501463 0.94902 0.315171 
-0.00134199 0.999786 0.0179595 
-0.00195671 0.997588 -0.0692128 
0.00228242 0.974602 -0.223885 
0.000116114 0.900885 -0.434046 
0.000953754 0.79703 -0.603939 
-0.00178298 0.696248 -0.717801 
-0.00320957 0.555605 -0.831451 
-0.00756472 0.448219 -0.893906 
-0.0131461 0.348996 -0.937045 
-0.0187308 0.267739 -0.963322 
-0.024611 0.202834 -0.978917 
-0.0282421 0.155206 -0.987489 
-0.0338325 0.120833 -0.992107 
-0.0317695 0.0995054 -0.994539 
-0.0360763 0.0743627 -0.996588 
-0.0376276 0.0574053 -0.997651 
-0.0385557 0.0439682 -0.998298 
-0.0405992 0.0324939 -0.998656 
-0.0415673 0.0241278 -0.998853 
-0.0426113 0.0169354 -0.998957 
-0.0436958 0.010741 -0.998996 
-0.0446741 0.00569104 -0.998994 
-0.04457 0.000626758 -0.999015 
-0.0445371 -0.00339229 -0.999011 
-0.0448937 -0.00708791 -0.998976 
-0.0443847 -0.0103452 -0.99897 
-0.0446105 -0.0134641 -0.998923 
-0.0439218 -0.0165623 -0.998907 
-0.0434608 -0.0202707 -0.998859 
-0.0426051 -0.0246191 -0.998798 
-0.0413413 -0.0297587 -0.998711 
-0.0403278 -0.0376368 -0.998489 
-0.0414821 -0.0477567 -0.998007 
-0.0388567 -0.0607827 -0.997404 
-0.0394072 -0.0746191 -0.996443 
-0.0349175 -0.0850443 -0.995773 
-0.036238 -0.0902115 -0.995269 
-0.0291254 -0.0881925 -0.995678 
-0.0201833 -0.0583751 -0.998071 
-0.00922985 -0.030274 -0.999512 
0.00629151 -0.0317256 0.999488 
0.0125106 -0.0562348 0.99832 
0.0259547 -0.0884548 0.995743 
0.0248744 -0.0912961 0.995518 
0.0307853 -0.0852016 0.995896 
0.0276202 -0.0746111 0.99684 
0.0304882 -0.0593355 0.997782 
0.0283936 -0.047088 0.998497 
0.0323796 -0.0384272 0.998746 
0.0292833 -0.0317979 0.999075 
0.0318892 -0.025937 0.999164 
0.0326841 -0.0214387 0.999245 
0.0317598 -0.0177783 0.999348 
0.0337004 -0.0146669 0.999333 
0.0343896 -0.0114507 0.99935 
0.033832 -0.00799037 0.999406 
0.0349351 -0.00436468 0.999387 
0.0339437 -0.00035809 0.999433 
0.033085 0.00423303 0.999454 
0.032862 0.00950822 0.999423 
0.0324308 0.0155245 0.999363 
0.0315353 0.0224291 0.99926 
0.0307332 0.0307676 0.999063 
0.0296753 0.040756 0.998737 
0.0287932 0.0534581 0.998164 
0.0271948 0.0700595 0.997182 
0.0254052 0.0922959 0.995418 
0.0227228 0.123136 0.992141 
0.0196788 0.16492 0.986123 
0.0174008 0.219197 0.975536 
0.0130709 0.288272 0.957474 
0.00686884 0.393511 0.919308 
0.00299 0.501064 0.865421 
0.00175152 0.614854 0.788645 
-0.000359868 0.708207 0.706019 
0.0073138 0.897134 0.441642 
0.00434859 0.966441 0.256829 
0.00654037 0.996204 0.0868229 
0.00463918 0.998469 0.0549592 
0.00169974 0.999465 0.0321948 
0.000337311 0.999942 -0.00985564 
0.000698423 0.996809 -0.0798057 
-0.00279383 0.953735 -0.300632 
-0.00132068 0.876925 -0.480627 
0.00024621 0.627969 -0.778251 
-0.000783217 0.558933 -0.829226 
-0.00283334 0.485287 -0.874364 
-0.00686904 0.385914 -0.922521 
-0.010979 0.301134 -0.953534 
-0.0160862 0.226677 -0.973851 
-0.019614 0.17072 -0.985137 
-0.0234799 0.127767 -0.991539 
-0.0253717 0.090271 -0.995605 
-0.0270867 0.0695603 -0.997219 
-0.0286726 0.0533814 -0.998172 
-0.0301377 0.0395968 -0.99877 
-0.030702 0.029794 -0.999093 
-0.0318141 0.0216598 -0.999268 
-0.032823 0.0147313 -0.999361 
-0.0330214 0.00892961 -0.999425 
-0.0348446 0.00365542 -0.999393 
-0.0334687 -0.00107768 -0.99945 
-0.034014 -0.00526571 -0.999416 
-0.033556 -0.00887526 -0.999406 
-0.033657 -0.0122045 -0.999368 
-0.0330208 -0.0152277 -0.999348 
-0.0331673 -0.0184561 -0.999288 
-0.032294 -0.0221563 -0.999242 
-0.0309333 -0.0265207 -0.999179 
-0.0312929 -0.0325967 -0.998988 
-0.0294582 -0.0404021 -0.998757 
-0.0317049 -0.0490444 -0.998303 
-0.0282589 -0.0597715 -0.997822 
-0.0302746 -0.0721711 -0.996943 
-0.0266392 -0.083976 -0.99612 
-0.0261997 -0.0914001 -0.995475 
-0.0208935 -0.0860571 -0.996069 
-0.0134282 -0.0525441 -0.998509 
-0.00740372 -0.0301955 -0.999531 
0.00462305 -0.0318393 0.999491 
0.00895356 -0.0570949 0.998313 
0.0185702 -0.0872849 0.996009 
0.0183189 -0.092311 0.995567 
0.0225496 -0.0849676 0.996137 
0.0193248 -0.0741391 0.99707 
0.0226862 -0.0618691 0.997836 
0.0206087 -0.0497901 0.998557 