# vtk DataFile Version 3.0 
Exported using Morpho https://github.com/Morpho-lang/morpho 
ASCII 
DATASET UNSTRUCTURED_GRID 

POINTS 1978 float 
-12 -4 -4.30934e-15 
-11.5978 -4 8.33451e-15 
-11.2936 -4 3.05836e-14 
-10.9429 -4 1.76454e-14 
-10.6267 -4 1.50988e-14 
-10.2803 -4 9.87813e-15 
-9.95942 -4 7.39457e-15 
-9.64764 -4 4.8172e-15 
-9.31307 -4 4.32048e-15 
-8.99684 -4 3.97665e-15 
-8.68338 -4 2.82191e-15 
-8.36796 -4 2.73234e-15 
-8.06216 -4 2.54012e-15 
-7.76672 -4 2.31063e-15 
-7.48206 -4 2.26722e-15 
-7.18882 -4 1.59328e-15 
-6.89181 -4 1.81103e-15 
-6.59551 -4 1.742e-15 
-6.29465 -4 1.36248e-15 
-5.98766 -4 1.01451e-15 
-5.6875 -4 3.84516e-16 
-5.38334 -4 -4.00759e-16 
-5.08402 -4 -1.63833e-15 
-4.78925 -4 -2.8112e-15 
-4.46004 -4 -5.15897e-15 
-4.17259 -4 -8.16994e-15 
-3.86865 -4 -1.04231e-14 
-3.54959 -4 -1.4565e-14 
-3.25229 -4 -1.75971e-14 
-2.95568 -4 -1.82113e-14 
-2.66508 -4 -1.89967e-14 
-2.39323 -4 -1.88352e-14 
-2.12839 -4 -1.31445e-14 
-1.83868 -4 -5.05241e-15 
-1.5634 -4 -1.9406e-14 
-1.2762 -4 -3.46203e-14 
-0.996533 -4 -1.28106e-13 
-0.681293 -4 -1.60875e-13 
-0.384352 -4 -4.23287e-13 
0.00304587 -4 1.49505e-13 
0.369389 -4 2.73329e-13 
0.687828 -4 1.954e-13 
0.986422 -4 9.30544e-14 
1.25438 -4 3.25436e-14 
1.5154 -4 -1.4779e-14 
1.78619 -4 2.00361e-15 
2.06887 -4 1.40391e-14 
2.35415 -4 1.52538e-14 
2.67687 -4 2.1583e-14 
2.97576 -4 1.95506e-14 
3.29743 -4 1.69025e-14 
3.58675 -4 1.39046e-14 
3.8893 -4 1.00212e-14 
4.1995 -4 7.52369e-15 
4.49741 -4 5.14983e-15 
4.79672 -4 2.92231e-15 
5.10531 -4 1.39487e-15 
5.41162 -4 4.93088e-16 
5.71872 -4 -4.67406e-16 
6.01224 -4 -9.80334e-16 
6.30513 -4 -1.3612e-15 
6.6022 -4 -1.76045e-15 
6.90057 -4 -1.53262e-15 
7.17564 -4 -2.4307e-15 
7.47663 -4 -1.80797e-15 
7.77039 -4 -3.04607e-15 
8.06806 -4 -2.66926e-15 
8.35909 -4 -2.98374e-15 
8.65866 -4 -3.273e-15 
8.93241 -4 -3.87524e-15 
9.27912 -4 -3.81284e-15 
9.60575 -4 -5.27674e-15 
9.89466 -4 -7.19527e-15 
10.2619 -4 -9.66089e-15 
10.5747 -4 -1.52852e-14 
10.9735 -4 -1.76342e-14 
11.2928 -4 -3.19949e-14 
11.5867 -4 -6.79981e-15 
12 -4 4.74871e-15 
-12 -3.59725 7.4694e-15 
-11.7153 -3.71539 -1.25867e-14 
-11.3632 -3.62708 -1.41005e-14 
-11.046 -3.67545 -1.45077e-14 
-10.709 -3.64378 -1.26234e-14 
-10.3906 -3.6777 -1.0329e-14 
-10.0549 -3.66305 -8.65702e-15 
-9.73171 -3.66267 -6.86475e-15 
-9.39919 -3.68519 -3.50597e-15 
-9.06513 -3.66726 -2.66186e-15 
-8.74771 -3.66269 -1.95942e-15 
-8.43443 -3.67043 -1.73609e-15 
-8.11535 -3.66472 -1.36126e-15 
-7.80453 -3.66003 -1.27409e-15 
-7.50414 -3.65325 -1.04311e-15 
-7.2078 -3.66675 -8.93028e-16 
-6.89974 -3.66165 -6.32261e-16 
-6.59238 -3.66796 -6.37394e-16 
-6.27897 -3.67335 -2.71217e-16 
-5.96946 -3.66641 4.73578e-17 
-5.66044 -3.66828 5.38869e-16 
-5.35551 -3.66175 1.20407e-15 
-5.05832 -3.65586 2.26379e-15 
-4.73581 -3.69099 3.33782e-15 
-4.44286 -3.65326 7.39691e-15 
-4.13897 -3.6746 9.95308e-15 
-3.82398 -3.69295 1.34905e-14 
-3.51831 -3.68076 1.91401e-14 
-3.21518 -3.68233 2.38466e-14 
-2.92019 -3.67372 2.62425e-14 
-2.63963 -3.65878 3.30525e-14 
-2.36575 -3.66017 3.87751e-14 
-2.08178 -3.68086 2.06107e-14 
-1.79031 -3.69418 2.85083e-14 
-1.5022 -3.68459 6.28163e-15 
-1.21217 -3.66648 -1.7107e-15 
-0.900647 -3.65807 -1.38574e-15 
-0.592355 -3.61081 7.80429e-14 
-0.267541 -3.68379 -9.89453e-14 
0.0029499 -3.55367 -1.34422e-13 
0.287169 -3.67517 1.97901e-13 
0.637099 -3.60709 -4.95332e-14 
0.954514 -3.65261 4.24497e-15 
1.25349 -3.6435 8.84987e-16 
1.53018 -3.65408 7.73736e-15 
1.82185 -3.68649 -2.1754e-14 
2.11481 -3.69234 -2.74722e-14 
2.42507 -3.71772 -3.56496e-14 
2.71985 -3.68566 -2.95899e-14 
3.03207 -3.70567 -2.82469e-14 
3.32657 -3.66218 -2.19207e-14 
3.62566 -3.67387 -1.69325e-14 
3.93288 -3.67874 -1.28017e-14 
4.23167 -3.66284 -9.4236e-15 
4.53117 -3.66287 -6.4319e-15 
4.83875 -3.67193 -3.08007e-15 
5.14915 -3.67089 -1.94491e-15 
5.4595 -3.67188 -1.07427e-15 
5.76187 -3.65778 -4.76237e-16 
6.06081 -3.66013 6.71421e-17 
6.36052 -3.66219 3.7671e-16 
6.66578 -3.66751 5.84638e-16 
6.95095 -3.63922 7.92731e-16 
7.25125 -3.66905 1.03883e-15 
7.55074 -3.65931 1.07445e-15 
7.8535 -3.66312 1.2734e-15 
8.15076 -3.65463 1.45676e-15 
8.44837 -3.66617 1.79034e-15 
8.73539 -3.63012 2.2094e-15 
9.05513 -3.70495 2.86092e-15 
9.387 -3.68015 3.41913e-15 
9.69225 -3.63265 6.49203e-15 
10.0258 -3.70814 8.51929e-15 
10.3525 -3.65199 1.00441e-14 
10.7177 -3.72243 1.33039e-14 
11.0536 -3.64882 1.41503e-14 
11.358 -3.6155 1.3449e-14 
11.7125 -3.72558 1.28619e-14 
12 -3.60164 -7.7973e-15 
-12 -3.29381 8.26685e-15 
-11.6318 -3.36464 -6.29734e-15 
-11.2871 -3.28439 -5.9684e-15 
-10.9737 -3.33053 -9.65565e-15 
-10.6561 -3.29388 -8.31515e-15 
-10.3362 -3.34394 -7.22321e-15 
-10.0124 -3.32607 -5.98631e-15 
-9.69338 -3.32356 -3.56142e-15 
-9.38668 -3.36759 -3.05952e-15 
-9.07751 -3.32599 -2.40297e-15 
-8.77232 -3.31782 -1.7056e-15 
-8.46837 -3.33516 -1.29541e-15 
-8.16338 -3.33479 -1.08435e-15 
-7.8568 -3.32751 -7.40053e-16 
-7.55389 -3.31479 -6.62949e-16 
-7.25364 -3.32633 -5.48187e-16 
-6.9557 -3.33922 -4.90715e-16 
-6.64447 -3.33615 -3.06099e-16 
-6.33623 -3.34765 -1.16488e-16 
-6.02604 -3.33795 1.83455e-16 
-5.71601 -3.33801 6.07994e-16 
-5.4091 -3.32925 1.15843e-15 
-5.10456 -3.31344 1.84004e-15 
-4.80248 -3.36809 2.83713e-15 
-4.50059 -3.31883 5.50147e-15 
-4.19904 -3.34477 7.7206e-15 
-3.89376 -3.3752 1.08974e-14 
-3.58824 -3.36845 1.49027e-14 
-3.27797 -3.36882 1.68328e-14 
-2.97057 -3.35335 2.47369e-14 
-2.66827 -3.32384 2.68482e-14 
-2.37726 -3.31899 2.85659e-14 
-2.09808 -3.35236 2.16677e-14 
-1.80283 -3.3855 1.88972e-14 
-1.50367 -3.35888 -2.84302e-15 
-1.18092 -3.34695 -1.84027e-14 
-0.852131 -3.29418 -6.90657e-15 
-0.606845 -3.13032 9.09233e-14 
-0.346072 -3.27979 -1.79364e-13 
0.0111371 -3.19102 7.60034e-14 
0.354521 -3.29747 8.41905e-14 
0.588512 -3.09618 9.53009e-14 
0.870254 -3.30007 3.27249e-14 
1.19794 -3.29369 2.09909e-14 
1.5007 -3.30767 1.43078e-15 
1.79061 -3.36417 -1.49575e-14 
2.08211 -3.38222 -2.64424e-14 
2.38015 -3.41724 -2.88242e-14 
2.6785 -3.3711 -2.81171e-14 
2.97904 -3.39545 -2.30073e-14 
3.27051 -3.33725 -1.70176e-14 
3.57335 -3.34382 -1.32825e-14 
3.87339 -3.35459 -1.05438e-14 
4.17473 -3.33174 -7.499e-15 
4.47611 -3.32683 -3.93289e-15 
4.77734 -3.34042 -2.8695e-15 
5.08218 -3.34518 -1.9995e-15 
5.39318 -3.34431 -1.18223e-15 
5.69937 -3.32778 -6.04073e-16 
6.00921 -3.32144 -2.21978e-16 
6.30783 -3.32487 5.05955e-17 
6.61149 -3.33839 3.20634e-16 
6.91179 -3.29209 4.00926e-16 
7.20875 -3.33168 5.29831e-16 
7.50956 -3.32349 6.57166e-16 
7.81273 -3.33053 8.58844e-16 
8.1189 -3.31537 9.98466e-16 
8.41943 -3.3211 1.23232e-15 
8.74265 -3.31227 1.70634e-15 
9.067 -3.38806 2.32094e-15 
9.38045 -3.34178 3.0057e-15 
9.68907 -3.28728 3.82916e-15 
10.0014 -3.38095 6.82566e-15 
10.307 -3.30413 7.3992e-15 
10.6337 -3.40538 9.09436e-15 
10.9659 -3.33301 1.02907e-14 
11.2978 -3.25484 3.46696e-15 
11.6324 -3.37491 6.7357e-15 
12 -3.29002 -7.95346e-15 
-12 -2.96576 8.72934e-15 
-11.6618 -3.04935 -1.24325e-15 
-11.3191 -2.96581 1.95171e-15 
-10.9714 -2.97624 -6.97185e-16 
-10.6301 -2.96712 -5.46271e-16 
-10.2982 -3.00491 -1.01128e-15 
-9.97202 -2.99061 -1.11547e-15 
-9.65262 -2.98465 -1.64451e-15 
-9.35105 -3.02378 -1.38513e-15 
-9.04175 -2.98363 -6.81325e-16 
-8.7404 -2.9714 -6.48185e-16 
-8.43867 -2.9963 -5.99033e-16 
-8.13111 -3.00034 -3.86615e-16 
-7.83022 -2.98982 -2.70666e-16 
-7.52634 -2.98021 -7.76237e-17 
-7.22666 -2.99273 -8.51106e-17 
-6.92263 -3.01451 -4.18887e-17 
-6.61323 -3.0101 9.71757e-18 
-6.30879 -3.01677 1.26179e-16 
-6.00117 -3.00944 3.18199e-16 
-5.69686 -3.00589 5.34982e-16 
-5.39177 -2.99645 8.14586e-16 
-5.08991 -2.97985 9.58718e-16 
-4.79143 -3.03497 1.58493e-15 
-4.49012 -2.98817 1.57615e-15 
-4.19258 -3.01704 2.22453e-15 
-3.89418 -3.05303 3.33429e-15 
-3.5885 -3.04854 5.54046e-15 
-3.286 -3.05458 8.77019e-15 
-2.97352 -3.03418 7.75746e-15 
-2.68156 -2.98652 6.17201e-15 
-2.38668 -2.98489 -7.67286e-16 
-2.08735 -2.99629 2.35578e-14 
-1.80371 -3.06507 -1.93572e-14 
-1.48263 -3.03855 -1.79814e-14 
-1.14088 -3.01919 5.34258e-14 
-0.911299 -2.82324 -1.72884e-13 
-0.547254 -2.77046 -2.09911e-13 
-0.181081 -2.8681 1.50945e-13 
0.0392287 -2.50925 -4.8512e-13 
0.230407 -2.86393 4.91102e-13 
0.491633 -2.63208 -3.36712e-13 
0.840148 -2.8731 -7.94554e-15 
1.13631 -2.94538 -1.31726e-14 
1.46987 -2.95582 -6.07754e-15 
1.77585 -3.02223 -1.28282e-14 
2.07356 -3.05206 -1.79123e-15 
2.36542 -3.10085 -1.42063e-14 
2.6613 -3.04342 -1.24038e-14 
2.95615 -3.0738 -6.70073e-15 
3.25453 -3.00988 -6.29463e-15 
3.5581 -3.02158 -3.52422e-15 
3.86544 -3.02571 -3.1675e-15 
4.16579 -3.00333 -2.227e-15 
4.46811 -2.99709 -1.56769e-15 
4.77019 -3.00681 -1.22556e-15 
5.06992 -3.01355 -9.71757e-16 
5.3712 -3.01931 -7.25786e-16 
5.67964 -2.99752 -4.81371e-16 
5.98505 -2.99808 -2.91954e-16 
6.2982 -2.98339 -1.24186e-16 
6.59416 -3.00568 3.88131e-17 
6.9161 -2.97745 6.46591e-17 
7.23365 -2.99566 9.66067e-17 
7.53468 -2.98839 1.65187e-16 
7.83978 -2.99919 2.54107e-16 
8.13856 -2.97647 3.87697e-16 
8.44843 -3.00055 5.24635e-16 
8.74921 -2.97018 5.54453e-16 
9.05004 -3.06174 9.12866e-16 
9.35521 -3.00484 1.07078e-15 
9.66073 -2.94658 8.46499e-16 
9.98502 -3.03174 1.36162e-15 
10.3194 -2.97589 4.33168e-16 
10.6501 -3.07172 2.54142e-15 
10.984 -2.99374 8.20317e-16 
11.336 -2.93225 -2.42867e-15 
11.6688 -3.05405 1.12956e-15 
12 -2.94769 -9.43397e-15 
-12 -2.6516 7.10517e-15 
-11.6498 -2.72054 4.55735e-16 
-11.309 -2.63894 3.30545e-15 
-10.9701 -2.65311 -3.79906e-16 
-10.635 -2.63925 -2.96298e-17 
-10.3002 -2.67295 -2.60823e-16 
-9.96992 -2.66189 -1.06832e-15 
-9.63975 -2.66402 -8.91687e-16 
-9.31195 -2.68065 -6.55007e-16 
-8.9966 -2.64318 -6.31791e-16 
-8.68429 -2.63507 -4.65956e-16 
-8.37465 -2.66757 -3.50084e-16 
-8.07078 -2.66208 -2.68779e-16 
-7.76103 -2.65969 -1.53583e-16 
-7.45088 -2.65154 -7.19332e-17 
-7.14361 -2.67073 -4.23574e-17 
-6.83885 -2.68985 -4.99052e-17 
-6.53053 -2.68133 1.30289e-17 
-6.22626 -2.68638 1.42435e-16 
-5.9211 -2.67736 3.09179e-16 
[...]
POINT_DATA 1978 
VECTORS vectors float
-0.000256547 -0.000445285 1 
-0.000240151 -0.0472709 0.998882 
-0.000200433 -0.0478197 0.998856 
-7.2488e-05 -0.0391685 0.999233 
-0.000118852 -0.0307234 0.999528 
-0.000106837 -0.0217521 0.999763 
-7.89864e-05 -0.0155029 0.99988 
-9.82164e-05 -0.0113039 0.999936 
-0.000104044 -0.00831657 0.999965 
-8.2058e-05 -0.00646456 0.999979 
-8.64779e-05 -0.00521289 0.999986 
-7.92424e-05 -0.00441441 0.99999 
-6.09683e-05 -0.00392664 0.999992 
-4.06516e-05 -0.00353688 0.999994 
-3.38083e-05 -0.00317434 0.999995 
-5.70691e-05 -0.00284077 0.999996 
-5.00088e-05 -0.00262007 0.999997 
-5.69513e-05 -0.00221929 0.999998 
-7.09207e-05 -0.00165603 0.999999 
-6.34391e-05 -0.000857896 1 
-6.52303e-05 0.000243142 1 
-6.36101e-05 0.00181717 0.999998 
-4.89878e-05 0.00404965 0.999992 
-8.18372e-05 0.00703882 0.999975 
-7.77911e-05 0.0119109 0.999929 
-3.85419e-05 0.0176286 0.999845 
-8.14642e-05 0.02594 0.999663 
-6.897e-05 0.038252 0.999268 
-4.09102e-05 0.0538299 0.99855 
-3.98104e-05 0.0753764 0.997155 
-2.10616e-05 0.104614 0.994513 
1.71407e-05 0.141776 0.989899 
-1.3929e-05 0.19038 0.981711 
-3.98706e-06 0.263481 0.964665 
2.04452e-06 0.352708 0.935733 
-9.5783e-06 0.471959 0.88162 
2.12633e-05 0.610271 0.792193 
-7.84843e-06 0.778008 0.628254 
2.19709e-05 0.918889 0.394517 
-4.88068e-06 0.999998 -0.00197977 
-1.53207e-05 0.922971 -0.38487 
-2.13562e-06 0.770635 -0.637277 
-1.1178e-05 0.611396 -0.791325 
2.68834e-06 0.481011 -0.876715 
2.89115e-06 0.370151 -0.928972 
-3.03384e-06 0.27701 -0.960867 
1.65347e-05 0.203495 -0.979076 
3.64802e-05 0.148402 -0.988927 
6.40466e-05 0.103735 -0.994605 
5.55702e-05 0.073963 -0.997261 
6.91011e-05 0.0512821 -0.998684 
3.58708e-05 0.0365152 -0.999333 
7.26004e-05 0.0254474 -0.999676 
6.34946e-05 0.017163 -0.999853 
5.19692e-05 0.0113159 -0.999936 
6.73448e-05 0.00706953 -0.999975 
7.27735e-05 0.00389994 -0.999992 
7.17169e-05 0.00165064 -0.999999 
6.23612e-05 7.71407e-05 -1 
4.34541e-05 -0.000944323 -1 
5.13253e-05 -0.00161555 -0.999999 
5.84091e-05 -0.00219129 -0.999998 
3.3188e-05 -0.00266848 -0.999996 
3.31335e-05 -0.00295063 -0.999996 
6.07425e-05 -0.00331973 -0.999994 
5.01613e-05 -0.00379618 -0.999993 
4.70188e-05 -0.00427092 -0.999991 
5.7464e-05 -0.00476569 -0.999989 
2.56659e-05 -0.00539178 -0.999985 
7.23647e-05 -0.0062316 -0.999981 
0.000138507 -0.00808478 -0.999967 
5.16404e-05 -0.0108922 -0.999941 
0.000110203 -0.0145028 -0.999895 
0.000108704 -0.0214038 -0.999771 
0.000145099 -0.0290374 -0.999578 
0.000129122 -0.0401687 -0.999193 
0.000137673 -0.0479585 -0.998849 
0.000247888 -0.0474983 -0.998871 
0.000264312 -0.000454518 -1 
-3.73373e-05 0.000341349 1 
0.0132184 -0.0309533 0.999433 
0.0216839 -0.0433133 0.998826 
0.02136 -0.0400528 0.998969 
0.0231602 -0.0319399 0.999221 
0.0225924 -0.0246629 0.999441 
0.0241894 -0.0179305 0.999547 
0.0251459 -0.0129996 0.999599 
0.0247029 -0.00948837 0.99965 
0.02587 -0.0070909 0.99964 
0.0262853 -0.00555142 0.999639 
0.0264911 -0.00455615 0.999639 
0.027014 -0.00391622 0.999627 
0.0276996 -0.00343817 0.99961 
0.0282967 -0.0030823 0.999595 
0.0276399 -0.00276771 0.999614 
0.0272069 -0.00237562 0.999627 
0.0275192 -0.0019327 0.999619 
0.0270341 -0.00133869 0.999634 
0.027328 -0.00046085 0.999626 
0.0269861 0.000789496 0.999635 
0.0272027 0.0025757 0.999627 
0.027021 0.00499081 0.999622 
0.0248551 0.00861623 0.999654 
0.0266354 0.0134919 0.999554 
0.0245786 0.0199097 0.9995 
0.0228311 0.029194 0.999313 
0.0225224 0.0419414 0.998866 
0.0207066 0.0590606 0.99804 
0.0188696 0.0827735 0.99639 
0.0170495 0.113409 0.993402 
0.0141592 0.154234 0.987933 
0.00965397 0.211127 0.977411 
0.00620642 0.288463 0.957471 
0.00219962 0.384791 0.923001 
-0.00139194 0.504161 0.863608 
-0.00385896 0.654176 0.756332 
-0.0048062 0.812953 0.58231 
-0.00287644 0.95299 0.302987 
-0.000385273 0.99994 -0.0109596 
0.00256622 0.944962 -0.327171 
0.00414352 0.799034 -0.601271 
0.00325848 0.633638 -0.773623 
0.000661816 0.488685 -0.87246 
-0.00296733 0.369732 -0.929134 
-0.00694353 0.273434 -0.961866 
-0.0106339 0.200993 -0.979535 
-0.0135142 0.142338 -0.989726 
-0.0169619 0.102902 -0.994547 
-0.0188545 0.0729805 -0.997155 
-0.0218423 0.0523172 -0.998392 
-0.0227885 0.0371401 -0.99905 
-0.0237675 0.025782 -0.999385 
-0.0253437 0.0177718 -0.999521 
-0.0258731 0.0118522 -0.999595 
-0.0258714 0.00736335 -0.999638 
-0.0264049 0.00410852 -0.999643 
-0.0267612 0.00180601 -0.99964 
-0.0278895 0.000272436 -0.999611 
-0.0280206 -0.00075473 -0.999607 
-0.0278011 -0.00149246 -0.999612 
-0.0280592 -0.0021013 -0.999604 
-0.0294578 -0.00249525 -0.999563 
-0.0276528 -0.00287135 -0.999613 
-0.0280319 -0.00329814 -0.999602 
-0.027816 -0.00374672 -0.999606 
-0.0280933 -0.00423302 -0.999596 
-0.0276558 -0.00488157 -0.999606 
-0.0288786 -0.005668 -0.999567 
-0.024528 -0.0070017 -0.999675 
-0.0251147 -0.00938643 -0.999641 
-0.0265848 -0.0125466 -0.999568 
-0.0222425 -0.0172376 -0.999604 
-0.0235621 -0.023655 -0.999442 
-0.0199023 -0.0322404 -0.999282 
-0.0224386 -0.040038 -0.998946 
-0.021927 -0.0431686 -0.998827 
-0.0129777 -0.0314079 -0.999422 
7.63103e-05 0.000359418 -1 
0.000315008 -1.4789e-05 1 
0.0209926 -0.0337917 0.999208 
0.0274409 -0.0420809 0.998737 
0.0290072 -0.0374383 0.998878 
0.030134 -0.0307568 0.999073 
0.031267 -0.0244078 0.999213 
0.0326842 -0.0183506 0.999297 
0.0339639 -0.0134335 0.999333 
0.0343023 -0.0097965 0.999363 
0.035445 -0.00743599 0.999344 
0.0361797 -0.00586906 0.999328 
0.0361404 -0.00469791 0.999336 
0.0364563 -0.00395514 0.999327 
0.036481 -0.00345714 0.999328 
0.0367883 -0.00304595 0.999318 
0.0367162 -0.00266974 0.999322 
0.0369506 -0.00229379 0.999314 
0.0370721 -0.00182293 0.999311 
0.0368147 -0.00122039 0.999321 
0.0366595 -0.000358393 0.999328 
0.036243 0.000877863 0.999343 
0.0358391 0.00267778 0.999354 
0.0353356 0.00525248 0.999362 
0.0344973 0.00864368 0.999367 
0.0340333 0.0135456 0.999329 
0.0329835 0.019975 0.999256 
0.0316413 0.0287197 0.999087 
0.0299156 0.0406584 0.998725 
0.0275987 0.0579824 0.997936 
0.0248823 0.0809564 0.996407 
0.0211925 0.113208 0.993345 
0.0171166 0.155949 0.987617 
0.0128402 0.213768 0.9768 
0.00799621 0.288751 0.957371 
0.00254314 0.390472 0.920611 
-0.00201591 0.521984 0.852953 
-0.00486115 0.678288 0.73478 
-0.00490334 0.823055 0.567941 
-0.00382615 0.945115 0.326715 
-0.000457859 0.999924 -0.0123288 
0.0022758 0.942136 -0.335222 
0.00345337 0.817024 -0.576593 
0.00344551 0.660897 -0.750468 
0.000762943 0.507689 -0.86154 
-0.00339352 0.385522 -0.922692 
-0.00829856 0.288762 -0.957365 
-0.0132288 0.213028 -0.976956 
-0.0178792 0.155119 -0.987734 
-0.0216911 0.112142 -0.993455 
-0.0247391 0.0807488 -0.996427 
-0.0274043 0.0593455 -0.997861 
-0.0294397 0.0422934 -0.998671 
-0.0312183 0.0299148 -0.999065 
-0.0325962 0.0209142 -0.99925 
-0.0335547 0.0141606 -0.999337 
-0.0345317 0.00918663 -0.999361 
-0.0353919 0.00549857 -0.999358 
-0.0359176 0.00282032 -0.999351 
-0.0364532 0.000996208 -0.999335 
-0.0367964 -0.000281499 -0.999323 
-0.036959 -0.00113155 -0.999316 
-0.0370213 -0.00175609 -0.999313 
-0.0371241 -0.00221736 -0.999308 
-0.0370736 -0.00269141 -0.999309 
-0.0369744 -0.00309192 -0.999311 
-0.0368401 -0.00351291 -0.999315 
-0.0366532 -0.0040174 -0.99932 
-0.0362604 -0.00471252 -0.999331 
-0.0365103 -0.00587081 -0.999316 
-0.0352241 -0.00749043 -0.999351 
-0.0349051 -0.00990726 -0.999342 
-0.0342396 -0.0133421 -0.999325 
-0.0323606 -0.0177342 -0.999319 
-0.0318461 -0.0237803 -0.99921 
-0.0296403 -0.0303244 -0.999101 
-0.029123 -0.0372328 -0.998882 
-0.0270593 -0.0420342 -0.99875 
-0.0207623 -0.033511 -0.999223 
-0.000310571 1.00338e-06 -1 
0.000173549 0.000148732 1 
0.0181417 -0.0316477 0.999334 
0.0233587 -0.0419769 0.998845 
0.0255608 -0.0374343 0.998972 
0.0270341 -0.0312819 0.999145 
0.0289332 -0.0247561 0.999275 
0.0301063 -0.0186109 0.999373 
0.0312895 -0.0135219 0.999419 
0.0327251 -0.0100852 0.999414 
0.0328239 -0.00766587 0.999432 
0.0330463 -0.00586752 0.999437 
0.0337704 -0.0046451 0.999419 
0.0339341 -0.0038506 0.999417 
0.0339966 -0.00334394 0.999416 
0.0338432 -0.00294707 0.999423 
0.0344408 -0.00256466 0.999403 
0.0347144 -0.00212079 0.999395 
0.0345665 -0.00158464 0.999401 
0.0344394 -0.000940145 0.999406 
0.0341679 -3.09704e-05 0.999416 
0.0338012 0.00131027 0.999428 
0.0332392 0.00330668 0.999442 
0.0324898 0.00619406 0.999453 
0.0323513 0.00979523 0.999429 
0.0308811 0.0152444 0.999407 
0.030031 0.0218873 0.999309 
0.0290786 0.030682 0.999106 
0.0272663 0.0432506 0.998692 
0.0250412 0.0598083 0.997896 
0.0217462 0.0848158 0.996159 
0.0178762 0.118036 0.992848 
0.0140276 0.163726 0.986406 
0.010394 0.22245 0.974889 
0.00614063 0.299803 0.953981 
0.0016424 0.405529 0.914081 
-0.00195339 0.547087 0.837073 
-0.00303877 0.676671 0.73628 
-0.00241274 0.841847 0.539711 
-0.00169941 0.963372 0.268162 
0.000233089 0.999959 -0.00909701 
0.00136521 0.955941 -0.293554 
0.00223862 0.846831 -0.531857 
0.00247657 0.683375 -0.730063 
0.000871224 0.530407 -0.847743 
-0.00238046 0.397876 -0.917436 
-0.00652703 0.298648 -0.954341 
-0.0106371 0.221255 -0.975158 
-0.0154455 0.162212 -0.986635 
-0.0187555 0.119052 -0.992711 
-0.0217883 0.0865511 -0.996009 
-0.0238907 0.0634183 -0.997701 
-0.0262147 0.0454549 -0.998622 
-0.0282235 0.0321253 -0.999085 
-0.029527 0.0227951 -0.999304 
-0.0308149 0.0158499 -0.999399 
-0.0319581 0.0104638 -0.999434 
-0.0328782 0.00646921 -0.999438 
-0.0335699 0.00354918 -0.99943 
-0.0337672 0.00148592 -0.999429 
-0.0340712 6.88508e-05 -0.999419 
-0.0341964 -0.000877604 -0.999415 
-0.0344396 -0.0015139 -0.999406 
-0.0342772 -0.00208213 -0.99941 
-0.0343189 -0.00258288 -0.999408 
-0.0342924 -0.00301131 -0.999407 
-0.0343155 -0.00345163 -0.999405 
-0.0340538 -0.00399095 -0.999412 
-0.033951 -0.00480516 -0.999412 
-0.0333483 -0.00606707 -0.999425 
-0.0340263 -0.00778628 -0.999391 
-0.0324632 -0.0103197 -0.99942 
-0.0307187 -0.0140111 -0.99943 
-0.0306728 -0.0188184 -0.999352 
-0.0285557 -0.0252652 -0.999273 
-0.0284926 -0.0312061 -0.999107 
-0.0257716 -0.0375875 -0.998961 
-0.0227053 -0.042111 -0.998855 
-0.0177789 -0.0310826 -0.999359 
-0.000227167 0.000181089 -1 
0.000175475 0.000171079 1 
0.0146363 -0.0323442 0.99937 
0.0190103 -0.0434724 0.998874 
0.0211781 -0.038059 0.999051 
0.0227409 -0.0325524 0.999211 
0.0245878 -0.0258727 0.999363 
0.025877 -0.0194765 0.999475 
0.0270445 -0.014283 0.999532 
0.0279314 -0.0103541 0.999556 
0.0280638 -0.00769566 0.999577 
0.0282157 -0.00578359 0.999585 
0.0289753 -0.00451918 0.99957 
0.0290511 -0.0037319 0.999571 
0.0291993 -0.00322098 0.999568 
0.0291746 -0.00279278 0.99957 
0.0296437 -0.00234219 0.999558 
0.0300542 -0.00183579 0.999547 
0.0296911 -0.0012439 0.999558 
0.0296039 -0.000523311 0.999562 
0.0292765 0.000543224 0.999571 
0.0289032 0.00218517 0.99958 
0.028239 0.00461474 0.999591 
0.0275331 0.00812325 0.999588 
0.0274501 0.0122 0.999549 
0.0258666 0.0184619 0.999495 
0.0251592 0.0259087 0.999348 
0.0242192 0.0355468 0.999074 
0.0223018 0.0490631 0.998547 
0.0203421 0.0681715 0.997466 
0.0170107 0.0941932 0.995409 
0.0133256 0.132644 0.991074 
0.00997279 0.181488 0.983343 
0.00661909 0.243884 0.969782 
0.00337634 0.327767 0.944752 
-0.000114777 0.452371 0.89183 
-0.00148379 0.56708 0.823662 
-0.00141673 0.72721 0.686413 
-0.000151501 0.845697 0.533663 
-0.000383092 0.937579 0.347773 
5.3432e-05 0.997492 0.0707791 
-0.00021088 0.959657 -0.281173 
0.000188025 0.82926 -0.558863 
0.00174073 0.691078 -0.722778 
0.000786067 0.52695 -0.849896 
-0.00144839 0.398502 -0.917166 
-0.00489306 0.292133 -0.956365 
-0.00849115 0.219085 -0.975669 
-0.0126125 0.160678 -0.986926 
-0.014841 0.119405 -0.992735 
-0.0181469 0.0865597 -0.996081 
-0.0199759 0.0619181 -0.997881 
-0.0223453 0.0442532 -0.99877 
-0.0240148 0.0319183 -0.999202 
-0.025191 0.0225847 -0.999428 
-0.0262444 0.0156933 -0.999532 
-0.027414 0.0104404 -0.99957 
-0.0282283 0.00649806 -0.99958 
-0.0288693 0.00355401 -0.999577 
-0.0289679 0.00145926 -0.999579 
-0.029409 3.24401e-05 -0.999567 
-0.0291168 -0.000842805 -0.999576 
-0.0298732 -0.00150132 -0.999553 
-0.0295331 -0.00207573 -0.999562 
-0.029469 -0.00256012 -0.999562 
-0.0293951 -0.00301177 -0.999563 
-0.0293185 -0.00345199 -0.999564 
-0.0291364 -0.00402189 -0.999567 
-0.0293024 -0.00491812 -0.999558 
-0.0281942 -0.00620424 -0.999583 
-0.0293805 -0.00802534 -0.999536 
-0.0278423 -0.0107991 -0.999554 
-0.0262273 -0.0148845 -0.999545 
-0.0263818 -0.0199351 -0.999453 
-0.0241971 -0.0265536 -0.999354 
-0.0239657 -0.0325044 -0.999184 
-0.021215 -0.0388473 -0.99902 
-0.0181248 -0.0429173 -0.998914 
-0.0138957 -0.0310599 -0.999421 
-0.000135282 0.000119809 -1 
0.000126183 0.000162 1 
0.00929525 -0.0277892 0.999571 
0.0141281 -0.0430625 0.998972 
0.016258 -0.0412802 0.999015 
0.0177004 -0.0356457 0.999208 
0.0193755 -0.0293239 0.999382 
0.0206628 -0.0227692 0.999527 
0.021522 -0.0168289 0.999627 
0.0223436 -0.0122832 0.999675 
0.0225234 -0.00909085 0.999705 
0.0223203 -0.00666075 0.999729 
0.0227582 -0.00499664 0.999729 
0.0229575 -0.00403725 0.999728 
0.0231411 -0.00343215 0.999726 
0.0232524 -0.00298083 0.999725 
0.0233713 -0.00248991 0.999724 
0.0237632 -0.0019676 0.999716 
0.0238449 -0.00143106 0.999715 
0.0235132 -0.000776545 0.999723 
0.0233478 0.00011227 0.999727 
0.0231055 0.00152299 0.999732 
0.0225909 0.00367426 0.999738 
0.0221243 0.00679079 0.999732 
0.0212664 0.0109613 0.999714 
0.0213063 0.0157313 0.999649 
0.0198423 0.0228431 0.999542 
0.0192383 0.0312674 0.999326 
0.018221 0.0419447 0.998954 
0.0169125 0.0579346 0.998177 
0.0145926 0.0785671 0.996802 
0.0114999 0.111741 0.993671 
0.00791113 0.158072 0.987396 
0.00505824 0.219466 0.975607 
0.00236821 0.298039 0.954551 
0.000410376 0.393377 0.919377 
-0.00134912 0.505235 0.862981 
-0.00150691 0.654683 0.755902 
-0.00132432 0.799232 0.601021 
-0.000710172 0.981425 0.191843 
0.000570834 0.998247 -0.0591766 
-0.00140974 0.945861 -0.324569 
0.000394827 0.95914 -0.282932 
-0.00108089 0.761956 -0.647628 
0.000390696 0.596091 -0.802917 
0.000217513 0.446418 -0.894825 
-0.00195809 0.32799 -0.944679 
-0.00453046 0.240796 -0.970565 
-0.00820853 0.178049 -0.983987 
-0.0101405 0.13425 -0.990896 
-0.0130624 0.0964751 -0.99525 
-0.015116 0.0706958 -0.997383 
-0.0169552 0.0492739 -0.998641 
-0.018339 0.0356604 -0.999196 
-0.0195389 0.0256906 -0.999479 
-0.0203293 0.0181074 -0.999629 
-0.0213261 0.0123035 -0.999697 
-0.0220288 0.00795201 -0.999726 
-0.0226958 0.00462731 -0.999732 
-0.0229632 0.00221045 -0.999734 
-0.0233563 0.000498203 -0.999727 
-0.0229239 -0.000534749 -0.999737 
-0.0236907 -0.00127193 -0.999719 
-0.0238921 -0.0018343 -0.999713 
-0.0231376 -0.00239335 -0.999729 
-0.0232672 -0.00288525 -0.999725 
-0.0229915 -0.0033568 -0.99973 
-0.0227003 -0.00388801 -0.999735 
-0.0227613 -0.00472451 -0.99973 
-0.0222409 -0.00617304 -0.999734 
-0.0234827 -0.00838288 -0.999689 
-0.0223973 -0.0115588 -0.999682 
-0.0208408 -0.0158552 -0.999657 
-0.0214522 -0.0211865 -0.999545 
-0.0194451 -0.0281816 -0.999414 
-0.0195882 -0.0340718 -0.999227 
-0.0168754 -0.040188 -0.99905 
-0.0139418 -0.044143 -0.998928 
-0.0109569 -0.0328001 -0.999402 
-0.000121411 0.000104428 -1 
5.15646e-05 0.000106635 1 
0.00787215 -0.0342193 0.999383 
0.0110996 -0.0451897 0.998917 
0.0122258 -0.0406686 0.999098 
0.0136442 -0.0347038 0.999304 
0.0147483 -0.0282338 0.999493 
0.015836 -0.021472 0.999644 
0.0164227 -0.0156584 0.999743 
0.0165974 -0.0114989 0.999796 
0.0167882 -0.00834817 0.999824 
0.0167762 -0.00597434 0.999841 
0.016661 -0.0046021 0.999851 
0.0169185 -0.00380313 0.99985 
0.0170188 -0.00329467 0.99985 
0.0172328 -0.00281375 0.999848 
0.0171133 -0.0022716 0.999851 
0.0172377 -0.00172947 0.99985 
0.0174354 -0.00115699 0.999847 
0.0170052 -0.000421895 0.999855 
0.0169927 0.000709311 0.999855 
0.0166892 0.00251732 0.999858 
0.0163795 0.00528218 0.999852 
0.0158123 0.00902901 0.999834 
0.0149758 0.0138552 0.999792 
0.0151231 0.0194572 0.999696 
0.013927 0.0278067 0.999516 
0.0130458 0.037481 0.999212 
0.0127137 0.0511622 0.998609 
0.0108346 0.0696702 0.997511 
0.00910167 0.0980037 0.995144 
0.00584 0.142618 0.989761 
0.00323526 0.206228 0.978499 
0.0010962 0.289324 0.957231 
-0.000851667 0.403322 0.915058 
-0.00186566 0.573838 0.818967 
-0.00189271 0.714707 0.699421 
-2.07485e-05 0.890929 0.454143 
0.00355789 0.976224 0.216734 
-0.000692768 0.930188 0.367083 
0.000986786 0.991517 0.12997 
-0.00228073 0.990788 -0.1354 
-0.00316543 0.938781 -0.3445 
-0.000229684 0.837652 -0.546204 
0.000142896 0.617166 -0.786833 
0.000416019 0.488257 -0.8727 
-0.000152137 0.354303 -0.93513 
-0.00181571 0.258746 -0.965944 
-0.00454639 0.183422 -0.983024 
-0.00701112 0.128478 -0.991688 
-0.00909311 0.0934742 -0.99558 
-0.0115482 0.0653955 -0.997793 
-0.0121787 0.0473897 -0.998802 
-0.0132602 0.0343976 -0.99932 
-0.0142067 0.0247603 -0.999592 
-0.0148348 0.0174538 -0.999738 
-0.0154047 0.0119667 -0.99981 
-0.0159224 0.0076814 -0.999844 
-0.016439 0.00441628 -0.999855 
-0.0169827 0.00190853 -0.999854 
-0.0168774 0.000354158 -0.999858 
-0.017144 -0.000722102 -0.999853 
-0.0172443 -0.00135976 -0.99985 
-0.0176533 -0.0019229 -0.999842 
-0.016714 -0.00248062 -0.999857 
-0.0170368 -0.00299308 -0.99985 
-0.0164633 -0.00346048 -0.999858 
-0.0164444 -0.00405479 -0.999857 
-0.0166102 -0.00498767 -0.99985 
-0.0158246 -0.00645835 -0.999854 
-0.0176855 -0.00854353 -0.999807 
-0.016665 -0.0117438 -0.999792 
-0.015632 -0.0165075 -0.999742 
-0.0162019 -0.0224726 -0.999616 
-0.0144707 -0.0297253 -0.999453 
-0.0147918 -0.0358201 -0.999249 
-0.0122585 -0.041677 -0.999056 
-0.00991742 -0.0453216 -0.998923 
-0.00781561 -0.0329014 -0.999428 
-0.000125478 0.000117472 -1 
9.25183e-05 0.000115692 1 
0.00521767 -0.0329697 0.999443 
0.00750641 -0.0457699 0.998924 
0.00848259 -0.042918 0.999043 
0.00952175 -0.0369623 0.999271 
0.0103334 -0.030335 0.999486 
0.011125 -0.0234223 0.999664 
0.0117205 -0.0173972 0.99978 
0.0116311 -0.012631 0.999853 
0.0117881 -0.00912525 0.999889 
0.0121061 -0.00658099 0.999905 
0.0116021 -0.00488893 0.999921 
0.0117479 -0.00400073 0.999923 
0.0117644 -0.00346843 0.999925 
0.0119413 -0.00299269 0.999924 
0.011862 -0.00245668 0.999927 
0.011666 -0.00188684 0.99993 
0.0119074 -0.0013326 0.999928 
0.0117336 -0.000674396 0.999931 
0.0116363 0.000384278 0.999932 
0.0114614 0.00207995 0.999932 
0.0113684 0.00469145 0.999924 
0.0109227 0.00836401 0.999905 
0.0102822 0.0130387 0.999862 
0.00999974 0.0189706 0.99977 
0.009918 0.026297 0.999605 
0.00856195 0.0363898 0.999301 
0.00863611 0.0492209 0.998751 
0.00711488 0.0667975 0.997741 
0.00616952 0.0928529 0.995661 
0.00417092 0.131223 0.991344 
0.00189939 0.197854 0.98023 
0.000488709 0.283788 0.958887 
-0.000825895 0.396643 0.917972 
-0.00244151 0.627599 0.778533 
-0.00067904 0.781756 0.623584 
0.000779026 0.883752 0.467956 
0.00668525 0.992827 0.119369 
0.00521833 0.996161 0.0873853 
0.00326587 0.998723 0.0504054 
0.002453 0.998706 0.0507942 
-0.00236094 0.993676 -0.112263 
0.000371073 0.814152 -0.580652 
0.000960201 0.667231 -0.744851 
0.00125599 0.491714 -0.870756 
0.000607512 0.388891 -0.921284 
-0.000142036 0.281837 -0.959462 
-0.00197099 0.198311 -0.980137 
-0.00393046 0.140733 -0.99004 
-0.00540887 0.0985879 -0.995114 
-0.00745769 0.0715176 -0.997411 
-0.00796285 0.0521622 -0.998607 
-0.00863321 0.0378452 -0.999246 
-0.00937358 0.02757 -0.999576 
-0.00990128 0.0199016 -0.999753 
-0.0102756 0.0138988 -0.999851 
-0.0106209 0.00915274 -0.999902 
-0.0109083 0.00541449 -0.999926 
-0.0117058 0.00267471 -0.999928 
-0.0113763 0.000772122 -0.999935 
-0.0121979 -0.00044955 -0.999926 
-0.0117144 -0.00121515 -0.999931 
-0.0120974 -0.00178695 -0.999925 
-0.011694 -0.00233395 -0.999929 
-0.0117459 -0.00291359 -0.999927 
-0.0113548 -0.00338964 -0.99993 
-0.0113945 -0.00393009 -0.999927 
-0.0112408 -0.00478597 -0.999925 
-0.0111508 -0.00641582 -0.999917 
-0.0123026 -0.00901958 -0.999884 
-0.0119612 -0.0127861 -0.999847 
-0.0108536 -0.0176249 -0.999786 
-0.0117942 -0.0231563 -0.999662 
-0.0102459 -0.0300542 -0.999496 
-0.0105842 -0.0365205 -0.999277 