# vtk DataFile Version 3.0 
Exported using Morpho https://github.com/Morpho-lang/morpho 
ASCII 
DATASET UNSTRUCTURED_GRID 

POINTS 1978 float 
-12 -4 2.11735e-09 
-11.5978 -4 3.72347e-09 
-11.2936 -4 -4.66298e-09 
-10.9429 -4 -4.14188e-10 
-10.6267 -4 -8.72396e-10 
-10.2803 -4 3.95486e-11 
-9.95934 -4 -2.0397e-10 
-9.6477 -4 2.23579e-10 
-9.31308 -4 -4.04632e-11 
-8.99685 -4 -3.47403e-10 
-8.68338 -4 -1.09834e-10 
-8.36794 -4 -2.14228e-10 
-8.06214 -4 -2.53835e-10 
-7.76668 -4 -2.53129e-10 
-7.48204 -4 -3.22201e-10 
-7.1889 -4 -9.24495e-11 
-6.89176 -4 -2.23654e-10 
-6.5956 -4 -2.60665e-10 
-6.29459 -4 -2.19553e-10 
-5.98765 -4 -2.31296e-10 
-5.68753 -4 -2.02142e-10 
-5.38335 -4 -1.76227e-10 
-5.08404 -4 -7.56721e-11 
-4.78928 -4 -2.92557e-10 
-4.46001 -4 -6.32549e-11 
-4.1726 -4 2.6719e-10 
-3.86866 -4 -3.72381e-10 
-3.54952 -4 -2.07989e-10 
-3.25226 -4 -2.81399e-10 
-2.95573 -4 -1.26507e-09 
-2.66505 -4 -1.43065e-09 
-2.39311 -4 -1.00281e-09 
-2.12851 -4 -2.44983e-09 
-1.83844 -4 -3.9663e-09 
-1.56344 -4 2.365e-09 
-1.27607 -4 7.61418e-09 
-0.996645 -4 2.80106e-08 
-0.681302 -4 3.1215e-08 
-0.384718 -4 8.5056e-08 
0.00315591 -4.00001 -3.36615e-08 
0.369059 -4 -5.91811e-08 
0.688195 -4 -3.6984e-08 
0.986274 -4 -2.04222e-08 
1.25438 -4 -7.4971e-09 
1.51506 -4 5.04212e-09 
1.78631 -4 4.55712e-09 
2.0688 -4 2.7027e-09 
2.35406 -4 4.7851e-09 
2.67683 -4 1.80153e-09 
2.97577 -4 1.74062e-09 
3.29741 -4 3.99927e-10 
3.58679 -4 -1.5045e-10 
3.88929 -4 2.94805e-10 
4.19951 -4 -7.4349e-12 
4.49741 -4 -7.32143e-11 
4.79673 -4 1.45876e-10 
5.10533 -4 2.05667e-10 
5.41162 -4 1.29598e-10 
5.71873 -4 2.13131e-10 
6.01226 -4 2.10221e-10 
6.30509 -4 2.33473e-10 
6.60224 -4 2.73766e-10 
6.90057 -4 1.18896e-10 
7.17563 -4 4.00928e-10 
7.47662 -4 7.58633e-11 
7.7704 -4 4.87175e-10 
8.06804 -4 2.54344e-10 
8.35913 -4 2.6896e-10 
8.65866 -4 3.58595e-10 
8.93239 -4 2.48056e-10 
9.27911 -4 -2.0169e-10 
9.60577 -4 2.05297e-10 
9.89466 -4 -1.63699e-11 
10.2619 -4 -4.36287e-11 
10.5747 -4 3.26393e-10 
10.9735 -4 -2.55096e-10 
11.2928 -4 5.88248e-09 
11.5867 -4 -4.41695e-09 
12 -4 -2.41016e-09 
-12 -3.59723 -3.55642e-09 
-11.7151 -3.71519 9.0497e-19 
-11.3629 -3.62726 1.76608e-18 
-11.0458 -3.67575 1.70904e-18 
-10.7092 -3.64428 1.66429e-18 
-10.391 -3.67808 1.2949e-18 
-10.0552 -3.6618 1.1221e-18 
-9.73326 -3.65976 8.83237e-19 
-9.40429 -3.68686 6.42945e-19 
-9.06782 -3.6679 4.83921e-19 
-8.74813 -3.66526 3.71575e-19 
-8.43145 -3.67039 2.98759e-19 
-8.11529 -3.66533 2.43024e-19 
-7.80476 -3.65915 2.24707e-19 
-7.50454 -3.65288 1.85156e-19 
-7.20811 -3.66754 1.46621e-19 
-6.89831 -3.66099 1.16585e-19 
-6.58966 -3.66953 8.79682e-20 
-6.27617 -3.67374 4.17357e-20 
-5.96674 -3.66649 -1.93762e-20 
-5.65706 -3.66815 -1.10884e-19 
-5.35184 -3.66105 -2.30438e-19 
-5.05487 -3.65475 -4.41267e-19 
-4.73221 -3.69037 -5.93577e-19 
-4.44032 -3.65096 -1.00963e-18 
-4.13607 -3.67314 -1.31066e-18 
-3.82039 -3.69247 -1.75465e-18 
-3.51537 -3.68278 -2.50717e-18 
-3.21046 -3.68262 -3.01443e-18 
-2.9144 -3.67222 -3.56016e-18 
-2.63469 -3.6625 -4.49615e-18 
-2.36214 -3.66368 -5.38161e-18 
-2.07412 -3.68947 -2.90395e-18 
-1.7825 -3.68835 -4.4402e-18 
-1.49925 -3.69111 -7.96876e-19 
-1.21698 -3.6601 1.11572e-18 
-0.909979 -3.67474 9.60762e-19 
-0.602715 -3.61169 -1.26244e-17 
-0.257951 -3.69721 2.15689e-17 
0.0175236 -3.54817 2.19091e-17 
0.297396 -3.65759 -3.11745e-17 
0.640875 -3.60911 1.60994e-17 
0.952937 -3.661 -1.60016e-18 
1.24921 -3.65908 -1.00551e-18 
1.52645 -3.66626 4.96473e-19 
1.8183 -3.69278 2.81415e-18 
2.10966 -3.69426 3.43062e-18 
2.42154 -3.72092 4.43557e-18 
2.72009 -3.69073 4.00021e-18 
3.03136 -3.70084 3.33939e-18 
3.31925 -3.6601 3.00955e-18 
3.62058 -3.67349 2.20322e-18 
3.92931 -3.67801 1.66431e-18 
4.22944 -3.66189 1.25638e-18 
4.52947 -3.66107 8.44353e-19 
4.83858 -3.67127 5.56065e-19 
5.14961 -3.67046 3.5986e-19 
5.4603 -3.67179 2.06525e-19 
5.76314 -3.65804 9.91751e-20 
6.06167 -3.66011 -5.43106e-21 
6.36171 -3.66321 -6.59717e-20 
6.66646 -3.66715 -8.58357e-20 
6.95082 -3.63808 -1.41702e-19 
7.25122 -3.66874 -1.83007e-19 
7.55094 -3.65902 -1.83664e-19 
7.85383 -3.66323 -2.20627e-19 
8.15164 -3.65501 -2.5864e-19 
8.4494 -3.66669 -3.06332e-19 
8.73634 -3.62991 -4.2565e-19 
9.0556 -3.70485 -5.03782e-19 
9.38696 -3.67987 -5.87334e-19 
9.69177 -3.63188 -9.03629e-19 
10.025 -3.70773 -1.04627e-18 
10.3508 -3.65134 -1.31214e-18 
10.7165 -3.72236 -1.57494e-18 
11.0521 -3.64867 -1.75976e-18 
11.3567 -3.61551 -1.68288e-18 
11.7118 -3.72521 -9.06935e-19 
12 -3.60168 3.67302e-09 
-12 -3.29378 -3.45986e-09 
-11.6314 -3.36445 9.1049e-19 
-11.2866 -3.28497 9.3539e-19 
-10.9736 -3.33084 1.51953e-18 
-10.6566 -3.29461 1.30741e-18 
-10.3375 -3.34397 1.13332e-18 
-10.0149 -3.32332 9.56058e-19 
-9.69568 -3.32173 8.18453e-19 
-9.38369 -3.36738 6.4736e-19 
-9.0701 -3.33408 4.86186e-19 
-8.77295 -3.31271 3.59436e-19 
-8.47436 -3.33546 2.9475e-19 
-8.16695 -3.33363 2.36232e-19 
-7.85905 -3.32764 1.62152e-19 
-7.55472 -3.31292 1.40679e-19 
-7.25569 -3.32731 1.21865e-19 
-6.95759 -3.33992 1.05772e-19 
-6.64482 -3.33898 7.01708e-20 
-6.33668 -3.34804 2.1566e-20 
-6.02725 -3.33837 -3.83633e-20 
-5.7166 -3.33798 -1.28913e-19 
-5.40913 -3.32868 -2.47025e-19 
-5.10397 -3.3113 -3.96803e-19 
-4.80147 -3.36702 -6.11786e-19 
-4.50038 -3.31466 -8.63862e-19 
-4.19906 -3.34207 -1.1876e-18 
-3.89332 -3.37478 -1.68227e-18 
-3.58811 -3.36652 -2.29278e-18 
-3.28005 -3.37106 -2.82759e-18 
-2.97028 -3.35509 -3.76345e-18 
-2.66332 -3.32769 -3.74147e-18 
-2.37611 -3.32001 -4.06258e-18 
-2.10361 -3.36875 -3.36847e-18 
-1.80878 -3.3837 -1.69838e-18 
-1.50572 -3.36414 -1.01104e-19 
-1.194 -3.33289 3.88932e-18 
-0.876547 -3.31576 2.32809e-18 
-0.592828 -3.16579 -8.45969e-18 
-0.33432 -3.30505 2.38267e-17 
-0.0166605 -3.18649 5.3843e-17 
0.34465 -3.29656 -3.0354e-17 
0.604341 -3.12947 -8.19087e-18 
0.91041 -3.30295 -8.48222e-18 
1.22354 -3.31216 -3.3525e-18 
1.51192 -3.32952 -4.37224e-19 
1.79261 -3.37684 2.46562e-18 
2.08073 -3.38414 4.21083e-18 
2.37365 -3.42264 4.69741e-18 
2.67039 -3.38333 4.56725e-18 
2.97268 -3.39209 3.70355e-18 
3.27006 -3.32881 2.64384e-18 
3.5686 -3.3438 2.14292e-18 
3.86935 -3.35396 1.68376e-18 
4.17177 -3.33083 1.19652e-18 
4.47371 -3.32387 8.53123e-19 
4.77546 -3.33983 6.20404e-19 
5.08148 -3.34441 4.28027e-19 
5.39286 -3.34395 2.55009e-19 
5.69927 -3.32857 1.29417e-19 
6.00927 -3.32088 4.87781e-20 
6.30751 -3.32654 -1.12727e-20 
6.61065 -3.33788 -6.80975e-20 
6.91027 -3.29005 -8.42547e-20 
7.20702 -3.33127 -1.12799e-19 
7.50809 -3.32359 -1.41166e-19 
7.81207 -3.33061 -1.85398e-19 
8.11838 -3.31672 -2.15599e-19 
8.42006 -3.32199 -2.67971e-19 
8.74299 -3.31176 -3.67988e-19 
9.06717 -3.38756 -4.9754e-19 
9.38059 -3.34125 -6.53034e-19 
9.68732 -3.28451 -8.05156e-19 
9.99835 -3.37975 -1.02954e-18 
10.3056 -3.30476 -1.16654e-18 
10.6337 -3.40606 -1.46435e-18 
10.9668 -3.3317 -1.65424e-18 
11.2982 -3.25482 -7.45512e-19 
11.6324 -3.37488 -9.94252e-19 
12 -3.28999 3.34115e-09 
-12 -2.96575 -3.57646e-09 
-11.662 -3.04943 2.65253e-19 
-11.3197 -2.96651 -4.47427e-19 
-10.9726 -2.97643 1.61759e-19 
-10.6317 -2.96814 1.09434e-19 
-10.2997 -3.00407 2.17798e-19 
-9.97307 -2.98839 2.74508e-19 
-9.64748 -2.99048 2.90202e-19 
-9.3455 -3.02505 2.61338e-19 
-9.04331 -2.98169 1.7364e-19 
-8.73849 -2.96867 1.32088e-19 
-8.43748 -2.99654 1.18519e-19 
-8.13173 -2.99822 8.32932e-20 
-7.83093 -2.99023 5.44722e-20 
-7.52805 -2.97696 1.84973e-20 
-7.22868 -2.99438 1.6657e-20 
-6.92468 -3.01711 9.01266e-21 
-6.61608 -3.0121 -1.02529e-21 
-6.31222 -3.01694 -2.2421e-20 
-6.00485 -3.00955 -6.09584e-20 
-5.69992 -3.00589 -1.05839e-19 
-5.39391 -2.99618 -1.61543e-19 
-5.09128 -2.97706 -1.95133e-19 
-4.79334 -3.03345 -3.0372e-19 
-4.49052 -2.98537 -3.13785e-19 
-4.19179 -3.01376 -4.79809e-19 
-3.89312 -3.05213 -6.93114e-19 
-3.58722 -3.04694 -8.44081e-19 
-3.28352 -3.05505 -1.11015e-18 
-2.96779 -3.04013 -1.48643e-18 
-2.67666 -2.98543 -1.35006e-18 
-2.37755 -2.98849 -6.11251e-19 
-2.08008 -3.01301 -1.39756e-18 
-1.80675 -3.06713 1.80574e-19 
-1.48837 -3.04331 2.65734e-18 
-1.15153 -2.99598 7.18303e-18 
-0.899901 -2.87077 7.10341e-18 
-0.575667 -2.76543 4.64507e-17 
-0.198882 -2.82794 -1.04321e-16 
0.0681993 -2.52785 1.6384e-16 
0.240328 -2.88165 -1.53691e-16 
0.48417 -2.62215 3.50845e-17 
0.824088 -2.88685 5.7864e-19 
1.14991 -2.94822 8.05072e-19 
1.48487 -2.97796 1.94544e-21 
1.78559 -3.03588 1.47779e-18 
2.07767 -3.05652 3.13117e-19 
2.36896 -3.10503 1.92329e-18 
2.66158 -3.05195 1.4321e-18 
2.94814 -3.07271 1.39135e-18 
3.25232 -3.00678 9.21584e-19 
3.55892 -3.01755 7.59346e-19 
3.86369 -3.02563 6.75936e-19 
4.16362 -3.00075 4.77411e-19 
4.46558 -2.994 3.49319e-19 
4.76741 -3.00618 2.69985e-19 
5.06782 -3.01353 2.15424e-19 
5.37057 -3.01853 1.57533e-19 
5.67929 -2.99805 1.04878e-19 
5.98453 -2.998 6.68773e-20 
6.29828 -2.98515 2.72592e-20 
6.59366 -3.00469 -6.39747e-21 
6.9153 -2.97598 -1.20905e-20 
7.23362 -2.99561 -1.92189e-20 
7.53525 -2.98939 -3.43892e-20 
7.83981 -2.99909 -5.33992e-20 
8.1397 -2.97914 -8.24529e-20 
8.44844 -3.00077 -1.11744e-19 
8.74986 -2.97078 -1.19035e-19 
9.0518 -3.06138 -2.04734e-19 
9.35574 -3.00288 -2.31154e-19 
9.6629 -2.94508 -2.03424e-19 
9.98736 -3.03095 -3.25944e-19 
10.3205 -2.97514 -1.03226e-19 
10.6493 -3.07359 -5.09928e-19 
10.983 -2.99257 -1.6695e-19 
11.3352 -2.93268 5.73152e-19 
11.6687 -3.05378 -2.61116e-19 
12 -2.94765 3.9296e-09 
-12 -2.65159 -2.93773e-09 
-11.6492 -2.72066 -1.28502e-19 
-11.3078 -2.6401 -7.48608e-19 
-10.969 -2.65332 9.18982e-20 
-10.6344 -2.64012 -1.56186e-20 
-10.3003 -2.67289 6.53633e-20 
-9.9664 -2.66391 1.8576e-19 
-9.63809 -2.66704 1.88804e-19 
-9.31228 -2.67775 1.63937e-19 
-8.99559 -2.64413 1.23546e-19 
-8.68381 -2.63379 1.00824e-19 
-8.37534 -2.66601 7.95109e-20 
-8.07041 -2.66065 5.66685e-20 
-7.76162 -2.65885 3.42883e-20 
-7.44898 -2.65062 1.4131e-20 
-7.14317 -2.67235 8.34192e-21 
-6.8388 -2.69283 9.74391e-21 
-6.53083 -2.68217 -3.40534e-21 
-6.22634 -2.68582 -3.19456e-20 
-5.92043 -2.67782 -6.84018e-20 
[...]
POINT_DATA 1978 
VECTORS vectors float
0.00342901 -0.00496547 0.999978 
0.00325766 -0.0476505 0.998854 
0.00174446 -0.0479641 0.998843 
0.0024906 -0.0392213 0.999223 
0.00218923 -0.0307484 0.99952 
0.00236697 -0.021748 0.999756 
0.00260944 -0.0154905 0.999873 
0.00259074 -0.0112922 0.999929 
0.00258127 -0.00830999 0.999958 
0.00273274 -0.00646227 0.999971 
0.00281585 -0.00521165 0.999979 
0.00288719 -0.00441583 0.999983 
0.00310709 -0.00393097 0.999985 
0.00332558 -0.00354142 0.999986 
0.00335798 -0.00317642 0.999987 
0.00317467 -0.00284213 0.999989 
0.00324611 -0.00262552 0.99999 
0.00315373 -0.00222426 0.999989 
0.0030117 -0.0016617 0.999991 
0.00304609 -0.000864852 0.999992 
0.00303385 0.000234967 0.999993 
0.00311289 0.0018064 0.999991 
0.0030237 0.00403928 0.999985 
0.00286742 0.00702301 0.999968 
0.0028542 0.0118916 0.999922 
0.0029517 0.0176064 0.999838 
0.00277007 0.0259117 0.999658 
0.00264594 0.0382184 0.999264 
0.00274558 0.0537853 0.998547 
0.0027071 0.075315 0.997155 
0.00262188 0.104537 0.994517 
0.00247849 0.141675 0.98991 
0.00192458 0.190232 0.981738 
0.00139863 0.263357 0.964698 
0.000642151 0.352571 0.935785 
-0.000152148 0.471864 0.881672 
-0.000754769 0.610285 0.792182 
-0.00137608 0.778054 0.628196 
-0.000979885 0.919008 0.394235 
-3.41202e-05 0.999997 -0.00200228 
0.00109903 0.923023 -0.38474 
0.00137088 0.770546 -0.637382 
0.000729652 0.611304 -0.791395 
0.000153289 0.480957 -0.876744 
-0.000526122 0.370011 -0.929028 
-0.00132391 0.276895 -0.9609 
-0.00172465 0.203379 -0.979099 
-0.0020592 0.148304 -0.988939 
-0.0021298 0.103659 -0.994609 
-0.00243843 0.0738986 -0.997261 
-0.00261358 0.0512381 -0.998681 
-0.00286601 0.0364797 -0.999328 
-0.00282963 0.02542 -0.99967 
-0.00288789 0.0171426 -0.999846 
-0.00301166 0.0112981 -0.999929 
-0.00297363 0.00705471 -0.999968 
-0.00290466 0.00388824 -0.999985 
-0.00295684 0.00164166 -0.999991 
-0.00310624 7.00241e-05 -0.999993 
-0.00323738 -0.000951102 -0.999992 
-0.00320959 -0.0016206 -0.999991 
-0.00325626 -0.00219512 -0.99999 
-0.00333175 -0.00267305 -0.999989 
-0.00336477 -0.00295464 -0.999988 
-0.0032344 -0.00332312 -0.999987 
-0.00317618 -0.0038003 -0.999985 
-0.00321591 -0.00427499 -0.999983 
-0.00332231 -0.00476773 -0.999981 
-0.0033024 -0.00539338 -0.999978 
-0.00282345 -0.00623145 -0.999973 
-0.00249231 -0.00807698 -0.999959 
-0.00271181 -0.0108818 -0.999934 
-0.00255325 -0.0144918 -0.999887 
-0.00222291 -0.0214022 -0.999763 
-0.00173907 -0.0290564 -0.999569 
-0.00208992 -0.0402252 -0.999182 
-0.00207333 -0.0481026 -0.998836 
-0.00327185 -0.0478688 -0.998844 
-0.0033733 -0.00498269 -0.999978 
0.00465566 -0.0030259 0.999979 
0.0135101 -0.0312056 0.999425 
0.0219558 -0.0435546 0.998813 
0.0215969 -0.0401524 0.998963 
0.0233835 -0.0319707 0.999218 
0.0228192 -0.0246766 0.999438 
0.0244208 -0.0179287 0.999544 
0.0253995 -0.0129958 0.999596 
0.0249465 -0.0094852 0.999646 
0.0261124 -0.00708886 0.999637 
0.0265333 -0.00555193 0.999636 
0.0267411 -0.00455716 0.999635 
0.0272593 -0.00391885 0.999623 
0.0279523 -0.00343995 0.999606 
0.0285537 -0.00308555 0.99959 
0.0279013 -0.00277282 0.999609 
0.0274475 -0.00237865 0.999622 
0.0277645 -0.00193652 0.999617 
0.0272866 -0.00134392 0.999629 
0.0275804 -0.000466378 0.999622 
0.0272339 0.000783179 0.999631 
0.0274567 0.00256946 0.999622 
0.0272668 0.00498091 0.999618 
0.025093 0.00860626 0.99965 
0.0268935 0.0134853 0.99955 
0.0248085 0.0198959 0.999497 
0.0230567 0.0291777 0.999311 
0.022752 0.041926 0.998864 
0.0209167 0.0590279 0.99804 
0.0190506 0.0827573 0.99639 
0.017221 0.113373 0.993405 
0.0143197 0.154196 0.987939 
0.00974686 0.211101 0.977418 
0.00628593 0.28837 0.957501 
0.00223168 0.384768 0.923012 
-0.00141475 0.504194 0.863591 
-0.00392968 0.654078 0.756417 
-0.00486671 0.812603 0.582797 
-0.00289503 0.952658 0.304027 
-0.000355411 0.999941 -0.0108188 
0.00260064 0.944649 -0.328068 
0.00421687 0.799117 -0.601161 
0.00332507 0.633684 -0.773586 
0.000681802 0.488737 -0.872434 
-0.00300227 0.369602 -0.929187 
-0.00702992 0.273353 -0.96189 
-0.0107511 0.200965 -0.979541 
-0.0136714 0.142294 -0.989732 
-0.0171339 0.102871 -0.994549 
-0.019061 0.0729646 -0.997155 
-0.0220501 0.0522811 -0.998392 
-0.0230144 0.0371223 -0.999048 
-0.0240018 0.025767 -0.999382 
-0.0255855 0.0177569 -0.999517 
-0.0261153 0.0118416 -0.999591 
-0.0261145 0.00735347 -0.999634 
-0.0266508 0.00409877 -0.999639 
-0.0270092 0.00179717 -0.999636 
-0.0281433 0.000264682 -0.999606 
-0.0282785 -0.000759772 -0.999602 
-0.0280447 -0.00149629 -0.999608 
-0.0283213 -0.00210683 -0.999599 
-0.0297196 -0.00249931 -0.999557 
-0.027904 -0.00287337 -0.999609 
-0.0282829 -0.00330224 -0.999597 
-0.0280699 -0.0037506 -0.999601 
-0.0283416 -0.00423585 -0.999592 
-0.0279159 -0.00488455 -0.9996 
-0.02913 -0.00566736 -0.999562 
-0.0247724 -0.00699569 -0.999671 
-0.0253583 -0.00938524 -0.999637 
-0.0268287 -0.0125427 -0.999564 
-0.0224772 -0.0172324 -0.999601 
-0.0237851 -0.0236657 -0.99944 
-0.0201338 -0.0322717 -0.999279 
-0.0226754 -0.0401392 -0.99894 
-0.022191 -0.0434089 -0.998814 
-0.0132706 -0.0316707 -0.999414 
-0.00449023 -0.00305134 -0.99998 
0.00317643 -0.00328571 0.999984 
0.0212782 -0.0340984 0.999195 
0.0276587 -0.0423092 0.998725 
0.029184 -0.0374963 0.998872 
0.030304 -0.0307885 0.999069 
0.0314482 -0.0244323 0.999209 
0.0328701 -0.0183629 0.999293 
0.0341603 -0.0134372 0.999328 
0.0344949 -0.00979077 0.99936 
0.0356444 -0.00743539 0.999339 
0.0363723 -0.00586925 0.999323 
0.0363318 -0.00469734 0.999331 
0.0366572 -0.00395667 0.999322 
0.0366638 -0.00346075 0.999324 
0.0369739 -0.0030493 0.999314 
0.0368912 -0.00267234 0.999318 
0.03715 -0.00229741 0.999309 
0.037275 -0.00182691 0.999306 
0.0370159 -0.00122507 0.999316 
0.036857 -0.000363393 0.999323 
0.0364353 0.000871536 0.999338 
0.036025 0.00267019 0.99935 
0.0355185 0.00524456 0.999358 
0.0346864 0.00863507 0.999363 
0.034211 0.013536 0.999325 
0.0331632 0.0199661 0.999253 
0.0318248 0.0287102 0.999083 
0.030096 0.0406447 0.998723 
0.0277539 0.0579784 0.997936 
0.025042 0.0809219 0.996406 
0.0213229 0.11316 0.99335 
0.0172144 0.155812 0.987639 
0.0129241 0.21384 0.976785 
0.00806568 0.288725 0.95738 
0.00256151 0.390377 0.920654 
-0.00203718 0.522044 0.852918 
-0.00488552 0.677789 0.735241 
-0.00497578 0.823064 0.567926 
-0.00388763 0.94561 0.325274 
-0.000488057 0.999912 -0.0131935 
0.00233022 0.942575 -0.333984 
0.00359121 0.816939 -0.576712 
0.00351571 0.660733 -0.750614 
0.000798722 0.50782 -0.861464 
-0.00340552 0.385644 -0.922643 
-0.00835617 0.28877 -0.957364 
-0.0133231 0.212969 -0.97697 
-0.0180086 0.155063 -0.987742 
-0.0218371 0.112101 -0.993459 
-0.0248959 0.0807248 -0.996428 
-0.0275605 0.0593453 -0.997859 
-0.0296028 0.0422877 -0.998669 
-0.0313909 0.0299033 -0.999061 
-0.0327782 0.0209134 -0.999246 
-0.0337212 0.0141496 -0.999334 
-0.0347159 0.00917895 -0.999357 
-0.035588 0.00549082 -0.999354 
-0.0361104 0.00281334 -0.999346 
-0.036643 0.000990204 -0.99933 
-0.0369837 -0.000286933 -0.999318 
-0.0371477 -0.00113635 -0.999311 
-0.0372088 -0.00175919 -0.999308 
-0.0372979 -0.00222061 -0.999304 
-0.0372595 -0.00269531 -0.999304 
-0.0371598 -0.00309554 -0.999307 
-0.0370316 -0.00351553 -0.99931 
-0.0368339 -0.00401897 -0.999315 
-0.0364413 -0.00471316 -0.999327 
-0.036711 -0.00587182 -0.999311 
-0.0354362 -0.00749112 -0.999346 
-0.0351051 -0.00990577 -0.999337 
-0.0344242 -0.0133389 -0.999321 
-0.0325574 -0.0177379 -0.999315 
-0.0320349 -0.0238042 -0.999206 
-0.0298252 -0.0303547 -0.999096 
-0.0293124 -0.0372925 -0.998877 
-0.0272687 -0.0422754 -0.998737 
-0.0210471 -0.0338059 -0.99921 
-0.00296371 -0.00313588 -0.999985 
0.00280979 -0.00358855 0.999985 
0.018343 -0.0319523 0.999324 
0.0234501 -0.0422056 0.998836 
0.0256195 -0.0375019 0.998971 
0.0270877 -0.0313303 0.999144 
0.0290012 -0.0247895 0.999274 
0.03017 -0.018624 0.999374 
0.0313541 -0.0135167 0.99942 
0.0328123 -0.0100873 0.999412 
0.0328976 -0.00766591 0.999432 
0.033111 -0.0058664 0.999437 
0.0338496 -0.00464476 0.999419 
0.0340059 -0.00385119 0.999416 
0.0340713 -0.00334618 0.999416 
0.0339026 -0.00295075 0.999423 
0.0345237 -0.00256926 0.999402 
0.0347907 -0.00212478 0.999395 
0.0346398 -0.00158825 0.999401 
0.0345135 -0.000944437 0.999406 
0.0342424 -3.70224e-05 0.999416 
0.033876 0.00130283 0.999427 
0.0333106 0.00329779 0.999442 
0.0325537 0.00618683 0.999453 
0.0324312 0.00978771 0.999429 
0.0309379 0.0152388 0.999407 
0.0300935 0.0218809 0.99931 
0.0291518 0.0306789 0.999107 
0.027326 0.0432382 0.998693 
0.0251096 0.0597902 0.997896 
0.0217933 0.0847868 0.996165 
0.0179088 0.117988 0.992856 
0.014051 0.163785 0.986399 
0.0104376 0.222435 0.974894 
0.00613979 0.299984 0.953927 
0.00163622 0.405769 0.913976 
-0.00194786 0.546903 0.837195 
-0.00308056 0.677363 0.735643 
-0.00242266 0.841918 0.539598 
-0.00186912 0.962706 0.27054 
0.000270152 0.999975 -0.00686134 
0.00136217 0.955508 -0.294966 
0.0021263 0.845519 -0.53394 
0.00247469 0.683066 -0.730353 
0.000867894 0.529928 -0.848044 
-0.00238727 0.397752 -0.917492 
-0.0065464 0.298623 -0.954351 
-0.0106527 0.221316 -0.975147 
-0.0154893 0.162201 -0.986638 
-0.0188103 0.119046 -0.992713 
-0.0218311 0.0865392 -0.996012 
-0.0239397 0.0634048 -0.997703 
-0.0262688 0.0454528 -0.998623 
-0.0282899 0.0321247 -0.999086 
-0.0295809 0.0227841 -0.999305 
-0.0308863 0.0158506 -0.999399 
-0.0320286 0.0104604 -0.999434 
-0.0329512 0.00646324 -0.999438 
-0.0336464 0.00354254 -0.99943 
-0.0338397 0.00147946 -0.999428 
-0.0341412 6.29793e-05 -0.999419 
-0.0342723 -0.000882046 -0.999414 
-0.0345171 -0.00151673 -0.999406 
-0.0343434 -0.00208501 -0.99941 
-0.0343932 -0.00258674 -0.999408 
-0.0343661 -0.00301468 -0.999407 
-0.0343871 -0.00345399 -0.999405 
-0.0341316 -0.00399253 -0.999412 
-0.0340199 -0.00480463 -0.999412 
-0.0334147 -0.00606798 -0.999425 
-0.0341183 -0.00778903 -0.99939 
-0.0325332 -0.0103198 -0.99942 
-0.0307731 -0.0140164 -0.99943 
-0.0307505 -0.0188343 -0.999352 
-0.0286083 -0.0253008 -0.999273 
-0.0285821 -0.0312446 -0.999105 
-0.02583 -0.0376524 -0.998959 
-0.0227971 -0.0423633 -0.998845 
-0.0179777 -0.0313836 -0.999349 
-0.00256994 -0.00329247 -0.999986 
0.00222431 -0.00293319 0.999988 
0.0147645 -0.0326522 0.999361 
0.0190679 -0.0437298 0.998864 
0.0212158 -0.0381142 0.999051 
0.0227767 -0.0326046 0.999211 
0.0246343 -0.0259139 0.999364 
0.0259268 -0.0194876 0.999476 
0.0270944 -0.0142867 0.999533 
0.0279852 -0.0103565 0.999558 
0.0281197 -0.00769675 0.999577 
0.0282681 -0.00578312 0.999586 
0.029029 -0.00451911 0.999571 
0.0291045 -0.0037326 0.999572 
0.0292549 -0.00322358 0.999569 
0.0292294 -0.00279645 0.999571 
0.029697 -0.00234566 0.999558 
0.0301152 -0.00183845 0.999547 
0.0297448 -0.00124651 0.999559 
0.0296592 -0.000527702 0.999562 
0.0293329 0.000536903 0.999572 
0.0289576 0.00217794 0.99958 
0.0282946 0.0046085 0.999591 
0.0275814 0.00812006 0.999589 
0.027506 0.0121958 0.999549 
0.0259131 0.0184654 0.999496 
0.0252086 0.025917 0.999348 
0.0242639 0.0355487 0.999075 
0.0223432 0.0490732 0.998547 
0.0203817 0.0681759 0.997467 
0.0170507 0.0941654 0.995413 
0.0133538 0.132654 0.991075 
0.00999876 0.181476 0.983347 
0.00664248 0.243603 0.969855 
0.00337356 0.327812 0.94474 
-0.000124041 0.452209 0.891914 
-0.0015159 0.567021 0.823704 
-0.00149459 0.726927 0.686713 
-0.000208788 0.844499 0.535557 
-0.000323745 0.937929 0.346824 
0.000115164 0.997664 0.0682987 
-4.46e-05 0.959861 -0.280474 
0.00025035 0.831132 -0.556075 
0.00170069 0.69137 -0.7225 
0.000800088 0.527324 -0.849666 
-0.00144423 0.398617 -0.917119 
-0.00489456 0.292257 -0.95633 
-0.00850627 0.21907 -0.975675 
-0.0126477 0.160695 -0.986926 
-0.0148634 0.119362 -0.992743 
-0.0181915 0.0865212 -0.996086 
-0.0200121 0.0619154 -0.997883 
-0.0223887 0.0442484 -0.998772 
-0.0240633 0.0319173 -0.999203 
-0.02524 0.0225809 -0.999429 
-0.0262911 0.0156925 -0.999533 
-0.0274691 0.0104359 -0.99957 
-0.0282828 0.00649144 -0.999581 
-0.0289233 0.00354637 -0.999578 
-0.0290234 0.00145179 -0.99958 
-0.0294642 2.5696e-05 -0.999568 
-0.029174 -0.00084718 -0.999576 
-0.0299278 -0.00150406 -0.999553 
-0.0295877 -0.00207905 -0.999562 
-0.0295259 -0.00256403 -0.999563 
-0.0294496 -0.00301527 -0.999564 
-0.0293718 -0.00345441 -0.999565 
-0.0291938 -0.00402177 -0.999568 
-0.0293609 -0.00491795 -0.999559 
-0.0282472 -0.00620262 -0.999584 
-0.0294361 -0.0080244 -0.999537 
-0.0278977 -0.010801 -0.999555 
-0.0262768 -0.0148877 -0.999546 
-0.0264305 -0.0199493 -0.999454 
-0.024239 -0.0265934 -0.999355 
-0.0240024 -0.0325551 -0.999184 
-0.0212479 -0.0389252 -0.999019 
-0.0181869 -0.0431767 -0.998904 
-0.0140224 -0.0313603 -0.999413 
-0.00241507 -0.00326764 -0.999987 
0.00210407 -0.00319242 0.999988 
0.00938602 -0.0280753 0.999565 
0.0141908 -0.043365 0.998961 
0.0162889 -0.0413897 0.999013 
0.0177308 -0.0357038 0.999208 
0.0194091 -0.0293772 0.999382 
0.0206998 -0.0227946 0.999528 
0.0215579 -0.0168369 0.999628 
0.0223804 -0.0122876 0.999676 
0.0225612 -0.00909333 0.999706 
0.0223531 -0.00666081 0.99973 
0.0227898 -0.00499559 0.99973 
0.0229905 -0.00403742 0.99973 
0.023173 -0.00343438 0.999728 
0.0232864 -0.00298493 0.999727 
0.0234054 -0.0024935 0.999725 
0.0237992 -0.00196983 0.999717 
0.0238826 -0.00143357 0.999716 
0.0235465 -0.000780464 0.999725 
0.0233826 0.000106003 0.999729 
0.0231401 0.00151478 0.999733 
0.0226268 0.00366723 0.999739 
0.0221558 0.00678534 0.999734 
0.0212946 0.0109618 0.999715 
0.0213446 0.01573 0.999651 
0.0198716 0.0228502 0.999543 
0.0192624 0.0312702 0.999327 
0.0182521 0.0419421 0.998955 
0.0169419 0.0579271 0.998179 
0.0146203 0.0785261 0.996807 
0.0115287 0.111688 0.993679 
0.00791774 0.158047 0.987403 
0.00506114 0.219625 0.975574 
0.00237739 0.297873 0.954606 
0.000396848 0.393639 0.919267 
-0.00137978 0.505287 0.862952 
-0.00153208 0.654902 0.755714 
-0.00125345 0.798856 0.601522 
-0.000528907 0.980813 0.194944 
3.83684e-05 0.997857 -0.0654409 
-0.00148426 0.945578 -0.325394 
0.000548309 0.958901 -0.283721 
-0.000987723 0.759307 -0.650738 
0.000490516 0.595494 -0.803363 
0.000238433 0.446183 -0.894944 
-0.00195553 0.327929 -0.944703 
-0.00453629 0.240698 -0.970593 
-0.00822857 0.177966 -0.984005 
-0.0101616 0.134284 -0.990893 
-0.0130868 0.0965049 -0.995249 
-0.0151377 0.0706969 -0.997385 
-0.016981 0.0492801 -0.998643 
-0.0183676 0.0356623 -0.999197 
-0.0195707 0.0256918 -0.99948 
-0.0203539 0.0181104 -0.999631 
-0.0213606 0.0123023 -0.999698 
-0.0220635 0.00795003 -0.999727 
-0.022729 0.0046219 -0.999733 
-0.0229971 0.00220299 -0.999735 
-0.023394 0.00049151 -0.999728 
-0.0229552 -0.000539646 -0.999739 
-0.0237237 -0.0012743 -0.99972 
-0.0239304 -0.00183627 -0.999714 
-0.0231714 -0.00239646 -0.999731 
-0.0232957 -0.00288913 -0.999727 
-0.0230283 -0.00335977 -0.999731 
-0.0227255 -0.00388884 -0.999736 
-0.0227944 -0.00472276 -0.999732 
-0.0222739 -0.00617231 -0.999735 
-0.0235224 -0.0083845 -0.99969 
-0.0224349 -0.0115612 -0.999684 
-0.0208754 -0.0158616 -0.999659 
-0.0214902 -0.0212074 -0.999547 
-0.0194791 -0.0282311 -0.999414 
-0.0196261 -0.0341298 -0.999227 
-0.0169065 -0.0402687 -0.999048 
-0.013986 -0.0444003 -0.998918 
-0.0110488 -0.0331125 -0.999394 
-0.00205941 -0.00335224 -0.999987 
0.00168587 -0.00340823 0.999988 
0.00793008 -0.0345424 0.999375 
0.0111249 -0.0454482 0.998907 
0.012237 -0.0407363 0.999097 
0.0136573 -0.0347653 0.999305 
0.0147622 -0.0282799 0.999493 
0.015853 -0.02149 0.999646 
0.0164382 -0.0156625 0.999745 
0.0166114 -0.0115 0.999798 
0.0168031 -0.00834814 0.999826 
0.0167885 -0.0059717 0.999843 
0.0166711 -0.00460006 0.999853 
0.0169288 -0.00380416 0.999852 
0.0170287 -0.00329839 0.999852 
0.0172462 -0.00281807 0.999849 
0.0171229 -0.00227447 0.999853 
0.0172495 -0.00173149 0.999852 
0.0174492 -0.0011601 0.999849 
0.0170157 -0.000427514 0.999857 
0.0170044 0.000701029 0.999857 
0.0167038 0.00250874 0.99986 
0.0163895 0.00527523 0.999854 
0.0158242 0.00902654 0.999836 
0.0149818 0.0138573 0.999794 
0.0151395 0.0194554 0.999698 
0.0139309 0.0278064 0.999518 
0.0130516 0.0374814 0.999214 
0.0127259 0.0511601 0.998612 
0.0108418 0.0696465 0.997515 
0.00911801 0.0979743 0.99515 
0.00584308 0.142565 0.989771 
0.00323278 0.206293 0.978488 
0.00108387 0.289635 0.957139 
-0.000856726 0.403041 0.915184 
-0.00189495 0.573742 0.819038 
-0.0019254 0.713191 0.700967 
-0.000722729 0.888161 0.459566 
0.00385117 0.977638 0.210278 
-0.00083992 0.931557 0.363593 
0.000905066 0.990213 0.139549 
-0.00215191 0.991298 -0.131585 
-0.0037351 0.937564 -0.347783 
-0.000388634 0.838633 -0.544699 
5.32364e-05 0.616704 -0.787197 
0.000411586 0.488477 -0.872579 
-0.000143339 0.354412 -0.935092 
-0.00180763 0.258915 -0.965902 
-0.00454545 0.183427 -0.983027 
-0.0070084 0.128531 -0.991683 
-0.00911334 0.0934458 -0.995585 
-0.0115553 0.0653769 -0.997796 
-0.012187 0.0473905 -0.998805 
-0.0132705 0.0343985 -0.999322 
-0.0142156 0.0247606 -0.999594 
-0.0148443 0.0174489 -0.99974 
-0.0154139 0.0119635 -0.999812 
-0.015936 0.00767546 -0.999846 
-0.0164512 0.00440756 -0.999857 
-0.0169934 0.00189875 -0.999856 
-0.0168912 0.000346172 -0.999859 
-0.0171529 -0.000726928 -0.999855 
-0.0172549 -0.00136258 -0.999852 
-0.0176697 -0.00192516 -0.999844 
-0.0167229 -0.00248416 -0.999859 
-0.0170446 -0.00299743 -0.999852 
-0.016475 -0.00346316 -0.99986 
-0.0164479 -0.00405548 -0.999859 
-0.0166226 -0.00498585 -0.999851 
-0.0158326 -0.00645592 -0.999856 
-0.0177013 -0.00854382 -0.999809 
-0.0166801 -0.0117473 -0.999794 
-0.0156436 -0.0165147 -0.999744 
-0.0162194 -0.022493 -0.999618 
-0.0144825 -0.0297745 -0.999454 
-0.0148107 -0.035883 -0.999249 
-0.0122707 -0.0417693 -0.999054 
-0.00994045 -0.0455931 -0.998913 
-0.00787637 -0.0332131 -0.99942 
-0.00144929 -0.00332645 -0.999988 
0.000960923 -0.00343744 0.999988 
0.0052599 -0.0332917 0.999434 
0.00752153 -0.0460494 0.998913 
0.00848905 -0.0430196 0.999041 
0.00952503 -0.0370251 0.999271 
0.0103399 -0.0303853 0.999487 
0.0111312 -0.023448 0.999665 
0.0117274 -0.0174087 0.999782 
0.0116347 -0.0126348 0.999855 
0.0117911 -0.00912554 0.999891 
0.0121095 -0.00657953 0.999907 
0.011603 -0.00488651 0.999923 
0.0117468 -0.00400171 0.999925 
0.0117638 -0.00347272 0.999927 
0.011942 -0.00299764 0.999926 
0.0118607 -0.00246044 0.999929 
0.0116644 -0.00188897 0.999932 
0.0119085 -0.00133556 0.99993 
0.0117339 -0.00068012 0.999933 
0.0116356 0.000375449 0.999934 
0.0114641 0.00207021 0.999934 
0.0113671 0.00468271 0.999927 
0.0109241 0.00835991 0.999907 
0.0102794 0.0130371 0.999864 
0.00999873 0.01897 0.999772 
0.00991786 0.0262977 0.999607 
0.00855987 0.036393 0.999303 
0.00863812 0.0492257 0.998752 
0.00710579 0.0667987 0.997744 
0.00617508 0.0928855 0.99566 
0.00417013 0.131188 0.991352 
0.00189073 0.198024 0.980198 
0.000479008 0.284021 0.958822 
-0.000827734 0.397246 0.917714 
-0.00240899 0.627529 0.778596 
-0.000984315 0.78283 0.622234 
0.00135625 0.880261 0.474508 
0.00667899 0.992703 0.120391 
0.00526616 0.996074 0.0883628 
0.00323063 0.998776 0.0493538 
0.00290963 0.998752 0.049856 
-0.00219777 0.993459 -0.114189 
0.000455603 0.813752 -0.581215 
0.000930785 0.667469 -0.74464 
0.00123874 0.491537 -0.870858 
0.000609182 0.389203 -0.921154 
-0.000131081 0.281799 -0.959476 
-0.00196453 0.198398 -0.980123 
-0.00392233 0.140717 -0.990045 
-0.00542093 0.0985574 -0.995119 
-0.00745722 0.0715045 -0.997415 
-0.00796349 0.0521428 -0.99861 
-0.00863056 0.0378482 -0.999248 
-0.00937154 0.0275774 -0.999578 
-0.00990024 0.0199086 -0.999755 
-0.0102736 0.0139021 -0.999853 
-0.0106206 0.00915212 -0.999904 
-0.0109081 0.00540955 -0.999928 
-0.0117071 0.00266708 -0.99993 
-0.0113736 0.0007637 -0.999937 
-0.0121987 -0.000454972 -0.999927 
-0.0117179 -0.0012178 -0.999933 
-0.0120964 -0.00178889 -0.999927 
-0.011692 -0.0023369 -0.999931 
-0.0117444 -0.00291812 -0.999929 
-0.0113538 -0.00339377 -0.999932 
-0.0113933 -0.00393066 -0.99993 
-0.0112394 -0.00478358 -0.999928 
-0.011152 -0.00641311 -0.999919 
-0.0123088 -0.00901928 -0.999886 
-0.0119668 -0.0127881 -0.999849 
-0.0108573 -0.0176328 -0.999788 
-0.0118017 -0.0231785 -0.999664 
-0.0102505 -0.0301037 -0.999497 