# vtk DataFile Version 3.0 
Exported using Morpho https://github.com/Morpho-lang/morpho 
ASCII 
DATASET UNSTRUCTURED_GRID 

POINTS 1978 float 
-12 -4 2.26794e-13 
-11.5978 -4 5.77765e-13 
-11.2936 -4 -2.52586e-13 
-10.9429 -4 1.47697e-13 
-10.6267 -4 5.96526e-14 
-10.2803 -4 1.17732e-13 
-9.95942 -4 5.78123e-14 
-9.64764 -4 8.36714e-14 
-9.31307 -4 4.40355e-14 
-8.99684 -4 5.95507e-16 
-8.68338 -4 1.81743e-14 
-8.36796 -4 3.48706e-15 
-8.06216 -4 -3.80774e-15 
-7.76672 -4 -6.39688e-15 
-7.48206 -4 -1.57496e-14 
-7.18882 -4 6.21011e-15 
-6.89181 -4 -8.06313e-15 
-6.59551 -4 -1.3906e-14 
-6.29465 -4 -1.2781e-14 
-5.98766 -4 -1.82729e-14 
-5.6875 -4 -2.16826e-14 
-5.38334 -4 -2.72685e-14 
-5.08402 -4 -2.83388e-14 
-4.78925 -4 -6.96872e-14 
-4.46004 -4 -6.67703e-14 
-4.17259 -4 -5.82816e-14 
-3.86865 -4 -1.6664e-13 
-3.54959 -4 -1.92544e-13 
-3.25229 -4 -2.36643e-13 
-2.95568 -4 -3.70589e-13 
-2.66508 -4 -4.00483e-13 
-2.39323 -4 -3.43527e-13 
-2.1284 -4 -4.67089e-13 
-1.83868 -4 -5.71249e-13 
-1.5634 -4 8.42259e-14 
-1.2762 -4 5.86696e-13 
-0.996534 -4 2.15608e-12 
-0.681293 -4 2.20033e-12 
-0.384353 -4 6.13567e-12 
0.00304635 -4 -2.64377e-12 
0.369389 -4 -4.53623e-12 
0.687829 -4 -2.53172e-12 
0.986422 -4 -1.57244e-12 
1.25438 -4 -6.44117e-13 
1.5154 -4 5.31355e-13 
1.78619 -4 6.09734e-13 
2.06887 -4 5.08844e-13 
2.35415 -4 7.92344e-13 
2.67687 -4 4.80035e-13 
2.97576 -4 4.46621e-13 
3.29743 -4 2.43279e-13 
3.58675 -4 1.38553e-13 
3.8893 -4 1.51989e-13 
4.1995 -4 8.45427e-14 
4.49741 -4 4.90305e-14 
4.79672 -4 5.20112e-14 
5.10531 -4 4.23582e-14 
5.41162 -4 2.23182e-14 
5.71872 -4 2.21489e-14 
6.01224 -4 1.59524e-14 
6.30513 -4 1.46064e-14 
6.6022 -4 1.52593e-14 
6.90057 -4 -2.04274e-15 
7.17564 -4 2.40324e-14 
7.47663 -4 -1.07453e-14 
7.77039 -4 2.81306e-14 
8.06806 -4 2.45326e-15 
8.35909 -4 7.42173e-16 
8.65866 -4 9.05837e-15 
8.93241 -4 -1.21621e-14 
9.27912 -4 -6.9502e-14 
9.60575 -4 -3.34857e-14 
9.89466 -4 -8.41678e-14 
10.2619 -4 -1.15739e-13 
10.5747 -4 -1.32822e-13 
10.9735 -4 -2.34398e-13 
11.2928 -4 3.94779e-13 
11.5867 -4 -6.49992e-13 
12 -4 -2.59524e-13 
-12 -3.59725 -3.68446e-13 
-11.7153 -3.71539 -1.21116e-13 
-11.3632 -3.62723 -1.32256e-13 
-11.046 -3.67552 -1.35621e-13 
-10.7091 -3.64397 -1.17752e-13 
-10.3907 -3.67772 -9.63686e-14 
-10.0548 -3.6627 -8.01265e-14 
-9.73244 -3.66253 -6.34478e-14 
-9.40308 -3.68514 -4.60435e-14 
-9.0674 -3.66704 -3.4181e-14 
-8.74701 -3.6653 -2.63647e-14 
-8.43048 -3.67046 -2.15824e-14 
-8.11423 -3.66525 -1.73833e-14 
-7.80488 -3.65973 -1.61124e-14 
-7.50467 -3.65334 -1.33993e-14 
-7.20683 -3.66691 -1.11054e-14 
-6.89979 -3.66737 -9.25305e-15 
-6.59125 -3.66244 -7.18496e-15 
-6.27838 -3.67359 -3.64414e-15 
-5.9694 -3.66632 5.94567e-16 
-5.65946 -3.66826 6.99299e-15 
-5.35427 -3.66156 1.55351e-14 
-5.05736 -3.65554 2.89751e-14 
-4.73484 -3.69084 4.29805e-14 
-4.44211 -3.65267 6.86156e-14 
-4.13818 -3.67425 9.25654e-14 
-3.82288 -3.69287 1.2605e-13 
-3.51729 -3.68054 1.77998e-13 
-3.21397 -3.6828 2.23136e-13 
-2.91856 -3.67397 2.45402e-13 
-2.63814 -3.65878 3.06894e-13 
-2.3642 -3.66111 3.61427e-13 
-2.0801 -3.68415 2.03188e-13 
-1.78884 -3.69363 2.66775e-13 
-1.50162 -3.685 6.28192e-14 
-1.21389 -3.6656 -2.43449e-14 
-0.902952 -3.65903 -2.3394e-14 
-0.593395 -3.61411 7.41457e-13 
-0.268029 -3.68483 -8.92491e-13 
0.00441437 -3.55491 -1.24833e-12 
0.289857 -3.67699 1.83595e-12 
0.639497 -3.60445 -5.41184e-13 
0.954614 -3.65504 4.71362e-14 
1.25285 -3.64676 7.87307e-14 
1.52945 -3.65769 -2.45693e-14 
1.82076 -3.68841 -2.07246e-13 
2.11309 -3.69318 -2.58867e-13 
2.42378 -3.71837 -3.32031e-13 
2.71914 -3.68701 -2.77134e-13 
3.03091 -3.70522 -2.61516e-13 
3.3251 -3.66123 -2.03163e-13 
3.62453 -3.67362 -1.57727e-13 
3.93208 -3.67859 -1.19024e-13 
4.23093 -3.66261 -8.75513e-14 
4.53053 -3.6625 -5.96942e-14 
4.83853 -3.67178 -3.93623e-14 
5.14919 -3.67078 -2.48141e-14 
5.45966 -3.67185 -1.36886e-14 
5.76219 -3.65786 -6.0301e-15 
6.06105 -3.66011 8.63611e-16 
6.36085 -3.66245 4.86858e-15 
6.66594 -3.66737 7.45982e-15 
6.95093 -3.63895 1.00827e-14 
7.25125 -3.669 1.32743e-14 
7.55081 -3.65928 1.37257e-14 
7.85361 -3.66316 1.62809e-14 
8.15099 -3.65473 1.86196e-14 
8.44865 -3.66633 2.29141e-14 
8.73565 -3.63008 2.8174e-14 
9.05525 -3.70494 3.66669e-14 
9.38698 -3.68007 4.38177e-14 
9.69212 -3.63243 6.0264e-14 
10.0256 -3.70803 7.94777e-14 
10.352 -3.65181 9.33323e-14 
10.7174 -3.72243 1.24682e-13 
11.0532 -3.64877 1.32058e-13 
11.3576 -3.6155 1.25867e-13 
11.7123 -3.7255 1.23909e-13 
12 -3.60164 3.79748e-13 
-12 -3.29381 -3.47962e-13 
-11.6317 -3.36461 -6.02761e-14 
-11.287 -3.28457 -5.52518e-14 
-10.9737 -3.33063 -8.93095e-14 
-10.6562 -3.29405 -7.69616e-14 
-10.3364 -3.34388 -6.6797e-14 
-10.0129 -3.3256 -5.53241e-14 
-9.69512 -3.32345 -4.66745e-14 
-9.38618 -3.36451 -3.91415e-14 
-9.06968 -3.33447 -2.86573e-14 
-8.77246 -3.31299 -2.11692e-14 
-8.47367 -3.33534 -1.72939e-14 
-8.16608 -3.3343 -1.39816e-14 
-7.8576 -3.32763 -9.49321e-15 
-7.55461 -3.31408 -8.40031e-15 
-7.25451 -3.32682 -7.05126e-15 
-6.95505 -3.34054 -6.10468e-15 
-6.64607 -3.33588 -4.11177e-15 
-6.33529 -3.34743 -1.34776e-15 
-6.02657 -3.33827 2.28327e-15 
-5.71637 -3.33804 7.67869e-15 
-5.40903 -3.32905 1.47361e-14 
-5.10445 -3.31285 2.34386e-14 
-4.80226 -3.36782 3.61205e-14 
-4.50049 -3.3178 5.09066e-14 
-4.19895 -3.34397 7.12857e-14 
-3.89379 -3.37508 1.0048e-13 
-3.58853 -3.36819 1.37161e-13 
-3.27826 -3.36934 1.54608e-13 
-2.97042 -3.35399 2.27017e-13 
-2.66764 -3.32393 2.48207e-13 
-2.37783 -3.32017 2.57797e-13 
-2.09896 -3.35568 1.95853e-13 
-1.80455 -3.38661 1.65178e-13 
-1.5046 -3.35907 -2.88594e-14 
-1.18419 -3.34752 -1.74299e-13 
-0.853852 -3.29685 -5.88234e-14 
-0.605645 -3.13595 8.5674e-13 
-0.344404 -3.28344 -1.74194e-12 
0.00659139 -3.18616 1.12566e-12 
0.349002 -3.29844 8.37555e-13 
0.592108 -3.10569 9.08308e-13 
0.880252 -3.30018 3.48159e-13 
1.20467 -3.29692 2.05143e-13 
1.50559 -3.31325 3.83065e-14 
1.79301 -3.36761 -1.31611e-13 
2.0827 -3.38317 -2.41772e-13 
2.37882 -3.41882 -2.70274e-13 
2.67708 -3.3736 -2.63089e-13 
2.97781 -3.39485 -2.13575e-13 
3.26952 -3.33597 -1.57329e-13 
3.57234 -3.34317 -1.23117e-13 
3.87245 -3.3546 -9.79029e-14 
4.17397 -3.33136 -6.94925e-14 
4.47532 -3.32617 -5.01874e-14 
4.77678 -3.34029 -3.65689e-14 
5.08198 -3.34502 -2.5406e-14 
5.39308 -3.34419 -1.50557e-14 
5.69932 -3.32801 -7.69455e-15 
6.00923 -3.32136 -2.83435e-15 
6.30779 -3.32533 6.57086e-16 
6.6113 -3.33816 4.06138e-15 
6.91141 -3.29164 5.07595e-15 
7.20833 -3.3316 6.73272e-15 
7.50919 -3.32356 8.36177e-15 
7.81254 -3.3306 1.09293e-14 
8.11876 -3.31571 1.27126e-14 
8.41957 -3.32139 1.57189e-14 
8.74268 -3.31215 2.16953e-14 
9.06699 -3.38795 2.95044e-14 
9.38044 -3.34163 3.82859e-14 
9.68861 -3.28656 4.84528e-14 
10.0006 -3.38063 6.28465e-14 
10.3066 -3.30429 6.85023e-14 
10.6337 -3.4056 8.45994e-14 
10.9661 -3.33268 9.54206e-14 
11.2978 -3.25482 4.41722e-14 
11.6324 -3.37494 6.46419e-14 
12 -3.29003 3.35483e-13 
-12 -2.96576 -3.5785e-13 
-11.6618 -3.04931 -1.87466e-14 
-11.3193 -2.96589 2.47879e-14 
-10.9719 -2.97627 -9.18305e-15 
-10.6306 -2.96735 -7.15608e-15 
-10.2986 -3.00467 -1.30757e-14 
-9.97227 -2.9904 -1.47489e-14 
-9.65124 -2.98577 -2.02923e-14 
-9.34743 -3.02673 -1.56048e-14 
-9.04426 -2.98219 -1.07097e-14 
-8.73976 -2.96876 -8.13305e-15 
-8.43803 -2.99673 -7.27838e-15 
-8.13103 -2.99988 -4.90188e-15 
-7.83023 -2.98995 -3.39937e-15 
-7.5271 -2.97937 -1.02959e-15 
-7.2276 -2.99239 -1.13441e-15 
-6.92231 -3.0151 -4.98375e-16 
-6.61392 -3.01102 1.07713e-16 
-6.31005 -3.01733 1.50612e-15 
-6.00241 -3.00969 3.93311e-15 
-5.69741 -3.00577 6.75078e-15 
-5.3922 -2.99633 1.02007e-14 
-5.09029 -2.97914 1.20563e-14 
-4.79195 -3.03453 1.97512e-14 
-4.49015 -2.98753 1.97759e-14 
-4.1921 -3.01616 2.85846e-14 
-3.89363 -3.0528 4.26622e-14 
-3.58811 -3.04821 5.1893e-14 
-3.28552 -3.05486 8.13314e-14 
-2.97158 -3.03489 7.43526e-14 
-2.67937 -2.9869 6.03354e-14 
-2.38494 -2.98484 1.70046e-15 
-2.08689 -3.00072 2.18041e-13 
-1.80365 -3.06797 -1.76904e-13 
-1.48657 -3.03612 -1.83556e-13 
-1.14413 -3.02295 5.18024e-13 
-0.911749 -2.82886 -1.62336e-12 
-0.55171 -2.7699 -1.83701e-12 
-0.184405 -2.86527 1.06645e-12 
0.0463294 -2.51504 -4.03436e-12 
0.236834 -2.86844 3.90012e-12 
0.491376 -2.62918 -2.65595e-12 
0.838279 -2.8758 -1.14532e-13 
1.13901 -2.94598 -1.18282e-13 
1.47101 -2.96179 -6.3614e-14 
1.77723 -3.0256 -1.19579e-13 
2.07406 -3.05369 -2.18218e-14 
2.36577 -3.10232 -1.29051e-13 
2.66145 -3.04579 -1.0829e-13 
2.95535 -3.07369 -6.37585e-14 
3.25354 -3.00868 -5.93049e-14 
3.55748 -3.02036 -4.52414e-14 
3.86507 -3.02568 -3.99303e-14 
4.16537 -3.00276 -2.84955e-14 
4.46742 -2.99618 -2.03381e-14 
4.7694 -3.0066 -1.57816e-14 
5.06926 -3.01358 -1.25284e-14 
5.37094 -3.01908 -9.31141e-15 
5.67951 -2.99763 -6.15478e-15 
5.98487 -2.99811 -3.77571e-15 
6.29816 -2.98387 -1.58572e-15 
6.59397 -3.00533 4.19005e-16 
6.91604 -2.9772 8.1177e-16 
7.23376 -2.99566 1.23039e-15 
7.53486 -2.98862 2.10219e-15 
7.83981 -2.99922 3.23795e-15 
8.13887 -2.97715 4.94587e-15 
8.44843 -3.00065 6.6844e-15 
8.74935 -2.97032 7.10703e-15 
9.05045 -3.06167 1.17713e-14 
9.35533 -3.00434 1.36992e-14 
9.66128 -2.94618 1.11436e-14 
9.98562 -3.03153 1.78134e-14 
10.3197 -2.9757 5.87757e-15 
10.6499 -3.07224 3.19049e-14 
10.9837 -2.99341 1.04216e-14 
11.3358 -2.93233 -3.11157e-14 
11.6687 -3.05403 1.76846e-14 
12 -2.94769 3.94549e-13 
-12 -2.6516 -2.93404e-13 
-11.6496 -2.72061 3.47733e-15 
-11.3087 -2.63918 4.22278e-14 
-10.9698 -2.65315 -4.80296e-15 
-10.6348 -2.63943 -1.35518e-16 
-10.3002 -2.67293 -3.41929e-15 
-9.96934 -2.66214 -1.31585e-14 
-9.63938 -2.66417 -1.1428e-14 
-9.31221 -2.68013 -9.03301e-15 
-8.99595 -2.64348 -7.56779e-15 
-8.684 -2.63443 -5.89375e-15 
-8.37502 -2.66718 -4.54615e-15 
-8.07053 -2.6617 -3.39964e-15 
-7.76104 -2.65948 -1.9648e-15 
-7.4506 -2.65119 -9.19763e-16 
-7.14346 -2.67157 -4.96599e-16 
-6.83896 -2.69022 -6.44147e-16 
-6.53059 -2.68162 1.60976e-16 
-6.22634 -2.68655 1.82825e-15 
[...]
POINT_DATA 1978 
VECTORS vectors float
-0.000412521 -0.000948577 0.999999 
-0.000473037 -0.0472718 0.998882 
-0.000372166 -0.04782 0.998856 
-0.000185254 -0.0391686 0.999233 
-0.000227718 -0.0307234 0.999528 
-0.000210955 -0.0217521 0.999763 
-0.000164215 -0.0155028 0.99988 
-0.000190655 -0.0113038 0.999936 
-0.000199117 -0.00831655 0.999965 
-0.000164206 -0.00646455 0.999979 
-0.000165022 -0.00521289 0.999986 
-0.000150002 -0.00441441 0.99999 
-0.000116165 -0.00392664 0.999992 
-8.11331e-05 -0.00353689 0.999994 
-7.11334e-05 -0.00317435 0.999995 
-0.000103159 -0.00284077 0.999996 
-9.79323e-05 -0.00262009 0.999997 
-0.000109731 -0.00221931 0.999998 
-0.000131093 -0.00165604 0.999999 
-0.000122694 -0.000857911 1 
-0.000123523 0.000243123 1 
-0.000119442 0.00181715 0.999998 
-0.000102089 0.00404963 0.999992 
-0.000150326 0.00703878 0.999975 
-0.000142946 0.0119109 0.999929 
-8.89163e-05 0.0176286 0.999845 
-0.000146255 0.0259399 0.999663 
-0.000128729 0.0382519 0.999268 
-8.32516e-05 0.0538298 0.99855 
-7.29972e-05 0.0753762 0.997155 
-3.93718e-05 0.104614 0.994513 
1.37525e-05 0.141776 0.989899 
-2.20477e-05 0.190379 0.981711 
-1.00151e-05 0.26348 0.964665 
-2.34816e-07 0.352708 0.935733 
-1.02045e-05 0.471959 0.88162 
3.01363e-05 0.610271 0.792193 
-2.02609e-06 0.778008 0.628254 
3.36878e-05 0.918889 0.394516 
-6.34974e-06 0.999998 -0.00197963 
-2.70661e-05 0.922971 -0.384869 
-1.03258e-05 0.770635 -0.637277 
-1.76285e-05 0.611395 -0.791325 
2.28169e-06 0.48101 -0.876715 
5.11954e-06 0.370151 -0.928972 
1.55226e-06 0.277009 -0.960867 
3.29457e-05 0.203494 -0.979076 
7.19201e-05 0.148402 -0.988927 
0.000115839 0.103735 -0.994605 
0.000110505 0.0739628 -0.997261 
0.00012395 0.051282 -0.998684 
8.15108e-05 0.0365151 -0.999333 
0.000130557 0.0254473 -0.999676 
0.000120587 0.017163 -0.999853 
0.000104327 0.0113158 -0.999936 
0.000126898 0.0070695 -0.999975 
0.000137662 0.00389992 -0.999992 
0.000135243 0.00165062 -0.999999 
0.000117229 7.71233e-05 -1 
8.82235e-05 -0.000944338 -1 
9.75059e-05 -0.00161556 -0.999999 
0.000105335 -0.0021913 -0.999998 
6.91046e-05 -0.00266849 -0.999996 
6.9552e-05 -0.00295064 -0.999996 
0.000108445 -0.00331974 -0.999994 
9.66987e-05 -0.00379619 -0.999993 
9.19068e-05 -0.00427093 -0.999991 
0.000102504 -0.0047657 -0.999989 
6.52531e-05 -0.00539178 -0.999985 
0.000145324 -0.0062316 -0.999981 
0.00024515 -0.00808477 -0.999967 
0.000128135 -0.0108922 -0.999941 
0.000210668 -0.0145028 -0.999895 
0.000229309 -0.0214038 -0.999771 
0.000295083 -0.0290375 -0.999578 
0.000280656 -0.0401688 -0.999193 
0.00027956 -0.0479588 -0.998849 
0.000478032 -0.0474991 -0.998871 
0.000429889 -0.000953848 -0.999999 
-4.76705e-05 -7.70597e-05 1 
0.0132191 -0.0309539 0.999433 
0.0216845 -0.0433138 0.998826 
0.0213606 -0.040053 0.998969 
0.0231607 -0.03194 0.999221 
0.022593 -0.0246629 0.99944 
0.0241899 -0.0179305 0.999547 
0.0251465 -0.0129996 0.999599 
0.0247035 -0.00948836 0.99965 
0.0258705 -0.0070909 0.99964 
0.0262858 -0.00555141 0.999639 
0.0264917 -0.00455615 0.999639 
0.0270145 -0.00391623 0.999627 
0.0277002 -0.00343818 0.99961 
0.0282973 -0.00308231 0.999595 
0.0276405 -0.00276772 0.999614 
0.0272074 -0.00237563 0.999627 
0.0275198 -0.00193271 0.999619 
0.0270346 -0.0013387 0.999634 
0.0273286 -0.000460862 0.999626 
0.0269867 0.000789482 0.999635 
0.0272033 0.00257568 0.999627 
0.0270216 0.00499079 0.999622 
0.0248556 0.00861621 0.999654 
0.0266359 0.0134919 0.999554 
0.0245791 0.0199097 0.9995 
0.0228316 0.029194 0.999313 
0.0225229 0.0419414 0.998866 
0.0207071 0.0590606 0.99804 
0.01887 0.0827734 0.99639 
0.0170499 0.113409 0.993402 
0.0141596 0.154234 0.987933 
0.00965418 0.211127 0.977411 
0.00620661 0.288464 0.957471 
0.00219968 0.384791 0.923001 
-0.001392 0.504161 0.863608 
-0.00385914 0.654176 0.756333 
-0.00480633 0.812952 0.582311 
-0.00287646 0.95299 0.302989 
-0.000385271 0.99994 -0.0109602 
0.00256628 0.944961 -0.327173 
0.00414372 0.799034 -0.601271 
0.00325867 0.633638 -0.773623 
0.000661878 0.488685 -0.87246 
-0.00296739 0.369732 -0.929134 
-0.00694372 0.273434 -0.961866 
-0.0106342 0.200993 -0.979535 
-0.0135145 0.142338 -0.989726 
-0.0169623 0.102902 -0.994547 
-0.018855 0.0729804 -0.997155 
-0.0218428 0.0523171 -0.998392 
-0.022789 0.0371401 -0.99905 
-0.0237681 0.025782 -0.999385 
-0.0253442 0.0177718 -0.999521 
-0.0258736 0.0118522 -0.999595 
-0.0258719 0.00736332 -0.999638 
-0.0264054 0.0041085 -0.999643 
-0.0267617 0.00180599 -0.99964 
-0.0278901 0.000272419 -0.999611 
-0.0280212 -0.000754741 -0.999607 
-0.0278016 -0.00149247 -0.999612 
-0.0280598 -0.00210132 -0.999604 
-0.0294584 -0.00249526 -0.999563 
-0.0276534 -0.00287135 -0.999613 
-0.0280325 -0.00329815 -0.999602 
-0.0278166 -0.00374672 -0.999606 
-0.0280939 -0.00423302 -0.999596 
-0.0276564 -0.00488157 -0.999606 
-0.0288792 -0.005668 -0.999567 
-0.0245285 -0.00700169 -0.999675 
-0.0251152 -0.00938643 -0.99964 
-0.0265854 -0.0125465 -0.999568 
-0.0222431 -0.0172376 -0.999604 
-0.0235626 -0.023655 -0.999442 
-0.0199029 -0.0322405 -0.999282 
-0.0224391 -0.0400383 -0.998946 
-0.0219276 -0.0431691 -0.998827 
-0.0129784 -0.0314085 -0.999422 
9.17792e-05 -7.24726e-05 -1 
0.000353426 -0.000577763 1 
0.0209933 -0.0337924 0.999208 
0.0274414 -0.0420814 0.998737 
0.0290076 -0.0374384 0.998878 
0.0301344 -0.0307569 0.999073 
0.0312674 -0.0244079 0.999213 
0.0326846 -0.0183506 0.999297 
0.0339643 -0.0134335 0.999333 
0.0343027 -0.00979649 0.999363 
0.0354454 -0.00743598 0.999344 
0.0361802 -0.00586907 0.999328 
0.0361409 -0.00469791 0.999336 
0.0364568 -0.00395515 0.999327 
0.0364814 -0.00345715 0.999328 
0.0367887 -0.00304596 0.999318 
0.0367166 -0.00266975 0.999322 
0.0369511 -0.0022938 0.999314 
0.0370726 -0.00182294 0.999311 
0.0368151 -0.0012204 0.999321 
0.0366599 -0.000358405 0.999328 
0.0362434 0.000877848 0.999343 
0.0358396 0.00267776 0.999354 
0.035336 0.00525247 0.999362 
0.0344977 0.00864366 0.999367 
0.0340337 0.0135456 0.999329 
0.0329839 0.019975 0.999256 
0.0316417 0.0287196 0.999087 
0.029916 0.0406583 0.998725 
0.0275991 0.0579824 0.997936 
0.0248826 0.0809563 0.996407 
0.0211928 0.113208 0.993345 
0.0171168 0.155949 0.987617 
0.0128404 0.213768 0.9768 
0.00799636 0.288751 0.957371 
0.00254316 0.390473 0.920611 
-0.00201596 0.521984 0.852953 
-0.00486119 0.678287 0.734781 
-0.00490352 0.823055 0.56794 
-0.00382634 0.945117 0.326711 
-0.00045796 0.999924 -0.0123295 
0.00227589 0.942138 -0.335218 
0.00345367 0.817024 -0.576594 
0.00344566 0.660896 -0.750469 
0.000763029 0.507689 -0.86154 
-0.00339354 0.385522 -0.922692 
-0.00829869 0.288762 -0.957365 
-0.013229 0.213028 -0.976957 
-0.0178795 0.155119 -0.987734 
-0.0216914 0.112141 -0.993455 
-0.0247394 0.0807487 -0.996427 
-0.0274046 0.0593455 -0.997861 
-0.02944 0.0422934 -0.998671 
-0.0312187 0.0299148 -0.999065 
-0.0325966 0.0209142 -0.99925 
-0.0335551 0.0141606 -0.999337 
-0.0345321 0.00918661 -0.999361 
-0.0353924 0.00549856 -0.999358 
-0.0359181 0.00282031 -0.999351 
-0.0364536 0.000996195 -0.999335 
-0.0367968 -0.000281511 -0.999323 
-0.0369594 -0.00113156 -0.999316 
-0.0370217 -0.0017561 -0.999313 
-0.0371245 -0.00221736 -0.999308 
-0.037074 -0.00269141 -0.999309 
-0.0369748 -0.00309193 -0.999311 
-0.0368405 -0.00351291 -0.999315 
-0.0366536 -0.0040174 -0.99932 
-0.0362608 -0.00471252 -0.999331 
-0.0365108 -0.00587081 -0.999316 
-0.0352246 -0.00749044 -0.999351 
-0.0349055 -0.00990726 -0.999342 
-0.03424 -0.0133421 -0.999325 
-0.032361 -0.0177343 -0.999319 
-0.0318465 -0.0237803 -0.99921 
-0.0296407 -0.0303244 -0.999101 
-0.0291235 -0.037233 -0.998882 
-0.0270597 -0.0420347 -0.99875 
-0.0207629 -0.0335117 -0.999223 
-0.000350688 -0.000656287 -1 
0.00020796 -0.000422403 1 
0.0181422 -0.0316484 0.999334 
0.0233589 -0.0419774 0.998845 
0.0255609 -0.0374344 0.998972 
0.0270343 -0.031282 0.999145 
0.0289334 -0.0247562 0.999275 
0.0301065 -0.018611 0.999373 
0.0312896 -0.0135219 0.999419 
0.0327253 -0.0100852 0.999414 
0.032824 -0.00766587 0.999432 
0.0330464 -0.00586751 0.999437 
0.0337706 -0.0046451 0.999419 
0.0339342 -0.0038506 0.999417 
0.0339967 -0.00334394 0.999416 
0.0338434 -0.00294708 0.999423 
0.034441 -0.00256467 0.999403 
0.0347146 -0.0021208 0.999395 
0.0345667 -0.00158465 0.999401 
0.0344396 -0.000940155 0.999406 
0.0341681 -3.09844e-05 0.999416 
0.0338014 0.00131025 0.999428 
0.0332393 0.00330666 0.999442 
0.0324899 0.00619404 0.999453 
0.0323514 0.00979521 0.999429 
0.0308813 0.0152444 0.999407 
0.0300312 0.0218873 0.999309 
0.0290787 0.030682 0.999106 
0.0272664 0.0432505 0.998692 
0.0250413 0.0598083 0.997896 
0.0217463 0.0848157 0.996159 
0.0178763 0.118036 0.992848 
0.0140276 0.163726 0.986406 
0.0103941 0.22245 0.974889 
0.00614063 0.299803 0.953981 
0.0016424 0.40553 0.91408 
-0.00195336 0.547087 0.837074 
-0.00303889 0.676673 0.736278 
-0.00241283 0.841847 0.539711 
-0.00169976 0.96337 0.268169 
0.000233146 0.999959 -0.00909415 
0.00136533 0.95594 -0.293559 
0.00223836 0.846829 -0.531861 
0.00247655 0.683375 -0.730064 
0.000871199 0.530406 -0.847744 
-0.00238048 0.397876 -0.917436 
-0.00652708 0.298648 -0.954341 
-0.0106372 0.221255 -0.975158 
-0.0154456 0.162212 -0.986635 
-0.0187556 0.119052 -0.992711 
-0.0217884 0.0865511 -0.996009 
-0.0238908 0.0634183 -0.997701 
-0.0262148 0.0454549 -0.998622 
-0.0282236 0.0321253 -0.999085 
-0.0295271 0.0227951 -0.999304 
-0.030815 0.0158499 -0.999399 
-0.0319583 0.0104638 -0.999434 
-0.0328783 0.00646919 -0.999438 
-0.0335701 0.00354917 -0.99943 
-0.0337673 0.00148591 -0.999429 
-0.0340713 6.88379e-05 -0.999419 
-0.0341966 -0.000877614 -0.999415 
-0.0344398 -0.0015139 -0.999406 
-0.0342774 -0.00208213 -0.99941 
-0.0343191 -0.00258289 -0.999408 
-0.0342926 -0.00301132 -0.999407 
-0.0343157 -0.00345163 -0.999405 
-0.034054 -0.00399095 -0.999412 
-0.0339512 -0.00480516 -0.999412 
-0.0333484 -0.00606707 -0.999425 
-0.0340265 -0.00778628 -0.999391 
-0.0324634 -0.0103197 -0.99942 
-0.0307188 -0.0140112 -0.99943 
-0.030673 -0.0188185 -0.999352 
-0.0285558 -0.0252653 -0.999273 
-0.0284928 -0.0312062 -0.999107 
-0.0257718 -0.0375877 -0.998961 
-0.0227055 -0.0421115 -0.998855 
-0.0177794 -0.0310833 -0.999359 
-0.000268895 -0.00046433 -1 
0.000207915 -0.000549272 1 
0.0146366 -0.0323449 0.99937 
0.0190104 -0.043473 0.998874 
0.0211782 -0.0380592 0.999051 
0.0227409 -0.0325525 0.999211 
0.0245879 -0.0258728 0.999363 
0.0258771 -0.0194765 0.999475 
0.0270446 -0.014283 0.999532 
0.0279315 -0.0103541 0.999556 
0.028064 -0.00769566 0.999577 
0.0282158 -0.00578359 0.999585 
0.0289754 -0.00451918 0.99957 
0.0290512 -0.0037319 0.999571 
0.0291995 -0.00322099 0.999568 
0.0291747 -0.00279279 0.99957 
0.0296438 -0.0023422 0.999558 
0.0300544 -0.00183579 0.999547 
0.0296912 -0.00124391 0.999558 
0.0296041 -0.000523321 0.999562 
0.0292766 0.00054321 0.999571 
0.0289033 0.00218515 0.99958 
0.0282391 0.00461473 0.999591 
0.0275332 0.00812325 0.999588 
0.0274502 0.0122 0.999549 
0.0258667 0.0184619 0.999495 
0.0251593 0.0259087 0.999348 
0.0242193 0.0355468 0.999074 
0.0223019 0.0490631 0.998547 
0.0203422 0.0681715 0.997466 
0.0170108 0.0941932 0.995409 
0.0133256 0.132644 0.991074 
0.00997284 0.181488 0.983343 
0.00661916 0.243884 0.969782 
0.00337633 0.327768 0.944752 
-0.000114796 0.452371 0.89183 
-0.00148388 0.56708 0.823662 
-0.00141692 0.727209 0.686415 
-0.000151494 0.845694 0.533668 
-0.000382995 0.937579 0.347772 
5.36015e-05 0.997492 0.0707743 
-0.000210744 0.959658 -0.281172 
0.000188192 0.829264 -0.558857 
0.00174067 0.691079 -0.722777 
0.000786105 0.526951 -0.849895 
-0.00144839 0.398502 -0.917166 
-0.00489307 0.292133 -0.956365 
-0.00849118 0.219085 -0.975669 
-0.0126125 0.160678 -0.986926 
-0.0148411 0.119405 -0.992735 
-0.018147 0.0865596 -0.996081 
-0.019976 0.0619181 -0.997881 
-0.0223454 0.0442532 -0.99877 
-0.0240149 0.0319183 -0.999202 
-0.0251911 0.0225847 -0.999428 
-0.0262445 0.0156933 -0.999532 
-0.0274141 0.0104404 -0.99957 
-0.0282284 0.00649804 -0.99958 
-0.0288694 0.00355399 -0.999577 
-0.028968 0.00145924 -0.999579 
-0.0294091 3.24245e-05 -0.999567 
-0.029117 -0.000842815 -0.999576 
-0.0298733 -0.00150132 -0.999553 
-0.0295333 -0.00207574 -0.999562 
-0.0294691 -0.00256013 -0.999562 
-0.0293952 -0.00301178 -0.999563 
-0.0293186 -0.00345199 -0.999564 
-0.0291365 -0.00402189 -0.999567 
-0.0293025 -0.00491812 -0.999558 
-0.0281944 -0.00620423 -0.999583 
-0.0293806 -0.00802534 -0.999536 
-0.0278424 -0.0107991 -0.999554 
-0.0262274 -0.0148845 -0.999545 
-0.0263819 -0.0199351 -0.999453 
-0.0241972 -0.0265537 -0.999354 
-0.0239658 -0.0325045 -0.999184 
-0.021215 -0.0388475 -0.99902 
-0.0181249 -0.0429178 -0.998914 
-0.013896 -0.0310605 -0.999421 
-0.000162385 -0.000477975 -1 
0.000150216 -0.000558557 1 
0.00929544 -0.0277899 0.999571 
0.0141283 -0.0430632 0.998972 
0.0162581 -0.0412805 0.999015 
0.0177004 -0.0356458 0.999208 
0.0193755 -0.029324 0.999382 
0.0206629 -0.0227692 0.999527 
0.021522 -0.0168289 0.999627 
0.0223436 -0.0122832 0.999675 
0.0225235 -0.00909085 0.999705 
0.0223203 -0.00666075 0.999729 
0.0227583 -0.00499664 0.999729 
0.0229576 -0.00403726 0.999728 
0.0231412 -0.00343215 0.999726 
0.0232525 -0.00298084 0.999725 
0.0233714 -0.00248992 0.999724 
0.0237633 -0.00196761 0.999716 
0.023845 -0.00143106 0.999715 
0.0235133 -0.000776553 0.999723 
0.0233479 0.000112256 0.999727 
0.0231056 0.00152297 0.999732 
0.022591 0.00367424 0.999738 
0.0221244 0.00679078 0.999732 
0.0212664 0.0109613 0.999714 
0.0213064 0.0157313 0.999649 
0.0198423 0.0228431 0.999542 
0.0192383 0.0312675 0.999326 
0.0182211 0.0419447 0.998954 
0.0169125 0.0579346 0.998177 
0.0145926 0.078567 0.996802 
0.0114999 0.111741 0.993671 
0.00791114 0.158072 0.987396 
0.00505824 0.219466 0.975607 
0.00236824 0.298038 0.954551 
0.000410335 0.393377 0.919377 
-0.0013492 0.505236 0.86298 
-0.00150694 0.654684 0.755901 
-0.00132418 0.799232 0.601021 
-0.0007097 0.981424 0.191849 
0.000569178 0.998246 -0.0591935 
-0.00140956 0.945861 -0.324569 
0.000395498 0.959138 -0.282937 
-0.00108075 0.761951 -0.647634 
0.000390886 0.59609 -0.802918 
0.000217559 0.446417 -0.894825 
-0.00195809 0.32799 -0.944679 
-0.00453047 0.240796 -0.970565 
-0.00820858 0.178048 -0.983987 
-0.0101405 0.13425 -0.990896 
-0.0130625 0.0964752 -0.99525 
-0.0151161 0.0706957 -0.997383 
-0.0169553 0.0492739 -0.998641 
-0.018339 0.0356604 -0.999196 
-0.019539 0.0256906 -0.999479 
-0.0203293 0.0181074 -0.999629 
-0.0213262 0.0123035 -0.999697 
-0.0220289 0.007952 -0.999726 
-0.0226959 0.0046273 -0.999732 
-0.0229633 0.00221044 -0.999734 
-0.0233563 0.000498188 -0.999727 
-0.022924 -0.00053476 -0.999737 
-0.0236908 -0.00127194 -0.999719 
-0.0238922 -0.0018343 -0.999713 
-0.0231377 -0.00239336 -0.999729 
-0.0232672 -0.00288526 -0.999725 
-0.0229915 -0.00335681 -0.99973 
-0.0227004 -0.00388801 -0.999735 
-0.0227613 -0.0047245 -0.99973 
-0.022241 -0.00617304 -0.999734 
-0.0234828 -0.00838289 -0.999689 
-0.0223974 -0.0115588 -0.999682 
-0.0208408 -0.0158552 -0.999657 
-0.0214522 -0.0211865 -0.999545 
-0.0194452 -0.0281817 -0.999414 
-0.0195883 -0.0340719 -0.999227 
-0.0168755 -0.0401882 -0.99905 
-0.0139419 -0.0441435 -0.998928 
-0.0109571 -0.0328008 -0.999402 
-0.000143446 -0.00047964 -1 
6.39458e-05 -0.000454603 1 
0.00787228 -0.03422 0.999383 
0.0110997 -0.0451903 0.998917 
0.0122258 -0.0406688 0.999098 
0.0136442 -0.034704 0.999304 
0.0147484 -0.0282339 0.999493 
0.015836 -0.021472 0.999644 
0.0164227 -0.0156585 0.999743 
0.0165974 -0.0114989 0.999796 
0.0167882 -0.00834817 0.999824 
0.0167762 -0.00597433 0.999841 
0.016661 -0.00460209 0.999851 
0.0169185 -0.00380313 0.99985 
0.0170188 -0.00329468 0.99985 
0.0172328 -0.00281376 0.999848 
0.0171133 -0.0022716 0.999851 
0.0172378 -0.00172947 0.99985 
0.0174354 -0.001157 0.999847 
0.0170052 -0.000421908 0.999855 
0.0169927 0.000709292 0.999855 
0.0166893 0.0025173 0.999858 
0.0163795 0.00528216 0.999852 
0.0158123 0.00902901 0.999834 
0.0149758 0.0138552 0.999792 
0.0151232 0.0194572 0.999696 
0.013927 0.0278067 0.999516 
0.0130458 0.037481 0.999212 
0.0127137 0.0511622 0.998609 
0.0108346 0.0696702 0.997511 
0.00910171 0.0980036 0.995144 
0.00584 0.142618 0.989761 
0.00323525 0.206228 0.978499 
0.00109617 0.289324 0.95723 
-0.000851674 0.403321 0.915058 
-0.00186573 0.573837 0.818967 
-0.00189304 0.714706 0.699423 
-2.13314e-05 0.890921 0.454159 
0.00355995 0.976238 0.216673 
-0.000692847 0.930189 0.36708 
0.000986945 0.991515 0.129989 
-0.00228053 0.990792 -0.135373 
-0.00316745 0.938777 -0.344511 
-0.000230007 0.837654 -0.546201 
0.00014273 0.617165 -0.786834 
0.000416 0.488258 -0.872699 
-0.000152121 0.354304 -0.93513 
-0.00181569 0.258746 -0.965944 
-0.0045464 0.183422 -0.983024 
-0.0070111 0.128477 -0.991688 
-0.00909317 0.0934742 -0.99558 
-0.0115482 0.0653955 -0.997793 
-0.0121787 0.0473897 -0.998802 
-0.0132602 0.0343976 -0.99932 
-0.0142067 0.0247603 -0.999592 
-0.0148349 0.0174538 -0.999738 
-0.0154047 0.0119667 -0.99981 
-0.0159224 0.00768139 -0.999844 
-0.016439 0.00441626 -0.999855 
-0.0169827 0.00190851 -0.999854 
-0.0168774 0.000354139 -0.999858 
-0.017144 -0.000722113 -0.999853 
-0.0172444 -0.00135977 -0.99985 
-0.0176533 -0.0019229 -0.999842 
-0.016714 -0.00248063 -0.999857 
-0.0170368 -0.00299309 -0.99985 
-0.0164633 -0.00346048 -0.999858 
-0.0164444 -0.00405479 -0.999857 
-0.0166102 -0.00498767 -0.99985 
-0.0158246 -0.00645835 -0.999854 
-0.0176856 -0.00854353 -0.999807 
-0.016665 -0.0117438 -0.999792 
-0.015632 -0.0165075 -0.999742 
-0.016202 -0.0224726 -0.999616 
-0.0144708 -0.0297254 -0.999453 
-0.0147918 -0.0358202 -0.999249 
-0.0122585 -0.0416772 -0.999056 
-0.00991747 -0.0453222 -0.998923 
-0.00781574 -0.0329021 -0.999428 
-0.00014613 -0.000449592 -1 
0.000106331 -0.000435957 1 
0.00521776 -0.0329705 0.999443 
0.00750645 -0.0457705 0.998924 
0.0084826 -0.0429183 0.999043 
0.00952176 -0.0369625 0.999271 
0.0103335 -0.0303351 0.999486 
0.011125 -0.0234224 0.999664 
0.0117206 -0.0173973 0.99978 
0.0116311 -0.012631 0.999853 
0.0117881 -0.00912525 0.999889 
0.0121061 -0.00658099 0.999905 
0.0116021 -0.00488893 0.999921 
0.0117479 -0.00400073 0.999923 
0.0117644 -0.00346844 0.999925 
0.0119413 -0.0029927 0.999924 
0.011862 -0.00245669 0.999927 
0.011666 -0.00188684 0.99993 
0.0119074 -0.00133261 0.999928 
0.0117336 -0.000674409 0.999931 
0.0116363 0.000384257 0.999932 
0.0114614 0.00207993 0.999932 
0.0113684 0.00469143 0.999924 
0.0109227 0.008364 0.999905 
0.0102822 0.0130386 0.999862 
0.00999974 0.0189706 0.99977 
0.009918 0.026297 0.999605 
0.00856194 0.0363898 0.999301 
0.00863612 0.0492209 0.998751 
0.00711485 0.0667975 0.997741 
0.00616953 0.092853 0.995661 
0.00417091 0.131223 0.991344 
0.00189937 0.197854 0.98023 
0.000488684 0.283789 0.958887 
-0.000825906 0.396645 0.917972 
-0.00244153 0.627598 0.778534 
-0.000680085 0.78175 0.623592 
0.000779979 0.88373 0.467996 
0.00668542 0.992827 0.119373 
0.00521828 0.996161 0.0873824 
0.00326582 0.998724 0.0504051 
0.00245391 0.998706 0.05079 
-0.002361 0.993676 -0.112259 
0.000370438 0.814149 -0.580656 
0.000960037 0.66723 -0.744851 
0.00125594 0.491714 -0.870756 
0.000607512 0.388892 -0.921283 
-0.000142009 0.281837 -0.959462 
-0.00197097 0.198311 -0.980137 
-0.00393044 0.140733 -0.99004 
-0.00540889 0.0985877 -0.995114 
-0.00745769 0.0715176 -0.997411 
-0.00796285 0.0521621 -0.998607 
-0.00863321 0.0378452 -0.999246 
-0.00937358 0.02757 -0.999576 
-0.00990128 0.0199016 -0.999753 
-0.0102756 0.0138988 -0.999851 
-0.0106209 0.00915274 -0.999902 
-0.0109083 0.00541448 -0.999926 
-0.0117058 0.00267469 -0.999928 
-0.0113763 0.000772104 -0.999935 
-0.0121979 -0.000449562 -0.999926 
-0.0117144 -0.00121516 -0.999931 
-0.0120974 -0.00178695 -0.999925 
-0.011694 -0.00233396 -0.999929 
-0.0117459 -0.0029136 -0.999927 
-0.0113548 -0.00338964 -0.99993 
-0.0113945 -0.0039301 -0.999927 
-0.0112408 -0.00478597 -0.999925 
-0.0111508 -0.00641582 -0.999917 
-0.0123026 -0.00901958 -0.999884 
-0.0119612 -0.0127861 -0.999847 
-0.0108536 -0.0176249 -0.999786 
-0.0117942 -0.0231564 -0.999662 
-0.0102459 -0.0300543 -0.999496 
-0.0105842 -0.0365206 -0.999277 