# vtk DataFile Version 3.0 
Exported using Morpho https://github.com/Morpho-lang/morpho 
ASCII 
DATASET UNSTRUCTURED_GRID 

POINTS 1978 float 
-12 -4 2.11735e-09 
-11.5978 -4 3.72347e-09 
-11.2936 -4 -4.66298e-09 
-10.9429 -4 -4.14188e-10 
-10.6267 -4 -8.72396e-10 
-10.2803 -4 3.95486e-11 
-9.95934 -4 -2.0397e-10 
-9.6477 -4 2.23579e-10 
-9.31308 -4 -4.04632e-11 
-8.99685 -4 -3.47403e-10 
-8.68338 -4 -1.09834e-10 
-8.36794 -4 -2.14228e-10 
-8.06214 -4 -2.53835e-10 
-7.76668 -4 -2.53129e-10 
-7.48204 -4 -3.22201e-10 
-7.1889 -4 -9.24495e-11 
-6.89176 -4 -2.23654e-10 
-6.5956 -4 -2.60665e-10 
-6.29459 -4 -2.19553e-10 
-5.98765 -4 -2.31296e-10 
-5.68753 -4 -2.02142e-10 
-5.38335 -4 -1.76227e-10 
-5.08404 -4 -7.56721e-11 
-4.78928 -4 -2.92557e-10 
-4.46001 -4 -6.32549e-11 
-4.1726 -4 2.6719e-10 
-3.86866 -4 -3.72381e-10 
-3.54952 -4 -2.07989e-10 
-3.25226 -4 -2.81399e-10 
-2.95573 -4 -1.26507e-09 
-2.66505 -4 -1.43065e-09 
-2.39311 -4 -1.00281e-09 
-2.12851 -4 -2.44983e-09 
-1.83844 -4 -3.9663e-09 
-1.56344 -4 2.365e-09 
-1.27607 -4 7.61418e-09 
-0.996645 -4 2.80106e-08 
-0.681302 -4 3.1215e-08 
-0.384718 -4 8.5056e-08 
0.00315591 -4.00001 -3.36615e-08 
0.369059 -4 -5.91811e-08 
0.688195 -4 -3.6984e-08 
0.986274 -4 -2.04222e-08 
1.25438 -4 -7.4971e-09 
1.51506 -4 5.04212e-09 
1.78631 -4 4.55712e-09 
2.0688 -4 2.7027e-09 
2.35406 -4 4.7851e-09 
2.67683 -4 1.80153e-09 
2.97577 -4 1.74062e-09 
3.29741 -4 3.99927e-10 
3.58679 -4 -1.5045e-10 
3.88929 -4 2.94805e-10 
4.19951 -4 -7.4349e-12 
4.49741 -4 -7.32143e-11 
4.79673 -4 1.45876e-10 
5.10533 -4 2.05667e-10 
5.41162 -4 1.29598e-10 
5.71873 -4 2.13131e-10 
6.01226 -4 2.10221e-10 
6.30509 -4 2.33473e-10 
6.60224 -4 2.73766e-10 
6.90057 -4 1.18896e-10 
7.17563 -4 4.00928e-10 
7.47662 -4 7.58633e-11 
7.7704 -4 4.87175e-10 
8.06804 -4 2.54344e-10 
8.35913 -4 2.6896e-10 
8.65866 -4 3.58595e-10 
8.93239 -4 2.48056e-10 
9.27911 -4 -2.0169e-10 
9.60577 -4 2.05297e-10 
9.89466 -4 -1.63699e-11 
10.2619 -4 -4.36287e-11 
10.5747 -4 3.26393e-10 
10.9735 -4 -2.55096e-10 
11.2928 -4 5.88248e-09 
11.5867 -4 -4.41695e-09 
12 -4 -2.41016e-09 
-12 -3.59723 -3.55642e-09 
-11.7149 -3.71489 -5.71773e-10 
-11.3627 -3.62726 -1.10739e-09 
-11.0456 -3.67573 -1.07382e-09 
-10.709 -3.64447 -1.04133e-09 
-10.391 -3.67833 -8.11776e-10 
-10.0556 -3.66134 -7.01581e-10 
-9.73401 -3.65884 -5.52247e-10 
-9.40536 -3.68629 -4.02707e-10 
-9.06915 -3.66799 -3.02582e-10 
-8.74903 -3.66564 -2.32294e-10 
-8.43185 -3.67028 -1.86768e-10 
-8.1159 -3.66563 -1.5171e-10 
-7.80538 -3.65876 -1.40123e-10 
-7.50546 -3.65275 -1.15747e-10 
-7.20636 -3.6668 -9.17991e-11 
-6.89703 -3.66777 -7.32574e-11 
-6.58851 -3.66454 -5.54916e-11 
-6.27492 -3.67411 -2.61349e-11 
-5.96593 -3.66655 1.19839e-11 
-5.65589 -3.66826 6.91802e-11 
-5.3502 -3.66088 1.44034e-10 
-5.05321 -3.654 2.74956e-10 
-4.73004 -3.68983 3.71762e-10 
-4.43854 -3.64922 6.30546e-10 
-4.13492 -3.67266 8.18937e-10 
-3.81928 -3.69261 1.09812e-09 
-3.51223 -3.67732 1.56748e-09 
-3.21134 -3.68128 1.88517e-09 
-2.91276 -3.67986 2.22659e-09 
-2.63203 -3.66318 2.80858e-09 
-2.35714 -3.66427 3.3575e-09 
-2.07111 -3.69141 1.82025e-09 
-1.78197 -3.69148 2.7693e-09 
-1.50008 -3.69309 4.98314e-10 
-1.21876 -3.66131 -6.90272e-10 
-0.912171 -3.67592 -5.90293e-10 
-0.608299 -3.61065 7.89821e-09 
-0.278469 -3.69032 -1.338e-08 
0.0148478 -3.56059 -1.36323e-08 
0.315049 -3.64588 1.93449e-08 
0.63905 -3.62693 -1.00588e-08 
0.952622 -3.66117 9.88141e-10 
1.24849 -3.66173 6.25971e-10 
1.52648 -3.674 -3.14568e-10 
1.81718 -3.69574 -1.76252e-09 
2.10854 -3.69557 -2.14706e-09 
2.42041 -3.72211 -2.77741e-09 
2.71833 -3.69332 -2.5017e-09 
3.02931 -3.70183 -2.08813e-09 
3.31824 -3.66222 -1.88132e-09 
3.61911 -3.67234 -1.37781e-09 
3.92924 -3.67749 -1.04055e-09 
4.22932 -3.66093 -7.84835e-10 
4.52898 -3.66009 -5.27728e-10 
4.83837 -3.67081 -3.47649e-10 
5.14977 -3.67029 -2.24781e-10 
5.46092 -3.67195 -1.28672e-10 
5.76393 -3.65826 -6.15625e-11 
6.06219 -3.66009 3.43786e-12 
6.36248 -3.66404 4.1246e-11 
6.66676 -3.66677 5.424e-11 
6.95076 -3.63758 8.84742e-11 
7.25111 -3.66843 1.14169e-10 
7.55098 -3.65878 1.14969e-10 
7.85398 -3.6632 1.38068e-10 
8.15217 -3.6552 1.61741e-10 
8.44995 -3.6669 1.91978e-10 
8.73677 -3.6297 2.64914e-10 
9.05566 -3.70471 3.1466e-10 
9.38685 -3.6798 3.68624e-10 
9.69166 -3.63176 5.6375e-10 
10.0248 -3.70753 6.55956e-10 
10.3499 -3.65072 8.20609e-10 
10.7157 -3.72233 9.90661e-10 
11.0512 -3.6485 1.10451e-09 
11.356 -3.61562 1.05411e-09 
11.7113 -3.72488 5.7435e-10 
12 -3.60168 3.67302e-09 
-12 -3.29378 -3.45986e-09 
-11.6312 -3.36418 -5.64059e-10 
-11.2861 -3.28518 -5.82169e-10 
-10.9732 -3.33111 -9.45766e-10 
-10.6567 -3.2947 -8.13729e-10 
-10.3382 -3.34393 -7.05413e-10 
-10.0159 -3.32239 -5.95005e-10 
-9.6962 -3.32118 -5.09365e-10 
-9.38342 -3.36636 -4.02935e-10 
-9.06918 -3.33461 -3.02619e-10 
-8.77243 -3.31269 -2.23732e-10 
-8.47462 -3.33559 -1.83453e-10 
-8.16741 -3.33336 -1.4704e-10 
-7.8606 -3.32775 -1.00925e-10 
-7.55632 -3.31116 -8.75662e-11 
-7.25726 -3.32758 -7.58283e-11 
-6.95647 -3.34288 -6.58227e-11 
-6.64625 -3.33818 -4.36736e-11 
-6.33518 -3.34799 -1.34407e-11 
-6.02715 -3.33852 2.38834e-11 
-5.71714 -3.33821 8.02412e-11 
-5.4095 -3.32858 1.53761e-10 
-5.1042 -3.31024 2.46978e-10 
-4.80106 -3.36645 3.80808e-10 
-4.49987 -3.3119 5.37623e-10 
-4.19913 -3.34039 7.39285e-10 
-3.89416 -3.37415 1.04707e-09 
-3.58867 -3.36862 1.42717e-09 
-3.27147 -3.36134 1.76004e-09 
-2.96812 -3.36249 2.34242e-09 
-2.66832 -3.3298 2.32864e-09 
-2.37931 -3.32742 2.52885e-09 
-2.09691 -3.36991 2.08903e-09 
-1.8047 -3.38618 1.06588e-09 
-1.50707 -3.3692 6.29327e-11 
-1.19693 -3.33713 -2.42167e-09 
-0.881304 -3.32353 -1.44837e-09 
-0.610394 -3.1716 5.24923e-09 
-0.320452 -3.31453 -1.47516e-08 
0.00919175 -3.13687 -3.36693e-08 
0.323817 -3.24362 1.88605e-08 
0.616634 -3.18807 5.11281e-09 
0.908174 -3.30333 5.28069e-09 
1.21761 -3.31716 2.08979e-09 
1.509 -3.34122 2.7221e-10 
1.79151 -3.38222 -1.53523e-09 
2.08031 -3.38729 -2.61884e-09 
2.37463 -3.42542 -2.92318e-09 
2.6716 -3.38495 -2.84393e-09 
2.97033 -3.39293 -2.30773e-09 
3.26682 -3.33256 -1.64378e-09 
3.56635 -3.34196 -1.33361e-09 
3.86722 -3.35359 -1.04791e-09 
4.16985 -3.32949 -7.44606e-10 
4.47235 -3.32249 -5.31022e-10 
4.7748 -3.33936 -3.86184e-10 
5.08163 -3.34387 -2.66416e-10 
5.39307 -3.34413 -1.58724e-10 
5.69954 -3.3289 -8.05558e-11 
6.0093 -3.32061 -3.03566e-11 
6.30715 -3.32786 7.01416e-12 
6.60994 -3.33748 4.23937e-11 
6.90921 -3.28908 5.24397e-11 
7.2059 -3.33069 7.02127e-11 
7.50706 -3.32348 8.78649e-11 
7.81162 -3.33055 1.15392e-10 
8.11815 -3.31756 1.34199e-10 
8.42072 -3.32237 1.66789e-10 
8.74348 -3.3114 2.29027e-10 
9.06755 -3.38724 3.09683e-10 
9.38099 -3.34112 4.06438e-10 
9.68636 -3.28292 5.01182e-10 
9.99637 -3.37908 6.40915e-10 
10.3048 -3.30528 7.26029e-10 
10.6339 -3.40626 9.11357e-10 
10.9673 -3.331 1.0295e-09 
11.2986 -3.25497 4.64038e-10 
11.6326 -3.37477 6.15815e-10 
12 -3.28999 3.34115e-09 
-12 -2.96575 -3.57646e-09 
-11.6619 -3.04938 -1.61055e-10 
-11.3199 -2.96664 2.78378e-10 
-10.9731 -2.9766 -1.00718e-10 
-10.6323 -2.9686 -6.8164e-11 
-10.3001 -3.00378 -1.35589e-10 
-9.97308 -2.98784 -1.70875e-10 
-9.64645 -2.99087 -1.80686e-10 
-9.34385 -3.0249 -1.62704e-10 
-9.04187 -2.98211 -1.08118e-10 
-8.73756 -2.96814 -8.22238e-11 
-8.43685 -2.99655 -7.3783e-11 
-8.13171 -2.99689 -5.1842e-11 
-7.83112 -2.99043 -3.39159e-11 
-7.52907 -2.97475 -1.15149e-11 
-7.22923 -2.99516 -1.0398e-11 
-6.92566 -3.0178 -5.59263e-12 
-6.61753 -3.0134 6.52852e-13 
-6.31498 -3.01672 1.39586e-11 
-6.00761 -3.00989 3.79488e-11 
-5.70163 -3.00617 6.58889e-11 
-5.39482 -2.99598 1.00574e-10 
-5.09168 -2.97562 1.2147e-10 
-4.79411 -3.03289 1.89125e-10 
-4.49027 -2.98331 1.95368e-10 
-4.19131 -3.01191 2.98649e-10 
-3.89398 -3.05198 4.31587e-10 
-3.5906 -3.04653 5.25444e-10 
-3.2893 -3.0563 6.90958e-10 
-2.96408 -3.0383 9.25545e-10 
-2.67066 -2.99012 8.4062e-10 
-2.37197 -2.98919 3.79499e-10 
-2.08046 -3.02327 8.76712e-10 
-1.79854 -3.06683 -1.20785e-10 
-1.48685 -3.04859 -1.65556e-09 
-1.15414 -2.99924 -4.46953e-09 
-0.896737 -2.88082 -4.42113e-09 
-0.561946 -2.7584 -2.8873e-08 
-0.247128 -2.90541 6.47532e-08 
0.0133436 -2.57184 -1.02807e-07 
0.268771 -2.79995 9.71703e-08 
0.528993 -2.69584 -2.28139e-08 
0.862985 -2.88188 -3.67581e-10 
1.17047 -2.96063 -5.02647e-10 
1.49029 -2.99088 -1.47762e-12 
1.78553 -3.04148 -9.19192e-10 
2.07495 -3.05919 -1.9503e-10 
2.36606 -3.11023 -1.19716e-09 
2.66023 -3.05661 -8.91556e-10 
2.94894 -3.06947 -8.65414e-10 
3.25254 -3.00799 -5.73972e-10 
3.55656 -3.01614 -4.72499e-10 
3.86201 -3.02475 -4.20902e-10 
4.16313 -2.99992 -2.97247e-10 
4.46479 -2.99192 -2.1743e-10 
4.76604 -3.00605 -1.68023e-10 
5.06699 -3.01336 -1.34083e-10 
5.37053 -3.01817 -9.80641e-11 
5.67915 -2.99839 -6.5277e-11 
5.98447 -2.99756 -4.16184e-11 
6.29828 -2.98605 -1.69651e-11 
6.59307 -3.00436 3.98243e-12 
6.91501 -2.97497 7.53327e-12 
7.2333 -2.99515 1.19692e-11 
7.53553 -2.98991 2.14106e-11 
7.83972 -2.99884 3.32439e-11 
8.14032 -2.98082 5.13236e-11 
8.44854 -3.00071 6.95595e-11 
8.75024 -2.97097 7.41072e-11 
9.05288 -3.06104 1.27422e-10 
9.35611 -3.00172 1.43888e-10 
9.66432 -2.94426 1.26594e-10 
9.98891 -3.03052 2.02825e-10 
10.3211 -2.97476 6.42671e-11 
10.6488 -3.07447 3.17475e-10 
10.9825 -2.99193 1.03956e-10 
11.3349 -2.93299 -3.56578e-10 
11.6687 -3.05341 1.58053e-10 
12 -2.94765 3.9296e-09 
-12 -2.65159 -2.93773e-09 
-11.6492 -2.7205 8.33765e-11 
-11.3073 -2.6405 4.65845e-10 
-10.9684 -2.65354 -5.71359e-11 
-10.634 -2.64065 9.68403e-12 
-10.3004 -2.67317 -4.06828e-11 
-9.96549 -2.66439 -1.15677e-10 
-9.63749 -2.66704 -1.17517e-10 
-9.31205 -2.67813 -1.02034e-10 
-8.99554 -2.64462 -7.6897e-11 
-8.68398 -2.63319 -6.27536e-11 
-8.37605 -2.66517 -4.94831e-11 
-8.07017 -2.65996 -3.52743e-11 
-7.76165 -2.65845 -2.13373e-11 
-7.44763 -2.65005 -8.80034e-12 
-7.14298 -2.67282 -5.18462e-12 
-6.8387 -2.69386 -6.07294e-12 
-6.53083 -2.68256 2.11658e-12 
-6.22652 -2.68591 1.98811e-11 
-5.92022 -2.6781 4.25741e-11 
[...]
POINT_DATA 1978 
VECTORS vectors float
0.00342901 -0.00496547 0.999978 
0.00325766 -0.0476505 0.998854 
0.00174446 -0.0479641 0.998843 
0.0024906 -0.0392213 0.999223 
0.00218923 -0.0307484 0.99952 
0.00236697 -0.021748 0.999756 
0.00260944 -0.0154905 0.999873 
0.00259074 -0.0112922 0.999929 
0.00258127 -0.00830999 0.999958 
0.00273274 -0.00646227 0.999971 
0.00281585 -0.00521165 0.999979 
0.00288719 -0.00441583 0.999983 
0.00310709 -0.00393097 0.999985 
0.00332558 -0.00354142 0.999986 
0.00335798 -0.00317642 0.999987 
0.00317467 -0.00284213 0.999989 
0.00324611 -0.00262552 0.99999 
0.00315373 -0.00222426 0.999989 
0.0030117 -0.0016617 0.999991 
0.00304609 -0.000864852 0.999992 
0.00303385 0.000234967 0.999993 
0.00311289 0.0018064 0.999991 
0.0030237 0.00403928 0.999985 
0.00286742 0.00702301 0.999968 
0.0028542 0.0118916 0.999922 
0.0029517 0.0176064 0.999838 
0.00277007 0.0259117 0.999658 
0.00264594 0.0382184 0.999264 
0.00274558 0.0537853 0.998547 
0.0027071 0.075315 0.997155 
0.00262188 0.104537 0.994517 
0.00247849 0.141675 0.98991 
0.00192458 0.190232 0.981738 
0.00139863 0.263357 0.964698 
0.000642151 0.352571 0.935785 
-0.000152148 0.471864 0.881672 
-0.000754769 0.610285 0.792182 
-0.00137608 0.778054 0.628196 
-0.000979885 0.919008 0.394235 
-3.41202e-05 0.999997 -0.00200228 
0.00109903 0.923023 -0.38474 
0.00137088 0.770546 -0.637382 
0.000729652 0.611304 -0.791395 
0.000153289 0.480957 -0.876744 
-0.000526122 0.370011 -0.929028 
-0.00132391 0.276895 -0.9609 
-0.00172465 0.203379 -0.979099 
-0.0020592 0.148304 -0.988939 
-0.0021298 0.103659 -0.994609 
-0.00243843 0.0738986 -0.997261 
-0.00261358 0.0512381 -0.998681 
-0.00286601 0.0364797 -0.999328 
-0.00282963 0.02542 -0.99967 
-0.00288789 0.0171426 -0.999846 
-0.00301166 0.0112981 -0.999929 
-0.00297363 0.00705471 -0.999968 
-0.00290466 0.00388824 -0.999985 
-0.00295684 0.00164166 -0.999991 
-0.00310624 7.00241e-05 -0.999993 
-0.00323738 -0.000951102 -0.999992 
-0.00320959 -0.0016206 -0.999991 
-0.00325626 -0.00219512 -0.99999 
-0.00333175 -0.00267305 -0.999989 
-0.00336477 -0.00295464 -0.999988 
-0.0032344 -0.00332312 -0.999987 
-0.00317618 -0.0038003 -0.999985 
-0.00321591 -0.00427499 -0.999983 
-0.00332231 -0.00476773 -0.999981 
-0.0033024 -0.00539338 -0.999978 
-0.00282345 -0.00623145 -0.999973 
-0.00249231 -0.00807698 -0.999959 
-0.00271181 -0.0108818 -0.999934 
-0.00255325 -0.0144918 -0.999887 
-0.00222291 -0.0214022 -0.999763 
-0.00173907 -0.0290564 -0.999569 
-0.00208992 -0.0402252 -0.999182 
-0.00207333 -0.0481026 -0.998836 
-0.00327185 -0.0478688 -0.998844 
-0.0033733 -0.00498269 -0.999978 
0.00465566 -0.0030259 0.999979 
0.0135101 -0.0312056 0.999425 
0.0219558 -0.0435546 0.998813 
0.0215969 -0.0401524 0.998963 
0.0233835 -0.0319707 0.999218 
0.0228192 -0.0246766 0.999438 
0.0244208 -0.0179287 0.999544 
0.0253995 -0.0129958 0.999596 
0.0249465 -0.0094852 0.999646 
0.0261124 -0.00708886 0.999637 
0.0265333 -0.00555193 0.999636 
0.0267411 -0.00455716 0.999635 
0.0272593 -0.00391885 0.999623 
0.0279523 -0.00343995 0.999606 
0.0285537 -0.00308555 0.99959 
0.0279013 -0.00277282 0.999609 
0.0274475 -0.00237865 0.999622 
0.0277645 -0.00193652 0.999617 
0.0272866 -0.00134392 0.999629 
0.0275804 -0.000466378 0.999622 
0.0272339 0.000783179 0.999631 
0.0274567 0.00256946 0.999622 
0.0272668 0.00498091 0.999618 
0.025093 0.00860626 0.99965 
0.0268935 0.0134853 0.99955 
0.0248085 0.0198959 0.999497 
0.0230567 0.0291777 0.999311 
0.022752 0.041926 0.998864 
0.0209167 0.0590279 0.99804 
0.0190506 0.0827573 0.99639 
0.017221 0.113373 0.993405 
0.0143197 0.154196 0.987939 
0.00974686 0.211101 0.977418 
0.00628593 0.28837 0.957501 
0.00223168 0.384768 0.923012 
-0.00141475 0.504194 0.863591 
-0.00392968 0.654078 0.756417 
-0.00486671 0.812603 0.582797 
-0.00289503 0.952658 0.304027 
-0.000355411 0.999941 -0.0108188 
0.00260064 0.944649 -0.328068 
0.00421687 0.799117 -0.601161 
0.00332507 0.633684 -0.773586 
0.000681802 0.488737 -0.872434 
-0.00300227 0.369602 -0.929187 
-0.00702992 0.273353 -0.96189 
-0.0107511 0.200965 -0.979541 
-0.0136714 0.142294 -0.989732 
-0.0171339 0.102871 -0.994549 
-0.019061 0.0729646 -0.997155 
-0.0220501 0.0522811 -0.998392 
-0.0230144 0.0371223 -0.999048 
-0.0240018 0.025767 -0.999382 
-0.0255855 0.0177569 -0.999517 
-0.0261153 0.0118416 -0.999591 
-0.0261145 0.00735347 -0.999634 
-0.0266508 0.00409877 -0.999639 
-0.0270092 0.00179717 -0.999636 
-0.0281433 0.000264682 -0.999606 
-0.0282785 -0.000759772 -0.999602 
-0.0280447 -0.00149629 -0.999608 
-0.0283213 -0.00210683 -0.999599 
-0.0297196 -0.00249931 -0.999557 
-0.027904 -0.00287337 -0.999609 
-0.0282829 -0.00330224 -0.999597 
-0.0280699 -0.0037506 -0.999601 
-0.0283416 -0.00423585 -0.999592 
-0.0279159 -0.00488455 -0.9996 
-0.02913 -0.00566736 -0.999562 
-0.0247724 -0.00699569 -0.999671 
-0.0253583 -0.00938524 -0.999637 
-0.0268287 -0.0125427 -0.999564 
-0.0224772 -0.0172324 -0.999601 
-0.0237851 -0.0236657 -0.99944 
-0.0201338 -0.0322717 -0.999279 
-0.0226754 -0.0401392 -0.99894 
-0.022191 -0.0434089 -0.998814 
-0.0132706 -0.0316707 -0.999414 
-0.00449023 -0.00305134 -0.99998 
0.00317643 -0.00328571 0.999984 
0.0212782 -0.0340984 0.999195 
0.0276587 -0.0423092 0.998725 
0.029184 -0.0374963 0.998872 
0.030304 -0.0307885 0.999069 
0.0314482 -0.0244323 0.999209 
0.0328701 -0.0183629 0.999293 
0.0341603 -0.0134372 0.999328 
0.0344949 -0.00979077 0.99936 
0.0356444 -0.00743539 0.999339 
0.0363723 -0.00586925 0.999323 
0.0363318 -0.00469734 0.999331 
0.0366572 -0.00395667 0.999322 
0.0366638 -0.00346075 0.999324 
0.0369739 -0.0030493 0.999314 
0.0368912 -0.00267234 0.999318 
0.03715 -0.00229741 0.999309 
0.037275 -0.00182691 0.999306 
0.0370159 -0.00122507 0.999316 
0.036857 -0.000363393 0.999323 
0.0364353 0.000871536 0.999338 
0.036025 0.00267019 0.99935 
0.0355185 0.00524456 0.999358 
0.0346864 0.00863507 0.999363 
0.034211 0.013536 0.999325 
0.0331632 0.0199661 0.999253 
0.0318248 0.0287102 0.999083 
0.030096 0.0406447 0.998723 
0.0277539 0.0579784 0.997936 
0.025042 0.0809219 0.996406 
0.0213229 0.11316 0.99335 
0.0172144 0.155812 0.987639 
0.0129241 0.21384 0.976785 
0.00806568 0.288725 0.95738 
0.00256151 0.390377 0.920654 
-0.00203718 0.522044 0.852918 
-0.00488552 0.677789 0.735241 
-0.00497578 0.823064 0.567926 
-0.00388763 0.94561 0.325274 
-0.000488057 0.999912 -0.0131935 
0.00233022 0.942575 -0.333984 
0.00359121 0.816939 -0.576712 
0.00351571 0.660733 -0.750614 
0.000798722 0.50782 -0.861464 
-0.00340552 0.385644 -0.922643 
-0.00835617 0.28877 -0.957364 
-0.0133231 0.212969 -0.97697 
-0.0180086 0.155063 -0.987742 
-0.0218371 0.112101 -0.993459 
-0.0248959 0.0807248 -0.996428 
-0.0275605 0.0593453 -0.997859 
-0.0296028 0.0422877 -0.998669 
-0.0313909 0.0299033 -0.999061 
-0.0327782 0.0209134 -0.999246 
-0.0337212 0.0141496 -0.999334 
-0.0347159 0.00917895 -0.999357 
-0.035588 0.00549082 -0.999354 
-0.0361104 0.00281334 -0.999346 
-0.036643 0.000990204 -0.99933 
-0.0369837 -0.000286933 -0.999318 
-0.0371477 -0.00113635 -0.999311 
-0.0372088 -0.00175919 -0.999308 
-0.0372979 -0.00222061 -0.999304 
-0.0372595 -0.00269531 -0.999304 
-0.0371598 -0.00309554 -0.999307 
-0.0370316 -0.00351553 -0.99931 
-0.0368339 -0.00401897 -0.999315 
-0.0364413 -0.00471316 -0.999327 
-0.036711 -0.00587182 -0.999311 
-0.0354362 -0.00749112 -0.999346 
-0.0351051 -0.00990577 -0.999337 
-0.0344242 -0.0133389 -0.999321 
-0.0325574 -0.0177379 -0.999315 
-0.0320349 -0.0238042 -0.999206 
-0.0298252 -0.0303547 -0.999096 
-0.0293124 -0.0372925 -0.998877 
-0.0272687 -0.0422754 -0.998737 
-0.0210471 -0.0338059 -0.99921 
-0.00296371 -0.00313588 -0.999985 
0.00280979 -0.00358855 0.999985 
0.018343 -0.0319523 0.999324 
0.0234501 -0.0422056 0.998836 
0.0256195 -0.0375019 0.998971 
0.0270877 -0.0313303 0.999144 
0.0290012 -0.0247895 0.999274 
0.03017 -0.018624 0.999374 
0.0313541 -0.0135167 0.99942 
0.0328123 -0.0100873 0.999412 
0.0328976 -0.00766591 0.999432 
0.033111 -0.0058664 0.999437 
0.0338496 -0.00464476 0.999419 
0.0340059 -0.00385119 0.999416 
0.0340713 -0.00334618 0.999416 
0.0339026 -0.00295075 0.999423 
0.0345237 -0.00256926 0.999402 
0.0347907 -0.00212478 0.999395 
0.0346398 -0.00158825 0.999401 
0.0345135 -0.000944437 0.999406 
0.0342424 -3.70224e-05 0.999416 
0.033876 0.00130283 0.999427 
0.0333106 0.00329779 0.999442 
0.0325537 0.00618683 0.999453 
0.0324312 0.00978771 0.999429 
0.0309379 0.0152388 0.999407 
0.0300935 0.0218809 0.99931 
0.0291518 0.0306789 0.999107 
0.027326 0.0432382 0.998693 
0.0251096 0.0597902 0.997896 
0.0217933 0.0847868 0.996165 
0.0179088 0.117988 0.992856 
0.014051 0.163785 0.986399 
0.0104376 0.222435 0.974894 
0.00613979 0.299984 0.953927 
0.00163622 0.405769 0.913976 
-0.00194786 0.546903 0.837195 
-0.00308056 0.677363 0.735643 
-0.00242266 0.841918 0.539598 
-0.00186912 0.962706 0.27054 
0.000270152 0.999975 -0.00686134 
0.00136217 0.955508 -0.294966 
0.0021263 0.845519 -0.53394 
0.00247469 0.683066 -0.730353 
0.000867894 0.529928 -0.848044 
-0.00238727 0.397752 -0.917492 
-0.0065464 0.298623 -0.954351 
-0.0106527 0.221316 -0.975147 
-0.0154893 0.162201 -0.986638 
-0.0188103 0.119046 -0.992713 
-0.0218311 0.0865392 -0.996012 
-0.0239397 0.0634048 -0.997703 
-0.0262688 0.0454528 -0.998623 
-0.0282899 0.0321247 -0.999086 
-0.0295809 0.0227841 -0.999305 
-0.0308863 0.0158506 -0.999399 
-0.0320286 0.0104604 -0.999434 
-0.0329512 0.00646324 -0.999438 
-0.0336464 0.00354254 -0.99943 
-0.0338397 0.00147946 -0.999428 
-0.0341412 6.29793e-05 -0.999419 
-0.0342723 -0.000882046 -0.999414 
-0.0345171 -0.00151673 -0.999406 
-0.0343434 -0.00208501 -0.99941 
-0.0343932 -0.00258674 -0.999408 
-0.0343661 -0.00301468 -0.999407 
-0.0343871 -0.00345399 -0.999405 
-0.0341316 -0.00399253 -0.999412 
-0.0340199 -0.00480463 -0.999412 
-0.0334147 -0.00606798 -0.999425 
-0.0341183 -0.00778903 -0.99939 
-0.0325332 -0.0103198 -0.99942 
-0.0307731 -0.0140164 -0.99943 
-0.0307505 -0.0188343 -0.999352 
-0.0286083 -0.0253008 -0.999273 
-0.0285821 -0.0312446 -0.999105 
-0.02583 -0.0376524 -0.998959 
-0.0227971 -0.0423633 -0.998845 
-0.0179777 -0.0313836 -0.999349 
-0.00256994 -0.00329247 -0.999986 
0.00222431 -0.00293319 0.999988 
0.0147645 -0.0326522 0.999361 
0.0190679 -0.0437298 0.998864 
0.0212158 -0.0381142 0.999051 
0.0227767 -0.0326046 0.999211 
0.0246343 -0.0259139 0.999364 
0.0259268 -0.0194876 0.999476 
0.0270944 -0.0142867 0.999533 
0.0279852 -0.0103565 0.999558 
0.0281197 -0.00769675 0.999577 
0.0282681 -0.00578312 0.999586 
0.029029 -0.00451911 0.999571 
0.0291045 -0.0037326 0.999572 
0.0292549 -0.00322358 0.999569 
0.0292294 -0.00279645 0.999571 
0.029697 -0.00234566 0.999558 
0.0301152 -0.00183845 0.999547 
0.0297448 -0.00124651 0.999559 
0.0296592 -0.000527702 0.999562 
0.0293329 0.000536903 0.999572 
0.0289576 0.00217794 0.99958 
0.0282946 0.0046085 0.999591 
0.0275814 0.00812006 0.999589 
0.027506 0.0121958 0.999549 
0.0259131 0.0184654 0.999496 
0.0252086 0.025917 0.999348 
0.0242639 0.0355487 0.999075 
0.0223432 0.0490732 0.998547 
0.0203817 0.0681759 0.997467 
0.0170507 0.0941654 0.995413 
0.0133538 0.132654 0.991075 
0.00999876 0.181476 0.983347 
0.00664248 0.243603 0.969855 
0.00337356 0.327812 0.94474 
-0.000124041 0.452209 0.891914 
-0.0015159 0.567021 0.823704 
-0.00149459 0.726927 0.686713 
-0.000208788 0.844499 0.535557 
-0.000323745 0.937929 0.346824 
0.000115164 0.997664 0.0682987 
-4.46e-05 0.959861 -0.280474 
0.00025035 0.831132 -0.556075 
0.00170069 0.69137 -0.7225 
0.000800088 0.527324 -0.849666 
-0.00144423 0.398617 -0.917119 
-0.00489456 0.292257 -0.95633 
-0.00850627 0.21907 -0.975675 
-0.0126477 0.160695 -0.986926 
-0.0148634 0.119362 -0.992743 
-0.0181915 0.0865212 -0.996086 
-0.0200121 0.0619154 -0.997883 
-0.0223887 0.0442484 -0.998772 
-0.0240633 0.0319173 -0.999203 
-0.02524 0.0225809 -0.999429 
-0.0262911 0.0156925 -0.999533 
-0.0274691 0.0104359 -0.99957 
-0.0282828 0.00649144 -0.999581 
-0.0289233 0.00354637 -0.999578 
-0.0290234 0.00145179 -0.99958 
-0.0294642 2.5696e-05 -0.999568 
-0.029174 -0.00084718 -0.999576 
-0.0299278 -0.00150406 -0.999553 
-0.0295877 -0.00207905 -0.999562 
-0.0295259 -0.00256403 -0.999563 
-0.0294496 -0.00301527 -0.999564 
-0.0293718 -0.00345441 -0.999565 
-0.0291938 -0.00402177 -0.999568 
-0.0293609 -0.00491795 -0.999559 
-0.0282472 -0.00620262 -0.999584 
-0.0294361 -0.0080244 -0.999537 
-0.0278977 -0.010801 -0.999555 
-0.0262768 -0.0148877 -0.999546 
-0.0264305 -0.0199493 -0.999454 
-0.024239 -0.0265934 -0.999355 
-0.0240024 -0.0325551 -0.999184 
-0.0212479 -0.0389252 -0.999019 
-0.0181869 -0.0431767 -0.998904 
-0.0140224 -0.0313603 -0.999413 
-0.00241507 -0.00326764 -0.999987 
0.00210407 -0.00319242 0.999988 
0.00938602 -0.0280753 0.999565 
0.0141908 -0.043365 0.998961 
0.0162889 -0.0413897 0.999013 
0.0177308 -0.0357038 0.999208 
0.0194091 -0.0293772 0.999382 
0.0206998 -0.0227946 0.999528 
0.0215579 -0.0168369 0.999628 
0.0223804 -0.0122876 0.999676 
0.0225612 -0.00909333 0.999706 
0.0223531 -0.00666081 0.99973 
0.0227898 -0.00499559 0.99973 
0.0229905 -0.00403742 0.99973 
0.023173 -0.00343438 0.999728 
0.0232864 -0.00298493 0.999727 
0.0234054 -0.0024935 0.999725 
0.0237992 -0.00196983 0.999717 
0.0238826 -0.00143357 0.999716 
0.0235465 -0.000780464 0.999725 
0.0233826 0.000106003 0.999729 
0.0231401 0.00151478 0.999733 
0.0226268 0.00366723 0.999739 
0.0221558 0.00678534 0.999734 
0.0212946 0.0109618 0.999715 
0.0213446 0.01573 0.999651 
0.0198716 0.0228502 0.999543 
0.0192624 0.0312702 0.999327 
0.0182521 0.0419421 0.998955 
0.0169419 0.0579271 0.998179 
0.0146203 0.0785261 0.996807 
0.0115287 0.111688 0.993679 
0.00791774 0.158047 0.987403 
0.00506114 0.219625 0.975574 
0.00237739 0.297873 0.954606 
0.000396848 0.393639 0.919267 
-0.00137978 0.505287 0.862952 
-0.00153208 0.654902 0.755714 
-0.00125345 0.798856 0.601522 
-0.000528907 0.980813 0.194944 
3.83684e-05 0.997857 -0.0654409 
-0.00148426 0.945578 -0.325394 
0.000548309 0.958901 -0.283721 
-0.000987723 0.759307 -0.650738 
0.000490516 0.595494 -0.803363 
0.000238433 0.446183 -0.894944 
-0.00195553 0.327929 -0.944703 
-0.00453629 0.240698 -0.970593 
-0.00822857 0.177966 -0.984005 
-0.0101616 0.134284 -0.990893 
-0.0130868 0.0965049 -0.995249 
-0.0151377 0.0706969 -0.997385 
-0.016981 0.0492801 -0.998643 
-0.0183676 0.0356623 -0.999197 
-0.0195707 0.0256918 -0.99948 
-0.0203539 0.0181104 -0.999631 
-0.0213606 0.0123023 -0.999698 
-0.0220635 0.00795003 -0.999727 
-0.022729 0.0046219 -0.999733 
-0.0229971 0.00220299 -0.999735 
-0.023394 0.00049151 -0.999728 
-0.0229552 -0.000539646 -0.999739 
-0.0237237 -0.0012743 -0.99972 
-0.0239304 -0.00183627 -0.999714 
-0.0231714 -0.00239646 -0.999731 
-0.0232957 -0.00288913 -0.999727 
-0.0230283 -0.00335977 -0.999731 
-0.0227255 -0.00388884 -0.999736 
-0.0227944 -0.00472276 -0.999732 
-0.0222739 -0.00617231 -0.999735 
-0.0235224 -0.0083845 -0.99969 
-0.0224349 -0.0115612 -0.999684 
-0.0208754 -0.0158616 -0.999659 
-0.0214902 -0.0212074 -0.999547 
-0.0194791 -0.0282311 -0.999414 
-0.0196261 -0.0341298 -0.999227 
-0.0169065 -0.0402687 -0.999048 
-0.013986 -0.0444003 -0.998918 
-0.0110488 -0.0331125 -0.999394 
-0.00205941 -0.00335224 -0.999987 
0.00168587 -0.00340823 0.999988 
0.00793008 -0.0345424 0.999375 
0.0111249 -0.0454482 0.998907 
0.012237 -0.0407363 0.999097 
0.0136573 -0.0347653 0.999305 
0.0147622 -0.0282799 0.999493 
0.015853 -0.02149 0.999646 
0.0164382 -0.0156625 0.999745 
0.0166114 -0.0115 0.999798 
0.0168031 -0.00834814 0.999826 
0.0167885 -0.0059717 0.999843 
0.0166711 -0.00460006 0.999853 
0.0169288 -0.00380416 0.999852 
0.0170287 -0.00329839 0.999852 
0.0172462 -0.00281807 0.999849 
0.0171229 -0.00227447 0.999853 
0.0172495 -0.00173149 0.999852 
0.0174492 -0.0011601 0.999849 
0.0170157 -0.000427514 0.999857 
0.0170044 0.000701029 0.999857 
0.0167038 0.00250874 0.99986 
0.0163895 0.00527523 0.999854 
0.0158242 0.00902654 0.999836 
0.0149818 0.0138573 0.999794 
0.0151395 0.0194554 0.999698 
0.0139309 0.0278064 0.999518 
0.0130516 0.0374814 0.999214 
0.0127259 0.0511601 0.998612 
0.0108418 0.0696465 0.997515 
0.00911801 0.0979743 0.99515 
0.00584308 0.142565 0.989771 
0.00323278 0.206293 0.978488 
0.00108387 0.289635 0.957139 
-0.000856726 0.403041 0.915184 
-0.00189495 0.573742 0.819038 
-0.0019254 0.713191 0.700967 
-0.000722729 0.888161 0.459566 
0.00385117 0.977638 0.210278 
-0.00083992 0.931557 0.363593 
0.000905066 0.990213 0.139549 
-0.00215191 0.991298 -0.131585 
-0.0037351 0.937564 -0.347783 
-0.000388634 0.838633 -0.544699 
5.32364e-05 0.616704 -0.787197 
0.000411586 0.488477 -0.872579 
-0.000143339 0.354412 -0.935092 
-0.00180763 0.258915 -0.965902 
-0.00454545 0.183427 -0.983027 
-0.0070084 0.128531 -0.991683 
-0.00911334 0.0934458 -0.995585 
-0.0115553 0.0653769 -0.997796 
-0.012187 0.0473905 -0.998805 
-0.0132705 0.0343985 -0.999322 
-0.0142156 0.0247606 -0.999594 
-0.0148443 0.0174489 -0.99974 
-0.0154139 0.0119635 -0.999812 
-0.015936 0.00767546 -0.999846 
-0.0164512 0.00440756 -0.999857 
-0.0169934 0.00189875 -0.999856 
-0.0168912 0.000346172 -0.999859 
-0.0171529 -0.000726928 -0.999855 
-0.0172549 -0.00136258 -0.999852 
-0.0176697 -0.00192516 -0.999844 
-0.0167229 -0.00248416 -0.999859 
-0.0170446 -0.00299743 -0.999852 
-0.016475 -0.00346316 -0.99986 
-0.0164479 -0.00405548 -0.999859 
-0.0166226 -0.00498585 -0.999851 
-0.0158326 -0.00645592 -0.999856 
-0.0177013 -0.00854382 -0.999809 
-0.0166801 -0.0117473 -0.999794 
-0.0156436 -0.0165147 -0.999744 
-0.0162194 -0.022493 -0.999618 
-0.0144825 -0.0297745 -0.999454 
-0.0148107 -0.035883 -0.999249 
-0.0122707 -0.0417693 -0.999054 
-0.00994045 -0.0455931 -0.998913 
-0.00787637 -0.0332131 -0.99942 
-0.00144929 -0.00332645 -0.999988 
0.000960923 -0.00343744 0.999988 
0.0052599 -0.0332917 0.999434 
0.00752153 -0.0460494 0.998913 
0.00848905 -0.0430196 0.999041 
0.00952503 -0.0370251 0.999271 
0.0103399 -0.0303853 0.999487 
0.0111312 -0.023448 0.999665 
0.0117274 -0.0174087 0.999782 
0.0116347 -0.0126348 0.999855 
0.0117911 -0.00912554 0.999891 
0.0121095 -0.00657953 0.999907 
0.011603 -0.00488651 0.999923 
0.0117468 -0.00400171 0.999925 
0.0117638 -0.00347272 0.999927 
0.011942 -0.00299764 0.999926 
0.0118607 -0.00246044 0.999929 
0.0116644 -0.00188897 0.999932 
0.0119085 -0.00133556 0.99993 
0.0117339 -0.00068012 0.999933 
0.0116356 0.000375449 0.999934 
0.0114641 0.00207021 0.999934 
0.0113671 0.00468271 0.999927 
0.0109241 0.00835991 0.999907 
0.0102794 0.0130371 0.999864 
0.00999873 0.01897 0.999772 
0.00991786 0.0262977 0.999607 
0.00855987 0.036393 0.999303 
0.00863812 0.0492257 0.998752 
0.00710579 0.0667987 0.997744 
0.00617508 0.0928855 0.99566 
0.00417013 0.131188 0.991352 
0.00189073 0.198024 0.980198 
0.000479008 0.284021 0.958822 
-0.000827734 0.397246 0.917714 
-0.00240899 0.627529 0.778596 
-0.000984315 0.78283 0.622234 
0.00135625 0.880261 0.474508 
0.00667899 0.992703 0.120391 
0.00526616 0.996074 0.0883628 
0.00323063 0.998776 0.0493538 
0.00290963 0.998752 0.049856 
-0.00219777 0.993459 -0.114189 
0.000455603 0.813752 -0.581215 
0.000930785 0.667469 -0.74464 
0.00123874 0.491537 -0.870858 
0.000609182 0.389203 -0.921154 
-0.000131081 0.281799 -0.959476 
-0.00196453 0.198398 -0.980123 
-0.00392233 0.140717 -0.990045 
-0.00542093 0.0985574 -0.995119 
-0.00745722 0.0715045 -0.997415 
-0.00796349 0.0521428 -0.99861 
-0.00863056 0.0378482 -0.999248 
-0.00937154 0.0275774 -0.999578 
-0.00990024 0.0199086 -0.999755 
-0.0102736 0.0139021 -0.999853 
-0.0106206 0.00915212 -0.999904 
-0.0109081 0.00540955 -0.999928 
-0.0117071 0.00266708 -0.99993 
-0.0113736 0.0007637 -0.999937 
-0.0121987 -0.000454972 -0.999927 
-0.0117179 -0.0012178 -0.999933 
-0.0120964 -0.00178889 -0.999927 
-0.011692 -0.0023369 -0.999931 
-0.0117444 -0.00291812 -0.999929 
-0.0113538 -0.00339377 -0.999932 
-0.0113933 -0.00393066 -0.99993 
-0.0112394 -0.00478358 -0.999928 
-0.011152 -0.00641311 -0.999919 
-0.0123088 -0.00901928 -0.999886 
-0.0119668 -0.0127881 -0.999849 
-0.0108573 -0.0176328 -0.999788 
-0.0118017 -0.0231785 -0.999664 
-0.0102505 -0.0301037 -0.999497 