# vtk DataFile Version 3.0 
Exported using Morpho https://github.com/Morpho-lang/morpho 
ASCII 
DATASET UNSTRUCTURED_GRID 

POINTS 1978 float 
-12 -3.99998 -4.36819e-08 
-11.5979 -3.99998 -3.54698e-08 
-11.2936 -3.99999 1.39923e-07 
-10.9429 -3.99999 4.50321e-08 
-10.6267 -3.99999 4.70392e-08 
-10.2802 -3.99999 2.13339e-08 
-9.95928 -3.99999 1.89368e-08 
-9.64772 -3.99998 7.36143e-09 
-9.31313 -3.99999 1.00683e-08 
-8.99687 -3.99999 1.38074e-08 
-8.6834 -3.99999 7.94901e-09 
-8.36789 -3.99999 9.20306e-09 
-8.06211 -3.99999 9.3906e-09 
-7.76659 -3.99999 8.85555e-09 
-7.482 -3.99999 9.67772e-09 
-7.18904 -3.99999 4.96035e-09 
-6.89171 -3.99999 7.33746e-09 
-6.59572 -3.99999 7.62041e-09 
-6.29452 -3.99999 6.3538e-09 
-5.98763 -3.99999 5.71678e-09 
-5.68756 -3.99999 3.92332e-09 
-5.38336 -3.99999 1.89038e-09 
-5.08408 -3.99999 -2.38512e-09 
-4.78932 -3.99999 -1.60189e-09 
-4.45996 -3.99999 -1.01494e-08 
-4.1726 -3.99999 -2.12479e-08 
-3.86865 -3.99999 -1.68143e-08 
-3.54941 -3.99999 -2.82954e-08 
-3.25222 -3.99999 -3.28901e-08 
-2.95565 -3.99999 -2.00056e-08 
-2.66498 -4 -1.88168e-08 
-2.39293 -4 -2.25525e-08 
-2.12864 -4 8.94295e-09 
-1.83802 -4 4.97282e-08 
-1.56349 -4.00001 -7.65372e-08 
-1.27599 -3.99999 -1.96417e-07 
-0.99659 -3.99998 -6.96837e-07 
-0.681529 -3.99994 -8.46651e-07 
-0.384764 -3.99992 -2.18645e-06 
0.00280977 -3.99987 8.49387e-07 
0.369042 -3.99991 1.52651e-06 
0.688395 -3.99995 9.98403e-07 
0.986237 -3.99998 5.13703e-07 
1.2544 -4 1.7569e-07 
1.51452 -4 -9.61783e-08 
1.78646 -4 -6.99239e-08 
2.06863 -4 -1.22455e-08 
2.35385 -4 -3.9804e-08 
2.6768 -4 2.11742e-08 
2.97563 -4 1.48152e-08 
3.29744 -3.99999 3.02491e-08 
3.58677 -3.99999 3.151e-08 
3.88927 -3.99999 1.7217e-08 
4.1995 -3.99999 1.6264e-08 
4.49739 -3.99999 1.19094e-08 
4.79674 -3.99999 4.04518e-09 
5.10535 -3.99999 -7.82257e-11 
5.41163 -3.99999 -9.36193e-10 
5.71875 -3.99999 -4.23557e-09 
6.01227 -3.99999 -5.35065e-09 
6.30505 -3.99999 -6.50657e-09 
6.60228 -3.99999 -7.86029e-09 
6.90058 -3.99999 -5.26353e-09 
7.17561 -3.99999 -1.11794e-08 
7.4766 -3.99999 -5.20867e-09 
7.77042 -3.99999 -1.38145e-08 
8.068 -3.99999 -9.71478e-09 
8.3592 -3.99999 -1.04195e-08 
8.65865 -3.99999 -1.25385e-08 
8.93232 -3.99999 -1.21262e-08 
9.27911 -3.99999 -5.53169e-09 
9.60582 -3.99999 -1.45721e-08 
9.89464 -3.99999 -1.52254e-08 
10.262 -3.99999 -2.09062e-08 
10.5747 -3.99999 -3.96332e-08 
10.9735 -3.99999 -3.63176e-08 
11.2927 -3.99999 -1.59591e-07 
11.5868 -3.99998 4.91752e-08 
12 -3.99998 4.88286e-08 
-12 -3.59722 6.07394e-08 
-11.7139 -3.71378 4.31382e-08 
-11.3624 -3.62608 6.73385e-09 
-11.0464 -3.67594 2.99409e-08 
-10.7095 -3.64423 -2.04001e-08 
-10.3911 -3.6792 2.32411e-09 
-10.0551 -3.65979 -1.54294e-08 
-9.73448 -3.65555 -1.63892e-08 
-9.4073 -3.68412 -5.22106e-09 
-9.07204 -3.66737 -7.43143e-09 
-8.75145 -3.66544 -5.79855e-09 
-8.43411 -3.67091 -3.88521e-09 
-8.11788 -3.66457 -2.81235e-09 
-7.80544 -3.65759 -3.9888e-09 
-7.5044 -3.65062 -3.55996e-09 
-7.2058 -3.66342 -8.96776e-10 
-6.89472 -3.66723 -3.76146e-11 
-6.5865 -3.66662 -2.77459e-10 
-6.27211 -3.67404 1.84848e-09 
-5.96356 -3.66566 2.72808e-09 
-5.65327 -3.66794 4.62284e-09 
-5.3476 -3.65978 7.44057e-09 
-5.05086 -3.65221 1.419e-08 
-4.72715 -3.6885 7.05909e-09 
-4.43545 -3.64443 3.1677e-08 
-4.13189 -3.66983 2.67304e-08 
-3.81542 -3.69129 2.05589e-08 
-3.50995 -3.67516 5.33839e-08 
-3.209 -3.68234 5.70763e-08 
-2.90993 -3.6827 6.41474e-08 
-2.62802 -3.66719 1.36381e-07 
-2.352 -3.66667 1.88541e-07 
-2.06415 -3.70388 2.52115e-08 
-1.77822 -3.6903 1.63876e-07 
-1.49782 -3.70038 1.16598e-08 
-1.2195 -3.67059 -1.06088e-07 
-0.922656 -3.67999 -2.19751e-07 
-0.624257 -3.61907 2.37022e-07 
-0.29575 -3.68403 -1.76232e-06 
0.00845016 -3.57975 -1.27197e-06 
0.317266 -3.64887 2.48062e-06 
0.644355 -3.63814 -4.06056e-07 
0.952962 -3.66678 2.63773e-07 
1.24253 -3.66698 1.92654e-09 
1.52763 -3.69136 6.88189e-08 
1.81556 -3.69991 -5.27181e-08 
2.10358 -3.69838 -5.46969e-08 
2.41577 -3.72609 -2.10101e-08 
2.71296 -3.69506 -6.77647e-08 
3.02307 -3.70548 -2.73794e-08 
3.31762 -3.6609 -8.26456e-08 
3.61733 -3.67002 -4.3887e-08 
3.9266 -3.67466 -2.97997e-08 
4.22693 -3.65765 -3.18325e-08 
4.52753 -3.65795 -2.12329e-08 
4.83887 -3.66945 -1.19754e-08 
5.15098 -3.66906 -9.51756e-09 
5.46295 -3.6717 -6.69886e-09 
5.76588 -3.65811 -4.95577e-09 
6.06327 -3.65936 -1.69999e-09 
6.36369 -3.6648 -1.56823e-10 
6.66712 -3.66554 -6.28182e-10 
6.95047 -3.63573 3.2425e-09 
7.25072 -3.66713 2.33139e-09 
7.55118 -3.65823 2.3094e-09 
7.85411 -3.66207 2.69581e-09 
8.15374 -3.65624 5.00668e-09 
8.45086 -3.66511 4.56913e-09 
8.73704 -3.62763 1.35898e-08 
9.05542 -3.7039 1.37808e-09 
9.38696 -3.68011 5.0166e-09 
9.69124 -3.63068 2.71232e-08 
10.0238 -3.70673 -5.93748e-09 
10.348 -3.64917 1.48278e-08 
10.7146 -3.72164 -4.64735e-08 
11.05 -3.64787 -1.04956e-09 
11.3547 -3.6159 7.32491e-10 
11.7095 -3.72384 -6.01274e-08 
12 -3.60175 -6.34134e-08 
-12 -3.29373 6.81076e-08 
-11.6294 -3.3627 -1.18063e-07 
-11.2843 -3.28399 -5.53495e-08 
-10.9724 -3.33161 -9.19681e-08 
-10.6563 -3.29501 -7.81922e-08 
-10.3392 -3.34445 -6.75388e-08 
-10.0187 -3.31907 -5.86005e-08 
-9.69762 -3.31938 -5.00394e-08 
-9.38305 -3.36271 -3.87766e-08 
-9.06724 -3.33505 -2.89748e-08 
-8.77131 -3.31208 -2.13384e-08 
-8.47466 -3.3367 -1.76821e-08 
-8.16852 -3.33143 -1.40712e-08 
-7.86304 -3.32763 -9.77609e-09 
-7.55766 -3.30891 -8.39437e-09 
-7.25923 -3.32345 -7.32548e-09 
-6.95562 -3.34735 -6.52925e-09 
-6.64443 -3.33784 -4.09482e-09 
-6.33479 -3.34788 -1.25775e-09 
-6.02798 -3.33782 2.21009e-09 
-5.7181 -3.33829 7.60453e-09 
-5.41074 -3.32793 1.45399e-08 
-5.10546 -3.30777 2.33862e-08 
-4.80144 -3.36427 3.63261e-08 
-4.50018 -3.30716 5.08371e-08 
-4.19722 -3.33517 7.19773e-08 
-3.89253 -3.37246 1.00418e-07 
-3.58801 -3.3637 1.37734e-07 
-3.27307 -3.36157 1.67013e-07 
-2.97083 -3.36819 2.20418e-07 
-2.66974 -3.33733 2.16924e-07 
-2.37771 -3.3347 2.31649e-07 
-2.08815 -3.38562 1.70218e-07 
-1.80002 -3.38606 1.39617e-07 
-1.49928 -3.38122 3.41826e-08 
-1.19716 -3.34382 -2.36633e-07 
-0.889296 -3.32832 -1.13406e-07 
-0.609804 -3.19453 5.17279e-07 
-0.318834 -3.30332 -1.80915e-06 
0.0104151 -3.15659 9.39903e-07 
0.324527 -3.24774 1.89101e-06 
0.617026 -3.20876 4.10452e-07 
0.913059 -3.31013 4.9295e-07 
1.21606 -3.33448 1.79566e-07 
1.50533 -3.36925 1.98216e-08 
1.79118 -3.38948 -1.35833e-07 
2.07882 -3.39127 -2.44449e-07 
2.37179 -3.43316 -2.83495e-07 
2.67023 -3.38876 -2.73801e-07 
2.97013 -3.39476 -2.18862e-07 
3.26117 -3.3339 -1.62157e-07 
3.56256 -3.33874 -1.29361e-07 
3.86421 -3.35041 -1.00886e-07 
4.16758 -3.32525 -7.18717e-08 
4.47095 -3.31904 -5.07915e-08 
4.77386 -3.33847 -3.70517e-08 
5.08187 -3.34199 -2.55716e-08 
5.39354 -3.34434 -1.52724e-08 
5.70018 -3.32903 -7.66043e-09 
6.00897 -3.31963 -3.00276e-09 
6.3063 -3.32954 7.00508e-10 
6.60812 -3.33625 4.01402e-09 
6.90658 -3.28701 5.00777e-09 
7.20366 -3.32883 6.69381e-09 
7.50531 -3.3233 8.48555e-09 
7.81066 -3.32931 1.10907e-08 
8.11786 -3.32083 1.3029e-08 
8.42211 -3.32005 1.60186e-08 
8.74557 -3.30984 2.21919e-08 
9.06918 -3.3864 2.97596e-08 
9.3822 -3.34135 3.94242e-08 
9.68369 -3.27961 4.72102e-08 
9.99288 -3.37732 6.02161e-08 
10.3038 -3.30544 7.08055e-08 
10.6345 -3.40605 8.87992e-08 
10.9687 -3.32925 1.01723e-07 
11.2997 -3.25539 4.42584e-08 
11.6327 -3.37417 1.23204e-07 
12 -3.28995 -6.5967e-08 
-12 -2.96575 7.09817e-08 
-11.661 -3.04931 -7.73737e-08 
-11.3195 -2.96628 2.88482e-08 
-10.9737 -2.97739 -8.95721e-09 
-10.6342 -2.96893 -5.9741e-09 
-10.3018 -3.00288 -1.28985e-08 
-9.97276 -2.98723 -1.56162e-08 
-9.64399 -2.99198 -1.5799e-08 
-9.3397 -3.02443 -1.44642e-08 
-9.03819 -2.98274 -9.63902e-09 
-8.73456 -2.96802 -7.38723e-09 
-8.43608 -2.99682 -6.76581e-09 
-8.13355 -2.99369 -5.01049e-09 
-7.83305 -2.99149 -3.06856e-09 
-7.53137 -2.97138 -1.08794e-09 
-7.23072 -2.99343 -9.31623e-10 
-6.93033 -3.0235 -5.82199e-10 
-6.62063 -3.01376 2.29923e-11 
-6.31861 -3.01623 1.18508e-09 
-6.01087 -3.01033 3.44158e-09 
-5.70456 -3.00697 5.98096e-09 
-5.39728 -2.99599 9.05924e-09 
-5.09204 -2.97406 1.13437e-08 
-4.79484 -3.03121 1.71066e-08 
-4.48949 -2.97879 1.81627e-08 
-4.19088 -3.00876 2.63488e-08 
-3.89302 -3.0506 4.01682e-08 
-3.59224 -3.04226 4.67393e-08 
-3.29008 -3.05501 6.43453e-08 
-2.96676 -3.04447 8.11272e-08 
-2.67033 -2.99864 7.29185e-08 
-2.36672 -2.99654 1.06017e-07 
-2.07697 -3.05022 4.30514e-08 
-1.7841 -3.06594 5.24285e-09 
-1.48065 -3.05521 -1.49078e-07 
-1.15635 -3.00252 -4.31241e-07 
-0.896009 -2.90105 -4.43348e-07 
-0.577472 -2.76826 -3.02353e-06 
-0.26597 -2.88245 2.44832e-06 
0.00455626 -2.61955 -1.06886e-06 
0.287607 -2.78472 -5.96811e-07 
0.566935 -2.7193 1.3279e-06 
0.878495 -2.89371 5.91236e-08 
1.17994 -2.97349 -2.6384e-08 
1.48882 -3.01444 -1.2845e-09 
1.7798 -3.05453 -1.08696e-07 
2.0701 -3.0651 -2.42653e-08 
2.36222 -3.11916 -1.13047e-07 
2.65865 -3.06424 -8.2263e-08 
2.95018 -3.07066 -7.62332e-08 
3.25296 -3.00445 -5.25779e-08 
3.55422 -3.01271 -4.5223e-08 
3.85906 -3.02342 -3.98698e-08 
4.16129 -2.99715 -2.77422e-08 
4.46315 -2.9884 -2.03227e-08 
4.7632 -3.00583 -1.61022e-08 
5.06603 -3.01268 -1.27577e-08 
5.37141 -3.01829 -9.05115e-09 
5.67979 -2.99931 -6.15799e-09 
5.98502 -2.99655 -4.05373e-09 
6.29819 -2.98879 -1.63631e-09 
6.59214 -3.00327 3.01313e-10 
6.91349 -2.97326 5.93665e-10 
7.2314 -2.99433 9.64514e-10 
7.53418 -2.99069 1.87443e-09 
7.83858 -2.99843 3.02975e-09 
8.14084 -2.98575 4.69269e-09 
8.44885 -2.99964 6.52606e-09 
8.75349 -2.97249 7.17251e-09 
9.05717 -3.06073 1.27051e-08 
9.35577 -2.9988 1.32029e-08 
9.66659 -2.94329 1.24104e-08 
9.99087 -3.03062 1.98383e-08 
10.3218 -2.97423 5.26156e-09 
10.6485 -3.07574 2.92562e-08 
10.9822 -2.99101 9.40926e-09 
11.3338 -2.93366 -3.78482e-08 
11.6681 -3.05252 7.89858e-08 
12 -2.94764 -7.77599e-08 
-12 -2.65156 5.75843e-08 
-11.6486 -2.7211 -3.09921e-08 
-11.3059 -2.64129 4.70544e-08 
-10.9681 -2.65417 -6.79126e-09 
-10.6341 -2.64138 1.5947e-09 
-10.3005 -2.67402 -3.66978e-09 
-9.96364 -2.66647 -9.89215e-09 
[...]
POINT_DATA 1978 
VECTORS vectors float
0.0116916 -0.0143979 0.999817 
0.0199848 -0.0481812 0.998639 
0.0149816 -0.0481626 0.998727 
0.016054 -0.039299 0.999099 
0.0156218 -0.0307837 0.999404 
0.016206 -0.0217433 0.999632 
0.0157934 -0.015473 0.999756 
0.0164212 -0.0112736 0.999801 
0.0167332 -0.00830077 0.999825 
0.0164455 -0.00646143 0.999843 
0.0167422 -0.00521236 0.999846 
0.016754 -0.00442184 0.999849 
0.0165336 -0.00394246 0.999856 
0.0162195 -0.00355078 0.999863 
0.0161427 -0.00317812 0.999865 
0.0162525 -0.00284259 0.999863 
0.0166382 -0.00263271 0.999856 
0.0166112 -0.00222879 0.99986 
0.0165867 -0.00166845 0.999861 
0.0165764 -0.000875412 0.999862 
0.0164634 0.000221735 0.999865 
0.0164886 0.00179065 0.999863 
0.0159127 0.00402612 0.999866 
0.016572 0.00700016 0.999838 
0.0161494 0.0118616 0.9998 
0.0152792 0.0175721 0.99973 
0.0158231 0.0258689 0.999541 
0.0151064 0.0381663 0.999159 
0.0141812 0.0537122 0.998458 
0.013425 0.0752191 0.99708 
0.0118782 0.104422 0.994466 
0.0100638 0.141531 0.989888 
0.00833919 0.19003 0.981748 
0.00616935 0.263177 0.964734 
0.00280825 0.352373 0.935861 
-0.000579829 0.47172 0.881753 
-0.00375238 0.610279 0.79218 
-0.00606286 0.778037 0.628186 
-0.00507383 0.919108 0.393961 
-0.000188753 0.99999 -0.00207547 
0.00540751 0.922966 -0.384832 
0.00617294 0.770441 -0.637479 
0.00338361 0.611182 -0.791485 
0.000575861 0.480903 -0.876771 
-0.00228511 0.369812 -0.929114 
-0.00553244 0.276741 -0.960934 
-0.00803044 0.203206 -0.979108 
-0.0108701 0.148152 -0.988909 
-0.0124049 0.103539 -0.994551 
-0.0138196 0.0737984 -0.997179 
-0.014404 0.0511742 -0.998588 
-0.0147145 0.0364269 -0.99923 
-0.0156453 0.0253772 -0.999557 
-0.0158272 0.017111 -0.999729 
-0.015817 0.0112704 -0.999812 
-0.0162151 0.00703026 -0.999844 
-0.0164378 0.00386976 -0.999857 
-0.0165806 0.00163015 -0.999861 
-0.0164762 6.22131e-05 -0.999864 
-0.0162546 -0.000959767 -0.999868 
-0.0164408 -0.00162697 -0.999864 
-0.0167368 -0.00219962 -0.999858 
-0.0160249 -0.00267924 -0.999869 
-0.0161842 -0.00296079 -0.999865 
-0.0166703 -0.00332961 -0.999856 
-0.0164016 -0.00380669 -0.999859 
-0.0164136 -0.00427887 -0.999857 
-0.0166128 -0.00477079 -0.999851 
-0.0157686 -0.0054028 -0.999862 
-0.0163385 -0.00623952 -0.999846 
-0.0174263 -0.0080668 -0.999814 
-0.0156439 -0.0108659 -0.999819 
-0.0162764 -0.0144802 -0.999762 
-0.0159978 -0.021409 -0.999641 
-0.015506 -0.0290844 -0.999453 
-0.0163344 -0.0402964 -0.999052 
-0.0142091 -0.0482936 -0.998733 
-0.0200664 -0.0483927 -0.998627 
-0.0119446 -0.014214 -0.999817 
0.00559753 -0.020464 0.999817 
0.0137976 -0.03143 0.999442 
0.0223619 -0.0439266 0.998806 
0.0219424 -0.0403031 0.998969 
0.0237115 -0.0320168 0.999228 
0.0231467 -0.024698 0.99945 
0.0247549 -0.0179259 0.999555 
0.0257518 -0.0129896 0.99961 
0.0252989 -0.00947975 0.999652 
0.0264586 -0.00708575 0.999646 
0.0268845 -0.00555249 0.999648 
0.0270893 -0.00455873 0.999643 
0.0276004 -0.0039228 0.999631 
0.0282972 -0.0034426 0.999613 
0.0289084 -0.00309055 0.999596 
0.0282627 -0.00278095 0.999618 
0.027774 -0.00238334 0.999633 
0.0281058 -0.00194237 0.999623 
0.0276351 -0.00135213 0.999637 
0.0279318 -0.000475009 0.999629 
0.0275768 0.000773308 0.999639 
0.0278104 0.00255963 0.99963 
0.0276098 0.00496496 0.999626 
0.0254173 0.00858949 0.999658 
0.0272589 0.0134747 0.999559 
0.0251244 0.0198733 0.999506 
0.0233683 0.0291517 0.999322 
0.0230675 0.0418948 0.998875 
0.021196 0.0589879 0.998053 
0.0193042 0.0827277 0.996404 
0.0174575 0.11331 0.993424 
0.0145364 0.154116 0.987963 
0.00986317 0.211012 0.977449 
0.00639487 0.288344 0.957523 
0.00227293 0.384627 0.92308 
-0.0014378 0.504138 0.863633 
-0.00400424 0.653868 0.756604 
-0.00493492 0.812285 0.583234 
-0.00294496 0.952383 0.30487 
-0.000328787 0.999937 -0.0106065 
0.00264863 0.944593 -0.328213 
0.00429661 0.798964 -0.60136 
0.00340057 0.63363 -0.773635 
0.000709029 0.48876 -0.872436 
-0.00304865 0.369423 -0.929266 
-0.00714279 0.273221 -0.96194 
-0.0109056 0.200931 -0.979562 
-0.0138814 0.142221 -0.989755 
-0.0173819 0.102832 -0.994565 
-0.0193372 0.0729751 -0.997163 
-0.0223427 0.052201 -0.998408 
-0.023322 0.0370927 -0.999059 
-0.0243262 0.0257461 -0.999392 
-0.025923 0.0177361 -0.999526 
-0.0264491 0.0118254 -0.9996 
-0.0264507 0.00733904 -0.999643 
-0.0269934 0.00408419 -0.999647 
-0.0273534 0.00178398 -0.999644 
-0.0284974 0.000253027 -0.999613 
-0.0286345 -0.000767343 -0.999609 
-0.0283809 -0.00150182 -0.999615 
-0.028678 -0.00211539 -0.999606 
-0.030086 -0.00250554 -0.999563 
-0.0282435 -0.00287628 -0.999616 
-0.0286277 -0.00330857 -0.999604 
-0.0284201 -0.0037566 -0.999608 
-0.0286844 -0.00424016 -0.999599 
-0.0282724 -0.00488926 -0.999604 
-0.0294864 -0.00566632 -0.999572 
-0.025109 -0.00698608 -0.999678 
-0.0257046 -0.00938409 -0.999646 
-0.0271841 -0.0125367 -0.999577 
-0.0228117 -0.0172232 -0.99961 
-0.0241169 -0.0236832 -0.999455 
-0.0204883 -0.0323198 -0.999291 
-0.0230301 -0.0402941 -0.998945 
-0.0225821 -0.0437784 -0.998808 
-0.0135607 -0.0319143 -0.99943 
-0.00538873 -0.02028 -0.999822 
0.00367221 -0.0183022 0.999841 
0.0216634 -0.0344909 0.999194 
0.0279922 -0.0426598 0.998721 
0.0294517 -0.0375805 0.998875 
0.0305634 -0.0308364 0.999081 
0.0317241 -0.0244691 0.999212 
0.0331544 -0.0183799 0.9993 
0.0344513 -0.0134368 0.99933 
0.0348022 -0.00978765 0.999369 
0.0359476 -0.00743408 0.999344 
0.036666 -0.00586986 0.999326 
0.0366231 -0.00469627 0.999334 
0.0369634 -0.00395901 0.999326 
0.0369429 -0.00346622 0.999328 
0.0372566 -0.00305452 0.99932 
0.0371573 -0.00267604 0.999325 
0.0374568 -0.0023029 0.999308 
0.0375867 -0.00183305 0.999308 
0.0373226 -0.0012323 0.999319 
0.0371585 -0.00037098 0.999326 
0.036729 0.00086204 0.999342 
0.0363089 0.00265893 0.999354 
0.0357981 0.00523276 0.999367 
0.0349758 0.00862244 0.999366 
0.034481 0.0135207 0.999333 
0.0334368 0.0199542 0.999258 
0.0321046 0.0286975 0.999085 
0.0303762 0.0406353 0.998733 
0.0279916 0.0579298 0.997945 
0.0252863 0.0808819 0.996416 
0.0215081 0.113089 0.99337 
0.0173675 0.15572 0.987672 
0.0130573 0.213946 0.976773 
0.00816698 0.28852 0.957455 
0.00258497 0.390469 0.920629 
-0.00206582 0.522094 0.852897 
-0.00494175 0.677629 0.735393 
-0.00505521 0.823281 0.567605 
-0.00392252 0.945808 0.32468 
-0.000492509 0.999903 -0.0134918 
0.00238773 0.942597 -0.333905 
0.00369529 0.817206 -0.576327 
0.00358317 0.660601 -0.750734 
0.000827571 0.507841 -0.861462 
-0.00343566 0.385687 -0.922638 
-0.00844899 0.28872 -0.957393 
-0.0134691 0.212876 -0.977003 
-0.018206 0.154993 -0.987761 
-0.0220605 0.11204 -0.993478 
-0.0251274 0.0806388 -0.996443 
-0.0278087 0.0593749 -0.997868 
-0.0298519 0.0422712 -0.998677 
-0.0316549 0.0298855 -0.999065 
-0.0330462 0.0209042 -0.99925 
-0.0339863 0.0141371 -0.999346 
-0.0349984 0.00916753 -0.999362 
-0.0358883 0.00547945 -0.999358 
-0.0364051 0.00280286 -0.99935 
-0.0369331 0.000981272 -0.999334 
-0.0372682 -0.000295243 -0.999322 
-0.0374364 -0.0011437 -0.999315 
-0.0374938 -0.00176389 -0.999308 
-0.0375621 -0.00222566 -0.999313 
-0.0375427 -0.00270138 -0.999304 
-0.0374436 -0.00310119 -0.999311 
-0.0373244 -0.00351956 -0.999314 
-0.0371107 -0.0040215 -0.99932 
-0.0367172 -0.00471403 -0.999336 
-0.0370185 -0.00587352 -0.999314 
-0.03576 -0.00749252 -0.99935 
-0.0354105 -0.00990316 -0.999341 
-0.0347044 -0.0133349 -0.999327 
-0.0328563 -0.0177465 -0.999321 
-0.0323262 -0.0238422 -0.999212 
-0.0301077 -0.0303991 -0.999099 
-0.0296011 -0.0373772 -0.998882 
-0.0275898 -0.0426469 -0.998733 
-0.0214336 -0.0341842 -0.99921 
-0.00342154 -0.0181302 -0.999853 
0.00320577 -0.0187778 0.999842 
0.0185945 -0.0323177 0.99933 
0.0235864 -0.042555 0.998833 
0.025706 -0.0376006 0.998984 
0.027166 -0.0314033 0.999157 
0.0291023 -0.0248411 0.999287 
0.0302673 -0.0186412 0.999387 
0.0314567 -0.0135177 0.999437 
0.0329326 -0.0100866 0.999421 
0.0330063 -0.00766649 0.999444 
0.0332068 -0.00586483 0.999447 
0.0339673 -0.00464453 0.999432 
0.0341136 -0.00385203 0.999428 
0.0341815 -0.00334962 0.999427 
0.033992 -0.00295633 0.999433 
0.0346468 -0.00257635 0.999411 
0.0349039 -0.00213075 0.999409 
0.0347479 -0.00159352 0.999412 
0.0346239 -0.00095064 0.999417 
0.0343532 -4.57001e-05 0.999427 
0.0339873 0.00129223 0.999439 
0.0334167 0.00328513 0.999453 
0.0326491 0.00617651 0.999461 
0.0325502 0.00977862 0.999444 
0.0310218 0.0152319 0.999416 
0.0301866 0.0218713 0.999322 
0.02926 0.030676 0.999122 
0.0274139 0.0432219 0.998702 
0.0252069 0.0598029 0.997909 
0.0218682 0.0847154 0.996188 
0.0179666 0.117939 0.992878 
0.0140859 0.163733 0.986425 
0.0104948 0.222335 0.974933 
0.00614821 0.300303 0.95384 
0.00163271 0.405903 0.913933 
-0.00197125 0.546827 0.837256 
-0.00312367 0.677577 0.73545 
-0.00244401 0.841658 0.539997 
-0.00192691 0.962457 0.271401 
0.000211191 0.999975 -0.00637007 
0.00143136 0.955344 -0.295475 
0.00205226 0.844504 -0.535534 
0.00250789 0.682933 -0.730482 
0.000882449 0.529743 -0.848171 
-0.00238598 0.397821 -0.917477 
-0.00657008 0.298645 -0.954357 
-0.0106761 0.221394 -0.975147 
-0.015552 0.162202 -0.986653 
-0.0188803 0.119027 -0.992728 
-0.0219096 0.0865205 -0.996029 
-0.0240084 0.0633897 -0.997714 
-0.0263501 0.0454507 -0.998637 
-0.0283895 0.0321208 -0.999102 
-0.0296703 0.0227753 -0.99932 
-0.0309831 0.0158465 -0.999405 
-0.0321332 0.0104546 -0.999446 
-0.03306 0.00645375 -0.99945 
-0.0337611 0.00353248 -0.999441 
-0.0339471 0.00146949 -0.99944 
-0.0342458 5.38041e-05 -0.999431 
-0.0343846 -0.000888777 -0.999425 
-0.0346331 -0.00152109 -0.99942 
-0.0344419 -0.00208948 -0.999418 
-0.0345046 -0.00259275 -0.999422 
-0.0344751 -0.00301973 -0.999418 
-0.0344944 -0.0034577 -0.999416 
-0.0342468 -0.00399481 -0.999424 
-0.0341224 -0.0048038 -0.999422 
-0.0335124 -0.00606918 -0.999438 
-0.0342565 -0.00779266 -0.9994 
-0.0326377 -0.0103198 -0.999432 
-0.0308531 -0.0140224 -0.999444 
-0.030867 -0.0188555 -0.999365 
-0.0286856 -0.025354 -0.999286 
-0.028716 -0.0313043 -0.999117 
-0.0259154 -0.0377481 -0.998971 
-0.0229329 -0.0427498 -0.998842 
-0.0182253 -0.031746 -0.999356 
-0.00296003 -0.0193862 -0.999843 
0.00261234 -0.0186031 0.999868 
0.0149185 -0.0330471 0.999372 
0.0191533 -0.0441241 0.998859 
0.0212727 -0.0381932 0.999066 
0.0228301 -0.0326852 0.99922 
0.0247055 -0.0259761 0.999381 
0.0260011 -0.0195082 0.99949 
0.0271682 -0.014292 0.999543 
0.0280698 -0.0103597 0.999575 
0.028203 -0.0076985 0.99959 
0.0283489 -0.00578249 0.999599 
0.0291113 -0.00451882 0.999583 
0.0291861 -0.00373378 0.999585 
0.02934 -0.00322747 0.999581 
0.0293134 -0.00280231 0.999584 
0.0297784 -0.00235094 0.999571 
0.0302064 -0.00184251 0.999559 
0.029827 -0.00125053 0.999571 
0.0297442 -0.000534475 0.999575 
0.0294186 0.000527185 0.999584 
0.0290406 0.00216687 0.999593 
0.0283792 0.00459866 0.999604 
0.027657 0.0081142 0.999602 
0.0275899 0.0121892 0.999562 
0.0259845 0.0184681 0.999508 
0.0252843 0.0259246 0.999361 
0.0243318 0.0355479 0.999089 
0.0224086 0.0490881 0.998561 
0.0204366 0.0681798 0.997482 
0.0171134 0.0941445 0.995431 
0.0133942 0.132667 0.991091 
0.0100436 0.181489 0.983362 
0.0066675 0.243408 0.969925 
0.00337443 0.327785 0.944766 
-0.000133542 0.452049 0.892005 
-0.00155808 0.56703 0.823714 
-0.00157952 0.727194 0.686431 
-0.000348342 0.843849 0.53657 
-0.000364177 0.938192 0.346096 
0.000109279 0.997715 0.067488 
0.000132495 0.960127 -0.279549 
0.000317107 0.832728 -0.553672 
0.00169266 0.691333 -0.722537 
0.000823041 0.52724 -0.849732 
-0.00143935 0.398547 -0.917167 
-0.00490525 0.292262 -0.956349 
-0.00853466 0.218992 -0.975708 
-0.0126944 0.160658 -0.986948 
-0.0149133 0.119324 -0.992768 
-0.0182512 0.0864926 -0.996104 
-0.0200664 0.061916 -0.997898 
-0.022455 0.0442429 -0.998786 
-0.0241356 0.0319186 -0.999216 
-0.0253148 0.0225775 -0.999442 
-0.0263635 0.0156918 -0.999546 
-0.0275516 0.0104295 -0.999583 
-0.0283651 0.00648246 -0.999594 
-0.0290066 0.00353548 -0.99959 
-0.0291077 0.00144076 -0.999593 
-0.0295483 1.59708e-05 -0.99958 
-0.0292606 -0.000853539 -0.999589 
-0.0300114 -0.00150818 -0.999565 
-0.0296716 -0.00208392 -0.999575 
-0.0296114 -0.00256983 -0.999575 
-0.0295335 -0.00302068 -0.999576 
-0.0294519 -0.00345799 -0.999577 
-0.0292812 -0.00402167 -0.999579 
-0.0294499 -0.00491778 -0.99957 
-0.0283286 -0.0062006 -0.999597 
-0.0295204 -0.00802385 -0.99955 
-0.0279813 -0.0108047 -0.999568 
-0.0263529 -0.0148942 -0.99956 
-0.0265046 -0.0199724 -0.999468 
-0.0243023 -0.0266551 -0.999369 
-0.0240565 -0.0326317 -0.999198 
-0.0212977 -0.0390389 -0.99903 
-0.018281 -0.0435755 -0.998902 
-0.0141628 -0.0317156 -0.999423 
-0.00281183 -0.0189241 -0.999847 
0.002512 -0.0187333 0.999866 
0.00945517 -0.0283791 0.999579 
0.0142869 -0.0438309 0.998955 
0.0163357 -0.0415522 0.999022 
0.0177768 -0.0357916 0.999221 
0.0194617 -0.0294577 0.999396 
0.0207547 -0.0228323 0.999543 
0.0216141 -0.0168484 0.999643 
0.0224376 -0.0122933 0.999691 
0.0226176 -0.00909727 0.999721 
0.0224031 -0.00666056 0.999744 
0.0228392 -0.00499389 0.999744 
0.0230394 -0.00403767 0.999744 
0.0232235 -0.00343776 0.999741 
0.023335 -0.0029912 0.99974 
0.0234608 -0.00249905 0.999739 
0.0238522 -0.00197323 0.99973 
0.0239393 -0.00143729 0.999729 
0.0235981 -0.000786409 0.999738 
0.0234357 9.64673e-05 0.999742 
0.0231929 0.00150241 0.999747 
0.0226805 0.00365638 0.999753 
0.022205 0.00677713 0.999747 
0.0213385 0.0109613 0.999729 
0.0214005 0.0157288 0.999664 
0.0199154 0.0228607 0.999556 
0.0193004 0.0312744 0.999341 
0.0183005 0.0419404 0.99897 
0.0169863 0.0579104 0.998195 
0.0146596 0.0784888 0.996826 
0.0115736 0.111583 0.993709 
0.00793305 0.158009 0.987429 
0.00506767 0.21975 0.975563 
0.00238371 0.297779 0.954658 
0.000383421 0.393844 0.919197 
-0.00138646 0.505107 0.863069 
-0.00155997 0.654121 0.756399 
-0.00117949 0.797838 0.602868 
-0.000292622 0.980116 0.198376 
-0.000240919 0.997507 -0.0704979 
-0.00140748 0.944736 -0.327804 
0.000393323 0.959 -0.283351 
-0.000845888 0.756906 -0.653519 
0.000586714 0.595225 -0.803575 
0.000261038 0.446268 -0.894921 
-0.00195253 0.327948 -0.944717 
-0.00454192 0.240677 -0.970619 
-0.00825804 0.177949 -0.984027 
-0.0101929 0.134281 -0.990907 
-0.0131204 0.0965206 -0.995265 
-0.0151739 0.0707064 -0.997401 
-0.0170219 0.0492813 -0.998658 
-0.0184097 0.0356622 -0.999212 
-0.019619 0.0256918 -0.999494 
-0.0203933 0.0181138 -0.999645 
-0.0214129 0.0123001 -0.999712 
-0.0221151 0.00794627 -0.999741 
-0.0227799 0.00461299 -0.999747 
-0.02305 0.00219131 -0.999749 
-0.0234503 0.000481036 -0.999742 
-0.0230014 -0.000547174 -0.999752 
-0.023778 -0.00127806 -0.999733 
-0.0239859 -0.0018394 -0.999728 
-0.0232219 -0.00240112 -0.999744 
-0.0233416 -0.00289511 -0.99974 
-0.0230818 -0.0033644 -0.999745 
-0.0227659 -0.00389 -0.999751 
-0.0228445 -0.00472031 -0.999749 
-0.0223237 -0.00617123 -0.999749 
-0.0235827 -0.00838697 -0.999704 
-0.0224927 -0.0115653 -0.999698 
-0.0209283 -0.0158705 -0.999674 
-0.0215483 -0.0212379 -0.999561 
-0.019532 -0.0283054 -0.999428 
-0.0196828 -0.0342182 -0.99924 
-0.0169546 -0.0403872 -0.99906 
-0.0140525 -0.0447947 -0.998916 
-0.0111487 -0.0334985 -0.999401 
-0.00241986 -0.018892 -0.999844 
0.00199965 -0.0181467 0.999853 
0.00798574 -0.0349508 0.999386 
0.0111634 -0.0458465 0.998905 
0.0122528 -0.0408355 0.99911 
0.0136778 -0.0348597 0.999318 
0.0147825 -0.0283522 0.999508 
0.015878 -0.0215171 0.999661 
0.0164621 -0.0156697 0.99976 
0.0166329 -0.0115026 0.999813 
0.0168245 -0.00834831 0.999841 
0.0168072 -0.00596818 0.999858 
0.0166863 -0.00459734 0.999867 
0.0169443 -0.00380584 0.999866 
0.0170441 -0.00330426 0.999866 
0.0172649 -0.00282468 0.999864 
0.0171381 -0.00227898 0.999867 
0.0172675 -0.00173447 0.999866 
0.0174686 -0.00116473 0.999864 
0.0170323 -0.00043608 0.999872 
0.0170225 0.000688473 0.999872 
0.0167243 0.00249546 0.999874 
0.0164058 0.00526482 0.999868 
0.0158417 0.00902221 0.99985 
0.0149928 0.0138599 0.999808 
0.0151614 0.0194543 0.999712 
0.0139369 0.0278079 0.999532 
0.0130616 0.0374828 0.999229 
0.0127428 0.0511589 0.998627 
0.0108573 0.0696177 0.997534 
0.00913423 0.0979682 0.995169 
0.00585073 0.14252 0.989799 
0.00323017 0.206324 0.978503 
0.00106416 0.289959 0.957062 
-0.000863401 0.403085 0.915186 
-0.00192345 0.575205 0.818026 
-0.00204447 0.712367 0.701809 
-0.00125301 0.885669 0.464347 
0.00424333 0.978601 0.205863 
-0.000892463 0.932621 0.360862 
0.000852246 0.989977 0.141142 
-0.00177571 0.991562 -0.129527 
-0.00410873 0.937029 -0.349188 
-0.00064589 0.838413 -0.545038 
-4.77979e-05 0.616357 -0.787479 
0.000417816 0.488766 -0.872433 
-0.000123258 0.354589 -0.935046 
-0.00179473 0.259017 -0.965896 
-0.00454473 0.183446 -0.98305 
-0.00701051 0.128598 -0.991694 
-0.00913287 0.0934306 -0.995604 
-0.0115706 0.0653517 -0.997812 
-0.0121987 0.0473952 -0.998821 
-0.0132854 0.0343997 -0.999337 
-0.0142285 0.0247616 -0.999609 
-0.0148589 0.0174431 -0.999754 
-0.0154281 0.0119598 -0.999826 
-0.0159557 0.00766753 -0.99986 
-0.0164692 0.00439555 -0.999872 
-0.0170105 0.00188493 -0.99987 
-0.0169111 0.000334394 -0.999874 
-0.0171667 -0.000734197 -0.999869 
-0.0172715 -0.00136644 -0.999867 
-0.0176917 -0.00192843 -0.999858 
-0.0167372 -0.00248954 -0.999874 
-0.0170578 -0.00300404 -0.999867 
-0.0164903 -0.00346731 -0.999875 
-0.0164559 -0.00405649 -0.999873 
-0.0166403 -0.00498303 -0.999862 
-0.0158447 -0.00645241 -0.999871 
-0.0177247 -0.0085448 -0.999824 
-0.0167018 -0.0117525 -0.99981 
-0.0156617 -0.0165257 -0.999759 
-0.0162449 -0.0225245 -0.999633 
-0.0145006 -0.0298506 -0.999468 
-0.0148386 -0.0359788 -0.999262 
-0.0122896 -0.0419056 -0.999065 
-0.00997504 -0.04601 -0.998909 
-0.00793546 -0.0335886 -0.999429 
-0.0017206 -0.0195545 -0.999838 
0.00114563 -0.0197549 0.999835 
0.00529773 -0.0336709 0.999441 
0.00754454 -0.0464785 0.998909 
0.0084988 -0.0431711 0.999053 
0.00953108 -0.0371193 0.999282 
0.010349 -0.0304626 0.999501 
0.0111412 -0.0234867 0.999681 
0.0117374 -0.0174251 0.999797 
0.0116403 -0.0126398 0.99987 
0.0117962 -0.00912567 0.999906 
0.0121139 -0.00657657 0.999922 
0.011604 -0.00488257 0.999938 
0.0117456 -0.00400314 0.99994 
0.0117627 -0.00347925 0.999941 
0.0119432 -0.00300523 0.999941 
0.0118575 -0.00246607 0.999943 
0.0116634 -0.00189212 0.999947 
0.0119094 -0.00133992 0.999945 
0.0117338 -0.000688533 0.999948 
0.0116356 0.000362395 0.999949 
0.0114665 0.00205588 0.999949 
0.0113664 0.0046705 0.999941 
0.0109248 0.00835447 0.999922 
0.0102768 0.0130366 0.999878 
0.00999579 0.0189693 0.999788 
0.00991742 0.0263014 0.999619 
0.00855663 0.0363941 0.999321 
0.00864106 0.0492246 0.998764 
0.00709504 0.0667953 0.997765 
0.00618224 0.0929106 0.995671 
0.00416923 0.131176 0.991374 
0.00187754 0.198221 0.980181 
0.000470052 0.284212 0.958791 
-0.000850449 0.39787 0.91746 
-0.0023481 0.626165 0.779697 
-0.00100499 0.784303 0.620376 
0.00155292 0.876646 0.481206 
0.00667853 0.992543 0.121667 
0.00531194 0.996016 0.0890131 
0.00318302 0.998814 0.0485082 
0.0030454 0.998687 0.0510146 
-0.00220649 0.993206 -0.116556 
0.00047423 0.814651 -0.579964 
0.000892457 0.668018 -0.744157 
0.00124788 0.491384 -0.87096 
0.000611065 0.389359 -0.921102 
-0.000117415 0.281776 -0.959504 
-0.00195675 0.198414 -0.980142 
-0.00391594 0.140683 -0.990071 
-0.00543081 0.0985415 -0.99514 
-0.00745875 0.0714971 -0.997431 
-0.00796376 0.0521224 -0.998625 
-0.00862686 0.0378548 -0.999263 
-0.00936809 0.0275891 -0.999592 
-0.00989839 0.0199185 -0.999768 
-0.0102715 0.0139056 -0.999866 
-0.0106202 0.00914963 -0.999918 
-0.0109078 0.00540044 -0.999944 
-0.0117088 0.00265471 -0.999943 
-0.0113702 0.000750433 -0.999954 
-0.0122013 -0.000463769 -0.99994 
-0.0117208 -0.00122214 -0.999947 
-0.0120949 -0.00179179 -0.999942 
-0.0116891 -0.00234151 -0.999946 
-0.0117423 -0.00292516 -0.999943 
-0.0113521 -0.00340012 -0.999946 
-0.0113917 -0.00393184 -0.999944 
-0.0112373 -0.00477983 -0.999947 
-0.0111543 -0.00640886 -0.999935 
-0.0123172 -0.0090188 -0.999901 
-0.0119751 -0.0127914 -0.999864 
-0.0108638 -0.0176445 -0.999803 
-0.0118128 -0.0232122 -0.999679 
-0.0102583 -0.0301793 -0.99951 
-0.0106007 -0.0366885 -0.99929 
-0.00869694 -0.0428486 -0.999063 