# vtk DataFile Version 3.0 
Exported using Morpho https://github.com/Morpho-lang/morpho 
ASCII 
DATASET UNSTRUCTURED_GRID 

POINTS 1978 float 
-11.9993 -3.99949 -5.59507e-06 
-11.5983 -3.99925 -4.09483e-05 
-11.2944 -3.99851 -8.88986e-06 
-10.9423 -3.99869 -2.08447e-05 
-10.6275 -3.99881 -1.62607e-05 
-10.2783 -3.99865 -1.25174e-05 
-9.95762 -3.99862 -9.64623e-06 
-9.64743 -3.99809 -1.35234e-05 
-9.31444 -3.9985 -4.74016e-06 
-8.9981 -3.99835 5.63978e-07 
-8.68358 -3.99831 -3.74067e-06 
-8.36621 -3.9987 -1.10231e-06 
-8.06102 -3.99825 -8.32701e-07 
-7.7652 -3.9985 -1.25647e-06 
-7.47913 -3.99851 1.37819e-06 
-7.18954 -3.99885 -3.30024e-06 
-6.89999 -3.99838 -2.7474e-07 
-6.59176 -3.99844 6.65855e-07 
-6.29438 -3.99853 7.05709e-07 
-5.98754 -3.99846 1.81331e-06 
-5.68843 -3.99852 2.42494e-06 
-5.38417 -3.99852 2.95845e-06 
-5.0849 -3.9985 5.22811e-06 
-4.79145 -3.9987 8.26085e-06 
-4.45814 -3.99823 9.34958e-06 
-4.17396 -3.99864 1.26633e-05 
-3.86722 -3.99862 1.72381e-05 
-3.5471 -3.99876 2.53161e-05 
-3.2513 -3.99924 3.42218e-05 
-2.95364 -3.99933 4.37667e-05 
-2.66213 -3.99994 5.55204e-05 
-2.3905 -3.99962 5.36857e-05 
-2.12929 -4.00082 4.955e-05 
-1.83091 -4.00048 4.129e-05 
-1.56166 -4.00044 2.26992e-05 
-1.27351 -3.99941 -2.09986e-05 
-0.991819 -3.9981 -7.89993e-05 
-0.685211 -3.99357 7.7962e-05 
-0.384656 -3.98967 -0.000285272 
-0.00179411 -3.98449 7.20609e-06 
0.372487 -3.98867 0.000308354 
0.691919 -3.994 -8.42091e-05 
0.986537 -3.99844 0.000124401 
1.25047 -3.9998 3.13405e-06 
1.50564 -4.00036 -3.95138e-05 
1.78342 -4.00091 -3.75397e-05 
2.0643 -4.00038 -6.57633e-05 
2.35129 -4.00037 -5.2975e-05 
2.67449 -3.99989 -5.22384e-05 
2.97524 -3.99922 -4.31206e-05 
3.29697 -3.99912 -3.31309e-05 
3.58639 -3.99869 -2.32674e-05 
3.88913 -3.99855 -1.95453e-05 
4.19906 -3.99857 -1.28399e-05 
4.49801 -3.99846 -7.76615e-06 
4.79726 -3.99853 -7.27467e-06 
5.1055 -3.99855 -6.09581e-06 
5.41204 -3.99873 -1.91413e-06 
5.719 -3.99849 -2.41399e-06 
6.01217 -3.99877 -8.36059e-07 
6.30443 -3.99871 -1.26988e-06 
6.60287 -3.9986 -1.86102e-06 
6.90086 -3.99869 4.43424e-06 
7.17506 -3.99855 -3.40856e-06 
7.47674 -3.99842 4.13365e-06 
7.77104 -3.99899 -3.92215e-06 
8.06751 -3.99833 2.69131e-06 
8.35951 -3.99912 1.24614e-06 
8.65813 -3.99852 2.62048e-06 
8.93183 -3.99862 6.53223e-07 
9.27891 -3.99902 6.89279e-06 
9.60651 -3.99833 1.06704e-05 
9.89427 -3.9988 5.51736e-06 
10.2623 -3.99885 1.58161e-05 
10.5744 -3.99859 1.54067e-05 
10.9735 -3.99891 2.40402e-05 
11.2928 -3.99854 9.15169e-06 
11.5875 -3.9993 3.97418e-05 
11.9994 -3.99945 8.55773e-06 
-11.9992 -3.59436 3.36536e-05 
-11.715 -3.71355 -6.35459e-16 
-11.3625 -3.62469 8.31638e-16 
-11.0466 -3.67547 7.79853e-16 
-10.7094 -3.64469 5.27991e-16 
-10.3918 -3.67907 3.79897e-16 
-10.0547 -3.65932 1.78122e-16 
-9.7346 -3.65398 3.34853e-17 
-9.40816 -3.68369 4.76601e-16 
-9.07344 -3.66716 3.24888e-16 
-8.75218 -3.66498 2.39959e-16 
-8.43405 -3.67163 2.78253e-16 
-8.11917 -3.66435 2.44036e-16 
-7.80711 -3.65756 1.43567e-16 
-7.50598 -3.64765 2.75146e-16 
-7.20813 -3.65393 2.51733e-16 
-6.89024 -3.67689 2.22954e-16 
-6.58301 -3.66476 3.34146e-16 
-6.27011 -3.67423 4.32079e-16 
-5.9627 -3.66523 4.5184e-16 
-5.65253 -3.66771 3.88311e-16 
-5.34644 -3.65922 3.91679e-16 
-5.04951 -3.65118 5.5869e-16 
-4.727 -3.69012 5.54137e-16 
-4.43345 -3.63863 4.23416e-16 
-4.1308 -3.6684 4.00926e-16 
-3.81456 -3.69033 4.34847e-16 
-3.5096 -3.67353 3.42507e-16 
-3.20855 -3.68289 3.81448e-16 
-2.90751 -3.68143 -2.45937e-17 
-2.62292 -3.67117 4.17734e-16 
-2.34772 -3.66583 1.93249e-16 
-2.05828 -3.71117 -1.43022e-15 
-1.77993 -3.69032 -6.4349e-16 
-1.4991 -3.70637 1.44751e-15 
-1.22003 -3.67421 1.0496e-15 
-0.920934 -3.68285 6.52434e-15 
-0.622048 -3.62671 8.73028e-15 
-0.296033 -3.67635 1.65355e-14 
0.0086235 -3.57784 4.95805e-15 
0.315601 -3.64638 -1.85187e-14 
0.638135 -3.64345 -7.17228e-15 
0.947734 -3.66712 -5.85101e-15 
1.23967 -3.67419 -6.91004e-16 
1.53088 -3.7018 -2.22948e-15 
1.81687 -3.70062 -2.38198e-16 
2.10059 -3.70184 1.32648e-15 
2.41237 -3.72512 6.63486e-16 
2.70882 -3.69323 3.85835e-16 
3.02519 -3.70477 -3.30114e-16 
3.31298 -3.65916 -4.22722e-16 
3.61512 -3.66955 -4.41275e-16 
3.9255 -3.67258 -4.86927e-16 
4.2255 -3.65736 -4.78404e-16 
4.52758 -3.65699 -4.27406e-16 
4.83966 -3.66898 -5.38015e-16 
5.15153 -3.66801 -4.20793e-16 
5.46384 -3.67229 -3.39992e-16 
5.76705 -3.65804 -3.90832e-16 
6.06397 -3.65933 -4.19482e-16 
6.36387 -3.66499 -3.21651e-16 
6.66699 -3.66507 -3.76009e-16 
6.95029 -3.63475 -3.00846e-16 
7.25079 -3.66619 -1.91865e-16 
7.55121 -3.65791 -2.7136e-16 
7.85377 -3.66202 -3.89113e-16 
8.15528 -3.65684 -2.25361e-17 
8.45132 -3.66312 -3.14662e-16 
8.73704 -3.62702 -5.38149e-18 
9.05527 -3.70378 -1.56764e-16 
9.38673 -3.68015 -4.52624e-16 
9.691 -3.62966 -1.47564e-16 
10.0233 -3.70678 -3.27722e-16 
10.3468 -3.64882 -3.98667e-16 
10.7142 -3.72122 -3.47758e-16 
11.0496 -3.64755 -6.79706e-16 
11.355 -3.6157 -7.17493e-16 
11.7105 -3.72368 6.33857e-16 
11.9993 -3.60167 -3.55363e-05 
-11.9986 -3.29345 1.36657e-05 
-11.6287 -3.36242 -2.30001e-16 
-11.2845 -3.28252 -3.77723e-16 
-10.9722 -3.33265 -7.46227e-16 
-10.6558 -3.29691 -4.9722e-16 
-10.3389 -3.34484 -1.1517e-16 
-10.0207 -3.31724 -4.95107e-16 
-9.69888 -3.31894 -4.40172e-16 
-9.38307 -3.3615 3.07795e-17 
-9.06558 -3.33595 6.41757e-17 
-8.77096 -3.31119 -2.94628e-16 
-8.47477 -3.33842 -2.74362e-16 
-8.16899 -3.33086 -2.15766e-16 
-7.86497 -3.32777 -3.55665e-17 
-7.5606 -3.30791 -8.73518e-17 
-7.25778 -3.31904 -1.47472e-16 
-6.95252 -3.35323 -1.86292e-16 
-6.64464 -3.33759 -1.75175e-16 
-6.33523 -3.34779 -1.67876e-16 
-6.02908 -3.33797 -1.77241e-16 
-5.7188 -3.33907 -2.30842e-16 
-5.41091 -3.32775 -2.83887e-16 
-5.10588 -3.30751 -1.81306e-16 
-4.80182 -3.35986 -3.2117e-16 
-4.50148 -3.30912 -2.27027e-16 
-4.19499 -3.33232 -2.94324e-16 
-3.89071 -3.37116 -2.66863e-16 
-3.58714 -3.36196 -1.50289e-16 
-3.27257 -3.36134 -3.17378e-16 
-2.97165 -3.36847 -2.59465e-16 
-2.67021 -3.34365 -5.29091e-16 
-2.3798 -3.3361 -4.61398e-16 
-2.09055 -3.39523 -3.79465e-16 
-1.7922 -3.38911 5.72767e-16 
-1.4939 -3.38726 1.40956e-15 
-1.19235 -3.35076 2.58446e-15 
-0.88926 -3.33222 5.30085e-15 
-0.608286 -3.20569 8.14331e-15 
-0.315493 -3.30339 1.4502e-14 
0.0133197 -3.16214 -4.40893e-15 
0.32189 -3.25511 -1.76728e-14 
0.613604 -3.22243 -1.19483e-14 
0.908495 -3.31436 -6.5055e-15 
1.2143 -3.34269 -2.46109e-15 
1.50219 -3.38882 -1.18672e-15 
1.79652 -3.39088 -2.64769e-16 
2.07879 -3.3915 6.14306e-16 
2.36848 -3.43687 3.52174e-17 
2.66581 -3.38731 -3.80021e-16 
2.96665 -3.40143 3.09457e-16 
3.26279 -3.3283 4.34619e-16 
3.56091 -3.3388 1.32572e-16 
3.86358 -3.34835 2.19381e-16 
4.16827 -3.32156 3.72177e-16 
4.46868 -3.31914 3.35112e-16 
4.77289 -3.33882 1.63165e-16 
5.08217 -3.34091 2.33793e-16 
5.39433 -3.34487 2.90801e-16 
5.70024 -3.32972 2.84689e-16 
6.00914 -3.31989 1.70901e-16 
6.30591 -3.33021 1.69768e-16 
6.60684 -3.33613 3.21553e-16 
6.90512 -3.2863 2.62908e-16 
7.2027 -3.328 2.58674e-16 
7.50463 -3.32339 7.21557e-17 
7.8102 -3.32961 7.69553e-17 
8.11686 -3.325 7.30327e-17 
8.42383 -3.31607 3.19363e-16 
8.74737 -3.30902 2.28928e-16 
9.06991 -3.38695 -2.32237e-16 
9.38221 -3.34174 -6.03289e-18 
9.68263 -3.27855 4.20474e-16 
9.99171 -3.37707 2.422e-16 
10.3036 -3.30579 3.10912e-16 
10.6347 -3.40675 4.30137e-17 
10.9693 -3.32859 1.01645e-15 
11.3006 -3.25559 3.63633e-16 
11.6329 -3.37407 4.79523e-16 
11.9982 -3.2893 -8.42568e-06 
-11.9987 -2.96495 1.97528e-05 
-11.6616 -3.04888 -8.0724e-16 
-11.3203 -2.96478 5.17156e-16 
-10.9722 -2.97999 -1.27168e-16 
-10.6356 -2.96905 5.1502e-16 
-10.3024 -3.00199 3.83445e-16 
-9.97233 -2.98757 -1.56067e-16 
-9.64288 -2.99249 -1.39851e-16 
-9.33771 -3.02371 2.4243e-16 
-9.03637 -2.98291 1.64973e-16 
-8.73211 -2.9692 -2.34561e-16 
-8.43535 -2.99694 -2.98295e-16 
-8.13415 -2.99174 -1.16866e-16 
-7.83361 -2.99212 2.14591e-17 
-7.53211 -2.97026 6.65899e-18 
-7.23524 -2.99246 -2.60721e-16 
-6.93197 -3.02654 -3.2579e-16 
-6.62154 -3.01347 -2.94854e-16 
-6.31976 -3.01661 -2.9565e-16 
-6.01235 -3.0109 -2.98537e-16 
-5.70606 -3.00757 -4.06676e-16 
-5.39845 -2.99581 -4.34935e-16 
-5.09238 -2.97461 -4.28425e-16 
-4.79455 -3.02834 -5.25844e-16 
-4.48887 -2.97858 -6.42252e-16 
-4.19127 -3.0075 -8.00341e-16 
-3.89192 -3.04971 -6.86765e-16 
-3.59225 -3.03995 -7.13005e-16 
-3.29076 -3.05538 -8.2492e-16 
-2.96932 -3.04565 -1.00542e-15 
-2.67213 -3.00429 -5.47925e-16 
-2.36482 -3.00485 -4.55083e-16 
-2.07426 -3.06649 3.21454e-17 
-1.78121 -3.06278 5.50969e-16 
-1.47575 -3.05698 5.85443e-16 
-1.1589 -3.00293 3.18528e-15 
-0.896657 -2.91267 6.12067e-15 
-0.580371 -2.7734 1.55057e-14 
-0.266004 -2.88826 -1.32613e-14 
0.00263694 -2.62149 5.39756e-15 
0.285098 -2.79357 -6.37363e-16 
0.565677 -2.73554 -1.05259e-14 
0.881682 -2.89894 -2.18609e-15 
1.18356 -2.97846 -1.01272e-15 
1.48933 -3.0237 -6.92261e-16 
1.77041 -3.07021 -4.0319e-16 
2.07419 -3.06179 1.22883e-17 
2.36066 -3.12541 7.1129e-17 
2.6592 -3.07135 5.69742e-16 
2.94964 -3.07273 8.56984e-16 
3.25342 -3.00302 9.33199e-16 
3.55404 -3.01032 7.24663e-16 
3.85569 -3.02243 5.03188e-16 
4.15871 -2.99572 8.13523e-16 
4.4638 -2.98582 6.99578e-16 
4.76267 -3.00563 5.33583e-16 
5.06514 -3.01284 4.55589e-16 
5.37145 -3.01863 4.58963e-16 
5.68021 -2.99954 4.25494e-16 
5.98549 -2.9966 2.34981e-16 
6.2981 -2.9897 1.99326e-16 
6.59221 -3.00303 2.60623e-16 
6.91315 -2.97242 2.75411e-16 
7.23049 -2.99419 2.06801e-16 
7.5328 -2.99136 1.48965e-16 
7.83565 -2.998 -2.57375e-17 
8.13752 -2.99227 1.7492e-16 
8.45138 -2.99655 2.69153e-16 
8.75876 -2.9724 1.34084e-16 
9.05963 -3.0612 -9.92032e-17 
9.35519 -2.99812 -2.9911e-16 
9.6668 -2.94316 6.08574e-17 
9.99116 -3.03063 3.19966e-16 
10.3219 -2.97391 -3.96994e-16 
10.6483 -3.07648 -7.53249e-17 
10.9821 -2.99078 5.41185e-17 
11.3337 -2.93394 -8.35232e-16 
11.6688 -3.05196 1.04303e-15 
11.9987 -2.94644 -2.10142e-05 
-11.9984 -2.65141 2.08206e-05 
-11.6499 -2.72069 -3.84806e-16 
-11.3048 -2.64408 9.11778e-16 
-10.9682 -2.65227 -7.86202e-17 
[...]
POINT_DATA 1978 
VECTORS vectors float
0.0581699 -0.0778698 0.995672 
0.0643642 -0.0579793 0.99693 
0.0644456 -0.0532832 0.997206 
0.0608555 -0.0430869 0.997934 
0.0621421 -0.0311128 0.998292 
0.0639667 -0.0211253 0.998422 
0.0655168 -0.0145717 0.998432 
0.0663763 -0.0105947 0.998423 
0.0670126 -0.00805994 0.998391 
0.0675546 -0.00625973 0.99836 
0.0676883 -0.00526539 0.99835 
0.0678589 -0.00469017 0.99833 
0.0680205 -0.00433582 0.998317 
0.0686876 -0.00402091 0.998263 
0.0692106 -0.00326755 0.998237 
0.0690254 -0.00279291 0.997994 
0.0681996 -0.00266593 0.9983 
0.0681389 -0.00256907 0.998297 
0.0681197 -0.0020131 0.9983 
0.0680689 -0.00118472 0.998308 
0.0679409 -0.000192316 0.998319 
0.0676163 0.00134187 0.998348 
0.0673103 0.00332532 0.99837 
0.0665113 0.00641806 0.99841 
0.0657201 0.0109337 0.998432 
0.0648073 0.0162666 0.998414 
0.0630282 0.0244164 0.998353 
0.06078 0.0359606 0.998136 
0.0582135 0.0514508 0.997598 
0.0548757 0.0721314 0.996481 
0.0501361 0.100786 0.994249 
0.0434806 0.137082 0.990183 
0.0358029 0.183621 0.982908 
0.024372 0.256969 0.966631 
0.0123075 0.344069 0.939328 
-0.00240713 0.46446 0.885962 
-0.0164471 0.6088 0.793365 
-0.0238669 0.775872 0.630281 
-0.0191737 0.919384 0.392005 
0.00014542 0.999227 -0.000987882 
0.0188168 0.92034 -0.389659 
0.0228927 0.768474 -0.639331 
0.0164514 0.606586 -0.795078 
0.00301012 0.474483 -0.880387 
-0.00999219 0.363589 -0.931955 
-0.022227 0.269755 -0.96318 
-0.0339825 0.196873 -0.980369 
-0.0422483 0.14372 -0.989287 
-0.0495353 0.0995779 -0.994376 
-0.0547141 0.0707187 -0.996599 
-0.0588505 0.0489065 -0.997693 
-0.0614954 0.0345614 -0.998149 
-0.0635161 0.0237992 -0.998345 
-0.064886 0.0160719 -0.998413 
-0.0658261 0.0104418 -0.998428 
-0.0665103 0.00620289 -0.998416 
-0.0670954 0.00326235 -0.998382 
-0.0675439 0.00112352 -0.998349 
-0.0679194 -0.00027334 -0.998321 
-0.0682418 -0.00113533 -0.998291 
-0.0683575 -0.00198714 -0.998282 
-0.0684681 -0.00242236 -0.998274 
-0.0687033 -0.0027866 -0.998258 
-0.0685834 -0.00325878 -0.998267 
-0.0684152 -0.00345417 -0.998269 
-0.0685596 -0.0039678 -0.998276 
-0.068199 -0.00472516 -0.99828 
-0.068321 -0.00501722 -0.998288 
-0.0682477 -0.00532002 -0.998289 
-0.0677724 -0.00642394 -0.998318 
-0.0668634 -0.00794186 -0.998378 
-0.0663116 -0.00999514 -0.998418 
-0.0653027 -0.0139231 -0.998445 
-0.0639847 -0.0207089 -0.998425 
-0.0627278 -0.0291553 -0.998303 
-0.0612181 -0.0447032 -0.99783 
-0.0642683 -0.0527866 -0.997242 
-0.0645605 -0.0576983 -0.996928 
-0.0583996 -0.0779284 -0.995653 
0.0358944 -0.0798414 0.996846 
0.0447492 -0.0669708 0.997994 
0.0421404 -0.0496867 0.999395 
0.0428798 -0.042602 0.999669 
0.0429803 -0.0343218 0.999947 
0.0453689 -0.0252582 1.00012 
0.045934 -0.0177055 1.00022 
0.0464158 -0.0126573 1.00049 
0.0484898 -0.00934901 0.999938 
0.0488033 -0.0070697 1.00016 
0.0491184 -0.00552689 1.00037 
0.0496225 -0.00460158 1.00012 
0.0493948 -0.00399583 1.00008 
0.0482602 -0.00372634 1.00016 
0.0478051 -0.00327146 1.00016 
0.0486606 -0.00284459 1.00035 
0.04996 -0.00268681 1.00004 
0.0496136 -0.00225889 1.00007 
0.0494919 -0.00155413 1.00008 
0.0491003 -0.000725059 1.0001 
0.0487328 0.000433504 1.00013 
0.0478392 0.0021574 1.00018 
0.0474462 0.00462455 1.0002 
0.0478343 0.00806901 0.999921 
0.0454207 0.0126585 1.00046 
0.0455593 0.0191692 1.00011 
0.0446201 0.0286025 0.999907 
0.0418852 0.0412625 0.999569 
0.0392938 0.0581503 0.998838 
0.0355731 0.0805268 0.997402 
0.0305643 0.111712 0.994568 
0.0254738 0.152463 0.989256 
0.0208923 0.208616 0.978766 
0.0126064 0.284606 0.959947 
0.00497661 0.384078 0.924148 
-0.00252279 0.503755 0.86471 
-0.0089575 0.649262 0.760973 
-0.0107688 0.808775 0.587321 
-0.00863346 0.948311 0.313163 
1.47905e-05 0.998212 -0.0073063 
0.00867839 0.942141 -0.331105 
0.0108796 0.796076 -0.604561 
0.00777016 0.631881 -0.775535 
0.00143833 0.488798 -0.873507 
-0.006084 0.369781 -0.930188 
-0.0142276 0.274096 -0.962764 
-0.022168 0.198677 -0.981042 
-0.0296742 0.140311 -0.990912 
-0.0340304 0.100975 -0.995568 
-0.0380769 0.0708985 -0.99806 
-0.0396677 0.0517328 -0.9992 
-0.0423066 0.036303 -0.999786 
-0.0442824 0.024941 -1.00005 
-0.045035 0.0171794 -1.00018 
-0.0461465 0.0111954 -1.00022 
-0.04749 0.00671576 -1.00018 
-0.0483127 0.00368922 -1.00015 
-0.0487549 0.0014308 -1.00012 
-0.0485036 -5.21423e-05 -1.00013 
-0.0487016 -0.00106848 -1.00011 
-0.0492022 -0.00178819 -1.00008 
-0.0488042 -0.00221697 -1.0001 
-0.0480845 -0.00271094 -1.00014 
-0.049093 -0.00323228 -1.0001 
-0.0489141 -0.00348389 -1.00011 
-0.0486906 -0.00389905 -1.00012 
-0.0484831 -0.00440706 -1.00012 
-0.0485414 -0.00491039 -0.999887 
-0.0474313 -0.00577429 -1.0004 
-0.0501995 -0.00721563 -0.999815 
-0.0487593 -0.00894396 -1.00012 
-0.0460166 -0.0121373 -1.00049 
-0.047647 -0.0172238 -0.999891 
-0.0446035 -0.0243695 -1.00039 
-0.0446965 -0.0343089 -0.99987 
-0.0417685 -0.042053 -0.999732 
-0.0416971 -0.0491457 -0.999443 
-0.0450023 -0.0665709 -0.998006 
-0.0357573 -0.0796356 -0.996874 
0.0305379 -0.0822808 0.996831 
0.0327526 -0.0596732 0.999174 
0.0293025 -0.0434833 1.00034 
0.031325 -0.040362 0.999911 
0.0317209 -0.0341712 1.00061 
0.0349343 -0.025632 1.00024 
0.0353945 -0.0183671 1.00062 
0.0364831 -0.0133338 1.00039 
0.0384704 -0.00982523 1.00082 
0.0386284 -0.00746939 1.00058 
0.038851 -0.00586173 1.00055 
0.0399629 -0.004718 1.0003 
0.0396472 -0.00389757 1.00053 
0.0400395 -0.0035066 1.00051 
0.0393294 -0.00332052 1.00073 
0.0401731 -0.00304937 1.00048 
0.0409736 -0.00263456 1.00023 
0.0402461 -0.00200483 1.00048 
0.0403455 -0.00137221 1.00048 
0.0399628 -0.000672052 1.0005 
0.0397877 0.000448794 1.00051 
0.0390984 0.00224802 1.00055 
0.0380203 0.00482482 1.0008 
0.0388143 0.00815189 1.00054 
0.0362388 0.0130757 1.00056 
0.0357864 0.0195818 1.00047 
0.0352172 0.0281663 1.00007 
0.0324434 0.0402333 1.00018 
0.0302327 0.0574015 0.999208 
0.0270704 0.0803739 0.997478 
0.0229554 0.110923 0.994894 
0.0185274 0.152851 0.989667 
0.0143957 0.210391 0.978813 
0.00826541 0.290656 0.958069 
0.00310289 0.393775 0.920317 
-0.00168287 0.52138 0.854248 
-0.00517616 0.672396 0.740585 
-0.00560044 0.820851 0.570269 
-0.00460857 0.946428 0.318718 
-0.00112648 0.997972 -0.0122334 
0.00297665 0.942428 -0.330141 
0.00425332 0.813453 -0.58074 
0.00392141 0.659787 -0.751952 
0.000888086 0.508146 -0.862259 
-0.00342361 0.384975 -0.924085 
-0.0087319 0.283966 -0.960031 
-0.0143094 0.20987 -0.97888 
-0.0202306 0.153119 -0.989046 
-0.0234531 0.111764 -0.994748 
-0.027544 0.0804663 -0.997699 
-0.029018 0.0583562 -0.999411 
-0.0319988 0.0417867 -0.99994 
-0.0344708 0.0294895 -1.00008 
-0.0352286 0.0204449 -1.0007 
-0.0364654 0.0137782 -1.00057 
-0.0379213 0.00877755 -1.00057 
-0.0386127 0.00515791 -1.00055 
-0.0395691 0.0024207 -1.00053 
-0.0397961 0.000527045 -1.0005 
-0.0400271 -0.00061965 -1.00048 
-0.0404884 -0.00132738 -1.00047 
-0.0410798 -0.00192261 -1.00023 
-0.0401268 -0.00242109 -1.00069 
-0.0408802 -0.00298411 -1.00024 
-0.0403941 -0.00337162 -1.00048 
-0.0400621 -0.0036968 -1.00049 
-0.0401024 -0.0040918 -1.00049 
-0.0399109 -0.00474431 -1.00073 
-0.0386775 -0.00589602 -1.00056 
-0.0403465 -0.00748838 -1.0005 
-0.0382478 -0.00983915 -1.00057 
-0.0357926 -0.0132063 -1.00065 
-0.0370583 -0.0175595 -1.00058 
-0.0333778 -0.0247824 -1.00058 
-0.0352218 -0.0333657 -1.00004 
-0.0308227 -0.039989 -1.00018 
-0.0286624 -0.0434875 -1.00036 
-0.0329385 -0.0605376 -0.999128 
-0.0299637 -0.0815591 -0.996923 
0.0231399 -0.0798534 0.997229 
0.0254776 -0.0601048 0.99934 
0.0260792 -0.0442065 0.999889 
0.0282593 -0.0413129 1.00041 
0.0302333 -0.0354472 1.00035 
0.0324679 -0.0262565 1.00055 
0.0340635 -0.0186973 1.00064 
0.0354708 -0.0134671 1.00089 
0.0370421 -0.010119 1.00037 
0.037505 -0.00773536 1.00059 
0.0381247 -0.00591595 1.00035 
0.0383176 -0.00457329 1.0008 
0.0384825 -0.00380685 1.00056 
0.0388244 -0.00348103 1.00053 
0.0391175 -0.0032749 1.0003 
0.0390629 -0.0028842 1.00049 
0.0392401 -0.00230083 1.00072 
0.03926 -0.0016736 1.00052 
0.039206 -0.00110849 1.00052 
0.0388846 -0.000379576 1.00054 
0.0385176 0.000848143 1.00056 
0.0379229 0.00290463 1.00058 
0.0372009 0.00582949 1.00037 
0.0365036 0.00941788 1.0008 
0.0355376 0.0150379 1.00032 
0.0343649 0.0216982 1.00046 
0.032808 0.0304846 1.0005 
0.0309732 0.0431891 0.999648 
0.0283108 0.0596179 0.999114 
0.0249558 0.0839879 0.99774 
0.0211422 0.116463 0.994399 
0.0164249 0.16302 0.987983 
0.0120057 0.221732 0.97643 
0.00681756 0.303182 0.954024 
0.00181485 0.407118 0.914854 
-0.00259344 0.547881 0.837536 
-0.00458164 0.679247 0.734339 
-0.00462989 0.838325 0.543926 
-0.00309575 0.959231 0.277556 
0.000167983 0.997865 -0.00930224 
0.00160448 0.951984 -0.300902 
0.00308166 0.83725 -0.545623 
0.00295545 0.679901 -0.733812 
0.00083544 0.530039 -0.849094 
-0.00284992 0.397306 -0.919014 
-0.00712691 0.299707 -0.955379 
-0.0124266 0.218087 -0.97721 
-0.0174728 0.160227 -0.988249 
-0.0211476 0.118445 -0.994089 
-0.024844 0.0858393 -0.99736 
-0.0275088 0.0629353 -0.998766 
-0.030038 0.0450782 -0.999849 
-0.0320746 0.03207 -1.00049 
-0.0338197 0.0227795 -1.00025 
-0.0351092 0.0155896 -1.00055 
-0.0364195 0.0102208 -1.00058 
-0.037304 0.00625581 -1.00059 
-0.0381284 0.00314897 -1.00057 
-0.0386659 0.000989644 -1.00055 
-0.038983 -0.00030222 -1.00054 
-0.0390236 -0.00107268 -1.00052 
-0.0391876 -0.00163693 -1.00072 
-0.0393226 -0.00223526 -1.00029 
-0.0391624 -0.00283898 -1.00073 
-0.0390735 -0.00332355 -1.00052 
-0.0390105 -0.00360448 -1.00052 
-0.0387772 -0.00396039 -1.00076 
-0.0390976 -0.00477626 -1.0003 
-0.038384 -0.0061234 -1.00056 
-0.0381922 -0.00791443 -1.00056 
-0.0370937 -0.0104601 -1.0006 
-0.0355503 -0.0140926 -1.00064 
-0.0342934 -0.0189515 -1.00063 
-0.0322229 -0.0269065 -1.00054 
-0.0304492 -0.0352042 -1.00035 
-0.0281287 -0.0412553 -1.00019 
-0.0256276 -0.0441348 -1.00016 
-0.0255279 -0.0612529 -0.999271 
-0.0233651 -0.0789127 -0.997309 
0.016563 -0.0791839 0.997414 
0.0202998 -0.0606231 0.999641 
0.0219519 -0.0439518 1.00024 
0.0242155 -0.0431259 1.0002 
0.026425 -0.0374748 1.00014 
0.0282366 -0.0275794 1.0009 
0.029964 -0.0196243 1.00075 
0.031315 -0.0144368 1.00056 
0.032068 -0.0106019 1.00101 
0.032176 -0.00783967 1.00079 
0.0321765 -0.00575298 1.00081 
0.0327839 -0.00435836 1.00077 
0.0328042 -0.00368097 1.00079 
0.0330797 -0.00345936 1.00074 
0.0329546 -0.00313182 1.00075 
0.033867 -0.00254679 1.00071 
0.0342802 -0.0018943 1.00071 
0.0337118 -0.00129741 1.00073 
0.0337056 -0.000753213 1.00074 
0.033328 0.000108839 1.00075 
0.0329504 0.00169173 1.00077 
0.0321712 0.00422586 1.00078 
0.0313426 0.00783179 1.00077 
0.0312965 0.0120905 1.00071 
0.0293948 0.0185496 1.00066 
0.0287408 0.0260449 1.00051 
0.0276817 0.0356218 1.00025 
0.0257623 0.0491403 0.999763 
0.0236314 0.0682452 0.998742 
0.0198076 0.0933312 0.996892 
0.0159148 0.131476 0.992747 
0.0112059 0.182197 0.984874 
0.00876318 0.237673 0.972842 
0.00404469 0.326314 0.94674 
-0.000576989 0.449785 0.894184 
-0.00300913 0.572007 0.821588 
-0.00304522 0.728673 0.684959 
-0.00135948 0.834178 0.550272 
-0.000613333 0.936655 0.346089 
0.000604754 0.995417 0.0702611 
0.00147775 0.958257 -0.279135 
0.00206188 0.833975 -0.55055 
0.00308899 0.684033 -0.729926 
0.0015521 0.525467 -0.852035 
-0.00161088 0.395996 -0.919766 
-0.00572012 0.294267 -0.957263 
-0.00988733 0.224257 -0.976007 
-0.0148002 0.162381 -0.988051 
-0.0176294 0.119229 -0.994439 
-0.0209875 0.0867696 -0.997397 
-0.022841 0.0618635 -0.999185 
-0.0254063 0.0444464 -1.00001 
-0.0275102 0.0318596 -1.00041 
-0.0287701 0.0225683 -1.00062 
-0.0297413 0.0155981 -1.00072 
-0.0313187 0.0103144 -1.00076 
-0.0323057 0.00622378 -1.00077 
-0.0329939 0.00313092 -1.00076 
-0.0330135 0.000934508 -1.00076 
-0.0334383 -0.000364329 -1.00074 
-0.0329264 -0.00100926 -1.00075 
-0.0339874 -0.00155918 -1.00071 
-0.0335082 -0.00217918 -1.00073 
-0.033384 -0.00283707 -1.00073 
-0.0332565 -0.00333405 -1.00075 
-0.0333981 -0.00359746 -1.00073 
-0.0328764 -0.00392816 -1.00053 
-0.0334405 -0.0047168 -1.00074 
-0.0320902 -0.00612189 -1.00079 
-0.0337463 -0.00816275 -1.00073 
-0.0321005 -0.0110672 -1.00079 
-0.0300776 -0.015052 -1.00082 
-0.0306012 -0.0201379 -1.00073 
-0.0281418 -0.0283855 -1.00063 
-0.0279534 -0.037282 -1.00035 
-0.024634 -0.0432122 -1.00019 
-0.0211018 -0.0453804 -1.00018 
-0.0204011 -0.0618141 -0.999332 
-0.016211 -0.0805754 -0.997311 
0.0108894 -0.0803101 0.997397 
0.0145016 -0.067758 0.998776 
0.0156892 -0.0492112 1.0001 
0.0174361 -0.0450711 1.00025 
0.0190356 -0.0415508 1.00038 
0.0209038 -0.0321165 1.00069 
0.0225686 -0.023419 1.00087 
0.0232298 -0.0171284 1.00096 
0.0241351 -0.0126076 1.00099 
0.0243525 -0.00930509 1.001 
0.0239649 -0.00664373 1.00102 
0.0241996 -0.00477848 1.00101 
0.0245183 -0.00389643 1.001 
0.0245967 -0.00362122 1.00099 
0.0249654 -0.00335508 1.00097 
0.0248134 -0.00274927 1.00098 
0.02567 -0.00203545 1.00095 
0.0255628 -0.00142197 1.00096 
0.0251505 -0.000955096 1.00098 
0.0250612 -0.000334154 1.00099 
0.024795 0.000962389 1.00099 
0.0242907 0.00319791 1.001 
0.0236814 0.00650348 1.00098 
0.0227328 0.010905 1.00094 
0.0229765 0.0158092 1.00085 
0.0210436 0.0231965 1.00075 
0.0203288 0.0315436 1.00054 
0.0195618 0.0423555 1.00019 
0.018268 0.0582903 0.999457 
0.0156998 0.0783231 0.998227 
0.0128407 0.110041 0.995392 
0.00884741 0.153551 0.98978 
0.00543622 0.218655 0.977182 
0.00256994 0.295346 0.957369 
-0.000360046 0.401422 0.91731 
-0.00246657 0.508878 0.861833 
-0.00266916 0.639146 0.769987 
-0.00226944 0.787788 0.615202 
-0.0014744 0.975188 0.212252 
-0.00298251 0.9948 -0.0711638 
-0.0023383 0.931627 -0.358062 
-0.00204198 0.944728 -0.323113 
0.000312161 0.75692 -0.653392 
0.00197167 0.603405 -0.798562 
0.00135477 0.450842 -0.894137 
-0.00164148 0.325226 -0.947316 
-0.00500744 0.235653 -0.973532 
-0.00961124 0.173082 -0.986449 
-0.0111224 0.132262 -0.992472 
-0.0143018 0.0968792 -0.996689 
-0.016157 0.0708876 -0.998753 
-0.0179829 0.049523 -0.999953 
-0.0196854 0.0356484 -1.00047 
-0.0209835 0.0258749 -1.00071 
-0.021719 0.0182677 -1.00086 
-0.0228156 0.0122931 -1.00094 
-0.0238086 0.00774993 -1.00098 
-0.0244146 0.00425763 -1.001 
-0.0245266 0.00168346 -1.001 
-0.0250078 -1.41638e-06 -1.00099 
-0.0243945 -0.000799261 -1.001 
-0.0253282 -0.00128597 -1.00097 
-0.0256279 -0.00184801 -1.00096 
-0.0246776 -0.00262691 -1.00098 
-0.024729 -0.00325021 -1.00098 
-0.0243961 -0.00357572 -1.00098 
-0.0239412 -0.00384286 -1.00101 
-0.0242074 -0.0045437 -1.00123 
-0.0236124 -0.00608903 -1.00103 
-0.025482 -0.0085541 -1.00098 
-0.0240665 -0.0118693 -1.001 
-0.0221298 -0.0162175 -1.00101 
-0.02333 -0.0216722 -1.0009 
-0.0208792 -0.0303524 -1.00075 
-0.0216345 -0.0393283 -1.00043 
-0.0182078 -0.0452652 -1.00022 
-0.0149633 -0.0468861 -1.00021 
-0.0145145 -0.0617721 -0.999423 
-0.010496 -0.0824117 -0.997225 
0.00672133 -0.0840457 0.997119 
0.00977128 -0.0621728 0.999704 
0.0114973 -0.0467128 1.00026 
0.0125495 -0.0464808 1.00025 
0.0140251 -0.0399811 1.00052 
0.0152386 -0.0299401 1.00083 
0.0162223 -0.0218239 1.00102 
0.0167384 -0.0159019 1.00109 
0.0168469 -0.0118269 1.00113 
0.0170599 -0.00842503 1.00114 
0.016825 -0.00574287 1.00115 
0.0166422 -0.00434605 1.00115 
0.0169531 -0.0038509 1.00114 
0.0170784 -0.00367978 1.00112 
0.0174203 -0.00323011 1.00112 
0.0170954 -0.00242271 1.00113 
0.0174535 -0.00169446 1.00113 
0.0175566 -0.00119267 1.00113 
0.0171304 -0.00078458 1.00114 
0.0171036 9.33178e-05 1.00115 
0.0168877 0.00191551 1.00115 
0.0165097 0.0048483 1.00113 
0.0159489 0.0088895 1.00109 
0.0149742 0.0139517 1.00103 
0.0155146 0.0195915 1.00091 
0.0136501 0.0278728 1.00075 
0.012982 0.0374466 1.00048 
0.0127718 0.0508317 0.999957 
0.0107223 0.0695498 0.998922 
0.00928494 0.0969219 0.99679 
0.00619255 0.13954 0.991902 
0.00290362 0.212589 0.978905 
0.000586252 0.297139 0.956522 
-0.00174934 0.413219 0.912189 
-0.00267749 0.577857 0.817529 
-0.00220746 0.725512 0.688395 
-0.00138266 0.865809 0.499517 
0.0026346 0.960182 0.273397 
-0.00254008 0.913929 0.401865 
-0.00105439 0.982948 0.175881 
0.000197296 0.994411 -0.0806343 
-0.00230263 0.926835 -0.3719 
-0.00116099 0.819534 -0.5723 
0.000883356 0.609828 -0.793572 
0.00175968 0.49256 -0.871669 
0.00101357 0.35994 -0.9346 
-0.000987804 0.264556 -0.966094 
-0.00457404 0.183788 -0.984978 
-0.00699599 0.129349 -0.993173 
-0.00935583 0.0938375 -0.997019 
-0.0115753 0.0662159 -0.9989 
-0.0121727 0.0472062 -1.00036 
-0.0131158 0.0342592 -1.0006 
-0.0142562 0.0248115 -1.00084 
-0.0148432 0.0175392 -1.00098 
-0.0155929 0.0118894 -1.00106 
-0.0160379 0.00746279 -1.00113 
-0.0165387 0.00394523 -1.00114 
-0.0171404 0.00125565 -1.00114 
-0.0169772 -0.000237507 -1.00114 
-0.0172103 -0.000978545 -1.00114 
-0.0174066 -0.00134871 -1.00113 
-0.0178298 -0.00192588 -1.00112 
-0.0167543 -0.00271925 -1.00113 
-0.0169488 -0.00342686 -1.00112 
-0.0164327 -0.00377853 -1.00115 
-0.0163132 -0.00397831 -1.00115 
-0.0164964 -0.0047116 -1.00093 
-0.0157826 -0.00624217 -1.00117 
-0.0180377 -0.00862419 -1.00114 
-0.0170529 -0.0121083 -1.00114 
-0.0158687 -0.0168183 -1.0011 
-0.0166779 -0.0229386 -1.00098 
-0.0148918 -0.0320793 -1.00078 
-0.0153185 -0.0414554 -1.00044 
-0.0125102 -0.0470268 -1.00022 
-0.010215 -0.0487045 -1.00016 
-0.00976181 -0.0638967 -0.999319 
-0.00694 -0.0831881 -0.997181 
0.0049119 -0.0835954 0.997154 
0.00642039 -0.0656935 0.998972 
0.00765479 -0.0495836 1.00016 
0.00844882 -0.0480255 1.00044 
0.00959082 -0.0428011 1.0002 
0.0103346 -0.0328798 1.00081 
0.0110966 -0.0240736 1.00103 
0.0118029 -0.0177081 1.00112 
0.0117156 -0.0130344 1.00118 
0.0117387 -0.00918302 1.0012 
0.0119138 -0.00628046 1.00121 
0.0113933 -0.00457994 1.00121 
0.0114599 -0.00401686 1.0012 
0.0115389 -0.00389543 1.00119 
0.0116765 -0.00349351 1.00119 
0.011671 -0.00266164 1.00119 
0.0114021 -0.00180599 1.0012 
0.0117223 -0.0013294 1.0012 
0.0115828 -0.00101146 1.00121 
0.0114571 -0.000269928 1.00122 
0.0113615 0.00139281 1.00122 
0.0111677 0.00418474 1.0012 
0.0108241 0.00811809 1.00116 
0.0100328 0.0130742 1.0011 
0.00989996 0.0193392 1.00098 
0.00952188 0.0260239 1.00083 
0.00826492 0.0364538 1.00076 
0.00844796 0.0495014 0.999816 
0.00707964 0.0668851 0.999383 
0.00621867 0.093182 0.99688 
0.00415592 0.130362 0.993104 
0.00174033 0.197365 0.982093 
-0.000865171 0.297121 0.956883 
-0.00209197 0.409073 0.913604 
-0.0015736 0.618849 0.786591 
-0.000421541 0.791101 0.611536 
0.00403395 0.901662 0.429875 
0.00658269 0.992468 0.121213 
0.00673039 0.997219 0.0743631 
0.00539018 0.998575 0.0493739 
0.00526561 0.999125 0.0294432 
6.36343e-05 0.997515 -0.0630425 
-0.00144429 0.807143 -0.588702 
-0.000476205 0.651365 -0.759861 
0.00136948 0.483251 -0.876322 
0.00203931 0.396251 -0.919362 
0.000776608 0.287506 -0.959437 
-0.00158202 0.202841 -0.98095 
-0.00380382 0.139467 -0.99191 
-0.00564142 0.0967873 -0.996856 
-0.00747492 0.0707237 -0.998891 
-0.00772773 0.0528067 -0.999703 
-0.00831767 0.0380187 -1.00054 
-0.00900837 0.0277205 -1.00082 
-0.0096987 0.0200328 -1.00097 
-0.0100914 0.013964 -1.00107 
-0.0104847 0.00909058 -1.00116 
-0.0108159 0.00511717 -1.00118 
-0.0115292 0.00205194 -1.00121 
-0.0113241 0.000124075 -1.00122 
-0.0118599 -0.000863047 -1.00121 
-0.0115628 -0.00127854 -1.00121 
-0.0119157 -0.00169942 -1.00121 
-0.0115141 -0.00244503 -1.00121 
-0.0114661 -0.00336468 -1.0012 
-0.0111191 -0.00384277 -1.0012 
-0.0112371 -0.0039708 -1.00121 
-0.0110494 -0.00449402 -1.00145 
-0.0109828 -0.00607572 -1.00123 
-0.0122213 -0.00905328 -1.00121 
-0.0119677 -0.0131425 -1.00118 
-0.0109321 -0.0179433 -1.00113 
-0.0117926 -0.0235898 -1.00103 
-0.0102637 -0.0321606 -1.00082 
-0.010694 -0.0419942 -1.00047 
-0.0087604 -0.0484316 -1.00017 
-0.00714054 -0.0497659 -1.00011 
-0.00663427 -0.0654755 -0.999223 
-0.0047585 -0.0846657 -0.99706 
0.00354813 -0.0847367 0.99706 
0.0043445 -0.0660896 0.999219 
0.00514537 -0.0506022 1.00011 
0.00601436 -0.0492689 0.99991 
0.00680768 -0.0426571 1.0007 
0.00740159 -0.0326637 1.00081 
0.0080443 -0.0238215 1.00103 
0.0085183 -0.0174782 1.00115 
0.00821632 -0.0124989 1.0012 
0.00820727 -0.00841659 1.00144 