# vtk DataFile Version 3.0 
Exported using Morpho https://github.com/Morpho-lang/morpho 
ASCII 
DATASET UNSTRUCTURED_GRID 

POINTS 1978 float 
-8.48528 -2.82843 1.15114e-12 
-8.29153 -2.82843 -5.94566e-12 
-8.09318 -2.82843 4.71681e-12 
-7.78377 -2.82843 -2.10206e-13 
-7.50325 -2.82843 -3.98997e-13 
-7.21255 -2.82843 1.35153e-12 
-6.99871 -2.82843 -2.00827e-12 
-6.7894 -2.82843 -3.70399e-13 
-6.58115 -2.82843 6.71631e-13 
-6.37387 -2.82843 -6.37084e-13 
-6.14405 -2.82843 1.19861e-13 
-5.93937 -2.82843 4.97473e-13 
-5.7008 -2.82843 -1.15608e-12 
-5.50643 -2.82843 2.60555e-12 
-5.28738 -2.82843 -5.20837e-12 
-5.08227 -2.82843 -5.07706e-13 
-4.85045 -2.82843 -4.01134e-13 
-4.66305 -2.82843 -8.22811e-13 
-4.42904 -2.82843 -1.42321e-12 
-4.22135 -2.82843 -1.59136e-12 
-3.99605 -2.82843 -3.78452e-12 
-3.79211 -2.82843 -4.36392e-12 
-3.5914 -2.82843 -7.87642e-12 
-3.37867 -2.82843 3.93194e-12 
-3.17206 -2.82843 8.32181e-13 
-2.96346 -2.82843 -1.92395e-12 
-2.75209 -2.82843 -1.19426e-11 
-2.54284 -2.82843 -1.55678e-11 
-2.34052 -2.82843 1.11413e-11 
-2.13112 -2.82843 -3.19274e-11 
-1.92032 -2.82843 -5.21022e-11 
-1.71169 -2.82843 -8.41662e-11 
-1.50942 -2.82843 -2.37761e-10 
-1.29087 -2.82843 -2.8786e-10 
-1.10908 -2.82843 -6.09214e-10 
-0.832643 -2.82843 9.76583e-11 
-0.639361 -2.82843 -5.78235e-11 
-0.437093 -2.82843 2.97964e-10 
-0.215824 -2.82843 6.90123e-10 
-0.00240452 -2.82843 -6.77048e-11 
0.224993 -2.82843 9.26505e-10 
0.432403 -2.82843 -1.29157e-10 
0.638509 -2.82843 4.4125e-10 
0.849542 -2.82843 3.03168e-11 
1.06882 -2.82843 6.00738e-10 
1.30638 -2.82843 -3.54898e-10 
1.50329 -2.82843 9.05949e-12 
1.70718 -2.82843 1.01806e-10 
1.90761 -2.82843 4.35001e-11 
2.12336 -2.82843 6.38086e-11 
2.34493 -2.82843 2.63807e-11 
2.55175 -2.82843 1.41273e-11 
2.77671 -2.82843 3.32002e-12 
2.98675 -2.82843 3.20993e-12 
3.20481 -2.82843 5.70804e-12 
3.40373 -2.82843 9.91432e-12 
3.62144 -2.82843 6.70232e-12 
3.81905 -2.82843 -1.70946e-12 
4.02972 -2.82843 1.3309e-12 
4.25332 -2.82843 -2.16551e-12 
4.44435 -2.82843 1.43044e-13 
4.65327 -2.82843 6.24684e-13 
4.86391 -2.82843 -3.06455e-12 
5.06626 -2.82843 -3.43342e-12 
5.28327 -2.82843 -7.79528e-13 
5.49477 -2.82843 2.39014e-13 
5.69572 -2.82843 -4.69239e-13 
5.91782 -2.82843 -2.34149e-12 
6.14118 -2.82843 2.18661e-13 
6.33764 -2.82843 -4.33065e-13 
6.5884 -2.82843 -1.20145e-12 
6.7976 -2.82843 1.12277e-12 
7.00197 -2.82843 -1.30422e-12 
7.2665 -2.82843 3.13274e-13 
7.50861 -2.82843 1.26966e-12 
7.75894 -2.82843 1.00146e-12 
8.0237 -2.82843 2.43065e-12 
8.20028 -2.82843 -1.2768e-11 
8.48528 -2.82843 -9.25802e-12 
-8.48528 -2.6144 7.02939e-13 
-8.23496 -2.56397 2.98535e-12 
-8.03115 -2.51142 -4.35018e-13 
-7.87912 -2.65516 -1.77735e-12 
-7.58461 -2.63336 -2.67281e-12 
-7.27521 -2.64252 -6.32306e-14 
-7.00517 -2.58216 6.41579e-13 
-6.78904 -2.5799 1.57747e-12 
-6.56915 -2.58231 -4.35527e-13 
-6.3352 -2.60973 6.88191e-13 
-6.12449 -2.58141 -2.06464e-13 
-5.88702 -2.61637 2.81289e-13 
-5.68423 -2.56624 3.38903e-13 
-5.46575 -2.59746 -4.83506e-12 
-5.2533 -2.58356 2.5785e-12 
-5.02626 -2.61311 -9.64535e-14 
-4.83128 -2.56214 -2.92662e-12 
-4.60944 -2.61602 1.19426e-12 
-4.39538 -2.59018 1.14788e-12 
-4.17321 -2.60914 2.83933e-12 
-3.96346 -2.58538 6.57349e-12 
-3.761 -2.58041 9.48208e-12 
-3.54565 -2.59379 8.70482e-12 
-3.3336 -2.58707 -1.04254e-12 
-3.11881 -2.5904 3.98951e-12 
-2.90378 -2.59434 8.83575e-12 
-2.68756 -2.59222 2.06785e-11 
-2.47509 -2.58466 3.29243e-11 
-2.26272 -2.59284 -5.79543e-13 
-2.04496 -2.5926 6.31818e-11 
-1.83011 -2.58756 5.69482e-11 
-1.61967 -2.57665 1.27555e-10 
-1.40951 -2.59211 3.47677e-10 
-1.21507 -2.54051 5.90537e-10 
-0.997142 -2.63794 8.11764e-10 
-0.80096 -2.55393 6.03744e-11 
-0.606201 -2.581 4.68239e-10 
-0.414521 -2.59337 -1.73525e-11 
-0.225807 -2.61269 -7.60881e-10 
-0.0285822 -2.60816 1.62354e-09 
0.187564 -2.6171 -1.59176e-09 
0.401241 -2.60349 9.21322e-10 
0.62186 -2.58476 -2.76244e-09 
0.839485 -2.59046 -5.84853e-10 
1.06375 -2.60964 -8.0663e-10 
1.27368 -2.58471 1.84779e-10 
1.51043 -2.57525 -2.51446e-11 
1.71224 -2.5735 -1.15864e-10 
1.93289 -2.59609 -1.52861e-11 
2.15959 -2.60421 -5.41221e-11 
2.37771 -2.58839 -2.64628e-11 
2.60032 -2.60695 -1.72036e-11 
2.81916 -2.58984 -1.01443e-11 
3.03979 -2.59869 -7.87824e-12 
3.24672 -2.57673 -7.40291e-12 
3.46463 -2.60021 -7.71388e-12 
3.66981 -2.57834 3.61834e-14 
3.88273 -2.59507 7.83305e-13 
4.10689 -2.60904 4.44661e-12 
4.31262 -2.57032 4.06704e-12 
4.52079 -2.59383 1.19602e-12 
4.73442 -2.59521 3.09285e-12 
4.94605 -2.58433 6.4365e-12 
5.16016 -2.6005 5.058e-12 
5.37938 -2.59385 -3.02548e-13 
5.58872 -2.57963 -5.36637e-13 
5.80494 -2.60289 2.57314e-12 
6.03114 -2.60114 4.1936e-13 
6.24501 -2.56591 3.50024e-13 
6.46227 -2.62055 1.31656e-12 
6.68972 -2.57505 -5.83466e-13 
6.89771 -2.56526 1.36906e-12 
7.12743 -2.62386 -1.70268e-12 
7.3837 -2.60293 -2.59487e-12 
7.62968 -2.61176 3.37282e-12 
7.88663 -2.62528 1.29904e-12 
8.08569 -2.52103 2.02304e-12 
8.29999 -2.63405 1.17033e-11 
8.48528 -2.5403 5.81991e-12 
-8.48528 -2.39496 -1.88061e-12 
-8.22195 -2.33057 -1.61986e-14 
-7.94728 -2.28916 1.18889e-12 
-7.74561 -2.44602 1.10206e-13 
-7.56952 -2.29101 2.94609e-13 
-7.42257 -2.46587 -5.25872e-13 
-7.15917 -2.40873 1.5954e-12 
-6.92289 -2.33412 -5.73045e-13 
-6.69715 -2.35112 4.66036e-13 
-6.45274 -2.37696 -4.01999e-14 
-6.24396 -2.35271 2.56707e-13 
-6.00256 -2.38369 -6.84066e-13 
-5.80127 -2.34274 -2.90628e-13 
-5.56675 -2.34818 1.00373e-12 
-5.36019 -2.35213 7.86982e-13 
-5.13042 -2.37556 2.11169e-12 
-4.937 -2.33529 7.82861e-13 
-4.69869 -2.36945 7.1723e-13 
-4.49423 -2.37163 1.83004e-12 
-4.26241 -2.37832 -9.92935e-13 
-4.05312 -2.36067 -1.76459e-12 
-3.83877 -2.33612 -1.80907e-12 
-3.62545 -2.35888 5.07222e-12 
-3.40946 -2.35224 5.82482e-12 
-3.19158 -2.35694 3.47515e-12 
-2.97343 -2.3581 -6.43744e-13 
-2.75957 -2.3611 6.25597e-13 
-2.54205 -2.35307 -1.50915e-11 
-2.32177 -2.35434 -2.86336e-11 
-2.10652 -2.36398 1.31173e-11 
-1.88478 -2.35342 7.74606e-11 
-1.6688 -2.33867 1.17038e-10 
-1.4519 -2.34214 1.66953e-10 
-1.23876 -2.29696 1.2745e-10 
-1.02264 -2.39061 2.26824e-10 
-0.823931 -2.31661 -2.33608e-10 
-0.614811 -2.33419 2.56045e-10 
-0.422977 -2.36182 -4.7682e-11 
-0.230171 -2.38548 -3.58505e-10 
0.00611541 -2.41536 -3.90415e-10 
0.222328 -2.40027 -1.1998e-09 
0.443095 -2.38924 -1.96208e-09 
0.679213 -2.36956 1.18761e-09 
0.865847 -2.3355 -3.20879e-10 
1.07944 -2.39128 8.92626e-11 
1.18858 -2.22504 4.1397e-10 
1.37344 -2.36516 -1.70444e-10 
1.59809 -2.31358 -7.4039e-11 
1.81445 -2.35878 -5.66395e-11 
2.03826 -2.37587 -2.99736e-11 
2.25863 -2.37201 1.2022e-11 
2.49314 -2.37017 1.1888e-11 
2.70615 -2.36966 6.03281e-12 
2.93606 -2.36478 5.65821e-12 
3.14392 -2.34348 3.86302e-13 
3.36888 -2.36005 -5.4437e-12 
3.57231 -2.343 -2.15059e-12 
3.78942 -2.35488 -1.2642e-12 
4.00789 -2.37973 -1.29765e-12 
4.21304 -2.34891 -1.4267e-12 
4.4409 -2.34741 -1.18146e-12 
4.64792 -2.35992 -1.33229e-12 
4.85843 -2.35476 -3.50635e-12 
5.08002 -2.36003 -4.01162e-12 
5.2922 -2.36894 -1.06353e-12 
5.50688 -2.34481 -5.47749e-13 
5.73033 -2.36262 -3.22139e-13 
5.94587 -2.37581 8.84944e-13 
6.16213 -2.34173 2.00569e-13 
6.40383 -2.36582 3.57564e-13 
6.60808 -2.36146 -6.75872e-13 
6.83831 -2.31218 4.75081e-13 
7.06613 -2.37347 -7.11414e-14 
7.28912 -2.39989 8.57671e-13 
7.55199 -2.38423 -1.80838e-12 
7.79491 -2.40644 8.74258e-14 
8.00431 -2.3013 -6.64043e-13 
8.26583 -2.35897 -2.03894e-12 
8.48528 -2.29575 9.52798e-13 
-8.48528 -2.13356 1.2809e-12 
-8.27951 -2.12583 1.38008e-12 
-8.05004 -2.08145 -1.43353e-12 
-7.75617 -2.13981 -1.65009e-13 
-7.49548 -2.06589 8.87178e-14 
-7.30861 -2.23302 9.99192e-14 
-7.07234 -2.14687 -5.81186e-13 
-6.81936 -2.11204 3.20632e-13 
-6.5804 -2.15589 -4.42801e-13 
-6.3689 -2.1183 -8.8951e-13 
-6.13105 -2.15328 8.27387e-13 
-5.92972 -2.11509 9.11798e-13 
-5.69492 -2.13014 1.98364e-12 
-5.47235 -2.10549 3.88608e-13 
-5.24956 -2.14477 4.57124e-12 
-5.05293 -2.09958 1.2785e-13 
-4.82172 -2.14272 7.78394e-13 
-4.60986 -2.12736 1.03196e-12 
-4.39369 -2.15864 1.73824e-13 
-4.18559 -2.1326 1.0628e-12 
-3.97719 -2.11939 -1.62189e-12 
-3.75569 -2.10931 -3.57459e-12 
-3.54656 -2.12633 -1.19055e-12 
-3.32547 -2.12316 -5.19558e-13 
-3.1099 -2.12688 -1.03205e-12 
-2.89612 -2.12186 -7.56994e-13 
-2.68241 -2.12814 -3.07885e-12 
-2.46022 -2.12607 -8.02342e-12 
-2.24042 -2.1235 -1.35462e-11 
-2.02545 -2.13324 -4.95634e-11 
-1.80704 -2.11325 -8.12427e-11 
-1.59466 -2.10311 -7.20163e-11 
-1.39417 -2.09393 -1.22346e-10 
-1.21539 -2.01654 2.53078e-11 
-1.04181 -2.15169 -3.20386e-10 
-0.804153 -2.10933 2.59057e-10 
-0.597005 -2.10765 8.84001e-10 
-0.402295 -2.14178 1.53066e-09 
-0.161632 -2.22909 5.4614e-09 
0.073128 -2.22608 -4.0177e-09 
0.304697 -2.19819 7.77885e-10 
0.472656 -2.03583 -4.35671e-09 
0.54871 -2.20533 -1.99675e-09 
0.726871 -2.08364 1.61182e-09 
0.939288 -2.12472 -4.64751e-10 
1.19085 -2.0364 4.82658e-11 
1.4405 -2.12212 8.05919e-11 
1.68869 -2.09603 -4.69547e-11 
1.90014 -2.14277 -4.16772e-11 
2.12007 -2.14739 5.95795e-12 
2.34429 -2.15804 1.83123e-11 
2.56203 -2.12974 1.98208e-11 
2.77868 -2.14707 3.91512e-12 
2.98508 -2.115 9.04341e-13 
3.20917 -2.12384 -4.63868e-12 
3.40949 -2.11015 1.81061e-15 
3.62557 -2.11436 -1.92581e-12 
3.84238 -2.13296 -4.67028e-13 
4.04327 -2.13136 -2.95807e-12 
4.2722 -2.13177 -1.41907e-13 
4.48319 -2.10857 -1.75797e-12 
4.69021 -2.12096 -2.68287e-12 
4.90988 -2.13113 -2.36554e-12 
5.12569 -2.12578 2.21836e-13 
5.33333 -2.12992 -2.23301e-12 
5.56538 -2.12539 -9.93331e-13 
5.7797 -2.12929 1.01805e-12 
5.99124 -2.13374 -7.28431e-13 
6.24141 -2.13741 2.22099e-13 
6.44937 -2.10899 -1.79042e-13 
6.66389 -2.12161 -5.96399e-13 
6.92674 -2.10325 -1.22171e-13 
7.14404 -2.14108 -1.22653e-12 
7.37744 -2.18897 3.07927e-13 
7.56472 -2.09034 7.7864e-13 
7.74848 -2.17663 -2.11538e-13 
7.95413 -2.06357 -1.03401e-12 
8.19173 -2.13341 -8.39333e-13 
8.48528 -2.11072 -1.38311e-12 
-8.48528 -1.84286 -2.13265e-12 
-8.3017 -1.88106 1.55061e-12 
-7.91252 -1.91661 7.92712e-13 
[...]
POINT_DATA 1978 
VECTORS vectors float
-8.84815e-05 0.0374756 0.999297 
0.000114236 0.0285511 0.999592 
0.00116401 0.0168031 0.999858 
0.000984139 0.00577644 0.999983 
-0.000899262 0.00340722 0.999994 
-0.00147531 0.00685427 0.999975 
-0.000696209 0.0220244 0.999757 
0.000165892 0.0388378 0.999246 
0.000459614 0.0429782 0.999076 
0.000142858 0.0379921 0.999278 
-7.51332e-05 0.0390125 0.999239 
-3.38686e-05 0.0378041 0.999285 
1.27541e-05 0.0398989 0.999204 
-1.07568e-05 0.0475375 0.998869 
-2.51484e-05 0.0640305 0.997948 
-1.75133e-05 0.0682875 0.997666 
-5.21082e-05 0.070965 0.997479 
-5.66917e-05 0.0712565 0.997458 
-2.12525e-05 0.0746747 0.997208 
-2.20789e-05 0.0819611 0.996636 
-5.37105e-05 0.0879994 0.996121 
-9.11843e-05 0.101598 0.994826 
-0.000123838 0.126724 0.991938 
-0.000113634 0.150048 0.988679 
-7.71337e-05 0.152306 0.988333 
-8.61529e-05 0.163711 0.986508 
-0.000147412 0.191424 0.981507 
-0.000122185 0.218332 0.975875 
-6.83744e-05 0.242687 0.970105 
-0.000158346 0.282894 0.959151 
-0.000231442 0.333699 0.94268 
-0.000155715 0.395262 0.918568 
-0.000122786 0.458552 0.888667 
-0.000245908 0.537901 0.843008 
-0.000349251 0.615221 0.788355 
-0.000291571 0.74675 0.665105 
-0.00024486 0.844872 0.534968 
-0.000189971 0.924224 0.381851 
-6.81432e-05 0.980984 0.194089 
-5.56129e-05 1 0.000916952 
-2.46881e-05 0.980085 -0.198579 
0.000129826 0.920125 -0.391626 
0.000203252 0.840049 -0.542511 
0.000208807 0.739902 -0.672714 
0.000154142 0.617934 -0.78623 
0.00014184 0.526327 -0.850282 
0.000168325 0.453641 -0.891184 
0.000184999 0.392076 -0.919933 
0.000203191 0.33289 -0.942966 
0.000160397 0.282018 -0.959409 
0.000123543 0.235428 -0.971892 
9.8673e-05 0.208348 -0.978055 
5.55331e-05 0.188815 -0.982013 
4.53699e-05 0.171439 -0.985195 
8.33068e-05 0.146963 -0.989142 
9.08667e-05 0.124216 -0.992255 
8.01253e-05 0.106421 -0.994321 
6.37826e-05 0.0982492 -0.995162 
4.90464e-05 0.0975064 -0.995235 
1.38119e-05 0.0934084 -0.995628 
-6.44313e-06 0.0902735 -0.995917 
-7.80174e-06 0.0856572 -0.996325 
-8.62846e-07 0.076706 -0.997054 
2.12104e-05 0.0582684 -0.998301 
-2.90419e-05 0.0395493 -0.999218 
-7.32161e-05 0.0393579 -0.999225 
-2.4861e-05 0.0415297 -0.999137 
-2.29602e-05 0.030446 -0.999536 
-4.07857e-05 0.0246646 -0.999696 
-2.39686e-05 0.027566 -0.99962 
-1.50336e-05 0.0339213 -0.999424 
-5.2876e-05 0.0367267 -0.999325 
-7.37605e-05 0.0367751 -0.999324 
4.45605e-05 0.0241423 -0.999709 
0.000150594 0.00545381 -0.999985 
0.000189146 0.00130492 -0.999999 
7.55024e-05 0.00468844 -0.999989 
-0.000183899 0.00764019 -0.999971 
-2.14177e-05 0.0392992 -0.999228 
0.00188342 0.0326102 0.999466 
0.00421464 0.0234713 0.999716 
0.00373311 0.0134143 0.999903 
0.00102979 0.00890868 0.99996 
-0.0017544 0.00549027 0.999983 
-0.00338514 0.00760701 0.999965 
-0.00575243 0.0195813 0.999792 
-0.0061056 0.0310685 0.999499 
-0.00565335 0.036114 0.999332 
-0.00409592 0.0361494 0.999338 
-0.00404359 0.0339855 0.999414 
-0.00275469 0.0328663 0.999456 
-0.00250379 0.0338739 0.999423 
-0.00213603 0.0436268 0.999046 
-0.0040106 0.0557841 0.998435 
-0.00472665 0.0662384 0.997793 
-0.00712043 0.069914 0.997528 
-0.00526573 0.072873 0.997327 
-0.00473862 0.07741 0.996988 
-0.00349582 0.0836585 0.996488 
-0.00319475 0.0911529 0.995832 
-0.00329593 0.103444 0.99463 
-0.00215059 0.122587 0.992455 
0.000243943 0.139863 0.990171 
0.00101561 0.152821 0.988253 
-0.00126119 0.172251 0.985052 
-0.00210351 0.198215 0.980156 
-0.000429223 0.22502 0.974354 
-0.00047011 0.256926 0.966431 
-0.00237769 0.300611 0.953744 
-0.0038262 0.352833 0.935679 
-0.0059387 0.415187 0.909717 
-0.00799842 0.492188 0.870452 
-0.00793949 0.573505 0.819164 
-0.00384134 0.673326 0.739335 
0.000813138 0.772263 0.635302 
0.00286187 0.86194 0.507002 
0.00270374 0.932581 0.360951 
0.00238795 0.977955 0.2088 
0.00173166 0.999365 0.035589 
0.00122029 0.987765 -0.155946 
0.000969813 0.9343 -0.356487 
0.00148665 0.851176 -0.524878 
0.00121857 0.745748 -0.666227 
0.00108795 0.637133 -0.770753 
-1.48779e-05 0.533418 -0.845852 
0.00195927 0.448512 -0.893775 
0.00446033 0.38451 -0.92311 
0.00487551 0.323124 -0.946344 
0.00457172 0.272138 -0.962247 
0.0035737 0.230516 -0.973062 
0.00224154 0.20011 -0.979771 
0.00104525 0.177823 -0.984062 
0.00123777 0.157736 -0.987481 
0.00423221 0.136566 -0.990622 
0.00558332 0.116866 -0.993132 
0.00498251 0.103686 -0.994598 
0.00258585 0.0980301 -0.99518 
0.000546963 0.0941981 -0.995553 
0.000569533 0.0887855 -0.996051 
4.21436e-05 0.0827027 -0.996574 
-0.000819507 0.0744735 -0.997223 
-0.00242181 0.0615254 -0.998103 
-0.00458366 0.0473617 -0.998867 
-0.00575204 0.0383621 -0.999247 
-0.0062178 0.0348688 -0.999373 
-0.00680465 0.0294967 -0.999542 
-0.00640426 0.0233335 -0.999707 
-0.00455395 0.0223972 -0.999739 
-0.00235883 0.0273691 -0.999623 
0.000293762 0.0300813 -0.999547 
0.00179322 0.0285152 -0.999592 
0.00255307 0.0250607 -0.999683 
0.00311632 0.0145879 -0.999889 
0.0020667 0.00702576 -0.999973 
0.00085956 0.00526016 -0.999986 
-0.00181963 0.00639099 -0.999978 
0.00306045 0.0122457 -0.99992 
0.0138325 0.0110497 -0.999843 
0.00329811 0.0258495 0.99966 
0.00776231 0.0193731 0.999782 
0.00386151 0.0102685 0.99994 
0.000167338 0.00690434 0.999976 
-0.0039637 0.00688388 0.999968 
-0.00536264 0.00733303 0.999959 
-0.00849055 0.0131061 0.999878 
-0.00951141 0.0192279 0.99977 
-0.00823215 0.025572 0.999639 
-0.00566125 0.0304092 0.999521 
-0.00473564 0.0299075 0.999541 
-0.00430403 0.0291768 0.999565 
-0.00391884 0.0305242 0.999526 
-0.00456757 0.03705 0.999303 
-0.00726969 0.0460142 0.998914 
-0.0110242 0.0583783 0.998234 
-0.0143009 0.064391 0.997822 
-0.0109435 0.0693869 0.99753 
-0.00774508 0.0744712 0.997193 
-0.00314261 0.0823492 0.996599 
-0.000748157 0.0892308 0.996011 
-1.31055e-05 0.0983266 0.995154 
-0.000413819 0.112875 0.993609 
0.00182966 0.1306 0.991434 
0.00314726 0.148194 0.988953 
0.000729734 0.166763 0.985997 
-0.00133494 0.187012 0.982357 
0.000840643 0.211212 0.97744 
0.00202666 0.243159 0.969984 
-0.000317973 0.282695 0.95921 
-0.00272404 0.332899 0.942959 
-0.00512639 0.392231 0.919853 
-0.00702618 0.467782 0.883816 
-0.00479809 0.554494 0.832174 
-0.0011569 0.662484 0.749075 
0.0056482 0.756663 0.65378 
0.00787381 0.851876 0.523685 
0.00770711 0.925955 0.377555 
0.00500777 0.978428 0.206528 
0.002675 0.999994 -0.00213894 
-0.000876699 0.978921 -0.204239 
-0.00488664 0.918657 -0.395027 
-0.00657543 0.82559 -0.564232 
-0.00572774 0.734635 -0.678439 
-0.00270194 0.62551 -0.780211 
-0.00557959 0.574693 -0.81835 
-0.00146838 0.496901 -0.867806 
0.00277777 0.416868 -0.908963 
0.00629714 0.351971 -0.93599 
0.00666328 0.296034 -0.955154 
0.00487571 0.251053 -0.967961 
0.00257319 0.211555 -0.977363 
0.000351219 0.184596 -0.982814 
-0.000523493 0.161644 -0.986849 
0.00272473 0.141079 -0.989995 
0.00717039 0.121613 -0.992552 
0.00854404 0.107932 -0.994122 
0.00800911 0.0991235 -0.995043 
0.00635938 0.0942573 -0.995528 
0.00572747 0.0889355 -0.996021 
0.00496811 0.0799599 -0.996786 
0.00293842 0.0706359 -0.997498 
0.000342263 0.0599796 -0.9982 
-0.00273845 0.0498384 -0.998754 
-0.00500112 0.0422674 -0.999094 
-0.00588598 0.0373546 -0.999285 
-0.00752741 0.0299789 -0.999522 
-0.00784655 0.0225578 -0.999715 
-0.00463545 0.0208553 -0.999772 
-0.00136076 0.0244454 -0.9997 
0.00072416 0.026875 -0.999639 
0.00348309 0.0249991 -0.999681 
0.00537999 0.0185609 -0.999813 
0.00645257 0.0123391 -0.999903 
0.00435497 0.00735256 -0.999963 
0.000922848 0.00498059 -0.999987 
-0.00393007 0.00280144 -0.999988 
-0.00491929 0.0046733 -0.999977 
-0.00876472 -0.000882548 -0.999961 
0.0149198 0.0230443 0.999623 
0.0115473 0.0200407 0.999732 
0.00617756 0.0146515 0.999874 
-0.000205967 0.00706434 0.999975 
-0.00444089 0.00677664 0.999967 
-0.00877293 0.00988887 0.999913 
-0.00942507 0.0135281 0.999864 
-0.00944275 0.0159288 0.999828 
-0.007511 0.0218479 0.999733 
-0.00469324 0.0237952 0.999706 
-0.0035466 0.0274024 0.999618 
-0.0022859 0.0304355 0.999534 
-0.00424982 0.0360837 0.99934 
-0.0078776 0.0449589 0.998958 
-0.0130778 0.052996 0.998509 
-0.0172119 0.0591237 0.998102 
-0.0158619 0.0631254 0.997879 
-0.0109064 0.0669876 0.997694 
-0.00526872 0.0770046 0.997017 
-0.00124143 0.0853891 0.996347 
0.00162926 0.0927331 0.99569 
0.00367406 0.103096 0.994665 
0.00581877 0.118777 0.992904 
0.00753972 0.136775 0.990573 
0.00570526 0.154454 0.987984 
0.00159213 0.172655 0.984981 
0.000103403 0.192241 0.981348 
0.00149479 0.217538 0.976051 
0.00179114 0.251613 0.967826 
0.00190712 0.295721 0.955273 
0.00125778 0.350388 0.936604 
-0.00121769 0.417165 0.90883 
1.15468e-05 0.491448 0.870907 
0.00627358 0.564832 0.825182 
0.00524794 0.640412 0.768014 
0.0123537 0.757056 0.653234 
0.0167601 0.855865 0.516928 
0.0175414 0.931853 0.36241 
0.00911646 0.989534 0.144012 
-0.000512997 0.997448 -0.07139 
-0.0106316 0.960352 -0.278587 
-0.0309806 0.902805 -0.428932 
-0.0182542 0.871767 -0.489581 
-0.0246844 0.792113 -0.609875 
-0.0131977 0.6948 -0.719082 
-0.00874523 0.580223 -0.814411 
-0.00232132 0.47446 -0.880274 
0.0021589 0.383439 -0.923564 
0.00524787 0.327326 -0.944897 
0.00610524 0.279837 -0.960028 
0.00528704 0.236814 -0.971541 
0.00303766 0.20298 -0.979178 
-0.000347409 0.176599 -0.984283 
-0.000687303 0.154287 -0.988026 
0.00300172 0.132277 -0.991208 
0.00619533 0.116494 -0.993172 
0.00931213 0.103758 -0.994559 
0.0101093 0.0949762 -0.995428 
0.00915477 0.089795 -0.995918 
0.0082422 0.0847309 -0.99637 
0.0073534 0.0767963 -0.99702 
0.00390961 0.0677715 -0.997693 
-0.00148318 0.0606197 -0.99816 
-0.00620594 0.0559836 -0.998412 
-0.00747101 0.0500023 -0.998721 
-0.00731129 0.0412111 -0.999124 
-0.00629722 0.0300877 -0.999527 
-0.00427953 0.0228721 -0.999729 
-0.00125037 0.0227997 -0.999739 
-0.000294985 0.0258452 -0.999666 
0.000788488 0.0266161 -0.999645 
0.00378794 0.0211812 -0.999769 
0.00681812 0.0132501 -0.999889 
0.00669094 0.00701136 -0.999953 
0.00274894 0.00233886 -0.999993 
0.000105729 0.00180321 -0.999998 
-0.00646995 -0.00330979 -0.999974 
-0.0103047 0.00114148 -0.999946 
-0.0196426 0.00581689 -0.99979 
0.00141681 0.0227787 0.99974 
0.00579342 0.0185674 0.999811 
0.00166188 0.00977287 0.999951 
-0.000429673 0.00515055 0.999987 
-0.00120401 0.00506146 0.999986 
-0.00656028 0.00993712 0.999929 
-0.00354462 0.00796843 0.999962 
-0.00757825 0.0111124 0.99991 
-0.00825365 0.0118899 0.999895 
-0.00571206 0.0169791 0.99984 
-0.0019473 0.0246982 0.999693 
0.00198991 0.0303329 0.999538 
0.00239472 0.0362734 0.999339 
-0.000576289 0.0443622 0.999015 
-0.00856523 0.0529561 0.99856 
-0.0137951 0.057428 0.998254 
-0.0155562 0.0598492 0.998086 
-0.0109709 0.0615251 0.998045 
-0.00649143 0.0684161 0.997636 
-0.00354003 0.0776376 0.996975 
-0.0012006 0.0864502 0.996255 
0.00122589 0.095944 0.995386 
0.00610974 0.110402 0.993868 
0.0106057 0.12758 0.991772 
0.00971411 0.144671 0.989432 
0.00454898 0.162774 0.986653 
0.000550206 0.182021 0.983294 
2.55498e-05 0.202374 0.979308 
-0.000150337 0.230532 0.973065 
0.0010235 0.27086 0.962618 
0.00259168 0.32113 0.947032 
0.00154483 0.386541 0.922271 
0.00273088 0.458104 0.888894 
0.0136055 0.558821 0.829176 
0.0163544 0.676162 0.736571 
0.0304493 0.764812 0.643532 
0.0410276 0.843339 0.535813 
0.0471028 0.909787 0.412394 
0.028079 0.967056 0.253009 
0.0106661 0.9985 0.0536939 
-0.015039 0.983775 -0.178771 
-0.044916 0.928321 -0.369056 
-0.0556045 0.820436 -0.569028 
-0.0367505 0.733608 -0.678578 
-0.0194914 0.640884 -0.76739 
-0.00973543 0.536449 -0.843876 
-0.00340775 0.471481 -0.88187 
-0.00191158 0.40661 -0.9136 
-0.000426453 0.344335 -0.938847 
0.00394889 0.297779 -0.954627 
0.00756172 0.252762 -0.967499 
0.00822301 0.217066 -0.976122 
0.00250101 0.184644 -0.982802 
-0.000540811 0.161021 -0.986951 
-0.000188963 0.136444 -0.990648 
0.00269996 0.119568 -0.992822 
0.0066101 0.107124 -0.994224 
0.00908075 0.0962094 -0.99532 
0.00796881 0.0890328 -0.995997 
0.0077185 0.0846639 -0.99638 
0.00623849 0.0777037 -0.996957 
0.00316555 0.0710654 -0.997467 
-0.00289491 0.0677982 -0.997695 
-0.00957963 0.0660086 -0.997773 
-0.0116984 0.0602548 -0.998114 
-0.00972993 0.0493721 -0.998733 
-0.00580541 0.0339119 -0.999408 
-0.00251417 0.0244871 -0.999697 
-0.000269445 0.0235354 -0.999723 
9.6363e-06 0.0262353 -0.999656 
-0.000458401 0.0254638 -0.999676 
0.000856119 0.0216431 -0.999765 
0.00311514 0.0133927 -0.999905 
0.00362037 0.00695457 -0.999969 
0.000278632 0.00220882 -0.999998 
-0.00312675 -0.00471511 -0.999984 
-0.00761671 -0.00982929 -0.999923 
-0.00901075 -0.00323799 -0.999954 
-0.00340546 0.00761813 -0.999965 
-0.00121322 0.00152408 0.999998 
0.00306946 0.00613945 0.999976 
0.00286236 0.0115255 0.999929 
0.00148235 0.00406434 0.999991 
0.00104384 0.00206172 0.999997 
0.000212174 0.00457576 0.999989 
-0.00367477 0.00819695 0.99996 
-0.00457867 0.00961324 0.999943 
-0.00174559 0.0162015 0.999867 
0.000545654 0.0233357 0.999728 
0.00674587 0.0318952 0.999468 
0.0103092 0.0368362 0.999268 
0.00977311 0.0451853 0.998931 
0.00319554 0.0532827 0.998574 
-0.00204756 0.0580127 0.998314 
-0.00929154 0.05985 0.998164 
-0.00729504 0.0603977 0.998148 
-0.00486557 0.0632422 0.997986 
-0.00309061 0.0693785 0.997586 
-0.00321808 0.0778065 0.996963 
-0.00318723 0.0872848 0.996178 
-0.00133585 0.100425 0.994944 
0.00222588 0.117272 0.993097 
0.00635285 0.133817 0.990986 
0.0047465 0.150815 0.988551 
-3.65261e-05 0.169334 0.985559 
-0.00184418 0.188006 0.982166 
-0.00101935 0.207217 0.978294 
-0.000211171 0.235032 0.971988 
0.000597195 0.275009 0.961442 
0.000791211 0.328278 0.944581 
0.00200178 0.388573 0.921416 
0.00853592 0.470578 0.882317 
0.0273287 0.535642 0.844003 
0.0323939 0.629633 0.776217 
0.0580813 0.701336 0.710461 
0.0872908 0.789357 0.607697 
0.0902507 0.884369 0.457981 
0.0489034 0.970004 0.238121 
0.00542062 0.999981 -0.0027723 
-0.0357995 0.974468 -0.221654 
-0.0846839 0.877581 -0.471889 
-0.0923892 0.77526 -0.62485 
-0.0642781 0.694527 -0.716589 
-0.0357864 0.620056 -0.783741 
-0.0236539 0.535399 -0.844268 
-0.00825776 0.456564 -0.889652 
-0.00336131 0.380665 -0.924707 
-0.00142248 0.323589 -0.946197 
0.00292228 0.278774 -0.960352 
0.00806281 0.241022 -0.970486 
0.00900255 0.208082 -0.97807 
0.00474536 0.182093 -0.98327 
-0.000665344 0.156401 -0.987693 
-0.00108677 0.136305 -0.990666 
0.00182072 0.122724 -0.992439 
0.00483068 0.110455 -0.993869 
0.00366616 0.100206 -0.99496 
0.00149395 0.0913941 -0.995814 
0.00149514 0.0845446 -0.996419 
0.000923965 0.0776185 -0.996983 
-0.000823453 0.0737742 -0.997275 
-0.00503667 0.0712948 -0.997443 
-0.0081304 0.0655483 -0.997816 
-0.00772104 0.0552932 -0.99844 
-0.00583164 0.0426079 -0.999075 
-0.00235564 0.0285919 -0.999588 
0.000157654 0.0226424 -0.999744 
0.0020351 0.0246492 -0.999694 
0.00210266 0.0259644 -0.999661 
0.000443873 0.0224047 -0.999749 
0.000394829 0.0170025 -0.999855 
-0.00131589 0.0119741 -0.999927 
-0.000190908 0.00867643 -0.999962 
-0.00168704 0.00382623 -0.999991 
-0.0032032 -0.00595711 -0.999977 
-0.00338882 -0.0122741 -0.999919 
0.00136738 -0.010601 -0.999943 
0.0149067 -0.0117397 -0.99982 
0.0161178 -0.00764394 0.999841 
0.0107678 0.00204171 0.99994 
0.00401865 0.0038425 0.999985 
0.00372627 0.00248604 0.99999 
0.00148922 0.0017765 0.999997 
0.000607779 0.00425634 0.999991 
-0.000945701 0.00672191 0.999977 
0.0017463 0.0126935 0.999918 
0.00147484 0.0151421 0.999884 
0.00487568 0.0251976 0.999671 
0.00744901 0.0320303 0.999459 
0.0129857 0.0368888 0.999235 
0.0139435 0.0418682 0.999026 
0.0124695 0.0505893 0.998642 
0.00805371 0.0560484 0.998396 
0.000599839 0.0583967 0.998293 
-0.00254733 0.0614086 0.998109 
-0.00252535 0.0643119 0.997927 
-0.00193748 0.0682644 0.997665 
-0.00148237 0.0738031 0.997272 
-0.00151631 0.0803701 0.996764 
-0.00155481 0.0915628 0.995798 
0.000782382 0.108962 0.994046 
0.00449771 0.127265 0.991859 
0.00409279 0.143909 0.989583 
-0.000665523 0.163278 0.98658 
-0.00314355 0.182918 0.983123 
5.11696e-05 0.203927 0.978986 
0.0036854 0.230555 0.973052 
0.00542228 0.268792 0.963183 
0.00562773 0.319228 0.947661 
0.00812263 0.379268 0.925251 
0.0166463 0.447203 0.894278 
0.0460878 0.50452 0.862169 
0.0612044 0.586563 0.807587 
0.103718 0.642793 0.758986 
0.137236 0.729747 0.669802 
0.152485 0.844825 0.512854 
0.0818534 0.963267 0.255765 
0.00493039 0.999929 -0.0108233 
-0.0764151 0.951964 -0.296521 
-0.141105 0.836817 -0.528986 
-0.139788 0.718338 -0.681505 
-0.105692 0.641457 -0.759844 
-0.0682302 0.583372 -0.809334 
-0.0485369 0.505424 -0.861505 
-0.0196147 0.451806 -0.891901 
-0.00685245 0.384382 -0.923149 
-0.00255251 0.322819 -0.946457 
0.00142425 0.276893 -0.9609 
0.00516309 0.243005 -0.970011 
0.00909499 0.216223 -0.976301 
0.00510316 0.191148 -0.981548 
-0.000393002 0.167873 -0.985809 
-0.00369227 0.147048 -0.989122 
-0.000716688 0.132586 -0.991171 
0.00217013 0.120097 -0.99276 
0.000346613 0.11042 -0.993885 
-0.00239329 0.0982367 -0.99516 
-0.00360876 0.0879583 -0.996118 
-0.00435643 0.0817518 -0.996643 
-0.00372122 0.0765435 -0.997059 
-0.00384357 0.0723769 -0.99737 
-0.00377003 0.0641325 -0.997934 
-0.00211717 0.0522453 -0.998632 
-0.000642775 0.0397882 -0.999208 
0.00130863 0.0298279 -0.999554 
0.00245652 0.0225455 -0.999743 
0.00383581 0.0224833 -0.99974 
0.00523758 0.0242596 -0.999692 
0.00193365 0.0207001 -0.999784 
-0.00278216 0.0157951 -0.999871 
-0.00650737 0.0131303 -0.999893 
-0.00546637 0.0108579 -0.999926 
-0.00332765 0.00809443 -0.999962 
-0.00126566 -0.00199375 -0.999997 
0.00103092 -0.00595544 -0.999982 
0.00205549 -0.00960708 -0.999952 
0.00791346 -0.010939 -0.999909 
0.026568 0.00402046 0.999639 
0.0146033 0.00671588 0.999871 
0.00851261 0.005282 0.99995 
0.00563223 0.00741902 0.999957 
0.002608 0.00466062 0.999986 
0.0010822 0.0071621 0.999974 
0.00208604 0.011038 0.999937 
0.0063373 0.0219932 0.999738 
0.00788142 0.0260631 0.999629 
0.00939352 0.0336343 0.99939 
0.0116543 0.0378606 0.999215 
0.0114178 0.0399778 0.999135 
0.0106104 0.0446663 0.998946 
0.00839913 0.050898 0.998669 
0.00533846 0.0554579 0.998447 
-0.000287409 0.0583315 0.998297 
-0.0029735 0.0630276 0.998007 
-0.00322914 0.0664497 0.997785 
-0.00136165 0.0708382 0.997487 
0.00151556 0.0771294 0.99702 
0.00443219 0.0839087 0.996464 
0.00523708 0.0950943 0.995454 
0.00594142 0.111528 0.993744 
0.00606784 0.126445 0.991955 
0.00327223 0.143825 0.989598 
-0.00332388 0.162006 0.986784 
-0.00583542 0.183195 0.983059 
-0.000335335 0.208623 0.977996 
0.00571051 0.239623 0.970849 
0.00928366 0.277863 0.960576 
0.0118224 0.325145 0.94559 
0.0187225 0.382049 0.923952 
0.0341937 0.438075 0.898288 
0.0721487 0.467966 0.880796 
0.0955301 0.538349 0.83729 
0.149712 0.562825 0.812905 
0.192312 0.647637 0.737281 
0.2374 0.764037 0.599907 
0.140369 0.935484 0.324293 
0.000339361 0.999767 -0.0215658 
-0.134504 0.930522 -0.340642 
-0.222229 0.7633 -0.60662 
-0.190236 0.641873 -0.742839 
-0.143148 0.568135 -0.810389 
-0.100371 0.518376 -0.849242 
-0.0695265 0.455238 -0.887651 
-0.033569 0.426881 -0.903684 
-0.0154144 0.379726 -0.924971 
-0.00456566 0.332143 -0.943218 
-0.00118299 0.281311 -0.959616 
0.00152778 0.240499 -0.970648 
0.00301522 0.209674 -0.977767 
-0.000542722 0.185246 -0.982692 
-0.00548163 0.165419 -0.986208 
-0.00697231 0.146628 -0.989167 
-0.00180607 0.129414 -0.991589 
0.000776574 0.118022 -0.993011 
-0.00101627 0.107524 -0.994202 
-0.00268604 0.0956895 -0.995408 
-0.00321256 0.085505 -0.996333 
-0.00436097 0.0787307 -0.996886 
-0.00469867 0.0721034 -0.997386 
-0.00289487 0.0658609 -0.997825 
-0.000498339 0.0557422 -0.998445 
0.0017491 0.044573 -0.999005 
0.00631372 0.0369106 -0.999299 
0.00816654 0.0297177 -0.999525 
0.00741466 0.0245998 -0.99967 
0.00647127 0.0227999 -0.999719 
0.00423341 0.0215159 -0.99976 
-0.000416557 0.01848 -0.999829 
-0.00574742 0.0159054 -0.999857 
-0.0102596 0.0147989 -0.999838 
-0.0102714 0.0140067 -0.999849 
-0.00660362 0.0126988 -0.999898 
-0.000697242 0.0053739 -0.999985 
0.00183336 -0.00183948 -0.999997 
0.00238304 -0.0054303 -0.999982 
0.00508588 -0.00858799 -0.99995 
0.0195787 0.01182 0.999738 
0.0099418 0.00853101 0.999914 