# vtk DataFile Version 3.0 
Exported using Morpho https://github.com/Morpho-lang/morpho 
ASCII 
DATASET UNSTRUCTURED_GRID 

POINTS 1978 float 
-8.48528 -2.82843 -1.58551e-10 
-8.29173 -2.82843 7.72896e-10 
-8.09394 -2.82843 -6.39649e-10 
-7.78797 -2.82843 2.78033e-11 
-7.50283 -2.82843 5.36987e-11 
-7.21318 -2.82843 -1.8613e-10 
-6.99918 -2.82843 2.2849e-10 
-6.78888 -2.82843 4.47775e-12 
-6.57921 -2.82843 -9.32623e-11 
-6.37483 -2.82843 8.72974e-11 
-6.14506 -2.82843 -1.0318e-11 
-5.93994 -2.82843 -6.2639e-11 
-5.70105 -2.82843 1.48354e-10 
-5.50669 -2.82843 -3.77491e-10 
-5.28762 -2.82843 6.24056e-10 
-5.08228 -2.82843 4.07367e-12 
-4.85049 -2.82843 2.2095e-11 
-4.66356 -2.82843 7.5086e-11 
-4.42848 -2.82843 1.28269e-10 
-4.22104 -2.82843 1.55265e-10 
-3.99565 -2.82843 4.18227e-10 
-3.7916 -2.82843 4.10229e-10 
-3.59124 -2.82843 9.30363e-10 
-3.37821 -2.82843 -4.99904e-10 
-3.17175 -2.82843 -6.35286e-11 
-2.96332 -2.82843 1.60661e-10 
-2.75164 -2.82843 1.34542e-09 
-2.5421 -2.82843 1.95253e-09 
-2.34048 -2.82843 -1.67677e-09 
-2.1314 -2.82843 3.53427e-09 
-1.92139 -2.82843 5.05124e-09 
-1.71303 -2.82843 7.52106e-09 
-1.51148 -2.82843 2.34211e-08 
-1.29312 -2.82843 2.73564e-08 
-1.10986 -2.82843 6.27251e-08 
-0.836525 -2.82843 -1.48327e-08 
-0.643419 -2.82843 1.88343e-08 
-0.434364 -2.82843 -2.3747e-08 
-0.211335 -2.82843 -8.25443e-08 
-0.00173784 -2.82843 1.78586e-08 
0.225612 -2.82843 -1.16933e-07 
0.433682 -2.82843 2.70939e-08 
0.64117 -2.82843 -5.10832e-08 
0.848604 -2.82843 -3.41834e-09 
1.08949 -2.82843 -2.91302e-08 
1.29035 -2.82843 1.09294e-08 
1.5 -2.82843 -1.07443e-10 
1.70555 -2.82843 -1.07676e-08 
1.9113 -2.82843 -3.16841e-09 
2.12464 -2.82843 -6.5777e-09 
2.34479 -2.82843 -2.47861e-09 
2.55094 -2.82843 -1.47222e-09 
2.77713 -2.82843 -2.81134e-10 
2.98643 -2.82843 -3.33092e-10 
3.20494 -2.82843 -4.86687e-10 
3.40365 -2.82843 -9.66988e-10 
3.62184 -2.82843 -6.97208e-10 
3.81937 -2.82843 2.63806e-10 
4.02965 -2.82843 -1.62141e-10 
4.25378 -2.82843 2.95019e-10 
4.44438 -2.82843 -1.25169e-11 
4.65295 -2.82843 -8.39409e-11 
4.86373 -2.82843 3.65492e-10 
5.06619 -2.82843 3.70379e-10 
5.2833 -2.82843 5.50839e-11 
5.49442 -2.82843 -3.9335e-11 
5.69604 -2.82843 3.83727e-11 
5.91736 -2.82843 2.65515e-10 
6.14083 -2.82843 -4.07881e-11 
6.33697 -2.82843 6.7939e-11 
6.58843 -2.82843 1.58156e-10 
6.79729 -2.82843 -1.53329e-10 
7.00254 -2.82843 1.80739e-10 
7.26611 -2.82843 -2.93914e-11 
7.50887 -2.82843 -1.5033e-10 
7.76035 -2.82843 -1.33907e-10 
8.02319 -2.82843 -3.23932e-10 
8.19884 -2.82843 1.69688e-09 
8.48528 -2.82843 1.12526e-09 
-8.48528 -2.61378 -8.42067e-11 
-8.23472 -2.56081 -3.90346e-10 
-8.03085 -2.51024 6.46406e-11 
-7.8812 -2.65484 2.35004e-10 
-7.58541 -2.63614 3.56273e-10 
-7.27201 -2.64107 4.52497e-12 
-7.00389 -2.5825 -6.10512e-11 
-6.78806 -2.58261 -1.74489e-10 
-6.56998 -2.57924 5.94979e-11 
-6.33648 -2.60972 -8.51393e-11 
-6.12473 -2.58147 2.28601e-11 
-5.887 -2.61592 -3.64026e-11 
-5.68417 -2.56558 -4.72806e-11 
-5.46552 -2.59702 6.32408e-10 
-5.25324 -2.58313 -3.70492e-10 
-5.02578 -2.61284 -4.16114e-11 
-4.83105 -2.56087 3.75877e-10 
-4.60933 -2.61649 -1.50581e-10 
-4.39556 -2.5893 -1.07789e-10 
-4.17357 -2.60885 -3.04367e-10 
-3.9638 -2.58496 -7.22237e-10 
-3.76192 -2.57953 -9.80263e-10 
-3.5462 -2.59357 -8.86354e-10 
-3.33422 -2.58659 2.91895e-10 
-3.11925 -2.58967 -4.44763e-10 
-2.90393 -2.59426 -9.37717e-10 
-2.68747 -2.59186 -2.29928e-09 
-2.47498 -2.58359 -3.90126e-09 
-2.26267 -2.59264 7.95232e-10 
-2.04497 -2.59214 -6.94002e-09 
-1.8301 -2.58751 -4.95403e-09 
-1.62062 -2.57602 -1.15397e-08 
-1.40961 -2.59117 -3.2486e-08 
-1.21214 -2.54035 -6.16614e-08 
-0.998434 -2.63347 -8.59518e-08 
-0.7983 -2.55726 4.25591e-09 
-0.60542 -2.58498 -5.55298e-08 
-0.410995 -2.58483 6.43517e-09 
-0.227119 -2.61333 1.09734e-07 
-0.0296113 -2.60351 -2.21371e-07 
0.182476 -2.61903 1.95644e-07 
0.405598 -2.59035 -1.55671e-07 
0.616047 -2.58751 3.22245e-07 
0.834489 -2.58197 5.68531e-08 
1.0504 -2.62135 5.30167e-08 
1.28747 -2.56677 6.17502e-10 
1.51236 -2.57676 8.26784e-10 
1.71291 -2.57851 1.30326e-08 
1.93341 -2.59315 4.78783e-10 
2.15782 -2.60336 5.90857e-09 
2.37541 -2.58719 2.85334e-09 
2.60011 -2.6077 1.86434e-09 
2.81923 -2.58846 1.08751e-09 
3.04023 -2.59863 8.08138e-10 
3.24678 -2.57579 6.71282e-10 
3.46482 -2.60036 8.16625e-10 
3.6699 -2.57797 -4.97403e-11 
3.88271 -2.59446 -5.48505e-11 
4.1071 -2.60927 -5.3062e-10 
4.31256 -2.56934 -4.5584e-10 
4.52053 -2.59321 -7.08561e-11 
4.73441 -2.59522 -3.20866e-10 
4.94606 -2.58407 -7.40575e-10 
5.16046 -2.60037 -5.63449e-10 
5.37957 -2.59288 6.33864e-11 
5.58888 -2.57996 7.23836e-11 
5.80516 -2.60166 -2.87577e-10 
6.03118 -2.60108 -3.75192e-11 
6.24512 -2.56527 -5.49193e-11 
6.46202 -2.62062 -1.89121e-10 
6.68911 -2.57413 7.54984e-11 
6.89693 -2.56597 -1.79152e-10 
7.12673 -2.62272 2.20593e-10 
7.38195 -2.60333 3.33899e-10 
7.63002 -2.61293 -4.4913e-10 
7.88694 -2.62415 -1.72437e-10 
8.08609 -2.52005 -2.70741e-10 
8.29981 -2.6348 -1.57511e-09 
8.48528 -2.54126 -6.24692e-10 
-8.48528 -2.39431 2.28913e-10 
-8.21397 -2.33118 5.55764e-12 
-7.93963 -2.28298 -1.51551e-10 
-7.74821 -2.44739 -1.56667e-11 
-7.57038 -2.29472 -3.9044e-11 
-7.42309 -2.46851 7.15542e-11 
-7.15814 -2.40651 -1.98737e-10 
-6.92117 -2.3355 9.18197e-11 
-6.6978 -2.35099 -5.56331e-11 
-6.4513 -2.37508 1.03103e-11 
-6.24296 -2.35291 -3.25714e-11 
-6.00168 -2.38324 8.98233e-11 
-5.80048 -2.34158 4.826e-11 
-5.56607 -2.34789 -1.06609e-10 
-5.36011 -2.35089 -3.9563e-11 
-5.13056 -2.37564 -2.22055e-10 
-4.93764 -2.33462 -6.2864e-11 
-4.69858 -2.36868 -5.43289e-11 
-4.49513 -2.37142 -1.97932e-10 
-4.2625 -2.37777 1.41038e-10 
-4.05319 -2.3607 2.18176e-10 
-3.83869 -2.33449 2.33693e-10 
-3.62552 -2.359 -5.49277e-10 
-3.40917 -2.35135 -5.98377e-10 
-3.19164 -2.35649 -3.22864e-10 
-2.97286 -2.35765 1.4711e-10 
-2.75947 -2.36071 -3.93254e-11 
-2.54199 -2.35234 1.7497e-09 
-2.32152 -2.35365 3.29211e-09 
-2.10714 -2.36345 -1.40027e-09 
-1.8858 -2.35401 -8.26513e-09 
-1.67019 -2.33731 -1.18506e-08 
-1.45463 -2.34231 -1.80906e-08 
-1.24227 -2.30169 -7.67301e-09 
-1.01883 -2.38559 -1.83436e-08 
-0.825065 -2.31493 3.95452e-08 
-0.61465 -2.32956 -1.36867e-08 
-0.425463 -2.36128 2.32402e-08 
-0.227342 -2.38089 7.82736e-08 
0.00476174 -2.40703 4.62259e-08 
0.224369 -2.4086 1.28677e-07 
0.444809 -2.37249 2.28321e-07 
0.678927 -2.3695 -1.87304e-07 
0.863714 -2.3368 2.40218e-08 
1.07927 -2.39037 -8.72745e-09 
1.19605 -2.22746 -5.73403e-08 
1.38289 -2.36245 2.2621e-08 
1.59908 -2.31039 7.55723e-09 
1.81048 -2.35863 5.40193e-09 
2.03789 -2.37703 2.89217e-09 
2.25875 -2.36944 -1.60986e-09 
2.49414 -2.37007 -1.31526e-09 
2.70606 -2.36906 -6.54029e-10 
2.93656 -2.36425 -6.74689e-10 
3.14394 -2.34251 -9.94511e-11 
3.36946 -2.35988 5.47941e-10 
3.57261 -2.34249 1.77361e-10 
3.7896 -2.35438 1.32026e-10 
4.00834 -2.37978 1.53143e-10 
4.21294 -2.34822 1.53344e-10 
4.44113 -2.34668 1.14758e-10 
4.64837 -2.36004 1.2251e-10 
4.8586 -2.35418 3.72621e-10 
5.08037 -2.36001 4.52112e-10 
5.2921 -2.36831 1.02594e-10 
5.50737 -2.34422 5.55734e-11 
5.72992 -2.36203 4.87128e-11 
5.94625 -2.37532 -1.00626e-10 
6.16233 -2.34156 -2.23073e-11 
6.40448 -2.36534 -4.26578e-11 
6.60824 -2.36035 9.60729e-11 
6.8387 -2.31202 -6.8594e-11 
7.06582 -2.37301 3.89097e-12 
7.28908 -2.39844 -1.20408e-10 
7.55183 -2.38733 2.37603e-10 
7.79575 -2.40575 -1.17469e-11 
8.00511 -2.29997 8.53497e-11 
8.26654 -2.35894 2.55348e-10 
8.48528 -2.29661 -1.28509e-10 
-8.48528 -2.13279 -1.43152e-10 
-8.28148 -2.13527 -1.55858e-10 
-8.05229 -2.07896 1.93357e-10 
-7.75011 -2.13418 1.94901e-11 
-7.49386 -2.06788 -1.20836e-11 
-7.3087 -2.23331 -9.29055e-12 
-7.07056 -2.14696 8.00652e-11 
-6.81906 -2.11084 -4.59263e-11 
-6.5811 -2.15703 5.81447e-11 
-6.36901 -2.11646 1.22227e-10 
-6.13185 -2.15323 -9.9655e-11 
-5.93054 -2.11509 -1.00087e-10 
-5.69454 -2.12977 -2.06725e-10 
-5.47285 -2.10442 3.05061e-11 
-5.24924 -2.14474 -5.16166e-10 
-5.05327 -2.09906 3.66178e-11 
-4.82178 -2.14331 -8.10562e-11 
-4.61013 -2.12581 -9.99173e-11 
-4.39452 -2.15943 7.01715e-12 
-4.18591 -2.13249 -1.5125e-10 
-3.97808 -2.11954 1.43399e-10 
-3.75529 -2.10827 3.26824e-10 
-3.54651 -2.12682 3.87112e-12 
-3.3251 -2.12194 -6.43226e-11 
-3.10946 -2.12743 -3.19293e-12 
-2.89586 -2.12076 -2.07287e-11 
-2.68243 -2.128 2.44301e-10 
-2.46004 -2.12617 7.41819e-10 
-2.24017 -2.12281 1.24567e-09 
-2.02494 -2.13364 5.27134e-09 
-1.80676 -2.11372 8.5561e-09 
-1.59265 -2.10228 7.51351e-09 
-1.39243 -2.09087 1.65455e-08 
-1.2171 -2.0137 9.52494e-10 
-1.04816 -2.14928 4.57048e-08 
-0.801406 -2.10304 -2.96889e-08 
-0.594364 -2.11106 -2.63387e-08 
-0.398792 -2.14242 -1.0345e-07 
-0.156433 -2.2243 -6.82352e-07 
0.0709902 -2.21961 5.32715e-07 
0.299446 -2.19842 -1.37897e-07 
0.473169 -2.03173 5.00345e-07 
0.549722 -2.20337 2.55327e-07 
0.723592 -2.07453 -2.8426e-07 
0.940962 -2.12789 4.52165e-08 
1.18744 -2.03801 -9.1665e-09 
1.44031 -2.11716 -1.10114e-08 
1.69229 -2.0933 4.75288e-09 
1.90189 -2.14506 4.25713e-09 
2.11984 -2.14802 -1.00375e-09 
2.34551 -2.15632 -2.01985e-09 
2.56163 -2.1283 -2.20225e-09 
2.77818 -2.14783 -3.20564e-10 
2.98459 -2.11447 -5.74429e-11 
3.20906 -2.1236 5.44214e-10 
3.40907 -2.10958 -4.09449e-11 
3.62518 -2.11396 1.81663e-10 
3.84199 -2.13296 -5.28602e-12 
4.0422 -2.1309 3.33814e-10 
4.2715 -2.13176 -4.62258e-11 
4.483 -2.10856 1.55227e-10 
4.68938 -2.12051 2.81704e-10 
4.90995 -2.13128 2.63031e-10 
5.12503 -2.12507 -5.81349e-11 
5.3331 -2.13064 2.74635e-10 
5.56505 -2.12414 1.2922e-10 
5.77948 -2.12989 -1.33255e-10 
5.99095 -2.13342 9.68753e-11 
6.24098 -2.1377 -2.89072e-11 
6.44887 -2.10831 2.42218e-11 
6.66377 -2.12133 7.58847e-11 
6.92649 -2.10257 7.66322e-12 
7.14447 -2.14085 1.53808e-10 
7.37919 -2.18906 -4.49005e-11 
7.56473 -2.08935 -1.03735e-10 
7.7465 -2.17682 2.34601e-11 
7.95206 -2.0639 1.27095e-10 
8.1915 -2.13194 1.16708e-10 
8.48528 -2.11193 1.68586e-10 
-8.48528 -1.84195 2.84422e-10 
-8.3024 -1.8891 -2.14697e-10 
-7.91608 -1.91642 -1.07624e-10 
[...]
POINT_DATA 1978 
VECTORS vectors float
9.37989e-05 0.0385065 0.999258 
8.85022e-05 0.0288692 0.999583 
4.44818e-05 0.0164963 0.999864 
-0.000227021 0.00532339 0.999987 
0.000112207 0.00287171 0.999999 
0.000225383 0.00579357 0.999983 
-9.13173e-05 0.0221705 0.999755 
-0.000141022 0.0404425 0.999182 
-1.52966e-05 0.0443058 0.999018 
3.83331e-06 0.0377284 0.999288 
-1.53111e-05 0.0397034 0.999212 
-2.49762e-06 0.0383469 0.999264 
-1.12145e-05 0.0402469 0.99919 
-4.90758e-05 0.047805 0.998857 
-4.39726e-05 0.0659593 0.997822 
-1.74736e-06 0.0688449 0.997628 
-1.03108e-05 0.0714226 0.997446 
-1.75831e-05 0.0710982 0.997469 
-2.16576e-05 0.0743684 0.997231 
-2.38043e-05 0.0822796 0.996609 
-2.74274e-05 0.087566 0.996158 
-5.4626e-05 0.101051 0.994881 
-6.99349e-05 0.128089 0.991762 
-2.0955e-05 0.153056 0.988217 
1.07042e-05 0.152375 0.988323 
-3.97964e-05 0.162901 0.986642 
-8.1596e-05 0.192009 0.981393 
-5.62737e-05 0.219126 0.975697 
-5.39796e-05 0.242143 0.97024 
-0.000120273 0.282981 0.959126 
-0.000156078 0.334105 0.942536 
-0.000137281 0.396619 0.917983 
-0.000168034 0.459116 0.888376 
-0.000247571 0.537794 0.843076 
-0.000255602 0.614214 0.789139 
-0.000214289 0.745243 0.666792 
-0.000211758 0.845543 0.533907 
-0.000188234 0.92429 0.38169 
-7.94632e-05 0.981011 0.19395 
3.22421e-05 1 -0.000959815 
0.000106432 0.980274 -0.197645 
0.000167403 0.919132 -0.393951 
0.000224264 0.8406 -0.541656 
0.000264336 0.740088 -0.67251 
0.000267694 0.617149 -0.786847 
0.000202187 0.525662 -0.850693 
0.000145918 0.453468 -0.891273 
0.000152889 0.393291 -0.919414 
0.000146849 0.333333 -0.942809 
0.000119464 0.282643 -0.959225 
8.74522e-05 0.234911 -0.972017 
5.71129e-05 0.20863 -0.977995 
3.87052e-05 0.189901 -0.981803 
4.3205e-05 0.173084 -0.984907 
7.29511e-05 0.147935 -0.988997 
6.72128e-05 0.124298 -0.992245 
3.7457e-05 0.106253 -0.994339 
2.3583e-06 0.0978785 -0.995198 
-1.51509e-06 0.0981324 -0.995173 
1.06536e-05 0.0938151 -0.99559 
1.34021e-05 0.0910342 -0.995848 
1.51241e-05 0.0868096 -0.996225 
2.60139e-05 0.0784075 -0.996921 
5.0986e-05 0.0588251 -0.998269 
1.64955e-05 0.0384623 -0.99926 
-2.7753e-05 0.0395914 -0.999216 
4.09407e-06 0.0433484 -0.99906 
9.59076e-06 0.0307433 -0.999527 
-1.18205e-05 0.02448 -0.9997 
-1.38628e-05 0.0279 -0.999611 
-1.46807e-05 0.034647 -0.9994 
-1.3937e-05 0.037553 -0.999295 
2.0791e-05 0.0384392 -0.999261 
6.55207e-05 0.0251162 -0.999685 
6.42583e-06 0.00416296 -0.999991 
-3.38741e-05 0.000396475 -1 
1.40679e-05 0.00448837 -0.999989 
-5.3753e-05 0.00670847 -0.999977 
5.61671e-05 0.0411422 -0.999155 
0.00240222 0.0335698 0.999433 
0.00465985 0.0246144 0.999686 
0.00395388 0.0127856 0.99991 
0.00103231 0.00867617 0.999962 
-0.00195116 0.00542274 0.999984 
-0.0033358 0.00699561 0.99997 
-0.00596454 0.019331 0.999795 
-0.00658097 0.0321446 0.999462 
-0.00626416 0.0371106 0.999292 
-0.00439072 0.0369579 0.999307 
-0.0045198 0.0341906 0.999405 
-0.0029527 0.032363 0.999472 
-0.00251366 0.0325443 0.999467 
-0.00174068 0.0429124 0.999077 
-0.00388919 0.0558779 0.99843 
-0.00446867 0.0672627 0.997725 
-0.00730058 0.0707692 0.997466 
-0.0055008 0.0733423 0.997292 
-0.00517278 0.0777926 0.996956 
-0.00402677 0.0838371 0.996471 
-0.00376982 0.090934 0.99585 
-0.00411916 0.103187 0.994653 
-0.00281094 0.122565 0.992457 
0.000266162 0.140323 0.990106 
0.00141684 0.152384 0.98832 
-0.00173056 0.172477 0.985012 
-0.00281887 0.199376 0.979919 
-0.000441996 0.226038 0.974118 
-0.000519695 0.257286 0.966335 
-0.0028834 0.301347 0.95351 
-0.0041361 0.35273 0.935716 
-0.00642831 0.415035 0.909783 
-0.00924474 0.492384 0.870329 
-0.00945143 0.574504 0.818447 
-0.004806 0.673696 0.738993 
0.000628823 0.773295 0.634047 
0.00319699 0.863482 0.50437 
0.00232399 0.933171 0.359425 
0.00265661 0.977875 0.209173 
0.00160057 0.999292 0.0376103 
0.00149584 0.988359 -0.152131 
0.00142954 0.93537 -0.353668 
0.00267413 0.85093 -0.525272 
0.00207572 0.745482 -0.666523 
0.00170343 0.636552 -0.771233 
-0.000121931 0.532618 -0.846356 
0.00215344 0.449169 -0.893444 
0.00513191 0.384907 -0.922941 
0.0052228 0.323006 -0.946383 
0.00510422 0.272605 -0.962113 
0.00395812 0.230303 -0.973111 
0.00265569 0.200157 -0.97976 
0.00122116 0.178308 -0.983974 
0.00102989 0.158505 -0.987358 
0.00475635 0.13706 -0.990551 
0.00632841 0.116832 -0.993132 
0.0052204 0.103151 -0.994652 
0.00223775 0.0985775 -0.995127 
-0.00018204 0.094813 -0.995495 
4.26544e-05 0.0894749 -0.995989 
-0.000341968 0.0832565 -0.996528 
-0.0011403 0.075402 -0.997153 
-0.00280186 0.0619162 -0.998077 
-0.00543961 0.0468159 -0.998889 
-0.00658191 0.0377768 -0.999265 
-0.00673863 0.0348146 -0.999371 
-0.00766028 0.0290697 -0.999548 
-0.00731365 0.0227185 -0.999715 
-0.00509541 0.0216033 -0.999754 
-0.00297911 0.0274048 -0.99962 
0.000323897 0.0306438 -0.99953 
0.0016767 0.0287971 -0.999584 
0.0026117 0.0256007 -0.999669 
0.00316464 0.0151533 -0.99988 
0.00217968 0.00731819 -0.999971 
0.00137508 0.00551693 -0.999984 
-0.00241889 0.00654162 -0.999976 
0.00313267 0.0122027 -0.999921 
0.014674 0.0116614 -0.999824 
0.00291502 0.0270173 0.999631 
0.0083866 0.0193937 0.999777 
0.00407368 0.00956842 0.999946 
0.00042534 0.00644093 0.999979 
-0.00432773 0.00678933 0.999968 
-0.00578167 0.00720336 0.999957 
-0.00907211 0.0131479 0.999872 
-0.0101046 0.0193685 0.999761 
-0.00854401 0.0257153 0.999633 
-0.00552913 0.0309984 0.999504 
-0.00482895 0.0301036 0.999535 
-0.00455084 0.0285561 0.999582 
-0.00400212 0.0297291 0.99955 
-0.00435059 0.0363916 0.999328 
-0.00720468 0.0452441 0.99895 
-0.0114338 0.0589152 0.998198 
-0.0154849 0.0651796 0.997754 
-0.0113459 0.0697203 0.997502 
-0.00818655 0.0747248 0.997171 
-0.0028686 0.0829581 0.996549 
-0.000348189 0.0895585 0.995982 
9.98662e-05 0.0980994 0.995177 
-0.0010484 0.112909 0.993605 
0.00155213 0.131058 0.991374 
0.00347643 0.148946 0.988839 
0.000598617 0.167645 0.985847 
-0.00199363 0.187504 0.982262 
0.0011901 0.211257 0.97743 
0.00281902 0.243559 0.969882 
-0.000448452 0.282912 0.959146 
-0.00314366 0.333089 0.94289 
-0.00568083 0.391076 0.920341 
-0.00798061 0.467542 0.883935 
-0.00579238 0.553307 0.832958 
-0.00145497 0.663523 0.748155 
0.00597896 0.758296 0.651882 
0.00772604 0.851708 0.52396 
0.00777274 0.925799 0.377935 
0.00432045 0.978681 0.205341 
0.00316654 0.999994 -0.000980952 
-0.00048885 0.978892 -0.204376 
-0.00408176 0.919223 -0.393716 
-0.00641368 0.829052 -0.559136 
-0.00521662 0.734232 -0.678879 
-0.00237318 0.625269 -0.780406 
-0.00582793 0.573488 -0.819193 
-0.0018365 0.497613 -0.867398 
0.00315699 0.416889 -0.908952 
0.0070274 0.351649 -0.936105 
0.00720717 0.29602 -0.955155 
0.00482065 0.251185 -0.967927 
0.00241446 0.21129 -0.97742 
4.40115e-05 0.184272 -0.982875 
-0.00123009 0.162097 -0.986774 
0.00274546 0.141278 -0.989966 
0.00792227 0.12152 -0.992557 
0.00904222 0.107894 -0.994121 
0.00832045 0.0994154 -0.995011 
0.00669845 0.0949677 -0.995458 
0.00592018 0.089794 -0.995943 
0.00537478 0.080091 -0.996773 
0.00320016 0.0704863 -0.997508 
0.000695382 0.0591301 -0.99825 
-0.00231993 0.048712 -0.99881 
-0.00490104 0.0413533 -0.999133 
-0.00550143 0.0370979 -0.999297 
-0.0078536 0.0298993 -0.999522 
-0.00876011 0.0215095 -0.99973 
-0.0048508 0.0201271 -0.999786 
-0.00113272 0.0245015 -0.999699 
0.00087093 0.0271039 -0.999632 
0.00393387 0.0255274 -0.999667 
0.00566437 0.0179843 -0.999822 
0.00719738 0.0116765 -0.999906 
0.00482116 0.0074216 -0.999961 
0.0011325 0.00515495 -0.999986 
-0.00395224 0.00275136 -0.999988 
-0.00528239 0.00502061 -0.999973 
-0.0093006 -0.000587313 -0.999957 
0.0165933 0.0233209 0.99959 
0.0126466 0.0203663 0.999713 
0.00676672 0.0155081 0.999857 
-0.000269638 0.00665612 0.999978 
-0.00472181 0.00657399 0.999967 
-0.00975318 0.00990916 0.999903 
-0.00980866 0.0137363 0.999858 
-0.00981807 0.0158161 0.999827 
-0.00780542 0.0221025 0.999725 
-0.004554 0.0234865 0.999714 
-0.00382727 0.027172 0.999623 
-0.00238856 0.0301528 0.999543 
-0.0047007 0.0358085 0.999348 
-0.00833025 0.0451173 0.998947 
-0.0137276 0.0533461 0.998482 
-0.0185019 0.0597136 0.998044 
-0.0169048 0.0631565 0.997861 
-0.011386 0.0664785 0.997723 
-0.00503388 0.0779119 0.996947 
-0.000947365 0.0864133 0.996259 
0.00220765 0.0932425 0.995641 
0.00400229 0.102886 0.994685 
0.0061845 0.119277 0.992842 
0.00806284 0.137482 0.990471 
0.00618451 0.155182 0.987867 
0.00133387 0.173322 0.984864 
-0.000150983 0.192486 0.9813 
0.00183339 0.217396 0.976082 
0.00198315 0.251436 0.967872 
0.00242152 0.295916 0.955211 
0.0019959 0.350375 0.936607 
-0.00150966 0.417359 0.90874 
-5.36613e-05 0.491291 0.870996 
0.00620933 0.565329 0.824842 
0.00513984 0.638433 0.76966 
0.0114938 0.754027 0.656742 
0.0151387 0.856882 0.515291 
0.0159488 0.934459 0.355715 
0.00845239 0.990334 0.138446 
-0.00100585 0.997098 -0.0761266 
-0.0101214 0.959827 -0.280411 
-0.030052 0.906039 -0.422128 
-0.0191792 0.869096 -0.494272 
-0.0239924 0.792507 -0.60939 
-0.0125618 0.696848 -0.717109 
-0.00847884 0.582836 -0.812546 
-0.00250103 0.475059 -0.87995 
0.00255649 0.381974 -0.92417 
0.00568513 0.327259 -0.944918 
0.00632399 0.280525 -0.959826 
0.00532039 0.237107 -0.971469 
0.00282321 0.202982 -0.979178 
-0.000861493 0.177193 -0.984176 
-0.00120151 0.154779 -0.987948 
0.00323422 0.132421 -0.991188 
0.00632759 0.116488 -0.993172 
0.0098785 0.103749 -0.994554 
0.0106997 0.0949014 -0.995429 
0.00951689 0.0899873 -0.995898 
0.00861567 0.0855185 -0.9963 
0.00816166 0.0774561 -0.996962 
0.00446239 0.0674116 -0.997715 
-0.00134038 0.0603348 -0.998177 
-0.00646666 0.0562664 -0.998395 
-0.00740819 0.0505815 -0.998692 
-0.00733136 0.0419475 -0.999093 
-0.00643982 0.0298799 -0.999533 
-0.00425738 0.0221885 -0.999745 
-0.000884479 0.0226038 -0.999744 
-0.000284156 0.0262817 -0.999655 
0.000656858 0.0275864 -0.999619 
0.0038862 0.0219626 -0.999751 
0.00779188 0.012962 -0.999886 
0.00757193 0.0066384 -0.999949 
0.00296153 0.00185601 -0.999994 
0.000431733 0.00210634 -0.999998 
-0.00706553 -0.00380921 -0.999968 
-0.0112832 0.00157221 -0.999935 
-0.0217544 0.00664084 -0.999741 
0.00166966 0.0237063 0.999718 
0.00638834 0.0191805 0.999796 
0.00125169 0.0102436 0.999947 
-0.000508256 0.00475407 0.999989 
-0.000839401 0.00476841 0.999988 
-0.00700809 0.0105411 0.99992 
-0.00338752 0.00801164 0.999962 
-0.00791931 0.0112161 0.999906 
-0.00919713 0.0107995 0.999899 
-0.00611503 0.0164104 0.999847 
-0.00231219 0.0246956 0.999692 
0.00215881 0.0304604 0.999534 
0.00250593 0.0362929 0.999338 
-0.000670421 0.0446469 0.999003 
-0.00942425 0.0536909 0.998513 
-0.0152227 0.0578998 0.998206 
-0.016844 0.0600441 0.998053 
-0.0111379 0.060994 0.998076 
-0.00654084 0.0681094 0.997656 
-0.00361078 0.0781441 0.996935 
-0.00110314 0.0869561 0.996212 
0.0011471 0.095804 0.995399 
0.00692679 0.110304 0.993874 
0.0123475 0.128323 0.991656 
0.0110966 0.14478 0.989402 
0.00486883 0.163308 0.986563 
0.000410199 0.182593 0.983189 
0.000102579 0.202437 0.979295 
-0.00049382 0.230332 0.973112 
0.000901046 0.270918 0.962602 
0.00334545 0.321124 0.947031 
0.0016815 0.387114 0.92203 
0.00173541 0.458766 0.888556 
0.0130345 0.561075 0.827663 
0.0152409 0.679617 0.73341 
0.02763 0.770248 0.637147 
0.0379822 0.846663 0.530773 
0.0476321 0.907962 0.416337 
0.0287314 0.964971 0.260781 
0.012321 0.998203 0.0586485 
-0.0145535 0.985593 -0.16852 
-0.0431628 0.92977 -0.365602 
-0.0563926 0.820979 -0.568167 
-0.0353965 0.736513 -0.675497 
-0.0178822 0.640191 -0.768008 
-0.00794838 0.537645 -0.843134 
-0.00287518 0.471783 -0.88171 
-0.00173256 0.407214 -0.913331 
-0.00134433 0.344956 -0.938618 
0.00421564 0.299288 -0.954154 
0.00815623 0.253681 -0.967254 
0.00936912 0.217525 -0.97601 
0.00209246 0.184872 -0.98276 
-0.00102768 0.161572 -0.98686 
-0.000635866 0.135724 -0.990746 
0.002492 0.119037 -0.992887 
0.00679074 0.10674 -0.994264 
0.00997946 0.0957506 -0.995355 
0.00849069 0.0883386 -0.996054 
0.00836444 0.0851286 -0.996335 
0.00690819 0.0778041 -0.996945 
0.00379055 0.0706734 -0.997492 
-0.00305295 0.0681191 -0.997673 
-0.0109332 0.0676945 -0.997646 
-0.0131271 0.062257 -0.997974 
-0.0105865 0.0510832 -0.998638 
-0.0060102 0.0339407 -0.999406 
-0.00239109 0.0237033 -0.999716 
5.54232e-05 0.0233834 -0.999727 
-0.000201387 0.0268883 -0.999638 
-0.000925661 0.0260153 -0.999661 
0.000569575 0.0220252 -0.999757 
0.00349097 0.0133056 -0.999905 
0.00379359 0.00632736 -0.999973 
0.000257983 0.00207513 -0.999998 
-0.00328729 -0.00558912 -0.999979 
-0.00878601 -0.0113467 -0.999897 
-0.00989348 -0.00390559 -0.999944 
-0.00396702 0.00795684 -0.99996 
-0.000892985 0.00103229 0.999999 
0.00262707 0.00669007 0.999974 
0.00239481 0.0118172 0.999927 
0.00110012 0.00337206 0.999994 
0.00114261 0.00146921 0.999998 
0.000694637 0.00458567 0.999989 
-0.00410711 0.00775551 0.999962 
-0.00461423 0.00861959 0.999952 
-0.00223965 0.0154378 0.999878 
0.000358301 0.0230344 0.999735 
0.00679862 0.0323236 0.999454 
0.0115334 0.0367044 0.99926 
0.0108898 0.0457025 0.998896 
0.00381693 0.0542889 0.998518 
-0.00215553 0.0588451 0.998265 
-0.0102153 0.060477 0.998117 
-0.00729539 0.0600971 0.998166 
-0.00456918 0.062768 0.998018 
-0.00279581 0.0689781 0.997614 
-0.00353136 0.0779796 0.996949 
-0.00384963 0.0874072 0.996165 
-0.0020498 0.100861 0.994898 
0.00147416 0.118185 0.992991 
0.00665324 0.13468 0.990867 
0.00497282 0.151684 0.988417 
-0.000714618 0.170416 0.985372 
-0.00228666 0.189181 0.98194 
-0.00133021 0.207062 0.978327 
-0.000779481 0.234067 0.97222 
6.92696e-06 0.274008 0.961728 
3.88281e-05 0.327773 0.944756 
0.000600961 0.38888 0.921288 
0.00720123 0.472846 0.881116 
0.0262638 0.537878 0.842614 
0.0308783 0.63157 0.774704 
0.0561042 0.702424 0.709544 
0.0869149 0.789197 0.607958 
0.0909422 0.88566 0.455343 
0.0486652 0.970807 0.234875 
0.0054457 0.999973 -0.00483116 
-0.0375752 0.97197 -0.232086 
-0.0858899 0.87599 -0.47462 
-0.0917047 0.775696 -0.624409 
-0.0632661 0.69589 -0.715357 
-0.03402 0.623139 -0.781371 
-0.0211981 0.538464 -0.842382 
-0.00693326 0.458213 -0.888816 
-0.0030803 0.380446 -0.924798 
-0.00179526 0.322992 -0.9464 
0.00247572 0.278723 -0.960368 
0.0089137 0.24131 -0.970407 
0.00981889 0.208393 -0.977996 
0.00525728 0.182686 -0.983157 
-0.0011688 0.156303 -0.987708 
-0.00137886 0.13591 -0.99072 
0.0018976 0.122831 -0.992426 
0.00538328 0.11103 -0.993803 
0.00364867 0.100107 -0.99497 
0.00104969 0.0917823 -0.995779 
0.00126068 0.084993 -0.996381 
0.00132462 0.0774623 -0.996995 
-0.000489262 0.0741568 -0.997247 
-0.0053963 0.0725649 -0.997349 
-0.00871828 0.0667831 -0.997729 
-0.00831967 0.0565872 -0.998363 
-0.00604293 0.0429912 -0.999057 
-0.00251464 0.0277681 -0.999611 
0.000124819 0.0217687 -0.999763 
0.00246375 0.0252223 -0.999679 
0.00203158 0.0268965 -0.999636 
0.000397914 0.0228687 -0.999738 
0.000703629 0.0169106 -0.999857 
-0.00109645 0.01151 -0.999933 
5.54292e-05 0.00879606 -0.999961 
-0.00152476 0.00401444 -0.999991 
-0.00340042 -0.0067599 -0.999971 
-0.00414781 -0.0140741 -0.999892 
0.00164736 -0.0119228 -0.999928 
0.0165974 -0.0131763 -0.999776 
0.0167799 -0.00833079 0.999824 
0.0109648 0.00184627 0.999938 
0.00365648 0.00343278 0.999987 
0.00372856 0.00174178 0.999992 
0.00139445 0.000972962 0.999999 
0.000562095 0.00350363 0.999994 
-0.00118759 0.00642821 0.999979 
0.00198104 0.0125684 0.999919 
0.00127969 0.014306 0.999897 
0.00490771 0.0252146 0.99967 
0.00733806 0.0329125 0.999431 
0.0141146 0.0368749 0.99922 
0.0148661 0.041727 0.999019 
0.0138159 0.0514968 0.998578 
0.00918782 0.0571104 0.998326 
0.000892135 0.0584693 0.998289 
-0.00219786 0.061921 0.998079 
-0.00209398 0.0646222 0.997908 
-0.0017926 0.0685272 0.997648 
-0.00145638 0.0738747 0.997267 
-0.0018993 0.0798219 0.996807 
-0.00250014 0.0908149 0.995865 
4.83766e-05 0.109458 0.993991 
0.0047802 0.128129 0.991746 
0.00439623 0.144682 0.989468 
-0.000948278 0.164399 0.986393 
-0.00366559 0.184066 0.982907 
0.000301553 0.204339 0.9789 
0.00434778 0.230346 0.973099 
0.00584866 0.268466 0.963272 
0.00543017 0.320115 0.947363 
0.00714826 0.379865 0.925014 
0.0144961 0.448675 0.893577 
0.0448523 0.50697 0.860796 
0.0598139 0.587047 0.80734 
0.102386 0.643913 0.758218 
0.137587 0.729616 0.669874 
0.152905 0.844072 0.513968 
0.0823592 0.962661 0.257877 
0.00474077 0.999934 -0.0104759 
-0.075647 0.953399 -0.292075 
-0.141592 0.837379 -0.527965 
-0.139084 0.720276 -0.679602 
-0.10551 0.643552 -0.758096 
-0.067435 0.584487 -0.808596 
-0.0475684 0.506816 -0.860741 
-0.0181692 0.454297 -0.890665 
-0.00543259 0.38655 -0.922253 
-0.00277898 0.323272 -0.946302 
0.00138958 0.276841 -0.960915 
0.00531035 0.243222 -0.969956 
0.0107273 0.217324 -0.976041 
0.00571371 0.191841 -0.981409 
-0.000301748 0.168848 -0.985642 
-0.00454317 0.147295 -0.989082 
-0.000459179 0.133283 -0.991078 
0.0026548 0.121178 -0.992627 
9.24077e-05 0.111984 -0.99371 
-0.0031864 0.09886 -0.995096 
-0.00418497 0.0880572 -0.996107 
-0.00538449 0.0824292 -0.996582 
-0.00391572 0.0773043 -0.997 
-0.00397568 0.073827 -0.997263 
-0.00390827 0.0650865 -0.997872 
-0.00165334 0.0520971 -0.998641 
-0.000721626 0.0394563 -0.999221 
0.00107008 0.0290217 -0.999578 
0.00218129 0.0214502 -0.999768 
0.00357932 0.0220536 -0.99975 
0.00635371 0.0250924 -0.999665 
0.00242603 0.0208846 -0.999779 
-0.00308918 0.015182 -0.99988 
-0.00704976 0.0131065 -0.999889 
-0.00586522 0.0112653 -0.999919 
-0.00320323 0.00891974 -0.999955 
-0.00105378 -0.00253706 -0.999996 
0.00158271 -0.0066565 -0.999977 
0.00177667 -0.00995295 -0.999949 
0.00839629 -0.0106647 -0.999908 
0.0277664 0.00419113 0.999606 
0.0149859 0.00730845 0.999861 
0.00903639 0.00514058 0.999946 
0.00584796 0.00789442 0.999952 
0.00255219 0.00434853 0.999987 
0.000675015 0.00644852 0.999979 
0.00198945 0.0106552 0.999941 
0.00709883 0.0227209 0.999717 
0.00886357 0.0265712 0.999608 
0.00989823 0.0341002 0.99937 
0.0125903 0.0387295 0.99917 
0.0117954 0.0397624 0.99914 
0.0110178 0.0444768 0.99895 
0.00878575 0.0513677 0.998641 
0.00610903 0.0555924 0.998435 
-2.09744e-05 0.0585916 0.998282 
-0.00312322 0.0638571 0.997954 
-0.00329997 0.0673915 0.997721 
-0.00133485 0.0712162 0.99746 
0.00145065 0.0776061 0.996983 
0.0047156 0.0833094 0.996513 
0.0053169 0.0944983 0.995511 
0.00618525 0.111822 0.993709 
0.00675479 0.126694 0.991919 
0.00436658 0.144282 0.989527 
-0.00347881 0.162381 0.986722 
-0.00676921 0.183593 0.982979 
4.40442e-06 0.209116 0.977891 
0.00637523 0.240055 0.970738 
0.00970161 0.278508 0.960385 
0.0119496 0.326027 0.945285 
0.0178295 0.384696 0.922871 
0.0329137 0.441238 0.896786 
0.0715528 0.470818 0.879324 
0.0953086 0.541087 0.835549 
0.14998 0.564239 0.811875 
0.192651 0.645082 0.73943 
0.237357 0.767802 0.595099 
0.140194 0.936461 0.32154 
0.00176065 0.999805 -0.0196617 
-0.133332 0.930029 -0.342446 
-0.221981 0.763992 -0.605839 
-0.189123 0.641782 -0.743201 
-0.14305 0.569284 -0.8096 
-0.101717 0.519801 -0.848211 
-0.0702064 0.456926 -0.88673 
-0.032725 0.429493 -0.902477 
-0.0138208 0.382594 -0.923813 
-0.00341109 0.334093 -0.942534 
-0.000973541 0.281731 -0.959493 
0.00208028 0.240962 -0.970532 
0.00353741 0.210052 -0.977684 
3.78104e-05 0.186288 -0.982495 
-0.00610571 0.166292 -0.986058 
-0.00744613 0.147579 -0.989022 
-0.00117458 0.130114 -0.991498 
0.00184617 0.119126 -0.992877 
-0.000722752 0.109056 -0.994035 
-0.00274621 0.0965207 -0.995327 
-0.00298334 0.086031 -0.996288 
-0.0043304 0.0794314 -0.996831 
-0.00501954 0.0728236 -0.997332 
-0.00269273 0.0668963 -0.997756 
6.23354e-05 0.0556687 -0.998449 
0.00173819 0.0440034 -0.99903 
0.007003 0.0365632 -0.999307 
0.00903198 0.0295712 -0.999522 
0.00742053 0.0241175 -0.999681 
0.00667665 0.0227005 -0.99972 
0.00447925 0.0216667 -0.999755 
4.08739e-05 0.0183939 -0.999831 
-0.00620356 0.0158599 -0.999855 
-0.0111077 0.0146802 -0.999831 
-0.011523 0.0145358 -0.999828 
-0.00702532 0.0140124 -0.999877 
-0.000287073 0.00610695 -0.999981 
0.00257615 -0.00175074 -0.999995 
0.00224215 -0.00465402 -0.999987 
0.006014 -0.00773834 -0.999952 
0.0205265 0.0117794 0.99972 
0.00995044 0.00844957 0.999915 
0.0090655 0.010223 0.999907 
0.00603472 0.0117417 0.999913 