# vtk DataFile Version 3.0 
Exported using Morpho https://github.com/Morpho-lang/morpho 
ASCII 
DATASET UNSTRUCTURED_GRID 

POINTS 1978 float 
-8.48528 -2.82843 0 
-8.21534 -2.82843 0 
-7.95083 -2.82843 0 
-7.6988 -2.82843 0 
-7.45873 -2.82843 0 
-7.22433 -2.82843 0 
-7.00823 -2.82843 0 
-6.79046 -2.82843 0 
-6.57707 -2.82843 0 
-6.36448 -2.82843 0 
-6.15222 -2.82843 0 
-5.94005 -2.82843 0 
-5.72792 -2.82843 0 
-5.51579 -2.82843 0 
-5.30365 -2.82843 0 
-5.09152 -2.82843 0 
-4.87939 -2.82843 0 
-4.66726 -2.82843 0 
-4.45512 -2.82843 0 
-4.24299 -2.82843 0 
-4.03086 -2.82843 0 
-3.81873 -2.82843 0 
-3.6066 -2.82843 0 
-3.39446 -2.82843 0 
-3.18233 -2.82843 0 
-2.9702 -2.82843 0 
-2.75807 -2.82843 0 
-2.54594 -2.82843 0 
-2.3338 -2.82843 0 
-2.12167 -2.82843 0 
-1.90954 -2.82843 0 
-1.69741 -2.82843 0 
-1.48525 -2.82843 0 
-1.27308 -2.82843 0 
-1.06121 -2.82843 0 
-0.848725 -2.82843 0 
-0.636758 -2.82843 0 
-0.424542 -2.82843 0 
-0.212459 -2.82843 0 
-0.000250761 -2.82843 0 
0.211904 -2.82843 0 
0.423923 -2.82843 0 
0.636132 -2.82843 0 
0.848616 -2.82843 0 
1.06031 -2.82843 0 
1.27223 -2.82843 0 
1.48459 -2.82843 0 
1.69671 -2.82843 0 
1.90883 -2.82843 0 
2.12097 -2.82843 0 
2.3331 -2.82843 0 
2.54523 -2.82843 0 
2.75736 -2.82843 0 
2.9695 -2.82843 0 
3.18163 -2.82843 0 
3.39376 -2.82843 0 
3.60589 -2.82843 0 
3.81802 -2.82843 0 
4.03016 -2.82843 0 
4.24229 -2.82843 0 
4.45442 -2.82843 0 
4.66655 -2.82843 0 
4.87868 -2.82843 0 
5.09082 -2.82843 0 
5.30295 -2.82843 0 
5.51508 -2.82843 0 
5.72721 -2.82843 0 
5.93935 -2.82843 0 
6.15151 -2.82843 0 
6.36378 -2.82843 0 
6.5764 -2.82843 0 
6.78986 -2.82843 0 
7.00733 -2.82843 0 
7.22395 -2.82843 0 
7.45826 -2.82843 0 
7.69845 -2.82843 0 
7.95065 -2.82843 0 
8.21526 -2.82843 0 
8.48528 -2.82843 0 
-8.48528 -2.55849 0 
-8.29551 -2.63859 0 
-8.06195 -2.59248 0 
-7.82616 -2.61468 0 
-7.57676 -2.58852 0 
-7.30984 -2.61445 0 
-7.06884 -2.59329 0 
-6.83147 -2.58955 0 
-6.58716 -2.59336 0 
-6.34348 -2.59486 0 
-6.10678 -2.59552 0 
-5.88017 -2.59295 0 
-5.65955 -2.59231 0 
-5.44223 -2.59269 0 
-5.22654 -2.59317 0 
-5.01191 -2.59341 0 
-4.79815 -2.59342 0 
-4.58503 -2.59337 0 
-4.37231 -2.59329 0 
-4.15981 -2.59318 0 
-3.94755 -2.59304 0 
-3.73531 -2.59305 0 
-3.52297 -2.59306 0 
-3.31043 -2.59302 0 
-3.09774 -2.5928 0 
-2.88496 -2.59239 0 
-2.6722 -2.59188 0 
-2.45936 -2.59151 0 
-2.24612 -2.59136 0 
-2.0322 -2.59117 0 
-1.81789 -2.5899 0 
-1.60419 -2.59191 0 
-1.38989 -2.58192 0 
-1.19156 -2.58574 0 
-0.980753 -2.62863 0 
-0.798069 -2.5446 0 
-0.601465 -2.63162 0 
-0.400347 -2.54605 0 
-0.199199 -2.63398 0 
0.0043548 -2.54624 0 
0.208293 -2.6358 0 
0.411951 -2.54821 0 
0.618595 -2.63318 0 
0.827748 -2.55749 0 
1.04208 -2.63466 0 
1.2619 -2.58101 0 
1.51972 -2.61486 0 
1.74968 -2.59435 0 
1.96886 -2.59308 0 
2.18886 -2.59592 0 
2.40762 -2.59497 0 
2.62359 -2.59346 0 
2.83749 -2.59275 0 
3.05118 -2.5928 0 
3.26385 -2.59234 0 
3.4764 -2.59262 0 
3.689 -2.59255 0 
3.90135 -2.59238 0 
4.1135 -2.59233 0 
4.32564 -2.59243 0 
4.53796 -2.59257 0 
4.75052 -2.5926 0 
4.96326 -2.59238 0 
5.17609 -2.59232 0 
5.38945 -2.59246 0 
5.60379 -2.59234 0 
5.81894 -2.59184 0 
6.03497 -2.59076 0 
6.25169 -2.58973 0 
6.46971 -2.58923 0 
6.68958 -2.58733 0 
6.90993 -2.58852 0 
7.13514 -2.59597 0 
7.37261 -2.59335 0 
7.59961 -2.60178 0 
7.84242 -2.61998 0 
8.06858 -2.58957 0 
8.29878 -2.64512 0 
8.48528 -2.55841 0 
-8.48528 -2.29398 0 
-8.24962 -2.40503 0 
-8.00001 -2.34167 0 
-7.76714 -2.39738 0 
-7.5761 -2.28511 0 
-7.4002 -2.42083 0 
-7.16425 -2.36979 0 
-6.9398 -2.35171 0 
-6.70294 -2.36296 0 
-6.46635 -2.36582 0 
-6.23386 -2.36419 0 
-6.00839 -2.35922 0 
-5.78731 -2.35662 0 
-5.56899 -2.35636 0 
-5.35251 -2.35754 0 
-5.13678 -2.35823 0 
-4.92209 -2.35817 0 
-4.70837 -2.3578 0 
-4.49536 -2.35743 0 
-4.28256 -2.3571 0 
-4.07019 -2.35651 0 
-3.85791 -2.35634 0 
-3.64564 -2.35638 0 
-3.433 -2.35656 0 
-3.22008 -2.35644 0 
-3.00691 -2.356 0 
-2.79348 -2.35516 0 
-2.5798 -2.35441 0 
-2.36545 -2.35434 0 
-2.14961 -2.35477 0 
-1.9317 -2.35456 0 
-1.71107 -2.35318 0 
-1.4888 -2.35788 0 
-1.25224 -2.33146 0 
-1.02275 -2.40232 0 
-0.813133 -2.28873 0 
-0.600526 -2.39072 0 
-0.398679 -2.27559 0 
-0.19802 -2.39215 0 
0.00415588 -2.27576 0 
0.207172 -2.39389 0 
0.410172 -2.28008 0 
0.617872 -2.3986 0 
0.825183 -2.29705 0 
1.04128 -2.41444 0 
1.23198 -2.30263 0 
1.416 -2.41591 0 
1.62921 -2.36575 0 
1.83617 -2.35338 0 
2.05606 -2.36409 0 
2.27808 -2.36503 0 
2.497 -2.36073 0 
2.71185 -2.35729 0 
2.92721 -2.35746 0 
3.14022 -2.35543 0 
3.353 -2.3555 0 
3.56575 -2.35578 0 
3.77853 -2.35519 0 
3.99073 -2.35476 0 
4.2028 -2.35493 0 
4.41518 -2.35541 0 
4.62792 -2.35581 0 
4.84092 -2.35578 0 
5.05413 -2.35545 0 
5.26758 -2.35601 0 
5.48255 -2.35707 0 
5.69913 -2.35685 0 
5.91685 -2.35599 0 
6.13613 -2.35387 0 
6.35658 -2.3527 0 
6.57937 -2.35248 0 
6.80647 -2.34883 0 
7.03277 -2.35632 0 
7.26694 -2.37961 0 
7.53421 -2.35967 0 
7.77528 -2.41101 0 
8.01906 -2.33457 0 
8.25996 -2.41251 0 
8.48528 -2.2938 0 
-8.48528 -2.04194 0 
-8.27086 -2.16919 0 
-8.0537 -2.10709 0 
-7.79704 -2.1422 0 
-7.54356 -2.05145 0 
-7.32854 -2.19583 0 
-7.0797 -2.11359 0 
-6.82786 -2.13096 0 
-6.58678 -2.13647 0 
-6.35237 -2.1351 0 
-6.1269 -2.12734 0 
-5.90541 -2.1221 0 
-5.68751 -2.12145 0 
-5.47046 -2.12254 0 
-5.25462 -2.1251 0 
-5.03873 -2.12546 0 
-4.82426 -2.12494 0 
-4.6111 -2.12426 0 
-4.39794 -2.12422 0 
-4.18549 -2.12324 0 
-3.97308 -2.12285 0 
-3.76113 -2.1226 0 
-3.54864 -2.12314 0 
-3.33578 -2.12319 0 
-3.12263 -2.12279 0 
-2.90913 -2.12185 0 
-2.69533 -2.12042 0 
-2.48123 -2.11966 0 
-2.26619 -2.12025 0 
-2.04967 -2.121 0 
-1.83224 -2.12033 0 
-1.61641 -2.1166 0 
-1.41072 -2.13159 0 
-1.22909 -2.05591 0 
-1.03478 -2.17447 0 
-0.816346 -2.04163 0 
-0.604901 -2.14364 0 
-0.398043 -2.01337 0 
-0.196834 -2.13559 0 
0.00351638 -2.01005 0 
0.205653 -2.13798 0 
0.40675 -2.01656 0 
0.614138 -2.14937 0 
0.816717 -2.03812 0 
1.02447 -2.16588 0 
1.23856 -2.05887 0 
1.45663 -2.18264 0 
1.6831 -2.1105 0 
1.91557 -2.13466 0 
2.14954 -2.14006 0 
2.37479 -2.13387 0 
2.5906 -2.12429 0 
2.80981 -2.12606 0 
3.02337 -2.12123 0 
3.23643 -2.12087 0 
3.44935 -2.12156 0 
3.66228 -2.12188 0 
3.87521 -2.12041 0 
4.08693 -2.12029 0 
4.29914 -2.1212 0 
4.51216 -2.12192 0 
4.72532 -2.12199 0 
4.93861 -2.12146 0 
5.15178 -2.12087 0 
5.36609 -2.12326 0 
5.58278 -2.12463 0 
5.80162 -2.12347 0 
6.02126 -2.12192 0 
6.24357 -2.11845 0 
6.46635 -2.11794 0 
6.69394 -2.12045 0 
6.92906 -2.11298 0 
7.14939 -2.13196 0 
7.37437 -2.18394 0 
7.57598 -2.08893 0 
7.79144 -2.19343 0 
8.02128 -2.0809 0 
8.25122 -2.17973 0 
8.48528 -2.0416 0 
-8.48528 -1.80188 0 
-8.2472 -1.91934 0 
-7.93355 -1.9201 0 
-7.7031 -1.88765 0 
-7.45194 -1.80357 0 
-7.30338 -1.98222 0 
-7.15863 -1.83801 0 
-6.93351 -1.90318 0 
-6.6966 -1.90872 0 
-6.46163 -1.90956 0 
-6.23851 -1.89625 0 
-6.01827 -1.88901 0 
-5.8 -1.88387 0 
-5.58538 -1.88705 0 
-5.36845 -1.8895 0 
-5.15302 -1.89351 0 
-4.93607 -1.89208 0 
-4.72299 -1.88988 0 
-4.50946 -1.89016 0 
-4.29722 -1.88828 0 
-4.08442 -1.88749 0 
-3.87301 -1.88596 0 
-3.66095 -1.88688 0 
-3.44833 -1.88748 0 
-3.23525 -1.88743 0 
-3.02174 -1.88691 0 
-2.80769 -1.88559 0 
-2.59311 -1.8841 0 
-2.37759 -1.88452 0 
-2.15973 -1.88673 0 
-1.93798 -1.88822 0 
-1.71068 -1.88706 0 
-1.47359 -1.88657 0 
-1.24778 -1.8222 0 
-1.02284 -1.92815 0 
-0.80385 -1.79578 0 
-0.600806 -1.89314 0 
-0.396984 -1.75029 0 
-0.197641 -1.873 0 
0.00209311 -1.74669 0 
0.203737 -1.87569 0 
0.402461 -1.75264 0 
0.607492 -1.89273 0 
0.815713 -1.78977 0 
1.02972 -1.92192 0 
1.24922 -1.816 0 
1.45559 -1.95568 0 
1.641 -1.8465 0 
1.829 -1.89424 0 
2.0366 -1.9219 0 
2.26571 -1.91273 0 
2.47287 -1.8915 0 
2.69744 -1.89845 0 
2.9107 -1.8868 0 
3.12326 -1.88442 0 
3.33604 -1.88488 0 
3.54895 -1.88568 0 
3.76199 -1.88539 0 
3.97509 -1.88216 0 
4.18588 -1.88396 0 
4.39908 -1.88643 0 
4.61337 -1.8867 0 
4.8271 -1.88614 0 
5.03929 -1.88446 0 
5.25357 -1.88665 0 
5.4684 -1.89157 0 
5.68756 -1.89332 0 
5.90883 -1.89013 0 
6.13039 -1.8891 0 
6.35601 -1.88273 0 
6.58363 -1.88863 0 
6.82225 -1.89939 0 
7.08664 -1.88268 0 
7.33307 -1.9567 0 
7.55718 -1.84508 0 
7.79325 -1.95298 0 
8.01956 -1.83583 0 
8.25195 -1.94152 0 
8.48528 -1.80141 0 
-8.48528 -1.56747 0 
-8.26976 -1.6519 0 
-8.07463 -1.74951 0 
-7.84899 -1.67011 0 
-7.63097 -1.6517 0 
-7.29445 -1.62894 0 
-7.02058 -1.65289 0 
-6.80762 -1.68111 0 
-6.56759 -1.69051 0 
-6.34946 -1.66802 0 
-6.13225 -1.6579 0 
-5.91482 -1.65255 0 
-5.69828 -1.64753 0 
-5.48709 -1.65914 0 
-5.26727 -1.66074 0 
-5.05117 -1.66766 0 
-4.83461 -1.65909 0 
-4.62075 -1.66102 0 
-4.41036 -1.65807 0 
-4.19651 -1.6586 0 
-3.98616 -1.65452 0 
-3.77494 -1.65547 0 
-3.56294 -1.65678 0 
-3.35012 -1.65719 0 
-3.13674 -1.65684 0 
-2.92286 -1.65587 0 
-2.7084 -1.65382 0 
-2.49364 -1.65253 0 
-2.27831 -1.65447 0 
-2.06127 -1.6577 0 
-1.84235 -1.65911 0 
-1.62234 -1.65954 0 
-1.41408 -1.63009 0 
-1.21216 -1.58443 0 
-1.01741 -1.69878 0 
-0.809616 -1.5563 0 
-0.597577 -1.63511 0 
-0.394879 -1.48494 0 
-0.198921 -1.60446 0 
0.00108243 -1.48808 0 
0.202797 -1.60844 0 
0.402071 -1.48858 0 
0.604855 -1.63574 0 
0.816376 -1.5507 0 
1.03401 -1.68394 0 
1.25451 -1.57666 0 
1.46237 -1.69975 0 
1.6989 -1.60907 0 
1.9145 -1.6732 0 
2.13211 -1.71849 0 
2.34032 -1.65793 0 
2.58147 -1.68285 0 
2.79633 -1.65871 0 
3.00855 -1.65175 0 
3.2206 -1.65236 0 
3.43356 -1.65383 0 
3.64648 -1.65485 0 
3.86004 -1.65374 0 
4.07371 -1.648 0 
4.28292 -1.65582 0 
4.49954 -1.65816 0 
4.71739 -1.65649 0 
4.92701 -1.65114 0 
5.14152 -1.65433 0 
5.3562 -1.65677 0 
5.57097 -1.66607 0 
5.79348 -1.66528 0 
6.01775 -1.65851 0 
6.23476 -1.65681 0 
6.46676 -1.64977 0 
6.68778 -1.66623 0 
6.91805 -1.69627 0 
7.11194 -1.61455 0 
7.31884 -1.73169 0 
7.54726 -1.60755 0 
7.78284 -1.71797 0 
8.01295 -1.60007 0 
8.2507 -1.70589 0 
8.48528 -1.5671 0 
-8.48528 -1.35137 0 
-8.25077 -1.40854 0 
-8.02802 -1.50963 0 
-7.7713 -1.42159 0 
-7.50578 -1.49287 0 
-7.31967 -1.36272 0 
-7.12068 -1.46629 0 
-6.8904 -1.41201 0 
-6.68597 -1.488 0 
[...]
POINT_DATA 1978 
VECTORS vectors float
-0.0210719 -0.0357398 1.02903 
0.077822 -0.0632463 0.978351 
0.011511 0.0184835 1.01964 
0.0687384 0.0494906 0.951918 
0.0751097 0.0794575 1.06278 
-0.0346208 0.0242347 0.907046 
0.0872167 -0.0581397 0.92423 
0.0163058 0.0528451 1.02026 
-0.00564833 -0.00403018 1.06584 
0.0223244 -0.014218 0.984395 
0.0290142 0.00279544 0.976694 
-0.0625279 0.151161 1.0252 
0.0394297 0.024572 1.09462 
-0.0113217 0.0790225 0.963166 
0.0382623 0.0108009 0.975809 
0.0795444 0.077465 1.04038 
0.076282 0.0344888 0.937497 
-0.0419604 0.155404 0.908463 
-0.0101692 0.114394 0.948639 
-0.0204169 0.147181 0.975058 
0.0501305 0.223094 0.984966 
-0.0874216 0.0595914 0.995515 
-0.0443065 0.26214 0.953952 
0.0119077 0.26063 1.01961 
0.0909119 0.144417 0.952901 
-0.0879221 0.188754 1.04641 
-0.0508034 0.286087 0.932155 
0.0689755 0.321874 1.02432 
-0.0137172 0.363656 0.99146 
0.0435505 0.322159 0.902405 
-0.00222414 0.359055 0.888562 
0.0331945 0.371395 0.975712 
0.0878641 0.534025 0.932818 
0.00773342 0.581136 0.909942 
0.0975821 0.680944 0.858581 
-0.0545941 0.731775 0.774555 
0.0551606 0.876232 0.605028 
0.0235873 0.98794 0.424198 
-0.0599995 0.944353 0.319031 
0.0962929 0.93883 0.0156012 
0.0530273 0.908364 -0.19479 
0.0788543 0.837311 -0.468006 
0.0489977 0.757948 -0.627792 
0.0449441 0.762149 -0.607617 
-0.082294 0.554586 -0.761174 
-0.00747771 0.467604 -0.901808 
-0.0295558 0.556718 -0.810784 
-0.0776058 0.351432 -0.920891 
-0.0816401 0.417425 -0.855981 
-0.0858972 0.338667 -0.842238 
0.0990747 0.325746 -1.01336 
-0.0597322 0.211676 -0.920059 
0.0152 0.249287 -0.949928 
-0.0410885 0.166655 -0.95584 
0.0158905 0.205285 -1.02056 
0.0147078 0.160188 -1.07521 
0.019621 0.0921203 -0.968442 
-0.0225675 0.242268 -1.03301 
-0.0768505 0.0840682 -1.05685 
0.0192103 0.0926938 -1.04708 
0.0546669 0.0479473 -1.05819 
-0.00178989 0.0623181 -1.06288 
0.0115923 0.174521 -0.941817 
0.0649294 0.145528 -1.0808 
0.0568845 0.0243568 -0.95358 
0.0431622 0.0997595 -0.913495 
-0.0629166 0.118734 -1.03337 
-0.0178262 0.13076 -1.01816 
0.0180156 0.03167 -0.932551 
0.019791 0.0951631 -1.00504 
0.0537018 0.0535249 -0.903252 
-0.0171547 -0.0357976 -0.972801 
-0.0548862 -0.0544297 -0.906299 
-0.00373793 -0.0421329 -0.9133 
0.0748628 -0.00561666 -0.994756 
-0.0974832 0.0695782 -1.01509 
0.0827619 -0.0327532 -1.07346 
0.0797766 -0.0579484 -0.976919 
0.0952198 -0.0784313 -0.93278 
-0.0280836 0.00341486 1.04762 
0.0414331 0.071709 0.967544 
0.0128198 0.0612632 1.09037 
0.0610908 -0.0360776 0.987677 
-0.0157683 0.0367979 0.989384 
0.0352497 -0.00683105 0.90328 
-0.000327548 0.117849 0.985911 
0.0328032 0.0729365 1.07657 
0.0812427 0.00171639 0.959971 
0.0327449 0.0221255 1.01974 
0.0668127 0.0611729 1.02977 
-0.0197677 -0.00821342 1.00304 
0.0545805 0.150272 0.9842 
0.0702776 0.109229 1.09457 
0.0597365 0.102661 0.984276 
0.0412185 0.0550345 1.07144 
-0.0622066 0.00824457 0.937902 
-0.00196676 0.090626 0.995385 
0.0584569 0.212978 1.00638 
-0.00590968 0.105103 1.0141 
-0.0454095 0.161177 0.982942 
-0.0533812 0.0588402 1.08409 
0.0138422 0.188046 0.985929 
-0.0983813 0.289036 0.945535 
-0.0696668 0.288022 1.04494 
0.0962891 0.165244 0.953465 
-0.0166499 0.313123 0.8901 
-0.0373555 0.198734 0.931285 
-0.0484837 0.237048 0.988307 
0.0160101 0.306581 0.999608 
-0.0037261 0.420156 0.818725 
-0.0915945 0.459226 0.822339 
-0.0433774 0.554337 0.836585 
-0.000100112 0.524033 0.868137 
0.045556 0.682864 0.732569 
0.0298596 0.756444 0.569995 
-0.0925848 0.797108 0.589322 
-0.0191499 0.847551 0.488974 
-0.0851467 0.900058 0.23845 
0.0768357 1.06668 -0.0400793 
-0.0923866 0.897393 -0.307139 
0.09422 0.897076 -0.440802 
0.00624413 0.856959 -0.484943 
-0.0108316 0.743613 -0.64656 
-0.0241344 0.605374 -0.74162 
-0.00956585 0.64998 -0.789022 
0.0603981 0.467825 -0.902178 
-0.0575433 0.342006 -0.939035 
-0.0583175 0.415195 -1.00944 
0.0568361 0.313575 -0.871018 
-0.0273577 0.302547 -0.916044 
-0.0904034 0.235716 -1.03286 
0.0565942 0.164845 -0.949531 
0.0359207 0.128124 -1.00816 
0.015989 0.186695 -0.971071 
-0.0670848 0.218481 -0.943384 
-0.0652585 0.193067 -0.935264 
-0.0273238 0.0730971 -1.02597 
-0.0898668 0.148524 -0.90795 
-0.00594168 0.0205851 -0.913748 
0.0625499 0.0973427 -1.07372 
-0.0446807 0.0390596 -0.965745 
0.0651794 0.00723725 -1.07985 
0.099524 0.0347883 -1.05047 
-0.00148754 0.0979048 -1.01359 
0.0230108 0.0983809 -0.996684 
-0.0897436 0.0511947 -1.07532 
-0.0347287 -0.0156998 -0.974412 
0.0194595 0.113686 -0.911564 
-0.0104661 -0.0143595 -1.06403 
0.00961723 -0.00498201 -1.02174 
0.0569727 0.0990285 -0.965262 
-0.0720076 -0.00400019 -0.991508 
0.0819468 -0.0525275 -1.01754 
-0.0471311 -0.0761919 -1.00454 
-0.0123612 0.100662 -0.946819 
0.0709394 0.0861483 -0.929912 
0.0759854 -0.0506086 -0.942744 
0.0251964 -0.0538431 -0.913296 
-0.0175812 -0.0858373 1.02288 
0.0129232 0.0492932 0.974672 
-0.00209519 -0.0923314 1.08435 
0.0277014 -0.00383246 1.0784 
0.0345153 0.0777804 1.08174 
-0.0937843 0.050655 1.03218 
-0.0221342 0.0106127 0.933874 
0.00313574 0.115169 1.02203 
0.00141202 0.00801297 1.08466 
0.0164713 0.0109911 1.02437 
0.0227635 0.0942468 1.07292 
-0.0380667 0.141157 1.07974 
0.0181334 0.0121715 0.980668 
0.0126361 0.00988891 1.05658 
0.0950455 0.0311289 0.963543 
0.00821549 0.0723817 0.939982 
0.0970813 0.137189 1.0914 
-0.020815 0.0612355 0.958011 
0.0976222 0.19323 1.0385 
0.0111491 0.156417 0.892751 
-0.0167063 0.0710075 0.924108 
-0.0853863 0.207882 0.896984 
0.0161869 0.108894 1.04492 
0.00455451 0.111593 1.01316 
-0.0225342 0.223973 0.901267 
0.00560984 0.16547 1.03221 
-0.00458682 0.16492 0.994747 
0.00504885 0.361106 0.90006 
-0.0309648 0.375624 0.878919 
0.0266554 0.432696 0.872005 
0.0714842 0.407714 0.875556 
-0.00664429 0.360999 0.881145 
0.0134891 0.417032 0.802682 
0.0116193 0.469983 0.767565 
-0.0643708 0.655042 0.733483 
0.0307211 0.702423 0.672455 
-0.00775685 0.750352 0.640045 
-0.0161034 0.876574 0.378461 
-0.0476329 0.989545 0.156977 
-0.0690588 0.926871 0.0366841 
-0.0703561 0.962864 -0.241987 
0.0663142 0.968827 -0.331469 
0.0476294 0.762466 -0.631662 
-0.0136499 0.7151 -0.714004 
-0.0109256 0.650763 -0.732828 
-0.0622729 0.521515 -0.76321 
-0.0558502 0.427436 -0.80558 
0.0590085 0.360292 -0.919533 
-0.040962 0.387943 -1.00142 
0.00368326 0.424642 -0.945833 
0.0846403 0.257049 -0.945988 
0.00537556 0.189323 -1.01423 
0.00747218 0.315672 -0.932199 
0.0541079 0.220172 -0.94494 
-0.0375434 0.179727 -0.993519 
0.0668916 0.253245 -0.888725 
-0.0297491 0.229411 -1.07373 
0.0441819 0.111458 -0.907475 
-0.0910341 0.183911 -1.08868 
-0.0658306 0.135928 -1.05445 
-0.0906593 0.168779 -0.996743 
-0.0349867 0.0653362 -1.08231 
-0.0986305 0.1125 -1.00374 
0.0300062 0.105546 -0.911335 
0.0270515 0.0840502 -0.980732 
-0.0333518 0.123529 -0.947389 
-0.0165665 -0.0241375 -0.944645 
0.0458337 0.0432097 -0.92323 
-0.0151785 0.0343489 -0.988328 
-0.0686319 -0.0068339 -0.998319 
0.0727798 0.101788 -0.920256 
-0.0295269 -0.0224153 -0.901447 
-0.0857799 -0.0700164 -0.932438 
-0.0787984 0.0469664 -1.0119 
-0.0463328 -0.0702851 -1.06156 
0.092525 0.0648485 -0.91426 
0.0811359 0.0989266 -0.917197 
0.0533312 -0.0615832 -1.04823 
0.0878869 0.00729228 -0.979182 
-0.0708078 -0.0770421 0.973813 
0.012894 0.064387 0.974123 
-0.0761761 -0.0339567 0.974585 
-0.0814878 0.0301061 1.02664 
0.0371668 0.0361396 1.02861 
0.0719238 0.105768 1.0701 
0.0642192 0.0942757 0.94174 
0.0315341 0.00110849 1.07457 
0.0559918 -0.0299853 0.982155 
0.0472283 0.124588 0.939272 
-0.0841062 0.115621 0.955446 
0.0832106 0.0532463 0.902652 
-0.0544261 -0.0288398 0.987466 
-0.0840132 0.158975 1.06897 
-0.00070773 0.106378 1.02104 
-0.0645912 0.149486 1.07476 
0.0502698 -0.00378705 0.935164 
0.0685729 0.162765 0.967571 
0.0307469 0.0847896 0.965363 
0.0681505 0.195582 0.934063 
-0.0489288 0.173417 1.01623 
-0.007839 0.160805 1.05558 
0.0770563 0.127198 1.04436 
0.0674485 0.132973 1.01795 
0.0975162 0.144563 1.00282 
0.0587233 0.319168 1.04395 
0.0486835 0.260936 0.957843 
-0.0463902 0.275204 0.93002 
-0.00204336 0.317419 1.01717 
0.0994297 0.389738 1.00889 
0.052627 0.497998 0.864971 
0.0994148 0.450354 0.971249 
0.0967008 0.528473 0.854491 
0.0569865 0.609615 0.826811 
-0.0491492 0.594747 0.714509 
0.0926568 0.801002 0.649932 
-0.0411534 0.733996 0.609121 
0.0213358 0.83274 0.393365 
0.0239953 0.998255 0.181779 
0.0866453 0.901897 0.00622888 
-0.077039 1.01926 -0.280914 
0.0346023 0.927685 -0.475787 
-0.0969378 0.840997 -0.592978 
-0.0188093 0.810043 -0.605146 
0.0512369 0.676731 -0.667211 
-0.0636463 0.524356 -0.737701 
-0.0542001 0.496199 -0.890397 
0.0405591 0.392926 -0.963009 
-0.0666191 0.371772 -0.881907 
0.00942423 0.273656 -0.928969 
-0.0677008 0.398159 -0.891812 
0.0829894 0.344971 -0.908169 
-0.0873383 0.182129 -1.041 
-0.0967032 0.260864 -0.890832 
-0.0483806 0.227404 -1.0049 
0.0791541 0.196266 -1.04887 
-0.035953 0.15187 -1.02527 
0.0178281 0.216464 -0.968575 
-0.0370035 0.138868 -0.979594 
0.0708541 0.109733 -0.897874 
0.0200751 0.0364052 -1.08605 
0.040373 0.0175595 -0.996009 
-0.0216009 0.0930644 -1.06578 
-0.0128765 0.14453 -1.08772 
-0.0564615 0.143885 -1.01146 
0.0781929 0.0845389 -1.03013 
0.0332946 0.104519 -0.980991 
0.078989 0.0125047 -0.935279 
0.0278728 0.108005 -1.03558 
-0.0371522 0.100608 -0.994805 
-0.0461007 0.0154938 -1.00356 
-0.0347873 -0.0455885 -0.979531 
0.0415915 0.0169645 -0.937748 
0.0665643 0.0416469 -1.02049 
0.0202333 0.0748857 -0.910222 
-0.0690133 0.0684952 -1.01604 
-0.0402093 0.0298251 -1.07425 
0.0693933 -0.0222035 -0.96422 
0.0863721 -0.0837628 -1.01465 
0.0218552 -0.0196932 0.969728 
-0.0225872 -0.0886958 1.04692 
-0.0472675 0.0293037 0.985131 
-0.0768635 0.0180867 1.06779 
0.0399699 0.105246 1.08566 
0.088724 0.0598999 0.952853 
-0.0495124 0.117604 1.02464 
0.0391006 -0.0426733 1.02701 
-0.0817651 -0.00681054 1.0122 
-0.0818757 0.0695823 0.95345 
0.0888213 -0.0232366 0.918686 
-0.00172991 0.125544 1.00076 
0.0346429 0.107539 1.00511 
-0.0657974 0.151295 1.00512 
0.0565578 0.170563 0.959584 
-0.0719829 0.0190063 1.05756 
0.0128015 0.0414135 1.05184 
0.00337763 0.0110318 0.994966 
0.0385783 0.194011 0.896854 
0.0213465 0.0585697 1.04673 
0.0124025 0.226012 1.00418 
-0.0632357 0.187835 1.02617 
-0.063673 0.16373 0.92577 
-0.0483062 0.218038 0.95206 
-0.0262669 0.224874 0.939159 
-0.0887811 0.238416 1.03333 
-0.0800333 0.238425 1.06784 
-0.0282256 0.194262 1.03764 
0.0339749 0.274391 0.955057 
-0.030202 0.409385 0.949133 
-0.0928822 0.409807 0.941934 
-0.0806203 0.481817 0.936159 
0.0399638 0.460637 0.792595 
-0.0241234 0.598217 0.897623 
0.0456514 0.640991 0.734217 
0.0754408 0.644853 0.619542 
-0.0965526 0.894638 0.490541 
-0.0399798 0.86793 0.302749 
0.0657948 0.893497 0.160925 
0.0406567 0.979932 0.0754971 
0.0572512 1.06305 -0.141484 
-0.059344 0.819223 -0.396322 
0.0742242 0.905219 -0.521341 
0.0771194 0.808548 -0.737867 
0.0640479 0.685183 -0.67508 
0.0907084 0.47812 -0.912002 
0.0398802 0.538062 -0.796849 
0.00555673 0.364212 -0.806874 
-0.0558744 0.393779 -0.927887 
-0.00141046 0.320804 -0.953889 
-0.0259885 0.278845 -0.954197 
-0.0427764 0.363983 -1.05432 
0.000759379 0.264631 -1.02342 
-0.0515194 0.19533 -1.03427 
-0.0608215 0.233312 -0.964311 
-0.0431629 0.221349 -0.98153 
0.0115293 0.183813 -1.02901 
-0.0948116 0.12588 -1.01722 
-0.0456787 0.213359 -0.900707 
0.0113671 0.0306407 -0.925888 
-5.03613e-05 0.158389 -1.0657 
-0.0813485 0.10133 -0.958181 
0.0510908 0.133194 -0.966009 
0.0925079 -0.0118289 -0.916131 
0.0417886 0.166796 -0.911097 
0.0883079 0.0680364 -1.01687 
0.0841339 0.118686 -0.973169 
0.0196039 0.0541185 -1.05884 
0.0378971 0.0606541 -0.908826 
0.0363916 0.0763975 -1.00761 
0.0783249 0.107935 -0.923236 
0.0482115 0.0630592 -0.9723 
-0.0150167 -0.0746817 -0.998392 
-0.0421027 -0.0499354 -1.0706 
0.0161701 -0.0649895 -0.916577 
0.0641257 -0.0454546 -0.933744 
-0.0645574 -0.0654724 -0.920919 
-0.091097 -0.0234204 -1.09004 
0.0554983 0.055817 -1.02133 
-0.0207976 -0.097829 1.09612 
-0.0191587 -0.0305457 1.03849 
-0.000777256 -0.0487392 1.08677 
-0.0431229 0.072905 1.09598 
0.0123346 -0.00510668 1.00615 
-0.0943022 -0.00411169 0.93375 
0.0384588 0.122296 0.949731 
-0.0876105 0.0433646 0.917906 
-0.0125116 0.0705636 1.03919 
-0.0750137 0.0265886 0.998504 
-0.0783295 -0.0322983 0.940321 
-0.0338184 0.150743 0.905178 
-0.0533803 0.0548716 0.976126 
-0.0127776 0.0716847 1.05183 
-0.0808594 0.0660016 1.07946 
0.0631422 0.0339514 0.99335 
-0.0129685 0.0784733 1.04304 
0.0162917 0.0193173 0.924876 
0.0518873 0.127011 1.08222 
-0.0823792 0.0383286 1.00148 
-0.0522339 0.219819 0.946089 
-0.0628275 0.0891488 0.949767 
0.0893822 0.109928 0.951726 
0.0118135 0.214159 1.07761 
0.082454 0.186882 1.00288 
0.0940336 0.203793 0.947376 
-0.0521765 0.218906 1.01467 
-0.0274025 0.329786 0.898213 
0.0341378 0.277614 0.955457 
-0.0226427 0.356542 1.02471 
0.00776993 0.425823 0.910263 
0.0819672 0.517985 0.800652 
0.0985459 0.496009 0.87425 
-0.0460005 0.48961 0.784504 
-0.0368524 0.554146 0.658778 
0.0933089 0.722394 0.619206 
-0.0911808 0.804743 0.555281 
-0.0428426 0.900104 0.319479 
-0.0898937 0.952187 0.128456 
0.0926905 1.02126 -0.0798513 
0.0819567 0.912029 -0.142026 
-0.0495353 0.922097 -0.371035 
0.0734364 0.791956 -0.552166 
0.0806613 0.701846 -0.739859 
0.089485 0.581636 -0.765089 
0.0364091 0.622781 -0.828196 
-0.00158342 0.544842 -0.952557 
0.0474801 0.390535 -0.90971 
-0.0899777 0.311465 -0.991753 
0.0207072 0.265604 -1.00669 
-0.087451 0.33497 -0.949297 
0.0729828 0.347976 -1.01967 
-0.0623761 0.178088 -0.902076 
0.0411347 0.27872 -0.941709 
-0.0951641 0.134687 -0.956926 
0.0499112 0.108991 -0.985141 
-0.0414965 0.0651053 -0.919053 
-0.0724221 0.24588 -1.00669 
-0.0811424 0.0821911 -0.974768 
-0.0403517 0.0437716 -0.912729 
-0.0474314 0.0499109 -0.897773 
0.0671239 0.087958 -0.987173 
-0.0200035 0.150416 -0.953466 
-0.0917106 0.0869478 -0.958362 
-0.00340171 0.151802 -1.06209 
-0.0986386 0.0902763 -0.932129 
-0.0786982 -0.00393795 -0.996083 
0.00889134 0.00759592 -1.02409 
-0.0202892 0.0214709 -1.07316 
0.0357378 0.0922117 -1.00548 
0.0146096 0.126178 -1.0507 
-0.0575201 -0.00775536 -1.04778 
-0.0153555 0.0262117 -1.08917 
0.0258785 0.070984 -0.995436 
0.0144012 0.115544 -0.929683 
-0.0980315 0.0611057 -1.0239 
0.0342545 0.0713716 -0.992558 
0.0968039 -0.0866051 -1.04844 
-0.081664 -0.0682954 -1.00523 
0.00460624 0.0702281 1.01115 
-0.046397 0.0937593 0.941346 
-0.0142991 0.0368376 1.02594 
0.0258895 -0.0294647 1.03083 
-0.0163341 -0.00107007 1.00982 
0.0262272 0.0572429 0.908842 
0.0851164 0.0013065 0.936156 
-0.0157056 0.0178339 0.978214 
0.0503611 0.0279198 1.06365 
-0.0353295 -0.00883245 0.914642 
-0.025543 0.0209509 0.916464 
-0.060863 0.0499868 0.94534 
0.0890419 -0.0385802 1.00254 
-0.0394313 0.000353103 0.973116 
-0.0193907 0.0197839 1.04773 
-0.0287675 0.0899296 1.08101 
0.0934066 0.0488181 0.950548 
-0.0703094 0.114229 0.956243 
0.0558099 0.171441 0.96297 
0.063151 0.157421 0.913544 
-0.0668697 0.164647 1.02735 
-0.0952712 0.0977137 1.04099 
0.0278119 0.236816 0.945858 
-0.0271548 0.0944118 1.00898 
0.0169706 0.258329 1.00624 
0.026747 0.304198 1.02828 
-0.0103731 0.224326 0.880506 
-0.0375159 0.357094 1.00392 
-0.0336207 0.321766 0.967518 
0.0482414 0.283825 0.974327 
-0.0802076 0.295508 0.912385 
-0.0747536 0.438929 0.870213 
-0.0121911 0.517212 0.900778 
-0.0424352 0.497056 0.896605 
-0.048742 0.654264 0.818075 
0.022882 0.695504 0.579661 
-0.000318357 0.783428 0.457652 
0.0710915 0.949819 0.375928 
0.0650991 1.07233 0.21895 
0.0671423 0.908076 0.0608203 
-0.0925713 1.06501 -0.213405 
-0.0912805 0.963522 -0.413253 
-0.0271333 0.828835 -0.595601 
0.0557298 0.734677 -0.754623 
-0.0475062 0.704265 -0.814955 
0.0914559 0.492368 -0.744723 
0.0430992 0.524986 -0.93246 
-0.0358717 0.362968 -0.883612 
-0.0131833 0.429265 -0.868983 
-0.0834712 0.420744 -0.839817 
0.0967399 0.237305 -0.962943 
0.00226672 0.187215 -0.984597 
0.0485428 0.199967 -0.928257 
0.020023 0.140557 -1.03526 
-0.0558345 0.139451 -1.0305 
-0.00639254 0.119755 -0.939418 
0.0146035 0.16703 -0.951738 
0.0766184 0.229418 -1.01733 
0.0841077 0.149988 -1.02701 
-0.0539895 0.143002 -0.921674 
0.0575227 0.018592 -1.01805 
0.0573294 0.0407824 -0.936871 
-0.0924789 0.0864102 -1.06616 
0.0599617 0.0778902 -1.04244 
0.0520693 0.137635 -1.08062 
-0.0888572 0.00855997 -1.0845 
0.0208118 -0.0278551 -0.93413 
-0.0289628 0.0226433 -0.965995 
0.081037 0.12759 -0.963278 
-0.0685766 -0.0175271 -0.951104 
0.0801076 -0.00328774 -1.0272 
0.0300003 0.063446 -0.966847 
0.0175959 -0.0646508 -1.06983 
-0.0449438 -0.0516001 -1.08774 
0.0104316 -0.0569007 -1.09442 
-0.0849136 0.0751185 -1.03184 
0.0451781 -0.0796118 -0.913677 
0.0383099 -0.0410342 -1.00473 
-0.0443775 0.0423778 -0.914715 
-0.00622243 0.0369787 1.05486 
0.0535291 -0.00833963 1.02356 
-0.0861282 0.0139064 1.05605 
-0.0144277 -0.0216214 1.05634 
0.0983055 -0.00201446 0.982581 
0.0238147 0.0970086 0.971036 
-0.0907609 -0.0161545 1.08358 
0.0406102 -0.0143613 1.05073 
-0.00535689 0.118715 0.937106 
-0.0317403 0.107165 1.09176 
-0.097368 -0.00482394 0.964654 
-0.0996921 0.015086 0.987449 
0.0658496 0.112452 1.07297 
0.0597503 -0.0165813 1.05755 
-0.0902043 0.02781 0.962884 
0.00257716 0.045046 0.934274 
0.0728728 0.11221 1.07329 
0.00795141 0.161533 0.908181 
0.00937248 0.118051 0.953692 
0.0693851 0.105931 0.932514 
0.0488512 0.207893 0.919442 
-0.0823387 0.111046 1.07929 
-0.04663 0.262504 0.910852 
-0.0994038 0.0919284 1.03085 
0.0200852 0.207682 0.95724 
-0.00999294 0.136586 0.979021 
0.00175788 0.283171 0.950595 
0.0726152 0.256274 1.05331 
0.0401331 0.343453 0.982911 
0.0902608 0.320569 0.954231 
0.0476087 0.422883 0.906954 
0.0401205 0.425366 0.911979 
-0.0304297 0.578641 0.848791 
0.0973137 0.498738 0.871483 
-0.0670656 0.542052 0.685974 
0.0224817 0.659535 0.704045 
-0.0115297 0.763862 0.577469 
-0.065108 0.87636 0.344407 
-0.051171 0.882746 0.252804 
-0.0809002 1.04029 -0.0127719 
-0.0901541 1.07385 -0.312806 
-0.00891718 0.924137 -0.331918 
0.0578487 0.817671 -0.612459 
-0.0839733 0.735025 -0.765563 
0.00215605 0.584472 -0.722904 
0.00947085 0.658711 -0.771926 
0.018311 0.513734 -0.834135 
0.0494214 0.500011 -0.963163 
-0.0529071 0.318226 -0.918667 
-0.0290005 0.326646 -0.963726 
-0.0139373 0.24787 -0.893809 
-0.0739689 0.328254 -1.00526 
-0.0802498 0.328679 -0.980815 
-0.0620715 0.299264 -0.921785 
-0.0321407 0.150059 -1.07288 
0.0841313 0.265285 -1.04198 
-0.0696812 0.143407 -1.00779 
0.0274324 0.19543 -1.04001 
-0.00786185 0.124729 -0.922704 
-0.0935283 0.134587 -1.07616 
-0.0901725 0.18337 -1.08656 
0.0616754 0.0490389 -0.989747 
-0.0703094 0.0128076 -1.07816 
0.0714388 0.0540568 -0.985926 
0.0757 -0.00970126 -1.06651 
0.0772572 -0.0236895 -0.995898 
0.0583294 0.13204 -0.961846 
-0.0752742 0.0628912 -1.07058 
-0.0972841 0.129867 -1.07526 
0.025862 0.128497 -0.980356 
0.0565573 0.109383 -1.09212 
0.0994495 -0.0499201 -1.08376 
0.0715909 -0.0548651 -0.945065 
0.0201206 0.00949208 -0.945775 
0.0596764 0.0315997 -0.999934 
-0.0384972 0.00260157 -0.91493 
-0.0134169 0.102684 -0.996235 
-0.0619005 0.0495441 -0.921877 
0.019955 0.0478931 -0.987748 
0.0398306 -0.0600738 1.04024 
0.00601908 0.0829838 1.09795 
0.0351174 0.0911711 0.924418 
-0.0567196 0.0441703 0.98418 
0.0682235 -0.0221001 1.02385 
-0.0966588 0.108055 1.05712 
-0.0578626 0.0764979 1.0382 
-0.047412 -0.0478897 0.920354 
-0.00220921 0.121397 0.993872 
0.0564331 0.140343 0.963062 
-0.0263587 0.0602547 1.01024 
-0.0207376 -0.0441287 0.954839 
0.0239125 0.035662 0.988181 
-0.0746283 0.000684085 0.950758 
-0.0981477 0.139097 1.03821 
0.0356059 0.0598004 0.906062 
-0.088982 0.047743 1.07111 
-0.0201977 0.182276 0.955457 
-0.0952977 0.126525 1.01509 
-0.0637955 0.0854434 0.902361 
0.0721621 0.107553 1.04312 
-0.0514808 0.146496 1.05258 
0.0904397 0.174067 1.04605 
0.074216 0.205437 0.942003 
0.0378203 0.198712 0.923219 
-0.057731 0.151404 1.00019 
-0.0789135 0.2661 0.932703 
0.0728381 0.247359 0.914599 
-0.0289983 0.353521 1.02843 
0.00994214 0.324004 0.982082 
0.0989296 0.371084 0.860541 
-0.0613009 0.473618 0.850658 