# vtk DataFile Version 3.0 
Exported using Morpho https://github.com/Morpho-lang/morpho 
ASCII 
DATASET UNSTRUCTURED_GRID 

POINTS 1978 float 
-8.48563 -2.8288 1.99851e-08 
-8.26253 -2.82841 -1.05458e-07 
-8.09711 -2.82835 3.12354e-08 
-7.81147 -2.82822 -7.72753e-08 
-7.49568 -2.82835 -4.24488e-08 
-7.21464 -2.82846 4.76927e-08 
-6.99844 -2.82849 -5.05992e-08 
-6.7765 -2.82843 -4.14396e-08 
-6.57997 -2.82861 4.00459e-08 
-6.38405 -2.82833 -3.44958e-08 
-6.14622 -2.82854 7.10526e-09 
-5.93919 -2.82847 3.06507e-08 
-5.70282 -2.82836 -6.90725e-08 
-5.50761 -2.82848 1.47014e-07 
-5.28599 -2.82849 -2.44165e-07 
-5.08222 -2.82859 1.85138e-09 
-4.85021 -2.82843 -1.00336e-08 
-4.66621 -2.82848 -3.54881e-08 
-4.4261 -2.8285 -4.77936e-08 
-4.22019 -2.8285 -7.76993e-08 
-3.99556 -2.82858 -1.47306e-07 
-3.79091 -2.82851 -1.75089e-07 
-3.58985 -2.82852 -3.04544e-07 
-3.37765 -2.82858 2.08069e-07 
-3.16964 -2.82873 6.04158e-09 
-2.96464 -2.82868 -6.63625e-08 
-2.74991 -2.82857 -5.2044e-07 
-2.54144 -2.82837 -7.45159e-07 
-2.33991 -2.82873 6.17187e-07 
-2.13137 -2.82835 -1.36564e-06 
-1.9236 -2.82852 -2.02147e-06 
-1.71489 -2.82842 -3.03214e-06 
-1.51621 -2.82838 -9.19001e-06 
-1.29768 -2.82798 -1.12679e-05 
-1.11294 -2.82774 -2.32852e-05 
-0.850707 -2.8275 4.96611e-06 
-0.640504 -2.82735 -2.95832e-06 
-0.436744 -2.82724 1.06064e-05 
-0.211153 -2.82784 2.24135e-05 
0.0124744 -2.82724 -9.51945e-06 
0.225221 -2.82744 3.56368e-05 
0.44364 -2.82734 -1.02027e-05 
0.640653 -2.82765 2.49295e-05 
0.845956 -2.82716 1.45153e-06 
1.07907 -2.8277 9.88308e-06 
1.31307 -2.82794 -2.74694e-06 
1.50723 -2.82818 -3.51469e-07 
1.70047 -2.82827 4.38381e-06 
1.89427 -2.82806 1.65274e-06 
2.12969 -2.8285 2.39512e-06 
2.3437 -2.82813 9.96741e-07 
2.54884 -2.82853 6.10978e-07 
2.7772 -2.82837 1.00833e-07 
2.98693 -2.82852 1.35681e-07 
3.2066 -2.82856 2.06607e-07 
3.40372 -2.82854 3.87839e-07 
3.62098 -2.82866 2.79528e-07 
3.81845 -2.82841 -9.48674e-08 
4.03169 -2.82873 6.59962e-08 
4.25548 -2.82857 -9.77786e-08 
4.44389 -2.82859 1.42976e-09 
4.65265 -2.82873 2.83815e-08 
4.86407 -2.82853 -1.27116e-07 
5.06409 -2.82872 -1.40783e-07 
5.28274 -2.82834 -1.9399e-08 
5.49307 -2.82841 1.67744e-08 
5.69863 -2.82833 -2.06894e-08 
5.91623 -2.82847 -9.83083e-08 
6.13895 -2.82822 2.13188e-08 
6.33621 -2.82844 -2.75618e-08 
6.58779 -2.8283 -5.26575e-08 
6.79697 -2.82826 5.65206e-08 
7.00465 -2.8284 -5.56502e-08 
7.26594 -2.82828 2.94431e-10 
7.50759 -2.82857 6.93214e-08 
7.76618 -2.82837 1.00746e-08 
8.0203 -2.82845 1.67161e-07 
8.19831 -2.82864 -2.92735e-07 
8.48525 -2.8286 -2.1573e-07 
-8.48519 -2.58233 5.85253e-08 
-8.27296 -2.59259 6.39938e-08 
-8.0391 -2.49383 3.43386e-08 
-7.88942 -2.63444 2.77566e-08 
-7.58334 -2.65115 -1.10053e-07 
-7.2735 -2.63392 1.6179e-08 
-7.00781 -2.58111 -1.04861e-08 
-6.79115 -2.59331 1.02212e-07 
-6.56615 -2.56519 -2.92146e-08 
-6.33579 -2.61055 2.99795e-08 
-6.12461 -2.58054 -1.41138e-08 
-5.88707 -2.61457 1.51893e-08 
-5.68424 -2.564 1.75809e-08 
-5.46638 -2.59639 -2.35697e-07 
-5.2532 -2.58256 1.45374e-07 
-5.02555 -2.613 -1.74858e-08 
-4.83054 -2.55846 -1.26064e-07 
-4.60865 -2.61841 5.77369e-08 
-4.39565 -2.58761 3.758e-08 
-4.17388 -2.60816 1.35738e-07 
-3.96477 -2.58662 2.62134e-07 
-3.76374 -2.5787 4.02263e-07 
-3.54656 -2.59556 2.96443e-07 
-3.33551 -2.58859 -1.0461e-07 
-3.1212 -2.59254 1.83981e-07 
-2.90559 -2.59747 3.71182e-07 
-2.6866 -2.59352 8.92044e-07 
-2.47367 -2.58311 1.47617e-06 
-2.26348 -2.59481 -1.97453e-07 
-2.0447 -2.59175 2.71884e-06 
-1.83047 -2.59079 2.03484e-06 
-1.62195 -2.57573 4.81681e-06 
-1.41156 -2.59194 1.28147e-05 
-1.20835 -2.54223 2.37737e-05 
-0.994648 -2.62467 3.21149e-05 
-0.79059 -2.55922 -1.95645e-07 
-0.598552 -2.58028 1.85957e-05 
-0.410661 -2.56957 1.02363e-05 
-0.225219 -2.62215 -3.01545e-05 
-0.0342095 -2.59271 5.93843e-05 
0.171667 -2.60619 -6.97898e-05 
0.393396 -2.60976 2.69225e-05 
0.616792 -2.57194 -9.00223e-05 
0.83576 -2.58285 -2.33365e-05 
1.05819 -2.59501 -1.79811e-05 
1.28709 -2.5954 -2.4249e-06 
1.51283 -2.55339 -1.68043e-06 
1.70485 -2.557 -4.00293e-06 
1.9384 -2.61045 -5.9939e-07 
2.16138 -2.59533 -2.03063e-06 
2.37653 -2.58315 -1.1004e-06 
2.59981 -2.6077 -7.77519e-07 
2.81854 -2.5878 -4.05219e-07 
3.04103 -2.60029 -3.30039e-07 
3.24663 -2.57596 -2.80815e-07 
3.46506 -2.60274 -3.20478e-07 
3.67071 -2.57916 -5.31089e-10 
3.8833 -2.59488 3.6877e-08 
4.10695 -2.61202 1.98172e-07 
4.31106 -2.57004 1.64823e-07 
4.51908 -2.59508 3.95018e-08 
4.73468 -2.5982 1.26232e-07 
4.9481 -2.58566 2.57586e-07 
5.15989 -2.60091 2.41876e-07 
5.3795 -2.58925 -1.66013e-08 
5.58964 -2.58012 -3.24732e-08 
5.8066 -2.5969 1.0572e-07 
6.03095 -2.59886 1.08012e-08 
6.24472 -2.56143 2.59712e-08 
6.4612 -2.61862 6.76294e-08 
6.68758 -2.56919 -4.38995e-08 
6.89598 -2.56466 7.27345e-08 
7.12574 -2.62005 -1.02271e-07 
7.38058 -2.60301 -9.79998e-08 
7.629 -2.61721 1.32801e-07 
7.88736 -2.61416 1.39672e-07 
8.08706 -2.52559 -8.92749e-08 
8.30089 -2.63786 1.81927e-07 
8.48552 -2.54493 1.97995e-07 
-8.48522 -2.397 -7.85765e-08 
-8.18802 -2.32978 4.00847e-10 
-7.90401 -2.25654 4.58975e-08 
-7.74667 -2.45939 1.12782e-08 
-7.57534 -2.31631 1.40231e-08 
-7.41509 -2.46071 -2.21831e-08 
-7.1565 -2.40189 7.27855e-08 
-6.91843 -2.3378 -3.1305e-08 
-6.70232 -2.35328 2.2185e-08 
-6.44576 -2.36699 -4.03963e-09 
-6.24097 -2.35149 1.77233e-08 
-6.00118 -2.3815 -3.51894e-08 
-5.80037 -2.33965 -1.4794e-08 
-5.56552 -2.34373 3.63701e-08 
-5.35933 -2.34841 2.02652e-08 
-5.13156 -2.37254 9.20789e-08 
-4.93837 -2.33265 2.42673e-08 
-4.69901 -2.36428 2.7831e-08 
-4.49654 -2.36926 7.47997e-08 
-4.26186 -2.37644 -4.34947e-08 
-4.05326 -2.35791 -8.4095e-08 
-3.84066 -2.33043 -9.0185e-08 
-3.62618 -2.35842 2.15781e-07 
-3.40872 -2.34824 2.46853e-07 
-3.19049 -2.35503 1.41324e-07 
-2.97216 -2.35536 -5.25423e-08 
-2.75925 -2.35946 1.7694e-08 
-2.54231 -2.34993 -6.95473e-07 
-2.32057 -2.34986 -1.27742e-06 
-2.10794 -2.36295 5.38246e-07 
-1.88561 -2.35301 3.27387e-06 
-1.67093 -2.33535 4.66619e-06 
-1.45513 -2.34309 6.73039e-06 
-1.25231 -2.30524 5.04162e-06 
-1.01453 -2.37738 9.70614e-06 
-0.818528 -2.30767 -7.45009e-06 
-0.621408 -2.32782 -7.09394e-06 
-0.423578 -2.33812 1.4439e-05 
-0.219969 -2.38331 8.48123e-06 
0.00569908 -2.39542 -1.25327e-05 
0.228063 -2.39104 -5.0796e-05 
0.441866 -2.38688 -6.51566e-05 
0.651062 -2.34912 3.77196e-05 
0.866585 -2.3469 -2.57344e-05 
1.07819 -2.36734 -2.85625e-07 
1.20824 -2.26105 8.00469e-06 
1.38348 -2.35341 -9.58546e-07 
1.6002 -2.28732 -2.36209e-06 
1.81941 -2.36936 -2.16445e-06 
2.03716 -2.37613 -1.18649e-06 
2.25951 -2.36178 6.70096e-07 
2.49401 -2.36928 5.07624e-07 
2.70425 -2.36658 2.73281e-07 
2.93665 -2.36244 2.55367e-07 
3.14464 -2.33939 3.10935e-08 
3.37054 -2.36002 -2.12148e-07 
3.57323 -2.3414 -7.54218e-08 
3.78987 -2.35128 -5.82802e-08 
4.00983 -2.37855 -5.29424e-08 
4.21256 -2.34597 -6.28172e-08 
4.44141 -2.34388 -5.19254e-08 
4.64977 -2.35773 -5.14529e-08 
4.86046 -2.35424 -1.49658e-07 
5.08024 -2.35664 -1.77046e-07 
5.29241 -2.36669 -3.80596e-08 
5.50763 -2.34102 -2.12136e-08 
5.72887 -2.35971 -1.87763e-08 
5.94731 -2.3734 3.77165e-08 
6.16306 -2.33944 6.26144e-09 
6.40705 -2.36436 1.79647e-08 
6.60874 -2.35602 -3.22997e-08 
6.84047 -2.31215 2.18018e-08 
7.06601 -2.37192 9.34981e-10 
7.28821 -2.39668 3.84109e-08 
7.54963 -2.39138 -8.35582e-08 
7.79701 -2.40676 2.28132e-08 
8.00969 -2.2894 -2.58319e-08 
8.2645 -2.36026 -9.41785e-08 
8.48508 -2.29762 3.03861e-08 
-8.48535 -2.15079 6.83433e-08 
-8.26249 -2.15658 3.7892e-08 
-8.06382 -2.05814 -5.43736e-08 
-7.73554 -2.12643 -8.49648e-09 
-7.49446 -2.08102 3.46728e-09 
-7.30376 -2.22453 5.44913e-09 
-7.06501 -2.15352 -2.82168e-08 
-6.81838 -2.10803 1.96892e-08 
-6.58432 -2.16065 -2.32852e-08 
-6.37016 -2.11274 -4.14141e-08 
-6.13242 -2.15316 3.47172e-08 
-5.93128 -2.11482 4.14435e-08 
-5.69353 -2.12878 7.93118e-08 
-5.47157 -2.10364 -6.29155e-10 
-5.24762 -2.14235 1.95762e-07 
-5.05412 -2.0993 -2.12525e-09 
-4.82328 -2.14204 2.78193e-08 
-4.61064 -2.12142 3.79659e-08 
-4.39614 -2.16097 -5.56071e-09 
-4.18803 -2.13081 5.43914e-08 
-3.97958 -2.11812 -5.81951e-08 
-3.75428 -2.1058 -1.34575e-07 
-3.5459 -2.12473 -2.17086e-08 
-3.32437 -2.11834 1.47912e-08 
-3.10793 -2.12513 -1.3648e-08 
-2.89469 -2.11596 -4.90337e-09 
-2.68221 -2.12385 -1.00894e-07 
-2.45936 -2.12459 -3.05853e-07 
-2.23997 -2.11944 -5.08733e-07 
-2.02661 -2.1316 -2.09882e-06 
-1.80823 -2.11367 -3.37156e-06 
-1.59019 -2.10011 -3.02714e-06 
-1.39267 -2.08127 -5.75935e-06 
-1.21493 -2.01186 1.4876e-06 
-1.06684 -2.14955 -1.40624e-05 
-0.834024 -2.11017 1.95736e-05 
-0.598078 -2.10083 6.41413e-05 
-0.370058 -2.16603 8.66881e-05 
-0.134636 -2.19892 0.00020158 
0.0819396 -2.21407 -0.000147283 
0.308734 -2.19332 2.09242e-05 
0.441249 -2.07371 -4.27385e-05 
0.578657 -2.13646 -6.73859e-05 
0.731884 -2.08409 2.06736e-05 
0.930206 -2.11737 -2.12195e-05 
1.18036 -2.06932 4.12405e-06 
1.44223 -2.10214 3.00892e-06 
1.69953 -2.0929 -1.93394e-06 
1.90077 -2.14766 -1.72265e-06 
2.11831 -2.14731 4.08395e-07 
2.34702 -2.15452 8.10798e-07 
2.55871 -2.12683 8.35424e-07 
2.77685 -2.14737 1.36413e-07 
2.98468 -2.11093 2.37927e-08 
3.20952 -2.12135 -2.1185e-07 
3.40771 -2.10713 1.29241e-08 
3.62363 -2.11061 -7.60052e-08 
3.84174 -2.13193 3.6497e-09 
4.04014 -2.12743 -1.33116e-07 
4.26909 -2.1297 1.37273e-08 
4.48161 -2.10609 -6.4045e-08 
4.68839 -2.11826 -1.14938e-07 
4.91021 -2.12902 -9.4222e-08 
5.12564 -2.12589 4.20659e-09 
5.33277 -2.12885 -1.08101e-07 
5.56435 -2.12258 -5.17433e-08 
5.77854 -2.13133 4.95324e-08 
5.99071 -2.13577 -3.6901e-08 
6.24015 -2.13942 8.72326e-09 
6.44744 -2.10739 -7.45465e-09 
6.66258 -2.12232 -3.04948e-08 
6.92379 -2.10263 -3.01451e-09 
7.14284 -2.14087 -5.79065e-08 
7.38205 -2.18874 1.98461e-08 
7.56769 -2.08545 4.22181e-08 
7.73833 -2.18433 -1.73938e-08 
7.9378 -2.06562 -4.86776e-08 
8.20082 -2.12703 -3.12983e-09 
8.48546 -2.10966 -5.06149e-08 
-8.48543 -1.83514 -8.76766e-08 
-8.31498 -1.90888 5.94078e-08 
-7.93782 -1.91784 3.57151e-08 
[...]
POINT_DATA 1978 
VECTORS vectors float
0.00190436 0.0406267 0.998614 
-0.00103458 0.0294185 1.00015 
0.000272962 0.0157138 1.00033 
-0.000523024 0.00412604 1.00051 
-0.000199683 0.00165732 1.00038 
-0.000398724 0.00345928 1.00024 
0.000189262 0.0225754 1.00001 
-0.000452452 0.0437326 0.999052 
0.000408528 0.0471757 0.998788 
-0.000336297 0.0363314 0.999298 
0.000260431 0.0412323 0.999183 
-0.000276921 0.0396409 0.999179 
0.000297132 0.0413296 0.999247 
-0.00040675 0.0483006 0.998852 
0.000335149 0.0706331 0.997629 
-0.000341001 0.0694727 0.997811 
0.000290534 0.0723206 0.99763 
-0.000276541 0.0704891 0.99765 
0.000254213 0.0734428 0.997346 
-0.000454603 0.0831304 0.996545 
0.000612664 0.0866177 0.996148 
-0.000969436 0.0995311 0.995082 
0.000925029 0.131145 0.991305 
-0.00099986 0.160036 0.986915 
0.000830766 0.152292 0.988521 
-0.000606879 0.160878 0.987067 
0.000205792 0.19315 0.981291 
-0.000155278 0.220746 0.975383 
-0.000109254 0.240539 0.970602 
-5.13288e-05 0.283043 0.959292 
-0.000121681 0.334928 0.942347 
-0.000416352 0.399839 0.916679 
0.000329058 0.460537 0.887881 
-0.000862797 0.538001 0.842824 
0.000325464 0.611955 0.791285 
-0.000764709 0.742602 0.669536 
0.000237379 0.847237 0.53117 
-0.000467864 0.924742 0.380438 
7.95098e-05 0.980455 0.195852 
-6.65137e-06 1.0003 -0.00338876 
2.26775e-06 0.980651 -0.196925 
0.000321663 0.918122 -0.39697 
8.7759e-05 0.841653 -0.540083 
0.000349682 0.740929 -0.67149 
0.000263903 0.616157 -0.787719 
9.2107e-06 0.52371 -0.851926 
0.000568272 0.453988 -0.891212 
-0.0004019 0.395716 -0.918823 
0.000740527 0.334038 -0.942908 
-0.000434353 0.284417 -0.959009 
0.000623664 0.233401 -0.972215 
-0.000371483 0.209237 -0.977885 
0.000371471 0.192085 -0.981173 
-0.000193796 0.176586 -0.984269 
0.00022657 0.149947 -0.988651 
1.77771e-05 0.124291 -0.992322 
8.32253e-05 0.106085 -0.994472 
-9.56014e-05 0.0967887 -0.995267 
0.000238158 0.0995159 -0.995179 
-0.000407282 0.0944187 -0.995541 
0.000573466 0.0925433 -0.995758 
-0.000557043 0.089007 -0.99604 
0.00049399 0.082076 -0.996682 
-0.000230748 0.0600901 -0.998524 
0.000102286 0.0358999 -0.999646 
2.37725e-05 0.040106 -0.999455 
-0.000187044 0.0477697 -0.998886 
0.000220315 0.0313549 -0.999532 
-0.000176249 0.0241075 -0.99988 
-9.19379e-06 0.0287972 -0.999645 
8.88741e-05 0.0361691 -0.999668 
-0.000258154 0.0390563 -0.999318 
0.000327943 0.0421545 -0.999394 
-0.000307384 0.0272296 -0.99983 
0.00054566 0.000813462 -1.00008 
-0.000784759 -0.00181482 -1.00008 
0.00138522 0.0042854 -1.00049 
-0.00257918 0.00440101 -1.00015 
0.00396039 0.0448722 -0.998252 
0.00352638 0.0352181 0.99934 
0.00594006 0.0276714 0.999662 
0.00400454 0.0101933 0.999949 
0.000842825 0.00888975 1.00005 
-0.00269237 0.00595868 1.0001 
-0.0027566 0.00560379 1.0001 
-0.00618408 0.0182481 0.999953 
-0.00781059 0.0347012 0.999356 
-0.00786777 0.0393093 0.999288 
-0.00498123 0.0391473 0.999211 
-0.00581671 0.0345831 0.999414 
-0.0033426 0.0312708 0.999469 
-0.00272803 0.0288818 0.999636 
-0.000519824 0.0412299 0.999224 
-0.00377181 0.0555675 0.998482 
-0.00342079 0.0699133 0.997615 
-0.00756835 0.0725389 0.997482 
-0.00598029 0.0745103 0.997315 
-0.0062039 0.0787381 0.996919 
-0.00549262 0.0841271 0.99649 
-0.00515425 0.0903569 0.995901 
-0.00616598 0.102855 0.99472 
-0.00443477 0.121669 0.99257 
0.000454362 0.141171 0.990012 
0.00281189 0.150555 0.988708 
-0.00303679 0.173015 0.984983 
-0.00477342 0.2023 0.979369 
-0.00038436 0.228634 0.973582 
-0.000682812 0.25775 0.966323 
-0.00428042 0.303632 0.952854 
-0.00458145 0.35164 0.936283 
-0.00714929 0.414768 0.910018 
-0.0121724 0.492353 0.870344 
-0.0130887 0.576503 0.817009 
-0.00714604 0.674309 0.738461 
0.000149007 0.775514 0.631186 
0.00477367 0.865106 0.501582 
0.000273218 0.933318 0.358297 
0.00443719 0.978679 0.204868 
0.0005049 0.998669 0.0411423 
0.0022392 0.989191 -0.145371 
0.00184922 0.936858 -0.349248 
0.00612421 0.849956 -0.526372 
0.00375197 0.745986 -0.665776 
0.00331872 0.631169 -0.77567 
-0.000664429 0.532941 -0.846109 
0.00249255 0.450776 -0.892698 
0.0068818 0.385386 -0.92278 
0.00575382 0.321917 -0.946911 
0.0064343 0.274208 -0.961813 
0.00488983 0.22956 -0.973374 
0.00384498 0.200293 -0.979731 
0.00196578 0.179275 -0.983876 
0.000183678 0.159926 -0.987127 
0.00609754 0.138138 -0.990513 
0.00825422 0.116938 -0.993222 
0.00568659 0.101153 -0.99497 
0.00116723 0.100314 -0.994885 
-0.00226663 0.0958162 -0.995474 
-0.00128287 0.0910097 -0.995983 
-0.00134291 0.0841031 -0.996434 
-0.00196894 0.0776843 -0.99706 
-0.0037143 0.0630807 -0.998081 
-0.00785147 0.0455893 -0.998956 
-0.00878422 0.0365842 -0.999385 
-0.00783077 0.0347561 -0.999418 
-0.00964 0.027661 -0.999579 
-0.00946147 0.0216388 -0.999798 
-0.00620783 0.0194026 -0.999799 
-0.00492225 0.0273001 -0.99961 
0.000714727 0.0322079 -0.999516 
0.00107994 0.0288931 -0.999625 
0.00271995 0.026729 -0.999747 
0.00295069 0.0169683 -0.999763 
0.00222939 0.00860128 -1.00005 
0.00336655 0.00640848 -0.999965 
-0.00471785 0.00693837 -0.999992 
0.00334525 0.0116346 -0.999946 
0.0165417 0.013138 -0.999884 
0.00151514 0.0296391 0.999577 
0.00966668 0.0196603 0.999837 
0.00446775 0.00779427 1.00007 
0.00152694 0.0051467 0.999984 
-0.00548412 0.00699346 1 
-0.00658288 0.0069173 1.00002 
-0.0102649 0.0135308 0.999857 
-0.0115849 0.0196185 0.999826 
-0.00893049 0.0254546 0.999658 
-0.00479479 0.0323972 0.999482 
-0.00496314 0.0305769 0.999491 
-0.00504736 0.0269533 0.999701 
-0.00406762 0.0281396 0.999658 
-0.00356125 0.035383 0.999344 
-0.00691484 0.0428291 0.999171 
-0.0120417 0.0602281 0.998146 
-0.0185979 0.0670293 0.997778 
-0.0117298 0.0703747 0.997477 
-0.00948703 0.074886 0.997151 
-0.00193594 0.0842045 0.996569 
0.000787283 0.0902629 0.995982 
0.000594737 0.0973116 0.99529 
-0.00279206 0.112991 0.993607 
0.000700492 0.131903 0.99136 
0.00436904 0.15079 0.988703 
0.000413304 0.169786 0.985489 
-0.00384132 0.188308 0.982101 
0.00228826 0.21076 0.977591 
0.00522317 0.244651 0.969638 
-0.00105839 0.283049 0.959184 
-0.00436059 0.334131 0.942536 
-0.00690475 0.387492 0.921993 
-0.0099854 0.467963 0.883929 
-0.00790448 0.551557 0.834343 
-0.00213356 0.664473 0.747341 
0.00727049 0.760572 0.649226 
0.00770128 0.852575 0.522085 
0.00875026 0.926565 0.375887 
0.00225915 0.977898 0.208384 
0.00519535 0.999943 0.00137186 
0.000209288 0.979008 -0.203092 
-0.0019865 0.920031 -0.391309 
-0.00685916 0.83536 -0.549362 
-0.00422697 0.730425 -0.682897 
-0.00126475 0.627883 -0.778227 
-0.00719843 0.571816 -0.820461 
-0.00291582 0.498593 -0.866991 
0.00426896 0.415977 -0.909331 
0.00854542 0.35174 -0.936063 
0.00848343 0.295855 -0.955224 
0.00430114 0.251636 -0.96785 
0.00197291 0.210711 -0.977452 
-0.00061299 0.182745 -0.983149 
-0.00321845 0.163283 -0.986646 
0.00274307 0.141468 -0.989951 
0.00983461 0.121106 -0.992692 
0.00988482 0.1079 -0.994227 
0.0088088 0.100216 -0.995076 
0.00785156 0.0965353 -0.995625 
0.00633119 0.0918088 -0.995668 
0.0064397 0.0797758 -0.996877 
0.00367678 0.0702876 -0.997511 
0.0016033 0.0567573 -0.998472 
-0.000792938 0.0458085 -0.999156 
-0.0046744 0.0390388 -0.999318 
-0.00401212 0.0363646 -0.999406 
-0.00841647 0.0303079 -0.999607 
-0.0111652 0.0187805 -0.999806 
-0.00522996 0.0186379 -0.999904 
-0.00018259 0.0249433 -0.999687 
0.00104354 0.0270185 -0.999633 
0.00538468 0.0268895 -0.999843 
0.00578407 0.0161407 -0.999931 
0.00902362 0.0096147 -0.999938 
0.00580088 0.00744597 -0.999949 
0.00127787 0.00539365 -0.99997 
-0.00324723 0.00243689 -1.00007 
-0.00590964 0.00568766 -0.999874 
-0.0100731 0.000283007 -0.999944 
0.0203363 0.0238459 0.999541 
0.0150682 0.0206506 0.999736 
0.00850931 0.0180858 0.999875 
-6.0761e-05 0.00587729 1.00005 
-0.00515198 0.00592946 1 
-0.0123015 0.00979877 0.999871 
-0.0102142 0.0140802 0.999956 
-0.0102009 0.0157019 0.999804 
-0.00858344 0.0231015 0.999772 
-0.00373995 0.0224037 0.999814 
-0.00467953 0.026657 0.999548 
-0.00245608 0.0296258 0.999692 
-0.00601278 0.0351849 0.999472 
-0.0092379 0.0455925 0.998953 
-0.0147904 0.0540941 0.998362 
-0.0212066 0.0611531 0.99797 
-0.0190193 0.0630761 0.997912 
-0.0125806 0.0646768 0.997834 
-0.00405715 0.0805213 0.996519 
-0.00053191 0.0887464 0.996103 
0.00376213 0.0945472 0.995498 
0.00461221 0.102009 0.994808 
0.00682159 0.120578 0.992688 
0.00873308 0.138942 0.990253 
0.00731972 0.156614 0.9877 
0.000513708 0.17466 0.984695 
-0.000856069 0.192963 0.981304 
0.00272708 0.216933 0.976277 
0.0021741 0.250744 0.968002 
0.00374952 0.296546 0.954865 
0.00418414 0.350629 0.936541 
-0.00251868 0.41716 0.908776 
0.000388686 0.490181 0.871616 
0.00624548 0.565936 0.824465 
0.00587266 0.637621 0.770406 
0.0103627 0.748175 0.663383 
0.0112309 0.857163 0.514895 
0.0123793 0.93909 0.343623 
0.00656115 0.99165 0.128609 
-0.00226138 0.996536 -0.0844446 
-0.00966243 0.956651 -0.290673 
-0.0271616 0.915496 -0.400914 
-0.0208521 0.864198 -0.502526 
-0.0237783 0.792848 -0.608927 
-0.0109652 0.702148 -0.711913 
-0.00834251 0.587124 -0.809643 
-0.00334671 0.476348 -0.879323 
0.00368263 0.378937 -0.925466 
0.00667612 0.32665 -0.945182 
0.0065401 0.281674 -0.95947 
0.00530281 0.237852 -0.971241 
0.00203171 0.202281 -0.979273 
-0.00180027 0.179033 -0.9837 
-0.0024161 0.15575 -0.987826 
0.00427047 0.133053 -0.991095 
0.00619399 0.116498 -0.993161 
0.0112378 0.103887 -0.994532 
0.0118751 0.0945684 -0.995529 
0.00999011 0.0903202 -0.995937 
0.00902354 0.0871783 -0.996342 
0.0101081 0.0796193 -0.996852 
0.00557769 0.0661381 -0.997874 
-0.000963225 0.0597187 -0.998235 
-0.00709859 0.0568013 -0.998495 
-0.00668563 0.051706 -0.99864 
-0.00724696 0.0436915 -0.999006 
-0.00674613 0.0292664 -0.99948 
-0.00401533 0.02082 -0.999884 
0.000226202 0.0222224 -0.999799 
-0.000329167 0.0270757 -0.999658 
0.000294645 0.0300739 -0.999641 
0.00368003 0.0241194 -0.999779 
0.0104792 0.0122384 -0.999894 
0.00972794 0.00632326 -0.999967 
0.00310111 0.000307848 -1.00012 
0.00139791 0.00352241 -0.999964 
-0.00860053 -0.00493657 -1.00003 
-0.0133364 0.00323415 -1.00005 
-0.0266143 0.00847178 -0.999653 
0.00222179 0.0257538 0.999759 
0.00758987 0.0198118 0.999795 
-0.000365301 0.0113527 0.999914 
-0.000821318 0.00382234 1.00001 
0.000308196 0.00386721 1.00009 
-0.00827033 0.0125851 0.999758 
-0.00263326 0.00789847 0.999984 
-0.00852108 0.0117518 0.999944 
-0.0122673 0.00787068 0.999935 
-0.00651037 0.0153885 0.99992 
-0.00365956 0.0249742 0.999652 
0.00277509 0.0308613 0.999565 
0.00251549 0.0363905 0.999315 
-0.00109379 0.0450275 0.998946 
-0.011427 0.0553982 0.998275 
-0.0185184 0.0584551 0.998105 
-0.0198264 0.0605299 0.997847 
-0.0109671 0.0597062 0.998227 
-0.00674691 0.0671703 0.997731 
-0.00396436 0.0793653 0.996759 
-0.000636362 0.0881192 0.996119 
0.000642215 0.0951234 0.995378 
0.00906237 0.10931 0.994089 
0.017031 0.130502 0.991456 
0.014545 0.144058 0.989609 
0.00555174 0.164449 0.986414 
0.000152206 0.183548 0.983143 
0.000633049 0.202455 0.979313 
-0.00143992 0.230069 0.973248 
0.000379075 0.271341 0.96254 
0.00571485 0.321003 0.947039 
0.00271209 0.388577 0.921405 
-0.000909611 0.460567 0.887775 
0.0124184 0.564916 0.825127 
0.0123985 0.684578 0.729024 
0.0229772 0.780107 0.625414 
0.0278751 0.855519 0.516866 
0.0510692 0.902654 0.426983 
0.029878 0.96153 0.273696 
0.0159486 0.997752 0.0617276 
-0.0142316 0.989066 -0.145846 
-0.0430854 0.927322 -0.371828 
-0.0573742 0.823609 -0.564042 
-0.0318819 0.740614 -0.671037 
-0.0149567 0.639356 -0.768749 
-0.00424884 0.54054 -0.841257 
-0.00191696 0.47132 -0.882051 
-0.00125756 0.408392 -0.91304 
-0.0047495 0.346683 -0.938056 
0.00573184 0.303225 -0.952882 
0.00922822 0.255749 -0.966787 
0.0127839 0.218725 -0.976039 
0.000560433 0.184896 -0.982801 
-0.0018421 0.163519 -0.9865 
-0.00182321 0.133467 -0.991026 
0.00197875 0.117951 -0.993118 
0.00667271 0.10554 -0.994424 
0.012426 0.095023 -0.995393 
0.00959084 0.085788 -0.996336 
0.0100857 0.0865951 -0.996354 
0.00818541 0.0778636 -0.996955 
0.00529166 0.0692822 -0.997663 
-0.00332945 0.0685112 -0.997689 
-0.0144179 0.0718303 -0.997304 
-0.0166557 0.0667313 -0.997769 
-0.0126847 0.0552883 -0.99828 
-0.006414 0.0340913 -0.999476 
-0.00198826 0.0217603 -0.999778 
0.000815111 0.0230062 -0.999932 
-0.000874618 0.0283748 -0.99962 
-0.00211756 0.0269003 -0.999633 
-0.000368694 0.0225903 -0.999849 
0.00433618 0.0132473 -0.999978 
0.0036585 0.0044275 -0.999922 
2.44639e-05 0.00227287 -1.00011 
-0.00326103 -0.00757801 -0.999999 
-0.0115996 -0.0148496 -0.999911 
-0.011724 -0.00548474 -1.00001 
-0.00515606 0.00836938 -0.999965 
0.000137977 -0.000135315 1.00016 
0.00139618 0.00823874 1.00003 
0.00117839 0.012765 0.999999 
0.000332197 0.00150534 1.00017 
0.00154103 0.000536968 1.00006 
0.00211579 0.00523762 1.00005 
-0.00568464 0.00694714 1.00003 
-0.0035028 0.00654688 1.0001 
-0.00373321 0.013801 0.999848 
0.000431027 0.0220802 0.999798 
0.00611166 0.0335849 0.999502 
0.0148805 0.0359521 0.999347 
0.0131554 0.0469497 0.99887 
0.00561316 0.0564824 0.998334 
-0.00255934 0.0605946 0.998177 
-0.0125187 0.0621701 0.99803 
-0.00705013 0.0589245 0.998168 
-0.00387189 0.0617551 0.99823 
-0.00180065 0.0676208 0.997773 
-0.00444383 0.0786027 0.996953 
-0.00531707 0.0877376 0.995932 
-0.00358673 0.102145 0.994841 
-0.000984956 0.120357 0.992792 
0.00695857 0.136293 0.990733 
0.00558406 0.153526 0.988122 
-0.00284904 0.172567 0.985107 
-0.00311425 0.192227 0.9814 
-0.00209567 0.206472 0.978537 
-0.00239816 0.231736 0.972899 
-0.00151303 0.271852 0.96238 
-0.00190373 0.326349 0.945232 
-0.0026385 0.3894 0.92111 
0.00455424 0.477083 0.878938 
0.024415 0.54233 0.839921 
0.0281127 0.635714 0.77159 
0.0509866 0.703471 0.709084 
0.0865259 0.788558 0.608761 
0.0930661 0.890373 0.445981 
0.0475723 0.973179 0.225506 
0.00686983 0.999819 2.78971e-05 
-0.0373794 0.969216 -0.243305 
-0.0885268 0.873821 -0.478263 
-0.0881441 0.777755 -0.622512 
-0.0624787 0.697874 -0.713263 
-0.0297524 0.628494 -0.777119 
-0.0156086 0.544189 -0.838738 
-0.00430688 0.462889 -0.886485 
-0.00304752 0.379145 -0.925402 
-0.00221234 0.32145 -0.946932 
0.000298735 0.278165 -0.960356 
0.0113495 0.241623 -0.970352 
0.010784 0.2086 -0.977972 
0.00687942 0.184132 -0.982847 
-0.00284475 0.155269 -0.987755 
-0.00155199 0.134864 -0.990922 
0.00183506 0.122799 -0.992411 
0.00708578 0.112941 -0.993703 
0.0033307 0.0989347 -0.995116 
-5.84686e-05 0.0932179 -0.995752 
0.000350673 0.08616 -0.996415 
0.00284342 0.0763857 -0.997283 
0.000426389 0.0747954 -0.997267 
-0.00630502 0.0754671 -0.997173 
-0.00964318 0.0688773 -0.997534 
-0.0097384 0.0595938 -0.99806 
-0.00603881 0.0435956 -0.999134 
-0.00277607 0.0258244 -0.999739 
-0.000150418 0.019527 -0.99985 
0.00402636 0.0272309 -0.999603 
0.00110488 0.0288439 -0.999679 
0.00031524 0.0240301 -0.999655 
0.00180621 0.0168045 -0.999852 
-0.000437679 0.00991576 -0.99997 
0.000740328 0.00951994 -1.00003 
-0.000969873 0.00442708 -1.00008 
-0.00382637 -0.00810799 -1.00002 
-0.00622344 -0.0183897 -0.999864 
0.00237678 -0.014716 -0.999925 
0.020687 -0.0164481 -0.999686 
0.0179109 -0.00987612 0.999776 
0.0116416 0.0011948 1.00002 
0.00253708 0.00254093 0.999996 
0.00366788 -0.00021026 1.00007 
0.00084579 -0.0011212 1.0001 
0.00070669 0.00163545 1.00019 
-0.00193553 0.00594451 1.00006 
0.00287925 0.0125277 0.999991 
0.000242734 0.0119188 0.999924 
0.00508619 0.0249313 0.999915 
0.00634361 0.0355134 0.999392 
0.0171316 0.0364071 0.999264 
0.0162566 0.0411995 0.999085 
0.0169991 0.0535019 0.998359 
0.0117408 0.0598369 0.998097 
0.00133027 0.057874 0.998345 
-0.00107183 0.0632656 0.998092 
-0.000894874 0.0651495 0.997858 
-0.00171065 0.0692922 0.997684 
-0.0011875 0.0740309 0.997403 
-0.00270002 0.0785521 0.996968 
-0.00490054 0.0883735 0.995978 
-0.00173401 0.110976 0.99376 
0.00575433 0.129792 0.991524 
0.00468669 0.146165 0.989284 
-0.00158716 0.166705 0.986 
-0.00478071 0.186813 0.98254 
0.000974402 0.204939 0.978724 
0.00622778 0.229796 0.973276 
0.00711001 0.267198 0.963678 
0.00515404 0.322529 0.946629 
0.005633 0.379922 0.925053 
0.00935615 0.451046 0.892433 
0.0422924 0.512994 0.85736 
0.0575889 0.5885 0.806708 
0.101663 0.646859 0.756233 
0.135307 0.733095 0.667203 
0.154378 0.840915 0.518794 
0.0845104 0.960571 0.264709 
0.00263455 0.99978 -0.0148744 
-0.0755519 0.955623 -0.284528 
-0.144415 0.838093 -0.525781 
-0.13629 0.724548 -0.675943 
-0.106585 0.646336 -0.755537 
-0.0656587 0.586832 -0.806989 
-0.0454677 0.509065 -0.859639 
-0.0148042 0.458403 -0.888599 
-0.00191906 0.391392 -0.920253 
-0.00435982 0.323505 -0.946134 
0.00188485 0.27656 -0.961045 
0.0042237 0.243016 -0.970041 
0.0156694 0.220525 -0.975216 
0.00634291 0.192742 -0.981328 
0.000567008 0.171609 -0.985194 
-0.00730833 0.147242 -0.98903 
0.000557635 0.134997 -0.990957 
0.00373121 0.123249 -0.99244 
-0.000879867 0.115867 -0.993244 
-0.00532303 0.0998066 -0.994964 
-0.00509181 0.0875283 -0.996248 
-0.00878548 0.084341 -0.996456 
-0.00419569 0.0786857 -0.996981 
-0.00424863 0.0772278 -0.996916 
-0.00454889 0.0671463 -0.997714 
7.33298e-05 0.0514544 -0.998777 
-0.00090662 0.0385869 -0.99933 
-5.11881e-05 0.0271333 -0.999655 
0.00159826 0.0189548 -0.999903 
0.00195492 0.020572 -0.999676 
0.0102272 0.0276229 -0.999474 
0.00356846 0.0212262 -0.99975 
-0.00402681 0.0131044 -0.999956 
-0.00816351 0.0133692 -0.999879 
-0.0067085 0.0119756 -0.999991 
-0.00271853 0.011043 -1.00006 
-0.000649958 -0.00407565 -1.00002 
0.00324936 -0.00845466 -1.00003 
0.000826168 -0.0104641 -1.00001 
0.00958917 -0.00975831 -1.00003 
0.0302811 0.00467872 0.999525 
0.0152613 0.00917813 0.9997 
0.0105188 0.00439321 0.999933 
0.0062566 0.00953211 0.999943 
0.00249007 0.00398956 1.00005 
-0.000621899 0.0049752 1.00011 
0.00142528 0.0099187 1.00001 
0.00878603 0.0246815 0.999655 
0.0117006 0.0280681 0.999635 
0.0106363 0.0343912 0.999463 
0.0151049 0.0411305 0.999107 
0.0119675 0.038924 0.999264 
0.0119914 0.0435314 0.998868 
0.00919506 0.0525342 0.998597 
0.00809275 0.0552701 0.99853 
0.000766566 0.0588924 0.998433 
-0.00398065 0.0657506 0.997846 
-0.00336267 0.0698837 0.997653 
-0.00114749 0.0718241 0.997464 
0.000789844 0.0795763 0.996926 
0.00558095 0.0812047 0.996776 
0.00534985 0.0931538 0.995571 
0.00679308 0.112241 0.993645 
0.00835353 0.127288 0.991833 
0.00770042 0.145197 0.98943 
-0.0035282 0.163097 0.986702 
-0.00945402 0.18379 0.983 
0.00147961 0.210253 0.977642 
0.00784508 0.24087 0.970495 
0.0101329 0.279673 0.960091 
0.0128443 0.327253 0.944875 
0.0155055 0.391462 0.919955 
0.0306836 0.446726 0.894048 
0.0694134 0.477023 0.87616 
0.0954433 0.544301 0.833565 
0.148444 0.571057 0.807969 
0.198036 0.637291 0.745229 
0.236715 0.773707 0.587879 
0.139219 0.93867 0.31661 
0.0040161 0.999892 -0.0186814 
-0.130615 0.929907 -0.346226 
-0.22022 0.766285 -0.603509 
-0.18917 0.640018 -0.745018 
-0.142031 0.574374 -0.806302 
-0.106065 0.521307 -0.847062 
-0.0721191 0.459423 -0.885336 
-0.0312629 0.435402 -0.899754 
-0.0104866 0.388618 -0.921319 
-0.000394489 0.338095 -0.941175 
-0.00111813 0.281914 -0.95945 
0.00400981 0.242527 -0.970269 
0.00419435 0.21043 -0.97764 
0.00204432 0.18886 -0.981996 
-0.00809824 0.167525 -0.985874 
-0.00825955 0.14983 -0.988703 
0.000186816 0.131065 -0.991345 
0.00466558 0.121386 -0.992506 
0.000247268 0.112675 -0.993605 
-0.00295728 0.0979424 -0.995312 
-0.00198425 0.0870269 -0.996271 
-0.00358713 0.0811801 -0.996885 
-0.00616981 0.0738569 -0.997265 
-0.00214041 0.0698771 -0.997511 
0.00190516 0.0545657 -0.9985 
0.000674297 0.0428914 -0.998963 
0.00880736 0.0356073 -0.999397 
0.0114189 0.0295258 -0.99955 
0.00686426 0.0227998 -0.999613 
0.00732167 0.0224759 -0.999626 
0.00439272 0.0218811 -0.999788 
0.00169562 0.0181193 -0.999977 
-0.00737668 0.0161758 -0.999893 
-0.0129127 0.0141612 -0.999877 
-0.0148622 0.0156358 -0.999913 
-0.00809683 0.0176182 -0.99991 
0.000588758 0.00782595 -1.00013 
0.00459458 -0.00143491 -1.00009 
0.00127257 -0.00226744 -1.00016 
0.00820131 -0.00557041 -1.00003 
0.0227065 0.0117958 0.999643 
0.0101294 0.00801938 1.00002 
0.0100118 0.0120286 0.999963 
0.00749164 0.0131358 0.999948 
0.00361344 0.00882638 0.999968 
0.000667839 0.0108605 0.999833 