# vtk DataFile Version 3.0 
Exported using Morpho https://github.com/Morpho-lang/morpho 
ASCII 
DATASET UNSTRUCTURED_GRID 

POINTS 1978 float 
-8.48528 -2.82843 -1.23793e-17 
-8.29152 -2.82843 4.65109e-17 
-8.09308 -2.82843 -5.02484e-17 
-7.78368 -2.82843 7.85216e-19 
-7.50326 -2.82843 3.65574e-18 
-7.21253 -2.82843 -1.72969e-17 
-6.99867 -2.82843 1.66066e-18 
-6.78943 -2.82843 -1.44986e-17 
-6.58121 -2.82843 -7.39224e-18 
-6.37384 -2.82843 6.91872e-18 
-6.14402 -2.82843 1.02477e-18 
-5.93936 -2.82843 -3.34766e-18 
-5.70079 -2.82843 8.60618e-18 
-5.50642 -2.82843 -3.53707e-17 
-5.28738 -2.82843 2.25099e-17 
-5.08226 -2.82843 -1.8989e-17 
-4.85046 -2.82843 -8.06318e-18 
-4.66303 -2.82843 -5.32452e-18 
-4.42906 -2.82843 -9.60773e-18 
-4.22136 -2.82843 -6.36879e-18 
-3.99606 -2.82843 2.92593e-18 
-3.79212 -2.82843 -2.36279e-17 
-3.59141 -2.82843 2.75112e-17 
-3.37868 -2.82843 -2.93724e-17 
-3.17207 -2.82843 8.05733e-18 
-2.96347 -2.82843 -2.00653e-17 
-2.75211 -2.82843 1.58825e-17 
-2.54285 -2.82843 9.5617e-17 
-2.34052 -2.82843 -1.77481e-16 
-2.1311 -2.82843 2.14844e-17 
-1.9203 -2.82843 -2.33718e-16 
-1.71163 -2.82843 -5.94314e-16 
-1.50935 -2.82843 -8.46177e-16 
-1.29084 -2.82843 -1.41725e-15 
-1.10905 -2.82843 -1.28803e-15 
-0.832332 -2.82843 -1.65698e-15 
-0.639407 -2.82843 4.63599e-15 
-0.437077 -2.82843 3.13901e-15 
-0.216002 -2.82843 -2.92894e-15 
-0.00227983 -2.82843 3.73013e-15 
0.224547 -2.82843 -6.48024e-15 
0.432672 -2.82843 4.68187e-15 
0.638335 -2.82843 -1.34811e-15 
0.849305 -2.82843 -1.4378e-16 
1.06962 -2.82843 -3.49455e-15 
1.30557 -2.82843 3.57203e-15 
1.50375 -2.82843 3.2016e-16 
1.70714 -2.82843 1.01749e-16 
1.90754 -2.82843 5.8521e-16 
2.12333 -2.82843 1.31291e-16 
2.34493 -2.82843 1.44175e-16 
2.55178 -2.82843 2.37125e-17 
2.77669 -2.82843 2.98251e-17 
2.98676 -2.82843 5.85364e-18 
3.2048 -2.82843 4.9452e-17 
3.40374 -2.82843 4.0148e-17 
3.62143 -2.82843 1.11844e-17 
3.81904 -2.82843 2.97373e-17 
4.02972 -2.82843 -6.48403e-18 
4.2533 -2.82843 2.26517e-17 
4.44435 -2.82843 1.07378e-18 
4.65328 -2.82843 -6.22624e-18 
4.86391 -2.82843 1.22712e-17 
5.06626 -2.82843 -7.04611e-19 
5.28326 -2.82843 -1.10731e-17 
5.49478 -2.82843 -5.08447e-18 
5.69571 -2.82843 -4.69491e-18 
5.91784 -2.82843 4.45455e-18 
6.1412 -2.82843 -6.35623e-18 
6.33766 -2.82843 7.82961e-18 
6.5884 -2.82843 1.04521e-17 
6.79761 -2.82843 -1.18671e-17 
7.00195 -2.82843 1.46508e-17 
7.26652 -2.82843 1.81076e-18 
7.50861 -2.82843 -4.6544e-18 
7.7589 -2.82843 -9.4597e-18 
8.02373 -2.82843 -2.26211e-17 
8.2003 -2.82843 1.17436e-16 
8.48528 -2.82843 4.61824e-17 
-8.48528 -2.61447 -3.11446e-18 
-8.23487 -2.56408 -2.29345e-17 
-8.03117 -2.51154 7.8153e-18 
-7.87911 -2.65515 1.71515e-17 
-7.58458 -2.6333 2.51627e-17 
-7.27529 -2.64256 1.2875e-18 
-7.00523 -2.58217 6.01925e-18 
-6.78909 -2.57982 -1.47058e-19 
-6.56915 -2.58239 4.3621e-18 
-6.33518 -2.60974 -4.11255e-18 
-6.12447 -2.58141 1.86886e-19 
-5.88702 -2.61639 -2.14013e-18 
-5.68423 -2.56626 -3.96166e-18 
-5.46575 -2.59746 4.04015e-17 
-5.2533 -2.58358 -3.39554e-17 
-5.02627 -2.6131 -1.91723e-17 
-4.83129 -2.56218 2.20839e-17 
-4.60944 -2.61601 -7.85041e-18 
-4.39538 -2.5902 6.0672e-18 
-4.1732 -2.60914 1.04829e-18 
-3.96345 -2.58538 -3.85738e-18 
-3.76097 -2.58043 1.77076e-17 
-3.54563 -2.59379 2.24515e-17 
-3.33358 -2.58708 6.82421e-17 
-3.1188 -2.59042 -2.64077e-18 
-2.90378 -2.59433 9.82726e-18 
-2.68756 -2.59223 -1.9151e-17 
-2.4751 -2.58469 -1.23167e-16 
-2.26273 -2.59284 2.74919e-16 
-2.04494 -2.59261 -2.72209e-17 
-1.83008 -2.58756 4.63401e-16 
-1.61967 -2.57665 8.36254e-16 
-1.40961 -2.59217 1.90052e-15 
-1.21494 -2.54035 8.67418e-16 
-0.997279 -2.63801 7.83591e-16 
-0.800886 -2.55405 4.07762e-15 
-0.606483 -2.58103 -1.72311e-15 
-0.414463 -2.59325 1.73025e-15 
-0.225912 -2.6128 1.02675e-14 
-0.0283969 -2.60838 -1.68519e-14 
0.187484 -2.61695 8.9668e-15 
0.401597 -2.60348 -2.06608e-14 
0.621687 -2.58505 8.80065e-15 
0.839877 -2.59055 -2.26826e-15 
1.06218 -2.61046 1.83953e-15 
1.27531 -2.58395 -3.9163e-15 
1.51004 -2.57488 -6.98111e-16 
1.71212 -2.57353 1.73527e-16 
1.93306 -2.59611 -4.50787e-16 
2.1595 -2.60423 1.28638e-17 
2.37772 -2.58845 -6.48388e-18 
2.60038 -2.60692 -3.20505e-19 
2.81916 -2.58987 -3.77617e-18 
3.0398 -2.59869 -1.68095e-17 
3.24671 -2.57676 -4.87456e-17 
3.46462 -2.6002 -7.4468e-18 
3.66981 -2.57836 -1.7587e-17 
3.88273 -2.59508 1.07865e-17 
4.10688 -2.60903 -1.85958e-17 
4.31263 -2.57034 -5.964e-18 
4.5208 -2.59384 2.17549e-17 
4.73442 -2.5952 5.25569e-18 
4.94604 -2.58434 -1.61971e-17 
5.16016 -2.60049 -5.88762e-18 
5.37938 -2.59389 1.14144e-17 
5.58872 -2.57962 5.33352e-18 
5.80493 -2.60292 -3.3533e-18 
6.03113 -2.60114 2.9479e-18 
6.245 -2.56593 -6.33603e-18 
6.46228 -2.62054 -1.7315e-17 
6.68974 -2.57508 4.62073e-18 
6.89774 -2.56525 -1.14677e-17 
7.12745 -2.62389 1.34995e-17 
7.38374 -2.60291 1.94995e-17 
7.62967 -2.61171 -3.13206e-17 
7.88661 -2.62531 -1.18401e-17 
8.08567 -2.52106 -1.92674e-17 
8.3 -2.63403 -1.15278e-16 
8.48528 -2.54026 1.82519e-18 
-8.48528 -2.39445 7.23542e-18 
-8.22257 -2.33091 4.22737e-18 
-7.94745 -2.28928 -8.51951e-18 
-7.74559 -2.44595 -1.40123e-18 
-7.56948 -2.2909 -2.65961e-18 
-7.42255 -2.4658 5.44082e-18 
-7.15919 -2.40877 -9.70302e-18 
-6.92294 -2.33409 1.10663e-17 
-6.69713 -2.35112 -1.91321e-18 
-6.45279 -2.37701 2.22147e-18 
-6.24398 -2.3527 -1.7728e-18 
-6.00258 -2.38368 5.88978e-18 
-5.8013 -2.34278 6.27828e-18 
-5.56677 -2.34819 8.18295e-19 
-5.36019 -2.35217 1.69375e-17 
-5.13042 -2.37556 2.37486e-18 
-4.93698 -2.33531 8.09453e-18 
-4.69869 -2.36947 8.64112e-18 
-4.4942 -2.37164 4.08648e-20 
-4.26241 -2.37834 1.26056e-17 
-4.05312 -2.36066 1.0287e-17 
-3.83877 -2.33618 1.42671e-17 
-3.62545 -2.35888 -4.03097e-19 
-3.40947 -2.35227 1.15513e-17 
-3.19157 -2.35696 1.95916e-17 
-2.97345 -2.35812 2.88317e-17 
-2.75957 -2.36111 1.05167e-17 
-2.54204 -2.35309 4.42854e-17 
-2.32177 -2.35435 7.4116e-17 
-2.1065 -2.36399 6.86219e-18 
-1.88474 -2.3534 3.98526e-17 
-1.6687 -2.33872 3.00562e-16 
-1.45181 -2.34217 -9.77853e-18 
-1.23874 -2.29699 2.28894e-15 
-1.02263 -2.39066 2.3399e-15 
-0.824204 -2.31691 5.33882e-15 
-0.614577 -2.3338 5.36008e-15 
-0.423049 -2.36206 6.84898e-15 
-0.230081 -2.38558 1.46762e-14 
0.00591932 -2.41536 1.52878e-15 
0.22262 -2.40052 -4.49527e-16 
0.442856 -2.38941 5.96903e-15 
0.679722 -2.36939 -2.19767e-14 
0.865808 -2.33601 -3.97243e-15 
1.07957 -2.39085 3.19278e-16 
1.18848 -2.22482 -4.68283e-15 
1.37284 -2.36602 1.5539e-15 
1.59805 -2.31369 -1.68423e-16 
1.81443 -2.35872 -2.69754e-16 
2.03831 -2.37592 -1.31127e-16 
2.25864 -2.37208 -1.16547e-16 
2.49316 -2.37015 -1.17349e-17 
2.70616 -2.36967 -8.80664e-19 
2.93603 -2.3648 -2.37207e-17 
3.1439 -2.34351 -2.17067e-17 
3.36886 -2.36006 -1.52878e-17 
3.5723 -2.34301 -2.06446e-17 
3.78941 -2.35489 -1.87766e-18 
4.00788 -2.37973 4.75337e-18 
4.21305 -2.34893 -3.12557e-19 
4.4409 -2.34744 -4.80195e-18 
4.6479 -2.35992 -8.00477e-18 
4.85843 -2.35477 -2.34681e-18 
5.08001 -2.36003 6.93133e-18 
5.2922 -2.36894 -4.53955e-18 
5.50686 -2.34483 -1.29091e-18 
5.73033 -2.36263 5.17861e-18 
5.94586 -2.37583 -1.82263e-18 
6.16213 -2.34173 -2.23789e-19 
6.40382 -2.36583 -1.48404e-18 
6.60807 -2.36149 8.50144e-18 
6.8383 -2.31218 -6.3625e-18 
7.06615 -2.3735 -1.42578e-18 
7.28912 -2.39992 -1.02488e-17 
7.55199 -2.38417 1.55725e-17 
7.79489 -2.40648 -8.51631e-19 
8.00428 -2.30133 5.0181e-18 
8.26582 -2.35899 1.29037e-17 
8.48528 -2.29573 -9.43273e-18 
-8.48528 -2.1342 1.33829e-18 
-8.27901 -2.12492 -6.0352e-18 
-8.05005 -2.08154 1.41927e-17 
-7.75634 -2.14 6.10896e-19 
-7.49553 -2.06585 -9.2365e-19 
-7.3086 -2.23301 5.59292e-19 
-7.07237 -2.14687 6.38349e-18 
-6.81935 -2.11207 -4.15502e-18 
-6.58037 -2.15586 3.81278e-18 
-6.3689 -2.11835 9.66263e-18 
-6.13102 -2.15327 -3.75098e-18 
-5.9297 -2.1151 -5.16378e-19 
-5.69492 -2.13015 2.91461e-18 
-5.47233 -2.10552 2.69261e-17 
-5.24958 -2.14477 -7.99206e-18 
-5.05291 -2.0996 1.8775e-17 
-4.82171 -2.14271 1.25867e-18 
-4.60986 -2.1274 4.3832e-18 
-4.39366 -2.15861 9.60335e-18 
-4.18559 -2.1326 -1.34668e-17 
-3.97715 -2.11939 -1.18803e-17 
-3.75571 -2.10933 -2.22326e-17 
-3.54656 -2.12633 -4.65716e-17 
-3.32549 -2.12319 -4.51903e-17 
-3.10991 -2.12687 -4.29141e-17 
-2.89613 -2.12189 -3.84106e-17 
-2.68241 -2.12815 -3.31872e-17 
-2.46024 -2.12606 -4.68643e-17 
-2.24044 -2.12351 -8.1499e-17 
-2.02545 -2.13323 -3.12575e-17 
-1.80708 -2.11325 -8.13141e-17 
-1.59477 -2.10316 -9.62136e-17 
-1.39413 -2.09385 1.25274e-15 
-1.21528 -2.01657 1.3999e-15 
-1.04188 -2.15186 4.16766e-15 
-0.804226 -2.10891 1.06271e-14 
-0.596797 -2.10846 1.50413e-14 
-0.402376 -2.1417 2.29684e-14 
-0.16167 -2.22922 -3.39817e-14 
0.0728593 -2.22628 3.62674e-14 
0.304793 -2.19789 -2.015e-14 
0.472493 -2.03564 1.05865e-14 
0.548436 -2.206 1.44765e-14 
0.726969 -2.08354 -4.09384e-14 
0.939372 -2.12444 -1.98014e-15 
1.19095 -2.03634 -1.4949e-15 
1.44033 -2.12233 -8.67623e-16 
1.68866 -2.09609 -1.22726e-16 
1.90015 -2.14269 -9.26171e-17 
2.12001 -2.14741 -1.34867e-16 
2.34427 -2.15803 -1.57534e-17 
2.56203 -2.12977 -2.24149e-17 
2.77867 -2.14706 3.82022e-17 
2.98511 -2.11502 1.51332e-17 
3.20917 -2.12384 1.59345e-17 
3.4095 -2.11017 -1.52379e-17 
3.62559 -2.11437 -9.97282e-18 
3.84238 -2.13296 -2.0827e-17 
4.04331 -2.13138 4.96446e-18 
4.27221 -2.13176 -2.2958e-17 
4.4832 -2.10857 -1.30278e-17 
4.69023 -2.12098 -3.17596e-18 
4.90989 -2.13113 2.66059e-18 
5.12571 -2.1258 -1.26032e-17 
5.33335 -2.1299 1.2388e-17 
5.56539 -2.12542 8.11831e-18 
5.77971 -2.12927 -8.54432e-18 
5.99124 -2.13375 6.72369e-18 
6.24142 -2.1374 -1.80941e-18 
6.44938 -2.10901 1.80407e-18 
6.66389 -2.12161 4.22743e-18 
6.92674 -2.10327 -2.0479e-18 
7.14402 -2.14108 7.84716e-18 
7.37739 -2.18896 -4.30051e-18 
7.56472 -2.09036 -7.23627e-18 
7.74855 -2.1766 2.16229e-19 
7.95417 -2.06359 5.6721e-18 
8.19175 -2.13344 9.61047e-18 
8.48528 -2.11069 7.03621e-18 
-8.48528 -1.84286 1.99658e-17 
-8.30165 -1.88094 -1.74346e-17 
-7.91241 -1.91661 -8.10067e-18 
-7.68684 -1.90264 -5.3264e-18 
[...]
POINT_DATA 1978 
VECTORS vectors float
-6.61775e-05 0.0374446 0.999299 
-0.000173997 0.0285404 0.999593 
-0.000457185 0.0168122 0.999859 
-0.000395762 0.00578633 0.999983 
0.000392734 0.0034195 0.999994 
0.000577387 0.006886 0.999976 
0.000194594 0.0220234 0.999757 
1.5313e-05 0.0387911 0.999247 
-4.8377e-05 0.0429375 0.999078 
-8.78122e-05 0.0379927 0.999278 
-4.29412e-05 0.0389918 0.99924 
1.64355e-06 0.0377893 0.999286 
-1.19242e-05 0.039891 0.999204 
-4.37398e-05 0.0475289 0.99887 
-3.96966e-05 0.0639763 0.997951 
-8.37718e-06 0.0682661 0.997667 
-1.00593e-05 0.07095 0.99748 
-1.10743e-05 0.0712589 0.997458 
-1.39819e-05 0.0746817 0.997207 
-1.66423e-05 0.0819527 0.996636 
-1.9082e-05 0.088012 0.996119 
-4.30717e-05 0.101611 0.994824 
-5.05996e-05 0.126684 0.991943 
-4.96917e-06 0.149962 0.988692 
1.90088e-05 0.152301 0.988334 
-2.08832e-05 0.163732 0.986505 
-5.77629e-05 0.191405 0.981511 
-4.93569e-05 0.218307 0.97588 
-5.06026e-05 0.2427 0.970101 
-9.6925e-05 0.28289 0.959152 
-0.000139026 0.333686 0.942684 
-0.00015354 0.395224 0.918585 
-0.000170827 0.458536 0.888676 
-0.000208127 0.537908 0.843003 
-0.000217807 0.615247 0.788334 
-0.000214638 0.746797 0.665052 
-0.000211585 0.844861 0.534985 
-0.000156961 0.924218 0.381865 
-6.02442e-05 0.980979 0.194116 
2.76659e-05 1 0.000963444 
0.000118596 0.980081 -0.198596 
0.00020367 0.920145 -0.391577 
0.000238258 0.840049 -0.54251 
0.000294872 0.739885 -0.672734 
0.000266313 0.618049 -0.78614 
0.000199783 0.526284 -0.850309 
0.000173622 0.453647 -0.891181 
0.000147899 0.392039 -0.919949 
0.00013338 0.332881 -0.942969 
0.0001027 0.282 -0.959414 
7.79671e-05 0.235442 -0.971888 
4.73399e-05 0.20834 -0.978057 
3.23838e-05 0.188781 -0.982019 
4.2464e-05 0.171388 -0.985204 
6.31029e-05 0.146933 -0.989146 
5.2517e-05 0.124212 -0.992256 
2.84789e-05 0.106427 -0.994321 
1.05766e-06 0.0982581 -0.995161 
-4.59951e-06 0.0974874 -0.995237 
3.98553e-06 0.0933935 -0.995629 
1.14694e-05 0.0902489 -0.995919 
2.20445e-05 0.08562 -0.996328 
3.73255e-05 0.076655 -0.997058 
5.87368e-05 0.0582522 -0.998302 
2.57283e-05 0.03958 -0.999216 
-1.42426e-05 0.039351 -0.999225 
1.53044e-05 0.0414793 -0.999139 
2.21006e-05 0.0304371 -0.999537 
-3.81468e-06 0.0246705 -0.999696 
-1.28223e-05 0.0275573 -0.99962 
-6.54186e-07 0.0338989 -0.999425 
1.34601e-05 0.0366992 -0.999326 
3.04351e-05 0.0367259 -0.999325 
3.87669e-05 0.0241137 -0.999709 
-3.02103e-05 0.00548875 -0.999985 
-8.2777e-05 0.00133043 -0.999999 
-2.79641e-05 0.0046955 -0.999989 
-5.07217e-05 0.00766509 -0.999971 
5.6086e-05 0.0392422 -0.99923 
0.00186846 0.0325769 0.999467 
0.0042031 0.023445 0.999716 
0.00372583 0.0134269 0.999903 
0.00103491 0.00891876 0.99996 
-0.00175145 0.00549627 0.999983 
-0.00339081 0.00762458 0.999965 
-0.00574651 0.0195841 0.999792 
-0.00609178 0.0310372 0.9995 
-0.00563567 0.0360839 0.999333 
-0.00408643 0.0361278 0.999339 
-0.00403129 0.0339791 0.999414 
-0.00274891 0.0328806 0.999456 
-0.00250418 0.0339086 0.999422 
-0.00214538 0.0436458 0.999045 
-0.00401427 0.0557779 0.998435 
-0.00473097 0.0662097 0.997795 
-0.00711377 0.0698883 0.997529 
-0.00525846 0.0728594 0.997328 
-0.00472652 0.077399 0.996989 
-0.00348216 0.0836525 0.996489 
-0.00317895 0.0911587 0.995831 
-0.0032736 0.103452 0.994629 
-0.00213268 0.122582 0.992456 
0.000244132 0.139847 0.990173 
0.00100705 0.152828 0.988252 
-0.00124922 0.172244 0.985054 
-0.00208548 0.198183 0.980163 
-0.000428362 0.224993 0.97436 
-0.00046899 0.256913 0.966434 
-0.00236501 0.300592 0.95375 
-0.00381554 0.352829 0.93568 
-0.00592164 0.415191 0.909715 
-0.0079627 0.492179 0.870458 
-0.00789724 0.573468 0.81919 
-0.00381489 0.673325 0.739337 
0.000818468 0.772215 0.63536 
0.00285759 0.8619 0.50707 
0.00270863 0.932553 0.361023 
0.00238589 0.977964 0.20876 
0.00173117 0.999367 0.035535 
0.00121232 0.98774 -0.156102 
0.000953003 0.934293 -0.356504 
0.00145388 0.85114 -0.524936 
0.0011946 0.745756 -0.666218 
0.00107003 0.637038 -0.770832 
-1.24877e-05 0.53352 -0.845788 
0.00195325 0.44849 -0.893786 
0.00444288 0.384499 -0.923115 
0.0048626 0.323123 -0.946344 
0.00455743 0.272124 -0.962251 
0.00356302 0.230518 -0.973062 
0.0022317 0.200108 -0.979771 
0.0010423 0.177807 -0.984065 
0.00124151 0.157712 -0.987484 
0.00421799 0.136551 -0.990624 
0.00556344 0.116868 -0.993132 
0.00497491 0.103696 -0.994597 
0.00259386 0.0980166 -0.995181 
0.000565107 0.0941778 -0.995555 
0.000583422 0.0887643 -0.996052 
5.21431e-05 0.0826836 -0.996576 
-0.000811146 0.0744474 -0.997225 
-0.00241144 0.0615153 -0.998103 
-0.0045622 0.0473776 -0.998867 
-0.00573041 0.0383798 -0.999247 
-0.00620217 0.0348708 -0.999373 
-0.00678037 0.0295063 -0.999542 
-0.00637877 0.0233526 -0.999707 
-0.00453779 0.0224179 -0.999738 
-0.00234401 0.0273667 -0.999623 
0.000294192 0.0300655 -0.999548 
0.00179446 0.0285031 -0.999592 
0.00255035 0.0250437 -0.999683 
0.00311286 0.0145747 -0.999889 
0.00206266 0.00702142 -0.999973 
0.000849671 0.00525522 -0.999986 
-0.00180716 0.00638679 -0.999978 
0.00305761 0.0122438 -0.99992 
0.0138076 0.0110323 -0.999844 
0.00330611 0.0258157 0.999661 
0.00774286 0.0193702 0.999782 
0.00385447 0.0102866 0.99994 
0.000161928 0.006917 0.999976 
-0.00395368 0.00688881 0.999968 
-0.00535027 0.00733822 0.999959 
-0.00847246 0.0131066 0.999878 
-0.00949417 0.0192229 0.99977 
-0.00822112 0.0255644 0.999639 
-0.00566177 0.0303922 0.999522 
-0.00473207 0.0299019 0.999542 
-0.00429643 0.0291937 0.999565 
-0.00391552 0.0305484 0.999526 
-0.0045717 0.0370715 0.999302 
-0.00726971 0.0460324 0.998913 
-0.0110103 0.0583627 0.998235 
-0.0142683 0.0643685 0.997824 
-0.0109286 0.0693756 0.997531 
-0.0077334 0.0744611 0.997194 
-0.00314841 0.0823306 0.9966 
-0.000757779 0.0892208 0.996012 
-1.48824e-05 0.0983309 0.995154 
-0.00039777 0.112874 0.993609 
0.00183579 0.130585 0.991435 
0.00313875 0.148172 0.988957 
0.000734002 0.166737 0.986001 
-0.00131824 0.186995 0.98236 
0.000832723 0.211206 0.977441 
0.0020077 0.243148 0.969987 
-0.000316131 0.282688 0.959212 
-0.00271349 0.332898 0.942959 
-0.00510984 0.392259 0.919841 
-0.00699728 0.467802 0.883806 
-0.00476701 0.554532 0.832149 
-0.00114719 0.662438 0.749116 
0.00564565 0.75664 0.653808 
0.00787871 0.851872 0.52369 
0.0077129 0.925968 0.377523 
0.00502369 0.978414 0.206593 
0.00266622 0.999994 -0.00216508 
-0.000891522 0.978926 -0.204212 
-0.00490018 0.918649 -0.395045 
-0.00658569 0.825528 -0.564322 
-0.00574457 0.734612 -0.678464 
-0.00271044 0.625528 -0.780197 
-0.00557756 0.574739 -0.818318 
-0.00146102 0.496906 -0.867803 
0.00276707 0.416862 -0.908965 
0.00627625 0.351965 -0.935992 
0.00664752 0.296035 -0.955154 
0.0048744 0.25105 -0.967962 
0.00257705 0.211563 -0.977361 
0.000360446 0.184601 -0.982813 
-0.000505605 0.161631 -0.986851 
0.00272393 0.141071 -0.989996 
0.00714973 0.121614 -0.992552 
0.00852766 0.107933 -0.994122 
0.00799847 0.0991156 -0.995044 
0.00635138 0.0942363 -0.99553 
0.00572161 0.0889104 -0.996023 
0.00495702 0.0799522 -0.996786 
0.00293016 0.0706397 -0.997498 
0.000332978 0.060001 -0.998198 
-0.00274678 0.0498683 -0.998752 
-0.00500304 0.0422917 -0.999093 
-0.00589258 0.0373615 -0.999284 
-0.00751644 0.0299846 -0.999522 
-0.00782204 0.0225865 -0.999714 
-0.00462807 0.0208773 -0.999771 
-0.00136469 0.0244452 -0.9997 
0.000719704 0.0268652 -0.999639 
0.00347201 0.0249842 -0.999682 
0.00536876 0.0185733 -0.999813 
0.00643147 0.0123548 -0.999903 
0.0043407 0.00735055 -0.999964 
0.000915565 0.00497516 -0.999987 
-0.00392544 0.00280162 -0.999988 
-0.00490691 0.00466309 -0.999977 
-0.00874509 -0.000889875 -0.999961 
0.0148699 0.0230348 0.999624 
0.0115138 0.0200277 0.999733 
0.00616238 0.014631 0.999874 
-0.000202622 0.00707636 0.999975 
-0.00443154 0.0067817 0.999967 
-0.00874646 0.00988779 0.999913 
-0.00941084 0.0135218 0.999864 
-0.00942896 0.015933 0.999829 
-0.00750212 0.021843 0.999733 
-0.00469397 0.0238022 0.999706 
-0.00353943 0.0274092 0.999618 
-0.00228212 0.0304447 0.999534 
-0.00423844 0.036092 0.999339 
-0.00786369 0.0449551 0.998958 
-0.0130559 0.0529854 0.99851 
-0.0171725 0.059107 0.998104 
-0.0158299 0.0631229 0.99788 
-0.0108923 0.0669978 0.997694 
-0.00527291 0.0769814 0.997019 
-0.00125102 0.0853599 0.996349 
0.00161407 0.092719 0.995691 
0.00366358 0.103099 0.994664 
0.00580667 0.118763 0.992906 
0.00752135 0.136753 0.990577 
0.00569134 0.154431 0.987987 
0.0015979 0.172634 0.984985 
0.000109922 0.192232 0.981349 
0.00148609 0.21754 0.97605 
0.00178421 0.251617 0.967825 
0.0018934 0.295714 0.955275 
0.00124038 0.350389 0.936604 
-0.00121018 0.417155 0.908835 
1.72574e-05 0.491438 0.870912 
0.00627953 0.564822 0.825189 
0.00525714 0.640481 0.767956 
0.0123806 0.757089 0.653194 
0.0168166 0.855838 0.516971 
0.0175819 0.931779 0.362601 
0.00913369 0.989508 0.144186 
-0.000503327 0.997455 -0.0713029 
-0.0106507 0.960339 -0.278631 
-0.0310041 0.902739 -0.429069 
-0.0182406 0.871819 -0.489489 
-0.0246983 0.792082 -0.609914 
-0.0132227 0.694764 -0.719117 
-0.00875719 0.580137 -0.814472 
-0.00231895 0.474433 -0.880289 
0.00214858 0.383479 -0.923547 
0.00523464 0.327332 -0.944895 
0.00609721 0.279816 -0.960034 
0.00528469 0.236806 -0.971543 
0.00304217 0.202977 -0.979179 
-0.000331705 0.176583 -0.984286 
-0.000672271 0.154272 -0.988028 
0.00299778 0.132274 -0.991209 
0.006189 0.116494 -0.993172 
0.00929527 0.103759 -0.994559 
0.0100909 0.0949774 -0.995428 
0.00914172 0.0897878 -0.995919 
0.00822847 0.0847077 -0.996372 
0.00733019 0.0767805 -0.997021 
0.0038927 0.067779 -0.997693 
-0.00148695 0.0606273 -0.998159 
-0.00619799 0.0559739 -0.998413 
-0.00746899 0.0499843 -0.998722 
-0.00730908 0.0411902 -0.999125 
-0.00629254 0.0300934 -0.999527 
-0.00427891 0.0228927 -0.999729 
-0.00125887 0.0228058 -0.999739 
-0.000295546 0.0258314 -0.999666 
0.00079151 0.0265893 -0.999646 
0.0037825 0.0211613 -0.999769 
0.00679226 0.0132581 -0.999889 
0.00666613 0.00702455 -0.999953 
0.00274045 0.00235118 -0.999993 
9.79384e-05 0.00179934 -0.999998 
-0.00645248 -0.00329483 -0.999974 
-0.010275 0.0011335 -0.999947 
-0.0195811 0.00579333 -0.999791 
0.00140819 0.0227497 0.99974 
0.00577646 0.0185461 0.999811 
0.00167049 0.0097612 0.999951 
-0.000427911 0.00516201 0.999987 
-0.00121229 0.00506902 0.999986 
-0.00654801 0.00992348 0.999929 
-0.00354699 0.00796744 0.999962 
-0.00756707 0.0111119 0.99991 
-0.00823016 0.011919 0.999895 
-0.00569779 0.0169972 0.999839 
-0.00193918 0.0246999 0.999693 
0.00198575 0.0303301 0.999538 
0.00238995 0.0362728 0.999339 
-0.000575207 0.0443521 0.999016 
-0.00854036 0.0529344 0.998561 
-0.0137542 0.0574111 0.998256 
-0.0155188 0.0598435 0.998087 
-0.0109622 0.0615393 0.998044 
-0.00649024 0.0684232 0.997635 
-0.00353912 0.0776234 0.996976 
-0.00120208 0.0864358 0.996257 
0.00122623 0.0959453 0.995386 
0.00608813 0.110399 0.993869 
0.0105598 0.12756 0.991775 
0.00967624 0.144661 0.989434 
0.00453929 0.162756 0.986656 
0.000554596 0.182002 0.983298 
2.56275e-05 0.202371 0.979309 
-0.000141761 0.230539 0.973063 
0.00102565 0.270862 0.962618 
0.0025747 0.321131 0.947031 
0.00154594 0.386525 0.922278 
0.00275851 0.458084 0.888905 
0.0136267 0.558739 0.829232 
0.0163908 0.67608 0.736646 
0.0305518 0.764662 0.643706 
0.0410721 0.843229 0.535982 
0.0471059 0.909859 0.412235 
0.0280657 0.967106 0.252821 
0.0106143 0.998512 0.0534821 
-0.0150563 0.98374 -0.178968 
-0.0449599 0.928266 -0.369188 
-0.0555815 0.820433 -0.569034 
-0.0367954 0.733512 -0.67868 
-0.0195373 0.640875 -0.767396 
-0.00979017 0.536413 -0.843899 
-0.00342601 0.47147 -0.881876 
-0.00191782 0.40659 -0.913609 
-0.000407486 0.34432 -0.938852 
0.00394481 0.297737 -0.95464 
0.00754352 0.252734 -0.967506 
0.00819413 0.217052 -0.976126 
0.00250928 0.184634 -0.982804 
-0.00052576 0.161008 -0.986953 
-0.000176475 0.13646 -0.990646 
0.00270495 0.119583 -0.992821 
0.00660189 0.107134 -0.994223 
0.00905679 0.096223 -0.995319 
0.00795343 0.0890471 -0.995996 
0.00770049 0.0846521 -0.996381 
0.00621795 0.0776997 -0.996957 
0.00314815 0.0710725 -0.997466 
-0.00288995 0.0677862 -0.997696 
-0.00954331 0.065961 -0.997777 
-0.011659 0.0601966 -0.998118 
-0.00970575 0.0493245 -0.998736 
-0.00579873 0.0339115 -0.999408 
-0.00251687 0.0245087 -0.999696 
-0.000278241 0.0235399 -0.999723 
1.4187e-05 0.0262162 -0.999656 
-0.000446363 0.0254452 -0.999676 
0.000862389 0.0216301 -0.999766 
0.00310407 0.0133956 -0.999905 
0.00361206 0.0069703 -0.999969 
0.000277992 0.00221564 -0.999998 
-0.00312035 -0.00468959 -0.999984 
-0.00758426 -0.00978552 -0.999923 
-0.00898346 -0.00321947 -0.999954 
-0.00338925 0.00760596 -0.999965 
-0.00121976 0.00153754 0.999998 
0.00308058 0.00612708 0.999976 
0.00287333 0.0115174 0.99993 
0.0014934 0.00408223 0.999991 
0.00104199 0.00208119 0.999997 
0.000200894 0.00457944 0.999989 
-0.00366447 0.00821142 0.99996 
-0.00457194 0.00964249 0.999943 
-0.00173313 0.0162235 0.999867 
0.000553087 0.0233435 0.999727 
0.0067397 0.0318845 0.999469 
0.0102764 0.0368372 0.999268 
0.00973965 0.04517 0.998932 
0.0031794 0.0532528 0.998576 
-0.00204534 0.0579871 0.998315 
-0.00926627 0.0598327 0.998165 
-0.00729292 0.0604033 0.998147 
-0.00487334 0.0632553 0.997985 
-0.00309731 0.0693873 0.997585 
-0.00320991 0.0778029 0.996964 
-0.0031681 0.087281 0.996179 
-0.00131494 0.100414 0.994945 
0.00224221 0.117245 0.9931 
0.00634209 0.13379 0.990989 
0.00473956 0.150787 0.988555 
-2.06137e-05 0.1693 0.985565 
-0.00183057 0.187974 0.982172 
-0.00101054 0.20722 0.978294 
-0.00019703 0.235059 0.971981 
0.000612737 0.275037 0.961433 
0.000812245 0.328289 0.944577 
0.0020425 0.388562 0.92142 
0.00857833 0.470508 0.882354 
0.0273681 0.535578 0.844042 
0.0324375 0.62957 0.776267 
0.0581408 0.70127 0.710521 
0.0873067 0.789387 0.607656 
0.0902372 0.884313 0.458092 
0.0489118 0.969981 0.238212 
0.00544165 0.999982 -0.00258611 
-0.0357593 0.974518 -0.221439 
-0.0846762 0.877606 -0.471846 
-0.0923794 0.775244 -0.62487 
-0.0643248 0.694493 -0.716619 
-0.0358424 0.619963 -0.783812 
-0.0237256 0.5353 -0.844328 
-0.00829913 0.456517 -0.889676 
-0.00337376 0.380663 -0.924708 
-0.00141153 0.323604 -0.946192 
0.00292924 0.278773 -0.960353 
0.00803961 0.241011 -0.970489 
0.00897514 0.208069 -0.978073 
0.00473201 0.182075 -0.983273 
-0.000652873 0.1564 -0.987694 
-0.00107639 0.136314 -0.990665 
0.00181778 0.122719 -0.99244 
0.00481673 0.110441 -0.993871 
0.00366513 0.100203 -0.99496 
0.00150519 0.0913849 -0.995815 
0.00150017 0.0845322 -0.99642 
0.000915432 0.0776179 -0.996983 
-0.000831675 0.0737605 -0.997276 
-0.00502645 0.0712571 -0.997445 
-0.00811109 0.065508 -0.997819 
-0.00770352 0.055256 -0.998443 
-0.00582233 0.0425949 -0.999075 
-0.00235051 0.0286148 -0.999588 
0.000157829 0.0226664 -0.999743 
0.00202552 0.0246369 -0.999694 
0.00210087 0.0259372 -0.999661 
0.000444927 0.0223914 -0.999749 
0.000388305 0.017005 -0.999855 
-0.00132066 0.0119846 -0.999927 
-0.000197292 0.00867524 -0.999962 
-0.00169038 0.00382177 -0.999991 
-0.00319698 -0.00593107 -0.999977 
-0.00336939 -0.0122231 -0.99992 
0.0013605 -0.0105616 -0.999943 
0.0148595 -0.011698 -0.999821 
0.0160953 -0.00762358 0.999841 
0.0107624 0.0020461 0.99994 
0.00402734 0.00385411 0.999984 
0.00372591 0.0025059 0.99999 
0.00149036 0.00179901 0.999997 
0.00061026 0.00427806 0.999991 
-0.000940005 0.00673192 0.999977 
0.00173995 0.0126971 0.999918 
0.00147905 0.0151654 0.999884 
0.00487443 0.0251959 0.999671 
0.00744766 0.0320085 0.99946 
0.0129547 0.0368863 0.999235 
0.0139124 0.0418695 0.999026 
0.0124306 0.0505633 0.998643 
0.00802118 0.0560186 0.998398 
0.000590262 0.0583893 0.998294 
-0.00255554 0.061394 0.99811 
-0.00253629 0.0643021 0.997927 
-0.00194271 0.0682572 0.997666 
-0.00148209 0.0738016 0.997272 
-0.00150433 0.0803846 0.996763 
-0.00152933 0.0915809 0.995796 
0.000801942 0.108948 0.994047 
0.00449106 0.127238 0.991862 
0.00408244 0.143883 0.989586 
-0.00065748 0.163243 0.986586 
-0.0031283 0.182884 0.98313 
4.54787e-05 0.203912 0.978989 
0.00366886 0.23056 0.973051 
0.00541185 0.268798 0.963181 
0.00563531 0.319203 0.947669 
0.00815503 0.379237 0.925264 
0.0167077 0.447151 0.894302 
0.0461273 0.504444 0.862211 
0.0612516 0.586542 0.8076 
0.103762 0.642767 0.759002 
0.137218 0.72976 0.669792 
0.152484 0.844826 0.512852 
0.0818263 0.963296 0.255665 
0.00491353 0.999929 -0.0109006 
-0.0764118 0.951962 -0.29653 
-0.141113 0.836778 -0.529045 
-0.139785 0.71831 -0.681535 
-0.105706 0.641387 -0.7599 
-0.0682515 0.583332 -0.809361 
-0.0485682 0.505366 -0.861537 
-0.0196563 0.451726 -0.89194 
-0.00689295 0.384317 -0.923175 
-0.00255232 0.322799 -0.946464 
0.00142575 0.276892 -0.9609 
0.00515211 0.242994 -0.970014 
0.00905331 0.216195 -0.976308 
0.00508225 0.191124 -0.981553 
-0.000393097 0.167846 -0.985813 
-0.00367207 0.147036 -0.989124 
-0.000722088 0.132565 -0.991174 
0.0021561 0.120063 -0.992764 
0.0003512 0.110376 -0.99389 
-0.00237268 0.0982156 -0.995162 
-0.00359054 0.0879498 -0.996118 
-0.00433248 0.0817334 -0.996645 
-0.00371488 0.0765187 -0.997061 
-0.00383975 0.0723354 -0.997373 
-0.00376738 0.0641035 -0.997936 
-0.00212612 0.0522453 -0.998632 
-0.000640999 0.0397974 -0.999208 
0.00131254 0.0298507 -0.999554 
0.00246333 0.0225766 -0.999742 
0.00383771 0.0224932 -0.99974 
0.0052123 0.0242391 -0.999693 
0.00192016 0.0206941 -0.999784 
-0.00277472 0.0158086 -0.999871 
-0.00649108 0.0131321 -0.999893 
-0.0054545 0.0108452 -0.999926 
-0.00332985 0.00807215 -0.999962 
-0.00127184 -0.00197949 -0.999997 
0.00101756 -0.00593629 -0.999982 
0.00206088 -0.00959471 -0.999952 
0.00789989 -0.0109442 -0.999909 
0.0265312 0.00401627 0.99964 
0.0145892 0.00670244 0.999871 
0.00849876 0.00528408 0.99995 
0.00562533 0.00740912 0.999957 
0.00260958 0.00467165 0.999986 
0.00109153 0.00718328 0.999974 
0.00208696 0.0110502 0.999937 
0.00631616 0.0219761 0.999739 
0.00785537 0.0260472 0.99963 
0.00937641 0.0336163 0.999391 
0.0116286 0.0378372 0.999216 
0.0114028 0.0399808 0.999135 
0.0105973 0.0446683 0.998946 
0.00838458 0.050884 0.998669 
0.00531713 0.0554495 0.998447 
-0.000294375 0.0583213 0.998298 
-0.00297146 0.0630038 0.998009 
-0.00322715 0.0664244 0.997786 
-0.00136182 0.0708264 0.997488 
0.00151482 0.0771189 0.997021 
0.00442401 0.0839227 0.996462 
0.00523463 0.0951108 0.995453 
0.00593424 0.111519 0.993745 
0.00604858 0.126436 0.991956 
0.00324637 0.143811 0.9896 
-0.00331734 0.161993 0.986786 
-0.00581064 0.183179 0.983062 
-0.000341127 0.208608 0.977999 
0.00569133 0.239609 0.970853 
0.00926952 0.277842 0.960582 
0.0118224 0.325113 0.945601 
0.0187488 0.381979 0.923981 
0.0342349 0.437973 0.898336 
0.0721633 0.467872 0.880845 
0.0955386 0.538257 0.837348 
0.1497 0.562803 0.812922 
0.192326 0.647684 0.737235 
0.237393 0.763926 0.600051 
0.140376 0.935452 0.324382 
0.000304088 0.999766 -0.0216108 
-0.134539 0.930523 -0.340625 
-0.222251 0.763268 -0.606652 
-0.190268 0.641871 -0.742832 
-0.143154 0.568097 -0.810415 
-0.100342 0.518329 -0.849274 
-0.0695097 0.455177 -0.887684 
-0.0335952 0.426801 -0.903721 
-0.0154633 0.379639 -0.925005 
-0.00459871 0.332085 -0.943238 
-0.00119245 0.281291 -0.959622 
0.00151379 0.240488 -0.970651 
0.00299758 0.20966 -0.97777 
-0.000555926 0.185215 -0.982698 
-0.00546662 0.16539 -0.986213 
-0.00695764 0.1466 -0.989171 
-0.00182374 0.12939 -0.991592 
0.000748555 0.117987 -0.993015 
-0.00102357 0.107479 -0.994207 
-0.00268391 0.0956626 -0.99541 
-0.00321561 0.0854876 -0.996334 
-0.00435818 0.0787101 -0.996888 
-0.00469116 0.0720795 -0.997388 
-0.00289979 0.0658328 -0.997826 
-0.000511562 0.0557395 -0.998445 
0.00174438 0.0445889 -0.999004 
0.00629391 0.0369201 -0.999298 
0.00814379 0.0297241 -0.999525 
0.00741055 0.0246123 -0.99967 
0.00646512 0.0228026 -0.999719 
0.00422333 0.021511 -0.99976 
-0.000426321 0.0184821 -0.999829 
-0.00573468 0.0159087 -0.999857 
-0.0102343 0.0148008 -0.999838 
-0.0102383 0.0139909 -0.99985 
-0.00659222 0.0126646 -0.999898 
-0.000709336 0.00535366 -0.999985 
0.0018139 -0.00184124 -0.999997 
0.00238285 -0.00544808 -0.999982 
0.00505911 -0.00861034 -0.99995 
0.0195506 0.011822 0.999739 
0.00994081 0.00853211 0.999914 
0.00860917 0.0095551 0.999917 