# vtk DataFile Version 3.0 
Exported using Morpho https://github.com/Morpho-lang/morpho 
ASCII 
DATASET UNSTRUCTURED_GRID 

POINTS 1978 float 
-8.48529 -2.82843 -8.79867e-09 
-8.14952 -2.82842 7.74231e-09 
-7.84875 -2.82843 6.30953e-09 
-7.6371 -2.82843 1.00011e-08 
-7.2451 -2.82843 -2.1882e-09 
-6.98983 -2.82843 -7.87037e-09 
-6.8097 -2.82843 -1.35195e-08 
-6.61989 -2.82843 -1.78624e-09 
-6.39581 -2.82843 -9.31167e-09 
-6.20405 -2.82843 -1.41868e-08 
-5.96561 -2.82843 -1.23763e-08 
-5.75669 -2.82843 -4.92919e-09 
-5.55097 -2.82843 -2.82021e-09 
-5.34315 -2.82843 -3.62537e-09 
-5.14855 -2.82843 -2.95248e-09 
-4.98503 -2.82843 -2.67965e-09 
-4.79553 -2.82843 -9.85911e-09 
-4.58438 -2.82843 -8.92568e-09 
-4.3722 -2.82843 -3.18342e-09 
-4.15527 -2.82843 1.08175e-09 
-3.94238 -2.82843 1.13368e-08 
-3.73504 -2.82843 2.54484e-08 
-3.53718 -2.82843 4.22688e-08 
-3.34141 -2.82843 6.29332e-08 
-3.14727 -2.82843 1.02637e-07 
-2.90738 -2.82843 1.63674e-07 
-2.64735 -2.82843 2.06561e-07 
-2.44549 -2.82843 3.05572e-07 
-2.16715 -2.82843 3.76122e-07 
-1.93695 -2.82843 4.10714e-07 
-1.71336 -2.82843 5.14635e-07 
-1.45405 -2.82843 4.22075e-07 
-1.30751 -2.82843 3.25575e-07 
-1.13443 -2.82843 3.11758e-07 
-0.981772 -2.82843 2.34085e-07 
-0.802367 -2.82843 1.64759e-07 
-0.595477 -2.82843 7.1502e-08 
-0.35875 -2.82843 3.6303e-08 
-0.236837 -2.82843 -9.02368e-08 
0.0583826 -2.82843 8.11255e-08 
0.156635 -2.82843 -3.81442e-08 
0.385731 -2.82843 4.16718e-08 
0.58839 -2.82843 -1.64266e-08 
0.730575 -2.82843 -1.2146e-07 
0.881662 -2.82843 -1.62121e-07 
1.03065 -2.82843 -2.32458e-07 
1.17607 -2.82843 -4.09546e-07 
1.44393 -2.82843 -5.35489e-07 
1.64715 -2.82843 -4.72761e-07 
1.88708 -2.82843 -4.82722e-07 
2.16607 -2.82843 -4.2255e-07 
2.38166 -2.82843 -3.25345e-07 
2.68829 -2.82843 -2.63985e-07 
2.9236 -2.82843 -1.5866e-07 
3.17553 -2.82843 -1.06336e-07 
3.39847 -2.82843 -6.14766e-08 
3.59659 -2.82843 -3.48683e-08 
3.78205 -2.82843 -1.90817e-08 
3.97989 -2.82843 -8.6832e-09 
4.20666 -2.82843 2.933e-10 
4.40927 -2.82843 4.52348e-09 
4.59022 -2.82843 7.60424e-09 
4.78235 -2.82843 8.7334e-09 
4.98647 -2.82843 9.29475e-09 
5.22073 -2.82843 9.10606e-09 
5.44426 -2.82843 7.9187e-09 
5.68391 -2.82843 6.9911e-09 
5.91942 -2.82843 6.03282e-09 
6.13116 -2.82843 2.41814e-09 
6.35607 -2.82843 -1.04979e-10 
6.58056 -2.82843 -2.6479e-09 
6.74577 -2.82843 -4.42902e-09 
6.93503 -2.82843 3.83448e-09 
7.27741 -2.82842 1.34828e-08 
7.48735 -2.82843 2.10491e-08 
7.72482 -2.82843 1.12216e-08 
7.95074 -2.82843 2.40069e-09 
8.22633 -2.82843 -2.50419e-09 
8.48528 -2.82843 3.92554e-09 
-8.48528 -2.61961 7.89861e-09 
-8.11957 -2.57614 -3.78573e-09 
-7.90819 -2.5224 -3.70184e-09 
-7.70116 -2.55035 4.05187e-11 
-7.49387 -2.68581 -7.04519e-11 
-7.07546 -2.64672 3.94877e-10 
-6.82626 -2.55769 4.87684e-09 
-6.62836 -2.53346 9.33949e-09 
-6.42843 -2.60021 9.66684e-09 
-6.35346 -2.36219 3.40066e-09 
-6.19776 -2.5755 4.70639e-09 
-5.98222 -2.62831 7.26168e-09 
-5.72126 -2.61289 5.91482e-09 
-5.48653 -2.60744 5.5874e-09 
-5.26521 -2.59419 5.39235e-09 
-5.06801 -2.54243 6.30375e-09 
-4.87074 -2.58864 7.22919e-09 
-4.65785 -2.61241 8.34649e-09 
-4.42031 -2.61585 8.40277e-09 
-4.18549 -2.60837 1.27322e-08 
-3.96008 -2.599 1.31873e-08 
-3.73169 -2.59277 1.69539e-08 
-3.50798 -2.57912 1.0455e-08 
-3.28368 -2.55645 1.27303e-08 
-3.0342 -2.60013 1.86542e-08 
-2.75112 -2.60597 9.67905e-09 
-2.49362 -2.55786 -1.17413e-08 
-2.28906 -2.65307 1.51472e-08 
-2.05299 -2.64296 3.12288e-08 
-1.8663 -2.66789 4.30927e-08 
-1.59126 -2.72784 -2.98806e-08 
-1.41524 -2.67966 6.61526e-08 
-1.2593 -2.71674 1.11198e-08 
-1.10463 -2.70801 -2.52447e-08 
-0.930991 -2.73397 -5.02674e-08 
-0.859587 -2.65045 9.07606e-08 
-0.732712 -2.75209 -4.62078e-09 
-0.481009 -2.76935 -1.44509e-09 
-0.196355 -2.75027 4.1115e-09 
-0.0558696 -2.78593 1.27846e-08 
0.249966 -2.77653 -1.02647e-08 
0.457596 -2.76398 -2.35801e-08 
0.748973 -2.73191 -1.92184e-08 
0.900978 -2.71678 -3.5288e-08 
1.06762 -2.70032 -7.06181e-08 
1.21363 -2.6475 1.04732e-07 
1.29867 -2.74277 -2.84565e-08 
1.46388 -2.6905 3.76823e-08 
1.64698 -2.69394 -3.52494e-08 
1.87215 -2.69159 -2.54819e-08 
2.12094 -2.68196 2.30314e-08 
2.3764 -2.60865 -6.60246e-09 
2.61472 -2.64212 -2.66943e-09 
2.88625 -2.57372 -1.69619e-08 
3.1363 -2.59304 -1.18889e-08 
3.38742 -2.58202 -1.49838e-08 
3.61198 -2.57217 -1.19858e-08 
3.8313 -2.59861 -9.09325e-09 
4.0718 -2.64165 -1.2069e-08 
4.31089 -2.62064 -1.00554e-08 
4.51644 -2.59036 -1.14724e-08 
4.71697 -2.59014 -1.04691e-08 
4.923 -2.58705 -8.71444e-09 
5.1438 -2.60353 -7.37115e-09 
5.37315 -2.58376 -5.50141e-09 
5.59837 -2.59798 -4.04842e-09 
5.82682 -2.60037 -2.88681e-09 
6.04943 -2.58819 -2.19549e-09 
6.26709 -2.61052 -2.04e-09 
6.4913 -2.61236 -2.75076e-09 
6.6875 -2.53044 -3.52335e-09 
6.86653 -2.56453 -5.77397e-09 
7.08316 -2.6773 -8.76891e-09 
7.47702 -2.58216 -8.9715e-09 
7.68969 -2.61515 -6.70257e-09 
7.93383 -2.58653 -2.5907e-09 
8.09638 -2.38044 3.43143e-11 
8.18264 -2.61615 -1.73721e-10 
8.48528 -2.63334 -7.88719e-09 
-8.48528 -2.26859 2.94785e-09 
-8.27691 -2.41651 3.07725e-09 
-7.9902 -2.2444 -2.68606e-09 
-7.77226 -2.27618 -2.42611e-09 
-7.56463 -2.36428 5.97782e-11 
-7.3394 -2.59249 1.6358e-09 
-7.17115 -2.43954 5.61092e-09 
-6.96404 -2.38934 4.35576e-09 
-6.75295 -2.28616 5.06259e-09 
-6.53329 -2.25991 9.20424e-09 
-6.23078 -2.14395 2.06129e-09 
-6.10383 -2.34895 1.02045e-08 
-5.89134 -2.43265 6.53385e-09 
-5.66445 -2.39119 6.83314e-09 
-5.45322 -2.37483 5.98137e-09 
-5.24643 -2.34612 5.58767e-09 
-5.00352 -2.31945 6.71083e-09 
-4.79026 -2.36666 7.98156e-09 
-4.55668 -2.41399 1.25935e-08 
-4.32639 -2.39996 1.25657e-08 
-4.10587 -2.36909 1.23334e-08 
-3.88586 -2.36718 1.25907e-08 
-3.66499 -2.35749 1.24718e-08 
-3.43641 -2.33626 1.32786e-08 
-3.16756 -2.34797 1.01446e-08 
-2.92303 -2.38996 1.37754e-08 
-2.65969 -2.38675 1.05405e-08 
-2.3743 -2.38731 -2.72746e-09 
-2.18045 -2.48187 -5.11691e-09 
-1.96312 -2.46181 -1.32633e-08 
-1.72853 -2.62211 -3.28344e-08 
-1.54342 -2.58482 6.384e-08 
-1.38359 -2.54184 -7.20805e-08 
-1.23017 -2.59151 -1.7275e-08 
-1.03349 -2.61929 1.26788e-07 
-0.72178 -2.62866 -6.90461e-08 
-0.60662 -2.70736 2.44333e-10 
-0.342178 -2.72262 1.18122e-08 
-0.144882 -2.68129 1.95652e-08 
0.0414258 -2.70701 -2.3166e-08 
0.317083 -2.70468 -1.68786e-08 
0.589827 -2.72581 -6.3197e-08 
0.71965 -2.63137 7.15894e-08 
0.857697 -2.60593 1.42481e-07 
0.993872 -2.589 5.76874e-08 
1.14267 -2.54274 -1.32921e-07 
1.39255 -2.58065 -1.08094e-09 
1.59774 -2.545 -1.89468e-08 
1.77327 -2.56273 -8.68235e-09 
1.99438 -2.5432 -7.91116e-09 
2.19991 -2.49336 7.05893e-09 
2.46717 -2.421 -2.11879e-08 
2.67946 -2.41305 3.61638e-09 
2.94278 -2.35241 -1.26664e-08 
3.18144 -2.35949 -4.84799e-09 
3.41844 -2.34927 -1.15576e-08 
3.65007 -2.34175 -1.47758e-08 
3.87975 -2.38211 -1.58053e-08 
4.08883 -2.44696 -1.43203e-08 
4.28162 -2.38713 -1.47447e-08 
4.48011 -2.36714 -1.25397e-08 
4.68477 -2.35643 -9.4522e-09 
4.89047 -2.34721 -8.09745e-09 
5.10351 -2.36733 -7.104e-09 
5.32278 -2.35329 -5.60702e-09 
5.55305 -2.35582 -4.41625e-09 
5.77476 -2.36208 -3.06807e-09 
5.99313 -2.35805 -2.22267e-09 
6.21691 -2.37354 -1.86226e-09 
6.4299 -2.38589 -1.81122e-09 
6.64385 -2.31301 -2.33549e-09 
6.87444 -2.29049 -3.74176e-09 
7.06081 -2.42166 -6.77459e-09 
7.27228 -2.55978 -6.18761e-09 
7.54063 -2.34588 -6.55053e-09 
7.75979 -2.38416 -1.8661e-09 
7.93354 -2.25166 -3.84783e-10 
8.32849 -2.41952 -1.05629e-12 
8.48528 -2.28884 7.50053e-10 
-8.48528 -1.99856 6.25069e-10 
-8.21552 -2.1778 -2.16591e-09 
-8.09186 -1.96546 -1.67217e-09 
-7.84159 -2.03873 -4.52195e-10 
-7.5996 -2.10013 -3.2184e-10 
-7.36397 -2.33892 7.4628e-10 
-7.16061 -2.19648 2.20672e-09 
-6.95454 -2.13402 -5.68221e-10 
-6.72323 -2.04685 1.50495e-09 
-6.38671 -2.01453 -1.4977e-09 
-6.01979 -2.08094 6.39803e-13 
-5.86838 -2.20684 3.4056e-09 
-5.66747 -2.15569 2.45965e-09 
-5.45098 -2.13965 8.80396e-10 
-5.2415 -2.10392 2.27907e-09 
-5.03867 -2.11882 2.45263e-09 
-4.78258 -2.13035 3.62593e-09 
-4.57444 -2.1939 7.79971e-09 
-4.35733 -2.17273 7.45923e-09 
-4.15401 -2.13744 4.95433e-09 
-3.93409 -2.1234 4.10493e-09 
-3.72613 -2.1204 1.24627e-09 
-3.51672 -2.11375 -2.1185e-09 
-3.28575 -2.14294 9.08509e-09 
-3.05006 -2.14277 -1.16682e-08 
-2.82598 -2.20075 1.38507e-08 
-2.57631 -2.22822 -6.28485e-09 
-2.43006 -2.15418 3.23757e-08 
-2.19168 -2.2884 -4.82932e-09 
-2.0196 -2.30986 -5.98929e-09 
-1.79762 -2.45417 -3.91357e-08 
-1.64035 -2.47658 4.92702e-08 
-1.48958 -2.41222 -4.16029e-08 
-1.32448 -2.40967 6.66563e-08 
-1.19336 -2.46366 1.79585e-07 
-0.92118 -2.52514 -4.90763e-08 
-0.592501 -2.5858 5.04744e-08 
-0.473807 -2.66463 1.3472e-08 
-0.303426 -2.63567 9.65862e-08 
0.144392 -2.70356 1.85012e-08 
0.432483 -2.65492 -2.12101e-08 
0.358396 -2.58861 -4.19571e-08 
0.542037 -2.63268 2.38133e-08 
0.753644 -2.50312 -1.15053e-07 
1.03559 -2.46715 -3.34568e-09 
1.3038 -2.49216 5.74772e-09 
1.51918 -2.4468 5.80552e-08 
1.74409 -2.40265 -1.32343e-08 
1.90425 -2.41175 9.56589e-10 
2.08307 -2.34671 -1.06177e-08 
2.29857 -2.32105 7.83237e-09 
2.49721 -2.20039 -2.1454e-09 
2.72735 -2.21745 -1.74942e-08 
2.96127 -2.14408 4.66276e-09 
3.16987 -2.11363 -4.10141e-09 
3.38071 -2.12669 -1.27645e-09 
3.61283 -2.10947 -8.84327e-10 
3.84262 -2.15094 -5.56055e-09 
4.07388 -2.20336 -7.12728e-09 
4.28247 -2.14824 -6.17372e-09 
4.48676 -2.12942 -4.34233e-09 
4.69397 -2.11934 -4.85515e-09 
4.90936 -2.11313 -4.4556e-09 
5.12672 -2.12973 -3.61924e-09 
5.35809 -2.12366 -2.1521e-09 
5.5849 -2.12057 -1.24854e-09 
5.81067 -2.12454 -8.82238e-10 
6.03691 -2.13216 -7.799e-10 
6.25081 -2.13582 -5.10016e-10 
6.45694 -2.13289 -3.14387e-10 
6.68966 -2.08559 1.38505e-11 
6.91868 -2.05762 -7.85163e-11 
7.11549 -2.17814 -2.83984e-09 
7.30737 -2.31962 -7.28066e-09 
7.49355 -2.10902 -1.20265e-09 
7.72376 -2.11265 -3.78162e-10 
7.97077 -2.02667 1.49683e-09 
8.20859 -2.15267 3.96698e-10 
8.48528 -2.09531 3.14372e-09 
-8.48528 -1.58072 -5.94004e-09 
-8.33878 -1.89021 1.6895e-09 
-7.92236 -1.82593 -1.25201e-09 
[...]
POINT_DATA 1978 
VECTORS vectors float
0.00486644 -0.00743309 0.99996 
0.00703384 -0.0698269 0.997535 
0.00575528 -0.0692393 0.997583 
0.00616918 -0.0420765 0.999095 
0.00637966 0.0333304 0.999424 
0.00388423 0.0760254 0.997098 
0.00347363 0.0942051 0.995547 
0.00362611 0.101502 0.994829 
0.00446413 0.0981787 0.995159 
0.00465865 0.0897909 0.99595 
0.00481879 0.0729155 0.997326 
0.00461783 0.0545979 0.998498 
0.00430548 0.037037 0.999305 
0.00379375 0.0327534 0.999456 
0.00350717 0.0397622 0.999203 
0.0032868 0.0516467 0.99866 
0.00329655 0.0702511 0.997524 
0.00391259 0.0867891 0.996219 
0.00419914 0.102487 0.994726 
0.00412218 0.116044 0.993236 
0.00362382 0.132418 0.991187 
0.00320745 0.151062 0.988519 
0.00277154 0.168923 0.985625 
0.00280765 0.18562 0.982618 
0.00305222 0.20136 0.979513 
0.00327399 0.218851 0.975753 
0.00280317 0.235452 0.971882 
0.00231522 0.250136 0.968208 
0.00211983 0.268788 0.963197 
0.00178035 0.282259 0.959337 
0.000748432 0.300195 0.953878 
0.000597841 0.341482 0.939888 
0.000282468 0.37868 0.925528 
-7.35025e-06 0.436339 0.899783 
-0.000162524 0.501786 0.864992 
-0.000614471 0.605526 0.795826 
-0.000486007 0.740974 0.671533 
-0.000787281 0.890974 0.454053 
0.000182554 0.95142 0.307897 
-0.000495518 0.99815 -0.060799 
0.000673272 0.979123 -0.203267 
5.29458e-06 0.87706 -0.48038 
0.000173208 0.753375 -0.657592 
0.000680045 0.65597 -0.754787 
0.000538172 0.567454 -0.823405 
0.000384075 0.482114 -0.876108 
-1.83025e-05 0.411294 -0.911503 
-4.4795e-05 0.336569 -0.941659 
-0.000929283 0.302955 -0.953004 
-0.00151034 0.277143 -0.960827 
-0.00166829 0.258575 -0.96599 
-0.00272284 0.249316 -0.968419 
-0.00333828 0.235865 -0.97178 
-0.00343679 0.220346 -0.975416 
-0.00332323 0.200337 -0.979721 
-0.00304864 0.179155 -0.983816 
-0.00287684 0.160098 -0.987097 
-0.00315007 0.141613 -0.989917 
-0.00373702 0.126591 -0.991948 
-0.0038213 0.112222 -0.993676 
-0.00354272 0.0999433 -0.994987 
-0.00339845 0.0893008 -0.995999 
-0.00366503 0.0784247 -0.996913 
-0.00432752 0.0680779 -0.997671 
-0.0048537 0.0582283 -0.998292 
-0.00511172 0.0508064 -0.998696 
-0.00499938 0.0441358 -0.999013 
-0.00461062 0.0355591 -0.999357 
-0.00446136 0.0233524 -0.999717 
-0.00426882 0.0084938 -0.999955 
-0.00370707 0.00211231 -0.999991 
-0.00444976 0.00793415 -0.999958 
-0.00654872 0.0343934 -0.999387 
-0.00723078 0.104058 -0.994545 
-0.00499495 0.118607 -0.992929 
-0.00422095 0.0994992 -0.995029 
-0.00481484 0.0590376 -0.998244 
-0.00422604 0.00835898 -0.999956 
-0.00412305 -0.00665286 -0.999969 
-0.000282829 -0.00731418 0.999973 
0.0172684 -0.0571677 0.998215 
0.0244787 -0.0570709 0.99807 
0.0230864 -0.0418781 0.998856 
0.0174151 -0.0150948 0.999734 
0.016527 0.0578993 0.998186 
0.0214619 0.0793817 0.996613 
0.0241852 0.0852628 0.996065 
0.0229794 0.0875128 0.995898 
0.0218695 0.0716173 0.997192 
0.023502 0.0754882 0.99687 
0.0251607 0.0676496 0.997392 
0.0274809 0.047256 0.998505 
0.0289244 0.0366863 0.998908 
0.0292961 0.0377239 0.998859 
0.0324381 0.0485427 0.998294 
0.0278588 0.0625371 0.997654 
0.0237236 0.0806631 0.996459 
0.0180061 0.0997609 0.994849 
0.0117993 0.117179 0.993041 
0.00226124 0.135371 0.990793 
-0.0090417 0.155744 0.987756 
-0.0257382 0.177885 0.983715 
-0.0455904 0.199994 0.978736 
-0.0542202 0.218188 0.9744 
-0.0795534 0.242224 0.966953 
-0.129558 0.268182 0.954617 
-0.095316 0.270454 0.958003 
-0.115388 0.285087 0.951531 
-0.111977 0.295178 0.948858 
-0.0825831 0.318516 0.944313 
-0.10917 0.349902 0.930403 
-0.0797023 0.388525 0.917985 
-0.0788666 0.436854 0.896068 
-0.0555845 0.523524 0.850196 
-0.0893782 0.569722 0.816963 
-0.033718 0.651157 0.758194 
-0.0149732 0.811988 0.583482 
-0.0051833 0.967211 0.253923 
-0.00184862 0.99568 0.0928341 
0.00395047 0.947564 -0.319541 
0.0090097 0.838357 -0.545047 
0.0445472 0.658163 -0.751556 
0.0661865 0.549855 -0.832634 
0.0882858 0.466448 -0.880132 
0.150508 0.391339 -0.907855 
0.0703524 0.373963 -0.924771 
0.121382 0.331643 -0.935564 
0.106001 0.305632 -0.946231 
0.0993419 0.284017 -0.953659 
0.0993206 0.272037 -0.957148 
0.118016 0.266467 -0.956592 
0.0781066 0.249189 -0.9653 
0.0776889 0.235954 -0.968654 
0.0503871 0.21251 -0.975859 
0.0333413 0.188472 -0.981513 
0.0199023 0.165803 -0.985958 
0.00499778 0.144146 -0.989544 
-0.00865995 0.123871 -0.992261 
-0.0163158 0.107365 -0.994086 
-0.0240035 0.0944052 -0.995244 
-0.0279857 0.0819467 -0.996244 
-0.0300798 0.0701451 -0.997083 
-0.029633 0.0594483 -0.997792 
-0.0298188 0.0498813 -0.99831 
-0.0271152 0.0422383 -0.99874 
-0.025073 0.0345117 -0.99909 
-0.0243808 0.0253589 -0.999381 
-0.0225769 0.0158322 -0.99962 
-0.0223326 0.0100342 -0.9997 
-0.0266595 0.0201721 -0.999441 
-0.027365 0.0338513 -0.999052 
-0.0229289 0.0632719 -0.997733 
-0.0245464 0.0960762 -0.995071 
-0.0182485 0.087216 -0.996022 
-0.0114265 0.0491501 -0.998726 
-0.00130332 0.0141941 -0.999898 
-0.00547857 0.0171111 -0.999839 
0.000935162 -0.00709103 -0.999975 
0.000675116 -0.0134632 0.99991 
0.00724565 -0.0389453 0.999215 
0.0239668 -0.0509561 0.998413 
0.0253719 -0.0356037 0.999044 
0.0236813 -0.0146395 0.999612 
0.021363 0.0128336 0.999689 
0.0258107 0.0389019 0.99891 
0.0215555 0.0620851 0.997838 
0.0172765 0.0738653 0.997119 
0.0182082 0.0729108 0.997172 
0.0084715 0.0569183 0.998343 
0.0291285 0.0598013 0.997785 
0.0328408 0.0514715 0.998134 
0.0356753 0.0383857 0.998626 
0.0361447 0.0343239 0.998757 
0.0347532 0.0383394 0.99866 
0.0334224 0.0533177 0.998018 
0.0309795 0.0710396 0.996992 
0.026343 0.0905433 0.995544 
0.0144305 0.111076 0.993707 
-0.00250282 0.132693 0.991154 
-0.0208597 0.154541 0.987766 
-0.0438805 0.178961 0.982877 
-0.0743748 0.206916 0.975528 
-0.110727 0.237603 0.965031 
-0.135184 0.256272 0.957105 
-0.184122 0.284825 0.940731 
-0.241922 0.309052 0.919761 
-0.215725 0.303399 0.928123 
-0.269075 0.317989 0.90911 
-0.166903 0.310639 0.93576 
-0.191376 0.332742 0.923395 
-0.236323 0.354191 0.904821 
-0.176627 0.391674 0.902992 
-0.125951 0.46799 0.874712 
-0.0922455 0.655399 0.749629 
-0.0414558 0.73309 0.678867 
-0.0148548 0.898354 0.439022 
-0.00662528 0.981614 0.190762 
-0.00153663 0.999122 -0.0418583 
0.00989244 0.915319 -0.402607 
0.0257699 0.756232 -0.653795 
0.0803657 0.647443 -0.757865 
0.132152 0.556558 -0.820231 
0.162412 0.480168 -0.86201 
0.20976 0.419091 -0.883382 
0.21413 0.347958 -0.912729 
0.241413 0.317734 -0.916933 
0.2127 0.303544 -0.928773 
0.207453 0.296936 -0.93209 
0.215495 0.296494 -0.930405 
0.206754 0.294832 -0.932913 
0.173235 0.279716 -0.944325 
0.147743 0.2646 -0.952974 
0.107286 0.235431 -0.965951 
0.0752899 0.207895 -0.975249 
0.0469426 0.180632 -0.98243 
0.0179393 0.15265 -0.988118 
-0.0040885 0.129237 -0.991605 
-0.0135469 0.116052 -0.993151 
-0.0227765 0.100798 -0.994646 
-0.0292947 0.0857396 -0.995887 
-0.033553 0.0718062 -0.996854 
-0.036155 0.0593699 -0.997581 
-0.0353698 0.0480849 -0.998217 
-0.0328435 0.0380249 -0.998737 
-0.0293768 0.0297936 -0.999124 
-0.0259035 0.0224932 -0.999411 
-0.0236349 0.0174787 -0.999568 
-0.0226017 0.0162529 -0.999613 
-0.0207233 0.0239317 -0.999499 
-0.0215333 0.0385483 -0.999025 
-0.0288909 0.0554796 -0.998042 
-0.0268275 0.0830565 -0.996184 
-0.0206664 0.070402 -0.997305 
-0.0123726 0.0554456 -0.998385 
-0.000177643 0.024488 -0.9997 
-0.000820885 -0.00370948 -0.999993 
-0.000599735 -0.00755334 -0.999972 
0.000174913 -0.0172969 0.999851 
0.0138282 -0.0413678 0.999048 
0.0102258 -0.0443991 0.998962 
0.0126811 -0.0338815 0.999346 
0.0106695 -0.0061487 0.999924 
0.0221269 0.0158544 0.99963 
0.0116854 0.0434717 0.998986 
0.00301639 0.0639536 0.997948 
-0.00457796 0.0709453 0.99747 
-0.00710459 0.0590875 0.998228 
0.00572661 0.0414226 0.999125 
0.0213481 0.0393899 0.998996 
0.0205242 0.0310845 0.999306 
0.0204335 0.0306439 0.999322 
0.0212027 0.0379802 0.999054 
0.0218291 0.0515376 0.998433 
0.0174172 0.0742057 0.997091 
0.0149026 0.093708 0.995488 
-0.000483802 0.116668 0.993171 
-0.0222025 0.142353 0.989567 
-0.0485449 0.171584 0.983973 
-0.0771302 0.200032 0.976749 
-0.110416 0.22988 0.966935 
-0.14531 0.259216 0.954826 
-0.201463 0.297922 0.933089 
-0.228658 0.31039 0.922699 
-0.284176 0.334892 0.898383 
-0.360092 0.369081 0.856804 
-0.350641 0.353687 0.867154 
-0.375476 0.352797 0.85706 
-0.3018 0.331097 0.894031 
-0.290446 0.334054 0.896688 
-0.364519 0.348596 0.863485 
-0.337268 0.370738 0.865334 
-0.260255 0.399546 0.878994 
-0.183803 0.509851 0.840398 
-0.0791252 0.744121 0.663343 
-0.038726 0.817381 0.574794 
-0.0159675 0.917356 0.397748 
0.00356077 0.981906 -0.189335 
0.0247871 0.844873 -0.534393 
0.0231476 0.893009 -0.449443 
0.0473347 0.775215 -0.629921 
0.142271 0.630322 -0.763187 
0.254772 0.44448 -0.858795 
0.287021 0.367433 -0.884653 
0.339549 0.333291 -0.879559 
0.35946 0.327243 -0.8739 
0.327842 0.325502 -0.886887 
0.341878 0.333919 -0.878418 
0.307617 0.332851 -0.891393 
0.324681 0.351542 -0.878066 
0.252369 0.324462 -0.911611 
0.221352 0.31271 -0.923697 
0.179453 0.286456 -0.941137 
0.132929 0.249895 -0.959105 
0.0959071 0.216726 -0.97151 
0.0549098 0.178284 -0.982446 
0.0218618 0.145831 -0.989068 
0.00880893 0.127299 -0.991825 
-0.00374098 0.107912 -0.994154 
-0.0139707 0.0893663 -0.995901 
-0.0206549 0.0717371 -0.99721 
-0.0242494 0.0560693 -0.998132 
-0.022524 0.0419611 -0.998865 
-0.018506 0.0305216 -0.999363 
-0.0141776 0.0218618 -0.999661 
-0.0105382 0.0166805 -0.999805 
-0.00711464 0.0157863 -0.99985 
-0.00503981 0.0192974 -0.999801 
-0.00112357 0.0283846 -0.999597 
-0.000373617 0.0397123 -0.999211 
-0.0137549 0.0521271 -0.998546 
-0.0238541 0.066246 -0.997518 
-0.0031069 0.0502367 -0.998733 
0.00324869 0.0347562 -0.999391 
0.0169386 0.00467971 -0.999846 
0.00819995 -0.00461807 -0.999956 
0.000556705 -0.00460595 -0.999989 
-0.00125655 -0.0124146 0.999923 
-0.000291443 -0.0286202 0.99959 
0.000816706 -0.0349818 0.999388 
-0.00553672 -0.00584618 0.999968 
-0.0100583 0.0232172 0.99968 
0.0070033 0.0217173 0.99974 
-0.00954261 0.0489661 0.998755 
-0.0185649 0.063917 0.997783 
-0.0320275 0.0672329 0.997223 
-0.0174701 0.0643005 0.997778 
-0.0170898 0.0398669 0.999059 
-0.0187794 0.0246316 0.99952 
-0.00505247 0.0251766 0.99967 
0.000820396 0.0231827 0.999731 
0.00318505 0.0279691 0.999604 
0.00352872 0.0399567 0.999195 
0.00678227 0.0597368 0.998191 
-0.00273445 0.0840809 0.996455 
-0.00744684 0.104311 0.994517 
-0.0255447 0.130429 0.991129 
-0.0507774 0.164409 0.985085 
-0.0839478 0.203535 0.975462 
-0.119973 0.241416 0.962977 
-0.162245 0.280797 0.945954 
-0.204662 0.312757 0.927522 
-0.266447 0.357337 0.895163 
-0.305141 0.369509 0.877697 
-0.353181 0.386014 0.852207 
-0.43126 0.433924 0.791028 
-0.422346 0.392545 0.817027 
-0.489673 0.409766 0.769618 
-0.41919 0.357281 0.834644 
-0.454197 0.357839 0.815878 
-0.561242 0.38345 0.733467 
-0.225132 0.439243 0.869702 
-0.157356 0.595309 0.787938 
-0.137451 0.698509 0.702277 
-0.0564527 0.826391 0.560259 
-0.0131271 0.966019 0.258137 
-0.00530592 0.998142 0.0607052 
0.00713726 0.960345 -0.278723 
0.0316247 0.891152 -0.452602 
0.0810375 0.714197 -0.695238 
0.214615 0.541858 -0.812607 
0.353105 0.375811 -0.856786 
0.388081 0.344784 -0.854703 
0.504242 0.340066 -0.793786 
0.446653 0.337267 -0.828705 
0.464201 0.359341 -0.809563 
0.467882 0.385794 -0.795141 
0.410282 0.376634 -0.830551 
0.416642 0.407282 -0.81273 
0.339968 0.3837 -0.858601 
0.290359 0.37182 -0.881727 
0.250701 0.356741 -0.899936 
0.196045 0.311797 -0.929704 
0.151538 0.272273 -0.950212 
0.103513 0.22318 -0.969266 
0.061271 0.177736 -0.982169 
0.04085 0.152425 -0.98747 
0.0239767 0.126902 -0.991626 
0.0100585 0.102452 -0.994687 
0.000531301 0.0802849 -0.996772 
-0.00490061 0.0600925 -0.998181 
-0.00592747 0.0434229 -0.999039 
-0.0019561 0.02871 -0.999586 
0.00286663 0.0179599 -0.999835 
0.00823438 0.0119527 -0.999895 
0.0136373 0.0117701 -0.999838 
0.0178128 0.0168776 -0.999699 
0.0198658 0.0257227 -0.999472 
0.0212144 0.0351422 -0.999157 
0.0138194 0.0447002 -0.998905 
0.000874209 0.0507786 -0.99871 
0.0192579 0.0337417 -0.999245 
0.0203821 0.0184836 -0.999622 
0.0279959 -0.00836627 -0.999573 
0.0145591 -0.0129085 -0.999811 
4.13217e-05 -0.00443179 -0.99999 
-0.000494844 -0.00636115 0.99998 
-0.0152291 -0.0261176 0.999543 
-0.00238053 -0.0366706 0.999325 
-0.00957536 -0.0349371 0.999344 
-0.0166759 -0.00845332 0.999825 
-0.030877 0.0505824 0.998243 
-0.038856 0.0655319 0.997094 
-0.0477243 0.0665724 0.99664 
-0.0406311 0.0572014 0.997536 
-0.0328238 0.0446593 0.998463 
-0.0341111 0.0261881 0.999075 
-0.0277594 0.0112242 0.999552 
-0.0174295 0.0147355 0.99974 
-0.0122199 0.0180486 0.999763 
-0.00992671 0.0285814 0.999542 
-0.00720976 0.0517693 0.998633 
-0.0107398 0.0758207 0.997064 
-0.0229753 0.110014 0.993665 
-0.0407794 0.143215 0.988851 
-0.0630454 0.178733 0.981876 
-0.100318 0.23067 0.967847 
-0.143678 0.282037 0.948584 
-0.190239 0.327589 0.92547 
-0.247313 0.375618 0.893167 
-0.302852 0.413955 0.858442 
-0.352395 0.433755 0.829262 
-0.398557 0.447338 0.800651 
-0.467649 0.493717 0.733177 
-0.49273 0.467314 0.734054 
-0.512639 0.45945 0.725332 
-0.52151 0.405776 0.750582 
-0.523007 0.391111 0.757295 
-0.643344 0.439728 0.626696 
-0.660435 0.419601 0.622705 
-0.487282 0.368048 0.791894 
-0.40902 0.392867 0.823625 
-0.244449 0.544112 0.802613 
-0.0853836 0.803117 0.589671 
-0.0183309 0.974792 0.222361 
-0.000836941 0.994405 -0.105633 
0.00923497 0.961137 -0.275916 
0.059674 0.794135 -0.604804 
0.125145 0.704173 -0.698912 
0.300369 0.489697 -0.81852 
0.472382 0.350887 -0.808538 
0.620664 0.374128 -0.68906 
0.533249 0.367283 -0.762069 
0.566214 0.418932 -0.709858 
0.532566 0.442282 -0.721637 
0.489488 0.440045 -0.752836 
0.477727 0.494075 -0.726407 
0.403475 0.437605 -0.803561 
0.384442 0.451808 -0.805031 
0.332308 0.436638 -0.836013 
0.276288 0.413611 -0.86752 
0.220126 0.362768 -0.905508 
0.164767 0.304848 -0.938041 
0.113643 0.243681 -0.963174 
0.0808735 0.202215 -0.975996 
0.0541221 0.164973 -0.984812 
0.0347763 0.131978 -0.990643 
0.0210533 0.10215 -0.994546 
0.011889 0.0754939 -0.997075 
0.00815875 0.053601 -0.998529 
0.00848193 0.0357153 -0.999326 
0.0128005 0.0207818 -0.999702 
0.0180969 0.0104954 -0.999781 
0.0247082 0.00495324 -0.999683 
0.0294164 0.00644157 -0.999547 
0.0341967 0.0132565 -0.999327 
0.0360317 0.0239178 -0.999064 
0.0368519 0.0343112 -0.998732 
0.0312073 0.040814 -0.998679 
0.0246618 0.0402802 -0.998884 
0.0321575 0.0207502 -0.999267 
0.0320106 0.000361607 -0.999488 
0.0314891 -0.0246332 -0.999201 
0.0178698 -0.0200139 -0.99964 
0.00074145 -0.0079355 -0.999968 
-0.00252475 -0.00429203 0.999988 
-0.0235578 -0.0220617 0.999479 
-0.00952683 -0.0308923 0.999477 
-0.0222043 -0.0259981 0.999415 
-0.0258411 0.0240692 0.999376 
-0.0396599 0.0332937 0.998658 
-0.0454214 0.0583489 0.997262 
-0.0520988 0.0658213 0.99647 
-0.0529956 0.0579251 0.996913 
-0.0468069 0.041568 0.998039 
-0.0432711 0.0231332 0.998796 
-0.0366953 0.00869825 0.999289 
-0.0264328 0.000965196 0.99965 
-0.0198724 0.00756029 0.999774 
-0.0144803 0.0169069 0.999752 
-0.0113768 0.0392793 0.999164 
-0.0131327 0.0667434 0.997684 
-0.0209615 0.0981335 0.994953 
-0.0356349 0.137477 0.989864 
-0.0572165 0.180476 0.981914 
-0.0852379 0.226746 0.970217 
-0.13019 0.294282 0.94681 
-0.180998 0.357606 0.916165 
-0.233506 0.408635 0.882323 
-0.289767 0.460067 0.83927 
-0.346064 0.50163 0.792847 
-0.390921 0.511445 0.765248 
-0.442532 0.527848 0.724943 
-0.538198 0.551912 0.636974 
-0.565562 0.544182 0.619681 
-0.556201 0.463963 0.689477 
-0.619227 0.481177 0.620505 
-0.621977 0.456204 0.636414 
-0.709866 0.485288 0.510477 
-0.586053 0.372538 0.719553 
-0.51904 0.391179 0.759984 
-0.296965 0.436251 0.84941 
-0.209937 0.647895 0.732227 
-0.0270258 0.89852 0.438099 
-0.0106482 0.998224 0.0586153 
0.00600954 0.977095 -0.212716 
0.223357 0.617087 -0.754529 
0.353432 0.398949 -0.846124 
0.485542 0.363753 -0.794942 
0.580604 0.344096 -0.7379 
0.61972 0.410456 -0.668934 
0.669924 0.451423 -0.589423 
0.619917 0.464947 -0.632082 
0.579542 0.512644 -0.633504 
0.509609 0.489532 -0.707571 
0.548374 0.599163 -0.583344 
0.470544 0.533542 -0.702795 
0.436808 0.546283 -0.714684 
0.377526 0.508442 -0.773926 
0.328278 0.497423 -0.802997 
0.262299 0.454447 -0.851279 
0.204059 0.387924 -0.898819 
0.144061 0.307944 -0.940435 
0.102019 0.25394 -0.961825 
0.0713467 0.201831 -0.976818 
0.0450519 0.156042 -0.986723 
0.0260702 0.113735 -0.993169 
0.0159821 0.0800431 -0.996663 
0.011863 0.052631 -0.998544 
0.0129435 0.0316063 -0.999417 
0.0174026 0.0153657 -0.999731 
0.0231833 0.00447933 -0.999721 
0.0293876 -0.000930667 -0.999568 
0.0345085 0.00141003 -0.999403 
0.0390826 0.0113493 -0.999172 
0.0416561 0.025329 -0.998811 
0.0425068 0.0373104 -0.998399 
0.0389555 0.0411465 -0.998394 
0.0349012 0.0361807 -0.998736 
0.0347702 0.0140927 -0.999296 
0.0343621 -0.0117049 -0.999341 
0.0273067 -0.0291389 -0.999202 
0.0129446 -0.0200419 -0.999715 
0.00204804 -0.00919887 -0.999956 
-0.00387007 -0.00359994 0.999986 
-0.026862 -0.0206285 0.999426 
-0.029742 -0.0247336 0.999252 
-0.0394455 0.00187322 0.99922 
-0.031204 0.00351088 0.999507 
-0.0521887 0.0580458 0.996949 
-0.0553417 0.0663743 0.996259 
-0.0534493 0.0575288 0.996912 
-0.0482634 0.0358557 0.998191 
-0.04058 0.0157513 0.999052 
-0.0349651 0.00153883 0.999387 
-0.0340671 -5.20431e-05 0.99942 
-0.0228759 -0.00667902 0.999716 
-0.0132837 0.000475963 0.999912 
-0.0087951 0.0168038 0.99982 
-0.00761073 0.0407605 0.99914 
-0.00942411 0.0699788 0.997504 
-0.0190961 0.106098 0.994172 
-0.0337765 0.15573 0.987222 
-0.0569979 0.208719 0.976313 
-0.0927224 0.268013 0.958943 
-0.131461 0.343402 0.929943 
-0.178941 0.407127 0.895672 
-0.235967 0.474964 0.847779 
-0.290283 0.530805 0.79623 
-0.342811 0.565228 0.750332 
-0.402764 0.601798 0.689653 
-0.454485 0.613721 0.645593 
-0.501235 0.581145 0.641119 
-0.522919 0.654607 0.545935 
-0.603844 0.545498 0.581209 
-0.640371 0.545127 0.541074 
-0.672331 0.539043 0.507349 
-0.698588 0.515779 0.495931 
-0.743078 0.458209 0.487729 
-0.700079 0.397196 0.593401 
-0.646476 0.38586 0.658164 
-0.353294 0.418359 0.836755 
-0.0318177 0.872044 0.488392 
-0.0112285 0.998952 -0.0443686 
0.0591062 0.789883 -0.610403 
0.415997 0.376483 -0.827772 
0.612152 0.351593 -0.708274 
0.673208 0.366287 -0.642359 
0.700637 0.423504 -0.574241 
0.703227 0.50377 -0.501685 
0.712877 0.553625 -0.430471 
0.634209 0.508029 -0.582825 
0.616565 0.573309 -0.539597 
0.578045 0.580609 -0.573373 
0.505982 0.64062 -0.57757 
0.453699 0.63064 -0.629643 
0.400876 0.596452 -0.695372 
0.34555 0.568232 -0.746799 
0.288099 0.536497 -0.793202 
0.22285 0.475422 -0.851065 
0.169173 0.387503 -0.906213 
0.124229 0.325675 -0.937285 
0.0852799 0.266681 -0.960005 
0.0585975 0.205348 -0.976933 
0.0342255 0.151431 -0.987875 
0.0173848 0.106729 -0.994136 
0.0103735 0.071773 -0.997367 
0.00804122 0.0437171 -0.999012 
0.0101784 0.0232954 -0.999677 
0.0146213 0.00782506 -0.999863 
0.020885 -0.00231284 -0.999779 
0.025943 -0.00610668 -0.999645 
0.0310854 -0.000627735 -0.999517 
0.0359431 0.0138642 -0.999258 
0.0383522 0.0303715 -0.998803 
0.0398254 0.0427679 -0.998291 
0.0378513 0.0436902 -0.998328 
0.0362416 0.0346462 -0.998742 
0.0304733 0.0210012 -0.999315 
0.029534 -0.0069365 -0.99954 
0.0222129 -0.026818 -0.999394 
0.0137643 -0.0243745 -0.999608 
0.00144545 -0.00615283 -0.99998 
-0.00400605 -0.00283089 0.999988 
-0.0239831 -0.0182936 0.999545 
-0.0395115 -0.0137186 0.999125 
-0.0453499 0.0113066 0.998907 
-0.046036 0.031374 0.998447 
-0.0519198 0.0553885 0.997114 
-0.0523561 0.0671657 0.996367 
-0.0466836 0.0565766 0.997306 
-0.0371222 0.0321015 0.998795 
-0.0252684 0.00717928 0.999655 
-0.0202197 -0.00824851 0.999762 
-0.0194783 -0.0117134 0.999742 
-0.00629695 -0.0109425 0.99992 
0.000490417 0.00046682 1 
0.001704 0.0208549 0.999781 
0.0013847 0.0464496 0.99892 
-0.00282674 0.0824692 0.99659 
-0.0124779 0.122306 0.992414 
-0.0201548 0.166964 0.985757 
-0.0399284 0.214838 0.975833 
-0.0703017 0.274921 0.958893 
-0.101078 0.344018 0.933507 
-0.134988 0.428808 0.893253 
-0.178323 0.47533 0.861547 
-0.215392 0.550965 0.806253 