# vtk DataFile Version 3.0 
Exported using Morpho https://github.com/Morpho-lang/morpho 
ASCII 
DATASET UNSTRUCTURED_GRID 

POINTS 1978 float 
-8.48528 -2.82843 -4.04449e-12 
-8.18682 -2.82843 8.85742e-12 
-7.96774 -2.82843 1.75311e-11 
-7.70556 -2.82843 1.52221e-11 
-7.43563 -2.82843 1.24272e-11 
-7.15625 -2.82843 7.95059e-12 
-6.95479 -2.82843 3.84948e-12 
-6.73834 -2.82843 5.55397e-12 
-6.52886 -2.82843 4.88519e-12 
-6.31925 -2.82843 4.54944e-12 
-6.11954 -2.82843 3.33306e-12 
-5.91837 -2.82843 2.45284e-12 
-5.71102 -2.82843 1.88027e-12 
-5.50373 -2.82843 9.10285e-13 
-5.2806 -2.82843 -4.46169e-13 
-5.06278 -2.82843 -1.18288e-12 
-4.84491 -2.82843 -2.24535e-12 
-4.62972 -2.82843 -3.70474e-12 
-4.41275 -2.82843 -4.94469e-12 
-4.18931 -2.82843 -6.1403e-12 
-3.97758 -2.82843 -7.29477e-12 
-3.77075 -2.82843 -8.70894e-12 
-3.56996 -2.82843 -1.12064e-11 
-3.36002 -2.82843 -1.36872e-11 
-3.1493 -2.82843 -1.64931e-11 
-2.94014 -2.82843 -1.82161e-11 
-2.73791 -2.82843 -2.08877e-11 
-2.53465 -2.82843 -2.61044e-11 
-2.31168 -2.82843 -2.75019e-11 
-2.10902 -2.82843 -2.66458e-11 
-1.89702 -2.82843 -2.83815e-11 
-1.68581 -2.82843 -2.80346e-11 
-1.46752 -2.82843 -2.27975e-11 
-1.2641 -2.82843 -1.42956e-11 
-1.09767 -2.82843 -1.85193e-11 
-0.848471 -2.82843 -1.04204e-11 
-0.662544 -2.82843 -1.20567e-11 
-0.428299 -2.82843 8.89047e-12 
-0.219739 -2.82843 -2.42225e-11 
0.00565704 -2.82843 9.69969e-12 
0.234514 -2.82843 4.31498e-12 
0.461882 -2.82843 -1.29674e-11 
0.668717 -2.82843 2.19326e-11 
0.889131 -2.82843 3.51494e-11 
1.0508 -2.82843 8.30289e-12 
1.25327 -2.82843 2.09795e-11 
1.46173 -2.82843 2.93455e-11 
1.67124 -2.82843 2.43018e-11 
1.87919 -2.82843 2.86268e-11 
2.09292 -2.82843 3.37974e-11 
2.32087 -2.82843 2.87969e-11 
2.52143 -2.82843 2.46381e-11 
2.73534 -2.82843 2.45854e-11 
2.96618 -2.82843 1.99186e-11 
3.16171 -2.82843 1.44551e-11 
3.36044 -2.82843 1.3781e-11 
3.58248 -2.82843 1.11136e-11 
3.78474 -2.82843 8.97894e-12 
3.99789 -2.82843 7.40457e-12 
4.21762 -2.82843 5.93043e-12 
4.41965 -2.82843 4.61808e-12 
4.63811 -2.82843 3.18302e-12 
4.83914 -2.82843 2.46961e-12 
5.06113 -2.82843 1.18608e-12 
5.27 -2.82843 3.55261e-13 
5.49263 -2.82843 -7.23435e-13 
5.70746 -2.82843 -2.18566e-12 
5.92469 -2.82843 -2.96787e-12 
6.15202 -2.82843 -4.28654e-12 
6.35651 -2.82843 -5.21897e-12 
6.59181 -2.82843 -5.36101e-12 
6.80335 -2.82843 -4.87732e-12 
7.00926 -2.82843 -6.23601e-12 
7.27091 -2.82843 -7.59931e-12 
7.50643 -2.82843 -9.46796e-12 
7.74162 -2.82843 -1.4455e-11 
8.00784 -2.82843 -1.82807e-11 
8.19847 -2.82843 -6.44573e-12 
8.48528 -2.82843 2.64047e-12 
-8.48528 -2.53705 6.79651e-12 
-8.28802 -2.63351 -2.68277e-12 
-8.03912 -2.56473 -3.73379e-12 
-7.81264 -2.61779 -4.89878e-12 
-7.53582 -2.6294 -4.50413e-12 
-7.24445 -2.63716 -3.35688e-12 
-6.98739 -2.5646 -2.06466e-12 
-6.78555 -2.58944 -1.88624e-12 
-6.56103 -2.58555 -1.63082e-12 
-6.34453 -2.58851 -1.2699e-12 
-6.12672 -2.57711 -9.96611e-13 
-5.91888 -2.57352 -6.72047e-13 
-5.704 -2.58361 -5.628e-13 
-5.48289 -2.59432 -1.97811e-13 
-5.2615 -2.59084 9.73695e-14 
-5.04009 -2.59145 4.56044e-13 
-4.82198 -2.58967 8.63085e-13 
-4.6025 -2.5926 1.29717e-12 
-4.37709 -2.60181 1.86489e-12 
-4.16084 -2.5912 2.38006e-12 
-3.95131 -2.58729 3.03701e-12 
-3.74685 -2.58152 3.75058e-12 
-3.53574 -2.59335 4.67345e-12 
-3.32322 -2.59576 5.76787e-12 
-3.11051 -2.5952 7.08804e-12 
-2.90417 -2.58692 8.19884e-12 
-2.69964 -2.58776 9.43568e-12 
-2.47864 -2.60842 1.15718e-11 
-2.26636 -2.58554 1.22557e-11 
-2.05492 -2.59497 1.37453e-11 
-1.83451 -2.59147 1.32312e-11 
-1.61695 -2.59778 1.46497e-11 
-1.40321 -2.57853 1.63971e-11 
-1.2237 -2.4969 2.27472e-12 
-1.0102 -2.61221 1.01344e-11 
-0.819385 -2.50815 -6.03193e-13 
-0.602307 -2.5687 2.92311e-12 
-0.387146 -2.52399 -3.39771e-13 
-0.163442 -2.54334 -1.10915e-11 
0.0650851 -2.53675 -8.85084e-12 
0.320144 -2.58863 1.19725e-11 
0.48595 -2.32528 -4.43164e-12 
0.562461 -2.56031 1.04602e-11 
0.802319 -2.60379 -4.97862e-12 
1.01984 -2.49795 -3.48878e-12 
1.20576 -2.58236 -1.10356e-11 
1.43537 -2.60233 -1.6465e-11 
1.67052 -2.57646 -1.01103e-11 
1.89972 -2.60094 -1.5811e-11 
2.13939 -2.61559 -1.50406e-11 
2.35814 -2.58679 -1.22602e-11 
2.57582 -2.60183 -1.11251e-11 
2.80435 -2.61297 -9.22336e-12 
3.0116 -2.57787 -7.88015e-12 
3.21526 -2.5803 -6.26919e-12 
3.43307 -2.60526 -5.43683e-12 
3.64431 -2.5829 -4.18787e-12 
3.85664 -2.59408 -3.3926e-12 
4.0774 -2.60054 -2.74764e-12 
4.28824 -2.57952 -2.01335e-12 
4.5029 -2.59713 -1.57522e-12 
4.7128 -2.57552 -1.0391e-12 
4.92804 -2.59788 -6.73e-13 
5.14447 -2.58267 -2.79102e-13 
5.3636 -2.59762 7.11028e-14 
5.58431 -2.58863 3.84899e-13 
5.80318 -2.59052 6.8934e-13 
6.02965 -2.60058 1.00299e-12 
6.24708 -2.5737 1.16209e-12 
6.46851 -2.60615 1.5606e-12 
6.69444 -2.57793 1.78175e-12 
6.90466 -2.56949 2.24632e-12 
7.13338 -2.61894 2.832e-12 
7.38378 -2.59495 3.52505e-12 
7.61541 -2.5947 4.09795e-12 
7.86712 -2.62036 4.63566e-12 
8.07915 -2.5382 3.67708e-12 
8.3065 -2.63183 2.12445e-12 
8.48528 -2.51576 -4.53027e-12 
-8.48528 -2.31409 1.29209e-12 
-8.22465 -2.38007 -6.01416e-13 
-7.97529 -2.32625 -1.98243e-12 
-7.72457 -2.42424 -2.87018e-12 
-7.57644 -2.25879 -2.76827e-12 
-7.42052 -2.44973 -3.19564e-12 
-7.15917 -2.40517 -2.72724e-12 
-6.93163 -2.30204 -1.7626e-12 
-6.71141 -2.36073 -1.48523e-12 
-6.47946 -2.35014 -1.12245e-12 
-6.2539 -2.35336 -8.61369e-13 
-6.03175 -2.32998 -6.2812e-13 
-5.81119 -2.34068 -4.03383e-13 
-5.58944 -2.35476 -2.42662e-13 
-5.36837 -2.3585 1.01322e-15 
-5.1425 -2.35791 2.47322e-13 
-4.92034 -2.35386 5.2649e-13 
-4.69902 -2.35782 8.35712e-13 
-4.47308 -2.37198 1.24023e-12 
-4.25451 -2.3627 1.6467e-12 
-4.03773 -2.34972 2.06789e-12 
-3.82874 -2.34159 2.58617e-12 
-3.6138 -2.35572 3.2637e-12 
-3.40001 -2.3636 4.07418e-12 
-3.18449 -2.36665 4.9547e-12 
-2.97006 -2.35371 5.77887e-12 
-2.75718 -2.34745 6.72961e-12 
-2.54084 -2.38105 7.94495e-12 
-2.32257 -2.36048 9.062e-12 
-2.09488 -2.35482 9.81136e-12 
-1.87872 -2.36791 9.87046e-12 
-1.64148 -2.35861 8.33409e-12 
-1.4381 -2.31273 4.82622e-12 
-1.25006 -2.2049 2.57323e-12 
-1.0456 -2.33701 -5.13196e-13 
-0.823524 -2.23881 -3.5735e-12 
-0.605386 -2.28652 -2.18258e-12 
-0.387212 -2.24085 -8.36022e-12 
-0.158729 -2.25677 -8.27677e-12 
0.0381501 -2.20069 3.01504e-11 
0.249608 -2.33268 6.5998e-12 
0.418714 -2.05286 5.46401e-12 
0.677118 -2.14132 3.37322e-12 
0.765162 -2.36079 5.60665e-12 
0.997676 -2.25215 -6.15645e-12 
1.24164 -2.30856 -5.22076e-12 
1.44305 -2.37439 -6.45304e-12 
1.64783 -2.32652 -1.03252e-11 
1.86629 -2.36952 -1.03964e-11 
2.08945 -2.39972 -1.10148e-11 
2.31242 -2.3628 -8.76209e-12 
2.53957 -2.36685 -7.51901e-12 
2.7507 -2.38933 -7.05963e-12 
2.96223 -2.34431 -5.58605e-12 
3.17207 -2.33626 -4.41325e-12 
3.38326 -2.36964 -3.9089e-12 
3.59068 -2.35125 -3.26204e-12 
3.80688 -2.35468 -2.61173e-12 
4.01946 -2.3706 -2.11758e-12 
4.23173 -2.34546 -1.5994e-12 
4.45015 -2.35617 -1.19684e-12 
4.65658 -2.33871 -8.3088e-13 
4.8759 -2.35416 -5.43898e-13 
5.08512 -2.34922 -2.73953e-13 
5.30794 -2.3582 -4.74494e-14 
5.52257 -2.35655 1.66668e-13 
5.74413 -2.35245 3.67376e-13 
5.96629 -2.36812 5.86961e-13 
6.18369 -2.3412 7.6162e-13 
6.41454 -2.36017 9.91952e-13 
6.62698 -2.35333 1.27543e-12 
6.85406 -2.3165 1.57841e-12 
7.07391 -2.36706 2.11972e-12 
7.29587 -2.38745 2.75793e-12 
7.54617 -2.35372 2.85463e-12 
7.78126 -2.39245 2.58871e-12 
7.99194 -2.31051 1.89412e-12 
8.25045 -2.3603 3.82589e-13 
8.48528 -2.2807 6.11301e-14 
-8.48528 -2.06606 2.67372e-12 
-8.25924 -2.15548 3.27956e-13 
-8.0841 -2.06053 -2.16725e-13 
-7.83002 -2.16002 -4.0196e-13 
-7.54704 -2.05364 -1.00697e-12 
-7.30826 -2.22675 -2.07504e-12 
-7.08524 -2.12759 -1.17912e-12 
-6.80223 -2.09445 -5.74731e-13 
-6.59415 -2.1273 -6.18263e-13 
-6.36041 -2.12214 -4.36258e-13 
-6.14383 -2.1089 -2.98746e-13 
-5.91459 -2.10068 -1.05118e-13 
-5.69665 -2.11359 -8.20364e-14 
-5.47944 -2.12049 1.3892e-14 
-5.25999 -2.12758 1.00431e-13 
-5.04007 -2.12295 1.66856e-13 
-4.81997 -2.12192 2.67149e-13 
-4.59745 -2.13732 4.35589e-13 
-4.38443 -2.1349 6.02645e-13 
-4.17189 -2.12434 7.47507e-13 
-3.96316 -2.1061 8.20476e-13 
-3.74873 -2.11512 1.16056e-12 
-3.53807 -2.12624 1.46973e-12 
-3.32711 -2.13405 1.88291e-12 
-3.11829 -2.13243 2.13401e-12 
-2.90564 -2.11857 2.33179e-12 
-2.68417 -2.12614 3.22081e-12 
-2.47691 -2.14519 3.60815e-12 
-2.24812 -2.13469 4.53605e-12 
-2.02575 -2.11675 5.14505e-12 
-1.79848 -2.14848 5.82954e-12 
-1.58358 -2.09205 6.14744e-12 
-1.39466 -1.9964 5.24408e-13 
-1.16705 -1.91675 -1.77073e-12 
-1.01088 -2.07527 -4.38038e-12 
-0.743058 -1.983 2.1435e-12 
-0.535139 -1.99037 -1.44143e-12 
-0.286102 -1.97771 -9.77472e-13 
-0.0751319 -1.91231 -2.6532e-11 
0.132512 -1.7529 1.50992e-11 
0.208302 -2.01487 -2.72068e-11 
0.212637 -1.44852 -2.33973e-11 
0.370045 -1.72102 1.38492e-11 
0.603559 -1.8771 3.63874e-12 
0.886613 -2.02691 6.41635e-12 
1.18108 -2.05467 -4.03543e-13 
1.42309 -2.10295 -8.41677e-12 
1.65312 -2.09025 -2.11439e-12 
1.87938 -2.13032 -2.60299e-12 
2.09566 -2.17056 -4.5706e-12 
2.33448 -2.14459 -3.81718e-12 
2.55619 -2.136 -4.40395e-12 
2.76904 -2.15127 -2.94481e-12 
2.98435 -2.10769 -2.01208e-12 
3.20467 -2.10969 -1.8869e-12 
3.40934 -2.12822 -1.77213e-12 
3.62735 -2.12213 -1.30335e-12 
3.84268 -2.12326 -1.17718e-12 
4.05067 -2.13165 -9.1145e-13 
4.27361 -2.11811 -6.75241e-13 
4.47835 -2.1095 -4.52322e-13 
4.7 -2.11131 -3.26154e-13 
4.90825 -2.11021 -1.96138e-13 
5.13016 -2.12213 -1.22534e-13 
5.34338 -2.11865 -5.09161e-14 
5.56153 -2.1231 1.98074e-14 
5.78558 -2.1227 1.11966e-13 
5.99839 -2.12595 2.32294e-13 
6.23383 -2.11954 3.26523e-13 
6.44451 -2.1116 4.36495e-13 
6.66539 -2.11593 6.49276e-13 
6.89846 -2.08212 6.50125e-13 
7.11441 -2.1292 1.00199e-12 
7.34685 -2.16408 1.66981e-12 
7.54338 -2.07967 9.96985e-13 
7.74459 -2.15017 1.13696e-12 
7.96906 -2.07434 -2.96642e-13 
8.2055 -2.13898 -7.03965e-14 
8.48528 -2.0838 -3.68595e-12 
-8.48528 -1.7168 1.06184e-12 
-8.32917 -1.87496 1.14204e-12 
-7.9099 -1.90745 1.4708e-12 
-7.69334 -1.91297 3.16418e-13 
[...]
POINT_DATA 1978 
VECTORS vectors float
0.00115971 -0.00101455 0.999999 
-2.11458e-05 -0.0574291 0.99835 
0.000125835 -0.0603237 0.998179 
0.00010575 -0.0464337 0.998921 
-0.000151835 -0.033855 0.999427 
0.000231399 -0.0242855 0.999705 
0.000574686 -0.0198275 0.999803 
0.000497747 -0.0172464 0.999851 
0.000515995 -0.0156308 0.999878 
0.000609198 -0.0138306 0.999904 
0.000659945 -0.0116643 0.999932 
0.000584696 -0.00899687 0.999959 
0.000565776 -0.00594632 0.999982 
0.000463963 -0.00283535 0.999996 
0.000385995 0.000619101 1 
0.000435242 0.00413649 0.999991 
0.000471846 0.00783101 0.999969 
0.000464727 0.0117528 0.999931 
0.000393925 0.0161263 0.99987 
0.000415178 0.0213992 0.999771 
0.000538207 0.0275355 0.999621 
0.000611116 0.0349928 0.999387 
0.00056762 0.0439584 0.999033 
0.000474096 0.0555944 0.998453 
0.000472655 0.070119 0.997539 
0.000549547 0.088084 0.996113 
0.000559936 0.109751 0.993959 
0.000398086 0.136633 0.990622 
0.000381312 0.173043 0.984914 
0.000455105 0.213688 0.976902 
0.000355167 0.265853 0.964013 
0.000238113 0.330404 0.94384 
0.000289612 0.409749 0.912198 
0.000378306 0.493938 0.869497 
0.000195398 0.575779 0.817605 
1.86549e-05 0.70497 0.709237 
5.50106e-05 0.802967 0.596023 
-2.25763e-06 0.906115 0.423031 
-3.70342e-05 0.973297 0.229549 
3.27417e-05 0.99999 0.00446949 
5.01427e-05 0.969908 -0.24347 
-7.53616e-05 0.897072 -0.441885 
1.9878e-06 0.805226 -0.592968 
-0.00011382 0.682748 -0.730654 
-0.000340096 0.59964 -0.80027 
-0.000275145 0.504802 -0.863235 
-0.000218761 0.416171 -0.909286 
-0.000308939 0.334763 -0.942302 
-0.000389223 0.269546 -0.962987 
-0.000279496 0.216919 -0.97619 
-0.000405697 0.171326 -0.985214 
-0.000515391 0.138313 -0.990388 
-0.00028817 0.110525 -0.993873 
-0.000441338 0.0860637 -0.99629 
-0.000694967 0.0695264 -0.99758 
-0.000496852 0.0557428 -0.998445 
-0.000456229 0.0434792 -0.999054 
-0.000545149 0.0343851 -0.999409 
-0.000440229 0.0268631 -0.999639 
-0.000495021 0.0206781 -0.999786 
-0.000535201 0.0159713 -0.999872 
-0.000532511 0.0116823 -0.999932 
-0.000507038 0.00806201 -0.999967 
-0.000459326 0.0042999 -0.999991 
-0.000453295 0.000780238 -1 
-0.000437124 -0.00289611 -0.999996 
-0.000451842 -0.0063651 -0.99998 
-0.000391494 -0.00959989 -0.999954 
-0.000480546 -0.0125819 -0.999921 
-0.0003883 -0.014749 -0.999891 
-0.000376525 -0.0163309 -0.999867 
-0.000627276 -0.0177326 -0.999843 
-0.000284419 -0.0201172 -0.999798 
-9.57887e-05 -0.0257194 -0.999669 
-0.00030462 -0.034847 -0.999393 
-0.000166183 -0.0474699 -0.998873 
-0.000244178 -0.0618973 -0.998082 
-0.000170364 -0.0563832 -0.998409 
-0.00121611 -0.000763758 -0.999999 
0.000986929 0.000612265 0.999999 
0.0155124 -0.0402907 0.999068 
0.0264738 -0.0547523 0.998149 
0.027392 -0.0516504 0.998289 
0.0281562 -0.0393646 0.998828 
0.027747 -0.0279573 0.999224 
0.0343399 -0.0214581 0.99918 
0.0333171 -0.0179165 0.999284 
0.0343172 -0.0152945 0.999294 
0.0339795 -0.0131679 0.999336 
0.0346823 -0.0107863 0.99934 
0.0343995 -0.00826667 0.999374 
0.0344398 -0.00551373 0.999392 
0.0328627 -0.00238819 0.999457 
0.0334859 0.000934251 0.999439 
0.0334759 0.00444699 0.99943 
0.0336615 0.00812406 0.9994 
0.0332813 0.0121817 0.999372 
0.0325012 0.0169169 0.999329 
0.0332903 0.0223354 0.999196 
0.033339 0.0287377 0.999031 
0.0332945 0.0364472 0.998781 
0.0316645 0.0463134 0.998425 
0.0307954 0.058758 0.997797 
0.030011 0.0742898 0.996785 
0.0293633 0.0930788 0.995226 
0.0277642 0.116176 0.992841 
0.0247463 0.146704 0.988871 
0.0240602 0.183203 0.982781 
0.0211707 0.227804 0.973477 
0.0183848 0.285167 0.958301 
0.0152036 0.354069 0.935096 
0.0124698 0.432819 0.901394 
0.0101995 0.513873 0.857806 
0.00561315 0.620335 0.784317 
0.00375033 0.722576 0.691281 
0.00135523 0.833832 0.552017 
-0.00114816 0.922775 0.385338 
-0.0026765 0.981237 0.192789 
-0.00361513 0.999533 -0.0303357 
-0.00294682 0.960216 -0.279243 
-0.00813238 0.893068 -0.449849 
-0.0052566 0.860397 -0.509597 
-0.00637208 0.730122 -0.683287 
-0.0100939 0.613171 -0.789886 
-0.0109744 0.521085 -0.853434 
-0.0136147 0.418302 -0.908206 
-0.0168059 0.328165 -0.944471 
-0.0196428 0.260901 -0.965166 
-0.021728 0.205185 -0.978482 
-0.0254013 0.164335 -0.986078 
-0.0261748 0.131014 -0.991035 
-0.0267929 0.102722 -0.994349 
-0.0306963 0.0824362 -0.996123 
-0.0313259 0.0661217 -0.99732 
-0.0303084 0.0518762 -0.998193 
-0.0327104 0.0409153 -0.998627 
-0.0323314 0.0319849 -0.998965 
-0.0323478 0.0246155 -0.999174 
-0.0342537 0.0189578 -0.999233 
-0.0330513 0.0141843 -0.999353 
-0.0347644 0.010125 -0.999344 
-0.0329582 0.00636183 -0.999436 
-0.0341792 0.00273415 -0.999412 
-0.0329601 -0.000788577 -0.999456 
-0.0337162 -0.00418954 -0.999423 
-0.0335744 -0.00732798 -0.999409 
-0.0329249 -0.0102816 -0.999405 
-0.0350776 -0.0125869 -0.999305 
-0.0324564 -0.0147862 -0.999364 
-0.034788 -0.0166538 -0.999256 
-0.0350362 -0.01909 -0.999204 
-0.0298335 -0.0231177 -0.999288 
-0.0313259 -0.030885 -0.999032 
-0.0300549 -0.0411705 -0.9987 
-0.0265902 -0.0530817 -0.998236 
-0.0273882 -0.0527744 -0.998231 
-0.0146548 -0.0377358 -0.99918 
-0.00065686 0.000953597 -0.999999 
0.00152726 0.000273499 0.999999 
0.0231812 -0.0423172 0.998835 
0.0348242 -0.0542947 0.997918 
0.0382899 -0.0485449 0.998087 
0.0417571 -0.0421284 0.998239 
0.0395271 -0.0341884 0.998633 
0.0426724 -0.0254515 0.998765 
0.0442956 -0.0200831 0.998817 
0.0444598 -0.0164402 0.998876 
0.0449669 -0.0135174 0.998897 
0.0448113 -0.0111512 0.998933 
0.0447162 -0.00878831 0.998961 
0.0444355 -0.00644688 0.998991 
0.0441615 -0.00374819 0.999017 
0.0440216 -0.000805034 0.99903 
0.0440397 0.00252358 0.999027 
0.0440421 0.00610219 0.999011 
0.0439371 0.0100534 0.998984 
0.0436573 0.0145944 0.99894 
0.0435195 0.0197497 0.998857 
0.0431526 0.0259496 0.998731 
0.0425622 0.0332904 0.998539 
0.0416327 0.0426858 0.998221 
0.0405408 0.0543452 0.997699 
0.0392206 0.0690649 0.996841 
0.0376724 0.0873798 0.995462 
0.0357607 0.109937 0.993295 
0.0333304 0.138368 0.98982 
0.0308999 0.173601 0.984331 
0.0276289 0.219354 0.975254 
0.0239366 0.273876 0.961467 
0.0192524 0.34733 0.937545 
0.0148256 0.42732 0.903979 
0.00987258 0.510959 0.859549 
0.00709975 0.60227 0.798261 
0.00294711 0.717014 0.697052 
4.11413e-05 0.829955 0.557831 
-0.00328415 0.921412 0.388574 
-0.00566242 0.984396 0.175874 
-0.0070977 0.999467 -0.0318768 
-0.00742334 0.973704 -0.227698 
-0.00786249 0.902015 -0.431634 
-0.00880841 0.788586 -0.614862 
-0.00920602 0.74662 -0.665187 
-0.0114177 0.619534 -0.784887 
-0.0149484 0.504907 -0.863044 
-0.0180199 0.415741 -0.909304 
-0.0216139 0.33965 -0.940303 
-0.025029 0.27398 -0.96141 
-0.0284536 0.218981 -0.975314 
-0.0315168 0.175265 -0.984017 
-0.0339188 0.13823 -0.989819 
-0.0357132 0.110231 -0.993264 
-0.0380024 0.0887559 -0.995328 
-0.0392168 0.0706677 -0.996729 
-0.0402677 0.0556971 -0.997635 
-0.0415848 0.044046 -0.998164 
-0.0423975 0.0342833 -0.998512 
-0.0429164 0.0265658 -0.998725 
-0.0436918 0.0204023 -0.998837 
-0.0438287 0.0151757 -0.998924 
-0.0442183 0.0109569 -0.998962 
-0.0440981 0.00698593 -0.999003 
-0.0442484 0.00346185 -0.999015 
-0.0441007 -4.96963e-05 -0.999027 
-0.0442142 -0.00319638 -0.999017 
-0.0443174 -0.00611633 -0.998999 
-0.0442948 -0.00874886 -0.99898 
-0.0448781 -0.0109651 -0.998932 
-0.0447302 -0.0133142 -0.99891 
-0.0448676 -0.0154575 -0.998873 
-0.0447169 -0.018409 -0.99883 
-0.0438565 -0.0226532 -0.998781 
-0.0423836 -0.0286654 -0.99869 
-0.040915 -0.0389453 -0.998403 
-0.0383401 -0.0496435 -0.998031 
-0.0355611 -0.0539444 -0.997911 
-0.0229495 -0.0404052 -0.99892 
-0.00202943 -5.17228e-05 -0.999998 
0.000685064 0.00127491 0.999999 
0.0206246 -0.0408293 0.998953 
0.0279776 -0.0540044 0.998149 
0.0361223 -0.0536794 0.997905 
0.0367827 -0.0419067 0.998444 
0.0423646 -0.0306686 0.998631 
0.0403449 -0.0237772 0.998903 
0.0397851 -0.0176601 0.999052 
0.0415082 -0.0143675 0.999035 
0.0412378 -0.0115029 0.999083 
0.0403759 -0.00929353 0.999141 
0.0394227 -0.0071647 0.999197 
0.0399297 -0.00496725 0.99919 
0.0399103 -0.00244388 0.9992 
0.040159 0.000512398 0.999193 
0.0398556 0.00390335 0.999198 
0.0397848 0.00768913 0.999179 
0.0401589 0.0119635 0.999122 
0.0398071 0.0166603 0.999068 
0.038962 0.0222097 0.998994 
0.037613 0.0288424 0.998876 
0.0372602 0.0371862 0.998613 
0.0366639 0.0473747 0.998204 
0.0357466 0.0599993 0.997558 
0.0342398 0.0755509 0.996554 
0.032144 0.095174 0.994942 
0.0305943 0.120267 0.99227 
0.0288857 0.149188 0.988387 
0.0260899 0.188546 0.981718 
0.0226982 0.236259 0.971425 
0.01973 0.296201 0.954922 
0.0149017 0.368972 0.929321 
0.0094687 0.447161 0.894403 
0.00432576 0.551962 0.833858 
0.00367482 0.628936 0.777448 
-0.000534173 0.763685 0.645589 
-0.00309104 0.861287 0.50811 
-0.00568429 0.959667 0.28108 
-0.00667208 0.997485 0.0705562 
-0.00575264 0.990185 -0.139646 
-0.00709311 0.97016 -0.24236 
-0.00221837 0.973848 -0.227189 
-0.00483001 0.926561 -0.376114 
-0.0061499 0.829482 -0.5585 
-0.00897119 0.688008 -0.725648 
-0.0117696 0.531117 -0.847217 
-0.0159485 0.423198 -0.905897 
-0.018246 0.343441 -0.938997 
-0.0217477 0.275287 -0.961116 
-0.0256171 0.219768 -0.975216 
-0.028177 0.172402 -0.984624 
-0.0305332 0.136495 -0.99017 
-0.032482 0.109607 -0.993444 
-0.0327565 0.0875543 -0.995621 
-0.0343099 0.0686774 -0.997049 
-0.0360649 0.0546544 -0.997854 
-0.036923 0.0426335 -0.998408 
-0.0379945 0.0330867 -0.99873 
-0.0388817 0.0257158 -0.998913 
-0.0390505 0.0192997 -0.999051 
-0.0389919 0.0144481 -0.999135 
-0.0393482 0.0099248 -0.999176 
-0.0393404 0.00615577 -0.999207 
-0.0399009 0.00247638 -0.999201 
-0.0397971 -0.000774232 -0.999207 
-0.0400737 -0.00372443 -0.99919 
-0.040268 -0.00631595 -0.999169 
-0.0405662 -0.00846274 -0.999141 
-0.0407356 -0.0106938 -0.999113 
-0.0406279 -0.0127965 -0.999092 
-0.0409361 -0.0154718 -0.999042 
-0.0396268 -0.0194814 -0.999025 
-0.0403664 -0.0243988 -0.998887 
-0.0406633 -0.0316278 -0.998672 
-0.0365224 -0.0400445 -0.99853 
-0.0369518 -0.0489055 -0.99812 
-0.031517 -0.0555751 -0.997957 
-0.0240233 -0.0445911 -0.998716 
-0.00143693 0.000113215 -0.999999 
0.000295728 0.0012098 0.999999 
0.0115093 -0.0333125 0.999379 
0.0270656 -0.0572023 0.997996 
0.0301446 -0.0495288 0.998318 
0.0268967 -0.038916 0.99888 
0.0352836 -0.0324594 0.99885 
0.0302217 -0.0272331 0.999172 
0.0327061 -0.0209 0.999246 
0.0305548 -0.0156528 0.999411 
0.0330662 -0.0125571 0.999374 
0.0315036 -0.0100543 0.999453 
0.0308582 -0.00806242 0.999491 
0.0302951 -0.00618596 0.999522 
0.0306757 -0.00415947 0.999521 
0.0307703 -0.00158085 0.999525 
0.0309279 0.00149417 0.999521 
0.0307726 0.00509996 0.999513 
0.0310107 0.00921627 0.999477 
0.0307616 0.0135989 0.999434 
0.0301943 0.018628 0.99937 
0.0290323 0.0245536 0.999277 
0.0282872 0.0322024 0.999081 
0.0278479 0.0413552 0.998756 
0.0272599 0.0525924 0.998244 
0.0262283 0.0662998 0.997455 
0.024878 0.083249 0.996218 
0.0234266 0.105772 0.994114 
0.0216167 0.1325 0.990947 
0.0206824 0.165304 0.986026 
0.0178955 0.207561 0.978058 
0.0151448 0.263536 0.964531 
0.012225 0.325162 0.945579 
0.00783432 0.393521 0.919282 
0.00394014 0.491176 0.871051 
-4.31396e-05 0.68946 0.724324 
-0.00232732 0.801008 0.598649 
-0.00356057 0.909142 0.41647 
-0.000275604 0.959851 0.28051 
-0.00366435 0.976255 0.216594 
-0.00300857 0.999784 0.0205662 
0.000976217 0.988144 -0.153525 
-0.00195647 0.932819 -0.36034 
-0.00305302 0.860005 -0.510277 
-0.00557526 0.74296 -0.669312 
-0.00786175 0.610425 -0.792035 
-0.00637922 0.549065 -0.835755 
-0.0104218 0.462849 -0.886376 
-0.012057 0.381446 -0.924312 
-0.0145504 0.300023 -0.953821 
-0.0179263 0.237897 -0.971125 
-0.0207705 0.190368 -0.981493 
-0.0223789 0.148938 -0.988593 
-0.0233367 0.118611 -0.992666 
-0.0242348 0.0965207 -0.995036 
-0.0254328 0.0754659 -0.996824 
-0.0263392 0.0591884 -0.997899 
-0.0277513 0.0469049 -0.998514 
-0.0285991 0.0363181 -0.998931 
-0.0291876 0.0280432 -0.99918 
-0.0301582 0.0214697 -0.999315 
-0.0292865 0.0158767 -0.999445 
-0.0302451 0.0112443 -0.999479 
-0.0297359 0.00708302 -0.999533 
-0.0307135 0.0033716 -0.999523 
-0.0304006 -2.61297e-05 -0.999538 
-0.0307221 -0.00297216 -0.999524 
-0.0311599 -0.0054315 -0.9995 
-0.0309261 -0.00746167 -0.999494 
-0.0319952 -0.00933431 -0.999444 
-0.0308312 -0.0113637 -0.99946 
-0.0315431 -0.013962 -0.999405 
-0.0314868 -0.017543 -0.99935 
-0.0307405 -0.0233383 -0.999255 
-0.0322814 -0.0300112 -0.999028 
-0.0288069 -0.0402978 -0.998772 
-0.0280554 -0.051771 -0.998265 
-0.0228963 -0.0553522 -0.998204 
-0.0161711 -0.0402298 -0.99906 
-0.001025 0.000406883 -0.999999 
0.000574637 0.000304383 1 
0.0110667 -0.0430104 0.999013 
0.0191496 -0.0523589 0.998445 
0.0199125 -0.0582705 0.998102 
0.0220059 -0.049734 0.99852 
0.0227257 -0.0319685 0.99923 
0.0233762 -0.0230036 0.999462 
0.023613 -0.0176796 0.999565 
0.0232956 -0.0127374 0.999647 
0.0233507 -0.0103645 0.999674 
0.0227502 -0.00836672 0.999706 
0.0222441 -0.00679918 0.999729 
0.0220303 -0.005082 0.999744 
0.0223898 -0.00286765 0.999745 
0.022387 1.60561e-05 0.999749 
0.0225596 0.00338298 0.99974 
0.0227928 0.00735088 0.999713 
0.0222719 0.0116749 0.999684 
0.0218443 0.0164544 0.999626 
0.0209918 0.0219867 0.999538 
0.0206475 0.028966 0.999367 
0.0199079 0.037744 0.999089 
0.0194121 0.0482457 0.998647 
0.0185902 0.0610908 0.997959 
0.0175514 0.076796 0.996892 
0.0169192 0.0966459 0.995175 
0.0152812 0.121999 0.992413 
0.0142355 0.154159 0.987943 
0.0128123 0.191148 0.981478 
0.0108972 0.243523 0.969834 
0.00779754 0.30826 0.95127 
0.00445816 0.394593 0.918845 
0.00127239 0.506428 0.862281 
-0.00109003 0.630158 0.776466 
0.00043371 0.618289 0.785951 
-0.00222219 0.737603 0.675231 
-0.00210955 0.885458 0.464715 
0.000415356 0.881644 0.471914 
0.000815372 0.999218 0.0395313 
0.00240999 0.993442 0.114311 
0.00591799 0.999567 -0.028822 
0.00450328 0.955776 -0.294062 
3.95238e-05 0.896904 -0.442226 
-0.00252098 0.785082 -0.619387 
-0.00401785 0.684573 -0.728933 
-0.00338762 0.576926 -0.816789 
-0.00618744 0.450918 -0.892544 
-0.00858886 0.357988 -0.933687 
-0.0104672 0.278994 -0.960236 
-0.0127251 0.222228 -0.974912 
-0.0151471 0.17648 -0.984188 
-0.015671 0.139974 -0.990031 
-0.0155536 0.113668 -0.993397 
-0.0175409 0.0903222 -0.995758 
-0.0181722 0.0712337 -0.997294 
-0.0185011 0.0564468 -0.998234 
-0.020033 0.0443197 -0.998817 
-0.0205255 0.0344381 -0.999196 
-0.0209586 0.0265137 -0.999429 
-0.0217096 0.0201814 -0.999561 
-0.0212331 0.014561 -0.999669 
-0.0218947 0.0100633 -0.99971 
-0.0217747 0.00580294 -0.999746 
-0.0222561 0.00222351 -0.99975 
-0.0220511 -0.00109893 -0.999756 
-0.0223776 -0.00384895 -0.999742 
-0.0226607 -0.00598393 -0.999725 
-0.0225345 -0.00770345 -0.999716 
-0.023199 -0.00932923 -0.999687 
-0.0223253 -0.0114107 -0.999686 
-0.0228933 -0.0143109 -0.999635 
-0.0236228 -0.0188532 -0.999543 
-0.022603 -0.0252481 -0.999426 
-0.0239223 -0.0326607 -0.99918 
-0.0207428 -0.0428143 -0.998868 
-0.0213149 -0.0527068 -0.998383 
-0.0173269 -0.0574381 -0.998199 
-0.0124096 -0.0427932 -0.999007 
-0.000821224 0.000143771 -1 
0.000567017 -4.62402e-05 1 
0.00802237 -0.0419577 0.999087 
0.0145081 -0.0576287 0.998233 
0.0153429 -0.0534205 0.998454 
0.0184702 -0.0417878 0.998956 
0.0157623 -0.0323713 0.999352 
0.0173729 -0.0247686 0.999542 
0.0161139 -0.0179539 0.999709 
0.0174489 -0.0138198 0.999752 
0.01543 -0.0104594 0.999826 
0.0162917 -0.0087355 0.999829 
0.0156223 -0.00733204 0.999851 
0.0154904 -0.0059955 0.999862 
0.0154625 -0.00411506 0.999872 
0.0157167 -0.00157055 0.999875 
0.015736 0.00163263 0.999875 
0.0161396 0.00536361 0.999855 
0.0158428 0.00946312 0.99983 
0.0152048 0.0141009 0.999785 
0.0145952 0.0192483 0.999708 
0.014357 0.0256855 0.999567 
0.014008 0.033565 0.999338 
0.0132732 0.043512 0.998965 
0.0126508 0.0553854 0.998385 
0.0117999 0.0700526 0.997474 
0.0112415 0.0885737 0.996006 
0.0104998 0.110958 0.99377 
0.00960014 0.142005 0.989819 
0.00816825 0.17872 0.983866 
0.0074431 0.225089 0.97431 
0.0052343 0.285736 0.958294 
0.00283215 0.365671 0.93074 
0.000375878 0.475938 0.879479 
-0.000916857 0.589326 0.807894 
-0.00147739 0.795675 0.605722 
0.00180954 0.819586 0.572953 
0.00432343 0.898491 0.438971 
0.00415945 0.964632 0.263568 
0.00192342 0.945934 0.324353 
0.00456421 0.998718 0.0504087 
0.00590862 0.992396 0.122945 
0.00619445 0.982513 -0.186091 
0.00428816 0.862374 -0.506253 
0.00295696 0.724546 -0.68922 
0.00114101 0.791314 -0.611409 
-0.000613999 0.65747 -0.75348 
-0.00325778 0.471502 -0.881859 
-0.00486282 0.37766 -0.925931 
-0.00637456 0.301771 -0.953359 
-0.00760267 0.237627 -0.971327 
-0.00931945 0.191019 -0.981542 
-0.010117 0.153826 -0.988046 
-0.00971375 0.123523 -0.992294 
-0.0111132 0.0973997 -0.995183 
-0.0120277 0.0777606 -0.9969 
-0.0122083 0.0614182 -0.998037 
-0.0131932 0.0478849 -0.998766 
-0.0139152 0.0374998 -0.9992 
-0.0143186 0.0288447 -0.999481 
-0.0147816 0.0217818 -0.999653 
-0.0151205 0.0161554 -0.999755 
-0.0150915 0.0109082 -0.999827 
-0.0155474 0.00669567 -0.999857 
-0.0154259 0.0026396 -0.999878 
-0.0155094 -0.000701945 -0.999879 
-0.0156219 -0.00363304 -0.999871 
-0.0158082 -0.0057821 -0.999858 
-0.0158756 -0.00731596 -0.999847 
-0.0159461 -0.00875619 -0.999835 
-0.0158685 -0.0105121 -0.999819 
-0.0158935 -0.013496 -0.999783 
-0.0169144 -0.0178065 -0.999698 
-0.0164036 -0.0240116 -0.999577 
-0.0171046 -0.0330976 -0.999306 
-0.0150559 -0.0440118 -0.998918 
-0.0152471 -0.0548044 -0.998381 
-0.0123916 -0.0588437 -0.99819 
-0.00952125 -0.0449498 -0.998944 
-0.000536163 0.000292444 -1 
0.00049643 -0.000377202 1 
0.0068549 -0.0464373 0.998898 
0.011369 -0.0585491 0.99822 
0.0110418 -0.0542605 0.998466 
0.0131461 -0.0431696 0.998981 
0.011147 -0.0317483 0.999434 
0.0118849 -0.0229319 0.999666 
0.0107566 -0.0164724 0.999806 
0.0115619 -0.0125106 0.999855 
0.00989186 -0.00977979 0.999903 
0.0107125 -0.00830285 0.999908 
0.0104431 -0.00719715 0.99992 
0.0104597 -0.00597594 0.999927 
0.0104033 -0.00410093 0.999937 
0.0106803 -0.0013835 0.999942 
0.0108061 0.0020801 0.999939 
0.0109406 0.00589036 0.999923 
0.0106808 0.0101525 0.999891 
0.0099978 0.0148198 0.99984 
0.00975129 0.0204913 0.999742 
0.00950368 0.0272643 0.999583 
0.00918536 0.0355886 0.999324 
0.00843908 0.0457871 0.998916 
0.00786115 0.0581758 0.998275 
0.00724606 0.0738652 0.997242 
0.00667619 0.0927411 0.995668 
0.00641378 0.117895 0.993005 
0.00547309 0.148232 0.988937 
0.00457806 0.190499 0.981677 
0.00388548 0.239882 0.970794 
0.00231765 0.308452 0.951237 
0.000733055 0.404203 0.914669 
-1.09247e-05 0.509751 0.860322 
0.000718324 0.639039 0.769174 
-0.000598506 0.718444 0.695584 
0.0065238 0.899553 0.436762 
0.00619164 0.963505 0.267617 
0.00892523 0.99767 0.0676325 
0.00906522 0.998303 0.0575243 
0.00886001 0.999889 0.0119499 
0.00759121 0.999459 -0.0320057 
0.00558739 0.996031 -0.0888287 
0.00262667 0.971279 -0.237929 
0.00557228 0.877741 -0.479103 
0.00184634 0.598872 -0.800843 
1.16539e-05 0.471033 -0.882116 
-0.00103682 0.536447 -0.843934 
-0.00220212 0.391949 -0.919984 
-0.00342048 0.310128 -0.950689 
-0.00438802 0.244727 -0.969582 
-0.00535884 0.191857 -0.981408 
-0.00605091 0.15243 -0.988296 
-0.00614607 0.117362 -0.99307 
-0.00682103 0.0931557 -0.995628 
-0.00754833 0.07393 -0.997235 
-0.00798984 0.0576206 -0.998307 
-0.00855166 0.0452331 -0.99894 
-0.00920188 0.0352608 -0.999336 
-0.00963346 0.0269549 -0.99959 
-0.0098667 0.0203238 -0.999745 
-0.0105163 0.0145992 -0.999838 
-0.0102604 0.00963318 -0.999901 
-0.0107695 0.00540353 -0.999927 
-0.0103805 0.00160523 -0.999945 
-0.0106008 -0.00173929 -0.999942 
-0.0105721 -0.00445954 -0.999934 
-0.010624 -0.00634056 -0.999923 
-0.0107686 -0.00761999 -0.999913 
-0.010446 -0.00874713 -0.999907 
-0.0108585 -0.0106414 -0.999884 
-0.010686 -0.0136772 -0.999849 
-0.0114796 -0.018283 -0.999767 
-0.0108636 -0.0242213 -0.999648 
-0.0123177 -0.031855 -0.999417 
-0.0109195 -0.0421433 -0.999052 
-0.0110683 -0.0545366 -0.99845 
-0.00929437 -0.0590503 -0.998212 
-0.0063595 -0.0415423 -0.999117 
-0.000451642 0.000185675 -1 
0.000396255 -0.000612051 1 
0.00499033 -0.0450579 0.998972 
0.00833041 -0.0591086 0.998217 
0.00783166 -0.0531813 0.998554 