# vtk DataFile Version 3.0 
Exported using Morpho https://github.com/Morpho-lang/morpho 
ASCII 
DATASET UNSTRUCTURED_GRID 

POINTS 1978 float 
-8.48528 -2.82843 -1.1325e-08 
-8.18732 -2.82842 1.00752e-09 
-7.9669 -2.82843 1.7836e-08 
-7.70545 -2.82842 1.30065e-08 
-7.43568 -2.82842 1.06763e-08 
-7.15629 -2.82842 6.72126e-09 
-6.9546 -2.82843 1.33813e-09 
-6.73809 -2.82842 6.05886e-09 
-6.52887 -2.82843 5.02661e-09 
-6.31917 -2.82842 5.19091e-09 
-6.11973 -2.82843 3.3464e-09 
-5.91853 -2.82843 2.17199e-09 
-5.71102 -2.82843 1.98769e-09 
-5.50407 -2.82843 1.05371e-09 
-5.28041 -2.82843 -8.89751e-10 
-5.06285 -2.82843 -9.77689e-10 
-4.84491 -2.82843 -1.92654e-09 
-4.62976 -2.82843 -3.78061e-09 
-4.41271 -2.82843 -4.51228e-09 
-4.1893 -2.82843 -5.36623e-09 
-3.97756 -2.82843 -6.20757e-09 
-3.77073 -2.82843 -7.42177e-09 
-3.57 -2.82843 -1.00029e-08 
-3.35998 -2.82843 -1.13735e-08 
-3.14926 -2.82843 -1.36893e-08 
-2.94015 -2.82843 -1.4215e-08 
-2.73789 -2.82843 -1.68608e-08 
-2.5346 -2.82843 -2.08802e-08 
-2.31159 -2.82843 -2.0196e-08 
-2.10888 -2.82843 -1.71128e-08 
-1.89699 -2.82843 -1.91716e-08 
-1.68568 -2.82843 -1.82207e-08 
-1.46698 -2.82843 -1.08647e-08 
-1.26437 -2.82843 -1.35386e-09 
-1.09729 -2.82843 -2.11859e-08 
-0.848942 -2.82843 -8.19349e-09 
-0.662371 -2.82843 -1.96388e-08 
-0.428273 -2.82843 3.01855e-08 
-0.219369 -2.82843 -6.63499e-08 
0.00366182 -2.82842 3.32994e-08 
0.23569 -2.82843 -1.12192e-08 
0.46027 -2.82843 -1.48072e-08 
0.670563 -2.82843 2.90829e-08 
0.887556 -2.82843 5.99023e-08 
1.05129 -2.82843 -1.01605e-08 
1.25287 -2.82843 8.62968e-09 
1.46208 -2.82843 2.69189e-08 
1.66996 -2.82843 1.42928e-08 
1.8797 -2.82843 1.81288e-08 
2.09267 -2.82843 2.49178e-08 
2.3209 -2.82843 2.221e-08 
2.52132 -2.82843 1.87898e-08 
2.73479 -2.82843 1.97553e-08 
2.96663 -2.82843 1.71611e-08 
3.16154 -2.82843 1.18327e-08 
3.36036 -2.82843 1.15859e-08 
3.58248 -2.82843 9.10295e-09 
3.7847 -2.82843 7.98728e-09 
3.99791 -2.82843 6.0788e-09 
4.21763 -2.82843 5.49875e-09 
4.41963 -2.82843 4.4055e-09 
4.63811 -2.82843 2.59987e-09 
4.83908 -2.82843 2.58329e-09 
5.06116 -2.82843 8.70084e-10 
5.27 -2.82843 6.07029e-10 
5.49265 -2.82843 -4.19913e-10 
5.70747 -2.82843 -2.46623e-09 
5.92472 -2.82843 -2.57841e-09 
6.152 -2.82843 -4.87697e-09 
6.35655 -2.82843 -5.73138e-09 
6.59174 -2.82842 -5.30207e-09 
6.80341 -2.82843 -4.51177e-09 
7.00903 -2.82843 -5.21386e-09 
7.27103 -2.82842 -5.51004e-09 
7.50643 -2.82843 -7.6033e-09 
7.74163 -2.82842 -1.28468e-08 
8.00789 -2.82843 -2.0177e-08 
8.19844 -2.82842 2.06494e-09 
8.48528 -2.82843 7.43057e-09 
-8.48528 -2.53768 2.03204e-08 
-8.29049 -2.63442 -2.74213e-09 
-8.04624 -2.56934 -3.04e-09 
-7.81833 -2.61693 -4.02817e-09 
-7.54328 -2.62378 -3.42215e-09 
-7.2518 -2.6363 -2.76657e-09 
-6.9982 -2.56634 -2.03309e-09 
-6.79554 -2.58852 -1.71233e-09 
-6.56833 -2.58494 -1.52008e-09 
-6.34852 -2.58803 -1.15818e-09 
-6.12807 -2.57747 -9.34352e-10 
-5.91889 -2.57644 -6.352e-10 
-5.70542 -2.57886 -4.66561e-10 
-5.48156 -2.59621 -1.74485e-10 
-5.25969 -2.58956 8.79087e-11 
-5.03822 -2.59062 4.08844e-10 
-4.8203 -2.5885 7.72199e-10 
-4.6008 -2.59204 1.16298e-09 
-4.37561 -2.60103 1.62875e-09 
-4.15915 -2.59058 2.1243e-09 
-3.94963 -2.58681 2.78778e-09 
-3.7451 -2.5806 3.46115e-09 
-3.53363 -2.59287 4.27653e-09 
-3.32064 -2.5949 5.19522e-09 
-3.10787 -2.59369 6.35866e-09 
-2.9018 -2.58597 7.53994e-09 
-2.69704 -2.58722 8.6479e-09 
-2.47748 -2.60817 1.01067e-08 
-2.26606 -2.58555 1.09187e-08 
-2.0549 -2.59566 1.241e-08 
-1.83649 -2.5936 1.14279e-08 
-1.62001 -2.60218 1.34048e-08 
-1.40921 -2.57659 1.37609e-08 
-1.22705 -2.50252 2.77191e-09 
-1.01158 -2.60972 7.47814e-09 
-0.815386 -2.52037 4.52083e-10 
-0.599801 -2.57105 3.74711e-09 
-0.388546 -2.51965 -6.99525e-11 
-0.178272 -2.53537 -1.30272e-08 
0.0435208 -2.5322 -1.00534e-08 
0.296958 -2.57683 1.49859e-08 
0.47619 -2.34804 -5.37807e-09 
0.55975 -2.57652 3.95606e-09 
0.804949 -2.59231 3.82817e-09 
1.01855 -2.51328 -8.90624e-09 
1.20843 -2.58336 -9.71217e-09 
1.44486 -2.60021 -1.25481e-08 
1.68195 -2.5961 -1.17292e-08 
1.90813 -2.59826 -1.27426e-08 
2.14587 -2.61476 -1.28112e-08 
2.36407 -2.58673 -1.07143e-08 
2.58012 -2.60318 -9.97741e-09 
2.80835 -2.61447 -7.82839e-09 
3.01441 -2.57491 -6.88523e-09 
3.21676 -2.57904 -5.74329e-09 
3.43456 -2.60434 -4.77968e-09 
3.64486 -2.58124 -3.70784e-09 
3.85722 -2.59338 -3.02016e-09 
4.07777 -2.59993 -2.42654e-09 
4.28836 -2.57884 -1.80943e-09 
4.50294 -2.59669 -1.41627e-09 
4.71261 -2.57458 -9.3086e-10 
4.92784 -2.59741 -5.94885e-10 
5.14427 -2.58175 -2.45342e-10 
5.36344 -2.59685 6.11934e-11 
5.58428 -2.58789 3.33556e-10 
5.8033 -2.5899 5.95584e-10 
6.0299 -2.59988 8.57034e-10 
6.2474 -2.57316 1.02149e-09 
6.4689 -2.60555 1.31914e-09 
6.6952 -2.57758 1.61023e-09 
6.90507 -2.56763 2.02505e-09 
7.13277 -2.61907 2.35552e-09 
7.38377 -2.59471 3.04134e-09 
7.61518 -2.5945 3.48843e-09 
7.86681 -2.62038 3.61167e-09 
8.07814 -2.53711 3.05839e-09 
8.30547 -2.63109 2.70571e-09 
8.48528 -2.51572 -1.41098e-08 
-8.48528 -2.3136 4.68481e-09 
-8.22831 -2.38033 -1.41976e-09 
-7.97904 -2.33357 -2.00654e-09 
-7.72814 -2.42115 -2.7341e-09 
-7.5772 -2.26474 -2.85212e-09 
-7.41272 -2.4482 -2.94131e-09 
-7.15336 -2.39668 -2.49533e-09 
-6.92571 -2.30256 -1.67859e-09 
-6.70779 -2.36063 -1.41805e-09 
-6.47459 -2.34974 -1.07919e-09 
-6.24882 -2.35229 -8.21415e-10 
-6.02659 -2.33144 -5.99073e-10 
-5.81013 -2.33811 -3.91722e-10 
-5.58647 -2.35443 -2.19935e-10 
-5.36809 -2.35815 -2.38227e-12 
-5.14288 -2.35598 2.39101e-10 
-4.92185 -2.35214 5.01729e-10 
-4.70048 -2.35668 8.08497e-10 
-4.47478 -2.3709 1.19898e-09 
-4.25596 -2.3624 1.60785e-09 
-4.03888 -2.34877 2.01714e-09 
-3.83022 -2.34072 2.5159e-09 
-3.61447 -2.3548 3.19881e-09 
-3.40023 -2.36278 3.99992e-09 
-3.18412 -2.36484 4.87326e-09 
-2.96931 -2.35156 5.70848e-09 
-2.75675 -2.34792 6.67811e-09 
-2.53938 -2.37956 7.91686e-09 
-2.32279 -2.36082 9.01162e-09 
-2.09486 -2.35772 9.94405e-09 
-1.87783 -2.36911 1.00957e-08 
-1.64282 -2.36383 8.05419e-09 
-1.43552 -2.31231 5.75672e-09 
-1.24587 -2.20708 3.2464e-09 
-1.04807 -2.33778 -1.21614e-09 
-0.827751 -2.25674 -4.07453e-09 
-0.603987 -2.2874 -2.41144e-09 
-0.393751 -2.22814 -7.4582e-09 
-0.16555 -2.2424 -7.36837e-09 
0.0339212 -2.18332 2.94918e-08 
0.230987 -2.32131 5.36519e-09 
0.435541 -2.07926 9.83527e-09 
0.682672 -2.14767 2.11568e-09 
0.763702 -2.35403 6.96374e-09 
1.00759 -2.26301 -3.97955e-09 
1.24486 -2.31539 -5.64075e-09 
1.45304 -2.37888 -5.5398e-09 
1.65807 -2.34247 -9.20376e-09 
1.86847 -2.36682 -1.0574e-08 
2.09197 -2.3951 -1.06758e-08 
2.31294 -2.36345 -8.84395e-09 
2.53923 -2.36732 -7.2962e-09 
2.74847 -2.39151 -7.19057e-09 
2.95784 -2.34318 -5.76484e-09 
3.16885 -2.33308 -4.46293e-09 
3.38059 -2.36864 -3.92548e-09 
3.58839 -2.34859 -3.28709e-09 
3.80472 -2.35365 -2.64299e-09 
4.01825 -2.36974 -2.10825e-09 
4.23074 -2.34475 -1.61004e-09 
4.44969 -2.35564 -1.185e-09 
4.65612 -2.33759 -8.30396e-10 
4.87568 -2.35334 -5.36475e-10 
5.08475 -2.3481 -2.73173e-10 
5.30773 -2.35703 -4.64821e-11 
5.52239 -2.3556 1.64343e-10 
5.74411 -2.35163 3.64944e-10 
5.96636 -2.36732 5.80205e-10 
6.18378 -2.34033 7.58126e-10 
6.41457 -2.35944 9.76196e-10 
6.62703 -2.35333 1.26542e-09 
6.85401 -2.31441 1.5606e-09 
7.07359 -2.36502 2.07912e-09 
7.29446 -2.38868 2.71697e-09 
7.54576 -2.35347 2.8855e-09 
7.78091 -2.39252 2.55166e-09 
7.9901 -2.30891 1.93654e-09 
8.24889 -2.35904 1.53716e-09 
8.48528 -2.28072 -1.38406e-09 
-8.48528 -2.06595 8.07417e-09 
-8.25719 -2.15476 -9.22072e-10 
-8.08285 -2.06114 -1.31971e-10 
-7.83943 -2.15875 -5.74688e-10 
-7.55434 -2.06476 -9.90299e-10 
-7.3046 -2.22322 -2.05332e-09 
-7.07887 -2.12056 -1.12086e-09 
-6.80282 -2.09081 -5.65015e-10 
-6.59478 -2.12859 -6.10876e-10 
-6.35906 -2.121 -4.30148e-10 
-6.14099 -2.10914 -2.8157e-10 
-5.91445 -2.09699 -1.02137e-10 
-5.69632 -2.11414 -7.54891e-11 
-5.47935 -2.11824 1.18858e-11 
-5.26082 -2.12663 9.32092e-11 
-5.04047 -2.12054 1.58927e-10 
-4.81971 -2.12086 2.57117e-10 
-4.59694 -2.13621 4.22799e-10 
-4.3835 -2.13442 5.85564e-10 
-4.17093 -2.12387 7.15026e-10 
-3.96234 -2.10401 7.97099e-10 
-3.74825 -2.11464 1.08617e-09 
-3.53739 -2.12508 1.40217e-09 
-3.32672 -2.1327 1.77227e-09 
-3.11799 -2.1304 1.99207e-09 
-2.90587 -2.11643 2.20249e-09 
-2.68596 -2.12748 2.80982e-09 
-2.47969 -2.14297 3.45067e-09 
-2.25158 -2.13766 3.98915e-09 
-2.02936 -2.12163 4.60567e-09 
-1.80234 -2.14871 5.81572e-09 
-1.58642 -2.10146 5.01332e-09 
-1.39404 -1.99891 1.12824e-09 
-1.16806 -1.9155 -2.50151e-09 
-1.00766 -2.0715 -3.01651e-09 
-0.746989 -1.99957 4.57901e-12 
-0.545721 -1.97697 -1.68694e-09 
-0.286404 -1.96848 -1.75263e-09 
-0.0738705 -1.91644 -2.6203e-08 
0.126252 -1.76499 1.63249e-08 
0.230421 -2.00863 -2.653e-08 
0.215668 -1.48008 -1.79595e-08 
0.37727 -1.7293 1.17899e-08 
0.601653 -1.88686 1.28186e-09 
0.881888 -2.02703 5.37888e-09 
1.18431 -2.05402 -1.55804e-09 
1.43281 -2.1189 -7.1415e-09 
1.65729 -2.09612 -1.60924e-09 
1.87848 -2.1225 -3.35782e-09 
2.09578 -2.16485 -4.67566e-09 
2.33413 -2.14537 -3.48081e-09 
2.55621 -2.13653 -4.46562e-09 
2.76675 -2.15172 -2.71335e-09 
2.98245 -2.10716 -1.88542e-09 
3.20481 -2.10803 -1.74391e-09 
3.40941 -2.12716 -1.65336e-09 
3.6276 -2.11911 -1.2571e-09 
3.84371 -2.12317 -1.07792e-09 
4.05148 -2.13027 -8.72147e-10 
4.27472 -2.11775 -6.26459e-10 
4.47897 -2.1085 -4.28589e-10 
4.70065 -2.11036 -3.03787e-10 
4.90836 -2.10888 -1.86439e-10 
5.13014 -2.12095 -1.17375e-10 
5.3433 -2.11735 -5.12333e-11 
5.56142 -2.12219 1.41523e-11 
5.78552 -2.12192 1.04227e-10 
5.99819 -2.12508 2.22375e-10 
6.23377 -2.11864 3.12071e-10 
6.44425 -2.11085 4.1665e-10 
6.66512 -2.11584 6.22778e-10 
6.90007 -2.08108 6.31672e-10 
7.11604 -2.12711 9.98158e-10 
7.34739 -2.16605 1.64465e-09 
7.54078 -2.07677 9.58504e-10 
7.74098 -2.15002 1.05827e-09 
7.9673 -2.07428 -3.93876e-10 
8.20478 -2.13767 5.73074e-10 
8.48528 -2.08366 -1.0682e-08 
-8.48528 -1.71661 3.82094e-09 
-8.32987 -1.87638 -4.26042e-10 
-7.90792 -1.89914 1.40727e-09 
-7.69515 -1.91796 4.60301e-10 
[...]
POINT_DATA 1978 
VECTORS vectors float
0.00314085 -0.00699288 0.999968 
0.00616825 -0.0585791 0.998264 
0.00462147 -0.0609168 0.998132 
0.00447794 -0.0464261 0.998912 
0.00510372 -0.0337616 0.999417 
0.00455893 -0.0241922 0.999697 
0.00394094 -0.0197587 0.999797 
0.00423476 -0.0172412 0.999843 
0.00420633 -0.0156751 0.999869 
0.00399807 -0.0138896 0.999896 
0.00384837 -0.0117234 0.999924 
0.00400559 -0.00904109 0.999951 
0.00410129 -0.00596369 0.999974 
0.00434428 -0.00284556 0.999987 
0.00453895 0.000615296 0.99999 
0.00441632 0.00413982 0.999982 
0.00431136 0.00783587 0.99996 
0.0043302 0.0117561 0.999922 
0.00450952 0.0161222 0.99986 
0.00440513 0.0213835 0.999762 
0.00406329 0.0275097 0.999614 
0.00381343 0.034958 0.999382 
0.00388763 0.0439141 0.999028 
0.00403323 0.0555381 0.998449 
0.00394825 0.0700487 0.997536 
0.00362634 0.0879921 0.996115 
0.00345902 0.109643 0.993965 
0.00368406 0.136516 0.990631 
0.00347008 0.17292 0.98493 
0.00303203 0.213542 0.976929 
0.00288471 0.265651 0.964065 
0.00271542 0.330291 0.943875 
0.00210558 0.409764 0.912189 
0.00132571 0.493652 0.869659 
0.00113647 0.575778 0.817606 
0.000917529 0.704838 0.709368 
0.000437588 0.803062 0.595896 
0.000112832 0.905899 0.423495 
4.66823e-05 0.973416 0.229043 
-4.92985e-05 0.999991 0.00427201 
-1.31239e-05 0.969371 -0.245599 
-0.00010685 0.896686 -0.442668 
-0.000563737 0.805686 -0.592342 
-0.000702199 0.682376 -0.730999 
-0.000912999 0.599613 -0.800291 
-0.00155776 0.50496 -0.863141 
-0.00222531 0.416399 -0.909178 
-0.00242937 0.334695 -0.942325 
-0.00283178 0.269498 -0.962997 
-0.003483 0.216897 -0.976188 
-0.00340489 0.17128 -0.985217 
-0.00342712 0.138212 -0.990397 
-0.00416237 0.110471 -0.993871 
-0.00389791 0.0859927 -0.996288 
-0.0033929 0.0694716 -0.997578 
-0.00398394 0.0556916 -0.99844 
-0.00413087 0.0434394 -0.999048 
-0.0040248 0.0343444 -0.999402 
-0.00432125 0.0268386 -0.999631 
-0.0042062 0.0206645 -0.999778 
-0.00414474 0.0159653 -0.999864 
-0.0041382 0.011689 -0.999924 
-0.0042384 0.00806995 -0.999959 
-0.00433618 0.00431054 -0.999982 
-0.00437814 0.0007818 -0.99999 
-0.00440056 -0.00290466 -0.999986 
-0.00437644 -0.00639177 -0.99997 
-0.00452986 -0.00964592 -0.999944 
-0.00432676 -0.012643 -0.999911 
-0.00456681 -0.0148205 -0.99988 
-0.00457142 -0.016374 -0.999856 
-0.00392254 -0.017719 -0.999836 
-0.00468103 -0.0200523 -0.999788 
-0.0050137 -0.0255995 -0.99966 
-0.00437952 -0.0347489 -0.999387 
-0.00468438 -0.0475201 -0.998859 
-0.00454311 -0.0626547 -0.998025 
-0.0059255 -0.0575131 -0.998327 
-0.00299642 -0.00728527 -0.999967 
0.000284634 -0.0074731 0.99997 
0.016713 -0.0418099 0.998986 
0.0274404 -0.0555761 0.998077 
0.0284674 -0.0519639 0.998243 
0.0292347 -0.0394335 0.998794 
0.0287879 -0.0279481 0.999195 
0.035216 -0.0214441 0.999149 
0.0342559 -0.0179053 0.999253 
0.0353441 -0.0153105 0.999258 
0.0349654 -0.0132055 0.999301 
0.0356465 -0.0108222 0.999306 
0.0352508 -0.00828714 0.999344 
0.0355132 -0.00553806 0.999354 
0.0338002 -0.00239842 0.999426 
0.0344745 0.000934694 0.999405 
0.03446 0.00445373 0.999396 
0.0346505 0.00812919 0.999366 
0.0342535 0.0121829 0.999339 
0.0334913 0.0169108 0.999296 
0.0342568 0.0223244 0.999164 
0.034308 0.0287201 0.998998 
0.0342374 0.0364206 0.99875 
0.0325964 0.0462786 0.998396 
0.0317158 0.05872 0.99777 
0.0309217 0.0742437 0.99676 
0.0302352 0.0930304 0.995204 
0.0285947 0.116133 0.992822 
0.0255718 0.146658 0.988856 
0.0247943 0.183138 0.982774 
0.0218796 0.227724 0.97348 
0.0189735 0.2851 0.95831 
0.0157458 0.353948 0.935132 
0.0129856 0.43229 0.901641 
0.0104909 0.513523 0.858011 
0.00586107 0.620109 0.784494 
0.00386874 0.722603 0.691252 
0.00148915 0.834161 0.551519 
-0.00115387 0.923304 0.384068 
-0.00278804 0.980962 0.19418 
-0.003727 0.999571 -0.0290515 
-0.00303671 0.961193 -0.275858 
-0.00799733 0.893864 -0.448267 
-0.00539187 0.860402 -0.509588 
-0.00650248 0.729584 -0.683863 
-0.0102437 0.61315 -0.789899 
-0.011318 0.520753 -0.853632 
-0.0140976 0.417934 -0.908369 
-0.0172452 0.327542 -0.944678 
-0.0203371 0.260439 -0.965276 
-0.0225077 0.204935 -0.978517 
-0.0261792 0.164173 -0.986084 
-0.0270376 0.130917 -0.991024 
-0.0276429 0.10264 -0.994334 
-0.0315889 0.0823535 -0.996102 
-0.0322195 0.0660678 -0.997295 
-0.0312614 0.0518358 -0.998166 
-0.0336308 0.040882 -0.998598 
-0.0332839 0.0319573 -0.998935 
-0.0333326 0.0245961 -0.999141 
-0.0352004 0.0189464 -0.999201 
-0.0340532 0.0141817 -0.999319 
-0.0357098 0.0101287 -0.999311 
-0.0339522 0.00636828 -0.999403 
-0.0351372 0.00273674 -0.999379 
-0.0339491 -0.000793626 -0.999423 
-0.034688 -0.00420656 -0.999389 
-0.0345462 -0.0073571 -0.999376 
-0.0339385 -0.0103221 -0.99937 
-0.0360262 -0.0126308 -0.999271 
-0.0334821 -0.0148271 -0.999329 
-0.0357792 -0.0166618 -0.999221 
-0.036022 -0.019055 -0.999169 
-0.0307931 -0.0230354 -0.99926 
-0.0323067 -0.0308079 -0.999003 
-0.0309939 -0.0411981 -0.99867 
-0.0276427 -0.0535399 -0.998183 
-0.0283329 -0.0535515 -0.998163 
-0.015759 -0.0391402 -0.999109 
0.000262705 -0.00828541 -0.999964 
0.000894382 -0.00737661 0.999971 
0.0239047 -0.0432987 0.998776 
0.0356749 -0.0550864 0.997844 
0.0391172 -0.0488704 0.998039 
0.0424623 -0.0421789 0.998207 
0.0402695 -0.0341007 0.998607 
0.0435368 -0.0253918 0.998729 
0.0450189 -0.0200497 0.998785 
0.045252 -0.0164305 0.99884 
0.0457339 -0.0135209 0.998862 
0.0455661 -0.0111645 0.998899 
0.0454511 -0.00880529 0.998928 
0.045167 -0.00647039 0.998958 
0.0448995 -0.00376203 0.998984 
0.0447656 -0.000818621 0.998997 
0.0447847 0.00251416 0.998993 
0.0447776 0.00609465 0.998978 
0.0446783 0.0100475 0.998951 
0.044414 0.0145833 0.998907 
0.0442643 0.0197333 0.998825 
0.0438679 0.025927 0.998701 
0.0432581 0.0332593 0.99851 
0.0423359 0.0426505 0.998193 
0.0412426 0.0543018 0.997672 
0.0399099 0.0690192 0.996817 
0.0383255 0.087324 0.995442 
0.0363874 0.109876 0.993279 
0.0339489 0.138332 0.989804 
0.0314871 0.173552 0.984321 
0.0281677 0.219234 0.975266 
0.0244151 0.273866 0.961458 
0.0196493 0.34719 0.937589 
0.0151097 0.427562 0.903859 
0.0100537 0.511239 0.85938 
0.00729134 0.601821 0.798598 
0.0030614 0.716435 0.697647 
3.48622e-05 0.830057 0.557679 
-0.00329215 0.921108 0.389294 
-0.00557704 0.984381 0.175965 
-0.00688035 0.999484 -0.0313736 
-0.007136 0.973861 -0.227034 
-0.00773937 0.900993 -0.433765 
-0.00887241 0.788209 -0.615344 
-0.00930279 0.745818 -0.666085 
-0.0116062 0.618636 -0.785591 
-0.0151679 0.505454 -0.86272 
-0.0183331 0.415593 -0.909365 
-0.0220671 0.339384 -0.940389 
-0.025532 0.273983 -0.961395 
-0.029039 0.218929 -0.975308 
-0.0321151 0.175325 -0.983987 
-0.0345384 0.138319 -0.989785 
-0.0363418 0.11008 -0.993258 
-0.0386803 0.0887892 -0.995299 
-0.0398567 0.0706616 -0.996704 
-0.0409501 0.0556727 -0.997609 
-0.0422917 0.0440199 -0.998135 
-0.0431149 0.0342621 -0.998482 
-0.0436498 0.026547 -0.998694 
-0.0444207 0.0203906 -0.998805 
-0.0445524 0.0151699 -0.998892 
-0.0449395 0.0109563 -0.99893 
-0.0448258 0.0069866 -0.99897 
-0.0449821 0.00345967 -0.998982 
-0.0448353 -5.96399e-05 -0.998994 
-0.0449534 -0.00321504 -0.998984 
-0.0450561 -0.00614023 -0.998966 
-0.0450456 -0.00877348 -0.998946 
-0.0456302 -0.0109903 -0.998898 
-0.0454937 -0.013335 -0.998876 
-0.0456346 -0.0154592 -0.998838 
-0.045457 -0.0183854 -0.998797 
-0.044649 -0.0226098 -0.998747 
-0.0431758 -0.0285935 -0.998658 
-0.0416774 -0.0389785 -0.99837 
-0.0391271 -0.0500012 -0.997982 
-0.036446 -0.0547879 -0.997833 
-0.0237991 -0.0416193 -0.99885 
-0.00161226 -0.00733845 -0.999969 
-0.00046131 -0.00828076 0.999967 
0.0212901 -0.0421769 0.998883 
0.0285528 -0.0550729 0.998074 
0.0366209 -0.0542994 0.997853 
0.0370838 -0.0419875 0.99843 
0.0429368 -0.0306244 0.998608 
0.040714 -0.0237276 0.998889 
0.0400619 -0.0176511 0.999041 
0.041889 -0.0143605 0.999019 
0.0415828 -0.0115039 0.999069 
0.0406945 -0.00929911 0.999128 
0.0396567 -0.00718498 0.999187 
0.040237 -0.00498809 0.999178 
0.0402038 -0.00246544 0.999188 
0.0404842 0.00049381 0.99918 
0.0401549 0.0038953 0.999186 
0.0400906 0.00768732 0.999166 
0.0404875 0.0119619 0.999108 
0.0401321 0.0166572 0.999055 
0.0392585 0.0222036 0.998982 
0.0378646 0.0288326 0.998867 
0.0375349 0.0371744 0.998604 
0.036947 0.0473626 0.998194 
0.0360358 0.0599831 0.997549 
0.0345062 0.0755377 0.996546 
0.0323848 0.0951534 0.994936 
0.0308542 0.120243 0.992265 
0.0291457 0.149143 0.988386 
0.0263383 0.188427 0.981734 
0.0229409 0.23609 0.97146 
0.0199646 0.295812 0.955037 
0.0150967 0.36859 0.929469 
0.00953592 0.447066 0.89445 
0.00432411 0.551853 0.83393 
0.00373455 0.629231 0.777209 
-0.000523522 0.763853 0.64539 
-0.0031048 0.860857 0.508837 
-0.00558714 0.959842 0.280486 
-0.00657049 0.99747 0.0707801 
-0.00584955 0.990346 -0.138496 
-0.00697708 0.969666 -0.244337 
-0.00250239 0.973057 -0.230551 
-0.00498577 0.926582 -0.376059 
-0.00625615 0.829458 -0.558534 
-0.0091047 0.688893 -0.724806 
-0.0118871 0.530164 -0.847812 
-0.0161876 0.422689 -0.90613 
-0.0183989 0.34339 -0.939012 
-0.0219436 0.275368 -0.961088 
-0.025891 0.219756 -0.975211 
-0.0284223 0.172413 -0.984614 
-0.0308371 0.136312 -0.990186 
-0.0327784 0.109652 -0.993429 
-0.0329861 0.0875509 -0.995614 
-0.0345519 0.0686436 -0.997043 
-0.0363556 0.0546337 -0.997844 
-0.0371928 0.0426121 -0.998399 
-0.0382905 0.0330657 -0.998719 
-0.0391879 0.0257016 -0.998901 
-0.0393406 0.019289 -0.99904 
-0.0392648 0.0144441 -0.999124 
-0.0396295 0.00992258 -0.999165 
-0.0396156 0.00615392 -0.999196 
-0.0402038 0.00246769 -0.999188 
-0.04009 -0.000792271 -0.999196 
-0.040378 -0.0037497 -0.999177 
-0.0405767 -0.00634003 -0.999156 
-0.0408874 -0.00847918 -0.999128 
-0.0410526 -0.0107054 -0.9991 
-0.0409448 -0.0128007 -0.999079 
-0.0412776 -0.0154575 -0.999028 
-0.0399077 -0.0194696 -0.999014 
-0.0407273 -0.0243803 -0.998873 
-0.0411234 -0.0315969 -0.998654 
-0.0367817 -0.0400739 -0.998519 
-0.0373931 -0.0492095 -0.998088 
-0.0319498 -0.0564772 -0.997892 
-0.0246428 -0.045658 -0.998653 
-0.00101012 -0.00720757 -0.999972 
-0.000645676 -0.00844043 0.999966 
0.0119287 -0.0349456 0.999318 
0.0272166 -0.0580392 0.997943 
0.0302359 -0.0498035 0.998301 
0.0269602 -0.0389516 0.998877 
0.0354542 -0.0324162 0.998845 
0.0302616 -0.0272232 0.999171 
0.0327531 -0.020902 0.999245 
0.0305909 -0.0156265 0.99941 
0.033174 -0.0125434 0.999371 
0.031565 -0.0100529 0.999451 
0.0308413 -0.00807204 0.999492 
0.0303305 -0.00620555 0.999521 
0.0307173 -0.00418966 0.999519 
0.0307926 -0.00160802 0.999524 
0.0309667 0.00147633 0.999519 
0.0308087 0.00509525 0.999512 
0.0310572 0.00921439 0.999475 
0.0308051 0.0135983 0.999433 
0.0302357 0.0186254 0.999369 
0.0290585 0.0245475 0.999276 
0.0283079 0.0321984 0.99908 
0.0278773 0.0413486 0.998756 
0.0272896 0.0525893 0.998243 
0.0262613 0.0662974 0.997454 
0.0248986 0.0832586 0.996217 
0.0234521 0.10581 0.99411 
0.0216396 0.132551 0.99094 
0.0207093 0.165419 0.986006 
0.0179292 0.207786 0.97801 
0.0151667 0.263649 0.964499 
0.0122225 0.325397 0.945498 
0.00783394 0.393795 0.919165 
0.00392961 0.491232 0.871019 
-7.12234e-05 0.689939 0.723867 
-0.00238179 0.799982 0.600018 
-0.00364911 0.909668 0.415322 
-0.00054404 0.959319 0.282323 
-0.0038932 0.976747 0.21436 
-0.00328526 0.999824 0.0184653 
0.0013919 0.988069 -0.15401 
-0.00171623 0.935694 -0.352809 
-0.00318634 0.860157 -0.510019 
-0.00554801 0.743573 -0.668632 
-0.007832 0.610808 -0.791739 
-0.00638057 0.548355 -0.836221 
-0.0104831 0.462626 -0.886492 
-0.0120992 0.381925 -0.924114 
-0.0145499 0.300133 -0.953786 
-0.0179617 0.237962 -0.971108 
-0.0208037 0.190396 -0.981487 
-0.0224655 0.148943 -0.988591 
-0.0233422 0.118658 -0.992661 
-0.0242611 0.0965718 -0.99503 
-0.0254628 0.0754722 -0.996823 
-0.0263618 0.0591839 -0.997899 
-0.027776 0.0469052 -0.998513 
-0.0286352 0.0363028 -0.99893 
-0.0292185 0.0280361 -0.99918 
-0.0302018 0.0214621 -0.999313 
-0.0293092 0.0158732 -0.999444 
-0.0302814 0.0112421 -0.999478 
-0.0297556 0.00707993 -0.999532 
-0.0307475 0.00336267 -0.999521 
-0.0304284 -4.63341e-05 -0.999537 
-0.0307522 -0.00300256 -0.999522 
-0.0311948 -0.0054625 -0.999498 
-0.0309577 -0.00748191 -0.999493 
-0.0320446 -0.00934169 -0.999443 
-0.0308635 -0.0113621 -0.999459 
-0.0315865 -0.0139471 -0.999404 
-0.0315599 -0.017524 -0.999348 
-0.030786 -0.023333 -0.999253 
-0.0323867 -0.0299949 -0.999025 
-0.0288427 -0.0403597 -0.998769 
-0.0281839 -0.0522059 -0.998238 
-0.0231005 -0.0562978 -0.998147 
-0.0165698 -0.0416179 -0.998996 
-0.000596455 -0.00797704 -0.999967 
0.000233317 -0.00737111 0.999972 
0.0113349 -0.0444751 0.998946 
0.0194107 -0.0532984 0.99839 
0.0199864 -0.059111 0.998051 
0.0220061 -0.0499846 0.998507 
0.0227333 -0.0319809 0.99923 
0.0233529 -0.0229941 0.999463 
0.0236068 -0.0176565 0.999565 
0.0232966 -0.0127031 0.999648 
0.0233602 -0.0103495 0.999673 
0.0226992 -0.0083658 0.999707 
0.0222262 -0.0068163 0.99973 
0.0220124 -0.00511839 0.999745 
0.0223691 -0.00290567 0.999745 
0.0223589 -7.95112e-06 0.99975 
0.0225492 0.00336879 0.99974 
0.0227745 0.00734546 0.999714 
0.0222585 0.0116716 0.999684 
0.0218302 0.0164531 0.999626 
0.0209748 0.021983 0.999538 
0.0206309 0.0289631 0.999367 
0.0198846 0.0377485 0.999089 
0.0193955 0.0482473 0.998647 
0.018571 0.0611032 0.997959 
0.0175305 0.0768065 0.996892 
0.0169013 0.0966668 0.995173 
0.0152593 0.121996 0.992413 
0.0142265 0.15409 0.987954 
0.012818 0.191057 0.981495 
0.0108891 0.243252 0.969902 
0.00781907 0.307637 0.951472 
0.0045329 0.393527 0.919302 
0.0013222 0.505232 0.862983 
-0.00110452 0.630613 0.776097 
0.000454632 0.618773 0.785569 
-0.00212552 0.737007 0.675881 
-0.00218794 0.884124 0.467247 
0.000363515 0.882861 0.469634 
0.000674472 0.999124 0.0418733 
0.00280846 0.992912 0.118826 
0.00531155 0.999276 -0.0377041 
0.00463593 0.953644 -0.300899 
0.000211371 0.894134 -0.4478 
-0.002672 0.784906 -0.61961 
-0.00396006 0.683537 -0.729905 
-0.00341517 0.577031 -0.816715 
-0.00620742 0.45089 -0.892558 
-0.00860867 0.358013 -0.933677 
-0.0104645 0.278597 -0.960351 
-0.0127329 0.221874 -0.974992 
-0.0151386 0.176233 -0.984232 
-0.0156732 0.139909 -0.99004 
-0.0155156 0.113628 -0.993402 
-0.0175391 0.0903184 -0.995758 
-0.0181579 0.0712228 -0.997295 
-0.0184716 0.056447 -0.998235 
-0.0200225 0.0443028 -0.998817 
-0.0205027 0.0344289 -0.999197 
-0.0209448 0.0265005 -0.999429 
-0.021694 0.0201746 -0.999561 
-0.0212177 0.0145549 -0.999669 
-0.0218797 0.0100604 -0.99971 
-0.0217558 0.00579656 -0.999746 
-0.0222378 0.00220904 -0.99975 
-0.0220298 -0.00112759 -0.999757 
-0.0223548 -0.0038867 -0.999742 
-0.0226367 -0.00601668 -0.999726 
-0.022509 -0.00771841 -0.999717 
-0.0231842 -0.00932777 -0.999688 
-0.0223025 -0.011396 -0.999686 
-0.0228856 -0.0142887 -0.999636 
-0.0236278 -0.0188266 -0.999543 
-0.0225858 -0.0252439 -0.999426 
-0.0239376 -0.0326441 -0.99918 
-0.020739 -0.0428902 -0.998864 
-0.0213394 -0.0531399 -0.998359 
-0.017417 -0.0583935 -0.998142 
-0.0126114 -0.0439892 -0.998952 
-0.00056996 -0.00745722 -0.999971 
0.000397162 -0.00703975 0.999974 
0.00820327 -0.0432723 0.999029 
0.0146128 -0.0586397 0.998172 
0.0153624 -0.0538573 0.99843 
0.018484 -0.0418607 0.998952 
0.0157499 -0.0323555 0.999352 
0.0173571 -0.0247566 0.999543 
0.0160977 -0.0179183 0.99971 
0.0174432 -0.0137847 0.999753 
0.015396 -0.0104303 0.999827 
0.0162461 -0.00872297 0.99983 
0.0155943 -0.00734187 0.999851 
0.0154512 -0.00603019 0.999862 
0.015428 -0.00415898 0.999872 
0.0156845 -0.00160509 0.999876 
0.0157051 0.00161306 0.999875 
0.0161149 0.0053484 0.999856 
0.0158145 0.00945296 0.99983 
0.0151798 0.0140891 0.999785 
0.0145641 0.0192327 0.999709 
0.0143264 0.0256661 0.999568 
0.0139804 0.0335438 0.999339 
0.0132354 0.0434945 0.998966 
0.0126212 0.0553633 0.998386 
0.0117619 0.0700455 0.997474 
0.0112082 0.0885853 0.996005 
0.0104628 0.110977 0.993768 
0.00957353 0.142058 0.989812 
0.0081599 0.178806 0.98385 
0.00742323 0.225199 0.974284 
0.00521089 0.285968 0.958225 
0.00284052 0.365984 0.930617 
0.000400306 0.476385 0.879237 
-0.000876408 0.589461 0.807796 
-0.00139122 0.797765 0.602967 
0.00174307 0.819146 0.573582 
0.00434061 0.89826 0.439442 
0.00428698 0.963818 0.266529 
0.00177275 0.945366 0.326006 
0.00460296 0.997816 0.065868 
0.006068 0.994006 0.109127 
0.00520598 0.983876 -0.178789 
0.00458915 0.867086 -0.498141 
0.00315192 0.726271 -0.687402 
0.00135204 0.790891 -0.611956 
-0.000645295 0.657289 -0.753639 
-0.00323945 0.471959 -0.881614 
-0.0048277 0.378244 -0.925693 
-0.0063628 0.302432 -0.95315 
-0.00759252 0.237864 -0.971269 
-0.00928203 0.191204 -0.981506 
-0.0100939 0.153904 -0.988034 
-0.00967749 0.123647 -0.992279 
-0.0110747 0.097448 -0.995179 
-0.012004 0.0778238 -0.996895 
-0.0121644 0.0614677 -0.998035 
-0.0131651 0.0479054 -0.998765 
-0.013876 0.0375062 -0.9992 
-0.0142921 0.0288424 -0.999482 
-0.0147496 0.0217759 -0.999654 
-0.0150948 0.0161515 -0.999756 
-0.015061 0.0109047 -0.999827 
-0.0155186 0.00669146 -0.999857 
-0.0153942 0.0026259 -0.999878 
-0.0154767 -0.000729448 -0.99988 
-0.0155886 -0.00367482 -0.999872 
-0.0157744 -0.00582212 -0.999859 
-0.0158395 -0.00733509 -0.999848 
-0.0159122 -0.00875038 -0.999835 
-0.0158322 -0.0104906 -0.99982 
-0.0158766 -0.0134636 -0.999783 
-0.0168961 -0.0177752 -0.999699 
-0.0163874 -0.0239888 -0.999578 
-0.0171023 -0.033114 -0.999305 
-0.015049 -0.0441338 -0.998912 
-0.0152721 -0.0552969 -0.998353 
-0.0124654 -0.0598816 -0.998128 
-0.00968881 -0.0462368 -0.998883 
-0.000322517 -0.00774271 -0.99997 
0.00041525 -0.00652385 0.999976 
0.00696995 -0.0475583 0.998844 
0.0114457 -0.059538 0.99816 
0.0110693 -0.0546918 0.998442 
0.0131534 -0.0432297 0.998978 
0.0111244 -0.0317166 0.999435 
0.011854 -0.02288 0.999668 
0.0107157 -0.0164069 0.999808 
0.0115329 -0.0124685 0.999856 
0.0098381 -0.00975108 0.999904 
0.0106619 -0.00829297 0.999909 
0.0104047 -0.00721595 0.99992 
0.0104108 -0.00602118 0.999928 
0.0103637 -0.0041486 0.999938 
0.0106431 -0.00141447 0.999942 
0.0107626 0.00206279 0.99994 
0.0109073 0.00588594 0.999923 
0.0106416 0.0101521 0.999892 
0.00996101 0.0148186 0.999841 
0.00971167 0.0204868 0.999743 
0.0094643 0.0272616 0.999583 
0.00914584 0.0355857 0.999325 
0.00839111 0.0457909 0.998916 
0.00781935 0.0581883 0.998275 
0.00719724 0.0739025 0.997239 
0.00662622 0.0927674 0.995666 
0.00636899 0.117937 0.993001 
0.0054356 0.148248 0.988935 
0.00455158 0.190413 0.981693 
0.00386385 0.239731 0.970832 
0.00229818 0.308331 0.951276 
0.000724575 0.40387 0.914816 
-3.47069e-05 0.510395 0.85994 
0.000701791 0.640426 0.768019 
-0.000657036 0.717117 0.696953 
0.00617523 0.899409 0.43706 
0.00597406 0.963162 0.268847 
0.00890666 0.997525 0.0697529 
0.00894556 0.998438 0.0551387 
0.00893726 0.999879 0.0129616 
0.00778317 0.999605 -0.0270499 
0.00563951 0.99604 -0.088725 
0.00300909 0.972686 -0.232095 
0.00529946 0.871585 -0.490214 
0.00185259 0.59807 -0.801442 
-9.49565e-07 0.470835 -0.882221 
-0.00104373 0.536184 -0.844101 
-0.00220202 0.391415 -0.920211 
-0.00340438 0.309522 -0.950886 
-0.00438115 0.244451 -0.969652 
-0.00533126 0.191675 -0.981444 
-0.00601699 0.152345 -0.988309 
-0.00610355 0.117314 -0.993076 
-0.00677114 0.0931314 -0.995631 
-0.00750258 0.0739429 -0.997234 
-0.00794455 0.0576113 -0.998307 
-0.00851173 0.0452274 -0.99894 
-0.00915682 0.0352502 -0.999336 
-0.00959751 0.0269484 -0.999591 
-0.00982715 0.020318 -0.999745 
-0.0104812 0.0145951 -0.999838 
-0.0102212 0.00962846 -0.999901 
-0.0107322 0.00539413 -0.999928 
-0.0103407 0.00158547 -0.999945 
-0.0105601 -0.00177457 -0.999943 
-0.0105291 -0.00450872 -0.999934 
-0.0105796 -0.00638478 -0.999924 
-0.0107248 -0.0076378 -0.999913 
-0.0103969 -0.00873433 -0.999908 
-0.0108134 -0.010612 -0.999885 
-0.0106504 -0.0136359 -0.99985 
-0.0114408 -0.0182422 -0.999768 
-0.0108336 -0.0242041 -0.999648 
-0.0123076 -0.0318488 -0.999417 
-0.010907 -0.0421944 -0.99905 
-0.0110784 -0.0549801 -0.998426 
-0.00935762 -0.060066 -0.99815 
-0.00649048 -0.0428795 -0.999059 
-0.000296249 -0.00764593 -0.99997 
0.000330785 -0.00615657 0.999978 
0.00511638 -0.0464857 0.998906 
0.00840662 -0.0601046 0.998157 
0.00783924 -0.0535646 0.998534 