# vtk DataFile Version 3.0 
Exported using Morpho https://github.com/Morpho-lang/morpho 
ASCII 
DATASET UNSTRUCTURED_GRID 

POINTS 1978 float 
-8.48527 -2.82841 1.73767e-08 
-8.16585 -2.82843 -1.01324e-08 
-7.96988 -2.82843 -6.01731e-09 
-7.73882 -2.82843 -3.01078e-08 
-7.40656 -2.82843 -1.82817e-08 
-7.17185 -2.82843 -1.35187e-09 
-6.96085 -2.82843 1.35376e-08 
-6.7401 -2.82843 3.67249e-09 
-6.53471 -2.82843 -1.1508e-08 
-6.32888 -2.82843 6.20469e-09 
-6.12773 -2.82843 -1.33849e-08 
-5.92468 -2.82843 1.04349e-08 
-5.71556 -2.82842 -1.01307e-08 
-5.5032 -2.82843 -4.50247e-09 
-5.2799 -2.82843 1.26087e-08 
-5.05967 -2.82843 -1.86539e-08 
-4.85033 -2.82843 2.37136e-09 
-4.64494 -2.82843 1.33878e-09 
-4.42986 -2.82843 -5.82065e-09 
-4.22233 -2.82843 3.43704e-09 
-4.01711 -2.82843 4.13728e-09 
-3.82448 -2.82843 7.20136e-09 
-3.6153 -2.82843 1.18733e-08 
-3.41198 -2.82843 2.36317e-08 
-3.16997 -2.82842 4.94403e-08 
-2.92184 -2.82843 6.45509e-08 
-2.70278 -2.82843 8.74566e-08 
-2.46686 -2.82843 1.26141e-07 
-2.22762 -2.82843 1.97063e-07 
-1.95546 -2.82843 1.98599e-07 
-1.75995 -2.82843 2.19961e-07 
-1.56425 -2.82843 2.4502e-07 
-1.38109 -2.82843 1.87986e-07 
-1.20865 -2.82843 2.10374e-07 
-1.00081 -2.82843 1.57435e-07 
-0.814974 -2.82842 7.55228e-08 
-0.65366 -2.82843 1.26869e-08 
-0.474416 -2.82843 -3.01302e-08 
-0.294357 -2.82842 -1.3981e-07 
0.0074109 -2.82843 -8.36216e-09 
0.354416 -2.82843 9.74338e-08 
0.524622 -2.82843 4.00776e-08 
0.666077 -2.82843 -6.89504e-08 
0.853438 -2.82843 -5.59614e-08 
1.02301 -2.82843 -1.20436e-07 
1.18867 -2.82843 -2.39338e-07 
1.36085 -2.82843 -2.11096e-07 
1.54894 -2.82842 -2.00667e-07 
1.72196 -2.82843 -2.13605e-07 
1.93737 -2.82843 -2.54809e-07 
2.20251 -2.82843 -1.99225e-07 
2.47438 -2.82843 -1.43197e-07 
2.71606 -2.82843 -9.34423e-08 
2.9541 -2.82843 -6.41188e-08 
3.19759 -2.82843 -4.29742e-08 
3.41855 -2.82843 -2.92409e-08 
3.63286 -2.82843 -7.9237e-09 
3.83655 -2.82843 -1.35343e-08 
4.03573 -2.82843 5.72408e-11 
4.24831 -2.82843 -1.91527e-10 
4.44773 -2.82843 -1.88294e-09 
4.64548 -2.82843 6.28247e-09 
4.84811 -2.82843 -5.23756e-09 
5.05673 -2.82843 7.64702e-09 
5.26887 -2.82843 5.70044e-09 
5.49315 -2.82843 1.46232e-10 
5.70771 -2.82843 -2.5418e-09 
5.9284 -2.82843 1.0728e-08 
6.1511 -2.82843 -2.64606e-09 
6.36272 -2.82843 1.34494e-08 
6.58313 -2.82843 -5.71159e-09 
6.80749 -2.82843 7.28497e-09 
7.02079 -2.82843 -1.37047e-08 
7.28377 -2.82842 -1.78517e-08 
7.52505 -2.82843 4.34748e-08 
7.75632 -2.82843 3.09278e-08 
8.02785 -2.82843 -3.082e-08 
8.22122 -2.82843 2.55411e-08 
8.48527 -2.82841 -4.4142e-09 
-8.48528 -2.52383 -3.53857e-08 
-8.2965 -2.64595 -8.35833e-10 
-8.05527 -2.53534 -1.13186e-09 
-7.85105 -2.58187 -1.02984e-09 
-7.59188 -2.65699 -1.43018e-09 
-7.25475 -2.6 -6.97294e-10 
-7.01633 -2.57562 -2.82711e-10 
-6.79994 -2.58993 -4.54156e-10 
-6.57058 -2.57317 -5.03815e-10 
-6.35595 -2.57712 -5.84831e-10 
-6.13767 -2.57145 -4.48661e-10 
-5.92859 -2.57287 -2.14008e-10 
-5.71625 -2.58329 -1.93695e-10 
-5.49258 -2.59278 1.73537e-10 
-5.26333 -2.59297 3.28429e-10 
-5.0419 -2.58625 6.07246e-10 
-4.82916 -2.58677 1.06026e-09 
-4.60693 -2.60037 1.5004e-09 
-4.38615 -2.59337 2.11851e-09 
-4.16918 -2.59119 2.98759e-09 
-3.9616 -2.57123 3.76683e-09 
-3.74623 -2.58194 4.025e-09 
-3.52326 -2.55914 3.80961e-09 
-3.29793 -2.58918 4.64425e-09 
-3.03175 -2.58211 6.84281e-09 
-2.80067 -2.55015 5.0409e-09 
-2.57953 -2.57878 7.38435e-09 
-2.35539 -2.60397 7.61947e-09 
-2.10338 -2.65474 1.01106e-08 
-1.88324 -2.60691 9.55394e-09 
-1.70439 -2.63083 -6.38536e-08 
-1.51351 -2.64304 4.49385e-08 
-1.33518 -2.66434 -9.66e-09 
-1.12983 -2.7108 3.67242e-08 
-0.910406 -2.71724 7.44289e-08 
-0.82235 -2.61341 -8.94118e-08 
-0.717497 -2.71226 -2.42947e-08 
-0.536395 -2.72661 -1.89236e-08 
-0.340783 -2.73364 1.26469e-08 
-0.12428 -2.77087 1.79951e-07 
0.171601 -2.77706 -1.40306e-08 
0.489062 -2.71559 1.83826e-08 
0.646038 -2.6952 1.15815e-07 
0.795882 -2.72444 -7.74674e-08 
0.993678 -2.70827 -6.78256e-08 
1.18953 -2.68802 6.57495e-08 
1.37627 -2.67982 -5.09058e-08 
1.54892 -2.63503 -1.31171e-07 
1.73786 -2.64467 6.98538e-08 
1.96924 -2.65182 -8.02069e-09 
2.21971 -2.63508 -1.37632e-08 
2.45099 -2.59912 -2.91679e-09 
2.68533 -2.5851 -5.97453e-09 
2.92905 -2.56531 -7.31217e-09 
3.17216 -2.57117 -3.83357e-09 
3.4103 -2.56399 -6.06261e-09 
3.63159 -2.57173 -2.01589e-09 
3.85051 -2.58108 -4.08862e-09 
4.07567 -2.6017 -3.04102e-09 
4.28788 -2.58583 -2.46784e-09 
4.49602 -2.58159 -1.88149e-09 
4.70469 -2.58398 -1.26259e-09 
4.91762 -2.58611 -8.52682e-10 
5.13373 -2.58469 -4.90073e-10 
5.3581 -2.59512 -2.01809e-10 
5.57957 -2.58247 5.40653e-11 
5.79981 -2.59008 3.03734e-10 
6.02399 -2.59379 4.94547e-10 
6.24146 -2.58182 6.22786e-10 
6.45935 -2.5897 6.56847e-10 
6.68161 -2.59106 5.52993e-10 
6.90098 -2.57344 3.77713e-10 
7.136 -2.61732 1.44186e-10 
7.38599 -2.59929 5.58153e-10 
7.61693 -2.59104 9.53312e-10 
7.86847 -2.62504 6.31777e-10 
8.07699 -2.54519 1.24962e-10 
8.30592 -2.62248 4.46522e-10 
8.48528 -2.52344 -2.05185e-08 
-8.48528 -2.30562 5.5211e-08 
-8.22127 -2.3784 -6.7073e-10 
-7.95771 -2.2804 -8.07857e-10 
-7.7239 -2.40627 -1.32505e-09 
-7.56591 -2.26369 -1.97107e-09 
-7.44177 -2.50362 -1.48132e-09 
-7.13658 -2.35977 -8.17391e-10 
-6.90607 -2.3248 -6.5583e-10 
-6.69196 -2.35004 -7.54633e-10 
-6.46065 -2.32773 -6.61538e-10 
-6.23983 -2.33835 -6.77011e-10 
-6.02172 -2.31939 -4.51639e-10 
-5.81001 -2.32895 -4.47643e-10 
-5.59331 -2.3557 -1.85557e-10 
-5.37051 -2.36282 2.1878e-10 
-5.14648 -2.35621 7.21139e-10 
-4.9258 -2.3444 1.23875e-09 
-4.70917 -2.3669 1.88913e-09 
-4.49068 -2.37078 2.7212e-09 
-4.26681 -2.35975 3.66586e-09 
-4.05659 -2.3354 4.62597e-09 
-3.83589 -2.33316 5.98403e-09 
-3.61722 -2.32871 6.27528e-09 
-3.37619 -2.31581 7.82702e-09 
-3.14701 -2.37115 5.79812e-09 
-2.89984 -2.29856 9.43151e-09 
-2.67832 -2.30622 5.76951e-09 
-2.47235 -2.34701 1.25505e-08 
-2.24083 -2.43706 5.47335e-09 
-2.02977 -2.44282 4.872e-08 
-1.8291 -2.38718 -1.91591e-07 
-1.63588 -2.46828 2.79767e-07 
-1.43342 -2.4858 -1.00312e-07 
-1.23797 -2.55637 -1.60567e-08 
-1.04188 -2.60214 -1.25028e-07 
-0.802291 -2.48756 -5.44983e-09 
-0.543536 -2.61652 -1.63803e-07 
-0.366588 -2.63762 1.08111e-07 
-0.16824 -2.68696 -2.02325e-07 
0.046654 -2.71597 -1.24938e-07 
0.280803 -2.71205 4.18061e-09 
0.397296 -2.64648 -7.49528e-08 
0.695343 -2.5674 -2.57075e-08 
0.844976 -2.61223 1.07509e-07 
1.03234 -2.58954 -8.91106e-08 
1.21411 -2.54961 1.45964e-09 
1.39123 -2.5148 -3.0118e-08 
1.57259 -2.44841 -5.66456e-08 
1.75587 -2.4656 2.5529e-08 
1.98438 -2.46981 -4.03948e-08 
2.21026 -2.42668 -1.16376e-08 
2.42167 -2.37705 -8.6906e-09 
2.65205 -2.35094 -9.34341e-09 
2.88172 -2.32723 -5.60743e-09 
3.12973 -2.32347 -5.59827e-09 
3.37295 -2.31511 -6.23109e-09 
3.60408 -2.31869 -6.47258e-09 
3.82468 -2.33883 -6.16537e-09 
4.03977 -2.37075 -4.63772e-09 
4.25362 -2.34968 -3.64233e-09 
4.4635 -2.34196 -2.83687e-09 
4.67288 -2.34121 -2.0721e-09 
4.88041 -2.34555 -1.46592e-09 
5.09181 -2.34466 -9.07678e-10 
5.31066 -2.35905 -4.23601e-10 
5.52921 -2.34641 -1.38962e-11 
5.75211 -2.34842 3.32974e-10 
5.97013 -2.35943 6.07755e-10 
6.18834 -2.34467 7.30718e-10 
6.40794 -2.34798 7.63811e-10 
6.62558 -2.35129 8.66094e-10 
6.84124 -2.33399 9.11156e-10 
7.07615 -2.37161 6.70353e-10 
7.30305 -2.38483 7.94758e-10 
7.5456 -2.35115 1.17063e-09 
7.78335 -2.39363 8.47603e-10 
7.99325 -2.31383 2.02211e-10 
8.24409 -2.35926 2.25565e-10 
8.48528 -2.29701 5.01963e-09 
-8.48528 -2.0801 2.27706e-08 
-8.23868 -2.16389 -7.4365e-10 
-8.07039 -2.03487 7.34177e-10 
-7.80024 -2.12132 -3.17446e-11 
-7.52738 -2.04529 -4.75512e-10 
-7.32303 -2.27345 -1.60762e-09 
-7.05512 -2.10961 -4.67476e-10 
-6.81663 -2.0833 -2.74719e-10 
-6.59855 -2.117 -2.13768e-10 
-6.35009 -2.10455 -1.2676e-12 
-6.13161 -2.09522 1.1153e-10 
-5.90401 -2.08291 1.28661e-10 
-5.68847 -2.10395 4.58668e-11 
-5.475 -2.12564 1.42991e-10 
-5.25642 -2.12842 2.79177e-10 
-5.0375 -2.11969 3.29247e-10 
-4.81353 -2.11901 4.65987e-10 
-4.60597 -2.13815 7.51342e-10 
-4.39121 -2.14117 1.08595e-09 
-4.18152 -2.10651 9.69285e-10 
-3.96626 -2.09741 1.10173e-09 
-3.74725 -2.0894 1.22344e-09 
-3.52123 -2.09597 1.76156e-09 
-3.28852 -2.06414 1.51207e-09 
-3.09499 -2.13776 1.70806e-09 
-2.85215 -2.05563 8.52369e-10 
-2.63248 -2.07645 1.62987e-09 
-2.43596 -2.11725 2.94894e-09 
-2.25045 -2.23799 9.72538e-09 
-2.03171 -2.24227 -7.45109e-10 
-1.79407 -2.23294 2.0225e-07 
-1.57831 -2.32183 -1.03376e-07 
-1.35866 -2.37165 1.60247e-07 
-1.23243 -2.30977 -1.35111e-07 
-1.16393 -2.45184 2.32427e-08 
-0.9548 -2.51211 1.0057e-07 
-0.653788 -2.57073 1.55441e-07 
-0.298994 -2.55599 4.06224e-08 
-0.140259 -2.58829 6.89176e-08 
0.168568 -2.62771 6.36827e-09 
0.30193 -2.56577 -6.60981e-09 
0.558119 -2.57579 -1.10345e-07 
0.626869 -2.42662 3.93242e-07 
0.921285 -2.49017 4.00293e-07 
1.09497 -2.45043 1.06366e-07 
1.2846 -2.39445 6.81383e-08 
1.46161 -2.3379 -1.84329e-07 
1.67829 -2.26911 1.39222e-07 
1.86985 -2.30563 -2.47362e-08 
2.08055 -2.26277 -5.1239e-09 
2.27521 -2.18653 -2.21068e-08 
2.48 -2.15745 2.19616e-08 
2.68126 -2.11652 -1.80408e-08 
2.90662 -2.10138 -1.29312e-09 
3.14598 -2.09325 -2.62058e-09 
3.37503 -2.0739 -5.32892e-10 
3.60322 -2.07759 -1.09162e-09 
3.83205 -2.10307 -1.47977e-09 
4.05678 -2.13269 -1.7656e-09 
4.27498 -2.11241 -7.47388e-10 
4.49149 -2.10748 -5.29493e-10 
4.70269 -2.1016 -4.00015e-10 
4.9126 -2.10599 -3.41005e-10 
5.13407 -2.11425 -2.54415e-10 
5.3481 -2.11999 -1.5731e-10 
5.57299 -2.11449 -5.46957e-11 
5.79244 -2.11288 -1.77355e-12 
6.00536 -2.12074 2.52791e-11 
6.22496 -2.11023 -6.96327e-11 
6.44138 -2.11025 7.78461e-12 
6.64943 -2.10234 1.7922e-10 
6.88143 -2.1098 2.64786e-10 
7.10369 -2.13124 4.09862e-10 
7.33113 -2.15074 7.19191e-10 
7.53326 -2.08544 6.5771e-10 
7.7441 -2.15005 3.43441e-10 
7.97199 -2.08114 -8.51955e-10 
8.21694 -2.13682 -2.18335e-10 
8.48528 -2.08977 -9.35559e-09 
-8.48528 -1.74288 2.74489e-09 
-8.32567 -1.9042 -1.90737e-10 
-7.90871 -1.87926 1.45698e-09 
-7.6838 -1.88637 6.90303e-10 
[...]
POINT_DATA 1978 
VECTORS vectors float
0.00450994 -0.00694326 0.999966 
0.00548567 -0.0368645 0.999303 
0.00481787 -0.0317984 0.999482 
0.00532226 -0.0134311 0.999892 
0.00560786 -0.00255566 0.999977 
0.00520628 -0.00192841 0.999984 
0.00500971 -0.006261 0.999967 
0.00501114 -0.00879528 0.999948 
0.00489655 -0.0095038 0.999942 
0.00479837 -0.00890365 0.999948 
0.00482221 -0.00815264 0.999954 
0.00481442 -0.00802729 0.999956 
0.00494033 -0.00682612 0.999964 
0.00496423 -0.00464534 0.999976 
0.00496455 0.000257162 0.999987 
0.00480421 0.00689208 0.999964 
0.00469574 0.0149205 0.999877 
0.00465068 0.0243092 0.999693 
0.00461753 0.0355601 0.999356 
0.00444613 0.0482184 0.998826 
0.0043236 0.0625517 0.998032 
0.00415377 0.0770863 0.997015 
0.00413396 0.0942211 0.995542 
0.00418 0.112075 0.99369 
0.00417492 0.134632 0.990886 
0.00390823 0.160399 0.987044 
0.00354305 0.184797 0.98277 
0.00342316 0.213201 0.977002 
0.00319653 0.244988 0.96952 
0.00276842 0.28653 0.958067 
0.00222085 0.320688 0.947182 
0.0016167 0.364195 0.931321 
0.001255 0.418612 0.908164 
0.000947693 0.474287 0.88037 
9.32194e-05 0.57577 0.817612 
-8.73059e-05 0.674182 0.738565 
-0.000123453 0.7604 0.649454 
-0.000565741 0.854721 0.519087 
-0.000347133 0.939046 0.34379 
3.00364e-05 0.999659 -0.0261308 
9.2178e-05 0.916496 -0.400044 
0.000468387 0.823036 -0.567989 
0.000269982 0.746422 -0.665473 
0.000118315 0.634668 -0.772785 
-0.000202428 0.551378 -0.834256 
-0.000805542 0.477865 -0.878433 
-0.00102971 0.418765 -0.908094 
-0.00142586 0.36397 -0.93141 
-0.00198369 0.325654 -0.945486 
-0.00257802 0.284022 -0.958814 
-0.00321856 0.242138 -0.970236 
-0.00348235 0.208384 -0.97804 
-0.00373209 0.182875 -0.983128 
-0.00390824 0.157843 -0.987456 
-0.00403559 0.132395 -0.991188 
-0.00410688 0.111068 -0.993804 
-0.00411206 0.0914695 -0.995799 
-0.00424549 0.0742713 -0.997229 
-0.00435224 0.0590245 -0.998246 
-0.00442524 0.0443402 -0.999006 
-0.00449985 0.0325161 -0.999461 
-0.00454524 0.0230377 -0.999724 
-0.00465156 0.0152543 -0.999872 
-0.00479591 0.00877159 -0.999949 
-0.00490798 0.00320157 -0.999982 
-0.00496907 -0.00170435 -0.999985 
-0.00502185 -0.00546588 -0.999972 
-0.00500469 -0.00835483 -0.999952 
-0.00498282 -0.0114494 -0.999921 
-0.00499785 -0.0148385 -0.999877 
-0.00500717 -0.0173628 -0.999836 
-0.00521009 -0.016146 -0.999855 
-0.00555128 -0.00942375 -0.999939 
-0.00562397 0.00560095 -0.999967 
-0.00535497 0.0127838 -0.999903 
-0.00505436 0.00876499 -0.999947 
-0.00480507 -0.0123152 -0.999911 
-0.00493466 -0.0201406 -0.999784 
-0.00390172 -0.00716969 -0.999966 
0.0027774 -0.0068596 0.999974 
0.0112122 -0.0244887 0.999638 
0.0206518 -0.0315956 0.999287 
0.0218671 -0.0250254 0.999448 
0.0195934 -0.00938573 0.999764 
0.0236332 -0.00378522 0.999713 
0.0244143 -0.00559913 0.999686 
0.0239839 -0.00729739 0.999686 
0.024554 -0.00847248 0.999663 
0.0245971 -0.00894531 0.999657 
0.0242385 -0.00887029 0.999667 
0.0237981 -0.00830822 0.999682 
0.0233039 -0.00639454 0.999708 
0.021591 -0.0030807 0.999762 
0.0216418 0.0020603 0.999764 
0.0214578 0.00873445 0.999732 
0.0205826 0.0167237 0.999648 
0.0189181 0.0268503 0.99946 
0.0178211 0.0389623 0.999082 
0.0158199 0.0528925 0.998475 
0.0128332 0.0682885 0.997583 
0.00793874 0.0855379 0.996303 
0.00133244 0.105475 0.994421 
-0.0048003 0.125936 0.992027 
-0.0133594 0.153141 0.988114 
-0.0265679 0.180051 0.983298 
-0.0307502 0.205089 0.97826 
-0.0363503 0.232644 0.971882 
-0.034774 0.265622 0.96345 
-0.0501079 0.30325 0.951593 
-0.0501172 0.339429 0.939296 
-0.0525734 0.382877 0.922302 
-0.0486621 0.427088 0.9029 
-0.0312951 0.507627 0.861008 
-0.0288887 0.619663 0.784336 
-0.0544073 0.664102 0.745659 
-0.0223904 0.723595 0.689862 
-0.0135816 0.823768 0.566764 
-0.00785221 0.921266 0.388854 
-0.00140333 0.989411 0.145134 
0.000742333 0.976694 -0.214633 
0.00869955 0.845947 -0.533196 
0.0218614 0.755432 -0.654862 
0.0221792 0.671013 -0.741113 
0.0368151 0.566367 -0.82333 
0.0427146 0.479628 -0.876431 
0.048426 0.411995 -0.909898 
0.0618081 0.369679 -0.927101 
0.0522905 0.326041 -0.943908 
0.0418565 0.282301 -0.958412 
0.0375316 0.245536 -0.968661 
0.0368304 0.218467 -0.975149 
0.0274536 0.191422 -0.981124 
0.0204144 0.165368 -0.98602 
0.0112994 0.139777 -0.990118 
0.00321594 0.115755 -0.993273 
-0.00415307 0.0944836 -0.995518 
-0.00954996 0.0754025 -0.997107 
-0.0137968 0.0578245 -0.998231 
-0.0170562 0.043557 -0.998905 
-0.0190458 0.0315997 -0.999319 
-0.0200526 0.0217955 -0.999561 
-0.0209426 0.0138864 -0.999684 
-0.0218147 0.00739745 -0.999735 
-0.0219829 0.00174022 -0.999757 
-0.0229164 -0.0028463 -0.999733 
-0.022961 -0.00666377 -0.999714 
-0.0230711 -0.00996913 -0.999684 
-0.0239893 -0.0128509 -0.99963 
-0.0236866 -0.0147338 -0.999611 
-0.0236677 -0.0144917 -0.999615 
-0.0244048 -0.0108674 -0.999643 
-0.0211798 -0.00365274 -0.999769 
-0.0211844 0.00432081 -0.999766 
-0.0199456 0.00428774 -0.999792 
-0.0163146 -0.00480043 -0.999855 
-0.0136353 -0.0161288 -0.999777 
-0.0089152 -0.0155618 -0.999839 
-0.00253358 -0.0064982 -0.999977 
0.00422189 -0.00704827 0.999966 
0.0178084 -0.0286735 0.99943 
0.0238724 -0.0351876 0.999095 
0.0277504 -0.0219829 0.999373 
0.0287874 -0.016229 0.999454 
0.0266088 -0.00691594 0.999622 
0.0304057 -0.00557323 0.999522 
0.0306069 -0.0066845 0.999509 
0.0305205 -0.00779498 0.999504 
0.0299237 -0.00932089 0.999509 
0.0304793 -0.00994762 0.999486 
0.0299523 -0.00936596 0.999507 
0.0296416 -0.00704501 0.999536 
0.0290195 -0.00368879 0.999572 
0.0283328 0.000638028 0.999598 
0.0274517 0.00669326 0.999601 
0.0259206 0.0143905 0.99956 
0.0244777 0.0233494 0.999428 
0.0222084 0.0346597 0.999152 
0.018604 0.0489378 0.998628 
0.0131301 0.0648552 0.997808 
0.00587065 0.0835399 0.996487 
-0.0040835 0.104067 0.994562 
-0.0182605 0.129012 0.991475 
-0.0278939 0.151663 0.988039 
-0.0550485 0.18594 0.981018 
-0.0711611 0.211628 0.974756 
-0.0826312 0.235614 0.968327 
-0.0788181 0.258926 0.962676 
-0.0908916 0.289851 0.952746 
-0.121357 0.327921 0.936878 
-0.11219 0.365807 0.923904 
-0.112055 0.417896 0.901558 
-0.0814295 0.472256 0.877692 
-0.0622768 0.553854 0.830282 
-0.0884017 0.68041 0.72748 
-0.0283106 0.819968 0.571708 
-0.0149071 0.909421 0.41561 
-0.00414482 0.983163 0.182688 
0.000238671 0.997661 -0.06836 
0.0030779 0.944404 -0.328772 
0.00767062 0.897762 -0.440415 
0.0493859 0.722334 -0.689779 
0.0491332 0.651202 -0.757313 
0.0711687 0.547924 -0.833495 
0.0892546 0.474229 -0.875865 
0.107355 0.417034 -0.902528 
0.13378 0.375615 -0.917069 
0.11187 0.335414 -0.935405 
0.0956022 0.292311 -0.951533 
0.0878956 0.261762 -0.961122 
0.0836169 0.239293 -0.96734 
0.0685624 0.211582 -0.974952 
0.0546275 0.186197 -0.980993 
0.0367558 0.157749 -0.986795 
0.0205205 0.129805 -0.991327 
0.00631285 0.105018 -0.99445 
-0.00498253 0.0831469 -0.996525 
-0.0135046 0.0643272 -0.997837 
-0.0179058 0.0489707 -0.99864 
-0.0213501 0.03588 -0.999128 
-0.0239444 0.0250891 -0.999398 
-0.0259347 0.0165818 -0.999526 
-0.0273315 0.00968513 -0.999579 
-0.0283756 0.00369798 -0.99959 
-0.0291236 -0.00132259 -0.999575 
-0.0298606 -0.00586696 -0.999537 
-0.03041 -0.00974897 -0.99949 
-0.0305776 -0.0128516 -0.99945 
-0.0304835 -0.014192 -0.999434 
-0.0303265 -0.0132499 -0.999452 
-0.0300134 -0.010436 -0.999495 
-0.0296237 -0.00628054 -0.999541 
-0.0285137 -0.00193048 -0.999591 
-0.0255074 -0.00370679 -0.999668 
-0.0221169 -0.0108566 -0.999696 
-0.0166258 -0.0235074 -0.999585 
-0.0107472 -0.0192203 -0.999758 
-0.00356958 -0.00681131 -0.999971 
0.00224152 -0.00764347 0.999965 
0.0146371 -0.0305523 0.999426 
0.0130552 -0.0418185 0.99904 
0.0196157 -0.0330619 0.999261 
0.016913 -0.0181142 0.999693 
0.0294537 -0.00736825 0.999539 
0.0212771 -0.00706785 0.999749 
0.0194383 -0.00778685 0.999781 
0.0213728 -0.00948176 0.999727 
0.0212707 -0.0118277 0.999704 
0.0209314 -0.0116079 0.999713 
0.0197306 -0.00905759 0.999764 
0.0206409 -0.00506793 0.999774 
0.0209291 -0.000616151 0.999781 
0.0198693 0.00505171 0.99979 
0.017687 0.0121908 0.999769 
0.0154709 0.0211199 0.999657 
0.0139262 0.0310276 0.999421 
0.010484 0.0439264 0.99898 
0.00297447 0.0599955 0.998194 
-0.00510719 0.0789254 0.996867 
-0.0162863 0.101348 0.994718 
-0.0303453 0.126756 0.99147 
-0.0528933 0.158795 0.985894 
-0.0606994 0.1757 0.982571 
-0.101868 0.22017 0.970128 
-0.126511 0.249839 0.959987 
-0.145566 0.272401 0.951109 
-0.134484 0.281994 0.949944 
-0.163284 0.316753 0.934348 
-0.194494 0.359651 0.912592 
-0.17284 0.394545 0.902475 
-0.164666 0.447957 0.87876 
-0.20179 0.492242 0.846746 
-0.123055 0.506625 0.853339 
-0.0911818 0.597351 0.796779 
-0.0485767 0.75124 0.658239 
-0.0160309 0.939749 0.341491 
-0.00611914 0.985761 0.168043 
0.00142129 0.978472 -0.206376 
0.00537217 0.937921 -0.346807 
0.0288685 0.803801 -0.594197 
0.0640162 0.757121 -0.65013 
0.0935714 0.597195 -0.79662 
0.125467 0.522699 -0.843234 
0.157414 0.453373 -0.877311 
0.18726 0.41159 -0.891923 
0.206681 0.37255 -0.904704 
0.164868 0.33108 -0.929088 
0.152947 0.301362 -0.941163 
0.152699 0.284288 -0.9465 
0.130569 0.258552 -0.957132 
0.11614 0.238972 -0.964056 
0.0899207 0.208552 -0.973869 
0.0653414 0.176168 -0.982189 
0.0465945 0.14839 -0.987831 
0.0284101 0.119017 -0.992486 
0.0118 0.0916104 -0.995725 
3.03508e-06 0.0690482 -0.997613 
-0.00526225 0.0521544 -0.998625 
-0.00982799 0.037726 -0.99924 
-0.0130405 0.0263876 -0.999567 
-0.015883 0.0174056 -0.999722 
-0.0183626 0.00988879 -0.999782 
-0.0201688 0.00383089 -0.999789 
-0.0211199 -0.00184988 -0.999775 
-0.0218149 -0.00702803 -0.999737 
-0.0226142 -0.0113879 -0.999679 
-0.0219434 -0.0144303 -0.999655 
-0.021385 -0.0148076 -0.999662 
-0.0203211 -0.012955 -0.999709 
-0.02025 -0.0101402 -0.999743 
-0.0207342 -0.00764467 -0.999756 
-0.0206409 -0.00611667 -0.999768 
-0.0147273 -0.011139 -0.999829 
-0.0150708 -0.0197587 -0.999691 
-0.00761221 -0.0331018 -0.999423 
-0.00654076 -0.0255177 -0.999653 
-0.00199148 -0.00671844 -0.999976 
0.000670778 -0.00805772 0.999962 
0.00517575 -0.024664 0.999683 
0.00666688 -0.0440696 0.999006 
0.00734512 -0.0301819 0.999517 
0.00376426 -0.0169622 0.999849 
0.0173637 -0.00953487 0.999804 
0.00627194 -0.00963464 0.999934 
0.00781328 -0.00844273 0.999934 
0.00694752 -0.00979389 0.999928 
0.0107032 -0.0121423 0.999869 
0.0101438 -0.0142973 0.999846 
0.0103967 -0.0126153 0.999866 
0.010359 -0.00822733 0.999912 
0.0106932 -0.00278743 0.999939 
0.01014 0.00305023 0.999944 
0.0086401 0.00985904 0.999914 
0.00637419 0.0180673 0.999816 
0.00315807 0.0283689 0.999592 
0.000378171 0.0399463 0.999202 
-0.00546919 0.0551307 0.998464 
-0.0144694 0.075329 0.997054 
-0.0256722 0.0987722 0.994779 
-0.041109 0.126989 0.991052 
-0.0608765 0.158398 0.985497 
-0.0909434 0.1994 0.975689 
-0.107293 0.220031 0.969574 
-0.156113 0.273559 0.949102 
-0.194318 0.308215 0.931259 
-0.212154 0.322274 0.922567 
-0.206442 0.324867 0.922953 
-0.233913 0.358649 0.90369 
-0.297836 0.408918 0.862601 
-0.244207 0.406024 0.880629 
-0.23674 0.437658 0.867415 
-0.205323 0.550965 0.808876 
-0.141093 0.574768 0.806061 
-0.135681 0.646521 0.750734 
-0.0527204 0.814008 0.578456 
-0.0312616 0.865486 0.499956 
-0.0105243 0.97597 0.21765 
0.00192319 0.975038 -0.22203 
0.0219074 0.856865 -0.515075 
0.083515 0.673341 -0.734601 
0.154035 0.569294 -0.807575 
0.205003 0.481025 -0.852402 
0.256031 0.439076 -0.861197 
0.267929 0.410789 -0.871474 
0.266919 0.382383 -0.884611 
0.232841 0.35202 -0.906569 
0.227952 0.337659 -0.913249 
0.21952 0.326116 -0.919488 
0.193407 0.305368 -0.932386 
0.170483 0.285348 -0.943139 
0.13717 0.253032 -0.957684 
0.105209 0.217325 -0.970413 
0.0811362 0.186282 -0.97914 
0.0581936 0.152362 -0.98661 
0.0360799 0.11648 -0.992537 
0.0201715 0.0874876 -0.995961 
0.010966 0.0666009 -0.997719 
0.00413095 0.0484791 -0.998816 
-0.000483839 0.0344913 -0.999405 
-0.00413318 0.0235406 -0.999714 
-0.00746009 0.0147208 -0.999864 
-0.00926498 0.0076147 -0.999928 
-0.0110018 0.0011378 -0.999939 
-0.0115508 -0.00529105 -0.999919 
-0.0117432 -0.0111363 -0.999869 
-0.011667 -0.0152981 -0.999815 
-0.0106172 -0.0166554 -0.999805 
-0.00834882 -0.0148943 -0.999854 
-0.00780132 -0.0117789 -0.9999 
-0.00695936 -0.0100309 -0.999925 
-0.00661064 -0.00990685 -0.999929 
-0.00308174 -0.0154107 -0.999876 
-0.00165754 -0.0290974 -0.999575 
0.00171257 -0.0395458 -0.999216 
-0.000114536 -0.0270289 -0.999635 
-0.000338851 -0.00687033 -0.999978 
-0.00088698 -0.00737876 0.999973 
-3.20412e-05 -0.0322497 0.99948 
0.00271939 -0.0424426 0.999095 
-0.000923985 -0.0465512 0.998915 
-0.000791901 -0.0325752 0.999469 
-0.00158706 -0.0114952 0.999933 
-0.000708356 -0.00929606 0.999956 
0.0010275 -0.0105161 0.999944 
0.00336521 -0.0140576 0.999895 
0.00499204 -0.0162864 0.999855 
0.00667782 -0.0153375 0.99986 
0.00760852 -0.0108837 0.999912 
0.00753291 -0.0042823 0.999962 
0.00687161 0.00247117 0.999973 
0.00602578 0.00950885 0.999937 
0.00404276 0.0174488 0.99984 
0.00104571 0.0271029 0.999632 
-0.00309717 0.0400029 0.999195 
-0.00825944 0.0546126 0.998473 
-0.016173 0.0745828 0.997084 
-0.028194 0.101175 0.994469 
-0.0442473 0.132129 0.990244 
-0.0658249 0.168171 0.983558 
-0.0919732 0.20603 0.974214 
-0.12851 0.256826 0.957875 
-0.149616 0.273758 0.95009 
-0.210361 0.338284 0.917231 
-0.257471 0.373027 0.891381 
-0.275944 0.376745 0.884261 
-0.274635 0.372441 0.88649 
-0.34763 0.425529 0.835511 
-0.304423 0.3994 0.864758 
-0.325042 0.444335 0.834814 
-0.38251 0.474544 0.792776 
-0.287625 0.470431 0.834246 
-0.266556 0.520878 0.810946 
-0.196783 0.616953 0.762001 
-0.0836267 0.746497 0.660113 
-0.0119772 0.98151 0.191032 
-0.00253198 0.999919 -0.0124668 
0.000282613 0.984887 -0.173197 
0.0658572 0.78891 -0.61097 
0.214921 0.585321 -0.781798 
0.216698 0.523971 -0.823709 
0.303393 0.468881 -0.82952 
0.349127 0.440982 -0.826828 
0.329387 0.417285 -0.846981 
0.319695 0.401459 -0.858269 
0.301892 0.388197 -0.870726 
0.282749 0.380631 -0.880439 
0.252107 0.364373 -0.896479 
0.218433 0.341549 -0.914129 
0.179396 0.30737 -0.934527 
0.141855 0.267547 -0.953046 
0.111219 0.232386 -0.966244 
0.0843999 0.196987 -0.976767 
0.0581515 0.154895 -0.986218 
0.0381305 0.118416 -0.992232 
0.0248627 0.0915794 -0.995487 
0.0144272 0.067847 -0.997591 
0.00714966 0.0499303 -0.998727 
0.00178297 0.0357817 -0.999358 
-0.00225374 0.0245122 -0.999697 
-0.00496888 0.0156799 -0.999865 
-0.00675193 0.00820749 -0.999943 
-0.00800668 0.000886802 -0.999967 
-0.00842011 -0.00627604 -0.999945 
-0.00820729 -0.0126544 -0.999886 
-0.00753017 -0.0172971 -0.999822 
-0.00620625 -0.0185092 -0.999809 
-0.00376592 -0.0160505 -0.999864 
-0.00162221 -0.0123677 -0.999922 
0.000478911 -0.0112754 -0.999936 
0.00151899 -0.0132947 -0.99991 
0.00355013 -0.0220461 -0.999751 
0.00418738 -0.0347446 -0.999387 
0.00530782 -0.0451194 -0.998967 
0.00420041 -0.0327231 -0.999455 
0.0014219 -0.00724161 -0.999974 
-0.000593863 -0.00683406 0.999977 
-0.00164696 -0.0327314 0.999463 
-0.0018703 -0.046977 0.998894 
-0.00356355 -0.0383125 0.999259 
-0.00270015 -0.0207526 0.999781 
-0.00360957 -0.0132767 0.999905 
-0.0021987 -0.0102532 0.999945 
0.00073482 -0.0125448 0.999921 
0.00284106 -0.015527 0.999875 
0.00600625 -0.018791 0.999805 
0.00725443 -0.0177127 0.999817 
0.00909621 -0.0130998 0.999873 
0.00956474 -0.00575733 0.999938 
0.00944255 0.00250484 0.999952 
0.00845941 0.0103586 0.999911 
0.00668989 0.0184812 0.999807 
0.00425938 0.0279997 0.999599 
0.000332734 0.0397307 0.99921 
-0.0048801 0.0560282 0.998417 
-0.0121159 0.0746556 0.997136 
-0.0229578 0.100187 0.994704 
-0.0382578 0.133321 0.990334 
-0.0588568 0.17207 0.983325 
-0.0860099 0.215708 0.972662 
-0.1165 0.260499 0.958419 
-0.159585 0.319479 0.934059 
-0.184426 0.329883 0.925832 
-0.234032 0.395483 0.888157 
-0.270509 0.416334 0.868039 
-0.319266 0.438571 0.840074 
-0.342261 0.433561 0.833596 
-0.415524 0.486576 0.768494 
-0.388188 0.450928 0.803725 
-0.381861 0.456543 0.803586 
-0.447253 0.502768 0.739722 
-0.364872 0.490575 0.791331 
-0.272048 0.598486 0.753528 
-0.113014 0.735355 0.668192 
-0.0276391 0.913683 0.405485 
-0.00281172 0.999983 -0.00515073 
0.00906523 0.901582 -0.432513 
0.129198 0.637563 -0.759487 
0.305444 0.554888 -0.773824 
0.325565 0.503742 -0.800157 
0.371557 0.458535 -0.807274 
0.40137 0.459841 -0.792117 
0.389226 0.448578 -0.804537 
0.379143 0.447117 -0.810146 
0.357438 0.448467 -0.819217 
0.344324 0.46127 -0.817723 
0.301269 0.43028 -0.850938 
0.258104 0.403392 -0.877871 
0.209903 0.361606 -0.908395 
0.163557 0.314871 -0.934936 
0.130537 0.280534 -0.950926 
0.0982696 0.238388 -0.966185 
0.0696036 0.190398 -0.979236 
0.0462481 0.146931 -0.988065 
0.0295085 0.113496 -0.9931 
0.0175777 0.0846007 -0.99626 
0.0082871 0.0628076 -0.997991 
0.00130986 0.0456661 -0.998956 
-0.00340608 0.0322083 -0.999475 
-0.0066872 0.0215651 -0.999745 
-0.00863151 0.013047 -0.999878 
-0.0098976 0.00441745 -0.999941 
-0.0103756 -0.0036771 -0.999939 
-0.0103623 -0.0116813 -0.999878 
-0.00899592 -0.0179505 -0.999798 
-0.00780027 -0.0203724 -0.999762 
-0.00525174 -0.0183288 -0.999818 
-0.00186405 -0.014009 -0.9999 
0.00113197 -0.0123011 -0.999924 
0.00324048 -0.0146674 -0.999887 
0.00415229 -0.0234669 -0.999716 
0.00480248 -0.039146 -0.999222 
0.00412883 -0.0466643 -0.998902 
0.00365843 -0.0311477 -0.999508 
0.00101388 -0.00715449 -0.999976 
-0.000360516 -0.00668883 0.999978 
-0.00147873 -0.0387371 0.999248 
-0.00234911 -0.0480922 0.99884 
-0.00332061 -0.038771 0.999243 
-0.00400279 -0.0226039 0.999736 
-0.0012645 -0.0135949 0.999907 
0.000643583 -0.0112377 0.999937 
0.00482406 -0.0145248 0.999883 
0.00686155 -0.0185994 0.999803 
0.0112562 -0.0209993 0.999716 
0.0120468 -0.0184492 0.999757 
0.0144542 -0.0116766 0.999827 
0.0149035 -0.00253703 0.999886 
0.01491 0.00719058 0.999863 
0.0135184 0.0164855 0.999773 
0.0115146 0.0259959 0.999596 
0.00854705 0.0373945 0.999264 
0.00391231 0.0515701 0.998662 
-0.00153573 0.0710564 0.997471 
-0.0109089 0.0936106 0.995549 
-0.0238611 0.124305 0.991957 
-0.0417638 0.164364 0.985515 
-0.0661229 0.211582 0.975121 
-0.093852 0.261378 0.960663 
-0.1295 0.310691 0.941648 
-0.16815 0.37616 0.911169 
-0.206413 0.393898 0.895678 
-0.266193 0.474182 0.839221 
-0.306318 0.490701 0.815709 
-0.342151 0.49271 0.800106 
-0.413763 0.559617 0.718072 
-0.385782 0.494213 0.779055 
-0.43764 0.487144 0.755752 
-0.463322 0.498514 0.732678 
-0.444497 0.494781 0.746736 
-0.505274 0.528597 0.682117 
-0.333597 0.538802 0.773567 
-0.167491 0.667087 0.725908 
-0.0405556 0.859202 0.510026 
0.000448117 0.999819 0.0189858 
-0.00089803 0.912376 -0.409352 
0.133069 0.654648 -0.744129 
0.419189 0.47673 -0.772664 
0.475157 0.504065 -0.72121 
0.454518 0.491986 -0.742539 
0.473069 0.504572 -0.722228 
0.454804 0.495931 -0.739733 
0.435699 0.502826 -0.746547 
0.416755 0.519924 -0.74565 
0.346291 0.523897 -0.778212 
0.29774 0.482281 -0.823866 
0.24779 0.436562 -0.864878 
0.199416 0.386138 -0.900628 
0.161963 0.362174 -0.917931 
0.124367 0.307681 -0.943327 
0.0886879 0.256117 -0.962569 
0.0622476 0.2048 -0.976823 
0.0403846 0.16083 -0.986156 
0.0235551 0.124441 -0.991947 
0.0114846 0.0927434 -0.995624 
0.00183078 0.0685712 -0.997644 
-0.00507636 0.0500442 -0.998734 
-0.00939481 0.0355252 -0.999325 
-0.0126799 0.0250652 -0.999605 
-0.0141418 0.0150347 -0.999787 
-0.0154014 0.00620709 -0.999862 
-0.0153811 -0.00320422 -0.999877 
-0.0150851 -0.0123222 -0.99981 
-0.0135914 -0.0189984 -0.999727 
-0.0119641 -0.0218993 -0.999689 
-0.00944286 -0.0197766 -0.99976 
-0.00550324 -0.0152806 -0.999868 
-0.00184273 -0.0131601 -0.999912 
0.00113641 -0.0155451 -0.999878 
0.00191019 -0.0239881 -0.99971 
0.00288664 -0.0391637 -0.999229 
0.00177494 -0.0485246 -0.99882 
0.00160614 -0.0348518 -0.999391 
0.000385039 -0.00696668 -0.999977 
0.000452688 -0.00644858 0.999979 
-0.000518696 -0.0362377 0.999343 
-0.00143567 -0.0468596 0.9989 
-0.000875255 -0.0349484 0.999389 
-0.00245144 -0.0224454 0.999745 
0.00203117 -0.0150806 0.999884 
0.00452912 -0.012385 0.999913 
0.00970974 -0.015242 0.999837 
0.0128909 -0.0203178 0.99971 
0.0176619 -0.0222768 0.999596 
0.0183534 -0.0182937 0.999664 
0.0206556 -0.0103331 0.999733 