# vtk DataFile Version 3.0 
Exported using Morpho https://github.com/Morpho-lang/morpho 
ASCII 
DATASET UNSTRUCTURED_GRID 

POINTS 1978 float 
-8.48302 -2.82543 -3.81948e-05 
-8.26421 -2.82564 -7.38262e-05 
-8.04233 -2.82415 5.2435e-05 
-7.76986 -2.82456 7.92292e-05 
-7.4714 -2.82411 3.66261e-05 
-7.21027 -2.82585 -1.95934e-05 
-7.01142 -2.8263 -1.22687e-05 
-6.77297 -2.82457 6.51823e-06 
-6.56105 -2.8267 4.41128e-06 
-6.34471 -2.82584 -8.24129e-06 
-6.15117 -2.82527 -5.53561e-06 
-5.92944 -2.82557 6.90247e-06 
-5.71479 -2.8256 1.06008e-05 
-5.51079 -2.82581 3.62104e-06 
-5.2937 -2.82545 3.38678e-06 
-5.0818 -2.82548 1.09849e-05 
-4.86393 -2.82579 3.68987e-06 
-4.65894 -2.82536 -2.36266e-06 
-4.43887 -2.82549 -7.78908e-06 
-4.22325 -2.82537 -3.42373e-06 
-4.00447 -2.82567 4.59423e-06 
-3.7948 -2.82558 6.67482e-06 
-3.57773 -2.82571 3.28685e-06 
-3.36522 -2.82564 -3.01436e-06 
-3.14238 -2.82583 -1.22847e-06 
-2.93083 -2.82575 3.94975e-06 
-2.71778 -2.82616 1.07495e-05 
-2.52007 -2.82659 1.3381e-05 
-2.30888 -2.82602 6.19953e-06 
-2.09736 -2.82684 -2.39167e-06 
-1.8873 -2.8269 -3.21771e-06 
-1.68383 -2.82691 3.49431e-05 
-1.47967 -2.82684 3.88491e-05 
-1.27131 -2.82786 -9.79093e-06 
-1.08895 -2.82634 3.38711e-05 
-0.832872 -2.82825 4.54861e-05 
-0.620498 -2.8262 -8.12961e-05 
-0.448694 -2.82591 1.18391e-05 
-0.208128 -2.82667 -3.642e-05 
0.0370467 -2.82528 -0.000113036 
0.222832 -2.82537 6.57114e-05 
0.421919 -2.82721 0.000129716 
0.611701 -2.82684 -2.05331e-05 
0.848626 -2.82746 -1.18428e-05 
1.05091 -2.82868 -3.48811e-06 
1.25144 -2.82682 -2.98165e-05 
1.44297 -2.82748 -8.62914e-05 
1.68918 -2.82656 9.49079e-06 
1.87609 -2.82663 3.44064e-05 
2.08691 -2.82681 2.33476e-05 
2.31969 -2.82645 3.42098e-06 
2.50563 -2.82609 -1.00205e-05 
2.73659 -2.82548 -8.20784e-06 
2.95696 -2.82619 -4.16008e-06 
3.16929 -2.82583 -3.54038e-06 
3.37786 -2.82546 2.22111e-06 
3.60333 -2.82598 2.85783e-07 
3.80573 -2.82563 -7.34809e-06 
4.02187 -2.82521 -3.64629e-06 
4.24946 -2.82569 2.23692e-06 
4.44752 -2.82558 -6.54488e-07 
4.65986 -2.82578 -5.34709e-06 
4.86909 -2.82556 -3.43089e-06 
5.07139 -2.82574 -5.25322e-06 
5.28913 -2.82542 1.04311e-06 
5.49968 -2.82572 1.57905e-06 
5.70379 -2.8256 -8.3744e-06 
5.92372 -2.82544 2.13402e-06 
6.14431 -2.82566 1.22689e-06 
6.34269 -2.82574 -3.22824e-06 
6.5848 -2.82531 -3.24918e-06 
6.79413 -2.82597 -1.02463e-06 
6.99421 -2.82591 -1.03393e-05 
7.25157 -2.82535 -1.08516e-05 
7.47669 -2.82554 -2.8375e-05 
7.71509 -2.8254 -7.0647e-05 
7.98086 -2.82471 -3.02694e-05 
8.16948 -2.82444 0.000167779 
8.48314 -2.82473 5.33277e-05 
-8.48373 -2.59188 5.76583e-06 
-8.24266 -2.56375 5.95255e-05 
-8.00868 -2.57051 8.35339e-06 
-7.79902 -2.61483 7.6966e-05 
-7.53188 -2.63959 7.9052e-05 
-7.23358 -2.61807 5.61651e-05 
-6.9823 -2.5601 -1.54605e-05 
-6.78199 -2.60067 6.58525e-06 
-6.54079 -2.5833 1.54484e-05 
-6.33512 -2.55944 6.24059e-06 
-6.11346 -2.59343 1.33985e-05 
-5.89407 -2.58501 -1.72817e-06 
-5.6824 -2.57116 -1.32506e-07 
-5.46572 -2.58565 4.38677e-06 
-5.24858 -2.57983 4.05774e-06 
-5.02882 -2.58833 4.63872e-07 
-4.81918 -2.57467 2.60764e-06 
-4.60053 -2.59162 6.94856e-06 
-4.38298 -2.58612 4.19299e-06 
-4.16449 -2.58733 1.33637e-06 
-3.95297 -2.57472 3.3204e-06 
-3.73852 -2.58061 4.70093e-06 
-3.52521 -2.57589 4.53394e-06 
-3.30559 -2.59035 4.26649e-06 
-3.09153 -2.5833 5.34696e-07 
-2.87762 -2.59158 1.84029e-07 
-2.67472 -2.58247 -2.10611e-05 
-2.46716 -2.6037 -2.00865e-05 
-2.25029 -2.60673 -1.08288e-05 
-2.04118 -2.60539 -2.8617e-05 
-1.8333 -2.59525 -5.25094e-05 
-1.626 -2.59148 -3.43343e-05 
-1.41122 -2.59007 1.75497e-05 
-1.22443 -2.55061 -6.09628e-05 
-0.990581 -2.63214 -5.91715e-05 
-0.770367 -2.58243 -7.90861e-06 
-0.582427 -2.48532 -0.000145448 
-0.402286 -2.49969 -0.000351123 
-0.209031 -2.57753 -8.33161e-05 
-0.00386899 -2.50643 0.000151417 
0.201997 -2.46876 0.00012574 
0.392172 -2.51749 -7.2917e-06 
0.610229 -2.56442 0.000148957 
0.832148 -2.60049 0.000122717 
1.0601 -2.58362 7.62831e-05 
1.27183 -2.57961 2.78447e-05 
1.51083 -2.64588 2.33579e-05 
1.71687 -2.58454 7.66194e-05 
1.93044 -2.6133 8.16709e-06 
2.15856 -2.62982 2.06037e-05 
2.35699 -2.57059 1.34095e-05 
2.57226 -2.61484 7.93455e-06 
2.79695 -2.6004 -3.35699e-06 
3.0077 -2.58658 1.44242e-06 
3.21832 -2.57765 -1.15838e-06 
3.44127 -2.59383 -2.63595e-06 
3.64952 -2.56726 -2.35877e-06 
3.86531 -2.58363 -1.15341e-05 
4.094 -2.59703 -3.76533e-06 
4.30334 -2.56427 5.33394e-07 
4.51686 -2.58467 -5.98272e-06 
4.73125 -2.58256 -4.97132e-06 
4.94227 -2.574 2.33954e-06 
5.15702 -2.59265 -7.98923e-07 
5.37563 -2.58315 -5.96693e-06 
5.58646 -2.57363 -3.48395e-06 
5.80283 -2.5907 2.28531e-06 
6.02754 -2.58945 4.0307e-06 
6.24016 -2.56076 -1.30303e-05 
6.46009 -2.60729 -1.64649e-05 
6.68782 -2.56834 9.82023e-07 
6.895 -2.55552 -9.5502e-06 
7.11769 -2.61944 -2.83317e-05 
7.36324 -2.58776 -1.91642e-05 
7.59919 -2.59636 -5.02506e-05 
7.85196 -2.61771 -5.4058e-05 
8.06759 -2.52414 2.93185e-06 
8.29319 -2.63928 -9.3881e-05 
8.48147 -2.52129 -7.19359e-05 
-8.48005 -2.35614 -4.10086e-05 
-8.20308 -2.34552 -1.79702e-05 
-7.97646 -2.30575 -7.61159e-06 
-7.73487 -2.4086 2.8989e-05 
-7.55494 -2.24707 5.8265e-05 
-7.44207 -2.45364 2.09847e-05 
-7.17045 -2.39475 1.94662e-05 
-6.9414 -2.30555 1.29358e-05 
-6.71256 -2.3823 -5.24049e-06 
-6.4859 -2.3327 3.04474e-06 
-6.23675 -2.34415 5.6079e-07 
-6.02055 -2.35156 -1.10245e-05 
-5.80232 -2.33807 -8.18077e-06 
-5.57449 -2.3384 -1.2601e-06 
-5.35927 -2.34393 -4.40988e-06 
-5.13478 -2.34824 -8.3846e-06 
-4.92516 -2.33581 -6.26976e-06 
-4.70288 -2.35141 -7.27814e-06 
-4.48672 -2.35419 -8.27797e-06 
-4.26523 -2.35259 -1.65228e-05 
-4.05128 -2.33541 -9.51909e-06 
-3.83378 -2.33481 -2.82003e-06 
-3.62061 -2.33305 -9.50823e-06 
-3.39921 -2.34837 -1.33298e-05 
-3.18612 -2.34762 -1.8405e-05 
-2.96897 -2.35589 -7.07577e-06 
-2.76186 -2.34802 3.47606e-06 
-2.55001 -2.36496 5.06757e-06 
-2.34167 -2.391 -2.31934e-06 
-2.12373 -2.37978 -7.46784e-07 
-1.91318 -2.37625 -8.06193e-06 
-1.69387 -2.36235 1.65646e-05 
-1.47299 -2.36447 -2.87168e-05 
-1.26056 -2.27809 3.10589e-06 
-1.05155 -2.39784 -7.3612e-05 
-0.841055 -2.34267 -5.99943e-05 
-0.622784 -2.23943 -6.21743e-05 
-0.383824 -2.14611 -3.22329e-05 
-0.200177 -2.26356 -6.46323e-05 
0.0208752 -2.16902 7.71041e-05 
0.217496 -2.1205 0.000446644 
0.422746 -2.19691 -0.000331598 
0.618807 -2.28178 0.000123828 
0.829074 -2.35466 8.0412e-05 
1.05373 -2.34559 9.58622e-05 
1.26568 -2.33585 5.08557e-05 
1.47437 -2.43589 -1.6977e-06 
1.6548 -2.35101 2.83646e-05 
1.86849 -2.39007 -5.26081e-06 
2.08644 -2.41508 5.41725e-06 
2.29647 -2.35506 1.30997e-05 
2.52631 -2.37786 1.89482e-05 
2.73136 -2.38596 8.42935e-06 
2.94848 -2.34958 9.44119e-06 
3.1525 -2.33742 1.21389e-05 
3.36982 -2.35639 1.05023e-05 
3.57618 -2.32443 6.46891e-06 
3.7903 -2.33565 9.42993e-06 
4.0085 -2.36437 1.30144e-05 
4.21783 -2.32861 1.13406e-05 
4.44055 -2.3365 9.25165e-06 
4.64994 -2.34244 5.3467e-06 
4.86102 -2.33661 2.36352e-06 
5.08086 -2.34691 1.31998e-05 
5.29011 -2.35431 8.95701e-06 
5.50723 -2.33313 -1.47555e-07 
5.72613 -2.34584 -8.72983e-07 
5.94219 -2.35876 1.22327e-05 
6.15742 -2.32642 9.88538e-06 
6.39229 -2.35241 -7.75219e-06 
6.60005 -2.34941 -9.7428e-06 
6.82718 -2.29932 1.50757e-05 
7.05393 -2.36134 3.8054e-06 
7.26926 -2.38556 -1.27143e-05 
7.52797 -2.36345 -8.1265e-05 
7.76992 -2.3939 -6.06058e-05 
7.98867 -2.2998 -1.12991e-05 
8.25504 -2.36563 -2.19658e-05 
8.48158 -2.27079 4.67329e-05 
-8.48162 -2.08813 -5.53706e-05 
-8.27241 -2.13642 6.21134e-05 
-8.04638 -2.06331 -0.000106384 
-7.78522 -2.14213 5.60084e-06 
-7.51105 -2.02857 -6.60451e-06 
-7.30344 -2.22108 -3.81089e-06 
-7.07419 -2.1161 -3.50521e-05 
-6.79208 -2.11986 -2.92521e-05 
-6.59299 -2.11971 -1.97966e-05 
-6.34531 -2.12884 -1.45214e-05 
-6.11588 -2.09875 -1.39896e-05 
-5.91287 -2.10333 -5.96813e-06 
-5.69064 -2.11014 -3.22037e-06 
-5.46886 -2.0963 -3.73102e-06 
-5.25224 -2.11457 3.70012e-06 
-5.04175 -2.09718 3.84888e-06 
-4.81996 -2.11335 1.45591e-05 
-4.60432 -2.11725 1.44981e-05 
-4.38674 -2.1211 1.87643e-05 
-4.17545 -2.10411 2.28391e-05 
-3.95794 -2.09598 2.56763e-05 
-3.74533 -2.09084 3.23628e-05 
-3.52541 -2.10601 4.37563e-05 
-3.31433 -2.1083 4.93941e-05 
-3.09978 -2.11887 5.32767e-05 
-2.894 -2.11648 6.31124e-05 
-2.68157 -2.12379 6.83495e-05 
-2.47304 -2.14146 8.0156e-05 
-2.26601 -2.16859 9.07233e-05 
-2.0442 -2.14636 7.41091e-05 
-1.82527 -2.14751 6.48868e-05 
-1.59252 -2.13593 5.65475e-05 
-1.38138 -2.08689 -3.41569e-05 
-1.16588 -1.95991 0.000193972 
-1.05157 -2.14423 -0.000166328 
-0.834565 -2.08133 5.54348e-06 
-0.593212 -1.98106 -0.000181767 
-0.372032 -1.8389 -0.000157429 
-0.155165 -1.93715 7.32401e-05 
0.00884703 -1.73338 -2.8063e-05 
0.179679 -1.73527 -9.11034e-06 
0.373944 -1.85142 -0.000411763 
0.590195 -1.92171 0.000485145 
0.781077 -2.04208 0.000155225 
0.972298 -2.09023 -7.48385e-05 
1.17703 -2.08542 2.38562e-05 
1.43293 -2.18357 -8.61113e-06 
1.67141 -2.13477 -0.000104373 
1.89669 -2.17142 -5.37016e-05 
2.11005 -2.1826 -7.19758e-05 
2.36416 -2.14961 -0.000102601 
2.57445 -2.14087 -7.08618e-05 
2.78136 -2.1513 -7.12739e-05 
2.9851 -2.09888 -5.92016e-05 
3.20445 -2.11138 -5.37405e-05 
3.40637 -2.10477 -4.37214e-05 
3.62221 -2.08562 -3.64861e-05 
3.84163 -2.10752 -3.59539e-05 
4.04416 -2.11192 -2.39133e-05 
4.27376 -2.1007 -1.8855e-05 
4.48594 -2.09423 -1.84959e-05 
4.69675 -2.09951 -1.0534e-05 
4.91744 -2.10853 -9.11927e-06 
5.1287 -2.10422 -9.46363e-06 
5.33939 -2.11571 -2.71013e-06 
5.5646 -2.10203 7.19276e-06 
5.78109 -2.11083 1.45122e-06 
5.99095 -2.11117 8.73294e-06 
6.23444 -2.11239 1.82546e-05 
6.44321 -2.09618 2.23511e-05 
6.65731 -2.10244 2.32678e-05 
6.91653 -2.08878 2.53922e-05 
7.12852 -2.12313 3.91711e-05 
7.35628 -2.17021 3.22038e-06 
7.54818 -2.07463 2.05181e-05 
7.73195 -2.16043 4.17465e-06 
7.95016 -2.06478 8.26998e-05 
8.19957 -2.13956 4.42974e-05 
8.48287 -2.07122 2.851e-05 
-8.47906 -1.79705 -4.47979e-05 
-8.28687 -1.87981 7.58003e-05 
-7.87795 -1.89807 -8.5606e-05 
[...]
POINT_DATA 1978 
VECTORS vectors float
0.0891137 -0.119255 0.988892 
0.0948728 -0.113035 0.989069 
0.0925895 -0.117349 0.989052 
0.0850748 -0.105638 0.990913 
0.0854141 -0.0821539 0.99311 
0.0881342 -0.0616012 0.994344 
0.0891523 -0.0489991 0.994947 
0.0900534 -0.0381662 0.995326 
0.0923088 -0.0301376 0.995286 
0.0936868 -0.0209703 0.995533 
0.093644 -0.013478 0.995639 
0.0940531 -0.00909564 0.995616 
0.0950236 -0.00582434 0.995554 
0.095806 -0.00227563 0.99549 
0.0963429 -9.23792e-05 0.995433 
0.0962268 0.00133476 0.99544 
0.0963806 0.00344814 0.995422 
0.0960753 0.00585234 0.995441 
0.0955709 0.00854574 0.995465 
0.0951201 0.0116176 0.995486 
0.0948421 0.0157843 0.995468 
0.0940982 0.0208405 0.995456 
0.0929693 0.0275605 0.995405 
0.091212 0.0358997 0.995306 
0.089419 0.0472494 0.995 
0.0872466 0.0616229 0.994422 
0.0843977 0.0807878 0.993312 
0.0808219 0.104084 0.991452 
0.0757271 0.135654 0.988043 
0.0698091 0.176148 0.982091 
0.0629019 0.227306 0.97203 
0.0554245 0.288253 0.956216 
0.045425 0.364682 0.930308 
0.0335292 0.458755 0.888227 
0.0252353 0.549447 0.835435 
0.0127873 0.687996 0.725785 
0.00307681 0.810158 0.586334 
0.000461814 0.893715 0.448896 
-0.00161373 0.975976 0.217107 
-0.0013661 0.999276 -0.038156 
0.00022961 0.971836 -0.235352 
-0.00127648 0.90431 -0.426631 
-0.00409224 0.813717 -0.581656 
-0.0130374 0.681018 -0.73237 
-0.0231279 0.568246 -0.822617 
-0.0337256 0.463703 -0.885632 
-0.0444712 0.37732 -0.925274 
-0.0553833 0.289192 -0.955913 
-0.0616345 0.232221 -0.970951 
-0.0683867 0.179573 -0.981556 
-0.0758239 0.134729 -0.988168 
-0.0799446 0.105821 -0.991345 
-0.0838967 0.0793769 -0.993451 
-0.0872193 0.0605327 -0.994484 
-0.0897197 0.0456978 -0.995054 
-0.0913665 0.0350674 -0.99532 
-0.09313 0.0268297 -0.995406 
-0.0941974 0.0206004 -0.995454 
-0.0944069 0.0157577 -0.995499 
-0.0954526 0.0122066 -0.995454 
-0.0960394 0.0088345 -0.99544 
-0.0960757 0.00609711 -0.995441 
-0.0963691 0.00393776 -0.99543 
-0.0961255 0.00145369 -0.995453 
-0.0958704 -0.000635649 -0.995474 
-0.0960692 -0.00322563 -0.995464 
-0.0955905 -0.00646953 -0.995493 
-0.0945895 -0.00937663 -0.995562 
-0.0938573 -0.0146305 -0.995591 
-0.0928467 -0.0211673 -0.995564 
-0.0921381 -0.0284043 -0.995458 
-0.0918576 -0.0370761 -0.995235 
-0.0892322 -0.0478184 -0.994994 
-0.0862844 -0.0638056 -0.994358 
-0.0843544 -0.0832601 -0.993115 
-0.0826978 -0.106979 -0.990979 
-0.0919572 -0.126545 -0.987863 
-0.0959591 -0.120301 -0.988198 
-0.0877734 -0.116356 -0.989241 
0.0655077 -0.118213 0.990803 
0.0702906 -0.111945 0.992202 
0.0712702 -0.104418 0.992637 
0.0701273 -0.0993093 0.993393 
0.072261 -0.0857229 0.994579 
0.0750545 -0.064983 0.995899 
0.07655 -0.0483465 0.996662 
0.0777989 -0.0381017 0.99701 
0.0783398 -0.0288792 0.997379 
0.0777363 -0.0211524 0.99745 
0.0803319 -0.0144238 0.997381 
0.0824948 -0.0103455 0.997248 
0.082443 -0.00616221 0.997272 
0.0835249 -0.00252332 0.997203 
0.0839422 -0.000161093 0.997161 
0.084116 0.0018523 0.997144 
0.0837615 0.00398217 0.997152 
0.0841165 0.00658056 0.997123 
0.0834469 0.00958456 0.997156 
0.0823095 0.0133236 0.997219 
0.0809966 0.0178605 0.99726 
0.0801589 0.0234579 0.997228 
0.0790544 0.0306668 0.997128 
0.0779154 0.0402861 0.99689 
0.0754379 0.0527628 0.996493 
0.0726431 0.0689474 0.995715 
0.0689485 0.0891561 0.994364 
0.0657611 0.11523 0.991915 
0.0610006 0.150522 0.987503 
0.0546286 0.194502 0.980181 
0.0471026 0.249655 0.968021 
0.0394484 0.315275 0.949044 
0.0308332 0.399059 0.917298 
0.0222126 0.489533 0.872551 
0.0150602 0.608813 0.793957 
0.00725223 0.731661 0.682155 
0.00207215 0.83177 0.555883 
-0.000425823 0.914054 0.405398 
-0.00160791 0.976142 0.216945 
-0.00301101 0.999703 0.000267044 
-0.0039664 0.975959 -0.217821 
-0.00461209 0.916698 -0.400062 
-0.00650272 0.817527 -0.576143 
-0.0111057 0.695798 -0.718688 
-0.0180201 0.569892 -0.822504 
-0.0262502 0.462192 -0.887395 
-0.0379916 0.357774 -0.933733 
-0.0429359 0.286427 -0.958091 
-0.0519681 0.222276 -0.974408 
-0.0593059 0.168809 -0.984541 
-0.0622459 0.133165 -0.990031 
-0.068748 0.101418 -0.993241 
-0.0720056 0.0768051 -0.995199 
-0.0742145 0.0589578 -0.996241 
-0.0764459 0.0450127 -0.996795 
-0.0788679 0.0339242 -0.997045 
-0.0795826 0.0264884 -0.99719 
-0.0813076 0.0201202 -0.997201 
-0.0826244 0.0150643 -0.997183 
-0.0822237 0.0114064 -0.997235 
-0.0832512 0.00801767 -0.997183 
-0.0836372 0.00531435 -0.997162 
-0.0834115 0.00285927 -0.997183 
-0.0840956 0.00040587 -0.997142 
-0.0835044 -0.00213534 -0.997189 
-0.0828981 -0.00511256 -0.99723 
-0.0830943 -0.0085225 -0.997209 
-0.0817081 -0.0128669 -0.997291 
-0.0798103 -0.018461 -0.997355 
-0.08067 -0.0250216 -0.997184 
-0.0774299 -0.0334587 -0.997188 
-0.0756349 -0.0432456 -0.996959 
-0.0772365 -0.0560771 -0.996246 
-0.0735023 -0.073812 -0.995368 
-0.0722793 -0.0926445 -0.993888 
-0.0733231 -0.108479 -0.992077 
-0.0709628 -0.107022 -0.992591 
-0.0776446 -0.121262 -0.990329 
-0.0636702 -0.117517 -0.991037 
0.0560167 -0.116997 0.991788 
0.0608415 -0.101957 0.993692 
0.0613666 -0.0942566 0.994397 
0.0666764 -0.0960347 0.993888 
0.0654908 -0.08773 0.994622 
0.0704547 -0.0796149 0.995095 
0.0704991 -0.0611401 0.996383 
0.0730093 -0.047668 0.99692 
0.0753695 -0.0357729 0.997209 
0.0769966 -0.0268858 0.997345 
0.078456 -0.0191135 0.997407 
0.0808368 -0.0139018 0.997289 
0.0815414 -0.00910102 0.997282 
0.0826251 -0.0049371 0.99722 
0.0832997 -0.00198046 0.997165 
0.0837745 0.00052325 0.997118 
0.084213 0.00269026 0.997074 
0.0837959 0.00529041 0.997095 
0.0832241 0.00829528 0.997128 
0.0822652 0.0121058 0.997175 
0.0813105 0.0165797 0.997202 
0.08008 0.0220259 0.997206 
0.0785143 0.0286682 0.997173 
0.0763634 0.0375125 0.997054 
0.0740258 0.0488492 0.996746 
0.0713624 0.0639413 0.99609 
0.0682866 0.0828522 0.994919 
0.0640645 0.107418 0.992865 
0.0590701 0.138189 0.989382 
0.0525863 0.180492 0.982949 
0.0455879 0.232169 0.97242 
0.0375594 0.298382 0.954562 
0.0291076 0.380476 0.925222 
0.020267 0.478876 0.878529 
0.0136001 0.583437 0.812715 
0.00684872 0.696268 0.718684 
0.00159452 0.814335 0.580784 
-0.00195661 0.922232 0.386993 
-0.00273057 0.978106 0.207545 
-0.00410307 0.999365 -0.0302157 
-0.00492983 0.971532 -0.236856 
-0.00682433 0.903404 -0.428601 
-0.00820805 0.811903 -0.584353 
-0.0110103 0.698443 -0.71655 
-0.0165868 0.57635 -0.817881 
-0.0231365 0.470905 -0.8826 
-0.0315699 0.377661 -0.926237 
-0.0362862 0.313228 -0.949825 
-0.0442722 0.244215 -0.969382 
-0.0519802 0.187531 -0.981788 
-0.0571054 0.147267 -0.988087 
-0.0629245 0.111311 -0.992524 
-0.0670667 0.0861759 -0.994728 
-0.0707816 0.0660026 -0.996003 
-0.0736941 0.0512392 -0.996651 
-0.0763978 0.0389291 -0.996992 
-0.0782764 0.0304519 -0.997135 
-0.0797599 0.0234282 -0.997197 
-0.0809878 0.0177153 -0.997205 
-0.08222 0.013455 -0.997169 
-0.0833636 0.00947205 -0.99711 
-0.0841324 0.00630834 -0.997066 
-0.0843351 0.00356552 -0.997057 
-0.0840306 0.000972353 -0.997089 
-0.0837456 -0.00158204 -0.997111 
-0.0834404 -0.00465092 -0.997137 
-0.0823954 -0.00815546 -0.997208 
-0.0811266 -0.0121871 -0.997278 
-0.0797552 -0.0171524 -0.997328 
-0.0779495 -0.023609 -0.997353 
-0.0765493 -0.030911 -0.997279 
-0.0751698 -0.0410017 -0.997039 
-0.0721354 -0.0530922 -0.996702 
-0.0700636 -0.0675654 -0.995986 
-0.0672584 -0.0867013 -0.994823 
-0.0666586 -0.100249 -0.993452 
-0.0637793 -0.0980065 -0.993841 
-0.0638494 -0.108784 -0.992797 
-0.0618442 -0.117485 -0.991288 
0.0468001 -0.10979 0.992902 
0.0528028 -0.105667 0.993695 
0.057951 -0.0942049 0.994718 
0.0641855 -0.0959204 0.994156 
0.0665581 -0.0861577 0.994806 
0.0693511 -0.0709112 0.995818 
0.0734472 -0.0563059 0.996568 
0.0769242 -0.0409052 0.996915 
0.0786981 -0.0319683 0.997091 
0.0806824 -0.0230564 0.997158 
0.0825654 -0.016984 0.997128 
0.0832356 -0.0123476 0.997131 
0.0844428 -0.00791435 0.997069 
0.0853122 -0.0042967 0.997016 
0.0861544 -0.00130305 0.996941 
0.0864942 0.00114415 0.996907 
0.0868582 0.00379241 0.996867 
0.0866437 0.00680026 0.996871 
0.0857945 0.0104793 0.996919 
0.0844378 0.0147919 0.996988 
0.0829 0.0199513 0.997035 
0.0811841 0.0260532 0.997042 
0.0792563 0.0338963 0.996967 
0.0769428 0.0437891 0.996767 
0.0742807 0.0568197 0.996317 
0.0712758 0.073151 0.995478 
0.0676438 0.094622 0.993939 
0.0631905 0.121322 0.991353 
0.057482 0.155091 0.987014 
0.0497007 0.202885 0.978783 
0.0416059 0.261835 0.965093 
0.0323655 0.340912 0.940454 
0.0229011 0.428713 0.904275 
0.0141185 0.531549 0.847671 
0.011433 0.589253 0.808919 
0.00510352 0.704313 0.710644 
-9.57626e-05 0.829061 0.559713 
-0.00213581 0.927079 0.374832 
-0.0028888 0.987197 0.158777 
-0.00216244 0.999666 -0.0151331 
-0.00274021 0.981149 -0.192663 
-0.00505058 0.923472 -0.383294 
-0.00683795 0.826063 -0.564484 
-0.0103843 0.727472 -0.686928 
-0.0141631 0.626385 -0.780083 
-0.019348 0.519145 -0.855571 
-0.0283627 0.401531 -0.916304 
-0.036744 0.312072 -0.950262 
-0.0447127 0.240666 -0.970562 
-0.0521844 0.187244 -0.981734 
-0.0600948 0.139003 -0.989247 
-0.0651209 0.108327 -0.99273 
-0.0693247 0.0840206 -0.994775 
-0.0722875 0.0658528 -0.995922 
-0.0757117 0.0501441 -0.996566 
-0.0782117 0.0392047 -0.996855 
-0.0802847 0.0303098 -0.996994 
-0.0823163 0.0231696 -0.997011 
-0.0835558 0.0179426 -0.997012 
-0.0849643 0.0130602 -0.996965 
-0.0859263 0.00915849 -0.996923 
-0.0865603 0.00573693 -0.99689 
-0.0869461 0.0026776 -0.996864 
-0.0866231 3.00326e-05 -0.996897 
-0.0862783 -0.00274869 -0.996923 
-0.0856398 -0.00625183 -0.996971 
-0.0845549 -0.0100723 -0.997038 
-0.0830664 -0.0142621 -0.997117 
-0.0816344 -0.0199007 -0.997151 
-0.0797577 -0.0261424 -0.997179 
-0.078029 -0.0342067 -0.997083 
-0.0755888 -0.0466191 -0.996779 
-0.0733303 -0.059217 -0.996284 
-0.0710102 -0.0751409 -0.995266 
-0.0684967 -0.0891005 -0.994412 
-0.0670296 -0.097722 -0.993666 
-0.06281 -0.0966311 -0.994041 
-0.0589229 -0.0983997 -0.994149 
-0.0498726 -0.115395 -0.99224 
0.0372377 -0.109918 0.993311 
0.0446472 -0.108825 0.993955 
0.0574453 -0.0948646 0.994434 
0.0603606 -0.0947 0.994418 
0.0577365 -0.0817713 0.995875 
0.0685879 -0.0706423 0.995795 
0.0635596 -0.0613733 0.996861 
0.0709316 -0.0486887 0.99704 
0.0694677 -0.0377314 0.997609 
0.0740106 -0.0285122 0.997575 
0.0743687 -0.0214824 0.997709 
0.0728264 -0.0163136 0.997923 
0.0756563 -0.0115496 0.99777 
0.0768441 -0.00731513 0.997715 
0.0772114 -0.00360365 0.9977 
0.0776587 -0.000793203 0.997662 
0.0785554 0.00212747 0.997589 
0.0786696 0.00522532 0.997571 
0.0785137 0.00889729 0.997559 
0.0768336 0.0130842 0.997649 
0.0752772 0.0179303 0.997694 
0.0732028 0.0235652 0.997734 
0.0720567 0.0305217 0.99763 
0.0700339 0.0391199 0.997476 
0.0680472 0.0502448 0.997121 
0.065187 0.0641838 0.996521 
0.0622054 0.082128 0.995411 
0.0583278 0.105148 0.99351 
0.0541069 0.134673 0.990216 
0.049131 0.173293 0.984499 
0.0401716 0.229455 0.973405 
0.0331465 0.292616 0.956439 
0.0241197 0.37055 0.929475 
0.0139978 0.468632 0.884287 
0.00463967 0.661971 0.750356 
0.000707429 0.775736 0.631783 
-0.000526661 0.873628 0.487081 
0.000394853 0.93503 0.354726 
-0.000446963 0.977912 0.208345 
-0.00116887 0.999781 -0.00312587 
-0.000938701 0.980223 -0.198208 
-0.00169005 0.926834 -0.375385 
-0.00247533 0.842974 -0.538585 
-0.00657728 0.719777 -0.695046 
-0.01153 0.596393 -0.803801 
-0.0165126 0.493593 -0.870371 
-0.0246286 0.418127 -0.90902 
-0.0285524 0.345852 -0.938651 
-0.0361573 0.272902 -0.962296 
-0.043954 0.212836 -0.976969 
-0.0522568 0.161733 -0.986284 
-0.0559445 0.122006 -0.991752 
-0.0606687 0.0943803 -0.994451 
-0.062871 0.075152 -0.995931 
-0.0667276 0.0572763 -0.996848 
-0.0684993 0.044597 -0.997361 
-0.0707137 0.034917 -0.997587 
-0.0733759 0.0266428 -0.997644 
-0.0743128 0.0206943 -0.997713 
-0.0768396 0.015594 -0.997614 
-0.0763837 0.0110059 -0.997712 
-0.0771907 0.00702207 -0.997681 
-0.0784108 0.00352881 -0.997602 
-0.0778272 0.000570928 -0.997652 
-0.0777152 -0.00235531 -0.997658 
-0.077829 -0.00556877 -0.99764 
-0.0764111 -0.00975668 -0.997724 
-0.0750824 -0.0140545 -0.997777 
-0.0753434 -0.0187772 -0.997687 
-0.0712737 -0.0251101 -0.997865 
-0.0699179 -0.0327503 -0.997755 
-0.0701331 -0.0425746 -0.997377 
-0.0661759 -0.0569824 -0.997055 
-0.0665981 -0.0716385 -0.995968 
-0.0610369 -0.088499 -0.994977 
-0.0595661 -0.0990338 -0.994031 
-0.0527635 -0.0963087 -0.994663 
-0.0502338 -0.100556 -0.994444 
-0.0387568 -0.114207 -0.992818 
0.0285004 -0.116141 0.992942 
0.034292 -0.107155 0.994477 
0.0465148 -0.0957646 0.995042 
0.046133 -0.098093 0.994831 
0.0489482 -0.0964904 0.994779 
0.051048 -0.0732927 0.996772 
0.0545572 -0.0546606 0.997762 
0.0576303 -0.0443416 0.998096 
0.059013 -0.0325173 0.998464 
0.060992 -0.025462 0.998537 
0.0601021 -0.0199444 0.998703 
0.0606274 -0.0143508 0.998765 
0.0632409 -0.00995258 0.998648 
0.0643023 -0.00581404 0.998606 
0.0630925 -0.00250993 0.998689 
0.0653037 0.000508842 0.998547 
0.0652128 0.0037619 0.998549 
0.0650663 0.00759103 0.998541 
0.0635761 0.0118219 0.998596 
0.0623173 0.0166268 0.998609 
0.0607872 0.0219673 0.998597 
0.0597293 0.028615 0.998493 
0.0578547 0.0367893 0.998336 
0.0562952 0.047278 0.99799 
0.0538555 0.0604354 0.997423 
0.0514247 0.0772124 0.996413 
0.0481654 0.0985744 0.994723 
0.044115 0.126978 0.991738 
0.0400935 0.16404 0.986511 
0.0346918 0.213643 0.977234 
0.0247783 0.291769 0.957332 
0.0163273 0.38144 0.925264 
0.00750133 0.502907 0.865291 
0.00254221 0.616233 0.788461 
0.00544405 0.589894 0.808373 
0.00178494 0.705617 0.709898 
-0.000259278 0.801427 0.598341 
-0.00167865 0.892618 0.451228 
-0.00153961 0.992653 0.119711 
-0.00200296 0.999393 0.026409 
-0.00203007 0.993082 -0.11643 
-0.00136138 0.946123 -0.323542 
-0.00102641 0.842483 -0.539773 
-0.00195238 0.750773 -0.661264 
-0.00449782 0.630372 -0.77729 
-0.00781686 0.51391 -0.858821 
-0.0176642 0.408244 -0.9137 
-0.0225002 0.322225 -0.947571 
-0.0298213 0.254599 -0.967529 
-0.0382994 0.19645 -0.980504 
-0.0439841 0.150674 -0.988585 
-0.0465236 0.114079 -0.993176 
-0.0483479 0.0911921 -0.995418 
-0.0529293 0.0698506 -0.996881 
-0.0548302 0.0546014 -0.997709 
-0.0558486 0.0428271 -0.998215 
-0.0594726 0.0328617 -0.998379 
-0.0601333 0.0257992 -0.998545 
-0.0615257 0.019794 -0.998597 
-0.063962 0.0147388 -0.998535 
-0.0629225 0.0099707 -0.998661 
-0.0642119 0.00572157 -0.998608 
-0.0643273 0.00224618 -0.998615 
-0.0642674 -0.00090811 -0.998616 
-0.063551 -0.00398861 -0.998658 
-0.0644809 -0.00756021 -0.998581 
-0.0621727 -0.0119707 -0.99869 
-0.061862 -0.0167158 -0.998646 
-0.061194 -0.0215328 -0.998606 
-0.0569826 -0.0283903 -0.998701 
-0.0565578 -0.036978 -0.998457 
-0.0580306 -0.0480651 -0.997787 
-0.0518581 -0.0607193 -0.997563 
-0.0545983 -0.0733438 -0.996585 
-0.048791 -0.0902986 -0.995491 
-0.0486234 -0.100692 -0.994468 
-0.0420068 -0.09728 -0.99508 
-0.0385915 -0.105189 -0.994511 
-0.0291306 -0.116043 -0.992951 
0.0202242 -0.119201 0.992808 
0.0249807 -0.104031 0.995021 
0.0365111 -0.0966951 0.995363 
0.0360169 -0.101912 0.994996 
0.0419857 -0.0898269 0.995848 
0.0374172 -0.0767658 0.9971 
0.0434628 -0.0623382 0.997729 
0.0412896 -0.0486229 0.99881 
0.0473722 -0.038699 0.998747 
0.0458501 -0.0299815 0.999219 
0.046843 -0.0240703 0.99932 
0.0490287 -0.0182901 0.999324 
0.0482427 -0.013276 0.999436 
0.0510523 -0.00886137 0.999338 
0.0511275 -0.00509714 0.99935 
0.0510632 -0.00165392 0.999364 
0.0525535 0.00148459 0.999288 
0.0522743 0.0052114 0.999293 
0.0510276 0.00935548 0.99933 
0.0501538 0.0140413 0.999317 
0.0489386 0.0191034 0.99929 
0.048445 0.0248902 0.999182 
0.0469938 0.0317695 0.999055 
0.0455633 0.0405948 0.998806 
0.0439516 0.0515765 0.99838 
0.0419937 0.0656466 0.997656 
0.0396156 0.0832342 0.996475 
0.0367367 0.106539 0.994416 
0.0327941 0.138223 0.990718 
0.0288989 0.179606 0.984243 
0.0242642 0.23789 0.971982 
0.0156578 0.32154 0.947803 
0.00883186 0.425315 0.905853 
0.00384023 0.528705 0.849794 
-0.000283847 0.726797 0.687231 
-0.0028738 0.859571 0.512118 
-0.00270537 0.93334 0.358895 
0.00214011 0.96589 0.25913 
-0.00303363 0.95952 0.281129 
-2.11674e-05 0.98791 0.153948 
0.00250768 0.99881 -0.0375682 
7.3406e-05 0.981149 -0.195611 
0.00170437 0.907845 -0.418245 
0.0013628 0.794852 -0.609095 
0.000219755 0.721678 -0.693143 
-0.00111047 0.598735 -0.801998 
-0.00919206 0.421789 -0.907942 
-0.0153044 0.32828 -0.94532 
-0.0219676 0.24943 -0.969131 
-0.0295291 0.194147 -0.981441 
-0.0288243 0.165913 -0.986597 
-0.0358959 0.134417 -0.990965 
-0.0353923 0.105939 -0.994521 
-0.040253 0.0816888 -0.996579 
-0.0424235 0.0637851 -0.997767 
-0.0435027 0.0499762 -0.99849 
-0.0463431 0.0382153 -0.998871 
-0.0472743 0.03011 -0.999102 
-0.0487018 0.0233443 -0.999213 
-0.0499288 0.0176006 -0.999276 
-0.0512642 0.012711 -0.999286 
-0.0511812 0.00748698 -0.999344 
-0.0511644 0.00336263 -0.999366 
-0.0515888 -0.000160099 -0.999346 
-0.050776 -0.00336358 -0.999382 
-0.051152 -0.00695464 -0.999349 
-0.0502047 -0.0110333 -0.999364 
-0.0495068 -0.0160836 -0.999335 
-0.0479123 -0.0212369 -0.999325 
-0.0463445 -0.0268546 -0.999276 
-0.0440982 -0.0356859 -0.999235 
-0.0452652 -0.0467235 -0.998623 
-0.0408712 -0.0615034 -0.99802 
-0.0411811 -0.0785557 -0.996825 
-0.0357111 -0.0947067 -0.995625 
-0.0372359 -0.102684 -0.994744 
-0.0310088 -0.100064 -0.995201 
-0.0296516 -0.101598 -0.995135 
-0.0201835 -0.118771 -0.992859 
0.0145484 -0.119384 0.992864 
0.0179438 -0.105437 0.995025 
0.0281645 -0.0998279 0.995318 
0.0258504 -0.104572 0.994899 
0.0316168 -0.0956048 0.995675 
0.0286258 -0.0790847 0.997215 
0.0326222 -0.0605585 0.998371 
0.0308838 -0.047037 0.999149 
0.0357325 -0.0371038 0.999398 
0.0334625 -0.0298157 0.999708 
0.0365824 -0.0232713 0.999756 
0.0380791 -0.0178685 0.9998 
0.0370963 -0.0127781 1.00001 
0.0394566 -0.00837952 0.999862 
0.0404921 -0.00442704 0.999734 
0.0398417 -0.00101796 0.999978 
0.0412084 0.00256209 0.999714 
0.0399101 0.00672675 0.999855 
0.0390901 0.0115619 0.999841 
0.0384269 0.0166969 0.99979 
0.0379589 0.0223953 0.999791 
0.0370093 0.0288531 0.999557 
0.0358389 0.0369199 0.999336 
0.034445 0.0470909 0.998964 
0.0331116 0.0599034 0.998339 
0.031049 0.0763278 0.997315 
0.0287447 0.0981148 0.99553 
0.025734 0.127577 0.992339 
0.0218563 0.169482 0.986222 
0.0186785 0.224378 0.975154 
0.0129692 0.296708 0.955916 
0.00649949 0.405786 0.915184 
0.00241076 0.514091 0.858755 
-0.00114976 0.646532 0.763609 
0.000226216 0.645089 0.765005 
-0.00201217 0.856522 0.516223 
0.00343565 0.951484 0.307356 
0.00847538 0.996821 0.0758259 
0.00662342 0.998843 0.0461932 
0.00611452 1.00015 0.00162424 
0.00388607 0.999291 -0.0434709 
0.00255142 0.997952 -0.0665416 
-0.000337815 0.946564 -0.32033 
0.00134045 0.865316 -0.500519 
0.00193515 0.641289 -0.768495 
0.00224948 0.552406 -0.834406 
-0.00172511 0.502264 -0.865764 
-0.00542895 0.39505 -0.919724 
-0.0113757 0.30427 -0.95354 
-0.0172402 0.228987 -0.974382 
-0.0210973 0.172797 -0.985497 
-0.026293 0.128621 -0.992295 
-0.0287881 0.0942834 -0.995995 
-0.0316198 0.0746466 -0.997313 
-0.0328369 0.0587477 -0.998418 
-0.0351361 0.0450464 -0.999038 
-0.0358666 0.0355074 -0.999387 
-0.0372655 0.0276727 -0.999582 
-0.038504 0.0213607 -0.999693 
-0.0386898 0.0160266 -0.999895 
-0.0409472 0.0108829 -0.999673 
-0.0395012 0.00594899 -0.999984 
-0.0400229 0.00160153 -0.999869 
-0.0397992 -0.00190774 -0.999878 
-0.0396837 -0.00530999 -0.999869 
-0.0387387 -0.00900058 -0.999886 
-0.0391157 -0.0135787 -0.999821 
-0.037585 -0.0186226 -0.999806 
-0.0355396 -0.0239314 -0.99978 
-0.0357085 -0.0305377 -0.999496 
-0.0323837 -0.0391031 -0.999435 
-0.0347005 -0.0483729 -0.998962 
-0.0300268 -0.0607857 -0.998446 
-0.0317289 -0.0758739 -0.997376 
-0.0272129 -0.0931199 -0.996044 
-0.0265687 -0.104514 -0.99489 
-0.0221784 -0.101894 -0.99524 
-0.0210349 -0.106378 -0.994883 
-0.0150594 -0.119151 -0.992872 
0.0119066 -0.121251 0.992575 
0.0132247 -0.10559 0.995189 
0.0193948 -0.102218 0.995257 
0.0185543 -0.107139 0.994786 
0.0230413 -0.0949341 0.995972 
0.0199016 -0.0789082 0.99743 
0.024053 -0.0639693 0.998402 
0.0224954 -0.0502228 0.999212 
0.0251682 -0.0379224 0.999686 
0.0246187 -0.029466 1.00007 
0.0270664 -0.0233439 1.00005 