# vtk DataFile Version 3.0 
Exported using Morpho https://github.com/Morpho-lang/morpho 
ASCII 
DATASET UNSTRUCTURED_GRID 

POINTS 1978 float 
-8.48528 -2.82843 1.06838e-09 
-8.26058 -2.82843 1.62699e-09 
-8.03389 -2.82843 -1.06535e-09 
-7.76814 -2.82843 -1.44186e-09 
-7.47637 -2.82843 -6.82207e-10 
-7.23477 -2.82843 -2.0664e-10 
-6.99548 -2.82843 -3.48595e-12 
-6.77546 -2.82843 -2.92441e-10 
-6.56728 -2.82843 -7.98897e-11 
-6.34284 -2.82843 -2.13072e-11 
-6.14833 -2.82843 -1.73335e-11 
-5.92577 -2.82843 -6.26575e-11 
-5.71321 -2.82843 -5.9791e-11 
-5.50911 -2.82843 -5.65456e-12 
-5.2928 -2.82843 2.25982e-12 
-5.08166 -2.82843 -2.98065e-11 
-4.8647 -2.82843 3.40691e-12 
-4.65866 -2.82843 4.26539e-11 
-4.43852 -2.82843 7.69297e-11 
-4.22197 -2.82843 7.25797e-11 
-4.00316 -2.82843 5.01622e-11 
-3.79312 -2.82843 5.31155e-11 
-3.57763 -2.82843 8.32608e-11 
-3.36525 -2.82843 1.3719e-10 
-3.14466 -2.82843 1.46632e-10 
-2.93341 -2.82843 9.80669e-11 
-2.72265 -2.82843 2.32191e-11 
-2.52536 -2.82843 -2.58103e-11 
-2.31167 -2.82843 -8.26442e-11 
-2.10097 -2.82843 -2.042e-12 
-1.89518 -2.82843 -2.90789e-10 
-1.68883 -2.82843 -5.13356e-10 
-1.48634 -2.82843 -7.58413e-10 
-1.26973 -2.82843 -8.30405e-10 
-1.09946 -2.82843 1.1138e-09 
-0.844932 -2.82843 -2.25443e-10 
-0.62947 -2.82843 5.95428e-10 
-0.439218 -2.82843 9.34532e-10 
-0.205728 -2.82843 2.60502e-10 
0.0291912 -2.82843 4.32297e-09 
0.217792 -2.82843 -4.01788e-09 
0.419726 -2.82843 -1.17645e-09 
0.629167 -2.82843 -4.77314e-10 
0.854792 -2.82843 -6.50605e-10 
1.05675 -2.82843 -4.59911e-10 
1.25486 -2.82843 4.69348e-10 
1.44574 -2.82843 1.20347e-09 
1.69303 -2.82843 3.606e-10 
1.88366 -2.82843 1.2083e-10 
2.0985 -2.82843 1.50534e-10 
2.32055 -2.82843 -1.11178e-10 
2.511 -2.82843 6.76142e-11 
2.74043 -2.82843 -9.53159e-11 
2.95934 -2.82843 -1.54329e-10 
3.16971 -2.82843 -9.453e-11 
3.37775 -2.82843 -1.01717e-10 
3.60242 -2.82843 -9.25257e-11 
3.80526 -2.82843 -4.62457e-11 
4.02112 -2.82843 -5.18539e-11 
4.24807 -2.82843 -8.10395e-11 
4.44696 -2.82843 -3.4768e-11 
4.66001 -2.82843 -7.51669e-12 
4.86864 -2.82843 -9.78743e-12 
5.07239 -2.82843 8.2286e-12 
5.28888 -2.82843 -1.41926e-11 
5.49986 -2.82843 -3.97149e-12 
5.70403 -2.82843 5.61786e-11 
5.92338 -2.82843 1.68489e-11 
6.14394 -2.82843 5.22401e-11 
6.34386 -2.82843 1.17031e-10 
6.58412 -2.82843 1.00276e-10 
6.79312 -2.82843 1.17794e-10 
6.99222 -2.82843 2.5682e-10 
7.25024 -2.82843 3.41306e-10 
7.47874 -2.82843 7.60554e-10 
7.71773 -2.82843 8.18047e-10 
7.98223 -2.82843 1.19282e-09 
8.16826 -2.82843 -1.2589e-09 
8.48528 -2.82843 -1.68851e-09 
-8.48528 -2.59328 -2.79946e-10 
-8.25318 -2.57813 8.49763e-17 
-8.00839 -2.59762 4.24103e-15 
-7.73634 -2.62145 1.73909e-15 
-7.47063 -2.62085 4.82422e-15 
-7.21997 -2.60892 9.26056e-16 
-6.98372 -2.59639 3.01652e-15 
-6.77578 -2.57672 1.52874e-15 
-6.53759 -2.60345 2.61224e-15 
-6.33288 -2.56382 1.67861e-15 
-6.10773 -2.60028 1.06522e-15 
-5.8909 -2.58589 9.82789e-16 
-5.68134 -2.5739 7.04595e-16 
-5.46419 -2.58954 2.98104e-16 
-5.24885 -2.58389 1.27602e-16 
-5.03057 -2.59023 -8.44662e-17 
-4.82022 -2.57827 -3.22356e-16 
-4.60124 -2.59404 -5.52492e-16 
-4.38199 -2.58959 -7.60959e-16 
-4.16322 -2.59085 -1.06924e-15 
-3.95205 -2.57912 -1.49123e-15 
-3.73942 -2.58497 -1.87589e-15 
-3.52709 -2.58411 -2.47395e-15 
-3.31025 -2.59536 -2.81089e-15 
-3.09759 -2.59058 -3.75744e-15 
-2.88545 -2.59459 -4.52609e-15 
-2.68339 -2.58479 -5.76248e-15 
-2.47235 -2.60631 -6.20003e-15 
-2.25436 -2.60197 -6.53751e-15 
-2.04669 -2.59591 -6.73751e-15 
-1.83416 -2.59855 -8.73824e-15 
-1.61965 -2.58936 -7.04373e-15 
-1.41205 -2.59852 -9.49351e-15 
-1.23503 -2.51437 1.62741e-15 
-1.01715 -2.63036 -1.26374e-15 
-0.791049 -2.58446 -2.42869e-15 
-0.588309 -2.54089 9.82442e-17 
-0.382667 -2.50851 1.93176e-14 
-0.188545 -2.56304 1.21234e-14 
0.0127211 -2.50106 -3.64854e-15 
0.205136 -2.45983 -2.79192e-14 
0.397449 -2.52121 3.51482e-15 
0.610888 -2.5546 1.14949e-15 
0.829849 -2.58758 3.15422e-16 
1.05453 -2.57265 3.57867e-15 
1.26219 -2.57045 -8.67891e-17 
1.50929 -2.64194 3.7427e-15 
1.72174 -2.58701 8.51367e-15 
1.93802 -2.6145 6.06956e-15 
2.16497 -2.61694 6.08189e-15 
2.3676 -2.57768 7.75592e-15 
2.58374 -2.61736 4.76847e-15 
2.80725 -2.60242 4.54811e-15 
3.01571 -2.58824 4.10192e-15 
3.22426 -2.58241 3.27936e-15 
3.44424 -2.59927 2.55794e-15 
3.65135 -2.57342 2.24778e-15 
3.86513 -2.58854 1.48193e-15 
4.09183 -2.60055 1.12923e-15 
4.30005 -2.56915 1.05138e-15 
4.51427 -2.58848 6.06551e-16 
4.72797 -2.58357 4.22728e-16 
4.94004 -2.57952 1.98477e-16 
5.15509 -2.59373 -6.60767e-17 
5.37398 -2.58768 -2.19696e-16 
5.58524 -2.5784 -5.3037e-16 
5.80206 -2.59396 -7.45409e-16 
6.02677 -2.59323 -1.001e-15 
6.24002 -2.56619 -1.59517e-15 
6.45991 -2.60893 -1.4451e-15 
6.68572 -2.57457 -2.38007e-15 
6.89253 -2.55993 -3.1421e-15 
7.11756 -2.62141 -1.99776e-15 
7.36585 -2.59164 -2.83765e-15 
7.60137 -2.60002 -2.96023e-15 
7.85531 -2.62043 -2.46217e-15 
8.06916 -2.5278 -5.28924e-15 
8.29531 -2.64526 -2.74698e-16 
8.48528 -2.52415 -5.3263e-10 
-8.48528 -2.35285 3.41382e-11 
-8.22433 -2.35307 2.56759e-15 
-7.98847 -2.34623 6.48729e-15 
-7.75223 -2.41503 5.22509e-15 
-7.56708 -2.23137 5.17406e-15 
-7.45774 -2.41648 3.82701e-15 
-7.17872 -2.39963 5.07377e-15 
-6.95613 -2.33914 4.67165e-15 
-6.70308 -2.36904 3.28486e-15 
-6.49086 -2.34277 2.70699e-15 
-6.24063 -2.35 2.20841e-15 
-6.02771 -2.35604 1.63633e-15 
-5.81032 -2.33607 1.11834e-15 
-5.58248 -2.34291 7.08283e-16 
-5.36663 -2.34778 3.92609e-16 
-5.14244 -2.35147 6.12729e-17 
-4.92848 -2.33963 -2.86839e-16 
-4.70407 -2.35268 -6.29815e-16 
-4.48564 -2.35722 -1.01083e-15 
-4.2629 -2.35457 -1.42981e-15 
-4.04952 -2.33939 -1.88989e-15 
-3.83305 -2.33907 -2.41676e-15 
-3.62072 -2.34254 -3.17045e-15 
-3.4034 -2.35556 -4.02659e-15 
-3.19133 -2.35619 -5.14594e-15 
-2.9765 -2.36071 -6.22768e-15 
-2.76937 -2.34803 -7.43784e-15 
-2.55677 -2.36824 -9.36183e-15 
-2.3461 -2.38658 -1.0979e-14 
-2.12616 -2.36227 -1.1355e-14 
-1.91434 -2.37015 -1.2568e-14 
-1.69559 -2.36961 -1.09873e-14 
-1.47124 -2.34592 -4.57984e-15 
-1.25037 -2.27546 -1.06701e-14 
-1.01623 -2.3948 -2.77969e-15 
-0.813453 -2.31833 8.29144e-16 
-0.589881 -2.27017 7.55626e-15 
-0.385457 -2.18628 -1.14982e-15 
-0.184925 -2.24547 3.76161e-15 
0.0164838 -2.16234 -5.78478e-15 
0.209629 -2.08271 1.3207e-14 
0.405561 -2.18282 -1.03702e-14 
0.60649 -2.26385 -6.75768e-15 
0.823053 -2.32076 -2.328e-15 
1.03801 -2.32726 -4.92052e-15 
1.24955 -2.31675 4.60011e-15 
1.45929 -2.42742 9.05707e-15 
1.65437 -2.35829 1.20116e-14 
1.87833 -2.38229 1.30923e-14 
2.08885 -2.40566 1.08454e-14 
2.29983 -2.35517 1.11501e-14 
2.52799 -2.38084 9.88644e-15 
2.73513 -2.38785 8.14529e-15 
2.95248 -2.3496 6.50106e-15 
3.15724 -2.34225 5.30098e-15 
3.37398 -2.36161 4.12982e-15 
3.57939 -2.33272 3.38074e-15 
3.79361 -2.34152 2.64473e-15 
4.00956 -2.36751 1.99083e-15 
4.21845 -2.33164 1.50253e-15 
4.43976 -2.34164 1.06816e-15 
4.64936 -2.34251 6.89736e-16 
4.86225 -2.34028 3.71928e-16 
5.08046 -2.34877 6.21637e-17 
5.29201 -2.35659 -2.81014e-16 
5.50873 -2.33824 -6.18753e-16 
5.7276 -2.35042 -1.00443e-15 
5.94476 -2.36193 -1.45369e-15 
6.1608 -2.33123 -2.00493e-15 
6.39402 -2.35523 -2.57114e-15 
6.60214 -2.35266 -3.31005e-15 
6.82609 -2.30649 -3.75079e-15 
7.0543 -2.36519 -4.75978e-15 
7.2716 -2.3875 -5.41541e-15 
7.53051 -2.36413 -5.95779e-15 
7.77299 -2.39599 -6.2612e-15 
7.99065 -2.30196 -6.00479e-15 
8.25819 -2.36992 -2.1729e-15 
8.48528 -2.27425 -1.12484e-10 
-8.48528 -2.08881 7.43089e-10 
-8.26647 -2.12291 1.46218e-15 
-8.0352 -2.08929 1.55288e-15 
-7.79782 -2.14748 2.80032e-15 
-7.50548 -2.02548 1.21402e-15 
-7.29409 -2.21408 3.76944e-15 
-7.06212 -2.12205 2.14654e-15 
-6.80221 -2.14154 2.18139e-15 
-6.59023 -2.10581 1.82756e-15 
-6.35371 -2.13808 1.5661e-15 
-6.12466 -2.10579 1.03605e-15 
-5.91876 -2.10539 7.76278e-16 
-5.69079 -2.11236 5.46218e-16 
-5.46906 -2.10428 3.38468e-16 
-5.25218 -2.11856 1.55515e-16 
-5.03852 -2.10481 -5.28182e-17 
-4.81501 -2.1162 -2.46885e-16 
-4.59779 -2.11996 -4.49229e-16 
-4.38085 -2.12447 -6.67239e-16 
-4.16975 -2.10604 -8.71431e-16 
-3.95487 -2.10126 -1.11408e-15 
-3.74238 -2.10012 -1.44778e-15 
-3.52819 -2.11417 -1.8997e-15 
-3.31894 -2.11909 -2.37357e-15 
-3.10658 -2.12627 -2.9813e-15 
-2.9008 -2.11996 -3.52253e-15 
-2.68438 -2.12455 -4.25522e-15 
-2.47431 -2.14294 -5.14981e-15 
-2.26544 -2.15721 -6.42653e-15 
-2.03803 -2.12972 -6.43468e-15 
-1.82108 -2.14546 -6.36875e-15 
-1.60107 -2.13566 -5.65229e-15 
-1.38423 -2.0772 4.53268e-15 
-1.168 -1.95116 1.7461e-16 
-1.05669 -2.14098 1.11288e-14 
-0.820247 -2.06884 6.13878e-15 
-0.600455 -1.99313 -2.38046e-14 
-0.392721 -1.87448 2.51828e-14 
-0.175839 -1.92833 -1.02842e-14 
0.0392247 -1.8207 -5.95521e-16 
0.17947 -1.60425 4.89082e-15 
0.331409 -1.8246 -5.61422e-15 
0.554487 -1.92974 -5.10843e-15 
0.769416 -2.02557 -5.6315e-15 
0.981959 -2.058 3.578e-15 
1.19264 -2.06276 1.14878e-15 
1.43772 -2.17401 4.85716e-15 
1.66474 -2.1271 5.35241e-15 
1.88491 -2.16212 5.56511e-15 
2.11233 -2.17333 6.9978e-15 
2.36261 -2.15188 5.63606e-15 
2.57322 -2.14465 4.75389e-15 
2.78071 -2.15325 4.47679e-15 
2.98884 -2.10257 3.01145e-15 
3.20747 -2.11743 2.6979e-15 
3.40882 -2.11117 2.16884e-15 
3.62489 -2.09712 1.57041e-15 
3.84205 -2.11195 1.34945e-15 
4.04437 -2.11689 1.06025e-15 
4.2723 -2.10357 7.31033e-16 
4.48265 -2.09864 5.18317e-16 
4.69614 -2.10257 3.24293e-16 
4.91508 -2.10994 1.40368e-16 
5.1287 -2.10921 -3.22279e-17 
5.34043 -2.11837 -2.20673e-16 
5.56471 -2.10763 -3.92153e-16 
5.7821 -2.11664 -6.2804e-16 
5.99293 -2.11606 -8.87374e-16 
6.23407 -2.11547 -1.13436e-15 
6.44297 -2.10117 -1.38728e-15 
6.65506 -2.106 -1.77816e-15 
6.91008 -2.09488 -1.7621e-15 
7.12459 -2.12603 -2.11811e-15 
7.35465 -2.17177 -2.72161e-15 
7.5475 -2.07565 -1.29762e-15 
7.73283 -2.16234 -3.23394e-15 
7.95175 -2.0671 -7.42951e-16 
8.20258 -2.14387 -1.83347e-15 
8.48528 -2.07411 4.39341e-10 
-8.48528 -1.80564 7.85004e-10 
-8.28525 -1.86987 8.27789e-16 
-7.88005 -1.89041 -8.85654e-16 
[...]
POINT_DATA 1978 
VECTORS vectors float
0.00199122 -0.00472186 0.999987 
0.00282863 -0.0680333 0.997679 
0.00266017 -0.0954397 0.995432 
0.00265861 -0.0937943 0.995588 
0.00255842 -0.07859 0.996904 
0.00246764 -0.0643486 0.997924 
0.0023899 -0.0494541 0.998774 
0.00248409 -0.0390138 0.999236 
0.00243788 -0.0296664 0.999557 
0.00246427 -0.0217206 0.999761 
0.00251908 -0.0159606 0.999869 
0.00247439 -0.0106799 0.99994 
0.00254991 -0.00656836 0.999975 
0.00252123 -0.0034899 0.999991 
0.00255015 -0.000815791 0.999996 
0.0025544 0.00141186 0.999996 
0.00255388 0.00362062 0.99999 
0.00255836 0.00599629 0.999979 
0.00256059 0.00889761 0.999957 
0.00255688 0.0123872 0.99992 
0.0025222 0.0167979 0.999856 
0.00248486 0.0221794 0.999751 
0.00247548 0.0292246 0.99957 
0.00244988 0.0381748 0.999268 
0.00241145 0.0503627 0.998728 
0.00230666 0.065619 0.997842 
0.00223374 0.0854961 0.996336 
0.0021443 0.109263 0.994011 
0.00201993 0.142017 0.989862 
0.00188574 0.183313 0.983053 
0.00168274 0.234208 0.972185 
0.00148042 0.297029 0.954867 
0.00117826 0.371712 0.928347 
0.000937888 0.467448 0.88402 
0.000625846 0.556541 0.83082 
0.000377369 0.695386 0.718637 
0.000170721 0.80812 0.589017 
1.36546e-05 0.896727 0.442585 
-2.99791e-05 0.975994 0.217797 
-1.43473e-05 0.999273 -0.0381168 
4.96122e-05 0.972448 -0.233121 
-3.28821e-05 0.90619 -0.42287 
-0.000163937 0.807782 -0.589482 
-0.000389856 0.686087 -0.727519 
-0.000570243 0.574781 -0.818307 
-0.000937842 0.471186 -0.882033 
-0.00124725 0.386889 -0.922125 
-0.00148373 0.296155 -0.955139 
-0.00177582 0.238418 -0.971161 
-0.00182207 0.18586 -0.982575 
-0.00205424 0.141411 -0.989949 
-0.00220012 0.111641 -0.993746 
-0.00225833 0.0843346 -0.996435 
-0.00235563 0.0639654 -0.997949 
-0.00240749 0.0489119 -0.9988 
-0.00241958 0.0375922 -0.99929 
-0.00245958 0.0284389 -0.999593 
-0.00254375 0.0219646 -0.999756 
-0.00250061 0.0167987 -0.999856 
-0.00254775 0.0124154 -0.99992 
-0.00254342 0.00915918 -0.999955 
-0.00247424 0.00628894 -0.999977 
-0.00255443 0.00370668 -0.99999 
-0.00254519 0.00137132 -0.999996 
-0.002515 -0.00114683 -0.999996 
-0.00255305 -0.00388883 -0.999989 
-0.00254851 -0.00695174 -0.999973 
-0.00247915 -0.0109632 -0.999937 
-0.00256449 -0.0159738 -0.999869 
-0.00252707 -0.0215285 -0.999765 
-0.00241355 -0.0296998 -0.999556 
-0.00251077 -0.0386278 -0.999251 
-0.00240322 -0.049082 -0.998792 
-0.00245653 -0.0651949 -0.99787 
-0.0025389 -0.0811636 -0.996698 
-0.002356 -0.0958552 -0.995393 
-0.00273777 -0.103694 -0.994606 
-0.0033063 -0.0879639 -0.996118 
-0.00163082 -0.0044742 -0.999989 
-0.00110048 -0.00275416 0.999996 
0.0166238 -0.05795 0.998181 
0.0291854 -0.0862095 0.995849 
0.031349 -0.0898228 0.995464 
0.0300758 -0.0788166 0.996435 
0.0346135 -0.0618775 0.997483 
0.0378496 -0.0494013 0.998062 
0.039934 -0.0389808 0.998442 
0.0399167 -0.0290843 0.99878 
0.0453701 -0.0221102 0.998726 
0.0409323 -0.0155289 0.999041 
0.0432416 -0.010328 0.999011 
0.0457443 -0.00656921 0.998932 
0.044037 -0.00341544 0.999024 
0.0451786 -0.000706486 0.998979 
0.0444523 0.00178267 0.99901 
0.0463179 0.00412039 0.998918 
0.0436271 0.00680858 0.999025 
0.0439887 0.0100301 0.998982 
0.0434905 0.0139472 0.998956 
0.0444998 0.0186666 0.998835 
0.0429356 0.0246319 0.998774 
0.0423428 0.0322669 0.998582 
0.0396265 0.0422955 0.998319 
0.0393001 0.0551951 0.997702 
0.0373207 0.0718399 0.996718 
0.0366865 0.0923235 0.995053 
0.0318412 0.118983 0.992386 
0.0290385 0.154828 0.987515 
0.0260324 0.19867 0.979721 
0.022506 0.254268 0.966872 
0.0184723 0.324161 0.945822 
0.0137775 0.406219 0.913672 
0.0120839 0.490185 0.871534 
0.00585576 0.604904 0.796277 
0.00382386 0.725693 0.688008 
0.00195867 0.828322 0.560249 
-2.13268e-05 0.918154 0.396224 
-0.00093954 0.975802 0.218656 
-0.00208449 0.999997 0.00155769 
-0.00299962 0.976629 -0.21491 
-0.00397113 0.914748 -0.404005 
-0.00539986 0.817178 -0.57636 
-0.00650204 0.698179 -0.715894 
-0.00948404 0.574068 -0.818752 
-0.0127592 0.469576 -0.8828 
-0.0139623 0.363244 -0.93159 
-0.0212832 0.288822 -0.957146 
-0.0228843 0.226991 -0.973628 
-0.0262403 0.173894 -0.984415 
-0.0333846 0.136493 -0.990078 
-0.0313088 0.104587 -0.994023 
-0.035359 0.0795407 -0.996204 
-0.0386328 0.0613528 -0.997368 
-0.0408207 0.0473922 -0.998042 
-0.0398743 0.0358499 -0.998561 
-0.0440963 0.0277406 -0.998642 
-0.0426694 0.0211849 -0.998865 
-0.0416853 0.015713 -0.999007 
-0.0467842 0.0117535 -0.998836 
-0.0444392 0.00837022 -0.998977 
-0.0453087 0.00540957 -0.998958 
-0.046332 0.00277026 -0.998922 
-0.0438337 0.000206703 -0.999039 
-0.0449136 -0.00261643 -0.998987 
-0.0457893 -0.00558743 -0.998936 
-0.0426696 -0.00912604 -0.999048 
-0.042318 -0.0137353 -0.99901 
-0.0451604 -0.019099 -0.998797 
-0.037976 -0.0257767 -0.998946 
-0.042195 -0.0345235 -0.998513 
-0.042717 -0.0441225 -0.998112 
-0.033299 -0.0564295 -0.997851 
-0.0365091 -0.0716941 -0.996758 
-0.0345317 -0.0854597 -0.995743 
-0.0308261 -0.0955502 -0.994947 
-0.0334184 -0.0829552 -0.995993 
-0.0110184 -0.0503718 -0.99867 
0.00270505 -0.00343106 -0.99999 
-0.0013589 -0.00353869 0.999993 
0.0279053 -0.0579403 0.99793 
0.0473586 -0.0840422 0.995336 
0.0495603 -0.0854655 0.995108 
0.0582847 -0.0780274 0.995246 
0.0484159 -0.0742934 0.99606 
0.0563668 -0.0593232 0.996646 
0.061081 -0.0477711 0.996989 
0.0609494 -0.0364602 0.997475 
0.0641835 -0.028001 0.997545 
0.0655114 -0.019782 0.997656 
0.0658215 -0.0140813 0.997732 
0.0679713 -0.00959586 0.997641 
0.0686937 -0.00573893 0.997621 
0.0690301 -0.00260967 0.997611 
0.0692362 0.000234766 0.9976 
0.0701522 0.00277173 0.997532 
0.069301 0.00559129 0.99758 
0.0686679 0.00871259 0.997602 
0.0680121 0.0124968 0.997606 
0.0678785 0.0170084 0.997549 
0.0666006 0.022668 0.997522 
0.0652192 0.0297215 0.997428 
0.0629868 0.038984 0.997253 
0.0612541 0.0506966 0.996834 
0.0586529 0.0660206 0.996093 
0.056404 0.0851626 0.994769 
0.0522291 0.109908 0.992569 
0.0470477 0.141237 0.988857 
0.0423097 0.184244 0.981969 
0.036315 0.23594 0.971089 
0.0294075 0.303936 0.952238 
0.0220912 0.388759 0.921075 
0.0161982 0.483136 0.875396 
0.00995835 0.593839 0.804522 
0.00571164 0.705221 0.708965 
0.00180217 0.823335 0.567553 
-0.000591509 0.919199 0.393793 
-0.00219144 0.981623 0.190816 
-0.00305805 0.999566 -0.0292978 
-0.00422313 0.9737 -0.227793 
-0.00558848 0.907328 -0.420386 
-0.00739354 0.81702 -0.576562 
-0.00989106 0.701047 -0.713047 
-0.013628 0.583618 -0.811914 
-0.018826 0.479603 -0.877284 
-0.0226656 0.385811 -0.922299 
-0.0302126 0.314673 -0.948719 
-0.0357948 0.245881 -0.968639 
-0.0401452 0.193721 -0.980235 
-0.0473746 0.151116 -0.98738 
-0.0509531 0.114311 -0.992138 
-0.0540367 0.0887211 -0.99459 
-0.0586503 0.0682064 -0.995946 
-0.0614456 0.053056 -0.996699 
-0.062284 0.0404508 -0.997238 
-0.0656377 0.0314671 -0.997347 
-0.0665142 0.0240593 -0.997495 
-0.0660244 0.0181345 -0.997653 
-0.069145 0.013712 -0.997512 
-0.0692649 0.00973984 -0.997551 
-0.0695822 0.00653696 -0.997555 
-0.0701871 0.00364201 -0.997527 
-0.0697335 0.000842616 -0.997565 
-0.0690819 -0.00188315 -0.997609 
-0.0696576 -0.00495826 -0.997559 
-0.0681583 -0.0084163 -0.997639 
-0.0664278 -0.0125024 -0.997713 
-0.0671155 -0.0176062 -0.99759 
-0.0642298 -0.0242305 -0.997641 
-0.0629837 -0.0315923 -0.997514 
-0.06327 -0.0415035 -0.997133 
-0.0592414 -0.0531145 -0.99683 
-0.0565095 -0.0654287 -0.996256 
-0.055485 -0.0787974 -0.995345 
-0.0517234 -0.0885432 -0.994729 
-0.050192 -0.0849168 -0.995123 
-0.0247745 -0.0517551 -0.998352 
0.000524553 -0.00335763 -0.999994 
-0.00221564 -0.00416478 0.999988 
0.0236148 -0.047419 0.998596 
0.0437851 -0.0772872 0.996047 
0.0536921 -0.0836008 0.995052 
0.0566652 -0.0762041 0.995481 
0.0608075 -0.0667622 0.995914 
0.0620509 -0.0541592 0.996602 
0.064589 -0.0410797 0.997066 
0.0662864 -0.0321589 0.997282 
0.0682304 -0.0236739 0.997389 
0.0691068 -0.0172771 0.99746 
0.0704507 -0.012518 0.997437 
0.0716058 -0.00819918 0.997399 
0.0722589 -0.00467166 0.997375 
0.0730206 -0.00159156 0.997329 
0.0731991 0.00113915 0.997317 
0.0733704 0.00408568 0.997296 
0.0731041 0.00719295 0.997298 
0.0725141 0.0107802 0.997309 
0.071437 0.0149719 0.997333 
0.0701056 0.0201751 0.997336 
0.0686053 0.0265486 0.997291 
0.0670496 0.0346873 0.997147 
0.0650901 0.0448528 0.996871 
0.0627557 0.0580585 0.996339 
0.0597991 0.0744997 0.995426 
0.0561282 0.0964871 0.99375 
0.0519921 0.123882 0.990934 
0.0471588 0.158603 0.986216 
0.0403442 0.207504 0.977402 
0.0335981 0.267216 0.963051 
0.025908 0.342479 0.939168 
0.0179704 0.430008 0.902646 
0.0104534 0.534073 0.845374 
0.00958041 0.581258 0.813663 
0.00459561 0.710235 0.70395 
0.00154414 0.834118 0.551584 
0.000473033 0.927036 0.374971 
-0.00133432 0.984108 0.177568 
-0.00233453 0.999725 -0.0233144 
-0.00272031 0.979194 -0.202907 
-0.00393985 0.927602 -0.373548 
-0.00560198 0.833516 -0.552466 
-0.00848068 0.72814 -0.685376 
-0.012002 0.616977 -0.786889 
-0.0162528 0.51159 -0.859076 
-0.0237667 0.39993 -0.916238 
-0.0298191 0.315921 -0.948317 
-0.0366473 0.247816 -0.968114 
-0.0429926 0.190638 -0.980718 
-0.0493705 0.142052 -0.988627 
-0.0538983 0.11057 -0.992406 
-0.0580282 0.085889 -0.994613 
-0.0606773 0.0673624 -0.995882 
-0.0638498 0.0514716 -0.996631 
-0.0659218 0.0402885 -0.997011 
-0.0677313 0.031008 -0.997222 
-0.0696146 0.0235328 -0.997296 
-0.0708275 0.0180919 -0.997325 
-0.0719 0.0131268 -0.997325 
-0.0725024 0.00927728 -0.997325 
-0.0730432 0.00591364 -0.997311 
-0.0734017 0.00278872 -0.997299 
-0.0733147 -0.000118601 -0.997309 
-0.0730468 -0.00302649 -0.997324 
-0.072277 -0.00642667 -0.997364 
-0.0714579 -0.0101063 -0.997392 
-0.0703714 -0.0143587 -0.997418 
-0.0689713 -0.0203438 -0.997411 
-0.067239 -0.0267669 -0.997378 
-0.0657091 -0.0346336 -0.997238 
-0.0635305 -0.0464449 -0.996899 
-0.0620937 -0.0577621 -0.996397 
-0.0607748 -0.0701806 -0.995681 
-0.0576716 -0.0786347 -0.995234 
-0.0565826 -0.0846317 -0.994804 
-0.0501581 -0.0843821 -0.99517 
-0.0337506 -0.0597138 -0.997645 
1.81439e-05 -0.00325572 -0.999995 
-0.00242273 -0.00398908 0.999989 
0.01941 -0.0434704 0.998866 
0.0469558 -0.0855538 0.995226 
0.0511773 -0.0815993 0.99535 
0.050823 -0.0733014 0.996014 
0.05807 -0.0664191 0.996101 
0.0553453 -0.05971 0.99668 
0.0599734 -0.048215 0.997035 
0.0603771 -0.0379921 0.997452 
0.0633264 -0.0288312 0.997576 
0.0644992 -0.0219079 0.997677 
0.0644349 -0.0163237 0.997788 
0.0665075 -0.0115217 0.997719 
0.0672985 -0.00750834 0.997705 
0.0679418 -0.00394875 0.997681 
0.0684277 -0.000956643 0.997656 
0.0689254 0.00221942 0.997619 
0.0688921 0.00541912 0.997609 
0.0686399 0.00894692 0.997601 
0.0675314 0.0128929 0.997634 
0.0662287 0.0176868 0.997648 
0.0647188 0.0235105 0.997627 
0.063354 0.0307513 0.997517 
0.0616524 0.0395791 0.997313 
0.0597233 0.0508517 0.996919 
0.0570723 0.0649038 0.996258 
0.0541225 0.0832347 0.995059 
0.0502231 0.107178 0.992971 
0.0460545 0.136955 0.989506 
0.0411622 0.175702 0.983582 
0.0335093 0.233739 0.971722 
0.0270062 0.298822 0.953927 
0.0196535 0.374459 0.927035 
0.0125252 0.466082 0.884653 
0.00512671 0.654138 0.756358 
0.00221008 0.772293 0.635262 
0.00030495 0.885793 0.464081 
-0.00246746 0.949753 0.312991 
-0.000703808 0.978883 0.204419 
-0.00152355 0.999774 0.0212134 
-0.00216414 0.980047 -0.198753 
-0.00283609 0.927074 -0.374867 
-0.00379431 0.844236 -0.535958 
-0.00659512 0.720488 -0.693436 
-0.00952096 0.601518 -0.798802 
-0.0131298 0.501483 -0.865068 
-0.0199992 0.418988 -0.907771 
-0.0239111 0.346486 -0.93775 
-0.0305659 0.272321 -0.961721 
-0.037252 0.213213 -0.976295 
-0.0434173 0.163796 -0.985538 
-0.0478035 0.124246 -0.991099 
-0.0522708 0.0959909 -0.994009 
-0.0547856 0.0763961 -0.995571 
-0.0582518 0.0580967 -0.99661 
-0.0602748 0.045321 -0.997152 
-0.062332 0.0354069 -0.997427 
-0.0644077 0.0268742 -0.997562 
-0.0655587 0.0206411 -0.997635 
-0.0673311 0.0154625 -0.997611 
-0.0673938 0.0109093 -0.997667 
-0.0681478 0.00711293 -0.99765 
-0.0687731 0.00367794 -0.997626 
-0.0686454 0.000517352 -0.997641 
-0.0684689 -0.00264581 -0.99765 
-0.068194 -0.0058377 -0.997655 
-0.0670748 -0.0097133 -0.997701 
-0.0658878 -0.0139311 -0.99773 
-0.0654353 -0.0189863 -0.997676 
-0.0625759 -0.0256842 -0.99771 
-0.0610889 -0.0332663 -0.997578 
-0.0603187 -0.0425918 -0.99727 
-0.0572968 -0.055718 -0.996801 
-0.0569409 -0.0675033 -0.996093 
-0.0525908 -0.0780981 -0.995558 
-0.0502168 -0.0845674 -0.995152 
-0.040871 -0.0791303 -0.996026 
-0.0265783 -0.052262 -0.99828 
0.000434154 -0.00314449 -0.999995 
-0.00107484 -0.00338453 0.999994 
0.0175169 -0.0465238 0.998764 
0.0347446 -0.0724275 0.996768 
0.0403129 -0.0862272 0.99546 
0.044655 -0.0820065 0.995631 
0.0467232 -0.0683029 0.99657 
0.0505316 -0.0536649 0.99728 
0.0528013 -0.0442461 0.997624 
0.0546423 -0.0330799 0.997958 
0.0561231 -0.0257861 0.998091 
0.056146 -0.0198234 0.998226 
0.057044 -0.0141582 0.998271 
0.0586977 -0.0099121 0.998227 
0.0596386 -0.00605775 0.998202 
0.0592756 -0.00264689 0.998238 
0.0607078 0.000656623 0.998155 
0.060661 0.00406444 0.99815 
0.0604465 0.00773232 0.998141 
0.0592637 0.0116809 0.998174 
0.0582364 0.0163198 0.998169 
0.0568988 0.0219056 0.99814 
0.0557154 0.0287959 0.998031 
0.0540723 0.0371819 0.997845 
0.0525586 0.0476144 0.997482 
0.0501525 0.0607244 0.996894 
0.0476212 0.0777951 0.995831 
0.0444181 0.0999285 0.994003 
0.0401304 0.129921 0.990712 
0.0360299 0.167824 0.985158 
0.0306375 0.217622 0.975552 
0.0221051 0.294423 0.95542 
0.0152287 0.381022 0.924441 
0.00806066 0.492375 0.870346 
0.00193082 0.614296 0.789073 
0.0062142 0.583674 0.811964 
0.00156135 0.699566 0.714566 
-0.00129114 0.815594 0.578623 
-0.00321075 0.885462 0.464701 
-0.00308586 0.995402 0.0957403 
0.00387322 0.997861 0.0652608 
-0.000421519 0.992571 -0.121667 
-0.00161044 0.949891 -0.312577 
-0.00187341 0.852611 -0.522542 
-0.00372612 0.751008 -0.660283 
-0.00571401 0.62841 -0.777862 
-0.00799881 0.514198 -0.857634 
-0.0147111 0.415733 -0.909368 
-0.0206074 0.323845 -0.945886 
-0.027145 0.253809 -0.966873 
-0.034167 0.196984 -0.979811 
-0.0392677 0.152343 -0.987547 
-0.0425616 0.115518 -0.992393 
-0.0446321 0.0923137 -0.994729 
-0.0490965 0.0706295 -0.996294 
-0.0508555 0.0552639 -0.997176 
-0.0524891 0.0432267 -0.997685 
-0.0553026 0.033242 -0.997916 
-0.05625 0.0258256 -0.998083 
-0.0575316 0.0195686 -0.998152 
-0.0594388 0.0144791 -0.998127 
-0.0588677 0.00990893 -0.998217 
-0.0599644 0.00593388 -0.998183 
-0.0600298 0.00246579 -0.998194 
-0.0600928 -0.000917802 -0.998192 
-0.0595496 -0.00424621 -0.998216 
-0.0598958 -0.00772366 -0.998175 
-0.0580922 -0.0117405 -0.998242 
-0.0575268 -0.0164342 -0.998209 
-0.0567399 -0.0216639 -0.998154 
-0.0533933 -0.0288555 -0.998157 
-0.052583 -0.0372827 -0.99792 
-0.0529114 -0.0475611 -0.997466 
-0.0484109 -0.0587404 -0.997099 
-0.0497274 -0.0687985 -0.99639 
-0.0449594 -0.079404 -0.995828 
-0.0436305 -0.0851909 -0.995409 
-0.0352704 -0.0816106 -0.99604 
-0.0205395 -0.0478123 -0.998645 
0.00033052 -0.00331267 -0.999994 
-0.000188517 -0.00302652 0.999995 
0.0167147 -0.054754 0.99836 
0.0303879 -0.0792889 0.996388 
0.0337234 -0.0860159 0.995723 
0.0398514 -0.0788652 0.996088 
0.036514 -0.0711534 0.996797 
0.0417489 -0.0594927 0.997355 
0.0400285 -0.0478828 0.998051 
0.0454566 -0.0388759 0.99821 
0.0444494 -0.0303203 0.998551 
0.0452773 -0.0240401 0.998685 
0.0469328 -0.0179475 0.998737 
0.0467784 -0.0130357 0.99882 
0.0487994 -0.00896791 0.998768 
0.0492222 -0.00531908 0.998774 
0.0492217 -0.00164802 0.998787 
0.0503835 0.00175126 0.998728 
0.0501982 0.00542288 0.998725 
0.0490051 0.00922925 0.998756 
0.0482129 0.0136062 0.998744 
0.0474436 0.0186783 0.998699 
0.0464871 0.0247433 0.998612 
0.0452425 0.0319563 0.998465 
0.0438528 0.0408609 0.998202 
0.0423126 0.0517208 0.997765 
0.0403024 0.0659075 0.997011 
0.037846 0.0840957 0.995739 
0.0349841 0.10832 0.9935 
0.0309315 0.141113 0.98951 
0.0272309 0.183358 0.982669 
0.0224968 0.242704 0.96984 
0.014848 0.325902 0.945287 
0.00931694 0.418928 0.907972 
0.0035455 0.522953 0.852354 
-0.00148048 0.738698 0.674035 
-0.00165596 0.875966 0.482369 
0.00467405 0.943696 0.33078 
0.00476135 0.92655 0.376141 
-0.00124442 0.971668 0.236347 
0.00378585 0.998277 0.0585471 
-0.000149138 0.998926 -0.0463265 
0.000570573 0.983252 -0.182248 
-0.00123497 0.940654 -0.339365 
-0.000894963 0.812568 -0.582865 
-0.00163547 0.709776 -0.704426 
-0.0030775 0.589561 -0.807718 
-0.00964932 0.420912 -0.90705 
-0.0144329 0.333471 -0.94265 
-0.020328 0.256016 -0.966459 
-0.0269589 0.198623 -0.979705 
-0.0275727 0.167716 -0.98545 
-0.0337363 0.136014 -0.990132 
-0.0338454 0.107277 -0.993653 
-0.0385254 0.0817802 -0.995906 
-0.0405882 0.0642124 -0.997111 
-0.041991 0.0501127 -0.99786 
-0.0444817 0.0385404 -0.998267 
-0.0455264 0.0301681 -0.998507 
-0.0468624 0.0230595 -0.998635 
-0.048059 0.0170992 -0.998698 
-0.0491666 0.0123422 -0.998714 
-0.0491622 0.00756233 -0.998762 
-0.0492142 0.00370804 -0.998781 
-0.0496022 4.04999e-05 -0.998769 
-0.0489804 -0.003491 -0.998794 
-0.0491956 -0.00717655 -0.998763 
-0.0483129 -0.0109444 -0.998772 
-0.0476332 -0.015621 -0.998743 
-0.0461289 -0.0209809 -0.998715 
-0.0447123 -0.027038 -0.998634 
-0.042786 -0.035892 -0.998439 
-0.043306 -0.0462598 -0.99799 
-0.0396917 -0.0593647 -0.997447 
-0.0396717 -0.0724481 -0.996583 
-0.0348791 -0.0821356 -0.996011 
-0.0353907 -0.0866545 -0.99561 
-0.0283187 -0.0850032 -0.995978 
-0.0201645 -0.0574374 -0.998145 
0.000166148 -0.00320918 -0.999995 
6.82672e-05 -0.00297155 0.999996 
0.0126243 -0.0546561 0.998425 
0.0253892 -0.0848232 0.996073 
0.0247332 -0.0882463 0.995792 
0.0307251 -0.0826685 0.996103 
0.0283546 -0.0735856 0.996886 
0.0321345 -0.0592253 0.997727 
0.0308604 -0.0468593 0.998425 
0.0351495 -0.0372075 0.998689 
0.0331768 -0.0298068 0.999005 
0.0359582 -0.0229881 0.999089 
0.0370472 -0.0173 0.999164 
0.0365994 -0.0125426 0.999251 
0.03855 -0.00852004 0.99922 
0.0395595 -0.00454349 0.999207 
0.0389107 -0.000719411 0.999242 
0.040073 0.00298872 0.999192 
0.0388236 0.00685232 0.999223 
0.0381831 0.0112852 0.999207 
0.0377233 0.0162958 0.999155 
0.0371011 0.0220334 0.999069 
0.0360848 0.0287917 0.998934 
0.0350229 0.0370297 0.9987 
0.0335938 0.0472469 0.998318 
0.0322563 0.0601521 0.997668 
0.0301798 0.0771068 0.996566 
0.027877 0.0996157 0.994635 
0.0248281 0.129651 0.991249 
0.0211991 0.172494 0.984782 
0.0180457 0.227862 0.973526 
0.0130824 0.298279 0.954389 
0.00725771 0.40172 0.915734 
0.00308992 0.511942 0.859015 
0.000745337 0.636925 0.770926 
-0.000306763 0.632884 0.774247 
0.00292356 0.842781 0.538249 
0.00442385 0.97915 0.203092 
0.0045152 0.997572 0.0694901 
0.00406077 0.999022 0.0440177 
0.00305246 0.999691 -0.0246879 
0.00266063 0.998718 -0.0505578 
0.00236019 0.998175 -0.0603447 
-0.00252326 0.960328 -0.278862 
0.000671692 0.828225 -0.560395 
0.00054394 0.667234 -0.744848 
0.000156626 0.562205 -0.826998 
-0.00393782 0.493037 -0.87 
-0.00653572 0.388756 -0.921318 
-0.0112596 0.30313 -0.952883 
-0.0163682 0.23261 -0.972432 
-0.0208964 0.173909 -0.98454 
-0.0253586 0.130954 -0.991064 
-0.028202 0.0957255 -0.995008 
-0.0302703 0.0752549 -0.996705 
-0.0322433 0.0589832 -0.997738 
-0.0341399 0.0454322 -0.998384 
-0.0350064 0.0358155 -0.998745 
-0.0363571 0.0277417 -0.998954 
-0.0375666 0.0210491 -0.999072 
-0.0378233 0.015547 -0.999163 
-0.0398591 0.0105838 -0.999149 
-0.0385524 0.00609417 -0.999238 
-0.0391366 0.00205365 -0.999232 
-0.0387672 -0.00162391 -0.999247 
-0.038836 -0.00543109 -0.999231 
-0.0379904 -0.00913432 -0.999236 
-0.0381665 -0.0133212 -0.999183 
-0.0368349 -0.0180985 -0.999157 
-0.0349498 -0.0236319 -0.99911 
-0.0350791 -0.0307251 -0.998912 
-0.0322379 -0.0392813 -0.998708 
-0.0340606 -0.0479642 -0.998268 
-0.0299023 -0.0589815 -0.997811 
-0.0312219 -0.0707842 -0.997003 
-0.027212 -0.0819089 -0.996268 
-0.0260009 -0.0883037 -0.995754 
-0.020486 -0.0832328 -0.99632 
-0.0136941 -0.0518232 -0.998562 
0.000215925 -0.0030325 -0.999995 
-5.33606e-05 -0.00294916 0.999996 
0.00900934 -0.0560353 0.998388 
0.0182317 -0.0841556 0.996286 
0.018302 -0.089705 0.9958 
0.02277 -0.0832168 0.996271 
0.0206896 -0.0735059 0.99708 