# vtk DataFile Version 3.0 
Exported using Morpho https://github.com/Morpho-lang/morpho 
ASCII 
DATASET UNSTRUCTURED_GRID 

POINTS 1978 float 
-11.9998 -3.99976 -8.93e-07 
-11.6054 -3.99971 -1.23543e-06 
-11.3089 -3.9997 5.03367e-07 
-10.9598 -3.99974 -3.76296e-07 
-10.647 -3.99974 -6.35036e-07 
-10.2968 -3.99973 -1.53001e-07 
-9.97739 -3.99974 -1.8009e-07 
-9.65591 -3.99971 -2.03021e-07 
-9.31814 -3.99972 -1.93759e-07 
-8.995 -3.99975 -1.93001e-07 
-8.68381 -3.99973 -1.32483e-07 
-8.36971 -3.99974 1.88992e-09 
-8.06081 -3.99972 -6.75157e-08 
-7.76515 -3.99976 3.83969e-08 
-7.48458 -3.99975 -2.91051e-08 
-7.18788 -3.99972 -1.74082e-08 
-6.89103 -3.99978 1.25329e-08 
-6.5931 -3.99975 3.98742e-08 
-6.29285 -3.99974 6.18176e-08 
-5.98523 -3.99973 5.94557e-08 
-5.67644 -3.99973 8.17985e-08 
-5.37199 -3.99973 1.48526e-07 
-5.0686 -3.99975 2.09871e-07 
-4.77658 -3.99973 1.76795e-07 
-4.44532 -3.99975 3.70311e-07 
-4.15798 -3.99977 5.12911e-07 
-3.86523 -3.99977 5.32017e-07 
-3.54956 -3.99977 1.00671e-06 
-3.25564 -3.99982 1.31051e-06 
-2.97039 -3.99989 1.77472e-06 
-2.67123 -3.99983 2.57917e-06 
-2.41514 -3.9999 2.95269e-06 
-2.14144 -3.99991 2.87034e-06 
-1.8607 -3.99995 3.12446e-06 
-1.56313 -3.99995 2.73586e-06 
-1.26846 -3.99988 -2.49322e-07 
-0.967567 -3.99978 -5.71996e-06 
-0.672573 -3.99959 -1.5651e-05 
-0.37422 -3.99939 -2.23301e-05 
0.048468 -3.9991 2.31993e-05 
0.376744 -3.99944 1.65257e-05 
0.668258 -3.99965 1.27427e-05 
0.924249 -3.99978 -1.46875e-06 
1.23344 -3.99987 1.05259e-06 
1.50745 -3.99999 -6.28219e-07 
1.77872 -3.99995 -3.37797e-06 
2.07072 -3.9999 -3.58202e-06 
2.3579 -3.99988 -2.77592e-06 
2.68426 -3.99986 -2.12386e-06 
2.98074 -3.99985 -1.53047e-06 
3.29509 -3.99977 -1.29394e-06 
3.57992 -3.9998 -9.96463e-07 
3.87467 -3.99977 -6.40287e-07 
4.18897 -3.99975 -4.19842e-07 
4.48777 -3.99975 -3.53509e-07 
4.78279 -3.99974 -2.70354e-07 
5.09449 -3.99974 -1.97964e-07 
5.40235 -3.99973 -1.05472e-07 
5.71297 -3.99974 -6.7419e-08 
6.00788 -3.99974 -5.15529e-08 
6.30691 -3.99975 -8.63646e-08 
6.59014 -3.99974 -1.52414e-08 
6.8954 -3.99975 -4.42639e-08 
7.17522 -3.99974 -1.90674e-08 
7.47428 -3.99975 -1.01463e-08 
7.76854 -3.99975 4.87436e-08 
8.06596 -3.99975 6.78848e-08 
8.35827 -3.99977 1.31162e-08 
8.65666 -3.99975 1.76599e-07 
8.93618 -3.99973 3.17321e-08 
9.2839 -3.99974 2.63376e-07 
9.61152 -3.99973 2.38749e-07 
9.90408 -3.99973 6.25597e-08 
10.2728 -3.99972 2.19637e-07 
10.5899 -3.9997 4.71556e-07 
10.9802 -3.99972 4.3131e-07 
11.2974 -3.99972 -3.2974e-07 
11.5891 -3.99971 1.07386e-06 
11.9998 -3.99974 9.29438e-07 
-11.9998 -3.6123 1.66587e-06 
-11.7111 -3.71322 3.668e-07 
-11.3602 -3.61917 9.27523e-07 
-11.0508 -3.67858 1.1357e-06 
-10.7123 -3.64494 5.68649e-07 
-10.3954 -3.68298 1.55146e-07 
-10.0582 -3.65706 3.8679e-07 
-9.73683 -3.66458 3.38373e-07 
-9.40167 -3.68131 1.11692e-07 
-9.06274 -3.66859 -4.21616e-08 
-8.74566 -3.66017 -1.39457e-09 
-8.43058 -3.66804 -4.20816e-08 
-8.11503 -3.66602 -6.71445e-08 
-7.80004 -3.65788 -1.72308e-07 
-7.50078 -3.64497 -1.5279e-07 
-7.20848 -3.66171 -6.03342e-08 
-6.89991 -3.66491 -1.11077e-07 
-6.59307 -3.66662 -1.53228e-07 
-6.28097 -3.6697 -2.30844e-07 
-5.9666 -3.66792 -2.02398e-07 
-5.6575 -3.66172 -2.54001e-07 
-5.3508 -3.66076 -2.97005e-07 
-5.05661 -3.65018 -3.21489e-07 
-4.7293 -3.69506 -1.68839e-07 
-4.4374 -3.6554 -4.24281e-07 
-4.13901 -3.66943 -6.78913e-07 
-3.82237 -3.6982 -3.35003e-07 
-3.51389 -3.68266 -6.90215e-07 
-3.21638 -3.67994 -1.10868e-06 
-2.91922 -3.69407 -1.67009e-06 
-2.64847 -3.63601 -1.93935e-06 
-2.36786 -3.66401 -2.46723e-06 
-2.07919 -3.67531 -1.51002e-06 
-1.7869 -3.69133 -2.18744e-06 
-1.49568 -3.67395 1.13618e-07 
-1.19313 -3.65694 -4.0313e-07 
-0.897258 -3.61288 -2.65346e-06 
-0.590324 -3.58859 -1.18151e-06 
-0.242737 -3.69606 -1.71246e-05 
0.0301713 -3.50187 -8.55637e-06 
0.311343 -3.59895 6.22653e-06 
0.622281 -3.58137 -1.06152e-06 
0.907945 -3.5626 3.21657e-06 
1.17396 -3.67443 1.79657e-06 
1.4897 -3.65345 6.55138e-07 
1.79365 -3.6832 2.53883e-06 
2.09429 -3.67848 1.36906e-06 
2.42196 -3.71991 8.3957e-07 
2.72739 -3.69034 8.33212e-07 
3.03881 -3.70331 8.63115e-07 
3.33383 -3.66366 1.18107e-06 
3.6265 -3.671 8.3786e-07 
3.93504 -3.68684 5.15722e-07 
4.23382 -3.66521 4.84067e-07 
4.52769 -3.65639 4.44441e-07 
4.83561 -3.67194 2.50205e-07 
5.14457 -3.66688 2.97588e-07 
5.45772 -3.67054 2.03028e-07 
5.75784 -3.65502 2.49399e-07 
6.06131 -3.6618 1.35829e-07 
6.35174 -3.64503 1.81721e-07 
6.65817 -3.67243 1.60566e-07 
6.94768 -3.64227 1.25322e-07 
7.2496 -3.66623 7.61647e-08 
7.55018 -3.66054 9.99506e-08 
7.85193 -3.66238 1.57255e-07 
8.15062 -3.65477 7.32057e-08 
8.44581 -3.65813 2.54299e-08 
8.73459 -3.62976 1.12907e-07 
9.05618 -3.69992 1.59619e-07 
9.38807 -3.67685 -1.11037e-07 
9.69505 -3.63288 -5.00394e-07 
10.0311 -3.7068 -1.39428e-07 
10.3611 -3.65532 -1.81661e-07 
10.7237 -3.71741 4.27737e-07 
11.0558 -3.64779 -1.18469e-06 
11.358 -3.61422 -8.88437e-07 
11.7117 -3.72421 -1.28792e-07 
11.9997 -3.6064 -1.61777e-06 
-11.9997 -3.31402 -1.74022e-07 
-11.627 -3.36278 -5.70703e-07 
-11.2805 -3.27499 -3.61927e-07 
-10.9719 -3.33476 4.40954e-07 
-10.6581 -3.2955 -4.9538e-07 
-10.3452 -3.3469 -4.8235e-07 
-10.0244 -3.31788 -4.7937e-07 
-9.70743 -3.32242 -1.21341e-07 
-9.39542 -3.36088 7.92073e-08 
-9.08502 -3.32905 -1.28125e-07 
-8.77487 -3.31951 -2.27952e-07 
-8.46925 -3.33086 -5.66222e-08 
-8.16001 -3.3302 3.76354e-08 
-7.85483 -3.32979 -9.52096e-08 
-7.54956 -3.30397 -9.15425e-08 
-7.25253 -3.31437 2.69226e-08 
-6.9516 -3.34286 9.41368e-08 
-6.64008 -3.33512 4.04111e-08 
-6.33184 -3.34071 -2.46204e-09 
-6.02122 -3.33855 3.35316e-08 
-5.71145 -3.32804 8.06143e-08 
-5.40365 -3.32487 4.91745e-08 
-5.10223 -3.30307 1.38173e-07 
-4.80273 -3.37475 1.41652e-07 
-4.50304 -3.32261 3.46019e-07 
-4.20514 -3.33882 4.49434e-07 
-3.90201 -3.38373 2.43439e-07 
-3.59829 -3.37987 4.4225e-07 
-3.28235 -3.36154 7.25507e-07 
-2.98238 -3.36509 1.16723e-06 
-2.67914 -3.31367 2.1122e-06 
-2.37319 -3.32413 2.08686e-06 
-2.08362 -3.34503 1.09312e-06 
-1.79019 -3.36781 1.12728e-06 
-1.4736 -3.34917 1.24526e-07 
-1.16765 -3.29348 4.25871e-07 
-0.836943 -3.23329 4.10671e-06 
-0.556461 -3.12304 2.37017e-06 
-0.290709 -3.29565 -1.31416e-06 
0.0124994 -3.03842 -2.52944e-05 
0.305144 -3.13461 5.70677e-06 
0.594414 -3.16284 8.86522e-06 
0.884497 -3.1431 3.79334e-06 
1.18186 -3.27951 -3.27403e-09 
1.4543 -3.33723 1.28666e-06 
1.77291 -3.35515 -1.09339e-06 
2.06854 -3.36031 -1.53071e-06 
2.37722 -3.4231 -1.9497e-07 
2.68677 -3.38124 -6.32022e-07 
2.99158 -3.39164 -5.80254e-07 
3.28483 -3.3412 -9.40383e-07 
3.58688 -3.33835 -7.5484e-07 
3.88274 -3.36553 -3.0879e-07 
4.18076 -3.33782 -3.97471e-07 
4.47982 -3.31742 -3.03723e-07 
4.77834 -3.33912 -2.1071e-07 
5.08156 -3.33688 -6.64912e-08 
5.39156 -3.34318 -3.80962e-08 
5.69948 -3.31711 -6.707e-08 
6.0033 -3.32643 8.09619e-09 
6.30395 -3.2992 -4.23228e-08 
6.60474 -3.34001 -1.95381e-08 
6.90521 -3.29986 -5.71563e-08 
7.20796 -3.33195 3.99497e-08 
7.51382 -3.32601 9.20111e-08 
7.81802 -3.32873 4.39892e-08 
8.12392 -3.31744 -2.22221e-08 
8.42702 -3.30842 6.34178e-08 
8.74522 -3.30466 2.36781e-07 
9.06687 -3.37965 8.16815e-08 
9.38191 -3.3372 -5.00464e-08 
9.69895 -3.29185 9.69454e-08 
10.0132 -3.38155 1.48744e-07 
10.3128 -3.302 6.01175e-07 
10.634 -3.3997 -2.36158e-08 
10.9618 -3.33143 -5.55564e-07 
11.2912 -3.25424 5.2107e-07 
11.6281 -3.3741 3.58964e-07 
11.9997 -3.30247 5.96696e-08 
-11.9997 -2.9916 9.99208e-07 
-11.6537 -3.05148 -1.30168e-06 
-11.3095 -2.95718 -7.63318e-07 
-10.9622 -2.97864 -5.1027e-08 
-10.6241 -2.96745 -9.13716e-07 
-10.2936 -3.00348 -8.61467e-07 
-9.96917 -2.9797 -5.95469e-07 
-9.64866 -2.9903 -2.56038e-07 
-9.34579 -3.0144 -7.69809e-08 
-9.03837 -2.98466 -2.50661e-07 
-8.73322 -2.97425 -2.44359e-07 
-8.43047 -2.99383 2.77786e-08 
-8.1278 -2.991 1.07176e-07 
-7.827 -2.99234 -2.88888e-08 
-7.52586 -2.96367 -9.88947e-08 
-7.22404 -2.98266 3.07583e-08 
-6.92386 -3.01653 9.13072e-08 
-6.61607 -3.00576 1.29488e-07 
-6.3101 -3.00978 1.07452e-07 
-6.00267 -3.00636 1.79189e-07 
-5.69417 -2.99655 2.10478e-07 
-5.3915 -2.98794 2.09172e-07 
-5.08862 -2.97072 3.38557e-07 
-4.79081 -3.04133 4.51474e-07 
-4.492 -2.9922 6.78524e-07 
-4.198 -3.01166 7.31716e-07 
-3.90379 -3.06398 1.0072e-06 
-3.60083 -3.05985 1.56075e-06 
-3.29955 -3.05976 2.03258e-06 
-2.97125 -3.03739 2.37108e-06 
-2.66976 -2.96701 2.51462e-06 
-2.36753 -2.9854 2.46051e-06 
-2.06825 -2.99599 2.98102e-06 
-1.76108 -3.04367 2.24523e-06 
-1.45209 -3.00107 -1.08991e-06 
-1.11234 -2.95971 -2.05794e-06 
-0.837598 -2.79066 -4.83776e-06 
-0.554509 -2.67164 -3.85679e-06 
-0.239299 -2.82958 3.03816e-05 
0.0262734 -2.47076 8.17353e-07 
0.249429 -2.65604 -3.3005e-07 
0.540144 -2.70984 -6.23322e-06 
0.833425 -2.69833 2.16189e-06 
1.15004 -2.90477 -1.4903e-06 
1.46251 -2.9471 -9.16733e-07 
1.7392 -3.02846 -2.16771e-06 
2.05855 -3.02047 -3.3198e-06 
2.35692 -3.10878 -3.74177e-06 
2.65843 -3.05462 -3.17416e-06 
2.95864 -3.06951 -2.36315e-06 
3.25958 -3.01842 -1.91706e-06 
3.56739 -3.01634 -1.3841e-06 
3.87681 -3.03544 -1.09469e-06 
4.17615 -3.00911 -7.43643e-07 
4.47581 -2.98902 -6.75488e-07 
4.77638 -3.00503 -4.35883e-07 
5.07545 -3.00363 -3.26816e-07 
5.3766 -3.01475 -2.7623e-07 
5.68165 -2.98733 -2.41624e-07 
5.99025 -2.9908 -1.36823e-07 
6.30016 -2.96934 -9.02582e-08 
6.60529 -3.00326 -1.58515e-07 
6.92102 -2.97791 -1.41949e-07 
7.23188 -3.00099 -6.93137e-08 
7.53189 -2.99117 1.00353e-07 
7.83513 -2.996 6.28759e-08 
8.13264 -2.9787 -2.14169e-08 
8.43389 -2.97223 1.95182e-08 
8.73852 -2.97592 2.1393e-07 
9.05418 -3.05009 2.34159e-07 
9.36974 -3.00616 7.6806e-08 
9.66602 -2.94304 1.94202e-07 
9.9852 -3.02991 6.66335e-07 
10.3165 -2.97304 1.12934e-06 
10.6481 -3.06247 8.75154e-07 
10.9813 -2.99277 7.89448e-08 
11.3325 -2.93214 5.4468e-07 
11.6638 -3.05783 7.91082e-07 
11.9997 -2.96814 -9.12205e-07 
-11.9997 -2.67147 8.62007e-07 
-11.6518 -2.7257 -3.98006e-07 
-11.3147 -2.62922 6.23647e-08 
-10.9756 -2.65419 7.65151e-07 
[...]
POINT_DATA 1978 
VECTORS vectors float
0.0321724 -0.0427894 0.998604 
0.0346032 -0.0398467 0.998705 
0.0343383 -0.0448167 0.998487 
0.0327029 -0.0383009 0.99882 
0.0333988 -0.0322686 0.999009 
0.0332725 -0.026073 0.999192 
0.0336764 -0.0200004 0.999312 
0.0335743 -0.0141017 0.99942 
0.0336942 -0.00917938 0.999473 
0.0340958 -0.00536258 0.999483 
0.0343823 -0.00268191 0.999482 
0.0345274 -0.000734224 0.999477 
0.0348346 0.000681314 0.999463 
0.0352705 0.00170717 0.999441 
0.035392 0.00255543 0.999434 
0.0353953 0.00330926 0.99943 
0.0351944 0.00391785 0.999417 
0.0349002 0.0044046 0.99945 
0.0348544 0.00517209 0.999448 
0.0347217 0.00611187 0.99945 
0.0347165 0.00727218 0.999442 
0.034639 0.00884905 0.999432 
0.034766 0.011156 0.999402 
0.0340207 0.0141753 0.999394 
0.0339437 0.0187885 0.999318 
0.0339394 0.0248385 0.999181 
0.0330081 0.0332487 0.99897 
0.0323069 0.0453917 0.998514 
0.0315372 0.0622239 0.997628 
0.0301726 0.0840783 0.996066 
0.0286542 0.115418 0.992969 
0.0265265 0.152428 0.988024 
0.0229929 0.204769 0.978609 
0.0190182 0.273963 0.96162 
0.013973 0.370067 0.928969 
0.00755405 0.490387 0.871537 
0.000749475 0.637684 0.770348 
-0.00401983 0.794171 0.607701 
-0.00290174 0.92823 0.371935 
-0.00026315 0.998466 -0.054282 
0.00420163 0.924525 -0.381032 
0.00348455 0.792179 -0.610297 
-0.000703154 0.660486 -0.750888 
-0.00736958 0.507627 -0.861608 
-0.0126069 0.392371 -0.919761 
-0.0172698 0.296986 -0.954797 
-0.0221542 0.217952 -0.975779 
-0.0252567 0.160475 -0.986787 
-0.0280218 0.113501 -0.993213 
-0.0298137 0.0827282 -0.996195 
-0.0315681 0.0591918 -0.997815 
-0.0327252 0.0437927 -0.99857 
-0.0330827 0.0323696 -0.998997 
-0.0336182 0.0240323 -0.999216 
-0.0342289 0.0181273 -0.999318 
-0.0343168 0.0138717 -0.999385 
-0.0344261 0.0108547 -0.999421 
-0.0345272 0.00876477 -0.999438 
-0.0348419 0.00722285 -0.999437 
-0.0350054 0.00608076 -0.999436 
-0.0353352 0.00511607 -0.999427 
-0.0351103 0.00443658 -0.999439 
-0.0353319 0.0038628 -0.999433 
-0.035391 0.00314629 -0.999432 
-0.0351312 0.00249524 -0.999446 
-0.0350414 0.001808 -0.999451 
-0.0350783 0.000704964 -0.999451 
-0.0349494 -0.000549281 -0.999456 
-0.0351392 -0.00243842 -0.999446 
-0.0343634 -0.00500765 -0.999471 
-0.033523 -0.00846376 -0.999487 
-0.0340602 -0.0132219 -0.99941 
-0.0334041 -0.0187237 -0.99935 
-0.0334626 -0.0254713 -0.999204 
-0.0333291 -0.0311669 -0.999053 
-0.032771 -0.0383052 -0.998824 
-0.0347324 -0.0445175 -0.998482 
-0.0345577 -0.0401106 -0.998697 
-0.0321951 -0.0426602 -0.99861 
0.0157988 -0.0477903 0.998825 
0.0240365 -0.0407171 0.999006 
0.0228891 -0.0376054 0.999188 
0.0249885 -0.0374989 0.99914 
0.0251388 -0.0325007 0.999311 
0.0264293 -0.0266538 0.999447 
0.0262249 -0.0207184 0.999593 
0.026544 -0.0153771 0.999703 
0.0275231 -0.0105107 0.999691 
0.0275515 -0.00650422 0.999768 
0.0277848 -0.0035751 0.999752 
0.0281627 -0.00140761 0.999745 
0.0284062 0.00020856 0.999737 
0.0284833 0.00138456 0.999732 
0.0283556 0.00224055 0.999732 
0.0284141 0.0029267 0.99973 
0.0287463 0.00357058 0.999738 
0.0286266 0.00421046 0.999719 
0.0286806 0.00504941 0.999714 
0.0285879 0.00606856 0.999713 
0.0283535 0.00734989 0.999711 
0.0280984 0.00907753 0.999704 
0.0277983 0.0114259 0.999687 
0.0282366 0.0149575 0.999627 
0.0269136 0.0194614 0.999585 
0.026723 0.0259255 0.999442 
0.0265128 0.0353992 0.999157 
0.0249162 0.048481 0.998651 
0.0235174 0.066424 0.997652 
0.0219472 0.0912994 0.995701 
0.0188669 0.121353 0.992601 
0.0167407 0.164518 0.986383 
0.0142439 0.223239 0.974809 
0.0109921 0.300323 0.953899 
0.00716422 0.400551 0.916395 
0.00297989 0.531774 0.847024 
-0.000392765 0.678806 0.734423 
-0.00212818 0.83555 0.549413 
-0.00229265 0.969102 0.246311 
-0.00137444 0.999343 -0.0327988 
0.000340512 0.948694 -0.315978 
0.000188374 0.820155 -0.572153 
-0.00138102 0.67321 -0.739556 
-0.00384707 0.53914 -0.842351 
-0.00758193 0.400108 -0.916614 
-0.0113757 0.296235 -0.955202 
-0.0150307 0.21683 -0.976245 
-0.019073 0.152667 -0.98824 
-0.0208615 0.110475 -0.993802 
-0.0231334 0.0793396 -0.996698 
-0.0237568 0.0581226 -0.998188 
-0.025229 0.0428121 -0.998903 
-0.0265177 0.031333 -0.999295 
-0.0267626 0.023502 -0.999504 
-0.0271373 0.0178373 -0.999611 
-0.0278868 0.0135761 -0.999658 
-0.0281396 0.0105988 -0.999687 
-0.0284362 0.00843829 -0.999699 
-0.028312 0.00689068 -0.999714 
-0.0285606 0.00572893 -0.999713 
-0.0284044 0.00484326 -0.999722 
-0.0290027 0.0041269 -0.999707 
-0.028477 0.00348105 -0.999725 
-0.0288897 0.00280516 -0.999715 
-0.0287652 0.00209319 -0.99972 
-0.0286678 0.00118583 -0.999725 
-0.028401 5.53906e-06 -0.999735 
-0.0282775 -0.00148468 -0.999716 
-0.0275322 -0.00349533 -0.999779 
-0.0284881 -0.00635582 -0.999694 
-0.0273814 -0.0101874 -0.999719 
-0.0261785 -0.0146486 -0.999722 
-0.0273658 -0.020343 -0.999544 
-0.0259964 -0.0257696 -0.999506 
-0.0267819 -0.0326687 -0.999262 
-0.024318 -0.0372663 -0.999165 
-0.0228536 -0.0375398 -0.999192 
-0.0244391 -0.0407912 -0.998994 
-0.0155751 -0.0476444 -0.998837 
0.0162378 -0.0478927 0.998805 
0.0187085 -0.0359342 0.99933 
0.0218554 -0.0356557 0.999303 
0.0236548 -0.0363412 0.999187 
0.024722 -0.0309882 0.999389 
0.0255102 -0.0250994 0.999487 
0.026154 -0.01965 0.999613 
0.0268522 -0.0151874 0.999648 
0.0270655 -0.0108662 0.999744 
0.0280867 -0.0072793 0.999701 
0.0287029 -0.00437025 0.999722 
0.0292372 -0.00209083 0.999711 
0.0296988 -0.000358834 0.999699 
0.0300212 0.000905557 0.999687 
0.0305019 0.00183067 0.999671 
0.0305202 0.00256495 0.999687 
0.0302828 0.00326121 0.99965 
0.0301908 0.00400191 0.999673 
0.0300323 0.00484475 0.999675 
0.0299042 0.00583917 0.999674 
0.0298203 0.00713033 0.999668 
0.029593 0.00887217 0.999661 
0.0293521 0.011214 0.999666 
0.0286172 0.0144076 0.999602 
0.028426 0.0188514 0.999575 
0.0277358 0.0250459 0.999437 
0.026493 0.0336017 0.999199 
0.0250821 0.0455338 0.998807 
0.023487 0.0637552 0.99783 
0.0215894 0.0872482 0.996096 
0.0190227 0.121348 0.992583 
0.0159972 0.167387 0.985917 
0.0128043 0.225393 0.974316 
0.0092123 0.301731 0.953533 
0.00535814 0.413312 0.910732 
0.00221737 0.547408 0.837007 
5.32835e-05 0.71536 0.69885 
-0.00126765 0.855599 0.517621 
-0.00201803 0.95664 0.291 
-0.00292421 0.999717 -0.0178046 
-0.00248143 0.951626 -0.306998 
-0.00245848 0.83535 -0.549722 
-0.00316486 0.688483 -0.72535 
-0.00427856 0.537991 -0.843087 
-0.00640416 0.418643 -0.908289 
-0.0097923 0.306397 -0.952015 
-0.0132549 0.226532 -0.974069 
-0.0164031 0.1639 -0.986467 
-0.0190842 0.11762 -0.993048 
-0.0217963 0.0853126 -0.996257 
-0.0238305 0.0628791 -0.997879 
-0.0255002 0.0461014 -0.99875 
-0.0266488 0.0341864 -0.999176 
-0.027634 0.0254901 -0.99943 
-0.028335 0.0191546 -0.999573 
-0.028761 0.0146481 -0.999616 
-0.0291841 0.0113833 -0.999647 
-0.0296077 0.00896004 -0.999638 
-0.0299603 0.00715849 -0.999685 
-0.0303881 0.00590607 -0.999636 
-0.0306083 0.00489088 -0.999678 
-0.0305949 0.00411877 -0.999638 
-0.0308796 0.00338587 -0.999674 
-0.0307318 0.00270621 -0.999639 
-0.0305962 0.00193265 -0.999666 
-0.0303939 0.000977012 -0.999675 
-0.0301319 -0.000269781 -0.999683 
-0.0296503 -0.00186788 -0.999742 
-0.0292369 -0.00409544 -0.999683 
-0.027897 -0.00690546 -0.999731 
-0.0275108 -0.0106483 -0.999709 
-0.0270036 -0.0149815 -0.99967 
-0.0258076 -0.0195052 -0.999626 
-0.0257044 -0.0242969 -0.999524 
-0.024479 -0.0308782 -0.999351 
-0.0234236 -0.0359994 -0.999229 
-0.0216401 -0.0353156 -0.999321 
-0.0184084 -0.0361925 -0.999327 
-0.0158374 -0.0476322 -0.998826 
0.0124279 -0.0466721 0.99892 
0.0171232 -0.0352261 0.99938 
0.0212999 -0.035257 0.999305 
0.023648 -0.0359362 0.999224 
0.0248537 -0.0300844 0.999389 
0.0258342 -0.0235791 0.999537 
0.0265069 -0.0188565 0.999641 
0.0275818 -0.0147293 0.999655 
0.0284596 -0.0108566 0.999656 
0.0289474 -0.00734974 0.999696 
0.0295188 -0.00455323 0.999694 
0.0301201 -0.00233614 0.999683 
0.030564 -0.000630532 0.99967 
0.0309402 0.000670453 0.999657 
0.0310006 0.00164138 0.999652 
0.0313463 0.00246509 0.999619 
0.031301 0.0032082 0.999661 
0.0313099 0.00400069 0.999637 
0.0312022 0.00486658 0.999638 
0.030989 0.00591384 0.999639 
0.0306767 0.00731662 0.999639 
0.0303112 0.00918082 0.999634 
0.0299064 0.0117167 0.999597 
0.0296303 0.0149503 0.999605 
0.029001 0.0198176 0.999495 
0.0281817 0.0260696 0.999396 
0.027218 0.0345288 0.99919 
0.0258726 0.0470802 0.998671 
0.0239018 0.0641359 0.997797 
0.020961 0.0906948 0.995832 
0.0179576 0.125748 0.992034 
0.0149007 0.172033 0.985144 
0.0115796 0.232477 0.972727 
0.00829043 0.315743 0.948977 
0.00461549 0.426817 0.90449 
0.00198187 0.577997 0.816177 
0.000124056 0.717592 0.696553 
-0.00169325 0.858849 0.512175 
-0.00256512 0.971532 0.236585 
-0.00193659 0.999423 -0.0307277 
-0.00256554 0.968195 -0.249854 
-0.00330367 0.862572 -0.505897 
-0.00363373 0.717471 -0.696674 
-0.00467011 0.554761 -0.832151 
-0.00667518 0.418295 -0.908459 
-0.00935905 0.319394 -0.947746 
-0.0126762 0.232838 -0.972598 
-0.0163364 0.170326 -0.985408 
-0.0190287 0.124249 -0.992222 
-0.0215729 0.0905254 -0.995807 
-0.0236355 0.0666475 -0.997618 
-0.0253032 0.0485779 -0.99864 
-0.0267941 0.0353342 -0.999176 
-0.0279058 0.0264059 -0.999397 
-0.028797 0.0199701 -0.999499 
-0.0294749 0.0151516 -0.999585 
-0.0299635 0.0117227 -0.999617 
-0.0303748 0.00916931 -0.999654 
-0.0307656 0.0073808 -0.999613 
-0.0308507 0.00595835 -0.999664 
-0.0311714 0.00490351 -0.999616 
-0.0313284 0.0040069 -0.999658 
-0.0314497 0.00321287 -0.999614 
-0.0314021 0.00244301 -0.99966 
-0.0312964 0.00162704 -0.999644 
-0.0311496 0.000611735 -0.99965 
-0.0308189 -0.000694788 -0.999661 
-0.0304081 -0.00240133 -0.999649 
-0.0296864 -0.00458474 -0.999711 
-0.0293956 -0.00738924 -0.999681 
-0.0285315 -0.0111072 -0.999674 
-0.0273378 -0.0150443 -0.999658 
-0.0269206 -0.019122 -0.999601 
-0.025839 -0.0240385 -0.999526 
-0.0253297 -0.0307169 -0.999357 
-0.0237211 -0.0361534 -0.999214 
-0.0207909 -0.0350143 -0.999325 
-0.0169097 -0.035633 -0.999369 
-0.012427 -0.0463507 -0.998938 
0.00995185 -0.0466849 0.998958 
0.0144012 -0.035577 0.999438 
0.0176335 -0.0356181 0.999339 
0.0196852 -0.0360544 0.999331 
0.0205617 -0.0305549 0.999448 
0.0217044 -0.0238869 0.999653 
0.0226822 -0.0194492 0.999676 
0.0234655 -0.0152203 0.999754 
0.024238 -0.0110747 0.999812 
0.0246842 -0.00757233 0.999809 
0.0251987 -0.00469929 0.999812 
0.0260368 -0.00243152 0.999796 
0.0263361 -0.000700575 0.999791 
0.0266476 0.000611089 0.999781 
0.0265734 0.00166175 0.999782 
0.0270002 0.00253572 0.999768 
0.0274343 0.0033306 0.999754 
0.0271731 0.00418774 0.999758 
0.0270623 0.00514926 0.999757 
0.0267999 0.00636054 0.999757 
0.0263374 0.00794319 0.999757 
0.025858 0.0100134 0.99975 
0.0254615 0.0129339 0.999725 
0.0254586 0.016443 0.999673 
0.0242373 0.0217638 0.999602 
0.023561 0.0286417 0.999446 
0.0229954 0.0379391 0.999152 
0.0212975 0.0510446 0.998612 
0.0195485 0.0708861 0.997443 
0.0163393 0.0981218 0.9952 
0.0128606 0.139325 0.990333 
0.0104156 0.187609 0.982364 
0.00790578 0.256904 0.966589 
0.00563285 0.343288 0.939391 
0.0029881 0.471927 0.881763 
0.00067599 0.603337 0.797629 
-0.000926963 0.756969 0.653547 
-0.0012626 0.883167 0.469028 
-0.00198003 0.949133 0.314637 
-0.00155817 0.999892 -0.00535166 
-0.00152256 0.951211 -0.308286 
-0.00196102 0.867341 -0.497681 
-0.00258001 0.730076 -0.683471 
-0.00389998 0.565228 -0.825081 
-0.00545481 0.420784 -0.907327 
-0.00750665 0.308832 -0.951271 
-0.00983183 0.236088 -0.971858 
-0.0133777 0.169488 -0.985606 
-0.0150918 0.124347 -0.992288 
-0.017699 0.0905576 -0.995912 
-0.0194714 0.0652579 -0.997826 
-0.0213902 0.0469049 -0.998812 
-0.0228355 0.0347595 -0.999273 
-0.0236905 0.025968 -0.999517 
-0.0244501 0.019513 -0.999645 
-0.0252306 0.0149279 -0.999704 
-0.0257747 0.0115834 -0.999735 
-0.0263506 0.00912861 -0.999746 
-0.0265034 0.00727055 -0.999758 
-0.0268043 0.00585846 -0.999759 
-0.026711 0.00475207 -0.999768 
-0.0273948 0.00383217 -0.999753 
-0.0271473 0.00297353 -0.999762 
-0.0271258 0.00217744 -0.999765 
-0.0269653 0.00126641 -0.999771 
-0.0266891 0.000198346 -0.99978 
-0.0262517 -0.00121825 -0.999791 
-0.0258466 -0.00308057 -0.999799 
-0.0252266 -0.00539422 -0.999784 
-0.0258578 -0.00798726 -0.999775 
-0.0242869 -0.0114501 -0.999783 
-0.0229741 -0.0156954 -0.999758 
-0.0233101 -0.0196304 -0.999682 
-0.0216149 -0.0242747 -0.99962 
-0.0219547 -0.0306829 -0.999438 
-0.0200267 -0.0365064 -0.999283 
-0.0170776 -0.0353763 -0.999381 
-0.0142776 -0.0361036 -0.999392 
-0.0101982 -0.0469021 -0.998937 
0.00845419 -0.0463952 0.998985 
0.0106323 -0.0379775 0.99934 
0.0130321 -0.0350712 0.999454 
0.0148933 -0.0367926 0.999361 
0.0158043 -0.032675 0.999491 
0.0170805 -0.0260363 0.999663 
0.018147 -0.0213969 0.999752 
0.0190015 -0.0174025 0.999812 
0.019812 -0.0132074 0.999859 
0.0204558 -0.00945812 0.999886 
0.0209928 -0.00620623 0.999899 
0.0217087 -0.00357296 0.999895 
0.0221801 -0.00161974 0.999889 
0.0224808 -8.31704e-05 0.999882 
0.0226801 0.00107459 0.999877 
0.0228196 0.00208223 0.999872 
0.0230467 0.00294642 0.999864 
0.0231415 0.00378602 0.99986 
0.0228977 0.00475466 0.999861 
0.0227614 0.00586923 0.999858 
0.0224326 0.00728942 0.999855 
0.021993 0.00913567 0.999848 
0.0217352 0.0116239 0.999827 
0.0211343 0.0149637 0.999794 
0.0209096 0.0190239 0.999731 
0.0198603 0.0252805 0.999615 
0.0191867 0.0334711 0.99939 
0.0180162 0.0440127 0.99901 
0.0165425 0.0607424 0.998164 
0.0141113 0.0828968 0.996617 
0.0114864 0.117661 0.993157 
0.0084495 0.166814 0.986137 
0.00674795 0.228303 0.973754 
0.00462145 0.316079 0.948916 
0.0032843 0.414188 0.91036 
0.00154122 0.56427 0.82571 
0.00116876 0.662729 0.749007 
0.000903788 0.848365 0.529363 
-0.000768313 0.9796 0.200503 
-0.000774835 0.985106 -0.171812 
-0.00285969 0.991979 -0.125484 
-0.00386019 0.905375 -0.424494 
-0.0032239 0.803137 -0.595896 
-0.00327847 0.606795 -0.794992 
-0.0038391 0.471197 -0.88221 
-0.00536863 0.33587 -0.942084 
-0.00689985 0.243085 -0.970168 
-0.00958932 0.183555 -0.983135 
-0.0109492 0.137178 -0.990631 
-0.0132079 0.0984803 -0.995215 
-0.0152091 0.0718221 -0.997456 
-0.0171682 0.0510387 -0.998696 
-0.0185119 0.0373012 -0.999273 
-0.0195614 0.0280176 -0.999551 
-0.0203236 0.0211016 -0.999703 
-0.0209945 0.0160364 -0.999783 
-0.021517 0.0124352 -0.999823 
-0.0220285 0.00978297 -0.999842 
-0.0223911 0.00783048 -0.999852 
-0.0226661 0.00626441 -0.999857 
-0.0227529 0.00506223 -0.999863 
-0.0231771 0.00399141 -0.999858 
-0.0232069 0.00310523 -0.999861 
-0.0229177 0.00218009 -0.99987 
-0.0229938 0.00125634 -0.99987 
-0.0226279 0.000122169 -0.999879 
-0.0222432 -0.00128153 -0.999888 
-0.0218234 -0.00315596 -0.999893 
-0.0210132 -0.00554208 -0.999925 
-0.0212891 -0.00848002 -0.999879 
-0.0201194 -0.0123538 -0.999864 
-0.0187877 -0.0165985 -0.99983 
-0.0188676 -0.0204161 -0.99976 
-0.0172649 -0.025031 -0.999685 
-0.0173046 -0.031093 -0.999516 
-0.0154662 -0.0367803 -0.999352 
-0.0130763 -0.0358957 -0.999422 
-0.0113007 -0.0360201 -0.999433 
-0.00798617 -0.0471429 -0.998944 
0.00620082 -0.0473175 0.998948 
0.00861301 -0.0360171 0.999485 
0.0109632 -0.0361958 0.999436 
0.0121247 -0.0368068 0.999397 
0.0134052 -0.0309668 0.999577 
0.014458 -0.0250618 0.999727 
0.0154673 -0.0208251 0.999807 
0.0163314 -0.0167736 0.999868 
0.017003 -0.0126842 0.999915 
0.017738 -0.00887267 0.999941 
0.0183363 -0.00559976 0.999953 
0.0187754 -0.00315675 0.999954 
0.0193009 -0.00123758 0.999947 
0.0194756 0.000199717 0.999944 
0.0198282 0.00136994 0.999936 
0.0197691 0.00236436 0.999935 
0.0198392 0.00327346 0.999931 
0.0199367 0.0042084 0.999926 
0.0196389 0.00529125 0.999926 
0.0194789 0.00656625 0.999921 
0.0191233 0.00822252 0.999914 
0.0188668 0.0104525 0.999896 
0.0184506 0.0133517 0.999869 
0.0177844 0.0172748 0.999821 
0.0175657 0.0222228 0.99973 
0.0166581 0.0300666 0.999543 
0.0155179 0.0395943 0.999235 
0.0145253 0.0538671 0.99859 
0.0123962 0.0736972 0.997362 
0.0102908 0.105567 0.99453 
0.00773194 0.14973 0.988885 
0.00552768 0.226591 0.974174 
0.00434175 0.311836 0.950323 
0.00284338 0.461144 0.887536 
0.00276085 0.607784 0.794286 
0.00300793 0.769002 0.639329 
0.00433389 0.838679 0.544567 
0.00305269 0.931952 0.362593 
0.000798673 0.968225 0.249735 
0.00170383 0.998503 0.0524973 
0.00343527 0.999263 0.031064 
-0.000781605 0.952847 -0.303377 
-0.00323504 0.809981 -0.586444 
-0.00297673 0.655421 -0.755259 
-0.00272773 0.50985 -0.860432 
-0.00402759 0.373413 -0.927848 
-0.00524598 0.268635 -0.963425 
-0.00738916 0.183606 -0.983186 
-0.00907951 0.130069 -0.991639 
-0.0110376 0.0943857 -0.995639 
-0.0132295 0.0666721 -0.997841 
-0.0146679 0.0483174 -0.99887 
-0.0158108 0.0357808 -0.999372 
-0.0168501 0.0268275 -0.99963 
-0.0175454 0.0203165 -0.999769 
-0.0180253 0.0156569 -0.999844 
-0.0184683 0.0121828 -0.999885 
-0.0188894 0.00963972 -0.999906 
-0.0193737 0.00765684 -0.999914 
-0.0194933 0.0061852 -0.999923 
-0.019878 0.00486725 -0.999923 
-0.019984 0.00386113 -0.999927 
-0.0201234 0.00291024 -0.999927 
-0.0197104 0.00194939 -0.999938 
-0.0198067 0.00092312 -0.999937 
-0.0193411 -0.000311732 -0.999947 
-0.0190875 -0.00189105 -0.999951 
-0.0186551 -0.00389035 -0.999932 
-0.0177956 -0.00639439 -0.999958 
-0.0181927 -0.00915586 -0.999932 
-0.0170948 -0.0130186 -0.999911 
-0.0160011 -0.0175299 -0.999861 
-0.0157482 -0.0215055 -0.999789 
-0.0142729 -0.0261753 -0.999701 
-0.0139565 -0.03211 -0.999535 
-0.0121787 -0.037255 -0.999379 
-0.0101606 -0.0362126 -0.999443 
-0.00879528 -0.0363303 -0.999445 
-0.00641075 -0.0469816 -0.998965 
0.00441355 -0.0469833 0.998974 
0.00635837 -0.0367285 0.999447 
0.00840161 -0.0365197 0.999426 
0.00942139 -0.0378023 0.99941 
0.0106979 -0.0328477 0.999525 
0.0115417 -0.0267488 0.99972 
0.0124642 -0.0224474 0.999812 
0.0133141 -0.0184249 0.999882 
0.0138263 -0.0141667 0.999943 
0.0145021 -0.0101477 0.99998 
0.0152045 -0.00673458 0.999997 
0.0153853 -0.00397446 1.00001 
0.015874 -0.00183749 1.00001 
0.0160766 -0.000256184 1 
0.0164717 0.00101698 0.999996 
0.0164764 0.00207493 0.999994 
0.0163086 0.00308725 0.999994 
0.0164438 0.00406681 0.999988 
0.0163272 0.0051182 0.999985 
0.0160316 0.00642663 0.999982 
0.0158371 0.00798176 0.999972 
0.0157397 0.0100666 0.999953 
0.0152933 0.0128552 0.999927 
0.0146573 0.0165411 0.999882 
0.0141949 0.0215973 0.999815 
0.0141434 0.0282218 0.999612 
0.0125636 0.037802 0.999366 
0.0121521 0.0510175 0.998745 
0.0102425 0.0689213 0.997753 
0.00899479 0.0965002 0.995434 
0.00675687 0.135542 0.990934 
0.00506084 0.201633 0.979647 
0.00314296 0.301231 0.953783 
0.00308433 0.412024 0.911322 
0.00391327 0.689522 0.724362 
0.00857014 0.880969 0.472856 
0.00587334 0.964728 0.262841 
0.0146223 0.979879 0.199394 
0.0140652 0.984732 0.172632 
0.0093854 0.997855 0.0669171 
0.00479097 0.999871 -0.0055712 
0.000704767 0.997297 -0.0734484 
-0.00329754 0.959843 -0.280105 
-0.00421764 0.670329 -0.742144 
-0.00396807 0.520988 -0.853696 
-0.00283676 0.456157 -0.890091 
-0.00346563 0.32391 -0.946326 
-0.00531863 0.209538 -0.977986 
-0.00672046 0.149153 -0.988978 
-0.00814576 0.103401 -0.99478 
-0.0102928 0.0738172 -0.997355 
-0.0116258 0.0533387 -0.998661 
-0.0125599 0.0390215 -0.999302 
-0.0135259 0.0291308 -0.999618 
-0.0142575 0.0221303 -0.999783 
-0.0146649 0.0170338 -0.999874 
-0.0150395 0.0132434 -0.999926 
-0.0152811 0.0104188 -0.999977 
-0.0159965 0.00833718 -0.999946 
-0.015936 0.00670257 -1 
-0.0166806 0.00534508 -0.999958 
-0.016337 0.0041705 -1.00001 
-0.0167765 0.00318151 -0.999967 
-0.0164071 0.00219631 -0.999996 
-0.0163343 0.00105665 -0.999999 
-0.016012 -0.000170431 -1.00001 
-0.0157109 -0.00180481 -1.00001 
-0.0150174 -0.00393112 -1.00004 
-0.0145809 -0.00675722 -1.00001 
-0.0148165 -0.0101693 -0.999977 
-0.0140092 -0.014439 -0.999938 
-0.0128881 -0.0188715 -0.999879 
-0.0130778 -0.0223589 -0.999807 
-0.0115721 -0.0266745 -0.999721 
-0.0113671 -0.0323419 -0.999558 
-0.00975391 -0.037961 -0.999377 
-0.00796774 -0.0368729 -0.999437 
-0.00670732 -0.0369432 -0.999435 
-0.00481095 -0.0473614 -0.998951 
0.00340441 -0.0474223 0.998953 
0.00461887 -0.0371673 0.999416 
0.00611342 -0.0368731 0.999473 
0.00714831 -0.0387967 0.999342 