# vtk DataFile Version 3.0 
Exported using Morpho https://github.com/Morpho-lang/morpho 
ASCII 
DATASET UNSTRUCTURED_GRID 

POINTS 1978 float 
-12 -4 -1.09368e-13 
-11.6054 -4 4.32017e-12 
-11.3087 -4 4.7081e-12 
-10.9597 -4 4.49556e-12 
-10.6468 -4 3.69141e-12 
-10.2974 -4 3.3115e-12 
-9.97818 -4 2.37951e-12 
-9.65515 -4 1.80738e-12 
-9.31807 -4 1.22399e-12 
-8.99484 -4 6.72469e-13 
-8.68405 -4 3.31436e-13 
-8.36983 -4 9.73718e-14 
-8.06111 -4 -9.62639e-14 
-7.76569 -4 -2.04858e-13 
-7.48443 -4 -2.9978e-13 
-7.18782 -4 -4.13377e-13 
-6.89027 -4 -4.88952e-13 
-6.59289 -4 -5.81793e-13 
-6.29315 -4 -6.20305e-13 
-5.98511 -4 -7.92086e-13 
-5.67637 -4 -9.2692e-13 
-5.37178 -4 -1.10586e-12 
-5.0686 -4 -1.31742e-12 
-4.7764 -4 -1.92554e-12 
-4.44587 -4 -2.28266e-12 
-4.1583 -4 -2.78965e-12 
-3.86481 -4 -4.0038e-12 
-3.55089 -4 -5.01581e-12 
-3.25568 -4 -5.76853e-12 
-2.97006 -4 -7.01288e-12 
-2.67146 -4 -6.86166e-12 
-2.41709 -4 -7.29207e-12 
-2.13938 -4 -7.85271e-12 
-1.86352 -4 -7.92808e-12 
-1.56358 -4 -7.52731e-12 
-1.2696 -4 -7.92011e-12 
-0.966698 -4 -1.02335e-11 
-0.66947 -4 -2.02757e-11 
-0.373287 -4 -4.26098e-11 
0.0512781 -4 5.2725e-11 
0.376707 -4 2.27735e-11 
0.668328 -4 1.56217e-11 
0.923372 -4 6.73303e-13 
1.23447 -4 8.46181e-12 
1.5072 -4 5.93656e-12 
1.78326 -4 5.16402e-12 
2.06945 -4 9.34969e-12 
2.35805 -4 1.12889e-11 
2.68543 -4 9.02473e-12 
2.98108 -4 7.97934e-12 
3.29498 -4 5.70164e-12 
3.58031 -4 4.3776e-12 
3.87497 -4 3.76707e-12 
4.18913 -4 2.85367e-12 
4.48784 -4 2.0851e-12 
4.78285 -4 1.72329e-12 
5.09434 -4 1.40011e-12 
5.4023 -4 1.14001e-12 
5.71273 -4 9.00505e-13 
6.00767 -4 7.47271e-13 
6.30694 -4 6.04278e-13 
6.58999 -4 5.59008e-13 
6.89532 -4 4.67377e-13 
7.17526 -4 3.8453e-13 
7.47435 -4 3.18108e-13 
7.76863 -4 2.24624e-13 
8.06607 -4 9.04224e-14 
8.35863 -4 -7.03088e-14 
8.65609 -4 -2.54558e-13 
8.93659 -4 -6.79281e-13 
9.28392 -4 -1.186e-12 
9.61131 -4 -1.50951e-12 
9.90414 -4 -2.55214e-12 
10.2728 -4 -3.30658e-12 
10.59 -4 -4.41284e-12 
10.9802 -4 -4.86197e-12 
11.2975 -4 -4.2621e-12 
11.5889 -4 -4.51761e-12 
12 -4 -3.99215e-14 
-12 -3.61301 -2.0698e-13 
-11.7079 -3.71218 -2.03094e-12 
-11.3583 -3.61969 -1.88519e-12 
-11.0493 -3.67797 -2.56159e-12 
-10.7105 -3.64171 -1.80581e-12 
-10.3954 -3.68089 -1.96651e-12 
-10.0573 -3.66045 -1.38658e-12 
-9.73351 -3.66933 -1.07916e-12 
-9.39886 -3.68099 -8.64635e-13 
-9.06183 -3.66846 -5.35664e-13 
-8.74296 -3.65913 -3.07852e-13 
-8.42919 -3.66805 -1.58476e-13 
-8.11414 -3.66692 -3.2929e-14 
-7.80306 -3.65836 5.38653e-14 
-7.50389 -3.64701 1.08608e-13 
-7.21018 -3.66622 1.83336e-13 
-6.90059 -3.66503 2.42058e-13 
-6.59406 -3.66409 3.02425e-13 
-6.28485 -3.66398 3.47285e-13 
-5.97209 -3.66863 4.44236e-13 
-5.66257 -3.66435 5.2949e-13 
-5.35574 -3.66345 6.48458e-13 
-5.0609 -3.65427 7.89344e-13 
-4.73455 -3.6963 1.27604e-12 
-4.44001 -3.66059 1.3068e-12 
-4.13994 -3.67322 1.88952e-12 
-3.82413 -3.69634 2.81377e-12 
-3.51489 -3.68678 3.40116e-12 
-3.21775 -3.67505 4.07876e-12 
-2.9243 -3.6835 5.53855e-12 
-2.65881 -3.62231 4.07425e-12 
-2.37523 -3.66611 6.61544e-12 
-2.0948 -3.64211 5.66914e-12 
-1.79317 -3.68388 6.70909e-12 
-1.48751 -3.66933 4.54782e-12 
-1.17721 -3.66333 1.59634e-12 
-0.863929 -3.62455 -1.51567e-12 
-0.553022 -3.57009 -8.57483e-12 
-0.20148 -3.7074 -2.54436e-11 
0.0480917 -3.47024 -9.95242e-12 
0.300811 -3.60842 1.28489e-11 
0.609881 -3.57933 8.76193e-12 
0.899084 -3.54226 -7.85954e-12 
1.16601 -3.67181 -1.70241e-12 
1.49037 -3.6512 -3.68008e-12 
1.78041 -3.66522 -6.52164e-12 
2.07721 -3.66462 -6.73515e-12 
2.41229 -3.72193 -9.27504e-12 
2.72636 -3.68529 -5.83345e-12 
3.0383 -3.69453 -5.20034e-12 
3.33168 -3.66394 -3.43073e-12 
3.62719 -3.67138 -2.90019e-12 
3.93668 -3.68757 -2.43466e-12 
4.23679 -3.66745 -1.63969e-12 
4.53126 -3.65996 -1.22872e-12 
4.83725 -3.67479 -1.05362e-12 
5.14479 -3.66951 -7.95256e-13 
5.4559 -3.67166 -6.38382e-13 
5.75513 -3.65579 -4.70653e-13 
6.05912 -3.66325 -4.06332e-13 
6.34933 -3.64395 -3.00145e-13 
6.65639 -3.67326 -3.01813e-13 
6.94738 -3.64422 -1.96132e-13 
7.24865 -3.66703 -1.83672e-13 
7.54901 -3.66037 -1.1419e-13 
7.85112 -3.66148 -4.54944e-14 
8.14889 -3.65306 4.01837e-14 
8.44336 -3.65523 1.55309e-13 
8.73236 -3.63249 2.61595e-13 
9.05559 -3.70172 6.12152e-13 
9.38861 -3.6784 8.09071e-13 
9.69604 -3.63591 8.59842e-13 
10.0332 -3.70878 1.76274e-12 
10.3648 -3.657 1.70346e-12 
10.7273 -3.71767 2.85163e-12 
11.0602 -3.64811 2.07462e-12 
11.3616 -3.61392 1.85041e-12 
11.7137 -3.72554 2.16524e-12 
12 -3.60633 1.88408e-13 
-12 -3.31379 -7.09225e-14 
-11.6307 -3.36322 7.07223e-14 
-11.2875 -3.27242 -2.13651e-13 
-10.9764 -3.33689 -1.0323e-13 
-10.6589 -3.29049 -1.48534e-13 
-10.34 -3.34821 -3.06547e-13 
-10.0156 -3.32439 -2.21967e-13 
-9.70139 -3.32774 -1.68315e-13 
-9.38786 -3.35951 -1.47464e-13 
-9.08037 -3.32297 -1.32801e-13 
-8.77435 -3.32159 -1.13485e-13 
-8.46445 -3.33 -7.90232e-14 
-8.15763 -3.33298 -5.62985e-14 
-7.8506 -3.3279 -2.63227e-14 
-7.54555 -3.30694 1.38884e-15 
-7.246 -3.31912 3.02672e-14 
-6.94956 -3.33823 4.69242e-14 
-6.63965 -3.33125 5.83256e-14 
-6.33273 -3.33555 7.09615e-14 
-6.02108 -3.33902 1.02585e-13 
-5.71212 -3.33223 1.36237e-13 
-5.40544 -3.32837 1.79373e-13 
-5.10608 -3.31016 2.18985e-13 
-4.80755 -3.3769 3.0704e-13 
-4.50713 -3.33188 3.82184e-13 
-4.20767 -3.34496 5.20674e-13 
-3.90553 -3.38261 6.8537e-13 
-3.59954 -3.38134 8.6101e-13 
-3.29389 -3.35934 9.99097e-13 
-2.99237 -3.34612 1.36959e-12 
-2.68375 -3.29904 1.54729e-12 
-2.37732 -3.32361 1.68774e-12 
-2.07047 -3.30988 2.51967e-12 
-1.76163 -3.35887 2.81494e-12 
-1.4479 -3.33455 1.3173e-12 
-1.1279 -3.31275 9.89184e-13 
-0.790612 -3.24929 3.50479e-12 
-0.516314 -3.06727 5.28685e-12 
-0.285234 -3.30526 -1.58013e-13 
-0.00505544 -3.04882 -1.63644e-11 
0.315857 -3.13319 -2.86649e-13 
0.587525 -3.16537 2.90652e-12 
0.876212 -3.12253 1.60743e-11 
1.17282 -3.26418 -4.31039e-13 
1.4483 -3.3322 -2.7967e-14 
1.7706 -3.3217 -5.06754e-13 
2.06264 -3.33765 -1.9552e-12 
2.37022 -3.42892 -1.74915e-12 
2.67578 -3.37337 -1.83513e-12 
2.98843 -3.38134 -1.49072e-12 
3.2926 -3.33741 -1.04104e-12 
3.59254 -3.34114 -8.96882e-13 
3.89039 -3.36641 -6.99325e-13 
4.18992 -3.34094 -5.10794e-13 
4.4895 -3.32256 -3.84103e-13 
4.78658 -3.34262 -3.01016e-13 
5.08715 -3.3412 -2.23956e-13 
5.39552 -3.34492 -1.78342e-13 
5.70245 -3.31859 -1.35419e-13 
6.00619 -3.32906 -1.12339e-13 
6.30709 -3.29809 -7.9011e-14 
6.60835 -3.34047 -6.63496e-14 
6.90894 -3.30279 -4.09152e-14 
7.21098 -3.33149 -2.53703e-14 
7.51463 -3.32517 -1.13662e-15 
7.81818 -3.32758 1.86785e-14 
8.12439 -3.31242 4.80831e-14 
8.42525 -3.30335 7.42773e-14 
8.74573 -3.30998 1.19667e-13 
9.06804 -3.38379 1.66646e-13 
9.3825 -3.33914 1.72393e-13 
9.69982 -3.29636 1.7225e-13 
10.015 -3.38539 2.83127e-13 
10.3128 -3.30324 2.68427e-13 
10.6346 -3.3991 2.27865e-13 
10.9622 -3.33291 1.69207e-14 
11.2916 -3.25365 2.31963e-13 
11.629 -3.37436 -1.21016e-13 
12 -3.30263 5.4446e-14 
-12 -2.99175 2.23067e-14 
-11.6544 -3.04877 2.35127e-13 
-11.3098 -2.95287 -3.5046e-13 
-10.9617 -2.98352 -9.17978e-14 
-10.6253 -2.95683 -2.97832e-13 
-10.3044 -3.00954 -4.14907e-13 
-9.98645 -2.98183 -3.41022e-13 
-9.66454 -2.99316 -2.43713e-13 
-9.35552 -3.01335 -1.86227e-13 
-9.04539 -2.97918 -1.7617e-13 
-8.73479 -2.98373 -1.12236e-13 
-8.43018 -2.99128 -8.33694e-14 
-8.12383 -2.99645 -4.42827e-14 
-7.82078 -2.99114 -2.04147e-14 
-7.51751 -2.97045 6.29443e-15 
-7.21838 -2.98161 2.84521e-14 
-6.91394 -3.0102 4.90812e-14 
-6.60664 -3.0008 6.71257e-14 
-6.29854 -3.0098 9.49165e-14 
-5.99348 -3.00775 1.25308e-13 
-5.68784 -3.00045 1.58535e-13 
-5.38904 -2.99083 1.98379e-13 
-5.08744 -2.9803 2.59672e-13 
-4.78952 -3.04515 3.51003e-13 
-4.4937 -2.99887 4.55779e-13 
-4.2007 -3.01941 5.7422e-13 
-3.90383 -3.06163 7.80791e-13 
-3.59979 -3.06735 1.04034e-12 
-3.29704 -3.03793 1.42101e-12 
-2.97614 -3.03004 1.46531e-12 
-2.6714 -2.95693 1.72821e-12 
-2.36619 -2.99477 1.69275e-12 
-2.07698 -2.93628 2.58078e-12 
-1.78599 -3.0236 -1.79657e-12 
-1.47237 -2.99 -2.68886e-12 
-1.1306 -2.97736 -4.8247e-12 
-0.832854 -2.86087 1.25e-11 
-0.578758 -2.64789 -1.45136e-11 
-0.23795 -2.81123 1.61342e-11 
0.0690335 -2.45524 1.74202e-11 
0.225512 -2.71247 6.83596e-12 
0.535751 -2.71001 -5.42931e-12 
0.822115 -2.70778 2.76943e-12 
1.14964 -2.87673 -1.29012e-13 
1.46469 -2.9443 -7.62028e-14 
1.74868 -2.99612 -1.21811e-12 
2.06834 -2.98947 -1.0569e-12 
2.36009 -3.1106 -1.76608e-12 
2.66141 -3.0415 -1.74256e-12 
2.96139 -3.06242 -1.52611e-12 
3.26342 -3.017 -1.24521e-12 
3.5746 -3.01625 -8.82758e-13 
3.88079 -3.03793 -7.20324e-13 
4.18063 -3.01315 -5.60055e-13 
4.48165 -2.99656 -4.28043e-13 
4.78495 -3.00871 -3.16249e-13 
5.08244 -3.00723 -2.42499e-13 
5.38077 -3.01771 -1.91326e-13 
5.68413 -2.98866 -1.49491e-13 
5.99045 -2.99481 -1.08609e-13 
6.29677 -2.96745 -8.90184e-14 
6.60248 -3.00422 -6.4604e-14 
6.91658 -2.97997 -4.7334e-14 
7.22749 -2.99829 -2.50162e-14 
7.52724 -2.98938 -1.99053e-15 
7.83261 -2.99538 2.30869e-14 
8.12951 -2.97109 4.65913e-14 
8.44106 -2.97825 9.14489e-14 
8.74438 -2.96958 1.30389e-13 
9.05139 -3.05452 1.40456e-13 
9.36623 -3.00802 1.65234e-13 
9.66284 -2.9473 1.82447e-13 
9.98224 -3.03307 2.74491e-13 
10.315 -2.97498 3.86155e-13 
10.6477 -3.06123 2.47705e-13 
10.9803 -2.99322 1.23813e-13 
11.3327 -2.93195 3.41951e-13 
11.6645 -3.05826 -2.67137e-13 
12 -2.96825 -5.32026e-14 
-12 -2.67134 1.04623e-13 
-11.6551 -2.72282 3.12428e-13 
-11.3212 -2.62351 -1.66346e-13 
-10.9811 -2.65883 1.07549e-13 
-10.6397 -2.63551 -1.11912e-14 
-10.2975 -2.66826 -1.16505e-13 
-9.96418 -2.65432 -6.84282e-14 
-9.6416 -2.65834 -4.19489e-14 
-9.32819 -2.67469 -7.50243e-14 
-9.00607 -2.64811 -5.89543e-14 
-8.69518 -2.64638 -6.13332e-14 
-8.38254 -2.66095 -4.8757e-14 
-8.07459 -2.6614 -3.70455e-14 
-7.76702 -2.65743 -2.24684e-14 
-7.4551 -2.64061 -1.4987e-14 
-7.14605 -2.65978 -3.39071e-16 
-6.84407 -2.68216 1.45829e-14 
-6.53275 -2.67542 2.3575e-14 
-6.22953 -2.67998 3.63103e-14 
-5.92515 -2.67729 4.8915e-14 
[...]
POINT_DATA 1978 
VECTORS vectors float
0.000543435 -0.0019195 0.999998 
0.000504454 -0.0389827 0.99924 
0.000373245 -0.0426514 0.99909 
0.000425197 -0.0376006 0.999293 
0.000399545 -0.0318671 0.999492 
0.000398036 -0.025625 0.999672 
0.000442928 -0.0197527 0.999805 
0.000408529 -0.0141147 0.9999 
0.000410723 -0.00919209 0.999958 
0.000452199 -0.00543015 0.999985 
0.000463353 -0.00278142 0.999996 
0.000462202 -0.000799932 1 
0.000489332 0.000673758 1 
0.000544662 0.00168938 0.999998 
0.000535204 0.00246147 0.999997 
0.000507414 0.00320436 0.999995 
0.000508134 0.00382682 0.999993 
0.000507467 0.00436213 0.99999 
0.000487209 0.00510327 0.999987 
0.000473378 0.00606402 0.999982 
0.000478927 0.00726474 0.999973 
0.00048965 0.00889169 0.99996 
0.000501605 0.0111575 0.999938 
0.000469709 0.0141637 0.9999 
0.000445778 0.0189853 0.99982 
0.000531845 0.0249716 0.999688 
0.00046701 0.0333324 0.999444 
0.000445783 0.0457858 0.998951 
0.000485057 0.0625576 0.998041 
0.000451695 0.0846126 0.996414 
0.000459528 0.116268 0.993218 
0.000468789 0.153237 0.988189 
0.000372657 0.205779 0.978598 
0.000298567 0.274982 0.961449 
0.000205123 0.370861 0.928688 
0.000112801 0.490813 0.871265 
2.59378e-05 0.637733 0.770257 
-0.000100163 0.793292 0.608842 
-3.7288e-06 0.926844 0.375447 
-3.24899e-05 0.998633 -0.0522675 
0.000104128 0.924611 -0.380912 
6.23195e-05 0.792541 -0.609819 
-3.55089e-06 0.660935 -0.750443 
-0.000105804 0.507888 -0.861423 
-0.000222846 0.39246 -0.919769 
-0.000285668 0.297955 -0.95458 
-0.000335089 0.218903 -0.975746 
-0.000370623 0.161248 -0.986914 
-0.000367447 0.114052 -0.993475 
-0.000436479 0.0831256 -0.996539 
-0.000445224 0.0594849 -0.998229 
-0.000511454 0.0440736 -0.999028 
-0.000462085 0.0326476 -0.999467 
-0.0004602 0.0241041 -0.999709 
-0.000505016 0.0181936 -0.999834 
-0.000488307 0.0139816 -0.999902 
-0.000463506 0.0108934 -0.999941 
-0.000471906 0.00873222 -0.999962 
-0.000487799 0.00715407 -0.999974 
-0.000513639 0.0059991 -0.999982 
-0.000522057 0.00507517 -0.999987 
-0.000525515 0.00440124 -0.99999 
-0.00051222 0.00376531 -0.999993 
-0.000544529 0.00312005 -0.999995 
-0.000502947 0.00246343 -0.999997 
-0.000513635 0.00170432 -0.999998 
-0.000509224 0.000637119 -1 
-0.000515895 -0.000683479 -1 
-0.000533432 -0.00252449 -0.999997 
-0.000469136 -0.00489682 -0.999988 
-0.000373026 -0.00858911 -0.999963 
-0.000475785 -0.013278 -0.999912 
-0.000423826 -0.0183844 -0.999831 
-0.000369906 -0.0250525 -0.999686 
-0.000369651 -0.0306715 -0.999529 
-0.000346298 -0.037774 -0.999286 
-0.000454746 -0.0424574 -0.999098 
-0.000472902 -0.0392567 -0.999229 
-0.000527627 -0.00186035 -0.999998 
0.00134423 0.000903891 0.999999 
0.0175277 -0.0333506 0.99929 
0.0205209 -0.0371508 0.999099 
0.0210316 -0.0365179 0.999112 
0.0222765 -0.0317785 0.999247 
0.0223782 -0.0263313 0.999403 
0.0230045 -0.0204634 0.999526 
0.0231061 -0.015245 0.999617 
0.0235535 -0.0105293 0.999667 
0.0239893 -0.00654246 0.999691 
0.0245849 -0.00365652 0.999691 
0.0247601 -0.00149042 0.999692 
0.0250429 0.000121869 0.999686 
0.0253706 0.00130147 0.999677 
0.0256739 0.00216463 0.999668 
0.0252907 0.00287564 0.999676 
0.025446 0.00352971 0.99967 
0.0254318 0.00417703 0.999668 
0.0252898 0.00501194 0.999668 
0.0252108 0.00602872 0.999664 
0.0251544 0.00732015 0.999657 
0.0249556 0.00906675 0.999647 
0.025021 0.0114175 0.999622 
0.0240464 0.0149662 0.999599 
0.0243114 0.0195262 0.999514 
0.0236812 0.0260073 0.999381 
0.0227313 0.0355203 0.99911 
0.0218426 0.0486764 0.998576 
0.0207449 0.0668091 0.99755 
0.0189583 0.0915201 0.995623 
0.0173616 0.121775 0.992406 
0.014836 0.165127 0.986161 
0.0124999 0.221553 0.975068 
0.00938408 0.29994 0.953912 
0.00605869 0.40133 0.915913 
0.0026093 0.531682 0.84694 
-0.000124227 0.681779 0.731558 
-0.00168587 0.837956 0.545735 
-0.00157972 0.971467 0.23717 
-0.00166292 0.999307 -0.0371852 
0.000172203 0.950026 -0.312169 
-0.000114464 0.821847 -0.569708 
-0.00150464 0.672945 -0.739691 
-0.00339111 0.538801 -0.842426 
-0.00665367 0.40144 -0.915861 
-0.00981124 0.297285 -0.954738 
-0.012999 0.217678 -0.975934 
-0.015724 0.153408 -0.988038 
-0.0181395 0.110707 -0.993687 
-0.0197397 0.0795139 -0.996638 
-0.0213169 0.0584614 -0.998062 
-0.0223342 0.0430126 -0.998825 
-0.0229888 0.0314581 -0.999241 
-0.0238199 0.0235524 -0.999439 
-0.0243248 0.0178729 -0.999544 
-0.024473 0.0135991 -0.999608 
-0.0248726 0.0105947 -0.999634 
-0.0250167 0.00841777 -0.999652 
-0.0253965 0.00687055 -0.999654 
-0.0253594 0.00569879 -0.999662 
-0.0258177 0.00481037 -0.999655 
-0.0254136 0.0040801 -0.999669 
-0.025973 0.00342463 -0.999657 
-0.0255763 0.00275419 -0.999669 
-0.0256823 0.00202296 -0.999668 
-0.0255081 0.00111564 -0.999674 
-0.0254634 -6.59887e-05 -0.999676 
-0.0251738 -0.00157229 -0.999682 
-0.0251411 -0.00357732 -0.999678 
-0.0239591 -0.00640977 -0.999692 
-0.0236889 -0.0102031 -0.999667 
-0.0237012 -0.0145287 -0.999614 
-0.0225724 -0.0201 -0.999543 
-0.0227482 -0.025472 -0.999417 
-0.0215334 -0.0320552 -0.999254 
-0.0212996 -0.0362592 -0.999115 
-0.0204767 -0.0370262 -0.999104 
-0.0175132 -0.0333364 -0.999291 
-0.00130372 0.000927703 -0.999999 
0.0013789 -0.000167832 0.999999 
0.0178969 -0.0325131 0.999311 
0.0212018 -0.0350193 0.999162 
0.0231285 -0.0348693 0.999124 
0.0240914 -0.0302309 0.999253 
0.0250022 -0.0248 0.99938 
0.0255785 -0.0194542 0.999484 
0.0262486 -0.0149779 0.999543 
0.0265953 -0.0107455 0.999589 
0.0274698 -0.00729027 0.999596 
0.027992 -0.00441471 0.999598 
0.0284881 -0.0021568 0.999592 
0.0289143 -0.000442063 0.999582 
0.0292456 0.00082774 0.999572 
0.0295979 0.00176506 0.99956 
0.0296462 0.00252741 0.999557 
0.0295203 0.00322185 0.999559 
0.0294499 0.00395398 0.999558 
0.0293071 0.00479079 0.999559 
0.0291793 0.00579737 0.999557 
0.0290477 0.00709828 0.999553 
0.0288089 0.00884974 0.999546 
0.0285214 0.0111969 0.99953 
0.0280349 0.0144093 0.999503 
0.0276169 0.0188654 0.999441 
0.0269796 0.025086 0.999321 
0.025908 0.0336255 0.999099 
0.0246342 0.0459848 0.998638 
0.0229715 0.0635608 0.997714 
0.0209069 0.0874736 0.995947 
0.0183424 0.121851 0.992379 
0.0154933 0.167244 0.985794 
0.0123477 0.226436 0.973948 
0.00897077 0.304823 0.952367 
0.00520883 0.413492 0.910493 
0.00194596 0.548889 0.835893 
-0.000328849 0.714717 0.699414 
-0.00166103 0.857833 0.513926 
-0.00278236 0.955601 0.294651 
-0.00286644 0.999942 -0.0103891 
-0.00219354 0.950195 -0.311648 
-0.00196746 0.836086 -0.548595 
-0.00293443 0.691485 -0.722385 
-0.00415212 0.538355 -0.842708 
-0.00640529 0.417789 -0.908522 
-0.00960165 0.307266 -0.951575 
-0.0129226 0.226819 -0.973851 
-0.0161837 0.163827 -0.986356 
-0.0187608 0.118359 -0.992794 
-0.0213184 0.0858303 -0.996082 
-0.0231203 0.0628562 -0.997755 
-0.0247682 0.0462041 -0.998625 
-0.0259992 0.0342295 -0.999076 
-0.0268749 0.0255071 -0.999313 
-0.0275246 0.0191605 -0.999437 
-0.0280396 0.0146453 -0.9995 
-0.0284707 0.0113609 -0.99953 
-0.0288953 0.00893546 -0.999543 
-0.0291483 0.00713144 -0.99955 
-0.0295344 0.00586706 -0.999547 
-0.0296967 0.00484672 -0.999547 
-0.0298035 0.00407202 -0.999547 
-0.0299216 0.00332991 -0.999547 
-0.0299151 0.00265177 -0.999549 
-0.0297643 0.0018663 -0.999555 
-0.0295624 0.000913505 -0.999563 
-0.0292974 -0.00033229 -0.999571 
-0.0288449 -0.0019297 -0.999582 
-0.0283641 -0.00413705 -0.999589 
-0.0274493 -0.00693583 -0.999599 
-0.0269273 -0.010577 -0.999581 
-0.0263058 -0.0148009 -0.999544 
-0.0254722 -0.0193319 -0.999489 
-0.0250646 -0.0240833 -0.999396 
-0.0242255 -0.0301472 -0.999252 
-0.022977 -0.0345662 -0.999138 
-0.0209512 -0.0347823 -0.999175 
-0.0177184 -0.0326467 -0.99931 
-0.00126512 -0.000119946 -0.999999 
0.00101331 0.000192933 0.999999 
0.0158368 -0.0310388 0.999393 
0.0200322 -0.0345731 0.999201 
0.0224244 -0.0342642 0.999161 
0.0236995 -0.0294872 0.999284 
0.0247375 -0.023511 0.999417 
0.0254302 -0.0187289 0.999501 
0.0263818 -0.0145752 0.999546 
0.0271816 -0.0107481 0.999573 
0.0277052 -0.00735948 0.999589 
0.0282835 -0.00457573 0.999589 
0.0288831 -0.0023758 0.99958 
0.0293244 -0.000679496 0.99957 
0.0296662 0.000610077 0.99956 
0.0297792 0.00159045 0.999555 
0.0300194 0.00241149 0.999546 
0.0300869 0.00316941 0.999542 
0.030013 0.00395328 0.999542 
0.0299191 0.00482855 0.999541 
0.0297133 0.00589087 0.999541 
0.0294322 0.00729692 0.99954 
0.0290919 0.00915773 0.999535 
0.0287059 0.0117097 0.999519 
0.0284064 0.0149691 0.999484 
0.0277825 0.0198327 0.999417 
0.0269728 0.0260848 0.999296 
0.026058 0.0346537 0.99906 
0.024587 0.0469711 0.998594 
0.0226925 0.0645305 0.997658 
0.020075 0.0908628 0.995661 
0.0170281 0.126069 0.991875 
0.0141469 0.171822 0.985026 
0.0109722 0.233643 0.972261 
0.00785728 0.313992 0.949393 
0.00441893 0.425871 0.904773 
0.00181122 0.573767 0.819017 
-0.000237587 0.720925 0.693013 
-0.00164984 0.858537 0.512749 
-0.00170779 0.969916 0.243434 
-0.00310791 0.999003 -0.0445249 
-0.00285467 0.968385 -0.249445 
-0.00379653 0.858865 -0.512189 
-0.00378328 0.714844 -0.699273 
-0.00452847 0.553688 -0.832712 
-0.0064572 0.418188 -0.908338 
-0.00901596 0.318489 -0.947884 
-0.0119687 0.233173 -0.972362 
-0.0154836 0.170448 -0.985245 
-0.01801 0.124317 -0.992079 
-0.0205907 0.0905995 -0.995675 
-0.022518 0.0668074 -0.997512 
-0.0241889 0.048579 -0.998526 
-0.0256379 0.0353779 -0.999045 
-0.0267283 0.0264459 -0.999293 
-0.0276083 0.0199781 -0.999419 
-0.0282625 0.0151332 -0.999486 
-0.0287405 0.0116979 -0.999518 
-0.0291291 0.00915021 -0.999534 
-0.0295174 0.00734925 -0.999537 
-0.0296417 0.00591801 -0.999543 
-0.0299176 0.00486216 -0.999541 
-0.0300714 0.00396283 -0.99954 
-0.0302033 0.00317113 -0.999539 
-0.0301218 0.00239119 -0.999543 
-0.0300458 0.00156823 -0.999547 
-0.0299051 0.000552934 -0.999553 
-0.0295412 -0.000743275 -0.999563 
-0.0291078 -0.00244243 -0.999573 
-0.0284878 -0.00464087 -0.999583 
-0.0281574 -0.00736628 -0.999576 
-0.0272821 -0.0109885 -0.999567 
-0.0261759 -0.0148077 -0.999548 
-0.0257693 -0.0189155 -0.999489 
-0.024666 -0.0239021 -0.99941 
-0.0241576 -0.0299708 -0.999259 
-0.0224837 -0.0345528 -0.99915 
-0.0195741 -0.0344538 -0.999215 
-0.0156129 -0.0310325 -0.999396 
-0.000763294 0.00032404 -1 
0.000495971 0.000438614 1 
0.013455 -0.031328 0.999419 
0.0168823 -0.0348585 0.99925 
0.0191043 -0.0345033 0.999222 
0.0200699 -0.0298317 0.999353 
0.0212367 -0.02375 0.999492 
0.0221463 -0.0191213 0.999572 
0.0229481 -0.0149356 0.999625 
0.0238225 -0.0109943 0.999656 
0.0242102 -0.00754776 0.999678 
0.0247743 -0.00472239 0.999682 
0.0255264 -0.00247115 0.999671 
0.0258767 -0.000755672 0.999665 
0.0261718 0.000556529 0.999657 
0.0261529 0.00160607 0.999657 
0.0265458 0.00248514 0.999645 
0.0268566 0.0032845 0.999634 
0.0266667 0.00414351 0.999636 
0.0265515 0.00510888 0.999634 
0.0262951 0.00632231 0.999634 
0.0258658 0.00789889 0.999634 
0.0254208 0.00997513 0.999627 
0.0250427 0.0128998 0.999603 
0.0249654 0.016419 0.999553 
0.0238272 0.0217204 0.99948 
0.0231486 0.0285798 0.999323 
0.0224867 0.0379407 0.999027 
0.0208805 0.0510228 0.998479 
0.0189942 0.0711812 0.997283 
0.0160601 0.0980365 0.995053 
0.0126791 0.139309 0.990168 
0.0103603 0.186527 0.982395 
0.00769814 0.258019 0.966109 
0.00565821 0.342218 0.939604 
0.00303197 0.469076 0.883152 
0.000632799 0.608359 0.793662 
-0.00140302 0.756082 0.654475 
-0.00171818 0.878531 0.477682 
-0.00321773 0.954999 0.296592 
-0.00226344 0.999797 0.0200171 
-0.000852005 0.951537 -0.307532 
-0.00259728 0.875702 -0.482846 
-0.00303574 0.734126 -0.679007 
-0.00410363 0.566974 -0.823726 
-0.00524769 0.42397 -0.905661 
-0.00739081 0.310473 -0.950553 
-0.00965678 0.235041 -0.971937 
-0.013036 0.170031 -0.985352 
-0.0147472 0.12479 -0.992074 
-0.0172512 0.0906685 -0.995732 
-0.0191015 0.0652358 -0.997687 
-0.020968 0.0470236 -0.998674 
-0.0223735 0.034796 -0.999144 
-0.0232677 0.0259698 -0.999392 
-0.0240416 0.0195048 -0.999521 
-0.0247771 0.0149189 -0.999582 
-0.0253019 0.0115671 -0.999613 
-0.0258563 0.00910046 -0.999624 
-0.0260194 0.00723479 -0.999635 
-0.0263203 0.00582558 -0.999637 
-0.0262737 0.00471149 -0.999644 
-0.0268828 0.00379024 -0.999631 
-0.0266671 0.0029299 -0.99964 
-0.0266378 0.00212952 -0.999643 
-0.0265035 0.00121397 -0.999648 
-0.0262292 0.000140948 -0.999656 
-0.025808 -0.00127437 -0.999666 
-0.0254163 -0.00310497 -0.999672 
-0.0247924 -0.00540318 -0.999678 
-0.0252612 -0.00796704 -0.999649 
-0.0238018 -0.0113356 -0.999652 
-0.0225632 -0.0154363 -0.999626 
-0.0227266 -0.0193991 -0.999553 
-0.0211641 -0.0241547 -0.999484 
-0.0212755 -0.0299908 -0.999324 
-0.0193381 -0.0348422 -0.999206 
-0.0163934 -0.0347288 -0.999262 
-0.0132246 -0.0310236 -0.999431 
-0.000727972 0.000188 -1 
0.000441293 0.000375642 1 
0.00973134 -0.0303249 0.999493 
0.01271 -0.0347212 0.999316 
0.0146931 -0.0352609 0.99927 
0.0157375 -0.0317446 0.999372 
0.0169735 -0.0258464 0.999522 
0.0179854 -0.0211654 0.999614 
0.018831 -0.0170749 0.999677 
0.0196055 -0.0130025 0.999723 
0.0202522 -0.00939284 0.999751 
0.0207535 -0.00619697 0.999765 
0.0214454 -0.00360439 0.999764 
0.0219146 -0.00166221 0.999758 
0.0222136 -0.000140623 0.999753 
0.0224222 0.00102767 0.999748 
0.022555 0.00203712 0.999744 
0.0227701 0.00290369 0.999737 
0.0228785 0.00374614 0.999731 
0.0226388 0.00471282 0.999733 
0.0225069 0.00582998 0.99973 
0.0221675 0.00725105 0.999728 
0.0217472 0.00909966 0.999722 
0.0214974 0.0115997 0.999702 
0.0209019 0.0149426 0.99967 
0.0206615 0.0190217 0.999606 
0.0196278 0.0252575 0.999488 
0.0189864 0.0334685 0.999259 
0.0178008 0.0441247 0.998867 
0.016429 0.0606922 0.998021 
0.0139469 0.0831794 0.996437 
0.0114229 0.117855 0.992965 
0.00836135 0.167284 0.985873 
0.00679263 0.226547 0.973976 
0.0044925 0.319381 0.947616 
0.00335064 0.417914 0.90848 
0.0013902 0.56162 0.827394 
0.00105364 0.662782 0.748812 
0.00115022 0.851017 0.525137 
0.00146078 0.97802 0.208506 
-0.00204003 0.987392 -0.15828 
-0.000386106 0.990368 -0.138462 
-0.0038922 0.89436 -0.44733 
-0.00165434 0.80639 -0.591382 
-0.00240611 0.613059 -0.790034 
-0.00349714 0.467133 -0.88418 
-0.00514622 0.337173 -0.941429 
-0.0067874 0.245447 -0.969386 
-0.00957827 0.182598 -0.983141 
-0.0109099 0.136639 -0.990561 
-0.013102 0.0986599 -0.995035 
-0.015093 0.0718993 -0.997298 
-0.0169633 0.0510949 -0.99855 
-0.0183043 0.0373413 -0.999135 
-0.0193195 0.0279963 -0.999421 
-0.0201175 0.0210752 -0.999575 
-0.0207594 0.0160128 -0.999656 
-0.0212693 0.0124089 -0.999697 
-0.0217918 0.00974652 -0.999715 
-0.0221365 0.0077875 -0.999725 
-0.0223979 0.00621623 -0.99973 
-0.02248 0.005016 -0.999735 
-0.0229126 0.00394476 -0.99973 
-0.0229407 0.00306237 -0.999732 
-0.0226476 0.00213863 -0.999741 
-0.0227164 0.00121292 -0.999741 
-0.022322 6.88935e-05 -0.999751 
-0.0219751 -0.00133232 -0.999758 
-0.0215644 -0.00319233 -0.999762 
-0.02075 -0.00554115 -0.999769 
-0.0210533 -0.00843118 -0.999743 
-0.0199181 -0.0121931 -0.999727 
-0.0186289 -0.0162776 -0.999694 
-0.0187116 -0.0201095 -0.999623 
-0.017155 -0.0248625 -0.999544 
-0.0171715 -0.0304312 -0.999389 
-0.015294 -0.0351522 -0.999265 
-0.0128035 -0.035158 -0.9993 
-0.0106676 -0.0314891 -0.999447 
-0.000617874 0.000171021 -1 
0.000524989 0.000161356 1 
0.00811987 -0.0318179 0.999461 
0.0107396 -0.0354045 0.999315 
0.0119221 -0.0352094 0.999309 
0.0132138 -0.0303645 0.999452 
0.0142056 -0.0248876 0.999589 
0.0152178 -0.0205064 0.999674 
0.0160528 -0.0164569 0.999736 
0.0166728 -0.0125079 0.999783 
0.0174016 -0.00882039 0.99981 
0.0179725 -0.00560304 0.999823 
0.018412 -0.00318975 0.999825 
0.0188988 -0.00129212 0.999821 
0.0191003 0.00015207 0.999818 
0.0194325 0.00132626 0.99981 
0.0193912 0.00232389 0.999809 
0.019451 0.00323045 0.999806 
0.0195587 0.00416342 0.9998 
0.0192684 0.00525019 0.999801 
0.0191057 0.00652682 0.999796 
0.0187596 0.00818312 0.999791 
0.0185251 0.0104162 0.999774 
0.0180983 0.0133217 0.999747 
0.0174395 0.0172427 0.999699 
0.0171967 0.0222036 0.999606 
0.0163197 0.0300399 0.999415 
0.0152037 0.0396256 0.999099 
0.0142088 0.0540674 0.998436 
0.0121972 0.0736793 0.997207 
0.0100927 0.105635 0.994354 
0.00756344 0.149962 0.988663 
0.00535138 0.228202 0.973599 
0.00407406 0.310052 0.950711 
0.00230177 0.467323 0.884084 
0.00232078 0.605461 0.795872 
0.00234136 0.768525 0.639816 
0.00509039 0.835916 0.548834 
0.00266214 0.923805 0.382855 
0.00111222 0.976435 0.215807 
0.00208895 0.999119 0.0419167 
0.00363512 0.999683 0.0249267 
-0.00129173 0.95225 -0.305318 
-0.00442914 0.822503 -0.568743 
-0.00318306 0.646266 -0.763106 
-0.00294388 0.501782 -0.864989 
-0.00404086 0.369912 -0.929058 
-0.00514465 0.267034 -0.963673 
-0.0073399 0.182899 -0.983104 
-0.0089085 0.130026 -0.991471 
-0.0108309 0.0941596 -0.995498 
-0.0129738 0.0668008 -0.997682 
-0.0143816 0.048295 -0.99873 
-0.0154839 0.0357726 -0.99924 
-0.0164934 0.0267868 -0.999505 
-0.0172167 0.0202918 -0.999646 
-0.0176798 0.0156203 -0.999722 
-0.0181212 0.0121527 -0.999762 
-0.0185309 0.00961903 -0.999782 
-0.0190242 0.00762083 -0.99979 
-0.0191061 0.00614121 -0.999799 
-0.0195156 0.00482655 -0.999798 
-0.0195757 0.00382207 -0.999801 
-0.0197461 0.00286897 -0.999801 
-0.0193198 0.00191159 -0.999812 
-0.0194292 0.000885909 -0.999811 
-0.0189495 -0.000355561 -0.99982 
-0.0187028 -0.00192945 -0.999823 
-0.0182173 -0.00390072 -0.999826 
-0.0174775 -0.00641689 -0.999827 
-0.017862 -0.00911188 -0.999799 
-0.0167626 -0.0128465 -0.999777 
-0.0156946 -0.0171993 -0.999729 
-0.0155091 -0.0211872 -0.999655 
-0.0140504 -0.0259572 -0.999564 
-0.0138009 -0.0313439 -0.999413 
-0.0119947 -0.035666 -0.999292 
-0.00992627 -0.0355401 -0.999319 
-0.00829597 -0.0316392 -0.999465 
-0.000417594 0.000245901 -1 
0.000300789 0.000214164 1 
0.00595877 -0.0315264 0.999485 
0.0081929 -0.0358548 0.999323 
0.00920648 -0.036168 0.999303 
0.0104809 -0.0320679 0.999431 
0.0112975 -0.0265337 0.999584 
0.0122194 -0.0220889 0.999681 
0.0130332 -0.0180491 0.999752 
0.0135474 -0.0139565 0.999811 
0.014193 -0.010056 0.999849 
0.0148793 -0.00672776 0.999867 
0.0150777 -0.00399045 0.999878 
0.0155321 -0.00188821 0.999878 
0.0157592 -0.000303999 0.999876 
0.0161242 0.000974727 0.99987 
0.0161416 0.00203738 0.999868 
0.0159858 0.00304303 0.999868 
0.016106 0.00402157 0.999862 
0.0160076 0.00507419 0.999859 
0.0157177 0.00638213 0.999856 
0.0155266 0.00794106 0.999848 
0.0154337 0.0100336 0.999831 
0.0149858 0.0128255 0.999805 
0.0143775 0.0165091 0.99976 
0.0139058 0.0215447 0.999671 
0.0138224 0.0281936 0.999507 
0.0123128 0.0377603 0.999211 
0.0118774 0.0509863 0.998629 
0.0100058 0.0689357 0.997571 
0.00878583 0.096188 0.995324 
0.00657862 0.135479 0.990758 
0.00487803 0.20189 0.979396 
0.00312889 0.299413 0.954119 
0.00270155 0.409178 0.91245 
0.00404446 0.68939 0.724379 
0.0124225 0.871384 0.490445 
0.00699949 0.965057 0.261947 
0.013794 0.979688 0.200051 
0.00973204 0.980787 0.194839 
0.0076222 0.998264 0.0583967 
0.00476188 0.999981 -0.00388401 
0.00128951 0.997522 -0.0703453 
-0.00264172 0.962887 -0.269891 
-0.00509868 0.671582 -0.740912 
-0.00362674 0.526161 -0.850377 
-0.0036436 0.459843 -0.887993 
-0.00357732 0.327925 -0.944697 
-0.00522716 0.21014 -0.977657 
-0.00652178 0.149749 -0.988703 
-0.00799746 0.10326 -0.994622 
-0.0100037 0.0738207 -0.997221 
-0.0113762 0.0535512 -0.9985 
-0.0122892 0.0390318 -0.999162 
-0.0132383 0.0291176 -0.999488 
-0.0139584 0.0220745 -0.999659 
-0.0143717 0.0170082 -0.999752 
-0.0147467 0.0132091 -0.999804 
-0.0149909 0.0103721 -0.999834 
-0.0156885 0.00829498 -0.999843 
-0.0156199 0.00664166 -0.999856 
-0.0163533 0.00528794 -0.999852 
-0.0160124 0.00411752 -0.999863 
-0.0164267 0.00313493 -0.99986 
-0.0160693 0.00214853 -0.999869 
-0.0160182 0.00101265 -0.999871 
-0.0156774 -0.000221034 -0.999877 
-0.0153959 -0.00185834 -0.99988 
-0.0147615 -0.00396922 -0.999883 
-0.0142433 -0.00670471 -0.999876 
-0.0145092 -0.0100602 -0.999844 
-0.0137287 -0.0142053 -0.999805 
-0.012624 -0.0184811 -0.99975 
-0.0127945 -0.0220206 -0.999676 
-0.0113416 -0.0264597 -0.999586 
-0.0111366 -0.0316802 -0.999436 
-0.00952812 -0.0363235 -0.999295 
-0.0077534 -0.0361531 -0.999316 
-0.00626146 -0.0316122 -0.999481 
-0.000392464 7.61409e-05 -1 