# vtk DataFile Version 3.0 
Exported using Morpho https://github.com/Morpho-lang/morpho 
ASCII 
DATASET UNSTRUCTURED_GRID 

POINTS 1978 float 
-8.48529 -2.82843 3.82e-12 
-8.25327 -2.82844 7.99509e-11 
-8.02602 -2.82843 9.36465e-11 
-7.79606 -2.82842 1.34979e-10 
-7.49835 -2.82844 5.53649e-11 
-7.25396 -2.82844 4.57249e-11 
-6.9963 -2.82841 1.30686e-11 
-6.77515 -2.82844 5.81983e-11 
-6.5598 -2.82843 -1.05791e-10 
-6.35332 -2.82843 -8.47063e-11 
-6.13315 -2.82843 6.11205e-11 
-5.92781 -2.82843 -2.68164e-11 
-5.71292 -2.82843 -5.90043e-11 
-5.52229 -2.82843 -2.07304e-11 
-5.28724 -2.82843 -7.43057e-11 
-5.08347 -2.82843 -3.37069e-11 
-4.8722 -2.82843 -7.93838e-11 
-4.66184 -2.82843 -6.95894e-11 
-4.4459 -2.82843 -2.13729e-10 
-4.23311 -2.82843 -1.88516e-10 
-4.02214 -2.82843 -1.33108e-10 
-3.82254 -2.82843 1.55098e-11 
-3.61463 -2.82843 3.05533e-10 
-3.40491 -2.82843 2.20344e-10 
-3.18569 -2.82843 4.74056e-10 
-2.96705 -2.82843 7.72505e-10 
-2.73563 -2.82843 4.53272e-10 
-2.49738 -2.82843 9.13391e-10 
-2.25614 -2.82843 2.31597e-09 
-2.01032 -2.82843 3.99339e-09 
-1.76031 -2.82843 5.02367e-09 
-1.57268 -2.82843 8.28775e-09 
-1.35771 -2.82843 4.8954e-08 
-1.18016 -2.82843 7.71848e-08 
-1.05121 -2.82843 3.23757e-07 
-0.877047 -2.82841 9.43977e-07 
-0.722524 -2.82841 2.08505e-06 
-0.611545 -2.82835 1.37679e-05 
-0.415506 -2.82815 1.2006e-05 
0.247562 -2.8283 -0.000216622 
0.412514 -2.82832 -2.37967e-05 
0.612376 -2.82839 -1.60122e-05 
0.753059 -2.82842 -5.70939e-06 
0.896586 -2.82841 -8.39895e-07 
1.04083 -2.82843 -3.95411e-07 
1.18844 -2.82842 -2.61171e-07 
1.38558 -2.82843 -8.90268e-08 
1.57734 -2.82843 -2.12263e-08 
1.81742 -2.82843 -3.7978e-09 
2.07148 -2.82843 -3.89625e-09 
2.30201 -2.82843 -2.2735e-09 
2.53841 -2.82843 7.32419e-10 
2.76978 -2.82843 -4.88434e-10 
2.99818 -2.82843 -6.27727e-10 
3.20477 -2.82844 -5.78233e-10 
3.4114 -2.82842 -5.72824e-10 
3.61218 -2.82843 -3.07417e-10 
3.81424 -2.82843 -4.63129e-11 
4.02547 -2.82843 1.58137e-10 
4.2459 -2.82843 1.60883e-10 
4.44768 -2.82843 1.70853e-10 
4.65904 -2.82843 9.7648e-11 
4.86106 -2.82843 1.48933e-11 
5.07627 -2.82843 9.46052e-11 
5.2815 -2.82843 3.86228e-11 
5.50117 -2.82843 5.01696e-13 
5.70808 -2.82843 7.36932e-11 
5.92631 -2.82843 2.74968e-11 
6.1517 -2.82843 -2.01521e-11 
6.36017 -2.82843 6.58885e-11 
6.59027 -2.82843 3.39595e-11 
6.8075 -2.82843 -5.31717e-11 
7.01029 -2.82843 6.40079e-12 
7.29139 -2.82843 -3.9597e-11 
7.51193 -2.82843 -7.87917e-11 
7.75044 -2.82843 -4.72392e-11 
8.03519 -2.82843 -1.37057e-10 
8.22606 -2.82843 -7.25654e-11 
8.48528 -2.82843 -1.38333e-11 
-8.48529 -2.58305 -2.54707e-11 
-8.25735 -2.59294 2.23025e-20 
-8.02413 -2.58378 -7.13587e-21 
-7.78915 -2.59261 -3.43836e-20 
-7.5444 -2.64923 -6.16403e-20 
-7.25847 -2.62186 2.46502e-20 
-7.00195 -2.60381 -2.86708e-20 
-6.76291 -2.59504 -2.37508e-21 
-6.53924 -2.58403 3.77673e-20 
-6.30861 -2.60082 1.24313e-20 
-6.08626 -2.5834 -2.30063e-20 
-5.86615 -2.59456 -3.70604e-21 
-5.66369 -2.56188 8.17527e-21 
-5.44086 -2.61358 2.12535e-20 
-5.22628 -2.5814 1.76731e-20 
-5.01248 -2.59051 -1.25665e-20 
-4.79721 -2.5906 -4.03757e-21 
-4.57969 -2.59788 1.37177e-20 
-4.36166 -2.59521 9.24741e-20 
-4.14569 -2.5944 1.14197e-19 
-3.93817 -2.58181 6.76684e-20 
-3.73044 -2.59093 -9.30235e-20 
-3.51711 -2.59008 -2.09035e-19 
-3.29845 -2.59597 -2.41993e-19 
-3.07451 -2.58923 -3.11331e-19 
-2.84546 -2.59734 -4.89297e-19 
-2.60582 -2.59988 -6.72153e-19 
-2.36058 -2.602 -6.72459e-19 
-2.11173 -2.61041 1.55233e-19 
-1.85986 -2.62599 1.76011e-18 
-1.63241 -2.57881 -5.60138e-19 
-1.44439 -2.63484 2.80326e-18 
-1.24918 -2.62916 -3.31216e-17 
-1.09449 -2.59692 -1.29305e-16 
-0.956758 -2.67721 4.26706e-16 
-0.871853 -2.52525 -4.10564e-16 
-0.789474 -2.67447 5.86083e-17 
-0.532645 -2.73757 2.94968e-15 
-0.323466 -2.75679 -2.61334e-14 
0.095372 -2.80807 -3.43277e-14 
0.26882 -2.74232 -9.58223e-15 
0.533244 -2.74962 -2.65552e-15 
0.802185 -2.68822 -2.59464e-16 
0.860112 -2.53025 6.99819e-16 
0.953898 -2.65114 3.68094e-16 
1.09228 -2.60337 5.46772e-17 
1.27951 -2.6419 -3.85533e-17 
1.48971 -2.59995 -1.80593e-18 
1.7161 -2.62636 -1.70199e-18 
1.97784 -2.62706 -1.3715e-18 
2.23584 -2.59973 1.96623e-19 
2.47516 -2.60261 4.51014e-19 
2.72416 -2.59627 5.54198e-19 
2.96406 -2.59881 4.63731e-19 
3.19929 -2.57918 2.85096e-19 
3.41409 -2.5765 2.12204e-19 
3.62766 -2.58622 1.21676e-19 
3.84754 -2.59552 1.45526e-20 
4.07473 -2.60472 -9.70286e-20 
4.28613 -2.58373 -9.86761e-20 
4.4996 -2.59428 -3.52554e-20 
4.70835 -2.58257 -6.82327e-21 
4.92357 -2.59728 -1.35844e-20 
5.13628 -2.58534 7.10554e-21 
5.35589 -2.60113 -1.28168e-20 
5.57133 -2.58563 -2.68264e-20 
5.78956 -2.59647 -1.23369e-20 
6.01699 -2.60148 1.02954e-20 
6.23671 -2.57995 -5.95066e-23 
6.45982 -2.60143 -1.32754e-20 
6.68677 -2.58538 6.18532e-21 
6.89803 -2.56625 1.02401e-20 
7.13532 -2.63855 1.3311e-20 
7.3807 -2.58406 3.50278e-20 
7.61032 -2.60222 -1.77906e-20 
7.87421 -2.6383 2.86379e-20 
8.08343 -2.54443 2.83694e-20 
8.30731 -2.61776 -1.75137e-20 
8.48529 -2.52145 3.8184e-11 
-8.48528 -2.34448 -7.02756e-11 
-8.25321 -2.35406 1.84421e-20 
-8.01675 -2.34449 3.17486e-20 
-7.76376 -2.37988 -1.79852e-20 
-7.54844 -2.23331 4.37206e-21 
-7.49724 -2.44733 2.74293e-20 
-7.2172 -2.42255 -8.53723e-21 
-6.97368 -2.35912 -1.32862e-20 
-6.74801 -2.36811 2.62515e-21 
-6.50191 -2.362 -2.01928e-20 
-6.26948 -2.36997 2.14422e-20 
-6.03582 -2.35121 -6.3734e-21 
-5.82859 -2.3371 3.57511e-21 
-5.5808 -2.35463 -1.22704e-21 
-5.37315 -2.36652 1.98097e-21 
-5.14286 -2.35125 -8.76664e-21 
-4.92184 -2.35846 -1.33499e-21 
-4.69729 -2.3641 -1.23913e-20 
-4.47698 -2.36839 -9.78719e-22 
-4.2542 -2.36553 -5.39258e-21 
-4.04122 -2.34948 -9.03871e-21 
-3.82598 -2.3482 -8.54353e-21 
-3.61512 -2.35676 3.93449e-21 
-3.39505 -2.36063 -4.0217e-21 
-3.17511 -2.36011 -3.74233e-20 
-2.94379 -2.35978 -7.35314e-20 
-2.71289 -2.36942 -6.03596e-20 
-2.47306 -2.37329 -1.69566e-19 
-2.22815 -2.38225 -7.09768e-19 
-1.98072 -2.40258 -2.67153e-18 
-1.7571 -2.3887 -8.01207e-18 
-1.52034 -2.36962 -2.43702e-17 
-1.34492 -2.43216 -5.64781e-17 
-1.17337 -2.39812 -8.06533e-17 
-0.991217 -2.43961 -1.44826e-16 
-0.796558 -2.34086 7.38491e-17 
-0.723049 -2.49036 -9.14204e-17 
-0.653698 -2.64055 1.68067e-15 
-0.437586 -2.67008 -4.03382e-15 
-0.213463 -2.89994 -4.04476e-14 
0.385628 -2.71163 -1.61966e-15 
0.486106 -2.6492 -3.3946e-15 
0.674781 -2.6774 -2.23e-16 
0.833342 -2.36294 -1.89626e-16 
0.991578 -2.41849 5.01763e-17 
1.13496 -2.34642 2.60586e-17 
1.26859 -2.4402 5.60283e-17 
1.4564 -2.38077 2.44336e-17 
1.6854 -2.40661 9.24554e-18 
1.92252 -2.42596 2.59578e-18 
2.17829 -2.39546 8.936e-19 
2.43281 -2.36664 3.12365e-19 
2.663 -2.3746 1.20045e-19 
2.90741 -2.36725 1.47323e-19 
3.13633 -2.35771 6.09825e-20 
3.36393 -2.339 -2.01947e-20 
3.58687 -2.34238 2.17219e-20 
3.79612 -2.362 1.04681e-20 
4.01584 -2.37876 1.63973e-20 
4.2297 -2.35071 3.75031e-21 
4.44483 -2.35598 5.65294e-21 
4.65139 -2.34577 8.47989e-21 
4.86666 -2.35919 2.74319e-21 
5.07593 -2.35207 1.41952e-21 
5.29694 -2.36695 8.17823e-21 
5.51017 -2.35428 -1.40685e-22 
5.73176 -2.35905 9.17677e-22 
5.95149 -2.37328 3.94124e-21 
6.17229 -2.35003 1.21204e-21 
6.40337 -2.35939 1.07392e-22 
6.62021 -2.35707 -9.36819e-22 
6.84236 -2.31748 -3.55326e-21 
7.07367 -2.39212 4.80019e-21 
7.29016 -2.38582 -2.32821e-20 
7.55218 -2.35824 1.23203e-20 
7.78541 -2.41948 1.14827e-20 
7.99493 -2.32478 -1.69643e-20 
8.24913 -2.35152 -2.55922e-20 
8.48529 -2.29232 7.1574e-11 
-8.48528 -2.11309 -7.07158e-11 
-8.2496 -2.10777 1.08998e-21 
-8.03628 -2.10711 -6.02673e-21 
-7.79665 -2.14637 6.39088e-21 
-7.51539 -2.02659 1.18072e-20 
-7.29335 -2.23143 -1.65864e-20 
-7.06657 -2.1498 1.84631e-20 
-6.81071 -2.12855 8.55542e-22 
-6.58839 -2.14614 8.63121e-21 
-6.34754 -2.13818 4.66531e-21 
-6.12982 -2.13058 6.94554e-21 
-5.91395 -2.0891 5.324e-21 
-5.6919 -2.13626 1.37389e-20 
-5.47289 -2.1123 1.57177e-20 
-5.26458 -2.13494 6.94161e-21 
-5.03874 -2.12466 1.84769e-20 
-4.82002 -2.13348 1.58516e-20 
-4.604 -2.13454 3.04741e-20 
-4.38946 -2.14051 3.57607e-20 
-4.18049 -2.12445 4.42168e-20 
-3.96797 -2.11601 6.67746e-20 
-3.75819 -2.11341 1.0335e-19 
-3.54602 -2.12813 1.24808e-19 
-3.33025 -2.12596 1.45595e-19 
-3.10595 -2.13203 1.78716e-19 
-2.87687 -2.12733 2.92701e-19 
-2.64443 -2.13975 4.22485e-19 
-2.40176 -2.14783 5.76335e-19 
-2.15148 -2.16564 7.84481e-19 
-1.91877 -2.16489 1.42811e-18 
-1.68694 -2.17795 1.25114e-18 
-1.4866 -2.12463 1.17448e-17 
-1.31015 -2.20112 -8.42552e-18 
-1.12914 -2.18368 3.80822e-17 
-0.974879 -2.2735 9.46356e-17 
-0.753637 -2.19219 3.71866e-17 
-0.599398 -2.4014 -2.74499e-16 
-0.555113 -2.54442 -4.45439e-17 
-0.218069 -2.79414 7.57838e-14 
0.150721 -2.70226 2.74632e-14 
0.368738 -2.58166 -1.80238e-15 
0.596638 -2.5852 5.46759e-15 
0.726878 -2.51686 1.43155e-15 
0.745245 -2.25151 -5.09222e-16 
0.943281 -2.2092 -1.17988e-16 
1.11419 -2.1408 -2.05239e-17 
1.32471 -2.17666 -9.91658e-18 
1.55184 -2.17856 -3.03212e-18 
1.78096 -2.19225 -9.89906e-19 
2.01237 -2.20258 -3.53757e-19 
2.25661 -2.16809 -5.2641e-19 
2.49256 -2.12513 -4.59313e-19 
2.72798 -2.14897 -2.75232e-19 
2.96259 -2.13151 -2.69121e-19 
3.18578 -2.12202 -1.42891e-19 
3.41719 -2.11498 -1.29984e-19 
3.62957 -2.10111 -1.09766e-19 
3.84489 -2.13698 -7.22338e-20 
4.0532 -2.13959 -6.63133e-20 
4.27231 -2.12082 -4.42797e-20 
4.47749 -2.11344 -3.22828e-20 
4.69457 -2.11732 -2.28598e-20 
4.9021 -2.11827 -1.30207e-20 
5.12491 -2.1286 -1.43238e-20 
5.33575 -2.12775 -6.5936e-21 
5.55798 -2.12577 -9.16518e-21 
5.77922 -2.12875 -8.41479e-21 
5.99465 -2.13518 -2.67425e-21 
6.23024 -2.12752 -6.76324e-21 
6.44719 -2.11523 -4.159e-21 
6.66302 -2.11152 -3.43659e-21 
6.92113 -2.11153 -9.76211e-21 
7.1289 -2.14229 -6.00853e-21 
7.36902 -2.17269 -6.75483e-21 
7.56968 -2.08105 -1.87371e-20 
7.7591 -2.17714 1.7668e-20 
7.97187 -2.08073 -9.62812e-21 
8.19841 -2.1339 -1.55712e-21 
8.48528 -2.10287 4.58337e-11 
-8.4853 -1.8029 -8.70461e-11 
-8.31769 -1.87168 3.24146e-20 
-7.89779 -1.89966 -6.02858e-21 
[...]
POINT_DATA 1978 
VECTORS vectors float
-4.76198e-05 -0.001096 1 
-1.36906e-05 -0.00119293 1 
-2.74519e-06 -0.001257 1 
8.01791e-06 -0.00129477 1 
2.44121e-05 -0.00138193 1 
3.0223e-05 -0.00147553 1 
3.9545e-05 -0.00157962 1 
5.03406e-05 -0.00171873 1 
5.99191e-05 -0.00188016 1 
7.66448e-05 -0.00207922 1 
9.62965e-05 -0.00234567 1 
0.000125829 -0.00264157 0.999999 
0.000144249 -0.00299228 0.999998 
0.000188242 -0.00332073 0.999997 
0.000216832 -0.00372478 0.999996 
0.000236591 -0.00405106 0.999995 
0.000258055 -0.00435841 0.999993 
0.000261283 -0.00459379 0.999992 
0.000239275 -0.00472571 0.999992 
0.000186642 -0.00470185 0.999992 
9.65508e-05 -0.00447188 0.999993 
-3.74418e-05 -0.00393963 0.999995 
-0.000214164 -0.00291973 0.999998 
-0.000430536 -0.00129631 1 
-0.000648078 0.00106414 1 
-0.000897225 0.00408796 0.999994 
-0.00125241 0.00814435 0.999969 
-0.00188311 0.0137877 0.999906 
-0.00304492 0.0224011 0.999747 
-0.00526054 0.0362219 0.999332 
-0.00717528 0.058116 0.998286 
-0.0104909 0.0833005 0.996471 
-0.0148196 0.125368 0.992 
-0.0180438 0.178391 0.983796 
-0.0241381 0.235238 0.971639 
-0.0308614 0.332755 0.942509 
-0.0333512 0.443732 0.895541 
-0.0430984 0.539708 0.840741 
-0.00290411 0.800187 0.599814 
0.0100982 0.940728 -0.339317 
0.0325756 0.748882 -0.661888 
0.0436194 0.530032 -0.846837 
0.0354535 0.425787 -0.904122 
0.020222 0.315739 -0.948632 
0.0227384 0.240665 -0.970344 
0.0205962 0.177347 -0.983933 
0.0145737 0.115723 -0.993175 
0.00926383 0.0806888 -0.996698 
0.00714664 0.0516803 -0.99864 
0.00412179 0.0326182 -0.999462 
0.00253099 0.0218465 -0.999761 
0.00185591 0.0142054 -0.9999 
0.00134796 0.00845296 -0.999966 
0.00101225 0.00402611 -0.999994 
0.000701713 0.000948595 -1 
0.000410831 -0.00142747 -1 
0.000250922 -0.00304145 -0.999998 
6.28024e-05 -0.00416605 -0.999994 
-0.000132292 -0.00471347 -0.999992 
-0.000219604 -0.00483238 -0.999991 
-0.00024743 -0.00477492 -0.999991 
-0.000253402 -0.00462029 -0.999992 
-0.00025503 -0.00440364 -0.999993 
-0.000246448 -0.0040911 -0.999994 
-0.000221567 -0.00374624 -0.999996 
-0.00019347 -0.00335226 -0.999997 
-0.000155514 -0.00298748 -0.999998 
-0.000128938 -0.00263277 -0.999999 
-0.000100523 -0.00231064 -1 
-7.97232e-05 -0.00205742 -1 
-6.41202e-05 -0.00183378 -1 
-4.74601e-05 -0.0016706 -1 
-3.96826e-05 -0.00155305 -1 
-2.94098e-05 -0.00143391 -1 
-1.62946e-05 -0.00136869 -1 
-5.78665e-06 -0.00131699 -1 
2.74341e-06 -0.00127096 -1 
1.3062e-05 -0.00123648 -1 
3.14743e-05 -0.00114939 -1 
-0.000225608 -0.00119333 1 
-0.000114668 -0.00124443 1 
-6.23452e-05 -0.00127262 1.00001 
-2.81059e-05 -0.00131211 1.00001 
1.92131e-06 -0.0013689 1 
1.85825e-05 -0.00146336 1.00001 
3.15047e-05 -0.00157164 1.00001 
4.28074e-05 -0.00171938 1 
5.8493e-05 -0.00190037 1 
8.06537e-05 -0.00214685 1 
0.000122464 -0.0024485 1 
0.000181933 -0.00278805 1 
0.00028291 -0.00314059 1 
0.000341912 -0.00349725 1 
0.000509046 -0.00385481 0.999998 
0.000613462 -0.00415291 0.999997 
0.000716168 -0.00438905 0.999996 
0.000765953 -0.00452658 0.999995 
0.000798998 -0.00451677 0.999995 
0.000777233 -0.00431027 0.999996 
0.000748699 -0.00383088 0.999998 
0.000618559 -0.00303519 1 
0.000494569 -0.00171461 1 
0.000335465 0.000235131 1.00001 
0.000181914 0.00296557 1 
-4.26161e-05 0.00660918 0.999984 
-0.000377269 0.0118144 0.999936 
-0.000970739 0.0196142 0.999813 
-0.00189599 0.03172 0.999501 
-0.00321386 0.0510904 0.998694 
-0.00519349 0.0792549 0.996845 
-0.00674219 0.111995 0.993689 
-0.00942825 0.162738 0.986626 
-0.00749465 0.217694 0.975988 
-0.0101866 0.285375 0.958358 
0.0169044 0.313699 0.949373 
-0.00373604 0.385257 0.922798 
0.00526027 0.621267 0.783563 
0.0161684 0.836789 0.547275 
-0.00566012 0.98386 -0.178471 
-0.0493759 0.868655 -0.492917 
-0.00291912 0.614647 -0.788787 
-0.000952162 0.369821 -0.929089 
-0.0234056 0.320765 -0.946869 
0.00703939 0.288784 -0.957367 
0.00241105 0.216185 -0.97635 
0.00428627 0.146893 -0.989144 
0.00389876 0.0978098 -0.995203 
0.00315077 0.0650581 -0.997882 
0.00217854 0.040655 -0.999177 
0.00124834 0.0259671 -0.999668 
0.000618437 0.0168697 -0.999864 
0.000218885 0.0100971 -0.999955 
-1.29715e-05 0.00518148 -0.999993 
-0.000245455 0.0015891 -1.00001 
-0.000365751 -0.000743559 -1.00001 
-0.000512311 -0.00253392 -1 
-0.000640409 -0.00374718 -0.999999 
-0.000728165 -0.00437957 -0.999996 
-0.000841781 -0.00456726 -0.999995 
-0.000798857 -0.00459502 -0.999995 
-0.000775441 -0.00449252 -0.999995 
-0.000645964 -0.0042902 -0.999996 
-0.000561613 -0.00401224 -0.999998 
-0.000414981 -0.00365375 -0.999999 
-0.000320272 -0.00328677 -1 
-0.000215472 -0.00290273 -1 
-0.000141476 -0.00253385 -1 
-9.99504e-05 -0.00222733 -1 
-6.79139e-05 -0.00196342 -1 
-5.3132e-05 -0.0017578 -1 
-4.26662e-05 -0.00161316 -1 
-2.27443e-05 -0.00149196 -1.00001 
-1.0518e-05 -0.00140518 -1.00001 
7.46564e-06 -0.00134683 -1.00001 
2.86183e-05 -0.00130134 -1 
7.55728e-05 -0.00128562 -1.00001 
0.000100573 -0.00124928 -1 
0.000207553 -0.00123284 -1 
-0.000272248 -0.00134253 1 
-0.000162842 -0.00132176 1.00001 
-9.63795e-05 -0.001327 1.00001 
-4.44942e-05 -0.00134973 1 
-2.83514e-05 -0.00140217 1 
-4.54097e-06 -0.00138789 1.00001 
2.08243e-05 -0.00148309 1 
3.27244e-05 -0.00159496 1.00001 
4.71776e-05 -0.00173383 1.00001 
6.73673e-05 -0.00196054 1 
0.000100553 -0.00224109 1 
0.000165715 -0.00259755 1 
0.000254774 -0.00295636 1 
0.000423142 -0.00339299 1 
0.000589764 -0.00374061 0.999999 
0.000816899 -0.00409383 0.999997 
0.0010205 -0.00433576 0.999996 
0.0011936 -0.00446654 0.999995 
0.00130893 -0.00445193 0.999995 
0.00136807 -0.00424544 0.999996 
0.00139719 -0.00380189 0.999997 
0.00135284 -0.00306484 1 
0.00125234 -0.00197834 1 
0.00113791 -0.000329121 1.00001 
0.0010263 0.00196283 1 
0.000895502 0.00522482 0.999992 
0.000681558 0.0096641 0.999959 
0.000364181 0.0162273 0.999875 
-0.000148994 0.0262459 0.999662 
-0.000876666 0.0417756 0.999133 
-0.000720348 0.063099 0.998012 
0.0018714 0.0963046 0.995356 
0.00115811 0.132977 0.991121 
0.0111119 0.176527 0.984237 
0.0191693 0.246348 0.968993 
0.0765826 0.310674 0.947427 
0.0492864 0.39118 0.918992 
0.0116062 0.478345 0.878089 
0.0405798 0.684524 0.727857 
-0.0401231 0.928991 0.367826 
-0.0357238 0.746745 -0.66414 
-0.056117 0.65078 -0.75718 
-0.00508784 0.479328 -0.877616 
-0.0673317 0.292117 -0.95401 
-0.030875 0.231094 -0.972443 
-0.0260819 0.170413 -0.985031 
-0.00647675 0.143461 -0.989639 
-0.00435454 0.100927 -0.994888 
-8.99819e-05 0.0682137 -0.997676 
0.00092904 0.0455078 -0.998969 
0.000130176 0.0291775 -0.99958 
-0.000523821 0.0185238 -0.999835 
-0.000614528 0.0117645 -0.999937 
-0.000791847 0.00648474 -0.999985 
-0.000897329 0.0028169 -1 
-0.00109954 0.000164939 -1.00001 
-0.00121297 -0.00177397 -1 
-0.00126923 -0.00305277 -1 
-0.00131869 -0.00389537 -0.999997 
-0.0014019 -0.00429539 -0.999995 
-0.00133658 -0.00449464 -0.999995 
-0.00124187 -0.00451972 -0.999995 
-0.0010659 -0.00441232 -0.999995 
-0.000889378 -0.00420807 -0.999996 
-0.000674503 -0.00388602 -0.999998 
-0.000493632 -0.00353189 -0.999999 
-0.00032884 -0.00312343 -1 
-0.000209508 -0.00272241 -1 
-0.000133494 -0.00237346 -1 
-8.6246e-05 -0.00205929 -1 
-6.2154e-05 -0.00183143 -1 
-4.31558e-05 -0.00166064 -1 
-3.21661e-05 -0.00152863 -1 
-1.42668e-05 -0.00144497 -1.00001 
1.64712e-05 -0.001376 -1.00001 
4.31453e-05 -0.00133483 -1.00001 
8.85599e-05 -0.00133211 -1.00001 
0.000149335 -0.00132494 -1.00001 
0.000242862 -0.00135789 -1 
-0.000230341 -0.00144548 1 
-0.000158659 -0.00139555 1.00001 
-0.000111684 -0.00137535 1.00001 
-6.91283e-05 -0.00137288 1.00001 
-4.41283e-05 -0.00142463 1.00001 
-1.15064e-06 -0.00146629 1.00001 
3.72271e-06 -0.00156333 1.00001 
1.81221e-05 -0.00171231 1 
3.4641e-05 -0.00190001 1 
6.22966e-05 -0.00218285 1 
0.0001088 -0.00251148 1 
0.000184228 -0.0029131 1 
0.000322339 -0.00331424 1 
0.000494507 -0.00373774 0.999999 
0.000708786 -0.00406945 0.999997 
0.000962452 -0.00436449 0.999996 
0.00120818 -0.00451747 0.999995 
0.00142582 -0.00452893 0.999994 
0.00159549 -0.00437138 0.999995 
0.00173699 -0.00402754 0.999996 
0.00184685 -0.00344198 0.999998 
0.00193177 -0.00258785 1 
0.0019644 -0.00137316 1 
0.00204501 0.000339901 1 
0.00211446 0.00276954 1 
0.00230552 0.00611876 0.999985 
0.00248941 0.0108448 0.999944 
0.00287606 0.0178946 0.999842 
0.00357264 0.0288355 0.999584 
0.00558605 0.0439565 0.999024 
0.00941537 0.0672342 0.997697 
0.0200807 0.0897603 0.995766 
0.0241911 0.12591 0.991751 
0.0446606 0.165122 0.985265 
0.0531797 0.224741 0.972969 
0.121742 0.272154 0.954522 
0.116842 0.426758 0.896786 
0.0694052 0.516293 0.85359 
0.00357304 0.937645 0.34723 
-0.0628142 0.960213 -0.271868 
-0.121877 0.720739 -0.682389 
-0.0484119 0.536146 -0.842728 
-0.0536012 0.411317 -0.909914 
-0.117902 0.294859 -0.948239 
-0.0768431 0.202911 -0.97618 
-0.0541161 0.14564 -0.98786 
-0.0273217 0.109527 -0.993614 
-0.0142005 0.0774807 -0.996898 
-0.00716091 0.054173 -0.998512 
-0.00402434 0.0373532 -0.9993 
-0.00340667 0.0244332 -0.999702 
-0.0031368 0.0157241 -0.999878 
-0.00239079 0.00977459 -0.999956 
-0.00219134 0.00526774 -0.99999 
-0.00204592 0.00216204 -1 
-0.00195988 -0.00025678 -1 
-0.00195339 -0.0018622 -1 
-0.00182048 -0.0030467 -0.999999 
-0.00175972 -0.00379835 -0.999997 
-0.0016727 -0.00427966 -0.999995 
-0.0015245 -0.00451811 -0.999994 
-0.00132355 -0.00459127 -0.999994 
-0.00110778 -0.00451673 -0.999995 
-0.000867898 -0.00429625 -0.999996 
-0.000644931 -0.00399092 -0.999998 
-0.000438769 -0.00359477 -0.999999 
-0.000278782 -0.00316225 -1 
-0.000169941 -0.00274797 -1 
-9.49916e-05 -0.00234745 -1 
-5.51458e-05 -0.00204763 -1 
-3.30319e-05 -0.00181799 -1 
-1.37257e-05 -0.00162462 -1 
-1.73678e-06 -0.00151942 -1 
1.57707e-05 -0.00143928 -1 
4.65169e-05 -0.0014 -1.00001 
6.21492e-05 -0.00136687 -1.00001 
9.84935e-05 -0.00137166 -1 
0.000139841 -0.0013741 -1.00001 
0.000218526 -0.00143168 -1 
-0.000133957 -0.00150527 1 
-0.000134158 -0.00145364 1 
-8.84417e-05 -0.00139832 1 
-6.92764e-05 -0.00140818 1.00001 
-5.38482e-05 -0.00145215 1.00001 
-2.98913e-05 -0.00148665 1 
-3.34303e-05 -0.00154132 1 
-1.22059e-05 -0.00163766 1 
5.40674e-07 -0.00181053 1 
2.33345e-05 -0.00203971 1 
5.28431e-05 -0.00235648 1 
0.000106077 -0.00272689 1 
0.000212259 -0.00322153 1 
0.000350052 -0.00364258 0.999999 
0.000548437 -0.00407969 0.999997 
0.000789406 -0.00438779 0.999996 
0.00106997 -0.00461912 0.999994 
0.00134521 -0.00468082 0.999994 
0.00160605 -0.0045679 0.999994 
0.00183232 -0.00428198 0.999995 
0.00204411 -0.00377513 0.999996 
0.00225084 -0.00302871 0.999998 
0.00244724 -0.00199124 1 
0.00265701 -0.000624067 1 
0.00292074 0.00132827 1 
0.00331051 0.00396545 0.999993 
0.00392022 0.00774278 0.999969 
0.00485656 0.0131 0.999909 
0.00658636 0.0214828 0.999754 
0.0101353 0.0332254 0.999403 
0.0162206 0.0502835 0.99861 
0.0290825 0.0701113 0.997121 
0.044491 0.100907 0.993905 
0.0699637 0.126099 0.989552 
0.0889129 0.174616 0.980616 
0.121003 0.211707 0.969817 
0.162721 0.363474 0.917283 
0.130281 0.625409 0.769342 
0.0854952 0.748799 0.657222 
-0.00991769 0.992697 0.120057 
-0.104372 0.834875 -0.540434 
-0.125313 0.507073 -0.85274 
-0.132074 0.390133 -0.911234 
-0.134346 0.208802 -0.968688 
-0.0984802 0.143481 -0.984744 
-0.0766793 0.0979538 -0.992237 
-0.0497415 0.0949358 -0.994244 
-0.0299978 0.0723526 -0.996933 
-0.0183127 0.0533112 -0.998416 
-0.0113585 0.0375554 -0.999236 
-0.00782211 0.0260144 -0.999637 
-0.00602684 0.0169981 -0.999844 
-0.00444977 0.0104527 -0.999942 
-0.00356303 0.00619127 -0.999981 
-0.00309296 0.00279938 -0.999997 
-0.0027068 0.000405973 -1 
-0.00252389 -0.00135434 -1 
-0.00227144 -0.0026911 -0.999999 
-0.00208448 -0.00356101 -0.999997 
-0.00188874 -0.00415815 -0.999995 
-0.00166383 -0.00454515 -0.999994 
-0.00141218 -0.00470922 -0.999994 
-0.00115045 -0.00471587 -0.999994 
-0.000897617 -0.00453993 -0.999995 
-0.000651752 -0.00425678 -0.999996 
-0.000448402 -0.00386746 -0.999998 
-0.000281838 -0.00341211 -1 
-0.00016514 -0.00295366 -1 
-9.15173e-05 -0.00253024 -1 
-4.37314e-05 -0.00217281 -1 
-1.66091e-05 -0.00190277 -1 
-5.45881e-07 -0.00169947 -1 
1.99113e-05 -0.0015542 -1.00001 
3.13671e-05 -0.00147207 -1.00001 
5.60653e-05 -0.00142055 -1.00001 
7.67739e-05 -0.00138793 -1.00001 
9.95699e-05 -0.00139338 -1.00001 
0.000138182 -0.00142496 -1 
0.000150669 -0.00148811 -1 
-5.79881e-05 -0.0015041 1 
-6.87089e-05 -0.00143599 1.00001 
-0.000104409 -0.00140972 1.00001 
-7.47065e-05 -0.00140216 1.00001 
-6.64324e-05 -0.00141906 1 
-4.96462e-05 -0.00150377 1 
-3.45019e-05 -0.00161613 1 
-2.05671e-05 -0.00173743 1 
1.08693e-07 -0.00196908 1 
2.57492e-05 -0.00223569 1 
6.60315e-05 -0.00260695 1 
0.000136392 -0.00305224 1 
0.000241779 -0.00354787 0.999999 
0.000389862 -0.00398566 0.999998 
0.000599257 -0.00440449 0.999996 
0.000848047 -0.00467438 0.999994 
0.00112647 -0.00484226 0.999993 
0.00141943 -0.00482872 0.999993 
0.0016917 -0.0046474 0.999993 
0.00195496 -0.00426905 0.999994 
0.00220996 -0.003689 0.999996 
0.00247281 -0.00287519 0.999998 
0.00274697 -0.00185314 1 
0.00306826 -0.000483679 1 
0.00349408 0.00127089 0.999999 
0.00411523 0.00368375 0.999991 
0.00509405 0.00685446 0.99997 
0.00664444 0.0115688 0.999917 
0.00932449 0.0181367 0.999799 
0.0141133 0.0272251 0.999536 
0.021818 0.039504 0.998988 
0.037553 0.0546897 0.997802 
0.058539 0.0783156 0.995214 
0.0882055 0.0830136 0.992642 
0.114161 0.124692 0.98561 
0.153128 0.127237 0.979983 
0.22385 0.299729 0.927389 
0.175294 0.544881 0.819979 
0.114257 0.845194 0.522037 
-0.0181784 0.999575 -0.0214121 
-0.146194 0.879002 -0.453722 
-0.257574 0.537478 -0.802963 
-0.198948 0.29413 -0.93483 
-0.195248 0.180079 -0.96408 
-0.138071 0.110559 -0.984238 
-0.0779825 0.0681513 -0.994628 
-0.0444878 0.0587334 -0.997289 
-0.0288745 0.0451202 -0.99857 
-0.0188333 0.0346939 -0.999227 
-0.0128181 0.0248029 -0.999617 
-0.0092875 0.0172803 -0.999814 
-0.0065113 0.0113122 -0.999921 
-0.00498023 0.00675739 -0.999971 
-0.00401856 0.00376747 -0.999991 
-0.00338242 0.00123291 -0.999999 
-0.00298882 -0.000535077 -1 
-0.00264439 -0.00205438 -1 
-0.00238053 -0.00309922 -0.999998 
-0.00212656 -0.00386415 -0.999996 
-0.00186441 -0.00440278 -0.999994 
-0.00156916 -0.00476887 -0.999993 
-0.00129611 -0.00490089 -0.999993 
-0.00101309 -0.00486462 -0.999993 
-0.000769402 -0.00465798 -0.999994 
-0.000541421 -0.00433529 -0.999996 
-0.000362248 -0.00389943 -0.999998 
-0.000223421 -0.00342046 -1 
-0.000128088 -0.00293976 -1 
-6.76197e-05 -0.00251201 -1 
-2.73714e-05 -0.00215467 -1 
-2.17398e-07 -0.00187351 -1 
1.77631e-05 -0.00168171 -1 
3.53356e-05 -0.00155771 -1 
4.75816e-05 -0.00147538 -1.00001 
6.0671e-05 -0.00142309 -1.00001 
7.3534e-05 -0.00139654 -1.00001 
7.7647e-05 -0.00139834 -1.00001 
9.45472e-05 -0.00143264 -1.00001 
8.48953e-05 -0.00149513 -1 
1.0638e-05 -0.00146508 1 
-1.55414e-05 -0.00141627 1.00001 
-6.6159e-05 -0.00140493 1.00001 
-4.97134e-05 -0.00139601 1.00001 
-5.6328e-05 -0.00144367 1.00001 
-4.30429e-05 -0.00149802 1 
-3.89716e-05 -0.00158535 1 
-2.099e-05 -0.00172243 1.00001 
-7.30828e-06 -0.0018896 1 
2.13343e-05 -0.00216147 1 
5.33497e-05 -0.00248675 1 
0.000106455 -0.00294888 1 
0.000181478 -0.00343189 1 
0.000296301 -0.00394117 0.999998 
0.00045544 -0.00438261 0.999996 
0.000671895 -0.00475558 0.999994 
0.000917898 -0.00497013 0.999993 
0.00120031 -0.00503441 0.999992 
0.00147353 -0.00491561 0.999992 
0.00174961 -0.00460058 0.999993 
0.00201468 -0.00408812 0.999995 
0.0022856 -0.00336688 0.999997 
0.00256423 -0.00245842 0.999999 
0.0029131 -0.00132272 1 
0.00334306 4.54325e-05 1 
0.00398126 0.00181958 0.999996 
0.00495287 0.00407138 0.999986 
0.00657508 0.00729069 0.999958 
0.00922119 0.011576 0.999897 
0.0137569 0.0173662 0.999761 
0.0213277 0.024657 0.999475 
0.033527 0.0346223 0.998845 
0.0572515 0.0466933 0.997275 
0.0833164 0.0401386 0.99572 
0.123731 0.0584705 0.990597 
0.195045 0.0964042 0.976047 
0.180191 0.205087 0.962013 
0.292204 0.407092 0.86537 
0.23524 0.48143 0.844319 
0.0131637 0.969082 0.246325 
-0.159399 0.613115 -0.773738 
-0.224596 0.422101 -0.878283 
-0.284238 0.234582 -0.92961 
-0.144926 0.0476063 -0.9883 
-0.105243 0.0549232 -0.992933 
-0.0719543 0.0251419 -0.997097 
-0.0561592 0.0410746 -0.997582 
-0.0377602 0.0332928 -0.998738 
-0.0246968 0.0265923 -0.999348 
-0.0168748 0.0205591 -0.999653 
-0.0117646 0.0146117 -0.999831 
-0.00806257 0.0102666 -0.999921 
-0.00576637 0.00628561 -0.99997 
-0.00436513 0.00318164 -0.999991 
-0.0036023 0.00120355 -0.999999 
-0.00304182 -0.000607777 -1 
-0.00269636 -0.00190068 -1 
-0.00235948 -0.00304747 -0.999998 
-0.00208869 -0.00386093 -0.999996 
-0.00181444 -0.00445716 -0.999994 
-0.00153393 -0.00485868 -0.999992 
-0.00122608 -0.00507255 -0.999992 
-0.000971504 -0.00506089 -0.999992 
-0.000719791 -0.00487362 -0.999993 
-0.000518292 -0.00456006 -0.999995 
-0.000351154 -0.00411066 -0.999997 
-0.000227083 -0.00361889 -0.999999 
-0.000138209 -0.00310798 -1 
-7.83892e-05 -0.00263661 -1 
-3.98736e-05 -0.00226417 -1 
-9.62239e-06 -0.00194198 -1.00001 
1.42367e-05 -0.0017183 -1 
3.03718e-05 -0.00157165 -1 
4.5787e-05 -0.00147514 -1 
4.63733e-05 -0.00142245 -1.00001 
5.68096e-05 -0.00139564 -1.00001 
4.57993e-05 -0.00139187 -1.00001 
5.17801e-05 -0.00142447 -1.00001 
2.56904e-05 -0.00148168 -1 
7.27593e-05 -0.00144472 1 
3.7881e-05 -0.0013886 1 
-3.11132e-05 -0.00139048 1 
-1.48495e-05 -0.00138411 1.00001 
-3.66518e-05 -0.00142458 1 
-2.10411e-05 -0.00149903 1 
-1.87585e-05 -0.00161231 1 
1.50661e-06 -0.00176615 1 
1.60547e-05 -0.00196763 1 
4.73721e-05 -0.00225813 1 
7.95328e-05 -0.00265387 1 
0.000127822 -0.00312114 1 
0.000195199 -0.0036344 0.999999 
0.000289751 -0.00414368 0.999998 
0.000431512 -0.00460243 0.999994 
0.000601793 -0.00494332 0.999994 
0.000829866 -0.00515855 0.999991 
0.00106405 -0.00519453 0.999991 
0.00130324 -0.00503282 0.999993 
0.00155576 -0.00468338 0.999993 
0.00181104 -0.004121 0.999995 
0.00205657 -0.00338161 0.999998 
0.00232539 -0.00247053 1 
0.00267331 -0.00143639 1 
0.00316187 -0.000207599 1 
0.00387469 0.00121775 0.999998 
0.00503304 0.00300662 0.999989 
0.00683553 0.00515823 0.99997 
0.00981312 0.00800431 0.999927 
0.0146599 0.0113691 0.999833 
0.0221786 0.014777 0.999653 
0.0353755 0.021429 0.99915 
0.0528064 0.0213473 0.998383 
0.0717497 0.00509395 0.997416 
0.114203 0.0112522 0.9934 
0.179387 0.0317333 0.98327 
0.263521 0.189609 0.945835 
0.350589 0.273423 0.895749 
0.242929 0.706179 0.665088 
0.0134982 0.989778 0.142113 
-0.239241 0.723643 -0.647458 
-0.355223 0.333509 -0.873282 
-0.209403 0.0780526 -0.974712 
-0.151511 0.00293416 -0.988454 
-0.0929822 0.00756202 -0.995646 
-0.0544397 -0.000655898 -0.998524 
-0.0461253 0.0160053 -0.998816 
-0.0316734 0.0170213 -0.999359 
-0.0220634 0.0143 -0.999661 
-0.0155193 0.0118658 -0.999816 
-0.0102231 0.00889271 -0.999915 
-0.00708558 0.00630353 -0.999961 
-0.00502533 0.0036374 -0.999987 
-0.00377777 0.00146489 -0.999998 
-0.00312758 2.93706e-05 -1 
-0.00259841 -0.00139364 -1 
-0.00232406 -0.00246314 -1 
-0.00200205 -0.00344549 -0.999997 
-0.00176014 -0.00417092 -0.999995 
-0.00150953 -0.00471614 -0.999994 
-0.00126198 -0.00509687 -0.999991 
-0.000982507 -0.00524004 -0.999992 
-0.000769853 -0.00518042 -0.999992 
-0.000566223 -0.00495866 -0.999993 
-0.000406614 -0.00457326 -0.999995 
-0.000282816 -0.00410051 -0.999997 
-0.00019131 -0.00357302 -0.999999 
-0.000125517 -0.00304983 -1 
-8.18537e-05 -0.00260589 -1 
-4.57216e-05 -0.00220456 -1 
-2.23829e-05 -0.00192343 -1 
6.38808e-07 -0.00172519 -1 
7.77985e-06 -0.00159779 -1 
2.39586e-05 -0.00149702 -1 
2.07882e-05 -0.00142752 -1 
2.37007e-05 -0.00138704 -1.00001 
3.55781e-06 -0.00137895 -1.00001 
-3.01293e-07 -0.00141427 -1.00001 
-4.48162e-05 -0.00145663 -1 
0.000136427 -0.00138671 1 
7.83242e-05 -0.00135031 1 
1.34569e-05 -0.00136278 1.00001 
1.6585e-05 -0.00137197 1.00001 
-7.42732e-06 -0.001428 1 
6.60422e-06 -0.00150163 1 
2.91149e-06 -0.00160169 1 
2.09585e-05 -0.00175705 1 
3.87496e-05 -0.00198988 1 
6.85659e-05 -0.00232364 1 
9.82711e-05 -0.00273329 1 
0.000137482 -0.00321813 1 
0.000187342 -0.00374267 0.999999 