# vtk DataFile Version 3.0 
Exported using Morpho https://github.com/Morpho-lang/morpho 
ASCII 
DATASET UNSTRUCTURED_GRID 

POINTS 1978 float 
-8.48528 -2.82843 9.40997e-14 
-8.25363 -2.82843 1.97289e-12 
-8.02607 -2.82843 2.31115e-12 
-7.79553 -2.82843 3.33122e-12 
-7.49881 -2.82843 1.36644e-12 
-7.25342 -2.82843 1.12849e-12 
-6.99729 -2.82843 3.2274e-13 
-6.77501 -2.82843 1.43658e-12 
-6.55962 -2.82843 -2.61063e-12 
-6.35324 -2.82843 -2.08985e-12 
-6.1331 -2.82843 1.50986e-12 
-5.92772 -2.82843 -6.59182e-13 
-5.71283 -2.82843 -1.45183e-12 
-5.5222 -2.82843 -5.04145e-13 
-5.28725 -2.82843 -1.82236e-12 
-5.08346 -2.82843 -8.18568e-13 
-4.87219 -2.82843 -1.945e-12 
-4.66183 -2.82843 -1.7069e-12 
-4.44589 -2.82843 -5.2732e-12 
-4.23312 -2.82843 -4.66484e-12 
-4.02216 -2.82843 -3.31243e-12 
-3.82255 -2.82843 3.41251e-13 
-3.61463 -2.82843 7.49613e-12 
-3.4049 -2.82843 5.40943e-12 
-3.18566 -2.82843 1.17069e-11 
-2.96703 -2.82843 1.90799e-11 
-2.7356 -2.82843 1.09949e-11 
-2.49736 -2.82843 2.09795e-11 
-2.25606 -2.82843 4.83739e-11 
-2.01038 -2.82843 5.83806e-11 
-1.76014 -2.82843 2.31257e-11 
-1.57251 -2.82843 -1.35634e-10 
-1.35787 -2.82843 3.24046e-10 
-1.1802 -2.82843 9.17423e-10 
-1.05063 -2.82843 5.99417e-09 
-0.87638 -2.82843 2.32673e-08 
-0.7217 -2.82843 7.12004e-08 
-0.614655 -2.82842 4.26229e-07 
-0.413622 -2.82843 6.37922e-07 
0.245551 -2.82844 -6.00991e-06 
0.411729 -2.82842 -9.38248e-07 
0.6167 -2.82843 -4.58631e-07 
0.748048 -2.82843 -1.64154e-07 
0.89591 -2.82843 -2.16543e-08 
1.04222 -2.82843 -1.08284e-08 
1.18718 -2.82843 -6.50858e-09 
1.38574 -2.82843 -1.72411e-09 
1.57738 -2.82843 -3.37857e-10 
1.81737 -2.82843 -3.01682e-12 
2.07144 -2.82843 -7.09329e-11 
2.30198 -2.82843 -5.12574e-11 
2.53842 -2.82843 1.91028e-11 
2.76969 -2.82843 -1.19016e-11 
2.99811 -2.82843 -1.55035e-11 
3.20519 -2.82843 -1.42774e-11 
3.41111 -2.82843 -1.40995e-11 
3.61192 -2.82843 -7.55459e-12 
3.81442 -2.82843 -1.10371e-12 
4.02556 -2.82843 3.92844e-12 
4.24591 -2.82843 3.97806e-12 
4.44773 -2.82843 4.21231e-12 
4.65904 -2.82843 2.39947e-12 
4.86107 -2.82843 3.53319e-13 
5.07625 -2.82843 2.32098e-12 
5.2815 -2.82843 9.41353e-13 
5.50117 -2.82843 4.16612e-15 
5.70809 -2.82843 1.81371e-12 
5.92632 -2.82843 6.75658e-13 
6.15172 -2.82843 -4.98863e-13 
6.36019 -2.82843 1.62537e-12 
6.59028 -2.82843 8.37707e-13 
6.8075 -2.82843 -1.31251e-12 
7.0103 -2.82843 1.5786e-13 
7.29138 -2.82843 -9.77318e-13 
7.51195 -2.82843 -1.94459e-12 
7.75044 -2.82843 -1.16584e-12 
8.03518 -2.82843 -3.38249e-12 
8.22607 -2.82843 -1.79076e-12 
8.48528 -2.82843 -3.41266e-13 
-8.48528 -2.58336 -6.28563e-13 
-8.25667 -2.59246 6.15217e-17 
-8.0267 -2.58328 -8.78055e-17 
-7.7869 -2.59493 1.87197e-17 
-7.54439 -2.64946 3.86583e-17 
-7.25805 -2.62108 -4.67254e-17 
-6.99866 -2.60143 -2.35979e-16 
-6.76661 -2.59706 -1.0983e-16 
-6.53977 -2.58453 -3.65649e-16 
-6.30858 -2.60083 -7.01623e-16 
-6.08625 -2.5836 -1.39887e-15 
-5.86636 -2.59428 -2.60981e-15 
-5.66395 -2.56199 -4.09801e-15 
-5.44106 -2.61355 -6.01093e-15 
-5.22638 -2.5814 -8.19713e-15 
-5.01245 -2.59058 -9.03464e-15 
-4.79711 -2.59066 -8.14678e-15 
-4.57959 -2.59793 -5.31281e-15 
-4.36161 -2.59523 -1.44635e-15 
-4.14566 -2.59441 1.99971e-15 
-3.93812 -2.58185 5.58289e-15 
-3.73035 -2.59096 4.76911e-15 
-3.51697 -2.59008 2.46782e-15 
-3.29823 -2.596 2.15838e-14 
-3.07425 -2.58925 1.288e-13 
-2.84519 -2.59738 5.42265e-13 
-2.60552 -2.59988 2.05221e-12 
-2.36031 -2.60201 8.35021e-12 
-2.1115 -2.61017 3.44775e-11 
-1.85998 -2.62613 1.43666e-10 
-1.6328 -2.57909 4.51287e-10 
-1.44524 -2.63479 1.41979e-09 
-1.24961 -2.62905 3.97729e-09 
-1.09476 -2.5963 9.55954e-09 
-0.957077 -2.6774 1.72469e-08 
-0.871239 -2.52646 1.14023e-08 
-0.786937 -2.67529 3.92949e-08 
-0.538797 -2.73905 2.21124e-08 
-0.333098 -2.74495 2.95214e-07 
0.122606 -2.8006 1.08067e-07 
0.279339 -2.73558 -1.25913e-08 
0.534985 -2.75097 -9.21034e-08 
0.80291 -2.68262 -3.16545e-08 
0.864381 -2.53218 -1.72024e-08 
0.957091 -2.65301 -2.03815e-08 
1.09439 -2.60285 -7.87663e-09 
1.28036 -2.64114 -3.07323e-09 
1.48964 -2.60061 -9.37628e-10 
1.71577 -2.62629 -2.70889e-10 
1.97771 -2.62684 -7.01161e-11 
2.23624 -2.59967 -1.7689e-11 
2.47551 -2.60252 -5.05821e-12 
2.72406 -2.59644 -1.42075e-12 
2.96389 -2.59863 -3.70464e-13 
3.19864 -2.57941 -8.15151e-14 
3.41444 -2.57655 -1.84416e-14 
3.62769 -2.58594 1.43756e-14 
3.84747 -2.59548 2.87462e-15 
4.07445 -2.60473 1.44721e-15 
4.28583 -2.58379 1.26599e-15 
4.49946 -2.5943 5.00592e-15 
4.70829 -2.58262 6.82531e-15 
4.92351 -2.59725 9.09758e-15 
5.13624 -2.58538 8.66368e-15 
5.35588 -2.60113 7.54052e-15 
5.57133 -2.58564 5.14481e-15 
5.78956 -2.59644 3.27276e-15 
6.017 -2.6015 1.80731e-15 
6.23673 -2.57998 9.14356e-16 
6.45983 -2.60142 4.83151e-16 
6.68677 -2.58537 2.471e-16 
6.89805 -2.56629 1.40962e-16 
7.13535 -2.63853 5.31947e-17 
7.38075 -2.58409 3.79787e-17 
7.61035 -2.60222 -9.43896e-18 
7.87421 -2.6383 2.24089e-17 
8.0834 -2.54442 1.57217e-18 
8.3073 -2.61776 -6.72366e-18 
8.48528 -2.52146 9.42419e-13 
-8.48528 -2.34453 -1.73452e-12 
-8.25381 -2.35359 2.76829e-16 
-8.01388 -2.34701 3.70357e-17 
-7.76679 -2.37883 6.4965e-18 
-7.54902 -2.23329 -7.60966e-18 
-7.49681 -2.44664 -5.82239e-17 
-7.21434 -2.42094 -3.63206e-17 
-6.9784 -2.36128 -1.33204e-16 
-6.7454 -2.36605 -2.24501e-16 
-6.5013 -2.36208 -3.52887e-16 
-6.26955 -2.37 -6.42411e-16 
-6.03617 -2.35132 -1.24667e-15 
-5.82875 -2.33706 -2.23783e-15 
-5.58094 -2.35477 -4.41009e-15 
-5.37318 -2.36654 -6.19148e-15 
-5.14281 -2.35129 -7.70873e-15 
-4.92181 -2.35856 -7.34069e-15 
-4.69732 -2.36415 -4.57186e-15 
-4.47708 -2.3684 9.41892e-16 
-4.25439 -2.36554 7.40333e-15 
-4.04144 -2.34954 1.35899e-14 
-3.82621 -2.34824 1.73485e-14 
-3.61533 -2.35677 1.98593e-14 
-3.39519 -2.36066 2.82405e-14 
-3.17523 -2.36015 7.74442e-14 
-2.94392 -2.3598 2.96372e-13 
-2.713 -2.36943 1.14854e-12 
-2.47317 -2.37326 4.45763e-12 
-2.22828 -2.38223 1.7943e-11 
-1.98065 -2.40233 7.23391e-11 
-1.75711 -2.38911 2.28363e-10 
-1.52066 -2.3699 6.19781e-10 
-1.34514 -2.43208 1.33852e-09 
-1.1731 -2.39815 2.04933e-09 
-0.990444 -2.43958 3.88888e-09 
-0.795147 -2.3417 -5.33886e-10 
-0.723552 -2.49155 1.07001e-08 
-0.652569 -2.63935 4.63022e-08 
-0.452498 -2.67059 1.04952e-07 
-0.210195 -2.88349 5.53103e-07 
0.397591 -2.71717 -1.02137e-07 
0.484062 -2.63492 -9.45786e-08 
0.673722 -2.68209 -6.7359e-08 
0.834917 -2.36907 8.68002e-09 
0.994091 -2.41707 -2.96901e-09 
1.13554 -2.34587 -8.27433e-10 
1.26884 -2.43885 -1.27918e-09 
1.45672 -2.38127 -6.26173e-10 
1.68434 -2.40692 -2.57559e-10 
1.92167 -2.42567 -7.65887e-11 
2.17786 -2.39561 -2.12851e-11 
2.43264 -2.3666 -5.4277e-12 
2.66287 -2.37454 -1.47741e-12 
2.9072 -2.36747 -4.22207e-13 
3.13632 -2.35719 -1.18563e-13 
3.36429 -2.33947 -3.28338e-14 
3.58672 -2.34225 -2.71467e-14 
3.79611 -2.36191 -2.6414e-14 
4.0157 -2.37874 -1.80955e-14 
4.22957 -2.35081 -7.908e-15 
4.44485 -2.35605 -7.94217e-16 
4.65151 -2.34581 4.24423e-15 
4.86668 -2.3592 6.86281e-15 
5.07596 -2.3521 8.13111e-15 
5.29692 -2.36697 7.01309e-15 
5.51017 -2.35428 5.24058e-15 
5.73175 -2.35902 3.19497e-15 
5.95151 -2.37328 1.74663e-15 
6.17231 -2.35007 9.31843e-16 
6.40337 -2.35939 4.62872e-16 
6.62021 -2.35703 2.4651e-16 
6.84237 -2.31753 1.46864e-16 
7.07368 -2.3921 9.48475e-17 
7.29021 -2.38583 5.48997e-17 
7.55217 -2.35822 4.22701e-17 
7.78541 -2.41944 2.17027e-17 
7.99492 -2.32474 -2.34338e-17 
8.24911 -2.35151 -1.81072e-16 
8.48528 -2.29234 1.76647e-12 
-8.48528 -2.11302 -1.74529e-12 
-8.25006 -2.1076 1.65336e-16 
-8.0368 -2.10733 3.55808e-17 
-7.79645 -2.1461 2.84518e-17 
-7.51516 -2.02614 1.04619e-17 
-7.29687 -2.2312 8.84894e-18 
-7.063 -2.14957 1.29358e-17 
-6.81093 -2.12926 -2.35194e-17 
-6.58832 -2.14561 3.83883e-17 
-6.34802 -2.13822 7.25368e-18 
-6.13002 -2.13063 -1.44796e-18 
-5.91405 -2.08947 -9.58706e-17 
-5.6918 -2.13624 -5.64903e-16 
-5.47279 -2.11241 -1.22804e-15 
-5.26445 -2.13497 -2.09211e-15 
-5.03864 -2.12464 -2.8676e-15 
-4.82004 -2.13354 -2.82054e-15 
-4.60401 -2.13458 -1.20677e-15 
-4.38949 -2.14049 2.40434e-15 
-4.18052 -2.12449 7.99905e-15 
-3.96801 -2.11606 1.56892e-14 
-3.7582 -2.11344 2.52847e-14 
-3.54598 -2.12817 3.34661e-14 
-3.33017 -2.12598 3.3384e-14 
-3.10587 -2.13203 1.90331e-14 
-2.87673 -2.12737 -8.8666e-15 
-2.64422 -2.13978 9.20478e-15 
-2.40151 -2.14789 3.81858e-13 
-2.15142 -2.16576 1.94765e-12 
-1.91901 -2.16464 6.23823e-12 
-1.68784 -2.17801 3.72514e-11 
-1.48738 -2.12476 -1.44769e-10 
-1.31098 -2.2014 3.58037e-10 
-1.13004 -2.18354 -2.49503e-10 
-0.97337 -2.27195 -1.74957e-09 
-0.747184 -2.19406 2.4459e-09 
-0.59928 -2.40471 1.13173e-08 
-0.556925 -2.54616 -5.75578e-09 
-0.212298 -2.78737 -3.95943e-07 
0.140359 -2.7023 -3.44741e-07 
0.361673 -2.58734 -5.15685e-08 
0.594431 -2.58952 -4.30756e-08 
0.722789 -2.50871 -2.81865e-08 
0.745145 -2.23989 -3.26628e-09 
0.943294 -2.21136 1.83247e-09 
1.11488 -2.14038 1.01164e-10 
1.32483 -2.1766 3.74751e-11 
1.55162 -2.17864 -3.84123e-11 
1.78024 -2.19262 -3.68453e-11 
2.01242 -2.20246 -1.69027e-11 
2.25678 -2.16822 -3.37546e-12 
2.49264 -2.12502 -3.40975e-13 
2.72799 -2.149 -1.84204e-13 
2.96233 -2.13174 -3.15425e-14 
3.18601 -2.12214 -2.96697e-14 
3.41692 -2.11457 -3.66015e-14 
3.62957 -2.10151 -3.05659e-14 
3.84493 -2.13699 -2.13592e-14 
4.0532 -2.13974 -1.11647e-14 
4.27241 -2.12087 -4.05085e-15 
4.47769 -2.11349 -1.84208e-17 
4.69466 -2.11729 2.01429e-15 
4.90218 -2.11835 2.83089e-15 
5.12494 -2.12856 2.56927e-15 
5.33578 -2.12779 1.90978e-15 
5.55799 -2.12573 8.92179e-16 
5.77925 -2.12874 3.608e-16 
5.99467 -2.13518 9.31743e-17 
6.23022 -2.12754 -1.75719e-17 
6.44719 -2.11523 -3.20179e-17 
6.66303 -2.1115 -2.42406e-17 
6.92111 -2.11155 7.90935e-18 
7.1289 -2.14229 -3.57194e-17 
7.369 -2.17265 -1.88414e-17 
7.56965 -2.08103 -4.62603e-17 
7.75907 -2.17711 -1.83585e-17 
7.97189 -2.08074 -2.73404e-17 
8.19846 -2.13387 -9.36833e-17 
8.48528 -2.10287 1.13122e-12 
-8.48528 -1.80311 -2.14838e-12 
-8.31747 -1.87206 1.23134e-16 
-7.89753 -1.90042 2.31986e-17 
[...]
POINT_DATA 1978 
VECTORS vectors float
-2.48629e-05 -0.00105925 0.999999 
3.99819e-06 -0.00119271 0.999999 
-3.52657e-07 -0.00125562 0.999999 
-2.91969e-07 -0.00129458 0.999999 
2.18558e-06 -0.00138109 0.999999 
1.68248e-06 -0.00147435 0.999999 
3.25514e-06 -0.00157871 0.999999 
6.3127e-06 -0.0017175 0.999999 
7.65217e-06 -0.00187944 0.999998 
9.98804e-06 -0.00207886 0.999998 
1.2e-05 -0.00234545 0.999997 
1.78816e-05 -0.00264135 0.999997 
2.00602e-05 -0.0029916 0.999996 
2.44243e-05 -0.00331921 0.999995 
2.38402e-05 -0.00372207 0.999993 
3.16693e-05 -0.00404706 0.999992 
3.30545e-05 -0.00435224 0.999991 
3.20807e-05 -0.00458493 0.99999 
2.8619e-05 -0.00471361 0.999989 
2.38837e-05 -0.00468611 0.999989 
1.43856e-05 -0.00445132 0.99999 
-3.90574e-06 -0.00391462 0.999992 
-2.77002e-05 -0.002892 0.999996 
-5.43389e-05 -0.00126933 0.999999 
-7.58082e-05 0.001089 0.999999 
-9.33768e-05 0.00411462 0.999992 
-0.000104388 0.00818418 0.999967 
-0.000148076 0.013861 0.999904 
-0.000183665 0.0225165 0.999747 
-0.000360183 0.0363796 0.999338 
-0.000812712 0.0583382 0.998297 
-0.00144854 0.0835965 0.996499 
-0.00243791 0.125781 0.992055 
-0.00508415 0.178914 0.983852 
-0.00673371 0.235591 0.971829 
-0.00775777 0.333047 0.942879 
-0.0112036 0.443983 0.895966 
-0.0179837 0.540602 0.841087 
6.71896e-05 0.801022 0.598641 
-0.00334482 0.9388 -0.344463 
0.00822917 0.748868 -0.662668 
0.0114237 0.531198 -0.847172 
0.0116442 0.425576 -0.904848 
0.00529626 0.316245 -0.948663 
0.00733877 0.241007 -0.970496 
0.00482894 0.177638 -0.984084 
0.00219939 0.11611 -0.993234 
0.000927917 0.0809073 -0.996721 
0.000563119 0.0518792 -0.998653 
0.000224702 0.0327597 -0.999463 
0.000211904 0.0219284 -0.99976 
0.000171327 0.0142482 -0.999899 
0.000121596 0.00848684 -0.999964 
0.000119424 0.00405792 -0.999992 
9.94317e-05 0.00097611 -0.999999 
5.26619e-05 -0.00139456 -0.999999 
4.28145e-05 -0.00301297 -0.999996 
1.16535e-05 -0.0041364 -0.999992 
-2.08456e-05 -0.00468951 -0.999989 
-2.96604e-05 -0.00481682 -0.999988 
-3.34063e-05 -0.0047644 -0.999989 
-3.33502e-05 -0.00461235 -0.999989 
-3.32172e-05 -0.0043973 -0.99999 
-3.21562e-05 -0.00408679 -0.999992 
-2.75173e-05 -0.00374357 -0.999993 
-2.4678e-05 -0.003351 -0.999994 
-1.95398e-05 -0.00298695 -0.999996 
-1.46735e-05 -0.00263251 -0.999997 
-1.2025e-05 -0.00231037 -0.999997 
-9.42749e-06 -0.00205703 -0.999998 
-7.0069e-06 -0.0018332 -0.999998 
-6.12242e-06 -0.00166981 -0.999999 
-3.42313e-06 -0.00155209 -0.999999 
-1.68277e-06 -0.00143304 -0.999999 
-1.61963e-06 -0.00136784 -0.999999 
-1.79192e-07 -0.00131619 -0.999999 
3.90794e-07 -0.00127017 -0.999999 
-1.92204e-06 -0.00123554 -0.999999 
1.41529e-05 -0.00110188 -0.999999 
-0.000223183 -0.00111757 0.999999 
-0.000114005 -0.00124131 0.999999 
-6.22873e-05 -0.00127193 0.999999 
-2.80875e-05 -0.00131101 0.999999 
9.98293e-07 -0.00136758 0.999999 
1.75331e-05 -0.00146152 0.999999 
3.03606e-05 -0.00157105 0.999999 
4.16859e-05 -0.00171779 0.999999 
5.72509e-05 -0.00189975 0.999998 
7.89913e-05 -0.00214598 0.999998 
0.000120615 -0.00244695 0.999997 
0.000179075 -0.00278566 0.999996 
0.00027877 -0.00313718 0.999995 
0.000336744 -0.00349348 0.999994 
0.000501212 -0.00384963 0.999993 
0.00060442 -0.0041466 0.999991 
0.000706017 -0.00438109 0.99999 
0.000755831 -0.00451674 0.99999 
0.00078961 -0.00450475 0.99999 
0.00077 -0.00429586 0.999991 
0.00074422 -0.00381426 0.999993 
0.000618706 -0.00301582 0.999995 
0.000499394 -0.00169392 0.999999 
0.000345691 0.000255254 1 
0.000199208 0.00298521 0.999996 
-1.61513e-05 0.00663405 0.999978 
-0.000335668 0.011854 0.99993 
-0.000896642 0.0196771 0.999806 
-0.00177046 0.0318251 0.999492 
-0.00302891 0.0512331 0.998682 
-0.00486877 0.0793958 0.996831 
-0.00638004 0.112173 0.993668 
-0.0087941 0.162861 0.98661 
-0.0067265 0.217742 0.975983 
-0.00926043 0.285314 0.958389 
0.0175655 0.31382 0.94932 
-0.00280849 0.385337 0.922772 
0.00581395 0.621263 0.78358 
0.0182362 0.835538 0.549129 
-0.0057455 0.986526 -0.163462 
-0.0487956 0.870005 -0.490622 
-0.00395201 0.614902 -0.788593 
-0.00138893 0.371266 -0.928525 
-0.0239581 0.320651 -0.946895 
0.00572948 0.287968 -0.957623 
0.00182387 0.2162 -0.976347 
0.00392112 0.147347 -0.989077 
0.00352314 0.0980885 -0.995172 
0.00291828 0.0651808 -0.997869 
0.00201544 0.0407539 -0.999167 
0.0011526 0.0260174 -0.999661 
0.000563019 0.0168955 -0.999857 
0.000183716 0.0101141 -0.999949 
-3.62763e-05 0.00520038 -0.999987 
-0.000256572 0.00161758 -0.999999 
-0.000377832 -0.000728659 -1 
-0.000515504 -0.0025116 -0.999997 
-0.000638103 -0.00372371 -0.999993 
-0.000721911 -0.00436159 -0.99999 
-0.000831593 -0.00455441 -0.999989 
-0.000788488 -0.0045851 -0.999989 
-0.000764368 -0.00448422 -0.99999 
-0.000636849 -0.0042833 -0.999991 
-0.000553008 -0.00400649 -0.999992 
-0.000408661 -0.00364964 -0.999993 
-0.000315305 -0.0032836 -0.999995 
-0.000212069 -0.00290065 -0.999996 
-0.000139006 -0.00253246 -0.999997 
-9.8273e-05 -0.0022263 -0.999998 
-6.64407e-05 -0.00196264 -0.999998 
-5.18214e-05 -0.00175696 -0.999999 
-4.13991e-05 -0.00161217 -0.999999 
-2.18639e-05 -0.00149083 -0.999999 
-9.79083e-06 -0.00140393 -0.999999 
7.85245e-06 -0.00134566 -0.999999 
2.86803e-05 -0.0013003 -0.999999 
7.50955e-05 -0.00128408 -0.999999 
0.000100123 -0.00124597 -0.999999 
0.000205864 -0.00114763 -0.999999 
-0.000270802 -0.00126069 0.999999 
-0.00016235 -0.00131868 0.999999 
-9.60271e-05 -0.00132539 0.999999 
-4.48523e-05 -0.00134736 0.999999 
-2.85731e-05 -0.00140045 0.999999 
-5.0666e-06 -0.00138675 0.999999 
1.99009e-05 -0.00148176 0.999999 
3.17969e-05 -0.00159327 0.999999 
4.63292e-05 -0.00173403 0.999999 
6.66277e-05 -0.0019596 0.999998 
0.000100069 -0.00223951 0.999998 
0.000164773 -0.00259469 0.999997 
0.000253691 -0.00295257 0.999996 
0.000419375 -0.00338716 0.999994 
0.000583838 -0.0037337 0.999993 
0.000808177 -0.00408545 0.999991 
0.00100903 -0.00432643 0.99999 
0.00118041 -0.00445666 0.999989 
0.00129529 -0.00444138 0.999989 
0.00135588 -0.00423431 0.99999 
0.0013875 -0.00379037 0.999992 
0.00134648 -0.00305251 0.999995 
0.00124996 -0.00196514 0.999997 
0.00114009 -0.000315484 0.999999 
0.00103378 0.00197561 0.999998 
0.000909833 0.00523735 0.999986 
0.000705036 0.00968019 0.999953 
0.00040708 0.0162508 0.999868 
-6.77163e-05 0.0262759 0.999655 
-0.000737178 0.0418313 0.999125 
-0.000494123 0.0631606 0.998003 
0.00218881 0.0963136 0.995349 
0.00157709 0.133033 0.99111 
0.0115658 0.176672 0.984202 
0.0197921 0.246361 0.968976 
0.0766611 0.31005 0.947624 
0.0498792 0.390876 0.919091 
0.0131948 0.478729 0.877863 
0.0413363 0.683217 0.729044 
-0.0388201 0.930401 0.364481 
-0.0365373 0.74693 -0.663898 
-0.0570605 0.649071 -0.758585 
-0.0064068 0.479231 -0.877666 
-0.0677295 0.292546 -0.95385 
-0.0312835 0.231523 -0.972326 
-0.0263879 0.170677 -0.984974 
-0.00697511 0.143552 -0.989618 
-0.00471273 0.100959 -0.99488 
-0.000363244 0.0682967 -0.997665 
0.000750016 0.0455578 -0.998962 
3.36743e-05 0.0292137 -0.999573 
-0.000572596 0.0185425 -0.999828 
-0.00064488 0.0117788 -0.999931 
-0.000809504 0.00649687 -0.999979 
-0.000912196 0.00283019 -0.999996 
-0.00110315 0.000176412 -0.999999 
-0.00121179 -0.00175785 -0.999998 
-0.00126336 -0.00303733 -0.999995 
-0.00130849 -0.00388144 -0.999992 
-0.00138925 -0.00428394 -0.99999 
-0.00132338 -0.00448437 -0.999989 
-0.00122904 -0.00451001 -0.999989 
-0.0010542 -0.00440314 -0.99999 
-0.00087968 -0.00419924 -0.999991 
-0.000667287 -0.00387843 -0.999992 
-0.000489098 -0.00352558 -0.999994 
-0.00032643 -0.00311889 -0.999995 
-0.00020832 -0.00271954 -0.999996 
-0.00013285 -0.00237178 -0.999997 
-8.56879e-05 -0.00205827 -0.999998 
-6.1415e-05 -0.00183058 -0.999998 
-4.23565e-05 -0.00165968 -0.999999 
-3.11247e-05 -0.0015274 -0.999999 
-1.33531e-05 -0.00144348 -0.999999 
1.701e-05 -0.00137437 -0.999999 
4.32177e-05 -0.00133325 -0.999999 
8.83253e-05 -0.00133019 -0.999999 
0.000148613 -0.00132179 -0.999999 
0.000242036 -0.00128411 -0.999999 
-0.00022971 -0.00134525 0.999999 
-0.000157971 -0.00139228 0.999999 
-0.000111272 -0.00137307 0.999999 
-6.8952e-05 -0.00137087 0.999999 
-4.40344e-05 -0.00142283 0.999999 
-1.8071e-06 -0.00146474 0.999999 
3.72979e-06 -0.00156183 0.999999 
1.8111e-05 -0.00171129 0.999999 
3.50476e-05 -0.00189907 0.999998 
6.29905e-05 -0.00218159 0.999998 
0.000109876 -0.00250949 0.999997 
0.000185487 -0.00290903 0.999996 
0.000322765 -0.00330847 0.999995 
0.000494278 -0.00373008 0.999993 
0.000706549 -0.0040601 0.999992 
0.00095834 -0.00435402 0.99999 
0.00120203 -0.00450641 0.999989 
0.00141819 -0.0045178 0.999989 
0.00158705 -0.00436042 0.999989 
0.00172855 -0.00401661 0.999991 
0.00183845 -0.00343097 0.999993 
0.0019232 -0.00257626 0.999995 
0.00195577 -0.00136075 0.999997 
0.00203633 0.00035259 0.999998 
0.00210713 0.00278193 0.999994 
0.00229894 0.00613172 0.999979 
0.00248629 0.0108609 0.999938 
0.00288405 0.0179178 0.999835 
0.00360216 0.0288741 0.999577 
0.00563664 0.0440076 0.999015 
0.00947415 0.0671809 0.997696 
0.0200678 0.0897247 0.995765 
0.024372 0.125895 0.991744 
0.0446838 0.164825 0.98531 
0.0534188 0.224546 0.972998 
0.121943 0.272308 0.954452 
0.116704 0.426992 0.896693 
0.0702102 0.51753 0.85278 
0.00522109 0.936445 0.350757 
-0.0623582 0.959579 -0.274438 
-0.121766 0.721393 -0.681737 
-0.0493908 0.535306 -0.843213 
-0.0542311 0.410387 -0.910297 
-0.118535 0.293255 -0.948657 
-0.0765861 0.203222 -0.976133 
-0.0541657 0.145508 -0.987873 
-0.0274634 0.10958 -0.993599 
-0.0142864 0.07747 -0.996892 
-0.0072498 0.0541834 -0.998505 
-0.00408505 0.037345 -0.999294 
-0.00341986 0.0244324 -0.999696 
-0.0031341 0.0157297 -0.999871 
-0.00238825 0.00978498 -0.999949 
-0.00218574 0.00528379 -0.999984 
-0.0020387 0.0021725 -0.999996 
-0.00195331 -0.000242958 -0.999998 
-0.0019437 -0.00184939 -0.999997 
-0.001812 -0.00303426 -0.999994 
-0.00175076 -0.00378656 -0.999991 
-0.00166427 -0.00426832 -0.99999 
-0.00151697 -0.00450708 -0.999989 
-0.00131729 -0.00458027 -0.999989 
-0.00110276 -0.00450587 -0.999989 
-0.000864348 -0.00428611 -0.999991 
-0.00064317 -0.00398188 -0.999992 
-0.000438589 -0.00358751 -0.999994 
-0.000279464 -0.00315704 -0.999995 
-0.000170931 -0.00274471 -0.999996 
-9.58629e-05 -0.0023459 -0.999997 
-5.57647e-05 -0.00204684 -0.999998 
-3.32961e-05 -0.00181734 -0.999998 
-1.38447e-05 -0.00162366 -0.999999 
-1.69703e-06 -0.00151807 -0.999999 
1.58593e-05 -0.00143763 -0.999999 
4.6226e-05 -0.00139817 -0.999999 
6.19174e-05 -0.00136499 -0.999999 
9.80199e-05 -0.00136961 -0.999999 
0.000139316 -0.00137135 -0.999999 
0.000217867 -0.00134856 -0.999999 
-0.000133675 -0.00140316 0.999999 
-0.000133672 -0.00144906 0.999999 
-8.79828e-05 -0.00139614 0.999999 
-6.86564e-05 -0.00140627 0.999999 
-5.33873e-05 -0.00145039 0.999999 
-2.94613e-05 -0.00148512 0.999999 
-3.30314e-05 -0.00153993 0.999999 
-1.18571e-05 -0.00163626 0.999999 
1.023e-06 -0.00180985 0.999998 
2.4026e-05 -0.00203896 0.999998 
5.40483e-05 -0.00235498 0.999997 
0.000107469 -0.0027243 0.999996 
0.000213814 -0.00321615 0.999995 
0.000351342 -0.00363524 0.999993 
0.000548925 -0.00406999 0.999992 
0.000788354 -0.00437674 0.99999 
0.00106707 -0.00460698 0.999989 
0.00134053 -0.00466847 0.999988 
0.00159964 -0.00455565 0.999988 
0.00182473 -0.00427011 0.999989 
0.0020355 -0.00376394 0.999991 
0.00224097 -0.00301795 0.999993 
0.00243579 -0.0019798 0.999995 
0.00264402 -0.000611316 0.999996 
0.0029067 0.00134172 0.999995 
0.0032961 0.00397906 0.999987 
0.00390681 0.0077581 0.999962 
0.00484531 0.0131215 0.999902 
0.00657927 0.0215087 0.999747 
0.0101293 0.0332514 0.999396 
0.0162366 0.0503293 0.998601 
0.0290427 0.0700301 0.997122 
0.0445174 0.100928 0.993897 
0.0700321 0.126097 0.989543 
0.0886919 0.174597 0.980637 
0.121005 0.21097 0.969974 
0.163034 0.363888 0.917064 
0.129917 0.625996 0.768928 
0.0882053 0.749346 0.656276 
-0.00972031 0.993252 0.115558 
-0.105589 0.834197 -0.541264 
-0.126086 0.505969 -0.853286 
-0.131013 0.390174 -0.911372 
-0.134463 0.208647 -0.968703 
-0.0983893 0.143896 -0.98469 
-0.0768491 0.0980079 -0.992214 
-0.0497777 0.0949633 -0.994236 
-0.0300147 0.0723308 -0.996929 
-0.0183116 0.0532436 -0.998414 
-0.0113477 0.0375601 -0.99923 
-0.00781113 0.0260177 -0.999631 
-0.0060128 0.0170095 -0.999837 
-0.00443535 0.0104603 -0.999936 
-0.00355001 0.00620134 -0.999975 
-0.00307922 0.00281294 -0.999991 
-0.00269481 0.000420446 -0.999996 
-0.00251157 -0.00134287 -0.999996 
-0.002261 -0.0026781 -0.999994 
-0.0020752 -0.00354871 -0.999992 
-0.00188072 -0.00414601 -0.99999 
-0.00165746 -0.0045331 -0.999988 
-0.00140751 -0.00469708 -0.999988 
-0.00114727 -0.00470346 -0.999988 
-0.00089592 -0.00452834 -0.999989 
-0.000651479 -0.00424631 -0.999991 
-0.000449258 -0.00385894 -0.999993 
-0.000283159 -0.0034059 -0.999994 
-0.000166537 -0.00294977 -0.999996 
-9.27723e-05 -0.00252814 -0.999997 
-4.45632e-05 -0.0021719 -0.999998 
-1.71626e-05 -0.00190219 -0.999998 
-8.68276e-07 -0.00169873 -0.999999 
1.95838e-05 -0.00155297 -0.999999 
3.11133e-05 -0.00147046 -0.999999 
5.55974e-05 -0.00141871 -0.999999 
7.6387e-05 -0.00138604 -0.999999 
9.91294e-05 -0.00139128 -0.999999 
0.000137774 -0.00142136 -0.999999 
0.000150256 -0.00139661 -0.999999 
-5.77106e-05 -0.00141472 0.999999 
-6.84511e-05 -0.00143337 0.999999 
-0.00010399 -0.00140769 0.999999 
-7.41604e-05 -0.00140024 0.999999 
-6.58719e-05 -0.00141731 0.999999 
-4.90035e-05 -0.00150208 0.999999 
-3.3893e-05 -0.00161503 0.999999 
-1.98894e-05 -0.00173657 0.999999 
9.45589e-07 -0.00196846 0.999998 
2.66798e-05 -0.00223476 0.999998 
6.72882e-05 -0.00260472 0.999997 
0.000137925 -0.00304819 0.999995 
0.000243228 -0.003541 0.999994 
0.000391092 -0.00397654 0.999992 
0.000599522 -0.00439332 0.99999 
0.000846885 -0.00466184 0.999989 
0.00112357 -0.00482866 0.999988 
0.00141442 -0.00481478 0.999988 
0.00168485 -0.00463381 0.999988 
0.0019467 -0.00425638 0.999989 
0.00220037 -0.00367731 0.999991 
0.00246195 -0.00286456 0.999993 
0.00273464 -0.00184283 0.999995 
0.00305469 -0.00047263 0.999995 
0.00347944 0.00128296 0.999993 
0.0041003 0.00369555 0.999985 
0.00508023 0.00686769 0.999964 
0.0066323 0.0115894 0.999911 
0.00931537 0.018165 0.999792 
0.0141114 0.0272586 0.999529 
0.0218417 0.0395659 0.998978 
0.037615 0.0548061 0.997788 
0.0585207 0.0782738 0.995213 
0.0882616 0.0829655 0.992636 
0.113975 0.124031 0.985711 
0.152829 0.12763 0.979977 
0.222205 0.299534 0.927849 
0.175784 0.543039 0.821102 
0.110268 0.851364 0.512854 
-0.0190199 0.999517 -0.0245331 
-0.145661 0.881405 -0.449343 
-0.256472 0.540349 -0.801401 
-0.199342 0.295136 -0.934429 
-0.195147 0.179767 -0.964159 
-0.138079 0.110721 -0.984213 
-0.0778677 0.0680244 -0.99464 
-0.0444841 0.0587709 -0.99728 
-0.0288968 0.0451569 -0.998562 
-0.0188185 0.0346915 -0.999221 
-0.0128092 0.0248135 -0.99961 
-0.00926907 0.0172884 -0.999808 
-0.00649674 0.0113174 -0.999915 
-0.00496506 0.00676898 -0.999965 
-0.00400488 0.0037774 -0.999985 
-0.00336958 0.00124412 -0.999994 
-0.00297528 -0.000524298 -0.999996 
-0.00263238 -0.00204264 -0.999995 
-0.00236953 -0.00308676 -0.999993 
-0.00211705 -0.0038513 -0.99999 
-0.00185666 -0.00438973 -0.999989 
-0.0015635 -0.00475521 -0.999988 
-0.00129219 -0.0048871 -0.999987 
-0.00101093 -0.00485109 -0.999988 
-0.00076866 -0.00464551 -0.999989 
-0.000541886 -0.00432455 -0.999991 
-0.000363358 -0.00389084 -0.999992 
-0.000224807 -0.00341435 -0.999994 
-0.000129395 -0.00293608 -0.999996 
-6.87501e-05 -0.00251019 -0.999997 
-2.82606e-05 -0.00215394 -0.999998 
-9.92999e-07 -0.00187302 -0.999998 
1.71644e-05 -0.00168086 -0.999999 
3.46423e-05 -0.00155646 -0.999999 
4.6947e-05 -0.0014738 -0.999999 
6.0003e-05 -0.00142135 -0.999999 
7.2916e-05 -0.00139468 -0.999999 
7.7055e-05 -0.00139643 -0.999999 
9.40942e-05 -0.00142958 -0.999999 
8.46296e-05 -0.0014114 -0.999999 
1.06376e-05 -0.00137943 0.999999 
-1.50125e-05 -0.0014131 0.999999 
-6.54986e-05 -0.00140308 0.999999 
-4.90433e-05 -0.00139437 0.999999 
-5.5558e-05 -0.00144177 0.999999 
-4.22796e-05 -0.00149641 0.999999 
-3.81764e-05 -0.00158402 0.999999 
-2.02719e-05 -0.0017215 0.999999 
-6.62063e-06 -0.0018889 0.999998 
2.19963e-05 -0.00216079 0.999998 
5.4037e-05 -0.00248517 0.999997 
0.00010739 -0.0029454 0.999996 
0.000182589 -0.00342589 0.999994 
0.000297423 -0.00393322 0.999992 
0.000456119 -0.00437178 0.99999 
0.000671621 -0.00474281 0.999989 
0.000916276 -0.00495598 0.999987 
0.00119677 -0.00501936 0.999987 
0.00146822 -0.00490068 0.999987 
0.00174266 -0.00458611 0.999988 
0.00200668 -0.00407525 0.99999 
0.00227659 -0.00335563 0.999992 
0.00255466 -0.00244852 0.999994 
0.00290274 -0.00131309 0.999995 
0.00333281 5.58129e-05 0.999995 
0.00397067 0.00183177 0.999991 
0.0049433 0.00408476 0.99998 
0.00656811 0.00730845 0.999952 
0.00921777 0.0116015 0.99989 
0.0137555 0.0173998 0.999754 
0.02134 0.0247111 0.999467 
0.0335299 0.0346318 0.998838 
0.0571262 0.0466379 0.997277 
0.08319 0.0402398 0.995721 
0.123949 0.0583469 0.990572 
0.194998 0.0960623 0.976088 
0.181444 0.205503 0.961689 
0.292515 0.405439 0.866057 
0.235679 0.481926 0.843921 
0.0103486 0.969836 0.243538 
-0.158401 0.612734 -0.774252 
-0.224809 0.421506 -0.878518 
-0.283682 0.233998 -0.92993 
-0.144866 0.0474996 -0.988311 
-0.105178 0.055047 -0.992929 
-0.0719304 0.0251014 -0.997094 
-0.0561668 0.0410904 -0.997576 
-0.0377376 0.0333016 -0.998733 
-0.024694 0.0266146 -0.999341 
-0.0168764 0.0205764 -0.999646 
-0.0117537 0.0146137 -0.999824 
-0.00805254 0.0102846 -0.999915 
-0.00575831 0.00629306 -0.999964 
-0.00435731 0.00319379 -0.999986 
-0.00359205 0.00121184 -0.999993 
-0.00303172 -0.00059783 -0.999995 
-0.00268594 -0.00188917 -0.999995 
-0.00234986 -0.00303544 -0.999993 
-0.00207997 -0.00384772 -0.999991 
-0.00180741 -0.00444307 -0.999989 
-0.00152856 -0.00484383 -0.999987 
-0.00122259 -0.00505727 -0.999987 
-0.000969542 -0.0050462 -0.999987 
-0.000719182 -0.00486022 -0.999988 
-0.000518643 -0.00454842 -0.99999 
-0.000352008 -0.00410141 -0.999992 
-0.000228129 -0.00361213 -0.999994 
-0.000139137 -0.00310382 -0.999995 
-7.91371e-05 -0.00263442 -0.999997 
-4.05067e-05 -0.00226312 -0.999998 
-1.02345e-05 -0.00194144 -0.999998 
1.35931e-05 -0.00171755 -0.999999 
2.96794e-05 -0.00157045 -0.999999 
4.50222e-05 -0.00147355 -0.999999 
4.56862e-05 -0.00142082 -0.999999 
5.6067e-05 -0.00139398 -0.999999 
4.52139e-05 -0.00139019 -0.999999 
5.1317e-05 -0.0014218 -0.999999 
2.54683e-05 -0.00139449 -0.999999 
7.27898e-05 -0.0013619 0.999999 
3.77841e-05 -0.00138619 0.999999 
-3.05813e-05 -0.00138844 0.999999 
-1.45781e-05 -0.00138256 0.999999 
-3.60503e-05 -0.00142317 0.999999 
-2.06707e-05 -0.00149743 0.999999 
-1.82996e-05 -0.0016108 0.999999 
1.78866e-06 -0.00176539 0.999999 
1.64144e-05 -0.00196719 0.999998 
4.76014e-05 -0.00225728 0.999998 
7.98849e-05 -0.00265198 0.999997 
0.000128257 -0.00311711 0.999995 
0.000195798 -0.00362791 0.999994 
0.000290515 -0.00413487 0.999992 
0.000432155 -0.00459083 0.999989 
0.0006018 -0.0049298 0.999988 
0.00082883 -0.00514328 0.999987 
0.00106139 -0.00517824 0.999986 
0.00129942 -0.0050171 0.999987 
0.00155061 -0.00466854 0.999988 
0.00180501 -0.00410814 0.99999 
0.00205034 -0.0033712 0.999992 
0.00231916 -0.00246272 0.999994 
0.0026674 -0.00142925 0.999996 
0.00315588 -0.00020038 0.999995 
0.00386926 0.00122628 0.999992 
0.00502981 0.00301823 0.999983 
0.00683624 0.00517524 0.999963 
0.00981967 0.0080345 0.99992 
0.0146591 0.0113969 0.999828 
0.0221988 0.0148321 0.999644 
0.0354262 0.0214767 0.999142 
0.0527607 0.0212832 0.99838 
0.0718126 0.00516102 0.997405 
0.114034 0.0111779 0.993414 
0.179446 0.0315994 0.98326 
0.262994 0.189176 0.946069 
0.3505 0.274169 0.895534 
0.243095 0.703897 0.667409 
0.0152341 0.989043 0.146849 
-0.24 0.72294 -0.647886 
-0.355747 0.333349 -0.873111 
-0.20933 0.0783231 -0.974703 
-0.151641 0.0030139 -0.988431 
-0.0931402 0.00762789 -0.995624 
-0.0544873 -0.000603581 -0.998514 
-0.0460656 0.0160293 -0.99881 
-0.0317164 0.0170556 -0.999351 
-0.0220478 0.0142761 -0.999655 
-0.0154882 0.0119022 -0.999809 
-0.0102273 0.00890555 -0.999908 
-0.00708492 0.00631572 -0.999955 