# vtk DataFile Version 3.0 
Exported using Morpho https://github.com/Morpho-lang/morpho 
ASCII 
DATASET UNSTRUCTURED_GRID 

POINTS 1978 float 
-8.48528 -2.82843 -3.04041e-21 
-8.25374 -2.82843 6.19833e-23 
-8.0261 -2.82843 1.13774e-21 
-7.79538 -2.82843 1.74279e-21 
-7.49889 -2.82843 7.54987e-22 
-7.25327 -2.82843 7.10348e-22 
-6.99763 -2.82843 3.96476e-22 
-6.77492 -2.82843 1.16734e-21 
-6.55962 -2.82843 -7.45687e-22 
-6.3532 -2.82843 2.4424e-22 
-6.13308 -2.82843 3.43123e-21 
-5.92767 -2.82843 4.57237e-21 
-5.71281 -2.82843 7.28441e-21 
-5.52216 -2.82843 1.3231e-20 
-5.28725 -2.82843 1.94988e-20 
-5.08345 -2.82843 2.32361e-20 
-4.87218 -2.82843 2.40431e-20 
-4.66182 -2.82843 1.76271e-20 
-4.44589 -2.82843 -5.50247e-23 
-4.23313 -2.82843 -2.39291e-20 
-4.02218 -2.82843 -4.88185e-20 
-3.82256 -2.82843 -6.96503e-20 
-3.61463 -2.82843 -6.88738e-20 
-3.4049 -2.82843 -4.37787e-20 
-3.18564 -2.82843 9.57039e-21 
-2.96703 -2.82843 -6.05241e-21 
-2.73559 -2.82843 -4.46881e-19 
-2.49736 -2.82843 -3.08557e-18 
-2.25603 -2.82843 -1.6443e-17 
-2.01042 -2.82843 -7.74806e-17 
-1.76011 -2.82843 -2.12126e-16 
-1.57251 -2.82843 -7.34649e-16 
-1.358 -2.82843 -2.11781e-15 
-1.18027 -2.82843 -3.31049e-15 
-1.05061 -2.82843 -8.45534e-15 
-0.876178 -2.82843 -1.34678e-14 
-0.721182 -2.82843 1.31607e-14 
-0.615208 -2.82843 1.45753e-14 
-0.412862 -2.82843 2.78824e-13 
0.244982 -2.82843 -1.93508e-12 
0.411802 -2.82843 -4.97388e-13 
0.618035 -2.82843 -1.667e-14 
0.747293 -2.82843 -1.2299e-14 
0.89553 -2.82843 6.4817e-15 
1.04276 -2.82843 2.68433e-15 
1.1869 -2.82843 1.72406e-15 
1.38582 -2.82843 1.33382e-15 
1.57745 -2.82843 3.99287e-16 
1.81737 -2.82843 1.77172e-16 
2.07143 -2.82843 4.65607e-17 
2.30198 -2.82843 9.41079e-18 
2.53842 -2.82843 2.2317e-18 
2.76967 -2.82843 4.02534e-19 
2.99809 -2.82843 3.66971e-20 
3.20524 -2.82843 -6.83882e-20 
3.41108 -2.82843 1.12337e-19 
3.61187 -2.82843 4.20338e-20 
3.81447 -2.82843 6.43788e-20 
4.0256 -2.82843 4.63602e-20 
4.24592 -2.82843 1.51398e-20 
4.44775 -2.82843 -5.31758e-21 
4.65904 -2.82843 -1.71664e-20 
4.86108 -2.82843 -2.49625e-20 
5.07623 -2.82843 -2.35396e-20 
5.2815 -2.82843 -2.07381e-20 
5.50117 -2.82843 -1.47866e-20 
5.7081 -2.82843 -8.19967e-21 
5.92632 -2.82843 -5.04199e-21 
6.15172 -2.82843 -2.98308e-21 
6.36019 -2.82843 -5.32874e-22 
6.59028 -2.82843 -3.01861e-22 
6.80749 -2.82843 -1.07794e-21 
7.01031 -2.82843 -1.24587e-22 
7.29138 -2.82843 -6.11494e-22 
7.51195 -2.82843 -1.05666e-21 
7.75044 -2.82843 -5.83309e-22 
8.03518 -2.82843 -1.75208e-21 
8.22606 -2.82843 5.90912e-23 
8.48528 -2.82843 4.76374e-21 
-8.48528 -2.58338 -6.82459e-21 
-8.25897 -2.59244 9.18521e-21 
-8.02961 -2.58394 -3.04849e-23 
-7.78242 -2.59853 -2.35753e-23 
-7.53919 -2.64775 -6.2209e-23 
-7.25388 -2.61418 -1.11462e-22 
-6.99641 -2.60384 -2.30002e-22 
-6.76944 -2.59404 -3.86574e-22 
-6.54323 -2.58597 -7.31148e-22 
-6.31129 -2.60126 -1.45675e-21 
-6.08813 -2.58508 -2.68849e-21 
-5.86834 -2.59354 -4.91184e-21 
-5.66554 -2.56264 -7.6046e-21 
-5.44214 -2.61333 -1.10769e-20 
-5.22689 -2.58143 -1.47451e-20 
-5.01239 -2.59109 -1.63766e-20 
-4.79665 -2.59106 -1.45782e-20 
-4.57902 -2.59818 -9.27456e-21 
-4.36115 -2.59542 -2.0722e-21 
-4.14532 -2.5945 4.32318e-21 
-3.9376 -2.58212 9.99552e-21 
-3.72955 -2.59112 7.10561e-21 
-3.5158 -2.59009 1.86558e-21 
-3.29662 -2.59617 3.94546e-20 
-3.0723 -2.5894 2.43033e-19 
-2.84304 -2.59754 1.00041e-18 
-2.60333 -2.59981 3.74847e-18 
-2.35848 -2.60205 1.51577e-17 
-2.11059 -2.60917 8.82802e-17 
-1.86187 -2.62721 3.81831e-16 
-1.63623 -2.58049 5.03573e-16 
-1.44829 -2.63318 1.61328e-15 
-1.25136 -2.62883 4.70652e-15 
-1.09449 -2.59265 1.09425e-14 
-0.957921 -2.68038 2.35526e-14 
-0.875911 -2.53389 9.12159e-15 
-0.789157 -2.67973 5.23341e-14 
-0.53695 -2.74454 5.62283e-14 
-0.348713 -2.73725 1.33807e-13 
0.103479 -2.8048 5.22798e-13 
0.285044 -2.73946 4.10195e-14 
0.543282 -2.74716 -1.42647e-13 
0.811836 -2.6808 -4.26087e-14 
0.872316 -2.52829 -1.6766e-14 
0.968921 -2.6535 -2.36287e-14 
1.10879 -2.60033 -9.84195e-15 
1.28705 -2.63934 -3.75594e-15 
1.48997 -2.6032 -1.0575e-15 
1.71522 -2.62717 -2.96854e-16 
1.97711 -2.62561 -1.80353e-16 
2.23727 -2.59932 -4.48943e-17 
2.47666 -2.60202 -9.28143e-18 
2.72346 -2.59695 -2.60315e-18 
2.96319 -2.59804 -7.11039e-19 
3.19765 -2.57997 -9.23672e-20 
3.41308 -2.57759 -7.94773e-20 
3.62781 -2.58505 2.69703e-20 
3.84666 -2.59527 5.7106e-21 
4.07297 -2.6047 1.09792e-21 
4.28431 -2.58409 1.79347e-21 
4.49829 -2.59432 8.68194e-21 
4.70753 -2.58303 1.22086e-20 
4.92298 -2.59716 1.63697e-20 
5.13588 -2.58569 1.57537e-20 
5.35569 -2.60111 1.37624e-20 
5.57125 -2.58565 9.463e-21 
5.78952 -2.59625 6.09179e-21 
6.01704 -2.60162 3.41285e-21 
6.23688 -2.58017 1.76195e-21 
6.45998 -2.60133 9.76997e-22 
6.68684 -2.58533 5.24402e-22 
6.89826 -2.56647 2.98359e-22 
7.13557 -2.6384 1.39553e-22 
7.38107 -2.58422 7.01761e-23 
7.61058 -2.60212 3.39129e-23 
7.87422 -2.63821 1.47386e-23 
8.08328 -2.54431 2.31247e-24 
8.30722 -2.6177 -1.0675e-20 
8.48528 -2.52146 6.20518e-21 
-8.48528 -2.34463 1.58713e-21 
-8.2494 -2.35216 -6.07971e-22 
-8.01152 -2.34984 5.73682e-23 
-7.77023 -2.38379 1.51815e-23 
-7.55711 -2.23208 9.94319e-24 
-7.49695 -2.44406 -5.16173e-23 
-7.21171 -2.41287 -1.10175e-22 
-6.97918 -2.36385 -1.92724e-22 
-6.74366 -2.36507 -3.45133e-22 
-6.50036 -2.36363 -6.12231e-22 
-6.26907 -2.37008 -1.1004e-21 
-6.03741 -2.35217 -2.12332e-21 
-5.82926 -2.33706 -3.8167e-21 
-5.58204 -2.35526 -7.49565e-21 
-5.37357 -2.36667 -1.05509e-20 
-5.1426 -2.3517 -1.31019e-20 
-4.92193 -2.35919 -1.24661e-20 
-4.69772 -2.36452 -7.76555e-21 
-4.4779 -2.36856 1.58017e-21 
-4.25584 -2.36562 1.2553e-20 
-4.04312 -2.35008 2.31096e-20 
-3.82792 -2.34848 2.95315e-20 
-3.61692 -2.35692 3.39088e-20 
-3.3964 -2.36089 4.83394e-20 
-3.17623 -2.36041 1.32135e-19 
-2.9448 -2.35996 5.04596e-19 
-2.71367 -2.36956 1.95649e-18 
-2.47357 -2.37329 7.60957e-18 
-2.22859 -2.38212 4.39872e-17 
-1.9806 -2.40157 1.77593e-16 
-1.75867 -2.39046 5.5678e-16 
-1.523 -2.36993 6.58163e-16 
-1.34311 -2.43241 1.39377e-15 
-1.16691 -2.39745 1.96231e-15 
-0.982215 -2.43479 3.09839e-15 
-0.789845 -2.34164 -6.76707e-15 
-0.732442 -2.4932 7.30507e-16 
-0.6624 -2.64141 1.46641e-13 
-0.474466 -2.65371 1.80799e-13 
-0.195114 -2.87166 4.74024e-13 
0.407135 -2.71131 -1.2521e-13 
0.486841 -2.61978 -7.2039e-14 
0.685157 -2.67553 -9.36619e-14 
0.840786 -2.36103 1.10652e-14 
1.00467 -2.42089 -2.26929e-15 
1.14083 -2.33934 -5.65908e-16 
1.27337 -2.43231 -1.16329e-15 
1.45757 -2.3819 -6.26476e-16 
1.67945 -2.40936 -2.59235e-16 
1.91647 -2.42459 -1.878e-16 
2.17442 -2.39621 -5.22074e-17 
2.43099 -2.36621 -9.42687e-18 
2.66205 -2.37407 -2.53181e-18 
2.9058 -2.36838 -7.20073e-19 
3.13674 -2.3571 -1.94337e-19 
3.3641 -2.34039 -6.5515e-20 
3.58635 -2.34147 -4.05309e-20 
3.79639 -2.36144 -4.49651e-20 
4.01511 -2.37888 -3.08653e-20 
4.22932 -2.35112 -1.34025e-20 
4.44469 -2.35646 -1.30884e-21 
4.65192 -2.34622 7.24158e-21 
4.86681 -2.3594 1.16847e-20 
5.0763 -2.35232 1.38323e-20 
5.29684 -2.36713 1.19316e-20 
5.51022 -2.35425 8.92627e-21 
5.7317 -2.35877 5.45235e-21 
5.95159 -2.37334 2.98773e-21 
6.17238 -2.35037 1.59348e-21 
6.40337 -2.35936 7.89373e-22 
6.62028 -2.35685 4.2211e-22 
6.84245 -2.31786 2.49243e-22 
7.07387 -2.39198 1.60266e-22 
7.29051 -2.38589 9.09997e-23 
7.55219 -2.35808 3.11094e-23 
7.78542 -2.41917 7.21225e-24 
7.99487 -2.32449 -4.03947e-23 
8.24901 -2.35141 1.81362e-21 
8.48528 -2.29235 -1.84692e-21 
-8.48528 -2.11295 -3.51326e-21 
-8.25307 -2.10693 3.42439e-21 
-8.03926 -2.11144 8.24008e-23 
-7.79756 -2.14495 4.64799e-23 
-7.51217 -2.02316 3.43742e-23 
-7.30232 -2.22987 -3.29445e-23 
-7.05893 -2.14666 6.44047e-25 
-6.81173 -2.13354 -2.53573e-24 
-6.5869 -2.14373 1.4318e-23 
-6.34972 -2.13843 3.13245e-24 
-6.13104 -2.13031 -3.75126e-24 
-5.91509 -2.09142 -1.83618e-22 
-5.69183 -2.13588 -1.01227e-21 
-5.47218 -2.1132 -2.15256e-21 
-5.26333 -2.13546 -3.64754e-21 
-5.03787 -2.12441 -4.9413e-21 
-4.81995 -2.13393 -4.83855e-21 
-4.60405 -2.1349 -2.04285e-21 
-4.38981 -2.14039 4.18073e-21 
-4.18082 -2.12469 1.37843e-20 
-3.96834 -2.11657 2.6912e-20 
-3.75825 -2.11367 4.31599e-20 
-3.54567 -2.12854 5.6845e-20 
-3.32947 -2.12618 5.61763e-20 
-3.10499 -2.13209 3.04924e-20 
-2.87547 -2.12769 -1.93942e-20 
-2.6429 -2.14018 1.47104e-20 
-2.40018 -2.14845 6.74266e-19 
-2.1508 -2.16643 3.71079e-18 
-1.92053 -2.16359 1.5185e-17 
-1.69155 -2.17814 1.03271e-16 
-1.4944 -2.12041 -3.15999e-16 
-1.31857 -2.20423 4.48156e-16 
-1.13302 -2.18574 -1.00818e-16 
-0.96622 -2.26313 -3.68671e-16 
-0.751644 -2.18708 1.37627e-14 
-0.597281 -2.40872 1.00258e-14 
-0.57002 -2.54674 -9.96024e-14 
-0.229394 -2.79246 -1.16329e-13 
0.150909 -2.70281 -2.33659e-13 
0.356008 -2.57443 -6.74264e-14 
0.604616 -2.58262 -6.85252e-14 
0.730065 -2.50314 -2.69847e-14 
0.745091 -2.22362 -5.55632e-15 
0.941815 -2.21302 2.36442e-15 
1.11812 -2.14083 4.33291e-16 
1.32913 -2.1724 2.33985e-16 
1.55213 -2.17881 -1.07136e-16 
1.77756 -2.19407 -9.64447e-17 
2.01131 -2.20209 -4.24165e-17 
2.25649 -2.16814 -6.15658e-18 
2.49331 -2.12557 -7.16201e-19 
2.72785 -2.14817 -3.31752e-19 
2.9614 -2.13319 -5.93873e-20 
3.18687 -2.12268 -5.16646e-20 
3.41523 -2.11258 -6.19263e-20 
3.62928 -2.10382 -5.23816e-20 
3.845 -2.13662 -3.66672e-20 
4.0536 -2.14065 -1.91405e-20 
4.27308 -2.12112 -6.99376e-21 
4.47875 -2.1142 -5.87837e-23 
4.69534 -2.11715 3.4446e-21 
4.90298 -2.11891 4.87241e-21 
5.1252 -2.12831 4.43427e-21 
5.33599 -2.12806 3.31176e-21 
5.55804 -2.12546 1.56837e-21 
5.7795 -2.1287 6.49926e-22 
5.99488 -2.13525 1.78324e-22 
6.2301 -2.12759 -2.19918e-23 
6.44723 -2.11533 -4.93036e-23 
6.66317 -2.1114 -3.91518e-23 
6.92095 -2.11171 -2.31757e-23 
7.12893 -2.14232 -1.27993e-23 
7.36883 -2.17242 -1.55192e-23 
7.56937 -2.08091 -3.56142e-23 
7.75888 -2.17681 -3.44008e-23 
7.972 -2.0808 -4.09617e-23 
8.19879 -2.13371 -2.14913e-21 
8.48528 -2.10287 2.36761e-21 
-8.48528 -1.80321 -6.20434e-22 
-8.31618 -1.87074 7.29848e-23 
-7.89861 -1.90291 3.61385e-23 
[...]
POINT_DATA 1978 
VECTORS vectors float
6.02881e-06 -0.000187108 1 
-4.89951e-08 -0.00119123 0.999999 
-4.30088e-07 -0.00125518 0.999999 
1.96981e-07 -0.00129449 0.999999 
-7.47806e-08 -0.0013808 0.999999 
9.04655e-09 -0.00147395 0.999999 
-4.98416e-10 -0.00157842 0.999999 
6.79691e-08 -0.00171714 0.999999 
6.91437e-08 -0.00187923 0.999998 
1.18015e-07 -0.00207877 0.999998 
1.10644e-07 -0.00234542 0.999997 
2.5696e-07 -0.00264131 0.999997 
2.17819e-07 -0.0029914 0.999996 
3.1038e-07 -0.00331871 0.999994 
1.87404e-07 -0.00372122 0.999993 
4.22534e-07 -0.00404579 0.999992 
3.70191e-07 -0.00435022 0.999991 
3.97373e-07 -0.00458201 0.99999 
3.20079e-07 -0.00470965 0.999989 
3.12589e-07 -0.00468095 0.999989 
2.40977e-07 -0.00444453 0.99999 
-1.04466e-08 -0.00390633 0.999992 
-2.82665e-07 -0.00288284 0.999996 
-6.62764e-07 -0.00126049 0.999999 
-6.74264e-07 0.00109698 0.999999 
-7.14685e-07 0.00412288 0.999992 
-7.89309e-07 0.00819642 0.999966 
-4.30299e-08 0.0138835 0.999904 
1.82289e-06 0.0225532 0.999746 
-2.68806e-07 0.0364338 0.999336 
4.72576e-06 0.0584182 0.998292 
-3.68686e-05 0.0837051 0.996491 
-3.71206e-05 0.125933 0.992039 
-9.25138e-05 0.179098 0.983831 
-0.000181951 0.235703 0.971825 
-0.000180926 0.333112 0.942887 
-9.62437e-05 0.444067 0.895993 
-0.000393992 0.540719 0.841203 
0.000202892 0.802066 0.597235 
1.00059e-05 0.938632 -0.344921 
0.000343048 0.748889 -0.662695 
6.68231e-05 0.531497 -0.84706 
0.000409873 0.425578 -0.904922 
-5.96915e-05 0.316424 -0.948618 
0.00028537 0.241114 -0.970497 
2.20377e-05 0.177772 -0.984072 
7.68042e-05 0.116259 -0.993219 
1.43669e-06 0.0809898 -0.996715 
-7.14421e-06 0.0519462 -0.99865 
-5.49582e-07 0.0328052 -0.999462 
8.6356e-07 0.0219536 -0.999759 
7.45547e-07 0.0142617 -0.999898 
1.06022e-06 0.00849743 -0.999964 
8.77901e-07 0.00406787 -0.999992 
1.2621e-06 0.000985112 -1 
8.59763e-07 -0.00138361 -0.999999 
6.18774e-07 -0.0030035 -0.999995 
6.04323e-08 -0.0041265 -0.999991 
-2.6415e-07 -0.00468154 -0.999989 
-4.59878e-07 -0.0048117 -0.999988 
-4.73008e-07 -0.00476095 -0.999989 
-4.15257e-07 -0.00460975 -0.999989 
-4.14415e-07 -0.00439523 -0.99999 
-3.89515e-07 -0.00408541 -0.999992 
-3.15378e-07 -0.00374272 -0.999993 
-2.7453e-07 -0.00335062 -0.999994 
-2.02948e-07 -0.00298682 -0.999996 
-1.24833e-07 -0.00263245 -0.999997 
-1.00566e-07 -0.0023103 -0.999997 
-7.99515e-08 -0.00205691 -0.999998 
-5.69696e-08 -0.00183302 -0.999998 
-6.59407e-08 -0.00166957 -0.999999 
-4.46557e-09 -0.0015518 -0.999999 
-2.10029e-09 -0.00143275 -0.999999 
4.31242e-08 -0.00136755 -0.999999 
-1.33582e-07 -0.00131592 -0.999999 
1.80428e-07 -0.0012699 -0.999999 
7.65133e-07 -0.00123425 -0.999999 
-7.78868e-06 -0.000110385 -1 
-0.000171384 0.000199133 1 
-0.00011378 -0.00123428 0.999999 
-6.22615e-05 -0.00127164 0.999999 
-2.80644e-05 -0.00131067 0.999999 
7.42736e-07 -0.00136718 0.999999 
1.72405e-05 -0.00146096 0.999999 
3e-05 -0.00157088 0.999999 
4.13011e-05 -0.00171727 0.999999 
5.67973e-05 -0.00189947 0.999998 
7.83968e-05 -0.00214567 0.999998 
0.000119937 -0.00244645 0.999997 
0.000178039 -0.00278488 0.999996 
0.000277332 -0.00313605 0.999995 
0.000334892 -0.00349223 0.999994 
0.000498558 -0.00384793 0.999992 
0.000601276 -0.00414454 0.999991 
0.000702518 -0.0043785 0.99999 
0.000752339 -0.00451353 0.99999 
0.000786382 -0.00450082 0.99999 
0.000767497 -0.00429113 0.99999 
0.000742692 -0.00380881 0.999992 
0.000618782 -0.00300945 0.999995 
0.000501139 -0.00168708 0.999998 
0.000349284 0.000261987 1 
0.000204976 0.00299191 0.999996 
-7.82119e-06 0.0066426 0.999978 
-0.000323171 0.0118676 0.99993 
-0.000875144 0.0196986 0.999806 
-0.00173333 0.0318608 0.999491 
-0.00296804 0.0512786 0.99868 
-0.00475977 0.079439 0.996828 
-0.00624028 0.112225 0.993663 
-0.00855234 0.162893 0.986607 
-0.00645308 0.217741 0.975985 
-0.00885484 0.285322 0.958391 
0.0177495 0.313848 0.949307 
-0.00239113 0.385474 0.922716 
0.0061686 0.621691 0.783238 
0.0189228 0.834682 0.550406 
-0.00513403 0.987211 -0.159337 
-0.0485244 0.870309 -0.49011 
-0.00447513 0.614765 -0.788697 
-0.00164904 0.371724 -0.928342 
-0.0241374 0.320613 -0.946903 
0.00527474 0.287706 -0.957704 
0.0015864 0.216151 -0.976359 
0.00375681 0.14749 -0.989056 
0.00339527 0.0981857 -0.995162 
0.00284284 0.0652212 -0.997867 
0.00196746 0.0407854 -0.999166 
0.00112374 0.0260323 -0.99966 
0.000545693 0.0169035 -0.999857 
0.000172529 0.0101201 -0.999949 
-4.42824e-05 0.00520675 -0.999986 
-0.000260746 0.00162702 -0.999999 
-0.000381986 -0.000723732 -1 
-0.000516842 -0.00250437 -0.999997 
-0.000637385 -0.00371609 -0.999993 
-0.000719633 -0.0043557 -0.99999 
-0.000828088 -0.0045502 -0.999989 
-0.000784882 -0.00458186 -0.999989 
-0.000760583 -0.00448152 -0.99999 
-0.000633659 -0.00428105 -0.999991 
-0.000550048 -0.00400461 -0.999992 
-0.000406439 -0.0036483 -0.999993 
-0.000313585 -0.00328257 -0.999995 
-0.000210882 -0.00289998 -0.999996 
-0.000138154 -0.00253201 -0.999997 
-9.76917e-05 -0.00222596 -0.999998 
-6.59334e-05 -0.00196239 -0.999998 
-5.13752e-05 -0.00175668 -0.999998 
-4.09825e-05 -0.00161185 -0.999999 
-2.15959e-05 -0.00149047 -0.999999 
-9.56669e-06 -0.00140353 -0.999999 
7.97342e-06 -0.00134527 -0.999999 
2.86933e-05 -0.00129995 -0.999999 
7.49467e-05 -0.00128354 -0.999999 
9.98741e-05 -0.00123583 -0.999999 
0.000155939 0.000219526 -1 
-0.000206164 6.76744e-05 1 
-0.000162113 -0.00131146 0.999999 
-9.58992e-05 -0.00132485 0.999999 
-4.49673e-05 -0.0013466 0.999999 
-2.86615e-05 -0.00139986 0.999999 
-5.2412e-06 -0.00138637 0.999999 
1.96001e-05 -0.00148134 0.999999 
3.15026e-05 -0.00159271 0.999999 
4.60549e-05 -0.00173408 0.999998 
6.63997e-05 -0.00195934 0.999998 
9.99119e-05 -0.00223905 0.999997 
0.000164468 -0.00259375 0.999997 
0.000253324 -0.00295134 0.999996 
0.000418154 -0.00338525 0.999994 
0.000581925 -0.00373146 0.999993 
0.000805377 -0.00408274 0.999991 
0.00100535 -0.0043234 0.99999 
0.00117618 -0.00445344 0.999989 
0.00129092 -0.00443794 0.999989 
0.00135197 -0.00423068 0.99999 
0.00138438 -0.00378661 0.999992 
0.00134442 -0.00304851 0.999994 
0.00124919 -0.00196089 0.999997 
0.00114078 -0.000311126 0.999999 
0.00103617 0.00197965 0.999998 
0.000914445 0.00524125 0.999986 
0.000712678 0.00968516 0.999953 
0.00042109 0.0162581 0.999868 
-4.13098e-05 0.0262854 0.999654 
-0.000691455 0.0418514 0.999124 
-0.00042186 0.0631831 0.998002 
0.00229124 0.0963173 0.995348 
0.00171338 0.133057 0.991107 
0.011717 0.176726 0.98419 
0.0200141 0.246397 0.968962 
0.0767163 0.309936 0.947657 
0.0500655 0.390698 0.919156 
0.013762 0.478713 0.877863 
0.0416686 0.682256 0.729925 
-0.0382714 0.930913 0.363231 
-0.0367786 0.746684 -0.664161 
-0.0574065 0.648607 -0.758955 
-0.00691185 0.479152 -0.877705 
-0.0678593 0.292641 -0.953812 
-0.0313787 0.231643 -0.972295 
-0.0265035 0.170736 -0.98496 
-0.00713482 0.143593 -0.989611 
-0.00482467 0.100977 -0.994877 
-0.000450575 0.0683315 -0.997663 
0.000691328 0.0455774 -0.998961 
2.58116e-06 0.0292272 -0.999573 
-0.0005885 0.018549 -0.999828 
-0.000654752 0.0117836 -0.99993 
-0.000815148 0.00650113 -0.999979 
-0.000917012 0.00283438 -0.999996 
-0.0011042 0.000180109 -0.999999 
-0.00121145 -0.00175254 -0.999998 
-0.00126148 -0.00303231 -0.999995 
-0.00130523 -0.00387684 -0.999992 
-0.00138519 -0.00428018 -0.99999 
-0.00131913 -0.00448101 -0.999989 
-0.00122491 -0.00450684 -0.999989 
-0.00105045 -0.00440015 -0.99999 
-0.000876565 -0.00419637 -0.999991 
-0.000664971 -0.00387597 -0.999992 
-0.000487635 -0.00352354 -0.999994 
-0.000325647 -0.00311743 -0.999995 
-0.000207925 -0.00271862 -0.999996 
-0.000132639 -0.00237122 -0.999997 
-8.55034e-05 -0.00205795 -0.999998 
-6.11756e-05 -0.00183031 -0.999998 
-4.2102e-05 -0.00165937 -0.999999 
-3.07921e-05 -0.00152701 -0.999999 
-1.30636e-05 -0.00144301 -0.999999 
1.71776e-05 -0.00137385 -0.999999 
4.32416e-05 -0.00133274 -0.999999 
8.8245e-05 -0.00132956 -0.999999 
0.000148354 -0.0013145 -0.999999 
0.000190295 4.32788e-05 -1 
-0.000167396 0.000118414 1 
-0.000157749 -0.00138437 0.999999 
-0.000111152 -0.0013723 0.999999 
-6.88927e-05 -0.00137023 0.999999 
-4.3994e-05 -0.00142227 0.999999 
-2.01571e-06 -0.00146418 0.999999 
3.72222e-06 -0.0015614 0.999999 
1.81163e-05 -0.00171093 0.999999 
3.51663e-05 -0.00189881 0.999998 
6.32053e-05 -0.00218114 0.999998 
0.000110206 -0.00250882 0.999997 
0.000185879 -0.00290769 0.999996 
0.000322887 -0.00330662 0.999994 
0.000494175 -0.00372759 0.999993 
0.0007058 -0.00405707 0.999992 
0.000956975 -0.00435061 0.99999 
0.00119999 -0.00450281 0.999989 
0.00141567 -0.00451418 0.999989 
0.00158429 -0.00435685 0.999989 
0.00172578 -0.00401302 0.99999 
0.00183569 -0.00342736 0.999992 
0.00192041 -0.00257246 0.999995 
0.00195297 -0.00135666 0.999997 
0.00203356 0.000356793 0.999998 
0.00210483 0.00278604 0.999994 
0.00229691 0.00613611 0.999979 
0.00248552 0.0108664 0.999938 
0.00288695 0.0179259 0.999835 
0.00361192 0.0288877 0.999576 
0.00565428 0.0440233 0.999015 
0.00949369 0.0671676 0.997697 
0.0200736 0.0897089 0.995766 
0.0244224 0.125872 0.991746 
0.0446778 0.164742 0.985324 
0.0535483 0.224505 0.973 
0.121997 0.27229 0.95445 
0.116702 0.427245 0.896573 
0.0703246 0.517896 0.852548 
0.00548819 0.935144 0.354226 
-0.0622291 0.959446 -0.274936 
-0.121897 0.721792 -0.681291 
-0.0496592 0.53488 -0.843467 
-0.054472 0.410146 -0.910392 
-0.118784 0.292654 -0.948812 
-0.0765092 0.203423 -0.976097 
-0.0541768 0.145466 -0.987879 
-0.0275079 0.109593 -0.993596 
-0.014317 0.0774681 -0.996892 
-0.00727967 0.0541896 -0.998504 
-0.00410527 0.037341 -0.999294 
-0.00342456 0.024432 -0.999696 
-0.00313363 0.0157316 -0.999871 
-0.00238762 0.00978828 -0.999949 
-0.00218396 0.00528922 -0.999984 
-0.00203642 0.00217566 -0.999996 
-0.0019513 -0.000238171 -0.999998 
-0.0019405 -0.00184526 -0.999996 
-0.00180925 -0.00303019 -0.999994 
-0.00174781 -0.00378272 -0.999991 
-0.00166149 -0.00426463 -0.99999 
-0.00151447 -0.00450348 -0.999989 
-0.00131521 -0.00457669 -0.999989 
-0.00110109 -0.00450232 -0.999989 
-0.000863162 -0.00428282 -0.99999 
-0.000642564 -0.00397893 -0.999992 
-0.000438501 -0.00358515 -0.999993 
-0.000279663 -0.00315534 -0.999995 
-0.000171236 -0.00274365 -0.999996 
-9.61364e-05 -0.00234539 -0.999997 
-5.59579e-05 -0.00204658 -0.999998 
-3.33772e-05 -0.00181713 -0.999998 
-1.3877e-05 -0.00162335 -0.999999 
-1.68016e-06 -0.00151764 -0.999999 
1.58908e-05 -0.0014371 -0.999999 
4.61353e-05 -0.00139757 -0.999999 
6.18433e-05 -0.00136437 -0.999999 
9.78683e-05 -0.00136893 -0.999999 
0.000139134 -0.00136729 -0.999999 
0.000167655 0.000114797 -1 
-9.44605e-05 0.000120501 1 
-0.000133472 -0.00143431 0.999999 
-8.78332e-05 -0.00139544 0.999999 
-6.84624e-05 -0.00140565 0.999999 
-5.32383e-05 -0.00144981 0.999999 
-2.9316e-05 -0.00148465 0.999999 
-3.29031e-05 -0.00153946 0.999999 
-1.17495e-05 -0.00163582 0.999999 
1.18296e-06 -0.00180959 0.999998 
2.42489e-05 -0.00203871 0.999998 
5.44406e-05 -0.0023545 0.999997 
0.000107929 -0.00272349 0.999996 
0.000214306 -0.00321436 0.999995 
0.00035175 -0.00363285 0.999993 
0.000549078 -0.00406684 0.999992 
0.000787999 -0.00437315 0.99999 
0.00106612 -0.00460303 0.999989 
0.001339 -0.00466444 0.999988 
0.00159754 -0.00455166 0.999988 
0.00182226 -0.00426624 0.999989 
0.00203268 -0.00376027 0.999991 
0.00223775 -0.00301442 0.999993 
0.00243207 -0.00197603 0.999995 
0.00263982 -0.000607122 0.999996 
0.00290219 0.00134617 0.999995 
0.00329149 0.00398365 0.999987 
0.00390256 0.00776325 0.999962 
0.00484178 0.0131286 0.999902 
0.00657716 0.0215178 0.999747 
0.0101279 0.0332584 0.999395 
0.0162389 0.0503401 0.9986 
0.0290231 0.0699836 0.997126 
0.0445269 0.100966 0.993893 
0.0700504 0.126074 0.989545 
0.0886015 0.174558 0.980652 
0.121012 0.210696 0.970033 
0.162954 0.363909 0.91707 
0.12987 0.626159 0.768804 
0.0892029 0.749769 0.65566 
-0.00973892 0.993529 0.113163 
-0.105618 0.83432 -0.541068 
-0.126297 0.506016 -0.853227 
-0.130638 0.390138 -0.911442 
-0.134536 0.208379 -0.968751 
-0.0983235 0.144096 -0.984667 
-0.0769395 0.0980521 -0.992203 
-0.0497943 0.094972 -0.994234 
-0.0300184 0.0723281 -0.996929 
-0.0183119 0.0532194 -0.998415 
-0.011344 0.0375609 -0.99923 
-0.00780787 0.0260181 -0.999631 
-0.00600836 0.0170125 -0.999837 
-0.00443075 0.0104631 -0.999935 
-0.00354595 0.00620456 -0.999974 
-0.00307466 0.00281756 -0.999991 
-0.00269111 0.000425179 -0.999996 
-0.00250751 -0.0013392 -0.999996 
-0.00225761 -0.00267375 -0.999994 
-0.00207218 -0.00354469 -0.999992 
-0.0018781 -0.00414202 -0.99999 
-0.00165538 -0.00452916 -0.999988 
-0.00140598 -0.00469311 -0.999988 
-0.00114623 -0.00469942 -0.999988 
-0.00089536 -0.00452458 -0.999989 
-0.000651387 -0.00424291 -0.999991 
-0.000449528 -0.00385619 -0.999992 
-0.000283585 -0.00340389 -0.999994 
-0.000166988 -0.0029485 -0.999996 
-9.31769e-05 -0.00252745 -0.999997 
-4.48363e-05 -0.0021716 -0.999998 
-1.73448e-05 -0.001902 -0.999998 
-9.75576e-07 -0.00169848 -0.999999 
1.94757e-05 -0.00155258 -0.999999 
3.10298e-05 -0.00146994 -0.999999 
5.54456e-05 -0.00141812 -0.999999 
7.62584e-05 -0.00138542 -0.999999 
9.89852e-05 -0.00139057 -0.999999 
0.000137611 -0.00141137 -0.999999 
0.000111618 0.000145102 -1 
-4.39003e-05 9.6809e-05 1 
-6.8355e-05 -0.00142472 0.999999 
-0.000103839 -0.00140697 0.999999 
-7.39826e-05 -0.00139962 0.999999 
-6.56873e-05 -0.00141673 0.999999 
-4.87942e-05 -0.00150153 0.999999 
-3.36948e-05 -0.00161466 0.999999 
-1.96694e-05 -0.0017363 0.999998 
1.2136e-06 -0.00196823 0.999998 
2.69867e-05 -0.00223446 0.999998 
6.76929e-05 -0.00260398 0.999997 
0.000138418 -0.00304688 0.999995 
0.000243697 -0.00353875 0.999994 
0.000391489 -0.00397357 0.999992 
0.000599593 -0.00438968 0.99999 
0.000846492 -0.00465775 0.999989 
0.00112262 -0.00482424 0.999988 
0.00141278 -0.00481024 0.999987 
0.00168262 -0.00462939 0.999988 
0.00194402 -0.00425225 0.999989 
0.00219725 -0.00367351 0.999991 
0.00245841 -0.00286111 0.999993 
0.00273063 -0.0018395 0.999995 
0.00305027 -0.00046911 0.999995 
0.00347468 0.00128678 0.999993 
0.00409544 0.00369926 0.999985 
0.00507571 0.00687176 0.999964 
0.00662824 0.0115961 0.999911 
0.00931245 0.0181748 0.999791 
0.0141126 0.0272746 0.999528 
0.0218531 0.0395861 0.998977 
0.0376481 0.0548756 0.997783 
0.058526 0.0782615 0.995213 
0.0882438 0.0829269 0.992641 
0.113884 0.123746 0.985757 
0.152734 0.127876 0.979959 
0.221809 0.299582 0.927929 
0.175969 0.542436 0.821461 
0.108664 0.853893 0.508977 
-0.0194994 0.999462 -0.0263534 
-0.145596 0.882128 -0.447942 
-0.256262 0.541164 -0.800919 
-0.199489 0.295666 -0.93423 
-0.195142 0.179795 -0.964154 
-0.138057 0.110712 -0.984217 
-0.0778173 0.0679822 -0.994647 
-0.0444887 0.058788 -0.997279 
-0.0289036 0.045169 -0.998561 
-0.0188145 0.0346917 -0.999221 
-0.0128074 0.0248165 -0.99961 
-0.00926261 0.0172919 -0.999808 
-0.00649221 0.0113189 -0.999915 
-0.0049601 0.00677277 -0.999965 
-0.00400032 0.00378022 -0.999985 
-0.00336549 0.00124794 -0.999994 
-0.00297083 -0.000520984 -0.999995 
-0.00262851 -0.00203879 -0.999994 
-0.00236594 -0.00308271 -0.999992 
-0.00211395 -0.00384714 -0.99999 
-0.00185413 -0.00438548 -0.999989 
-0.00156165 -0.00475077 -0.999987 
-0.00129091 -0.00488261 -0.999987 
-0.00101022 -0.00484668 -0.999988 
-0.000768403 -0.00464145 -0.999989 
-0.000542028 -0.00432105 -0.999991 
-0.000363709 -0.00388803 -0.999992 
-0.000225252 -0.00341236 -0.999994 
-0.000129819 -0.00293488 -0.999996 
-6.91157e-05 -0.00250959 -0.999997 
-2.8549e-05 -0.00215369 -0.999998 
-1.2425e-06 -0.00187286 -0.999998 
1.69695e-05 -0.00168059 -0.999999 
3.4419e-05 -0.00155605 -0.999999 
4.67421e-05 -0.00147328 -0.999999 
5.9786e-05 -0.00142078 -0.999999 
7.27156e-05 -0.00139407 -0.999999 
7.68639e-05 -0.00139579 -0.999999 
9.39348e-05 -0.00142237 -0.999999 
6.49066e-05 9.14929e-05 -1 
8.21896e-06 0.000126963 1 
-1.48503e-05 -0.00140529 0.999999 
-6.52871e-05 -0.00140245 0.999999 
-4.88296e-05 -0.00139384 0.999999 
-5.531e-05 -0.00144115 0.999999 
-4.20372e-05 -0.00149589 0.999999 
-3.79191e-05 -0.0015836 0.999999 
-2.00411e-05 -0.00172121 0.999999 
-6.39794e-06 -0.00188866 0.999998 
2.22105e-05 -0.00216056 0.999998 
5.42638e-05 -0.00248465 0.999997 
0.000107692 -0.00294424 0.999996 
0.000182949 -0.00342395 0.999994 
0.00029779 -0.00393062 0.999992 
0.000456333 -0.00436825 0.99999 
0.000671526 -0.00473865 0.999989 
0.000915739 -0.00495136 0.999987 
0.00119561 -0.00501447 0.999987 
0.00146648 -0.00489582 0.999987 
0.00174041 -0.00458141 0.999988 
0.00200408 -0.00407106 0.99999 
0.00227368 -0.00335194 0.999992 
0.00255156 -0.00244526 0.999994 
0.00289938 -0.00130989 0.999995 
0.0033295 5.92941e-05 0.999994 
0.00396726 0.00183584 0.99999 
0.00494029 0.00408925 0.999979 
0.00656605 0.00731465 0.999952 
0.00921678 0.0116101 0.99989 
0.0137548 0.0174104 0.999754 
0.0213411 0.0247224 0.999467 
0.0335335 0.0346462 0.998837 
0.0570744 0.0466058 0.997282 
0.0831666 0.0402954 0.995721 
0.124072 0.0583321 0.990557 
0.194976 0.0959427 0.976104 
0.181844 0.205567 0.9616 
0.292538 0.404973 0.866267 
0.235858 0.482235 0.843694 
0.0096897 0.970226 0.242008 
-0.158257 0.612338 -0.774594 
-0.224657 0.421224 -0.878692 
-0.28351 0.233765 -0.930041 
-0.144825 0.0474723 -0.988318 
-0.105144 0.0550884 -0.99293 
-0.0719234 0.0250862 -0.997095 
-0.0561709 0.0410881 -0.997575 
-0.0377281 0.0333088 -0.998733 
-0.0246934 0.0266171 -0.999341 
-0.0168794 0.0205831 -0.999646 
-0.0117473 0.0146152 -0.999824 
-0.00805022 0.0102901 -0.999915 
-0.00575558 0.00629551 -0.999964 
-0.00435484 0.00319816 -0.999985 
-0.00358869 0.00121435 -0.999993 
-0.00302849 -0.000594413 -0.999995 
-0.00268252 -0.00188546 -0.999995 
-0.00234674 -0.00303152 -0.999993 
-0.00207715 -0.00384339 -0.99999 
-0.00180513 -0.00443847 -0.999989 
-0.00152683 -0.00483898 -0.999987 
-0.00122146 -0.0050523 -0.999986 
-0.000968902 -0.00504142 -0.999987 
-0.000718986 -0.00485587 -0.999988 
-0.00051875 -0.00454463 -0.99999 
-0.000352286 -0.00409839 -0.999992 
-0.000228465 -0.00360992 -0.999993 
-0.000139439 -0.00310246 -0.999995 
-7.93824e-05 -0.0026337 -0.999997 
-4.07126e-05 -0.00226276 -0.999997 
-1.0433e-05 -0.00194126 -0.999998 
1.3385e-05 -0.00171731 -0.999999 
2.94569e-05 -0.00157006 -0.999999 
4.47767e-05 -0.00147303 -0.999999 
4.54646e-05 -0.00142029 -0.999999 
5.5829e-05 -0.00139344 -0.999999 
4.50268e-05 -0.00138962 -0.999999 
5.11634e-05 -0.00141557 -0.999999 
1.99287e-05 0.000127121 -1 
5.53023e-05 0.000115134 1 
3.77006e-05 -0.00137914 0.999999 
-3.04115e-05 -0.00138778 0.999999 
-1.44908e-05 -0.00138205 0.999999 
-3.58551e-05 -0.00142271 0.999999 
-2.05488e-05 -0.00149691 0.999999 
-1.81502e-05 -0.0016103 0.999999 
1.8795e-06 -0.00176513 0.999998 
1.65356e-05 -0.00196708 0.999998 
4.76791e-05 -0.00225703 0.999997 
8.00017e-05 -0.00265136 0.999996 
0.000128401 -0.00311581 0.999995 
0.000195999 -0.00362583 0.999993 
0.000290763 -0.00413199 0.999991 
0.000432367 -0.00458708 0.999989 
0.000601798 -0.00492541 0.999988 
0.000828505 -0.00513831 0.999986 
0.00106053 -0.00517296 0.999986 
0.00129818 -0.00501198 0.999987 
0.00154893 -0.00466372 0.999988 
0.00180305 -0.00410396 0.99999 
0.0020483 -0.00336783 0.999992 
0.00231713 -0.0024602 0.999994 
0.00266546 -0.00142696 0.999995 
0.00315392 -0.000198068 0.999995 
0.00386748 0.00122903 0.999992 
0.0050288 0.00302203 0.999983 
0.0068363 0.00518042 0.999963 
0.00982076 0.00804348 0.999919 
0.0146586 0.0114063 0.999827 
0.0222092 0.0148516 0.999643 
0.0354437 0.0214928 0.999141 
0.0527479 0.0212625 0.998381 
0.0718344 0.00518714 0.997403 
0.113963 0.0111489 0.993422 
0.179445 0.03153 0.983263 
0.26291 0.18906 0.946116 
0.350421 0.274302 0.895524 
0.243108 0.703217 0.66812 
0.016026 0.98867 0.14925 
-0.240268 0.722663 -0.648097 
-0.355923 0.333428 -0.873009 
-0.209268 0.0784065 -0.97471 
-0.151717 0.00305841 -0.988419 
-0.0932121 0.00765264 -0.995617 
-0.0545129 -0.000582562 -0.998513 
-0.0460381 0.0160405 -0.998811 
-0.0317302 0.0170593 -0.999351 
-0.0220495 0.0142719 -0.999655 
-0.015476 0.0119152 -0.999809 
-0.010229 0.00890733 -0.999908 
-0.00708475 0.00632041 -0.999955 
-0.00502249 0.00364544 -0.999981 