# vtk DataFile Version 3.0 
Exported using Morpho https://github.com/Morpho-lang/morpho 
ASCII 
DATASET UNSTRUCTURED_GRID 

POINTS 1978 float 
-8.48528 -2.82843 -1.87546e-19 
-8.25374 -2.82843 9.9962e-20 
-8.0261 -2.82843 1.78304e-19 
-7.79538 -2.82843 2.65058e-19 
-7.49889 -2.82843 1.1126e-19 
-7.25327 -2.82843 9.71488e-20 
-6.99763 -2.82843 3.93678e-20 
-6.77492 -2.82843 1.39403e-19 
-6.55962 -2.82843 -1.70831e-19 
-6.3532 -2.82843 -8.63636e-20 
-6.13308 -2.82843 2.78497e-19 
-5.92767 -2.82843 2.42591e-19 
-5.71281 -2.82843 3.6778e-19 
-5.52216 -2.82843 7.71232e-19 
-5.28725 -2.82843 1.08613e-18 
-5.08345 -2.82843 1.35909e-18 
-4.87218 -2.82843 1.35333e-18 
-4.66182 -2.82843 9.78731e-19 
-4.44589 -2.82843 -2.5773e-19 
-4.23313 -2.82843 -1.66669e-18 
-4.02218 -2.82843 -3.10294e-18 
-3.82256 -2.82843 -4.18674e-18 
-3.61463 -2.82843 -3.8e-18 
-3.4049 -2.82843 -2.38241e-18 
-3.18564 -2.82843 1.16771e-18 
-2.96703 -2.82843 6.57099e-19 
-2.73559 -2.82843 -2.61587e-17 
-2.49736 -2.82843 -1.84493e-16 
-2.25603 -2.82843 -9.85613e-16 
-2.01042 -2.82843 -4.63181e-15 
-1.76011 -2.82843 -1.26347e-14 
-1.57251 -2.82843 -4.37558e-14 
-1.358 -2.82843 -1.26447e-13 
-1.18027 -2.82843 -1.97973e-13 
-1.05061 -2.82843 -5.00197e-13 
-0.876178 -2.82843 -7.91359e-13 
-0.721183 -2.82843 7.85429e-13 
-0.615207 -2.82843 1.13391e-12 
-0.412866 -2.82843 2.46322e-11 
0.244874 -2.82843 -1.1257e-10 
0.411802 -2.82843 -2.99506e-11 
0.618034 -2.82843 -1.21595e-12 
0.747293 -2.82843 -7.7575e-13 
0.89553 -2.82843 3.89598e-13 
1.04276 -2.82843 1.5133e-13 
1.1869 -2.82843 1.01253e-13 
1.38582 -2.82843 7.83913e-14 
1.57745 -2.82843 2.36763e-14 
1.81737 -2.82843 1.06133e-14 
2.07143 -2.82843 2.79796e-15 
2.30198 -2.82843 5.62621e-16 
2.53842 -2.82843 1.34263e-16 
2.76967 -2.82843 2.32421e-17 
2.99809 -2.82843 1.33512e-18 
3.20524 -2.82843 -2.257e-18 
3.41108 -2.82843 3.55658e-18 
3.61187 -2.82843 2.19181e-18 
3.81447 -2.82843 3.82828e-18 
4.0256 -2.82843 2.98515e-18 
4.24592 -2.82843 1.1053e-18 
4.44775 -2.82843 -1.16779e-19 
4.65904 -2.82843 -9.17785e-19 
4.86108 -2.82843 -1.48591e-18 
5.07623 -2.82843 -1.30508e-18 
5.2815 -2.82843 -1.20263e-18 
5.50117 -2.82843 -8.89439e-19 
5.7081 -2.82843 -4.05807e-19 
5.92632 -2.82843 -2.7051e-19 
6.15172 -2.82843 -2.03241e-19 
6.36019 -2.82843 4.64034e-20 
6.59028 -2.82843 2.22873e-20 
6.80749 -2.82843 -1.28048e-19 
7.01031 -2.82843 1.30883e-22 
7.29138 -2.82843 -8.38592e-20 
7.51195 -2.82843 -1.57251e-19 
7.75044 -2.82843 -9.12517e-20 
8.03518 -2.82843 -2.68366e-19 
8.22606 -2.82843 -8.2269e-20 
8.48528 -2.82843 3.26931e-19 
-8.48528 -2.58338 -5.45631e-19 
-8.25791 -2.59192 6.62913e-19 
-8.02789 -2.58664 -1.68498e-22 
-7.78537 -2.59568 -1.27249e-21 
-7.54192 -2.64879 -3.7011e-21 
-7.25512 -2.6166 -6.76715e-21 
-6.99706 -2.60339 -1.38424e-20 
-6.76868 -2.59496 -2.32961e-20 
-6.54215 -2.58543 -4.39125e-20 
-6.30999 -2.60121 -8.75197e-20 
-6.087 -2.58445 -1.61343e-19 
-5.8673 -2.59372 -2.95406e-19 
-5.66478 -2.56232 -4.56861e-19 
-5.44164 -2.61343 -6.65875e-19 
-5.22667 -2.58141 -8.8661e-19 
-5.01241 -2.59084 -9.84295e-19 
-4.79683 -2.59088 -8.76625e-19 
-4.57927 -2.59807 -5.57975e-19 
-4.36138 -2.59532 -1.24341e-19 
-4.14551 -2.59444 2.61822e-19 
-3.93788 -2.582 6.05432e-19 
-3.72997 -2.59105 4.35059e-19 
-3.51638 -2.59008 1.18408e-19 
-3.2974 -2.59611 2.3607e-18 
-3.07325 -2.58933 1.45473e-17 
-2.84408 -2.59749 5.99515e-17 
-2.60437 -2.59984 2.2506e-16 
-2.35929 -2.60204 9.30462e-16 
-2.11081 -2.60944 7.67678e-15 
-1.86089 -2.62674 3.32392e-14 
-1.6347 -2.58008 1.06053e-13 
-1.44712 -2.63416 3.45698e-13 
-1.25073 -2.62869 1.00123e-12 
-1.09455 -2.59473 2.37424e-12 
-0.956165 -2.67946 4.94054e-12 
-0.872842 -2.53134 2.38403e-12 
-0.786194 -2.67827 1.09669e-11 
-0.53653 -2.74542 9.85476e-12 
-0.347125 -2.73788 4.43796e-11 
0.106136 -2.8036 1.10669e-10 
0.280154 -2.74053 6.52586e-12 
0.542111 -2.74947 -3.12655e-11 
0.805974 -2.68124 -9.05685e-12 
0.868343 -2.53104 -3.57992e-12 
0.963207 -2.65518 -5.09063e-12 
1.10225 -2.60052 -2.10794e-12 
1.2835 -2.64027 -8.10199e-13 
1.48931 -2.6023 -2.25329e-13 
1.71518 -2.62657 -6.21451e-14 
1.9773 -2.62609 -1.56787e-14 
2.23707 -2.59946 -3.90105e-15 
2.47632 -2.60231 -5.71259e-16 
2.7237 -2.59676 -1.56475e-16 
2.96342 -2.59818 -4.2687e-17 
3.19779 -2.57979 -7.90868e-18 
3.41399 -2.57711 -2.39368e-18 
3.62785 -2.58537 1.63254e-18 
3.84712 -2.59532 3.37559e-19 
4.07362 -2.60469 6.8625e-20 
4.28496 -2.58396 1.09176e-19 
4.49884 -2.5943 5.22989e-19 
4.70793 -2.58285 7.34428e-19 
4.92327 -2.59718 9.84664e-19 
5.13607 -2.58555 9.47144e-19 
5.35579 -2.60112 8.27396e-19 
5.5713 -2.58565 5.6887e-19 
5.78955 -2.59633 3.66138e-19 
6.01702 -2.60157 2.04958e-19 
6.23681 -2.58008 1.05794e-19 
6.45991 -2.60138 5.8661e-20 
6.6868 -2.58534 3.14877e-20 
6.89815 -2.5664 1.79361e-20 
7.13547 -2.63844 8.38982e-21 
7.38093 -2.58417 4.22463e-21 
7.61048 -2.60217 2.04154e-21 
7.87421 -2.63826 8.92222e-22 
8.08333 -2.54437 1.39921e-22 
8.30726 -2.61774 -8.2153e-19 
8.48528 -2.52146 5.24781e-19 
-8.48528 -2.34463 -2.11635e-20 
-8.25177 -2.35215 -4.24167e-21 
-8.01184 -2.34905 3.35477e-21 
-7.76916 -2.38159 1.03041e-21 
-7.55398 -2.23279 5.954e-22 
-7.4968 -2.44557 -3.14037e-21 
-7.21279 -2.41583 -6.64369e-21 
-6.97953 -2.36326 -1.16044e-20 
-6.74465 -2.36537 -2.08057e-20 
-6.50046 -2.36303 -3.69404e-20 
-6.26905 -2.37003 -6.64328e-20 
-6.03692 -2.35171 -1.28046e-19 
-5.82911 -2.33698 -2.30261e-19 
-5.58155 -2.35511 -4.5242e-19 
-5.37338 -2.3666 -6.36239e-19 
-5.14268 -2.35149 -7.90475e-19 
-4.92182 -2.35891 -7.5232e-19 
-4.69748 -2.36434 -4.68224e-19 
-4.47749 -2.36847 9.61456e-20 
-4.25514 -2.36557 7.58682e-19 
-4.0423 -2.34982 1.39541e-18 
-3.82709 -2.34837 1.78215e-18 
-3.61614 -2.35684 2.04429e-18 
-3.39579 -2.36079 2.91421e-18 
-3.17574 -2.36029 7.9712e-18 
-2.94439 -2.35989 3.04523e-17 
-2.7134 -2.36948 1.18021e-16 
-2.47345 -2.37323 4.58802e-16 
-2.22848 -2.38215 3.82542e-15 
-1.98049 -2.40181 1.5451e-14 
-1.75785 -2.39004 4.8461e-14 
-1.52215 -2.36997 1.33562e-13 
-1.34457 -2.43217 2.88077e-13 
-1.16996 -2.39722 4.38522e-13 
-0.98567 -2.43752 7.84377e-13 
-0.792529 -2.34221 -4.68588e-13 
-0.729179 -2.49164 1.81873e-12 
-0.658271 -2.63971 2.85126e-11 
-0.469662 -2.65704 3.19505e-11 
-0.202845 -2.88304 1.17104e-10 
0.404801 -2.71471 -2.73042e-11 
0.485227 -2.62635 -1.46744e-11 
0.680534 -2.67765 -1.95511e-11 
0.838135 -2.36506 2.19619e-12 
1.00046 -2.4201 -6.02875e-13 
1.13925 -2.34138 -1.4749e-13 
1.27166 -2.43537 -2.65408e-13 
1.45718 -2.38191 -1.32095e-13 
1.68133 -2.40827 -5.45869e-14 
1.91876 -2.42485 -1.63041e-14 
2.17607 -2.39613 -4.53782e-15 
2.432 -2.36637 -5.79027e-16 
2.6624 -2.37429 -1.51929e-16 
2.90645 -2.36804 -4.34283e-17 
3.1366 -2.35676 -1.18589e-17 
3.36441 -2.34031 -3.92072e-18 
3.58656 -2.34171 -2.51291e-18 
3.79623 -2.36165 -2.71041e-18 
4.01535 -2.37877 -1.85965e-18 
4.22934 -2.35102 -8.11104e-19 
4.44477 -2.35627 -8.02426e-20 
4.65177 -2.34603 4.36474e-19 
4.86677 -2.35929 7.04851e-19 
5.07613 -2.35221 8.34745e-19 
5.29686 -2.36706 7.20092e-19 
5.51018 -2.35427 5.38635e-19 
5.73173 -2.35888 3.29e-19 
5.95155 -2.37331 1.80239e-19 
6.17235 -2.35023 9.61394e-20 
6.40338 -2.35937 4.76377e-20 
6.62024 -2.35693 2.54617e-20 
6.84241 -2.31771 1.50393e-20 
7.07377 -2.39203 9.66959e-21 
7.29037 -2.38587 5.48903e-21 
7.55218 -2.35816 1.88242e-21 
7.78541 -2.4193 4.37132e-22 
7.99489 -2.32461 -2.43304e-21 
8.24905 -2.35147 1.81269e-19 
8.48528 -2.29235 -7.49946e-20 
-8.48528 -2.11295 -3.35085e-19 
-8.25105 -2.10686 2.5082e-19 
-8.03846 -2.10967 4.8363e-21 
-7.7969 -2.1449 2.80655e-21 
-7.5133 -2.02429 2.0531e-21 
-7.30017 -2.23058 -1.99187e-21 
-7.05998 -2.14771 6.4282e-23 
-6.81132 -2.13202 -1.57884e-22 
-6.58743 -2.1443 8.46477e-22 
-6.34901 -2.13823 2.19295e-22 
-6.13067 -2.13044 -3.34045e-22 
-5.91463 -2.09061 -1.11451e-20 
-5.69175 -2.13609 -6.10187e-20 
-5.47244 -2.11282 -1.29845e-19 
-5.26385 -2.13519 -2.20006e-19 
-5.03825 -2.12452 -2.9839e-19 
-4.82003 -2.13375 -2.92101e-19 
-4.60405 -2.13474 -1.2339e-19 
-4.38966 -2.14042 2.51701e-19 
-4.18066 -2.12461 8.30388e-19 
-3.96817 -2.11631 1.62201e-18 
-3.75823 -2.11356 2.60387e-18 
-3.54582 -2.12836 3.43475e-18 
-3.32982 -2.12607 3.41093e-18 
-3.10545 -2.13206 1.90762e-18 
-2.8761 -2.12753 -9.85305e-19 
-2.64352 -2.13994 1.18348e-18 
-2.40078 -2.14814 4.09118e-17 
-2.15115 -2.16616 2.18175e-16 
-1.91993 -2.16426 8.53143e-16 
-1.68976 -2.17821 8.4024e-15 
-1.49077 -2.12206 -2.87902e-14 
-1.31536 -2.20265 8.32959e-14 
-1.13192 -2.1853 -2.26685e-14 
-0.968014 -2.2671 -2.63498e-13 
-0.749285 -2.18986 6.46738e-13 
-0.597558 -2.40947 1.20569e-12 
-0.564811 -2.54798 -1.62957e-11 
-0.224497 -2.79123 -1.24069e-10 
0.143723 -2.69811 -7.60037e-11 
0.353967 -2.57823 -1.18921e-11 
0.601432 -2.5847 -1.45345e-11 
0.725798 -2.5044 -5.82543e-12 
0.745195 -2.22882 -1.03701e-12 
0.94183 -2.21352 4.40256e-13 
1.11657 -2.1405 3.02573e-14 
1.32695 -2.17469 1.72489e-14 
1.55143 -2.17888 -9.09321e-15 
1.77832 -2.19341 -8.21848e-15 
2.01207 -2.20227 -3.67444e-15 
2.25688 -2.1684 -3.63314e-16 
2.49292 -2.12491 -4.08933e-17 
2.72796 -2.1488 -1.97548e-17 
2.9617 -2.13249 -3.49774e-18 
3.1866 -2.12242 -3.0929e-18 
3.41595 -2.11343 -3.74116e-18 
3.62944 -2.10279 -3.15159e-18 
3.84501 -2.13685 -2.20577e-18 
4.05339 -2.1402 -1.15629e-18 
4.27276 -2.12104 -4.21771e-19 
4.47828 -2.11382 -3.70272e-21 
4.69503 -2.11719 2.07776e-19 
4.90259 -2.11864 2.93894e-19 
5.12506 -2.12843 2.67653e-19 
5.33588 -2.12793 1.99873e-19 
5.55802 -2.12559 9.4762e-20 
5.77937 -2.12871 3.92154e-20 
5.99478 -2.13522 1.0778e-20 
6.23015 -2.12757 -1.29428e-21 
6.4472 -2.11527 -2.97375e-21 
6.66309 -2.11145 -2.36052e-21 
6.92102 -2.11163 -1.39476e-21 
7.12892 -2.14231 -7.75876e-22 
7.36892 -2.17253 -9.39877e-22 
7.56951 -2.08097 -2.14891e-21 
7.75897 -2.17696 -2.07743e-21 
7.97195 -2.08077 -2.46914e-21 
8.19864 -2.13379 -1.61462e-19 
8.48528 -2.10287 2.35702e-19 
-8.48528 -1.80321 -1.28131e-19 
-8.3167 -1.87155 -3.50146e-22 
-7.89794 -1.9021 2.18498e-21 
-7.67987 -1.89812 2.23683e-21 
[...]
POINT_DATA 1978 
VECTORS vectors float
2.77772e-06 -0.00019195 1 
6.53219e-07 -0.00119123 0.999999 
-7.38572e-07 -0.00125518 0.999999 
2.53771e-07 -0.0012945 0.999999 
-3.4462e-08 -0.0013808 0.999999 
1.00819e-07 -0.00147395 0.999999 
1.90664e-07 -0.00157842 0.999999 
3.81542e-07 -0.00171714 0.999999 
4.79899e-07 -0.00187923 0.999998 
6.86102e-07 -0.00207877 0.999998 
8.39306e-07 -0.00234542 0.999997 
1.2137e-06 -0.00264131 0.999997 
1.25943e-06 -0.0029914 0.999996 
1.63124e-06 -0.00331871 0.999994 
1.66812e-06 -0.00372122 0.999993 
2.05213e-06 -0.00404579 0.999992 
2.12399e-06 -0.00435023 0.999991 
2.17462e-06 -0.00458202 0.99999 
1.9305e-06 -0.00470965 0.999989 
1.58721e-06 -0.00468095 0.999989 
9.13722e-07 -0.00444454 0.99999 
-2.8698e-07 -0.00390634 0.999992 
-1.79132e-06 -0.00288284 0.999996 
-3.58783e-06 -0.00126049 0.999999 
-4.65979e-06 0.00109698 0.999999 
-5.64497e-06 0.00412287 0.999992 
-6.28297e-06 0.00819641 0.999966 
-5.14187e-06 0.0138835 0.999904 
-5.96933e-06 0.0225532 0.999746 
-2.02826e-05 0.0364337 0.999336 
-3.66343e-05 0.0584181 0.998292 
-0.000139568 0.083705 0.996491 
-0.000176139 0.125933 0.992039 
-0.000249274 0.179098 0.983831 
-0.000423916 0.235702 0.971825 
-0.0004554 0.333112 0.942887 
-0.000293201 0.444067 0.895993 
-0.000732933 0.540718 0.841203 
-0.000174445 0.802066 0.597235 
-0.000194478 0.938632 -0.344921 
0.000735492 0.748889 -0.662695 
0.000403175 0.531497 -0.84706 
0.000711742 0.425577 -0.904922 
9.38716e-05 0.316424 -0.948618 
0.000503418 0.241114 -0.970497 
0.000179011 0.177772 -0.984072 
0.000223804 0.116259 -0.993219 
7.36351e-05 0.0809898 -0.996715 
1.65428e-05 0.0519461 -0.99865 
9.54365e-06 0.0328051 -0.999462 
9.30702e-06 0.0219536 -0.999759 
8.89244e-06 0.0142617 -0.999898 
8.58051e-06 0.00849742 -0.999964 
6.90327e-06 0.00406786 -0.999992 
6.03934e-06 0.000985105 -1 
4.32139e-06 -0.00138362 -0.999999 
2.67118e-06 -0.00300351 -0.999995 
5.68397e-07 -0.00412651 -0.999991 
-1.10934e-06 -0.00468155 -0.999989 
-2.06165e-06 -0.00481171 -0.999988 
-2.29341e-06 -0.00476096 -0.999989 
-2.23187e-06 -0.00460976 -0.999989 
-2.21673e-06 -0.00439524 -0.99999 
-2.11622e-06 -0.00408541 -0.999992 
-1.87147e-06 -0.00374272 -0.999993 
-1.61621e-06 -0.00335062 -0.999994 
-1.26733e-06 -0.00298682 -0.999996 
-9.92066e-07 -0.00263245 -0.999997 
-7.56319e-07 -0.0023103 -0.999997 
-5.9437e-07 -0.00205691 -0.999998 
-4.71526e-07 -0.00183302 -0.999998 
-3.4997e-07 -0.00166957 -0.999999 
-1.89777e-07 -0.0015518 -0.999999 
-1.05132e-07 -0.00143275 -0.999999 
1.96254e-09 -0.00136755 -0.999999 
-1.76354e-07 -0.00131592 -0.999999 
4.16765e-07 -0.0012699 -0.999999 
7.19274e-08 -0.00123425 -0.999999 
-4.65457e-06 -7.90253e-05 -1 
-0.000193451 0.000336269 1 
-0.000113781 -0.0012343 0.999999 
-6.22617e-05 -0.00127164 0.999999 
-2.80644e-05 -0.00131067 0.999999 
7.42942e-07 -0.00136718 0.999999 
1.72407e-05 -0.00146096 0.999999 
3.00003e-05 -0.00157088 0.999999 
4.13014e-05 -0.00171727 0.999999 
5.67976e-05 -0.00189947 0.999998 
7.83972e-05 -0.00214567 0.999998 
0.000119937 -0.00244645 0.999997 
0.00017804 -0.00278488 0.999996 
0.000277333 -0.00313605 0.999995 
0.000334894 -0.00349223 0.999994 
0.00049856 -0.00384793 0.999992 
0.000601278 -0.00414454 0.999991 
0.000702521 -0.0043785 0.99999 
0.000752342 -0.00451354 0.99999 
0.000786385 -0.00450083 0.99999 
0.000767499 -0.00429114 0.99999 
0.000742693 -0.00380881 0.999992 
0.000618782 -0.00300946 0.999995 
0.000501138 -0.00168709 0.999998 
0.000349281 0.000261981 1 
0.000204971 0.00299191 0.999996 
-7.82803e-06 0.00664259 0.999978 
-0.000323182 0.0118676 0.99993 
-0.000875162 0.0196986 0.999806 
-0.00173336 0.0318608 0.999491 
-0.00296809 0.0512786 0.99868 
-0.00475986 0.0794389 0.996828 
-0.00624039 0.112225 0.993663 
-0.00855254 0.162893 0.986607 
-0.0064533 0.217741 0.975985 
-0.00885516 0.285322 0.958391 
0.0177493 0.313848 0.949307 
-0.00239147 0.385474 0.922716 
0.0061683 0.621691 0.783238 
0.0189223 0.834684 0.550404 
-0.00513469 0.98721 -0.159342 
-0.0485247 0.870309 -0.49011 
-0.0044747 0.614765 -0.788697 
-0.00164883 0.371723 -0.928342 
-0.0241372 0.320613 -0.946903 
0.00527511 0.287706 -0.957704 
0.0015866 0.216151 -0.976359 
0.00375694 0.14749 -0.989056 
0.00339537 0.0981856 -0.995162 
0.0028429 0.0652212 -0.997867 
0.0019675 0.0407853 -0.999166 
0.00112377 0.0260323 -0.99966 
0.000545708 0.0169035 -0.999857 
0.000172538 0.0101201 -0.999949 
-4.42758e-05 0.00520675 -0.999986 
-0.000260744 0.00162701 -0.999999 
-0.000381981 -0.000723734 -1 
-0.000516841 -0.00250438 -0.999997 
-0.000637386 -0.0037161 -0.999993 
-0.000719635 -0.00435571 -0.99999 
-0.000828091 -0.00455021 -0.999989 
-0.000784885 -0.00458186 -0.999989 
-0.000760586 -0.00448152 -0.99999 
-0.000633662 -0.00428105 -0.999991 
-0.000550051 -0.00400461 -0.999992 
-0.000406441 -0.0036483 -0.999993 
-0.000313586 -0.00328257 -0.999995 
-0.000210883 -0.00289998 -0.999996 
-0.000138154 -0.00253201 -0.999997 
-9.76921e-05 -0.00222596 -0.999998 
-6.59338e-05 -0.00196239 -0.999998 
-5.13756e-05 -0.00175668 -0.999998 
-4.09829e-05 -0.00161185 -0.999999 
-2.15961e-05 -0.00149047 -0.999999 
-9.56688e-06 -0.00140353 -0.999999 
7.97332e-06 -0.00134527 -0.999999 
2.86933e-05 -0.00129995 -0.999999 
7.49468e-05 -0.00128354 -0.999999 
9.98745e-05 -0.00123585 -0.999999 
0.000177586 0.000404166 -1 
-0.00023455 0.0002181 1 
-0.000162114 -0.00131147 0.999999 
-9.58993e-05 -0.00132485 0.999999 
-4.49672e-05 -0.0013466 0.999999 
-2.86614e-05 -0.00139986 0.999999 
-5.24106e-06 -0.00138637 0.999999 
1.96003e-05 -0.00148134 0.999999 
3.15029e-05 -0.00159271 0.999999 
4.60552e-05 -0.00173408 0.999998 
6.63999e-05 -0.00195934 0.999998 
9.99121e-05 -0.00223905 0.999997 
0.000164468 -0.00259375 0.999997 
0.000253324 -0.00295134 0.999996 
0.000418155 -0.00338525 0.999994 
0.000581926 -0.00373146 0.999993 
0.000805379 -0.00408274 0.999991 
0.00100535 -0.0043234 0.99999 
0.00117618 -0.00445344 0.999989 
0.00129092 -0.00443794 0.999989 
0.00135197 -0.00423068 0.99999 
0.00138438 -0.00378662 0.999992 
0.00134442 -0.00304851 0.999994 
0.00124919 -0.0019609 0.999997 
0.00114078 -0.000311129 0.999999 
0.00103617 0.00197964 0.999998 
0.000914441 0.00524125 0.999986 
0.000712672 0.00968516 0.999953 
0.000421079 0.0162581 0.999868 
-4.13317e-05 0.0262854 0.999654 
-0.000691493 0.0418514 0.999124 
-0.00042192 0.0631831 0.998002 
0.00229116 0.0963173 0.995348 
0.00171326 0.133057 0.991107 
0.0117169 0.176726 0.98419 
0.0200139 0.246397 0.968962 
0.0767161 0.309936 0.947657 
0.0500653 0.390698 0.919156 
0.0137616 0.478713 0.877863 
0.0416684 0.682257 0.729924 
-0.0382716 0.930913 0.363232 
-0.0367783 0.746684 -0.664161 
-0.0574063 0.648608 -0.758955 
-0.00691142 0.479152 -0.877705 
-0.0678592 0.292641 -0.953812 
-0.0313786 0.231643 -0.972295 
-0.0265034 0.170736 -0.98496 
-0.00713469 0.143593 -0.989611 
-0.00482457 0.100977 -0.994877 
-0.000450503 0.0683314 -0.997663 
0.000691377 0.0455774 -0.998961 
2.60684e-06 0.0292272 -0.999573 
-0.000588487 0.018549 -0.999828 
-0.000654743 0.0117836 -0.99993 
-0.000815144 0.00650113 -0.999979 
-0.000917007 0.00283438 -0.999996 
-0.0011042 0.000180107 -0.999999 
-0.00121145 -0.00175255 -0.999998 
-0.00126148 -0.00303231 -0.999995 
-0.00130523 -0.00387685 -0.999992 
-0.0013852 -0.00428018 -0.99999 
-0.00131914 -0.00448101 -0.999989 
-0.00122491 -0.00450684 -0.999989 
-0.00105046 -0.00440015 -0.99999 
-0.000876567 -0.00419638 -0.999991 
-0.000664973 -0.00387597 -0.999992 
-0.000487636 -0.00352354 -0.999994 
-0.000325648 -0.00311743 -0.999995 
-0.000207926 -0.00271862 -0.999996 
-0.000132639 -0.00237122 -0.999997 
-8.55036e-05 -0.00205795 -0.999998 
-6.11758e-05 -0.00183031 -0.999998 
-4.21022e-05 -0.00165937 -0.999999 
-3.07923e-05 -0.00152701 -0.999999 
-1.30639e-05 -0.00144301 -0.999999 
1.71774e-05 -0.00137385 -0.999999 
4.32416e-05 -0.00133274 -0.999999 
8.82451e-05 -0.00132956 -0.999999 
0.000148354 -0.00131451 -0.999999 
0.000213535 0.000156222 -1 
-0.000194677 0.000332108 1 
-0.000157749 -0.00138438 0.999999 
-0.000111152 -0.0013723 0.999999 
-6.88928e-05 -0.00137023 0.999999 
-4.3994e-05 -0.00142227 0.999999 
-2.01553e-06 -0.00146418 0.999999 
3.72223e-06 -0.0015614 0.999999 
1.81163e-05 -0.00171093 0.999999 
3.51662e-05 -0.00189881 0.999998 
6.32051e-05 -0.00218114 0.999998 
0.000110206 -0.00250882 0.999997 
0.000185879 -0.00290769 0.999996 
0.000322887 -0.00330663 0.999994 
0.000494175 -0.0037276 0.999993 
0.0007058 -0.00405708 0.999992 
0.000956976 -0.00435061 0.99999 
0.00119999 -0.00450281 0.999989 
0.00141568 -0.00451418 0.999989 
0.00158429 -0.00435685 0.999989 
0.00172578 -0.00401302 0.99999 
0.00183569 -0.00342737 0.999992 
0.00192041 -0.00257246 0.999995 
0.00195298 -0.00135667 0.999997 
0.00203356 0.000356789 0.999998 
0.00210483 0.00278604 0.999994 
0.00229692 0.0061361 0.999979 
0.00248552 0.0108664 0.999938 
0.00288695 0.0179259 0.999835 
0.00361191 0.0288877 0.999576 
0.00565426 0.0440233 0.999015 
0.00949367 0.0671676 0.997697 
0.0200736 0.0897089 0.995766 
0.0244224 0.125872 0.991746 
0.0446778 0.164742 0.985324 
0.0535482 0.224505 0.973 
0.121997 0.27229 0.95445 
0.116702 0.427244 0.896573 
0.0703243 0.517896 0.852548 
0.00548762 0.935143 0.354228 
-0.0622291 0.959447 -0.274936 
-0.121897 0.721792 -0.681291 
-0.0496589 0.534881 -0.843467 
-0.0544718 0.410147 -0.910391 
-0.118784 0.292654 -0.948812 
-0.0765092 0.203423 -0.976097 
-0.0541768 0.145466 -0.987879 
-0.0275079 0.109593 -0.993596 
-0.0143169 0.0774681 -0.996892 
-0.00727964 0.0541896 -0.998504 
-0.00410525 0.037341 -0.999294 
-0.00342456 0.024432 -0.999696 
-0.00313363 0.0157315 -0.999871 
-0.00238762 0.00978828 -0.999949 
-0.00218397 0.00528921 -0.999984 
-0.00203642 0.00217566 -0.999996 
-0.0019513 -0.000238176 -0.999998 
-0.0019405 -0.00184527 -0.999996 
-0.00180925 -0.0030302 -0.999994 
-0.00174781 -0.00378272 -0.999991 
-0.00166149 -0.00426463 -0.99999 
-0.00151447 -0.00450348 -0.999989 
-0.00131522 -0.00457669 -0.999989 
-0.00110109 -0.00450233 -0.999989 
-0.000863163 -0.00428282 -0.99999 
-0.000642564 -0.00397893 -0.999992 
-0.000438501 -0.00358515 -0.999993 
-0.000279663 -0.00315534 -0.999995 
-0.000171236 -0.00274365 -0.999996 
-9.61361e-05 -0.00234539 -0.999997 
-5.59578e-05 -0.00204658 -0.999998 
-3.33771e-05 -0.00181713 -0.999998 
-1.3877e-05 -0.00162335 -0.999999 
-1.68018e-06 -0.00151764 -0.999999 
1.58908e-05 -0.0014371 -0.999999 
4.61354e-05 -0.00139757 -0.999999 
6.18434e-05 -0.00136437 -0.999999 
9.78684e-05 -0.00136893 -0.999999 
0.000139135 -0.0013673 -0.999999 
0.000189832 0.000257253 -1 
-0.000111941 0.000338069 1 
-0.000133472 -0.00143433 0.999999 
-8.78334e-05 -0.00139544 0.999999 
-6.84626e-05 -0.00140565 0.999999 
-5.32384e-05 -0.00144981 0.999999 
-2.93161e-05 -0.00148465 0.999999 
-3.29032e-05 -0.00153946 0.999999 
-1.17496e-05 -0.00163582 0.999999 
1.18283e-06 -0.00180959 0.999998 
2.42487e-05 -0.00203871 0.999998 
5.44403e-05 -0.0023545 0.999997 
0.000107929 -0.00272349 0.999996 
0.000214306 -0.00321436 0.999995 
0.00035175 -0.00363285 0.999993 
0.000549078 -0.00406685 0.999992 
0.000788 -0.00437316 0.99999 
0.00106612 -0.00460304 0.999989 
0.001339 -0.00466444 0.999988 
0.00159755 -0.00455167 0.999988 
0.00182226 -0.00426624 0.999989 
0.00203268 -0.00376027 0.999991 
0.00223776 -0.00301442 0.999993 
0.00243208 -0.00197603 0.999995 
0.00263982 -0.000607126 0.999996 
0.0029022 0.00134616 0.999995 
0.00329149 0.00398364 0.999987 
0.00390256 0.00776325 0.999962 
0.00484178 0.0131286 0.999902 
0.00657716 0.0215178 0.999747 
0.0101279 0.0332584 0.999395 
0.0162389 0.0503401 0.9986 
0.0290232 0.0699836 0.997126 
0.0445269 0.100966 0.993893 
0.0700504 0.126074 0.989545 
0.0886016 0.174558 0.980652 
0.121012 0.210696 0.970033 
0.162954 0.363909 0.917069 
0.12987 0.626159 0.768804 
0.0892018 0.749768 0.65566 
-0.009739 0.993529 0.113164 
-0.105618 0.83432 -0.541068 
-0.126297 0.506016 -0.853227 
-0.130638 0.390138 -0.911442 
-0.134536 0.208379 -0.968751 
-0.0983236 0.144096 -0.984667 
-0.0769394 0.098052 -0.992203 
-0.0497943 0.094972 -0.994234 
-0.0300184 0.0723281 -0.996929 
-0.0183119 0.0532194 -0.998415 
-0.011344 0.0375609 -0.99923 
-0.00780787 0.0260181 -0.999631 
-0.00600836 0.0170125 -0.999837 
-0.00443075 0.0104631 -0.999935 
-0.00354595 0.00620456 -0.999974 
-0.00307466 0.00281755 -0.999991 
-0.00269111 0.000425176 -0.999996 
-0.00250751 -0.00133921 -0.999996 
-0.00225762 -0.00267375 -0.999994 
-0.00207218 -0.00354469 -0.999992 
-0.00187811 -0.00414202 -0.99999 
-0.00165538 -0.00452916 -0.999988 
-0.00140599 -0.00469312 -0.999988 
-0.00114623 -0.00469942 -0.999988 
-0.00089536 -0.00452458 -0.999989 
-0.000651387 -0.00424292 -0.999991 
-0.000449527 -0.00385619 -0.999992 
-0.000283585 -0.00340389 -0.999994 
-0.000166988 -0.0029485 -0.999996 
-9.31765e-05 -0.00252745 -0.999997 
-4.4836e-05 -0.0021716 -0.999998 
-1.73446e-05 -0.001902 -0.999998 
-9.75487e-07 -0.00169848 -0.999999 
1.94758e-05 -0.00155258 -0.999999 
3.10299e-05 -0.00146994 -0.999999 
5.54457e-05 -0.00141812 -0.999999 
7.62586e-05 -0.00138542 -0.999999 
9.89853e-05 -0.00139057 -0.999999 
0.000137611 -0.00141139 -0.999999 
0.000128834 0.000322375 -1 
-5.02472e-05 0.000253563 1 
-6.83552e-05 -0.00142474 0.999999 
-0.00010384 -0.00140697 0.999999 
-7.39827e-05 -0.00139962 0.999999 
-6.56874e-05 -0.00141673 0.999999 
-4.87943e-05 -0.00150153 0.999999 
-3.36949e-05 -0.00161466 0.999999 
-1.96696e-05 -0.0017363 0.999998 
1.21338e-06 -0.00196823 0.999998 
2.69865e-05 -0.00223446 0.999998 
6.76926e-05 -0.00260398 0.999997 
0.000138417 -0.00304688 0.999995 
0.000243696 -0.00353875 0.999994 
0.000391488 -0.00397357 0.999992 
0.000599593 -0.00438968 0.99999 
0.000846493 -0.00465776 0.999989 
0.00112262 -0.00482425 0.999988 
0.00141278 -0.00481024 0.999987 
0.00168262 -0.0046294 0.999988 
0.00194402 -0.00425226 0.999989 
0.00219725 -0.00367352 0.999991 
0.00245841 -0.00286111 0.999993 
0.00273063 -0.0018395 0.999995 
0.00305027 -0.000469112 0.999995 
0.00347468 0.00128678 0.999993 
0.00409544 0.00369926 0.999985 
0.00507571 0.00687176 0.999964 
0.00662824 0.0115961 0.999911 
0.00931245 0.0181748 0.999791 
0.0141126 0.0272746 0.999528 
0.0218531 0.039586 0.998977 
0.0376481 0.0548755 0.997783 
0.058526 0.0782615 0.995213 
0.0882438 0.082927 0.992641 
0.113884 0.123746 0.985757 
0.152734 0.127875 0.979959 
0.221809 0.299582 0.927929 
0.175969 0.542436 0.821461 
0.108666 0.853891 0.508981 
-0.0194991 0.999463 -0.0263522 
-0.145596 0.882128 -0.447942 
-0.256262 0.541164 -0.800919 
-0.199489 0.295665 -0.93423 
-0.195142 0.179794 -0.964154 
-0.138057 0.110712 -0.984217 
-0.0778173 0.0679822 -0.994647 
-0.0444886 0.058788 -0.997279 
-0.0289036 0.045169 -0.998561 
-0.0188145 0.0346917 -0.999221 
-0.0128074 0.0248165 -0.99961 
-0.00926262 0.0172919 -0.999808 
-0.00649222 0.0113189 -0.999915 
-0.00496011 0.00677277 -0.999965 
-0.00400033 0.00378022 -0.999985 
-0.00336549 0.00124794 -0.999994 
-0.00297083 -0.000520986 -0.999995 
-0.00262851 -0.00203879 -0.999994 
-0.00236595 -0.00308272 -0.999992 
-0.00211396 -0.00384714 -0.99999 
-0.00185414 -0.00438548 -0.999989 
-0.00156165 -0.00475077 -0.999987 
-0.00129091 -0.00488262 -0.999987 
-0.00101022 -0.00484668 -0.999988 
-0.000768403 -0.00464145 -0.999989 
-0.000542028 -0.00432105 -0.999991 
-0.000363709 -0.00388803 -0.999992 
-0.000225252 -0.00341236 -0.999994 
-0.000129818 -0.00293488 -0.999996 
-6.91154e-05 -0.00250959 -0.999997 
-2.85487e-05 -0.00215369 -0.999998 
-1.24229e-06 -0.00187286 -0.999998 
1.69697e-05 -0.00168059 -0.999999 
3.44192e-05 -0.00155605 -0.999999 
4.67422e-05 -0.00147328 -0.999999 
5.97862e-05 -0.00142078 -0.999999 
7.27158e-05 -0.00139408 -0.999999 
7.6864e-05 -0.00139579 -0.999999 
9.39351e-05 -0.00142238 -0.999999 
7.37789e-05 0.000229162 -1 
9.21533e-06 0.000284288 1 
-1.48504e-05 -0.00140531 0.999999 
-6.52872e-05 -0.00140245 0.999999 
-4.88298e-05 -0.00139384 0.999999 
-5.53102e-05 -0.00144115 0.999999 
-4.20374e-05 -0.00149589 0.999999 
-3.79193e-05 -0.0015836 0.999999 
-2.00413e-05 -0.00172121 0.999999 
-6.39812e-06 -0.00188866 0.999998 
2.22104e-05 -0.00216056 0.999998 
5.42636e-05 -0.00248465 0.999997 
0.000107692 -0.00294424 0.999996 
0.000182949 -0.00342395 0.999994 
0.00029779 -0.00393062 0.999992 
0.000456333 -0.00436825 0.99999 
0.000671526 -0.00473865 0.999989 
0.00091574 -0.00495136 0.999987 
0.00119561 -0.00501447 0.999987 
0.00146648 -0.00489583 0.999987 
0.00174041 -0.00458141 0.999988 
0.00200408 -0.00407106 0.99999 
0.00227368 -0.00335194 0.999992 
0.00255156 -0.00244526 0.999994 
0.00289938 -0.0013099 0.999995 
0.0033295 5.92911e-05 0.999994 
0.00396727 0.00183584 0.99999 
0.00494029 0.00408924 0.999979 
0.00656605 0.00731464 0.999952 
0.00921678 0.0116101 0.99989 
0.0137548 0.0174104 0.999754 
0.0213411 0.0247224 0.999467 
0.0335335 0.0346462 0.998837 
0.0570745 0.0466059 0.997282 
0.0831666 0.0402953 0.995721 
0.124071 0.0583321 0.990557 
0.194976 0.0959428 0.976104 
0.181844 0.205567 0.9616 
0.292538 0.404972 0.866267 
0.235858 0.482235 0.843695 
0.00969033 0.970226 0.242009 
-0.158257 0.612339 -0.774594 
-0.224657 0.421224 -0.878692 
-0.283511 0.233765 -0.930041 
-0.144825 0.0474723 -0.988318 
-0.105144 0.0550884 -0.99293 
-0.0719234 0.0250862 -0.997095 
-0.0561709 0.0410881 -0.997575 
-0.0377281 0.0333088 -0.998733 
-0.0246934 0.0266171 -0.999341 
-0.0168794 0.0205831 -0.999646 
-0.0117473 0.0146152 -0.999824 
-0.00805022 0.0102901 -0.999915 
-0.00575558 0.00629551 -0.999964 
-0.00435484 0.00319815 -0.999985 
-0.0035887 0.00121435 -0.999993 
-0.00302849 -0.000594416 -0.999995 
-0.00268253 -0.00188546 -0.999995 
-0.00234675 -0.00303153 -0.999993 
-0.00207715 -0.00384339 -0.99999 
-0.00180513 -0.00443847 -0.999989 
-0.00152683 -0.00483899 -0.999987 
-0.00122146 -0.00505231 -0.999986 
-0.000968902 -0.00504142 -0.999987 
-0.000718987 -0.00485587 -0.999988 
-0.00051875 -0.00454464 -0.99999 
-0.000352285 -0.00409839 -0.999992 
-0.000228465 -0.00360993 -0.999993 
-0.000139439 -0.00310246 -0.999995 
-7.93822e-05 -0.0026337 -0.999997 
-4.07124e-05 -0.00226277 -0.999997 
-1.04328e-05 -0.00194126 -0.999998 
1.33851e-05 -0.00171731 -0.999999 
2.94571e-05 -0.00157006 -0.999999 
4.47769e-05 -0.00147303 -0.999999 
4.54648e-05 -0.00142029 -0.999999 
5.58292e-05 -0.00139344 -0.999999 
4.5027e-05 -0.00138962 -0.999999 
5.11635e-05 -0.00141558 -0.999999 
2.2352e-05 0.000286312 -1 
6.3003e-05 0.000258857 1 
3.77008e-05 -0.00137915 0.999999 
-3.04117e-05 -0.00138778 0.999999 
-1.44908e-05 -0.00138206 0.999999 
-3.58553e-05 -0.00142271 0.999999 
-2.05489e-05 -0.00149692 0.999999 
-1.81503e-05 -0.0016103 0.999999 
1.87942e-06 -0.00176513 0.999998 
1.65355e-05 -0.00196708 0.999998 
4.7679e-05 -0.00225703 0.999997 
8.00016e-05 -0.00265136 0.999996 
0.000128401 -0.00311581 0.999995 
0.000195999 -0.00362583 0.999993 
0.000290763 -0.00413199 0.999991 
0.000432367 -0.00458708 0.999989 
0.000601798 -0.00492542 0.999988 
0.000828505 -0.00513831 0.999986 
0.00106053 -0.00517296 0.999986 
0.00129818 -0.00501198 0.999987 
0.00154893 -0.00466372 0.999988 
0.00180305 -0.00410396 0.99999 
0.00204831 -0.00336783 0.999992 
0.00231713 -0.0024602 0.999994 
0.00266546 -0.00142696 0.999995 
0.00315392 -0.00019807 0.999995 
0.00386749 0.00122903 0.999992 
0.00502881 0.00302203 0.999983 
0.0068363 0.00518042 0.999963 
0.00982076 0.00804347 0.999919 
0.0146586 0.0114063 0.999827 
0.0222092 0.0148516 0.999643 
0.0354436 0.0214927 0.999141 
0.0527479 0.0212626 0.998381 
0.0718344 0.00518711 0.997403 
0.113964 0.0111489 0.993422 
0.179445 0.0315301 0.983263 
0.26291 0.18906 0.946116 
0.350422 0.274302 0.895524 
0.243108 0.703217 0.66812 
0.0160252 0.98867 0.149248 
-0.240268 0.722663 -0.648097 
-0.355922 0.333427 -0.873009 
-0.209268 0.0784064 -0.97471 
-0.151717 0.00305836 -0.988419 
-0.093212 0.00765262 -0.995617 
-0.0545129 -0.000582582 -0.998513 
-0.0460381 0.0160405 -0.998811 
-0.0317302 0.0170593 -0.999351 
-0.0220495 0.0142719 -0.999655 
-0.015476 0.0119152 -0.999809 
-0.010229 0.00890733 -0.999908 
-0.00708475 0.00632041 -0.999955 
-0.00502249 0.00364544 -0.999981 