# vtk DataFile Version 3.0 
Exported using Morpho https://github.com/Morpho-lang/morpho 
ASCII 
DATASET UNSTRUCTURED_GRID 

POINTS 1978 float 
-12 -4 4.22998e-16 
-11.585 -4 -1.05494e-14 
-11.2837 -4 3.83261e-16 
-10.9561 -4 1.79208e-14 
-10.6507 -4 2.34627e-14 
-10.3181 -4 1.40538e-14 
-9.98818 -4 -1.91444e-15 
-9.67127 -4 -5.90226e-15 
-9.32504 -4 -2.66192e-15 
-8.99669 -4 2.29544e-15 
-8.68694 -4 7.00306e-15 
-8.37343 -4 8.80409e-15 
-8.06965 -4 7.65826e-15 
-7.77152 -4 5.0044e-15 
-7.47233 -4 1.34174e-15 
-7.18239 -4 4.19329e-16 
-6.87306 -4 2.6579e-15 
-6.57268 -4 7.78406e-15 
-6.27174 -4 1.56687e-14 
-5.97114 -4 2.22681e-14 
-5.67129 -4 2.48487e-14 
-5.37467 -4 1.95701e-14 
-5.08744 -4 -8.8117e-16 
-4.79003 -4 -4.05503e-14 
-4.50057 -4 -1.05811e-13 
-4.20852 -4 -2.23292e-13 
-3.88539 -4 -3.96855e-13 
-3.56084 -4 -6.97525e-13 
-3.21843 -4 -1.1199e-12 
-2.87035 -4 -1.68949e-12 
-2.48667 -4 -2.02117e-12 
-2.18584 -4 -1.96859e-12 
-1.93441 -4 -1.83926e-12 
-1.72569 -4 -1.92742e-12 
-1.43137 -4 -2.04827e-12 
-1.22395 -4 -1.65765e-12 
-0.891153 -4 -1.29052e-12 
-0.670993 -4 -1.04787e-13 
-0.493667 -4 1.31406e-12 
0.119531 -4 -2.31927e-12 
0.28389 -4 1.77836e-12 
0.790828 -4 -1.59964e-12 
0.959558 -4 1.41373e-12 
1.19734 -4 1.39867e-12 
1.40302 -4 1.55278e-12 
1.63143 -4 2.17334e-12 
1.92499 -4 2.22472e-12 
2.20229 -4 2.06554e-12 
2.51189 -4 1.98807e-12 
2.8788 -4 1.74724e-12 
3.26996 -4 1.25225e-12 
3.6056 -4 7.29071e-13 
3.94877 -4 4.42945e-13 
4.2471 -4 2.30497e-13 
4.52764 -4 1.09056e-13 
4.8032 -4 3.82472e-14 
5.09968 -4 3.0827e-16 
5.38999 -4 -1.99254e-14 
5.68885 -4 -2.46106e-14 
5.98673 -4 -2.12488e-14 
6.28352 -4 -1.64211e-14 
6.5819 -4 -1.15215e-14 
6.88008 -4 -5.97601e-15 
7.16371 -4 -1.76628e-15 
7.45002 -4 8.8763e-16 
7.75234 -4 4.2469e-16 
8.05949 -4 -1.21922e-15 
8.35246 -4 -3.21444e-15 
8.67598 -4 -4.32122e-15 
8.95854 -4 -4.76266e-15 
9.30888 -4 -3.73785e-15 
9.623 -4 -3.97923e-16 
9.91421 -4 -1.05292e-15 
10.2649 -4 -1.09844e-14 
10.5738 -4 -2.18773e-14 
10.9735 -4 -1.83422e-14 
11.3083 -4 3.82586e-15 
11.5912 -4 1.18986e-14 
12 -4 -4.95401e-16 
-12 -3.63302 -7.04565e-16 
-11.6952 -3.72172 2.56579e-15 
-11.3422 -3.61858 3.72449e-15 
-11.0343 -3.65674 1.05763e-15 
-10.7113 -3.6414 -7.29391e-16 
-10.3969 -3.67128 -5.13268e-15 
-10.0619 -3.66517 -3.71537e-15 
-9.73724 -3.659 -7.25314e-16 
-9.40751 -3.6839 6.11864e-16 
-9.06908 -3.66897 -2.11851e-16 
-8.74814 -3.65924 -1.36466e-15 
-8.43229 -3.67211 -2.50482e-15 
-8.11299 -3.65799 -2.97907e-15 
-7.80508 -3.6527 -3.85053e-15 
-7.50085 -3.65043 -4.35785e-15 
-7.20265 -3.6495 -6.00061e-15 
-6.89744 -3.67573 5.50283e-16 
-6.58587 -3.66743 9.02732e-16 
-6.27787 -3.66863 1.46492e-15 
-5.9749 -3.67082 2.00002e-15 
-5.67226 -3.67186 2.99255e-15 
-5.37703 -3.66637 4.06048e-15 
-5.08612 -3.66415 5.00285e-15 
-4.7766 -3.67165 5.36251e-15 
-4.47321 -3.65222 7.07515e-15 
-4.14151 -3.66057 8.97045e-15 
-3.80641 -3.60852 1.58469e-14 
-3.46967 -3.60694 8.25317e-15 
-3.13056 -3.61277 3.37678e-15 
-2.77504 -3.68189 9.17329e-15 
-2.47087 -3.68155 1.45897e-14 
-2.18503 -3.72239 1.15349e-14 
-1.93352 -3.73947 2.5219e-14 
-1.66293 -3.85848 -1.98581e-14 
-1.4502 -3.81933 1.00694e-13 
-1.08157 -3.91175 6.84484e-15 
-0.856931 -3.88479 6.6428e-15 
-0.55128 -3.86415 -5.46887e-14 
-0.329872 -3.95869 -6.55229e-14 
-0.0405138 -3.92573 7.98422e-14 
0.360256 -3.84684 -4.0087e-15 
0.568715 -3.93113 -8.76762e-14 
0.790091 -3.82509 4.61459e-15 
1.13021 -3.85977 -4.02522e-14 
1.38127 -3.82707 -2.38187e-14 
1.68241 -3.84664 6.88594e-15 
1.95748 -3.78193 -9.09873e-15 
2.23085 -3.72775 -5.27596e-15 
2.54476 -3.70053 -6.23886e-15 
2.87012 -3.66169 2.99462e-15 
3.22383 -3.65211 5.85243e-15 
3.585 -3.60354 -9.90719e-15 
3.91059 -3.63837 -9.78795e-15 
4.24747 -3.62392 -9.75527e-15 
4.55896 -3.65156 -5.92042e-15 
4.87212 -3.6835 -5.79584e-15 
5.17462 -3.67703 -4.71924e-15 
5.47279 -3.67667 -3.86311e-15 
5.77019 -3.66672 -2.83329e-15 
6.06592 -3.65441 -1.96835e-15 
6.36182 -3.64929 -1.40266e-15 
6.66401 -3.65449 -9.23239e-16 
6.95833 -3.64362 -5.851e-16 
7.25172 -3.6529 4.8678e-15 
7.55246 -3.66757 3.43918e-15 
7.85341 -3.66513 2.28435e-15 
8.14947 -3.63988 1.64293e-15 
8.45217 -3.67045 1.52363e-15 
8.74301 -3.62883 9.27365e-16 
9.06663 -3.69966 3.52894e-16 
9.38886 -3.66467 1.26831e-15 
9.69529 -3.63694 1.94926e-15 
10.0255 -3.69414 4.53302e-15 
10.3454 -3.64293 3.13669e-15 
10.7098 -3.71736 1.928e-15 
11.0444 -3.66185 -4.68985e-15 
11.3501 -3.60055 -3.63775e-15 
11.7023 -3.72327 -3.27846e-15 
12 -3.62024 6.82042e-16 
-12 -3.32403 8.5575e-16 
-11.6317 -3.37524 -2.43999e-15 
-11.2912 -3.26364 -1.23961e-15 
-10.9742 -3.3102 5.36193e-15 
-10.6516 -3.29611 4.93479e-15 
-10.3285 -3.34182 4.08131e-16 
-10.0039 -3.32575 1.61947e-16 
-9.69554 -3.31021 -7.19814e-17 
-9.39044 -3.35995 -1.20079e-15 
-9.07362 -3.333 -5.56683e-16 
-8.77974 -3.30385 -5.10331e-16 
-8.47778 -3.33938 -1.33301e-15 
-8.16607 -3.3325 -2.2762e-15 
-7.84757 -3.31356 -3.32746e-15 
-7.54317 -3.30736 -4.28424e-15 
-7.24045 -3.29911 -5.83924e-15 
-6.94022 -3.34457 6.1193e-16 
-6.63375 -3.33829 8.69187e-16 
-6.32838 -3.34266 1.26735e-15 
-6.02255 -3.33885 1.65824e-15 
-5.72479 -3.34546 2.2699e-15 
-5.42531 -3.33662 2.97617e-15 
-5.1269 -3.3207 2.90647e-15 
-4.82454 -3.3503 4.43402e-15 
-4.50558 -3.30999 5.9119e-15 
-4.17911 -3.31988 7.48359e-15 
-3.85277 -3.25001 8.95969e-15 
-3.53911 -3.25457 8.42325e-15 
-3.22767 -3.26426 4.39633e-15 
-2.91802 -3.34267 1.23504e-14 
-2.63858 -3.3757 -2.30305e-14 
-2.35535 -3.43473 4.39577e-14 
-2.08054 -3.4894 8.97767e-15 
-1.69567 -3.66971 1.01967e-13 
-1.45907 -3.6537 2.60271e-14 
-1.2466 -3.81419 -2.88691e-14 
-0.998442 -3.78407 -3.60146e-14 
-0.723094 -3.83759 -5.24446e-14 
-0.210648 -3.85148 -4.42137e-14 
0.123936 -3.83197 -2.67024e-16 
0.408301 -3.63925 -5.19387e-14 
0.58372 -3.7564 -3.78089e-14 
0.968365 -3.77793 1.24192e-14 
1.22622 -3.69947 -1.29826e-13 
1.53223 -3.69399 -9.00294e-15 
1.76441 -3.63346 -3.15505e-15 
1.99607 -3.52637 -4.15733e-14 
2.26665 -3.45644 -1.60724e-14 
2.55387 -3.39888 3.58651e-15 
2.87071 -3.35935 -1.11178e-14 
3.20641 -3.32964 9.92732e-15 
3.52577 -3.26793 -8.73191e-15 
3.85262 -3.26301 -7.74095e-15 
4.17096 -3.28212 -1.02672e-14 
4.50206 -3.30073 -4.80941e-15 
4.80952 -3.3521 -4.89045e-15 
5.11248 -3.3539 -3.48318e-15 
5.40886 -3.3498 -3.00142e-15 
5.70351 -3.33845 -2.25561e-15 
6.00165 -3.32056 -1.63141e-15 
6.3042 -3.30641 -1.07392e-15 
6.61012 -3.31643 -8.20592e-16 
6.91676 -3.30168 -6.44079e-16 
7.22158 -3.31137 6.5702e-15 
7.52334 -3.33273 4.68938e-15 
7.827 -3.3233 2.60961e-15 
8.12288 -3.29191 1.65791e-15 
8.42231 -3.31838 1.24421e-15 
8.73116 -3.2963 8.73639e-16 
9.05011 -3.37307 7.20785e-16 
9.36734 -3.32838 9.12053e-16 
9.67631 -3.29233 4.45339e-16 
9.99109 -3.36102 1.05686e-15 
10.3018 -3.29576 -2.02876e-16 
10.6334 -3.3969 -5.52915e-15 
10.9695 -3.32143 -6.01025e-15 
11.2889 -3.25204 2.07163e-16 
11.6356 -3.37261 1.91388e-15 
12 -3.30558 -1.44474e-15 
-12 -2.99385 6.07346e-16 
-11.6564 -3.0553 1.20167e-16 
-11.3012 -2.94696 5.79283e-16 
-10.948 -2.96517 -7.08859e-17 
-10.6122 -2.95779 2.61892e-15 
-10.3001 -3.00639 1.2506e-15 
-9.99254 -2.97383 1.59236e-15 
-9.67091 -2.98005 -1.63046e-16 
-9.35301 -3.0193 -1.89073e-15 
-9.05675 -2.97266 -1.68059e-15 
-8.74288 -2.96848 -6.03741e-16 
-8.43723 -3.00261 -2.68223e-16 
-8.11823 -3.00527 -1.2948e-16 
-7.81432 -2.97231 -2.22636e-16 
-7.50627 -2.96974 -1.54118e-15 
-7.20825 -2.95676 -2.16165e-15 
-6.91338 -3.01527 -4.53047e-15 
-6.60737 -3.00869 -3.23686e-15 
-6.30539 -3.01642 -2.88539e-15 
-6.0119 -3.00468 -3.08138e-15 
-5.71716 -3.01436 1.81234e-16 
-5.4251 -2.99971 -9.17341e-16 
-5.11961 -2.98715 -8.13632e-16 
-4.80386 -3.0121 1.11659e-15 
-4.48218 -2.96696 -3.63388e-16 
-4.15994 -2.98181 4.66573e-15 
-3.83872 -2.91778 -5.55006e-15 
-3.54427 -2.94002 -4.03772e-15 
-3.28371 -2.96864 -2.57668e-15 
-3.01615 -3.03438 4.8155e-15 
-2.77043 -3.09642 -1.10262e-14 
-2.39933 -3.19792 -1.71572e-14 
-2.15315 -3.27349 3.38972e-14 
-1.85603 -3.50502 -3.39571e-14 
-1.61085 -3.49541 3.31468e-14 
-1.30763 -3.58978 -4.59556e-14 
-1.14848 -3.67802 1.34763e-14 
-0.868135 -3.70181 9.55664e-14 
-0.382514 -3.81154 1.31949e-14 
-0.0841787 -3.76189 5.35442e-14 
0.217697 -3.70717 -3.6067e-14 
0.58808 -3.57815 -4.62824e-14 
1.06273 -3.61491 1.37756e-13 
1.38328 -3.5871 -4.92766e-14 
1.63317 -3.49567 -3.5177e-14 
1.85892 -3.38171 2.70224e-14 
2.13295 -3.27435 -1.03852e-14 
2.41415 -3.18189 3.09452e-16 
2.69725 -3.12376 1.41783e-14 
2.98171 -3.08539 -1.84461e-14 
3.27102 -3.02684 -5.25289e-16 
3.53749 -2.94196 8.22743e-15 
3.80549 -2.94765 3.10466e-15 
4.11698 -2.93775 -3.44204e-15 
4.44813 -2.96151 8.93218e-16 
4.78113 -3.00162 -5.21336e-15 
5.0908 -3.02325 3.90368e-15 
5.3975 -3.01537 2.2637e-15 
5.69781 -3.00752 -2.06972e-17 
5.99859 -2.9915 1.11419e-15 
6.30077 -2.97144 2.10707e-15 
6.59997 -2.98403 3.34346e-15 
6.91522 -2.97869 2.41173e-15 
7.22925 -2.97966 2.5477e-15 
7.5337 -2.99859 2.35879e-15 
7.83582 -2.98194 1.01454e-15 
8.13497 -2.95135 6.56226e-16 
8.43776 -2.97742 4.55365e-16 
8.7472 -2.96517 6.3233e-16 
9.05562 -3.0455 1.14187e-15 
9.36387 -2.98961 1.47185e-15 
9.65899 -2.94413 2.73816e-16 
9.97478 -3.01567 -1.62219e-15 
10.3094 -2.9673 -1.34671e-15 
10.6456 -3.06183 -3.39678e-15 
10.9746 -2.9707 7.28841e-16 
11.3248 -2.92183 -7.80307e-16 
11.6591 -3.05171 6.04122e-16 
12 -2.96181 -1.22002e-15 
-12 -2.68408 -3.71454e-16 
-11.6456 -2.73065 -2.80908e-15 
-11.3139 -2.62047 6.23885e-16 
-10.9602 -2.64241 -4.17988e-15 
-10.6135 -2.63259 -7.39829e-16 
-10.2794 -2.65529 5.6676e-16 
-9.94575 -2.64701 7.2834e-16 
-9.61879 -2.65796 -1.24875e-15 
-9.32188 -2.66407 -2.81478e-15 
-9.00067 -2.64108 -1.87216e-15 
-8.69264 -2.63164 -5.67346e-16 
-8.38111 -2.6797 1.25207e-17 
-8.08243 -2.65951 7.04311e-16 
-7.76618 -2.64539 4.56022e-16 
-7.46326 -2.6302 -9.97188e-17 
-7.14469 -2.63631 5.97913e-16 
-6.84626 -2.6913 7.59999e-16 
-6.53952 -2.68125 2.64721e-15 
-6.24787 -2.67845 5.5769e-15 
-5.94881 -2.67398 -6.51738e-16 
[...]
POINT_DATA 1978 
VECTORS vectors float
0.000177554 -0.00067344 1 
-0.000249808 -0.0115734 0.999933 
-0.000159385 0.000669312 1 
8.47136e-05 0.0148989 0.999889 
5.95119e-06 0.0169511 0.999856 
-0.000123679 0.00849113 0.999964 
-1.60762e-05 -0.000909222 1 
-3.49035e-05 -0.00314157 0.999995 
-0.000139308 -0.0012956 0.999999 
-8.63046e-06 0.00146037 0.999999 
1.87884e-05 0.00397361 0.999992 
-1.34088e-05 0.0049249 0.999988 
4.7691e-05 0.0044878 0.99999 
3.67569e-05 0.00296645 0.999996 
5.99287e-05 0.000978739 1 
8.05794e-05 0.000452233 1 
-5.64859e-06 0.00193347 0.999998 
1.16084e-05 0.00629858 0.99998 
5.50305e-05 0.0142796 0.999898 
4.02933e-05 0.025164 0.999683 
2.0708e-05 0.0382804 0.999267 
5.69906e-05 0.0531976 0.998584 
9.34015e-05 0.0687162 0.997636 
5.74853e-05 0.0876282 0.996153 
6.48396e-05 0.107182 0.994239 
2.68613e-05 0.127361 0.991856 
-5.14555e-05 0.147705 0.989032 
-8.22312e-05 0.167165 0.985929 
2.33694e-06 0.185623 0.982621 
-0.000114654 0.204531 0.97886 
-0.000181975 0.227562 0.973764 
0.000215985 0.24553 0.969389 
0.000399884 0.268428 0.9633 
0.00018956 0.29373 0.955889 
2.34678e-05 0.369467 0.929244 
-4.487e-05 0.445654 0.895205 
-3.06681e-05 0.629886 0.776688 
-0.000221256 0.764269 0.644898 
0.000105434 0.870412 0.492324 
-0.000107962 0.994016 -0.109235 
0.000177819 0.9568 -0.290747 
-0.00017078 0.673577 -0.739117 
5.18197e-05 0.588043 -0.80883 
6.8783e-05 0.480614 -0.876932 
-0.000113466 0.394868 -0.918738 
-0.000144462 0.327089 -0.944994 
-8.89304e-05 0.281717 -0.959497 
-1.36056e-05 0.25132 -0.967904 
5.2321e-05 0.224955 -0.974369 
0.000126193 0.196192 -0.980566 
0.000101277 0.178935 -0.983861 
6.51408e-05 0.162847 -0.986651 
3.69584e-05 0.145114 -0.989415 
-7.37758e-05 0.127606 -0.991825 
-0.000159401 0.106333 -0.994331 
-9.98329e-05 0.0864778 -0.996254 
-3.69984e-05 0.0670094 -0.997752 
-5.56999e-05 0.0504736 -0.998725 
-2.93579e-05 0.0361906 -0.999345 
-5.29355e-05 0.0248208 -0.999692 
-6.0059e-05 0.0160959 -0.99987 
2.09547e-07 0.00950713 -0.999955 
-8.14882e-05 0.00468884 -0.999989 
-0.000173463 0.0015111 -0.999999 
-4.44569e-05 -0.000296822 -1 
8.92367e-06 -0.000188992 -1 
-6.09214e-05 0.000737909 -1 
3.10951e-05 0.00172694 -0.999999 
-8.65261e-05 0.00251422 -0.999997 
1.50339e-05 0.00264701 -0.999996 
0.000158748 0.00191782 -0.999998 
-0.00012174 0.000550415 -1 
4.57931e-05 0.000826706 -1 
6.16663e-05 0.00713774 -0.999975 
0.000117836 0.0131519 -0.999914 
0.000163864 0.0120154 -0.999928 
4.47417e-05 -0.00396001 -0.999992 
0.000199597 -0.0139996 -0.999902 
-0.000181905 -0.000626652 -1 
-0.000421485 5.95814e-05 1 
0.00716099 -0.011817 0.999905 
0.0115446 -0.00691459 0.999909 
0.0142141 0.00384245 0.999892 
0.0158844 0.00886138 0.999835 
0.0171929 0.00719377 0.999826 
0.0184315 0.0016295 0.999829 
0.0196761 -0.00137727 0.999805 
0.01966 -0.00158842 0.999805 
0.0202283 0.000146196 0.999795 
0.0212397 0.00226517 0.999772 
0.0213194 0.00377772 0.999766 
0.0215039 0.00392336 0.999761 
0.0215997 0.00310179 0.999762 
0.020857 0.00203078 0.99978 
0.020158 0.00194806 0.999795 
0.0181479 0.00373854 0.999828 
0.0166823 0.0085547 0.999824 
0.014645 0.0163127 0.99976 
0.0118027 0.0269125 0.999568 
0.00894688 0.0401332 0.999154 
0.00532011 0.0554331 0.998448 
0.000196114 0.0718238 0.997417 
-0.00592249 0.089485 0.995971 
-0.014639 0.110106 0.993812 
-0.0241219 0.132115 0.990941 
-0.0431396 0.153972 0.987133 
-0.0658864 0.178232 0.98178 
-0.0889522 0.201084 0.975527 
-0.0905063 0.219173 0.971479 
-0.103407 0.236883 0.966019 
-0.099526 0.254283 0.961995 
-0.0980414 0.275824 0.956195 
-0.0519401 0.313416 0.948194 
-0.0637273 0.372499 0.925842 
-0.0315784 0.518744 0.854346 
-0.0309901 0.642038 0.766046 
-0.021008 0.830173 0.557109 
0.00105761 0.941444 0.337166 
0.00300203 0.998887 0.0470733 
0.0111137 0.928037 -0.372321 
0.00828478 0.844147 -0.536048 
0.0528274 0.665697 -0.74435 
0.0441699 0.515407 -0.855806 
0.0571266 0.396282 -0.91635 
0.0577484 0.320169 -0.945599 
0.07829 0.279731 -0.956881 
0.0958859 0.252236 -0.962903 
0.0979731 0.22835 -0.968637 
0.0977154 0.211263 -0.972533 
0.0824996 0.191961 -0.977929 
0.066412 0.171102 -0.983013 
0.0416821 0.1496 -0.987868 
0.0272756 0.127474 -0.991467 
0.0150663 0.106317 -0.994218 
0.00453642 0.0842463 -0.996435 
-0.00194528 0.065035 -0.997881 
-0.0069387 0.0484544 -0.998801 
-0.0103687 0.0350172 -0.999333 
-0.0129739 0.0243554 -0.999619 
-0.0153374 0.0159654 -0.999755 
-0.0173297 0.00948216 -0.999805 
-0.0194615 0.00504913 -0.999798 
-0.0208176 0.00223944 -0.999781 
-0.0211878 0.000701394 -0.999775 
-0.0220578 0.000640103 -0.999756 
-0.0226845 0.00109073 -0.999742 
-0.0218942 0.00152958 -0.999759 
-0.022901 0.00156546 -0.999737 
-0.0200779 0.00172628 -0.999797 
-0.0208962 0.000974397 -0.999781 
-0.0207329 0.00104768 -0.999785 
-0.018694 0.00298529 -0.999821 
-0.0180756 0.00623914 -0.999817 
-0.0145833 0.009528 -0.999848 
-0.0141696 0.00239293 -0.999897 
-0.0115792 -0.00913852 -0.999891 
-0.00694781 -0.0128837 -0.999893 
0.000475337 5.10563e-05 -1 
-0.000145282 6.73472e-05 1 
0.00745454 -0.0143083 0.99987 
0.00982099 -0.0133927 0.999862 
0.0142501 -0.00255622 0.999895 
0.0171147 0.00289378 0.999849 
0.0205692 0.003189 0.999783 
0.0224404 0.000681683 0.999748 
0.0235903 -0.00135563 0.999721 
0.024478 -0.00198296 0.999698 
0.0252158 -0.000901414 0.999682 
0.025893 0.000782319 0.999664 
0.0262971 0.00252346 0.999651 
0.0258537 0.00337155 0.99966 
0.0250089 0.00340304 0.999681 
0.0236903 0.00316414 0.999714 
0.0218432 0.003579 0.999755 
0.02066 0.00531903 0.999772 
0.0178671 0.0101211 0.999789 
0.0143644 0.0178413 0.999738 
0.00957166 0.0288071 0.999539 
0.0039923 0.0421228 0.999104 
-0.00341463 0.0580999 0.998305 
-0.0137456 0.0762948 0.996991 
-0.0230824 0.0952221 0.995188 
-0.041051 0.118884 0.992059 
-0.0602131 0.142224 0.988001 
-0.0975353 0.175285 0.979675 
-0.131015 0.202146 0.970552 
-0.170404 0.230554 0.958023 
-0.186654 0.243098 0.951874 
-0.216242 0.260228 0.941021 
-0.205375 0.266272 0.941765 
-0.211644 0.282376 0.935666 
-0.1292 0.30997 0.941927 
-0.145713 0.364622 0.919684 
-0.0774242 0.432737 0.898189 
-0.0747926 0.552684 0.830028 
-0.0389121 0.721875 0.690929 
0.00361045 0.97424 0.225486 
0.00877599 0.993315 -0.115099 
0.0362187 0.879033 -0.475383 
0.0305988 0.77764 -0.627965 
0.0783427 0.574122 -0.815013 
0.101795 0.459271 -0.882444 
0.120311 0.371091 -0.920769 
0.146822 0.325069 -0.934223 
0.184115 0.294519 -0.937742 
0.207539 0.273017 -0.939356 
0.215339 0.256527 -0.942244 
0.19451 0.240591 -0.950937 
0.171127 0.222597 -0.959774 
0.145654 0.206595 -0.967524 
0.107045 0.179257 -0.977961 
0.0717297 0.149572 -0.986146 
0.0470275 0.12288 -0.991307 
0.0257368 0.0979498 -0.994859 
0.0130971 0.0769253 -0.996951 
0.00348583 0.0584187 -0.998286 
-0.00329186 0.0431061 -0.999065 
-0.00827206 0.0306178 -0.999497 
-0.0122602 0.0203984 -0.999717 
-0.0164787 0.0125851 -0.999785 
-0.0197253 0.00721091 -0.999779 
-0.0226687 0.00387596 -0.999736 
-0.0250669 0.00213921 -0.999683 
-0.0261157 0.00166746 -0.999658 
-0.0264739 0.00152943 -0.999648 
-0.0270499 0.00114489 -0.999633 
-0.0266695 0.000580577 -0.999644 
-0.0259268 0.00029455 -0.999664 
-0.025218 -0.000160577 -0.999682 
-0.0240587 0.000333368 -0.99971 
-0.0233431 0.00190342 -0.999726 
-0.0211793 0.00287235 -0.999772 
-0.0187399 0.00420141 -0.999816 
-0.0153315 -0.00356684 -0.999876 
-0.0110328 -0.0151572 -0.999824 
-0.00820595 -0.0153808 -0.999848 
0.000134228 3.90562e-05 -1 
-0.000135946 -9.2453e-05 1 
0.0037817 -0.0175425 0.999839 
0.00228514 -0.0196593 0.999804 
0.0060469 -0.00867659 0.999944 
0.00937471 -0.00192138 0.999954 
0.0129938 0.000226563 0.999916 
0.0140784 -0.000336868 0.999901 
0.0160092 -0.00204689 0.99987 
0.0181036 -0.00286878 0.999832 
0.0179573 -0.00213584 0.999836 
0.0185319 -1.41893e-05 0.999828 
0.0196985 0.00212955 0.999804 
0.0193366 0.00370028 0.999806 
0.0170735 0.00447954 0.999844 
0.0151797 0.00476308 0.999873 
0.0123322 0.00580227 0.999907 
0.0116717 0.0079803 0.9999 
0.00733396 0.0139598 0.999876 
0.0026418 0.0231156 0.999729 
-0.0040616 0.0355024 0.999361 
-0.0118894 0.0503833 0.998659 
-0.0226395 0.0682923 0.997408 
-0.0373653 0.090051 0.995236 
-0.0517095 0.111106 0.992462 
-0.0802317 0.142311 0.986565 
-0.111286 0.174096 0.97842 
-0.166853 0.220106 0.9611 
-0.207153 0.250562 0.945678 
-0.247818 0.276921 0.928386 
-0.278579 0.291796 0.915013 
-0.308891 0.304178 0.901145 
-0.333957 0.311125 0.889761 
-0.313171 0.306402 0.898911 
-0.228897 0.304748 0.924519 
-0.236173 0.334359 0.912374 
-0.198913 0.407197 0.891417 
-0.126542 0.466457 0.875446 
-0.0829558 0.638528 0.765115 
-0.00687045 0.908962 0.416822 
0.00914664 0.992278 0.123699 
0.014834 0.969457 -0.244811 
0.0701371 0.771805 -0.631979 
0.153469 0.510363 -0.846154 
0.171996 0.420868 -0.890667 
0.219533 0.370604 -0.902473 
0.274368 0.332688 -0.902242 
0.315968 0.312082 -0.895974 
0.330947 0.297791 -0.89543 
0.319213 0.291728 -0.901664 
0.272901 0.272652 -0.922597 
0.24785 0.263722 -0.932213 
0.231225 0.260227 -0.937453 
0.181762 0.229052 -0.956294 
0.131895 0.190706 -0.972746 
0.0909381 0.152806 -0.984063 
0.0581746 0.117861 -0.991325 
0.0370384 0.0907276 -0.995187 
0.0230826 0.0691683 -0.997338 
0.0130009 0.0516212 -0.998582 
0.00525484 0.0367556 -0.99931 
-0.000687886 0.0249481 -0.999689 
-0.00624364 0.0156606 -0.999858 
-0.0101923 0.00948147 -0.999903 
-0.0136734 0.00577459 -0.99989 
-0.016985 0.0038668 -0.999848 
-0.01832 0.00312083 -0.999827 
-0.0185915 0.00237312 -0.999824 
-0.019354 0.00115707 -0.999812 
-0.0192568 -0.000204002 -0.999815 
-0.0204617 -0.00111609 -0.99979 
-0.0178465 -0.00171478 -0.999839 
-0.0155662 -0.00111852 -0.999878 
-0.0158131 0.000473367 -0.999875 
-0.0127252 -8.95022e-05 -0.999919 
-0.012635 -0.00160001 -0.999919 
-0.00687506 -0.0104407 -0.999922 
-0.00260649 -0.0220316 -0.999754 
-0.00452493 -0.01853 -0.999818 
0.000157047 0.000136774 -1 
6.11561e-05 -9.85054e-06 1 
-0.00145312 -0.02073 0.999784 
-0.0034649 -0.025229 0.999676 
-0.000466096 -0.014474 0.999895 
0.00205741 -0.00562573 0.999982 
0.00466329 -0.00174135 0.999988 
0.00654891 -0.00150298 0.999977 
0.00882811 -0.00345982 0.999955 
0.0103202 -0.0042925 0.999938 
0.0109265 -0.00280014 0.999936 
0.0112193 -3.53748e-05 0.999937 
0.0123273 0.00269817 0.99992 
0.0110429 0.00485986 0.999927 
0.00917364 0.00621434 0.999939 
0.00660771 0.00705113 0.999953 
0.00342135 0.00881207 0.999955 
0.00122273 0.0121974 0.999925 
-0.00385017 0.0201422 0.99979 
-0.0100332 0.0314105 0.999456 
-0.0184852 0.0468924 0.998729 
-0.0290007 0.0652179 0.99745 
-0.0437869 0.0882202 0.995138 
-0.0649721 0.117291 0.99097 
-0.0912793 0.149266 0.984575 
-0.133301 0.194422 0.971818 
-0.177046 0.234724 0.955803 
-0.246593 0.290156 0.924663 
-0.306725 0.335333 0.89077 
-0.334516 0.345927 0.876604 
-0.364515 0.354358 0.861138 
-0.393308 0.359978 0.846005 
-0.36371 0.327817 0.871924 
-0.439897 0.353676 0.825472 
-0.363858 0.331398 0.870507 
-0.353449 0.342322 0.870568 
-0.296985 0.366798 0.881623 
-0.278326 0.435352 0.856156 
-0.110055 0.664039 0.739554 
-0.0574992 0.784313 0.617695 
0.0148673 0.999847 0.00919234 
0.0437522 0.891263 -0.451371 
0.111903 0.63023 -0.768302 
0.232074 0.454196 -0.860144 
0.281628 0.413162 -0.866016 
0.329474 0.371813 -0.867872 
0.408157 0.344832 -0.84528 
0.428396 0.334373 -0.839447 
0.427583 0.340783 -0.837281 
0.395783 0.33819 -0.853805 
0.350706 0.326256 -0.877817 
0.330504 0.327235 -0.88526 
0.291621 0.315975 -0.902838 
0.244481 0.289925 -0.925296 
0.185444 0.244106 -0.951852 
0.130292 0.192317 -0.972645 
0.0852832 0.142509 -0.986113 
0.0574061 0.107586 -0.992537 
0.0397419 0.0821255 -0.995829 
0.0261891 0.0606165 -0.997818 
0.0160198 0.0424257 -0.998971 
0.00914098 0.0288777 -0.999541 
0.00242952 0.0180313 -0.999834 
-0.00188361 0.0114624 -0.999933 
-0.00528388 0.00801793 -0.999954 
-0.00854204 0.0060625 -0.999945 
-0.00990659 0.00513493 -0.999938 
-0.011104 0.00369472 -0.999932 
-0.012113 0.00151566 -0.999925 
-0.0117133 -0.000803852 -0.999931 
-0.0124879 -0.00243937 -0.999919 
-0.0098894 -0.00356839 -0.999945 
-0.00829922 -0.00269571 -0.999962 
-0.00783026 -0.000781696 -0.999969 
-0.00444561 -0.00208438 -0.999988 
-0.00434169 -0.00575591 -0.999974 
-0.000289033 -0.01547 -0.99988 
0.00247565 -0.0263323 -0.99965 
0.000787099 -0.0200679 -0.999798 
8.45406e-05 -1.92706e-05 -1 
0.000100742 0.000166724 1 
-0.00373477 -0.0206802 0.999779 
-0.00504217 -0.0279671 0.999596 
-0.00419723 -0.0215824 0.999758 
-0.00262497 -0.0107703 0.999939 
-0.000844682 -0.00434205 0.99999 
0.00130644 -0.00231674 0.999996 
0.00356995 -0.00389209 0.999986 
0.00513959 -0.00548613 0.999972 
0.0063446 -0.00429535 0.999971 
0.00651281 -0.00119878 0.999978 
0.00674759 0.00253372 0.999974 
0.00580164 0.00566872 0.999967 
0.00456077 0.00780764 0.999959 
0.00208607 0.00927348 0.999955 
-0.000655757 0.0107147 0.999942 
-0.00449891 0.0145043 0.999885 
-0.00846964 0.0210603 0.999742 
-0.0150035 0.0333615 0.999331 
-0.0229991 0.0494585 0.998511 
-0.0344996 0.0711551 0.996868 
-0.0496055 0.0963365 0.994112 
-0.0717699 0.128743 0.989078 
-0.104489 0.173032 0.979358 
-0.145724 0.222176 0.964055 
-0.201123 0.28135 0.938292 
-0.24676 0.310284 0.91806 
-0.319891 0.378306 0.868651 
-0.37028 0.409889 0.833597 
-0.415095 0.424947 0.804435 
-0.449686 0.428922 0.78346 
-0.479375 0.42462 0.768048 
-0.447645 0.377287 0.810721 
-0.482177 0.376087 0.791242 
-0.470052 0.372479 0.800194 
-0.481323 0.386774 0.786596 
-0.40467 0.374551 0.834239 
-0.0785368 0.807981 0.583951 
-0.0250496 0.889804 0.455654 
0.0261957 0.968424 -0.24793 
0.0706394 0.815463 -0.574483 
0.173394 0.589814 -0.788704 
0.463961 0.473627 -0.74861 
0.375575 0.418664 -0.82684 
0.447446 0.372053 -0.813246 
0.508859 0.363779 -0.780209 
0.520476 0.381402 -0.763962 
0.489062 0.394094 -0.778144 
0.43871 0.395064 -0.807129 
0.405166 0.401485 -0.821371 
0.375643 0.40392 -0.834111 
0.331522 0.386517 -0.860638 
0.269108 0.339791 -0.901179 
0.21784 0.302669 -0.927867 
0.16214 0.243849 -0.956163 
0.112028 0.183454 -0.976624 
0.0769446 0.136697 -0.98762 
0.0542576 0.103552 -0.993143 
0.037958 0.0769504 -0.996312 
0.0259818 0.055125 -0.998141 
0.017533 0.0383832 -0.999109 
0.010024 0.0242065 -0.999657 
0.00500155 0.0159396 -0.99986 
0.00125089 0.0116331 -0.999932 
-0.00230251 0.00916306 -0.999955 
-0.00417491 0.00806326 -0.999959 
-0.00593394 0.00619357 -0.999963 
-0.00699103 0.00313733 -0.999971 
-0.00709835 -0.000195462 -0.999975 
-0.00702215 -0.0032724 -0.99997 
-0.00565235 -0.00507343 -0.999971 
-0.00400014 -0.0045111 -0.999982 
-0.00268123 -0.00222562 -0.999994 
5.1443e-05 -0.0033622 -0.999994 
0.000907996 -0.00834069 -0.999965 
0.00286999 -0.0189863 -0.999816 
0.00388057 -0.0291489 -0.999568 
0.00332537 -0.02331 -0.999723 
-8.38571e-05 -4.78092e-05 -1 
0.000215345 -3.72912e-05 1 
-0.00339968 -0.0229314 0.999731 
-0.00431963 -0.0292002 0.999564 
-0.00393898 -0.0190039 0.999812 
-0.00260014 -0.00908895 0.999955 
-0.000477539 -0.00431655 0.999991 
0.00152319 -0.00375813 0.999992 
0.00356227 -0.00565853 0.999978 
0.00465609 -0.00593229 0.999972 
0.00510796 -0.00339786 0.999981 
0.00498778 0.00121378 0.999987 
0.0042361 0.00555639 0.999976 
0.00292727 0.00897491 0.999955 
0.000982721 0.0110926 0.999938 
-0.00167684 0.0125908 0.999919 
-0.00495077 0.0150213 0.999875 
-0.00892228 0.0208778 0.999742 
-0.0136613 0.0303125 0.999447 
-0.0210251 0.047037 0.998672 
-0.0306158 0.0682013 0.997202 
-0.0447492 0.0969626 0.994282 
-0.0648172 0.13097 0.989265 
-0.0926416 0.175316 0.980144 
-0.132647 0.235258 0.962839 
-0.185305 0.302044 0.93511 
-0.242932 0.371472 0.896099 
-0.278946 0.373577 0.884663 
-0.360916 0.451214 0.816177 
-0.419721 0.48606 0.766538 
-0.459834 0.490046 0.740545 
-0.501392 0.499388 0.706553 
-0.533162 0.495659 0.685609 
-0.513783 0.426445 0.744427 
-0.602928 0.425143 0.675079 
-0.54802 0.400736 0.734224 
-0.561811 0.415718 0.715225 
-0.327521 0.458711 0.826023 
-0.146418 0.519854 0.841614 
-0.00753124 0.943498 0.331293 
0.0314199 0.911272 -0.410605 
0.101436 0.740077 -0.664829 
0.23656 0.566047 -0.789702 
0.345387 0.456048 -0.8202 
0.473082 0.406372 -0.7817 
0.57398 0.382427 -0.724083 
0.563243 0.389476 -0.728743 
0.547494 0.412377 -0.728146 
0.51942 0.451265 -0.725646 
0.496777 0.477386 -0.724786 
0.456469 0.482068 -0.747828 
0.411891 0.482595 -0.772948 
0.357073 0.460569 -0.812635 
0.297363 0.415262 -0.859728 
0.234613 0.368614 -0.899489 
0.172218 0.291482 -0.940946 
0.118861 0.218673 -0.968532 
0.08153 0.161029 -0.983576 
0.056878 0.119541 -0.991199 
0.0403645 0.0886673 -0.995243 
0.0283839 0.0635838 -0.997573 
0.0185349 0.0413728 -0.998972 
0.0120066 0.0272452 -0.999557 
0.00711813 0.0185147 -0.999803 
0.00348372 0.0142581 -0.999892 
0.000406035 0.0120709 -0.999927 
-0.00203441 0.0106408 -0.999941 
-0.00383734 0.0081303 -0.99996 
-0.00495207 0.00446837 -0.999978 
-0.005475 -0.000170055 -0.999985 
-0.00539402 -0.00383551 -0.999978 
-0.00477682 -0.00606313 -0.99997 
-0.00353274 -0.0057916 -0.999977 
-0.0014911 -0.00347568 -0.999993 
0.000727412 -0.00457381 -0.999989 
0.00250971 -0.0104601 -0.999942 
0.00307921 -0.0207141 -0.999781 
0.00296383 -0.030347 -0.999535 
0.00285873 -0.0245055 -0.999696 
-0.00013916 8.9376e-06 -1 
2.04059e-05 -0.000106977 1 
-0.0017579 -0.0243134 0.999703 
-0.00252859 -0.0311833 0.99951 
-0.0020576 -0.0216423 0.999764 
-0.000699334 -0.0120391 0.999927 
0.00137307 -0.00619115 0.99998 
0.00320038 -0.00475448 0.999984 
0.00484303 -0.00628246 0.999969 
0.00554972 -0.00643293 0.999964 
0.0054354 -0.00354988 0.999979 
0.00485097 0.000971694 0.999988 
0.00350648 0.00684454 0.99997 
0.00203335 0.0107962 0.99994 
-0.000112466 0.0133893 0.99991 
-0.00243235 0.0147304 0.999889 
-0.00542202 0.0170368 0.99984 
-0.00900173 0.0225192 0.999706 
-0.0134633 0.032809 0.999371 
-0.0195958 0.0488489 0.998614 
-0.0285599 0.073161 0.996911 
-0.0407634 0.1028 0.993866 
-0.0596191 0.142861 0.987946 
-0.0858812 0.194882 0.97706 
-0.122114 0.259153 0.958086 
-0.174599 0.33672 0.925275 
-0.233722 0.424883 0.874556 
-0.298486 0.473095 0.828907 
-0.335383 0.465682 0.818937 
-0.429147 0.552105 0.714852 
-0.479172 0.569421 0.667947 
-0.50905 0.56261 0.651412 
-0.547538 0.566912 0.615478 
-0.561781 0.495791 0.662264 
-0.602413 0.48812 0.631536 
-0.575615 0.437835 0.690628 
-0.63252 0.438344 0.638571 
-0.517456 0.411693 0.750165 
-0.421694 0.38195 0.822368 
-0.166564 0.555447 0.814699 
0.0108591 0.973774 0.227259 
0.0405193 0.82072 -0.569893 
0.285109 0.478476 -0.830526 
0.491728 0.443204 -0.749516 
0.588238 0.40719 -0.698693 
0.645905 0.412887 -0.64213 
0.649545 0.455444 -0.608821 
0.583203 0.475989 -0.658261 
0.589059 0.533167 -0.607241 
0.5737 0.561659 -0.59616 
0.505215 0.550529 -0.664587 
0.438087 0.545625 -0.714404 
0.398965 0.56244 -0.724216 
0.322745 0.494875 -0.806805 
0.269637 0.465522 -0.842962 
0.196208 0.376223 -0.905516 
0.139171 0.291509 -0.94639 
0.0941658 0.214305 -0.972217 
0.0639352 0.154391 -0.985939 
0.0442948 0.11227 -0.99269 
0.0310544 0.079822 -0.996325 
0.0216959 0.053863 -0.998313 
0.0145813 0.0353518 -0.999269 
0.00954242 0.0238871 -0.999669 
0.00587963 0.0180575 -0.99982 
0.00282331 0.0153348 -0.999878 
0.000213428 0.0136701 -0.999907 
-0.00200851 0.0111654 -0.999936 
-0.00369483 0.00712103 -0.999968 
-0.00493441 0.00153283 -0.999987 
-0.0056219 -0.00359534 -0.999978 
-0.00551267 -0.00650371 -0.999964 
-0.0048226 -0.00636828 -0.999968 
-0.0029754 -0.0044875 -0.999986 
-0.00156939 -0.00555229 -0.999983 
0.000719302 -0.0105708 -0.999944 
0.000975484 -0.0201692 -0.999796 
0.000867713 -0.0303888 -0.999538 
0.00125879 -0.0246789 -0.999695 
-3.6571e-05 -0.000119691 -1 
5.71365e-05 -8.74103e-05 1 
-0.000209045 -0.0269735 0.999636 
-0.000425681 -0.0319203 0.99949 
0.000597264 -0.0226823 0.999743 
0.00204253 -0.0128786 0.999915 
0.00384087 -0.00700543 0.999968 
0.00530974 -0.00572452 0.99997 
0.00613092 -0.00673732 0.999959 
0.00598612 -0.00593336 0.999964 
0.00506496 -0.0020879 0.999985 
0.00376016 0.00336082 0.999987 
0.0013739 0.009631 0.999953 
-0.000615285 0.0135255 0.999908 
-0.00297342 0.0158807 0.999869 