# vtk DataFile Version 3.0 
Exported using Morpho https://github.com/Morpho-lang/morpho 
ASCII 
DATASET UNSTRUCTURED_GRID 

POINTS 1978 float 
-12 -4 -2.86714e-15 
-11.585 -4 7.35925e-14 
-11.2837 -4 -2.64027e-15 
-10.9561 -4 -1.24966e-13 
-10.6507 -4 -1.63639e-13 
-10.3181 -4 -9.80409e-14 
-9.98818 -4 1.33171e-14 
-9.67127 -4 4.11596e-14 
-9.32504 -4 1.85701e-14 
-8.99669 -4 -1.60084e-14 
-8.68694 -4 -4.88483e-14 
-8.37343 -4 -6.14199e-14 
-8.06965 -4 -5.34245e-14 
-7.77152 -4 -3.49218e-14 
-7.47233 -4 -9.37621e-15 
-7.18239 -4 -2.95308e-15 
-6.87306 -4 -1.85796e-14 
-6.57268 -4 -5.43461e-14 
-6.27174 -4 -1.09388e-13 
-5.97114 -4 -1.55489e-13 
-5.67129 -4 -1.73531e-13 
-5.37467 -4 -1.3676e-13 
-5.08744 -4 5.71496e-15 
-4.79003 -4 2.81789e-13 
-4.50057 -4 7.36088e-13 
-4.20852 -4 1.55487e-12 
-3.88539 -4 2.76365e-12 
-3.56084 -4 4.86527e-12 
-3.21843 -4 7.81688e-12 
-2.87035 -4 1.17957e-11 
-2.48667 -4 1.4101e-11 
-2.18584 -4 1.37382e-11 
-1.93441 -4 1.28227e-11 
-1.72569 -4 1.34685e-11 
-1.43137 -4 1.42357e-11 
-1.22395 -4 1.15827e-11 
-0.891153 -4 9.00052e-12 
-0.670993 -4 7.53621e-13 
-0.493667 -4 -9.17365e-12 
0.119531 -4 1.617e-11 
0.28389 -4 -1.23974e-11 
0.790828 -4 1.12673e-11 
0.959558 -4 -9.8985e-12 
1.19734 -4 -9.73715e-12 
1.40302 -4 -1.08254e-11 
1.63143 -4 -1.51609e-11 
1.92499 -4 -1.55216e-11 
2.20229 -4 -1.44103e-11 
2.51189 -4 -1.38811e-11 
2.8788 -4 -1.21963e-11 
3.26996 -4 -8.74344e-12 
3.6056 -4 -5.08551e-12 
3.94877 -4 -3.08677e-12 
4.2471 -4 -1.60478e-12 
4.52764 -4 -7.58486e-13 
4.8032 -4 -2.65626e-13 
5.09968 -4 -1.49618e-15 
5.38999 -4 1.3932e-13 
5.68885 -4 1.71909e-13 
5.98673 -4 1.48403e-13 
6.28352 -4 1.14656e-13 
6.5819 -4 8.04308e-14 
6.88008 -4 4.17235e-14 
7.16371 -4 1.2349e-14 
7.45002 -4 -6.17285e-15 
7.75234 -4 -2.95401e-15 
8.05949 -4 8.50756e-15 
8.35246 -4 2.24206e-14 
8.67598 -4 3.01454e-14 
8.95854 -4 3.32206e-14 
9.30888 -4 2.60678e-14 
9.623 -4 2.78689e-15 
9.91421 -4 7.38024e-15 
10.2649 -4 7.66431e-14 
10.5738 -4 1.52586e-13 
10.9735 -4 1.27869e-13 
11.3083 -4 -2.67012e-14 
11.5912 -4 -8.30171e-14 
12 -4 3.36354e-15 
-12 -3.63302 4.89086e-15 
-11.6951 -3.72151 -1.81498e-14 
-11.3424 -3.61879 -2.61351e-14 
-11.0344 -3.65646 -7.41458e-15 
-10.7118 -3.64112 5.1124e-15 
-10.3972 -3.67104 3.60361e-14 
-10.062 -3.66526 2.6078e-14 
-9.73714 -3.65813 5.08617e-15 
-9.40756 -3.68325 -4.29891e-15 
-9.0692 -3.66877 1.49287e-15 
-8.74821 -3.65895 9.58147e-15 
-8.43252 -3.67138 1.76092e-14 
-8.11356 -3.65794 2.09079e-14 
-7.80543 -3.65188 2.7044e-14 
-7.5009 -3.65066 3.05937e-14 
-7.20243 -3.64876 4.21238e-14 
-6.89676 -3.67513 5.65995e-14 
-6.58604 -3.66758 9.20602e-14 
-6.27771 -3.66844 1.50136e-13 
-5.97392 -3.6701 2.05641e-13 
-5.67066 -3.67171 3.07886e-13 
-5.37508 -3.66653 4.17939e-13 
-5.08578 -3.66495 5.12961e-13 
-4.77882 -3.67395 5.4609e-13 
-4.47787 -3.65589 6.85585e-13 
-4.14734 -3.66208 9.27737e-13 
-3.81056 -3.61125 1.44506e-12 
-3.47226 -3.60322 8.99678e-13 
-3.13163 -3.60663 5.33759e-13 
-2.77343 -3.67666 1.07906e-12 
-2.46992 -3.6806 9.91521e-13 
-2.17992 -3.71925 1.59305e-12 
-1.92818 -3.73878 2.66033e-12 
-1.65259 -3.85724 1.86505e-12 
-1.44555 -3.8281 4.49355e-12 
-1.08666 -3.91013 1.39223e-12 
-0.85976 -3.88465 6.33892e-13 
-0.555056 -3.86447 -4.76769e-12 
-0.325667 -3.95798 -9.39178e-12 
-0.0399407 -3.92624 9.02136e-12 
0.347747 -3.83889 -1.43807e-12 
0.548988 -3.92784 -5.979e-12 
0.796688 -3.81243 9.32269e-13 
1.12903 -3.86205 -3.36686e-12 
1.38107 -3.82752 -3.01151e-12 
1.68375 -3.84557 4.16017e-13 
1.95892 -3.78001 -1.31808e-12 
2.23536 -3.72598 -4.55605e-13 
2.54784 -3.69454 -1.01145e-12 
2.87123 -3.65727 -3.31832e-14 
3.22366 -3.64602 -2.00146e-14 
3.58639 -3.60079 -1.06151e-12 
3.91254 -3.63938 -9.69115e-13 
4.25137 -3.62908 -9.26289e-13 
4.56142 -3.65356 -6.19413e-13 
4.87355 -3.68597 -5.83835e-13 
5.17516 -3.67709 -4.81883e-13 
5.47318 -3.67639 -3.93117e-13 
5.77036 -3.66593 -2.87868e-13 
6.06578 -3.65327 -1.99776e-13 
6.36192 -3.64858 -1.42691e-13 
6.66415 -3.65368 -9.40013e-14 
6.95866 -3.64363 -5.97966e-14 
7.25175 -3.65267 -3.4168e-14 
7.55216 -3.66758 -2.41404e-14 
7.85323 -3.66528 -1.60381e-14 
8.14952 -3.64006 -1.1534e-14 
8.45211 -3.67067 -1.06907e-14 
8.74238 -3.6278 -6.53022e-15 
9.06609 -3.69936 -2.47337e-15 
9.38855 -3.66443 -8.9072e-15 
9.69529 -3.63699 -1.36827e-14 
10.0255 -3.69423 -3.18109e-14 
10.3452 -3.6425 -2.20475e-14 
10.71 -3.71781 -1.34774e-14 
11.0449 -3.66264 3.29408e-14 
11.3504 -3.60052 2.55286e-14 
11.7026 -3.72369 2.31419e-14 
12 -3.62024 -4.72872e-15 
-12 -3.32403 -5.7275e-15 
-11.6321 -3.37503 1.69459e-14 
-11.291 -3.26345 8.67306e-15 
-10.974 -3.30855 -3.75047e-14 
-10.6512 -3.29737 -3.47352e-14 
-10.3281 -3.34191 -2.84764e-15 
-10.0039 -3.32547 -1.13401e-15 
-9.69582 -3.30974 5.05002e-16 
-9.39013 -3.35903 8.44376e-15 
-9.073 -3.33305 3.88385e-15 
-8.77969 -3.30337 3.51995e-15 
-8.47787 -3.33915 9.35045e-15 
-8.16594 -3.33249 1.59727e-14 
-7.84749 -3.31273 2.3362e-14 
-7.54308 -3.30735 3.00875e-14 
-7.24096 -3.29798 4.09882e-14 
-6.94067 -3.34547 6.18853e-14 
-6.63362 -3.33756 8.99009e-14 
-6.32882 -3.34254 1.28743e-13 
-6.02267 -3.33838 1.73861e-13 
-5.72435 -3.34545 2.23941e-13 
-5.42492 -3.33723 3.02796e-13 
-5.1271 -3.32111 3.12327e-13 
-4.8261 -3.35372 4.43157e-13 
-4.50883 -3.31413 5.8064e-13 
-4.18393 -3.32178 7.49231e-13 
-3.85443 -3.25226 7.40192e-13 
-3.53843 -3.25081 9.57562e-13 
-3.2282 -3.25854 3.43672e-13 
-2.91584 -3.33591 1.12623e-12 
-2.63645 -3.36342 -1.37046e-12 
-2.35619 -3.43242 3.92015e-12 
-2.07768 -3.48409 1.13302e-12 
-1.69115 -3.67631 4.5604e-12 
-1.45861 -3.65713 6.7056e-12 
-1.24977 -3.8125 -2.0553e-12 
-0.99991 -3.78275 -3.21278e-12 
-0.724533 -3.8359 -4.38574e-12 
-0.217077 -3.84538 1.42096e-12 
0.12221 -3.82875 -1.34861e-13 
0.423856 -3.64941 -6.83572e-12 
0.597503 -3.77525 -1.8149e-12 
0.971134 -3.77362 3.86633e-12 
1.22249 -3.70179 -1.08568e-11 
1.5266 -3.69346 -9.06344e-13 
1.7572 -3.63142 -3.40674e-13 
1.98978 -3.52684 -3.28255e-12 
2.26038 -3.45168 -1.91559e-12 
2.54934 -3.39026 8.01602e-14 
2.8652 -3.35218 -1.41902e-12 
3.20762 -3.32494 1.11294e-12 
3.52942 -3.26469 -7.63323e-13 
3.85694 -3.26163 -7.94251e-13 
4.17558 -3.28891 -8.55274e-13 
4.5051 -3.30432 -5.02474e-13 
4.81156 -3.35593 -4.82938e-13 
5.11137 -3.35386 -3.80256e-13 
5.40762 -3.34995 -3.11053e-13 
5.70213 -3.33801 -2.32312e-13 
5.99975 -3.31915 -1.70482e-13 
6.30261 -3.30592 -1.10746e-13 
6.60973 -3.31568 -8.46976e-14 
6.91752 -3.30193 -6.50737e-14 
7.22298 -3.31111 -4.61488e-14 
7.52451 -3.33269 -3.29289e-14 
7.82787 -3.32386 -1.83369e-14 
8.12281 -3.29118 -1.16354e-14 
8.42131 -3.31831 -8.73517e-15 
8.7301 -3.29567 -6.12424e-15 
9.04983 -3.37274 -5.06636e-15 
9.36797 -3.3286 -6.39252e-15 
9.67614 -3.29186 -3.12983e-15 
9.9904 -3.36108 -7.42431e-15 
10.301 -3.29524 1.40588e-15 
10.6332 -3.39749 3.88366e-14 
10.97 -3.32248 4.22198e-14 
11.2887 -3.25147 -1.46175e-15 
11.6355 -3.37291 -1.31845e-14 
12 -3.30558 9.73894e-15 
-12 -2.99384 -3.93398e-15 
-11.657 -3.05516 -1.11579e-15 
-11.3021 -2.94785 6.03995e-14 
-10.9449 -2.9615 5.3796e-16 
-10.6131 -2.96107 -1.84121e-14 
-10.2998 -3.00653 -8.76893e-15 
-9.99241 -2.97337 -1.11725e-14 
-9.67139 -2.97994 1.14013e-15 
-9.3539 -3.01942 1.3271e-14 
-9.05807 -2.9727 1.18208e-14 
-8.74358 -2.96868 4.26624e-15 
-8.43768 -3.00331 1.93468e-15 
-8.11801 -3.00604 9.19598e-16 
-7.81363 -2.97183 1.53738e-15 
-7.50465 -2.96946 1.08371e-14 
-7.20597 -2.95384 1.50232e-14 
-6.91524 -3.01758 3.19949e-14 
-6.60803 -3.00821 2.26938e-14 
-6.30467 -3.01671 2.0352e-14 
-6.01056 -3.00463 2.09863e-14 
-5.71618 -3.01459 -1.15769e-15 
-5.42509 -3.00048 6.40559e-15 
-5.12147 -2.98688 -6.28527e-14 
-4.80697 -3.01638 8.92494e-14 
-4.48622 -2.96956 3.96362e-15 
-4.16064 -2.98399 -3.11616e-14 
-3.83753 -2.91746 -5.60409e-13 
-3.541 -2.93851 -5.92675e-13 
-3.27691 -2.96193 2.05216e-13 
-3.01622 -3.03185 -2.94551e-13 
-2.76952 -3.08336 -3.41453e-13 
-2.39581 -3.18747 -9.3164e-13 
-2.15721 -3.2686 2.70988e-12 
-1.85476 -3.49826 -9.58802e-13 
-1.60948 -3.49662 4.58834e-12 
-1.30701 -3.58627 -2.98845e-12 
-1.15095 -3.68132 1.54798e-13 
-0.865913 -3.705 8.11996e-12 
-0.386183 -3.82014 2.6146e-12 
-0.0827163 -3.77403 2.43663e-12 
0.215838 -3.70083 -4.58021e-12 
0.600598 -3.59718 -2.63966e-12 
1.07089 -3.60579 6.85891e-12 
1.37647 -3.58812 -3.41706e-12 
1.62665 -3.49438 -3.94851e-12 
1.8556 -3.37788 2.26356e-12 
2.12699 -3.27035 -1.35862e-13 
2.41314 -3.17396 -7.47181e-13 
2.69667 -3.11221 9.11921e-13 
2.98157 -3.08165 -1.44733e-12 
3.26853 -3.02323 -1.77982e-13 
3.53325 -2.9418 9.59117e-13 
3.80377 -2.94531 2.69907e-13 
4.11872 -2.94174 -1.55883e-13 
4.45223 -2.96316 6.80225e-14 
4.78235 -3.00733 3.42381e-14 
5.09361 -3.02231 -2.53327e-14 
5.39981 -3.01688 -1.67312e-14 
5.69746 -3.00707 5.43738e-16 
5.99725 -2.99049 -7.59528e-15 
6.29992 -2.9713 -1.48461e-14 
6.59938 -2.9841 -2.34904e-14 
6.91501 -2.97856 -1.68999e-14 
7.22907 -2.98016 -1.78899e-14 
7.53414 -2.99863 -1.65542e-14 
7.83607 -2.98225 -7.13528e-15 
8.13483 -2.95052 -4.59419e-15 
8.43762 -2.97683 -3.18811e-15 
8.74802 -2.96586 -4.44931e-15 
9.05674 -3.04622 -8.01202e-15 
9.36409 -2.98932 -1.03381e-14 
9.65871 -2.94374 -1.92381e-15 
9.97433 -3.01535 1.1391e-14 
10.3093 -2.96679 9.44505e-15 
10.6457 -3.06262 2.38598e-14 
10.9745 -2.97081 -5.11385e-15 
11.3249 -2.92079 -7.89653e-14 
11.659 -3.05181 -3.87336e-15 
12 -2.96181 8.16471e-15 
-12 -2.68408 2.52511e-15 
-11.6453 -2.73052 1.96697e-14 
-11.3147 -2.61974 6.29744e-14 
-10.9626 -2.64577 2.92636e-14 
-10.6097 -2.62993 5.2063e-15 
-10.2789 -2.65646 -3.98918e-15 
-9.94477 -2.64664 -5.10633e-15 
-9.61828 -2.65827 8.76207e-15 
-9.32197 -2.66406 1.97666e-14 
-9.00027 -2.6416 1.31308e-14 
-8.69225 -2.63191 3.97776e-15 
-8.38071 -2.68124 -8.17823e-17 
-8.08297 -2.66004 -4.93741e-15 
-7.76689 -2.64535 -3.1953e-15 
-7.4651 -2.6299 7.19245e-16 
-7.14625 -2.63638 -4.16988e-15 
-6.84436 -2.69129 -5.35757e-15 
-6.53806 -2.68144 -1.86091e-14 
-6.24723 -2.67842 -3.9187e-14 
-5.94878 -2.67365 -6.47151e-14 
[...]
POINT_DATA 1978 
VECTORS vectors float
0.000814853 -0.000981712 0.999999 
-0.000288121 -0.0115734 0.999933 
-0.000253149 0.000669323 1 
9.16845e-05 0.0148989 0.999889 
-5.69347e-06 0.0169512 0.999856 
-0.000193309 0.00849114 0.999964 
-5.85158e-05 -0.000909235 1 
-8.91485e-05 -0.00314158 0.999995 
-0.000226832 -0.0012956 0.999999 
-3.85509e-05 0.00146037 0.999999 
2.05438e-05 0.00397361 0.999992 
-1.02922e-05 0.00492491 0.999988 
7.30407e-05 0.0044878 0.99999 
6.96372e-05 0.00296646 0.999996 
0.000103489 0.000978735 1 
0.000124849 0.000452227 1 
7.18379e-06 0.00193346 0.999998 
2.54808e-05 0.00629857 0.99998 
8.74966e-05 0.0142796 0.999898 
7.04505e-05 0.025164 0.999683 
4.61304e-05 0.0382803 0.999267 
9.91476e-05 0.0531976 0.998584 
0.000151516 0.0687162 0.997636 
0.00010646 0.0876282 0.996153 
0.00010481 0.107182 0.994239 
3.83609e-05 0.127361 0.991856 
-8.88656e-05 0.147705 0.989032 
-0.000140235 0.167165 0.985929 
-4.53446e-05 0.185623 0.982621 
-0.000227727 0.204531 0.97886 
-0.000273172 0.227562 0.973764 
0.000317143 0.24553 0.969389 
0.000563124 0.268428 0.9633 
0.000296366 0.29373 0.955888 
5.53238e-05 0.369467 0.929244 
-6.53034e-05 0.445654 0.895205 
-7.01506e-05 0.629886 0.776688 
-0.000273603 0.764269 0.644898 
0.000120724 0.870412 0.492325 
-0.000131294 0.994016 -0.109235 
0.000218373 0.9568 -0.290747 
-0.00021191 0.673576 -0.739118 
5.99061e-05 0.588043 -0.80883 
8.26448e-05 0.480614 -0.876932 
-0.000154972 0.394868 -0.918738 
-0.000220919 0.327089 -0.944994 
-0.000147973 0.281717 -0.959497 
-2.09133e-05 0.25132 -0.967904 
0.000111594 0.224955 -0.974369 
0.000252737 0.196192 -0.980566 
0.000214974 0.178935 -0.983861 
0.000133647 0.162847 -0.986651 
5.87573e-05 0.145114 -0.989415 
-0.000120555 0.127606 -0.991825 
-0.000246795 0.106333 -0.994331 
-0.000169953 0.0864778 -0.996254 
-7.81169e-05 0.0670094 -0.997752 
-9.18495e-05 0.0504736 -0.998725 
-5.97539e-05 0.0361906 -0.999345 
-9.02574e-05 0.0248208 -0.999692 
-9.59935e-05 0.0160959 -0.99987 
-2.35654e-05 0.00950713 -0.999955 
-0.000141893 0.00468884 -0.999989 
-0.000263355 0.00151109 -0.999999 
-8.85319e-05 -0.000296828 -1 
-4.65819e-06 -0.000188995 -1 
-8.36005e-05 0.000737908 -1 
2.38691e-05 0.00172694 -0.999999 
-0.000115771 0.00251422 -0.999997 
4.00397e-05 0.00264702 -0.999996 
0.000226927 0.00191782 -0.999998 
-0.000140299 0.000550412 -1 
7.01496e-05 0.000826696 -1 
0.000130011 0.00713774 -0.999975 
0.00024629 0.0131519 -0.999913 
0.000313562 0.0120155 -0.999928 
0.000123055 -0.00396 -0.999992 
0.000197512 -0.0139996 -0.999902 
-0.000783073 -0.000928607 -0.999999 
0.000342242 -0.000161188 1 
0.00716103 -0.0118171 0.999905 
0.0115447 -0.0069146 0.999909 
0.0142141 0.00384246 0.999892 
0.0158844 0.0088614 0.999835 
0.0171929 0.00719378 0.999826 
0.0184315 0.0016295 0.999829 
0.0196761 -0.00137727 0.999805 
0.0196601 -0.00158842 0.999805 
0.0202283 0.000146195 0.999795 
0.0212397 0.00226517 0.999772 
0.0213195 0.00377773 0.999766 
0.021504 0.00392336 0.999761 
0.0215998 0.00310179 0.999762 
0.020857 0.00203077 0.99978 
0.020158 0.00194805 0.999795 
0.018148 0.00373854 0.999828 
0.0166823 0.00855469 0.999824 
0.0146451 0.0163127 0.99976 
0.0118028 0.0269125 0.999568 
0.00894692 0.0401332 0.999154 
0.00532015 0.0554331 0.998448 
0.000196152 0.0718238 0.997417 
-0.00592246 0.089485 0.995971 
-0.0146389 0.110106 0.993812 
-0.0241218 0.132115 0.990941 
-0.0431396 0.153972 0.987133 
-0.0658864 0.178232 0.98178 
-0.0889522 0.201084 0.975527 
-0.0905063 0.219173 0.971479 
-0.103407 0.236883 0.966019 
-0.099526 0.254283 0.961995 
-0.0980413 0.275824 0.956195 
-0.0519401 0.313416 0.948194 
-0.0637272 0.372499 0.925842 
-0.0315784 0.518744 0.854346 
-0.0309901 0.642038 0.766046 
-0.021008 0.830173 0.557109 
0.00105763 0.941445 0.337166 
0.00300203 0.998887 0.0470732 
0.0111137 0.928037 -0.372321 
0.00828479 0.844147 -0.536047 
0.0528275 0.665697 -0.74435 
0.0441699 0.515408 -0.855806 
0.0571265 0.396282 -0.91635 
0.0577484 0.320169 -0.945599 
0.07829 0.279731 -0.956881 
0.0958859 0.252236 -0.962903 
0.0979731 0.22835 -0.968637 
0.0977154 0.211263 -0.972533 
0.0824996 0.191961 -0.977929 
0.066412 0.171102 -0.983013 
0.0416821 0.1496 -0.987868 
0.0272756 0.127474 -0.991467 
0.0150663 0.106317 -0.994218 
0.00453639 0.0842463 -0.996435 
-0.00194532 0.065035 -0.997881 
-0.00693874 0.0484544 -0.998801 
-0.0103687 0.0350172 -0.999333 
-0.012974 0.0243554 -0.999619 
-0.0153374 0.0159654 -0.999755 
-0.0173298 0.00948215 -0.999805 
-0.0194615 0.00504913 -0.999798 
-0.0208176 0.00223944 -0.999781 
-0.0211879 0.000701389 -0.999775 
-0.0220579 0.000640101 -0.999756 
-0.0226846 0.00109073 -0.999742 
-0.0218943 0.00152958 -0.999759 
-0.0229011 0.00156546 -0.999737 
-0.0200779 0.00172628 -0.999797 
-0.0208963 0.000974397 -0.999781 
-0.0207329 0.00104768 -0.999785 
-0.018694 0.00298529 -0.999821 
-0.0180757 0.00623915 -0.999817 
-0.0145833 0.00952802 -0.999848 
-0.0141697 0.00239294 -0.999897 
-0.0115792 -0.00913854 -0.999891 
-0.00694784 -0.0128838 -0.999893 
-0.000199116 -0.00015407 -1 
0.00111319 5.96376e-05 0.999999 
0.00745456 -0.0143084 0.99987 
0.009821 -0.0133928 0.999862 
0.0142501 -0.00255621 0.999895 
0.0171147 0.00289379 0.999849 
0.0205692 0.00318901 0.999783 
0.0224404 0.000681684 0.999748 
0.0235903 -0.00135564 0.999721 
0.024478 -0.00198296 0.999698 
0.0252158 -0.000901416 0.999682 
0.025893 0.000782319 0.999664 
0.0262971 0.00252346 0.999651 
0.0258537 0.00337155 0.99966 
0.025009 0.00340304 0.999681 
0.0236904 0.00316414 0.999714 
0.0218433 0.003579 0.999755 
0.02066 0.00531902 0.999772 
0.0178671 0.0101211 0.999789 
0.0143645 0.0178412 0.999738 
0.00957169 0.0288071 0.999539 
0.00399233 0.0421228 0.999104 
-0.00341461 0.0580999 0.998305 
-0.0137456 0.0762948 0.996991 
-0.0230823 0.0952221 0.995188 
-0.041051 0.118884 0.992059 
-0.0602131 0.142224 0.988001 
-0.0975353 0.175285 0.979675 
-0.131015 0.202146 0.970552 
-0.170404 0.230554 0.958023 
-0.186654 0.243098 0.951874 
-0.216242 0.260228 0.941021 
-0.205374 0.266272 0.941765 
-0.211644 0.282376 0.935666 
-0.1292 0.30997 0.941927 
-0.145713 0.364622 0.919684 
-0.0774243 0.432737 0.898189 
-0.0747927 0.552684 0.830028 
-0.0389121 0.721875 0.690929 
0.00361046 0.97424 0.225486 
0.008776 0.993315 -0.115099 
0.0362187 0.879033 -0.475383 
0.0305987 0.77764 -0.627965 
0.0783427 0.574122 -0.815013 
0.101795 0.459271 -0.882444 
0.120311 0.371091 -0.920769 
0.146821 0.325069 -0.934223 
0.184115 0.294519 -0.937742 
0.207539 0.273017 -0.939356 
0.215339 0.256527 -0.942244 
0.19451 0.240591 -0.950937 
0.171127 0.222597 -0.959774 
0.145654 0.206595 -0.967524 
0.107045 0.179257 -0.977961 
0.0717297 0.149572 -0.986146 
0.0470275 0.12288 -0.991307 
0.0257368 0.0979499 -0.994859 
0.0130971 0.0769253 -0.996951 
0.0034858 0.0584187 -0.998286 
-0.00329189 0.0431061 -0.999065 
-0.00827209 0.0306178 -0.999497 
-0.0122603 0.0203984 -0.999717 
-0.0164788 0.0125851 -0.999785 
-0.0197254 0.00721091 -0.999779 
-0.0226687 0.00387595 -0.999736 
-0.0250669 0.00213921 -0.999683 
-0.0261157 0.00166745 -0.999658 
-0.0264739 0.00152943 -0.999648 
-0.0270499 0.00114489 -0.999633 
-0.0266696 0.000580576 -0.999644 
-0.0259269 0.000294549 -0.999664 
-0.025218 -0.000160578 -0.999682 
-0.0240587 0.000333368 -0.99971 
-0.0233431 0.00190342 -0.999726 
-0.0211794 0.00287236 -0.999772 
-0.0187399 0.00420143 -0.999816 
-0.0153315 -0.00356683 -0.999876 
-0.0110328 -0.0151572 -0.999824 
-0.00820597 -0.0153809 -0.999848 
-0.00127926 0.000147122 -0.999999 
0.000887771 -0.000145462 1 
0.00378171 -0.0175425 0.999839 
0.00228513 -0.0196593 0.999804 
0.00604689 -0.00867659 0.999944 
0.00937472 -0.00192137 0.999954 
0.0129938 0.000226567 0.999916 
0.0140784 -0.000336864 0.999901 
0.0160092 -0.00204689 0.99987 
0.0181036 -0.00286878 0.999832 
0.0179573 -0.00213585 0.999836 
0.0185319 -1.41906e-05 0.999828 
0.0196985 0.00212956 0.999804 
0.0193366 0.00370028 0.999806 
0.0170735 0.00447954 0.999844 
0.0151797 0.00476308 0.999873 
0.0123322 0.00580227 0.999907 
0.0116717 0.00798029 0.9999 
0.00733396 0.0139598 0.999876 
0.0026418 0.0231156 0.999729 
-0.00406159 0.0355024 0.999361 
-0.0118894 0.0503833 0.998659 
-0.0226395 0.0682923 0.997408 
-0.0373653 0.090051 0.995236 
-0.0517095 0.111106 0.992462 
-0.0802317 0.142311 0.986565 
-0.111286 0.174096 0.97842 
-0.166853 0.220106 0.9611 
-0.207153 0.250562 0.945678 
-0.247818 0.276921 0.928386 
-0.278579 0.291796 0.915013 
-0.308891 0.304178 0.901145 
-0.333957 0.311125 0.889761 
-0.313171 0.306402 0.898911 
-0.228897 0.304748 0.924519 
-0.236173 0.334359 0.912374 
-0.198913 0.407197 0.891417 
-0.126542 0.466457 0.875446 
-0.0829557 0.638528 0.765115 
-0.00687042 0.908962 0.416822 
0.00914664 0.992278 0.123699 
0.0148339 0.969457 -0.244811 
0.0701372 0.771805 -0.631979 
0.153469 0.510363 -0.846154 
0.171996 0.420868 -0.890667 
0.219533 0.370604 -0.902473 
0.274368 0.332687 -0.902242 
0.315968 0.312082 -0.895974 
0.330947 0.297791 -0.89543 
0.319213 0.291728 -0.901664 
0.272901 0.272652 -0.922597 
0.24785 0.263722 -0.932213 
0.231225 0.260227 -0.937453 
0.181762 0.229052 -0.956294 
0.131895 0.190706 -0.972746 
0.0909381 0.152806 -0.984063 
0.0581746 0.117861 -0.991325 
0.0370384 0.0907275 -0.995187 
0.0230826 0.0691683 -0.997338 
0.0130009 0.0516212 -0.998582 
0.00525484 0.0367556 -0.99931 
-0.000687889 0.0249481 -0.999689 
-0.00624365 0.0156606 -0.999858 
-0.0101923 0.00948146 -0.999903 
-0.0136734 0.00577459 -0.99989 
-0.016985 0.0038668 -0.999848 
-0.01832 0.00312083 -0.999827 
-0.0185915 0.00237312 -0.999824 
-0.019354 0.00115707 -0.999812 
-0.0192568 -0.000204004 -0.999815 
-0.0204617 -0.00111609 -0.99979 
-0.0178465 -0.00171478 -0.999839 
-0.0155662 -0.00111852 -0.999878 
-0.0158131 0.000473371 -0.999875 
-0.0127252 -8.94986e-05 -0.999919 
-0.012635 -0.0016 -0.999919 
-0.00687506 -0.0104407 -0.999922 
-0.00260648 -0.0220316 -0.999754 
-0.00452495 -0.0185301 -0.999818 
-0.000869975 0.000364912 -1 
-7.02462e-05 9.83882e-05 1 
-0.00145313 -0.02073 0.999784 
-0.00346492 -0.0252291 0.999676 
-0.000466105 -0.014474 0.999895 
0.0020574 -0.00562572 0.999982 
0.00466328 -0.00174134 0.999988 
0.0065489 -0.00150297 0.999977 
0.00882811 -0.00345982 0.999955 
0.0103202 -0.00429251 0.999938 
0.0109265 -0.00280014 0.999936 
0.0112193 -3.53764e-05 0.999937 
0.0123273 0.00269818 0.99992 
0.0110429 0.00485986 0.999927 
0.00917364 0.00621434 0.999939 
0.00660771 0.00705113 0.999953 
0.00342135 0.00881206 0.999955 
0.00122273 0.0121974 0.999925 
-0.00385017 0.0201422 0.99979 
-0.0100332 0.0314105 0.999456 
-0.0184852 0.0468924 0.998729 
-0.0290007 0.0652179 0.99745 
-0.0437869 0.0882202 0.995138 
-0.0649721 0.117291 0.99097 
-0.0912793 0.149266 0.984575 
-0.133301 0.194422 0.971818 
-0.177046 0.234724 0.955803 
-0.246593 0.290156 0.924663 
-0.306725 0.335333 0.89077 
-0.334516 0.345927 0.876604 
-0.364515 0.354358 0.861138 
-0.393308 0.359978 0.846005 
-0.36371 0.327817 0.871924 
-0.439897 0.353676 0.825472 
-0.363858 0.331398 0.870507 
-0.353449 0.342322 0.870568 
-0.296985 0.366798 0.881623 
-0.278326 0.435352 0.856156 
-0.110055 0.664039 0.739554 
-0.0574992 0.784313 0.617695 
0.0148674 0.999847 0.00919244 
0.0437522 0.891263 -0.451371 
0.111903 0.63023 -0.768302 
0.232074 0.454196 -0.860144 
0.281628 0.413162 -0.866016 
0.329474 0.371813 -0.867872 
0.408157 0.344832 -0.84528 
0.428396 0.334373 -0.839447 
0.427583 0.340783 -0.837281 
0.395783 0.33819 -0.853805 
0.350706 0.326256 -0.877817 
0.330504 0.327235 -0.88526 
0.291621 0.315975 -0.902838 
0.244481 0.289925 -0.925296 
0.185444 0.244106 -0.951852 
0.130292 0.192317 -0.972645 
0.0852832 0.142509 -0.986113 
0.0574061 0.107586 -0.992537 
0.0397419 0.0821255 -0.995829 
0.0261891 0.0606165 -0.997818 
0.0160198 0.0424257 -0.998971 
0.00914098 0.0288777 -0.999541 
0.00242952 0.0180313 -0.999834 
-0.00188361 0.0114624 -0.999933 
-0.00528388 0.00801792 -0.999954 
-0.00854203 0.0060625 -0.999945 
-0.00990659 0.00513493 -0.999938 
-0.011104 0.00369473 -0.999932 
-0.012113 0.00151566 -0.999925 
-0.0117133 -0.000803854 -0.999931 
-0.0124879 -0.00243937 -0.999919 
-0.0098894 -0.0035684 -0.999945 
-0.00829922 -0.00269571 -0.999962 
-0.00783026 -0.000781689 -0.999969 
-0.0044456 -0.00208437 -0.999988 
-0.00434168 -0.00575591 -0.999974 
-0.000289023 -0.0154701 -0.99988 
0.00247566 -0.0263324 -0.99965 
0.000787107 -0.0200679 -0.999798 
0.000467273 4.21951e-05 -1 
-0.000894537 0.000429119 1 
-0.00373479 -0.0206803 0.999779 
-0.00504218 -0.0279671 0.999596 
-0.00419724 -0.0215824 0.999758 
-0.00262498 -0.0107703 0.999939 
-0.000844693 -0.00434204 0.99999 
0.00130643 -0.00231673 0.999996 
0.00356994 -0.00389209 0.999986 
0.00513958 -0.00548614 0.999972 
0.00634459 -0.00429536 0.999971 
0.00651281 -0.00119879 0.999978 
0.00674759 0.00253372 0.999974 
0.00580164 0.00566872 0.999967 
0.00456077 0.00780764 0.999959 
0.00208607 0.00927348 0.999955 
-0.000655761 0.0107146 0.999942 
-0.00449891 0.0145043 0.999885 
-0.00846965 0.0210603 0.999742 
-0.0150035 0.0333615 0.999331 
-0.0229991 0.0494585 0.998511 
-0.0344996 0.0711551 0.996868 
-0.0496055 0.0963365 0.994112 
-0.0717699 0.128743 0.989078 
-0.104489 0.173032 0.979358 
-0.145724 0.222176 0.964055 
-0.201123 0.28135 0.938292 
-0.24676 0.310284 0.91806 
-0.319891 0.378306 0.868651 
-0.37028 0.409889 0.833597 
-0.415095 0.424947 0.804435 
-0.449686 0.428922 0.78346 
-0.479375 0.42462 0.768048 
-0.447644 0.377287 0.810721 
-0.482177 0.376087 0.791242 
-0.470052 0.372479 0.800194 
-0.481323 0.386774 0.786596 
-0.40467 0.374551 0.834239 
-0.0785367 0.807981 0.583951 
-0.0250494 0.889804 0.455654 
0.0261957 0.968424 -0.24793 
0.0706394 0.815463 -0.574483 
0.173394 0.589814 -0.788704 
0.463961 0.473627 -0.74861 
0.375575 0.418664 -0.82684 
0.447446 0.372053 -0.813246 
0.508859 0.363779 -0.780209 
0.520476 0.381402 -0.763962 
0.489062 0.394094 -0.778144 
0.43871 0.395064 -0.807129 
0.405166 0.401485 -0.821371 
0.375643 0.40392 -0.834111 
0.331522 0.386517 -0.860638 
0.269108 0.339791 -0.901179 
0.21784 0.302669 -0.927867 
0.16214 0.243849 -0.956163 
0.112028 0.183454 -0.976624 
0.0769446 0.136697 -0.98762 
0.0542576 0.103552 -0.993143 
0.037958 0.0769504 -0.996312 
0.0259818 0.055125 -0.998141 
0.017533 0.0383832 -0.999109 
0.010024 0.0242065 -0.999657 
0.00500155 0.0159396 -0.99986 
0.00125089 0.0116331 -0.999932 
-0.00230251 0.00916306 -0.999955 
-0.00417491 0.00806326 -0.999959 
-0.00593394 0.00619357 -0.999963 
-0.00699103 0.00313733 -0.999971 
-0.00709835 -0.000195465 -0.999975 
-0.00702215 -0.00327241 -0.99997 
-0.00565235 -0.00507344 -0.999971 
-0.00400014 -0.00451111 -0.999982 
-0.00268122 -0.00222562 -0.999994 
5.14548e-05 -0.0033622 -0.999994 
0.000908006 -0.00834068 -0.999965 
0.00287 -0.0189863 -0.999816 
0.00388058 -0.029149 -0.999568 
0.00332538 -0.0233101 -0.999723 
0.000744839 -0.000101852 -1 
-0.000293729 -3.42153e-05 1 
-0.00339969 -0.0229315 0.999731 
-0.00431964 -0.0292002 0.999564 
-0.00393899 -0.0190039 0.999812 
-0.00260015 -0.00908894 0.999955 
-0.000477546 -0.00431654 0.999991 
0.00152318 -0.00375813 0.999992 
0.00356227 -0.00565854 0.999978 
0.00465608 -0.0059323 0.999972 
0.00510796 -0.00339787 0.999981 
0.00498778 0.00121377 0.999987 
0.0042361 0.00555639 0.999976 
0.00292727 0.00897491 0.999955 
0.00098272 0.0110926 0.999938 
-0.00167684 0.0125908 0.999919 
-0.00495077 0.0150213 0.999875 
-0.00892228 0.0208778 0.999742 
-0.0136613 0.0303125 0.999447 
-0.0210251 0.047037 0.998672 
-0.0306158 0.0682013 0.997202 
-0.0447492 0.0969626 0.994282 
-0.0648172 0.13097 0.989265 
-0.0926416 0.175316 0.980144 
-0.132647 0.235258 0.962839 
-0.185305 0.302044 0.93511 
-0.242932 0.371472 0.896099 
-0.278946 0.373577 0.884663 
-0.360916 0.451214 0.816177 
-0.419721 0.48606 0.766538 
-0.459834 0.490046 0.740545 
-0.501392 0.499388 0.706553 
-0.533162 0.495659 0.685609 
-0.513782 0.426445 0.744428 
-0.602928 0.425143 0.675079 
-0.548021 0.400736 0.734224 
-0.561811 0.415718 0.715225 
-0.327522 0.45871 0.826023 
-0.146417 0.519854 0.841614 
-0.00753128 0.943498 0.331293 
0.0314199 0.911272 -0.410605 
0.101436 0.740077 -0.664828 
0.23656 0.566047 -0.789702 
0.345387 0.456048 -0.8202 
0.473082 0.406372 -0.7817 
0.57398 0.382427 -0.724083 
0.563243 0.389476 -0.728743 
0.547494 0.412377 -0.728145 
0.51942 0.451264 -0.725646 
0.496777 0.477386 -0.724786 
0.456469 0.482068 -0.747828 
0.411891 0.482595 -0.772948 
0.357073 0.460569 -0.812635 
0.297363 0.415262 -0.859728 
0.234613 0.368614 -0.899489 
0.172218 0.291482 -0.940946 
0.118861 0.218673 -0.968532 
0.08153 0.161029 -0.983576 
0.056878 0.119541 -0.991199 
0.0403645 0.0886673 -0.995243 
0.0283839 0.0635838 -0.997573 
0.0185349 0.0413728 -0.998972 
0.0120066 0.0272452 -0.999557 
0.00711813 0.0185147 -0.999803 
0.00348372 0.0142581 -0.999892 
0.000406036 0.0120709 -0.999927 
-0.00203441 0.0106408 -0.999941 
-0.00383734 0.00813031 -0.99996 
-0.00495207 0.00446837 -0.999978 
-0.005475 -0.000170058 -0.999985 
-0.00539401 -0.00383552 -0.999978 
-0.00477682 -0.00606314 -0.99997 
-0.00353274 -0.00579161 -0.999977 
-0.00149109 -0.00347568 -0.999993 
0.000727421 -0.0045738 -0.999989 
0.00250972 -0.0104601 -0.999942 
0.00307922 -0.0207141 -0.999781 
0.00296384 -0.030347 -0.999535 
0.00285874 -0.0245056 -0.999696 
0.00030736 -6.73112e-05 -1 
-0.000170938 -0.000272709 1 
-0.00175791 -0.0243134 0.999703 
-0.00252859 -0.0311833 0.99951 
-0.00205761 -0.0216423 0.999764 
-0.000699336 -0.0120391 0.999927 
0.00137307 -0.00619114 0.99998 
0.00320038 -0.00475448 0.999984 
0.00484304 -0.00628247 0.999969 
0.00554973 -0.00643294 0.999964 
0.00543541 -0.00354989 0.999979 
0.00485097 0.000971691 0.999988 
0.00350649 0.00684455 0.99997 
0.00203335 0.0107962 0.99994 
-0.000112462 0.0133893 0.99991 
-0.00243235 0.0147304 0.999889 
-0.00542202 0.0170368 0.99984 
-0.00900173 0.0225192 0.999706 
-0.0134633 0.032809 0.999371 
-0.0195958 0.0488489 0.998614 
-0.0285599 0.073161 0.996911 
-0.0407634 0.1028 0.993866 
-0.0596191 0.142861 0.987946 
-0.0858812 0.194882 0.97706 
-0.122114 0.259153 0.958086 
-0.174599 0.33672 0.925275 
-0.233722 0.424883 0.874556 
-0.298486 0.473095 0.828907 
-0.335383 0.465682 0.818937 
-0.429147 0.552105 0.714852 
-0.479172 0.569421 0.667947 
-0.50905 0.56261 0.651413 
-0.547538 0.566912 0.615478 
-0.561781 0.495791 0.662264 
-0.602412 0.488119 0.631537 
-0.575615 0.437835 0.690628 
-0.63252 0.438344 0.638571 
-0.517457 0.411693 0.750165 
-0.421693 0.38195 0.822368 
-0.166564 0.555447 0.814699 
0.0108591 0.973774 0.227259 
0.0405194 0.82072 -0.569893 
0.285109 0.478476 -0.830526 
0.491728 0.443204 -0.749516 
0.588238 0.40719 -0.698693 
0.645905 0.412887 -0.64213 
0.649545 0.455444 -0.608821 
0.583204 0.475989 -0.658261 
0.589059 0.533167 -0.607241 
0.5737 0.561659 -0.59616 
0.505215 0.550529 -0.664587 
0.438087 0.545625 -0.714404 
0.398965 0.56244 -0.724215 
0.322745 0.494875 -0.806805 
0.269637 0.465522 -0.842962 
0.196208 0.376223 -0.905516 
0.139171 0.291509 -0.94639 
0.0941658 0.214305 -0.972217 
0.0639352 0.154391 -0.985939 
0.0442948 0.11227 -0.99269 
0.0310544 0.079822 -0.996325 
0.0216959 0.053863 -0.998313 
0.0145813 0.0353518 -0.999269 
0.00954242 0.0238871 -0.999669 
0.00587963 0.0180575 -0.99982 
0.00282331 0.0153348 -0.999878 
0.000213424 0.0136701 -0.999907 
-0.00200851 0.0111654 -0.999936 
-0.00369484 0.00712103 -0.999968 
-0.00493442 0.00153283 -0.999987 
-0.0056219 -0.00359535 -0.999978 
-0.00551267 -0.00650372 -0.999964 
-0.00482261 -0.00636829 -0.999968 
-0.0029754 -0.00448749 -0.999986 
-0.00156939 -0.00555228 -0.999983 
0.000719307 -0.0105708 -0.999944 
0.000975487 -0.0201692 -0.999796 
0.000867714 -0.0303889 -0.999538 
0.00125879 -0.0246789 -0.999695 
3.22325e-05 -0.000234967 -1 
0.000120194 -0.000214302 1 
-0.000209044 -0.0269736 0.999636 
-0.000425682 -0.0319203 0.99949 
0.000597266 -0.0226823 0.999743 
0.00204253 -0.0128786 0.999915 
0.00384088 -0.00700542 0.999968 
0.00530975 -0.00572451 0.99997 
0.00613092 -0.00673733 0.999959 
0.00598612 -0.00593337 0.999964 
0.00506496 -0.00208791 0.999985 
0.00376016 0.00336082 0.999987 
0.00137391 0.00963101 0.999953 