# vtk DataFile Version 3.0 
Exported using Morpho https://github.com/Morpho-lang/morpho 
ASCII 
DATASET UNSTRUCTURED_GRID 

POINTS 1978 float 
-12 -4 -7.08443e-12 
-11.585 -4 5.67732e-11 
-11.2837 -4 -7.00053e-12 
-10.9561 -4 -1.09824e-10 
-10.6507 -4 -1.37507e-10 
-10.3181 -4 -7.8201e-11 
-9.98818 -4 1.58963e-11 
-9.67126 -4 3.57347e-11 
-9.32504 -4 1.49766e-11 
-8.99669 -4 -1.35867e-11 
-8.68694 -4 -4.06761e-11 
-8.37343 -4 -5.02975e-11 
-8.06965 -4 -4.35525e-11 
-7.77152 -4 -2.76259e-11 
-7.47233 -4 -5.60283e-12 
-7.18239 -4 5.51166e-13 
-6.87306 -4 -1.06661e-11 
-6.57268 -4 -3.81489e-11 
-6.27174 -4 -7.90107e-11 
-5.97114 -4 -1.1051e-10 
-5.67129 -4 -1.18359e-10 
-5.37467 -4 -7.8195e-11 
-5.08744 -4 5.40261e-11 
-4.79003 -4 3.23448e-10 
-4.50057 -4 7.2095e-10 
-4.20851 -4 1.45439e-09 
-3.88539 -4 2.52607e-09 
-3.56084 -4 4.29487e-09 
-3.21843 -4 6.82726e-09 
-2.87035 -4 1.02468e-08 
-2.48667 -4 1.22758e-08 
-2.18584 -4 1.19524e-08 
-1.9344 -4 1.12142e-08 
-1.72569 -4 1.2063e-08 
-1.43137 -4 1.28083e-08 
-1.22395 -4 9.96889e-09 
-0.891153 -4 7.69665e-09 
-0.670993 -4 5.38168e-10 
-0.493667 -4 -8.59553e-09 
0.119531 -4 1.38037e-08 
0.283889 -4 -1.07994e-08 
0.790829 -4 8.58352e-09 
0.959558 -4 -8.23695e-09 
1.19734 -4 -8.79024e-09 
1.40302 -4 -9.5044e-09 
1.63142 -4 -1.31818e-08 
1.92499 -4 -1.35739e-08 
2.20229 -4 -1.25511e-08 
2.51189 -4 -1.20048e-08 
2.8788 -4 -1.05918e-08 
3.26996 -4 -7.55558e-09 
3.6056 -4 -4.49291e-09 
3.94877 -4 -2.78818e-09 
4.2471 -4 -1.48219e-09 
4.52764 -4 -7.41507e-10 
4.8032 -4 -3.03789e-10 
5.09968 -4 -5.74838e-11 
5.38999 -4 7.90069e-11 
5.68885 -4 1.16605e-10 
5.98672 -4 1.05235e-10 
6.28352 -4 8.36262e-11 
6.5819 -4 5.98144e-11 
6.88008 -4 3.01975e-11 
7.16372 -4 7.29641e-12 
7.45002 -4 -7.38377e-12 
7.75235 -4 -3.48938e-12 
8.05949 -4 6.59117e-12 
8.35246 -4 1.84147e-11 
8.67598 -4 2.49572e-11 
8.95854 -4 2.74819e-11 
9.30888 -4 2.19676e-11 
9.623 -4 1.06626e-12 
9.91421 -4 1.17432e-12 
10.2649 -4 5.98902e-11 
10.5738 -4 1.23477e-10 
10.9735 -4 1.11872e-10 
11.3083 -4 -1.88309e-11 
11.5912 -4 -6.24803e-11 
12 -4 7.95228e-12 
-12 -3.63301 2.08152e-11 
-11.6947 -3.72123 -2.55936e-12 
-11.3425 -3.6191 2.07139e-11 
-11.0345 -3.65615 3.98501e-11 
-10.7122 -3.64049 3.75361e-11 
-10.3977 -3.67054 -3.70018e-11 
-10.0619 -3.66557 -5.40425e-11 
-9.73699 -3.65698 -2.26103e-11 
-9.4077 -3.68259 -2.26246e-12 
-9.06917 -3.66853 -3.44244e-12 
-8.74808 -3.65874 -1.3988e-11 
-8.43276 -3.6702 -1.9835e-11 
-8.11436 -3.65787 -3.25695e-11 
-7.80591 -3.65081 -5.35496e-11 
-7.50092 -3.65103 -6.70948e-11 
-7.20192 -3.64801 -9.94641e-11 
-6.89589 -3.67413 -1.23182e-10 
-6.58645 -3.66792 -1.83754e-10 
-6.27787 -3.66821 -3.09386e-10 
-5.97311 -3.66919 -4.0278e-10 
-5.66936 -3.67173 -6.13162e-10 
-5.37325 -3.66644 -8.77201e-10 
-5.0839 -3.66559 -1.09394e-09 
-4.78177 -3.6762 -1.08819e-09 
-4.48157 -3.65947 -1.22998e-09 
-4.15273 -3.66372 -1.67955e-09 
-3.81534 -3.61461 -2.52083e-09 
-3.47444 -3.59939 -1.76967e-09 
-3.13239 -3.60099 -1.09477e-09 
-2.77096 -3.6728 -1.63129e-09 
-2.46855 -3.68003 -6.97868e-10 
-2.17567 -3.7147 -5.23198e-09 
-1.92427 -3.73694 -7.73313e-09 
-1.65031 -3.85944 -5.69492e-09 
-1.43015 -3.83791 -2.48714e-09 
-1.08776 -3.91061 -1.2252e-09 
-0.862228 -3.88555 -2.1601e-09 
-0.557838 -3.86221 4.82963e-09 
-0.324822 -3.9576 2.37835e-08 
-0.035529 -3.92661 -2.08899e-08 
0.346949 -3.83425 7.84227e-09 
0.534527 -3.92992 1.04307e-09 
0.79962 -3.7966 -1.65752e-10 
1.12345 -3.86501 2.709e-09 
1.38262 -3.82907 9.18873e-09 
1.68633 -3.84405 8.66627e-10 
1.96102 -3.77904 3.37893e-09 
2.23983 -3.72451 3.684e-10 
2.55185 -3.68898 2.44955e-09 
2.87077 -3.65316 -9.01986e-10 
3.22284 -3.63849 2.75182e-10 
3.58679 -3.59819 2.17147e-09 
3.91492 -3.6399 1.64896e-09 
4.25515 -3.63357 1.85844e-09 
4.56356 -3.65504 1.3709e-09 
4.87427 -3.68783 1.17522e-09 
5.17562 -3.67666 1.00255e-09 
5.47353 -3.67635 7.97381e-10 
5.77058 -3.66504 5.83543e-10 
6.06578 -3.65217 4.05013e-10 
6.36211 -3.64795 2.96363e-10 
6.66421 -3.65281 1.96751e-10 
6.959 -3.64371 1.34527e-10 
7.25168 -3.65234 7.58052e-11 
7.55175 -3.6675 5.80872e-11 
7.85304 -3.6653 3.70864e-11 
8.14965 -3.64024 2.34639e-11 
8.45212 -3.67105 1.91605e-11 
8.74168 -3.62657 9.28179e-12 
9.06557 -3.69908 -1.10831e-11 
9.38839 -3.66416 1.86048e-11 
9.6953 -3.63686 3.1031e-11 
10.0256 -3.69431 5.80828e-11 
10.3452 -3.64202 1.28425e-11 
10.7102 -3.71835 -8.12888e-11 
11.0453 -3.66352 -1.04978e-10 
11.3507 -3.60051 -1.34007e-11 
11.7029 -3.72414 -2.7911e-11 
12 -3.62024 -2.00989e-11 
-12 -3.32402 1.60394e-13 
-11.6326 -3.37488 -1.77756e-11 
-11.2914 -3.26374 -2.59943e-11 
-10.9737 -3.30824 1.04193e-10 
-10.6505 -3.29686 9.13253e-11 
-10.3275 -3.34205 1.78601e-12 
-10.004 -3.32527 2.69379e-12 
-9.69615 -3.3092 -2.91777e-13 
-9.38977 -3.35809 -2.32186e-11 
-9.07234 -3.33309 -1.00001e-11 
-8.77966 -3.30299 -7.51741e-12 
-8.47792 -3.33864 -2.3679e-11 
-8.16578 -3.33249 -4.17166e-11 
-7.84747 -3.31172 -5.97253e-11 
-7.54281 -3.30748 -7.34553e-11 
-7.24112 -3.29689 -1.00657e-10 
-6.94105 -3.34571 -1.49259e-10 
-6.6336 -3.33682 -2.27865e-10 
-6.3295 -3.34246 -3.17055e-10 
-6.02298 -3.3379 -4.34567e-10 
-5.7238 -3.34544 -5.60031e-10 
-5.42456 -3.33765 -7.52406e-10 
-5.12734 -3.32083 -8.37103e-10 
-4.82716 -3.35676 -1.08196e-09 
-4.51089 -3.31793 -1.39187e-09 
-4.18871 -3.32347 -1.90455e-09 
-3.85519 -3.25601 -1.66381e-09 
-3.53802 -3.24773 -1.90591e-09 
-3.22723 -3.25112 -1.8952e-09 
-2.91664 -3.33025 -2.12207e-09 
-2.63588 -3.35239 4.92618e-10 
-2.35591 -3.434 -5.80214e-09 
-2.07421 -3.48189 -5.25016e-10 
-1.68883 -3.67916 -9.74123e-09 
-1.45505 -3.66338 -1.13332e-08 
-1.25548 -3.80723 1.47102e-09 
-1.00218 -3.78077 3.45818e-09 
-0.727073 -3.83251 7.19968e-09 
-0.217167 -3.85011 -2.64482e-09 
0.118433 -3.82736 5.37028e-10 
0.434586 -3.65363 1.67726e-08 
0.611502 -3.79326 8.03904e-09 
0.974901 -3.76521 -9.03779e-09 
1.2205 -3.70887 1.33754e-08 
1.52113 -3.6933 1.19497e-09 
1.74972 -3.62923 8.75882e-10 
1.98325 -3.52827 4.34233e-09 
2.25561 -3.45015 4.10435e-09 
2.54622 -3.38078 2.64418e-09 
2.85955 -3.34825 2.53863e-09 
3.20842 -3.31915 -2.05729e-09 
3.53416 -3.26146 1.70043e-09 
3.85995 -3.26144 1.88224e-09 
4.17988 -3.29657 1.4793e-09 
4.50873 -3.30692 1.31878e-09 
4.81249 -3.35798 1.26321e-09 
5.11015 -3.3556 9.57855e-10 
5.40632 -3.34971 8.01323e-10 
5.70074 -3.33726 5.88134e-10 
5.99815 -3.31788 4.35826e-10 
6.30131 -3.30547 2.72632e-10 
6.60946 -3.31488 2.10995e-10 
6.91828 -3.30238 1.58764e-10 
7.22429 -3.31077 1.13673e-10 
7.5255 -3.33258 8.19194e-11 
7.82864 -3.32435 4.28817e-11 
8.12271 -3.29052 2.83068e-11 
8.42034 -3.3183 2.18658e-11 
8.72914 -3.29498 1.62035e-11 
9.04969 -3.37249 1.33643e-11 
9.36856 -3.3287 1.68056e-11 
9.67599 -3.29141 7.2331e-12 
9.98975 -3.36118 1.94455e-11 
10.3002 -3.29472 4.04323e-12 
10.6332 -3.39806 -1.04759e-10 
10.9704 -3.32349 -1.12078e-10 
11.2886 -3.25098 -2.02165e-13 
11.6354 -3.37325 -8.25485e-12 
12 -3.30558 4.93371e-12 
-12 -2.99384 -1.75329e-12 
-11.6574 -3.05493 1.89684e-11 
-11.3022 -2.94793 -1.73172e-10 
-10.945 -2.96162 -1.20805e-12 
-10.6122 -2.96158 3.77528e-11 
-10.299 -3.00693 1.75078e-11 
-9.99234 -2.97296 2.92904e-11 
-9.672 -2.9799 -3.37712e-12 
-9.35478 -3.01959 -3.5435e-11 
-9.05931 -2.97278 -2.90765e-11 
-8.74422 -2.96882 -9.35101e-12 
-8.43807 -3.0042 -4.18964e-12 
-8.1178 -3.00685 8.1477e-13 
-7.81312 -2.9715 -1.65513e-13 
-7.50424 -2.96926 -2.32677e-11 
-7.20567 -2.95245 -3.63292e-11 
-6.9154 -3.01885 -7.51783e-11 
-6.60767 -3.00783 -4.94665e-11 
-6.30382 -3.01694 -3.54454e-11 
-6.00927 -3.00469 -4.32304e-11 
-5.71521 -3.0147 2.62746e-11 
-5.42504 -3.0011 1.03375e-11 
-5.12309 -2.98612 1.27696e-10 
-4.80981 -3.02094 -6.23692e-11 
-4.49012 -2.97128 3.8689e-11 
-4.16185 -2.98553 2.70025e-10 
-3.83678 -2.91329 1.55103e-09 
-3.53578 -2.93709 1.0273e-09 
-3.27465 -2.95732 -1.05011e-10 
-3.01545 -3.02826 1.22541e-09 
-2.76775 -3.07462 8.86512e-10 
-2.3942 -3.1795 5.79267e-09 
-2.16339 -3.26479 -6.76828e-09 
-1.85329 -3.49333 -1.93715e-09 
-1.60939 -3.50002 -9.68799e-09 
-1.30737 -3.58467 1.85845e-09 
-1.1559 -3.68219 -3.8716e-09 
-0.858846 -3.70769 -2.53456e-09 
-0.392777 -3.82784 -6.59885e-09 
-0.0941489 -3.77822 -8.53753e-09 
0.216803 -3.69936 1.07522e-08 
0.615384 -3.59835 5.92525e-09 
1.07835 -3.59932 1.61932e-09 
1.36944 -3.58813 6.49969e-09 
1.61948 -3.49398 8.85427e-09 
1.8528 -3.37388 -2.42131e-09 
2.1235 -3.26672 -5.04807e-10 
2.41239 -3.16853 2.94954e-10 
2.69676 -3.10042 5.35104e-10 
2.98245 -3.08139 1.39042e-09 
3.26806 -3.0231 -1.00636e-09 
3.52665 -2.93911 -1.71561e-09 
3.80051 -2.94112 -4.10001e-10 
4.12103 -2.94558 -1.59871e-10 
4.45542 -2.96611 -2.59564e-10 
4.78549 -3.01212 -2.68764e-10 
5.09555 -3.02173 1.67396e-10 
5.40136 -3.01779 -3.33835e-12 
5.69666 -3.00658 -1.45823e-11 
5.99573 -2.98956 1.10296e-11 
6.2991 -2.97135 2.41268e-11 
6.59905 -2.98434 4.78139e-11 
6.91477 -2.97833 3.81821e-11 
7.22882 -2.9807 3.9415e-11 
7.53464 -2.99868 3.94794e-11 
7.83639 -2.98255 1.43347e-11 
8.13473 -2.94982 1.13145e-11 
8.43743 -2.97626 6.86541e-12 
8.74877 -2.9666 9.68122e-12 
9.05784 -3.04693 2.05024e-11 
9.36426 -2.98903 2.73168e-11 
9.65841 -2.94344 6.05615e-12 
9.97383 -3.01512 -2.97842e-11 
10.309 -2.96634 -2.0253e-11 
10.6459 -3.06341 -5.92223e-11 
10.9746 -2.97087 1.23326e-11 
11.325 -2.91979 2.25622e-10 
11.6588 -3.05193 -2.03689e-11 
12 -2.96181 6.01103e-12 
-12 -2.68408 1.09037e-12 
-11.6447 -2.73042 -7.87591e-11 
-11.315 -2.6192 -1.66989e-10 
-10.9628 -2.64566 -6.44727e-11 
-10.6095 -2.63138 -1.21368e-11 
-10.2778 -2.65691 9.49436e-12 
-9.94351 -2.64631 1.42111e-11 
-9.61782 -2.65874 -2.29413e-11 
-9.32219 -2.66405 -5.15509e-11 
-9.00001 -2.64219 -3.32945e-11 
-8.69173 -2.63221 -9.8061e-12 
-8.38033 -2.68294 6.50855e-13 
-8.08343 -2.66068 1.37898e-11 
-7.7674 -2.64528 8.51567e-12 
-7.46596 -2.62962 -1.04089e-12 
-7.14615 -2.6355 1.13065e-11 
-6.84471 -2.693 2.14592e-11 
-6.53755 -2.68178 4.5827e-11 
-6.24674 -2.67849 9.95663e-11 
-5.94853 -2.67345 1.61404e-10 
[...]
POINT_DATA 1978 
VECTORS vectors float
0.00232168 -0.00265239 0.999994 
0.00188948 -0.0115735 0.999931 
0.00127532 0.000669349 0.999999 
0.00205492 0.014899 0.999887 
0.00208035 0.0169512 0.999854 
0.00180847 0.00849115 0.999962 
0.00193787 -0.000909261 0.999998 
0.00193638 -0.00314159 0.999993 
0.00170137 -0.0012956 0.999998 
0.00190265 0.00146037 0.999997 
0.00202586 0.00397362 0.99999 
0.00197381 0.00492491 0.999986 
0.00204768 0.0044878 0.999988 
0.00205151 0.00296645 0.999993 
0.00210036 0.000978723 0.999997 
0.0021693 0.000452211 0.999998 
0.00193019 0.00193344 0.999996 
0.0018496 0.00629854 0.999978 
0.00196738 0.0142796 0.999896 
0.00191716 0.025164 0.999681 
0.00181564 0.0382803 0.999265 
0.00186654 0.0531975 0.998582 
0.00199212 0.068716 0.997634 
0.00188586 0.087628 0.996151 
0.00175014 0.107182 0.994238 
0.00164961 0.127361 0.991855 
0.00142044 0.147704 0.989031 
0.00134779 0.167165 0.985928 
0.00149506 0.185622 0.98262 
0.000982178 0.204531 0.97886 
0.000770238 0.227562 0.973763 
0.00170187 0.24553 0.969388 
0.00185179 0.268427 0.963298 
0.00127251 0.293729 0.955888 
0.000508626 0.369467 0.929244 
-0.000198378 0.445654 0.895205 
-0.000416391 0.629886 0.776688 
-0.000534358 0.764269 0.644898 
0.000176327 0.870412 0.492325 
-0.000131252 0.994016 -0.109235 
0.000584243 0.9568 -0.290747 
-0.000161512 0.673576 -0.739118 
9.65316e-05 0.588043 -0.80883 
7.08062e-05 0.480614 -0.876932 
-0.000525528 0.394868 -0.918738 
-0.00108581 0.327089 -0.944993 
-0.0012126 0.281717 -0.959497 
-0.00100386 0.25132 -0.967904 
-0.00101879 0.224955 -0.974369 
-0.00113278 0.196192 -0.980565 
-0.00124968 0.178935 -0.98386 
-0.00139378 0.162847 -0.98665 
-0.00155164 0.145114 -0.989414 
-0.00177435 0.127606 -0.991823 
-0.00200164 0.106333 -0.994329 
-0.00196869 0.0864776 -0.996252 
-0.0018366 0.0670093 -0.997751 
-0.00184192 0.0504735 -0.998724 
-0.00185553 0.0361905 -0.999343 
-0.00194155 0.0248207 -0.99969 
-0.00196993 0.0160959 -0.999868 
-0.0019023 0.0095071 -0.999953 
-0.00214734 0.00468882 -0.999987 
-0.00235269 0.00151108 -0.999996 
-0.00208969 -0.000296842 -0.999998 
-0.00195732 -0.000189002 -0.999998 
-0.00201168 0.000737905 -0.999998 
-0.00195908 0.00172694 -0.999997 
-0.00212356 0.00251422 -0.999995 
-0.00187594 0.00264702 -0.999995 
-0.00169237 0.00191782 -0.999997 
-0.00212578 0.000550405 -0.999998 
-0.00202996 0.000826673 -0.999998 
-0.00195363 0.00713773 -0.999973 
-0.00191216 0.0131519 -0.999912 
-0.00176573 0.0120156 -0.999926 
-0.00153491 -0.00395999 -0.999991 
-0.00212016 -0.0139996 -0.9999 
-0.002317 -0.00255462 -0.999994 
0.000389656 -0.0034929 0.999994 
0.0071611 -0.0118171 0.999905 
0.0115447 -0.00691463 0.999909 
0.0142142 0.0038425 0.999892 
0.0158845 0.00886145 0.999835 
0.017193 0.0071938 0.999826 
0.0184316 0.00162949 0.999829 
0.0196762 -0.00137728 0.999805 
0.0196602 -0.00158843 0.999805 
0.0202284 0.000146194 0.999795 
0.0212398 0.00226517 0.999772 
0.0213196 0.00377773 0.999766 
0.0215041 0.00392337 0.999761 
0.0215999 0.00310179 0.999762 
0.0208571 0.00203077 0.99978 
0.0201581 0.00194804 0.999795 
0.0181481 0.00373852 0.999828 
0.0166824 0.00855468 0.999824 
0.0146452 0.0163126 0.99976 
0.0118028 0.0269125 0.999568 
0.008947 0.0401332 0.999154 
0.00532023 0.0554331 0.998448 
0.000196231 0.0718239 0.997417 
-0.00592239 0.089485 0.995971 
-0.0146389 0.110106 0.993812 
-0.0241218 0.132115 0.990941 
-0.0431394 0.153972 0.987133 
-0.0658863 0.178232 0.98178 
-0.0889522 0.201084 0.975527 
-0.0905062 0.219174 0.971479 
-0.103407 0.236883 0.966019 
-0.0995259 0.254284 0.961995 
-0.0980412 0.275824 0.956195 
-0.05194 0.313416 0.948194 
-0.0637271 0.372499 0.925842 
-0.0315784 0.518744 0.854346 
-0.0309901 0.642038 0.766046 
-0.021008 0.830173 0.557109 
0.00105767 0.941445 0.337166 
0.00300202 0.998887 0.0470729 
0.0111137 0.928037 -0.372321 
0.00828481 0.844148 -0.536046 
0.0528276 0.665697 -0.74435 
0.0441698 0.515408 -0.855806 
0.0571264 0.396282 -0.91635 
0.0577484 0.320169 -0.945599 
0.0782899 0.279731 -0.956881 
0.0958858 0.252236 -0.962904 
0.097973 0.22835 -0.968637 
0.0977154 0.211263 -0.972533 
0.0824996 0.191961 -0.977929 
0.0664119 0.171102 -0.983013 
0.041682 0.1496 -0.987868 
0.0272755 0.127474 -0.991467 
0.0150662 0.106317 -0.994218 
0.00453631 0.0842463 -0.996435 
-0.00194541 0.065035 -0.997881 
-0.00693883 0.0484544 -0.998801 
-0.0103688 0.0350172 -0.999333 
-0.012974 0.0243554 -0.999619 
-0.0153375 0.0159654 -0.999755 
-0.0173299 0.00948215 -0.999805 
-0.0194616 0.00504912 -0.999798 
-0.0208177 0.00223943 -0.999781 
-0.021188 0.00070138 -0.999775 
-0.022058 0.000640096 -0.999757 
-0.0226847 0.00109073 -0.999742 
-0.0218944 0.00152958 -0.999759 
-0.0229012 0.00156547 -0.999737 
-0.020078 0.00172629 -0.999797 
-0.0208964 0.000974396 -0.999781 
-0.020733 0.00104767 -0.999785 
-0.0186941 0.00298529 -0.999821 
-0.0180757 0.00623917 -0.999817 
-0.0145834 0.00952808 -0.999848 
-0.0141697 0.00239298 -0.999897 
-0.0115793 -0.00913857 -0.999891 
-0.00694791 -0.0128839 -0.999893 
-0.000243807 -0.00316549 -0.999995 
0.00116552 -0.00240624 0.999996 
0.00745459 -0.0143085 0.99987 
0.00982104 -0.0133928 0.999862 
0.0142502 -0.00255619 0.999895 
0.0171148 0.00289383 0.999849 
0.0205693 0.00318902 0.999783 
0.0224405 0.000681687 0.999748 
0.0235904 -0.00135564 0.999721 
0.0244781 -0.00198297 0.999698 
0.0252159 -0.000901421 0.999682 
0.0258931 0.00078232 0.999664 
0.0262972 0.00252347 0.999651 
0.0258538 0.00337155 0.99966 
0.025009 0.00340304 0.999681 
0.0236905 0.00316414 0.999714 
0.0218433 0.00357899 0.999755 
0.0206601 0.005319 0.999772 
0.0178672 0.0101211 0.999789 
0.0143645 0.0178412 0.999738 
0.00957176 0.0288071 0.999539 
0.00399239 0.0421228 0.999104 
-0.00341454 0.0580999 0.998305 
-0.0137455 0.0762948 0.996991 
-0.0230823 0.0952221 0.995188 
-0.0410509 0.118884 0.992059 
-0.060213 0.142224 0.988001 
-0.0975352 0.175285 0.979675 
-0.131015 0.202146 0.970553 
-0.170404 0.230554 0.958023 
-0.186654 0.243098 0.951874 
-0.216242 0.260229 0.941021 
-0.205374 0.266272 0.941765 
-0.211644 0.282376 0.935666 
-0.1292 0.30997 0.941927 
-0.145713 0.364622 0.919684 
-0.0774243 0.432737 0.898189 
-0.0747927 0.552684 0.830028 
-0.0389122 0.721875 0.690929 
0.00361049 0.97424 0.225486 
0.00877603 0.993315 -0.115098 
0.0362188 0.879033 -0.475383 
0.0305986 0.77764 -0.627965 
0.0783428 0.574122 -0.815013 
0.101795 0.459271 -0.882444 
0.120311 0.371092 -0.920769 
0.146821 0.325069 -0.934223 
0.184114 0.294519 -0.937742 
0.207538 0.273017 -0.939356 
0.215338 0.256527 -0.942244 
0.19451 0.240591 -0.950937 
0.171127 0.222597 -0.959774 
0.145654 0.206595 -0.967524 
0.107045 0.179257 -0.977961 
0.0717296 0.149572 -0.986146 
0.0470274 0.12288 -0.991307 
0.0257367 0.0979499 -0.994859 
0.013097 0.0769253 -0.996951 
0.00348574 0.0584187 -0.998286 
-0.00329196 0.0431061 -0.999065 
-0.00827216 0.0306178 -0.999497 
-0.0122603 0.0203983 -0.999717 
-0.0164788 0.0125851 -0.999785 
-0.0197254 0.0072109 -0.999779 
-0.0226688 0.00387594 -0.999736 
-0.025067 0.0021392 -0.999683 
-0.0261158 0.00166745 -0.999658 
-0.026474 0.00152943 -0.999648 
-0.02705 0.00114489 -0.999633 
-0.0266697 0.000580575 -0.999644 
-0.0259269 0.000294548 -0.999664 
-0.0252181 -0.000160582 -0.999682 
-0.0240588 0.000333367 -0.999711 
-0.0233432 0.00190342 -0.999726 
-0.0211794 0.00287237 -0.999772 
-0.01874 0.00420147 -0.999816 
-0.0153316 -0.00356681 -0.999876 
-0.0110329 -0.0151573 -0.999824 
-0.00820602 -0.015381 -0.999848 
-0.00133801 -0.00144359 -0.999998 
0.000930137 -0.00185308 0.999998 
0.00378173 -0.0175426 0.999839 
0.0022851 -0.0196594 0.999804 
0.00604689 -0.00867658 0.999944 
0.00937472 -0.00192135 0.999954 
0.0129938 0.000226576 0.999916 
0.0140784 -0.000336855 0.999901 
0.0160092 -0.00204689 0.99987 
0.0181036 -0.0028688 0.999832 
0.0179573 -0.00213586 0.999836 
0.0185319 -1.41935e-05 0.999828 
0.0196985 0.00212956 0.999804 
0.0193366 0.00370028 0.999806 
0.0170735 0.00447954 0.999844 
0.0151798 0.00476308 0.999873 
0.0123323 0.00580225 0.999907 
0.0116717 0.00798027 0.9999 
0.00733397 0.0139598 0.999876 
0.00264181 0.0231156 0.999729 
-0.00406158 0.0355024 0.999361 
-0.0118894 0.0503833 0.998659 
-0.0226395 0.0682923 0.997408 
-0.0373653 0.0900511 0.995236 
-0.0517094 0.111106 0.992462 
-0.0802317 0.142311 0.986565 
-0.111286 0.174096 0.97842 
-0.166853 0.220106 0.9611 
-0.207153 0.250562 0.945678 
-0.247817 0.276921 0.928386 
-0.278579 0.291796 0.915013 
-0.308891 0.304178 0.901145 
-0.333957 0.311125 0.889761 
-0.313171 0.306402 0.898912 
-0.228897 0.304748 0.924519 
-0.236173 0.334359 0.912374 
-0.198913 0.407197 0.891417 
-0.126542 0.466457 0.875446 
-0.0829557 0.638528 0.765114 
-0.00687036 0.908962 0.416822 
0.00914664 0.992278 0.1237 
0.0148339 0.969457 -0.244811 
0.0701372 0.771805 -0.631979 
0.153469 0.510363 -0.846154 
0.171996 0.420868 -0.890667 
0.219533 0.370604 -0.902473 
0.274368 0.332687 -0.902242 
0.315968 0.312082 -0.895974 
0.330947 0.297791 -0.89543 
0.319213 0.291729 -0.901664 
0.272901 0.272652 -0.922597 
0.24785 0.263722 -0.932213 
0.231225 0.260227 -0.937452 
0.181762 0.229052 -0.956294 
0.131895 0.190706 -0.972746 
0.0909381 0.152806 -0.984063 
0.0581746 0.117861 -0.991325 
0.0370384 0.0907275 -0.995187 
0.0230826 0.0691683 -0.997338 
0.0130009 0.0516212 -0.998582 
0.00525484 0.0367556 -0.99931 
-0.000687896 0.0249481 -0.999689 
-0.00624366 0.0156606 -0.999858 
-0.0101923 0.00948145 -0.999903 
-0.0136734 0.00577458 -0.99989 
-0.016985 0.00386679 -0.999848 
-0.0183201 0.00312083 -0.999827 
-0.0185915 0.00237312 -0.999824 
-0.019354 0.00115707 -0.999812 
-0.0192568 -0.000204006 -0.999815 
-0.0204617 -0.0011161 -0.99979 
-0.0178465 -0.00171479 -0.999839 
-0.0155662 -0.00111852 -0.999878 
-0.0158131 0.00047338 -0.999875 
-0.0127253 -8.94902e-05 -0.999919 
-0.012635 -0.00159998 -0.999919 
-0.00687506 -0.0104407 -0.999922 
-0.00260645 -0.0220317 -0.999754 
-0.00452497 -0.0185302 -0.999818 
-0.000912589 -0.00052332 -1 
-7.57511e-05 -0.000439265 1 
-0.00145315 -0.0207301 0.999784 
-0.00346496 -0.0252292 0.999676 
-0.000466127 -0.014474 0.999895 
0.00205738 -0.00562571 0.999982 
0.00466326 -0.00174132 0.999988 
0.00654889 -0.00150296 0.999977 
0.0088281 -0.00345983 0.999955 
0.0103202 -0.00429253 0.999938 
0.0109265 -0.00280016 0.999936 
0.0112193 -3.53803e-05 0.999937 
0.0123273 0.00269818 0.99992 
0.0110429 0.00485987 0.999927 
0.00917363 0.00621434 0.999939 
0.00660771 0.00705112 0.999953 
0.00342134 0.00881205 0.999955 
0.00122272 0.0121974 0.999925 
-0.00385018 0.0201421 0.99979 
-0.0100332 0.0314105 0.999456 
-0.0184852 0.0468924 0.998729 
-0.0290007 0.0652179 0.99745 
-0.043787 0.0882202 0.995138 
-0.0649721 0.117291 0.99097 
-0.0912793 0.149266 0.984575 
-0.133301 0.194422 0.971818 
-0.177046 0.234724 0.955803 
-0.246593 0.290156 0.924663 
-0.306726 0.335333 0.89077 
-0.334516 0.345927 0.876604 
-0.364515 0.354358 0.861138 
-0.393308 0.359978 0.846005 
-0.36371 0.327817 0.871924 
-0.439897 0.353676 0.825472 
-0.363858 0.331398 0.870507 
-0.353449 0.342322 0.870568 
-0.296985 0.366798 0.881623 
-0.278326 0.435352 0.856156 
-0.110055 0.664038 0.739555 
-0.0574992 0.784313 0.617694 
0.0148674 0.999847 0.0091926 
0.0437522 0.891263 -0.451371 
0.111904 0.63023 -0.768302 
0.232074 0.454196 -0.860144 
0.281628 0.413162 -0.866016 
0.329473 0.371813 -0.867872 
0.408157 0.344832 -0.84528 
0.428396 0.334373 -0.839447 
0.427583 0.340783 -0.837281 
0.395783 0.33819 -0.853805 
0.350706 0.326256 -0.877817 
0.330504 0.327235 -0.88526 
0.291621 0.315975 -0.902838 
0.244481 0.289925 -0.925296 
0.185444 0.244106 -0.951852 
0.130292 0.192317 -0.972645 
0.0852832 0.142509 -0.986113 
0.0574061 0.107586 -0.992537 
0.0397419 0.0821255 -0.995829 
0.0261892 0.0606165 -0.997818 
0.0160198 0.0424257 -0.998971 
0.00914099 0.0288776 -0.999541 
0.00242953 0.0180312 -0.999834 
-0.0018836 0.0114624 -0.999933 
-0.00528387 0.00801791 -0.999954 
-0.00854203 0.00606249 -0.999945 
-0.00990658 0.00513494 -0.999938 
-0.011104 0.00369473 -0.999932 
-0.012113 0.00151566 -0.999926 
-0.0117133 -0.00080386 -0.999931 
-0.0124879 -0.00243938 -0.999919 
-0.00988939 -0.00356841 -0.999945 
-0.00829921 -0.00269571 -0.999962 
-0.00783025 -0.000781674 -0.999969 
-0.00444558 -0.00208436 -0.999988 
-0.00434167 -0.0057559 -0.999974 
-0.000289001 -0.0154701 -0.99988 
0.0024757 -0.0263325 -0.99965 
0.000787125 -0.020068 -0.999798 
0.000482851 -0.00140426 -0.999999 
-0.000935768 0.00039487 1 
-0.00373482 -0.0206804 0.999779 
-0.00504221 -0.0279672 0.999596 
-0.00419726 -0.0215824 0.999758 
-0.00262501 -0.0107703 0.999939 
-0.000844719 -0.00434203 0.99999 
0.00130641 -0.00231671 0.999996 
0.00356993 -0.0038921 0.999986 
0.00513957 -0.00548616 0.999972 
0.00634458 -0.00429538 0.999971 
0.0065128 -0.00119879 0.999978 
0.00674758 0.00253372 0.999974 
0.00580163 0.00566873 0.999967 
0.00456076 0.00780765 0.999959 
0.00208606 0.00927348 0.999955 
-0.000655771 0.0107146 0.999942 
-0.00449893 0.0145043 0.999885 
-0.00846966 0.0210602 0.999742 
-0.0150035 0.0333615 0.999331 
-0.0229991 0.0494585 0.998511 
-0.0344996 0.0711551 0.996868 
-0.0496055 0.0963365 0.994112 
-0.07177 0.128743 0.989078 
-0.104489 0.173032 0.979358 
-0.145724 0.222176 0.964055 
-0.201123 0.28135 0.938292 
-0.24676 0.310284 0.91806 
-0.319891 0.378306 0.868651 
-0.370279 0.409889 0.833597 
-0.415095 0.424947 0.804435 
-0.449686 0.428922 0.78346 
-0.479375 0.42462 0.768048 
-0.447644 0.377287 0.810721 
-0.482177 0.376087 0.791242 
-0.470052 0.372479 0.800194 
-0.481323 0.386774 0.786597 
-0.40467 0.374551 0.834239 
-0.0785367 0.807981 0.583951 
-0.0250492 0.889805 0.455653 
0.0261957 0.968424 -0.24793 
0.0706394 0.815463 -0.574483 
0.173394 0.589814 -0.788704 
0.463961 0.473627 -0.74861 
0.375575 0.418664 -0.82684 
0.447447 0.372053 -0.813246 
0.50886 0.363779 -0.780209 
0.520476 0.381402 -0.763962 
0.489062 0.394094 -0.778144 
0.43871 0.395065 -0.807129 
0.405166 0.401485 -0.821371 
0.375643 0.40392 -0.834111 
0.331522 0.386516 -0.860638 
0.269107 0.339791 -0.901179 
0.21784 0.302669 -0.927867 
0.16214 0.243849 -0.956163 
0.112028 0.183454 -0.976624 
0.0769446 0.136697 -0.98762 
0.0542576 0.103552 -0.993143 
0.0379581 0.0769505 -0.996312 
0.0259818 0.055125 -0.998141 
0.017533 0.0383832 -0.999109 
0.010024 0.0242065 -0.999657 
0.00500157 0.0159396 -0.99986 
0.0012509 0.0116331 -0.999932 
-0.0023025 0.00916306 -0.999955 
-0.0041749 0.00806327 -0.999959 
-0.00593393 0.00619358 -0.999963 
-0.00699102 0.00313733 -0.999971 
-0.00709834 -0.00019547 -0.999975 
-0.00702214 -0.00327242 -0.99997 
-0.00565234 -0.00507346 -0.999971 
-0.00400012 -0.00451112 -0.999982 
-0.0026812 -0.0022256 -0.999994 
5.14821e-05 -0.00336217 -0.999994 
0.000908029 -0.00834067 -0.999965 
0.00287002 -0.0189863 -0.999816 
0.0038806 -0.0291491 -0.999568 
0.00332541 -0.0233102 -0.999723 
0.000779083 -0.00232193 -0.999997 
-0.000315037 -0.00144194 0.999999 
-0.00339971 -0.0229316 0.999731 
-0.00431965 -0.0292003 0.999564 
-0.00393901 -0.019004 0.999812 
-0.00260017 -0.00908892 0.999955 
-0.000477563 -0.00431652 0.999991 
0.00152317 -0.00375812 0.999992 
0.00356226 -0.00565855 0.999978 
0.00465608 -0.00593233 0.999972 
0.00510796 -0.00339789 0.999981 
0.00498778 0.00121377 0.999987 
0.0042361 0.0055564 0.999976 
0.00292727 0.00897492 0.999955 
0.000982718 0.0110926 0.999938 
-0.00167685 0.0125908 0.999919 
-0.00495078 0.0150213 0.999875 
-0.00892229 0.0208778 0.999742 
-0.0136613 0.0303124 0.999447 
-0.0210251 0.0470369 0.998672 
-0.0306158 0.0682013 0.997202 
-0.0447492 0.0969626 0.994282 
-0.0648172 0.13097 0.989265 
-0.0926417 0.175316 0.980144 
-0.132647 0.235258 0.962839 
-0.185305 0.302044 0.93511 
-0.242932 0.371472 0.896099 
-0.278946 0.373577 0.884663 
-0.360916 0.451214 0.816177 
-0.419721 0.48606 0.766538 
-0.459834 0.490046 0.740545 
-0.501392 0.499388 0.706553 
-0.533162 0.495659 0.68561 
-0.513782 0.426445 0.744428 
-0.602928 0.425143 0.675079 
-0.548021 0.400736 0.734224 
-0.561811 0.415718 0.715225 
-0.327522 0.45871 0.826023 
-0.146417 0.519854 0.841614 
-0.00753137 0.943498 0.331293 
0.0314199 0.911272 -0.410605 
0.101435 0.740078 -0.664827 
0.236561 0.566047 -0.789703 
0.345387 0.456048 -0.8202 
0.473082 0.406372 -0.7817 
0.573981 0.382427 -0.724083 
0.563242 0.389476 -0.728743 
0.547494 0.412377 -0.728145 
0.51942 0.451264 -0.725647 
0.496777 0.477386 -0.724786 
0.456469 0.482068 -0.747828 
0.411891 0.482595 -0.772948 
0.357073 0.460569 -0.812635 
0.297363 0.415262 -0.859728 
0.234613 0.368614 -0.899489 
0.172218 0.291482 -0.940946 
0.118861 0.218673 -0.968532 
0.08153 0.161029 -0.983576 
0.0568781 0.119541 -0.991199 
0.0403645 0.0886673 -0.995243 
0.0283839 0.0635838 -0.997573 
0.0185349 0.0413728 -0.998972 
0.0120066 0.0272452 -0.999557 
0.00711813 0.0185147 -0.999803 
0.00348373 0.0142581 -0.999892 
0.000406038 0.0120709 -0.999927 
-0.00203442 0.0106408 -0.999941 
-0.00383734 0.00813032 -0.99996 
-0.00495208 0.00446837 -0.999978 
-0.005475 -0.000170066 -0.999985 
-0.00539401 -0.00383553 -0.999978 
-0.00477682 -0.00606316 -0.99997 
-0.00353273 -0.00579162 -0.999977 
-0.00149108 -0.00347566 -0.999993 
0.000727441 -0.00457378 -0.999989 
0.00250974 -0.0104601 -0.999942 
0.00307924 -0.0207141 -0.999781 
0.00296385 -0.0303472 -0.999535 
0.00285876 -0.0245057 -0.999696 
0.000325982 -0.00271886 -0.999996 
-0.000178938 -0.00288217 0.999996 
-0.00175792 -0.0243136 0.999703 
-0.0025286 -0.0311835 0.99951 
-0.00205762 -0.0216423 0.999764 
-0.000699342 -0.0120391 0.999927 
0.00137307 -0.00619112 0.99998 
0.00320038 -0.00475447 0.999984 
0.00484305 -0.00628249 0.999969 
0.00554974 -0.00643297 0.999964 
0.00543542 -0.00354991 0.999979 
0.00485098 0.000971683 0.999988 
0.0035065 0.00684456 0.99997 
0.00203336 0.0107963 0.99994 
-0.000112454 0.0133893 0.99991 
-0.00243235 0.0147304 0.999889 
-0.00542201 0.0170368 0.99984 
-0.00900173 0.0225192 0.999706 
-0.0134632 0.032809 0.999371 
-0.0195958 0.0488489 0.998614 
-0.0285599 0.073161 0.996911 
-0.0407634 0.1028 0.993866 
-0.0596191 0.142861 0.987946 
-0.0858811 0.194882 0.97706 
-0.122114 0.259153 0.958086 
-0.174599 0.33672 0.925276 
-0.233723 0.424883 0.874556 
-0.298486 0.473095 0.828908 
-0.335383 0.465682 0.818937 
-0.429147 0.552105 0.714852 
-0.479172 0.569421 0.667947 
-0.50905 0.56261 0.651413 
-0.547538 0.566912 0.615478 
-0.561781 0.495791 0.662263 
-0.602412 0.488119 0.631537 
-0.575616 0.437835 0.690628 
-0.63252 0.438345 0.638571 
-0.517457 0.411693 0.750165 
-0.421693 0.38195 0.822368 
-0.166564 0.555447 0.8147 
0.0108591 0.973774 0.227259 
0.0405195 0.820719 -0.569893 
0.285109 0.478476 -0.830526 
0.491728 0.443204 -0.749516 
0.588238 0.40719 -0.698693 
0.645905 0.412887 -0.64213 
0.649545 0.455444 -0.60882 
0.583204 0.475989 -0.658261 
0.589059 0.533167 -0.607241 
0.5737 0.561659 -0.59616 
0.505215 0.550529 -0.664587 
0.438086 0.545625 -0.714405 
0.398965 0.56244 -0.724215 
0.322744 0.494875 -0.806806 
0.269637 0.465522 -0.842962 
0.196208 0.376223 -0.905516 
0.139171 0.291509 -0.94639 
0.0941657 0.214305 -0.972217 
0.0639352 0.154391 -0.985939 
0.0442948 0.11227 -0.99269 
0.0310544 0.079822 -0.996325 
0.0216959 0.053863 -0.998313 
0.0145813 0.0353518 -0.999269 
0.00954241 0.0238871 -0.999669 
0.00587962 0.0180575 -0.99982 
0.0028233 0.0153348 -0.999878 
0.000213414 0.0136701 -0.999907 
-0.00200852 0.0111654 -0.999936 
-0.00369485 0.00712104 -0.999968 
-0.00493443 0.00153282 -0.999987 
-0.00562191 -0.00359537 -0.999978 
-0.00551268 -0.00650375 -0.999964 
-0.00482262 -0.00636831 -0.999968 
-0.0029754 -0.00448748 -0.999986 
-0.00156939 -0.00555225 -0.999983 
0.000719317 -0.0105708 -0.999944 
0.000975494 -0.0201692 -0.999796 
0.000867717 -0.030389 -0.999538 
0.0012588 -0.024679 -0.999695 
3.51686e-05 -0.00273905 -0.999996 
0.000122712 -0.00306296 0.999995 
-0.000209041 -0.0269737 0.999636 
-0.000425683 -0.0319205 0.99949 
0.00059727 -0.0226823 0.999743 
0.00204254 -0.0128786 0.999915 
0.00384089 -0.0070054 0.999968 
0.00530976 -0.0057245 0.99997 
0.00613094 -0.00673734 0.999959 
0.00598614 -0.0059334 0.999964 
0.00506497 -0.00208792 0.999985 
0.00376017 0.00336081 0.999987 