# vtk DataFile Version 3.0 
Exported using Morpho https://github.com/Morpho-lang/morpho 
ASCII 
DATASET UNSTRUCTURED_GRID 

POINTS 1978 float 
-12 -3.99995 -8.71964e-08 
-11.5851 -3.99992 1.76593e-08 
-11.2834 -3.99993 -1.16263e-07 
-10.9558 -3.99993 -1.90214e-07 
-10.6509 -3.99992 -1.20559e-07 
-10.3184 -3.99991 6.8022e-09 
-9.98777 -3.99992 6.19258e-08 
-9.67173 -3.99992 3.49549e-08 
-9.32514 -3.99992 -3.04559e-09 
-8.99624 -3.99993 -1.74879e-08 
-8.6867 -3.99993 -3.18528e-08 
-8.37366 -3.99993 -3.79742e-08 
-8.06959 -3.99993 -2.6915e-08 
-7.77182 -3.99993 -1.25185e-09 
-7.47167 -3.99993 1.33963e-08 
-7.18285 -3.99992 2.663e-08 
-6.87289 -3.99993 3.01893e-08 
-6.57285 -3.99993 3.86288e-08 
-6.27188 -3.99993 5.27055e-08 
-5.97114 -3.99994 9.25463e-08 
-5.67117 -3.99994 1.57767e-07 
-5.37405 -3.99994 2.58356e-07 
-5.0881 -3.99994 5.59967e-07 
-4.78851 -3.99995 9.07802e-07 
-4.50068 -3.99995 1.34018e-06 
-4.20849 -3.99994 2.22589e-06 
-3.88662 -3.99993 3.32644e-06 
-3.56229 -3.99991 4.9285e-06 
-3.21957 -3.99991 7.58936e-06 
-2.87278 -3.9999 1.09894e-05 
-2.48359 -3.99992 1.29071e-05 
-2.18558 -3.99994 1.29251e-05 
-1.93412 -3.99995 1.22503e-05 
-1.72441 -3.99998 1.3491e-05 
-1.43031 -4.00002 1.39705e-05 
-1.22362 -4 8.66051e-06 
-0.890833 -3.99999 7.09154e-06 
-0.671143 -3.99996 -1.49191e-06 
-0.502841 -3.99993 -6.50392e-06 
0.123798 -3.99963 1.18683e-05 
0.278766 -3.99992 -9.4235e-06 
0.798454 -3.99995 8.56274e-06 
0.960562 -3.99999 -6.48641e-06 
1.19671 -3.99997 -7.9194e-06 
1.40064 -4.00002 -1.0077e-05 
1.63251 -3.99995 -1.4027e-05 
1.92426 -3.99996 -1.4707e-05 
2.20038 -3.99994 -1.31402e-05 
2.51018 -3.99992 -1.26246e-05 
2.87772 -3.99991 -1.12677e-05 
3.27302 -3.9999 -8.19856e-06 
3.60667 -3.99992 -5.23532e-06 
3.9497 -3.99993 -3.61662e-06 
4.24757 -3.99995 -2.10103e-06 
4.52829 -3.99995 -1.37588e-06 
4.80257 -3.99995 -8.86046e-07 
5.09884 -3.99994 -5.10216e-07 
5.38959 -3.99994 -2.84012e-07 
5.6886 -3.99994 -1.49048e-07 
5.98643 -3.99993 -9.22113e-08 
6.28345 -3.99993 -5.30214e-08 
6.5823 -3.99993 -1.83911e-08 
6.88044 -3.99993 -1.71164e-08 
7.16381 -3.99993 -2.10132e-08 
7.44967 -3.99993 -2.88069e-08 
7.75213 -3.99993 -7.10011e-09 
8.05908 -3.99993 6.40672e-09 
8.35253 -3.99993 1.80158e-08 
8.67633 -3.99993 1.85538e-08 
8.95871 -3.99993 1.20713e-08 
9.30915 -3.99992 3.46624e-08 
9.62323 -3.99993 -1.07497e-09 
9.91406 -3.99992 -5.24557e-08 
10.2646 -3.99992 -1.46736e-08 
10.5735 -3.99991 4.1853e-08 
10.9737 -3.99993 1.77925e-07 
11.3086 -3.99993 1.10604e-07 
11.591 -3.99993 -1.96129e-08 
12 -3.99995 9.0409e-08 
-11.9999 -3.63356 2.8948e-07 
-11.6939 -3.72102 -5.6965e-17 
-11.3425 -3.61959 -7.16494e-17 
-11.0348 -3.65596 1.48117e-16 
-10.713 -3.63988 2.77153e-16 
-10.3985 -3.66966 1.16233e-16 
-10.0616 -3.66631 -4.44335e-17 
-9.7368 -3.65579 -6.921e-17 
-9.4081 -3.68186 -3.76481e-17 
-9.06907 -3.66832 -5.28372e-18 
-8.74757 -3.65876 2.46954e-17 
-8.43309 -3.66878 6.99553e-17 
-8.11541 -3.65767 5.15014e-17 
-7.80678 -3.64966 -1.16283e-17 
-7.50079 -3.65172 -5.52038e-17 
-7.20095 -3.6474 -1.2154e-16 
-6.89463 -3.67232 -1.09213e-16 
-6.5874 -3.66898 -9.75634e-17 
-6.27796 -3.66813 -1.42133e-16 
-5.97293 -3.66758 -6.80797e-17 
-5.66774 -3.67218 -1.37676e-16 
-5.37119 -3.66624 -3.50938e-16 
-5.08321 -3.66588 -2.15103e-16 
-4.7828 -3.67758 2.4472e-16 
-4.4849 -3.66364 2.44202e-16 
-4.15844 -3.66604 7.58245e-17 
-3.82137 -3.61647 -1.86178e-15 
-3.47688 -3.59545 -9.31973e-16 
-3.13257 -3.5945 3.5478e-16 
-2.76777 -3.6692 -8.6422e-16 
-2.4673 -3.67671 -9.44427e-16 
-2.17078 -3.71991 -1.85436e-15 
-1.92252 -3.7379 -8.3648e-15 
-1.64728 -3.86346 1.37012e-15 
-1.42863 -3.84531 -3.44112e-15 
-1.08638 -3.91397 -5.55463e-15 
-0.865759 -3.883 -1.27081e-14 
-0.568935 -3.85776 -5.85412e-15 
-0.332485 -3.96137 3.94978e-14 
-0.0295374 -3.93092 -3.31014e-14 
0.350829 -3.83795 1.63733e-14 
0.523047 -3.92462 4.54337e-17 
0.81262 -3.79015 -7.41704e-15 
1.11725 -3.8662 8.46591e-15 
1.39232 -3.83453 9.6854e-15 
1.68981 -3.84316 -3.95715e-15 
1.96239 -3.78006 9.40827e-16 
2.24441 -3.72281 -2.95999e-15 
2.55702 -3.6842 1.78675e-15 
2.8709 -3.64048 -1.17495e-15 
3.21862 -3.63465 -1.53449e-15 
3.58827 -3.59578 1.45435e-15 
3.91921 -3.63997 -1.88358e-16 
4.25804 -3.63761 5.11829e-16 
4.56501 -3.65556 -2.77614e-17 
4.87524 -3.69002 -2.41875e-16 
5.17583 -3.67644 2.62685e-16 
5.47423 -3.67681 2.50122e-16 
5.77058 -3.66409 2.2822e-16 
6.06591 -3.65085 1.47929e-16 
6.36242 -3.6476 1.45879e-16 
6.66404 -3.6521 1.04533e-16 
6.95946 -3.64355 1.03152e-16 
7.25151 -3.65208 6.38589e-17 
7.55115 -3.66752 8.1627e-17 
7.85299 -3.66522 4.55951e-17 
8.14986 -3.64046 1.3649e-17 
8.45206 -3.67174 -9.21001e-18 
8.74089 -3.62509 -1.33978e-17 
9.06496 -3.69889 -7.5806e-17 
9.38836 -3.6639 1.68757e-17 
9.69541 -3.63656 3.48397e-17 
10.0255 -3.69456 6.82988e-18 
10.3451 -3.64156 -1.05528e-16 
10.7105 -3.71915 -3.96336e-16 
11.0456 -3.66488 -2.20224e-16 
11.3509 -3.60057 1.2187e-16 
11.7034 -3.72472 1.3273e-16 
11.9999 -3.62069 -2.74303e-07 
-11.9999 -3.32401 -3.50582e-09 
-11.6335 -3.37478 1.0164e-16 
-11.2919 -3.26412 -4.57533e-17 
-10.973 -3.30787 1.84749e-16 
-10.6498 -3.29599 1.51647e-16 
-10.3269 -3.34211 -7.50958e-18 
-10.0042 -3.32496 4.35888e-18 
-9.69651 -3.3085 1.95453e-18 
-9.38927 -3.35694 -4.15315e-17 
-9.07156 -3.33295 -1.49375e-17 
-8.77929 -3.30359 -8.96661e-18 
-8.47827 -3.33672 -3.8245e-17 
-8.16572 -3.3325 -7.06263e-17 
-7.84771 -3.31038 -9.85669e-17 
-7.54244 -3.30753 -1.1576e-16 
-7.24099 -3.29575 -1.57469e-16 
-6.9415 -3.34607 -2.31153e-16 
-6.63388 -3.3357 -3.6787e-16 
-6.32996 -3.34204 -5.08629e-16 
-6.02334 -3.33751 -6.98344e-16 
-5.72335 -3.34529 -9.02581e-16 
-5.424 -3.33805 -1.20183e-15 
-5.12734 -3.32013 -1.39538e-15 
-4.82821 -3.35971 -1.73336e-15 
-4.51248 -3.32172 -2.2006e-15 
-4.1924 -3.32482 -3.06181e-15 
-3.85582 -3.25667 -2.6515e-15 
-3.53832 -3.24717 -2.6864e-15 
-3.22377 -3.24262 -3.84202e-15 
-2.91776 -3.32342 -3.49617e-15 
-2.64056 -3.34203 1.10034e-15 
-2.3558 -3.43948 -6.53753e-15 
-2.07148 -3.48362 1.38849e-15 
-1.6881 -3.6851 -1.48321e-14 
-1.44698 -3.67221 -1.23217e-14 
-1.25424 -3.80895 8.26868e-15 
-1.01497 -3.78355 1.00851e-14 
-0.723335 -3.8294 1.64057e-14 
-0.211598 -3.86277 -1.39927e-16 
0.112395 -3.82176 7.67769e-17 
0.433333 -3.63875 2.42733e-14 
0.62715 -3.81069 1.67957e-14 
0.966178 -3.75531 -3.90302e-15 
1.22206 -3.71504 1.70445e-14 
1.51521 -3.69019 2.02237e-15 
1.74231 -3.63265 -1.84748e-15 
1.97631 -3.53098 3.58239e-15 
2.25176 -3.44626 8.21159e-15 
2.5435 -3.37189 4.74053e-15 
2.85357 -3.35002 2.35092e-15 
3.20999 -3.3039 -2.05099e-15 
3.53883 -3.25534 3.02527e-15 
3.86162 -3.26139 2.89683e-15 
4.1833 -3.30214 2.15694e-15 
4.51309 -3.3097 2.17845e-15 
4.81445 -3.36082 2.03426e-15 
5.10581 -3.35422 1.60524e-15 
5.40583 -3.34957 1.2571e-15 
5.69942 -3.33605 9.54889e-16 
5.99643 -3.31675 7.10309e-16 
6.30033 -3.30492 4.27743e-16 
6.60946 -3.31291 3.32094e-16 
6.91896 -3.30402 2.48918e-16 
7.22542 -3.31023 1.81379e-16 
7.52622 -3.33215 1.31129e-16 
7.82946 -3.32494 6.36593e-17 
8.1226 -3.28967 4.41035e-17 
8.41929 -3.31849 3.51792e-17 
8.72822 -3.29399 2.70505e-17 
9.04979 -3.37232 2.34622e-17 
9.36916 -3.32867 2.7278e-17 
9.6758 -3.291 1.00255e-17 
9.98917 -3.36125 3.23403e-17 
10.2991 -3.29407 2.1914e-17 
10.6334 -3.39846 -1.81385e-16 
10.9709 -3.32431 -1.90322e-16 
11.2883 -3.25056 -1.36711e-17 
11.6354 -3.37346 -1.50882e-16 
11.9999 -3.30597 -4.56299e-09 
-11.9999 -2.99342 4.85513e-08 
-11.6584 -3.05454 7.12568e-17 
-11.3022 -2.948 -3.11642e-16 
-10.9451 -2.96173 1.77552e-18 
-10.6113 -2.96225 5.60849e-17 
-10.2982 -3.00726 2.02241e-17 
-9.99234 -2.97261 4.90576e-17 
-9.67286 -2.9798 -5.89843e-18 
-9.35564 -3.01985 -5.96469e-17 
-9.06057 -2.97268 -4.56193e-17 
-8.74538 -2.96785 -1.3351e-17 
-8.43799 -3.00638 -7.44359e-18 
-8.11744 -3.00772 6.03709e-18 
-7.81262 -2.9712 6.41373e-18 
-7.50385 -2.96886 -3.18756e-17 
-7.20525 -2.95088 -5.35816e-17 
-6.91565 -3.02027 -1.13632e-16 
-6.60736 -3.00752 -6.45984e-17 
-6.30284 -3.01713 -3.25091e-17 
-6.00814 -3.00486 -5.34122e-17 
-5.71417 -3.01461 8.81783e-17 
-5.4249 -3.00147 4.75058e-17 
-5.12462 -2.98495 2.13239e-16 
-4.81281 -3.02596 7.24102e-17 
-4.49459 -2.97248 9.59036e-17 
-4.162 -2.98668 5.58589e-16 
-3.83446 -2.91279 2.53082e-15 
-3.53429 -2.93443 1.82015e-15 
-3.27447 -2.95524 3.28706e-17 
-3.01122 -3.0203 1.11634e-15 
-2.76315 -3.07085 1.83393e-15 
-2.40105 -3.17807 1.75087e-14 
-2.16384 -3.25676 -1.70051e-14 
-1.85077 -3.48439 -6.89929e-15 
-1.60459 -3.50288 -1.11786e-14 
-1.30293 -3.58254 2.36449e-15 
-1.15258 -3.67688 -1.62949e-14 
-0.846711 -3.71069 2.23549e-15 
-0.419737 -3.8405 -1.57739e-14 
-0.105654 -3.77502 -1.41801e-14 
0.222699 -3.70304 1.84705e-14 
0.611719 -3.60856 1.24899e-14 
1.07685 -3.59331 9.18086e-15 
1.3552 -3.58828 4.42859e-15 
1.60278 -3.48906 1.79176e-14 
1.85462 -3.36577 -1.13803e-15 
2.12218 -3.26009 -8.57739e-16 
2.40996 -3.1644 4.65325e-16 
2.70242 -3.0854 1.06154e-15 
2.97684 -3.08933 1.02628e-15 
3.27062 -3.02225 -9.03403e-16 
3.51996 -2.93778 -2.56237e-15 
3.7977 -2.93839 -6.19504e-16 
4.12426 -2.95005 -6.92027e-16 
4.45691 -2.97129 -6.62795e-16 
4.78583 -3.01191 -3.55052e-16 
5.10011 -3.02536 1.62546e-16 
5.40232 -3.01766 -4.11708e-17 
5.69553 -3.00606 -6.05276e-17 
5.99396 -2.98868 -6.79015e-18 
6.29795 -2.97147 2.30542e-17 
6.59892 -2.9856 6.45274e-17 
6.91439 -2.97686 5.5405e-17 
7.22869 -2.98132 5.38489e-17 
7.53541 -2.99872 6.04025e-17 
7.83673 -2.98266 1.83471e-17 
8.13483 -2.94927 1.77213e-17 
8.43707 -2.97552 8.6932e-18 
8.74938 -2.96762 1.36166e-17 
9.0591 -3.04763 3.29351e-17 
9.36436 -2.98868 4.57533e-17 
9.65811 -2.94331 1.20512e-17 
9.97324 -3.01486 -4.99982e-17 
10.3088 -2.96595 -2.64078e-17 
10.646 -3.06431 -9.16967e-17 
10.9747 -2.97078 1.72454e-17 
11.3252 -2.91887 4.08332e-16 
11.6586 -3.05212 -3.89974e-17 
11.9999 -2.96164 -4.13136e-08 
-11.9999 -2.68394 -1.55415e-08 
-11.6441 -2.73035 -2.13001e-16 
-11.3154 -2.6185 -2.77388e-16 
-10.9632 -2.6456 -9.77736e-17 
-10.6094 -2.63325 -1.90759e-17 
[...]
POINT_DATA 1978 
VECTORS vectors float
0.0173861 -0.0159238 0.999731 
0.0169458 -0.0124441 0.999783 
0.0154933 0.00114846 0.999886 
0.0179661 0.0165379 0.999711 
0.0190419 0.0183612 0.999652 
0.0182703 0.00885883 0.999794 
0.0181404 -0.00146547 0.999836 
0.0180857 -0.00350215 0.999832 
0.0172038 -0.00135884 0.99985 
0.0180019 0.0015304 0.999839 
0.0187467 0.00420917 0.99982 
0.0187686 0.00511408 0.999816 
0.0191908 0.00462319 0.99981 
0.0191215 0.00300978 0.999818 
0.0191399 0.000799508 0.999823 
0.0198513 0.000208828 0.99981 
0.0185419 0.00159249 0.99983 
0.0178139 0.0058651 0.999831 
0.0181068 0.0139701 0.999744 
0.017742 0.0249977 0.999534 
0.0172074 0.0381123 0.999131 
0.0170229 0.0531794 0.998446 
0.0177781 0.0687452 0.997486 
0.0168727 0.0877014 0.996009 
0.015679 0.107573 0.994081 
0.0151379 0.128132 0.99165 
0.0141067 0.148702 0.988789 
0.0131008 0.168302 0.985657 
0.0130228 0.186479 0.982383 
0.0106219 0.205304 0.978648 
0.00923307 0.229069 0.973374 
0.0116552 0.245181 0.969419 
0.0122903 0.268616 0.963166 
0.00788256 0.292598 0.956205 
0.00395743 0.369129 0.929374 
-0.00180564 0.445231 0.89542 
-0.00178539 0.631014 0.77577 
-0.00462239 0.764693 0.644378 
0.00147795 0.872095 0.489385 
-0.00116096 0.993555 -0.113084 
0.00440579 0.957965 -0.286884 
-0.000858663 0.671372 -0.741145 
0.000295565 0.588521 -0.808485 
0.000592099 0.480743 -0.876864 
-0.00453391 0.39523 -0.918574 
-0.00750719 0.326074 -0.945317 
-0.00966753 0.282064 -0.959352 
-0.00883769 0.251889 -0.967723 
-0.00955622 0.225822 -0.974129 
-0.0107478 0.196306 -0.980495 
-0.0117831 0.179574 -0.983681 
-0.0134497 0.163741 -0.98642 
-0.0149655 0.146086 -0.989168 
-0.015471 0.128459 -0.9916 
-0.0166161 0.106637 -0.994168 
-0.016974 0.0865267 -0.996113 
-0.016926 0.0669232 -0.997622 
-0.0172022 0.0503364 -0.998591 
-0.0173369 0.0359871 -0.999208 
-0.0178719 0.0245977 -0.999544 
-0.0184112 0.0158719 -0.999711 
-0.018271 0.00931484 -0.999796 
-0.0191945 0.0045279 -0.999813 
-0.0200981 0.00130668 -0.999805 
-0.0191794 -0.000562516 -0.999822 
-0.0188691 -0.000301568 -0.999827 
-0.0191612 0.000708178 -0.999821 
-0.0184557 0.00178575 -0.999832 
-0.0191705 0.00264253 -0.999818 
-0.0183752 0.00275154 -0.999829 
-0.0175083 0.00206946 -0.999845 
-0.0190242 0.000448482 -0.999823 
-0.0184075 0.000382812 -0.999834 
-0.0184683 0.00725118 -0.999803 
-0.0179797 0.0140537 -0.999729 
-0.0166218 0.0137034 -0.999768 
-0.016002 -0.00383643 -0.999871 
-0.0176891 -0.0150649 -0.999737 
-0.0175151 -0.0160077 -0.999729 
0.00293709 -0.0273544 0.999633 
0.00835031 -0.0133541 0.99989 
0.0127535 -0.0073954 0.999907 
0.0158841 0.00444543 0.999881 
0.0171399 0.00971917 0.999823 
0.0187564 0.00757079 0.999811 
0.0199185 0.00152163 0.999816 
0.0213369 -0.00157365 0.999789 
0.0213778 -0.00170603 0.999783 
0.0217357 0.000128469 0.999779 
0.0229563 0.00235806 0.999751 
0.0230534 0.00397149 0.999742 
0.0231065 0.0040699 0.99974 
0.0233796 0.0031378 0.999737 
0.0225117 0.00191936 0.99976 
0.0218991 0.00169077 0.999774 
0.0197239 0.00345554 0.999817 
0.0182476 0.00832848 0.999812 
0.016215 0.0160593 0.999755 
0.0131294 0.0266587 0.999576 
0.010416 0.0400684 0.999158 
0.00683779 0.0555119 0.99845 
0.00161279 0.0719963 0.997418 
-0.00481513 0.08957 0.995989 
-0.0135881 0.110616 0.993788 
-0.0229616 0.132733 0.990902 
-0.0411998 0.154132 0.987216 
-0.064673 0.178746 0.98179 
-0.0882578 0.201856 0.975453 
-0.0890929 0.220248 0.971387 
-0.102665 0.237045 0.966077 
-0.097457 0.255472 0.961903 
-0.0952468 0.276116 0.956411 
-0.0507339 0.314002 0.948081 
-0.0627918 0.373063 0.925685 
-0.0316273 0.520832 0.853076 
-0.0302137 0.642894 0.765357 
-0.0211186 0.831169 0.555603 
0.00202879 0.938961 0.343949 
0.00340439 0.998797 0.0471684 
0.010722 0.928575 -0.370989 
0.00898312 0.848241 -0.529533 
0.0520158 0.667641 -0.742666 
0.0437308 0.520279 -0.852884 
0.0541325 0.393444 -0.917765 
0.0570758 0.319361 -0.945923 
0.0765795 0.279461 -0.957114 
0.095389 0.25281 -0.962819 
0.0964333 0.228875 -0.968687 
0.097638 0.211953 -0.97241 
0.0818553 0.193225 -0.977754 
0.0646481 0.171386 -0.983106 
0.0405753 0.150079 -0.987862 
0.0260602 0.127902 -0.991467 
0.0140383 0.10674 -0.994206 
0.00326828 0.0843639 -0.996447 
-0.00340954 0.0649025 -0.997902 
-0.00849111 0.0482451 -0.998815 
-0.0119044 0.0347995 -0.999339 
-0.0144315 0.0241625 -0.99962 
-0.0169224 0.0158059 -0.999748 
-0.0189137 0.0093107 -0.999793 
-0.0211067 0.004871 -0.99978 
-0.0225752 0.00211426 -0.999758 
-0.0227876 0.000516423 -0.999755 
-0.0238516 0.000546736 -0.999729 
-0.0243163 0.00107916 -0.999721 
-0.0235889 0.00156331 -0.999734 
-0.024537 0.00163008 -0.999715 
-0.0217137 0.00188524 -0.999776 
-0.022663 0.000954937 -0.999758 
-0.0222173 0.000975109 -0.99977 
-0.0205013 0.00297273 -0.999799 
-0.0194845 0.00657926 -0.999807 
-0.0160497 0.0105611 -0.999832 
-0.0158428 0.00318909 -0.999884 
-0.0125574 -0.00975254 -0.999892 
-0.00800278 -0.0143541 -0.99988 
-0.00276573 -0.0274361 -0.999628 
0.00500476 -0.0235296 0.999722 
0.00788725 -0.0157717 0.99986 
0.010525 -0.0146404 0.999854 
0.0153345 -0.00207545 0.999892 
0.0183029 0.00356306 0.999842 
0.022047 0.00341363 0.999762 
0.0239972 0.000726387 0.999724 
0.0250997 -0.00145119 0.999696 
0.0258764 -0.00218534 0.999675 
0.0266626 -0.000988985 0.999657 
0.0274309 0.000805623 0.999634 
0.0277511 0.0025858 0.999624 
0.0272987 0.00341913 0.999634 
0.0264518 0.00339387 0.999656 
0.0250646 0.00308132 0.999693 
0.0231465 0.00339673 0.999741 
0.022043 0.00504613 0.999754 
0.0193095 0.00980551 0.999778 
0.0157336 0.0175621 0.999735 
0.0108781 0.0286009 0.999545 
0.00519763 0.0420006 0.999117 
-0.00222263 0.0580632 0.998324 
-0.0127171 0.0764211 0.997011 
-0.022082 0.0954789 0.995199 
-0.0400949 0.11934 0.99206 
-0.0588639 0.142296 0.988093 
-0.0965861 0.175498 0.979746 
-0.129455 0.202172 0.970777 
-0.16932 0.231132 0.958091 
-0.18494 0.242979 0.952254 
-0.215593 0.260561 0.941094 
-0.201752 0.265961 0.942648 
-0.21076 0.282425 0.935875 
-0.12531 0.308361 0.942992 
-0.14266 0.365238 0.919926 
-0.0777588 0.432972 0.898056 
-0.0758407 0.550865 0.831142 
-0.0392054 0.71861 0.694334 
0.00437591 0.977935 0.208854 
0.00961405 0.993659 -0.111914 
0.0366704 0.878915 -0.475561 
0.0291471 0.771905 -0.635087 
0.0798417 0.575118 -0.814171 
0.0981239 0.45645 -0.884329 
0.119184 0.37108 -0.920929 
0.144981 0.324581 -0.934692 
0.181385 0.294303 -0.938357 
0.205325 0.273666 -0.939666 
0.214289 0.256946 -0.942384 
0.193121 0.241597 -0.950978 
0.172428 0.223502 -0.959352 
0.144642 0.207083 -0.967588 
0.105893 0.17956 -0.978049 
0.0707419 0.149835 -0.986195 
0.0460619 0.123155 -0.991334 
0.0246064 0.0983259 -0.994862 
0.0119768 0.0770695 -0.996968 
0.00222575 0.0581967 -0.998316 
-0.00453047 0.0429391 -0.99908 
-0.00951476 0.0304314 -0.999505 
-0.0133427 0.0201818 -0.999723 
-0.0176559 0.0123692 -0.999781 
-0.0211035 0.00701091 -0.999765 
-0.0240695 0.00368031 -0.999716 
-0.0265981 0.00198765 -0.999654 
-0.0276512 0.00162797 -0.99963 
-0.0278634 0.00151883 -0.999623 
-0.0286661 0.00114408 -0.9996 
-0.028252 0.000559653 -0.999613 
-0.027349 0.000263284 -0.999638 
-0.0267141 -0.000231951 -0.999655 
-0.0255552 0.000324353 -0.999686 
-0.0248854 0.00196572 -0.999701 
-0.0228562 0.00305521 -0.999747 
-0.0199782 0.0049621 -0.9998 
-0.0165809 -0.0032375 -0.999874 
-0.0120276 -0.0164852 -0.999806 
-0.00878959 -0.0169171 -0.999834 
-0.00577065 -0.0234323 -0.999719 
0.00449445 -0.0247415 0.999696 
0.00406911 -0.0192826 0.999823 
0.00166731 -0.0211901 0.999788 
0.00592064 -0.00844652 0.999964 
0.00942493 -0.0015678 0.999966 
0.0131833 0.000350314 0.999926 
0.0142074 -0.000159758 0.999912 
0.0161357 -0.00208434 0.999878 
0.0184236 -0.00309855 0.99984 
0.0181813 -0.00230542 0.999845 
0.0186243 -6.15522e-05 0.999839 
0.020112 0.00215338 0.999808 
0.019738 0.00379019 0.99981 
0.0172404 0.00453467 0.999853 
0.0153475 0.00469304 0.999884 
0.0123971 0.00559109 0.99992 
0.0119994 0.00764804 0.999911 
0.00744832 0.0136462 0.999892 
0.00273105 0.0228994 0.999747 
-0.00395045 0.035359 0.99938 
-0.0119535 0.0503645 0.998673 
-0.0226678 0.0683237 0.99742 
-0.0375878 0.09027 0.99522 
-0.0516579 0.111174 0.992476 
-0.0800378 0.142081 0.986631 
-0.111271 0.174168 0.978427 
-0.167461 0.220513 0.960917 
-0.206232 0.24975 0.946107 
-0.246534 0.276432 0.928886 
-0.278597 0.292173 0.914898 
-0.308508 0.304526 0.901169 
-0.336995 0.3132 0.887903 
-0.306792 0.304595 0.901726 
-0.228544 0.305757 0.924284 
-0.232998 0.334159 0.913269 
-0.20005 0.408478 0.890582 
-0.124346 0.465559 0.876245 
-0.0830166 0.641694 0.76246 
-0.00628749 0.904251 0.426962 
0.00919428 0.991206 0.132027 
0.0133319 0.968764 -0.24762 
0.0710681 0.771682 -0.632054 
0.152816 0.510463 -0.846221 
0.171394 0.423975 -0.889321 
0.218045 0.37427 -0.901325 
0.274589 0.332464 -0.902266 
0.315227 0.31252 -0.896091 
0.329104 0.297025 -0.896373 
0.317754 0.291496 -0.902265 
0.270802 0.271736 -0.923497 
0.246875 0.263435 -0.932565 
0.232318 0.261252 -0.936907 
0.18138 0.229029 -0.95639 
0.131778 0.190818 -0.972758 
0.0910997 0.152962 -0.984042 
0.0584582 0.11805 -0.991301 
0.0367957 0.0905819 -0.995224 
0.0231311 0.0692744 -0.997343 
0.0130117 0.0515153 -0.998601 
0.00521973 0.0365397 -0.999332 
-0.000755227 0.0247226 -0.999705 
-0.00639034 0.0154195 -0.999874 
-0.0102419 0.00923098 -0.999918 
-0.0137671 0.00557587 -0.999902 
-0.0173535 0.00375388 -0.999857 
-0.018599 0.00310694 -0.999834 
-0.018815 0.0023527 -0.99983 
-0.0194788 0.00114396 -0.999824 
-0.0194687 -0.000245349 -0.999823 
-0.0209472 -0.00122868 -0.999792 
-0.0179957 -0.00186718 -0.999849 
-0.0156253 -0.0011596 -0.99989 
-0.0159831 0.000639074 -0.999885 
-0.0128394 3.29613e-05 -0.999931 
-0.0130955 -0.00121887 -0.999928 
-0.00669424 -0.010317 -0.999939 
-0.00190592 -0.023963 -0.999725 
-0.00480703 -0.0204666 -0.999796 
-0.00486855 -0.0237423 -0.999714 
2.05809e-05 -0.0245527 0.999712 
-0.00192644 -0.0224361 0.999767 
-0.00432205 -0.0272389 0.999631 
-0.000844105 -0.0146789 0.999906 
0.00177652 -0.00534714 0.999999 
0.00434964 -0.00144681 1.00001 
0.00624205 -0.00123924 0.999992 
0.00865454 -0.00362586 0.999968 
0.0101989 -0.00468462 0.99995 
0.0108183 -0.00303148 0.99995 
0.0111206 -0.000102874 0.999951 
0.0123584 0.0027213 0.999933 
0.0110023 0.00495947 0.99994 
0.0091477 0.0062887 0.999951 
0.00653263 0.00695992 0.999967 
0.00321276 0.00857749 0.999968 
0.00103457 0.0118442 0.999944 
-0.00400662 0.0198197 0.999809 
-0.010244 0.0311452 0.999476 
-0.0187658 0.0467691 0.998743 
-0.0293199 0.065225 0.997454 
-0.0441172 0.0882393 0.995137 
-0.0654197 0.1174 0.990944 
-0.0916601 0.149202 0.984567 
-0.133521 0.194128 0.971865 
-0.177006 0.234221 0.955949 
-0.246548 0.289372 0.924935 
-0.308802 0.33661 0.889577 
-0.334053 0.345748 0.876859 
-0.36249 0.3535 0.862351 
-0.393345 0.36141 0.845383 
-0.36205 0.327845 0.872614 
-0.441826 0.353937 0.824336 
-0.364787 0.33063 0.870419 
-0.353868 0.340609 0.871076 
-0.296488 0.365144 0.882484 
-0.283176 0.435966 0.854245 
-0.110898 0.660671 0.742449 
-0.0587241 0.784554 0.617273 
0.0153714 0.999792 0.0131024 
0.0453226 0.891633 -0.450417 
0.114826 0.62561 -0.77163 
0.228601 0.454326 -0.861028 
0.284816 0.412651 -0.865224 
0.324593 0.370386 -0.870325 
0.407727 0.345242 -0.845327 
0.428633 0.33498 -0.839091 
0.425116 0.339998 -0.838864 
0.394366 0.338507 -0.854343 
0.348619 0.325759 -0.878839 
0.33169 0.326792 -0.884987 
0.29086 0.314653 -0.903557 
0.24549 0.290929 -0.924723 
0.185472 0.243327 -0.952066 
0.130442 0.19222 -0.972662 
0.0853616 0.142072 -0.986189 
0.0578732 0.107662 -0.992517 
0.0401975 0.0822483 -0.995815 
0.0264764 0.0606263 -0.997823 
0.0162378 0.0422146 -0.99899 
0.00933883 0.028572 -0.999561 
0.0025959 0.0177163 -0.999853 
-0.00171395 0.0111945 -0.999948 
-0.00513155 0.00786343 -0.999968 
-0.00842908 0.0060085 -0.999959 
-0.00977104 0.00517149 -0.999951 
-0.0110959 0.00374828 -0.999944 
-0.0120979 0.00148941 -0.999938 
-0.0116701 -0.000906412 -0.999942 
-0.0123668 -0.00263383 -0.999932 
-0.00965342 -0.00385808 -0.999958 
-0.00811298 -0.00277925 -0.999976 
-0.00768907 -0.000463871 -0.999983 
-0.00403768 -0.00184444 -1 
-0.0041067 -0.00558475 -0.99999 
0.00010062 -0.0156561 -0.999892 
0.00318797 -0.0284733 -0.999603 
0.00120386 -0.021562 -0.999785 
0.000795338 -0.0240984 -0.999725 
-0.00362428 -0.0236846 0.99972 
-0.00421305 -0.0231316 0.999735 
-0.00558241 -0.029836 0.999554 
-0.00462083 -0.0224894 0.99975 
-0.00304172 -0.0105292 0.999954 
-0.00132486 -0.0040051 1 
0.000877688 -0.001928 1.00001 
0.00324545 -0.0039432 0.999999 
0.0048984 -0.00594491 0.999982 
0.0061542 -0.00458403 0.999983 
0.00632452 -0.00134286 0.999991 
0.00659935 0.00253153 0.999987 
0.00558811 0.00580586 0.99998 
0.00438983 0.00796503 0.999971 
0.00189573 0.00931432 0.999967 
-0.000842061 0.0105798 0.999955 
-0.00480732 0.0142334 0.999899 
-0.00873292 0.0206917 0.99976 
-0.0152975 0.0330696 0.999349 
-0.0233251 0.0493146 0.998524 
-0.0348527 0.0712006 0.996866 
-0.0500198 0.0963928 0.9941 
-0.0723914 0.128865 0.989032 
-0.105286 0.173139 0.97927 
-0.14617 0.221751 0.964103 
-0.201815 0.281511 0.938112 
-0.246854 0.309981 0.918146 
-0.320076 0.378091 0.868685 
-0.367663 0.408628 0.835381 
-0.414474 0.424765 0.804857 
-0.45067 0.43086 0.781835 
-0.478199 0.422769 0.769806 
-0.443285 0.37622 0.813612 
-0.478775 0.374985 0.793812 
-0.470615 0.373684 0.799305 
-0.480634 0.386769 0.787025 
-0.402932 0.374964 0.834908 
-0.0779789 0.807334 0.584825 
-0.0198145 0.898929 0.437692 
0.0256779 0.968924 -0.24592 
0.0707623 0.814525 -0.575794 
0.172971 0.592473 -0.786804 
0.462459 0.477042 -0.747371 
0.373422 0.41995 -0.827175 
0.447628 0.373041 -0.812699 
0.509276 0.364574 -0.779569 
0.517607 0.381469 -0.76588 
0.485329 0.389552 -0.782766 
0.440291 0.396848 -0.8054 
0.403249 0.40106 -0.822528 
0.37688 0.404735 -0.833164 
0.331169 0.384408 -0.861726 
0.269216 0.339951 -0.901098 
0.218023 0.302406 -0.927921 
0.162171 0.242545 -0.956505 
0.112284 0.183022 -0.976693 
0.0775396 0.136747 -0.987583 
0.0548054 0.103697 -0.993112 
0.0383934 0.0770644 -0.9963 
0.0263214 0.0550086 -0.998152 
0.0178512 0.0381384 -0.999126 
0.0102873 0.023847 -0.999675 
0.00528573 0.0156471 -0.999876 
0.00148638 0.0114909 -0.999945 
-0.00215847 0.0091473 -0.999968 
-0.00400362 0.00818327 -0.99997 
-0.00580645 0.00635031 -0.999975 
-0.00689264 0.00317877 -0.999983 
-0.00696504 -0.000294118 -0.99999 
-0.00678052 -0.0034944 -0.999983 
-0.00542283 -0.00546894 -0.999982 
-0.00369247 -0.00477346 -0.999994 
-0.00231341 -0.00194287 -1.00001 
0.000563429 -0.00295398 -1.00001 
0.00132171 -0.00804343 -0.999981 
0.00322772 -0.0192925 -0.999822 
0.00428403 -0.0313642 -0.999512 
0.00379945 -0.025087 -0.999696 
0.00299967 -0.0254103 -0.99969 
-0.00171623 -0.0246836 0.999706 
-0.00368353 -0.0245048 0.999711 
-0.0045994 -0.0311792 0.999516 
-0.00434479 -0.0191733 0.99982 
-0.00306223 -0.00867137 0.999971 
-0.000786587 -0.00389506 1 
0.0012557 -0.00355408 1 
0.0034825 -0.00592096 0.999988 
0.00458359 -0.0063696 0.999981 
0.00504468 -0.0036648 0.999993 
0.00497634 0.00115487 0.999999 
0.00425199 0.00568436 0.999987 
0.00290744 0.00920049 0.999965 
0.00094376 0.0112886 0.999947 
-0.0017383 0.0126267 0.99993 
-0.0050847 0.0148134 0.999889 
-0.00903134 0.0205524 0.99976 
-0.0137549 0.029917 0.99947 
-0.0211463 0.0467808 0.998694 
-0.030767 0.0681485 0.997213 
-0.0449542 0.0971083 0.994272 
-0.0652052 0.131082 0.989239 
-0.0932388 0.175422 0.980084 
-0.132878 0.234654 0.96297 
-0.185399 0.301774 0.935193 
-0.242076 0.370111 0.896904 
-0.279812 0.373625 0.884379 
-0.359986 0.450605 0.81693 
-0.419451 0.486168 0.766624 
-0.460547 0.489163 0.740693 
-0.502485 0.500279 0.705146 
-0.531636 0.493612 0.688263 
-0.513088 0.425824 0.74526 
-0.604222 0.425126 0.673948 
-0.548337 0.401252 0.73371 
-0.560143 0.41665 0.715993 
-0.330958 0.455306 0.826514 
-0.144606 0.519679 0.84205 
-0.010689 0.939688 0.341861 
0.0327494 0.909321 -0.414755 
0.0962803 0.744521 -0.660607 
0.242122 0.55963 -0.792568 
0.34754 0.457118 -0.818731 
0.474263 0.406665 -0.780851 
0.572905 0.381668 -0.725341 
0.56046 0.388461 -0.731434 
0.555637 0.417895 -0.718772 
0.518858 0.449639 -0.727058 
0.495564 0.476673 -0.726089 
0.454549 0.481938 -0.749085 
0.409983 0.484512 -0.772766 
0.355402 0.459051 -0.81423 
0.300907 0.418794 -0.856787 
0.23475 0.367121 -0.900077 
0.17276 0.291712 -0.94079 
0.118845 0.218089 -0.968682 
0.0815651 0.1604 -0.983691 
0.0571287 0.119517 -0.991201 
0.0406319 0.08885 -0.995229 
0.0286001 0.0636657 -0.997574 
0.0186438 0.0410288 -0.998996 
0.0121077 0.0268859 -0.999577 
0.00721302 0.0182369 -0.999819 
0.00358721 0.0141822 -0.999904 
0.000450384 0.0121549 -0.999937 
-0.0021008 0.0108535 -0.99995 
-0.00385261 0.00836983 -0.999969 
-0.00500164 0.00456407 -0.999989 
-0.00548942 -0.000323604 -0.999995 
-0.00530633 -0.00411586 -0.999989 
-0.00472483 -0.00650316 -0.999979 
-0.00344318 -0.00613442 -0.999987 
-0.00122609 -0.00320812 -1.00001 
0.00111752 -0.0041045 -1 
0.0029907 -0.0102084 -0.999957 
0.00343076 -0.0210253 -0.999786 
0.0031953 -0.0323873 -0.999483 
0.00311106 -0.026671 -0.999656 
0.0015991 -0.0256246 -0.999686 
-0.000609641 -0.0257387 0.999686 
-0.00185765 -0.026179 0.999672 
-0.00266065 -0.0334431 0.999447 
-0.00225133 -0.0217521 0.999774 
-0.000805836 -0.011683 0.999945 
0.00138576 -0.00580343 0.999995 
0.00327505 -0.00450092 0.999996 
0.00504981 -0.00657173 0.999977 
0.00575655 -0.00690724 0.999971 
0.00562593 -0.0038309 0.999988 
0.0050515 0.000811591 0.999999 
0.00374205 0.00700527 0.999982 
0.00222893 0.0111147 0.999945 
6.4827e-05 0.0136678 0.999918 
-0.0022964 0.0148646 0.999898 
-0.00530885 0.0169352 0.999854 
-0.0088748 0.0222106 0.999725 
-0.0133075 0.0324072 0.999398 
-0.0194859 0.0485079 0.998645 
-0.0284499 0.0730631 0.996934 
-0.0407004 0.102884 0.993873 
-0.0596809 0.143032 0.987931 
-0.0858163 0.19456 0.977144 
-0.121915 0.258815 0.958217 
-0.174092 0.335313 0.925895 
-0.23328 0.424762 0.874746 
-0.298593 0.47105 0.830039 
-0.335643 0.465204 0.819109 
-0.429273 0.553385 0.713792 
-0.478481 0.567509 0.670068 
-0.508921 0.562018 0.652026 
-0.547393 0.568156 0.61446 
-0.563311 0.498761 0.65872 
-0.598172 0.485794 0.637334 
-0.579161 0.44071 0.685843 
-0.631039 0.439757 0.639063 
-0.517854 0.411313 0.750139 
-0.422132 0.38378 0.821271 
-0.166564 0.55346 0.816084 
0.0109216 0.974837 0.222848 
0.0395324 0.820672 -0.570106 
0.286059 0.480122 -0.829204 
0.488557 0.446114 -0.749855 
0.593822 0.407204 -0.693951 
0.646843 0.413504 -0.640789 
0.649719 0.454806 -0.609102 
0.584084 0.478412 -0.655723 
0.586627 0.532327 -0.610331 
0.574659 0.561819 -0.595091 
0.504495 0.547751 -0.667421 
0.436733 0.541755 -0.718171 
0.39989 0.5667 -0.720409 
0.318382 0.490463 -0.811229 
0.269171 0.466722 -0.842455 
0.19647 0.375092 -0.90594 
0.139625 0.292034 -0.946176 
0.0937481 0.213246 -0.972506 
0.0636714 0.153858 -0.986054 
0.0441977 0.112235 -0.992712 
0.0309977 0.0798338 -0.996341 
0.0215981 0.053588 -0.99834 
0.0144954 0.0349791 -0.999295 
0.00940968 0.0235872 -0.999689 
0.00576074 0.0179658 -0.999833 
0.00269511 0.0154349 -0.999889 
2.66204e-05 0.0139299 -0.999914 
-0.00222118 0.011497 -0.999943 
-0.00394788 0.0072874 -0.999977 
-0.0051486 0.00145134 -1 
-0.00582854 -0.00389705 -0.999987 
-0.00569268 -0.00695061 -0.999971 
-0.00498224 -0.00665442 -0.999977 
-0.003018 -0.00423092 -0.999998 
-0.00155227 -0.00515284 -0.999998 
0.000918749 -0.010243 -0.99996 
0.0010982 -0.0202208 -0.999808 
0.000907207 -0.0323743 -0.999488 
0.00135546 -0.026542 -0.999663 
0.000213708 -0.0255868 -0.999691 
0.000309151 -0.0259463 0.999683 
-0.000148954 -0.0289391 0.999597 
-0.000458459 -0.0340509 0.999432 
0.000680936 -0.0227907 0.999753 
0.00222366 -0.0126657 0.99993 
0.00407893 -0.00663418 0.999982 
0.00562187 -0.00551158 0.99998 
0.00643619 -0.00701757 0.999966 
0.0062343 -0.0063559 0.999972 
0.0052773 -0.00235074 0.999997 
0.00395998 0.00332949 0.999996 
0.00147362 0.0098807 0.999961 
-0.000576567 0.0138918 0.999917 
-0.00293556 0.016184 0.999876 
-0.00521953 0.0172229 0.999849 
-0.0080484 0.0196961 0.999783 