# vtk DataFile Version 3.0 
Exported using Morpho https://github.com/Morpho-lang/morpho 
ASCII 
DATASET UNSTRUCTURED_GRID 

POINTS 1978 float 
-12 -4 -2.74042e-15 
-11.585 -4 7.0466e-14 
-11.2837 -4 -2.52309e-15 
-10.9561 -4 -1.19643e-13 
-10.6507 -4 -1.56676e-13 
-10.3181 -4 -9.38731e-14 
-9.98818 -4 1.27457e-14 
-9.67127 -4 3.9407e-14 
-9.32504 -4 1.77805e-14 
-8.99669 -4 -1.53271e-14 
-8.68694 -4 -4.677e-14 
-8.37343 -4 -5.88076e-14 
-8.06965 -4 -5.11525e-14 
-7.77152 -4 -3.34376e-14 
-7.47233 -4 -8.97951e-15 
-7.18239 -4 -2.83048e-15 
-6.87306 -4 -1.7794e-14 
-6.57268 -4 -5.2041e-14 
-6.27174 -4 -1.04746e-13 
-5.97114 -4 -1.48893e-13 
-5.67129 -4 -1.66175e-13 
-5.37467 -4 -1.30977e-13 
-5.08744 -4 5.42246e-15 
-4.79003 -4 2.69709e-13 
-4.50057 -4 7.04656e-13 
-4.20852 -4 1.48855e-12 
-3.88539 -4 2.64583e-12 
-3.56084 -4 4.65805e-12 
-3.21843 -4 7.48404e-12 
-2.87035 -4 1.12935e-11 
-2.48667 -4 1.35005e-11 
-2.18584 -4 1.31532e-11 
-1.93441 -4 1.22766e-11 
-1.72569 -4 1.28943e-11 
-1.43137 -4 1.36292e-11 
-1.22395 -4 1.10901e-11 
-0.891153 -4 8.61759e-12 
-0.670993 -4 7.21816e-13 
-0.493667 -4 -8.78253e-12 
0.119531 -4 1.54815e-11 
0.28389 -4 -1.18695e-11 
0.790828 -4 1.07894e-11 
0.959558 -4 -9.47767e-12 
1.19734 -4 -9.32211e-12 
1.40302 -4 -1.03643e-11 
1.63143 -4 -1.45153e-11 
1.92499 -4 -1.48606e-11 
2.20229 -4 -1.37967e-11 
2.51189 -4 -1.32902e-11 
2.8788 -4 -1.1677e-11 
3.26996 -4 -8.37124e-12 
3.6056 -4 -4.86889e-12 
3.94877 -4 -2.95521e-12 
4.2471 -4 -1.53635e-12 
4.52764 -4 -7.26098e-13 
4.8032 -4 -2.5424e-13 
5.09968 -4 -1.37513e-15 
5.38999 -4 1.3343e-13 
5.68885 -4 1.64622e-13 
5.98673 -4 1.42107e-13 
6.28352 -4 1.0979e-13 
6.5819 -4 7.70161e-14 
6.88008 -4 3.99529e-14 
7.16371 -4 1.18266e-14 
7.45002 -4 -5.90797e-15 
7.75234 -4 -2.8273e-15 
8.05949 -4 8.1461e-15 
8.35246 -4 2.1467e-14 
8.67598 -4 2.8863e-14 
8.95854 -4 3.18074e-14 
9.30888 -4 2.49585e-14 
9.623 -4 2.66959e-15 
9.91421 -4 7.07124e-15 
10.2649 -4 7.33862e-14 
10.5738 -4 1.46098e-13 
10.9735 -4 1.22423e-13 
11.3083 -4 -2.55686e-14 
11.5912 -4 -7.94917e-14 
12 -4 3.21527e-15 
-12 -3.63302 4.66592e-15 
-11.6952 -3.72161 -1.73929e-14 
-11.3423 -3.61867 -2.50451e-14 
-11.0343 -3.65655 -7.10525e-15 
-10.7116 -3.64135 4.89944e-15 
-10.3971 -3.67117 3.45331e-14 
-10.0619 -3.6652 2.49903e-14 
-9.73718 -3.65852 4.874e-15 
-9.40754 -3.68352 -4.11964e-15 
-9.06916 -3.66886 1.43064e-15 
-8.7482 -3.65906 9.18185e-15 
-8.43243 -3.67173 1.6875e-14 
-8.1133 -3.65796 2.00359e-14 
-7.80527 -3.65225 2.59162e-14 
-7.50088 -3.65056 2.93177e-14 
-7.20257 -3.64905 4.0367e-14 
-6.89704 -3.67543 -1.41706e-15 
-6.58595 -3.66749 -2.30461e-15 
-6.27773 -3.66852 -3.75876e-15 
-5.97427 -3.67042 -5.14861e-15 
-5.67127 -3.67175 -7.70872e-15 
-5.37596 -3.66651 -1.04646e-14 
-5.08605 -3.66462 -1.28426e-14 
-4.77793 -3.67307 -1.36706e-14 
-4.47599 -3.65439 -1.71475e-14 
-4.14502 -3.66144 -2.32319e-14 
-3.80891 -3.60987 -3.60877e-14 
-3.4713 -3.60483 -2.25644e-14 
-3.13118 -3.60905 -1.34386e-14 
-2.77416 -3.67861 -2.70612e-14 
-2.47033 -3.68079 -2.46144e-14 
-2.18165 -3.72039 -3.99838e-14 
-1.93012 -3.73941 -6.65399e-14 
-1.65988 -3.85629 -4.58869e-14 
-1.4464 -3.82749 -1.13758e-13 
-1.08266 -3.91252 -3.60513e-14 
-0.858003 -3.88535 -1.61732e-14 
-0.552874 -3.86431 1.18395e-13 
-0.326698 -3.95751 2.35376e-13 
-0.0411365 -3.92601 -2.25602e-13 
0.352695 -3.84353 3.68658e-14 
0.562414 -3.93258 1.46869e-13 
0.794439 -3.83005 -1.86285e-14 
1.12926 -3.86084 8.55699e-14 
1.38114 -3.82703 7.54844e-14 
1.68306 -3.84599 -1.02751e-14 
1.95825 -3.78071 3.31472e-14 
2.23352 -3.72653 1.13467e-14 
2.54651 -3.69693 2.5484e-14 
2.87093 -3.65891 -3.18945e-14 
3.22385 -3.64867 -1.90129e-14 
3.58598 -3.60186 2.65843e-14 
3.91177 -3.63901 2.42506e-14 
4.24973 -3.62705 2.31618e-14 
4.56048 -3.65282 1.55133e-14 
4.87315 -3.68512 1.46159e-14 
5.17487 -3.67696 1.20621e-14 
5.47305 -3.67651 9.84104e-15 
5.7703 -3.66628 7.20605e-15 
6.06581 -3.65372 5.00078e-15 
6.36187 -3.64885 3.57197e-15 
6.6641 -3.65401 2.35315e-15 
6.95853 -3.64362 1.49701e-15 
7.25175 -3.65277 -3.27429e-14 
7.55229 -3.66759 -2.31335e-14 
7.85331 -3.66523 -1.53692e-14 
8.14949 -3.63999 -1.1053e-14 
8.45213 -3.67056 -1.02448e-14 
8.74264 -3.62824 -6.25799e-15 
9.06631 -3.69948 -2.37019e-15 
9.38865 -3.66453 -8.53572e-15 
9.69528 -3.63699 -1.31121e-14 
10.0255 -3.6942 -3.04841e-14 
10.3453 -3.64268 -2.11282e-14 
10.71 -3.71762 -1.29151e-14 
11.0447 -3.66232 3.1567e-14 
11.3503 -3.60052 2.44639e-14 
11.7025 -3.72352 2.21767e-14 
12 -3.62024 -4.51127e-15 
-12 -3.32403 -5.48879e-15 
-11.6319 -3.37509 1.62392e-14 
-11.2908 -3.26333 8.31124e-15 
-10.974 -3.30866 -3.59404e-14 
-10.6515 -3.29731 -3.32867e-14 
-10.3283 -3.34184 -2.72883e-15 
-10.0039 -3.32556 -1.08671e-15 
-9.69569 -3.30994 4.83939e-16 
-9.39026 -3.3594 8.09168e-15 
-9.07325 -3.33303 3.72172e-15 
-8.77971 -3.30355 3.37316e-15 
-8.47783 -3.33928 8.96044e-15 
-8.166 -3.3325 1.53065e-14 
-7.84753 -3.31309 2.23876e-14 
-7.54316 -3.30729 2.88327e-14 
-7.24079 -3.29836 3.92789e-14 
-6.94052 -3.34521 -1.54948e-15 
-6.63368 -3.33786 -2.25125e-15 
-6.32859 -3.34256 -3.2224e-15 
-6.02259 -3.33857 -4.35231e-15 
-5.72453 -3.34546 -5.60633e-15 
-5.42505 -3.33702 -7.57953e-15 
-5.12704 -3.32097 -7.82478e-15 
-4.82556 -3.35245 -1.10926e-14 
-4.50759 -3.31248 -1.45266e-14 
-4.18194 -3.321 -1.87482e-14 
-3.85387 -3.25137 -1.84638e-14 
-3.53876 -3.25222 -2.40003e-14 
-3.22809 -3.26104 -8.6064e-15 
-2.91635 -3.33836 -2.80787e-14 
-2.63718 -3.36819 3.38718e-14 
-2.35591 -3.4329 -9.76857e-14 
-2.07897 -3.48622 -2.85619e-14 
-1.69155 -3.67652 -1.14718e-13 
-1.45891 -3.65201 -1.64614e-13 
-1.25059 -3.81502 5.18203e-14 
-1.0005 -3.7842 8.03302e-14 
-0.724257 -3.83602 1.0943e-13 
-0.214928 -3.84456 -3.59232e-14 
0.122674 -3.82964 3.3528e-15 
0.414933 -3.64169 1.72568e-13 
0.588969 -3.75933 4.18255e-14 
0.970929 -3.77202 -1.03044e-13 
1.2238 -3.69994 2.68955e-13 
1.52902 -3.69359 2.2613e-14 
1.76007 -3.63225 8.56744e-15 
1.99232 -3.52659 8.17036e-14 
2.26272 -3.45322 4.79775e-14 
2.55103 -3.3937 -1.86181e-15 
2.86745 -3.35472 3.55988e-14 
3.2071 -3.32682 -2.78899e-14 
3.52782 -3.26609 1.90669e-14 
3.8553 -3.26215 1.98845e-14 
4.17382 -3.28608 2.13286e-14 
4.50386 -3.30307 1.25918e-14 
4.81071 -3.35427 1.20749e-14 
5.11206 -3.35383 9.53342e-15 
5.408 -3.34993 7.78787e-15 
5.7027 -3.3382 5.8165e-15 
6.00049 -3.31971 4.26933e-15 
6.30321 -3.30611 2.77279e-15 
6.60987 -3.31598 2.12069e-15 
6.91721 -3.30181 1.62876e-15 
7.22242 -3.31123 -4.42242e-14 
7.52406 -3.33272 -3.15555e-14 
7.82753 -3.32364 -1.75722e-14 
8.12284 -3.29146 -1.11501e-14 
8.42171 -3.31833 -8.37085e-15 
8.73051 -3.29593 -5.86876e-15 
9.04992 -3.37287 -4.85509e-15 
9.36772 -3.32853 -6.12585e-15 
9.67621 -3.29205 -2.99932e-15 
9.99067 -3.36105 -7.11469e-15 
10.3013 -3.29545 1.34713e-15 
10.6333 -3.39725 3.72169e-14 
10.9698 -3.32206 4.04591e-14 
11.2888 -3.25169 -1.40083e-15 
11.6356 -3.37278 -1.26345e-14 
12 -3.30558 9.32778e-15 
-12 -2.99384 -3.76816e-15 
-11.6568 -3.05524 -1.06919e-15 
-11.3017 -2.94775 -1.51265e-15 
-10.9475 -2.96466 5.17463e-16 
-10.6115 -2.95802 -1.76444e-14 
-10.3 -3.00649 -8.40302e-15 
-9.99245 -2.97355 -1.07065e-14 
-9.67118 -2.97997 1.09254e-15 
-9.35354 -3.01937 1.27175e-14 
-9.05755 -2.97268 1.1328e-14 
-8.74331 -2.96861 4.08836e-15 
-8.4375 -3.00301 1.85401e-15 
-8.1181 -3.00573 8.81295e-16 
-7.8138 -2.97197 1.47318e-15 
-7.50495 -2.96957 1.03855e-14 
-7.20811 -2.95568 1.43936e-14 
-6.91336 -3.01593 3.06651e-14 
-6.60795 -3.00846 2.17466e-14 
-6.30505 -3.01663 1.95033e-14 
-6.01111 -3.00463 2.01105e-14 
-5.71656 -3.01452 -1.1104e-15 
-5.42511 -3.0002 6.13832e-15 
-5.12076 -2.98707 1.56421e-15 
-4.80575 -3.01459 -2.2217e-15 
-4.48454 -2.96865 3.80459e-15 
-4.16041 -2.98313 -2.98507e-14 
-3.83805 -2.91796 1.40022e-14 
-3.54228 -2.93895 1.49129e-14 
-3.2794 -2.9646 -5.31868e-15 
-3.01642 -3.03273 7.65257e-15 
-2.76976 -3.08856 8.21282e-15 
-2.39721 -3.1914 2.30802e-14 
-2.15535 -3.27057 -6.74602e-14 
-1.85539 -3.50049 2.35856e-14 
-1.61047 -3.49584 -1.15015e-13 
-1.307 -3.58893 7.09671e-14 
-1.15003 -3.67913 -1.85222e-15 
-0.869021 -3.70329 -2.00793e-13 
-0.386939 -3.81649 -6.48355e-14 
-0.080274 -3.77331 -6.1257e-14 
0.214498 -3.70224 1.15802e-13 
0.597485 -3.58697 6.08672e-14 
1.0668 -3.61102 -1.65485e-13 
1.37905 -3.58793 8.50405e-14 
1.62938 -3.4949 9.88199e-14 
1.85673 -3.37937 -5.6366e-14 
2.12913 -3.2719 3.06557e-15 
2.41352 -3.17706 1.90264e-14 
2.69696 -3.11683 -2.25913e-14 
2.98133 -3.08285 3.60125e-14 
3.26945 -3.02404 4.42047e-15 
3.53517 -2.94225 -2.39938e-14 
3.80456 -2.94624 -6.7461e-15 
4.1181 -2.94029 3.83657e-15 
4.45044 -2.96231 -1.70721e-15 
4.78198 -3.00479 3.28011e-14 
5.09246 -3.02329 -2.42622e-14 
5.39895 -3.01626 -1.60389e-14 
5.69764 -3.00727 5.2354e-16 
5.99783 -2.99089 -7.27714e-15 
6.30025 -2.97133 -1.42273e-14 
6.59958 -2.98405 -2.25108e-14 
6.91509 -2.97862 -1.61949e-14 
7.22915 -2.97996 -1.71438e-14 
7.53396 -2.99861 -1.58637e-14 
7.83596 -2.98213 -6.83777e-15 
8.13488 -2.95084 -4.40252e-15 
8.43768 -2.97706 -3.05509e-15 
8.7477 -2.96557 -4.2638e-15 
9.0563 -3.04593 -7.67783e-15 
9.36401 -2.98944 -9.90698e-15 
9.65882 -2.94388 -1.84358e-15 
9.97452 -3.01547 1.09159e-14 
10.3093 -2.96699 9.05107e-15 
10.6457 -3.0623 2.28647e-14 
10.9745 -2.97077 -4.90056e-15 
11.3248 -2.9212 1.97653e-15 
11.659 -3.05177 -3.71167e-15 
12 -2.96181 7.81813e-15 
-12 -2.68408 2.4187e-15 
-11.6454 -2.73057 1.88494e-14 
-11.3145 -2.62003 -1.57584e-15 
-10.9605 -2.64301 2.80403e-14 
-10.6125 -2.63251 4.98971e-15 
-10.2789 -2.65623 -3.82272e-15 
-9.94523 -2.64677 -4.89334e-15 
-9.61849 -2.65813 8.3966e-15 
-9.32191 -2.66406 1.89422e-14 
-9.00041 -2.64138 1.2583e-14 
-8.69243 -2.63181 3.81182e-15 
-8.38087 -2.6806 -7.83267e-17 
-8.08277 -2.65981 -4.73143e-15 
-7.7667 -2.6454 -3.06207e-15 
-7.46452 -2.63003 6.89123e-16 
-7.14441 -2.63569 -3.99378e-15 
-6.84639 -2.69197 -5.13742e-15 
-6.53829 -2.68137 -1.78325e-14 
-6.2474 -2.6784 -3.75525e-14 
-5.94883 -2.67377 1.6194e-15 
[...]
POINT_DATA 1978 
VECTORS vectors float
0.000814853 -0.000981712 0.999999 
-0.000288121 -0.0115734 0.999933 
-0.000253149 0.000669323 1 
9.16845e-05 0.0148989 0.999889 
-5.69346e-06 0.0169512 0.999856 
-0.000193309 0.00849114 0.999964 
-5.85158e-05 -0.000909235 1 
-8.91485e-05 -0.00314158 0.999995 
-0.000226832 -0.0012956 0.999999 
-3.85509e-05 0.00146037 0.999999 
2.05438e-05 0.00397361 0.999992 
-1.02922e-05 0.00492491 0.999988 
7.30407e-05 0.0044878 0.99999 
6.96372e-05 0.00296646 0.999996 
0.000103489 0.000978735 1 
0.000124849 0.000452227 1 
7.18379e-06 0.00193346 0.999998 
2.54808e-05 0.00629857 0.99998 
8.74966e-05 0.0142796 0.999898 
7.04505e-05 0.025164 0.999683 
4.61304e-05 0.0382803 0.999267 
9.91476e-05 0.0531976 0.998584 
0.000151516 0.0687162 0.997636 
0.00010646 0.0876282 0.996153 
0.00010481 0.107182 0.994239 
3.83609e-05 0.127361 0.991856 
-8.88656e-05 0.147705 0.989032 
-0.000140235 0.167165 0.985929 
-4.53446e-05 0.185623 0.982621 
-0.000227727 0.204531 0.97886 
-0.000273172 0.227562 0.973764 
0.000317143 0.24553 0.969389 
0.000563124 0.268428 0.9633 
0.000296366 0.29373 0.955888 
5.53238e-05 0.369467 0.929244 
-6.53034e-05 0.445654 0.895205 
-7.01506e-05 0.629886 0.776688 
-0.000273603 0.764269 0.644898 
0.000120724 0.870412 0.492325 
-0.000131294 0.994016 -0.109235 
0.000218373 0.9568 -0.290747 
-0.00021191 0.673576 -0.739118 
5.99061e-05 0.588043 -0.80883 
8.26448e-05 0.480614 -0.876932 
-0.000154972 0.394868 -0.918738 
-0.000220919 0.327089 -0.944994 
-0.000147973 0.281717 -0.959497 
-2.09133e-05 0.25132 -0.967904 
0.000111594 0.224955 -0.974369 
0.000252737 0.196192 -0.980566 
0.000214974 0.178935 -0.983861 
0.000133647 0.162847 -0.986651 
5.87573e-05 0.145114 -0.989415 
-0.000120555 0.127606 -0.991825 
-0.000246795 0.106333 -0.994331 
-0.000169953 0.0864778 -0.996254 
-7.81169e-05 0.0670094 -0.997752 
-9.18495e-05 0.0504736 -0.998725 
-5.97539e-05 0.0361906 -0.999345 
-9.02574e-05 0.0248208 -0.999692 
-9.59935e-05 0.0160959 -0.99987 
-2.35654e-05 0.00950713 -0.999955 
-0.000141893 0.00468884 -0.999989 
-0.000263355 0.00151109 -0.999999 
-8.85319e-05 -0.000296828 -1 
-4.65819e-06 -0.000188995 -1 
-8.36005e-05 0.000737908 -1 
2.38691e-05 0.00172694 -0.999999 
-0.000115771 0.00251422 -0.999997 
4.00397e-05 0.00264702 -0.999996 
0.000226927 0.00191782 -0.999998 
-0.000140299 0.000550412 -1 
7.01496e-05 0.000826696 -1 
0.000130011 0.00713774 -0.999975 
0.00024629 0.0131519 -0.999913 
0.000313562 0.0120155 -0.999928 
0.000123055 -0.00396 -0.999992 
0.000197512 -0.0139996 -0.999902 
-0.000783073 -0.000928607 -0.999999 
0.000342242 -0.000161188 1 
0.00716103 -0.0118171 0.999905 
0.0115447 -0.0069146 0.999909 
0.0142141 0.00384246 0.999892 
0.0158844 0.0088614 0.999835 
0.0171929 0.00719378 0.999826 
0.0184315 0.0016295 0.999829 
0.0196761 -0.00137727 0.999805 
0.0196601 -0.00158842 0.999805 
0.0202283 0.000146195 0.999795 
0.0212397 0.00226517 0.999772 
0.0213195 0.00377773 0.999766 
0.021504 0.00392336 0.999761 
0.0215998 0.00310179 0.999762 
0.020857 0.00203077 0.99978 
0.020158 0.00194805 0.999795 
0.018148 0.00373854 0.999828 
0.0166823 0.00855469 0.999824 
0.0146451 0.0163127 0.99976 
0.0118028 0.0269125 0.999568 
0.00894692 0.0401332 0.999154 
0.00532015 0.0554331 0.998448 
0.000196152 0.0718238 0.997417 
-0.00592246 0.089485 0.995971 
-0.0146389 0.110106 0.993812 
-0.0241218 0.132115 0.990941 
-0.0431396 0.153972 0.987133 
-0.0658864 0.178232 0.98178 
-0.0889522 0.201084 0.975527 
-0.0905063 0.219173 0.971479 
-0.103407 0.236883 0.966019 
-0.099526 0.254283 0.961995 
-0.0980413 0.275824 0.956195 
-0.0519401 0.313416 0.948194 
-0.0637272 0.372499 0.925842 
-0.0315784 0.518744 0.854346 
-0.0309901 0.642038 0.766046 
-0.021008 0.830173 0.557109 
0.00105763 0.941445 0.337166 
0.00300203 0.998887 0.0470732 
0.0111137 0.928037 -0.372321 
0.00828479 0.844147 -0.536047 
0.0528275 0.665697 -0.74435 
0.0441699 0.515408 -0.855806 
0.0571265 0.396282 -0.91635 
0.0577484 0.320169 -0.945599 
0.07829 0.279731 -0.956881 
0.0958859 0.252236 -0.962903 
0.0979731 0.22835 -0.968637 
0.0977154 0.211263 -0.972533 
0.0824996 0.191961 -0.977929 
0.066412 0.171102 -0.983013 
0.0416821 0.1496 -0.987868 
0.0272756 0.127474 -0.991467 
0.0150663 0.106317 -0.994218 
0.00453639 0.0842463 -0.996435 
-0.00194532 0.065035 -0.997881 
-0.00693874 0.0484544 -0.998801 
-0.0103687 0.0350172 -0.999333 
-0.012974 0.0243554 -0.999619 
-0.0153374 0.0159654 -0.999755 
-0.0173298 0.00948215 -0.999805 
-0.0194615 0.00504913 -0.999798 
-0.0208176 0.00223944 -0.999781 
-0.0211879 0.000701389 -0.999775 
-0.0220579 0.000640101 -0.999756 
-0.0226846 0.00109073 -0.999742 
-0.0218943 0.00152958 -0.999759 
-0.0229011 0.00156546 -0.999737 
-0.0200779 0.00172628 -0.999797 
-0.0208963 0.000974397 -0.999781 
-0.0207329 0.00104768 -0.999785 
-0.018694 0.00298529 -0.999821 
-0.0180757 0.00623915 -0.999817 
-0.0145833 0.00952802 -0.999848 
-0.0141697 0.00239294 -0.999897 
-0.0115792 -0.00913854 -0.999891 
-0.00694784 -0.0128838 -0.999893 
-0.000199116 -0.00015407 -1 
0.00111319 5.96376e-05 0.999999 
0.00745456 -0.0143084 0.99987 
0.009821 -0.0133928 0.999862 
0.0142501 -0.00255621 0.999895 
0.0171147 0.00289379 0.999849 
0.0205692 0.00318901 0.999783 
0.0224404 0.000681684 0.999748 
0.0235903 -0.00135564 0.999721 
0.024478 -0.00198296 0.999698 
0.0252158 -0.000901416 0.999682 
0.025893 0.000782319 0.999664 
0.0262971 0.00252346 0.999651 
0.0258537 0.00337155 0.99966 
0.025009 0.00340304 0.999681 
0.0236904 0.00316414 0.999714 
0.0218433 0.003579 0.999755 
0.02066 0.00531902 0.999772 
0.0178671 0.0101211 0.999789 
0.0143645 0.0178412 0.999738 
0.00957169 0.0288071 0.999539 
0.00399233 0.0421228 0.999104 
-0.00341461 0.0580999 0.998305 
-0.0137456 0.0762948 0.996991 
-0.0230823 0.0952221 0.995188 
-0.041051 0.118884 0.992059 
-0.0602131 0.142224 0.988001 
-0.0975353 0.175285 0.979675 
-0.131015 0.202146 0.970552 
-0.170404 0.230554 0.958023 
-0.186654 0.243098 0.951874 
-0.216242 0.260228 0.941021 
-0.205374 0.266272 0.941765 
-0.211644 0.282376 0.935666 
-0.1292 0.30997 0.941927 
-0.145713 0.364622 0.919684 
-0.0774243 0.432737 0.898189 
-0.0747927 0.552684 0.830028 
-0.0389121 0.721875 0.690929 
0.00361046 0.97424 0.225486 
0.008776 0.993315 -0.115099 
0.0362187 0.879033 -0.475383 
0.0305987 0.77764 -0.627965 
0.0783427 0.574122 -0.815013 
0.101795 0.459271 -0.882444 
0.120311 0.371091 -0.920769 
0.146821 0.325069 -0.934223 
0.184115 0.294519 -0.937742 
0.207539 0.273017 -0.939356 
0.215339 0.256527 -0.942244 
0.19451 0.240591 -0.950937 
0.171127 0.222597 -0.959774 
0.145654 0.206595 -0.967524 
0.107045 0.179257 -0.977961 
0.0717297 0.149572 -0.986146 
0.0470275 0.12288 -0.991307 
0.0257368 0.0979499 -0.994859 
0.0130971 0.0769253 -0.996951 
0.0034858 0.0584187 -0.998286 
-0.00329189 0.0431061 -0.999065 
-0.00827209 0.0306178 -0.999497 
-0.0122603 0.0203984 -0.999717 
-0.0164788 0.0125851 -0.999785 
-0.0197254 0.00721091 -0.999779 
-0.0226687 0.00387595 -0.999736 
-0.0250669 0.00213921 -0.999683 
-0.0261157 0.00166745 -0.999658 
-0.0264739 0.00152943 -0.999648 
-0.0270499 0.00114489 -0.999633 
-0.0266696 0.000580576 -0.999644 
-0.0259269 0.000294549 -0.999664 
-0.025218 -0.000160578 -0.999682 
-0.0240587 0.000333368 -0.99971 
-0.0233431 0.00190342 -0.999726 
-0.0211794 0.00287236 -0.999772 
-0.0187399 0.00420143 -0.999816 
-0.0153315 -0.00356683 -0.999876 
-0.0110328 -0.0151572 -0.999824 
-0.00820597 -0.0153809 -0.999848 
-0.00127926 0.000147122 -0.999999 
0.00088777 -0.000145462 1 
0.00378171 -0.0175425 0.999839 
0.00228513 -0.0196593 0.999804 
0.00604689 -0.00867659 0.999944 
0.00937472 -0.00192137 0.999954 
0.0129938 0.000226567 0.999916 
0.0140784 -0.000336864 0.999901 
0.0160092 -0.00204689 0.99987 
0.0181036 -0.00286878 0.999832 
0.0179573 -0.00213585 0.999836 
0.0185319 -1.41906e-05 0.999828 
0.0196985 0.00212956 0.999804 
0.0193366 0.00370028 0.999806 
0.0170735 0.00447954 0.999844 
0.0151797 0.00476308 0.999873 
0.0123322 0.00580227 0.999907 
0.0116717 0.00798029 0.9999 
0.00733396 0.0139598 0.999876 
0.0026418 0.0231156 0.999729 
-0.00406159 0.0355024 0.999361 
-0.0118894 0.0503833 0.998659 
-0.0226395 0.0682923 0.997408 
-0.0373653 0.090051 0.995236 
-0.0517095 0.111106 0.992462 
-0.0802317 0.142311 0.986565 
-0.111286 0.174096 0.97842 
-0.166853 0.220106 0.9611 
-0.207153 0.250562 0.945678 
-0.247818 0.276921 0.928386 
-0.278579 0.291796 0.915013 
-0.308891 0.304178 0.901145 
-0.333957 0.311125 0.889761 
-0.313171 0.306402 0.898911 
-0.228897 0.304748 0.924519 
-0.236173 0.334359 0.912374 
-0.198913 0.407197 0.891417 
-0.126542 0.466457 0.875446 
-0.0829557 0.638528 0.765115 
-0.00687042 0.908962 0.416822 
0.00914664 0.992278 0.123699 
0.0148339 0.969457 -0.244811 
0.0701372 0.771805 -0.631979 
0.153469 0.510363 -0.846154 
0.171996 0.420868 -0.890667 
0.219533 0.370604 -0.902473 
0.274368 0.332687 -0.902242 
0.315968 0.312082 -0.895974 
0.330947 0.297791 -0.89543 
0.319213 0.291728 -0.901664 
0.272901 0.272652 -0.922597 
0.24785 0.263722 -0.932213 
0.231225 0.260227 -0.937453 
0.181762 0.229052 -0.956294 
0.131895 0.190706 -0.972746 
0.0909381 0.152806 -0.984063 
0.0581746 0.117861 -0.991325 
0.0370384 0.0907275 -0.995187 
0.0230826 0.0691683 -0.997338 
0.0130009 0.0516212 -0.998582 
0.00525484 0.0367556 -0.99931 
-0.000687889 0.0249481 -0.999689 
-0.00624365 0.0156606 -0.999858 
-0.0101923 0.00948146 -0.999903 
-0.0136734 0.00577459 -0.99989 
-0.016985 0.0038668 -0.999848 
-0.01832 0.00312083 -0.999827 
-0.0185915 0.00237312 -0.999824 
-0.019354 0.00115707 -0.999812 
-0.0192568 -0.000204004 -0.999815 
-0.0204617 -0.00111609 -0.99979 
-0.0178465 -0.00171478 -0.999839 
-0.0155662 -0.00111852 -0.999878 
-0.0158131 0.000473371 -0.999875 
-0.0127252 -8.94986e-05 -0.999919 
-0.012635 -0.0016 -0.999919 
-0.00687506 -0.0104407 -0.999922 
-0.00260648 -0.0220316 -0.999754 
-0.00452495 -0.0185301 -0.999818 
-0.000869975 0.000364912 -1 
-7.02462e-05 9.83882e-05 1 
-0.00145313 -0.02073 0.999784 
-0.00346492 -0.0252291 0.999676 
-0.000466105 -0.014474 0.999895 
0.0020574 -0.00562572 0.999982 
0.00466328 -0.00174134 0.999988 
0.0065489 -0.00150297 0.999977 
0.00882811 -0.00345982 0.999955 
0.0103202 -0.00429251 0.999938 
0.0109265 -0.00280014 0.999936 
0.0112193 -3.53764e-05 0.999937 
0.0123273 0.00269818 0.99992 
0.0110429 0.00485986 0.999927 
0.00917364 0.00621434 0.999939 
0.00660771 0.00705113 0.999953 
0.00342135 0.00881206 0.999955 
0.00122273 0.0121974 0.999925 
-0.00385017 0.0201422 0.99979 
-0.0100332 0.0314105 0.999456 
-0.0184852 0.0468924 0.998729 
-0.0290007 0.0652179 0.99745 
-0.0437869 0.0882202 0.995138 
-0.0649721 0.117291 0.99097 
-0.0912793 0.149266 0.984575 
-0.133301 0.194422 0.971818 
-0.177046 0.234724 0.955803 
-0.246593 0.290156 0.924663 
-0.306725 0.335333 0.89077 
-0.334516 0.345927 0.876604 
-0.364515 0.354358 0.861138 
-0.393308 0.359978 0.846005 
-0.36371 0.327817 0.871924 
-0.439897 0.353676 0.825472 
-0.363858 0.331398 0.870507 
-0.353449 0.342322 0.870568 
-0.296985 0.366798 0.881623 
-0.278326 0.435352 0.856156 
-0.110055 0.664039 0.739554 
-0.0574992 0.784313 0.617695 
0.0148674 0.999847 0.00919244 
0.0437522 0.891263 -0.451371 
0.111903 0.63023 -0.768302 
0.232074 0.454196 -0.860144 
0.281628 0.413162 -0.866016 
0.329474 0.371813 -0.867872 
0.408157 0.344832 -0.84528 
0.428396 0.334373 -0.839447 
0.427583 0.340783 -0.837281 
0.395783 0.33819 -0.853805 
0.350706 0.326256 -0.877817 
0.330504 0.327235 -0.88526 
0.291621 0.315975 -0.902838 
0.244481 0.289925 -0.925296 
0.185444 0.244106 -0.951852 
0.130292 0.192317 -0.972645 
0.0852832 0.142509 -0.986113 
0.0574061 0.107586 -0.992537 
0.0397419 0.0821255 -0.995829 
0.0261891 0.0606165 -0.997818 
0.0160198 0.0424257 -0.998971 
0.00914098 0.0288777 -0.999541 
0.00242952 0.0180313 -0.999834 
-0.00188361 0.0114624 -0.999933 
-0.00528388 0.00801792 -0.999954 
-0.00854203 0.0060625 -0.999945 
-0.00990659 0.00513493 -0.999938 
-0.011104 0.00369473 -0.999932 
-0.012113 0.00151566 -0.999925 
-0.0117133 -0.000803854 -0.999931 
-0.0124879 -0.00243937 -0.999919 
-0.0098894 -0.0035684 -0.999945 
-0.00829922 -0.00269571 -0.999962 
-0.00783026 -0.000781689 -0.999969 
-0.0044456 -0.00208437 -0.999988 
-0.00434168 -0.00575591 -0.999974 
-0.000289023 -0.0154701 -0.99988 
0.00247566 -0.0263324 -0.99965 
0.000787107 -0.0200679 -0.999798 
0.000467273 4.21951e-05 -1 
-0.000894537 0.000429119 1 
-0.00373479 -0.0206803 0.999779 
-0.00504218 -0.0279671 0.999596 
-0.00419724 -0.0215824 0.999758 
-0.00262498 -0.0107703 0.999939 
-0.000844693 -0.00434204 0.99999 
0.00130643 -0.00231673 0.999996 
0.00356994 -0.00389209 0.999986 
0.00513958 -0.00548614 0.999972 
0.00634459 -0.00429536 0.999971 
0.00651281 -0.00119879 0.999978 
0.00674759 0.00253372 0.999974 
0.00580164 0.00566872 0.999967 
0.00456077 0.00780764 0.999959 
0.00208607 0.00927348 0.999955 
-0.000655761 0.0107146 0.999942 
-0.00449891 0.0145043 0.999885 
-0.00846965 0.0210603 0.999742 
-0.0150035 0.0333615 0.999331 
-0.0229991 0.0494585 0.998511 
-0.0344996 0.0711551 0.996868 
-0.0496055 0.0963365 0.994112 
-0.0717699 0.128743 0.989078 
-0.104489 0.173032 0.979358 
-0.145724 0.222176 0.964055 
-0.201123 0.28135 0.938292 
-0.24676 0.310284 0.91806 
-0.319891 0.378306 0.868651 
-0.37028 0.409889 0.833597 
-0.415095 0.424947 0.804435 
-0.449686 0.428922 0.78346 
-0.479375 0.42462 0.768048 
-0.447644 0.377287 0.810721 
-0.482177 0.376087 0.791242 
-0.470052 0.372479 0.800194 
-0.481323 0.386774 0.786596 
-0.40467 0.374551 0.834239 
-0.0785367 0.807981 0.583951 
-0.0250494 0.889804 0.455654 
0.0261957 0.968424 -0.24793 
0.0706394 0.815463 -0.574483 
0.173394 0.589814 -0.788704 
0.463961 0.473627 -0.74861 
0.375575 0.418664 -0.82684 
0.447446 0.372053 -0.813246 
0.508859 0.363779 -0.780209 
0.520476 0.381402 -0.763962 
0.489062 0.394094 -0.778144 
0.43871 0.395064 -0.807129 
0.405166 0.401485 -0.821371 
0.375643 0.40392 -0.834111 
0.331522 0.386517 -0.860638 
0.269108 0.339791 -0.901179 
0.21784 0.302669 -0.927867 
0.16214 0.243849 -0.956163 
0.112028 0.183454 -0.976624 
0.0769446 0.136697 -0.98762 
0.0542576 0.103552 -0.993143 
0.037958 0.0769504 -0.996312 
0.0259818 0.055125 -0.998141 
0.017533 0.0383832 -0.999109 
0.010024 0.0242065 -0.999657 
0.00500155 0.0159396 -0.99986 
0.00125089 0.0116331 -0.999932 
-0.00230251 0.00916306 -0.999955 
-0.00417491 0.00806326 -0.999959 
-0.00593394 0.00619357 -0.999963 
-0.00699103 0.00313733 -0.999971 
-0.00709835 -0.000195465 -0.999975 
-0.00702215 -0.00327241 -0.99997 
-0.00565235 -0.00507344 -0.999971 
-0.00400014 -0.00451111 -0.999982 
-0.00268122 -0.00222562 -0.999994 
5.14548e-05 -0.0033622 -0.999994 
0.000908006 -0.00834068 -0.999965 
0.00287 -0.0189863 -0.999816 
0.00388058 -0.029149 -0.999568 
0.00332538 -0.0233101 -0.999723 
0.000744839 -0.000101852 -1 
-0.000293729 -3.42153e-05 1 
-0.00339969 -0.0229315 0.999731 
-0.00431964 -0.0292002 0.999564 
-0.00393899 -0.0190039 0.999812 
-0.00260015 -0.00908894 0.999955 
-0.000477546 -0.00431654 0.999991 
0.00152318 -0.00375813 0.999992 
0.00356227 -0.00565854 0.999978 
0.00465608 -0.0059323 0.999972 
0.00510796 -0.00339787 0.999981 
0.00498778 0.00121377 0.999987 
0.0042361 0.00555639 0.999976 
0.00292727 0.00897491 0.999955 
0.00098272 0.0110926 0.999938 
-0.00167684 0.0125908 0.999919 
-0.00495077 0.0150213 0.999875 
-0.00892228 0.0208778 0.999742 
-0.0136613 0.0303125 0.999447 
-0.0210251 0.047037 0.998672 
-0.0306158 0.0682013 0.997202 
-0.0447492 0.0969626 0.994282 
-0.0648172 0.13097 0.989265 
-0.0926416 0.175316 0.980144 
-0.132647 0.235258 0.962839 
-0.185305 0.302044 0.93511 
-0.242932 0.371472 0.896099 
-0.278946 0.373577 0.884663 
-0.360916 0.451214 0.816177 
-0.419721 0.48606 0.766538 
-0.459834 0.490046 0.740545 
-0.501392 0.499388 0.706553 
-0.533162 0.495659 0.685609 
-0.513782 0.426445 0.744428 
-0.602928 0.425143 0.675079 
-0.548021 0.400736 0.734224 
-0.561811 0.415718 0.715225 
-0.327522 0.45871 0.826023 
-0.146417 0.519854 0.841614 
-0.00753128 0.943498 0.331293 
0.0314199 0.911272 -0.410605 
0.101436 0.740077 -0.664828 
0.23656 0.566047 -0.789702 
0.345387 0.456048 -0.8202 
0.473082 0.406372 -0.7817 
0.57398 0.382427 -0.724083 
0.563243 0.389476 -0.728743 
0.547494 0.412377 -0.728145 
0.51942 0.451264 -0.725646 
0.496777 0.477386 -0.724786 
0.456469 0.482068 -0.747828 
0.411891 0.482595 -0.772948 
0.357073 0.460569 -0.812635 
0.297363 0.415262 -0.859728 
0.234613 0.368614 -0.899489 
0.172218 0.291482 -0.940946 
0.118861 0.218673 -0.968532 
0.08153 0.161029 -0.983576 
0.056878 0.119541 -0.991199 
0.0403645 0.0886673 -0.995243 
0.0283839 0.0635838 -0.997573 
0.0185349 0.0413728 -0.998972 
0.0120066 0.0272452 -0.999557 
0.00711813 0.0185147 -0.999803 
0.00348372 0.0142581 -0.999892 
0.000406036 0.0120709 -0.999927 
-0.00203441 0.0106408 -0.999941 
-0.00383734 0.00813031 -0.99996 
-0.00495207 0.00446837 -0.999978 
-0.005475 -0.000170058 -0.999985 
-0.00539401 -0.00383552 -0.999978 
-0.00477682 -0.00606314 -0.99997 
-0.00353274 -0.00579161 -0.999977 
-0.00149109 -0.00347568 -0.999993 
0.000727421 -0.0045738 -0.999989 
0.00250972 -0.0104601 -0.999942 
0.00307922 -0.0207141 -0.999781 
0.00296384 -0.030347 -0.999535 
0.00285874 -0.0245056 -0.999696 
0.00030736 -6.73112e-05 -1 
-0.000170938 -0.000272709 1 
-0.00175791 -0.0243134 0.999703 
-0.00252859 -0.0311833 0.99951 
-0.00205761 -0.0216423 0.999764 
-0.000699336 -0.0120391 0.999927 
0.00137307 -0.00619114 0.99998 
0.00320038 -0.00475448 0.999984 
0.00484304 -0.00628247 0.999969 
0.00554973 -0.00643294 0.999964 
0.00543541 -0.00354989 0.999979 
0.00485097 0.000971691 0.999988 
0.00350649 0.00684455 0.99997 
0.00203335 0.0107962 0.99994 
-0.000112462 0.0133893 0.99991 
-0.00243235 0.0147304 0.999889 
-0.00542202 0.0170368 0.99984 
-0.00900173 0.0225192 0.999706 
-0.0134633 0.032809 0.999371 
-0.0195958 0.0488489 0.998614 
-0.0285599 0.073161 0.996911 
-0.0407634 0.1028 0.993866 
-0.0596191 0.142861 0.987946 
-0.0858812 0.194882 0.97706 
-0.122114 0.259153 0.958086 
-0.174599 0.33672 0.925275 
-0.233722 0.424883 0.874556 
-0.298486 0.473095 0.828907 
-0.335383 0.465682 0.818937 
-0.429147 0.552105 0.714852 
-0.479172 0.569421 0.667947 
-0.50905 0.56261 0.651413 
-0.547538 0.566912 0.615478 
-0.561781 0.495791 0.662264 
-0.602412 0.488119 0.631537 
-0.575615 0.437835 0.690628 
-0.63252 0.438344 0.638571 
-0.517457 0.411693 0.750165 
-0.421693 0.38195 0.822368 
-0.166564 0.555447 0.814699 
0.0108591 0.973774 0.227259 
0.0405194 0.82072 -0.569893 
0.285109 0.478476 -0.830526 
0.491728 0.443204 -0.749516 
0.588238 0.40719 -0.698693 
0.645905 0.412887 -0.64213 
0.649545 0.455444 -0.608821 
0.583204 0.475989 -0.658261 
0.589059 0.533167 -0.607241 
0.5737 0.561659 -0.59616 
0.505215 0.550529 -0.664587 
0.438087 0.545625 -0.714404 
0.398965 0.56244 -0.724215 
0.322745 0.494875 -0.806805 
0.269637 0.465522 -0.842962 
0.196208 0.376223 -0.905516 
0.139171 0.291509 -0.94639 
0.0941658 0.214305 -0.972217 
0.0639352 0.154391 -0.985939 
0.0442948 0.11227 -0.99269 
0.0310544 0.079822 -0.996325 
0.0216959 0.053863 -0.998313 
0.0145813 0.0353518 -0.999269 
0.00954242 0.0238871 -0.999669 
0.00587963 0.0180575 -0.99982 
0.00282331 0.0153348 -0.999878 
0.000213424 0.0136701 -0.999907 
-0.00200851 0.0111654 -0.999936 
-0.00369484 0.00712103 -0.999968 
-0.00493442 0.00153283 -0.999987 
-0.0056219 -0.00359535 -0.999978 
-0.00551267 -0.00650372 -0.999964 
-0.00482261 -0.00636829 -0.999968 
-0.0029754 -0.00448749 -0.999986 
-0.00156939 -0.00555228 -0.999983 
0.000719307 -0.0105708 -0.999944 
0.000975487 -0.0201692 -0.999796 
0.000867714 -0.0303889 -0.999538 
0.00125879 -0.0246789 -0.999695 
3.22325e-05 -0.000234967 -1 
0.000120194 -0.000214302 1 
-0.000209044 -0.0269736 0.999636 
-0.000425682 -0.0319203 0.99949 
0.000597266 -0.0226823 0.999743 
0.00204253 -0.0128786 0.999915 
0.00384088 -0.00700542 0.999968 
0.00530975 -0.00572451 0.99997 
0.00613092 -0.00673733 0.999959 
0.00598612 -0.00593337 0.999964 
0.00506496 -0.00208791 0.999985 
0.00376016 0.00336082 0.999987 
0.00137391 0.00963101 0.999953 