# vtk DataFile Version 3.0 
Exported using Morpho https://github.com/Morpho-lang/morpho 
ASCII 
DATASET UNSTRUCTURED_GRID 

POINTS 1978 float 
-8.48215 -2.8242 -2.83216e-06 
-8.26072 -2.82465 -0.000167361 
-8.03513 -2.82387 -9.52063e-05 
-7.77125 -2.82424 -8.55291e-05 
-7.46489 -2.82462 -0.000123408 
-7.20354 -2.82564 -9.69967e-05 
-7.00543 -2.82492 -3.53928e-05 
-6.77139 -2.82417 -3.74551e-05 
-6.55429 -2.82525 -3.46494e-05 
-6.33652 -2.82488 -2.32555e-05 
-6.13269 -2.82555 -2.50642e-05 
-5.93067 -2.82471 -1.56777e-05 
-5.71445 -2.8245 -1.29501e-05 
-5.50973 -2.82515 -1.5e-05 
-5.297 -2.82484 -8.59227e-06 
-5.08503 -2.82467 -5.06886e-06 
-4.86893 -2.82493 -2.13257e-06 
-4.65913 -2.82477 1.94624e-06 
-4.44014 -2.8247 4.75347e-06 
-4.215 -2.82472 8.89448e-06 
-3.99728 -2.82489 1.5259e-05 
-3.7855 -2.82489 2.11963e-05 
-3.57022 -2.82498 2.97508e-05 
-3.36088 -2.82514 3.90915e-05 
-3.14291 -2.82531 5.19821e-05 
-2.93406 -2.82552 6.48328e-05 
-2.72969 -2.82591 8.02742e-05 
-2.53672 -2.82645 0.000103437 
-2.31804 -2.82613 0.000126305 
-2.11304 -2.82732 0.000146425 
-1.89105 -2.82629 0.000167802 
-1.68904 -2.8273 0.000186585 
-1.48892 -2.82737 0.000131918 
-1.27734 -2.82687 5.62639e-05 
-1.10677 -2.82759 6.47639e-05 
-0.83974 -2.82762 2.12769e-05 
-0.618705 -2.82516 -0.000126146 
-0.429916 -2.82336 -0.000176401 
-0.175934 -2.82424 -0.000104046 
0.0271991 -2.82389 7.11095e-05 
0.216383 -2.82258 8.29425e-05 
0.419837 -2.82494 8.77802e-05 
0.635315 -2.82525 8.63033e-05 
0.856999 -2.82717 2.71139e-05 
1.05553 -2.82809 1.2082e-05 
1.25023 -2.8271 -4.66496e-05 
1.44723 -2.82799 -0.000224 
1.69152 -2.82669 -0.000181961 
1.88329 -2.82744 -0.000155613 
2.09819 -2.82699 -0.000162559 
2.32709 -2.82602 -0.000117082 
2.51227 -2.82648 -0.000106853 
2.74277 -2.82526 -8.79004e-05 
2.95712 -2.82576 -6.3345e-05 
3.16492 -2.82539 -4.8568e-05 
3.3684 -2.82507 -4.06884e-05 
3.59197 -2.82503 -2.9066e-05 
3.79466 -2.825 -2.06581e-05 
4.01047 -2.82473 -1.49688e-05 
4.24112 -2.8248 -7.81159e-06 
4.44281 -2.82478 -4.47842e-06 
4.6585 -2.82493 -3.30899e-07 
4.86521 -2.82476 1.82963e-06 
5.07457 -2.82499 5.71011e-06 
5.28736 -2.82479 8.20865e-06 
5.50103 -2.82488 1.03528e-05 
5.7057 -2.82489 1.51071e-05 
5.92406 -2.82483 1.48588e-05 
6.14852 -2.82482 2.11752e-05 
6.34859 -2.82492 2.47876e-05 
6.5857 -2.82459 3.21736e-05 
6.80291 -2.825 4.00561e-05 
7.00006 -2.82533 5.73528e-05 
7.25722 -2.82482 6.66212e-05 
7.48749 -2.82523 5.9552e-05 
7.72418 -2.8246 2.98799e-05 
7.99312 -2.82459 7.84022e-05 
8.18202 -2.82421 0.000172779 
8.48102 -2.82357 4.04892e-05 
-8.48133 -2.58473 9.87255e-05 
-8.24596 -2.57531 6.81728e-05 
-8.01231 -2.57444 -2.83024e-05 
-7.79662 -2.61255 6.36146e-05 
-7.52944 -2.64163 0.000154535 
-7.23612 -2.62124 7.78603e-05 
-6.98654 -2.55888 -2.89219e-05 
-6.78825 -2.59667 1.04595e-05 
-6.55114 -2.586 2.9076e-05 
-6.33069 -2.58421 -9.83755e-07 
-6.11426 -2.57545 5.62051e-06 
-5.89669 -2.58606 9.71553e-06 
-5.68495 -2.57243 2.98984e-06 
-5.46896 -2.5873 -2.19466e-09 
-5.25374 -2.58258 2.44111e-06 
-5.03404 -2.58709 3.1955e-06 
-4.81996 -2.58064 1.6778e-06 
-4.5998 -2.58935 -6.26745e-07 
-4.37481 -2.59396 9.41699e-07 
-4.15463 -2.58523 2.31047e-06 
-3.94208 -2.57835 -1.08403e-06 
-3.72814 -2.58314 -4.23276e-06 
-3.51675 -2.57989 -5.06144e-06 
-3.30039 -2.59453 -5.87955e-06 
-3.08775 -2.59058 -3.21028e-06 
-2.87903 -2.59119 -1.1883e-05 
-2.68068 -2.58327 -7.23788e-06 
-2.4714 -2.61412 -1.99926e-05 
-2.25669 -2.59973 -9.69778e-06 
-2.04462 -2.61278 -2.334e-05 
-1.83173 -2.58315 -2.7495e-05 
-1.62871 -2.57752 -1.0984e-05 
-1.41636 -2.5849 -4.14134e-05 
-1.22839 -2.52188 8.41571e-06 
-1.01216 -2.63566 -8.24733e-05 
-0.793204 -2.5824 2.13287e-06 
-0.60721 -2.49938 -0.000132887 
-0.415563 -2.47309 -2.61478e-05 
-0.229505 -2.56098 -4.2668e-05 
0.00073828 -2.49681 -5.69841e-06 
0.215524 -2.44496 9.05764e-05 
0.411166 -2.50316 9.55952e-05 
0.605357 -2.54731 6.30551e-05 
0.824302 -2.57716 9.29125e-05 
1.04284 -2.56329 4.54495e-05 
1.2621 -2.57649 -1.83862e-05 
1.50691 -2.63465 7.80872e-05 
1.72069 -2.58185 -3.10461e-05 
1.93678 -2.61501 3.48722e-05 
2.16767 -2.62482 4.6574e-05 
2.36665 -2.57066 -1.41886e-05 
2.57874 -2.6172 1.32754e-05 
2.80327 -2.59896 7.82253e-06 
3.01129 -2.59024 9.01891e-06 
3.21605 -2.57848 2.32043e-06 
3.43532 -2.59794 1.10387e-05 
3.64275 -2.57182 2.95299e-06 
3.85612 -2.58547 -8.41491e-07 
4.08473 -2.60053 2.13678e-07 
4.29475 -2.56781 3.71794e-07 
4.51024 -2.58651 1.52664e-06 
4.7224 -2.57789 6.45799e-07 
4.93641 -2.58232 -5.30178e-06 
5.15075 -2.58783 -5.19814e-06 
5.36933 -2.58835 -2.25876e-06 
5.58113 -2.57637 -1.42326e-06 
5.7972 -2.59109 -3.75758e-06 
6.02306 -2.59529 -8.9956e-06 
6.23702 -2.56412 -2.49349e-06 
6.45793 -2.6027 -7.73235e-06 
6.68733 -2.57856 -5.60087e-06 
6.89495 -2.55554 -4.41074e-09 
7.11854 -2.62084 -2.03808e-05 
7.36734 -2.59177 -8.88891e-06 
7.60312 -2.59562 -2.95123e-05 
7.85887 -2.62127 -5.33537e-05 
8.0732 -2.52974 9.22635e-06 
8.3 -2.63552 -0.000102249 
8.48133 -2.51523 -8.93732e-05 
-8.47987 -2.34606 7.12964e-05 
-8.22087 -2.35154 2.26885e-05 
-7.99383 -2.3179 -7.71396e-06 
-7.74277 -2.40808 -2.12995e-06 
-7.55704 -2.24993 8.21428e-05 
-7.4466 -2.45579 -5.60597e-05 
-7.17494 -2.39992 1.99835e-05 
-6.94436 -2.30372 2.62658e-05 
-6.71777 -2.37637 -3.07129e-06 
-6.47717 -2.35168 7.32129e-06 
-6.24527 -2.34272 1.42339e-05 
-6.01882 -2.34496 7.82351e-06 
-5.80484 -2.33752 9.36301e-06 
-5.57605 -2.34336 -4.81706e-07 
-5.36104 -2.34738 1.62839e-06 
-5.13684 -2.3495 5.179e-06 
-4.92248 -2.34 3.66624e-06 
-4.70331 -2.35065 3.1965e-06 
-4.48155 -2.36118 2.40716e-06 
-4.2619 -2.3535 2.22028e-06 
-4.0458 -2.33633 -7.93743e-07 
-3.83103 -2.33799 -2.41999e-06 
-3.61979 -2.33869 1.97672e-07 
-3.40258 -2.35409 -3.15647e-06 
-3.19191 -2.35941 -5.06956e-06 
-2.9789 -2.35972 -9.74789e-06 
-2.77434 -2.34734 -1.32219e-05 
-2.56326 -2.37375 -2.36397e-05 
-2.35836 -2.39229 -2.63469e-05 
-2.12969 -2.3788 -2.92336e-05 
-1.91997 -2.3737 -2.48154e-05 
-1.68578 -2.33411 -2.68045e-05 
-1.46546 -2.34314 -4.1209e-05 
-1.25552 -2.25416 -1.64773e-05 
-1.02733 -2.39014 -8.74051e-05 
-0.825988 -2.30348 -8.79026e-05 
-0.610476 -2.19627 -5.44165e-05 
-0.388993 -2.16879 -6.63748e-05 
-0.17852 -2.23596 7.63045e-05 
0.0427949 -2.16627 -6.14295e-06 
0.234245 -2.04204 0.000162591 
0.4099 -2.17988 -0.000197714 
0.619945 -2.22163 0.00024956 
0.807723 -2.31075 -0.000128534 
1.03759 -2.31747 3.78741e-05 
1.26619 -2.33457 9.77326e-05 
1.48036 -2.41427 5.46586e-06 
1.66326 -2.33582 6.94886e-05 
1.88276 -2.38333 4.20569e-05 
2.09556 -2.41573 -3.20144e-06 
2.30344 -2.34958 3.28603e-05 
2.53231 -2.37495 1.78355e-05 
2.73579 -2.39149 2.08551e-05 
2.96137 -2.35255 1.29882e-05 
3.15889 -2.33793 6.09697e-06 
3.37379 -2.3619 -9.19221e-07 
3.57924 -2.33178 3.72189e-06 
3.79282 -2.33951 2.26898e-06 
4.00994 -2.36866 -1.20638e-06 
4.22059 -2.33108 -1.50021e-06 
4.44275 -2.34122 -2.35746e-06 
4.6526 -2.33631 -1.04226e-06 
4.86754 -2.34267 2.50068e-07 
5.08336 -2.34623 -5.73137e-06 
5.29678 -2.35582 -6.19787e-06 
5.51244 -2.33892 -2.25894e-06 
5.73175 -2.34836 -2.42228e-06 
5.94859 -2.36396 -7.07206e-06 
6.16403 -2.33118 -1.05445e-05 
6.3975 -2.3519 -5.62893e-06 
6.61061 -2.35324 -7.48271e-06 
6.83235 -2.30534 -1.0436e-05 
7.0617 -2.36528 -2.29854e-05 
7.27643 -2.3882 -3.47684e-05 
7.53261 -2.36189 -4.74577e-05 
7.7771 -2.39768 -3.39001e-05 
7.99087 -2.30434 9.39503e-07 
8.25412 -2.36136 -1.57172e-05 
8.48172 -2.27007 -5.12539e-05 
-8.48223 -2.08278 2.93297e-05 
-8.2714 -2.1282 6.76075e-05 
-8.04765 -2.0758 -4.16128e-05 
-7.79567 -2.15145 1.07957e-05 
-7.52637 -2.03219 1.14609e-05 
-7.30417 -2.2247 4.22529e-05 
-7.07686 -2.11954 -1.30945e-05 
-6.79487 -2.11393 -1.55366e-05 
-6.59168 -2.1387 -1.00259e-05 
-6.3522 -2.12145 -8.08352e-06 
-6.12161 -2.10658 -1.17451e-05 
-5.91385 -2.09597 -6.9033e-06 
-5.69217 -2.11723 -8.42329e-06 
-5.47155 -2.10492 -2.78577e-06 
-5.25439 -2.1179 9.68713e-07 
-5.04066 -2.10357 1.7095e-06 
-4.81965 -2.11177 -1.90752e-06 
-4.59889 -2.12607 1.06003e-06 
-4.38214 -2.12395 2.1625e-06 
-4.16821 -2.10726 4.05556e-06 
-3.95043 -2.09715 7.64298e-06 
-3.7384 -2.09796 1.1635e-05 
-3.52219 -2.11367 1.1306e-05 
-3.31213 -2.12176 1.74143e-05 
-3.10203 -2.13041 2.14312e-05 
-2.89658 -2.11981 3.13444e-05 
-2.68119 -2.12977 4.15341e-05 
-2.47609 -2.14818 4.58693e-05 
-2.26464 -2.17618 2.78234e-05 
-2.03732 -2.13559 5.28856e-05 
-1.81823 -2.14272 4.15642e-05 
-1.57089 -2.09716 1.0041e-05 
-1.37275 -2.04441 -7.28142e-05 
-1.15596 -1.93381 6.98426e-05 
-1.05683 -2.12982 -9.13393e-05 
-0.824803 -2.04492 -4.87793e-05 
-0.594165 -1.92006 -2.6181e-05 
-0.366695 -1.87937 -5.82714e-05 
-0.161221 -1.92427 6.9149e-05 
0.0297369 -1.81061 -7.07175e-05 
0.187251 -1.63129 0.000191681 
0.356823 -1.7147 -5.97731e-05 
0.529997 -1.88247 0.000377465 
0.744854 -1.97198 -0.0002886 
0.960087 -2.05584 0.00015343 
1.18707 -2.08501 -2.73728e-05 
1.42884 -2.14447 7.54367e-06 
1.65664 -2.10129 -3.42963e-05 
1.87938 -2.1567 -2.88302e-05 
2.1057 -2.18216 -1.93477e-05 
2.36063 -2.14579 -4.1284e-05 
2.57446 -2.13731 -3.90141e-05 
2.79003 -2.17158 -3.38229e-05 
2.9876 -2.0968 -2.76996e-05 
3.20856 -2.11675 -2.26473e-05 
3.40799 -2.11237 -1.47822e-05 
3.62209 -2.09504 -1.26327e-05 
3.84051 -2.11206 -7.32131e-06 
4.04304 -2.11965 -5.64409e-06 
4.27065 -2.1028 -4.23399e-06 
4.48048 -2.09744 -1.19061e-06 
4.6976 -2.10089 -1.18639e-06 
4.91303 -2.10921 1.12609e-06 
5.1276 -2.10965 1.48671e-06 
5.33981 -2.1187 1.18839e-06 
5.56386 -2.10954 3.88394e-06 
5.78224 -2.1156 8.6527e-06 
5.99258 -2.11859 5.78621e-06 
6.23304 -2.11373 4.66854e-06 
6.44757 -2.10359 7.81063e-06 
6.65978 -2.10283 1.38876e-05 
6.91374 -2.09518 2.16899e-05 
7.12666 -2.12456 7.63519e-06 
7.35279 -2.17014 -1.30873e-05 
7.5434 -2.07483 5.65666e-06 
7.72984 -2.16479 -2.52214e-05 
7.94857 -2.07268 5.42377e-05 
8.20055 -2.13819 -3.0156e-06 
8.48149 -2.07069 -3.51782e-05 
-8.48051 -1.79315 4.34524e-05 
-8.28365 -1.8696 -1.47876e-05 
-7.88156 -1.9022 -6.62374e-05 
-7.66585 -1.87998 -2.57333e-05 
[...]
POINT_DATA 1978 
VECTORS vectors float
0.0844811 -0.113245 0.989955 
0.0930338 -0.100294 0.990588 
0.0948648 -0.0996372 0.990731 
0.0899789 -0.0949861 0.991455 
0.0910892 -0.075846 0.992984 
0.0914204 -0.0577651 0.99421 
0.0908484 -0.0480272 0.994783 
0.0922169 -0.0402793 0.994968 
0.0953818 -0.0346347 0.99478 
0.095026 -0.02815 0.995297 
0.096741 -0.0234645 0.994982 
0.095239 -0.0201889 0.995292 
0.0952347 -0.0167872 0.995363 
0.0958901 -0.0131169 0.99535 
0.0963601 -0.0107577 0.995323 
0.0964006 -0.00911435 0.99534 
0.096137 -0.0067813 0.995385 
0.0959534 -0.00422608 0.995418 
0.0954038 -0.00106387 0.995471 
0.0948914 0.00275046 0.995523 
0.0943274 0.00737583 0.995571 
0.0934481 0.0133329 0.9956 
0.0923312 0.0210285 0.995578 
0.0909848 0.0303877 0.995464 
0.0891307 0.0428377 0.995179 
0.0869211 0.0579595 0.99463 
0.0840572 0.076793 0.993621 
0.0807177 0.0996056 0.991881 
0.075315 0.132152 0.988515 
0.0696134 0.17149 0.982902 
0.0622788 0.224592 0.972685 
0.0541328 0.284023 0.957547 
0.0431185 0.360109 0.932187 
0.0312538 0.45598 0.88974 
0.0239209 0.539687 0.841796 
0.0104551 0.685766 0.727912 
0.000888341 0.809032 0.58785 
-0.00207558 0.899207 0.437626 
-0.00386489 0.982906 0.183658 
-0.000346081 0.999528 -0.0275278 
0.00201416 0.972167 -0.233757 
0.0014842 0.903202 -0.429145 
-0.00337234 0.800286 -0.599732 
-0.011781 0.677922 -0.735262 
-0.0204338 0.566848 -0.823647 
-0.0300945 0.463374 -0.885944 
-0.0430301 0.373613 -0.926838 
-0.0549021 0.284886 -0.957224 
-0.0619099 0.228209 -0.971862 
-0.0688861 0.174739 -0.982369 
-0.0754944 0.131696 -0.988572 
-0.079941 0.10291 -0.991613 
-0.0840223 0.0758519 -0.993677 
-0.0870419 0.0569347 -0.994673 
-0.0892459 0.0418551 -0.995224 
-0.0910738 0.0302354 -0.995462 
-0.0925297 0.0205319 -0.995565 
-0.0937165 0.013468 -0.995576 
-0.0942487 0.00745913 -0.995562 
-0.0951889 0.00292294 -0.9955 
-0.0957901 -0.000641118 -0.995457 
-0.0960729 -0.00412196 -0.995412 
-0.0962563 -0.00677599 -0.995382 
-0.0962559 -0.0094697 -0.995352 
-0.0962211 -0.0117345 -0.995326 
-0.096057 -0.0140371 -0.995321 
-0.0958669 -0.0171436 -0.995291 
-0.095248 -0.0205012 -0.995276 
-0.0950651 -0.0243953 -0.995228 
-0.0948291 -0.0285529 -0.995138 
-0.0937287 -0.0340743 -0.995066 
-0.0926895 -0.0405215 -0.994959 
-0.0918664 -0.0488441 -0.994639 
-0.0890083 -0.0631094 -0.994091 
-0.0867951 -0.0790924 -0.993181 
-0.0867595 -0.0980031 -0.991489 
-0.0959225 -0.105816 -0.989854 
-0.0963467 -0.10496 -0.989878 
-0.0849249 -0.112212 -0.989924 
0.0598545 -0.115012 0.991495 
0.0658729 -0.102163 0.99354 
0.0712079 -0.0932781 0.993785 
0.0684612 -0.0874362 0.994611 
0.0675816 -0.0781407 0.99545 
0.0718335 -0.0618502 0.996289 
0.0732971 -0.0482298 0.996924 
0.0739141 -0.0404444 0.997205 
0.0739717 -0.0344409 0.997532 
0.0763528 -0.0280333 0.997318 
0.0746008 -0.0226822 0.997793 
0.0774046 -0.0196912 0.997531 
0.0774624 -0.0163307 0.997591 
0.078069 -0.0127808 0.997583 
0.0783063 -0.0102474 0.997598 
0.0783211 -0.00805059 0.997617 
0.0780446 -0.00556542 0.997657 
0.0782576 -0.00261092 0.997656 
0.0780107 0.000857859 0.997682 
0.076848 0.00502852 0.997765 
0.0756348 0.0102315 0.997823 
0.0746808 0.01676 0.997809 
0.0736184 0.0249884 0.997716 
0.0726436 0.0356295 0.99746 
0.0705387 0.0490291 0.99704 
0.0675067 0.0656923 0.996289 
0.0643654 0.0860096 0.994954 
0.0618693 0.112655 0.992459 
0.0563485 0.148362 0.988106 
0.0511124 0.192036 0.980866 
0.0424581 0.247764 0.968741 
0.0351506 0.313426 0.949838 
0.026651 0.396817 0.918397 
0.0182128 0.488079 0.873433 
0.0130373 0.597756 0.802154 
0.00562265 0.718226 0.696428 
0.000640171 0.818984 0.574275 
-0.00156504 0.90821 0.418599 
-0.00267269 0.970394 0.240538 
-0.00208963 0.999684 -0.0012373 
-0.00199626 0.972845 -0.230592 
-0.00276103 0.907363 -0.420462 
-0.00438807 0.818151 -0.575471 
-0.00863881 0.702487 -0.712106 
-0.0145752 0.579159 -0.81605 
-0.0228159 0.464798 -0.886121 
-0.0340674 0.355482 -0.934757 
-0.0400773 0.282245 -0.959491 
-0.048103 0.219194 -0.975295 
-0.0548865 0.165107 -0.985533 
-0.0583988 0.129887 -0.990591 
-0.0645874 0.0977606 -0.993875 
-0.0672847 0.0731648 -0.9958 
-0.0694957 0.0552405 -0.996793 
-0.0711137 0.0408758 -0.997377 
-0.0733424 0.0288246 -0.99763 
-0.074058 0.020259 -0.99779 
-0.0758559 0.0128821 -0.997775 
-0.0770122 0.00694687 -0.997738 
-0.0766415 0.00285462 -0.997788 
-0.0774058 -0.00107497 -0.997724 
-0.0774524 -0.00426457 -0.997706 
-0.0778947 -0.00712423 -0.997651 
-0.0783566 -0.0097759 -0.997588 
-0.0781989 -0.0122178 -0.997575 
-0.0776775 -0.0149248 -0.997585 
-0.0780886 -0.0181716 -0.997503 
-0.0776732 -0.0217781 -0.997472 
-0.0762138 -0.0259447 -0.9975 
-0.0769536 -0.0309487 -0.997309 
-0.0745884 -0.0372589 -0.997286 
-0.0728519 -0.0452376 -0.997097 
-0.0739656 -0.0560238 -0.996469 
-0.0710752 -0.0703539 -0.995791 
-0.0698799 -0.0843796 -0.994778 
-0.0725334 -0.0947552 -0.993519 
-0.069163 -0.0982143 -0.993703 
-0.0718351 -0.109759 -0.992044 
-0.0578971 -0.11621 -0.991519 
0.0503526 -0.116661 0.992082 
0.0546443 -0.100934 0.994226 
0.0532826 -0.0821679 0.995959 
0.0603121 -0.0818977 0.995589 
0.0547348 -0.0790383 0.99597 
0.0661025 -0.0741996 0.995843 
0.0620874 -0.0590368 0.997081 
0.061289 -0.0475453 0.997712 
0.0659834 -0.0381634 0.997803 
0.0652774 -0.0313969 0.99807 
0.0651724 -0.0258958 0.998217 
0.06796 -0.0216437 0.998121 
0.0675783 -0.0178628 0.998218 
0.0680253 -0.0140633 0.998243 
0.0684798 -0.0112505 0.998245 
0.0686146 -0.00878748 0.99826 
0.068389 -0.00635321 0.998293 
0.06828 -0.00350755 0.998315 
0.0681535 -9.62623e-05 0.998337 
0.0673156 0.00397437 0.998391 
0.0661004 0.00886314 0.998444 
0.0652928 0.0147902 0.998431 
0.0640831 0.0221955 0.998373 
0.0630666 0.0319503 0.998177 
0.0614376 0.0440815 0.997818 
0.0593023 0.0596549 0.997141 
0.056014 0.0787378 0.996014 
0.0525502 0.103483 0.993956 
0.0488617 0.134166 0.990495 
0.0427884 0.177926 0.983905 
0.0367377 0.227982 0.9738 
0.0286223 0.299733 0.954464 
0.0216121 0.384057 0.923943 
0.0138661 0.48251 0.876649 
0.00897927 0.595604 0.804045 
0.00412939 0.702877 0.712002 
0.001298 0.819752 0.573161 
0.000203306 0.92054 0.390686 
-0.000227912 0.98157 0.190131 
-0.00113182 0.99887 -0.0415012 
-0.00226906 0.969887 -0.24283 
-0.00415761 0.910282 -0.413808 
-0.00582086 0.8106 -0.586358 
-0.00837991 0.710545 -0.704266 
-0.0124853 0.583757 -0.812655 
-0.0177884 0.468481 -0.883999 
-0.0256494 0.372561 -0.928526 
-0.0284452 0.307793 -0.951893 
-0.0361199 0.239165 -0.971129 
-0.0437069 0.184733 -0.982474 
-0.0463008 0.143774 -0.989285 
-0.0521513 0.107556 -0.993574 
-0.05635 0.0827238 -0.995692 
-0.0584376 0.061646 -0.99708 
-0.0604737 0.0467569 -0.997759 
-0.063047 0.0336785 -0.998122 
-0.0635249 0.02425 -0.99836 
-0.065085 0.0163126 -0.998417 
-0.0671168 0.00987424 -0.998368 
-0.066599 0.00519329 -0.99843 
-0.0676228 0.000850656 -0.998369 
-0.0680486 -0.00258759 -0.998332 
-0.0684479 -0.00568532 -0.998286 
-0.0687768 -0.00849432 -0.998242 
-0.0689055 -0.0111051 -0.998206 
-0.0681679 -0.0137514 -0.998225 
-0.068094 -0.0167998 -0.998191 
-0.0682227 -0.0203148 -0.998128 
-0.066484 -0.0243081 -0.998162 
-0.0661864 -0.0295247 -0.998058 
-0.0651429 -0.0352202 -0.997956 
-0.0626205 -0.0430303 -0.997817 
-0.0623648 -0.0536201 -0.997339 
-0.061596 -0.0655927 -0.996685 
-0.0588333 -0.0794324 -0.995952 
-0.0596975 -0.086314 -0.99523 
-0.0547407 -0.0859765 -0.995519 
-0.0575625 -0.104722 -0.993646 
-0.0537087 -0.119861 -0.991408 
0.0436896 -0.111249 0.992813 
0.0454175 -0.101507 0.994473 
0.0486256 -0.0844737 0.996138 
0.0524752 -0.0802684 0.996212 
0.055457 -0.0787064 0.996061 
0.0569494 -0.0667897 0.996867 
0.0606131 -0.0548131 0.997483 
0.0633247 -0.0418872 0.997804 
0.0652787 -0.0346829 0.997948 
0.0660451 -0.0282732 0.998079 
0.0683141 -0.023217 0.998061 
0.0683851 -0.0192117 0.998128 
0.0687315 -0.0155498 0.998158 
0.0690721 -0.0125487 0.998177 
0.0693959 -0.0100167 0.998182 
0.0695678 -0.00751319 0.998191 
0.0693533 -0.0046283 0.998222 
0.068892 -0.00131694 0.998266 
0.0682911 0.00251839 0.998311 
0.0674129 0.00700422 0.998354 
0.0664245 0.0124921 0.998371 
0.065434 0.019191 0.998331 
0.0640235 0.0278507 0.99822 
0.0625391 0.0386478 0.997957 
0.0607351 0.0523237 0.997452 
0.0582576 0.0693431 0.996573 
0.0548529 0.0917761 0.994974 
0.0504638 0.119058 0.992337 
0.0448929 0.154334 0.987772 
0.038456 0.203485 0.979152 
0.0316794 0.262305 0.965328 
0.0233336 0.350422 0.937198 
0.0165549 0.433806 0.901942 
0.0109729 0.536251 0.844652 
0.00891369 0.581992 0.814145 
0.00483677 0.707537 0.707328 
0.00170811 0.830004 0.558215 
5.70738e-05 0.928846 0.370257 
-0.000364842 0.984848 0.17245 
-0.00271775 0.999205 -0.0325853 
-0.00385478 0.979321 -0.200314 
-0.00363 0.931501 -0.363987 
-0.00358556 0.858211 -0.513893 
-0.006895 0.748327 -0.663726 
-0.0100568 0.631112 -0.776494 
-0.0149807 0.510972 -0.860529 
-0.0210852 0.400258 -0.917226 
-0.0278295 0.316362 -0.948959 
-0.0340463 0.245189 -0.969722 
-0.0403332 0.187129 -0.98244 
-0.0472163 0.137463 -0.990142 
-0.052044 0.105353 -0.993806 
-0.0564438 0.0793163 -0.995948 
-0.0587982 0.0617756 -0.997048 
-0.0615465 0.0452972 -0.997748 
-0.0634376 0.0336876 -0.998083 
-0.0647412 0.0239439 -0.998275 
-0.0660187 0.0159589 -0.998345 
-0.0669479 0.0101625 -0.998356 
-0.067854 0.00500963 -0.998331 
-0.0687594 0.000992102 -0.998278 
-0.0692843 -0.00268575 -0.998236 
-0.0696798 -0.00592544 -0.99819 
-0.0697459 -0.0087878 -0.998164 
-0.0697016 -0.0114193 -0.998138 
-0.0692882 -0.014206 -0.998135 
-0.0688051 -0.01733 -0.998126 
-0.0682164 -0.0208907 -0.998105 
-0.0672332 -0.0256188 -0.998073 
-0.0662693 -0.0307589 -0.998007 
-0.064844 -0.0370568 -0.997894 
-0.0631541 -0.0469512 -0.997597 
-0.0613954 -0.0578509 -0.997146 
-0.0592077 -0.0709076 -0.996324 
-0.0577418 -0.0804276 -0.995787 
-0.0560544 -0.0838143 -0.995587 
-0.0527144 -0.0811814 -0.996006 
-0.050402 -0.0957622 -0.994939 
-0.0471986 -0.115797 -0.992238 
0.034867 -0.111783 0.993094 
0.0400564 -0.099934 0.994988 
0.049944 -0.0787421 0.996237 
0.0526526 -0.0813205 0.995994 
0.0515334 -0.0749174 0.996704 
0.0582586 -0.0675812 0.99663 
0.0565352 -0.0589153 0.997401 
0.0608031 -0.0481157 0.997702 
0.0607187 -0.0386482 0.998112 
0.0633492 -0.031909 0.998174 
0.0634544 -0.0259144 0.998333 
0.0629561 -0.0214924 0.998474 
0.0636635 -0.0175362 0.998488 
0.0645577 -0.0143205 0.99848 
0.0646385 -0.0115159 0.998512 
0.064713 -0.00904612 0.998529 
0.0650695 -0.00613813 0.998525 
0.0651705 -0.00282255 0.998535 
0.0648246 0.000801527 0.998563 
0.0636644 0.00487334 0.998629 
0.0623392 0.00974881 0.998679 
0.0610015 0.0157943 0.998684 
0.0601766 0.0233273 0.998587 
0.0591191 0.0326339 0.998391 
0.0577456 0.0443091 0.998028 
0.0556612 0.0587003 0.997418 
0.052979 0.0778044 0.99628 
0.0493978 0.101797 0.994331 
0.045603 0.132201 0.990964 
0.0405992 0.171745 0.985139 
0.0326882 0.229946 0.973538 
0.0268149 0.295376 0.95575 
0.0185841 0.373338 0.92843 
0.0122512 0.466336 0.885423 
0.00550781 0.658317 0.753469 
0.00189309 0.779037 0.627563 
-0.000842351 0.907183 0.420769 
-0.00383141 0.949484 0.313098 
-0.00392342 0.983972 0.177261 
-0.00546058 0.999773 -0.00869845 
-0.00367578 0.988384 -0.15246 
-0.00489134 0.931339 -0.363172 
-0.00420673 0.838946 -0.544614 
-0.00486885 0.715057 -0.699792 
-0.00817959 0.610974 -0.792492 
-0.0105407 0.52751 -0.850407 
-0.0171027 0.442838 -0.897198 
-0.0229197 0.354035 -0.935875 
-0.0296635 0.27078 -0.963084 
-0.0361155 0.212618 -0.977322 
-0.042395 0.161998 -0.986694 
-0.04682 0.121409 -0.992276 
-0.0519892 0.0902406 -0.995303 
-0.0530779 0.0719453 -0.996719 
-0.0564535 0.0523315 -0.997734 
-0.0576642 0.0388427 -0.998269 
-0.0594012 0.0284301 -0.998511 
-0.06119 0.0194187 -0.998612 
-0.0618717 0.0127634 -0.998674 
-0.0634589 0.00746691 -0.998625 
-0.063084 0.00285165 -0.998673 
-0.0640724 -0.00106572 -0.998613 
-0.064521 -0.00467593 -0.998573 
-0.0648372 -0.00774982 -0.998531 
-0.0649575 -0.0105537 -0.998496 
-0.0652002 -0.0131698 -0.998449 
-0.064519 -0.0162214 -0.998454 
-0.0640181 -0.0197066 -0.998428 
-0.0642609 -0.0238638 -0.998331 
-0.0621041 -0.0290487 -0.998344 
-0.0608972 -0.0351764 -0.998231 
-0.0609416 -0.0431984 -0.997918 
-0.0583675 -0.0551544 -0.997608 
-0.0581136 -0.0677832 -0.996732 
-0.0545341 -0.0801599 -0.99601 
-0.0528817 -0.0837214 -0.99577 
-0.0470497 -0.0830062 -0.996158 
-0.044644 -0.0963864 -0.995151 
-0.0371068 -0.113372 -0.992907 
0.025659 -0.115423 0.993007 
0.0317737 -0.101992 0.995078 
0.0416163 -0.0902891 0.995849 
0.0413344 -0.080394 0.996607 
0.0445259 -0.0834128 0.996127 
0.046328 -0.0683563 0.997335 
0.049104 -0.0527797 0.998132 
0.0513999 -0.0437886 0.998438 
0.0517386 -0.0341566 0.998785 
0.0536274 -0.0284725 0.998861 
0.0514065 -0.0236339 0.999092 
0.0517367 -0.0190103 0.999169 
0.0528857 -0.0156684 0.999155 
0.0535608 -0.012835 0.999158 
0.052315 -0.010232 0.999252 
0.0535954 -0.00739467 0.999207 
0.0539599 -0.0040187 0.999209 
0.0532076 -0.000339259 0.999258 
0.0520597 0.00359209 0.999312 
0.0512314 0.00814729 0.999329 
0.0501094 0.013792 0.999321 
0.0491872 0.0210965 0.999241 
0.0484262 0.029964 0.999053 
0.0474901 0.0410456 0.998711 
0.0457035 0.0548109 0.998148 
0.043936 0.0725143 0.997126 
0.0405691 0.0955365 0.995363 
0.0372867 0.125593 0.992193 
0.0342168 0.163092 0.986871 
0.0292394 0.212814 0.977559 
0.0210808 0.292604 0.957103 
0.0135577 0.382443 0.924824 
0.00836841 0.482339 0.876846 
0.00451192 0.583914 0.812605 
0.00637741 0.580012 0.815398 
0.00237096 0.70207 0.712795 
-2.85959e-05 0.841926 0.540017 
-0.000303521 0.872703 0.487872 
-0.00280141 0.992573 0.120123 
0.00254835 0.999451 0.0232077 
0.000546582 0.994958 -0.0978851 
-0.000117553 0.948605 -0.315411 
-0.00331231 0.853415 -0.522286 
-0.00364273 0.755013 -0.656222 
-0.00332767 0.641289 -0.768324 
-0.00750404 0.513952 -0.858518 
-0.0138645 0.409881 -0.913121 
-0.0202436 0.318998 -0.94846 
-0.0252568 0.248215 -0.969284 
-0.0322515 0.194317 -0.981137 
-0.0365065 0.150194 -0.988951 
-0.0411879 0.108545 -0.994012 
-0.0405067 0.0877782 -0.996066 
-0.0452039 0.0655889 -0.99754 
-0.0461101 0.0493617 -0.998414 
-0.0466236 0.0365375 -0.99893 
-0.0494468 0.0259696 -0.999118 
-0.0500279 0.0180175 -0.99926 
-0.0505453 0.0115472 -0.999327 
-0.0524637 0.00639024 -0.999275 
-0.0513289 0.00183475 -0.999354 
-0.0526677 -0.00211386 -0.999282 
-0.0524022 -0.00561957 -0.999285 
-0.0530517 -0.0087515 -0.999225 
-0.0528243 -0.0114991 -0.999211 
-0.0538085 -0.014198 -0.999126 
-0.0526177 -0.017256 -0.999144 
-0.0525362 -0.0209594 -0.999085 
-0.0530877 -0.025202 -0.998969 
-0.0501586 -0.0306045 -0.99898 
-0.050096 -0.0377425 -0.998746 
-0.0515143 -0.0468448 -0.998183 
-0.0474276 -0.0577533 -0.997938 
-0.0495336 -0.0693753 -0.997104 
-0.045067 -0.0818921 -0.996352 
-0.0451145 -0.0849309 -0.996067 
-0.0390852 -0.0834601 -0.996466 
-0.0359415 -0.100118 -0.995133 
-0.0279817 -0.115681 -0.992942 
0.0187052 -0.117662 0.992923 
0.0227403 -0.100859 0.995441 
0.0328296 -0.0848326 0.996603 
0.0330422 -0.0849502 0.996652 
0.0385163 -0.0810134 0.996708 
0.0342146 -0.070993 0.997622 
0.0391022 -0.0586488 0.998121 
0.036839 -0.046587 0.999053 
0.0415772 -0.0384843 0.99899 
0.039478 -0.0310886 0.999437 
0.0393996 -0.0262068 0.999574 
0.0405866 -0.0213121 0.999622 
0.0392474 -0.0173869 0.999748 
0.0410316 -0.0145249 0.999712 
0.0406458 -0.0119694 0.999759 
0.0400889 -0.00909751 0.999813 
0.0414208 -0.00596237 0.999784 
0.0409081 -0.00240094 0.99982 
0.0396118 0.00142551 0.999873 
0.0389465 0.00565015 0.999883 
0.0385152 0.0106134 0.999856 
0.037996 0.0169525 0.999789 
0.0370448 0.0247704 0.999664 
0.0365257 0.034451 0.999402 
0.0354561 0.046344 0.998975 
0.0341636 0.0618816 0.998206 
0.0321934 0.0815751 0.996896 
0.0293873 0.108544 0.994456 
0.0263424 0.14358 0.990148 
0.0236381 0.186748 0.983032 
0.0197001 0.252406 0.968386 
0.0124014 0.341573 0.94077 
0.00678433 0.458253 0.889773 
0.00295915 0.572365 0.820877 
0.000892131 0.740792 0.672991 
-0.000725083 0.831495 0.554945 
0.000700741 0.921168 0.390409 
0.00493646 0.944225 0.330247 
-0.000211468 0.973786 0.226982 
0.00395431 0.984865 0.168932 
0.00543968 0.996957 -0.0742094 
-0.000295265 0.978427 -0.208717 
0.000375724 0.887572 -0.45922 
-0.00141694 0.787992 -0.617907 
-0.00349942 0.708722 -0.706231 
-0.00397058 0.567949 -0.824015 
-0.00664113 0.443113 -0.897595 
-0.0121257 0.353372 -0.93617 
-0.0169934 0.271139 -0.963334 
-0.022749 0.202507 -0.980072 
-0.026046 0.158613 -0.987704 
-0.0313959 0.125655 -0.992248 
-0.0283613 0.101395 -0.995208 
-0.0330656 0.0767402 -0.997228 
-0.03455 0.0584441 -0.998391 
-0.0350315 0.0435925 -0.999115 
-0.0368941 0.0311516 -0.999502 
-0.0377065 0.0222707 -0.999703 
-0.0383208 0.0148921 -0.999812 
-0.0391392 0.00878971 -0.999855 
-0.0399804 0.00415293 -0.999854 
-0.0397725 -0.000449094 -0.999872 
-0.0398773 -0.0041839 -0.999861 
-0.0403269 -0.00775291 -0.999821 
-0.0402121 -0.0107391 -0.999799 
-0.040753 -0.0135113 -0.999745 
-0.0404694 -0.016252 -0.999718 
-0.0403656 -0.0197367 -0.999665 
-0.0403398 -0.023996 -0.999583 
-0.0392682 -0.0288284 -0.999509 
-0.0385944 -0.0359557 -0.999422 
-0.0399269 -0.0453403 -0.998893 
-0.0374185 -0.0581813 -0.998334 
-0.0379501 -0.0730824 -0.997343 
-0.0336264 -0.0844955 -0.996576 
-0.0352035 -0.0862369 -0.996345 
-0.029461 -0.0840857 -0.996731 
-0.0280978 -0.0983749 -0.995561 
-0.020686 -0.117195 -0.992938 
0.0147179 -0.118064 0.992923 
0.0168037 -0.101246 0.995511 
0.0255312 -0.084071 0.996849 
0.0236979 -0.0877884 0.996539 
0.0292771 -0.0847751 0.996686 
0.0262868 -0.0728764 0.997722 
0.0290673 -0.0563966 0.998698 
0.027158 -0.044493 0.99934 
0.0309015 -0.0365933 0.999547 
0.0277854 -0.0303729 0.99984 
0.0298192 -0.0247369 0.999923 
0.030406 -0.020332 0.999988 
0.028744 -0.0167859 1.0002 
0.0303375 -0.0141158 1.00008 
0.0303814 -0.0114039 1.00002 
0.0295989 -0.00826158 1.00027 
0.0304323 -0.00489764 1.00007 
0.0294152 -0.00119576 1.00021 
0.0284761 0.00289186 1.00034 
0.0284157 0.00756776 1.00011 
0.0282015 0.0132304 1.00025 
0.02764 0.0203506 1.00005 
0.0271037 0.0292982 0.999849 
0.026422 0.0401912 0.999502 
0.0257245 0.0540222 0.998892 
0.0242786 0.0718363 0.997842 
0.0225908 0.0952575 0.995971 
0.0201618 0.126893 0.992546 
0.0173703 0.168471 0.986455 
0.0159069 0.220417 0.97606 
0.0118704 0.287352 0.958745 
0.007296 0.389401 0.922053 
0.00397956 0.495608 0.869702 
0.00106554 0.619415 0.785658 
0.000851673 0.683242 0.730956 
0.00199932 0.845316 0.533543 
0.00790753 0.951608 0.306752 
0.0104621 0.995358 0.0947779 
0.0102846 0.998372 0.0569443 
0.00551101 0.999596 -0.0029722 
0.00375435 0.998357 -0.066316 
0.00263276 0.996653 -0.0830059 
-0.00386279 0.944231 -0.328211 
-0.00143037 0.840348 -0.541591 
-0.00352608 0.605419 -0.796785 
-0.00247904 0.529185 -0.84914 
-0.0040345 0.478957 -0.878789 
-0.0054715 0.404075 -0.915533 
-0.00984477 0.311636 -0.95134 
-0.0145481 0.2314 -0.97371 
-0.0173761 0.173639 -0.985544 
-0.0211758 0.130629 -0.992161 
-0.0218648 0.0932145 -0.996276 
-0.024765 0.0719604 -0.997695 
-0.0257009 0.0540583 -0.998891 
-0.0269073 0.0387298 -0.999553 
-0.027139 0.0280485 -0.999891 
-0.0279178 0.019436 -1.00006 
-0.0286752 0.0123971 -1.00015 
-0.0285206 0.00694481 -1.00031 
-0.0302139 0.00232999 -1.00009 
-0.0289265 -0.00180068 -1.00033 
-0.0296797 -0.00567526 -1.00019 
-0.0294423 -0.00904099 -1.00018 
-0.0298537 -0.0120086 -1.00013 
-0.029591 -0.0145815 -1.00011 
-0.0301065 -0.0174481 -1.00005 
-0.0299474 -0.0209957 -0.999995 
-0.0291558 -0.0253011 -0.999926 
-0.0296572 -0.0311298 -0.999766 
-0.0282187 -0.0384289 -0.999445 
-0.030387 -0.046683 -0.999154 
-0.0271571 -0.0573122 -0.998706 
-0.0289997 -0.0705021 -0.997825 
-0.0254981 -0.0837307 -0.996882 
-0.0253515 -0.0880209 -0.996481 
-0.0215326 -0.0870487 -0.996675 
-0.0205377 -0.102026 -0.995364 
-0.0160315 -0.117865 -0.992926 
0.0126766 -0.121764 0.992396 
0.0134922 -0.0989142 0.99588 
0.0178141 -0.0874806 0.996704 
0.0175374 -0.09026 0.99644 
0.0215404 -0.0848778 0.99687 
0.0183575 -0.0727955 0.997893 
0.0216456 -0.0597523 0.998687 
0.0199539 -0.0475236 0.999367 
0.0212902 -0.0367249 0.999788 
0.0201483 -0.0289731 1.00015 