# vtk DataFile Version 3.0 
Exported using Morpho https://github.com/Morpho-lang/morpho 
ASCII 
DATASET UNSTRUCTURED_GRID 

POINTS 1978 float 
-12.0002 -4.0003 -3.4591e-08 
-11.5959 -4.00117 -5.85946e-07 
-11.2914 -4.00053 -6.20768e-07 
-10.95 -4.00082 -5.6182e-07 
-10.6353 -4.00086 -2.95973e-07 
-10.3021 -4.00075 -3.23583e-07 
-9.97994 -4.00079 -6.97684e-08 
-9.65451 -4.00061 -3.64877e-07 
-9.30544 -4.00081 -6.91614e-08 
-8.99038 -4.00079 -2.09959e-08 
-8.68584 -4.00074 -1.4187e-07 
-8.37242 -4.00074 -1.52643e-07 
-8.0729 -4.0007 -3.5662e-08 
-7.77 -4.00067 -6.32578e-08 
-7.47376 -4.00059 4.714e-08 
-7.18692 -4.00084 2.60321e-08 
-6.90035 -4.00066 -1.52141e-07 
-6.5881 -4.00074 -3.37049e-08 
-6.28628 -4.00072 -1.97909e-08 
-5.97988 -4.00072 -1.70193e-08 
-5.68057 -4.00072 7.69748e-09 
-5.37914 -4.00065 3.74996e-08 
-5.0839 -4.00072 5.21585e-08 
-4.80143 -4.00082 -1.65995e-08 
-4.48978 -4.00072 3.2736e-07 
-4.20687 -4.00072 5.30445e-08 
-3.90618 -4.00081 2.59329e-07 
-3.58765 -4.00069 3.85701e-07 
-3.26808 -4.00058 4.84099e-07 
-2.92373 -4.00033 8.14298e-07 
-2.59825 -4.00066 3.91666e-07 
-2.28059 -4.00057 8.35588e-07 
-1.97765 -4.00057 2.09125e-06 
-1.7146 -3.9997 1.14752e-05 
-1.49797 -4.00116 4.41491e-05 
-1.29001 -3.99847 0.000143589 
-1.12387 -3.99862 0.000344586 
-0.939864 -3.99756 0.00175295 
-0.557954 -3.99527 0.0069112 
-0.348598 -4.00192 0.0176791 
0.607167 -4.00193 -0.00757338 
0.948629 -3.99297 -0.0015636 
1.10696 -3.99991 -0.000464256 
1.26203 -4.00016 -0.000183134 
1.44358 -3.99965 -7.24335e-05 
1.67507 -4.00035 -1.47111e-05 
1.97815 -4.00054 -1.81276e-06 
2.30287 -4.00072 -1.13329e-06 
2.65303 -4.00021 -7.04208e-07 
2.98113 -4.00067 -4.85663e-07 
3.3048 -4.00054 -4.16831e-07 
3.6051 -4.0008 -3.88683e-07 
3.90061 -4.00063 -2.09724e-07 
4.21153 -4.00076 -2.2073e-07 
4.51229 -4.00075 -1.15526e-07 
4.80488 -4.00079 -1.04825e-07 
5.10864 -4.00075 -8.1378e-08 
5.40869 -4.0008 -1.99869e-08 
5.71028 -4.00059 -1.29591e-08 
6.00529 -4.00075 6.10671e-09 
6.29672 -4.00068 2.46491e-08 
6.59587 -4.00066 2.47232e-08 
6.89655 -4.00066 7.96845e-09 
7.17362 -4.00065 3.86556e-08 
7.47567 -4.00071 -7.25055e-09 
7.76921 -4.00067 1.16943e-07 
8.06995 -4.00065 -4.50178e-08 
8.36174 -4.00091 5.62236e-08 
8.6588 -4.00059 2.98419e-07 
8.93822 -4.00072 -9.2078e-08 
9.28057 -4.00102 2.62579e-07 
9.60827 -4.00042 2.00827e-07 
9.90108 -4.00085 2.51477e-08 
10.2673 -4.00087 4.81021e-07 
10.5808 -4.00071 2.84014e-07 
10.9808 -4.00093 5.62367e-07 
11.2993 -4.00049 5.43665e-07 
11.5931 -4.00111 5.81501e-07 
12.0004 -4.00028 4.15614e-08 
-12.0012 -3.61334 8.09144e-07 
-11.7095 -3.71864 -1.9247e-07 
-11.3592 -3.63128 1.27973e-07 
-11.0436 -3.6739 1.29565e-07 
-10.7106 -3.65022 6.05211e-08 
-10.3927 -3.67263 -5.28758e-08 
-10.0601 -3.66443 5.98243e-08 
-9.73539 -3.67009 2.62111e-07 
-9.39878 -3.69611 6.27804e-09 
-9.05765 -3.66831 -7.65985e-08 
-8.74339 -3.66118 -3.39982e-08 
-8.43403 -3.67451 8.40968e-08 
-8.11975 -3.66167 9.3489e-08 
-7.81589 -3.66728 5.95522e-08 
-7.50895 -3.65971 -1.63684e-07 
-7.20839 -3.65129 1.33993e-07 
-6.8905 -3.68046 4.84162e-08 
-6.58198 -3.67063 3.34402e-08 
-6.26814 -3.677 4.65465e-08 
-5.96044 -3.67054 3.17867e-08 
-5.65032 -3.67445 3.5344e-08 
-5.3447 -3.66837 9.68479e-08 
-5.05166 -3.65553 -6.52683e-08 
-4.73664 -3.68916 1.80643e-07 
-4.43898 -3.65389 -2.8787e-07 
-4.13138 -3.66953 3.90565e-08 
-3.80793 -3.67638 9.14746e-08 
-3.48144 -3.65904 4.45334e-08 
-3.13987 -3.67184 1.11509e-07 
-2.8007 -3.6508 -2.31221e-07 
-2.47764 -3.66302 1.13299e-06 
-2.16253 -3.67997 -7.64153e-07 
-1.87339 -3.68023 -4.99403e-06 
-1.61985 -3.67858 -2.13517e-05 
-1.41966 -3.7245 -5.34309e-05 
-1.21809 -3.71883 -9.02685e-05 
-1.04141 -3.79568 -0.000199099 
-0.812044 -3.91612 -0.000384297 
-0.4415 -3.86928 0.00066822 
-0.164781 -4.01549 -0.0201609 
0.466107 -3.96529 0.00519273 
0.891876 -3.89158 0.00222184 
1.12602 -3.75391 0.000195435 
1.29965 -3.68837 0.000148298 
1.4713 -3.66784 4.33925e-05 
1.67186 -3.67663 1.69972e-05 
1.92189 -3.70195 2.15111e-06 
2.23045 -3.68668 -8.67973e-07 
2.5646 -3.67972 1.69761e-07 
2.91357 -3.65148 -6.19632e-07 
3.26252 -3.67371 5.54906e-08 
3.59974 -3.63686 2.86757e-09 
3.92011 -3.66441 -7.4838e-08 
4.23138 -3.66417 9.04626e-08 
4.53359 -3.66238 -2.64181e-08 
4.84323 -3.67911 1.73229e-08 
5.14992 -3.67577 -1.10636e-09 
5.45522 -3.6758 -2.487e-08 
5.75833 -3.66592 -7.09616e-08 
6.05438 -3.66099 2.83278e-09 
6.35697 -3.66827 -6.8272e-08 
6.66373 -3.66989 4.92914e-08 
6.94986 -3.64102 -1.05653e-07 
7.25036 -3.67075 -6.37279e-10 
7.54917 -3.66022 5.74999e-08 
7.85252 -3.6677 -1.0578e-07 
8.15125 -3.65826 1.34549e-07 
8.44569 -3.66307 -4.21762e-08 
8.73325 -3.63772 -2.42096e-07 
9.05379 -3.70238 4.16147e-08 
9.38454 -3.68329 -1.05258e-07 
9.69326 -3.6382 -5.51886e-08 
10.0278 -3.70862 1.6649e-08 
10.3527 -3.65342 -1.5451e-07 
10.7204 -3.72519 4.39556e-08 
11.0543 -3.65077 -6.17523e-08 
11.3585 -3.61866 -1.06681e-07 
11.7125 -3.72371 1.51003e-07 
12.0011 -3.60497 -7.92062e-07 
-12.0005 -3.30756 6.26172e-07 
-11.6358 -3.37093 -1.74208e-07 
-11.2939 -3.28846 -1.7818e-08 
-10.9786 -3.33254 6.14613e-08 
-10.6602 -3.30337 4.80439e-08 
-10.338 -3.34062 2.25606e-08 
-10.0132 -3.3296 -3.86179e-08 
-9.69418 -3.3305 2.78989e-08 
-9.38344 -3.38147 -6.45622e-08 
-9.07543 -3.33177 1.30338e-07 
-8.77533 -3.31453 1.41666e-07 
-8.47399 -3.33625 7.00514e-08 
-8.17062 -3.33597 -9.77076e-08 
-7.85832 -3.3294 -2.72929e-08 
-7.55831 -3.32878 1.63762e-07 
-7.25187 -3.31604 -2.13681e-07 
-6.94733 -3.35627 7.89287e-08 
-6.63879 -3.34307 -2.20516e-09 
-6.33085 -3.35291 -6.64495e-09 
-6.02383 -3.3434 1.00984e-09 
-5.71734 -3.34864 -3.97062e-10 
-5.41235 -3.34215 2.17644e-09 
-5.11042 -3.31704 7.95429e-08 
-4.80763 -3.3635 -1.14638e-07 
-4.50528 -3.32723 -4.3012e-08 
-4.19509 -3.33948 1.33486e-07 
-3.87722 -3.35452 -6.99679e-08 
-3.55071 -3.33124 -7.02975e-08 
-3.21021 -3.34179 8.65923e-09 
-2.86837 -3.32184 9.58298e-08 
-2.52388 -3.3157 -2.52637e-07 
-2.21021 -3.34757 9.17077e-08 
-1.91114 -3.35946 -2.6816e-06 
-1.63493 -3.37578 -7.37071e-06 
-1.39361 -3.39415 -1.80111e-05 
-1.24298 -3.48872 -7.25668e-05 
-1.01855 -3.57801 -1.36153e-05 
-0.862138 -3.74827 -0.000402378 
-0.650524 -3.84219 -0.00141016 
-0.366162 -3.854 0.026252 
0.404524 -3.92114 -0.00490974 
0.750101 -3.83292 -0.000595275 
1.07818 -3.52054 0.000216441 
1.22934 -3.41685 2.3266e-05 
1.40849 -3.34169 2.47241e-05 
1.65314 -3.38686 6.70715e-06 
1.92106 -3.37767 5.60117e-07 
2.2001 -3.37361 -4.8869e-08 
2.52088 -3.35789 -3.82651e-07 
2.8623 -3.33319 3.92208e-07 
3.21518 -3.34238 -1.69467e-07 
3.54454 -3.31468 -1.43404e-08 
3.8774 -3.32675 1.13297e-07 
4.18844 -3.32923 -1.11491e-07 
4.49209 -3.32676 8.57356e-08 
4.79466 -3.3531 4.52753e-08 
5.09741 -3.35281 1.38775e-08 
5.40233 -3.34985 -9.18275e-09 
5.70401 -3.34111 -6.80565e-10 
6.01192 -3.32215 -2.93548e-08 
6.3084 -3.33535 9.41678e-08 
6.61242 -3.34244 -7.89711e-09 
6.91313 -3.2936 5.72869e-08 
7.20854 -3.33307 -5.51441e-08 
7.50743 -3.32455 -9.647e-08 
7.80934 -3.33554 9.34324e-08 
8.11459 -3.32307 1.77787e-08 
8.41621 -3.31691 -1.98948e-07 
8.74012 -3.32172 1.09527e-07 
9.06484 -3.38572 1.62972e-08 
9.38316 -3.34994 -6.44271e-08 
9.68567 -3.28827 -6.47518e-09 
9.99625 -3.3818 -2.6142e-08 
10.3059 -3.30924 -2.37021e-08 
10.6356 -3.41119 -1.73326e-08 
10.9688 -3.33411 -1.35231e-07 
11.2987 -3.25983 -7.04622e-08 
11.6322 -3.37569 1.97358e-07 
12.0005 -3.2983 -6.5071e-07 
-12.0008 -2.97656 4.70944e-07 
-11.6653 -3.05398 8.86812e-08 
-11.3223 -2.9719 -4.81697e-08 
-10.9727 -2.98277 -6.74808e-08 
-10.637 -2.9742 -1.08831e-07 
-10.3061 -3.00445 -1.91102e-08 
-9.97923 -2.99387 -8.06814e-09 
-9.65537 -2.99566 -1.31981e-07 
-9.35551 -3.03242 3.49115e-08 
-9.05015 -2.98354 -1.20837e-07 
-8.74129 -2.97651 -1.99718e-08 
-8.43877 -2.99611 -4.30449e-08 
-8.12726 -3.00811 3.66272e-08 
-7.82623 -2.99026 -6.30168e-08 
-7.52258 -2.99411 2.88915e-08 
-7.22102 -2.98768 2.30016e-10 
-6.9174 -3.02852 4.27335e-09 
-6.60974 -3.0162 -2.08132e-08 
-6.30706 -3.02357 -1.82189e-08 
-6.00231 -3.01514 -1.7098e-08 
-5.70208 -3.01818 -2.11224e-08 
-5.40131 -3.01003 -1.1444e-07 
-5.10328 -2.98381 -8.21137e-09 
-4.80379 -3.03293 -7.16945e-09 
-4.50255 -2.99479 8.27745e-08 
-4.19746 -3.01089 -5.78023e-08 
-3.88872 -3.03083 7.61784e-09 
-3.55703 -3.00913 8.55994e-08 
-3.22198 -3.01683 2.37098e-07 
-2.8727 -3.00058 2.19066e-07 
-2.54409 -2.98198 -3.30945e-07 
-2.21173 -3.00554 2.22647e-07 
-1.88854 -3.04951 1.23222e-06 
-1.58029 -3.06472 -8.58783e-06 
-1.32704 -3.10425 -8.14972e-06 
-1.10898 -3.1813 8.33752e-06 
-1.04683 -3.39636 -0.00037247 
-0.781292 -3.62581 0.0001421 
-0.50504 -3.74745 -0.0261966 
-0.0081698 -4.03202 0.0157707 
0.583404 -3.96674 -0.011626 
0.95049 -3.69671 0.00177354 
1.00395 -3.25188 -1.66978e-05 
1.16336 -3.12768 3.28553e-05 
1.38852 -3.06106 9.61021e-06 
1.64273 -3.09114 2.4389e-06 
1.90906 -3.05508 -3.39352e-07 
2.2114 -3.05291 2.77971e-07 
2.51781 -3.01173 8.48002e-08 
2.8394 -3.01457 -7.5986e-08 
3.17481 -3.01242 -7.16526e-08 
3.51087 -2.9831 -1.35359e-07 
3.83609 -3.00252 3.98063e-09 
4.16065 -2.99554 1.15073e-08 
4.47117 -2.99151 -1.15963e-08 
4.77538 -3.0216 -1.52723e-08 
5.07786 -3.02363 1.33518e-08 
5.37922 -3.02456 2.18412e-08 
5.68351 -3.01046 8.06467e-08 
5.9836 -3.00253 9.40227e-09 
6.29878 -2.99401 -3.6643e-08 
6.59267 -3.01141 -7.55184e-08 
6.91183 -2.97809 6.80027e-08 
7.23013 -2.99525 6.1041e-08 
7.53062 -2.98954 3.17369e-08 
7.83659 -3.00538 5.79697e-09 
8.13606 -2.98584 -7.69337e-08 
8.45102 -2.99958 1.08618e-07 
8.76116 -2.98826 -4.40721e-08 
9.06206 -3.0632 7.57329e-09 
9.35917 -3.00624 2.76713e-08 
9.6667 -2.94814 5.67905e-08 
9.9896 -3.03483 4.15238e-08 
10.3244 -2.98116 4.30813e-08 
10.6535 -3.08062 7.81278e-08 
10.987 -2.99511 1.30505e-07 
11.3391 -2.93924 1.23533e-07 
11.6709 -3.0578 1.99041e-08 
12.0009 -2.95884 -5.82991e-07 
-12.0007 -2.66041 5.67404e-07 
-11.6533 -2.72504 -2.23098e-07 
-11.3073 -2.65304 3.70751e-08 
-10.9718 -2.65246 1.1405e-08 
-10.6362 -2.64665 -1.06839e-08 
[...]
POINT_DATA 1978 
VECTORS vectors float
0.0180437 -0.0347442 0.999703 
0.0216067 -0.0213297 1.00024 
0.0239295 -0.0146084 1.00031 
0.0263784 -0.0094546 1.0003 
0.0277684 -0.00663435 1.00028 
0.028902 -0.00499252 1.00026 
0.0294597 -0.00415253 1.00024 
0.0296165 -0.00327769 1.00023 
0.0296825 -0.00271893 1.00022 
0.0296438 -0.00233107 1.00021 
0.0296394 -0.00198183 1.00021 
0.0297177 -0.00170464 1.0002 
0.0298484 -0.00145547 1.00019 
0.029957 -0.00122483 1.00019 
0.0300674 -0.0011193 1.00018 
0.0302715 -0.00113855 0.999966 
0.0300496 -0.00119456 1.00018 
0.0300784 -0.00114281 1.00018 
0.0300334 -0.00106733 1.00018 
0.029998 -0.001037 1.00017 
0.0298134 -0.000868893 1.00018 
0.0296167 -0.000661515 1.00018 
0.0293364 -0.000166509 1.00019 
0.028929 0.000606387 1.0002 
0.0287005 0.00179391 1.00021 
0.0283655 0.00322321 1.00022 
0.0280031 0.00498001 1.00024 
0.0272106 0.00760051 1.00028 
0.0254539 0.0114577 1.00031 
0.0218697 0.0181244 1.00031 
0.0170875 0.0290461 1.00013 
0.00859182 0.046543 0.999517 
-0.00632819 0.0759881 0.997641 
-0.025799 0.121167 0.992743 
-0.045144 0.178171 0.983279 
-0.0628657 0.258492 0.964194 
-0.0741933 0.338677 0.938109 
-0.0883432 0.44275 0.8927 
-0.0765307 0.74864 0.658576 
-0.0159968 0.943042 0.354263 
0.0588068 0.753111 -0.662053 
0.0904573 0.461877 -0.882609 
0.0781495 0.346262 -0.934964 
0.0613107 0.259494 -0.963984 
0.0410167 0.185363 -0.982141 
0.0229902 0.122695 -0.992647 
0.00250521 0.0738231 -0.997847 
-0.0106712 0.0459403 -0.999552 
-0.0186323 0.0280949 -1.00014 
-0.0230176 0.0181673 -1.00006 
-0.0251765 0.0113783 -1.00054 
-0.0271165 0.00776265 -1.00006 
-0.0278118 0.00519156 -1.00027 
-0.0283401 0.00318016 -1.00024 
-0.0286791 0.00170441 -1.00022 
-0.0289453 0.000566942 -1.0002 
-0.0293326 -0.000235801 -1.00019 
-0.0296466 -0.000630092 -1.00018 
-0.0298205 -0.000874826 -1.00018 
-0.0299364 -0.00102088 -1.00017 
-0.0300029 -0.00110128 -1.00017 
-0.0300809 -0.0011195 -1.00017 
-0.0301059 -0.00113757 -1.00017 
-0.0300357 -0.00118306 -1.00018 
-0.030002 -0.00118044 -1.00018 
-0.0299643 -0.00129158 -1.00018 
-0.0298801 -0.00145278 -1.00018 
-0.0297853 -0.00164433 -1.00018 
-0.0297542 -0.0019601 -1.00019 
-0.0295245 -0.00233147 -1.0002 
-0.0296003 -0.00266807 -1.0002 
-0.0295742 -0.00329809 -1.00022 
-0.0294016 -0.00399981 -1.00023 
-0.0290634 -0.00485529 -1.00024 
-0.0278562 -0.00634935 -1.00029 
-0.0263225 -0.00971878 -1.0003 
-0.0238474 -0.0147759 -1.00031 
-0.0215474 -0.0212093 -1.00025 
-0.0180392 -0.0347548 -0.999703 
0.0106901 -0.0379813 0.999916 
0.0146536 -0.0267925 1.00069 
0.0151108 -0.0182708 1.00112 
0.0174924 -0.0124468 1.00116 
0.0182847 -0.00853912 1.00118 
0.0195872 -0.00615212 1.00116 
0.0198824 -0.0046702 1.00115 
0.0201323 -0.00354684 1.00135 
0.0209606 -0.00281735 1.0009 
0.0202525 -0.00236728 1.00111 
0.0200477 -0.00204457 1.00131 
0.020482 -0.00176089 1.00108 
0.020234 -0.0015016 1.00107 
0.0203329 -0.00130633 1.00106 
0.0202339 -0.0011919 1.00107 
0.0201208 -0.00114704 1.00126 
0.0209021 -0.00113688 1.00104 
0.0206558 -0.0010612 1.00105 
0.0207134 -0.000938302 1.00104 
0.0204832 -0.000805959 1.00104 
0.0204047 -0.000595101 1.00104 
0.0200539 -0.000259563 1.00105 
0.0196422 0.000301663 1.00105 
0.0202902 0.00113315 1.00084 
0.0192292 0.00230387 1.00127 
0.019466 0.00394922 1.00108 
0.0194324 0.00627184 1.00111 
0.0183404 0.00991669 1.00116 
0.0168844 0.0160211 1.00114 
0.014109 0.0261169 1.00097 
0.0111119 0.0411569 1.00043 
0.00632609 0.0650824 0.999069 
0.000621071 0.102718 0.995749 
-0.00293045 0.153779 0.988917 
-0.00802892 0.212125 0.97778 
-0.00484192 0.29164 0.956884 
-0.0199547 0.385042 0.922829 
-0.0497392 0.542246 0.83815 
0.029908 0.830029 0.554864 
0.0369561 0.977483 0.161575 
0.0268003 0.828794 -0.551339 
0.0430546 0.50398 -0.8626 
0.00357378 0.323459 -0.946645 
-0.00578684 0.24032 -0.97123 
-0.0054656 0.181838 -0.983864 
-0.0021564 0.133071 -0.992118 
-0.00370794 0.0914995 -0.996883 
-0.00948454 0.0588488 -0.999474 
-0.0134121 0.0366273 -1.00062 
-0.0157385 0.0224678 -1.00126 
-0.0178114 0.0139625 -1.00093 
-0.0179559 0.00882277 -1.00137 
-0.0190377 0.00560613 -1.00112 
-0.0192709 0.00348393 -1.00109 
-0.0194115 0.00196977 -1.00106 
-0.0200121 0.000831452 -1.00104 
-0.0201953 7.75797e-05 -1.00103 
-0.0203225 -0.000401355 -1.00103 
-0.0201754 -0.000696876 -1.00104 
-0.0202111 -0.000866858 -1.00104 
-0.0205068 -0.000977342 -1.00104 
-0.0205374 -0.00105751 -1.00104 
-0.0198643 -0.00111571 -1.00106 
-0.0205575 -0.00116187 -1.00104 
-0.0203189 -0.0012195 -1.00105 
-0.0204205 -0.00136976 -1.00105 
-0.020106 -0.00155954 -1.00105 
-0.0202062 -0.00177313 -1.00086 
-0.0194996 -0.00202351 -1.00128 
-0.0212184 -0.00235521 -1.00085 
-0.0206368 -0.0027845 -1.00109 
-0.0194442 -0.00349277 -1.00134 
-0.0211133 -0.00451574 -1.00089 
-0.0193465 -0.00594325 -1.00137 
-0.0200216 -0.00837414 -1.00114 
-0.0170358 -0.0127413 -1.00117 
-0.0148931 -0.0182967 -1.00113 
-0.014676 -0.0267846 -1.0007 
-0.0105747 -0.0379649 -0.999925 
0.00750813 -0.0400208 0.999873 
0.0100365 -0.026382 1.001 
0.0104892 -0.0184196 1.00138 
0.0122016 -0.0129494 1.00102 
0.0126439 -0.00892826 1.00147 
0.0138143 -0.00640344 1.00104 
0.0139523 -0.00473416 1.00125 
0.0141112 -0.00347266 1.00103 
0.0147919 -0.00272205 1.00142 
0.0140596 -0.00235144 1.00122 
0.0138828 -0.00211146 1.0012 
0.0143062 -0.00186227 1.00099 
0.0143586 -0.00160453 1.00118 
0.0143584 -0.00140078 1.00117 
0.0143768 -0.00126256 1.00136 
0.0143114 -0.00117242 1.00097 
0.0148555 -0.00109532 1.00115 
0.0145993 -0.0009942 1.00115 
0.0146513 -0.000871161 1.00115 
0.0144987 -0.000716266 1.00115 
0.014521 -0.000483227 1.00115 
0.0142694 -0.000133576 1.00115 
0.0137669 0.000404817 1.00135 
0.0144304 0.00112632 1.00115 
0.0137912 0.00219352 1.00117 
0.0139406 0.00368785 1.00117 
0.0141894 0.00589406 1.00099 
0.0135756 0.00930876 1.00143 
0.0132171 0.0152362 1.00098 
0.0122129 0.0246294 1.00103 
0.0115217 0.0392792 1.00076 
0.0117411 0.0608359 0.999171 
0.0134817 0.092733 0.996951 
0.018855 0.139367 0.991005 
0.0316313 0.196957 0.980615 
0.032654 0.255283 0.966776 
0.0367252 0.367669 0.929346 
0.0111056 0.491941 0.870448 
0.00298703 0.653579 0.756627 
0.0249159 0.872056 0.484493 
0.0166955 0.856376 -0.51018 
0.0137703 0.5947 -0.803035 
-0.056801 0.307362 -0.950208 
-0.0502914 0.233267 -0.971532 
-0.0378404 0.174032 -0.984827 
-0.0201661 0.127666 -0.992356 
-0.0157018 0.0883285 -0.997004 
-0.01361 0.06104 -0.999248 
-0.0127168 0.039382 -1.0007 
-0.0130718 0.0250316 -1.00078 
-0.0133598 0.0154677 -1.00141 
-0.0133152 0.00984385 -1.00123 
-0.0137062 0.00620403 -1.00121 
-0.0138339 0.00390563 -1.00119 
-0.0138149 0.00232383 -1.00117 
-0.0142222 0.00120897 -1.00115 
-0.0142784 0.000433482 -1.00114 
-0.0143492 -0.000117041 -1.00114 
-0.0143472 -0.000464048 -1.00114 
-0.0141922 -0.000687247 -1.00116 
-0.0145062 -0.000858407 -1.00115 
-0.0147072 -0.000994796 -1.00096 
-0.013939 -0.00107888 -1.00136 
-0.0145769 -0.00115555 -1.00096 
-0.0143525 -0.00123772 -1.00116 
-0.0144127 -0.00137328 -1.00116 
-0.0142168 -0.00156148 -1.00117 
-0.0140097 -0.00179093 -1.00137 
-0.0139112 -0.00206453 -1.00119 
-0.0149043 -0.00233798 -1.00119 
-0.0142733 -0.00276221 -1.0012 
-0.0133768 -0.00348746 -1.00124 
-0.0146379 -0.00462462 -1.00123 
-0.0132188 -0.00622618 -1.00126 
-0.0142336 -0.00854971 -1.00102 
-0.0121363 -0.0127503 -1.00123 
-0.0101048 -0.0185326 -1.00139 
-0.010119 -0.0262191 -1.00101 
-0.00744085 -0.0400853 -0.999877 
0.0051191 -0.0421234 0.999794 
0.0070846 -0.0287016 1.00095 
0.00773008 -0.0201998 1.00094 
0.0087363 -0.0138165 1.00147 
0.009195 -0.00925088 1.0013 
0.00992454 -0.00652024 1.0013 
0.00997604 -0.00472713 1.00129 
0.00996526 -0.00327797 1.00148 
0.0104124 -0.00259293 1.00106 
0.00979047 -0.00230035 1.00125 
0.00978415 -0.00210873 1.00104 
0.00993976 -0.00185455 1.00144 
0.0101094 -0.00161144 1.00123 
0.00995148 -0.00142464 1.00122 
0.0100679 -0.00128292 1.00101 
0.00993193 -0.00116562 1.0014 
0.0104932 -0.00107201 1.0012 
0.0103586 -0.000960192 1.0012 
0.0104636 -0.0008212 1.0012 
0.010278 -0.00061839 1.0012 
0.0102384 -0.000339175 1.0012 
0.010038 3.72213e-05 1.00119 
0.00963965 0.000557724 1.001 
0.0102182 0.00125541 1.00139 
0.00989881 0.00224643 1.00101 
0.0102258 0.00362769 1.00121 
0.0105877 0.00565217 1.00143 
0.0106068 0.00898092 1.00103 
0.0109488 0.0143992 1.00143 
0.0112964 0.0232862 1.00105 
0.0122237 0.0354308 1.00067 
0.0157604 0.0540705 0.999729 
0.0238802 0.0833314 0.997281 
0.0386141 0.125063 0.992655 
0.0588685 0.175527 0.983553 
0.0813381 0.241975 0.967443 
0.0687664 0.306152 0.950278 
0.065119 0.517273 0.852872 
0.0944935 0.738397 0.669439 
0.00649848 0.998991 -0.00518946 
0.0771212 0.741957 -0.664026 
-0.0298004 0.419633 -0.906841 
-0.0990054 0.263465 -0.959862 
-0.0769221 0.193182 -0.978776 
-0.0523579 0.142204 -0.989271 
-0.033648 0.109346 -0.994422 
-0.0241696 0.0781326 -0.997788 
-0.0170276 0.0546092 -0.999643 
-0.0137389 0.0366359 -1.0006 
-0.0120149 0.0243936 -1.00102 
-0.0112354 0.0159612 -1.00098 
-0.0103265 0.0101117 -1.00126 
-0.0102074 0.00646337 -1.00126 
-0.00995083 0.00404407 -1.00125 
-0.00979869 0.00246311 -1.00123 
-0.010084 0.00138717 -1.0012 
-0.0100758 0.000613504 -1.0012 
-0.0101541 6.48486e-05 -1.00119 
-0.0101173 -0.000315983 -1.0012 
-0.0100535 -0.000587963 -1.0012 
-0.00997126 -0.000808248 -1.00121 
-0.0101937 -0.000960048 -1.0014 
-0.00987486 -0.00107879 -1.00101 
-0.0100404 -0.00117489 -1.0014 
-0.00990838 -0.00128302 -1.00121 
-0.0100392 -0.00141067 -1.00121 
-0.00984042 -0.0015882 -1.00141 
-0.0101076 -0.00186311 -1.00102 
-0.00983339 -0.00212308 -1.00123 
-0.0106515 -0.00232851 -1.00123 
-0.0100455 -0.00262475 -1.00126 
-0.0095264 -0.00333337 -1.00128 
-0.0105259 -0.00476481 -1.00128 
-0.00961605 -0.00669974 -1.0013 
-0.0102329 -0.00928929 -1.00128 
-0.00884128 -0.0139614 -1.00125 
-0.00748031 -0.0205608 -1.00116 
-0.00714803 -0.0289015 -1.00095 
-0.0050653 -0.042273 -0.999789 
0.00368674 -0.0432262 0.999748 
0.00497787 -0.0293925 1.00116 
0.00534316 -0.0204635 1.00116 
0.00578533 -0.0142922 1.00127 
0.00605324 -0.00961468 1.00109 
0.00644613 -0.00671192 1.00153 
0.00648798 -0.00472701 1.00131 
0.00650121 -0.00316236 1.0011 
0.00647368 -0.00244966 1.0015 
0.00619711 -0.00227183 1.00128 
0.00618524 -0.00209656 1.00126 
0.00645344 -0.00182936 1.00125 
0.00643118 -0.00159778 1.00125 
0.00639779 -0.00141049 1.00124 
0.00638749 -0.00127873 1.00123 
0.00650788 -0.00116924 1.00123 
0.00681868 -0.00106627 1.00123 
0.00669796 -0.000936224 1.00123 
0.00671598 -0.000753095 1.00123 
0.00654086 -0.000504989 1.00123 
0.00652848 -0.000199324 1.00122 
0.006374 0.000194504 1.00122 
0.00630318 0.000762245 1.00122 
0.00655379 0.00145988 1.00123 
0.00654559 0.00246906 1.00123 
0.00684906 0.00383302 1.00125 
0.00741625 0.00594657 1.00125 
0.00777798 0.00916035 1.00126 
0.00884641 0.0144949 1.00121 
0.010066 0.0217517 1.00107 
0.0120756 0.0311149 1.00059 
0.0170178 0.0444692 1.00041 
0.0277274 0.0669773 0.998629 
0.0444109 0.0948237 0.995489 
0.0702056 0.129631 0.990072 
0.102234 0.185336 0.978065 
0.127413 0.297761 0.946344 
0.104292 0.385775 0.916844 
0.09671 0.59598 0.797434 
0.0752181 0.84211 0.522066 
-0.0225231 0.717874 -0.693314 
-0.113744 0.369217 -0.923069 
-0.125854 0.200236 -0.972337 
-0.0868846 0.14569 -0.986275 
-0.0591731 0.107449 -0.993392 
-0.039935 0.0852216 -0.996668 
-0.0256906 0.0626256 -0.998954 
-0.017386 0.0449374 -1.0004 
-0.0127936 0.0305262 -1.00062 
-0.010229 0.0201367 -1.00134 
-0.00846955 0.0134263 -1.00123 
-0.0072796 0.00862632 -1.00127 
-0.00699249 0.00562085 -1.00127 
-0.00663772 0.00357335 -1.00125 
-0.00642013 0.00220559 -1.00124 
-0.00654975 0.00126217 -1.00123 
-0.00650965 0.000565096 -1.00123 
-0.00654111 6.01666e-05 -1.00122 
-0.00644211 -0.000312053 -1.00123 
-0.00658009 -0.000611121 -1.00122 
-0.00634362 -0.000827234 -1.00123 
-0.00670545 -0.000985512 -1.00123 
-0.006505 -0.00110932 -1.00123 
-0.00642402 -0.00121661 -1.00123 
-0.00646463 -0.0013355 -1.00123 
-0.00642986 -0.0014688 -1.00123 
-0.00618534 -0.00166427 -1.00104 
-0.00644335 -0.00190262 -1.00124 
-0.0061176 -0.00214163 -1.00126 
-0.0067747 -0.00230765 -1.00127 
-0.00635583 -0.00253022 -1.00129 
-0.0060323 -0.00328716 -1.00131 
-0.00688331 -0.00489857 -1.00131 
-0.00635953 -0.00697952 -1.00131 
-0.00697689 -0.00972313 -1.0013 
-0.00600092 -0.0147915 -1.00125 
-0.00503278 -0.0213648 -1.00114 
-0.00490177 -0.0301646 -1.00091 
-0.00360422 -0.043252 -0.999749 
0.00273911 -0.0440013 0.999705 
0.0034017 -0.0329156 1.0006 
0.00365345 -0.0235986 1.00109 
0.00386446 -0.0164323 1.00123 
0.00411901 -0.0112298 1.00129 
0.00435465 -0.00772406 1.00132 
0.00444224 -0.00546462 1.00131 
0.00444633 -0.00358766 1.00131 
0.00446147 -0.00258848 1.0013 
0.00437914 -0.00233938 1.00128 
0.00428835 -0.00221866 1.00127 
0.00444893 -0.00197661 1.00126 
0.00450203 -0.00172356 1.00125 
0.00456869 -0.00150792 1.00124 
0.00452977 -0.00134866 1.00124 
0.00461208 -0.00123197 1.00124 
0.00468458 -0.00112191 1.00124 
0.0047228 -0.00100332 1.00124 
0.00466823 -0.000835834 1.00124 
0.00464566 -0.000617636 1.00123 
0.00461985 -0.000329075 1.00123 
0.00456302 2.88444e-05 1.00123 
0.00461424 0.000509808 1.00122 
0.00458647 0.00115063 1.00123 
0.00477419 0.00195682 1.00123 
0.00488612 0.00312442 1.00125 
0.00532887 0.00477204 1.00125 
0.00572823 0.00704965 1.00126 
0.00661016 0.01085 1.00124 
0.008007 0.0159083 1.00119 
0.0101695 0.0228004 1.00104 
0.0142592 0.0330069 1.0007 
0.0227315 0.0460406 1.00002 
0.0366017 0.0613422 0.998726 
0.0582582 0.0785255 0.996603 
0.0985825 0.109782 0.990157 
0.145639 0.206723 0.968062 
0.156556 0.423162 0.892656 
0.129429 0.690531 0.709555 
0.0493087 0.993879 -0.104583 
-0.0696347 0.621717 -0.777253 
-0.14595 0.290226 -0.94563 
-0.121971 0.133661 -0.984073 
-0.0828763 0.0977376 -0.992651 
-0.0527465 0.0748386 -0.996873 
-0.0353997 0.0623502 -0.99865 
-0.0234819 0.0478991 -0.999897 
-0.0159835 0.035522 -1.00039 
-0.0118413 0.0257676 -1.00098 
-0.00897509 0.0185698 -1.00114 
-0.00678973 0.012524 -1.00123 
-0.00562986 0.00824714 -1.00126 
-0.00529655 0.00547706 -1.00127 
-0.00498745 0.00360509 -1.00126 
-0.0047083 0.00227062 -1.00125 
-0.0046341 0.00131181 -1.00124 
-0.00461632 0.000649781 -1.00123 
-0.00459522 0.000150467 -1.00123 
-0.00453654 -0.000237694 -1.00123 
-0.00467312 -0.00055994 -1.00122 
-0.0045378 -0.000803448 -1.00123 
-0.00468421 -0.000977363 -1.00123 
-0.00470314 -0.00109994 -1.00124 
-0.0045124 -0.00121736 -1.00124 
-0.00462452 -0.00132535 -1.00123 
-0.00452721 -0.00146874 -1.00124 
-0.00438991 -0.00166274 -1.00125 
-0.00441064 -0.00190703 -1.00145 
-0.00430759 -0.00216761 -1.00127 
-0.00456507 -0.00233124 -1.00128 
-0.00437764 -0.00253302 -1.00129 
-0.00412801 -0.00325008 -1.00131 
-0.00457027 -0.00492038 -1.00132 
-0.00429263 -0.00723328 -1.00132 
-0.00462295 -0.0102177 -1.0013 
-0.00399182 -0.0153055 -1.00124 
-0.00346601 -0.0216112 -1.00113 
-0.00351578 -0.0302771 -1.00091 
-0.00289578 -0.0439471 -0.999716 
0.00222629 -0.0443477 0.999694 
0.00258134 -0.0301489 1.00112 
0.00281725 -0.0213354 1.00115 
0.00293289 -0.0149003 1.00125 
0.00308457 -0.00993605 1.0013 
0.0031314 -0.00693787 1.00131 
0.00319019 -0.0047524 1.00131 
0.00317274 -0.00310721 1.0013 
0.00312746 -0.00247058 1.00129 
0.00310776 -0.0023398 1.00127 
0.00308212 -0.00217582 1.00126 
0.00308536 -0.00192082 1.00125 
0.00317652 -0.00165645 1.00124 
0.00322311 -0.00145438 1.00124 
0.00322455 -0.00131055 1.00123 
0.00326402 -0.00120446 1.00124 
0.00323562 -0.00110438 1.00124 
0.00332216 -0.000979978 1.00124 
0.00326107 -0.000816673 1.00123 
0.00329663 -0.000578762 1.00123 
0.0032231 -0.000266519 1.00123 
0.00327275 0.000160933 1.00122 
0.00329429 0.000673858 1.00122 
0.00328563 0.0013341 1.00122 
0.00350495 0.00217004 1.00124 
0.00369779 0.00340104 1.00124 
0.00406673 0.00497082 1.00125 
0.0046687 0.00736136 1.00125 
0.00527166 0.0103081 1.00124 
0.00658142 0.0143202 1.00121 
0.00909635 0.0203666 1.0011 
0.0128987 0.0285573 1.00086 
0.0200493 0.0374106 1.00044 
0.030184 0.0440645 0.999693 
0.0440258 0.0500622 0.999097 
0.0770643 0.0661868 0.99581 
0.1485 0.117602 0.982645 
0.191074 0.317297 0.928265 
0.0665007 0.514821 0.854222 
0.012349 0.996447 -0.0772895 
0.00904273 0.515964 -0.856709 
-0.172758 0.172876 -0.969756 
-0.116051 0.0819956 -0.9907 
-0.0669654 0.0655812 -0.996663 
-0.0397293 0.0537199 -0.999008 
-0.0272445 0.04638 -0.999899 
-0.0181317 0.0365944 -1.00056 
-0.0125506 0.02742 -1.00094 
-0.00922719 0.0206038 -1.00132 
-0.00679871 0.0151897 -1.00118 
-0.00510099 0.0105124 -1.00123 
-0.00427812 0.00704832 -1.00126 
-0.00394159 0.0047855 -1.00125 
-0.00363332 0.00313704 -1.00125 
-0.00337679 0.00194973 -1.00124 
-0.00323516 0.00114659 -1.00124 
-0.00322825 0.000544198 -1.00123 
-0.00319988 7.54074e-05 -1.00123 
-0.00324777 -0.000338743 -1.00123 
-0.00328253 -0.000644315 -1.00123 
-0.0032513 -0.000890612 -1.00123 
-0.00326231 -0.00103878 -1.00124 
-0.00333828 -0.00115388 -1.00124 
-0.00314277 -0.00125806 -1.00124 
-0.00323633 -0.00136125 -1.00123 
-0.0030694 -0.00151015 -1.00124 
-0.00302589 -0.001732 -1.00125 
-0.0030616 -0.00199929 -1.00106 
-0.00292606 -0.002244 -1.00126 
-0.00322884 -0.00237708 -1.00128 
-0.00310457 -0.00254057 -1.0013 
-0.00301903 -0.00327579 -1.00131 
-0.00334977 -0.00504907 -1.00132 
-0.00315659 -0.00746197 -1.00131 
-0.00339938 -0.0106483 -1.00129 
-0.0029736 -0.0155344 -1.00123 
-0.00263581 -0.0222734 -1.00111 
-0.00269396 -0.0311533 -1.00087 
-0.00230489 -0.0442526 -0.999696 
0.00152915 -0.0445181 0.999668 
0.00180464 -0.0319711 1.00062 
0.00189272 -0.022703 1.0011 
0.00192814 -0.0161538 1.00122 
0.00194978 -0.0107396 1.00128 
0.00194247 -0.00743025 1.0013 
0.00200055 -0.00511052 1.0013 
0.00203329 -0.00340424 1.0013 
0.00201272 -0.0026402 1.00128 
0.00206556 -0.00244773 1.00127 
0.00216502 -0.00228414 1.00125 
0.0021296 -0.00200742 1.00124 
0.00219314 -0.0017177 1.00123 
0.00221794 -0.00148698 1.00123 
0.0022449 -0.00133976 1.00122 
0.00224316 -0.00123833 1.00123 
0.00221449 -0.00115227 1.00123 
0.00225873 -0.00105122 1.00123 
0.00225727 -0.000919371 1.00123 
0.00228359 -0.000716263 1.00122 
0.00225278 -0.000434256 1.00122 
0.00227739 -2.47745e-05 1.00122 
0.00225932 0.000481204 1.00122 
0.00230779 0.00107884 1.00121 
0.00237552 0.00186804 1.00123 
0.0025783 0.00286055 1.00123 
0.0027419 0.0043564 1.00144 
0.00320974 0.00629184 1.00105 
0.00346057 0.00865963 1.00124 
0.00416078 0.0116722 1.00123 
0.00588787 0.0159811 1.0012 
0.00841467 0.0220598 1.00132 
0.0121704 0.0293159 1.00066 
0.0166282 0.0338445 1.00092 
0.0236635 0.0370243 1.00049 
0.0451948 0.0357618 0.999634 
0.110006 0.0637207 0.992729 
0.223955 0.172031 0.960788 
0.18647 0.574959 0.803004 
0.0428076 0.989742 -0.150676 
-0.148565 0.458235 -0.88169 
-0.196444 0.0992579 -0.97698 
-0.0851758 0.054206 -0.995651 
-0.0433147 0.0466238 -0.999235 
-0.0240126 0.0437151 -1.0004 
-0.0175673 0.0387183 -1.00032 
-0.012301 0.0306359 -1.00114 
-0.00890016 0.0234657 -1.00108 
-0.00642313 0.0182075 -1.00096 
-0.00502008 0.0140286 -1.0012 
-0.00372116 0.00985004 -1.00103 
-0.00305998 0.00677089 -1.00144 
-0.0027341 0.00463684 -1.00124 
-0.0025248 0.00313696 -1.00124 
-0.00237908 0.00202579 -1.00104 
-0.002207 0.00118913 -1.00142 
-0.00221624 0.000586735 -1.00104 
-0.00219478 8.43087e-05 -1.00122 
-0.00226695 -0.000329988 -1.00122 
-0.00223985 -0.00066649 -1.00122 
-0.00229483 -0.000883033 -1.00122 
-0.00223715 -0.0010466 -1.00123 
-0.00229047 -0.00115015 -1.00123 
-0.00223753 -0.00123748 -1.00123 
-0.00225382 -0.00133853 -1.00123 
-0.00217425 -0.00147041 -1.00123 
-0.00214292 -0.00169231 -1.00124 
-0.00208971 -0.0019817 -1.00145 
-0.00204806 -0.00229108 -1.00126 
-0.00209756 -0.00246214 -1.00129 
-0.00206129 -0.00265504 -1.00129 
-0.00188548 -0.00344316 -1.0013 
-0.00218738 -0.00506751 -1.00131 
-0.00196222 -0.0072615 -1.0013 
-0.00227387 -0.0103313 -1.00129 
-0.00197957 -0.0153454 -1.00123 
-0.00176726 -0.0220526 -1.0011 
-0.00187841 -0.0313523 -1.00085 
-0.00153211 -0.04433 -0.999686 
0.00112267 -0.0444794 0.999673 
0.0012292 -0.0313621 1.00085 