# vtk DataFile Version 3.0 
Exported using Morpho https://github.com/Morpho-lang/morpho 
ASCII 
DATASET UNSTRUCTURED_GRID 

POINTS 1245 float 
-0.303845 -0.952721 0 
-0.250833 -0.96803 0 
-0.195084 -0.980787 0 
-0.146308 -0.989239 0 
-0.0940719 -0.995565 0 
-0.0475118 -0.998871 0 
-0.000246339 -1 0 
0.0470875 -0.998891 0 
0.0937543 -0.995595 0 
0.146139 -0.989264 0 
0.195062 -0.980791 0 
0.250843 -0.968028 0 
0.303953 -0.952687 0 
-0.409153 -0.912466 0 
-0.356519 -0.934288 0 
-0.308871 -0.898929 0 
-0.258282 -0.916037 0 
-0.207345 -0.934859 0 
-0.154868 -0.930629 0 
-0.104343 -0.948989 0 
-0.0520099 -0.939193 0 
-8.5762e-05 -0.954582 0 
0.0518744 -0.939288 0 
0.104354 -0.949042 0 
0.154696 -0.9306 0 
0.207366 -0.934975 0 
0.258274 -0.916081 0 
0.308979 -0.898924 0 
0.356593 -0.93426 0 
0.409236 -0.912429 0 
-0.513788 -0.857917 0 
-0.461695 -0.887039 0 
-0.411157 -0.857936 0 
-0.359855 -0.879963 0 
-0.306888 -0.847481 0 
-0.254732 -0.866979 0 
-0.201991 -0.889059 0 
-0.149956 -0.874108 0 
-0.100608 -0.900088 0 
-0.0497575 -0.880388 0 
2.4595e-05 -0.904789 0 
0.0496869 -0.8804 0 
0.100612 -0.900177 0 
0.149872 -0.874171 0 
0.202071 -0.889165 0 
0.254695 -0.867031 0 
0.306946 -0.847482 0 
0.359894 -0.879943 0 
0.411236 -0.857929 0 
0.461748 -0.887011 0 
0.513842 -0.857885 0 
-0.564741 -0.825268 0 
-0.512908 -0.802945 0 
-0.462372 -0.832348 0 
-0.410124 -0.804631 0 
-0.358606 -0.827415 0 
-0.305781 -0.795641 0 
-0.25358 -0.816639 0 
-0.200756 -0.839997 0 
-0.149043 -0.818944 0 
-0.0987265 -0.846667 0 
-0.0490473 -0.822548 0 
5.00659e-05 -0.849932 0 
0.0490834 -0.822542 0 
0.0987838 -0.846676 0 
0.148997 -0.818924 0 
0.200826 -0.840131 0 
0.253508 -0.816728 0 
0.305831 -0.795701 0 
0.358581 -0.827419 0 
0.410181 -0.804654 0 
0.462414 -0.83234 0 
0.512965 -0.802929 0 
0.564777 -0.825243 0 
-0.660798 -0.750564 0 
-0.614015 -0.789295 0 
-0.561786 -0.769772 0 
-0.510673 -0.747856 0 
-0.460836 -0.778365 0 
-0.408794 -0.751554 0 
-0.357337 -0.774971 0 
-0.304815 -0.743684 0 
-0.252907 -0.765535 0 
-0.200631 -0.789263 0 
-0.149244 -0.764328 0 
-0.0986912 -0.791935 0 
-0.0492815 -0.765764 0 
4.16586e-05 -0.79382 0 
0.0492411 -0.765708 0 
0.0987508 -0.791951 0 
0.149196 -0.764326 0 
0.200666 -0.789356 0 
0.252841 -0.765599 0 
0.304862 -0.743741 0 
0.357323 -0.775038 0 
0.408863 -0.751626 0 
0.460863 -0.778382 0 
0.510716 -0.747859 0 
0.561819 -0.769761 0 
0.614041 -0.789274 0 
0.660811 -0.750552 0 
-0.707107 -0.707107 0 
-0.654819 -0.699058 0 
-0.60813 -0.73348 0 
-0.558104 -0.71337 0 
-0.509495 -0.692659 0 
-0.45935 -0.724356 0 
-0.407328 -0.698865 0 
-0.355968 -0.722823 0 
-0.303722 -0.691387 0 
-0.252254 -0.71362 0 
-0.20067 -0.737336 0 
-0.149608 -0.710068 0 
-0.0991558 -0.737129 0 
-0.0495872 -0.709825 0 
-2.23646e-05 -0.737917 0 
0.0494408 -0.709766 0 
0.0991291 -0.737116 0 
0.149502 -0.710042 0 
0.200696 -0.73743 0 
0.252186 -0.713735 0 
0.303753 -0.691518 0 
0.355952 -0.722893 0 
0.407371 -0.698945 0 
0.459374 -0.724407 0 
0.509524 -0.692668 0 
0.558131 -0.713361 0 
0.608151 -0.733462 0 
0.654824 -0.699048 0 
0.707107 -0.707107 0 
-0.750564 -0.660798 0 
-0.699058 -0.654819 0 
-0.647692 -0.647692 0 
-0.603437 -0.675718 0 
-0.55905 -0.655305 0 
-0.508501 -0.639581 0 
-0.457509 -0.671321 0 
-0.405555 -0.646545 0 
-0.354417 -0.670703 0 
-0.302427 -0.639219 0 
-0.251503 -0.661417 0 
-0.20061 -0.684911 0 
-0.149717 -0.655943 0 
-0.0995004 -0.682466 0 
-0.0498216 -0.654561 0 
-5.02113e-05 -0.682664 0 
0.0496787 -0.654499 0 
0.0994374 -0.682501 0 
0.149603 -0.655909 0 
0.200573 -0.684972 0 
0.251388 -0.661524 0 
0.302407 -0.639359 0 
0.354397 -0.670836 0 
0.405575 -0.646641 0 
0.457525 -0.67138 0 
0.508497 -0.639623 0 
0.559063 -0.655324 0 
0.603436 -0.675715 0 
0.64769 -0.64769 0 
0.699048 -0.654824 0 
0.750552 -0.660811 0 
-0.789295 -0.614015 0 
-0.73348 -0.60813 0 
-0.675718 -0.603437 0 
-0.613088 -0.613088 0 
-0.55962 -0.604068 0 
-0.506189 -0.588854 0 
-0.455505 -0.618874 0 
-0.403019 -0.594688 0 
-0.352514 -0.618952 0 
-0.300977 -0.586897 0 
-0.250543 -0.608767 0 
-0.200257 -0.632053 0 
-0.150049 -0.601979 0 
-0.0998281 -0.628222 0 
-0.0500377 -0.599914 0 
-3.12334e-05 -0.628076 0 
0.0498927 -0.599835 0 
0.0997818 -0.628253 0 
0.149924 -0.601867 0 
0.200214 -0.632118 0 
0.250423 -0.608915 0 
0.30086 -0.587085 0 
0.352457 -0.619096 0 
0.402948 -0.594743 0 
0.455483 -0.618952 0 
0.506147 -0.588901 0 
0.55964 -0.604067 0 
0.613069 -0.613069 0 
0.675715 -0.603436 0 
0.733462 -0.608151 0 
0.789274 -0.614041 0 
-0.825268 -0.564741 0 
-0.769772 -0.561786 0 
-0.71337 -0.558104 0 
-0.655305 -0.55905 0 
-0.604068 -0.55962 0 
-0.551031 -0.551031 0 
-0.497922 -0.537596 0 
-0.451508 -0.567021 0 
-0.399773 -0.542431 0 
-0.350494 -0.567003 0 
-0.301574 -0.534146 0 
-0.250874 -0.555692 0 
-0.200542 -0.579013 0 
-0.150324 -0.548268 0 
-0.100169 -0.57443 0 
-0.0500152 -0.545912 0 
-3.29278e-05 -0.574268 0 
0.0499208 -0.545788 0 
0.100058 -0.574485 0 
0.150038 -0.548073 0 
0.200377 -0.579041 0 
0.250556 -0.55585 0 
0.301273 -0.534348 0 
0.350318 -0.567174 0 
0.399615 -0.542384 0 
0.451404 -0.5671 0 
0.497945 -0.537702 0 
0.551073 -0.551073 0 
0.604067 -0.55964 0 
0.655324 -0.559063 0 
0.713361 -0.558131 0 
0.769761 -0.561819 0 
0.825243 -0.564777 0 
-0.857917 -0.513788 0 
-0.802945 -0.512908 0 
-0.747856 -0.510673 0 
-0.692659 -0.509495 0 
-0.639581 -0.508501 0 
-0.588854 -0.506189 0 
-0.537596 -0.497922 0 
-0.486157 -0.486157 0 
-0.444928 -0.512952 0 
-0.401787 -0.486784 0 
-0.351685 -0.513639 0 
-0.299695 -0.48291 0 
-0.250032 -0.503 0 
-0.200501 -0.526165 0 
-0.149489 -0.495195 0 
-0.0999281 -0.521367 0 
-0.0499712 -0.492294 0 
4.64723e-05 -0.520999 0 
0.050147 -0.492108 0 
0.099934 -0.52133 0 
0.14957 -0.494692 0 
0.200133 -0.526255 0 
0.249839 -0.503309 0 
0.299839 -0.483005 0 
0.351514 -0.513798 0 
0.401881 -0.486608 0 
0.444935 -0.513054 0 
0.486228 -0.486228 0 
0.537702 -0.497945 0 
0.588901 -0.506147 0 
0.639623 -0.508497 0 
0.692668 -0.509524 0 
0.747859 -0.510716 0 
0.802929 -0.512965 0 
0.857885 -0.513842 0 
-0.887039 -0.461695 0 
-0.832348 -0.462372 0 
-0.778365 -0.460836 0 
-0.724356 -0.45935 0 
-0.671321 -0.457509 0 
-0.618874 -0.455505 0 
-0.567021 -0.451508 0 
-0.512952 -0.444928 0 
-0.450685 -0.450685 0 
-0.397667 -0.437543 0 
-0.348492 -0.462546 0 
-0.295416 -0.432968 0 
-0.247004 -0.450633 0 
-0.198702 -0.473818 0 
-0.150161 -0.441625 0 
-0.100085 -0.468395 0 
-0.0502271 -0.439281 0 
0.000144229 -0.468374 0 
0.0504178 -0.439106 0 
0.100428 -0.468348 0 
0.150697 -0.441105 0 
0.199103 -0.473881 0 
0.247983 -0.450921 0 
0.296569 -0.432268 0 
0.348831 -0.462562 0 
0.397506 -0.4368 0 
0.450637 -0.450637 0 
0.513054 -0.444935 0 
0.5671 -0.451404 0 
0.618952 -0.455483 0 
0.67138 -0.457525 0 
0.724407 -0.459374 0 
0.778382 -0.460863 0 
0.83234 -0.462414 0 
0.887011 -0.461748 0 
-0.912466 -0.409153 0 
-0.857936 -0.411157 0 
-0.804631 -0.410124 0 
-0.751554 -0.408794 0 
-0.698865 -0.407328 0 
-0.646545 -0.405555 0 
-0.594688 -0.403019 0 
-0.542431 -0.399773 0 
-0.486784 -0.401787 0 
-0.437543 -0.397667 0 
-0.387256 -0.387256 0 
-0.344215 -0.411459 0 
-0.30136 -0.381507 0 
-0.25021 -0.395692 0 
-0.200211 -0.419975 0 
-0.150955 -0.389014 0 
-0.100617 -0.416095 0 
-0.0503197 -0.386922 0 
-4.02994e-05 -0.416525 0 
0.05006 -0.386948 0 
0.100784 -0.416323 0 
0.150432 -0.388572 0 
0.200855 -0.420694 0 
0.25086 -0.396905 0 
0.301746 -0.379789 0 
0.344135 -0.410678 0 
0.385823 -0.385823 0 
0.4368 -0.397506 0 
0.486608 -0.401881 0 
0.542384 -0.399615 0 
0.594743 -0.402948 0 
0.646641 -0.405575 0 
0.698945 -0.407371 0 
0.751626 -0.408863 0 
0.804654 -0.410181 0 
0.857929 -0.411236 0 
0.912429 -0.409236 0 
-0.934288 -0.356519 0 
-0.879963 -0.359855 0 
-0.827415 -0.358606 0 
-0.774971 -0.357337 0 
-0.722823 -0.355968 0 
-0.670703 -0.354417 0 
-0.618952 -0.352514 0 
-0.567003 -0.350494 0 
-0.513639 -0.351685 0 
-0.462546 -0.348492 0 
-0.411459 -0.344215 0 
-0.351697 -0.351697 0 
-0.29839 -0.336232 0 
-0.249846 -0.342529 0 
-0.200971 -0.367271 0 
-0.149995 -0.337521 0 
-0.100435 -0.3646 0 
-0.0498692 -0.335025 0 
-6.88684e-05 -0.365025 0 
0.0495433 -0.334795 0 
0.0996798 -0.364834 0 
0.148162 -0.337172 0 
0.199644 -0.368939 0 
0.24763 -0.345582 0 
0.295348 -0.332889 0 
0.34978 -0.34978 0 
0.410678 -0.344135 0 
0.462562 -0.348831 0 
0.513798 -0.351514 0 
0.567174 -0.350318 0 
0.619096 -0.352457 0 
0.670836 -0.354397 0 
0.722893 -0.355952 0 
0.775038 -0.357323 0 
0.827419 -0.358581 0 
0.879943 -0.359894 0 
0.93426 -0.356593 0 
-0.952721 -0.303845 0 
-0.898929 -0.308871 0 
-0.847481 -0.306888 0 
-0.795641 -0.305781 0 
-0.743684 -0.304815 0 
-0.691387 -0.303722 0 
-0.639219 -0.302427 0 
-0.586897 -0.300977 0 
-0.534146 -0.301574 0 
-0.48291 -0.299695 0 
-0.432968 -0.295416 0 
-0.381507 -0.30136 0 
-0.336232 -0.29839 0 
-0.288184 -0.288184 0 
-0.242975 -0.290577 0 
-0.198059 -0.315051 0 
-0.148383 -0.285894 0 
-0.0994753 -0.313232 0 
-0.0507184 -0.283118 0 
-0.000202902 -0.313447 0 
0.0500077 -0.282824 0 
0.0988289 -0.312817 0 
0.148102 -0.28482 0 
0.195742 -0.317413 0 
0.240766 -0.295824 0 
0.285014 -0.285014 0 
0.332889 -0.295348 0 
0.379789 -0.301746 0 
0.432268 -0.296569 0 
0.483005 -0.299839 0 
0.534348 -0.301273 0 
0.587085 -0.30086 0 
0.639359 -0.302407 0 
0.691518 -0.303753 0 
0.743741 -0.304862 0 
0.795701 -0.305831 0 
0.847482 -0.306946 0 
0.898924 -0.308979 0 
0.952687 -0.303953 0 
-0.96803 -0.250833 0 
-0.916037 -0.258282 0 
-0.866979 -0.254732 0 
-0.816639 -0.25358 0 
-0.765535 -0.252907 0 
-0.71362 -0.252254 0 
-0.661417 -0.251503 0 
-0.608767 -0.250543 0 
-0.555692 -0.250874 0 
-0.503 -0.250032 0 
-0.450633 -0.247004 0 
-0.395692 -0.25021 0 
-0.342529 -0.249846 0 
-0.290577 -0.242975 0 
-0.239946 -0.239946 0 
-0.194478 -0.26004 0 
-0.151293 -0.23238 0 
-0.101048 -0.260904 0 
-0.0503938 -0.232537 0 
-0.000203281 -0.262984 0 
0.050638 -0.232316 0 
0.100942 -0.260855 0 
0.152412 -0.232597 0 
0.195768 -0.261421 0 
0.241873 -0.241873 0 
0.295824 -0.240766 0 
0.345582 -0.24763 0 
0.396905 -0.25086 0 
0.450921 -0.247983 0 
[...]
POINT_DATA 1245 
VECTORS vectors float
0.522312 -0.182416 0.833016 
0.52944 -0.148424 0.835262 
0.536373 -0.111843 0.836537 
0.542327 -0.0802417 0.836327 
0.548517 -0.0467167 0.834833 
0.553697 -0.0186541 0.832509 
0.558427 0.00813718 0.829514 
0.56002 0.0339815 0.827782 
0.560633 0.0591205 0.825951 
0.560442 0.0866194 0.823652 
0.558682 0.110643 0.821969 
0.554313 0.136375 0.821059 
0.546596 0.15921 0.822122 
0.506534 -0.245575 0.826509 
0.514889 -0.214913 0.82988 
0.455823 -0.170122 0.873661 
0.46364 -0.141641 0.874629 
0.477575 -0.112817 0.871318 
0.464824 -0.0797393 0.881805 
0.485247 -0.0519212 0.872834 
0.470979 -0.0224096 0.88186 
0.493854 0.00562757 0.869526 
0.476667 0.0305581 0.878553 
0.496877 0.0580913 0.865874 
0.479707 0.0798689 0.873786 
0.496827 0.10647 0.861294 
0.482887 0.126763 0.866459 
0.472411 0.14724 0.868993 
0.535133 0.181271 0.82509 
0.519047 0.203699 0.830118 
0.483283 -0.300327 0.822339 
0.496324 -0.274026 0.823755 
0.440795 -0.22563 0.868787 
0.448387 -0.19869 0.871476 
0.395695 -0.155148 0.905182 
0.405303 -0.128516 0.905104 
0.420902 -0.101998 0.901353 
0.396905 -0.0715552 0.915066 
0.423637 -0.0472821 0.904597 
0.399355 -0.0214818 0.916545 
0.429299 0.00275072 0.903158 
0.403475 0.0245507 0.914661 
0.432539 0.0496941 0.900245 
0.407842 0.0682208 0.9105 
0.435409 0.0944241 0.895267 
0.418639 0.113958 0.900975 
0.406483 0.13393 0.903789 
0.460194 0.168152 0.871749 
0.444957 0.189993 0.875166 
0.497849 0.227674 0.836846 
0.47146 0.254806 0.844274 
0.466514 -0.325144 0.822585 
0.418007 -0.275818 0.86556 
0.430963 -0.251473 0.866621 
0.381048 -0.206177 0.901273 
0.389093 -0.180693 0.903303 
0.342293 -0.141368 0.928898 
0.351595 -0.117724 0.928721 
0.366333 -0.0936991 0.925754 
0.339069 -0.0655366 0.938476 
0.363507 -0.0438154 0.930561 
0.337494 -0.0208896 0.941096 
0.366426 0.000888824 0.930447 
0.340287 0.0199942 0.940109 
0.369959 0.0426777 0.928067 
0.346301 0.0602398 0.936188 
0.377027 0.0849492 0.922298 
0.360364 0.103457 0.927057 
0.34752 0.1227 0.92961 
0.394251 0.15462 0.905902 
0.379249 0.17678 0.908251 
0.424967 0.214156 0.879512 
0.401097 0.241044 0.883753 
0.440861 0.286329 0.850681 
0.421383 -0.373848 0.826241 
0.445683 -0.349409 0.824185 
0.401376 -0.298739 0.865824 
0.358679 -0.25258 0.898639 
0.371593 -0.22975 0.899519 
0.328291 -0.187999 0.925679 
0.335277 -0.165086 0.927543 
0.294436 -0.129138 0.946906 
0.303383 -0.107772 0.946754 
0.316623 -0.0866224 0.944588 
0.28853 -0.0604968 0.955558 
0.30963 -0.0410991 0.949969 
0.284689 -0.0200749 0.95841 
0.310183 -0.000792761 0.950676 
0.286492 0.0169776 0.957932 
0.313988 0.0374666 0.948687 
0.293244 0.0537574 0.954525 
0.323177 0.0768934 0.94321 
0.308261 0.0944527 0.946601 
0.295896 0.112851 0.948531 
0.336089 0.142727 0.930953 
0.322496 0.164658 0.932139 
0.361478 0.200353 0.9106 
0.339776 0.227073 0.912683 
0.374476 0.27099 0.886754 
0.408291 0.32244 0.854009 
0.376803 0.361703 0.852755 
0.392914 -0.400464 0.827796 
0.364319 -0.347605 0.863969 
0.38126 -0.321061 0.866926 
0.341967 -0.27408 0.898854 
0.306226 -0.23257 0.923113 
0.318469 -0.210673 0.924226 
0.281298 -0.172439 0.944 
0.288296 -0.150824 0.945588 
0.252047 -0.118307 0.960456 
0.260113 -0.0988743 0.960503 
0.271711 -0.0795395 0.959086 
0.245198 -0.0560744 0.96785 
0.262745 -0.0384593 0.964099 
0.240056 -0.0193788 0.970566 
0.261686 -0.00191424 0.965151 
0.241062 0.0145828 0.9704 
0.265333 0.0331811 0.963586 
0.247556 0.0487195 0.967648 
0.275491 0.0701654 0.958739 
0.26171 0.0865844 0.961255 
0.251139 0.104189 0.962327 
0.285539 0.132477 0.949167 
0.273674 0.153678 0.949466 
0.306013 0.188282 0.933223 
0.287676 0.214137 0.933482 
0.316313 0.255465 0.91361 
0.347059 0.303793 0.887276 
0.326334 0.341909 0.881252 
0.34727 0.403994 0.846282 
0.36286 -0.428049 0.827712 
0.338222 -0.372389 0.864252 
0.313468 -0.322733 0.893074 
0.322825 -0.295304 0.89921 
0.290093 -0.254702 0.922482 
0.262027 -0.215766 0.940631 
0.272806 -0.193411 0.942427 
0.240531 -0.158486 0.957615 
0.246962 -0.137898 0.959163 
0.215123 -0.108363 0.970556 
0.222263 -0.0905247 0.970775 
0.231875 -0.0733616 0.969975 
0.207631 -0.0516312 0.976844 
0.222024 -0.0357464 0.974386 
0.201996 -0.0183335 0.979215 
0.220171 -0.00239741 0.975458 
0.202441 0.0127246 0.979212 
0.223403 0.0297427 0.974272 
0.208434 0.0442861 0.977033 
0.233296 0.0638905 0.970304 
0.221824 0.0799551 0.971803 
0.212063 0.0966172 0.972468 
0.242036 0.123188 0.962415 
0.231828 0.144038 0.962034 
0.25964 0.176883 0.949368 
0.244628 0.203151 0.948096 
0.266911 0.243234 0.932521 
0.293669 0.285402 0.912307 
0.282409 0.321224 0.903914 
0.302246 0.378558 0.874838 
0.32268 0.4442 0.835802 
0.334173 -0.45464 0.82561 
0.30929 -0.390403 0.867136 
0.285591 -0.332093 0.898972 
0.272849 -0.281652 0.919905 
0.249859 -0.239459 0.938206 
0.224848 -0.20045 0.953553 
0.232766 -0.17865 0.955983 
0.205258 -0.145609 0.967816 
0.210608 -0.127017 0.969284 
0.182889 -0.0996197 0.978073 
0.188646 -0.0833718 0.9785 
0.197065 -0.0674814 0.978065 
0.175189 -0.0478569 0.983371 
0.187516 -0.0334406 0.981692 
0.169539 -0.0171929 0.985373 
0.18539 -0.00282043 0.982661 
0.169512 0.0114716 0.985461 
0.187912 0.027062 0.981813 
0.174857 0.0406187 0.983756 
0.196862 0.0589968 0.978655 
0.186852 0.0736673 0.979622 
0.179045 0.0899533 0.97972 
0.205176 0.114773 0.971972 
0.196271 0.134687 0.971255 
0.22046 0.16619 0.961134 
0.209438 0.191706 0.958845 
0.230029 0.232473 0.945009 
0.248297 0.278672 0.927734 
0.258612 0.337151 0.905234 
0.279836 0.404226 0.870801 
0.303775 0.478139 0.824078 
0.30648 -0.480472 0.821716 
0.284805 -0.41347 0.864829 
0.26316 -0.352985 0.897858 
0.245664 -0.299855 0.921811 
0.231027 -0.258961 0.937852 
0.211296 -0.219281 0.952507 
0.190648 -0.183547 0.964346 
0.198061 -0.16461 0.966269 
0.173808 -0.134463 0.975557 
0.179216 -0.116778 0.976854 
0.154767 -0.0928101 0.983582 
0.159734 -0.0770929 0.984145 
0.16683 -0.0624416 0.984007 
0.147516 -0.0444441 0.988061 
0.157774 -0.0310203 0.986988 
0.142427 -0.0162717 0.989672 
0.155555 -0.00283373 0.987823 
0.142231 0.0102319 0.989781 
0.15753 0.0247862 0.987203 
0.14645 0.037735 0.988498 
0.165401 0.0546939 0.984709 
0.157055 0.0689843 0.985178 
0.15041 0.0845531 0.985001 
0.173021 0.107236 0.979063 
0.165663 0.12578 0.978128 
0.186811 0.155547 0.970004 
0.177892 0.177519 0.967906 
0.195295 0.215065 0.956874 
0.211835 0.258137 0.942598 
0.224822 0.304063 0.925743 
0.241874 0.363974 0.899456 
0.263859 0.431999 0.862413 
0.288039 0.506483 0.812717 
0.280726 -0.503897 0.816873 
0.260982 -0.434928 0.861816 
0.241155 -0.372682 0.896076 
0.223531 -0.318135 0.921317 
0.207856 -0.272484 0.93944 
0.193425 -0.233712 0.952872 
0.176966 -0.198212 0.964051 
0.16017 -0.166775 0.972899 
0.166384 -0.150238 0.974549 
0.146092 -0.126043 0.981209 
0.151506 -0.109123 0.982414 
0.130937 -0.0858813 0.987664 
0.134545 -0.071479 0.988326 
0.140629 -0.0579082 0.988367 
0.123722 -0.0410305 0.991468 
0.132574 -0.0287777 0.990755 
0.118728 -0.0149761 0.992814 
0.130273 -0.00268932 0.991474 
0.118205 0.00968282 0.992942 
0.131796 0.0229379 0.991011 
0.12208 0.0349694 0.991904 
0.138734 0.0508146 0.989025 
0.131378 0.0645756 0.989227 
0.126641 0.0792493 0.988778 
0.145414 0.101554 0.984145 
0.138429 0.119752 0.983106 
0.156544 0.143926 0.977128 
0.149914 0.162084 0.975323 
0.164236 0.195584 0.966837 
0.178971 0.233574 0.955726 
0.192387 0.276072 0.941685 
0.207812 0.326429 0.922095 
0.22715 0.38659 0.89384 
0.249638 0.454364 0.855122 
0.274304 0.528131 0.803638 
0.256924 -0.523851 0.812139 
0.238191 -0.453147 0.859025 
0.219467 -0.389581 0.894461 
0.202486 -0.333532 0.920736 
0.186628 -0.284945 0.9402 
0.172714 -0.243106 0.954499 
0.158971 -0.206763 0.96539 
0.145368 -0.173143 0.97411 
0.137253 -0.142286 0.980263 
0.123706 -0.117177 0.985376 
0.127954 -0.101052 0.986619 
0.110279 -0.0793379 0.990729 
0.112769 -0.0657164 0.991446 
0.118139 -0.0534623 0.991557 
0.103161 -0.0383061 0.993927 
0.110932 -0.0270165 0.993461 
0.0991106 -0.0140539 0.994977 
0.109138 -0.00278755 0.994023 
0.0985834 0.00906397 0.995088 
0.110125 0.0213715 0.993688 
0.101308 0.0332001 0.994301 
0.115917 0.047531 0.992121 
0.109777 0.0601793 0.992133 
0.105786 0.0741978 0.991617 
0.122198 0.0953092 0.987919 
0.11671 0.112001 0.986831 
0.128729 0.138126 0.982013 
0.135617 0.170977 0.975897 
0.148182 0.206355 0.967192 
0.161021 0.24552 0.955925 
0.175795 0.29083 0.940486 
0.192673 0.343065 0.919339 
0.212789 0.403192 0.890032 
0.235967 0.47025 0.850403 
0.261083 0.543104 0.798044 
0.234619 -0.53969 0.80851 
0.216657 -0.467729 0.856907 
0.19897 -0.403297 0.893175 
0.182292 -0.3458 0.920431 
0.167454 -0.29587 0.940436 
0.154128 -0.252405 0.955268 
0.141702 -0.214763 0.966332 
0.130496 -0.181713 0.974654 
0.121949 -0.152273 0.980786 
0.113268 -0.128682 0.985196 
0.103347 -0.106633 0.988913 
0.107176 -0.0937129 0.989814 
0.0927357 -0.0763996 0.992755 
0.0934159 -0.0624668 0.993666 
0.098253 -0.050334 0.993888 
0.085596 -0.0363306 0.995667 
0.0923777 -0.0252584 0.995404 
0.0818678 -0.013395 0.996553 
0.0905362 -0.00237048 0.99589 
0.0813716 0.00832771 0.996649 
0.0913118 0.0203741 0.995614 
0.0838478 0.0310769 0.995994 
0.0961632 0.0451871 0.994339 
0.0906021 0.0577851 0.994209 
0.0881468 0.0719553 0.993505 
0.101803 0.0886227 0.990849 
0.0968588 0.102213 0.990036 
0.106218 0.124942 0.986462 
0.114196 0.149683 0.982117 
0.121834 0.180863 0.975933 
0.133151 0.215967 0.967279 
0.145768 0.255836 0.955667 
0.160558 0.30181 0.939751 
0.178124 0.354449 0.917953 
0.198437 0.413957 0.888404 
0.221804 0.480058 0.848733 
0.247025 0.551843 0.796523 
0.213172 -0.551447 0.806514 
0.196353 -0.478993 0.855577 
0.178799 -0.41351 0.892771 
0.163005 -0.355662 0.92029 
0.148962 -0.304434 0.940813 
0.136003 -0.259984 0.955987 
0.124774 -0.221181 0.967218 
0.114534 -0.187718 0.975523 
0.106687 -0.158181 0.98163 
0.0984916 -0.133164 0.986188 
0.0909804 -0.111278 0.989616 
0.0873578 -0.0902696 0.992079 
0.0783951 -0.0719816 0.99432 
0.0767415 -0.0587224 0.99532 
0.0813929 -0.0472644 0.995561 
0.0705888 -0.0338003 0.996933 
0.0765841 -0.0235658 0.996785 
0.0674953 -0.012195 0.997645 
0.0752162 -0.00219213 0.997165 
0.0669038 0.00814068 0.997726 
0.075563 0.0190838 0.996958 
0.0687542 0.029336 0.997202 
0.0793591 0.0427135 0.995931 
0.0746366 0.0541005 0.995742 
0.0733922 0.0670222 0.995049 
0.0818865 0.0856964 0.992951 
0.0853011 0.108016 0.990483 
0.0923132 0.131 0.987075 
0.0997622 0.157227 0.982511 
0.107648 0.18777 0.976296 
0.118062 0.222853 0.967677 
0.130685 0.263014 0.9559 
0.145333 0.308969 0.939903 
0.162692 0.361165 0.9182 
0.182898 0.419744 0.889024 
0.206255 0.484751 0.849986 
0.230886 0.555175 0.799045 
0.191889 -0.559424 0.806364 
0.176343 -0.486949 0.855443 
0.159589 -0.422056 0.892412 
0.144556 -0.363245 0.920411 
0.131093 -0.311551 0.941143 
0.119167 -0.265662 0.956673 
0.108565 -0.226188 0.968015 
0.0992821 -0.191448 0.976469 
0.0916486 -0.161867 0.982547 
0.0845743 -0.136309 0.98705 
0.0778281 -0.114597 0.990359 
0.0746634 -0.0958623 0.99259 
0.0703398 -0.0806851 0.994255 
0.064148 -0.065777 0.99577 
0.0623587 -0.0538071 0.996602 
0.0665317 -0.0441792 0.996806 
0.0573089 -0.0316379 0.997855 
0.0626451 -0.0222972 0.997787 
0.0544012 -0.0116853 0.998451 
0.0610652 -0.00219921 0.998131 
0.053801 0.00785355 0.998521 
0.0614937 0.0178402 0.997948 
0.0554491 0.0279414 0.99807 
0.0649007 0.0395969 0.997106 
0.0608319 0.0500883 0.99689 
0.0599612 0.0615747 0.9963 
0.0651776 0.0763719 0.994947 
0.0701359 0.0926063 0.99323 
0.0728886 0.112379 0.990988 
0.0789813 0.135127 0.987675 
0.0857656 0.161132 0.983199 
0.0934954 0.191985 0.976934 
0.103549 0.227144 0.96834 
0.115539 0.267554 0.956591 
0.129645 0.313393 0.940732 
0.146391 0.364989 0.919431 
0.165863 0.422469 0.891072 
0.188554 0.48568 0.853559 
0.211531 0.553984 0.805206 
0.169972 -0.563781 0.808246 
0.157015 -0.493935 0.855204 
0.140645 -0.43047 0.89158 
0.12676 -0.372327 0.919404 
0.114291 -0.320249 0.940414 
0.103267 -0.273754 0.95624 
0.0935398 -0.232913 0.967989 
0.0847661 -0.197473 0.976637 
0.077849 -0.166479 0.982967 
0.0714285 -0.140035 0.987567 
0.0652519 -0.116952 0.990992 
0.0616326 -0.0965388 0.993419 
0.0576837 -0.0790535 0.9952 
0.0529277 -0.0638496 0.996555 
0.050062 -0.0506866 0.997459 
0.052661 -0.040954 0.997772 
0.0453497 -0.0307731 0.998497 
0.0503992 -0.0212118 0.998504 
0.043414 -0.0111204 0.998995 
0.0498006 -0.00176594 0.998758 
0.0428921 0.0077122 0.99905 
0.0494206 0.0178654 0.998618 
0.0439063 0.0277528 0.99865 
0.0510897 0.0380471 0.997969 
0.0479586 0.0484008 0.997676 
0.0497186 0.062412 0.996811 
0.0536382 0.0776025 0.99554 
0.0575199 0.0951935 0.993796 
0.0609297 0.115745 0.991408 
0.0662619 0.139247 0.988038 
0.0724844 0.166354 0.983398 
0.0799458 0.197362 0.977066 
0.0892164 0.233243 0.968317 
0.10022 0.273446 0.956652 
0.113599 0.319176 0.940862 
0.128635 0.369327 0.920354 
0.146796 0.424931 0.893244 
0.168312 0.4851 0.858108 
0.187572 0.549077 0.814452 
0.145385 -0.564595 0.812463 
0.137863 -0.504525 0.85232 
0.122364 -0.442961 0.888151 
0.109511 -0.38532 0.916262 
0.0980783 -0.331869 0.938213 
0.0880444 -0.284036 0.954763 
0.0789525 -0.241999 0.967059 
0.0714158 -0.204996 0.976154 
0.0648027 -0.173258 0.982742 
0.0591933 -0.145847 0.987535 
0.0539931 -0.122113 0.991047 
0.0504872 -0.101419 0.993562 
0.0470142 -0.0838047 0.995373 
0.0439308 -0.0679806 0.996719 
0.0405278 -0.0537602 0.997731 
0.0401098 -0.0404242 0.998377 
0.0353933 -0.0287443 0.99896 
0.0395278 -0.0198471 0.999021 
0.0336203 -0.00974961 0.999387 
0.0389187 -0.00150083 0.999241 
0.0332679 0.00714439 0.999421 
0.038658 0.0169723 0.999108 
0.0342076 0.026465 0.999064 
0.0387129 0.0382535 0.998518 
0.0385071 0.0517244 0.997919 
0.0402812 0.0668212 0.996952 
0.043414 0.0824747 0.995647 
0.0465361 0.100488 0.993849 
0.0495623 0.121525 0.99135 
0.054366 0.145343 0.987886 
0.0598277 0.1729 0.983121 
0.066394 0.204773 0.976555 
0.0748241 0.240853 0.967673 
0.0845374 0.281861 0.955724 
0.0960262 0.327339 0.940015 
0.109856 0.377736 0.919373 
0.125585 0.431247 0.893451 
0.145564 0.488267 0.860469 
0.155785 0.541045 0.826439 
0.122309 -0.563132 0.817265 
0.110801 -0.483898 0.868082 
0.094916 -0.412425 0.906033 
0.0828972 -0.351266 0.932599 
0.0730154 -0.298825 0.951511 
0.064919 -0.253296 0.965208 
0.0577244 -0.214277 0.975066 
0.0518364 -0.180742 0.982164 
0.0469441 -0.151825 0.987292 
0.0427352 -0.127368 0.990934 
0.0391123 -0.106081 0.993588 
0.0367907 -0.0876815 0.995469 
0.034055 -0.0723146 0.9968 
0.031851 -0.058335 0.997789 
0.0309824 -0.0457576 0.998472 
0.0290175 -0.0354431 0.99895 
0.0258203 -0.0254061 0.999344 
0.0299161 -0.0181613 0.999387 
0.024058 -0.0102305 0.999658 
0.0290067 -0.00139462 0.999578 
0.0237148 0.00783912 0.999688 
0.0292191 0.0156801 0.99945 
0.0250161 0.0232359 0.999417 
0.0277466 0.0332976 0.99906 
0.0291379 0.0438685 0.998612 
0.0294077 0.0564263 0.997974 
0.0307854 0.0706003 0.99703 
0.0330859 0.0867608 0.99568 
0.0354527 0.105273 0.993811 
0.0382778 0.1268 0.99119 
0.0419535 0.151781 0.987523 
0.0466951 0.180399 0.982484 
0.0522824 0.213365 0.975573 
0.0591216 0.251278 0.966108 
0.0677348 0.294344 0.953296 
0.0778341 0.343414 0.935953 
0.0907718 0.399353 0.912293 
0.109543 0.464198 0.878932 
0.122384 0.533974 0.836597 
0.0954943 -0.559434 0.823355 
0.0902427 -0.49677 0.863178 
0.0777266 -0.433172 0.897954 
0.0666278 -0.371217 0.926153 
0.0577896 -0.315973 0.947007 
0.0502317 -0.267962 0.962119 
0.0440221 -0.226699 0.972969 
0.0390301 -0.191198 0.980775 
0.0348731 -0.161146 0.986314 
0.0311779 -0.135543 0.990281 
0.0285588 -0.113133 0.993169 
0.0264153 -0.0945138 0.995173 
0.0243301 -0.0780479 0.996653 
0.0228704 -0.0637689 0.997703 
0.0218389 -0.0509651 0.998462 
0.0204732 -0.0397741 0.998999 
0.0189092 -0.0296106 0.999383 
0.0194318 -0.0185489 0.999639 
0.0163226 -0.00942962 0.999822 
0.0212578 -0.00115325 0.999773 
0.016085 0.00747351 0.999843 
0.0187795 0.0166066 0.999686 
0.017777 0.0278142 0.999455 
0.0192698 0.038225 0.999083 
0.0198294 0.0495142 0.998577 
0.0202721 0.062639 0.99783 
0.0214098 0.0775601 0.996758 
0.0230465 0.094157 0.995291 
0.0246658 0.113497 0.993232 
0.0267173 0.135849 0.990369 
0.0296446 0.161499 0.986428 
0.0328772 0.191451 0.980951 
0.0372288 0.225745 0.973475 
0.0423547 0.265194 0.963264 
0.0485251 0.310281 0.949405 
0.0564044 0.360833 0.930923 
0.0666964 0.416834 0.906533 
0.0787372 0.472936 0.877571 
0.0806489 0.527656 0.845621 
0.0704907 -0.554901 0.828925 
0.0613188 -0.473027 0.878911 
0.0501884 -0.400314 0.915003 
0.0413829 -0.338548 0.940039 
0.0347323 -0.285928 0.957621 
0.0295534 -0.241309 0.969998 
0.0252045 -0.203465 0.978758 
0.0217884 -0.17146 0.98495 
0.0193178 -0.143746 0.989426 
0.0171262 -0.120709 0.99254 
0.015481 -0.10046 0.994821 
0.0144163 -0.0832711 0.996423 
0.0132564 -0.0683932 0.99757 
0.0126216 -0.0551134 0.9984 
0.012032 -0.0437986 0.998968 
0.0109857 -0.0331738 0.999389 
0.0113562 -0.0236975 0.999655 
0.0106259 -0.0152206 0.999828 
0.00837822 -0.0066364 0.999943 
0.0125193 -0.000731585 0.999921 
0.00824656 0.00437118 0.999956 
0.0102377 0.0135704 0.999856 
0.0107169 0.0219837 0.999701 
0.0100454 0.0320657 0.999435 
0.0105096 0.0423982 0.999046 
0.0107402 0.0543488 0.998464 
0.0109353 0.0679395 0.99763 
0.0115784 0.0833412 0.996454 
0.0122542 0.10108 0.994803 
0.0132025 0.121365 0.99252 
0.0143335 0.14523 0.989294 
0.0158468 0.17255 0.984873 
0.0178951 0.204242 0.978757 
0.0200967 0.241083 0.970296 
0.0232612 0.283362 0.958731 
0.0268551 0.332408 0.942753 
0.0315255 0.388549 0.920889 
0.0388448 0.453137 0.890594 
0.0408454 0.524833 0.850224 
0.0442691 -0.54927 0.834472 
0.0366291 -0.484984 0.873755 
0.0292714 -0.422092 0.90608 
0.0228282 -0.360528 0.932469 
0.0174723 -0.305748 0.951952 
0.0132233 -0.258705 0.965866 
0.0100928 -0.218762 0.975726 
0.00798751 -0.184504 0.982799 
0.00617747 -0.15577 0.987774 
0.00493492 -0.131121 0.991354 
0.00434021 -0.109662 0.99396 
0.00368382 -0.0918988 0.995762 
0.00337289 -0.0758287 0.997115 
0.00322335 -0.0621512 0.998062 
0.00310614 -0.0498375 0.998753 
0.00286392 -0.0391908 0.999228 
0.00276901 -0.0288797 0.999579 
0.00295129 -0.0202075 0.999791 
0.00236979 -0.0116152 0.99993 
0.00184182 -0.00050463 0.999998 
0.00212763 0.010441 0.999943 
0.00248176 0.0188586 0.999819 
0.00195767 0.0275397 0.999619 
0.00190422 0.0382577 0.999266 
0.00169725 0.0495272 0.998771 
0.00137073 0.0618338 0.998086 
0.0012249 0.0764393 0.997073 
0.0010671 0.092659 0.995697 
0.00101654 0.111478 0.993766 
0.000758246 0.133097 0.991103 
0.00090276 0.158242 0.9874 
0.000724679 0.187401 0.982283 
0.00092158 0.221079 0.975255 
0.00101247 0.260113 0.965578 
0.00102989 0.305113 0.952316 
0.00122833 0.356249 0.93439 
0.000945537 0.412211 0.911088 
0.00053183 0.468647 0.883386 
-0.000164287 0.525156 0.851006 
0.0158302 -0.539913 0.841572 
0.00549006 -0.458331 0.888764 
0.00111364 -0.388641 0.921388 
-0.002552 -0.328905 0.94436 
-0.00521224 -0.27838 0.960457 
-0.00683191 -0.235298 0.971899 
-0.00806636 -0.198958 0.979975 
-0.00850212 -0.167978 0.985754 
-0.00829302 -0.141176 0.98995 
-0.00839803 -0.118787 0.992884 
-0.00795394 -0.0989483 0.995061 
-0.00732586 -0.0823789 0.996574 
-0.00685949 -0.0673894 0.997703 
-0.00647185 -0.0545914 0.998488 
-0.00617541 -0.0431348 0.99905 
-0.0052237 -0.0329639 0.999443 
-0.00586896 -0.0231209 0.999715 
-0.00542165 -0.0152472 0.999869 
-0.00198427 -0.00630183 0.999978 
-0.00831695 -0.000673817 0.999965 
-0.00209752 0.00470498 0.999987 
-0.00554107 0.0136122 0.999892 
-0.00623193 0.0223673 0.99973 
-0.00575786 0.0321422 0.999467 
-0.00701368 0.0428379 0.999057 
-0.00780414 0.0544726 0.998485 
-0.00823955 0.0682424 0.997635 
-0.00931634 0.083445 0.996469 
-0.0103439 0.101045 0.994828 
-0.0113808 0.121411 0.992537 
-0.0127596 0.145078 0.989338 
-0.0144568 0.172242 0.984949 
-0.0160576 0.203937 0.978852 
-0.0185156 0.240643 0.970437 
-0.0209126 0.283108 0.95886 
-0.0245713 0.332049 0.942942 
-0.0292214 0.388903 0.920815 
-0.0369139 0.453557 0.890463 
-0.0405201 0.526404 0.849268 
-0.0146784 -0.530071 0.847826 