# vtk DataFile Version 3.0 
Exported using Morpho https://github.com/Morpho-lang/morpho 
ASCII 
DATASET UNSTRUCTURED_GRID 

POINTS 1245 float 
-0.303845 -0.952721 0 
-0.250833 -0.96803 0 
-0.195084 -0.980787 0 
-0.146308 -0.989239 0 
-0.0940719 -0.995565 0 
-0.0475118 -0.998871 0 
-0.000246339 -1 0 
0.0470875 -0.998891 0 
0.0937543 -0.995595 0 
0.146139 -0.989264 0 
0.195062 -0.980791 0 
0.250843 -0.968028 0 
0.303953 -0.952687 0 
-0.409153 -0.912466 0 
-0.356519 -0.934288 0 
-0.308871 -0.898929 0 
-0.258282 -0.916037 0 
-0.207345 -0.934859 0 
-0.154868 -0.930629 0 
-0.104343 -0.948989 0 
-0.0520099 -0.939193 0 
-8.5762e-05 -0.954582 0 
0.0518744 -0.939288 0 
0.104354 -0.949042 0 
0.154696 -0.9306 0 
0.207366 -0.934975 0 
0.258274 -0.916081 0 
0.308979 -0.898924 0 
0.356593 -0.93426 0 
0.409236 -0.912429 0 
-0.513788 -0.857917 0 
-0.461695 -0.887039 0 
-0.411157 -0.857936 0 
-0.359855 -0.879963 0 
-0.306888 -0.847481 0 
-0.254732 -0.866979 0 
-0.201991 -0.889059 0 
-0.149956 -0.874108 0 
-0.100608 -0.900088 0 
-0.0497575 -0.880388 0 
2.4595e-05 -0.904789 0 
0.0496869 -0.8804 0 
0.100612 -0.900177 0 
0.149872 -0.874171 0 
0.202071 -0.889165 0 
0.254695 -0.867031 0 
0.306946 -0.847482 0 
0.359894 -0.879943 0 
0.411236 -0.857929 0 
0.461748 -0.887011 0 
0.513842 -0.857885 0 
-0.564741 -0.825268 0 
-0.512908 -0.802945 0 
-0.462372 -0.832348 0 
-0.410124 -0.804631 0 
-0.358606 -0.827415 0 
-0.305781 -0.795641 0 
-0.25358 -0.816639 0 
-0.200756 -0.839997 0 
-0.149043 -0.818944 0 
-0.0987265 -0.846667 0 
-0.0490473 -0.822548 0 
5.00659e-05 -0.849932 0 
0.0490834 -0.822542 0 
0.0987838 -0.846676 0 
0.148997 -0.818924 0 
0.200826 -0.840131 0 
0.253508 -0.816728 0 
0.305831 -0.795701 0 
0.358581 -0.827419 0 
0.410181 -0.804654 0 
0.462414 -0.83234 0 
0.512965 -0.802929 0 
0.564777 -0.825243 0 
-0.660798 -0.750564 0 
-0.614015 -0.789295 0 
-0.561786 -0.769772 0 
-0.510673 -0.747856 0 
-0.460836 -0.778365 0 
-0.408794 -0.751554 0 
-0.357337 -0.774971 0 
-0.304815 -0.743684 0 
-0.252907 -0.765535 0 
-0.200631 -0.789263 0 
-0.149244 -0.764328 0 
-0.0986912 -0.791935 0 
-0.0492815 -0.765764 0 
4.16586e-05 -0.79382 0 
0.0492411 -0.765708 0 
0.0987508 -0.791951 0 
0.149196 -0.764326 0 
0.200666 -0.789356 0 
0.252841 -0.765599 0 
0.304862 -0.743741 0 
0.357323 -0.775038 0 
0.408863 -0.751626 0 
0.460863 -0.778382 0 
0.510716 -0.747859 0 
0.561819 -0.769761 0 
0.614041 -0.789274 0 
0.660811 -0.750552 0 
-0.707107 -0.707107 0 
-0.654819 -0.699058 0 
-0.60813 -0.73348 0 
-0.558104 -0.71337 0 
-0.509495 -0.692659 0 
-0.45935 -0.724356 0 
-0.407328 -0.698865 0 
-0.355968 -0.722823 0 
-0.303722 -0.691387 0 
-0.252254 -0.71362 0 
-0.20067 -0.737336 0 
-0.149608 -0.710068 0 
-0.0991558 -0.737129 0 
-0.0495872 -0.709825 0 
-2.23646e-05 -0.737917 0 
0.0494408 -0.709766 0 
0.0991291 -0.737116 0 
0.149502 -0.710042 0 
0.200696 -0.73743 0 
0.252186 -0.713735 0 
0.303753 -0.691518 0 
0.355952 -0.722893 0 
0.407371 -0.698945 0 
0.459374 -0.724407 0 
0.509524 -0.692668 0 
0.558131 -0.713361 0 
0.608151 -0.733462 0 
0.654824 -0.699048 0 
0.707107 -0.707107 0 
-0.750564 -0.660798 0 
-0.699058 -0.654819 0 
-0.647692 -0.647692 0 
-0.603437 -0.675718 0 
-0.55905 -0.655305 0 
-0.508501 -0.639581 0 
-0.457509 -0.671321 0 
-0.405555 -0.646545 0 
-0.354417 -0.670703 0 
-0.302427 -0.639219 0 
-0.251503 -0.661417 0 
-0.20061 -0.684911 0 
-0.149717 -0.655943 0 
-0.0995004 -0.682466 0 
-0.0498216 -0.654561 0 
-5.02113e-05 -0.682664 0 
0.0496787 -0.654499 0 
0.0994374 -0.682501 0 
0.149603 -0.655909 0 
0.200573 -0.684972 0 
0.251388 -0.661524 0 
0.302407 -0.639359 0 
0.354397 -0.670836 0 
0.405575 -0.646641 0 
0.457525 -0.67138 0 
0.508497 -0.639623 0 
0.559063 -0.655324 0 
0.603436 -0.675715 0 
0.64769 -0.64769 0 
0.699048 -0.654824 0 
0.750552 -0.660811 0 
-0.789295 -0.614015 0 
-0.73348 -0.60813 0 
-0.675718 -0.603437 0 
-0.613088 -0.613088 0 
-0.55962 -0.604068 0 
-0.506189 -0.588854 0 
-0.455505 -0.618874 0 
-0.403019 -0.594688 0 
-0.352514 -0.618952 0 
-0.300977 -0.586897 0 
-0.250543 -0.608767 0 
-0.200257 -0.632053 0 
-0.150049 -0.601979 0 
-0.0998281 -0.628222 0 
-0.0500377 -0.599914 0 
-3.12334e-05 -0.628076 0 
0.0498927 -0.599835 0 
0.0997818 -0.628253 0 
0.149924 -0.601867 0 
0.200214 -0.632118 0 
0.250423 -0.608915 0 
0.30086 -0.587085 0 
0.352457 -0.619096 0 
0.402948 -0.594743 0 
0.455483 -0.618952 0 
0.506147 -0.588901 0 
0.55964 -0.604067 0 
0.613069 -0.613069 0 
0.675715 -0.603436 0 
0.733462 -0.608151 0 
0.789274 -0.614041 0 
-0.825268 -0.564741 0 
-0.769772 -0.561786 0 
-0.71337 -0.558104 0 
-0.655305 -0.55905 0 
-0.604068 -0.55962 0 
-0.551031 -0.551031 0 
-0.497922 -0.537596 0 
-0.451508 -0.567021 0 
-0.399773 -0.542431 0 
-0.350494 -0.567003 0 
-0.301574 -0.534146 0 
-0.250874 -0.555692 0 
-0.200542 -0.579013 0 
-0.150324 -0.548268 0 
-0.100169 -0.57443 0 
-0.0500152 -0.545912 0 
-3.29278e-05 -0.574268 0 
0.0499208 -0.545788 0 
0.100058 -0.574485 0 
0.150038 -0.548073 0 
0.200377 -0.579041 0 
0.250556 -0.55585 0 
0.301273 -0.534348 0 
0.350318 -0.567174 0 
0.399615 -0.542384 0 
0.451404 -0.5671 0 
0.497945 -0.537702 0 
0.551073 -0.551073 0 
0.604067 -0.55964 0 
0.655324 -0.559063 0 
0.713361 -0.558131 0 
0.769761 -0.561819 0 
0.825243 -0.564777 0 
-0.857917 -0.513788 0 
-0.802945 -0.512908 0 
-0.747856 -0.510673 0 
-0.692659 -0.509495 0 
-0.639581 -0.508501 0 
-0.588854 -0.506189 0 
-0.537596 -0.497922 0 
-0.486157 -0.486157 0 
-0.444928 -0.512952 0 
-0.401787 -0.486784 0 
-0.351685 -0.513639 0 
-0.299695 -0.48291 0 
-0.250032 -0.503 0 
-0.200501 -0.526165 0 
-0.149489 -0.495195 0 
-0.0999281 -0.521367 0 
-0.0499712 -0.492294 0 
4.64723e-05 -0.520999 0 
0.050147 -0.492108 0 
0.099934 -0.52133 0 
0.14957 -0.494692 0 
0.200133 -0.526255 0 
0.249839 -0.503309 0 
0.299839 -0.483005 0 
0.351514 -0.513798 0 
0.401881 -0.486608 0 
0.444935 -0.513054 0 
0.486228 -0.486228 0 
0.537702 -0.497945 0 
0.588901 -0.506147 0 
0.639623 -0.508497 0 
0.692668 -0.509524 0 
0.747859 -0.510716 0 
0.802929 -0.512965 0 
0.857885 -0.513842 0 
-0.887039 -0.461695 0 
-0.832348 -0.462372 0 
-0.778365 -0.460836 0 
-0.724356 -0.45935 0 
-0.671321 -0.457509 0 
-0.618874 -0.455505 0 
-0.567021 -0.451508 0 
-0.512952 -0.444928 0 
-0.450685 -0.450685 0 
-0.397667 -0.437543 0 
-0.348492 -0.462546 0 
-0.295416 -0.432968 0 
-0.247004 -0.450633 0 
-0.198702 -0.473818 0 
-0.150161 -0.441625 0 
-0.100085 -0.468395 0 
-0.0502271 -0.439281 0 
0.000144229 -0.468374 0 
0.0504178 -0.439106 0 
0.100428 -0.468348 0 
0.150697 -0.441105 0 
0.199103 -0.473881 0 
0.247983 -0.450921 0 
0.296569 -0.432268 0 
0.348831 -0.462562 0 
0.397506 -0.4368 0 
0.450637 -0.450637 0 
0.513054 -0.444935 0 
0.5671 -0.451404 0 
0.618952 -0.455483 0 
0.67138 -0.457525 0 
0.724407 -0.459374 0 
0.778382 -0.460863 0 
0.83234 -0.462414 0 
0.887011 -0.461748 0 
-0.912466 -0.409153 0 
-0.857936 -0.411157 0 
-0.804631 -0.410124 0 
-0.751554 -0.408794 0 
-0.698865 -0.407328 0 
-0.646545 -0.405555 0 
-0.594688 -0.403019 0 
-0.542431 -0.399773 0 
-0.486784 -0.401787 0 
-0.437543 -0.397667 0 
-0.387256 -0.387256 0 
-0.344215 -0.411459 0 
-0.30136 -0.381507 0 
-0.25021 -0.395692 0 
-0.200211 -0.419975 0 
-0.150955 -0.389014 0 
-0.100617 -0.416095 0 
-0.0503197 -0.386922 0 
-4.02994e-05 -0.416525 0 
0.05006 -0.386948 0 
0.100784 -0.416323 0 
0.150432 -0.388572 0 
0.200855 -0.420694 0 
0.25086 -0.396905 0 
0.301746 -0.379789 0 
0.344135 -0.410678 0 
0.385823 -0.385823 0 
0.4368 -0.397506 0 
0.486608 -0.401881 0 
0.542384 -0.399615 0 
0.594743 -0.402948 0 
0.646641 -0.405575 0 
0.698945 -0.407371 0 
0.751626 -0.408863 0 
0.804654 -0.410181 0 
0.857929 -0.411236 0 
0.912429 -0.409236 0 
-0.934288 -0.356519 0 
-0.879963 -0.359855 0 
-0.827415 -0.358606 0 
-0.774971 -0.357337 0 
-0.722823 -0.355968 0 
-0.670703 -0.354417 0 
-0.618952 -0.352514 0 
-0.567003 -0.350494 0 
-0.513639 -0.351685 0 
-0.462546 -0.348492 0 
-0.411459 -0.344215 0 
-0.351697 -0.351697 0 
-0.29839 -0.336232 0 
-0.249846 -0.342529 0 
-0.200971 -0.367271 0 
-0.149995 -0.337521 0 
-0.100435 -0.3646 0 
-0.0498692 -0.335025 0 
-6.88684e-05 -0.365025 0 
0.0495433 -0.334795 0 
0.0996798 -0.364834 0 
0.148162 -0.337172 0 
0.199644 -0.368939 0 
0.24763 -0.345582 0 
0.295348 -0.332889 0 
0.34978 -0.34978 0 
0.410678 -0.344135 0 
0.462562 -0.348831 0 
0.513798 -0.351514 0 
0.567174 -0.350318 0 
0.619096 -0.352457 0 
0.670836 -0.354397 0 
0.722893 -0.355952 0 
0.775038 -0.357323 0 
0.827419 -0.358581 0 
0.879943 -0.359894 0 
0.93426 -0.356593 0 
-0.952721 -0.303845 0 
-0.898929 -0.308871 0 
-0.847481 -0.306888 0 
-0.795641 -0.305781 0 
-0.743684 -0.304815 0 
-0.691387 -0.303722 0 
-0.639219 -0.302427 0 
-0.586897 -0.300977 0 
-0.534146 -0.301574 0 
-0.48291 -0.299695 0 
-0.432968 -0.295416 0 
-0.381507 -0.30136 0 
-0.336232 -0.29839 0 
-0.288184 -0.288184 0 
-0.242975 -0.290577 0 
-0.198059 -0.315051 0 
-0.148383 -0.285894 0 
-0.0994753 -0.313232 0 
-0.0507184 -0.283118 0 
-0.000202902 -0.313447 0 
0.0500077 -0.282824 0 
0.0988289 -0.312817 0 
0.148102 -0.28482 0 
0.195742 -0.317413 0 
0.240766 -0.295824 0 
0.285014 -0.285014 0 
0.332889 -0.295348 0 
0.379789 -0.301746 0 
0.432268 -0.296569 0 
0.483005 -0.299839 0 
0.534348 -0.301273 0 
0.587085 -0.30086 0 
0.639359 -0.302407 0 
0.691518 -0.303753 0 
0.743741 -0.304862 0 
0.795701 -0.305831 0 
0.847482 -0.306946 0 
0.898924 -0.308979 0 
0.952687 -0.303953 0 
-0.96803 -0.250833 0 
-0.916037 -0.258282 0 
-0.866979 -0.254732 0 
-0.816639 -0.25358 0 
-0.765535 -0.252907 0 
-0.71362 -0.252254 0 
-0.661417 -0.251503 0 
-0.608767 -0.250543 0 
-0.555692 -0.250874 0 
-0.503 -0.250032 0 
-0.450633 -0.247004 0 
-0.395692 -0.25021 0 
-0.342529 -0.249846 0 
-0.290577 -0.242975 0 
-0.239946 -0.239946 0 
-0.194478 -0.26004 0 
-0.151293 -0.23238 0 
-0.101048 -0.260904 0 
-0.0503938 -0.232537 0 
-0.000203281 -0.262984 0 
0.050638 -0.232316 0 
0.100942 -0.260855 0 
0.152412 -0.232597 0 
0.195768 -0.261421 0 
0.241873 -0.241873 0 
0.295824 -0.240766 0 
0.345582 -0.24763 0 
0.396905 -0.25086 0 
0.450921 -0.247983 0 
[...]
POINT_DATA 1245 
VECTORS vectors float
-0.0397365 -0.159542 0.986391 
-0.28755 -0.203713 0.93585 
-0.42633 0.0452359 0.903436 
-0.240175 0.293454 0.925311 
0.0752178 0.0977209 0.992367 
0.252333 -0.0989067 0.962572 
0.0136114 -0.170997 0.985178 
-0.0643688 -0.185317 0.980568 
-0.0899091 -0.282526 0.955037 
-0.129561 -0.0492526 0.990347 
0.07163 -0.0451672 0.996408 
0.192251 0.0888147 0.977319 
0.162943 -0.140668 0.976556 
-0.318382 0.112486 0.941265 
-0.136569 0.23074 0.963384 
-0.05207 0.0923699 0.994362 
-0.0677157 -0.00900994 0.997664 
-0.214182 -0.0143872 0.976688 
-0.150893 0.0612526 0.986651 
0.0497183 0.129226 0.990368 
0.112334 0.0845113 0.99007 
-0.0198498 0.0434092 0.99886 
-0.063006 -0.0459321 0.996956 
-0.0457151 -0.161153 0.98587 
0.0633761 -0.0505275 0.99671 
0.10028 -0.0359618 0.994309 
0.0259975 0.00337116 0.999656 
0.0137462 0.0326329 0.999373 
-0.105047 0.295617 0.949514 
0.287918 0.10759 0.951592 
0.189076 -0.182903 0.964778 
-0.117188 -0.256246 0.959482 
-0.127599 0.056705 0.990203 
-0.153383 0.167273 0.973906 
1.61619e-05 0.117719 0.993047 
0.00471024 0.0847362 0.996392 
-0.0471995 -0.00641789 0.998865 
0.00370517 -0.0339797 0.999416 
-0.00971839 0.0102809 0.9999 
-0.111361 0.0257194 0.993447 
-0.0809302 0.168155 0.982433 
-0.0812085 0.0310973 0.996212 
-0.0158045 -0.0518411 0.99853 
0.0722688 0.0248793 0.997075 
0.130072 0.0384699 0.990758 
0.0672052 0.0395563 0.996955 
0.0581133 0.0391173 0.997543 
0.0627084 0.111639 0.991768 
0.0899699 -0.0455841 0.994901 
0.181264 -0.188535 0.965193 
-0.297208 -0.0939456 0.95018 
0.291285 0.206465 0.934091 
0.0810189 0.0713571 0.994155 
-0.0207844 -0.0690007 0.9974 
0.0154191 0.0685657 0.997527 
-0.0669332 0.0896751 0.993719 
0.0165263 0.042677 0.998952 
-0.0119299 0.0334302 0.99937 
0.00749993 -0.0623617 0.998025 
0.0307574 -0.159686 0.986689 
-0.00715418 -0.0710409 0.997448 
-0.12222 -0.00523064 0.992489 
-0.160812 0.0921911 0.98267 
-0.0689691 0.00363692 0.997612 
-0.0368529 -0.014432 0.999216 
-0.00191287 0.0359725 0.999351 
0.0762553 0.0774907 0.994073 
0.026359 0.0610181 0.997789 
-0.00901851 0.00164252 0.999958 
0.11278 0.0606958 0.991764 
0.0491522 0.0101267 0.99874 
-0.0551396 0.00894212 0.998439 
-0.209813 0.00280854 0.977737 
-0.0545727 0.0806359 0.995249 
0.0742772 0.00376939 0.997231 
0.135755 0.154478 0.978625 
0.0806452 0.15616 0.984434 
-0.00757858 0.0566812 0.998364 
0.0339898 0.0249499 0.999111 
0.0336859 0.0514063 0.99811 
0.0532595 0.0672148 0.996316 
-0.00173074 0.0140227 0.9999 
-0.0208312 -0.0130998 0.999697 
-0.014891 -0.149938 0.988583 
0.0334779 -0.241007 0.969946 
0.0455229 -0.131227 0.990307 
0.043789 -0.0759097 0.996153 
-0.0630146 -0.0300362 0.997561 
0.00122098 -0.0163389 0.999866 
-0.0122334 -0.0119438 0.999854 
-0.00632183 -0.0488785 0.998785 
-0.016138 0.0208726 0.999652 
-0.0812779 0.00328825 0.996686 
-0.0333156 -0.0208824 0.999227 
0.0600982 0.0429148 0.99727 
0.0280492 0.0543263 0.998129 
-0.147087 0.140002 0.979165 
-0.139518 -0.0211314 0.989994 
-0.186052 -0.10433 0.976985 
-0.22786 -0.289577 0.929637 
-0.373414 0.0862473 0.923647 
0.0794376 0.0330292 0.996292 
-0.00761186 0.0563381 0.998383 
0.0214049 0.0988973 0.994867 
-0.042424 0.126167 0.991101 
-0.0936328 -0.0561824 0.99402 
-0.00942083 -0.0349925 0.999343 
-0.0427668 -0.0295133 0.998649 
-0.0361711 0.0535339 0.997911 
0.00952646 0.0193679 0.999767 
0.0692748 -0.0342909 0.997008 
0.0345274 -0.173484 0.984231 
0.0736002 -0.173901 0.982009 
0.0792426 -0.141842 0.986712 
-0.0535239 0.0190654 0.998385 
-0.0263237 -0.0207149 0.999439 
0.0216762 -0.0140125 0.999667 
0.0853265 -0.0324938 0.995823 
0.131715 -0.124093 0.98349 
-0.0667629 -0.0731811 0.995082 
-0.0625741 -0.0536616 0.996597 
0.00944683 -0.0485814 0.998775 
0.083604 7.29749e-07 0.996499 
0.0811902 -0.0151907 0.996583 
0.00344283 0.0835564 0.996497 
0.00993391 0.0333028 0.999396 
-0.139753 -0.062593 0.988206 
-0.263758 -0.0439357 0.963588 
-0.318455 0.148066 0.936303 
-0.407389 0.207887 0.889279 
0.146077 0.127886 0.980972 
-0.0101241 0.118989 0.992844 
-0.0800422 0.0729048 0.994122 
-0.083039 0.0999652 0.99152 
-0.112608 0.0524849 0.992252 
-0.0605222 -0.108231 0.992282 
-0.0599519 -0.149383 0.98696 
-0.0414891 -0.131212 0.990486 
-0.0961744 -0.00620798 0.995345 
0.0998622 -0.0296162 0.99456 
0.182217 -0.0252644 0.982934 
0.17113 -0.0958629 0.980574 
0.0938907 -0.0788867 0.992452 
0.0052411 -0.024848 0.999678 
-0.172221 0.111943 0.978677 
-0.113876 0.060992 0.991621 
-0.03856 -0.0102493 0.999204 
0.121981 -0.0651323 0.990393 
0.125838 -0.109382 0.986002 
0.0376204 -0.0600709 0.997485 
0.00646645 -0.0706662 0.997479 
0.0280558 -0.0327146 0.999071 
0.0894684 -0.028231 0.995589 
0.00952433 -0.0633423 0.997946 
0.0397179 0.0111985 0.999148 
-0.0288884 0.00351967 0.999576 
-0.115174 0.0309868 0.992862 
-0.198325 0.0770893 0.9771 
-0.234482 0.187345 0.953897 
-0.292222 0.242685 0.925046 
-0.259904 0.400187 0.878806 
0.127757 0.0296167 0.991363 
-0.00924763 0.121984 0.992489 
-0.0973716 0.107529 0.989422 
-0.0815378 0.014889 0.996559 
-0.043133 -0.000363546 0.999069 
0.0104306 -0.0961626 0.995311 
-0.0118142 -0.20381 0.978939 
-0.0201988 -0.221038 0.975056 
0.0242294 -0.0603411 0.997884 
0.0720996 -0.102494 0.992117 
0.1746 -0.0392775 0.983856 
0.201761 -0.0422218 0.978524 
0.0391045 -0.0680294 0.996917 
-0.0592409 -0.000141182 0.998244 
-0.127033 0.0158071 0.991773 
-0.159673 0.046562 0.986071 
0.0159658 -0.0356568 0.999237 
0.0542877 -0.0287056 0.998113 
0.0562788 -0.0406522 0.997587 
0.0653923 -0.0435564 0.996909 
0.0512331 0.0517551 0.997345 
0.0876717 0.0629012 0.994162 
-0.00793361 -0.0369053 0.999287 
-0.0130818 -0.0690465 0.997528 
-0.0543819 -0.0478024 0.997375 
-0.101647 -0.0801461 0.991587 
-0.190503 -0.000613317 0.981686 
-0.221312 0.128997 0.966634 
-0.168884 0.175189 0.969942 
-0.215773 0.15134 0.964644 
-0.11229 -0.0396343 0.992885 
-0.11331 -0.187129 0.975778 
-0.0751469 -0.0800079 0.993958 
-0.146727 0.0483363 0.987995 
-0.157673 0.0756573 0.984589 
-0.115183 0.00466487 0.993333 
-0.0700614 -0.0315973 0.997042 
-0.0497115 -0.0859877 0.995055 
0.00167328 -0.205472 0.978662 
-0.0258968 -0.164639 0.986014 
-0.0162165 -0.117783 0.992907 
0.0821033 -0.107734 0.990784 
0.117112 -0.105711 0.987477 
0.109978 -0.0425527 0.993023 
-0.0371948 -0.0383983 0.99857 
-0.0720055 -0.0946917 0.992899 
-0.128332 -0.0642196 0.98965 
-0.0613241 -0.0875723 0.994269 
-0.0726346 0.0191865 0.997174 
0.0613027 0.0649614 0.996003 
-0.0216631 0.0332778 0.999211 
0.0184635 -0.00227197 0.999827 
0.0652699 0.0774424 0.994858 
0.165283 0.0814216 0.98288 
0.0798676 0.011898 0.996734 
0.080699 -0.0172175 0.99659 
0.00727214 -0.0394322 0.999196 
0.0186252 -0.101486 0.994663 
-0.15046 -0.105972 0.98292 
-0.184698 -0.032995 0.982241 
-0.133122 0.0477162 0.98995 
-0.0982325 0.0940344 0.990711 
-0.146919 -0.0652956 0.986991 
-0.202845 -0.20919 0.956605 
-0.0266025 -0.195723 0.980298 
0.0633443 -0.19393 0.978968 
0.108404 -0.13455 0.984959 
-0.0796032 0.0706833 0.994317 
-0.129712 0.0699796 0.989079 
-0.0992936 0.00864598 0.995021 
-0.0590363 -0.0447797 0.997251 
-0.0196327 -0.125279 0.991927 
-0.0427516 -0.172339 0.98411 
-0.0135761 -0.0929059 0.995582 
0.0250899 -0.0844382 0.996113 
0.150912 -0.0714264 0.985963 
0.131684 -0.0741766 0.988513 
0.0519314 -0.0275809 0.99827 
-0.0778284 0.0447737 0.995961 
-0.162028 -0.0389791 0.986016 
-0.120756 -0.0421476 0.991787 
-0.0688104 -0.0966675 0.992935 
-0.0880113 -0.00474996 0.996108 
-0.05984 0.101362 0.993048 
-0.13235 0.0708889 0.988665 
-0.0353771 0.0256704 0.999044 
0.0680334 0.0896267 0.993649 
0.111748 0.145855 0.982974 
0.105216 0.0416882 0.993575 
0.0773256 0.0519878 0.99565 
0.124721 0.00460641 0.992181 
0.139025 -0.0986207 0.985366 
0.0597565 -0.185544 0.980817 
-0.119497 -0.127135 0.984661 
-0.10441 -0.0436731 0.993575 
-0.05959 0.0515091 0.996893 
-0.0446828 0.0330741 0.998454 
-0.121368 -0.0495145 0.991372 
-0.248335 0.0866349 0.964792 
-0.097872 -0.0628093 0.993215 
0.015471 -0.131768 0.99116 
0.181486 -0.226316 0.956997 
0.121717 -0.0596213 0.990773 
0.0524304 0.0276603 0.998241 
0.0825547 -0.0503062 0.995316 
0.125343 -0.0180869 0.991949 
0.0770179 -0.143613 0.986632 
-0.0267154 -0.118428 0.992603 
-0.00491744 -0.0530633 0.998579 
0.0981389 -0.0392309 0.994399 
0.138235 -0.0234137 0.990123 
0.0975953 -0.0156246 0.995104 
0.0178497 0.0627899 0.997867 
-0.0402442 0.153118 0.987388 
-0.115404 0.0475389 0.99218 
-0.0715143 -0.00497214 0.997427 
-0.0945459 -0.0824778 0.992098 
-0.103457 -0.0608174 0.992773 
-0.139796 0.0762109 0.987243 
-0.122691 0.058579 0.990715 
-0.0723021 0.022702 0.997124 
0.0277459 0.091777 0.995393 
0.0945072 0.166662 0.981474 
0.0708951 0.0976231 0.992695 
0.0386596 0.0882186 0.995351 
0.0500971 -0.0108345 0.998686 
0.0724493 -0.177997 0.98136 
0.00532634 -0.144277 0.989523 
-0.0413769 -0.0283922 0.99874 
-0.084387 0.0495329 0.995201 
-0.0660623 0.0794611 0.994647 
-0.0273582 0.0590812 0.997878 
0.00539261 0.0995591 0.995017 
0.117651 0.373908 0.919974 
-0.13663 -0.0957362 0.985985 
-0.0411711 -0.0902162 0.995071 
0.131963 -0.218693 0.966829 
0.155866 -0.232102 0.960122 
0.0885236 -0.148445 0.984951 
0.0204416 -0.14082 0.989824 
0.0131563 -0.187431 0.98219 
0.0871023 -0.212147 0.973348 
0.0581113 -0.162396 0.985013 
-0.0254536 -0.0560425 0.998104 
-0.0288343 -0.0275097 0.999206 
0.0644024 0.002854 0.99792 
0.0169026 0.0659887 0.997677 
-0.0123839 0.133954 0.99091 
0.019718 0.155314 0.987668 
0.0712078 0.166552 0.983458 
0.000915872 0.0912027 0.995832 
0.0527189 0.0521284 0.997248 
-0.0618315 -0.102167 0.992844 
-0.0680704 -0.135143 0.988485 
-0.0964402 0.0108312 0.99528 
-0.026369 0.0236506 0.999372 
-0.0046501 0.0358553 0.999346 
0.0958131 0.132184 0.986584 
0.0919394 0.188623 0.977736 
0.0594166 0.129604 0.989784 
0.0121199 0.0764601 0.996999 
-0.0907989 0.016213 0.995737 
-0.110733 -0.0745069 0.991053 
-0.104631 -0.172218 0.979486 
-0.0918166 -0.0383755 0.995036 
-0.0807997 0.0604829 0.994894 
-0.0884272 0.0976753 0.991282 
-0.0145104 0.102924 0.994583 
0.0761223 0.100299 0.992041 
0.167085 0.207157 0.963934 
0.300171 0.353964 0.885781 
-0.0305981 -0.0853024 0.995885 
-0.0492825 -0.00742321 0.998757 
0.0501032 -0.143826 0.988334 
0.0463566 -0.277533 0.959597 
-0.0197259 -0.268934 0.962957 
-0.0943941 -0.207981 0.973567 
-0.134448 -0.231116 0.963592 
-0.0111489 -0.320849 0.947065 
0.0721278 -0.237228 0.968773 
0.0567093 -0.0323502 0.997866 
0.0131747 0.0708122 0.997403 
-0.0123665 0.0434058 0.998981 
-0.0273262 0.180902 0.983121 
-0.0603833 0.165471 0.984364 
0.00700248 0.174658 0.984604 
0.115902 0.0798353 0.990047 
0.109937 0.0132948 0.99385 
0.042374 0.0394673 0.998322 
-0.0197501 -0.0501502 0.998546 
-0.00394653 -0.141164 0.989978 
-0.0189573 -0.0807234 0.996556 
0.0360108 -0.0909521 0.995204 
0.0897802 0.00661421 0.99594 
0.134314 0.107344 0.985108 
0.141664 0.136679 0.980434 
0.0420379 0.060549 0.99728 
-0.0608705 -0.0516046 0.996811 
-0.161667 -0.132261 0.977942 
-0.186242 -0.187654 0.964417 
-0.174856 -0.152998 0.972634 
-0.0790337 0.0615286 0.994971 
-0.0322689 0.110253 0.99338 
0.0265618 0.084204 0.996094 
0.0914597 0.11067 0.98964 
0.127865 0.13386 0.982717 
0.167104 0.228293 0.959145 
0.217759 0.257488 0.941425 
0.0441576 0.196611 0.979487 
0.0387657 0.128125 0.991 
0.0477459 0.0936437 0.99446 
0.00517127 -0.144102 0.989549 
-0.0514377 -0.272169 0.960874 
-0.084535 -0.21481 0.972991 
-0.0770032 -0.218826 0.972721 
0.0248136 -0.311324 0.94998 
0.15223 -0.252864 0.95545 
0.178878 -0.0343279 0.983272 
0.175541 0.132764 0.975479 
0.116902 0.120764 0.985774 
0.0513042 0.0995997 0.993704 
-0.00252093 0.103758 0.994599 
-0.027036 0.13066 0.991058 
-0.00692996 0.109194 0.993996 
0.0769264 -0.0204161 0.996828 
0.102414 -0.0400906 0.993934 
0.044695 -0.0386711 0.998252 
0.0505214 0.0196633 0.998529 
0.201415 -0.105155 0.973845 
0.0728373 -0.139828 0.987493 
-0.0233357 -0.0879354 0.995853 
0.0322771 -0.0595203 0.997705 
0.103657 0.0146472 0.994505 
0.12482 -0.0423205 0.991276 
0.0879747 -0.00467842 0.996112 
0.011785 -0.0900084 0.995871 
-0.0698072 -0.121442 0.990141 
-0.115022 -0.170903 0.978551 
-0.129892 -0.1411 0.981437 
-0.0892672 -0.0379884 0.995283 
0.00887682 0.0874179 0.996132 
0.040461 -0.0199948 0.998981 
0.0768965 -0.0129547 0.996955 
0.12377 0.0650937 0.990174 
0.131943 0.143252 0.980852 
0.095659 0.21288 0.972384 
0.00982119 0.259863 0.965596 
-0.130277 -0.209238 0.969148 
0.0547107 0.0465156 0.997418 
0.082787 0.149925 0.985225 
0.0715152 0.137522 0.987914 
0.0909325 -0.0355337 0.995223 
0.0140803 -0.107787 0.994074 
-0.0396101 -0.13492 0.990064 
0.0445193 -0.177865 0.983047 
0.200218 -0.21344 0.95622 
0.229299 -0.093333 0.968871 
0.240252 0.0891882 0.966604 
0.223747 0.0759449 0.971684 
0.175869 -0.0129768 0.984328 
0.0597736 0.0452244 0.997187 
0.0214468 -0.0133244 0.999681 
0.0133299 -0.0237391 0.999629 
0.0647698 -0.150337 0.986511 
0.0759994 -0.142276 0.986905 
0.140458 -0.121663 0.982583 
0.141462 -0.0317154 0.989436 
0.251867 -0.0338566 0.96717 
0.140538 -0.0654804 0.987908 
-0.0362562 0.101144 0.994211 
-0.0500343 -0.0573541 0.997099 
0.0742578 -0.160981 0.98416 
0.0538233 -0.171886 0.983645 
0.0218717 -0.0824048 0.996359 
0.0518493 -0.0679917 0.996338 
0.0317874 -0.057092 0.997863 
-0.0319342 -0.073337 0.996796 
-0.114158 -0.0348343 0.992852 
-0.0734322 0.00191795 0.997298 
0.0568705 -0.088301 0.994469 
0.109483 -0.117865 0.986976 
0.108641 -0.0713708 0.991516 
0.172009 0.0669682 0.982817 
0.117678 0.0899605 0.988969 
0.0123102 0.180377 0.98352 
-0.0595477 0.24555 0.967553 
0.0746759 -0.351575 0.933177 
0.0109587 -0.180155 0.983577 
0.0230034 -0.00809068 0.999703 
-0.00705109 0.18446 0.982815 
0.0437464 0.138575 0.989385 
0.0195224 0.0242284 0.999516 
-0.0371874 -0.0341529 0.998725 
-0.0656196 -0.0913477 0.993655 
0.086931 -0.0664706 0.993994 
0.13068 -0.0153204 0.991306 
0.0936596 0.0882794 0.991683 
0.123399 0.0535814 0.99091 
0.172311 -0.0126988 0.984961 
0.0860006 -0.0446544 0.995294 
0.0349952 0.0204998 0.999177 
0.021906 -0.0433198 0.998821 
0.105947 -0.213782 0.971119 
0.163528 -0.222622 0.961092 
0.252138 -0.23455 0.938836 
0.238355 -0.100883 0.965924 
0.238358 0.0130992 0.971089 
0.158927 0.0891363 0.983258 
0.0711207 0.163317 0.984007 
0.126629 0.0138169 0.991854 
0.0559037 -0.204136 0.977345 
-0.0600811 -0.163811 0.98466 
0.00801932 0.0221581 0.999722 
0.102829 -0.00310805 0.994694 
0.10086 0.0302335 0.994441 
-0.00706934 0.0542013 0.998505 
-0.0910619 0.038815 0.995088 
-0.0419624 -0.0518646 0.997772 
0.0907451 -0.0569911 0.994242 
0.171644 -0.00290252 0.985155 
0.192986 0.0177941 0.98104 
0.131721 0.0132594 0.991198 
-0.0128457 0.0642123 0.997854 
-0.136644 0.131629 0.981836 
-0.178099 0.301523 0.936677 
0.123717 -0.224114 0.966678 
0.0510108 -0.173122 0.983579 
0.0253195 -0.0508414 0.998386 
0.042169 0.0604373 0.997281 
-0.000539866 -0.00504699 0.999987 
-0.0704108 -0.0520488 0.996159 
-0.0874713 -0.0348726 0.995556 
-0.043625 -0.0335947 0.998483 
-0.0118167 0.0235524 0.999653 
-0.0455461 0.108828 0.993017 
0.0232666 0.0848819 0.996119 
0.112773 0.0298895 0.993171 
0.17734 0.0332234 0.983589 
0.094177 0.0349491 0.994942 
0.0135177 0.0134758 0.999818 
0.00519393 -0.123009 0.992392 
0.0607116 -0.269082 0.961202 
0.167151 -0.267799 0.948865 
0.213713 -0.190654 0.958112 
0.29661 -0.114276 0.948137 
0.231333 0.0582225 0.971131 
0.169574 0.139676 0.975569 
0.108942 0.136718 0.984601 
0.133403 0.0672779 0.988776 
0.100643 -0.0673527 0.99264 
-0.0522372 -0.151007 0.987152 
-0.0922246 -0.102357 0.990463 
-0.00670515 -0.00343652 0.999972 
0.0660069 -0.01747 0.997666 
0.0351521 0.060549 0.997546 
0.0120889 0.0729342 0.997263 
-0.0290518 0.0601842 0.997764 
-0.00614866 0.0576858 0.998316 
0.0816742 0.122843 0.98906 
0.162442 0.0785373 0.983588 
0.126309 -0.00897502 0.99195 
0.0289101 -0.0583331 0.997878 
-0.0328853 0.0514306 0.998135 
0.259154 0.295173 0.919626 
0.236351 0.0536323 0.970186 
0.0653447 -0.0967012 0.993166 
0.0297066 -0.153665 0.987676 
0.110974 -0.136542 0.984399 
0.0316626 -0.0829442 0.996051 
-0.0532184 -0.125068 0.99072 
-0.0970881 -0.0967052 0.990567 
-0.103128 -0.0364439 0.994 
-0.131013 -0.033385 0.990818 
-0.108289 0.0212724 0.993892 
-0.0404117 0.0780752 0.996128 
0.0350654 0.0961458 0.994749 
0.115086 0.0382656 0.992618 
0.129242 0.033782 0.991037 
0.0669705 0.0201119 0.997552 
0.00869959 -0.0644985 0.99788 
-0.0203494 -0.201089 0.979362 
0.0719877 -0.213712 0.974241 
0.141754 -0.13472 0.980692 
0.271179 -0.067153 0.960184 
0.224157 0.00900194 0.974511 
0.181566 0.100289 0.978251 
0.163781 0.0211822 0.986269 
0.107194 -0.00175261 0.994237 
0.0470612 -0.0599867 0.997089 
-0.0584282 -0.157425 0.985801 
-0.119798 -0.0578091 0.991114 
-0.132607 -0.00725704 0.991142 
-0.0987607 -0.0420168 0.994224 
0.00286907 -0.043865 0.999033 
0.0207098 0.0181894 0.99962 
0.0122166 0.0699387 0.997476 
-0.0101359 0.147535 0.989005 
0.0487083 0.15825 0.986197 
0.0500409 0.0234938 0.998471 
-0.0104313 -0.0853915 0.996293 
0.00677662 -0.108422 0.994082 
0.133488 -0.121827 0.983534 
0.33443 -0.268067 0.903491 
0.167064 0.256085 0.952108 
0.0802793 0.0133772 0.996683 
0.0982859 -0.178289 0.979057 
0.088311 -0.178715 0.97993 
-0.024438 -0.131586 0.991003 
-0.0833762 -0.130793 0.987898 
-0.0862018 -0.0587258 0.994545 
-0.0835774 -0.0175143 0.996347 
-0.0906999 -0.0497977 0.994632 
0.006499 0.00448846 0.999969 
0.0509459 0.0800572 0.995488 
-0.0150946 0.0808398 0.996613 
-0.0405017 0.00572299 0.999163 
0.0423901 -0.0468889 0.998 
0.12346 -0.0705666 0.989837 
0.122012 -0.129266 0.984075 
-0.0304659 -0.11782 0.992568 
-0.00674105 -0.0712043 0.997439 
0.133875 -0.13855 0.981265 
0.171979 -0.134437 0.975884 
0.176485 -0.0895741 0.980219 
0.148834 0.0129012 0.988778 
0.131098 -0.00134675 0.991369 
0.14423 -0.0125644 0.989464 
0.201662 -0.00766786 0.979425 
0.168871 -0.174588 0.970052 
-0.00960087 -0.215264 0.976509 
-0.19438 -0.0688638 0.978506 
-0.243064 -0.0743941 0.967153 
-0.18953 -0.110946 0.975587 
-0.13397 -0.0792919 0.987808 
-0.098431 -0.0296757 0.994701 
-0.124616 0.0471254 0.991085 
-0.106099 0.126977 0.986215 
-0.0384095 0.157446 0.98678 
-0.0582654 0.019037 0.99812 
-0.0838027 -0.0515443 0.995148 
-0.0215329 -0.191131 0.981328 
-0.0882777 -0.31711 0.944271 
-0.013792 0.252848 0.967408 
0.0379818 0.111133 0.993079 
0.0872664 -0.0293581 0.995752 
0.0776278 -0.090705 0.992848 
0.0238591 -0.0836252 0.996212 
-0.0380993 -0.0528681 0.997874 
-0.050297 -0.0503189 0.997466 
0.00445974 0.0158849 0.999864 
-0.0436333 0.0276245 0.998666 
0.0308113 -0.0129663 0.999441 
0.106325 -0.0265801 0.993976 
-0.000471646 0.031163 0.999514 
-0.137638 -0.0107018 0.990425 
-0.0874551 -0.101719 0.990962 
0.0999775 -0.118742 0.987879 
0.210155 -0.0617891 0.975714 
0.136167 0.0273497 0.990308 
0.0180068 -0.00600771 0.99982 
-0.0263237 -0.0201905 0.99945 
0.0774748 -0.0782474 0.993919 
0.0317082 -0.0473726 0.998374 
-0.0176229 -0.0596231 0.998065 
-0.00252525 -0.0453134 0.99897 
0.131216 -0.0215287 0.99112 
0.224004 -0.1437 0.963936 
0.084294 -0.252305 0.963969 
-0.0938952 -0.228539 0.968996 
-0.175267 -0.167963 0.970087 
-0.190166 -0.132633 0.972751 
-0.191014 -0.107127 0.975724 
-0.232229 -0.0658732 0.970428 
-0.224997 -0.0197235 0.97416 
-0.230617 -0.0263004 0.972689 
-0.145434 0.0454881 0.988322 
0.0379648 0.201418 0.978769 
-0.0481426 0.157341 0.98637 
-0.0448353 -0.0605497 0.997158 
-0.0244722 -0.177516 0.983814 
-0.0459404 -0.125978 0.990969 
-0.079182 0.0827998 0.993416 
0.113765 0.0481311 0.992341 
0.0433786 -0.0350905 0.998442 
0.0155793 -0.0217848 0.999641 
-0.000550292 0.0391279 0.999234 
-0.0144213 -0.0120913 0.999823 
0.0354895 -0.0413551 0.998514 
-0.00242734 0.122018 0.992525 
-0.0776621 0.0746067 0.994184 
0.0739544 -0.00412012 0.997253 
0.0895559 -0.0362622 0.995321 
-0.0540329 -0.0624826 0.996582 
-0.0896471 -0.147073 0.985055 
0.0208994 -0.131185 0.991138 
0.169121 -0.0203984 0.985384 
0.234761 0.0826967 0.968529 
0.160407 0.0325926 0.986513 
0.0215643 -0.0785901 0.996674 
0.0847125 -0.0519584 0.99505 
0.0678874 -0.0561398 0.996112 