# vtk DataFile Version 3.0 
Exported using Morpho https://github.com/Morpho-lang/morpho 
ASCII 
DATASET UNSTRUCTURED_GRID 

POINTS 1245 float 
-0.303845 -0.952721 0 
-0.250833 -0.96803 0 
-0.195084 -0.980787 0 
-0.146308 -0.989239 0 
-0.0940719 -0.995565 0 
-0.0475118 -0.998871 0 
-0.000246339 -1 0 
0.0470875 -0.998891 0 
0.0937543 -0.995595 0 
0.146139 -0.989264 0 
0.195062 -0.980791 0 
0.250843 -0.968028 0 
0.303953 -0.952687 0 
-0.409153 -0.912466 0 
-0.356519 -0.934288 0 
-0.308871 -0.898929 0 
-0.258282 -0.916037 0 
-0.207345 -0.934859 0 
-0.154868 -0.930629 0 
-0.104343 -0.948989 0 
-0.0520099 -0.939193 0 
-8.5762e-05 -0.954582 0 
0.0518744 -0.939288 0 
0.104354 -0.949042 0 
0.154696 -0.9306 0 
0.207366 -0.934975 0 
0.258274 -0.916081 0 
0.308979 -0.898924 0 
0.356593 -0.93426 0 
0.409236 -0.912429 0 
-0.513788 -0.857917 0 
-0.461695 -0.887039 0 
-0.411157 -0.857936 0 
-0.359855 -0.879963 0 
-0.306888 -0.847481 0 
-0.254732 -0.866979 0 
-0.201991 -0.889059 0 
-0.149956 -0.874108 0 
-0.100608 -0.900088 0 
-0.0497575 -0.880388 0 
2.4595e-05 -0.904789 0 
0.0496869 -0.8804 0 
0.100612 -0.900177 0 
0.149872 -0.874171 0 
0.202071 -0.889165 0 
0.254695 -0.867031 0 
0.306946 -0.847482 0 
0.359894 -0.879943 0 
0.411236 -0.857929 0 
0.461748 -0.887011 0 
0.513842 -0.857885 0 
-0.564741 -0.825268 0 
-0.512908 -0.802945 0 
-0.462372 -0.832348 0 
-0.410124 -0.804631 0 
-0.358606 -0.827415 0 
-0.305781 -0.795641 0 
-0.25358 -0.816639 0 
-0.200756 -0.839997 0 
-0.149043 -0.818944 0 
-0.0987265 -0.846667 0 
-0.0490473 -0.822548 0 
5.00659e-05 -0.849932 0 
0.0490834 -0.822542 0 
0.0987838 -0.846676 0 
0.148997 -0.818924 0 
0.200826 -0.840131 0 
0.253508 -0.816728 0 
0.305831 -0.795701 0 
0.358581 -0.827419 0 
0.410181 -0.804654 0 
0.462414 -0.83234 0 
0.512965 -0.802929 0 
0.564777 -0.825243 0 
-0.660798 -0.750564 0 
-0.614015 -0.789295 0 
-0.561786 -0.769772 0 
-0.510673 -0.747856 0 
-0.460836 -0.778365 0 
-0.408794 -0.751554 0 
-0.357337 -0.774971 0 
-0.304815 -0.743684 0 
-0.252907 -0.765535 0 
-0.200631 -0.789263 0 
-0.149244 -0.764328 0 
-0.0986912 -0.791935 0 
-0.0492815 -0.765764 0 
4.16586e-05 -0.79382 0 
0.0492411 -0.765708 0 
0.0987508 -0.791951 0 
0.149196 -0.764326 0 
0.200666 -0.789356 0 
0.252841 -0.765599 0 
0.304862 -0.743741 0 
0.357323 -0.775038 0 
0.408863 -0.751626 0 
0.460863 -0.778382 0 
0.510716 -0.747859 0 
0.561819 -0.769761 0 
0.614041 -0.789274 0 
0.660811 -0.750552 0 
-0.707107 -0.707107 0 
-0.654819 -0.699058 0 
-0.60813 -0.73348 0 
-0.558104 -0.71337 0 
-0.509495 -0.692659 0 
-0.45935 -0.724356 0 
-0.407328 -0.698865 0 
-0.355968 -0.722823 0 
-0.303722 -0.691387 0 
-0.252254 -0.71362 0 
-0.20067 -0.737336 0 
-0.149608 -0.710068 0 
-0.0991558 -0.737129 0 
-0.0495872 -0.709825 0 
-2.23646e-05 -0.737917 0 
0.0494408 -0.709766 0 
0.0991291 -0.737116 0 
0.149502 -0.710042 0 
0.200696 -0.73743 0 
0.252186 -0.713735 0 
0.303753 -0.691518 0 
0.355952 -0.722893 0 
0.407371 -0.698945 0 
0.459374 -0.724407 0 
0.509524 -0.692668 0 
0.558131 -0.713361 0 
0.608151 -0.733462 0 
0.654824 -0.699048 0 
0.707107 -0.707107 0 
-0.750564 -0.660798 0 
-0.699058 -0.654819 0 
-0.647692 -0.647692 0 
-0.603437 -0.675718 0 
-0.55905 -0.655305 0 
-0.508501 -0.639581 0 
-0.457509 -0.671321 0 
-0.405555 -0.646545 0 
-0.354417 -0.670703 0 
-0.302427 -0.639219 0 
-0.251503 -0.661417 0 
-0.20061 -0.684911 0 
-0.149717 -0.655943 0 
-0.0995004 -0.682466 0 
-0.0498216 -0.654561 0 
-5.02113e-05 -0.682664 0 
0.0496787 -0.654499 0 
0.0994374 -0.682501 0 
0.149603 -0.655909 0 
0.200573 -0.684972 0 
0.251388 -0.661524 0 
0.302407 -0.639359 0 
0.354397 -0.670836 0 
0.405575 -0.646641 0 
0.457525 -0.67138 0 
0.508497 -0.639623 0 
0.559063 -0.655324 0 
0.603436 -0.675715 0 
0.64769 -0.64769 0 
0.699048 -0.654824 0 
0.750552 -0.660811 0 
-0.789295 -0.614015 0 
-0.73348 -0.60813 0 
-0.675718 -0.603437 0 
-0.613088 -0.613088 0 
-0.55962 -0.604068 0 
-0.506189 -0.588854 0 
-0.455505 -0.618874 0 
-0.403019 -0.594688 0 
-0.352514 -0.618952 0 
-0.300977 -0.586897 0 
-0.250543 -0.608767 0 
-0.200257 -0.632053 0 
-0.150049 -0.601979 0 
-0.0998281 -0.628222 0 
-0.0500377 -0.599914 0 
-3.12334e-05 -0.628076 0 
0.0498927 -0.599835 0 
0.0997818 -0.628253 0 
0.149924 -0.601867 0 
0.200214 -0.632118 0 
0.250423 -0.608915 0 
0.30086 -0.587085 0 
0.352457 -0.619096 0 
0.402948 -0.594743 0 
0.455483 -0.618952 0 
0.506147 -0.588901 0 
0.55964 -0.604067 0 
0.613069 -0.613069 0 
0.675715 -0.603436 0 
0.733462 -0.608151 0 
0.789274 -0.614041 0 
-0.825268 -0.564741 0 
-0.769772 -0.561786 0 
-0.71337 -0.558104 0 
-0.655305 -0.55905 0 
-0.604068 -0.55962 0 
-0.551031 -0.551031 0 
-0.497922 -0.537596 0 
-0.451508 -0.567021 0 
-0.399773 -0.542431 0 
-0.350494 -0.567003 0 
-0.301574 -0.534146 0 
-0.250874 -0.555692 0 
-0.200542 -0.579013 0 
-0.150324 -0.548268 0 
-0.100169 -0.57443 0 
-0.0500152 -0.545912 0 
-3.29278e-05 -0.574268 0 
0.0499208 -0.545788 0 
0.100058 -0.574485 0 
0.150038 -0.548073 0 
0.200377 -0.579041 0 
0.250556 -0.55585 0 
0.301273 -0.534348 0 
0.350318 -0.567174 0 
0.399615 -0.542384 0 
0.451404 -0.5671 0 
0.497945 -0.537702 0 
0.551073 -0.551073 0 
0.604067 -0.55964 0 
0.655324 -0.559063 0 
0.713361 -0.558131 0 
0.769761 -0.561819 0 
0.825243 -0.564777 0 
-0.857917 -0.513788 0 
-0.802945 -0.512908 0 
-0.747856 -0.510673 0 
-0.692659 -0.509495 0 
-0.639581 -0.508501 0 
-0.588854 -0.506189 0 
-0.537596 -0.497922 0 
-0.486157 -0.486157 0 
-0.444928 -0.512952 0 
-0.401787 -0.486784 0 
-0.351685 -0.513639 0 
-0.299695 -0.48291 0 
-0.250032 -0.503 0 
-0.200501 -0.526165 0 
-0.149489 -0.495195 0 
-0.0999281 -0.521367 0 
-0.0499712 -0.492294 0 
4.64723e-05 -0.520999 0 
0.050147 -0.492108 0 
0.099934 -0.52133 0 
0.14957 -0.494692 0 
0.200133 -0.526255 0 
0.249839 -0.503309 0 
0.299839 -0.483005 0 
0.351514 -0.513798 0 
0.401881 -0.486608 0 
0.444935 -0.513054 0 
0.486228 -0.486228 0 
0.537702 -0.497945 0 
0.588901 -0.506147 0 
0.639623 -0.508497 0 
0.692668 -0.509524 0 
0.747859 -0.510716 0 
0.802929 -0.512965 0 
0.857885 -0.513842 0 
-0.887039 -0.461695 0 
-0.832348 -0.462372 0 
-0.778365 -0.460836 0 
-0.724356 -0.45935 0 
-0.671321 -0.457509 0 
-0.618874 -0.455505 0 
-0.567021 -0.451508 0 
-0.512952 -0.444928 0 
-0.450685 -0.450685 0 
-0.397667 -0.437543 0 
-0.348492 -0.462546 0 
-0.295416 -0.432968 0 
-0.247004 -0.450633 0 
-0.198702 -0.473818 0 
-0.150161 -0.441625 0 
-0.100085 -0.468395 0 
-0.0502271 -0.439281 0 
0.000144229 -0.468374 0 
0.0504178 -0.439106 0 
0.100428 -0.468348 0 
0.150697 -0.441105 0 
0.199103 -0.473881 0 
0.247983 -0.450921 0 
0.296569 -0.432268 0 
0.348831 -0.462562 0 
0.397506 -0.4368 0 
0.450637 -0.450637 0 
0.513054 -0.444935 0 
0.5671 -0.451404 0 
0.618952 -0.455483 0 
0.67138 -0.457525 0 
0.724407 -0.459374 0 
0.778382 -0.460863 0 
0.83234 -0.462414 0 
0.887011 -0.461748 0 
-0.912466 -0.409153 0 
-0.857936 -0.411157 0 
-0.804631 -0.410124 0 
-0.751554 -0.408794 0 
-0.698865 -0.407328 0 
-0.646545 -0.405555 0 
-0.594688 -0.403019 0 
-0.542431 -0.399773 0 
-0.486784 -0.401787 0 
-0.437543 -0.397667 0 
-0.387256 -0.387256 0 
-0.344215 -0.411459 0 
-0.30136 -0.381507 0 
-0.25021 -0.395692 0 
-0.200211 -0.419975 0 
-0.150955 -0.389014 0 
-0.100617 -0.416095 0 
-0.0503197 -0.386922 0 
-4.02994e-05 -0.416525 0 
0.05006 -0.386948 0 
0.100784 -0.416323 0 
0.150432 -0.388572 0 
0.200855 -0.420694 0 
0.25086 -0.396905 0 
0.301746 -0.379789 0 
0.344135 -0.410678 0 
0.385823 -0.385823 0 
0.4368 -0.397506 0 
0.486608 -0.401881 0 
0.542384 -0.399615 0 
0.594743 -0.402948 0 
0.646641 -0.405575 0 
0.698945 -0.407371 0 
0.751626 -0.408863 0 
0.804654 -0.410181 0 
0.857929 -0.411236 0 
0.912429 -0.409236 0 
-0.934288 -0.356519 0 
-0.879963 -0.359855 0 
-0.827415 -0.358606 0 
-0.774971 -0.357337 0 
-0.722823 -0.355968 0 
-0.670703 -0.354417 0 
-0.618952 -0.352514 0 
-0.567003 -0.350494 0 
-0.513639 -0.351685 0 
-0.462546 -0.348492 0 
-0.411459 -0.344215 0 
-0.351697 -0.351697 0 
-0.29839 -0.336232 0 
-0.249846 -0.342529 0 
-0.200971 -0.367271 0 
-0.149995 -0.337521 0 
-0.100435 -0.3646 0 
-0.0498692 -0.335025 0 
-6.88684e-05 -0.365025 0 
0.0495433 -0.334795 0 
0.0996798 -0.364834 0 
0.148162 -0.337172 0 
0.199644 -0.368939 0 
0.24763 -0.345582 0 
0.295348 -0.332889 0 
0.34978 -0.34978 0 
0.410678 -0.344135 0 
0.462562 -0.348831 0 
0.513798 -0.351514 0 
0.567174 -0.350318 0 
0.619096 -0.352457 0 
0.670836 -0.354397 0 
0.722893 -0.355952 0 
0.775038 -0.357323 0 
0.827419 -0.358581 0 
0.879943 -0.359894 0 
0.93426 -0.356593 0 
-0.952721 -0.303845 0 
-0.898929 -0.308871 0 
-0.847481 -0.306888 0 
-0.795641 -0.305781 0 
-0.743684 -0.304815 0 
-0.691387 -0.303722 0 
-0.639219 -0.302427 0 
-0.586897 -0.300977 0 
-0.534146 -0.301574 0 
-0.48291 -0.299695 0 
-0.432968 -0.295416 0 
-0.381507 -0.30136 0 
-0.336232 -0.29839 0 
-0.288184 -0.288184 0 
-0.242975 -0.290577 0 
-0.198059 -0.315051 0 
-0.148383 -0.285894 0 
-0.0994753 -0.313232 0 
-0.0507184 -0.283118 0 
-0.000202902 -0.313447 0 
0.0500077 -0.282824 0 
0.0988289 -0.312817 0 
0.148102 -0.28482 0 
0.195742 -0.317413 0 
0.240766 -0.295824 0 
0.285014 -0.285014 0 
0.332889 -0.295348 0 
0.379789 -0.301746 0 
0.432268 -0.296569 0 
0.483005 -0.299839 0 
0.534348 -0.301273 0 
0.587085 -0.30086 0 
0.639359 -0.302407 0 
0.691518 -0.303753 0 
0.743741 -0.304862 0 
0.795701 -0.305831 0 
0.847482 -0.306946 0 
0.898924 -0.308979 0 
0.952687 -0.303953 0 
-0.96803 -0.250833 0 
-0.916037 -0.258282 0 
-0.866979 -0.254732 0 
-0.816639 -0.25358 0 
-0.765535 -0.252907 0 
-0.71362 -0.252254 0 
-0.661417 -0.251503 0 
-0.608767 -0.250543 0 
-0.555692 -0.250874 0 
-0.503 -0.250032 0 
-0.450633 -0.247004 0 
-0.395692 -0.25021 0 
-0.342529 -0.249846 0 
-0.290577 -0.242975 0 
-0.239946 -0.239946 0 
-0.194478 -0.26004 0 
-0.151293 -0.23238 0 
-0.101048 -0.260904 0 
-0.0503938 -0.232537 0 
-0.000203281 -0.262984 0 
0.050638 -0.232316 0 
0.100942 -0.260855 0 
0.152412 -0.232597 0 
0.195768 -0.261421 0 
0.241873 -0.241873 0 
0.295824 -0.240766 0 
0.345582 -0.24763 0 
0.396905 -0.25086 0 
0.450921 -0.247983 0 
[...]
POINT_DATA 1245 
VECTORS vectors float
0.505143 -0.181417 0.843752 
0.511974 -0.146177 0.846472 
0.519462 -0.108684 0.847554 
0.52626 -0.0770263 0.846828 
0.533349 -0.0441309 0.844743 
0.539046 -0.0170438 0.842104 
0.543984 0.00866567 0.839051 
0.545675 0.0336591 0.837321 
0.546264 0.0581803 0.83559 
0.546284 0.0853061 0.833245 
0.545044 0.109034 0.831287 
0.541746 0.134131 0.829771 
0.535358 0.155617 0.830166 
0.492747 -0.245549 0.834809 
0.499026 -0.214823 0.839538 
0.439615 -0.168387 0.882261 
0.446582 -0.139516 0.883799 
0.460452 -0.110229 0.880814 
0.448295 -0.0771681 0.890548 
0.469246 -0.0497394 0.881666 
0.45538 -0.0211467 0.890046 
0.478776 0.00608175 0.877916 
0.461519 0.0299587 0.886624 
0.482101 0.0568509 0.874269 
0.46517 0.0779114 0.881786 
0.482984 0.103972 0.869435 
0.469915 0.123138 0.874081 
0.460258 0.142085 0.876342 
0.525106 0.175479 0.832749 
0.509637 0.194992 0.838003 
0.474017 -0.296962 0.828928 
0.484923 -0.27289 0.830891 
0.427539 -0.223552 0.87592 
0.433302 -0.197214 0.879407 
0.379958 -0.152765 0.912302 
0.388947 -0.126102 0.912589 
0.404279 -0.0995258 0.909204 
0.380458 -0.0694588 0.922186 
0.407538 -0.0454871 0.912055 
0.38353 -0.0205906 0.923299 
0.41374 0.00285185 0.91039 
0.388145 0.0237824 0.921292 
0.417425 0.0481801 0.907433 
0.393067 0.0657557 0.917156 
0.421209 0.0913135 0.902355 
0.405033 0.109534 0.907717 
0.393567 0.12786 0.910361 
0.4487 0.160936 0.879072 
0.433582 0.180352 0.882881 
0.488041 0.215776 0.845728 
0.459973 0.240229 0.854818 
0.458542 -0.318944 0.829466 
0.407928 -0.270468 0.872033 
0.419504 -0.248094 0.873193 
0.36797 -0.202629 0.907491 
0.374792 -0.177835 0.909893 
0.327425 -0.138219 0.934713 
0.335878 -0.114988 0.93486 
0.350026 -0.0912882 0.932281 
0.323198 -0.0635403 0.944196 
0.347482 -0.0423593 0.936729 
0.321843 -0.0202999 0.946575 
0.350835 0.000814655 0.936437 
0.324978 0.0188854 0.945533 
0.354821 0.0408517 0.934041 
0.331514 0.0573429 0.941706 
0.362706 0.0812556 0.928355 
0.34647 0.0983858 0.932887 
0.33393 0.11612 0.935418 
0.381557 0.146737 0.912624 
0.366358 0.166951 0.915374 
0.412779 0.202249 0.888093 
0.387304 0.227479 0.893448 
0.426567 0.270459 0.863072 
0.412639 -0.362979 0.835449 
0.437851 -0.340471 0.832085 
0.391986 -0.291144 0.872687 
0.347972 -0.245863 0.904691 
0.35992 -0.224754 0.905507 
0.315602 -0.183153 0.931048 
0.321275 -0.161346 0.93314 
0.280183 -0.125352 0.951727 
0.288304 -0.104725 0.951795 
0.301073 -0.0841376 0.949882 
0.273128 -0.0585372 0.960195 
0.294043 -0.039821 0.954962 
0.269419 -0.0196139 0.962823 
0.294859 -0.00111888 0.95554 
0.271489 0.0156528 0.962314 
0.299027 0.0353367 0.95359 
0.278654 0.0504596 0.959065 
0.308726 0.0727226 0.948367 
0.294286 0.0889381 0.95157 
0.282059 0.105926 0.953532 
0.322695 0.134477 0.936901 
0.308746 0.154914 0.938444 
0.34786 0.188817 0.918336 
0.324816 0.214646 0.921098 
0.358604 0.256975 0.897422 
0.390805 0.307164 0.86771 
0.356789 0.348768 0.866639 
0.382606 -0.388911 0.83807 
0.354184 -0.336876 0.872392 
0.371752 -0.311573 0.874484 
0.331581 -0.265681 0.905244 
0.295135 -0.22495 0.928597 
0.306647 -0.204609 0.929571 
0.268756 -0.166816 0.948653 
0.274915 -0.146266 0.950278 
0.238391 -0.114108 0.964442 
0.245838 -0.0954539 0.9646 
0.256825 -0.0768583 0.963397 
0.230607 -0.0540698 0.971544 
0.247772 -0.0372506 0.968102 
0.225446 -0.0190496 0.974069 
0.246833 -0.00243992 0.969055 
0.22659 0.0130527 0.973903 
0.250728 0.0307554 0.967569 
0.233298 0.0451706 0.971356 
0.261297 0.0656761 0.963022 
0.247666 0.0807867 0.965472 
0.237428 0.0971106 0.966539 
0.271709 0.124203 0.954331 
0.259683 0.144115 0.95488 
0.291608 0.177364 0.93995 
0.272482 0.202615 0.940585 
0.300025 0.243089 0.922438 
0.329237 0.290749 0.89837 
0.3073 0.330683 0.892309 
0.326264 0.394546 0.859002 
0.35117 -0.417116 0.838268 
0.327181 -0.361411 0.873118 
0.302736 -0.312295 0.900457 
0.312306 -0.28559 0.906037 
0.279361 -0.245673 0.928225 
0.250863 -0.207647 0.945489 
0.261154 -0.186489 0.947112 
0.228413 -0.152256 0.961585 
0.234151 -0.132641 0.963109 
0.202257 -0.103663 0.973831 
0.20873 -0.0867772 0.974116 
0.21771 -0.0705343 0.973462 
0.193803 -0.0495211 0.97979 
0.207702 -0.0345216 0.977583 
0.188105 -0.0180495 0.981983 
0.205885 -0.00301606 0.978572 
0.188609 0.0110259 0.98199 
0.209278 0.0271083 0.97748 
0.194711 0.04052 0.980023 
0.219354 0.0590934 0.973854 
0.208227 0.0740231 0.975275 
0.19848 0.0894942 0.976011 
0.228217 0.114935 0.966802 
0.21792 0.13479 0.966614 
0.245169 0.166514 0.955073 
0.229773 0.19246 0.954025 
0.250986 0.232033 0.939769 
0.27657 0.27395 0.921119 
0.264832 0.311174 0.912708 
0.283469 0.369918 0.884763 
0.3027 0.438094 0.846432 
0.322014 -0.445058 0.835602 
0.297898 -0.379986 0.875709 
0.274677 -0.321617 0.906154 
0.262148 -0.271616 0.926015 
0.239084 -0.23024 0.943307 
0.214005 -0.19191 0.957795 
0.221321 -0.171252 0.960047 
0.193726 -0.138833 0.971183 
0.198286 -0.121439 0.972592 
0.170765 -0.0946024 0.98076 
0.175874 -0.0794018 0.981205 
0.183773 -0.0644278 0.980855 
0.162211 -0.0456262 0.985701 
0.174082 -0.0322179 0.984204 
0.156455 -0.0168974 0.987541 
0.171925 -0.00355473 0.985104 
0.156401 0.00969641 0.987646 
0.174482 0.0242776 0.984361 
0.161769 0.0366839 0.986147 
0.183452 0.0540916 0.981539 
0.173658 0.0675868 0.982484 
0.166162 0.082842 0.982613 
0.191818 0.10661 0.975623 
0.18286 0.125675 0.975073 
0.206438 0.156253 0.965903 
0.195322 0.181497 0.963799 
0.215069 0.222058 0.951018 
0.232404 0.268455 0.934837 
0.242144 0.328406 0.912971 
0.262735 0.397595 0.879141 
0.286309 0.474339 0.832484 
0.29495 -0.472357 0.830592 
0.273717 -0.403938 0.872876 
0.25246 -0.342808 0.904846 
0.235202 -0.289553 0.927814 
0.220632 -0.249075 0.943018 
0.200893 -0.209952 0.95685 
0.180255 -0.174874 0.96795 
0.187054 -0.156926 0.969735 
0.162837 -0.127484 0.978382 
0.167688 -0.110749 0.9796 
0.143465 -0.0875226 0.985778 
0.147911 -0.07279 0.986318 
0.154398 -0.0592172 0.986232 
0.135523 -0.0421062 0.989879 
0.14518 -0.0297166 0.988959 
0.130345 -0.016022 0.991339 
0.142881 -0.00360219 0.989733 
0.130101 0.00833733 0.991466 
0.144847 0.0218731 0.989212 
0.134212 0.0337135 0.990379 
0.152643 0.0496523 0.987033 
0.144645 0.0628507 0.987486 
0.138165 0.0774003 0.98738 
0.160161 0.0991739 0.982096 
0.153075 0.116951 0.98127 
0.173529 0.145966 0.973951 
0.164868 0.16772 0.971951 
0.181649 0.20502 0.961754 
0.197461 0.248449 0.948305 
0.210267 0.295133 0.932032 
0.22717 0.356625 0.906207 
0.24919 0.426811 0.869332 
0.273913 0.503924 0.819165 
0.270833 -0.496865 0.824485 
0.251012 -0.426258 0.869078 
0.231232 -0.362962 0.902657 
0.213733 -0.307941 0.927087 
0.198073 -0.262346 0.944427 
0.183663 -0.223822 0.957168 
0.167264 -0.188808 0.967664 
0.150319 -0.15816 0.975905 
0.156176 -0.142165 0.977445 
0.13602 -0.118699 0.98357 
0.140821 -0.102745 0.984689 
0.120589 -0.0803132 0.989448 
0.123633 -0.0670228 0.990062 
0.129127 -0.0544767 0.990131 
0.112687 -0.0385787 0.992881 
0.120971 -0.0273974 0.992278 
0.107563 -0.0146539 0.99409 
0.118545 -0.00345556 0.992943 
0.106936 0.00778622 0.994235 
0.119997 0.0199758 0.992573 
0.110731 0.0308582 0.993371 
0.126805 0.0456699 0.990876 
0.119752 0.0584035 0.991085 
0.115413 0.0720603 0.9907 
0.133486 0.0934962 0.986631 
0.126855 0.110947 0.985697 
0.144252 0.134625 0.98034 
0.138118 0.152361 0.978626 
0.151922 0.185803 0.970771 
0.166394 0.223894 0.960304 
0.179602 0.266968 0.946822 
0.195078 0.318343 0.927686 
0.214837 0.380082 0.899657 
0.237978 0.449843 0.860818 
0.263818 0.525839 0.808637 
0.249327 -0.517269 0.8187 
0.229948 -0.444945 0.865534 
0.210915 -0.380212 0.90053 
0.193817 -0.323521 0.926158 
0.17781 -0.274651 0.944961 
0.163918 -0.23289 0.958589 
0.150023 -0.19699 0.968859 
0.136517 -0.163767 0.977007 
0.128075 -0.133862 0.982689 
0.114522 -0.109615 0.987355 
0.118142 -0.0944702 0.988493 
0.100867 -0.0736778 0.992168 
0.102876 -0.0610483 0.992819 
0.107677 -0.0499327 0.992931 
0.0932658 -0.0356753 0.995002 
0.100377 -0.0256168 0.99462 
0.0891495 -0.013669 0.995924 
0.098491 -0.00363808 0.995131 
0.0885109 0.00714359 0.99605 
0.099379 0.0182804 0.994882 
0.0910408 0.0290491 0.995423 
0.104944 0.0423501 0.993576 
0.0992152 0.053962 0.993602 
0.0954761 0.0670509 0.993171 
0.111178 0.0873138 0.989957 
0.106214 0.103235 0.98897 
0.117819 0.128838 0.984642 
0.124769 0.161288 0.978989 
0.137209 0.196541 0.970848 
0.149953 0.236047 0.960102 
0.165014 0.282004 0.945116 
0.182272 0.335282 0.924318 
0.203177 0.39684 0.895118 
0.227508 0.465625 0.855239 
0.254255 0.540318 0.802129 
0.229549 -0.532888 0.814455 
0.210482 -0.459502 0.862876 
0.192192 -0.394007 0.898788 
0.175012 -0.335711 0.925564 
0.159946 -0.285449 0.944953 
0.146409 -0.241953 0.959178 
0.133852 -0.204493 0.969673 
0.12255 -0.171902 0.977462 
0.113709 -0.143207 0.983139 
0.105025 -0.12026 0.987171 
0.0951462 -0.0989425 0.990534 
0.0983555 -0.087007 0.99134 
0.0844184 -0.0703335 0.993945 
0.0847158 -0.0575981 0.994739 
0.0888792 -0.0466062 0.994951 
0.0768231 -0.033662 0.996476 
0.0829161 -0.023725 0.996274 
0.0729469 -0.0130676 0.99725 
0.0808934 -0.003143 0.996718 
0.0723394 0.0063064 0.99736 
0.081587 0.0172867 0.996516 
0.0747214 0.0267719 0.996845 
0.0862611 0.0398751 0.995474 
0.0811593 0.0514455 0.995373 
0.0790613 0.0646236 0.994773 
0.0919697 0.0806164 0.992493 
0.0875265 0.0935349 0.991761 
0.0965926 0.115728 0.988573 
0.104497 0.139954 0.984629 
0.112245 0.170928 0.978869 
0.123679 0.206087 0.970686 
0.136539 0.246254 0.959539 
0.151795 0.292867 0.944027 
0.17018 0.346421 0.922513 
0.191593 0.407149 0.893041 
0.216472 0.474673 0.853127 
0.24374 0.547939 0.800221 
0.210544 -0.543893 0.812312 
0.192342 -0.470342 0.861268 
0.173819 -0.403795 0.898185 
0.157419 -0.345369 0.92517 
0.142908 -0.293701 0.945154 
0.129583 -0.249188 0.959747 
0.118174 -0.210501 0.970425 
0.107685 -0.177458 0.978219 
0.0996906 -0.148434 0.983885 
0.0913542 -0.124115 0.988054 
0.0837801 -0.103062 0.99114 
0.0798332 -0.0831619 0.993333 
0.0711147 -0.0658451 0.995292 
0.0691931 -0.0536574 0.996159 
0.0732282 -0.0433045 0.996375 
0.0630352 -0.0309517 0.997531 
0.0683399 -0.0219184 0.997421 
0.0599335 -0.0117036 0.998134 
0.0668769 -0.0029266 0.997757 
0.059218 0.00625089 0.998226 
0.0670665 0.0159997 0.99762 
0.0608423 0.0251472 0.997831 
0.0706157 0.0374333 0.996801 
0.0664049 0.0477314 0.99665 
0.0653931 0.0597345 0.99607 
0.0734581 0.0775329 0.99428 
0.0769987 0.0989726 0.992107 
0.083957 0.12133 0.989055 
0.0914173 0.147289 0.98486 
0.0995575 0.177483 0.979075 
0.110239 0.212678 0.970884 
0.123334 0.253018 0.959568 
0.13872 0.299502 0.943957 
0.157098 0.352391 0.922573 
0.178715 0.411906 0.893529 
0.203866 0.47805 0.854346 
0.230957 0.549563 0.802894 
0.1914 -0.55077 0.812415 
0.174228 -0.477403 0.861238 
0.156515 -0.411786 0.897739 
0.140613 -0.352369 0.925237 
0.126534 -0.300385 0.945388 
0.114174 -0.254404 0.960335 
0.10319 -0.215115 0.971122 
0.0937217 -0.180654 0.979071 
0.0857981 -0.15168 0.984699 
0.0785763 -0.126738 0.988819 
0.0718431 -0.105776 0.991791 
0.0683232 -0.0879391 0.99378 
0.0640324 -0.0736371 0.995227 
0.0579558 -0.0596791 0.996534 
0.0560667 -0.048688 0.997239 
0.0595881 -0.0402352 0.997412 
0.0510118 -0.0287319 0.998285 
0.0555765 -0.0206973 0.99824 
0.0480217 -0.011169 0.998784 
0.0538153 -0.00302086 0.998546 
0.047328 0.00589089 0.998862 
0.0542061 0.0146621 0.998422 
0.0488267 0.0236691 0.998527 
0.05741 0.0342402 0.997763 
0.0538214 0.043815 0.997589 
0.0531761 0.0544073 0.997102 
0.0581145 0.0683459 0.995968 
0.062925 0.0838601 0.994489 
0.0658334 0.102909 0.99251 
0.07192 0.125171 0.989525 
0.078864 0.150669 0.985433 
0.0868827 0.181399 0.979564 
0.0973376 0.216336 0.971455 
0.109996 0.25699 0.960134 
0.124949 0.302974 0.944772 
0.142994 0.355113 0.923822 
0.16406 0.413119 0.895777 
0.188784 0.477148 0.858307 
0.214632 0.546054 0.809789 
0.171202 -0.553786 0.814868 
0.156688 -0.483383 0.861272 
0.139222 -0.419347 0.897087 
0.124483 -0.360699 0.924338 
0.111287 -0.308506 0.94469 
0.0996909 -0.261942 0.959921 
0.0895784 -0.221257 0.971093 
0.0804393 -0.186222 0.979209 
0.0732734 -0.155695 0.985084 
0.066722 -0.129936 0.989275 
0.0603699 -0.107632 0.992356 
0.0566255 -0.0881832 0.994493 
0.0525446 -0.0717013 0.996041 
0.0478541 -0.0575723 0.997194 
0.0450788 -0.0455214 0.997946 
0.0470487 -0.0368883 0.998211 
0.0404579 -0.027731 0.998796 
0.0447487 -0.0193996 0.99881 
0.0384174 -0.010589 0.999206 
0.0440404 -0.00243548 0.999027 
0.0377704 0.00572663 0.99927 
0.0435351 0.0147271 0.998943 
0.0386751 0.0233181 0.99898 
0.0450374 0.0327172 0.998449 
0.0423508 0.0420347 0.998218 
0.0441099 0.05494 0.997515 
0.0478133 0.0693033 0.996449 
0.0516131 0.0860961 0.994949 
0.0551817 0.105883 0.992846 
0.060584 0.128811 0.989817 
0.0669863 0.155507 0.985561 
0.0748375 0.186085 0.979679 
0.0846053 0.221876 0.971397 
0.0963032 0.261844 0.960293 
0.110803 0.307741 0.944996 
0.127099 0.357801 0.925108 
0.147092 0.41377 0.89842 
0.170719 0.474219 0.863696 
0.193114 0.538156 0.820424 
0.14797 -0.553168 0.819823 
0.139039 -0.493006 0.858844 
0.12256 -0.430702 0.894133 
0.108834 -0.373007 0.921424 
0.0965783 -0.319309 0.942716 
0.0859432 -0.271563 0.958576 
0.0763008 -0.229784 0.970246 
0.0684364 -0.193088 0.978792 
0.0615341 -0.161913 0.984885 
0.0556654 -0.135173 0.989257 
0.0503915 -0.112165 0.992411 
0.0467491 -0.092408 0.994623 
0.0430885 -0.0758139 0.996191 
0.0401253 -0.061004 0.997331 
0.0366561 -0.048021 0.998173 
0.0360556 -0.0360693 0.998699 
0.0317717 -0.0256561 0.999166 
0.0350958 -0.0180269 0.999221 
0.0300297 -0.00920084 0.999507 
0.0343205 -0.00220621 0.999408 
0.0295951 0.00530495 0.999548 
0.0340668 0.0138027 0.999324 
0.0302495 0.0221611 0.999297 
0.0342245 0.0326984 0.998879 
0.0341324 0.0449073 0.998408 
0.0358484 0.0589542 0.997617 
0.0388707 0.0736573 0.996526 
0.0419838 0.0908875 0.994976 
0.0450895 0.111227 0.992772 
0.0500399 0.134398 0.989663 
0.0557301 0.16145 0.985306 
0.0626423 0.192892 0.979218 
0.07167 0.228558 0.970888 
0.0821514 0.269286 0.95955 
0.0946805 0.314349 0.944574 
0.110022 0.364571 0.924653 
0.127511 0.417629 0.899626 
0.149665 0.474777 0.867287 
0.162708 0.526411 0.834516 
0.125752 -0.550623 0.825228 
0.112728 -0.471037 0.874881 
0.0958297 -0.399218 0.911834 
0.0828934 -0.337891 0.937528 
0.0722934 -0.285666 0.955598 
0.0636591 -0.240322 0.968603 
0.0560321 -0.201763 0.97783 
0.0497985 -0.168796 0.984392 
0.044706 -0.140499 0.989071 
0.0403826 -0.11687 0.992326 
0.0365572 -0.0964873 0.994663 
0.0342539 -0.0790275 0.996284 
0.0314081 -0.0647598 0.997406 
0.0292505 -0.0518636 0.998226 
0.0283213 -0.040543 0.998776 
0.0263959 -0.0313876 0.999159 
0.023505 -0.0225378 0.99947 
0.0269596 -0.0164243 0.999502 
0.0217668 -0.00950762 0.999718 
0.0258843 -0.00205409 0.999663 
0.0213565 0.00588877 0.999755 
0.0259957 0.0126206 0.999582 
0.0225538 0.0192208 0.999561 
0.0247408 0.0280807 0.999299 
0.0259898 0.0376497 0.998953 
0.0263317 0.0491063 0.998446 
0.0276297 0.0622477 0.997678 
0.0298475 0.0775708 0.99654 
0.0321985 0.095237 0.994934 
0.035138 0.115995 0.992628 
0.0388757 0.140354 0.989338 
0.0438762 0.168328 0.984754 
0.0498232 0.200723 0.97838 
0.0571523 0.238057 0.969568 
0.0665884 0.280499 0.957542 
0.0777647 0.328851 0.941175 
0.0921689 0.38394 0.918746 
0.113303 0.448055 0.886797 
0.129168 0.516103 0.846731 
0.099585 -0.545857 0.831939 
0.0933004 -0.482871 0.870707 
0.0798836 -0.419135 0.904403 
0.0679564 -0.357067 0.931604 
0.0584178 -0.301966 0.951527 
0.0502314 -0.254267 0.965829 
0.0435659 -0.213499 0.975971 
0.0382676 -0.178511 0.983193 
0.0338788 -0.149193 0.988228 
0.0299881 -0.124386 0.991781 
0.0273351 -0.102787 0.994328 
0.0251071 -0.0852166 0.996046 
0.0229656 -0.0697219 0.997302 
0.0216029 -0.0565661 0.998165 
0.0204651 -0.0449702 0.998779 
0.0191819 -0.0349425 0.999205 
0.0177854 -0.0260749 0.999502 
0.018115 -0.016526 0.999699 
0.01549 -0.0087383 0.999842 
0.0196042 -0.00179486 0.999806 
0.01515 0.00559447 0.99987 
0.0172658 0.0134402 0.999761 
0.0162689 0.0231626 0.999599 
0.0176991 0.0324812 0.999316 
0.0180383 0.0426373 0.998928 
0.0185068 0.0547296 0.99833 
0.0195311 0.0686865 0.997447 
0.0211046 0.0843777 0.99621 
0.0226986 0.102947 0.994428 
0.0247778 0.124528 0.991907 
0.0278123 0.149456 0.988377 
0.0311629 0.178749 0.983401 
0.035826 0.212303 0.976547 
0.0413683 0.250974 0.967109 
0.0481156 0.29515 0.954239 
0.0569041 0.344557 0.937039 
0.068539 0.399394 0.914214 
0.0820508 0.453911 0.887261 
0.0855945 0.506716 0.857853 
0.0751139 -0.540495 0.837987 
0.0648284 -0.458342 0.886408 
0.052822 -0.385276 0.921288 
0.0432078 -0.323763 0.945151 
0.0359397 -0.27146 0.961779 
0.0303162 -0.227319 0.973348 
0.0255995 -0.190101 0.981431 
0.021925 -0.15886 0.987058 
0.0193749 -0.131857 0.991079 
0.017074 -0.109828 0.993804 
0.0153776 -0.0904729 0.99578 
0.0143854 -0.0743525 0.997128 
0.0131922 -0.0605902 0.998076 
0.0125995 -0.0484405 0.998747 
0.0120787 -0.0384051 0.999189 
0.0111198 -0.0289327 0.99952 
0.0114096 -0.0208211 0.999718 
0.0107044 -0.0135517 0.999851 
0.00912984 -0.00642283 0.999938 
0.011948 -0.00121479 0.999928 
0.00900792 0.00289344 0.999955 
0.0101669 0.0108472 0.999889 
0.0106026 0.0180791 0.99978 
0.00997916 0.0269773 0.999586 
0.0101615 0.036108 0.999296 
0.0103951 0.0470366 0.998839 
0.0104442 0.0595708 0.998169 
0.0110031 0.0740171 0.997196 
0.0115562 0.090896 0.995793 
0.0124686 0.110324 0.993817 
0.013543 0.133448 0.990963 
0.015048 0.159988 0.987004 
0.0171775 0.190903 0.981459 
0.019442 0.22692 0.973719 
0.0228438 0.26818 0.963098 
0.0267611 0.316059 0.948362 
0.0318277 0.370508 0.928284 
0.0401384 0.433274 0.900368 
0.0429449 0.502153 0.863712 
0.0494196 -0.534191 0.843918 
0.0410573 -0.46931 0.882078 
0.0329379 -0.406454 0.913077 
0.0257844 -0.344919 0.938278 
0.0198045 -0.290451 0.956685 
0.0150449 -0.24395 0.969671 
0.0115593 -0.20468 0.978761 
0.00928607 -0.171105 0.985209 
0.00730797 -0.143249 0.98966 
0.0059965 -0.119501 0.992816 
0.00548052 -0.0989272 0.99508 
0.00479593 -0.0822882 0.996597 
0.00455123 -0.0671892 0.99773 
0.00452574 -0.054752 0.99849 
0.00441078 -0.0435487 0.999042 
0.00428185 -0.0341352 0.999408 
0.00423519 -0.0251896 0.999674 
0.00446093 -0.0177133 0.999833 
0.00382172 -0.0102986 0.99994 
0.00303406 -0.000895573 0.999995 
0.00340772 0.00827277 0.99996 
0.0039135 0.0154361 0.999873 
0.00316149 0.0229378 0.999732 
0.00308406 0.0324473 0.999469 
0.00274875 0.0426435 0.999087 
0.00228685 0.053862 0.998546 
0.00200516 0.0675197 0.997716 
0.00171453 0.0827962 0.996565 
0.0015202 0.100801 0.994905 
0.00111136 0.121589 0.99258 
0.00116945 0.145971 0.989288 
0.000815963 0.174374 0.984679 
0.000916512 0.207213 0.978295 
0.000870515 0.245343 0.969436 
0.00069981 0.28922 0.957262 
0.000741645 0.338988 0.94079 
0.000192595 0.393231 0.919439 
-0.000546907 0.447579 0.894244 
-0.00156387 0.502044 0.864841 
0.0215583 -0.524144 0.851357 
0.0104172 -0.441988 0.896961 
0.00512436 -0.372172 0.92815 
0.000765632 -0.312814 0.949814 
-0.00240664 -0.262846 0.964835 
-0.00433858 -0.220411 0.975397 
-0.0058374 -0.184905 0.982739 
-0.00637485 -0.154807 0.987924 
-0.00611194 -0.128861 0.991644 
-0.00625017 -0.107567 0.994178 
-0.0056905 -0.0886572 0.996046 
-0.00490845 -0.073272 0.9973 
-0.00442657 -0.0593391 0.998228 
-0.00385777 -0.0478023 0.998849 
-0.00344101 -0.0375439 0.999289 
-0.00252923 -0.0286239 0.999587 
-0.00292288 -0.0200521 0.999795 
-0.00260778 -0.0135252 0.999905 
0.000640817 -0.00596078 0.999982 
-0.00522845 -0.00110605 0.999986 
0.000532486 0.00335213 0.999994 
-0.00280662 0.0109291 0.999936 
-0.00343856 0.0185847 0.999821 
-0.00319314 0.0270827 0.999628 
-0.00451326 0.0366405 0.999318 
-0.00544024 0.0471509 0.998873 
-0.00602832 0.0599255 0.998185 
-0.00730523 0.0741316 0.997222 
-0.00851668 0.0908394 0.995829 
-0.0097519 0.110366 0.993843 
-0.0113631 0.13327 0.991015 
-0.0133231 0.159645 0.987085 
-0.0151744 0.190598 0.981551 
-0.0180564 0.226494 0.973845 
-0.0208678 0.268034 0.963183 
-0.0252372 0.315845 0.948475 
-0.030737 0.371264 0.928018 
-0.0399488 0.434166 0.899946 
-0.0452719 0.50446 0.862248 