# vtk DataFile Version 3.0 
Exported using Morpho https://github.com/Morpho-lang/morpho 
ASCII 
DATASET UNSTRUCTURED_GRID 

POINTS 1245 float 
-0.303845 -0.952721 0 
-0.250833 -0.96803 0 
-0.195084 -0.980787 0 
-0.146308 -0.989239 0 
-0.0940719 -0.995565 0 
-0.0475118 -0.998871 0 
-0.000246339 -1 0 
0.0470875 -0.998891 0 
0.0937543 -0.995595 0 
0.146139 -0.989264 0 
0.195062 -0.980791 0 
0.250843 -0.968028 0 
0.303953 -0.952687 0 
-0.409153 -0.912466 0 
-0.356519 -0.934288 0 
-0.308871 -0.898929 0 
-0.258282 -0.916037 0 
-0.207345 -0.934859 0 
-0.154868 -0.930629 0 
-0.104343 -0.948989 0 
-0.0520099 -0.939193 0 
-8.5762e-05 -0.954582 0 
0.0518744 -0.939288 0 
0.104354 -0.949042 0 
0.154696 -0.9306 0 
0.207366 -0.934975 0 
0.258274 -0.916081 0 
0.308979 -0.898924 0 
0.356593 -0.93426 0 
0.409236 -0.912429 0 
-0.513788 -0.857917 0 
-0.461695 -0.887039 0 
-0.411157 -0.857936 0 
-0.359855 -0.879963 0 
-0.306888 -0.847481 0 
-0.254732 -0.866979 0 
-0.201991 -0.889059 0 
-0.149956 -0.874108 0 
-0.100608 -0.900088 0 
-0.0497575 -0.880388 0 
2.4595e-05 -0.904789 0 
0.0496869 -0.8804 0 
0.100612 -0.900177 0 
0.149872 -0.874171 0 
0.202071 -0.889165 0 
0.254695 -0.867031 0 
0.306946 -0.847482 0 
0.359894 -0.879943 0 
0.411236 -0.857929 0 
0.461748 -0.887011 0 
0.513842 -0.857885 0 
-0.564741 -0.825268 0 
-0.512908 -0.802945 0 
-0.462372 -0.832348 0 
-0.410124 -0.804631 0 
-0.358606 -0.827415 0 
-0.305781 -0.795641 0 
-0.25358 -0.816639 0 
-0.200756 -0.839997 0 
-0.149043 -0.818944 0 
-0.0987265 -0.846667 0 
-0.0490473 -0.822548 0 
5.00659e-05 -0.849932 0 
0.0490834 -0.822542 0 
0.0987838 -0.846676 0 
0.148997 -0.818924 0 
0.200826 -0.840131 0 
0.253508 -0.816728 0 
0.305831 -0.795701 0 
0.358581 -0.827419 0 
0.410181 -0.804654 0 
0.462414 -0.83234 0 
0.512965 -0.802929 0 
0.564777 -0.825243 0 
-0.660798 -0.750564 0 
-0.614015 -0.789295 0 
-0.561786 -0.769772 0 
-0.510673 -0.747856 0 
-0.460836 -0.778365 0 
-0.408794 -0.751554 0 
-0.357337 -0.774971 0 
-0.304815 -0.743684 0 
-0.252907 -0.765535 0 
-0.200631 -0.789263 0 
-0.149244 -0.764328 0 
-0.0986912 -0.791935 0 
-0.0492815 -0.765764 0 
4.16586e-05 -0.79382 0 
0.0492411 -0.765708 0 
0.0987508 -0.791951 0 
0.149196 -0.764326 0 
0.200666 -0.789356 0 
0.252841 -0.765599 0 
0.304862 -0.743741 0 
0.357323 -0.775038 0 
0.408863 -0.751626 0 
0.460863 -0.778382 0 
0.510716 -0.747859 0 
0.561819 -0.769761 0 
0.614041 -0.789274 0 
0.660811 -0.750552 0 
-0.707107 -0.707107 0 
-0.654819 -0.699058 0 
-0.60813 -0.73348 0 
-0.558104 -0.71337 0 
-0.509495 -0.692659 0 
-0.45935 -0.724356 0 
-0.407328 -0.698865 0 
-0.355968 -0.722823 0 
-0.303722 -0.691387 0 
-0.252254 -0.71362 0 
-0.20067 -0.737336 0 
-0.149608 -0.710068 0 
-0.0991558 -0.737129 0 
-0.0495872 -0.709825 0 
-2.23646e-05 -0.737917 0 
0.0494408 -0.709766 0 
0.0991291 -0.737116 0 
0.149502 -0.710042 0 
0.200696 -0.73743 0 
0.252186 -0.713735 0 
0.303753 -0.691518 0 
0.355952 -0.722893 0 
0.407371 -0.698945 0 
0.459374 -0.724407 0 
0.509524 -0.692668 0 
0.558131 -0.713361 0 
0.608151 -0.733462 0 
0.654824 -0.699048 0 
0.707107 -0.707107 0 
-0.750564 -0.660798 0 
-0.699058 -0.654819 0 
-0.647692 -0.647692 0 
-0.603437 -0.675718 0 
-0.55905 -0.655305 0 
-0.508501 -0.639581 0 
-0.457509 -0.671321 0 
-0.405555 -0.646545 0 
-0.354417 -0.670703 0 
-0.302427 -0.639219 0 
-0.251503 -0.661417 0 
-0.20061 -0.684911 0 
-0.149717 -0.655943 0 
-0.0995004 -0.682466 0 
-0.0498216 -0.654561 0 
-5.02113e-05 -0.682664 0 
0.0496787 -0.654499 0 
0.0994374 -0.682501 0 
0.149603 -0.655909 0 
0.200573 -0.684972 0 
0.251388 -0.661524 0 
0.302407 -0.639359 0 
0.354397 -0.670836 0 
0.405575 -0.646641 0 
0.457525 -0.67138 0 
0.508497 -0.639623 0 
0.559063 -0.655324 0 
0.603436 -0.675715 0 
0.64769 -0.64769 0 
0.699048 -0.654824 0 
0.750552 -0.660811 0 
-0.789295 -0.614015 0 
-0.73348 -0.60813 0 
-0.675718 -0.603437 0 
-0.613088 -0.613088 0 
-0.55962 -0.604068 0 
-0.506189 -0.588854 0 
-0.455505 -0.618874 0 
-0.403019 -0.594688 0 
-0.352514 -0.618952 0 
-0.300977 -0.586897 0 
-0.250543 -0.608767 0 
-0.200257 -0.632053 0 
-0.150049 -0.601979 0 
-0.0998281 -0.628222 0 
-0.0500377 -0.599914 0 
-3.12334e-05 -0.628076 0 
0.0498927 -0.599835 0 
0.0997818 -0.628253 0 
0.149924 -0.601867 0 
0.200214 -0.632118 0 
0.250423 -0.608915 0 
0.30086 -0.587085 0 
0.352457 -0.619096 0 
0.402948 -0.594743 0 
0.455483 -0.618952 0 
0.506147 -0.588901 0 
0.55964 -0.604067 0 
0.613069 -0.613069 0 
0.675715 -0.603436 0 
0.733462 -0.608151 0 
0.789274 -0.614041 0 
-0.825268 -0.564741 0 
-0.769772 -0.561786 0 
-0.71337 -0.558104 0 
-0.655305 -0.55905 0 
-0.604068 -0.55962 0 
-0.551031 -0.551031 0 
-0.497922 -0.537596 0 
-0.451508 -0.567021 0 
-0.399773 -0.542431 0 
-0.350494 -0.567003 0 
-0.301574 -0.534146 0 
-0.250874 -0.555692 0 
-0.200542 -0.579013 0 
-0.150324 -0.548268 0 
-0.100169 -0.57443 0 
-0.0500152 -0.545912 0 
-3.29278e-05 -0.574268 0 
0.0499208 -0.545788 0 
0.100058 -0.574485 0 
0.150038 -0.548073 0 
0.200377 -0.579041 0 
0.250556 -0.55585 0 
0.301273 -0.534348 0 
0.350318 -0.567174 0 
0.399615 -0.542384 0 
0.451404 -0.5671 0 
0.497945 -0.537702 0 
0.551073 -0.551073 0 
0.604067 -0.55964 0 
0.655324 -0.559063 0 
0.713361 -0.558131 0 
0.769761 -0.561819 0 
0.825243 -0.564777 0 
-0.857917 -0.513788 0 
-0.802945 -0.512908 0 
-0.747856 -0.510673 0 
-0.692659 -0.509495 0 
-0.639581 -0.508501 0 
-0.588854 -0.506189 0 
-0.537596 -0.497922 0 
-0.486157 -0.486157 0 
-0.444928 -0.512952 0 
-0.401787 -0.486784 0 
-0.351685 -0.513639 0 
-0.299695 -0.48291 0 
-0.250032 -0.503 0 
-0.200501 -0.526165 0 
-0.149489 -0.495195 0 
-0.0999281 -0.521367 0 
-0.0499712 -0.492294 0 
4.64723e-05 -0.520999 0 
0.050147 -0.492108 0 
0.099934 -0.52133 0 
0.14957 -0.494692 0 
0.200133 -0.526255 0 
0.249839 -0.503309 0 
0.299839 -0.483005 0 
0.351514 -0.513798 0 
0.401881 -0.486608 0 
0.444935 -0.513054 0 
0.486228 -0.486228 0 
0.537702 -0.497945 0 
0.588901 -0.506147 0 
0.639623 -0.508497 0 
0.692668 -0.509524 0 
0.747859 -0.510716 0 
0.802929 -0.512965 0 
0.857885 -0.513842 0 
-0.887039 -0.461695 0 
-0.832348 -0.462372 0 
-0.778365 -0.460836 0 
-0.724356 -0.45935 0 
-0.671321 -0.457509 0 
-0.618874 -0.455505 0 
-0.567021 -0.451508 0 
-0.512952 -0.444928 0 
-0.450685 -0.450685 0 
-0.397667 -0.437543 0 
-0.348492 -0.462546 0 
-0.295416 -0.432968 0 
-0.247004 -0.450633 0 
-0.198702 -0.473818 0 
-0.150161 -0.441625 0 
-0.100085 -0.468395 0 
-0.0502271 -0.439281 0 
0.000144229 -0.468374 0 
0.0504178 -0.439106 0 
0.100428 -0.468348 0 
0.150697 -0.441105 0 
0.199103 -0.473881 0 
0.247983 -0.450921 0 
0.296569 -0.432268 0 
0.348831 -0.462562 0 
0.397506 -0.4368 0 
0.450637 -0.450637 0 
0.513054 -0.444935 0 
0.5671 -0.451404 0 
0.618952 -0.455483 0 
0.67138 -0.457525 0 
0.724407 -0.459374 0 
0.778382 -0.460863 0 
0.83234 -0.462414 0 
0.887011 -0.461748 0 
-0.912466 -0.409153 0 
-0.857936 -0.411157 0 
-0.804631 -0.410124 0 
-0.751554 -0.408794 0 
-0.698865 -0.407328 0 
-0.646545 -0.405555 0 
-0.594688 -0.403019 0 
-0.542431 -0.399773 0 
-0.486784 -0.401787 0 
-0.437543 -0.397667 0 
-0.387256 -0.387256 0 
-0.344215 -0.411459 0 
-0.30136 -0.381507 0 
-0.25021 -0.395692 0 
-0.200211 -0.419975 0 
-0.150955 -0.389014 0 
-0.100617 -0.416095 0 
-0.0503197 -0.386922 0 
-4.02994e-05 -0.416525 0 
0.05006 -0.386948 0 
0.100784 -0.416323 0 
0.150432 -0.388572 0 
0.200855 -0.420694 0 
0.25086 -0.396905 0 
0.301746 -0.379789 0 
0.344135 -0.410678 0 
0.385823 -0.385823 0 
0.4368 -0.397506 0 
0.486608 -0.401881 0 
0.542384 -0.399615 0 
0.594743 -0.402948 0 
0.646641 -0.405575 0 
0.698945 -0.407371 0 
0.751626 -0.408863 0 
0.804654 -0.410181 0 
0.857929 -0.411236 0 
0.912429 -0.409236 0 
-0.934288 -0.356519 0 
-0.879963 -0.359855 0 
-0.827415 -0.358606 0 
-0.774971 -0.357337 0 
-0.722823 -0.355968 0 
-0.670703 -0.354417 0 
-0.618952 -0.352514 0 
-0.567003 -0.350494 0 
-0.513639 -0.351685 0 
-0.462546 -0.348492 0 
-0.411459 -0.344215 0 
-0.351697 -0.351697 0 
-0.29839 -0.336232 0 
-0.249846 -0.342529 0 
-0.200971 -0.367271 0 
-0.149995 -0.337521 0 
-0.100435 -0.3646 0 
-0.0498692 -0.335025 0 
-6.88684e-05 -0.365025 0 
0.0495433 -0.334795 0 
0.0996798 -0.364834 0 
0.148162 -0.337172 0 
0.199644 -0.368939 0 
0.24763 -0.345582 0 
0.295348 -0.332889 0 
0.34978 -0.34978 0 
0.410678 -0.344135 0 
0.462562 -0.348831 0 
0.513798 -0.351514 0 
0.567174 -0.350318 0 
0.619096 -0.352457 0 
0.670836 -0.354397 0 
0.722893 -0.355952 0 
0.775038 -0.357323 0 
0.827419 -0.358581 0 
0.879943 -0.359894 0 
0.93426 -0.356593 0 
-0.952721 -0.303845 0 
-0.898929 -0.308871 0 
-0.847481 -0.306888 0 
-0.795641 -0.305781 0 
-0.743684 -0.304815 0 
-0.691387 -0.303722 0 
-0.639219 -0.302427 0 
-0.586897 -0.300977 0 
-0.534146 -0.301574 0 
-0.48291 -0.299695 0 
-0.432968 -0.295416 0 
-0.381507 -0.30136 0 
-0.336232 -0.29839 0 
-0.288184 -0.288184 0 
-0.242975 -0.290577 0 
-0.198059 -0.315051 0 
-0.148383 -0.285894 0 
-0.0994753 -0.313232 0 
-0.0507184 -0.283118 0 
-0.000202902 -0.313447 0 
0.0500077 -0.282824 0 
0.0988289 -0.312817 0 
0.148102 -0.28482 0 
0.195742 -0.317413 0 
0.240766 -0.295824 0 
0.285014 -0.285014 0 
0.332889 -0.295348 0 
0.379789 -0.301746 0 
0.432268 -0.296569 0 
0.483005 -0.299839 0 
0.534348 -0.301273 0 
0.587085 -0.30086 0 
0.639359 -0.302407 0 
0.691518 -0.303753 0 
0.743741 -0.304862 0 
0.795701 -0.305831 0 
0.847482 -0.306946 0 
0.898924 -0.308979 0 
0.952687 -0.303953 0 
-0.96803 -0.250833 0 
-0.916037 -0.258282 0 
-0.866979 -0.254732 0 
-0.816639 -0.25358 0 
-0.765535 -0.252907 0 
-0.71362 -0.252254 0 
-0.661417 -0.251503 0 
-0.608767 -0.250543 0 
-0.555692 -0.250874 0 
-0.503 -0.250032 0 
-0.450633 -0.247004 0 
-0.395692 -0.25021 0 
-0.342529 -0.249846 0 
-0.290577 -0.242975 0 
-0.239946 -0.239946 0 
-0.194478 -0.26004 0 
-0.151293 -0.23238 0 
-0.101048 -0.260904 0 
-0.0503938 -0.232537 0 
-0.000203281 -0.262984 0 
0.050638 -0.232316 0 
0.100942 -0.260855 0 
0.152412 -0.232597 0 
0.195768 -0.261421 0 
0.241873 -0.241873 0 
0.295824 -0.240766 0 
0.345582 -0.24763 0 
0.396905 -0.25086 0 
0.450921 -0.247983 0 
[...]
POINT_DATA 1245 
VECTORS vectors float
0.526667 -0.182517 0.830246 
0.533928 -0.148811 0.832331 
0.540796 -0.112479 0.8336 
0.546586 -0.0809512 0.833481 
0.55257 -0.0473643 0.83212 
0.557599 -0.0191384 0.82989 
0.562226 0.00785649 0.826947 
0.563719 0.033884 0.825271 
0.564262 0.0591868 0.823472 
0.563943 0.0868371 0.821236 
0.562007 0.111016 0.819648 
0.557356 0.137013 0.81889 
0.549327 0.160277 0.820092 
0.510008 -0.245527 0.824384 
0.518888 -0.214836 0.827406 
0.459947 -0.170458 0.871431 
0.468017 -0.142051 0.872228 
0.482013 -0.113346 0.868802 
0.469146 -0.0803113 0.879461 
0.489463 -0.0524411 0.870446 
0.475073 -0.0227643 0.879652 
0.497784 0.0054174 0.867284 
0.480553 0.0306101 0.876431 
0.500608 0.0583058 0.863709 
0.483332 0.0803178 0.871745 
0.500241 0.107116 0.859235 
0.486083 0.127763 0.864523 
0.475421 0.148688 0.867102 
0.537602 0.182954 0.823111 
0.521414 0.206151 0.828027 
0.485647 -0.301153 0.820642 
0.499212 -0.274284 0.821922 
0.444154 -0.226107 0.86695 
0.452213 -0.198985 0.86943 
0.399711 -0.155669 0.903326 
0.409496 -0.129039 0.90314 
0.425201 -0.10253 0.899273 
0.401173 -0.0720286 0.913166 
0.42784 -0.0477157 0.902594 
0.403464 -0.0217185 0.914738 
0.433329 0.00267421 0.901232 
0.407401 0.0246966 0.912915 
0.436367 0.0500201 0.898377 
0.41156 0.0688339 0.908779 
0.438945 0.0952333 0.893453 
0.422034 0.115157 0.899237 
0.409726 0.135588 0.902076 
0.463081 0.170162 0.869828 
0.447852 0.192642 0.873108 
0.500371 0.230939 0.834444 
0.474456 0.258735 0.841396 
0.468553 -0.326678 0.820816 
0.420574 -0.277139 0.863893 
0.433874 -0.252292 0.864929 
0.384373 -0.207026 0.899665 
0.392727 -0.181358 0.901596 
0.346086 -0.142106 0.927378 
0.355625 -0.118346 0.927106 
0.370534 -0.0942461 0.924025 
0.343165 -0.0659995 0.936953 
0.367659 -0.0441632 0.928911 
0.341532 -0.0210364 0.939635 
0.370442 0.000882442 0.928855 
0.344201 0.0202579 0.938678 
0.373805 0.043118 0.926505 
0.350037 0.0609789 0.934749 
0.380624 0.0859182 0.92073 
0.36386 0.104813 0.925538 
0.350959 0.12447 0.928082 
0.397466 0.15677 0.904126 
0.382558 0.179436 0.90634 
0.428118 0.217379 0.87719 
0.404702 0.244674 0.881108 
0.444614 0.290557 0.847287 
0.423588 -0.376557 0.82388 
0.447676 -0.351629 0.822158 
0.403764 -0.300628 0.864059 
0.361398 -0.254247 0.897078 
0.374559 -0.230979 0.897972 
0.331515 -0.189187 0.924287 
0.338842 -0.16598 0.926087 
0.298073 -0.130047 0.945643 
0.307238 -0.108495 0.945428 
0.32062 -0.0871971 0.943186 
0.292488 -0.0609612 0.954324 
0.313647 -0.0414006 0.948637 
0.288613 -0.0201847 0.957233 
0.314116 -0.000714906 0.949384 
0.290325 0.0173112 0.956772 
0.317793 0.0380035 0.947398 
0.296945 0.0546124 0.953331 
0.326829 0.0779888 0.94186 
0.311798 0.0959148 0.945295 
0.299417 0.11469 0.947204 
0.339506 0.144942 0.929369 
0.326035 0.16726 0.930444 
0.365006 0.203446 0.908504 
0.343691 0.230372 0.910387 
0.378651 0.274711 0.883831 
0.412906 0.326481 0.850246 
0.382124 0.365099 0.848931 
0.395504 -0.403358 0.825154 
0.366877 -0.350292 0.861799 
0.383669 -0.323427 0.864982 
0.344601 -0.276175 0.897206 
0.30904 -0.234468 0.921694 
0.321474 -0.212171 0.922842 
0.284486 -0.173824 0.94279 
0.291703 -0.151935 0.944365 
0.255526 -0.119331 0.959409 
0.263763 -0.0996963 0.959421 
0.275524 -0.0801805 0.957945 
0.248938 -0.056552 0.966867 
0.266587 -0.0387448 0.963032 
0.243797 -0.0194492 0.969631 
0.265487 -0.00177564 0.964113 
0.244753 0.0149767 0.96947 
0.269049 0.0338041 0.962533 
0.25118 0.0496382 0.966667 
0.27909 0.0713376 0.957611 
0.265281 0.0881092 0.960137 
0.254638 0.106051 0.961204 
0.28908 0.134672 0.947785 
0.277285 0.156207 0.948005 
0.309758 0.191176 0.931398 
0.291652 0.217171 0.931545 
0.320609 0.25872 0.911194 
0.351781 0.307223 0.884231 
0.331416 0.344821 0.878215 
0.352916 0.40642 0.842777 
0.365807 -0.430799 0.824983 
0.341008 -0.375146 0.861962 
0.316183 -0.325344 0.891168 
0.325485 -0.297737 0.897447 
0.292813 -0.256955 0.920997 
0.264855 -0.217792 0.939371 
0.275762 -0.195132 0.941211 
0.243609 -0.160029 0.95658 
0.25022 -0.139194 0.958131 
0.2184 -0.109519 0.969694 
0.225712 -0.0914425 0.969893 
0.235497 -0.0740451 0.96905 
0.211164 -0.0521436 0.976059 
0.22569 -0.0360395 0.973532 
0.205544 -0.0183931 0.978475 
0.223822 -0.00223322 0.974627 
0.205966 0.0131644 0.978471 
0.227001 0.0304229 0.973419 
0.211925 0.0452591 0.976237 
0.236842 0.0651425 0.969362 
0.225288 0.0814988 0.970877 
0.215538 0.0984729 0.971518 
0.245584 0.125353 0.961236 
0.235421 0.146454 0.960796 
0.263403 0.179602 0.94782 
0.24852 0.20593 0.946483 
0.271112 0.246141 0.930544 
0.298205 0.288382 0.909895 
0.287104 0.323788 0.901517 
0.307303 0.380727 0.872131 
0.328114 0.445662 0.832903 
0.337263 -0.457047 0.82302 
0.312177 -0.393016 0.864918 
0.288354 -0.334722 0.897114 
0.275555 -0.284169 0.918323 
0.252586 -0.241764 0.936883 
0.227593 -0.202583 0.95245 
0.23567 -0.180491 0.954926 
0.208182 -0.147296 0.966935 
0.21374 -0.128396 0.968416 
0.18597 -0.100863 0.977365 
0.1919 -0.0843471 0.977783 
0.200457 -0.0682273 0.977324 
0.1785 -0.0484019 0.982749 
0.190945 -0.0337323 0.981021 
0.172879 -0.0172578 0.984792 
0.188822 -0.00262423 0.982008 
0.172855 0.0119286 0.984875 
0.191331 0.0277784 0.981132 
0.17819 0.0416321 0.983115 
0.200276 0.0602642 0.977884 
0.190218 0.0752422 0.978854 
0.182343 0.0917878 0.978941 
0.208606 0.116896 0.970989 
0.199735 0.137018 0.970223 
0.224104 0.168772 0.95984 
0.213127 0.194332 0.957503 
0.233969 0.235149 0.943379 
0.252518 0.281273 0.925808 
0.26302 0.339323 0.90315 
0.284464 0.405791 0.86857 
0.30856 0.478895 0.821857 
0.309439 -0.482488 0.819423 
0.28763 -0.415851 0.86275 
0.265875 -0.35553 0.896052 
0.248311 -0.302433 0.920259 
0.233658 -0.261434 0.936513 
0.213926 -0.221613 0.95138 
0.193278 -0.185711 0.963408 
0.200847 -0.166527 0.965365 
0.176589 -0.136199 0.974816 
0.182141 -0.118275 0.976133 
0.157637 -0.0941217 0.983001 
0.162741 -0.0781585 0.983568 
0.169995 -0.063237 0.983414 
0.150571 -0.045019 0.987574 
0.160985 -0.0313379 0.986459 
0.145502 -0.016324 0.989223 
0.158785 -0.00263196 0.98731 
0.145315 0.010719 0.989327 
0.16076 0.0255325 0.986663 
0.149566 0.0387615 0.987992 
0.168654 0.0559878 0.984084 
0.160224 0.0705573 0.984556 
0.153544 0.0863837 0.984359 
0.176326 0.109311 0.978243 
0.16891 0.128043 0.977279 
0.190259 0.158006 0.968935 
0.181283 0.180016 0.966815 
0.198876 0.21761 0.95556 
0.215629 0.260575 0.941066 
0.228696 0.306266 0.924067 
0.245811 0.365712 0.897681 
0.267826 0.433111 0.86063 
0.291898 0.506826 0.811124 
0.283282 -0.505604 0.814933 
0.263532 -0.437067 0.859956 
0.243678 -0.375098 0.894384 
0.226012 -0.320677 0.919829 
0.210328 -0.275016 0.938151 
0.19589 -0.236183 0.951759 
0.179417 -0.200561 0.963112 
0.162656 -0.168927 0.972115 
0.168968 -0.152252 0.973791 
0.148638 -0.127876 0.980589 
0.154216 -0.110711 0.981815 
0.133562 -0.0872675 0.987191 
0.137317 -0.0725861 0.987864 
0.143555 -0.0587574 0.987896 
0.12653 -0.041638 0.991089 
0.135529 -0.0291168 0.990345 
0.121573 -0.0150534 0.992468 
0.133262 -0.00249164 0.991078 
0.121078 0.0101627 0.992591 
0.134802 0.0236916 0.990589 
0.124972 0.0360129 0.991507 
0.141775 0.0521288 0.988525 
0.134349 0.0661452 0.988724 
0.129514 0.0810778 0.988257 
0.148479 0.103611 0.983473 
0.141411 0.121986 0.982406 
0.159724 0.146296 0.976261 
0.152976 0.164539 0.974436 
0.167445 0.198047 0.965784 
0.18227 0.23599 0.954508 
0.195752 0.278307 0.940333 
0.211185 0.328361 0.920641 
0.230422 0.388054 0.892367 
0.252749 0.455244 0.853739 
0.277104 0.528357 0.802529 
0.258883 -0.525409 0.810509 
0.240296 -0.455141 0.857383 
0.221638 -0.39189 0.892916 
0.204675 -0.336014 0.919349 
0.188852 -0.287509 0.938975 
0.174931 -0.245653 0.953443 
0.161224 -0.209203 0.96449 
0.147601 -0.175481 0.973355 
0.13957 -0.144388 0.979629 
0.12603 -0.119062 0.984856 
0.130437 -0.102693 0.986124 
0.112665 -0.0807489 0.990346 
0.11528 -0.0668789 0.991079 
0.120798 -0.0543395 0.991189 
0.105677 -0.0389625 0.993637 
0.113618 -0.0273609 0.993148 
0.101645 -0.014149 0.99472 
0.111845 -0.00256765 0.993722 
0.101146 0.0095477 0.994826 
0.112858 0.0221546 0.993364 
0.103926 0.034246 0.993995 
0.118715 0.048843 0.991726 
0.112473 0.0617528 0.991734 
0.108425 0.076 0.991195 
0.125024 0.0973324 0.987368 
0.11941 0.114215 0.986254 
0.131543 0.140467 0.981308 
0.138424 0.173407 0.975074 
0.151033 0.208796 0.966226 
0.163907 0.247853 0.954832 
0.178608 0.292958 0.939295 
0.195387 0.344882 0.918085 
0.215288 0.404586 0.888798 
0.238141 0.471139 0.849304 
0.262788 0.543464 0.797239 
0.235898 -0.54128 0.807074 
0.218213 -0.469707 0.855429 
0.20067 -0.405565 0.891767 
0.184117 -0.34829 0.919127 
0.169337 -0.298453 0.939282 
0.156059 -0.255007 0.954263 
0.143672 -0.217321 0.965469 
0.13249 -0.184162 0.973925 
0.124021 -0.154537 0.980172 
0.115347 -0.130782 0.984678 
0.105413 -0.108555 0.988486 
0.10941 -0.0953848 0.98941 
0.0948398 -0.0779132 0.992439 
0.0956236 -0.0636821 0.993378 
0.100634 -0.0512623 0.993602 
0.0878267 -0.0369949 0.995449 
0.0947853 -0.0256411 0.995167 
0.0841402 -0.0134752 0.996363 
0.0929945 -0.00217844 0.995664 
0.0836738 0.00883471 0.996454 
0.0937912 0.0211483 0.995367 
0.0861728 0.0321584 0.995761 
0.0986887 0.0465249 0.99403 
0.0930145 0.0593797 0.993893 
0.0904682 0.0737953 0.993161 
0.104323 0.0906421 0.990404 
0.0992485 0.104388 0.989572 
0.108692 0.127256 0.985897 
0.116694 0.152117 0.981449 
0.124307 0.183338 0.975159 
0.135591 0.218407 0.966392 
0.148145 0.258175 0.954672 
0.162804 0.303954 0.938673 
0.180137 0.35632 0.916835 
0.200132 0.415475 0.887315 
0.223057 0.48117 0.847774 
0.247667 0.55255 0.795833 
0.21378 -0.553218 0.805139 
0.197319 -0.481064 0.854191 
0.180015 -0.415878 0.891426 
0.16438 -0.358188 0.919065 
0.150454 -0.307093 0.939711 
0.137597 -0.262662 0.955027 
0.126416 -0.223844 0.966392 
0.116242 -0.190275 0.974825 
0.10844 -0.160614 0.981042 
0.100282 -0.135423 0.9857 
0.0927953 -0.113329 0.989215 
0.0892605 -0.0920426 0.991746 
0.0802373 -0.0735164 0.994061 
0.0786571 -0.0599853 0.995095 
0.083466 -0.0482559 0.995342 
0.0725107 -0.0345142 0.99677 
0.0786823 -0.0239809 0.996611 
0.0694213 -0.0123226 0.997511 
0.0773384 -0.00201127 0.997003 
0.0688623 0.00860748 0.997589 
0.0777289 0.0198531 0.996777 
0.0707739 0.0303791 0.99703 
0.0815918 0.044035 0.995693 
0.0767385 0.055694 0.995495 
0.0754369 0.0688463 0.994771 
0.0840448 0.087742 0.992591 
0.0874291 0.110281 0.990048 
0.0944532 0.133415 0.986549 
0.1019 0.159704 0.981891 
0.109715 0.190321 0.975572 
0.120056 0.225365 0.966849 
0.132538 0.265454 0.95497 
0.146976 0.311257 0.938891 
0.164034 0.363246 0.91714 
0.183827 0.421567 0.887969 
0.206649 0.486265 0.849024 
0.230545 0.556419 0.798277 
0.191897 -0.561478 0.804933 
0.176784 -0.489252 0.854038 
0.160286 -0.424554 0.891102 
0.145481 -0.365924 0.919203 
0.132189 -0.314309 0.940072 
0.120381 -0.268462 0.955739 
0.109882 -0.228943 0.967218 
0.100655 -0.194142 0.975796 
0.0931028 -0.164409 0.981989 
0.0860715 -0.138701 0.986587 
0.0793289 -0.116799 0.989982 
0.0762581 -0.0978418 0.992276 
0.0719324 -0.0824458 0.993996 
0.0657176 -0.0673007 0.995566 
0.0639544 -0.0550887 0.996431 
0.0682965 -0.045165 0.996642 
0.0589133 -0.0323683 0.997738 
0.0644468 -0.0226981 0.997663 
0.0560312 -0.0118207 0.998359 
0.0629187 -0.00199708 0.998017 
0.0554581 0.00833699 0.998426 
0.0633548 0.0186319 0.997817 
0.0571432 0.0290032 0.997945 
0.0668125 0.0409347 0.996925 
0.0626236 0.0516527 0.9967 
0.0616971 0.0633621 0.996082 
0.0669826 0.0783746 0.994671 
0.0719771 0.0947917 0.992892 
0.0746906 0.114743 0.990583 
0.0807825 0.137611 0.987187 
0.0875202 0.163738 0.982614 
0.0951664 0.194616 0.976252 
0.105102 0.229817 0.967542 
0.116898 0.27016 0.955693 
0.130752 0.315944 0.939725 
0.147119 0.367402 0.918353 
0.166118 0.424738 0.889945 
0.188209 0.487755 0.852451 
0.21034 0.555944 0.804166 
0.169489 -0.566187 0.806663 
0.156956 -0.496494 0.853732 
0.140883 -0.433198 0.89022 
0.127232 -0.375193 0.918173 
0.114966 -0.323162 0.939334 
0.104099 -0.276691 0.955304 
0.094484 -0.235822 0.967192 
0.0858162 -0.200282 0.975973 
0.0789694 -0.169175 0.982417 
0.0725939 -0.142558 0.987121 
0.0664682 -0.119282 0.990633 
0.0628898 -0.0986281 0.993135 
0.0589792 -0.080892 0.994976 
0.0542134 -0.0654174 0.996384 
0.0513279 -0.0519813 0.997328 
0.0540919 -0.0419717 0.997653 
0.0465988 -0.0315374 0.998416 
0.0518432 -0.0216706 0.99842 
0.0446962 -0.0112592 0.998937 
0.0512707 -0.00160623 0.998684 
0.0442062 0.0082005 0.998989 
0.0509252 0.0186395 0.998529 
0.0452473 0.0288526 0.998559 
0.052639 0.039371 0.997837 
0.0493946 0.0499832 0.997528 
0.0511521 0.0642729 0.996621 
0.0551274 0.0796721 0.995296 
0.0590285 0.0974614 0.993487 
0.0623912 0.118206 0.991027 
0.067701 0.141852 0.98757 
0.0738678 0.169059 0.982834 
0.0812143 0.200175 0.976388 
0.0903377 0.236076 0.967526 
0.101136 0.276339 0.955724 
0.114187 0.322032 0.939817 
0.128854 0.372212 0.91916 
0.146481 0.42775 0.891949 
0.167381 0.487866 0.85672 
0.185746 0.551923 0.812945 
0.144503 -0.567385 0.810675 
0.137376 -0.507347 0.850721 
0.122147 -0.445987 0.886666 
0.109541 -0.388375 0.914968 
0.0983402 -0.334996 0.937073 
0.08848 -0.287151 0.95379 
0.0795495 -0.245054 0.96624 
0.0721069 -0.207977 0.975472 
0.0655848 -0.176098 0.982185 
0.060051 -0.148519 0.987085 
0.0548818 -0.124604 0.990688 
0.051416 -0.103674 0.993281 
0.0480029 -0.0858012 0.995155 
0.0448913 -0.069729 0.996555 
0.0415146 -0.0551952 0.997612 
0.0411459 -0.0415154 0.99829 
0.0363259 -0.0295223 0.998904 
0.0406647 -0.0203074 0.998966 
0.0345455 -0.00989637 0.999354 
0.0401033 -0.00133427 0.999195 
0.0342152 0.00759132 0.999386 
0.0398418 0.0177549 0.999048 
0.0352283 0.0275266 0.999 
0.039867 0.039631 0.998419 
0.0396304 0.0534184 0.997785 
0.041418 0.0687766 0.996772 
0.0445741 0.0846712 0.995411 
0.0476943 0.102883 0.993549 
0.0506961 0.124095 0.990974 
0.0554512 0.14808 0.98742 
0.0608435 0.175767 0.98255 
0.0673054 0.207751 0.975863 
0.0755573 0.243947 0.966841 
0.0850458 0.285037 0.954736 
0.0962322 0.33064 0.938838 
0.109624 0.381108 0.918008 
0.124855 0.434769 0.891845 
0.144209 0.4918 0.858683 
0.153664 0.544942 0.824273 
0.121163 -0.566221 0.8153 
0.110088 -0.487089 0.866386 
0.0944981 -0.415723 0.904568 
0.0827455 -0.354617 0.931343 
0.073078 -0.302127 0.950462 
0.0651393 -0.256556 0.964332 
0.0580787 -0.21742 0.974349 
0.0522953 -0.183741 0.981583 
0.0474691 -0.154668 0.986825 
0.0432989 -0.129999 0.990568 
0.0397429 -0.108483 0.993304 
0.0374215 -0.0898514 0.995252 
0.0347233 -0.0742032 0.996638 
0.0325146 -0.0599553 0.997671 
0.0316649 -0.0470647 0.99839 
0.0296956 -0.0364617 0.998894 
0.0264223 -0.026126 0.999309 
0.0306849 -0.0186038 0.999356 
0.0246604 -0.0104188 0.999642 
0.0298206 -0.00123851 0.999555 
0.0243381 0.00831571 0.999669 
0.030054 0.0164314 0.999413 
0.0256629 0.0242262 0.999377 
0.0285261 0.0345882 0.998994 
0.0299528 0.0454087 0.998519 
0.0302018 0.0582427 0.997845 
0.0315958 0.0726784 0.996855 
0.0339141 0.0890491 0.99545 
0.0362795 0.107776 0.993513 
0.0390662 0.129503 0.990809 
0.0427187 0.154645 0.987046 
0.0473785 0.183435 0.981889 
0.0528572 0.216559 0.974838 
0.0595509 0.254633 0.965202 
0.0679221 0.297885 0.952182 
0.077716 0.347169 0.934577 
0.0902373 0.40337 0.910577 
0.108352 0.468453 0.876819 
0.120388 0.538751 0.833819 
0.094132 -0.56283 0.821195 
0.0891974 -0.500256 0.861271 
0.0769493 -0.436707 0.896307 
0.0661048 -0.374791 0.92475 
0.0574796 -0.319513 0.945837 
0.0501155 -0.271423 0.961154 
0.0440481 -0.230031 0.972186 
0.0391534 -0.194398 0.980141 
0.0350735 -0.164154 0.985811 
0.0314449 -0.138346 0.989885 
0.028845 -0.115733 0.992861 
0.0267325 -0.0968423 0.994941 
0.0246734 -0.0801341 0.996479 
0.023194 -0.0655731 0.997578 
0.0221961 -0.0524668 0.998376 
0.0208149 -0.0409844 0.998943 
0.0192142 -0.0305008 0.99935 
0.0197867 -0.0190634 0.999622 
0.0165591 -0.00961158 0.999817 
0.0216959 -0.00100584 0.999764 
0.0163455 0.00792889 0.999835 
0.0191854 0.0173824 0.999665 
0.0181809 0.0289614 0.999415 
0.0196884 0.0396442 0.99902 
0.0203 0.0512181 0.998481 
0.0207336 0.0646028 0.997696 
0.0218966 0.0797661 0.996573 
0.0235429 0.0965962 0.995045 
0.0251632 0.116133 0.992915 
0.0272002 0.138686 0.989963 
0.0300883 0.16453 0.985913 
0.0332812 0.19466 0.980306 
0.0375352 0.229162 0.972664 
0.0425379 0.268836 0.962246 
0.0485411 0.314186 0.94812 
0.056163 0.365074 0.929283 
0.0660877 0.421417 0.904456 
0.0777324 0.477976 0.874927 
0.0792364 0.53323 0.842251 
0.0689536 -0.558553 0.826598 
0.0601394 -0.476764 0.876972 
0.0492921 -0.404147 0.913365 
0.0407432 -0.342317 0.938701 
0.0342897 -0.28961 0.95653 
0.0292532 -0.244863 0.969116 
0.0250259 -0.206851 0.978052 
0.0216975 -0.174643 0.984393 
0.019261 -0.146748 0.988986 
0.0171131 -0.123444 0.992204 
0.0154937 -0.102969 0.994564 
0.0144188 -0.0855086 0.996233 
0.0132756 -0.0703476 0.997434 
0.0126379 -0.0567851 0.998306 
0.0120376 -0.0451487 0.998908 
0.0109684 -0.0342401 0.999353 
0.0113683 -0.02442 0.999637 
0.0106312 -0.0156461 0.999821 
0.00820923 -0.00669887 0.999944 
0.0126963 -0.00062256 0.999919 
0.0080791 0.00472907 0.999956 
0.0102841 0.0142369 0.999846 
0.0107714 0.0229434 0.999679 
0.0100854 0.0333187 0.999394 
0.0106185 0.0439543 0.998977 
0.0108468 0.05616 0.998363 
0.011073 0.0700164 0.997484 
0.0117336 0.0856629 0.996255 
0.0124366 0.10362 0.994539 
0.013386 0.12413 0.992176 
0.0145248 0.14819 0.988852 
0.0160322 0.175722 0.984309 
0.0180481 0.20763 0.978041 
0.0202261 0.244702 0.969387 
0.0233151 0.287274 0.957565 
0.0268173 0.336658 0.941245 
0.0313782 0.393275 0.918885 
0.0384362 0.458384 0.887923 
0.0402532 0.530838 0.846517 
0.0425663 -0.553156 0.831989 
0.0351798 -0.489024 0.87156 
0.028082 -0.42613 0.904226 
0.0218751 -0.364547 0.930928 
0.0167253 -0.309675 0.950695 
0.0126453 -0.262481 0.964854 
0.00963462 -0.222351 0.974919 
0.00759225 -0.187909 0.982157 
0.00584668 -0.158939 0.987271 
0.00463775 -0.134052 0.990963 
0.0040327 -0.112368 0.993659 
0.0033968 -0.09431 0.995537 
0.00307677 -0.0779972 0.996949 
0.00290469 -0.0640031 0.997945 
0.00278974 -0.0514139 0.998674 
0.00252661 -0.0404571 0.999178 
0.00242648 -0.0298042 0.999553 
0.00259095 -0.020838 0.99978 
0.0020386 -0.0119533 0.999926 
0.00157481 -0.000420606 0.999999 
0.00183307 0.0109658 0.999938 
0.00214796 0.0196977 0.999804 
0.00167915 0.0286727 0.999587 
0.00163148 0.0396923 0.999211 
0.00144959 0.0512271 0.998686 
0.0011574 0.0638117 0.997961 
0.00104128 0.0786541 0.996901 
0.000911949 0.0951165 0.995466 
0.000892625 0.114145 0.993464 
0.00066981 0.135983 0.990711 
0.000826985 0.161334 0.986899 
0.000691675 0.190698 0.981648 
0.000905371 0.224613 0.974448 
0.00102748 0.263906 0.964548 
0.00109217 0.309224 0.950988 
0.00132907 0.360751 0.932661 
0.0011244 0.417197 0.908815 
0.000804244 0.474188 0.880423 
0.000211791 0.531246 0.847217 
0.0139762 -0.54405 0.838936 
0.00393994 -0.46262 0.886548 
-0.000126689 -0.39293 0.919568 
-0.003559 -0.333081 0.942891 
-0.00604783 -0.282387 0.959282 
-0.00755767 -0.239122 0.97096 
-0.00869579 -0.202548 0.979234 
-0.00908632 -0.171325 0.985173 
-0.00887813 -0.144299 0.989494 
-0.00895646 -0.121615 0.992537 
-0.00853334 -0.10154 0.994795 
-0.00793503 -0.0846638 0.996378 
-0.00746487 -0.0694085 0.99756 
-0.00711594 -0.0562896 0.998389 
-0.00684445 -0.0445339 0.998984 
-0.00588323 -0.0340517 0.999403 
-0.0065816 -0.0238951 0.999693 
-0.00610544 -0.0156811 0.999858 
-0.00262064 -0.00639559 0.999976 
-0.0090671 -0.000577667 0.999959 
-0.00273136 0.0050318 0.999984 
-0.00620301 0.0142693 0.999879 
-0.00690929 0.0232922 0.999705 
-0.00638085 0.0333879 0.999422 
-0.0076232 0.0443662 0.998986 
-0.00837924 0.0562853 0.99838 
-0.00878382 0.0703022 0.997487 
-0.00981189 0.0857595 0.996268 
-0.0107959 0.103589 0.994562 
-0.0117885 0.124173 0.992191 
-0.0131113 0.148041 0.988894 
-0.0147426 0.175421 0.984383 
-0.016285 0.207321 0.978137 
-0.0186294 0.244257 0.969532 
-0.0209221 0.286986 0.957706 
-0.024387 0.336255 0.941455 
-0.0288107 0.393504 0.918871 
-0.0360852 0.458652 0.887883 
-0.0392323 0.532168 0.845729 
-0.0166873 -0.534484 0.845014 