# vtk DataFile Version 3.0 
Exported using Morpho https://github.com/Morpho-lang/morpho 
ASCII 
DATASET UNSTRUCTURED_GRID 

POINTS 1245 float 
-0.303845 -0.952721 0 
-0.250833 -0.96803 0 
-0.195084 -0.980787 0 
-0.146308 -0.989239 0 
-0.0940719 -0.995565 0 
-0.0475118 -0.998871 0 
-0.000246339 -1 0 
0.0470875 -0.998891 0 
0.0937543 -0.995595 0 
0.146139 -0.989264 0 
0.195062 -0.980791 0 
0.250843 -0.968028 0 
0.303953 -0.952687 0 
-0.409153 -0.912466 0 
-0.356519 -0.934288 0 
-0.308871 -0.898929 0 
-0.258282 -0.916037 0 
-0.207345 -0.934859 0 
-0.154868 -0.930629 0 
-0.104343 -0.948989 0 
-0.0520099 -0.939193 0 
-8.5762e-05 -0.954582 0 
0.0518744 -0.939288 0 
0.104354 -0.949042 0 
0.154696 -0.9306 0 
0.207366 -0.934975 0 
0.258274 -0.916081 0 
0.308979 -0.898924 0 
0.356593 -0.93426 0 
0.409236 -0.912429 0 
-0.513788 -0.857917 0 
-0.461695 -0.887039 0 
-0.411157 -0.857936 0 
-0.359855 -0.879963 0 
-0.306888 -0.847481 0 
-0.254732 -0.866979 0 
-0.201991 -0.889059 0 
-0.149956 -0.874108 0 
-0.100608 -0.900088 0 
-0.0497575 -0.880388 0 
2.4595e-05 -0.904789 0 
0.0496869 -0.8804 0 
0.100612 -0.900177 0 
0.149872 -0.874171 0 
0.202071 -0.889165 0 
0.254695 -0.867031 0 
0.306946 -0.847482 0 
0.359894 -0.879943 0 
0.411236 -0.857929 0 
0.461748 -0.887011 0 
0.513842 -0.857885 0 
-0.564741 -0.825268 0 
-0.512908 -0.802945 0 
-0.462372 -0.832348 0 
-0.410124 -0.804631 0 
-0.358606 -0.827415 0 
-0.305781 -0.795641 0 
-0.25358 -0.816639 0 
-0.200756 -0.839997 0 
-0.149043 -0.818944 0 
-0.0987265 -0.846667 0 
-0.0490473 -0.822548 0 
5.00659e-05 -0.849932 0 
0.0490834 -0.822542 0 
0.0987838 -0.846676 0 
0.148997 -0.818924 0 
0.200826 -0.840131 0 
0.253508 -0.816728 0 
0.305831 -0.795701 0 
0.358581 -0.827419 0 
0.410181 -0.804654 0 
0.462414 -0.83234 0 
0.512965 -0.802929 0 
0.564777 -0.825243 0 
-0.660798 -0.750564 0 
-0.614015 -0.789295 0 
-0.561786 -0.769772 0 
-0.510673 -0.747856 0 
-0.460836 -0.778365 0 
-0.408794 -0.751554 0 
-0.357337 -0.774971 0 
-0.304815 -0.743684 0 
-0.252907 -0.765535 0 
-0.200631 -0.789263 0 
-0.149244 -0.764328 0 
-0.0986912 -0.791935 0 
-0.0492815 -0.765764 0 
4.16586e-05 -0.79382 0 
0.0492411 -0.765708 0 
0.0987508 -0.791951 0 
0.149196 -0.764326 0 
0.200666 -0.789356 0 
0.252841 -0.765599 0 
0.304862 -0.743741 0 
0.357323 -0.775038 0 
0.408863 -0.751626 0 
0.460863 -0.778382 0 
0.510716 -0.747859 0 
0.561819 -0.769761 0 
0.614041 -0.789274 0 
0.660811 -0.750552 0 
-0.707107 -0.707107 0 
-0.654819 -0.699058 0 
-0.60813 -0.73348 0 
-0.558104 -0.71337 0 
-0.509495 -0.692659 0 
-0.45935 -0.724356 0 
-0.407328 -0.698865 0 
-0.355968 -0.722823 0 
-0.303722 -0.691387 0 
-0.252254 -0.71362 0 
-0.20067 -0.737336 0 
-0.149608 -0.710068 0 
-0.0991558 -0.737129 0 
-0.0495872 -0.709825 0 
-2.23646e-05 -0.737917 0 
0.0494408 -0.709766 0 
0.0991291 -0.737116 0 
0.149502 -0.710042 0 
0.200696 -0.73743 0 
0.252186 -0.713735 0 
0.303753 -0.691518 0 
0.355952 -0.722893 0 
0.407371 -0.698945 0 
0.459374 -0.724407 0 
0.509524 -0.692668 0 
0.558131 -0.713361 0 
0.608151 -0.733462 0 
0.654824 -0.699048 0 
0.707107 -0.707107 0 
-0.750564 -0.660798 0 
-0.699058 -0.654819 0 
-0.647692 -0.647692 0 
-0.603437 -0.675718 0 
-0.55905 -0.655305 0 
-0.508501 -0.639581 0 
-0.457509 -0.671321 0 
-0.405555 -0.646545 0 
-0.354417 -0.670703 0 
-0.302427 -0.639219 0 
-0.251503 -0.661417 0 
-0.20061 -0.684911 0 
-0.149717 -0.655943 0 
-0.0995004 -0.682466 0 
-0.0498216 -0.654561 0 
-5.02113e-05 -0.682664 0 
0.0496787 -0.654499 0 
0.0994374 -0.682501 0 
0.149603 -0.655909 0 
0.200573 -0.684972 0 
0.251388 -0.661524 0 
0.302407 -0.639359 0 
0.354397 -0.670836 0 
0.405575 -0.646641 0 
0.457525 -0.67138 0 
0.508497 -0.639623 0 
0.559063 -0.655324 0 
0.603436 -0.675715 0 
0.64769 -0.64769 0 
0.699048 -0.654824 0 
0.750552 -0.660811 0 
-0.789295 -0.614015 0 
-0.73348 -0.60813 0 
-0.675718 -0.603437 0 
-0.613088 -0.613088 0 
-0.55962 -0.604068 0 
-0.506189 -0.588854 0 
-0.455505 -0.618874 0 
-0.403019 -0.594688 0 
-0.352514 -0.618952 0 
-0.300977 -0.586897 0 
-0.250543 -0.608767 0 
-0.200257 -0.632053 0 
-0.150049 -0.601979 0 
-0.0998281 -0.628222 0 
-0.0500377 -0.599914 0 
-3.12334e-05 -0.628076 0 
0.0498927 -0.599835 0 
0.0997818 -0.628253 0 
0.149924 -0.601867 0 
0.200214 -0.632118 0 
0.250423 -0.608915 0 
0.30086 -0.587085 0 
0.352457 -0.619096 0 
0.402948 -0.594743 0 
0.455483 -0.618952 0 
0.506147 -0.588901 0 
0.55964 -0.604067 0 
0.613069 -0.613069 0 
0.675715 -0.603436 0 
0.733462 -0.608151 0 
0.789274 -0.614041 0 
-0.825268 -0.564741 0 
-0.769772 -0.561786 0 
-0.71337 -0.558104 0 
-0.655305 -0.55905 0 
-0.604068 -0.55962 0 
-0.551031 -0.551031 0 
-0.497922 -0.537596 0 
-0.451508 -0.567021 0 
-0.399773 -0.542431 0 
-0.350494 -0.567003 0 
-0.301574 -0.534146 0 
-0.250874 -0.555692 0 
-0.200542 -0.579013 0 
-0.150324 -0.548268 0 
-0.100169 -0.57443 0 
-0.0500152 -0.545912 0 
-3.29278e-05 -0.574268 0 
0.0499208 -0.545788 0 
0.100058 -0.574485 0 
0.150038 -0.548073 0 
0.200377 -0.579041 0 
0.250556 -0.55585 0 
0.301273 -0.534348 0 
0.350318 -0.567174 0 
0.399615 -0.542384 0 
0.451404 -0.5671 0 
0.497945 -0.537702 0 
0.551073 -0.551073 0 
0.604067 -0.55964 0 
0.655324 -0.559063 0 
0.713361 -0.558131 0 
0.769761 -0.561819 0 
0.825243 -0.564777 0 
-0.857917 -0.513788 0 
-0.802945 -0.512908 0 
-0.747856 -0.510673 0 
-0.692659 -0.509495 0 
-0.639581 -0.508501 0 
-0.588854 -0.506189 0 
-0.537596 -0.497922 0 
-0.486157 -0.486157 0 
-0.444928 -0.512952 0 
-0.401787 -0.486784 0 
-0.351685 -0.513639 0 
-0.299695 -0.48291 0 
-0.250032 -0.503 0 
-0.200501 -0.526165 0 
-0.149489 -0.495195 0 
-0.0999281 -0.521367 0 
-0.0499712 -0.492294 0 
4.64723e-05 -0.520999 0 
0.050147 -0.492108 0 
0.099934 -0.52133 0 
0.14957 -0.494692 0 
0.200133 -0.526255 0 
0.249839 -0.503309 0 
0.299839 -0.483005 0 
0.351514 -0.513798 0 
0.401881 -0.486608 0 
0.444935 -0.513054 0 
0.486228 -0.486228 0 
0.537702 -0.497945 0 
0.588901 -0.506147 0 
0.639623 -0.508497 0 
0.692668 -0.509524 0 
0.747859 -0.510716 0 
0.802929 -0.512965 0 
0.857885 -0.513842 0 
-0.887039 -0.461695 0 
-0.832348 -0.462372 0 
-0.778365 -0.460836 0 
-0.724356 -0.45935 0 
-0.671321 -0.457509 0 
-0.618874 -0.455505 0 
-0.567021 -0.451508 0 
-0.512952 -0.444928 0 
-0.450685 -0.450685 0 
-0.397667 -0.437543 0 
-0.348492 -0.462546 0 
-0.295416 -0.432968 0 
-0.247004 -0.450633 0 
-0.198702 -0.473818 0 
-0.150161 -0.441625 0 
-0.100085 -0.468395 0 
-0.0502271 -0.439281 0 
0.000144229 -0.468374 0 
0.0504178 -0.439106 0 
0.100428 -0.468348 0 
0.150697 -0.441105 0 
0.199103 -0.473881 0 
0.247983 -0.450921 0 
0.296569 -0.432268 0 
0.348831 -0.462562 0 
0.397506 -0.4368 0 
0.450637 -0.450637 0 
0.513054 -0.444935 0 
0.5671 -0.451404 0 
0.618952 -0.455483 0 
0.67138 -0.457525 0 
0.724407 -0.459374 0 
0.778382 -0.460863 0 
0.83234 -0.462414 0 
0.887011 -0.461748 0 
-0.912466 -0.409153 0 
-0.857936 -0.411157 0 
-0.804631 -0.410124 0 
-0.751554 -0.408794 0 
-0.698865 -0.407328 0 
-0.646545 -0.405555 0 
-0.594688 -0.403019 0 
-0.542431 -0.399773 0 
-0.486784 -0.401787 0 
-0.437543 -0.397667 0 
-0.387256 -0.387256 0 
-0.344215 -0.411459 0 
-0.30136 -0.381507 0 
-0.25021 -0.395692 0 
-0.200211 -0.419975 0 
-0.150955 -0.389014 0 
-0.100617 -0.416095 0 
-0.0503197 -0.386922 0 
-4.02994e-05 -0.416525 0 
0.05006 -0.386948 0 
0.100784 -0.416323 0 
0.150432 -0.388572 0 
0.200855 -0.420694 0 
0.25086 -0.396905 0 
0.301746 -0.379789 0 
0.344135 -0.410678 0 
0.385823 -0.385823 0 
0.4368 -0.397506 0 
0.486608 -0.401881 0 
0.542384 -0.399615 0 
0.594743 -0.402948 0 
0.646641 -0.405575 0 
0.698945 -0.407371 0 
0.751626 -0.408863 0 
0.804654 -0.410181 0 
0.857929 -0.411236 0 
0.912429 -0.409236 0 
-0.934288 -0.356519 0 
-0.879963 -0.359855 0 
-0.827415 -0.358606 0 
-0.774971 -0.357337 0 
-0.722823 -0.355968 0 
-0.670703 -0.354417 0 
-0.618952 -0.352514 0 
-0.567003 -0.350494 0 
-0.513639 -0.351685 0 
-0.462546 -0.348492 0 
-0.411459 -0.344215 0 
-0.351697 -0.351697 0 
-0.29839 -0.336232 0 
-0.249846 -0.342529 0 
-0.200971 -0.367271 0 
-0.149995 -0.337521 0 
-0.100435 -0.3646 0 
-0.0498692 -0.335025 0 
-6.88684e-05 -0.365025 0 
0.0495433 -0.334795 0 
0.0996798 -0.364834 0 
0.148162 -0.337172 0 
0.199644 -0.368939 0 
0.24763 -0.345582 0 
0.295348 -0.332889 0 
0.34978 -0.34978 0 
0.410678 -0.344135 0 
0.462562 -0.348831 0 
0.513798 -0.351514 0 
0.567174 -0.350318 0 
0.619096 -0.352457 0 
0.670836 -0.354397 0 
0.722893 -0.355952 0 
0.775038 -0.357323 0 
0.827419 -0.358581 0 
0.879943 -0.359894 0 
0.93426 -0.356593 0 
-0.952721 -0.303845 0 
-0.898929 -0.308871 0 
-0.847481 -0.306888 0 
-0.795641 -0.305781 0 
-0.743684 -0.304815 0 
-0.691387 -0.303722 0 
-0.639219 -0.302427 0 
-0.586897 -0.300977 0 
-0.534146 -0.301574 0 
-0.48291 -0.299695 0 
-0.432968 -0.295416 0 
-0.381507 -0.30136 0 
-0.336232 -0.29839 0 
-0.288184 -0.288184 0 
-0.242975 -0.290577 0 
-0.198059 -0.315051 0 
-0.148383 -0.285894 0 
-0.0994753 -0.313232 0 
-0.0507184 -0.283118 0 
-0.000202902 -0.313447 0 
0.0500077 -0.282824 0 
0.0988289 -0.312817 0 
0.148102 -0.28482 0 
0.195742 -0.317413 0 
0.240766 -0.295824 0 
0.285014 -0.285014 0 
0.332889 -0.295348 0 
0.379789 -0.301746 0 
0.432268 -0.296569 0 
0.483005 -0.299839 0 
0.534348 -0.301273 0 
0.587085 -0.30086 0 
0.639359 -0.302407 0 
0.691518 -0.303753 0 
0.743741 -0.304862 0 
0.795701 -0.305831 0 
0.847482 -0.306946 0 
0.898924 -0.308979 0 
0.952687 -0.303953 0 
-0.96803 -0.250833 0 
-0.916037 -0.258282 0 
-0.866979 -0.254732 0 
-0.816639 -0.25358 0 
-0.765535 -0.252907 0 
-0.71362 -0.252254 0 
-0.661417 -0.251503 0 
-0.608767 -0.250543 0 
-0.555692 -0.250874 0 
-0.503 -0.250032 0 
-0.450633 -0.247004 0 
-0.395692 -0.25021 0 
-0.342529 -0.249846 0 
-0.290577 -0.242975 0 
-0.239946 -0.239946 0 
-0.194478 -0.26004 0 
-0.151293 -0.23238 0 
-0.101048 -0.260904 0 
-0.0503938 -0.232537 0 
-0.000203281 -0.262984 0 
0.050638 -0.232316 0 
0.100942 -0.260855 0 
0.152412 -0.232597 0 
0.195768 -0.261421 0 
0.241873 -0.241873 0 
0.295824 -0.240766 0 
0.345582 -0.24763 0 
0.396905 -0.25086 0 
0.450921 -0.247983 0 
[...]
POINT_DATA 1245 
VECTORS vectors float
0.511657 -0.181891 0.839716 
0.518563 -0.147148 0.842282 
0.525789 -0.109993 0.843474 
0.532231 -0.0783177 0.842969 
0.538964 -0.0451189 0.84112 
0.544477 -0.0176063 0.838591 
0.54937 0.00855974 0.835535 
0.551073 0.0338964 0.833768 
0.551721 0.0586462 0.831964 
0.55171 0.0858751 0.829603 
0.5503 0.109662 0.827735 
0.5466 0.134933 0.826451 
0.539689 0.156878 0.827119 
0.497988 -0.245586 0.831682 
0.50506 -0.214915 0.835898 
0.445755 -0.169108 0.879036 
0.453019 -0.140405 0.880375 
0.466884 -0.111293 0.877287 
0.454477 -0.0781964 0.887319 
0.475209 -0.0505902 0.878418 
0.461203 -0.0216045 0.887032 
0.484423 0.00596983 0.874814 
0.467232 0.0302494 0.883617 
0.487713 0.0573834 0.871116 
0.47072 0.078682 0.878767 
0.488292 0.104907 0.866352 
0.474889 0.124459 0.8712 
0.464906 0.14395 0.873579 
0.528948 0.17754 0.829875 
0.513211 0.198143 0.835077 
0.477516 -0.298251 0.826453 
0.489244 -0.273333 0.828208 
0.432565 -0.224366 0.87324 
0.439022 -0.197819 0.876429 
0.385908 -0.15372 0.90964 
0.395121 -0.127073 0.909798 
0.410528 -0.100525 0.90629 
0.386631 -0.0702915 0.919552 
0.413562 -0.0461827 0.909304 
0.389466 -0.0209224 0.920803 
0.419584 0.00284535 0.907712 
0.393931 0.024104 0.918824 
0.423157 0.0487901 0.904742 
0.398685 0.0666964 0.91466 
0.426632 0.0924787 0.899685 
0.410223 0.111161 0.905185 
0.398482 0.130086 0.907904 
0.453072 0.16356 0.876341 
0.437885 0.183882 0.880025 
0.491735 0.220137 0.842458 
0.464279 0.245616 0.850951 
0.461549 -0.321317 0.826878 
0.41174 -0.272516 0.869601 
0.423842 -0.249394 0.870724 
0.372921 -0.204002 0.905159 
0.380209 -0.178952 0.907424 
0.333047 -0.139448 0.932542 
0.341808 -0.11607 0.932574 
0.356166 -0.092243 0.929858 
0.329168 -0.0643248 0.942078 
0.353499 -0.0429255 0.934449 
0.327731 -0.0205255 0.944548 
0.356704 0.000858421 0.934217 
0.330761 0.0193166 0.943517 
0.360554 0.0415577 0.931812 
0.337127 0.0584381 0.939644 
0.368156 0.0826345 0.926085 
0.351753 0.100264 0.930708 
0.339085 0.11855 0.933256 
0.38637 0.149632 0.910125 
0.371219 0.170576 0.912743 
0.417362 0.206639 0.884934 
0.39247 0.232505 0.889893 
0.431913 0.276351 0.858534 
0.415965 -0.367127 0.83198 
0.440816 -0.343889 0.829109 
0.39554 -0.294045 0.870107 
0.352027 -0.24843 0.902419 
0.36434 -0.226669 0.90326 
0.320408 -0.185013 0.929037 
0.326573 -0.162796 0.931047 
0.285571 -0.126817 0.94993 
0.294 -0.10591 0.94992 
0.306933 -0.0851141 0.947918 
0.278932 -0.0593002 0.958478 
0.29991 -0.0403198 0.953115 
0.275174 -0.0197929 0.961191 
0.300638 -0.000992222 0.953738 
0.277158 0.0161568 0.960689 
0.30469 0.0361461 0.951765 
0.284183 0.051698 0.957375 
0.314211 0.0742798 0.946443 
0.299588 0.0909886 0.94972 
0.287297 0.108499 0.951677 
0.327759 0.137528 0.934698 
0.313927 0.158527 0.936119 
0.352978 0.193086 0.915491 
0.330416 0.219265 0.918013 
0.364534 0.262183 0.893518 
0.397333 0.312848 0.862701 
0.364233 0.35359 0.861573 
0.386535 -0.393308 0.834206 
0.358038 -0.34096 0.869227 
0.375359 -0.315193 0.871641 
0.335519 -0.268885 0.902845 
0.299338 -0.227858 0.926541 
0.311123 -0.20693 0.927568 
0.273505 -0.16897 0.946913 
0.279979 -0.148019 0.948526 
0.243557 -0.115724 0.962958 
0.251229 -0.0967777 0.963077 
0.262443 -0.0778983 0.961798 
0.236113 -0.0548483 0.970177 
0.253418 -0.0377216 0.966621 
0.230961 -0.0191819 0.972774 
0.252441 -0.00224352 0.96761 
0.232061 0.0136297 0.972606 
0.256256 0.0316704 0.96609 
0.238697 0.0465048 0.96998 
0.266678 0.0673571 0.961429 
0.252983 0.0829509 0.963908 
0.242613 0.099752 0.964981 
0.27693 0.12728 0.952423 
0.26495 0.147676 0.952887 
0.297014 0.181424 0.93748 
0.278169 0.20691 0.937982 
0.306102 0.247704 0.919208 
0.335875 0.295613 0.894316 
0.314363 0.334889 0.888271 
0.334034 0.398096 0.854366 
0.355617 -0.421266 0.834309 
0.331379 -0.365582 0.869792 
0.306811 -0.31627 0.897686 
0.3163 -0.289287 0.903475 
0.283431 -0.249115 0.926072 
0.255097 -0.210742 0.94367 
0.26557 -0.189131 0.945358 
0.233003 -0.154638 0.960102 
0.239001 -0.134655 0.961637 
0.207125 -0.105465 0.972613 
0.213848 -0.0882166 0.972876 
0.22306 -0.071626 0.97217 
0.199028 -0.050334 0.9787 
0.213108 -0.0349959 0.976402 
0.193354 -0.0181638 0.980961 
0.211281 -0.00278516 0.977421 
0.19384 0.0116653 0.980964 
0.214622 0.0281001 0.976293 
0.199906 0.0419374 0.978917 
0.224633 0.0608903 0.972539 
0.213372 0.076248 0.973991 
0.20361 0.0921642 0.974704 
0.233429 0.118018 0.965185 
0.223153 0.138251 0.96493 
0.250599 0.170387 0.952979 
0.235329 0.196468 0.951851 
0.256925 0.236233 0.937114 
0.282932 0.278238 0.917896 
0.27135 0.314967 0.909486 
0.290405 0.373197 0.881129 
0.310045 0.44045 0.842541 
0.326619 -0.448695 0.831861 
0.302219 -0.383945 0.872496 
0.278818 -0.3256 0.903463 
0.26621 -0.275433 0.923725 
0.243172 -0.233751 0.941397 
0.218118 -0.195165 0.956209 
0.225658 -0.174076 0.958528 
0.198097 -0.141419 0.969927 
0.202952 -0.123575 0.97136 
0.175355 -0.0965209 0.979762 
0.180705 -0.0809249 0.980202 
0.188797 -0.0656017 0.979822 
0.167116 -0.0464833 0.984841 
0.179159 -0.0326917 0.983277 
0.1614 -0.0170142 0.986742 
0.177017 -0.00328134 0.984202 
0.161359 0.0103667 0.986841 
0.179565 0.0253279 0.98342 
0.166721 0.0381672 0.985265 
0.188527 0.0559374 0.980474 
0.178647 0.0698722 0.981429 
0.171027 0.0855189 0.981548 
0.196856 0.109672 0.974279 
0.187906 0.129061 0.973671 
0.211701 0.159979 0.964152 
0.200607 0.185342 0.96198 
0.220652 0.225981 0.948813 
0.238313 0.272315 0.932229 
0.248244 0.331742 0.910122 
0.269035 0.400172 0.876061 
0.292704 0.475899 0.829364 
0.299295 -0.475453 0.827265 
0.27791 -0.407567 0.869859 
0.256515 -0.346681 0.902226 
0.239172 -0.293474 0.925564 
0.224576 -0.25284 0.941083 
0.204842 -0.213505 0.955225 
0.184198 -0.17818 0.966604 
0.191229 -0.159856 0.968441 
0.166996 -0.130149 0.97733 
0.172056 -0.113051 0.978579 
0.147746 -0.0895437 0.984964 
0.152386 -0.0744353 0.985514 
0.159102 -0.0604519 0.98541 
0.14006 -0.043002 0.989209 
0.149942 -0.0302173 0.988233 
0.134917 -0.0161218 0.990726 
0.147674 -0.00331349 0.98903 
0.134693 0.00905314 0.990846 
0.149646 0.0229743 0.988473 
0.138844 0.0352354 0.989687 
0.157469 0.0515551 0.986177 
0.149337 0.0651658 0.986637 
0.142789 0.0801023 0.986506 
0.16501 0.102211 0.980981 
0.157814 0.120283 0.980116 
0.178516 0.149578 0.972501 
0.169751 0.171425 0.970463 
0.186748 0.208826 0.959957 
0.202818 0.252129 0.946201 
0.215671 0.298551 0.929706 
0.232614 0.359482 0.903695 
0.254594 0.428897 0.866735 
0.279091 0.505079 0.816703 
0.27455 -0.499573 0.821614 
0.254775 -0.429576 0.866345 
0.234988 -0.366671 0.900185 
0.217448 -0.311826 0.924922 
0.201786 -0.266208 0.942558 
0.18737 -0.22759 0.95556 
0.170948 -0.192392 0.966314 
0.15406 -0.161444 0.974783 
0.160048 -0.145244 0.976365 
0.139842 -0.1215 0.982691 
0.14487 -0.10518 0.983845 
0.12451 -0.0824383 0.988788 
0.127765 -0.0687248 0.989421 
0.133479 -0.0557889 0.98948 
0.116863 -0.0395152 0.992362 
0.12536 -0.0279255 0.991718 
0.111786 -0.0147767 0.993622 
0.122981 -0.00316514 0.992404 
0.111198 0.00850796 0.993762 
0.12446 0.021099 0.992 
0.115024 0.0324179 0.992834 
0.131317 0.0476156 0.990196 
0.124145 0.0607418 0.990403 
0.119654 0.0747827 0.989995 
0.137984 0.0965419 0.985718 
0.131215 0.114284 0.984745 
0.148873 0.138143 0.979159 
0.142547 0.156052 0.977409 
0.156537 0.189519 0.969319 
0.171094 0.227584 0.95861 
0.184372 0.27046 0.944912 
0.199815 0.321476 0.925596 
0.219411 0.38266 0.897458 
0.2423 0.451717 0.858628 
0.267702 0.526926 0.80665 
0.252185 -0.51983 0.816198 
0.233061 -0.448103 0.863068 
0.214153 -0.383801 0.89824 
0.197109 -0.327347 0.924117 
0.181159 -0.278578 0.943173 
0.167261 -0.236786 0.957056 
0.153424 -0.200716 0.967561 
0.13988 -0.167343 0.975925 
0.131561 -0.137074 0.981785 
0.118005 -0.1125 0.98662 
0.121864 -0.0969813 0.987797 
0.104435 -0.075837 0.991636 
0.106624 -0.0628293 0.992312 
0.111638 -0.0512801 0.992425 
0.0970112 -0.0366772 0.994607 
0.104371 -0.0261521 0.994194 
0.0929194 -0.0138141 0.995578 
0.102522 -0.00331632 0.994725 
0.092323 0.0078759 0.995698 
0.103447 0.0194546 0.994445 
0.0949241 0.030629 0.995013 
0.109094 0.0443169 0.993043 
0.103209 0.0563222 0.993064 
0.0993699 0.0697676 0.992602 
0.115337 0.090348 0.989209 
0.11017 0.106564 0.988184 
0.121927 0.132366 0.983673 
0.128848 0.164976 0.977845 
0.141327 0.200288 0.96949 
0.1541 0.239677 0.958545 
0.169052 0.285414 0.943377 
0.186166 0.338325 0.922431 
0.206782 0.399378 0.893162 
0.230695 0.467551 0.853332 
0.256859 0.541586 0.800442 
0.231475 -0.535547 0.812163 
0.212828 -0.462684 0.860597 
0.194772 -0.39758 0.896657 
0.177783 -0.339573 0.923625 
0.162804 -0.289433 0.943252 
0.149351 -0.245941 0.957709 
0.136839 -0.208412 0.968421 
0.125575 -0.175643 0.976412 
0.116842 -0.146664 0.982262 
0.108156 -0.123473 0.986436 
0.0982635 -0.101874 0.989932 
0.101699 -0.0895652 0.990775 
0.0875728 -0.0726471 0.993506 
0.0880115 -0.059454 0.994344 
0.0924283 -0.0480282 0.99456 
0.0801431 -0.0346795 0.99618 
0.086496 -0.024308 0.995956 
0.0763203 -0.0131916 0.996996 
0.0845391 -0.00284546 0.996416 
0.0757546 0.00707802 0.997101 
0.0852643 0.0184648 0.996187 
0.0781738 0.0284118 0.996535 
0.0900058 0.0418963 0.99506 
0.0847277 0.0538579 0.994948 
0.0824952 0.0674161 0.994309 
0.0956811 0.0836583 0.99189 
0.0910508 0.0968404 0.991126 
0.100221 0.119235 0.987795 
0.10815 0.143661 0.9837 
0.115855 0.174719 0.977779 
0.127247 0.20987 0.969414 
0.140015 0.249938 0.958085 
0.155102 0.296329 0.942408 
0.173192 0.349562 0.920766 
0.194212 0.409855 0.891235 
0.218556 0.476868 0.85137 
0.245106 0.549591 0.79867 
0.21158 -0.546841 0.810061 
0.193895 -0.473693 0.859081 
0.175736 -0.407532 0.896122 
0.159562 -0.349319 0.923318 
0.14523 -0.297805 0.943515 
0.132036 -0.253314 0.958331 
0.120696 -0.214575 0.969221 
0.110298 -0.181373 0.977209 
0.102355 -0.152151 0.983043 
0.0940713 -0.127566 0.987359 
0.0865148 -0.106195 0.990574 
0.0826875 -0.0858733 0.992869 
0.0738757 -0.0681828 0.994934 
0.0720516 -0.0555895 0.995851 
0.0763199 -0.0448115 0.996076 
0.0658927 -0.0320347 0.997312 
0.0714587 -0.0225422 0.997189 
0.0627933 -0.0118855 0.997956 
0.0700323 -0.00264239 0.997541 
0.0621245 0.00697745 0.998044 
0.0702795 0.017179 0.997379 
0.0638325 0.0267491 0.997602 
0.0739202 0.0394476 0.996484 
0.0695164 0.0501607 0.996319 
0.0684151 0.0625127 0.995697 
0.0766404 0.0806431 0.993792 
0.0801322 0.102419 0.991509 
0.0871126 0.125017 0.988323 
0.0945678 0.151081 0.983987 
0.102616 0.181417 0.978038 
0.113199 0.216574 0.969681 
0.126128 0.256863 0.958182 
0.141249 0.303157 0.942414 
0.159267 0.355803 0.92089 
0.180384 0.414975 0.891772 
0.204905 0.480701 0.852608 
0.231135 0.551796 0.80131 
0.19166 -0.55413 0.810065 
0.17509 -0.481089 0.859009 
0.157731 -0.415741 0.895701 
0.142154 -0.356536 0.923404 
0.1283 -0.30466 0.94378 
0.116099 -0.258703 0.958955 
0.105256 -0.219343 0.969953 
0.0958517 -0.18477 0.978096 
0.0880337 -0.155566 0.983895 
0.0808636 -0.130387 0.98816 
0.0741215 -0.10914 0.991259 
0.0707336 -0.0909596 0.993339 
0.0664259 -0.0763247 0.994868 
0.0603017 -0.0620034 0.996253 
0.05845 -0.0506371 0.997005 
0.0622157 -0.0417377 0.99719 
0.0533921 -0.0298356 0.998128 
0.0582482 -0.021305 0.998075 
0.0504303 -0.01136 0.998663 
0.0565521 -0.00270374 0.998396 
0.0497703 0.00664567 0.998739 
0.0569591 0.0158773 0.99825 
0.0513267 0.0253037 0.998361 
0.0602412 0.036285 0.997524 
0.0564698 0.0462109 0.997334 
0.0557383 0.057144 0.996809 
0.0607834 0.0714094 0.995593 
0.0656509 0.087196 0.994026 
0.0685003 0.106522 0.991948 
0.0745906 0.12897 0.988839 
0.0814782 0.154663 0.984602 
0.0893937 0.185444 0.97858 
0.0997074 0.220472 0.970284 
0.112128 0.261036 0.958795 
0.126782 0.306977 0.943235 
0.144367 0.358909 0.92214 
0.164871 0.416722 0.893957 
0.188877 0.480431 0.856453 
0.213711 0.549085 0.807981 
0.170842 -0.557645 0.812308 
0.1569 -0.487449 0.858939 
0.139838 -0.423614 0.894984 
0.125411 -0.365154 0.922461 
0.11248 -0.312993 0.943071 
0.101092 -0.266453 0.958532 
0.0911171 -0.225703 0.969926 
0.0821082 -0.190513 0.978245 
0.0750319 -0.159806 0.984293 
0.068523 -0.133786 0.988638 
0.0622328 -0.111186 0.991849 
0.0585299 -0.0913684 0.994096 
0.0544959 -0.0745032 0.995731 
0.0497759 -0.0599658 0.996959 
0.0469644 -0.0474875 0.997767 
0.0491692 -0.038436 0.998051 
0.0423047 -0.0288871 0.998687 
0.0468818 -0.0200849 0.998699 
0.0402998 -0.0107862 0.999129 
0.0462167 -0.00217312 0.998929 
0.0397005 0.00649048 0.999191 
0.0457575 0.0159324 0.998826 
0.0406479 0.0250159 0.99886 
0.0473219 0.0347565 0.998275 
0.0444671 0.0444689 0.998021 
0.0462287 0.0577945 0.997258 
0.0500137 0.0724715 0.996116 
0.0538455 0.0895693 0.994524 
0.0573585 0.109645 0.992314 
0.0627373 0.132792 0.989156 
0.0690777 0.159647 0.984754 
0.0767915 0.190387 0.978701 
0.086384 0.226213 0.97024 
0.0978368 0.26627 0.95892 
0.11194 0.312099 0.943432 
0.127788 0.362189 0.923303 
0.147131 0.418002 0.896452 
0.170009 0.478333 0.861565 
0.191277 0.54224 0.818162 
0.147127 -0.557558 0.816996 
0.138708 -0.497426 0.856346 
0.122589 -0.435395 0.891854 
0.109177 -0.377712 0.919464 
0.0972196 -0.324102 0.941013 
0.0867995 -0.276319 0.957138 
0.0773523 -0.234439 0.969048 
0.0696053 -0.197624 0.977804 
0.0628017 -0.166236 0.984084 
0.0570248 -0.13924 0.988615 
0.051771 -0.115955 0.991904 
0.0481768 -0.0958424 0.99423 
0.0445791 -0.0788611 0.995888 
0.0415689 -0.0636606 0.997105 
0.0381184 -0.0502082 0.998011 
0.0375852 -0.037727 0.998581 
0.0331333 -0.0268284 0.999091 
0.0367653 -0.018716 0.999149 
0.0313798 -0.00940228 0.999463 
0.0360497 -0.00192944 0.999348 
0.0309759 0.00601616 0.999502 
0.0357932 0.0150188 0.999246 
0.031738 0.0238127 0.999213 
0.0359149 0.0348248 0.998748 
0.0357813 0.047514 0.998229 
0.0375201 0.0619618 0.997373 
0.0405877 0.0770246 0.996203 
0.043707 0.0945515 0.99456 
0.0467853 0.115156 0.992245 
0.0516875 0.138571 0.989003 
0.0572984 0.165811 0.984491 
0.06409 0.197416 0.978223 
0.0729082 0.233231 0.969684 
0.0831171 0.274058 0.958115 
0.0952759 0.319264 0.942864 
0.110079 0.369535 0.922673 
0.126933 0.422743 0.897316 
0.148308 0.479813 0.864745 
0.160312 0.531835 0.831536 
0.124609 -0.55541 0.822187 
0.112132 -0.47595 0.872295 
0.0955963 -0.404252 0.909638 
0.0829881 -0.342983 0.935669 
0.072641 -0.290674 0.954061 
0.0641977 -0.245258 0.96733 
0.0567195 -0.206524 0.976796 
0.0506064 -0.173343 0.983561 
0.04558 -0.14481 0.988409 
0.041294 -0.120869 0.991809 
0.037535 -0.100143 0.994265 
0.0352219 -0.082323 0.995983 
0.0324113 -0.0676402 0.997183 
0.0302316 -0.0543288 0.998065 
0.0293231 -0.0425282 0.998665 
0.0273788 -0.03293 0.999083 
0.0243709 -0.0236284 0.999424 
0.0280662 -0.0170799 0.99946 
0.0226192 -0.00977723 0.999696 
0.0270517 -0.00179577 0.999632 
0.0222321 0.00664049 0.999731 
0.0272051 0.013797 0.999535 
0.0234716 0.0207613 0.999509 
0.0258681 0.0300794 0.999213 
0.0271716 0.040031 0.998829 
0.027488 0.0519067 0.998274 
0.028819 0.0654394 0.99744 
0.0310702 0.0810812 0.996223 
0.0334309 0.0990671 0.994519 
0.0363332 0.120113 0.992095 
0.0400521 0.144706 0.988664 
0.0449648 0.172918 0.983909 
0.0507867 0.205521 0.977334 
0.0579433 0.243065 0.968278 
0.0670886 0.285725 0.95596 
0.0778766 0.334329 0.939233 
0.0917523 0.38971 0.916356 
0.112026 0.454068 0.883896 
0.126767 0.522718 0.843028 
0.0982262 -0.551031 0.828684 
0.0923022 -0.488161 0.867859 
0.0792049 -0.424468 0.901972 
0.0675659 -0.362437 0.929556 
0.058272 -0.307281 0.949833 
0.0503029 -0.259465 0.964442 
0.0437939 -0.218513 0.974851 
0.0385998 -0.183331 0.982293 
0.0342872 -0.153738 0.987517 
0.0304597 -0.128633 0.991224 
0.0278129 -0.106723 0.9939 
0.0256105 -0.0887593 0.995724 
0.0234827 -0.0728936 0.997063 
0.02208 -0.0593102 0.997995 
0.020978 -0.0472536 0.998663 
0.0196601 -0.0367824 0.99913 
0.0181965 -0.0274182 0.999458 
0.0185988 -0.0172906 0.999678 
0.0157876 -0.00899498 0.999835 
0.0202178 -0.00154063 0.999794 
0.0154883 0.00632116 0.99986 
0.017824 0.0146585 0.999734 
0.0168254 0.024947 0.999547 
0.0182806 0.0346828 0.999231 
0.0187058 0.0452698 0.9988 
0.0191664 0.0577548 0.998147 
0.020236 0.0720783 0.997194 
0.0218378 0.0881105 0.995871 
0.0234448 0.106971 0.993986 
0.0255185 0.12884 0.991337 
0.0285203 0.154034 0.987654 
0.0318323 0.18357 0.982491 
0.0363894 0.217392 0.975406 
0.0417849 0.25634 0.965683 
0.0483265 0.300841 0.952449 
0.0567869 0.350653 0.934782 
0.0679289 0.405901 0.911389 
0.0808956 0.460984 0.883713 
0.0838153 0.514485 0.853393 
0.0735781 -0.545958 0.834575 
0.0636722 -0.463901 0.883596 
0.0519622 -0.390964 0.918938 
0.0426243 -0.329354 0.943244 
0.0355659 -0.276936 0.96023 
0.0300929 -0.232618 0.972102 
0.0254982 -0.195168 0.980438 
0.0219076 -0.163645 0.986276 
0.0193789 -0.136372 0.990468 
0.0171091 -0.113969 0.993337 
0.0154238 -0.0942738 0.995427 
0.0143989 -0.0777488 0.996869 
0.0132124 -0.0635634 0.99789 
0.012599 -0.0509824 0.99862 
0.0120476 -0.0404603 0.999109 
0.0110561 -0.0305452 0.999472 
0.0113708 -0.0219149 0.999695 
0.0106563 -0.0141821 0.999843 
0.00882979 -0.00649764 0.99994 
0.0121414 -0.00102227 0.999926 
0.00870138 0.00346499 0.999956 
0.0101736 0.0118954 0.999877 
0.0106287 0.0195792 0.999752 
0.00998816 0.0289303 0.999532 
0.0102792 0.0385175 0.999205 
0.0105128 0.0498362 0.998702 
0.0106211 0.0627721 0.997971 
0.0112145 0.077579 0.996923 
0.0118169 0.0947839 0.995428 
0.0127483 0.114531 0.993338 
0.0138483 0.137932 0.990345 
0.0153618 0.164758 0.986214 
0.0174684 0.195955 0.980457 
0.0197139 0.23227 0.972451 
0.0230356 0.273894 0.961484 
0.0268361 0.322189 0.946295 
0.0317574 0.37725 0.925567 
0.0396975 0.440671 0.896791 
0.0421824 0.510592 0.858788 
0.0477066 -0.539873 0.840393 
0.0395764 -0.475215 0.878979 
0.0317066 -0.412339 0.910479 
0.0247888 -0.350798 0.936123 
0.0190166 -0.29622 0.95493 
0.0144263 -0.249522 0.968262 
0.0110569 -0.210008 0.977637 
0.00883473 -0.17618 0.984318 
0.00690636 -0.148 0.988963 
0.00561056 -0.123917 0.992277 
0.00505863 -0.103007 0.994668 
0.00437579 -0.0859485 0.99629 
0.00410092 -0.0704785 0.997505 
0.0040228 -0.0575725 0.998333 
0.00390469 -0.045944 0.998936 
0.00372811 -0.0360611 0.999343 
0.00365843 -0.0265952 0.99964 
0.00387246 -0.0186593 0.999818 
0.00324538 -0.0107943 0.999936 
0.00255755 -0.000737034 0.999996 
0.00290218 0.00911129 0.999954 
0.00335034 0.0167522 0.999854 
0.00268685 0.0247042 0.999691 
0.00261876 0.034675 0.999395 
0.00233697 0.0452823 0.998971 
0.00192647 0.0569121 0.998377 
0.00169945 0.0709314 0.99748 
0.00146273 0.086563 0.996245 
0.00132631 0.104875 0.994485 
0.000976566 0.125972 0.992033 
0.00107366 0.150636 0.988589 
0.000787952 0.179316 0.983791 
0.000930248 0.212457 0.97717 
0.000938629 0.250912 0.96801 
0.000839598 0.295193 0.955437 
0.000941439 0.345453 0.938436 
0.00048582 0.400316 0.916377 
-0.000137941 0.455442 0.890265 
-0.00104931 0.510664 0.85978 
0.0196338 -0.530042 0.847744 
0.00873559 -0.448097 0.893942 
0.0037421 -0.378348 0.925656 
-0.0003888 -0.318856 0.947803 
-0.00339265 -0.268694 0.96322 
-0.00522511 -0.226026 0.974107 
-0.00664223 -0.190217 0.98172 
-0.00715358 -0.159796 0.987124 
-0.00691913 -0.133531 0.991021 
-0.00705689 -0.111832 0.993702 
-0.00654656 -0.0925708 0.995685 
-0.0058288 -0.0767407 0.997034 
-0.00535841 -0.0624054 0.998037 
-0.00486262 -0.0503909 0.998718 
-0.00449532 -0.0396752 0.999203 
-0.00356786 -0.0302767 0.999535 
-0.00406385 -0.0212175 0.999767 
-0.00369536 -0.0141794 0.999893 
-0.000374668 -0.00608502 0.999981 
-0.00642206 -0.000933032 0.999979 
-0.000487501 0.0038756 0.999992 
-0.00386494 0.0119614 0.999921 
-0.00451843 0.020041 0.999789 
-0.00418417 0.0290249 0.99957 
-0.00547794 0.0390177 0.999224 
-0.00635301 0.049955 0.998731 
-0.00687791 0.0631102 0.997983 
-0.00807772 0.0776929 0.996945 
-0.00921721 0.0947369 0.99546 
-0.0103731 0.114578 0.99336 
-0.0118941 0.137767 0.990393 
-0.0137536 0.164431 0.986293 
-0.0155061 0.195653 0.980551 
-0.0182309 0.231842 0.972583 
-0.0208842 0.273713 0.961585 
-0.0249928 0.321926 0.946435 
-0.0301768 0.377871 0.925366 
-0.0388346 0.441407 0.896466 
-0.0435224 0.512658 0.857489 
-0.010443 -0.519685 0.854294 