# vtk DataFile Version 3.0 
Exported using Morpho https://github.com/Morpho-lang/morpho 
ASCII 
DATASET UNSTRUCTURED_GRID 

POINTS 1245 float 
-0.303845 -0.952721 0 
-0.250833 -0.96803 0 
-0.195084 -0.980787 0 
-0.146308 -0.989239 0 
-0.0940719 -0.995565 0 
-0.0475118 -0.998871 0 
-0.000246339 -1 0 
0.0470875 -0.998891 0 
0.0937543 -0.995595 0 
0.146139 -0.989264 0 
0.195062 -0.980791 0 
0.250843 -0.968028 0 
0.303953 -0.952687 0 
-0.409153 -0.912466 0 
-0.356519 -0.934288 0 
-0.308871 -0.898929 0 
-0.258282 -0.916037 0 
-0.207345 -0.934859 0 
-0.154868 -0.930629 0 
-0.104343 -0.948989 0 
-0.0520099 -0.939193 0 
-8.5762e-05 -0.954582 0 
0.0518744 -0.939288 0 
0.104354 -0.949042 0 
0.154696 -0.9306 0 
0.207366 -0.934975 0 
0.258274 -0.916081 0 
0.308979 -0.898924 0 
0.356593 -0.93426 0 
0.409236 -0.912429 0 
-0.513788 -0.857917 0 
-0.461695 -0.887039 0 
-0.411157 -0.857936 0 
-0.359855 -0.879963 0 
-0.306888 -0.847481 0 
-0.254732 -0.866979 0 
-0.201991 -0.889059 0 
-0.149956 -0.874108 0 
-0.100608 -0.900088 0 
-0.0497575 -0.880388 0 
2.4595e-05 -0.904789 0 
0.0496869 -0.8804 0 
0.100612 -0.900177 0 
0.149872 -0.874171 0 
0.202071 -0.889165 0 
0.254695 -0.867031 0 
0.306946 -0.847482 0 
0.359894 -0.879943 0 
0.411236 -0.857929 0 
0.461748 -0.887011 0 
0.513842 -0.857885 0 
-0.564741 -0.825268 0 
-0.512908 -0.802945 0 
-0.462372 -0.832348 0 
-0.410124 -0.804631 0 
-0.358606 -0.827415 0 
-0.305781 -0.795641 0 
-0.25358 -0.816639 0 
-0.200756 -0.839997 0 
-0.149043 -0.818944 0 
-0.0987265 -0.846667 0 
-0.0490473 -0.822548 0 
5.00659e-05 -0.849932 0 
0.0490834 -0.822542 0 
0.0987838 -0.846676 0 
0.148997 -0.818924 0 
0.200826 -0.840131 0 
0.253508 -0.816728 0 
0.305831 -0.795701 0 
0.358581 -0.827419 0 
0.410181 -0.804654 0 
0.462414 -0.83234 0 
0.512965 -0.802929 0 
0.564777 -0.825243 0 
-0.660798 -0.750564 0 
-0.614015 -0.789295 0 
-0.561786 -0.769772 0 
-0.510673 -0.747856 0 
-0.460836 -0.778365 0 
-0.408794 -0.751554 0 
-0.357337 -0.774971 0 
-0.304815 -0.743684 0 
-0.252907 -0.765535 0 
-0.200631 -0.789263 0 
-0.149244 -0.764328 0 
-0.0986912 -0.791935 0 
-0.0492815 -0.765764 0 
4.16586e-05 -0.79382 0 
0.0492411 -0.765708 0 
0.0987508 -0.791951 0 
0.149196 -0.764326 0 
0.200666 -0.789356 0 
0.252841 -0.765599 0 
0.304862 -0.743741 0 
0.357323 -0.775038 0 
0.408863 -0.751626 0 
0.460863 -0.778382 0 
0.510716 -0.747859 0 
0.561819 -0.769761 0 
0.614041 -0.789274 0 
0.660811 -0.750552 0 
-0.707107 -0.707107 0 
-0.654819 -0.699058 0 
-0.60813 -0.73348 0 
-0.558104 -0.71337 0 
-0.509495 -0.692659 0 
-0.45935 -0.724356 0 
-0.407328 -0.698865 0 
-0.355968 -0.722823 0 
-0.303722 -0.691387 0 
-0.252254 -0.71362 0 
-0.20067 -0.737336 0 
-0.149608 -0.710068 0 
-0.0991558 -0.737129 0 
-0.0495872 -0.709825 0 
-2.23646e-05 -0.737917 0 
0.0494408 -0.709766 0 
0.0991291 -0.737116 0 
0.149502 -0.710042 0 
0.200696 -0.73743 0 
0.252186 -0.713735 0 
0.303753 -0.691518 0 
0.355952 -0.722893 0 
0.407371 -0.698945 0 
0.459374 -0.724407 0 
0.509524 -0.692668 0 
0.558131 -0.713361 0 
0.608151 -0.733462 0 
0.654824 -0.699048 0 
0.707107 -0.707107 0 
-0.750564 -0.660798 0 
-0.699058 -0.654819 0 
-0.647692 -0.647692 0 
-0.603437 -0.675718 0 
-0.55905 -0.655305 0 
-0.508501 -0.639581 0 
-0.457509 -0.671321 0 
-0.405555 -0.646545 0 
-0.354417 -0.670703 0 
-0.302427 -0.639219 0 
-0.251503 -0.661417 0 
-0.20061 -0.684911 0 
-0.149717 -0.655943 0 
-0.0995004 -0.682466 0 
-0.0498216 -0.654561 0 
-5.02113e-05 -0.682664 0 
0.0496787 -0.654499 0 
0.0994374 -0.682501 0 
0.149603 -0.655909 0 
0.200573 -0.684972 0 
0.251388 -0.661524 0 
0.302407 -0.639359 0 
0.354397 -0.670836 0 
0.405575 -0.646641 0 
0.457525 -0.67138 0 
0.508497 -0.639623 0 
0.559063 -0.655324 0 
0.603436 -0.675715 0 
0.64769 -0.64769 0 
0.699048 -0.654824 0 
0.750552 -0.660811 0 
-0.789295 -0.614015 0 
-0.73348 -0.60813 0 
-0.675718 -0.603437 0 
-0.613088 -0.613088 0 
-0.55962 -0.604068 0 
-0.506189 -0.588854 0 
-0.455505 -0.618874 0 
-0.403019 -0.594688 0 
-0.352514 -0.618952 0 
-0.300977 -0.586897 0 
-0.250543 -0.608767 0 
-0.200257 -0.632053 0 
-0.150049 -0.601979 0 
-0.0998281 -0.628222 0 
-0.0500377 -0.599914 0 
-3.12334e-05 -0.628076 0 
0.0498927 -0.599835 0 
0.0997818 -0.628253 0 
0.149924 -0.601867 0 
0.200214 -0.632118 0 
0.250423 -0.608915 0 
0.30086 -0.587085 0 
0.352457 -0.619096 0 
0.402948 -0.594743 0 
0.455483 -0.618952 0 
0.506147 -0.588901 0 
0.55964 -0.604067 0 
0.613069 -0.613069 0 
0.675715 -0.603436 0 
0.733462 -0.608151 0 
0.789274 -0.614041 0 
-0.825268 -0.564741 0 
-0.769772 -0.561786 0 
-0.71337 -0.558104 0 
-0.655305 -0.55905 0 
-0.604068 -0.55962 0 
-0.551031 -0.551031 0 
-0.497922 -0.537596 0 
-0.451508 -0.567021 0 
-0.399773 -0.542431 0 
-0.350494 -0.567003 0 
-0.301574 -0.534146 0 
-0.250874 -0.555692 0 
-0.200542 -0.579013 0 
-0.150324 -0.548268 0 
-0.100169 -0.57443 0 
-0.0500152 -0.545912 0 
-3.29278e-05 -0.574268 0 
0.0499208 -0.545788 0 
0.100058 -0.574485 0 
0.150038 -0.548073 0 
0.200377 -0.579041 0 
0.250556 -0.55585 0 
0.301273 -0.534348 0 
0.350318 -0.567174 0 
0.399615 -0.542384 0 
0.451404 -0.5671 0 
0.497945 -0.537702 0 
0.551073 -0.551073 0 
0.604067 -0.55964 0 
0.655324 -0.559063 0 
0.713361 -0.558131 0 
0.769761 -0.561819 0 
0.825243 -0.564777 0 
-0.857917 -0.513788 0 
-0.802945 -0.512908 0 
-0.747856 -0.510673 0 
-0.692659 -0.509495 0 
-0.639581 -0.508501 0 
-0.588854 -0.506189 0 
-0.537596 -0.497922 0 
-0.486157 -0.486157 0 
-0.444928 -0.512952 0 
-0.401787 -0.486784 0 
-0.351685 -0.513639 0 
-0.299695 -0.48291 0 
-0.250032 -0.503 0 
-0.200501 -0.526165 0 
-0.149489 -0.495195 0 
-0.0999281 -0.521367 0 
-0.0499712 -0.492294 0 
4.64723e-05 -0.520999 0 
0.050147 -0.492108 0 
0.099934 -0.52133 0 
0.14957 -0.494692 0 
0.200133 -0.526255 0 
0.249839 -0.503309 0 
0.299839 -0.483005 0 
0.351514 -0.513798 0 
0.401881 -0.486608 0 
0.444935 -0.513054 0 
0.486228 -0.486228 0 
0.537702 -0.497945 0 
0.588901 -0.506147 0 
0.639623 -0.508497 0 
0.692668 -0.509524 0 
0.747859 -0.510716 0 
0.802929 -0.512965 0 
0.857885 -0.513842 0 
-0.887039 -0.461695 0 
-0.832348 -0.462372 0 
-0.778365 -0.460836 0 
-0.724356 -0.45935 0 
-0.671321 -0.457509 0 
-0.618874 -0.455505 0 
-0.567021 -0.451508 0 
-0.512952 -0.444928 0 
-0.450685 -0.450685 0 
-0.397667 -0.437543 0 
-0.348492 -0.462546 0 
-0.295416 -0.432968 0 
-0.247004 -0.450633 0 
-0.198702 -0.473818 0 
-0.150161 -0.441625 0 
-0.100085 -0.468395 0 
-0.0502271 -0.439281 0 
0.000144229 -0.468374 0 
0.0504178 -0.439106 0 
0.100428 -0.468348 0 
0.150697 -0.441105 0 
0.199103 -0.473881 0 
0.247983 -0.450921 0 
0.296569 -0.432268 0 
0.348831 -0.462562 0 
0.397506 -0.4368 0 
0.450637 -0.450637 0 
0.513054 -0.444935 0 
0.5671 -0.451404 0 
0.618952 -0.455483 0 
0.67138 -0.457525 0 
0.724407 -0.459374 0 
0.778382 -0.460863 0 
0.83234 -0.462414 0 
0.887011 -0.461748 0 
-0.912466 -0.409153 0 
-0.857936 -0.411157 0 
-0.804631 -0.410124 0 
-0.751554 -0.408794 0 
-0.698865 -0.407328 0 
-0.646545 -0.405555 0 
-0.594688 -0.403019 0 
-0.542431 -0.399773 0 
-0.486784 -0.401787 0 
-0.437543 -0.397667 0 
-0.387256 -0.387256 0 
-0.344215 -0.411459 0 
-0.30136 -0.381507 0 
-0.25021 -0.395692 0 
-0.200211 -0.419975 0 
-0.150955 -0.389014 0 
-0.100617 -0.416095 0 
-0.0503197 -0.386922 0 
-4.02994e-05 -0.416525 0 
0.05006 -0.386948 0 
0.100784 -0.416323 0 
0.150432 -0.388572 0 
0.200855 -0.420694 0 
0.25086 -0.396905 0 
0.301746 -0.379789 0 
0.344135 -0.410678 0 
0.385823 -0.385823 0 
0.4368 -0.397506 0 
0.486608 -0.401881 0 
0.542384 -0.399615 0 
0.594743 -0.402948 0 
0.646641 -0.405575 0 
0.698945 -0.407371 0 
0.751626 -0.408863 0 
0.804654 -0.410181 0 
0.857929 -0.411236 0 
0.912429 -0.409236 0 
-0.934288 -0.356519 0 
-0.879963 -0.359855 0 
-0.827415 -0.358606 0 
-0.774971 -0.357337 0 
-0.722823 -0.355968 0 
-0.670703 -0.354417 0 
-0.618952 -0.352514 0 
-0.567003 -0.350494 0 
-0.513639 -0.351685 0 
-0.462546 -0.348492 0 
-0.411459 -0.344215 0 
-0.351697 -0.351697 0 
-0.29839 -0.336232 0 
-0.249846 -0.342529 0 
-0.200971 -0.367271 0 
-0.149995 -0.337521 0 
-0.100435 -0.3646 0 
-0.0498692 -0.335025 0 
-6.88684e-05 -0.365025 0 
0.0495433 -0.334795 0 
0.0996798 -0.364834 0 
0.148162 -0.337172 0 
0.199644 -0.368939 0 
0.24763 -0.345582 0 
0.295348 -0.332889 0 
0.34978 -0.34978 0 
0.410678 -0.344135 0 
0.462562 -0.348831 0 
0.513798 -0.351514 0 
0.567174 -0.350318 0 
0.619096 -0.352457 0 
0.670836 -0.354397 0 
0.722893 -0.355952 0 
0.775038 -0.357323 0 
0.827419 -0.358581 0 
0.879943 -0.359894 0 
0.93426 -0.356593 0 
-0.952721 -0.303845 0 
-0.898929 -0.308871 0 
-0.847481 -0.306888 0 
-0.795641 -0.305781 0 
-0.743684 -0.304815 0 
-0.691387 -0.303722 0 
-0.639219 -0.302427 0 
-0.586897 -0.300977 0 
-0.534146 -0.301574 0 
-0.48291 -0.299695 0 
-0.432968 -0.295416 0 
-0.381507 -0.30136 0 
-0.336232 -0.29839 0 
-0.288184 -0.288184 0 
-0.242975 -0.290577 0 
-0.198059 -0.315051 0 
-0.148383 -0.285894 0 
-0.0994753 -0.313232 0 
-0.0507184 -0.283118 0 
-0.000202902 -0.313447 0 
0.0500077 -0.282824 0 
0.0988289 -0.312817 0 
0.148102 -0.28482 0 
0.195742 -0.317413 0 
0.240766 -0.295824 0 
0.285014 -0.285014 0 
0.332889 -0.295348 0 
0.379789 -0.301746 0 
0.432268 -0.296569 0 
0.483005 -0.299839 0 
0.534348 -0.301273 0 
0.587085 -0.30086 0 
0.639359 -0.302407 0 
0.691518 -0.303753 0 
0.743741 -0.304862 0 
0.795701 -0.305831 0 
0.847482 -0.306946 0 
0.898924 -0.308979 0 
0.952687 -0.303953 0 
-0.96803 -0.250833 0 
-0.916037 -0.258282 0 
-0.866979 -0.254732 0 
-0.816639 -0.25358 0 
-0.765535 -0.252907 0 
-0.71362 -0.252254 0 
-0.661417 -0.251503 0 
-0.608767 -0.250543 0 
-0.555692 -0.250874 0 
-0.503 -0.250032 0 
-0.450633 -0.247004 0 
-0.395692 -0.25021 0 
-0.342529 -0.249846 0 
-0.290577 -0.242975 0 
-0.239946 -0.239946 0 
-0.194478 -0.26004 0 
-0.151293 -0.23238 0 
-0.101048 -0.260904 0 
-0.0503938 -0.232537 0 
-0.000203281 -0.262984 0 
0.050638 -0.232316 0 
0.100942 -0.260855 0 
0.152412 -0.232597 0 
0.195768 -0.261421 0 
0.241873 -0.241873 0 
0.295824 -0.240766 0 
0.345582 -0.24763 0 
0.396905 -0.25086 0 
0.450921 -0.247983 0 
[...]
POINT_DATA 1245 
VECTORS vectors float
0.245186 -0.137877 0.959622 
0.250533 -0.076444 0.965085 
0.27879 -0.0314452 0.959837 
0.306913 0.00768001 0.951706 
0.328048 0.00339252 0.944655 
0.362481 -0.000766008 0.931991 
0.353244 -0.00720385 0.935503 
0.336808 -0.0172463 0.941415 
0.323825 0.00132579 0.946116 
0.296857 0.0421048 0.953993 
0.300002 0.0760409 0.950903 
0.31622 0.129516 0.939804 
0.360228 0.135908 0.922911 
0.287422 -0.211643 0.934128 
0.258254 -0.178472 0.949449 
0.20173 -0.110365 0.973203 
0.202911 -0.0761079 0.976235 
0.213868 -0.0476913 0.975698 
0.220202 -0.0184901 0.975279 
0.26272 -0.00294052 0.964868 
0.26422 0.00184898 0.964461 
0.279937 0.0051648 0.960004 
0.245664 0.00267965 0.969351 
0.253044 0.0147499 0.967342 
0.230196 0.0432816 0.972181 
0.247676 0.0727037 0.966111 
0.244387 0.08809 0.965668 
0.259846 0.0969839 0.960768 
0.362153 0.141888 0.921256 
0.363233 0.100432 0.926269 
0.317271 -0.233296 0.919191 
0.307358 -0.238405 0.921246 
0.219533 -0.168364 0.960968 
0.204048 -0.143329 0.968412 
0.157784 -0.0916041 0.983216 
0.158997 -0.0613505 0.985371 
0.164579 -0.046006 0.98529 
0.15564 -0.0269558 0.987446 
0.195367 -0.0137184 0.980634 
0.163019 -0.00493181 0.986611 
0.200208 0.00704934 0.979728 
0.170838 0.0055044 0.985284 
0.194069 0.0140777 0.980887 
0.17269 0.0364328 0.984302 
0.201352 0.0586739 0.97776 
0.19092 0.0618261 0.979657 
0.195519 0.0643662 0.978585 
0.275136 0.0894387 0.957236 
0.270265 0.0656019 0.960548 
0.345041 0.071415 0.935867 
0.278203 0.0564553 0.958862 
0.329356 -0.209703 0.920624 
0.24802 -0.176665 0.95251 
0.235809 -0.181155 0.954765 
0.175105 -0.127803 0.97622 
0.159666 -0.119 0.979972 
0.119534 -0.0802796 0.989579 
0.116176 -0.0519699 0.991868 
0.12287 -0.0408336 0.991582 
0.110437 -0.0235669 0.993604 
0.127431 -0.0129416 0.991763 
0.0993855 -0.00496557 0.995037 
0.127825 0.00210258 0.991794 
0.117451 0.00396779 0.993071 
0.136959 0.0125259 0.990497 
0.114729 0.0220057 0.993153 
0.158012 0.0428858 0.986505 
0.145691 0.0420752 0.988435 
0.135603 0.0434599 0.98981 
0.204369 0.0568532 0.977242 
0.18488 0.0502934 0.981473 
0.230464 0.0615328 0.971133 
0.178083 0.0644334 0.981904 
0.211508 0.077896 0.974267 
0.276456 -0.190568 0.941943 
0.317331 -0.197877 0.92744 
0.249692 -0.163201 0.954473 
0.189756 -0.139467 0.971875 
0.188854 -0.135843 0.972564 
0.139553 -0.0932183 0.985817 
0.127125 -0.0942592 0.987398 
0.0819791 -0.0644925 0.994545 
0.0800034 -0.0451064 0.995773 
0.0856385 -0.0374088 0.995624 
0.075011 -0.0276264 0.9968 
0.0927212 -0.0106241 0.995635 
0.0771122 -0.0102982 0.996969 
0.0923597 -0.00462941 0.995715 
0.0816862 0.000471442 0.996658 
0.0902739 0.00855614 0.99588 
0.0730599 0.0067611 0.997305 
0.105451 0.022705 0.994165 
0.0921164 0.0270808 0.99538 
0.0842546 0.02978 0.995999 
0.134608 0.0404534 0.990073 
0.117871 0.0418358 0.992147 
0.144812 0.0610246 0.987576 
0.112095 0.0653201 0.991548 
0.126466 0.0838302 0.988422 
0.13152 0.133815 0.98224 
0.0961442 0.215021 0.971865 
0.213121 -0.206781 0.954893 
0.191446 -0.170658 0.966553 
0.224062 -0.155535 0.962084 
0.172651 -0.12794 0.976639 
0.130048 -0.113752 0.984961 
0.141099 -0.109405 0.983932 
0.0904893 -0.0712967 0.993342 
0.0837661 -0.0676011 0.99419 
0.0543984 -0.0495577 0.997289 
0.0588006 -0.0370412 0.997582 
0.0584146 -0.0349782 0.997679 
0.0462995 -0.0295288 0.998491 
0.0636562 -0.0173727 0.997821 
0.0441131 -0.0085903 0.99899 
0.0615269 -0.010698 0.998048 
0.0481598 -0.00387813 0.998832 
0.0642488 0.0038876 0.997926 
0.0569291 0.00177308 0.998377 
0.0677222 0.0111654 0.997642 
0.0596083 0.0175431 0.998068 
0.0587419 0.0184197 0.998103 
0.0880672 0.0299423 0.995664 
0.0766021 0.0314488 0.996566 
0.095127 0.0545157 0.993971 
0.0764925 0.0669467 0.99482 
0.0794741 0.0902436 0.992744 
0.0830069 0.137441 0.987026 
0.0706499 0.202361 0.976759 
0.0881296 0.285252 0.954392 
0.162332 -0.253836 0.953528 
0.15192 -0.195921 0.96878 
0.137732 -0.159412 0.977557 
0.145452 -0.131333 0.98061 
0.114905 -0.104504 0.987864 
0.0932004 -0.0879113 0.991759 
0.0940661 -0.0906795 0.991428 
0.0622439 -0.0582715 0.996358 
0.0521292 -0.0496556 0.997405 
0.045319 -0.0413456 0.998117 
0.0486084 -0.0296147 0.998379 
0.0450445 -0.02645 0.998635 
0.0298038 -0.0213523 0.999328 
0.0338768 -0.0124779 0.999348 
0.0237225 0.00194859 0.999717 
0.0280923 -0.00653098 0.999584 
0.0272609 -0.00898308 0.999588 
0.044249 -0.00109728 0.99902 
0.038389 0.000667759 0.999263 
0.0495621 0.00849041 0.998735 
0.0409939 0.0104746 0.999104 
0.0351142 0.00944869 0.999339 
0.0564055 0.0209315 0.998189 
0.037903 0.0246413 0.998978 
0.0580523 0.0450833 0.997295 
0.0398833 0.0643392 0.997131 
0.0479537 0.100272 0.993804 
0.0557085 0.140318 0.988538 
0.055068 0.184335 0.98132 
0.0703844 0.254969 0.964384 
0.0908242 0.346634 0.933593 
0.145023 -0.314201 0.938214 
0.118807 -0.225087 0.967068 
0.110622 -0.166936 0.979742 
0.11116 -0.135156 0.984569 
0.0915026 -0.0962591 0.991141 
0.0739698 -0.0686825 0.994893 
0.0735698 -0.0701237 0.994822 
0.0532142 -0.0496698 0.997347 
0.0453206 -0.0416907 0.998102 
0.0321092 -0.0369604 0.998801 
0.0329625 -0.0258116 0.999123 
0.0319087 -0.0170228 0.999346 
0.0227199 -0.0200405 0.999541 
0.0254584 -0.0102909 0.999623 
0.0275856 -0.0060707 0.999601 
0.0234227 -0.00781105 0.999695 
0.0252099 -0.0119771 0.99961 
0.0283861 -0.00349446 0.999591 
0.022227 -0.001727 0.999751 
0.0278237 0.00417716 0.999604 
0.0209393 0.00369006 0.999774 
0.0194012 0.00286574 0.999808 
0.0263808 0.0137511 0.999557 
0.0144244 0.0231529 0.999628 
0.0215112 0.0392816 0.998997 
0.0112664 0.0539133 0.998482 
0.020704 0.0918443 0.995558 
0.0358371 0.139656 0.989551 
0.0530838 0.200284 0.978299 
0.0694285 0.285361 0.955902 
0.101687 0.373861 0.921894 
0.132849 -0.357071 0.924582 
0.112509 -0.272962 0.955423 
0.0876753 -0.188518 0.978148 
0.0836864 -0.142121 0.986305 
0.0769203 -0.118688 0.989948 
0.0578852 -0.0809859 0.995033 
0.046299 -0.0596828 0.997143 
0.0564804 -0.0578608 0.996726 
0.0346341 -0.0432587 0.998463 
0.0321917 -0.0355861 0.998848 
0.0204027 -0.0311933 0.999305 
0.021493 -0.0259682 0.999432 
0.0211776 -0.0149817 0.999663 
0.0212366 -0.0225469 0.99952 
0.0246007 -0.0210186 0.999476 
0.020931 -0.0146857 0.999673 
0.0252966 -0.0151088 0.999566 
0.0195724 -0.00959523 0.999762 
0.0237285 -0.000472205 0.999718 
0.0187168 -0.00680031 0.999802 
0.0147944 -0.00452794 0.99988 
0.0156939 -0.000742655 0.999877 
0.0176229 -0.000488601 0.999845 
0.0158071 0.00571989 0.999859 
0.0122891 0.0193527 0.999737 
0.00989556 0.0372411 0.999257 
0.00682708 0.0416045 0.999111 
0.00290116 0.0700401 0.99754 
0.0150991 0.113559 0.993416 
0.0353029 0.159452 0.986574 
0.0543764 0.232091 0.971173 
0.0798148 0.312279 0.946632 
0.118403 0.396917 0.910186 
0.148469 -0.380921 0.912609 
0.123475 -0.302788 0.945026 
0.0980781 -0.224625 0.969497 
0.0701771 -0.150993 0.986041 
0.0588016 -0.115492 0.991566 
0.0471336 -0.0897309 0.99485 
0.0366391 -0.0631819 0.997329 
0.0331264 -0.0573387 0.997805 
0.0337602 -0.0536626 0.997988 
0.0258876 -0.0331698 0.999114 
0.0212615 -0.0243606 0.999477 
0.0259811 -0.0268902 0.999301 
0.0259508 -0.0282775 0.999263 
0.0246555 -0.0172222 0.999548 
0.0191475 -0.019597 0.999625 
0.0147636 -0.0225448 0.999637 
0.0123871 -0.0110714 0.999862 
0.0162145 -0.0145376 0.999763 
0.0167404 -0.0144648 0.999755 
0.0185669 -0.00169027 0.999826 
0.0119928 -0.0122629 0.999853 
0.0125313 -0.0127422 0.99984 
0.0132758 -0.00324989 0.999907 
0.0103706 -0.00125381 0.999945 
0.0108342 -0.0014221 0.99994 
0.00129953 0.0126946 0.999919 
0.00914322 0.0294598 0.999524 
0.00723877 0.0290688 0.999551 
0.00862826 0.0524832 0.998585 
0.00996045 0.0910974 0.995792 
0.0221105 0.130285 0.99123 
0.0387637 0.183852 0.982189 
0.0608377 0.255491 0.964896 
0.092942 0.33149 0.93887 
0.129466 0.422761 0.896946 
0.159948 -0.382491 0.910009 
0.126099 -0.30667 0.943426 
0.105056 -0.240376 0.964978 
0.0799746 -0.17235 0.981784 
0.0612839 -0.123938 0.990396 
0.0545275 -0.0945372 0.994027 
0.047733 -0.0655396 0.996708 
0.0415183 -0.0520502 0.997781 
0.0299432 -0.0459009 0.998497 
0.0252702 -0.0281478 0.999284 
0.0270157 -0.0182265 0.999469 
0.0285625 -0.028276 0.999192 
0.0268617 -0.0300266 0.999188 
0.0267378 -0.0193668 0.999455 
0.0192654 -0.0162243 0.999683 
0.0103017 -0.0173899 0.999796 
0.0245316 -0.012376 0.999622 
0.0221272 -0.0174192 0.999603 
0.0246144 -0.0254415 0.999373 
0.0157641 -0.00831825 0.999841 
0.0123898 -0.0108176 0.999865 
0.00703829 -0.0183963 0.999806 
0.00707977 -0.00998077 0.999925 
0.00364788 -0.0045393 0.999983 
0.00147593 -0.00493599 0.999987 
-0.00365669 0.00597042 0.999975 
-0.00515235 0.0211946 0.999762 
0.00337476 0.0335255 0.999432 
0.0140352 0.0685875 0.997546 
0.0197011 0.105711 0.994202 
0.0267967 0.141443 0.989584 
0.0420496 0.19756 0.979389 
0.0691681 0.266312 0.961402 
0.104709 0.342108 0.933808 
0.148919 0.437593 0.886756 
0.157007 -0.383531 0.910084 
0.122237 -0.30588 0.94419 
0.0957388 -0.242136 0.965507 
0.0740237 -0.18398 0.980139 
0.0565786 -0.135558 0.989153 
0.044058 -0.105448 0.993448 
0.0352446 -0.0779398 0.996335 
0.033245 -0.0548755 0.99794 
0.0320104 -0.0435708 0.998537 
0.0220637 -0.0364731 0.999091 
0.0169485 -0.0323961 0.999331 
0.0259324 -0.025484 0.999339 
0.0242147 -0.0233199 0.999435 
0.0216121 -0.0250226 0.999453 
0.0223607 -0.0186714 0.999576 
0.0290957 -0.0160634 0.999448 
0.0237278 -0.019466 0.999529 
0.0369839 -0.0159374 0.999189 
0.033806 -0.0228513 0.999167 
0.023504 -0.02647 0.999373 
0.0201179 -0.00942152 0.999753 
0.0266264 -0.00993676 0.999596 
0.0143342 -0.0218418 0.999659 
0.0124119 -0.0149553 0.999811 
0.00589312 -0.00653525 0.999961 
0.00443631 -0.0076622 0.999961 
0.00717189 -0.00339506 0.999969 
-0.00530875 0.0192197 0.999801 
-0.00843803 0.0265601 0.999612 
-0.00106894 0.0372671 0.999305 
0.00880671 0.0724003 0.997337 
0.0171026 0.105593 0.994262 
0.0305562 0.144555 0.989025 
0.0544936 0.20461 0.977326 
0.0821364 0.27046 0.959221 
0.116711 0.346973 0.930585 
0.167117 0.444341 0.880132 
0.132304 -0.384895 0.913428 
0.115506 -0.305081 0.945296 
0.0907618 -0.240684 0.966351 
0.0652684 -0.19043 0.979529 
0.0493056 -0.141164 0.988758 
0.0375602 -0.101289 0.994148 
0.0229154 -0.0769796 0.996769 
0.0167159 -0.0604441 0.998032 
0.0200227 -0.0440409 0.998829 
0.0181271 -0.0295807 0.999398 
0.0158704 -0.0273954 0.999499 
0.0183799 -0.0294332 0.999398 
0.0256802 -0.0174741 0.999517 
0.0263656 -0.0176236 0.999497 
0.0258455 -0.0150076 0.999553 
0.0355188 -0.015796 0.999244 
0.037744 -0.0234888 0.999011 
0.0350127 -0.0140717 0.999288 
0.029935 -0.0170967 0.999406 
0.0252523 -0.0217246 0.999445 
0.0255482 -0.0133931 0.999584 
0.0289151 -0.019287 0.999396 
0.0285588 -0.0229625 0.999328 
0.0210688 -0.0123726 0.999701 
0.0120591 -0.00522421 0.999914 
0.00812859 -0.0138192 0.999871 
0.00177318 -0.0026327 0.999995 
-0.00467184 0.0168358 0.999847 
-0.00463003 0.0188148 0.999812 
-0.00183179 0.0368755 0.999318 
0.00581496 0.077387 0.996984 
0.0193886 0.109573 0.99379 
0.039848 0.149818 0.98791 
0.0656388 0.209284 0.975649 
0.0907047 0.272317 0.957923 
0.125014 0.345735 0.929967 
0.174334 0.43261 0.884566 
0.11859 -0.381033 0.916924 
0.10808 -0.304514 0.946356 
0.0879953 -0.236246 0.967701 
0.061936 -0.188851 0.980051 
0.0468829 -0.14783 0.987901 
0.0404489 -0.102347 0.993926 
0.0317522 -0.0705456 0.997003 
0.0273235 -0.0584918 0.997914 
0.0267327 -0.048423 0.998469 
0.0254995 -0.0300157 0.999224 
0.0276446 -0.0208978 0.999399 
0.0275472 -0.0249434 0.999309 
0.0283807 -0.0227855 0.999337 
0.0327742 -0.0187697 0.999287 
0.0355628 -0.0216856 0.999132 
0.0320887 -0.0156012 0.999363 
0.0320514 -0.0152241 0.99937 
0.036316 -0.0227416 0.999082 
0.0317361 -0.0169568 0.999352 
0.0274121 -0.00932692 0.999581 
0.0407208 -0.0220459 0.998927 
0.0329491 -0.023547 0.99918 
0.0185277 -0.0238482 0.999544 
0.0228352 -0.0245453 0.999438 
0.021066 -0.0170252 0.999633 
0.0165747 -0.0139033 0.999766 
0.00623789 -0.0144445 0.999876 
-0.00118597 -0.0166323 0.999861 
-0.00547625 -0.00379063 0.999978 
-0.000702928 0.00772729 0.99997 
0.0026594 0.0155921 0.999875 
0.00310747 0.0467181 0.998903 
0.0116282 0.0829129 0.996489 
0.0220598 0.105547 0.99417 
0.0363188 0.143765 0.988945 
0.0639861 0.202852 0.977117 
0.0980752 0.263331 0.959707 
0.13505 0.334064 0.932825 
0.178306 0.421442 0.889153 
0.112198 -0.399148 0.909996 
0.104872 -0.316457 0.942792 
0.0856173 -0.242172 0.966448 
0.0623655 -0.181286 0.981451 
0.0499768 -0.14335 0.988409 
0.0403929 -0.107861 0.993345 
0.0273856 -0.074051 0.996878 
0.0264774 -0.0564983 0.998052 
0.0326591 -0.048299 0.998299 
0.0288458 -0.0359911 0.998936 
0.0282875 -0.0257719 0.999268 
0.0333363 -0.0255219 0.999118 
0.0299131 -0.0247457 0.999246 
0.0315219 -0.0237398 0.999221 
0.0375107 -0.0292796 0.998867 
0.0343919 -0.0210713 0.999186 
0.0364271 -0.0161069 0.999207 
0.0338128 -0.0215131 0.999197 
0.0379054 -0.0263438 0.998934 
0.0356593 -0.0158531 0.999238 
0.0462223 -0.0254493 0.998607 
0.0382503 -0.0241608 0.998976 
0.0197992 -0.0133622 0.999715 
0.0145649 -0.0226582 0.999637 
0.0278964 -0.0297432 0.999168 
0.0160393 -0.0243562 0.999575 
0.00469807 -0.013149 0.999903 
-0.000682176 -0.00766192 0.99997 
-0.000732319 -0.00137909 0.999999 
0.00101382 0.0079148 0.999968 
-0.00169356 0.0220887 0.999755 
0.00183046 0.0451416 0.998979 
0.0156982 0.0666208 0.997655 
0.0235678 0.091462 0.99553 
0.038044 0.136365 0.989928 
0.0717338 0.189227 0.97931 
0.107629 0.243915 0.963806 
0.141388 0.314459 0.938683 
0.187808 0.398707 0.897642 
0.122932 -0.399607 0.908406 
0.105199 -0.33146 0.937586 
0.0830667 -0.258819 0.962347 
0.0571788 -0.186 0.980885 
0.0451757 -0.135708 0.989718 
0.0393856 -0.105447 0.993645 
0.0228092 -0.0770004 0.99677 
0.0146158 -0.0544366 0.99841 
0.0246512 -0.040109 0.998891 
0.0257201 -0.028514 0.999262 
0.0182072 -0.0226202 0.999578 
0.0213349 -0.0226154 0.999517 
0.0238801 -0.0196622 0.999521 
0.0243314 -0.0167888 0.999563 
0.0329362 -0.020795 0.999241 
0.0401423 -0.0208805 0.998976 
0.0441993 -0.0186498 0.998849 
0.0431619 -0.0234604 0.998793 
0.0481307 -0.0264965 0.99849 
0.0417682 -0.0270807 0.99876 
0.040918 -0.0237813 0.998879 
0.0366138 -0.0186509 0.999155 
0.0311311 -0.0155041 0.999395 
0.0376205 -0.0212018 0.999067 
0.0290374 -0.0322156 0.999059 
0.00861804 -0.0202161 0.999758 
0.0106867 -0.00643989 0.999922 
0.0115585 -0.00712652 0.999908 
0.00482958 -0.00186321 0.999987 
-0.00259807 0.014138 0.999897 
-0.00876957 0.0230781 0.999695 
-0.000352547 0.0347087 0.999397 
0.0177207 0.0633677 0.997833 
0.0315715 0.10231 0.994251 
0.051966 0.140952 0.988652 
0.0777858 0.182278 0.980165 
0.0996221 0.235821 0.966677 
0.132524 0.302782 0.943801 
0.176711 0.358687 0.916579 
0.13052 -0.387124 0.912743 
0.0959645 -0.297645 0.949841 
0.0679289 -0.214451 0.97437 
0.0477576 -0.146403 0.988072 
0.039469 -0.106751 0.993502 
0.0318441 -0.0777151 0.996467 
0.0220552 -0.052652 0.998369 
0.0214232 -0.0375317 0.999066 
0.0219965 -0.0241073 0.999467 
0.0152212 -0.0150358 0.999771 
0.014879 -0.0159325 0.999762 
0.0242325 -0.0158024 0.999581 
0.0310497 -0.0114333 0.999452 
0.0343913 -0.00861699 0.999371 
0.0368971 -0.0106703 0.999262 
0.0406467 -0.0164795 0.999038 
0.0439957 -0.0224742 0.998779 
0.0502714 -0.0216656 0.998501 
0.0505592 -0.0160525 0.998592 
0.0466818 -0.0244416 0.998611 
0.0423016 -0.0146763 0.998997 
0.0336313 -0.0218521 0.999195 
0.0334844 -0.0325025 0.998911 
0.0363412 -0.0248978 0.999029 
0.0309815 -0.0227399 0.999261 
0.0111754 -0.0227575 0.999679 
0.00866294 -0.0174051 0.999811 
0.0150211 -0.0131305 0.999801 
0.00897897 -0.0167153 0.99982 
0.00263401 -0.00131423 0.999996 
0.000508955 0.0188304 0.999823 
-0.00419727 0.0238546 0.999707 
-0.000315253 0.0434276 0.999057 
0.0136901 0.0821509 0.996526 
0.0312073 0.109694 0.993475 
0.0527784 0.13714 0.989145 
0.0768603 0.193215 0.978141 
0.112416 0.262447 0.958376 
0.166325 0.318506 0.933215 
0.125641 -0.349031 0.92865 
0.089929 -0.290992 0.95249 
0.0659396 -0.227532 0.971536 
0.0540154 -0.166334 0.984589 
0.0400276 -0.117539 0.992261 
0.0280172 -0.0824021 0.996205 
0.0240815 -0.0523719 0.998337 
0.0198746 -0.0371986 0.99911 
0.0129467 -0.0326715 0.999382 
0.0116664 -0.0214463 0.999702 
0.0167928 -0.0113471 0.999795 
0.0239137 -0.0133495 0.999625 
0.0340954 -0.0166929 0.999279 
0.0414845 -0.0129453 0.999055 
0.041149 -0.00664379 0.999131 
0.0396193 -0.0119255 0.999144 
0.0388452 -0.0210635 0.999023 
0.0418163 -0.0144076 0.999021 
0.0458813 -0.0166583 0.998808 
0.0478881 -0.02132 0.998625 
0.048058 -0.0156633 0.998722 
0.0444284 -0.0228795 0.998751 
0.0323086 -0.0372012 0.998785 
0.0214923 -0.0205307 0.999558 
0.0145021 -0.0166253 0.999757 
0.0153701 -0.0247742 0.999575 
0.0114928 -0.0151075 0.99982 
-0.000148151 -0.0111453 0.999938 
-0.00695208 -0.0111481 0.999914 
-0.000257391 0.0044993 0.99999 
0.00399627 0.0179559 0.999831 
-0.00150356 0.0283203 0.999598 
-0.00353787 0.0562351 0.998411 
0.00595819 0.082786 0.99655 
0.0197479 0.0973401 0.995055 
0.037651 0.134206 0.990238 
0.069736 0.193726 0.978574 
0.106514 0.242351 0.964324 
0.130768 0.271244 0.953586 
0.114923 -0.31536 0.941988 
0.0685039 -0.243602 0.967453 
0.0496369 -0.1817 0.982101 
0.0421012 -0.12924 0.990719 
0.023915 -0.0880385 0.99583 
0.012904 -0.0557349 0.998362 
0.0152457 -0.0327651 0.999347 
0.0100185 -0.0274535 0.999573 
0.00611405 -0.0253512 0.99966 
0.0172554 -0.0122254 0.999776 
0.0215037 -0.00283994 0.999765 
0.017671 -0.00831343 0.999809 
0.0245058 -0.0139799 0.999602 
0.0367453 -0.0104218 0.99927 
0.0425388 -0.00959812 0.999049 
0.042438 -0.0142895 0.998997 
0.0378243 -0.0107739 0.999226 
0.040124 -0.0074928 0.999167 
0.0492963 -0.0242265 0.99849 
0.0473195 -0.0322112 0.99836 
0.046035 -0.027643 0.998557 
0.0510264 -0.0160939 0.998568 
0.0478152 -0.0263478 0.998509 
0.0352983 -0.022202 0.99913 
0.0299765 -0.0111885 0.999488 
0.0314035 -0.023957 0.99922 
0.0211015 -0.0260318 0.999438 
0.0024509 -0.00457328 0.999987 
-0.0106565 -0.00208282 0.999941 
-0.0124529 -0.00660777 0.999901 
-0.00693486 0.0040742 0.999968 
-0.00292914 0.0174159 0.999844 
-0.00643519 0.034417 0.999387 
-0.00585618 0.0589116 0.998246 
0.00558392 0.0830871 0.996527 
0.0081159 0.112054 0.993669 
0.0155124 0.150729 0.988453 
0.0473411 0.194427 0.979774 
0.0679295 0.238518 0.96876 
0.0769735 -0.29307 0.952987 
0.0555646 -0.233182 0.970844 
0.0386901 -0.181667 0.982599 
0.0301145 -0.134434 0.990465 
0.0213023 -0.0892725 0.995779 
0.00813321 -0.0586851 0.998243 
0.00870012 -0.0393778 0.999187 
0.0145879 -0.019664 0.9997 
0.00765465 -0.0106611 0.999914 
0.00991312 -0.0119782 0.999879 
0.0215086 -0.00652086 0.999747 
0.0154684 -0.000589687 0.99988 
0.00864926 -0.00550489 0.999947 
0.0210782 -0.0101674 0.999726 
0.0343831 -0.00792187 0.999377 
0.0404713 -0.00749696 0.999153 
0.0434319 -0.0074766 0.999028 
0.0412543 -0.00482974 0.999137 
0.0457808 -0.00685391 0.998928 
0.0540832 -0.0219565 0.998295 
0.039754 -0.0186146 0.999036 
0.0374601 -0.0191018 0.999116 
0.0353681 -0.0209527 0.999155 
0.0332184 -0.0119038 0.999377 
0.0318688 -0.0162047 0.999361 
0.0193135 -0.0245752 0.999511 
0.0044162 -0.0129545 0.999906 
-0.000602801 -0.00421053 0.999991 
-0.00486215 -0.0072498 0.999962 
-0.0117844 -0.00263494 0.999927 
-0.0124232 0.0115556 0.999856 
-0.0120095 0.028067 0.999534 
-0.0179194 0.0428238 0.998922 
-0.0124407 0.0644561 0.997843 
-0.0026758 0.104305 0.994542 
-0.0131967 0.139274 0.990166 
-0.0176559 0.157516 0.987359 
-0.00725477 0.183399 0.983012 
-0.00148946 0.218558 0.975823 
0.0265 -0.275631 0.960898 
0.0258138 -0.200849 0.979282 
0.0136323 -0.155351 0.987765 
0.00615636 -0.105524 0.994398 
0.00277545 -0.0576465 0.998333 
-0.00085488 -0.0449696 0.998988 
0.00496118 -0.033767 0.999417 
0.00660328 -0.0056288 0.999962 
0.00410158 0.00101543 0.999991 
0.0164648 -0.00968943 0.999817 
0.0239499 -0.00512174 0.9997 
0.0192554 -0.00191551 0.999813 
0.0269403 -0.00927099 0.999594 
0.0360062 -0.00892241 0.999312 
0.0349785 -0.00348752 0.999382 
0.041781 -0.00568009 0.999111 
0.0453458 -0.0142821 0.998869 
0.0396174 -0.0164342 0.99908 